# vtk DataFile Version 3.1
this is an vtk file created by FEMAC
ASCII
DATASET UNSTRUCTURED_GRID
POINTS 12 FLOAT
4.500000 0.000000 0.000000
5.000000 0.000000 0.000000
4.500000 0.200000 0.000000
4.500000 0.400000 0.000000
4.500000 0.600000 0.000000
4.500000 0.800000 0.000000
4.500000 1.000000 0.000000
5.000000 0.200000 0.000000
5.000000 0.400000 0.000000
5.000000 0.600000 0.000000
5.000000 0.800000 0.000000
5.000000 1.000000 0.000000
CELLS 5 25 
4 0 1 7 2
4 2 7 8 3
4 3 8 9 4
4 4  9 10  5
4 5 10 11  6
CELL_TYPES 5
9 9 9 9 9 
POINT_DATA 12
VECTORS displacement_ITER1 FLOAT
 -2.490709e-03  -1.488734e-02  0 
 -2.575153e-03  -1.747913e-02  0 
 -1.472144e-03  -1.487794e-02  0 
 -4.992278e-04  -1.487219e-02  0 
 5.183047e-04  -1.487254e-02  0 
 1.490952e-03  -1.487814e-02  0 
 2.509232e-03  -1.488745e-02  0 
 -1.525828e-03  -1.747183e-02  0 
 -5.143719e-04  -1.746814e-02  0 
 5.334872e-04  -1.746782e-02  0 
 1.544413e-03  -1.747183e-02  0 
 2.593911e-03  -1.747922e-02  0 
VECTORS displacement_ITER2 FLOAT
 -2.490180e-03  -1.488799e-02  0 
 -2.574628e-03  -1.747863e-02  0 
 -1.472177e-03  -1.487842e-02  0 
 -4.988797e-04  -1.487323e-02  0 
 5.176657e-04  -1.487325e-02  0 
 1.490912e-03  -1.487842e-02  0 
 2.508911e-03  -1.488800e-02  0 
 -1.525579e-03  -1.747154e-02  0 
 -5.145025e-04  -1.746767e-02  0 
 5.332717e-04  -1.746763e-02  0 
 1.544314e-03  -1.747156e-02  0 
 2.593378e-03  -1.747865e-02  0 
VECTORS displacement_ITER3 FLOAT
 -2.490138e-03  -1.488819e-02  0 
 -2.574618e-03  -1.747882e-02  0 
 -1.472210e-03  -1.487861e-02  0 
 -4.988480e-04  -1.487346e-02  0 
 5.176037e-04  -1.487345e-02  0 
 1.490956e-03  -1.487860e-02  0 
 2.508891e-03  -1.488817e-02  0 
 -1.525491e-03  -1.747175e-02  0 
 -5.145500e-04  -1.746784e-02  0 
 5.333047e-04  -1.746784e-02  0 
 1.544238e-03  -1.747174e-02  0 
 2.593367e-03  -1.747882e-02  0 
VECTORS displacement_ITER4 FLOAT
 -2.490140e-03  -1.488819e-02  0 
 -2.574618e-03  -1.747883e-02  0 
 -1.472208e-03  -1.487862e-02  0 
 -4.988484e-04  -1.487346e-02  0 
 5.176004e-04  -1.487346e-02  0 
 1.490954e-03  -1.487860e-02  0 
 2.508894e-03  -1.488817e-02  0 
 -1.525484e-03  -1.747176e-02  0 
 -5.145572e-04  -1.746786e-02  0 
 5.333060e-04  -1.746786e-02  0 
 1.544233e-03  -1.747176e-02  0 
 2.593370e-03  -1.747883e-02  0 
VECTORS displacement_ITER5 FLOAT
 -2.490140e-03  -1.488819e-02  0 
 -2.574618e-03  -1.747883e-02  0 
 -1.472209e-03  -1.487862e-02  0 
 -4.988481e-04  -1.487347e-02  0 
 5.176003e-04  -1.487346e-02  0 
 1.490955e-03  -1.487860e-02  0 
 2.508894e-03  -1.488817e-02  0 
 -1.525484e-03  -1.747176e-02  0 
 -5.145571e-04  -1.746786e-02  0 
 5.333060e-04  -1.746786e-02  0 
 1.544233e-03  -1.747176e-02  0 
 2.593370e-03  -1.747883e-02  0 
VECTORS displacement_ITER6 FLOAT
 -2.490140e-03  -1.488819e-02  0 
 -2.574618e-03  -1.747883e-02  0 
 -1.472208e-03  -1.487862e-02  0 
 -4.988481e-04  -1.487347e-02  0 
 5.176003e-04  -1.487346e-02  0 
 1.490955e-03  -1.487860e-02  0 
 2.508894e-03  -1.488817e-02  0 
 -1.525484e-03  -1.747176e-02  0 
 -5.145571e-04  -1.746786e-02  0 
 5.333060e-04  -1.746786e-02  0 
 1.544233e-03  -1.747176e-02  0 
 2.593370e-03  -1.747883e-02  0 
VECTORS displacement_ITER7 FLOAT
 -2.490140e-03  -1.488819e-02  0 
 -2.574618e-03  -1.747883e-02  0 
 -1.472208e-03  -1.487862e-02  0 
 -4.988481e-04  -1.487347e-02  0 
 5.176003e-04  -1.487346e-02  0 
 1.490955e-03  -1.487860e-02  0 
 2.508894e-03  -1.488817e-02  0 
 -1.525484e-03  -1.747176e-02  0 
 -5.145571e-04  -1.746786e-02  0 
 5.333060e-04  -1.746786e-02  0 
 1.544233e-03  -1.747176e-02  0 
 2.593370e-03  -1.747883e-02  0 
CELL_DATA 5
TENSORS element_stresses FLOAT
 -1.376592e-01  -1.240242e-02  0 
 -1.240242e-02  3.144411e-04  0 
 0  0  0 

 -6.834938e-03  -1.744748e-02  0 
 -1.744748e-02  2.116268e-04  0 
 0  0  0 

 -2.442092e-06  -2.154673e-02  0 
 -2.154673e-02  2.733086e-06  0 
 0  0  0 

 6.836143e-03  -1.744980e-02  0 
 -1.744980e-02  -2.074369e-04  0 
 0  0  0 

 1.376604e-01  -1.240357e-02  0 
 -1.240357e-02  -3.128864e-04  0 
 0  0  0 

TENSORS element_stresses FLOAT
 -1.376592e-01  -1.240242e-02  0 
 -1.240242e-02  3.144411e-04  0 
 0  0  0 

 -6.834938e-03  -1.744748e-02  0 
 -1.744748e-02  2.116268e-04  0 
 0  0  0 

 -2.442092e-06  -2.154673e-02  0 
 -2.154673e-02  2.733086e-06  0 
 0  0  0 

 6.836143e-03  -1.744980e-02  0 
 -1.744980e-02  -2.074369e-04  0 
 0  0  0 

 1.376604e-01  -1.240357e-02  0 
 -1.240357e-02  -3.128864e-04  0 
 0  0  0 

