# vtk DataFile Version 3.1
this is an vtk file created by FEMAC
ASCII
DATASET UNSTRUCTURED_GRID
POINTS 12 FLOAT
3.000000 0.000000 0.000000
3.500000 0.000000 0.000000
3.000000 0.200000 0.000000
3.000000 0.400000 0.000000
3.000000 0.600000 0.000000
3.000000 0.800000 0.000000
3.000000 1.000000 0.000000
3.500000 0.200000 0.000000
3.500000 0.400000 0.000000
3.500000 0.600000 0.000000
3.500000 0.800000 0.000000
3.500000 1.000000 0.000000
CELLS 5 25 
4 0 1 7 2
4 2 7 8 3
4 3 8 9 4
4 4  9 10  5
4 5 10 11  6
CELL_TYPES 5
9 9 9 9 9 
POINT_DATA 12
VECTORS displacement_ITER1 FLOAT
 -2.052580e-03  -7.784381e-03  0 
 -2.232913e-03  -1.000781e-02  0 
 -1.201691e-03  -7.765054e-03  0 
 -4.153461e-04  -7.755972e-03  0 
 4.339391e-04  -7.755470e-03  0 
 1.220717e-03  -7.765198e-03  0 
 2.071273e-03  -7.784938e-03  0 
 -1.313119e-03  -9.991860e-03  0 
 -4.495104e-04  -9.984407e-03  0 
 4.675273e-04  -9.984551e-03  0 
 1.332338e-03  -9.991669e-03  0 
 2.252029e-03  -1.000753e-02  0 
VECTORS displacement_ITER2 FLOAT
 -2.052916e-03  -7.785500e-03  0 
 -2.233285e-03  -1.000961e-02  0 
 -1.202032e-03  -7.766174e-03  0 
 -4.150078e-04  -7.756277e-03  0 
 4.336559e-04  -7.756294e-03  0 
 1.220900e-03  -7.766596e-03  0 
 2.071604e-03  -7.785910e-03  0 
 -1.312875e-03  -9.993897e-03  0 
 -4.498588e-04  -9.985690e-03  0 
 4.686228e-04  -9.985705e-03  0 
 1.331649e-03  -9.993955e-03  0 
 2.251985e-03  -1.000965e-02  0 
VECTORS displacement_ITER3 FLOAT
 -2.052923e-03  -7.785547e-03  0 
 -2.233296e-03  -1.000962e-02  0 
 -1.202042e-03  -7.766194e-03  0 
 -4.150038e-04  -7.756306e-03  0 
 4.336816e-04  -7.756338e-03  0 
 1.220872e-03  -7.766606e-03  0 
 2.071596e-03  -7.785968e-03  0 
 -1.312894e-03  -9.993923e-03  0 
 -4.498461e-04  -9.985737e-03  0 
 4.686186e-04  -9.985739e-03  0 
 1.331672e-03  -9.993990e-03  0 
 2.251990e-03  -1.000969e-02  0 
VECTORS displacement_ITER4 FLOAT
 -2.052922e-03  -7.785546e-03  0 
 -2.233298e-03  -1.000963e-02  0 
 -1.202043e-03  -7.766199e-03  0 
 -4.150074e-04  -7.756311e-03  0 
 4.336799e-04  -7.756345e-03  0 
 1.220873e-03  -7.766611e-03  0 
 2.071597e-03  -7.785971e-03  0 
 -1.312892e-03  -9.993925e-03  0 
 -4.498459e-04  -9.985741e-03  0 
 4.686168e-04  -9.985747e-03  0 
 1.331674e-03  -9.993993e-03  0 
 2.251991e-03  -1.000970e-02  0 
VECTORS displacement_ITER5 FLOAT
 -2.052922e-03  -7.785545e-03  0 
 -2.233298e-03  -1.000963e-02  0 
 -1.202042e-03  -7.766199e-03  0 
 -4.150075e-04  -7.756311e-03  0 
 4.336799e-04  -7.756344e-03  0 
 1.220873e-03  -7.766611e-03  0 
 2.071597e-03  -7.785970e-03  0 
 -1.312892e-03  -9.993925e-03  0 
 -4.498461e-04  -9.985740e-03  0 
 4.686169e-04  -9.985746e-03  0 
 1.331674e-03  -9.993993e-03  0 
 2.251991e-03  -1.000970e-02  0 
VECTORS displacement_ITER6 FLOAT
 -2.052922e-03  -7.785546e-03  0 
 -2.233298e-03  -1.000963e-02  0 
 -1.202042e-03  -7.766199e-03  0 
 -4.150074e-04  -7.756311e-03  0 
 4.336798e-04  -7.756344e-03  0 
 1.220873e-03  -7.766611e-03  0 
 2.071597e-03  -7.785971e-03  0 
 -1.312892e-03  -9.993926e-03  0 
 -4.498462e-04  -9.985740e-03  0 
 4.686169e-04  -9.985746e-03  0 
 1.331674e-03  -9.993993e-03  0 
 2.251991e-03  -1.000970e-02  0 
VECTORS displacement_ITER7 FLOAT
 -2.052922e-03  -7.785546e-03  0 
 -2.233298e-03  -1.000963e-02  0 
 -1.202042e-03  -7.766199e-03  0 
 -4.150074e-04  -7.756311e-03  0 
 4.336798e-04  -7.756344e-03  0 
 1.220873e-03  -7.766611e-03  0 
 2.071597e-03  -7.785971e-03  0 
 -1.312892e-03  -9.993926e-03  0 
 -4.498462e-04  -9.985740e-03  0 
 4.686169e-04  -9.985746e-03  0 
 1.331674e-03  -9.993993e-03  0 
 2.251991e-03  -1.000970e-02  0 
CELL_DATA 5
TENSORS element_stresses FLOAT
 -2.911377e-01  -1.815390e-02  0 
 -1.815390e-02  2.914068e-04  0 
 0  0  0 

 -1.452014e-02  -2.553487e-02  0 
 -2.553487e-02  1.623520e-04  0 
 0  0  0 

 7.637463e-05  -3.150466e-02  0 
 -3.150466e-02  -7.322078e-05  0 
 0  0  0 

 1.448931e-02  -2.547377e-02  0 
 -2.547377e-02  -2.817365e-04  0 
 0  0  0 

 2.910921e-01  -1.808280e-02  0 
 -1.808280e-02  -3.434625e-04  0 
 0  0  0 

TENSORS element_stresses FLOAT
 -2.911377e-01  -1.815390e-02  0 
 -1.815390e-02  2.914068e-04  0 
 0  0  0 

 -1.452014e-02  -2.553487e-02  0 
 -2.553487e-02  1.623520e-04  0 
 0  0  0 

 7.637463e-05  -3.150466e-02  0 
 -3.150466e-02  -7.322078e-05  0 
 0  0  0 

 1.448931e-02  -2.547377e-02  0 
 -2.547377e-02  -2.817365e-04  0 
 0  0  0 

 2.910921e-01  -1.808280e-02  0 
 -1.808280e-02  -3.434625e-04  0 
 0  0  0 

