# vtk DataFile Version 3.1
this is an vtk file created by FEMAC
ASCII
DATASET UNSTRUCTURED_GRID
POINTS 12 FLOAT
7.500000 0.000000 0.000000
8.000000 0.000000 0.000000
7.500000 0.200000 0.000000
7.500000 0.400000 0.000000
7.500000 0.600000 0.000000
7.500000 0.800000 0.000000
7.500000 1.000000 0.000000
8.000000 0.200000 0.000000
8.000000 0.400000 0.000000
8.000000 0.600000 0.000000
8.000000 0.800000 0.000000
8.000000 1.000000 0.000000
CELLS 5 25 
4 0 1 7 2
4 2 7 8 3
4 3 8 9 4
4 4  9 10  5
4 5 10 11  6
CELL_TYPES 5
9 9 9 9 9 
POINT_DATA 12
VECTORS displacement_ITER1 FLOAT
 -2.717927e-03  -3.102988e-02  0 
 -2.718812e-03  -3.376363e-02  0 
 -1.624073e-03  -3.102956e-02  0 
 -5.372548e-04  -3.102926e-02  0 
 5.560872e-04  -3.102929e-02  0 
 1.642941e-03  -3.102954e-02  0 
 2.736766e-03  -3.102983e-02  0 
 -1.625778e-03  -3.376345e-02  0 
 -5.368303e-04  -3.376245e-02  0 
 5.556804e-04  -3.376244e-02  0 
 1.644613e-03  -3.376341e-02  0 
 2.737658e-03  -3.376360e-02  0 
VECTORS displacement_ITER2 FLOAT
 -2.717379e-03  -3.102737e-02  0 
 -2.718284e-03  -3.376044e-02  0 
 -1.623862e-03  -3.102708e-02  0 
 -5.372042e-04  -3.102673e-02  0 
 5.559607e-04  -3.102673e-02  0 
 1.642616e-03  -3.102708e-02  0 
 2.736134e-03  -3.102737e-02  0 
 -1.625504e-03  -3.376026e-02  0 
 -5.367710e-04  -3.375939e-02  0 
 5.555272e-04  -3.375938e-02  0 
 1.644258e-03  -3.376026e-02  0 
 2.737040e-03  -3.376044e-02  0 
VECTORS displacement_ITER3 FLOAT
 -2.717318e-03  -3.102710e-02  0 
 -2.718222e-03  -3.376011e-02  0 
 -1.623823e-03  -3.102681e-02  0 
 -5.371925e-04  -3.102646e-02  0 
 5.559428e-04  -3.102646e-02  0 
 1.642574e-03  -3.102681e-02  0 
 2.736068e-03  -3.102710e-02  0 
 -1.625466e-03  -3.375993e-02  0 
 -5.367607e-04  -3.375905e-02  0 
 5.555111e-04  -3.375905e-02  0 
 1.644216e-03  -3.375993e-02  0 
 2.736973e-03  -3.376011e-02  0 
VECTORS displacement_ITER4 FLOAT
 -2.717311e-03  -3.102708e-02  0 
 -2.718216e-03  -3.376008e-02  0 
 -1.623819e-03  -3.102679e-02  0 
 -5.371913e-04  -3.102644e-02  0 
 5.559412e-04  -3.102644e-02  0 
 1.642569e-03  -3.102679e-02  0 
 2.736061e-03  -3.102708e-02  0 
 -1.625463e-03  -3.375990e-02  0 
 -5.367598e-04  -3.375902e-02  0 
 5.555098e-04  -3.375902e-02  0 
 1.644212e-03  -3.375990e-02  0 
 2.736966e-03  -3.376008e-02  0 
VECTORS displacement_ITER5 FLOAT
 -2.717310e-03  -3.102708e-02  0 
 -2.718215e-03  -3.376008e-02  0 
 -1.623819e-03  -3.102679e-02  0 
 -5.371911e-04  -3.102644e-02  0 
 5.559411e-04  -3.102644e-02  0 
 1.642569e-03  -3.102679e-02  0 
 2.736060e-03  -3.102708e-02  0 
 -1.625462e-03  -3.375990e-02  0 
 -5.367596e-04  -3.375902e-02  0 
 5.555096e-04  -3.375902e-02  0 
 1.644212e-03  -3.375990e-02  0 
 2.736965e-03  -3.376008e-02  0 
VECTORS displacement_ITER6 FLOAT
 -2.717310e-03  -3.102708e-02  0 
 -2.718215e-03  -3.376008e-02  0 
 -1.623819e-03  -3.102679e-02  0 
 -5.371911e-04  -3.102644e-02  0 
 5.559411e-04  -3.102644e-02  0 
 1.642569e-03  -3.102679e-02  0 
 2.736060e-03  -3.102708e-02  0 
 -1.625462e-03  -3.375990e-02  0 
 -5.367596e-04  -3.375902e-02  0 
 5.555096e-04  -3.375902e-02  0 
 1.644212e-03  -3.375990e-02  0 
 2.736965e-03  -3.376008e-02  0 
VECTORS displacement_ITER7 FLOAT
 -2.717310e-03  -3.102708e-02  0 
 -2.718215e-03  -3.376008e-02  0 
 -1.623819e-03  -3.102679e-02  0 
 -5.371911e-04  -3.102644e-02  0 
 5.559411e-04  -3.102644e-02  0 
 1.642569e-03  -3.102679e-02  0 
 2.736060e-03  -3.102708e-02  0 
 -1.625462e-03  -3.375990e-02  0 
 -5.367596e-04  -3.375902e-02  0 
 5.555096e-04  -3.375902e-02  0 
 1.644212e-03  -3.375990e-02  0 
 2.736965e-03  -3.376008e-02  0 
CELL_DATA 5
TENSORS element_stresses FLOAT
 -2.410877e-03  -3.829999e-04  0 
 -3.829999e-04  4.559685e-04  0 
 0  0  0 

 -3.174956e-05  -2.104771e-03  0 
 -2.104771e-03  2.979785e-04  0 
 0  0  0 

 -2.442462e-09  -1.274459e-03  0 
 -1.274459e-03  1.981874e-09  0 
 0  0  0 

 3.174991e-05  -2.104774e-03  0 
 -2.104774e-03  -2.979777e-04  0 
 0  0  0 

 2.410879e-03  -3.829962e-04  0 
 -3.829962e-04  -4.559690e-04  0 
 0  0  0 

TENSORS element_stresses FLOAT
 -2.410877e-03  -3.829999e-04  0 
 -3.829999e-04  4.559685e-04  0 
 0  0  0 

 -3.174956e-05  -2.104771e-03  0 
 -2.104771e-03  2.979785e-04  0 
 0  0  0 

 -2.442462e-09  -1.274459e-03  0 
 -1.274459e-03  1.981874e-09  0 
 0  0  0 

 3.174991e-05  -2.104774e-03  0 
 -2.104774e-03  -2.979777e-04  0 
 0  0  0 

 2.410879e-03  -3.829962e-04  0 
 -3.829962e-04  -4.559690e-04  0 
 0  0  0 

