# vtk DataFile Version 3.1
this is an vtk file created by FEMAC
ASCII
DATASET UNSTRUCTURED_GRID
POINTS 12 FLOAT
2.000000 0.000000 0.000000
2.500000 0.000000 0.000000
2.000000 0.200000 0.000000
2.000000 0.400000 0.000000
2.000000 0.600000 0.000000
2.000000 0.800000 0.000000
2.000000 1.000000 0.000000
2.500000 0.200000 0.000000
2.500000 0.400000 0.000000
2.500000 0.600000 0.000000
2.500000 0.800000 0.000000
2.500000 1.000000 0.000000
CELLS 5 25 
4 0 1 7 2
4 2 7 8 3
4 3 8 9 4
4 4  9 10  5
4 5 10 11  6
CELL_TYPES 5
9 9 9 9 9 
POINT_DATA 12
VECTORS displacement_ITER1 FLOAT
 -1.567330e-03  -3.960020e-03  0 
 -1.832160e-03  -5.754664e-03  0 
 -9.069426e-04  -3.932469e-03  0 
 -3.202140e-04  -3.917271e-03  0 
 3.390968e-04  -3.917041e-03  0 
 9.246296e-04  -3.930044e-03  0 
 1.587560e-03  -3.956887e-03  0 
 -1.066776e-03  -5.731400e-03  0 
 -3.723909e-04  -5.719617e-03  0 
 3.905825e-04  -5.719643e-03  0 
 1.085640e-03  -5.731658e-03  0 
 1.851447e-03  -5.755486e-03  0 
VECTORS displacement_ITER2 FLOAT
 -1.567543e-03  -3.959590e-03  0 
 -1.832395e-03  -5.754300e-03  0 
 -9.067002e-04  -3.931778e-03  0 
 -3.203785e-04  -3.916743e-03  0 
 3.391155e-04  -3.916502e-03  0 
 9.243619e-04  -3.929008e-03  0 
 1.587684e-03  -3.956783e-03  0 
 -1.067337e-03  -5.730926e-03  0 
 -3.721921e-04  -5.719154e-03  0 
 3.906139e-04  -5.719171e-03  0 
 1.085968e-03  -5.731372e-03  0 
 1.851453e-03  -5.754732e-03  0 
VECTORS displacement_ITER3 FLOAT
 -1.567571e-03  -3.959587e-03  0 
 -1.832411e-03  -5.754416e-03  0 
 -9.067097e-04  -3.931844e-03  0 
 -3.204028e-04  -3.916770e-03  0 
 3.391137e-04  -3.916537e-03  0 
 9.243750e-04  -3.929092e-03  0 
 1.587705e-03  -3.956823e-03  0 
 -1.067302e-03  -5.731033e-03  0 
 -3.722188e-04  -5.719244e-03  0 
 3.906178e-04  -5.719267e-03  0 
 1.085958e-03  -5.731464e-03  0 
 1.851472e-03  -5.754843e-03  0 
VECTORS displacement_ITER4 FLOAT
 -1.567570e-03  -3.959589e-03  0 
 -1.832411e-03  -5.754416e-03  0 
 -9.067095e-04  -3.931846e-03  0 
 -3.204033e-04  -3.916776e-03  0 
 3.391136e-04  -3.916541e-03  0 
 9.243765e-04  -3.929093e-03  0 
 1.587706e-03  -3.956822e-03  0 
 -1.067303e-03  -5.731033e-03  0 
 -3.722168e-04  -5.719246e-03  0 
 3.906180e-04  -5.719270e-03  0 
 1.085957e-03  -5.731465e-03  0 
 1.851471e-03  -5.754842e-03  0 
VECTORS displacement_ITER5 FLOAT
 -1.567569e-03  -3.959590e-03  0 
 -1.832411e-03  -5.754416e-03  0 
 -9.067096e-04  -3.931847e-03  0 
 -3.204030e-04  -3.916777e-03  0 
 3.391138e-04  -3.916541e-03  0 
 9.243767e-04  -3.929093e-03  0 
 1.587706e-03  -3.956822e-03  0 
 -1.067304e-03  -5.731032e-03  0 
 -3.722164e-04  -5.719245e-03  0 
 3.906179e-04  -5.719270e-03  0 
 1.085958e-03  -5.731465e-03  0 
 1.851471e-03  -5.754841e-03  0 
VECTORS displacement_ITER6 FLOAT
 -1.567569e-03  -3.959590e-03  0 
 -1.832411e-03  -5.754416e-03  0 
 -9.067096e-04  -3.931847e-03  0 
 -3.204030e-04  -3.916777e-03  0 
 3.391139e-04  -3.916541e-03  0 
 9.243766e-04  -3.929093e-03  0 
 1.587706e-03  -3.956822e-03  0 
 -1.067304e-03  -5.731032e-03  0 
 -3.722165e-04  -5.719245e-03  0 
 3.906179e-04  -5.719270e-03  0 
 1.085958e-03  -5.731465e-03  0 
 1.851471e-03  -5.754842e-03  0 
VECTORS displacement_ITER7 FLOAT
 -1.567569e-03  -3.959590e-03  0 
 -1.832411e-03  -5.754416e-03  0 
 -9.067096e-04  -3.931847e-03  0 
 -3.204030e-04  -3.916777e-03  0 
 3.391139e-04  -3.916541e-03  0 
 9.243766e-04  -3.929093e-03  0 
 1.587706e-03  -3.956822e-03  0 
 -1.067304e-03  -5.731032e-03  0 
 -3.722165e-04  -5.719245e-03  0 
 3.906179e-04  -5.719270e-03  0 
 1.085958e-03  -5.731465e-03  0 
 1.851471e-03  -5.754842e-03  0 
CELL_DATA 5
TENSORS element_stresses FLOAT
 -4.253747e-01  -2.238000e-02  0 
 -2.238000e-02  2.040095e-04  0 
 0  0  0 

 -2.112801e-02  -3.062847e-02  0 
 -3.062847e-02  3.758380e-04  0 
 0  0  0 

 -1.667492e-04  -3.793821e-02  0 
 -3.793821e-02  4.758936e-04  0 
 0  0  0 

 2.137642e-02  -3.104575e-02  0 
 -3.104575e-02  2.264570e-04  0 
 0  0  0 

 4.252930e-01  -2.175757e-02  0 
 -2.175757e-02  -1.777227e-04  0 
 0  0  0 

TENSORS element_stresses FLOAT
 -4.253747e-01  -2.238000e-02  0 
 -2.238000e-02  2.040095e-04  0 
 0  0  0 

 -2.112801e-02  -3.062847e-02  0 
 -3.062847e-02  3.758380e-04  0 
 0  0  0 

 -1.667492e-04  -3.793821e-02  0 
 -3.793821e-02  4.758936e-04  0 
 0  0  0 

 2.137642e-02  -3.104575e-02  0 
 -3.104575e-02  2.264570e-04  0 
 0  0  0 

 4.252930e-01  -2.175757e-02  0 
 -2.175757e-02  -1.777227e-04  0 
 0  0  0 

