# vtk DataFile Version 3.1
this is an vtk file created by FEMAC
ASCII
DATASET UNSTRUCTURED_GRID
POINTS 12 FLOAT
3.500000 0.000000 0.000000
4.000000 0.000000 0.000000
3.500000 0.200000 0.000000
3.500000 0.400000 0.000000
3.500000 0.600000 0.000000
3.500000 0.800000 0.000000
3.500000 1.000000 0.000000
4.000000 0.200000 0.000000
4.000000 0.400000 0.000000
4.000000 0.600000 0.000000
4.000000 0.800000 0.000000
4.000000 1.000000 0.000000
CELLS 5 25 
4 0 1 7 2
4 2 7 8 3
4 3 8 9 4
4 4  9 10  5
4 5 10 11  6
CELL_TYPES 5
9 9 9 9 9 
POINT_DATA 12
VECTORS displacement_ITER1 FLOAT
 -2.233377e-03  -1.000787e-02  0 
 -2.377819e-03  -1.238711e-02  0 
 -1.312651e-03  -9.992554e-03  0 
 -4.504313e-04  -9.983145e-03  0 
 4.696635e-04  -9.983156e-03  0 
 1.331276e-03  -9.992802e-03  0 
 2.251871e-03  -1.000830e-02  0 
 -1.402702e-03  -1.237403e-02  0 
 -4.768716e-04  -1.236731e-02  0 
 4.957422e-04  -1.236741e-02  0 
 1.421339e-03  -1.237461e-02  0 
 2.396630e-03  -1.238723e-02  0 
VECTORS displacement_ITER2 FLOAT
 -2.233287e-03  -1.000959e-02  0 
 -2.377666e-03  -1.238833e-02  0 
 -1.312895e-03  -9.993859e-03  0 
 -4.498206e-04  -9.985711e-03  0 
 4.685925e-04  -9.985724e-03  0 
 1.331684e-03  -9.993946e-03  0 
 2.251963e-03  -1.000969e-02  0 
 -1.402176e-03  -1.237592e-02  0 
 -4.774985e-04  -1.236928e-02  0 
 4.962715e-04  -1.236926e-02  0 
 1.420923e-03  -1.237590e-02  0 
 2.396425e-03  -1.238834e-02  0 
VECTORS displacement_ITER3 FLOAT
 -2.233301e-03  -1.000962e-02  0 
 -2.377698e-03  -1.238848e-02  0 
 -1.312888e-03  -9.993914e-03  0 
 -4.498435e-04  -9.985741e-03  0 
 4.686134e-04  -9.985751e-03  0 
 1.331671e-03  -9.993984e-03  0 
 2.251992e-03  -1.000970e-02  0 
 -1.402145e-03  -1.237603e-02  0 
 -4.775363e-04  -1.236943e-02  0 
 4.963035e-04  -1.236943e-02  0 
 1.420892e-03  -1.237601e-02  0 
 2.396441e-03  -1.238846e-02  0 
VECTORS displacement_ITER4 FLOAT
 -2.233297e-03  -1.000963e-02  0 
 -2.377695e-03  -1.238848e-02  0 
 -1.312893e-03  -9.993926e-03  0 
 -4.498464e-04  -9.985739e-03  0 
 4.686174e-04  -9.985745e-03  0 
 1.331674e-03  -9.993993e-03  0 
 2.251991e-03  -1.000970e-02  0 
 -1.402148e-03  -1.237603e-02  0 
 -4.775399e-04  -1.236944e-02  0 
 4.963055e-04  -1.236944e-02  0 
 1.420897e-03  -1.237600e-02  0 
 2.396437e-03  -1.238845e-02  0 
VECTORS displacement_ITER5 FLOAT
 -2.233298e-03  -1.000963e-02  0 
 -2.377696e-03  -1.238848e-02  0 
 -1.312892e-03  -9.993925e-03  0 
 -4.498463e-04  -9.985740e-03  0 
 4.686169e-04  -9.985746e-03  0 
 1.331674e-03  -9.993993e-03  0 
 2.251991e-03  -1.000970e-02  0 
 -1.402147e-03  -1.237603e-02  0 
 -4.775400e-04  -1.236944e-02  0 
 4.963053e-04  -1.236944e-02  0 
 1.420897e-03  -1.237600e-02  0 
 2.396438e-03  -1.238845e-02  0 
VECTORS displacement_ITER6 FLOAT
 -2.233298e-03  -1.000963e-02  0 
 -2.377696e-03  -1.238848e-02  0 
 -1.312892e-03  -9.993926e-03  0 
 -4.498462e-04  -9.985740e-03  0 
 4.686169e-04  -9.985746e-03  0 
 1.331674e-03  -9.993993e-03  0 
 2.251991e-03  -1.000970e-02  0 
 -1.402147e-03  -1.237603e-02  0 
 -4.775400e-04  -1.236944e-02  0 
 4.963053e-04  -1.236944e-02  0 
 1.420897e-03  -1.237600e-02  0 
 2.396438e-03  -1.238845e-02  0 
VECTORS displacement_ITER7 FLOAT
 -2.233298e-03  -1.000963e-02  0 
 -2.377696e-03  -1.238848e-02  0 
 -1.312892e-03  -9.993926e-03  0 
 -4.498462e-04  -9.985740e-03  0 
 4.686169e-04  -9.985746e-03  0 
 1.331674e-03  -9.993993e-03  0 
 2.251991e-03  -1.000970e-02  0 
 -1.402147e-03  -1.237603e-02  0 
 -4.775400e-04  -1.236944e-02  0 
 4.963053e-04  -1.236944e-02  0 
 1.420897e-03  -1.237600e-02  0 
 2.396438e-03  -1.238845e-02  0 
CELL_DATA 5
TENSORS element_stresses FLOAT
 -2.335586e-01  -1.620490e-02  0 
 -1.620490e-02  3.147768e-04  0 
 0  0  0 

 -1.163366e-02  -2.282095e-02  0 
 -2.282095e-02  2.040587e-04  0 
 0  0  0 

 -8.777265e-06  -2.816949e-02  0 
 -2.816949e-02  -1.128452e-05  0 
 0  0  0 

 1.162653e-02  -2.281398e-02  0 
 -2.281398e-02  -2.152277e-04  0 
 0  0  0 

 2.335745e-01  -1.624067e-02  0 
 -1.624067e-02  -3.145604e-04  0 
 0  0  0 

TENSORS element_stresses FLOAT
 -2.335586e-01  -1.620490e-02  0 
 -1.620490e-02  3.147768e-04  0 
 0  0  0 

 -1.163366e-02  -2.282095e-02  0 
 -2.282095e-02  2.040587e-04  0 
 0  0  0 

 -8.777265e-06  -2.816949e-02  0 
 -2.816949e-02  -1.128452e-05  0 
 0  0  0 

 1.162653e-02  -2.281398e-02  0 
 -2.281398e-02  -2.152277e-04  0 
 0  0  0 

 2.335745e-01  -1.624067e-02  0 
 -1.624067e-02  -3.145604e-04  0 
 0  0  0 

