# vtk DataFile Version 3.1
this is an vtk file created by FEMAC
ASCII
DATASET UNSTRUCTURED_GRID
POINTS 12 FLOAT
6.500000 0.000000 0.000000
7.000000 0.000000 0.000000
6.500000 0.200000 0.000000
6.500000 0.400000 0.000000
6.500000 0.600000 0.000000
6.500000 0.800000 0.000000
6.500000 1.000000 0.000000
7.000000 0.200000 0.000000
7.000000 0.400000 0.000000
7.000000 0.600000 0.000000
7.000000 0.800000 0.000000
7.000000 1.000000 0.000000
CELLS 5 25 
4 0 1 7 2
4 2 7 8 3
4 3 8 9 4
4 4  9 10  5
4 5 10 11  6
CELL_TYPES 5
9 9 9 9 9 
POINT_DATA 12
VECTORS displacement_ITER1 FLOAT
 -2.700707e-03  -2.555814e-02  0 
 -2.713127e-03  -2.829321e-02  0 
 -1.608626e-03  -2.555609e-02  0 
 -5.363647e-04  -2.555472e-02  0 
 5.551105e-04  -2.555470e-02  0 
 1.627662e-03  -2.555618e-02  0 
 2.719607e-03  -2.555795e-02  0 
 -1.619154e-03  -2.829230e-02  0 
 -5.376459e-04  -2.829184e-02  0 
 5.562913e-04  -2.829170e-02  0 
 1.638015e-03  -2.829220e-02  0 
 2.732067e-03  -2.829319e-02  0 
VECTORS displacement_ITER2 FLOAT
 -2.700247e-03  -2.555684e-02  0 
 -2.712782e-03  -2.829151e-02  0 
 -1.608635e-03  -2.555494e-02  0 
 -5.361127e-04  -2.555361e-02  0 
 5.548805e-04  -2.555362e-02  0 
 1.627382e-03  -2.555491e-02  0 
 2.718992e-03  -2.555683e-02  0 
 -1.618746e-03  -2.829058e-02  0 
 -5.374618e-04  -2.828984e-02  0 
 5.562254e-04  -2.828984e-02  0 
 1.637497e-03  -2.829057e-02  0 
 2.731538e-03  -2.829150e-02  0 
VECTORS displacement_ITER3 FLOAT
 -2.700182e-03  -2.555669e-02  0 
 -2.712716e-03  -2.829130e-02  0 
 -1.608593e-03  -2.555479e-02  0 
 -5.361075e-04  -2.555347e-02  0 
 5.548597e-04  -2.555347e-02  0 
 1.627342e-03  -2.555479e-02  0 
 2.718931e-03  -2.555668e-02  0 
 -1.618711e-03  -2.829036e-02  0 
 -5.374597e-04  -2.828963e-02  0 
 5.562085e-04  -2.828963e-02  0 
 1.637462e-03  -2.829036e-02  0 
 2.731467e-03  -2.829130e-02  0 
VECTORS displacement_ITER4 FLOAT
 -2.700175e-03  -2.555668e-02  0 
 -2.712710e-03  -2.829128e-02  0 
 -1.608590e-03  -2.555478e-02  0 
 -5.361061e-04  -2.555346e-02  0 
 5.548563e-04  -2.555346e-02  0 
 1.627340e-03  -2.555478e-02  0 
 2.718925e-03  -2.555668e-02  0 
 -1.618708e-03  -2.829034e-02  0 
 -5.374581e-04  -2.828962e-02  0 
 5.562072e-04  -2.828962e-02  0 
 1.637458e-03  -2.829034e-02  0 
 2.731460e-03  -2.829128e-02  0 
VECTORS displacement_ITER5 FLOAT
 -2.700174e-03  -2.555668e-02  0 
 -2.712709e-03  -2.829128e-02  0 
 -1.608590e-03  -2.555478e-02  0 
 -5.361054e-04  -2.555346e-02  0 
 5.548555e-04  -2.555346e-02  0 
 1.627340e-03  -2.555478e-02  0 
 2.718924e-03  -2.555668e-02  0 
 -1.618707e-03  -2.829034e-02  0 
 -5.374575e-04  -2.828962e-02  0 
 5.562075e-04  -2.828962e-02  0 
 1.637457e-03  -2.829034e-02  0 
 2.731459e-03  -2.829128e-02  0 
VECTORS displacement_ITER6 FLOAT
 -2.700174e-03  -2.555668e-02  0 
 -2.712709e-03  -2.829128e-02  0 
 -1.608590e-03  -2.555478e-02  0 
 -5.361054e-04  -2.555346e-02  0 
 5.548554e-04  -2.555346e-02  0 
 1.627340e-03  -2.555478e-02  0 
 2.718924e-03  -2.555668e-02  0 
 -1.618707e-03  -2.829034e-02  0 
 -5.374575e-04  -2.828962e-02  0 
 5.562075e-04  -2.828962e-02  0 
 1.637457e-03  -2.829034e-02  0 
 2.731459e-03  -2.829128e-02  0 
VECTORS displacement_ITER7 FLOAT
 -2.700174e-03  -2.555668e-02  0 
 -2.712709e-03  -2.829128e-02  0 
 -1.608590e-03  -2.555478e-02  0 
 -5.361054e-04  -2.555346e-02  0 
 5.548554e-04  -2.555346e-02  0 
 1.627340e-03  -2.555478e-02  0 
 2.718924e-03  -2.555668e-02  0 
 -1.618707e-03  -2.829034e-02  0 
 -5.374575e-04  -2.828962e-02  0 
 5.562075e-04  -2.828962e-02  0 
 1.637457e-03  -2.829034e-02  0 
 2.731459e-03  -2.829128e-02  0 
CELL_DATA 5
TENSORS element_stresses FLOAT
 -2.255782e-02  -4.769048e-03  0 
 -4.769048e-03  3.153802e-04  0 
 0  0  0 

 -1.090991e-03  -6.721686e-03  0 
 -6.721686e-03  1.864261e-04  0 
 0  0  0 

 -3.249906e-08  -8.268455e-03  0 
 -8.268455e-03  -3.553566e-10  0 
 0  0  0 

 1.090988e-03  -6.721691e-03  0 
 -6.721691e-03  -1.864123e-04  0 
 0  0  0 

 2.255786e-02  -4.769120e-03  0 
 -4.769120e-03  -3.153705e-04  0 
 0  0  0 

TENSORS element_stresses FLOAT
 -2.255782e-02  -4.769048e-03  0 
 -4.769048e-03  3.153802e-04  0 
 0  0  0 

 -1.090991e-03  -6.721686e-03  0 
 -6.721686e-03  1.864261e-04  0 
 0  0  0 

 -3.249906e-08  -8.268455e-03  0 
 -8.268455e-03  -3.553566e-10  0 
 0  0  0 

 1.090988e-03  -6.721691e-03  0 
 -6.721691e-03  -1.864123e-04  0 
 0  0  0 

 2.255786e-02  -4.769120e-03  0 
 -4.769120e-03  -3.153705e-04  0 
 0  0  0 

