# vtk DataFile Version 3.1
this is an vtk file created by FEMAC
ASCII
DATASET UNSTRUCTURED_GRID
POINTS 12 FLOAT
6.000000 0.000000 0.000000
6.500000 0.000000 0.000000
6.000000 0.200000 0.000000
6.000000 0.400000 0.000000
6.000000 0.600000 0.000000
6.000000 0.800000 0.000000
6.000000 1.000000 0.000000
6.500000 0.200000 0.000000
6.500000 0.400000 0.000000
6.500000 0.600000 0.000000
6.500000 0.800000 0.000000
6.500000 1.000000 0.000000
CELLS 5 25 
4 0 1 7 2
4 2 7 8 3
4 3 8 9 4
4 4  9 10  5
4 5 10 11  6
CELL_TYPES 5
9 9 9 9 9 
POINT_DATA 12
VECTORS displacement_ITER1 FLOAT
 -2.676183e-03  -2.283402e-02  0 
 -2.700567e-03  -2.555786e-02  0 
 -1.591451e-03  -2.283068e-02  0 
 -5.324822e-04  -2.282877e-02  0 
 5.513812e-04  -2.282885e-02  0 
 1.610297e-03  -2.283088e-02  0 
 2.694871e-03  -2.283412e-02  0 
 -1.609111e-03  -2.555613e-02  0 
 -5.359239e-04  -2.555475e-02  0 
 5.549799e-04  -2.555480e-02  0 
 1.627841e-03  -2.555610e-02  0 
 2.719463e-03  -2.555814e-02  0 
VECTORS displacement_ITER2 FLOAT
 -2.675723e-03  -2.283309e-02  0 
 -2.700242e-03  -2.555683e-02  0 
 -1.591296e-03  -2.282987e-02  0 
 -5.324076e-04  -2.282787e-02  0 
 5.511520e-04  -2.282789e-02  0 
 1.610060e-03  -2.282989e-02  0 
 2.694476e-03  -2.283312e-02  0 
 -1.608624e-03  -2.555492e-02  0 
 -5.361245e-04  -2.555361e-02  0 
 5.548667e-04  -2.555359e-02  0 
 1.627379e-03  -2.555495e-02  0 
 2.719005e-03  -2.555684e-02  0 
VECTORS displacement_ITER3 FLOAT
 -2.675651e-03  -2.283305e-02  0 
 -2.700179e-03  -2.555668e-02  0 
 -1.591271e-03  -2.282982e-02  0 
 -5.323878e-04  -2.282783e-02  0 
 5.511330e-04  -2.282783e-02  0 
 1.610025e-03  -2.282982e-02  0 
 2.694401e-03  -2.283306e-02  0 
 -1.608594e-03  -2.555479e-02  0 
 -5.361070e-04  -2.555346e-02  0 
 5.548542e-04  -2.555346e-02  0 
 1.627345e-03  -2.555479e-02  0 
 2.718932e-03  -2.555669e-02  0 
VECTORS displacement_ITER4 FLOAT
 -2.675643e-03  -2.283306e-02  0 
 -2.700174e-03  -2.555668e-02  0 
 -1.591274e-03  -2.282982e-02  0 
 -5.323811e-04  -2.282784e-02  0 
 5.511310e-04  -2.282784e-02  0 
 1.610024e-03  -2.282982e-02  0 
 2.694392e-03  -2.283306e-02  0 
 -1.608591e-03  -2.555478e-02  0 
 -5.361048e-04  -2.555346e-02  0 
 5.548550e-04  -2.555346e-02  0 
 1.627341e-03  -2.555478e-02  0 
 2.718924e-03  -2.555668e-02  0 
VECTORS displacement_ITER5 FLOAT
 -2.675642e-03  -2.283306e-02  0 
 -2.700174e-03  -2.555668e-02  0 
 -1.591274e-03  -2.282982e-02  0 
 -5.323805e-04  -2.282784e-02  0 
 5.511305e-04  -2.282784e-02  0 
 1.610024e-03  -2.282982e-02  0 
 2.694392e-03  -2.283307e-02  0 
 -1.608590e-03  -2.555478e-02  0 
 -5.361053e-04  -2.555346e-02  0 
 5.548554e-04  -2.555346e-02  0 
 1.627340e-03  -2.555478e-02  0 
 2.718924e-03  -2.555668e-02  0 
VECTORS displacement_ITER6 FLOAT
 -2.675642e-03  -2.283306e-02  0 
 -2.700174e-03  -2.555668e-02  0 
 -1.591274e-03  -2.282982e-02  0 
 -5.323805e-04  -2.282784e-02  0 
 5.511305e-04  -2.282784e-02  0 
 1.610024e-03  -2.282982e-02  0 
 2.694392e-03  -2.283307e-02  0 
 -1.608590e-03  -2.555478e-02  0 
 -5.361054e-04  -2.555346e-02  0 
 5.548554e-04  -2.555346e-02  0 
 1.627340e-03  -2.555478e-02  0 
 2.718924e-03  -2.555668e-02  0 
VECTORS displacement_ITER7 FLOAT
 -2.675642e-03  -2.283306e-02  0 
 -2.700174e-03  -2.555668e-02  0 
 -1.591274e-03  -2.282982e-02  0 
 -5.323805e-04  -2.282784e-02  0 
 5.511305e-04  -2.282784e-02  0 
 1.610024e-03  -2.282982e-02  0 
 2.694392e-03  -2.283307e-02  0 
 -1.608590e-03  -2.555478e-02  0 
 -5.361054e-04  -2.555346e-02  0 
 5.548554e-04  -2.555346e-02  0 
 1.627340e-03  -2.555478e-02  0 
 2.718924e-03  -2.555668e-02  0 
CELL_DATA 5
TENSORS element_stresses FLOAT
 -4.175434e-02  -6.687667e-03  0 
 -6.687667e-03  3.121072e-04  0 
 0  0  0 

 -2.039325e-03  -9.394956e-03  0 
 -9.394956e-03  2.159356e-04  0 
 0  0  0 

 5.513519e-08  -1.158481e-02  0 
 -1.158481e-02  -9.038166e-08  0 
 0  0  0 

 2.039282e-03  -9.394882e-03  0 
 -9.394882e-03  -2.160681e-04  0 
 0  0  0 

 4.175433e-02  -6.687684e-03  0 
 -6.687684e-03  -3.121497e-04  0 
 0  0  0 

TENSORS element_stresses FLOAT
 -4.175434e-02  -6.687667e-03  0 
 -6.687667e-03  3.121072e-04  0 
 0  0  0 

 -2.039325e-03  -9.394956e-03  0 
 -9.394956e-03  2.159356e-04  0 
 0  0  0 

 5.513519e-08  -1.158481e-02  0 
 -1.158481e-02  -9.038166e-08  0 
 0  0  0 

 2.039282e-03  -9.394882e-03  0 
 -9.394882e-03  -2.160681e-04  0 
 0  0  0 

 4.175433e-02  -6.687684e-03  0 
 -6.687684e-03  -3.121497e-04  0 
 0  0  0 

