# vtk DataFile Version 3.1
this is an vtk file created by FEMAC
ASCII
DATASET UNSTRUCTURED_GRID
POINTS 12 FLOAT
2.500000 0.000000 0.000000
3.000000 0.000000 0.000000
2.500000 0.200000 0.000000
2.500000 0.400000 0.000000
2.500000 0.600000 0.000000
2.500000 0.800000 0.000000
2.500000 1.000000 0.000000
3.000000 0.200000 0.000000
3.000000 0.400000 0.000000
3.000000 0.600000 0.000000
3.000000 0.800000 0.000000
3.000000 1.000000 0.000000
CELLS 5 25 
4 0 1 7 2
4 2 7 8 3
4 3 8 9 4
4 4  9 10  5
4 5 10 11  6
CELL_TYPES 5
9 9 9 9 9 
POINT_DATA 12
VECTORS displacement_ITER1 FLOAT
 -1.831983e-03  -5.754959e-03  0 
 -2.052461e-03  -7.784576e-03  0 
 -1.067487e-03  -5.731311e-03  0 
 -3.717889e-04  -5.719855e-03  0 
 3.904319e-04  -5.719612e-03  0 
 1.086093e-03  -5.731607e-03  0 
 1.851077e-03  -5.755125e-03  0 
 -1.202168e-03  -7.765448e-03  0 
 -4.145313e-04  -7.754775e-03  0 
 4.332471e-04  -7.755298e-03  0 
 1.220967e-03  -7.766000e-03  0 
 2.071258e-03  -7.784917e-03  0 
VECTORS displacement_ITER2 FLOAT
 -1.832420e-03  -5.754309e-03  0 
 -2.052924e-03  -7.785522e-03  0 
 -1.067273e-03  -5.730958e-03  0 
 -3.722347e-04  -5.719133e-03  0 
 3.906289e-04  -5.719165e-03  0 
 1.085932e-03  -5.731372e-03  0 
 1.851477e-03  -5.754717e-03  0 
 -1.202037e-03  -7.766142e-03  0 
 -4.150110e-04  -7.756273e-03  0 
 4.337135e-04  -7.756317e-03  0 
 1.220852e-03  -7.766539e-03  0 
 2.071610e-03  -7.785960e-03  0 
VECTORS displacement_ITER3 FLOAT
 -1.832411e-03  -5.754418e-03  0 
 -2.052919e-03  -7.785536e-03  0 
 -1.067306e-03  -5.731031e-03  0 
 -3.722149e-04  -5.719245e-03  0 
 3.906180e-04  -5.719269e-03  0 
 1.085958e-03  -5.731464e-03  0 
 1.851471e-03  -5.754839e-03  0 
 -1.202043e-03  -7.766196e-03  0 
 -4.150088e-04  -7.756309e-03  0 
 4.336798e-04  -7.756344e-03  0 
 1.220874e-03  -7.766607e-03  0 
 2.071597e-03  -7.785967e-03  0 
VECTORS displacement_ITER4 FLOAT
 -1.832411e-03  -5.754416e-03  0 
 -2.052922e-03  -7.785546e-03  0 
 -1.067304e-03  -5.731032e-03  0 
 -3.722163e-04  -5.719246e-03  0 
 3.906176e-04  -5.719271e-03  0 
 1.085958e-03  -5.731465e-03  0 
 1.851471e-03  -5.754842e-03  0 
 -1.202042e-03  -7.766200e-03  0 
 -4.150075e-04  -7.756311e-03  0 
 4.336795e-04  -7.756344e-03  0 
 1.220873e-03  -7.766612e-03  0 
 2.071598e-03  -7.785971e-03  0 
VECTORS displacement_ITER5 FLOAT
 -1.832411e-03  -5.754416e-03  0 
 -2.052922e-03  -7.785545e-03  0 
 -1.067304e-03  -5.731032e-03  0 
 -3.722166e-04  -5.719245e-03  0 
 3.906178e-04  -5.719270e-03  0 
 1.085957e-03  -5.731464e-03  0 
 1.851471e-03  -5.754842e-03  0 
 -1.202043e-03  -7.766199e-03  0 
 -4.150074e-04  -7.756311e-03  0 
 4.336797e-04  -7.756343e-03  0 
 1.220873e-03  -7.766611e-03  0 
 2.071597e-03  -7.785970e-03  0 
VECTORS displacement_ITER6 FLOAT
 -1.832411e-03  -5.754416e-03  0 
 -2.052922e-03  -7.785546e-03  0 
 -1.067304e-03  -5.731032e-03  0 
 -3.722165e-04  -5.719245e-03  0 
 3.906179e-04  -5.719270e-03  0 
 1.085958e-03  -5.731465e-03  0 
 1.851471e-03  -5.754842e-03  0 
 -1.202042e-03  -7.766199e-03  0 
 -4.150074e-04  -7.756311e-03  0 
 4.336798e-04  -7.756344e-03  0 
 1.220873e-03  -7.766611e-03  0 
 2.071597e-03  -7.785971e-03  0 
VECTORS displacement_ITER7 FLOAT
 -1.832411e-03  -5.754416e-03  0 
 -2.052922e-03  -7.785546e-03  0 
 -1.067304e-03  -5.731032e-03  0 
 -3.722165e-04  -5.719245e-03  0 
 3.906179e-04  -5.719270e-03  0 
 1.085958e-03  -5.731465e-03  0 
 1.851471e-03  -5.754842e-03  0 
 -1.202042e-03  -7.766199e-03  0 
 -4.150074e-04  -7.756311e-03  0 
 4.336798e-04  -7.756344e-03  0 
 1.220873e-03  -7.766611e-03  0 
 2.071597e-03  -7.785971e-03  0 
CELL_DATA 5
TENSORS element_stresses FLOAT
 -3.551677e-01  -2.025297e-02  0 
 -2.025297e-02  2.738362e-04  0 
 0  0  0 

 -1.772232e-02  -2.822511e-02  0 
 -2.822511e-02  1.021725e-04  0 
 0  0  0 

 2.501296e-04  -3.487291e-02  0 
 -3.487291e-02  -6.951174e-05  0 
 0  0  0 

 1.770670e-02  -2.814525e-02  0 
 -2.814525e-02  -3.033770e-04  0 
 0  0  0 

 3.549331e-01  -1.975376e-02  0 
 -1.975376e-02  -3.616014e-04  0 
 0  0  0 

TENSORS element_stresses FLOAT
 -3.551677e-01  -2.025297e-02  0 
 -2.025297e-02  2.738362e-04  0 
 0  0  0 

 -1.772232e-02  -2.822511e-02  0 
 -2.822511e-02  1.021725e-04  0 
 0  0  0 

 2.501296e-04  -3.487291e-02  0 
 -3.487291e-02  -6.951174e-05  0 
 0  0  0 

 1.770670e-02  -2.814525e-02  0 
 -2.814525e-02  -3.033770e-04  0 
 0  0  0 

 3.549331e-01  -1.975376e-02  0 
 -1.975376e-02  -3.616014e-04  0 
 0  0  0 

