# vtk DataFile Version 3.1
this is an vtk file created by FEMAC
ASCII
DATASET UNSTRUCTURED_GRID
POINTS 102 FLOAT
0.000000 0.000000 0.000000
0.500000 0.000000 0.000000
1.000000 0.000000 0.000000
1.500000 0.000000 0.000000
2.000000 0.000000 0.000000
2.500000 0.000000 0.000000
3.000000 0.000000 0.000000
3.500000 0.000000 0.000000
4.000000 0.000000 0.000000
4.500000 0.000000 0.000000
5.000000 0.000000 0.000000
5.500000 0.000000 0.000000
6.000000 0.000000 0.000000
6.500000 0.000000 0.000000
7.000000 0.000000 0.000000
7.500000 0.000000 0.000000
8.000000 0.000000 0.000000
0.000000 0.200000 0.000000
0.500000 0.200000 0.000000
0.000000 0.400000 0.000000
0.500000 0.400000 0.000000
0.000000 0.600000 0.000000
0.500000 0.600000 0.000000
0.000000 0.800000 0.000000
0.500000 0.800000 0.000000
0.000000 1.000000 0.000000
0.500000 1.000000 0.000000
1.000000 0.200000 0.000000
1.000000 0.400000 0.000000
1.000000 0.600000 0.000000
1.000000 0.800000 0.000000
1.000000 1.000000 0.000000
1.500000 0.200000 0.000000
1.500000 0.400000 0.000000
1.500000 0.600000 0.000000
1.500000 0.800000 0.000000
1.500000 1.000000 0.000000
2.000000 0.200000 0.000000
2.000000 0.400000 0.000000
2.000000 0.600000 0.000000
2.000000 0.800000 0.000000
2.000000 1.000000 0.000000
2.500000 0.200000 0.000000
2.500000 0.400000 0.000000
2.500000 0.600000 0.000000
2.500000 0.800000 0.000000
2.500000 1.000000 0.000000
3.000000 0.200000 0.000000
3.000000 0.400000 0.000000
3.000000 0.600000 0.000000
3.000000 0.800000 0.000000
3.000000 1.000000 0.000000
3.500000 0.200000 0.000000
3.500000 0.400000 0.000000
3.500000 0.600000 0.000000
3.500000 0.800000 0.000000
3.500000 1.000000 0.000000
4.000000 0.200000 0.000000
4.000000 0.400000 0.000000
4.000000 0.600000 0.000000
4.000000 0.800000 0.000000
4.000000 1.000000 0.000000
4.500000 0.200000 0.000000
4.500000 0.400000 0.000000
4.500000 0.600000 0.000000
4.500000 0.800000 0.000000
4.500000 1.000000 0.000000
5.000000 0.200000 0.000000
5.000000 0.400000 0.000000
5.000000 0.600000 0.000000
5.000000 0.800000 0.000000
5.000000 1.000000 0.000000
5.500000 0.200000 0.000000
5.500000 0.400000 0.000000
5.500000 0.600000 0.000000
5.500000 0.800000 0.000000
5.500000 1.000000 0.000000
6.000000 0.200000 0.000000
6.000000 0.400000 0.000000
6.000000 0.600000 0.000000
6.000000 0.800000 0.000000
6.000000 1.000000 0.000000
6.500000 0.200000 0.000000
6.500000 0.400000 0.000000
6.500000 0.600000 0.000000
6.500000 0.800000 0.000000
6.500000 1.000000 0.000000
7.000000 0.200000 0.000000
7.000000 0.400000 0.000000
7.000000 0.600000 0.000000
7.000000 0.800000 0.000000
7.000000 1.000000 0.000000
7.500000 0.200000 0.000000
7.500000 0.400000 0.000000
7.500000 0.600000 0.000000
7.500000 0.800000 0.000000
7.500000 1.000000 0.000000
8.000000 0.200000 0.000000
8.000000 0.400000 0.000000
8.000000 0.600000 0.000000
8.000000 0.800000 0.000000
8.000000 1.000000 0.000000
CELLS 80 400 
4 0  1 18 17
4 17 18 20 19
4 19 20 22 21
4 21 22 24 23
4 23 24 26 25
4 1  2 27 18
4 18 27 28 20
4 20 28 29 22
4 22 29 30 24
4 24 30 31 26
4 2  3 32 27
4 27 32 33 28
4 28 33 34 29
4 29 34 35 30
4 30 35 36 31
4 3  4 37 32
4 32 37 38 33
4 33 38 39 34
4 34 39 40 35
4 35 40 41 36
4 4  5 42 37
4 37 42 43 38
4 38 43 44 39
4 39 44 45 40
4 40 45 46 41
4 5  6 47 42
4 42 47 48 43
4 43 48 49 44
4 44 49 50 45
4 45 50 51 46
4 6  7 52 47
4 47 52 53 48
4 48 53 54 49
4 49 54 55 50
4 50 55 56 51
4 7  8 57 52
4 52 57 58 53
4 53 58 59 54
4 54 59 60 55
4 55 60 61 56
4 8  9 62 57
4 57 62 63 58
4 58 63 64 59
4 59 64 65 60
4 60 65 66 61
4 9 10 67 62
4 62 67 68 63
4 63 68 69 64
4 64 69 70 65
4 65 70 71 66
4 10 11 72 67
4 67 72 73 68
4 68 73 74 69
4 69 74 75 70
4 70 75 76 71
4 11 12 77 72
4 72 77 78 73
4 73 78 79 74
4 74 79 80 75
4 75 80 81 76
4 12 13 82 77
4 77 82 83 78
4 78 83 84 79
4 79 84 85 80
4 80 85 86 81
4 13 14 87 82
4 82 87 88 83
4 83 88 89 84
4 84 89 90 85
4 85 90 91 86
4 14 15 92 87
4 87 92 93 88
4 88 93 94 89
4 89 94 95 90
4 90 95 96 91
4 15 16 97 92
4 92 97 98 93
4 93 98 99 94
4 94  99 100  95
4 95 100 101  96
CELL_TYPES 80
9 9 9 9 9 9 9 9 9 9 9 9 9 9 9 9 9 9 9 9 9 9 9 9 9 9 9 9 9 9 9 9 9 9 9 9 9 9 9 9 9 9 9 9 9 9 9 9 9 9 9 9 9 9 9 9 9 9 9 9 9 9 9 9 9 9 9 9 9 9 9 9 9 9 9 9 9 9 9 9 
POINT_DATA 102
SCALARS CONDID_1 FLOAT
LOOKUP_TABLE default
 1 
 0 
 0 
 0 
 0 
 0 
 0 
 0 
 0 
 0 
 0 
 0 
 0 
 0 
 0 
 0 
 0 
 0 
 0 
 0 
 0 
 0 
 0 
 0 
 0 
 0 
 0 
 0 
 0 
 0 
 0 
 0 
 0 
 0 
 0 
 0 
 0 
 0 
 0 
 0 
 0 
 0 
 0 
 0 
 0 
 0 
 0 
 0 
 0 
 0 
 0 
 0 
 0 
 0 
 0 
 0 
 0 
 0 
 0 
 0 
 0 
 0 
 0 
 0 
 0 
 0 
 0 
 0 
 0 
 0 
 0 
 0 
 0 
 0 
 0 
 0 
 0 
 0 
 0 
 0 
 0 
 0 
 0 
 0 
 0 
 0 
 0 
 0 
 0 
 0 
 0 
 0 
 0 
 0 
 0 
 0 
 0 
 0 
 0 
 0 
 0 
 0 
SCALARS CONDID_2 FLOAT
LOOKUP_TABLE default
 1 
 0 
 0 
 0 
 0 
 0 
 0 
 0 
 0 
 0 
 0 
 0 
 0 
 0 
 0 
 0 
 0 
 1 
 0 
 1 
 0 
 1 
 0 
 1 
 0 
 1 
 0 
 0 
 0 
 0 
 0 
 0 
 0 
 0 
 0 
 0 
 0 
 0 
 0 
 0 
 0 
 0 
 0 
 0 
 0 
 0 
 0 
 0 
 0 
 0 
 0 
 0 
 0 
 0 
 0 
 0 
 0 
 0 
 0 
 0 
 0 
 0 
 0 
 0 
 0 
 0 
 0 
 0 
 0 
 0 
 0 
 0 
 0 
 0 
 0 
 0 
 0 
 0 
 0 
 0 
 0 
 0 
 0 
 0 
 0 
 0 
 0 
 0 
 0 
 0 
 0 
 0 
 0 
 0 
 0 
 0 
 0 
 0 
 0 
 0 
 0 
 0 
SCALARS CONDID_3 FLOAT
LOOKUP_TABLE default
 1 
 1 
 1 
 1 
 1 
 1 
 1 
 1 
 1 
 1 
 1 
 1 
 1 
 1 
 1 
 1 
 1 
 1 
 1 
 1 
 1 
 1 
 1 
 1 
 1 
 1 
 1 
 1 
 1 
 1 
 1 
 1 
 1 
 1 
 1 
 1 
 1 
 1 
 1 
 1 
 1 
 1 
 1 
 1 
 1 
 1 
 1 
 1 
 1 
 1 
 1 
 1 
 1 
 1 
 1 
 1 
 1 
 1 
 1 
 1 
 1 
 1 
 1 
 1 
 1 
 1 
 1 
 1 
 1 
 1 
 1 
 1 
 1 
 1 
 1 
 1 
 1 
 1 
 1 
 1 
 1 
 1 
 1 
 1 
 1 
 1 
 1 
 1 
 1 
 1 
 1 
 1 
 1 
 1 
 1 
 1 
 1 
 1 
 1 
 1 
 1 
 1 
VECTORS displacement FLOAT
 0  0  0 
 -6.885269e-04  -1.322616e-03  0 
 -1.203354e-03  -4.542330e-03  0 
 -1.592007e-03  -8.961635e-03  0 
 -1.897781e-03  -1.412208e-02  0 
 -2.145452e-03  -1.974798e-02  0 
 -2.349279e-03  -2.566708e-02  0 
 -2.516604e-03  -3.176421e-02  0 
 -2.651404e-03  -3.795321e-02  0 
 -2.756435e-03  -4.416390e-02  0 
 -2.834449e-03  -5.033785e-02  0 
 -2.888740e-03  -5.642885e-02  0 
 -2.923267e-03  -6.240533e-02  0 
 -2.942529e-03  -6.825309e-02  0 
 -2.951296e-03  -7.397737e-02  0 
 -2.953984e-03  -7.960296e-02  0 
 -2.954752e-03  -8.517378e-02  0 
 0  -1.173162e-06  0 
 2.693247e-04  -1.293223e-03  0 
 0  -4.186966e-03  0 
 -2.801893e-04  -4.925305e-03  0 
 0  -4.191186e-03  0 
 3.034337e-04  -4.929059e-03  0 
 0  -5.644294e-03  0 
 -4.418308e-05  -6.294184e-03  0 
 0  -5.670656e-03  0 
 4.719971e-04  -6.320239e-03  0 
 3.578599e-04  -4.520060e-03  0 
 -5.376561e-04  -7.074058e-03  0 
 5.791180e-04  -7.076792e-03  0 
 -7.799667e-05  -8.206263e-03  0 
 9.248585e-04  -8.231432e-03  0 
 3.434910e-04  -8.938705e-03  0 
 -7.559793e-04  -1.045728e-02  0 
 8.088136e-04  -1.045894e-02  0 
 -9.297598e-05  -1.127373e-02  0 
 1.342145e-03  -1.129753e-02  0 
 2.709408e-04  -1.410076e-02  0 
 -9.280077e-04  -1.483921e-02  0 
 9.860164e-04  -1.483999e-02  0 
 -8.390412e-05  -1.533668e-02  0 
 1.712026e-03  -1.535877e-02  0 
 1.703332e-04  -1.972821e-02  0 
 -1.054373e-03  -1.997275e-02  0 
 1.112998e-03  -1.997293e-02  0 
 -4.928225e-05  -2.020388e-02  0 
 2.028010e-03  -2.022404e-02  0 
 5.835599e-05  -2.564919e-02  0 
 -1.140252e-03  -2.563154e-02  0 
 1.196698e-03  -2.563137e-02  0 
 9.033668e-06  -2.567495e-02  0 
 2.288571e-03  -2.569305e-02  0 
 -5.621879e-05  -3.174831e-02  0 
 -1.192572e-03  -3.162484e-02  0 
 1.245502e-03  -3.162452e-02  0 
 8.673141e-05  -3.155891e-02  0 
 2.496076e-03  -3.157491e-02  0 
 -1.690431e-04  -3.793935e-02  0 
 -1.218282e-03  -3.780036e-02  0 
 1.267378e-03  -3.780001e-02  0 
 1.781042e-04  -3.768710e-02  0 
 2.655469e-03  -3.770101e-02  0 
 -2.777210e-04  -4.415206e-02  0 
 -1.223576e-03  -4.404093e-02  0 
 1.269117e-03  -4.404062e-02  0 
 2.769776e-04  -4.392033e-02  0 
 2.773079e-03  -4.393220e-02  0 
 -3.804035e-04  -5.032798e-02  0 
 -1.213709e-03  -5.025908e-02  0 
 1.256258e-03  -5.025884e-02  0 
 3.773436e-04  -5.015141e-02  0 
 2.855737e-03  -5.016132e-02  0 
 -4.750757e-04  -5.642086e-02  0 
 -1.193123e-03  -5.639196e-02  0 
 1.233315e-03  -5.639178e-02  0 
 4.736763e-04  -5.630479e-02  0 
 2.910243e-03  -5.631283e-02  0 
 -5.592828e-04  -6.239912e-02  0 
 -1.165695e-03  -6.239738e-02  0 
 1.204127e-03  -6.239726e-02  0 
 5.610061e-04  -6.233472e-02  0 
 2.943108e-03  -6.234098e-02  0 
 -6.301067e-04  -6.824856e-02  0 
 -1.135108e-03  -6.825174e-02  0 
 1.172296e-03  -6.825166e-02  0 
 6.348682e-04  -6.822304e-02  0 
 2.960426e-03  -6.822762e-02  0 
 -6.843673e-04  -7.397435e-02  0 
 -1.105430e-03  -7.395024e-02  0 
 1.141807e-03  -7.395020e-02  0 
 6.913176e-04  -7.397674e-02  0 
 2.967776e-03  -7.397980e-02  0 
 -7.187868e-04  -7.960171e-02  0 
 -1.082003e-03  -7.951094e-02  0 
 1.117945e-03  -7.951094e-02  0 
 7.268856e-04  -7.962524e-02  0 
 2.969792e-03  -7.962652e-02  0 
 -7.311034e-04  -8.517263e-02  0 
 -1.072666e-03  -8.498408e-02  0 
 1.108503e-03  -8.498409e-02  0 
 7.395488e-04  -8.521463e-02  0 
 2.970425e-03  -8.521581e-02  0 
CELL_DATA 80
SCALARS MATID_1 FLOAT
LOOKUP_TABLE default
 1 
 0 
 1 
 0 
 1 
 1 
 0 
 1 
 0 
 1 
 1 
 0 
 1 
 0 
 1 
 1 
 0 
 1 
 0 
 1 
 1 
 0 
 1 
 0 
 1 
 1 
 0 
 1 
 0 
 1 
 1 
 0 
 1 
 0 
 1 
 1 
 0 
 1 
 0 
 1 
 1 
 0 
 1 
 0 
 1 
 1 
 0 
 1 
 0 
 1 
 1 
 0 
 1 
 0 
 1 
 1 
 0 
 1 
 0 
 1 
 1 
 0 
 1 
 0 
 1 
 1 
 0 
 1 
 0 
 1 
 1 
 0 
 1 
 0 
 1 
 1 
 0 
 1 
 0 
 1 
SCALARS MATID_2 FLOAT
LOOKUP_TABLE default
 0 
 1 
 0 
 1 
 0 
 0 
 1 
 0 
 1 
 0 
 0 
 1 
 0 
 1 
 0 
 0 
 1 
 0 
 1 
 0 
 0 
 1 
 0 
 1 
 0 
 0 
 1 
 0 
 1 
 0 
 0 
 1 
 0 
 1 
 0 
 0 
 1 
 0 
 1 
 0 
 0 
 1 
 0 
 1 
 0 
 0 
 1 
 0 
 1 
 0 
 0 
 1 
 0 
 1 
 0 
 0 
 1 
 0 
 1 
 0 
 0 
 1 
 0 
 1 
 0 
 0 
 1 
 0 
 1 
 0 
 0 
 1 
 0 
 1 
 0 
 0 
 1 
 0 
 1 
 0 
SCALARS SUB_ID FLOAT
LOOKUP_TABLE default
 1 
 1 
 1 
 1 
 1 
 2 
 2 
 2 
 2 
 2 
 3 
 3 
 3 
 3 
 3 
 4 
 4 
 4 
 4 
 4 
 5 
 5 
 5 
 5 
 5 
 6 
 6 
 6 
 6 
 6 
 7 
 7 
 7 
 7 
 7 
 8 
 8 
 8 
 8 
 8 
 9 
 9 
 9 
 9 
 9 
 10 
 10 
 10 
 10 
 10 
 11 
 11 
 11 
 11 
 11 
 12 
 12 
 12 
 12 
 12 
 13 
 13 
 13 
 13 
 13 
 14 
 14 
 14 
 14 
 14 
 15 
 15 
 15 
 15 
 15 
 16 
 16 
 16 
 16 
 16 
VECTORS SubCenter_Diff FLOAT
 -3.750000e+00  0  0 
 -3.750000e+00  0  0 
 -3.750000e+00  0  0 
 -3.750000e+00  0  0 
 -3.750000e+00  0  0 
 -3.250000e+00  0  0 
 -3.250000e+00  0  0 
 -3.250000e+00  0  0 
 -3.250000e+00  0  0 
 -3.250000e+00  0  0 
 -2.750000e+00  0  0 
 -2.750000e+00  0  0 
 -2.750000e+00  0  0 
 -2.750000e+00  0  0 
 -2.750000e+00  0  0 
 -2.250000e+00  0  0 
 -2.250000e+00  0  0 
 -2.250000e+00  0  0 
 -2.250000e+00  0  0 
 -2.250000e+00  0  0 
 -1.750000e+00  0  0 
 -1.750000e+00  0  0 
 -1.750000e+00  0  0 
 -1.750000e+00  0  0 
 -1.750000e+00  0  0 
 -1.250000e+00  0  0 
 -1.250000e+00  0  0 
 -1.250000e+00  0  0 
 -1.250000e+00  0  0 
 -1.250000e+00  0  0 
 -7.500000e-01  0  0 
 -7.500000e-01  0  0 
 -7.500000e-01  0  0 
 -7.500000e-01  0  0 
 -7.500000e-01  0  0 
 -2.500000e-01  0  0 
 -2.500000e-01  0  0 
 -2.500000e-01  0  0 
 -2.500000e-01  0  0 
 -2.500000e-01  0  0 
 2.500000e-01  0  0 
 2.500000e-01  0  0 
 2.500000e-01  0  0 
 2.500000e-01  0  0 
 2.500000e-01  0  0 
 7.500000e-01  0  0 
 7.500000e-01  0  0 
 7.500000e-01  0  0 
 7.500000e-01  0  0 
 7.500000e-01  0  0 
 1.250000e+00  0  0 
 1.250000e+00  0  0 
 1.250000e+00  0  0 
 1.250000e+00  0  0 
 1.250000e+00  0  0 
 1.750000e+00  0  0 
 1.750000e+00  0  0 
 1.750000e+00  0  0 
 1.750000e+00  0  0 
 1.750000e+00  0  0 
 2.250000e+00  0  0 
 2.250000e+00  0  0 
 2.250000e+00  0  0 
 2.250000e+00  0  0 
 2.250000e+00  0  0 
 2.750000e+00  0  0 
 2.750000e+00  0  0 
 2.750000e+00  0  0 
 2.750000e+00  0  0 
 2.750000e+00  0  0 
 3.250000e+00  0  0 
 3.250000e+00  0  0 
 3.250000e+00  0  0 
 3.250000e+00  0  0 
 3.250000e+00  0  0 
 3.750000e+00  0  0 
 3.750000e+00  0  0 
 3.750000e+00  0  0 
 3.750000e+00  0  0 
 3.750000e+00  0  0 
