# vtk DataFile Version 3.1
this is an vtk file created by FEMAC
ASCII
DATASET UNSTRUCTURED_GRID
POINTS 12 FLOAT
1.500000 0.000000 0.000000
2.000000 0.000000 0.000000
1.500000 0.200000 0.000000
1.500000 0.400000 0.000000
1.500000 0.600000 0.000000
1.500000 0.800000 0.000000
1.500000 1.000000 0.000000
2.000000 0.200000 0.000000
2.000000 0.400000 0.000000
2.000000 0.600000 0.000000
2.000000 0.800000 0.000000
2.000000 1.000000 0.000000
CELLS 5 25 
4 0 1 7 2
4 2 7 8 3
4 3 8 9 4
4 4  9 10  5
4 5 10 11  6
CELL_TYPES 5
9 9 9 9 9 
POINT_DATA 12
VECTORS displacement_ITER1 FLOAT
 -1.255348e-03  -2.449370e-03  0 
 -1.567733e-03  -3.960280e-03  0 
 -7.178400e-04  -2.416516e-03  0 
 -2.573942e-04  -2.393827e-03  0 
 2.806044e-04  -2.393147e-03  0 
 7.340563e-04  -2.405764e-03  0 
 1.274432e-03  -2.437637e-03  0 
 -9.063389e-04  -3.932328e-03  0 
 -3.203425e-04  -3.917360e-03  0 
 3.393814e-04  -3.916900e-03  0 
 9.240476e-04  -3.929071e-03  0 
 1.587786e-03  -3.957793e-03  0 
VECTORS displacement_ITER2 FLOAT
 -1.255312e-03  -2.449234e-03  0 
 -1.567544e-03  -3.959496e-03  0 
 -7.175951e-04  -2.416183e-03  0 
 -2.577462e-04  -2.393738e-03  0 
 2.802470e-04  -2.392771e-03  0 
 7.341642e-04  -2.405170e-03  0 
 1.274695e-03  -2.437729e-03  0 
 -9.067001e-04  -3.931841e-03  0 
 -3.203853e-04  -3.916724e-03  0 
 3.391245e-04  -3.916495e-03  0 
 9.243702e-04  -3.929075e-03  0 
 1.587675e-03  -3.956772e-03  0 
VECTORS displacement_ITER3 FLOAT
 -1.255319e-03  -2.449211e-03  0 
 -1.567569e-03  -3.959588e-03  0 
 -7.175746e-04  -2.416210e-03  0 
 -2.577852e-04  -2.393735e-03  0 
 2.802439e-04  -2.392759e-03  0 
 7.341530e-04  -2.405131e-03  0 
 1.274716e-03  -2.437706e-03  0 
 -9.067091e-04  -3.931844e-03  0 
 -3.204064e-04  -3.916777e-03  0 
 3.391113e-04  -3.916540e-03  0 
 9.243784e-04  -3.929090e-03  0 
 1.587705e-03  -3.956815e-03  0 
VECTORS displacement_ITER4 FLOAT
 -1.255319e-03  -2.449214e-03  0 
 -1.567569e-03  -3.959590e-03  0 
 -7.175769e-04  -2.416215e-03  0 
 -2.577836e-04  -2.393735e-03  0 
 2.802466e-04  -2.392759e-03  0 
 7.341525e-04  -2.405135e-03  0 
 1.274715e-03  -2.437707e-03  0 
 -9.067098e-04  -3.931846e-03  0 
 -3.204036e-04  -3.916777e-03  0 
 3.391136e-04  -3.916542e-03  0 
 9.243769e-04  -3.929093e-03  0 
 1.587706e-03  -3.956821e-03  0 
VECTORS displacement_ITER5 FLOAT
 -1.255320e-03  -2.449214e-03  0 
 -1.567569e-03  -3.959590e-03  0 
 -7.175777e-04  -2.416216e-03  0 
 -2.577825e-04  -2.393736e-03  0 
 2.802475e-04  -2.392760e-03  0 
 7.341523e-04  -2.405136e-03  0 
 1.274714e-03  -2.437707e-03  0 
 -9.067096e-04  -3.931847e-03  0 
 -3.204030e-04  -3.916777e-03  0 
 3.391139e-04  -3.916541e-03  0 
 9.243766e-04  -3.929093e-03  0 
 1.587706e-03  -3.956822e-03  0 
VECTORS displacement_ITER6 FLOAT
 -1.255320e-03  -2.449214e-03  0 
 -1.567569e-03  -3.959590e-03  0 
 -7.175777e-04  -2.416216e-03  0 
 -2.577825e-04  -2.393736e-03  0 
 2.802476e-04  -2.392760e-03  0 
 7.341523e-04  -2.405136e-03  0 
 1.274714e-03  -2.437707e-03  0 
 -9.067096e-04  -3.931847e-03  0 
 -3.204030e-04  -3.916777e-03  0 
 3.391139e-04  -3.916541e-03  0 
 9.243766e-04  -3.929093e-03  0 
 1.587706e-03  -3.956822e-03  0 
VECTORS displacement_ITER7 FLOAT
 -1.255320e-03  -2.449214e-03  0 
 -1.567569e-03  -3.959590e-03  0 
 -7.175777e-04  -2.416216e-03  0 
 -2.577825e-04  -2.393736e-03  0 
 2.802476e-04  -2.392760e-03  0 
 7.341523e-04  -2.405136e-03  0 
 1.274714e-03  -2.437707e-03  0 
 -9.067096e-04  -3.931847e-03  0 
 -3.204030e-04  -3.916777e-03  0 
 3.391139e-04  -3.916541e-03  0 
 9.243766e-04  -3.929093e-03  0 
 1.587706e-03  -3.956822e-03  0 
CELL_DATA 5
TENSORS element_stresses FLOAT
 -5.009069e-01  -2.269398e-02  0 
 -2.269398e-02  1.582326e-03  0 
 0  0  0 

 -2.457032e-02  -3.257057e-02  0 
 -3.257057e-02  2.016408e-03  0 
 0  0  0 

 -3.127198e-03  -4.073474e-02  0 
 -4.073474e-02  2.089896e-03  0 
 0  0  0 

 2.531807e-02  -3.460152e-02  0 
 -3.460152e-02  1.363347e-03  0 
 0  0  0 

 5.032863e-01  -2.564918e-02  0 
 -2.564918e-02  2.360799e-04  0 
 0  0  0 

TENSORS element_stresses FLOAT
 -5.009069e-01  -2.269398e-02  0 
 -2.269398e-02  1.582326e-03  0 
 0  0  0 

 -2.457032e-02  -3.257057e-02  0 
 -3.257057e-02  2.016408e-03  0 
 0  0  0 

 -3.127198e-03  -4.073474e-02  0 
 -4.073474e-02  2.089896e-03  0 
 0  0  0 

 2.531807e-02  -3.460152e-02  0 
 -3.460152e-02  1.363347e-03  0 
 0  0  0 

 5.032863e-01  -2.564918e-02  0 
 -2.564918e-02  2.360799e-04  0 
 0  0  0 

