# vtk DataFile Version 3.1
this is an vtk file created by FEMAC
ASCII
DATASET UNSTRUCTURED_GRID
POINTS 12 FLOAT
5.000000 0.000000 0.000000
5.500000 0.000000 0.000000
5.000000 0.200000 0.000000
5.000000 0.400000 0.000000
5.000000 0.600000 0.000000
5.000000 0.800000 0.000000
5.000000 1.000000 0.000000
5.500000 0.200000 0.000000
5.500000 0.400000 0.000000
5.500000 0.600000 0.000000
5.500000 0.800000 0.000000
5.500000 1.000000 0.000000
CELLS 5 25 
4 0 1 7 2
4 2 7 8 3
4 3 8 9 4
4 4  9 10  5
4 5 10 11  6
CELL_TYPES 5
9 9 9 9 9 
POINT_DATA 12
VECTORS displacement_ITER1 FLOAT
 -2.575099e-03  -1.747900e-02  0 
 -2.635537e-03  -2.013524e-02  0 
 -1.525652e-03  -1.747202e-02  0 
 -5.148025e-04  -1.746804e-02  0 
 5.335549e-04  -1.746817e-02  0 
 1.544597e-03  -1.747188e-02  0 
 2.593860e-03  -1.747887e-02  0 
 -1.564637e-03  -2.013029e-02  0 
 -5.254058e-04  -2.012753e-02  0 
 5.444305e-04  -2.012761e-02  0 
 1.583260e-03  -2.013032e-02  0 
 2.654381e-03  -2.013510e-02  0 
VECTORS displacement_ITER2 FLOAT
 -2.574683e-03  -1.747864e-02  0 
 -2.635157e-03  -2.013436e-02  0 
 -1.525432e-03  -1.747156e-02  0 
 -5.146266e-04  -1.746765e-02  0 
 5.333627e-04  -1.746768e-02  0 
 1.544194e-03  -1.747154e-02  0 
 2.593440e-03  -1.747862e-02  0 
 -1.564439e-03  -2.012939e-02  0 
 -5.254602e-04  -2.012656e-02  0 
 5.441973e-04  -2.012655e-02  0 
 1.583194e-03  -2.012938e-02  0 
 2.653926e-03  -2.013436e-02  0 
VECTORS displacement_ITER3 FLOAT
 -2.574619e-03  -1.747882e-02  0 
 -2.635120e-03  -2.013443e-02  0 
 -1.525480e-03  -1.747174e-02  0 
 -5.145628e-04  -1.746785e-02  0 
 5.333078e-04  -1.746785e-02  0 
 1.544231e-03  -1.747174e-02  0 
 2.593374e-03  -1.747882e-02  0 
 -1.564382e-03  -2.012947e-02  0 
 -5.254637e-04  -2.012663e-02  0 
 5.442127e-04  -2.012663e-02  0 
 1.583130e-03  -2.012947e-02  0 
 2.653871e-03  -2.013443e-02  0 
VECTORS displacement_ITER4 FLOAT
 -2.574618e-03  -1.747883e-02  0 
 -2.635120e-03  -2.013445e-02  0 
 -1.525484e-03  -1.747176e-02  0 
 -5.145569e-04  -1.746786e-02  0 
 5.333061e-04  -1.746786e-02  0 
 1.544233e-03  -1.747176e-02  0 
 2.593370e-03  -1.747883e-02  0 
 -1.564374e-03  -2.012949e-02  0 
 -5.254672e-04  -2.012665e-02  0 
 5.442174e-04  -2.012665e-02  0 
 1.583123e-03  -2.012949e-02  0 
 2.653870e-03  -2.013445e-02  0 
VECTORS displacement_ITER5 FLOAT
 -2.574618e-03  -1.747883e-02  0 
 -2.635120e-03  -2.013445e-02  0 
 -1.525484e-03  -1.747176e-02  0 
 -5.145571e-04  -1.746786e-02  0 
 5.333061e-04  -1.746786e-02  0 
 1.544233e-03  -1.747176e-02  0 
 2.593370e-03  -1.747883e-02  0 
 -1.564373e-03  -2.012949e-02  0 
 -5.254679e-04  -2.012665e-02  0 
 5.442173e-04  -2.012665e-02  0 
 1.583123e-03  -2.012949e-02  0 
 2.653870e-03  -2.013445e-02  0 
VECTORS displacement_ITER6 FLOAT
 -2.574618e-03  -1.747883e-02  0 
 -2.635120e-03  -2.013445e-02  0 
 -1.525484e-03  -1.747176e-02  0 
 -5.145571e-04  -1.746786e-02  0 
 5.333060e-04  -1.746786e-02  0 
 1.544233e-03  -1.747176e-02  0 
 2.593370e-03  -1.747883e-02  0 
 -1.564373e-03  -2.012949e-02  0 
 -5.254678e-04  -2.012665e-02  0 
 5.442173e-04  -2.012665e-02  0 
 1.583123e-03  -2.012949e-02  0 
 2.653870e-03  -2.013445e-02  0 
VECTORS displacement_ITER7 FLOAT
 -2.574618e-03  -1.747883e-02  0 
 -2.635120e-03  -2.013445e-02  0 
 -1.525484e-03  -1.747176e-02  0 
 -5.145571e-04  -1.746786e-02  0 
 5.333060e-04  -1.746786e-02  0 
 1.544233e-03  -1.747176e-02  0 
 2.593370e-03  -1.747883e-02  0 
 -1.564373e-03  -2.012949e-02  0 
 -5.254678e-04  -2.012665e-02  0 
 5.442173e-04  -2.012665e-02  0 
 1.583123e-03  -2.012949e-02  0 
 2.653870e-03  -2.013445e-02  0 
CELL_DATA 5
TENSORS element_stresses FLOAT
 -9.929713e-02  -1.049500e-02  0 
 -1.049500e-02  3.132035e-04  0 
 0  0  0 

 -4.917250e-03  -1.476433e-02  0 
 -1.476433e-02  2.091197e-04  0 
 0  0  0 

 5.720522e-07  -1.823293e-02  0 
 -1.823293e-02  2.241959e-07  0 
 0  0  0 

 4.917430e-03  -1.476442e-02  0 
 -1.476442e-02  -2.090772e-04  0 
 0  0  0 

 9.929638e-02  -1.049332e-02  0 
 -1.049332e-02  -3.133421e-04  0 
 0  0  0 

TENSORS element_stresses FLOAT
 -9.929713e-02  -1.049500e-02  0 
 -1.049500e-02  3.132035e-04  0 
 0  0  0 

 -4.917250e-03  -1.476433e-02  0 
 -1.476433e-02  2.091197e-04  0 
 0  0  0 

 5.720522e-07  -1.823293e-02  0 
 -1.823293e-02  2.241959e-07  0 
 0  0  0 

 4.917430e-03  -1.476442e-02  0 
 -1.476442e-02  -2.090772e-04  0 
 0  0  0 

 9.929638e-02  -1.049332e-02  0 
 -1.049332e-02  -3.133421e-04  0 
 0  0  0 

