# vtk DataFile Version 3.1
this is an vtk file created by FEMAC
ASCII
DATASET UNSTRUCTURED_GRID
POINTS 12 FLOAT
1.000000 0.000000 0.000000
1.500000 0.000000 0.000000
1.000000 0.200000 0.000000
1.000000 0.400000 0.000000
1.000000 0.600000 0.000000
1.000000 0.800000 0.000000
1.000000 1.000000 0.000000
1.500000 0.200000 0.000000
1.500000 0.400000 0.000000
1.500000 0.600000 0.000000
1.500000 0.800000 0.000000
1.500000 1.000000 0.000000
CELLS 5 25 
4 0 1 7 2
4 2 7 8 3
4 3 8 9 4
4 4  9 10  5
4 5 10 11  6
CELL_TYPES 5
9 9 9 9 9 
POINT_DATA 12
VECTORS displacement_ITER1 FLOAT
 -8.979771e-04  -1.261915e-03  0 
 -1.255201e-03  -2.449676e-03  0 
 -4.938631e-04  -1.225893e-03  0 
 -1.810388e-04  -1.198318e-03  0 
 2.123749e-04  -1.197806e-03  0 
 5.145519e-04  -1.219113e-03  0 
 9.044326e-04  -1.257157e-03  0 
 -7.170888e-04  -2.416417e-03  0 
 -2.582496e-04  -2.394102e-03  0 
 2.799828e-04  -2.392860e-03  0 
 7.341240e-04  -2.405157e-03  0 
 1.274943e-03  -2.438050e-03  0 
VECTORS displacement_ITER2 FLOAT
 -8.979604e-04  -1.262282e-03  0 
 -1.255306e-03  -2.449243e-03  0 
 -4.939126e-04  -1.225677e-03  0 
 -1.809153e-04  -1.198374e-03  0 
 2.125336e-04  -1.197811e-03  0 
 5.144626e-04  -1.219034e-03  0 
 9.044146e-04  -1.257234e-03  0 
 -7.175470e-04  -2.416247e-03  0 
 -2.578128e-04  -2.393746e-03  0 
 2.802427e-04  -2.392760e-03  0 
 7.341504e-04  -2.405117e-03  0 
 1.274726e-03  -2.437712e-03  0 
VECTORS displacement_ITER3 FLOAT
 -8.979571e-04  -1.262295e-03  0 
 -1.255319e-03  -2.449211e-03  0 
 -4.939205e-04  -1.225656e-03  0 
 -1.809096e-04  -1.198386e-03  0 
 2.125478e-04  -1.197826e-03  0 
 5.144518e-04  -1.219032e-03  0 
 9.044229e-04  -1.257232e-03  0 
 -7.175799e-04  -2.416215e-03  0 
 -2.577811e-04  -2.393730e-03  0 
 2.802488e-04  -2.392756e-03  0 
 7.341521e-04  -2.405136e-03  0 
 1.274713e-03  -2.437703e-03  0 
VECTORS displacement_ITER4 FLOAT
 -8.979573e-04  -1.262294e-03  0 
 -1.255320e-03  -2.449213e-03  0 
 -4.939209e-04  -1.225657e-03  0 
 -1.809097e-04  -1.198386e-03  0 
 2.125491e-04  -1.197828e-03  0 
 5.144516e-04  -1.219035e-03  0 
 9.044229e-04  -1.257232e-03  0 
 -7.175786e-04  -2.416215e-03  0 
 -2.577817e-04  -2.393735e-03  0 
 2.802482e-04  -2.392759e-03  0 
 7.341521e-04  -2.405137e-03  0 
 1.274714e-03  -2.437706e-03  0 
VECTORS displacement_ITER5 FLOAT
 -8.979574e-04  -1.262294e-03  0 
 -1.255320e-03  -2.449214e-03  0 
 -4.939208e-04  -1.225657e-03  0 
 -1.809098e-04  -1.198386e-03  0 
 2.125491e-04  -1.197829e-03  0 
 5.144518e-04  -1.219035e-03  0 
 9.044229e-04  -1.257231e-03  0 
 -7.175777e-04  -2.416216e-03  0 
 -2.577825e-04  -2.393736e-03  0 
 2.802476e-04  -2.392760e-03  0 
 7.341522e-04  -2.405136e-03  0 
 1.274714e-03  -2.437707e-03  0 
VECTORS displacement_ITER6 FLOAT
 -8.979574e-04  -1.262294e-03  0 
 -1.255320e-03  -2.449214e-03  0 
 -4.939208e-04  -1.225657e-03  0 
 -1.809098e-04  -1.198386e-03  0 
 2.125491e-04  -1.197829e-03  0 
 5.144518e-04  -1.219035e-03  0 
 9.044229e-04  -1.257231e-03  0 
 -7.175777e-04  -2.416216e-03  0 
 -2.577825e-04  -2.393736e-03  0 
 2.802476e-04  -2.392760e-03  0 
 7.341523e-04  -2.405136e-03  0 
 1.274714e-03  -2.437707e-03  0 
VECTORS displacement_ITER7 FLOAT
 -8.979574e-04  -1.262294e-03  0 
 -1.255320e-03  -2.449214e-03  0 
 -4.939208e-04  -1.225657e-03  0 
 -1.809098e-04  -1.198386e-03  0 
 2.125491e-04  -1.197829e-03  0 
 5.144518e-04  -1.219035e-03  0 
 9.044229e-04  -1.257231e-03  0 
 -7.175777e-04  -2.416216e-03  0 
 -2.577825e-04  -2.393736e-03  0 
 2.802476e-04  -2.392760e-03  0 
 7.341523e-04  -2.405136e-03  0 
 1.274714e-03  -2.437707e-03  0 
CELL_DATA 5
TENSORS element_stresses FLOAT
 -5.810906e-01  -1.771770e-02  0 
 -1.771770e-02  -2.383660e-04  0 
 0  0  0 

 -2.892491e-02  -3.491483e-02  0 
 -3.491483e-02  3.760146e-03  0 
 0  0  0 

 -8.817631e-03  -4.735209e-02  0 
 -4.735209e-02  1.188548e-03  0 
 0  0  0 

 2.881446e-02  -3.780874e-02  0 
 -3.780874e-02  2.485338e-04  0 
 0  0  0 

 5.900187e-01  -3.095664e-02  0 
 -3.095664e-02  8.870769e-05  0 
 0  0  0 

TENSORS element_stresses FLOAT
 -5.810906e-01  -1.771770e-02  0 
 -1.771770e-02  -2.383660e-04  0 
 0  0  0 

 -2.892491e-02  -3.491483e-02  0 
 -3.491483e-02  3.760146e-03  0 
 0  0  0 

 -8.817631e-03  -4.735209e-02  0 
 -4.735209e-02  1.188548e-03  0 
 0  0  0 

 2.881446e-02  -3.780874e-02  0 
 -3.780874e-02  2.485338e-04  0 
 0  0  0 

 5.900187e-01  -3.095664e-02  0 
 -3.095664e-02  8.870769e-05  0 
 0  0  0 

