# vtk DataFile Version 3.1
this is an vtk file created by FEMAC
ASCII
DATASET UNSTRUCTURED_GRID
POINTS 12 FLOAT
0.500000 0.000000 0.000000
1.000000 0.000000 0.000000
0.500000 0.200000 0.000000
0.500000 0.400000 0.000000
0.500000 0.600000 0.000000
0.500000 0.800000 0.000000
0.500000 1.000000 0.000000
1.000000 0.200000 0.000000
1.000000 0.400000 0.000000
1.000000 0.600000 0.000000
1.000000 0.800000 0.000000
1.000000 1.000000 0.000000
CELLS 5 25 
4 0 1 7 2
4 2 7 8 3
4 3 8 9 4
4 4  9 10  5
4 5 10 11  6
CELL_TYPES 5
9 9 9 9 9 
POINT_DATA 12
VECTORS displacement_ITER1 FLOAT
 -4.936940e-04  -4.174635e-04  0 
 -8.979605e-04  -1.262456e-03  0 
 -2.296438e-04  -3.721671e-04  0 
 -9.059974e-05  -4.015063e-04  0 
 1.225770e-04  -4.058284e-04  0 
 2.667198e-04  -4.504539e-04  0 
 4.734106e-04  -4.947775e-04  0 
 -4.939780e-04  -1.225368e-03  0 
 -1.809925e-04  -1.198336e-03  0 
 2.125909e-04  -1.197987e-03  0 
 5.143572e-04  -1.219048e-03  0 
 9.044632e-04  -1.257008e-03  0 
VECTORS displacement_ITER2 FLOAT
 -4.937072e-04  -4.174621e-04  0 
 -8.979507e-04  -1.262294e-03  0 
 -2.296271e-04  -3.721155e-04  0 
 -9.083881e-05  -4.011654e-04  0 
 1.225268e-04  -4.059268e-04  0 
 2.667960e-04  -4.508192e-04  0 
 4.735804e-04  -4.946183e-04  0 
 -4.939275e-04  -1.225623e-03  0 
 -1.809170e-04  -1.198379e-03  0 
 2.125538e-04  -1.197853e-03  0 
 5.144383e-04  -1.219053e-03  0 
 9.044255e-04  -1.257208e-03  0 
VECTORS displacement_ITER3 FLOAT
 -4.937096e-04  -4.174632e-04  0 
 -8.979574e-04  -1.262292e-03  0 
 -2.296252e-04  -3.721048e-04  0 
 -9.085968e-05  -4.011174e-04  0 
 1.225246e-04  -4.059414e-04  0 
 2.668011e-04  -4.508605e-04  0 
 4.735938e-04  -4.945979e-04  0 
 -4.939215e-04  -1.225656e-03  0 
 -1.809090e-04  -1.198386e-03  0 
 2.125502e-04  -1.197830e-03  0 
 5.144512e-04  -1.219036e-03  0 
 9.044219e-04  -1.257230e-03  0 
VECTORS displacement_ITER4 FLOAT
 -4.937103e-04  -4.174629e-04  0 
 -8.979575e-04  -1.262293e-03  0 
 -2.296254e-04  -3.721050e-04  0 
 -9.085854e-05  -4.011181e-04  0 
 1.225256e-04  -4.059416e-04  0 
 2.668006e-04  -4.508608e-04  0 
 4.735932e-04  -4.945977e-04  0 
 -4.939209e-04  -1.225657e-03  0 
 -1.809095e-04  -1.198386e-03  0 
 2.125493e-04  -1.197829e-03  0 
 5.144517e-04  -1.219035e-03  0 
 9.044226e-04  -1.257231e-03  0 
VECTORS displacement_ITER5 FLOAT
 -4.937105e-04  -4.174628e-04  0 
 -8.979575e-04  -1.262294e-03  0 
 -2.296255e-04  -3.721052e-04  0 
 -9.085802e-05  -4.011188e-04  0 
 1.225259e-04  -4.059414e-04  0 
 2.668004e-04  -4.508604e-04  0 
 4.735929e-04  -4.945978e-04  0 
 -4.939208e-04  -1.225657e-03  0 
 -1.809098e-04  -1.198386e-03  0 
 2.125491e-04  -1.197829e-03  0 
 5.144517e-04  -1.219035e-03  0 
 9.044229e-04  -1.257231e-03  0 
VECTORS displacement_ITER6 FLOAT
 -4.937105e-04  -4.174628e-04  0 
 -8.979574e-04  -1.262294e-03  0 
 -2.296255e-04  -3.721052e-04  0 
 -9.085802e-05  -4.011187e-04  0 
 1.225259e-04  -4.059414e-04  0 
 2.668004e-04  -4.508604e-04  0 
 4.735929e-04  -4.945978e-04  0 
 -4.939208e-04  -1.225657e-03  0 
 -1.809098e-04  -1.198386e-03  0 
 2.125491e-04  -1.197829e-03  0 
 5.144518e-04  -1.219035e-03  0 
 9.044229e-04  -1.257231e-03  0 
VECTORS displacement_ITER7 FLOAT
 -4.937105e-04  -4.174628e-04  0 
 -8.979574e-04  -1.262294e-03  0 
 -2.296255e-04  -3.721052e-04  0 
 -9.085802e-05  -4.011187e-04  0 
 1.225259e-04  -4.059414e-04  0 
 2.668004e-04  -4.508604e-04  0 
 4.735929e-04  -4.945978e-04  0 
 -4.939208e-04  -1.225657e-03  0 
 -1.809098e-04  -1.198386e-03  0 
 2.125491e-04  -1.197829e-03  0 
 5.144518e-04  -1.219035e-03  0 
 9.044229e-04  -1.257231e-03  0 
CELL_DATA 5
TENSORS element_stresses FLOAT
 -6.670840e-01  -2.159882e-02  0 
 -2.159882e-02  4.861193e-03  0 
 0  0  0 

 -3.908292e-02  -4.010562e-02  0 
 -4.010562e-02  -1.216065e-02  0 
 0  0  0 

 -3.546561e-03  -5.542152e-02  0 
 -5.542152e-02  -1.172664e-02  0 
 0  0  0 

 3.165720e-02  -3.420148e-02  0 
 -3.420148e-02  -7.034221e-03  0 
 0  0  0 

 6.780563e-01  -2.992255e-02  0 
 -2.992255e-02  -1.416865e-03  0 
 0  0  0 

TENSORS element_stresses FLOAT
 -6.670840e-01  -2.159882e-02  0 
 -2.159882e-02  4.861193e-03  0 
 0  0  0 

 -3.908292e-02  -4.010562e-02  0 
 -4.010562e-02  -1.216065e-02  0 
 0  0  0 

 -3.546561e-03  -5.542152e-02  0 
 -5.542152e-02  -1.172664e-02  0 
 0  0  0 

 3.165720e-02  -3.420148e-02  0 
 -3.420148e-02  -7.034221e-03  0 
 0  0  0 

 6.780563e-01  -2.992255e-02  0 
 -2.992255e-02  -1.416865e-03  0 
 0  0  0 

