# vtk DataFile Version 3.1
this is an vtk file created by FEMAC
ASCII
DATASET UNSTRUCTURED_GRID
POINTS 12 FLOAT
5.500000 0.000000 0.000000
6.000000 0.000000 0.000000
5.500000 0.200000 0.000000
5.500000 0.400000 0.000000
5.500000 0.600000 0.000000
5.500000 0.800000 0.000000
5.500000 1.000000 0.000000
6.000000 0.200000 0.000000
6.000000 0.400000 0.000000
6.000000 0.600000 0.000000
6.000000 0.800000 0.000000
6.000000 1.000000 0.000000
CELLS 5 25 
4 0 1 7 2
4 2 7 8 3
4 3 8 9 4
4 4  9 10  5
4 5 10 11  6
CELL_TYPES 5
9 9 9 9 9 
POINT_DATA 12
VECTORS displacement_ITER1 FLOAT
 -2.635475e-03  -2.013539e-02  0 
 -2.675970e-03  -2.283411e-02  0 
 -1.564557e-03  -2.013032e-02  0 
 -5.255968e-04  -2.012748e-02  0 
 5.442449e-04  -2.012735e-02  0 
 1.583571e-03  -2.013015e-02  0 
 2.654303e-03  -2.013541e-02  0 
 -1.591660e-03  -2.283091e-02  0 
 -5.324090e-04  -2.282880e-02  0 
 5.510607e-04  -2.282878e-02  0 
 1.610491e-03  -2.283082e-02  0 
 2.694921e-03  -2.283390e-02  0 
VECTORS displacement_ITER2 FLOAT
 -2.635214e-03  -2.013435e-02  0 
 -2.675716e-03  -2.283313e-02  0 
 -1.564361e-03  -2.012940e-02  0 
 -5.254968e-04  -2.012655e-02  0 
 5.442792e-04  -2.012656e-02  0 
 1.583107e-03  -2.012940e-02  0 
 2.653946e-03  -2.013435e-02  0 
 -1.591326e-03  -2.282986e-02  0 
 -5.323837e-04  -2.282790e-02  0 
 5.511545e-04  -2.282788e-02  0 
 1.610068e-03  -2.282985e-02  0 
 2.694464e-03  -2.283312e-02  0 
VECTORS displacement_ITER3 FLOAT
 -2.635127e-03  -2.013444e-02  0 
 -2.675647e-03  -2.283306e-02  0 
 -1.564368e-03  -2.012947e-02  0 
 -5.254736e-04  -2.012663e-02  0 
 5.442225e-04  -2.012663e-02  0 
 1.583118e-03  -2.012947e-02  0 
 2.653875e-03  -2.013443e-02  0 
 -1.591283e-03  -2.282982e-02  0 
 -5.323774e-04  -2.282783e-02  0 
 5.511302e-04  -2.282783e-02  0 
 1.610030e-03  -2.282981e-02  0 
 2.694397e-03  -2.283306e-02  0 
VECTORS displacement_ITER4 FLOAT
 -2.635120e-03  -2.013445e-02  0 
 -2.675642e-03  -2.283306e-02  0 
 -1.564373e-03  -2.012949e-02  0 
 -5.254685e-04  -2.012665e-02  0 
 5.442170e-04  -2.012665e-02  0 
 1.583123e-03  -2.012949e-02  0 
 2.653870e-03  -2.013445e-02  0 
 -1.591275e-03  -2.282982e-02  0 
 -5.323803e-04  -2.282784e-02  0 
 5.511296e-04  -2.282784e-02  0 
 1.610025e-03  -2.282982e-02  0 
 2.694392e-03  -2.283306e-02  0 
VECTORS displacement_ITER5 FLOAT
 -2.635120e-03  -2.013445e-02  0 
 -2.675642e-03  -2.283306e-02  0 
 -1.564373e-03  -2.012949e-02  0 
 -5.254678e-04  -2.012665e-02  0 
 5.442173e-04  -2.012665e-02  0 
 1.583123e-03  -2.012949e-02  0 
 2.653870e-03  -2.013445e-02  0 
 -1.591274e-03  -2.282982e-02  0 
 -5.323806e-04  -2.282784e-02  0 
 5.511305e-04  -2.282784e-02  0 
 1.610024e-03  -2.282983e-02  0 
 2.694392e-03  -2.283307e-02  0 
VECTORS displacement_ITER6 FLOAT
 -2.635120e-03  -2.013445e-02  0 
 -2.675642e-03  -2.283306e-02  0 
 -1.564373e-03  -2.012949e-02  0 
 -5.254678e-04  -2.012665e-02  0 
 5.442173e-04  -2.012665e-02  0 
 1.583123e-03  -2.012949e-02  0 
 2.653870e-03  -2.013445e-02  0 
 -1.591274e-03  -2.282982e-02  0 
 -5.323805e-04  -2.282784e-02  0 
 5.511305e-04  -2.282784e-02  0 
 1.610024e-03  -2.282982e-02  0 
 2.694392e-03  -2.283307e-02  0 
VECTORS displacement_ITER7 FLOAT
 -2.635120e-03  -2.013445e-02  0 
 -2.675642e-03  -2.283306e-02  0 
 -1.564373e-03  -2.012949e-02  0 
 -5.254678e-04  -2.012665e-02  0 
 5.442173e-04  -2.012665e-02  0 
 1.583123e-03  -2.012949e-02  0 
 2.653870e-03  -2.013445e-02  0 
 -1.591274e-03  -2.282982e-02  0 
 -5.323805e-04  -2.282784e-02  0 
 5.511305e-04  -2.282784e-02  0 
 1.610024e-03  -2.282982e-02  0 
 2.694392e-03  -2.283307e-02  0 
CELL_DATA 5
TENSORS element_stresses FLOAT
 -6.732838e-02  -8.586487e-03  0 
 -8.586487e-03  3.154465e-04  0 
 0  0  0 

 -3.318098e-03  -1.207958e-02  0 
 -1.207958e-02  2.109009e-04  0 
 0  0  0 

 4.265877e-07  -1.491869e-02  0 
 -1.491869e-02  -2.374032e-07  0 
 0  0  0 

 3.318014e-03  -1.207935e-02  0 
 -1.207935e-02  -2.113554e-04  0 
 0  0  0 

 6.732804e-02  -8.585882e-03  0 
 -8.585882e-03  -3.156473e-04  0 
 0  0  0 

TENSORS element_stresses FLOAT
 -6.732838e-02  -8.586487e-03  0 
 -8.586487e-03  3.154465e-04  0 
 0  0  0 

 -3.318098e-03  -1.207958e-02  0 
 -1.207958e-02  2.109009e-04  0 
 0  0  0 

 4.265877e-07  -1.491869e-02  0 
 -1.491869e-02  -2.374032e-07  0 
 0  0  0 

 3.318014e-03  -1.207935e-02  0 
 -1.207935e-02  -2.113554e-04  0 
 0  0  0 

 6.732804e-02  -8.585882e-03  0 
 -8.585882e-03  -3.156473e-04  0 
 0  0  0 

