# vtk DataFile Version 3.1
this is an vtk file created by FEMAC
ASCII
DATASET UNSTRUCTURED_GRID
POINTS 12 FLOAT
4.000000 0.000000 0.000000
4.500000 0.000000 0.000000
4.000000 0.200000 0.000000
4.000000 0.400000 0.000000
4.000000 0.600000 0.000000
4.000000 0.800000 0.000000
4.000000 1.000000 0.000000
4.500000 0.200000 0.000000
4.500000 0.400000 0.000000
4.500000 0.600000 0.000000
4.500000 0.800000 0.000000
4.500000 1.000000 0.000000
CELLS 5 25 
4 0 1 7 2
4 2 7 8 3
4 3 8 9 4
4 4  9 10  5
4 5 10 11  6
CELL_TYPES 5
9 9 9 9 9 
POINT_DATA 12
VECTORS displacement_ITER1 FLOAT
 -2.378131e-03  -1.238649e-02  0 
 -2.490429e-03  -1.488743e-02  0 
 -1.401888e-03  -1.237454e-02  0 
 -4.781777e-04  -1.236822e-02  0 
 4.972163e-04  -1.236816e-02  0 
 1.420610e-03  -1.237391e-02  0 
 2.396688e-03  -1.238638e-02  0 
 -1.472544e-03  -1.487752e-02  0 
 -4.985084e-04  -1.487305e-02  0 
 5.171871e-04  -1.487284e-02  0 
 1.491230e-03  -1.487750e-02  0 
 2.509472e-03  -1.488727e-02  0 
VECTORS displacement_ITER2 FLOAT
 -2.377690e-03  -1.238836e-02  0 
 -2.490120e-03  -1.488799e-02  0 
 -1.402113e-03  -1.237588e-02  0 
 -4.775640e-04  -1.236931e-02  0 
 4.963211e-04  -1.236932e-02  0 
 1.420887e-03  -1.237585e-02  0 
 2.396438e-03  -1.238830e-02  0 
 -1.472273e-03  -1.487842e-02  0 
 -4.988088e-04  -1.487329e-02  0 
 5.175480e-04  -1.487328e-02  0 
 1.491021e-03  -1.487838e-02  0 
 2.508885e-03  -1.488795e-02  0 
VECTORS displacement_ITER3 FLOAT
 -2.377695e-03  -1.238848e-02  0 
 -2.490139e-03  -1.488818e-02  0 
 -1.402148e-03  -1.237603e-02  0 
 -4.775403e-04  -1.236944e-02  0 
 4.963057e-04  -1.236944e-02  0 
 1.420899e-03  -1.237600e-02  0 
 2.396436e-03  -1.238845e-02  0 
 -1.472208e-03  -1.487861e-02  0 
 -4.988452e-04  -1.487346e-02  0 
 5.175987e-04  -1.487346e-02  0 
 1.490954e-03  -1.487860e-02  0 
 2.508893e-03  -1.488816e-02  0 
VECTORS displacement_ITER4 FLOAT
 -2.377696e-03  -1.238848e-02  0 
 -2.490140e-03  -1.488819e-02  0 
 -1.402147e-03  -1.237603e-02  0 
 -4.775402e-04  -1.236944e-02  0 
 4.963052e-04  -1.236944e-02  0 
 1.420897e-03  -1.237600e-02  0 
 2.396438e-03  -1.238845e-02  0 
 -1.472209e-03  -1.487862e-02  0 
 -4.988481e-04  -1.487347e-02  0 
 5.176001e-04  -1.487346e-02  0 
 1.490955e-03  -1.487860e-02  0 
 2.508894e-03  -1.488817e-02  0 
VECTORS displacement_ITER5 FLOAT
 -2.377696e-03  -1.238848e-02  0 
 -2.490140e-03  -1.488819e-02  0 
 -1.402147e-03  -1.237603e-02  0 
 -4.775400e-04  -1.236944e-02  0 
 4.963053e-04  -1.236944e-02  0 
 1.420897e-03  -1.237600e-02  0 
 2.396438e-03  -1.238845e-02  0 
 -1.472208e-03  -1.487862e-02  0 
 -4.988481e-04  -1.487347e-02  0 
 5.176003e-04  -1.487346e-02  0 
 1.490955e-03  -1.487860e-02  0 
 2.508894e-03  -1.488817e-02  0 
VECTORS displacement_ITER6 FLOAT
 -2.377696e-03  -1.238848e-02  0 
 -2.490140e-03  -1.488819e-02  0 
 -1.402147e-03  -1.237603e-02  0 
 -4.775400e-04  -1.236944e-02  0 
 4.963053e-04  -1.236944e-02  0 
 1.420897e-03  -1.237600e-02  0 
 2.396438e-03  -1.238845e-02  0 
 -1.472208e-03  -1.487862e-02  0 
 -4.988481e-04  -1.487347e-02  0 
 5.176003e-04  -1.487346e-02  0 
 1.490955e-03  -1.487860e-02  0 
 2.508894e-03  -1.488817e-02  0 
VECTORS displacement_ITER7 FLOAT
 -2.377696e-03  -1.238848e-02  0 
 -2.490140e-03  -1.488819e-02  0 
 -1.402147e-03  -1.237603e-02  0 
 -4.775400e-04  -1.236944e-02  0 
 4.963053e-04  -1.236944e-02  0 
 1.420897e-03  -1.237600e-02  0 
 2.396438e-03  -1.238845e-02  0 
 -1.472208e-03  -1.487862e-02  0 
 -4.988481e-04  -1.487347e-02  0 
 5.176003e-04  -1.487346e-02  0 
 1.490955e-03  -1.487860e-02  0 
 2.508894e-03  -1.488817e-02  0 
CELL_DATA 5
TENSORS element_stresses FLOAT
 -1.824110e-01  -1.430313e-02  0 
 -1.430313e-02  3.153598e-04  0 
 0  0  0 

 -9.072808e-03  -2.013015e-02  0 
 -2.013015e-02  2.137829e-04  0 
 0  0  0 

 -1.163445e-05  -2.486013e-02  0 
 -2.486013e-02  4.876519e-06  0 
 0  0  0 

 9.074288e-03  -2.013537e-02  0 
 -2.013537e-02  -2.034096e-04  0 
 0  0  0 

 1.824212e-01  -1.432122e-02  0 
 -1.432122e-02  -3.106777e-04  0 
 0  0  0 

TENSORS element_stresses FLOAT
 -1.824110e-01  -1.430313e-02  0 
 -1.430313e-02  3.153598e-04  0 
 0  0  0 

 -9.072808e-03  -2.013015e-02  0 
 -2.013015e-02  2.137829e-04  0 
 0  0  0 

 -1.163445e-05  -2.486013e-02  0 
 -2.486013e-02  4.876519e-06  0 
 0  0  0 

 9.074288e-03  -2.013537e-02  0 
 -2.013537e-02  -2.034096e-04  0 
 0  0  0 

 1.824212e-01  -1.432122e-02  0 
 -1.432122e-02  -3.106777e-04  0 
 0  0  0 

