# vtk DataFile Version 3.1
this is an vtk file created by FEMAC
ASCII
DATASET UNSTRUCTURED_GRID
POINTS 12 FLOAT
7.000000 0.000000 0.000000
7.500000 0.000000 0.000000
7.000000 0.200000 0.000000
7.000000 0.400000 0.000000
7.000000 0.600000 0.000000
7.000000 0.800000 0.000000
7.000000 1.000000 0.000000
7.500000 0.200000 0.000000
7.500000 0.400000 0.000000
7.500000 0.600000 0.000000
7.500000 0.800000 0.000000
7.500000 1.000000 0.000000
CELLS 5 25 
4 0 1 7 2
4 2 7 8 3
4 3 8 9 4
4 4  9 10  5
4 5 10 11  6
CELL_TYPES 5
9 9 9 9 9 
POINT_DATA 12
VECTORS displacement_ITER1 FLOAT
 -2.713426e-03  -2.829325e-02  0 
 -2.717910e-03  -3.102989e-02  0 
 -1.618921e-03  -2.829233e-02  0 
 -5.374797e-04  -2.829146e-02  0 
 5.564934e-04  -2.829167e-02  0 
 1.637671e-03  -2.829239e-02  0 
 2.732107e-03  -2.829334e-02  0 
 -1.624205e-03  -3.102961e-02  0 
 -5.372178e-04  -3.102926e-02  0 
 5.562390e-04  -3.102913e-02  0 
 1.642970e-03  -3.102958e-02  0 
 2.736663e-03  -3.102988e-02  0 
VECTORS displacement_ITER2 FLOAT
 -2.712777e-03  -2.829151e-02  0 
 -2.717381e-03  -3.102737e-02  0 
 -1.618751e-03  -2.829056e-02  0 
 -5.374698e-04  -2.828984e-02  0 
 5.562281e-04  -2.828984e-02  0 
 1.637510e-03  -2.829058e-02  0 
 2.731531e-03  -2.829151e-02  0 
 -1.623859e-03  -3.102708e-02  0 
 -5.372009e-04  -3.102673e-02  0 
 5.559562e-04  -3.102673e-02  0 
 1.642616e-03  -3.102708e-02  0 
 2.736135e-03  -3.102737e-02  0 
VECTORS displacement_ITER3 FLOAT
 -2.712717e-03  -2.829130e-02  0 
 -2.717318e-03  -3.102710e-02  0 
 -1.618712e-03  -2.829036e-02  0 
 -5.374572e-04  -2.828963e-02  0 
 5.562110e-04  -2.828963e-02  0 
 1.637460e-03  -2.829036e-02  0 
 2.731465e-03  -2.829130e-02  0 
 -1.623824e-03  -3.102681e-02  0 
 -5.371911e-04  -3.102646e-02  0 
 5.559441e-04  -3.102646e-02  0 
 1.642573e-03  -3.102681e-02  0 
 2.736067e-03  -3.102710e-02  0 
VECTORS displacement_ITER4 FLOAT
 -2.712711e-03  -2.829128e-02  0 
 -2.717311e-03  -3.102708e-02  0 
 -1.618707e-03  -2.829035e-02  0 
 -5.374573e-04  -2.828961e-02  0 
 5.562084e-04  -2.828962e-02  0 
 1.637457e-03  -2.829035e-02  0 
 2.731460e-03  -2.829128e-02  0 
 -1.623820e-03  -3.102679e-02  0 
 -5.371910e-04  -3.102644e-02  0 
 5.559419e-04  -3.102644e-02  0 
 1.642569e-03  -3.102679e-02  0 
 2.736061e-03  -3.102708e-02  0 
VECTORS displacement_ITER5 FLOAT
 -2.712709e-03  -2.829128e-02  0 
 -2.717310e-03  -3.102708e-02  0 
 -1.618707e-03  -2.829034e-02  0 
 -5.374575e-04  -2.828962e-02  0 
 5.562076e-04  -2.828962e-02  0 
 1.637457e-03  -2.829034e-02  0 
 2.731459e-03  -2.829128e-02  0 
 -1.623819e-03  -3.102679e-02  0 
 -5.371911e-04  -3.102644e-02  0 
 5.559411e-04  -3.102644e-02  0 
 1.642569e-03  -3.102679e-02  0 
 2.736060e-03  -3.102708e-02  0 
VECTORS displacement_ITER6 FLOAT
 -2.712709e-03  -2.829128e-02  0 
 -2.717310e-03  -3.102708e-02  0 
 -1.618707e-03  -2.829034e-02  0 
 -5.374575e-04  -2.828962e-02  0 
 5.562075e-04  -2.828962e-02  0 
 1.637457e-03  -2.829034e-02  0 
 2.731459e-03  -2.829128e-02  0 
 -1.623819e-03  -3.102679e-02  0 
 -5.371911e-04  -3.102644e-02  0 
 5.559411e-04  -3.102644e-02  0 
 1.642569e-03  -3.102679e-02  0 
 2.736060e-03  -3.102708e-02  0 
VECTORS displacement_ITER7 FLOAT
 -2.712709e-03  -2.829128e-02  0 
 -2.717310e-03  -3.102708e-02  0 
 -1.618707e-03  -2.829034e-02  0 
 -5.374575e-04  -2.828962e-02  0 
 5.562075e-04  -2.828962e-02  0 
 1.637457e-03  -2.829034e-02  0 
 2.731459e-03  -2.829128e-02  0 
 -1.623819e-03  -3.102679e-02  0 
 -5.371911e-04  -3.102644e-02  0 
 5.559411e-04  -3.102644e-02  0 
 1.642569e-03  -3.102679e-02  0 
 2.736060e-03  -3.102708e-02  0 
CELL_DATA 5
TENSORS element_stresses FLOAT
 -9.661840e-03  -2.696294e-03  0 
 -2.696294e-03  1.699079e-04  0 
 0  0  0 

 -4.433963e-04  -4.120854e-03  0 
 -4.120854e-03  1.371867e-04  0 
 0  0  0 

 -1.664215e-08  -5.115678e-03  0 
 -5.115678e-03  1.107469e-08  0 
 0  0  0 

 4.434003e-04  -4.120863e-03  0 
 -4.120863e-03  -1.371678e-04  0 
 0  0  0 

 9.661853e-03  -2.696311e-03  0 
 -2.696311e-03  -1.698993e-04  0 
 0  0  0 

TENSORS element_stresses FLOAT
 -9.661840e-03  -2.696294e-03  0 
 -2.696294e-03  1.699079e-04  0 
 0  0  0 

 -4.433963e-04  -4.120854e-03  0 
 -4.120854e-03  1.371867e-04  0 
 0  0  0 

 -1.664215e-08  -5.115678e-03  0 
 -5.115678e-03  1.107469e-08  0 
 0  0  0 

 4.434003e-04  -4.120863e-03  0 
 -4.120863e-03  -1.371678e-04  0 
 0  0  0 

 9.661853e-03  -2.696311e-03  0 
 -2.696311e-03  -1.698993e-04  0 
 0  0  0 

