# vtk DataFile Version 3.1
this is an vtk file created by FEMAC
ASCII
DATASET UNSTRUCTURED_GRID
POINTS 103 FLOAT
5.000000 1.000000 0.000000
5.000000 0.875000 0.000000
5.000000 1.125000 0.000000
5.000000 1.250000 0.000000
5.000000 1.375000 0.000000
5.000000 1.500000 0.000000
5.000000 1.625000 0.000000
5.000000 1.750000 0.000000
5.125000 1.000000 0.000000
5.250000 1.000000 0.000000
5.375000 1.000000 0.000000
5.500000 1.000000 0.000000
5.625000 1.000000 0.000000
5.750000 1.000000 0.000000
5.875000 1.000000 0.000000
6.000000 0.750000 0.000000
6.000000 0.875000 0.000000
4.485442 1.490615 0.000000
4.789366 1.292350 0.000000
4.807507 1.134893 0.000000
4.239491 1.499097 0.000000
4.324057 1.713565 0.000000
4.883175 1.394225 0.000000
4.785874 1.656072 0.000000
4.902925 1.251495 0.000000
4.419597 1.618051 0.000000
4.430041 1.369689 0.000000
4.344772 1.498773 0.000000
4.754768 1.432504 0.000000
4.631992 1.484172 0.000000
4.287202 1.599678 0.000000
4.875312 1.552572 0.000000
4.640324 1.634142 0.000000
4.546938 1.396590 0.000000
4.737654 1.551892 0.000000
4.708764 1.215696 0.000000
4.902082 1.668132 0.000000
4.651070 1.333967 0.000000
4.930905 1.126898 0.000000
5.683260 0.615166 0.000000
5.329100 0.631666 0.000000
5.817421 0.910332 0.000000
5.891498 0.593094 0.000000
5.766097 0.808510 0.000000
5.425921 0.863568 0.000000
5.232589 0.600604 0.000000
5.126171 0.698464 0.000000
5.904915 0.810446 0.000000
5.773622 0.614167 0.000000
5.508481 0.733243 0.000000
5.721623 0.704716 0.000000
5.262054 0.704572 0.000000
5.837969 0.707108 0.000000
5.926876 0.697130 0.000000
5.371958 0.723587 0.000000
5.617558 0.672824 0.000000
5.922907 0.918710 0.000000
5.291032 0.816412 0.000000
5.639225 0.786646 0.000000
5.319630 0.521262 0.000000
5.558179 0.884881 0.000000
5.185857 0.898777 0.000000
5.094825 0.825839 0.000000
5.305981 0.912675 0.000000
5.081137 0.919923 0.000000
5.416473 0.610778 0.000000
5.692654 0.898395 0.000000
5.293241 1.213433 0.000000
5.769929 1.236470 0.000000
5.081143 1.216418 0.000000
5.242847 1.504415 0.000000
5.521205 1.202928 0.000000
5.356320 1.370766 0.000000
5.561985 1.442247 0.000000
5.347256 1.666166 0.000000
5.206181 1.100633 0.000000
5.112104 1.668776 0.000000
5.604459 1.147322 0.000000
5.147247 1.322742 0.000000
5.128460 1.502129 0.000000
5.251718 1.331128 0.000000
5.372164 1.507077 0.000000
5.241160 1.675191 0.000000
5.086822 1.578096 0.000000
5.090099 1.403935 0.000000
5.462230 1.413370 0.000000
5.663072 1.351543 0.000000
5.633857 1.229739 0.000000
5.422272 1.278830 0.000000
5.282998 1.427743 0.000000
5.520700 1.099748 0.000000
5.279280 1.581616 0.000000
5.695664 1.113563 0.000000
5.172712 1.208050 0.000000
5.419119 1.124169 0.000000
5.146523 1.805296 0.000000
5.190562 1.415349 0.000000
5.182201 1.587339 0.000000
5.547800 1.323992 0.000000
5.094718 1.108072 0.000000
5.063698 1.313619 0.000000
5.308708 1.087647 0.000000
5.819229 1.097408 0.000000
CELLS 157 628 
3 5 22  4
3 24 18 19
3 4 24  3
3 18 24 22
3 24  4 22
3 27 17 25
3 17 27 26
3 28 18 22
3 21 30 25
3 18 35 19
3 27 30 20
3 27 25 30
3 31 23 34
3 31 22  5
3 5  6 31
3 36  6  7
3 36 31  6
3 23 31 36
3 34 23 32
3 22 31 28
3 28 31 34
3 17 26 33
3 29 17 33
3 37 18 28
3 37 35 18
3 34 32 29
3 28 34 29
3 29 37 28
3 29 33 37
3 2 38  0
3 3 38  2
3 19 38 24
3 3 24 38
3 13 41 14
3 47 15 16
3 50 39 48
3 40 51 45
3 42 52 48
3 56 14 41
3 56 47 16
3 41 47 56
3 10 44 11
3 46 45 51
3 50 52 43
3 50 48 52
3 53 15 47
3 43 47 41
3 43 52 47
3 47 52 53
3 58 50 43
3 45 59 40
3 11 60 12
3 60 11 44
3 49 60 44
3 49 58 60
3 9 63 10
3 1 64  0
3 8 64 61
3 64  8  0
3 63 44 10
3 57 44 63
3 62 64  1
3 62 61 64
3 9  8 61
3 63  9 61
3 57 63 61
3 54 49 44
3 44 57 54
3 39 50 55
3 58 49 55
3 55 50 58
3 40 65 54
3 65 40 59
3 58 66 60
3 66 12 60
3 66 13 12
3 65 49 54
3 51 40 54
3 51 54 57
3 43 41 66
3 13 66 41
3 58 43 66
3 6 76  7
3 75  8  9
3 2 69  3
3 72 80 67
3 5 83  6
3 83 76  6
3 83  5 79
3 84  5  4
3 5 84 79
3 72 88 85
3 89 72 81
3 72 89 80
3 70 89 81
3 90 77 71
3 91 70 81
3 91 74 82
3 74 91 81
3 67 93 75
3 96 70 79
3 96 78 80
3 70 97 79
3 76 97 82
3 73 98 86
3 98 73 85
3 99  2  0
3 8 99  0
3 3 100   4
3 78 100  69
3 100   3  69
3 81 72 85
3 92 12 13
3 77 12 92
3 100  84   4
3 78  84 100
3 12 90 11
3 12 77 90
3 83 97 76
3 83 79 97
3 96 84 78
3 79 84 96
3 96 89 70
3 80 89 96
3 91 97 70
3 91 82 97
3 98 88 71
3 85 88 98
3 87 98 71
3 87 86 98
3 99  8 75
3 99 69  2
3 99 93 69
3 99 75 93
3 95 76 82
3 93 67 80
3 78 93 80
3 93 78 69
3 67 88 72
3 67 94 88
3 77 87 71
3 77 92 87
3 92 68 87
3 101   9  10
3 9 101  75
3 101  67  75
3 94  67 101
3 76 95  7
3 11 94 10
3 90 94 11
3 94 101  10
3 94 90 71
3 71 88 94
3 13 102  92
3 102  13  14
3 102  68  92
3 87 68 86
CELL_TYPES 157
5 5 5 5 5 5 5 5 5 5 5 5 5 5 5 5 5 5 5 5 5 5 5 5 5 5 5 5 5 5 5 5 5 5 5 5 5 5 5 5 5 5 5 5 5 5 5 5 5 5 5 5 5 5 5 5 5 5 5 5 5 5 5 5 5 5 5 5 5 5 5 5 5 5 5 5 5 5 5 5 5 5 5 5 5 5 5 5 5 5 5 5 5 5 5 5 5 5 5 5 5 5 5 5 5 5 5 5 5 5 5 5 5 5 5 5 5 5 5 5 5 5 5 5 5 5 5 5 5 5 5 5 5 5 5 5 5 5 5 5 5 5 5 5 5 5 5 5 5 5 5 5 5 5 5 5 5 
POINT_DATA 103
VECTORS displacement_ITER1 FLOAT
 -8.825727e-04  1.026661e-03  0 
 -9.380342e-04  9.960622e-04  0 
 -8.038351e-04  1.037831e-03  0 
 -7.390504e-04  1.050104e-03  0 
 -6.881268e-04  1.066787e-03  0 
 -6.427595e-04  1.084262e-03  0 
 -5.951050e-04  1.093390e-03  0 
 -5.481079e-04  1.092885e-03  0 
 -8.960544e-04  9.826174e-04  0 
 -9.063571e-04  9.312869e-04  0 
 -9.176230e-04  8.671856e-04  0 
 -9.383510e-04  7.816651e-04  0 
 -9.541519e-04  7.028146e-04  0 
 -9.676601e-04  6.234740e-04  0 
 -9.739003e-04  5.368065e-04  0 
 -1.164848e-03  4.407337e-04  0 
 -1.075405e-03  4.405690e-04  0 
 -4.945631e-04  1.188581e-03  0 
 -6.857569e-04  1.119011e-03  0 
 -7.708911e-04  1.089330e-03  0 
 -4.300723e-04  1.602244e-03  0 
 1.200974e-05  1.503015e-03  0 
 -6.629993e-04  1.111568e-03  0 
 -5.816719e-04  1.163979e-03  0 
 -7.242447e-04  1.081279e-03  0 
 -2.221677e-04  1.306397e-03  0 
 -6.389058e-04  1.251661e-03  0 
 -4.575303e-04  1.409389e-03  0 
 -6.331372e-04  1.147776e-03  0 
 -6.029694e-04  1.169429e-03  0 
 -2.273803e-04  1.540246e-03  0 
 -6.124869e-04  1.133854e-03  0 
 -5.816401e-04  1.176706e-03  0 
 -6.084281e-04  1.116252e-03  0 
 -5.986486e-04  1.164881e-03  0 
 -7.125456e-04  1.123390e-03  0 
 -5.799451e-04  1.127956e-03  0 
 -6.473279e-04  1.147319e-03  0 
 -7.956158e-04  1.053707e-03  0 
 -1.233825e-03  6.325470e-04  0 
 -1.254024e-03  8.933630e-04  0 
 -1.038319e-03  5.723255e-04  0 
 -1.267066e-03  4.942768e-04  0 
 -1.111002e-03  5.952801e-04  0 
 -1.029775e-03  8.089743e-04  0 
 -1.296793e-03  9.828868e-04  0 
 -1.202106e-03  1.083178e-03  0 
 -1.121428e-03  5.081559e-04  0 
 -1.241194e-03  5.758320e-04  0 
 -1.143777e-03  7.422197e-04  0 
 -1.177361e-03  6.151873e-04  0 
 -1.185197e-03  9.449321e-04  0 
 -1.184569e-03  5.417104e-04  0 
 -1.196347e-03  4.886036e-04  0 
 -1.142595e-03  8.349520e-04  0 
 -1.191591e-03  6.757572e-04  0 
 -1.036523e-03  5.005439e-04  0 
 -1.059169e-03  8.930276e-04  0 
 -1.116535e-03  6.707113e-04  0 
 -1.375381e-03  9.123171e-04  0 
 -1.030545e-03  7.310288e-04  0 
 -9.661710e-04  9.502520e-04  0 
 -9.728613e-04  9.665614e-04  0 
 -9.693321e-04  8.955291e-04  0 
 -9.390674e-04  9.884825e-04  0 
 -1.270272e-03  7.950437e-04  0 
 -1.035238e-03  6.492864e-04  0 
 -7.865097e-04  9.286267e-04  0 
 -8.101527e-04  6.244858e-04  0 
 -7.646434e-04  1.019940e-03  0 
 -6.541823e-04  9.687454e-04  0 
 -8.109950e-04  7.967461e-04  0 
 -7.171413e-04  9.042385e-04  0 
 -6.862183e-04  7.820635e-04  0 
 -5.859798e-04  9.168773e-04  0 
 -8.396184e-04  9.583767e-04  0 
 -5.788402e-04  1.041571e-03  0 
 -8.573503e-04  7.357291e-04  0 
 -7.258620e-04  1.005492e-03  0 
 -6.506036e-04  1.027807e-03  0 
 -7.301582e-04  9.573530e-04  0 
 -6.565171e-04  8.985307e-04  0 
 -5.784915e-04  9.739552e-04  0 
 -6.183531e-04  1.051174e-03  0 
 -6.888306e-04  1.038030e-03  0 
 -6.993516e-04  8.484845e-04  0 
 -7.350421e-04  7.113174e-04  0 
 -8.053083e-04  7.253444e-04  0 
 -7.618324e-04  8.672902e-04  0 
 -6.899777e-04  9.447886e-04  0 
 -8.759963e-04  7.818138e-04  0 
 -6.214245e-04  9.509477e-04  0 
 -8.903420e-04  6.705222e-04  0 
 -7.783015e-04  9.837403e-04  0 
 -8.452816e-04  8.567657e-04  0 
 -5.259004e-04  1.025610e-03  0 
 -6.916847e-04  9.921672e-04  0 
 -6.169505e-04  1.003294e-03  0 
 -7.464183e-04  7.890348e-04  0 
 -8.235152e-04  1.004408e-03  0 
 -7.205112e-04  1.037457e-03  0 
 -8.560162e-04  9.099612e-04  0 
 -9.089916e-04  5.803740e-04  0 
VECTORS displacement_ITER2 FLOAT
 7.417739e-04  -1.046219e-04  0 
 8.247227e-04  -2.251079e-04  0 
 7.569535e-04  -7.582691e-05  0 
 7.718762e-04  -4.622425e-05  0 
 7.826308e-04  -7.259478e-06  0 
 7.830437e-04  2.645204e-05  0 
 8.025356e-04  3.302669e-05  0 
 8.151509e-04  1.719649e-05  0 
 7.125168e-04  -6.018982e-05  0 
 6.847012e-04  -3.766619e-05  0 
 6.583522e-04  -2.804852e-05  0 
 6.183350e-04  -3.995594e-05  0 
 5.830736e-04  -4.354724e-05  0 
 5.496555e-04  -5.005986e-05  0 
 5.246587e-04  -6.512423e-05  0 
 4.140584e-04  -1.142156e-04  0 
 4.506287e-04  -9.943541e-05  0 
 1.158896e-03  1.036084e-04  0 
 8.479206e-04  -4.369981e-05  0 
 8.233283e-04  -9.967066e-05  0 
 1.353011e-03  9.486395e-04  0 
 2.132514e-03  7.994816e-04  0 
 8.182138e-04  -4.001894e-06  0 
 7.840769e-04  4.591047e-05  0 
 8.045922e-04  -4.902071e-05  0 
 1.694758e-03  3.965250e-04  0 
 9.207609e-04  2.013147e-04  0 
 1.274382e-03  5.799400e-04  0 
 8.461380e-04  -9.943899e-06  0 
 8.758743e-04  -2.215486e-05  0 
 1.711193e-03  8.549130e-04  0 
 8.009296e-04  2.991649e-05  0 
 7.968929e-04  -1.466119e-05  0 
 9.179969e-04  -1.201282e-04  0 
 8.349414e-04  2.090298e-05  0 
 8.689839e-04  -8.038371e-05  0 
 7.915736e-04  1.902575e-05  0 
 8.865736e-04  -6.040588e-05  0 
 7.736744e-04  -9.242127e-05  0 
 4.359540e-04  -1.490403e-04  0 
 5.023626e-04  -7.500505e-05  0 
 5.003276e-04  -7.617776e-05  0 
 3.396535e-04  -2.094663e-04  0 
 4.790577e-04  -1.014534e-04  0 
 5.930175e-04  -7.813471e-05  0 
 4.803656e-04  -3.330293e-05  0 
 5.116918e-04  2.693811e-06  0 
 4.434788e-04  -1.030080e-04  0 
 4.118350e-04  -1.512331e-04  0 
 5.230573e-04  -1.148312e-04  0 
 4.570422e-04  -1.267864e-04  0 
 5.264058e-04  -5.518363e-05  0 
 4.281474e-04  -1.290728e-04  0 
 4.098544e-04  -1.182503e-04  0 
 5.481455e-04  -1.038142e-04  0 
 4.735906e-04  -1.318020e-04  0 
 4.832503e-04  -8.441535e-05  0 
 6.035996e-04  -7.796284e-05  0 
 5.056424e-04  -1.025822e-04  0 
 4.420959e-04  -6.524045e-05  0 
 5.628163e-04  -7.329170e-05  0 
 6.807564e-04  -7.120399e-05  0 
 8.082764e-04  -1.468675e-04  0 
 6.530971e-04  -5.170476e-05  0 
 7.185501e-04  -9.688334e-05  0 
 4.937143e-04  -1.310844e-04  0 
 5.299373e-04  -7.426719e-05  0 
 7.082579e-04  6.984431e-06  0 
 6.168909e-04  -2.203033e-07  0 
 7.479347e-04  -2.815148e-05  0 
 7.482829e-04  4.115758e-05  0 
 6.697144e-04  1.563928e-05  0 
 7.103400e-04  2.824600e-05  0 
 6.764605e-04  6.703382e-05  0 
 7.525559e-04  1.011368e-04  0 
 7.116087e-04  -2.356898e-05  0 
 8.147800e-04  5.492093e-05  0 
 6.300686e-04  -5.988400e-06  0 
 7.381339e-04  9.155266e-06  0 
 7.631072e-04  4.242307e-05  0 
 7.189409e-04  1.717517e-05  0 
 7.224764e-04  5.535150e-05  0 
 7.885510e-04  8.150354e-05  0 
 7.902170e-04  4.896024e-05  0 
 7.595776e-04  2.157761e-05  0 
 6.956370e-04  5.667386e-05  0 
 6.550435e-04  3.824330e-05  0 
 6.448160e-04  1.513671e-05  0 
 6.997122e-04  2.913104e-05  0 
 7.302384e-04  3.093320e-05  0 
 6.370882e-04  -1.234590e-05  0 
 7.616509e-04  6.113594e-05  0 
 5.974278e-04  -1.731328e-05  0 
 7.267696e-04  -1.149290e-05  0 
 6.725710e-04  5.129943e-06  0 
 7.890909e-04  8.658850e-05  0 
 7.414151e-04  2.965176e-05  0 
 7.855948e-04  5.238939e-05  0 
 6.767988e-04  4.385204e-05  0 
 7.330992e-04  -4.775470e-05  0 
 7.584612e-04  -8.235701e-06  0 
 6.901678e-04  -1.541545e-05  0 
 5.650018e-04  -3.921784e-05  0 
VECTORS displacement_ITER3 FLOAT
 7.842195e-04  -2.837693e-04  0 
 6.488030e-04  -2.367157e-04  0 
 8.548384e-04  -2.588024e-04  0 
 8.420645e-04  -2.353957e-04  0 
 7.997109e-04  -2.195583e-04  0 
 7.244096e-04  -1.912834e-04  0 
 6.497244e-04  -1.907668e-04  0 
 5.322299e-04  -2.043833e-04  0 
 7.397976e-04  -2.792202e-04  0 
 7.063094e-04  -2.378531e-04  0 
 6.614679e-04  -1.679058e-04  0 
 5.922885e-04  -1.200523e-04  0 
 5.244186e-04  -2.521673e-05  0 
 4.721828e-04  9.657164e-05  0 
 4.695257e-04  2.492185e-04  0 
 6.240909e-04  5.034134e-04  0 
 5.380904e-04  4.637235e-04  0 
 1.236467e-03  -3.825798e-04  0 
 8.757206e-04  -3.839958e-04  0 
 8.901229e-04  -4.023809e-04  0 
 1.425896e-03  7.967753e-04  0 
 2.609120e-03  5.000241e-04  0 
 8.212616e-04  -2.987644e-04  0 
 5.921925e-04  -3.506906e-04  0 
 8.573256e-04  -3.164785e-04  0 
 2.041791e-03  -2.479794e-05  0 
 7.992594e-04  -1.747932e-04  0 
 1.343144e-03  2.988427e-04  0 
 8.158036e-04  -4.005009e-04  0 
 8.017973e-04  -5.291866e-04  0 
 1.992017e-03  6.473196e-04  0 
 6.982303e-04  -2.848027e-04  0 
 5.953184e-04  -5.353374e-04  0 
 8.615791e-04  -6.965346e-04  0 
 7.170134e-04  -3.967020e-04  0 
 9.042246e-04  -4.670634e-04  0 
 5.983033e-04  -2.843916e-04  0 
 8.782168e-04  -5.169541e-04  0 
 8.722662e-04  -3.109698e-04  0 
 7.910926e-04  2.373338e-05  0 
 3.932083e-04  -1.063802e-04  0 
 4.809170e-04  1.783392e-04  0 
 9.033321e-04  3.846009e-04  0 
 5.372215e-04  9.854225e-05  0 
 5.974907e-04  -2.217978e-04  0 
 3.291725e-04  -9.158575e-05  0 
 3.366000e-04  -2.583814e-04  0 
 5.542102e-04  3.491334e-04  0 
 8.288705e-04  1.493669e-04  0 
 5.847485e-04  -2.072304e-04  0 
 6.635305e-04  4.095234e-05  0 
 4.345260e-04  -1.346946e-04  0 
 6.802878e-04  2.444817e-04  0 
 6.894482e-04  3.847634e-04  0 
 5.560652e-04  -2.000828e-04  0 
 6.748191e-04  -8.533519e-05  0 
 5.013639e-04  3.496864e-04  0 
 5.568569e-04  -2.566247e-04  0 
 5.544758e-04  -8.588777e-05  0 
 2.744049e-04  -6.556798e-05  0 
 5.521717e-04  -1.337195e-04  0 
 6.883924e-04  -2.823616e-04  0 
 6.065001e-04  -3.077093e-04  0 
 6.734842e-04  -2.350897e-04  0 
 7.202243e-04  -3.095110e-04  0 
 3.985860e-04  -1.888882e-04  0 
 5.017437e-04  8.582634e-07  0 
 7.195844e-04  -1.194392e-04  0 
 4.592008e-04  1.840155e-04  0 
 8.272015e-04  -2.036806e-04  0 
 6.555435e-04  -5.538192e-09  0 
 5.944166e-04  2.141947e-05  0 
 6.539850e-04  3.667455e-06  0 
 5.257455e-04  1.777731e-04  0 
 5.159653e-04  1.756928e-04  0 
 7.603507e-04  -2.209888e-04  0 
 6.133425e-04  -6.830219e-05  0 
 5.395611e-04  4.515817e-05  0 
 7.756467e-04  -1.304099e-04  0 
 6.950531e-04  -8.069859e-05  0 
 7.223935e-04  -7.230265e-05  0 
 5.947515e-04  8.658453e-05  0 
 5.711336e-04  7.311034e-05  0 
 6.746757e-04  -1.017692e-04  0 
 7.607308e-04  -1.367248e-04  0 
 5.822777e-04  1.113847e-04  0 
 4.970073e-04  1.869735e-04  0 
 5.233985e-04  1.153905e-04  0 
 6.416773e-04  5.564591e-06  0 
 6.722920e-04  -8.348410e-06  0 
 5.898212e-04  -4.694825e-05  0 
 6.132535e-04  6.001548e-05  0 
 4.853715e-04  9.053088e-05  0 
 7.882825e-04  -1.728129e-04  0 
 6.582152e-04  -8.105365e-05  0 
 4.360790e-04  1.667343e-06  0 
 7.193722e-04  -6.692866e-05  0 
 6.530555e-04  -1.533340e-05  0 
 5.556654e-04  1.126143e-04  0 
 8.186324e-04  -2.405081e-04  0 
 8.087194e-04  -1.834413e-04  0 
 7.097485e-04  -1.704495e-04  0 
 4.467514e-04  1.796190e-04  0 
VECTORS displacement_ITER4 FLOAT
 1.667267e-03  4.419255e-04  0 
 1.569596e-03  3.597543e-04  0 
 1.915884e-03  4.503743e-04  0 
 2.028460e-03  4.627335e-04  0 
 2.047699e-03  4.850912e-04  0 
 2.053066e-03  5.197181e-04  0 
 2.082591e-03  5.142160e-04  0 
 2.024476e-03  5.050801e-04  0 
 1.630925e-03  3.167914e-04  0 
 1.596762e-03  2.684482e-04  0 
 1.551307e-03  1.428965e-04  0 
 1.424873e-03  -4.011001e-05  0 
 1.263344e-03  -1.380480e-04  0 
 1.102185e-03  -2.665894e-04  0 
 1.010544e-03  -4.179350e-04  0 
 6.989612e-04  -3.526178e-04  0 
 8.049632e-04  -4.105160e-04  0 
 1.961267e-03  3.092557e-04  0 
 2.131616e-03  5.120565e-04  0 
 1.969269e-03  4.625572e-04  0 
 2.147470e-03  -2.455292e-03  0 
 -5.312038e-04  -1.362865e-03  0 
 2.093932e-03  5.362372e-04  0 
 2.041079e-03  5.675840e-04  0 
 2.056244e-03  4.705211e-04  0 
 8.594071e-04  -1.307149e-04  0 
 2.560317e-03  -2.547895e-04  0 
 2.037631e-03  -8.872132e-04  0 
 2.125435e-03  5.641103e-04  0 
 2.118412e-03  5.376605e-04  0 
 9.362096e-04  -1.638945e-03  0 
 2.067926e-03  5.692719e-04  0 
 2.064999e-03  5.721258e-04  0 
 2.205894e-03  4.953446e-04  0 
 2.073243e-03  5.648731e-04  0 
 2.084865e-03  4.977904e-04  0 
 2.062050e-03  5.344694e-04  0 
 2.200113e-03  5.139068e-04  0 
 1.930451e-03  4.407604e-04  0 
 6.960424e-04  -6.114945e-04  0 
 6.646236e-04  6.241995e-05  0 
 8.821401e-04  -4.135782e-04  0 
 6.798194e-04  -4.346666e-04  0 
 7.935355e-04  -4.914797e-04  0 
 1.277872e-03  -7.049167e-05  0 
 5.735837e-04  3.092504e-04  0 
 1.181331e-03  1.298737e-03  0 
 7.120945e-04  -4.442032e-04  0 
 6.727153e-04  -6.317392e-04  0 
 9.575917e-04  -3.203992e-04  0 
 7.368829e-04  -5.936757e-04  0 
 9.608451e-04  2.631806e-04  0 
 6.519517e-04  -5.253761e-04  0 
 6.538025e-04  -3.979479e-04  0 
 1.029379e-03  -6.306699e-05  0 
 7.723667e-04  -5.229843e-04  0 
 8.774469e-04  -4.361700e-04  0 
 1.275435e-03  1.488401e-04  0 
 9.214963e-04  -4.516427e-04  0 
 3.018524e-04  7.043608e-05  0 
 1.178775e-03  -2.368958e-04  0 
 1.509618e-03  2.734460e-04  0 
 1.584923e-03  3.085654e-04  0 
 1.469062e-03  1.862477e-04  0 
 1.541793e-03  3.377286e-04  0 
 5.712384e-04  -2.309910e-04  0 
 1.007418e-03  -3.410768e-04  0 
 1.874277e-03  3.122193e-04  0 
 1.562091e-03  -8.285535e-05  0 
 1.982726e-03  4.261267e-04  0 
 2.025769e-03  4.649890e-04  0 
 1.710309e-03  1.933087e-04  0 
 1.925367e-03  3.689169e-04  0 
 1.864029e-03  3.013494e-04  0 
 1.999449e-03  5.144376e-04  0 
 1.790977e-03  3.175311e-04  0 
 2.065010e-03  4.898296e-04  0 
 1.522299e-03  5.005164e-05  0 
 1.995735e-03  4.546966e-04  0 
 2.050137e-03  4.785947e-04  0 
 1.961331e-03  3.950676e-04  0 
 1.974077e-03  4.256272e-04  0 
 2.036548e-03  5.149764e-04  0 
 2.071479e-03  4.879510e-04  0 
 2.023622e-03  4.880567e-04  0 
 1.892784e-03  3.520224e-04  0 
 1.758250e-03  1.437231e-04  0 
 1.647418e-03  1.030726e-04  0 
 1.843185e-03  3.008139e-04  0 
 1.982729e-03  4.231701e-04  0 
 1.545328e-03  6.927676e-05  0 
 2.030273e-03  4.844437e-04  0 
 1.365523e-03  -6.940625e-05  0 
 1.932301e-03  3.951985e-04  0 
 1.711878e-03  2.004122e-04  0 
 1.939154e-03  5.150976e-04  0 
 2.015265e-03  4.535436e-04  0 
 2.061935e-03  4.877690e-04  0 
 1.798847e-03  2.578880e-04  0 
 1.864018e-03  3.792231e-04  0 
 2.024675e-03  4.656891e-04  0 
 1.732976e-03  2.434980e-04  0 
 1.219538e-03  -2.841024e-04  0 
VECTORS displacement_ITER5 FLOAT
 1.497598e-03  -7.023759e-05  0 
 1.347516e-03  9.252821e-06  0 
 1.603909e-03  -8.016029e-05  0 
 1.647511e-03  -8.610732e-05  0 
 1.682280e-03  -8.124998e-05  0 
 1.679967e-03  -4.727053e-05  0 
 1.718599e-03  -3.433557e-05  0 
 1.731960e-03  -3.775756e-05  0 
 1.488285e-03  -2.110562e-04  0 
 1.465155e-03  -2.290488e-04  0 
 1.424795e-03  -2.351056e-04  0 
 1.376677e-03  -2.026607e-04  0 
 1.330478e-03  -1.439681e-04  0 
 1.298256e-03  -6.876978e-05  0 
 1.279383e-03  4.513881e-06  0 
 1.189854e-03  1.428944e-04  0 
 1.245233e-03  1.443345e-04  0 
 1.816033e-03  1.036248e-04  0 
 1.713507e-03  -7.273513e-06  0 
 1.616639e-03  -5.201296e-05  0 
 1.890633e-03  3.287885e-04  0 
 2.233480e-03  2.654825e-04  0 
 1.725462e-03  -2.276008e-05  0 
 1.723057e-03  7.409543e-05  0 
 1.657655e-03  -6.903627e-05  0 
 2.111136e-03  1.660972e-04  0 
 1.776670e-03  1.320847e-04  0 
 1.858873e-03  2.334354e-04  0 
 1.772871e-03  3.479169e-05  0 
 1.797761e-03  6.718633e-05  0 
 2.094338e-03  3.094954e-04  0 
 1.717439e-03  2.865663e-05  0 
 1.767565e-03  1.050138e-04  0 
 1.785106e-03  9.129894e-05  0 
 1.753491e-03  6.395038e-05  0 
 1.691431e-03  1.897631e-05  0 
 1.725069e-03  8.912196e-06  0 
 1.763935e-03  6.041954e-05  0 
 1.605642e-03  -7.734055e-05  0 
 1.207976e-03  -1.959440e-04  0 
 1.301392e-03  -3.283722e-04  0 
 1.250431e-03  -3.940607e-05  0 
 1.241223e-03  1.107078e-04  0 
 1.233191e-03  -9.368093e-05  0 
 1.351455e-03  -2.713564e-04  0 
 1.327925e-03  -3.590683e-04  0 
 1.371001e-03  -3.712876e-04  0 
 1.222085e-03  4.256296e-05  0 
 1.200835e-03  -1.121162e-04  0 
 1.283906e-03  -2.776302e-04  0 
 1.209895e-03  -1.552646e-04  0 
 1.329498e-03  -3.214306e-04  0 
 1.189147e-03  -2.771408e-05  0 
 1.175374e-03  5.968462e-05  0 
 1.305990e-03  -3.033968e-04  0 
 1.226788e-03  -2.340512e-04  0 
 1.253333e-03  5.168595e-05  0 
 1.364767e-03  -2.894089e-04  0 
 1.264091e-03  -1.914752e-04  0 
 1.313093e-03  -3.547084e-04  0 
 1.314284e-03  -2.147505e-04  0 
 1.446860e-03  -2.367972e-04  0 
 1.370110e-03  -1.377163e-04  0 
 1.413580e-03  -2.624955e-04  0 
 1.439394e-03  -1.642594e-04  0 
 1.282526e-03  -3.097992e-04  0 
 1.276383e-03  -1.265709e-04  0 
 1.543864e-03  -1.750705e-04  0 
 1.389944e-03  -1.985651e-05  0 
 1.629703e-03  -1.390808e-04  0 
 1.626056e-03  -7.698282e-05  0 
 1.468813e-03  -1.222499e-04  0 
 1.551740e-03  -1.317223e-04  0 
 1.469917e-03  -2.270261e-05  0 
 1.648890e-03  -2.909710e-05  0 
 1.537156e-03  -2.061615e-04  0 
 1.715889e-03  -5.289153e-05  0 
 1.411684e-03  -1.083266e-04  0 
 1.625947e-03  -1.139701e-04  0 
 1.652210e-03  -7.600512e-05  0 
 1.586577e-03  -1.250324e-04  0 
 1.582538e-03  -7.041718e-05  0 
 1.683058e-03  -3.281610e-05  0 
 1.689095e-03  -5.778731e-05  0 
 1.652916e-03  -8.816478e-05  0 
 1.511099e-03  -7.633441e-05  0 
 1.436294e-03  -2.076410e-05  0 
 1.431505e-03  -6.651028e-05  0 
 1.521924e-03  -1.376978e-04  0 
 1.603141e-03  -9.702907e-05  0 
 1.419077e-03  -1.594225e-04  0 
 1.640221e-03  -5.313952e-05  0 
 1.363797e-03  -7.827187e-05  0 
 1.594869e-03  -1.572812e-04  0 
 1.473721e-03  -1.805048e-04  0 
 1.681912e-03  -2.572243e-05  0 
 1.629534e-03  -9.323143e-05  0 
 1.673457e-03  -6.198441e-05  0 
 1.477076e-03  -6.826793e-05  0 
 1.584242e-03  -1.688015e-04  0 
 1.654177e-03  -1.134466e-04  0 
 1.500770e-03  -2.086949e-04  0 
 1.332144e-03  -1.873722e-05  0 
VECTORS displacement_ITER6 FLOAT
 1.721517e-03  -2.488309e-06  0 
 1.680233e-03  -5.940091e-05  0 
 1.814181e-03  -3.647407e-05  0 
 1.843536e-03  -6.490502e-05  0 
 1.860761e-03  -7.256898e-05  0 
 1.853427e-03  -5.075245e-05  0 
 1.887776e-03  -3.811239e-05  0 
 1.893537e-03  -3.084037e-05  0 
 1.714988e-03  -8.201674e-05  0 
 1.725610e-03  -4.911283e-05  0 
 1.725063e-03  -4.650220e-05  0 
 1.701857e-03  -6.585982e-05  0 
 1.688726e-03  -5.797509e-05  0 
 1.684543e-03  -3.791815e-05  0 
 1.672689e-03  -5.370028e-05  0 
 1.356453e-03  -1.382842e-04  0 
 1.539073e-03  -1.033884e-04  0 
 2.037744e-03  -1.685338e-05  0 
 1.893057e-03  -1.107333e-04  0 
 1.811383e-03  -1.374644e-04  0 
 2.044758e-03  2.170042e-05  0 
 1.961591e-03  -9.038191e-05  0 
 1.893864e-03  -7.503695e-05  0 
 1.910904e-03  6.167436e-06  0 
 1.845558e-03  -9.986238e-05  0 
 2.152864e-03  1.381962e-05  0 
 2.062815e-03  -7.381078e-05  0 
 2.106496e-03  -2.607667e-05  0 
 1.943444e-03  -7.822984e-05  0 
 2.000162e-03  -2.537933e-05  0 
 2.145539e-03  -7.061993e-05  0 
 1.891090e-03  -3.104911e-05  0 
 2.006697e-03  4.338070e-05  0 
 2.002729e-03  -3.344772e-05  0 
 1.951110e-03  -3.285774e-05  0 
 1.871856e-03  -9.911142e-05  0 
 1.900471e-03  -3.558474e-05  0 
 1.943089e-03  -6.830637e-05  0 
 1.805132e-03  -8.085566e-05  0 
 1.257596e-03  -4.603312e-05  0 
 1.207484e-03  1.019692e-05  0 
 1.597384e-03  -4.790057e-05  0 
 1.189405e-03  -9.355676e-05  0 
 1.487472e-03  -4.793624e-05  0 
 1.582682e-03  -7.425364e-05  0 
 1.196753e-03  5.856368e-06  0 
 1.368223e-03  7.608840e-05  0 
 1.475748e-03  -6.616328e-05  0 
 1.246359e-03  -5.999676e-05  0 
 1.409967e-03  -7.858212e-05  0 
 1.372500e-03  -4.691905e-05  0 
 1.317365e-03  3.291400e-05  0 
 1.360967e-03  -6.245500e-05  0 
 1.309295e-03  -1.169257e-04  0 
 1.396566e-03  -6.169900e-05  0 
 1.340699e-03  -4.372319e-05  0 
 1.595926e-03  -6.677084e-05  0 
 1.529302e-03  -4.530865e-05  0 
 1.470156e-03  -4.622425e-05  0 
 1.152200e-03  1.171620e-05  0 
 1.589923e-03  -6.639858e-05  0 
 1.657051e-03  -4.996434e-05  0 
 1.744191e-03  -4.959354e-05  0 
 1.658979e-03  -4.411294e-05  0 
 1.647036e-03  -5.612986e-05  0 
 1.189479e-03  -6.304652e-05  0 
 1.599474e-03  -4.227895e-05  0 
 1.818974e-03  -7.050602e-05  0 
 1.808383e-03  -5.146755e-05  0 
 1.844605e-03  -7.283183e-05  0 
 1.842953e-03  -6.774421e-05  0 
 1.819962e-03  -4.659812e-05  0 
 1.827416e-03  -7.651654e-05  0 
 1.811878e-03  -4.574842e-05  0 
 1.845628e-03  -7.031565e-05  0 
 1.786076e-03  -7.488254e-05  0 
 1.873892e-03  -6.590762e-05  0 
 1.780284e-03  -4.557503e-05  0 
 1.840552e-03  -5.993697e-05  0 
 1.844478e-03  -7.392446e-05  0 
 1.834367e-03  -6.078369e-05  0 
 1.834780e-03  -7.034671e-05  0 
 1.852711e-03  -7.060235e-05  0 
 1.860847e-03  -6.779005e-05  0 
 1.840111e-03  -6.752708e-05  0 
 1.820628e-03  -5.544975e-05  0 
 1.816770e-03  -3.806743e-05  0 
 1.816984e-03  -3.755147e-05  0 
 1.829822e-03  -5.519523e-05  0 
 1.839212e-03  -6.585585e-05  0 
 1.767783e-03  -5.906153e-05  0 
 1.845661e-03  -6.842011e-05  0 
 1.748441e-03  -4.866165e-05  0 
 1.836655e-03  -5.876399e-05  0 
 1.801409e-03  -4.142978e-05  0 
 1.859170e-03  -5.678409e-05  0 
 1.840932e-03  -6.377644e-05  0 
 1.851693e-03  -7.555165e-05  0 
 1.823348e-03  -4.542162e-05  0 
 1.814307e-03  -6.599005e-05  0 
 1.849555e-03  -7.793600e-05  0 
 1.786439e-03  -5.334080e-05  0 
 1.741051e-03  -4.142543e-05  0 
VECTORS displacement_ITER7 FLOAT
 1.731928e-03  1.802748e-05  0 
 1.628040e-03  -2.286544e-05  0 
 1.832686e-03  -3.535274e-06  0 
 1.870389e-03  -2.193762e-05  0 
 1.895810e-03  -1.982790e-05  0 
 1.901603e-03  2.594942e-06  0 
 1.901356e-03  2.260180e-05  0 
 1.869211e-03  3.891764e-05  0 
 1.708467e-03  -6.043035e-05  0 
 1.703771e-03  -3.900916e-05  0 
 1.692566e-03  -2.628593e-05  0 
 1.664693e-03  -5.092727e-05  0 
 1.640651e-03  -3.876305e-05  0 
 1.616829e-03  -2.706091e-05  0 
 1.593961e-03  -3.043708e-05  0 
 1.311365e-03  -6.773603e-05  0 
 1.465202e-03  -4.897246e-05  0 
 1.962689e-03  2.730014e-05  0 
 1.927693e-03  -5.254113e-05  0 
 1.848577e-03  -8.005835e-05  0 
 2.024036e-03  1.769612e-05  0 
 1.908963e-03  2.179892e-05  0 
 1.930419e-03  -2.544681e-05  0 
 1.922753e-03  4.796828e-06  0 
 1.880988e-03  -4.966412e-05  0 
 1.983696e-03  3.628150e-05  0 
 2.047232e-03  -4.089251e-05  0 
 2.021322e-03  -2.324667e-05  0 
 1.967242e-03  -3.499905e-05  0 
 1.992615e-03  9.962880e-06  0 
 2.037576e-03  -9.509756e-06  0 
 1.932427e-03  1.926461e-06  0 
 1.989580e-03  3.082649e-05  0 
 1.983477e-03  4.586097e-05  0 
 1.966661e-03  -1.713075e-05  0 
 1.906911e-03  -2.314789e-05  0 
 1.907793e-03  8.452724e-06  0 
 1.957384e-03  -8.066322e-07  0 
 1.830499e-03  -4.472969e-05  0 
 1.191554e-03  -5.113747e-05  0 
 1.107677e-03  3.352158e-05  0 
 1.522360e-03  -3.830572e-05  0 
 1.121760e-03  -7.988323e-05  0 
 1.415470e-03  -4.896097e-05  0 
 1.531712e-03  -5.807094e-05  0 
 1.061905e-03  4.921293e-05  0 
 1.199053e-03  -4.760588e-05  0 
 1.404904e-03  -3.687190e-05  0 
 1.187455e-03  -6.015553e-05  0 
 1.340976e-03  -6.500351e-05  0 
 1.310713e-03  -5.679859e-05  0 
 1.231421e-03  4.412373e-05  0 
 1.299163e-03  -4.693704e-05  0 
 1.262041e-03  -6.230497e-05  0 
 1.320614e-03  -3.682490e-05  0 
 1.273507e-03  -4.850577e-05  0 
 1.519649e-03  -3.261444e-05  0 
 1.462227e-03  -3.626332e-05  0 
 1.405321e-03  -5.732014e-05  0 
 9.485169e-04  4.681700e-05  0 
 1.540732e-03  -5.772762e-05  0 
 1.616882e-03  -4.607848e-05  0 
 1.646497e-03  -4.378653e-05  0 
 1.620270e-03  -3.481279e-05  0 
 1.627817e-03  -4.456753e-05  0 
 1.080100e-03  -3.750823e-05  0 
 1.532991e-03  -4.298540e-05  0 
 1.818702e-03  -3.134683e-05  0 
 1.748046e-03  -9.783937e-08  0 
 1.863618e-03  -2.940057e-05  0 
 1.863452e-03  -1.033963e-06  0 
 1.784060e-03  -1.122886e-05  0 
 1.836787e-03  -1.431314e-05  0 
 1.812043e-03  1.475030e-05  0 
 1.817073e-03  2.023436e-05  0 
 1.780335e-03  -4.897422e-05  0 
 1.865662e-03  1.237589e-05  0 
 1.733820e-03  -1.206477e-05  0 
 1.865824e-03  -1.509249e-05  0 
 1.876584e-03  -1.257337e-05  0 
 1.852904e-03  -6.976849e-06  0 
 1.850319e-03  1.967805e-06  0 
 1.834038e-03  4.349059e-06  0 
 1.881904e-03  4.389978e-07  0 
 1.876318e-03  -1.897816e-05  0 
 1.824332e-03  6.321352e-06  0 
 1.789608e-03  1.886421e-05  0 
 1.771931e-03  4.403041e-06  0 
 1.817438e-03  -7.526737e-06  0 
 1.857528e-03  -8.681083e-07  0 
 1.729835e-03  -3.436456e-05  0 
 1.851063e-03  1.951990e-06  0 
 1.691948e-03  -1.601371e-05  0 
 1.850121e-03  -1.946086e-05  0 
 1.773693e-03  -1.697266e-05  0 
 1.816482e-03  2.991938e-05  0 
 1.866989e-03  -8.322948e-06  0 
 1.860456e-03  -4.217295e-06  0 
 1.803157e-03  3.957122e-06  0 
 1.822134e-03  -3.033288e-05  0 
 1.876278e-03  -3.007457e-05  0 
 1.763986e-03  -2.980062e-05  0 
 1.661682e-03  -1.539201e-05  0 
VECTORS displacement_ITER8 FLOAT
 1.672193e-03  -9.237405e-06  0 
 1.502099e-03  4.388578e-06  0 
 1.785688e-03  -1.804315e-05  0 
 1.843194e-03  -2.519368e-05  0 
 1.880117e-03  -8.769739e-06  0 
 1.892381e-03  1.240381e-05  0 
 1.890538e-03  1.885841e-05  0 
 1.853559e-03  2.305879e-05  0 
 1.648549e-03  -6.712066e-05  0 
 1.643360e-03  -4.075856e-05  0 
 1.638770e-03  -2.888059e-05  0 
 1.636059e-03  -2.711614e-05  0 
 1.628388e-03  -1.359756e-05  0 
 1.609870e-03  3.765693e-07  0 
 1.591532e-03  -9.313124e-07  0 
 1.365617e-03  2.620921e-05  0 
 1.478741e-03  1.898034e-05  0 
 1.933799e-03  -3.987194e-05  0 
 1.914644e-03  -2.165705e-05  0 
 1.831849e-03  -5.002512e-05  0 
 1.989126e-03  6.262153e-05  0 
 1.983451e-03  3.134486e-05  0 
 1.914106e-03  2.889236e-06  0 
 1.892180e-03  1.527182e-06  0 
 1.866612e-03  -2.358063e-05  0 
 1.980897e-03  -1.906199e-05  0 
 1.986848e-03  -8.089463e-05  0 
 1.983483e-03  -4.586510e-05  0 
 1.935997e-03  -1.901406e-05  0 
 1.949490e-03  -1.040707e-05  0 
 2.038162e-03  7.152901e-06  0 
 1.908771e-03  1.394840e-05  0 
 1.933403e-03  -4.831959e-06  0 
 1.950197e-03  -1.150260e-05  0 
 1.929613e-03  -1.430075e-05  0 