# vtk DataFile Version 3.1
this is an vtk file created by FEMAC
ASCII
DATASET UNSTRUCTURED_GRID
POINTS 98 FLOAT
6.000000 1.000000 0.000000
6.000000 2.000000 0.000000
5.875000 1.000000 0.000000
6.000000 0.875000 0.000000
5.250000 2.000000 0.000000
5.375000 2.000000 0.000000
5.500000 2.000000 0.000000
5.625000 2.000000 0.000000
5.750000 2.000000 0.000000
5.875000 2.000000 0.000000
6.000000 1.125000 0.000000
6.000000 1.250000 0.000000
6.000000 1.375000 0.000000
6.000000 1.500000 0.000000
6.000000 1.625000 0.000000
6.000000 1.750000 0.000000
6.000000 1.875000 0.000000
6.000000 2.125000 0.000000
6.000000 2.250000 0.000000
6.125000 1.000000 0.000000
6.125000 2.000000 0.000000
6.250000 2.000000 0.000000
5.922907 0.918710 0.000000
5.486564 1.511182 0.000000
5.277474 1.769128 0.000000
5.758361 1.744693 0.000000
5.769929 1.236470 0.000000
5.785333 1.509690 0.000000
5.497380 1.801938 0.000000
5.574773 1.565758 0.000000
5.572908 1.902040 0.000000
5.561985 1.442247 0.000000
5.347256 1.666166 0.000000
5.450450 1.905018 0.000000
5.896633 1.564296 0.000000
5.179815 1.916884 0.000000
5.714422 1.884036 0.000000
5.870927 1.830063 0.000000
5.779565 1.623866 0.000000
5.372164 1.507077 0.000000
5.459413 1.605824 0.000000
5.241160 1.675191 0.000000
5.651020 1.670426 0.000000
5.462230 1.413370 0.000000
5.675285 1.475309 0.000000
5.663072 1.351543 0.000000
5.886017 1.311458 0.000000
5.146523 1.805296 0.000000
5.895389 1.432582 0.000000
5.626955 1.783241 0.000000
5.677712 1.573834 0.000000
5.885662 1.688848 0.000000
5.540689 1.685669 0.000000
5.777722 1.381824 0.000000
5.268538 1.869573 0.000000
5.380501 1.805134 0.000000
5.444936 1.715403 0.000000
5.344898 1.915945 0.000000
5.819229 1.097408 0.000000
5.902112 1.180473 0.000000
5.829570 1.930320 0.000000
5.919268 1.080576 0.000000
5.915099 1.927077 0.000000
5.683415 2.234291 0.000000
5.833550 2.221662 0.000000
5.395519 2.105305 0.000000
5.550386 2.131041 0.000000
5.718545 2.111060 0.000000
5.886947 2.372767 0.000000
5.428688 2.204665 0.000000
5.530006 2.296903 0.000000
5.819749 2.099956 0.000000
5.905660 2.139324 0.000000
6.081137 0.919923 0.000000
6.234331 1.770047 0.000000
6.246744 1.226310 0.000000
6.113309 1.850135 0.000000
6.240911 1.500490 0.000000
6.324121 1.714796 0.000000
6.340094 1.853301 0.000000
6.128038 1.708667 0.000000
6.135634 1.292108 0.000000
6.243295 1.909732 0.000000
6.118583 1.148751 0.000000
6.104461 1.499951 0.000000
6.287334 1.601697 0.000000
6.165175 1.602355 0.000000
6.168331 1.398732 0.000000
6.227800 1.679512 0.000000
6.233858 1.323813 0.000000
6.059577 1.931284 0.000000
6.060896 1.068438 0.000000
6.191857 2.189413 0.000000
6.301012 2.098363 0.000000
6.101459 2.282053 0.000000
6.071469 2.071351 0.000000
6.085368 2.167074 0.000000
6.170784 2.087700 0.000000
CELLS 157 628 
3 2 22  0
3 22  3  0
3 6 30  7
3 33  6  5
3 25 37 36
3 31 29 23
3 33 30  6
3 28 30 33
3 7 36  8
3 36  7 30
3 34 13 14
3 16 37 15
3 38 27 34
3 29 40 23
3 41 32 24
3 25 42 38
3 43 31 23
3 31 44 29
3 13 48 12
3 49 25 36
3 30 49 36
3 50 27 38
3 50 29 44
3 27 50 44
3 15 51 14
3 51 34 14
3 52 29 42
3 29 52 40
3 39 43 23
3 40 39 23
3 32 39 40
3 12 46 11
3 50 42 29
3 38 42 50
3 45 44 31
3 25 49 42
3 28 49 30
3 52 49 28
3 42 49 52
3 24 47 41
3 37 51 15
3 54  4 35
3 24 55 54
3 40 56 32
3 56 40 52
3 54 47 24
3 35 47 54
3 52 28 56
3 12 48 46
3 48 53 46
3 34 48 13
3 48 34 27
3 27 53 48
3 55 28 33
3 56 28 55
3 55 24 32
3 56 55 32
3 25 51 37
3 51 25 38
3 34 51 38
3 5 57 33
3 55 57 54
3 57 55 33
3 4 57  5
3 4 54 57
3 27 44 53
3 53 44 45
3 45 26 53
3 53 26 46
3 58 59 26
3 59 46 26
3 10 11 59
3 11 46 59
3 60  8 36
3 37 60 36
3 61  2  0
3 61 10 59
3 10 61  0
3 61 58  2
3 59 58 61
3 60  9  8
3 62 16  1
3 16 62 37
3 9 62  1
3 60 62  9
3 60 37 62
3 6 65  5
3 66  6  7
3 63 67 64
3 68 64 18
3 66 65  6
3 67  7  8
3 7 67 66
3 67 63 66
3 63 70 66
3 71 64 67
3 71  8  9
3 67  8 71
3 69 65 66
3 70 69 66
3 72 17 18
3 72 64 71
3 64 72 18
3 71  9 72
3 1 72  9
3 1 17 72
3 3 73  0
3 73 19  0
3 76 16 15
3 80 74 76
3 74 82 76
3 81 83 75
3 78 79 74
3 82 20 76
3 76 15 80
3 11 81 12
3 80 15 14
3 82 21 20
3 82 74 79
3 10 83 11
3 11 83 81
3 77 86 84
3 86 77 85
3 87 77 84
3 88 78 74
3 80 88 74
3 78 88 85
3 89 81 75
3 89 87 81
3 86 88 80
3 86 85 88
3 14 13 84
3 14 86 80
3 14 84 86
3 13 12 84
3 87 12 81
3 84 12 87
3 16 90  1
3 20 90 76
3 90 20  1
3 90 16 76
3 91 10  0
3 91 19 83
3 19 91  0
3 10 91 83
3 20 95  1
3 95 17  1
3 96 17 95
3 92 97 93
3 20 97 95
3 21 97 20
3 21 93 97
3 96 97 92
3 96 95 97
3 96 18 17
3 18 96 94
3 96 92 94
CELL_TYPES 157
5 5 5 5 5 5 5 5 5 5 5 5 5 5 5 5 5 5 5 5 5 5 5 5 5 5 5 5 5 5 5 5 5 5 5 5 5 5 5 5 5 5 5 5 5 5 5 5 5 5 5 5 5 5 5 5 5 5 5 5 5 5 5 5 5 5 5 5 5 5 5 5 5 5 5 5 5 5 5 5 5 5 5 5 5 5 5 5 5 5 5 5 5 5 5 5 5 5 5 5 5 5 5 5 5 5 5 5 5 5 5 5 5 5 5 5 5 5 5 5 5 5 5 5 5 5 5 5 5 5 5 5 5 5 5 5 5 5 5 5 5 5 5 5 5 5 5 5 5 5 5 5 5 5 5 5 5 
POINT_DATA 98
VECTORS displacement_ITER1 FLOAT
 -3.718694e-04  1.794758e-04  0 
 6.837088e-05  1.952295e-04  0 
 -3.696803e-04  2.352719e-04  0 
 -4.253535e-04  1.803966e-04  0 
 6.238100e-05  5.090552e-04  0 
 6.410012e-05  4.605759e-04  0 
 6.580731e-05  4.109401e-04  0 
 6.698241e-05  3.602706e-04  0 
 6.736937e-05  3.062208e-04  0 
 6.810192e-05  2.512878e-04  0 
 -3.129050e-04  1.810831e-04  0 
 -2.554819e-04  1.840462e-04  0 
 -1.991082e-04  1.865081e-04  0 
 -1.441343e-04  1.898765e-04  0 
 -9.029985e-05  1.931988e-04  0 
 -3.780575e-05  1.950514e-04  0 
 1.492664e-05  1.951965e-04  0 
 1.227780e-04  1.940988e-04  0 
 1.787141e-04  1.926893e-04  0 
 -3.707524e-04  1.249712e-04  0 
 6.904099e-05  1.388279e-04  0 
 6.995305e-05  8.135344e-05  0 
 -4.071201e-04  2.125155e-04  0 
 -1.263150e-04  4.114648e-04  0 
 -2.187918e-05  4.983271e-04  0 
 -3.771425e-05  3.011909e-04  0 
 -2.563520e-04  2.856599e-04  0 
 -1.342097e-04  2.857508e-04  0 
 -1.153807e-05  4.133645e-04  0 
 -1.066523e-04  3.761685e-04  0 
 2.765086e-05  3.821929e-04  0 
 -1.574006e-04  3.777419e-04  0 
 -6.054996e-05  4.701157e-04  0 
 2.797725e-05  4.318142e-04  0 
 -1.135867e-04  2.379631e-04  0 
 3.079761e-05  5.340484e-04  0 
 1.981026e-05  3.218662e-04  0 
 -3.868867e-06  2.529451e-04  0 
 -8.657959e-05  2.904802e-04  0 
 -1.230647e-04  4.560409e-04  0 
 -8.721433e-05  4.257825e-04  0 
 -5.480204e-05  5.096964e-04  0 
 -6.603454e-05  3.461322e-04  0 
 -1.640150e-04  4.166449e-04  0 
 -1.467925e-04  3.326016e-04  0 
 -2.009358e-04  3.339084e-04  0 
 -2.253942e-04  2.363985e-04  0 
 -7.433702e-06  5.441006e-04  0 
 -1.707760e-04  2.350250e-04  0 
 -2.018958e-05  3.584971e-04  0 
 -1.052472e-04  3.333413e-04  0 
 -6.176485e-05  2.451619e-04  0 
 -5.752655e-05  3.936691e-04  0 
 -1.907562e-04  2.862604e-04  0 
 1.336381e-05  5.028380e-04  0 
 -1.044448e-05  4.599268e-04  0 
 -4.426154e-05  4.341460e-04  0 
 3.133326e-05  4.732011e-04  0 
 -3.229236e-04  2.619486e-04  0 
 -2.848579e-04  2.263416e-04  0 
 3.879313e-05  2.716009e-04  0 
 -3.327181e-04  2.169244e-04  0 
 3.728441e-05  2.333940e-04  0 
 1.652292e-04  3.320488e-04  0 
 1.629344e-04  2.679066e-04  0 
 1.076236e-04  4.510465e-04  0 
 1.201688e-04  3.892584e-04  0 
 1.146562e-04  3.193965e-04  0 
 2.314661e-04  2.410040e-04  0 
 1.483168e-04  4.365758e-04  0 
 1.879954e-04  3.945262e-04  0 
 1.106457e-04  2.748860e-04  0 
 1.281359e-04  2.371599e-04  0 
 -4.056624e-04  1.449587e-04  0 
 -3.160144e-05  8.914209e-05  0 
 -2.723350e-04  6.817944e-05  0 
 4.258629e-06  1.449785e-04  0 
 -1.500505e-04  8.089203e-05  0 
 -5.806655e-05  4.666446e-05  0 
 5.407620e-06  4.078253e-05  0 
 -5.705422e-05  1.368753e-04  0 
 -2.392172e-04  1.230523e-04  0 
 3.064689e-05  8.513866e-05  0 
 -3.047871e-04  1.275316e-04  0 
 -1.469378e-04  1.420868e-04  0 
 -1.071891e-04  6.193887e-05  0 
 -1.044546e-04  1.172611e-04  0 
 -1.925502e-04  1.108405e-04  0 
 -7.213386e-05  9.042067e-05  0 
 -2.280137e-04  7.735029e-05  0 
 3.899150e-05  1.687580e-04  0 
 -3.403958e-04  1.521421e-04  0 
 1.535246e-04  1.064108e-04  0 
 1.141119e-04  5.696734e-05  0 
 1.941103e-04  1.466420e-04  0 
 1.000149e-04  1.625588e-04  0 
 1.425111e-04  1.551102e-04  0 
 1.082575e-04  1.170667e-04  0 
VECTORS displacement_ITER2 FLOAT
 3.616738e-04  2.549624e-05  0 
 6.274285e-04  9.884926e-05  0 
 3.672641e-04  6.615530e-05  0 
 2.726813e-04  2.297532e-05  0 
 6.206505e-04  2.555481e-05  0 
 6.209785e-04  7.234263e-05  0 
 6.219040e-04  9.324556e-05  0 
 6.248390e-04  1.107964e-04  0 
 6.265009e-04  1.132436e-04  0 
 6.279503e-04  1.087512e-04  0 
 4.586310e-04  2.794868e-05  0 
 5.246000e-04  4.370312e-05  0 
 5.695839e-04  5.454373e-05  0 
 6.008557e-04  7.086512e-05  0 
 6.188600e-04  8.682324e-05  0 
 6.229122e-04  9.595046e-05  0 
 6.214350e-04  9.643784e-05  0 
 6.321982e-04  9.875923e-05  0 
 6.390971e-04  9.823203e-05  0 
 3.549608e-04  -3.366065e-05  0 
 6.252215e-04  8.650107e-05  0 
 6.224656e-04  7.108936e-05  0 
 3.065672e-04  4.768334e-05  0 
 6.447722e-04  5.490707e-05  0 
 6.688004e-04  2.084683e-05  0 
 6.284112e-04  1.053998e-04  0 
 5.349575e-04  7.870437e-05  0 
 6.259525e-04  9.726591e-05  0 
 6.447527e-04  9.213171e-05  0 
 6.435826e-04  7.511279e-05  0 
 6.327410e-04  1.050944e-04  0 
 6.302546e-04  6.331735e-05  0 
 6.776617e-04  3.533697e-05  0 
 6.329279e-04  8.540309e-05  0 
 6.237079e-04  9.377375e-05  0 
 6.424656e-04  -1.271346e-05  0 
 6.294992e-04  1.138413e-04  0 
 6.222307e-04  1.063663e-04  0 
 6.341827e-04  1.034158e-04  0 
 6.609640e-04  3.369909e-05  0 
 6.644144e-04  6.285963e-05  0 
 6.937267e-04  -1.112733e-05  0 
 6.362053e-04  9.478426e-05  0 
 6.431564e-04  3.576359e-05  0 
 6.264967e-04  8.973674e-05  0 
 5.927973e-04  7.753078e-05  0 
 5.570490e-04  7.063829e-05  0 
 6.796899e-04  -4.093687e-05  0 
 5.986937e-04  8.013389e-05  0 
 6.382310e-04  1.042402e-04  0 
 6.378204e-04  9.473436e-05  0 
 6.286650e-04  1.029628e-04  0 
 6.492183e-04  8.889061e-05  0 
 5.933469e-04  8.915582e-05  0 
 6.495165e-04  2.946011e-05  0 
 6.502593e-04  6.354277e-05  0 
 6.576489e-04  7.431058e-05  0 
 6.367269e-04  6.052262e-05  0 
 4.400247e-04  7.966293e-05  0 
 5.014074e-04  6.007527e-05  0 
 6.275429e-04  1.110611e-04  0 
 4.262776e-04  5.478561e-05  0 
 6.258601e-04  1.049742e-04  0 
 6.188272e-04  1.004475e-04  0 
 6.310561e-04  1.059657e-04  0 
 6.131768e-04  7.533931e-05  0 
 6.161562e-04  9.681463e-05  0 
 6.274953e-04  1.108411e-04  0 
 6.369053e-04  9.716454e-05  0 
 6.048913e-04  7.662266e-05  0 
 6.052279e-04  8.454002e-05  0 
 6.302044e-04  1.094117e-04  0 
 6.324793e-04  1.067055e-04  0 
 3.024212e-04  -1.614017e-05  0 
 6.075470e-04  6.553836e-05  0 
 4.772780e-04  -4.272037e-05  0 
 6.208856e-04  8.768485e-05  0 
 5.644461e-04  2.219198e-05  0 
 5.854748e-04  3.803449e-05  0 
 6.123643e-04  5.038723e-05  0 
 6.116487e-04  7.576260e-05  0 
 5.270902e-04  9.328322e-06  0 
 6.221445e-04  6.975480e-05  0 
 4.558688e-04  -5.964919e-06  0 
 5.873761e-04  4.703047e-05  0 
 5.705990e-04  3.066872e-05  0 
 5.903016e-04  5.276262e-05  0 
 5.523524e-04  1.724512e-05  0 
 5.923066e-04  5.399501e-05  0 
 5.194448e-04  -1.816842e-05  0 
 6.230832e-04  9.174605e-05  0 
 4.124937e-04  1.412242e-07  0 
 6.391301e-04  7.792435e-05  0 
 6.328582e-04  6.209417e-05  0 
 6.444347e-04  8.693750e-05  0 
 6.300766e-04  9.297993e-05  0 
 6.348850e-04  9.162678e-05  0 
 6.304081e-04  8.260759e-05  0 
VECTORS displacement_ITER3 FLOAT
 3.263454e-04  3.716007e-05  0 
 4.157911e-04  1.705535e-04  0 
 3.393901e-04  5.041633e-05  0 
 2.788170e-04  4.738200e-05  0 
 5.192563e-04  1.044148e-04  0 
 5.004290e-04  1.474508e-04  0 
 4.828651e-04  1.709043e-04  0 
 4.623905e-04  1.818417e-04  0 
 4.441889e-04  1.806332e-04  0 
 4.315538e-04  1.780137e-04  0 
 3.956485e-04  4.500574e-05  0 
 4.305264e-04  5.839146e-05  0 
 4.478098e-04  6.819468e-05  0 
 4.537356e-04  9.280437e-05  0 
 4.461748e-04  1.180809e-04  0 
 4.311118e-04  1.418307e-04  0 
 4.166718e-04  1.545772e-04  0 
 4.150823e-04  1.828820e-04  0 
 4.237037e-04  1.934697e-04  0 
 3.292724e-04  2.695584e-05  0 
 4.023801e-04  1.574728e-04  0 
 3.949574e-04  1.437407e-04  0 
 2.913093e-04  3.746995e-05  0 
 5.539800e-04  4.613157e-05  0 
 5.900781e-04  6.603587e-05  0 
 4.689578e-04  1.342970e-04  0 
 4.498702e-04  5.185016e-05  0 
 4.961562e-04  9.649642e-05  0 
 5.227019e-04  1.333369e-04  0 
 5.336346e-04  7.375275e-05  0 
 4.887486e-04  1.604498e-04  0 
 5.355725e-04  4.380510e-05  0 
 5.978597e-04  5.920351e-05  0 
 5.113893e-04  1.479481e-04  0 
 4.725504e-04  1.099840e-04  0 
 5.555951e-04  5.949678e-05  0 
 4.625073e-04  1.637011e-04  0 
 4.355318e-04  1.543345e-04  0 
 4.896675e-04  1.171139e-04  0 
 5.891150e-04  2.791325e-05  0 
 5.694928e-04  7.010473e-05  0 
 6.287097e-04  2.320945e-05  0 
 5.023961e-04  1.096201e-04  0 
 5.671452e-04  1.179926e-05  0 
 5.126286e-04  8.065075e-05  0 
 4.996867e-04  5.338213e-05  0 
 4.500126e-04  6.773249e-05  0 
 6.151858e-04  1.463811e-05  0 
 4.729479e-04  8.488215e-05  0 
 4.956201e-04  1.375585e-04  0 
 5.136605e-04  9.778572e-05  0 
 4.602278e-04  1.337894e-04  0 
 5.317949e-04  1.080105e-04  0 
 4.834570e-04  7.700743e-05  0 
 5.553755e-04  9.071794e-05  0 
 5.491342e-04  1.113965e-04  0 
 5.544517e-04  1.023937e-04  0 
 5.290478e-04  1.235853e-04  0 
 3.907878e-04  5.468918e-05  0 
 4.244713e-04  5.724647e-05  0 
 4.402582e-04  1.719042e-04  0 
 3.773335e-04  5.306076e-05  0 
 4.277970e-04  1.659318e-04  0 
 4.470932e-04  2.102564e-04  0 
 4.308095e-04  1.998696e-04  0 
 4.841063e-04  1.660671e-04  0 
 4.628843e-04  1.960203e-04  0 
 4.443791e-04  1.959699e-04  0 
 3.654029e-04  1.921730e-04  0 
 4.665296e-04  1.831570e-04  0 
 4.528359e-04  2.053244e-04  0 
 4.336399e-04  1.881826e-04  0 
 4.243016e-04  1.925844e-04  0 
 3.017138e-04  3.450277e-05  0 
 3.891679e-04  1.262279e-04  0 
 3.934744e-04  6.282559e-06  0 
 4.072795e-04  1.489939e-04  0 
 4.075718e-04  7.798475e-05  0 
 3.703013e-04  1.109837e-04  0 
 3.825542e-04  1.282821e-04  0 
 4.107574e-04  1.237311e-04  0 
 4.249619e-04  4.569733e-05  0 
 3.966318e-04  1.396828e-04  0 
 3.894144e-04  3.127968e-05  0 
 4.326771e-04  7.641511e-05  0 
 3.872349e-04  9.550313e-05  0 
 4.083536e-04  9.518787e-05  0 
 4.256766e-04  5.815420e-05  0 
 3.888262e-04  1.084077e-04  0 
 4.089904e-04  2.851532e-05  0 
 4.085941e-04  1.574852e-04  0 
 3.596578e-04  2.923291e-05  0 
 4.047129e-04  1.593143e-04  0 
 3.941247e-04  1.413834e-04  0 
 4.175807e-04  1.816247e-04  0 
 4.078987e-04  1.705191e-04  0 
 4.106489e-04  1.756365e-04  0 
 4.005083e-04  1.570379e-04  0 
VECTORS displacement_ITER4 FLOAT
 1.198090e-03  -1.340060e-04  0 
 1.145278e-03  -1.685800e-04  0 
 1.195382e-03  -1.804202e-04  0 
 1.101091e-03  -1.422247e-04  0 
 1.606142e-03  7.955039e-05  0 
 1.498296e-03  5.873305e-05  0 
 1.400335e-03  1.054528e-05  0 
 1.301677e-03  -5.359118e-05  0 
 1.232911e-03  -1.084853e-04  0 
 1.191833e-03  -1.462870e-04  0 
 1.207589e-03  -1.469832e-04  0 
 1.174026e-03  -1.576506e-04  0 
 1.165492e-03  -1.763532e-04  0 
 1.185667e-03  -1.795287e-04  0 
 1.186817e-03  -1.813468e-04  0 
 1.176387e-03  -1.876352e-04  0 
 1.157848e-03  -1.850734e-04  0 
 1.114488e-03  -1.115464e-04  0 
 1.094990e-03  -5.220994e-05  0 
 1.174298e-03  -1.219466e-04  0 
 1.114959e-03  -2.011829e-04  0 
 1.100638e-03  -1.979701e-04  0 
 1.144712e-03  -1.572956e-04  0 
 1.261180e-03  -3.070908e-04  0 
 1.487025e-03  -8.251007e-05  0 
 1.193721e-03  -2.028257e-04  0 
 1.179883e-03  -2.646152e-04  0 
 1.195784e-03  -2.168551e-04  0 
 1.343510e-03  -1.419120e-04  0 
 1.224138e-03  -2.736825e-04  0 
 1.327703e-03  -1.005755e-04  0 
 1.247104e-03  -3.137612e-04  0 
 1.381869e-03  -1.779778e-04  0 
 1.424801e-03  -4.255986e-05  0 
 1.192920e-03  -1.958379e-04  0 
 1.631696e-03  7.159383e-05  0 
 1.234769e-03  -1.527268e-04  0 
 1.174355e-03  -1.901717e-04  0 
 1.199608e-03  -2.133639e-04  0 
 1.311744e-03  -2.976250e-04  0 
 1.284272e-03  -2.648575e-04  0 
 1.443862e-03  -1.078261e-04  0 
 1.218358e-03  -2.324513e-04  0 
 1.291971e-03  -3.474902e-04  0 
 1.209604e-03  -2.499097e-04  0 
 1.213296e-03  -2.892275e-04  0 
 1.159008e-03  -2.046664e-04  0 
 1.590063e-03  3.990350e-05  0 
 1.179100e-03  -1.972018e-04  0 
 1.253502e-03  -1.886785e-04  0 
 1.207579e-03  -2.374331e-04  0 
 1.184737e-03  -1.944321e-04  0 
 1.268290e-03  -2.257251e-04  0 
 1.183850e-03  -2.307057e-04  0 
 1.558594e-03  -1.581898e-05  0 
 1.441631e-03  -1.038286e-04  0 
 1.345604e-03  -1.937720e-04  0 
 1.516524e-03  -5.514878e-06  0 
 1.187367e-03  -2.279977e-04  0 
 1.188687e-03  -1.939209e-04  0 
 1.191057e-03  -1.511412e-04  0 
 1.199566e-03  -1.691320e-04  0 
 1.166425e-03  -1.792696e-04  0 
 1.305554e-03  7.170753e-05  0 
 1.196121e-03  -5.045651e-05  0 
 1.480896e-03  1.286097e-04  0 
 1.369925e-03  8.535735e-05  0 
 1.247067e-03  -3.673627e-05  0 
 8.607066e-04  -1.999279e-05  0 
 1.437160e-03  1.804930e-04  0 
 1.388945e-03  1.794576e-04  0 
 1.196392e-03  -9.944740e-05  0 
 1.158341e-03  -1.046142e-04  0 
 1.127852e-03  -1.393044e-04  0 
 1.171077e-03  -2.156015e-04  0 
 1.207603e-03  -8.843084e-05  0 
 1.157257e-03  -2.120408e-04  0 
 1.231159e-03  -1.551604e-04  0 
 1.200947e-03  -1.845104e-04  0 
 1.135284e-03  -1.884786e-04  0 
 1.184016e-03  -2.098304e-04  0 
 1.186857e-03  -1.070486e-04  0 
 1.127236e-03  -2.061849e-04  0 
 1.206568e-03  -8.736359e-05  0 
 1.184586e-03  -1.600596e-04  0 
 1.246346e-03  -1.765441e-04  0 
 1.217641e-03  -1.938487e-04  0 
 1.193110e-03  -1.163908e-04  0 
 1.203934e-03  -2.049866e-04  0 
 1.194933e-03  -1.052470e-04  0 
 1.141877e-03  -1.980854e-04  0 
 1.206172e-03  -1.162618e-04  0 
 1.025596e-03  -1.733331e-04  0 
 1.027177e-03  -1.793044e-04  0 
 1.050077e-03  -1.089556e-04  0 
 1.094774e-03  -1.708881e-04  0 
 1.065871e-03  -1.416333e-04  0 
 1.057352e-03  -1.928671e-04  0 
VECTORS displacement_ITER5 FLOAT
 1.283556e-03  -1.495674e-04  0 
 1.367158e-03  -1.581836e-05  0 
 1.280576e-03  -1.520113e-04  0 
 1.139618e-03  -1.432020e-04  0 
 1.680519e-03  5.169762e-05  0 
 1.581132e-03  7.168148e-05  0 
 1.498601e-03  4.576536e-05  0 
 1.444278e-03  1.807085e-06  0 
 1.421614e-03  -3.968059e-05  0 
 1.397434e-03  -3.533829e-05  0 
 1.353832e-03  -1.605344e-04  0 
 1.397029e-03  -1.265920e-04  0 
 1.461287e-03  -9.597078e-05  0 
 1.518260e-03  -6.949772e-05  0 
 1.530305e-03  -4.526579e-05  0 
 1.501945e-03  -4.169001e-05  0 
 1.439449e-03  -4.002993e-05  0 
 1.240718e-03  6.109272e-05  0 
 1.089253e-03  1.463886e-04  0 
 1.261409e-03  -1.932236e-04  0 
 1.311954e-03  -1.055948e-05  0 
 1.255959e-03  4.000096e-05  0 
 1.190747e-03  -1.450800e-04  0 
 1.623868e-03  -1.549278e-04  0 
 1.679495e-03  -6.569764e-05  0 
 1.509458e-03  -5.702900e-05  0 
 1.468596e-03  -1.365076e-04  0 
 1.564553e-03  -5.817842e-05  0 
 1.566034e-03  -5.491270e-05  0 
 1.581382e-03  -1.086481e-04  0 
 1.506311e-03  -1.671369e-05  0 
 1.627185e-03  -1.415549e-04  0 
 1.646191e-03  -1.162179e-04  0 
 1.571561e-03  -1.190621e-07  0 
 1.552122e-03  -5.835696e-05  0 
 1.741214e-03  2.460539e-05  0 
 1.470177e-03  -4.359096e-05  0 
 1.470557e-03  -5.571635e-05  0 
 1.552164e-03  -5.587697e-05  0 
 1.659973e-03  -1.829219e-04  0 
 1.604913e-03  -1.391498e-04  0 
 1.692507e-03  -9.750572e-05  0 
 1.544921e-03  -7.073100e-05  0 
 1.670847e-03  -1.886397e-04  0 
 1.587210e-03  -7.667241e-05  0 
 1.568505e-03  -1.212107e-04  0 
 1.461693e-03  -1.142105e-04  0 
 1.747344e-03  -9.021616e-06  0 
 1.518667e-03  -8.039763e-05  0 
 1.519271e-03  -5.651226e-05  0 
 1.566242e-03  -6.710732e-05  0 
 1.526483e-03  -5.170090e-05  0 
 1.567016e-03  -9.343807e-05  0 
 1.534985e-03  -8.596284e-05  0 
 1.700427e-03  -1.927994e-05  0 
 1.633467e-03  -6.323492e-05  0 
 1.604848e-03  -1.025214e-04  0 
 1.644823e-03  7.250801e-06  0 
 1.340359e-03  -1.517811e-04  0 
 1.402046e-03  -1.533222e-04  0 
 1.441398e-03  -4.659865e-05  0 
 1.325265e-03  -1.549611e-04  0 
 1.429092e-03  -4.388271e-05  0 
 1.307959e-03  3.636293e-05  0 
 1.246189e-03  -5.719735e-07  0 
 1.477395e-03  1.312667e-04  0 
 1.395875e-03  7.805346e-05  0 
 1.352823e-03  -1.681296e-05  0 
 4.937384e-04  5.946219e-05  0 
 1.402250e-03  1.556029e-04  0 
 1.329062e-03  1.347362e-04  0 
 1.337137e-03  -2.324768e-05  0 
 1.288996e-03  -3.065937e-06  0 
 1.193087e-03  -1.901135e-04  0 
 1.457594e-03  -5.550963e-05  0 
 1.309426e-03  -1.677171e-04  0 
 1.446049e-03  -5.245920e-05  0 
 1.503846e-03  -8.380656e-05  0 
 1.465445e-03  -4.459204e-05  0 
 1.355740e-03  1.026579e-05  0 
 1.502374e-03  -7.011081e-05  0 
 1.379517e-03  -8.178146e-05  0 
 1.355366e-03  -2.477530e-06  0 
 1.323691e-03  -1.179084e-04  0 
 1.493708e-03  -6.044302e-05  0 
 1.513205e-03  -7.325786e-05  0 
 1.526189e-03  -8.002947e-05  0 
 1.446022e-03  -5.869495e-05  0 
 1.497432e-03  -7.003657e-05  0 
 1.361025e-03  -1.317563e-04  0 
 1.392173e-03  -4.141442e-05  0 
 1.323322e-03  -1.590708e-04  0 
 1.059622e-03  8.438126e-05  0 
 1.111808e-03  8.620736e-05  0 
 1.000900e-03  1.269822e-04  0 
 1.250340e-03  1.710368e-05  0 
 1.131188e-03  7.757018e-05  0 
 1.171446e-03  4.389493e-05  0 
VECTORS displacement_ITER6 FLOAT
 1.640349e-03  -4.515699e-06  0 
 1.590243e-03  3.943491e-07  0 
 1.616354e-03  -6.101556e-06  0 
 1.467797e-03  1.973880e-05  0 
 1.683838e-03  -9.794026e-05  0 
 1.652336e-03  -3.974300e-05  0 
 1.633165e-03  6.888864e-08  0 
 1.622995e-03  1.654469e-05  0 
 1.604851e-03  6.520804e-06  0 
 1.591823e-03  9.096881e-08  0 
 1.705372e-03  -3.602074e-05  0 
 1.736752e-03  -3.461590e-05  0 
 1.771866e-03  -2.625962e-05  0 
 1.799751e-03  -2.650993e-06  0 
 1.787689e-03  1.968414e-05  0 
 1.743277e-03  1.936450e-05  0 
 1.677252e-03  1.311996e-05  0 
 1.470318e-03  8.506026e-06  0 
 1.340788e-03  2.064712e-05  0 
 1.620814e-03  -6.813635e-05  0 
 1.598052e-03  -3.655849e-06  0 
 1.608907e-03  6.848673e-06  0 
 1.519880e-03  1.604515e-05  0 
 1.879120e-03  -5.260054e-05  0 
 1.803764e-03  -9.531339e-05  0 
 1.751285e-03  4.422382e-06  0 
 1.758193e-03  -4.491285e-05  0 
 1.844097e-03  1.405169e-06  0 
 1.759234e-03  -1.679997e-05  0 
 1.849486e-03  -2.926047e-05  0 
 1.691538e-03  7.928530e-06  0 
 1.888661e-03  -4.165360e-05  0 
 1.853946e-03  -7.479994e-05  0 
 1.707006e-03  -2.244761e-05  0 
 1.821016e-03  3.846643e-06  0 
 1.738654e-03  -1.269187e-04  0 
 1.678387e-03  -1.380025e-07  0 
 1.704242e-03  3.886736e-06  0 
 1.813195e-03  4.234680e-06  0 
 1.901370e-03  -9.790916e-05  0 
 1.846877e-03  -5.491159e-05  0 
 1.862725e-03  -1.130859e-04  0 
 1.800775e-03  -7.487951e-06  0 
 1.925940e-03  -7.454067e-05  0 
 1.864008e-03  -7.648299e-06  0 
 1.845524e-03  -3.058444e-05  0 
 1.769191e-03  -3.845640e-05  0 
 1.795217e-03  -1.453946e-04  0 
 1.814130e-03  -1.612436e-05  0 
 1.739274e-03  -6.406056e-06  0 
 1.836755e-03  -3.735376e-06  0 
 1.774191e-03  1.020501e-05  0 
 1.806734e-03  -3.168036e-05  0 
 1.827572e-03  -1.659420e-05  0 
 1.752460e-03  -9.712306e-05  0 
 1.775674e-03  -5.995513e-05  0 
 1.816997e-03  -4.297620e-05  0 
 1.718689e-03  -6.678968e-05  0 
 1.660361e-03  -3.173309e-05  0 
 1.724840e-03  -4.572529e-05  0 
 1.638910e-03  1.669361e-06  0 
 1.667018e-03  -2.456110e-05  0 
 1.638139e-03  1.676398e-06  0 
 1.422426e-03  1.187999e-05  0 
 1.429623e-03  2.326639e-05  0 
 1.535228e-03  -2.383639e-05  0 
 1.505485e-03  8.744810e-06  0 
 1.518148e-03  1.941883e-05  0 
 1.104150e-03  4.502323e-05  0 
 1.431493e-03  -2.085570e-05  0 
 1.353818e-03  -1.518563e-05  0 
 1.509662e-03  1.057084e-05  0 
 1.469522e-03  -7.508912e-06  0 
 1.541086e-03  -5.573665e-05  0 
 1.715562e-03  1.149222e-05  0 
 1.704069e-03  1.185657e-05  0 
 1.691176e-03  6.924287e-06  0 
 1.785372e-03  5.153317e-06  0 
 1.727743e-03  1.924718e-05  0 
 1.670484e-03  2.959695e-05  0 
 1.752086e-03  3.023160e-06  0 
 1.732355e-03  4.655233e-06  0 
 1.656151e-03  1.793208e-05  0 
 1.701982e-03  -7.792061e-06  0 
 1.775554e-03  8.835871e-06  0 
 1.776227e-03  1.035137e-05  0 
 1.782608e-03  -3.771635e-06  0 
 1.758814e-03  2.141341e-05  0 
 1.750145e-03  4.594684e-06  0 
 1.725445e-03  1.744665e-05  0 
 1.640518e-03  6.851193e-06  0 
 1.685838e-03  -2.614200e-05  0 
 1.380593e-03  -1.014581e-05  0 
 1.482668e-03  1.274811e-05  0 
 1.289728e-03  -6.427782e-06  0 
 1.515448e-03  -1.055035e-05  0 
 1.415478e-03  -1.195166e-05  0 
 1.497967e-03  -1.176985e-05  0 
VECTORS displacement_ITER7 FLOAT
 1.579218e-03  -1.517247e-05  0 
 1.610103e-03  -1.415878e-05  0 
 1.571344e-03  1.408078e-05  0 
 1.376097e-03  1.133364e-06  0 
 1.697878e-03  3.145448e-05  0 
 1.676553e-03  2.159873e-05  0 
 1.670022e-03  2.784740e-05  0 
 1.659882e-03  3.329754e-05  0 
 1.638883e-03  4.581203e-06  0 
 1.621243e-03  -7.751909e-06  0 
 1.697574e-03  -2.527791e-05  0 
 1.748135e-03  -2.970584e-05  0 
 1.790819e-03  -3.468437e-05  0 
 1.814456e-03  -2.790141e-05  0 
 1.795793e-03  -2.143497e-05  0 
 1.748999e-03  -1.713725e-05  0 
 1.686175e-03  -1.458353e-05  0 
 1.499708e-03  -4.501485e-06  0 
 1.381029e-03  7.855364e-06  0 
 1.546526e-03  -7.609456e-05  0 
 1.605044e-03  -2.965769e-05  0 
 1.606106e-03  -3.702718e-05  0 
 1.443966e-03  1.339527e-05  0 
 1.852404e-03  6.997342e-06  0 
 1.819593e-03  2.964698e-05  0 
 1.769744e-03  -8.596870e-06  0 
 1.753109e-03  -2.357556e-05  0 
 1.830283e-03  -1.120679e-05  0 
 1.784245e-03  3.008181e-05  0 
 1.836896e-03  2.461941e-07  0 
 1.725451e-03  2.927725e-05  0 
 1.849798e-03  -3.776994e-06  0 
 1.856398e-03  1.727774e-05  0 
 1.730051e-03  2.771124e-05  0 
 1.819504e-03  -2.025363e-05  0 
 1.745657e-03  2.229666e-05  0 
 1.706741e-03  3.336147e-08  0 
 1.719865e-03  -1.443807e-05  0 
 1.814796e-03  -1.127986e-05  0 
 1.872136e-03  -7.473072e-06  0 
 1.839945e-03  1.091617e-05  0 
 1.867285e-03  2.774131e-05  0 
 1.807722e-03  -3.066012e-06  0 
 1.879514e-03  -6.349588e-06  0 
 1.836725e-03  -1.480789e-06  0 
 1.821735e-03  -9.155782e-06  0 
 1.773209e-03  -2.513213e-05  0 
 1.805739e-03  7.391031e-06  0 
 1.817076e-03  -2.181825e-05  0 
 1.765808e-03  3.080011e-06  0 
 1.829441e-03  -2.576309e-06  0 
 1.784601e-03  -1.681400e-05  0 
 1.814195e-03  6.497250e-06  0 
 1.814701e-03  -1.162235e-05  0 
 1.756381e-03  2.797409e-05  0 
 1.791351e-03  2.201488e-05  0 
 1.825878e-03  2.604955e-05  0 
 1.730348e-03  1.734902e-05  0 
 1.655771e-03  -6.127103e-06  0 
 1.723619e-03  -2.329013e-05  0 
 1.667416e-03  -7.480067e-06  0 
 1.654754e-03  -6.042266e-06  0 
 1.660569e-03  -1.328402e-05  0 
 1.443233e-03  1.555084e-05  0 
 1.455099e-03  2.260971e-05  0 
 1.571950e-03  1.907641e-05  0 
 1.539001e-03  3.087044e-05  0 
 1.556459e-03  2.320561e-05  0 
 1.202265e-03  3.847625e-05  0 
 1.440578e-03  1.418603e-05  0 
 1.349342e-03  -3.444708e-06  0 
 1.545111e-03  7.843593e-06  0 
 1.500668e-03  -5.740136e-06  0 
 1.454696e-03  -7.196058e-05  0 
 1.712055e-03  -4.109102e-05  0 
 1.735089e-03  -5.918786e-07  0 
 1.690225e-03  -3.016835e-05  0 
 1.811579e-03  -4.018636e-05  0 
 1.731220e-03  -3.500365e-05  0 
 1.661783e-03  -2.979354e-05  0 
 1.753402e-03  -4.060424e-05  0 
 1.760612e-03  -2.516385e-05  0 
 1.648012e-03  -3.153814e-05  0 
 1.704519e-03  -2.266775e-05  0 
 1.803673e-03  -3.675359e-05  0 
 1.789208e-03  -4.005436e-05  0 
 1.791858e-03  -4.851391e-05  0 
 1.795893e-03  -2.676484e-05  0 
 1.754965e-03  -4.589052e-05  0 
 1.773188e-03  -9.643625e-06  0 
 1.648387e-03  -2.044357e-05  0 
 1.643928e-03  -2.931757e-05  0 
 1.421252e-03  -4.270671e-05  0 
 1.507796e-03  -4.562117e-05  0 
 1.342478e-03  -2.639334e-05  0 
 1.539314e-03  -2.451440e-05  0 
 1.448015e-03  -2.386532e-05  0 
 1.518538e-03  -3.723979e-05  0 
VECTORS displacement_ITER8 FLOAT
 1.599351e-03  -1.819931e-05  0 
 1.579368e-03  9.789832e-06  0 
 1.611818e-03  -1.764777e-05  0 
 1.513619e-03  -1.356839e-06  0 
 1.661235e-03  1.273318e-05  0 
 1.654214e-03  3.072513e-06  0 
 1.654094e-03  1.654354e-05  0 
 1.638330e-03  3.044985e-05  0 
 1.613646e-03  1.663685e-05  0 
 1.594174e-03  7.955507e-06  0 
 1.666484e-03  -1.064349e-05  0 
 1.716298e-03  -1.602969e-05  0 
 1.765000e-03  -1.738716e-05  0 
 1.782843e-03  -1.178844e-05  0 
 1.769755e-03  -6.464253e-06  0 
 1.723795e-03  -4.874550e-07  0 
 1.663667e-03  6.272640e-06  0 
 1.465002e-03  1.285158e-05  0 
 1.329102e-03  1.998258e-05  0 
 1.598097e-03  6.029363e-06  0 
 1.577953e-03  2.104045e-06  0 
 1.563510e-03  -2.426786e-06  0 
 1.539462e-03  -2.165208e-05  0 
 1.810693e-03  1.405060e-05  0 
 1.796648e-03  2.486281e-05  0 
 1.751780e-03  -3.820550e-06  0 
 1.728710e-03  -1.272047e-05  0 
 1.799400e-03  -7.418307e-06  0 
 1.765072e-03  2.046321e-05  0 
 1.806853e-03  3.691555e-06  0 
 1.710609e-03  1.922290e-05  0 
 1.806826e-03  8.149712e-06  0 
 1.820638e-03  1.185072e-05  0 
 1.714804e-03  1.763534e-05  0 
 1.788996e-03  -9.484202e-06  0 
 1.709665e-03  1.257374e-05  0 
 1.690686e-03  4.346369e-06  0 
 1.700739e-03  -1.582698e-06  0 
 1.786735e-03  -6.454275e-06  0 
 1.818027e-03  8.946441e-07  0 
 1.805749e-03  9.471466e-06  0 
 1.829483e-03  2.906239e-05  0 
 1.783457e-03  -3.366696e-06  0 
 1.820531e-03  1.253695e-05  0 
 1.802772e-03  -2.586071e-07  0 
 1.784815e-03  -3.645688e-07  0 
 1.748092e-03  -1.221247e-05  0 
 1.781981e-03  6.077998e-06  0 
 1.786648e-03  -1.162026e-05  0 
 1.749924e-03  -1.465246e-06  0 
 1.800969e-03  -2.645737e-06  0 
 1.760981e-03  -7.625854e-06  0 
 1.786168e-03  3.638758e-06  0 
 1.782629e-03  -6.341166e-06  0 
 1.731901e-03  2.120178e-05  0 
 1.770682e-03  1.737782e-05  0 
 1.795410e-03  2.037840e-05  0 
 1.708360e-03  7.385757e-06  0 
 1.668081e-03  -2.102373e-05  0 
 1.692217e-03  -1.494391e-05  0 
 1.643858e-03  6.206021e-06  0 
 1.653172e-03  -1.461615e-05  0 
 1.636157e-03  2.862013e-06  0 
 1.391736e-03  3.537158e-05  0 
 1.397453e-03  4.112344e-05  0 
 1.556348e-03  -3.875923e-06  0 
 1.516639e-03  3.028556e-05  0 
 1.523070e-03  3.545954e-05  0 
 1.175712e-03  5.546107e-05  0 
 1.417217e-03  -7.184733e-07  0 
 1.298945e-03  8.376159e-06  0 
 1.511605e-03  2.401933e-05  0 
 1.459898e-03  1.609301e-05  0 
 1.550596e-03  1.370055e-06  0 
 1.690892e-03  -1.338820e-05  0 
 1.702740e-03  -1.585040e-05  0 
 1.664253e-03  2.989444e-06  0 
 1.763828e-03  -9.623709e-06  0 
 1.714909e-03  -1.496914e-05  0 
 1.643461e-03  -1.847390e-05  0 