# vtk DataFile Version 3.1
this is an vtk file created by FEMAC
ASCII
DATASET UNSTRUCTURED_GRID
POINTS 98 FLOAT
3.000000 1.000000 0.000000
4.000000 1.000000 0.000000
2.500000 1.000000 0.000000
2.625000 1.000000 0.000000
2.750000 1.000000 0.000000
2.875000 1.000000 0.000000
3.000000 0.750000 0.000000
3.000000 0.875000 0.000000
3.000000 1.125000 0.000000
3.000000 1.250000 0.000000
3.125000 1.000000 0.000000
3.250000 1.000000 0.000000
3.375000 1.000000 0.000000
3.500000 1.000000 0.000000
3.625000 1.000000 0.000000
3.750000 1.000000 0.000000
3.875000 1.000000 0.000000
4.000000 0.625000 0.000000
4.000000 0.750000 0.000000
4.000000 0.875000 0.000000
2.817421 0.910332 0.000000
2.904915 0.810446 0.000000
2.922907 0.918710 0.000000
2.558179 0.884881 0.000000
2.692654 0.898395 0.000000
2.760352 1.243571 0.000000
2.817152 1.120666 0.000000
2.825317 1.332172 0.000000
2.590463 1.108426 0.000000
2.891908 1.207877 0.000000
2.608848 1.223749 0.000000
2.693880 1.115272 0.000000
2.692462 1.334830 0.000000
2.920080 1.093419 0.000000
2.924579 1.317116 0.000000
3.499670 0.360742 0.000000
3.683260 0.615166 0.000000
3.329100 0.631666 0.000000
3.817421 0.910332 0.000000
3.727313 0.436804 0.000000
3.271117 0.415027 0.000000
3.592252 0.458586 0.000000
3.438266 0.470739 0.000000
3.891498 0.593094 0.000000
3.366265 0.330237 0.000000
3.637186 0.313697 0.000000
3.194422 0.795291 0.000000
3.766097 0.808510 0.000000
3.859304 0.437638 0.000000
3.802033 0.526864 0.000000
3.425921 0.863568 0.000000
3.198668 0.496653 0.000000
3.232589 0.600604 0.000000
3.126171 0.698464 0.000000
3.904915 0.810446 0.000000
3.773622 0.614167 0.000000
3.508481 0.733243 0.000000
3.721623 0.704716 0.000000
3.262054 0.704572 0.000000
3.703193 0.533077 0.000000
3.837969 0.707108 0.000000
3.765924 0.342310 0.000000
3.238755 0.322620 0.000000
3.618786 0.562197 0.000000
3.926876 0.697130 0.000000
3.371958 0.723587 0.000000
3.617558 0.672824 0.000000
3.531402 0.584172 0.000000
3.922907 0.918710 0.000000
3.291032 0.816412 0.000000
3.639225 0.786646 0.000000
3.319630 0.521262 0.000000
3.558179 0.884881 0.000000
3.354596 0.426703 0.000000
3.182427 0.400480 0.000000
3.185857 0.898777 0.000000
3.094825 0.825839 0.000000
3.305981 0.912675 0.000000
3.081137 0.919923 0.000000
3.416473 0.610778 0.000000
3.692654 0.898395 0.000000
3.245228 1.222936 0.000000
3.801290 1.082775 0.000000
3.524819 1.212966 0.000000
3.340760 1.292527 0.000000
3.380957 1.163109 0.000000
3.134305 1.289772 0.000000
3.259673 1.084910 0.000000
3.653374 1.114182 0.000000
3.118101 1.147874 0.000000
3.655877 1.223638 0.000000
3.506655 1.083593 0.000000
3.783203 1.173413 0.000000
3.892633 1.099133 0.000000
3.428456 1.250873 0.000000
3.060775 1.068219 0.000000
4.126171 0.698464 0.000000
4.094825 0.825839 0.000000
CELLS 157 628 
3 4 20  5
3 21  6  7
3 5 22  0
3 22  7  0
3 22  5 20
3 22 21  7
3 20 21 22
3 2 23  3
3 24  3 23
3 24  4  3
3 4 24 20
3 5 26  4
3 29 25 26
3 28  2  3
3 9 29  8
3 25 29 27
3 31 25 30
3 28 31 30
3 25 32 30
3 33  5  0
3 8 33  0
3 33  8 29
3 33 26  5
3 26 33 29
3 31 26 25
3 26 31  4
3 28  3 31
3 31  3  4
3 27 32 25
3 9 34 29
3 34 27 29
3 41 42 35
3 45 41 35
3 39 41 45
3 15 38 16
3 43 49 48
3 49 39 48
3 54 18 19
3 43 55 49
3 57 36 55
3 37 58 52
3 59 39 49
3 39 59 41
3 43 60 55
3 61 39 45
3 40 62 44
3 63 41 59
3 36 63 59
3 18 64 17
3 64 43 17
3 36 66 63
3 67 41 63
3 16 68  1
3 68 19  1
3 68 16 38
3 68 54 19
3 38 54 68
3 12 50 13
3 59 55 36
3 49 55 59
3 53 58 46
3 53 52 58
3 64 60 43
3 57 60 47
3 57 55 60
3 63 66 67
3 64 18 54
3 47 54 38
3 47 60 54
3 54 60 64
3 58 69 46
3 70 57 47
3 67 42 41
3 52 71 37
3 40 71 51
3 52 51 71
3 13 72 14
3 72 13 50
3 73 40 44
3 73 42 71
3 40 73 71
3 51 74 40
3 74 62 40
3 61 48 39
3 67 66 56
3 56 72 50
3 56 70 72
3 76 46 75
3 11 77 12
3 7 78  0
3 10 78 75
3 78 10  0
3 77 50 12
3 69 50 77
3 76 78  7
3 76 75 78
3 6 76  7
3 76  6 53
3 46 76 53
3 11 10 75
3 77 11 75
3 46 69 75
3 69 77 75
3 65 56 50
3 50 69 65
3 36 57 66
3 70 56 66
3 66 57 70
3 37 79 65
3 79 37 71
3 70 80 72
3 80 14 72
3 80 15 14
3 79 56 65
3 67 56 79
3 79 42 67
3 71 42 79
3 58 37 65
3 58 65 69
3 73 35 42
3 47 38 80
3 15 80 38
3 70 47 80
3 88 14 15
3 82 88 15
3 81 89 87
3 87 10 11
3 16 82 15
3 86 89 81
3 85 84 81
3 89 10 87
3 12 87 11
3 87 12 85
3 81 87 85
3 8 89  9
3 9 89 86
3 88 90 83
3 13 91 12
3 91 85 12
3 93 16  1
3 93 82 16
3 93 92 82
3 88 92 90
3 92 88 82
3 13 14 91
3 83 91 88
3 91 83 85
3 14 88 91
3 94 85 83
3 85 94 84
3 95  8  0
3 95 10 89
3 10 95  0
3 8 95 89
3 96 18 17
3 18 97 19
3 97 18 96
CELL_TYPES 157
5 5 5 5 5 5 5 5 5 5 5 5 5 5 5 5 5 5 5 5 5 5 5 5 5 5 5 5 5 5 5 5 5 5 5 5 5 5 5 5 5 5 5 5 5 5 5 5 5 5 5 5 5 5 5 5 5 5 5 5 5 5 5 5 5 5 5 5 5 5 5 5 5 5 5 5 5 5 5 5 5 5 5 5 5 5 5 5 5 5 5 5 5 5 5 5 5 5 5 5 5 5 5 5 5 5 5 5 5 5 5 5 5 5 5 5 5 5 5 5 5 5 5 5 5 5 5 5 5 5 5 5 5 5 5 5 5 5 5 5 5 5 5 5 5 5 5 5 5 5 5 5 5 5 5 5 5 
POINT_DATA 98
VECTORS displacement_ITER1 FLOAT
 6.437855e-04  -2.350112e-04  0 
 2.688786e-04  -5.598353e-04  0 
 9.738260e-04  3.484921e-04  0 
 8.978716e-04  1.101571e-04  0 
 7.887520e-04  -3.059169e-05  0 
 7.143043e-04  -1.455778e-04  0 
 3.155024e-04  -3.036196e-04  0 
 4.765240e-04  -2.711631e-04  0 
 8.189905e-04  -1.512087e-04  0 
 9.755652e-04  -4.950972e-05  0 
 5.946013e-04  -2.946423e-04  0 
 5.475505e-04  -3.382645e-04  0 
 5.058810e-04  -3.748107e-04  0 
 4.553451e-04  -4.129432e-04  0 
 4.044638e-04  -4.508502e-04  0 
 3.546398e-04  -4.797927e-04  0 
 3.057302e-04  -5.188861e-04  0 
 5.694407e-05  -6.268282e-04  0 
 1.149046e-04  -6.185482e-04  0 
 1.765820e-04  -5.951419e-04  0 
 5.936846e-04  -1.444152e-04  0 
 4.184224e-04  -2.523850e-04  0 
 5.594422e-04  -2.235048e-04  0 
 6.906727e-04  1.696916e-04  0 
 6.575282e-04  -5.373247e-05  0 
 1.192504e-03  1.554055e-04  0 
 9.417605e-04  -1.961301e-05  0 
 1.277197e-03  1.665804e-04  0 
 1.116027e-03  2.426175e-04  0 
 1.012531e-03  -2.156374e-05  0 
 1.279559e-03  3.233561e-04  0 
 1.035243e-03  1.347918e-04  0 
 1.401956e-03  3.092725e-04  0 
 8.311727e-04  -1.232264e-04  0 
 1.151472e-03  5.979837e-05  0 
 -9.639692e-05  -5.162413e-04  0 
 1.068886e-04  -5.809106e-04  0 
 1.565930e-04  -4.396592e-04  0 
 2.598095e-04  -5.355370e-04  0 
 -3.740416e-05  -6.053138e-04  0 
 -1.527366e-04  -3.259302e-04  0 
 -2.669496e-05  -5.402862e-04  0 
 -3.524980e-05  -5.228767e-04  0 
 6.488081e-05  -6.305062e-04  0 
 -2.862039e-04  -4.482011e-04  0 
 -1.328052e-04  -5.555030e-04  0 
 3.418391e-04  -3.671669e-04  0 
 2.055598e-04  -5.584990e-04  0 
 -4.705554e-05  -6.502921e-04  0 
 2.947847e-05  -6.235538e-04  0 
 3.648951e-04  -4.421452e-04  0 
 -7.645617e-05  -2.850505e-04  0 
 1.285934e-04  -3.815434e-04  0 
 2.413546e-04  -3.518582e-04  0 
 1.630472e-04  -5.886591e-04  0 
 9.113914e-05  -6.116794e-04  0 
 2.264188e-04  -5.128917e-04  0 
 1.469184e-04  -5.765649e-04  0 
 2.443359e-04  -3.919952e-04  0 
 3.704338e-05  -5.980544e-04  0 
 1.182738e-04  -6.052816e-04  0 
 -1.097191e-04  -6.252580e-04  0 
 -3.198705e-04  -2.638840e-04  0 
 6.652959e-05  -5.517126e-04  0 
 9.631419e-05  -6.113943e-04  0 
 2.509946e-04  -4.534914e-04  0 
 1.489509e-04  -5.549293e-04  0 
 7.935924e-05  -5.464669e-04  0 
 2.309921e-04  -5.583550e-04  0 
 3.557486e-04  -3.973473e-04  0 
 2.296048e-04  -5.292958e-04  0 
 2.824255e-05  -4.445531e-04  0 
 3.352060e-04  -4.756675e-04  0 
 -1.016561e-04  -4.618901e-04  0 
 -2.058017e-04  -2.295846e-04  0 
 4.639667e-04  -3.515502e-04  0 
 3.891983e-04  -3.273790e-04  0 
 4.476204e-04  -3.783361e-04  0 
 5.158949e-04  -3.009876e-04  0 
 1.223034e-04  -4.999382e-04  0 
 2.990629e-04  -5.057892e-04  0 
 7.275614e-04  -2.196563e-04  0 
 3.767071e-04  -4.625762e-04  0 
 5.590982e-04  -3.271341e-04  0 
 6.980945e-04  -1.970378e-04  0 
 5.987347e-04  -2.992260e-04  0 
 9.007993e-04  -9.878111e-05  0 
 6.122628e-04  -3.112433e-04  0 
 4.463912e-04  -4.109893e-04  0 
 7.515364e-04  -2.144551e-04  0 
 5.090003e-04  -3.648973e-04  0 
 4.940336e-04  -3.808034e-04  0 
 4.265596e-04  -4.243983e-04  0 
 3.558798e-04  -4.944505e-04  0 
 6.223521e-04  -2.758808e-04  0 
 6.991817e-04  -2.381348e-04  0 
 8.218343e-05  -6.442483e-04  0 
 1.341440e-04  -6.261349e-04  0 
VECTORS displacement_ITER2 FLOAT
 2.281664e-03  -6.589739e-05  0 
 1.341029e-03  3.160658e-05  0 
 2.895813e-03  -3.165588e-05  0 
 2.785235e-03  -1.973248e-04  0 
 2.582152e-03  -1.450656e-04  0 
 2.432870e-03  -1.055475e-04  0 
 1.965221e-03  -3.220672e-04  0 
 2.133366e-03  -1.984652e-04  0 
 2.403029e-03  1.040119e-04  0 
 2.484891e-03  2.806330e-04  0 
 2.134484e-03  -5.720091e-05  0 
 1.987596e-03  -6.100492e-05  0 
 1.851148e-03  -5.116858e-05  0 
 1.724533e-03  -7.100952e-05  0 
 1.600020e-03  -1.089340e-04  0 
 1.488007e-03  -1.187875e-04  0 
 1.409603e-03  -7.650300e-05  0 
 1.526667e-03  -2.167263e-05  0 
 1.433528e-03  -2.662724e-05  0 
 1.367546e-03  -8.258573e-06  0 
 2.381037e-03  -2.285064e-04  0 
 2.141025e-03  -3.060007e-04  0 
 2.271830e-03  -1.849914e-04  0 
 2.618005e-03  -2.059709e-04  0 
 2.554062e-03  -3.348480e-04  0 
 2.838881e-03  1.890299e-04  0 
 2.646094e-03  1.976499e-05  0 
 2.781744e-03  3.479310e-04  0 
 2.963893e-03  -5.687064e-05  0 
 2.610506e-03  1.665183e-04  0 
 3.003497e-03  1.222741e-04  0 
 2.813277e-03  1.715024e-05  0 
 2.964108e-03  2.704964e-04  0 
 2.485335e-03  2.424684e-05  0 
 2.624419e-03  3.315906e-04  0 
 1.543669e-03  -3.885514e-04  0 
 1.559434e-03  -3.202613e-04  0 
 1.676236e-03  -3.447455e-04  0 
 1.435279e-03  -1.513407e-04  0 
 1.569122e-03  -2.945586e-04  0 
 1.457237e-03  -2.904258e-04  0 
 1.540563e-03  -3.356007e-04  0 
 1.544981e-03  -4.247163e-04  0 
 1.546779e-03  -1.698993e-04  0 
 1.339934e-03  -3.900065e-04  0 
 1.560110e-03  -2.922037e-04  0 
 1.870501e-03  -2.515317e-04  0 
 1.467439e-03  -2.225165e-04  0 
 1.563010e-03  -2.089629e-04  0 
 1.562081e-03  -2.424209e-04  0 
 1.728163e-03  -1.926368e-04  0 
 1.500390e-03  -2.583434e-04  0 
 1.700266e-03  -3.390120e-04  0 
 1.827003e-03  -3.175926e-04  0 
 1.417030e-03  -1.334491e-04  0 
 1.540074e-03  -2.686286e-04  0 
 1.608838e-03  -3.198555e-04  0 
 1.508912e-03  -2.767839e-04  0 
 1.766409e-03  -2.912926e-04  0 
 1.556687e-03  -3.217910e-04  0 
 1.477139e-03  -2.098390e-04  0 
 1.577423e-03  -2.724151e-04  0 
 1.295361e-03  -2.242357e-04  0 
 1.562858e-03  -3.340366e-04  0 
 1.472280e-03  -1.235052e-04  0 
 1.713621e-03  -3.013733e-04  0 
 1.558123e-03  -3.347220e-04  0 
 1.562898e-03  -3.669548e-04  0 
 1.387060e-03  -7.705302e-05  0 
 1.821123e-03  -2.286021e-04  0 
 1.525559e-03  -2.743394e-04  0 
 1.590560e-03  -4.004643e-04  0 
 1.612844e-03  -1.970752e-04  0 
 1.505249e-03  -4.056302e-04  0 
 1.401840e-03  -1.948330e-04  0 
 1.973917e-03  -1.748206e-04  0 
 1.971749e-03  -2.398449e-04  0 
 1.872513e-03  -1.416872e-04  0 
 2.105465e-03  -1.473727e-04  0 
 1.608869e-03  -3.941710e-04  0 
 1.510087e-03  -1.997093e-04  0 
 2.119688e-03  2.202566e-04  0 
 1.449092e-03  -5.327912e-05  0 
 1.778796e-03  1.489839e-04  0 
 2.027186e-03  3.160309e-04  0 
 1.910673e-03  1.467476e-04  0 
 2.320162e-03  3.299203e-04  0 
 2.027129e-03  3.628269e-05  0 
 1.581934e-03  -8.076529e-06  0 
 2.250515e-03  1.295792e-04  0 
 1.678098e-03  8.041107e-05  0 
 1.725421e-03  1.196203e-05  0 
 1.527778e-03  1.261966e-05  0 
 1.385200e-03  -9.071052e-06  0 
 1.904885e-03  2.261579e-04  0 
 2.265617e-03  1.803368e-05  0 
 1.474755e-03  1.450344e-04  0 
 1.377436e-03  9.796274e-05  0 
VECTORS displacement_ITER3 FLOAT
 2.823911e-03  4.441724e-04  0 
 1.505659e-03  -3.787441e-05  0 
 3.556015e-03  -6.122521e-04  0 
 3.375669e-03  -4.194926e-04  0 
 3.130356e-03  1.496954e-05  0 
 2.990063e-03  2.442930e-04  0 
 2.371425e-03  5.180379e-06  0 
 2.673293e-03  2.116974e-04  0 
 2.822722e-03  6.059101e-04  0 
 2.779994e-03  7.343388e-04  0 
 2.627151e-03  5.118740e-04  0 
 2.426733e-03  4.593443e-04  0 
 2.243251e-03  4.077240e-04  0 
 2.065154e-03  3.003552e-04  0 
 1.889083e-03  1.864822e-04  0 
 1.752649e-03  1.052270e-04  0 
 1.620400e-03  2.340703e-05  0 
 1.025968e-03  -3.096204e-04  0 
 1.164864e-03  -2.505993e-04  0 
 1.312810e-03  -1.587695e-04  0 
 3.033013e-03  3.796519e-05  0 
 2.681079e-03  3.373350e-05  0 
 2.884158e-03  2.149036e-04  0 
 3.502579e-03  -6.837162e-04  0 
 3.335629e-03  -3.907510e-04  0 
 3.020754e-03  2.550122e-04  0 
 3.043906e-03  2.596268e-04  0 
 2.841645e-03  5.023525e-04  0 
 3.369058e-03  -3.271547e-04  0 
 2.908382e-03  5.129530e-04  0 
 3.153121e-03  -6.247539e-05  0 
 3.166096e-03  2.745910e-05  0 
 2.985968e-03  1.793684e-04  0 
 2.929903e-03  4.346723e-04  0 
 2.772609e-03  6.528454e-04  0 
 9.135181e-04  -3.305603e-04  0 
 1.254541e-03  -2.481952e-04  0 
 1.613630e-03  -1.025434e-04  0 
 1.550535e-03  -3.353758e-05  0 
 9.237084e-04  -3.668584e-04  0 
 9.197583e-04  -1.947940e-05  0 
 1.012610e-03  -2.683256e-04  0 
 1.093103e-03  -3.190158e-04  0 
 1.074230e-03  -3.239075e-04  0 
 6.278694e-04  -2.775442e-04  0 
 7.585947e-04  -3.504603e-04  0 
 2.191305e-03  1.730180e-04  0 
 1.436665e-03  -1.072226e-04  0 
 8.604390e-04  -4.002010e-04  0 
 1.026490e-03  -3.425504e-04  0 
 1.966169e-03  1.720067e-04  0 
 1.123169e-03  9.147380e-05  0 
 1.643635e-03  -5.638319e-05  0 
 2.062840e-03  5.408197e-05  0 
 1.308501e-03  -1.706639e-04  0 
 1.179201e-03  -2.863277e-04  0 
 1.604665e-03  -8.832748e-05  0 
 1.321488e-03  -1.880491e-04  0 
 1.912916e-03  5.272066e-05  0 
 1.091575e-03  -3.154042e-04  0 
 1.219080e-03  -2.321691e-04  0 
 7.617299e-04  -4.177660e-04  0 
 5.578506e-04  1.107425e-04  0 
 1.199429e-03  -2.320365e-04  0 
 1.143025e-03  -2.536571e-04  0 
 1.791083e-03  -5.150821e-09  0 
 1.376952e-03  -1.854730e-04  0 
 1.273465e-03  -2.383614e-04  0 
 1.458374e-03  -7.390892e-05  0 
 2.088735e-03  1.936776e-04  0 
 1.537557e-03  -6.755173e-05  0 
 1.304217e-03  -2.310322e-04  0 
 1.809127e-03  8.671190e-05  0 
 1.006366e-03  -2.898354e-04  0 
 8.142441e-04  1.977842e-04  0 
 2.365193e-03  3.263660e-04  0 
 2.393421e-03  2.077737e-04  0 
 2.216913e-03  3.193829e-04  0 
 2.583159e-03  3.717457e-04  0 
 1.438641e-03  -1.996624e-04  0 
 1.669150e-03  3.251098e-05  0 
 2.580869e-03  7.527125e-04  0 
 1.809912e-03  1.571548e-04  0 
 2.285304e-03  5.417229e-04  0 
 2.533115e-03  7.776082e-04  0 
 2.386275e-03  6.209048e-04  0 
 2.673615e-03  8.238720e-04  0 
 2.478619e-03  5.847282e-04  0 
 2.007636e-03  2.906148e-04  0 
 2.690081e-03  7.083697e-04  0 
 2.158452e-03  4.053966e-04  0 
 2.142228e-03  4.117554e-04  0 
 1.948344e-03  2.611581e-04  0 
 1.742464e-03  1.037060e-04  0 
 2.414613e-03  6.643104e-04  0 
 2.741334e-03  5.816818e-04  0 
 1.043297e-03  -3.422218e-04  0 
 1.181901e-03  -2.546977e-04  0 
VECTORS displacement_ITER4 FLOAT
 2.355238e-03  -2.015746e-04  0 
 1.729735e-03  2.017348e-04  0 
 2.304168e-03  5.771961e-04  0 
 2.354273e-03  1.758112e-04  0 
 2.423442e-03  -3.274136e-05  0 
 2.417119e-03  -1.617476e-04  0 
 1.900554e-03  -2.451996e-04  0 
 2.153454e-03  -2.339645e-04  0 
 2.484281e-03  -1.081022e-04  0 
 2.542360e-03  -6.746032e-06  0 
 2.265429e-03  -2.014257e-04  0 
 2.193623e-03  -2.021293e-04  0 
 2.135968e-03  -1.616311e-04  0 
 2.080549e-03  -1.260112e-04  0 
 2.029335e-03  -8.732450e-05  0 
 1.974953e-03  -1.338125e-07  0 
 1.852609e-03  1.324265e-04  0 
 1.393667e-03  -1.951545e-04  0 
 1.545896e-03  -6.997046e-05  0 
 1.621871e-03  7.774612e-05  0 
 2.241020e-03  -9.426971e-05  0 
 2.036526e-03  -1.861225e-04  0 
 2.248993e-03  -2.046563e-04  0 
 1.946762e-03  4.638799e-04  0 
 2.130427e-03  1.431903e-04  0 
 2.651476e-03  -1.452582e-04  0 
 2.589033e-03  -1.218094e-04  0 
 2.633806e-03  -1.127543e-04  0 
 2.516678e-03  2.171488e-04  0 
 2.619862e-03  -9.760889e-05  0 
 2.654594e-03  1.258897e-04  0 
 2.549865e-03  -2.568393e-05  0 
 2.782052e-03  -2.254451e-05  0 
 2.515675e-03  -1.457511e-04  0 
 2.579437e-03  -2.018184e-05  0 
 1.250206e-03  -2.729089e-04  0 
 1.571045e-03  -1.581289e-04  0 
 1.682297e-03  -2.659164e-04  0 
 1.861643e-03  -1.209710e-05  0 
 1.214155e-03  -2.418126e-04  0 
 1.462043e-03  -3.697114e-04  0 
 1.346268e-03  -2.288487e-04  0 
 1.439889e-03  -2.314992e-04  0 
 1.421668e-03  -2.228967e-04  0 
 1.511367e-03  -2.765832e-04  0 
 1.084167e-03  -3.191040e-04  0 
 1.961760e-03  -2.656374e-04  0 
 1.791601e-03  -8.745237e-05  0 
 1.116052e-03  -2.957294e-04  0 
 1.342496e-03  -2.124710e-04  0 
 1.975623e-03  -1.924931e-04  0 
 1.569455e-03  -3.505622e-04  0 
 1.654056e-03  -2.666260e-04  0 
 1.819981e-03  -2.855774e-04  0 
 1.698942e-03  -5.478903e-05  0 
 1.529355e-03  -1.581932e-04  0 
 1.782553e-03  -1.987625e-04  0 
 1.696579e-03  -1.218483e-04  0 
 1.811777e-03  -2.590673e-04  0 
 1.416436e-03  -1.863287e-04  0 
 1.647686e-03  -1.337575e-04  0 
 1.025055e-03  -3.177722e-04  0 
 1.575348e-03  -4.500385e-04  0 
 1.507147e-03  -1.852497e-04  0 
 1.559669e-03  -1.485552e-04  0 
 1.811795e-03  -2.428579e-04  0 
 1.693204e-03  -1.483948e-04  0 
 1.583808e-03  -1.847634e-04  0 
 1.742227e-03  8.188577e-05  0 
 1.965273e-03  -2.385105e-04  0 
 1.809392e-03  -1.214383e-04  0 
 1.506709e-03  -2.834433e-04  0 
 1.948616e-03  -1.404192e-04  0 
 1.435540e-03  -2.817791e-04  0 
 1.535827e-03  -4.478485e-04  0 
 2.104055e-03  -2.494222e-04  0 
 2.030191e-03  -2.873286e-04  0 
 2.076564e-03  -2.113418e-04  0 
 2.195082e-03  -2.497979e-04  0 
 1.627506e-03  -2.524566e-04  0 
 1.923486e-03  -7.677458e-05  0 
 2.357233e-03  -7.871849e-05  0 
 1.942071e-03  1.272099e-04  0 
 2.159927e-03  -4.029353e-05  0 
 2.293480e-03  -1.188450e-05  0 
 2.211098e-03  -1.132099e-04  0 
 2.479192e-03  -1.486034e-05  0 
 2.225351e-03  -1.651184e-04  0 
 2.069461e-03  -3.051720e-05  0 
 2.386924e-03  -9.396197e-05  0 
 2.069841e-03  3.563838e-05  0 
 2.126643e-03  -9.568291e-05  0 
 1.981168e-03  1.739624e-04  0 
 1.870344e-03  2.324308e-04  0 
 2.208465e-03  -6.676202e-05  0 
 2.373301e-03  -1.607203e-04  0 
 1.350341e-03  -1.708006e-04  0 
 1.477131e-03  -2.948490e-06  0 
VECTORS displacement_ITER5 FLOAT
 2.203172e-03  5.353223e-05  0 
 1.962539e-03  -4.436800e-05  0 
 2.202877e-03  1.371093e-05  0 
 2.230727e-03  -1.935186e-04  0 
 2.246156e-03  -1.293144e-04  0 
 2.247004e-03  -4.925003e-05  0 
 1.834666e-03  -5.839106e-06  0 
 2.058944e-03  1.360701e-05  0 
 2.216308e-03  1.101556e-04  0 
 2.173428e-03  1.312972e-04  0 
 2.136802e-03  1.111032e-04  0 
 2.093796e-03  7.896253e-05  0 
 2.066146e-03  6.586407e-05  0 
 2.056859e-03  1.350043e-05  0 
 2.050511e-03  -6.511849e-05  0 
 2.055147e-03  -9.618998e-05  0 
 2.012174e-03  -6.377860e-05  0 
 1.524241e-03  -2.038571e-04  0 
 1.731505e-03  -1.560469e-04  0 
 1.861551e-03  -8.278673e-05  0 
 2.150778e-03  -7.093992e-05  0 
 1.968064e-03  -3.281565e-05  0 
 2.145845e-03  -2.412567e-05  0 
 1.953195e-03  -2.780984e-05  0 
 2.108235e-03  -1.234750e-04  0 
 2.193738e-03  -2.189978e-04  0 
 2.276267e-03  -1.152836e-04  0 
 2.060433e-03  -1.157410e-04  0 
 2.262687e-03  -1.891859e-04  0 
 2.218254e-03  -1.451491e-05  0 
 2.206535e-03  -2.032945e-04  0 
 2.249253e-03  -1.989227e-04  0 
 2.163075e-03  -2.276600e-04  0 
 2.256867e-03  3.084307e-06  0 
 2.078052e-03  7.101662e-06  0 
 9.794317e-04  5.516883e-05  0 
 1.515883e-03  3.002515e-06  0 
 1.555141e-03  3.299440e-05  0 
 1.974100e-03  -1.025572e-04  0 
 1.099456e-03  -1.784426e-06  0 
 1.091802e-03  7.370733e-05  0 
 1.177864e-03  4.713494e-05  0 
 1.223716e-03  5.706791e-05  0 
 1.469774e-03  -1.469232e-04  0 
 1.057125e-03  1.090614e-04  0 
 8.391697e-04  1.741092e-05  0 
 1.880065e-03  6.346501e-05  0 
 1.854514e-03  -7.591327e-05  0 
 1.094545e-03  -7.572336e-05  0 
 1.302294e-03  -4.698473e-05  0 
 1.916555e-03  5.117858e-05  0 
 1.237465e-03  1.003915e-04  0 
 1.512325e-03  6.481719e-05  0 
 1.744693e-03  4.578913e-05  0 
 1.855566e-03  -1.281656e-04  0 
 1.520744e-03  -2.692289e-05  0 
 1.717627e-03  1.411776e-05  0 
 1.687779e-03  -2.249755e-05  0 
 1.734349e-03  6.719713e-05  0 
 1.333585e-03  1.279435e-05  0 
 1.712809e-03  -9.454777e-05  0 
 8.831519e-04  -1.311094e-05  0 
 1.014866e-03  1.058033e-04  0 
 1.398014e-03  2.881128e-05  0 
 1.676554e-03  -1.621541e-04  0 
 1.735905e-03  4.517259e-05  0 
 1.628166e-03  1.035840e-05  0 
 1.444731e-03  5.379789e-05  0 
 1.930401e-03  -8.349862e-05  0 
 1.885981e-03  7.196224e-05  0 
 1.798821e-03  -1.472826e-05  0 
 1.302507e-03  1.611880e-05  0 
 1.928849e-03  -1.244905e-05  0 
 1.143941e-03  4.702032e-05  0 
 1.070675e-03  1.078786e-04  0 
 1.992786e-03  7.320893e-05  0 
 1.939162e-03  2.908131e-05  0 
 1.988301e-03  7.083746e-05  0 
 2.076366e-03  6.190201e-05  0 
 1.482355e-03  1.704460e-05  0 
 1.961619e-03  -6.674586e-05  0 
 2.210787e-03  8.456491e-05  0 
 2.068648e-03  -6.410517e-05  0 
 2.214838e-03  -1.638033e-05  0 
 2.221675e-03  5.670929e-05  0 
 2.171776e-03  4.442635e-05  0 
 2.202657e-03  9.450961e-05  0 
 2.123293e-03  9.064072e-05  0 
 2.133194e-03  -9.023417e-05  0 
 2.175257e-03  1.380954e-04  0 
 2.186884e-03  -7.316656e-05  0 
 2.117875e-03  6.065851e-06  0 
 2.122092e-03  -4.722578e-05  0 
 2.041982e-03  -3.149914e-05  0 
 2.205555e-03  3.793020e-07  0 
 2.175016e-03  1.073459e-04  0 
 1.589652e-03  -2.816580e-04  0 
 1.751811e-03  -1.790009e-04  0 
VECTORS displacement_ITER6 FLOAT
 2.066744e-03  -7.217190e-05  0 
 1.753079e-03  1.229734e-04  0 
 2.249256e-03  2.443828e-04  0 
 2.207131e-03  1.422326e-04  0 
 2.171716e-03  4.948658e-05  0 
 2.134466e-03  -4.203238e-05  0 
 1.688069e-03  -8.835736e-05  0 
 1.889788e-03  -1.022351e-04  0 
 2.180312e-03  -1.015463e-05  0 
 2.292726e-03  4.056084e-05  0 
 2.010385e-03  -1.019842e-04  0 
 1.975258e-03  -1.330469e-04  0 
 1.950543e-03  -1.356476e-04  0 
 1.925376e-03  -1.275978e-04  0 
 1.897451e-03  -1.298807e-04  0 
 1.862088e-03  -9.211604e-05  0 
 1.805188e-03  -4.685854e-06  0 
 1.489969e-03  5.690441e-05  0 
 1.610736e-03  5.060093e-05  0 
 1.692694e-03  9.220390e-05  0 
 1.996067e-03  -1.190810e-05  0 
 1.785665e-03  -8.088871e-05  0 
 1.983203e-03  -8.337000e-05  0 
 2.004704e-03  1.825524e-04  0 
 1.999930e-03  8.559767e-05  0 
 2.406148e-03  5.369724e-05  0 
 2.279121e-03  1.172647e-05  0 
 2.423795e-03  8.663135e-05  0 
 2.319357e-03  1.818872e-04  0 
 2.313798e-03  3.225613e-05  0 
 2.415678e-03  1.757892e-04  0 
 2.299447e-03  1.021222e-04  0 
 2.520424e-03  1.110417e-04  0 
 2.201066e-03  -1.754562e-05  0 
 2.363653e-03  6.069926e-05  0 
 9.933547e-04  -4.786611e-05  0 
 1.462814e-03  -7.808863e-05  0 
 1.485845e-03  -1.557107e-04  0 
 1.778942e-03  -7.517711e-05  0 
 1.141992e-03  -1.101972e-05  0 
 9.702284e-04  -1.087580e-04  0 
 1.168018e-03  -2.997141e-05  0 
 1.140326e-03  -1.384084e-04  0 
 1.458195e-03  -3.893490e-05  0 
 8.064055e-04  -9.740159e-05  0 
 9.072963e-04  6.297865e-06  0 
 1.760049e-03  -1.273207e-04  0 
 1.701379e-03  -1.013645e-04  0 
 1.145502e-03  -3.580371e-05  0 
 1.334871e-03  -3.391701e-05  0 
 1.801428e-03  -1.378244e-04  0 
 1.176355e-03  -6.316908e-05  0 
 1.443204e-03  -1.086646e-04  0 
 1.626160e-03  -1.091750e-04  0 
 1.691045e-03  -2.587222e-05  0 
 1.480309e-03  -5.575261e-05  0 
 1.621432e-03  -1.453294e-04  0 
 1.570352e-03  -9.381183e-05  0 
 1.632600e-03  -1.263234e-04  0 
 1.334592e-03  -4.165724e-05  0 
 1.586688e-03  -5.941386e-05  0 
 9.577976e-04  -1.345777e-06  0 
 7.362966e-04  -5.076399e-05  0 
 1.363137e-03  -7.009734e-05  0 
 1.564337e-03  -1.560477e-05  0 
 1.636709e-03  -1.472777e-04  0 
 1.522266e-03  -1.206856e-04  0 
 1.369702e-03  -1.253946e-04  0 
 1.743430e-03  1.877120e-05  0 
 1.772585e-03  -1.301589e-04  0 
 1.675610e-03  -1.236701e-04  0 
 1.243441e-03  -1.665393e-04  0 
 1.798759e-03  -1.371691e-04  0 
 1.024834e-03  -1.389001e-04  0 
 9.178361e-04  -2.662198e-05  0 
 1.867205e-03  -1.300206e-04  0 
 1.803412e-03  -1.290287e-04  0 
 1.868421e-03  -1.343460e-04  0 
 1.924851e-03  -1.139598e-04  0 
 1.422490e-03  -1.612036e-04  0 
 1.796469e-03  -1.236881e-04  0 
 2.160934e-03  -1.068638e-04  0 
 1.866935e-03  -2.926577e-05  0 
 2.067348e-03  -9.297276e-05  0 
 2.136532e-03  -8.256736e-05  0 
 2.075509e-03  -1.260013e-04  0 
 2.271868e-03  -3.870615e-05  0 
 2.040611e-03  -1.270971e-04  0 
 1.956059e-03  -1.035980e-04  0 
 2.136999e-03  -7.085642e-05  0 
 2.013307e-03  -6.442196e-05  0 
 1.987375e-03  -1.202370e-04  0 
 1.922390e-03  -7.061518e-06  0 
 1.828436e-03  4.175647e-05  0 
 2.087756e-03  -1.169406e-04  0 
 2.090123e-03  -6.765275e-05  0 
 1.555085e-03  1.286378e-04  0 
 1.621140e-03  1.290859e-04  0 
VECTORS displacement_ITER7 FLOAT
 2.056712e-03  -3.569981e-05  0 
 1.798455e-03  2.741789e-05  0 
 2.213179e-03  -4.690266e-05  0 
 2.159264e-03  -2.610246e-05  0 
 2.119695e-03  -4.083112e-05  0 
 2.096542e-03  -5.396050e-05  0 
 1.749910e-03  -3.750271e-05  0 
 1.914934e-03  -5.309639e-05  0 
 2.123879e-03  -1.160776e-05  0 
 2.197076e-03  -9.104966e-06  0 
 2.019848e-03  -1.485314e-05  0 
 1.995829e-03  -4.197552e-06  0 
 1.976378e-03  1.248945e-05  0 
 1.946169e-03  2.056110e-05  0 
 1.911349e-03  2.561565e-06  0 
 1.873728e-03  -8.347294e-06  0 
 1.835888e-03  -7.572589e-06  0 
 1.330063e-03  -4.025984e-05  0 
 1.519572e-03  -3.212294e-05  0 
 1.680085e-03  1.877172e-06  0 
 1.998417e-03  -5.011071e-05  0 
 1.830001e-03  -5.955264e-05  0 
 1.989616e-03  -5.962611e-05  0 
 2.045129e-03  -6.262161e-05  0 
 2.007596e-03  -4.415778e-05  0 
 2.258621e-03  -3.146895e-05  0 
 2.175943e-03  -4.930095e-05  0 
 2.276245e-03  -1.967313e-06  0 
 2.226289e-03  -6.663962e-06  0 
 2.191888e-03  -2.427516e-05  0 
 2.273011e-03  6.709097e-06  0 
 2.198763e-03  -1.735913e-05  0 
 2.340941e-03  -1.149961e-05  0 
 2.133766e-03  -3.360952e-05  0 
 2.241467e-03  -2.182050e-05  0 
 9.260656e-04  -5.087915e-05  0 
 1.387341e-03  -4.102121e-05  0 
 1.508566e-03  -4.259675e-05  0 
 1.766229e-03  -2.395356e-05  0 
 1.028935e-03  -4.746970e-05  0 
 1.059483e-03  -8.279726e-05  0 
 1.103966e-03  -3.178161e-05  0 
 1.147522e-03  -6.425836e-05  0 
 1.310799e-03  -6.516518e-05  0 
 8.978079e-04  -7.323112e-05  0 
 7.850933e-04  -5.017607e-05  0 
 1.794349e-03  -1.585330e-05  0 
 1.659152e-03  -3.449760e-05  0 
 9.992781e-04  -9.508630e-05  0 
 1.206981e-03  -6.046697e-05  0 
 1.819347e-03  3.939360e-06  0 
 1.274641e-03  -2.987907e-05  0 
 1.483290e-03  -1.429433e-05  0 
 1.674229e-03  -2.292545e-05  0 
 1.633494e-03  -2.873176e-05  0 
 1.373939e-03  -4.676777e-05  0 
 1.618113e-03  -2.516256e-05  0 
 1.512757e-03  -3.964125e-05  0 
 1.661575e-03  -1.137805e-05  0 
 1.239406e-03  -3.961162e-05  0 
 1.494919e-03  -4.160444e-05  0 
 8.095504e-04  -6.873328e-05  0 
 8.843215e-04  -7.464306e-05  0 
 1.303675e-03  -3.812730e-05  0 
 1.454454e-03  -4.391968e-05  0 
 1.651153e-03  -1.960800e-05  0 
 1.487604e-03  -4.113399e-05  0 
 1.351803e-03  -4.466613e-05  0 
 1.747332e-03  -1.007083e-05  0 
 1.798609e-03  1.791093e-06  0 
 1.655727e-03  -2.442354e-05  0 
 1.278371e-03  -7.067533e-05  0 
 1.805032e-03  -4.023921e-06  0 
 1.069471e-03  -7.467234e-05  0 
 1.050403e-03  -4.257588e-05  0 
 1.899064e-03  -1.340032e-05  0 
 1.844516e-03  -3.630647e-05  0 
 1.896209e-03  4.916367e-06  0 
 1.944472e-03  -3.262319e-05  0 
 1.432267e-03  -5.064606e-05  0 
 1.786426e-03  -1.940983e-05  0 
 2.150754e-03  -1.437182e-05  0 
 1.922097e-03  6.349612e-06  0 
 2.110065e-03  4.989228e-05  0 
 2.158834e-03  1.323801e-05  0 
 2.104777e-03  1.904409e-05  0 
 2.202588e-03  -2.414955e-05  0 
 2.063870e-03  -1.774503e-06  0 
 1.997152e-03  2.058046e-05  0 
 2.117822e-03  -2.054402e-05  0 
 2.081779e-03  3.941152e-05  0 
 2.018003e-03  3.154411e-05  0 
 2.001861e-03  2.576250e-05  0 
 1.903236e-03  1.374211e-05  0 
 2.131251e-03  2.483848e-05  0 
 2.072525e-03  -1.718196e-05  0 
 1.420281e-03  -7.572657e-05  0 
 1.582607e-03  -4.238351e-05  0 
VECTORS displacement_ITER8 FLOAT
 2.024636e-03  -2.013822e-05  0 
 1.843367e-03  -4.219013e-05  0 
 2.121392e-03  -9.783714e-05  0 
 2.086153e-03  -4.756071e-05  0 
 2.069155e-03  -3.289164e-05  0 
 2.054817e-03  -3.019134e-05  0 
 1.688598e-03  -3.520987e-05  0 
 1.872517e-03  -3.911501e-05  0 
 2.108802e-03  -7.260828e-07  0 
 2.174036e-03  6.058526e-06  0 
 1.986904e-03  -1.966273e-05  0 
 1.956721e-03  -3.257042e-05  0 
 1.933134e-03  -2.417320e-05  0 
 1.908806e-03  -2.724387e-05  0 
 1.882401e-03  -3.558241e-05  0 
 1.859779e-03  -4.343721e-05  0 
 1.849960e-03  -5.808992e-05  0 
 1.337672e-03  9.060980e-06  0 
 1.532018e-03  -2.255013e-05  0 
 1.710610e-03  -2.938026e-05  0 
 1.960048e-03  -2.705325e-05  0 
 1.787526e-03  -3.284004e-05  0 
 1.951861e-03  -3.277635e-05  0 
 1.984199e-03  -8.552167e-05  0 
 1.961221e-03  -3.271896e-05  0 
 2.216333e-03  -5.459117e-05  0 
 2.148844e-03  -3.979428e-05  0 
 2.221205e-03  -2.526142e-05  0 
 2.166486e-03  -5.182113e-05  0 
 2.174996e-03  -1.721813e-05  0 
 2.215160e-03  -5.420398e-05  0 
 2.155106e-03  -4.291320e-05  0 
 2.258712e-03  -6.777981e-05  0 
 2.111665e-03  -1.927363e-05  0 
 2.199979e-03  -1.459027e-05  0 
 9.119510e-04  -5.560396e-05  0 
 1.363731e-03  -5.647655e-05  0 
 1.460590e-03  -4.790369e-05  0 
 1.752407e-03  -4.628652e-05  0 
 1.040510e-03  -5.202579e-05  0 
 1.025408e-03  -5.519827e-05  0 
 1.104717e-03  -5.341601e-05  0 
 1.144118e-03  -6.408999e-05  0 
 1.300499e-03  -3.123384e-05  0 
 8.791416e-04  -2.442986e-05  0 
 7.873808e-04  -5.580095e-05  0 
 1.728772e-03  -3.996826e-05  0 
 1.633959e-03  -4.565322e-05  0 
 1.027455e-03  -5.789553e-05  0 
 1.205290e-03  -5.295237e-05  0 
 1.770933e-03  -3.161148e-05  0 
 1.230186e-03  -2.707819e-05  0 
 1.424875e-03  -2.970134e-05  0 
 1.598599e-03  -3.975785e-05  0 
 1.626413e-03  -3.368783e-05  0 
 1.352489e-03  -5.221821e-05  0 
 1.579252e-03  -4.857500e-05  0 
 1.487339e-03  -5.446554e-05  0 
 1.594106e-03  -3.484908e-05  0 
 1.230090e-03  -5.207018e-05  0 
 1.470454e-03  -3.600598e-05  0 
 8.321986e-04  -4.999566e-05  0 
 8.491529e-04  -3.703164e-05  0 
 1.287449e-03  -5.868832e-05  0 
 1.444959e-03  -2.220750e-05  0 
 1.598673e-03  -4.143701e-05  0 
 1.460079e-03  -5.936524e-05  0 
 1.334010e-03  -6.020684e-05  0 
 1.761055e-03  -4.699742e-05  0 
 1.738199e-03  -3.193082e-05  0 
 1.626445e-03  -4.895609e-05  0 
 1.254582e-03  -5.574235e-05  0 
 1.768364e-03  -4.030039e-05  0 
 1.047763e-03  -4.474704e-05  0 