# vtk DataFile Version 3.1
this is an vtk file created by FEMAC
ASCII
DATASET UNSTRUCTURED_GRID
POINTS 100 FLOAT
3.000000 2.000000 0.000000
4.000000 2.000000 0.000000
2.875000 2.000000 0.000000
3.000000 1.250000 0.000000
3.000000 1.375000 0.000000
3.000000 1.500000 0.000000
3.000000 1.625000 0.000000
3.000000 1.750000 0.000000
3.000000 1.875000 0.000000
3.000000 2.125000 0.000000
3.000000 2.250000 0.000000
3.125000 2.000000 0.000000
3.250000 2.000000 0.000000
4.000000 1.375000 0.000000
4.000000 1.500000 0.000000
4.000000 1.625000 0.000000
4.000000 1.750000 0.000000
4.000000 1.875000 0.000000
4.125000 2.000000 0.000000
4.250000 2.000000 0.000000
2.754774 1.780890 0.000000
2.771018 1.478474 0.000000
2.825317 1.332172 0.000000
2.865490 1.714091 0.000000
2.740986 1.916227 0.000000
2.881964 1.853387 0.000000
2.905669 1.420533 0.000000
2.761292 1.685406 0.000000
2.836879 1.610317 0.000000
2.939241 1.932097 0.000000
2.902713 1.526865 0.000000
2.924579 1.317116 0.000000
2.881442 2.147498 0.000000
2.939111 2.068124 0.000000
3.467191 1.477297 0.000000
3.754883 1.291346 0.000000
3.294470 1.788729 0.000000
3.736986 1.783332 0.000000
3.245228 1.222936 0.000000
3.524819 1.212966 0.000000
3.240863 1.486968 0.000000
3.839655 1.563130 0.000000
3.568823 1.581043 0.000000
3.340760 1.292527 0.000000
3.341034 1.666943 0.000000
3.892834 1.445219 0.000000
3.134305 1.289772 0.000000
3.730500 1.888995 0.000000
3.112573 1.665164 0.000000
3.871740 1.796919 0.000000
3.116430 1.487252 0.000000
3.604344 1.468142 0.000000
3.353085 1.477179 0.000000
3.655877 1.223638 0.000000
3.449078 1.635832 0.000000
3.243804 1.670923 0.000000
3.084872 1.573281 0.000000
3.373279 1.380850 0.000000
3.290137 1.392452 0.000000
3.660152 1.685768 0.000000
3.874315 1.345008 0.000000
3.783262 1.687140 0.000000
3.748998 1.430315 0.000000
3.392759 1.553618 0.000000
3.169714 1.391002 0.000000
3.467288 1.334890 0.000000
3.183711 1.576963 0.000000
3.913932 1.656467 0.000000
3.232984 1.316956 0.000000
3.783203 1.173413 0.000000
3.295770 1.567697 0.000000
3.530806 1.727155 0.000000
3.141262 1.792913 0.000000
3.629321 1.794056 0.000000
3.696943 1.572881 0.000000
3.614136 1.334857 0.000000
3.102755 1.909923 0.000000
3.208989 1.897339 0.000000
3.421061 1.778938 0.000000
3.340447 1.892472 0.000000
3.536263 1.400901 0.000000
3.428456 1.250873 0.000000
3.871207 1.926819 0.000000
3.124877 2.193017 0.000000
3.188322 2.098997 0.000000
3.082758 2.076816 0.000000
4.234303 1.769569 0.000000
4.113302 1.850007 0.000000
4.239491 1.499097 0.000000
4.324057 1.713565 0.000000
4.340038 1.853141 0.000000
4.128026 1.708247 0.000000
4.243284 1.909732 0.000000
4.103134 1.499690 0.000000
4.287202 1.599678 0.000000
4.164688 1.601513 0.000000
4.227655 1.678514 0.000000
4.059575 1.931252 0.000000
4.164914 2.100101 0.000000
4.079104 2.094428 0.000000
CELLS 157 628 
3 20 25 24
3 23 25 20
3 25  2 24
3 7 23  6
3 8 25  7
3 7 25 23
3 5 26  4
3 27 23 20
3 2 29  0
3 8 29 25
3 29  8  0
3 29  2 25
3 27 28 23
3 28  6 23
3 26 21 22
3 30  5  6
3 28 30  6
3 5 30 26
3 31  3  4
3 30 21 26
3 28 21 30
3 26 31  4
3 26 22 31
3 32  9 10
3 33  2  0
3 33  9 32
3 9 33  0
3 2 33 32
3 14 45 13
3 6 48  7
3 37 49 47
3 3 46  4
3 17 49 16
3 51 42 34
3 42 54 34
3 55 44 36
3 5 56  6
3 56 48  6
3 56  5 50
3 57 34 52
3 40 58 52
3 45 60 13
3 37 61 49
3 34 63 52
3 44 63 54
3 63 34 54
3 64 40 50
3 40 64 58
3 40 66 50
3 48 66 55
3 67 49 61
3 49 67 16
3 43 68 38
3 68 46 38
3 68 43 58
3 70 40 52
3 70 44 55
3 71 42 59
3 42 71 54
3 73 37 47
3 74 42 51
3 75 39 53
3 8 76  0
3 76 11  0
3 67 15 16
3 56 66 48
3 56 50 66
3 65 57 43
3 74 62 41
3 51 62 74
3 57 58 43
3 57 52 58
3 70 63 44
3 52 63 70
3 74 59 42
3 70 66 40
3 55 66 70
3 68 64 46
3 58 64 68
3 37 73 59
3 69 35 53
3 36 72 55
3 72 48 55
3 60 62 35
3 41 62 45
3 45 62 60
3 5  4 50
3 64  4 46
3 50  4 64
3 37 59 61
3 74 41 61
3 61 59 74
3 77 72 36
3 61 41 67
3 45 14 41
3 48 72  7
3 72  8  7
3 72 76  8
3 75 53 35
3 35 62 75
3 75 62 51
3 78 44 54
3 78 36 44
3 78 54 71
3 15 41 14
3 15 67 41
3 36 79 77
3 36 78 79
3 12 77 79
3 34 57 65
3 39 75 65
3 34 80 51
3 75 80 65
3 80 75 51
3 80 34 65
3 11 77 12
3 11 76 77
3 77 76 72
3 81 65 43
3 65 81 39
3 82 17  1
3 49 82 47
3 82 49 17
3 84 11 12
3 83 10  9
3 85  9  0
3 85 11 84
3 11 85  0
3 85 83  9
3 84 83 85
3 87 17 16
3 91 86 87
3 86 92 87
3 89 90 86
3 92 18 87
3 87 16 91
3 91 16 15
3 92 19 18
3 92 86 90
3 88 95 93
3 95 88 94
3 96 89 86
3 91 96 86
3 89 96 94
3 95 96 91
3 95 94 96
3 14 13 93
3 15 14 93
3 15 95 91
3 15 93 95
3 17 97  1
3 18 97 87
3 97 18  1
3 97 17 87
3 19 98 18
3 99 18 98
3 18 99  1
CELL_TYPES 157
5 5 5 5 5 5 5 5 5 5 5 5 5 5 5 5 5 5 5 5 5 5 5 5 5 5 5 5 5 5 5 5 5 5 5 5 5 5 5 5 5 5 5 5 5 5 5 5 5 5 5 5 5 5 5 5 5 5 5 5 5 5 5 5 5 5 5 5 5 5 5 5 5 5 5 5 5 5 5 5 5 5 5 5 5 5 5 5 5 5 5 5 5 5 5 5 5 5 5 5 5 5 5 5 5 5 5 5 5 5 5 5 5 5 5 5 5 5 5 5 5 5 5 5 5 5 5 5 5 5 5 5 5 5 5 5 5 5 5 5 5 5 5 5 5 5 5 5 5 5 5 5 5 5 5 5 5 
POINT_DATA 100
VECTORS displacement_ITER1 FLOAT
 2.849283e-03  1.239080e-03  0 
 5.766695e-04  -4.363588e-04  0 
 2.883380e-03  1.593180e-03  0 
 7.928556e-04  8.051934e-04  0 
 1.175131e-03  8.477402e-04  0 
 1.528420e-03  9.302179e-04  0 
 1.854187e-03  9.953122e-04  0 
 2.162962e-03  1.076236e-03  0 
 2.486111e-03  1.170931e-03  0 
 3.155232e-03  1.286797e-03  0 
 3.407554e-03  1.321013e-03  0 
 2.759861e-03  8.831354e-04  0 
 2.678897e-03  5.646648e-04  0 
 1.005634e-03  -7.716031e-04  0 
 1.044393e-03  -7.482392e-04  0 
 1.033464e-03  -7.163452e-04  0 
 8.953829e-04  -6.082100e-04  0 
 7.805339e-04  -5.063034e-04  0 
 5.545490e-04  -3.592842e-04  0 
 5.134450e-04  -2.827173e-04  0 
 2.408889e-03  1.831957e-03  0 
 1.588168e-03  1.632829e-03  0 
 1.119746e-03  1.413683e-03  0 
 2.160855e-03  1.461927e-03  0 
 2.737330e-03  1.938062e-03  0 
 2.517136e-03  1.505897e-03  0 
 1.366063e-03  1.181958e-03  0 
 2.141141e-03  1.759188e-03  0 
 1.905600e-03  1.493713e-03  0 
 2.684902e-03  1.393588e-03  0 
 1.649300e-03  1.244353e-03  0 
 1.024261e-03  1.070606e-03  0 
 3.232738e-03  1.590741e-03  0 
 3.038535e-03  1.429076e-03  0 
 1.136490e-03  -5.601464e-04  0 
 9.446390e-04  -8.408006e-04  0 
 1.999937e-03  2.488170e-04  0 
 1.070660e-03  -6.671987e-04  0 
 6.369793e-04  -1.299233e-05  0 
 7.635891e-04  -6.028064e-04  0 
 1.336699e-03  1.636643e-04  0 
 1.082730e-03  -7.940345e-04  0 
 1.218886e-03  -6.963260e-04  0 
 7.857269e-04  -2.776386e-04  0 
 1.696039e-03  1.138189e-05  0 
 1.043795e-03  -7.919221e-04  0 
 8.694195e-04  3.827336e-04  0 
 8.944151e-04  -6.091005e-04  0 
 1.878517e-03  6.825412e-04  0 
 9.586048e-04  -6.148236e-04  0 
 1.414418e-03  5.402019e-04  0 
 1.106202e-03  -7.670399e-04  0 
 1.226086e-03  -2.210771e-04  0 
 8.420612e-04  -7.458635e-04  0 
 1.489705e-03  -3.203102e-04  0 
 1.792123e-03  2.752710e-04  0 
 1.673619e-03  7.038270e-04  0 
 9.785564e-04  -3.529823e-04  0 
 1.050682e-03  -6.731701e-05  0 
 1.269875e-03  -7.466621e-04  0 
 1.031753e-03  -8.252893e-04  0 
 1.166077e-03  -7.315664e-04  0 
 1.072079e-03  -8.843689e-04  0 
 1.384357e-03  -2.741985e-04  0 
 1.132465e-03  3.211220e-04  0 
 8.938969e-04  -5.606567e-04  0 
 1.611378e-03  3.932399e-04  0 
 1.076859e-03  -7.310312e-04  0 
 8.976877e-04  6.777719e-05  0 
 7.255442e-04  -8.990274e-04  0 
 1.515718e-03  4.473894e-05  0 
 1.569885e-03  -3.863956e-04  0 
 2.163468e-03  6.917643e-04  0 
 1.105629e-03  -7.141352e-04  0 
 1.166450e-03  -8.275038e-04  0 
 9.360617e-04  -7.586113e-04  0 
 2.530085e-03  8.778613e-04  0 
 2.418547e-03  5.959442e-04  0 
 1.850538e-03  -6.066870e-05  0 
 2.287127e-03  2.236346e-04  0 
 1.007761e-03  -6.725903e-04  0 
 7.630790e-04  -4.463110e-04  0 
 7.695562e-04  -5.507888e-04  0 
 3.257373e-03  1.007702e-03  0 
 2.995411e-03  7.822769e-04  0 
 3.005011e-03  1.056869e-03  0 
 7.003574e-04  -4.061115e-04  0 
 7.138920e-04  -4.360838e-04  0 
 9.542589e-04  -5.473178e-04  0 
 7.022404e-04  -3.496895e-04  0 
 5.800034e-04  -2.682793e-04  0 
 8.359684e-04  -5.317286e-04  0 
 5.939096e-04  -3.172218e-04  0 
 1.023092e-03  -7.087279e-04  0 
 8.727797e-04  -4.469935e-04  0 
 9.301726e-04  -5.815042e-04  0 
 7.980873e-04  -4.729416e-04  0 
 6.565150e-04  -4.106627e-04  0 
 4.055266e-04  -3.025707e-04  0 
 4.345217e-04  -3.719098e-04  0 
VECTORS displacement_ITER2 FLOAT
 2.652539e-03  2.383134e-04  0 
 4.906087e-04  5.134168e-04  0 
 2.659366e-03  3.096249e-04  0 
 2.167528e-03  -2.767390e-04  0 
 2.341183e-03  -2.087391e-04  0 
 2.442991e-03  -9.922154e-05  0 
 2.509122e-03  -8.856807e-06  0 
 2.562066e-03  8.804008e-05  0 
 2.588462e-03  1.844009e-04  0 
 2.604682e-03  2.749393e-04  0 
 2.458340e-03  2.800893e-04  0 
 2.563635e-03  1.926512e-04  0 
 2.484394e-03  1.965316e-04  0 
 1.783669e-03  5.763605e-05  0 
 1.562648e-03  1.235693e-04  0 
 1.399121e-03  2.035560e-04  0 
 1.095048e-03  3.328357e-04  0 
 8.156211e-04  4.468961e-04  0 
 4.835850e-04  6.832858e-04  0 
 4.309517e-04  8.678819e-04  0 
 2.735918e-03  3.035246e-04  0 
 2.588158e-03  1.276407e-04  0 
 2.375999e-03  1.163859e-05  0 
 2.648275e-03  1.820325e-04  0 
 2.710713e-03  3.575791e-04  0 
 2.672048e-03  2.609448e-04  0 
 2.460558e-03  -5.557582e-05  0 
 2.699072e-03  2.459060e-04  0 
 2.613554e-03  1.406878e-04  0 
 2.644590e-03  2.716984e-04  0 
 2.528070e-03  1.987693e-05  0 
 2.301166e-03  -1.382017e-04  0 
 2.584950e-03  2.615058e-04  0 
 2.643421e-03  2.736242e-04  0 
 1.935405e-03  -5.778024e-04  0 
 1.973541e-03  -3.166937e-04  0 
 2.283142e-03  -3.176548e-05  0 
 1.266936e-03  -4.498918e-05  0 
 2.005026e-03  -6.040904e-04  0 
 2.018390e-03  -6.189585e-04  0 
 2.209261e-03  -3.205051e-04  0 
 1.588067e-03  -7.625760e-05  0 
 1.789891e-03  -4.614269e-04  0 
 1.979356e-03  -6.344601e-04  0 
 2.199160e-03  -1.909530e-04  0 
 1.711141e-03  -7.555066e-05  0 
 2.150505e-03  -4.085138e-04  0 
 9.496759e-04  2.542196e-05  0 
 2.433628e-03  -5.182617e-05  0 
 1.111527e-03  1.896272e-04  0 
 2.329305e-03  -2.213281e-04  0 
 1.865937e-03  -5.067265e-04  0 
 2.065623e-03  -4.767188e-04  0 
 2.034639e-03  -4.652293e-04  0 
 2.002922e-03  -3.189757e-04  0 
 2.312545e-03  -1.436856e-04  0 
 2.418168e-03  -1.126133e-04  0 
 1.987785e-03  -6.013620e-04  0 
 2.071068e-03  -4.923291e-04  0 
 1.623945e-03  -2.741614e-04  0 
 1.928256e-03  -1.739800e-04  0 
 1.486405e-03  -6.361704e-05  0 
 1.835054e-03  -3.385280e-04  0 
 2.069152e-03  -4.201069e-04  0 
 2.210054e-03  -3.562425e-04  0 
 1.945520e-03  -6.386662e-04  0 
 2.328016e-03  -1.883134e-04  0 
 1.417622e-03  1.000948e-04  0 
 2.087589e-03  -5.111656e-04  0 
 2.573805e-03  7.694453e-05  0 
 2.214431e-03  -2.880420e-04  0 
 1.893078e-03  -1.839270e-04  0 
 2.456822e-03  4.515566e-05  0 
 1.309808e-03  -2.715100e-04  0 
 1.695543e-03  -3.255642e-04  0 
 1.920506e-03  -5.364642e-04  0 
 2.560141e-03  1.320148e-04  0 
 2.479574e-03  1.222025e-04  0 
 2.129086e-03  -5.791391e-05  0 
 2.348794e-03  6.468949e-05  0 
 1.912760e-03  -5.792827e-04  0 
 1.991321e-03  -6.450725e-04  0 
 7.526657e-04  2.739211e-04  0 
 2.517636e-03  3.110303e-04  0 
 2.527691e-03  2.523112e-04  0 
 2.597371e-03  2.594709e-04  0 
 8.395820e-04  7.344003e-04  0 
 7.715476e-04  6.105073e-04  0 
 1.386365e-03  5.034191e-04  0 
 8.688865e-04  8.331894e-04  0 
 6.505570e-04  9.391788e-04  0 
 1.068356e-03  5.063298e-04  0 
 6.083494e-04  8.193462e-04  0 
 1.501695e-03  2.425787e-04  0 
 1.168762e-03  6.789718e-04  0 
 1.268818e-03  4.488216e-04  0 
 1.029054e-03  6.347440e-04  0 
 6.392740e-04  5.917388e-04  0 
 2.538494e-04  7.839127e-04  0 
 2.899907e-04  6.235581e-04  0 
VECTORS displacement_ITER3 FLOAT
 1.422745e-03  1.315123e-04  0 
 2.720950e-03  3.820392e-04  0 
 1.396955e-03  -8.611889e-05  0 
 2.924958e-03  -1.377464e-04  0 
 2.818740e-03  -3.878474e-05  0 
 2.621379e-03  4.857757e-05  0 
 2.394007e-03  1.308867e-04  0 
 2.150154e-03  1.796673e-04  0 
 1.805204e-03  1.675249e-04  0 
 9.724367e-04  1.194676e-04  0 
 4.663283e-04  3.582402e-05  0 
 1.440808e-03  4.094812e-04  0 
 1.469783e-03  6.717970e-04  0 
 1.434972e-03  3.293760e-04  0 
 1.579738e-03  4.319531e-04  0 
 1.781225e-03  5.170798e-04  0 
 2.023057e-03  4.636873e-04  0 
 2.333506e-03  4.324546e-04  0 
 2.806785e-03  -9.522161e-05  0 
 2.822041e-03  -4.467763e-04  0 
 2.084953e-03  -3.271615e-04  0 
 2.792619e-03  -3.464957e-04  0 
 2.955609e-03  -2.988258e-04  0 
 2.273710e-03  -8.774432e-05  0 
 1.647252e-03  -3.731259e-04  0 
 1.858125e-03  -4.768718e-05  0 
 2.816111e-03  -1.479015e-04  0 
 2.373836e-03  -3.198288e-04  0 
 2.499083e-03  -1.828974e-04  0 
 1.617255e-03  4.383899e-05  0 
 2.638096e-03  -9.496828e-05  0 
 2.927299e-03  -1.694729e-04  0 
 8.080755e-04  -1.926997e-04  0 
 1.172341e-03  5.884612e-06  0 
 2.211320e-03  8.026936e-04  0 
 1.791157e-03  5.209015e-04  0 
 2.041355e-03  7.762861e-04  0 
 2.105336e-03  1.115112e-03  0 
 2.725204e-03  2.123537e-04  0 
 2.163118e-03  4.157358e-04  0 
 2.433403e-03  5.318763e-04  0 
 1.789177e-03  8.239399e-04  0 
 2.093630e-03  9.788720e-04  0 
 2.516680e-03  4.577304e-04  0 
 2.176697e-03  8.171974e-04  0 
 1.616619e-03  6.102878e-04  0 
 2.780435e-03  1.216123e-04  0 
 2.343458e-03  1.148482e-03  0 
 2.264878e-03  3.899380e-04  0 
 2.118587e-03  8.194831e-04  0 
 2.558417e-03  2.925405e-04  0 
 2.026069e-03  8.490571e-04  0 
 2.319739e-03  6.842492e-04  0 
 1.939077e-03  4.364536e-04  0 
 2.135207e-03  8.830788e-04  0 
 2.211332e-03  6.708715e-04  0 
 2.428454e-03  2.793166e-04  0 
 2.383676e-03  6.135940e-04  0 
 2.467640e-03  4.986574e-04  0 
 1.989983e-03  1.097837e-03  0 
 1.579238e-03  5.130007e-04  0 
 1.899813e-03  1.006661e-03  0 
 1.791379e-03  7.656900e-04  0 
 2.216835e-03  7.935672e-04  0 
 2.619579e-03  2.960767e-04  0 
 2.278466e-03  6.105780e-04  0 
 2.358920e-03  5.061341e-04  0 
 1.816778e-03  7.011372e-04  0 
 2.626752e-03  3.092876e-04  0 
 1.773550e-03  3.528007e-04  0 
 2.284068e-03  6.969426e-04  0 
 2.018326e-03  1.021648e-03  0 
 2.039782e-03  4.815242e-04  0 
 2.162830e-03  1.153818e-03  0 
 1.947844e-03  9.778952e-04  0 
 2.033309e-03  6.270172e-04  0 
 1.725845e-03  3.768425e-04  0 
 1.777965e-03  6.110820e-04  0 
 2.040413e-03  9.421104e-04  0 
 1.804223e-03  8.509631e-04  0 
 2.152722e-03  7.277056e-04  0 
 2.346013e-03  4.308014e-04  0 
 2.447240e-03  8.119818e-04  0 
 7.748928e-04  3.551065e-04  0 
 1.097408e-03  5.129598e-04  0 
 1.150212e-03  2.994915e-04  0 
 2.181570e-03  -2.581571e-04  0 
 2.301900e-03  5.999487e-05  0 
 1.446904e-03  -3.264593e-04  0 
 2.020885e-03  -5.904414e-04  0 
 2.508197e-03  -7.031479e-04  0 
 1.994259e-03  9.125766e-05  0 
 2.591549e-03  -4.158850e-04  0 
 1.496451e-03  1.772717e-04  0 
 1.676696e-03  -4.601894e-04  0 
 1.724248e-03  -2.256588e-05  0 
 1.920553e-03  -2.261187e-04  0 
 2.532059e-03  2.048667e-04  0 
 3.156814e-03  -2.235856e-04  0 
 3.127510e-03  1.011350e-05  0 
VECTORS displacement_ITER4 FLOAT
 2.617640e-03  5.177931e-05  0 
 1.619347e-03  -9.772532e-05  0 
 2.672742e-03  2.276600e-04  0 
 2.280668e-03  3.831392e-05  0 
 2.481260e-03  4.282243e-05  0 
 2.566602e-03  5.435181e-05  0 
 2.589845e-03  4.450626e-05  0 
 2.585742e-03  6.992641e-05  0 
 2.601676e-03  6.451345e-05  0 
 2.613320e-03  5.373660e-05  0 
 2.351204e-03  -1.024378e-04  0 
 2.610384e-03  -2.189792e-05  0 
 2.612071e-03  -4.044058e-05  0 
 2.008760e-03  -2.229680e-04  0 
 2.029816e-03  -1.811823e-04  0 
 2.125538e-03  -1.470339e-04  0 
 2.054049e-03  -1.759776e-04  0 
 1.924259e-03  -1.447877e-04  0 
 1.636416e-03  -2.024687e-04  0 
 1.577542e-03  -8.746332e-05  0 
 2.677253e-03  3.129316e-04  0 
 2.507139e-03  3.193225e-04  0 
 2.384355e-03  3.622925e-04  0 
 2.634821e-03  1.460801e-04  0 
 2.697260e-03  4.016078e-04  0 
 2.608137e-03  1.687375e-04  0 
 2.529157e-03  1.676226e-04  0 
 2.649233e-03  2.941743e-04  0 
 2.590599e-03  1.736799e-04  0 
 2.613207e-03  1.155550e-04  0 
 2.568742e-03  1.312379e-04  0 
 2.396985e-03  1.721048e-04  0 
 2.441707e-03  7.435715e-05  0 
 2.621468e-03  1.562662e-04  0 
 2.308017e-03  -2.882705e-04  0 
 2.129913e-03  -3.295565e-04  0 
 2.550399e-03  -3.981648e-05  0 
 2.084005e-03  -1.040230e-04  0 
 2.201833e-03  -2.276769e-04  0 
 2.192202e-03  -3.573826e-04  0 
 2.463521e-03  -8.280808e-05  0 
 2.133190e-03  -1.486691e-04  0 
 2.272647e-03  -2.628080e-04  0 
 2.243573e-03  -2.611156e-04  0 
 2.521057e-03  -6.647759e-05  0 
 2.071166e-03  -2.034988e-04  0 
 2.326400e-03  -9.738010e-05  0 
 1.955259e-03  -1.090913e-04  0 
 2.557694e-03  4.524574e-06  0 
 2.058256e-03  -1.074498e-04  0 
 2.533045e-03  -3.183657e-05  0 
 2.254849e-03  -2.902637e-04  0 
 2.377294e-03  -2.075632e-04  0 
 2.155896e-03  -3.651223e-04  0 
 2.400376e-03  -1.633228e-04  0 
 2.552606e-03  -4.395889e-05  0 
 2.571740e-03  -5.848336e-07  0 
 2.300851e-03  -2.678973e-04  0 
 2.346769e-03  -1.861150e-04  0 
 2.209660e-03  -2.124451e-04  0 
 2.095467e-03  -2.713177e-04  0 
 2.137257e-03  -1.127809e-04  0 
 2.176115e-03  -2.830621e-04  0 
 2.407690e-03  -1.962987e-04  0 
 2.436305e-03  -9.862489e-05  0 
 2.254654e-03  -3.154476e-04  0 
 2.538318e-03  -2.217776e-05  0 
 2.105037e-03  -1.542791e-04  0 
 2.319427e-03  -1.893698e-04  0 
 2.385359e-03  -1.648990e-04  0 
 2.494457e-03  -9.081571e-05  0 
 2.356752e-03  -1.173540e-04  0 
 2.579345e-03  -1.610624e-05  0 
 2.076887e-03  -2.724396e-04  0 
 2.224927e-03  -2.361795e-04  0 
 2.202091e-03  -3.362963e-04  0 
 2.605968e-03  -6.273108e-06  0 
 2.596634e-03  -2.789228e-05  0 
 2.507643e-03  -1.533223e-05  0 
 2.581198e-03  -2.610299e-05  0 
 2.259600e-03  -3.083133e-04  0 
 2.222503e-03  -2.942784e-04  0 
 1.864184e-03  -8.803331e-05  0 
 2.616220e-03  -5.351342e-05  0 
 2.608048e-03  -5.460753e-05  0 
 2.604498e-03  -9.369751e-06  0 
 2.013945e-03  -1.665741e-04  0 
 1.920087e-03  -1.815168e-04  0 
 1.905357e-03  -3.516806e-04  0 
 1.985373e-03  -2.158828e-04  0 
 1.870004e-03  -1.032793e-04  0 
 2.099911e-03  -1.809527e-04  0 
 1.816379e-03  -1.393475e-04  0 
 1.987423e-03  -2.250474e-04  0 
 1.966245e-03  -3.101610e-04  0 
 2.059076e-03  -2.281709e-04  0 
 2.055906e-03  -2.154057e-04  0 
 1.764487e-03  -1.330053e-04  0 
 1.278593e-03  -1.299251e-04  0 
 1.339280e-03  -1.919032e-04  0 
VECTORS displacement_ITER5 FLOAT
 2.042538e-03  1.711775e-04  0 
 1.699471e-03  1.700915e-04  0 
 2.218593e-03  2.829141e-04  0 
 2.323640e-03  -9.488918e-05  0 
 2.381833e-03  -9.078320e-05  0 
 2.362993e-03  -5.326399e-05  0 
 2.281520e-03  -2.429318e-05  0 
 2.174450e-03  3.867836e-05  0 
 2.130738e-03  8.240658e-05  0 
 2.012673e-03  2.604421e-04  0 
 1.826670e-03  2.096219e-04  0 
 1.972671e-03  8.154188e-05  0 
 1.916330e-03  -2.396875e-05  0 
 2.072927e-03  3.635598e-05  0 
 2.027099e-03  6.954194e-05  0 
 2.016011e-03  1.012330e-04  0 
 1.957689e-03  1.017185e-04  0 
 1.863130e-03  1.318796e-04  0 
 1.749719e-03  2.002895e-05  0 
 1.872713e-03  -8.742999e-05  0 
 2.355429e-03  2.139767e-04  0 
 2.393460e-03  1.012424e-04  0 
 2.364492e-03  1.218427e-04  0 
 2.297874e-03  5.363853e-05  0 
 2.346755e-03  3.711898e-04  0 
 2.196639e-03  1.409120e-04  0 
 2.414217e-03  -5.961998e-06  0 
 2.376922e-03  1.536520e-04  0 
 2.353273e-03  3.202561e-05  0 
 2.143689e-03  1.385497e-04  0 
 2.373301e-03  -1.110789e-05  0 
 2.364626e-03  -1.513862e-05  0 
 1.953272e-03  3.132679e-04  0 
 2.076318e-03  3.125804e-04  0 
 2.224305e-03  1.360538e-06  0 
 2.158435e-03  3.756922e-05  0 
 2.061510e-03  -4.156756e-05  0 
 2.000838e-03  1.148557e-04  0 
 2.308401e-03  -9.427668e-05  0 
 2.230234e-03  -5.944580e-05  0 
 2.264657e-03  -6.072364e-05  0 
 2.078795e-03  8.919274e-05  0 
 2.150979e-03  3.971225e-05  0 
 2.291151e-03  -4.320669e-05  0 
 2.141960e-03  -2.278838e-05  0 
 2.087387e-03  5.225899e-05  0 
 2.323154e-03  -1.288198e-04  0 
 1.929315e-03  1.176995e-04  0 
 2.185044e-03  -3.227947e-05  0 
 1.970610e-03  1.306219e-04  0 
 2.317795e-03  -9.359632e-05  0 
 2.193369e-03  3.428107e-05  0 
 2.242523e-03  -3.820960e-05  0 
 2.189112e-03  -1.977035e-06  0 
 2.135937e-03  -8.005054e-07  0 
 2.150228e-03  -4.429916e-05  0 
 2.282124e-03  -6.178395e-05  0 
 2.279911e-03  -3.404438e-05  0 
 2.288151e-03  -6.034298e-05  0 
 2.064199e-03  8.893258e-05  0 
 2.119708e-03  2.954004e-05  0 
 2.039170e-03  1.148636e-04  0 
 2.144328e-03  5.930872e-05  0 
 2.193349e-03  -2.197023e-05  0 
 2.328756e-03  -1.119552e-04  0 
 2.263219e-03  -2.697333e-05  0 
 2.229906e-03  -5.243282e-05  0 
 2.013997e-03  1.013920e-04  0 
 2.309339e-03  -9.779939e-05  0 
 2.497982e-03  2.603117e-04  0 
 2.208928e-03  -4.065830e-05  0 
 2.059878e-03  3.360804e-05  0 
 2.093131e-03  -2.101026e-05  0 
 2.008974e-03  7.480105e-05  0 
 2.121187e-03  8.713120e-05  0 
 2.194929e-03  2.818213e-06  0 
 2.024112e-03  6.179916e-05  0 
 1.971356e-03  -2.233423e-05  0 
 2.057133e-03  9.035373e-06  0 
 1.945986e-03  -3.261226e-05  0 
 2.221989e-03  9.623733e-06  0 
 2.266573e-03  -3.961085e-05  0 
 1.849740e-03  1.570787e-04  0 
 1.952469e-03  1.433989e-04  0 
 1.903859e-03  5.373832e-05  0 
 1.955546e-03  1.415148e-04  0 
 1.893371e-03  6.774271e-05  0 
 1.846791e-03  1.052173e-04  0 
 1.955167e-03  3.880355e-05  0 
 1.914758e-03  5.577443e-05  0 
 1.898816e-03  1.159323e-05  0 
 1.964632e-03  8.835102e-05  0 
 1.861588e-03  1.770134e-05  0 
 1.988472e-03  6.763760e-05  0 
 1.962155e-03  3.126884e-05  0 
 1.982093e-03  6.859189e-05  0 
 1.956921e-03  5.519346e-05  0 
 1.770046e-03  1.356433e-04  0 
 1.658331e-03  -1.229621e-04  0 
 1.610856e-03  2.483333e-05  0 
VECTORS displacement_ITER6 FLOAT
 2.028049e-03  9.778139e-05  0 
 1.873937e-03  1.674348e-05  0 
 2.154456e-03  1.027930e-04  0 
 2.249848e-03  -2.035390e-05  0 
 2.318594e-03  -2.726326e-05  0 
 2.303677e-03  -1.566925e-05  0 
 2.264519e-03  1.314752e-06  0 
 2.192566e-03  3.673411e-05  0 
 2.145847e-03  4.455470e-05  0 
 1.908068e-03  1.476516e-04  0 
 1.656967e-03  1.050572e-04  0 
 1.987875e-03  8.098816e-05  0 
 1.953169e-03  4.693215e-05  0 
 2.115983e-03  -7.569248e-05  0 
 2.128506e-03  -6.302735e-05  0 
 2.110483e-03  -5.303333e-05  0 
 2.075655e-03  -4.372734e-05  0 
 2.010859e-03  -1.218112e-05  0 
 1.870652e-03  -1.136140e-05  0 
 1.881448e-03  -4.421933e-06  0 
 2.296410e-03  8.577102e-06  0 
 2.330532e-03  -4.406878e-05  0 
 2.275253e-03  1.060363e-05  0 
 2.277619e-03  -2.137476e-05  0 
 2.249580e-03  8.335532e-05  0 
 2.179648e-03  3.294081e-05  0 
 2.332955e-03  -4.006712e-05  0 
 2.339533e-03  -2.220813e-05  0 
 2.324005e-03  -5.371727e-05  0 
 2.128266e-03  4.179557e-05  0 
 2.317650e-03  -4.739242e-05  0 
 2.291648e-03  -1.128971e-05  0 
 1.846035e-03  1.294978e-04  0 
 1.994657e-03  1.602118e-04  0 
 2.190862e-03  8.912057e-05  0 
 2.085176e-03  -3.239185e-05  0 
 2.138173e-03  6.708894e-05  0 
 2.121814e-03  -3.617272e-05  0 
 2.230924e-03  2.693936e-05  0 
 2.090307e-03  1.337097e-05  0 
 2.236589e-03  6.553430e-05  0 
 2.150769e-03  -5.903366e-05  0 
 2.171228e-03  3.850655e-05  0 
 2.212465e-03  7.412081e-05  0 
 2.184761e-03  9.181975e-05  0 
 2.147429e-03  -6.297943e-05  0 
 2.260614e-03  -9.178915e-06  0 
 2.063639e-03  -4.051400e-05  0 
 2.201823e-03  3.609412e-05  0 
 2.100111e-03  -3.522323e-05  0 
 2.277717e-03  1.107394e-05  0 
 2.181676e-03  3.473953e-05  0 
 2.209328e-03  7.664669e-05  0 
 2.058345e-03  1.277911e-05  0 
 2.165853e-03  8.467838e-05  0 
 2.189078e-03  6.578474e-05  0 
 2.256151e-03  1.046816e-05  0 
 2.218839e-03  7.794617e-05  0 
 2.230785e-03  6.313741e-05  0 
 2.139832e-03  -8.730394e-06  0 
 2.095652e-03  -4.947196e-05  0 
 2.139701e-03  -3.569336e-05  0 
 2.151731e-03  -2.785266e-05  0 
 2.188003e-03  8.253483e-05  0 
 2.272482e-03  1.544165e-05  0 
 2.189140e-03  6.342149e-05  0 
 2.223983e-03  5.576358e-05  0 
 2.115807e-03  -5.487350e-05  0 
 2.240695e-03  2.847836e-05  0 
 2.052535e-03  -2.459032e-05  0 
 2.208865e-03  8.210669e-05  0 
 2.131683e-03  4.403107e-05  0 
 2.148928e-03  3.682113e-05  0 
 2.122443e-03  -2.178332e-05  0 
 2.171102e-03  -3.483350e-06  0 
 2.127443e-03  3.069178e-05  0 
 2.059773e-03  7.046008e-05  0 
 2.034604e-03  4.470776e-05  0 
 2.138312e-03  1.062837e-04  0 
 2.026311e-03  7.288351e-05  0 
 2.166439e-03  6.729782e-05  0 
 2.154158e-03  5.091991e-05  0 
 1.999339e-03  -2.099905e-05  0 
 1.804098e-03  1.091670e-04  0 
 1.858935e-03  7.540259e-05  0 
 1.911133e-03  9.914081e-05  0 
 1.992982e-03  -1.110138e-05  0 
 1.984024e-03  -1.169867e-05  0 
 2.109240e-03  -1.730720e-07  0 
 2.000610e-03  3.084168e-05  0 
 1.926413e-03  5.705667e-05  0 
 2.061100e-03  -3.686116e-05  0 
 1.924720e-03  1.127394e-05  0 
 2.106835e-03  -5.645878e-05  0 
 2.091172e-03  -1.633865e-06  0 
 2.083916e-03  -4.410938e-05  0 
 2.046981e-03  -3.143443e-05  0 
 1.930367e-03  1.005387e-05  0 
 1.760074e-03  -2.927211e-05  0 
 1.771353e-03  -9.556930e-06  0 
VECTORS displacement_ITER7 FLOAT
 2.058479e-03  5.004438e-05  0 
 1.876002e-03  6.498037e-05  0 
 2.119580e-03  5.113101e-06  0 
 2.216871e-03  2.462846e-05  0 
 2.314403e-03  5.372582e-06  0 
 2.321903e-03  9.349868e-06  0 
 2.297462e-03  9.424446e-06  0 
 2.253856e-03  2.174891e-05  0 
 2.180610e-03  2.002987e-05  0 
 1.889788e-03  5.574360e-05  0 
 1.601657e-03  3.131966e-05  0 
 2.027588e-03  5.677552e-05  0 
 1.989383e-03  6.951456e-05  0 
 2.068300e-03  -2.565580e-05  0 
 2.073118e-03  -8.857439e-06  0 
 2.058512e-03  6.954226e-06  0 
 2.016858e-03  1.944993e-05  0 
 1.975988e-03  4.553904e-05  0 
 1.870757e-03  3.741696e-05  0 
 1.854575e-03  2.936674e-05  0 
 2.280751e-03  -4.207771e-05  0 
 2.326913e-03  6.219998e-06  0 
 2.248083e-03  7.188728e-05  0 
 2.303725e-03  -7.087074e-06  0 
 2.193108e-03  -4.635620e-05  0 
 2.209168e-03  2.660878e-06  0 
 2.332040e-03  4.523744e-06  0 
 2.335676e-03  -3.789453e-05  0 
 2.336111e-03  -1.994571e-05  0 
 2.149353e-03  7.087905e-06  0 
 2.328346e-03  -1.245473e-05  0 
 2.267056e-03  3.925670e-05  0 
 1.839961e-03  1.749025e-05  0 
 1.978267e-03  5.222260e-05  0 
 2.222076e-03  2.351592e-05  0 
 2.079254e-03  -3.802082e-05  0 
 2.171423e-03  3.867949e-05  0 
 2.095026e-03  4.211057e-05  0 
 2.206588e-03  5.751569e-06  0 
 2.097706e-03  -6.273233e-05  0 
 2.265404e-03  8.138128e-06  0 
 2.105591e-03  -1.239364e-05  0 
 2.191390e-03  1.554586e-05  0 
 2.210090e-03  8.715143e-06  0 
 2.207534e-03  2.944057e-05  0 
 2.099280e-03  -1.959880e-05  0 
 2.247162e-03  -1.298868e-05  0 
 2.021223e-03  6.266988e-05  0 
 2.258510e-03  2.474850e-05  0 
 2.045111e-03  3.129214e-05  0 
 2.298209e-03  9.230524e-06  0 
 2.179292e-03  -1.144586e-05  0 
 2.244759e-03  1.565219e-05  0 
 2.070126e-03  -4.308997e-05  0 
 2.193131e-03  2.494143e-05  0 
 2.229015e-03  2.656634e-05  0 
 2.292822e-03  1.483613e-05  0 
 2.238399e-03  1.206229e-05  0 
 2.255135e-03  9.700926e-06  0 
 2.136921e-03  3.631701e-05  0 
 2.070417e-03  -2.172523e-05  0 
 2.100532e-03  1.686731e-05  0 
 2.123230e-03  -2.253251e-05  0 
 2.219677e-03  2.306271e-05  0 
 2.273872e-03  -1.665576e-06  0 
 2.191206e-03  -1.674150e-05  0 
 2.266989e-03  1.896047e-05  0 
 2.066587e-03  1.410943e-06  0 
 2.236865e-03  5.926926e-06  0 
 2.002800e-03  -6.717961e-05  0 
 2.239605e-03  1.731001e-05  0 
 2.143836e-03  1.929508e-05  0 
 2.208041e-03  3.405433e-05  0 
 2.122348e-03  5.468959e-05  0 
 2.147492e-03  1.087271e-05  0 
 2.127253e-03  -3.533510e-05  0 
 2.109773e-03  4.786684e-05  0 
 2.093818e-03  4.962830e-05  0 
 2.146642e-03  4.137442e-05  0 
 2.059072e-03  5.447160e-05  0 
 2.175924e-03  -5.446653e-06  0 
 2.154576e-03  -2.319644e-05  0 
 1.970011e-03  4.080471e-05  0 
 1.745434e-03  8.451030e-05  0 
 1.875116e-03  7.968162e-05  0 
 1.938550e-03  6.195368e-05  0 
 1.952030e-03  1.124808e-05  0 
 1.949080e-03  3.414708e-05  0 
 2.015764e-03  -1.232352e-05  0 
 1.951877e-03  6.074679e-07  0 
 1.899319e-03  1.397612e-05  0 
 2.001935e-03  1.490579e-05  0 
 1.900540e-03  2.548419e-05  0 
 2.046621e-03  -1.518882e-05  0 
 2.000953e-03  -1.007064e-05  0 
 2.020453e-03  -2.781112e-06  0 
 1.986175e-03  -1.165697e-06  0 
 1.915942e-03  5.733896e-05  0 
 1.780231e-03  3.582043e-05  0 
 1.796133e-03  4.135909e-05  0 
VECTORS displacement_ITER8 FLOAT
 2.013717e-03  4.732785e-05  0 
 1.837664e-03  3.711100e-05  0 
 2.040186e-03  5.269321e-05  0 
 2.168016e-03  -2.432308e-05  0 
 2.248244e-03  -2.947521e-05  0 
 2.271689e-03  -9.461274e-06  0 
 2.257620e-03  1.726123e-05  0 
 2.208545e-03  4.530869e-05  0 
 2.119233e-03  4.495565e-05  0 
 1.874405e-03  3.705259e-05  0 
 1.645853e-03  2.125809e-05  0 
 1.997307e-03  3.838048e-05  0 
 1.971880e-03  5.179465e-05  0 
 2.054314e-03  2.790038e-06  0 
 2.058911e-03  8.639889e-06  0 
 2.041422e-03  1.288461e-05  0 
 1.989452e-03  1.238337e-05  0 
 1.937056e-03  2.446434e-05  0 
 1.826279e-03  2.712808e-05  0 
 1.789300e-03  4.469634e-05  0 
 2.252460e-03  3.668048e-05  0 
 2.324895e-03  1.477919e-05  0 
 2.223037e-03  2.343149e-05  0 
 2.276650e-03  3.311110e-05  0 
 2.125717e-03  4.551217e-05  0 
 2.152975e-03  5.212620e-05  0 
 2.284626e-03  -2.232609e-05  0 
 2.334222e-03  2.333440e-05  0 
 2.328144e-03  4.900954e-06  0 
 2.082278e-03  4.686373e-05  0 
 2.303207e-03  -1.338930e-05  0 
 2.218027e-03  -1.191427e-05  0 
 1.843413e-03  4.833967e-05  0 
 1.942111e-03  5.457293e-05  0 
 2.151201e-03  1.052887e-05  0 
 2.043879e-03  -1.544830e-05  0 
 2.120345e-03  1.905623e-05  0 
 2.040637e-03  1.614059e-05  0 
 2.128045e-03  -1.690114e-05  0 
 2.050936e-03  -3.287424e-05  0 
 2.192091e-03  -2.306543e-06  0 
 2.075452e-03  -9.624268e-06  0 
 2.131900e-03  5.015004e-07  0 
 2.132765e-03  -1.751739e-06  0 
 2.147309e-03  1.121528e-05  0 
 2.076292e-03  -3.044159e-06  0 
 2.177996e-03  -4.154045e-05  0 
 1.967911e-03  2.975871e-05  0 
 2.202598e-03  2.672351e-05  0 
 1.999562e-03  1.176697e-05  0 
 2.232155e-03  -1.241801e-05  0 
 2.121786e-03  -1.254946e-05  0 
 2.172547e-03  5.085376e-06  0 
 2.031746e-03  -1.335748e-05  0 
 2.136214e-03  6.250651e-06  0 
 2.166096e-03  1.519129e-05  0 
 2.232806e-03  4.514359e-06  0 
 2.158498e-03  1.405214e-06  0 
 2.176076e-03  1.822750e-07  0 
 2.087143e-03  1.053363e-05  0 
 2.047732e-03  1.509496e-06  0 
 2.058045e-03  7.298227e-07  0 
 2.089061e-03  -1.453537e-05  0 
 2.152430e-03  1.002001e-05  0 
 2.201016e-03  -2.427979e-05  0 
 2.118869e-03  -1.506795e-05  0 