# vtk DataFile Version 3.1
this is an vtk file created by FEMAC
ASCII
DATASET UNSTRUCTURED_GRID
POINTS 97 FLOAT
2.000000 0.000000 0.000000
2.000000 1.000000 0.000000
1.125000 0.000000 0.000000
1.250000 0.000000 0.000000
1.375000 0.000000 0.000000
1.500000 0.000000 0.000000
1.625000 0.000000 0.000000
1.750000 0.000000 0.000000
1.875000 0.000000 0.000000
2.125000 0.000000 0.000000
1.000000 0.750000 0.000000
1.000000 0.875000 0.000000
1.500000 1.000000 0.000000
1.625000 1.000000 0.000000
1.750000 1.000000 0.000000
1.875000 1.000000 0.000000
2.000000 0.125000 0.000000
2.000000 0.250000 0.000000
2.000000 0.375000 0.000000
2.000000 0.500000 0.000000
2.000000 0.625000 0.000000
2.000000 0.750000 0.000000
2.000000 0.875000 0.000000
1.499670 0.360742 0.000000
1.683260 0.615166 0.000000
1.329100 0.631666 0.000000
1.261618 0.222520 0.000000
1.736189 0.229332 0.000000
1.119756 0.143088 0.000000
1.881110 0.150703 0.000000
1.817421 0.910332 0.000000
1.727313 0.436804 0.000000
1.491129 0.224019 0.000000
1.271117 0.415027 0.000000
1.633635 0.155319 0.000000
1.395662 0.123278 0.000000
1.592252 0.458586 0.000000
1.438266 0.470739 0.000000
1.891498 0.593094 0.000000
1.366265 0.330237 0.000000
1.107131 0.562061 0.000000
1.637186 0.313697 0.000000
1.194422 0.795291 0.000000
1.766097 0.808510 0.000000
1.749449 0.094006 0.000000
1.250436 0.093427 0.000000
1.859304 0.437638 0.000000
1.802033 0.526864 0.000000
1.425921 0.863568 0.000000
1.198668 0.496653 0.000000
1.232589 0.600604 0.000000
1.126171 0.698464 0.000000
1.904915 0.810446 0.000000
1.773622 0.614167 0.000000
1.508481 0.733243 0.000000
1.721623 0.704716 0.000000
1.262054 0.704572 0.000000
1.703193 0.533077 0.000000
1.837969 0.707108 0.000000
1.869629 0.294081 0.000000
1.765924 0.342310 0.000000
1.238755 0.322620 0.000000
1.123091 0.311752 0.000000
1.618786 0.562197 0.000000
1.926876 0.697130 0.000000
1.371958 0.723587 0.000000
1.617558 0.672824 0.000000
1.531402 0.584172 0.000000
1.922907 0.918710 0.000000
1.291032 0.816412 0.000000
1.639225 0.786646 0.000000
1.319630 0.521262 0.000000
1.558179 0.884881 0.000000
1.354596 0.426703 0.000000
1.182427 0.400480 0.000000
1.185857 0.898777 0.000000
1.529085 0.100523 0.000000
1.094825 0.825839 0.000000
1.101886 0.440991 0.000000
1.377971 0.226595 0.000000
1.416473 0.610778 0.000000
1.692654 0.898395 0.000000
1.939027 0.068926 0.000000
1.711672 1.126553 0.000000
2.119756 0.143088 0.000000
2.107131 0.562061 0.000000
2.194422 0.795291 0.000000
2.198668 0.496653 0.000000
2.232589 0.600604 0.000000
2.126171 0.698464 0.000000
2.123091 0.311752 0.000000
2.182427 0.400480 0.000000
2.061189 0.067022 0.000000
2.185857 0.898777 0.000000
2.094825 0.825839 0.000000
2.101886 0.440991 0.000000
2.081137 0.919923 0.000000
CELLS 157 628 
3 29 16 17
3 23 39 32
3 41 23 32
3 27 44 29
3 45 26 28
3 36 37 23
3 41 36 23
3 31 36 41
3 41 34 27
3 32 34 41
3 2  3 45
3 28  2 45
3 7  8 44
3 8 29 44
3 44  6  7
3 6 44 34
3 44 27 34
3 4 45  3
3 45  4 35
3 26 45 35
3 38 19 20
3 14 30 15
3 38 46 19
3 38 47 46
3 47 31 46
3 50 40 49
3 51 40 50
3 52 21 22
3 38 53 47
3 55 24 53
3 25 56 50
3 57 31 47
3 31 57 36
3 38 58 53
3 27 60 41
3 60 31 41
3 60 27 59
3 33 61 39
3 61 26 39
3 62 28 26
3 63 36 57
3 24 63 57
3 21 64 20
3 64 38 20
3 24 66 63
3 67 36 63
3 15 68  1
3 68 22  1
3 68 15 30
3 68 52 22
3 30 52 68
3 61 62 26
3 46 18 19
3 57 53 24
3 47 53 57
3 51 56 42
3 51 50 56
3 64 58 38
3 55 58 43
3 55 53 58
3 63 66 67
3 64 21 52
3 43 52 30
3 43 58 52
3 52 58 64
3 56 69 42
3 70 55 43
3 67 37 36
3 29 59 27
3 59 29 17
3 18 59 17
3 50 71 25
3 33 71 49
3 50 49 71
3 12 72 13
3 72 12 48
3 73 33 39
3 73 37 71
3 33 73 71
3 49 74 33
3 74 61 33
3 18 46 59
3 60 46 31
3 59 46 60
3 67 66 54
3 62 61 74
3 54 72 48
3 54 70 72
3 76  5  6
3 34 76  6
3 77 42 75
3 35 79 26
3 39 79 32
3 79 39 26
3 79 35 32
3 62 74 78
3 49 78 74
3 78 49 40
3 10 77 11
3 77 10 51
3 42 77 51
3 42 69 75
3 65 54 48
3 48 69 65
3 32 76 34
3 76 32 35
3 24 55 66
3 70 54 66
3 66 55 70
3 25 80 65
3 80 25 71
3 70 81 72
3 81 13 72
3 81 14 13
3 80 54 65
3 67 54 80
3 80 37 67
3 71 37 80
3 56 25 65
3 56 65 69
3 5 35  4
3 35  5 76
3 73 23 37
3 39 23 73
3 43 30 81
3 14 81 30
3 70 43 81
3 82  8  0
3 82 16 29
3 16 82  0
3 8 82 29
3 14 83 13
3 16 84 17
3 19 85 20
3 88 85 87
3 89 85 88
3 84 90 17
3 20 85 89
3 89 21 20
3 9 92  0
3 16 92 84
3 92 16  0
3 92  9 84
3 18 17 90
3 94 86 93
3 95 19 18
3 22 96  1
3 90 95 18
3 90 91 95
3 94 96 22
3 94 93 96
3 19 95 85
3 87 95 91
3 95 87 85
3 21 94 22
3 94 21 89
3 86 94 89
CELL_TYPES 157
5 5 5 5 5 5 5 5 5 5 5 5 5 5 5 5 5 5 5 5 5 5 5 5 5 5 5 5 5 5 5 5 5 5 5 5 5 5 5 5 5 5 5 5 5 5 5 5 5 5 5 5 5 5 5 5 5 5 5 5 5 5 5 5 5 5 5 5 5 5 5 5 5 5 5 5 5 5 5 5 5 5 5 5 5 5 5 5 5 5 5 5 5 5 5 5 5 5 5 5 5 5 5 5 5 5 5 5 5 5 5 5 5 5 5 5 5 5 5 5 5 5 5 5 5 5 5 5 5 5 5 5 5 5 5 5 5 5 5 5 5 5 5 5 5 5 5 5 5 5 5 5 5 5 5 5 5 
POINT_DATA 97
VECTORS displacement_ITER1 FLOAT
 0  0  0 
 1.096612e-02  -2.872144e-03  0 
 0  0  0 
 0  0  0 
 0  0  0 
 0  0  0 
 0  0  0 
 0  0  0 
 0  0  0 
 0  0  0 
 9.506150e-03  4.670829e-03  0 
 1.090843e-02  5.004747e-03  0 
 1.090111e-02  1.657356e-03  0 
 1.078097e-02  5.681901e-04  0 
 1.083490e-02  -7.611970e-04  0 
 1.089051e-02  -1.821066e-03  0 
 1.296049e-03  -2.473005e-04  0 
 2.337098e-03  -1.007950e-03  0 
 3.760315e-03  -1.574042e-03  0 
 4.995200e-03  -1.932580e-03  0 
 6.361157e-03  -2.310281e-03  0 
 7.856796e-03  -2.635453e-03  0 
 9.428875e-03  -2.746873e-03  0 
 2.880069e-03  2.882280e-04  0 
 5.987890e-03  -2.153967e-04  0 
 6.996548e-03  1.916098e-03  0 
 2.072304e-03  4.639260e-04  0 
 1.367642e-03  -1.724469e-04  0 
 1.754380e-03  8.094759e-04  0 
 9.527873e-04  -2.773744e-04  0 
 9.763295e-03  -1.291283e-03  0 
 3.779218e-03  -5.273209e-04  0 
 1.285620e-03  5.151589e-05  0 
 4.239948e-03  1.646192e-03  0 
 7.134433e-04  -1.519098e-05  0 
 5.536598e-04  7.253965e-05  0 
 4.063602e-03  1.715633e-04  0 
 4.630783e-03  8.514169e-04  0 
 5.724526e-03  -1.572892e-03  0 
 2.799509e-03  8.549010e-04  0 
 6.818654e-03  3.546144e-03  0 
 2.095262e-03  -5.634585e-05  0 
 9.477857e-03  3.557116e-03  0 
 8.394647e-03  -7.205743e-04  0 
 4.063889e-04  -1.573251e-05  0 
 5.611686e-04  1.620347e-05  0 
 4.030690e-03  -1.073150e-03  0 
 4.860075e-03  -9.862023e-04  0 
 9.388212e-03  2.093139e-03  0 
 5.659658e-03  2.526931e-03  0 
 6.932773e-03  2.570164e-03  0 
 8.577341e-03  3.798073e-03  0 
 8.549646e-03  -1.981435e-03  0 
 5.933111e-03  -8.289743e-04  0 
 7.712578e-03  1.240294e-03  0 
 7.065084e-03  -4.271354e-04  0 
 8.187067e-03  2.694985e-03  0 
 4.939148e-03  -3.959655e-04  0 
 7.064865e-03  -1.275061e-03  0 
 2.358267e-03  -6.637323e-04  0 
 2.644185e-03  -5.021270e-04  0 
 3.495332e-03  1.188877e-03  0 
 4.042831e-03  1.782215e-03  0 
 5.402975e-03  1.154501e-04  0 
 7.052163e-03  -2.014816e-03  0 
 8.024206e-03  1.953311e-03  0 
 6.757375e-03  2.659104e-04  0 
 5.802814e-03  7.571410e-04  0 
 9.908810e-03  -2.184628e-03  0 
 9.375357e-03  2.872437e-03  0 
 8.188516e-03  2.491271e-04  0 
 5.603133e-03  1.602403e-03  0 
 9.466388e-03  1.034698e-03  0 
 4.199395e-03  1.176379e-03  0 
 4.651751e-03  1.966765e-03  0 
 1.053891e-02  3.940004e-03  0 
 4.208364e-04  -1.497642e-06  0 
 1.008575e-02  4.331484e-03  0 
 5.686052e-03  2.882710e-03  0 
 1.680447e-03  4.651119e-04  0 
 6.446409e-03  1.347464e-03  0 
 9.499232e-03  -1.130061e-04  0 
 5.748909e-04  2.638429e-05  0 
 1.314352e-02  -4.148153e-04  0 
 2.256696e-03  -8.174999e-04  0 
 6.000941e-03  -2.945941e-03  0 
 8.825458e-03  -4.594925e-03  0 
 5.624824e-03  -3.641489e-03  0 
 6.777630e-03  -4.304170e-03  0 
 7.550581e-03  -3.542026e-03  0 
 3.638249e-03  -2.063556e-03  0 
 4.706655e-03  -3.061190e-03  0 
 7.607120e-04  -7.724734e-05  0 
 9.954184e-03  -4.790436e-03  0 
 8.892733e-03  -3.566707e-03  0 
 4.717654e-03  -2.461223e-03  0 
 1.006776e-02  -3.536970e-03  0 
VECTORS displacement_ITER2 FLOAT
 0  0  0 
 3.535396e-03  2.965577e-04  0 
 0  0  0 
 0  0  0 
 0  0  0 
 0  0  0 
 0  0  0 
 0  0  0 
 0  0  0 
 0  0  0 
 3.523679e-03  -8.650883e-04  0 
 2.972164e-03  -1.223939e-03  0 
 3.753954e-03  6.254582e-04  0 
 3.666266e-03  6.659141e-04  0 
 3.615320e-03  6.086469e-04  0 
 3.539556e-03  5.695321e-04  0 
 5.858713e-04  -3.327005e-05  0 
 9.917403e-04  -1.622910e-04  0 
 1.432492e-03  -2.020490e-04  0 
 1.771373e-03  -9.226430e-05  0 
 2.121533e-03  1.570387e-05  0 
 2.538504e-03  1.166706e-04  0 
 2.981313e-03  2.946977e-04  0 
 1.643322e-03  2.494267e-05  0 
 2.505135e-03  2.702246e-04  0 
 3.008779e-03  2.786409e-04  0 
 9.748911e-04  6.422457e-05  0 
 8.960562e-04  -4.786150e-05  0 
 6.900487e-04  1.778817e-04  0 
 5.961744e-04  -6.167621e-05  0 
 3.279668e-03  5.278513e-04  0 
 1.815192e-03  3.070127e-05  0 
 9.002381e-04  -3.944812e-05  0 
 2.080732e-03  1.716048e-04  0 
 5.728915e-04  -1.420825e-05  0 
 4.208504e-04  -8.909119e-06  0 
 2.034281e-03  1.174587e-04  0 
 2.263318e-03  1.240718e-04  0 
 2.139018e-03  9.494531e-05  0 
 1.546545e-03  5.445077e-05  0 
 2.788869e-03  2.787261e-04  0 
 1.299152e-03  -7.310971e-06  0 
 3.431311e-03  2.469043e-04  0 
 3.035251e-03  4.816256e-04  0 
 3.403333e-04  -1.123070e-05  0 
 3.244336e-04  -3.540019e-06  0 
 1.736119e-03  -2.559626e-05  0 
 2.038257e-03  5.880526e-05  0 
 3.441129e-03  5.264297e-04  0 
 2.545043e-03  2.704121e-04  0 
 3.002142e-03  2.273000e-04  0 
 3.311094e-03  1.505950e-04  0 
 2.892690e-03  3.484312e-04  0 
 2.381593e-03  1.963894e-04  0 
 3.115928e-03  4.655199e-04  0 
 2.744730e-03  3.578884e-04  0 
 3.259373e-03  2.991563e-04  0 
 2.182793e-03  1.476491e-04  0 
 2.579344e-03  2.999649e-04  0 
 1.132335e-03  -7.436793e-05  0 
 1.370883e-03  -2.728166e-05  0 
 1.585264e-03  1.410734e-04  0 
 1.566927e-03  3.279425e-04  0 
 2.409845e-03  2.288376e-04  0 
 2.428699e-03  1.736592e-04  0 
 3.226979e-03  3.792107e-04  0 
 2.768277e-03  3.590617e-04  0 
 2.595140e-03  2.572778e-04  0 
 3.191380e-03  4.499004e-04  0 
 3.451122e-03  3.593337e-04  0 
 3.128405e-03  4.909821e-04  0 
 2.630076e-03  1.693400e-04  0 
 3.407683e-03  5.661380e-04  0 
 2.104707e-03  1.029261e-04  0 
 2.057866e-03  2.525825e-04  0 
 3.523471e-03  2.067914e-04  0 
 3.526510e-04  -2.099212e-05  0 
 3.438810e-03  3.794001e-05  0 
 2.295529e-03  3.488828e-04  0 
 9.541129e-04  2.359028e-05  0 
 2.851830e-03  2.977874e-04  0 
 3.326690e-03  5.887298e-04  0 
 3.027547e-04  4.104921e-06  0 
 4.174932e-03  6.727345e-04  0 
 7.899729e-04  -1.715165e-04  0 
 1.853141e-03  -1.804677e-04  0 
 2.538785e-03  -4.205359e-04  0 
 1.589275e-03  -4.082081e-04  0 
 1.884424e-03  -4.145728e-04  0 
 2.258337e-03  -1.278323e-04  0 
 1.252399e-03  -3.307164e-04  0 
 1.410229e-03  -4.079682e-04  0 
 3.136891e-04  -2.301458e-05  0 
 3.068839e-03  -4.268853e-04  0 
 2.667438e-03  3.758381e-05  0 
 1.517211e-03  -2.678240e-04  0 
 3.183757e-03  1.063462e-04  0 
VECTORS displacement_ITER3 FLOAT
 0  0  0 
 3.267944e-03  6.396763e-04  0 
 0  0  0 
 0  0  0 
 0  0  0 
 0  0  0 
 0  0  0 
 0  0  0 
 0  0  0 
 0  0  0 
 3.900206e-03  -6.844260e-04  0 
 4.219306e-03  -5.429451e-04  0 
 3.965682e-03  2.299466e-04  0 
 3.822004e-03  4.140694e-04  0 
 3.665227e-03  5.125380e-04  0 
 3.417272e-03  7.021944e-04  0 
 8.229248e-04  -2.376303e-05  0 
 1.457208e-03  -1.446704e-04  0 
 1.958896e-03  -1.580820e-04  0 
 2.323807e-03  -1.435323e-05  0 
 2.571300e-03  1.260440e-04  0 
 2.763115e-03  2.219576e-04  0 
 2.885304e-03  4.717928e-04  0 
 1.977187e-03  -1.780832e-04  0 
 2.954768e-03  -3.092342e-05  0 
 3.325574e-03  -1.599146e-04  0 
 1.062646e-03  -1.416048e-05  0 
 1.258282e-03  -1.064460e-04  0 
 6.952293e-04  1.095969e-04  0 
 8.864141e-04  -8.605380e-05  0 
 3.378422e-03  4.396756e-04  0 
 2.321450e-03  -1.689868e-04  0 
 1.146312e-03  -1.128854e-04  0 
 2.233761e-03  -1.142805e-04  0 
 7.940622e-04  -6.098574e-05  0 
 5.322714e-04  -3.394628e-05  0 
 2.448611e-03  -1.347870e-04  0 
 2.569415e-03  -1.946878e-04  0 
 2.644139e-03  2.317741e-05  0 
 1.753939e-03  -1.282706e-04  0 
 2.981024e-03  -3.251778e-05  0 
 1.722708e-03  -1.348081e-04  0 
 3.791458e-03  -2.463502e-04  0 
 3.255472e-03  2.660532e-04  0 
 5.053658e-04  -1.765134e-05  0 
 3.785208e-04  -1.560140e-05  0 
 2.306380e-03  -1.126409e-04  0 
 2.562675e-03  -1.251024e-04  0 
 3.792530e-03  5.064994e-05  0 
 2.716244e-03  -6.838890e-05  0 
 3.233281e-03  -1.614233e-04  0 
 3.498890e-03  -2.220447e-04  0 
 3.022782e-03  3.056541e-04  0 
 2.835970e-03  -6.200116e-05  0 
 3.458117e-03  2.552317e-05  0 
 3.107387e-03  7.047227e-05  0 
 3.542781e-03  -1.925260e-04  0 
 2.657387e-03  -1.302316e-04  0 
 2.898670e-03  1.222905e-04  0 
 1.635736e-03  -1.510256e-04  0 
 1.892628e-03  -1.399666e-04  0 
 1.665991e-03  -5.085679e-05  0 
 1.536834e-03  1.269252e-04  0 
 2.861482e-03  -6.995251e-05  0 
 2.755120e-03  1.608552e-04  0 
 3.557056e-03  -1.066721e-04  0 
 3.162635e-03  9.106314e-06  0 
 3.004854e-03  -1.143763e-04  0 
 3.141000e-03  5.750985e-04  0 
 3.817096e-03  -1.610159e-04  0 
 3.422631e-03  1.485404e-04  0 
 2.869417e-03  -1.830387e-04  0 
 3.707909e-03  1.974529e-04  0 
 2.322380e-03  -1.706789e-04  0 
 2.134144e-03  -2.090496e-05  0 
 4.255217e-03  -2.143017e-04  0 
 4.723564e-04  -4.283419e-05  0 
 3.967841e-03  -1.378803e-04  0 
 2.376183e-03  9.895944e-05  0 
 1.127037e-03  -7.965485e-05  0 
 3.207751e-03  -1.384045e-04  0 
 3.538104e-03  3.481722e-04  0 
 4.414657e-04  -1.639633e-06  0 
 3.960273e-03  6.334977e-04  0 
 1.043188e-03  -1.643643e-04  0 
 2.317421e-03  1.234922e-04  0 
 2.532832e-03  2.864044e-04  0 
 1.990510e-03  4.377561e-05  0 
 2.254416e-03  1.904541e-04  0 
 2.577047e-03  2.816157e-04  0 
 1.703256e-03  -1.869320e-04  0 
 1.832120e-03  -7.939149e-05  0 
 4.358632e-04  -2.359720e-05  0 
 2.759614e-03  3.065223e-04  0 
 2.635527e-03  4.086360e-04  0 
 2.010659e-03  -7.082364e-05  0 
 2.910114e-03  5.035951e-04  0 
VECTORS displacement_ITER4 FLOAT
 0  0  0 
 2.870517e-03  3.138719e-04  0 
 0  0  0 
 0  0  0 
 0  0  0 
 0  0  0 
 0  0  0 
 0  0  0 
 0  0  0 
 0  0  0 
 3.146071e-03  -3.033925e-04  0 
 3.508149e-03  -1.189090e-04  0 
 3.281631e-03  -1.200415e-04  0 
 3.209099e-03  -2.373041e-05  0 
 3.126540e-03  -4.266590e-05  0 
 2.937571e-03  1.922053e-04  0 
 6.302530e-04  -2.488470e-05  0 
 1.121223e-03  -1.214233e-04  0 
 1.529691e-03  -1.196879e-04  0 
 1.889133e-03  -3.141112e-05  0 
 2.208863e-03  1.975837e-05  0 
 2.461415e-03  6.502351e-05  0 
 2.591212e-03  2.247224e-04  0 
 1.509997e-03  -1.695642e-04  0 
 2.327134e-03  -1.698234e-04  0 
 2.484942e-03  -2.145303e-04  0 
 8.272639e-04  -4.450649e-05  0 
 9.830769e-04  -9.092038e-05  0 
 5.240901e-04  4.988544e-05  0 
 6.801918e-04  -8.453380e-05  0 
 2.892031e-03  -3.219485e-05  0 
 1.814461e-03  -1.639906e-04  0 
 8.888682e-04  -9.284758e-05  0 
 1.672996e-03  -1.537328e-04  0 
 6.175264e-04  -4.713088e-05  0 
 4.306579e-04  -3.647066e-05  0 
 1.885155e-03  -1.652303e-04  0 
 1.943594e-03  -2.076267e-04  0 
 2.186590e-03  -4.399525e-05  0 
 1.328984e-03  -1.230111e-04  0 
 2.241546e-03  -9.334742e-05  0 
 1.342908e-03  -1.216037e-04  0 
 2.923818e-03  -2.423748e-04  0 
 2.697382e-03  -7.710389e-05  0 
 3.831367e-04  -1.946738e-05  0 
 3.015948e-04  -2.026820e-05  0 
 1.815443e-03  -1.174294e-04  0 
 2.065836e-03  -1.456345e-04  0 
 2.983993e-03  -1.478798e-04  0 
 2.031513e-03  -1.345231e-04  0 
 2.399569e-03  -1.974995e-04  0 
 2.640276e-03  -2.005868e-04  0 
 2.657838e-03  3.098733e-05  0 
 2.301901e-03  -1.387307e-04  0 
 2.669519e-03  -1.433691e-04  0 
 2.515505e-03  -1.523432e-04  0 
 2.669111e-03  -2.362696e-04  0 
 2.111360e-03  -1.724676e-04  0 
 2.458145e-03  -3.936303e-05  0 
 1.278954e-03  -1.377167e-04  0 
 1.482625e-03  -1.268233e-04  0 
 1.250379e-03  -9.959902e-05  0 
 1.141791e-03  7.072556e-06  0 
 2.211260e-03  -1.791333e-04  0 
 2.392118e-03  -7.100851e-07  0 
 2.704854e-03  -2.104708e-04  0 
 2.474900e-03  -1.791933e-04  0 
 2.286603e-03  -1.844685e-04  0 
 2.760191e-03  2.006380e-04  0 
 2.950772e-03  -2.386259e-04  0 
 2.736951e-03  -1.573114e-04  0 
 2.137466e-03  -2.046089e-04  0 
 2.995804e-03  -1.183468e-04  0 
 1.743409e-03  -1.721984e-04  0 
 1.598525e-03  -1.023717e-04  0 
 3.587732e-03  -1.559784e-04  0 
 3.765735e-04  -3.632701e-05  0 
 3.198403e-03  4.053335e-05  0 
 1.793145e-03  -9.238349e-06  0 
 8.742683e-04  -7.894283e-05  0 
 2.409240e-03  -2.073568e-04  0 
 2.915505e-03  -7.996284e-05  0 
 3.404646e-04  -8.182788e-06  0 
 3.943477e-03  3.132880e-05  0 
 7.905712e-04  -1.230471e-04  0 
 1.982967e-03  7.104760e-05  0 
 2.280434e-03  2.746455e-04  0 
 1.681142e-03  6.778372e-05  0 
 1.980567e-03  1.843925e-04  0 
 2.288913e-03  1.723493e-04  0 
 1.291484e-03  -1.243046e-04  0 
 1.438165e-03  -9.116890e-06  0 
 3.340788e-04  -2.099136e-05  0 
 2.492226e-03  3.058890e-04  0 
 2.398397e-03  2.583455e-04  0 
 1.613033e-03  -4.035603e-05  0 
 2.620721e-03  3.157649e-04  0 
VECTORS displacement_ITER5 FLOAT
 0  0  0 
 2.454388e-03  3.676259e-05  0 
 0  0  0 
 0  0  0 
 0  0  0 
 0  0  0 
 0  0  0 
 0  0  0 
 0  0  0 
 0  0  0 
 2.567199e-03  -2.297204e-04  0 
 2.548943e-03  -3.605671e-04  0 
 2.711888e-03  -1.373675e-04  0 
 2.674004e-03  -1.049404e-04  0 
 2.620266e-03  -1.418792e-04  0 
 2.507752e-03  -4.802017e-05  0 
 4.623278e-04  -2.126113e-05  0 
 8.607071e-04  -9.481716e-05  0 
 1.226319e-03  -9.346367e-05  0 
 1.571853e-03  -5.800645e-05  0 
 1.897015e-03  -7.305779e-05  0 
 2.138836e-03  -1.031853e-04  0 
 2.263567e-03  -3.263320e-05  0 
 1.205983e-03  -1.285387e-04  0 
 1.893690e-03  -1.571689e-04  0 
 2.022780e-03  -1.393137e-04  0 
 7.111391e-04  -4.575194e-05  0 
 7.761977e-04  -6.364147e-05  0 
 4.545877e-04  3.113966e-05  0 
 5.124195e-04  -6.569747e-05  0 
 2.454047e-03  -1.508566e-04  0 
 1.451387e-03  -1.275193e-04  0 
 7.245098e-04  -7.352716e-05  0 
 1.372076e-03  -9.971899e-05  0 
 4.988521e-04  -3.094814e-05  0 
 3.686962e-04  -3.436855e-05  0 
 1.504696e-03  -1.279046e-04  0 
 1.568370e-03  -1.448704e-04  0 
 1.823235e-03  -8.577834e-05  0 
 1.079160e-03  -8.377086e-05  0 
 1.847286e-03  -4.911400e-05  0 
 1.066644e-03  -8.485682e-05  0 
 2.435577e-03  -1.285864e-04  0 
 2.275126e-03  -1.469422e-04  0 
 2.961411e-04  -2.025284e-05  0 
 2.629932e-04  -2.183770e-05  0 
 1.456751e-03  -1.000535e-04  0 
 1.683407e-03  -1.293218e-04  0 
 2.474253e-03  -9.993705e-05  0 
 1.662936e-03  -7.532976e-05  0 
 1.959759e-03  -1.134366e-04  0 
 2.207974e-03  -1.062279e-04  0 
 2.268308e-03  -1.208482e-04  0 
 1.883889e-03  -1.490706e-04  0 
 2.192604e-03  -1.117767e-04  0 
 2.082025e-03  -1.665107e-04  0 
 2.209694e-03  -1.315956e-04  0 
 1.704226e-03  -1.490425e-04  0 
 2.060045e-03  -1.196135e-04  0 
 1.007849e-03  -1.014715e-04  0 
 1.174853e-03  -9.498044e-05  0 
 1.045309e-03  -7.517291e-05  0 
 9.871597e-04  -9.716144e-06  0 
 1.784247e-03  -1.507473e-04  0 
 2.036204e-03  -1.036088e-04  0 
 2.225972e-03  -1.397651e-04  0 
 2.027850e-03  -1.574249e-04  0 
 1.849356e-03  -1.326100e-04  0 
 2.386550e-03  -3.861199e-05  0 
 2.453332e-03  -1.284740e-04  0 
 2.278275e-03  -1.628351e-04  0 
 1.729760e-03  -1.342885e-04  0 
 2.500249e-03  -1.324350e-04  0 
 1.417341e-03  -1.136621e-04  0 
 1.334805e-03  -7.020816e-05  0 
 2.879788e-03  -7.657964e-05  0 
 3.153839e-04  -3.070743e-05  0 
 2.624903e-03  3.215598e-05  0 
 1.502876e-03  -1.075829e-05  0 
 7.288910e-04  -5.864829e-05  0 
 1.950887e-03  -1.468195e-04  0 
 2.461282e-03  -1.416897e-04  0 
 2.527580e-04  -1.114373e-05  0 
 2.951843e-03  -9.416653e-05  0 
 5.787276e-04  -1.068918e-04  0 
 1.727363e-03  -5.006282e-05  0 
 2.065073e-03  4.226023e-05  0 
 1.486111e-03  -6.780283e-05  0 
 1.795596e-03  -3.972047e-05  0 
 2.046757e-03  -4.277322e-05  0 
 1.008117e-03  -1.229622e-04  0 
 1.197658e-03  -8.220530e-05  0 
 2.420482e-04  -2.087154e-05  0 
 2.167587e-03  6.016152e-05  0 
 2.139056e-03  -2.082522e-05  0 
 1.350563e-03  -7.676095e-05  0 
 2.269295e-03  2.074212e-05  0 
VECTORS displacement_ITER6 FLOAT
 0  0  0 
 2.378814e-03  -6.166949e-05  0 
 0  0  0 
 0  0  0 
 0  0  0 
 0  0  0 
 0  0  0 
 0  0  0 
 0  0  0 
 0  0  0 
 2.224749e-03  -1.835446e-04  0 
 2.308281e-03  -3.190460e-04  0 
 2.505890e-03  -9.718560e-05  0 
 2.489357e-03  -7.917487e-05  0 
 2.448793e-03  -9.174386e-05  0 
 2.396873e-03  -7.687518e-05  0 
 3.952340e-04  -1.809244e-05  0 
 7.590546e-04  -6.993448e-05  0 
 1.104693e-03  -6.722362e-05  0 
 1.439352e-03  -4.509818e-05  0 
 1.758803e-03  -6.893981e-05  0 
 2.001624e-03  -1.114307e-04  0 
 2.171924e-03  -8.369421e-05  0 
 1.146384e-03  -8.111081e-05  0 
 1.753168e-03  -8.086799e-05  0 
 1.872242e-03  -8.382076e-05  0 
 7.495985e-04  -3.364651e-05  0 
 7.163396e-04  -4.404163e-05  0 
 4.973333e-04  3.337200e-05  0 
 4.577014e-04  -4.650965e-05  0 
 2.296911e-03  -1.013333e-04  0 
 1.334297e-03  -7.215697e-05  0 
 7.094395e-04  -5.486612e-05  0 
 1.331566e-03  -4.371279e-05  0 
 4.809552e-04  -2.296906e-05  0 
 3.791347e-04  -3.010378e-05  0 
 1.403633e-03  -7.002380e-05  0 
 1.481975e-03  -7.913406e-05  0 
 1.682162e-03  -5.599109e-05  0 
 1.057820e-03  -3.492766e-05  0 
 1.707784e-03  -6.002549e-05  0 
 9.940948e-04  -5.055280e-05  0 
 2.210829e-03  -1.445091e-04  0 
 2.133130e-03  -9.043797e-05  0 
 2.790874e-04  -2.053333e-05  0 
 2.832831e-04  -2.244754e-05  0 
 1.321476e-03  -5.850182e-05  0 
 1.544775e-03  -7.099862e-05  0 
 2.276296e-03  -6.294981e-05  0 
 1.575548e-03  -3.188129e-05  0 
 1.803499e-03  -6.107437e-05  0 
 1.981099e-03  -1.150532e-04  0 
 2.122606e-03  -9.690726e-05  0 
 1.737277e-03  -8.424861e-05  0 
 2.031927e-03  -4.777031e-05  0 
 1.934905e-03  -8.960750e-05  0 
 2.020008e-03  -9.968975e-05  0 
 1.573029e-03  -8.133970e-05  0 
 1.917979e-03  -8.084203e-05  0 
 9.068685e-04  -6.434936e-05  0 
 1.069616e-03  -5.786172e-05  0 
 1.056915e-03  -4.275518e-05  0 
 1.031841e-03  -6.540108e-06  0 
 1.658002e-03  -7.980498e-05  0 
 1.894572e-03  -8.282534e-05  0 
 2.053591e-03  -9.735987e-05  0 
 1.885231e-03  -7.559964e-05  0 
 1.729015e-03  -6.048706e-05  0 
 2.272080e-03  -7.035030e-05  0 
 2.248606e-03  -1.151649e-04  0 
 2.118247e-03  -8.512226e-05  0 
 1.623195e-03  -6.136555e-05  0 
 2.309680e-03  -7.749910e-05  0 
 1.357895e-03  -4.800469e-05  0 
 1.314500e-03  -3.628294e-05  0 
 2.580593e-03  -1.333788e-04  0 
 3.132078e-04  -2.529638e-05  0 
 2.346127e-03  -5.476499e-05  0 
 1.454414e-03  -2.023462e-05  0 
 7.378337e-04  -3.224798e-05  0 
 1.820602e-03  -8.485044e-05  0 
 2.301439e-03  -8.994461e-05  0 
 2.185806e-04  -1.191655e-05  0 
 2.480352e-03  -6.434951e-05  0 
 4.826620e-04  -9.004539e-05  0 
 1.601370e-03  -7.888019e-05  0 
 2.012416e-03  -1.051109e-04  0 
 1.386923e-03  -1.552005e-04  0 
 1.679994e-03  -1.748252e-04  0 
 1.922508e-03  -9.901665e-05  0 
 8.986728e-04  -1.077810e-04  0 
 1.106614e-03  -1.350036e-04  0 
 2.044145e-04  -2.057766e-05  0 
 2.144455e-03  -1.162540e-04  0 
 2.062660e-03  -1.013265e-04  0 
 1.239159e-03  -7.941550e-05  0 
 2.213912e-03  -8.398878e-05  0 
VECTORS displacement_ITER7 FLOAT
 0  0  0 
 2.267630e-03  -7.159595e-06  0 
 0  0  0 
 0  0  0 
 0  0  0 
 0  0  0 
 0  0  0 
 0  0  0 
 0  0  0 
 0  0  0 
 2.213214e-03  -6.091772e-05  0 
 2.414483e-03  -1.208727e-04  0 
 2.456315e-03  -1.187261e-04  0 
 2.421319e-03  -7.987880e-05  0 
 2.351545e-03  -3.883742e-05  0 
 2.302233e-03  -2.558384e-05  0 
 4.162995e-04  -2.210297e-05  0 
 8.087708e-04  -7.298939e-05  0 
 1.150950e-03  -8.129943e-05  0 
 1.448600e-03  -6.769087e-05  0 
 1.705342e-03  -6.062201e-05  0 
 1.917461e-03  -5.813953e-05  0 
 2.084204e-03  -3.772013e-05  0 
 1.147389e-03  -8.439046e-05  0 
 1.756878e-03  -1.070163e-04  0 
 1.853260e-03  -1.166331e-04  0 
 7.649295e-04  -3.119265e-05  0 
 7.372314e-04  -4.848085e-05  0 
 5.196484e-04  1.969338e-05  0 
 4.841250e-04  -3.975798e-05  0 
 2.213142e-03  -4.956634e-05  0 
 1.345589e-03  -9.833890e-05  0 
 7.285424e-04  -4.982229e-05  0 
 1.290773e-03  -6.599966e-05  0 
 5.011769e-04  -3.097499e-05  0 
 3.968864e-04  -2.747607e-05  0 
 1.403696e-03  -8.645347e-05  0 
 1.457033e-03  -1.005723e-04  0 
 1.671985e-03  -7.505888e-05  0 
 1.053207e-03  -3.801875e-05  0 
 1.692996e-03  -5.511772e-05  0 
 1.008917e-03  -5.969980e-05  0 
 2.221437e-03  -1.327491e-04  0 
 2.090196e-03  -8.771343e-05  0 
 2.999139e-04  -2.052629e-05  0 
 3.049003e-04  -2.269089e-05  0 
 1.343327e-03  -7.920986e-05  0 
 1.546661e-03  -1.010322e-04  0 
 2.273092e-03  -1.061358e-04  0 
 1.527478e-03  -6.640981e-05  0 
 1.776770e-03  -9.169683e-05  0 
 1.997162e-03  -8.865105e-05  0 
 2.033475e-03  -5.698902e-05  0 
 1.734145e-03  -1.121917e-04  0 
 2.024341e-03  -1.013593e-04  0 
 1.923814e-03  -1.070710e-04  0 
 2.016944e-03  -1.279299e-04  0 
 1.573237e-03  -1.108027e-04  0 
 1.888728e-03  -9.234538e-05  0 
 9.463194e-04  -7.102133e-05  0 
 1.095403e-03  -7.478713e-05  0 
 1.037964e-03  -5.446784e-05  0 
 1.006873e-03  -4.125139e-05  0 
 1.657652e-03  -1.007504e-04  0 
 1.847957e-03  -6.232236e-05  0 
 2.044693e-03  -1.299277e-04  0 
 1.884290e-03  -1.065504e-04  0 
 1.720269e-03  -9.807918e-05  0 
 2.182723e-03  -2.846377e-05  0 
 2.241787e-03  -1.370205e-04  0 
 2.095704e-03  -1.078410e-04  0 
 1.583015e-03  -8.947952e-05  0 
 2.285852e-03  -1.065341e-04  0 
 1.324814e-03  -6.365215e-05  0 
 1.264803e-03  -6.514696e-05  0 
 2.525854e-03  -1.111738e-04  0 
 3.245237e-04  -2.263188e-05  0 
 2.350580e-03  -2.852910e-05  0 
 1.403311e-03  -3.686846e-05  0 
 7.549822e-04  -3.233576e-05  0 
 1.798848e-03  -1.244001e-04  0 
 2.257760e-03  -8.638105e-05  0 
 2.281584e-04  -1.121030e-05  0 
 2.373361e-03  -1.409895e-06  0 
 5.070318e-04  -8.291462e-05  0 
 1.553422e-03  -6.142264e-05  0 
 1.909009e-03  -2.695792e-05  0 
 1.376106e-03  -9.537439e-05  0 
 1.588494e-03  -8.554023e-05  0 
 1.804184e-03  -4.597466e-05  0 
 9.606311e-04  -9.673937e-05  0 
 1.154829e-03  -1.021505e-04  0 
 2.182059e-04  -1.950585e-05  0 
 2.044790e-03  -1.157759e-05  0 
 1.983499e-03  -2.930600e-05  0 
 1.276924e-03  -7.796112e-05  0 
 2.111862e-03  -1.263084e-05  0 
VECTORS displacement_ITER8 FLOAT
 0  0  0 
 2.275333e-03  -7.942307e-05  0 
 0  0  0 
 0  0  0 
 0  0  0 
 0  0  0 
 0  0  0 
 0  0  0 
 0  0  0 
 0  0  0 
 2.145238e-03  -8.421267e-05  0 
 2.413081e-03  -9.736456e-05  0 
 2.422674e-03  -6.811292e-05  0 
 2.381348e-03  -6.069876e-05  0 
 2.327959e-03  -7.270309e-05  0 
 2.295529e-03  -9.045396e-05  0 
 3.804340e-04  -1.744562e-05  0 
 7.726847e-04  -4.379891e-05  0 
 1.109784e-03  -5.129928e-05  0 
 1.407913e-03  -4.717611e-05  0 
 1.675494e-03  -5.635070e-05  0 
 1.891617e-03  -7.256756e-05  0 
 2.082999e-03  -8.373452e-05  0 
 1.109599e-03  -8.167838e-05  0 
 1.699428e-03  -1.018351e-04  0 
 1.814347e-03  -1.118732e-04  0 
 7.331532e-04  -3.940280e-05  0 
 7.148054e-04  -4.146915e-05  0 
 4.919916e-04  3.042643e-07  0 
 4.664174e-04  -2.432462e-05  0 
 2.176178e-03  -8.634328e-05  0 
 1.298616e-03  -8.652806e-05  0 
 7.167030e-04  -5.231538e-05  0 
 1.259238e-03  -8.935350e-05  0 
 4.966944e-04  -3.236948e-05  0 
 3.920689e-04  -2.787292e-05  0 
 1.355422e-03  -8.106470e-05  0 
 1.408938e-03  -9.917136e-05  0 
 1.624601e-03  -6.547278e-05  0 
 1.025664e-03  -5.669775e-05  0 
 1.676983e-03  -9.020053e-05  0 
 9.749047e-04  -5.431516e-05  0 
 2.188379e-03  -1.280625e-04  0 
 2.025401e-03  -9.249490e-05  0 
 2.994779e-04  -2.041868e-05  0 
 3.001141e-04  -2.273944e-05  0 
 1.293360e-03  -6.130024e-05  0 
 1.495352e-03  -8.350592e-05  0 
 2.228391e-03  -7.667745e-05  0 
 1.492304e-03  -9.972639e-05  0 
 1.749610e-03  -1.100009e-04  0 
 1.987239e-03  -1.056847e-04  0 
 1.997327e-03  -8.552467e-05  0 
 1.678447e-03  -9.824166e-05  0 
 1.968863e-03  -8.928051e-05  0 
 1.857985e-03  -9.992363e-05  0 
 1.986302e-03  -1.266424e-04  0 
 1.520908e-03  -1.014664e-04  0 
 1.834640e-03  -8.901888e-05  0 
 9.106992e-04  -5.048526e-05  0 
 1.054378e-03  -6.364143e-05  0 
 1.001201e-03  -6.923998e-05  0 
 9.651707e-04  -6.292574e-05  0 
 1.601568e-03  -9.524760e-05  0 
 1.808228e-03  -7.215807e-05  0 
 2.000040e-03  -1.062540e-04  0 
 1.825043e-03  -1.008905e-04  0 
 1.663277e-03  -9.265304e-05  0 
 2.169355e-03  -8.499464e-05  0 
 2.195939e-03  -1.185223e-04  0 
 2.025028e-03  -9.526647e-05  0 
 1.541393e-03  -1.012387e-04  0 
 2.225001e-03  -7.676281e-05  0 
 1.287766e-03  -7.839882e-05  0 
 1.223238e-03  -8.740608e-05  0 
 2.396907e-03  -1.136474e-04  0 
 3.215709e-04  -2.328881e-05  0 
 2.288813e-03  -8.579075e-05  0 
 1.351878e-03  -7.298890e-05  0 
 7.336652e-04  -4.191734e-05  0 
 1.746540e-03  -1.151228e-04  0 
 2.196838e-03  -8.410990e-05  0 
 2.121436e-04  -1.252168e-05  0 
 2.528267e-03  -3.725770e-05  0 
 4.428838e-04  -5.671235e-05  0 
 1.530107e-03  -4.246466e-05  0 
 1.940493e-03  -4.799117e-05  0 
 1.358736e-03  -6.232368e-05  0 
 1.579980e-03  -6.085234e-05  0 
 1.793801e-03  -4.000918e-05  0 
 9.219715e-04  -5.364890e-05  0 
 1.125880e-03  -6.032317e-05  0 
 1.980310e-04  -1.734043e-05  0 
 2.088850e-03  -5.556449e-05  0 
 1.997297e-03  -5.501801e-05  0 
 1.244513e-03  -4.435331e-05  0 
 2.130873e-03  -6.127052e-05  0 
VECTORS displacement_ITER9 FLOAT
 0  0  0 
 2.271013e-03  -5.445067e-05  0 
 0  0  0 
 0  0  0 
 0  0  0 
 0  0  0 
 0  0  0 
 0  0  0 
 0  0  0 
 0  0  0 
 2.113441e-03  -1.380405e-04  0 
 2.328501e-03  -1.823552e-04  0 
 2.421469e-03  -9.455820e-05  0 
 2.379758e-03  -7.325751e-05  0 
 2.332927e-03  -6.348816e-05  0 
 2.297419e-03  -6.813166e-05  0 
 3.815480e-04  -1.911763e-05  0 
 7.721518e-04  -3.295490e-05  0 
 1.117021e-03  -4.816570e-05  0 
 1.408783e-03  -5.230203e-05  0 
 1.663712e-03  -5.612124e-05  0 
 1.882535e-03  -6.528763e-05  0 
 2.080091e-03  -6.524400e-05  0 
 1.109342e-03  -7.553450e-05  0 
 1.701824e-03  -1.015730e-04  0 
 1.797207e-03  -1.184374e-04  0 
 7.230168e-04  -5.372101e-05  0 
 7.189609e-04  -4.186512e-05  0 
 4.679040e-04  -2.673646e-05  0 
 4.752392e-04  -1.777421e-05  0 
 2.183726e-03  -7.282360e-05  0 
 1.291662e-03  -8.710767e-05  0 
 7.190147e-04  -5.259306e-05  0 
 1.265550e-03  -1.024910e-04  0 
 5.055379e-04  -3.673318e-05  0 
 3.998535e-04  -2.936738e-05  0 
 1.354577e-03  -8.078458e-05  0 
 1.399951e-03  -9.503278e-05  0 
 1.620694e-03  -7.185419e-05  0 