# vtk DataFile Version 3.1
this is an vtk file created by FEMAC
ASCII
DATASET UNSTRUCTURED_GRID
POINTS 97 FLOAT
1.000000 1.000000 0.000000
0.375000 1.000000 0.000000
0.500000 1.000000 0.000000
0.625000 1.000000 0.000000
0.750000 1.000000 0.000000
0.875000 1.000000 0.000000
1.000000 0.750000 0.000000
1.000000 0.875000 0.000000
0.000000 1.125000 0.000000
0.000000 1.250000 0.000000
0.000000 1.375000 0.000000
0.000000 1.500000 0.000000
0.000000 1.625000 0.000000
0.000000 1.750000 0.000000
0.000000 1.875000 0.000000
1.000000 1.125000 0.000000
1.000000 1.250000 0.000000
1.000000 1.375000 0.000000
1.000000 1.500000 0.000000
1.000000 1.625000 0.000000
1.000000 1.750000 0.000000
0.808982 0.906680 0.000000
0.684568 0.896889 0.000000
0.762283 0.786969 0.000000
0.900105 0.829730 0.000000
0.333089 0.893025 0.000000
0.881513 0.692634 0.000000
0.423239 0.818441 0.000000
0.916817 0.922282 0.000000
0.554716 0.875492 0.000000
0.438967 0.913116 0.000000
0.360742 1.500330 0.000000
0.615166 1.316740 0.000000
0.631666 1.670900 0.000000
0.222520 1.738382 0.000000
0.229332 1.263811 0.000000
0.143088 1.880244 0.000000
0.150703 1.118890 0.000000
0.910332 1.182579 0.000000
0.436804 1.272687 0.000000
0.224019 1.508871 0.000000
0.415027 1.728883 0.000000
0.155319 1.366365 0.000000
0.123278 1.604338 0.000000
0.458586 1.407748 0.000000
0.470739 1.561734 0.000000
0.593094 1.108502 0.000000
0.330237 1.633735 0.000000
0.562061 1.892869 0.000000
0.313697 1.362814 0.000000
0.795291 1.805578 0.000000
0.808510 1.233903 0.000000
0.094006 1.250551 0.000000
0.093427 1.749564 0.000000
0.437638 1.140696 0.000000
0.526864 1.197967 0.000000
0.863568 1.574079 0.000000
0.496653 1.801332 0.000000
0.600604 1.767411 0.000000
0.698464 1.873829 0.000000
0.810446 1.095085 0.000000
0.614167 1.226378 0.000000
0.733243 1.491519 0.000000
0.704716 1.278377 0.000000
0.704572 1.737946 0.000000
0.533077 1.296807 0.000000
0.707108 1.162031 0.000000
0.294081 1.130371 0.000000
0.342310 1.234076 0.000000
0.322620 1.761245 0.000000
0.311752 1.876909 0.000000
0.562197 1.381214 0.000000
0.697130 1.073124 0.000000
0.723587 1.628042 0.000000
0.672824 1.382442 0.000000
0.584172 1.468598 0.000000
0.918710 1.077093 0.000000
0.816412 1.708968 0.000000
0.786646 1.360775 0.000000
0.521262 1.680370 0.000000
0.884881 1.441821 0.000000
0.426703 1.645404 0.000000
0.400480 1.817573 0.000000
0.898777 1.814143 0.000000
0.100523 1.470915 0.000000
0.440991 1.898114 0.000000
0.912675 1.694019 0.000000
0.226595 1.622029 0.000000
0.610778 1.583527 0.000000
0.898395 1.307346 0.000000
1.125242 1.794066 0.000000
1.129936 1.487434 0.000000
1.080149 1.577604 0.000000
1.184534 1.586593 0.000000
1.108457 1.672055 0.000000
1.248001 1.700605 0.000000
1.078053 1.381591 0.000000
CELLS 157 628 
3 21  5  4
3 23 21 22
3 23 24 21
3 22  4  3
3 21  4 22
3 5 28  0
3 7 28 24
3 28  7  0
3 21 28  5
3 21 24 28
3 26 24 23
3 6  7 24
3 24 26  6
3 2 29  3
3 29 22  3
3 2 30 29
3 27 30 25
3 30 27 29
3 2  1 30
3 1 25 30
3 31 47 40
3 49 31 40
3 35 52 37
3 53 34 36
3 44 45 31
3 49 44 31
3 39 44 49
3 49 42 35
3 40 42 49
3 14 13 53
3 36 14 53
3 9  8 52
3 8 37 52
3 52 10  9
3 10 52 42
3 52 35 42
3 12 53 13
3 53 12 43
3 34 53 43
3 46  2  3
3 16 38 15
3 46 54  2
3 46 55 54
3 55 39 54
3 58 48 57
3 59 48 58
3 60  4  5
3 46 61 55
3 63 32 61
3 33 64 58
3 65 39 55
3 39 65 44
3 46 66 61
3 35 68 49
3 68 39 49
3 68 35 67
3 41 69 47
3 69 34 47
3 70 36 34
3 71 44 65
3 32 71 65
3 4 72  3
3 72 46  3
3 32 74 71
3 75 44 71
3 76  5  0
3 76 15 38
3 15 76  0
3 76 60  5
3 38 60 76
3 69 70 34
3 54  1  2
3 19 56 18
3 65 61 32
3 55 61 65
3 59 64 50
3 59 58 64
3 72 66 46
3 63 66 51
3 63 61 66
3 71 74 75
3 72  4 60
3 51 60 38
3 51 66 60
3 60 66 72
3 64 77 50
3 78 63 51
3 75 45 44
3 58 79 33
3 41 79 57
3 58 57 79
3 18 80 17
3 80 18 56
3 81 41 47
3 81 45 79
3 41 81 79
3 57 82 41
3 82 69 41
3 1 54 67
3 68 54 39
3 67 54 68
3 75 74 62
3 70 69 82
3 62 80 56
3 62 78 80
3 84 11 10
3 42 84 10
3 20 86 19
3 43 87 34
3 47 87 40
3 87 47 34
3 87 43 40
3 86 56 19
3 77 56 86
3 70 82 85
3 57 85 82
3 85 57 48
3 86 20 83
3 50 77 83
3 77 86 83
3 73 62 56
3 56 77 73
3 40 84 42
3 84 40 43
3 32 63 74
3 78 62 74
3 74 63 78
3 33 88 73
3 88 33 79
3 78 89 80
3 89 17 80
3 89 16 17
3 88 62 73
3 75 62 88
3 88 45 75
3 79 45 88
3 64 33 73
3 64 73 77
3 11 43 12
3 43 11 84
3 81 31 45
3 47 31 81
3 51 38 89
3 16 89 38
3 78 51 89
3 18 92 19
3 92 18 91
3 94 20 19
3 20 94 90
3 92 94 19
3 92 91 93
3 92 93 94
3 94 93 95
3 95 90 94
3 96 18 17
3 91 18 96
3 16 96 17
CELL_TYPES 157
5 5 5 5 5 5 5 5 5 5 5 5 5 5 5 5 5 5 5 5 5 5 5 5 5 5 5 5 5 5 5 5 5 5 5 5 5 5 5 5 5 5 5 5 5 5 5 5 5 5 5 5 5 5 5 5 5 5 5 5 5 5 5 5 5 5 5 5 5 5 5 5 5 5 5 5 5 5 5 5 5 5 5 5 5 5 5 5 5 5 5 5 5 5 5 5 5 5 5 5 5 5 5 5 5 5 5 5 5 5 5 5 5 5 5 5 5 5 5 5 5 5 5 5 5 5 5 5 5 5 5 5 5 5 5 5 5 5 5 5 5 5 5 5 5 5 5 5 5 5 5 5 5 5 5 5 5 
POINT_DATA 97
VECTORS displacement_ITER1 FLOAT
 6.022529e-03  -1.040674e-03  0 
 8.105040e-03  -2.781018e-04  0 
 7.946000e-03  -8.747966e-04  0 
 7.538061e-03  -6.989902e-04  0 
 7.167749e-03  -7.764983e-04  0 
 6.590601e-03  -8.944360e-04  0 
 5.029785e-03  -1.929397e-03  0 
 5.294168e-03  -1.630391e-03  0 
 1.225250e-02  -1.633581e-03  0 
 1.110177e-02  -1.369110e-03  0 
 1.051848e-02  -1.091301e-03  0 
 9.864635e-03  -9.654587e-04  0 
 9.241038e-03  -1.002879e-03  0 
 8.333087e-03  -1.138485e-03  0 
 7.292520e-03  -1.279877e-03  0 
 6.492458e-03  -3.095364e-04  0 
 6.746805e-03  5.276875e-04  0 
 6.599001e-03  1.317027e-03  0 
 6.333428e-03  2.083498e-03  0 
 6.050981e-03  2.755901e-03  0 
 5.460010e-03  3.358550e-03  0 
 6.372544e-03  -1.254037e-03  0 
 6.779768e-03  -1.028147e-03  0 
 5.593945e-03  -1.596412e-03  0 
 5.451696e-03  -1.691039e-03  0 
 7.325490e-03  1.222160e-05  0 
 5.086386e-03  -1.924502e-03  0 
 6.713076e-03  -5.941419e-04  0 
 5.969596e-03  -1.292058e-03  0 
 7.163798e-03  -1.201597e-03  0 
 7.471179e-03  -6.795169e-04  0 
 9.365692e-03  8.742834e-04  0 
 8.781597e-03  4.940529e-04  0 
 7.551803e-03  2.134541e-03  0 
 8.475909e-03  6.121537e-04  0 
 1.041316e-02  -1.534325e-06  0 
 7.343793e-03  1.642039e-05  0 
 1.200888e-02  -7.869076e-04  0 
 7.188338e-03  -2.074302e-05  0 
 9.573291e-03  3.370320e-04  0 
 9.628824e-03  2.463846e-04  0 
 8.126893e-03  1.691754e-03  0 
 1.014412e-02  -1.828314e-04  0 
 9.351088e-03  -8.192629e-05  0 
 9.373738e-03  8.396626e-04  0 
 8.744873e-03  1.401143e-03  0 
 8.252038e-03  -4.001143e-04  0 
 8.819409e-03  1.021980e-03  0 
 6.718641e-03  2.831621e-03  0 
 9.939234e-03  4.017757e-04  0 
 6.218039e-03  2.949571e-03  0 
 7.726683e-03  1.826579e-04  0 
 1.087144e-02  -8.536907e-04  0 
 8.409382e-03  -3.219909e-04  0 
 9.041728e-03  -4.113238e-04  0 
 8.783212e-03  -7.305504e-05  0 
 6.911431e-03  2.053631e-03  0 
 7.461451e-03  2.288475e-03  0 
 7.293434e-03  2.533999e-03  0 
 6.372545e-03  3.154784e-03  0 
 7.393474e-03  -3.852515e-04  0 
 8.520157e-03  4.981335e-05  0 
 7.883719e-03  1.457668e-03  0 
 8.257167e-03  3.009497e-04  0 
 6.932731e-03  2.532858e-03  0 
 9.166595e-03  3.892786e-04  0 
 7.978051e-03  -1.814290e-04  0 
 9.055963e-03  -1.373277e-05  0 
 1.002249e-02  -4.736715e-05  0 
 8.137719e-03  1.221925e-03  0 
 7.307202e-03  1.339144e-03  0 
 8.953524e-03  7.525765e-04  0 
 7.744570e-03  -5.176202e-04  0 
 7.305727e-03  2.062578e-03  0 
 8.446932e-03  8.491360e-04  0 
 8.668026e-03  1.155879e-03  0 
 6.778289e-03  -5.854378e-04  0 
 6.550043e-03  2.558193e-03  0 
 7.855518e-03  7.893559e-04  0 
 8.034309e-03  1.987588e-03  0 
 7.161593e-03  1.350162e-03  0 
 8.509456e-03  1.511467e-03  0 
 7.578913e-03  1.810665e-03  0 
 5.682053e-03  3.301240e-03  0 
 9.907655e-03  -2.816906e-04  0 
 6.943645e-03  2.197538e-03  0 
 6.148787e-03  2.767039e-03  0 
 9.070485e-03  4.466926e-04  0 
 8.030014e-03  1.697152e-03  0 
 7.305606e-03  6.055565e-04  0 
 4.587965e-03  4.200595e-03  0 
 5.752985e-03  2.679909e-03  0 
 5.736390e-03  2.850941e-03  0 
 5.180559e-03  3.498356e-03  0 
 5.299572e-03  3.498258e-03  0 
 4.461088e-03  4.476405e-03  0 
 6.106371e-03  1.928282e-03  0 
VECTORS displacement_ITER2 FLOAT
 5.472682e-03  -2.299487e-03  0 
 6.343604e-03  1.258386e-04  0 
 6.507051e-03  -8.396586e-04  0 
 6.363403e-03  -1.223807e-03  0 
 6.215979e-03  -1.562123e-03  0 
 5.866960e-03  -1.959497e-03  0 
 3.984268e-03  -2.806993e-03  0 
 4.582398e-03  -2.649919e-03  0 
 8.131779e-03  6.388661e-04  0 
 7.876624e-03  2.529856e-04  0 
 7.988566e-03  -1.192586e-04  0 
 7.926195e-03  -4.766322e-04  0 
 7.862616e-03  -8.484422e-04  0 
 7.568379e-03  -1.347446e-03  0 
 7.216671e-03  -1.848971e-03  0 
 6.236624e-03  -1.787740e-03  0 
 6.835107e-03  -1.152702e-03  0 
 6.952333e-03  -5.280386e-04  0 
 6.780334e-03  5.701145e-05  0 
 6.292242e-03  5.933879e-04  0 
 5.610358e-03  1.265516e-03  0 
 5.348084e-03  -1.996659e-03  0 
 5.517043e-03  -1.484861e-03  0 
 4.362982e-03  -2.016300e-03  0 
 4.501857e-03  -2.499944e-03  0 
 5.286138e-03  7.667990e-04  0 
 3.733165e-03  -2.521587e-03  0 
 4.654455e-03  9.102105e-05  0 
 5.162901e-03  -2.307398e-03  0 
 5.500978e-03  -1.138680e-03  0 
 5.696560e-03  -2.364026e-04  0 
 8.474635e-03  -3.354847e-04  0 
 8.106624e-03  -7.902245e-04  0 
 7.613762e-03  -2.101110e-06  0 
 8.186812e-03  -6.429168e-04  0 
 8.236469e-03  4.663072e-05  0 
 7.549643e-03  -1.212963e-03  0 
 8.437884e-03  3.134960e-04  0 
 6.949616e-03  -1.434568e-03  0 
 8.244767e-03  -4.343435e-04  0 
 8.463372e-03  -3.820713e-04  0 
 8.165234e-03  -1.659870e-04  0 
 8.212988e-03  -2.976068e-05  0 
 8.189036e-03  -6.190165e-04  0 
 8.409556e-03  -4.219791e-04  0 
 8.302011e-03  -2.644200e-04  0 
 7.220044e-03  -1.028032e-03  0 
 8.309823e-03  -3.626410e-04  0 
 7.145935e-03  7.521602e-04  0 
 8.430841e-03  -2.774899e-04  0 
 6.399809e-03  7.265038e-04  0 
 7.448659e-03  -1.177205e-03  0 
 8.120719e-03  1.466299e-04  0 
 7.901773e-03  -1.066060e-03  0 
 7.578365e-03  -5.811247e-04  0 
 7.761636e-03  -7.668662e-04  0 
 7.086711e-03  -8.830634e-05  0 
 7.793736e-03  2.355733e-04  0 
 7.544691e-03  3.621555e-04  0 
 6.666949e-03  9.947606e-04  0 
 6.757017e-03  -1.495714e-03  0 
 7.780582e-03  -9.331163e-04  0 
 7.802354e-03  -5.021572e-04  0 
 7.824748e-03  -1.005178e-03  0 
 7.128811e-03  3.241373e-04  0 
 8.195751e-03  -6.684414e-04  0 
 7.334171e-03  -1.211263e-03  0 
 7.162231e-03  1.871471e-04  0 
 8.204629e-03  -3.065793e-04  0 
 8.123870e-03  -3.997418e-04  0 
 7.751982e-03  -4.495876e-04  0 
 8.250024e-03  -6.367493e-04  0 
 6.824205e-03  -1.337738e-03  0 
 7.404017e-03  -6.300931e-05  0 
 8.081178e-03  -7.531114e-04  0 
 8.193798e-03  -5.537352e-04  0 
 6.268651e-03  -1.835966e-03  0 
 6.776311e-03  3.444034e-04  0 
 7.785319e-03  -8.490419e-04  0 
 8.018107e-03  -2.824669e-05  0 
 7.395172e-03  -5.215289e-04  0 
 8.218667e-03  -2.367481e-04  0 
 7.896683e-03  -1.401688e-04  0 
 5.851094e-03  1.131422e-03  0 
 8.191783e-03  -2.559443e-04  0 
 7.398020e-03  1.698553e-04  0 
 6.383892e-03  5.795761e-04  0 
 8.247310e-03  -5.172896e-04  0 
 7.925973e-03  -3.180123e-04  0 
 7.377214e-03  -1.012108e-03  0 
 4.696653e-03  2.233340e-03  0 
 6.282034e-03  7.246304e-04  0 
 6.137617e-03  8.211429e-04  0 
 5.579050e-03  1.620906e-03  0 
 5.441805e-03  1.484009e-03  0 
 4.557846e-03  2.652171e-03  0 
 6.574803e-03  1.562553e-05  0 
VECTORS displacement_ITER3 FLOAT
 4.375686e-03  -5.269287e-05  0 
 4.241328e-03  -1.112377e-04  0 
 4.285701e-03  -5.209199e-04  0 
 4.232445e-03  -5.784461e-04  0 
 4.201137e-03  -4.501844e-04  0 
 4.221660e-03  -2.198808e-04  0 
 4.638300e-03  5.269422e-04  0 
 4.254000e-03  2.569781e-04  0 
 3.991095e-03  1.204073e-03  0 
 4.541421e-03  7.229611e-04  0 
 4.961602e-03  2.477988e-04  0 
 5.027509e-03  8.273853e-05  0 
 4.961057e-03  -9.392964e-05  0 
 4.823907e-03  -3.526167e-04  0 
 4.697533e-03  -6.097554e-04  0 
 4.430804e-03  -2.132305e-04  0 
 4.479521e-03  -3.416647e-04  0 
 4.510507e-03  -2.974412e-04  0 
 4.576466e-03  -2.469363e-04  0 
 4.512853e-03  -2.260430e-04  0 
 4.304997e-03  -1.341446e-04  0 
 4.072741e-03  -3.121403e-04  0 
 4.050502e-03  -5.253136e-04  0 
 4.185311e-03  -3.419646e-04  0 
 4.208952e-03  -1.027557e-05  0 
 3.893772e-03  1.619147e-04  0 
 4.691692e-03  1.387164e-04  0 
 3.717260e-03  -1.299749e-04  0 
 4.134258e-03  -5.724554e-05  0 
 4.007954e-03  -5.818356e-04  0 
 4.033326e-03  -2.744073e-04  0 
 5.054254e-03  -1.607514e-04  0 
 4.737052e-03  -4.229293e-04  0 
 4.721901e-03  -1.900478e-04  0 
 5.090203e-03  -1.269208e-04  0 
 4.919041e-03  -2.851402e-05  0 
 4.846379e-03  -3.671697e-04  0 
 4.273186e-03  1.834057e-04  0 
 4.395840e-03  -3.792492e-04  0 
 4.844205e-03  -3.183226e-04  0 
 5.162818e-03  -6.816332e-05  0 
 5.004576e-03  -2.943765e-06  0 
 5.049225e-03  7.320351e-05  0 
 5.097558e-03  -8.801283e-05  0 
 4.952225e-03  -2.521687e-04  0 
 4.947255e-03  -1.510383e-04  0 
 4.411156e-03  -5.444338e-04  0 
 5.074855e-03  -6.562913e-05  0 
 4.716149e-03  1.684746e-04  0 
 5.029450e-03  -1.898176e-04  0 
 4.398446e-03  -1.776132e-04  0 
 4.489113e-03  -3.807871e-04  0 
 4.862307e-03  2.627015e-04  0 
 4.982219e-03  -2.751300e-04  0 
 4.575501e-03  -4.015503e-04  0 
 4.619954e-03  -4.532717e-04  0 
 4.600477e-03  -3.107481e-04  0 
 4.877148e-03  9.626767e-05  0 
 4.732421e-03  -4.735886e-05  0 
 4.506640e-03  1.045068e-07  0 
 4.270905e-03  -3.751558e-04  0 
 4.582651e-03  -4.657884e-04  0 
 4.683159e-03  -3.108314e-04  0 
 4.621900e-03  -4.250775e-04  0 
 4.592009e-03  -1.848264e-04  0 
 4.774989e-03  -3.806073e-04  0 
 4.406043e-03  -4.623796e-04  0 
 4.449207e-03  -4.437430e-05  0 
 4.854910e-03  -2.463132e-04  0 
 5.030349e-03  -4.762380e-05  0 
 4.905409e-03  -4.322845e-05  0 
 4.846019e-03  -3.660437e-04  0 
 4.292436e-03  -5.010296e-04  0 
 4.673849e-03  -2.526847e-04  0 
 4.756135e-03  -3.923288e-04  0 
 4.836395e-03  -3.226934e-04  0 
 4.335348e-03  -2.687843e-04  0 
 4.536864e-03  -2.323072e-04  0 
 4.669084e-03  -3.446313e-04  0 
 4.857360e-03  -6.098922e-05  0 
 4.626902e-03  -3.237766e-04  0 
 4.972842e-03  -8.267252e-05  0 
 4.931611e-03  2.100904e-05  0 
 4.314842e-03  -1.994723e-04  0 
 5.098657e-03  4.641714e-05  0 
 4.778216e-03  9.987457e-05  0 
 4.479672e-03  -2.735208e-04  0 
 5.086186e-03  -1.018735e-04  0 
 4.762787e-03  -2.353966e-04  0 
 4.557919e-03  -3.919778e-04  0 
 4.175227e-03  -5.510537e-05  0 
 4.545158e-03  -2.074643e-04  0 
 4.509004e-03  -2.145969e-04  0 
 4.417363e-03  -7.566141e-05  0 
 4.327136e-03  -1.246182e-04  0 
 4.194900e-03  4.268932e-05  0 
 4.464468e-03  -2.224045e-04  0 
VECTORS displacement_ITER4 FLOAT
 3.258642e-03  -2.230893e-04  0 
 3.534666e-03  -2.878365e-05  0 
 3.499866e-03  -2.945249e-04  0 
 3.372260e-03  -3.100747e-04  0 
 3.289900e-03  -2.739070e-04  0 
 3.234746e-03  -2.500060e-04  0 
 2.833968e-03  -1.400190e-04  0 
 2.946894e-03  -1.823491e-04  0 
 3.820160e-03  5.433470e-04  0 
 3.868219e-03  3.739046e-04  0 
 4.012077e-03  2.105776e-04  0 
 4.047607e-03  1.383051e-04  0 
 4.027331e-03  5.490790e-05  0 
 3.961548e-03  -8.544139e-05  0 
 3.907872e-03  -2.266424e-04  0 
 3.372210e-03  -2.652844e-04  0 
 3.553194e-03  -3.064480e-04  0 
 3.669489e-03  -2.766701e-04  0 
 3.843430e-03  -2.475174e-04  0 
 3.847831e-03  -2.455885e-04  0 
 3.752674e-03  -1.732593e-04  0 
 3.085808e-03  -2.911533e-04  0 
 3.163904e-03  -3.398828e-04  0 
 2.900971e-03  -3.684291e-04  0 
 2.898574e-03  -2.439427e-04  0 
 3.457671e-03  -7.510282e-05  0 
 2.831472e-03  -2.576410e-04  0 
 3.380749e-03  -2.255006e-04  0 
 3.072228e-03  -2.175197e-04  0 
 3.248262e-03  -4.140515e-04  0 
 3.362540e-03  -1.777674e-04  0 
 4.023536e-03  2.088069e-05  0 
 3.804083e-03  -1.684642e-04  0 
 3.909249e-03  -1.546472e-04  0 
 4.071979e-03  2.549028e-05  0 
 3.974573e-03  1.101265e-04  0 
 3.986635e-03  -8.879218e-05  0 
 3.929407e-03  2.394506e-04  0 
 3.458503e-03  -2.847817e-04  0 
 3.867390e-03  -8.468181e-05  0 
 4.076747e-03  6.721876e-05  0 
 4.056148e-03  1.939173e-05  0 
 4.029287e-03  1.396238e-04  0 
 4.071389e-03  6.101191e-05  0 
 3.957754e-03  -5.218343e-05  0 
 3.991435e-03  -4.096584e-05  0 
 3.506619e-03  -2.364103e-04  0 
 4.044351e-03  4.908552e-05  0 
 3.957128e-03  3.184912e-05  0 
 4.009845e-03  3.046623e-05  0 
 3.779006e-03  -2.504099e-04  0 
 3.574507e-03  -2.291300e-04  0 
 3.960877e-03  2.242058e-04  0 
 4.035487e-03  -2.943903e-05  0 
 3.683962e-03  -1.690792e-04  0 
 3.689906e-03  -1.672885e-04  0 
 3.888669e-03  -2.405241e-04  0 
 4.023720e-03  3.471549e-05  0 
 3.930189e-03  -1.037680e-04  0 
 3.825460e-03  -1.538769e-04  0 
 3.358918e-03  -2.480664e-04  0 
 3.671644e-03  -1.893832e-04  0 
 3.870454e-03  -1.735759e-04  0 
 3.709398e-03  -1.938884e-04  0 
 3.874205e-03  -2.138562e-04  0 
 3.823138e-03  -1.269822e-04  0 
 3.508343e-03  -2.318857e-04  0 
 3.665841e-03  7.855469e-05  0 
 3.902238e-03  -2.740828e-05  0 
 4.062271e-03  2.234236e-05  0 
 4.028198e-03  -3.969740e-06  0 
 3.891217e-03  -1.368748e-04  0 
 3.387117e-03  -2.621496e-04  0 
 3.916051e-03  -1.911206e-04  0 
 3.850087e-03  -1.765022e-04  0 
 3.924995e-03  -1.363081e-04  0 
 3.323649e-03  -2.728514e-04  0 
 3.891273e-03  -2.342997e-04  0 
 3.791784e-03  -1.883265e-04  0 
 3.954459e-03  -4.420622e-05  0 
 3.820116e-03  -2.255727e-04  0 
 4.002093e-03  -1.381781e-05  0 
 4.038414e-03  5.925919e-06  0 
 3.752290e-03  -2.112391e-04  0 
 4.061326e-03  1.234233e-04  0 
 3.967445e-03  1.545151e-05  0 
 3.862532e-03  -2.410906e-04  0 
 4.058188e-03  4.452563e-05  0 
 3.919050e-03  -1.306877e-04  0 
 3.660688e-03  -2.824007e-04  0 
 3.522782e-03  -1.045890e-04  0 
 3.811992e-03  -3.207591e-04  0 
 3.830591e-03  -2.925660e-04  0 
 3.764661e-03  -2.621788e-04  0 
 3.720196e-03  -2.512114e-04  0 
 3.492936e-03  -6.588020e-05  0 
 3.637047e-03  -2.797173e-04  0 
VECTORS displacement_ITER5 FLOAT
 2.947046e-03  -1.129595e-04  0 
 3.155465e-03  7.971778e-05  0 
 3.137319e-03  -7.568640e-05  0 
 3.070922e-03  -3.869160e-05  0 
 3.047837e-03  -3.710965e-05  0 
 2.991941e-03  -7.977043e-05  0 
 2.306531e-03  -2.149253e-04  0 
 2.588096e-03  -1.865926e-04  0 
 3.327442e-03  2.843910e-04  0 
 3.404932e-03  1.101405e-04  0 
 3.500289e-03  -6.221248e-05  0 
 3.484360e-03  -1.520827e-04  0 
 3.404923e-03  -2.367918e-04  0 
 3.255019e-03  -3.852234e-04  0 
 3.132871e-03  -5.349182e-04  0 
 3.070841e-03  -5.527897e-05  0 
 3.201656e-03  -1.886400e-05  0 
 3.205378e-03  3.802135e-05  0 
 3.318149e-03  1.027983e-04  0 
 3.274683e-03  1.617254e-04  0 
 3.196047e-03  2.632701e-04  0 
 2.828029e-03  -8.277337e-05  0 
 2.877070e-03  -3.047170e-05  0 
 2.481044e-03  -1.057206e-04  0 
 2.532321e-03  -1.482244e-04  0 
 3.063145e-03  2.794700e-05  0 
 2.223719e-03  -1.587706e-04  0 
 3.011413e-03  -3.249200e-05  0 
 2.797804e-03  -1.069788e-04  0 
 2.915449e-03  -1.029345e-04  0 
 2.994179e-03  1.564589e-06  0 
 3.518815e-03  -3.180015e-05  0 
 3.457346e-03  8.828004e-06  0 
 3.380975e-03  -5.611098e-06  0 
 3.373285e-03  -1.569365e-04  0 
 3.519617e-03  -4.807425e-06  0 
 3.205730e-03  -2.947039e-04  0 
 3.425688e-03  6.210220e-05  0 
 3.183340e-03  -4.705211e-05  0 
 3.499369e-03  1.296808e-05  0 
 3.532461e-03  -5.686782e-05  0 
 3.442681e-03  -6.367801e-05  0 
 3.536281e-03  -3.639372e-05  0 
 3.459900e-03  -1.632114e-04  0 
 3.508669e-03  -5.049226e-06  0 
 3.492140e-03  -2.078498e-05  0 
 3.211102e-03  -2.945756e-05  0 
 3.466402e-03  -5.695848e-05  0 
 3.300094e-03  3.796697e-05  0 
 3.522182e-03  -9.618064e-06  0 
 3.228885e-03  2.188941e-05  0 
 3.259377e-03  -3.457676e-05  0 
 3.502972e-03  1.957073e-05  0 
 3.335091e-03  -2.675551e-04  0 
 3.344620e-03  -2.473592e-05  0 
 3.366703e-03  -6.869481e-06  0 
 3.392627e-03  7.684651e-05  0 
 3.398482e-03  -2.084484e-07  0 
 3.362362e-03  -1.444937e-06  0 
 3.232501e-03  2.667706e-05  0 
 3.146455e-03  -4.310459e-05  0 
 3.370150e-03  -1.286328e-05  0 
 3.431830e-03  4.966952e-05  0 
 3.378036e-03  -4.874403e-06  0 
 3.333800e-03  -6.476494e-06  0 
 3.482212e-03  3.070041e-06  0 
 3.236393e-03  -4.752629e-05  0 
 3.313053e-03  1.058054e-04  0 
 3.509545e-03  2.250713e-05  0 
 3.387262e-03  -1.407831e-04  0 
 3.280638e-03  -2.156705e-04  0 
 3.484721e-03  -5.897068e-07  0 
 3.141825e-03  -4.432740e-05  0 
 3.406519e-03  3.564637e-05  0 
 3.464293e-03  1.919312e-05  0 
 3.482256e-03  -6.838909e-06  0 
 3.075748e-03  -8.105243e-05  0 
 3.361999e-03  5.533118e-05  0 
 3.400701e-03  2.156965e-05  0 
 3.408070e-03  -7.647241e-06  0 
 3.352191e-03  5.852249e-05  0 
 3.446614e-03  -5.955927e-05  0 
 3.356927e-03  -1.302831e-04  0 
 3.189187e-03  1.930349e-04  0 
 3.524880e-03  -1.004518e-04  0 
 3.255185e-03  -1.262393e-04  0 
 3.319327e-03  1.587882e-04  0 
 3.460871e-03  -1.035757e-04  0 
 3.437622e-03  2.890680e-06  0 
 3.275217e-03  -3.430784e-05  0 
 3.032018e-03  2.889384e-04  0 
 3.229079e-03  5.928962e-05  0 
 3.237567e-03  1.188493e-04  0 
 3.143071e-03  1.188217e-04  0 
 3.131519e-03  1.806410e-04  0 
 2.955594e-03  2.188190e-04  0 
 3.148437e-03  3.524425e-05  0 
VECTORS displacement_ITER6 FLOAT
 2.703353e-03  -1.749337e-04  0 
 2.925573e-03  1.132108e-04  0 
 2.895403e-03  -1.854394e-05  0 
 2.859290e-03  -6.175084e-05  0 
 2.835688e-03  -1.095275e-04  0 
 2.752404e-03  -1.652256e-04  0 
 2.263849e-03  -1.681207e-04  0 
 2.431483e-03  -1.802182e-04  0 
 3.084926e-03  3.271355e-04  0 
 3.165667e-03  2.071595e-04  0 
 3.257823e-03  8.624016e-05  0 
 3.284179e-03  -1.863763e-05  0 
 3.234855e-03  -1.120615e-04  0 
 3.149298e-03  -2.476142e-04  0 
 3.075246e-03  -3.833292e-04  0 
 2.806896e-03  -1.248580e-04  0 
 2.949364e-03  -8.539546e-05  0 
 2.971646e-03  -3.596068e-05  0 
 3.063637e-03  1.972195e-05  0 
 3.035867e-03  6.689442e-05  0 
 2.983534e-03  1.350648e-04  0 
 2.598234e-03  -1.830222e-04  0 
 2.643822e-03  -7.637845e-05  0 
 2.319906e-03  -1.779953e-04  0 
 2.386265e-03  -2.154344e-04  0 
 2.684627e-03  1.948882e-04  0 
 2.163221e-03  -1.825009e-04  0 
 2.482018e-03  8.415261e-05  0 
 2.567310e-03  -1.861222e-04  0 
 2.636589e-03  -4.048385e-05  0 
 2.725969e-03  4.487303e-05  0 
 3.336817e-03  1.334217e-05  0 
 3.214369e-03  7.954792e-07  0 
 3.208443e-03  5.039039e-05  0 
 3.263015e-03  -1.018123e-04  0 
 3.256522e-03  7.221954e-05  0 
 3.135115e-03  -2.324708e-04  0 
 3.124324e-03  1.828941e-04  0 
 2.930935e-03  -9.753083e-05  0 
 3.265471e-03  3.910610e-05  0 
 3.355411e-03  1.433297e-05  0 
 3.261538e-03  -3.733522e-06  0 
 3.311430e-03  6.352710e-05  0 
 3.293301e-03  -7.778145e-05  0 
 3.294995e-03  1.894648e-05  0 
 3.309782e-03  2.286748e-05  0 
 3.013445e-03  -5.032116e-05  0 
 3.321104e-03  -4.944470e-06  0 
 3.096213e-03  7.376261e-05  0 
 3.301388e-03  3.938457e-05  0 
 3.053323e-03  8.004435e-05  0 
 3.018494e-03  -6.739799e-05  0 
 3.225548e-03  1.556316e-04  0 
 3.219618e-03  -1.860218e-04  0 
 3.124518e-03  3.641343e-05  0 
 3.159977e-03  -2.040849e-06  0 
 3.137242e-03  4.493933e-05  0 
 3.197908e-03  4.493303e-05  0 
 3.185963e-03  6.940638e-05  0 
 3.063232e-03  9.990037e-05  0 
 2.916574e-03  -9.972779e-05  0 
 3.150486e-03  -2.655779e-05  0 
 3.190768e-03  3.543242e-05  0 
 3.137551e-03  -2.866239e-05  0 
 3.148239e-03  6.123198e-05  0 
 3.248411e-03  7.373055e-06  0 
 3.018033e-03  -8.353123e-05  0 
 3.116835e-03  1.512810e-04  0 
 3.250212e-03  8.194559e-05  0 
 3.239280e-03  -4.167823e-05  0 
 3.151423e-03  -7.228010e-05  0 
 3.255701e-03  1.302538e-05  0 
 2.938981e-03  -9.328747e-05  0 
 3.192644e-03  5.525893e-05  0 
 3.220022e-03  3.180676e-06  0 
 3.264568e-03  1.533336e-05  0 
 2.820850e-03  -1.530933e-04  0 
 3.127231e-03  7.471500e-05  0 
 3.150104e-03  -6.270043e-06  0 
 3.254429e-03  5.124153e-05  0 
 3.104183e-03  1.322837e-05  0 
 3.298097e-03  4.535320e-06  0 
 3.190677e-03  -3.415681e-05  0 
 3.004816e-03  1.397023e-04  0 
 3.326583e-03  3.704805e-06  0 
 3.091777e-03  -1.901150e-05  0 
 3.076010e-03  9.533183e-05  0 
 3.306037e-03  -4.218906e-05  0 
 3.240389e-03  4.127752e-05  0 
 3.029133e-03  -7.325702e-05  0 
 2.843271e-03  1.255780e-04  0 
 2.990511e-03  -4.321028e-05  0 
 2.999495e-03  1.036407e-05  0 
 2.927841e-03  -1.968713e-05  0 
 2.929859e-03  4.345441e-05  0 
 2.780801e-03  5.345136e-05  0 
 2.920666e-03  -4.682458e-05  0 
VECTORS displacement_ITER7 FLOAT
 2.627495e-03  -1.477936e-04  0 
 2.874519e-03  4.277337e-05  0 
 2.841519e-03  -3.387200e-05  0 
 2.800412e-03  -5.174541e-05  0 
 2.765952e-03  -8.181247e-05  0 
 2.681472e-03  -1.365963e-04  0 
 2.182374e-03  -1.415513e-04  0 
 2.360988e-03  -1.573116e-04  0 
 2.916111e-03  4.074570e-04  0 
 3.020259e-03  2.527053e-04  0 
 3.127999e-03  9.739864e-05  0 
 3.169599e-03  -2.224696e-05  0 
 3.132707e-03  -1.122291e-04  0 
 3.076077e-03  -2.343522e-04  0 
 3.019642e-03  -3.549339e-04  0 
 2.763021e-03  -1.026003e-04  0 
 2.939169e-03  -6.962772e-05  0 
 2.990050e-03  -3.699937e-05  0 
 3.039581e-03  -3.562648e-06  0 
 2.995176e-03  2.790886e-05  0 
 2.901706e-03  6.393093e-05  0 
 2.528612e-03  -1.551258e-04  0 
 2.585801e-03  -6.836174e-05  0 
 2.260529e-03  -1.675500e-04  0 
 2.310482e-03  -1.878756e-04  0 
 2.711020e-03  3.698456e-05  0 
 2.096558e-03  -1.698484e-04  0 
 2.557350e-03  -1.037168e-05  0 
 2.497615e-03  -1.599842e-04  0 
 2.595821e-03  -5.173864e-05  0 
 2.695427e-03  -1.658079e-06  0 
 3.248336e-03  -3.165688e-05  0 
 3.139324e-03  -2.685687e-05  0 
 3.133473e-03  -2.029350e-06  0 
 3.169115e-03  -1.532188e-04  0 
 3.168743e-03  5.542581e-05  0 
 3.053839e-03  -2.558200e-04  0 
 2.989121e-03  2.235806e-04  0 
 2.897351e-03  -7.086592e-05  0 
 3.164670e-03  -2.892403e-06  0 
 3.256308e-03  -1.895350e-05  0 
 3.168598e-03  -6.729801e-05  0 
 3.217224e-03  4.594259e-05  0 
 3.184812e-03  -1.185757e-04  0 
 3.220389e-03  -2.553333e-05  0 
 3.224996e-03  -3.460727e-05  0 
 2.946814e-03  -4.467669e-05  0 
 3.229008e-03  -5.840754e-05  0 
 2.957684e-03  1.944789e-05  0 
 3.217928e-03  9.714446e-06  0 
 2.940551e-03  3.985209e-05  0 
 2.985699e-03  -4.781359e-05  0 
 3.105257e-03  1.803363e-04  0 
 3.136120e-03  -2.127830e-04  0 
 3.042306e-03  -4.351357e-06  0 
 3.070475e-03  -2.032708e-05  0 
 3.085258e-03  2.817026e-06  0 
 3.094186e-03  -2.309857e-05  0 
 3.087155e-03  1.068986e-05  0 
 2.921257e-03  6.066074e-05  0 
 2.859059e-03  -7.063396e-05  0 
 3.070668e-03  -3.797042e-05  0 
 3.141615e-03  -5.900210e-06  0 
 3.076033e-03  -3.700991e-05  0 
 3.058086e-03  2.070793e-05  0 
 3.157879e-03  -2.113570e-05  0 
 2.964703e-03  -6.232363e-05  0 
 3.055934e-03  9.407362e-05  0 
 3.151966e-03  4.076712e-05  0 
 3.146435e-03  -9.584177e-05  0 
 3.052823e-03  -1.282333e-04  0 
 3.186493e-03  -2.410570e-05  0 
 2.875017e-03  -6.842168e-05  0 
 3.116904e-03  3.220855e-06  0 
 3.158456e-03  -2.621740e-05  0 
 3.197788e-03  -2.571207e-05  0 
 2.761402e-03  -1.229740e-04  0 
 3.030136e-03  2.175183e-05  0 
 3.106109e-03  -2.334204e-05  0 
 3.173962e-03  -1.478795e-05  0 
 3.080505e-03  -1.434853e-05  0 
 3.212622e-03  -5.251672e-05  0 
 3.095200e-03  -9.179719e-05  0 
 2.883625e-03  6.252679e-05  0 
 3.217956e-03  -2.534733e-05  0 
 2.976039e-03  -6.777261e-05  0 
 2.994926e-03  3.504296e-05  0 
 3.205824e-03  -8.525290e-05  0 
 3.167349e-03  -1.190531e-05  0 
 3.018927e-03  -5.934800e-05  0 
 2.781541e-03  9.274222e-05  0 
 2.975618e-03  -1.910970e-05  0 
 2.974027e-03  1.036521e-05  0 
 2.912867e-03  8.902531e-06  0 
 2.903205e-03  4.019159e-05  0 
 2.785145e-03  7.072549e-05  0 
 2.952393e-03  -3.880191e-05  0 
VECTORS displacement_ITER8 FLOAT
 2.606289e-03  -1.553210e-04  0 
 2.808063e-03  6.006108e-05  0 
 2.787504e-03  -1.671846e-05  0 
 2.753330e-03  -4.885261e-05  0 
 2.719865e-03  -8.705125e-05  0 
 2.655966e-03  -1.238315e-04  0 
 2.158911e-03  -1.597535e-04  0 
 2.362498e-03  -1.535533e-04  0 
 3.018654e-03  3.069766e-04  0 
 3.043081e-03  2.071913e-04  0 
 3.100242e-03  1.066031e-04  0 
 3.127491e-03  -8.797779e-06  0 
 3.108719e-03  -9.689925e-05  0 
 3.057049e-03  -2.166253e-04  0 
 2.996358e-03  -3.351759e-04  0 
 2.753448e-03  -1.114803e-04  0 
 2.898202e-03  -8.974171e-05  0 
 2.960342e-03  -5.228181e-05  0 
 2.988999e-03  -1.513675e-05  0 
 2.958826e-03  2.829814e-05  0 
 2.870645e-03  5.514152e-05  0 
 2.509757e-03  -1.341664e-04  0 
 2.546628e-03  -6.854259e-05  0 
 2.272340e-03  -1.320163e-04  0 
 2.319823e-03  -1.689981e-04  0 
 2.631221e-03  8.982330e-05  0 
 2.070216e-03  -1.601593e-04  0 
 2.467059e-03  3.755237e-05  0 
 2.481872e-03  -1.492986e-04  0 
 2.549493e-03  -3.304834e-05  0 
 2.641364e-03  2.557674e-05  0 
 3.233366e-03  -8.146505e-06  0 
 3.110897e-03  -2.900786e-05  0 
 3.120800e-03  1.491478e-05  0 
 3.151808e-03  -1.482864e-04  0 
 3.153746e-03  1.086918e-04  0 
 3.043746e-03  -2.453737e-04  0 
 3.075317e-03  2.664970e-04  0 
 2.864276e-03  -8.598047e-05  0 
 3.135349e-03  9.864387e-06  0 
 3.223531e-03  -1.130552e-05  0 
 3.144548e-03  -6.195804e-05  0 
 3.178622e-03  7.269833e-05  0 
 3.156887e-03  -9.709371e-05  0 
 3.211817e-03  -1.247553e-05  0 
 3.210200e-03  -2.419557e-05  0 
 2.910299e-03  -4.238010e-05  0 
 3.204957e-03  -5.426213e-05  0 
 2.918514e-03  2.689930e-05  0 
 3.207327e-03  4.652738e-05  0 
 2.919579e-03  7.265791e-05  0 
 2.957449e-03  -5.738765e-05  0 
 3.088003e-03  1.899072e-04  0 
 3.115552e-03  -1.897192e-04  0 
 2.995150e-03  1.078217e-06  0 
 3.026916e-03  -2.073231e-05  0 
 3.055632e-03  1.165716e-05  0 
 3.065656e-03  -2.190143e-05  0 
 3.064995e-03  2.485589e-05  0 
 2.888013e-03  7.877296e-05  0 
 2.823628e-03  -8.237324e-05  0 
 3.031262e-03  -4.379097e-05  0 
 3.126203e-03  -5.966836e-06  0 
 3.039764e-03  -4.780483e-05  0 
 3.040708e-03  4.338082e-05  0 
 3.130813e-03  -2.009324e-05  0 
 2.933722e-03  -6.611034e-05  0 
 3.005734e-03  1.215659e-04  0 
 3.124346e-03  6.158423e-05  0 
 3.127768e-03  -8.786349e-05  0 
 3.035745e-03  -1.188120e-04  0 
 3.167236e-03  -1.882821e-05  0 
 2.836414e-03  -7.056873e-05  0 
 3.094643e-03  1.230860e-05  0 
 3.130446e-03  -2.683859e-05  0 
 3.186932e-03  -1.432566e-05  0 
 2.745749e-03  -1.204897e-04  0 
 2.995959e-03  4.046502e-05  0 
 3.068263e-03  -3.754111e-05  0 
 3.161862e-03  -7.135986e-06  0 
 3.043493e-03  -2.490139e-05  0 
 3.197697e-03  -3.933025e-05  0 
 3.075334e-03  -7.969144e-05  0 
 2.852819e-03  7.420995e-05  0 