# vtk DataFile Version 3.1
this is an vtk file created by FEMAC
ASCII
DATASET UNSTRUCTURED_GRID
POINTS 96 FLOAT
0.000000 2.000000 0.000000
0.000000 3.000000 0.000000
1.000000 3.000000 0.000000
0.125000 2.000000 0.000000
0.250000 2.000000 0.000000
0.375000 2.000000 0.000000
0.500000 2.000000 0.000000
0.625000 2.000000 0.000000
0.750000 2.000000 0.000000
0.000000 1.875000 0.000000
0.125000 3.000000 0.000000
0.250000 3.000000 0.000000
0.375000 3.000000 0.000000
0.500000 3.000000 0.000000
0.625000 3.000000 0.000000
0.750000 3.000000 0.000000
0.875000 3.000000 0.000000
0.000000 2.125000 0.000000
0.000000 2.250000 0.000000
0.000000 2.375000 0.000000
0.000000 2.500000 0.000000
0.000000 2.625000 0.000000
0.000000 2.750000 0.000000
0.000000 2.875000 0.000000
1.000000 2.375000 0.000000
1.000000 2.625000 0.000000
1.000000 2.750000 0.000000
1.000000 2.875000 0.000000
0.143088 1.880244 0.000000
0.562061 1.892869 0.000000
0.698464 1.873829 0.000000
0.311752 1.876909 0.000000
0.067022 1.938811 0.000000
0.440991 1.898114 0.000000
0.360742 2.500330 0.000000
0.615166 2.316740 0.000000
0.631666 2.670900 0.000000
0.222520 2.738382 0.000000
0.229332 2.263811 0.000000
0.143088 2.880244 0.000000
0.150703 2.118890 0.000000
0.910332 2.182579 0.000000
0.436804 2.272687 0.000000
0.224019 2.508871 0.000000
0.415027 2.728883 0.000000
0.155319 2.366365 0.000000
0.123278 2.604338 0.000000
0.458586 2.407748 0.000000
0.470739 2.561734 0.000000
0.593094 2.108502 0.000000
0.330237 2.633735 0.000000
0.562061 2.892869 0.000000
0.313697 2.362814 0.000000
0.795291 2.805578 0.000000
0.808510 2.233903 0.000000
0.094006 2.250551 0.000000
0.093427 2.749564 0.000000
0.437638 2.140696 0.000000
0.526864 2.197967 0.000000
0.863568 2.574079 0.000000
0.496653 2.801332 0.000000
0.600604 2.767411 0.000000
0.698464 2.873829 0.000000
0.810446 2.095085 0.000000
0.614167 2.226378 0.000000
0.733243 2.491519 0.000000
0.704716 2.278377 0.000000
0.704572 2.737946 0.000000
0.533077 2.296807 0.000000
0.707108 2.162031 0.000000
0.294081 2.130371 0.000000
0.342310 2.234076 0.000000
0.322620 2.761245 0.000000
0.311752 2.876909 0.000000
0.562197 2.381214 0.000000
0.697130 2.073124 0.000000
0.723587 2.628042 0.000000
0.672824 2.382442 0.000000
0.584172 2.468598 0.000000
0.816412 2.708968 0.000000
0.786646 2.360775 0.000000
0.521262 2.680370 0.000000
0.884881 2.441821 0.000000
0.426703 2.645404 0.000000
0.400480 2.817573 0.000000
0.067022 2.938811 0.000000
0.898777 2.814143 0.000000
0.100523 2.470915 0.000000
0.825839 2.905175 0.000000
0.440991 2.898114 0.000000
0.912675 2.694019 0.000000
0.226595 2.622029 0.000000
0.919923 2.918863 0.000000
0.610778 2.583527 0.000000
0.898395 2.307346 0.000000
0.068926 2.060973 0.000000
CELLS 157 628 
3 3 28  4
3 6 29  7
3 28 31  4
3 7 29 30
3 30  8  7
3 32  3  0
3 32  9 28
3 9 32  0
3 3 32 28
3 5  4 31
3 33  6  5
3 31 33  5
3 6 33 29
3 10 39 11
3 40  3  4
3 34 50 43
3 52 34 43
3 38 55 40
3 56 37 39
3 47 48 34
3 52 47 34
3 42 47 52
3 52 45 38
3 43 45 52
3 23 22 56
3 39 23 56
3 18 17 55
3 17 40 55
3 55 19 18
3 19 55 45
3 55 38 45
3 21 56 22
3 56 21 46
3 37 56 46
3 49  6  7
3 13 51 14
3 49 57  6
3 49 58 57
3 58 42 57
3 61 51 60
3 62 51 61
3 49 64 58
3 66 35 64
3 36 67 61
3 68 42 58
3 42 68 47
3 49 69 64
3 38 71 52
3 71 42 52
3 71 38 70
3 44 72 50
3 72 37 50
3 73 39 37
3 39 73 11
3 74 47 68
3 35 74 68
3 8 75  7
3 75 49  7
3 35 77 74
3 78 47 74
3 72 73 37
3 57  5  6
3 68 64 35
3 58 64 68
3 62 67 53
3 62 61 67
3 75 69 49
3 66 69 54
3 66 64 69
3 74 77 78
3 75  8 63
3 54 63 41
3 54 69 63
3 63 69 75
3 67 79 53
3 80 66 54
3 14 51 62
3 78 48 47
3 40 70 38
3 70 40  4
3 5 70  4
3 61 81 36
3 44 81 60
3 61 60 81
3 62 15 14
3 83 44 50
3 83 48 81
3 44 83 81
3 60 84 44
3 85 10  1
3 85 23 39
3 23 85  1
3 10 85 39
3 84 72 44
3 5 57 70
3 71 57 42
3 70 57 71
3 78 77 65
3 12 11 73
3 73 72 84
3 65 82 59
3 65 80 82
3 87 20 19
3 45 87 19
3 88 53 86
3 89 13 12
3 26 90 25
3 46 91 37
3 50 91 43
3 91 50 37
3 91 46 43
3 16 92  2
3 27 92 86
3 92 27  2
3 90 59 25
3 79 59 90
3 73 89 12
3 73 84 89
3 88 92 16
3 88 86 92
3 13 89 51
3 60 89 84
3 89 60 51
3 15 88 16
3 88 15 62
3 53 88 62
3 26 27 86
3 90 26 86
3 53 79 86
3 79 90 86
3 76 65 59
3 59 79 76
3 43 87 45
3 87 43 46
3 35 66 77
3 80 65 77
3 77 66 80
3 36 93 76
3 93 36 81
3 80 94 82
3 94 24 82
3 93 65 76
3 78 65 93
3 93 48 78
3 81 48 93
3 67 36 76
3 67 76 79
3 20 46 21
3 46 20 87
3 83 34 48
3 50 34 83
3 54 41 94
3 80 54 94
3 95  3 40
3 95 17  0
3 17 95 40
3 3 95  0
CELL_TYPES 157
5 5 5 5 5 5 5 5 5 5 5 5 5 5 5 5 5 5 5 5 5 5 5 5 5 5 5 5 5 5 5 5 5 5 5 5 5 5 5 5 5 5 5 5 5 5 5 5 5 5 5 5 5 5 5 5 5 5 5 5 5 5 5 5 5 5 5 5 5 5 5 5 5 5 5 5 5 5 5 5 5 5 5 5 5 5 5 5 5 5 5 5 5 5 5 5 5 5 5 5 5 5 5 5 5 5 5 5 5 5 5 5 5 5 5 5 5 5 5 5 5 5 5 5 5 5 5 5 5 5 5 5 5 5 5 5 5 5 5 5 5 5 5 5 5 5 5 5 5 5 5 5 5 5 5 5 5 
POINT_DATA 96
VECTORS displacement_ITER1 FLOAT
 1.683905e-02  -7.156513e-03  0 
 0  0  0 
 0  0  0 
 1.669993e-02  -5.616395e-03  0 
 1.639060e-02  -4.347536e-03  0 
 1.584851e-02  -3.050427e-03  0 
 1.540701e-02  -1.779431e-03  0 
 1.518062e-02  -5.389230e-04  0 
 1.500791e-02  7.144498e-04  0 
 1.871876e-02  -7.341448e-03  0 
 0  0  0 
 0  0  0 
 0  0  0 
 0  0  0 
 0  0  0 
 0  0  0 
 0  0  0 
 1.549255e-02  -6.794333e-03  0 
 1.345430e-02  -6.441257e-03  0 
 1.158628e-02  -6.070918e-03  0 
 9.553935e-03  -5.206952e-03  0 
 8.086307e-03  -4.273172e-03  0 
 5.989337e-03  -2.910802e-03  0 
 3.584008e-03  -1.486323e-03  0 
 9.376723e-03  1.508144e-03  0 
 6.031003e-03  1.828440e-03  0 
 4.085726e-03  1.490613e-03  0 
 2.290442e-03  9.329960e-04  0 
 1.818726e-02  -5.696579e-03  0 
 1.662960e-02  -1.357561e-03  0 
 1.666256e-02  4.081355e-05  0 
 1.765133e-02  -4.202181e-03  0 
 1.763678e-02  -6.386608e-03  0 
 1.689091e-02  -2.720361e-03  0 
 7.551583e-03  -1.183535e-03  0 
 1.006420e-02  -2.880764e-05  0 
 4.259637e-03  1.704180e-04  0 
 3.953986e-03  -4.555683e-04  0 
 1.230520e-02  -3.539640e-03  0 
 1.806014e-03  -8.596120e-05  0 
 1.497121e-02  -5.082829e-03  0 
 1.190329e-02  2.081051e-03  0 
 1.133716e-02  -1.503321e-03  0 
 8.001246e-03  -2.383353e-03  0 
 3.480458e-03  -3.061608e-04  0 
 1.107809e-02  -3.881041e-03  0 
 7.388055e-03  -3.031903e-03  0 
 8.943822e-03  -7.571089e-04  0 
 6.182674e-03  -3.895343e-04  0 
 1.351583e-02  -6.793822e-04  0 
 5.170736e-03  -8.728919e-04  0 
 1.153988e-03  -1.381104e-05  0 
 1.034887e-02  -2.169052e-03  0 
 2.559169e-03  3.011089e-04  0 
 1.111257e-02  1.491090e-03  0 
 1.315595e-02  -5.195922e-03  0 
 4.970875e-03  -2.063074e-03  0 
 1.347311e-02  -1.923898e-03  0 
 1.226979e-02  -9.872447e-04  0 
 6.208038e-03  1.291803e-03  0 
 2.349105e-03  -4.896187e-05  0 
 2.742709e-03  -7.326266e-05  0 
 1.298288e-03  -7.398730e-06  0 
 1.332860e-02  1.469365e-03  0 
 1.152151e-02  -1.415818e-04  0 
 7.240681e-03  8.971844e-04  0 
 1.060487e-02  7.367416e-04  0 
 3.380089e-03  2.771293e-04  0 
 1.053007e-02  -6.014995e-04  0 
 1.231791e-02  5.730052e-04  0 
 1.420424e-02  -3.319776e-03  0 
 1.231454e-02  -2.423147e-03  0 
 3.307440e-03  -4.579231e-04  0 
 1.557373e-03  -1.470920e-04  0 
 9.133971e-03  -2.715722e-04  0 
 1.390451e-02  2.974953e-04  0 
 5.119332e-03  6.388880e-04  0 
 8.893916e-03  5.056148e-04  0 
 7.640828e-03  4.318251e-05  0 
 4.167879e-03  7.039303e-04  0 
 9.259455e-03  1.470208e-03  0 
 3.973971e-03  -1.343215e-04  0 
 8.367353e-03  1.750422e-03  0 
 4.694971e-03  -4.888431e-04  0 
 2.256746e-03  -1.312220e-04  0 
 9.844571e-04  -6.914365e-05  0 
 2.752012e-03  5.308174e-04  0 
 9.297124e-03  -4.180943e-03  0 
 9.856589e-04  8.669963e-05  0 
 1.156669e-03  -1.336507e-05  0 
 4.715006e-03  1.030832e-03  0 
 6.218367e-03  -1.381983e-03  0 
 9.921738e-04  8.197568e-05  0 
 5.693050e-03  2.182688e-04  0 
 9.981004e-03  1.974718e-03  0 
 1.595873e-02  -6.244352e-03  0 
VECTORS displacement_ITER2 FLOAT
 5.267793e-03  7.833375e-04  0 
 0  0  0 
 0  0  0 
 5.679688e-03  5.277723e-04  0 
 5.948710e-03  2.996513e-04  0 
 6.030149e-03  4.596472e-05  0 
 5.978703e-03  -3.002795e-04  0 
 5.937554e-03  -5.992445e-04  0 
 5.950520e-03  -9.174367e-04  0 
 4.938895e-03  1.351343e-03  0 
 0  0  0 
 0  0  0 
 0  0  0 
 0  0  0 
 0  0  0 
 0  0  0 
 0  0  0 
 5.559723e-03  3.215170e-04  0 
 5.294165e-03  -2.112370e-04  0 
 5.029997e-03  -7.389544e-04  0 
 4.360172e-03  -9.989967e-04  0 
 3.957194e-03  -9.582926e-04  0 
 2.995280e-03  -7.415040e-04  0 
 1.789702e-03  -4.774551e-04  0 
 4.495115e-03  -2.551555e-03  0 
 3.290471e-03  2.345471e-04  0 
 2.234863e-03  3.895135e-04  0 
 1.402734e-03  3.772667e-04  0 
 5.404491e-03  8.006496e-04  0 
 5.672521e-03  -4.678093e-04  0 
 5.623759e-03  -7.409189e-04  0 
 5.605628e-03  3.120905e-04  0 
 5.380412e-03  8.749768e-04  0 
 5.710201e-03  -1.443009e-04  0 
 4.626867e-03  1.458464e-05  0 
 5.357474e-03  -2.150762e-04  0 
 3.125061e-03  4.307184e-05  0 
 2.578566e-03  -1.695081e-05  0 
 5.789465e-03  -2.693314e-05  0 
 1.223448e-03  1.915090e-05  0 
 5.886408e-03  1.800462e-04  0 
 5.207216e-03  -9.362912e-04  0 
 5.808197e-03  -1.064375e-04  0 
 4.594302e-03  -2.303251e-04  0 
 2.595316e-03  -1.503249e-05  0 
 5.405013e-03  -2.079162e-04  0 
 3.926281e-03  -7.302589e-04  0 
 5.166268e-03  -1.822918e-05  0 
 4.107693e-03  6.297303e-05  0 
 5.940259e-03  -5.086841e-04  0 
 3.438967e-03  -2.119934e-05  0 
 1.016694e-03  1.301273e-05  0 
 5.505606e-03  -3.618273e-05  0 
 1.887635e-03  1.553048e-05  0 
 5.159168e-03  -7.227895e-04  0 
 5.648657e-03  -8.406068e-05  0 
 2.800393e-03  -5.632808e-04  0 
 6.031181e-03  -9.258989e-05  0 
 5.934830e-03  -2.933093e-04  0 
 3.763245e-03  -1.015984e-04  0 
 1.911799e-03  1.452659e-05  0 
 2.226774e-03  8.064558e-06  0 
 1.173958e-03  -1.576246e-05  0 
 5.778490e-03  -9.626647e-04  0 
 5.764730e-03  -3.731706e-04  0 
 4.459718e-03  -6.875953e-05  0 
 5.356839e-03  -3.605569e-04  0 
 2.530821e-03  2.419850e-05  0 
 5.605049e-03  -2.126063e-04  0 
 5.672243e-03  -7.198628e-04  0 
 6.018080e-03  1.053868e-04  0 
 5.892935e-03  6.369589e-06  0 
 2.340596e-03  5.369802e-07  0 
 1.213824e-03  -4.932024e-06  0 
 5.117804e-03  -9.066232e-05  0 
 5.915063e-03  -7.788186e-04  0 
 3.499326e-03  3.988465e-05  0 
 4.914916e-03  -1.320213e-04  0 
 4.681980e-03  3.313167e-05  0 
 2.798572e-03  4.365019e-05  0 
 4.813486e-03  -2.611533e-04  0 
 3.032823e-03  3.334587e-05  0 
 4.497921e-03  -3.531513e-04  0 
 3.336759e-03  3.620409e-06  0 
 1.783831e-03  2.451306e-06  0 
 6.256854e-04  -1.835945e-05  0 
 1.818962e-03  1.560147e-04  0 
 4.659932e-03  -6.127553e-04  0 
 8.278805e-04  2.021044e-05  0 
 9.816354e-04  1.269174e-05  0 
 2.811867e-03  5.835958e-05  0 
 3.652971e-03  -1.129119e-04  0 
 7.350075e-04  1.840171e-05  0 
 3.912841e-03  5.312195e-05  0 
 4.608095e-03  -6.798907e-04  0 
 5.630247e-03  4.175530e-04  0 
VECTORS displacement_ITER3 FLOAT
 4.008750e-03  -6.969140e-04  0 
 0  0  0 
 0  0  0 
 4.089765e-03  -5.318998e-04  0 
 4.111448e-03  -5.178663e-04  0 
 4.007733e-03  -4.999569e-04  0 
 3.855095e-03  -4.840135e-04  0 
 3.762993e-03  -3.622557e-04  0 
 3.920481e-03  -3.704655e-04  0 
 4.403503e-03  -7.250595e-04  0 
 0  0  0 
 0  0  0 
 0  0  0 
 0  0  0 
 0  0  0 
 0  0  0 
 0  0  0 
 3.943498e-03  -7.543373e-04  0 
 3.621887e-03  -8.606888e-04  0 
 3.302027e-03  -9.634196e-04  0 
 2.881115e-03  -9.544356e-04  0 
 2.541372e-03  -8.405472e-04  0 
 1.924163e-03  -6.026675e-04  0 
 1.163203e-03  -3.398160e-04  0 
 2.388760e-03  -6.956536e-04  0 
 1.573847e-03  -1.942806e-04  0 
 1.087155e-03  1.360334e-05  0 
 7.268768e-04  1.096179e-04  0 
 4.228598e-03  -4.682001e-04  0 
 3.986226e-03  -4.805846e-04  0 
 4.043247e-03  -1.461071e-04  0 
 4.173692e-03  -5.640126e-04  0 
 4.161254e-03  -5.526056e-04  0 
 4.053650e-03  -5.792418e-04  0 
 2.656046e-03  -9.184991e-05  0 
 2.981683e-03  -2.013536e-04  0 
 1.724149e-03  6.346210e-05  0 
 1.517354e-03  -1.693607e-05  0 
 3.571242e-03  -4.421887e-04  0 
 7.365638e-04  1.564015e-05  0 
 3.940585e-03  -5.873955e-04  0 
 3.099358e-03  -4.782150e-04  0 
 3.333896e-03  -2.277556e-04  0 
 2.725615e-03  -3.055721e-04  0 
 1.462343e-03  8.918160e-07  0 
 3.310637e-03  -5.321219e-04  0 
 2.443529e-03  -5.749061e-04  0 
 2.890192e-03  -1.149296e-04  0 
 2.303146e-03  2.122975e-05  0 
 3.509036e-03  -3.495155e-04  0 
 1.990304e-03  -6.179712e-05  0 
 5.986156e-04  2.152339e-05  0 
 3.185150e-03  -2.287299e-04  0 
 1.056180e-03  3.241430e-06  0 
 2.944614e-03  -4.168372e-04  0 
 3.668541e-03  -6.699682e-04  0 
 1.720238e-03  -4.209168e-04  0 
 3.641670e-03  -3.491739e-04  0 
 3.407280e-03  -2.702567e-04  0 
 1.946806e-03  -1.986571e-04  0 
 1.069558e-03  4.071881e-05  0 
 1.239777e-03  4.210988e-05  0 
 6.950060e-04  7.399422e-06  0 
 3.545293e-03  -4.807196e-04  0 
 3.283037e-03  -3.106869e-04  0 
 2.308329e-03  -6.720341e-05  0 
 2.979139e-03  -2.951262e-04  0 
 1.396608e-03  4.004784e-05  0 
 3.170410e-03  -2.071125e-04  0 
 3.328585e-03  -4.706975e-04  0 
 3.825422e-03  -4.290630e-04  0 
 3.537918e-03  -3.062063e-04  0 
 1.346746e-03  -1.911857e-05  0 
 7.093114e-04  1.686394e-06  0 
 2.837852e-03  -1.021352e-04  0 
 3.581729e-03  -4.521232e-04  0 
 1.907661e-03  3.605155e-05  0 
 2.661201e-03  -1.386900e-04  0 
 2.533760e-03  4.344712e-06  0 
 1.516966e-03  -2.883260e-06  0 
 2.569307e-03  -2.125896e-04  0 
 1.682204e-03  5.754148e-05  0 
 2.326452e-03  -3.126318e-04  0 
 1.886376e-03  -6.281175e-06  0 
 1.008396e-03  1.468564e-05  0 
 3.830806e-04  -6.492308e-06  0 
 9.905646e-04  7.008233e-05  0 
 2.930759e-03  -6.850559e-04  0 
 4.943039e-04  1.615163e-05  0 
 5.716780e-04  2.241359e-05  0 
 1.446033e-03  -8.170605e-05  0 
 2.198499e-03  -1.493864e-04  0 
 4.321485e-04  1.658566e-05  0 
 2.135543e-03  7.515585e-05  0 
 2.561570e-03  -4.156796e-04  0 
 3.984465e-03  -6.627953e-04  0 
VECTORS displacement_ITER4 FLOAT
 3.679014e-03  -7.204447e-04  0 
 0  0  0 
 0  0  0 
 3.698920e-03  -4.649414e-04  0 
 3.674458e-03  -2.723699e-04  0 
 3.592068e-03  -1.012637e-04  0 
 3.511500e-03  7.642873e-05  0 
 3.435151e-03  2.344454e-04  0 
 3.530888e-03  3.329793e-04  0 
 4.125512e-03  -7.886332e-04  0 
 0  0  0 
 0  0  0 
 0  0  0 
 0  0  0 
 0  0  0 
 0  0  0 
 0  0  0 
 3.477440e-03  -7.462843e-04  0 
 3.123774e-03  -7.852973e-04  0 
 2.778461e-03  -8.224087e-04  0 
 2.371141e-03  -7.941654e-04  0 
 2.063044e-03  -6.945549e-04  0 
 1.574754e-03  -4.888355e-04  0 
 9.438035e-04  -2.644634e-04  0 
 2.490169e-03  4.816315e-04  0 
 1.697779e-03  6.216210e-05  0 
 1.212841e-03  1.628703e-04  0 
 7.531964e-04  1.655957e-04  0 
 3.930003e-03  -4.242181e-04  0 
 3.679038e-03  1.133367e-04  0 
 3.729589e-03  4.453470e-04  0 
 3.852660e-03  -2.274393e-04  0 
 3.837388e-03  -5.578409e-04  0 
 3.747494e-03  -3.837756e-05  0 
 2.199019e-03  4.575176e-05  0 
 2.689508e-03  2.019456e-04  0 
 1.544336e-03  1.529656e-04  0 
 1.238208e-03  1.304589e-05  0 
 3.022539e-03  -2.490356e-04  0 
 6.051057e-04  2.228236e-05  0 
 3.444885e-03  -4.396444e-04  0 
 2.979893e-03  2.152651e-04  0 
 2.876346e-03  8.210931e-05  0 
 2.219492e-03  -1.784296e-04  0 
 1.226418e-03  4.630214e-05  0 
 2.762389e-03  -3.837183e-04  0 
 1.977503e-03  -4.256726e-04  0 
 2.472868e-03  1.273927e-04  0 
 1.945504e-03  1.471687e-04  0 
 3.201918e-03  2.241810e-04  0 
 1.634153e-03  1.826885e-05  0 
 5.166569e-04  2.844949e-05  0 
 2.677606e-03  -3.736751e-05  0 
 1.006529e-03  5.979243e-05  0 
 2.865872e-03  2.643189e-04  0 
 3.122228e-03  -5.482917e-04  0 
 1.395742e-03  -3.173095e-04  0 
 3.215686e-03  4.399279e-05  0 
 3.020538e-03  1.734286e-04  0 
 1.925916e-03  9.039521e-05  0 
 9.252010e-04  6.300340e-05  0 
 1.098541e-03  6.838006e-05  0 
 6.148956e-04  2.248966e-05  0 
 3.230434e-03  2.663196e-04  0 
 2.944331e-03  2.036550e-04  0 
 2.128920e-03  2.289332e-04  0 
 2.779197e-03  2.302848e-04  0 
 1.293289e-03  1.173320e-04  0 
 2.773902e-03  1.783715e-04  0 
 3.081075e-03  2.178421e-04  0 
 3.342420e-03  -1.575993e-04  0 
 3.035013e-03  -3.891732e-05  0 
 1.116837e-03  2.385285e-05  0 
 5.910006e-04  1.124033e-05  0 
 2.520924e-03  1.981960e-04  0 
 3.256073e-03  2.343115e-04  0 
 1.759815e-03  1.896921e-04  0 
 2.465958e-03  2.249302e-04  0 
 2.229506e-03  2.235989e-04  0 
 1.471849e-03  1.141951e-04  0 
 2.508986e-03  2.705711e-04  0 
 1.442726e-03  1.243859e-04  0 
 2.328947e-03  1.685265e-04  0 
 1.576555e-03  7.412632e-05  0 
 8.570482e-04  3.446596e-05  0 
 3.131326e-04  -1.646299e-06  0 
 9.938475e-04  1.154258e-04  0 
 2.407970e-03  -5.290249e-04  0 
 4.560738e-04  2.712190e-05  0 
 4.824468e-04  2.935564e-05  0 
 1.500665e-03  9.344488e-05  0 
 1.790919e-03  -7.222254e-05  0 
 4.151128e-04  2.534729e-05  0 
 1.872558e-03  2.188748e-04  0 
 2.644619e-03  2.207478e-04  0 
 3.572765e-03  -6.062660e-04  0 
VECTORS displacement_ITER5 FLOAT
 3.067763e-03  -5.346572e-04  0 
 0  0  0 
 0  0  0 
 3.098527e-03  -3.726251e-04  0 
 3.071939e-03  -1.776550e-04  0 
 3.021822e-03  -2.109236e-05  0 
 2.992024e-03  1.152321e-04  0 
 2.908127e-03  9.535783e-05  0 
 2.911792e-03  1.438832e-04  0 
 3.239685e-03  -3.946370e-04  0 
 0  0  0 
 0  0  0 
 0  0  0 
 0  0  0 
 0  0  0 
 0  0  0 
 0  0  0 
 2.885959e-03  -5.913902e-04  0 
 2.579865e-03  -6.323489e-04  0 
 2.288236e-03  -6.713294e-04  0 
 1.941373e-03  -6.538960e-04  0 
 1.703317e-03  -5.741379e-04  0 
 1.289407e-03  -4.058863e-04  0 
 7.721657e-04  -2.218864e-04  0 
 2.044898e-03  6.150383e-04  0 
 1.198846e-03  3.166270e-05  0 
 8.636735e-04  1.141337e-04  0 
 5.402590e-04  1.076683e-04  0 
 3.293264e-03  -3.346922e-04  0 
 3.063122e-03  5.827672e-05  0 
 3.078641e-03  1.723664e-04  0 
 3.230664e-03  -1.087146e-04  0 
 3.204962e-03  -4.121638e-04  0 
 3.159306e-03  6.076685e-05  0 
 1.793761e-03  1.279254e-05  0 
 2.236822e-03  1.164132e-04  0 
 1.166715e-03  1.015334e-04  0 
 9.953557e-04  1.296373e-05  0 
 2.495308e-03  -2.027359e-04  0 
 4.783560e-04  2.200709e-05  0 
 2.854673e-03  -3.437579e-04  0 
 2.446975e-03  1.221827e-04  0 
 2.408637e-03  4.174820e-05  0 
 1.822351e-03  -1.664191e-04  0 
 9.616514e-04  3.230520e-05  0 
 2.279905e-03  -3.082997e-04  0 
 1.625718e-03  -3.624366e-04  0 
 2.028078e-03  7.639554e-05  0 
 1.561798e-03  9.918616e-05  0 
 2.766505e-03  1.430936e-04  0 
 1.311105e-03  -2.346826e-06  0 
 3.880644e-04  2.706894e-05  0 
 2.216514e-03  -5.934740e-05  0 
 7.259630e-04  5.289876e-05  0 
 2.436904e-03  2.166467e-04  0 
 2.579887e-03  -4.339802e-04  0 
 1.137805e-03  -2.673252e-04  0 
 2.711740e-03  4.643073e-05  0 
 2.558494e-03  9.554367e-05  0 
 1.437381e-03  7.262615e-05  0 
 7.011239e-04  5.312748e-05  0 
 8.247974e-04  6.111202e-05  0 
 4.568433e-04  2.500746e-05  0 
 2.650242e-03  1.553393e-04  0 
 2.470448e-03  1.315283e-04  0 
 1.684561e-03  1.265076e-04  0 
 2.330047e-03  1.410123e-04  0 
 9.478095e-04  8.294110e-05  0 
 2.306068e-03  1.056844e-04  0 
 2.618751e-03  1.564790e-04  0 
 2.782817e-03  -1.017313e-04  0 
 2.527784e-03  -3.708873e-05  0 
 8.829073e-04  1.137215e-05  0 
 4.582947e-04  1.246903e-05  0 
 2.078647e-03  1.094250e-04  0 
 2.743866e-03  1.177887e-04  0 
 1.320951e-03  1.252209e-04  0 
 2.043772e-03  1.181632e-04  0 
 1.799608e-03  1.186512e-04  0 
 1.064974e-03  9.377511e-05  0 
 2.096417e-03  1.758765e-04  0 
 1.122245e-03  8.975030e-05  0 
 1.870408e-03  1.383444e-04  0 
 1.249937e-03  4.585116e-05  0 
 6.582294e-04  3.004892e-05  0 
 2.494416e-04  1.641285e-06  0 
 7.097778e-04  1.055949e-04  0 
 1.973338e-03  -4.357472e-04  0 
 3.361071e-04  2.941702e-05  0 
 3.681393e-04  2.675727e-05  0 
 1.076182e-03  9.543144e-05  0 
 1.455922e-03  -6.904818e-05  0 
 3.097285e-04  2.865835e-05  0 
 1.465715e-03  1.279438e-04  0 
 2.257067e-03  1.911380e-04  0 
 2.987087e-03  -4.776843e-04  0 
VECTORS displacement_ITER6 FLOAT
 2.892284e-03  -4.815193e-04  0 
 0  0  0 
 0  0  0 
 2.946544e-03  -3.223899e-04  0 
 2.965867e-03  -2.243467e-04  0 
 2.917619e-03  -9.284314e-05  0 
 2.868778e-03  2.320450e-05  0 
 2.810863e-03  7.569384e-05  0 
 2.815582e-03  1.416202e-04  0 
 3.035464e-03  -3.270842e-04  0 
 0  0  0 
 0  0  0 
 0  0  0 
 0  0  0 
 0  0  0 
 0  0  0 
 0  0  0 
 2.761404e-03  -5.314231e-04  0 
 2.477193e-03  -6.010561e-04  0 
 2.215971e-03  -6.674015e-04  0 
 1.880749e-03  -6.442403e-04  0 
 1.641768e-03  -5.629093e-04  0 
 1.239179e-03  -3.987017e-04  0 
 7.421786e-04  -2.191964e-04  0 
 1.945630e-03  9.379823e-05  0 
 1.117970e-03  3.807348e-05  0 
 7.776593e-04  9.397152e-05  0 
 4.615704e-04  8.509469e-05  0 
 3.119360e-03  -2.496423e-04  0 
 2.999207e-03  2.916648e-05  0 
 3.017206e-03  1.609829e-04  0 
 3.122280e-03  -1.623963e-04  0 
 3.023297e-03  -3.491008e-04  0 
 3.053499e-03  -3.537051e-05  0 
 1.709749e-03  -1.313690e-06  0 
 2.113803e-03  9.092468e-05  0 
 1.086243e-03  8.389674e-05  0 
 9.460311e-04  1.052166e-05  0 
 2.415857e-03  -2.281702e-04  0 
 4.501582e-04  2.129897e-05  0 
 2.754751e-03  -3.553607e-04  0 
 2.335958e-03  1.018154e-04  0 
 2.296930e-03  5.368332e-06  0 
 1.747732e-03  -1.775929e-04  0 
 9.069809e-04  2.715385e-05  0 
 2.208253e-03  -3.237088e-04  0 
 1.562533e-03  -3.636326e-04  0 
 1.937821e-03  5.882100e-05  0 
 1.478608e-03  8.425270e-05  0 
 2.607749e-03  8.479133e-05  0 
 1.243216e-03  -8.607859e-06  0 
 3.543444e-04  2.500722e-05  0 
 2.136194e-03  -8.257191e-05  0 
 6.515348e-04  4.657343e-05  0 
 2.270461e-03  1.592730e-04  0 
 2.497530e-03  -4.399109e-04  0 
 1.090539e-03  -2.663374e-04  0 
 2.590144e-03  -1.259336e-05  0 
 2.427020e-03  5.191484e-05  0 
 1.347789e-03  5.621134e-05  0 
 6.500257e-04  4.551974e-05  0 
 7.588536e-04  5.404903e-05  0 
 4.129849e-04  2.575942e-05  0 
 2.542238e-03  1.465056e-04  0 
 2.329291e-03  9.754285e-05  0 
 1.614839e-03  1.029330e-04  0 
 2.191428e-03  1.230593e-04  0 
 8.649425e-04  7.269012e-05  0 
 2.185363e-03  7.502180e-05  0 
 2.449476e-03  1.244429e-04  0 
 2.676536e-03  -1.563586e-04  0 
 2.428457e-03  -8.221503e-05  0 
 8.346271e-04  7.328210e-06  0 
 4.272837e-04  1.217283e-05  0 
 1.973003e-03  8.516505e-05  0 
 2.627917e-03  1.037428e-04  0 
 1.231322e-03  1.067553e-04  0 
 1.930007e-03  1.044239e-04  0 
 1.711693e-03  1.016500e-04  0 
 9.692730e-04  7.935251e-05  0 
 1.975360e-03  1.449927e-04  0 
 1.054598e-03  6.986286e-05  0 
 1.779050e-03  9.196253e-05  0 
 1.178706e-03  3.639806e-05  0 
 6.140685e-04  2.860390e-05  0 
 2.357199e-04  2.091093e-06  0 
 6.288511e-04  8.690802e-05  0 
 1.904424e-03  -4.439624e-04  0 
 3.013544e-04  2.647644e-05  0 
 3.409224e-04  2.514142e-05  0 
 9.790058e-04  7.848147e-05  0 
 1.390804e-03  -7.632964e-05  0 
 2.713596e-04  2.705857e-05  0 
 1.388582e-03  1.004592e-04  0 
 2.094985e-03  1.200375e-04  0 
 2.832294e-03  -4.381376e-04  0 
VECTORS displacement_ITER7 FLOAT
 2.867564e-03  -4.952000e-04  0 
 0  0  0 
 0  0  0 
 2.915704e-03  -3.305194e-04  0 
 2.940834e-03  -2.297010e-04  0 
 2.897691e-03  -1.046779e-04  0 
 2.848244e-03  -8.614938e-06  0 
 2.785249e-03  2.587597e-05  0 
 2.727736e-03  8.530977e-05  0 
 2.963676e-03  -3.168645e-04  0 
 0  0  0 
 0  0  0 
 0  0  0 
 0  0  0 
 0  0  0 
 0  0  0 
 0  0  0 
 2.731411e-03  -5.353378e-04  0 
 2.456599e-03  -6.077490e-04  0 
 2.195968e-03  -6.770628e-04  0 
 1.860942e-03  -6.470538e-04  0 
 1.622086e-03  -5.642553e-04  0 
 1.218490e-03  -3.993900e-04  0 
 7.325888e-04  -2.194630e-04  0 
 1.856871e-03  1.045441e-04  0 
 1.197957e-03  1.055137e-04  0 
 8.275209e-04  1.158935e-04  0 
 4.522231e-04  8.799706e-05  0 
 3.090034e-03  -2.511717e-04  0 
 2.968071e-03  -1.637108e-05  0 
 2.942695e-03  3.638590e-05  0 
 3.096347e-03  -1.651300e-04  0 
 2.989284e-03  -3.622953e-04  0 
 3.025789e-03  -5.961162e-05  0 
 1.670311e-03  -1.082790e-06  0 
 2.061015e-03  1.056045e-04  0 
 1.068902e-03  9.482024e-05  0 
 9.222369e-04  9.677655e-06  0 
 2.397711e-03  -2.425771e-04  0 
 4.395859e-04  2.092810e-05  0 
 2.723749e-03  -3.672025e-04  0 
 2.243757e-03  1.403411e-04  0 
 2.275239e-03  -6.846803e-06  0 
 1.718063e-03  -1.872033e-04  0 
 8.841935e-04  3.374965e-05  0 
 2.190097e-03  -3.345002e-04  0 
 1.541301e-03  -3.685071e-04  0 
 1.900369e-03  6.302796e-05  0 
 1.439446e-03  8.775305e-05  0 
 2.582739e-03  4.549330e-05  0 
 1.215342e-03  -3.323029e-06  0 
 3.472014e-04  2.552908e-05  0 
 2.115552e-03  -9.765698e-05  0 
 6.505489e-04  5.577272e-05  0 
 2.185881e-03  1.721570e-04  0 
 2.479083e-03  -4.484662e-04  0 
 1.069378e-03  -2.683559e-04  0 
 2.567784e-03  -3.367525e-05  0 
 2.397858e-03  2.294944e-05  0 
 1.357687e-03  1.132763e-04  0 
 6.406977e-04  4.940660e-05  0 
 7.507605e-04  5.460147e-05  0 
 4.051491e-04  2.795894e-05  0 
 2.469080e-03  1.400085e-04  0 
 2.275630e-03  9.200867e-05  0 
 1.583251e-03  1.524784e-04  0 
 2.118084e-03  1.389589e-04  0 
 8.631860e-04  8.044094e-05  0 
 2.147131e-03  6.658312e-05  0 
 2.385828e-03  1.238186e-04  0 
 2.650257e-03  -1.678893e-04  0 
 2.411436e-03  -9.907600e-05  0 
 8.137449e-04  1.111004e-05  0 
 4.159033e-04  1.231395e-05  0 
 1.920484e-03  9.468980e-05  0 
 2.590823e-03  8.131682e-05  0 
 1.218402e-03  1.281875e-04  0 
 1.868371e-03  1.400736e-04  0 
 1.675275e-03  1.219730e-04  0 
 9.787578e-04  9.746786e-05  0 
 1.890122e-03  1.717812e-04  0 
 1.026696e-03  7.975570e-05  0 
 1.701528e-03  1.364110e-04  0 
 1.149528e-03  4.212554e-05  0 
 6.018945e-04  3.131819e-05  0 
 2.306813e-04  2.233762e-06  0 
 6.360095e-04  7.400378e-05  0 
 1.878659e-03  -4.545467e-04  0 
 3.002952e-04  2.520573e-05  0 
 3.321801e-04  2.632245e-05  0 
 1.016103e-03  9.441391e-05  0 
 1.366342e-03  -8.099358e-05  0 
 2.636995e-04  2.424517e-05  0 
 1.350130e-03  1.221740e-04  0 
 1.996310e-03  1.636708e-04  0 
 2.799803e-03  -4.458980e-04  0 
VECTORS displacement_ITER8 FLOAT
 2.808138e-03  -4.744933e-04  0 
 0  0  0 
 0  0  0 
 2.856268e-03  -2.999345e-04  0 
 2.884167e-03  -1.964552e-04  0 
 2.847495e-03  -7.733877e-05  0 
 2.806360e-03  1.496603e-05  0 
 2.763448e-03  6.340927e-05  0 
 2.704515e-03  1.084938e-04  0 
 2.992665e-03  -3.790776e-04  0 
 0  0  0 
 0  0  0 
 0  0  0 
 0  0  0 
 0  0  0 
 0  0  0 
 0  0  0 
 2.682632e-03  -5.102884e-04  0 
 2.416159e-03  -5.822832e-04  0 
 2.158879e-03  -6.515242e-04  0 
 1.831404e-03  -6.276625e-04  0 
 1.600275e-03  -5.486490e-04  0 
 1.203810e-03  -3.897298e-04  0 
 7.223272e-04  -2.157193e-04  0 
 1.843740e-03  1.366114e-04  0 
 1.195032e-03  1.237179e-04  0 
 7.974736e-04  1.010007e-04  0 
 4.133999e-04  6.949513e-05  0 
 3.021268e-03  -2.181554e-04  0 
 2.929202e-03  3.157547e-05  0 
 2.899339e-03  6.298174e-05  0 
 3.030124e-03  -1.281195e-04  0 
 2.927871e-03  -3.381233e-04  0 
 2.968490e-03  -2.840368e-05  0 
 1.655356e-03  -7.589225e-06  0 
 2.065279e-03  9.331675e-05  0 
 1.046338e-03  8.039859e-05  0 
 9.142725e-04  9.006955e-06  0 
 2.364080e-03  -2.280719e-04  0 
 4.334828e-04  2.094314e-05  0 
 2.675482e-03  -3.399750e-04  0 
 2.292486e-03  1.424326e-04  0 
 2.258097e-03  -1.264850e-06  0 
 1.698590e-03  -1.812644e-04  0 
 8.719110e-04  3.040144e-05  0 
 2.159513e-03  -3.186551e-04  0 
 1.521723e-03  -3.610330e-04  0 
 1.886936e-03  5.523524e-05  0 
 1.422589e-03  8.061838e-05  0 
 2.565318e-03  6.012212e-05  0 
 1.202816e-03  -1.039312e-05  0 
 3.374890e-04  2.409313e-05  0 
 2.090255e-03  -9.325945e-05  0 
 6.197880e-04  5.335835e-05  0 
 2.212285e-03  1.481019e-04  0 
 2.438520e-03  -4.230492e-04  0 
 1.058953e-03  -2.632219e-04  0 
 2.542106e-03  -1.951168e-05  0 
 2.381214e-03  3.227383e-05  0 
 1.332831e-03  1.089390e-04  0 
 6.269651e-04  4.646840e-05  0 
 7.337505e-04  5.117664e-05  0 
 3.918660e-04  2.894892e-05  0 
 2.495698e-03  1.429030e-04  0 
 2.271053e-03  8.960384e-05  0 
 1.566264e-03  1.310268e-04  0 
 2.129744e-03  1.246916e-04  0 
 8.340481e-04  6.921283e-05  0 
 2.140555e-03  6.571194e-05  0 
 2.391732e-03  1.295949e-04  0 
 2.613406e-03  -1.441213e-04  0 
 2.385612e-03  -8.577542e-05  0 
 8.040074e-04  7.157060e-06  0 
 4.088799e-04  1.182169e-05  0 
 1.917761e-03  8.107172e-05  0 
 2.593364e-03  1.073805e-04  0 
 1.190304e-03  1.080972e-04  0 
 1.870816e-03  1.232238e-04  0 
 1.659012e-03  1.026813e-04  0 
 9.398178e-04  8.930616e-05  0 
 1.897436e-03  1.426507e-04  0 
 1.012932e-03  7.362745e-05  0 
 1.678575e-03  1.289186e-04  0 
 1.136361e-03  3.819930e-05  0 
 5.907199e-04  3.006733e-05  0 
 2.275473e-04  2.442200e-06  0 
 6.011533e-04  5.666372e-05  0 
 1.852068e-03  -4.398931e-04  0 
 2.912859e-04  2.370119e-05  0 
 3.251016e-04  2.569463e-05  0 
 9.810188e-04  7.967624e-05  0 
 1.350453e-03  -7.889806e-05  0 
 2.492311e-04  2.127507e-05  0 
 1.327892e-03  1.029557e-04  0 
 2.013811e-03  1.501725e-04  0 
 2.743494e-03  -4.195324e-04  0 
VECTORS displacement_ITER9 FLOAT
 2.805240e-03  -4.693475e-04  0 
 0  0  0 
 0  0  0 
 2.849832e-03  -3.129889e-04  0 
 2.864164e-03  -1.976564e-04  0 
 2.825525e-03  -7.926992e-05  0 
 2.777070e-03  7.852322e-06  0 
 2.735956e-03  6.044650e-05  0 
 2.680844e-03  9.560577e-05  0 
 2.950779e-03  -3.406961e-04  0 
 0  0  0 
 0  0  0 
 0  0  0 
 0  0  0 
 0  0  0 
 0  0  0 
 0  0  0 
 2.675402e-03  -5.144813e-04  0 
 2.406826e-03  -5.826966e-04  0 
 2.148727e-03  -6.482957e-04  0 
 1.822751e-03  -6.236902e-04  0 
 1.592317e-03  -5.451990e-04  0 
 1.198397e-03  -3.871000e-04  0 
 7.193285e-04  -2.140223e-04  0 
 1.813459e-03  1.365044e-04  0 
 1.183195e-03  1.039148e-04  0 
 7.957984e-04  8.099826e-05  0 
 4.030597e-04  5.014284e-05  0 
 3.012402e-03  -2.435378e-04  0 
 2.896689e-03  2.819967e-05  0 
 2.863853e-03  5.842763e-05  0 
 3.006287e-03  -1.318239e-04  0 
 2.923828e-03  -3.436412e-04  0 
 2.937615e-03  -4.068473e-05  0 
 1.646787e-03  -6.368849e-06  0 
 2.051412e-03  9.218121e-05  0 
 1.041395e-03  7.947340e-05  0 
 9.106091e-04  9.679073e-06  0 
 2.351558e-03  -2.255441e-04  0 
 4.324474e-04  2.105568e-05  0 
 2.664594e-03  -3.379259e-04  0 
 2.262433e-03  1.326257e-04  0 
 2.245154e-03  5.322757e-07  0 
 1.689327e-03  -1.782203e-04  0 
 8.685294e-04  3.106887e-05  0 
 2.148966e-03  -3.157199e-04  0 
 1.514221e-03  -3.575740e-04  0 
 1.877913e-03  5.635623e-05  0 
 1.415339e-03  8.077441e-05  0 
 2.540817e-03  5.437949e-05  0 
 1.198106e-03  -9.689107e-06  0 
 3.381047e-04  2.418168e-05  0 
 2.079426e-03  -9.043132e-05  0 
 6.154650e-04  5.339243e-05  0 
 2.183349e-03  1.365144e-04  0 