# vtk DataFile Version 3.1
this is an vtk file created by FEMAC
ASCII
DATASET UNSTRUCTURED_GRID
POINTS 101 FLOAT
5.000000 0.000000 0.000000
4.125000 0.000000 0.000000
4.250000 0.000000 0.000000
4.375000 0.000000 0.000000
4.500000 0.000000 0.000000
4.625000 0.000000 0.000000
4.750000 0.000000 0.000000
4.875000 0.000000 0.000000
5.125000 0.000000 0.000000
5.250000 0.000000 0.000000
5.375000 0.000000 0.000000
5.500000 0.000000 0.000000
5.625000 0.000000 0.000000
5.000000 0.125000 0.000000
5.000000 0.250000 0.000000
5.000000 0.375000 0.000000
5.000000 0.500000 0.000000
5.000000 0.625000 0.000000
5.000000 0.750000 0.000000
5.000000 0.875000 0.000000
4.499670 0.360742 0.000000
4.683260 0.615166 0.000000
4.736189 0.229332 0.000000
4.881110 0.150703 0.000000
4.817421 0.910332 0.000000
4.727313 0.436804 0.000000
4.491129 0.224019 0.000000
4.633635 0.155319 0.000000
4.395662 0.123278 0.000000
4.592252 0.458586 0.000000
4.438266 0.470739 0.000000
4.891498 0.593094 0.000000
4.366265 0.330237 0.000000
4.637186 0.313697 0.000000
4.766097 0.808510 0.000000
4.749449 0.094006 0.000000
4.250436 0.093427 0.000000
4.859304 0.437638 0.000000
4.802033 0.526864 0.000000
4.904915 0.810446 0.000000
4.773622 0.614167 0.000000
4.508481 0.733243 0.000000
4.721623 0.704716 0.000000
4.703193 0.533077 0.000000
4.837969 0.707108 0.000000
4.869629 0.294081 0.000000
4.765924 0.342310 0.000000
4.618786 0.562197 0.000000
4.926876 0.697130 0.000000
4.617558 0.672824 0.000000
4.531402 0.584172 0.000000
4.639225 0.786646 0.000000
4.354596 0.426703 0.000000
4.529085 0.100523 0.000000
4.377971 0.226595 0.000000
4.416473 0.610778 0.000000
4.692654 0.898395 0.000000
4.939027 0.068926 0.000000
5.499670 0.360742 0.000000
5.683260 0.615166 0.000000
5.261618 0.222520 0.000000
5.119756 0.143088 0.000000
5.727313 0.436804 0.000000
5.491129 0.224019 0.000000
5.271117 0.415027 0.000000
5.633635 0.155319 0.000000
5.395662 0.123278 0.000000
5.592252 0.458586 0.000000
5.438266 0.470739 0.000000
5.891498 0.593094 0.000000
5.366265 0.330237 0.000000
5.107131 0.562061 0.000000
5.637186 0.313697 0.000000
5.194422 0.795291 0.000000
5.250436 0.093427 0.000000
5.859304 0.437638 0.000000
5.802033 0.526864 0.000000
5.198668 0.496653 0.000000
5.232589 0.600604 0.000000
5.126171 0.698464 0.000000
5.773622 0.614167 0.000000
5.508481 0.733243 0.000000
5.262054 0.704572 0.000000
5.703193 0.533077 0.000000
5.765924 0.342310 0.000000
5.238755 0.322620 0.000000
5.123091 0.311752 0.000000
5.618786 0.562197 0.000000
5.617558 0.672824 0.000000
5.531402 0.584172 0.000000
5.291032 0.816412 0.000000
5.319630 0.521262 0.000000
5.354596 0.426703 0.000000
5.182427 0.400480 0.000000
5.061189 0.067022 0.000000
5.185857 0.898777 0.000000
5.529085 0.100523 0.000000
5.094825 0.825839 0.000000
5.101886 0.440991 0.000000
5.377971 0.226595 0.000000
5.416473 0.610778 0.000000
CELLS 157 628 
3 23 13 14
3 20 32 26
3 33 20 26
3 22 35 23
3 29 30 20
3 33 29 20
3 25 29 33
3 33 27 22
3 26 27 33
3 1  2 36
3 6  7 35
3 7 23 35
3 35  5  6
3 5 35 27
3 35 22 27
3 3 36  2
3 36  3 28
3 31 16 17
3 31 37 16
3 31 38 37
3 38 25 37
3 39 18 19
3 31 40 38
3 42 21 40
3 43 25 38
3 25 43 29
3 31 44 40
3 22 46 33
3 46 25 33
3 46 22 45
3 47 29 43
3 21 47 43
3 18 48 17
3 48 31 17
3 21 49 47
3 50 29 47
3 37 15 16
3 43 40 21
3 38 40 43
3 48 44 31
3 42 44 34
3 42 40 44
3 47 49 50
3 48 18 39
3 34 39 24
3 34 44 39
3 39 44 48
3 51 42 34
3 50 30 29
3 23 45 22
3 45 23 14
3 15 45 14
3 15 37 45
3 46 37 25
3 45 37 46
3 50 49 41
3 53  4  5
3 27 53  5
3 32 54 26
3 54 28 26
3 26 53 27
3 53 26 28
3 21 42 49
3 51 41 49
3 49 42 51
3 50 41 55
3 55 30 50
3 4 28  3
3 28  4 53
3 52 20 30
3 32 20 52
3 34 24 56
3 51 34 56
3 57  7  0
3 57 13 23
3 13 57  0
3 7 57 23
3 13 61 14
3 58 70 63
3 72 58 63
3 74 60 61
3 67 68 58
3 72 67 58
3 62 67 72
3 63 65 72
3 8  9 74
3 61  8 74
3 10 74  9
3 74 10 66
3 60 74 66
3 16 71 17
3 69 76 75
3 76 62 75
3 78 71 77
3 79 71 78
3 69 80 76
3 83 62 76
3 62 83 67
3 84 62 72
3 64 85 70
3 85 60 70
3 86 61 60
3 61 86 14
3 87 67 83
3 59 87 83
3 59 88 87
3 89 67 87
3 85 86 60
3 83 80 59
3 76 80 83
3 79 82 73
3 87 88 89
3 82 90 73
3 17 71 79
3 89 68 67
3 64 91 77
3 78 77 91
3 79 18 17
3 92 64 70
3 92 68 91
3 64 92 91
3 77 93 64
3 8 94  0
3 13 94 61
3 94 13  0
3 94  8 61
3 93 85 64
3 84 75 62
3 89 88 81
3 15 14 86
3 86 85 93
3 96 11 12
3 65 96 12
3 97 73 95
3 98 16 15
3 66 99 60
3 70 99 63
3 99 70 60
3 99 66 63
3 86 98 15
3 86 93 98
3 16 98 71
3 77 98 93
3 98 77 71
3 18 97 19
3 97 18 79
3 73 97 79
3 73 90 95
3 63 96 65
3 96 63 66
3 89  81 100
3 100  68  89
3 91  68 100
3 11 66 10
3 66 11 96
3 92 58 68
3 70 58 92
CELL_TYPES 157
5 5 5 5 5 5 5 5 5 5 5 5 5 5 5 5 5 5 5 5 5 5 5 5 5 5 5 5 5 5 5 5 5 5 5 5 5 5 5 5 5 5 5 5 5 5 5 5 5 5 5 5 5 5 5 5 5 5 5 5 5 5 5 5 5 5 5 5 5 5 5 5 5 5 5 5 5 5 5 5 5 5 5 5 5 5 5 5 5 5 5 5 5 5 5 5 5 5 5 5 5 5 5 5 5 5 5 5 5 5 5 5 5 5 5 5 5 5 5 5 5 5 5 5 5 5 5 5 5 5 5 5 5 5 5 5 5 5 5 5 5 5 5 5 5 5 5 5 5 5 5 5 5 5 5 5 5 
POINT_DATA 101
VECTORS displacement_ITER1 FLOAT
 0  0  0 
 0  0  0 
 0  0  0 
 0  0  0 
 0  0  0 
 0  0  0 
 0  0  0 
 0  0  0 
 0  0  0 
 0  0  0 
 0  0  0 
 0  0  0 
 0  0  0 
 2.906877e-05  -4.646481e-06  0 
 5.960514e-05  -1.120152e-05  0 
 8.997252e-05  -2.332141e-05  0 
 1.281564e-04  -3.901550e-05  0 
 1.707237e-04  -5.600628e-05  0 
 2.177582e-04  -6.902320e-05  0 
 2.744974e-04  -9.212690e-05  0 
 5.833819e-05  1.424147e-06  0 
 1.395839e-04  -2.523376e-05  0 
 3.472764e-05  -7.042761e-06  0 
 2.919916e-05  -3.380311e-06  0 
 2.520208e-04  -6.746057e-05  0 
 8.481202e-05  -2.087743e-05  0 
 2.756455e-05  6.576884e-07  0 
 1.892669e-05  -4.834592e-06  0 
 1.233621e-05  6.264344e-07  0 
 8.701602e-05  -9.225780e-06  0 
 9.608465e-05  1.527036e-05  0 
 1.464494e-04  -4.519401e-05  0 
 5.408445e-05  2.555602e-05  0 
 4.721386e-05  -9.331271e-06  0 
 2.160652e-04  -5.021239e-05  0 
 1.513849e-05  -3.930781e-07  0 
 9.448852e-06  -5.992551e-08  0 
 9.353138e-05  -2.737273e-05  0 
 1.172557e-04  -3.080500e-05  0 
 2.289079e-04  -7.075297e-05  0 
 1.440418e-04  -3.443306e-05  0 
 1.788946e-04  8.293067e-06  0 
 1.745463e-04  -3.502035e-05  0 
 1.143995e-04  -2.309607e-05  0 
 1.850214e-04  -5.104461e-05  0 
 5.893488e-05  -1.493512e-05  0 
 6.236492e-05  -1.630531e-05  0 
 1.204113e-04  -1.580308e-05  0 
 1.907108e-04  -5.965583e-05  0 
 1.588487e-04  -1.704023e-05  0 
 1.273857e-04  3.982436e-06  0 
 2.005810e-04  -2.530954e-05  0 
 8.286260e-05  3.118037e-05  0 
 9.374346e-06  4.328408e-07  0 
 3.940938e-05  1.348928e-05  0 
 1.379640e-04  2.217722e-05  0 
 2.398303e-04  -4.346631e-05  0 
 1.429303e-05  -4.461670e-07  0 
 1.432355e-04  -3.348627e-05  0 
 2.353064e-04  -1.045884e-04  0 
 7.022234e-05  -2.079792e-06  0 
 3.850406e-05  -8.969230e-07  0 
 1.902377e-04  -1.067119e-04  0 
 9.157142e-05  -1.589584e-05  0 
 1.376224e-04  -2.442679e-05  0 
 8.387912e-05  -4.352570e-05  0 
 3.339957e-05  -2.154197e-06  0 
 1.845693e-04  -6.545137e-05  0 
 1.681900e-04  -3.828513e-05  0 
 2.391086e-04  -1.611797e-04  0 
 1.170875e-04  -1.996696e-05  0 
 1.634866e-04  -5.225404e-05  0 
 1.399084e-04  -6.452441e-05  0 
 2.768567e-04  -1.296692e-04  0 
 2.362810e-05  -3.914753e-07  0 
 1.912007e-04  -1.556850e-04  0 
 2.205059e-04  -1.353342e-04  0 
 1.560583e-04  -3.556101e-05  0 
 1.932676e-04  -4.761719e-05  0 
 2.103543e-04  -7.182612e-05  0 
 2.385620e-04  -1.328633e-04  0 
 2.523105e-04  -7.465234e-05  0 
 2.356817e-04  -1.561509e-04  0 
 2.149935e-04  -1.072237e-04  0 
 1.545073e-04  -1.205968e-04  0 
 1.008262e-04  -1.256826e-05  0 
 8.607330e-05  -1.418093e-05  0 
 2.183057e-04  -8.149735e-05  0 
 2.426158e-04  -9.088149e-05  0 
 2.153980e-04  -7.034057e-05  0 
 3.068379e-04  -1.938968e-04  0 
 1.775474e-04  -3.545785e-05  0 
 1.491582e-04  -3.003478e-05  0 
 1.212341e-04  -2.222553e-05  0 
 1.770258e-05  4.692947e-08  0 
 3.239978e-04  -1.472979e-04  0 
 3.120960e-05  -2.569926e-06  0 
 2.692958e-04  -8.823219e-05  0 
 1.233788e-04  -3.287519e-05  0 
 8.242904e-05  -1.076608e-05  0 
 2.147562e-04  -4.634422e-05  0 
VECTORS displacement_ITER2 FLOAT
 0  0  0 
 0  0  0 
 0  0  0 
 0  0  0 
 0  0  0 
 0  0  0 
 0  0  0 
 0  0  0 
 0  0  0 
 0  0  0 
 0  0  0 
 0  0  0 
 0  0  0 
 4.538453e-05  -6.828857e-06  0 
 9.208045e-05  -1.641852e-05  0 
 1.396872e-04  -3.663066e-05  0 
 2.065816e-04  -6.275027e-05  0 
 2.815620e-04  -9.007794e-05  0 
 3.680848e-04  -1.024232e-04  0 
 4.942398e-04  -1.477214e-04  0 
 9.029829e-05  -4.029441e-07  0 
 2.231054e-04  -4.471580e-05  0 
 5.367411e-05  -1.190719e-05  0 
 4.603545e-05  -5.913230e-06  0 
 4.500897e-04  -1.317665e-04  0 
 1.340445e-04  -3.133986e-05  0 
 4.215926e-05  -2.873976e-07  0 
 2.874455e-05  -8.127625e-06  0 
 1.760664e-05  8.406402e-07  0 
 1.377565e-04  -1.710455e-05  0 
 1.469374e-04  1.500452e-05  0 
 2.399194e-04  -7.449356e-05  0 
 8.176089e-05  2.818572e-05  0 
 7.370158e-05  -1.548171e-05  0 
 3.613522e-04  -9.863061e-05  0 
 2.351699e-05  -7.077225e-07  0 
 1.325909e-05  -1.249606e-07  0 
 1.467695e-04  -4.393790e-05  0 
 1.892420e-04  -4.772974e-05  0 
 3.939693e-04  -1.176107e-04  0 
 2.361456e-04  -5.360581e-05  0 
 2.760157e-04  -7.090718e-06  0 
 2.859729e-04  -6.541762e-05  0 
 1.846325e-04  -3.557355e-05  0 
 3.142511e-04  -8.469879e-05  0 
 9.014594e-05  -2.428083e-05  0 
 9.625712e-05  -2.548434e-05  0 
 1.901014e-04  -3.025782e-05  0 
 3.233605e-04  -9.821629e-05  0 
 2.522284e-04  -3.604361e-05  0 
 1.984118e-04  -2.704864e-06  0 
 3.239921e-04  -5.789822e-05  0 
 1.255254e-04  3.425946e-05  0 
 1.371402e-05  1.167910e-07  0 
 5.524342e-05  1.514860e-05  0 
 2.075062e-04  1.485201e-05  0 
 4.191212e-04  -9.325343e-05  0 
 2.263967e-05  -8.925975e-07  0 
 2.259086e-04  -5.327089e-05  0 
 3.722325e-04  -1.852929e-04  0 
 1.101380e-04  -3.391483e-06  0 
 5.907411e-05  -9.669325e-07  0 
 2.958700e-04  -1.933423e-04  0 
 1.449645e-04  -2.857458e-05  0 
 2.215382e-04  -4.135904e-05  0 
 1.385051e-04  -7.791592e-05  0 
 5.046137e-05  -4.190468e-06  0 
 2.891055e-04  -1.073108e-04  0 
 2.641475e-04  -5.800974e-05  0 
 3.758071e-04  -3.103984e-04  0 
 1.875959e-04  -3.338720e-05  0 
 2.661701e-04  -8.783149e-05  0 
 2.166572e-04  -1.136219e-04  0 
 4.818504e-04  -2.214334e-04  0 
 3.522465e-05  -6.916580e-07  0 
 2.891908e-04  -2.982800e-04  0 
 3.438184e-04  -2.490056e-04  0 
 2.509277e-04  -6.038641e-05  0 
 3.118447e-04  -7.584058e-05  0 
 3.431979e-04  -1.165192e-04  0 
 3.794505e-04  -2.373002e-04  0 
 4.015809e-04  -1.177844e-04  0 
 3.772334e-04  -2.883373e-04  0 
 3.378654e-04  -1.886909e-04  0 
 2.333326e-04  -2.292649e-04  0 
 1.601369e-04  -2.139045e-05  0 
 1.348943e-04  -2.332316e-05  0 
 3.404284e-04  -1.384481e-04  0 
 3.837800e-04  -1.580816e-04  0 
 3.328068e-04  -1.116780e-04  0 
 5.313713e-04  -3.496586e-04  0 
 2.817971e-04  -5.446542e-05  0 
 2.375638e-04  -4.755130e-05  0 
 1.940650e-04  -3.766836e-05  0 
 2.738911e-05  1.855472e-08  0 
 5.732125e-04  -2.455761e-04  0 
 4.848340e-05  -4.444333e-06  0 
 4.771705e-04  -1.430628e-04  0 
 1.966587e-04  -5.624643e-05  0 
 1.299939e-04  -1.829203e-05  0 
 3.329878e-04  -6.574632e-05  0 
VECTORS displacement_ITER3 FLOAT
 0  0  0 
 0  0  0 
 0  0  0 
 0  0  0 
 0  0  0 
 0  0  0 
 0  0  0 
 0  0  0 
 0  0  0 
 0  0  0 
 0  0  0 
 0  0  0 
 0  0  0 
 1.723443e-04  -1.119095e-05  0 
 3.401800e-04  -2.103398e-05  0 
 5.248794e-04  -4.071150e-05  0 
 7.444468e-04  -3.067053e-05  0 
 1.011234e-03  -2.404073e-05  0 
 1.246486e-03  -5.343310e-05  0 
 1.407892e-03  -2.157493e-05  0 
 6.206490e-04  1.004667e-04  0 
 1.064809e-03  1.238940e-04  0 
 2.959976e-04  -1.302544e-05  0 
 1.989644e-04  -7.601314e-06  0 
 1.545415e-03  1.519416e-04  0 
 6.763175e-04  1.838495e-05  0 
 3.155845e-04  2.900761e-05  0 
 1.888162e-04  -6.317284e-06  0 
 1.632493e-04  8.291247e-06  0 
 7.808381e-04  9.888997e-05  0 
 9.368154e-04  2.563689e-04  0 
 9.498559e-04  1.341951e-05  0 
 6.355811e-04  3.056711e-04  0 
 4.479165e-04  1.016190e-05  0 
 1.407155e-03  1.685579e-04  0 
 1.174587e-04  -1.770783e-06  0 
 1.260955e-04  -6.825283e-07  0 
 6.497739e-04  -8.814600e-06  0 
 8.392246e-04  2.267403e-05  0 
 1.359692e-03  1.639621e-05  0 
 1.016256e-03  5.636986e-05  0 
 1.413887e-03  3.816190e-04  0 
 1.226322e-03  1.446386e-04  0 
 8.861277e-04  6.711221e-05  0 
 1.164642e-03  5.543655e-05  0 
 3.895024e-04  -1.882784e-05  0 
 4.821928e-04  -5.889246e-06  0 
 9.932997e-04  1.345622e-04  0 
 1.137843e-03  1.420007e-07  0 
 1.221750e-03  2.046499e-04  0 
 1.096989e-03  2.577075e-04  0 
 1.433624e-03  2.494289e-04  0 
 8.596365e-04  3.855672e-04  0 
 1.171654e-04  8.467240e-06  0 
 4.604330e-04  1.615780e-04  0 
 1.234797e-03  3.827526e-04  0 
 1.567342e-03  2.596413e-04  0 
 9.191717e-05  -2.282042e-06  0 
 6.080039e-04  -1.034989e-04  0 
 7.020848e-04  -1.072767e-04  0 
 3.348787e-04  -8.232590e-06  0 
 2.009244e-04  4.109759e-06  0 
 6.537614e-04  -1.973085e-04  0 
 4.135107e-04  -6.257938e-05  0 
 6.295004e-04  -6.914680e-05  0 
 3.523598e-04  -1.350621e-04  0 
 1.681874e-04  -7.802036e-06  0 
 6.906956e-04  -1.441834e-04  0 
 6.989207e-04  -1.000621e-04  0 
 5.867610e-04  -1.536502e-04  0 
 5.333819e-04  -7.329506e-05  0 
 8.646079e-04  -4.177675e-05  0 
 5.692404e-04  -1.755997e-04  0 
 1.304650e-03  -1.198232e-04  0 
 1.223039e-04  -3.196882e-06  0 
 6.285895e-04  -2.275485e-04  0 
 6.381819e-04  -1.973149e-04  0 
 7.296448e-04  -7.095642e-05  0 
 9.383379e-04  -7.584566e-05  0 
 1.176400e-03  -3.872807e-05  0 
 6.496064e-04  -1.566635e-04  0 
 7.876611e-04  -6.472137e-05  0 
 1.239199e-03  -1.250042e-04  0 
 6.703961e-04  -1.627837e-04  0 
 5.778424e-04  -2.228160e-04  0 
 4.870641e-04  -3.110988e-05  0 
 4.477194e-04  -2.249235e-05  0 
 7.235899e-04  -1.089310e-04  0 
 7.327692e-04  -6.660398e-05  0 
 7.583811e-04  -1.235499e-04  0 
 1.321370e-03  -1.266148e-04  0 
 7.709165e-04  -9.125189e-05  0 
 6.567516e-04  -9.407524e-05  0 
 5.848834e-04  -4.483690e-05  0 
 9.675964e-05  -5.060563e-07  0 
 1.383806e-03  -1.196103e-04  0 
 1.554594e-04  -1.321158e-05  0 
 1.321128e-03  -3.460418e-05  0 
 6.290237e-04  -4.270685e-05  0 
 3.803178e-04  -3.943079e-05  0 
 8.007669e-04  -6.291850e-05  0 
VECTORS displacement_ITER4 FLOAT
 0  0  0 
 0  0  0 
 0  0  0 
 0  0  0 
 0  0  0 
 0  0  0 
 0  0  0 
 0  0  0 
 0  0  0 
 0  0  0 
 0  0  0 
 0  0  0 
 0  0  0 
 3.201059e-04  -2.367493e-05  0 
 5.893337e-04  -5.412456e-05  0 
 8.243649e-04  -1.017563e-04  0 
 1.049653e-03  -9.013800e-05  0 
 1.274419e-03  -6.735269e-05  0 
 1.465150e-03  -4.820862e-05  0 
 1.578596e-03  7.167962e-05  0 
 8.472506e-04  1.779646e-05  0 
 1.417486e-03  2.172919e-05  0 
 4.759417e-04  -6.159395e-05  0 
 3.563454e-04  -2.629533e-05  0 
 1.885852e-03  1.698056e-04  0 
 9.680331e-04  -8.520885e-05  0 
 4.346159e-04  -1.174345e-05  0 
 2.906517e-04  -4.437279e-05  0 
 2.032407e-04  -4.978034e-06  0 
 1.074244e-03  -6.401871e-06  0 
 1.202422e-03  1.389158e-04  0 
 1.247262e-03  -6.098669e-05  0 
 8.079995e-04  2.708464e-04  0 
 6.668735e-04  -7.334772e-05  0 
 1.723945e-03  1.362436e-04  0 
 2.035307e-04  -8.018422e-06  0 
 1.511677e-04  -6.002432e-06  0 
 9.623753e-04  -8.477172e-05  0 
 1.143337e-03  -8.084704e-05  0 
 1.623607e-03  2.636189e-05  0 
 1.352370e-03  -3.549613e-05  0 
 1.806971e-03  2.429223e-04  0 
 1.570554e-03  6.381609e-05  0 
 1.203641e-03  -3.985230e-05  0 
 1.467674e-03  1.029921e-05  0 
 6.373037e-04  -7.420185e-05  0 
 7.427170e-04  -7.911972e-05  0 
 1.329509e-03  2.742321e-05  0 
 1.405532e-03  -3.902351e-05  0 
 1.583551e-03  8.403048e-05  0 
 1.435211e-03  1.150604e-04  0 
 1.794174e-03  1.539400e-04  0 
 1.068104e-03  3.195556e-04  0 
 1.629510e-04  -4.383452e-06  0 
 5.726758e-04  1.388888e-04  0 
 1.591289e-03  2.679666e-04  0 
 1.945620e-03  2.308207e-04  0 
 1.694856e-04  -4.818675e-06  0 
 7.711111e-04  6.124561e-05  0 
 7.260207e-04  4.250898e-04  0 
 5.797233e-04  -8.044389e-06  0 
 3.801385e-04  -8.715449e-06  0 
 5.772500e-04  2.948650e-04  0 
 5.914376e-04  -9.494381e-06  0 
 9.111819e-04  -2.708436e-05  0 
 4.221095e-04  -2.797199e-05  0 
 3.235927e-04  -2.695513e-06  0 
 7.450782e-04  1.862524e-04  0 
 8.668789e-04  9.227419e-05  0 
 5.908696e-04  2.943629e-04  0 
 7.931238e-04  -1.731398e-05  0 
 1.134300e-03  -6.305736e-05  0 
 6.297710e-04  6.509193e-05  0 
 1.383372e-03  -3.495836e-05  0 
 2.494095e-04  -4.624733e-06  0 
 4.724924e-04  3.020174e-04  0 
 5.570097e-04  3.730224e-04  0 
 9.990527e-04  -5.228811e-05  0 
 1.149298e-03  3.695356e-06  0 
 1.355630e-03  -1.583721e-05  0 
 6.750607e-04  4.559270e-04  0 
 9.263228e-04  3.352902e-04  0 
 1.466534e-03  9.334825e-05  0 
 6.552659e-04  3.838632e-04  0 
 5.025629e-04  2.303702e-04  0 
 7.714404e-04  -2.041010e-05  0 
 7.472678e-04  -5.062282e-05  0 
 7.412903e-04  3.126507e-04  0 
 8.097376e-04  3.969629e-04  0 
 8.261023e-04  2.433838e-04  0 
 1.405748e-03  7.976466e-05  0 
 9.806208e-04  3.465490e-05  0 
 8.897389e-04  1.038970e-05  0 
 8.832984e-04  -4.514776e-05  0 
 1.785957e-04  -4.209714e-06  0 
 1.571990e-03  -3.173039e-05  0 
 2.628139e-04  -2.342543e-06  0 
 1.434588e-03  4.899614e-05  0 
 9.280136e-04  -8.265421e-05  0 
 5.924151e-04  -9.611117e-06  0 
 9.237542e-04  1.876614e-04  0 
VECTORS displacement_ITER5 FLOAT
 0  0  0 
 0  0  0 
 0  0  0 
 0  0  0 
 0  0  0 
 0  0  0 
 0  0  0 
 0  0  0 
 0  0  0 
 0  0  0 
 0  0  0 
 0  0  0 
 0  0  0 
 3.121227e-04  -2.098561e-05  0 
 5.880359e-04  -4.090157e-05  0 
 8.218652e-04  -7.546909e-05  0 
 1.051994e-03  -7.047840e-05  0 
 1.273302e-03  -6.496647e-05  0 
 1.403006e-03  -1.083108e-04  0 
 1.363953e-03  1.213111e-06  0 
 7.495252e-04  -6.875432e-05  0 
 1.301738e-03  -1.172965e-04  0 
 4.784815e-04  -6.606018e-05  0 
 3.567697e-04  -2.992288e-05  0 
 1.611071e-03  -1.560018e-05  0 
 9.333211e-04  -1.266786e-04  0 
 4.121669e-04  -3.814222e-05  0 
 2.898907e-04  -4.780813e-05  0 
 1.869351e-04  -1.029991e-05  0 
 9.729846e-04  -1.090214e-04  0 
 1.023710e-03  -2.731557e-05  0 
 1.228710e-03  -9.116972e-05  0 
 6.630247e-04  4.140564e-05  0 
 6.515204e-04  -9.620083e-05  0 
 1.544060e-03  -3.778806e-05  0 
 2.028694e-04  -9.612562e-06  0 
 1.348897e-04  -8.513376e-06  0 
 9.519938e-04  -9.880117e-05  0 
 1.116145e-03  -1.267425e-04  0 
 1.483631e-03  -9.404448e-05  0 
 1.269294e-03  -1.385170e-04  0 
 1.588291e-03  -2.360461e-06  0 
 1.421332e-03  -9.279039e-05  0 
 1.128985e-03  -1.380883e-04  0 
 1.354615e-03  -1.016052e-04  0 
 6.456064e-04  -8.015075e-05  0 
 7.414261e-04  -9.479306e-05  0 
 1.210728e-03  -1.120595e-04  0 
 1.335411e-03  -9.435783e-05  0 
 1.418013e-03  -1.014317e-04  0 
 1.272561e-03  -7.192466e-05  0 
 1.588886e-03  -5.675060e-05  0 
 9.235707e-04  3.857678e-05  0 
 1.612217e-04  -1.354704e-05  0 
 4.445536e-04  1.998443e-05  0 
 1.380566e-03  3.494178e-05  0 
 1.647293e-03  -6.795905e-06  0 
 1.686635e-04  -7.810527e-06  0 
 7.132992e-04  2.227845e-05  0 
 7.934257e-04  1.503957e-04  0 
 5.305981e-04  4.595218e-07  0 
 3.566457e-04  6.024351e-06  0 
 6.378407e-04  5.980618e-05  0 
 5.313968e-04  -2.753311e-05  0 
 8.777091e-04  1.091415e-05  0 
 4.001103e-04  -7.556940e-05  0 
 2.739862e-04  -3.206720e-06  0 
 7.513644e-04  6.837829e-05  0 
 8.486290e-04  7.202188e-05  0 
 6.668110e-04  8.372119e-05  0 
 7.255787e-04  -7.580857e-06  0 
 1.140791e-03  6.663478e-06  0 
 5.890579e-04  -2.486445e-05  0 
 1.258319e-03  2.007029e-04  0 
 2.175590e-04  -6.352481e-06  0 
 6.064070e-04  4.196045e-05  0 
 6.655624e-04  6.939266e-05  0 
 9.905007e-04  1.264634e-05  0 
 1.160973e-03  6.534988e-05  0 
 1.378255e-03  5.320162e-05  0 
 7.627080e-04  1.316265e-04  0 
 9.766092e-04  2.233344e-04  0 
 1.377601e-03  3.521152e-04  0 
 7.272472e-04  1.235130e-04  0 
 5.567546e-04  3.941029e-05  0 
 7.268471e-04  8.127695e-06  0 
 7.248079e-04  -5.609972e-06  0 
 7.810731e-04  1.210706e-04  0 
 8.654153e-04  1.662384e-04  0 
 8.369785e-04  1.386223e-04  0 
 1.161589e-03  5.011893e-04  0 
 9.693426e-04  6.080183e-05  0 
 8.558862e-04  2.546480e-05  0 
 8.638867e-04  7.781127e-06  0 
 1.734553e-04  -3.327281e-06  0 
 1.134170e-03  2.507171e-04  0 
 2.252044e-04  -6.425507e-06  0 
 1.283944e-03  7.075582e-05  0 
 9.243904e-04  -2.389143e-05  0 
 5.360592e-04  -4.804344e-06  0 
 9.264846e-04  1.702180e-04  0 
VECTORS displacement_ITER6 FLOAT
 0  0  0 
 0  0  0 
 0  0  0 
 0  0  0 
 0  0  0 
 0  0  0 
 0  0  0 
 0  0  0 
 0  0  0 
 0  0  0 
 0  0  0 
 0  0  0 
 0  0  0 
 2.812378e-04  -1.616141e-05  0 
 5.440122e-04  -2.006975e-05  0 
 7.817911e-04  -3.411347e-05  0 
 1.024256e-03  -3.531946e-05  0 
 1.251267e-03  -5.623440e-05  0 
 1.464418e-03  -9.861011e-05  0 
 1.691773e-03  -1.210799e-04  0 
 8.178465e-04  -2.412816e-05  0 
 1.261540e-03  -1.597251e-05  0 
 5.049536e-04  -2.680543e-05  0 
 3.427335e-04  -6.680678e-06  0 
 1.705315e-03  -1.408222e-05  0 
 9.248073e-04  -3.140545e-05  0 
 5.043428e-04  -2.534750e-05  0 
 3.470320e-04  -2.672961e-05  0 
 2.636159e-04  -1.439404e-05  0 
 9.901187e-04  -1.828815e-05  0 
 1.047061e-03  -1.208759e-06  0 
 1.189299e-03  -2.746802e-05  0 
 7.644343e-04  2.337927e-05  0 
 6.944389e-04  -3.455546e-05  0 
 1.574175e-03  6.551500e-06  0 
 2.195162e-04  -9.316816e-06  0 
 1.928142e-04  -1.299838e-05  0 
 9.180670e-04  -1.612232e-05  0 
 1.076146e-03  -2.430314e-05  0 
 1.572841e-03  -4.381527e-05  0 
 1.243604e-03  -1.722949e-05  0 
 1.515393e-03  3.754526e-05  0 
 1.403056e-03  -4.540855e-06  0 
 1.105913e-03  -2.152034e-05  0 
 1.382805e-03  -1.319974e-05  0 
 6.306869e-04  -1.867968e-05  0 
 7.407698e-04  -2.479093e-05  0 
 1.171096e-03  -1.527411e-05  0 
 1.361152e-03  -4.780290e-05  0 
 1.372228e-03  -1.377519e-05  0 
 1.222634e-03  3.230727e-06  0 
 1.561710e-03  4.531364e-06  0 
 9.757291e-04  2.442816e-05  0 
 2.158747e-04  -1.052741e-05  0 
 5.378122e-04  8.629090e-06  0 
 1.308896e-03  4.548075e-05  0 
 1.688855e-03  8.665540e-06  0 
 1.533878e-04  -6.339679e-06  0 
 7.010550e-04  -2.390336e-05  0 
 1.060285e-03  -1.036837e-04  0 
 4.707731e-04  -1.528673e-06  0 
 3.112786e-04  3.295268e-06  0 
 8.001226e-04  -1.357331e-04  0 
 4.731189e-04  -3.452901e-05  0 
 8.506853e-04  4.032260e-06  0 
 3.587928e-04  -9.497984e-05  0 
 2.326499e-04  -6.808131e-06  0 
 8.577881e-04  -5.646191e-05  0 
 9.015389e-04  5.448588e-06  0 
 9.734159e-04  -1.659989e-04  0 
 6.713624e-04  -1.791759e-05  0 
 1.143966e-03  -2.599329e-05  0 
 5.951487e-04  -9.438278e-05  0 
 1.604052e-03  -2.004870e-04  0 
 1.854778e-04  -7.094233e-06  0 
 8.262293e-04  -2.176029e-04  0 
 9.361673e-04  -2.027016e-04  0 
 1.004659e-03  4.846943e-06  0 
 1.224688e-03  1.678223e-05  0 
 1.402421e-03  -4.574932e-05  0 
 1.054349e-03  -1.713750e-04  0 
 1.267685e-03  3.688218e-05  0 
 1.497015e-03  -2.327309e-04  0 
 9.539651e-04  -1.134137e-04  0 
 6.513287e-04  -1.323129e-04  0 
 6.706714e-04  5.420269e-06  0 
 6.672291e-04  -2.907469e-06  0 
 9.960198e-04  -7.195889e-05  0 
 1.142636e-03  -6.878065e-05  0 
 1.031987e-03  -1.760446e-05  0 
 1.663784e-03  -2.989435e-04  0 
 1.029365e-03  1.718025e-05  0 
 8.530308e-04  -3.858705e-06  0 
 8.290154e-04  7.452872e-06  0 
 1.528874e-04  -5.543025e-06  0 
 1.752134e-03  -2.343883e-04  0 
 1.899390e-04  -9.055806e-06  0 
 1.603891e-03  -8.636560e-05  0 
 9.020471e-04  -2.204750e-05  0 
 4.774099e-04  -1.177426e-05  0 
 1.110054e-03  6.040468e-05  0 
VECTORS displacement_ITER7 FLOAT
 0  0  0 
 0  0  0 
 0  0  0 
 0  0  0 
 0  0  0 
 0  0  0 
 0  0  0 
 0  0  0 
 0  0  0 
 0  0  0 
 0  0  0 
 0  0  0 
 0  0  0 
 3.086715e-04  -1.286011e-05  0 
 5.836933e-04  -1.571562e-05  0 
 8.343539e-04  -1.887505e-05  0 
 1.053556e-03  -9.130927e-06  0 
 1.245733e-03  -2.591600e-05  0 
 1.392206e-03  -7.294399e-05  0 
 1.495805e-03  -6.885527e-05  0 
 8.426934e-04  -5.070626e-05  0 
 1.235739e-03  -4.731266e-05  0 
 5.533995e-04  -2.517993e-05  0 
 3.738947e-04  -8.677838e-06  0 
 1.526792e-03  -4.429737e-05  0 
 9.698096e-04  -3.644797e-05  0 
 5.446124e-04  -2.907234e-05  0 
 3.824208e-04  -2.450510e-05  0 
 2.930749e-04  -1.632053e-05  0 
 1.013263e-03  -4.909691e-05  0 
 1.033169e-03  -6.698376e-05  0 
 1.193746e-03  -1.592881e-05  0 
 7.703114e-04  -2.428481e-05  0 
 7.471672e-04  -3.777822e-05  0 
 1.450525e-03  -2.636756e-05  0 
 2.389805e-04  -9.431349e-06  0 
 2.152163e-04  -1.401898e-05  0 
 9.690042e-04  -1.189516e-05  0 
 1.101396e-03  -2.807581e-05  0 
 1.457912e-03  -4.814279e-05  0 
 1.227199e-03  -3.589919e-05  0 
 1.396540e-03  -7.696146e-05  0 
 1.337776e-03  -3.958236e-05  0 
 1.117541e-03  -4.206119e-05  0 
 1.323064e-03  -2.420701e-05  0 
 6.845363e-04  -1.430851e-05  0 
 7.953554e-04  -2.356697e-05  0 
 1.163749e-03  -5.366369e-05  0 
 1.314299e-03  -3.682937e-05  0 
 1.310524e-03  -6.491979e-05  0 
 1.195131e-03  -6.812280e-05  0 
 1.439755e-03  -5.919523e-05  0 
 9.512682e-04  -4.757087e-05  0 
 2.417353e-04  -1.141696e-05  0 
 5.576898e-04  -1.682596e-05  0 
 1.238943e-03  -7.205632e-05  0 
 1.504695e-03  -5.189890e-05  0 
 1.692582e-04  -5.668025e-06  0 
 7.604867e-04  -2.897771e-05  0 
 1.115221e-03  -5.218082e-06  0 
 5.033930e-04  -4.019910e-06  0 
 3.416500e-04  1.477906e-06  0 
 8.522795e-04  1.907112e-06  0 
 5.175308e-04  -2.593571e-05  0 
 8.721281e-04  -6.389414e-06  0 
 3.708592e-04  -5.804453e-05  0 
 2.649907e-04  -3.070088e-06  0 
 9.142513e-04  -3.496160e-05  0 
 9.483019e-04  -2.299964e-05  0 
 1.077301e-03  -6.749725e-06  0 
 7.153021e-04  -2.247674e-05  0 
 1.152308e-03  1.698340e-05  0 
 6.687639e-04  -4.473276e-05  0 
 1.421768e-03  2.134821e-05  0 
 2.112834e-04  -7.820659e-06  0 
 8.840421e-04  -1.892648e-05  0 
 1.002220e-03  -3.174007e-05  0 
 1.019702e-03  4.791536e-06  0 
 1.208137e-03  6.787933e-06  0 
 1.365020e-03  1.018265e-05  0 
 1.122652e-03  -2.563828e-05  0 
 1.301458e-03  1.035349e-06  0 
 1.368137e-03  3.674759e-05  0 
 1.012702e-03  4.340322e-06  0 
 7.096401e-04  2.875837e-05  0 
 7.101236e-04  2.255330e-07  0 
 7.032694e-04  1.829293e-06  0 
 1.054654e-03  -2.847509e-05  0 
 1.196605e-03  -2.065602e-05  0 
 1.096306e-03  -2.463360e-05  0 
 1.412702e-03  6.299373e-05  0 
 1.048394e-03  -1.155678e-05  0 
 8.848075e-04  -2.026700e-05  0 
 8.529853e-04  4.027029e-06  0 
 1.661964e-04  -5.545849e-06  0 
 1.444665e-03  2.500306e-05  0 
 2.156750e-04  -9.079562e-06  0 
 1.436591e-03  -1.795033e-05  0 
 9.332858e-04  8.260639e-06  0 
 5.166693e-04  -1.225105e-05  0 
 1.156972e-03  -2.841255e-06  0 
VECTORS displacement_ITER8 FLOAT
 0  0  0 
 0  0  0 
 0  0  0 
 0  0  0 
 0  0  0 
 0  0  0 
 0  0  0 
 0  0  0 
 0  0  0 
 0  0  0 
 0  0  0 
 0  0  0 
 0  0  0 
 2.995141e-04  -1.398758e-05  0 
 5.653067e-04  -2.309567e-05  0 
 8.209946e-04  -2.853176e-05  0 
 1.035870e-03  -2.096489e-05  0 
 1.242962e-03  -1.842401e-05  0 
 1.429802e-03  -2.822904e-05  0 
 1.603037e-03  -3.659444e-05  0 
 8.380486e-04  -2.663025e-05  0 
 1.266075e-03  -1.628752e-05  0 
 5.381313e-04  -2.051775e-05  0 
 3.580294e-04  -1.057964e-05  0 
 1.621735e-03  1.783296e-06  0 
 9.607874e-04  -2.305608e-05  0 
 5.376673e-04  -1.699000e-05  0 
 3.737112e-04  -1.628251e-05  0 
 3.020430e-04  -1.323743e-05  0 
 1.014288e-03  -2.453791e-05  0 
 1.048943e-03  -2.846019e-05  0 
 1.203871e-03  -7.795524e-06  0 
 7.757761e-04  -2.426573e-06  0 
 7.305063e-04  -2.422061e-05  0 
 1.530910e-03  1.261399e-06  0 
 2.280908e-04  -9.333689e-06  0 
 2.263217e-04  -1.389942e-05  0 
 9.527213e-04  -1.482794e-05  0 
 1.106816e-03  -1.861870e-05  0 
 1.517650e-03  -1.013358e-05  0 
 1.250799e-03  -1.767885e-05  0 
 1.465492e-03  -2.598213e-05  0 
 1.394171e-03  -1.046596e-05  0 
 1.129652e-03  -2.170832e-05  0 
 1.375719e-03  -7.100480e-06  0 
 6.661465e-04  -1.397680e-05  0 
 7.750127e-04  -1.942938e-05  0 
 1.192072e-03  -2.122677e-05  0 
 1.353908e-03  -1.013840e-05  0 
 1.362494e-03  -1.665805e-05  0 
 1.239608e-03  -2.796457e-05  0 
 1.523231e-03  -9.693631e-06  0 
 9.698571e-04  -1.491216e-05  0 
 2.431725e-04  -7.774797e-06  0 
 5.600680e-04  -4.491016e-06  0 
 1.295111e-03  -3.085478e-05  0 
 1.622919e-03  -2.823809e-06  0 
 1.632411e-04  -5.196067e-06  0 
 7.692857e-04  -2.453967e-05  0 
 1.155448e-03  -6.826104e-06  0 
 5.068957e-04  -1.041422e-05  0 
 3.383408e-04  -6.532404e-06  0 
 8.905685e-04  9.230277e-06  0 
 5.109129e-04  -1.547932e-05  0 
 8.666369e-04  -2.080216e-05  0 
 3.533444e-04  -2.970183e-05  0 
 2.746264e-04  -3.778157e-06  0 
 9.376911e-04  -2.710161e-05  0 
 9.612960e-04  -3.133160e-05  0 
 1.125987e-03  1.762546e-05  0 
 7.160168e-04  -1.634618e-05  0 
 1.127581e-03  -1.292451e-05  0 
 6.813263e-04  -1.962746e-05  0 
 1.485991e-03  -3.847065e-05  0 
 2.159148e-04  -8.150147e-06  0 
 9.224519e-04  1.696245e-06  0 
 1.046186e-03  -1.718745e-05  0 
 1.008463e-03  -2.546763e-05  0 
 1.174133e-03  -2.727860e-05  0 
 1.350138e-03  -8.099515e-06  0 
 1.158541e-03  -2.399433e-05  0 
 1.322758e-03  -3.203630e-05  0 
 1.361733e-03  -5.474512e-05  0 
 1.048469e-03  7.168474e-07  0 
 7.356373e-04  3.900053e-05  0 
 7.058916e-04  -1.533714e-05  0 
 6.906055e-04  -2.054031e-05  0 
 1.091496e-03  -2.578871e-05  0 
 1.234850e-03  -2.293303e-05  0 
 1.128893e-03  -3.346834e-05  0 
 1.496607e-03  -4.709111e-05  0 
 1.043373e-03  -2.436108e-05  0 
 8.836854e-04  -2.059906e-05  0 
 8.435076e-04  -2.282311e-05  0 
 1.615307e-04  -6.110982e-06  0 
 1.607106e-03  -3.196495e-05  0 
 2.202698e-04  -7.296392e-06  0 
 1.529195e-03  -1.225214e-05  0 
 9.222511e-04  -1.584664e-05  0 
 5.150355e-04  -9.839070e-06  0 
 1.173371e-03  -3.601774e-05  0 
VECTORS displacement_ITER9 FLOAT
 0  0  0 
 0  0  0 
 0  0  0 
 0  0  0 
 0  0  0 
 0  0  0 
 0  0  0 
 0  0  0 
 0  0  0 
 0  0  0 
 0  0  0 
 0  0  0 
 0  0  0 
 2.957034e-04  -1.292806e-05  0 
 5.639639e-04  -2.191708e-05  0 
 8.192565e-04  -2.856602e-05  0 
 1.029172e-03  -2.848337e-05  0 
 1.221956e-03  -2.911648e-05  0 
 1.396059e-03  -3.366826e-05  0 
 1.546299e-03  -3.529362e-05  0 
 8.064644e-04  -3.659867e-05  0 
 1.236392e-03  -3.962037e-05  0 
 5.286032e-04  -2.308734e-05  0 
 3.537001e-04  -1.201852e-05  0 
 1.596397e-03  -2.430510e-05  0 
 9.399472e-04  -4.002838e-05  0 
 5.163210e-04  -1.995454e-05  0 
 3.643605e-04  -1.682287e-05  0 
 2.928253e-04  -1.281797e-05  0 