# vtk DataFile Version 3.1
this is an vtk file created by FEMAC
ASCII
DATASET UNSTRUCTURED_GRID
POINTS 101 FLOAT
4.000000 0.000000 0.000000
4.000000 1.000000 0.000000
5.000000 1.000000 0.000000
3.625000 0.000000 0.000000
3.750000 0.000000 0.000000
3.875000 0.000000 0.000000
4.125000 0.000000 0.000000
4.000000 0.125000 0.000000
4.000000 0.250000 0.000000
4.000000 0.375000 0.000000
4.000000 0.500000 0.000000
4.000000 0.625000 0.000000
4.000000 0.875000 0.000000
4.000000 1.125000 0.000000
4.000000 1.250000 0.000000
4.000000 1.375000 0.000000
4.125000 1.000000 0.000000
4.250000 1.000000 0.000000
4.375000 1.000000 0.000000
4.500000 1.000000 0.000000
4.625000 1.000000 0.000000
4.750000 1.000000 0.000000
4.875000 1.000000 0.000000
5.000000 0.875000 0.000000
3.736189 0.229332 0.000000
3.881110 0.150703 0.000000
3.633635 0.155319 0.000000
3.891498 0.593094 0.000000
3.637186 0.313697 0.000000
3.749449 0.094006 0.000000
3.859304 0.437638 0.000000
3.869629 0.294081 0.000000
3.765924 0.342310 0.000000
3.939027 0.068926 0.000000
3.754883 1.291346 0.000000
3.896303 1.213607 0.000000
3.874315 1.345008 0.000000
3.783203 1.173413 0.000000
3.892633 1.099133 0.000000
4.329100 0.631666 0.000000
4.261618 0.222520 0.000000
4.119756 0.143088 0.000000
4.817421 0.910332 0.000000
4.271117 0.415027 0.000000
4.395662 0.123278 0.000000
4.438266 0.470739 0.000000
4.366265 0.330237 0.000000
4.107131 0.562061 0.000000
4.194422 0.795291 0.000000
4.250436 0.093427 0.000000
4.425921 0.863568 0.000000
4.198668 0.496653 0.000000
4.232589 0.600604 0.000000
4.126171 0.698464 0.000000
4.904915 0.810446 0.000000
4.508481 0.733243 0.000000
4.262054 0.704572 0.000000
4.238755 0.322620 0.000000
4.123091 0.311752 0.000000
4.371958 0.723587 0.000000
4.922907 0.918710 0.000000
4.291032 0.816412 0.000000
4.639225 0.786646 0.000000
4.319630 0.521262 0.000000
4.558179 0.884881 0.000000
4.354596 0.426703 0.000000
4.182427 0.400480 0.000000
4.061189 0.067022 0.000000
4.185857 0.898777 0.000000
4.094825 0.825839 0.000000
4.101886 0.440991 0.000000
4.305981 0.912675 0.000000
4.377971 0.226595 0.000000
4.081137 0.919923 0.000000
4.416473 0.610778 0.000000
4.692654 0.898395 0.000000
4.234331 1.229953 0.000000
4.807507 1.134893 0.000000
4.117125 1.177519 0.000000
4.239491 1.499097 0.000000
4.324121 1.285204 0.000000
4.340094 1.146699 0.000000
4.128038 1.291333 0.000000
4.677365 1.110585 0.000000
4.243295 1.090268 0.000000
4.103134 1.499690 0.000000
4.430041 1.369689 0.000000
4.344772 1.498773 0.000000
4.546471 1.107806 0.000000
4.437334 1.100348 0.000000
4.287042 1.398696 0.000000
4.164668 1.397582 0.000000
4.227640 1.320554 0.000000
4.546938 1.396590 0.000000
4.600377 1.212839 0.000000
4.457675 1.218029 0.000000
4.708764 1.215696 0.000000
4.651070 1.333967 0.000000
4.537220 1.306223 0.000000
4.930905 1.126898 0.000000
4.097084 1.078557 0.000000
CELLS 157 628 
3 25  7  8
3 24 29 25
3 28 26 24
3 4  5 29
3 5 25 29
3 29  3  4
3 3 29 26
3 29 24 26
3 27 10 11
3 27 30 10
3 24 32 28
3 32 24 31
3 30  9 10
3 25 31 24
3 31 25  8
3 9 31  8
3 9 30 31
3 31 30 32
3 33  5  0
3 33  7 25
3 7 33  0
3 5 33 25
3 35 13 14
3 35 36 34
3 34 37 35
3 13 38  1
3 36 14 15
3 35 14 36
3 38 13 35
3 38 35 37
3 7 41  8
3 49 40 41
3 41  6 49
3 40 49 44
3 10 47 11
3 21 42 22
3 52 47 51
3 53 47 52
3 39 56 52
3 43 57 46
3 57 40 46
3 58 41 40
3 41 58  8
3 22 60  2
3 60 23  2
3 60 22 42
3 60 54 23
3 42 54 60
3 57 58 40
3 18 50 19
3 53 56 48
3 53 52 56
3 56 61 48
3 11 47 53
3 52 63 39
3 43 63 51
3 52 51 63
3 19 64 20
3 64 19 50
3 65 43 46
3 65 45 63
3 43 65 63
3 51 66 43
3 6 67  0
3 7 67 41
3 67  7  0
3 67  6 41
3 66 57 43
3 9  8 58
3 58 57 66
3 55 64 50
3 55 62 64
3 69 48 68
3 70 10  9
3 17 71 18
3 44 72 40
3 72 46 40
3 12 73  1
3 16 73 68
3 73 16  1
3 71 50 18
3 61 50 71
3 58 70  9
3 58 66 70
3 69 73 12
3 69 68 73
3 10 70 47
3 51 70 66
3 70 51 47
3 48 69 53
3 17 16 68
3 71 17 68
3 48 61 68
3 61 71 68
3 59 55 50
3 50 61 59
3 39 74 59
3 74 39 63
3 62 75 64
3 75 20 64
3 75 21 20
3 74 55 59
3 63 45 74
3 56 39 59
3 56 59 61
3 21 75 42
3 13 78 14
3 22 77 21
3 76 82 78
3 84 76 78
3 81 80 76
3 21 77 83
3 14 78 82
3 14 82 15
3 21 83 20
3 17 84 16
3 18 84 17
3 76 84 81
3 84 18 81
3 88 19 20
3 83 88 20
3 19 89 18
3 89 81 18
3 90 80 86
3 91 79 85
3 79 91 90
3 80 92 76
3 92 82 76
3 92 80 90
3 96 83 77
3 89 95 81
3 94 88 83
3 90 87 79
3 86 87 90
3 92 91 82
3 90 91 92
3 91 15 82
3 85 15 91
3 95 80 81
3 95 86 80
3 89 19 88
3 89 88 95
3 94 95 88
3 83 96 94
3 98 93 86
3 98 95 94
3 95 98 86
3 98 97 93
3 94 97 98
3 94 96 97
3 99 22  2
3 100  13   1
3 16 100   1
3 13 100  78
3 99 77 22
3 84 100  16
3 84  78 100
CELL_TYPES 157
5 5 5 5 5 5 5 5 5 5 5 5 5 5 5 5 5 5 5 5 5 5 5 5 5 5 5 5 5 5 5 5 5 5 5 5 5 5 5 5 5 5 5 5 5 5 5 5 5 5 5 5 5 5 5 5 5 5 5 5 5 5 5 5 5 5 5 5 5 5 5 5 5 5 5 5 5 5 5 5 5 5 5 5 5 5 5 5 5 5 5 5 5 5 5 5 5 5 5 5 5 5 5 5 5 5 5 5 5 5 5 5 5 5 5 5 5 5 5 5 5 5 5 5 5 5 5 5 5 5 5 5 5 5 5 5 5 5 5 5 5 5 5 5 5 5 5 5 5 5 5 5 5 5 5 5 5 
POINT_DATA 101
VECTORS displacement_ITER1 FLOAT
 0  0  0 
 -4.418385e-03  -1.102561e-03  0 
 -4.725263e-03  7.753480e-03  0 
 0  0  0 
 0  0  0 
 0  0  0 
 0  0  0 
 9.321115e-06  -1.143444e-05  0 
 -8.880635e-05  -5.742014e-06  0 
 -4.293184e-04  -4.432991e-05  0 
 -8.065331e-04  -1.180092e-04  0 
 -1.314162e-03  -1.763301e-04  0 
 -3.248190e-03  -1.096451e-03  0 
 -5.538318e-03  -1.107342e-03  0 
 -6.653829e-03  -1.110240e-03  0 
 -7.792262e-03  -1.093723e-03  0 
 -4.394387e-03  2.473950e-05  0 
 -4.438179e-03  1.106054e-03  0 
 -4.484829e-03  2.086866e-03  0 
 -4.572589e-03  3.169389e-03  0 
 -4.675478e-03  4.241278e-03  0 
 -4.712201e-03  5.413326e-03  0 
 -4.717975e-03  6.598767e-03  0 
 -3.605647e-03  7.748615e-03  0 
 -2.764352e-04  -1.422043e-04  0 
 -1.830373e-05  -3.956994e-05  0 
 -2.504680e-04  -1.424662e-04  0 
 -1.228320e-03  -3.547050e-04  0 
 -5.400414e-04  -3.145092e-04  0 
 -4.596379e-05  -5.663608e-06  0 
 -6.903616e-04  -2.696060e-04  0 
 -2.578922e-04  -1.738808e-04  0 
 -4.547817e-04  -2.522280e-04  0 
 3.608734e-06  -5.777775e-06  0 
 -7.025102e-03  -3.348994e-03  0 
 -6.329886e-03  -2.059671e-03  0 
 -7.502938e-03  -2.261595e-03  0 
 -5.967886e-03  -3.092383e-03  0 
 -5.307834e-03  -2.094925e-03  0 
 -1.475488e-03  1.349286e-03  0 
 -2.007364e-04  6.001573e-04  0 
 -2.212643e-05  7.099091e-05  0 
 -3.907688e-03  6.050459e-03  0 
 -5.457338e-04  8.175892e-04  0 
 -2.248254e-04  8.116657e-04  0 
 -1.030742e-03  1.716564e-03  0 
 -4.919120e-04  1.019043e-03  0 
 -1.008288e-03  6.769868e-05  0 
 -2.487104e-03  6.037872e-04  0 
 -7.899383e-05  4.615738e-04  0 
 -3.308237e-03  2.426197e-03  0 
 -7.233212e-04  5.647948e-04  0 
 -1.218655e-03  7.894731e-04  0 
 -1.773084e-03  1.537311e-04  0 
 -3.010349e-03  6.860415e-03  0 
 -2.370375e-03  2.979360e-03  0 
 -1.854835e-03  1.019315e-03  0 
 -3.577328e-04  6.230168e-04  0 
 -2.307422e-04  1.807829e-04  0 
 -2.098041e-03  1.748136e-03  0 
 -3.993775e-03  7.037818e-03  0 
 -2.693751e-03  1.306327e-03  0 
 -2.878214e-03  4.285042e-03  0 
 -9.130502e-04  1.172727e-03  0 
 -3.612312e-03  3.564942e-03  0 
 -7.108102e-04  1.145871e-03  0 
 -4.690262e-04  4.717889e-04  0 
 1.497920e-05  8.056265e-06  0 
 -3.473779e-03  5.175954e-04  0 
 -2.809170e-03  -2.267660e-04  0 
 -5.637009e-04  1.024632e-04  0 
 -3.690576e-03  1.507409e-03  0 
 -3.599816e-04  9.045815e-04  0 
 -3.663714e-03  -3.469101e-04  0 
 -1.444263e-03  1.948121e-03  0 
 -3.782332e-03  4.845227e-03  0 
 -6.499438e-03  1.012403e-03  0 
 -5.906305e-03  5.967002e-03  0 
 -6.004971e-03  -6.234991e-05  0 
 -8.923983e-03  1.052591e-03  0 
 -7.029171e-03  1.781610e-03  0 
 -5.746234e-03  1.881478e-03  0 
 -7.048095e-03  5.195786e-05  0 
 -5.666323e-03  4.767267e-03  0 
 -5.213500e-03  1.080292e-03  0 
 -8.932423e-03  -1.262627e-04  0 
 -7.800598e-03  2.732501e-03  0 
 -8.927475e-03  2.002772e-03  0 
 -5.548200e-03  3.654900e-03  0 
 -5.405890e-03  2.696835e-03  0 
 -8.031937e-03  1.476371e-03  0 
 -8.033999e-03  4.081868e-04  0 
 -7.337094e-03  9.683347e-04  0 
 -8.064737e-03  3.801108e-03  0 
 -6.487216e-03  4.186031e-03  0 
 -6.447339e-03  2.955091e-03  0 
 -6.565725e-03  5.081575e-03  0 
 -7.532488e-03  4.664322e-03  0 
 -7.252041e-03  3.694114e-03  0 
 -5.838853e-03  7.123438e-03  0 
 -5.119131e-03  -2.377929e-04  0 
VECTORS displacement_ITER2 FLOAT
 0  0  0 
 1.497499e-03  7.096773e-04  0 
 8.371804e-04  2.107149e-04  0 
 0  0  0 
 0  0  0 
 0  0  0 
 0  0  0 
 1.574072e-04  -6.804595e-06  0 
 3.643938e-04  -3.432748e-05  0 
 6.017596e-04  -1.202091e-05  0 
 7.900615e-04  1.906420e-05  0 
 1.000505e-03  6.586757e-05  0 
 1.381023e-03  5.282011e-04  0 
 1.579070e-03  8.378944e-04  0 
 1.647227e-03  9.561051e-04  0 
 1.767671e-03  1.085907e-03  0 
 1.353716e-03  5.552745e-04  0 
 1.206201e-03  4.107840e-04  0 
 1.061943e-03  3.344438e-04  0 
 9.549010e-04  2.607782e-04  0 
 8.866039e-04  2.630820e-04  0 
 8.528862e-04  3.241212e-04  0 
 8.399316e-04  3.391171e-04  0 
 6.667507e-04  2.105574e-04  0 
 3.647734e-04  5.195509e-05  0 
 1.760211e-04  -2.161452e-06  0 
 2.636536e-04  7.697243e-05  0 
 9.872230e-04  9.156726e-05  0 
 5.329420e-04  1.180798e-04  0 
 1.079326e-04  2.158014e-06  0 
 7.295944e-04  4.782688e-05  0 
 4.717689e-04  2.710350e-05  0 
 5.674896e-04  5.371226e-05  0 
 8.255295e-05  1.449200e-06  0 
 1.933107e-03  1.382311e-03  0 
 1.717519e-03  1.083175e-03  0 
 1.868523e-03  1.249041e-03  0 
 1.785151e-03  1.221877e-03  0 
 1.663802e-03  9.939130e-04  0 
 7.587963e-04  3.125072e-05  0 
 3.338504e-04  -1.545626e-04  0 
 2.157238e-04  -3.455352e-05  0 
 7.682702e-04  3.226092e-04  0 
 5.846860e-04  -1.071246e-04  0 
 2.272980e-04  -2.711432e-04  0 
 5.239288e-04  -9.337277e-05  0 
 4.247789e-04  -1.999826e-04  0 
 8.512466e-04  4.899473e-05  0 
 1.027511e-03  2.213406e-04  0 
 1.745856e-04  -1.287894e-04  0 
 8.855708e-04  1.851357e-04  0 
 7.228033e-04  -3.772560e-05  0 
 8.032339e-04  1.858660e-05  0 
 1.012247e-03  1.520373e-04  0 
 6.810038e-04  2.506181e-04  0 
 7.556099e-04  1.216816e-04  0 
 8.932967e-04  1.031063e-04  0 
 4.489530e-04  -1.149346e-04  0 
 4.607915e-04  -4.135729e-05  0 
 8.234944e-04  9.999042e-05  0 
 7.294341e-04  2.883792e-04  0 
 9.462282e-04  1.899573e-04  0 
 7.484443e-04  2.113257e-04  0 
 6.761390e-04  -4.918250e-05  0 
 8.335445e-04  1.993237e-04  0 
 5.419622e-04  -1.281505e-04  0 
 5.883389e-04  -5.739043e-05  0 
 8.696575e-05  -1.695871e-06  0 
 1.154644e-03  3.583804e-04  0 
 1.192840e-03  3.668405e-04  0 
 6.731598e-04  7.024595e-06  0 
 1.048651e-03  2.737286e-04  0 
 3.104329e-04  -2.346524e-04  0 
 1.310059e-03  5.124975e-04  0 
 6.816892e-04  3.358652e-05  0 
 8.051664e-04  2.675930e-04  0 
 1.416621e-03  6.807624e-04  0 
 9.566056e-04  3.433753e-04  0 
 1.494107e-03  7.655511e-04  0 
 1.759802e-03  9.192526e-04  0 
 1.389445e-03  6.526403e-04  0 
 1.238966e-03  5.168067e-04  0 
 1.556042e-03  8.604294e-04  0 
 9.461466e-04  3.168091e-04  0 
 1.291325e-03  5.244929e-04  0 
 1.892465e-03  1.089957e-03  0 
 1.400365e-03  6.186942e-04  0 
 1.677001e-03  7.668718e-04  0 
 1.011178e-03  3.220683e-04  0 
 1.096328e-03  3.844397e-04  0 
 1.533240e-03  7.685777e-04  0 
 1.647014e-03  9.136389e-04  0 
 1.498417e-03  7.639572e-04  0 
 1.374841e-03  5.399055e-04  0 
 1.081072e-03  3.740028e-04  0 
 1.208070e-03  4.749629e-04  0 
 1.054580e-03  3.320738e-04  0 
 1.216238e-03  3.840279e-04  0 
 1.242021e-03  4.959761e-04  0 
 9.754294e-04  2.841613e-04  0 
 1.447446e-03  6.797261e-04  0 
VECTORS displacement_ITER3 FLOAT
 0  0  0 
 1.519979e-03  -4.301199e-04  0 
 1.013007e-03  2.851019e-04  0 
 0  0  0 
 0  0  0 
 0  0  0 
 0  0  0 
 2.548085e-04  -4.544406e-05  0 
 5.713859e-04  -2.024508e-04  0 
 9.275049e-04  -2.711090e-04  0 
 1.190631e-03  -2.817664e-04  0 
 1.420479e-03  -2.957183e-04  0 
 1.604790e-03  -5.167705e-04  0 
 1.448701e-03  -3.733187e-04  0 
 1.432857e-03  -3.079470e-04  0 
 1.364152e-03  -2.246518e-04  0 
 1.461215e-03  -3.049397e-04  0 
 1.376477e-03  -2.309625e-04  0 
 1.292220e-03  -1.797023e-04  0 
 1.209709e-03  -1.001826e-04  0 
 1.121547e-03  -1.181084e-05  0 
 1.081878e-03  6.734707e-05  0 
 1.047631e-03  9.012018e-05  0 
 1.030467e-03  1.870845e-04  0 
 3.954347e-04  2.739190e-05  0 
 1.956981e-04  -5.748709e-05  0 
 2.476400e-04  9.892901e-05  0 
 1.358645e-03  -1.887973e-04  0 
 6.504083e-04  1.619207e-04  0 
 8.037925e-05  -9.457830e-07  0 
 1.062487e-03  -1.465038e-04  0 
 6.461017e-04  -1.096149e-04  0 
 7.594230e-04  -3.965248e-05  0 
 1.162167e-04  2.918406e-06  0 
 1.527301e-03  -3.876271e-04  0 
 1.493285e-03  -3.969789e-04  0 
 1.468335e-03  -3.541347e-04  0 
 1.561273e-03  -4.319548e-04  0 
 1.512507e-03  -4.591231e-04  0 
 1.320374e-03  -5.018284e-04  0 
 7.641400e-04  -5.306034e-04  0 
 4.596736e-04  -1.726933e-04  0 
 1.062203e-03  5.980560e-05  0 
 1.056651e-03  -5.651276e-04  0 
 6.405134e-04  -6.973456e-04  0 
 1.073281e-03  -6.104085e-04  0 
 8.895707e-04  -6.659541e-04  0 
 1.317974e-03  -4.083850e-04  0 
 1.520084e-03  -3.787787e-04  0 
 4.547982e-04  -4.011505e-04  0 
 1.300172e-03  -2.366175e-04  0 
 1.203377e-03  -4.874687e-04  0 
 1.358515e-03  -4.959307e-04  0 
 1.502658e-03  -4.185573e-04  0 
 9.015848e-04  1.528739e-04  0 
 1.210478e-03  -2.885644e-04  0 
 1.427313e-03  -4.389898e-04  0 
 8.644056e-04  -5.218548e-04  0 
 8.229657e-04  -3.562186e-04  0 
 1.347084e-03  -4.248418e-04  0 
 1.085751e-03  1.453959e-04  0 
 1.454192e-03  -3.489222e-04  0 
 1.135021e-03  -1.190596e-04  0 
 1.215418e-03  -5.790138e-04  0 
 1.199971e-03  -1.409648e-04  0 
 1.053574e-03  -6.321929e-04  0 
 1.023446e-03  -4.549920e-04  0 
 1.499750e-04  -1.356296e-05  0 
 1.459359e-03  -3.355728e-04  0 
 1.546128e-03  -4.319455e-04  0 
 1.082365e-03  -3.801700e-04  0 
 1.359984e-03  -2.665796e-04  0 
 7.700374e-04  -6.775482e-04  0 
 1.519451e-03  -3.806751e-04  0 
 1.237676e-03  -5.055621e-04  0 
 1.118157e-03  1.505686e-07  0 
 1.267224e-03  -9.957616e-05  0 
 1.018886e-03  1.176401e-04  0 
 1.377203e-03  -2.364541e-04  0 
 1.078278e-03  1.092363e-04  0 
 1.167353e-03  -2.090215e-06  0 
 1.255203e-03  -8.358178e-05  0 
 1.321585e-03  -1.429375e-04  0 
 1.058306e-03  5.560597e-05  0 
 1.355348e-03  -1.765919e-04  0 
 1.160064e-03  -3.225586e-05  0 
 1.052010e-03  9.404030e-05  0 
 9.983131e-04  1.688776e-04  0 
 1.119428e-03  6.549268e-06  0 
 1.200820e-03  -7.673758e-05  0 
 1.139332e-03  6.527019e-05  0 
 1.233001e-03  -2.764870e-05  0 
 1.226351e-03  -3.494995e-05  0 
 1.000633e-03  1.144425e-04  0 
 1.067644e-03  7.064370e-05  0 
 1.127715e-03  1.992836e-05  0 
 1.031828e-03  9.518927e-05  0 
 9.842089e-04  1.168013e-04  0 
 1.033421e-03  8.383704e-05  0 
 9.400969e-04  2.147505e-04  0 
 1.427638e-03  -2.957319e-04  0 
VECTORS displacement_ITER4 FLOAT
 0  0  0 
 1.967804e-03  -1.140981e-04  0 
 1.767495e-03  -1.293465e-04  0 
 0  0  0 
 0  0  0 
 0  0  0 
 0  0  0 
 2.886113e-04  -3.381015e-05  0 
 6.531624e-04  -1.818215e-04  0 
 9.999457e-04  -2.017324e-04  0 
 1.263966e-03  -1.137504e-04  0 
 1.492346e-03  -3.048883e-05  0 
 1.897004e-03  -2.390479e-04  0 
 2.057491e-03  -5.967833e-05  0 
 2.254141e-03  3.045653e-05  0 
 2.438673e-03  1.423943e-04  0 
 1.900953e-03  -5.825197e-05  0 
 1.848783e-03  -5.365966e-05  0 
 1.800134e-03  -6.230628e-05  0 
 1.783835e-03  -9.360254e-05  0 
 1.765793e-03  -8.308372e-05  0 
 1.800345e-03  -1.048685e-04  0 
 1.794332e-03  -2.101924e-04  0 
 1.688946e-03  -1.353456e-04  0 
 4.918770e-04  1.404944e-05  0 
 2.457948e-04  -7.829448e-05  0 
 2.926035e-04  1.105043e-04  0 
 1.519507e-03  1.265772e-05  0 
 8.574850e-04  2.055050e-04  0 
 9.569505e-05  -5.361286e-06  0 
 1.249899e-03  -8.135376e-05  0 
 7.711024e-04  -1.247913e-04  0 
 9.614234e-04  -3.547752e-05  0 
 1.437480e-04  -2.639151e-06  0 
 2.510833e-03  2.638941e-04  0 
 2.277240e-03  2.578009e-05  0 
 2.519421e-03  1.337048e-04  0 
 2.284153e-03  1.515571e-04  0 
 2.089556e-03  -4.254232e-05  0 
 1.346905e-03  -2.514568e-04  0 
 7.152792e-04  -3.273661e-04  0 
 4.826154e-04  -1.699292e-04  0 
 1.676308e-03  -1.601262e-04  0 
 9.712233e-04  -2.956982e-04  0 
 6.297744e-04  -2.134520e-04  0 
 1.039541e-03  -2.108182e-04  0 
 8.199843e-04  -2.961954e-04  0 
 1.307225e-03  -1.609853e-04  0 
 1.727897e-03  -1.248716e-04  0 
 4.678310e-04  -2.315657e-04  0 
 1.644670e-03  -8.200915e-05  0 
 1.120839e-03  -2.499749e-04  0 
 1.340213e-03  -2.349712e-04  0 
 1.589811e-03  -1.333998e-04  0 
 1.500260e-03  -1.397248e-04  0 
 1.412705e-03  -1.013540e-04  0 
 1.529490e-03  -1.963104e-04  0 
 8.380998e-04  -3.124711e-04  0 
 8.414330e-04  -2.672416e-04  0 
 1.481529e-03  -1.902593e-04  0 
 1.726859e-03  -1.925707e-04  0 
 1.687552e-03  -1.217684e-04  0 
 1.501471e-03  -7.184424e-05  0 
 1.131718e-03  -3.058010e-04  0 
 1.659227e-03  -9.677097e-05  0 
 9.889340e-04  -2.953223e-04  0 
 9.796220e-04  -2.764359e-04  0 
 1.622986e-04  -1.422653e-05  0 
 1.764959e-03  -9.065707e-05  0 
 1.778292e-03  -1.636369e-04  0 
 1.073566e-03  -2.270458e-04  0 
 1.725088e-03  -8.520116e-05  0 
 7.455813e-04  -2.584717e-04  0 
 1.844651e-03  -1.099832e-04  0 
 1.259249e-03  -2.307037e-04  0 
 1.668963e-03  -6.092504e-05  0 
 2.011350e-03  4.142272e-05  0 
 1.873058e-03  -1.480359e-04  0 
 2.047975e-03  9.555933e-06  0 
 2.238230e-03  3.868261e-04  0 
 1.963770e-03  8.977452e-05  0 
 1.902486e-03  1.381880e-06  0 
 2.196450e-03  1.098176e-04  0 
 1.834096e-03  -1.285661e-04  0 
 1.919907e-03  -2.482048e-05  0 
 2.400905e-03  3.254673e-04  0 
 1.940455e-03  5.220519e-05  0 
 2.112720e-03  2.707101e-04  0 
 1.811626e-03  -7.861746e-05  0 
 1.841838e-03  -7.118136e-05  0 
 2.101548e-03  2.306141e-04  0 
 2.273259e-03  2.427384e-04  0 
 2.108002e-03  1.389572e-04  0 
 1.958965e-03  -1.127862e-04  0 
 1.865587e-03  -1.239000e-04  0 
 1.860992e-03  -3.950714e-05  0 
 1.887696e-03  -1.638151e-04  0 
 1.891101e-03  -1.807274e-04  0 
 1.868449e-03  -9.987281e-05  0 
 1.798702e-03  -1.448282e-04  0 
 1.976534e-03  -3.223602e-05  0 
VECTORS displacement_ITER5 FLOAT
 0  0  0 
 1.737283e-03  8.498823e-07  0 
 1.872294e-03  3.439142e-05  0 
 0  0  0 
 0  0  0 
 0  0  0 
 0  0  0 
 3.902062e-04  -2.564297e-05  0 
 7.520809e-04  -1.545735e-04  0 
 1.041439e-03  -1.383932e-04  0 
 1.195836e-03  -2.411944e-05  0 
 1.318174e-03  6.686486e-05  0 
 1.617692e-03  -1.172565e-04  0 
 1.862216e-03  4.612215e-05  0 
 1.991514e-03  9.278630e-05  0 
 2.107356e-03  1.298655e-04  0 
 1.688161e-03  4.192494e-06  0 
 1.672104e-03  -6.712453e-06  0 
 1.663116e-03  -3.003498e-05  0 
 1.699585e-03  -4.709105e-05  0 
 1.731767e-03  -5.429002e-05  0 
 1.806029e-03  -5.367896e-05  0 
 1.847826e-03  -7.077830e-05  0 
 1.757615e-03  2.859259e-05  0 
 6.375239e-04  -1.976060e-05  0 
 3.670706e-04  -9.507743e-05  0 
 3.840491e-04  9.359278e-05  0 
 1.380581e-03  7.116808e-05  0 
 9.913155e-04  1.309624e-04  0 
 1.623337e-04  -1.165748e-05  0 
 1.268485e-03  -6.245162e-05  0 
 8.922201e-04  -1.239494e-04  0 
 1.072060e-03  -5.825846e-05  0 
 2.047073e-04  -5.137495e-06  0 
 2.127369e-03  1.893845e-04  0 
 2.000943e-03  1.117336e-04  0 
 2.129449e-03  1.585179e-04  0 
 2.003287e-03  1.485795e-04  0 
 1.883838e-03  7.631068e-05  0 
 1.189034e-03  -5.571754e-05  0 
 7.320877e-04  -1.935803e-04  0 
 5.645708e-04  -1.449598e-04  0 
 1.727747e-03  -2.032072e-05  0 
 9.014459e-04  -1.100943e-04  0 
 5.882020e-04  -1.202723e-04  0 
 9.197075e-04  -1.249782e-05  0 
 7.838011e-04  -9.563254e-05  0 
 1.178265e-03  -2.453943e-05  0 
 1.494670e-03  1.237288e-06  0 
 4.970566e-04  -1.578597e-04  0 
 1.510921e-03  1.794685e-05  0 
 1.030504e-03  -8.376962e-05  0 
 1.160289e-03  -3.940857e-05  0 
 1.333058e-03  2.565930e-05  0 
 1.513887e-03  7.140516e-05  0 
 1.286526e-03  3.932888e-05  0 
 1.316697e-03  -3.814504e-05  0 
 8.375794e-04  -1.618960e-04  0 
 8.783314e-04  -1.844781e-04  0 
 1.307943e-03  -3.069611e-05  0 
 1.809187e-03  -7.210151e-06  0 
 1.490319e-03  -5.620683e-06  0 
 1.427643e-03  5.686676e-05  0 
 1.005837e-03  -7.076938e-05  0 
 1.574512e-03  -1.021608e-05  0 
 8.880851e-04  -7.232609e-05  0 
 9.380472e-04  -1.395685e-04  0 
 2.121601e-04  -1.449198e-05  0 
 1.533815e-03  -3.083468e-06  0 
 1.511738e-03  -4.729073e-05  0 
 1.035284e-03  -1.058268e-04  0 
 1.542437e-03  -1.226470e-05  0 
 7.029996e-04  -1.122325e-04  0 
 1.589228e-03  -1.579910e-05  0 
 1.137263e-03  -3.089155e-05  0 
 1.649390e-03  1.589586e-05  0 
 1.876999e-03  2.184077e-05  0 
 1.886937e-03  -1.085223e-04  0 
 1.864064e-03  4.939922e-05  0 
 2.124374e-03  1.091717e-04  0 
 1.907179e-03  -4.328148e-06  0 
 1.772052e-03  -2.680207e-05  0 
 1.982818e-03  8.151250e-05  0 
 1.824244e-03  -1.274475e-04  0 
 1.740686e-03  -5.769858e-06  0 
 2.176202e-03  1.393510e-04  0 
 1.954590e-03  -7.094185e-05  0 
 2.080529e-03  2.505756e-05  0 
 1.767780e-03  -8.629982e-05  0 
 1.741780e-03  -7.695824e-05  0 
 2.019934e-03  4.562485e-05  0 
 2.073544e-03  9.949150e-05  0 
 1.974938e-03  4.718228e-05  0 
 1.990266e-03  -2.058928e-04  0 
 1.873854e-03  -1.571074e-04  0 
 1.822797e-03  -1.076101e-04  0 
 1.906161e-03  -1.682121e-04  0 
 1.931269e-03  -2.107718e-04  0 
 1.887459e-03  -1.814173e-04  0 
 1.877029e-03  -5.147792e-05  0 
 1.776406e-03  2.677068e-05  0 
VECTORS displacement_ITER6 FLOAT
 0  0  0 
 1.843327e-03  -5.848201e-05  0 
 1.726806e-03  -2.824774e-04  0 
 0  0  0 
 0  0  0 
 0  0  0 
 0  0  0 
 3.297670e-04  -1.189825e-05  0 
 6.393229e-04  -6.428747e-05  0 
 8.996690e-04  -2.896218e-05  0 
 1.109860e-03  3.418757e-05  0 
 1.290795e-03  4.368586e-05  0 
 1.703347e-03  -1.210656e-04  0 
 1.953375e-03  -4.009564e-05  0 
 2.041105e-03  -1.461432e-05  0 
 2.107192e-03  1.043897e-05  0 
 1.819257e-03  -5.796074e-05  0 
 1.795239e-03  -5.363127e-05  0 
 1.778819e-03  -5.350943e-05  0 
 1.783485e-03  -4.048319e-05  0 
 1.775138e-03  -2.135973e-05  0 
 1.778898e-03  -3.018942e-05  0 
 1.747319e-03  -2.098914e-04  0 
 1.492795e-03  -2.901519e-04  0 
 6.216112e-04  -1.400946e-05  0 
 3.617891e-04  -5.292758e-05  0 
 4.015069e-04  5.963986e-05  0 
 1.267783e-03  7.237473e-05  0 
 9.092240e-04  7.027935e-05  0 
 1.935210e-04  -1.334620e-05  0 
 1.098216e-03  1.769523e-05  0 
 7.901246e-04  -4.200421e-05  0 
 9.495300e-04  -1.669887e-05  0 
 1.814181e-04  -7.940331e-06  0 
 2.131205e-03  7.798732e-05  0 
 2.047618e-03  9.563216e-06  0 
 2.133783e-03  3.539484e-05  0 
 2.030292e-03  6.571961e-05  0 
 1.954876e-03  5.470028e-06  0 
 1.322960e-03  -4.990393e-05  0 
 5.418190e-04  -1.207277e-05  0 
 4.148630e-04  -6.581333e-05  0 
 1.576463e-03  -1.447046e-04  0 
 8.660628e-04  -7.104263e-06  0 
 3.669073e-04  2.479808e-05  0 
 1.018974e-03  1.292945e-05  0 
 7.242612e-04  3.104645e-05  0 
 1.184226e-03  1.563447e-05  0 
 1.580273e-03  -5.148562e-05  0 
 3.208512e-04  -6.913782e-06  0 
 1.617945e-03  -2.717759e-05  0 
 1.032877e-03  -1.034803e-05  0 
 1.253690e-03  -2.152341e-05  0 
 1.411823e-03  -1.138943e-05  0 
 1.290591e-03  -2.156450e-04  0 
 1.442674e-03  -1.866417e-05  0 
 1.437587e-03  -5.343544e-05  0 
 7.266116e-04  -1.595075e-05  0 
 7.288020e-04  -5.474165e-05  0 
 1.455969e-03  -5.360898e-05  0 
 1.595059e-03  -2.472616e-04  0 
 1.594966e-03  -5.198175e-05  0 
 1.511323e-03  -2.641904e-05  0 
 1.083005e-03  -2.990627e-05  0 
 1.639951e-03  -3.073916e-05  0 
 9.010693e-04  9.562511e-06  0 
 8.563067e-04  -2.754484e-05  0 
 1.745126e-04  -1.080038e-05  0 
 1.666855e-03  -6.415813e-05  0 
 1.602487e-03  -7.558618e-05  0 
 9.585587e-04  -9.413819e-06  0 
 1.670373e-03  -5.219988e-05  0 
 5.278942e-04  2.305470e-05  0 
 1.712887e-03  -6.066689e-05  0 
 1.284751e-03  -5.373919e-05  0 
 1.635190e-03  -1.917372e-05  0 
 1.969364e-03  -4.179138e-05  0 
 1.943393e-03  -8.871472e-05  0 
 1.956795e-03  -4.170677e-05  0 
 2.111200e-03  -2.889226e-05  0 
 1.995236e-03  -5.026425e-05  0 
 1.900378e-03  -5.021579e-05  0 
 2.028690e-03  -2.748276e-05  0 
 1.884091e-03  -4.425695e-05  0 
 1.871157e-03  -4.889158e-05  0 
 2.148205e-03  7.570837e-06  0 
 2.027998e-03  -6.039084e-05  0 
 2.085241e-03  -4.501225e-05  0 
 1.863104e-03  -4.054826e-05  0 
 1.857391e-03  -6.250726e-05  0 
 2.060242e-03  -4.509713e-05  0 
 2.079433e-03  -2.244926e-05  0 
 2.027087e-03  -3.751418e-05  0 
 2.100542e-03  -1.384368e-04  0 
 1.958756e-03  -6.942635e-05  0 
 1.938968e-03  -6.823657e-05  0 
 1.999235e-03  -9.402639e-05  0 
 2.049466e-03  -1.414433e-04  0 
 1.985378e-03  -9.627145e-05  0 
 1.880341e-03  -2.283561e-04  0 
 1.890570e-03  -5.272048e-05  0 
VECTORS displacement_ITER7 FLOAT
 0  0  0 
 1.852898e-03  -4.877914e-05  0 
 1.708219e-03  -5.822573e-05  0 
 0  0  0 
 0  0  0 
 0  0  0 
 0  0  0 
 3.123729e-04  -1.072945e-05  0 
 6.263904e-04  -4.273465e-05  0 
 9.076161e-04  -1.107324e-05  0 
 1.152319e-03  3.521747e-05  0 
 1.369261e-03  3.396329e-05  0 
 1.733144e-03  -7.659155e-05  0 
 1.943944e-03  -4.332458e-05  0 
 2.007820e-03  -3.471965e-05  0 
 2.035600e-03  -1.746442e-05  0 
 1.838863e-03  -3.900128e-05  0 
 1.821169e-03  -3.253152e-05  0 
 1.806060e-03  -2.535124e-05  0 
 1.804290e-03  -1.790953e-05  0 
 1.793542e-03  -6.450811e-06  0 
 1.785410e-03  1.978912e-05  0 
 1.748643e-03  -6.388481e-05  0 
 1.591560e-03  -6.310867e-05  0 
 6.208992e-04  -7.298041e-06  0 
 3.615457e-04  -3.698800e-05  0 
 4.124117e-04  4.945750e-05  0 
 1.328034e-03  6.166085e-05  0 
 8.950295e-04  5.867958e-05  0 
 2.063141e-04  -1.274071e-05  0 
 1.104317e-03  2.743044e-05  0 
 7.797716e-04  -2.116115e-05  0 
 9.362903e-04  -5.676268e-06  0 
 1.735975e-04  -8.643649e-06  0 
 2.059630e-03  -1.160202e-05  0 
 2.008944e-03  -2.901640e-05  0 
 2.063859e-03  -2.540754e-05  0 
 1.990267e-03  -2.998499e-06  0 
 1.939849e-03  -2.255986e-05  0 
 1.379711e-03  -1.605793e-05  0 
 5.157343e-04  1.604520e-05  0 
 3.752490e-04  -4.204636e-05  0 
 1.648912e-03  -4.539895e-05  0 
 9.068587e-04  9.407374e-06  0 
 3.171302e-04  2.326013e-05  0 
 1.046670e-03  2.004867e-05  0 
 7.373781e-04  3.314773e-05  0 
 1.251727e-03  2.356285e-05  0 
 1.632247e-03  -2.246905e-05  0 
 2.707892e-04  2.105769e-05  0 
 1.678194e-03  -6.932203e-06  0 
 1.092311e-03  6.055065e-06  0 
 1.310685e-03  6.811579e-06  0 
 1.481563e-03  1.276928e-05  0 
 1.479122e-03  -7.328919e-05  0 
 1.518445e-03  -2.502218e-07  0 
 1.503748e-03  -2.028138e-05  0 
 7.316632e-04  9.806942e-06  0 
 7.273312e-04  -2.633692e-05  0 
 1.526277e-03  -2.190740e-05  0 
 1.648721e-03  -8.238479e-05  0 
 1.650453e-03  -2.543662e-05  0 
 1.581346e-03  4.030119e-06  0 
 1.134149e-03  2.126808e-06  0 
 1.694724e-03  -1.031441e-05  0 
 9.313255e-04  2.599647e-05  0 
 8.866808e-04  -3.588190e-06  0 
 1.653416e-04  -9.212291e-06  0 
 1.721147e-03  -3.745986e-05  0 
 1.654542e-03  -4.068249e-05  0 
 9.957222e-04  8.419515e-06  0 
 1.725201e-03  -2.817913e-05  0 
 5.039012e-04  2.385457e-05  0 
 1.754613e-03  -3.840760e-05  0 
 1.338275e-03  -2.329202e-05  0 
 1.698137e-03  7.512672e-06  0 
 1.950602e-03  -2.101770e-05  0 
 1.868426e-03  1.016000e-05  0 
 1.951755e-03  -3.610083e-05  0 
 2.024841e-03  -1.320781e-05  0 
 1.961303e-03  -1.406144e-05  0 
 1.895451e-03  -1.837414e-05  0 
 1.988557e-03  -2.427813e-05  0 
 1.846812e-03  -2.536397e-06  0 
 1.883766e-03  -3.095792e-05  0 
 2.054319e-03  -5.509591e-06  0 
 1.977347e-03  -1.886644e-05  0 
 2.010340e-03  -2.512373e-05  0 
 1.854413e-03  -1.597374e-05  0 
 1.858215e-03  -3.039345e-05  0 
 1.992764e-03  -1.886351e-05  0 
 2.010321e-03  -1.730326e-05  0 
 1.980980e-03  -2.020981e-05  0 
 2.023835e-03  -4.881771e-05  0 
 1.902091e-03  -1.448832e-05  0 
 1.913578e-03  -2.948500e-05  0 
 1.913370e-03  -1.933324e-05  0 
 1.968139e-03  -4.583814e-05  0 
 1.936615e-03  -2.693188e-05  0 
 1.801333e-03  -2.768815e-05  0 
 1.896016e-03  -4.120259e-05  0 
VECTORS displacement_ITER8 FLOAT
 0  0  0 
 1.802817e-03  -2.611497e-05  0 
 1.691133e-03  -1.405823e-05  0 
 0  0  0 
 0  0  0 
 0  0  0 
 0  0  0 
 3.038591e-04  -2.079005e-05  0 
 6.054309e-04  -5.280237e-05  0 
 8.839236e-04  -5.328774e-05  0 
 1.140367e-03  -5.241280e-05  0 
 1.371810e-03  -7.728969e-05  0 
 1.674615e-03  -5.354999e-05  0 
 1.915435e-03  -2.072317e-05  0 
 1.983074e-03  -1.414712e-05  0 
 2.011242e-03  1.982584e-06  0 
 1.786498e-03  -3.633785e-05  0 
 1.768532e-03  -3.575463e-05  0 
 1.750331e-03  -2.793833e-05  0 
 1.736558e-03  -2.729906e-05  0 
 1.722539e-03  -3.536327e-05  0 
 1.713396e-03  -2.512778e-05  0 
 1.699704e-03  -3.290981e-05  0 
 1.599481e-03  1.963178e-05  0 
 5.647057e-04  -2.098246e-05  0 
 3.501396e-04  -3.022908e-05  0 
 3.774210e-04  1.874036e-05  0 
 1.306255e-03  -4.917616e-05  0 
 7.938362e-04  1.311828e-05  0 
 2.060553e-04  -1.275291e-05  0 
 1.035385e-03  -3.168222e-05  0 
 7.250930e-04  -3.809014e-05  0 
 8.488273e-04  -3.511426e-05  0 
 1.649546e-04  -8.709861e-06  0 
 2.035399e-03  4.469285e-06  0 
 1.982626e-03  -5.976275e-06  0 
 2.038694e-03  -3.006530e-06  0 
 1.961768e-03  1.485146e-05  0 
 1.908018e-03  2.136426e-06  0 
 1.325715e-03  -2.740805e-05  0 
 5.348190e-04  -6.533909e-06  0 
 3.631130e-04  -2.779149e-05  0 
 1.615805e-03  -3.139623e-05  0 
 9.564717e-04  -4.727110e-05  0 
 3.030769e-04  -5.405187e-05  0 
 1.048169e-03  -1.789820e-05  0 
 7.900641e-04  -2.728356e-05  0 
 1.262722e-03  -5.495079e-05  0 
 1.550010e-03  -3.964898e-05  0 
 2.475543e-04  4.787500e-06  0 
 1.603832e-03  -2.510902e-05  0 
 1.124583e-03  -5.688917e-05  0 
 1.286129e-03  -3.543304e-05  0 
 1.439443e-03  -3.686776e-05  0 
 1.530166e-03  -1.234545e-05  0 
 1.446576e-03  -2.724542e-05  0 
 1.435683e-03  -3.669003e-05  0 
 7.619260e-04  -2.690334e-05  0 
 7.341415e-04  -4.064789e-05  0 
 1.448367e-03  -2.199905e-05  0 
 1.622471e-03  -2.463656e-05  0 
 1.560373e-03  -3.290762e-05  0 
 1.497882e-03  -2.399750e-05  0 
 1.140991e-03  -2.680824e-05  0 
 1.613277e-03  -3.017725e-05  0 
 9.619437e-04  -1.787732e-05  0 
 9.201875e-04  -4.574134e-05  0 
 1.655899e-04  -8.283340e-06  0 
 1.662993e-03  -3.775398e-05  0 
 1.597492e-03  -3.772838e-05  0 
 1.010407e-03  -4.488257e-05  0 
 1.667491e-03  -3.458382e-05  0 
 5.219698e-04  -4.360413e-05  0 
 1.698222e-03  -3.236114e-05  0 
 1.282119e-03  -2.510430e-05  0 
 1.620600e-03  -2.800082e-05  0 
 1.925113e-03  -1.335946e-05  0 
 1.784240e-03  -2.497132e-05  0 