# vtk DataFile Version 3.1
this is an vtk file created by FEMAC
ASCII
DATASET UNSTRUCTURED_GRID
POINTS 99 FLOAT
1.000000 2.000000 0.000000
1.000000 3.000000 0.000000
2.000000 3.000000 0.000000
0.750000 2.000000 0.000000
0.875000 2.000000 0.000000
1.000000 1.750000 0.000000
1.000000 1.875000 0.000000
1.000000 2.125000 0.000000
1.000000 2.250000 0.000000
1.000000 2.375000 0.000000
1.000000 2.500000 0.000000
1.000000 2.625000 0.000000
1.000000 2.750000 0.000000
1.000000 2.875000 0.000000
1.125000 2.000000 0.000000
1.250000 2.000000 0.000000
1.375000 2.000000 0.000000
1.500000 2.000000 0.000000
1.625000 2.000000 0.000000
1.750000 2.000000 0.000000
1.125000 3.000000 0.000000
1.250000 3.000000 0.000000
1.375000 3.000000 0.000000
1.500000 3.000000 0.000000
1.625000 3.000000 0.000000
1.750000 3.000000 0.000000
1.875000 3.000000 0.000000
0.795291 1.805578 0.000000
0.698464 1.873829 0.000000
0.898777 1.814143 0.000000
0.825839 1.905175 0.000000
0.919923 1.918863 0.000000
0.910332 2.182579 0.000000
0.863568 2.574079 0.000000
0.810446 2.095085 0.000000
0.918710 2.077093 0.000000
0.884881 2.441821 0.000000
0.898395 2.307346 0.000000
1.676531 1.802576 0.000000
1.125242 1.794066 0.000000
1.600086 1.887359 0.000000
1.735153 1.905073 0.000000
1.248001 1.700605 0.000000
1.357154 1.895101 0.000000
1.393240 1.776608 0.000000
1.460684 1.888347 0.000000
1.539956 1.786205 0.000000
1.249595 1.847587 0.000000
1.123933 1.919143 0.000000
1.463342 2.486362 0.000000
1.782358 2.735732 0.000000
1.234020 2.225948 0.000000
1.108754 2.800248 0.000000
1.113195 2.148760 0.000000
1.243066 2.483802 0.000000
1.578361 2.215028 0.000000
1.552630 2.766251 0.000000
1.586577 2.535048 0.000000
1.323537 2.276188 0.000000
1.339883 2.142845 0.000000
1.376646 2.659998 0.000000
1.127576 2.288511 0.000000
1.582850 2.885950 0.000000
1.356792 2.788234 0.000000
1.651565 2.124762 0.000000
1.243268 2.089363 0.000000
1.797286 2.871424 0.000000
1.117714 2.485691 0.000000
1.533779 2.109455 0.000000
1.357427 2.471425 0.000000
1.478693 2.592919 0.000000
1.666926 2.218205 0.000000
1.662751 2.786807 0.000000
1.076906 2.575090 0.000000
1.448372 2.871298 0.000000
1.424009 2.362563 0.000000
1.680960 2.655875 0.000000
1.290033 2.385523 0.000000
1.434920 2.089471 0.000000
1.463526 2.726871 0.000000
1.232609 2.317270 0.000000
1.168500 2.389299 0.000000
1.400562 2.546530 0.000000
1.226128 2.855097 0.000000
1.108126 2.669802 0.000000
1.243949 2.702266 0.000000
1.182074 2.580879 0.000000
1.568025 2.682526 0.000000
1.799802 2.144311 0.000000
1.302684 2.568622 0.000000
1.628805 2.296882 0.000000
1.684455 2.910027 0.000000
1.449390 2.214528 0.000000
1.334771 2.902335 0.000000
1.564333 2.400408 0.000000
1.528980 2.297882 0.000000
1.926871 2.871055 0.000000
1.059549 2.068440 0.000000
1.118314 2.921724 0.000000
CELLS 157 628 
3 30 27 29
3 4 31  0
3 6 31 29
3 31  6  0
3 30 31  4
3 30 29 31
3 3 30  4
3 30  3 28
3 27 30 28
3 5  6 29
3 8 32  7
3 34  3  4
3 35  4  0
3 35  7 32
3 7 35  0
3 35 34  4
3 32 34 35
3 11 33 10
3 10 36  9
3 36 10 33
3 37  8  9
3 8 37 32
3 17 40 18
3 18 41 19
3 41 18 40
3 38 41 40
3 43 16 15
3 5 39  6
3 17 45 40
3 40 46 38
3 40 45 46
3 17 16 45
3 16 43 45
3 43 44 45
3 45 44 46
3 47 44 43
3 44 47 42
3 47 43 15
3 14 48 15
3 48 47 15
3 48 39 47
3 6 48  0
3 39 48  6
3 48 14  0
3 39 42 47
3 7 53  8
3 51 61 53
3 64 18 19
3 65 51 53
3 59 58 51
3 14 65 53
3 8 53 61
3 23 62 24
3 8 61  9
3 15 65 14
3 16 65 15
3 51 65 59
3 65 16 59
3 66 26 25
3 55 68 64
3 57 70 49
3 64 71 55
3 72 50 66
3 10 73 11
3 73 10 67
3 75 49 69
3 54 77 69
3 17 78 16
3 78 59 16
3 78 17 68
3 79 60 70
3 58 80 51
3 80 61 51
3 80 58 77
3 81 54 67
3 54 81 77
3 49 82 69
3 60 82 70
3 82 49 70
3 84 12 11
3 12 84 52
3 54 86 67
3 57 87 70
3 89 54 69
3 90 55 71
3 91 25 24
3 62 91 24
3 55 92 68
3 73 84 11
3 73 67 86
3 78 92 59
3 78 68 92
3 76 87 57
3 75 77 58
3 75 69 77
3 89 82 60
3 69 82 89
3 79 87 56
3 79 70 87
3 89 86 54
3 80 81 61
3 80 77 81
3 56 74 79
3 74 63 79
3 89 60 85
3 85 86 89
3 64 88 71
3 83 52 85
3 91 62 72
3 66 91 72
3 91 66 25
3 10  9 67
3 81  9 61
3 67  9 81
3 92 58 59
3 92 75 58
3 76 50 72
3 56 72 62
3 56 87 72
3 76 72 87
3 74 62 23
3 62 74 56
3 23 22 74
3 93 22 21
3 93 83 63
3 83 93 21
3 93 74 22
3 63 74 93
3 84 85 52
3 73 86 84
3 84 86 85
3 12 52 13
3 17 18 68
3 18 64 68
3 88 64 19
3 79 63 60
3 85 60 63
3 83 85 63
3 49 75 94
3 94 57 49
3 95 92 55
3 95 94 75
3 92 95 75
3 90 95 55
3 90 94 95
3 26 96  2
3 97  7  0
3 97 14 53
3 14 97  0
3 7 97 53
3 66 96 26
3 13 98  1
3 98 20  1
3 98 21 20
3 98 52 83
3 52 98 13
3 83 21 98
CELL_TYPES 157
5 5 5 5 5 5 5 5 5 5 5 5 5 5 5 5 5 5 5 5 5 5 5 5 5 5 5 5 5 5 5 5 5 5 5 5 5 5 5 5 5 5 5 5 5 5 5 5 5 5 5 5 5 5 5 5 5 5 5 5 5 5 5 5 5 5 5 5 5 5 5 5 5 5 5 5 5 5 5 5 5 5 5 5 5 5 5 5 5 5 5 5 5 5 5 5 5 5 5 5 5 5 5 5 5 5 5 5 5 5 5 5 5 5 5 5 5 5 5 5 5 5 5 5 5 5 5 5 5 5 5 5 5 5 5 5 5 5 5 5 5 5 5 5 5 5 5 5 5 5 5 5 5 5 5 5 5 
POINT_DATA 99
VECTORS displacement_ITER1 FLOAT
 -5.046240e-03  4.422265e-03  0 
 0  0  0 
 0  0  0 
 -5.326038e-03  7.672554e-03  0 
 -5.220475e-03  6.198244e-03  0 
 -7.952186e-03  4.205671e-03  0 
 -6.442755e-03  4.395866e-03  0 
 -3.702072e-03  4.113826e-03  0 
 -2.258430e-03  3.734756e-03  0 
 -1.339877e-03  3.436144e-03  0 
 -9.095444e-04  2.693731e-03  0 
 -5.036377e-04  1.849901e-03  0 
 -1.327566e-04  1.012657e-03  0 
 -1.418120e-04  3.494747e-04  0 
 -5.048186e-03  2.645679e-03  0 
 -5.085430e-03  9.506061e-04  0 
 -5.164025e-03  -8.885882e-04  0 
 -5.522173e-03  -2.678558e-03  0 
 -5.849996e-03  -4.670659e-03  0 
 -6.392350e-03  -6.261284e-03  0 
 0  0  0 
 0  0  0 
 0  0  0 
 0  0  0 
 0  0  0 
 0  0  0 
 0  0  0 
 -6.901512e-03  7.035960e-03  0 
 -6.170467e-03  8.024701e-03  0 
 -7.013451e-03  5.945137e-03  0 
 -6.079112e-03  6.872597e-03  0 
 -5.931094e-03  5.669305e-03  0 
 -3.291153e-03  5.318280e-03  0 
 -1.528153e-03  3.045573e-03  0 
 -4.447429e-03  6.879041e-03  0 
 -4.405871e-03  5.451930e-03  0 
 -1.731821e-03  3.704150e-03  0 
 -2.054731e-03  4.985762e-03  0 
 -8.594955e-03  -5.902383e-03  0 
 -7.618044e-03  2.509768e-03  0 
 -7.257243e-03  -4.578823e-03  0 
 -7.350760e-03  -6.490977e-03  0 
 -9.135463e-03  5.897924e-04  0 
 -6.570167e-03  -7.080300e-04  0 
 -8.314107e-03  -1.443116e-03  0 
 -6.787028e-03  -2.436165e-03  0 
 -8.433998e-03  -4.000176e-03  0 
 -7.066276e-03  8.019938e-04  0 
 -5.999378e-03  2.654874e-03  0 
 1.716235e-05  -8.224676e-04  0 
 -2.881437e-04  -5.852076e-04  0 
 -2.248617e-03  1.254391e-03  0 
 3.677631e-04  4.314906e-04  0 
 -3.114370e-03  2.735767e-03  0 
 7.815256e-05  8.353637e-04  0 
 -3.215780e-03  -3.002798e-03  0 
 6.414129e-04  -2.780806e-04  0 
 -3.068011e-04  -1.238688e-03  0 
 -1.732458e-03  1.240910e-04  0 
 -3.284992e-03  -2.012221e-04  0 
 7.518125e-04  -1.581559e-05  0 
 -1.716591e-03  2.417007e-03  0 
 3.549879e-04  -6.695136e-05  0 
 8.553222e-04  2.506252e-05  0 
 -4.547960e-03  -4.446566e-03  0 
 -3.853472e-03  1.081930e-03  0 
 1.787371e-04  -3.800502e-05  0 
 -2.868845e-04  2.010946e-03  0 
 -4.156119e-03  -2.923247e-03  0 
 8.882375e-05  -1.083007e-04  0 
 4.167919e-04  -4.694467e-04  0 
 -3.533155e-03  -4.329447e-03  0 
 4.021760e-04  -1.727789e-04  0 
 -1.631239e-04  1.734704e-03  0 
 5.691832e-04  -4.137872e-05  0 
 -1.010413e-03  -8.158212e-04  0 
 -1.026282e-04  -8.053640e-04  0 
 -7.048928e-04  5.203535e-04  0 
 -4.156307e-03  -1.465261e-03  0 
 8.158931e-04  -2.306772e-04  0 
 -1.349856e-03  1.217765e-03  0 
 -8.473983e-04  1.797971e-03  0 
 4.838338e-04  -3.032009e-04  0 
 5.681723e-04  1.357202e-04  0 
 2.681099e-04  9.696021e-04  0 
 7.757252e-04  4.174992e-04  0 
 4.651902e-04  1.073241e-03  0 
 5.157365e-04  -5.139303e-04  0 
 -4.832792e-03  -6.460311e-03  0 
 6.506071e-04  2.536709e-04  0 
 -2.388218e-03  -3.402286e-03  0 
 2.047296e-04  -4.188338e-05  0 
 -2.594496e-03  -1.357302e-03  0 
 4.454227e-04  4.740282e-06  0 
 -1.065145e-03  -1.911811e-03  0 
 -1.907582e-03  -1.923011e-03  0 
 1.582357e-04  -1.009528e-06  0 
 -4.181438e-03  3.577547e-03  0 
 1.838293e-04  2.039396e-05  0 
VECTORS displacement_ITER2 FLOAT
 6.064449e-03  -1.878873e-04  0 
 0  0  0 
 0  0  0 
 6.319491e-03  -8.232652e-04  0 
 6.153538e-03  -2.626707e-04  0 
 7.643793e-03  -9.083387e-04  0 
 6.794277e-03  -4.058161e-04  0 
 5.468973e-03  -1.755801e-04  0 
 4.836815e-03  -1.963899e-04  0 
 4.039594e-03  -9.604009e-05  0 
 3.193019e-03  -1.275079e-04  0 
 2.341039e-03  -1.672639e-04  0 
 1.584669e-03  -2.370273e-04  0 
 7.322223e-04  -1.560281e-04  0 
 5.970494e-03  -2.852058e-04  0 
 5.855615e-03  -3.575985e-04  0 
 5.710403e-03  -4.984666e-04  0 
 5.425563e-03  -6.173104e-04  0 
 5.183628e-03  -7.533587e-04  0 
 4.959552e-03  -4.921053e-04  0 
 0  0  0 
 0  0  0 
 0  0  0 
 0  0  0 
 0  0  0 
 0  0  0 
 0  0  0 
 8.226121e-03  -1.237370e-03  0 
 7.880383e-03  -1.733588e-03  0 
 7.613445e-03  -6.135036e-04  0 
 7.027676e-03  -5.993638e-04  0 
 6.690584e-03  -2.980038e-04  0 
 5.163998e-03  -2.455710e-04  0 
 2.662604e-03  -5.420188e-04  0 
 5.582567e-03  -4.233803e-04  0 
 5.704857e-03  -1.965025e-04  0 
 3.587630e-03  -4.607609e-04  0 
 4.566566e-03  -2.787556e-04  0 
 5.716423e-03  -9.320772e-04  0 
 6.819038e-03  -6.261442e-04  0 
 5.564529e-03  -9.454569e-04  0 
 5.329542e-03  -6.935318e-04  0 
 6.764252e-03  -9.571704e-04  0 
 6.018899e-03  -6.005308e-04  0 
 6.146013e-03  -8.608501e-04  0 
 5.878908e-03  -8.350516e-04  0 
 5.909663e-03  -1.137551e-03  0 
 6.319556e-03  -5.760206e-04  0 
 6.307708e-03  -3.428865e-04  0 
 3.197613e-03  6.202881e-05  0 
 1.685300e-03  1.322575e-04  0 
 4.792251e-03  -1.170926e-04  0 
 1.172743e-03  -5.692140e-05  0 
 5.354044e-03  -2.071996e-04  0 
 3.304786e-03  -7.957632e-05  0 
 4.303184e-03  -2.110522e-04  0 
 1.349073e-03  5.490923e-05  0 
 2.890099e-03  1.968003e-04  0 
 4.453377e-03  -1.134649e-04  0 
 5.115298e-03  -2.444891e-04  0 
 2.030232e-03  4.120310e-05  0 
 4.488341e-03  -1.044111e-04  0 
 6.594814e-04  1.834105e-05  0 
 1.189885e-03  6.934739e-05  0 
 4.550841e-03  -4.720873e-04  0 
 5.520286e-03  -2.680143e-04  0 
 7.487431e-04  2.087558e-05  0 
 3.304123e-03  -3.996184e-05  0 
 4.911513e-03  -4.459481e-04  0 
 3.327697e-03  -9.827980e-06  0 
 2.444637e-03  4.712279e-05  0 
 4.133134e-03  -3.412805e-04  0 
 1.249073e-03  3.427869e-05  0 
 2.690646e-03  -8.447107e-05  0 
 7.302807e-04  2.403652e-05  0 
 3.937519e-03  -1.637692e-05  0 
 2.101141e-03  1.714260e-04  0 
 3.879736e-03  -8.722796e-05  0 
 5.187398e-03  -3.579085e-04  0 
 1.565806e-03  5.941317e-05  0 
 4.262586e-03  -7.746028e-05  0 
 3.874286e-03  -5.900310e-05  0 
 2.775290e-03  2.498865e-05  0 
 7.480941e-04  7.690438e-05  0 
 2.105359e-03  -1.074636e-04  0 
 1.806693e-03  5.724766e-05  0 
 2.673604e-03  -6.115826e-05  0 
 1.843996e-03  8.372329e-05  0 
 4.279492e-03  -2.561109e-04  0 
 2.665316e-03  7.889293e-06  0 
 3.942746e-03  -1.427388e-04  0 
 5.207812e-04  1.418509e-05  0 
 4.624811e-03  -1.520619e-04  0 
 5.355102e-04  1.911571e-05  0 
 3.654284e-03  1.437920e-04  0 
 4.124238e-03  1.828202e-05  0 
 7.342856e-04  -2.581368e-07  0 
 5.722475e-03  -1.899974e-04  0 
 3.385489e-04  6.427209e-06  0 
VECTORS displacement_ITER3 FLOAT
 3.933387e-03  9.023590e-04  0 
 0  0  0 
 0  0  0 
 4.087496e-03  6.604346e-04  0 
 3.965444e-03  1.073132e-03  0 
 4.710330e-03  5.761054e-04  0 
 4.212749e-03  8.801923e-04  0 
 3.787554e-03  7.916407e-04  0 
 3.558506e-03  6.764908e-04  0 
 3.073030e-03  6.999157e-04  0 
 2.561885e-03  5.892044e-04  0 
 2.027585e-03  4.949469e-04  0 
 1.370215e-03  2.290087e-04  0 
 5.636959e-04  5.230295e-05  0 
 3.944505e-03  6.116381e-04  0 
 3.944657e-03  3.718027e-04  0 
 3.925329e-03  2.910259e-05  0 
 3.780511e-03  -2.399877e-04  0 
 3.702688e-03  -5.149387e-04  0 
 3.620609e-03  -4.550474e-04  0 
 0  0  0 
 0  0  0 
 0  0  0 
 0  0  0 
 0  0  0 
 0  0  0 
 0  0  0 
 5.263445e-03  2.885480e-04  0 
 5.055906e-03  -2.400313e-04  0 
 4.723037e-03  8.344696e-04  0 
 4.357691e-03  8.538826e-04  0 
 4.146497e-03  1.004048e-03  0 
 3.621229e-03  9.235819e-04  0 
 2.187205e-03  8.190296e-04  0 
 3.683835e-03  9.589939e-04  0 
 3.792966e-03  1.020543e-03  0 
 2.741287e-03  8.517170e-04  0 
 3.403784e-03  8.568576e-04  0 
 3.952288e-03  -4.908603e-04  0 
 4.203706e-03  5.696349e-04  0 
 3.829459e-03  -5.092345e-04  0 
 3.804692e-03  -5.078440e-04  0 
 4.182474e-03  2.515408e-04  0 
 3.988900e-03  7.840579e-05  0 
 3.980715e-03  -5.899314e-05  0 
 3.962270e-03  -2.641350e-04  0 
 3.962070e-03  -4.912282e-04  0 
 4.056117e-03  3.464208e-04  0 
 4.061627e-03  6.375340e-04  0 
 2.844117e-03  1.661160e-04  0 
 1.744924e-03  5.605028e-06  0 
 3.518205e-03  4.970013e-04  0 
 1.169659e-03  1.801457e-04  0 
 3.817831e-03  6.132901e-04  0 
 2.813211e-03  3.890048e-04  0 
 3.154803e-03  -1.859438e-04  0 
 1.583971e-03  2.408441e-06  0 
 2.749799e-03  2.429878e-05  0 
 3.361657e-03  3.323697e-04  0 
 3.618883e-03  2.256321e-04  0 
 2.140631e-03  1.565287e-04  0 
 3.372283e-03  6.383749e-04  0 
 8.058325e-04  4.216145e-06  0 
 1.448873e-03  9.756126e-05  0 
 3.288062e-03  -4.265100e-04  0 
 3.847617e-03  3.768213e-04  0 
 8.454788e-04  8.383265e-06  0 
 2.708170e-03  5.490890e-04  0 
 3.493540e-03  -2.542366e-04  0 
 2.880959e-03  3.060440e-04  0 
 2.466153e-03  6.723762e-05  0 
 3.061273e-03  -3.960181e-04  0 
 1.431572e-03  -1.651179e-05  0 
 2.287547e-03  4.785376e-04  0 
 9.274033e-04  2.397148e-05  0 
 3.124333e-03  2.145763e-04  0 
 2.208176e-03  1.272485e-06  0 
 3.112785e-03  3.864816e-04  0 
 3.636966e-03  -2.479171e-06  0 
 1.830539e-03  4.057119e-05  0 
 3.278204e-03  5.029564e-04  0 
 3.062461e-03  5.654600e-04  0 
 2.595407e-03  2.149892e-04  0 
 9.337504e-04  1.311400e-04  0 
 1.968081e-03  3.281456e-04  0 
 1.875794e-03  2.772319e-04  0 
 2.374381e-03  3.661270e-04  0 
 2.058247e-03  -1.540459e-05  0 
 3.162937e-03  -4.251779e-04  0 
 2.463678e-03  3.175850e-04  0 
 3.009668e-03  -2.394440e-04  0 
 6.150927e-04  1.302650e-06  0 
 3.378051e-03  7.052452e-05  0 
 6.876609e-04  2.911884e-05  0 
 3.007565e-03  5.508012e-05  0 
 3.137669e-03  4.913848e-05  0 
 8.228041e-04  -2.221548e-06  0 
 3.890188e-03  7.456990e-04  0 
 3.969874e-04  1.902132e-05  0 
VECTORS displacement_ITER4 FLOAT
 3.378906e-03  2.840495e-04  0 
 0  0  0 
 0  0  0 
 3.613536e-03  -2.211338e-04  0 
 3.487278e-03  2.108992e-04  0 
 4.321357e-03  -2.600162e-05  0 
 3.795417e-03  2.109707e-04  0 
 2.987845e-03  3.033918e-04  0 
 2.527860e-03  2.963360e-04  0 
 1.936546e-03  3.526770e-04  0 
 1.472087e-03  3.406048e-04  0 
 1.080341e-03  3.559332e-04  0 
 6.439732e-04  2.245228e-04  0 
 1.761091e-04  9.858481e-05  0 
 3.333126e-03  3.354829e-04  0 
 3.283304e-03  3.558169e-04  0 
 3.221851e-03  3.548799e-04  0 
 3.138941e-03  4.153231e-04  0 
 3.102242e-03  4.811489e-04  0 
 3.112453e-03  5.821942e-04  0 
 0  0  0 
 0  0  0 
 0  0  0 
 0  0  0 
 0  0  0 
 0  0  0 
 0  0  0 
 4.594445e-03  -3.477424e-04  0 
 4.357078e-03  -7.556399e-04  0 
 4.265397e-03  5.343664e-06  0 
 3.921551e-03  -2.051088e-05  0 
 3.715245e-03  1.821859e-04  0 
 2.791889e-03  2.773193e-04  0 
 1.293873e-03  6.158649e-04  0 
 3.132718e-03  7.886481e-05  0 
 3.173511e-03  2.893916e-04  0 
 1.710901e-03  5.254380e-04  0 
 2.345247e-03  2.851707e-04  0 
 3.442155e-03  5.284944e-04  0 
 3.871412e-03  2.229920e-04  0 
 3.315844e-03  4.542056e-04  0 
 3.257440e-03  5.945129e-04  0 
 3.978174e-03  1.657912e-04  0 
 3.445736e-03  3.224880e-04  0 
 3.632731e-03  2.739143e-04  0 
 3.400944e-03  3.380668e-04  0 
 3.541855e-03  3.506180e-04  0 
 3.609616e-03  2.892063e-04  0 
 3.546505e-03  3.229159e-04  0 
 1.617716e-03  3.556132e-04  0 
 1.099461e-03  8.232943e-05  0 
 2.471016e-03  4.412638e-04  0 
 5.322006e-04  1.830549e-04  0 
 2.875720e-03  3.471904e-04  0 
 1.574157e-03  3.634168e-04  0 
 2.468416e-03  4.395304e-04  0 
 9.075913e-04  7.590590e-05  0 
 1.598404e-03  2.501388e-04  0 
 2.285945e-03  4.214556e-04  0 
 2.740023e-03  4.327504e-04  0 
 1.125791e-03  2.229529e-04  0 
 2.272402e-03  4.214753e-04  0 
 4.782194e-04  2.816084e-05  0 
 7.752690e-04  1.115166e-04  0 
 2.719397e-03  4.711975e-04  0 
 3.016262e-03  3.760950e-04  0 
 5.408446e-04  1.756599e-05  0 
 1.522162e-03  3.708831e-04  0 
 2.772442e-03  4.416883e-04  0 
 1.640600e-03  3.843135e-04  0 
 1.372979e-03  2.389342e-04  0 
 2.448166e-03  4.797136e-04  0 
 8.568177e-04  4.567717e-05  0 
 1.217274e-03  3.364794e-04  0 
 5.175537e-04  4.384807e-05  0 
 1.987628e-03  4.053982e-04  0 
 1.357838e-03  1.241815e-04  0 
 1.920022e-03  4.068737e-04  0 
 2.864248e-03  4.138060e-04  0 
 1.016315e-03  1.155294e-04  0 
 2.152464e-03  4.364069e-04  0 
 1.883504e-03  4.152871e-04  0 
 1.422666e-03  3.308501e-04  0 
 4.786198e-04  1.052648e-04  0 
 9.935745e-04  2.787113e-04  0 
 9.326662e-04  2.558978e-04  0 
 1.234270e-03  3.085445e-04  0 
 1.209361e-03  1.148877e-04  0 
 2.639632e-03  6.222926e-04  0 
 1.303708e-03  3.350448e-04  0 
 2.199753e-03  4.463615e-04  0 
 3.840044e-04  1.670382e-05  0 
 2.481892e-03  4.265058e-04  0 
 3.694622e-04  3.610135e-05  0 
 1.885025e-03  3.894323e-04  0 
 2.194511e-03  4.184087e-04  0 
 5.182613e-04  -4.796716e-06  0 
 3.142505e-03  3.183252e-04  0 
 1.792191e-04  1.919949e-05  0 
VECTORS displacement_ITER5 FLOAT
 2.802134e-03  9.641108e-05  0 
 0  0  0 
 0  0  0 
 2.895704e-03  2.932907e-04  0 
 2.872496e-03  2.465834e-04  0 
 3.119562e-03  2.366906e-05  0 
 2.942816e-03  6.839269e-05  0 
 2.634423e-03  1.329254e-04  0 
 2.355595e-03  1.491559e-04  0 
 1.959296e-03  1.435783e-04  0 
 1.665297e-03  1.183097e-04  0 
 1.367954e-03  9.747591e-05  0 
 9.155136e-04  3.037431e-05  0 
 3.973532e-04  9.470928e-08  0 
 2.761008e-03  7.959338e-05  0 
 2.725823e-03  6.529119e-05  0 
 2.693073e-03  4.461412e-05  0 
 2.670961e-03  5.030068e-05  0 
 2.675007e-03  1.213796e-05  0 
 2.684288e-03  -1.369122e-05  0 
 0  0  0 
 0  0  0 
 0  0  0 
 0  0  0 
 0  0  0 
 0  0  0 
 0  0  0 
 3.148484e-03  3.088974e-04  0 
 3.049017e-03  3.145186e-04  0 
 3.085000e-03  1.524417e-04  0 
 2.996656e-03  2.781641e-04  0 
 2.927899e-03  1.637660e-04  0 
 2.541699e-03  2.293491e-04  0 
 1.503707e-03  2.929724e-04  0 
 2.747819e-03  2.720790e-04  0 
 2.747512e-03  2.195665e-04  0 
 1.811482e-03  2.720602e-04  0 
 2.201742e-03  2.108713e-04  0 
 2.796274e-03  5.445139e-05  0 
 2.984564e-03  4.452266e-05  0 
 2.757071e-03  4.883369e-05  0 
 2.757013e-03  1.721095e-05  0 
 3.061466e-03  3.522430e-05  0 
 2.801315e-03  4.381567e-05  0 
 2.894079e-03  4.113557e-05  0 
 2.784538e-03  5.284368e-05  0 
 2.837323e-03  4.684762e-05  0 
 2.865409e-03  6.389091e-05  0 
 2.834182e-03  7.280195e-05  0 
 1.676129e-03  6.356007e-05  0 
 8.631763e-04  4.307236e-05  0 
 2.302763e-03  1.186454e-04  0 
 7.047265e-04  5.748569e-05  0 
 2.534502e-03  1.076594e-04  0 
 1.706303e-03  7.376888e-05  0 
 2.263757e-03  -2.895844e-07  0 
 8.000453e-04  4.329240e-05  0 
 1.514128e-03  4.464191e-05  0 
 2.198796e-03  7.808997e-05  0 
 2.419439e-03  7.920910e-05  0 
 1.170790e-03  5.857134e-05  0 
 2.205192e-03  1.406725e-04  0 
 4.091168e-04  2.688759e-05  0 
 7.422788e-04  6.172873e-05  0 
 2.407380e-03  -1.994586e-05  0 
 2.576510e-03  7.048136e-05  0 
 4.607982e-04  2.201071e-05  0 
 1.699900e-03  8.390558e-05  0 
 2.448580e-03  1.791562e-05  0 
 1.730057e-03  9.225463e-05  0 
 1.365370e-03  5.525092e-05  0 
 2.225838e-03  -4.215069e-06  0 
 7.256305e-04  4.922933e-05  0 
 1.482231e-03  7.819632e-05  0 
 4.663792e-04  2.916279e-05  0 
 1.956572e-03  6.774207e-05  0 
 1.116241e-03  5.520253e-05  0 
 1.947487e-03  9.766432e-05  0 
 2.491372e-03  4.376904e-05  0 
 9.321239e-04  5.145430e-05  0 
 2.131759e-03  1.129222e-04  0 
 1.936125e-03  1.017273e-04  0 
 1.513057e-03  7.214184e-05  0 
 4.967137e-04  6.254975e-05  0 
 1.222882e-03  6.715893e-05  0 
 1.065506e-03  8.828545e-05  0 
 1.453783e-03  6.002122e-05  0 
 1.059184e-03  5.295483e-05  0 
 2.316159e-03  3.940980e-06  0 
 1.454319e-03  8.081941e-05  0 
 2.040805e-03  7.577475e-06  0 
 3.279918e-04  1.883258e-05  0 
 2.283061e-03  2.824558e-05  0 
 3.512117e-04  2.453301e-05  0 
 1.819630e-03  5.986031e-06  0 
 2.062853e-03  4.761162e-06  0 
 4.401006e-04  3.411951e-09  0 
 2.680667e-03  9.537721e-05  0 
 2.324010e-04  1.836129e-05  0 
VECTORS displacement_ITER6 FLOAT
 2.600526e-03  1.505886e-04  0 
 0  0  0 
 0  0  0 
 2.735480e-03  5.311965e-05  0 
 2.687059e-03  1.688642e-04  0 
 3.015391e-03  7.288346e-05  0 
 2.786984e-03  1.305136e-04  0 
 2.426097e-03  1.781010e-04  0 
 2.163360e-03  1.834758e-04  0 
 1.853731e-03  1.719139e-04  0 
 1.572443e-03  1.380732e-04  0 
 1.268521e-03  9.007824e-05  0 
 8.747646e-04  2.469829e-05  0 
 4.136331e-04  -2.108959e-06  0 
 2.583878e-03  1.864305e-04  0 
 2.567412e-03  1.831741e-04  0 
 2.548574e-03  1.713397e-04  0 
 2.525477e-03  1.726224e-04  0 
 2.512771e-03  1.065523e-04  0 
 2.502892e-03  1.830223e-05  0 
 0  0  0 
 0  0  0 
 0  0  0 
 0  0  0 
 0  0  0 
 0  0  0 
 0  0  0 
 3.068433e-03  6.369775e-05  0 
 2.959185e-03  -5.002090e-05  0 
 2.968426e-03  7.392041e-05  0 
 2.844694e-03  1.144894e-04  0 
 2.753856e-03  1.241264e-04  0 
 2.337014e-03  2.147749e-04  0 
 1.374499e-03  1.045379e-04  0 
 2.547915e-03  1.311478e-04  0 
 2.537843e-03  2.028211e-04  0 
 1.709784e-03  1.411692e-04  0 
 2.047148e-03  2.203519e-04  0 
 2.592791e-03  8.287677e-05  0 
 2.847146e-03  1.685382e-04  0 
 2.592185e-03  1.315732e-04  0 
 2.564039e-03  4.317651e-05  0 
 2.912806e-03  1.535078e-04  0 
 2.653905e-03  1.791994e-04  0 
 2.732353e-03  1.757788e-04  0 
 2.639169e-03  1.736498e-04  0 
 2.663667e-03  1.318305e-04  0 
 2.715369e-03  1.942139e-04  0 
 2.669746e-03  1.943771e-04  0 
 1.616280e-03  9.305887e-05  0 
 8.598405e-04  5.865133e-05  0 
 2.160758e-03  1.702149e-04  0 
 6.864347e-04  4.547586e-05  0 
 2.342874e-03  1.661571e-04  0 
 1.623777e-03  8.519994e-05  0 
 2.201798e-03  1.125615e-04  0 
 7.723024e-04  5.473600e-05  0 
 1.478263e-03  9.007980e-05  0 
 2.082399e-03  1.328954e-04  0 
 2.309126e-03  1.750687e-04  0 
 1.123735e-03  6.271018e-05  0 
 2.051061e-03  1.647947e-04  0 
 3.954419e-04  3.005453e-05  0 
 7.109604e-04  5.684427e-05  0 
 2.311306e-03  7.798568e-05  0 
 2.428919e-03  1.750595e-04  0 
 4.515646e-04  2.393255e-05  0 
 1.611840e-03  1.021986e-04  0 
 2.349892e-03  1.432377e-04  0 
 1.654970e-03  1.066132e-04  0 
 1.315977e-03  7.149221e-05  0 
 2.167547e-03  8.880681e-05  0 
 7.067489e-04  5.459819e-05  0 
 1.399195e-03  9.039989e-05  0 
 4.449111e-04  3.067552e-05  0 
 1.895597e-03  1.143939e-04  0 
 1.100023e-03  7.992272e-05  0 
 1.859824e-03  1.185238e-04  0 
 2.381937e-03  1.657061e-04  0 
 8.979901e-04  5.835579e-05  0 
 2.003572e-03  1.442202e-04  0 
 1.837232e-03  1.220583e-04  0 
 1.451702e-03  8.499585e-05  0 
 4.834069e-04  5.312212e-05  0 
 1.148808e-03  6.320266e-05  0 
 1.016243e-03  7.623389e-05  0 
 1.381741e-03  6.720029e-05  0 
 1.026160e-03  7.081629e-05  0 
 2.223577e-03  1.288285e-05  0 
 1.391433e-03  8.332902e-05  0 
 2.024346e-03  1.070202e-04  0 
 3.193761e-04  2.010181e-05  0 
 2.201047e-03  1.378028e-04  0 
 3.368744e-04  2.391652e-05  0 
 1.791922e-03  8.545085e-05  0 
 2.028438e-03  1.009592e-04  0 
 4.325261e-04  2.408491e-06  0 
 2.479680e-03  1.594708e-04  0 
 2.394303e-04  1.903980e-05  0 
VECTORS displacement_ITER7 FLOAT
 2.630426e-03  9.283921e-05  0 
 0  0  0 
 0  0  0 
 2.710166e-03  1.218168e-04  0 
 2.687535e-03  1.240536e-04  0 
 2.900835e-03  5.589399e-05  0 
 2.779654e-03  7.282083e-05  0 
 2.438193e-03  1.257982e-04  0 
 2.170893e-03  1.385398e-04  0 
 1.841779e-03  1.495507e-04  0 
 1.531893e-03  1.311414e-04  0 
 1.178131e-03  9.981162e-05  0 
 7.887733e-04  4.559573e-05  0 
 3.903028e-04  1.323118e-05  0 
 2.578358e-03  1.039587e-04  0 
 2.521615e-03  9.586144e-05  0 
 2.459736e-03  9.006671e-05  0 
 2.402613e-03  9.026479e-05  0 
 2.357107e-03  5.100381e-05  0 
 2.318402e-03  -3.108448e-06  0 
 0  0  0 
 0  0  0 
 0  0  0 
 0  0  0 
 0  0  0 
 0  0  0 
 0  0  0 
 2.917758e-03  1.492673e-04  0 
 2.862017e-03  1.447036e-04  0 
 2.879547e-03  8.438739e-05  0 
 2.814047e-03  1.321385e-04  0 
 2.760972e-03  9.359957e-05  0 
 2.351025e-03  1.440710e-04  0 
 1.323450e-03  9.477853e-05  0 
 2.566917e-03  1.201877e-04  0 
 2.558398e-03  1.313474e-04  0 
 1.695867e-03  1.249744e-04  0 
 2.061665e-03  1.508844e-04  0 
 2.493136e-03  -2.512569e-08  0 
 2.810423e-03  5.772215e-05  0 
 2.474413e-03  4.328145e-05  0 
 2.411296e-03  -2.233505e-06  0 
 2.843624e-03  1.559258e-05  0 
 2.590532e-03  6.157611e-05  0 
 2.686994e-03  2.577701e-05  0 
 2.545284e-03  6.372131e-05  0 
 2.584937e-03  1.861827e-05  0 
 2.692349e-03  5.892231e-05  0 
 2.674054e-03  8.744085e-05  0 
 1.544091e-03  1.074292e-04  0 
 8.269603e-04  6.020005e-05  0 
 2.127999e-03  1.552338e-04  0 
 6.313014e-04  4.929498e-05  0 
 2.347101e-03  1.253320e-04  0 
 1.560200e-03  1.133238e-04  0 
 2.070302e-03  9.436568e-05  0 
 7.389679e-04  5.459590e-05  0 
 1.407478e-03  1.001064e-04  0 
 2.022155e-03  1.401134e-04  0 
 2.244494e-03  1.430140e-04  0 
 1.062422e-03  7.939983e-05  0 
 2.028595e-03  1.521001e-04  0 
 3.725457e-04  2.839234e-05  0 
 6.769618e-04  5.788222e-05  0 
 2.158917e-03  5.513126e-05  0 
 2.394151e-03  1.181755e-04  0 
 4.218305e-04  2.602894e-05  0 
 1.559794e-03  1.217040e-04  0 
 2.221487e-03  9.556679e-05  0 
 1.587471e-03  1.234918e-04  0 
 1.250313e-03  8.601737e-05  0 
 2.036060e-03  6.209825e-05  0 
 6.749368e-04  5.023232e-05  0 
 1.319912e-03  1.099626e-04  0 
 4.190001e-04  3.137987e-05  0 
 1.828528e-03  1.262862e-04  0 
 1.064466e-03  7.686182e-05  0 
 1.799559e-03  1.349389e-04  0 
 2.282366e-03  1.084179e-04  0 
 8.614036e-04  6.064415e-05  0 
 1.953728e-03  1.482154e-04  0 
 1.793774e-03  1.353013e-04  0 
 1.382222e-03  1.025878e-04  0 
 4.568036e-04  4.458467e-05  0 
 1.054088e-03  8.423908e-05  0 
 9.475887e-04  8.412639e-05  0 
 1.300320e-03  9.772414e-05  0 
 9.890867e-04  7.100603e-05  0 
 2.081159e-03  -1.667373e-05  0 
 1.322104e-03  1.037796e-04  0 
 1.909660e-03  8.572438e-05  0 
 2.977708e-04  1.957578e-05  0 
 2.106456e-03  1.198386e-04  0 
 3.149939e-04  2.458851e-05  0 
 1.722688e-03  1.004700e-04  0 
 1.929873e-03  1.068873e-04  0 
 4.036718e-04  6.016988e-06  0 
 2.495442e-03  1.095037e-04  0 
 2.360781e-04  1.914928e-05  0 
VECTORS displacement_ITER8 FLOAT
 2.594720e-03  1.272018e-04  0 
 0  0  0 
 0  0  0 
 2.698844e-03  8.205573e-05  0 
 2.645632e-03  1.217450e-04  0 
 2.883197e-03  9.095455e-05  0 
 2.750651e-03  1.140492e-04  0 
 2.357777e-03  1.402559e-04  0 
 2.103248e-03  1.305460e-04  0 
 1.816546e-03  1.277765e-04  0 
 1.525055e-03  1.200201e-04  0 
 1.182836e-03  1.044973e-04  0 
 8.012216e-04  6.068572e-05  0 
 4.173117e-04  2.576809e-05  0 
 2.545998e-03  1.287578e-04  0 
 2.496248e-03  1.158092e-04  0 
 2.442882e-03  1.163783e-04  0 
 2.398753e-03  1.005891e-04  0 
 2.364245e-03  9.509780e-05  0 
 2.338732e-03  7.949092e-05  0 
 0  0  0 
 0  0  0 
 0  0  0 
 0  0  0 
 0  0  0 
 0  0  0 
 0  0  0 
 2.915588e-03  7.258430e-05  0 
 2.879946e-03  5.910476e-05  0 
 2.864505e-03  7.955837e-05  0 
 2.794316e-03  9.082946e-05  0 
 2.729230e-03  1.074365e-04  0 
 2.259569e-03  1.482501e-04  0 
 1.342925e-03  1.340697e-04  0 
 2.487553e-03  1.214311e-04  0 
 2.482298e-03  1.374713e-04  0 
 1.690421e-03  1.441159e-04  0 
 2.002058e-03  1.494079e-04  0 
 2.542273e-03  8.081217e-05  0 
 2.783200e-03  9.380400e-05  0 
 2.496924e-03  9.112749e-05  0 
 2.444905e-03  8.572775e-05  0 
 2.803285e-03  4.515094e-05  0 
 2.575658e-03  9.526722e-05  0 
 2.670161e-03  6.451158e-05  0 
 2.537043e-03  9.140922e-05  0 
 2.600304e-03  8.190358e-05  0 
 2.677086e-03  8.203887e-05  0 
 2.651454e-03  1.158792e-04  0 
 1.522511e-03  9.803043e-05  0 
 8.208696e-04  5.473611e-05  0 
 2.098324e-03  1.454649e-04  0 
 6.509308e-04  4.777115e-05  0 
 2.289429e-03  1.348254e-04  0 
 1.537786e-03  1.064831e-04  0 
 2.050972e-03  9.967565e-05  0 
 7.406797e-04  4.347809e-05  0 
 1.399557e-03  8.237267e-05  0 
 1.989578e-03  1.382169e-04  0 
 2.227092e-03  1.450222e-04  0 
 1.067185e-03  6.785614e-05  0 
 1.988856e-03  1.361357e-04  0 
 3.675061e-04  2.386950e-05  0 
 6.899380e-04  4.633495e-05  0 
 2.171348e-03  9.240071e-05  0 
 2.357951e-03  1.326287e-04  0 
 4.029683e-04  2.720190e-05  0 
 1.540640e-03  1.078726e-04  0 
 2.219967e-03  1.050378e-04  0 
 1.563588e-03  1.116583e-04  0 
 1.246714e-03  7.102017e-05  0 
 2.029743e-03  8.735367e-05  0 
 6.687403e-04  3.806218e-05  0 
 1.311348e-03  1.043308e-04  0 
 4.203173e-04  2.772173e-05  0 
 1.803455e-03  1.202934e-04  0 
 1.068451e-03  6.025191e-05  0 
 1.768279e-03  1.257899e-04  0 
 2.279204e-03  1.177366e-04  0 
 8.713468e-04  4.750447e-05  0 
 1.916997e-03  1.355406e-04  0 
 1.767196e-03  1.224884e-04  0 
 1.367843e-03  9.203388e-05  0 
 4.777737e-04  3.104932e-05  0 
 1.054600e-03  8.422839e-05  0 
 9.553387e-04  6.738125e-05  0 
 1.285205e-03  8.927940e-05  0 
 9.942753e-04  5.339702e-05  0 
 2.115733e-03  6.236203e-05  0 
 1.310923e-03  9.280427e-05  0 
 1.892283e-03  8.906081e-05  0 
 2.866207e-04  1.718758e-05  0 
 2.082424e-03  1.231674e-04  0 
 3.207189e-04  2.239417e-05  0 
 1.705009e-03  9.809401e-05  0 
 1.909460e-03  1.082580e-04  0 
 3.873962e-04  1.243928e-05  0 
 2.444462e-03  1.380800e-04  0 
 2.616728e-04  1.927755e-05  0 
VECTORS displacement_ITER9 FLOAT
 2.574524e-03  1.250850e-04  0 
 0  0  0 
 0  0  0 
 2.682153e-03  1.060561e-04  0 
 2.626310e-03  1.331267e-04  0 
 2.853613e-03  8.138161e-05  0 
 2.722551e-03  1.089815e-04  0 
 2.352558e-03  1.407395e-04  0 
 2.102844e-03  1.350662e-04  0 
 1.828915e-03  1.286836e-04  0 
 1.513097e-03  1.181795e-04  0 
 1.166931e-03  9.802768e-05  0 
 7.895437e-04  6.336144e-05  0 
 4.117005e-04  3.286811e-05  0 
 2.530798e-03  1.349516e-04  0 
 2.486118e-03  1.213804e-04  0 
 2.440106e-03  1.137671e-04  0 
 2.391915e-03  8.567846e-05  0 
 2.345848e-03  7.122749e-05  0 
 2.313347e-03  5.925511e-05  0 
 0  0  0 
 0  0  0 
 0  0  0 
 0  0  0 
 0  0  0 
 0  0  0 
 0  0  0 
 2.913599e-03  6.038929e-05  0 
 2.891781e-03  5.120668e-05  0 
 2.838298e-03  8.130113e-05  0 
 2.775352e-03  1.042473e-04  0 
 2.706591e-03  1.123776e-04  0 
 2.260153e-03  1.539943e-04  0 