# vtk DataFile Version 3.1
this is an vtk file created by FEMAC
ASCII
DATASET UNSTRUCTURED_GRID
POINTS 97 FLOAT
5.000000 2.000000 0.000000
5.000000 3.000000 0.000000
4.750000 2.000000 0.000000
4.875000 2.000000 0.000000
5.000000 1.750000 0.000000
5.000000 1.875000 0.000000
4.875000 3.000000 0.000000
5.000000 2.125000 0.000000
5.000000 2.250000 0.000000
5.000000 2.375000 0.000000
5.000000 2.500000 0.000000
5.000000 2.625000 0.000000
5.000000 2.750000 0.000000
5.000000 2.875000 0.000000
5.125000 2.000000 0.000000
5.250000 2.000000 0.000000
5.375000 2.000000 0.000000
5.125000 3.000000 0.000000
5.250000 3.000000 0.000000
5.375000 3.000000 0.000000
5.500000 3.000000 0.000000
4.783139 1.894340 0.000000
4.785874 1.656072 0.000000
4.853209 1.777440 0.000000
4.902082 1.668132 0.000000
4.918558 1.882797 0.000000
4.760352 2.243571 0.000000
4.817152 2.120666 0.000000
4.771018 2.478474 0.000000
4.825317 2.332172 0.000000
4.865490 2.714091 0.000000
4.891908 2.207877 0.000000
4.881964 2.853387 0.000000
4.905669 2.420533 0.000000
4.693880 2.115272 0.000000
4.836879 2.610317 0.000000
4.692462 2.334830 0.000000
4.939241 2.932097 0.000000
4.920080 2.093419 0.000000
4.902713 2.526865 0.000000
4.924579 2.317116 0.000000
5.179815 1.916884 0.000000
5.146523 1.805296 0.000000
5.090268 1.919436 0.000000
5.512653 2.498213 0.000000
5.683415 2.234291 0.000000
5.341532 2.764611 0.000000
5.767851 2.747905 0.000000
5.291654 2.204665 0.000000
5.833550 2.221662 0.000000
5.121904 2.816303 0.000000
5.818411 2.878217 0.000000
5.136846 2.167772 0.000000
5.255404 2.496103 0.000000
5.783652 2.489395 0.000000
5.552940 2.713002 0.000000
5.368007 2.299018 0.000000
5.617032 2.642051 0.000000
5.395519 2.105305 0.000000
5.852762 2.638949 0.000000
5.391018 2.658408 0.000000
5.590463 2.892337 0.000000
5.103127 2.317762 0.000000
5.408839 2.869083 0.000000
5.166796 2.923691 0.000000
5.886947 2.372767 0.000000
5.910805 2.775240 0.000000
5.258579 2.084693 0.000000
5.379207 2.494266 0.000000
5.134541 2.497231 0.000000
5.519762 2.831306 0.000000
5.634642 2.759835 0.000000
5.081326 2.579821 0.000000
5.087089 2.421446 0.000000
5.428688 2.204665 0.000000
5.449265 2.402040 0.000000
5.721748 2.632472 0.000000
5.316219 2.581085 0.000000
5.665362 2.382019 0.000000
5.311879 2.396988 0.000000
5.771965 2.336860 0.000000
5.183879 2.401223 0.000000
5.429040 2.562950 0.000000
5.274577 2.864654 0.000000
5.564919 2.425249 0.000000
5.697728 2.879716 0.000000
5.511691 2.620650 0.000000
5.629726 2.522169 0.000000
5.110648 2.674755 0.000000
5.454297 2.742843 0.000000
5.192497 2.588605 0.000000
5.249778 2.704092 0.000000
5.530006 2.296903 0.000000
5.234294 2.297148 0.000000
5.065462 2.073193 0.000000
5.082740 2.922999 0.000000
5.920560 2.500185 0.000000
CELLS 157 628 
3 24 23 22
3 23 24  4
3 2 21  3
3 3 25  0
3 25  5  0
3 25  4  5
3 25 21 23
3 21 25  3
3 23  4 25
3 3 27  2
3 31 26 27
3 12 30 11
3 8 31  7
3 26 31 29
3 13 32 12
3 12 32 30
3 10 33  9
3 6 37  1
3 13 37 32
3 37 13  1
3 37  6 32
3 38  3  0
3 7 38  0
3 38  7 31
3 38 27  3
3 27 38 31
3 34 27 26
3 27 34  2
3 36 29 28
3 29 36 26
3 35 11 30
3 33 28 29
3 39 10 11
3 35 39 11
3 10 39 33
3 8 40 31
3 40 29 31
3 40  8  9
3 39 28 33
3 35 28 39
3 33 40  9
3 33 29 40
3 14 41 15
3 5 43  0
3 43 14  0
3 14 43 41
3 41 43 42
3 42  5  4
3 42 43  5
3 7 52  8
3 47 66 51
3 67 48 52
3 17 64 18
3 14 67 52
3 8 52 62
3 63 20 19
3 8 62  9
3 66 47 59
3 15 67 14
3 16 67 15
3 48 67 58
3 67 16 58
3 20 70 61
3 70 20 63
3 71 55 57
3 10 72 11
3 72 10 69
3 73 10  9
3 62 73  9
3 10 73 69
3 48 74 56
3 74 48 58
3 75 44 68
3 59 76 54
3 76 59 47
3 77 53 68
3 53 79 68
3 80 45 49
3 65 80 49
3 81 53 69
3 44 82 68
3 64 83 18
3 47 85 71
3 85 61 71
3 57 87 76
3 87 54 76
3 88 12 11
3 12 88 50
3 53 90 69
3 48 93 52
3 93 62 52
3 94  7  0
3 94 14 52
3 14 94  0
3 7 94 52
3 71 76 47
3 71 57 76
3 72 88 11
3 83 19 18
3 63 19 83
3 71 70 55
3 61 70 71
3 75 79 56
3 75 68 79
3 77 82 60
3 77 68 82
3 86 82 44
3 86 87 57
3 75 84 44
3 81 73 62
3 69 73 81
3 72 69 90
3 81 79 53
3 77 90 53
3 91 60 46
3 77 60 91
3 77 91 90
3 89 46 60
3 46 89 63
3 80 65 54
3 54 78 80
3 51 85 47
3 83 46 63
3 83 91 46
3 83 64 50
3 83 50 91
3 75 56 92
3 75 92 84
3 56 93 48
3 56 79 93
3 81 62 93
3 93 79 81
3 89 55 70
3 63 89 70
3 88 91 50
3 72 90 88
3 88 90 91
3 12 50 13
3 92 56 74
3 92 45 78
3 80 78 45
3 78 84 92
3 44 84 87
3 86 44 87
3 78 54 87
3 78 87 84
3 13 95  1
3 17 95 64
3 95 17  1
3 50 95 13
3 50 64 95
3 86 57 55
3 60 82 86
3 89 60 86
3 55 89 86
3 96 54 65
3 54 96 59
CELL_TYPES 157
5 5 5 5 5 5 5 5 5 5 5 5 5 5 5 5 5 5 5 5 5 5 5 5 5 5 5 5 5 5 5 5 5 5 5 5 5 5 5 5 5 5 5 5 5 5 5 5 5 5 5 5 5 5 5 5 5 5 5 5 5 5 5 5 5 5 5 5 5 5 5 5 5 5 5 5 5 5 5 5 5 5 5 5 5 5 5 5 5 5 5 5 5 5 5 5 5 5 5 5 5 5 5 5 5 5 5 5 5 5 5 5 5 5 5 5 5 5 5 5 5 5 5 5 5 5 5 5 5 5 5 5 5 5 5 5 5 5 5 5 5 5 5 5 5 5 5 5 5 5 5 5 5 5 5 5 5 
POINT_DATA 97
VECTORS displacement_ITER1 FLOAT
 2.811069e-04  -8.478583e-05  0 
 0  0  0 
 2.987709e-04  -1.650508e-04  0 
 2.903637e-04  -1.240242e-04  0 
 3.799296e-04  -9.433170e-05  0 
 3.305789e-04  -8.960658e-05  0 
 0  0  0 
 2.367973e-04  -7.603947e-05  0 
 1.913664e-04  -6.864954e-05  0 
 1.508666e-04  -6.080296e-05  0 
 1.132736e-04  -4.913817e-05  0 
 7.891798e-05  -3.460851e-05  0 
 4.127168e-05  -1.640136e-05  0 
 1.441952e-05  -6.224908e-07  0 
 2.777822e-04  -4.355588e-05  0 
 2.756464e-04  -6.278973e-06  0 
 2.733189e-04  3.064297e-05  0 
 0  0  0 
 0  0  0 
 0  0  0 
 0  0  0 
 3.365015e-04  -1.614454e-04  0 
 4.332273e-04  -1.853702e-04  0 
 3.748892e-04  -1.483430e-04  0 
 4.202291e-04  -1.352563e-04  0 
 3.305089e-04  -1.192918e-04  0 
 2.123754e-04  -1.407224e-04  0 
 2.500683e-04  -1.346633e-04  0 
 1.450014e-04  -1.107531e-04  0 
 1.773018e-04  -1.132102e-04  0 
 7.240295e-05  -5.298061e-05  0 
 2.130482e-04  -1.043914e-04  0 
 3.553450e-05  -2.361837e-05  0 
 1.456417e-04  -8.335940e-05  0 
 2.623848e-04  -1.721073e-04  0 
 1.061319e-04  -7.566018e-05  0 
 1.913821e-04  -1.483017e-04  0 
 7.390138e-06  -1.745039e-06  0 
 2.533225e-04  -1.029029e-04  0 
 1.164610e-04  -7.192336e-05  0 
 1.742092e-04  -8.652308e-05  0 
 3.085601e-04  -2.836401e-05  0 
 3.527565e-04  -4.179300e-05  0 
 3.097964e-04  -5.701723e-05  0 
 1.109629e-04  5.338321e-05  0 
 1.744159e-04  8.964991e-05  0 
 2.881608e-05  5.532920e-06  0 
 6.697975e-05  9.391100e-05  0 
 1.966427e-04  9.680894e-06  0 
 1.789202e-04  1.144295e-04  0 
 1.491020e-05  -2.324551e-06  0 
 4.175043e-05  1.041308e-04  0 
 2.137937e-04  -3.676062e-05  0 
 1.020216e-04  6.184154e-06  0 
 1.279123e-04  1.056774e-04  0 
 6.171178e-05  4.201306e-05  0 
 1.617546e-04  3.235472e-05  0 
 8.326384e-05  6.173068e-05  0 
 2.329475e-04  3.840435e-05  0 
 9.598188e-05  1.174641e-04  0 
 5.847169e-05  2.186631e-05  0 
 2.906605e-05  3.434046e-05  0 
 1.636776e-04  -3.944168e-05  0 
 1.424007e-05  2.615324e-06  0 
 7.076824e-06  -1.027642e-06  0 
 1.499442e-04  1.260536e-04  0 
 6.374209e-05  1.281030e-04  0 
 2.431164e-04  -2.251566e-06  0 
 1.028905e-04  3.308443e-05  0 
 1.047716e-04  -2.457831e-05  0 
 3.377649e-05  2.348770e-05  0 
 5.837292e-05  5.648953e-05  0 
 8.278992e-05  -2.826103e-05  0 
 1.298806e-04  -3.837261e-05  0 
 1.953733e-04  4.826619e-05  0 
 1.314441e-04  5.006993e-05  0 
 9.357662e-05  8.643227e-05  0 
 7.434787e-05  1.907302e-05  0 
 1.498452e-04  8.738163e-05  0 
 1.314076e-04  1.865165e-05  0 
 1.573397e-04  1.026014e-04  0 
 1.330370e-04  -1.464232e-05  0 
 8.776826e-05  3.540436e-05  0 
 1.158772e-05  2.774674e-07  0 
 1.336665e-04  6.866302e-05  0 
 3.755671e-05  6.870383e-05  0 
 7.884218e-05  4.374873e-05  0 
 1.131005e-04  7.432688e-05  0 
 5.000429e-05  -1.372334e-05  0 
 4.515487e-05  2.259428e-05  0 
 7.102615e-05  -7.695740e-06  0 
 3.464348e-05  3.619767e-06  0 
 1.641071e-04  7.085984e-05  0 
 1.652062e-04  -4.522160e-06  0 
 2.509130e-04  -6.139362e-05  0 
 8.410922e-06  2.428240e-07  0 
 1.267462e-04  1.317241e-04  0 
VECTORS displacement_ITER2 FLOAT
 1.145910e-03  -9.278682e-06  0 
 0  0  0 
 1.132158e-03  -3.110992e-04  0 
 1.134199e-03  -1.393975e-04  0 
 1.427840e-03  -1.742136e-05  0 
 1.302095e-03  -1.359353e-05  0 
 0  0  0 
 9.807139e-04  -2.525974e-05  0 
 8.086272e-04  -4.282056e-05  0 
 6.431671e-04  -6.154261e-05  0 
 4.917032e-04  -6.332722e-05  0 
 3.436424e-04  -5.569347e-05  0 
 1.865449e-04  -2.382809e-05  0 
 7.284314e-05  9.529634e-06  0 
 1.156887e-03  8.098873e-05  0 
 1.150652e-03  1.639401e-04  0 
 1.144982e-03  2.592285e-04  0 
 0  0  0 
 0  0  0 
 0  0  0 
 0  0  0 
 1.281683e-03  -2.613355e-04  0 
 1.582701e-03  -2.428745e-04  0 
 1.425303e-03  -1.625123e-04  0 
 1.548492e-03  -1.332611e-04  0 
 1.297488e-03  -7.956552e-05  0 
 8.069480e-04  -2.850239e-04  0 
 9.639868e-04  -2.224107e-04  0 
 5.294076e-04  -2.530877e-04  0 
 6.853122e-04  -2.143807e-04  0 
 2.697927e-04  -1.389979e-04  0 
 8.531455e-04  -1.473880e-04  0 
 1.299098e-04  -6.970887e-05  0 
 5.872503e-04  -1.494409e-04  0 
 9.789169e-04  -3.762047e-04  0 
 3.910599e-04  -1.828232e-04  0 
 6.949175e-04  -3.448725e-04  0 
 3.321634e-05  -5.345697e-06  0 
 1.013279e-03  -1.018290e-04  0 
 4.648696e-04  -1.468671e-04  0 
 7.097079e-04  -1.267650e-04  0 
 1.250503e-03  1.149915e-04  0 
 1.365082e-03  1.036122e-04  0 
 1.243670e-03  6.523046e-05  0 
 6.057255e-04  2.765371e-04  0 
 8.541768e-04  4.211002e-04  0 
 1.971538e-04  3.890917e-05  0 
 3.886822e-04  4.584974e-04  0 
 9.069403e-04  1.861728e-04  0 
 8.638885e-04  5.151076e-04  0 
 1.026296e-04  4.422390e-06  0 
 2.462656e-04  5.131919e-04  0 
 9.402294e-04  7.108514e-05  0 
 5.328744e-04  1.127909e-04  0 
 6.675254e-04  4.932387e-04  0 
 3.788016e-04  2.234221e-04  0 
 7.914672e-04  2.353132e-04  0 
 4.828429e-04  3.088541e-04  0 
 1.043835e-03  2.713267e-04  0 
 5.255757e-04  5.573545e-04  0 
 3.657795e-04  1.362778e-04  0 
 1.924613e-04  1.900498e-04  0 
 7.351146e-04  1.952028e-05  0 
 1.096470e-04  1.705490e-05  0 
 5.085789e-05  -1.881891e-06  0 
 7.555452e-04  5.707906e-04  0 
 3.602288e-04  6.174803e-04  0 
 1.059973e-03  1.732020e-04  0 
 5.639114e-04  2.066067e-04  0 
 5.022081e-04  4.857748e-06  0 
 2.291695e-04  1.355677e-04  0 
 3.552192e-04  2.913799e-04  0 
 3.939144e-04  -2.574715e-05  0 
 5.908287e-04  -1.303394e-05  0 
 9.164806e-04  2.885467e-04  0 
 6.880478e-04  2.750560e-04  0 
 5.240625e-04  4.183635e-04  0 
 4.317058e-04  1.371653e-04  0 
 7.615459e-04  4.095342e-04  0 
 6.683432e-04  1.790870e-04  0 
 7.900510e-04  4.756429e-04  0 
 6.395309e-04  7.187313e-05  0 
 5.047313e-04  2.048682e-04  0 
 9.222163e-05  5.807219e-06  0 
 6.981248e-04  3.350239e-04  0 
 2.337005e-04  3.520134e-04  0 
 4.664962e-04  2.355372e-04  0 
 6.126507e-04  3.596797e-04  0 
 2.581500e-04  -4.889739e-06  0 
 2.953384e-04  1.357901e-04  0 
 3.805985e-04  3.121098e-05  0 
 2.243893e-04  3.885114e-05  0 
 8.123427e-04  3.462073e-04  0 
 7.810487e-04  1.320391e-04  0 
 1.056375e-03  3.034211e-05  0 
 5.030485e-05  2.822545e-06  0 
 6.506465e-04  6.061629e-04  0 
VECTORS displacement_ITER3 FLOAT
 6.684948e-04  1.056938e-04  0 
 0  0  0 
 6.177853e-04  -7.565622e-06  0 
 6.384736e-04  6.609100e-05  0 
 7.455525e-04  1.225781e-04  0 
 7.407750e-04  1.114566e-04  0 
 0  0  0 
 5.798280e-04  7.521440e-05  0 
 4.800684e-04  5.538482e-05  0 
 3.720488e-04  3.927087e-05  0 
 2.765227e-04  2.318800e-05  0 
 1.907804e-04  6.068455e-06  0 
 1.021420e-04  7.566813e-06  0 
 3.785832e-05  1.123503e-05  0 
 6.837985e-04  9.193905e-05  0 
 6.673031e-04  7.081948e-05  0 
 6.500567e-04  5.996248e-05  0 
 0  0  0 
 0  0  0 
 0  0  0 
 0  0  0 
 7.018842e-04  3.417723e-05  0 
 6.724462e-04  1.871640e-04  0 
 7.500482e-04  1.078791e-04  0 
 7.130035e-04  1.195213e-04  0 
 7.353429e-04  1.149620e-04  0 
 4.504090e-04  -4.417805e-05  0 
 5.437265e-04  8.998600e-06  0 
 2.684723e-04  -6.792636e-05  0 
 3.870651e-04  -2.663644e-05  0 
 1.317269e-04  -4.338519e-05  0 
 4.986272e-04  2.143795e-05  0 
 5.515127e-05  -2.572218e-05  0 
 3.268554e-04  -5.218134e-06  0 
 5.291014e-04  -6.216340e-05  0 
 1.919983e-04  -4.802417e-05  0 
 3.711387e-04  -9.121243e-05  0 
 1.512186e-05  -1.725248e-06  0 
 5.853081e-04  5.777497e-05  0 
 2.452509e-04  -1.969422e-05  0 
 4.129624e-04  1.590879e-05  0 
 7.265983e-04  7.530325e-05  0 
 7.532634e-04  1.015877e-04  0 
 7.186947e-04  1.094970e-04  0 
 3.213547e-04  1.027304e-04  0 
 3.504947e-04  2.085995e-05  0 
 1.300833e-04  2.587005e-05  0 
 1.884172e-04  1.610049e-04  0 
 5.290370e-04  8.118397e-05  0 
 3.078044e-04  8.290431e-06  0 
 6.611951e-05  1.077752e-05  0 
 1.272836e-04  1.696704e-04  0 
 5.637492e-04  8.162339e-05  0 
 3.129272e-04  7.750726e-05  0 
 2.909799e-04  1.170225e-04  0 
 2.164604e-04  9.527282e-05  0 
 4.415669e-04  9.273650e-05  0 
 2.557360e-04  1.081173e-04  0 
 6.048499e-04  6.963037e-05  0 
 2.317123e-04  1.631916e-04  0 
 2.214605e-04  7.670184e-05  0 
 1.157477e-04  8.394199e-05  0 
 4.314461e-04  6.303482e-05  0 
 7.449475e-05  1.100267e-05  0 
 3.351968e-05  9.391805e-07  0 
 2.601960e-04  7.599634e-05  0 
 1.697374e-04  1.734545e-04  0 
 6.281456e-04  7.983048e-05  0 
 3.225939e-04  1.007040e-04  0 
 2.948505e-04  3.785242e-05  0 
 1.405844e-04  6.972597e-05  0 
 1.944530e-04  1.129001e-04  0 
 2.316545e-04  2.138419e-05  0 
 3.466334e-04  4.315789e-05  0 
 5.117165e-04  8.020900e-05  0 
 3.767063e-04  1.025505e-04  0 
 2.589503e-04  1.324911e-04  0 
 2.621823e-04  8.078240e-05  0 
 3.603760e-04  8.876765e-05  0 
 3.864682e-04  9.568499e-05  0 
 3.141547e-04  4.725715e-05  0 
 3.779512e-04  6.744408e-05  0 
 2.894571e-04  9.769336e-05  0 
 6.367053e-05  5.511296e-06  0 
 3.563196e-04  1.019844e-04  0 
 1.259120e-04  1.454313e-04  0 
 2.611834e-04  1.030134e-04  0 
 3.049573e-04  1.112855e-04  0 
 1.544098e-04  1.969202e-05  0 
 1.834152e-04  7.224587e-05  0 
 2.320880e-04  4.030183e-05  0 
 1.451409e-04  3.225745e-05  0 
 4.181763e-04  8.925999e-05  0 
 4.564201e-04  8.407385e-05  0 
 6.295729e-04  8.865687e-05  0 
 2.973590e-05  2.573728e-06  0 
 2.438234e-04  1.183968e-04  0 
VECTORS displacement_ITER4 FLOAT
 1.437776e-03  -1.555169e-04  0 
 0  0  0 
 1.488168e-03  -1.636954e-04  0 
 1.465781e-03  -1.621021e-04  0 
 1.552432e-03  -2.057227e-04  0 
 1.523839e-03  -1.889711e-04  0 
 0  0  0 
 1.343361e-03  -1.247817e-04  0 
 1.239996e-03  -1.035957e-04  0 
 1.078256e-03  -9.067395e-05  0 
 9.115639e-04  -7.130323e-05  0 
 7.140115e-04  -6.733246e-05  0 
 4.720011e-04  -2.753643e-05  0 
 2.056922e-04  1.667840e-05  0 
 1.391862e-03  -1.585765e-04  0 
 1.333295e-03  -1.890346e-04  0 
 1.268265e-03  -2.321061e-04  0 
 0  0  0 
 0  0  0 
 0  0  0 
 0  0  0 
 1.552562e-03  -1.738372e-04  0 
 1.490311e-03  -1.551351e-04  0 
 1.573695e-03  -1.774984e-04  0 
 1.498923e-03  -1.843070e-04  0 
 1.540625e-03  -1.757075e-04  0 
 1.275836e-03  -1.695420e-04  0 
 1.391878e-03  -1.495604e-04  0 
 9.442590e-04  -1.903605e-04  0 
 1.156643e-03  -1.367466e-04  0 
 5.934072e-04  -1.537693e-04  0 
 1.300241e-03  -1.256578e-04  0 
 3.063617e-04  -9.124618e-05  0 
 1.037333e-03  -1.120762e-04  0 
 1.400129e-03  -1.897310e-04  0 
 7.365369e-04  -1.678032e-04  0 
 1.146082e-03  -2.394517e-04  0 
 1.039713e-04  -4.267162e-06  0 
 1.390455e-03  -1.438627e-04  0 
 8.737627e-04  -1.206876e-04  0 
 1.164589e-03  -1.160131e-04  0 
 1.430626e-03  -2.020527e-04  0 
 1.518209e-03  -2.235093e-04  0 
 1.462053e-03  -1.819248e-04  0 
 7.705791e-04  2.457770e-05  0 
 8.100059e-04  -1.207587e-04  0 
 4.055483e-04  2.735447e-05  0 
 4.342521e-04  9.056755e-05  0 
 1.182117e-03  -1.116041e-04  0 
 6.975501e-04  -1.722068e-04  0 
 2.948438e-04  1.652410e-05  0 
 2.575924e-04  9.258745e-05  0 
 1.279355e-03  -1.167276e-04  0 
 8.725912e-04  9.307990e-06  0 
 6.685229e-04  4.449121e-05  0 
 5.095753e-04  5.988152e-05  0 
 1.037648e-03  -6.142322e-05  0 
 5.922742e-04  4.888967e-05  0 
 1.214686e-03  -1.805409e-04  0 
 5.513842e-04  9.039856e-05  0 
 5.876799e-04  7.040986e-05  0 
 2.480846e-04  8.009365e-05  0 
 1.136175e-03  -7.625049e-05  0 
 2.405997e-04  1.436668e-05  0 
 1.355392e-04  1.833648e-06  0 
 6.379312e-04  -4.963737e-05  0 
 3.931597e-04  1.020548e-04  0 
 1.297285e-03  -1.545466e-04  0 
 8.192525e-04  4.474794e-05  0 
 8.937376e-04  -5.599648e-05  0 
 3.462344e-04  6.529570e-05  0 
 4.325878e-04  7.170530e-05  0 
 7.777287e-04  -5.388117e-05  0 
 9.993971e-04  -6.983532e-05  0 
 1.096910e-03  -1.232383e-04  0 
 8.803552e-04  5.315589e-06  0 
 5.844275e-04  7.202887e-05  0 
 7.233384e-04  6.075287e-05  0 
 8.093621e-04  -8.399089e-06  0 
 9.643749e-04  -1.612649e-05  0 
 7.387970e-04  -7.116813e-05  0 
 1.014820e-03  -4.490299e-05  0 
 7.257090e-04  5.589574e-05  0 
 2.371440e-04  6.160073e-06  0 
 8.096238e-04  -1.309840e-05  0 
 2.585143e-04  8.623804e-05  0 
 6.230768e-04  6.938494e-05  0 
 6.919613e-04  3.454095e-05  0 
 5.833294e-04  -2.332385e-05  0 
 4.717992e-04  7.451601e-05  0 
 7.306725e-04  -1.473342e-05  0 
 4.858865e-04  3.227523e-05  0 
 9.259677e-04  -6.145040e-05  0 
 1.112325e-03  -7.374625e-05  0 
 1.362870e-03  -1.347218e-04  0 
 1.338899e-04  8.032671e-06  0 
 5.935606e-04  5.188467e-06  0 
VECTORS displacement_ITER5 FLOAT
 1.515805e-03  1.061826e-04  0 
 0  0  0 
 1.537781e-03  2.015683e-04  0 
 1.522518e-03  1.686044e-04  0 
 1.535660e-03  9.316834e-05  0 
 1.532201e-03  9.743323e-05  0 
 0  0  0 
 1.472368e-03  9.496737e-05  0 
 1.407019e-03  7.720316e-05  0 
 1.261281e-03  4.772228e-05  0 
 1.101158e-03  2.373255e-05  0 
 8.810918e-04  -1.475206e-05  0 
 6.172061e-04  -9.061896e-06  0 
 2.859311e-04  2.205718e-05  0 
 1.508275e-03  2.651446e-05  0 
 1.471158e-03  -6.715498e-05  0 
 1.431797e-03  -1.595801e-04  0 
 0  0  0 
 0  0  0 
 0  0  0 
 0  0  0 
 1.555728e-03  1.893211e-04  0 
 1.808741e-03  -1.198652e-04  0 
 1.573085e-03  1.625226e-04  0 
 1.635100e-03  1.060573e-04  0 
 1.541658e-03  1.515162e-04  0 
 1.378073e-03  1.701782e-04  0 
 1.466755e-03  1.857940e-04  0 
 1.048571e-03  6.214193e-05  0 
 1.284577e-03  1.378511e-04  0 
 7.108803e-04  -8.613877e-05  0 
 1.424614e-03  1.396325e-04  0 
 3.881824e-04  -7.487994e-05  0 
 1.192881e-03  7.535754e-05  0 
 1.464783e-03  1.840812e-04  0 
 8.260645e-04  -3.341007e-05  0 
 1.232383e-03  1.111245e-04  0 
 1.468316e-04  -1.796082e-06  0 
 1.482021e-03  1.411099e-04  0 
 1.029489e-03  2.664876e-05  0 
 1.318787e-03  9.120872e-05  0 
 1.505763e-03  -2.976820e-05  0 
 1.519969e-03  1.020211e-05  0 
 1.511688e-03  5.210604e-05  0 
 1.021608e-03  -7.241405e-06  0 
 1.241674e-03  1.400403e-05  0 
 5.427869e-04  2.184706e-05  0 
 5.481330e-04  3.326744e-05  0 
 1.421612e-03  -6.362282e-05  0 
 1.196459e-03  -3.491977e-05  0 
 4.140590e-04  2.158274e-05  0 
 3.148157e-04  5.776336e-06  0 
 1.461435e-03  1.297750e-05  0 
 1.109750e-03  9.647692e-06  0 
 9.703275e-04  3.339081e-05  0 
 6.483707e-04  2.647188e-05  0 
 1.309178e-03  -6.039940e-05  0 
 7.752392e-04  1.861476e-05  0 
 1.449152e-03  -1.458802e-04  0 
 7.580156e-04  7.331622e-05  0 
 7.740293e-04  5.038579e-05  0 
 2.964726e-04  6.036126e-05  0 
 1.345375e-03  2.906612e-05  0 
 3.208914e-04  1.308222e-05  0 
 1.863630e-04  3.677235e-06  0 
 1.098911e-03  -4.919764e-07  0 
 5.259678e-04  4.740591e-05  0 
 1.482923e-03  -5.429310e-05  0 
 1.056739e-03  2.728769e-05  0 
 1.113059e-03  -1.150652e-05  0 
 4.344879e-04  4.628056e-05  0 
 5.423594e-04  3.388823e-05  0 
 9.762445e-04  -8.951969e-06  0 
 1.211626e-03  1.219988e-05  0 
 1.364343e-03  -1.182373e-04  0 
 1.142035e-03  -6.924889e-06  0 
 7.763421e-04  2.103891e-05  0 
 9.402599e-04  5.133754e-05  0 
 1.121025e-03  1.337453e-05  0 
 1.217118e-03  -2.207513e-05  0 
 1.157439e-03  1.706691e-05  0 
 1.248997e-03  -1.820012e-06  0 
 9.462768e-04  2.646912e-05  0 
 3.256386e-04  7.677253e-06  0 
 1.081998e-03  -4.237799e-05  0 
 3.066481e-04  3.725816e-05  0 
 8.155866e-04  3.510805e-05  0 
 9.331944e-04  9.399816e-06  0 
 7.669923e-04  -9.526881e-06  0 
 6.062627e-04  5.810538e-05  0 
 9.477202e-04  -6.382419e-06  0 
 6.599664e-04  3.254511e-05  0 
 1.211933e-03  -6.638196e-05  0 
 1.351306e-03  -3.174001e-05  0 
 1.490805e-03  6.305982e-05  0 
 1.848220e-04  9.952446e-06  0 
 9.108079e-04  3.732333e-05  0 
VECTORS displacement_ITER6 FLOAT
 1.696004e-03  -1.105665e-05  0 
 0  0  0 
 1.720500e-03  -5.291366e-05  0 
 1.704849e-03  -1.941471e-05  0 
 1.916820e-03  -4.477805e-06  0 
 1.820404e-03  -1.192708e-05  0 
 0  0  0 
 1.582945e-03  -1.494445e-05  0 
 1.444941e-03  -1.264374e-05  0 
 1.259709e-03  -1.441065e-05  0 
 1.064149e-03  -7.896868e-06  0 
 8.328459e-04  -2.017907e-05  0 
 5.663800e-04  -6.063385e-06  0 
 2.671727e-04  2.178484e-05  0 
 1.704523e-03  -1.224368e-06  0 
 1.688165e-03  -1.100428e-05  0 
 1.670541e-03  -3.784921e-05  0 
 0  0  0 
 0  0  0 
 0  0  0 
 0  0  0 
 1.817453e-03  -4.613664e-05  0 
 2.015487e-03  -7.781628e-05  0 
 1.916227e-03  -2.553999e-05  0 
 1.976714e-03  -2.008536e-05  0 
 1.817773e-03  -1.050731e-05  0 
 1.485222e-03  -3.991262e-05  0 
 1.596904e-03  -3.070888e-05  0 
 1.088037e-03  -6.776938e-05  0 
 1.344961e-03  -1.650074e-05  0 
 6.723754e-04  -9.912286e-05  0 
 1.506378e-03  -2.135244e-05  0 
 3.625145e-04  -6.847399e-05  0 
 1.203648e-03  -1.479320e-05  0 
 1.617694e-03  -6.833387e-05  0 
 8.258636e-04  -8.270314e-05  0 
 1.335009e-03  -1.010974e-04  0 
 1.371769e-04  -1.060888e-06  0 
 1.616320e-03  -1.642593e-05  0 
 1.012236e-03  -3.119091e-05  0 
 1.353711e-03  -2.060900e-05  0 
 1.775290e-03  -6.273566e-06  0 
 1.875361e-03  2.342047e-05  0 
 1.767859e-03  1.116230e-05  0 
 9.989826e-04  2.154916e-05  0 
 1.260834e-03  -2.250142e-06  0 
 5.093618e-04  2.240890e-05  0 
 5.500217e-04  -4.636753e-05  0 
 1.467068e-03  -1.179127e-05  0 
 1.225860e-03  -6.163706e-05  0 
 3.829398e-04  2.130276e-05  0 
 2.957441e-04  -6.680954e-05  0 
 1.524749e-03  -1.617687e-05  0 
 1.044654e-03  2.785785e-05  0 
 1.003880e-03  1.338711e-05  0 
 6.136692e-04  1.429825e-05  0 
 1.312999e-03  6.353652e-06  0 
 7.512440e-04  5.878113e-06  0 
 1.580477e-03  -3.296253e-05  0 
 7.790487e-04  -2.073899e-05  0 
 7.292287e-04  4.313439e-05  0 
 2.622140e-04  1.733017e-05  0 
 1.338537e-03  -2.486615e-06  0 
 2.964506e-04  1.278321e-05  0 
 1.728749e-04  3.864431e-06  0 
 1.106429e-03  -2.506117e-05  0 
 5.092341e-04  -4.225440e-05  0 
 1.617147e-03  -8.804088e-06  0 
 1.009975e-03  4.478780e-05  0 
 1.058237e-03  -5.917517e-06  0 
 3.918148e-04  2.670964e-05  0 
 5.142566e-04  1.369183e-06  0 
 9.163572e-04  -8.042759e-06  0 
 1.176865e-03  -5.123532e-06  0 
 1.431421e-03  -1.511086e-05  0 
 1.131829e-03  3.732999e-05  0 
 7.666155e-04  -1.000821e-05  0 
 8.786324e-04  5.615468e-05  0 
 1.155111e-03  2.869356e-05  0 
 1.175528e-03  1.350604e-05  0 
 1.170560e-03  -1.441797e-05  0 
 1.203459e-03  2.481598e-06  0 
 8.997684e-04  3.467835e-05  0 
 3.018764e-04  9.761049e-06  0 
 1.090007e-03  3.848098e-06  0 
 2.925848e-04  -4.642454e-05  0 
 7.864693e-04  3.065215e-05  0 
 9.402505e-04  9.791099e-06  0 
 7.111100e-04  2.601757e-06  0 
 5.638598e-04  4.126893e-05  0 
 8.811460e-04  1.266920e-05  0 
 6.209254e-04  3.918112e-05  0 
 1.260257e-03  1.225570e-05  0 
 1.343263e-03  -1.254226e-05  0 
 1.625777e-03  -1.751599e-05  0 
 1.722473e-04  1.054467e-05  0 
 9.854483e-04  -3.697594e-05  0 
VECTORS displacement_ITER7 FLOAT
 1.714578e-03  3.012553e-05  0 
 0  0  0 
 1.761690e-03  2.517762e-05  0 
 1.735605e-03  4.342151e-05  0 
 1.929797e-03  2.736756e-05  0 
 1.831192e-03  2.611830e-05  0 
 0  0  0 
 1.590855e-03  2.782869e-05  0 
 1.438427e-03  3.048342e-05  0 
 1.254272e-03  2.137830e-05  0 
 1.051755e-03  1.915182e-05  0 
 8.214173e-04  -1.013374e-06  0 
 5.750119e-04  -2.773240e-06  0 
 2.881896e-04  1.533875e-05  0 
 1.718683e-03  2.592758e-05  0 
 1.698703e-03  1.349046e-05  0 
 1.677960e-03  6.852724e-06  0 
 0  0  0 
 0  0  0 
 0  0  0 
 0  0  0 
 1.850087e-03  1.882304e-05  0 
 2.076457e-03  -7.143365e-05  0 
 1.936714e-03  1.097922e-05  0 
 2.015380e-03  6.262870e-06  0 
 1.831838e-03  3.124733e-05  0 
 1.479361e-03  5.106175e-05  0 
 1.608542e-03  4.885773e-05  0 
 1.074053e-03  2.621422e-05  0 
 1.331937e-03  6.264740e-05  0 
 6.585196e-04  -4.283126e-05  0 
 1.504525e-03  4.836239e-05  0 
 3.720717e-04  -3.812172e-05  0 
 1.189742e-03  4.690262e-05  0 
 1.636905e-03  2.173897e-05  0 
 7.984247e-04  -6.808188e-06  0 
 1.324694e-03  1.007426e-05  0 
 1.528628e-04  1.865575e-06  0 
 1.627669e-03  4.626780e-05  0 
 9.957591e-04  3.070016e-05  0 
 1.343911e-03  4.204803e-05  0 
 1.784809e-03  1.614362e-05  0 
 1.878864e-03  4.346933e-05  0 
 1.779827e-03  3.929535e-05  0 
 1.020364e-03  1.659325e-05  0 
 1.396945e-03  7.387181e-05  0 
 5.128610e-04  1.564804e-05  0 
 5.500489e-04  6.889927e-07  0 
 1.474836e-03  1.434199e-05  0 
 1.401089e-03  7.693502e-05  0 
 4.037682e-04  1.387930e-05  0 
 2.694510e-04  1.228274e-05  0 
 1.527078e-03  1.784929e-05  0 
 1.052034e-03  1.804985e-05  0 
 1.032391e-03  6.699693e-05  0 
 6.136935e-04  1.376825e-05  0 
 1.342210e-03  1.236677e-05  0 
 7.571711e-04  2.019664e-05  0 
 1.587203e-03  9.645806e-06  0 
 7.860166e-04  4.118847e-05  0 
 7.312493e-04  2.555914e-05  0 
 2.455120e-04  1.800460e-05  0 
 1.339017e-03  2.375156e-05  0 
 2.943926e-04  1.016634e-05  0 
 1.766413e-04  3.696529e-06  0 
 1.218144e-03  9.768855e-05  0 
 4.884960e-04  5.622473e-05  0 
 1.618710e-03  1.935905e-05  0 
 1.032317e-03  2.699405e-05  0 
 1.054073e-03  1.030370e-05  0 
 3.794049e-04  1.508163e-05  0 
 5.130714e-04  1.696938e-05  0 
 9.097532e-04  7.293207e-06  0 
 1.174509e-03  1.879621e-05  0 
 1.463713e-03  9.253340e-06  0 
 1.168984e-03  2.570169e-05  0 
 7.739506e-04  2.752545e-05  0 
 8.885561e-04  3.185471e-05  0 
 1.207571e-03  5.818949e-05  0 
 1.196815e-03  1.192715e-05  0 
 1.273357e-03  7.341422e-05  0 
 1.205611e-03  1.809783e-05  0 
 9.126666e-04  2.171378e-05  0 
 3.054759e-04  8.498574e-06  0 
 1.129550e-03  1.307544e-05  0 
 2.773230e-04  -1.430816e-05  0 
 7.940991e-04  2.389480e-05  0 
 9.606192e-04  2.860242e-05  0 
 7.191723e-04  2.541119e-06  0 
 5.586643e-04  2.567534e-05  0 
 8.876585e-04  8.366968e-06  0 
 6.361762e-04  2.335416e-05  0 
 1.321204e-03  2.205724e-05  0 
 1.353654e-03  1.083138e-05  0 
 1.637519e-03  1.953163e-05  0 
 1.801954e-04  9.451709e-06  0 
 1.031456e-03  7.712861e-05  0 
VECTORS displacement_ITER8 FLOAT
 1.688542e-03  1.735281e-05  0 
 0  0  0 
 1.721506e-03  2.600580e-05  0 
 1.701451e-03  3.316858e-05  0 
 1.844519e-03  1.239332e-05  0 
 1.777819e-03  1.280258e-05  0 
 0  0  0 
 1.560309e-03  1.617583e-05  0 
 1.411775e-03  1.570140e-05  0 
 1.249831e-03  7.541394e-06  0 
 1.058444e-03  8.090598e-06  0 
 8.314472e-04  9.744937e-06  0 
 5.794606e-04  7.793805e-06  0 
 3.008331e-04  1.516602e-05  0 
 1.681281e-03  1.247917e-05  0 
 1.660497e-03  1.025878e-05  0 
 1.640130e-03  1.490013e-05  0 
 0  0  0 
 0  0  0 
 0  0  0 
 0  0  0 
 1.793593e-03  2.132142e-05  0 
 1.956508e-03  -8.267308e-05  0 
 1.857234e-03  1.767175e-05  0 
 1.891451e-03  8.767981e-06  0 
 1.781415e-03  2.693714e-05  0 
 1.434374e-03  3.181536e-05  0 
 1.576561e-03  3.712564e-05  0 
 1.113865e-03  1.636348e-05  0 
 1.315123e-03  2.712005e-05  0 
 6.644984e-04  -2.429180e-05  0 
 1.472367e-03  2.871666e-05  0 
 3.727356e-04  -1.962636e-05  0 
 1.190733e-03  2.156889e-05  0 
 1.596029e-03  1.976750e-05  0 
 8.340033e-04  -4.211935e-06  0 
 1.315601e-03  2.380263e-05  0 
 1.603279e-04  3.193366e-06  0 
 1.598999e-03  2.848016e-05  0 
 1.022282e-03  2.298890e-05  0 
 1.328572e-03  2.324148e-05  0 
 1.730936e-03  4.146687e-06  0 
 1.804404e-03  1.241680e-05  0 
 1.735501e-03  1.700878e-05  0 
 1.021460e-03  1.514729e-05  0 
 1.381724e-03  1.713770e-05  0 
 5.266552e-04  1.494453e-05  0 
 5.692788e-04  -1.384178e-05  0 
 1.443048e-03  2.033397e-05  0 
 1.383790e-03  9.684677e-07  0 
 4.211701e-04  1.260977e-05  0 
 2.694053e-04  2.447082e-06  0 
 1.499654e-03  1.431734e-05  0 
 1.045180e-03  1.789618e-05  0 
 1.013228e-03  9.727112e-06  0 
 6.297583e-04  9.122231e-06  0 
 1.325571e-03  1.971103e-05  0 
 7.664016e-04  9.512875e-06  0 
 1.543361e-03  1.959880e-05  0 
 7.754526e-04  -1.211046e-05  0 
 7.354027e-04  1.709825e-05  0 
 2.437284e-04  -2.442232e-06  0 
 1.322874e-03  1.188034e-05  0 
 3.057502e-04  9.138236e-06  0 
 1.836856e-04  3.381262e-06  0 
 1.186348e-03  7.101488e-06  0 
 4.907194e-04  1.525771e-05  0 
 1.578583e-03  1.746355e-05  0 
 1.038225e-03  2.323571e-05  0 
 1.051104e-03  1.323762e-05  0 
 3.847497e-04  4.941644e-07  0 
 5.365209e-04  3.291976e-06  0 
 9.070762e-04  1.061490e-05  0 
 1.171791e-03  1.146987e-05  0 
 1.432429e-03  1.694573e-05  0 
 1.170927e-03  1.865033e-05  0 
 7.820573e-04  7.625005e-06  0 
 8.875176e-04  2.103809e-05  0 
 1.188030e-03  1.796327e-05  0 
 1.191421e-03  2.052864e-05  0 
 1.245251e-03  9.575697e-06  0 
 1.194481e-03  1.711140e-05  0 
 9.166021e-04  2.053171e-05  0 
 3.175545e-04  8.249017e-06  0 
 1.127078e-03  8.837468e-06  0 
 2.799804e-04  -2.108338e-05  0 
 8.045832e-04  2.081086e-05  0 
 9.662870e-04  1.545982e-05  0 
 7.262854e-04  1.054138e-05  0 
 5.675770e-04  1.328002e-05  0 
 8.836050e-04  1.330623e-05  0 
 6.529342e-04  1.877269e-05  0 
 1.314650e-03  1.108161e-05  0 
 1.338372e-03  1.886811e-05  0 
 1.608300e-03  1.317465e-05  0 
 1.878480e-04  9.201152e-06  0 
 9.978291e-04  -6.187464e-06  0 
VECTORS displacement_ITER9 FLOAT
 1.679780e-03  1.594363e-05  0 
 0  0  0 
 1.701869e-03  3.635282e-05  0 
 1.688102e-03  3.316100e-05  0 
 1.791582e-03  1.168586e-05  0 
 1.747533e-03  1.182418e-05  0 
 0  0  0 
 1.559859e-03  1.585792e-05  0 
 1.415674e-03  1.514350e-05  0 
 1.250512e-03  9.138854e-06  0 
 1.054659e-03  1.164321e-05  0 
 8.193649e-04  1.781920e-05  0 
 5.617702e-04  1.469971e-05  0 
 2.891526e-04  1.467991e-05  0 
 1.672933e-03  8.910452e-06  0 
 1.657573e-03  3.886325e-06  0 
 1.645348e-03  1.194242e-05  0 
 0  0  0 
 0  0  0 
 0  0  0 
 0  0  0 
 1.757998e-03  3.404011e-05  0 
 1.793490e-03  4.680063e-05  0 
 1.802894e-03  3.498267e-05  0 
 1.786324e-03  3.024468e-05  0 
 1.752537e-03  3.111553e-05  0 
 1.437084e-03  2.995291e-05  0 
 1.576840e-03  3.549345e-05  0 
 1.116522e-03  1.871997e-05  0 
 1.318607e-03  2.433806e-05  0 
 6.461377e-04  -1.049798e-05  0 