# vtk DataFile Version 3.1
this is an vtk file created by FEMAC
ASCII
DATASET UNSTRUCTURED_GRID
POINTS 104 FLOAT
6.000000 3.000000 0.000000
5.500000 3.000000 0.000000
5.625000 3.000000 0.000000
5.750000 3.000000 0.000000
5.875000 3.000000 0.000000
6.000000 2.250000 0.000000
6.000000 2.375000 0.000000
6.000000 2.500000 0.000000
6.000000 2.625000 0.000000
6.000000 2.750000 0.000000
6.000000 2.875000 0.000000
6.375000 1.000000 0.000000
6.250000 2.000000 0.000000
6.375000 2.000000 0.000000
6.500000 2.000000 0.000000
6.625000 2.000000 0.000000
6.750000 2.000000 0.000000
6.875000 2.000000 0.000000
6.125000 3.000000 0.000000
5.818411 2.878217 0.000000
5.852762 2.638949 0.000000
5.590463 2.892337 0.000000
5.886947 2.372767 0.000000
5.910805 2.775240 0.000000
5.697728 2.879716 0.000000
5.920843 2.905691 0.000000
5.920560 2.500185 0.000000
6.465861 1.502680 0.000000
6.246744 1.226310 0.000000
6.832268 1.863701 0.000000
6.240911 1.500490 0.000000
6.519645 1.761370 0.000000
6.481225 1.231229 0.000000
6.324121 1.714796 0.000000
6.328389 1.297230 0.000000
6.683542 1.646736 0.000000
6.363818 1.171854 0.000000
6.340094 1.853301 0.000000
6.683131 1.897856 0.000000
6.260206 1.085342 0.000000
6.243295 1.909732 0.000000
6.118583 1.148751 0.000000
6.486724 1.362694 0.000000
6.492808 1.653632 0.000000
6.508745 1.869982 0.000000
6.391894 1.391416 0.000000
6.394052 1.628313 0.000000
6.344960 1.503942 0.000000
6.580865 1.914657 0.000000
6.566591 1.436804 0.000000
6.574762 1.570138 0.000000
6.431738 1.904941 0.000000
6.290190 1.404688 0.000000
6.287334 1.601697 0.000000
6.168331 1.398732 0.000000
6.478016 1.110908 0.000000
6.416566 1.290686 0.000000
6.577603 1.309611 0.000000
6.233858 1.323813 0.000000
6.597911 1.702308 0.000000
6.602134 1.822720 0.000000
6.430172 1.769477 0.000000
6.700073 1.771534 0.000000
6.574852 1.181867 0.000000
6.499968 2.553895 0.000000
6.723767 2.242588 0.000000
6.330522 2.212050 0.000000
6.234496 2.775186 0.000000
6.868409 2.187745 0.000000
6.191857 2.189413 0.000000
6.113285 2.851583 0.000000
6.247502 2.516391 0.000000
6.323598 2.713167 0.000000
6.375911 2.835134 0.000000
6.371979 2.346378 0.000000
6.637275 2.353042 0.000000
6.128293 2.712262 0.000000
6.301012 2.098363 0.000000
6.242705 2.911136 0.000000
6.515895 2.313923 0.000000
6.366186 2.532640 0.000000
6.118919 2.513593 0.000000
6.398981 2.633211 0.000000
6.735717 2.359300 0.000000
6.437179 2.444864 0.000000
6.104014 2.402625 0.000000
6.568343 2.444054 0.000000
6.292940 2.612170 0.000000
6.792959 2.105816 0.000000
6.233822 2.680846 0.000000
6.170246 2.610044 0.000000
6.200496 2.435322 0.000000
6.608198 2.228982 0.000000
6.306813 2.424388 0.000000
6.227961 2.328152 0.000000
6.687920 2.439227 0.000000
6.440357 2.223245 0.000000
6.413348 2.731394 0.000000
6.101459 2.282053 0.000000
6.668714 2.116382 0.000000
6.413959 2.108911 0.000000
6.538875 2.141635 0.000000
6.907273 2.083712 0.000000
6.059571 2.931646 0.000000
CELLS 157 628 
3 19  4  3
3 6 22  5
3 1 21  2
3 23  9 10
3 23  8  9
3 8 23 20
3 4 25  0
3 25 10  0
3 10 25 23
3 19 25  4
3 25 19 23
3 24 19  3
3 2 21 24
3 2 24  3
3 26  7  8
3 20 26  8
3 26  6  7
3 22  6 26
3 29 17 16
3 28 41 39
3 36 34 28
3 29 16 38
3 39 11 36
3 28 39 36
3 38 16 15
3 40 13 12
3 13 40 37
3 27 45 42
3 46 27 43
3 27 47 45
3 47 27 46
3 14 48 15
3 48 38 15
3 48 14 44
3 49 27 42
3 27 50 43
3 51 14 13
3 37 51 13
3 14 51 44
3 52 34 45
3 33 53 46
3 30 54 52
3 55 36 11
3 32 56 36
3 56 34 36
3 56 32 42
3 32 57 42
3 34 58 28
3 58 34 52
3 59 31 43
3 31 60 44
3 61 31 44
3 38 62 29
3 56 45 34
3 42 45 56
3 49 42 57
3 59 50 35
3 43 50 59
3 49 50 27
3 61 51 37
3 44 51 61
3 48 60 38
3 48 44 60
3 52 47 30
3 45 47 52
3 47 53 30
3 47 46 53
3 63 57 32
3 59 60 31
3 52 54 58
3 31 61 43
3 33 61 37
3 46 61 33
3 46 43 61
3 59 35 62
3 38 60 62
3 59 62 60
3 55 32 36
3 63 32 55
3 70 10  9
3 76 67 70
3 77 66 69
3 67 78 70
3 72 73 67
3 78 18 70
3 70  9 76
3 13 77 12
3 76  9  8
3 78 67 73
3 64 82 80
3 83 75 65
3 84 74 79
3 84 64 80
3 85  7  6
3 7 85 81
3 75 86 79
3 87 71 80
3 88 68 65
3 89 72 67
3 76 89 67
3 72 89 87
3 71 90 81
3 90 71 87
3 91 71 81
3 92 65 75
3 71 93 80
3 66 94 69
3 95 75 83
3 74 96 79
3 97 72 82
3 72 97 73
3 5 98  6
3 75 79 92
3 98 85  6
3 94 98 69
3 84 86 64
3 84 79 86
3 87 82 72
3 80 82 87
3 84 93 74
3 84 80 93
3 95 86 75
3 81 85 91
3 91 93 71
3 90 89 76
3 87 89 90
3 8  7 81
3 8 90 76
3 8 81 90
3 66 96 74
3 74 94 66
3 74 93 94
3 91 94 93
3 16 99 15
3 99 88 65
3 92 99 65
3 88 99 16
3 14 100  13
3 66  77 100
3 96  66 100
3 77  13 100
3 91 85 94
3 94 85 98
3 101 100  14
3 15 101  14
3 15  99 101
3 101  99  92
3 101  96 100
3 96 92 79
3 96 101  92
3 88 16 17
3 17 102  88
3 102  68  88
3 10 103   0
3 18 103  70
3 103  18   0
3 103  10  70
CELL_TYPES 157
5 5 5 5 5 5 5 5 5 5 5 5 5 5 5 5 5 5 5 5 5 5 5 5 5 5 5 5 5 5 5 5 5 5 5 5 5 5 5 5 5 5 5 5 5 5 5 5 5 5 5 5 5 5 5 5 5 5 5 5 5 5 5 5 5 5 5 5 5 5 5 5 5 5 5 5 5 5 5 5 5 5 5 5 5 5 5 5 5 5 5 5 5 5 5 5 5 5 5 5 5 5 5 5 5 5 5 5 5 5 5 5 5 5 5 5 5 5 5 5 5 5 5 5 5 5 5 5 5 5 5 5 5 5 5 5 5 5 5 5 5 5 5 5 5 5 5 5 5 5 5 5 5 5 5 5 5 
POINT_DATA 104
VECTORS displacement_ITER1 FLOAT
 0  0  0 
 0  0  0 
 0  0  0 
 0  0  0 
 0  0  0 
 1.262648e-04  1.095652e-05  0 
 9.890558e-05  8.979754e-06  0 
 7.198651e-05  7.840597e-06  0 
 4.469406e-05  7.052134e-06  0 
 2.139630e-05  2.781920e-06  0 
 4.771076e-06  -2.922894e-06  0 
 2.826126e-04  1.183949e-04  0 
 1.916132e-04  7.225047e-05  0 
 1.954971e-04  9.827622e-05  0 
 1.983804e-04  1.228902e-04  0 
 2.007407e-04  1.457149e-04  0 
 2.010500e-04  1.694682e-04  0 
 2.008547e-04  1.917909e-04  0 
 0  0  0 
 7.866125e-06  -3.784837e-07  0 
 4.556027e-05  -1.746953e-05  0 
 6.276727e-06  -2.481793e-09  0 
 9.763802e-05  -1.435311e-05  0 
 1.372864e-05  -3.638584e-06  0 
 7.303815e-06  2.822713e-07  0 
 4.942862e-06  -8.125876e-07  0 
 7.132083e-05  -9.411088e-06  0 
 2.850812e-04  1.224122e-04  0 
 2.919651e-04  1.204369e-04  0 
 2.277190e-04  1.837981e-04  0 
 2.773101e-04  1.045692e-04  0 
 2.483371e-04  1.287890e-04  0 
 2.913048e-04  1.173559e-04  0 
 2.531273e-04  1.005266e-04  0 
 2.932217e-04  1.187449e-04  0 
 2.644511e-04  1.527271e-04  0 
 2.908448e-04  1.180913e-04  0 
 2.267109e-04  9.658539e-05  0 
 2.219607e-04  1.567188e-04  0 
 2.863029e-04  1.215240e-04  0 
 2.105754e-04  7.375144e-05  0 
 2.867863e-04  1.338038e-04  0 
 2.905803e-04  1.210931e-04  0 
 2.678294e-04  1.245591e-04  0 
 2.267681e-04  1.268366e-04  0 
 2.908057e-04  1.186661e-04  0 
 2.701012e-04  1.130973e-04  0 
 2.821790e-04  1.120626e-04  0 
 2.181847e-04  1.388779e-04  0 
 2.856445e-04  1.282217e-04  0 
 2.776100e-04  1.338128e-04  0 
 2.178800e-04  1.116158e-04  0 
 2.865324e-04  1.129213e-04  0 
 2.692911e-04  1.023752e-04  0 
 2.796870e-04  1.074391e-04  0 
 2.882644e-04  1.163124e-04  0 
 2.928567e-04  1.182859e-04  0 
 2.882396e-04  1.231859e-04  0 
 2.878472e-04  1.152039e-04  0 
 2.585748e-04  1.405929e-04  0 
 2.360755e-04  1.426650e-04  0 
 2.467406e-04  1.142977e-04  0 
 2.448133e-04  1.592706e-04  0 
 2.892942e-04  1.196276e-04  0 
 7.702784e-05  1.054937e-04  0 
 1.494779e-04  1.628657e-04  0 
 1.458111e-04  8.239492e-05  0 
 2.955438e-05  3.990903e-05  0 
 1.616376e-04  1.920681e-04  0 
 1.464933e-04  5.091743e-05  0 
 1.323376e-05  1.145065e-05  0 
 7.550968e-05  5.120489e-05  0 
 4.074734e-05  5.954705e-05  0 
 3.433539e-05  5.981130e-05  0 
 1.164686e-04  8.460696e-05  0 
 1.234620e-04  1.430749e-04  0 
 3.363897e-05  2.167920e-05  0 
 1.718116e-04  7.960851e-05  0 
 1.819030e-05  3.097763e-05  0 
 1.292876e-04  1.179388e-04  0 
 7.544846e-05  7.528671e-05  0 
 7.007213e-05  2.826882e-05  0 
 5.730722e-05  7.800313e-05  0 
 1.216340e-04  1.660512e-04  0 
 9.586010e-05  9.539737e-05  0 
 9.424243e-05  2.700949e-05  0 
 1.006403e-04  1.254575e-04  0 
 5.708052e-05  5.778772e-05  0 
 1.790341e-04  1.771187e-04  0 
 4.219760e-05  4.333047e-05  0 
 5.397138e-05  3.233844e-05  0 
 8.884547e-05  4.626665e-05  0 
 1.505596e-04  1.396305e-04  0 
 9.487307e-05  6.602039e-05  0 
 1.133141e-04  5.438044e-05  0 
 1.024737e-04  1.551417e-04  0 
 1.478039e-04  1.043449e-04  0 
 4.502144e-05  7.250363e-05  0 
 1.209507e-04  2.869039e-05  0 
 1.760063e-04  1.534276e-04  0 
 1.726810e-04  1.032609e-04  0 
 1.691029e-04  1.269532e-04  0 
 1.827366e-04  1.987342e-04  0 
 1.301162e-06  5.299588e-07  0 
VECTORS displacement_ITER2 FLOAT
 0  0  0 
 0  0  0 
 0  0  0 
 0  0  0 
 0  0  0 
 1.168151e-05  -3.499934e-05  0 
 8.558225e-06  -2.969240e-05  0 
 3.165346e-06  -1.997702e-05  0 
 -1.581494e-06  -1.086238e-05  0 
 -3.551939e-06  -5.919291e-06  0 
 -1.465190e-06  -2.147403e-06  0 
 7.638284e-04  -1.166005e-04  0 
 6.778265e-05  -5.900445e-05  0 
 5.073007e-05  -2.126998e-05  0 
 4.712470e-05  1.199416e-05  0 
 5.100005e-05  4.430817e-05  0 
 5.846910e-05  7.008976e-05  0 
 6.081098e-05  9.399705e-05  0 
 0  0  0 
 1.294276e-06  -1.746666e-08  0 
 8.006712e-06  -1.332246e-05  0 
 9.469927e-07  8.886989e-08  0 
 1.361941e-05  -2.699072e-05  0 
 -5.399646e-07  -2.474909e-06  0 
 1.150312e-06  2.091388e-07  0 
 2.598795e-07  -4.241997e-07  0 
 9.039171e-06  -2.172823e-05  0 
 3.063551e-04  -3.009653e-05  0 
 5.617783e-04  -2.139984e-04  0 
 9.388615e-05  8.882891e-05  0 
 3.357323e-04  -1.821343e-04  0 
 1.363952e-04  1.186819e-05  0 
 5.458131e-04  -2.243229e-05  0 
 1.816832e-04  -8.895833e-05  0 
 4.905195e-04  -1.451699e-04  0 
 2.022271e-04  7.320336e-05  0 
 6.052728e-04  -1.242077e-04  0 
 1.088683e-04  -5.292579e-05  0 
 7.967927e-05  6.348395e-05  0 
 6.859918e-04  -2.089906e-04  0 
 1.019520e-04  -7.351420e-05  0 
 6.342566e-04  -2.966433e-04  0 
 4.258626e-04  -1.875831e-05  0 
 1.894043e-04  -1.423194e-06  0 
 8.796148e-05  1.008114e-05  0 
 4.046679e-04  -9.033209e-05  0 
 2.172665e-04  -6.352044e-05  0 
 3.183733e-04  -1.102332e-04  0 
 7.109355e-05  3.612774e-05  0 
 3.617090e-04  3.649770e-05  0 
 2.467909e-04  4.121551e-05  0 
 7.969968e-05  -9.366404e-06  0 
 4.050418e-04  -1.607793e-04  0 
 2.519221e-04  -1.346071e-04  0 
 4.262898e-04  -2.480068e-04  0 
 6.600040e-04  -2.820298e-05  0 
 4.916019e-04  -7.572012e-05  0 
 4.751203e-04  4.944128e-05  0 
 4.790278e-04  -2.115151e-04  0 
 1.635606e-04  4.274233e-05  0 
 1.074095e-04  4.468728e-05  0 
 1.348609e-04  -2.156472e-05  0 
 1.291897e-04  6.886696e-05  0 
 5.899619e-04  4.799293e-05  0 
 -2.194565e-05  3.336515e-06  0 
 7.502629e-06  5.316200e-05  0 
 2.462533e-06  -2.033832e-05  0 
 -1.005943e-05  -1.041117e-06  0 
 1.877114e-05  1.000386e-04  0 
 1.344070e-05  -3.464309e-05  0 
 -5.305530e-06  -1.343033e-06  0 
 -1.249606e-05  -1.222309e-05  0 
 -1.506550e-05  -2.390650e-06  0 
 -8.750625e-06  -1.272280e-06  0 
 -1.215570e-05  -1.266707e-05  0 
 -1.064586e-05  2.790145e-05  0 
 -7.815430e-06  -5.163666e-06  0 
 2.796955e-05  -2.968511e-05  0 
 -4.184440e-06  2.534453e-07  0 
 -9.305069e-06  6.734718e-06  0 
 -1.858276e-05  -6.559300e-06  0 
 -5.913174e-06  -1.548613e-05  0 
 -1.887387e-05  -2.262389e-06  0 
 -7.593933e-06  5.075113e-05  0 
 -2.033541e-05  -4.185234e-06  0 
 -9.700645e-07  -2.421559e-05  0 
 -2.009344e-05  1.348596e-05  0 
 -1.592189e-05  -6.072144e-06  0 
 3.609632e-05  7.581462e-05  0 
 -1.284314e-05  -4.542305e-06  0 
 -9.970153e-06  -9.577057e-06  0 
 -9.022263e-06  -1.780454e-05  0 
 4.740756e-06  2.651682e-05  0 
 -1.481126e-05  -1.481496e-05  0 
 -5.813409e-06  -2.367174e-05  0 
 -1.869099e-05  3.648245e-05  0 
 -4.715774e-08  -3.814860e-06  0 
 -1.467300e-05  -1.977738e-06  0 
 7.059103e-06  -3.377498e-05  0 
 2.876935e-05  4.634543e-05  0 
 2.094832e-05  -8.412743e-06  0 
 1.602303e-05  1.727548e-05  0 
 3.608025e-05  1.079034e-04  0 
 -1.816771e-06  1.200199e-07  0 
VECTORS displacement_ITER3 FLOAT
 0  0  0 
 0  0  0 
 0  0  0 
 0  0  0 
 0  0  0 
 3.437887e-04  -3.859644e-05  0 
 3.676844e-04  -3.818994e-05  0 
 3.285754e-04  -1.180813e-05  0 
 2.497223e-04  1.985768e-05  0 
 1.546634e-04  1.235044e-05  0 
 6.715235e-05  -8.463648e-07  0 
 -3.406536e-04  1.187316e-04  0 
 4.430527e-04  -7.064016e-05  0 
 4.298544e-04  -5.968953e-05  0 
 4.253513e-04  -5.473639e-05  0 
 4.143786e-04  -5.228972e-05  0 
 4.011219e-04  -4.381897e-05  0 
 3.876924e-04  -5.169418e-05  0 
 0  0  0 
 6.455673e-05  1.405761e-06  0 
 2.610120e-04  -5.704787e-05  0 
 5.037079e-05  4.816176e-07  0 
 3.697676e-04  -3.833305e-05  0 
 1.292189e-04  -2.574935e-06  0 
 5.865795e-05  3.159004e-06  0 
 4.948247e-05  -1.528096e-06  0 
 3.476957e-04  -3.866845e-05  0 
 4.563329e-04  -6.239056e-05  0 
 4.449627e-05  3.037803e-04  0 
 4.320942e-04  -6.528078e-05  0 
 3.725470e-04  1.634194e-04  0 
 5.106016e-04  -7.055510e-05  0 
 9.113319e-05  -7.089588e-05  0 
 5.041934e-04  -1.897859e-05  0 
 1.784201e-04  1.545104e-04  0 
 4.709284e-04  -1.280218e-04  0 
 -2.358013e-05  1.222214e-04  0 
 4.859064e-04  -5.578413e-05  0 
 4.479412e-04  -6.119600e-05  0 
 -1.928041e-04  3.131928e-04  0 
 4.567348e-04  -8.000055e-05  0 
 -1.204535e-04  5.992255e-04  0 
 2.925767e-04  -7.906534e-05  0 
 5.274421e-04  -7.565392e-05  0 
 4.768022e-04  -5.929476e-05  0 
 3.203042e-04  4.091888e-05  0 
 5.170141e-04  -2.735430e-05  0 
 4.252827e-04  5.478254e-05  0 
 4.551411e-04  -6.233775e-05  0 
 3.799211e-04  -1.611223e-04  0 
 4.836546e-04  -1.316061e-04  0 
 4.659211e-04  -5.991512e-05  0 
 2.983072e-04  1.593638e-04  0 
 4.639723e-04  6.267620e-05  0 
 2.245999e-04  3.094110e-04  0 
 -1.271599e-04  -5.773512e-05  0 
 1.825463e-04  2.209540e-05  0 
 2.109686e-04  -1.933691e-04  0 
 1.715113e-04  2.737837e-04  0 
 5.075674e-04  -9.754472e-05  0 
 4.816426e-04  -7.427725e-05  0 
 5.171624e-04  -6.070820e-05  0 
 4.752305e-04  -8.251648e-05  0 
 7.779311e-06  -1.961393e-04  0 
 1.938984e-04  1.559024e-05  0 
 2.866709e-04  -2.802173e-05  0 
 3.421187e-04  -4.345363e-05  0 
 1.562681e-04  6.315731e-05  0 
 3.025456e-04  -2.704416e-05  0 
 3.686215e-04  -4.420539e-05  0 
 9.764332e-05  2.261217e-05  0 
 2.671061e-04  2.180240e-05  0 
 1.664106e-04  6.431232e-05  0 
 1.330819e-04  7.710182e-05  0 
 2.877993e-04  -2.179149e-05  0 
 2.421597e-04  -1.777449e-05  0 
 1.909356e-04  3.858121e-05  0 
 3.934085e-04  -5.548561e-05  0 
 7.879096e-05  5.152301e-05  0 
 2.730516e-04  -2.584256e-05  0 
 2.282174e-04  2.368300e-05  0 
 2.890241e-04  1.329838e-05  0 
 1.818579e-04  4.144862e-05  0 
 2.159342e-04  8.801102e-08  0 
 2.370644e-04  -3.844332e-07  0 
 3.386544e-04  -2.041362e-05  0 
 2.153217e-04  -7.910556e-06  0 
 2.113635e-04  4.652239e-05  0 
 3.492293e-04  -3.586541e-05  0 
 1.909831e-04  5.134861e-05  0 
 2.356697e-04  2.997534e-05  0 
 2.989247e-04  5.469432e-06  0 
 3.032185e-04  -2.929848e-05  0 
 2.753522e-04  -5.628455e-06  0 
 3.193895e-04  -2.374992e-05  0 
 1.892438e-04  1.017521e-05  0 
 3.228617e-04  -4.136224e-05  0 
 1.474216e-04  5.506249e-05  0 
 3.500194e-04  -4.825847e-05  0 
 3.527050e-04  -3.794264e-05  0 
 3.795344e-04  -5.326958e-05  0 
 3.538016e-04  -4.207969e-05  0 
 3.446418e-04  -4.087343e-05  0 
 3.594268e-05  1.312777e-06  0 
VECTORS displacement_ITER4 FLOAT
 0  0  0 
 0  0  0 
 0  0  0 
 0  0  0 
 0  0  0 
 1.019458e-03  -8.084223e-05  0 
 9.247664e-04  -7.417432e-05  0 
 7.472621e-04  -4.748668e-05  0 
 5.098271e-04  -1.580883e-05  0 
 3.224008e-04  -6.436997e-06  0 
 1.518718e-04  -5.252237e-06  0 
 7.899131e-04  -4.108075e-04  0 
 1.115568e-03  -1.052358e-04  0 
 1.079350e-03  -1.362892e-04  0 
 1.032317e-03  -1.371282e-04  0 
 9.914300e-04  -1.309554e-04  0 
 9.659071e-04  -1.572013e-04  0 
 9.533612e-04  -1.728456e-04  0 
 0  0  0 
 1.560008e-04  6.852384e-06  0 
 5.554478e-04  -1.214900e-04  0 
 1.217409e-04  3.589599e-06  0 
 9.390984e-04  -1.703070e-04  0 
 2.915001e-04  -1.133860e-05  0 
 1.414146e-04  1.096813e-05  0 
 1.173370e-04  -3.632753e-06  0 
 7.683657e-04  -1.334260e-04  0 
 1.184069e-03  -3.185202e-04  0 
 1.174686e-03  -3.298643e-04  0 
 9.901334e-04  -1.794993e-04  0 
 1.233954e-03  -3.259678e-04  0 
 1.047752e-03  -2.003910e-04  0 
 1.156185e-03  -4.000119e-04  0 
 1.149794e-03  -2.685050e-04  0 
 1.212465e-03  -3.512769e-04  0 
 1.034803e-03  -1.946429e-04  0 
 1.135725e-03  -3.693748e-04  0 
 1.097202e-03  -1.869360e-04  0 
 9.971617e-04  -1.602470e-04  0 
 9.857254e-04  -2.876979e-04  0 
 1.138499e-03  -1.269452e-04  0 
 1.034330e-03  -2.988754e-04  0 
 1.202003e-03  -3.628150e-04  0 
 1.097080e-03  -2.399225e-04  0 
 1.046449e-03  -1.685957e-04  0 
 1.226572e-03  -3.523724e-04  0 
 1.155376e-03  -2.807023e-04  0 
 1.222047e-03  -3.185881e-04  0 
 1.024296e-03  -1.588667e-04  0 
 1.160330e-03  -3.269994e-04  0 
 1.097620e-03  -2.527951e-04  0 
 1.063712e-03  -1.692651e-04  0 
 1.246384e-03  -3.268405e-04  0 
 1.193738e-03  -3.108786e-04  0 
 1.249001e-03  -3.313469e-04  0 
 9.944401e-04  -4.560229e-04  0 
 1.198241e-03  -3.718607e-04  0 
 1.157001e-03  -3.928009e-04  0 
 1.234461e-03  -3.258876e-04  0 
 1.043878e-03  -2.032030e-04  0 
 1.020434e-03  -1.830981e-04  0 
 1.076230e-03  -2.056524e-04  0 
 1.014262e-03  -1.704203e-04  0 
 1.046924e-03  -4.808936e-04  0 
 5.662798e-04  3.983549e-05  0 
 8.279290e-04  -9.752802e-05  0 
 9.776636e-04  -4.355245e-05  0 
 2.759585e-04  5.976419e-05  0 
 8.312310e-04  -1.551346e-04  0 
 1.057951e-03  -3.204232e-05  0 
 1.834990e-04  1.540601e-05  0 
 6.812806e-04  5.156729e-05  0 
 3.498152e-04  9.230880e-05  0 
 2.009252e-04  1.160728e-04  0 
 8.352472e-04  7.453551e-08  0 
 7.433058e-04  -5.006960e-05  0 
 3.682154e-04  1.692900e-05  0 
 1.067741e-03  -8.991551e-05  0 
 1.203670e-04  6.059069e-05  0 
 8.109826e-04  -3.634050e-05  0 
 6.323724e-04  6.770458e-05  0 
 6.907901e-04  1.026265e-05  0 
 4.616430e-04  8.503163e-05  0 
 6.850926e-04  -3.635480e-05  0 
 7.153813e-04  2.577210e-05  0 
 8.635088e-04  -2.333201e-05  0 
 6.774678e-04  -1.496534e-05  0 
 5.139778e-04  7.343486e-05  0 
 9.061644e-04  -1.504086e-04  0 
 4.069973e-04  5.363612e-05  0 
 5.260182e-04  2.597996e-05  0 
 7.918549e-04  3.488373e-05  0 
 8.676612e-04  -7.275985e-05  0 
 7.845027e-04  3.883329e-05  0 
 9.084870e-04  1.655543e-05  0 
 6.264199e-04  -2.782351e-06  0 
 9.253079e-04  -5.561709e-05  0 
 3.085168e-04  1.001690e-04  0 
 9.883097e-04  -5.458651e-05  0 
 9.283465e-04  -1.139886e-04  0 
 1.011806e-03  -9.422146e-05  0 
 9.474477e-04  -8.973782e-05  0 
 9.092445e-04  -1.735944e-04  0 
 7.945273e-05  2.310341e-06  0 
VECTORS displacement_ITER5 FLOAT
 0  0  0 
 0  0  0 
 0  0  0 
 0  0  0 
 0  0  0 
 1.060055e-03  9.963417e-06  0 
 1.045346e-03  -3.757416e-05  0 
 8.748467e-04  -2.050790e-05  0 
 6.242813e-04  6.474012e-06  0 
 4.246357e-04  2.756432e-06  0 
 2.106165e-04  -4.023990e-06  0 
 1.459546e-03  -4.915634e-05  0 
 1.300484e-03  -2.587888e-06  0 
 1.305000e-03  -3.255940e-05  0 
 1.295775e-03  -1.842041e-05  0 
 1.282254e-03  -1.200989e-05  0 
 1.271754e-03  -1.691797e-05  0 
 1.257069e-03  -1.024565e-05  0 
 0  0  0 
 2.109144e-04  1.241582e-05  0 
 6.625525e-04  -1.114688e-04  0 
 1.664521e-04  5.668978e-06  0 
 1.016255e-03  -8.416907e-05  0 
 3.829130e-04  -2.265573e-06  0 
 1.921754e-04  1.551593e-05  0 
 1.629129e-04  -3.640125e-07  0 
 8.929958e-04  -1.097908e-04  0 
 1.355268e-03  3.040537e-05  0 
 1.488455e-03  -1.055331e-04  0 
 1.327885e-03  -2.724332e-05  0 
 1.369502e-03  -2.907826e-05  0 
 1.354398e-03  -1.558960e-05  0 
 1.465157e-03  9.322570e-05  0 
 1.329624e-03  1.086106e-05  0 
 1.430172e-03  -1.368915e-05  0 
 1.380737e-03  -4.570412e-06  0 
 1.504284e-03  4.735167e-06  0 
 1.342909e-03  -1.099612e-05  0 
 1.322245e-03  -1.907566e-05  0 
 1.525860e-03  -8.477238e-05  0 
 1.321095e-03  6.720338e-06  0 
 1.519546e-03  -3.531020e-04  0 
 1.412950e-03  5.676443e-05  0 
 1.351831e-03  -1.302549e-06  0 
 1.345167e-03  -2.613225e-05  0 
 1.392219e-03  2.577906e-05  0 
 1.336213e-03  1.699089e-05  0 
 1.354257e-03  1.999918e-05  0 
 1.322774e-03  -1.940828e-05  0 
 1.395431e-03  6.182811e-05  0 
 1.370992e-03  1.934477e-05  0 
 1.338896e-03  -2.615481e-05  0 
 1.403106e-03  -1.283965e-05  0 
 1.337801e-03  8.014784e-06  0 
 1.443019e-03  -1.322561e-04  0 
 1.450549e-03  5.107436e-05  0 
 1.427829e-03  4.384289e-05  0 
 1.460789e-03  1.047755e-04  0 
 1.453415e-03  -8.605562e-05  0 
 1.365056e-03  -6.319997e-06  0 
 1.355852e-03  -2.199304e-05  0 
 1.347185e-03  -1.577207e-05  0 
 1.369658e-03  -2.330489e-05  0 
 1.425188e-03  7.822639e-05  0 
 6.842411e-04  5.164331e-05  0 
 1.057825e-03  1.431838e-05  0 
 1.145237e-03  -2.612335e-06  0 
 3.754309e-04  6.623662e-05  0 
 1.105940e-03  -2.362402e-05  0 
 1.196530e-03  2.671311e-06  0 
 2.565742e-04  2.415688e-05  0 
 8.034059e-04  5.500121e-05  0 
 4.646974e-04  9.147884e-05  0 
 2.839754e-04  1.070408e-04  0 
 9.816102e-04  1.424684e-05  0 
 9.216103e-04  2.186583e-05  0 
 4.837017e-04  2.963315e-05  0 
 1.254860e-03  -2.031096e-05  0 
 1.724964e-04  6.260018e-05  0 
 9.892750e-04  7.226574e-06  0 
 7.494404e-04  5.889552e-05  0 
 8.170840e-04  2.898686e-05  0 
 5.732117e-04  7.795014e-05  0 
 8.982512e-04  2.918976e-05  0 
 8.478951e-04  3.354306e-05  0 
 9.916408e-04  -4.898848e-06  0 
 8.226940e-04  2.794160e-05  0 
 6.302736e-04  7.250877e-05  0 
 1.182777e-03  -4.157684e-06  0 
 5.267737e-04  6.087983e-05  0 
 6.448893e-04  4.013257e-05  0 
 9.171076e-04  4.344064e-05  0 
 1.089912e-03  7.970827e-06  0 
 9.071422e-04  3.310504e-05  0 
 1.030057e-03  2.079031e-05  0 
 8.146347e-04  3.382019e-05  0 
 1.114953e-03  -7.543364e-06  0 
 4.220874e-04  9.336645e-05  0 
 1.095201e-03  -3.029920e-05  0 
 1.191960e-03  -4.962448e-06  0 
 1.226018e-03  -1.937151e-05  0 
 1.185079e-03  -4.131990e-06  0 
 1.207038e-03  -2.538498e-05  0 
 1.108558e-04  4.122508e-06  0 
VECTORS displacement_ITER6 FLOAT
 0  0  0 
 0  0  0 
 0  0  0 
 0  0  0 
 0  0  0 
 1.319119e-03  1.428757e-05  0 
 1.163746e-03  2.869758e-06  0 
 9.673620e-04  -4.416406e-06  0 
 7.273028e-04  -8.065937e-06  0 
 5.195497e-04  -6.882858e-06  0 
 2.677722e-04  -2.133110e-06  0 
 1.473646e-03  -4.702244e-05  0 
 1.556156e-03  -4.130306e-05  0 
 1.542813e-03  -3.729215e-05  0 
 1.538275e-03  -2.517222e-05  0 
 1.530825e-03  -2.952508e-06  0 
 1.531270e-03  6.104522e-06  0 
 1.535607e-03  1.053785e-05  0 
 0  0  0 
 2.620061e-04  1.578295e-05  0 
 7.585388e-04  -7.079619e-05  0 
 2.104593e-04  7.248711e-06  0 
 1.168898e-03  -1.235314e-04  0 
 4.807103e-04  6.348442e-06  0 
 2.405833e-04  1.799199e-05  0 
 2.049087e-04  2.209983e-06  0 
 9.683503e-04  -8.541523e-05  0 
 1.804295e-03  -2.333399e-05  0 
 1.711668e-03  -2.011353e-05  0 
 1.635462e-03  1.835605e-05  0 
 1.796743e-03  -3.721939e-05  0 
 1.715336e-03  -2.478689e-05  0 
 1.714199e-03  -5.928033e-06  0 
 1.738588e-03  -4.582256e-05  0 
 1.743721e-03  -1.310112e-05  0 
 1.764617e-03  -1.205578e-06  0 
 1.685079e-03  -5.809239e-06  0 
 1.663312e-03  -4.853663e-05  0 
 1.608403e-03  6.015380e-06  0 
 1.609717e-03  3.542238e-06  0 
 1.628729e-03  -4.746737e-05  0 
 1.649546e-03  -8.914630e-05  0 
 1.776213e-03  -1.652246e-05  0 
 1.767786e-03  -1.957501e-05  0 
 1.638469e-03  -2.856630e-05  0 
 1.781547e-03  -1.838572e-05  0 
 1.778689e-03  -3.137488e-05  0 
 1.802375e-03  -2.539509e-05  0 
 1.599453e-03  -1.273174e-05  0 
 1.793128e-03  -2.290358e-05  0 
 1.785530e-03  -8.320555e-06  0 
 1.617608e-03  -2.971457e-05  0 
 1.782953e-03  -1.969493e-05  0 
 1.782052e-03  -3.947337e-05  0 
 1.778455e-03  -5.387495e-05  0 
 1.584464e-03  -3.366856e-05  0 
 1.741486e-03  -1.006850e-05  0 
 1.755651e-03  -2.606692e-05  0 
 1.756873e-03  -2.737037e-05  0 
 1.751331e-03  -7.360246e-06  0 
 1.670848e-03  -9.809007e-06  0 
 1.710641e-03  -3.362262e-05  0 
 1.706859e-03  1.134372e-05  0 
 1.636254e-03  -6.061955e-05  0 
 8.425889e-04  3.406542e-06  0 
 1.265098e-03  1.432221e-06  0 
 1.337551e-03  -1.953420e-05  0 
 4.436785e-04  1.583666e-05  0 
 1.328670e-03  -7.832025e-06  0 
 1.392191e-03  2.723202e-05  0 
 3.105441e-04  1.278763e-05  0 
 9.353091e-04  3.164084e-05  0 
 5.759094e-04  3.398371e-05  0 
 3.266487e-04  2.950735e-05  0 
 1.157595e-03  -1.422180e-06  0 
 1.122905e-03  -8.599466e-06  0 
 5.748861e-04  3.748328e-06  0 
 1.455613e-03  -3.054811e-05  0 
 1.949719e-04  1.682825e-05  0 
 1.178402e-03  -1.039315e-05  0 
 9.038749e-04  3.802512e-05  0 
 9.403870e-04  2.510932e-05  0 
 7.203581e-04  4.499870e-05  0 
 1.145542e-03  -4.255121e-05  0 
 1.022526e-03  4.342478e-06  0 
 1.121468e-03  2.510845e-05  0 
 1.013352e-03  -9.523615e-06  0 
 7.643515e-04  2.991283e-05  0 
 1.418594e-03  2.714379e-06  0 
 6.407581e-04  2.202954e-05  0 
 7.667912e-04  2.243807e-05  0 
 1.066696e-03  3.302077e-05  0 
 1.284751e-03  -8.581597e-06  0 
 1.080264e-03  3.366159e-05  0 
 1.218391e-03  3.384132e-05  0 
 1.055596e-03  -5.778121e-05  0 
 1.305509e-03  -1.744990e-05  0 
 5.418680e-04  4.650324e-05  0 
 1.285524e-03  2.722254e-05  0 
 1.409318e-03  -2.369466e-06  0 
 1.431464e-03  -3.079729e-05  0 
 1.384158e-03  -1.487599e-05  0 
 1.450204e-03  5.027169e-07  0 
 1.417822e-04  5.091246e-06  0 
VECTORS displacement_ITER7 FLOAT
 0  0  0 
 0  0  0 
 0  0  0 
 0  0  0 
 0  0  0 
 1.389611e-03  -4.419803e-05  0 
 1.202417e-03  -3.216450e-05  0 
 1.019229e-03  -3.377970e-05  0 
 7.778511e-04  -3.110869e-05  0 
 5.520087e-04  -2.013587e-05  0 
 2.867751e-04  -6.219095e-06  0 
 1.528599e-03  -1.471545e-05  0 
 1.616351e-03  -2.625680e-05  0 
 1.614901e-03  -3.121441e-05  0 
 1.605948e-03  -2.996557e-05  0 
 1.589110e-03  -2.549152e-05  0 
 1.578405e-03  -2.592537e-05  0 
 1.571214e-03  -2.532557e-05  0 
 0  0  0 
 2.861519e-04  1.380620e-05  0 
 8.122867e-04  -6.438474e-05  0 
 2.395672e-04  7.276136e-06  0 
 1.227907e-03  -1.595636e-04  0 
 5.167255e-04  2.713530e-06  0 
 2.693338e-04  1.513014e-05  0 
 2.222119e-04  2.152778e-06  0 
 1.024379e-03  -9.712472e-05  0 
 1.777328e-03  -3.221866e-05  0 
 1.700655e-03  -7.356505e-07  0 
 1.665497e-03  -2.953485e-05  0 
 1.773620e-03  -7.258509e-06  0 
 1.749022e-03  -4.423635e-05  0 
 1.714652e-03  2.592177e-06  0 
 1.763258e-03  -2.784619e-05  0 
 1.721418e-03  -4.631622e-06  0 
 1.772877e-03  -4.771567e-05  0 
 1.689701e-03  5.151659e-06  0 
 1.720032e-03  -3.370675e-05  0 
 1.653224e-03  -3.019180e-05  0 
 1.626189e-03  2.696391e-05  0 
 1.689345e-03  -2.262047e-05  0 
 1.651080e-03  -7.412564e-05  0 
 1.751789e-03  -1.968736e-05  0 
 1.775946e-03  -3.511308e-05  0 
 1.691765e-03  -4.497152e-05  0 
 1.752078e-03  -1.778682e-05  0 
 1.779775e-03  -3.237824e-05  0 
 1.775028e-03  -2.028735e-05  0 
 1.651912e-03  -3.503762e-05  0 
 1.771428e-03  -3.284824e-05  0 
 1.775999e-03  -3.510611e-05  0 
 1.680818e-03  -3.174009e-05  0 
 1.752574e-03  -7.226103e-06  0 
 1.780743e-03  -1.662279e-05  0 
 1.752530e-03  -3.065325e-06  0 
 1.619943e-03  -1.217330e-05  0 
 1.724067e-03  -7.490439e-06  0 
 1.749658e-03  -1.667250e-05  0 
 1.731020e-03  -2.587872e-06  0 
 1.771197e-03  -3.949830e-05  0 
 1.714358e-03  -4.022160e-05  0 
 1.746961e-03  -4.055479e-05  0 
 1.738378e-03  -3.624826e-05  0 
 1.661762e-03  -3.415012e-05  0 
 8.896145e-04  1.124157e-06  0 
 1.319962e-03  -8.778850e-06  0 
 1.400848e-03  -2.238916e-05  0 
 4.608156e-04  -9.791642e-06  0 
 1.375191e-03  -3.912597e-05  0 
 1.446708e-03  -2.896770e-06  0 
 3.233889e-04  6.948024e-06  0 
 9.712770e-04  2.288662e-06  0 
 5.986375e-04  -4.368518e-07  0 
 3.370748e-04  -1.109131e-05  0 
 1.209030e-03  -6.824967e-06  0 
 1.176845e-03  -3.657144e-06  0 
 6.033249e-04  -1.061646e-05  0 
 1.525181e-03  -2.994154e-05  0 
 1.973577e-04  -8.223046e-06  0 
 1.240500e-03  -7.361971e-06  0 
 9.443808e-04  1.069853e-05  0 
 9.856980e-04  -6.885424e-06  0 
 7.560612e-04  1.763822e-05  0 
 1.165072e-03  -9.872246e-06  0 
 1.070962e-03  -4.089191e-06  0 
 1.159340e-03  -1.303250e-05  0 
 1.063138e-03  -7.587780e-07  0 
 7.996252e-04  -2.658433e-06  0 
 1.464076e-03  -2.210999e-05  0 
 6.684401e-04  -6.048410e-06  0 
 8.029786e-04  -1.124284e-06  0 
 1.102819e-03  -2.112720e-06  0 
 1.348407e-03  -9.552769e-06  0 
 1.115743e-03  9.131431e-06  0 
 1.260958e-03  5.181282e-07  0 
 1.070015e-03  -9.686243e-06  0 
 1.371319e-03  -1.290732e-05  0 
 5.679171e-04  1.283447e-05  0 
 1.328592e-03  -1.005345e-05  0 
 1.465405e-03  -1.861240e-05  0 
 1.503910e-03  -2.572647e-05  0 
 1.452113e-03  -1.522006e-05  0 
 1.491879e-03  -3.685096e-05  0 
 1.502532e-04  5.191504e-06  0 
VECTORS displacement_ITER8 FLOAT
 0  0  0 
 0  0  0 
 0  0  0 
 0  0  0 
 0  0  0 
 1.312002e-03  2.703606e-05  0 
 1.161676e-03  2.472355e-05  0 
 1.002078e-03  1.650427e-05  0 
 7.801497e-04  1.196592e-05  0 
 5.387657e-04  6.363022e-06  0 
 2.771310e-04  9.161872e-07  0 
 1.583480e-03  -7.254137e-06  0 
 1.563974e-03  6.807345e-06  0 
 1.570906e-03  -8.247184e-06  0 
 1.568357e-03  -1.882813e-05  0 
 1.558709e-03  -2.420705e-05  0 
 1.553499e-03  -2.701509e-05  0 
 1.549963e-03  -2.169082e-05  0 
 0  0  0 
 2.699067e-04  1.029787e-05  0 
 7.683599e-04  8.077003e-06  0 
 2.369663e-04  7.132882e-06  0 
 1.173624e-03  -2.085793e-05  0 
 4.891663e-04  1.416682e-05  0 
 2.620822e-04  9.155146e-06  0 
 2.117625e-04  5.868496e-06  0 
 1.003402e-03  2.141421e-06  0 
 1.752981e-03  3.870642e-06  0 
 1.698324e-03  -1.160028e-06  0 
 1.642519e-03  -2.336636e-05  0 
 1.763901e-03  -3.505674e-06  0 
 1.691405e-03  -1.577885e-05  0 
 1.701133e-03  1.561985e-05  0 
 1.703266e-03  6.983438e-07  0 
 1.721647e-03  5.312778e-07  0 
 1.737178e-03  -1.312736e-05  0 
 1.670094e-03  2.510671e-06  0 
 1.655851e-03  -3.384365e-06  0 
 1.621769e-03  -2.575698e-05  0 
 1.638982e-03  -4.854073e-06  0 
 1.631245e-03  1.750610e-05  0 
 1.685104e-03  -6.974075e-05  0 
 1.742008e-03  4.221747e-06  0 
 1.724000e-03  -2.847670e-06  0 
 1.641127e-03  -2.240974e-05  0 
 1.750311e-03  -5.928392e-06  0 
 1.729959e-03  1.299349e-06  0 
 1.761448e-03  -6.882854e-06  0 
 1.613173e-03  -2.425530e-05  0 
 1.746909e-03  4.101823e-06  0 
 1.743558e-03  4.585866e-06  0 
 1.626642e-03  -9.438006e-06  0 
 1.753943e-03  -2.068609e-06  0 
 1.746692e-03  -6.529007e-06  0 
 1.756157e-03  3.187568e-07  0 
 1.629605e-03  1.821611e-05  0 
 1.717928e-03  -1.339275e-06  0 
 1.731420e-03  5.800806e-06  0 
 1.734177e-03  -5.294763e-07  0 
 1.718838e-03  -1.084890e-05  0 
 1.666891e-03  -2.228071e-05  0 
 1.685047e-03  -8.384316e-06  0 