# vtk DataFile Version 3.1
this is an vtk file created by FEMAC
ASCII
DATASET UNSTRUCTURED_GRID
POINTS 99 FLOAT
2.000000 1.625000 0.000000
2.000000 1.750000 0.000000
2.250000 1.000000 0.000000
2.375000 1.000000 0.000000
2.500000 1.000000 0.000000
2.125000 2.000000 0.000000
2.250000 2.000000 0.000000
2.375000 2.000000 0.000000
2.500000 2.000000 0.000000
2.625000 2.000000 0.000000
2.750000 2.000000 0.000000
2.875000 2.000000 0.000000
3.000000 2.250000 0.000000
3.000000 2.375000 0.000000
3.000000 2.500000 0.000000
2.185857 0.898777 0.000000
2.305981 0.912675 0.000000
2.508101 1.557363 0.000000
2.326132 1.223482 0.000000
2.754774 1.780890 0.000000
2.228679 1.778330 0.000000
2.211814 1.195808 0.000000
2.114478 1.850685 0.000000
2.251868 1.517436 0.000000
2.771018 1.478474 0.000000
2.502521 1.801167 0.000000
2.317944 1.709389 0.000000
2.673037 1.718492 0.000000
2.381599 1.352714 0.000000
2.626088 1.836835 0.000000
2.392843 1.860645 0.000000
2.825317 1.332172 0.000000
2.590463 1.108426 0.000000
2.129383 1.712311 0.000000
2.380229 1.093953 0.000000
2.740986 1.916227 0.000000
2.255786 1.901655 0.000000
2.373263 1.534585 0.000000
2.512800 1.383914 0.000000
2.498539 1.151346 0.000000
2.121013 1.514569 0.000000
2.639406 1.534753 0.000000
2.404339 1.634277 0.000000
2.416377 1.188565 0.000000
2.604545 1.637040 0.000000
2.505503 1.682902 0.000000
2.608848 1.223749 0.000000
2.444091 1.456064 0.000000
2.253986 1.119870 0.000000
2.297025 1.612911 0.000000
2.551408 1.473779 0.000000
2.236253 1.681071 0.000000
2.706249 1.611690 0.000000
2.172590 1.610550 0.000000
2.314314 1.431570 0.000000
2.761292 1.685406 0.000000
2.180988 1.403058 0.000000
2.473370 1.261983 0.000000
2.619582 1.422217 0.000000
2.405133 1.753012 0.000000
2.836879 1.610317 0.000000
2.692462 1.334830 0.000000
2.581412 1.325338 0.000000
2.250172 1.304843 0.000000
2.586179 1.734789 0.000000
2.164914 1.100101 0.000000
2.105605 1.247038 0.000000
2.318497 1.801756 0.000000
2.503575 1.916441 0.000000
2.502135 2.450532 0.000000
2.695515 2.774954 0.000000
2.753166 2.221693 0.000000
2.749810 2.486152 0.000000
2.494550 2.203363 0.000000
2.629729 2.663399 0.000000
2.670046 2.286301 0.000000
2.383818 2.134872 0.000000
2.618123 2.163921 0.000000
2.863978 2.288936 0.000000
2.740451 2.084356 0.000000
2.255245 2.098914 0.000000
2.881442 2.147498 0.000000
2.878507 2.487899 0.000000
2.633062 2.470896 0.000000
2.599919 2.369249 0.000000
2.501856 2.321607 0.000000
2.898171 2.601060 0.000000
2.723251 2.661323 0.000000
2.562111 2.559939 0.000000
2.702556 2.389025 0.000000
2.825816 2.389984 0.000000
2.790532 2.588639 0.000000
2.682534 2.570449 0.000000
2.763112 2.315188 0.000000
2.809574 2.706992 0.000000
2.402828 2.249658 0.000000
2.583187 2.269228 0.000000
2.499415 2.083693 0.000000
2.317029 2.199861 0.000000
CELLS 157 628 
3 2 16  3
3 16  2 15
3 33 20 22
3 35 11 10
3 29 27 19
3 22  1 33
3 34  2  3
3 9 35 10
3 35  9 29
3 19 35 29
3 4 34  3
3 33  1  0
3 36  6  5
3 36  7  6
3 7 36 30
3 39  4 32
3 4 39 34
3 17 42 37
3 43 34 39
3 34 43 18
3 44 17 41
3 17 45 42
3 45 17 44
3 47 17 37
3 47 28 38
3 21 48 18
3 34 48  2
3 48 34 18
3 49 23 37
3 17 50 41
3 51 26 20
3 33 51 20
3 26 51 49
3 24 52 41
3 23 53 40
3 53 23 49
3 23 54 37
3 27 55 19
3 55 27 52
3 56 23 40
3 28 57 38
3 58 24 41
3 59 25 30
3 59 26 42
3 24 60 52
3 18 63 21
3 25 64 29
3 27 64 44
3 64 27 29
3 39 32 46
3 49 42 26
3 37 42 49
3 47 54 28
3 47 37 54
3 47 50 17
3 47 38 50
3 38 57 62
3 41 50 58
3 44 52 27
3 44 41 52
3 59 45 25
3 42 45 59
3 56 54 23
3 45 64 25
3 45 44 64
3 46 61 62
3 53 51 33
3 49 51 53
3 55 52 60
3 65  2 48
3 21 65 48
3 28 63 18
3 28 54 63
3 63 54 56
3 18 57 28
3 57 18 43
3 0 53 33
3 0 40 53
3 61 31 24
3 24 58 61
3 21 66 65
3 58 50 38
3 62 58 38
3 62 61 58
3 63 66 21
3 56 66 63
3 57 43 39
3 39 46 57
3 62 57 46
3 67 20 26
3 67 30 36
3 20 67 36
3 59 67 26
3 59 30 67
3 25 68 30
3 7 68  8
3 7 30 68
3 8 68  9
3 68 29  9
3 29 68 25
3 81 71 79
3 11 79 10
3 81 78 71
3 75 77 71
3 11 81 79
3 79  9 10
3 9 79 77
3 79 71 77
3 78 12 13
3 6 80  5
3 7 80  6
3 80  7 76
3 81 12 78
3 69 84 83
3 69 85 84
3 14 86 82
3 74 87 70
3 88 69 83
3 89 72 83
3 72 90 82
3 90 72 89
3 91 72 82
3 72 92 83
3 74 92 87
3 93 75 71
3 78 93 71
3 75 93 89
3 94 70 87
3 73 95 76
3 96 73 77
3 96 75 84
3 75 96 77
3 82 86 91
3 88 92 74
3 88 83 92
3 89 84 75
3 83 84 89
3 85 95 73
3 96 85 73
3 84 85 96
3 91 92 72
3 91 87 92
3 90 93 78
3 90 89 93
3 13 14 82
3 13 90 78
3 13 82 90
3 91 86 94
3 91 94 87
3 8 97  7
3 97 76  7
3 76 98 80
3 76 95 98
3 97 73 76
3 97  8  9
3 77 97  9
3 73 97 77
CELL_TYPES 157
5 5 5 5 5 5 5 5 5 5 5 5 5 5 5 5 5 5 5 5 5 5 5 5 5 5 5 5 5 5 5 5 5 5 5 5 5 5 5 5 5 5 5 5 5 5 5 5 5 5 5 5 5 5 5 5 5 5 5 5 5 5 5 5 5 5 5 5 5 5 5 5 5 5 5 5 5 5 5 5 5 5 5 5 5 5 5 5 5 5 5 5 5 5 5 5 5 5 5 5 5 5 5 5 5 5 5 5 5 5 5 5 5 5 5 5 5 5 5 5 5 5 5 5 5 5 5 5 5 5 5 5 5 5 5 5 5 5 5 5 5 5 5 5 5 5 5 5 5 5 5 5 5 5 5 5 5 
POINT_DATA 99
VECTORS displacement_ITER1 FLOAT
 4.931605e-03  1.022802e-04  0 
 4.913442e-03  1.770842e-04  0 
 3.769148e-03  8.892607e-05  0 
 3.674158e-03  -3.077370e-04  0 
 3.588338e-03  -6.092263e-04  0 
 4.243203e-03  3.960653e-04  0 
 4.185092e-03  4.097848e-04  0 
 4.128033e-03  4.812968e-04  0 
 4.098460e-03  5.304673e-04  0 
 4.066220e-03  5.952493e-04  0 
 3.998771e-03  6.458848e-04  0 
 3.931082e-03  7.128858e-04  0 
 3.651940e-03  7.816279e-04  0 
 3.516040e-03  7.784499e-04  0 
 3.399312e-03  7.367816e-04  0 
 2.586619e-03  9.085795e-04  0 
 3.041747e-03  -1.519063e-04  0 
 4.663947e-03  2.045804e-04  0 
 4.534532e-03  -6.024038e-05  0 
 4.244453e-03  4.348422e-04  0 
 4.693119e-03  2.946602e-04  0 
 4.453909e-03  1.799210e-04  0 
 4.747830e-03  2.829245e-04  0 
 4.911459e-03  1.880915e-04  0 
 4.244573e-03  -7.404209e-05  0 
 4.472938e-03  4.475581e-04  0 
 4.742312e-03  3.397039e-04  0 
 4.391431e-03  3.559876e-04  0 
 4.698746e-03  8.538117e-06  0 
 4.339610e-03  4.842419e-04  0 
 4.434578e-03  4.687527e-04  0 
 3.868886e-03  -5.270784e-04  0 
 3.862378e-03  -5.944182e-04  0 
 4.832555e-03  1.765319e-04  0 
 4.107004e-03  -2.549568e-04  0 
 4.126838e-03  5.961586e-04  0 
 4.365464e-03  3.678545e-04  0 
 4.815090e-03  2.063059e-04  0 
 4.550568e-03  -5.371770e-05  0 
 4.151787e-03  -3.910272e-04  0 
 4.936455e-03  1.578582e-04  0 
 4.464021e-03  9.852448e-05  0 
 4.738353e-03  3.012012e-04  0 
 4.348316e-03  -2.168720e-04  0 
 4.523335e-03  2.746854e-04  0 
 4.604726e-03  3.370704e-04  0 
 4.153343e-03  -4.007819e-04  0 
 4.703433e-03  9.647569e-05  0 
 4.239443e-03  9.776308e-05  0 
 4.845854e-03  2.590000e-04  0 
 4.553249e-03  5.995477e-05  0 
 4.824604e-03  2.566736e-04  0 
 4.375291e-03  1.752862e-04  0 
 4.912608e-03  1.851213e-04  0 
 4.833465e-03  1.229719e-04  0 
 4.263143e-03  2.764966e-04  0 
 4.884642e-03  1.609827e-04  0 
 4.440239e-03  -2.012523e-04  0 
 4.416845e-03  -5.223443e-05  0 
 4.621292e-03  4.019344e-04  0 
 4.161262e-03  1.194573e-04  0 
 4.180529e-03  -2.502175e-04  0 
 4.364056e-03  -1.999689e-04  0 
 4.744597e-03  8.549611e-05  0 
 4.469270e-03  3.914916e-04  0 
 4.180428e-03  2.959631e-04  0 
 4.579293e-03  3.809452e-04  0 
 4.596087e-03  3.963408e-04  0 
 4.288758e-03  5.126964e-04  0 
 3.332033e-03  5.322942e-04  0 
 3.106655e-03  5.692329e-04  0 
 3.690745e-03  7.086013e-04  0 
 3.347443e-03  6.749831e-04  0 
 3.728026e-03  5.608879e-04  0 
 3.160618e-03  5.653043e-04  0 
 3.600382e-03  6.714881e-04  0 
 3.876347e-03  4.998689e-04  0 
 3.787026e-03  6.402877e-04  0 
 3.607630e-03  7.505484e-04  0 
 3.884243e-03  6.869509e-04  0 
 3.960110e-03  4.548786e-04  0 
 3.777398e-03  7.562481e-04  0 
 3.373028e-03  7.246265e-04  0 
 3.339410e-03  6.156413e-04  0 
 3.468609e-03  6.194465e-04  0 
 3.530450e-03  5.516731e-04  0 
 3.286294e-03  6.915496e-04  0 
 3.187973e-03  6.162787e-04  0 
 3.230555e-03  5.480002e-04  0 
 3.459596e-03  6.710795e-04  0 
 3.475466e-03  7.252399e-04  0 
 3.261655e-03  6.669665e-04  0 
 3.250259e-03  6.204276e-04  0 
 3.568108e-03  7.069734e-04  0 
 3.185048e-03  6.335674e-04  0 
 3.643801e-03  5.195727e-04  0 
 3.624818e-03  6.177054e-04  0 
 3.959323e-03  5.495134e-04  0 
 3.753547e-03  4.825232e-04  0 
VECTORS displacement_ITER2 FLOAT
 4.300367e-03  4.046144e-05  0 
 4.388114e-03  1.425769e-04  0 
 2.974017e-03  -3.230515e-04  0 
 2.827035e-03  -6.608812e-04  0 
 2.681162e-03  -9.757679e-04  0 
 3.430589e-03  -4.709682e-04  0 
 3.444986e-03  -2.629924e-04  0 
 3.461500e-03  -1.206353e-04  0 
 3.456979e-03  -8.226006e-06  0 
 3.447697e-03  1.698865e-04  0 
 3.298253e-03  3.491530e-04  0 
 3.148939e-03  6.110983e-04  0 
 2.365560e-03  1.065019e-03  0 
 1.913542e-03  1.124357e-03  0 
 1.461232e-03  1.080174e-03  0 
 2.174189e-03  2.477839e-04  0 
 2.432189e-03  -5.692416e-04  0 
 4.095788e-03  -2.836393e-04  0 
 3.631259e-03  -3.525385e-04  0 
 3.707095e-03  -2.431122e-05  0 
 4.183011e-03  -1.075249e-04  0 
 3.600837e-03  -1.586076e-04  0 
 4.315035e-03  1.138513e-04  0 
 4.189277e-03  -1.339970e-04  0 
 3.660097e-03  -6.516715e-04  0 
 4.017573e-03  -7.451314e-05  0 
 4.217167e-03  -1.340425e-04  0 
 3.910000e-03  -1.721991e-04  0 
 3.886031e-03  -3.240578e-04  0 
 3.865047e-03  -3.236905e-06  0 
 3.970816e-03  -6.493541e-05  0 
 3.129581e-03  -1.222110e-03  0 
 2.915730e-03  -9.697008e-04  0 
 4.249143e-03  -2.721774e-05  0 
 3.206547e-03  -5.683713e-04  0 
 3.536969e-03  2.307711e-04  0 
 3.790185e-03  -2.339693e-04  0 
 4.171740e-03  -2.169440e-04  0 
 3.827405e-03  -4.706804e-04  0 
 3.218436e-03  -7.290418e-04  0 
 4.213910e-03  -4.625089e-05  0 
 3.918794e-03  -4.079264e-04  0 
 4.200050e-03  -1.784996e-04  0 
 3.436703e-03  -5.225440e-04  0 
 4.053496e-03  -2.532849e-04  0 
 4.153965e-03  -1.968503e-04  0 
 3.284198e-03  -8.103031e-04  0 
 4.025385e-03  -3.212223e-04  0 
 3.379080e-03  -2.610151e-04  0 
 4.244482e-03  -1.554866e-04  0 
 3.935257e-03  -4.081526e-04  0 
 4.248441e-03  -1.170662e-04  0 
 3.900443e-03  -3.676338e-04  0 
 4.259935e-03  -6.916104e-05  0 
 4.066432e-03  -2.059265e-04  0 
 3.759423e-03  -2.236281e-04  0 
 4.075690e-03  -1.008887e-04  0 
 3.587734e-03  -5.372576e-04  0 
 3.766927e-03  -5.317314e-04  0 
 4.185444e-03  -1.430103e-04  0 
 3.635495e-03  -3.970496e-04  0 
 3.477952e-03  -7.552501e-04  0 
 3.619521e-03  -6.206024e-04  0 
 3.878547e-03  -1.965113e-04  0 
 4.007064e-03  -1.184900e-04  0 
 3.367296e-03  -1.053462e-04  0 
 3.766113e-03  2.342439e-05  0 
 4.167237e-03  -1.349887e-04  0 
 3.791374e-03  -3.758932e-06  0 
 1.529090e-03  -1.613753e-04  0 
 4.210722e-04  2.813627e-04  0 
 2.579302e-03  5.173793e-04  0 
 1.475224e-03  5.243898e-04  0 
 2.656380e-03  -3.860251e-05  0 
 7.658172e-04  1.178034e-04  0 
 2.334921e-03  3.574589e-04  0 
 2.950193e-03  -1.731907e-04  0 
 2.840210e-03  2.358557e-04  0 
 2.291514e-03  7.832853e-04  0 
 3.071174e-03  4.342633e-04  0 
 3.037379e-03  -2.757180e-04  0 
 2.786727e-03  7.599338e-04  0 
 1.466368e-03  8.477823e-04  0 
 1.506323e-03  2.048811e-04  0 
 1.956902e-03  1.596520e-04  0 
 2.137589e-03  -8.502323e-05  0 
 1.084919e-03  8.471504e-04  0 
 8.048200e-04  4.070475e-04  0 
 1.126422e-03  -4.189000e-05  0 
 1.894105e-03  4.195032e-04  0 
 1.884339e-03  7.096681e-04  0 
 1.086925e-03  6.209176e-04  0 
 1.132682e-03  3.123188e-04  0 
 2.205995e-03  5.550160e-04  0 
 6.920223e-04  6.121897e-04  0 
 2.419868e-03  -1.771540e-04  0 
 2.400782e-03  1.415505e-04  0 
 3.194054e-03  -9.792380e-06  0 
 2.635184e-03  -2.777325e-04  0 
VECTORS displacement_ITER3 FLOAT
 3.079715e-03  5.022769e-04  0 
 3.187488e-03  6.525347e-04  0 
 3.006963e-03  -1.909219e-04  0 
 2.921067e-03  2.021169e-04  0 
 2.816672e-03  3.854177e-04  0 
 2.867202e-03  3.779766e-04  0 
 2.791495e-03  2.232190e-04  0 
 2.720296e-03  2.030312e-04  0 
 2.749431e-03  1.878454e-04  0 
 2.779649e-03  1.791380e-04  0 
 2.763141e-03  1.206125e-04  0 
 2.749341e-03  5.150319e-05  0 
 2.277473e-03  4.983150e-05  0 
 2.021304e-03  7.606817e-05  0 
 1.909410e-03  1.935155e-05  0 
 3.869845e-03  -7.822210e-04  0 
 3.496241e-03  -5.472195e-05  0 
 2.876073e-03  1.948758e-04  0 
 2.623383e-03  1.990717e-04  0 
 2.885575e-03  1.067780e-04  0 
 2.996312e-03  2.906592e-04  0 
 2.792035e-03  -4.426029e-05  0 
 3.207764e-03  5.855195e-04  0 
 2.847568e-03  2.298703e-04  0 
 2.922403e-03  1.652880e-04  0 
 2.912502e-03  2.014060e-04  0 
 2.946733e-03  2.069502e-04  0 
 2.895532e-03  1.488883e-04  0 
 2.680113e-03  2.205811e-04  0 
 2.875207e-03  1.671564e-04  0 
 2.915886e-03  2.250004e-04  0 
 2.737523e-03  4.814251e-05  0 
 2.703368e-03  4.152426e-04  0 
 2.997407e-03  4.304109e-04  0 
 2.706301e-03  2.715987e-04  0 
 2.815900e-03  1.211493e-04  0 
 2.853930e-03  1.690968e-04  0 
 2.850376e-03  2.035569e-04  0 
 2.744479e-03  2.837490e-04  0 
 2.654137e-03  3.576156e-04  0 
 2.929767e-03  3.072253e-04  0 
 2.934706e-03  2.062828e-04  0 
 2.909624e-03  1.921091e-04  0 
 2.648124e-03  2.977153e-04  0 
 2.941376e-03  1.508102e-04  0 
 2.951121e-03  1.606420e-04  0 
 2.683037e-03  3.548979e-04  0 
 2.774551e-03  2.138077e-04  0 
 2.773934e-03  -6.991076e-05  0 
 2.905894e-03  2.143056e-04  0 
 2.830312e-03  2.530514e-04  0 
 2.946340e-03  2.721536e-04  0 
 2.971587e-03  1.730816e-04  0 
 2.942532e-03  3.251523e-04  0 
 2.752069e-03  2.072313e-04  0 
 2.936285e-03  1.420093e-04  0 
 2.779254e-03  2.018797e-04  0 
 2.660363e-03  3.197337e-04  0 
 2.803546e-03  2.696948e-04  0 
 2.982119e-03  1.726780e-04  0 
 2.978902e-03  1.208606e-04  0 
 2.762638e-03  2.876004e-04  0 
 2.723302e-03  3.112506e-04  0 
 2.672110e-03  1.650926e-04  0 
 2.905080e-03  1.665813e-04  0 
 2.899615e-03  -2.425420e-04  0 
 2.903087e-03  -1.575506e-04  0 
 3.012561e-03  1.967310e-04  0 
 2.849271e-03  2.159323e-04  0 
 1.920462e-03  -1.816584e-05  0 
 1.678714e-03  4.470525e-05  0 
 2.425252e-03  9.445420e-05  0 
 1.887514e-03  1.302230e-04  0 
 2.416220e-03  1.350522e-04  0 
 1.677062e-03  3.562529e-05  0 
 2.312767e-03  1.085152e-04  0 
 2.526355e-03  1.718496e-04  0 
 2.499214e-03  1.486478e-04  0 
 2.234138e-03  8.619261e-05  0 
 2.650336e-03  1.297336e-04  0 
 2.567114e-03  2.679262e-04  0 
 2.565381e-03  4.611652e-05  0 
 1.875182e-03  1.347955e-04  0 
 1.899327e-03  9.354658e-05  0 
 2.127419e-03  8.317917e-05  0 
 2.175104e-03  6.271344e-05  0 
 1.810021e-03  6.749257e-05  0 
 1.702662e-03  9.515509e-05  0 
 1.756226e-03  1.885881e-05  0 
 2.072968e-03  1.300335e-04  0 
 2.055095e-03  1.262589e-04  0 
 1.767601e-03  1.293129e-04  0 
 1.774922e-03  9.545512e-05  0 
 2.220545e-03  1.223212e-04  0 
 1.733951e-03  5.820534e-05  0 
 2.277517e-03  1.213583e-04  0 
 2.322515e-03  1.253074e-04  0 
 2.621789e-03  1.593528e-04  0 
 2.365313e-03  1.873601e-04  0 
VECTORS displacement_ITER4 FLOAT
 2.829725e-03  1.294427e-05  0 
 2.660038e-03  6.253138e-06  0 
 2.614382e-03  -2.597575e-04  0 
 2.534764e-03  -2.177269e-04  0 
 2.442155e-03  -2.555998e-04  0 
 3.054344e-03  9.241311e-04  0 
 2.798845e-03  3.542984e-04  0 
 2.551891e-03  1.818026e-04  0 
 2.518623e-03  1.031409e-04  0 
 2.487429e-03  6.216187e-05  0 
 2.390313e-03  4.602432e-05  0 
 2.293387e-03  -7.404701e-06  0 
 1.901045e-03  1.201095e-04  0 
 1.724477e-03  2.210445e-04  0 
 1.631603e-03  2.033637e-04  0 
 2.490095e-03  -1.142790e-04  0 
 2.561688e-03  -2.763305e-04  0 
 2.504984e-03  1.862271e-05  0 
 2.669298e-03  -1.614607e-04  0 
 2.436768e-03  3.188541e-05  0 
 2.629280e-03  9.484407e-05  0 
 2.732966e-03  -2.215257e-04  0 
 2.538267e-03  3.105295e-05  0 
 2.673808e-03  -6.717729e-05  0 
 2.540181e-03  1.611391e-04  0 
 2.475739e-03  6.556284e-05  0 
 2.570522e-03  4.909156e-05  0 
 2.430426e-03  6.523171e-05  0 
 2.625644e-03  -1.089379e-04  0 
 2.432075e-03  6.600575e-05  0 
 2.525324e-03  1.127529e-04  0 
 2.698620e-03  4.852734e-04  0 
 2.462501e-03  -1.093690e-04  0 
 2.704934e-03  5.918278e-05  0 
 2.642154e-03  -1.664937e-04  0 
 2.451489e-03  -4.848029e-06  0 
 2.614304e-03  1.497797e-04  0 
 2.596254e-03  -3.134501e-05  0 
 2.572155e-03  -3.542744e-05  0 
 2.589297e-03  -1.253073e-04  0 
 2.771029e-03  -6.261195e-05  0 
 2.490423e-03  5.310979e-05  0 
 2.529361e-03  2.693265e-05  0 
 2.635128e-03  -1.279676e-04  0 
 2.478622e-03  4.083013e-05  0 
 2.492179e-03  3.051307e-05  0 
 2.527630e-03  6.959979e-06  0 
 2.553488e-03  -5.727426e-05  0 
 2.696524e-03  -2.351187e-04  0 
 2.608862e-03  -9.486515e-06  0 
 2.491424e-03  2.622364e-05  0 
 2.634891e-03  3.643795e-05  0 
 2.473045e-03  6.807705e-05  0 
 2.704557e-03  -6.038007e-06  0 
 2.635857e-03  -9.681289e-05  0 
 2.439362e-03  6.703264e-05  0 
 2.715349e-03  -1.363041e-04  0 
 2.612107e-03  -8.515473e-05  0 
 2.507637e-03  8.671200e-05  0 
 2.529033e-03  6.362709e-05  0 
 2.510662e-03  1.584465e-04  0 
 2.529656e-03  1.714226e-04  0 
 2.575999e-03  1.833723e-05  0 
 2.692334e-03  -1.598568e-04  0 
 2.449739e-03  5.033141e-05  0 
 2.717189e-03  -2.501632e-04  0 
 2.786072e-03  -2.351200e-04  0 
 2.576242e-03  8.938068e-05  0 
 2.474061e-03  9.320992e-05  0 
 1.942834e-03  2.351692e-04  0 
 1.002027e-03  4.294911e-04  0 
 2.184917e-03  1.882952e-04  0 
 1.710721e-03  4.037468e-04  0 
 2.422504e-03  1.943598e-04  0 
 1.246613e-03  3.931586e-04  0 
 2.189997e-03  2.353239e-04  0 
 2.565290e-03  2.396443e-04  0 
 2.348503e-03  1.473097e-04  0 
 1.973046e-03  2.357305e-04  0 
 2.341462e-03  1.029849e-04  0 
 2.656143e-03  5.212925e-04  0 
 2.166514e-03  1.051049e-04  0 
 1.635749e-03  3.857578e-04  0 
 1.830722e-03  3.651404e-04  0 
 2.099720e-03  2.927253e-04  0 
 2.241157e-03  2.199081e-04  0 
 1.409391e-03  3.281278e-04  0 
 1.250975e-03  4.599606e-04  0 
 1.571732e-03  3.131990e-04  0 
 1.967484e-03  3.278878e-04  0 
 1.859078e-03  3.430682e-04  0 
 1.413187e-03  4.416958e-04  0 
 1.508514e-03  4.308243e-04  0 
 2.047220e-03  2.793308e-04  0 
 1.185514e-03  3.876465e-04  0 
 2.396379e-03  2.671954e-04  0 
 2.285569e-03  2.336532e-04  0 
 2.494098e-03  1.112700e-04  0 
 2.527317e-03  4.051418e-04  0 
VECTORS displacement_ITER5 FLOAT
 2.897156e-03  3.205222e-04  0 
 2.926221e-03  4.240185e-04  0 
 2.237994e-03  -6.016833e-05  0 
 2.156042e-03  -1.748790e-04  0 
 2.060385e-03  -3.428585e-04  0 
 2.796037e-03  3.607597e-04  0 
 2.622963e-03  2.109924e-04  0 
 2.456031e-03  1.411041e-04  0 
 2.420877e-03  8.337495e-05  0 
 2.386032e-03  6.483821e-05  0 
 2.258615e-03  5.874971e-05  0 
 2.130070e-03  2.493943e-05  0 
 1.747028e-03  1.910061e-04  0 
 1.506249e-03  2.745649e-04  0 
 1.265037e-03  2.416122e-04  0 
 1.777310e-03  3.424882e-04  0 
 1.982640e-03  -1.506172e-04  0 
 2.640713e-03  -6.083776e-05  0 
 2.572595e-03  -7.729026e-05  0 
 2.441844e-03  -3.895566e-05  0 
 2.732570e-03  1.210247e-04  0 
 2.584881e-03  -1.631738e-05  0 
 2.858408e-03  3.434166e-04  0 
 2.756327e-03  2.281653e-05  0 
 2.587518e-03  -7.243989e-05  0 
 2.556758e-03  2.329558e-05  0 
 2.696879e-03  3.824235e-05  0 
 2.502169e-03  -3.320588e-05  0 
 2.650952e-03  -8.343391e-05  0 
 2.461638e-03  1.289150e-05  0 
 2.590994e-03  9.041364e-05  0 
 2.527260e-03  -4.531876e-05  0 
 2.215218e-03  -2.808864e-04  0 
 2.795665e-03  2.201995e-04  0 
 2.398725e-03  -1.299378e-04  0 
 2.375293e-03  -1.231677e-05  0 
 2.620780e-03  8.782142e-05  0 
 2.718399e-03  -3.584629e-05  0 
 2.625498e-03  -1.256905e-04  0 
 2.409498e-03  -1.978240e-04  0 
 2.825039e-03  1.394988e-04  0 
 2.597148e-03  -9.383723e-05  0 
 2.669831e-03  -6.166966e-06  0 
 2.497932e-03  -1.262761e-04  0 
 2.608804e-03  -6.841062e-05  0 
 2.633099e-03  -4.443489e-05  0 
 2.432220e-03  -1.731940e-04  0 
 2.659413e-03  -9.397624e-05  0 
 2.473085e-03  -5.692410e-05  0 
 2.732383e-03  1.089677e-05  0 
 2.598883e-03  -8.649497e-05  0 
 2.746718e-03  8.241751e-05  0 
 2.570672e-03  -8.330267e-05  0 
 2.790365e-03  1.274318e-04  0 
 2.707437e-03  -2.983793e-05  0 
 2.481052e-03  -5.321535e-05  0 
 2.747025e-03  4.265066e-05  0 
 2.558011e-03  -1.374948e-04  0 
 2.575400e-03  -8.069147e-05  0 
 2.664218e-03  1.812324e-05  0 
 2.537407e-03  -1.703961e-05  0 
 2.522636e-03  -6.660105e-05  0 
 2.575816e-03  -1.310814e-04  0 
 2.666710e-03  -1.826866e-05  0 
 2.540872e-03  -2.437188e-05  0 
 2.457885e-03  2.443400e-05  0 
 2.674559e-03  7.306072e-05  0 
 2.700401e-03  5.724818e-05  0 
 2.482820e-03  7.403276e-05  0 
 1.465608e-03  7.229603e-05  0 
 2.592617e-04  1.993368e-04  0 
 1.982227e-03  1.889842e-04  0 
 1.319241e-03  2.814814e-04  0 
 2.134817e-03  1.334476e-04  0 
 6.429260e-04  1.581939e-04  0 
 1.909409e-03  1.878112e-04  0 
 2.312368e-03  1.656610e-04  0 
 2.137779e-03  1.360404e-04  0 
 1.780647e-03  2.294786e-04  0 
 2.188294e-03  1.336949e-04  0 
 2.407693e-03  3.239705e-04  0 
 2.016125e-03  1.376111e-04  0 
 1.270062e-03  3.305702e-04  0 
 1.402699e-03  2.165006e-04  0 
 1.738239e-03  1.920106e-04  0 
 1.877113e-03  1.214224e-04  0 
 9.295950e-04  2.736461e-04  0 
 6.731520e-04  2.770645e-04  0 
 1.047921e-03  1.058783e-04  0 
 1.639993e-03  2.363002e-04  0 
 1.580572e-03  2.825099e-04  0 
 9.352915e-04  3.154330e-04  0 
 1.023776e-03  2.522265e-04  0 
 1.792922e-03  2.360165e-04  0 
 5.613092e-04  2.554251e-04  0 
 2.051899e-03  1.744368e-04  0 
 1.983091e-03  1.685489e-04  0 
 2.329079e-03  9.143978e-05  0 
 2.199389e-03  2.478949e-04  0 
VECTORS displacement_ITER6 FLOAT
 2.499232e-03  1.086252e-04  0 
 2.351919e-03  1.394392e-04  0 
 2.426414e-03  -2.091045e-05  0 
 2.371225e-03  5.060841e-05  0 
 2.304470e-03  4.483741e-05  0 
 2.252970e-03  1.574014e-04  0 
 2.150296e-03  1.666503e-04  0 
 2.051448e-03  1.378685e-04  0 
 2.045178e-03  9.253915e-05  0 
 2.040920e-03  5.852657e-05  0 
 2.024159e-03  2.795454e-05  0 
 2.007299e-03  -7.596143e-05  0 
 1.767526e-03  -1.515995e-04  0 
 1.574548e-03  -1.390440e-04  0 
 1.352218e-03  -1.680017e-04  0 
 2.303166e-03  9.081235e-05  0 
 2.366545e-03  -9.101727e-06  0 
 2.367153e-03  1.255052e-04  0 
 2.506118e-03  4.485421e-05  0 
 2.214318e-03  1.197182e-04  0 
 2.249140e-03  1.464447e-04  0 
 2.550480e-03  -9.339544e-06  0 
 2.202917e-03  1.719034e-04  0 
 2.466680e-03  7.345989e-05  0 
 2.439888e-03  2.466136e-04  0 
 2.183639e-03  1.012372e-04  0 
 2.281519e-03  1.081676e-04  0 
 2.232165e-03  1.495797e-04  0 
 2.490604e-03  7.453254e-05  0 
 2.129237e-03  1.006663e-04  0 
 2.157614e-03  1.124192e-04  0 
 2.329754e-03  1.245882e-04  0 
 2.378061e-03  9.530421e-05  0 
 2.346205e-03  1.507760e-04  0 
 2.461241e-03  7.923882e-05  0 
 2.100945e-03  4.039827e-05  0 
 2.174614e-03  1.048579e-04  0 
 2.416961e-03  9.740793e-05  0 
 2.456640e-03  1.300962e-04  0 
 2.466626e-03  9.617139e-05  0 
 2.541507e-03  8.882243e-05  0 
 2.387478e-03  1.521011e-04  0 
 2.313226e-03  1.104626e-04  0 
 2.489482e-03  7.880168e-05  0 
 2.329399e-03  1.200053e-04  0 
 2.285554e-03  9.004122e-05  0 
 2.435871e-03  1.579029e-04  0 
 2.429868e-03  1.000112e-04  0 
 2.498753e-03  -1.484050e-05  0 
 2.364146e-03  9.257391e-05  0 
 2.399563e-03  1.501830e-04  0 
 2.335625e-03  1.277772e-04  0 
 2.344402e-03  1.675188e-04  0 
 2.428140e-03  1.216169e-04  0 
 2.484165e-03  6.812710e-05  0 
 2.267646e-03  1.716474e-04  0 
 2.543851e-03  3.901218e-05  0 
 2.472102e-03  1.022207e-04  0 
 2.421206e-03  1.870443e-04  0 
 2.254891e-03  9.778079e-05  0 
 2.366785e-03  2.526492e-04  0 
 2.412351e-03  2.428421e-04  0 
 2.442345e-03  1.532340e-04  0 
 2.534785e-03  3.358477e-05  0 
 2.219429e-03  1.009365e-04  0 
 2.509707e-03  -2.168489e-05  0 
 2.604801e-03  -1.799126e-05  0 
 2.236146e-03  9.384300e-05  0 
 2.078705e-03  1.038580e-04  0 
 1.468666e-03  -2.939247e-05  0 
 6.729056e-04  -7.805516e-05  0 
 1.844557e-03  -2.426070e-05  0 
 1.389815e-03  -5.121755e-05  0 
 1.853251e-03  7.704804e-05  0 
 9.447472e-04  -7.528384e-05  0 
 1.766837e-03  -1.984915e-05  0 
 1.937233e-03  1.397894e-04  0 
 1.875338e-03  3.345690e-05  0 
 1.741789e-03  -9.194017e-05  0 
 1.956938e-03  2.652938e-05  0 
 1.998327e-03  2.284886e-04  0 
 1.919751e-03  -1.047029e-04  0 
 1.364789e-03  -7.987335e-05  0 
 1.438770e-03  -1.355021e-05  0 
 1.652017e-03  8.312762e-06  0 
 1.710599e-03  3.763289e-05  0 
 1.097771e-03  -1.255564e-04  0 
 9.598026e-04  -3.790476e-05  0 
 1.193693e-03  -6.006396e-05  0 
 1.601557e-03  -3.164215e-05  0 
 1.589421e-03  -6.879532e-05  0 
 1.115108e-03  -5.882174e-05  0 
 1.183617e-03  -3.384070e-05  0 
 1.716612e-03  -3.747468e-05  0 
 8.771788e-04  -9.914124e-05  0 
 1.793439e-03  1.172815e-04  0 
 1.785390e-03  3.820393e-05  0 
 1.959207e-03  8.012018e-05  0 
 1.866075e-03  1.810496e-04  0 
VECTORS displacement_ITER7 FLOAT
 2.552178e-03  -1.713447e-05  0 
 2.462170e-03  -1.522081e-05  0 
 2.173333e-03  -2.248190e-05  0 
 2.142700e-03  2.205863e-05  0 
 2.100530e-03  -2.569296e-05  0 
 2.339611e-03  -4.048107e-05  0 
 2.266642e-03  3.403018e-05  0 
 2.196455e-03  4.567156e-05  0 
 2.154004e-03  5.171590e-05  0 
 2.112706e-03  6.012401e-05  0 
 2.062380e-03  8.656379e-05  0 
 2.012537e-03  5.957512e-05  0 
 1.700867e-03  5.214156e-05  0 
 1.521567e-03  7.576695e-05  0 
 1.303543e-03  5.646353e-05  0 
 2.120590e-03  -1.659368e-05  0 
 2.122139e-03  -5.180337e-06  0 
 2.450225e-03  1.716603e-05  0 
 2.385944e-03  -9.451138e-06  0 
 2.283685e-03  5.403838e-05  0 
 2.390619e-03  3.005269e-05  0 
 2.395139e-03  -1.909883e-05  0 
 2.345414e-03  1.173704e-05  0 
 2.534579e-03  1.510670e-06  0 
 2.402638e-03  1.496480e-05  0 
 2.340503e-03  3.103968e-05  0 
 2.430998e-03  2.133185e-05  0 
 2.335449e-03  4.277093e-05  0 
 2.459743e-03  -1.826726e-05  0 
 2.276507e-03  4.648732e-05  0 
 2.312708e-03  2.529268e-05  0 
 2.203093e-03  -2.229757e-04  0 
 2.248072e-03  -5.331854e-05  0 
 2.466401e-03  1.208727e-05  0 
 2.262482e-03  2.943679e-05  0 
 2.170339e-03  6.967109e-05  0 
 2.323711e-03  -7.155945e-07  0 
 2.494633e-03  9.835595e-06  0 
 2.434851e-03  -4.328472e-07  0 
 2.328344e-03  -2.290785e-05  0 
 2.567369e-03  1.701380e-05  0 
 2.427168e-03  5.084939e-06  0 
 2.445361e-03  2.176772e-05  0 
 2.363507e-03  -6.308327e-06  0 
 2.411299e-03  1.365694e-05  0 
 2.411223e-03  1.445625e-05  0 
 2.350173e-03  -2.785665e-05  0 
 2.464378e-03  -1.344632e-06  0 
 2.298510e-03  -3.070536e-05  0 
 2.484942e-03  1.316690e-05  0 
 2.433160e-03  1.386720e-05  0 
 2.469564e-03  2.864685e-05  0 
 2.388052e-03  2.267872e-05  0 
 2.529959e-03  2.060151e-05  0 
 2.506129e-03  -9.909365e-06  0 
 2.322425e-03  4.720356e-05  0 
 2.527795e-03  6.668580e-06  0 
 2.395751e-03  -1.798083e-05  0 
 2.407416e-03  7.946203e-06  0 
 2.401544e-03  2.148913e-05  0 
 2.346144e-03  5.821487e-05  0 
 2.351163e-03  7.732643e-06  0 
 2.385728e-03  -1.592076e-05  0 
 2.455074e-03  -7.788484e-06  0 
 2.352880e-03  2.537268e-05  0 
 2.289482e-03  -2.251637e-06  0 
 2.463534e-03  -2.472955e-06  0 
 2.378099e-03  4.419300e-06  0 
 2.228785e-03  3.915685e-05  0 
 1.435070e-03  7.070261e-05  0 
 6.698251e-04  5.484198e-05  0 
 1.797438e-03  1.098289e-04  0 
 1.349493e-03  9.285525e-05  0 
 1.882232e-03  8.953593e-05  0 
 9.463317e-04  5.443054e-05  0 
 1.719901e-03  1.009357e-04  0 
 2.027773e-03  7.190659e-05  0 
 1.893215e-03  9.699504e-05  0 
 1.690431e-03  8.773259e-05  0 
 1.953835e-03  1.044048e-04  0 
 2.119681e-03  7.370936e-05  0 
 1.850486e-03  6.834738e-05  0 
 1.326525e-03  9.936119e-05  0 
 1.400744e-03  9.973177e-05  0 
 1.598317e-03  1.122970e-04  0 
 1.696255e-03  9.102401e-05  0 
 1.093679e-03  7.346296e-05  0 
 9.591377e-04  9.506053e-05  0 
 1.193888e-03  5.543469e-05  0 
 1.549445e-03  9.527201e-05  0 
 1.533654e-03  9.802015e-05  0 
 1.115578e-03  9.378244e-05  0 
 1.175684e-03  9.640232e-05  0 
 1.666905e-03  1.038420e-04  0 
 8.675424e-04  6.562294e-05  0 
 1.833093e-03  9.438069e-05  0 
 1.765086e-03  1.088577e-04  0 
 2.050463e-03  6.443259e-05  0 
 1.948168e-03  8.113082e-05  0 
VECTORS displacement_ITER8 FLOAT
 2.522208e-03  1.348689e-05  0 
 2.453629e-03  2.500440e-05  0 
 2.139149e-03  -4.675579e-05  0 
 2.121460e-03  -7.024096e-06  0 
 2.095683e-03  -3.477522e-05  0 
 2.247741e-03  1.171662e-04  0 
 2.203952e-03  7.664347e-05  0 
 2.161849e-03  5.911645e-05  0 
 2.153022e-03  3.280815e-05  0 
 2.145663e-03  1.831082e-05  0 
 2.114939e-03  3.075985e-05  0 
 2.085363e-03  2.634446e-05  0 
 1.719699e-03  7.135574e-05  0 
 1.528367e-03  9.116672e-05  0 
 1.281785e-03  8.013839e-05  0 
 2.104253e-03  -1.247299e-04  0 
 2.061682e-03  -2.437816e-05  0 
 2.371591e-03  1.338483e-05  0 
 2.336776e-03  -2.018380e-05  0 
 2.237374e-03  2.200095e-05  0 
 2.356615e-03  5.761048e-05  0 
 2.358674e-03  -2.533708e-05  0 
 2.330279e-03  5.242516e-05  0 
 2.475638e-03  1.835222e-05  0 
 2.318283e-03  8.568204e-06  0 
 2.291159e-03  4.543721e-05  0 
 2.386753e-03  5.403108e-05  0 
 2.267806e-03  3.311962e-05  0 
 2.388680e-03  -2.340949e-05  0 
 2.245371e-03  4.483871e-05  0 
 2.264910e-03  5.193793e-05  0 
 2.225422e-03  -8.635795e-05  0 
 2.193485e-03  -4.069319e-05  0 
 2.440485e-03  3.652658e-05  0 
 2.221460e-03  -9.460751e-06  0 
 2.198056e-03  2.495817e-05  0 
 2.264819e-03  5.972293e-05  0 
 2.428588e-03  1.217680e-05  0 
 2.362955e-03  -1.296736e-05  0 
 2.259040e-03  -2.812939e-05  0 
 2.511051e-03  3.075230e-05  0 
 2.336218e-03  8.230701e-07  0 
 2.386093e-03  3.367851e-05  0 
 2.299221e-03  -2.226626e-05  0 
 2.322426e-03  1.790200e-05  0 
 2.337844e-03  2.928252e-05  0 
 2.284993e-03  -2.615592e-05  0 
 2.388320e-03  -1.053228e-05  0 
 2.271806e-03  -4.388432e-05  0 
 2.439082e-03  3.326637e-05  0 
 2.350759e-03  3.264783e-06  0 
 2.432419e-03  4.773481e-05  0 
 2.295811e-03  1.209722e-05  0 
 2.486777e-03  3.657279e-05  0 
 2.434130e-03  -6.272842e-06  0 
 2.250882e-03  1.874685e-05  0 
 2.466895e-03  1.836621e-05  0 
 2.334181e-03  -2.482036e-05  0 
 2.332782e-03  3.452997e-06  0 
 2.341714e-03  5.103506e-05  0 
 2.267196e-03  2.477524e-05  0 
 2.296822e-03  5.948001e-06  0 
 2.327507e-03  -1.680617e-05  0 
 2.398572e-03  -8.598973e-06  0 
 2.289835e-03  3.432034e-05  0 
 2.270623e-03  -1.152828e-05  0 
 2.426019e-03  -3.996871e-07  0 
 2.322345e-03  5.406732e-05  0 
 2.200000e-03  4.261194e-05  0 
 1.423749e-03  7.464405e-06  0 
 6.082070e-04  3.123899e-06  0 
 1.818374e-03  5.321321e-05  0 
 1.340101e-03  3.502590e-05  0 
 1.908790e-03  2.767894e-05  0 
 9.019124e-04  -1.298560e-05  0 
 1.734199e-03  4.106679e-05  0 
 2.028461e-03  5.118934e-05  0 