# vtk DataFile Version 3.1
this is an vtk file created by FEMAC
ASCII
DATASET UNSTRUCTURED_GRID
POINTS 99 FLOAT
3.000000 0.000000 0.000000
2.125000 0.000000 0.000000
2.250000 0.000000 0.000000
2.375000 0.000000 0.000000
2.500000 0.000000 0.000000
2.625000 0.000000 0.000000
2.750000 0.000000 0.000000
2.875000 0.000000 0.000000
3.125000 0.000000 0.000000
3.250000 0.000000 0.000000
3.375000 0.000000 0.000000
3.500000 0.000000 0.000000
3.625000 0.000000 0.000000
2.375000 1.000000 0.000000
2.500000 1.000000 0.000000
3.000000 0.125000 0.000000
3.000000 0.250000 0.000000
3.000000 0.375000 0.000000
3.000000 0.500000 0.000000
3.000000 0.625000 0.000000
3.000000 0.750000 0.000000
2.499670 0.360742 0.000000
2.683260 0.615166 0.000000
2.329100 0.631666 0.000000
2.261618 0.222520 0.000000
2.736189 0.229332 0.000000
2.119756 0.143088 0.000000
2.881110 0.150703 0.000000
2.817421 0.910332 0.000000
2.727313 0.436804 0.000000
2.491129 0.224019 0.000000
2.271117 0.415027 0.000000
2.633635 0.155319 0.000000
2.395662 0.123278 0.000000
2.592252 0.458586 0.000000
2.438266 0.470739 0.000000
2.891498 0.593094 0.000000
2.366265 0.330237 0.000000
2.637186 0.313697 0.000000
2.194422 0.795291 0.000000
2.766097 0.808510 0.000000
2.749449 0.094006 0.000000
2.250436 0.093427 0.000000
2.859304 0.437638 0.000000
2.802033 0.526864 0.000000
2.425921 0.863568 0.000000
2.198668 0.496653 0.000000
2.232589 0.600604 0.000000
2.126171 0.698464 0.000000
2.904915 0.810446 0.000000
2.773622 0.614167 0.000000
2.508481 0.733243 0.000000
2.721623 0.704716 0.000000
2.262054 0.704572 0.000000
2.703193 0.533077 0.000000
2.837969 0.707108 0.000000
2.869629 0.294081 0.000000
2.765924 0.342310 0.000000
2.238755 0.322620 0.000000
2.123091 0.311752 0.000000
2.618786 0.562197 0.000000
2.926876 0.697130 0.000000
2.371958 0.723587 0.000000
2.617558 0.672824 0.000000
2.531402 0.584172 0.000000
2.291032 0.816412 0.000000
2.639225 0.786646 0.000000
2.319630 0.521262 0.000000
2.558179 0.884881 0.000000
2.354596 0.426703 0.000000
2.182427 0.400480 0.000000
2.185857 0.898777 0.000000
2.529085 0.100523 0.000000
2.305981 0.912675 0.000000
2.377971 0.226595 0.000000
2.416473 0.610778 0.000000
2.692654 0.898395 0.000000
2.939027 0.068926 0.000000
3.499670 0.360742 0.000000
3.261618 0.222520 0.000000
3.119756 0.143088 0.000000
3.491129 0.224019 0.000000
3.633635 0.155319 0.000000
3.395662 0.123278 0.000000
3.366265 0.330237 0.000000
3.107131 0.562061 0.000000
3.637186 0.313697 0.000000
3.250436 0.093427 0.000000
3.198668 0.496653 0.000000
3.232589 0.600604 0.000000
3.126171 0.698464 0.000000
3.238755 0.322620 0.000000
3.123091 0.311752 0.000000
3.354596 0.426703 0.000000
3.182427 0.400480 0.000000
3.061189 0.067022 0.000000
3.529085 0.100523 0.000000
3.101886 0.440991 0.000000
3.377971 0.226595 0.000000
CELLS 157 628 
3 27 15 16
3 21 37 30
3 38 21 30
3 25 41 27
3 42 24 26
3 34 35 21
3 38 34 21
3 29 34 38
3 38 32 25
3 30 32 38
3 1  2 42
3 26  1 42
3 6  7 41
3 7 27 41
3 41  5  6
3 5 41 32
3 41 25 32
3 3 42  2
3 42  3 33
3 24 42 33
3 36 18 19
3 36 43 18
3 36 44 43
3 44 29 43
3 36 50 44
3 52 22 50
3 23 53 47
3 54 29 44
3 29 54 34
3 36 55 50
3 25 57 38
3 57 29 38
3 57 25 56
3 31 58 37
3 58 24 37
3 59 26 24
3 60 34 54
3 22 60 54
3 20 61 19
3 61 36 19
3 22 63 60
3 64 34 60
3 58 59 24
3 43 17 18
3 13 45 14
3 54 50 22
3 44 50 54
3 48 53 39
3 48 47 53
3 61 55 36
3 52 55 40
3 52 50 55
3 60 63 64
3 61 20 49
3 40 49 28
3 40 55 49
3 49 55 61
3 53 65 39
3 66 52 40
3 64 35 34
3 27 56 25
3 56 27 16
3 17 56 16
3 47 67 23
3 31 67 46
3 47 46 67
3 68 14 45
3 69 31 37
3 69 35 67
3 31 69 67
3 46 70 31
3 70 58 31
3 17 43 56
3 57 43 29
3 56 43 57
3 64 63 51
3 59 58 70
3 51 68 45
3 51 66 68
3 72  4  5
3 32 72  5
3 33 74 24
3 37 74 30
3 74 37 24
3 74 33 30
3 73 45 13
3 65 45 73
3 39 65 71
3 65 73 71
3 62 51 45
3 45 65 62
3 30 72 32
3 72 30 33
3 22 52 63
3 66 51 63
3 63 52 66
3 23 75 62
3 75 23 67
3 66 76 68
3 75 51 62
3 64 51 75
3 75 35 64
3 67 35 75
3 53 23 62
3 53 62 65
3 4 33  3
3 33  4 72
3 69 21 35
3 37 21 69
3 40 28 76
3 66 40 76
3 77  7  0
3 77 15 27
3 15 77  0
3 7 77 27
3 15 80 16
3 78 84 81
3 86 78 81
3 87 79 80
3 81 82 86
3 8  9 87
3 80  8 87
3 10 87  9
3 87 10 83
3 79 87 83
3 18 85 19
3 89 85 88
3 90 85 89
3 91 79 84
3 92 80 79
3 80 92 16
3 91 92 79
3 19 85 90
3 90 20 19
3 8 95  0
3 15 95 80
3 95 15  0
3 95  8 80
3 17 16 92
3 92 91 94
3 96 11 12
3 82 96 12
3 97 18 17
3 83 98 79
3 84 98 81
3 98 84 79
3 98 83 81
3 92 97 17
3 92 94 97
3 18 97 85
3 88 97 94
3 97 88 85
3 81 96 82
3 96 81 83
3 11 83 10
3 83 11 96
3 84 78 93
CELL_TYPES 157
5 5 5 5 5 5 5 5 5 5 5 5 5 5 5 5 5 5 5 5 5 5 5 5 5 5 5 5 5 5 5 5 5 5 5 5 5 5 5 5 5 5 5 5 5 5 5 5 5 5 5 5 5 5 5 5 5 5 5 5 5 5 5 5 5 5 5 5 5 5 5 5 5 5 5 5 5 5 5 5 5 5 5 5 5 5 5 5 5 5 5 5 5 5 5 5 5 5 5 5 5 5 5 5 5 5 5 5 5 5 5 5 5 5 5 5 5 5 5 5 5 5 5 5 5 5 5 5 5 5 5 5 5 5 5 5 5 5 5 5 5 5 5 5 5 5 5 5 5 5 5 5 5 5 5 5 5 
POINT_DATA 99
VECTORS displacement_ITER1 FLOAT
 0  0  0 
 0  0  0 
 0  0  0 
 0  0  0 
 0  0  0 
 0  0  0 
 0  0  0 
 0  0  0 
 0  0  0 
 0  0  0 
 0  0  0 
 0  0  0 
 0  0  0 
 2.563507e-03  5.603285e-04  0 
 2.418834e-03  3.636929e-04  0 
 1.984592e-04  -8.191420e-06  0 
 3.713993e-04  -2.664774e-05  0 
 6.106880e-04  -4.563663e-05  0 
 8.462697e-04  -5.714210e-05  0 
 1.137459e-03  -9.374893e-05  0 
 1.378623e-03  -9.167870e-05  0 
 5.706942e-04  1.930149e-05  0 
 1.169001e-03  7.605020e-06  0 
 1.355862e-03  3.125988e-04  0 
 4.183715e-04  7.769857e-05  0 
 3.169405e-04  -2.581644e-05  0 
 3.350686e-04  1.407272e-04  0 
 2.174534e-04  -2.268872e-05  0 
 1.822457e-03  6.869411e-05  0 
 7.000986e-04  -5.281510e-05  0 
 2.808879e-04  -4.058294e-06  0 
 7.823978e-04  2.877606e-04  0 
 1.847676e-04  -1.601835e-05  0 
 1.263506e-04  1.032661e-05  0 
 7.681553e-04  -6.312868e-07  0 
 8.656726e-04  1.144737e-04  0 
 1.040809e-03  -5.400346e-05  0 
 5.388208e-04  1.500787e-04  0 
 4.466582e-04  -3.746183e-05  0 
 1.946450e-03  6.888219e-04  0 
 1.565675e-03  9.290056e-05  0 
 1.180149e-04  -2.110419e-06  0 
 1.169822e-04  2.799805e-06  0 
 7.212950e-04  -5.943781e-05  0 
 9.061002e-04  -7.295204e-05  0 
 1.978434e-03  3.230390e-04  0 
 1.047316e-03  4.549104e-04  0 
 1.307775e-03  4.721900e-04  0 
 1.673083e-03  7.972620e-04  0 
 1.528772e-03  -5.841108e-05  0 
 1.128997e-03  -5.192418e-05  0 
 1.556808e-03  1.594455e-04  0 
 1.387945e-03  2.337768e-05  0 
 1.607683e-03  4.652560e-04  0 
 9.339991e-04  -3.495591e-05  0 
 1.307066e-03  -1.222764e-05  0 
 4.343867e-04  -3.885988e-05  0 
 5.155205e-04  -3.903761e-05  0 
 6.610687e-04  2.044282e-04  0 
 7.621366e-04  2.908782e-04  0 
 1.047835e-03  2.326603e-05  0 
 1.280359e-03  -8.510974e-05  0 
 1.615690e-03  2.835007e-04  0 
 1.352746e-03  6.757906e-05  0 
 1.144418e-03  9.260862e-05  0 
 1.954984e-03  4.652241e-04  0 
 1.628905e-03  1.050678e-04  0 
 1.034946e-03  2.777459e-04  0 
 1.942680e-03  2.136306e-04  0 
 7.786100e-04  1.986360e-04  0 
 8.626986e-04  3.398111e-04  0 
 2.419674e-03  7.978143e-04  0 
 1.050085e-04  -2.368670e-06  0 
 2.312104e-03  5.570600e-04  0 
 3.487709e-04  8.059924e-05  0 
 1.257468e-03  1.745196e-04  0 
 1.833828e-03  2.001191e-04  0 
 1.070833e-04  -2.417623e-06  0 
 5.792391e-04  4.531900e-06  0 
 4.053054e-04  -1.499775e-05  0 
 2.373125e-04  -4.262302e-06  0 
 3.917317e-04  -1.906519e-05  0 
 3.195605e-04  -8.876148e-05  0 
 2.040348e-04  -3.632656e-06  0 
 5.661201e-04  1.450917e-05  0 
 1.028806e-03  -1.325850e-04  0 
 4.863865e-04  -9.404973e-05  0 
 1.500267e-04  -5.090383e-06  0 
 9.262515e-04  -1.543267e-04  0 
 1.113709e-03  -1.868653e-04  0 
 1.276500e-03  -1.544861e-04  0 
 5.464727e-04  -4.490041e-05  0 
 5.016414e-04  -6.080329e-05  0 
 6.451356e-04  2.452992e-05  0 
 6.836013e-04  -8.703030e-05  0 
 1.097928e-04  -4.028762e-07  0 
 1.663195e-04  5.149090e-08  0 
 7.467744e-04  -7.384801e-05  0 
 4.007447e-04  5.259817e-06  0 
VECTORS displacement_ITER2 FLOAT
 0  0  0 
 0  0  0 
 0  0  0 
 0  0  0 
 0  0  0 
 0  0  0 
 0  0  0 
 0  0  0 
 0  0  0 
 0  0  0 
 0  0  0 
 0  0  0 
 0  0  0 
 4.181949e-03  1.224595e-03  0 
 3.990158e-03  1.034526e-03  0 
 3.638967e-04  1.126525e-07  0 
 6.828116e-04  1.149336e-06  0 
 1.128728e-03  1.315127e-05  0 
 1.549417e-03  5.135341e-05  0 
 2.057963e-03  1.136086e-05  0 
 2.479262e-03  1.554319e-05  0 
 1.321426e-03  9.330368e-05  0 
 2.217355e-03  2.837178e-04  0 
 2.814425e-03  6.796129e-04  0 
 9.464323e-04  1.200286e-04  0 
 6.974260e-04  -5.797246e-06  0 
 7.141963e-04  2.483630e-04  0 
 4.378450e-04  -1.066063e-05  0 
 3.233787e-03  4.154905e-04  0 
 1.441243e-03  6.701402e-05  0 
 7.175689e-04  -1.154497e-05  0 
 1.863985e-03  4.678189e-04  0 
 4.618578e-04  -6.657598e-06  0 
 3.445994e-04  9.624953e-06  0 
 1.644651e-03  1.521435e-04  0 
 1.928990e-03  3.089229e-04  0 
 1.909840e-03  1.110351e-04  0 
 1.303682e-03  2.347171e-04  0 
 1.003837e-03  1.238333e-05  0 
 3.719865e-03  1.138487e-03  0 
 2.845666e-03  4.767271e-04  0 
 2.716796e-04  -4.964927e-06  0 
 2.884451e-04  1.310244e-06  0 
 1.394217e-03  5.197404e-05  0 
 1.726476e-03  9.098904e-05  0 
 3.566120e-03  9.408068e-04  0 
 2.378872e-03  7.401263e-04  0 
 2.826494e-03  8.185486e-04  0 
 3.423966e-03  1.077308e-03  0 
 2.766000e-03  1.362376e-04  0 
 2.097174e-03  1.778792e-04  0 
 2.950150e-03  6.246924e-04  0 
 2.538008e-03  3.589889e-04  0 
 3.254145e-03  9.225655e-04  0 
 1.835042e-03  1.585241e-04  0 
 2.372470e-03  2.410784e-04  0 
 8.548332e-04  2.338163e-05  0 
 1.057651e-03  3.226536e-05  0 
 1.498505e-03  3.284106e-04  0 
 1.642346e-03  5.045000e-04  0 
 2.079794e-03  2.666078e-04  0 
 2.308808e-03  5.982693e-05  0 
 3.146377e-03  7.654903e-04  0 
 2.548841e-03  4.230693e-04  0 
 2.300514e-03  3.915880e-04  0 
 3.644958e-03  1.054078e-03  0 
 2.973752e-03  5.572404e-04  0 
 2.318166e-03  5.208921e-04  0 
 3.443750e-03  7.733039e-04  0 
 1.824921e-03  3.590289e-04  0 
 1.978903e-03  5.629299e-04  0 
 4.110006e-03  1.310693e-03  0 
 2.849178e-04  -8.550257e-06  0 
 3.944411e-03  1.198623e-03  0 
 8.359078e-04  1.226983e-04  0 
 2.580697e-03  5.228459e-04  0 
 3.260469e-03  6.955843e-04  0 
 2.025712e-04  -2.677089e-06  0 
 9.866502e-04  -1.861413e-05  0 
 6.755796e-04  -2.698351e-05  0 
 4.066016e-04  -4.152043e-06  0 
 6.853990e-04  -3.719960e-05  0 
 5.638795e-04  -1.736316e-04  0 
 3.468540e-04  -7.031781e-06  0 
 9.460576e-04  -9.617237e-06  0 
 1.846728e-03  -9.409890e-05  0 
 8.557116e-04  -1.900302e-04  0 
 2.566145e-04  -1.040128e-05  0 
 1.620628e-03  -1.908541e-04  0 
 1.984684e-03  -2.432794e-04  0 
 2.299447e-03  -1.244752e-04  0 
 9.336665e-04  -5.122978e-05  0 
 8.838474e-04  -6.388226e-05  0 
 9.137651e-04  -4.743583e-05  0 
 1.182708e-03  -9.694331e-05  0 
 1.919443e-04  -3.657507e-06  0 
 2.833293e-04  -4.911751e-08  0 
 1.325954e-03  -2.982936e-05  0 
 6.858378e-04  -8.194272e-06  0 
VECTORS displacement_ITER3 FLOAT
 0  0  0 
 0  0  0 
 0  0  0 
 0  0  0 
 0  0  0 
 0  0  0 
 0  0  0 
 0  0  0 
 0  0  0 
 0  0  0 
 0  0  0 
 0  0  0 
 0  0  0 
 2.903683e-03  -1.336380e-05  0 
 2.800627e-03  6.111275e-05  0 
 5.043240e-04  1.372495e-05  0 
 9.393572e-04  5.349451e-05  0 
 1.416491e-03  8.971398e-05  0 
 1.808015e-03  1.375724e-04  0 
 2.165725e-03  1.007960e-04  0 
 2.370112e-03  8.450779e-05  0 
 1.500421e-03  -1.261966e-04  0 
 2.216254e-03  6.096598e-05  0 
 2.396972e-03  -2.438753e-04  0 
 7.727446e-04  -4.246621e-05  0 
 9.684018e-04  -2.999600e-05  0 
 4.738772e-04  3.244505e-05  0 
 6.388545e-04  -1.296631e-06  0 
 2.689994e-03  1.794218e-04  0 
 1.716465e-03  5.405874e-06  0 
 9.150343e-04  -9.506599e-05  0 
 1.719232e-03  -1.929001e-04  0 
 6.517996e-04  -3.352525e-05  0 
 4.353011e-04  -3.247299e-05  0 
 1.831667e-03  -5.938694e-05  0 
 1.935805e-03  -1.434730e-04  0 
 2.059494e-03  1.171317e-04  0 
 1.346534e-03  -1.763853e-04  0 
 1.304807e-03  -6.433545e-05  0 
 2.786048e-03  -4.608488e-04  0 
 2.515004e-03  2.126225e-04  0 
 4.057105e-04  -1.042971e-05  0 
 2.950780e-04  -1.048194e-05  0 
 1.684165e-03  7.577491e-05  0 
 1.921885e-03  6.532445e-05  0 
 2.777080e-03  -7.856753e-05  0 
 1.971571e-03  -2.358265e-04  0 
 2.328295e-03  -3.226608e-04  0 
 2.591014e-03  -6.540442e-04  0 
 2.498761e-03  9.127428e-05  0 
 2.153431e-03  8.130558e-05  0 
 2.577454e-03  -1.438582e-05  0 
 2.380497e-03  1.326995e-04  0 
 2.612312e-03  -2.819635e-04  0 
 1.979123e-03  2.213976e-05  0 
 2.300413e-03  1.438143e-04  0 
 1.155139e-03  4.190770e-05  0 
 1.369239e-03  1.025783e-05  0 
 1.227255e-03  -1.103913e-04  0 
 1.082897e-03  6.329987e-06  0 
 2.117065e-03  7.057003e-06  0 
 2.281317e-03  7.781957e-05  0 
 2.603809e-03  -1.788346e-04  0 
 2.394415e-03  6.375761e-05  0 
 2.226887e-03  -4.503563e-05  0 
 2.787164e-03  -2.214479e-04  0 
 2.575520e-03  1.520312e-04  0 
 2.114998e-03  -2.511959e-04  0 
 2.733944e-03  1.112589e-04  0 
 1.789673e-03  -2.067852e-04  0 
 1.595271e-03  -1.266744e-04  0 
 2.964319e-03  -4.383669e-04  0 
 3.943608e-04  -3.331430e-05  0 
 2.919991e-03  -1.601151e-04  0 
 8.647470e-04  -1.033327e-04  0 
 2.334024e-03  -1.424696e-04  0 
 2.677114e-03  2.515350e-04  0 
 2.884380e-04  -5.272711e-06  0 
 1.087326e-03  1.888243e-05  0 
 7.963399e-04  7.344208e-06  0 
 5.228510e-04  2.632375e-05  0 
 7.381437e-04  -3.561240e-05  0 
 5.905918e-04  -1.672227e-04  0 
 3.788142e-04  1.316698e-06  0 
 1.076431e-03  6.369739e-05  0 
 2.024583e-03  7.506611e-05  0 
 8.993499e-04  -1.634888e-04  0 
 3.025499e-04  -9.719685e-06  0 
 1.815234e-03  1.314393e-05  0 
 2.095617e-03  1.499788e-05  0 
 2.298753e-03  7.436959e-05  0 
 1.126558e-03  4.189271e-05  0 
 1.135212e-03  3.906510e-05  0 
 1.246249e-03  9.844849e-05  0 
 1.427606e-03  4.838513e-05  0 
 2.601505e-04  -3.816947e-06  0 
 3.063894e-04  -2.320307e-06  0 
 1.592422e-03  9.649017e-05  0 
 7.704201e-04  3.266591e-05  0 
VECTORS displacement_ITER4 FLOAT
 0  0  0 
 0  0  0 
 0  0  0 
 0  0  0 
 0  0  0 
 0  0  0 
 0  0  0 
 0  0  0 
 0  0  0 
 0  0  0 
 0  0  0 
 0  0  0 
 0  0  0 
 2.285337e-03  -3.469084e-06  0 
 2.204061e-03  -7.458189e-06  0 
 4.552671e-04  -3.511436e-06  0 
 8.290222e-04  1.101432e-05  0 
 1.226669e-03  2.406890e-05  0 
 1.570485e-03  4.755358e-05  0 
 1.877225e-03  1.513184e-05  0 
 2.064896e-03  -7.577596e-06  0 
 1.283236e-03  -1.308047e-04  0 
 1.841002e-03  -4.341060e-05  0 
 1.965647e-03  -2.269742e-04  0 
 6.908963e-04  -6.667843e-05  0 
 8.391520e-04  -4.364749e-05  0 
 4.057997e-04  8.550033e-06  0 
 5.614504e-04  -1.613964e-05  0 
 2.213376e-03  -6.547177e-05  0 
 1.474702e-03  -2.681422e-05  0 
 7.985549e-04  -9.239305e-05  0 
 1.469303e-03  -1.957556e-04  0 
 5.686534e-04  -3.698130e-05  0 
 3.902153e-04  -3.901414e-05  0 
 1.554659e-03  -8.921523e-05  0 
 1.633973e-03  -1.497908e-04  0 
 1.789360e-03  2.309115e-05  0 
 1.158638e-03  -1.646779e-04  0 
 1.128544e-03  -7.037939e-05  0 
 2.273986e-03  -4.271394e-04  0 
 2.113385e-03  -4.108804e-05  0 
 3.541925e-04  -1.537323e-05  0 
 2.587258e-04  -1.773944e-05  0 
 1.445962e-03  1.871705e-05  0 
 1.657401e-03  1.424231e-05  0 
 2.246813e-03  -7.111323e-05  0 
 1.642258e-03  -2.517364e-04  0 
 1.920615e-03  -3.174774e-04  0 
 2.116896e-03  -5.718336e-04  0 
 2.140304e-03  -3.864320e-05  0 
 1.824640e-03  3.271372e-06  0 
 2.063334e-03  -8.553925e-05  0 
 1.969271e-03  -1.872611e-05  0 
 2.127869e-03  -2.827914e-04  0 
 1.690777e-03  -3.388243e-05  0 
 1.985009e-03  -6.411096e-06  0 
 1.003661e-03  3.539358e-06  0 
 1.181903e-03  -2.110539e-05  0 
 1.067810e-03  -1.322410e-04  0 
 9.505096e-04  -5.022862e-05  0 
 1.762303e-03  -7.641458e-05  0 
 1.982830e-03  -1.311109e-05  0 
 2.118359e-03  -1.662962e-04  0 
 1.954674e-03  -6.271492e-05  0 
 1.828326e-03  -8.443422e-05  0 
 2.266468e-03  -2.268065e-04  0 
 2.073388e-03  -3.896759e-05  0 
 1.749294e-03  -2.428527e-04  0 
 2.199367e-03  -2.966559e-05  0 
 1.520892e-03  -1.934719e-04  0 
 1.375579e-03  -1.597842e-04  0 
 2.422668e-03  -4.082027e-04  0 
 3.485969e-04  -3.388932e-05  0 
 2.368180e-03  -1.686737e-04  0 
 7.609694e-04  -1.012040e-04  0 
 1.896698e-03  -1.703135e-04  0 
 2.200897e-03  -6.245861e-05  0 
 2.561629e-04  -8.443510e-06  0 
 1.170933e-03  -1.534274e-04  0 
 7.290450e-04  -5.098284e-06  0 
 4.834920e-04  1.007258e-05  0 
 7.950914e-04  -8.418805e-05  0 
 6.760429e-04  -2.728941e-04  0 
 3.587306e-04  -6.922780e-06  0 
 1.041868e-03  -6.506702e-05  0 
 1.746702e-03  4.788435e-06  0 
 1.087826e-03  -3.624684e-04  0 
 2.862867e-04  -1.281505e-05  0 
 1.562975e-03  -7.334575e-05  0 
 1.803462e-03  -8.824715e-05  0 
 1.999377e-03  1.836818e-07  0 
 1.030222e-03  -7.090437e-06  0 
 1.004351e-03  -3.606063e-06  0 
 1.148688e-03  -1.329277e-04  0 
 1.256938e-03  -2.810241e-05  0 
 2.384157e-04  -7.792893e-06  0 
 3.038088e-04  -1.277768e-05  0 
 1.384422e-03  2.219763e-05  0 
 7.701615e-04  -3.439167e-05  0 
VECTORS displacement_ITER5 FLOAT
 0  0  0 
 0  0  0 
 0  0  0 
 0  0  0 
 0  0  0 
 0  0  0 
 0  0  0 
 0  0  0 
 0  0  0 
 0  0  0 
 0  0  0 
 0  0  0 
 0  0  0 
 1.950492e-03  -1.676399e-05  0 
 1.891474e-03  1.640923e-05  0 
 3.730638e-04  -6.955326e-06  0 
 7.062000e-04  5.987951e-06  0 
 1.050292e-03  1.667151e-05  0 
 1.354683e-03  2.139534e-05  0 
 1.633542e-03  -2.546744e-05  0 
 1.813200e-03  -5.482103e-05  0 
 1.141485e-03  -5.559732e-05  0 
 1.617982e-03  5.643919e-06  0 
 1.704910e-03  -8.698894e-05  0 
 7.476020e-04  -3.635177e-05  0 
 7.217161e-04  -2.831099e-05  0 
 4.766711e-04  3.748287e-05  0 
 4.718687e-04  -6.228190e-06  0 
 1.984122e-03  -4.152565e-05  0 
 1.264479e-03  -1.013487e-05  0 
 7.251898e-04  -5.555075e-05  0 
 1.343254e-03  -4.552152e-05  0 
 5.073221e-04  -2.936553e-05  0 
 3.821757e-04  -2.994343e-05  0 
 1.354125e-03  -2.598945e-05  0 
 1.442673e-03  -3.660438e-05  0 
 1.543359e-03  5.080508e-06  0 
 1.074843e-03  -4.066733e-05  0 
 9.768222e-04  -4.029373e-05  0 
 1.947438e-03  -2.115158e-04  0 
 1.877954e-03  2.630076e-06  0 
 3.099968e-04  -1.589403e-05  0 
 2.743184e-04  -1.874881e-05  0 
 1.233691e-03  1.987081e-05  0 
 1.420989e-03  2.091072e-05  0 
 1.995598e-03  -4.281949e-05  0 
 1.478528e-03  -7.869808e-05  0 
 1.641025e-03  -1.166764e-04  0 
 1.778084e-03  -2.265715e-04  0 
 1.901248e-03  -5.459287e-05  0 
 1.590250e-03  2.573326e-05  0 
 1.840169e-03  -7.788367e-06  0 
 1.740128e-03  2.933440e-05  0 
 1.815411e-03  -1.402609e-04  0 
 1.464686e-03  7.272800e-08  0 
 1.741565e-03  4.258775e-06  0 
 8.619710e-04  1.086436e-05  0 
 1.014874e-03  -1.027993e-05  0 
 1.070117e-03  -4.641830e-05  0 
 1.032280e-03  -5.128833e-06  0 
 1.544200e-03  -8.860638e-06  0 
 1.733399e-03  -4.280133e-05  0 
 1.852495e-03  -8.590494e-05  0 
 1.738062e-03  1.233118e-05  0 
 1.615946e-03  1.970535e-06  0 
 1.973555e-03  -1.516021e-04  0 
 1.847291e-03  3.634052e-05  0 
 1.534510e-03  -6.178835e-05  0 
 1.965071e-03  4.330463e-05  0 
 1.360981e-03  -4.065174e-05  0 
 1.316380e-03  -5.051314e-05  0 
 2.078530e-03  -2.278495e-04  0 
 3.217149e-04  -2.208646e-05  0 
 2.056419e-03  -1.392535e-04  0 
 7.452975e-04  -3.506586e-05  0 
 1.674635e-03  -5.636492e-05  0 
 1.971544e-03  6.640054e-06  0 
 2.102044e-04  -8.933274e-06  0 
 8.411805e-04  -5.458104e-06  0 
 6.025246e-04  -1.993724e-05  0 
 3.947846e-04  1.472699e-06  0 
 5.849656e-04  -5.495437e-05  0 
 4.689141e-04  -1.328267e-04  0 
 2.993681e-04  -1.280750e-05  0 
 8.491114e-04  -9.629374e-06  0 
 1.526418e-03  -3.333320e-05  0 
 6.784846e-04  -1.261787e-04  0 
 2.351638e-04  -1.568909e-05  0 
 1.377612e-03  -8.239133e-05  0 
 1.590828e-03  -1.104531e-04  0 
 1.753914e-03  -5.626530e-05  0 
 8.687487e-04  -1.539221e-05  0 
 8.546436e-04  -6.088724e-06  0 
 9.180738e-04  4.179478e-06  0 
 1.090814e-03  -2.758612e-05  0 
 1.946054e-04  -9.504102e-06  0 
 2.481524e-04  -1.330501e-05  0 
 1.201576e-03  4.639547e-06  0 
 5.980811e-04  -1.097675e-05  0 
VECTORS displacement_ITER6 FLOAT
 0  0  0 
 0  0  0 
 0  0  0 
 0  0  0 
 0  0  0 
 0  0  0 
 0  0  0 
 0  0  0 
 0  0  0 
 0  0  0 
 0  0  0 
 0  0  0 
 0  0  0 
 2.120519e-03  1.403539e-05  0 
 2.070571e-03  2.827096e-05  0 
 3.764459e-04  -1.815407e-05  0 
 7.029037e-04  -1.572134e-05  0 
 1.020619e-03  -2.609068e-05  0 
 1.298184e-03  -2.696431e-05  0 
 1.548781e-03  -3.946919e-05  0 
 1.753604e-03  -2.518744e-05  0 
 1.095295e-03  -3.389128e-05  0 
 1.595142e-03  -6.021576e-06  0 
 1.688855e-03  -7.876246e-06  0 
 7.645686e-04  -1.837348e-05  0 
 6.842859e-04  -4.001327e-05  0 
 5.077209e-04  5.121436e-05  0 
 4.639922e-04  -1.096022e-05  0 
 2.005897e-03  -5.295217e-06  0 
 1.212257e-03  -3.379257e-05  0 
 6.919230e-04  -4.179540e-05  0 
 1.299390e-03  2.408297e-05  0 
 4.812940e-04  -3.827361e-05  0 
 3.715552e-04  -2.450446e-05  0 
 1.307759e-03  -2.349308e-05  0 
 1.393105e-03  -2.707217e-06  0 
 1.494878e-03  -2.981202e-05  0 
 1.040952e-03  9.723834e-06  0 
 9.266154e-04  -4.907650e-05  0 
 1.973084e-03  -4.796886e-05  0 
 1.901345e-03  -1.714224e-06  0 
 3.022506e-04  -1.662093e-05  0 
 2.791673e-04  -1.875329e-05  0 
 1.185694e-03  -1.952331e-05  0 
 1.375030e-03  -1.600115e-05  0 
 2.035932e-03  -8.870033e-06  0 
 1.460725e-03  2.584299e-05  0 
 1.631172e-03  3.243444e-06  0 
 1.803627e-03  -4.368883e-05  0 
 1.886285e-03  -1.833731e-05  0 
 1.565415e-03  1.770002e-06  0 
 1.848633e-03  6.237869e-06  0 
 1.738959e-03  1.292085e-05  0 
 1.821869e-03  -2.021116e-05  0 
 1.425421e-03  -1.511326e-05  0 
 1.726992e-03  -7.690717e-06  0 
 8.309902e-04  -1.542938e-05  0 
 9.696592e-04  -3.396194e-05  0 
 1.071808e-03  -9.662905e-07  0 
 1.071924e-03  2.824966e-05  0 
 1.509657e-03  -1.057066e-05  0 
 1.688211e-03  -3.794176e-05  0 
 1.856549e-03  -2.399957e-05  0 
 1.726987e-03  6.876146e-06  0 
 1.583413e-03  1.074277e-05  0 
 2.001650e-03  -4.385105e-05  0 
 1.876798e-03  2.585360e-05  0 
 1.496836e-03  1.223261e-05  0 
 2.018310e-03  3.670380e-05  0 
 1.309701e-03  1.735766e-05  0 
 1.303331e-03  1.528023e-05  0 
 2.139772e-03  -5.477726e-05  0 
 3.038580e-04  -1.746707e-05  0 
 2.118648e-03  -3.725840e-05  0 
 7.344872e-04  -7.211312e-06  0 
 1.649789e-03  -1.103365e-05  0 
 2.021356e-03  3.365786e-06  0 
 2.076939e-04  -9.621254e-06  0 
 8.326554e-04  7.858073e-06  0 
 6.180946e-04  -1.132666e-05  0 
 4.049714e-04  6.868605e-06  0 
 5.482795e-04  -5.007407e-05  0 
 4.273792e-04  -9.747770e-05  0 
 2.929977e-04  -1.146246e-05  0 
 8.499214e-04  3.990646e-05  0 
 1.422123e-03  -3.943299e-05  0 
 6.523866e-04  -9.426210e-05  0 
 2.340386e-04  -1.461152e-05  0 
 1.287613e-03  -6.465067e-05  0 
 1.454954e-03  -6.880358e-05  0 
 1.636742e-03  -2.910959e-05  0 
 8.733634e-04  -1.071152e-05  0 
 8.589688e-04  -1.301162e-05  0 
 1.144096e-03  1.146872e-04  0 
 1.069776e-03  -2.731587e-05  0 
 2.016531e-04  -8.976340e-06  0 
 2.416355e-04  -1.505353e-05  0 
 1.159600e-03  -2.268218e-05  0 
 5.850121e-04  1.406350e-05  0 
VECTORS displacement_ITER7 FLOAT
 0  0  0 
 0  0  0 
 0  0  0 
 0  0  0 
 0  0  0 
 0  0  0 
 0  0  0 
 0  0  0 
 0  0  0 
 0  0  0 
 0  0  0 
 0  0  0 
 0  0  0 
 2.187971e-03  -1.808230e-05  0 
 2.150490e-03  -1.228736e-05  0 
 3.558815e-04  -2.159881e-05  0 
 6.684969e-04  -3.280185e-05  0 
 9.677212e-04  -5.362810e-05  0 
 1.227587e-03  -5.631157e-05  0 
 1.478642e-03  -6.005331e-05  0 
 1.695517e-03  -4.691189e-05  0 
 9.936705e-04  -4.853154e-05  0 
 1.528219e-03  -5.521244e-05  0 
 1.623113e-03  -2.574781e-05  0 
 6.668470e-04  -2.539770e-05  0 
 6.262154e-04  -4.710689e-05  0 
 4.382126e-04  2.728808e-05  0 
 4.291572e-04  -1.995329e-05  0 
 1.969120e-03  -3.032534e-05  0 
 1.134546e-03  -6.427488e-05  0 
 6.215426e-04  -4.278595e-05  0 
 1.169017e-03  -9.980188e-06  0 
 4.329745e-04  -3.949758e-05  0 
 3.329783e-04  -2.417640e-05  0 
 1.212723e-03  -5.266187e-05  0 
 1.276354e-03  -3.471480e-05  0 
 1.432248e-03  -5.693258e-05  0 
 9.318356e-04  -1.561059e-05  0 
 8.481538e-04  -6.006313e-05  0 
 1.966441e-03  2.315150e-05  0 
 1.856147e-03  -4.022982e-05  0 
 2.733619e-04  -1.691079e-05  0 
 2.500077e-04  -1.801342e-05  0 
 1.120954e-03  -5.393603e-05  0 
 1.311488e-03  -5.962991e-05  0 
 2.019265e-03  -3.078287e-05  0 
 1.354462e-03  -2.773625e-06  0 
 1.574672e-03  -1.345666e-05  0 
 1.819238e-03  3.408760e-05  0 
 1.831049e-03  -3.965173e-05  0 
 1.504465e-03  -5.049027e-05  0 
 1.796666e-03  -4.291040e-05  0 
 1.686978e-03  -4.382862e-05  0 
 1.790217e-03  -1.506357e-05  0 
 1.350398e-03  -5.777841e-05  0 
 1.665708e-03  -4.378896e-05  0 
 7.788055e-04  -3.943545e-05  0 
 9.041028e-04  -5.524744e-05  0 
 9.455316e-04  -1.907414e-05  0 
 9.390962e-04  3.273792e-06  0 
 1.429040e-03  -5.240444e-05  0 
 1.624799e-03  -5.676773e-05  0 
 1.809586e-03  -3.311310e-05  0 
 1.660886e-03  -4.906743e-05  0 
 1.494017e-03  -3.772045e-05  0 
 1.976080e-03  -2.667331e-05  0 
 1.845166e-03  -3.603983e-05  0 
 1.392184e-03  -2.336667e-05  0 
 2.008301e-03  -2.633566e-05  0 
 1.185300e-03  -1.718899e-05  0 
 1.161535e-03  -8.529992e-06  0 
 2.137548e-03  4.080590e-05  0 
 2.723931e-04  -1.793714e-05  0 
 2.111752e-03  -2.397333e-05  0 
 6.509190e-04  -1.973157e-05  0 
 1.563833e-03  -4.194046e-05  0 
 1.993623e-03  -3.532529e-05  0 
 1.950665e-04  -1.026357e-05  0 
 8.688406e-04  -3.286538e-05  0 
 6.027153e-04  -2.155896e-05  0 
 3.945592e-04  -6.695306e-06  0 
 5.865726e-04  -4.756097e-05  0 
 4.497705e-04  -1.043499e-04  0 
 3.065466e-04  -1.329004e-05  0 
 8.421168e-04  -1.579277e-05  0 
 1.343126e-03  -6.598448e-05  0 
 7.349550e-04  -1.125743e-04  0 
 2.408367e-04  -1.517474e-05  0 
 1.213778e-03  -9.351172e-05  0 
 1.379148e-03  -1.042388e-04  0 
 1.574364e-03  -5.616143e-05  0 
 8.449775e-04  -3.036500e-05  0 
 8.232284e-04  -3.675952e-05  0 
 1.011289e-03  -6.337830e-06  0 
 1.015599e-03  -5.492350e-05  0 
 1.916307e-04  -1.003044e-05  0 
 2.509869e-04  -1.376557e-05  0 
 1.095943e-03  -5.071438e-05  0 
 5.995874e-04  -1.429256e-05  0 
VECTORS displacement_ITER8 FLOAT
 0  0  0 
 0  0  0 
 0  0  0 
 0  0  0 
 0  0  0 
 0  0  0 
 0  0  0 
 0  0  0 
 0  0  0 
 0  0  0 
 0  0  0 
 0  0  0 
 0  0  0 
 2.144298e-03  -5.198685e-05  0 
 2.120784e-03  -3.913466e-05  0 
 3.563162e-04  -1.828808e-05  0 
 6.886953e-04  -2.920434e-05  0 
 9.956981e-04  -4.407535e-05  0 
 1.270185e-03  -4.471297e-05  0 
 1.520570e-03  -5.270344e-05  0 
 1.726165e-03  -5.860892e-05  0 
 1.016565e-03  -4.815796e-05  0 
 1.540436e-03  -6.289064e-05  0 
 1.627196e-03  -4.776271e-05  0 
 6.865436e-04  -2.822826e-05  0 
 6.468259e-04  -3.892293e-05  0 
 4.578121e-04  9.577572e-06  0 
 4.348265e-04  -1.733252e-05  0 
 1.976067e-03  -6.443779e-05  0 
 1.169092e-03  -5.757872e-05  0 
 6.522764e-04  -3.754165e-05  0 
 1.175220e-03  -3.545688e-05  0 
 4.523444e-04  -3.274105e-05  0 
 3.581575e-04  -2.226646e-05  0 
 1.236714e-03  -5.026548e-05  0 
 1.291367e-03  -4.677842e-05  0 
 1.468709e-03  -5.595958e-05  0 
 9.511566e-04  -2.595467e-05  0 
 8.791592e-04  -4.662812e-05  0 
 1.937170e-03  -4.229956e-05  0 
 1.859105e-03  -6.550324e-05  0 
 2.798692e-04  -1.660639e-05  0 
 2.741384e-04  -1.852784e-05  0 
 1.156654e-03  -4.538754e-05  0 
 1.344506e-03  -5.290905e-05  0 
 1.996115e-03  -4.779271e-05  0 
 1.360224e-03  -4.382450e-05  0 
 1.583809e-03  -5.578453e-05  0 
 1.809006e-03  -5.357454e-05  0 
 1.845259e-03  -6.232701e-05  0 
 1.523574e-03  -5.417168e-05  0 
 1.789031e-03  -5.216767e-05  0 
 1.688276e-03  -5.691430e-05  0 
 1.783674e-03  -5.001074e-05  0 
 1.375265e-03  -5.890077e-05  0 
 1.679551e-03  -5.865838e-05  0 
 8.074342e-04  -3.488156e-05  0 
 9.379406e-04  -4.788065e-05  0 
 9.510119e-04  -3.512045e-05  0 
 9.351811e-04  -2.895819e-05  0 
 1.444327e-03  -5.748697e-05  0 
 1.649438e-03  -6.358235e-05  0 
 1.800416e-03  -4.820166e-05  0 
 1.660228e-03  -6.157691e-05  0 
 1.500481e-03  -4.682502e-05  0 
 1.949563e-03  -5.729615e-05  0 
 1.836993e-03  -5.262769e-05  0 
 1.405430e-03  -4.831201e-05  0 
 1.992254e-03  -4.231670e-05  0 
 1.195715e-03  -3.439472e-05  0 
 1.156073e-03  -4.026863e-05  0 
 2.085426e-03  -3.612544e-05  0 
 2.903300e-04  -1.669854e-05  0 
 2.073369e-03  -5.998877e-05  0 
 6.767752e-04  -2.391671e-05  0 
 1.568440e-03  -5.389325e-05  0 
 1.989845e-03  -6.643398e-05  0 
 1.967193e-04  -1.013959e-05  0 
 9.115332e-04  -4.883222e-05  0 
 6.031925e-04  -3.026130e-05  0 
 3.979776e-04  -1.575710e-05  0 
 6.337802e-04  -4.610314e-05  0 
 4.716167e-04  -9.243836e-05  0 
 3.284415e-04  -1.507292e-05  0 
 8.665896e-04  -6.474822e-05  0 
 1.387044e-03  -4.742190e-05  0 
 7.994930e-04  -9.158987e-05  0 
 2.542835e-04  -1.585575e-05  0 
 1.241191e-03  -7.563253e-05  0 
 1.430829e-03  -8.151928e-05  0 
 1.629271e-03  -4.275726e-05  0 
 8.603243e-04  -3.588291e-05  0 
 8.408845e-04  -3.388463e-05  0 
 1.028231e-03  -7.455951e-05  0 
 1.037883e-03  -5.013997e-05  0 
 1.898593e-04  -1.096300e-05  0 
 2.692179e-04  -1.435153e-05  0 
 1.127829e-03  -4.170207e-05  0 
 6.266555e-04  -3.935735e-05  0 
VECTORS displacement_ITER9 FLOAT
 0  0  0 
 0  0  0 
 0  0  0 
 0  0  0 
 0  0  0 
 0  0  0 
 0  0  0 
 0  0  0 
 0  0  0 
 0  0  0 
 0  0  0 
 0  0  0 
 0  0  0 
 2.152103e-03  -3.492628e-05  0 
 2.123167e-03  -3.908489e-05  0 
 3.468119e-04  -1.583696e-05  0 
 6.740717e-04  -2.504733e-05  0 
 9.783521e-04  -3.315608e-05  0 
 1.244573e-03  -2.226413e-05  0 
 1.495163e-03  -2.690557e-05  0 
 1.693859e-03  -4.742447e-05  0 
 1.004430e-03  -4.814950e-05  0 
 1.518772e-03  -5.161637e-05  0 
 1.620020e-03  -6.002954e-05  0 
 6.707180e-04  -3.338766e-05  0 
 6.426495e-04  -3.264781e-05  0 
 4.494725e-04  -1.605032e-05  0 
 4.254226e-04  -1.779243e-05  0 
 1.943662e-03  -3.631384e-05  0 
 1.158638e-03  -4.828529e-05  0 
 6.508504e-04  -3.387493e-05  0 
 1.150344e-03  -4.997351e-05  0 
 4.513841e-04  -2.572079e-05  0 
 3.665023e-04  -1.968664e-05  0 
 1.221439e-03  -4.773065e-05  0 
 1.270131e-03  -5.616260e-05  0 
 1.445244e-03  -3.105901e-05  0 
 9.375690e-04  -3.665304e-05  0 
 8.745141e-04  -3.803605e-05  0 
 1.933118e-03  -3.928353e-05  0 
 1.819810e-03  -3.525260e-05  0 
 2.740943e-04  -1.607756e-05  0 
 2.851135e-04  -1.861706e-05  0 
 1.146155e-03  -3.434468e-05  0 
 1.330920e-03  -4.352167e-05  0 
 1.969870e-03  -4.448117e-05  0 
 1.346557e-03  -5.662403e-05  0 
 1.576899e-03  -6.413657e-05  0 