# vtk DataFile Version 3.1
this is an vtk file created by FEMAC
ASCII
DATASET UNSTRUCTURED_GRID
POINTS 96 FLOAT
7.000000 2.000000 0.000000
8.000000 2.000000 0.000000
6.875000 2.000000 0.000000
7.000000 1.625000 0.000000
7.000000 1.750000 0.000000
7.000000 1.875000 0.000000
7.000000 2.125000 0.000000
7.125000 2.000000 0.000000
7.250000 2.000000 0.000000
7.375000 2.000000 0.000000
7.500000 2.000000 0.000000
7.625000 2.000000 0.000000
7.750000 2.000000 0.000000
7.875000 2.000000 0.000000
8.000000 1.500000 0.000000
8.000000 1.625000 0.000000
8.000000 1.750000 0.000000
8.000000 1.875000 0.000000
8.000000 2.125000 0.000000
8.000000 2.250000 0.000000
8.000000 2.375000 0.000000
8.000000 2.500000 0.000000
6.832268 1.863701 0.000000
6.915316 1.741774 0.000000
6.926817 1.934675 0.000000
6.907273 2.083712 0.000000
7.465861 1.502680 0.000000
7.794698 1.709502 0.000000
7.234331 1.770047 0.000000
7.832268 1.863701 0.000000
7.113309 1.850135 0.000000
7.240911 1.500490 0.000000
7.519645 1.761370 0.000000
7.324121 1.714796 0.000000
7.683542 1.646736 0.000000
7.893486 1.616360 0.000000
7.340094 1.853301 0.000000
7.128038 1.708667 0.000000
7.683131 1.897856 0.000000
7.243295 1.909732 0.000000
7.915316 1.741774 0.000000
7.492808 1.653632 0.000000
7.671015 1.517776 0.000000
7.508745 1.869982 0.000000
7.394052 1.628313 0.000000
7.344960 1.503942 0.000000
7.580865 1.914657 0.000000
7.566591 1.436804 0.000000
7.574762 1.570138 0.000000
7.774246 1.574159 0.000000
7.431738 1.904941 0.000000
7.290190 1.404688 0.000000
7.287334 1.601697 0.000000
7.165175 1.602355 0.000000
7.227800 1.679512 0.000000
7.597911 1.702308 0.000000
7.863469 1.489045 0.000000
7.602134 1.822720 0.000000
7.430172 1.769477 0.000000
7.700073 1.771534 0.000000
7.926817 1.934675 0.000000
7.768002 1.466671 0.000000
7.059577 1.931284 0.000000
7.463342 2.486362 0.000000
7.749964 2.285766 0.000000
7.234020 2.225948 0.000000
7.113195 2.148760 0.000000
7.578361 2.215028 0.000000
7.828811 2.510058 0.000000
7.323537 2.276188 0.000000
7.586577 2.535048 0.000000
7.339883 2.142845 0.000000
7.901810 2.572289 0.000000
7.904726 2.453300 0.000000
7.915180 2.179977 0.000000
7.651565 2.124762 0.000000
7.243268 2.089363 0.000000
7.533779 2.109455 0.000000
7.666926 2.218205 0.000000
7.424009 2.362563 0.000000
7.680960 2.655875 0.000000
7.434920 2.089471 0.000000
7.719612 2.505389 0.000000
7.799802 2.144311 0.000000
7.793639 2.627384 0.000000
7.628805 2.296882 0.000000
7.917996 2.089858 0.000000
7.449390 2.214528 0.000000
7.860447 2.270418 0.000000
7.810944 2.393504 0.000000
7.915223 2.348444 0.000000
7.564333 2.400408 0.000000
7.685333 2.387417 0.000000
7.528980 2.297882 0.000000
7.638964 2.457066 0.000000
7.059549 2.068440 0.000000
CELLS 157 628 
3 23  5 22
3 23  4  5
3 23  3  4
3 2 24  0
3 5 24 22
3 24  5  0
3 24  2 22
3 25  2  0
3 6 25  0
3 30  5  4
3 29 13 12
3 35 14 15
3 37 28 30
3 28 39 30
3 27 40 29
3 33 36 28
3 40 17 29
3 39  7 30
3 29 12 38
3 30  4 37
3 37  4  3
3 38 12 11
3 39  8  7
3 39  9  8
3 39 28 36
3 9 39 36
3 40 16 17
3 40 15 16
3 40 27 35
3 15 40 35
3 44 26 41
3 45 26 44
3 10 46 11
3 46 38 11
3 46 10 43
3 26 48 41
3 34 48 42
3 49 27 34
3 27 49 35
3 50 10  9
3 36 50  9
3 10 50 43
3 33 52 44
3 53 31 52
3 54 33 28
3 37 54 28
3 33 54 52
3 55 32 41
3 35 56 14
3 32 57 43
3 58 32 43
3 59 27 29
3 38 59 29
3 13 60  1
3 17 60 29
3 60 17  1
3 60 13 29
3 55 48 34
3 41 48 55
3 47 48 26
3 47 42 48
3 58 50 36
3 43 50 58
3 46 57 38
3 46 43 57
3 51 45 31
3 45 52 31
3 45 44 52
3 55 57 32
3 53 54 37
3 53 52 54
3 3 53 37
3 32 58 41
3 33 58 36
3 44 58 33
3 44 41 58
3 59 34 27
3 55 34 59
3 38 57 59
3 55 59 57
3 34 42 49
3 56 35 49
3 42 61 49
3 61 56 49
3 5 62  0
3 7 62 30
3 62  7  0
3 62  5 30
3 21 73 20
3 75 11 12
3 76 65 66
3 74 18 19
3 71 69 65
3 72 73 21
3 72 68 73
3 7 76 66
3 8 76  7
3 9 76  8
3 65 76 71
3 76  9 71
3 67 77 75
3 75 78 67
3 10 81  9
3 81 71  9
3 81 10 77
3 70 82 80
3 85 67 78
3 86 13  1
3 18 86  1
3 67 87 77
3 81 87 71
3 81 77 87
3 86 18 74
3 86 74 83
3 84 68 72
3 84 82 68
3 84 80 82
3 83 64 78
3 75 83 78
3 87 69 71
3 87 79 69
3 19 88 74
3 89 64 88
3 83 88 64
3 83 74 88
3 10 11 77
3 11 75 77
3 85 78 64
3 82 89 68
3 68 89 73
3 83 75 12
3 13 83 12
3 86 83 13
3 73 90 20
3 88 90 89
3 90 73 89
3 89 92 64
3 92 85 64
3 90 19 20
3 88 19 90
3 89 82 92
3 63 79 91
3 91 70 63
3 85 92 91
3 93 87 67
3 93 91 79
3 87 93 79
3 94 82 70
3 94 91 92
3 91 94 70
3 82 94 92
3 85 93 67
3 85 91 93
3 95  6  0
3 95  7 66
3 7 95  0
3 6 95 66
CELL_TYPES 157
5 5 5 5 5 5 5 5 5 5 5 5 5 5 5 5 5 5 5 5 5 5 5 5 5 5 5 5 5 5 5 5 5 5 5 5 5 5 5 5 5 5 5 5 5 5 5 5 5 5 5 5 5 5 5 5 5 5 5 5 5 5 5 5 5 5 5 5 5 5 5 5 5 5 5 5 5 5 5 5 5 5 5 5 5 5 5 5 5 5 5 5 5 5 5 5 5 5 5 5 5 5 5 5 5 5 5 5 5 5 5 5 5 5 5 5 5 5 5 5 5 5 5 5 5 5 5 5 5 5 5 5 5 5 5 5 5 5 5 5 5 5 5 5 5 5 5 5 5 5 5 5 5 5 5 5 5 
POINT_DATA 96
VECTORS displacement_ITER1 FLOAT
 8.167220e-05  2.173361e-05  0 
 8.018767e-05  4.147802e-05  0 
 8.160697e-05  1.948086e-05  0 
 8.922526e-05  2.168563e-05  0 
 8.679501e-05  2.170390e-05  0 
 8.427806e-05  2.171569e-05  0 
 7.891963e-05  2.194757e-05  0 
 8.157926e-05  2.408720e-05  0 
 8.139341e-05  2.643157e-05  0 
 8.121181e-05  2.878174e-05  0 
 8.104518e-05  3.118234e-05  0 
 8.084780e-05  3.367119e-05  0 
 8.064711e-05  3.622908e-05  0 
 8.044883e-05  3.874340e-05  0 
 9.035761e-05  3.987045e-05  0 
 8.791665e-05  4.025375e-05  0 
 8.538149e-05  4.064831e-05  0 
 8.280227e-05  4.103234e-05  0 
 7.740748e-05  4.163009e-05  0 
 7.461759e-05  4.188077e-05  0 
 7.165242e-05  4.197119e-05  0 
 6.874910e-05  4.205948e-05  0 
 8.454744e-05  1.880973e-05  0 
 8.697369e-05  2.022572e-05  0 
 8.305415e-05  2.045453e-05  0 
 7.999550e-05  2.001099e-05  0 
 9.141534e-05  2.993657e-05  0 
 8.677990e-05  3.650553e-05  0 
 8.630040e-05  2.588085e-05  0 
 8.348991e-05  3.764478e-05  0 
 8.475531e-05  2.374663e-05  0 
 9.156374e-05  2.593763e-05  0 
 8.622911e-05  3.123641e-05  0 
 8.737780e-05  2.750022e-05  0 
 8.832374e-05  3.418939e-05  0 
 8.839523e-05  3.817045e-05  0 
 8.447087e-05  2.790653e-05  0 
 8.756957e-05  2.395661e-05  0 
 8.301239e-05  3.468685e-05  0 
 8.338441e-05  2.617535e-05  0 
 8.580324e-05  3.895948e-05  0 
 8.847368e-05  3.060645e-05  0 
 9.084002e-05  3.371881e-05  0 
 8.387480e-05  3.116424e-05  0 
 8.906973e-05  2.872997e-05  0 
 9.146494e-05  2.777783e-05  0 
 8.279359e-05  3.265486e-05  0 
 9.250882e-05  3.167813e-05  0 
 8.999384e-05  3.202358e-05  0 
 8.956202e-05  3.574658e-05  0 
 8.321948e-05  2.974708e-05  0 
 9.353068e-05  2.678411e-05  0 
 8.963431e-05  2.678918e-05  0 
 8.964259e-05  2.459958e-05  0 
 8.811635e-05  2.573393e-05  0 
 8.736385e-05  3.266325e-05  0 
 9.097250e-05  3.720526e-05  0 
 8.478410e-05  3.294472e-05  0 
 8.616069e-05  2.953078e-05  0 
 8.572191e-05  3.479636e-05  0 
 8.180384e-05  3.973630e-05  0 
 9.159416e-05  3.539294e-05  0 
 8.308915e-05  2.280628e-05  0 
 6.937005e-05  3.105111e-05  0 
 7.398808e-05  3.657200e-05  0 
 7.608663e-05  2.643672e-05  0 
 7.810021e-05  2.405803e-05  0 
 7.584817e-05  3.306980e-05  0 
 6.858193e-05  3.835427e-05  0 
 7.472799e-05  2.820080e-05  0 
 6.811115e-05  3.349881e-05  0 
 7.794223e-05  2.832422e-05  0 
 6.706574e-05  3.992813e-05  0 
 6.990295e-05  3.994851e-05  0 
 7.634773e-05  3.995053e-05  0 
 7.791569e-05  3.440992e-05  0 
 7.933064e-05  2.643409e-05  0 
 7.844933e-05  3.202135e-05  0 
 7.566599e-05  3.483431e-05  0 
 7.247199e-05  3.021129e-05  0 
 6.526750e-05  3.542397e-05  0 
 7.905950e-05  3.004127e-05  0 
 6.877100e-05  3.616919e-05  0 
 7.727448e-05  3.744936e-05  0 
 6.589543e-05  3.773493e-05  0 
 7.383075e-05  3.415357e-05  0 
 7.828059e-05  3.987568e-05  0 
 7.605910e-05  3.050252e-05  0 
 7.424604e-05  3.883296e-05  0 
 7.137280e-05  3.791981e-05  0 
 7.233778e-05  4.009382e-05  0 
 7.144892e-05  3.299617e-05  0 
 7.163709e-05  3.536010e-05  0 
 7.391006e-05  3.220796e-05  0 
 7.001601e-05  3.451609e-05  0 
 8.006258e-05  2.289784e-05  0 
VECTORS displacement_ITER2 FLOAT
 1.721436e-04  1.439215e-05  0 
 1.164535e-04  7.161157e-05  0 
 1.663227e-04  1.399777e-05  0 
 1.759827e-04  8.331947e-06  0 
 1.792021e-04  9.637389e-06  0 
 1.774327e-04  1.073285e-05  0 
 1.483450e-04  2.330081e-05  0 
 1.643643e-04  1.913880e-05  0 
 1.564908e-04  2.311982e-05  0 
 1.488427e-04  2.741805e-05  0 
 1.417818e-04  3.200783e-05  0 
 1.346408e-04  3.969524e-05  0 
 1.283270e-04  4.990739e-05  0 
 1.231659e-04  5.829616e-05  0 
 1.573236e-04  4.042331e-05  0 
 1.463867e-04  4.801405e-05  0 
 1.367363e-04  5.480696e-05  0 
 1.272792e-04  6.166360e-05  0 
 1.024913e-04  7.567741e-05  0 
 8.740654e-05  8.252610e-05  0 
 6.590918e-05  8.542375e-05  0 
 4.637277e-05  8.795612e-05  0 
 1.853088e-04  1.934044e-05  0 
 1.802278e-04  9.456803e-06  0 
 1.776427e-04  1.717687e-05  0 
 1.633414e-04  9.371217e-06  0 
 1.740003e-04  9.595310e-06  0 
 1.520131e-04  3.597206e-05  0 
 1.737918e-04  9.574123e-06  0 
 1.381722e-04  4.924355e-05  0 
 1.762964e-04  1.143206e-05  0 
 1.753721e-04  9.867665e-06  0 
 1.635892e-04  2.176979e-05  0 
 1.740299e-04  1.102596e-05  0 
 1.623191e-04  2.482162e-05  0 
 1.534227e-04  3.751471e-05  0 
 1.637555e-04  1.677128e-05  0 
 1.764519e-04  8.412279e-06  0 
 1.425557e-04  3.910865e-05  0 
 1.654068e-04  1.734073e-05  0 
 1.418074e-04  4.738411e-05  0 
 1.702868e-04  1.656602e-05  0 
 1.682182e-04  1.999449e-05  0 
 1.532287e-04  2.575367e-05  0 
 1.745803e-04  9.542186e-06  0 
 1.751377e-04  6.974896e-06  0 
 1.455518e-04  3.215363e-05  0 
 1.733366e-04  1.234673e-05  0 
 1.689098e-04  1.634070e-05  0 
 1.626550e-04  2.715008e-05  0 
 1.539192e-04  2.418831e-05  0 
 1.686520e-04  8.055656e-06  0 
 1.768176e-04  9.020201e-06  0 
 1.759948e-04  8.638264e-06  0 
 1.760377e-04  8.477678e-06  0 
 1.642367e-04  2.315903e-05  0 
 1.643877e-04  2.874655e-05  0 
 1.541187e-04  2.947589e-05  0 
 1.664858e-04  1.687022e-05  0 
 1.537777e-04  3.358975e-05  0 
 1.276587e-04  6.023797e-05  0 
 1.678574e-04  2.373509e-05  0 
 1.729608e-04  1.253481e-05  0 
 6.791119e-05  5.401661e-05  0 
 8.710607e-05  5.942557e-05  0 
 1.200852e-04  3.319964e-05  0 
 1.377842e-04  2.545762e-05  0 
 1.043311e-04  4.845245e-05  0 
 4.990947e-05  7.137032e-05  0 
 1.064829e-04  3.903037e-05  0 
 5.629012e-05  6.191122e-05  0 
 1.300874e-04  3.343864e-05  0 
 3.985642e-05  7.880047e-05  0 
 5.564715e-05  7.592864e-05  0 
 1.004359e-04  7.110049e-05  0 
 1.159818e-04  4.817935e-05  0 
 1.425862e-04  2.839395e-05  0 
 1.243666e-04  4.034109e-05  0 
 1.003053e-04  5.242000e-05  0 
 8.631639e-05  4.755049e-05  0 
 4.162920e-05  6.963328e-05  0 
 1.330944e-04  3.447769e-05  0 
 5.483537e-05  6.595009e-05  0 
 1.080412e-04  5.896791e-05  0 
 3.993175e-05  7.466663e-05  0 
 8.971757e-05  5.358934e-05  0 
 1.088912e-04  6.782665e-05  0 
 1.118208e-04  4.229817e-05  0 
 8.677354e-05  6.684919e-05  0 
 6.763589e-05  6.615792e-05  0 
 7.226627e-05  7.454873e-05  0 
 7.604337e-05  5.550859e-05  0 
 7.308303e-05  5.980834e-05  0 
 9.341600e-05  5.062907e-05  0 
 6.501855e-05  6.071788e-05  0 
 1.548689e-04  2.073120e-05  0 
VECTORS displacement_ITER3 FLOAT
 2.786932e-04  -2.168868e-05  0 
 2.090734e-04  2.585117e-05  0 
 2.576405e-04  -1.105542e-05  0 
 2.750627e-04  -1.499953e-05  0 
 2.932673e-04  -1.363208e-05  0 
 2.896094e-04  -1.303268e-05  0 
 2.818573e-04  -2.715290e-05  0 
 2.855780e-04  -1.778292e-05  0 
 2.749525e-04  -1.392622e-05  0 
 2.644641e-04  -9.922793e-06  0 
 2.515588e-04  -7.007141e-06  0 
 2.389525e-04  6.527931e-07  0 
 2.274593e-04  9.488699e-06  0 
 2.185895e-04  1.474767e-05  0 
 2.428485e-04  -2.151089e-05  0 
 2.348432e-04  -9.011286e-06  0 
 2.262551e-04  1.952225e-06  0 
 2.190707e-04  1.303690e-05  0 
 1.963735e-04  3.039498e-05  0 
 1.825304e-04  3.946211e-05  0 
 1.631572e-04  3.933412e-05  0 
 1.555373e-04  3.500456e-05  0 
 2.999378e-04  -4.059035e-06  0 
 2.942466e-04  -1.617001e-05  0 
 2.808757e-04  -5.524524e-06  0 
 2.765727e-04  -2.904856e-05  0 
 2.664123e-04  -3.919478e-05  0 
 2.480490e-04  -1.654209e-05  0 
 2.822037e-04  -2.792014e-05  0 
 2.343731e-04  2.459903e-06  0 
 2.895191e-04  -1.937518e-05  0 
 2.690996e-04  -2.674228e-05  0 
 2.714866e-04  -2.661793e-05  0 
 2.812850e-04  -2.855042e-05  0 
 2.612971e-04  -2.932447e-05  0 
 2.456845e-04  -1.808745e-05  0 
 2.792514e-04  -2.571690e-05  0 
 2.857807e-04  -2.665322e-05  0 
 2.448310e-04  -4.872303e-06  0 
 2.851525e-04  -2.177691e-05  0 
 2.339430e-04  -3.914250e-06  0 
 2.741792e-04  -3.465578e-05  0 
 2.640711e-04  -3.599100e-05  0 
 2.623540e-04  -1.854616e-05  0 
 2.762177e-04  -3.582550e-05  0 
 2.694078e-04  -4.042629e-05  0 
 2.520253e-04  -1.056495e-05  0 
 2.621095e-04  -4.045472e-05  0 
 2.673247e-04  -3.821431e-05  0 
 2.583229e-04  -2.959319e-05  0 
 2.662741e-04  -1.844439e-05  0 
 2.231585e-04  -3.440508e-05  0 
 2.804645e-04  -3.209007e-05  0 
 2.782804e-04  -2.595754e-05  0 
 2.842494e-04  -2.991468e-05  0 
 2.674357e-04  -2.846746e-05  0 
 2.552600e-04  -3.150930e-05  0 
 2.593796e-04  -1.706294e-05  0 
 2.776075e-04  -3.115675e-05  0 
 2.542229e-04  -1.584877e-05  0 
 2.214941e-04  1.420675e-05  0 
 2.600231e-04  -3.518819e-05  0 
 2.884044e-04  -1.603403e-05  0 
 1.689049e-04  4.063922e-05  0 
 1.826980e-04  2.637458e-05  0 
 2.405674e-04  5.578677e-06  0 
 2.644736e-04  -5.802969e-06  0 
 2.054118e-04  1.839926e-05  0 
 1.423117e-04  2.820511e-05  0 
 2.203249e-04  1.612691e-05  0 
 1.499783e-04  4.464205e-05  0 
 2.447869e-04  1.974914e-06  0 
 1.372108e-04  2.550790e-05  0 
 1.553511e-04  3.423551e-05  0 
 1.964890e-04  3.005446e-05  0 
 2.172534e-04  1.427542e-05  0 
 2.623931e-04  -6.576558e-06  0 
 2.306805e-04  6.336517e-06  0 
 1.986609e-04  2.101793e-05  0 
 1.903357e-04  3.054051e-05  0 
 1.407983e-04  4.497533e-05  0 
 2.448140e-04  6.950957e-07  0 
 1.437319e-04  3.403309e-05  0 
 2.046528e-04  2.160035e-05  0 
 1.366303e-04  3.175860e-05  0 
 1.864030e-04  2.490664e-05  0 
 2.027323e-04  2.556821e-05  0 
 2.187781e-04  1.474368e-05  0 
 1.816811e-04  2.742269e-05  0 
 1.635471e-04  2.994089e-05  0 
 1.671571e-04  3.352949e-05  0 
 1.735848e-04  3.236227e-05  0 
 1.686433e-04  2.993045e-05  0 
 1.932509e-04  2.507328e-05  0 
 1.572558e-04  3.505975e-05  0 
 2.821636e-04  -2.406411e-05  0 
VECTORS displacement_ITER4 FLOAT
 9.560178e-04  -1.002194e-04  0 
 9.311575e-04  2.013587e-04  0 
 9.108601e-04  -7.652135e-05  0 
 1.076525e-03  -6.236846e-05  0 
 1.064437e-03  -6.763631e-05  0 
 1.016192e-03  -7.366686e-05  0 
 9.163435e-04  -9.808397e-05  0 
 9.787555e-04  -7.750811e-05  0 
 9.667393e-04  -6.645757e-05  0 
 9.557664e-04  -5.074592e-05  0 
 9.561531e-04  -2.292685e-05  0 
 9.558296e-04  2.223147e-05  0 
 9.540127e-04  7.961132e-05  0 
 9.495462e-04  1.262642e-04  0 
 1.104271e-03  1.079249e-04  0 
 1.066707e-03  1.255064e-04  0 
 1.026026e-03  1.454963e-04  0 
 9.828625e-04  1.653076e-04  0 
 8.586238e-04  2.140035e-04  0 
 7.779335e-04  2.386706e-04  0 
 6.777146e-04  2.528842e-04  0 
 5.438653e-04  2.938202e-04  0 
 1.026800e-03  -5.473646e-05  0 
 1.064295e-03  -6.868429e-05  0 
 9.754236e-04  -6.405966e-05  0 
 9.306995e-04  -1.158114e-04  0 
 1.131355e-03  -2.303346e-05  0 
 1.067715e-03  7.209205e-05  0 
 1.053179e-03  -7.326673e-05  0 
 1.010959e-03  1.039000e-04  0 
 1.029711e-03  -7.283477e-05  0 
 1.116746e-03  -4.980360e-05  0 
 1.071576e-03  -1.581746e-05  0 
 1.079452e-03  -5.777977e-05  0 
 1.100830e-03  2.650629e-05  0 
 1.083722e-03  9.051656e-05  0 
 1.029685e-03  -6.650788e-05  0 
 1.073494e-03  -7.496260e-05  0 
 1.004898e-03  4.671533e-05  0 
 1.011388e-03  -7.468648e-05  0 
 1.041751e-03  1.150268e-04  0 
 1.106207e-03  -2.206430e-05  0 
 1.129389e-03  1.641187e-05  0 
 1.017065e-03  -1.945798e-05  0 
 1.108077e-03  -4.061054e-05  0 
 1.127213e-03  -4.575746e-05  0 
 9.961531e-04  5.953989e-06  0 
 1.138420e-03  -6.372040e-06  0 
 1.122829e-03  -4.478770e-06  0 
 1.112063e-03  4.768583e-05  0 
 1.000878e-03  -3.771128e-05  0 
 1.164412e-03  -3.601295e-05  0 
 1.110141e-03  -5.867154e-05  0 
 1.097849e-03  -6.425781e-05  0 
 1.087343e-03  -6.935454e-05  0 
 1.091382e-03  6.389562e-06  0 
 1.125203e-03  6.354931e-05  0 
 1.040792e-03  1.475556e-05  0 
 1.067960e-03  -4.133108e-05  0 
 1.057084e-03  4.588027e-05  0 
 9.778312e-04  1.481070e-04  0 
 1.134514e-03  4.003296e-05  0 
 1.000704e-03  -7.668836e-05  0 
 5.481651e-04  -6.469237e-05  0 
 7.602738e-04  7.590678e-05  0 
 7.956964e-04  -5.948947e-05  0 
 8.575338e-04  -6.499507e-05  0 
 8.080861e-04  1.811575e-06  0 
 5.673324e-04  1.196063e-04  0 
 7.575444e-04  -5.876619e-05  0 
 5.101340e-04  -3.037707e-05  0 
 8.584225e-04  -5.378896e-05  0 
 4.752632e-04  2.013590e-04  0 
 6.232547e-04  1.805089e-04  0 
 8.387717e-04  1.726984e-04  0 
 8.759739e-04  3.402932e-05  0 
 8.964145e-04  -5.980472e-05  0 
 8.849418e-04  -1.306490e-05  0 
 8.110086e-04  3.665400e-05  0 
 6.814671e-04  -4.844525e-05  0 
 3.434184e-04  7.278667e-06  0 
 8.957001e-04  -4.123060e-05  0 
 5.666393e-04  4.866082e-05  0 
 8.673002e-04  1.013674e-04  0 
 3.972865e-04  8.441114e-05  0 
 7.430099e-04  1.301921e-05  0 
 8.861180e-04  1.654288e-04  0 
 8.082224e-04  -4.272013e-05  0 
 7.698315e-04  1.391442e-04  0 
 6.764508e-04  1.119397e-04  0 
 7.066189e-04  1.817457e-04  0 
 6.648375e-04  -1.599211e-05  0 
 6.776099e-04  3.336793e-05  0 
 7.354660e-04  -1.707553e-05  0 
 6.118740e-04  1.263194e-05  0 
 9.318975e-04  -1.041542e-04  0 
VECTORS displacement_ITER5 FLOAT
 1.234975e-03  2.075110e-06  0 
 1.159058e-03  2.157945e-04  0 
 1.207480e-03  -9.392367e-06  0 
 1.369585e-03  -1.294266e-05  0 
 1.350308e-03  -8.196095e-06  0 
 1.309611e-03  -1.132889e-06  0 
 1.146107e-03  1.821575e-05  0 
 1.232947e-03  1.548471e-05  0 
 1.209481e-03  1.598749e-05  0 
 1.187492e-03  1.583768e-05  0 
 1.184234e-03  2.312722e-05  0 
 1.182494e-03  5.898612e-05  0 
 1.180803e-03  1.051510e-04  0 
 1.177437e-03  1.382677e-04  0 
 1.310442e-03  5.919949e-05  0 
 1.284660e-03  9.398435e-05  0 
 1.248237e-03  1.297634e-04  0 
 1.206111e-03  1.641026e-04  0 
 1.081425e-03  2.159648e-04  0 
 9.993215e-04  2.371183e-04  0 
 8.981182e-04  2.283956e-04  0 
 7.784905e-04  2.501084e-04  0 
 1.338385e-03  7.032975e-06  0 
 1.357894e-03  -1.459885e-05  0 
 1.278903e-03  9.830968e-06  0 
 1.186937e-03  -2.767574e-05  0 
 1.406051e-03  7.555714e-06  0 
 1.310941e-03  8.011807e-05  0 
 1.325315e-03  -1.493930e-05  0 
 1.249000e-03  1.206791e-04  0 
 1.308269e-03  6.920531e-07  0 
 1.397187e-03  3.072755e-06  0 
 1.329910e-03  2.510836e-05  0 
 1.353467e-03  -8.248586e-06  0 
 1.358422e-03  4.307562e-05  0 
 1.314340e-03  7.456015e-05  0 
 1.279556e-03  -8.453981e-06  0 
 1.351100e-03  -9.996312e-06  0 
 1.241601e-03  7.786661e-05  0 
 1.264764e-03  3.963761e-07  0 
 1.273648e-03  1.106867e-04  0 
 1.374735e-03  2.029622e-05  0 
 1.382858e-03  2.430850e-05  0 
 1.258415e-03  2.496712e-05  0 
 1.385594e-03  5.516730e-07  0 
 1.404844e-03  -2.307049e-06  0 
 1.232182e-03  4.497616e-05  0 
 1.403719e-03  9.047180e-06  0 
 1.386055e-03  2.358226e-05  0 
 1.358744e-03  4.048697e-05  0 
 1.239035e-03  1.706417e-05  0 
 1.429065e-03  9.466105e-06  0 
 1.390308e-03  -7.218297e-06  0 
 1.380846e-03  -3.742720e-06  0 
 1.364685e-03  -1.181485e-05  0 
 1.354595e-03  3.891004e-05  0 
 1.352752e-03  3.023682e-05  0 
 1.287439e-03  5.137541e-05  0 
 1.327006e-03  9.049895e-06  0 
 1.307417e-03  7.304044e-05  0 
 1.212298e-03  1.609042e-04  0 
 1.371310e-03  2.070913e-05  0 
 1.273825e-03  7.839847e-06  0 
 6.895449e-04  -1.020551e-05  0 
 9.533260e-04  8.866956e-05  0 
 9.962056e-04  4.261536e-05  0 
 1.079605e-03  4.499087e-05  0 
 9.981417e-04  3.785564e-05  0 
 7.553524e-04  7.820448e-05  0 
 9.433076e-04  3.118190e-05  0 
 6.508749e-04  -1.443433e-05  0 
 1.065846e-03  2.492210e-05  0 
 6.725318e-04  1.404110e-04  0 
 8.382057e-04  1.523429e-04  0 
 1.058992e-03  1.795895e-04  0 
 1.085391e-03  6.733132e-05  0 
 1.118505e-03  3.141204e-05  0 
 1.093971e-03  3.081986e-05  0 
 1.005378e-03  6.502414e-05  0 
 8.480805e-04  2.179613e-05  0 
 4.875898e-04  -2.189524e-05  0 
 1.110113e-03  1.705572e-05  0 
 7.275669e-04  3.040312e-05  0 
 1.078249e-03  1.188097e-04  0 
 5.615133e-04  1.792261e-05  0 
 9.196895e-04  3.772821e-05  0 
 1.102134e-03  1.779049e-04  0 
 9.980840e-04  1.554307e-05  0 
 9.739828e-04  1.374604e-04  0 
 8.703790e-04  1.042003e-04  0 
 9.117184e-04  1.692313e-04  0 
 8.296272e-04  1.642869e-05  0 
 8.530079e-04  3.812593e-05  0 
 9.087487e-04  2.627776e-05  0 
 7.717209e-04  2.310479e-05  0 
 1.177249e-03  7.693918e-06  0 
VECTORS displacement_ITER6 FLOAT
 1.529657e-03  -2.636063e-05  0 
 1.494862e-03  2.824458e-04  0 
 1.520561e-03  -1.661238e-05  0 
 1.759277e-03  1.159880e-05  0 
 1.720345e-03  2.170088e-06  0 
 1.638795e-03  -7.047277e-06  0 
 1.452042e-03  -2.402083e-05  0 
 1.558492e-03  -1.996374e-05  0 
 1.559490e-03  -2.014460e-05  0 
 1.561410e-03  -1.094407e-05  0 
 1.563848e-03  9.294288e-06  0 
 1.559791e-03  6.244651e-05  0 
 1.548881e-03  1.263258e-04  0 
 1.531913e-03  1.792790e-04  0 
 1.666705e-03  2.192645e-05  0 
 1.650087e-03  7.717969e-05  0 
 1.611756e-03  1.409701e-04  0 
 1.561675e-03  2.027960e-04  0 
 1.390766e-03  2.954247e-04  0 
 1.275419e-03  3.367089e-04  0 
 1.127348e-03  3.304412e-04  0 
 9.786507e-04  3.521914e-04  0 
 1.652733e-03  -2.640986e-05  0 
 1.720886e-03  -1.935894e-05  0 
 1.578349e-03  -1.545789e-05  0 
 1.479722e-03  -2.736233e-05  0 
 1.793752e-03  1.078520e-05  0 
 1.709064e-03  7.863873e-05  0 
 1.708926e-03  -6.666983e-06  0 
 1.635124e-03  1.392717e-04  0 
 1.660747e-03  1.487219e-06  0 
 1.787895e-03  1.993881e-05  0 
 1.735720e-03  1.705065e-05  0 
 1.748802e-03  8.996816e-07  0 
 1.759967e-03  3.419613e-05  0 
 1.695820e-03  6.074934e-05  0 
 1.671744e-03  -1.559274e-05  0 
 1.741366e-03  3.836051e-06  0 
 1.634494e-03  8.183698e-05  0 
 1.634414e-03  -1.760983e-05  0 
 1.655582e-03  1.158866e-04  0 
 1.780697e-03  1.465057e-05  0 
 1.770770e-03  7.787187e-06  0 
 1.660404e-03  1.441301e-05  0 
 1.784999e-03  8.088952e-06  0 
 1.796246e-03  2.891682e-06  0 
 1.627141e-03  4.061753e-05  0 
 1.776085e-03  -1.110921e-06  0 
 1.785696e-03  1.454191e-05  0 
 1.746985e-03  2.747202e-05  0 
 1.633867e-03  1.011685e-06  0 
 1.823029e-03  2.170101e-05  0 
 1.791421e-03  3.444930e-06  0 
 1.779085e-03  1.455184e-05  0 
 1.761777e-03  3.027645e-08  0 
 1.761567e-03  3.222379e-05  0 
 1.722207e-03  4.889537e-06  0 
 1.692165e-03  4.558621e-05  0 
 1.730818e-03  2.435748e-06  0 
 1.711934e-03  7.046004e-05  0 
 1.574004e-03  2.024697e-04  0 
 1.744570e-03  -3.505899e-07  0 
 1.597999e-03  -6.060699e-06  0 
 8.851627e-04  -1.559278e-05  0 
 1.228659e-03  1.366179e-04  0 
 1.312095e-03  -3.252625e-05  0 
 1.392838e-03  -2.175158e-05  0 
 1.313998e-03  4.405746e-05  0 
 9.308941e-04  1.331501e-04  0 
 1.244075e-03  -2.347599e-05  0 
 8.113975e-04  1.517307e-05  0 
 1.409890e-03  -2.362328e-05  0 
 8.273646e-04  2.047010e-04  0 
 1.048715e-03  2.324769e-04  0 
 1.366921e-03  2.519826e-04  0 
 1.430783e-03  8.381627e-05  0 
 1.460946e-03  -2.326171e-05  0 
 1.450587e-03  2.343804e-05  0 
 1.313956e-03  9.194407e-05  0 
 1.105595e-03  -5.629015e-07  0 
 5.996853e-04  2.041204e-05  0 
 1.472709e-03  -7.462386e-06  0 
 8.964525e-04  7.377279e-05  0 
 1.403948e-03  1.637285e-04  0 
 6.854712e-04  5.852220e-05  0 
 1.195270e-03  6.033739e-05  0 
 1.426576e-03  2.413733e-04  0 
 1.319546e-03  -7.210723e-06  0 
 1.248168e-03  1.996392e-04  0 
 1.099928e-03  1.663966e-04  0 
 1.151623e-03  2.491190e-04  0 
 1.061050e-03  2.976851e-05  0 
 1.085943e-03  7.561473e-05  0 
 1.189859e-03  2.504732e-05  0 
 9.675279e-04  5.480519e-05  0 
 1.484772e-03  -4.209769e-05  0 
VECTORS displacement_ITER7 FLOAT
 1.564729e-03  -5.351858e-05  0 
 1.481127e-03  2.768156e-04  0 
 1.549271e-03  -5.616079e-05  0 
 1.775290e-03  -2.044208e-05  0 
 1.737653e-03  -2.914617e-05  0 
 1.668606e-03  -3.744717e-05  0 
 1.460379e-03  -5.913198e-05  0 
 1.582823e-03  -3.455566e-05  0 
 1.574309e-03  -2.324137e-05  0 
 1.566740e-03  -6.548609e-06  0 
 1.562151e-03  1.597935e-05  0 
 1.552227e-03  6.911673e-05  0 
 1.539363e-03  1.291978e-04  0 
 1.520500e-03  1.775773e-04  0 
 1.628875e-03  -4.936491e-06  0 
 1.625540e-03  5.719730e-05  0 
 1.590097e-03  1.266244e-04  0 
 1.544668e-03  1.939413e-04  0 
 1.381008e-03  2.890674e-04  0 
 1.274185e-03  3.282754e-04  0 
 1.134075e-03  3.195014e-04  0 
 9.999892e-04  3.379590e-04  0 
 1.678205e-03  -5.333574e-05  0 
 1.737994e-03  -4.476886e-05  0 
 1.612618e-03  -4.603710e-05  0 
 1.492122e-03  -6.854048e-05  0 
 1.800385e-03  -1.433777e-05  0 
 1.694247e-03  7.175825e-05  0 
 1.728375e-03  -2.868170e-05  0 
 1.621483e-03  1.368657e-04  0 
 1.686721e-03  -2.643614e-05  0 
 1.798700e-03  -4.923455e-06  0 
 1.734861e-03  1.064536e-05  0 
 1.761701e-03  -1.926694e-05  0 
 1.751727e-03  2.570052e-05  0 
 1.675893e-03  4.822069e-05  0 
 1.681229e-03  -2.346289e-05  0 
 1.756988e-03  -2.294009e-05  0 
 1.624617e-03  8.477176e-05  0 
 1.649633e-03  -2.835362e-05  0 
 1.637282e-03  1.073327e-04  0 
 1.781996e-03  1.962179e-06  0 
 1.764222e-03  -7.167111e-06  0 
 1.658196e-03  1.355678e-05  0 
 1.793606e-03  -1.479847e-05  0 
 1.804392e-03  -2.159558e-05  0 
 1.621164e-03  4.332388e-05  0 
 1.780752e-03  -2.398834e-05  0 
 1.782926e-03  9.006122e-08  0 
 1.734329e-03  1.313156e-05  0 
 1.636355e-03  9.482979e-07  0 
 1.806574e-03  -6.230664e-06  0 
 1.801516e-03  -1.843080e-05  0 
 1.790220e-03  -1.371734e-05  0 
 1.773794e-03  -2.397105e-05  0 
 1.757533e-03  2.502722e-05  0 
 1.696709e-03  -1.842497e-05  0 
 1.685893e-03  4.457493e-05  0 
 1.734515e-03  -7.130757e-06  0 
 1.701896e-03  6.900234e-05  0 
 1.560384e-03  1.978906e-04  0 
 1.726668e-03  -2.428777e-05  0 
 1.628184e-03  -3.318618e-05  0 
 9.062436e-04  5.338629e-06  0 
 1.227702e-03  1.436283e-04  0 
 1.315643e-03  -2.044085e-05  0 
 1.410956e-03  -3.176927e-05  0 
 1.310765e-03  5.502778e-05  0 
 9.505322e-04  1.358852e-04  0 
 1.242667e-03  -3.426876e-06  0 
 8.349872e-04  3.180084e-05  0 
 1.413560e-03  -7.844807e-06  0 
 8.577596e-04  1.959343e-04  0 
 1.061784e-03  2.262677e-04  0 
 1.359615e-03  2.509231e-04  0 
 1.423528e-03  9.137022e-05  0 
 1.475808e-03  -1.975007e-05  0 
 1.444265e-03  3.533965e-05  0 
 1.310403e-03  1.003841e-04  0 
 1.109872e-03  1.651505e-05  0 
 6.320274e-04  3.553279e-05  0 
 1.471252e-03  3.126260e-06  0 
 9.123491e-04  8.024824e-05  0 
 1.395133e-03  1.668918e-04  0 
 7.119046e-04  5.801645e-05  0 
 1.195519e-03  7.024107e-05  0 
 1.415249e-03  2.400484e-04  0 
 1.316938e-03  9.978209e-06  0 
 1.245144e-03  2.006860e-04  0 
 1.105313e-03  1.716647e-04  0 
 1.154715e-03  2.441132e-04  0 
 1.066360e-03  4.317220e-05  0 
 1.089976e-03  8.417961e-05  0 
 1.191382e-03  3.893015e-05  0 
 9.784009e-04  6.549927e-05  0 
 1.508443e-03  -5.676701e-05  0 
VECTORS displacement_ITER8 FLOAT
 1.542622e-03  -4.147689e-05  0 
 1.475691e-03  2.699744e-04  0 
 1.526875e-03  -3.245450e-05  0 
 1.732191e-03  -2.395452e-06  0 
 1.700194e-03  -1.581540e-05  0 
 1.634012e-03  -2.976463e-05  0 
 1.410072e-03  -4.733394e-05  0 
 1.550004e-03  -3.184131e-05  0 
 1.545128e-03  -2.290830e-05  0 
 1.541146e-03  -7.789685e-06  0 
 1.541133e-03  1.189675e-05  0 
 1.537289e-03  6.251271e-05  0 
 1.530966e-03  1.202796e-04  0 
 1.514347e-03  1.719797e-04  0 
 1.618713e-03  2.165196e-06  0 
 1.616856e-03  5.914568e-05  0 
 1.583489e-03  1.255685e-04  0 
 1.539340e-03  1.899091e-04  0 
 1.377969e-03  2.819685e-04  0 
 1.274725e-03  3.174231e-04  0 
 1.127609e-03  3.116930e-04  0 
 9.936957e-04  3.253284e-04  0 
 1.641298e-03  -1.772998e-05  0 
 1.696729e-03  -2.169758e-05  0 
 1.586343e-03  -2.668189e-05  0 
 1.451910e-03  -4.889576e-05  0 
 1.778561e-03  -1.751443e-06  0 
 1.680074e-03  7.510913e-05  0 
 1.698208e-03  -2.570332e-05  0 
 1.612204e-03  1.328646e-04  0 
 1.656537e-03  -2.404383e-05  0 
 1.767938e-03  8.504536e-06  0 
 1.711303e-03  1.633287e-05  0 
 1.733583e-03  -1.432018e-05  0 
 1.734080e-03  3.324570e-05  0 
 1.662864e-03  5.274943e-05  0 
 1.651078e-03  -2.055995e-05  0 
 1.722178e-03  -1.737788e-05  0 
 1.609359e-03  8.246253e-05  0 
 1.618701e-03  -2.530828e-05  0 
 1.628624e-03  1.064092e-04  0 
 1.758111e-03  1.194265e-05  0 
 1.744693e-03  3.826756e-06  0 
 1.634370e-03  1.507456e-05  0 
 1.768132e-03  -6.547783e-06  0 
 1.777771e-03  -7.781034e-06  0 
 1.601460e-03  4.179378e-05  0 
 1.760571e-03  -1.017993e-05  0 
 1.761866e-03  1.211033e-05  0 
 1.717928e-03  2.015840e-05  0 
 1.609935e-03  1.962944e-06  0 
 1.775778e-03  1.168967e-05  0 
 1.771699e-03  -8.804840e-06  0 
 1.755474e-03  -5.240418e-06  0 
 1.741628e-03  -1.797248e-05  0 
 1.737156e-03  3.225722e-05  0 
 1.682964e-03  -1.002375e-05  0 
 1.665571e-03  4.709852e-05  0 
 1.707478e-03  -9.789474e-07  0 
 1.685148e-03  7.216234e-05  0 
 1.553368e-03  1.922677e-04  0 
 1.710214e-03  -1.388688e-05  0 
 1.596918e-03  -3.131128e-05  0 
 9.194126e-04  -6.574557e-06  0 
 1.225231e-03  1.328529e-04  0 
 1.293162e-03  -3.000154e-05  0 
 1.378602e-03  -3.737230e-05  0 
 1.306416e-03  3.812408e-05  0 
 9.351491e-04  1.283846e-04  0 
 1.229357e-03  -1.696294e-05  0 
 8.353775e-04  3.050284e-05  0 
 1.393256e-03  -1.380644e-05  0 
 8.436338e-04  1.771371e-04  0 
 1.051543e-03  2.147209e-04  0 
 1.355670e-03  2.436476e-04  0 
 1.416143e-03  7.752754e-05  0 
 1.449312e-03  -2.190132e-05  0 
 1.430055e-03  2.520986e-05  0 
 1.307112e-03  8.579856e-05  0 
 1.110223e-03  -2.928569e-06  0 
 6.197659e-04  4.482348e-05  0 
 1.451803e-03  -2.710457e-06  0 
 8.976139e-04  6.982877e-05  0 
 1.390222e-03  1.568515e-04  0 
 6.886123e-04  4.978495e-05  0 
 1.195019e-03  5.450435e-05  0 
 1.411463e-03  2.336001e-04  0 
 1.306272e-03  -1.692321e-06  0 
 1.241822e-03  1.915952e-04  0 
 1.100233e-03  1.634534e-04  0 
 1.151514e-03  2.316421e-04  0 
 1.063896e-03  2.582688e-05  0 
 1.085922e-03  7.242215e-05  0 
 1.191442e-03  2.004883e-05  0 
 9.690450e-04  5.352529e-05  0 
 1.471212e-03  -4.291926e-05  0 
VECTORS displacement_ITER9 FLOAT
 1.544516e-03  -3.811014e-05  0 
 1.466650e-03  2.737385e-04  0 
 1.545892e-03  -2.164635e-05  0 