# vtk DataFile Version 3.1
this is an vtk file created by FEMAC
ASCII
DATASET UNSTRUCTURED_GRID
POINTS 100 FLOAT
2.000000 2.000000 0.000000
2.000000 3.000000 0.000000
3.000000 3.000000 0.000000
2.000000 2.125000 0.000000
2.000000 2.250000 0.000000
2.000000 2.375000 0.000000
2.000000 2.500000 0.000000
2.000000 2.625000 0.000000
2.000000 2.750000 0.000000
2.000000 2.875000 0.000000
2.125000 2.000000 0.000000
2.125000 3.000000 0.000000
2.250000 3.000000 0.000000
2.375000 3.000000 0.000000
2.500000 3.000000 0.000000
2.625000 3.000000 0.000000
2.750000 3.000000 0.000000
2.875000 3.000000 0.000000
3.000000 2.500000 0.000000
3.000000 2.625000 0.000000
3.000000 2.750000 0.000000
3.000000 2.875000 0.000000
3.125000 3.000000 0.000000
1.749964 2.285766 0.000000
1.782358 2.735732 0.000000
1.828811 2.510058 0.000000
1.586577 2.535048 0.000000
1.901810 2.572289 0.000000
1.904726 2.453300 0.000000
1.915180 2.179977 0.000000
1.888942 2.729904 0.000000
1.797286 2.871424 0.000000
1.666926 2.218205 0.000000
1.680960 2.655875 0.000000
1.719612 2.505389 0.000000
1.799802 2.144311 0.000000
1.793639 2.627384 0.000000
1.628805 2.296882 0.000000
1.917996 2.089858 0.000000
1.860447 2.270418 0.000000
1.810944 2.393504 0.000000
1.915223 2.348444 0.000000
1.564333 2.400408 0.000000
1.685333 2.387417 0.000000
1.638964 2.457066 0.000000
1.926871 2.871055 0.000000
2.228679 1.778330 0.000000
2.114478 1.850685 0.000000
2.255786 1.901655 0.000000
2.059870 1.931421 0.000000
2.502135 2.450532 0.000000
2.309870 2.780283 0.000000
2.695515 2.774954 0.000000
2.227536 2.222828 0.000000
2.081502 2.784721 0.000000
2.114120 2.149680 0.000000
2.248313 2.485947 0.000000
2.629729 2.663399 0.000000
2.315715 2.293033 0.000000
2.598872 2.890703 0.000000
2.375466 2.647281 0.000000
2.128556 2.288517 0.000000
2.182508 2.915024 0.000000
2.731124 2.900735 0.000000
2.149006 2.678882 0.000000
2.255245 2.098914 0.000000
2.907190 2.795285 0.000000
2.368473 2.471271 0.000000
2.501724 2.663436 0.000000
2.118369 2.486930 0.000000
2.400606 2.369955 0.000000
2.255478 2.672304 0.000000
2.501856 2.321607 0.000000
2.898171 2.601060 0.000000
2.436374 2.554825 0.000000
2.562111 2.559939 0.000000
2.089832 2.594361 0.000000
2.294072 2.390275 0.000000
2.234465 2.320763 0.000000
2.170629 2.391239 0.000000
2.313642 2.567436 0.000000
2.557551 2.772352 0.000000
2.195773 2.580977 0.000000
2.809574 2.706992 0.000000
2.441363 2.772949 0.000000
2.402828 2.249658 0.000000
2.192051 2.801968 0.000000
2.916211 2.700966 0.000000
2.094207 2.892273 0.000000
2.064068 2.686593 0.000000
2.264215 2.878073 0.000000
2.398072 2.886719 0.000000
2.816180 2.823093 0.000000
2.499171 2.864545 0.000000
2.868499 2.913445 0.000000
2.317029 2.199861 0.000000
2.059780 2.068670 0.000000
3.121935 2.816799 0.000000
3.166985 2.923830 0.000000
3.082784 2.923126 0.000000
CELLS 157 628 
3 27  6  7
3 6 28  5
3 31 24 30
3 29  3  4
3 27 28  6
3 27 25 28
3 30  7  8
3 7 30 27
3 26 34 33
3 24 36 30
3 36 27 30
3 3 38  0
3 38  3 29
3 38 29 35
3 36 24 33
3 36 25 27
3 36 34 25
3 36 33 34
3 35 23 32
3 4 39 29
3 40 23 39
3 35 39 23
3 35 29 39
3 37 32 23
3 34 40 25
3 25 40 28
3 28 41  5
3 39 41 40
3 41 28 40
3 40 43 23
3 43 37 23
3 41  4  5
3 39  4 41
3 40 34 43
3 37 43 42
3 44 34 26
3 44 42 43
3 42 44 26
3 34 44 43
3 45  9  1
3 8  9 45
3 45 31 30
3 30  8 45
3 46 48 47
3 48 10 47
3 10 49 47
3 49 10  0
3 3 55  4
3 14 59 15
3 53 61 55
3 65 53 55
3 11 62 12
3 54  9  8
3 10 65 55
3 4 55 61
3 15 63 16
3 63 15 59
3 52 63 59
3 4 61  5
3 21 66 20
3 70 50 67
3 71 60 51
3 72 50 70
3 73 18 19
3 50 74 67
3 60 74 68
3 75 57 68
3 6 76  7
3 76  6 69
3 56 77 67
3 58 78 53
3 78 61 53
3 78 58 77
3 79 56 69
3 56 79 77
3 80 56 67
3 80 60 71
3 52 81 57
3 81 52 59
3 56 82 69
3 64 82 71
3 84 60 68
3 58 85 70
3 20 87 19
3 87 20 66
3 9 88  1
3 88 11  1
3 89  8  7
3 89 64 54
3 8 89 54
3 76 89  7
3 76 64 89
3 66 83 87
3 87 73 19
3 70 77 58
3 70 67 77
3 80 74 60
3 67 74 80
3 75 74 50
3 68 74 75
3 76 82 64
3 76 69 82
3 72 70 85
3 80 82 56
3 80 71 82
3 78 79 61
3 78 77 79
3 11 88 62
3 54 88  9
3 86 88 54
3 62 88 86
3 51 86 71
3 86 64 71
3 64 86 54
3 6  5 69
3 79  5 61
3 69  5 79
3 84 51 60
3 90 12 62
3 52 92 63
3 66 92 83
3 92 52 83
3 90 86 51
3 62 86 90
3 91 51 84
3 90 51 91
3 91 14 13
3 83 73 87
3 68 57 81
3 81 84 68
3 90 13 12
3 91 13 90
3 93 59 14
3 91 93 14
3 59 93 81
3 17 94  2
3 94 21  2
3 53 95 58
3 95 53 65
3 95 85 58
3 93 84 81
3 91 84 93
3 16 94 17
3 94 66 21
3 92 66 94
3 92 94 63
3 16 63 94
3 96  3  0
3 96 10 55
3 10 96  0
3 3 96 55
3 20 97 21
3 21 99  2
3 22 99 98
3 99 22  2
3 97 99 21
3 97 98 99
CELL_TYPES 157
5 5 5 5 5 5 5 5 5 5 5 5 5 5 5 5 5 5 5 5 5 5 5 5 5 5 5 5 5 5 5 5 5 5 5 5 5 5 5 5 5 5 5 5 5 5 5 5 5 5 5 5 5 5 5 5 5 5 5 5 5 5 5 5 5 5 5 5 5 5 5 5 5 5 5 5 5 5 5 5 5 5 5 5 5 5 5 5 5 5 5 5 5 5 5 5 5 5 5 5 5 5 5 5 5 5 5 5 5 5 5 5 5 5 5 5 5 5 5 5 5 5 5 5 5 5 5 5 5 5 5 5 5 5 5 5 5 5 5 5 5 5 5 5 5 5 5 5 5 5 5 5 5 5 5 5 5 
POINT_DATA 100
VECTORS displacement_ITER1 FLOAT
 9.088525e-03  -2.680084e-03  0 
 0  0  0 
 0  0  0 
 7.694641e-03  -2.385458e-03  0 
 6.396499e-03  -2.187638e-03  0 
 5.254449e-03  -1.946254e-03  0 
 4.100460e-03  -1.639781e-03  0 
 2.982635e-03  -1.293549e-03  0 
 1.836278e-03  -9.548543e-04  0 
 8.296568e-04  -4.790813e-04  0 
 9.012938e-03  -1.466699e-03  0 
 0  0  0 
 0  0  0 
 0  0  0 
 0  0  0 
 0  0  0 
 0  0  0 
 0  0  0 
 1.191020e-03  -1.092915e-04  0 
 1.183239e-03  -1.553258e-04  0 
 1.031587e-03  -1.606576e-04  0 
 4.410128e-04  -1.260552e-04  0 
 0  0  0 
 6.616521e-03  -3.524701e-03  0 
 2.330364e-03  -2.622901e-03  0 
 4.417789e-03  -2.627103e-03  0 
 4.455496e-03  -4.451701e-03  0 
 3.702525e-03  -2.030248e-03  0 
 4.756017e-03  -2.294805e-03  0 
 7.258434e-03  -2.844725e-03  0 
 2.301000e-03  -1.745640e-03  0 
 1.344256e-03  -2.407199e-03  0 
 7.405872e-03  -4.083973e-03  0 
 3.237474e-03  -3.592194e-03  0 
 4.674735e-03  -3.339391e-03  0 
 7.841306e-03  -3.536640e-03  0 
 3.443343e-03  -2.614947e-03  0 
 6.682698e-03  -4.196052e-03  0 
 8.255398e-03  -2.988829e-03  0 
 6.531505e-03  -2.949966e-03  0 
 5.484425e-03  -2.970670e-03  0 
 5.668013e-03  -2.451130e-03  0 
 5.710232e-03  -4.590506e-03  0 
 5.759351e-03  -3.750893e-03  0 
 5.193251e-03  -4.044815e-03  0 
 1.124564e-03  -1.109300e-03  0 
 1.374634e-02  9.435241e-04  0 
 1.213974e-02  -1.417700e-03  0 
 1.129836e-02  1.317395e-03  0 
 1.038181e-02  -2.150284e-03  0 
 4.012254e-03  5.613133e-04  0 
 8.356000e-04  2.795667e-05  0 
 1.129542e-03  1.039740e-04  0 
 6.385213e-03  -8.614654e-04  0 
 1.260567e-03  -4.196093e-04  0 
 7.271893e-03  -1.630471e-03  0 
 3.752863e-03  -4.599224e-04  0 
 2.086045e-03  3.234189e-04  0 
 5.567375e-03  -2.584729e-04  0 
 5.314990e-04  4.050882e-05  0 
 2.006300e-03  1.495109e-04  0 
 5.817032e-03  -1.378868e-03  0 
 2.784177e-04  -1.280724e-05  0 
 5.377711e-04  1.929735e-05  0 
 2.049516e-03  -5.101917e-04  0 
 7.929193e-03  -6.328614e-04  0 
 8.630425e-04  -1.913693e-04  0 
 3.782680e-03  5.982035e-05  0 
 1.939619e-03  2.702247e-04  0 
 3.931862e-03  -1.098068e-03  0 
 4.806270e-03  1.900857e-04  0 
 1.847637e-03  -1.618772e-04  0 
 5.433275e-03  7.116690e-04  0 
 1.151381e-03  -9.063860e-05  0 
 2.897066e-03  3.013469e-04  0 
 2.999231e-03  4.682286e-04  0 
 2.998994e-03  -9.688896e-04  0 
 4.647839e-03  -3.388768e-04  0 
 5.353105e-03  -7.235328e-04  0 
 4.794263e-03  -9.727599e-04  0 
 2.829250e-03  -7.366099e-05  0 
 1.012970e-03  1.907740e-04  0 
 2.867153e-03  -5.725935e-04  0 
 1.040996e-03  -1.490138e-04  0 
 9.497720e-04  1.425550e-04  0 
 6.110808e-03  3.218457e-04  0 
 7.879347e-04  -4.792092e-05  0 
 1.096904e-03  -1.430888e-04  0 
 3.915700e-04  -2.706901e-05  0 
 2.239643e-03  -8.050643e-04  0 
 4.132375e-04  1.944347e-05  0 
 3.878102e-04  1.756153e-05  0 
 9.098101e-04  -2.316108e-05  0 
 5.573635e-04  1.164568e-04  0 
 4.615960e-04  3.350428e-06  0 
 6.684379e-03  -2.159644e-04  0 
 8.188869e-03  -2.073419e-03  0 
 6.837498e-04  7.572182e-05  0 
 2.344093e-04  7.835882e-05  0 
 2.019604e-04  9.330145e-06  0 
VECTORS displacement_ITER2 FLOAT
 4.456683e-03  -2.835256e-04  0 
 0  0  0 
 0  0  0 
 4.177890e-03  -3.800625e-04  0 
 3.747604e-03  -3.689070e-04  0 
 3.145682e-03  -3.120388e-04  0 
 2.559193e-03  -2.677567e-04  0 
 1.890825e-03  -2.435387e-04  0 
 1.196190e-03  -2.047683e-04  0 
 5.874608e-04  -1.046879e-04  0 
 4.548088e-03  -4.295836e-04  0 
 0  0  0 
 0  0  0 
 0  0  0 
 0  0  0 
 0  0  0 
 0  0  0 
 0  0  0 
 1.688182e-03  3.073844e-04  0 
 1.348651e-03  1.978087e-04  0 
 9.587816e-04  3.550259e-05  0 
 4.104528e-04  -4.553330e-05  0 
 0  0  0 
 3.697621e-03  -5.195170e-04  0 
 1.269628e-03  -5.906139e-04  0 
 2.521329e-03  -4.510700e-04  0 
 2.323674e-03  -1.034731e-03  0 
 2.191600e-03  -3.617928e-04  0 
 2.819634e-03  -3.619957e-04  0 
 4.007232e-03  -4.587006e-04  0 
 1.347640e-03  -3.660513e-04  0 
 6.772975e-04  -6.321650e-04  0 
 3.954477e-03  -6.621026e-04  0 
 1.691130e-03  -8.168022e-04  0 
 2.549911e-03  -6.259492e-04  0 
 4.100607e-03  -5.142811e-04  0 
 1.907367e-03  -5.094498e-04  0 
 3.658299e-03  -7.467439e-04  0 
 4.219141e-03  -4.327280e-04  0 
 3.725435e-03  -4.960157e-04  0 
 3.163826e-03  -4.739321e-04  0 
 3.319145e-03  -4.050622e-04  0 
 3.026168e-03  -1.027439e-03  0 
 3.172279e-03  -6.361885e-04  0 
 2.759911e-03  -8.320661e-04  0 
 6.687441e-04  -2.484930e-04  0 
 1.521066e-03  -2.514553e-03  0 
 3.224369e-03  -6.810438e-04  0 
 3.335734e-03  -2.256553e-03  0 
 4.068492e-03  -2.872652e-04  0 
 2.743359e-03  2.226383e-04  0 
 8.450426e-04  1.840187e-05  0 
 8.953532e-04  5.239696e-05  0 
 3.713454e-03  -1.598577e-04  0 
 9.576535e-04  -9.824876e-05  0 
 4.073586e-03  -3.935122e-04  0 
 2.521881e-03  -1.336135e-04  0 
 1.585234e-03  1.084930e-04  0 
 3.428937e-03  -2.531990e-05  0 
 4.360760e-04  2.409953e-05  0 
 1.574926e-03  2.579224e-05  0 
 3.488424e-03  -2.893784e-04  0 
 3.255913e-04  1.180091e-06  0 
 4.225247e-04  8.301481e-06  0 
 1.516318e-03  -1.092339e-04  0 
 4.189659e-03  -1.693621e-04  0 
 7.190182e-04  -8.113631e-05  0 
 2.604922e-03  2.473381e-05  0 
 1.515016e-03  8.802184e-05  0 
 2.570729e-03  -2.203608e-04  0 
 3.107909e-03  9.248131e-05  0 
 1.480945e-03  -4.920255e-05  0 
 3.300177e-03  2.177604e-04  0 
 1.330942e-03  8.551033e-05  0 
 2.127034e-03  1.025993e-04  0 
 2.166179e-03  1.839602e-04  0 
 2.024522e-03  -1.867090e-04  0 
 3.005663e-03  -6.205124e-05  0 
 3.323099e-03  -1.363099e-04  0 
 2.997197e-03  -2.258552e-04  0 
 2.056025e-03  -4.853906e-05  0 
 8.900802e-04  4.959761e-05  0 
 2.037385e-03  -1.374816e-04  0 
 9.126001e-04  -9.432236e-05  0 
 8.720344e-04  3.035431e-05  0 
 3.584406e-03  8.997986e-05  0 
 7.838811e-04  -4.806200e-06  0 
 1.018996e-03  1.730371e-05  0 
 4.255742e-04  -2.283929e-06  0 
 1.521338e-03  -1.652398e-04  0 
 4.667363e-04  1.384820e-05  0 
 4.332873e-04  1.179567e-05  0 
 7.113235e-04  -2.101243e-05  0 
 5.254295e-04  2.208516e-05  0 
 3.546657e-04  3.194283e-06  0 
 3.773944e-03  -3.533737e-05  0 
 4.345597e-03  -4.030667e-04  0 
 7.394871e-04  1.300003e-04  0 
 2.890537e-04  1.226202e-04  0 
 2.323766e-04  1.017367e-05  0 
VECTORS displacement_ITER3 FLOAT
 3.391524e-03  5.497872e-04  0 
 0  0  0 
 0  0  0 
 3.326096e-03  6.514480e-04  0 
 3.040388e-03  6.715834e-04  0 
 2.558748e-03  6.478647e-04  0 
 2.110838e-03  5.826845e-04  0 
 1.500679e-03  4.372399e-04  0 
 8.949130e-04  3.127341e-04  0 
 4.573555e-04  1.586206e-04  0 
 3.385887e-03  5.755253e-04  0 
 0  0  0 
 0  0  0 
 0  0  0 
 0  0  0 
 0  0  0 
 0  0  0 
 0  0  0 
 1.738215e-03  3.277584e-04  0 
 1.446647e-03  2.303101e-04  0 
 1.048097e-03  5.846045e-05  0 
 4.744878e-04  -4.320746e-05  0 
 0  0  0 
 3.062750e-03  9.474861e-04  0 
 7.962981e-04  6.991057e-04  0 
 1.905746e-03  8.515767e-04  0 
 1.671636e-03  7.857988e-04  0 
 1.660733e-03  6.995004e-04  0 
 2.251128e-03  8.210461e-04  0 
 3.239616e-03  7.570972e-04  0 
 9.057547e-04  5.634024e-04  0 
 3.004493e-04  5.598965e-04  0 
 3.330080e-03  9.160839e-04  0 
 1.083825e-03  8.460513e-04  0 
 1.861488e-03  9.510806e-04  0 
 3.401792e-03  8.274625e-04  0 
 1.308986e-03  7.898145e-04  0 
 3.061865e-03  9.074326e-04  0 
 3.426674e-03  7.155685e-04  0 
 3.034701e-03  8.368465e-04  0 
 2.509995e-03  9.585283e-04  0 
 2.659963e-03  8.066576e-04  0 
 2.473184e-03  7.806844e-04  0 
 2.566338e-03  9.514192e-04  0 
 2.137187e-03  8.685398e-04  0 
 3.948670e-04  3.924595e-04  0 
 2.753677e-03  3.387309e-04  0 
 3.284622e-03  5.259164e-04  0 
 3.255882e-03  5.426019e-04  0 
 3.370916e-03  5.707196e-04  0 
 2.621177e-03  2.013739e-04  0 
 9.750033e-04  3.951719e-05  0 
 9.716508e-04  3.866376e-05  0 
 3.058715e-03  4.614283e-04  0 
 8.519075e-04  1.447808e-04  0 
 3.246830e-03  5.194984e-04  0 
 2.302795e-03  2.292183e-04  0 
 1.637309e-03  5.226233e-05  0 
 2.968001e-03  3.417548e-04  0 
 5.095878e-04  2.609682e-05  0 
 1.626794e-03  6.610548e-05  0 
 2.900100e-03  5.217463e-04  0 
 3.909400e-04  1.735277e-05  0 
 4.814707e-04  5.881281e-06  0 
 1.393849e-03  2.158329e-04  0 
 3.341552e-03  4.441713e-04  0 
 7.851470e-04  -6.511452e-05  0 
 2.471436e-03  1.446192e-04  0 
 1.578365e-03  6.875086e-05  0 
 2.211089e-03  4.062776e-04  0 
 2.835452e-03  2.129080e-04  0 
 1.491686e-03  6.289543e-05  0 
 2.962792e-03  2.186096e-04  0 
 1.431390e-03  1.237923e-04  0 
 2.110451e-03  1.187411e-04  0 
 2.149986e-03  1.374547e-04  0 
 1.741239e-03  3.871365e-04  0 
 2.697930e-03  2.868406e-04  0 
 2.860901e-03  4.041057e-04  0 
 2.590016e-03  4.028862e-04  0 
 2.006159e-03  8.844325e-05  0 
 1.009061e-03  1.961764e-05  0 
 1.861437e-03  2.162935e-04  0 
 9.898269e-04  -1.003176e-04  0 
 1.006331e-03  3.832989e-05  0 
 3.071814e-03  2.540731e-04  0 
 8.794639e-04  5.005822e-05  0 
 1.107639e-03  4.913104e-05  0 
 4.835825e-04  2.306426e-05  0 
 1.257153e-03  3.057470e-04  0 
 5.638189e-04  2.291584e-05  0 
 5.304991e-04  1.950101e-05  0 
 7.728771e-04  -2.517212e-05  0 
 6.315063e-04  1.594760e-05  0 
 3.997903e-04  6.020276e-06  0 
 3.116656e-03  3.794847e-04  0 
 3.305104e-03  5.527054e-04  0 
 8.326413e-04  1.324482e-04  0 
 3.299265e-04  1.282453e-04  0 
 2.730265e-04  1.060875e-05  0 
VECTORS displacement_ITER4 FLOAT
 2.616573e-03  2.909371e-05  0 
 0  0  0 
 0  0  0 
 2.490722e-03  1.209330e-04  0 
 2.289684e-03  1.422583e-04  0 
 1.975081e-03  1.690422e-04  0 
 1.643309e-03  1.890535e-04  0 
 1.233665e-03  1.877260e-04  0 
 8.017083e-04  1.976854e-04  0 
 3.992416e-04  1.050046e-04  0 
 2.576339e-03  1.538617e-04  0 
 0  0  0 
 0  0  0 
 0  0  0 
 0  0  0 
 0  0  0 
 0  0  0 
 0  0  0 
 4.967151e-04  -3.486456e-05  0 
 8.686702e-04  5.677202e-06  0 
 8.223086e-04  3.928383e-05  0 
 4.524042e-04  -8.844290e-06  0 
 0  0  0 
 2.379166e-03  7.828632e-05  0 
 9.101485e-04  2.682815e-04  0 
 1.667268e-03  2.399742e-04  0 
 1.664709e-03  1.653540e-04  0 
 1.434981e-03  2.510187e-04  0 
 1.811538e-03  2.283183e-04  0 
 2.440049e-03  1.333438e-04  0 
 9.090048e-04  2.868610e-04  0 
 3.813997e-04  2.845706e-04  0 
 2.559673e-03  3.688562e-05  0 
 1.208083e-03  2.508024e-04  0 
 1.730300e-03  2.627210e-04  0 
 2.610557e-03  1.721237e-05  0 
 1.292145e-03  2.710213e-04  0 
 2.450394e-03  8.099342e-05  0 
 2.602823e-03  8.250097e-05  0 
 2.312876e-03  1.559953e-04  0 
 2.026940e-03  2.132343e-04  0 
 2.081039e-03  1.856563e-04  0 
 2.253104e-03  1.510978e-04  0 
 2.183066e-03  1.380024e-04  0 
 1.989697e-03  1.869431e-04  0 
 3.692106e-04  2.839224e-04  0 
 2.606406e-03  1.252309e-04  0 
 2.901442e-03  1.474919e-04  0 
 2.767264e-03  3.204575e-04  0 
 2.739628e-03  8.450780e-05  0 
 1.738116e-03  1.321362e-04  0 
 7.801275e-04  4.299802e-05  0 
 7.526307e-04  3.678388e-05  0 
 2.222926e-03  1.304480e-04  0 
 7.268147e-04  1.075739e-04  0 
 2.418933e-03  1.079135e-04  0 
 1.643905e-03  1.504997e-04  0 
 1.213956e-03  8.613592e-06  0 
 2.068471e-03  1.464465e-04  0 
 4.099739e-04  2.486441e-05  0 
 1.204206e-03  8.092710e-05  0 
 2.143905e-03  1.570411e-04  0 
 3.226987e-04  1.589352e-05  0 
 3.858802e-04  1.238659e-05  0 
 1.061021e-03  1.339269e-04  0 
 2.492595e-03  1.139712e-04  0 
 6.625898e-04  2.200741e-05  0 
 1.691064e-03  1.115848e-04  0 
 1.174936e-03  5.300139e-05  0 
 1.646588e-03  1.727469e-04  0 
 1.902744e-03  1.244449e-04  0 
 1.110893e-03  6.746367e-05  0 
 1.986652e-03  1.508819e-04  0 
 8.454709e-04  1.535233e-04  0 
 1.478405e-03  1.019779e-04  0 
 1.494035e-03  8.340941e-05  0 
 1.327505e-03  1.826511e-04  0 
 1.868722e-03  1.511286e-04  0 
 2.036039e-03  1.522436e-04  0 
 1.889197e-03  1.672207e-04  0 
 1.438360e-03  9.831466e-05  0 
 8.078732e-04  -3.050078e-07  0 
 1.365959e-03  1.383658e-04  0 
 8.113674e-04  -1.636303e-06  0 
 8.079745e-04  4.097747e-05  0 
 2.140065e-03  1.243083e-04  0 
 7.170512e-04  4.771016e-05  0 
 8.734592e-04  9.236531e-05  0 
 3.967114e-04  2.814414e-05  0 
 1.011759e-03  1.701179e-04  0 
 4.654035e-04  2.769262e-05  0 
 4.399092e-04  2.032613e-05  0 
 6.150991e-04  1.342147e-05  0 
 5.201941e-04  8.774782e-06  0 
 3.388499e-04  1.491314e-05  0 
 2.246550e-03  1.443837e-04  0 
 2.497500e-03  9.606245e-05  0 
 6.641846e-04  3.604059e-05  0 
 2.877372e-04  4.911178e-05  0 
 2.757994e-04  6.776543e-06  0 
VECTORS displacement_ITER5 FLOAT
 2.135525e-03  9.424108e-05  0 
 0  0  0 
 0  0  0 
 2.159738e-03  1.833391e-04  0 
 2.072848e-03  1.882666e-04  0 
 1.889938e-03  1.541682e-04  0 
 1.651822e-03  1.379687e-04  0 
 1.334965e-03  1.230632e-04  0 
 9.452269e-04  1.356998e-04  0 
 5.001762e-04  7.095583e-05  0 
 2.070837e-03  1.636680e-04  0 
 0  0  0 
 0  0  0 
 0  0  0 
 0  0  0 
 0  0  0 
 0  0  0 
 0  0  0 
 1.473894e-03  3.646674e-04  0 
 1.411431e-03  3.287899e-04  0 
 1.041068e-03  2.059037e-04  0 
 5.502935e-04  5.514173e-05  0 
 0  0  0 
 2.066455e-03  2.321950e-04  0 
 1.030408e-03  1.556274e-04  0 
 1.632277e-03  2.134195e-04  0 
 1.520573e-03  2.751004e-04  0 
 1.485651e-03  1.922697e-04  0 
 1.752925e-03  2.093065e-04  0 
 2.151758e-03  2.440539e-04  0 
 1.050634e-03  1.888987e-04  0 
 4.989526e-04  1.407456e-04  0 
 2.147697e-03  3.259384e-04  0 
 1.250597e-03  2.040462e-04  0 
 1.630494e-03  2.720384e-04  0 
 2.255759e-03  2.271938e-04  0 
 1.352050e-03  1.906481e-04  0 
 2.034065e-03  3.297505e-04  0 
 2.224822e-03  2.115461e-04  0 
 2.055859e-03  2.608131e-04  0 
 1.852619e-03  2.600739e-04  0 
 1.925198e-03  2.261608e-04  0 
 1.907611e-03  4.031243e-04  0 
 1.913568e-03  2.486604e-04  0 
 1.782578e-03  2.993488e-04  0 
 4.923548e-04  1.883709e-04  0 
 2.744864e-03  6.274829e-04  0 
 2.592392e-03  1.823356e-04  0 
 2.440124e-03  7.390194e-04  0 
 2.311378e-03  1.050721e-04  0 
 1.672711e-03  4.905801e-05  0 
 8.487900e-04  2.761194e-05  0 
 8.015750e-04  3.537983e-05  0 
 2.059033e-03  4.443285e-05  0 
 8.428341e-04  6.887686e-05  0 
 2.124996e-03  1.378312e-04  0 
 1.662290e-03  7.438269e-05  0 
 1.218694e-03  -1.880399e-06  0 
 1.966326e-03  2.784070e-05  0 
 4.240694e-04  2.127744e-05  0 
 1.252796e-03  4.658549e-05  0 
 2.026361e-03  1.212841e-04  0 
 3.628376e-04  1.276529e-05  0 
 3.937012e-04  1.236507e-05  0 
 1.156885e-03  6.831428e-05  0 
 2.114659e-03  2.795013e-06  0 
 7.664138e-04  9.947602e-05  0 
 1.665114e-03  3.648166e-05  0 
 1.202280e-03  2.476526e-05  0 
 1.670748e-03  9.816117e-05  0 
 1.817140e-03  2.751159e-05  0 
 1.181514e-03  3.770363e-05  0 
 1.816127e-03  4.996880e-06  0 
 1.410175e-03  3.082162e-04  0 
 1.481710e-03  4.300586e-05  0 
 1.467162e-03  4.004058e-05  0 
 1.410412e-03  9.740764e-05  0 
 1.815272e-03  5.066237e-05  0 
 1.954838e-03  5.686493e-05  0 
 1.851613e-03  9.432640e-05  0 
 1.477360e-03  5.140116e-05  0 
 8.558530e-04  -8.527653e-06  0 
 1.439071e-03  6.997685e-05  0 
 1.000474e-03  4.942431e-05  0 
 8.629688e-04  2.399591e-05  0 
 1.966094e-03  -3.199236e-05  0 
 7.947147e-04  2.837540e-05  0 
 1.121850e-03  2.235959e-04  0 
 4.575813e-04  2.442902e-05  0 
 1.131127e-03  9.940386e-05  0 
 5.091470e-04  2.159817e-05  0 
 4.704083e-04  1.624025e-05  0 
 6.528028e-04  2.064685e-05  0 
 5.459503e-04  2.543222e-07  0 
 3.444813e-04  1.518557e-05  0 
 2.036857e-03  2.688784e-06  0 
 2.097323e-03  1.463463e-04  0 
 9.118420e-04  1.124573e-04  0 
 4.228334e-04  1.120469e-04  0 
 3.775348e-04  1.235040e-05  0 
VECTORS displacement_ITER6 FLOAT
 2.312012e-03  -3.145512e-06  0 
 0  0  0 
 0  0  0 
 2.166538e-03  4.524329e-05  0 
 1.972255e-03  8.189576e-05  0 
 1.715899e-03  8.323840e-05  0 
 1.421981e-03  8.365733e-05  0 
 1.094469e-03  9.208803e-05  0 
 7.350376e-04  1.186966e-04  0 
 3.646013e-04  6.320961e-05  0 
 2.263075e-03  4.024200e-05  0 
 0  0  0 
 0  0  0 
 0  0  0 
 0  0  0 
 0  0  0 
 0  0  0 
 0  0  0 
 1.322324e-03  2.276798e-04  0 
 1.074232e-03  2.241147e-04  0 
 7.744911e-04  1.365224e-04  0 
 4.513223e-04  5.413671e-05  0 
 0  0  0 
 1.974823e-03  -1.856792e-05  0 
 8.510444e-04  4.785466e-05  0 
 1.445069e-03  6.137530e-05  0 
 1.413586e-03  -2.845901e-05  0 
 1.267556e-03  9.872612e-05  0 
 1.556492e-03  8.555123e-05  0 
 2.130151e-03  7.136253e-05  0 
 8.457389e-04  1.298517e-04  0 
 3.777476e-04  6.838115e-05  0 
 2.128280e-03  -2.479298e-05  0 
 1.096984e-03  -5.758412e-06  0 
 1.485647e-03  3.710502e-05  0 
 2.267792e-03  -2.289427e-06  0 
 1.163696e-03  5.929419e-05  0 
 1.978951e-03  -2.409838e-05  0 
 2.256679e-03  3.332678e-05  0 
 1.967743e-03  7.090888e-05  0 
 1.712909e-03  5.100880e-05  0 
 1.790466e-03  8.434843e-05  0 
 1.815974e-03  1.560592e-05  0 
 1.792817e-03  -2.146494e-05  0 
 1.654151e-03  3.581634e-06  0 
 3.566336e-04  1.612769e-04  0 
 2.375848e-03  -4.481200e-05  0 
 2.533493e-03  -1.073753e-05  0 
 2.376248e-03  9.524682e-05  0 
 2.418945e-03  3.808848e-06  0 
 1.445307e-03  9.788333e-05  0 
 6.583771e-04  4.093524e-05  0 
 6.470952e-04  3.870703e-05  0 
 1.927981e-03  6.386467e-05  0 
 6.461234e-04  7.028267e-05  0 
 2.078084e-03  5.834415e-05  0 
 1.411504e-03  9.513769e-05  0 
 9.837695e-04  3.504435e-05  0 
 1.788281e-03  7.580299e-05  0 
 3.417122e-04  2.324712e-05  0 
 1.005371e-03  7.280510e-05  0 
 1.864225e-03  8.323541e-05  0 
 2.690392e-04  1.446016e-05  0 
 3.167146e-04  1.595614e-05  0 
 9.155950e-04  7.872764e-05  0 
 2.100146e-03  3.668810e-05  0 
 6.137276e-04  9.855419e-05  0 
 1.429981e-03  7.677700e-05  0 
 9.681498e-04  5.966662e-05  0 
 1.430222e-03  9.399377e-05  0 
 1.617627e-03  7.357643e-05  0 
 9.399875e-04  5.526529e-05  0 
 1.660327e-03  7.929720e-05  0 
 1.135712e-03  1.805944e-04  0 
 1.228787e-03  8.525000e-05  0 
 1.217880e-03  7.902392e-05  0 
 1.155639e-03  9.285910e-05  0 
 1.605134e-03  9.056675e-05  0 
 1.766432e-03  8.280068e-05  0 
 1.636708e-03  9.245898e-05  0 
 1.216477e-03  7.454892e-05  0 
 6.781283e-04  2.294883e-05  0 
 1.178808e-03  8.715916e-05  0 
 8.073200e-04  5.232827e-05  0 
 6.785133e-04  4.505314e-05  0 
 1.825442e-03  4.081265e-05  0 
 6.098622e-04  3.684326e-05  0 
 8.525942e-04  1.584294e-04  0 
 3.374974e-04  2.509454e-05  0 
 8.968076e-04  9.532581e-05  0 
 3.850030e-04  2.647358e-05  0 
 3.598362e-04  2.171073e-05  0 
 5.224625e-04  2.594462e-05  0 
 4.277076e-04  1.940163e-05  0 
 2.790158e-04  1.699047e-05  0 
 1.927474e-03  5.910170e-05  0 
 2.198333e-03  3.012122e-05  0 
 6.667639e-04  4.513756e-05  0 
 3.233109e-04  4.943412e-05  0 
 3.106924e-04  1.126473e-05  0 
VECTORS displacement_ITER7 FLOAT
 2.272362e-03  1.531553e-05  0 
 0  0  0 
 0  0  0 
 2.107408e-03  4.644118e-05  0 
 1.921020e-03  8.996944e-05  0 
 1.684675e-03  9.353906e-05  0 
 1.410484e-03  9.056673e-05  0 
 1.093765e-03  8.608009e-05  0 
 7.454187e-04  9.752335e-05  0 
 3.798106e-04  5.156355e-05  0 
 2.242637e-03  6.057205e-05  0 
 0  0  0 
 0  0  0 
 0  0  0 
 0  0  0 
 0  0  0 
 0  0  0 
 0  0  0 
 1.272577e-03  8.128117e-05  0 
 9.702080e-04  8.298397e-05  0 
 6.878564e-04  4.604559e-05  0 
 3.848143e-04  2.538733e-05  0 
 0  0  0 
 1.928534e-03  3.544537e-05  0 
 8.313960e-04  3.751203e-05  0 
 1.417251e-03  7.534857e-05  0 
 1.373054e-03  -1.764487e-06  0 
 1.249417e-03  1.019894e-04  0 
 1.534989e-03  1.025396e-04  0 
 2.078764e-03  8.056490e-05  0 
 8.394498e-04  1.080244e-04  0 
 3.859755e-04  3.453101e-05  0 
 2.076764e-03  2.715403e-05  0 
 1.057927e-03  1.495894e-05  0 
 1.446061e-03  6.008235e-05  0 
 2.203518e-03  4.906617e-05  0 
 1.132987e-03  6.092194e-05  0 
 1.929598e-03  2.179892e-05  0 
 2.190625e-03  4.457347e-05  0 
 1.927588e-03  9.214757e-05  0 
 1.682013e-03  7.828341e-05  0 
 1.755315e-03  1.034441e-04  0 
 1.750870e-03  3.212113e-05  0 
 1.742462e-03  2.595966e-05  0 
 1.595941e-03  3.241875e-05  0 
 3.788010e-04  1.203890e-04  0 
 2.434732e-03  -1.643395e-05  0 
 2.524186e-03  2.226661e-05  0 
 2.373104e-03  8.672539e-05  0 
 2.399238e-03  3.323320e-05  0 
 1.454622e-03  7.747162e-05  0 
 6.600900e-04  3.538919e-05  0 
 6.442859e-04  3.513900e-05  0 
 1.875264e-03  8.830677e-05  0 
 6.538324e-04  6.122330e-05  0 
 2.014338e-03  7.140031e-05  0 
 1.409482e-03  8.881908e-05  0 
 9.699081e-04  3.585995e-05  0 
 1.762486e-03  8.654640e-05  0 
 3.352067e-04  2.178758e-05  0 
 1.008573e-03  5.969695e-05  0 
 1.817680e-03  9.555669e-05  0 
 2.719180e-04  1.484160e-05  0 
 3.069217e-04  1.481345e-05  0 
 9.271920e-04  7.176819e-05  0 
 2.054537e-03  8.316307e-05  0 
 5.794497e-04  4.596353e-05  0 
 1.435989e-03  6.822478e-05  0 
 9.642810e-04  5.308640e-05  0 
 1.420661e-03  9.187221e-05  0 
 1.619189e-03  6.656783e-05  0 
 9.472776e-04  4.802321e-05  0 
 1.673772e-03  7.155049e-05  0 
 1.044857e-03  6.423749e-05  0 
 1.233878e-03  7.035857e-05  0 
 1.213945e-03  6.727765e-05  0 
 1.159704e-03  8.842207e-05  0 
 1.601366e-03  9.275208e-05  0 
 1.739047e-03  9.516092e-05  0 
 1.619964e-03  9.606139e-05  0 
 1.219267e-03  6.364810e-05  0 
 6.722933e-04  2.489104e-05  0 
 1.182710e-03  7.861239e-05  0 
 7.821514e-04  3.020655e-05  0 
 6.749401e-04  3.913407e-05  0 
 1.809310e-03  5.660971e-05  0 
 6.130582e-04  3.476844e-05  0 
 7.902230e-04  6.311014e-05  0 
 3.432166e-04  2.401788e-05  0 
 9.079515e-04  8.431989e-05  0 
 3.859193e-04  2.425802e-05  0 
 3.563669e-04  2.007470e-05  0 
 5.123635e-04  2.148582e-05  0 
 4.204366e-04  1.835740e-05  0 
 2.650624e-04  1.506425e-05  0 
 1.888953e-03  8.816664e-05  0 
 2.155842e-03  3.888971e-05  0 
 5.285148e-04  1.575592e-05  0 
 2.456752e-04  2.002952e-05  0 
 2.481923e-04  1.037081e-05  0 
VECTORS displacement_ITER8 FLOAT
 2.255182e-03  6.086066e-05  0 
 0  0  0 
 0  0  0 
 2.082116e-03  5.611140e-05  0 
 1.902730e-03  7.037590e-05  0 
 1.672196e-03  6.688988e-05  0 
 1.412814e-03  6.466495e-05  0 
 1.110620e-03  5.299199e-05  0 
 7.764955e-04  4.950992e-05  0 
 4.087052e-04  2.581526e-05  0 
 2.238197e-03  4.688286e-05  0 
 0  0  0 
 0  0  0 
 0  0  0 
 0  0  0 
 0  0  0 
 0  0  0 
 0  0  0 
 1.290870e-03  1.710788e-05  0 
 9.876805e-04  3.900143e-05  0 
 6.718728e-04  1.936487e-05  0 
 3.604389e-04  1.872436e-05  0 
 0  0  0 
 1.889961e-03  8.299945e-05  0 
 8.298536e-04  1.605925e-05  0 
 1.412131e-03  6.850892e-05  0 
 1.351548e-03  7.471967e-05  0 
 1.250971e-03  7.315327e-05  0 
 1.532033e-03  8.049615e-05  0 
 2.034454e-03  8.357028e-05  0 
 8.524626e-04  5.628774e-05  0 
 4.200405e-04  -1.501336e-05  0 
 2.023319e-03  7.970044e-05  0 
 1.036669e-03  5.277476e-05  0 
 1.428477e-03  9.060185e-05  0 
 2.124943e-03  8.884397e-05  0 
 1.121749e-03  5.006927e-05  0 
 1.898754e-03  8.139194e-05  0 
 2.144880e-03  7.119595e-05  0 
 1.895530e-03  9.125541e-05  0 
 1.664299e-03  8.915412e-05  0 
 1.735773e-03  8.466588e-05  0 
 1.718452e-03  9.459718e-05  0 
 1.708072e-03  8.557665e-05  0 
 1.561060e-03  9.515038e-05  0 
 4.226599e-04  4.853560e-05  0 
 2.374265e-03  -7.100072e-06  0 
 2.399149e-03  2.273855e-05  0 
 2.297988e-03  3.413221e-05  0 
 2.336239e-03  5.729895e-05  0 
 1.449212e-03  6.870683e-05  0 
 6.594475e-04  3.053251e-05  0 
 6.460293e-04  3.414886e-05  0 
 1.878880e-03  6.256136e-05  0 
 6.730630e-04  3.768434e-05  0 
 2.014778e-03  5.386823e-05  0 
 1.408741e-03  5.816354e-05  0 
 9.637133e-04  4.055593e-05  0 
 1.762516e-03  6.223882e-05  0 
 3.282018e-04  1.988155e-05  0 
 1.010292e-03  4.823922e-05  0 
 1.808163e-03  6.578997e-05  0 
 2.750047e-04  1.455462e-05  0 
 2.973060e-04  1.527152e-05  0 
 9.496460e-04  4.477114e-05  0 
 2.058176e-03  5.940014e-05  0 
 5.756563e-04  3.075844e-05  0 
 1.428562e-03  5.345693e-05  0 
 9.613061e-04  5.029064e-05  0 
 1.421873e-03  5.554143e-05  0 
 1.615029e-03  5.544107e-05  0 
 9.564007e-04  3.611983e-05  0 
 1.672993e-03  6.502390e-05  0 
 1.077490e-03  2.095850e-05  0 
 1.228495e-03  5.851467e-05  0 
 1.204620e-03  6.565334e-05  0 
 1.176258e-03  5.331575e-05  0 
 1.596596e-03  6.421898e-05  0 
 1.734389e-03  6.416792e-05  0 
 1.614657e-03  6.111910e-05  0 
 1.217325e-03  4.804234e-05  0 
 6.684310e-04  2.664565e-05  0 
 1.193090e-03  4.827471e-05  0 
 8.046094e-04  3.262465e-05  0 
 6.701792e-04  3.406628e-05  0 
 1.811238e-03  4.655960e-05  0 
 6.154242e-04  2.978059e-05  0 
 7.978166e-04  2.970483e-05  0 
 3.507160e-04  2.166302e-05  0 
 9.374868e-04  4.787650e-05  0 
 3.858729e-04  2.197377e-05  0 
 3.526920e-04  1.867901e-05  0 
 5.084527e-04  2.341523e-05  0 
 4.130440e-04  1.637231e-05  0 
 2.554370e-04  1.453989e-05  0 
 1.894164e-03  6.385749e-05  0 
 2.150384e-03  5.005041e-05  0 
 4.875655e-04  1.471624e-05  0 
 2.211914e-04  1.534368e-05  0 
 2.263881e-04  1.176139e-05  0 
VECTORS displacement_ITER9 FLOAT
 2.246130e-03  8.878107e-05  0 
 0  0  0 
 0  0  0 
 2.061933e-03  7.156284e-05  0 
 1.882772e-03  6.594175e-05  0 
 1.657947e-03  5.593234e-05  0 
 1.402825e-03  5.762044e-05  0 
 1.101006e-03  5.452538e-05  0 
 7.733229e-04  4.274770e-05  0 
 4.054390e-04  2.180820e-05  0 
 2.232257e-03  6.549313e-05  0 
 0  0  0 
 0  0  0 
 0  0  0 
 0  0  0 
 0  0  0 
 0  0  0 
 0  0  0 
 1.241595e-03  3.898277e-05  0 
 1.014468e-03  4.537760e-05  0 
 6.944068e-04  2.997926e-05  0 
 3.516852e-04  1.638104e-05  0 
 0  0  0 
 1.864787e-03  8.179583e-05  0 
 8.329811e-04  3.521756e-05  0 
 1.411725e-03  6.344291e-05  0 
 1.383526e-03  9.148899e-05  0 
 1.249103e-03  6.646454e-05  0 
 1.523825e-03  6.753991e-05  0 
 1.999812e-03  8.050411e-05  0 
 8.388288e-04  5.537054e-05  0 
 4.190982e-04  2.338685e-05  0 