# vtk DataFile Version 3.1
this is an vtk file created by FEMAC
ASCII
DATASET UNSTRUCTURED_GRID
POINTS 98 FLOAT
1.000000 1.000000 0.000000
2.000000 1.000000 0.000000
2.000000 2.000000 0.000000
1.000000 0.875000 0.000000
1.000000 1.125000 0.000000
1.000000 1.250000 0.000000
1.125000 1.000000 0.000000
1.250000 1.000000 0.000000
1.375000 1.000000 0.000000
1.500000 1.000000 0.000000
1.625000 1.000000 0.000000
1.750000 1.000000 0.000000
1.875000 1.000000 0.000000
1.750000 2.000000 0.000000
1.875000 2.000000 0.000000
2.000000 1.125000 0.000000
2.000000 1.250000 0.000000
2.000000 1.375000 0.000000
2.000000 1.500000 0.000000
2.000000 1.625000 0.000000
2.000000 1.750000 0.000000
2.000000 1.875000 0.000000
2.125000 1.000000 0.000000
2.250000 1.000000 0.000000
1.425921 0.863568 0.000000
1.291032 0.816412 0.000000
1.185857 0.898777 0.000000
1.094825 0.825839 0.000000
1.305981 0.912675 0.000000
1.081137 0.919923 0.000000
1.510070 1.457711 0.000000
1.676531 1.802576 0.000000
1.772525 1.232778 0.000000
1.249788 1.223245 0.000000
1.850995 1.112805 0.000000
1.252873 1.487457 0.000000
1.498691 1.213401 0.000000
1.762181 1.517554 0.000000
1.336361 1.289306 0.000000
1.629657 1.691542 0.000000
1.719292 1.321298 0.000000
1.855039 1.338846 0.000000
1.370590 1.164951 0.000000
1.363495 1.662807 0.000000
1.145286 1.285198 0.000000
1.711672 1.126553 0.000000
1.260627 1.085013 0.000000
1.735153 1.905073 0.000000
1.910271 1.242805 0.000000
1.119340 1.147952 0.000000
1.876332 1.832915 0.000000
1.373816 1.474184 0.000000
1.656600 1.488904 0.000000
1.129936 1.487434 0.000000
1.483569 1.673914 0.000000
1.869048 1.508098 0.000000
1.409915 1.373909 0.000000
1.634989 1.389277 0.000000
1.916893 1.583878 0.000000
1.515826 1.333422 0.000000
1.442398 1.563530 0.000000
1.575127 1.573166 0.000000
1.302591 1.391697 0.000000
1.905527 1.430962 0.000000
1.193095 1.391912 0.000000
1.680852 1.229656 0.000000
1.608412 1.280788 0.000000
1.240532 1.317036 0.000000
1.313148 1.576300 0.000000
1.495960 1.090007 0.000000
1.430911 1.276661 0.000000
1.603431 1.156734 0.000000
1.701798 1.595313 0.000000
1.184534 1.586593 0.000000
1.770530 1.715440 0.000000
1.248001 1.700605 0.000000
1.820432 1.602145 0.000000
1.771811 1.427848 0.000000
1.935303 1.928555 0.000000
1.061085 1.068238 0.000000
1.897364 1.684896 0.000000
1.765581 1.812553 0.000000
1.393240 1.776608 0.000000
1.539956 1.786205 0.000000
1.931499 1.059451 0.000000
1.078053 1.381591 0.000000
1.799802 2.144311 0.000000
1.917996 2.089858 0.000000
2.185857 0.898777 0.000000
2.081137 0.919923 0.000000
2.114478 1.850685 0.000000
2.121013 1.514569 0.000000
2.080055 1.407030 0.000000
2.180988 1.403058 0.000000
2.164914 1.100101 0.000000
2.105605 1.247038 0.000000
2.079104 1.094428 0.000000
2.059870 1.931421 0.000000
CELLS 157 628 
3 8 24  9
3 7 28  8
3 3 29  0
3 6 29 26
3 29  6  0
3 28 24  8
3 25 24 28
3 27 29  3
3 27 26 29
3 7  6 26
3 28  7 26
3 25 28 26
3 12 34 11
3 32 45 34
3 48 32 34
3 33 49 46
3 47 14 13
3 46  6  7
3 44 49 33
3 42 38 33
3 41 40 32
3 49  6 46
3 50 14 47
3 15 48 34
3 11 34 45
3 8 46  7
3 46  8 42
3 33 46 42
3 16 48 15
3 17 48 16
3 32 48 41
3 48 17 41
3 21 50 20
3 4 49  5
3 5 49 44
3 56 30 51
3 30 57 52
3 58 18 19
3 18 58 55
3 59 30 56
3 30 59 57
3 30 60 51
3 43 60 54
3 61 30 52
3 61 39 54
3 35 62 51
3 18 63 17
3 63 41 17
3 63 18 55
3 64 35 53
3 35 64 62
3 40 65 32
3 65 45 32
3 40 66 65
3 66 40 57
3 38 67 33
3 67 44 33
3 67 38 62
3 68 35 51
3 9 69  8
3 69 42  8
3 36 70 42
3 38 70 56
3 70 38 42
3 71 45 65
3 37 72 52
3 35 73 53
3 76 37 55
3 37 77 55
3 14 78  2
3 21 78 50
3 78 21  2
3 78 14 50
3 79  4  0
3 79  6 49
3 6 79  0
3 4 79 49
3 20 80 19
3 80 20 50
3 50 74 80
3 80 58 19
3 56 62 38
3 56 51 62
3 68 60 43
3 51 60 68
3 61 72 39
3 61 52 72
3 61 60 30
3 54 60 61
3 63 77 41
3 63 55 77
3 55 58 76
3 59 70 36
3 59 56 70
3 66 59 36
3 57 59 66
3 68 73 35
3 76 72 37
3 67 64 44
3 62 64 67
3 71 66 36
3 65 66 71
3 68 43 75
3 68 75 73
3 71 10 45
3 77 37 52
3 77 40 41
3 77 57 40
3 52 57 77
3 39 74 31
3 39 72 74
3 74 72 76
3 31 81 47
3 50 81 74
3 81 50 47
3 81 31 74
3 76 58 80
3 76 80 74
3 9 10 69
3 69 36 42
3 71 36 69
3 69 10 71
3 82 75 43
3 83 39 31
3 39 83 54
3 82 43 54
3 83 82 54
3 84 12  1
3 84 15 34
3 15 84  1
3 12 84 34
3 64 85 44
3 85 64 53
3 5 44 85
3 87 14  2
3 14 86 13
3 87 86 14
3 22 89 88
3 89 22  1
3 23 22 88
3 90 21 20
3 92 18 17
3 18 92 91
3 91 92 93
3 23 94 22
3 19 18 91
3 96 15  1
3 96 22 94
3 22 96  1
3 15 95 16
3 96 95 15
3 94 95 96
3 16 95 17
3 95 92 17
3 93 92 95
3 21 97  2
3 97 21 90
CELL_TYPES 157
5 5 5 5 5 5 5 5 5 5 5 5 5 5 5 5 5 5 5 5 5 5 5 5 5 5 5 5 5 5 5 5 5 5 5 5 5 5 5 5 5 5 5 5 5 5 5 5 5 5 5 5 5 5 5 5 5 5 5 5 5 5 5 5 5 5 5 5 5 5 5 5 5 5 5 5 5 5 5 5 5 5 5 5 5 5 5 5 5 5 5 5 5 5 5 5 5 5 5 5 5 5 5 5 5 5 5 5 5 5 5 5 5 5 5 5 5 5 5 5 5 5 5 5 5 5 5 5 5 5 5 5 5 5 5 5 5 5 5 5 5 5 5 5 5 5 5 5 5 5 5 5 5 5 5 5 5 
POINT_DATA 98
VECTORS displacement_ITER1 FLOAT
 7.820611e-03  -2.269324e-03  0 
 4.406676e-03  -7.429692e-04  0 
 2.889975e-03  1.991833e-03  0 
 7.367128e-03  -2.199521e-03  0 
 7.997383e-03  -2.405240e-03  0 
 7.986954e-03  -2.355363e-03  0 
 7.763176e-03  -2.564079e-03  0 
 7.494654e-03  -2.566545e-03  0 
 7.238842e-03  -2.437198e-03  0 
 6.957452e-03  -2.108980e-03  0 
 6.666513e-03  -1.796288e-03  0 
 5.278401e-03  -1.271634e-03  0 
 4.823379e-03  -1.061147e-03  0 
 3.040979e-03  1.085167e-03  0 
 3.044703e-03  1.493167e-03  0 
 4.805602e-03  -3.666730e-04  0 
 4.970540e-03  -6.053760e-05  0 
 4.944105e-03  2.446505e-04  0 
 4.849426e-03  6.469964e-04  0 
 4.533640e-03  1.023916e-03  0 
 4.143953e-03  1.451100e-03  0 
 3.509932e-03  1.740282e-03  0 
 3.983969e-03  -9.670934e-04  0 
 3.696675e-03  -1.044604e-03  0 
 7.005072e-03  -2.605812e-03  0 
 7.102962e-03  -2.833730e-03  0 
 7.429711e-03  -2.771914e-03  0 
 7.131358e-03  -2.548417e-03  0 
 7.263328e-03  -2.679101e-03  0 
 7.558342e-03  -2.491563e-03  0 
 6.224432e-03  -4.603137e-04  0 
 4.586210e-03  7.744055e-04  0 
 5.657541e-03  -3.644038e-04  0 
 7.599696e-03  -2.052539e-03  0 
 5.303257e-03  -6.810607e-04  0 
 7.004556e-03  -1.271299e-03  0 
 6.617957e-03  -1.349557e-03  0 
 5.386101e-03  4.366349e-04  0 
 7.167867e-03  -1.622418e-03  0 
 5.122100e-03  5.108424e-04  0 
 5.764945e-03  -2.249611e-04  0 
 5.342010e-03  1.163631e-04  0 
 7.287039e-03  -1.978280e-03  0 
 6.025894e-03  -2.965621e-04  0 
 7.734981e-03  -2.047170e-03  0 
 5.867233e-03  -8.893783e-04  0 
 7.582687e-03  -2.384730e-03  0 
 3.796550e-03  1.053737e-03  0 
 5.183181e-03  -1.365430e-04  0 
 7.923369e-03  -2.292186e-03  0 
 4.013031e-03  1.257758e-03  0 
 6.630412e-03  -8.156480e-04  0 
 5.730731e-03  5.293536e-05  0 
 7.260846e-03  -1.738635e-03  0 
 5.625989e-03  1.541798e-04  0 
 5.138883e-03  5.106554e-04  0 
 6.737364e-03  -1.022348e-03  0 
 5.942522e-03  -2.948678e-04  0 
 4.882468e-03  7.481490e-04  0 
 6.448287e-03  -8.635192e-04  0 
 6.163513e-03  -3.091919e-04  0 
 5.711976e-03  5.462579e-05  0 
 7.085165e-03  -1.399469e-03  0 
 5.201435e-03  3.781263e-04  0 
 7.413725e-03  -1.698599e-03  0 
 5.956141e-03  -6.556311e-04  0 
 6.175988e-03  -7.524306e-04  0 
 7.413604e-03  -1.800842e-03  0 
 6.510121e-03  -7.325742e-04  0 
 6.907704e-03  -1.914812e-03  0 
 6.820499e-03  -1.289635e-03  0 
 6.254020e-03  -1.216306e-03  0 
 5.304093e-03  4.498950e-04  0 
 6.816343e-03  -1.343914e-03  0 
 4.787508e-03  7.671788e-04  0 
 6.144761e-03  -7.358687e-04  0 
 5.093020e-03  6.929537e-04  0 
 5.508113e-03  2.188434e-04  0 
 3.371888e-03  1.651294e-03  0 
 7.961318e-03  -2.386501e-03  0 
 4.679745e-03  1.004013e-03  0 
 4.352765e-03  9.590100e-04  0 
 5.364181e-03  1.363031e-04  0 
 4.939751e-03  6.123161e-04  0 
 4.809595e-03  -7.245009e-04  0 
 7.660379e-03  -2.066861e-03  0 
 2.275359e-03  1.234633e-03  0 
 2.495455e-03  1.767435e-03  0 
 3.311814e-03  -1.230111e-03  0 
 3.672446e-03  -1.150623e-03  0 
 3.373513e-03  2.355282e-03  0 
 4.457226e-03  7.186385e-04  0 
 4.673008e-03  3.698138e-04  0 
 4.373784e-03  4.361223e-04  0 
 4.212708e-03  -7.547168e-04  0 
 4.716834e-03  -1.052817e-04  0 
 4.477835e-03  -5.624934e-04  0 
 3.105591e-03  2.207272e-03  0 
VECTORS displacement_ITER2 FLOAT
 5.808201e-03  -2.079579e-04  0 
 2.921479e-03  -1.154450e-03  0 
 3.973439e-03  8.342708e-04  0 
 5.401871e-03  -2.594888e-04  0 
 6.147768e-03  -1.723436e-04  0 
 6.336596e-03  -9.639132e-05  0 
 5.687180e-03  -4.246326e-04  0 
 5.524913e-03  -6.208910e-04  0 
 5.363697e-03  -7.834731e-04  0 
 5.155533e-03  -8.493141e-04  0 
 4.932410e-03  -9.806155e-04  0 
 3.726342e-03  -1.008903e-03  0 
 3.293465e-03  -1.217011e-03  0 
 3.936706e-03  9.929931e-04  0 
 4.005710e-03  8.679854e-04  0 
 3.466831e-03  -8.069842e-04  0 
 3.863698e-03  -5.004335e-04  0 
 4.074505e-03  -1.983586e-04  0 
 4.281680e-03  1.288187e-04  0 
 4.276207e-03  3.973096e-04  0 
 4.245824e-03  6.458953e-04  0 
 4.163958e-03  7.518092e-04  0 
 2.586243e-03  -1.404181e-03  0 
 2.365641e-03  -1.423599e-03  0 
 4.994301e-03  -1.016776e-03  0 
 4.973911e-03  -8.417606e-04  0 
 5.320745e-03  -6.302595e-04  0 
 5.125602e-03  -5.270017e-04  0 
 5.246638e-03  -7.861018e-04  0 
 5.500386e-03  -4.202011e-04  0 
 5.393302e-03  3.573032e-04  0 
 4.599903e-03  1.097485e-03  0 
 4.556381e-03  -2.095376e-04  0 
 6.012973e-03  -2.956238e-04  0 
 3.962101e-03  -7.766863e-04  0 
 6.056463e-03  2.097075e-04  0 
 5.272877e-03  -2.954926e-04  0 
 4.732591e-03  5.408474e-04  0 
 5.818851e-03  -1.815913e-04  0 
 4.871386e-03  9.605025e-04  0 
 4.789930e-03  4.344297e-05  0 
 4.421818e-03  6.158267e-05  0 
 5.690838e-03  -5.007286e-04  0 
 5.640144e-03  7.780501e-04  0 
 6.236276e-03  -1.135079e-04  0 
 4.535717e-03  -5.070207e-04  0 
 5.730569e-03  -5.332168e-04  0 
 4.200161e-03  1.072924e-03  0 
 4.064830e-03  -3.579621e-04  0 
 6.088677e-03  -2.342799e-04  0 
 4.307006e-03  8.491209e-04  0 
 5.764721e-03  3.652734e-04  0 
 4.987454e-03  4.485148e-04  0 
 6.178595e-03  9.263126e-05  0 
 5.306381e-03  9.754260e-04  0 
 4.503810e-03  3.840767e-04  0 
 5.662771e-03  1.209090e-04  0 
 5.047777e-03  1.851396e-04  0 
 4.455099e-03  4.199745e-04  0 
 5.367232e-03  2.418200e-05  0 
 5.548891e-03  6.407830e-04  0 
 5.156744e-03  6.704078e-04  0 
 5.970734e-03  5.228188e-05  0 
 4.419180e-03  1.890715e-04  0 
 6.178006e-03  5.570056e-05  0 
 4.812102e-03  -2.164303e-04  0 
 5.061370e-03  -1.198991e-04  0 
 6.054187e-03  -9.175637e-05  0 
 5.840887e-03  5.142164e-04  0 
 5.315957e-03  -6.981344e-04  0 
 5.538719e-03  -1.140803e-04  0 
 4.917676e-03  -4.444707e-04  0 
 4.815493e-03  6.999769e-04  0 
 6.067675e-03  2.196135e-04  0 
 4.587499e-03  8.311733e-04  0 
 5.806288e-03  5.718772e-04  0 
 4.628675e-03  6.375601e-04  0 
 4.695652e-03  3.326750e-04  0 
 4.125057e-03  8.417798e-04  0 
 5.960783e-03  -2.581888e-04  0 
 4.463195e-03  6.418913e-04  0 
 4.480140e-03  9.548297e-04  0 
 5.254594e-03  1.108868e-03  0 
 4.904928e-03  1.271421e-03  0 
 3.378148e-03  -1.014919e-03  0 
 6.326022e-03  -4.550686e-05  0 
 3.876692e-03  8.529109e-04  0 
 3.920958e-03  8.687838e-04  0 
 1.992560e-03  -1.584401e-03  0 
 2.267816e-03  -1.522552e-03  0 
 4.082681e-03  7.796335e-04  0 
 4.021084e-03  -8.176458e-05  0 
 3.925163e-03  -2.535486e-04  0 
 3.680502e-03  -4.401432e-04  0 
 2.905255e-03  -1.235845e-03  0 
 3.601956e-03  -6.842499e-04  0 
 3.119753e-03  -1.059882e-03  0 
 4.032150e-03  8.279646e-04  0 
VECTORS displacement_ITER3 FLOAT
 3.618866e-03  -1.909292e-04  0 
 3.556070e-03  2.309878e-04  0 
 3.386898e-03  1.307203e-04  0 
 3.201335e-03  -1.770937e-04  0 
 3.962977e-03  -1.070153e-04  0 
 4.254189e-03  -1.637422e-04  0 
 3.537388e-03  -1.396352e-04  0 
 3.615261e-03  -2.194673e-04  0 
 3.709347e-03  -2.621381e-04  0 
 3.749832e-03  -2.757559e-04  0 
 3.791178e-03  -3.087679e-04  0 
 3.772004e-03  -2.337726e-04  0 
 3.641687e-03  -1.617402e-04  0 
 3.410718e-03  1.118807e-04  0 
 3.389832e-03  9.207512e-05  0 
 3.697531e-03  2.155802e-04  0 
 3.839327e-03  2.283311e-04  0 
 3.880245e-03  2.372185e-04  0 
 3.902383e-03  2.290188e-04  0 
 3.837368e-03  1.955169e-04  0 
 3.767663e-03  1.481840e-04  0 
 3.625781e-03  1.387510e-04  0 
 3.627378e-03  6.073769e-04  0 
 3.591581e-03  9.569337e-04  0 
 3.330433e-03  -1.942302e-04  0 
 3.041219e-03  -2.069874e-05  0 
 3.228712e-03  -9.129780e-05  0 
 2.972149e-03  -2.246200e-04  0 
 3.395893e-03  -1.421112e-04  0 
 3.344663e-03  -2.068339e-04  0 
 4.198117e-03  -1.422973e-04  0 
 3.707871e-03  1.566436e-04  0 
 3.960892e-03  -8.012683e-05  0 
 4.239404e-03  -3.166696e-04  0 
 3.796387e-03  -6.145128e-05  0 
 4.369110e-03  -2.261401e-04  0 
 4.103599e-03  -2.917118e-04  0 
 3.966078e-03  9.001975e-05  0 
 4.267973e-03  -2.864286e-04  0 
 3.878666e-03  9.151382e-05  0 
 4.031573e-03  -8.710431e-05  0 
 3.925320e-03  1.086801e-04  0 
 4.087848e-03  -3.383679e-04  0 
 4.149789e-03  -8.749190e-05  0 
 4.364829e-03  -2.803836e-04  0 
 3.904380e-03  -2.127900e-04  0 
 3.874267e-03  -2.982331e-04  0 
 3.539628e-03  1.114490e-04  0 
 3.851919e-03  1.219723e-04  0 
 4.044149e-03  -2.086206e-04  0 
 3.683968e-03  1.367334e-04  0 
 4.330277e-03  -1.999040e-04  0 
 4.044803e-03  -3.196334e-05  0 
 4.367926e-03  -3.153337e-04  0 
 4.044975e-03  3.680479e-05  0 
 3.912898e-03  1.599616e-04  0 
 4.305352e-03  -2.623467e-04  0 
 4.092843e-03  -1.288002e-04  0 
 3.857013e-03  1.845474e-04  0 
 4.203221e-03  -2.380997e-04  0 
 4.191995e-03  -7.614677e-05  0 
 4.047905e-03  -1.969670e-05  0 
 4.388446e-03  -2.399856e-04  0 
 3.906689e-03  1.750007e-04  0 
 4.448496e-03  -2.612718e-04  0 
 4.025132e-03  -1.894644e-04  0 
 4.109867e-03  -2.246505e-04  0 
 4.355702e-03  -2.816509e-04  0 
 4.285425e-03  -1.967979e-04  0 
 3.951875e-03  -3.184629e-04  0 
 4.200523e-03  -3.004661e-04  0 
 3.993783e-03  -2.729315e-04  0 
 3.922253e-03  6.102621e-05  0 
 4.261509e-03  -3.043660e-04  0 
 3.763566e-03  1.462401e-04  0 
 4.142068e-03  -2.941374e-04  0 
 3.866789e-03  1.640360e-04  0 
 3.961560e-03  5.316838e-05  0 
 3.525125e-03  1.185434e-04  0 
 3.755243e-03  -1.406554e-04  0 
 3.791067e-03  1.756538e-04  0 
 3.702363e-03  1.365194e-04  0 
 3.960680e-03  5.340310e-06  0 
 3.837282e-03  1.563661e-04  0 
 3.624117e-03  4.738205e-05  0 
 4.463453e-03  -3.054172e-04  0 
 3.257490e-03  1.142819e-04  0 
 3.289102e-03  9.240855e-05  0 
 3.427821e-03  7.540571e-04  0 
 3.473862e-03  5.320848e-04  0 
 3.651415e-03  1.144528e-04  0 
 3.914396e-03  3.800005e-04  0 
 3.887132e-03  3.545780e-04  0 
 3.889075e-03  4.397627e-04  0 
 3.710261e-03  7.223334e-04  0 
 3.817629e-03  4.053322e-04  0 
 3.672657e-03  3.926117e-04  0 
 3.512475e-03  1.301274e-04  0 
VECTORS displacement_ITER4 FLOAT
 3.705326e-03  -6.871641e-04  0 
 2.431864e-03  1.065617e-04  0 
 2.834353e-03  2.668095e-04  0 
 3.874718e-03  -9.066102e-04  0 
 3.812222e-03  -4.697670e-04  0 
 3.795736e-03  -3.154715e-04  0 
 3.536163e-03  -3.552886e-04  0 
 3.455877e-03  -1.270493e-04  0 
 3.373726e-03  1.005852e-04  0 
 3.296298e-03  2.712570e-04  0 
 3.218567e-03  3.197838e-04  0 
 2.666375e-03  3.581696e-04  0 
 2.588700e-03  2.471689e-04  0 
 2.892976e-03  3.011995e-04  0 
 2.875020e-03  2.721912e-04  0 
 2.922250e-03  2.223298e-04  0 
 3.166530e-03  2.353665e-04  0 
 3.313371e-03  2.451143e-04  0 
 3.382183e-03  2.489700e-04  0 
 3.382226e-03  2.276951e-04  0 
 3.277713e-03  1.770548e-04  0 
 3.036894e-03  2.082320e-04  0 
 2.286723e-03  -1.516949e-04  0 
 2.135280e-03  -3.821335e-04  0 
 3.447826e-03  1.254906e-04  0 
 3.517188e-03  -9.261142e-05  0 
 3.527200e-03  -2.798411e-04  0 
 3.809990e-03  -6.740268e-04  0 
 3.475843e-03  -5.173941e-05  0 
 3.655608e-03  -5.758951e-04  0 
 3.349130e-03  3.812509e-04  0 
 3.280779e-03  2.991402e-04  0 
 3.217866e-03  4.183352e-04  0 
 3.508773e-03  3.822520e-05  0 
 2.974568e-03  3.253125e-04  0 
 3.458166e-03  2.962103e-04  0 
 3.256975e-03  3.851097e-04  0 
 3.357683e-03  3.692240e-04  0 
 3.387432e-03  2.513182e-04  0 
 3.285504e-03  3.465177e-04  0 
 3.302463e-03  4.290545e-04  0 
 3.303746e-03  3.772956e-04  0 
 3.370449e-03  1.905399e-04  0 
 3.368773e-03  3.812115e-04  0 
 3.637988e-03  -8.017865e-05  0 
 3.086180e-03  4.086777e-04  0 
 3.462924e-03  -6.827537e-05  0 
 3.095629e-03  3.081161e-04  0 
 3.177069e-03  3.203503e-04  0 
 3.638918e-03  -2.470386e-04  0 
 3.179157e-03  2.413176e-04  0 
 3.405002e-03  3.692092e-04  0 
 3.353570e-03  3.722836e-04  0 
 3.560544e-03  1.255756e-04  0 
 3.342002e-03  3.989071e-04  0 
 3.382189e-03  3.317085e-04  0 
 3.383008e-03  3.479095e-04  0 
 3.321062e-03  3.979638e-04  0 
 3.382134e-03  2.923159e-04  0 
 3.335750e-03  3.719801e-04  0 
 3.369658e-03  3.996838e-04  0 
 3.340141e-03  3.576163e-04  0 
 3.465688e-03  2.872486e-04  0 
 3.361442e-03  3.264164e-04  0 
 3.586860e-03  1.403354e-04  0 
 3.239367e-03  4.176204e-04  0 
 3.302062e-03  3.991736e-04  0 
 3.504363e-03  1.299676e-04  0 
 3.400580e-03  3.536054e-04  0 
 3.277677e-03  3.023100e-04  0 
 3.309490e-03  3.391461e-04  0 
 3.167927e-03  4.017871e-04  0 
 3.327296e-03  3.480551e-04  0 
 3.428935e-03  2.616836e-04  0 
 3.291823e-03  2.732831e-04  0 
 3.377946e-03  3.086400e-04  0 
 3.359208e-03  3.084185e-04  0 
 3.352995e-03  3.977614e-04  0 
 2.986738e-03  2.576972e-04  0 
 3.647138e-03  -4.509394e-04  0 
 3.322463e-03  2.674035e-04  0 
 3.234497e-03  2.940799e-04  0 
 3.336723e-03  3.931586e-04  0 
 3.298396e-03  4.057463e-04  0 
 2.740577e-03  2.449034e-04  0 
 3.752548e-03  -8.058138e-05  0 
 2.672882e-03  2.902420e-04  0 
 2.729553e-03  2.793950e-04  0 
 1.695054e-03  -3.740243e-04  0 
 1.925004e-03  -1.422776e-04  0 
 3.037882e-03  -2.482423e-05  0 
 3.377610e-03  2.214376e-04  0 
 3.312659e-03  2.274367e-04  0 
 3.271037e-03  1.582677e-04  0 
 2.631390e-03  -1.150794e-04  0 
 3.137676e-03  1.709907e-04  0 
 2.722424e-03  3.975641e-05  0 
 2.904817e-03  1.012447e-04  0 
VECTORS displacement_ITER5 FLOAT
 2.723894e-03  -1.048189e-04  0 
 2.492867e-03  -6.732470e-05  0 
 2.415747e-03  4.863929e-05  0 
 2.588771e-03  -1.258791e-04  0 
 3.039609e-03  -7.594214e-05  0 
 3.165273e-03  -4.195228e-06  0 
 2.716585e-03  -1.087679e-04  0 
 2.681577e-03  -1.184158e-04  0 
 2.653676e-03  -7.894407e-05  0 
 2.609076e-03  -3.247863e-05  0 
 2.570644e-03  -3.896212e-05  0 
 2.476388e-03  -2.304900e-05  0 
 2.501411e-03  1.834957e-05  0 
 2.405135e-03  1.050350e-04  0 
 2.407049e-03  9.895376e-05  0 
 2.606731e-03  -2.540821e-05  0 
 2.686064e-03  -1.581869e-05  0 
 2.717708e-03  -7.439020e-06  0 
 2.737057e-03  -1.253679e-06  0 
 2.744950e-03  2.727775e-06  0 
 2.681599e-03  1.089103e-05  0 
 2.564063e-03  4.896973e-05  0 
 2.512304e-03  3.002807e-05  0 
 2.514585e-03  2.998192e-04  0 
 2.458998e-03  -7.867383e-05  0 
 2.366598e-03  -7.893683e-05  0 
 2.532443e-03  -1.164873e-04  0 
 2.473481e-03  -1.294497e-04  0 
 2.552967e-03  -9.634147e-05  0 
 2.602820e-03  -1.028417e-04  0 
 2.930249e-03  4.259459e-05  0 
 2.820374e-03  8.726714e-05  0 
 2.727390e-03  -3.821190e-05  0 
 2.969556e-03  -4.945076e-05  0 
 2.624663e-03  -3.219121e-05  0 
 3.093656e-03  1.546929e-04  0 
 2.808779e-03  -1.429837e-06  0 
 2.846933e-03  1.685586e-05  0 
 2.940756e-03  2.754547e-05  0 
 2.870468e-03  5.964497e-05  0 
 2.798059e-03  -1.121604e-05  0 
 2.751479e-03  -3.143763e-05  0 
 2.819087e-03  -3.547593e-05  0 
 3.026083e-03  1.790770e-04  0 
 3.109736e-03  -1.524487e-05  0 
 2.658167e-03  -4.606200e-05  0 
 2.795990e-03  -1.131120e-04  0 
 2.581889e-03  1.234246e-04  0 
 2.706197e-03  -3.097595e-05  0 
 2.968648e-03  -6.988292e-05  0 
 2.670619e-03  9.857473e-05  0 
 3.019584e-03  8.813184e-05  0 
 2.880610e-03  2.292205e-05  0 
 3.196430e-03  1.234304e-04  0 
 2.956781e-03  1.277866e-04  0 
 2.805694e-03  1.506649e-05  0 
 2.969478e-03  3.054734e-05  0 
 2.851072e-03  8.297530e-06  0 
 2.766787e-03  3.918954e-05  0 
 2.889792e-03  1.584444e-06  0 
 2.974592e-03  1.083252e-04  0 
 2.903537e-03  4.682948e-05  0 
 3.051028e-03  8.425381e-05  0 
 2.752516e-03  -1.317778e-05  0 
 3.169534e-03  7.492576e-05  0 
 2.759905e-03  -3.155539e-05  0 
 2.830072e-03  -1.229241e-05  0 
 3.046335e-03  1.428810e-05  0 
 3.060644e-03  1.561012e-04  0 
 2.688290e-03  -2.416403e-05  0 
 2.874841e-03  -3.648897e-06  0 
 2.716055e-03  -2.654954e-05  0 
 2.854547e-03  2.993363e-05  0 
 3.113494e-03  1.993586e-04  0 
 2.797159e-03  5.672950e-05  0 
 3.083601e-03  2.003154e-04  0 
 2.804252e-03  3.458417e-05  0 
 2.815827e-03  5.577755e-07  0 
 2.510362e-03  9.075226e-05  0 
 2.866150e-03  -1.211418e-04  0 
 2.752099e-03  5.720185e-05  0 
 2.754265e-03  1.026996e-04  0 
 3.008726e-03  2.085991e-04  0 
 2.918298e-03  1.448434e-04  0 
 2.584132e-03  -2.703165e-05  0 
 3.278679e-03  4.455437e-05  0 
 2.195255e-03  7.730845e-05  0 
 2.292904e-03  5.520293e-05  0 
 2.525779e-03  1.752199e-04  0 
 2.486804e-03  1.970626e-05  0 
 2.535845e-03  -1.076584e-04  0 
 2.710495e-03  2.409593e-05  0 
 2.703720e-03  1.154422e-05  0 
 2.677358e-03  2.706647e-05  0 
 2.525855e-03  9.255120e-05  0 
 2.658001e-03  6.222603e-06  0 
 2.540897e-03  -3.701087e-05  0 
 2.484217e-03  -1.528671e-05  0 
VECTORS displacement_ITER6 FLOAT
 2.615837e-03  -1.424973e-04  0 
 2.316748e-03  -9.207910e-05  0 
 2.266143e-03  3.385735e-05  0 
 2.431002e-03  -1.568152e-04  0 
 2.904816e-03  -1.056536e-04  0 
 3.017605e-03  -5.240085e-05  0 
 2.587551e-03  -1.528666e-04  0 
 2.560754e-03  -1.690595e-04  0 
 2.539906e-03  -1.448263e-04  0 
 2.497343e-03  -1.128832e-04  0 
 2.458387e-03  -1.099490e-04  0 
 2.352607e-03  -7.647791e-05  0 
 2.344913e-03  -4.148998e-05  0 
 2.288195e-03  6.659313e-05  0 
 2.257624e-03  7.751017e-05  0 
 2.466256e-03  -5.156090e-05  0 
 2.557886e-03  -3.651314e-05  0 
 2.599044e-03  -2.242202e-05  0 
 2.632072e-03  -5.225768e-06  0 
 2.649759e-03  8.715518e-06  0 
 2.595971e-03  2.671559e-05  0 
 2.456479e-03  6.355963e-05  0 
 2.312923e-03  -4.342169e-05  0 
 2.278131e-03  1.008521e-04  0 
 2.328467e-03  -1.468679e-04  0 
 2.226995e-03  -1.237555e-04  0 
 2.395523e-03  -1.552537e-04  0 
 2.312861e-03  -1.764252e-04  0 
 2.423988e-03  -1.477845e-04  0 
 2.467839e-03  -1.565313e-04  0 
 2.829007e-03  -3.192312e-05  0 
 2.703248e-03  2.841714e-05  0 
 2.612443e-03  -6.826802e-05  0 
 2.855795e-03  -1.117784e-04  0 
 2.501940e-03  -6.184419e-05  0 
 2.969935e-03  3.868523e-05  0 
 2.703984e-03  -8.703130e-05  0 
 2.742095e-03  -7.001093e-06  0 
 2.840291e-03  -5.396492e-05  0 
 2.759209e-03  7.392273e-06  0 
 2.683546e-03  -4.848481e-05  0 
 2.632123e-03  -4.562154e-05  0 
 2.708226e-03  -1.134684e-04  0 
 2.909020e-03  6.127916e-05  0 
 2.974896e-03  -8.050264e-05  0 
 2.550874e-03  -9.421686e-05  0 
 2.675453e-03  -1.705946e-04  0 
 2.473255e-03  5.947931e-05  0 
 2.581761e-03  -4.541891e-05  0 
 2.847522e-03  -1.164481e-04  0 
 2.568033e-03  6.252828e-05  0 
 2.910725e-03  -8.508896e-06  0 
 2.776340e-03  -2.697884e-05  0 
 3.056194e-03  1.471752e-05  0 
 2.843602e-03  4.198166e-05  0 
 2.699793e-03  -2.438582e-06  0 
 2.864242e-03  -5.285694e-05  0 
 2.743465e-03  -4.766613e-05  0 
 2.673740e-03  2.398551e-05  0 
 2.783694e-03  -7.345781e-05  0 
 2.872058e-03  1.633314e-05  0 
 2.802688e-03  -1.493102e-05  0 
 2.933517e-03  -1.030339e-05  0 
 2.647594e-03  -2.545669e-05  0 
 3.027658e-03  -2.270290e-05  0 
 2.649645e-03  -7.946424e-05  0 
 2.717365e-03  -7.751769e-05  0 
 2.929276e-03  -6.524643e-05  0 
 2.946173e-03  3.704164e-05  0 
 2.584346e-03  -1.047706e-04  0 
 2.775434e-03  -8.703763e-05  0 
 2.614560e-03  -9.584471e-05  0 
 2.750924e-03  -9.628225e-06  0 
 2.991882e-03  7.298757e-05  0 
 2.696075e-03  1.330589e-05  0 
 2.959634e-03  6.943224e-05  0 
 2.712879e-03  1.277630e-05  0 
 2.707674e-03  -2.286358e-05  0 
 2.373604e-03  7.191817e-05  0 
 2.739491e-03  -1.509946e-04  0 
 2.666720e-03  4.082784e-05  0 
 2.644673e-03  4.968078e-05  0 
 2.871126e-03  9.227627e-05  0 
 2.786426e-03  6.789244e-05  0 
 2.425223e-03  -6.295543e-05  0 
 3.109894e-03  -3.168640e-05  0 
 2.006325e-03  8.154153e-05  0 
 2.110163e-03  3.501923e-05  0 
 2.208889e-03  1.279578e-05  0 
 2.231340e-03  -4.959316e-05  0 
 2.432510e-03  2.454252e-05  0 
 2.597843e-03  -3.792095e-06  0 
 2.581798e-03  -1.441844e-05  0 
 2.549235e-03  -2.006697e-05  0 
 2.370510e-03  9.004794e-06  0 
 2.524468e-03  -3.252140e-05  0 
 2.392814e-03  -7.699880e-05  0 
 2.371231e-03  5.964073e-05  0 
VECTORS displacement_ITER7 FLOAT
 2.601421e-03  -1.875497e-04  0 
 2.272902e-03  -3.924591e-05  0 
 2.313391e-03  4.191497e-05  0 
 2.429598e-03  -1.796084e-04  0 
 2.796020e-03  -1.555072e-04  0 
 2.851946e-03  -1.136633e-04  0 
 2.560363e-03  -1.412326e-04  0 
 2.522891e-03  -1.136470e-04  0 
 2.489918e-03  -6.053279e-05  0 
 2.433560e-03  -3.238623e-05  0 
 2.378302e-03  -3.790489e-05  0 
 2.430026e-03  -6.263661e-05  0 
 2.361716e-03  -5.916273e-05  0 
 2.410688e-03  1.024420e-04  0 
 2.339053e-03  9.477435e-05  0 
 2.430286e-03  -1.386071e-05  0 
 2.509029e-03  -2.823642e-06  0 
 2.533885e-03  7.237210e-06  0 
 2.551159e-03  2.455508e-05  0 
 2.552630e-03  4.014641e-05  0 
 2.508040e-03  4.641007e-05  0 
 2.423782e-03  5.675321e-05  0 
 2.238578e-03  -5.414141e-05  0 
 2.167263e-03  -3.788772e-05  0 
 2.303501e-03  -7.770824e-05  0 
 2.241974e-03  -8.403252e-05  0 
 2.403488e-03  -1.309296e-04  0 
 2.307577e-03  -1.838737e-04  0 
 2.408243e-03  -8.829790e-05  0 
 2.476574e-03  -1.710397e-04  0 
 2.728938e-03  8.584907e-06  0 
 2.587130e-03  4.346020e-05  0 
 2.558809e-03  -2.982225e-05  0 
 2.735663e-03  -6.492777e-05  0 
 2.461476e-03  -2.127500e-05  0 
 2.814648e-03  5.485401e-06  0 
 2.642828e-03  -2.043758e-05  0 
 2.646494e-03  2.073571e-05  0 
 2.739490e-03  -1.277937e-05  0 
 2.642617e-03  3.086770e-05  0 
 2.615936e-03  -1.077846e-05  0 
 2.566570e-03  -1.151541e-05  0 
 2.620947e-03  -3.715240e-05  0 
 2.733876e-03  2.635952e-05  0 
 2.815078e-03  -7.829374e-05  0 
 2.513374e-03  -6.196665e-05  0 
 2.601766e-03  -1.051640e-04  0 
 2.474471e-03  6.588073e-05  0 
 2.530812e-03  -9.720778e-06  0 
 2.739765e-03  -1.064388e-04  0 
 2.491441e-03  6.888964e-05  0 
 2.781844e-03  -4.445321e-06  0 
 2.677492e-03  1.560668e-05  0 
 2.877099e-03  -4.608403e-05  0 
 2.690327e-03  3.512155e-05  0 
 2.610621e-03  2.218315e-05  0 
 2.763402e-03  -1.916032e-05  0 
 2.667172e-03  -2.801254e-07  0 
 2.581818e-03  4.434457e-05  0 
 2.705844e-03  -1.811492e-05  0 
 2.740105e-03  2.009529e-05  0 
 2.692388e-03  2.410473e-05  0 
 2.801001e-03  -4.688586e-06  0 
 2.574084e-03  3.977276e-06  0 
 2.860616e-03  -4.658161e-05  0 
 2.599142e-03  -3.822804e-05  0 
 2.654581e-03  -2.399391e-05  0 
 2.795378e-03  -5.104320e-05  0 
 2.787464e-03  5.909389e-06  0 
 2.518491e-03  -1.348712e-05  0 
 2.696750e-03  -3.427186e-05  0 
 2.572500e-03  -3.232157e-05  0 
 2.651228e-03  2.260952e-05  0 
 2.816043e-03  6.977033e-06  0 
 2.589445e-03  3.724920e-05  0 
 2.755402e-03  8.590863e-06  0 
 2.614770e-03  3.405739e-05  0 
 2.626467e-03  9.366569e-06  0 
 2.383187e-03  6.635340e-05  0 
 2.675510e-03  -1.612935e-04  0 
 2.563380e-03  5.670169e-05  0 
 2.546012e-03  5.649281e-05  0 
 2.679282e-03  4.112381e-05  0 
 2.636992e-03  4.106226e-05  0 
 2.374958e-03  -2.184948e-05  0 
 2.907127e-03  -7.194649e-05  0 
 2.196593e-03  1.542878e-04  0 
 2.231700e-03  7.391862e-05  0 
 2.050965e-03  -9.017701e-05  0 
 2.129450e-03  -5.843023e-05  0 
 2.411715e-03  5.433657e-05  0 
 2.514433e-03  2.751040e-05  0 
 2.512023e-03  1.586394e-05  0 
 2.479431e-03  8.854603e-06  0 
 2.333822e-03  -1.281365e-05  0 
 2.479459e-03  -2.638022e-06  0 
 2.363777e-03  -4.242953e-05  0 
 2.366668e-03  5.930291e-05  0 
VECTORS displacement_ITER8 FLOAT
 2.596008e-03  -1.092961e-04  0 
 2.281067e-03  -2.104744e-05  0 
 2.251079e-03  4.748263e-05  0 
 2.375355e-03  -8.500055e-05  0 
 2.779438e-03  -9.630814e-05  0 
 2.873282e-03  -7.239688e-05  0 
 2.559031e-03  -1.170384e-04  0 
 2.524681e-03  -1.238787e-04  0 
 2.494473e-03  -1.041075e-04  0 
 2.443826e-03  -9.497706e-05  0 
 2.394550e-03  -9.142555e-05  0 
 2.403511e-03  -7.755992e-05  0 
 2.348189e-03  -4.360098e-05  0 
 2.328026e-03  8.341418e-05  0 
 2.277211e-03  7.716278e-05  0 
 2.415649e-03  -4.539390e-06  0 
 2.493989e-03  3.829791e-07  0 
 2.522764e-03  4.942883e-06  0 
 2.531675e-03  2.201582e-05  0 
 2.504957e-03  4.044904e-05  0 
 2.450078e-03  6.029457e-05  0 
 2.379954e-03  6.256389e-05  0 
 2.243464e-03  -5.047503e-05  0 
 2.177033e-03  -9.887738e-05  0 
 2.281772e-03  -1.235062e-04  0 
 2.209126e-03  -1.032067e-04  0 
 2.383275e-03  -1.211156e-04  0 
 2.247770e-03  -1.287318e-04  0 
 2.391453e-03  -1.126344e-04  0 
 2.451081e-03  -1.234242e-04  0 
 2.727319e-03  -1.424480e-05  0 
 2.532076e-03  4.738039e-05  0 
 2.536905e-03  -4.390402e-05  0 
 2.751288e-03  -8.518858e-05  0 
 2.442528e-03  -2.398934e-05  0 
 2.851847e-03  5.896283e-07  0 
 2.639445e-03  -6.635342e-05  0 
 2.628185e-03  1.177462e-05  0 
 2.753530e-03  -4.683222e-05  0 
 2.613474e-03  2.722844e-05  0 
 2.598323e-03  -2.982351e-05  0 
 2.549043e-03  -1.913561e-05  0 
 2.640297e-03  -7.702927e-05  0 
 2.744628e-03  4.527141e-05  0 
 2.838548e-03  -7.020526e-05  0 
 2.493584e-03  -8.336596e-05  0 
 2.615541e-03  -1.206329e-04  0 
 2.397257e-03  6.312710e-05  0 
 2.511849e-03  -1.094089e-05  0 
 2.747211e-03  -9.278382e-05  0 
 2.434380e-03  7.338649e-05  0 
 2.796632e-03  -1.222919e-05  0 
 2.666455e-03  1.700360e-06  0 
 2.925866e-03  -3.440451e-05  0 
 2.681084e-03  4.390904e-05  0 
 2.586617e-03  9.711401e-06  0 
 2.764077e-03  -4.030157e-05  0 
 2.656409e-03  -2.066527e-05  0 
 2.546096e-03  3.376737e-05  0 
 2.701090e-03  -4.764752e-05  0 
 2.746592e-03  1.652744e-05  0 
 2.679761e-03  1.134199e-05  0 
 2.816810e-03  -2.424401e-05  0 
 2.559855e-03  -4.387579e-06  0 
 2.882897e-03  -4.989019e-05  0 
 2.577925e-03  -6.223526e-05  0 
 2.639514e-03  -5.240860e-05  0 
 2.817135e-03  -6.531564e-05  0 
 2.811926e-03  1.810115e-05  0 
 2.527897e-03  -7.907686e-05  0 
 2.703986e-03  -6.281382e-05  0 
 2.557853e-03  -7.400166e-05  0 
 2.628651e-03  1.598038e-05  0 
 2.866879e-03  2.076794e-05  0 
 2.548782e-03  3.946607e-05  0 
 2.780412e-03  4.720299e-05  0 
 2.584062e-03  2.998387e-05  0 
 2.609163e-03  -4.406271e-06  0 
 2.330963e-03  6.122117e-05  0 