# vtk DataFile Version 3.1
this is an vtk file created by FEMAC
ASCII
DATASET UNSTRUCTURED_GRID
POINTS 99 FLOAT
7.000000 1.000000 0.000000
8.000000 1.000000 0.000000
7.000000 1.125000 0.000000
7.000000 1.250000 0.000000
7.000000 1.375000 0.000000
7.000000 1.500000 0.000000
7.000000 1.625000 0.000000
7.125000 1.000000 0.000000
7.250000 1.000000 0.000000
7.375000 1.000000 0.000000
7.500000 1.000000 0.000000
7.625000 1.000000 0.000000
7.750000 1.000000 0.000000
7.875000 1.000000 0.000000
8.000000 0.625000 0.000000
8.000000 0.750000 0.000000
8.000000 0.875000 0.000000
8.000000 1.125000 0.000000
8.000000 1.250000 0.000000
8.000000 1.375000 0.000000
8.000000 1.500000 0.000000
6.775201 1.283543 0.000000
6.794698 1.709502 0.000000
6.832268 1.863701 0.000000
6.683542 1.646736 0.000000
6.893486 1.616360 0.000000
6.690837 1.370528 0.000000
6.930726 1.431637 0.000000
6.917319 1.181208 0.000000
6.669231 1.114967 0.000000
6.915316 1.741774 0.000000
6.671015 1.517776 0.000000
6.679559 1.249569 0.000000
6.566591 1.436804 0.000000
6.574762 1.570138 0.000000
6.774246 1.574159 0.000000
6.577603 1.309611 0.000000
6.863469 1.489045 0.000000
6.806832 1.149347 0.000000
6.700073 1.771534 0.000000
6.919830 1.091111 0.000000
6.574852 1.181867 0.000000
6.891770 1.265607 0.000000
6.840442 1.381847 0.000000
6.768002 1.466671 0.000000
7.817421 0.910332 0.000000
7.891498 0.593094 0.000000
7.766097 0.808510 0.000000
7.425921 0.863568 0.000000
7.904915 0.810446 0.000000
7.773622 0.614167 0.000000
7.508481 0.733243 0.000000
7.721623 0.704716 0.000000
7.837969 0.707108 0.000000
7.926876 0.697130 0.000000
7.922907 0.918710 0.000000
7.291032 0.816412 0.000000
7.639225 0.786646 0.000000
7.558179 0.884881 0.000000
7.185857 0.898777 0.000000
7.305981 0.912675 0.000000
7.692654 0.898395 0.000000
7.465861 1.502680 0.000000
7.775201 1.283543 0.000000
7.246744 1.226310 0.000000
7.240911 1.500490 0.000000
7.481225 1.231229 0.000000
7.328389 1.297230 0.000000
7.363818 1.171854 0.000000
7.690837 1.370528 0.000000
7.930726 1.431637 0.000000
7.135634 1.292108 0.000000
7.917319 1.181208 0.000000
7.260206 1.085342 0.000000
7.669231 1.114967 0.000000
7.118583 1.148751 0.000000
7.486724 1.362694 0.000000
7.671015 1.517776 0.000000
7.104461 1.499951 0.000000
7.391894 1.391416 0.000000
7.679559 1.249569 0.000000
7.344960 1.503942 0.000000
7.566591 1.436804 0.000000
7.563480 1.074919 0.000000
7.290190 1.404688 0.000000
7.165175 1.602355 0.000000
7.168331 1.398732 0.000000
7.478016 1.110908 0.000000
7.416566 1.290686 0.000000
7.577603 1.309611 0.000000
7.233858 1.323813 0.000000
7.863469 1.489045 0.000000
7.806832 1.149347 0.000000
7.919830 1.091111 0.000000
7.574852 1.181867 0.000000
7.891770 1.265607 0.000000
7.840442 1.381847 0.000000
7.768002 1.466671 0.000000
7.060896 1.068438 0.000000
CELLS 157 628 
3 25  5  6
3 5 27  4
3 22 30 23
3 28  2  3
3 30 22 25
3 6 30 25
3 26 32 21
3 33 26 31
3 24 34 31
3 35 22 24
3 22 35 25
3 26 36 32
3 25 37  5
3 37 27  5
3 39 22 23
3 2 40  0
3 41 29 32
3 33 36 26
3 33 31 34
3 32 36 41
3 40  2 28
3 40 28 38
3 38 21 32
3 29 38 32
3 39 24 22
3 3 42 28
3 43 21 42
3 44 31 26
3 38 42 21
3 38 28 42
3 3  4 42
3 21 43 26
3 43 44 26
3 43 27 37
3 43 37 44
3 24 31 35
3 37 25 35
3 31 44 35
3 44 37 35
3 27 42  4
3 27 43 42
3 12 45 13
3 49 15 16
3 46 53 50
3 15 54 14
3 54 46 14
3 13 55  1
3 55 16  1
3 55 13 45
3 55 49 16
3 45 49 55
3 9 48 10
3 54 53 46
3 52 53 47
3 52 50 53
3 54 15 49
3 47 49 45
3 47 53 49
3 49 53 54
3 57 52 47
3 10 58 11
3 58 10 48
3 51 58 48
3 51 57 58
3 8 60  9
3 60 48  9
3 56 48 60
3 8  7 59
3 60  8 59
3 56 60 59
3 57 61 58
3 61 11 58
3 61 12 11
3 47 45 61
3 12 61 45
3 57 47 61
3 20 70 19
3 74 11 12
3 64 75 73
3 72 17 18
3 73  7  8
3 71 75 64
3 68 67 64
3 75  7 73
3 9 73  8
3 73  9 68
3 64 73 68
3 3 71  4
3 2 75  3
3 3 75 71
3 62 79 76
3 69 80 63
3 62 81 79
3 82 62 76
3 82 69 77
3 83 10 11
3 74 83 11
3 84 67 79
3 65 85 78
3 86 65 78
3 65 86 84
3 10 87  9
3 87 68  9
3 66 88 68
3 88 67 68
3 88 66 76
3 66 89 76
3 69 89 80
3 67 90 64
3 90 71 64
3 90 67 84
3 91 70 20
3 93 13  1
3 17 93  1
3 94 74 80
3 88 79 67
3 76 79 88
3 82 89 69
3 82 76 89
3 94 83 74
3 79 81 84
3 94 89 66
3 80 89 94
3 90 86 71
3 84 86 90
3 93 17 72
3 93 72 92
3 92 63 80
3 74 92 80
3 6  5 78
3 6 78 85
3 5  4 78
3 86  4 71
3 78  4 86
3 18 95 72
3 96 63 95
3 97 77 69
3 92 95 63
3 92 72 95
3 18 19 95
3 63 96 69
3 96 97 69
3 96 70 91
3 96 91 97
3 10 83 87
3 87 66 68
3 94 66 87
3 87 83 94
3 92 74 12
3 13 92 12
3 93 92 13
3 70 95 19
3 70 96 95
3 98  2  0
3 98  7 75
3 7 98  0
3 2 98 75
CELL_TYPES 157
5 5 5 5 5 5 5 5 5 5 5 5 5 5 5 5 5 5 5 5 5 5 5 5 5 5 5 5 5 5 5 5 5 5 5 5 5 5 5 5 5 5 5 5 5 5 5 5 5 5 5 5 5 5 5 5 5 5 5 5 5 5 5 5 5 5 5 5 5 5 5 5 5 5 5 5 5 5 5 5 5 5 5 5 5 5 5 5 5 5 5 5 5 5 5 5 5 5 5 5 5 5 5 5 5 5 5 5 5 5 5 5 5 5 5 5 5 5 5 5 5 5 5 5 5 5 5 5 5 5 5 5 5 5 5 5 5 5 5 5 5 5 5 5 5 5 5 5 5 5 5 5 5 5 5 5 5 
POINT_DATA 99
VECTORS displacement_ITER1 FLOAT
 7.388543e-05  4.934157e-05  0 
 7.481521e-05  -3.597751e-05  0 
 8.591898e-05  4.956623e-05  0 
 9.824570e-05  4.988976e-05  0 
 1.104081e-04  5.048671e-05  0 
 1.231022e-04  5.132903e-05  0 
 1.354851e-04  5.208590e-05  0 
 7.399089e-05  3.793811e-05  0 
 7.422822e-05  2.696523e-05  0 
 7.448898e-05  1.627088e-05  0 
 7.466791e-05  6.041606e-06  0 
 7.487679e-05  -4.352473e-06  0 
 7.495284e-05  -1.480969e-05  0 
 7.493852e-05  -2.526913e-05  0 
 4.180814e-05  -3.603500e-05  0 
 5.296291e-05  -3.615712e-05  0 
 6.383645e-05  -3.610988e-05  0 
 8.544162e-05  -3.545901e-05  0 
 9.576273e-05  -3.509447e-05  0 
 1.060701e-04  -3.464234e-05  0 
 1.163755e-04  -3.412890e-05  0 
 1.030704e-04  7.204468e-05  0 
 1.446192e-04  7.283408e-05  0 
 1.585531e-04  6.965867e-05  0 
 1.390681e-04  8.335672e-05  0 
 1.352432e-04  6.264327e-05  0 
 1.124707e-04  8.112571e-05  0 
 1.166553e-04  5.778155e-05  0 
 9.167315e-05  5.743734e-05  0 
 8.576510e-05  8.189280e-05  0 
 1.471516e-04  6.111784e-05  0 
 1.269446e-04  8.399907e-05  0 
 1.002919e-04  8.141813e-05  0 
 1.196652e-04  9.413214e-05  0 
 1.323450e-04  9.383955e-05  0 
 1.317804e-04  7.426039e-05  0 
 1.071191e-04  9.234675e-05  0 
 1.228615e-04  6.485848e-05  0 
 8.889017e-05  6.781567e-05  0 
 1.505105e-04  8.199821e-05  0 
 8.279895e-05  5.692307e-05  0 
 9.345684e-05  9.216468e-05  0 
 1.002973e-04  6.022807e-05  0 
 1.124220e-04  6.633110e-05  0 
 1.213429e-04  7.417592e-05  0 
 6.708448e-05  -2.044680e-05  0 
 3.893695e-05  -2.666507e-05  0 
 5.807575e-05  -1.603335e-05  0 
 6.250258e-05  1.231972e-05  0 
 5.825276e-05  -2.797700e-05  0 
 4.068602e-05  -1.658907e-05  0 
 5.117311e-05  5.721575e-06  0 
 4.873366e-05  -1.215065e-05  0 
 4.900022e-05  -2.220047e-05  0 
 4.817868e-05  -2.976053e-05  0 
 6.774307e-05  -2.943807e-05  0 
 5.791740e-05  2.390023e-05  0 
 5.599522e-05  -5.268004e-06  0 
 6.456622e-05  1.410779e-06  0 
 6.498285e-05  3.278321e-05  0 
 6.654352e-05  2.235696e-05  0 
 6.594105e-05  -9.922851e-06  0 
 1.189178e-04  9.612193e-06  0 
 9.927295e-05  -1.653712e-05  0 
 9.503173e-05  2.714786e-05  0 
 1.216323e-04  2.888839e-05  0 
 9.523068e-05  7.432933e-06  0 
 1.014678e-04  2.018038e-05  0 
 8.996693e-05  1.705562e-05  0 
 1.067286e-04  -9.442152e-06  0 
 1.110110e-04  -2.870623e-05  0 
 1.017329e-04  3.740962e-05  0 
 9.031031e-05  -2.851902e-05  0 
 8.208208e-05  2.590713e-05  0 
 8.501194e-05  -8.101183e-06  0 
 8.797621e-05  3.843369e-05  0 
 1.070423e-04  7.204455e-06  0 
 1.190519e-04  -7.051669e-06  0 
 1.224267e-04  4.149823e-05  0 
 1.099332e-04  1.516653e-05  0 
 9.677344e-05  -8.958673e-06  0 
 1.197990e-04  1.990027e-05  0 
 1.128876e-04  1.000302e-06  0 
 8.143272e-05  6.549445e-07  0 
 1.117090e-04  2.398077e-05  0 
 1.321480e-04  3.650351e-05  0 
 1.117683e-04  3.493436e-05  0 
 8.455027e-05  7.694780e-06  0 
 1.006939e-04  1.285253e-05  0 
 1.021086e-04  -5.141056e-07  0 
 1.043399e-04  2.866829e-05  0 
 1.158750e-04  -2.307366e-05  0 
 8.801173e-05  -1.953893e-05  0 
 8.288675e-05  -2.899994e-05  0 
 9.084684e-05  -3.394940e-07  0 
 9.742355e-05  -2.612828e-05  0 
 1.072139e-04  -2.153470e-05  0 
 1.143381e-04  -1.540489e-05  0 
 8.038067e-05  4.372622e-05  0 
VECTORS displacement_ITER2 FLOAT
 1.918182e-04  -2.385648e-05  0 
 2.126916e-04  5.502586e-05  0 
 2.107397e-04  -1.840940e-05  0 
 2.263966e-04  -9.808470e-06  0 
 2.405033e-04  -4.121103e-07  0 
 2.561694e-04  6.433974e-06  0 
 2.697672e-04  1.262530e-05  0 
 1.939709e-04  -3.175080e-05  0 
 1.973189e-04  -3.024588e-05  0 
 2.013775e-04  -2.168601e-05  0 
 2.057446e-04  -6.610340e-06  0 
 2.103684e-04  1.036310e-05  0 
 2.122029e-04  2.493805e-05  0 
 2.129357e-04  4.124364e-05  0 
 2.502514e-04  6.888088e-05  0 
 2.364382e-04  6.093442e-05  0 
 2.214219e-04  5.614886e-05  0 
 1.996830e-04  6.183326e-05  0 
 1.826354e-04  6.640450e-05  0 
 1.649078e-04  7.372907e-05  0 
 1.409833e-04  8.698970e-05  0 
 2.438737e-04  3.220640e-05  0 
 2.873638e-04  4.861403e-05  0 
 2.991784e-04  5.023238e-05  0 
 2.867397e-04  6.469967e-05  0 
 2.740801e-04  2.870790e-05  0 
 2.567253e-04  5.049306e-05  0 
 2.514641e-04  1.384031e-05  0 
 2.235954e-04  -2.344454e-06  0 
 2.255906e-04  4.485664e-05  0 
 2.842717e-04  3.127260e-05  0 
 2.761295e-04  5.994351e-05  0 
 2.439453e-04  4.786418e-05  0 
 2.701721e-04  7.559056e-05  0 
 2.859741e-04  7.887030e-05  0 
 2.754467e-04  4.575817e-05  0 
 2.544447e-04  6.818123e-05  0 
 2.617374e-04  2.726327e-05  0 
 2.252203e-04  2.042504e-05  0 
 2.978759e-04  6.774174e-05  0 
 2.092753e-04  -8.109048e-06  0 
 2.384703e-04  6.533966e-05  0 
 2.364490e-04  8.051835e-06  0 
 2.523708e-04  2.383465e-05  0 
 2.655607e-04  4.026207e-05  0 
 2.177996e-04  3.442423e-05  0 
 2.473535e-04  5.491305e-05  0 
 2.229115e-04  3.102523e-05  0 
 2.073381e-04  -1.025478e-05  0 
 2.256893e-04  4.530925e-05  0 
 2.383126e-04  3.756181e-05  0 
 2.170576e-04  7.180855e-06  0 
 2.291310e-04  2.948803e-05  0 
 2.323143e-04  4.096508e-05  0 
 2.378994e-04  5.410613e-05  0 
 2.176201e-04  4.668676e-05  0 
 1.983538e-04  -1.902584e-05  0 
 2.204194e-04  1.750950e-05  0 
 2.127598e-04  5.798705e-06  0 
 1.935963e-04  -2.833066e-05  0 
 1.999539e-04  -2.351973e-05  0 
 2.156871e-04  2.017480e-05  0 
 1.955326e-04  4.555281e-06  0 
 1.904121e-04  3.340681e-05  0 
 2.071262e-04  -2.910985e-05  0 
 2.376954e-04  -9.910300e-06  0 
 2.009618e-04  -1.253970e-05  0 
 2.092104e-04  -2.490591e-05  0 
 2.016787e-04  -2.623980e-05  0 
 1.840327e-04  2.429110e-05  0 
 1.612016e-04  6.693577e-05  0 
 2.211513e-04  -2.099583e-05  0 
 1.948930e-04  5.020860e-05  0 
 1.993090e-04  -3.223568e-05  0 
 2.056477e-04  1.423089e-05  0 
 2.058921e-04  -2.970391e-05  0 
 2.029724e-04  -6.002759e-06  0 
 1.701166e-04  3.724097e-05  0 
 2.506585e-04  -1.761689e-07  0 
 2.098682e-04  -1.385861e-05  0 
 1.994163e-04  1.553094e-05  0 
 2.092444e-04  -4.168592e-06  0 
 1.905272e-04  1.117220e-05  0 
 2.057668e-04  -3.901034e-07  0 
 2.201708e-04  -1.767438e-05  0 
 2.558320e-04  4.883462e-06  0 
 2.289271e-04  -1.526505e-05  0 
 2.034081e-04  -1.258296e-05  0 
 2.049862e-04  -1.724171e-05  0 
 1.980190e-04  1.125363e-06  0 
 2.177771e-04  -2.250491e-05  0 
 1.570375e-04  6.027302e-05  0 
 2.040227e-04  3.157504e-05  0 
 2.076411e-04  4.677526e-05  0 
 2.022364e-04  -8.948110e-09  0 
 1.864744e-04  5.080157e-05  0 
 1.736245e-04  4.981617e-05  0 
 1.660206e-04  4.296413e-05  0 
 1.999215e-04  -2.875691e-05  0 
VECTORS displacement_ITER3 FLOAT
 2.550045e-04  -3.752581e-05  0 
 2.220978e-04  -4.980486e-05  0 
 2.614601e-04  -3.134216e-05  0 
 2.682178e-04  -2.523008e-05  0 
 2.785448e-04  -1.943633e-05  0 
 2.853047e-04  -1.041014e-05  0 
 2.873678e-04  -3.831461e-07  0 
 2.509746e-04  -4.229147e-05  0 
 2.454443e-04  -4.478055e-05  0 
 2.405883e-04  -4.375471e-05  0 
 2.396556e-04  -4.112023e-05  0 
 2.378988e-04  -3.764436e-05  0 
 2.356022e-04  -4.045102e-05  0 
 2.301104e-04  -4.523677e-05  0 
 1.745690e-04  -7.076654e-05  0 
 2.001270e-04  -6.756498e-05  0 
 2.126522e-04  -6.094238e-05  0 
 2.247931e-04  -3.757625e-05  0 
 2.244468e-04  -2.693696e-05  0 
 2.228471e-04  -1.539398e-05  0 
 2.210240e-04  -5.950736e-06  0 
 2.774030e-04  1.393408e-05  0 
 2.939584e-04  2.271117e-05  0 
 2.703640e-04  3.546302e-05  0 
 3.031950e-04  3.010945e-05  0 
 2.966328e-04  1.086799e-05  0 
 2.854776e-04  2.718806e-05  0 
 2.863632e-04  -6.992440e-06  0 
 2.679082e-04  -1.741342e-05  0 
 2.992485e-04  5.244194e-07  0 
 2.785721e-04  2.037848e-05  0 
 3.042659e-04  3.116461e-05  0 
 2.777900e-04  2.468604e-05  0 
 2.954114e-04  4.579319e-05  0 
 3.046587e-04  4.065257e-05  0 
 3.034628e-04  1.886526e-05  0 
 2.858047e-04  3.822263e-05  0 
 2.946020e-04  5.047506e-06  0 
 2.689038e-04  7.041856e-06  0 
 2.948448e-04  3.372753e-05  0 
 2.633248e-04  -2.128396e-05  0 
 3.060362e-04  1.507632e-05  0 
 2.748818e-04  -8.874909e-06  0 
 2.863433e-04  2.786084e-06  0 
 2.970835e-04  1.512713e-05  0 
 2.274655e-04  -4.714974e-05  0 
 1.695663e-04  -5.844471e-05  0 
 2.159104e-04  -4.788037e-05  0 
 2.338032e-04  -4.338993e-05  0 
 2.109727e-04  -5.760083e-05  0 
 1.759680e-04  -5.817963e-05  0 
 2.139597e-04  -4.361068e-05  0 
 1.992835e-04  -5.219708e-05  0 
 1.937952e-04  -5.629309e-05  0 
 1.912812e-04  -6.035009e-05  0 
 2.224475e-04  -5.226823e-05  0 
 2.347504e-04  -5.089669e-05  0 
 2.195156e-04  -4.474372e-05  0 
 2.341840e-04  -4.116656e-05  0 
 2.407835e-04  -4.833603e-05  0 
 2.377000e-04  -4.797805e-05  0 
 2.305874e-04  -4.083461e-05  0 
 2.600690e-04  -2.400484e-05  0 
 2.412653e-04  -2.808036e-05  0 
 2.576356e-04  -3.642640e-05  0 
 2.735543e-04  -2.917623e-05  0 
 2.522153e-04  -3.760413e-05  0 
 2.606894e-04  -3.654906e-05  0 
 2.510597e-04  -3.991516e-05  0 
 2.456821e-04  -2.458196e-05  0 
 2.269632e-04  -1.187593e-05  0 
 2.659087e-04  -3.130043e-05  0 
 2.312847e-04  -3.321958e-05  0 
 2.484481e-04  -4.107274e-05  0 
 2.429820e-04  -3.625240e-05  0 
 2.567188e-04  -3.597814e-05  0 
 2.589655e-04  -3.263340e-05  0 
 2.417499e-04  -1.312127e-05  0 
 2.775849e-04  -2.151124e-05  0 
 2.649787e-04  -3.283313e-05  0 
 2.472982e-04  -3.245669e-05  0 
 2.678431e-04  -2.666244e-05  0 
 2.536240e-04  -2.488396e-05  0 
 2.420116e-04  -3.820405e-05  0 
 2.705352e-04  -3.255768e-05  0 
 2.755965e-04  -2.193840e-05  0 
 2.731129e-04  -2.863532e-05  0 
 2.448413e-04  -4.029417e-05  0 
 2.575783e-04  -3.657929e-05  0 
 2.529044e-04  -3.291540e-05  0 
 2.653044e-04  -3.296436e-05  0 
 2.288296e-04  -1.059339e-05  0 
 2.402461e-04  -3.592982e-05  0 
 2.315563e-04  -4.073419e-05  0 
 2.474295e-04  -3.677167e-05  0 
 2.338122e-04  -2.589250e-05  0 
 2.348614e-04  -1.893602e-05  0 
 2.362892e-04  -1.521849e-05  0 
 2.558401e-04  -3.736982e-05  0 
VECTORS displacement_ITER4 FLOAT
 1.079832e-03  -1.097799e-05  0 
 9.587754e-04  -2.293176e-04  0 
 1.110313e-03  -4.128370e-06  0 
 1.120578e-03  -8.636940e-06  0 
 1.126799e-03  -2.795621e-05  0 
 1.114246e-03  -2.851595e-05  0 
 1.077220e-03  -2.515510e-05  0 
 1.067545e-03  5.325226e-05  0 
 1.051591e-03  7.952553e-05  0 
 1.034343e-03  8.372744e-05  0 
 1.028618e-03  5.760944e-05  0 
 1.020799e-03  6.748283e-06  0 
 1.010034e-03  -6.520211e-05  0 
 9.864179e-04  -1.473427e-04  0 
 5.602525e-04  -2.877039e-04  0 
 7.247012e-04  -2.927053e-04  0 
 8.433092e-04  -2.752384e-04  0 
 1.029044e-03  -1.944838e-04  0 
 1.091589e-03  -1.595132e-04  0 
 1.148182e-03  -1.284340e-04  0 
 1.184325e-03  -1.029966e-04  0 
 1.093161e-03  -1.223891e-04  0 
 1.030288e-03  -1.517325e-04  0 
 8.635103e-04  -1.327633e-04  0 
 1.062404e-03  -2.100071e-04  0 
 1.086870e-03  -8.834439e-05  0 
 1.094083e-03  -1.683070e-04  0 
 1.122054e-03  -6.867543e-05  0 
 1.113915e-03  -4.519652e-05  0 
 1.173198e-03  -2.199920e-04  0 
 9.988926e-04  -6.850054e-05  0 
 1.104676e-03  -1.928039e-04  0 
 1.086578e-03  -1.685736e-04  0 
 1.086129e-03  -1.966685e-04  0 
 1.075748e-03  -2.308445e-04  0 
 1.102890e-03  -1.549353e-04  0 
 1.091519e-03  -1.890439e-04  0 
 1.118511e-03  -1.072428e-04  0 
 1.106449e-03  -8.956690e-05  0 
 9.596500e-04  -2.269484e-04  0 
 1.107584e-03  -4.057924e-05  0 
 1.163320e-03  -2.399072e-04  0 
 1.108350e-03  -6.667063e-05  0 
 1.110334e-03  -1.078199e-04  0 
 1.111161e-03  -1.486829e-04  0 
 9.240102e-04  -1.263576e-04  0 
 5.234453e-04  -1.945471e-04  0 
 8.103274e-04  -1.031085e-04  0 
 9.256939e-04  6.978087e-05  0 
 7.946702e-04  -2.079558e-04  0 
 5.474792e-04  -1.350509e-04  0 
 7.583295e-04  2.832950e-05  0 
 6.759974e-04  -8.991993e-05  0 
 6.634110e-04  -1.685324e-04  0 
 6.530040e-04  -2.207408e-04  0 
 9.105345e-04  -1.969117e-04  0 
 9.219843e-04  5.438235e-05  0 
 8.037760e-04  -2.240493e-05  0 
 9.315793e-04  2.911070e-05  0 
 9.888853e-04  5.541510e-05  0 
 9.776782e-04  7.100866e-05  0 
 9.295236e-04  -3.867391e-05  0 
 1.206156e-03  5.866756e-05  0 
 1.143973e-03  -4.585627e-05  0 
 1.141574e-03  8.601641e-05  0 
 1.140400e-03  4.440080e-05  0 
 1.147643e-03  7.035874e-05  0 
 1.158408e-03  9.296367e-05  0 
 1.124721e-03  9.556140e-05  0 
 1.187106e-03  3.534901e-06  0 
 1.178029e-03  -9.150459e-05  0 
 1.142816e-03  4.303351e-05  0 
 1.078959e-03  -1.330230e-04  0 
 1.089216e-03  9.100912e-05  0 
 1.085408e-03  -8.368194e-06  0 
 1.114162e-03  5.411648e-05  0 
 1.181890e-03  6.582808e-05  0 
 1.223364e-03  8.487512e-06  0 
 1.112472e-03  -1.205475e-06  0 
 1.180473e-03  7.711399e-05  0 
 1.138431e-03  -1.476825e-06  0 
 1.189498e-03  6.213227e-05  0 
 1.202082e-03  4.400155e-05  0 
 1.067131e-03  3.616625e-05  0 
 1.167109e-03  7.676157e-05  0 
 1.094132e-03  -2.172079e-06  0 
 1.146254e-03  4.273381e-05  0 
 1.086845e-03  6.606612e-05  0 
 1.162006e-03  8.019221e-05  0 
 1.170187e-03  4.269585e-05  0 
 1.153272e-03  7.449538e-05  0 
 1.206315e-03  -5.708796e-05  0 
 1.087135e-03  -7.424668e-05  0 
 1.030753e-03  -1.561740e-04  0 
 1.119567e-03  3.324605e-05  0 
 1.124412e-03  -9.944722e-05  0 
 1.172756e-03  -6.281208e-05  0 
 1.211967e-03  -1.938363e-05  0 
 1.091913e-03  2.548221e-05  0 
VECTORS displacement_ITER5 FLOAT
 1.278140e-03  3.003201e-05  0 
 1.163777e-03  -2.039628e-04  0 
 1.358874e-03  4.519900e-05  0 
 1.416246e-03  5.684281e-05  0 
 1.451797e-03  6.165868e-05  0 
 1.470261e-03  7.877786e-05  0 
 1.447463e-03  9.682079e-05  0 
 1.268341e-03  3.616172e-05  0 
 1.258438e-03  1.674370e-05  0 
 1.248615e-03  -3.970827e-06  0 
 1.244080e-03  -2.616689e-05  0 
 1.238702e-03  -5.757044e-05  0 
 1.225497e-03  -1.014721e-04  0 
 1.197913e-03  -1.466205e-04  0 
 8.539907e-04  -2.889556e-04  0 
 9.806735e-04  -2.786468e-04  0 
 1.069960e-03  -2.521481e-04  0 
 1.207432e-03  -1.438615e-04  0 
 1.234249e-03  -9.155366e-05  0 
 1.253131e-03  -3.280709e-05  0 
 1.243696e-03  3.142784e-05  0 
 1.441469e-03  4.763069e-05  0 
 1.403448e-03  3.933864e-05  0 
 1.180480e-03  4.718943e-05  0 
 1.434877e-03  -5.594323e-07  0 
 1.467058e-03  7.724284e-05  0 
 1.467343e-03  3.900738e-05  0 
 1.471817e-03  6.193749e-05  0 
 1.394660e-03  4.768639e-05  0 
 1.476712e-03  -4.445906e-05  0 
 1.363459e-03  9.854285e-05  0 
 1.487163e-03  2.364781e-05  0 
 1.437157e-03  3.361193e-05  0 
 1.468695e-03  3.368617e-05  0 
 1.450130e-03  -8.685176e-06  0 
 1.484153e-03  4.462365e-05  0 
 1.461089e-03  3.878256e-05  0 
 1.486753e-03  5.999251e-05  0 
 1.389713e-03  4.411494e-05  0 
 1.302713e-03  -3.857909e-05  0 
 1.348728e-03  4.038153e-05  0 
 1.513216e-03  -2.150431e-05  0 
 1.428456e-03  5.031746e-05  0 
 1.465964e-03  5.458042e-05  0 
 1.486110e-03  4.614662e-05  0 
 1.150290e-03  -1.449022e-04  0 
 8.337471e-04  -2.169531e-04  0 
 1.060681e-03  -1.328865e-04  0 
 1.140010e-03  -1.465265e-05  0 
 1.042664e-03  -2.105169e-04  0 
 8.575939e-04  -1.570425e-04  0 
 1.004217e-03  -3.736925e-05  0 
 9.566985e-04  -1.206452e-04  0 
 9.476378e-04  -1.861664e-04  0 
 9.329042e-04  -2.299391e-04  0 
 1.130175e-03  -1.902683e-04  0 
 1.107273e-03  1.051828e-06  0 
 1.050503e-03  -7.732821e-05  0 
 1.153463e-03  -4.315133e-05  0 
 1.177345e-03  2.103321e-05  0 
 1.182487e-03  2.057345e-06  0 
 1.155454e-03  -8.956183e-05  0 
 1.415683e-03  3.408797e-05  0 
 1.321336e-03  -4.749883e-05  0 
 1.382511e-03  3.583140e-05  0 
 1.452855e-03  6.043691e-05  0 
 1.362071e-03  -7.743898e-06  0 
 1.397202e-03  3.188071e-05  0 
 1.345937e-03  1.163511e-05  0 
 1.357138e-03  -1.327398e-05  0 
 1.282774e-03  -3.963501e-06  0 
 1.422230e-03  5.538148e-05  0 
 1.251808e-03  -1.049428e-04  0 
 1.308750e-03  2.135376e-05  0 
 1.294506e-03  -5.994427e-05  0 
 1.357083e-03  4.557219e-05  0 
 1.398301e-03  4.790376e-06  0 
 1.357281e-03  2.903185e-05  0 
 1.454803e-03  7.189722e-05  0 
 1.418910e-03  2.483567e-05  0 
 1.338853e-03  -4.234864e-05  0 
 1.435647e-03  4.864732e-05  0 
 1.389639e-03  1.055187e-05  0 
 1.281753e-03  -3.872945e-05  0 
 1.432253e-03  4.950930e-05  0 
 1.440277e-03  6.693352e-05  0 
 1.439677e-03  6.480069e-05  0 
 1.303371e-03  -1.855488e-05  0 
 1.386101e-03  7.634510e-06  0 
 1.374258e-03  -1.669044e-05  0 
 1.416899e-03  5.069383e-05  0 
 1.300995e-03  1.337326e-05  0 
 1.286301e-03  -8.820543e-05  0 
 1.232113e-03  -1.410006e-04  0 
 1.330136e-03  -3.527208e-05  0 
 1.285074e-03  -6.319020e-05  0 
 1.311162e-03  -2.140303e-05  0 
 1.332810e-03  1.093427e-05  0 
 1.314164e-03  3.701681e-05  0 
VECTORS displacement_ITER6 FLOAT
 1.571326e-03  5.163389e-05  0 
 1.514066e-03  -2.707730e-04  0 
 1.685963e-03  4.612903e-05  0 
 1.757731e-03  3.652555e-05  0 
 1.789172e-03  1.816251e-05  0 
 1.810518e-03  1.109687e-05  0 
 1.786791e-03  3.530909e-06  0 
 1.585565e-03  5.224860e-05  0 
 1.595084e-03  2.749889e-05  0 
 1.602051e-03  -6.907600e-06  0 
 1.603549e-03  -4.100814e-05  0 
 1.602157e-03  -8.679244e-05  0 
 1.586043e-03  -1.424318e-04  0 
 1.552784e-03  -1.980086e-04  0 
 1.165749e-03  -3.659996e-04  0 
 1.296824e-03  -3.534754e-04  0 
 1.399087e-03  -3.236606e-04  0 
 1.572199e-03  -1.980130e-04  0 
 1.609801e-03  -1.342503e-04  0 
 1.637507e-03  -6.014646e-05  0 
 1.610909e-03  3.270684e-05  0 
 1.753830e-03  2.568559e-05  0 
 1.725017e-03  -2.669117e-05  0 
 1.628683e-03  -3.447376e-05  0 
 1.738104e-03  -3.901024e-05  0 
 1.785441e-03  -1.504602e-06  0 
 1.775703e-03  2.039520e-05  0 
 1.799047e-03  1.252626e-05  0 
 1.715663e-03  3.972636e-05  0 
 1.679014e-03  3.603229e-05  0 
 1.711747e-03  -8.502872e-06  0 
 1.780404e-03  -7.064280e-06  0 
 1.733187e-03  3.543596e-05  0 
 1.760109e-03  1.538212e-05  0 
 1.742758e-03  -3.048104e-05  0 
 1.786263e-03  -3.555084e-06  0 
 1.746292e-03  4.453123e-05  0 
 1.803819e-03  7.524845e-06  0 
 1.689277e-03  3.463811e-05  0 
 1.676969e-03  -6.020807e-05  0 
 1.655416e-03  4.810229e-05  0 
 1.709513e-03  5.515240e-05  0 
 1.750727e-03  2.524196e-05  0 
 1.782646e-03  1.977972e-05  0 
 1.792571e-03  1.252090e-05  0 
 1.492278e-03  -1.952144e-04  0 
 1.150785e-03  -2.877201e-04  0 
 1.388678e-03  -1.800368e-04  0 
 1.466219e-03  -1.496416e-05  0 
 1.367280e-03  -2.732252e-04  0 
 1.174630e-03  -2.004838e-04  0 
 1.311306e-03  -4.203762e-05  0 
 1.272134e-03  -1.563638e-04  0 
 1.266665e-03  -2.444982e-04  0 
 1.247924e-03  -2.990601e-04  0 
 1.469132e-03  -2.502629e-04  0 
 1.403039e-03  3.283485e-05  0 
 1.370718e-03  -1.038863e-04  0 
 1.489680e-03  -6.030885e-05  0 
 1.484939e-03  5.204040e-05  0 
 1.509543e-03  1.925471e-05  0 
 1.497911e-03  -1.273481e-04  0 
 1.816450e-03  -2.769647e-06  0 
 1.717896e-03  -7.862674e-05  0 
 1.756682e-03  1.506440e-05  0 
 1.830990e-03  -4.294725e-06  0 
 1.756603e-03  -3.150318e-05  0 
 1.789205e-03  9.738715e-07  0 
 1.727926e-03  -4.950049e-06  0 
 1.761002e-03  -3.875793e-05  0 
 1.674446e-03  -2.633509e-05  0 
 1.785988e-03  2.398098e-05  0 
 1.628363e-03  -1.506116e-04  0 
 1.667417e-03  1.847959e-05  0 
 1.677025e-03  -9.057235e-05  0 
 1.705959e-03  3.576806e-05  0 
 1.803306e-03  -1.996739e-05  0 
 1.765647e-03  7.848203e-06  0 
 1.814605e-03  1.506557e-06  0 
 1.816338e-03  -9.399683e-06  0 
 1.735652e-03  -6.973047e-05  0 
 1.826899e-03  8.927505e-07  0 
 1.799110e-03  -1.475703e-05  0 
 1.658448e-03  -6.306000e-05  0 
 1.820699e-03  5.493759e-06  0 
 1.802494e-03  -1.535348e-05  0 
 1.808313e-03  1.193260e-05  0 
 1.683776e-03  -3.681552e-05  0 
 1.785102e-03  -1.647473e-05  0 
 1.775479e-03  -4.314884e-05  0 
 1.798622e-03  1.530866e-05  0 
 1.699151e-03  -5.007764e-06  0 
 1.668663e-03  -1.266970e-04  0 
 1.600685e-03  -1.942511e-04  0 
 1.722039e-03  -6.112518e-05  0 
 1.674241e-03  -9.852049e-05  0 
 1.707940e-03  -4.821935e-05  0 
 1.737284e-03  -1.049689e-05  0 
 1.635643e-03  4.225405e-05  0 
VECTORS displacement_ITER7 FLOAT
 1.580924e-03  2.305384e-05  0 
 1.493746e-03  -2.819304e-04  0 
 1.666964e-03  1.414152e-05  0 
 1.736265e-03  2.218166e-06  0 
 1.772276e-03  -1.780508e-05  0 
 1.797931e-03  -2.247277e-05  0 
 1.784850e-03  -2.764814e-05  0 
 1.578175e-03  1.539459e-05  0 
 1.573429e-03  1.534477e-06  0 
 1.567893e-03  -1.353438e-05  0 
 1.571609e-03  -4.055821e-05  0 
 1.575845e-03  -8.451200e-05  0 
 1.564615e-03  -1.429453e-04  0 
 1.531803e-03  -2.005157e-04  0 
 1.099193e-03  -3.887840e-04  0 
 1.258369e-03  -3.678642e-04  0 
 1.366725e-03  -3.387719e-04  0 
 1.554934e-03  -2.084855e-04  0 
 1.594951e-03  -1.465034e-04  0 
 1.631313e-03  -7.501333e-05  0 
 1.639074e-03  -1.262845e-06  0 
 1.733138e-03  -2.411326e-05  0 
 1.745873e-03  -4.511097e-05  0 
 1.657257e-03  -5.339204e-05  0 
 1.761014e-03  -5.354963e-05  0 
 1.785139e-03  -3.484991e-05  0 
 1.770437e-03  -2.291023e-05  0 
 1.785369e-03  -2.583380e-05  0 
 1.693722e-03  1.782174e-06  0 
 1.642346e-03  -2.624860e-06  0 
 1.732488e-03  -3.836061e-05  0 
 1.787246e-03  -3.383782e-05  0 
 1.712772e-03  -1.538548e-05  0 
 1.773020e-03  -1.656285e-05  0 
 1.766546e-03  -4.502237e-05  0 
 1.790642e-03  -3.281073e-05  0 
 1.740741e-03  2.231475e-06  0 
 1.795133e-03  -3.193514e-05  0 
 1.668802e-03  -1.489903e-05  0 
 1.703153e-03  -7.036875e-05  0 
 1.640621e-03  1.037906e-05  0 
 1.671973e-03  1.215543e-05  0 
 1.728144e-03  -1.479354e-05  0 
 1.766735e-03  -2.290103e-05  0 
 1.786563e-03  -2.359842e-05  0 
 1.466085e-03  -1.960861e-04  0 
 1.072497e-03  -2.769487e-04  0 
 1.346510e-03  -1.733218e-04  0 
 1.420205e-03  -1.552105e-05  0 
 1.330746e-03  -2.782192e-04  0 
 1.092738e-03  -1.830394e-04  0 
 1.248642e-03  -3.298963e-05  0 
 1.214975e-03  -1.411946e-04  0 
 1.216328e-03  -2.387711e-04  0 
 1.201612e-03  -3.011215e-04  0 
 1.442994e-03  -2.553190e-04  0 
 1.358940e-03  -9.731211e-07  0 
 1.319158e-03  -9.137462e-05  0 
 1.449615e-03  -5.279066e-05  0 
 1.454657e-03  9.402046e-06  0 
 1.472140e-03  -6.558706e-06  0 
 1.465445e-03  -1.214056e-04  0 
 1.807256e-03  -6.287767e-06  0 
 1.701980e-03  -7.993528e-05  0 
 1.741928e-03  2.554222e-06  0 
 1.816681e-03  -2.155919e-05  0 
 1.740566e-03  -3.560124e-05  0 
 1.775219e-03  -4.250946e-06  0 
 1.706122e-03  -1.174891e-05  0 
 1.748946e-03  -4.073115e-05  0 
 1.673158e-03  -3.578868e-05  0 
 1.767938e-03  -2.285938e-07  0 
 1.611094e-03  -1.570290e-04  0 
 1.640462e-03  2.996819e-06  0 
 1.656594e-03  -9.336366e-05  0 
 1.688813e-03  1.405925e-05  0 
 1.791300e-03  -2.589147e-05  0 
 1.761661e-03  1.495090e-06  0 
 1.800036e-03  -2.716456e-05  0 
 1.806734e-03  -1.569898e-05  0 
 1.720005e-03  -7.361068e-05  0 
 1.814668e-03  -1.163235e-05  0 
 1.787007e-03  -1.896281e-05  0 
 1.632358e-03  -6.474552e-05  0 
 1.807338e-03  -6.273047e-06  0 
 1.795230e-03  -3.906662e-05  0 
 1.793404e-03  -1.074740e-05  0 
 1.657576e-03  -3.972165e-05  0 
 1.770184e-03  -2.398746e-05  0 
 1.763218e-03  -4.729348e-05  0 
 1.782674e-03  -5.596633e-07  0 
 1.699418e-03  -1.371794e-05  0 
 1.650565e-03  -1.287396e-04  0 
 1.582914e-03  -2.003409e-04  0 
 1.702988e-03  -6.579251e-05  0 
 1.658354e-03  -1.042677e-04  0 
 1.701069e-03  -5.335048e-05  0 
 1.733185e-03  -1.673679e-05  0 
 1.630268e-03  1.897070e-05  0 
VECTORS displacement_ITER8 FLOAT
 1.549937e-03  3.377215e-05  0 
 1.487303e-03  -2.594277e-04  0 
 1.639772e-03  3.145263e-05  0 
 1.708997e-03  1.692682e-05  0 
 1.745063e-03  -2.849139e-06  0 
 1.771015e-03  -5.301080e-06  0 
 1.756156e-03  -8.481747e-06  0 
 1.542808e-03  2.906314e-05  0 
 1.546488e-03  9.177398e-06  0 
 1.549943e-03  -8.138698e-06  0 
 1.556953e-03  -3.813236e-05  0 
 1.562591e-03  -8.007966e-05  0 
 1.552875e-03  -1.342246e-04  0 
 1.522585e-03  -1.849988e-04  0 
 1.127305e-03  -3.572946e-04  0 
 1.275585e-03  -3.364859e-04  0 
 1.370353e-03  -3.115144e-04  0 
 1.542773e-03  -1.898362e-04  0 
 1.577896e-03  -1.315590e-04  0 
 1.607791e-03  -6.335109e-05  0 
 1.617469e-03  1.686419e-06  0 
 1.711405e-03  -3.719312e-06  0 
 1.725037e-03  -1.628647e-05  0 
 1.643842e-03  -1.877974e-05  0 
 1.742109e-03  -1.250847e-05  0 
 1.758304e-03  -1.431359e-05  0 
 1.751856e-03  7.457266e-07  0 
 1.760001e-03  -5.857281e-06  0 
 1.664318e-03  2.041599e-05  0 
 1.612466e-03  1.205015e-05  0 
 1.708074e-03  -1.506070e-05  0 
 1.762031e-03  6.432281e-08  0 
 1.695463e-03  1.983038e-06  0 
 1.759921e-03  6.569845e-06  0 
 1.750082e-03  -6.297311e-06  0 
 1.763658e-03  -5.790311e-06  0 
 1.728098e-03  1.958514e-05  0 
 1.767361e-03  -9.760659e-06  0 
 1.640084e-03  -1.214733e-06  0 
 1.695811e-03  -1.952173e-05  0 
 1.616078e-03  2.957311e-05  0 
 1.650982e-03  2.887302e-05  0 
 1.700833e-03  3.934395e-06  0 
 1.742530e-03  1.135046e-06  0 
 1.758846e-03  2.774532e-06  0 
 1.461935e-03  -1.818908e-04  0 
 1.098535e-03  -2.484254e-04  0 
 1.351322e-03  -1.596317e-04  0 
 1.410358e-03  -7.467700e-06  0 
 1.338352e-03  -2.568924e-04  0 
 1.112282e-03  -1.638228e-04  0 
 1.251318e-03  -2.224415e-05  0 
 1.229939e-03  -1.271110e-04  0 
 1.233910e-03  -2.188976e-04  0 
 1.223295e-03  -2.747736e-04  0 
 1.440342e-03  -2.353384e-04  0 
 1.336246e-03  2.090515e-05  0 
 1.323122e-03  -8.350417e-05  0 
 1.442794e-03  -4.833342e-05  0 
 1.427641e-03  2.695709e-05  0 
 1.454851e-03  6.828126e-06  0 
 1.459623e-03  -1.136390e-04  0 
 1.775996e-03  -8.774459e-06  0 
 1.678655e-03  -7.514654e-05  0 
 1.715562e-03  5.766280e-06  0 
 1.784695e-03  -1.170827e-05  0 
 1.712833e-03  -3.780973e-05  0 
 1.745775e-03  -1.638564e-06  0 
 1.679189e-03  -1.162853e-05  0 
 1.719991e-03  -4.107342e-05  0 