# vtk DataFile Version 3.1
this is an vtk file created by FEMAC
ASCII
DATASET UNSTRUCTURED_GRID
POINTS 97 FLOAT
0.000000 0.000000 0.000000
1.000000 0.000000 0.000000
0.000000 1.000000 0.000000
0.125000 0.000000 0.000000
0.250000 0.000000 0.000000
0.375000 0.000000 0.000000
0.500000 0.000000 0.000000
0.625000 0.000000 0.000000
0.750000 0.000000 0.000000
0.875000 0.000000 0.000000
1.125000 0.000000 0.000000
0.125000 1.000000 0.000000
0.250000 1.000000 0.000000
0.375000 1.000000 0.000000
0.000000 0.125000 0.000000
0.000000 0.250000 0.000000
0.000000 0.375000 0.000000
0.000000 0.500000 0.000000
0.000000 0.625000 0.000000
0.000000 0.750000 0.000000
0.000000 0.875000 0.000000
1.000000 0.125000 0.000000
1.000000 0.250000 0.000000
1.000000 0.375000 0.000000
1.000000 0.500000 0.000000
1.000000 0.625000 0.000000
1.000000 0.750000 0.000000
0.000000 1.125000 0.000000
0.426123 0.583280 0.000000
0.660972 0.698640 0.000000
0.215199 0.664983 0.000000
0.736528 0.297505 0.000000
0.302790 0.219060 0.000000
0.192630 0.885422 0.000000
0.104846 0.195191 0.000000
0.293783 0.770272 0.000000
0.228915 0.548869 0.000000
0.546870 0.611354 0.000000
0.332280 0.360409 0.000000
0.125024 0.311173 0.000000
0.547787 0.109930 0.000000
0.684568 0.896889 0.000000
0.407214 0.109221 0.000000
0.680353 0.102603 0.000000
0.801324 0.603512 0.000000
0.762283 0.786969 0.000000
0.304746 0.106661 0.000000
0.177437 0.765920 0.000000
0.197973 0.124370 0.000000
0.104829 0.707032 0.000000
0.333089 0.893025 0.000000
0.694980 0.407681 0.000000
0.093674 0.512577 0.000000
0.886107 0.559655 0.000000
0.790173 0.390811 0.000000
0.161934 0.424744 0.000000
0.315956 0.630431 0.000000
0.241614 0.343445 0.000000
0.128523 0.611692 0.000000
0.610230 0.365314 0.000000
0.197181 0.242125 0.000000
0.257989 0.442583 0.000000
0.760486 0.679999 0.000000
0.849910 0.203278 0.000000
0.686687 0.590580 0.000000
0.416432 0.382761 0.000000
0.512116 0.334589 0.000000
0.878640 0.326912 0.000000
0.354844 0.492977 0.000000
0.089566 0.820146 0.000000
0.881513 0.692634 0.000000
0.765674 0.496252 0.000000
0.636773 0.487057 0.000000
0.886766 0.441438 0.000000
0.604650 0.232412 0.000000
0.423239 0.818441 0.000000
0.637034 0.797137 0.000000
0.498653 0.461180 0.000000
0.533284 0.753879 0.000000
0.446181 0.249769 0.000000
0.085564 0.088912 0.000000
0.731004 0.179599 0.000000
0.803961 0.091330 0.000000
0.554716 0.875492 0.000000
0.081439 0.916114 0.000000
0.423209 0.694610 0.000000
0.921478 0.111601 0.000000
0.229332 1.263811 0.000000
0.150703 1.118890 0.000000
0.294081 1.130371 0.000000
0.068926 1.060973 0.000000
1.119756 0.143088 0.000000
1.107131 0.562061 0.000000
1.126171 0.698464 0.000000
1.123091 0.311752 0.000000
1.061189 0.067022 0.000000
1.101886 0.440991 0.000000
CELLS 157 628 
3 14 34 15
3 11 33 12
3 40  6  7
3 6 42  5
3 47 30 35
3 33 47 35
3 50 13 12
3 33 50 12
3 40 42  6
3 15 34 39
3 15 39 16
3 35 50 33
3 43  7  8
3 7 43 40
3 5 46  4
3 46  5 42
3 32 46 42
3 18 49 19
3 49 30 47
3 46 32 48
3 4 46 48
3 48  3  4
3 53 24 25
3 31 54 51
3 38 57 32
3 39 57 55
3 58 36 30
3 49 58 30
3 36 58 52
3 59 31 51
3 60 32 57
3 39 60 57
3 61 36 55
3 29 62 45
3 64 29 37
3 68 36 61
3 69 20 19
3 24 73 23
3 76 29 45
3 41 76 45
3 28 77 37
3 79 32 42
3 3 80  0
3 80 14  0
3 56 68 28
3 72 37 77
3 73 67 23
3 49 69 19
3 49 47 69
3 53 73 24
3 51 54 71
3 59 51 72
3 52 55 36
3 61 57 38
3 55 57 61
3 64 62 29
3 76 78 29
3 26 70 25
3 44 53 70
3 70 53 25
3 70 62 44
3 45 62 70
3 80  3 48
3 34 80 48
3 80 34 14
3 54 31 67
3 18 17 52
3 18 58 49
3 52 58 18
3 60 39 34
3 48 60 34
3 60 48 32
3 63 67 31
3 56 30 36
3 30 56 35
3 36 68 56
3 74 31 59
3 74 40 43
3 74 59 66
3 78 37 29
3 69 47 33
3 67 22 23
3 52 17 16
3 39 55 16
3 52 16 55
3 75 50 35
3 74 81 31
3 81 74 43
3 81 63 31
3 8 82 43
3 82 81 43
3 63 81 82
3 9 82  8
3 54 67 73
3 38 79 65
3 79 38 32
3 66 65 79
3 77 66 59
3 59 72 77
3 66 77 65
3 40 79 42
3 74 79 40
3 74 66 79
3 44 62 64
3 68 77 28
3 68 38 65
3 38 68 61
3 68 65 77
3 84 11  2
3 84 20 69
3 20 84  2
3 84 33 11
3 69 33 84
3 72 64 37
3 71 72 51
3 71 64 72
3 76 41 83
3 63 22 67
3 53 44 71
3 44 64 71
3 53 71 73
3 54 73 71
3 75 78 83
3 78 76 83
3 56 85 35
3 85 75 35
3 85 28 37
3 56 28 85
3 37 78 85
3 78 75 85
3 86  9  1
3 21 86  1
3 22 86 21
3 82 86 63
3 86 82  9
3 22 63 86
3 88 11 12
3 88 89 87
3 89 88 12
3 13 89 12
3 90 11 88
3 90 27  2
3 27 90 88
3 11 90  2
3 21 91 22
3 24 92 25
3 91 94 22
3 25 92 93
3 93 26 25
3 10 95  1
3 21 95 91
3 95 21  1
3 95 10 91
3 23 22 94
3 96 24 23
3 94 96 23
3 24 96 92
CELL_TYPES 157
5 5 5 5 5 5 5 5 5 5 5 5 5 5 5 5 5 5 5 5 5 5 5 5 5 5 5 5 5 5 5 5 5 5 5 5 5 5 5 5 5 5 5 5 5 5 5 5 5 5 5 5 5 5 5 5 5 5 5 5 5 5 5 5 5 5 5 5 5 5 5 5 5 5 5 5 5 5 5 5 5 5 5 5 5 5 5 5 5 5 5 5 5 5 5 5 5 5 5 5 5 5 5 5 5 5 5 5 5 5 5 5 5 5 5 5 5 5 5 5 5 5 5 5 5 5 5 5 5 5 5 5 5 5 5 5 5 5 5 5 5 5 5 5 5 5 5 5 5 5 5 5 5 5 5 5 5 
POINT_DATA 97
VECTORS displacement_ITER1 FLOAT
 0  0  0 
 0  0  0 
 8.645696e-03  2.752842e-03  0 
 0  0  0 
 0  0  0 
 0  0  0 
 0  0  0 
 0  0  0 
 0  0  0 
 0  0  0 
 0  0  0 
 8.923930e-03  2.661423e-03  0 
 9.007505e-03  3.066616e-03  0 
 8.279753e-03  3.356239e-03  0 
 2.158128e-03  9.909201e-04  0 
 4.173616e-03  1.697356e-03  0 
 5.562731e-03  2.450117e-03  0 
 6.665507e-03  2.869781e-03  0 
 7.614705e-03  3.245753e-03  0 
 8.412420e-03  3.471206e-03  0 
 8.644264e-03  2.989625e-03  0 
 1.110469e-03  -8.772092e-05  0 
 2.020362e-03  -4.257144e-04  0 
 3.187114e-03  -7.127289e-04  0 
 4.002977e-03  -8.095270e-04  0 
 4.898732e-03  -6.785536e-04  0 
 5.816906e-03  -4.771228e-04  0 
 8.884103e-03  2.950454e-03  0 
 5.727372e-03  1.190567e-03  0 
 6.006648e-03  6.962706e-04  0 
 7.307133e-03  2.265681e-03  0 
 2.207174e-03  9.155198e-06  0 
 1.963599e-03  1.071318e-04  0 
 9.010347e-03  2.965389e-03  0 
 2.709382e-03  5.307471e-04  0 
 7.938031e-03  2.402109e-03  0 
 6.219328e-03  1.766184e-03  0 
 5.538244e-03  9.139693e-04  0 
 3.763310e-03  4.809979e-04  0 
 4.082110e-03  1.207845e-03  0 
 8.567207e-04  5.904843e-06  0 
 7.825772e-03  1.080326e-03  0 
 9.306242e-04  5.110637e-06  0 
 7.838591e-04  -8.660513e-06  0 
 5.064736e-03  -5.733142e-05  0 
 6.570214e-03  3.544171e-04  0 
 9.510337e-04  4.086669e-05  0 
 8.270334e-03  2.683472e-03  0 
 1.157497e-03  8.977700e-06  0 
 7.924306e-03  2.936089e-03  0 
 8.694279e-03  2.626904e-03  0 
 3.151727e-03  1.347434e-04  0 
 6.454946e-03  2.452845e-03  0 
 4.574282e-03  -3.923458e-04  0 
 2.971007e-03  -1.130729e-04  0 
 5.263390e-03  1.611970e-03  0 
 6.606181e-03  1.801511e-03  0 
 3.911742e-03  9.570215e-04  0 
 7.136092e-03  2.579639e-03  0 
 2.919447e-03  1.328643e-04  0 
 2.803023e-03  6.286979e-04  0 
 5.098618e-03  1.251594e-03  0 
 5.702412e-03  2.038549e-04  0 
 1.498131e-03  -5.129417e-05  0 
 5.125447e-03  4.156509e-04  0 
 3.645430e-03  6.216432e-04  0 
 2.794799e-03  1.517771e-04  0 
 2.526425e-03  -2.178607e-04  0 
 5.167481e-03  1.102689e-03  0 
 8.854355e-03  3.131494e-03  0 
 5.601547e-03  -1.701149e-04  0 
 4.120826e-03  -5.430368e-05  0 
 4.211065e-03  4.672948e-04  0 
 3.562170e-03  -4.582468e-04  0 
 1.783886e-03  1.435510e-05  0 
 7.876253e-03  2.055219e-03  0 
 6.992212e-03  1.113236e-03  0 
 4.377181e-03  5.351453e-04  0 
 6.946564e-03  1.442896e-03  0 
 2.033924e-03  1.201523e-04  0 
 9.325909e-04  6.374476e-05  0 
 1.349224e-03  -1.148707e-05  0 
 7.034981e-04  -1.653820e-05  0 
 7.923982e-03  1.748175e-03  0 
 8.768691e-03  2.908742e-03  0 
 6.783055e-03  1.623862e-03  0 
 8.797410e-04  -4.690671e-05  0 
 3.812217e-03  3.615713e-03  0 
 8.301862e-03  2.620423e-03  0 
 7.663583e-03  3.939997e-03  0 
 8.614475e-03  2.567715e-03  0 
 1.621282e-03  -4.592950e-04  0 
 4.330976e-03  -1.210555e-03  0 
 5.226571e-03  -1.125542e-03  0 
 2.889855e-03  -1.107521e-03  0 
 6.009018e-04  -5.343219e-05  0 
 3.686133e-03  -1.168837e-03  0 
VECTORS displacement_ITER2 FLOAT
 0  0  0 
 0  0  0 
 5.728099e-03  -4.486788e-04  0 
 0  0  0 
 0  0  0 
 0  0  0 
 0  0  0 
 0  0  0 
 0  0  0 
 0  0  0 
 0  0  0 
 6.283701e-03  -3.178323e-04  0 
 6.590145e-03  8.854717e-05  0 
 6.618892e-03  1.742819e-04  0 
 1.552605e-03  5.678454e-04  0 
 2.934461e-03  9.217327e-04  0 
 3.929678e-03  1.167354e-03  0 
 4.670426e-03  1.125563e-03  0 
 5.217665e-03  1.037306e-03  0 
 5.702099e-03  8.002356e-04  0 
 5.845205e-03  1.107235e-04  0 
 1.230606e-03  -7.765918e-05  0 
 2.256360e-03  -3.958316e-04  0 
 3.355419e-03  -6.295062e-04  0 
 4.119688e-03  -6.835899e-04  0 
 4.896403e-03  -5.665032e-04  0 
 5.566125e-03  -4.023886e-04  0 
 5.503561e-03  -1.024190e-03  0 
 4.997458e-03  2.129124e-04  0 
 5.582490e-03  2.097044e-05  0 
 5.610747e-03  4.181977e-04  0 
 2.396182e-03  -7.404391e-05  0 
 1.816427e-03  -3.676169e-05  0 
 6.567920e-03  2.139028e-04  0 
 2.026729e-03  2.525664e-04  0 
 6.217942e-03  2.849338e-04  0 
 4.896550e-03  4.437023e-04  0 
 5.090223e-03  1.514867e-04  0 
 3.299080e-03  3.653507e-05  0 
 3.140773e-03  5.245609e-04  0 
 9.022296e-04  -3.291278e-05  0 
 6.615240e-03  1.239602e-04  0 
 8.877898e-04  -2.470708e-05  0 
 8.666651e-04  -2.805741e-05  0 
 4.964438e-03  -2.595019e-04  0 
 6.000765e-03  -1.382630e-04  0 
 8.582067e-04  -1.381693e-05  0 
 6.123531e-03  3.673082e-04  0 
 9.993328e-04  -1.416303e-05  0 
 5.695969e-03  6.926848e-04  0 
 6.664909e-03  1.979017e-04  0 
 3.323781e-03  -5.332978e-05  0 
 4.754999e-03  9.112144e-04  0 
 4.608521e-03  -4.251240e-04  0 
 3.198948e-03  -2.179778e-04  0 
 4.067624e-03  5.799909e-04  0 
 5.420940e-03  3.109261e-04  0 
 3.246083e-03  3.162023e-04  0 
 5.240576e-03  7.589721e-04  0 
 3.012055e-03  -4.359162e-05  0 
 2.277096e-03  2.395775e-04  0 
 4.143012e-03  3.434094e-04  0 
 5.431432e-03  -1.756745e-04  0 
 1.688470e-03  -7.429131e-05  0 
 4.921070e-03  -4.581132e-05  0 
 3.385350e-03  1.030138e-04  0 
 2.815901e-03  -6.453299e-05  0 
 2.766226e-03  -2.632143e-04  0 
 4.417461e-03  1.941123e-04  0 
 6.231711e-03  4.542393e-04  0 
 5.427008e-03  -2.996836e-04  0 
 4.189641e-03  -2.227204e-04  0 
 4.123452e-03  5.793880e-05  0 
 3.734274e-03  -4.599977e-04  0 
 1.906222e-03  -7.394857e-05  0 
 6.440608e-03  2.925952e-04  0 
 6.162911e-03  1.681604e-04  0 
 4.041701e-03  6.680430e-05  0 
 6.068040e-03  2.756706e-04  0 
 2.056811e-03  -4.752226e-05  0 
 7.627724e-04  1.603498e-05  0 
 1.493832e-03  -5.010360e-05  0 
 7.958151e-04  -2.543171e-05  0 
 6.579348e-03  3.548726e-04  0 
 6.125267e-03  4.148213e-05  0 
 5.779137e-03  2.870711e-04  0 
 9.981908e-04  -4.520148e-05  0 
 3.855767e-03  -5.489412e-04  0 
 5.834596e-03  -5.726078e-04  0 
 5.971911e-03  7.103495e-05  0 
 5.894669e-03  -6.692783e-04  0 
 1.733955e-03  -4.422731e-04  0 
 4.388546e-03  -9.469148e-04  0 
 5.114683e-03  -8.019416e-04  0 
 3.036881e-03  -9.383315e-04  0 
 6.607738e-04  -5.295926e-05  0 
 3.787189e-03  -9.627574e-04  0 
VECTORS displacement_ITER3 FLOAT
 0  0  0 
 0  0  0 
 5.230956e-03  9.111160e-04  0 
 0  0  0 
 0  0  0 
 0  0  0 
 0  0  0 
 0  0  0 
 0  0  0 
 0  0  0 
 0  0  0 
 5.425985e-03  6.020736e-04  0 
 5.413150e-03  5.618665e-04  0 
 5.439082e-03  1.689196e-04  0 
 1.087399e-03  4.398416e-04  0 
 2.060723e-03  7.237775e-04  0 
 2.762607e-03  9.736833e-04  0 
 3.345136e-03  1.119596e-03  0 
 3.796077e-03  1.238504e-03  0 
 4.390264e-03  1.282646e-03  0 
 4.827261e-03  1.086341e-03  0 
 8.422357e-04  -5.669257e-05  0 
 1.547798e-03  -2.417743e-04  0 
 2.144863e-03  -3.492227e-04  0 
 2.579702e-03  -3.194314e-04  0 
 3.032380e-03  -1.415837e-04  0 
 3.420120e-03  1.615201e-05  0 
 5.658430e-03  7.038358e-04  0 
 3.309187e-03  8.620225e-05  0 
 3.631670e-03  -7.205908e-05  0 
 3.878617e-03  4.916524e-04  0 
 1.597748e-03  -1.429162e-04  0 
 1.164667e-03  -3.058322e-05  0 
 5.048493e-03  5.963531e-04  0 
 1.388175e-03  1.882989e-04  0 
 4.378513e-03  3.199827e-04  0 
 3.292284e-03  4.175962e-04  0 
 3.356709e-03  -6.586210e-06  0 
 2.135372e-03  1.032877e-05  0 
 2.126285e-03  4.142485e-04  0 
 5.778583e-04  -3.774437e-05  0 
 4.360831e-03  1.235478e-04  0 
 5.658388e-04  -2.473652e-05  0 
 5.728201e-04  -3.715727e-05  0 
 3.198454e-03  -2.332448e-04  0 
 3.818802e-03  -1.191527e-04  0 
 5.518783e-04  -1.346691e-05  0 
 4.415508e-03  6.227303e-04  0 
 6.472812e-04  -2.158686e-05  0 
 4.120395e-03  9.058249e-04  0 
 4.942193e-03  3.558932e-04  0 
 2.199316e-03  -1.482477e-04  0 
 3.274816e-03  8.693178e-04  0 
 2.958789e-03  -2.679931e-04  0 
 2.118263e-03  -2.453920e-04  0 
 2.713366e-03  5.128775e-04  0 
 3.654439e-03  2.466984e-04  0 
 2.122608e-03  2.744740e-04  0 
 3.653026e-03  8.055567e-04  0 
 1.985339e-03  -1.287533e-04  0 
 1.519558e-03  1.862770e-04  0 
 2.736906e-03  3.015367e-04  0 
 3.482415e-03  -1.892413e-04  0 
 1.163274e-03  -9.934027e-05  0 
 3.204704e-03  -1.475086e-04  0 
 2.197855e-03  2.514676e-05  0 
 1.830195e-03  -9.845640e-05  0 
 1.848253e-03  -2.410251e-04  0 
 2.917400e-03  1.025518e-04  0 
 4.744141e-03  9.649788e-04  0 
 3.401930e-03  -1.392307e-04  0 
 2.736479e-03  -2.461831e-04  0 
 2.706750e-03  -9.091344e-05  0 
 2.411104e-03  -3.297422e-04  0 
 1.237674e-03  -1.018041e-04  0 
 4.479670e-03  2.516342e-04  0 
 4.023533e-03  1.020330e-04  0 
 2.653514e-03  -4.143337e-05  0 
 4.062257e-03  1.544657e-04  0 
 1.317658e-03  -5.665184e-05  0 
 5.015932e-04  7.060127e-06  0 
 9.999126e-04  -7.941986e-05  0 
 5.440526e-04  -3.467693e-05  0 
 4.437742e-03  3.420011e-04  0 
 5.038606e-03  8.610504e-04  0 
 3.911625e-03  1.573837e-04  0 
 6.985675e-04  -4.102798e-05  0 
 4.844533e-03  2.651975e-04  0 
 5.562649e-03  5.720101e-04  0 
 5.672595e-03  3.746010e-04  0 
 5.518979e-03  6.278602e-04  0 
 1.134437e-03  -2.415518e-04  0 
 2.617867e-03  -2.681306e-04  0 
 3.076786e-03  -3.808810e-05  0 
 1.934065e-03  -4.113915e-04  0 
 4.538295e-04  -3.406699e-05  0 
 2.317170e-03  -3.931921e-04  0 
VECTORS displacement_ITER4 FLOAT
 0  0  0 
 0  0  0 
 3.176124e-03  3.536031e-04  0 
 0  0  0 
 0  0  0 
 0  0  0 
 0  0  0 
 0  0  0 
 0  0  0 
 0  0  0 
 0  0  0 
 3.224518e-03  1.425636e-04  0 
 3.179617e-03  1.614870e-05  0 
 3.302048e-03  -3.088004e-04  0 
 7.435999e-04  2.532511e-04  0 
 1.380626e-03  3.918548e-04  0 
 1.832122e-03  4.875625e-04  0 
 2.157609e-03  5.125764e-04  0 
 2.372397e-03  5.179596e-04  0 
 2.665703e-03  4.827104e-04  0 
 2.938192e-03  4.108378e-04  0 
 5.770893e-04  -3.416543e-05  0 
 1.074840e-03  -1.340938e-04  0 
 1.442238e-03  -1.724704e-04  0 
 1.743681e-03  -1.259398e-04  0 
 2.103197e-03  -1.299202e-05  0 
 2.440622e-03  -1.229791e-05  0 
 3.454822e-03  2.479732e-04  0 
 2.231749e-03  -2.906874e-05  0 
 2.412666e-03  -8.021265e-05  0 
 2.480331e-03  8.842890e-05  0 
 1.153574e-03  -9.285516e-05  0 
 8.716284e-04  -5.005258e-05  0 
 2.974080e-03  6.691368e-05  0 
 9.682272e-04  8.290980e-05  0 
 2.717624e-03  -3.370784e-05  0 
 2.186216e-03  1.080635e-04  0 
 2.258227e-03  -4.713919e-05  0 
 1.525432e-03  -5.179029e-05  0 
 1.472169e-03  1.821726e-04  0 
 4.388344e-04  -3.436756e-05  0 
 2.729323e-03  -2.209844e-05  0 
 4.306435e-04  -2.651615e-05  0 
 4.270358e-04  -2.896217e-05  0 
 2.166361e-03  -1.202870e-04  0 
 2.508517e-03  -9.500461e-05  0 
 4.171015e-04  -2.268121e-05  0 
 2.715815e-03  1.207972e-04  0 
 4.844407e-04  -2.821815e-05  0 
 2.564021e-03  3.054139e-04  0 
 2.938457e-03  -5.566953e-05  0 
 1.571856e-03  -8.462090e-05  0 
 2.146922e-03  3.731982e-04  0 
 2.029449e-03  -1.070380e-04  0 
 1.498378e-03  -1.482174e-04  0 
 1.844300e-03  2.040163e-04  0 
 2.402231e-03  -1.098030e-05  0 
 1.500686e-03  1.038132e-04  0 
 2.336225e-03  2.952686e-04  0 
 1.442322e-03  -8.780553e-05  0 
 1.087530e-03  7.029904e-05  0 
 1.882502e-03  9.076669e-05  0 
 2.339877e-03  -1.123482e-04  0 
 8.391730e-04  -6.607264e-05  0 
 2.176347e-03  -9.913859e-05  0 
 1.581150e-03  -3.992244e-05  0 
 1.345733e-03  -8.720068e-05  0 
 1.295790e-03  -1.456072e-04  0 
 2.013984e-03  -3.388119e-05  0 
 2.841548e-03  2.937208e-04  0 
 2.307899e-03  -6.694888e-05  0 
 1.906307e-03  -1.326001e-04  0 
 1.891545e-03  -6.405974e-05  0 
 1.657301e-03  -1.690460e-04  0 
 9.226039e-04  -7.910783e-05  0 
 2.784910e-03  -5.594384e-06  0 
 2.593969e-03  -1.963025e-05  0 
 1.864229e-03  -6.437625e-05  0 
 2.613690e-03  9.032687e-07  0 
 9.898335e-04  -6.010529e-05  0 
 3.668744e-04  -8.758027e-06  0 
 7.379535e-04  -5.657216e-05  0 
 3.950319e-04  -2.739221e-05  0 
 2.765522e-03  7.008312e-05  0 
 3.025095e-03  2.713699e-04  0 
 2.529971e-03  -1.098776e-05  0 
 4.936896e-04  -3.073714e-05  0 
 3.543753e-03  -2.637669e-04  0 
 3.405197e-03  1.257430e-04  0 
 3.562544e-03  -2.636215e-04  0 
 3.344304e-03  1.947917e-04  0 
 7.384372e-04  -1.372507e-04  0 
 1.792563e-03  -5.854911e-05  0 
 2.273268e-03  3.217329e-05  0 
 1.272524e-03  -1.703830e-04  0 
 3.068256e-04  -2.468332e-05  0 
 1.530422e-03  -1.440363e-04  0 
VECTORS displacement_ITER5 FLOAT
 0  0  0 
 0  0  0 
 3.246675e-03  5.578140e-04  0 
 0  0  0 
 0  0  0 
 0  0  0 
 0  0  0 
 0  0  0 
 0  0  0 
 0  0  0 
 0  0  0 
 3.275903e-03  3.306412e-04  0 
 3.237055e-03  1.358649e-04  0 
 3.259759e-03  -1.145617e-04  0 
 7.037125e-04  2.610391e-04  0 
 1.321126e-03  4.155752e-04  0 
 1.766813e-03  5.459348e-04  0 
 2.104286e-03  6.107008e-04  0 
 2.350213e-03  6.585636e-04  0 
 2.677793e-03  6.593060e-04  0 
 2.985575e-03  6.045717e-04  0 
 5.311286e-04  -5.277956e-05  0 
 1.007834e-03  -1.736552e-04  0 
 1.427906e-03  -2.617462e-04  0 
 1.789371e-03  -2.819964e-04  0 
 2.197168e-03  -2.667537e-04  0 
 2.604492e-03  -3.461950e-04  0 
 3.511312e-03  4.671727e-04  0 
 2.108719e-03  -1.836866e-05  0 
 2.383268e-03  -2.104044e-04  0 
 2.409015e-03  1.920023e-04  0 
 1.053288e-03  -1.053108e-04  0 
 7.749332e-04  -4.239718e-05  0 
 3.001455e-03  2.240930e-04  0 
 9.041791e-04  9.266365e-05  0 
 2.674197e-03  7.447196e-05  0 
 2.079889e-03  1.746251e-04  0 
 2.149619e-03  -1.071984e-04  0 
 1.391129e-03  -3.538922e-05  0 
 1.376674e-03  2.114697e-04  0 
 3.829364e-04  -3.402671e-05  0 
 2.870935e-03  -2.386729e-04  0 
 3.763362e-04  -2.746746e-05  0 
 3.757900e-04  -3.188165e-05  0 
 2.139262e-03  -2.527281e-04  0 
 2.591345e-03  -2.930362e-04  0 
 3.673469e-04  -1.977804e-05  0 
 2.695003e-03  2.559394e-04  0 
 4.310433e-04  -2.726882e-05  0 
 2.535532e-03  4.428031e-04  0 
 2.978536e-03  2.407604e-05  0 
 1.456928e-03  -1.270507e-04  0 
 2.066064e-03  4.578601e-04  0 
 2.021902e-03  -2.475264e-04  0 
 1.411028e-03  -1.833574e-04  0 
 1.740611e-03  2.567742e-04  0 
 2.292576e-03  5.771639e-05  0 
 1.379661e-03  1.310091e-04  0 
 2.275018e-03  3.998264e-04  0 
 1.306335e-03  -1.136766e-04  0 
 9.975569e-04  8.593866e-05  0 
 1.763032e-03  1.319408e-04  0 
 2.338833e-03  -2.620473e-04  0 
 7.581599e-04  -7.308691e-05  0 
 2.101261e-03  -1.957938e-04  0 
 1.432078e-03  -2.815601e-05  0 
 1.205071e-03  -9.788582e-05  0 
 1.218254e-03  -1.747603e-04  0 
 1.877786e-03  5.425210e-06  0 
 2.862099e-03  4.609199e-04  0 
 2.370169e-03  -2.801145e-04  0 
 1.828130e-03  -2.104642e-04  0 
 1.775932e-03  -1.186906e-04  0 
 1.622876e-03  -2.457004e-04  0 
 8.233758e-04  -8.550277e-05  0 
 2.777817e-03  -5.305047e-06  0 
 2.639376e-03  -1.851729e-04  0 
 1.720252e-03  -8.360448e-05  0 
 2.574457e-03  -9.380754e-05  0 
 8.761407e-04  -6.165692e-05  0 
 3.314428e-04  -6.673038e-06  0 
 6.583242e-04  -6.090170e-05  0 
 3.490751e-04  -2.860204e-05  0 
 2.854937e-03  -8.885818e-05  0 
 3.074034e-03  4.520876e-04  0 
 2.433284e-03  -2.259818e-06  0 
 4.411877e-04  -3.449863e-05  0 
 3.410641e-03  6.421096e-05  0 
 3.480296e-03  2.951530e-04  0 
 3.510429e-03  -1.050118e-05  0 
 3.401365e-03  3.991753e-04  0 
 7.069693e-04  -1.525192e-04  0 
 1.951854e-03  -3.269788e-04  0 
 2.487809e-03  -3.686794e-04  0 
 1.278559e-03  -2.800082e-04  0 
 2.882783e-04  -2.758843e-05  0 
 1.604876e-03  -3.158653e-04  0 
VECTORS displacement_ITER6 FLOAT
 0  0  0 
 0  0  0 
 2.945248e-03  5.284125e-04  0 
 0  0  0 
 0  0  0 
 0  0  0 
 0  0  0 
 0  0  0 
 0  0  0 
 0  0  0 
 0  0  0 
 2.945998e-03  3.590351e-04  0 
 2.901757e-03  1.479250e-04  0 
 2.889846e-03  -7.064127e-06  0 
 6.545285e-04  2.449359e-04  0 
 1.231078e-03  3.900405e-04  0 
 1.648237e-03  5.154589e-04  0 
 1.955651e-03  5.709440e-04  0 
 2.187176e-03  6.113938e-04  0 
 2.458967e-03  6.080124e-04  0 
 2.742164e-03  5.676478e-04  0 
 4.144840e-04  -3.493370e-05  0 
 8.205578e-04  -1.007746e-04  0 
 1.184136e-03  -1.355625e-04  0 
 1.533183e-03  -1.134516e-04  0 
 1.910137e-03  -9.004108e-05  0 
 2.213577e-03  -1.011983e-04  0 
 3.014781e-03  3.484978e-04  0 
 1.929971e-03  -6.572114e-08  0 
 2.172028e-03  -1.243094e-04  0 
 2.225872e-03  2.095547e-04  0 
 9.390795e-04  -8.079914e-05  0 
 7.098430e-04  -3.894311e-05  0 
 2.722879e-03  2.389232e-04  0 
 8.387682e-04  8.678391e-05  0 
 2.453530e-03  1.223576e-04  0 
 1.921984e-03  1.799234e-04  0 
 1.961618e-03  -9.105488e-05  0 
 1.277407e-03  -2.494040e-05  0 
 1.277199e-03  2.001125e-04  0 
 3.380928e-04  -2.909723e-05  0 
 2.532475e-03  -9.524723e-05  0 
 3.387333e-04  -2.672496e-05  0 
 3.235329e-04  -2.880747e-05  0 
 1.889876e-03  -1.169204e-04  0 
 2.328141e-03  -1.095695e-04  0 
 3.331327e-04  -1.876288e-05  0 
 2.478523e-03  2.631462e-04  0 
 3.940643e-04  -2.687950e-05  0 
 2.339071e-03  4.291844e-04  0 
 2.713195e-03  6.630518e-05  0 
 1.317016e-03  -9.664881e-05  0 
 1.921106e-03  4.377279e-04  0 
 1.761973e-03  -9.090165e-05  0 
 1.254740e-03  -1.111320e-04  0 
 1.614554e-03  2.467096e-04  0 
 2.103618e-03  8.622440e-05  0 
 1.273458e-03  1.263133e-04  0 
 2.113899e-03  3.909845e-04  0 
 1.181546e-03  -8.885636e-05  0 
 9.216984e-04  8.130846e-05  0 
 1.627169e-03  1.332151e-04  0 
 2.104207e-03  -1.132201e-04  0 
 6.520345e-04  -5.058436e-05  0 
 1.890812e-03  -1.152735e-04  0 
 1.306652e-03  -1.529000e-05  0 
 1.093959e-03  -8.460792e-05  0 
 1.044059e-03  -9.937233e-05  0 
 1.722267e-03  2.552295e-05  0 
 2.619224e-03  4.366130e-04  0 
 2.095987e-03  -9.874760e-05  0 
 1.625470e-03  -1.221367e-04  0 
 1.616291e-03  -8.896220e-05  0 
 1.413282e-03  -1.161679e-04  0 
 7.390091e-04  -7.097942e-05  0 
 2.544208e-03  1.681844e-05  0 
 2.393085e-03  -1.068544e-04  0 
 1.567874e-03  -7.005594e-05  0 
 2.351434e-03  -8.758177e-05  0 
 7.944569e-04  -5.341826e-05  0 
 3.046584e-04  -7.179352e-06  0 
 5.755785e-04  -5.034447e-05  0 
 2.921667e-04  -2.331590e-05  0 
 2.567419e-03  -6.844680e-05  0 
 2.806889e-03  4.420181e-04  0 
 2.218511e-03  1.796978e-05  0 
 3.585161e-04  -3.052171e-05  0 
 3.358670e-03  2.031150e-04  0 
 3.142143e-03  3.252394e-04  0 
 3.111705e-03  6.722190e-05  0 
 3.057891e-03  4.119946e-04  0 
 5.163272e-04  -9.680509e-05  0 
 1.672264e-03  -1.173701e-04  0 
 2.071039e-03  -7.998253e-05  0 
 1.004643e-03  -1.431750e-04  0 
 2.200016e-04  -2.323953e-05  0 
 1.319203e-03  -1.413585e-04  0 
VECTORS displacement_ITER7 FLOAT
 0  0  0 
 0  0  0 
 2.848045e-03  4.348123e-04  0 
 0  0  0 
 0  0  0 
 0  0  0 
 0  0  0 
 0  0  0 
 0  0  0 
 0  0  0 
 0  0  0 
 2.876453e-03  2.996061e-04  0 
 2.853738e-03  1.488929e-04  0 
 2.833385e-03  5.511688e-05  0 
 6.495056e-04  2.433481e-04  0 
 1.222983e-03  3.882228e-04  0 
 1.645112e-03  5.153353e-04  0 
 1.948764e-03  5.591884e-04  0 
 2.183423e-03  5.880562e-04  0 
 2.432890e-03  5.717542e-04  0 
 2.681436e-03  4.957149e-04  0 
 3.855509e-04  -3.265046e-05  0 
 8.039403e-04  -7.670176e-05  0 
 1.193130e-03  -1.287142e-04  0 
 1.547446e-03  -1.512310e-04  0 
 1.905219e-03  -1.596943e-04  0 
 2.201739e-03  -1.714441e-04  0 
 2.881959e-03  2.176056e-04  0 
 1.919753e-03  2.335150e-05  0 
 2.153440e-03  -1.049853e-04  0 
 2.229772e-03  2.209403e-04  0 
 9.283100e-04  -7.755065e-05  0 
 7.033071e-04  -3.772623e-05  0 
 2.698299e-03  2.317372e-04  0 
 8.317402e-04  8.810076e-05  0 
 2.453949e-03  1.516313e-04  0 
 1.923754e-03  1.885734e-04  0 
 1.939714e-03  -6.083929e-05  0 
 1.267271e-03  -2.204371e-05  0 
 1.269316e-03  2.018132e-04  0 
 3.304445e-04  -2.850278e-05  0 
 2.610065e-03  -1.097392e-04  0 
 3.321052e-04  -2.712555e-05  0 
 3.140494e-04  -2.707208e-05  0 
 1.868984e-03  -1.418045e-04  0 
 2.355190e-03  -1.377617e-04  0 
 3.273050e-04  -1.826493e-05  0 
 2.473470e-03  2.595522e-04  0 
 3.886415e-04  -2.632522e-05  0 
 2.330923e-03  4.193699e-04  0 
 2.696330e-03  9.905975e-05  0 
 1.277434e-03  -9.578332e-05  0 
 1.922473e-03  4.373509e-04  0 
 1.743118e-03  -1.335661e-04  0 
 1.220928e-03  -1.050082e-04  0 
 1.614831e-03  2.501495e-04  0 
 2.102593e-03  1.103365e-04  0 
 1.264896e-03  1.257909e-04  0 
 2.118458e-03  3.916282e-04  0 
 1.154951e-03  -9.182223e-05  0 
 9.140117e-04  8.131915e-05  0 
 1.624289e-03  1.363974e-04  0 
 2.084280e-03  -1.343469e-04  0 
 6.431173e-04  -4.447346e-05  0 
 1.857410e-03  -1.056973e-04  0 
 1.287923e-03  -6.596220e-06  0 
 1.071416e-03  -8.061513e-05  0 
 1.028048e-03  -8.712554e-05  0 
 1.711856e-03  4.314477e-05  0 
 2.598444e-03  4.081849e-04  0 
 2.087941e-03  -1.511625e-04  0 
 1.579615e-03  -1.259248e-04  0 
 1.576142e-03  -7.915586e-05  0 
 1.391122e-03  -1.278957e-04  0 
 7.308749e-04  -6.923205e-05  0 
 2.539382e-03  5.677479e-05  0 
 2.410606e-03  -9.094613e-05  0 
 1.545273e-03  -5.858353e-05  0 
 2.341702e-03  -4.857809e-05  0 
 7.861734e-04  -5.337376e-05  0 
 3.014850e-04  -6.617995e-06  0 
 5.678967e-04  -4.807738e-05  0 
 2.795707e-04  -2.232947e-05  0 
 2.605867e-03  -4.940543e-05  0 
 2.747469e-03  3.898473e-04  0 
 2.211556e-03  5.196411e-05  0 
 3.390177e-04  -2.739497e-05  0 
 3.216680e-03  1.841992e-04  0 
 3.044272e-03  2.557875e-04  0 
 3.013068e-03  9.692758e-05  0 
 2.963090e-03  3.231189e-04  0 
 4.621404e-04  -7.319308e-05  0 
 1.706985e-03  -1.694441e-04  0 
 2.060937e-03  -1.592348e-04  0 
 1.017608e-03  -1.262337e-04  0 
 2.040339e-04  -2.179069e-05  0 
 1.371770e-03  -1.541568e-04  0 
VECTORS displacement_ITER8 FLOAT
 0  0  0 
 0  0  0 
 2.824371e-03  4.532295e-04  0 
 0  0  0 
 0  0  0 
 0  0  0 
 0  0  0 
 0  0  0 
 0  0  0 
 0  0  0 
 0  0  0 
 2.854339e-03  2.713087e-04  0 
 2.853893e-03  1.475298e-04  0 
 2.843021e-03  3.925371e-05  0 
 6.312895e-04  2.364727e-04  0 
 1.187122e-03  3.776119e-04  0 
 1.599740e-03  5.029035e-04  0 
 1.905557e-03  5.553686e-04  0 
 2.145547e-03  5.934252e-04  0 
 2.397924e-03  5.825506e-04  0 
 2.630454e-03  4.961135e-04  0 
 3.923330e-04  -3.309061e-05  0 
 8.091380e-04  -7.282486e-05  0 
 1.196379e-03  -1.232990e-04  0 
 1.524041e-03  -1.508944e-04  0 
 1.836809e-03  -1.576261e-04  0 
 2.099566e-03  -1.488153e-04  0 
 2.970596e-03  3.279134e-04  0 
 1.867370e-03  -3.913744e-06  0 
 2.091685e-03  -1.338575e-04  0 
 2.182517e-03  2.167153e-04  0 
 9.277742e-04  -8.888470e-05  0 
 6.837999e-04  -4.052284e-05  0 
 2.665356e-03  2.352471e-04  0 
 8.067382e-04  8.437370e-05  0 
 2.410476e-03  1.467365e-04  0 
 1.876321e-03  1.776493e-04  0 
 1.888145e-03  -9.022685e-05  0 
 1.227932e-03  -3.298352e-05  0 
 1.230897e-03  1.938090e-04  0 
 3.266191e-04  -2.989665e-05  0 
 2.517093e-03  -1.041099e-04  0 
 3.245379e-04  -2.856052e-05  0 
 3.141779e-04  -2.930194e-05  0 
 1.822099e-03  -1.624638e-04  0 
 2.254247e-03  -1.547208e-04  0 
 3.186074e-04  -1.924518e-05  0 
 2.433106e-03  2.601741e-04  0 
 3.772177e-04  -2.721479e-05  0 
 2.291131e-03  4.166690e-04  0 
 2.664134e-03  9.326131e-05  0 
 1.255522e-03  -1.159208e-04  0 
 1.873223e-03  4.296457e-04  0 
 1.698915e-03  -1.541744e-04  0 
 1.207836e-03  -1.194966e-04  0 
 1.565720e-03  2.420831e-04  0 
 2.049752e-03  9.887391e-05  0 
 1.223659e-03  1.166881e-04  0 
 2.075986e-03  3.833811e-04  0 
 1.135532e-03  -1.111849e-04  0 
 8.867808e-04  7.481528e-05  0 
 1.575465e-03  1.238206e-04  0 
 2.025130e-03  -1.557805e-04  0 
 6.472417e-04  -4.997142e-05  0 
 1.812443e-03  -1.316913e-04  0 
 1.250117e-03  -2.066772e-05  0 
 1.045895e-03  -9.238415e-05  0 
 1.031004e-03  -9.362324e-05  0 
 1.662879e-03  2.567947e-05  0 
 2.563362e-03  4.095454e-04  0 
 2.019682e-03  -1.613252e-04  0 
 1.545610e-03  -1.486570e-04  0 
 1.540170e-03  -1.030722e-04  0 
 1.375718e-03  -1.418357e-04  0 
 7.230393e-04  -7.579253e-05  0 
 2.494175e-03  3.242475e-05  0 
 2.331442e-03  -1.031397e-04  0 
 1.507430e-03  -8.210082e-05  0 
 2.286805e-03  -7.181343e-05  0 
 7.692847e-04  -6.031783e-05  0 
 2.927077e-04  -7.042132e-06  0 
 5.667572e-04  -5.302708e-05  0 
 2.831747e-04  -2.363808e-05  0 
 2.534701e-03  -5.105771e-05  0 
 2.696145e-03  3.801413e-04  0 
 2.161115e-03  2.335116e-05  0 
 3.463809e-04  -2.772909e-05  0 
 3.134217e-03  1.078338e-04  0 
 3.027684e-03  2.075805e-04  0 
 3.029992e-03  7.859527e-05  0 
 2.942945e-03  3.181791e-04  0 
 4.630656e-04  -5.946426e-05  0 
 1.659538e-03  -1.395776e-04  0 
 1.951350e-03  -1.170365e-04  0 
 1.019328e-03  -1.062382e-04  0 
 2.090654e-04  -1.995679e-05  0 
 1.366055e-03  -1.294398e-04  0 
VECTORS displacement_ITER9 FLOAT
 0  0  0 
 0  0  0 
 2.825176e-03  4.755741e-04  0 
 0  0  0 
 0  0  0 
 0  0  0 
 0  0  0 
 0  0  0 
 0  0  0 
 0  0  0 
 0  0  0 
 2.848920e-03  2.845089e-04  0 
 2.849506e-03  1.595306e-04  0 
 2.825977e-03  4.780385e-05  0 
 6.357207e-04  2.367221e-04  0 
 1.194546e-03  3.776444e-04  0 
 1.605294e-03  5.025588e-04  0 
 1.912586e-03  5.579952e-04  0 
 2.147393e-03  5.983654e-04  0 
 2.400917e-03  5.860359e-04  0 
 2.626258e-03  5.052706e-04  0 
 3.956029e-04  -3.149166e-05  0 
 7.895384e-04  -6.643546e-05  0 
 1.178500e-03  -1.050025e-04  0 
 1.514172e-03  -1.325113e-04  0 
 1.830442e-03  -1.478988e-04  0 
 2.127982e-03  -1.555780e-04  0 
 2.977677e-03  3.583926e-04  0 
 1.870343e-03  -2.977714e-06  0 
 2.088408e-03  -1.068592e-04  0 
 2.182085e-03  2.177148e-04  0 
 9.290011e-04  -8.370297e-05  0 
 6.884696e-04  -4.098089e-05  0 
 2.650877e-03  2.479873e-04  0 
 8.130357e-04  8.449245e-05  0 
 2.402286e-03  1.455573e-04  0 
 1.879666e-03  1.821397e-04  0 
 1.886604e-03  -7.329239e-05  0 
 1.233147e-03  -3.158569e-05  0 
 1.237749e-03  1.950143e-04  0 
 3.308672e-04  -2.886158e-05  0 
 2.528674e-03  -7.592851e-05  0 
 3.294259e-04  -2.840743e-05  0 
 3.171239e-04  -2.946835e-05  0 
 1.809457e-03  -1.455843e-04  0 
 2.255547e-03  -1.323112e-04  0 
 3.230692e-04  -1.947120e-05  0 
 2.430047e-03  2.680832e-04  0 
 3.816496e-04  -2.746070e-05  0 
 2.294940e-03  4.210605e-04  0 
 2.644215e-03  9.001636e-05  0 