# vtk DataFile Version 3.1
this is an vtk file created by FEMAC
ASCII
DATASET UNSTRUCTURED_GRID
POINTS 100 FLOAT
7.000000 3.000000 0.000000
8.000000 3.000000 0.000000
6.125000 3.000000 0.000000
6.250000 3.000000 0.000000
6.375000 3.000000 0.000000
6.500000 3.000000 0.000000
6.625000 3.000000 0.000000
6.750000 3.000000 0.000000
6.875000 3.000000 0.000000
7.000000 2.125000 0.000000
7.000000 2.250000 0.000000
7.000000 2.375000 0.000000
7.000000 2.500000 0.000000
7.000000 2.625000 0.000000
7.000000 2.750000 0.000000
7.000000 2.875000 0.000000
7.125000 3.000000 0.000000
7.250000 3.000000 0.000000
7.375000 3.000000 0.000000
7.500000 3.000000 0.000000
7.625000 3.000000 0.000000
7.750000 3.000000 0.000000
7.875000 3.000000 0.000000
8.000000 2.500000 0.000000
8.000000 2.625000 0.000000
8.000000 2.750000 0.000000
8.000000 2.875000 0.000000
6.499968 2.553895 0.000000
6.723767 2.242588 0.000000
6.772788 2.778196 0.000000
6.868409 2.187745 0.000000
6.885963 2.850636 0.000000
6.752442 2.516857 0.000000
6.503514 2.797329 0.000000
6.684831 2.708799 0.000000
6.375911 2.835134 0.000000
6.615764 2.865775 0.000000
6.871707 2.712262 0.000000
6.837582 2.313629 0.000000
6.242705 2.911136 0.000000
6.744744 2.901494 0.000000
6.633719 2.533010 0.000000
6.881036 2.514309 0.000000
6.600992 2.633272 0.000000
6.398981 2.633211 0.000000
6.497991 2.680762 0.000000
6.735717 2.359300 0.000000
6.568343 2.444054 0.000000
6.919462 2.396716 0.000000
6.707031 2.612320 0.000000
6.766172 2.680876 0.000000
6.829731 2.610271 0.000000
6.687920 2.439227 0.000000
6.798154 2.427360 0.000000
6.597103 2.751932 0.000000
6.413348 2.731394 0.000000
6.499198 2.916373 0.000000
6.683046 2.801239 0.000000
6.907273 2.083712 0.000000
6.940241 2.931409 0.000000
7.463342 2.486362 0.000000
7.782358 2.735732 0.000000
7.234020 2.225948 0.000000
7.108754 2.800248 0.000000
7.113195 2.148760 0.000000
7.243066 2.483802 0.000000
7.552630 2.766251 0.000000
7.323537 2.276188 0.000000
7.586577 2.535048 0.000000
7.901810 2.572289 0.000000
7.376646 2.659998 0.000000
7.582850 2.885950 0.000000
7.127576 2.288511 0.000000
7.356792 2.788234 0.000000
7.888942 2.729904 0.000000
7.797286 2.871424 0.000000
7.117714 2.485691 0.000000
7.357427 2.471425 0.000000
7.478693 2.592919 0.000000
7.662751 2.786807 0.000000
7.076906 2.575090 0.000000
7.448372 2.871298 0.000000
7.424009 2.362563 0.000000
7.680960 2.655875 0.000000
7.290033 2.385523 0.000000
7.463526 2.726871 0.000000
7.232609 2.317270 0.000000
7.168500 2.389299 0.000000
7.400562 2.546530 0.000000
7.226128 2.855097 0.000000
7.108126 2.669802 0.000000
7.243949 2.702266 0.000000
7.182074 2.580879 0.000000
7.568025 2.682526 0.000000
7.302684 2.568622 0.000000
7.793639 2.627384 0.000000
7.684455 2.910027 0.000000
7.334771 2.902335 0.000000
7.926871 2.871055 0.000000
7.118314 2.921724 0.000000
CELLS 157 628 
3 15 31 14
3 29 37 31
3 40 29 31
3 8 40 31
3 14 31 37
3 14 37 13
3 39  3  2
3 39  4  3
3 4 39 35
3 7 40  8
3 6 40  7
3 40  6 36
3 38 28 30
3 43 27 41
3 45 27 43
3 27 45 44
3 38 46 28
3 27 47 41
3 12 48 11
3 48 12 42
3 32 49 41
3 34 50 29
3 50 37 29
3 50 34 49
3 51 32 42
3 32 51 49
3 52 32 41
3 32 53 42
3 38 53 46
3 33 54 36
3 34 54 43
3 55 33 35
3 43 49 34
3 43 41 49
3 41 47 52
3 48 53 38
3 48 42 53
3 45 54 33
3 45 43 54
3 55 45 33
3 44 45 55
3 52 53 32
3 52 46 53
3 50 51 37
3 50 49 51
3 12 13 42
3 51 13 37
3 42 13 51
3 10 30  9
3 10 38 30
3 48 38 10
3 48 10 11
3 5 56  6
3 56 36  6
3 29 57 34
3 36 57 40
3 57 29 40
3 57 54 34
3 36 54 57
3 56 33 36
3 56  5  4
3 35 56  4
3 33 56 35
3 58  9 30
3 8 59  0
3 15 59 31
3 59 15  0
3 59  8 31
3 9 64 10
3 69 23 24
3 62 72 64
3 75 61 74
3 10 64 72
3 74 24 25
3 24 74 69
3 10 72 11
3 19 71 20
3 75 22 21
3 68 78 60
3 79 61 75
3 12 80 13
3 80 12 76
3 82 60 77
3 65 84 77
3 85 70 78
3 67 86 62
3 86 72 62
3 86 67 84
3 87 65 76
3 65 87 84
3 60 88 77
3 70 88 78
3 88 60 78
3 90 14 13
3 14 90 63
3 65 92 76
3 68 93 78
3 94 65 77
3 61 95 74
3 95 69 74
3 96 21 20
3 71 96 20
3 80 90 13
3 80 76 92
3 83 93 68
3 82 84 67
3 82 77 84
3 94 88 70
3 77 88 94
3 85 93 66
3 85 78 93
3 94 92 65
3 86 87 72
3 86 84 87
3 95 61 83
3 66 81 85
3 81 73 85
3 94 70 91
3 91 92 94
3 89 63 91
3 96 71 79
3 75 96 79
3 96 75 21
3 12 11 76
3 87 11 72
3 76 11 87
3 83 61 79
3 66 79 71
3 66 93 79
3 83 79 93
3 81 71 19
3 71 81 66
3 19 18 81
3 97 18 17
3 97 89 73
3 89 97 17
3 97 81 18
3 73 81 97
3 90 91 63
3 80 92 90
3 90 92 91
3 14 63 15
3 85 73 70
3 91 70 73
3 89 91 73
3 22 98  1
3 98 26  1
3 25 26 98
3 98 75 74
3 75 98 22
3 74 25 98
3 15 99  0
3 99 16  0
3 99 17 16
3 99 63 89
3 63 99 15
3 89 17 99
CELL_TYPES 157
5 5 5 5 5 5 5 5 5 5 5 5 5 5 5 5 5 5 5 5 5 5 5 5 5 5 5 5 5 5 5 5 5 5 5 5 5 5 5 5 5 5 5 5 5 5 5 5 5 5 5 5 5 5 5 5 5 5 5 5 5 5 5 5 5 5 5 5 5 5 5 5 5 5 5 5 5 5 5 5 5 5 5 5 5 5 5 5 5 5 5 5 5 5 5 5 5 5 5 5 5 5 5 5 5 5 5 5 5 5 5 5 5 5 5 5 5 5 5 5 5 5 5 5 5 5 5 5 5 5 5 5 5 5 5 5 5 5 5 5 5 5 5 5 5 5 5 5 5 5 5 5 5 5 5 5 5 
POINT_DATA 100
VECTORS displacement_ITER1 FLOAT
 0  0  0 
 0  0  0 
 0  0  0 
 0  0  0 
 0  0  0 
 0  0  0 
 0  0  0 
 0  0  0 
 0  0  0 
 5.065037e-06  3.967324e-07  0 
 4.724887e-06  4.129274e-07  0 
 4.047721e-06  4.030452e-07  0 
 3.339975e-06  3.595139e-07  0 
 2.507599e-06  2.510321e-07  0 
 1.678864e-06  1.237956e-07  0 
 8.196192e-07  3.586911e-08  0 
 0  0  0 
 0  0  0 
 0  0  0 
 0  0  0 
 0  0  0 
 0  0  0 
 0  0  0 
 5.796908e-06  2.811718e-06  0 
 3.743891e-06  1.985055e-06  0 
 2.203205e-06  1.379337e-06  0 
 1.302703e-06  7.019524e-07  0 
 2.463172e-06  1.340639e-07  0 
 4.671943e-06  7.886480e-07  0 
 1.235999e-06  1.139672e-07  0 
 4.928522e-06  7.398564e-07  0 
 9.035760e-07  8.077103e-08  0 
 2.991101e-06  5.609407e-07  0 
 8.848808e-07  6.135641e-08  0 
 1.541945e-06  2.345735e-07  0 
 6.426706e-07  -6.001565e-08  0 
 5.983676e-07  9.828746e-08  0 
 1.796620e-06  2.522689e-07  0 
 4.378900e-06  7.182112e-07  0 
 3.798923e-07  -6.402306e-10  0 
 5.258331e-07  1.034060e-08  0 
 2.713249e-06  3.983556e-07  0 
 3.148707e-06  4.819966e-07  0 
 1.956565e-06  2.575230e-07  0 
 1.938848e-06  -4.541883e-08  0 
 1.632458e-06  1.125174e-07  0 
 4.050730e-06  6.759570e-07  0 
 3.302178e-06  3.590790e-07  0 
 3.917297e-06  5.548845e-07  0 
 2.213347e-06  3.743710e-07  0 
 1.841211e-06  2.674409e-07  0 
 2.428474e-06  4.066505e-07  0 
 3.460047e-06  6.073569e-07  0 
 3.620035e-06  6.481641e-07  0 
 1.229259e-06  1.959662e-07  0 
 1.279937e-06  -3.175838e-08  0 
 2.867779e-07  1.433264e-09  0 
 1.023808e-06  1.446915e-07  0 
 5.442737e-06  5.040938e-07  0 
 4.406842e-07  1.001594e-08  0 
 3.459346e-06  -3.565997e-08  0 
 1.853475e-06  3.655199e-08  0 
 4.653828e-06  8.215542e-08  0 
 1.386601e-06  6.524351e-08  0 
 4.983796e-06  1.587085e-07  0 
 3.493873e-06  4.880357e-08  0 
 1.629402e-06  -1.721861e-08  0 
 4.493693e-06  -1.895168e-08  0 
 3.146817e-06  1.667026e-08  0 
 3.973317e-06  1.106308e-06  0 
 2.353750e-06  5.404108e-09  0 
 7.968566e-07  -4.304748e-09  0 
 4.498076e-06  2.284035e-07  0 
 1.534638e-06  1.202560e-08  0 
 1.938260e-06  2.341782e-07  0 
 8.568061e-07  1.864315e-08  0 
 3.461952e-06  2.055511e-07  0 
 3.571124e-06  3.281626e-09  0 
 2.775541e-06  -2.846041e-08  0 
 1.467498e-06  -2.166829e-08  0 
 2.893065e-06  2.221173e-07  0 
 9.219694e-07  6.410329e-10  0 
 4.130246e-06  -6.352965e-08  0 
 2.425389e-06  2.030622e-09  0 
 4.053373e-06  3.292313e-08  0 
 1.933049e-06  -3.888309e-08  0 
 4.361072e-06  1.032860e-07  0 
 3.999953e-06  1.576665e-07  0 
 3.086891e-06  -7.183334e-09  0 
 1.040425e-06  1.969858e-08  0 
 2.296388e-06  1.263634e-07  0 
 2.101694e-06  6.262213e-08  0 
 2.895257e-06  1.020278e-07  0 
 2.223272e-06  -2.769260e-08  0 
 2.956305e-06  2.046731e-08  0 
 2.742101e-06  1.135930e-07  0 
 6.083278e-07  -2.309574e-09  0 
 7.019978e-07  5.691766e-09  0 
 9.511453e-07  9.961259e-08  0 
 5.438704e-07  7.145103e-09  0 
VECTORS displacement_ITER2 FLOAT
 0  0  0 
 0  0  0 
 0  0  0 
 0  0  0 
 0  0  0 
 0  0  0 
 0  0  0 
 0  0  0 
 0  0  0 
 6.619043e-05  1.856659e-05  0 
 5.757891e-05  1.361592e-05  0 
 4.764918e-05  1.119059e-05  0 
 3.813080e-05  8.425081e-06  0 
 2.806628e-05  5.447203e-06  0 
 1.873424e-05  3.052086e-06  0 
 9.452914e-06  1.300891e-06  0 
 0  0  0 
 0  0  0 
 0  0  0 
 0  0  0 
 0  0  0 
 0  0  0 
 0  0  0 
 1.699959e-04  9.910762e-05  0 
 8.863158e-05  5.921649e-05  0 
 4.406687e-05  3.979757e-05  0 
 2.487252e-05  1.977390e-05  0 
 2.618845e-05  -2.759103e-07  0 
 4.995509e-05  1.000792e-05  0 
 1.281462e-05  1.009068e-06  0 
 5.666792e-05  1.588908e-05  0 
 9.636753e-06  6.162512e-07  0 
 3.147200e-05  5.657938e-06  0 
 1.033546e-05  1.635105e-07  0 
 1.632278e-05  1.827535e-06  0 
 7.950560e-06  -9.611462e-07  0 
 6.675853e-06  8.110611e-07  0 
 1.915378e-05  2.928517e-06  0 
 4.891210e-05  1.153137e-05  0 
 4.824302e-06  -4.121227e-08  0 
 5.744220e-06  3.462701e-08  0 
 2.884013e-05  2.575368e-06  0 
 3.416624e-05  6.568425e-06  0 
 2.119357e-05  1.056797e-06  0 
 2.125701e-05  -1.431744e-06  0 
 1.817356e-05  -2.259838e-07  0 
 4.332983e-05  7.052488e-06  0 
 3.456242e-05  2.097347e-06  0 
 4.432689e-05  9.988602e-06  0 
 2.373411e-05  3.341970e-06  0 
 1.961138e-05  2.568777e-06  0 
 2.618713e-05  4.437294e-06  0 
 3.646982e-05  5.043449e-06  0 
 3.871273e-05  7.918771e-06  0 
 1.328277e-05  1.052182e-06  0 
 1.511961e-05  -1.051085e-06  0 
 3.429084e-06  -4.813186e-08  0 
 1.074792e-05  1.166863e-06  0 
 4.759724e-05  2.896290e-05  0 
 4.640927e-06  9.745313e-09  0 
 4.930597e-05  5.617882e-06  0 
 3.068600e-05  3.323170e-06  0 
 6.413539e-05  1.254847e-05  0 
 1.651041e-05  1.682015e-06  0 
 6.884451e-05  1.518248e-05  0 
 4.471196e-05  6.112238e-06  0 
 2.328226e-05  -2.477500e-07  0 
 6.230595e-05  1.107286e-05  0 
 4.859268e-05  5.738741e-06  0 
 9.204331e-05  3.617142e-05  0 
 3.183614e-05  1.941348e-06  0 
 1.071583e-05  -1.484494e-07  0 
 5.678573e-05  1.226049e-05  0 
 2.151289e-05  -8.312620e-08  0 
 3.497310e-05  6.838954e-06  0 
 1.155007e-05  3.453488e-07  0 
 4.174975e-05  7.605638e-06  0 
 4.814785e-05  5.963776e-06  0 
 4.006192e-05  2.813816e-06  0 
 2.080785e-05  -5.824213e-07  0 
 3.382059e-05  6.086992e-06  0 
 1.231322e-05  -1.057934e-07  0 
 5.943053e-05  8.648025e-06  0 
 4.176663e-05  2.068858e-06  0 
 5.405194e-05  8.052658e-06  0 
 2.825052e-05  -7.039877e-07  0 
 5.704591e-05  1.044957e-05  0 
 5.060585e-05  9.431688e-06  0 
 4.238756e-05  4.252142e-06  0 
 1.398373e-05  1.494789e-07  0 
 2.678121e-05  3.759716e-06  0 
 2.630185e-05  2.523234e-06  0 
 3.551490e-05  4.845198e-06  0 
 3.518402e-05  2.663321e-07  0 
 3.844553e-05  4.137123e-06  0 
 5.375528e-05  8.240087e-06  0 
 8.040814e-06  -1.120435e-07  0 
 9.316651e-06  -6.914214e-08  0 
 1.440724e-05  2.795976e-06  0 
 7.314669e-06  -1.129116e-08  0 
VECTORS displacement_ITER3 FLOAT
 0  0  0 
 0  0  0 
 0  0  0 
 0  0  0 
 0  0  0 
 0  0  0 
 0  0  0 
 0  0  0 
 0  0  0 
 2.015502e-04  2.358511e-05  0 
 2.186192e-04  1.557250e-05  0 
 2.062154e-04  1.563369e-05  0 
 1.814009e-04  1.650364e-05  0 
 1.438649e-04  1.459876e-05  0 
 9.939139e-05  6.926131e-06  0 
 5.043135e-05  1.979544e-06  0 
 0  0  0 
 0  0  0 
 0  0  0 
 0  0  0 
 0  0  0 
 0  0  0 
 0  0  0 
 1.932264e-04  8.904618e-05  0 
 1.804882e-04  8.925036e-05  0 
 9.861324e-05  6.023019e-05  0 
 6.022726e-05  3.081478e-05  0 
 1.367847e-04  1.167656e-05  0 
 2.009896e-04  6.270987e-05  0 
 7.232681e-05  9.271324e-06  0 
 2.034828e-04  4.859658e-05  0 
 5.534894e-05  5.815227e-06  0 
 1.663507e-04  3.963557e-05  0 
 4.883183e-05  5.502077e-06  0 
 8.764542e-05  1.864723e-05  0 
 3.356437e-05  -5.645546e-06  0 
 3.320662e-05  8.674627e-06  0 
 1.048500e-04  1.738267e-05  0 
 2.132094e-04  4.428451e-05  0 
 2.187461e-05  -8.745869e-09  0 
 3.172745e-05  1.000769e-06  0 
 1.503284e-04  2.980649e-05  0 
 1.762351e-04  3.226854e-05  0 
 1.089358e-04  2.074354e-05  0 
 1.080285e-04  -2.574505e-06  0 
 9.065880e-05  1.000627e-05  0 
 2.064112e-04  4.985189e-05  0 
 1.768920e-04  2.740141e-05  0 
 2.038780e-04  2.969830e-05  0 
 1.239260e-04  2.794754e-05  0 
 1.052802e-04  1.986012e-05  0 
 1.377764e-04  2.825079e-05  0 
 1.865210e-04  4.353745e-05  0 
 1.955589e-04  4.493611e-05  0 
 6.944114e-05  1.564543e-05  0 
 7.013309e-05  -1.530644e-06  0 
 1.324853e-05  3.363627e-07  0 
 5.865416e-05  1.195186e-05  0 
 1.716733e-04  5.691117e-05  0 
 2.728108e-05  7.364673e-07  0 
 1.698275e-04  -2.420921e-05  0 
 8.478535e-05  -1.657705e-06  0 
 2.082877e-04  -1.759722e-05  0 
 8.218464e-05  2.190625e-06  0 
 2.121681e-04  -4.872440e-06  0 
 1.815476e-04  -9.897852e-06  0 
 8.147675e-05  -4.270669e-06  0 
 2.040169e-04  -2.538217e-05  0 
 1.517544e-04  -1.329999e-05  0 
 1.863913e-04  6.061516e-05  0 
 1.261955e-04  -9.366481e-06  0 
 4.076713e-05  -7.553437e-07  0 
 2.130553e-04  -1.177471e-06  0 
 8.427397e-05  -2.079881e-06  0 
 8.686809e-05  1.064995e-05  0 
 4.072295e-05  5.069813e-07  0 
 1.833341e-04  3.440698e-06  0 
 1.795712e-04  -1.908979e-05  0 
 1.387022e-04  -1.882599e-05  0 
 7.064665e-05  -3.798548e-06  0 
 1.594813e-04  8.383960e-06  0 
 4.945905e-05  -1.187999e-06  0 
 1.950088e-04  -3.058047e-05  0 
 1.109590e-04  -5.956404e-06  0 
 1.984327e-04  -1.736552e-05  0 
 9.995488e-05  -8.996846e-06  0 
 2.062860e-04  -1.302548e-05  0 
 2.007438e-04  -3.595965e-06  0 
 1.566376e-04  -1.749190e-05  0 
 5.976164e-05  -8.227957e-07  0 
 1.325602e-04  4.124288e-06  0 
 1.197837e-04  -2.407387e-06  0 
 1.574545e-04  -2.153612e-06  0 
 1.057955e-04  -8.782455e-06  0 
 1.563802e-04  -1.068183e-05  0 
 1.225497e-04  2.353977e-07  0 
 3.015167e-05  -9.098563e-07  0 
 3.893667e-05  -2.947272e-07  0 
 4.492767e-05  4.572094e-06  0 
 3.290753e-05  5.089884e-07  0 
VECTORS displacement_ITER4 FLOAT
 0  0  0 
 0  0  0 
 0  0  0 
 0  0  0 
 0  0  0 
 0  0  0 
 0  0  0 
 0  0  0 
 0  0  0 
 7.958941e-04  -3.113462e-05  0 
 7.594792e-04  -5.176823e-05  0 
 6.597827e-04  -4.186772e-05  0 
 5.507293e-04  -3.003363e-05  0 
 4.248989e-04  -1.734517e-05  0 
 2.832480e-04  -9.152575e-06  0 
 1.381140e-04  1.373361e-06  0 
 0  0  0 
 0  0  0 
 0  0  0 
 0  0  0 
 0  0  0 
 0  0  0 
 0  0  0 
 7.048738e-04  2.557818e-04  0 
 4.575985e-04  1.799346e-04  0 
 3.238738e-04  1.349476e-04  0 
 1.861458e-04  7.082696e-05  0 
 5.443688e-04  -2.990507e-05  0 
 7.323324e-04  -1.855830e-05  0 
 2.679724e-04  -6.156039e-06  0 
 7.608672e-04  -1.666783e-05  0 
 1.771681e-04  -8.371168e-06  0 
 5.520678e-04  -2.519497e-05  0 
 2.705013e-04  -1.341287e-07  0 
 3.539196e-04  -5.915629e-06  0 
 2.256118e-04  -6.537563e-06  0 
 1.734246e-04  3.276857e-06  0 
 3.350317e-04  -1.569298e-05  0 
 7.211627e-04  -3.030912e-05  0 
 1.250108e-04  1.334597e-06  0 
 1.273319e-04  1.993182e-06  0 
 5.531375e-04  -3.277881e-05  0 
 5.495726e-04  -2.422475e-05  0 
 4.577588e-04  -2.554671e-05  0 
 4.835452e-04  -2.233273e-05  0 
 4.241517e-04  -1.767336e-05  0 
 6.958071e-04  -3.394408e-05  0 
 6.244768e-04  -3.281035e-05  0 
 6.495796e-04  -3.430208e-05  0 
 4.643762e-04  -1.632717e-05  0 
 3.785893e-04  -1.199185e-05  0 
 4.525121e-04  -2.076589e-05  0 
 6.252835e-04  -3.676705e-05  0 
 6.309612e-04  -2.388046e-05  0 
 3.165548e-04  -4.907249e-06  0 
 3.763790e-04  -1.451945e-05  0 
 1.078911e-04  1.997800e-06  0 
 2.486830e-04  1.961673e-06  0 
 7.759800e-04  3.364342e-06  0 
 7.646216e-05  1.202416e-06  0 
 5.217662e-04  1.264416e-05  0 
 2.900641e-04  1.776630e-05  0 
 7.468491e-04  -4.292977e-05  0 
 2.137063e-04  8.393848e-07  0 
 8.088369e-04  -6.876454e-05  0 
 5.384675e-04  -2.669965e-05  0 
 2.431886e-04  4.605476e-06  0 
 7.110431e-04  -2.496188e-05  0 
 4.688772e-04  2.226144e-05  0 
 5.016585e-04  7.947048e-05  0 
 3.437511e-04  2.890207e-06  0 
 1.210698e-04  2.178968e-06  0 
 7.162605e-04  -5.147624e-05  0 
 2.215035e-04  2.929047e-06  0 
 3.061887e-04  2.938250e-05  0 
 1.412408e-04  5.268833e-06  0 
 5.506460e-04  -3.652298e-05  0 
 5.415247e-04  -6.095062e-06  0 
 4.085902e-04  1.297327e-05  0 
 2.245414e-04  6.698037e-06  0 
 4.655682e-04  -2.482427e-05  0 
 1.359894e-04  2.439037e-06  0 
 6.404628e-04  -6.843549e-07  0 
 3.650097e-04  2.044157e-05  0 
 6.298329e-04  -2.475779e-05  0 
 2.819162e-04  4.761471e-06  0 
 6.878748e-04  -3.768688e-05  0 
 6.337039e-04  -4.316667e-05  0 
 4.587880e-04  2.752941e-06  0 
 1.549708e-04  -9.666715e-07  0 
 3.640967e-04  -1.247472e-05  0 
 3.099577e-04  -1.794485e-06  0 
 4.440523e-04  -2.227112e-05  0 
 3.296383e-04  7.934704e-06  0 
 4.413013e-04  -8.202801e-06  0 
 4.038076e-04  3.009013e-05  0 
 9.722707e-05  1.830692e-06  0 
 1.033543e-04  1.794808e-06  0 
 1.534565e-04  1.210695e-05  0 
 8.651857e-05  1.118075e-06  0 
VECTORS displacement_ITER5 FLOAT
 0  0  0 
 0  0  0 
 0  0  0 
 0  0  0 
 0  0  0 
 0  0  0 
 0  0  0 
 0  0  0 
 0  0  0 
 1.117197e-03  -1.017780e-04  0 
 1.050521e-03  -1.112154e-04  0 
 9.214875e-04  -8.939567e-05  0 
 7.763803e-04  -6.495510e-05  0 
 6.021677e-04  -3.956815e-05  0 
 4.063668e-04  -2.226278e-05  0 
 2.030005e-04  -4.131510e-06  0 
 0  0  0 
 0  0  0 
 0  0  0 
 0  0  0 
 0  0  0 
 0  0  0 
 0  0  0 
 8.236890e-04  3.010111e-04  0 
 6.371971e-04  2.564428e-04  0 
 4.476912e-04  1.897308e-04  0 
 2.550983e-04  9.947070e-05  0 
 7.778393e-04  -1.096448e-05  0 
 1.055333e-03  -4.114829e-05  0 
 3.898788e-04  -2.273852e-06  0 
 1.078355e-03  -6.170126e-05  0 
 2.595698e-04  -5.870912e-06  0 
 7.912589e-04  -2.505415e-05  0 
 3.657623e-04  4.040290e-06  0 
 5.086089e-04  4.105772e-06  0 
 3.012708e-04  -1.477058e-06  0 
 2.410374e-04  5.555292e-06  0 
 4.836184e-04  -1.916691e-05  0 
 1.013568e-03  -5.771050e-05  0 
 1.625804e-04  2.536440e-06  0 
 1.791835e-04  2.756248e-06  0 
 7.895442e-04  -1.909402e-05  0 
 7.816832e-04  -4.036009e-05  0 
 6.462058e-04  -6.365147e-06  0 
 6.677245e-04  -1.547827e-05  0 
 5.815795e-04  -2.787406e-06  0 
 9.877077e-04  -4.315747e-05  0 
 9.007277e-04  -2.006154e-05  0 
 9.134442e-04  -6.655967e-05  0 
 6.609812e-04  -8.895011e-06  0 
 5.444424e-04  -9.202511e-06  0 
 6.465429e-04  -2.531973e-05  0 
 8.951744e-04  -3.173731e-05  0 
 8.969020e-04  -3.525396e-05  0 
 4.438901e-04  6.202837e-06  0 
 4.994918e-04  -8.727000e-06  0 
 1.491572e-04  2.546362e-06  0 
 3.550455e-04  6.986880e-06  0 
 1.104008e-03  -5.168916e-05  0 
 1.149145e-04  2.010433e-06  0 
 7.161178e-04  -1.099880e-05  0 
 3.894837e-04  3.697977e-05  0 
 1.025166e-03  -1.007444e-04  0 
 3.053567e-04  -8.313453e-06  0 
 1.114875e-03  -1.386171e-04  0 
 7.467300e-04  -6.769408e-05  0 
 3.163708e-04  4.759417e-06  0 
 9.743969e-04  -7.270847e-05  0 
 6.416260e-04  3.007869e-05  0 
 6.803233e-04  1.417690e-04  0 
 4.689657e-04  -1.578337e-05  0 
 1.572865e-04  3.653726e-06  0 
 9.866190e-04  -1.094088e-04  0 
 2.959897e-04  -2.786653e-06  0 
 4.196776e-04  5.128226e-05  0 
 1.871137e-04  9.345283e-06  0 
 7.691583e-04  -7.782929e-05  0 
 7.455912e-04  -4.220345e-05  0 
 5.501394e-04  -7.517918e-06  0 
 2.907938e-04  1.135416e-05  0 
 6.539951e-04  -5.485204e-05  0 
 1.782961e-04  1.061318e-06  0 
 8.793383e-04  -3.498287e-05  0 
 4.799620e-04  4.196884e-05  0 
 8.670851e-04  -7.108668e-05  0 
 3.711465e-04  -2.650401e-06  0 
 9.449579e-04  -9.065886e-05  0 
 8.778919e-04  -9.317689e-05  0 
 6.256389e-04  -2.557543e-05  0 
 2.120499e-04  -5.916959e-06  0 
 5.135674e-04  -3.346182e-05  0 
 4.321280e-04  -2.028266e-05  0 
 6.186164e-04  -5.455930e-05  0 
 4.259776e-04  6.743788e-06  0 
 6.081442e-04  -3.829224e-05  0 
 5.372980e-04  6.211154e-05  0 
 1.276383e-04  2.717528e-06  0 
 1.381824e-04  6.363975e-07  0 
 2.089982e-04  1.989412e-05  0 
 1.216627e-04  1.171837e-06  0 
VECTORS displacement_ITER6 FLOAT
 0  0  0 
 0  0  0 
 0  0  0 
 0  0  0 
 0  0  0 
 0  0  0 
 0  0  0 
 0  0  0 
 0  0  0 
 1.399364e-03  -5.476546e-05  0 
 1.254850e-03  -4.616786e-05  0 
 1.077096e-03  -3.475839e-05  0 
 9.003891e-04  -2.622033e-05  0 
 6.962415e-04  -1.612625e-05  0 
 4.735769e-04  -6.719193e-06  0 
 2.423565e-04  7.219038e-07  0 
 0  0  0 
 0  0  0 
 0  0  0 
 0  0  0 
 0  0  0 
 0  0  0 
 0  0  0 
 1.033524e-03  3.751490e-04  0 
 8.295030e-04  3.360107e-04  0 
 5.738416e-04  2.463895e-04  0 
 3.282948e-04  1.291006e-04  0 
 8.660279e-04  1.371169e-05  0 
 1.291985e-03  -4.788562e-05  0 
 4.420644e-04  4.611893e-06  0 
 1.342259e-03  -4.231636e-05  0 
 2.968171e-04  9.203419e-07  0 
 8.983619e-04  -1.555754e-05  0 
 4.053574e-04  5.873986e-06  0 
 5.747428e-04  5.617386e-06  0 
 3.366375e-04  1.386882e-05  0 
 2.730055e-04  7.050084e-07  0 
 5.541033e-04  -7.061503e-06  0 
 1.186813e-03  -3.402419e-05  0 
 1.722849e-04  4.561577e-06  0 
 1.984971e-04  3.603179e-06  0 
 8.906814e-04  -4.568589e-06  0 
 8.891746e-04  -1.918415e-05  0 
 7.237849e-04  3.698613e-06  0 
 7.257724e-04  8.112933e-06  0 
 6.381535e-04  8.488585e-06  0 
 1.137516e-03  -3.385984e-05  0 
 1.016728e-03  5.912269e-06  0 
 1.054398e-03  -2.692499e-05  0 
 7.496955e-04  -1.616879e-06  0 
 6.190987e-04  8.154458e-07  0 
 7.361714e-04  -1.086264e-05  0 
 1.016183e-03  -1.858553e-05  0 
 1.021036e-03  -2.310502e-05  0 
 4.948178e-04  5.856407e-06  0 
 5.411713e-04  5.592408e-06  0 
 1.756929e-04  3.494219e-06  0 
 3.993840e-04  3.405170e-06  0 
 1.504396e-03  -7.589563e-05  0 
 1.345735e-04  2.339895e-06  0 
 9.010602e-04  1.099252e-05  0 
 5.010949e-04  4.141515e-05  0 
 1.251142e-03  -2.085690e-05  0 
 3.711984e-04  -2.001353e-06  0 
 1.364453e-03  -5.447244e-05  0 
 9.070936e-04  -2.252165e-05  0 
 4.140818e-04  5.612278e-06  0 
 1.195874e-03  -7.620343e-06  0 
 8.233134e-04  3.330163e-05  0 
 8.840435e-04  1.919794e-04  0 
 5.989205e-04  -1.792886e-06  0 
 2.022100e-04  3.698351e-06  0 
 1.184659e-03  -3.423482e-05  0 
 3.767250e-04  -5.399518e-07  0 
 5.363198e-04  6.733267e-05  0 
 2.395943e-04  1.227006e-05  0 
 9.104450e-04  -3.339445e-05  0 
 9.237446e-04  -4.962803e-06  0 
 7.088774e-04  4.172063e-06  0 
 3.798973e-04  1.253522e-05  0 
 7.692787e-04  -2.322739e-05  0 
 2.288619e-04  1.414139e-06  0 
 1.091935e-03  6.409604e-06  0 
 6.209626e-04  4.510076e-05  0 
 1.059187e-03  -1.537488e-05  0 
 4.821607e-04  3.800248e-06  0 
 1.146974e-03  -2.173112e-05  0 
 1.053329e-03  -3.169728e-05  0 
 7.901560e-04  -1.514138e-06  0 
 2.663419e-04  -3.010208e-06  0 
 6.062451e-04  -1.312229e-05  0 
 5.332170e-04  -9.292415e-06  0 
 7.453836e-04  -2.396270e-05  0 
 5.561816e-04  7.812683e-06  0 
 7.560193e-04  -9.586371e-06  0 
 6.921603e-04  7.062755e-05  0 
 1.628223e-04  3.124886e-06  0 
 1.762001e-04  1.338194e-06  0 
 2.683164e-04  2.598489e-05  0 
 1.500143e-04  1.752130e-06  0 
VECTORS displacement_ITER7 FLOAT
 0  0  0 
 0  0  0 
 0  0  0 
 0  0  0 
 0  0  0 
 0  0  0 
 0  0  0 
 0  0  0 
 0  0  0 
 1.433494e-03  -3.702421e-05  0 
 1.294657e-03  -3.263822e-05  0 
 1.117816e-03  -2.757116e-05  0 
 9.309471e-04  -2.160016e-05  0 
 7.198729e-04  -1.583305e-05  0 
 4.885656e-04  -7.775845e-06  0 
 2.481700e-04  4.317827e-07  0 
 0  0  0 
 0  0  0 
 0  0  0 
 0  0  0 
 0  0  0 
 0  0  0 
 0  0  0 
 9.972401e-04  3.356675e-04  0 
 7.811687e-04  2.984193e-04  0 
 5.643119e-04  2.233358e-04  0 
 3.241743e-04  1.180655e-04  0 
 8.772544e-04  1.774126e-05  0 
 1.318456e-03  -2.526790e-05  0 
 4.543296e-04  2.704785e-06  0 
 1.374737e-03  -2.146861e-05  0 
 3.052161e-04  -7.565031e-07  0 
 9.189497e-04  -9.980758e-06  0 
 4.175577e-04  7.718559e-06  0 
 5.870956e-04  3.861876e-06  0 
 3.457585e-04  1.919976e-05  0 
 2.840847e-04  -3.258353e-07  0 
 5.703721e-04  -7.979605e-06  0 
 1.221193e-03  -1.862869e-05  0 
 1.745146e-04  5.190555e-06  0 
 2.058045e-04  3.408232e-06  0 
 9.052761e-04  -3.561523e-06  0 
 9.147946e-04  -1.248526e-05  0 
 7.348983e-04  3.475640e-06  0 
 7.364851e-04  1.684745e-05  0 
 6.489847e-04  1.233295e-05  0 
 1.165965e-03  -2.059119e-05  0 
 1.034770e-03  9.759245e-06  0 
 1.091558e-03  -1.684138e-05  0 
 7.629998e-04  -1.167794e-06  0 
 6.331077e-04  5.426746e-07  0 
 7.541756e-04  -7.802198e-06  0 
 1.041345e-03  -1.173048e-05  0 
 1.051863e-03  -1.320213e-05  0 
 5.075070e-04  5.174363e-06  0 
 5.509979e-04  1.301091e-05  0 
 1.837393e-04  3.678076e-06  0 
 4.117368e-04  1.648328e-06  0 
 1.517076e-03  -4.525395e-05  0 
 1.378185e-04  2.197687e-06  0 
 9.220931e-04  -3.719681e-06  0 
 5.016720e-04  3.631457e-05  0 
 1.297862e-03  -3.653874e-05  0 
 3.814084e-04  -2.873855e-06  0 
 1.402420e-03  -4.992997e-05  0 
 9.383954e-04  -2.996347e-05  0 
 4.212121e-04  5.378776e-06  0 
 1.240748e-03  -2.805313e-05  0 
 8.357545e-04  2.369642e-05  0 
 8.418911e-04  1.571925e-04  0 
 6.152093e-04  -5.482276e-06  0 
 2.063577e-04  3.701077e-06  0 
 1.231011e-03  -3.671270e-05  0 
 3.851230e-04  -5.355174e-07  0 
 5.328135e-04  6.503876e-05  0 
 2.427847e-04  1.205454e-05  0 
 9.440131e-04  -3.605700e-05  0 
 9.490551e-04  -1.683059e-05  0 
 7.232042e-04  -4.870746e-06  0 
 3.858795e-04  1.137058e-05  0 
 7.976577e-04  -2.465585e-05  0 
 2.338233e-04  1.422007e-06  0 
 1.124084e-03  -1.003896e-05  0 
 6.208666e-04  3.975096e-05  0 
 1.094908e-03  -3.055020e-05  0 
 4.910105e-04  2.433559e-06  0 
 1.191056e-03  -3.613518e-05  0 
 1.094086e-03  -3.806760e-05  0 
 8.113187e-04  -1.195090e-05  0 
 2.718116e-04  -2.668410e-06  0 
 6.273832e-04  -1.541238e-05  0 
 5.497726e-04  -1.036225e-05  0 
 7.729804e-04  -2.746650e-05  0 
 5.606128e-04  5.668162e-06  0 
 7.808658e-04  -1.472881e-05  0 
 6.849031e-04  6.096207e-05  0 
 1.656342e-04  2.798102e-06  0 
 1.799812e-04  1.302713e-06  0 
 2.705206e-04  2.502599e-05  0 
 1.527442e-04  1.773302e-06  0 
VECTORS displacement_ITER8 FLOAT
 0  0  0 
 0  0  0 
 0  0  0 
 0  0  0 
 0  0  0 
 0  0  0 
 0  0  0 
 0  0  0 
 0  0  0 
 1.413341e-03  -3.607747e-05  0 
 1.271618e-03  -4.186151e-05  0 
 1.101499e-03  -3.709594e-05  0 
 9.140737e-04  -2.716814e-05  0 
 7.092174e-04  -1.480525e-05  0 
 4.801688e-04  -6.872315e-06  0 
 2.432257e-04  1.368367e-06  0 
 0  0  0 
 0  0  0 
 0  0  0 
 0  0  0 
 0  0  0 
 0  0  0 
 0  0  0 
 9.858754e-04  3.341171e-04  0 
 7.907676e-04  3.050865e-04  0 
 5.682363e-04  2.269723e-04  0 
 3.259290e-04  1.199344e-04  0 
 8.730923e-04  1.076946e-05  0 
 1.283084e-03  -1.886021e-05  0 
 4.470064e-04  1.117473e-06  0 
 1.341159e-03  -2.703234e-05  0 
 2.999425e-04  -2.131916e-06  0 
 9.097866e-04  -1.334005e-05  0 
 4.151410e-04  8.482635e-06  0 
 5.801932e-04  2.978865e-06  0 
 3.408246e-04  1.453805e-05  0 
 2.801935e-04  2.162042e-06  0 
 5.608539e-04  -9.288701e-06  0 
 1.200662e-03  -2.736475e-05  0 
 1.767671e-04  4.996788e-06  0 
 2.041501e-04  3.345114e-06  0 
 8.955849e-04  -7.945087e-06  0 
 9.050455e-04  -1.465970e-05  0 
 7.284436e-04  1.642506e-06  0 
 7.372350e-04  1.378746e-05  0 
 6.465932e-04  1.039158e-05  0 
 1.150649e-03  -2.019663e-05  0 
 1.029752e-03  -9.706769e-07  0 
 1.077038e-03  -2.676353e-05  0 
 7.536609e-04  -4.780111e-06  0 
 6.241189e-04  -2.440666e-06  0 
 7.445636e-04  -1.033794e-05  0 
 1.033306e-03  -1.479775e-05  0 
 1.044621e-03  -1.667607e-05  0 
 5.033331e-04  6.106448e-06  0 
 5.502099e-04  1.191432e-05  0 
 1.783063e-04  3.541740e-06  0 
 4.063323e-04  2.990562e-06  0 
 1.422559e-03  -9.207670e-06  0 
 1.347529e-04  2.185882e-06  0 
 9.010030e-04  3.283433e-06  0 
 5.026914e-04  3.582121e-05  0 
 1.286709e-03  -3.412053e-05  0 
 3.749109e-04  -5.803993e-07  0 
 1.390500e-03  -4.611212e-05  0 
 9.161879e-04  -2.253543e-05  0 
 4.211781e-04  5.191124e-06  0 
 1.222251e-03  -2.001620e-05  0 
 8.259605e-04  2.691714e-05  0 
 8.488416e-04  1.692449e-04  0 
 6.092003e-04  -1.433104e-06  0 
 2.065872e-04  3.281047e-06  0 
 1.211908e-03  -3.912458e-05  0 
 3.844076e-04  4.324830e-07  0 
 5.348375e-04  7.028959e-05  0 
 2.412206e-04  1.199264e-05  0 
 9.233061e-04  -3.508182e-05  0 
 9.237374e-04  -6.823843e-06  0 
 7.139151e-04  -3.084454e-06  0 
 3.858625e-04  9.373787e-06  0 
 7.809390e-04  -2.373201e-05  0 
 2.339788e-04  1.510280e-06  0 
 1.099632e-03  3.856417e-06  0 
 6.206540e-04  3.903996e-05  0 
 1.070271e-03  -2.450492e-05  0 
 4.905026e-04  2.861112e-06  0 
 1.169207e-03  -3.356396e-05  0 
 1.073460e-03  -3.570248e-05  0 
 7.940729e-04  -5.071756e-06  0 
 2.701004e-04  -1.108588e-06  0 
 6.175159e-04  -1.180817e-05  0 
 5.422781e-04  -4.729185e-06  0 
 7.551102e-04  -2.276832e-05  0 
 5.588000e-04  4.956214e-06  0 
 7.631807e-04  -4.969379e-06  0 
 6.877600e-04  6.214167e-05  0 
 1.649598e-04  2.254435e-06  0 
 1.797323e-04  1.454733e-06  0 
 2.713127e-04  2.684568e-05  0 
 1.508255e-04  1.832441e-06  0 
VECTORS displacement_ITER9 FLOAT
 0  0  0 
 0  0  0 
 0  0  0 
 0  0  0 
 0  0  0 
 0  0  0 
 0  0  0 
 0  0  0 
 0  0  0 
 1.416369e-03  -4.287745e-05  0 
 1.266650e-03  -3.868376e-05  0 
 1.101279e-03  -3.589015e-05  0 
 9.143932e-04  -2.641639e-05  0 
 7.090589e-04  -1.505463e-05  0 
 4.809187e-04  -7.907513e-06  0 
 2.422166e-04  1.137847e-06  0 
 0  0  0 
 0  0  0 
 0  0  0 
 0  0  0 
 0  0  0 
 0  0  0 
 0  0  0 
 9.826781e-04  3.292473e-04  0 
 7.879988e-04  2.996601e-04  0 
 5.667753e-04  2.229308e-04  0 
 3.250675e-04  1.180256e-04  0 
 8.732839e-04  -5.671855e-06  0 
 1.293134e-03  -3.355493e-05  0 
 4.457036e-04  -8.736528e-07  0 
 1.349958e-03  -3.370374e-05  0 
 3.000879e-04  -4.363520e-06  0 
 9.106636e-04  -1.837598e-05  0 
 4.284061e-04  5.103720e-06  0 
 5.814905e-04  -3.725079e-06  0 
 3.546037e-04  1.050953e-05  0 
 2.855347e-04  1.228575e-06  0 
 5.604102e-04  -1.018795e-05  0 
 1.196105e-03  -2.940875e-05  0 
 1.874366e-04  4.825245e-06  0 
 2.067411e-04  3.109547e-06  0 
 8.973738e-04  -1.796545e-05  0 
 9.041866e-04  -1.782897e-05  0 
 7.312012e-04  -1.124430e-05  0 
 7.452487e-04  5.913816e-06  0 
 6.551123e-04  -1.989565e-06  0 
 1.145320e-03  -2.791812e-05  0 
 1.031253e-03  -1.327088e-05  0 
 1.076560e-03  -2.752612e-05  0 
 7.563746e-04  -1.069651e-05  0 
 6.254268e-04  -5.771271e-06  0 
 7.463107e-04  -1.288011e-05  0 
 1.034377e-03  -2.301586e-05  0 
 1.043162e-03  -2.240838e-05  0 
 5.085064e-04  -2.249711e-06  0 
 5.678186e-04  7.230782e-06  0 
 1.825261e-04  3.393683e-06  0 
 4.074696e-04  -2.313664e-07  0 
 1.447773e-03  -2.900956e-05  0 
 1.341088e-04  1.874952e-06  0 
 9.051920e-04  2.323113e-08  0 
 5.024039e-04  3.474848e-05  0 
 1.284678e-03  -3.245602e-05  0 
 3.746585e-04  -4.946567e-07  0 