# vtk DataFile Version 3.1
this is an vtk file created by FEMAC
ASCII
DATASET UNSTRUCTURED_GRID
POINTS 100 FLOAT
4.000000 3.000000 0.000000
3.500000 3.000000 0.000000
3.625000 3.000000 0.000000
3.750000 3.000000 0.000000
3.875000 3.000000 0.000000
4.000000 2.625000 0.000000
4.000000 2.750000 0.000000
4.000000 2.875000 0.000000
4.250000 2.000000 0.000000
4.375000 2.000000 0.000000
4.500000 2.000000 0.000000
4.625000 2.000000 0.000000
4.750000 2.000000 0.000000
4.125000 3.000000 0.000000
4.250000 3.000000 0.000000
4.375000 3.000000 0.000000
4.500000 3.000000 0.000000
4.625000 3.000000 0.000000
4.750000 3.000000 0.000000
4.875000 3.000000 0.000000
3.788799 2.879586 0.000000
3.665604 2.916551 0.000000
3.550684 2.895002 0.000000
3.925709 2.877079 0.000000
4.485442 1.490615 0.000000
4.783139 1.894340 0.000000
4.561991 1.769251 0.000000
4.324057 1.713565 0.000000
4.340038 1.853141 0.000000
4.785874 1.656072 0.000000
4.644823 1.864766 0.000000
4.243284 1.909732 0.000000
4.516933 1.672514 0.000000
4.534421 1.885361 0.000000
4.419597 1.618051 0.000000
4.538858 1.579899 0.000000
4.631992 1.484172 0.000000
4.434799 1.906832 0.000000
4.640324 1.634142 0.000000
4.853209 1.777440 0.000000
4.699148 1.933700 0.000000
4.710662 1.758599 0.000000
4.439915 1.771315 0.000000
4.508101 2.557363 0.000000
4.326132 2.223482 0.000000
4.754774 2.780890 0.000000
4.760352 2.243571 0.000000
4.228679 2.778330 0.000000
4.211814 2.195808 0.000000
4.114478 2.850685 0.000000
4.251868 2.517436 0.000000
4.771018 2.478474 0.000000
4.502521 2.801167 0.000000
4.317944 2.709389 0.000000
4.673037 2.718492 0.000000
4.381599 2.352714 0.000000
4.626088 2.836835 0.000000
4.392843 2.860645 0.000000
4.590463 2.108426 0.000000
4.129383 2.712311 0.000000
4.865490 2.714091 0.000000
4.380229 2.093953 0.000000
4.740986 2.916227 0.000000
4.255786 2.901655 0.000000
4.881964 2.853387 0.000000
4.373263 2.534585 0.000000
4.512800 2.383914 0.000000
4.498539 2.151346 0.000000
4.121013 2.514569 0.000000
4.639406 2.534753 0.000000
4.404339 2.634277 0.000000
4.416377 2.188565 0.000000
4.604545 2.637040 0.000000
4.505503 2.682902 0.000000
4.608848 2.223749 0.000000
4.080055 2.407030 0.000000
4.444091 2.456064 0.000000
4.253986 2.119870 0.000000
4.297025 2.612911 0.000000
4.551408 2.473779 0.000000
4.236253 2.681071 0.000000
4.706249 2.611690 0.000000
4.172590 2.610550 0.000000
4.314314 2.431570 0.000000
4.761292 2.685406 0.000000
4.180988 2.403058 0.000000
4.693880 2.115272 0.000000
4.473370 2.261983 0.000000
4.619582 2.422217 0.000000
4.405133 2.753012 0.000000
4.836879 2.610317 0.000000
4.692462 2.334830 0.000000
4.581412 2.325338 0.000000
4.250172 2.304843 0.000000
4.586179 2.734789 0.000000
4.164914 2.100101 0.000000
4.105605 2.247038 0.000000
4.318497 2.801756 0.000000
4.503575 2.916441 0.000000
4.059870 2.931421 0.000000
CELLS 157 628 
3 20  4  3
3 3 21 20
3 21  3  2
3 22  2  1
3 21  2 22
3 4 23  0
3 23  7  0
3 23  6  7
3 20 23  4
3 31  9  8
3 9 31 28
3 33 26 30
3 37 10  9
3 28 37  9
3 10 37 33
3 38 26 32
3 40 12 11
3 40 30 25
3 12 40 25
3 30 41 25
3 42 26 33
3 32 35 38
3 36 35 24
3 42 37 28
3 33 37 42
3 41 30 26
3 26 38 41
3 39 25 41
3 26 42 32
3 27 42 28
3 34 42 27
3 34 32 42
3 11 10 33
3 30 11 33
3 11 30 40
3 39 41 29
3 41 38 29
3 38 35 36
3 35 34 24
3 32 34 35
3 49  7  6
3 59 47 49
3 47 63 49
3 45 64 62
3 62 19 18
3 60 64 45
3 56 54 45
3 64 19 62
3 63 13 49
3 49  6 59
3 61  8  9
3 17 62 18
3 62 17 56
3 45 62 56
3 10 61  9
3 58 10 11
3 59  6  5
3 63 14 13
3 63 15 14
3 15 63 57
3 67 10 58
3 10 67 61
3 43 70 65
3 71 61 67
3 61 71 44
3 72 43 69
3 43 73 70
3 73 43 72
3 76 43 65
3 76 55 66
3 48 77 44
3 61 77  8
3 77 61 44
3 78 50 65
3 43 79 69
3 80 53 47
3 59 80 47
3 53 80 78
3 51 81 69
3 50 82 68
3 82 50 78
3 50 83 65
3 54 84 45
3 84 60 45
3 84 54 81
3 85 50 68
3 86 46 74
3 58 86 74
3 55 87 66
3 88 51 69
3 89 52 57
3 89 53 70
3 51 90 81
3 46 91 74
3 44 93 48
3 52 94 56
3 54 94 72
3 94 54 56
3 67 58 74
3 78 70 53
3 65 70 78
3 76 83 55
3 76 65 83
3 76 79 43
3 76 66 79
3 66 87 92
3 68 75 85
3 69 79 88
3 72 81 54
3 72 69 81
3 89 73 52
3 70 73 89
3 85 83 50
3 73 94 52
3 73 72 94
3 74 91 92
3 82 80 59
3 78 80 82
3 84 90 60
3 84 81 90
3 95  8 77
3 48 95 77
3 55 93 44
3 55 83 93
3 93 83 85
3 44 87 55
3 87 44 71
3 58 11 86
3 86 11 12
3 5 82 59
3 5 68 82
3 51 88 91
3 48 96 95
3 88 79 66
3 92 88 66
3 92 91 88
3 93 96 48
3 85 75 96
3 85 96 93
3 87 71 67
3 67 74 87
3 92 87 74
3 97 47 53
3 97 57 63
3 47 97 63
3 89 97 53
3 89 57 97
3 52 98 57
3 15 98 16
3 15 57 98
3 16 98 17
3 98 56 17
3 56 98 52
3 7 99  0
3 13 99 49
3 99 13  0
3 99  7 49
CELL_TYPES 157
5 5 5 5 5 5 5 5 5 5 5 5 5 5 5 5 5 5 5 5 5 5 5 5 5 5 5 5 5 5 5 5 5 5 5 5 5 5 5 5 5 5 5 5 5 5 5 5 5 5 5 5 5 5 5 5 5 5 5 5 5 5 5 5 5 5 5 5 5 5 5 5 5 5 5 5 5 5 5 5 5 5 5 5 5 5 5 5 5 5 5 5 5 5 5 5 5 5 5 5 5 5 5 5 5 5 5 5 5 5 5 5 5 5 5 5 5 5 5 5 5 5 5 5 5 5 5 5 5 5 5 5 5 5 5 5 5 5 5 5 5 5 5 5 5 5 5 5 5 5 5 5 5 5 5 5 5 
POINT_DATA 100
VECTORS displacement_ITER1 FLOAT
 0  0  0 
 0  0  0 
 0  0  0 
 0  0  0 
 0  0  0 
 3.924848e-04  -2.291146e-04  0 
 1.929113e-04  -1.228451e-04  0 
 5.832329e-05  -5.250274e-05  0 
 1.801192e-03  -4.377838e-04  0 
 1.766423e-03  -1.082554e-04  0 
 1.734284e-03  2.224478e-04  0 
 1.763068e-03  5.590759e-04  0 
 1.814142e-03  9.395513e-04  0 
 0  0  0 
 0  0  0 
 0  0  0 
 0  0  0 
 0  0  0 
 0  0  0 
 0  0  0 
 7.837420e-05  5.296004e-06  0 
 4.595545e-05  1.908908e-06  0 
 5.374910e-05  2.462702e-08  0 
 8.914852e-05  -3.857080e-07  0 
 3.515236e-03  1.389612e-04  0 
 2.125226e-03  1.067110e-03  0 
 2.526236e-03  4.258266e-04  0 
 2.749653e-03  -3.224413e-04  0 
 2.240098e-03  -2.493533e-04  0 
 2.928078e-03  1.103417e-03  0 
 2.210089e-03  6.481747e-04  0 
 2.094493e-03  -4.813980e-04  0 
 2.847003e-03  2.800310e-04  0 
 2.120131e-03  3.363628e-04  0 
 3.053356e-03  -6.079226e-05  0 
 3.171129e-03  3.422760e-04  0 
 3.509083e-03  6.436635e-04  0 
 2.044828e-03  2.732282e-05  0 
 2.971937e-03  6.773399e-04  0 
 2.538878e-03  1.300179e-03  0 
 1.992432e-03  8.097362e-04  0 
 2.586352e-03  8.610793e-04  0 
 2.521017e-03  3.849863e-05  0 
 2.961538e-04  1.341069e-04  0 
 1.052816e-03  -1.427946e-04  0 
 2.027951e-04  1.273952e-04  0 
 1.148596e-03  7.485037e-04  0 
 3.125257e-05  -1.625718e-05  0 
 1.217079e-03  -4.061395e-04  0 
 2.378459e-05  -1.226092e-05  0 
 3.940481e-04  -1.391284e-04  0 
 6.299935e-04  4.546561e-04  0 
 2.275601e-05  2.272469e-05  0 
 5.478679e-05  -2.376852e-05  0 
 1.968519e-04  1.581284e-04  0 
 6.934333e-04  -2.227434e-05  0 
 3.824051e-05  4.614785e-05  0 
 -8.517859e-06  -8.643596e-06  0 
 1.387054e-03  4.320288e-04  0 
 1.520555e-04  -8.989895e-05  0 
 3.937933e-04  2.489734e-04  0 
 1.439619e-03  -6.815373e-05  0 
 4.909975e-05  2.286779e-06  0 
 2.964736e-06  -2.210381e-06  0 
 2.403726e-04  1.098253e-04  0 
 3.261587e-04  4.333023e-06  0 
 6.325616e-04  2.066006e-04  0 
 1.250606e-03  2.255887e-04  0 
 4.881885e-04  -2.730910e-04  0 
 4.290660e-04  2.777867e-04  0 
 1.561321e-04  3.248281e-05  0 
 1.136600e-03  2.918472e-05  0 
 2.459655e-04  1.620719e-04  0 
 1.382656e-04  7.172705e-05  0 
 1.069897e-03  4.438635e-04  0 
 7.620916e-04  -4.687138e-04  0 
 4.574861e-04  7.728040e-05  0 
 1.414487e-03  -3.691581e-04  0 
 2.009243e-04  -5.626717e-05  0 
 4.594119e-04  2.329515e-04  0 
 1.183993e-04  -6.798480e-05  0 
 3.616073e-04  2.773906e-04  0 
 2.668560e-04  -1.546206e-04  0 
 5.356921e-04  -9.649966e-05  0 
 3.223020e-04  2.289923e-04  0 
 6.617596e-04  -2.949916e-04  0 
 1.397414e-03  7.171870e-04  0 
 9.326531e-04  1.514794e-04  0 
 5.963383e-04  3.571714e-04  0 
 3.494929e-05  -2.133925e-06  0 
 4.968053e-04  3.484573e-04  0 
 8.296706e-04  5.176861e-04  0 
 7.965849e-04  3.498566e-04  0 
 8.519213e-04  -2.459461e-04  0 
 1.239463e-04  8.520855e-05  0 
 1.523600e-03  -5.627470e-04  0 
 1.130872e-03  -6.006033e-04  0 
 1.515669e-05  -1.867395e-05  0 
 -1.107157e-05  1.183498e-06  0 
 1.203528e-05  -2.561480e-06  0 
VECTORS displacement_ITER2 FLOAT
 0  0  0 
 0  0  0 
 0  0  0 
 0  0  0 
 0  0  0 
 3.508066e-04  -9.024545e-05  0 
 1.986621e-04  -4.662338e-05  0 
 6.111459e-05  -1.901300e-05  0 
 1.022620e-03  -2.783839e-04  0 
 9.744280e-04  -1.675416e-04  0 
 9.230136e-04  -7.667421e-05  0 
 8.722238e-04  6.371433e-06  0 
 8.053253e-04  6.950484e-05  0 
 0  0  0 
 0  0  0 
 0  0  0 
 0  0  0 
 0  0  0 
 0  0  0 
 0  0  0 
 5.925084e-05  6.190123e-06  0 
 3.283861e-05  2.446924e-06  0 
 3.699473e-05  5.331020e-07  0 
 7.107588e-05  2.955414e-06  0 
 1.319090e-03  -3.084422e-04  0 
 8.758177e-04  3.220785e-05  0 
 1.111630e-03  -1.600800e-04  0 
 1.265276e-03  -2.988379e-04  0 
 1.149057e-03  -2.505314e-04  0 
 1.072669e-03  -1.373729e-04  0 
 9.815345e-04  -6.368050e-05  0 
 1.121007e-03  -3.180927e-04  0 
 1.222464e-03  -2.413476e-04  0 
 1.028464e-03  -1.032777e-04  0 
 1.295117e-03  -2.855887e-04  0 
 1.273180e-03  -2.731630e-04  0 
 1.291401e-03  -2.680227e-04  0 
 1.051727e-03  -1.633308e-04  0 
 1.189756e-03  -1.917919e-04  0 
 9.216900e-04  -3.015326e-05  0 
 8.873971e-04  7.306494e-06  0 
 1.039408e-03  -8.741598e-05  0 
 1.184626e-03  -2.218851e-04  0 
 2.905935e-04  3.807133e-05  0 
 7.148615e-04  -1.284100e-04  0 
 1.618567e-04  6.049313e-05  0 
 6.012366e-04  1.598744e-04  0 
 1.069392e-04  2.004519e-06  0 
 8.033967e-04  -2.374359e-04  0 
 6.449872e-05  2.731570e-06  0 
 3.802395e-04  -7.968267e-05  0 
 4.061164e-04  1.599584e-04  0 
 8.287159e-05  2.764304e-06  0 
 1.390767e-04  -1.240299e-05  0 
 1.812336e-04  6.830962e-05  0 
 5.431745e-04  -5.460429e-05  0 
 6.818239e-05  1.523253e-05  0 
 5.353760e-05  -5.489756e-06  0 
 7.719036e-04  2.465305e-05  0 
 2.008489e-04  -3.307452e-05  0 
 2.469226e-04  1.066956e-04  0 
 8.668665e-04  -1.258325e-04  0 
 4.408650e-05  1.559878e-06  0 
 4.293162e-05  -4.354895e-07  0 
 1.552135e-04  5.709248e-05  0 
 3.300301e-04  -2.031030e-05  0 
 4.870779e-04  3.550406e-05  0 
 7.604384e-04  -1.916939e-05  0 
 4.379433e-04  -1.305802e-04  0 
 3.319583e-04  9.032765e-05  0 
 2.048350e-04  2.185576e-06  0 
 7.341019e-04  -7.237275e-05  0 
 2.387036e-04  5.672349e-05  0 
 1.780072e-04  1.398073e-05  0 
 6.459852e-04  7.827655e-05  0 
 6.047300e-04  -2.240820e-04  0 
 4.093509e-04  4.448580e-07  0 
 8.784085e-04  -2.345487e-04  0 
 2.455762e-04  -3.662292e-05  0 
 3.838311e-04  6.262702e-05  0 
 1.883856e-04  -3.152805e-05  0 
 2.788266e-04  1.030571e-04  0 
 2.873175e-04  -7.270637e-05  0 
 4.678293e-04  -7.340870e-05  0 
 2.323525e-04  9.499821e-05  0 
 5.495552e-04  -1.570242e-04  0 
 7.265835e-04  1.031339e-04  0 
 6.281646e-04  -1.155107e-05  0 
 4.406534e-04  9.885754e-05  0 
 1.148015e-04  -1.000173e-05  0 
 3.168403e-04  1.389028e-04  0 
 5.236814e-04  1.399314e-04  0 
 5.418228e-04  7.187159e-05  0 
 6.394140e-04  -1.537008e-04  0 
 1.457095e-04  2.575533e-05  0 
 9.339016e-04  -3.124977e-04  0 
 7.867276e-04  -3.013409e-04  0 
 9.238883e-05  -9.930945e-06  0 
 2.615282e-05  5.987834e-07  0 
 2.666067e-05  -1.091204e-06  0 
VECTORS displacement_ITER3 FLOAT
 0  0  0 
 0  0  0 
 0  0  0 
 0  0  0 
 0  0  0 
 3.385199e-04  8.042959e-05  0 
 1.975325e-04  4.640779e-05  0 
 5.562358e-05  2.096169e-05  0 
 6.540734e-04  1.745575e-04  0 
 6.757792e-04  1.742919e-04  0 
 6.904045e-04  1.643077e-04  0 
 6.783874e-04  1.352934e-04  0 
 6.593921e-04  1.094126e-04  0 
 0  0  0 
 0  0  0 
 0  0  0 
 0  0  0 
 0  0  0 
 0  0  0 
 0  0  0 
 2.934175e-05  7.898024e-06  0 
 1.311912e-05  3.551825e-06  0 
 1.286020e-05  1.274737e-06  0 
 4.106898e-05  8.382242e-06  0 
 6.557250e-04  2.002880e-04  0 
 6.480227e-04  1.120173e-04  0 
 5.964948e-04  1.437940e-04  0 
 5.205274e-04  2.767793e-04  0 
 6.372675e-04  2.238091e-04  0 
 5.538283e-04  2.233464e-05  0 
 6.379610e-04  1.188936e-04  0 
 6.159819e-04  1.964564e-04  0 
 5.748347e-04  1.644041e-04  0 
 6.532969e-04  1.491526e-04  0 
 5.105177e-04  2.540468e-04  0 
 5.389602e-04  1.878130e-04  0 
 7.623083e-04  3.366997e-04  0 
 6.672816e-04  1.804044e-04  0 
 5.896181e-04  1.559696e-04  0 
 5.647178e-04  7.253993e-06  0 
 6.516315e-04  1.122111e-04  0 
 6.131056e-04  1.229091e-04  0 
 5.952760e-04  1.798600e-04  0 
 5.464029e-04  1.058485e-04  0 
 7.254846e-04  1.432998e-04  0 
 3.652436e-04  7.919859e-05  0 
 7.112403e-04  1.384822e-04  0 
 2.114228e-04  4.355536e-05  0 
 7.223081e-04  1.475242e-04  0 
 1.057952e-04  2.930677e-05  0 
 5.294531e-04  1.054979e-04  0 
 6.685315e-04  1.666623e-04  0 
 2.372110e-04  2.098387e-05  0 
 3.033781e-04  5.006050e-05  0 
 4.062886e-04  9.586971e-05  0 
 6.874978e-04  1.437182e-04  0 
 2.098188e-04  1.686291e-05  0 
 1.512288e-04  1.708586e-05  0 
 7.181485e-04  1.521644e-04  0 
 2.671588e-04  6.195500e-05  0 
 4.752982e-04  1.164658e-04  0 
 7.171877e-04  1.574609e-04  0 
 1.170563e-04  3.049998e-06  0 
 9.267354e-05  3.955320e-06  0 
 3.068753e-04  7.855293e-05  0 
 5.377480e-04  1.068820e-04  0 
 6.880314e-04  1.461354e-04  0 
 7.312720e-04  1.628665e-04  0 
 5.140450e-04  9.909730e-05  0 
 5.992927e-04  1.234865e-04  0 
 4.143635e-04  7.625826e-05  0 
 7.267991e-04  1.507257e-04  0 
 4.916724e-04  9.057877e-05  0 
 3.926890e-04  5.174665e-05  0 
 7.274460e-04  1.602429e-04  0 
 6.213426e-04  1.228919e-04  0 
 6.289791e-04  1.286166e-04  0 
 7.103316e-04  1.514675e-04  0 
 4.117410e-04  7.818162e-05  0 
 6.347856e-04  1.302771e-04  0 
 3.194472e-04  6.306210e-05  0 
 5.380443e-04  1.270810e-04  0 
 3.853569e-04  8.271026e-05  0 
 6.292928e-04  1.282036e-04  0 
 4.685158e-04  1.159901e-04  0 
 6.396382e-04  1.221410e-04  0 
 7.073861e-04  1.366402e-04  0 
 7.161116e-04  1.559638e-04  0 
 6.830936e-04  1.433884e-04  0 
 2.803679e-04  3.502572e-05  0 
 5.668380e-04  1.490901e-04  0 
 7.142524e-04  1.585688e-04  0 
 7.084984e-04  1.518256e-04  0 
 7.052621e-04  1.378712e-04  0 
 3.475577e-04  4.188207e-05  0 
 6.890925e-04  1.790982e-04  0 
 7.156787e-04  1.559998e-04  0 
 2.102007e-04  2.247218e-05  0 
 1.000518e-04  2.561607e-06  0 
 3.827596e-05  2.216672e-06  0 
VECTORS displacement_ITER4 FLOAT
 0  0  0 
 0  0  0 
 0  0  0 
 0  0  0 
 0  0  0 
 9.239569e-04  6.673994e-05  0 
 5.793690e-04  4.828191e-05  0 
 1.904656e-04  2.313251e-05  0 
 1.484268e-03  -2.136996e-04  0 
 1.458419e-03  -2.308884e-04  0 
 1.421443e-03  -2.629973e-04  0 
 1.332895e-03  -3.510931e-04  0 
 1.274282e-03  -3.958417e-04  0 
 0  0  0 
 0  0  0 
 0  0  0 
 0  0  0 
 0  0  0 
 0  0  0 
 0  0  0 
 1.430754e-04  2.083637e-05  0 
 8.032548e-05  9.393071e-06  0 
 9.465165e-05  2.501261e-06  0 
 1.732208e-04  2.024334e-05  0 
 1.742173e-03  -2.628691e-04  0 
 1.407195e-03  -3.393532e-04  0 
 1.315612e-03  -3.369597e-04  0 
 1.188056e-03  -1.609177e-04  0 
 1.416360e-03  -2.188236e-04  0 
 1.410307e-03  -3.498438e-04  0 
 1.343667e-03  -3.705067e-04  0 
 1.428580e-03  -2.188646e-04  0 
 1.314679e-03  -3.072806e-04  0 
 1.351677e-03  -3.525169e-04  0 
 1.208959e-03  -1.940011e-04  0 
 1.318996e-03  -2.191705e-04  0 
 2.022080e-03  2.886999e-04  0 
 1.420127e-03  -2.700395e-04  0 
 1.403418e-03  -2.000231e-04  0 
 1.402093e-03  -4.093840e-04  0 
 1.332635e-03  -3.993622e-04  0 
 1.417209e-03  -2.791011e-04  0 
 1.300805e-03  -3.321775e-04  0 
 1.022663e-03  2.370396e-05  0 
 1.579239e-03  -9.297566e-05  0 
 5.475969e-04  8.124842e-05  0 
 1.200552e-03  -2.446197e-04  0 
 4.994484e-04  6.996679e-05  0 
 1.676515e-03  -8.401610e-05  0 
 2.865436e-04  5.672052e-05  0 
 1.165512e-03  3.317391e-05  0 
 1.048122e-03  2.232047e-05  0 
 4.553705e-04  -6.618828e-07  0 
 6.629399e-04  4.121878e-05  0 
 6.683848e-04  7.515069e-05  0 
 1.424775e-03  -1.883933e-05  0 
 3.548214e-04  5.572587e-06  0 
 3.252853e-04  9.307356e-06  0 
 1.381236e-03  -2.465005e-04  0 
 6.890987e-04  7.180036e-05  0 
 6.505670e-04  9.287872e-05  0 
 1.522796e-03  -2.128933e-04  0 
 1.783506e-04  7.289330e-06  0 
 2.270398e-04  8.448158e-06  0 
 4.177186e-04  9.177050e-05  0 
 1.103731e-03  2.962626e-05  0 
 1.320739e-03  -4.174641e-05  0 
 1.450958e-03  -1.697022e-04  0 
 1.220057e-03  4.875385e-05  0 
 1.016852e-03  8.575174e-06  0 
 8.344900e-04  3.342067e-05  0 
 1.499678e-03  -1.525389e-04  0 
 8.663379e-04  3.209483e-05  0 
 7.434516e-04  -5.823044e-06  0 
 1.363071e-03  -1.688595e-04  0 
 1.496693e-03  3.168199e-06  0 
 1.254281e-03  7.338170e-06  0 
 1.633332e-03  -1.518422e-04  0 
 9.030232e-04  3.489404e-05  0 
 1.175111e-03  -1.097021e-05  0 
 7.503803e-04  5.819584e-05  0 
 8.756163e-04  4.715693e-05  0 
 9.324816e-04  6.324902e-05  0 
 1.344759e-03  1.914179e-05  0 
 7.102362e-04  7.810526e-05  0 
 1.452422e-03  5.465410e-06  0 
 1.299561e-03  -3.255335e-04  0 
 1.433653e-03  -1.004429e-04  0 
 1.219386e-03  -4.760389e-05  0 
 5.833799e-04  7.280496e-06  0 
 8.341176e-04  8.321578e-05  0 
 1.240914e-03  -1.045266e-04  0 
 1.320786e-03  -9.784393e-05  0 
 1.557902e-03  -3.002922e-05  0 
 6.128810e-04  4.457672e-06  0 
 1.666467e-03  -7.157267e-05  0 
 1.699076e-03  -5.635020e-05  0 
 4.708001e-04  1.587129e-05  0 
 1.885892e-04  5.357684e-06  0 
 1.116667e-04  5.076126e-06  0 
VECTORS displacement_ITER5 FLOAT
 0  0  0 
 0  0  0 
 0  0  0 
 0  0  0 
 0  0  0 
 8.995580e-04  6.873698e-05  0 
 6.530672e-04  5.073256e-05  0 
 3.022212e-04  2.310633e-05  0 
 1.849875e-03  -2.948688e-05  0 
 1.806139e-03  -6.357644e-05  0 
 1.758018e-03  -9.387935e-05  0 
 1.682703e-03  -1.575122e-04  0 
 1.652245e-03  -1.840079e-04  0 
 0  0  0 
 0  0  0 
 0  0  0 
 0  0  0 
 0  0  0 
 0  0  0 
 0  0  0 
 2.517856e-04  2.629276e-05  0 
 1.526250e-04  1.309502e-05  0 
 1.857673e-04  4.443372e-06  0 
 2.887306e-04  2.532041e-05  0 
 2.546604e-03  -2.434891e-04  0 
 1.835527e-03  -1.286225e-04  0 
 1.860673e-03  -1.458711e-04  0 
 1.941132e-03  -1.738558e-04  0 
 1.898540e-03  -9.629521e-05  0 
 1.950072e-03  -2.135783e-04  0 
 1.804916e-03  -1.563998e-04  0 
 1.902905e-03  -5.190548e-05  0 
 1.947593e-03  -1.423255e-04  0 
 1.789549e-03  -1.655150e-04  0 
 2.010488e-03  -1.962818e-04  0 
 2.076672e-03  -1.039440e-04  0 
 2.623403e-03  2.290390e-04  0 
 1.836258e-03  -1.079504e-04  0 
 2.025280e-03  -4.261240e-05  0 
 1.858493e-03  -2.580315e-04  0 
 1.742994e-03  -1.807602e-04  0 
 1.929189e-03  -8.334699e-05  0 
 1.856241e-03  -1.734317e-04  0 
 1.068426e-03  2.383908e-05  0 
 1.668867e-03  6.681478e-05  0 
 5.467324e-04  7.079343e-05  0 
 1.433785e-03  -1.243761e-04  0 
 5.591369e-04  2.615255e-05  0 
 1.762057e-03  5.760980e-05  0 
 3.864516e-04  3.451151e-05  0 
 1.122812e-03  3.861487e-05  0 
 1.172355e-03  4.885218e-05  0 
 4.819761e-04  -7.604319e-06  0 
 7.090199e-04  9.603840e-06  0 
 7.002212e-04  5.371684e-05  0 
 1.450858e-03  6.810390e-05  0 
 3.647902e-04  4.296899e-06  0 
 3.562023e-04  -4.897731e-06  0 
 1.631131e-03  -7.809719e-05  0 
 7.307855e-04  3.541360e-05  0 
 6.819401e-04  1.039980e-04  0 
 1.775366e-03  -3.647495e-05  0 
 1.790242e-04  8.133432e-06  0 
 2.685644e-04  8.673915e-06  0 
 4.045005e-04  8.680107e-05  0 
 1.109381e-03  2.964343e-05  0 
 1.386782e-03  1.388874e-05  0 
 1.657716e-03  -1.128864e-05  0 
 1.128932e-03  5.733065e-05  0 
 1.090590e-03  2.284078e-05  0 
 8.821979e-04  1.330340e-05  0 
 1.647287e-03  3.521691e-06  0 
 9.055626e-04  2.458066e-05  0 
 7.814905e-04  -4.858272e-06  0 
 1.556392e-03  -2.958254e-05  0 
 1.362898e-03  2.410665e-05  0 
 1.274633e-03  3.964489e-05  0 
 1.845226e-03  2.577380e-05  0 
 9.298894e-04  1.390062e-05  0 
 1.228484e-03  1.295112e-05  0 
 7.861679e-04  1.917087e-05  0 
 9.392840e-04  4.318358e-05  0 
 9.290497e-04  3.841645e-05  0 
 1.304268e-03  6.265102e-05  0 
 7.587579e-04  6.760861e-05  0 
 1.346647e-03  5.646254e-05  0 
 1.567551e-03  -1.539404e-04  0 
 1.557632e-03  1.466523e-05  0 
 1.311951e-03  6.041750e-06  0 
 6.117024e-04  -7.714975e-06  0 
 9.200266e-04  9.008739e-05  0 
 1.414293e-03  -1.265335e-05  0 
 1.455962e-03  -2.101515e-06  0 
 1.541891e-03  8.236073e-05  0 
 6.489696e-04  -1.170080e-06  0 
 1.901508e-03  5.996398e-05  0 
 1.680126e-03  1.115589e-05  0 
 5.042982e-04  3.163864e-06  0 
 1.956556e-04  7.516144e-06  0 
 1.700067e-04  7.829320e-06  0 
VECTORS displacement_ITER6 FLOAT
 0  0  0 
 0  0  0 
 0  0  0 
 0  0  0 
 0  0  0 
 8.794740e-04  4.789771e-05  0 
 6.605119e-04  4.217466e-05  0 
 3.135714e-04  1.954904e-05  0 
 1.805885e-03  4.491361e-06  0 
 1.805786e-03  3.406459e-05  0 
 1.803505e-03  4.792338e-05  0 
 1.768782e-03  3.586883e-05  0 
 1.751972e-03  2.185438e-05  0 
 0  0  0 
 0  0  0 
 0  0  0 
 0  0  0 
 0  0  0 
 0  0  0 
 0  0  0 
 2.744804e-04  2.636144e-05  0 
 1.712240e-04  1.482583e-05  0 
 2.135838e-04  5.991793e-06  0 
 3.039614e-04  2.608444e-05  0 
 2.099841e-03  2.456103e-05  0 
 1.853197e-03  2.538317e-05  0 
 1.972561e-03  2.039603e-05  0 
 1.975386e-03  9.303655e-05  0 
 1.958227e-03  4.826466e-05  0 
 1.973480e-03  -1.753233e-05  0 
 1.901813e-03  1.892234e-05  0 
 1.892270e-03  1.368068e-05  0 
 1.991439e-03  2.945539e-05  0 
 1.902684e-03  2.603323e-05  0 
 1.973161e-03  7.722596e-05  0 
 1.974604e-03  4.002828e-05  0 
 2.137491e-03  1.406233e-04  0 
 1.905176e-03  4.943637e-05  0 
 1.994195e-03  1.034979e-05  0 
 1.904768e-03  4.104664e-06  0 
 1.820558e-03  2.375652e-05  0 
 1.954491e-03  3.791838e-06  0 
 1.987128e-03  3.822026e-05  0 
 9.845085e-04  2.963246e-05  0 
 1.528969e-03  4.794294e-05  0 
 5.143419e-04  6.167621e-05  0 
 1.423198e-03  3.539045e-05  0 
 5.396910e-04  1.794815e-05  0 
 1.595714e-03  2.241031e-05  0 
 3.901371e-04  3.170014e-05  0 
 1.052091e-03  4.330616e-06  0 
 1.121798e-03  8.903925e-05  0 
 4.610905e-04  -5.193695e-06  0 
 6.708548e-04  2.506544e-06  0 
 6.583757e-04  5.125319e-05  0 
 1.319060e-03  4.048499e-05  0 
 3.494922e-04  9.169900e-06  0 
 3.442846e-04  -9.395814e-06  0 
 1.647204e-03  6.067741e-05  0 
 7.159329e-04  1.550147e-05  0 
 6.621251e-04  1.006908e-04  0 
 1.702065e-03  2.738370e-05  0 
 1.735136e-04  8.437680e-06  0 
 2.666617e-04  9.725012e-06  0 
 3.757131e-04  7.337995e-05  0 
 1.026252e-03  1.093530e-05  0 
 1.270596e-03  4.321887e-05  0 
 1.604883e-03  5.712560e-05  0 
 1.066829e-03  1.975767e-05  0 
 1.027568e-03  4.981377e-05  0 
 8.214765e-04  5.894836e-06  0 
 1.558233e-03  4.096641e-05  0 
 8.416554e-04  2.910954e-05  0 
 7.304388e-04  7.493203e-07  0 
 1.496851e-03  7.024215e-05  0 
 1.248148e-03  -1.322808e-06  0 
 1.158139e-03  3.021702e-05  0 
 1.707193e-03  2.102940e-05  0 
 8.749956e-04  -4.328998e-06  0 
 1.126516e-03  4.380956e-05  0 
 7.517876e-04  1.335808e-06  0 
 8.898827e-04  6.297749e-05  0 
 8.883132e-04  7.480390e-06  0 
 1.190372e-03  2.116504e-05  0 
 7.287480e-04  6.963198e-05  0 
 1.232367e-03  1.312411e-05  0 
 1.616683e-03  3.157433e-05  0 
 1.454124e-03  4.797141e-05  0 
 1.210044e-03  5.986985e-05  0 
 5.789244e-04  -1.081775e-05  0 
 8.933555e-04  9.775402e-05  0 
 1.340001e-03  8.008168e-05  0 
 1.358417e-03  6.124525e-05  0 
 1.392840e-03  3.244427e-05  0 
 6.127493e-04  3.188268e-06  0 
 1.749085e-03  2.414960e-05  0 
 1.508176e-03  -1.669623e-05  0 
 4.823602e-04  3.929583e-07  0 
 1.854466e-04  8.680304e-06  0 
 1.737932e-04  8.904513e-06  0 
VECTORS displacement_ITER7 FLOAT
 0  0  0 
 0  0  0 
 0  0  0 
 0  0  0 
 0  0  0 
 9.322316e-04  -7.025135e-06  0 
 6.692590e-04  -1.458936e-06  0 
 3.523826e-04  -2.502048e-06  0 
 1.771626e-03  -3.295322e-05  0 
 1.778256e-03  -2.291732e-06  0 
 1.782346e-03  1.404136e-05  0 
 1.752559e-03  3.539761e-08  0 
 1.748752e-03  -6.242045e-06  0 
 0  0  0 
 0  0  0 
 0  0  0 
 0  0  0 
 0  0  0 
 0  0  0 
 0  0  0 
 3.394123e-04  2.170608e-05  0 
 2.230303e-04  1.423724e-05  0 
 2.849055e-04  7.427943e-06  0 
 3.559752e-04  1.791685e-05  0 
 2.008223e-03  -2.490045e-06  0 
 1.826726e-03  -1.293102e-05  0 
 1.939738e-03  2.917335e-06  0 
 1.975114e-03  1.324627e-05  0 
 1.914476e-03  1.034656e-05  0 
 1.981928e-03  3.830924e-05  0 
 1.874677e-03  2.427318e-06  0 
 1.858419e-03  -1.807814e-05  0 
 1.978293e-03  1.549135e-05  0 
 1.865949e-03  -4.005665e-06  0 
 2.005638e-03  2.128519e-05  0 
 1.986561e-03  6.642463e-06  0 
 1.936695e-03  -6.352292e-05  0 
 1.867571e-03  1.972610e-05  0 
 1.971286e-03  -3.605469e-05  0 
 1.904216e-03  5.110328e-05  0 
 1.806765e-03  3.713615e-07  0 
 1.903141e-03  -2.705621e-05  0 
 1.942491e-03  1.361369e-05  0 
 1.029815e-03  9.148289e-06  0 
 1.557157e-03  -1.136114e-06  0 
 5.047532e-04  2.519531e-05  0 
 1.448489e-03  -3.173822e-05  0 
 5.620185e-04  1.527377e-05  0 
 1.617346e-03  -1.177090e-05  0 
 4.043217e-04  1.937863e-05  0 
 1.123826e-03  1.530102e-05  0 
 1.152625e-03  1.404369e-05  0 
 4.864404e-04  -2.897063e-06  0 
 7.145193e-04  1.189780e-05  0 
 6.745587e-04  1.028027e-05  0 
 1.363178e-03  1.227467e-05  0 
 3.726133e-04  3.819814e-06  0 
 3.583653e-04  -2.788693e-06  0 
 1.650560e-03  1.893586e-05  0 
 7.305042e-04  1.215686e-05  0 
 6.506310e-04  4.584356e-05  0 
 1.686642e-03  -1.486616e-05  0 
 1.805905e-04  8.126274e-06  0 
 2.691605e-04  1.038664e-05  0 
 3.370558e-04  3.657534e-05  0 
 1.080537e-03  1.465209e-05  0 
 1.306108e-03  1.822604e-05  0 
 1.607629e-03  1.193394e-05  0 
 1.153352e-03  1.436220e-05  0 
 1.066567e-03  1.106847e-05  0 
 8.757267e-04  8.845788e-06  0 
 1.575470e-03  -2.565518e-06  0 
 8.687152e-04  2.702653e-06  0 
 7.699746e-04  -1.600165e-06  0 
 1.503190e-03  2.231835e-05  0 
 1.351749e-03  -4.608374e-06  0 
 1.207574e-03  1.468721e-05  0 
 1.692244e-03  -2.169082e-05  0 
 9.293406e-04  1.270170e-05  0 
 1.172731e-03  1.411757e-05  0 
 7.894785e-04  1.529085e-05  0 
 9.177159e-04  1.318707e-05  0 
 9.465413e-04  1.947438e-05  0 
 1.262838e-03  1.475709e-05  0 
 7.428315e-04  1.765032e-05  0 
 1.333625e-03  4.655549e-06  0 
 1.626085e-03  -1.333294e-05  0 
 1.474670e-03  1.359247e-05  0 
 1.250192e-03  1.671421e-05  0 
 6.114744e-04  -1.840430e-06  0 
 9.089391e-04  2.404865e-05  0 
 1.357916e-03  8.253096e-06  0 
 1.378643e-03  2.341670e-05  0 
 1.454240e-03  -1.318096e-06  0 
 6.411637e-04  -3.026234e-06  0 
 1.725875e-03  -3.938066e-06  0 
 1.562060e-03  -1.892695e-05  0 
 5.020329e-04  7.669655e-06  0 
 1.996313e-04  8.243666e-06  0 
 1.852940e-04  9.267488e-06  0 
VECTORS displacement_ITER8 FLOAT
 0  0  0 
 0  0  0 
 0  0  0 
 0  0  0 
 0  0  0 
 8.758146e-04  -6.062601e-06  0 
 6.164248e-04  -2.927799e-06  0 
 3.362083e-04  -2.608162e-06  0 
 1.779693e-03  1.358410e-05  0 
 1.777116e-03  2.449092e-05  0 
 1.771790e-03  3.580008e-05  0 
 1.748529e-03  2.822752e-05  0 
 1.723764e-03  1.711251e-05  0 
 0  0  0 
 0  0  0 
 0  0  0 
 0  0  0 
 0  0  0 
 0  0  0 
 0  0  0 
 3.296650e-04  2.057129e-05  0 
 2.192609e-04  1.433530e-05  0 
 2.806403e-04  8.916620e-06  0 
 3.412235e-04  1.680079e-05  0 
 1.993476e-03  -1.551543e-05  0 
 1.795570e-03  -5.757757e-06  0 
 1.903761e-03  1.979758e-05  0 
 1.958206e-03  2.652272e-05  0 
 1.893291e-03  3.150971e-05  0 
 1.912343e-03  4.727115e-06  0 
 1.843623e-03  2.002434e-05  0 
 1.853911e-03  2.367650e-05  0 
 1.947832e-03  2.147318e-05  0 
 1.846027e-03  2.395443e-05  0 
 1.982924e-03  2.625566e-05  0 
 1.953538e-03  4.147035e-06  0 
 1.922351e-03  -5.247304e-05  0 
 1.848695e-03  3.640645e-05  0 
 1.929451e-03  -2.706166e-05  0 
 1.842651e-03  1.076152e-05  0 
 1.786426e-03  1.559727e-05  0 
 1.861476e-03  -1.569537e-05  0 
 1.918097e-03  2.979362e-05  0 
 9.870760e-04  2.559901e-05  0 
 1.541316e-03  2.462839e-05  0 
 4.990929e-04  2.570963e-05  0 
 1.467579e-03  2.906671e-05  0 
 5.272175e-04  1.360731e-05  0 
 1.593661e-03  2.243462e-05  0 
 3.783999e-04  1.273258e-05  0 
 1.084556e-03  2.953581e-05  0 
 1.106829e-03  4.524652e-05  0 
 4.673428e-04  8.632243e-06  0 
 6.801259e-04  2.137988e-05  0 
 6.488993e-04  2.583320e-05  0 
 1.339351e-03  2.727244e-05  0 
 3.694494e-04  1.453740e-05  0 
 3.352483e-04  3.585507e-06  0 
 1.646104e-03  3.769438e-05  0 
 6.797638e-04  1.278541e-05  0 
 6.496272e-04  4.106695e-05  0 
 1.686224e-03  1.812489e-05  0 
 1.868914e-04  8.546949e-06  0 
 2.471750e-04  1.075093e-05  0 
 3.364027e-04  2.542787e-05  0 
 1.041294e-03  2.819044e-05  0 
 1.280773e-03  3.220208e-05  0 
 1.608923e-03  3.800791e-05  0 
 1.106669e-03  2.770375e-05  0 
 1.022925e-03  3.443056e-05  0 
 8.370923e-04  2.377817e-05  0 
 1.568353e-03  2.308190e-05  0 
 8.301207e-04  2.277750e-05  0 
 7.346219e-04  1.461036e-05  0 
 1.508873e-03  4.159824e-05  0 
 1.307704e-03  1.939018e-05  0 
 1.175532e-03  2.837328e-05  0 
 1.679629e-03  1.689545e-05  0 
 8.885860e-04  2.527173e-05  0 
 1.137270e-03  3.157060e-05  0 
 7.473783e-04  2.273094e-05  0 
 8.811705e-04  3.706037e-05  0 
 9.015453e-04  2.832197e-05  0 
 1.231848e-03  2.977440e-05  0 
 7.217327e-04  3.083372e-05  0 
 1.298950e-03  2.643232e-05  0 
 1.623731e-03  3.281717e-05  0 
 1.466715e-03  3.164455e-05  0 
 1.215645e-03  3.378366e-05  0 
 5.814982e-04  1.246316e-05  0 
 8.828576e-04  3.863500e-05  0 
 1.343872e-03  3.491634e-05  0 
 1.364366e-03  3.815774e-05  0 
 1.427393e-03  2.179673e-05  0 
 6.150875e-04  1.410572e-05  0 
 1.710481e-03  3.714915e-05  0 
 1.528055e-03  2.024218e-05  0 
 4.701389e-04  1.362900e-05  0 
 1.911429e-04  8.456223e-06  0 
 1.762615e-04  9.152323e-06  0 
VECTORS displacement_ITER9 FLOAT
 0  0  0 
 0  0  0 
 0  0  0 
 0  0  0 
 0  0  0 
 8.891754e-04  2.307784e-05  0 
 6.130746e-04  1.454993e-05  0 
 3.341831e-04  5.411231e-06  0 
 1.768641e-03  2.458454e-05  0 
 1.754007e-03  2.270293e-05  0 
 1.738082e-03  3.167868e-05  0 
 1.716179e-03  2.531962e-05  0 
 1.692192e-03  2.417776e-05  0 
 0  0  0 
 0  0  0 
 0  0  0 
 0  0  0 
 0  0  0 
 0  0  0 
 0  0  0 
 3.307180e-04  1.631157e-05  0 
 2.264216e-04  1.189774e-05  0 
 2.937939e-04  9.770961e-06  0 
 3.346447e-04  1.358736e-05  0 
 2.014726e-03  -2.710316e-05  0 
 1.772988e-03  1.254088e-05  0 
 1.883159e-03  1.844016e-05  0 
 1.943868e-03  1.456384e-05  0 
 1.869941e-03  2.083683e-05  0 
 1.905504e-03  1.785527e-05  0 
 1.817323e-03  1.801913e-05  0 
 1.839860e-03  2.602046e-05  0 
 1.929507e-03  1.392526e-05  0 
 1.817660e-03  2.153074e-05  0 
 1.967325e-03  8.722494e-06  0 
 1.946492e-03  2.561473e-06  0 
 1.964450e-03  -8.024890e-06  0 
 1.820230e-03  2.576664e-05  0 
 1.917712e-03  -4.035712e-06  0 
 1.836080e-03  2.804710e-05  0 
 1.756552e-03  1.897319e-05  0 
 1.858159e-03  -7.158895e-08  0 