# vtk DataFile Version 3.1
this is an vtk file created by FEMAC
ASCII
DATASET UNSTRUCTURED_GRID
POINTS 98 FLOAT
6.000000 0.000000 0.000000
5.625000 0.000000 0.000000
5.750000 0.000000 0.000000
5.875000 0.000000 0.000000
6.125000 0.000000 0.000000
6.250000 0.000000 0.000000
6.375000 0.000000 0.000000
6.500000 0.000000 0.000000
6.625000 0.000000 0.000000
6.750000 0.000000 0.000000
6.000000 0.125000 0.000000
6.000000 0.250000 0.000000
6.000000 0.375000 0.000000
6.000000 0.500000 0.000000
6.000000 0.625000 0.000000
6.000000 0.750000 0.000000
6.000000 0.875000 0.000000
6.125000 1.000000 0.000000
6.250000 1.000000 0.000000
6.375000 1.000000 0.000000
6.500000 1.000000 0.000000
6.625000 1.000000 0.000000
6.750000 1.000000 0.000000
5.736189 0.229332 0.000000
5.881110 0.150703 0.000000
5.633635 0.155319 0.000000
5.891498 0.593094 0.000000
5.637186 0.313697 0.000000
5.749449 0.094006 0.000000
5.859304 0.437638 0.000000
5.837969 0.707108 0.000000
5.869629 0.294081 0.000000
5.765924 0.342310 0.000000
5.926876 0.697130 0.000000
5.939027 0.068926 0.000000
6.499670 0.360742 0.000000
6.683260 0.615166 0.000000
6.329100 0.631666 0.000000
6.261618 0.222520 0.000000
6.736189 0.229332 0.000000
6.119756 0.143088 0.000000
6.727313 0.436804 0.000000
6.491129 0.224019 0.000000
6.271117 0.415027 0.000000
6.633635 0.155319 0.000000
6.395662 0.123278 0.000000
6.592252 0.458586 0.000000
6.438266 0.470739 0.000000
6.891498 0.593094 0.000000
6.366265 0.330237 0.000000
6.107131 0.562061 0.000000
6.637186 0.313697 0.000000
6.194422 0.795291 0.000000
6.766097 0.808510 0.000000
6.749449 0.094006 0.000000
6.250436 0.093427 0.000000
6.859304 0.437638 0.000000
6.802033 0.526864 0.000000
6.425921 0.863568 0.000000
6.198668 0.496653 0.000000
6.232589 0.600604 0.000000
6.126171 0.698464 0.000000
6.773622 0.614167 0.000000
6.508481 0.733243 0.000000
6.721623 0.704716 0.000000
6.262054 0.704572 0.000000
6.703193 0.533077 0.000000
6.837969 0.707108 0.000000
6.765924 0.342310 0.000000
6.238755 0.322620 0.000000
6.123091 0.311752 0.000000
6.618786 0.562197 0.000000
6.371958 0.723587 0.000000
6.617558 0.672824 0.000000
6.531402 0.584172 0.000000
6.291032 0.816412 0.000000
6.639225 0.786646 0.000000
6.319630 0.521262 0.000000
6.558179 0.884881 0.000000
6.354596 0.426703 0.000000
6.182427 0.400480 0.000000
6.061189 0.067022 0.000000
6.185857 0.898777 0.000000
6.529085 0.100523 0.000000
6.094825 0.825839 0.000000
6.101886 0.440991 0.000000
6.305981 0.912675 0.000000
6.377971 0.226595 0.000000
6.081137 0.919923 0.000000
6.416473 0.610778 0.000000
6.692654 0.898395 0.000000
6.260206 1.085342 0.000000
6.669231 1.114967 0.000000
6.118583 1.148751 0.000000
6.563480 1.074919 0.000000
6.478016 1.110908 0.000000
6.806832 1.149347 0.000000
6.574852 1.181867 0.000000
CELLS 157 628 
3 24 10 11
3 23 28 24
3 27 25 23
3 2  3 28
3 3 24 28
3 28  1  2
3 1 28 25
3 28 23 25
3 26 13 14
3 26 29 13
3 23 32 27
3 32 23 31
3 15 33 14
3 33 26 14
3 29 12 13
3 33 30 26
3 24 31 23
3 31 24 11
3 12 31 11
3 12 29 31
3 31 29 32
3 34  3  0
3 34 10 24
3 10 34  0
3 3 34 24
3 10 40 11
3 35 49 42
3 51 35 42
3 55 38 40
3 46 47 35
3 51 46 35
3 41 46 51
3 51 44 39
3 42 44 51
3 4  5 55
3 40  4 55
3 54  8  9
3 8 54 44
3 54 39 44
3 6 55  5
3 55  6 45
3 38 55 45
3 13 50 14
3 48 57 56
3 57 41 56
3 60 50 59
3 61 50 60
3 48 62 57
3 64 36 62
3 37 65 60
3 66 41 57
3 41 66 46
3 48 67 62
3 39 68 51
3 68 41 51
3 43 69 49
3 69 38 49
3 70 40 38
3 40 70 11
3 71 46 66
3 36 71 66
3 36 73 71
3 74 46 71
3 69 70 38
3 19 58 20
3 66 62 36
3 57 62 66
3 61 65 52
3 61 60 65
3 64 67 53
3 64 62 67
3 71 73 74
3 65 75 52
3 76 64 53
3 14 50 61
3 74 47 46
3 60 77 37
3 43 77 59
3 60 59 77
3 61 15 14
3 20 78 21
3 78 20 58
3 79 43 49
3 79 47 77
3 43 79 77
3 59 80 43
3 4 81  0
3 10 81 40
3 81 10  0
3 81  4 40
3 80 69 43
3 68 56 41
3 74 73 63
3 12 11 70
3 70 69 80
3 63 78 58
3 63 76 78
3 83  7  8
3 44 83  8
3 84 52 82
3 85 13 12
3 18 86 19
3 45 87 38
3 49 87 42
3 87 49 38
3 87 45 42
3 17 88 82
3 86 58 19
3 75 58 86
3 70 85 12
3 70 80 85
3 84 88 16
3 84 82 88
3 13 85 50
3 59 85 80
3 85 59 50
3 15 84 16
3 84 15 61
3 52 84 61
3 18 17 82
3 86 18 82
3 52 75 82
3 75 86 82
3 72 63 58
3 58 75 72
3 42 83 44
3 83 42 45
3 36 64 73
3 76 63 73
3 73 64 76
3 37 89 72
3 89 37 77
3 76 90 78
3 90 21 78
3 90 22 21
3 89 63 72
3 74 63 89
3 89 47 74
3 77 47 89
3 65 37 72
3 65 72 75
3 7 45  6
3 45  7 83
3 79 35 47
3 49 35 79
3 76 53 90
3 92 21 22
3 91 17 18
3 93 17 91
3 19 91 18
3 94 20 21
3 92 94 21
3 20 95 19
3 97 94 92
3 20 94 95
3 95 94 97
3 96 92 22
CELL_TYPES 157
5 5 5 5 5 5 5 5 5 5 5 5 5 5 5 5 5 5 5 5 5 5 5 5 5 5 5 5 5 5 5 5 5 5 5 5 5 5 5 5 5 5 5 5 5 5 5 5 5 5 5 5 5 5 5 5 5 5 5 5 5 5 5 5 5 5 5 5 5 5 5 5 5 5 5 5 5 5 5 5 5 5 5 5 5 5 5 5 5 5 5 5 5 5 5 5 5 5 5 5 5 5 5 5 5 5 5 5 5 5 5 5 5 5 5 5 5 5 5 5 5 5 5 5 5 5 5 5 5 5 5 5 5 5 5 5 5 5 5 5 5 5 5 5 5 5 5 5 5 5 5 5 5 5 5 5 5 
POINT_DATA 98
VECTORS displacement_ITER1 FLOAT
 0  0  0 
 0  0  0 
 0  0  0 
 0  0  0 
 0  0  0 
 0  0  0 
 0  0  0 
 0  0  0 
 0  0  0 
 0  0  0 
 5.531386e-06  7.218381e-07  0 
 1.331611e-05  2.754199e-06  0 
 2.793085e-05  7.016270e-06  0 
 4.630924e-05  1.021387e-05  0 
 6.937154e-05  1.363608e-05  0 
 9.199091e-05  1.730956e-05  0 
 1.093100e-04  2.428430e-05  0 
 1.214555e-04  1.979776e-05  0 
 1.181664e-04  3.546803e-06  0 
 1.156771e-04  -6.868823e-06  0 
 1.151958e-04  -2.082204e-05  0 
 1.158255e-04  -3.338368e-05  0 
 1.172226e-04  -4.669606e-05  0 
 2.381485e-05  6.333436e-06  0 
 9.030654e-06  2.490703e-06  0 
 1.965820e-05  6.268332e-06  0 
 6.667333e-05  2.070858e-05  0 
 3.669469e-05  1.242933e-05  0 
 7.591812e-06  2.648189e-07  0 
 4.062724e-05  1.621141e-05  0 
 9.300055e-05  3.933917e-05  0 
 2.314008e-05  9.920854e-06  0 
 3.279280e-05  1.207528e-05  0 
 8.468713e-05  2.109446e-05  0 
 3.258708e-06  2.347430e-07  0 
 3.138717e-05  -8.554057e-06  0 
 6.920306e-05  -3.225275e-05  0 
 6.366093e-05  -7.001483e-06  0 
 1.010764e-05  -3.868408e-07  0 
 2.564618e-05  -1.196085e-05  0 
 5.074025e-06  6.704048e-07  0 
 5.119499e-05  -2.852174e-05  0 
 1.399352e-05  -2.755915e-06  0 
 3.155250e-05  -3.986304e-06  0 
 1.166818e-05  -6.213486e-06  0 
 4.218684e-06  -4.153806e-07  0 
 4.710617e-05  -1.702461e-05  0 
 4.290855e-05  -1.006015e-05  0 
 7.358709e-05  -4.775600e-05  0 
 2.286552e-05  -3.621915e-06  0 
 5.528887e-05  5.309603e-06  0 
 3.077987e-05  -1.351333e-05  0 
 8.950421e-05  5.011818e-06  0 
 9.169439e-05  -4.417962e-05  0 
 1.241049e-05  -1.526685e-06  0 
 2.622790e-06  -8.302349e-08  0 
 6.113537e-05  -3.640188e-05  0 
 6.368457e-05  -3.951499e-05  0 
 9.658784e-05  -1.299957e-05  0 
 4.332194e-05  -1.798087e-06  0 
 5.988238e-05  -3.156188e-06  0 
 7.920114e-05  6.994402e-06  0 
 7.201762e-05  -4.052523e-05  0 
 7.836898e-05  -2.027532e-05  0 
 7.900172e-05  -3.847467e-05  0 
 7.611464e-05  -2.504012e-06  0 
 6.014216e-05  -3.093534e-05  0 
 8.166741e-05  -4.754079e-05  0 
 4.442228e-05  -2.308421e-05  0 
 1.990102e-05  -1.727170e-06  0 
 1.699969e-05  1.432844e-06  0 
 6.029487e-05  -2.383150e-05  0 
 7.678463e-05  -7.981959e-06  0 
 7.285787e-05  -2.886034e-05  0 
 5.883929e-05  -1.866681e-05  0 
 8.952576e-05  -2.083779e-06  0 
 8.692625e-05  -3.308288e-05  0 
 4.749418e-05  -7.221690e-06  0 
 1.001291e-04  -2.597270e-05  0 
 3.511232e-05  -6.268473e-06  0 
 2.885398e-05  -1.068993e-06  0 
 2.645479e-06  2.089576e-08  0 
 1.040628e-04  9.224565e-06  0 
 4.102779e-06  -6.702033e-07  0 
 9.735590e-05  1.479503e-05  0 
 3.532167e-05  4.197350e-06  0 
 1.051052e-04  -2.801079e-06  0 
 1.245744e-05  -1.989827e-06  0 
 1.118312e-04  2.039381e-05  0 
 5.991125e-05  -1.156724e-05  0 
 1.029252e-04  -3.930856e-05  0 
 1.295983e-04  4.368150e-06  0 
 1.293899e-04  -3.933535e-05  0 
 1.479814e-04  2.844703e-05  0 
 1.237940e-04  -2.759609e-05  0 
 1.282369e-04  -1.801075e-05  0 
 1.342902e-04  -5.372209e-05  0 
 1.376199e-04  -2.924516e-05  0 
VECTORS displacement_ITER2 FLOAT
 0  0  0 
 0  0  0 
 0  0  0 
 0  0  0 
 0  0  0 
 0  0  0 
 0  0  0 
 0  0  0 
 0  0  0 
 0  0  0 
 1.696475e-05  -2.843254e-06  0 
 4.585970e-05  -3.650091e-06  0 
 1.005705e-04  2.051565e-06  0 
 1.837427e-04  -1.571740e-07  0 
 2.783103e-04  9.933315e-07  0 
 3.524673e-04  4.896263e-06  0 
 4.193341e-04  2.451885e-05  0 
 4.386368e-04  3.172226e-05  0 
 4.155499e-04  -8.077201e-06  0 
 3.947786e-04  -1.948898e-05  0 
 3.813085e-04  -4.085492e-05  0 
 3.687433e-04  -5.444368e-05  0 
 3.478783e-04  -5.002176e-05  0 
 6.817807e-05  2.119718e-05  0 
 2.300883e-05  8.098419e-06  0 
 5.773352e-05  2.038191e-05  0 
 2.574244e-04  3.742800e-05  0 
 1.123763e-04  4.473416e-05  0 
 2.081674e-05  1.020203e-06  0 
 1.403992e-04  4.188584e-05  0 
 3.338741e-04  6.696438e-05  0 
 7.279879e-05  2.676975e-05  0 
 1.037609e-04  3.610766e-05  0 
 3.241552e-04  2.366287e-05  0 
 7.668798e-06  9.394237e-07  0 
 1.475507e-04  -3.562795e-05  0 
 2.645972e-04  -8.830345e-05  0 
 2.651565e-04  -4.493736e-05  0 
 5.141641e-05  -6.765130e-06  0 
 1.155746e-04  -4.086457e-05  0 
 2.296388e-05  -1.970855e-06  0 
 2.092405e-04  -8.636405e-05  0 
 7.638855e-05  -1.367392e-05  0 
 1.453629e-04  -3.691527e-05  0 
 6.081217e-05  -2.155542e-05  0 
 2.813286e-05  -3.499229e-06  0 
 2.002441e-04  -5.597412e-05  0 
 1.886668e-04  -4.625006e-05  0 
 2.599263e-04  -1.145206e-04  0 
 1.133035e-04  -2.617756e-05  0 
 2.305559e-04  -2.270514e-05  0 
 1.423417e-04  -4.556480e-05  0 
 3.509030e-04  -1.992125e-05  0 
 3.046611e-04  -9.269826e-05  0 
 5.534468e-05  -6.120193e-06  0 
 1.626184e-05  -7.478876e-07  0 
 2.328135e-04  -9.812189e-05  0 
 2.408120e-04  -1.082612e-04  0 
 3.572855e-04  -4.174528e-05  0 
 1.879514e-04  -3.827973e-05  0 
 2.514033e-04  -4.296160e-05  0 
 3.168475e-04  -2.043280e-05  0 
 2.631364e-04  -1.091794e-04  0 
 3.016709e-04  -6.419257e-05  0 
 2.835794e-04  -9.478373e-05  0 
 3.062963e-04  -3.840660e-05  0 
 2.348340e-04  -9.174709e-05  0 
 2.746247e-04  -1.117054e-04  0 
 1.827450e-04  -7.091435e-05  0 
 9.099165e-05  -2.162187e-05  0 
 6.889947e-05  -1.115504e-05  0 
 2.430832e-04  -6.853778e-05  0 
 3.051090e-04  -4.089800e-05  0 
 2.790082e-04  -7.659975e-05  0 
 2.436172e-04  -6.436186e-05  0 
 3.459511e-04  -2.995832e-05  0 
 3.113078e-04  -7.458686e-05  0 
 2.064522e-04  -4.662454e-05  0 
 3.520998e-04  -5.771565e-05  0 
 1.599239e-04  -3.902829e-05  0 
 1.270978e-04  -2.751478e-05  0 
 1.017438e-05  -2.653647e-07  0 
 3.893066e-04  -4.907914e-06  0 
 2.708841e-05  -3.734639e-06  0 
 3.763097e-04  -2.862073e-06  0 
 1.462690e-04  -1.676340e-05  0 
 3.843245e-04  -2.590155e-05  0 
 6.615705e-05  -1.470469e-05  0 
 4.219757e-04  1.967070e-05  0 
 2.508042e-04  -5.251425e-05  0 
 3.436668e-04  -6.998795e-05  0 
 4.551183e-04  4.143537e-06  0 
 3.623859e-04  -3.466027e-05  0 
 5.536664e-04  8.769147e-05  0 
 3.793452e-04  -4.066557e-05  0 
 3.904802e-04  -2.589844e-05  0 
 3.513221e-04  -3.834732e-05  0 
 3.727329e-04  -2.583626e-05  0 
VECTORS displacement_ITER3 FLOAT
 0  0  0 
 0  0  0 
 0  0  0 
 0  0  0 
 0  0  0 
 0  0  0 
 0  0  0 
 0  0  0 
 0  0  0 
 0  0  0 
 4.301460e-05  -1.346063e-05  0 
 1.019203e-04  -3.380231e-05  0 
 1.680265e-04  -5.228171e-05  0 
 2.671269e-04  -8.322260e-05  0 
 3.499506e-04  -1.059989e-04  0 
 3.724833e-04  -1.280044e-04  0 
 4.045430e-04  -1.342169e-04  0 
 3.850274e-04  -8.490154e-05  0 
 3.734029e-04  -6.178578e-05  0 
 3.633047e-04  -1.635692e-05  0 
 3.513256e-04  1.928807e-05  0 
 3.325348e-04  7.428066e-05  0 
 2.790919e-04  1.867834e-04  0 
 6.274958e-05  9.370343e-07  0 
 3.734806e-05  -3.639976e-06  0 
 4.013055e-05  6.524850e-06  0 
 3.125396e-04  -8.184910e-05  0 
 9.618760e-05  1.129513e-05  0 
 2.005618e-05  -1.005468e-07  0 
 1.857512e-04  -3.345250e-05  0 
 2.893590e-04  -2.159676e-04  0 
 1.086251e-04  -1.818671e-05  0 
 1.227074e-04  -1.446682e-05  0 
 3.500252e-04  -1.204675e-04  0 
 1.802703e-05  -2.277949e-07  0 
 2.378782e-04  -1.359000e-05  0 
 3.209538e-04  2.730522e-05  0 
 3.561785e-04  -4.439813e-05  0 
 1.273235e-04  -1.209360e-05  0 
 1.579780e-04  -1.684223e-05  0 
 6.924585e-05  -9.803487e-06  0 
 2.556801e-04  2.367024e-06  0 
 1.497662e-04  -8.753213e-06  0 
 2.565377e-04  -5.217957e-05  0 
 1.074178e-04  -9.107667e-06  0 
 7.690123e-05  -4.654273e-06  0 
 2.774928e-04  -3.469004e-06  0 
 2.860808e-04  -2.291563e-05  0 
 2.747584e-04  4.742482e-05  0 
 2.136772e-04  -2.755509e-05  0 
 3.254158e-04  -9.102457e-05  0 
 2.092070e-04  -1.230154e-05  0 
 3.936506e-04  -7.712467e-05  0 
 3.367135e-04  8.325534e-05  0 
 7.308756e-05  -6.095802e-06  0 
 5.206456e-05  -1.407773e-06  0 
 2.390039e-04  1.273080e-05  0 
 2.737832e-04  1.990406e-05  0 
 3.870041e-04  -1.188951e-05  0 
 2.953575e-04  -7.150021e-05  0 
 3.442618e-04  -6.726568e-05  0 
 3.800039e-04  -9.263466e-05  0 
 3.012808e-04  2.979028e-05  0 
 3.731405e-04  -8.469297e-08  0 
 3.343433e-04  4.895974e-05  0 
 3.800007e-04  -6.099134e-05  0 
 2.887486e-04  1.169472e-05  0 
 3.027479e-04  6.062991e-05  0 
 2.098491e-04  -5.850346e-06  0 
 1.834410e-04  -3.608459e-05  0 
 1.511471e-04  -3.671547e-05  0 
 3.146333e-04  1.384545e-05  0 
 3.790500e-04  -3.052439e-05  0 
 3.460341e-04  2.763538e-05  0 
 3.320338e-04  -7.525746e-06  0 
 3.907147e-04  -4.985613e-05  0 
 3.647037e-04  5.084311e-05  0 
 3.097279e-04  -4.548321e-05  0 
 3.735905e-04  2.962543e-05  0 
 2.653724e-04  -3.553333e-05  0 
 2.311463e-04  -5.445123e-05  0 
 2.880861e-05  -5.518339e-07  0 
 3.881384e-04  -8.015019e-05  0 
 6.501621e-05  -2.694009e-06  0 
 3.928933e-04  -1.143199e-04  0 
 2.429051e-04  -7.060430e-05  0 
 3.864634e-04  -4.586249e-05  0 
 1.417503e-04  -1.607321e-05  0 
 4.001285e-04  -1.105385e-04  0 
 3.467554e-04  -2.561594e-05  0 
 3.529748e-04  8.949957e-05  0 
 3.664267e-04  -5.290694e-05  0 
 2.423689e-04  1.616450e-04  0 
 4.320257e-04  -3.662418e-05  0 
 3.124636e-04  5.833115e-05  0 
 3.107491e-04  2.260610e-05  0 
 1.782551e-04  2.822383e-04  0 
 2.187533e-04  1.024072e-04  0 
VECTORS displacement_ITER4 FLOAT
 0  0  0 
 0  0  0 
 0  0  0 
 0  0  0 
 0  0  0 
 0  0  0 
 0  0  0 
 0  0  0 
 0  0  0 
 0  0  0 
 1.190464e-04  -2.059116e-05  0 
 2.794389e-04  -5.074874e-05  0 
 4.528287e-04  -7.258304e-05  0 
 6.488450e-04  -9.038132e-05  0 
 8.141365e-04  -1.417263e-04  0 
 9.335153e-04  -1.878571e-04  0 
 1.043433e-03  -2.204714e-04  0 
 1.082334e-03  -1.685951e-04  0 
 1.088535e-03  -1.134666e-04  0 
 1.096329e-03  -3.618217e-05  0 
 1.076453e-03  -1.089120e-06  0 
 1.034157e-03  6.092857e-05  0 
 9.405398e-04  1.934899e-04  0 
 2.151692e-04  3.139598e-06  0 
 1.251163e-04  -6.927344e-06  0 
 1.423140e-04  2.207435e-05  0 
 7.311905e-04  -8.652103e-05  0 
 3.465886e-04  5.751587e-05  0 
 7.150274e-05  -1.957538e-06  0 
 5.406010e-04  -3.209164e-05  0 
 7.435770e-04  -3.639552e-04  0 
 3.222620e-04  -2.573916e-05  0 
 3.890659e-04  -1.409298e-05  0 
 8.573655e-04  -1.566203e-04  0 
 5.804560e-05  -1.697771e-06  0 
 5.283693e-04  -4.733343e-05  0 
 7.986205e-04  -5.277197e-05  0 
 8.654414e-04  -7.036229e-05  0 
 2.879795e-04  -1.629588e-05  0 
 3.675118e-04  -7.127029e-05  0 
 1.653789e-04  -1.397610e-05  0 
 6.215718e-04  -9.105271e-05  0 
 3.193726e-04  -2.066926e-05  0 
 5.674096e-04  -6.540095e-05  0 
 2.344001e-04  -3.895658e-05  0 
 1.595015e-04  -8.214720e-06  0 
 6.481554e-04  -6.149018e-05  0 
 6.551594e-04  -6.021100e-05  0 
 7.230524e-04  -7.195119e-05  0 
 4.608935e-04  -4.165491e-05  0 
 7.667821e-04  -1.052191e-04  0 
 4.752117e-04  -6.701335e-05  0 
 1.008252e-03  -1.213525e-04  0 
 9.053231e-04  1.416203e-05  0 
 1.753121e-04  -1.788627e-05  0 
 1.136020e-04  -2.757051e-06  0 
 6.251488e-04  -1.035458e-04  0 
 6.949825e-04  -1.000636e-04  0 
 1.047428e-03  -3.757928e-05  0 
 6.772112e-04  -8.515216e-05  0 
 8.310703e-04  -9.031048e-05  0 
 9.207745e-04  -1.330598e-04  0 
 7.683396e-04  -8.504927e-05  0 
 9.363342e-04  -4.606685e-05  0 
 8.562899e-04  -3.520608e-05  0 
 9.353923e-04  -8.938984e-05  0 
 7.100834e-04  -8.204204e-05  0 
 7.978968e-04  -4.767681e-05  0 
 5.191611e-04  -8.814880e-05  0 
 4.211682e-04  -4.241943e-05  0 
 3.818673e-04  -4.758955e-05  0 
 7.629094e-04  -4.943248e-05  0 
 9.436173e-04  -5.420712e-05  0 
 8.597020e-04  -3.397117e-05  0 
 7.953878e-04  -6.643254e-05  0 
 1.020391e-03  -7.375186e-05  0 
 9.499162e-04  -3.545842e-06  0 
 7.222929e-04  -7.324548e-05  0 
 1.033142e-03  -5.913761e-06  0 
 5.939354e-04  -6.131053e-05  0 
 5.262670e-04  -6.292468e-05  0 
 7.248760e-05  -9.557377e-07  0 
 1.063768e-03  -1.334234e-04  0 
 1.332119e-04  -5.750346e-06  0 
 1.019109e-03  -1.750005e-04  0 
 5.702596e-04  -7.979654e-05  0 
 1.078724e-03  -7.175990e-05  0 
 3.095706e-04  -2.475589e-05  0 
 1.069467e-03  -1.884905e-04  0 
 8.342170e-04  -6.127528e-05  0 
 9.933069e-04  5.420529e-05  0 
 1.095623e-03  -1.155863e-04  0 
 9.456606e-04  1.907210e-04  0 
 1.034759e-03  -2.233014e-04  0 
 1.039897e-03  5.468915e-05  0 
 1.046888e-03  5.709547e-06  0 
 9.171480e-04  2.405147e-04  0 
 9.275416e-04  1.190091e-04  0 
VECTORS displacement_ITER5 FLOAT
 0  0  0 
 0  0  0 
 0  0  0 
 0  0  0 
 0  0  0 
 0  0  0 
 0  0  0 
 0  0  0 
 0  0  0 
 0  0  0 
 1.630839e-04  -1.445748e-05  0 
 3.629517e-04  -3.211065e-05  0 
 5.820603e-04  -2.578658e-05  0 
 8.184344e-04  -2.508336e-05  0 
 1.024549e-03  -2.218717e-05  0 
 1.151138e-03  -2.695042e-05  0 
 1.223525e-03  -5.901547e-05  0 
 1.283470e-03  -2.458477e-05  0 
 1.312466e-03  -1.238959e-05  0 
 1.337607e-03  -4.936261e-06  0 
 1.349834e-03  -3.987640e-05  0 
 1.355945e-03  -3.298115e-05  0 
 1.338290e-03  1.066748e-05  0 
 3.548678e-04  2.584825e-05  0 
 1.899144e-04  -2.338358e-06  0 
 2.540885e-04  5.204496e-05  0 
 9.821440e-04  1.612326e-05  0 
 5.366023e-04  1.004491e-04  0 
 1.181457e-04  -2.845056e-06  0 
 7.101931e-04  3.502641e-05  0 
 1.111189e-03  3.895361e-05  0 
 4.558818e-04  1.391712e-05  0 
 5.570714e-04  3.150791e-05  0 
 1.100810e-03  -6.904575e-06  0 
 8.548186e-05  -2.100960e-06  0 
 5.596215e-04  -1.288995e-05  0 
 9.143990e-04  -1.176702e-05  0 
 9.744758e-04  -6.820493e-06  0 
 3.313235e-04  -1.121213e-05  0 
 3.632313e-04  -5.746467e-05  0 
 2.030197e-04  -9.013953e-06  0 
 6.341377e-04  -4.256547e-05  0 
 3.381208e-04  -1.374962e-05  0 
 6.583622e-04  -3.249517e-05  0 
 2.445955e-04  -3.587442e-05  0 
 1.772616e-04  -6.016876e-06  0 
 6.918117e-04  -2.334219e-05  0 
 7.206139e-04  -4.304659e-06  0 
 8.559709e-04  -9.886251e-05  0 
 5.159777e-04  -1.754439e-05  0 
 9.145141e-04  -2.529335e-05  0 
 4.744159e-04  -5.098228e-05  0 
 1.182265e-03  4.255788e-06  0 
 1.205853e-03  -2.044755e-05  0 
 1.776446e-04  -1.800953e-05  0 
 1.324904e-04  -3.731722e-06  0 
 6.277478e-04  -9.046355e-05  0 
 7.638061e-04  -6.670559e-05  0 
 1.232646e-03  -3.616130e-07  0 
 7.945297e-04  -3.312774e-05  0 
 9.413797e-04  -1.178849e-05  0 
 1.096658e-03  -1.132655e-06  0 
 9.030352e-04  -4.672465e-05  0 
 1.098089e-03  2.034797e-06  0 
 1.050749e-03  -1.711783e-05  0 
 1.086585e-03  -4.884752e-07  0 
 7.856185e-04  -2.524145e-05  0 
 1.037911e-03  -6.362956e-05  0 
 4.969022e-04  -5.591796e-05  0 
 4.932832e-04  -2.506987e-05  0 
 4.643735e-04  -2.283827e-05  0 
 8.435679e-04  -1.381867e-05  0 
 1.087781e-03  9.601401e-06  0 
 1.003151e-03  -6.383623e-06  0 
 8.858307e-04  -1.036523e-05  0 
 1.185521e-03  1.784788e-05  0 
 1.176571e-03  -1.022298e-05  0 
 8.107663e-04  -1.454510e-05  0 
 1.269631e-03  -2.618940e-05  0 
 6.688527e-04  -1.675320e-05  0 
 6.319274e-04  -3.178074e-05  0 
 9.274842e-05  -1.512378e-06  0 
 1.242900e-03  8.728300e-06  0 
 1.435995e-04  -3.869678e-06  0 
 1.212241e-03  -4.635654e-06  0 
 7.045304e-04  -3.029346e-05  0 
 1.267525e-03  7.274286e-06  0 
 3.402348e-04  -1.181658e-05  0 
 1.238534e-03  -1.921145e-05  0 
 9.350713e-04  5.702532e-06  0 
 1.290926e-03  -2.026549e-05  0 
 1.338058e-03  -3.398238e-05  0 
 1.408787e-03  -4.635819e-06  0 
 1.322914e-03  -6.771151e-05  0 
 1.401636e-03  -4.326113e-05  0 
 1.421941e-03  -5.062734e-05  0 
 1.450663e-03  -1.066805e-05  0 
 1.446272e-03  -3.642385e-05  0 
VECTORS displacement_ITER6 FLOAT
 0  0  0 
 0  0  0 
 0  0  0 
 0  0  0 
 0  0  0 
 0  0  0 
 0  0  0 
 0  0  0 
 0  0  0 
 0  0  0 
 2.548392e-04  -5.365592e-06  0 
 5.163035e-04  -5.556941e-06  0 
 7.950044e-04  3.095185e-05  0 
 1.050878e-03  5.705164e-05  0 
 1.267789e-03  8.353401e-05  0 
 1.412004e-03  9.361068e-05  0 
 1.535554e-03  9.210990e-05  0 
 1.617201e-03  1.153900e-04  0 
 1.618976e-03  5.848633e-05  0 
 1.621317e-03  3.083054e-05  0 
 1.618483e-03  -1.682872e-05  0 
 1.608203e-03  -9.313032e-06  0 
 1.577778e-03  2.901483e-05  0 
 5.697022e-04  3.969104e-05  0 
 3.137703e-04  2.060026e-06  0 
 4.184155e-04  7.246601e-05  0 
 1.243970e-03  1.115091e-04  0 
 8.043826e-04  1.158582e-04  0 
 2.029966e-04  -5.367664e-06  0 
 9.623274e-04  1.019289e-04  0 
 1.388861e-03  1.496774e-04  0 
 6.687290e-04  5.651515e-05  0 
 8.051579e-04  6.895459e-05  0 
 1.362816e-03  1.092732e-04  0 
 1.403049e-04  -2.298303e-06  0 
 7.010188e-04  -5.939115e-06  0 
 1.132209e-03  -9.531397e-06  0 
 1.190488e-03  2.287859e-05  0 
 4.360910e-04  -2.856883e-06  0 
 4.531019e-04  -5.534260e-05  0 
 2.884607e-04  -2.988962e-06  0 
 7.953759e-04  -3.233128e-05  0 
 4.266532e-04  -9.509013e-06  0 
 8.221390e-04  -1.249168e-06  0 
 3.056728e-04  -3.190434e-05  0 
 2.321314e-04  -1.859511e-06  0 
 8.632757e-04  -1.712356e-05  0 
 8.993483e-04  9.282132e-06  0 
 1.076516e-03  -7.620637e-05  0 
 6.508092e-04  3.223471e-06  0 
 1.133953e-03  5.795017e-05  0 
 5.964727e-04  -4.722277e-05  0 
 1.437418e-03  8.012165e-05  0 
 1.433508e-03  -1.253037e-05  0 
 2.106398e-04  -1.958988e-05  0 
 1.826101e-04  -4.563417e-06  0 
 7.823151e-04  -7.154020e-05  0 
 9.582521e-04  -4.706922e-05  0 
 1.487591e-03  1.608168e-05  0 
 9.888192e-04  1.735673e-05  0 
 1.152626e-03  4.063688e-05  0 
 1.336486e-03  9.303721e-05  0 
 1.125984e-03  -3.113996e-05  0 
 1.334775e-03  7.558683e-06  0 
 1.282484e-03  -1.367905e-05  0 
 1.320608e-03  4.641069e-05  0 
 9.832096e-04  -1.582375e-05  0 
 1.273792e-03  -4.328471e-05  0 
 6.233228e-04  -4.814436e-05  0 
 6.417340e-04  -3.680186e-06  0 
 6.237973e-04  4.803771e-06  0 
 1.044953e-03  -1.106502e-05  0 
 1.325249e-03  3.054579e-05  0 
 1.232447e-03  -5.900259e-06  0 
 1.092234e-03  9.422962e-08  0 
 1.440167e-03  5.710562e-05  0 
 1.411624e-03  -8.270896e-06  0 
 1.000702e-03  1.524124e-05  0 
 1.517178e-03  -1.566385e-05  0 
 8.333711e-04  8.241159e-06  0 
 8.058044e-04  2.338420e-06  0 
 1.365495e-04  -2.866880e-06  0 
 1.524163e-03  9.351169e-05  0 
 1.865195e-04  -2.868225e-06  0 
 1.480182e-03  1.058199e-04  0 
 9.082807e-04  3.235640e-05  0 
 1.540920e-03  4.876531e-05  0 
 4.371539e-04  6.062952e-07  0 
 1.554736e-03  1.176995e-04  0 
 1.145393e-03  1.938523e-05  0 
 1.524069e-03  -7.942141e-06  0 
 1.693962e-03  4.860384e-05  0 
 1.659301e-03  2.711709e-05  0 
 1.823276e-03  1.583413e-04  0 
 1.659937e-03  -1.201999e-05  0 
 1.687215e-03  -1.431935e-05  0 
 1.658742e-03  5.894148e-05  0 
 1.701840e-03  1.135372e-06  0 
VECTORS displacement_ITER7 FLOAT
 0  0  0 
 0  0  0 
 0  0  0 
 0  0  0 
 0  0  0 
 0  0  0 
 0  0  0 
 0  0  0 
 0  0  0 
 0  0  0 
 2.617446e-04  -1.000319e-05  0 
 5.179935e-04  -2.620451e-05  0 
 7.594348e-04  -2.099603e-05  0 
 9.724402e-04  -2.526505e-05  0 
 1.151135e-03  -3.773340e-05  0 
 1.292683e-03  -5.515708e-05  0 
 1.430287e-03  -7.249417e-05  0 
 1.529473e-03  -4.371658e-05  0 
 1.528572e-03  -4.605578e-05  0 
 1.532363e-03  -1.423481e-05  0 
 1.525050e-03  -4.975841e-06  0 
 1.513361e-03  1.469870e-05  0 
 1.516026e-03  -2.984129e-06  0 
 4.896913e-04  -7.374261e-06  0 
 3.048736e-04  -1.646207e-05  0 
 3.309058e-04  2.635351e-05  0 
 1.101991e-03  -3.408272e-05  0 
 6.553652e-04  6.725139e-06  0 
 1.808029e-04  -7.070071e-06  0 
 8.710618e-04  -1.291456e-05  0 
 1.217390e-03  -8.641373e-05  0 
 6.221546e-04  -1.275061e-05  0 
 7.115376e-04  -2.318242e-05  0 
 1.228086e-03  -5.100595e-05  0 
 1.428091e-04  -3.971225e-06  0 
 7.263203e-04  -1.265043e-05  0 
 1.116151e-03  5.749151e-06  0 
 1.158923e-03  -1.862364e-05  0 
 4.613172e-04  -7.422155e-06  0 
 4.752875e-04  -2.932374e-05  0 
 3.074702e-04  -1.118531e-05  0 
 8.323101e-04  7.312743e-06  0 
 4.604141e-04  -6.438186e-06  0 
 8.190228e-04  -1.782265e-05  0 
 3.241510e-04  -1.041670e-05  0 
 2.592894e-04  -2.199854e-06  0 
 8.842148e-04  -1.109607e-05  0 
 9.109677e-04  -1.373494e-05  0 
 1.083709e-03  3.781470e-05  0 
 6.684279e-04  -6.756063e-06  0 
 1.066934e-03  -2.036204e-05  0 
 6.368702e-04  -1.811822e-05  0 
 1.355277e-03  -3.288271e-05  0 
 1.346022e-03  2.407453e-05  0 
 2.016024e-04  -1.743022e-05  0 
 2.028177e-04  -4.915937e-06  0 
 8.029717e-04  1.985126e-05  0 
 9.765543e-04  3.254575e-05  0 
 1.418028e-03  -1.213738e-05  0 
 9.600248e-04  -1.934546e-05  0 
 1.115994e-03  -1.713819e-05  0 
 1.245187e-03  -2.493796e-05  0 
 1.112101e-03  2.707200e-05  0 
 1.280525e-03  -8.845078e-06  0 
 1.227824e-03  1.677253e-05  0 
 1.257136e-03  -2.335120e-05  0 
 9.957257e-04  9.299945e-06  0 
 1.228309e-03  3.278642e-05  0 
 6.576739e-04  -8.859326e-06  0 
 6.532725e-04  -1.427271e-05  0 
 6.324050e-04  -1.782251e-05  0 
 1.043566e-03  -7.077931e-06  0 
 1.275501e-03  -1.438617e-05  0 
 1.196628e-03  -5.027566e-06  0 
 1.081536e-03  -1.032405e-05  0 
 1.374236e-03  -2.222892e-05  0 
 1.327871e-03  3.860058e-06  0 
 9.923825e-04  -1.712012e-05  0 
 1.429172e-03  -7.339476e-07  0 
 8.385224e-04  -1.182412e-05  0 
 7.949525e-04  -2.010493e-05  0 
 1.421932e-04  -3.268996e-06  0 
 1.447471e-03  -4.030853e-05  0 
 2.096047e-04  -2.805506e-06  0 
 1.381524e-03  -4.483721e-05  0 
 8.721792e-04  -1.736550e-05  0 
 1.465985e-03  -2.627488e-05  0 
 4.669737e-04  -4.496151e-06  0 
 1.469505e-03  -4.884028e-05  0 
 1.124921e-03  -1.539700e-05  0 
 1.427048e-03  1.370953e-05  0 
 1.561125e-03  -5.104653e-05  0 
 1.604972e-03  1.575735e-06  0 
 1.647472e-03  -9.263683e-06  0 
 1.564155e-03  7.199413e-06  0 
 1.586082e-03  -7.104674e-06  0 
 1.678552e-03  -8.206908e-05  0 
 1.655151e-03  -5.841193e-06  0 
VECTORS displacement_ITER8 FLOAT
 0  0  0 
 0  0  0 
 0  0  0 
 0  0  0 
 0  0  0 
 0  0  0 
 0  0  0 
 0  0  0 
 0  0  0 
 0  0  0 
 2.748112e-04  -6.514345e-06  0 
 5.323605e-04  -1.246395e-05  0 
 7.760245e-04  -2.946869e-06  0 
 9.837074e-04  -7.310009e-06  0 
 1.172955e-03  -1.938968e-05  0 
 1.337392e-03  -2.600650e-05  0 
 1.485759e-03  -1.784550e-05  0 
 1.601249e-03  6.688386e-06  0 
 1.583653e-03  -2.418501e-06  0 
 1.570199e-03  1.395304e-05  0 
 1.562216e-03  1.206341e-05  0 
 1.556895e-03  2.757453e-05  0 
 1.547392e-03  3.460871e-05  0 
 5.199130e-04  -6.980822e-06  0 
 3.295167e-04  -9.011315e-06  0 
 3.581350e-04  1.363851e-05  0 
 1.120941e-03  -1.429443e-05  0 
 6.726134e-04  -1.990535e-05  0 
 2.041767e-04  -7.094187e-06  0 
 8.842296e-04  2.846775e-07  0 
 1.292427e-03  1.104510e-05  0 
 6.414965e-04  2.066382e-06  0 
 7.281235e-04  -1.686556e-05  0 
 1.270931e-03  -2.562953e-05  0 
 1.513578e-04  -3.445923e-06  0 
 7.220121e-04  -1.045137e-05  0 
 1.110129e-03  7.052900e-06  0 
 1.171241e-03  -1.803557e-06  0 
 4.632708e-04  -4.950332e-06  0 
 4.688636e-04  -1.779338e-05  0 
 3.124331e-04  -6.732966e-06  0 
 8.382127e-04  -7.350478e-07  0 
 4.585660e-04  -6.787532e-06  0 
 8.257567e-04  -6.208681e-06  0 
 3.212943e-04  -3.679629e-06  0 
 2.593053e-04  -2.026460e-06  0 
 8.830730e-04  -5.934586e-06  0 
 9.157153e-04  -7.166590e-06  0 
 1.072669e-03  2.064609e-05  0 
 6.677041e-04  -2.982675e-06  0 
 1.082405e-03  -3.387443e-06  0 
 6.316165e-04  -9.120932e-06  0 
 1.378831e-03  -5.948265e-06  0 
 1.361990e-03  2.396227e-05  0 
 1.925752e-04  -1.539795e-05  0 
 2.034877e-04  -4.757783e-06  0 
 8.221457e-04  1.362076e-05  0 
 9.722005e-04  1.608835e-05  0 
 1.439672e-03  1.009262e-05  0 
 9.750116e-04  -4.244925e-06  0 
 1.131831e-03  -2.844264e-06  0 
 1.270605e-03  -5.167195e-06  0 
 1.099018e-03  1.032385e-05  0 
 1.293986e-03  1.423852e-05  0 
 1.224372e-03  1.681756e-05  0 
 1.273853e-03  -3.381454e-06  0 
 9.876798e-04  8.341182e-07  0 
 1.215198e-03  1.271175e-05  0 
 6.662910e-04  -7.976234e-06  0 
 6.587028e-04  -5.731900e-06  0 
 6.432521e-04  -5.889208e-06  0 
 1.041278e-03  1.025535e-06  0 
 1.291372e-03  3.286362e-06  0 
 1.196074e-03  9.282898e-06  0 
 1.082889e-03  8.908954e-08  0 
 1.397205e-03  -2.112440e-06  0 
 1.346307e-03  2.274037e-05  0 
 1.007222e-03  -3.728925e-06  0 
 1.456365e-03  1.911031e-05  0 
 8.428571e-04  -4.141002e-06  0 
 8.038222e-04  -6.528097e-06  0 
 1.470069e-04  -3.850701e-06  0 
 1.489993e-03  -6.310676e-06  0 
 2.107450e-04  -3.291389e-06  0 
 1.416434e-03  -8.562722e-06  0 
 8.851868e-04  1.432560e-06  0 
 1.497586e-03  -7.128086e-08  0 
 4.668511e-04  -2.501922e-06  0 
 1.526877e-03  -1.968096e-06  0 
 1.135827e-03  2.052929e-06  0 
 1.460769e-03  2.863025e-05  0 
 1.637230e-03  4.265949e-06  0 
 1.628832e-03  3.558151e-05  0 
 1.710087e-03  3.146178e-05  0 
 1.606402e-03  1.865496e-05  0 
 1.632492e-03  1.293689e-05  0 
 1.644081e-03  3.858605e-05  0 
 1.673899e-03  1.839385e-05  0 
VECTORS displacement_ITER9 FLOAT
 0  0  0 
 0  0  0 
 0  0  0 
 0  0  0 
 0  0  0 
 0  0  0 
 0  0  0 
 0  0  0 
 0  0  0 
 0  0  0 
 2.751270e-04  -6.166839e-06  0 
 5.315547e-04  -1.017456e-05  0 
 7.792820e-04  -3.928436e-06  0 
 9.839922e-04  -5.633016e-06  0 
 1.168119e-03  -1.376967e-05  0 
 1.331369e-03  -2.030256e-05  0 
 1.469883e-03  -1.646691e-05  0 
 1.579811e-03  5.207250e-06  0 
 1.568177e-03  5.657311e-06  0 
 1.560000e-03  1.715974e-05  0 
 1.555878e-03  1.054800e-05  0 
 1.553403e-03  1.757425e-05  0 
 1.547553e-03  1.372791e-05  0 
 5.179908e-04  -6.360994e-06  0 
 3.320631e-04  -6.365521e-06  0 
 3.603135e-04  6.344158e-06  0 
 1.120982e-03  -1.345570e-05  0 
 6.702714e-04  -2.374719e-05  0 
 2.094346e-04  -6.653371e-06  0 
 8.889814e-04  -2.549337e-06  0 
 1.288485e-03  8.914842e-06  0 
 6.374901e-04  2.993867e-06  0 
 7.245252e-04  -1.371064e-05  0 
 1.265692e-03  -1.940613e-05  0 
 1.515784e-04  -3.200520e-06  0 
 7.170854e-04  -9.169468e-06  0 
 1.101234e-03  4.309776e-06  0 
 1.162476e-03  1.992672e-06  0 