# vtk DataFile Version 3.1
this is an vtk file created by FEMAC
ASCII
DATASET UNSTRUCTURED_GRID
POINTS 98 FLOAT
7.000000 0.000000 0.000000
8.000000 0.000000 0.000000
7.000000 1.000000 0.000000
6.750000 0.000000 0.000000
6.875000 0.000000 0.000000
7.125000 0.000000 0.000000
7.250000 0.000000 0.000000
7.375000 0.000000 0.000000
7.500000 0.000000 0.000000
7.625000 0.000000 0.000000
7.750000 0.000000 0.000000
7.875000 0.000000 0.000000
6.750000 1.000000 0.000000
6.875000 1.000000 0.000000
7.000000 0.125000 0.000000
7.000000 0.250000 0.000000
7.000000 0.375000 0.000000
7.000000 0.500000 0.000000
7.000000 0.625000 0.000000
7.000000 0.750000 0.000000
7.000000 0.875000 0.000000
7.125000 1.000000 0.000000
8.000000 0.125000 0.000000
8.000000 0.250000 0.000000
8.000000 0.375000 0.000000
8.000000 0.500000 0.000000
8.000000 0.625000 0.000000
6.736189 0.229332 0.000000
6.881110 0.150703 0.000000
6.817421 0.910332 0.000000
6.891498 0.593094 0.000000
6.766097 0.808510 0.000000
6.749449 0.094006 0.000000
6.859304 0.437638 0.000000
6.904915 0.810446 0.000000
6.837969 0.707108 0.000000
6.869629 0.294081 0.000000
6.765924 0.342310 0.000000
6.926876 0.697130 0.000000
6.922907 0.918710 0.000000
6.692654 0.898395 0.000000
6.939027 0.068926 0.000000
6.806832 1.149347 0.000000
6.919830 1.091111 0.000000
7.499670 0.360742 0.000000
7.683260 0.615166 0.000000
7.329100 0.631666 0.000000
7.261618 0.222520 0.000000
7.736189 0.229332 0.000000
7.119756 0.143088 0.000000
7.881110 0.150703 0.000000
7.727313 0.436804 0.000000
7.491129 0.224019 0.000000
7.271117 0.415027 0.000000
7.633635 0.155319 0.000000
7.395662 0.123278 0.000000
7.592252 0.458586 0.000000
7.438266 0.470739 0.000000
7.891498 0.593094 0.000000
7.366265 0.330237 0.000000
7.107131 0.562061 0.000000
7.637186 0.313697 0.000000
7.194422 0.795291 0.000000
7.749449 0.094006 0.000000
7.250436 0.093427 0.000000
7.859304 0.437638 0.000000
7.802033 0.526864 0.000000
7.425921 0.863568 0.000000
7.198668 0.496653 0.000000
7.232589 0.600604 0.000000
7.126171 0.698464 0.000000
7.773622 0.614167 0.000000
7.508481 0.733243 0.000000
7.721623 0.704716 0.000000
7.262054 0.704572 0.000000
7.703193 0.533077 0.000000
7.869629 0.294081 0.000000
7.765924 0.342310 0.000000
7.238755 0.322620 0.000000
7.123091 0.311752 0.000000
7.618786 0.562197 0.000000
7.371958 0.723587 0.000000
7.617558 0.672824 0.000000
7.531402 0.584172 0.000000
7.291032 0.816412 0.000000
7.639225 0.786646 0.000000
7.319630 0.521262 0.000000
7.354596 0.426703 0.000000
7.182427 0.400480 0.000000
7.061189 0.067022 0.000000
7.185857 0.898777 0.000000
7.529085 0.100523 0.000000
7.094825 0.825839 0.000000
7.101886 0.440991 0.000000
7.377971 0.226595 0.000000
7.081137 0.919923 0.000000
7.416473 0.610778 0.000000
7.939027 0.068926 0.000000
CELLS 157 628 
3 28 14 15
3 27 32 28
3 3  4 32
3 4 28 32
3 30 17 18
3 12 29 13
3 30 33 17
3 34 19 20
3 37 27 36
3 19 38 18
3 38 30 18
3 13 39  2
3 39 20  2
3 39 13 29
3 39 34 20
3 29 34 39
3 33 16 17
3 38 35 30
3 38 19 34
3 31 34 29
3 31 35 34
3 34 35 38
3 28 36 27
3 36 28 15
3 16 36 15
3 16 33 36
3 36 33 37
3 31 29 40
3 12 40 29
3 41  4  0
3 41 14 28
3 14 41  0
3 4 41 28
3 43 13  2
3 13 42 12
3 43 42 13
3 14 49 15
3 50 22 23
3 44 59 52
3 61 44 52
3 48 63 50
3 64 47 49
3 56 57 44
3 61 56 44
3 51 56 61
3 61 54 48
3 52 54 61
3 5  6 64
3 49  5 64
3 10 11 63
3 11 50 63
3 63  9 10
3 9 63 54
3 63 48 54
3 7 64  6
3 64  7 55
3 47 64 55
3 58 25 26
3 17 60 18
3 58 65 25
3 58 66 65
3 66 51 65
3 69 60 68
3 70 60 69
3 58 71 66
3 73 45 71
3 46 74 69
3 75 51 66
3 51 75 56
3 48 77 61
3 77 51 61
3 77 48 76
3 53 78 59
3 78 47 59
3 79 49 47
3 49 79 15
3 80 56 75
3 45 80 75
3 45 82 80
3 83 56 80
3 78 79 47
3 65 24 25
3 75 71 45
3 66 71 75
3 70 74 62
3 70 69 74
3 80 82 83
3 74 84 62
3 18 60 70
3 83 57 56
3 50 76 48
3 76 50 23
3 24 76 23
3 69 86 46
3 53 86 68
3 69 68 86
3 70 19 18
3 87 53 59
3 87 57 86
3 53 87 86
3 68 88 53
3 5 89  0
3 14 89 49
3 89 14  0
3 89  5 49
3 88 78 53
3 24 65 76
3 77 65 51
3 76 65 77
3 83 82 72
3 16 15 79
3 79 78 88
3 91  8  9
3 54 91  9
3 92 62 90
3 93 17 16
3 55 94 47
3 59 94 52
3 94 59 47
3 94 55 52
3 20 95  2
3 21 95 90
3 95 21  2
3 79 93 16
3 79 88 93
3 92 95 20
3 92 90 95
3 17 93 60
3 68 93 88
3 93 68 60
3 19 92 20
3 92 19 70
3 62 92 70
3 62 84 90
3 81 72 67
3 67 84 81
3 52 91 54
3 91 52 55
3 45 73 82
3 85 72 82
3 82 73 85
3 46 96 81
3 96 46 86
3 96 72 81
3 83 72 96
3 96 57 83
3 86 57 96
3 74 46 81
3 74 81 84
3 8 55  7
3 55  8 91
3 87 44 57
3 59 44 87
3 97 11  1
3 97 22 50
3 22 97  1
3 11 97 50
CELL_TYPES 157
5 5 5 5 5 5 5 5 5 5 5 5 5 5 5 5 5 5 5 5 5 5 5 5 5 5 5 5 5 5 5 5 5 5 5 5 5 5 5 5 5 5 5 5 5 5 5 5 5 5 5 5 5 5 5 5 5 5 5 5 5 5 5 5 5 5 5 5 5 5 5 5 5 5 5 5 5 5 5 5 5 5 5 5 5 5 5 5 5 5 5 5 5 5 5 5 5 5 5 5 5 5 5 5 5 5 5 5 5 5 5 5 5 5 5 5 5 5 5 5 5 5 5 5 5 5 5 5 5 5 5 5 5 5 5 5 5 5 5 5 5 5 5 5 5 5 5 5 5 5 5 5 5 5 5 5 5 
POINT_DATA 98
VECTORS displacement_ITER1 FLOAT
 0  0  0 
 0  0  0 
 1.323651e-05  4.905502e-06  0 
 0  0  0 
 0  0  0 
 0  0  0 
 0  0  0 
 0  0  0 
 0  0  0 
 0  0  0 
 0  0  0 
 0  0  0 
 1.439296e-05  1.003162e-05  0 
 1.393892e-05  7.596549e-06  0 
 5.458275e-07  1.952521e-07  0 
 1.165798e-06  6.694547e-07  0 
 2.372841e-06  1.363017e-06  0 
 3.334959e-06  2.338114e-06  0 
 5.099013e-06  2.961673e-06  0 
 7.251209e-06  3.478683e-06  0 
 1.026810e-05  4.383326e-06  0 
 1.266985e-05  3.060341e-06  0 
 2.043822e-06  -9.344660e-07  0 
 2.852758e-06  -2.029695e-06  0 
 3.935868e-06  -2.747975e-06  0 
 4.903768e-06  -3.346017e-06  0 
 6.420590e-06  -4.116848e-06  0 
 2.850377e-06  9.008689e-07  0 
 1.154759e-06  4.900834e-07  0 
 1.208212e-05  8.353732e-06  0 
 5.229069e-06  4.032009e-06  0 
 1.029048e-05  8.802917e-06  0 
 1.152155e-06  1.126336e-07  0 
 3.984880e-06  2.677491e-06  0 
 9.411625e-06  5.769136e-06  0 
 7.671689e-06  6.505772e-06  0 
 2.354939e-06  1.571340e-06  0 
 3.634849e-06  1.887061e-06  0 
 6.665757e-06  4.288215e-06  0 
 1.163780e-05  6.062425e-06  0 
 1.241940e-05  1.059181e-05  0 
 3.616931e-07  4.968308e-08  0 
 1.786943e-05  9.480654e-06  0 
 1.600313e-05  7.141607e-06  0 
 1.551775e-06  -4.752425e-07  0 
 4.945213e-06  -1.974152e-06  0 
 4.594976e-06  -2.303181e-07  0 
 4.291594e-07  7.175508e-08  0 
 1.191594e-06  -5.021197e-07  0 
 2.800044e-07  1.210772e-07  0 
 1.204692e-06  -4.963683e-07  0 
 3.148215e-06  -1.550473e-06  0 
 5.157044e-07  -1.146762e-07  0 
 1.584704e-06  2.126156e-07  0 
 3.887304e-07  -1.866076e-07  0 
 1.149817e-07  4.256028e-09  0 
 2.812347e-06  -1.023444e-06  0 
 2.528056e-06  -5.874552e-07  0 
 5.383420e-06  -2.836175e-06  0 
 1.025691e-06  -3.448424e-08  0 
 3.767850e-06  1.641958e-06  0 
 1.540070e-06  -6.202966e-07  0 
 7.516828e-06  1.166558e-06  0 
 3.734830e-07  -2.164719e-08  0 
 9.095068e-08  1.020952e-08  0 
 3.777121e-06  -1.971205e-06  0 
 4.347065e-06  -2.209304e-06  0 
 8.312759e-06  -7.137473e-07  0 
 2.632411e-06  6.463207e-07  0 
 4.119812e-06  4.903808e-07  0 
 5.875964e-06  1.783432e-06  0 
 5.140386e-06  -2.442269e-06  0 
 6.007337e-06  -1.353516e-06  0 
 5.948080e-06  -2.367811e-06  0 
 5.787535e-06  3.195812e-07  0 
 4.027684e-06  -1.856772e-06  0 
 2.517265e-06  -1.275556e-06  0 
 2.454655e-06  -1.196719e-06  0 
 1.080748e-06  2.513503e-07  0 
 1.195720e-06  4.935872e-07  0 
 4.149240e-06  -1.464273e-06  0 
 5.939495e-06  -4.595573e-07  0 
 5.424456e-06  -1.782817e-06  0 
 4.148455e-06  -1.192762e-06  0 
 7.682735e-06  2.929136e-07  0 
 6.789771e-06  -2.044942e-06  0 
 2.952567e-06  -1.475360e-07  0 
 1.848281e-06  -1.698044e-07  0 
 1.558907e-06  5.257573e-07  0 
 1.924315e-07  -1.175603e-08  0 
 9.882890e-06  1.524739e-06  0 
 1.317661e-07  -3.631538e-08  0 
 8.424668e-06  2.582595e-06  0 
 2.215903e-06  1.297884e-06  0 
 4.883947e-07  -1.363722e-08  0 
 1.099231e-05  3.326382e-06  0 
 4.286553e-06  -7.716827e-07  0 
 7.234456e-07  -1.783667e-08  0 
VECTORS displacement_ITER2 FLOAT
 0  0  0 
 0  0  0 
 3.243962e-04  1.383742e-04  0 
 0  0  0 
 0  0  0 
 0  0  0 
 0  0  0 
 0  0  0 
 0  0  0 
 0  0  0 
 0  0  0 
 0  0  0 
 3.384897e-04  1.724745e-04  0 
 3.374250e-04  1.651779e-04  0 
 2.126588e-05  4.276605e-06  0 
 4.646225e-05  1.554032e-05  0 
 8.607675e-05  3.353208e-05  0 
 1.218796e-04  5.732051e-05  0 
 1.722590e-04  7.475772e-05  0 
 2.253044e-04  9.500468e-05  0 
 2.818051e-04  1.226100e-04  0 
 3.075344e-04  1.133415e-04  0 
 4.633028e-05  -1.960192e-05  0 
 6.739760e-05  -4.113562e-05  0 
 9.257307e-05  -5.404068e-05  0 
 1.123417e-04  -6.312408e-05  0 
 1.217079e-04  -6.095754e-05  0 
 8.715995e-05  2.489653e-05  0 
 3.774463e-05  1.189314e-05  0 
 3.168589e-04  1.671893e-04  0 
 1.749184e-04  9.668051e-05  0 
 2.830188e-04  1.753149e-04  0 
 3.443190e-05  3.523744e-06  0 
 1.311193e-04  6.640428e-05  0 
 2.736272e-04  1.355201e-04  0 
 2.377417e-04  1.466243e-04  0 
 8.019239e-05  3.893111e-05  0 
 1.156115e-04  4.862998e-05  0 
 2.149814e-04  1.041607e-04  0 
 3.064543e-04  1.458435e-04  0 
 3.108226e-04  1.836907e-04  0 
 1.310246e-05  1.090480e-06  0 
 3.425336e-04  1.693162e-04  0 
 3.394497e-04  1.654429e-04  0 
 5.325445e-05  -5.652733e-06  0 
 1.235109e-04  -2.785296e-05  0 
 1.367120e-04  1.450912e-05  0 
 2.461597e-05  1.717531e-06  0 
 3.490044e-05  -9.006357e-06  0 
 1.616123e-05  3.370627e-06  0 
 3.083245e-05  -9.038504e-06  0 
 8.173401e-05  -2.845808e-05  0 
 2.366623e-05  -2.360930e-06  0 
 6.664094e-05  8.028935e-06  0 
 1.682258e-05  -3.372524e-06  0 
 9.991586e-06  9.446291e-08  0 
 7.990608e-05  -1.322477e-05  0 
 8.129750e-05  -3.218739e-06  0 
 1.214645e-04  -5.164119e-05  0 
 4.487950e-05  1.880852e-06  0 
 1.332634e-04  4.682693e-05  0 
 4.604517e-05  -1.045483e-05  0 
 2.111207e-04  5.718731e-05  0 
 1.265205e-05  -4.629438e-07  0 
 7.818339e-06  7.768420e-08  0 
 9.261261e-05  -3.614245e-05  0 
 1.032035e-04  -3.985203e-05  0 
 2.098424e-04  2.040598e-05  0 
 9.798537e-05  2.092628e-05  0 
 1.334453e-04  2.533862e-05  0 
 1.837168e-04  6.032099e-05  0 
 1.223207e-04  -3.998635e-05  0 
 1.558809e-04  -5.835361e-06  0 
 1.412805e-04  -3.120210e-05  0 
 1.695974e-04  3.135559e-05  0 
 1.010688e-04  -3.039351e-05  0 
 6.326888e-05  -2.375828e-05  0 
 6.446055e-05  -2.223217e-05  0 
 4.761868e-05  7.086188e-06  0 
 5.088334e-05  1.370194e-05  0 
 1.086688e-04  -1.801024e-05  0 
 1.641466e-04  1.741787e-05  0 
 1.369547e-04  -2.005520e-05  0 
 1.127405e-04  -1.071773e-05  0 
 2.056955e-04  4.016551e-05  0 
 1.627053e-04  -1.840477e-05  0 
 9.831078e-05  7.248245e-06  0 
 6.893214e-05  2.797380e-06  0 
 6.730743e-05  1.534264e-05  0 
 9.212327e-06  -2.262512e-07  0 
 2.586758e-04  7.463528e-05  0 
 8.834046e-06  -8.326235e-07  0 
 2.391756e-04  8.898303e-05  0 
 8.775106e-05  3.409915e-05  0 
 2.457974e-05  9.880219e-07  0 
 2.871932e-04  1.107911e-04  0 
 1.223064e-04  8.546903e-07  0 
 1.712349e-05  -3.557495e-07  0 
VECTORS displacement_ITER3 FLOAT
 0  0  0 
 0  0  0 
 2.526779e-04  5.217772e-05  0 
 0  0  0 
 0  0  0 
 0  0  0 
 0  0  0 
 0  0  0 
 0  0  0 
 0  0  0 
 0  0  0 
 0  0  0 
 2.794536e-04  5.129996e-06  0 
 2.652714e-04  2.145761e-05  0 
 4.120959e-05  5.028019e-07  0 
 8.999624e-05  1.578494e-06  0 
 1.388232e-04  8.417178e-06  0 
 1.776418e-04  1.827290e-05  0 
 2.042951e-04  2.317121e-05  0 
 2.246688e-04  2.863820e-05  0 
 2.394933e-04  3.514910e-05  0 
 2.374430e-04  5.840150e-05  0 
 4.916790e-05  -1.985205e-05  0 
 7.497825e-05  -3.746984e-05  0 
 1.067141e-04  -4.190709e-05  0 
 1.363101e-04  -4.560165e-05  0 
 1.542750e-04  -4.543665e-05  0 
 9.308709e-05  1.295449e-05  0 
 5.201485e-05  1.156351e-06  0 
 2.587474e-04  3.802919e-06  0 
 2.009323e-04  1.830632e-05  0 
 2.277751e-04  4.809763e-06  0 
 3.491352e-05  3.278487e-06  0 
 1.696281e-04  1.417086e-05  0 
 2.355723e-04  1.716936e-05  0 
 2.199150e-04  1.661488e-05  0 
 1.150590e-04  7.438009e-06  0 
 1.385617e-04  1.490882e-05  0 
 2.185369e-04  1.954909e-05  0 
 2.537926e-04  2.670892e-05  0 
 2.560404e-04  9.115474e-06  0 
 2.313447e-05  -1.721835e-07  0 
 2.884596e-04  2.767391e-05  0 
 2.673528e-04  4.204472e-05  0 
 1.011263e-04  8.746900e-06  0 
 1.558126e-04  7.652531e-06  0 
 1.810609e-04  3.133732e-05  0 
 7.084930e-05  7.146110e-07  0 
 5.803417e-05  -5.408968e-07  0 
 4.670825e-05  -3.182761e-08  0 
 3.825757e-05  -4.572738e-06  0 
 1.179373e-04  -3.442865e-06  0 
 6.082007e-05  3.282213e-06  0 
 1.296018e-04  1.216386e-05  0 
 3.933664e-05  3.094576e-06  0 
 3.702732e-05  5.556464e-07  0 
 1.250477e-04  1.156638e-05  0 
 1.360888e-04  1.555909e-05  0 
 1.499667e-04  -2.680782e-05  0 
 9.830743e-05  9.524745e-06  0 
 1.857615e-04  2.561701e-05  0 
 8.200892e-05  5.700272e-06  0 
 2.171046e-04  4.521656e-05  0 
 2.152967e-05  -2.958504e-07  0 
 2.944364e-05  -3.465529e-07  0 
 1.175489e-04  -1.256074e-05  0 
 1.328715e-04  -7.148312e-06  0 
 2.011797e-04  5.124296e-05  0 
 1.588077e-04  1.993176e-05  0 
 1.845602e-04  2.941736e-05  0 
 2.106992e-04  3.452426e-05  0 
 1.504241e-04  -2.811272e-06  0 
 1.789483e-04  2.939280e-05  0 
 1.586402e-04  1.091763e-05  0 
 2.003768e-04  3.926130e-05  0 
 1.370470e-04  9.220864e-07  0 
 8.181225e-05  -9.654270e-06  0 
 9.199477e-05  -5.782560e-06  0 
 1.037045e-04  6.291244e-06  0 
 1.077944e-04  5.298108e-06  0 
 1.480048e-04  1.269730e-05  0 
 1.918048e-04  4.067635e-05  0 
 1.648804e-04  1.547194e-05  0 
 1.546283e-04  1.958498e-05  0 
 2.091351e-04  5.127696e-05  0 
 1.685095e-04  2.404149e-05  0 
 1.545857e-04  1.950501e-05  0 
 1.279658e-04  1.475383e-05  0 
 1.320921e-04  1.169604e-05  0 
 2.186293e-05  -1.370038e-08  0 
 2.234450e-04  5.467378e-05  0 
 2.814073e-05  6.734976e-07  0 
 2.280459e-04  4.013971e-05  0 
 1.513137e-04  1.519113e-05  0 
 6.637570e-05  4.938215e-06  0 
 2.339734e-04  4.721998e-05  0 
 1.663780e-04  2.448891e-05  0 
 1.864679e-05  -2.156586e-07  0 
VECTORS displacement_ITER4 FLOAT
 0  0  0 
 0  0  0 
 1.003155e-03  5.440049e-05  0 
 0  0  0 
 0  0  0 
 0  0  0 
 0  0  0 
 0  0  0 
 0  0  0 
 0  0  0 
 0  0  0 
 0  0  0 
 9.931434e-04  6.535392e-05  0 
 1.001270e-03  5.946040e-05  0 
 1.237888e-04  -2.088110e-07  0 
 2.674148e-04  4.605911e-06  0 
 4.356451e-04  2.917699e-05  0 
 5.882324e-04  5.126447e-05  0 
 7.234410e-04  5.827536e-05  0 
 8.324873e-04  5.713848e-05  0 
 9.239736e-04  5.400804e-05  0 
 1.013517e-03  2.289676e-05  0 
 2.843537e-04  -1.176140e-04  0 
 4.138458e-04  -2.369739e-04  0 
 5.773175e-04  -2.942811e-04  0 
 7.172725e-04  -3.391912e-04  0 
 8.541259e-04  -3.792997e-04  0 
 3.063569e-04  5.666301e-05  0 
 1.597541e-04  1.393796e-05  0 
 9.415410e-04  6.862043e-05  0 
 6.960683e-04  8.782449e-05  0 
 8.546384e-04  9.070562e-05  0 
 1.163638e-04  1.188753e-05  0 
 5.398751e-04  8.124293e-05  0 
 8.746941e-04  7.139882e-05  0 
 7.927579e-04  9.557680e-05  0 
 3.570113e-04  5.208891e-05  0 
 4.394028e-04  7.758233e-05  0 
 7.874773e-04  7.492766e-05  0 
 9.526433e-04  6.187684e-05  0 
 9.175105e-04  9.237533e-05  0 
 6.782172e-05  1.074481e-06  0 
 1.047966e-03  4.767790e-05  0 
 1.032372e-03  5.670550e-05  0 
 3.998278e-04  -1.532178e-05  0 
 7.574122e-04  -1.275312e-04  0 
 7.215007e-04  -1.916970e-05  0 
 2.263915e-04  -3.849965e-06  0 
 2.610616e-04  -3.461723e-05  0 
 1.413216e-04  -2.878633e-06  0 
 2.011895e-04  -4.527001e-05  0 
 5.545818e-04  -1.116834e-04  0 
 2.210710e-04  5.715161e-07  0 
 4.504033e-04  -4.687992e-06  0 
 1.504268e-04  -5.750297e-06  0 
 1.217846e-04  -1.006416e-06  0 
 5.482331e-04  -4.770850e-05  0 
 5.390412e-04  -2.265072e-05  0 
 7.858820e-04  -2.522152e-04  0 
 3.496287e-04  3.184382e-06  0 
 6.491371e-04  3.588626e-05  0 
 3.537271e-04  -2.977811e-05  0 
 8.675455e-04  1.118065e-05  0 
 9.490374e-05  -2.139600e-06  0 
 9.196424e-05  -1.408611e-06  0 
 5.989561e-04  -1.618871e-04  0 
 6.747854e-04  -1.677937e-04  0 
 9.329678e-04  -6.131791e-05  0 
 5.581334e-04  5.710277e-06  0 
 6.814888e-04  5.013201e-06  0 
 7.891153e-04  3.835066e-05  0 
 7.708060e-04  -1.753473e-04  0 
 8.414033e-04  -7.723978e-05  0 
 8.399528e-04  -1.578000e-04  0 
 7.984972e-04  -8.253188e-06  0 
 6.610422e-04  -1.233851e-04  0 
 4.142631e-04  -1.086826e-04  0 
 4.405886e-04  -9.226062e-05  0 
 3.420175e-04  -5.072826e-06  0 
 3.302827e-04  7.726483e-07  0 
 6.824372e-04  -8.363761e-05  0 
 8.223300e-04  -3.209916e-05  0 
 7.986531e-04  -1.127076e-04  0 
 6.860629e-04  -5.846997e-05  0 
 8.852083e-04  -2.324786e-05  0 
 8.978193e-04  -1.345468e-04  0 
 5.843998e-04  -1.197119e-05  0 
 4.702971e-04  -3.908215e-06  0 
 4.373133e-04  -1.099230e-06  0 
 6.573660e-05  -9.206937e-07  0 
 9.438804e-04  1.140021e-05  0 
 9.632877e-05  -3.038729e-07  0 
 8.894448e-04  4.314432e-05  0 
 5.004788e-04  2.406284e-05  0 
 2.272037e-04  8.997162e-07  0 
 9.528674e-04  4.242472e-05  0 
 6.995223e-04  -3.900017e-05  0 
 1.063956e-04  -1.866475e-06  0 
VECTORS displacement_ITER5 FLOAT
 0  0  0 
 0  0  0 
 1.227051e-03  5.903749e-05  0 
 0  0  0 
 0  0  0 
 0  0  0 
 0  0  0 
 0  0  0 
 0  0  0 
 0  0  0 
 0  0  0 
 0  0  0 
 1.224368e-03  2.632917e-05  0 
 1.217254e-03  3.067156e-05  0 
 1.935494e-04  1.775432e-06  0 
 4.145186e-04  7.624932e-06  0 
 6.431483e-04  3.740765e-05  0 
 8.169625e-04  7.867351e-05  0 
 9.540754e-04  9.342516e-05  0 
 1.059170e-03  8.783397e-05  0 
 1.141369e-03  6.407826e-05  0 
 1.237321e-03  6.285058e-05  0 
 3.129824e-04  -1.232781e-04  0 
 4.691345e-04  -2.424943e-04  0 
 6.580476e-04  -2.899202e-04  0 
 8.017416e-04  -3.168256e-04  0 
 9.432587e-04  -3.383272e-04  0 
 4.362102e-04  5.687605e-05  0 
 2.452805e-04  8.360903e-06  0 
 1.150802e-03  2.552688e-05  0 
 9.324750e-04  9.605584e-05  0 
 1.060577e-03  2.434578e-05  0 
 1.666150e-04  1.386696e-05  0 
 7.812199e-04  7.116005e-05  0 
 1.081011e-03  6.457782e-05  0 
 1.006757e-03  6.133409e-05  0 
 5.311184e-04  4.147476e-05  0 
 6.381726e-04  6.916356e-05  0 
 1.012042e-03  9.170728e-05  0 
 1.168984e-03  5.243688e-05  0 
 1.144798e-03  2.524595e-05  0 
 1.081631e-04  -3.860707e-07  0 
 1.304731e-03  3.200110e-05  0 
 1.266763e-03  3.316823e-05  0 
 5.180557e-04  7.266937e-06  0 
 8.951746e-04  -7.618615e-05  0 
 9.284803e-04  5.886661e-05  0 
 3.354188e-04  1.713871e-06  0 
 3.250862e-04  -2.439504e-05  0 
 2.185632e-04  -1.638862e-06  0 
 2.351057e-04  -4.130104e-05  0 
 6.633438e-04  -9.016878e-05  0 
 3.013197e-04  8.156746e-06  0 
 6.183138e-04  3.952359e-05  0 
 2.028702e-04  1.573978e-06  0 
 1.760397e-04  1.145071e-06  0 
 6.742569e-04  -1.146891e-05  0 
 6.956615e-04  2.196640e-05  0 
 8.889115e-04  -2.103756e-04  0 
 4.754748e-04  3.128029e-05  0 
 8.712167e-04  8.717852e-05  0 
 4.446167e-04  -1.138092e-05  0 
 1.104231e-03  8.962329e-05  0 
 1.209789e-04  -1.858495e-06  0 
 1.385947e-04  -1.653860e-06  0 
 7.005380e-04  -1.402740e-04  0 
 7.856741e-04  -1.413962e-04  0 
 1.151990e-03  5.524116e-05  0 
 7.575205e-04  6.193556e-05  0 
 8.995935e-04  7.549645e-05  0 
 1.020936e-03  9.771267e-05  0 
 8.936712e-04  -1.374218e-04  0 
 1.029981e-03  1.595563e-05  0 
 9.888705e-04  -9.865578e-05  0 
 1.020684e-03  7.669317e-05  0 
 7.836492e-04  -8.911046e-05  0 
 4.878402e-04  -9.673697e-05  0 
 5.305503e-04  -7.640207e-05  0 
 4.910428e-04  2.047087e-05  0 
 5.008313e-04  1.547382e-05  0 
 8.246924e-04  -3.322168e-05  0 
 1.033442e-03  5.990487e-05  0 
 9.575417e-04  -4.105307e-05  0 
 8.475987e-04  3.837414e-06  0 
 1.118627e-03  7.666943e-05  0 
 1.077986e-03  -4.738507e-05  0 
 7.728105e-04  4.692034e-05  0 
 6.289890e-04  3.853695e-05  0 
 6.181684e-04  3.651062e-05  0 
 1.023278e-04  -8.082197e-07  0 
 1.179176e-03  8.867360e-05  0 
 1.365504e-04  1.628681e-06  0 
 1.125464e-03  8.841845e-05  0 
 7.043961e-04  5.795118e-05  0 
 3.215253e-04  1.588162e-05  0 
 1.175827e-03  7.121005e-05  0 
 8.879870e-04  3.261373e-05  0 
 1.199364e-04  -1.870054e-06  0 
VECTORS displacement_ITER6 FLOAT
 0  0  0 
 0  0  0 
 1.636695e-03  2.915194e-05  0 
 0  0  0 
 0  0  0 
 0  0  0 
 0  0  0 
 0  0  0 
 0  0  0 
 0  0  0 
 0  0  0 
 0  0  0 
 1.668495e-03  5.110703e-05  0 
 1.643037e-03  4.260172e-05  0 
 2.203436e-04  -2.015451e-06  0 
 4.789288e-04  -4.935898e-06  0 
 7.337556e-04  1.349861e-05  0 
 9.359822e-04  4.888684e-05  0 
 1.108022e-03  4.450625e-05  0 
 1.294370e-03  2.775327e-05  0 
 1.458364e-03  2.030378e-05  0 
 1.631578e-03  6.584419e-07  0 
 4.016756e-04  -1.515127e-04  0 
 6.006209e-04  -2.974095e-04  0 
 8.342653e-04  -3.536622e-04  0 
 9.967158e-04  -3.755419e-04  0 
 1.175255e-03  -4.000682e-04  0 
 4.639337e-04  4.715218e-05  0 
 2.718666e-04  4.058903e-06  0 
 1.527938e-03  3.190607e-05  0 
 1.061857e-03  5.894460e-05  0 
 1.362229e-03  3.792569e-05  0 
 1.797168e-04  1.330971e-05  0 
 8.820439e-04  4.078223e-05  0 
 1.370043e-03  3.171620e-05  0 
 1.212409e-03  4.205613e-05  0 
 5.929633e-04  1.913811e-05  0 
 7.080488e-04  4.696442e-05  0 
 1.207206e-03  4.823228e-05  0 
 1.529496e-03  3.682527e-05  0 
 1.520551e-03  5.638611e-05  0 
 1.216127e-04  -9.301535e-07  0 
 1.747228e-03  7.221286e-05  0 
 1.696808e-03  4.096727e-05  0 
 6.504063e-04  -1.231422e-05  0 
 1.119212e-03  -1.137607e-04  0 
 1.142386e-03  7.066033e-06  0 
 4.014040e-04  -2.877454e-06  0 
 4.214188e-04  -3.490935e-05  0 
 2.578345e-04  -8.023139e-06  0 
 3.077209e-04  -5.326338e-05  0 
 8.409927e-04  -1.214575e-04  0 
 3.811731e-04  3.583156e-06  0 
 7.413736e-04  2.004697e-05  0 
 2.603632e-04  -2.265467e-06  0 
 2.175661e-04  -8.339596e-07  0 
 8.471006e-04  -3.780800e-05  0 
 8.599705e-04  -1.080046e-05  0 
 1.108380e-03  -2.413783e-04  0 
 5.820236e-04  1.495551e-05  0 
 1.022823e-03  4.654691e-05  0 
 5.719965e-04  -2.540739e-05  0 
 1.362584e-03  9.445731e-06  0 
 1.581994e-04  -2.452286e-06  0 
 1.684940e-04  -2.114773e-06  0 
 8.912420e-04  -1.737097e-04  0 
 9.922368e-04  -1.831125e-04  0 
 1.444402e-03  -2.098109e-06  0 
 8.984321e-04  3.163240e-05  0 
 1.092445e-03  2.411461e-05  0 
 1.232133e-03  2.626440e-05  0 
 1.119117e-03  -1.828167e-04  0 
 1.280875e-03  -3.061641e-05  0 
 1.243849e-03  -1.434433e-04  0 
 1.251056e-03  1.322479e-05  0 
 9.856030e-04  -1.266590e-04  0 
 6.256464e-04  -1.224658e-04  0 
 6.811641e-04  -9.874440e-05  0 
 5.866945e-04  9.767020e-06  0 
 5.873940e-04  1.731663e-06  0 
 1.033590e-03  -6.560508e-05  0 
 1.276387e-03  4.358240e-06  0 
 1.196381e-03  -7.700406e-05  0 
 1.059394e-03  -3.461718e-05  0 
 1.390144e-03  9.091323e-06  0 
 1.357090e-03  -9.100684e-05  0 
 9.447945e-04  6.146358e-06  0 
 7.684657e-04  9.331805e-06  0 
 7.276344e-04  1.815030e-05  0 
 1.182373e-04  -1.174996e-06  0 
 1.496146e-03  4.302773e-06  0 
 1.718438e-04  1.914981e-07  0 
 1.397816e-03  1.794001e-05  0 
 8.157765e-04  3.252380e-05  0 
 3.961770e-04  6.821419e-06  0 
 1.517267e-03  1.163535e-05  0 
 1.101421e-03  -1.380306e-05  0 
 1.568877e-04  -2.537749e-06  0 
VECTORS displacement_ITER7 FLOAT
 0  0  0 
 0  0  0 
 1.554379e-03  2.632148e-05  0 
 0  0  0 
 0  0  0 
 0  0  0 
 0  0  0 
 0  0  0 
 0  0  0 
 0  0  0 
 0  0  0 
 0  0  0 
 1.577711e-03  5.178790e-05  0 
 1.561883e-03  4.111440e-05  0 
 2.290255e-04  7.635743e-08  0 
 4.828888e-04  2.965854e-06  0 
 7.213832e-04  1.630392e-05  0 
 9.116318e-04  4.308908e-05  0 
 1.078242e-03  4.110576e-05  0 
 1.259209e-03  2.503397e-05  0 
 1.419420e-03  2.799646e-05  0 
 1.549571e-03  2.509927e-05  0 
 4.004538e-04  -1.499382e-04  0 
 6.029829e-04  -2.967920e-04  0 
 8.353368e-04  -3.574495e-04  0 
 9.997795e-04  -3.854327e-04  0 
 1.115501e-03  -3.678710e-04  0 
 4.556654e-04  3.068305e-05  0 
 2.852774e-04  3.648870e-06  0 
 1.467763e-03  3.880436e-05  0 
 1.035583e-03  3.726318e-05  0 
 1.345832e-03  3.554122e-05  0 
 1.883136e-04  1.216735e-05  0 
 8.528560e-04  1.923366e-05  0 
 1.342269e-03  3.329775e-05  0 
 1.191998e-03  3.347841e-05  0 
 5.843206e-04  8.334067e-06  0 
 6.866298e-04  2.591166e-05  0 
 1.177070e-03  3.776131e-05  0 
 1.470178e-03  3.304374e-05  0 
 1.468465e-03  4.434052e-05  0 
 1.276285e-04  -1.340039e-06  0 
 1.663337e-03  6.220427e-05  0 
 1.617173e-03  3.888449e-05  0 
 6.374542e-04  -8.412411e-06  0 
 1.110716e-03  -1.293353e-04  0 
 1.111476e-03  1.355535e-05  0 
 3.973821e-04  1.473736e-06  0 
 4.124664e-04  -3.799135e-05  0 
 2.599561e-04  -2.314480e-06  0 
 3.061814e-04  -5.487819e-05  0 
 8.272395e-04  -1.355823e-04  0 
 3.697551e-04  5.071106e-06  0 
 7.302956e-04  3.128422e-05  0 
 2.530336e-04  -5.625516e-06  0 
 2.107839e-04  1.499025e-07  0 
 8.329741e-04  -3.982426e-05  0 
 8.437539e-04  -3.059131e-06  0 
 1.100203e-03  -2.671629e-04  0 
 5.721772e-04  2.304108e-05  0 
 9.935586e-04  5.219432e-05  0 
 5.576701e-04  -3.098868e-05  0 
 1.323905e-03  1.972050e-05  0 
 1.562039e-04  -2.427660e-06  0 
 1.654213e-04  -1.981515e-06  0 
 8.858656e-04  -1.892418e-04  0 
 9.804762e-04  -2.044329e-04  0 
 1.416601e-03  -1.887984e-05  0 
 8.789754e-04  4.353875e-05  0 
 1.060866e-03  3.530640e-05  0 
 1.199882e-03  3.577643e-05  0 
 1.114446e-03  -2.021432e-04  0 
 1.266632e-03  -3.888204e-05  0 
 1.237411e-03  -1.634838e-04  0 
 1.219679e-03  2.331936e-05  0 
 9.736201e-04  -1.391103e-04  0 
 6.226190e-04  -1.309058e-04  0 
 6.727536e-04  -1.077092e-04  0 
 5.817848e-04  1.803821e-05  0 
 5.861506e-04  1.337139e-05  0 
 1.018002e-03  -7.346417e-05  0 
 1.249908e-03  3.149199e-06  0 
 1.186514e-03  -9.195930e-05  0 
 1.039686e-03  -3.500274e-05  0 
 1.354821e-03  1.114009e-05  0 
 1.345491e-03  -1.114055e-04  0 
 9.231977e-04  1.711458e-05  0 
 7.555896e-04  1.942006e-05  0 
 7.197340e-04  2.967350e-05  0 
 1.217925e-04  -1.175599e-06  0 
 1.443637e-03  1.216837e-05  0 
 1.654082e-04  9.268042e-07  0 
 1.353794e-03  2.570494e-05  0 
 8.021884e-04  3.925686e-05  0 
 3.881247e-04  1.136396e-05  0 
 1.469902e-03  2.642748e-05  0 
 1.076313e-03  -8.030648e-06  0 
 1.568863e-04  -2.617228e-06  0 
VECTORS displacement_ITER8 FLOAT
 0  0  0 
 0  0  0 
 1.548467e-03  1.671170e-05  0 
 0  0  0 
 0  0  0 
 0  0  0 
 0  0  0 
 0  0  0 
 0  0  0 
 0  0  0 
 0  0  0 
 0  0  0 
 1.542080e-03  5.325941e-06  0 
 1.535929e-03  9.652617e-06  0 
 2.348598e-04  2.705955e-07  0 
 4.791686e-04  7.560287e-06  0 
 7.092392e-04  1.751864e-05  0 
 9.120494e-04  3.467430e-05  0 
 1.097452e-03  3.491412e-05  0 
 1.277987e-03  3.123210e-05  0 
 1.429603e-03  3.334627e-05  0 
 1.560432e-03  2.843263e-05  0 
 3.970954e-04  -1.462876e-04  0 
 6.000046e-04  -2.881706e-04  0 
 8.271754e-04  -3.455118e-04  0 
 9.869133e-04  -3.693190e-04  0 
 1.076899e-03  -3.346475e-04  0 
 4.556683e-04  2.107563e-05  0 
 2.948333e-04  6.811703e-06  0 
 1.450340e-03  7.623483e-06  0 
 1.053255e-03  3.403216e-05  0 
 1.341428e-03  9.396701e-06  0 
 1.968141e-04  1.028034e-05  0 
 8.357541e-04  2.174901e-05  0 
 1.356435e-03  3.306039e-05  0 
 1.221381e-03  3.488190e-05  0 
 5.745624e-04  1.169207e-05  0 
 6.744213e-04  2.223750e-05  0 
 1.204289e-03  3.480567e-05  0 
 1.464898e-03  2.326534e-05  0 
 1.440493e-03  2.423331e-06  0 
 1.308340e-04  -1.078165e-06  0 
 1.639198e-03  1.111373e-05  0 
 1.600402e-03  2.703468e-07  0 
 6.431982e-04  -8.136639e-06  0 
 1.105151e-03  -1.182518e-04  0 
 1.110944e-03  1.117666e-05  0 
 3.974391e-04  1.994356e-06  0 
 4.138725e-04  -3.762565e-05  0 
 2.611001e-04  1.175281e-06  0 
 3.073815e-04  -5.275587e-05  0 
 8.238030e-04  -1.326792e-04  0 
 3.728521e-04  2.558352e-06  0 
 7.383928e-04  2.280679e-05  0 
 2.554522e-04  -6.881282e-06  0 
 2.096978e-04  -2.018593e-07  0 
 8.335676e-04  -3.467061e-05  0 
 8.471076e-04  -2.852896e-06  0 
 1.082745e-03  -2.550652e-04  0 
 5.800692e-04  2.010599e-05  0 
 1.001848e-03  4.025958e-05  0 
 5.593859e-04  -3.102710e-05  0 
 1.329119e-03  2.208639e-05  0 
 1.585714e-04  -2.489379e-06  0 
 1.641838e-04  -2.121254e-06  0 
 8.796935e-04  -1.814150e-04  0 
 9.695291e-04  -1.966073e-04  0 
 1.411421e-03  -1.122246e-05  0 
 8.857725e-04  3.291210e-05  0 
 1.060529e-03  3.083361e-05  0 
 1.206568e-03  3.599410e-05  0 
 1.103153e-03  -1.897810e-04  0 
 1.260449e-03  -3.240548e-05  0 
 1.219836e-03  -1.446770e-04  0 
 1.221537e-03  2.134090e-05  0 
 9.674065e-04  -1.323289e-04  0 
 6.209572e-04  -1.268531e-04  0 
 6.721609e-04  -1.050956e-04  0 
 5.837232e-04  1.366027e-05  0 
 5.812722e-04  1.510826e-05  0 
 1.015553e-03  -6.360328e-05  0 
 1.248952e-03  2.758416e-06  0 
 1.180762e-03  -7.879716e-05  0 
 1.039214e-03  -2.923550e-05  0 
 1.356981e-03  1.221821e-05  0 
 1.323196e-03  -8.845550e-05  0 
 9.244590e-04  1.473097e-05  0 
 7.613083e-04  1.751026e-05  0 
 7.240017e-04  2.379952e-05  0 
 1.243335e-04  -1.618046e-06  0 
 1.461450e-03  2.027689e-05  0 
 1.657235e-04  5.376282e-08  0 
 1.367464e-03  3.758935e-05  0 
 8.030469e-04  3.113816e-05  0 
 3.899855e-04  9.756180e-06  0 
 1.482798e-03  3.463985e-05  0 
 1.075705e-03  -9.234639e-06  0 
 1.566483e-04  -2.582019e-06  0 
VECTORS displacement_ITER9 FLOAT
 0  0  0 
 0  0  0 
 1.559130e-03  2.943113e-05  0 
 0  0  0 
 0  0  0 
 0  0  0 
 0  0  0 
 0  0  0 
 0  0  0 
 0  0  0 
 0  0  0 
 0  0  0 
 1.556648e-03  1.955727e-05  0 
 1.556009e-03  2.596336e-05  0 
 2.403380e-04  7.013797e-07  0 
 4.815769e-04  9.959426e-06  0 
 7.065555e-04  1.858039e-05  0 
 9.113073e-04  3.082663e-05  0 
 1.097752e-03  3.253381e-05  0 
 1.272976e-03  2.891090e-05  0 
 1.431616e-03  3.552307e-05  0 
 1.563833e-03  3.317595e-05  0 
 3.940297e-04  -1.479065e-04  0 
 5.917900e-04  -2.904727e-04  0 
 8.187530e-04  -3.479366e-04  0 
 9.872605e-04  -3.759302e-04  0 
 1.107474e-03  -3.675410e-04  0 
 4.590239e-04  1.489964e-05  0 
 3.021391e-04  7.182174e-06  0 
 1.466094e-03  2.618343e-05  0 
 1.055205e-03  2.909019e-05  0 
 1.348082e-03  3.230528e-05  0 
 2.014024e-04  8.928187e-06  0 
 8.283740e-04  2.043574e-05  0 
 1.358222e-03  3.633134e-05  0 
 1.222558e-03  4.307044e-05  0 
 5.742474e-04  1.173996e-05  0 
 6.712623e-04  1.757585e-05  0 
 1.201596e-03  3.110327e-05  0 
 1.475952e-03  3.159777e-05  0 
 1.450072e-03  2.326101e-05  0 
 1.340399e-04  -1.062123e-06  0 
 1.659735e-03  1.863090e-05  0 
 1.621167e-03  2.196299e-05  0 
 6.450296e-04  -2.313902e-06  0 
 1.103893e-03  -1.059527e-04  0 
 1.107821e-03  1.272090e-05  0 
 3.999758e-04  3.270249e-06  0 
 4.098938e-04  -3.592816e-05  0 
 2.645655e-04  2.851471e-06  0 
 3.028314e-04  -5.193346e-05  0 
 8.205579e-04  -1.235864e-04  0 