# vtk DataFile Version 3.1
this is an vtk file created by FEMAC
ASCII
DATASET UNSTRUCTURED_GRID
POINTS 96 FLOAT
4.000000 2.000000 0.000000
3.000000 2.250000 0.000000
3.000000 2.375000 0.000000
3.000000 2.500000 0.000000
3.000000 2.625000 0.000000
3.000000 2.750000 0.000000
3.250000 2.000000 0.000000
3.375000 2.000000 0.000000
3.500000 2.000000 0.000000
3.625000 2.000000 0.000000
3.750000 2.000000 0.000000
3.875000 2.000000 0.000000
3.125000 3.000000 0.000000
3.250000 3.000000 0.000000
3.375000 3.000000 0.000000
3.500000 3.000000 0.000000
4.000000 2.125000 0.000000
4.000000 2.250000 0.000000
4.000000 2.375000 0.000000
4.000000 2.500000 0.000000
4.000000 2.625000 0.000000
4.000000 2.750000 0.000000
3.511649 1.828012 0.000000
3.572954 1.901158 0.000000
3.454634 1.905465 0.000000
3.730500 1.888995 0.000000
3.660152 1.685768 0.000000
3.530806 1.727155 0.000000
3.629321 1.794056 0.000000
3.421061 1.778938 0.000000
3.340447 1.892472 0.000000
3.871207 1.926819 0.000000
3.510225 2.482174 0.000000
3.342679 2.763607 0.000000
3.344665 2.221614 0.000000
3.751520 2.734434 0.000000
3.784595 2.268617 0.000000
3.121935 2.816799 0.000000
3.124877 2.193017 0.000000
3.817980 2.123003 0.000000
3.260221 2.499887 0.000000
3.787814 2.520990 0.000000
3.864054 2.415298 0.000000
3.854734 2.630981 0.000000
3.361888 2.338554 0.000000
3.371490 2.673893 0.000000
3.421107 2.856077 0.000000
3.166985 2.923830 0.000000
3.188322 2.098997 0.000000
3.890455 2.757888 0.000000
3.901106 2.196377 0.000000
3.788799 2.879586 0.000000
3.389967 2.498720 0.000000
3.522489 2.371684 0.000000
3.137712 2.499953 0.000000
3.082456 2.419029 0.000000
3.082469 2.580900 0.000000
3.628717 2.299925 0.000000
3.899036 2.539123 0.000000
3.724686 2.610427 0.000000
3.317252 2.414627 0.000000
3.327917 2.596409 0.000000
3.431539 2.402026 0.000000
3.275491 2.864850 0.000000
3.308177 2.105244 0.000000
3.676983 2.148185 0.000000
3.110865 2.675717 0.000000
3.110812 2.324115 0.000000
3.193875 2.408735 0.000000
3.193935 2.591011 0.000000
3.471473 2.278759 0.000000
3.248687 2.706284 0.000000
3.245515 2.300926 0.000000
3.527915 2.766731 0.000000
3.718306 2.402950 0.000000
3.920740 2.095337 0.000000
3.608492 2.438944 0.000000
3.612025 2.560738 0.000000
3.665604 2.916551 0.000000
3.909951 2.301059 0.000000
3.621668 2.683418 0.000000
3.550684 2.895002 0.000000
3.651512 2.810728 0.000000
3.475841 2.621007 0.000000
3.427806 2.736263 0.000000
3.689227 2.509069 0.000000
3.562600 2.093139 0.000000
3.449584 2.130176 0.000000
3.242311 2.183960 0.000000
3.557871 2.190037 0.000000
3.925709 2.877079 0.000000
4.121013 2.514569 0.000000
4.080055 2.407030 0.000000
4.164914 2.100101 0.000000
4.105605 2.247038 0.000000
4.079104 2.094428 0.000000
CELLS 157 628 
3 8 23  9
3 24  8  7
3 24 23  8
3 22 23 24
3 9 25 10
3 25  9 23
3 23 28 25
3 22 28 23
3 27 28 22
3 26 28 27
3 29 27 22
3 29 22 24
3 30 24  7
3 24 30 29
3 6 30  7
3 11 31  0
3 11 10 31
3 10 25 31
3 11 39 10
3 50 36 39
3 51 35 49
3 12 47 13
3 49 20 21
3 20 49 43
3 49 35 43
3 46 15 14
3 17 50 16
3 55  3  2
3 3 55 54
3 3 56  4
3 56  3 54
3 58 19 20
3 43 58 20
3 43 59 41
3 59 43 35
3 40 60 52
3 61 40 52
3 62 32 52
3 32 62 53
3 47 63 13
3 64 48  6
3 65 36 57
3 66  5  4
3 5 66 37
3 1 67  2
3 67  1 38
3 68 40 54
3 40 69 54
3 75 11  0
3 16 75  0
3 76 32 53
3 56 66  4
3 67 55  2
3 7 64  6
3 63 14 13
3 46 14 63
3 62 60 44
3 52 60 62
3 70 62 44
3 53 62 70
3 54 55 68
3 56 54 69
3 61 69 40
3 68 60 40
3 75 16 50
3 75 39 11
3 39 75 50
3 34 70 44
3 44 72 34
3 44 60 72
3 72 60 68
3 71 45 33
3 61 45 71
3 61 71 69
3 41 58 43
3 58 41 42
3 65 39 36
3 39 65 10
3 65  9 10
3 63 33 46
3 63 71 33
3 63 47 37
3 63 37 71
3 74 42 41
3 42 74 36
3 74 57 36
3 79 42 36
3 50 79 36
3 42 79 18
3 79 17 18
3 50 17 79
3 76 53 57
3 76 57 74
3 19 42 18
3 42 19 58
3 72 67 38
3 68 55 67
3 68 67 72
3 66 71 37
3 56 69 66
3 66 69 71
3 32 76 77
3 57 53 70
3 81 15 46
3 73 81 46
3 82 78 81
3 73 82 81
3 77 83 32
3 45 84 33
3 85 74 41
3 85 77 76
3 74 85 76
3 84 46 33
3 73 46 84
3 59 85 41
3 59 77 85
3 73 80 82
3 80 59 35
3 59 80 77
3 51 82 35
3 82 80 35
3 78 82 51
3 73 83 80
3 73 84 83
3 83 77 80
3 32 83 52
3 61 83 45
3 83 84 45
3 61 52 83
3 87  7  8
3 9 86  8
3 86  9 65
3 86 87  8
3 87 64  7
3 64 87 34
3 88 64 34
3 88 72 38
3 72 88 34
3 57 89 65
3 89 86 65
3 89 57 70
3 48 88 38
3 48 64 88
3 70 34 87
3 87 89 70
3 87 86 89
3 90 51 49
3 49 21 90
3 92 19 18
3 19 92 91
3 20 19 91
3 95 16  0
3 16 94 17
3 95 94 16
3 93 94 95
3 17 94 18
3 94 92 18
CELL_TYPES 157
5 5 5 5 5 5 5 5 5 5 5 5 5 5 5 5 5 5 5 5 5 5 5 5 5 5 5 5 5 5 5 5 5 5 5 5 5 5 5 5 5 5 5 5 5 5 5 5 5 5 5 5 5 5 5 5 5 5 5 5 5 5 5 5 5 5 5 5 5 5 5 5 5 5 5 5 5 5 5 5 5 5 5 5 5 5 5 5 5 5 5 5 5 5 5 5 5 5 5 5 5 5 5 5 5 5 5 5 5 5 5 5 5 5 5 5 5 5 5 5 5 5 5 5 5 5 5 5 5 5 5 5 5 5 5 5 5 5 5 5 5 5 5 5 5 5 5 5 5 5 5 5 5 5 5 5 5 
POINT_DATA 96
VECTORS displacement_ITER1 FLOAT
 3.882205e-03  2.426246e-03  0 
 2.847873e-03  -1.089467e-03  0 
 2.386373e-03  -1.041333e-03  0 
 1.974024e-03  -9.194402e-04  0 
 1.412779e-03  -8.780651e-04  0 
 9.856480e-04  -7.595921e-04  0 
 3.875633e-03  -2.909793e-04  0 
 3.856837e-03  1.745409e-04  0 
 3.847707e-03  6.442161e-04  0 
 3.840821e-03  1.094745e-03  0 
 3.855971e-03  1.539051e-03  0 
 3.868509e-03  1.976543e-03  0 
 0  0  0 
 0  0  0 
 0  0  0 
 0  0  0 
 3.381107e-03  2.413458e-03  0 
 2.899876e-03  2.392562e-03  0 
 2.418387e-03  2.371975e-03  0 
 2.020841e-03  2.320534e-03  0 
 1.558963e-03  2.275822e-03  0 
 1.095079e-03  2.285138e-03  0 
 4.550437e-03  6.670856e-04  0 
 4.243805e-03  9.028728e-04  0 
 4.240310e-03  4.654508e-04  0 
 4.293457e-03  1.483210e-03  0 
 5.194269e-03  1.263353e-03  0 
 4.971051e-03  7.323295e-04  0 
 4.685711e-03  1.111615e-03  0 
 4.762971e-03  3.222302e-04  0 
 4.307852e-03  2.994751e-05  0 
 4.157635e-03  1.970714e-03  0 
 1.877014e-03  6.034026e-04  0 
 5.950370e-04  2.054194e-05  0 
 2.927345e-03  8.448004e-05  0 
 1.139687e-03  1.291435e-03  0 
 2.787396e-03  1.626225e-03  0 
 5.913630e-04  -2.130139e-04  0 
 3.062028e-03  -7.479822e-04  0 
 3.370504e-03  1.764067e-03  0 
 1.751978e-03  -2.209404e-04  0 
 1.843901e-03  1.603052e-03  0 
 2.233673e-03  1.868857e-03  0 
 1.531866e-03  1.746848e-03  0 
 2.448914e-03  1.378489e-04  0 
 9.903059e-04  9.668311e-05  0 
 3.277038e-04  2.407413e-05  0 
 1.800947e-04  -3.775599e-05  0 
 3.471905e-03  -5.100472e-04  0 
 1.073142e-03  1.874217e-03  0 
 3.089299e-03  2.048839e-03  0 
 5.104145e-04  1.409777e-03  0 
 1.745322e-03  2.098547e-04  0 
 2.320807e-03  6.777672e-04  0 
 1.798211e-03  -5.546455e-04  0 
 2.165930e-03  -7.991538e-04  0 
 1.579232e-03  -5.852675e-04  0 
 2.656997e-03  1.081736e-03  0 
 1.834114e-03  1.919108e-03  0 
 1.488547e-03  1.311780e-03  0 
 2.099701e-03  -4.052809e-05  0 
 1.348582e-03  1.074700e-05  0 
 2.177258e-03  3.863117e-04  0 
 2.909499e-04  2.183848e-06  0 
 3.430241e-03  -5.818246e-05  0 
 3.251182e-03  1.259950e-03  0 
 1.134091e-03  -4.305315e-04  0 
 2.532351e-03  -7.699409e-04  0 
 2.130698e-03  -4.364707e-04  0 
 1.431512e-03  -3.654868e-04  0 
 2.701852e-03  5.270806e-04  0 
 8.455520e-04  -1.578362e-04  0 
 2.594902e-03  -2.775381e-04  0 
 7.410824e-04  4.633404e-04  0 
 2.261366e-03  1.388725e-03  0 
 3.491302e-03  2.129741e-03  0 
 2.076350e-03  9.580327e-04  0 
 1.613181e-03  9.257527e-04  0 
 3.422649e-04  8.732536e-04  0 
 2.688966e-03  2.059271e-03  0 
 1.164065e-03  8.878648e-04  0 
 4.125485e-04  3.519888e-04  0 
 7.714868e-04  8.268923e-04  0 
 1.303834e-03  4.088817e-04  0 
 7.748755e-04  1.572538e-04  0 
 1.840196e-03  1.230498e-03  0 
 3.463282e-03  8.756007e-04  0 
 3.312509e-03  4.626846e-04  0 
 3.094907e-03  -2.968003e-04  0 
 3.077018e-03  8.553052e-04  0 
 5.358674e-04  2.019921e-03  0 
 2.007148e-03  2.735670e-03  0 
 2.346929e-03  2.624696e-03  0 
 3.500183e-03  3.038641e-03  0 
 2.927120e-03  2.796338e-03  0 
 3.511064e-03  2.718492e-03  0 
VECTORS displacement_ITER2 FLOAT
 7.199018e-04  -1.068945e-04  0 
 9.554909e-04  -1.098349e-04  0 
 8.626579e-04  -9.865854e-05  0 
 7.321132e-04  -9.574724e-05  0 
 5.533702e-04  -1.352878e-04  0 
 3.970860e-04  -1.393376e-04  0 
 8.930138e-04  -2.902102e-04  0 
 8.411418e-04  -3.197558e-04  0 
 8.008133e-04  -3.187401e-04  0 
 7.966949e-04  -3.030608e-04  0 
 7.729719e-04  -2.623935e-04  0 
 7.437107e-04  -1.966633e-04  0 
 0  0  0 
 0  0  0 
 0  0  0 
 0  0  0 
 6.019109e-04  -9.432034e-05  0 
 4.751043e-04  -6.048367e-05  0 
 3.773674e-04  -3.036115e-05  0 
 3.296627e-04  -7.823880e-06  0 
 2.959643e-04  -1.624666e-06  0 
 2.835678e-04  4.921694e-06  0 
 8.622071e-04  -3.414879e-04  0 
 8.237568e-04  -3.100109e-04  0 
 8.388221e-04  -3.490549e-04  0 
 8.340936e-04  -2.863172e-04  0 
 9.334621e-04  -3.014351e-04  0 
 9.282065e-04  -3.445373e-04  0 
 8.705658e-04  -2.956812e-04  0 
 9.032850e-04  -3.902979e-04  0 
 8.783454e-04  -3.570810e-04  0 
 7.992776e-04  -2.161504e-04  0 
 5.668355e-04  -6.901831e-05  0 
 3.448550e-04  1.883948e-05  0 
 7.948330e-04  -2.108221e-04  0 
 3.088291e-04  4.751910e-05  0 
 5.436639e-04  -1.572164e-04  0 
 2.800279e-04  -1.966867e-05  0 
 9.104972e-04  -1.655267e-04  0 
 6.478558e-04  -1.929575e-04  0 
 6.811498e-04  -5.570167e-05  0 
 3.632399e-04  -2.593769e-05  0 
 3.924608e-04  -4.935174e-05  0 
 3.116332e-04  -8.527169e-07  0 
 7.517218e-04  -1.487371e-04  0 
 4.349854e-04  1.506265e-05  0 
 2.327179e-04  1.158030e-05  0 
 1.176357e-04  -8.272727e-06  0 
 8.989765e-04  -2.285349e-04  0 
 2.883777e-04  8.601148e-06  0 
 5.601749e-04  -1.266528e-04  0 
 2.728212e-04  4.611403e-05  0 
 6.189911e-04  -6.212334e-05  0 
 6.257694e-04  -1.464982e-04  0 
 7.096528e-04  -6.301478e-05  0 
 8.101329e-04  -8.772312e-05  0 
 6.359764e-04  -6.260474e-05  0 
 5.986570e-04  -1.938703e-04  0 
 3.299442e-04  -1.712959e-05  0 
 3.588004e-04  1.610993e-05  0 
 7.270184e-04  -1.038978e-04  0 
 5.662448e-04  -1.611221e-05  0 
 6.714491e-04  -1.161076e-04  0 
 2.075876e-04  4.089410e-06  0 
 8.428631e-04  -2.585231e-04  0 
 6.746305e-04  -2.505834e-04  0 
 4.914319e-04  -5.112377e-05  0 
 8.849948e-04  -1.046142e-04  0 
 7.914291e-04  -8.121455e-05  0 
 6.093292e-04  -4.053235e-05  0 
 7.102543e-04  -2.046136e-04  0 
 4.196027e-04  -3.801687e-06  0 
 8.294737e-04  -1.459514e-04  0 
 3.294012e-04  6.742608e-05  0 
 4.759037e-04  -1.118138e-04  0 
 6.424975e-04  -1.423345e-04  0 
 5.260592e-04  -1.017104e-04  0 
 4.498215e-04  -1.880386e-05  0 
 2.227824e-04  3.786832e-05  0 
 4.609424e-04  -7.901950e-05  0 
 3.604199e-04  4.317562e-05  0 
 2.102285e-04  6.595121e-05  0 
 2.882415e-04  6.297668e-05  0 
 4.745900e-04  4.189840e-06  0 
 3.767717e-04  8.903100e-06  0 
 4.297484e-04  -4.755352e-05  0 
 7.467887e-04  -3.015346e-04  0 
 7.708108e-04  -2.744509e-04  0 
 8.545642e-04  -2.036790e-04  0 
 6.998562e-04  -2.634391e-04  0 
 2.597088e-04  1.195158e-05  0 
 3.165001e-04  4.401846e-05  0 
 3.508390e-04  1.945046e-05  0 
 6.137394e-04  9.418165e-05  0 
 4.500760e-04  2.769375e-05  0 
 6.256174e-04  -1.542354e-05  0 
VECTORS displacement_ITER3 FLOAT
 1.832784e-03  2.318907e-04  0 
 2.195664e-03  -3.209115e-04  0 
 1.963869e-03  -3.031849e-04  0 
 1.655545e-03  -2.753906e-04  0 
 1.234507e-03  -3.539775e-04  0 
 8.550024e-04  -3.407273e-04  0 
 2.265987e-03  -4.205935e-04  0 
 2.168484e-03  -4.310021e-04  0 
 2.079150e-03  -3.848400e-04  0 
 2.054201e-03  -3.055359e-04  0 
 1.990817e-03  -1.780309e-04  0 
 1.906387e-03  -1.235759e-05  0 
 0  0  0 
 0  0  0 
 0  0  0 
 0  0  0 
 1.555340e-03  2.701496e-04  0 
 1.323502e-03  3.275573e-04  0 
 1.119667e-03  3.775530e-04  0 
 9.947660e-04  4.046214e-04  0 
 8.897316e-04  4.048429e-04  0 
 8.158044e-04  3.985910e-04  0 
 2.286201e-03  -4.434613e-04  0 
 2.158201e-03  -3.500322e-04  0 
 2.200919e-03  -4.691613e-04  0 
 2.164965e-03  -2.460117e-04  0 
 2.752341e-03  -1.241260e-04  0 
 2.459732e-03  -4.480181e-04  0 
 2.311715e-03  -3.102900e-04  0 
 2.391048e-03  -5.550566e-04  0 
 2.284587e-03  -5.105362e-04  0 
 2.055294e-03  -6.675653e-05  0 
 1.396702e-03  8.749223e-05  0 
 7.515571e-04  6.559284e-05  0 
 1.968685e-03  -2.373909e-04  0 
 8.436067e-04  3.900906e-04  0 
 1.440594e-03  7.361684e-05  0 
 5.874729e-04  -3.406304e-05  0 
 2.173771e-03  -3.057373e-04  0 
 1.686196e-03  2.369118e-06  0 
 1.544047e-03  -4.807563e-05  0 
 1.032225e-03  3.101140e-04  0 
 1.122555e-03  2.933706e-04  0 
 9.094529e-04  3.600764e-04  0 
 1.805157e-03  -1.184225e-04  0 
 9.845706e-04  1.021812e-04  0 
 5.154443e-04  3.793007e-05  0 
 2.497956e-04  -1.746238e-05  0 
 2.218577e-03  -3.525923e-04  0 
 8.063656e-04  3.813234e-04  0 
 1.480287e-03  1.812890e-04  0 
 6.898670e-04  3.867458e-04  0 
 1.458784e-03  3.109475e-05  0 
 1.559996e-03  -3.231642e-05  0 
 1.596662e-03  -1.394662e-04  0 
 1.829980e-03  -2.209426e-04  0 
 1.421132e-03  -1.578353e-04  0 
 1.547735e-03  -6.715156e-05  0 
 9.742949e-04  3.499603e-04  0 
 9.813369e-04  3.488439e-04  0 
 1.696910e-03  -7.580010e-05  0 
 1.280880e-03  4.786684e-05  0 
 1.619902e-03  -2.608573e-05  0 
 4.471597e-04  1.583962e-05  0 
 2.120440e-03  -3.419589e-04  0 
 1.749272e-03  -1.659677e-04  0 
 1.064222e-03  -1.100369e-04  0 
 2.031821e-03  -2.321556e-04  0 
 1.801907e-03  -1.349537e-04  0 
 1.350471e-03  -6.443688e-05  0 
 1.771488e-03  -1.623200e-04  0 
 9.003215e-04  1.713600e-05  0 
 1.969126e-03  -1.931407e-04  0 
 7.929966e-04  2.785374e-04  0 
 1.278892e-03  1.343296e-04  0 
 1.657720e-03  1.381267e-04  0 
 1.352315e-03  8.540439e-05  0 
 1.154827e-03  2.272952e-04  0 
 5.458094e-04  2.756037e-04  0 
 1.286657e-03  2.666929e-04  0 
 9.276819e-04  3.222187e-04  0 
 5.128370e-04  2.373380e-04  0 
 7.386884e-04  3.346581e-04  0 
 1.141263e-03  1.696630e-04  0 
 8.626165e-04  8.921412e-05  0 
 1.149827e-03  2.275775e-04  0 
 1.926540e-03  -3.154804e-04  0 
 1.967545e-03  -3.105922e-04  0 
 2.094994e-03  -2.842809e-04  0 
 1.792403e-03  -2.345267e-04  0 
 6.942253e-04  3.768443e-04  0 
 9.745502e-04  5.138928e-04  0 
 1.068926e-03  4.733099e-04  0 
 1.592521e-03  6.650263e-04  0 
 1.280524e-03  5.007297e-04  0 
 1.603347e-03  4.334579e-04  0 
VECTORS displacement_ITER4 FLOAT
 2.248063e-03  -8.619587e-05  0 
 2.263262e-03  2.545377e-04  0 
 2.012740e-03  2.037672e-04  0 
 1.716825e-03  1.343936e-04  0 
 1.379638e-03  3.034668e-05  0 
 8.944846e-04  2.015659e-05  0 
 2.448269e-03  2.564484e-06  0 
 2.356348e-03  -8.019050e-05  0 
 2.284386e-03  -1.261418e-04  0 
 2.308897e-03  -1.425901e-04  0 
 2.298694e-03  -1.492148e-04  0 
 2.267276e-03  -1.378787e-04  0 
 0  0  0 
 0  0  0 
 0  0  0 
 0  0  0 
 1.973192e-03  -7.486061e-05  0 
 1.593565e-03  1.301687e-05  0 
 1.283099e-03  8.497172e-05  0 
 1.183213e-03  1.481600e-04  0 
 1.091426e-03  1.418256e-04  0 
 1.017624e-03  1.233402e-04  0 
 2.478137e-03  -1.482693e-04  0 
 2.362801e-03  -9.912764e-05  0 
 2.387417e-03  -1.631168e-04  0 
 2.414589e-03  -1.401580e-04  0 
 3.058730e-03  1.685128e-04  0 
 2.672076e-03  -1.528146e-04  0 
 2.511026e-03  -6.815999e-05  0 
 2.594946e-03  -2.387103e-04  0 
 2.484301e-03  -1.343477e-04  0 
 2.375560e-03  -1.519928e-04  0 
 1.652810e-03  1.804998e-04  0 
 9.791072e-04  1.316164e-04  0 
 2.128145e-03  6.095750e-05  0 
 1.040849e-03  3.436133e-04  0 
 1.746426e-03  -5.634076e-05  0 
 6.411563e-04  1.251054e-04  0 
 2.288112e-03  2.004736e-04  0 
 2.035895e-03  -1.113739e-04  0 
 1.741386e-03  2.049300e-04  0 
 1.247871e-03  2.055064e-04  0 
 1.344065e-03  1.368235e-04  0 
 1.105343e-03  2.208816e-04  0 
 2.019813e-03  1.286366e-04  0 
 1.213671e-03  2.117816e-04  0 
 7.209835e-04  6.687395e-05  0 
 3.204823e-04  5.160035e-06  0 
 2.374339e-03  9.232628e-05  0 
 1.004292e-03  1.985668e-04  0 
 1.840557e-03  -8.080488e-05  0 
 9.471644e-04  3.058896e-04  0 
 1.706448e-03  2.183773e-04  0 
 1.815747e-03  6.116588e-05  0 
 1.749861e-03  1.630596e-04  0 
 1.941197e-03  1.845153e-04  0 
 1.552646e-03  1.251043e-04  0 
 1.811695e-03  -3.191201e-05  0 
 1.172931e-03  1.794480e-04  0 
 1.204741e-03  3.033451e-04  0 
 1.929173e-03  1.872610e-04  0 
 1.497544e-03  2.188624e-04  0 
 1.869036e-03  1.435718e-04  0 
 6.115907e-04  3.629084e-05  0 
 2.295060e-03  2.738239e-05  0 
 2.042423e-03  -1.322550e-04  0 
 1.183547e-03  1.352129e-04  0 
 2.142533e-03  2.198006e-04  0 
 1.984872e-03  1.915197e-04  0 
 1.514679e-03  1.806095e-04  0 
 1.988136e-03  1.991653e-06  0 
 1.068739e-03  1.810389e-04  0 
 2.141282e-03  1.586295e-04  0 
 1.054384e-03  3.899108e-04  0 
 1.530522e-03  5.005346e-05  0 
 2.057823e-03  -1.052588e-04  0 
 1.602425e-03  1.280110e-04  0 
 1.417457e-03  2.672665e-04  0 
 7.831327e-04  3.007608e-04  0 
 1.528358e-03  1.808788e-05  0 
 1.161680e-03  3.755474e-04  0 
 7.221456e-04  3.401244e-04  0 
 9.757389e-04  3.967560e-04  0 
 1.415063e-03  2.691990e-04  0 
 1.121861e-03  1.502031e-04  0 
 1.394547e-03  1.817372e-04  0 
 2.161752e-03  -1.469844e-04  0 
 2.177404e-03  -4.744735e-05  0 
 2.224372e-03  9.870366e-05  0 
 2.052712e-03  -1.012978e-04  0 
 9.518666e-04  1.463510e-04  0 
 1.165307e-03  1.508021e-04  0 
 1.213985e-03  1.540655e-04  0 
 1.994280e-03  3.688769e-04  0 
 1.524644e-03  1.974928e-04  0 
 2.035847e-03  8.608699e-05  0 
VECTORS displacement_ITER5 FLOAT
 1.764639e-03  -1.721227e-04  0 
 1.723928e-03  3.082524e-04  0 
 1.474983e-03  2.794168e-04  0 
 1.161469e-03  2.415026e-04  0 
 8.315043e-04  1.768047e-04  0 
 4.269873e-04  1.628222e-04  0 
 2.124370e-03  3.574365e-04  0 
 2.060920e-03  2.999105e-04  0 
 2.007361e-03  2.175862e-04  0 
 1.950254e-03  1.366200e-04  0 
 1.904202e-03  5.264442e-05  0 
 1.837401e-03  -7.488245e-05  0 
 0  0  0 
 0  0  0 
 0  0  0 
 0  0  0 
 1.621692e-03  -7.341737e-05  0 
 1.522942e-03  -2.353682e-05  0 
 1.356968e-03  1.994880e-05  0 
 1.213419e-03  2.104771e-05  0 
 9.884545e-04  -1.295426e-05  0 
 5.852478e-04  1.235392e-04  0 
 2.063709e-03  1.470030e-04  0 
 2.019022e-03  1.366477e-04  0 
 2.077774e-03  2.116099e-04  0 
 1.956271e-03  3.770280e-05  0 
 1.996610e-03  -3.457771e-05  0 
 2.108881e-03  1.004852e-04  0 
 2.024279e-03  7.316068e-05  0 
 2.136575e-03  1.557970e-04  0 
 2.159437e-03  2.728807e-04  0 
 1.878964e-03  -1.060083e-04  0 
 1.292372e-03  2.602212e-04  0 
 6.251710e-04  1.146633e-04  0 
 1.760031e-03  3.533091e-04  0 
 7.580294e-04  1.498064e-04  0 
 1.579157e-03  1.043201e-04  0 
 3.073498e-04  1.575573e-04  0 
 1.806222e-03  3.484404e-04  0 
 1.761374e-03  3.457852e-05  0 
 1.198462e-03  3.204957e-04  0 
 1.162283e-03  1.409150e-04  0 
 1.331566e-03  8.818400e-05  0 
 9.770831e-04  6.693843e-05  0 
 1.548783e-03  3.493117e-04  0 
 8.081339e-04  1.974785e-04  0 
 4.465161e-04  5.397147e-05  0 
 1.746748e-04  1.880973e-05  0 
 1.996057e-03  3.700625e-04  0 
 6.896047e-04  3.543984e-05  0 
 1.618939e-03  2.106332e-05  0 
 4.996541e-04  1.315724e-04  0 
 1.245242e-03  3.003383e-04  0 
 1.482273e-03  2.575469e-04  0 
 1.192367e-03  2.927242e-04  0 
 1.378730e-03  3.024679e-04  0 
 9.793965e-04  2.431522e-04  0 
 1.579286e-03  1.980020e-04  0 
 1.133313e-03  4.779867e-05  0 
 1.013931e-03  1.907700e-04  0 
 1.404738e-03  3.472324e-04  0 
 9.985490e-04  2.575552e-04  0 
 1.440195e-03  3.062814e-04  0 
 3.642021e-04  3.916861e-05  0 
 1.959741e-03  3.656098e-04  0 
 1.785819e-03  1.402008e-04  0 
 6.719608e-04  2.360860e-04  0 
 1.587298e-03  3.304913e-04  0 
 1.413902e-03  3.264795e-04  0 
 9.626736e-04  2.920790e-04  0 
 1.637467e-03  2.863248e-04  0 
 6.505993e-04  2.202116e-04  0 
 1.628899e-03  3.506171e-04  0 
 7.033673e-04  2.429575e-04  0 
 1.390023e-03  1.641378e-04  0 
 1.721940e-03  -6.019047e-05  0 
 1.354029e-03  2.230640e-04  0 
 1.133648e-03  2.327377e-04  0 
 4.164086e-04  1.703353e-04  0 
 1.495560e-03  4.519564e-05  0 
 8.520258e-04  2.245333e-04  0 
 4.361871e-04  1.955442e-04  0 
 6.323119e-04  1.990294e-04  0 
 1.003439e-03  2.382433e-04  0 
 7.375986e-04  1.305635e-04  0 
 1.209928e-03  1.937665e-04  0 
 1.884440e-03  2.077163e-04  0 
 1.883247e-03  2.832179e-04  0 
 1.825733e-03  3.688718e-04  0 
 1.762048e-03  2.315800e-04  0 
 3.232690e-04  1.923562e-04  0 
 1.213267e-03  -1.121276e-04  0 
 1.317508e-03  -3.595219e-05  0 
 1.501776e-03  -2.308261e-04  0 
 1.477307e-03  -4.111921e-05  0 
 1.583962e-03  -1.254989e-04  0 
VECTORS displacement_ITER6 FLOAT
 1.867403e-03  2.557728e-05  0 
 1.745090e-03  1.666317e-05  0 
 1.550610e-03  3.291360e-05  0 
 1.336340e-03  4.918148e-05  0 
 1.099236e-03  3.484046e-05  0 
 7.015860e-04  5.781420e-05  0 
 2.008038e-03  -2.524820e-06  0 
 1.951378e-03  -8.560326e-06  0 
 1.909461e-03  8.457428e-06  0 
 1.895853e-03  2.449789e-05  0 
 1.889060e-03  7.610972e-05  0 
 1.882486e-03  5.140904e-05  0 
 0  0  0 
 0  0  0 
 0  0  0 
 0  0  0 
 1.719822e-03  4.807466e-05  0 
 1.598132e-03  2.731617e-05  0 
 1.410344e-03  5.705731e-07  0 
 1.177827e-03  -4.729562e-05  0 
 9.111431e-04  -9.743844e-05  0 
 5.562255e-04  -3.717273e-05  0 
 2.079204e-03  -1.528964e-05  0 
 1.987252e-03  2.149713e-05  0 
 2.018955e-03  -2.333006e-05  0 
 2.002486e-03  7.824147e-05  0 
 2.272778e-03  6.590598e-05  0 
 2.240083e-03  -9.450184e-06  0 
 2.108135e-03  6.049139e-05  0 
 2.175017e-03  -8.427364e-05  0 
 2.091216e-03  -4.662202e-05  0 
 1.945315e-03  5.519730e-05  0 
 1.234714e-03  6.260790e-05  0 
 6.776529e-04  7.330111e-05  0 
 1.684014e-03  4.223498e-05  0 
 6.656545e-04  -7.142269e-07  0 
 1.542429e-03  1.523366e-05  0 
 4.707934e-04  1.006148e-04  0 
 1.766446e-03  1.490093e-05  0 
 1.754168e-03  4.968885e-05  0 
 1.269958e-03  7.622819e-05  0 
 1.090049e-03  -2.603754e-05  0 
 1.304964e-03  -1.865488e-05  0 
 8.776983e-04  -8.054243e-05  0 
 1.503186e-03  5.659688e-05  0 
 8.500088e-04  8.784089e-05  0 
 4.665444e-04  3.800227e-05  0 
 2.117249e-04  1.708137e-05  0 
 1.901488e-03  1.550573e-05  0 
 6.019620e-04  -1.182912e-04  0 
 1.651230e-03  5.135831e-05  0 
 4.319222e-04  -2.460934e-05  0 
 1.228593e-03  7.994223e-05  0 
 1.409762e-03  4.856070e-05  0 
 1.313550e-03  5.230419e-05  0 
 1.453954e-03  4.944586e-05  0 
 1.177625e-03  5.242673e-05  0 
 1.498496e-03  2.109989e-05  0 
 1.071976e-03  -6.435988e-05  0 
 9.315077e-04  2.014911e-05  0 
 1.394925e-03  6.062070e-05  0 
 1.048962e-03  9.764388e-05  0 
 1.383804e-03  6.843248e-05  0 
 4.121740e-04  3.041813e-05  0 
 1.854862e-03  2.314785e-05  0 
 1.705902e-03  3.540411e-05  0 
 9.044070e-04  8.865289e-05  0 
 1.601534e-03  4.221519e-05  0 
 1.448477e-03  4.973872e-05  0 
 1.106806e-03  8.897320e-05  0 
 1.566908e-03  4.856935e-05  0 
 7.810252e-04  1.148819e-04  0 
 1.590006e-03  3.146412e-05  0 
 6.636237e-04  1.132186e-04  0 
 1.322232e-03  3.451376e-06  0 
 1.775189e-03  4.396862e-05  0 
 1.284553e-03  3.545282e-05  0 
 1.060421e-03  5.407096e-05  0 
 3.723161e-04  4.069629e-05  0 
 1.513677e-03  2.523126e-05  0 
 7.887246e-04  6.610826e-05  0 
 3.973212e-04  1.067198e-04  0 
 5.560370e-04  6.594432e-05  0 
 9.691009e-04  7.930332e-05  0 
 7.399725e-04  5.402717e-05  0 
 1.134795e-03  2.265685e-05  0 
 1.792618e-03  1.520415e-05  0 
 1.772170e-03  2.278136e-05  0 
 1.759454e-03  2.778666e-05  0 
 1.659953e-03  2.019637e-05  0 
 3.194028e-04  -3.917435e-05  0 
 1.182730e-03  -5.804215e-05  0 
 1.375926e-03  -9.644290e-06  0 
 1.706607e-03  5.654752e-06  0 
 1.611117e-03  3.885277e-05  0 
 1.729729e-03  3.507387e-05  0 
VECTORS displacement_ITER7 FLOAT
 1.902956e-03  7.557929e-05  0 
 1.745816e-03  -1.599309e-05  0 
 1.528033e-03  -1.632543e-05  0 
 1.286830e-03  6.667379e-06  0 
 1.010100e-03  -7.042844e-06  0 
 6.703672e-04  -2.437128e-06  0 
 2.026965e-03  -1.124974e-05  0 
 1.999172e-03  1.410294e-05  0 
 1.979192e-03  2.762589e-05  0 
 1.959728e-03  3.209894e-05  0 
 1.935335e-03  5.504098e-05  0 
 1.919500e-03  7.181225e-05  0 
 0  0  0 
 0  0  0 
 0  0  0 
 0  0  0 
 1.731503e-03  9.774733e-05  0 
 1.553161e-03  1.034321e-04  0 
 1.327686e-03  1.107514e-04  0 
 1.111868e-03  1.179472e-04  0 
 8.602513e-04  1.095588e-04  0 
 5.145031e-04  1.548298e-04  0 
 2.122745e-03  2.330716e-05  0 
 2.066070e-03  2.822534e-05  0 
 2.083080e-03  1.957051e-05  0 
 2.057538e-03  4.297888e-05  0 
 2.092339e-03  -5.379894e-05  0 
 2.206690e-03  2.359398e-05  0 
 2.131851e-03  3.570297e-05  0 
 2.184717e-03  -1.044691e-05  0 
 2.128090e-03  -2.255780e-06  0 
 1.989978e-03  7.145432e-05  0 
 1.208626e-03  4.389776e-05  0 
 5.993497e-04  4.352564e-05  0 
 1.701630e-03  1.409844e-05  0 
 6.255425e-04  5.268534e-05  0 
 1.555419e-03  6.291548e-05  0 
 4.597044e-04  4.877136e-05  0 
 1.771388e-03  -2.357687e-05  0 
 1.770373e-03  6.328919e-05  0 
 1.228383e-03  3.194452e-05  0 
 1.082907e-03  6.603746e-05  0 
 1.282709e-03  8.113001e-05  0 
 8.554102e-04  6.357258e-05  0 
 1.500968e-03  2.201472e-05  0 
 7.997077e-04  4.693734e-05  0 
 3.764694e-04  2.417087e-05  0 
 1.840917e-04  1.416861e-05  0 
 1.912542e-03  -7.114163e-06  0 
 5.474211e-04  6.818785e-05  0 
 1.647502e-03  7.855978e-05  0 
 2.738196e-04  6.194519e-05  0 
 1.188426e-03  3.544932e-05  0 
 1.409592e-03  4.127667e-05  0 
 1.255409e-03  1.823006e-05  0 
 1.417974e-03  7.198113e-06  0 
 1.102776e-03  1.979129e-05  0 
 1.522838e-03  4.092845e-05  0 
 1.040461e-03  8.206039e-05  0 
 9.076961e-04  6.144490e-05  0 
 1.367517e-03  1.578027e-05  0 
 9.999138e-04  5.045865e-05  0 
 1.369854e-03  4.080831e-05  0 
 3.477166e-04  2.476572e-05  0 
 1.875110e-03  8.676498e-06  0 
 1.754838e-03  5.005505e-05  0 
 8.526250e-04  3.565487e-05  0 
 1.599777e-03  3.949767e-06  0 
 1.415704e-03  2.143049e-05  0 
 1.048384e-03  3.500187e-05  0 
 1.585042e-03  3.816844e-05  0 
 7.365253e-04  5.556463e-05  0 
 1.587484e-03  -1.949582e-08  0 
 5.723391e-04  4.879256e-05  0 
 1.325965e-03  5.323183e-05  0 
 1.794088e-03  7.452406e-05  0 
 1.275521e-03  4.021602e-05  0 
 1.032506e-03  4.521439e-05  0 
 2.228470e-04  4.484279e-05  0 
 1.479269e-03  8.329530e-05  0 
 7.482177e-04  4.543638e-05  0 
 2.879654e-04  4.365292e-05  0 
 4.598632e-04  3.793471e-05  0 
 9.165840e-04  3.900554e-05  0 
 6.564683e-04  3.069919e-05  0 
 1.123356e-03  5.298426e-05  0 
 1.852364e-03  3.221586e-05  0 
 1.818735e-03  2.422620e-05  0 
 1.772098e-03  4.567133e-06  0 
 1.704331e-03  3.418362e-05  0 
 1.961643e-04  1.440292e-04  0 
 1.078907e-03  1.094527e-04  0 
 1.259634e-03  1.216010e-04  0 
 1.717073e-03  1.187880e-04  0 
 1.541830e-03  1.270392e-04  0 
 1.748520e-03  9.800056e-05  0 
VECTORS displacement_ITER8 FLOAT
 1.825719e-03  -4.838047e-06  0 
 1.708113e-03  7.173048e-05  0 
 1.488807e-03  6.334120e-05  0 
 1.260423e-03  6.840437e-05  0 
 9.973287e-04  3.835622e-05  0 
 6.978849e-04  1.898073e-05  0 
 1.950499e-03  4.973180e-05  0 
 1.925736e-03  4.731872e-05  0 
 1.905381e-03  5.234809e-05  0 
 1.893387e-03  3.503668e-05  0 
 1.868601e-03  3.437615e-05  0 
 1.847974e-03  2.197022e-05  0 
 0  0  0 
 0  0  0 
 0  0  0 
 0  0  0 
 1.692489e-03  1.534122e-05  0 
 1.549812e-03  2.077200e-05  0 
 1.360352e-03  2.687998e-05  0 
 1.154713e-03  3.827267e-05  0 
 9.450399e-04  3.029468e-05  0 
 6.621488e-04  2.092942e-05  0 
 2.021733e-03  4.493237e-05  0 
 1.973168e-03  4.700534e-05  0 
 1.992264e-03  4.709669e-05  0 
 1.968548e-03  2.614662e-05  0 
 2.097740e-03  5.935014e-05  0 
 2.076295e-03  4.273608e-05  0 
 2.022132e-03  4.690046e-05  0 
 2.068139e-03  3.274377e-05  0 
 2.026059e-03  4.243921e-05  0 
 1.906367e-03  1.959012e-05  0 
 1.243454e-03  4.932606e-05  0 
 6.472413e-04  4.293272e-05  0 
 1.680017e-03  5.895128e-05  0 
 6.931953e-04  1.799861e-05  0 
 1.557522e-03  3.733133e-05  0 
 5.189562e-04  4.228256e-05  0 
 1.749785e-03  6.398728e-05  0 
 1.732254e-03  3.099391e-05  0 
 1.245373e-03  6.122953e-05  0 
 1.136961e-03  2.651040e-05  0 
 1.322821e-03  3.891220e-05  0 
 9.173917e-04  1.971552e-05  0 
 1.501677e-03  5.403930e-05  0 
 8.562967e-04  5.077863e-05  0 
 4.258857e-04  2.391029e-05  0 
 2.168801e-04  1.063776e-05  0 
 1.867076e-03  6.847300e-05  0 
 6.515032e-04  -9.234177e-06  0 
 1.629724e-03  2.739630e-05  0 
 3.722389e-04  -1.911191e-05  0 
 1.223500e-03  5.154655e-05  0 
 1.424796e-03  5.142552e-05  0 
 1.248700e-03  6.330638e-05  0 
 1.394670e-03  7.092956e-05  0 
 1.096026e-03  5.946402e-05  0 
 1.525612e-03  3.451099e-05  0 
 1.097472e-03  3.959525e-05  0 
 9.697919e-04  2.775739e-05  0 
 1.378856e-03  5.140781e-05  0 
 1.041724e-03  5.861643e-05  0 
 1.386069e-03  5.642949e-05  0 
 3.966481e-04  2.398665e-05  0 
 1.831196e-03  5.484427e-05  0 
 1.724374e-03  4.340552e-05  0 
 8.766254e-04  5.086150e-05  0 
 1.569338e-03  7.839054e-05  0 
 1.407301e-03  7.540287e-05  0 
 1.065460e-03  5.250260e-05  0 
 1.583214e-03  5.679862e-05  0 
 7.876706e-04  4.763425e-05  0 
 1.572499e-03  6.310383e-05  0 
 6.327725e-04  3.543897e-05  0 
 1.355827e-03  2.952903e-05  0 
 1.745423e-03  1.740019e-05  0 
 1.308790e-03  3.157172e-05  0 
 1.083342e-03  2.952262e-05  0 
 2.891593e-04  -1.635123e-05  0 
 1.489608e-03  2.986034e-05  0 
 8.163916e-04  2.368820e-05  0 
 3.218108e-04  3.138504e-05  0 
 5.133058e-04  1.095200e-05  0 
 9.716922e-04  4.542800e-05  0 
 7.097640e-04  3.785903e-05  0 
 1.171336e-03  2.967796e-05  0 
 1.805728e-03  3.996622e-05  0 
 1.775710e-03  5.200102e-05  0 
 1.748412e-03  6.742687e-05  0 
 1.680235e-03  3.883206e-05  0 
 3.539895e-04  -2.765171e-06  0 
 1.125619e-03  -5.002492e-06  0 
 1.290970e-03  1.967168e-05  0 
 1.671862e-03  -2.825800e-05  0 
 1.538226e-03  -2.754248e-07  0 
 1.700756e-03  -1.779310e-05  0 
VECTORS displacement_ITER9 FLOAT
 1.835592e-03  1.325078e-05  0 
 1.701807e-03  2.548519e-05  0 
 1.500143e-03  3.245050e-05  0 
 1.264863e-03  3.340240e-05  0 
 9.897490e-04  2.743464e-05  0 
 6.920200e-04  1.226067e-05  0 
 1.956523e-03  1.824263e-05  0 
 1.935072e-03  1.702973e-05  0 
 1.911635e-03  1.861593e-05  0 
 1.890596e-03  9.517524e-06  0 
 1.868818e-03  1.485078e-05  0 
 1.853039e-03  1.760151e-05  0 
 0  0  0 
 0  0  0 
 0  0  0 
 0  0  0 
 1.699519e-03  1.734752e-05  0 
 1.543225e-03  1.686259e-05  0 
 1.352454e-03  1.818699e-05  0 
 1.116908e-03  2.199168e-05  0 
 8.818900e-04  2.068037e-05  0 
 6.196907e-04  8.671440e-06  0 
 2.026535e-03  7.854062e-06  0 
 1.977866e-03  9.946690e-06  0 
 1.998773e-03  1.265957e-05  0 
 1.964851e-03  8.252630e-06  0 
 2.052956e-03  -4.300177e-07  0 
 2.069791e-03  6.098749e-06  0 