# vtk DataFile Version 3.1
this is an vtk file created by FEMAC
ASCII
DATASET UNSTRUCTURED_GRID
POINTS 12 FLOAT
0.000000 0.000000 0.000000
0.500000 0.000000 0.000000
0.000000 0.200000 0.000000
0.500000 0.200000 0.000000
0.000000 0.400000 0.000000
0.500000 0.400000 0.000000
0.000000 0.600000 0.000000
0.500000 0.600000 0.000000
0.000000 0.800000 0.000000
0.500000 0.800000 0.000000
0.000000 1.000000 0.000000
0.500000 1.000000 0.000000
CELLS 5 25 
4 0 1 3 2
4 2 3 5 4
4 4 5 7 6
4 6 7 9 8
4 8  9 11 10
CELL_TYPES 5
9 9 9 9 9 
POINT_DATA 12
VECTORS displacement_ITER1 FLOAT
 0  0  0 
 -4.461109e-04  -1.557000e-04  0 
 0  -1.697405e-05  0 
 -4.114222e-04  -1.647905e-04  0 
 0  -1.061221e-05  0 
 -7.140129e-05  -2.123348e-04  0 
 0  -1.578460e-05  0 
 9.520594e-05  -2.193033e-04  0 
 0  -1.848311e-04  0 
 4.319646e-04  -2.073039e-04  0 
 0  -2.026301e-04  0 
 3.973293e-04  -1.934428e-04  0 
VECTORS displacement_ITER2 FLOAT
 0  0  0 
 -4.495661e-04  -1.562903e-04  0 
 0  -1.686816e-05  0 
 -4.126617e-04  -1.664505e-04  0 
 0  -1.620566e-05  0 
 -6.844361e-05  -2.195657e-04  0 
 0  -2.037687e-05  0 
 9.775957e-05  -2.288462e-04  0 
 0  -1.894891e-04  0 
 4.350915e-04  -1.996541e-04  0 
 0  -2.063682e-04  0 
 3.926457e-04  -1.871353e-04  0 
VECTORS displacement_ITER3 FLOAT
 0  0  0 
 -4.538575e-04  -1.655651e-04  0 
 0  -1.479366e-05  0 
 -4.082782e-04  -1.796651e-04  0 
 0  -1.870382e-05  0 
 -6.358388e-05  -2.075440e-04  0 
 0  -2.266367e-05  0 
 9.435703e-05  -2.177215e-04  0 
 0  -1.921861e-04  0 
 4.321805e-04  -2.120603e-04  0 
 0  -2.108506e-04  0 
 3.937144e-04  -1.967921e-04  0 
VECTORS displacement_ITER4 FLOAT
 0  0  0 
 -4.525533e-04  -1.623262e-04  0 
 0  -1.449587e-05  0 
 -4.086289e-04  -1.773828e-04  0 
 0  -1.939810e-05  0 
 -6.479286e-05  -2.085601e-04  0 
 0  -2.274615e-05  0 
 9.360013e-05  -2.202382e-04  0 
 0  -1.918816e-04  0 
 4.324583e-04  -2.122861e-04  0 
 0  -2.105066e-04  0 
 3.946529e-04  -1.969440e-04  0 
VECTORS displacement_ITER5 FLOAT
 0  0  0 
 -4.523997e-04  -1.617578e-04  0 
 0  -1.445661e-05  0 
 -4.087850e-04  -1.769517e-04  0 
 0  -1.938328e-05  0 
 -6.490556e-05  -2.090446e-04  0 
 0  -2.277675e-05  0 
 9.377783e-05  -2.206712e-04  0 
 0  -1.919448e-04  0 
 4.323941e-04  -2.124189e-04  0 
 0  -2.105722e-04  0 
 3.946701e-04  -1.970460e-04  0 
VECTORS displacement_ITER6 FLOAT
 0  0  0 
 -4.525813e-04  -1.620405e-04  0 
 0  -1.442386e-05  0 
 -4.087994e-04  -1.772558e-04  0 
 0  -1.915349e-05  0 
 -6.472444e-05  -2.087881e-04  0 
 0  -2.247837e-05  0 
 9.404710e-05  -2.205041e-04  0 
 0  -1.915693e-04  0 
 4.322933e-04  -2.118464e-04  0 
 0  -2.101768e-04  0 
 3.944831e-04  -1.964784e-04  0 
VECTORS displacement_ITER7 FLOAT
 0  0  0 
 -4.525871e-04  -1.620193e-04  0 
 0  -1.442522e-05  0 
 -4.088247e-04  -1.772312e-04  0 
 0  -1.916842e-05  0 
 -6.468486e-05  -2.087806e-04  0 
 0  -2.250476e-05  0 
 9.406099e-05  -2.204826e-04  0 
 0  -1.915969e-04  0 
 4.322667e-04  -2.119286e-04  0 
 0  -2.102110e-04  0 
 3.944872e-04  -1.965496e-04  0 
VECTORS displacement_ITER8 FLOAT
 0  0  0 
 -4.525870e-04  -1.620193e-04  0 
 0  -1.442533e-05  0 
 -4.088250e-04  -1.772308e-04  0 
 0  -1.916814e-05  0 
 -6.468453e-05  -2.087787e-04  0 
 0  -2.250411e-05  0 
 9.406011e-05  -2.204812e-04  0 
 0  -1.915950e-04  0 
 4.322670e-04  -2.119266e-04  0 
 0  -2.102090e-04  0 
 3.944876e-04  -1.965475e-04  0 
VECTORS displacement_ITER9 FLOAT
 0  0  0 
 -4.525870e-04  -1.620193e-04  0 
 0  -1.442533e-05  0 
 -4.088250e-04  -1.772308e-04  0 
 0  -1.916814e-05  0 
 -6.468453e-05  -2.087787e-04  0 
 0  -2.250411e-05  0 
 9.406011e-05  -2.204812e-04  0 
 0  -1.915950e-04  0 
 4.322670e-04  -2.119266e-04  0 
 0  -2.102090e-04  0 
 3.944876e-04  -1.965475e-04  0 
VECTORS displacement_ITER10 FLOAT
 0  0  0 
 3.843256e-02  3.569486e-02  0 
 0  2.987764e-03  0 
 2.222959e-02  3.785197e-02  0 
 0  1.695522e-02  0 
 -1.885445e-02  3.103170e-02  0 
 0  1.891431e-02  0 
 -2.960836e-02  3.073838e-02  0 
 0  4.027773e-02  0 
 -5.707297e-02  4.100834e-02  0 
 0  4.317290e-02  0 
 -4.973210e-02  3.812321e-02  0 
VECTORS displacement_ITER11 FLOAT
 0  0  0 
 3.461221e+09  -3.606834e+12  0 
 0  -5.029411e+11  0 
 2.306378e+12  -4.015199e+12  0 
 0  -4.488516e+12  0 
 2.243378e+12  -5.646814e+12  0 
 0  -4.885461e+12  0 
 2.964537e+12  -5.655063e+12  0 
 0  -7.836681e+12  0 
 4.602149e+12  -8.426831e+12  0 
 0  -8.390929e+12  0 
 3.775752e+12  -7.681618e+12  0 
VECTORS displacement_ITER12 FLOAT
 0  0  0 
 -1.009649e+28  -1.745273e+28  0 
 0  -2.271452e+27  0 
 -2.791593e+27  -1.663372e+28  0 
 0  -8.465210e+27  0 
 1.031711e+27  -9.037380e+27  0 
 0  -9.665841e+27  0 
 2.219175e+26  -6.874217e+27  0 
 0  -1.035537e+28  0 
 -4.009843e+27  -9.522614e+27  0 
 0  -9.355704e+27  0 
 -3.507737e+27  -1.190239e+28  0 
VECTORS displacement_ITER13 FLOAT
 0  0  0 
 -3.681106e+42  3.226234e+42  0 
 0  -7.796296e+40  0 
 -7.142964e+42  2.655953e+42  0 
 0  9.282137e+41  0 
 1.918880e+42  -5.104544e+42  0 
 0  1.344023e+42  0 
 4.728389e+42  -5.556519e+42  0 
 0  5.158391e+42  0 
 -6.845744e+41  1.014619e+43  0 
 0  6.662212e+42  0 
 -1.106487e+42  8.164030e+42  0 
VECTORS displacement_ITER14 FLOAT
 0  0  0 
 -7.976027e+56  -1.147491e+58  0 
 0  -4.913734e+56  0 
 6.929422e+57  -1.202442e+58  0 
 0  -5.434172e+57  0 
 5.760358e+57  -4.340853e+57  0 
 0  -5.500943e+57  0 
 6.024239e+57  -4.824283e+57  0 
 0  -7.142920e+57  0 
 -3.638297e+56  -9.253911e+57  0 
 0  -7.421367e+57  0 
 7.576795e+56  -8.804460e+57  0 
VECTORS displacement_ITER15 FLOAT
 0  0  0 
 -5.717519e+72  -3.698156e+73  0 
 0  -1.076535e+73  0 
 9.434299e+72  -3.258621e+73  0 
 0  -5.421512e+73  0 
 1.444427e+73  -7.211352e+73  0 
 0  -5.656025e+73  0 
 2.561706e+73  -7.712974e+73  0 
 0  -8.315115e+73  0 
 3.068899e+73  -8.909884e+73  0 
 0  -8.435447e+73  0 
 2.999718e+73  -8.980219e+73  0 
VECTORS displacement_ITER16 FLOAT
 0  0  0 
 -8.869225e+88  -5.415554e+88  0 
 0  8.326486e+87  0 
 -5.140452e+88  -6.553254e+88  0 
 0  2.263546e+88  0 
 1.385422e+89  -2.485422e+88  0 
 0  3.052736e+88  0 
 1.361768e+89  -1.802020e+88  0 
 0  1.257638e+89  0 
 2.078450e+87  3.270085e+89  0 
 0  1.366061e+89  0 
 -1.103237e+89  3.328938e+89  0 
VECTORS displacement_ITER17 FLOAT
 0  0  0 
 -8.869225e+88  -5.415554e+88  0 
 0  8.326486e+87  0 
 -5.140452e+88  -6.553254e+88  0 
 0  2.263546e+88  0 
 1.385422e+89  -2.485422e+88  0 
 0  3.052736e+88  0 
 1.361768e+89  -1.802020e+88  0 
 0  1.257638e+89  0 
 2.078450e+87  3.270085e+89  0 
 0  1.366061e+89  0 
 -1.103237e+89  3.328938e+89  0 
VECTORS displacement_ITER18 FLOAT
 0  0  0 
 -8.869225e+88  -5.415554e+88  0 
 0  8.326486e+87  0 
 -5.140452e+88  -6.553254e+88  0 
 0  2.263546e+88  0 
 1.385422e+89  -2.485422e+88  0 
 0  3.052736e+88  0 
 1.361768e+89  -1.802020e+88  0 
 0  1.257638e+89  0 
 2.078450e+87  3.270085e+89  0 
 0  1.366061e+89  0 
 -1.103237e+89  3.328938e+89  0 
VECTORS displacement_ITER19 FLOAT
 0  0  0 
 -8.869225e+88  -5.415554e+88  0 
 0  8.326486e+87  0 
 -5.140452e+88  -6.553254e+88  0 
 0  2.263546e+88  0 
 1.385422e+89  -2.485422e+88  0 
 0  3.052736e+88  0 
 1.361768e+89  -1.802020e+88  0 
 0  1.257638e+89  0 
 2.078450e+87  3.270085e+89  0 
 0  1.366061e+89  0 
 -1.103237e+89  3.328938e+89  0 
VECTORS displacement_ITER20 FLOAT
 0  0  0 
 -8.869225e+88  -5.415554e+88  0 
 0  8.326486e+87  0 
 -5.140452e+88  -6.553254e+88  0 
 0  2.263546e+88  0 
 1.385422e+89  -2.485422e+88  0 
 0  3.052736e+88  0 
 1.361768e+89  -1.802020e+88  0 
 0  1.257638e+89  0 
 2.078450e+87  3.270085e+89  0 
 0  1.366061e+89  0 
 -1.103237e+89  3.328938e+89  0 
VECTORS displacement_ITER21 FLOAT
 0  0  0 
 -8.869225e+88  -5.415554e+88  0 
 0  8.326486e+87  0 
 -5.140452e+88  -6.553254e+88  0 
 0  2.263546e+88  0 
 1.385422e+89  -2.485422e+88  0 
 0  3.052736e+88  0 
 1.361768e+89  -1.802020e+88  0 
 0  1.257638e+89  0 
 2.078450e+87  3.270085e+89  0 
 0  1.366061e+89  0 
 -1.103237e+89  3.328938e+89  0 
VECTORS displacement_ITER22 FLOAT
 0  0  0 
 -8.869225e+88  -5.415554e+88  0 
 0  8.326486e+87  0 
 -5.140452e+88  -6.553254e+88  0 
 0  2.263546e+88  0 
 1.385422e+89  -2.485422e+88  0 
 0  3.052736e+88  0 
 1.361768e+89  -1.802020e+88  0 
 0  1.257638e+89  0 
 2.078450e+87  3.270085e+89  0 
 0  1.366061e+89  0 
 -1.103237e+89  3.328938e+89  0 
VECTORS displacement_ITER23 FLOAT
 0  0  0 
 -8.869225e+88  -5.415554e+88  0 
 0  8.326486e+87  0 
 -5.140452e+88  -6.553254e+88  0 
 0  2.263546e+88  0 
 1.385422e+89  -2.485422e+88  0 
 0  3.052736e+88  0 
 1.361768e+89  -1.802020e+88  0 
 0  1.257638e+89  0 
 2.078450e+87  3.270085e+89  0 
 0  1.366061e+89  0 
 -1.103237e+89  3.328938e+89  0 
VECTORS displacement_ITER24 FLOAT
 0  0  0 
 -8.869225e+88  -5.415554e+88  0 
 0  8.326486e+87  0 
 -5.140452e+88  -6.553254e+88  0 
 0  2.263546e+88  0 
 1.385422e+89  -2.485422e+88  0 
 0  3.052736e+88  0 
 1.361768e+89  -1.802020e+88  0 
 0  1.257638e+89  0 
 2.078450e+87  3.270085e+89  0 
 0  1.366061e+89  0 
 -1.103237e+89  3.328938e+89  0 
VECTORS displacement_ITER25 FLOAT
 0  0  0 
 -8.869225e+88  -5.415554e+88  0 
 0  8.326486e+87  0 
 -5.140452e+88  -6.553254e+88  0 
 0  2.263546e+88  0 
 1.385422e+89  -2.485422e+88  0 
 0  3.052736e+88  0 
 1.361768e+89  -1.802020e+88  0 
 0  1.257638e+89  0 
 2.078450e+87  3.270085e+89  0 
 0  1.366061e+89  0 
 -1.103237e+89  3.328938e+89  0 
VECTORS displacement_ITER26 FLOAT
 0  0  0 
 -8.869225e+88  -5.415554e+88  0 
 0  8.326486e+87  0 
 -5.140452e+88  -6.553254e+88  0 
 0  2.263546e+88  0 
 1.385422e+89  -2.485422e+88  0 
 0  3.052736e+88  0 
 1.361768e+89  -1.802020e+88  0 
 0  1.257638e+89  0 
 2.078450e+87  3.270085e+89  0 
 0  1.366061e+89  0 
 -1.103237e+89  3.328938e+89  0 
VECTORS displacement_ITER27 FLOAT
 0  0  0 
 -8.869225e+88  -5.415554e+88  0 
 0  8.326486e+87  0 
 -5.140452e+88  -6.553254e+88  0 
 0  2.263546e+88  0 
 1.385422e+89  -2.485422e+88  0 
 0  3.052736e+88  0 
 1.361768e+89  -1.802020e+88  0 
 0  1.257638e+89  0 
 2.078450e+87  3.270085e+89  0 
 0  1.366061e+89  0 
 -1.103237e+89  3.328938e+89  0 
VECTORS displacement_ITER28 FLOAT
 0  0  0 
 -8.869225e+88  -5.415554e+88  0 
 0  8.326486e+87  0 
 -5.140452e+88  -6.553254e+88  0 
 0  2.263546e+88  0 
 1.385422e+89  -2.485422e+88  0 
 0  3.052736e+88  0 
 1.361768e+89  -1.802020e+88  0 
 0  1.257638e+89  0 
 2.078450e+87  3.270085e+89  0 
 0  1.366061e+89  0 
 -1.103237e+89  3.328938e+89  0 
VECTORS displacement_ITER29 FLOAT
 0  0  0 
 -8.869225e+88  -5.415554e+88  0 
 0  8.326486e+87  0 
 -5.140452e+88  -6.553254e+88  0 
 0  2.263546e+88  0 
 1.385422e+89  -2.485422e+88  0 
 0  3.052736e+88  0 
 1.361768e+89  -1.802020e+88  0 
 0  1.257638e+89  0 
 2.078450e+87  3.270085e+89  0 
 0  1.366061e+89  0 
 -1.103237e+89  3.328938e+89  0 
VECTORS displacement_ITER30 FLOAT
 0  0  0 
 -8.869225e+88  -5.415554e+88  0 
 0  8.326486e+87  0 
 -5.140452e+88  -6.553254e+88  0 
 0  2.263546e+88  0 
 1.385422e+89  -2.485422e+88  0 
 0  3.052736e+88  0 
 1.361768e+89  -1.802020e+88  0 
 0  1.257638e+89  0 
 2.078450e+87  3.270085e+89  0 
 0  1.366061e+89  0 
 -1.103237e+89  3.328938e+89  0 
VECTORS displacement_ITER31 FLOAT
 0  0  0 
 -8.869225e+88  -5.415554e+88  0 
 0  8.326486e+87  0 
 -5.140452e+88  -6.553254e+88  0 
 0  2.263546e+88  0 
 1.385422e+89  -2.485422e+88  0 
 0  3.052736e+88  0 
 1.361768e+89  -1.802020e+88  0 
 0  1.257638e+89  0 
 2.078450e+87  3.270085e+89  0 
 0  1.366061e+89  0 
 -1.103237e+89  3.328938e+89  0 
VECTORS displacement_ITER32 FLOAT
 0  0  0 
 -8.869225e+88  -5.415554e+88  0 
 0  8.326486e+87  0 
 -5.140452e+88  -6.553254e+88  0 
 0  2.263546e+88  0 
 1.385422e+89  -2.485422e+88  0 
 0  3.052736e+88  0 
 1.361768e+89  -1.802020e+88  0 
 0  1.257638e+89  0 
 2.078450e+87  3.270085e+89  0 
 0  1.366061e+89  0 
 -1.103237e+89  3.328938e+89  0 
VECTORS displacement_ITER33 FLOAT
 0  0  0 
 -8.869225e+88  -5.415554e+88  0 
 0  8.326486e+87  0 
 -5.140452e+88  -6.553254e+88  0 
 0  2.263546e+88  0 
 1.385422e+89  -2.485422e+88  0 
 0  3.052736e+88  0 
 1.361768e+89  -1.802020e+88  0 
 0  1.257638e+89  0 
 2.078450e+87  3.270085e+89  0 
 0  1.366061e+89  0 
 -1.103237e+89  3.328938e+89  0 
VECTORS displacement_ITER34 FLOAT
 0  0  0 
 -8.869225e+88  -5.415554e+88  0 
 0  8.326486e+87  0 
 -5.140452e+88  -6.553254e+88  0 
 0  2.263546e+88  0 
 1.385422e+89  -2.485422e+88  0 
 0  3.052736e+88  0 
 1.361768e+89  -1.802020e+88  0 
 0  1.257638e+89  0 
 2.078450e+87  3.270085e+89  0 
 0  1.366061e+89  0 
 -1.103237e+89  3.328938e+89  0 
VECTORS displacement_ITER35 FLOAT
 0  0  0 
 -8.869225e+88  -5.415554e+88  0 
 0  8.326486e+87  0 
 -5.140452e+88  -6.553254e+88  0 
 0  2.263546e+88  0 
 1.385422e+89  -2.485422e+88  0 
 0  3.052736e+88  0 
 1.361768e+89  -1.802020e+88  0 
 0  1.257638e+89  0 
 2.078450e+87  3.270085e+89  0 
 0  1.366061e+89  0 
 -1.103237e+89  3.328938e+89  0 
VECTORS displacement_ITER36 FLOAT
 0  0  0 
 -8.869225e+88  -5.415554e+88  0 
 0  8.326486e+87  0 
 -5.140452e+88  -6.553254e+88  0 
 0  2.263546e+88  0 
 1.385422e+89  -2.485422e+88  0 
 0  3.052736e+88  0 
 1.361768e+89  -1.802020e+88  0 
 0  1.257638e+89  0 
 2.078450e+87  3.270085e+89  0 
 0  1.366061e+89  0 
 -1.103237e+89  3.328938e+89  0 
VECTORS displacement_ITER37 FLOAT
 0  0  0 
 -8.869225e+88  -5.415554e+88  0 
 0  8.326486e+87  0 
 -5.140452e+88  -6.553254e+88  0 
 0  2.263546e+88  0 
 1.385422e+89  -2.485422e+88  0 
 0  3.052736e+88  0 
 1.361768e+89  -1.802020e+88  0 
 0  1.257638e+89  0 
 2.078450e+87  3.270085e+89  0 
 0  1.366061e+89  0 
 -1.103237e+89  3.328938e+89  0 
VECTORS displacement_ITER38 FLOAT
 0  0  0 
 -8.869225e+88  -5.415554e+88  0 
 0  8.326486e+87  0 
 -5.140452e+88  -6.553254e+88  0 
 0  2.263546e+88  0 
 1.385422e+89  -2.485422e+88  0 
 0  3.052736e+88  0 
 1.361768e+89  -1.802020e+88  0 
 0  1.257638e+89  0 
 2.078450e+87  3.270085e+89  0 
 0  1.366061e+89  0 
 -1.103237e+89  3.328938e+89  0 
VECTORS displacement_ITER39 FLOAT
 0  0  0 
 -8.869225e+88  -5.415554e+88  0 
 0  8.326486e+87  0 
 -5.140452e+88  -6.553254e+88  0 
 0  2.263546e+88  0 
 1.385422e+89  -2.485422e+88  0 
 0  3.052736e+88  0 
 1.361768e+89  -1.802020e+88  0 
 0  1.257638e+89  0 
 2.078450e+87  3.270085e+89  0 
 0  1.366061e+89  0 
 -1.103237e+89  3.328938e+89  0 
VECTORS displacement_ITER40 FLOAT
 0  0  0 
 -8.869225e+88  -5.415554e+88  0 
 0  8.326486e+87  0 
 -5.140452e+88  -6.553254e+88  0 
 0  2.263546e+88  0 
 1.385422e+89  -2.485422e+88  0 
 0  3.052736e+88  0 
 1.361768e+89  -1.802020e+88  0 
 0  1.257638e+89  0 
 2.078450e+87  3.270085e+89  0 
 0  1.366061e+89  0 
 -1.103237e+89  3.328938e+89  0 
VECTORS displacement_ITER41 FLOAT
 0  0  0 
 -8.869225e+88  -5.415554e+88  0 
 0  8.326486e+87  0 
 -5.140452e+88  -6.553254e+88  0 
 0  2.263546e+88  0 
 1.385422e+89  -2.485422e+88  0 
 0  3.052736e+88  0 
 1.361768e+89  -1.802020e+88  0 
 0  1.257638e+89  0 
 2.078450e+87  3.270085e+89  0 
 0  1.366061e+89  0 
 -1.103237e+89  3.328938e+89  0 
VECTORS displacement_ITER42 FLOAT
 0  0  0 
 -8.869225e+88  -5.415554e+88  0 
 0  8.326486e+87  0 
 -5.140452e+88  -6.553254e+88  0 
 0  2.263546e+88  0 
 1.385422e+89  -2.485422e+88  0 
 0  3.052736e+88  0 
 1.361768e+89  -1.802020e+88  0 
 0  1.257638e+89  0 
 2.078450e+87  3.270085e+89  0 
 0  1.366061e+89  0 
 -1.103237e+89  3.328938e+89  0 
VECTORS displacement_ITER43 FLOAT
 0  0  0 
 -8.869225e+88  -5.415554e+88  0 
 0  8.326486e+87  0 
 -5.140452e+88  -6.553254e+88  0 
 0  2.263546e+88  0 
 1.385422e+89  -2.485422e+88  0 
 0  3.052736e+88  0 
 1.361768e+89  -1.802020e+88  0 
 0  1.257638e+89  0 
 2.078450e+87  3.270085e+89  0 
 0  1.366061e+89  0 
 -1.103237e+89  3.328938e+89  0 
VECTORS displacement_ITER44 FLOAT
 0  0  0 
 -8.869225e+88  -5.415554e+88  0 
 0  8.326486e+87  0 
 -5.140452e+88  -6.553254e+88  0 
 0  2.263546e+88  0 
 1.385422e+89  -2.485422e+88  0 
 0  3.052736e+88  0 
 1.361768e+89  -1.802020e+88  0 
 0  1.257638e+89  0 
 2.078450e+87  3.270085e+89  0 
 0  1.366061e+89  0 
 -1.103237e+89  3.328938e+89  0 
VECTORS displacement_ITER45 FLOAT
 0  0  0 
 -8.869225e+88  -5.415554e+88  0 
 0  8.326486e+87  0 
 -5.140452e+88  -6.553254e+88  0 
 0  2.263546e+88  0 
 1.385422e+89  -2.485422e+88  0 
 0  3.052736e+88  0 
 1.361768e+89  -1.802020e+88  0 
 0  1.257638e+89  0 
 2.078450e+87  3.270085e+89  0 
 0  1.366061e+89  0 
 -1.103237e+89  3.328938e+89  0 
VECTORS displacement_ITER46 FLOAT
 0  0  0 
 -8.869225e+88  -5.415554e+88  0 
 0  8.326486e+87  0 
 -5.140452e+88  -6.553254e+88  0 
 0  2.263546e+88  0 
 1.385422e+89  -2.485422e+88  0 
 0  3.052736e+88  0 
 1.361768e+89  -1.802020e+88  0 
 0  1.257638e+89  0 
 2.078450e+87  3.270085e+89  0 
 0  1.366061e+89  0 
 -1.103237e+89  3.328938e+89  0 
VECTORS displacement_ITER47 FLOAT
 0  0  0 
 -8.869225e+88  -5.415554e+88  0 
 0  8.326486e+87  0 
 -5.140452e+88  -6.553254e+88  0 
 0  2.263546e+88  0 
 1.385422e+89  -2.485422e+88  0 
 0  3.052736e+88  0 
 1.361768e+89  -1.802020e+88  0 
 0  1.257638e+89  0 
 2.078450e+87  3.270085e+89  0 
 0  1.366061e+89  0 
 -1.103237e+89  3.328938e+89  0 
VECTORS displacement_ITER48 FLOAT
 0  0  0 
 -8.869225e+88  -5.415554e+88  0 
 0  8.326486e+87  0 
 -5.140452e+88  -6.553254e+88  0 
 0  2.263546e+88  0 
 1.385422e+89  -2.485422e+88  0 
 0  3.052736e+88  0 
 1.361768e+89  -1.802020e+88  0 
 0  1.257638e+89  0 
 2.078450e+87  3.270085e+89  0 
 0  1.366061e+89  0 
 -1.103237e+89  3.328938e+89  0 
VECTORS displacement_ITER49 FLOAT
 0  0  0 
 -8.869225e+88  -5.415554e+88  0 
 0  8.326486e+87  0 
 -5.140452e+88  -6.553254e+88  0 
 0  2.263546e+88  0 
 1.385422e+89  -2.485422e+88  0 
 0  3.052736e+88  0 
 1.361768e+89  -1.802020e+88  0 
 0  1.257638e+89  0 
 2.078450e+87  3.270085e+89  0 
 0  1.366061e+89  0 
 -1.103237e+89  3.328938e+89  0 
VECTORS displacement_ITER50 FLOAT
 0  0  0 
 -8.869225e+88  -5.415554e+88  0 
 0  8.326486e+87  0 
 -5.140452e+88  -6.553254e+88  0 
 0  2.263546e+88  0 
 1.385422e+89  -2.485422e+88  0 
 0  3.052736e+88  0 
 1.361768e+89  -1.802020e+88  0 
 0  1.257638e+89  0 
 2.078450e+87  3.270085e+89  0 
 0  1.366061e+89  0 
 -1.103237e+89  3.328938e+89  0 
VECTORS displacement_ITER51 FLOAT
 0  0  0 
 -8.869225e+88  -5.415554e+88  0 
 0  8.326486e+87  0 
 -5.140452e+88  -6.553254e+88  0 
 0  2.263546e+88  0 
 1.385422e+89  -2.485422e+88  0 
 0  3.052736e+88  0 
 1.361768e+89  -1.802020e+88  0 
 0  1.257638e+89  0 
 2.078450e+87  3.270085e+89  0 
 0  1.366061e+89  0 
 -1.103237e+89  3.328938e+89  0 
VECTORS displacement_ITER52 FLOAT
 0  0  0 
 -8.869225e+88  -5.415554e+88  0 
 0  8.326486e+87  0 
 -5.140452e+88  -6.553254e+88  0 
 0  2.263546e+88  0 
 1.385422e+89  -2.485422e+88  0 
 0  3.052736e+88  0 
 1.361768e+89  -1.802020e+88  0 
 0  1.257638e+89  0 
 2.078450e+87  3.270085e+89  0 
 0  1.366061e+89  0 
 -1.103237e+89  3.328938e+89  0 
VECTORS displacement_ITER53 FLOAT
 0  0  0 
 -8.869225e+88  -5.415554e+88  0 
 0  8.326486e+87  0 
 -5.140452e+88  -6.553254e+88  0 
 0  2.263546e+88  0 
 1.385422e+89  -2.485422e+88  0 
 0  3.052736e+88  0 
 1.361768e+89  -1.802020e+88  0 
 0  1.257638e+89  0 
 2.078450e+87  3.270085e+89  0 
 0  1.366061e+89  0 
 -1.103237e+89  3.328938e+89  0 
VECTORS displacement_ITER54 FLOAT
 0  0  0 
 -8.869225e+88  -5.415554e+88  0 
 0  8.326486e+87  0 
 -5.140452e+88  -6.553254e+88  0 
 0  2.263546e+88  0 
 1.385422e+89  -2.485422e+88  0 
 0  3.052736e+88  0 
 1.361768e+89  -1.802020e+88  0 
 0  1.257638e+89  0 
 2.078450e+87  3.270085e+89  0 
 0  1.366061e+89  0 
 -1.103237e+89  3.328938e+89  0 
VECTORS displacement_ITER55 FLOAT
 0  0  0 
 -8.869225e+88  -5.415554e+88  0 
 0  8.326486e+87  0 
 -5.140452e+88  -6.553254e+88  0 
 0  2.263546e+88  0 
 1.385422e+89  -2.485422e+88  0 
 0  3.052736e+88  0 
 1.361768e+89  -1.802020e+88  0 
 0  1.257638e+89  0 
 2.078450e+87  3.270085e+89  0 
 0  1.366061e+89  0 
 -1.103237e+89  3.328938e+89  0 
VECTORS displacement_ITER56 FLOAT
 0  0  0 
 -8.869225e+88  -5.415554e+88  0 
 0  8.326486e+87  0 
 -5.140452e+88  -6.553254e+88  0 
 0  2.263546e+88  0 
 1.385422e+89  -2.485422e+88  0 
 0  3.052736e+88  0 
 1.361768e+89  -1.802020e+88  0 
 0  1.257638e+89  0 
 2.078450e+87  3.270085e+89  0 
 0  1.366061e+89  0 
 -1.103237e+89  3.328938e+89  0 
VECTORS displacement_ITER57 FLOAT
 0  0  0 
 -8.869225e+88  -5.415554e+88  0 
 0  8.326486e+87  0 
 -5.140452e+88  -6.553254e+88  0 
 0  2.263546e+88  0 
 1.385422e+89  -2.485422e+88  0 
 0  3.052736e+88  0 
 1.361768e+89  -1.802020e+88  0 
 0  1.257638e+89  0 
 2.078450e+87  3.270085e+89  0 
 0  1.366061e+89  0 
 -1.103237e+89  3.328938e+89  0 
VECTORS displacement_ITER58 FLOAT
 0  0  0 
 -8.869225e+88  -5.415554e+88  0 
 0  8.326486e+87  0 
 -5.140452e+88  -6.553254e+88  0 
 0  2.263546e+88  0 
 1.385422e+89  -2.485422e+88  0 
 0  3.052736e+88  0 
 1.361768e+89  -1.802020e+88  0 
 0  1.257638e+89  0 
 2.078450e+87  3.270085e+89  0 
 0  1.366061e+89  0 
 -1.103237e+89  3.328938e+89  0 
VECTORS displacement_ITER59 FLOAT
 0  0  0 
 -8.869225e+88  -5.415554e+88  0 
 0  8.326486e+87  0 
 -5.140452e+88  -6.553254e+88  0 
 0  2.263546e+88  0 
 1.385422e+89  -2.485422e+88  0 
 0  3.052736e+88  0 
 1.361768e+89  -1.802020e+88  0 
 0  1.257638e+89  0 
 2.078450e+87  3.270085e+89  0 
 0  1.366061e+89  0 
 -1.103237e+89  3.328938e+89  0 
VECTORS displacement_ITER60 FLOAT
 0  0  0 
 -8.869225e+88  -5.415554e+88  0 
 0  8.326486e+87  0 
 -5.140452e+88  -6.553254e+88  0 
 0  2.263546e+88  0 
 1.385422e+89  -2.485422e+88  0 
 0  3.052736e+88  0 
 1.361768e+89  -1.802020e+88  0 
 0  1.257638e+89  0 
 2.078450e+87  3.270085e+89  0 
 0  1.366061e+89  0 
 -1.103237e+89  3.328938e+89  0 
VECTORS displacement_ITER61 FLOAT
 0  0  0 
 -8.869225e+88  -5.415554e+88  0 
 0  8.326486e+87  0 
 -5.140452e+88  -6.553254e+88  0 
 0  2.263546e+88  0 
 1.385422e+89  -2.485422e+88  0 
 0  3.052736e+88  0 
 1.361768e+89  -1.802020e+88  0 
 0  1.257638e+89  0 
 2.078450e+87  3.270085e+89  0 
 0  1.366061e+89  0 
 -1.103237e+89  3.328938e+89  0 
VECTORS displacement_ITER62 FLOAT
 0  0  0 
 -8.869225e+88  -5.415554e+88  0 
 0  8.326486e+87  0 
 -5.140452e+88  -6.553254e+88  0 
 0  2.263546e+88  0 
 1.385422e+89  -2.485422e+88  0 
 0  3.052736e+88  0 
 1.361768e+89  -1.802020e+88  0 
 0  1.257638e+89  0 
 2.078450e+87  3.270085e+89  0 
 0  1.366061e+89  0 
 -1.103237e+89  3.328938e+89  0 
VECTORS displacement_ITER63 FLOAT
 0  0  0 
 -8.869225e+88  -5.415554e+88  0 
 0  8.326486e+87  0 
 -5.140452e+88  -6.553254e+88  0 
 0  2.263546e+88  0 
 1.385422e+89  -2.485422e+88  0 
 0  3.052736e+88  0 
 1.361768e+89  -1.802020e+88  0 
 0  1.257638e+89  0 
 2.078450e+87  3.270085e+89  0 
 0  1.366061e+89  0 
 -1.103237e+89  3.328938e+89  0 
VECTORS displacement_ITER64 FLOAT
 0  0  0 
 -8.869225e+88  -5.415554e+88  0 
 0  8.326486e+87  0 
 -5.140452e+88  -6.553254e+88  0 
 0  2.263546e+88  0 
 1.385422e+89  -2.485422e+88  0 
 0  3.052736e+88  0 
 1.361768e+89  -1.802020e+88  0 
 0  1.257638e+89  0 
 2.078450e+87  3.270085e+89  0 
 0  1.366061e+89  0 
 -1.103237e+89  3.328938e+89  0 
VECTORS displacement_ITER65 FLOAT
 0  0  0 
 -8.869225e+88  -5.415554e+88  0 
 0  8.326486e+87  0 
 -5.140452e+88  -6.553254e+88  0 
 0  2.263546e+88  0 
 1.385422e+89  -2.485422e+88  0 
 0  3.052736e+88  0 
 1.361768e+89  -1.802020e+88  0 
 0  1.257638e+89  0 
 2.078450e+87  3.270085e+89  0 
 0  1.366061e+89  0 
 -1.103237e+89  3.328938e+89  0 
VECTORS displacement_ITER66 FLOAT
 0  0  0 
 -8.869225e+88  -5.415554e+88  0 
 0  8.326486e+87  0 
 -5.140452e+88  -6.553254e+88  0 
 0  2.263546e+88  0 
 1.385422e+89  -2.485422e+88  0 
 0  3.052736e+88  0 
 1.361768e+89  -1.802020e+88  0 
 0  1.257638e+89  0 
 2.078450e+87  3.270085e+89  0 
 0  1.366061e+89  0 
 -1.103237e+89  3.328938e+89  0 
VECTORS displacement_ITER67 FLOAT
 0  0  0 
 -8.869225e+88  -5.415554e+88  0 
 0  8.326486e+87  0 
 -5.140452e+88  -6.553254e+88  0 
 0  2.263546e+88  0 
 1.385422e+89  -2.485422e+88  0 
 0  3.052736e+88  0 
 1.361768e+89  -1.802020e+88  0 
 0  1.257638e+89  0 
 2.078450e+87  3.270085e+89  0 
 0  1.366061e+89  0 
 -1.103237e+89  3.328938e+89  0 
VECTORS displacement_ITER68 FLOAT
 0  0  0 
 -8.869225e+88  -5.415554e+88  0 
 0  8.326486e+87  0 
 -5.140452e+88  -6.553254e+88  0 
 0  2.263546e+88  0 
 1.385422e+89  -2.485422e+88  0 
 0  3.052736e+88  0 
 1.361768e+89  -1.802020e+88  0 
 0  1.257638e+89  0 
 2.078450e+87  3.270085e+89  0 
 0  1.366061e+89  0 
 -1.103237e+89  3.328938e+89  0 
VECTORS displacement_ITER69 FLOAT
 0  0  0 
 -8.869225e+88  -5.415554e+88  0 
 0  8.326486e+87  0 
 -5.140452e+88  -6.553254e+88  0 
 0  2.263546e+88  0 
 1.385422e+89  -2.485422e+88  0 
 0  3.052736e+88  0 
 1.361768e+89  -1.802020e+88  0 
 0  1.257638e+89  0 
 2.078450e+87  3.270085e+89  0 
 0  1.366061e+89  0 
 -1.103237e+89  3.328938e+89  0 
VECTORS displacement_ITER70 FLOAT
 0  0  0 
 -8.869225e+88  -5.415554e+88  0 
 0  8.326486e+87  0 
 -5.140452e+88  -6.553254e+88  0 
 0  2.263546e+88  0 
 1.385422e+89  -2.485422e+88  0 
 0  3.052736e+88  0 
 1.361768e+89  -1.802020e+88  0 
 0  1.257638e+89  0 
 2.078450e+87  3.270085e+89  0 
 0  1.366061e+89  0 
 -1.103237e+89  3.328938e+89  0 
VECTORS displacement_ITER71 FLOAT
 0  0  0 
 -8.869225e+88  -5.415554e+88  0 
 0  8.326486e+87  0 
 -5.140452e+88  -6.553254e+88  0 
 0  2.263546e+88  0 
 1.385422e+89  -2.485422e+88  0 
 0  3.052736e+88  0 
 1.361768e+89  -1.802020e+88  0 
 0  1.257638e+89  0 
 2.078450e+87  3.270085e+89  0 
 0  1.366061e+89  0 
 -1.103237e+89  3.328938e+89  0 
VECTORS displacement_ITER72 FLOAT
 0  0  0 
 -8.869225e+88  -5.415554e+88  0 
 0  8.326486e+87  0 
 -5.140452e+88  -6.553254e+88  0 
 0  2.263546e+88  0 
 1.385422e+89  -2.485422e+88  0 
 0  3.052736e+88  0 
 1.361768e+89  -1.802020e+88  0 
 0  1.257638e+89  0 
 2.078450e+87  3.270085e+89  0 
 0  1.366061e+89  0 
 -1.103237e+89  3.328938e+89  0 
VECTORS displacement_ITER73 FLOAT
 0  0  0 
 -8.869225e+88  -5.415554e+88  0 
 0  8.326486e+87  0 
 -5.140452e+88  -6.553254e+88  0 
 0  2.263546e+88  0 
 1.385422e+89  -2.485422e+88  0 
 0  3.052736e+88  0 
 1.361768e+89  -1.802020e+88  0 
 0  1.257638e+89  0 
 2.078450e+87  3.270085e+89  0 
 0  1.366061e+89  0 
 -1.103237e+89  3.328938e+89  0 
VECTORS displacement_ITER74 FLOAT
 0  0  0 
 -8.869225e+88  -5.415554e+88  0 
 0  8.326486e+87  0 
 -5.140452e+88  -6.553254e+88  0 
 0  2.263546e+88  0 
 1.385422e+89  -2.485422e+88  0 
 0  3.052736e+88  0 
 1.361768e+89  -1.802020e+88  0 
 0  1.257638e+89  0 
 2.078450e+87  3.270085e+89  0 
 0  1.366061e+89  0 
 -1.103237e+89  3.328938e+89  0 
VECTORS displacement_ITER75 FLOAT
 0  0  0 
 -8.869225e+88  -5.415554e+88  0 
 0  8.326486e+87  0 
 -5.140452e+88  -6.553254e+88  0 
 0  2.263546e+88  0 
 1.385422e+89  -2.485422e+88  0 
 0  3.052736e+88  0 
 1.361768e+89  -1.802020e+88  0 
 0  1.257638e+89  0 
 2.078450e+87  3.270085e+89  0 
 0  1.366061e+89  0 
 -1.103237e+89  3.328938e+89  0 
VECTORS displacement_ITER76 FLOAT
 0  0  0 
 -8.869225e+88  -5.415554e+88  0 
 0  8.326486e+87  0 
 -5.140452e+88  -6.553254e+88  0 
 0  2.263546e+88  0 
 1.385422e+89  -2.485422e+88  0 
 0  3.052736e+88  0 
 1.361768e+89  -1.802020e+88  0 
 0  1.257638e+89  0 
 2.078450e+87  3.270085e+89  0 
 0  1.366061e+89  0 
 -1.103237e+89  3.328938e+89  0 
VECTORS displacement_ITER77 FLOAT
 0  0  0 
 -8.869225e+88  -5.415554e+88  0 
 0  8.326486e+87  0 
 -5.140452e+88  -6.553254e+88  0 
 0  2.263546e+88  0 
 1.385422e+89  -2.485422e+88  0 
 0  3.052736e+88  0 
 1.361768e+89  -1.802020e+88  0 
 0  1.257638e+89  0 
 2.078450e+87  3.270085e+89  0 
 0  1.366061e+89  0 
 -1.103237e+89  3.328938e+89  0 
VECTORS displacement_ITER78 FLOAT
 0  0  0 
 -8.869225e+88  -5.415554e+88  0 
 0  8.326486e+87  0 
 -5.140452e+88  -6.553254e+88  0 
 0  2.263546e+88  0 
 1.385422e+89  -2.485422e+88  0 
 0  3.052736e+88  0 
 1.361768e+89  -1.802020e+88  0 
 0  1.257638e+89  0 
 2.078450e+87  3.270085e+89  0 
 0  1.366061e+89  0 
 -1.103237e+89  3.328938e+89  0 
VECTORS displacement_ITER79 FLOAT
 0  0  0 
 -8.869225e+88  -5.415554e+88  0 
 0  8.326486e+87  0 
 -5.140452e+88  -6.553254e+88  0 
 0  2.263546e+88  0 
 1.385422e+89  -2.485422e+88  0 
 0  3.052736e+88  0 
 1.361768e+89  -1.802020e+88  0 
 0  1.257638e+89  0 
 2.078450e+87  3.270085e+89  0 
 0  1.366061e+89  0 
 -1.103237e+89  3.328938e+89  0 
VECTORS displacement_ITER80 FLOAT
 0  0  0 
 -8.869225e+88  -5.415554e+88  0 
 0  8.326486e+87  0 
 -5.140452e+88  -6.553254e+88  0 
 0  2.263546e+88  0 
 1.385422e+89  -2.485422e+88  0 
 0  3.052736e+88  0 
 1.361768e+89  -1.802020e+88  0 
 0  1.257638e+89  0 
 2.078450e+87  3.270085e+89  0 
 0  1.366061e+89  0 
 -1.103237e+89  3.328938e+89  0 
VECTORS displacement_ITER81 FLOAT
 0  0  0 
 -8.869225e+88  -5.415554e+88  0 
 0  8.326486e+87  0 
 -5.140452e+88  -6.553254e+88  0 
 0  2.263546e+88  0 
 1.385422e+89  -2.485422e+88  0 
 0  3.052736e+88  0 
 1.361768e+89  -1.802020e+88  0 
 0  1.257638e+89  0 
 2.078450e+87  3.270085e+89  0 
 0  1.366061e+89  0 
 -1.103237e+89  3.328938e+89  0 
VECTORS displacement_ITER82 FLOAT
 0  0  0 
 -8.869225e+88  -5.415554e+88  0 
 0  8.326486e+87  0 
 -5.140452e+88  -6.553254e+88  0 
 0  2.263546e+88  0 
 1.385422e+89  -2.485422e+88  0 
 0  3.052736e+88  0 
 1.361768e+89  -1.802020e+88  0 
 0  1.257638e+89  0 
 2.078450e+87  3.270085e+89  0 
 0  1.366061e+89  0 
 -1.103237e+89  3.328938e+89  0 
VECTORS displacement_ITER83 FLOAT
 0  0  0 
 -8.869225e+88  -5.415554e+88  0 
 0  8.326486e+87  0 
 -5.140452e+88  -6.553254e+88  0 
 0  2.263546e+88  0 
 1.385422e+89  -2.485422e+88  0 
 0  3.052736e+88  0 
 1.361768e+89  -1.802020e+88  0 
 0  1.257638e+89  0 
 2.078450e+87  3.270085e+89  0 
 0  1.366061e+89  0 
 -1.103237e+89  3.328938e+89  0 
VECTORS displacement_ITER84 FLOAT
 0  0  0 
 -8.869225e+88  -5.415554e+88  0 
 0  8.326486e+87  0 
 -5.140452e+88  -6.553254e+88  0 
 0  2.263546e+88  0 
 1.385422e+89  -2.485422e+88  0 
 0  3.052736e+88  0 
 1.361768e+89  -1.802020e+88  0 
 0  1.257638e+89  0 
 2.078450e+87  3.270085e+89  0 
 0  1.366061e+89  0 
 -1.103237e+89  3.328938e+89  0 
VECTORS displacement_ITER85 FLOAT
 0  0  0 
 -8.869225e+88  -5.415554e+88  0 
 0  8.326486e+87  0 
 -5.140452e+88  -6.553254e+88  0 
 0  2.263546e+88  0 