# vtk DataFile Version 3.1
this is an vtk file created by FEMAC
ASCII
DATASET UNSTRUCTURED_GRID
POINTS 12 FLOAT
5.000000 0.000000 0.000000
5.500000 0.000000 0.000000
5.000000 0.200000 0.000000
5.000000 0.400000 0.000000
5.000000 0.600000 0.000000
5.000000 0.800000 0.000000
5.000000 1.000000 0.000000
5.500000 0.200000 0.000000
5.500000 0.400000 0.000000
5.500000 0.600000 0.000000
5.500000 0.800000 0.000000
5.500000 1.000000 0.000000
CELLS 5 25 
4 0 1 7 2
4 2 7 8 3
4 3 8 9 4
4 4  9 10  5
4 5 10 11  6
CELL_TYPES 5
9 9 9 9 9 
POINT_DATA 12
VECTORS displacement_ITER1 FLOAT
 -5.361634e-03  -3.238340e-02  0 
 -5.412540e-03  -3.778378e-02  0 
 -3.196002e-03  -3.237963e-02  0 
 -1.059875e-03  -3.235577e-02  0 
 1.102106e-03  -3.235577e-02  0 
 3.238233e-03  -3.237963e-02  0 
 5.403865e-03  -3.238340e-02  0 
 -3.257501e-03  -3.778654e-02  0 
 -1.070562e-03  -3.781078e-02  0 
 1.112793e-03  -3.781078e-02  0 
 3.299732e-03  -3.778654e-02  0 
 5.454771e-03  -3.778378e-02  0 
VECTORS displacement_ITER2 FLOAT
 -5.084426e-03  -3.173053e-02  0 
 -5.131686e-03  -3.687882e-02  0 
 -3.013384e-03  -3.173032e-02  0 
 -1.001569e-03  -3.173002e-02  0 
 1.037050e-03  -3.173002e-02  0 
 3.048865e-03  -3.173032e-02  0 
 5.119907e-03  -3.173053e-02  0 
 -3.085986e-03  -3.687949e-02  0 
 -1.012638e-03  -3.687490e-02  0 
 1.048119e-03  -3.687490e-02  0 
 3.121467e-03  -3.687949e-02  0 
 5.167167e-03  -3.687882e-02  0 
VECTORS displacement_ITER3 FLOAT
 -5.080681e-03  -3.169206e-02  0 
 -5.127811e-03  -3.683153e-02  0 
 -3.013104e-03  -3.169135e-02  0 
 -1.005003e-03  -3.169444e-02  0 
 1.029292e-03  -3.169444e-02  0 
 3.037392e-03  -3.169135e-02  0 
 5.104970e-03  -3.169206e-02  0 
 -3.085700e-03  -3.683188e-02  0 
 -1.016432e-03  -3.682918e-02  0 
 1.040720e-03  -3.682918e-02  0 
 3.109988e-03  -3.683188e-02  0 
 5.152099e-03  -3.683153e-02  0 
VECTORS displacement_ITER4 FLOAT
 -5.079932e-03  -3.168610e-02  0 
 -5.126992e-03  -3.682416e-02  0 
 -3.012960e-03  -3.168531e-02  0 
 -1.004937e-03  -3.168834e-02  0 
 1.028616e-03  -3.168834e-02  0 
 3.036638e-03  -3.168531e-02  0 
 5.103611e-03  -3.168610e-02  0 
 -3.085364e-03  -3.682465e-02  0 
 -1.016718e-03  -3.682201e-02  0 
 1.040397e-03  -3.682201e-02  0 
 3.109042e-03  -3.682465e-02  0 
 5.150670e-03  -3.682416e-02  0 
VECTORS displacement_ITER5 FLOAT
 -5.080849e-03  -3.168559e-02  0 
 -5.127903e-03  -3.682392e-02  0 
 -3.013775e-03  -3.168480e-02  0 
 -1.005596e-03  -3.168784e-02  0 
 1.028031e-03  -3.168784e-02  0 
 3.036209e-03  -3.168480e-02  0 
 5.103281e-03  -3.168559e-02  0 
 -3.086165e-03  -3.682440e-02  0 
 -1.017401e-03  -3.682177e-02  0 
 1.039837e-03  -3.682177e-02  0 
 3.108599e-03  -3.682440e-02  0 
 5.150335e-03  -3.682391e-02  0 
VECTORS displacement_ITER6 FLOAT
 -5.081172e-03  -3.168564e-02  0 
 -5.128227e-03  -3.682400e-02  0 
 -3.014088e-03  -3.168485e-02  0 
 -1.005900e-03  -3.168789e-02  0 
 1.027737e-03  -3.168789e-02  0 
 3.035928e-03  -3.168485e-02  0 
 5.103011e-03  -3.168564e-02  0 
 -3.086479e-03  -3.682448e-02  0 
 -1.017705e-03  -3.682185e-02  0 
 1.039543e-03  -3.682185e-02  0 
 3.108318e-03  -3.682448e-02  0 
 5.150066e-03  -3.682400e-02  0 
VECTORS displacement_ITER7 FLOAT
 -5.081081e-03  -3.168564e-02  0 
 -5.128136e-03  -3.682400e-02  0 
 -3.013996e-03  -3.168485e-02  0 
 -1.005804e-03  -3.168789e-02  0 
 1.027835e-03  -3.168789e-02  0 
 3.036025e-03  -3.168485e-02  0 
 5.103111e-03  -3.168564e-02  0 
 -3.086386e-03  -3.682448e-02  0 
 -1.017610e-03  -3.682185e-02  0 
 1.039640e-03  -3.682185e-02  0 
 3.108416e-03  -3.682448e-02  0 
 5.150165e-03  -3.682400e-02  0 
VECTORS displacement_ITER8 FLOAT
 -5.081103e-03  -3.168564e-02  0 
 -5.128158e-03  -3.682400e-02  0 
 -3.014018e-03  -3.168485e-02  0 
 -1.005828e-03  -3.168789e-02  0 
 1.027811e-03  -3.168789e-02  0 
 3.036002e-03  -3.168485e-02  0 
 5.103087e-03  -3.168564e-02  0 
 -3.086409e-03  -3.682448e-02  0 
 -1.017633e-03  -3.682185e-02  0 
 1.039617e-03  -3.682185e-02  0 
 3.108392e-03  -3.682448e-02  0 
 5.150142e-03  -3.682400e-02  0 
VECTORS displacement_ITER9 FLOAT
 -5.081103e-03  -3.168564e-02  0 
 -5.128158e-03  -3.682400e-02  0 
 -3.014018e-03  -3.168485e-02  0 
 -1.005827e-03  -3.168789e-02  0 
 1.027812e-03  -3.168789e-02  0 
 3.036002e-03  -3.168485e-02  0 
 5.103087e-03  -3.168564e-02  0 
 -3.086408e-03  -3.682448e-02  0 
 -1.017633e-03  -3.682185e-02  0 
 1.039617e-03  -3.682185e-02  0 
 3.108393e-03  -3.682448e-02  0 
 5.150142e-03  -3.682400e-02  0 
VECTORS displacement_ITER10 FLOAT
 -2.963142e-01  1.621537e+00  0 
 -3.575468e-01  1.725734e+00  0 
 -3.119220e-01  1.641140e+00  0 
 -2.996893e-01  1.664464e+00  0 
 -2.856453e-01  1.663836e+00  0 
 -2.892854e-01  1.622103e+00  0 
 -3.389501e-01  1.602056e+00  0 
 -4.113051e-01  1.700476e+00  0 
 -3.306786e-01  1.650923e+00  0 
 -3.203355e-01  1.652348e+00  0 
 -2.563367e-01  1.732230e+00  0 
 -3.169861e-01  1.758024e+00  0 
VECTORS displacement_ITER11 FLOAT
 3.941967e+13  7.694601e+13  0 
 3.456095e+13  1.022854e+14  0 
 2.672841e+13  7.423043e+13  0 
 1.536841e+13  7.546002e+13  0 
 -1.080171e+13  7.743363e+13  0 
 -6.465909e+12  1.075332e+14  0 
 -5.548835e+12  1.091624e+14  0 
 2.417545e+13  1.102488e+14  0 
 9.478256e+12  1.450880e+14  0 
 -1.461167e+13  1.444081e+14  0 
 -1.832214e+13  1.021542e+14  0 
 -1.074874e+13  9.513420e+13  0 
VECTORS displacement_ITER12 FLOAT
 6.109731e+28  1.168144e+29  0 
 5.751959e+28  1.566727e+29  0 
 4.604779e+28  1.190624e+29  0 
 2.916956e+28  1.148947e+29  0 
 6.354310e+27  1.156805e+29  0 
 -1.481665e+28  1.221861e+29  0 
 -3.226834e+28  1.180451e+29  0 
 4.241281e+28  1.562793e+29  0 
 2.465096e+28  1.711708e+29  0 
 4.510535e+27  1.718524e+29  0 
 -2.318825e+28  1.616764e+29  0 
 -3.653826e+28  1.618262e+29  0 
VECTORS displacement_ITER13 FLOAT
 3.728054e+43  7.174805e+43  0 
 3.564523e+43  9.066660e+43  0 
 3.057657e+43  7.128994e+43  0 
 6.107196e+42  8.309638e+43  0 
 4.710344e+41  8.115144e+43  0 
 -4.231815e+42  9.177382e+43  0 
 -1.211802e+42  9.048868e+43  0 
 2.388373e+43  9.239101e+43  0 
 1.138292e+43  9.798285e+43  0 
 1.602142e+42  9.862480e+43  0 
 4.850660e+42  8.908079e+43  0 
 3.880690e+42  9.075433e+43  0 
VECTORS displacement_ITER14 FLOAT
 1.576326e+58  -2.055103e+58  0 
 1.258496e+58  -1.211168e+58  0 
 1.238094e+58  -2.580527e+58  0 
 -1.281132e+58  -1.382489e+58  0 
 -4.973350e+57  -5.816712e+57  0 
 7.755657e+57  -1.554254e+58  0 
 1.376813e+58  -1.621225e+58  0 
 2.903220e+57  -9.615936e+57  0 
 -5.679857e+57  -2.958000e+58  0 
 6.549527e+57  -3.324022e+58  0 
 1.249946e+58  -3.714974e+58  0 
 2.460198e+58  -3.803116e+58  0 
VECTORS displacement_ITER15 FLOAT
 -1.396333e+74  -2.416604e+74  0 
 -1.280841e+74  -2.757841e+74  0 
 -1.253743e+74  -2.492889e+74  0 
 -7.422263e+73  -2.901588e+74  0 
 -5.120571e+73  -2.994129e+74  0 
 -7.906072e+73  -2.022606e+74  0 
 -1.927252e+73  -1.996698e+74  0 
 -1.249136e+74  -2.657658e+74  0 
 -4.770386e+73  -3.114396e+74  0 
 -6.244279e+73  -3.021718e+74  0 
 -2.475645e+73  -3.185187e+74  0 
 1.518561e+73  -3.285464e+74  0 
VECTORS displacement_ITER16 FLOAT
 -3.114427e+89  -1.050751e+89  0 
 -3.434479e+89  1.208694e+88  0 
 -3.670526e+89  -9.498909e+88  0 
 -5.340635e+89  2.891130e+89  0 
 -1.818175e+89  2.845776e+89  0 
 -2.591801e+89  6.997864e+88  0 
 -2.205439e+89  1.285745e+89  0 
 -4.222932e+89  -2.184554e+88  0 
 -4.144593e+89  -2.390817e+89  0 
 -3.168391e+89  -2.609844e+89  0 
 -2.906450e+89  3.888684e+88  0 
 -3.157175e+89  5.044525e+87  0 
VECTORS displacement_ITER17 FLOAT
 -3.114427e+89  -1.050751e+89  0 
 -3.434479e+89  1.208694e+88  0 
 -3.670526e+89  -9.498909e+88  0 
 -5.340635e+89  2.891130e+89  0 
 -1.818175e+89  2.845776e+89  0 
 -2.591801e+89  6.997864e+88  0 
 -2.205439e+89  1.285745e+89  0 
 -4.222932e+89  -2.184554e+88  0 
 -4.144593e+89  -2.390817e+89  0 
 -3.168391e+89  -2.609844e+89  0 
 -2.906450e+89  3.888684e+88  0 
 -3.157175e+89  5.044525e+87  0 
VECTORS displacement_ITER18 FLOAT
 -3.114427e+89  -1.050751e+89  0 
 -3.434479e+89  1.208694e+88  0 
 -3.670526e+89  -9.498909e+88  0 
 -5.340635e+89  2.891130e+89  0 
 -1.818175e+89  2.845776e+89  0 
 -2.591801e+89  6.997864e+88  0 
 -2.205439e+89  1.285745e+89  0 
 -4.222932e+89  -2.184554e+88  0 
 -4.144593e+89  -2.390817e+89  0 
 -3.168391e+89  -2.609844e+89  0 
 -2.906450e+89  3.888684e+88  0 
 -3.157175e+89  5.044525e+87  0 
VECTORS displacement_ITER19 FLOAT
 -3.114427e+89  -1.050751e+89  0 
 -3.434479e+89  1.208694e+88  0 
 -3.670526e+89  -9.498909e+88  0 
 -5.340635e+89  2.891130e+89  0 
 -1.818175e+89  2.845776e+89  0 
 -2.591801e+89  6.997864e+88  0 
 -2.205439e+89  1.285745e+89  0 
 -4.222932e+89  -2.184554e+88  0 
 -4.144593e+89  -2.390817e+89  0 
 -3.168391e+89  -2.609844e+89  0 
 -2.906450e+89  3.888684e+88  0 
 -3.157175e+89  5.044525e+87  0 
VECTORS displacement_ITER20 FLOAT
 -3.114427e+89  -1.050751e+89  0 
 -3.434479e+89  1.208694e+88  0 
 -3.670526e+89  -9.498909e+88  0 
 -5.340635e+89  2.891130e+89  0 
 -1.818175e+89  2.845776e+89  0 
 -2.591801e+89  6.997864e+88  0 
 -2.205439e+89  1.285745e+89  0 
 -4.222932e+89  -2.184554e+88  0 
 -4.144593e+89  -2.390817e+89  0 
 -3.168391e+89  -2.609844e+89  0 
 -2.906450e+89  3.888684e+88  0 
 -3.157175e+89  5.044525e+87  0 
VECTORS displacement_ITER21 FLOAT
 -3.114427e+89  -1.050751e+89  0 
 -3.434479e+89  1.208694e+88  0 
 -3.670526e+89  -9.498909e+88  0 
 -5.340635e+89  2.891130e+89  0 
 -1.818175e+89  2.845776e+89  0 
 -2.591801e+89  6.997864e+88  0 
 -2.205439e+89  1.285745e+89  0 
 -4.222932e+89  -2.184554e+88  0 
 -4.144593e+89  -2.390817e+89  0 
 -3.168391e+89  -2.609844e+89  0 
 -2.906450e+89  3.888684e+88  0 
 -3.157175e+89  5.044525e+87  0 
VECTORS displacement_ITER22 FLOAT
 -3.114427e+89  -1.050751e+89  0 
 -3.434479e+89  1.208694e+88  0 
 -3.670526e+89  -9.498909e+88  0 
 -5.340635e+89  2.891130e+89  0 
 -1.818175e+89  2.845776e+89  0 
 -2.591801e+89  6.997864e+88  0 
 -2.205439e+89  1.285745e+89  0 
 -4.222932e+89  -2.184554e+88  0 
 -4.144593e+89  -2.390817e+89  0 
 -3.168391e+89  -2.609844e+89  0 
 -2.906450e+89  3.888684e+88  0 
 -3.157175e+89  5.044525e+87  0 
VECTORS displacement_ITER23 FLOAT
 -3.114427e+89  -1.050751e+89  0 
 -3.434479e+89  1.208694e+88  0 
 -3.670526e+89  -9.498909e+88  0 
 -5.340635e+89  2.891130e+89  0 
 -1.818175e+89  2.845776e+89  0 
 -2.591801e+89  6.997864e+88  0 
 -2.205439e+89  1.285745e+89  0 
 -4.222932e+89  -2.184554e+88  0 
 -4.144593e+89  -2.390817e+89  0 
 -3.168391e+89  -2.609844e+89  0 
 -2.906450e+89  3.888684e+88  0 
 -3.157175e+89  5.044525e+87  0 
VECTORS displacement_ITER24 FLOAT
 -3.114427e+89  -1.050751e+89  0 
 -3.434479e+89  1.208694e+88  0 
 -3.670526e+89  -9.498909e+88  0 
 -5.340635e+89  2.891130e+89  0 
 -1.818175e+89  2.845776e+89  0 
 -2.591801e+89  6.997864e+88  0 
 -2.205439e+89  1.285745e+89  0 
 -4.222932e+89  -2.184554e+88  0 
 -4.144593e+89  -2.390817e+89  0 
 -3.168391e+89  -2.609844e+89  0 
 -2.906450e+89  3.888684e+88  0 
 -3.157175e+89  5.044525e+87  0 
VECTORS displacement_ITER25 FLOAT
 -3.114427e+89  -1.050751e+89  0 
 -3.434479e+89  1.208694e+88  0 
 -3.670526e+89  -9.498909e+88  0 
 -5.340635e+89  2.891130e+89  0 
 -1.818175e+89  2.845776e+89  0 
 -2.591801e+89  6.997864e+88  0 
 -2.205439e+89  1.285745e+89  0 
 -4.222932e+89  -2.184554e+88  0 
 -4.144593e+89  -2.390817e+89  0 
 -3.168391e+89  -2.609844e+89  0 
 -2.906450e+89  3.888684e+88  0 
 -3.157175e+89  5.044525e+87  0 
VECTORS displacement_ITER26 FLOAT
 -3.114427e+89  -1.050751e+89  0 
 -3.434479e+89  1.208694e+88  0 
 -3.670526e+89  -9.498909e+88  0 
 -5.340635e+89  2.891130e+89  0 
 -1.818175e+89  2.845776e+89  0 
 -2.591801e+89  6.997864e+88  0 
 -2.205439e+89  1.285745e+89  0 
 -4.222932e+89  -2.184554e+88  0 
 -4.144593e+89  -2.390817e+89  0 
 -3.168391e+89  -2.609844e+89  0 
 -2.906450e+89  3.888684e+88  0 
 -3.157175e+89  5.044525e+87  0 
VECTORS displacement_ITER27 FLOAT
 -3.114427e+89  -1.050751e+89  0 
 -3.434479e+89  1.208694e+88  0 
 -3.670526e+89  -9.498909e+88  0 
 -5.340635e+89  2.891130e+89  0 
 -1.818175e+89  2.845776e+89  0 
 -2.591801e+89  6.997864e+88  0 
 -2.205439e+89  1.285745e+89  0 
 -4.222932e+89  -2.184554e+88  0 
 -4.144593e+89  -2.390817e+89  0 
 -3.168391e+89  -2.609844e+89  0 
 -2.906450e+89  3.888684e+88  0 
 -3.157175e+89  5.044525e+87  0 
VECTORS displacement_ITER28 FLOAT
 -3.114427e+89  -1.050751e+89  0 
 -3.434479e+89  1.208694e+88  0 
 -3.670526e+89  -9.498909e+88  0 
 -5.340635e+89  2.891130e+89  0 
 -1.818175e+89  2.845776e+89  0 
 -2.591801e+89  6.997864e+88  0 
 -2.205439e+89  1.285745e+89  0 
 -4.222932e+89  -2.184554e+88  0 
 -4.144593e+89  -2.390817e+89  0 
 -3.168391e+89  -2.609844e+89  0 
 -2.906450e+89  3.888684e+88  0 
 -3.157175e+89  5.044525e+87  0 
VECTORS displacement_ITER29 FLOAT
 -3.114427e+89  -1.050751e+89  0 
 -3.434479e+89  1.208694e+88  0 
 -3.670526e+89  -9.498909e+88  0 
 -5.340635e+89  2.891130e+89  0 
 -1.818175e+89  2.845776e+89  0 
 -2.591801e+89  6.997864e+88  0 
 -2.205439e+89  1.285745e+89  0 
 -4.222932e+89  -2.184554e+88  0 
 -4.144593e+89  -2.390817e+89  0 
 -3.168391e+89  -2.609844e+89  0 
 -2.906450e+89  3.888684e+88  0 
 -3.157175e+89  5.044525e+87  0 
VECTORS displacement_ITER30 FLOAT
 -3.114427e+89  -1.050751e+89  0 
 -3.434479e+89  1.208694e+88  0 
 -3.670526e+89  -9.498909e+88  0 
 -5.340635e+89  2.891130e+89  0 
 -1.818175e+89  2.845776e+89  0 
 -2.591801e+89  6.997864e+88  0 
 -2.205439e+89  1.285745e+89  0 
 -4.222932e+89  -2.184554e+88  0 
 -4.144593e+89  -2.390817e+89  0 
 -3.168391e+89  -2.609844e+89  0 
 -2.906450e+89  3.888684e+88  0 
 -3.157175e+89  5.044525e+87  0 
VECTORS displacement_ITER31 FLOAT
 -3.114427e+89  -1.050751e+89  0 
 -3.434479e+89  1.208694e+88  0 
 -3.670526e+89  -9.498909e+88  0 
 -5.340635e+89  2.891130e+89  0 
 -1.818175e+89  2.845776e+89  0 
 -2.591801e+89  6.997864e+88  0 
 -2.205439e+89  1.285745e+89  0 
 -4.222932e+89  -2.184554e+88  0 
 -4.144593e+89  -2.390817e+89  0 
 -3.168391e+89  -2.609844e+89  0 
 -2.906450e+89  3.888684e+88  0 
 -3.157175e+89  5.044525e+87  0 
VECTORS displacement_ITER32 FLOAT
 -3.114427e+89  -1.050751e+89  0 
 -3.434479e+89  1.208694e+88  0 
 -3.670526e+89  -9.498909e+88  0 
 -5.340635e+89  2.891130e+89  0 
 -1.818175e+89  2.845776e+89  0 
 -2.591801e+89  6.997864e+88  0 
 -2.205439e+89  1.285745e+89  0 
 -4.222932e+89  -2.184554e+88  0 
 -4.144593e+89  -2.390817e+89  0 
 -3.168391e+89  -2.609844e+89  0 
 -2.906450e+89  3.888684e+88  0 
 -3.157175e+89  5.044525e+87  0 
VECTORS displacement_ITER33 FLOAT
 -3.114427e+89  -1.050751e+89  0 
 -3.434479e+89  1.208694e+88  0 
 -3.670526e+89  -9.498909e+88  0 
 -5.340635e+89  2.891130e+89  0 
 -1.818175e+89  2.845776e+89  0 
 -2.591801e+89  6.997864e+88  0 
 -2.205439e+89  1.285745e+89  0 
 -4.222932e+89  -2.184554e+88  0 
 -4.144593e+89  -2.390817e+89  0 
 -3.168391e+89  -2.609844e+89  0 
 -2.906450e+89  3.888684e+88  0 
 -3.157175e+89  5.044525e+87  0 
VECTORS displacement_ITER34 FLOAT
 -3.114427e+89  -1.050751e+89  0 
 -3.434479e+89  1.208694e+88  0 
 -3.670526e+89  -9.498909e+88  0 
 -5.340635e+89  2.891130e+89  0 
 -1.818175e+89  2.845776e+89  0 
 -2.591801e+89  6.997864e+88  0 
 -2.205439e+89  1.285745e+89  0 
 -4.222932e+89  -2.184554e+88  0 
 -4.144593e+89  -2.390817e+89  0 
 -3.168391e+89  -2.609844e+89  0 
 -2.906450e+89  3.888684e+88  0 
 -3.157175e+89  5.044525e+87  0 
VECTORS displacement_ITER35 FLOAT
 -3.114427e+89  -1.050751e+89  0 
 -3.434479e+89  1.208694e+88  0 
 -3.670526e+89  -9.498909e+88  0 
 -5.340635e+89  2.891130e+89  0 
 -1.818175e+89  2.845776e+89  0 
 -2.591801e+89  6.997864e+88  0 
 -2.205439e+89  1.285745e+89  0 
 -4.222932e+89  -2.184554e+88  0 
 -4.144593e+89  -2.390817e+89  0 
 -3.168391e+89  -2.609844e+89  0 
 -2.906450e+89  3.888684e+88  0 
 -3.157175e+89  5.044525e+87  0 
VECTORS displacement_ITER36 FLOAT
 -3.114427e+89  -1.050751e+89  0 
 -3.434479e+89  1.208694e+88  0 
 -3.670526e+89  -9.498909e+88  0 
 -5.340635e+89  2.891130e+89  0 
 -1.818175e+89  2.845776e+89  0 
 -2.591801e+89  6.997864e+88  0 
 -2.205439e+89  1.285745e+89  0 
 -4.222932e+89  -2.184554e+88  0 
 -4.144593e+89  -2.390817e+89  0 
 -3.168391e+89  -2.609844e+89  0 
 -2.906450e+89  3.888684e+88  0 
 -3.157175e+89  5.044525e+87  0 
VECTORS displacement_ITER37 FLOAT
 -3.114427e+89  -1.050751e+89  0 
 -3.434479e+89  1.208694e+88  0 
 -3.670526e+89  -9.498909e+88  0 
 -5.340635e+89  2.891130e+89  0 
 -1.818175e+89  2.845776e+89  0 
 -2.591801e+89  6.997864e+88  0 
 -2.205439e+89  1.285745e+89  0 
 -4.222932e+89  -2.184554e+88  0 
 -4.144593e+89  -2.390817e+89  0 
 -3.168391e+89  -2.609844e+89  0 
 -2.906450e+89  3.888684e+88  0 
 -3.157175e+89  5.044525e+87  0 
VECTORS displacement_ITER38 FLOAT
 -3.114427e+89  -1.050751e+89  0 
 -3.434479e+89  1.208694e+88  0 
 -3.670526e+89  -9.498909e+88  0 
 -5.340635e+89  2.891130e+89  0 
 -1.818175e+89  2.845776e+89  0 
 -2.591801e+89  6.997864e+88  0 
 -2.205439e+89  1.285745e+89  0 
 -4.222932e+89  -2.184554e+88  0 
 -4.144593e+89  -2.390817e+89  0 
 -3.168391e+89  -2.609844e+89  0 
 -2.906450e+89  3.888684e+88  0 
 -3.157175e+89  5.044525e+87  0 
VECTORS displacement_ITER39 FLOAT
 -3.114427e+89  -1.050751e+89  0 
 -3.434479e+89  1.208694e+88  0 
 -3.670526e+89  -9.498909e+88  0 
 -5.340635e+89  2.891130e+89  0 
 -1.818175e+89  2.845776e+89  0 
 -2.591801e+89  6.997864e+88  0 
 -2.205439e+89  1.285745e+89  0 
 -4.222932e+89  -2.184554e+88  0 
 -4.144593e+89  -2.390817e+89  0 
 -3.168391e+89  -2.609844e+89  0 
 -2.906450e+89  3.888684e+88  0 
 -3.157175e+89  5.044525e+87  0 
VECTORS displacement_ITER40 FLOAT
 -3.114427e+89  -1.050751e+89  0 
 -3.434479e+89  1.208694e+88  0 
 -3.670526e+89  -9.498909e+88  0 
 -5.340635e+89  2.891130e+89  0 
 -1.818175e+89  2.845776e+89  0 
 -2.591801e+89  6.997864e+88  0 
 -2.205439e+89  1.285745e+89  0 
 -4.222932e+89  -2.184554e+88  0 
 -4.144593e+89  -2.390817e+89  0 
 -3.168391e+89  -2.609844e+89  0 
 -2.906450e+89  3.888684e+88  0 
 -3.157175e+89  5.044525e+87  0 
VECTORS displacement_ITER41 FLOAT
 -3.114427e+89  -1.050751e+89  0 
 -3.434479e+89  1.208694e+88  0 
 -3.670526e+89  -9.498909e+88  0 
 -5.340635e+89  2.891130e+89  0 
 -1.818175e+89  2.845776e+89  0 
 -2.591801e+89  6.997864e+88  0 
 -2.205439e+89  1.285745e+89  0 
 -4.222932e+89  -2.184554e+88  0 
 -4.144593e+89  -2.390817e+89  0 
 -3.168391e+89  -2.609844e+89  0 
 -2.906450e+89  3.888684e+88  0 
 -3.157175e+89  5.044525e+87  0 
VECTORS displacement_ITER42 FLOAT
 -3.114427e+89  -1.050751e+89  0 
 -3.434479e+89  1.208694e+88  0 
 -3.670526e+89  -9.498909e+88  0 
 -5.340635e+89  2.891130e+89  0 
 -1.818175e+89  2.845776e+89  0 
 -2.591801e+89  6.997864e+88  0 
 -2.205439e+89  1.285745e+89  0 
 -4.222932e+89  -2.184554e+88  0 
 -4.144593e+89  -2.390817e+89  0 
 -3.168391e+89  -2.609844e+89  0 
 -2.906450e+89  3.888684e+88  0 
 -3.157175e+89  5.044525e+87  0 
VECTORS displacement_ITER43 FLOAT
 -3.114427e+89  -1.050751e+89  0 
 -3.434479e+89  1.208694e+88  0 
 -3.670526e+89  -9.498909e+88  0 
 -5.340635e+89  2.891130e+89  0 
 -1.818175e+89  2.845776e+89  0 
 -2.591801e+89  6.997864e+88  0 
 -2.205439e+89  1.285745e+89  0 
 -4.222932e+89  -2.184554e+88  0 
 -4.144593e+89  -2.390817e+89  0 
 -3.168391e+89  -2.609844e+89  0 
 -2.906450e+89  3.888684e+88  0 
 -3.157175e+89  5.044525e+87  0 
VECTORS displacement_ITER44 FLOAT
 -3.114427e+89  -1.050751e+89  0 
 -3.434479e+89  1.208694e+88  0 
 -3.670526e+89  -9.498909e+88  0 
 -5.340635e+89  2.891130e+89  0 
 -1.818175e+89  2.845776e+89  0 
 -2.591801e+89  6.997864e+88  0 
 -2.205439e+89  1.285745e+89  0 
 -4.222932e+89  -2.184554e+88  0 
 -4.144593e+89  -2.390817e+89  0 
 -3.168391e+89  -2.609844e+89  0 
 -2.906450e+89  3.888684e+88  0 
 -3.157175e+89  5.044525e+87  0 
VECTORS displacement_ITER45 FLOAT
 -3.114427e+89  -1.050751e+89  0 
 -3.434479e+89  1.208694e+88  0 
 -3.670526e+89  -9.498909e+88  0 
 -5.340635e+89  2.891130e+89  0 
 -1.818175e+89  2.845776e+89  0 
 -2.591801e+89  6.997864e+88  0 
 -2.205439e+89  1.285745e+89  0 
 -4.222932e+89  -2.184554e+88  0 
 -4.144593e+89  -2.390817e+89  0 
 -3.168391e+89  -2.609844e+89  0 
 -2.906450e+89  3.888684e+88  0 
 -3.157175e+89  5.044525e+87  0 
VECTORS displacement_ITER46 FLOAT
 -3.114427e+89  -1.050751e+89  0 
 -3.434479e+89  1.208694e+88  0 
 -3.670526e+89  -9.498909e+88  0 
 -5.340635e+89  2.891130e+89  0 
 -1.818175e+89  2.845776e+89  0 
 -2.591801e+89  6.997864e+88  0 
 -2.205439e+89  1.285745e+89  0 
 -4.222932e+89  -2.184554e+88  0 
 -4.144593e+89  -2.390817e+89  0 
 -3.168391e+89  -2.609844e+89  0 
 -2.906450e+89  3.888684e+88  0 
 -3.157175e+89  5.044525e+87  0 
VECTORS displacement_ITER47 FLOAT
 -3.114427e+89  -1.050751e+89  0 
 -3.434479e+89  1.208694e+88  0 
 -3.670526e+89  -9.498909e+88  0 
 -5.340635e+89  2.891130e+89  0 
 -1.818175e+89  2.845776e+89  0 
 -2.591801e+89  6.997864e+88  0 
 -2.205439e+89  1.285745e+89  0 
 -4.222932e+89  -2.184554e+88  0 
 -4.144593e+89  -2.390817e+89  0 
 -3.168391e+89  -2.609844e+89  0 
 -2.906450e+89  3.888684e+88  0 
 -3.157175e+89  5.044525e+87  0 
VECTORS displacement_ITER48 FLOAT
 -3.114427e+89  -1.050751e+89  0 
 -3.434479e+89  1.208694e+88  0 
 -3.670526e+89  -9.498909e+88  0 
 -5.340635e+89  2.891130e+89  0 
 -1.818175e+89  2.845776e+89  0 
 -2.591801e+89  6.997864e+88  0 
 -2.205439e+89  1.285745e+89  0 
 -4.222932e+89  -2.184554e+88  0 
 -4.144593e+89  -2.390817e+89  0 
 -3.168391e+89  -2.609844e+89  0 
 -2.906450e+89  3.888684e+88  0 
 -3.157175e+89  5.044525e+87  0 
VECTORS displacement_ITER49 FLOAT
 -3.114427e+89  -1.050751e+89  0 
 -3.434479e+89  1.208694e+88  0 
 -3.670526e+89  -9.498909e+88  0 
 -5.340635e+89  2.891130e+89  0 
 -1.818175e+89  2.845776e+89  0 
 -2.591801e+89  6.997864e+88  0 
 -2.205439e+89  1.285745e+89  0 
 -4.222932e+89  -2.184554e+88  0 
 -4.144593e+89  -2.390817e+89  0 
 -3.168391e+89  -2.609844e+89  0 
 -2.906450e+89  3.888684e+88  0 
 -3.157175e+89  5.044525e+87  0 
VECTORS displacement_ITER50 FLOAT
 -3.114427e+89  -1.050751e+89  0 
 -3.434479e+89  1.208694e+88  0 
 -3.670526e+89  -9.498909e+88  0 
 -5.340635e+89  2.891130e+89  0 
 -1.818175e+89  2.845776e+89  0 
 -2.591801e+89  6.997864e+88  0 
 -2.205439e+89  1.285745e+89  0 
 -4.222932e+89  -2.184554e+88  0 
 -4.144593e+89  -2.390817e+89  0 
 -3.168391e+89  -2.609844e+89  0 
 -2.906450e+89  3.888684e+88  0 
 -3.157175e+89  5.044525e+87  0 
VECTORS displacement_ITER51 FLOAT
 -3.114427e+89  -1.050751e+89  0 
 -3.434479e+89  1.208694e+88  0 
 -3.670526e+89  -9.498909e+88  0 
 -5.340635e+89  2.891130e+89  0 
 -1.818175e+89  2.845776e+89  0 
 -2.591801e+89  6.997864e+88  0 
 -2.205439e+89  1.285745e+89  0 
 -4.222932e+89  -2.184554e+88  0 
 -4.144593e+89  -2.390817e+89  0 
 -3.168391e+89  -2.609844e+89  0 
 -2.906450e+89  3.888684e+88  0 
 -3.157175e+89  5.044525e+87  0 
VECTORS displacement_ITER52 FLOAT
 -3.114427e+89  -1.050751e+89  0 
 -3.434479e+89  1.208694e+88  0 
 -3.670526e+89  -9.498909e+88  0 
 -5.340635e+89  2.891130e+89  0 
 -1.818175e+89  2.845776e+89  0 
 -2.591801e+89  6.997864e+88  0 
 -2.205439e+89  1.285745e+89  0 
 -4.222932e+89  -2.184554e+88  0 
 -4.144593e+89  -2.390817e+89  0 
 -3.168391e+89  -2.609844e+89  0 
 -2.906450e+89  3.888684e+88  0 
 -3.157175e+89  5.044525e+87  0 
VECTORS displacement_ITER53 FLOAT
 -3.114427e+89  -1.050751e+89  0 
 -3.434479e+89  1.208694e+88  0 
 -3.670526e+89  -9.498909e+88  0 
 -5.340635e+89  2.891130e+89  0 
 -1.818175e+89  2.845776e+89  0 
 -2.591801e+89  6.997864e+88  0 
 -2.205439e+89  1.285745e+89  0 
 -4.222932e+89  -2.184554e+88  0 
 -4.144593e+89  -2.390817e+89  0 
 -3.168391e+89  -2.609844e+89  0 
 -2.906450e+89  3.888684e+88  0 
 -3.157175e+89  5.044525e+87  0 
VECTORS displacement_ITER54 FLOAT
 -3.114427e+89  -1.050751e+89  0 
 -3.434479e+89  1.208694e+88  0 
 -3.670526e+89  -9.498909e+88  0 
 -5.340635e+89  2.891130e+89  0 
 -1.818175e+89  2.845776e+89  0 
 -2.591801e+89  6.997864e+88  0 
 -2.205439e+89  1.285745e+89  0 
 -4.222932e+89  -2.184554e+88  0 
 -4.144593e+89  -2.390817e+89  0 
 -3.168391e+89  -2.609844e+89  0 
 -2.906450e+89  3.888684e+88  0 
 -3.157175e+89  5.044525e+87  0 
VECTORS displacement_ITER55 FLOAT
 -3.114427e+89  -1.050751e+89  0 
 -3.434479e+89  1.208694e+88  0 
 -3.670526e+89  -9.498909e+88  0 
 -5.340635e+89  2.891130e+89  0 
 -1.818175e+89  2.845776e+89  0 
 -2.591801e+89  6.997864e+88  0 
 -2.205439e+89  1.285745e+89  0 
 -4.222932e+89  -2.184554e+88  0 
 -4.144593e+89  -2.390817e+89  0 
 -3.168391e+89  -2.609844e+89  0 
 -2.906450e+89  3.888684e+88  0 
 -3.157175e+89  5.044525e+87  0 
VECTORS displacement_ITER56 FLOAT
 -3.114427e+89  -1.050751e+89  0 
 -3.434479e+89  1.208694e+88  0 
 -3.670526e+89  -9.498909e+88  0 
 -5.340635e+89  2.891130e+89  0 
 -1.818175e+89  2.845776e+89  0 
 -2.591801e+89  6.997864e+88  0 
 -2.205439e+89  1.285745e+89  0 
 -4.222932e+89  -2.184554e+88  0 
 -4.144593e+89  -2.390817e+89  0 
 -3.168391e+89  -2.609844e+89  0 
 -2.906450e+89  3.888684e+88  0 
 -3.157175e+89  5.044525e+87  0 
VECTORS displacement_ITER57 FLOAT
 -3.114427e+89  -1.050751e+89  0 
 -3.434479e+89  1.208694e+88  0 
 -3.670526e+89  -9.498909e+88  0 
 -5.340635e+89  2.891130e+89  0 
 -1.818175e+89  2.845776e+89  0 
 -2.591801e+89  6.997864e+88  0 
 -2.205439e+89  1.285745e+89  0 
 -4.222932e+89  -2.184554e+88  0 
 -4.144593e+89  -2.390817e+89  0 
 -3.168391e+89  -2.609844e+89  0 
 -2.906450e+89  3.888684e+88  0 
 -3.157175e+89  5.044525e+87  0 
VECTORS displacement_ITER58 FLOAT
 -3.114427e+89  -1.050751e+89  0 
 -3.434479e+89  1.208694e+88  0 
 -3.670526e+89  -9.498909e+88  0 
 -5.340635e+89  2.891130e+89  0 
 -1.818175e+89  2.845776e+89  0 
 -2.591801e+89  6.997864e+88  0 
 -2.205439e+89  1.285745e+89  0 
 -4.222932e+89  -2.184554e+88  0 
 -4.144593e+89  -2.390817e+89  0 
 -3.168391e+89  -2.609844e+89  0 
 -2.906450e+89  3.888684e+88  0 
 -3.157175e+89  5.044525e+87  0 
VECTORS displacement_ITER59 FLOAT
 -3.114427e+89  -1.050751e+89  0 
 -3.434479e+89  1.208694e+88  0 
 -3.670526e+89  -9.498909e+88  0 
 -5.340635e+89  2.891130e+89  0 
 -1.818175e+89  2.845776e+89  0 
 -2.591801e+89  6.997864e+88  0 
 -2.205439e+89  1.285745e+89  0 
 -4.222932e+89  -2.184554e+88  0 
 -4.144593e+89  -2.390817e+89  0 
 -3.168391e+89  -2.609844e+89  0 
 -2.906450e+89  3.888684e+88  0 
 -3.157175e+89  5.044525e+87  0 
VECTORS displacement_ITER60 FLOAT
 -3.114427e+89  -1.050751e+89  0 
 -3.434479e+89  1.208694e+88  0 
 -3.670526e+89  -9.498909e+88  0 
 -5.340635e+89  2.891130e+89  0 
 -1.818175e+89  2.845776e+89  0 
 -2.591801e+89  6.997864e+88  0 
 -2.205439e+89  1.285745e+89  0 
 -4.222932e+89  -2.184554e+88  0 
 -4.144593e+89  -2.390817e+89  0 
 -3.168391e+89  -2.609844e+89  0 
 -2.906450e+89  3.888684e+88  0 
 -3.157175e+89  5.044525e+87  0 
VECTORS displacement_ITER61 FLOAT
 -3.114427e+89  -1.050751e+89  0 
 -3.434479e+89  1.208694e+88  0 
 -3.670526e+89  -9.498909e+88  0 
 -5.340635e+89  2.891130e+89  0 
 -1.818175e+89  2.845776e+89  0 
 -2.591801e+89  6.997864e+88  0 
 -2.205439e+89  1.285745e+89  0 
 -4.222932e+89  -2.184554e+88  0 
 -4.144593e+89  -2.390817e+89  0 
 -3.168391e+89  -2.609844e+89  0 
 -2.906450e+89  3.888684e+88  0 
 -3.157175e+89  5.044525e+87  0 
VECTORS displacement_ITER62 FLOAT
 -3.114427e+89  -1.050751e+89  0 
 -3.434479e+89  1.208694e+88  0 
 -3.670526e+89  -9.498909e+88  0 
 -5.340635e+89  2.891130e+89  0 
 -1.818175e+89  2.845776e+89  0 
 -2.591801e+89  6.997864e+88  0 
 -2.205439e+89  1.285745e+89  0 
 -4.222932e+89  -2.184554e+88  0 
 -4.144593e+89  -2.390817e+89  0 
 -3.168391e+89  -2.609844e+89  0 
 -2.906450e+89  3.888684e+88  0 
 -3.157175e+89  5.044525e+87  0 
VECTORS displacement_ITER63 FLOAT
 -3.114427e+89  -1.050751e+89  0 
 -3.434479e+89  1.208694e+88  0 
 -3.670526e+89  -9.498909e+88  0 
 -5.340635e+89  2.891130e+89  0 
 -1.818175e+89  2.845776e+89  0 
 -2.591801e+89  6.997864e+88  0 
 -2.205439e+89  1.285745e+89  0 
 -4.222932e+89  -2.184554e+88  0 
 -4.144593e+89  -2.390817e+89  0 
 -3.168391e+89  -2.609844e+89  0 
 -2.906450e+89  3.888684e+88  0 
 -3.157175e+89  5.044525e+87  0 
VECTORS displacement_ITER64 FLOAT
 -3.114427e+89  -1.050751e+89  0 
 -3.434479e+89  1.208694e+88  0 
 -3.670526e+89  -9.498909e+88  0 
 -5.340635e+89  2.891130e+89  0 
 -1.818175e+89  2.845776e+89  0 
 -2.591801e+89  6.997864e+88  0 
 -2.205439e+89  1.285745e+89  0 
 -4.222932e+89  -2.184554e+88  0 
 -4.144593e+89  -2.390817e+89  0 
 -3.168391e+89  -2.609844e+89  0 
 -2.906450e+89  3.888684e+88  0 
 -3.157175e+89  5.044525e+87  0 
VECTORS displacement_ITER65 FLOAT
 -3.114427e+89  -1.050751e+89  0 
 -3.434479e+89  1.208694e+88  0 
 -3.670526e+89  -9.498909e+88  0 
 -5.340635e+89  2.891130e+89  0 
 -1.818175e+89  2.845776e+89  0 
 -2.591801e+89  6.997864e+88  0 
 -2.205439e+89  1.285745e+89  0 
 -4.222932e+89  -2.184554e+88  0 
 -4.144593e+89  -2.390817e+89  0 
 -3.168391e+89  -2.609844e+89  0 
 -2.906450e+89  3.888684e+88  0 
 -3.157175e+89  5.044525e+87  0 
VECTORS displacement_ITER66 FLOAT
 -3.114427e+89  -1.050751e+89  0 
 -3.434479e+89  1.208694e+88  0 
 -3.670526e+89  -9.498909e+88  0 
 -5.340635e+89  2.891130e+89  0 
 -1.818175e+89  2.845776e+89  0 
 -2.591801e+89  6.997864e+88  0 
 -2.205439e+89  1.285745e+89  0 
 -4.222932e+89  -2.184554e+88  0 
 -4.144593e+89  -2.390817e+89  0 
 -3.168391e+89  -2.609844e+89  0 
 -2.906450e+89  3.888684e+88  0 
 -3.157175e+89  5.044525e+87  0 
VECTORS displacement_ITER67 FLOAT
 -3.114427e+89  -1.050751e+89  0 
 -3.434479e+89  1.208694e+88  0 
 -3.670526e+89  -9.498909e+88  0 
 -5.340635e+89  2.891130e+89  0 
 -1.818175e+89  2.845776e+89  0 
 -2.591801e+89  6.997864e+88  0 
 -2.205439e+89  1.285745e+89  0 
 -4.222932e+89  -2.184554e+88  0 
 -4.144593e+89  -2.390817e+89  0 
 -3.168391e+89  -2.609844e+89  0 
 -2.906450e+89  3.888684e+88  0 
 -3.157175e+89  5.044525e+87  0 
VECTORS displacement_ITER68 FLOAT
 -3.114427e+89  -1.050751e+89  0 
 -3.434479e+89  1.208694e+88  0 
 -3.670526e+89  -9.498909e+88  0 
 -5.340635e+89  2.891130e+89  0 
 -1.818175e+89  2.845776e+89  0 
 -2.591801e+89  6.997864e+88  0 
 -2.205439e+89  1.285745e+89  0 
 -4.222932e+89  -2.184554e+88  0 
 -4.144593e+89  -2.390817e+89  0 