# vtk DataFile Version 3.1
this is an vtk file created by FEMAC
ASCII
DATASET UNSTRUCTURED_GRID
POINTS 12 FLOAT
3.000000 0.000000 0.000000
3.500000 0.000000 0.000000
3.000000 0.200000 0.000000
3.000000 0.400000 0.000000
3.000000 0.600000 0.000000
3.000000 0.800000 0.000000
3.000000 1.000000 0.000000
3.500000 0.200000 0.000000
3.500000 0.400000 0.000000
3.500000 0.600000 0.000000
3.500000 0.800000 0.000000
3.500000 1.000000 0.000000
CELLS 5 25 
4 0 1 7 2
4 2 7 8 3
4 3 8 9 4
4 4  9 10  5
4 5 10 11  6
CELL_TYPES 5
9 9 9 9 9 
POINT_DATA 12
VECTORS displacement_ITER1 FLOAT
 -4.232453e-03  -1.317938e-02  0 
 -4.379672e-03  -1.746731e-02  0 
 -2.488973e-03  -1.317092e-02  0 
 -8.413557e-04  -1.311268e-02  0 
 8.835866e-04  -1.311268e-02  0 
 2.531204e-03  -1.317092e-02  0 
 4.274684e-03  -1.317938e-02  0 
 -2.689660e-03  -1.747479e-02  0 
 -8.678872e-04  -1.753718e-02  0 
 9.101181e-04  -1.753718e-02  0 
 2.731891e-03  -1.747479e-02  0 
 4.421903e-03  -1.746731e-02  0 
VECTORS displacement_ITER2 FLOAT
 -4.095190e-03  -1.320659e-02  0 
 -4.235799e-03  -1.742965e-02  0 
 -2.369559e-03  -1.320635e-02  0 
 -8.032407e-04  -1.320709e-02  0 
 8.387217e-04  -1.320709e-02  0 
 2.405041e-03  -1.320635e-02  0 
 4.130671e-03  -1.320659e-02  0 
 -2.586373e-03  -1.743030e-02  0 
 -8.338821e-04  -1.742419e-02  0 
 8.693631e-04  -1.742419e-02  0 
 2.621854e-03  -1.743030e-02  0 
 4.271280e-03  -1.742965e-02  0 
VECTORS displacement_ITER3 FLOAT
 -4.093463e-03  -1.319943e-02  0 
 -4.233926e-03  -1.741668e-02  0 
 -2.370139e-03  -1.319847e-02  0 
 -8.066228e-04  -1.320532e-02  0 
 8.314240e-04  -1.320541e-02  0 
 2.394341e-03  -1.319899e-02  0 
 4.117321e-03  -1.319995e-02  0 
 -2.586798e-03  -1.741727e-02  0 
 -8.377600e-04  -1.741305e-02  0 
 8.624240e-04  -1.741299e-02  0 
 2.611098e-03  -1.741687e-02  0 
 4.257827e-03  -1.741627e-02  0 
VECTORS displacement_ITER4 FLOAT
 -4.092002e-03  -1.320018e-02  0 
 -4.232213e-03  -1.741252e-02  0 
 -2.370678e-03  -1.319883e-02  0 
 -8.072380e-04  -1.320353e-02  0 
 8.291615e-04  -1.320349e-02  0 
 2.393921e-03  -1.319727e-02  0 
 4.116912e-03  -1.319865e-02  0 
 -2.586830e-03  -1.741351e-02  0 
 -8.395209e-04  -1.741006e-02  0 
 8.613700e-04  -1.741018e-02  0 
 2.610144e-03  -1.741587e-02  0 
 4.257127e-03  -1.741490e-02  0 
VECTORS displacement_ITER5 FLOAT
 -4.093610e-03  -1.319822e-02  0 
 -4.233763e-03  -1.741265e-02  0 
 -2.371575e-03  -1.319695e-02  0 
 -8.067332e-04  -1.320245e-02  0 
 8.291313e-04  -1.320244e-02  0 
 2.394027e-03  -1.319772e-02  0 
 4.115731e-03  -1.319898e-02  0 
 -2.587457e-03  -1.741359e-02  0 
 -8.393819e-04  -1.740887e-02  0 
 8.617758e-04  -1.740889e-02  0 
 2.609895e-03  -1.741355e-02  0 
 4.255905e-03  -1.741260e-02  0 
VECTORS displacement_ITER6 FLOAT
 -4.093763e-03  -1.319856e-02  0 
 -4.233933e-03  -1.741260e-02  0 
 -2.371892e-03  -1.319731e-02  0 
 -8.070572e-04  -1.320240e-02  0 
 8.288134e-04  -1.320240e-02  0 
 2.393762e-03  -1.319731e-02  0 
 4.115621e-03  -1.319857e-02  0 
 -2.587778e-03  -1.741354e-02  0 
 -8.396815e-04  -1.740885e-02  0 
 8.614877e-04  -1.740886e-02  0 
 2.609607e-03  -1.741355e-02  0 
 4.255781e-03  -1.741260e-02  0 
VECTORS displacement_ITER7 FLOAT
 -4.093687e-03  -1.319853e-02  0 
 -4.233852e-03  -1.741259e-02  0 
 -2.371815e-03  -1.319727e-02  0 
 -8.069145e-04  -1.320238e-02  0 
 8.289572e-04  -1.320238e-02  0 
 2.393844e-03  -1.319731e-02  0 
 4.115705e-03  -1.319856e-02  0 
 -2.587678e-03  -1.741353e-02  0 
 -8.395675e-04  -1.740884e-02  0 
 8.616036e-04  -1.740884e-02  0 
 2.609712e-03  -1.741353e-02  0 
 4.255871e-03  -1.741259e-02  0 
VECTORS displacement_ITER8 FLOAT
 -4.093711e-03  -1.319853e-02  0 
 -4.233875e-03  -1.741259e-02  0 
 -2.371840e-03  -1.319728e-02  0 
 -8.069396e-04  -1.320238e-02  0 
 8.289317e-04  -1.320239e-02  0 
 2.393819e-03  -1.319730e-02  0 
 4.115681e-03  -1.319856e-02  0 
 -2.587703e-03  -1.741353e-02  0 
 -8.395928e-04  -1.740884e-02  0 
 8.615780e-04  -1.740884e-02  0 
 2.609687e-03  -1.741353e-02  0 
 4.255847e-03  -1.741259e-02  0 
VECTORS displacement_ITER9 FLOAT
 -4.093710e-03  -1.319854e-02  0 
 -4.233874e-03  -1.741259e-02  0 
 -2.371840e-03  -1.319728e-02  0 
 -8.069395e-04  -1.320238e-02  0 
 8.289318e-04  -1.320239e-02  0 
 2.393819e-03  -1.319730e-02  0 
 4.115681e-03  -1.319856e-02  0 
 -2.587703e-03  -1.741353e-02  0 
 -8.395926e-04  -1.740884e-02  0 
 8.615782e-04  -1.740884e-02  0 
 2.609687e-03  -1.741353e-02  0 
 4.255847e-03  -1.741259e-02  0 
VECTORS displacement_ITER10 FLOAT
 3.950136e-02  1.038404e+00  0 
 1.137569e-02  1.143283e+00  0 
 5.316218e-03  1.035971e+00  0 
 -3.609797e-02  1.030683e+00  0 
 -1.386041e-01  1.029326e+00  0 
 -2.351543e-01  9.618049e-01  0 
 -3.690053e-01  9.662090e-01  0 
 -4.844233e-02  1.152228e+00  0 
 -4.401759e-02  1.324064e+00  0 
 -1.699213e-01  1.327233e+00  0 
 -2.463311e-01  1.297529e+00  0 
 -3.699022e-01  1.285776e+00  0 
VECTORS displacement_ITER11 FLOAT
 -7.707696e+11  -9.129950e+12  0 
 4.282287e+12  -5.266723e+13  0 
 1.855403e+13  -1.036568e+13  0 
 1.935301e+13  -6.362079e+13  0 
 5.156216e+12  -6.476223e+13  0 
 -2.312790e+12  -2.880337e+13  0 
 1.401134e+13  -2.535196e+13  0 
 2.460648e+13  -5.608489e+13  0 
 2.963630e+13  -4.365311e+12  0 
 -2.359399e+12  -4.392731e+12  0 
 -2.555182e+12  -6.264503e+13  0 
 1.275681e+13  -6.318236e+13  0 
VECTORS displacement_ITER12 FLOAT
 1.876899e+28  -1.618640e+28  0 
 1.366334e+28  -1.673466e+27  0 
 1.023967e+28  -1.841363e+28  0 
 -1.404821e+27  -2.487366e+27  0 
 -6.117124e+27  -1.789397e+27  0 
 -6.465823e+27  -1.923605e+26  0 
 -2.754192e+27  -1.489181e+27  0 
 4.414034e+27  9.296547e+26  0 
 -3.622156e+27  6.109225e+27  0 
 -7.621076e+27  8.009097e+27  0 
 -2.341307e+27  -7.189140e+27  0 
 -6.410781e+27  -7.177858e+27  0 
VECTORS displacement_ITER13 FLOAT
 4.854349e+43  -1.930540e+43  0 
 4.974714e+43  4.708249e+43  0 
 2.097700e+43  -2.186232e+43  0 
 1.112292e+43  1.874872e+42  0 
 3.330218e+42  -6.011860e+41  0 
 -2.257486e+42  2.894167e+43  0 
 1.556776e+43  3.388674e+43  0 
 2.142633e+43  4.765666e+43  0 
 2.264629e+43  1.624225e+43  0 
 1.223941e+43  2.016518e+43  0 
 9.795376e+42  -4.010353e+42  0 
 2.163206e+43  -6.497694e+42  0 
VECTORS displacement_ITER14 FLOAT
 -1.509553e+57  3.099758e+58  0 
 -1.110335e+58  4.757317e+57  0 
 9.740451e+57  2.923731e+58  0 
 1.207555e+58  -3.940014e+58  0 
 -2.120297e+57  -3.294141e+58  0 
 -6.394067e+57  3.721689e+58  0 
 4.204303e+57  3.349792e+58  0 
 -8.589497e+57  6.228555e+57  0 
 2.687164e+58  5.774244e+57  0 
 1.040976e+58  -2.899521e+57  0 
 -2.323953e+58  -8.733247e+57  0 
 2.497979e+57  -8.708370e+57  0 
VECTORS displacement_ITER15 FLOAT
 -6.606481e+72  -1.296503e+74  0 
 -6.814491e+73  -1.041192e+74  0 
 -1.009044e+73  -1.342609e+74  0 
 -3.315666e+73  -6.148113e+73  0 
 2.708193e+73  -7.711609e+73  0 
 7.423266e+72  -1.546606e+74  0 
 -3.687806e+73  -1.575265e+74  0 
 -9.223362e+73  -1.075271e+74  0 
 -3.705186e+73  -1.613101e+74  0 
 -4.606068e+73  -1.434299e+74  0 
 -3.613406e+73  -7.935450e+73  0 
 -6.439697e+73  -7.582479e+73  0 
VECTORS displacement_ITER16 FLOAT
 -4.450771e+88  3.116677e+89  0 
 1.720328e+88  8.030889e+89  0 
 -2.062553e+89  2.902359e+89  0 
 -3.919012e+89  2.279593e+89  0 
 -4.723272e+89  2.226857e+89  0 
 -2.089379e+89  1.129435e+90  0 
 1.084566e+88  1.048901e+90  0 
 -1.984716e+89  7.644618e+89  0 
 -2.293740e+89  4.811300e+89  0 
 -3.632400e+89  4.856821e+89  0 
 -2.332624e+89  5.485253e+89  0 
 -1.572527e+88  5.768881e+89  0 
VECTORS displacement_ITER17 FLOAT
 -4.450771e+88  3.116677e+89  0 
 1.720328e+88  8.030889e+89  0 
 -2.062553e+89  2.902359e+89  0 
 -3.919012e+89  2.279593e+89  0 
 -4.723272e+89  2.226857e+89  0 
 -2.089379e+89  1.129435e+90  0 
 1.084566e+88  1.048901e+90  0 
 -1.984716e+89  7.644618e+89  0 
 -2.293740e+89  4.811300e+89  0 
 -3.632400e+89  4.856821e+89  0 
 -2.332624e+89  5.485253e+89  0 
 -1.572527e+88  5.768881e+89  0 
VECTORS displacement_ITER18 FLOAT
 -4.450771e+88  3.116677e+89  0 
 1.720328e+88  8.030889e+89  0 
 -2.062553e+89  2.902359e+89  0 
 -3.919012e+89  2.279593e+89  0 
 -4.723272e+89  2.226857e+89  0 
 -2.089379e+89  1.129435e+90  0 
 1.084566e+88  1.048901e+90  0 
 -1.984716e+89  7.644618e+89  0 
 -2.293740e+89  4.811300e+89  0 
 -3.632400e+89  4.856821e+89  0 
 -2.332624e+89  5.485253e+89  0 
 -1.572527e+88  5.768881e+89  0 
VECTORS displacement_ITER19 FLOAT
 -4.450771e+88  3.116677e+89  0 
 1.720328e+88  8.030889e+89  0 
 -2.062553e+89  2.902359e+89  0 
 -3.919012e+89  2.279593e+89  0 
 -4.723272e+89  2.226857e+89  0 
 -2.089379e+89  1.129435e+90  0 
 1.084566e+88  1.048901e+90  0 
 -1.984716e+89  7.644618e+89  0 
 -2.293740e+89  4.811300e+89  0 
 -3.632400e+89  4.856821e+89  0 
 -2.332624e+89  5.485253e+89  0 
 -1.572527e+88  5.768881e+89  0 
VECTORS displacement_ITER20 FLOAT
 -4.450771e+88  3.116677e+89  0 
 1.720328e+88  8.030889e+89  0 
 -2.062553e+89  2.902359e+89  0 
 -3.919012e+89  2.279593e+89  0 
 -4.723272e+89  2.226857e+89  0 
 -2.089379e+89  1.129435e+90  0 
 1.084566e+88  1.048901e+90  0 
 -1.984716e+89  7.644618e+89  0 
 -2.293740e+89  4.811300e+89  0 
 -3.632400e+89  4.856821e+89  0 
 -2.332624e+89  5.485253e+89  0 
 -1.572527e+88  5.768881e+89  0 
VECTORS displacement_ITER21 FLOAT
 -4.450771e+88  3.116677e+89  0 
 1.720328e+88  8.030889e+89  0 
 -2.062553e+89  2.902359e+89  0 
 -3.919012e+89  2.279593e+89  0 
 -4.723272e+89  2.226857e+89  0 
 -2.089379e+89  1.129435e+90  0 
 1.084566e+88  1.048901e+90  0 
 -1.984716e+89  7.644618e+89  0 
 -2.293740e+89  4.811300e+89  0 
 -3.632400e+89  4.856821e+89  0 
 -2.332624e+89  5.485253e+89  0 
 -1.572527e+88  5.768881e+89  0 
VECTORS displacement_ITER22 FLOAT
 -4.450771e+88  3.116677e+89  0 
 1.720328e+88  8.030889e+89  0 
 -2.062553e+89  2.902359e+89  0 
 -3.919012e+89  2.279593e+89  0 
 -4.723272e+89  2.226857e+89  0 
 -2.089379e+89  1.129435e+90  0 
 1.084566e+88  1.048901e+90  0 
 -1.984716e+89  7.644618e+89  0 
 -2.293740e+89  4.811300e+89  0 
 -3.632400e+89  4.856821e+89  0 
 -2.332624e+89  5.485253e+89  0 
 -1.572527e+88  5.768881e+89  0 
VECTORS displacement_ITER23 FLOAT
 -4.450771e+88  3.116677e+89  0 
 1.720328e+88  8.030889e+89  0 
 -2.062553e+89  2.902359e+89  0 
 -3.919012e+89  2.279593e+89  0 
 -4.723272e+89  2.226857e+89  0 
 -2.089379e+89  1.129435e+90  0 
 1.084566e+88  1.048901e+90  0 
 -1.984716e+89  7.644618e+89  0 
 -2.293740e+89  4.811300e+89  0 
 -3.632400e+89  4.856821e+89  0 
 -2.332624e+89  5.485253e+89  0 
 -1.572527e+88  5.768881e+89  0 
VECTORS displacement_ITER24 FLOAT
 -4.450771e+88  3.116677e+89  0 
 1.720328e+88  8.030889e+89  0 
 -2.062553e+89  2.902359e+89  0 
 -3.919012e+89  2.279593e+89  0 
 -4.723272e+89  2.226857e+89  0 
 -2.089379e+89  1.129435e+90  0 
 1.084566e+88  1.048901e+90  0 
 -1.984716e+89  7.644618e+89  0 
 -2.293740e+89  4.811300e+89  0 
 -3.632400e+89  4.856821e+89  0 
 -2.332624e+89  5.485253e+89  0 
 -1.572527e+88  5.768881e+89  0 
VECTORS displacement_ITER25 FLOAT
 -4.450771e+88  3.116677e+89  0 
 1.720328e+88  8.030889e+89  0 
 -2.062553e+89  2.902359e+89  0 
 -3.919012e+89  2.279593e+89  0 
 -4.723272e+89  2.226857e+89  0 
 -2.089379e+89  1.129435e+90  0 
 1.084566e+88  1.048901e+90  0 
 -1.984716e+89  7.644618e+89  0 
 -2.293740e+89  4.811300e+89  0 
 -3.632400e+89  4.856821e+89  0 
 -2.332624e+89  5.485253e+89  0 
 -1.572527e+88  5.768881e+89  0 
VECTORS displacement_ITER26 FLOAT
 -4.450771e+88  3.116677e+89  0 
 1.720328e+88  8.030889e+89  0 
 -2.062553e+89  2.902359e+89  0 
 -3.919012e+89  2.279593e+89  0 
 -4.723272e+89  2.226857e+89  0 
 -2.089379e+89  1.129435e+90  0 
 1.084566e+88  1.048901e+90  0 
 -1.984716e+89  7.644618e+89  0 
 -2.293740e+89  4.811300e+89  0 
 -3.632400e+89  4.856821e+89  0 
 -2.332624e+89  5.485253e+89  0 
 -1.572527e+88  5.768881e+89  0 
VECTORS displacement_ITER27 FLOAT
 -4.450771e+88  3.116677e+89  0 
 1.720328e+88  8.030889e+89  0 
 -2.062553e+89  2.902359e+89  0 
 -3.919012e+89  2.279593e+89  0 
 -4.723272e+89  2.226857e+89  0 
 -2.089379e+89  1.129435e+90  0 
 1.084566e+88  1.048901e+90  0 
 -1.984716e+89  7.644618e+89  0 
 -2.293740e+89  4.811300e+89  0 
 -3.632400e+89  4.856821e+89  0 
 -2.332624e+89  5.485253e+89  0 
 -1.572527e+88  5.768881e+89  0 
VECTORS displacement_ITER28 FLOAT
 -4.450771e+88  3.116677e+89  0 
 1.720328e+88  8.030889e+89  0 
 -2.062553e+89  2.902359e+89  0 
 -3.919012e+89  2.279593e+89  0 
 -4.723272e+89  2.226857e+89  0 
 -2.089379e+89  1.129435e+90  0 
 1.084566e+88  1.048901e+90  0 
 -1.984716e+89  7.644618e+89  0 
 -2.293740e+89  4.811300e+89  0 
 -3.632400e+89  4.856821e+89  0 
 -2.332624e+89  5.485253e+89  0 
 -1.572527e+88  5.768881e+89  0 
VECTORS displacement_ITER29 FLOAT
 -4.450771e+88  3.116677e+89  0 
 1.720328e+88  8.030889e+89  0 
 -2.062553e+89  2.902359e+89  0 
 -3.919012e+89  2.279593e+89  0 
 -4.723272e+89  2.226857e+89  0 
 -2.089379e+89  1.129435e+90  0 
 1.084566e+88  1.048901e+90  0 
 -1.984716e+89  7.644618e+89  0 
 -2.293740e+89  4.811300e+89  0 
 -3.632400e+89  4.856821e+89  0 
 -2.332624e+89  5.485253e+89  0 
 -1.572527e+88  5.768881e+89  0 
VECTORS displacement_ITER30 FLOAT
 -4.450771e+88  3.116677e+89  0 
 1.720328e+88  8.030889e+89  0 
 -2.062553e+89  2.902359e+89  0 
 -3.919012e+89  2.279593e+89  0 
 -4.723272e+89  2.226857e+89  0 
 -2.089379e+89  1.129435e+90  0 
 1.084566e+88  1.048901e+90  0 
 -1.984716e+89  7.644618e+89  0 
 -2.293740e+89  4.811300e+89  0 
 -3.632400e+89  4.856821e+89  0 
 -2.332624e+89  5.485253e+89  0 
 -1.572527e+88  5.768881e+89  0 
VECTORS displacement_ITER31 FLOAT
 -4.450771e+88  3.116677e+89  0 
 1.720328e+88  8.030889e+89  0 
 -2.062553e+89  2.902359e+89  0 
 -3.919012e+89  2.279593e+89  0 
 -4.723272e+89  2.226857e+89  0 
 -2.089379e+89  1.129435e+90  0 
 1.084566e+88  1.048901e+90  0 
 -1.984716e+89  7.644618e+89  0 
 -2.293740e+89  4.811300e+89  0 
 -3.632400e+89  4.856821e+89  0 
 -2.332624e+89  5.485253e+89  0 
 -1.572527e+88  5.768881e+89  0 
VECTORS displacement_ITER32 FLOAT
 -4.450771e+88  3.116677e+89  0 
 1.720328e+88  8.030889e+89  0 
 -2.062553e+89  2.902359e+89  0 
 -3.919012e+89  2.279593e+89  0 
 -4.723272e+89  2.226857e+89  0 
 -2.089379e+89  1.129435e+90  0 
 1.084566e+88  1.048901e+90  0 
 -1.984716e+89  7.644618e+89  0 
 -2.293740e+89  4.811300e+89  0 
 -3.632400e+89  4.856821e+89  0 
 -2.332624e+89  5.485253e+89  0 
 -1.572527e+88  5.768881e+89  0 
VECTORS displacement_ITER33 FLOAT
 -4.450771e+88  3.116677e+89  0 
 1.720328e+88  8.030889e+89  0 
 -2.062553e+89  2.902359e+89  0 
 -3.919012e+89  2.279593e+89  0 
 -4.723272e+89  2.226857e+89  0 
 -2.089379e+89  1.129435e+90  0 
 1.084566e+88  1.048901e+90  0 
 -1.984716e+89  7.644618e+89  0 
 -2.293740e+89  4.811300e+89  0 
 -3.632400e+89  4.856821e+89  0 
 -2.332624e+89  5.485253e+89  0 
 -1.572527e+88  5.768881e+89  0 
VECTORS displacement_ITER34 FLOAT
 -4.450771e+88  3.116677e+89  0 
 1.720328e+88  8.030889e+89  0 
 -2.062553e+89  2.902359e+89  0 
 -3.919012e+89  2.279593e+89  0 
 -4.723272e+89  2.226857e+89  0 
 -2.089379e+89  1.129435e+90  0 
 1.084566e+88  1.048901e+90  0 
 -1.984716e+89  7.644618e+89  0 
 -2.293740e+89  4.811300e+89  0 
 -3.632400e+89  4.856821e+89  0 
 -2.332624e+89  5.485253e+89  0 
 -1.572527e+88  5.768881e+89  0 
VECTORS displacement_ITER35 FLOAT
 -4.450771e+88  3.116677e+89  0 
 1.720328e+88  8.030889e+89  0 
 -2.062553e+89  2.902359e+89  0 
 -3.919012e+89  2.279593e+89  0 
 -4.723272e+89  2.226857e+89  0 
 -2.089379e+89  1.129435e+90  0 
 1.084566e+88  1.048901e+90  0 
 -1.984716e+89  7.644618e+89  0 
 -2.293740e+89  4.811300e+89  0 
 -3.632400e+89  4.856821e+89  0 
 -2.332624e+89  5.485253e+89  0 
 -1.572527e+88  5.768881e+89  0 
VECTORS displacement_ITER36 FLOAT
 -4.450771e+88  3.116677e+89  0 
 1.720328e+88  8.030889e+89  0 
 -2.062553e+89  2.902359e+89  0 
 -3.919012e+89  2.279593e+89  0 
 -4.723272e+89  2.226857e+89  0 
 -2.089379e+89  1.129435e+90  0 
 1.084566e+88  1.048901e+90  0 
 -1.984716e+89  7.644618e+89  0 
 -2.293740e+89  4.811300e+89  0 
 -3.632400e+89  4.856821e+89  0 
 -2.332624e+89  5.485253e+89  0 
 -1.572527e+88  5.768881e+89  0 
VECTORS displacement_ITER37 FLOAT
 -4.450771e+88  3.116677e+89  0 
 1.720328e+88  8.030889e+89  0 
 -2.062553e+89  2.902359e+89  0 
 -3.919012e+89  2.279593e+89  0 
 -4.723272e+89  2.226857e+89  0 
 -2.089379e+89  1.129435e+90  0 
 1.084566e+88  1.048901e+90  0 
 -1.984716e+89  7.644618e+89  0 
 -2.293740e+89  4.811300e+89  0 
 -3.632400e+89  4.856821e+89  0 
 -2.332624e+89  5.485253e+89  0 
 -1.572527e+88  5.768881e+89  0 
VECTORS displacement_ITER38 FLOAT
 -4.450771e+88  3.116677e+89  0 
 1.720328e+88  8.030889e+89  0 
 -2.062553e+89  2.902359e+89  0 
 -3.919012e+89  2.279593e+89  0 
 -4.723272e+89  2.226857e+89  0 
 -2.089379e+89  1.129435e+90  0 
 1.084566e+88  1.048901e+90  0 
 -1.984716e+89  7.644618e+89  0 
 -2.293740e+89  4.811300e+89  0 
 -3.632400e+89  4.856821e+89  0 
 -2.332624e+89  5.485253e+89  0 
 -1.572527e+88  5.768881e+89  0 
VECTORS displacement_ITER39 FLOAT
 -4.450771e+88  3.116677e+89  0 
 1.720328e+88  8.030889e+89  0 
 -2.062553e+89  2.902359e+89  0 
 -3.919012e+89  2.279593e+89  0 
 -4.723272e+89  2.226857e+89  0 
 -2.089379e+89  1.129435e+90  0 
 1.084566e+88  1.048901e+90  0 
 -1.984716e+89  7.644618e+89  0 
 -2.293740e+89  4.811300e+89  0 
 -3.632400e+89  4.856821e+89  0 
 -2.332624e+89  5.485253e+89  0 
 -1.572527e+88  5.768881e+89  0 
VECTORS displacement_ITER40 FLOAT
 -4.450771e+88  3.116677e+89  0 
 1.720328e+88  8.030889e+89  0 
 -2.062553e+89  2.902359e+89  0 
 -3.919012e+89  2.279593e+89  0 
 -4.723272e+89  2.226857e+89  0 
 -2.089379e+89  1.129435e+90  0 
 1.084566e+88  1.048901e+90  0 
 -1.984716e+89  7.644618e+89  0 
 -2.293740e+89  4.811300e+89  0 
 -3.632400e+89  4.856821e+89  0 
 -2.332624e+89  5.485253e+89  0 
 -1.572527e+88  5.768881e+89  0 
VECTORS displacement_ITER41 FLOAT
 -4.450771e+88  3.116677e+89  0 
 1.720328e+88  8.030889e+89  0 
 -2.062553e+89  2.902359e+89  0 
 -3.919012e+89  2.279593e+89  0 
 -4.723272e+89  2.226857e+89  0 
 -2.089379e+89  1.129435e+90  0 
 1.084566e+88  1.048901e+90  0 
 -1.984716e+89  7.644618e+89  0 
 -2.293740e+89  4.811300e+89  0 
 -3.632400e+89  4.856821e+89  0 
 -2.332624e+89  5.485253e+89  0 
 -1.572527e+88  5.768881e+89  0 
VECTORS displacement_ITER42 FLOAT
 -4.450771e+88  3.116677e+89  0 
 1.720328e+88  8.030889e+89  0 
 -2.062553e+89  2.902359e+89  0 
 -3.919012e+89  2.279593e+89  0 
 -4.723272e+89  2.226857e+89  0 
 -2.089379e+89  1.129435e+90  0 
 1.084566e+88  1.048901e+90  0 
 -1.984716e+89  7.644618e+89  0 
 -2.293740e+89  4.811300e+89  0 
 -3.632400e+89  4.856821e+89  0 
 -2.332624e+89  5.485253e+89  0 
 -1.572527e+88  5.768881e+89  0 
VECTORS displacement_ITER43 FLOAT
 -4.450771e+88  3.116677e+89  0 
 1.720328e+88  8.030889e+89  0 
 -2.062553e+89  2.902359e+89  0 
 -3.919012e+89  2.279593e+89  0 
 -4.723272e+89  2.226857e+89  0 
 -2.089379e+89  1.129435e+90  0 
 1.084566e+88  1.048901e+90  0 
 -1.984716e+89  7.644618e+89  0 
 -2.293740e+89  4.811300e+89  0 
 -3.632400e+89  4.856821e+89  0 
 -2.332624e+89  5.485253e+89  0 
 -1.572527e+88  5.768881e+89  0 
VECTORS displacement_ITER44 FLOAT
 -4.450771e+88  3.116677e+89  0 
 1.720328e+88  8.030889e+89  0 
 -2.062553e+89  2.902359e+89  0 
 -3.919012e+89  2.279593e+89  0 
 -4.723272e+89  2.226857e+89  0 
 -2.089379e+89  1.129435e+90  0 
 1.084566e+88  1.048901e+90  0 
 -1.984716e+89  7.644618e+89  0 
 -2.293740e+89  4.811300e+89  0 
 -3.632400e+89  4.856821e+89  0 
 -2.332624e+89  5.485253e+89  0 
 -1.572527e+88  5.768881e+89  0 
VECTORS displacement_ITER45 FLOAT
 -4.450771e+88  3.116677e+89  0 
 1.720328e+88  8.030889e+89  0 
 -2.062553e+89  2.902359e+89  0 
 -3.919012e+89  2.279593e+89  0 
 -4.723272e+89  2.226857e+89  0 
 -2.089379e+89  1.129435e+90  0 
 1.084566e+88  1.048901e+90  0 
 -1.984716e+89  7.644618e+89  0 
 -2.293740e+89  4.811300e+89  0 
 -3.632400e+89  4.856821e+89  0 
 -2.332624e+89  5.485253e+89  0 
 -1.572527e+88  5.768881e+89  0 
VECTORS displacement_ITER46 FLOAT
 -4.450771e+88  3.116677e+89  0 
 1.720328e+88  8.030889e+89  0 
 -2.062553e+89  2.902359e+89  0 
 -3.919012e+89  2.279593e+89  0 
 -4.723272e+89  2.226857e+89  0 
 -2.089379e+89  1.129435e+90  0 
 1.084566e+88  1.048901e+90  0 
 -1.984716e+89  7.644618e+89  0 
 -2.293740e+89  4.811300e+89  0 
 -3.632400e+89  4.856821e+89  0 
 -2.332624e+89  5.485253e+89  0 
 -1.572527e+88  5.768881e+89  0 
VECTORS displacement_ITER47 FLOAT
 -4.450771e+88  3.116677e+89  0 
 1.720328e+88  8.030889e+89  0 
 -2.062553e+89  2.902359e+89  0 
 -3.919012e+89  2.279593e+89  0 
 -4.723272e+89  2.226857e+89  0 
 -2.089379e+89  1.129435e+90  0 
 1.084566e+88  1.048901e+90  0 
 -1.984716e+89  7.644618e+89  0 
 -2.293740e+89  4.811300e+89  0 
 -3.632400e+89  4.856821e+89  0 
 -2.332624e+89  5.485253e+89  0 
 -1.572527e+88  5.768881e+89  0 
VECTORS displacement_ITER48 FLOAT
 -4.450771e+88  3.116677e+89  0 
 1.720328e+88  8.030889e+89  0 
 -2.062553e+89  2.902359e+89  0 
 -3.919012e+89  2.279593e+89  0 
 -4.723272e+89  2.226857e+89  0 
 -2.089379e+89  1.129435e+90  0 
 1.084566e+88  1.048901e+90  0 
 -1.984716e+89  7.644618e+89  0 
 -2.293740e+89  4.811300e+89  0 
 -3.632400e+89  4.856821e+89  0 
 -2.332624e+89  5.485253e+89  0 
 -1.572527e+88  5.768881e+89  0 
VECTORS displacement_ITER49 FLOAT
 -4.450771e+88  3.116677e+89  0 
 1.720328e+88  8.030889e+89  0 
 -2.062553e+89  2.902359e+89  0 
 -3.919012e+89  2.279593e+89  0 
 -4.723272e+89  2.226857e+89  0 
 -2.089379e+89  1.129435e+90  0 
 1.084566e+88  1.048901e+90  0 
 -1.984716e+89  7.644618e+89  0 
 -2.293740e+89  4.811300e+89  0 
 -3.632400e+89  4.856821e+89  0 
 -2.332624e+89  5.485253e+89  0 
 -1.572527e+88  5.768881e+89  0 
VECTORS displacement_ITER50 FLOAT
 -4.450771e+88  3.116677e+89  0 
 1.720328e+88  8.030889e+89  0 
 -2.062553e+89  2.902359e+89  0 
 -3.919012e+89  2.279593e+89  0 
 -4.723272e+89  2.226857e+89  0 
 -2.089379e+89  1.129435e+90  0 
 1.084566e+88  1.048901e+90  0 
 -1.984716e+89  7.644618e+89  0 
 -2.293740e+89  4.811300e+89  0 
 -3.632400e+89  4.856821e+89  0 
 -2.332624e+89  5.485253e+89  0 
 -1.572527e+88  5.768881e+89  0 
VECTORS displacement_ITER51 FLOAT
 -4.450771e+88  3.116677e+89  0 
 1.720328e+88  8.030889e+89  0 
 -2.062553e+89  2.902359e+89  0 
 -3.919012e+89  2.279593e+89  0 
 -4.723272e+89  2.226857e+89  0 
 -2.089379e+89  1.129435e+90  0 
 1.084566e+88  1.048901e+90  0 
 -1.984716e+89  7.644618e+89  0 
 -2.293740e+89  4.811300e+89  0 
 -3.632400e+89  4.856821e+89  0 
 -2.332624e+89  5.485253e+89  0 
 -1.572527e+88  5.768881e+89  0 
VECTORS displacement_ITER52 FLOAT
 -4.450771e+88  3.116677e+89  0 
 1.720328e+88  8.030889e+89  0 
 -2.062553e+89  2.902359e+89  0 
 -3.919012e+89  2.279593e+89  0 
 -4.723272e+89  2.226857e+89  0 
 -2.089379e+89  1.129435e+90  0 
 1.084566e+88  1.048901e+90  0 
 -1.984716e+89  7.644618e+89  0 
 -2.293740e+89  4.811300e+89  0 
 -3.632400e+89  4.856821e+89  0 
 -2.332624e+89  5.485253e+89  0 
 -1.572527e+88  5.768881e+89  0 
VECTORS displacement_ITER53 FLOAT
 -4.450771e+88  3.116677e+89  0 
 1.720328e+88  8.030889e+89  0 
 -2.062553e+89  2.902359e+89  0 
 -3.919012e+89  2.279593e+89  0 
 -4.723272e+89  2.226857e+89  0 
 -2.089379e+89  1.129435e+90  0 
 1.084566e+88  1.048901e+90  0 
 -1.984716e+89  7.644618e+89  0 
 -2.293740e+89  4.811300e+89  0 
 -3.632400e+89  4.856821e+89  0 
 -2.332624e+89  5.485253e+89  0 
 -1.572527e+88  5.768881e+89  0 
VECTORS displacement_ITER54 FLOAT
 -4.450771e+88  3.116677e+89  0 
 1.720328e+88  8.030889e+89  0 
 -2.062553e+89  2.902359e+89  0 
 -3.919012e+89  2.279593e+89  0 
 -4.723272e+89  2.226857e+89  0 
 -2.089379e+89  1.129435e+90  0 
 1.084566e+88  1.048901e+90  0 
 -1.984716e+89  7.644618e+89  0 
 -2.293740e+89  4.811300e+89  0 
 -3.632400e+89  4.856821e+89  0 
 -2.332624e+89  5.485253e+89  0 
 -1.572527e+88  5.768881e+89  0 
VECTORS displacement_ITER55 FLOAT
 -4.450771e+88  3.116677e+89  0 
 1.720328e+88  8.030889e+89  0 
 -2.062553e+89  2.902359e+89  0 
 -3.919012e+89  2.279593e+89  0 
 -4.723272e+89  2.226857e+89  0 
 -2.089379e+89  1.129435e+90  0 
 1.084566e+88  1.048901e+90  0 
 -1.984716e+89  7.644618e+89  0 
 -2.293740e+89  4.811300e+89  0 
 -3.632400e+89  4.856821e+89  0 
 -2.332624e+89  5.485253e+89  0 
 -1.572527e+88  5.768881e+89  0 
VECTORS displacement_ITER56 FLOAT
 -4.450771e+88  3.116677e+89  0 
 1.720328e+88  8.030889e+89  0 
 -2.062553e+89  2.902359e+89  0 
 -3.919012e+89  2.279593e+89  0 
 -4.723272e+89  2.226857e+89  0 
 -2.089379e+89  1.129435e+90  0 
 1.084566e+88  1.048901e+90  0 
 -1.984716e+89  7.644618e+89  0 
 -2.293740e+89  4.811300e+89  0 
 -3.632400e+89  4.856821e+89  0 
 -2.332624e+89  5.485253e+89  0 
 -1.572527e+88  5.768881e+89  0 
VECTORS displacement_ITER57 FLOAT
 -4.450771e+88  3.116677e+89  0 
 1.720328e+88  8.030889e+89  0 
 -2.062553e+89  2.902359e+89  0 
 -3.919012e+89  2.279593e+89  0 
 -4.723272e+89  2.226857e+89  0 
 -2.089379e+89  1.129435e+90  0 
 1.084566e+88  1.048901e+90  0 
 -1.984716e+89  7.644618e+89  0 
 -2.293740e+89  4.811300e+89  0 
 -3.632400e+89  4.856821e+89  0 
 -2.332624e+89  5.485253e+89  0 
 -1.572527e+88  5.768881e+89  0 
VECTORS displacement_ITER58 FLOAT
 -4.450771e+88  3.116677e+89  0 
 1.720328e+88  8.030889e+89  0 
 -2.062553e+89  2.902359e+89  0 
 -3.919012e+89  2.279593e+89  0 
 -4.723272e+89  2.226857e+89  0 
 -2.089379e+89  1.129435e+90  0 
 1.084566e+88  1.048901e+90  0 
 -1.984716e+89  7.644618e+89  0 
 -2.293740e+89  4.811300e+89  0 
 -3.632400e+89  4.856821e+89  0 
 -2.332624e+89  5.485253e+89  0 
 -1.572527e+88  5.768881e+89  0 
VECTORS displacement_ITER59 FLOAT
 -4.450771e+88  3.116677e+89  0 
 1.720328e+88  8.030889e+89  0 
 -2.062553e+89  2.902359e+89  0 
 -3.919012e+89  2.279593e+89  0 
 -4.723272e+89  2.226857e+89  0 
 -2.089379e+89  1.129435e+90  0 
 1.084566e+88  1.048901e+90  0 
 -1.984716e+89  7.644618e+89  0 
 -2.293740e+89  4.811300e+89  0 
 -3.632400e+89  4.856821e+89  0 
 -2.332624e+89  5.485253e+89  0 
 -1.572527e+88  5.768881e+89  0 
VECTORS displacement_ITER60 FLOAT
 -4.450771e+88  3.116677e+89  0 
 1.720328e+88  8.030889e+89  0 
 -2.062553e+89  2.902359e+89  0 
 -3.919012e+89  2.279593e+89  0 
 -4.723272e+89  2.226857e+89  0 
 -2.089379e+89  1.129435e+90  0 
 1.084566e+88  1.048901e+90  0 
 -1.984716e+89  7.644618e+89  0 
 -2.293740e+89  4.811300e+89  0 
 -3.632400e+89  4.856821e+89  0 
 -2.332624e+89  5.485253e+89  0 
 -1.572527e+88  5.768881e+89  0 
VECTORS displacement_ITER61 FLOAT
 -4.450771e+88  3.116677e+89  0 
 1.720328e+88  8.030889e+89  0 
 -2.062553e+89  2.902359e+89  0 
 -3.919012e+89  2.279593e+89  0 
 -4.723272e+89  2.226857e+89  0 
 -2.089379e+89  1.129435e+90  0 
 1.084566e+88  1.048901e+90  0 
 -1.984716e+89  7.644618e+89  0 
 -2.293740e+89  4.811300e+89  0 
 -3.632400e+89  4.856821e+89  0 
 -2.332624e+89  5.485253e+89  0 
 -1.572527e+88  5.768881e+89  0 
VECTORS displacement_ITER62 FLOAT
 -4.450771e+88  3.116677e+89  0 
 1.720328e+88  8.030889e+89  0 
 -2.062553e+89  2.902359e+89  0 
 -3.919012e+89  2.279593e+89  0 
 -4.723272e+89  2.226857e+89  0 
 -2.089379e+89  1.129435e+90  0 
 1.084566e+88  1.048901e+90  0 
 -1.984716e+89  7.644618e+89  0 
 -2.293740e+89  4.811300e+89  0 
 -3.632400e+89  4.856821e+89  0 
 -2.332624e+89  5.485253e+89  0 
 -1.572527e+88  5.768881e+89  0 
VECTORS displacement_ITER63 FLOAT
 -4.450771e+88  3.116677e+89  0 
 1.720328e+88  8.030889e+89  0 
 -2.062553e+89  2.902359e+89  0 
 -3.919012e+89  2.279593e+89  0 
 -4.723272e+89  2.226857e+89  0 
 -2.089379e+89  1.129435e+90  0 
 1.084566e+88  1.048901e+90  0 
 -1.984716e+89  7.644618e+89  0 
 -2.293740e+89  4.811300e+89  0 
 -3.632400e+89  4.856821e+89  0 
 -2.332624e+89  5.485253e+89  0 
 -1.572527e+88  5.768881e+89  0 
VECTORS displacement_ITER64 FLOAT
 -4.450771e+88  3.116677e+89  0 
 1.720328e+88  8.030889e+89  0 
 -2.062553e+89  2.902359e+89  0 
 -3.919012e+89  2.279593e+89  0 
 -4.723272e+89  2.226857e+89  0 
 -2.089379e+89  1.129435e+90  0 
 1.084566e+88  1.048901e+90  0 
 -1.984716e+89  7.644618e+89  0 
 -2.293740e+89  4.811300e+89  0 
 -3.632400e+89  4.856821e+89  0 
 -2.332624e+89  5.485253e+89  0 
 -1.572527e+88  5.768881e+89  0 
VECTORS displacement_ITER65 FLOAT
 -4.450771e+88  3.116677e+89  0 
 1.720328e+88  8.030889e+89  0 
 -2.062553e+89  2.902359e+89  0 
 -3.919012e+89  2.279593e+89  0 
 -4.723272e+89  2.226857e+89  0 
 -2.089379e+89  1.129435e+90  0 
 1.084566e+88  1.048901e+90  0 
 -1.984716e+89  7.644618e+89  0 
 -2.293740e+89  4.811300e+89  0 
 -3.632400e+89  4.856821e+89  0 
 -2.332624e+89  5.485253e+89  0 
 -1.572527e+88  5.768881e+89  0 
VECTORS displacement_ITER66 FLOAT
 -4.450771e+88  3.116677e+89  0 
 1.720328e+88  8.030889e+89  0 
 -2.062553e+89  2.902359e+89  0 
 -3.919012e+89  2.279593e+89  0 
 -4.723272e+89  2.226857e+89  0 
 -2.089379e+89  1.129435e+90  0 
 1.084566e+88  1.048901e+90  0 
 -1.984716e+89  7.644618e+89  0 
 -2.293740e+89  4.811300e+89  0 
 -3.632400e+89  4.856821e+89  0 
 -2.332624e+89  5.485253e+89  0 
 -1.572527e+88  5.768881e+89  0 
VECTORS displacement_ITER67 FLOAT
 -4.450771e+88  3.116677e+89  0 
 1.720328e+88  8.030889e+89  0 
 -2.062553e+89  2.902359e+89  0 
 -3.919012e+89  2.279593e+89  0 
 -4.723272e+89  2.226857e+89  0 
 -2.089379e+89  1.129435e+90  0 
 1.084566e+88  1.048901e+90  0 
 -1.984716e+89  7.644618e+89  0 
 -2.293740e+89  4.811300e+89  0 
 -3.632400e+89  4.856821e+89  0 
 -2.332624e+89  5.485253e+89  0 
 -1.572527e+88  5.768881e+89  0 
VECTORS displacement_ITER68 FLOAT
 -4.450771e+88  3.116677e+89  0 
 1.720328e+88  8.030889e+89  0 
 -2.062553e+89  2.902359e+89  0 
 -3.919012e+89  2.279593e+89  0 
 -4.723272e+89  2.226857e+89  0 
 -2.089379e+89  1.129435e+90  0 
 1.084566e+88  1.048901e+90  0 
 -1.984716e+89  7.644618e+89  0 
 -2.293740e+89  4.811300e+89  0 
 -3.632400e+89  4.856821e+89  0 
 -2.332624e+89  5.485253e+89  0 
 -1.572527e+88  5.768881e+89  0 
VECTORS displacement_ITER69 FLOAT
 -4.450771e+88  3.116677e+89  0 
 1.720328e+88  8.030889e+89  0 
 -2.062553e+89  2.902359e+89  0 
 -3.919012e+89  2.279593e+89  0 
 -4.723272e+89  2.226857e+89  0 
 -2.089379e+89  1.129435e+90  0 
 1.084566e+88  1.048901e+90  0 