# vtk DataFile Version 3.1
this is an vtk file created by FEMAC
ASCII
DATASET UNSTRUCTURED_GRID
POINTS 12 FLOAT
4.500000 0.000000 0.000000
5.000000 0.000000 0.000000
4.500000 0.200000 0.000000
4.500000 0.400000 0.000000
4.500000 0.600000 0.000000
4.500000 0.800000 0.000000
4.500000 1.000000 0.000000
5.000000 0.200000 0.000000
5.000000 0.400000 0.000000
5.000000 0.600000 0.000000
5.000000 0.800000 0.000000
5.000000 1.000000 0.000000
CELLS 5 25 
4 0 1 7 2
4 2 7 8 3
4 3 8 9 4
4 4  9 10  5
4 5 10 11  6
CELL_TYPES 5
9 9 9 9 9 
POINT_DATA 12
VECTORS displacement_ITER1 FLOAT
 -4.987627e-03  -2.775002e-02  0 
 -5.272951e-03  -3.290173e-02  0 
 -3.007777e-03  -2.772708e-02  0 
 -9.810478e-04  -2.771432e-02  0 
 1.019301e-03  -2.771660e-02  0 
 3.045088e-03  -2.772869e-02  0 
 5.022660e-03  -2.774835e-02  0 
 -3.122128e-03  -3.289265e-02  0 
 -1.034613e-03  -3.288473e-02  0 
 1.073016e-03  -3.288304e-02  0 
 3.158433e-03  -3.289120e-02  0 
 5.312669e-03  -3.290087e-02  0 
VECTORS displacement_ITER2 FLOAT
 -4.966516e-03  -2.768923e-02  0 
 -5.263411e-03  -3.284343e-02  0 
 -3.005240e-03  -2.767607e-02  0 
 -9.796826e-04  -2.766246e-02  0 
 1.022310e-03  -2.766341e-02  0 
 3.046877e-03  -2.767671e-02  0 
 5.008480e-03  -2.768997e-02  0 
 -3.116852e-03  -3.283297e-02  0 
 -1.032343e-03  -3.282664e-02  0 
 1.074444e-03  -3.282625e-02  0 
 3.158857e-03  -3.283280e-02  0 
 5.306456e-03  -3.284258e-02  0 
VECTORS displacement_ITER3 FLOAT
 -4.967624e-03  -2.767997e-02  0 
 -5.267483e-03  -3.283672e-02  0 
 -3.006867e-03  -2.766791e-02  0 
 -9.812471e-04  -2.765438e-02  0 
 1.025332e-03  -2.765455e-02  0 
 3.050788e-03  -2.766798e-02  0 
 5.012189e-03  -2.768084e-02  0 
 -3.118271e-03  -3.282651e-02  0 
 -1.032795e-03  -3.282029e-02  0 
 1.076876e-03  -3.282018e-02  0 
 3.162286e-03  -3.282649e-02  0 
 5.311599e-03  -3.283663e-02  0 
VECTORS displacement_ITER4 FLOAT
 -4.967731e-03  -2.768284e-02  0 
 -5.266023e-03  -3.283793e-02  0 
 -3.005915e-03  -2.766972e-02  0 
 -9.808011e-04  -2.765631e-02  0 
 1.024869e-03  -2.765630e-02  0 
 3.049951e-03  -2.766971e-02  0 
 5.011784e-03  -2.768288e-02  0 
 -3.117618e-03  -3.282781e-02  0 
 -1.032138e-03  -3.282147e-02  0 
 1.076184e-03  -3.282146e-02  0 
 3.161686e-03  -3.282781e-02  0 
 5.310030e-03  -3.283795e-02  0 
VECTORS displacement_ITER5 FLOAT
 -4.967684e-03  -2.768300e-02  0 
 -5.266029e-03  -3.283799e-02  0 
 -3.005857e-03  -2.766988e-02  0 
 -9.808118e-04  -2.765649e-02  0 
 1.024859e-03  -2.765647e-02  0 
 3.049893e-03  -2.766987e-02  0 
 5.011690e-03  -2.768298e-02  0 
 -3.117557e-03  -3.282788e-02  0 
 -1.032111e-03  -3.282153e-02  0 
 1.076147e-03  -3.282152e-02  0 
 3.161598e-03  -3.282787e-02  0 
 5.310075e-03  -3.283798e-02  0 
VECTORS displacement_ITER6 FLOAT
 -4.967646e-03  -2.768293e-02  0 
 -5.266061e-03  -3.283793e-02  0 
 -3.005897e-03  -2.766986e-02  0 
 -9.809049e-04  -2.765646e-02  0 
 1.024884e-03  -2.765646e-02  0 
 3.049873e-03  -2.766986e-02  0 
 5.011640e-03  -2.768293e-02  0 
 -3.117592e-03  -3.282780e-02  0 
 -1.032141e-03  -3.282146e-02  0 
 1.076120e-03  -3.282146e-02  0 
 3.161572e-03  -3.282780e-02  0 
 5.310035e-03  -3.283793e-02  0 
VECTORS displacement_ITER7 FLOAT
 -4.967661e-03  -2.768292e-02  0 
 -5.266057e-03  -3.283792e-02  0 
 -3.005889e-03  -2.766984e-02  0 
 -9.809029e-04  -2.765644e-02  0 
 1.024902e-03  -2.765644e-02  0 
 3.049888e-03  -2.766984e-02  0 
 5.011664e-03  -2.768292e-02  0 
 -3.117589e-03  -3.282779e-02  0 
 -1.032123e-03  -3.282146e-02  0 
 1.076122e-03  -3.282146e-02  0 
 3.161588e-03  -3.282780e-02  0 
 5.310057e-03  -3.283792e-02  0 
VECTORS displacement_ITER8 FLOAT
 -4.967661e-03  -2.768293e-02  0 
 -5.266054e-03  -3.283793e-02  0 
 -3.005887e-03  -2.766985e-02  0 
 -9.808990e-04  -2.765645e-02  0 
 1.024899e-03  -2.765645e-02  0 
 3.049886e-03  -2.766985e-02  0 
 5.011661e-03  -2.768293e-02  0 
 -3.117587e-03  -3.282781e-02  0 
 -1.032119e-03  -3.282147e-02  0 
 1.076119e-03  -3.282147e-02  0 
 3.161587e-03  -3.282781e-02  0 
 5.310055e-03  -3.283793e-02  0 
VECTORS displacement_ITER9 FLOAT
 -4.967662e-03  -2.768293e-02  0 
 -5.266055e-03  -3.283793e-02  0 
 -3.005887e-03  -2.766985e-02  0 
 -9.808998e-04  -2.765645e-02  0 
 1.024898e-03  -2.765645e-02  0 
 3.049886e-03  -2.766985e-02  0 
 5.011662e-03  -2.768293e-02  0 
 -3.117588e-03  -3.282781e-02  0 
 -1.032119e-03  -3.282147e-02  0 
 1.076118e-03  -3.282147e-02  0 
 3.161586e-03  -3.282781e-02  0 
 5.310053e-03  -3.283793e-02  0 
VECTORS displacement_ITER10 FLOAT
 -4.967661e-03  -2.768293e-02  0 
 -5.266055e-03  -3.283793e-02  0 
 -3.005887e-03  -2.766985e-02  0 
 -9.808997e-04  -2.765645e-02  0 
 1.024898e-03  -2.765645e-02  0 
 3.049886e-03  -2.766985e-02  0 
 5.011662e-03  -2.768293e-02  0 
 -3.117588e-03  -3.282781e-02  0 
 -1.032119e-03  -3.282147e-02  0 
 1.076119e-03  -3.282147e-02  0 
 3.161586e-03  -3.282781e-02  0 
 5.310054e-03  -3.283793e-02  0 
VECTORS displacement_ITER11 FLOAT
 -4.967661e-03  -2.768293e-02  0 
 -5.266055e-03  -3.283793e-02  0 
 -3.005887e-03  -2.766985e-02  0 
 -9.808997e-04  -2.765645e-02  0 
 1.024898e-03  -2.765645e-02  0 
 3.049886e-03  -2.766985e-02  0 
 5.011662e-03  -2.768293e-02  0 
 -3.117588e-03  -3.282781e-02  0 
 -1.032119e-03  -3.282147e-02  0 
 1.076118e-03  -3.282147e-02  0 
 3.161586e-03  -3.282781e-02  0 
 5.310054e-03  -3.283793e-02  0 
VECTORS displacement_ITER12 FLOAT
 -4.967661e-03  -2.768293e-02  0 
 -5.266055e-03  -3.283793e-02  0 
 -3.005887e-03  -2.766985e-02  0 
 -9.808997e-04  -2.765645e-02  0 
 1.024898e-03  -2.765645e-02  0 
 3.049886e-03  -2.766985e-02  0 
 5.011662e-03  -2.768293e-02  0 
 -3.117588e-03  -3.282781e-02  0 
 -1.032119e-03  -3.282147e-02  0 
 1.076118e-03  -3.282147e-02  0 
 3.161586e-03  -3.282781e-02  0 
 5.310054e-03  -3.283793e-02  0 
CELL_DATA 5
TENSORS element_stresses FLOAT
 -4.315294e-02  -2.873157e-03  0 
 -2.873157e-03  -7.145132e-03  0 
 0  0  0 

 -1.627657e-01  -3.602373e-02  0 
 -3.602373e-02  5.151635e-04  0 
 0  0  0 

 4.061178e-09  -3.457077e-03  0 
 -3.457077e-03  -1.126436e-07  0 
 0  0  0 

 1.627659e-01  -3.602313e-02  0 
 -3.602313e-02  -5.153519e-04  0 
 0  0  0 

 4.315274e-02  -2.872900e-03  0 
 -2.872900e-03  7.145076e-03  0 
 0  0  0 

TENSORS element_stresses FLOAT
 -4.315294e-02  -2.873157e-03  0 
 -2.873157e-03  -7.145132e-03  0 
 0  0  0 

 -1.627657e-01  -3.602373e-02  0 
 -3.602373e-02  5.151635e-04  0 
 0  0  0 

 4.061178e-09  -3.457077e-03  0 
 -3.457077e-03  -1.126436e-07  0 
 0  0  0 

 1.627659e-01  -3.602313e-02  0 
 -3.602313e-02  -5.153519e-04  0 
 0  0  0 

 4.315274e-02  -2.872900e-03  0 
 -2.872900e-03  7.145076e-03  0 
 0  0  0 

