# vtk DataFile Version 3.1
this is an vtk file created by FEMAC
ASCII
DATASET UNSTRUCTURED_GRID
POINTS 12 FLOAT
3.500000 0.000000 0.000000
4.000000 0.000000 0.000000
3.500000 0.200000 0.000000
3.500000 0.400000 0.000000
3.500000 0.600000 0.000000
3.500000 0.800000 0.000000
3.500000 1.000000 0.000000
4.000000 0.200000 0.000000
4.000000 0.400000 0.000000
4.000000 0.600000 0.000000
4.000000 0.800000 0.000000
4.000000 1.000000 0.000000
CELLS 5 25 
4 0 1 7 2
4 2 7 8 3
4 3 8 9 4
4 4  9 10  5
4 5 10 11  6
CELL_TYPES 5
9 9 9 9 9 
POINT_DATA 12
VECTORS displacement_ITER1 FLOAT
 -4.385613e-03  -1.807920e-02  0 
 -4.894935e-03  -2.276534e-02  0 
 -2.686488e-03  -1.805625e-02  0 
 -8.681242e-04  -1.803281e-02  0 
 9.042643e-04  -1.803353e-02  0 
 2.718196e-03  -1.805302e-02  0 
 4.434202e-03  -1.809430e-02  0 
 -2.877466e-03  -2.274663e-02  0 
 -9.632193e-04  -2.273542e-02  0 
 9.993369e-04  -2.272359e-02  0 
 2.910658e-03  -2.273851e-02  0 
 4.935577e-03  -2.276322e-02  0 
VECTORS displacement_ITER2 FLOAT
 -4.372744e-03  -1.803825e-02  0 
 -4.881332e-03  -2.271230e-02  0 
 -2.674791e-03  -1.801695e-02  0 
 -8.643026e-04  -1.799476e-02  0 
 9.061101e-04  -1.799640e-02  0 
 2.715239e-03  -1.801726e-02  0 
 4.416638e-03  -1.804312e-02  0 
 -2.865177e-03  -2.269276e-02  0 
 -9.549954e-04  -2.268123e-02  0 
 9.966079e-04  -2.267887e-02  0 
 2.905960e-03  -2.269159e-02  0 
 4.924963e-03  -2.271055e-02  0 
VECTORS displacement_ITER3 FLOAT
 -4.372896e-03  -1.802660e-02  0 
 -4.885013e-03  -2.270017e-02  0 
 -2.674301e-03  -1.800580e-02  0 
 -8.642759e-04  -1.798430e-02  0 
 9.085865e-04  -1.798540e-02  0 
 2.718306e-03  -1.800657e-02  0 
 4.418191e-03  -1.802809e-02  0 
 -2.864043e-03  -2.268204e-02  0 
 -9.537228e-04  -2.267015e-02  0 
 9.980426e-04  -2.267040e-02  0 
 2.908228e-03  -2.268261e-02  0 
 4.929145e-03  -2.270001e-02  0 
VECTORS displacement_ITER4 FLOAT
 -4.373352e-03  -1.803051e-02  0 
 -4.884289e-03  -2.270257e-02  0 
 -2.674106e-03  -1.800895e-02  0 
 -8.646189e-04  -1.798763e-02  0 
 9.086540e-04  -1.798768e-02  0 
 2.718128e-03  -1.800898e-02  0 
 4.417455e-03  -1.803054e-02  0 
 -2.864081e-03  -2.268484e-02  0 
 -9.536357e-04  -2.267279e-02  0 
 9.976653e-04  -2.267279e-02  0 
 2.908109e-03  -2.268486e-02  0 
 4.928379e-03  -2.270248e-02  0 
VECTORS displacement_ITER5 FLOAT
 -4.373703e-03  -1.803083e-02  0 
 -4.884165e-03  -2.270278e-02  0 
 -2.674064e-03  -1.800909e-02  0 
 -8.647314e-04  -1.798780e-02  0 
 9.087499e-04  -1.798777e-02  0 
 2.718086e-03  -1.800907e-02  0 
 4.417640e-03  -1.803073e-02  0 
 -2.864136e-03  -2.268497e-02  0 
 -9.535814e-04  -2.267289e-02  0 
 9.975848e-04  -2.267289e-02  0 
 2.908152e-03  -2.268495e-02  0 
 4.928228e-03  -2.270274e-02  0 
VECTORS displacement_ITER6 FLOAT
 -4.373602e-03  -1.803074e-02  0 
 -4.884197e-03  -2.270274e-02  0 
 -2.674062e-03  -1.800908e-02  0 
 -8.647421e-04  -1.798779e-02  0 
 9.087319e-04  -1.798777e-02  0 
 2.718052e-03  -1.800907e-02  0 
 4.417572e-03  -1.803073e-02  0 
 -2.864118e-03  -2.268495e-02  0 
 -9.535458e-04  -2.267288e-02  0 
 9.975317e-04  -2.267288e-02  0 
 2.908112e-03  -2.268494e-02  0 
 4.928169e-03  -2.270275e-02  0 
VECTORS displacement_ITER7 FLOAT
 -4.373614e-03  -1.803072e-02  0 
 -4.884200e-03  -2.270273e-02  0 
 -2.674064e-03  -1.800906e-02  0 
 -8.647521e-04  -1.798777e-02  0 
 9.087570e-04  -1.798776e-02  0 
 2.718066e-03  -1.800906e-02  0 
 4.417592e-03  -1.803071e-02  0 
 -2.864121e-03  -2.268493e-02  0 
 -9.535402e-04  -2.267287e-02  0 
 9.975407e-04  -2.267287e-02  0 
 2.908124e-03  -2.268493e-02  0 
 4.928199e-03  -2.270273e-02  0 
VECTORS displacement_ITER8 FLOAT
 -4.373613e-03  -1.803072e-02  0 
 -4.884195e-03  -2.270273e-02  0 
 -2.674065e-03  -1.800906e-02  0 
 -8.647515e-04  -1.798777e-02  0 
 9.087545e-04  -1.798776e-02  0 
 2.718064e-03  -1.800906e-02  0 
 4.417593e-03  -1.803072e-02  0 
 -2.864123e-03  -2.268494e-02  0 
 -9.535383e-04  -2.267287e-02  0 
 9.975369e-04  -2.267287e-02  0 
 2.908123e-03  -2.268493e-02  0 
 4.928197e-03  -2.270273e-02  0 
VECTORS displacement_ITER9 FLOAT
 -4.373613e-03  -1.803072e-02  0 
 -4.884197e-03  -2.270273e-02  0 
 -2.674066e-03  -1.800906e-02  0 
 -8.647520e-04  -1.798777e-02  0 
 9.087543e-04  -1.798776e-02  0 
 2.718063e-03  -1.800906e-02  0 
 4.417593e-03  -1.803072e-02  0 
 -2.864123e-03  -2.268494e-02  0 
 -9.535392e-04  -2.267287e-02  0 
 9.975371e-04  -2.267287e-02  0 
 2.908123e-03  -2.268493e-02  0 
 4.928197e-03  -2.270273e-02  0 
VECTORS displacement_ITER10 FLOAT
 -4.373613e-03  -1.803072e-02  0 
 -4.884196e-03  -2.270273e-02  0 
 -2.674065e-03  -1.800906e-02  0 
 -8.647518e-04  -1.798777e-02  0 
 9.087543e-04  -1.798776e-02  0 
 2.718064e-03  -1.800906e-02  0 
 4.417593e-03  -1.803072e-02  0 
 -2.864123e-03  -2.268494e-02  0 
 -9.535391e-04  -2.267287e-02  0 
 9.975372e-04  -2.267287e-02  0 
 2.908123e-03  -2.268493e-02  0 
 4.928197e-03  -2.270273e-02  0 
VECTORS displacement_ITER11 FLOAT
 -4.373613e-03  -1.803072e-02  0 
 -4.884196e-03  -2.270273e-02  0 
 -2.674065e-03  -1.800906e-02  0 
 -8.647518e-04  -1.798777e-02  0 
 9.087542e-04  -1.798776e-02  0 
 2.718063e-03  -1.800906e-02  0 
 4.417593e-03  -1.803072e-02  0 
 -2.864123e-03  -2.268494e-02  0 
 -9.535391e-04  -2.267287e-02  0 
 9.975372e-04  -2.267287e-02  0 
 2.908123e-03  -2.268493e-02  0 
 4.928197e-03  -2.270273e-02  0 
VECTORS displacement_ITER12 FLOAT
 -4.373613e-03  -1.803072e-02  0 
 -4.884196e-03  -2.270273e-02  0 
 -2.674065e-03  -1.800906e-02  0 
 -8.647518e-04  -1.798777e-02  0 
 9.087542e-04  -1.798776e-02  0 
 2.718063e-03  -1.800906e-02  0 
 4.417593e-03  -1.803072e-02  0 
 -2.864123e-03  -2.268494e-02  0 
 -9.535391e-04  -2.267287e-02  0 
 9.975372e-04  -2.267287e-02  0 
 2.908123e-03  -2.268493e-02  0 
 4.928197e-03  -2.270273e-02  0 
CELL_DATA 5
TENSORS element_stresses FLOAT
 -7.374175e-02  -3.756506e-03  0 
 -3.756506e-03  -1.225871e-02  0 
 0  0  0 

 -2.789297e-01  -4.710351e-02  0 
 -4.710351e-02  -2.816269e-04  0 
 0  0  0 

 -7.225005e-08  -4.520005e-03  0 
 -4.520005e-03  1.208305e-06  0 
 0  0  0 

 2.789273e-01  -4.711045e-02  0 
 -4.711045e-02  2.826578e-04  0 
 0  0  0 

 7.374416e-02  -3.759529e-03  0 
 -3.759529e-03  1.225921e-02  0 
 0  0  0 

TENSORS element_stresses FLOAT
 -7.374175e-02  -3.756506e-03  0 
 -3.756506e-03  -1.225871e-02  0 
 0  0  0 

 -2.789297e-01  -4.710351e-02  0 
 -4.710351e-02  -2.816269e-04  0 
 0  0  0 

 -7.225005e-08  -4.520005e-03  0 
 -4.520005e-03  1.208305e-06  0 
 0  0  0 

 2.789273e-01  -4.711045e-02  0 
 -4.711045e-02  2.826578e-04  0 
 0  0  0 

 7.374416e-02  -3.759529e-03  0 
 -3.759529e-03  1.225921e-02  0 
 0  0  0 

