# vtk DataFile Version 3.1
this is an vtk file created by FEMAC
ASCII
DATASET UNSTRUCTURED_GRID
POINTS 12 FLOAT
3.000000 0.000000 0.000000
3.500000 0.000000 0.000000
3.000000 0.200000 0.000000
3.000000 0.400000 0.000000
3.000000 0.600000 0.000000
3.000000 0.800000 0.000000
3.000000 1.000000 0.000000
3.500000 0.200000 0.000000
3.500000 0.400000 0.000000
3.500000 0.600000 0.000000
3.500000 0.800000 0.000000
3.500000 1.000000 0.000000
CELLS 5 25 
4 0 1 7 2
4 2 7 8 3
4 3 8 9 4
4 4  9 10  5
4 5 10 11  6
CELL_TYPES 5
9 9 9 9 9 
POINT_DATA 12
VECTORS displacement_ITER1 FLOAT
 -4.257116e-03  -1.369307e-02  0 
 -4.390386e-03  -1.808201e-02  0 
 -2.456527e-03  -1.366789e-02  0 
 -8.258960e-04  -1.364861e-02  0 
 8.646567e-04  -1.365098e-02  0 
 2.496986e-03  -1.366836e-02  0 
 4.294745e-03  -1.369841e-02  0 
 -2.683023e-03  -1.805896e-02  0 
 -8.712818e-04  -1.803818e-02  0 
 9.110408e-04  -1.803654e-02  0 
 2.724123e-03  -1.805810e-02  0 
 4.425965e-03  -1.807533e-02  0 
VECTORS displacement_ITER2 FLOAT
 -4.240388e-03  -1.366965e-02  0 
 -4.373621e-03  -1.804014e-02  0 
 -2.446884e-03  -1.364303e-02  0 
 -8.217923e-04  -1.362302e-02  0 
 8.635991e-04  -1.362419e-02  0 
 2.489867e-03  -1.364360e-02  0 
 4.281447e-03  -1.367219e-02  0 
 -2.673682e-03  -1.801792e-02  0 
 -8.663863e-04  -1.799712e-02  0 
 9.086252e-04  -1.799620e-02  0 
 2.716409e-03  -1.801745e-02  0 
 4.414804e-03  -1.803790e-02  0 
VECTORS displacement_ITER3 FLOAT
 -4.239838e-03  -1.365792e-02  0 
 -4.373499e-03  -1.802796e-02  0 
 -2.446742e-03  -1.363060e-02  0 
 -8.209514e-04  -1.361101e-02  0 
 8.656420e-04  -1.361132e-02  0 
 2.491409e-03  -1.363087e-02  0 
 4.284037e-03  -1.365862e-02  0 
 -2.673581e-03  -1.800609e-02  0 
 -8.647460e-04  -1.798484e-02  0 
 9.093537e-04  -1.798448e-02  0 
 2.718319e-03  -1.800592e-02  0 
 4.417765e-03  -1.802746e-02  0 
VECTORS displacement_ITER4 FLOAT
 -4.239750e-03  -1.366077e-02  0 
 -4.373499e-03  -1.803062e-02  0 
 -2.446455e-03  -1.363315e-02  0 
 -8.218082e-04  -1.361355e-02  0 
 8.658232e-04  -1.361357e-02  0 
 2.490551e-03  -1.363323e-02  0 
 4.283805e-03  -1.366083e-02  0 
 -2.673831e-03  -1.800893e-02  0 
 -8.648148e-04  -1.798764e-02  0 
 9.088778e-04  -1.798762e-02  0 
 2.717902e-03  -1.800889e-02  0 
 4.417525e-03  -1.803058e-02  0 
VECTORS displacement_ITER5 FLOAT
 -4.239921e-03  -1.366116e-02  0 
 -4.373650e-03  -1.803072e-02  0 
 -2.446730e-03  -1.363350e-02  0 
 -8.217878e-04  -1.361390e-02  0 
 8.658016e-04  -1.361390e-02  0 
 2.490699e-03  -1.363353e-02  0 
 4.283905e-03  -1.366117e-02  0 
 -2.674113e-03  -1.800910e-02  0 
 -8.647725e-04  -1.798780e-02  0 
 9.087712e-04  -1.798780e-02  0 
 2.718100e-03  -1.800910e-02  0 
 4.417642e-03  -1.803076e-02  0 
VECTORS displacement_ITER6 FLOAT
 -4.239870e-03  -1.366112e-02  0 
 -4.373603e-03  -1.803073e-02  0 
 -2.446654e-03  -1.363348e-02  0 
 -8.218048e-04  -1.361388e-02  0 
 8.658036e-04  -1.361389e-02  0 
 2.490628e-03  -1.363351e-02  0 
 4.283839e-03  -1.366115e-02  0 
 -2.674053e-03  -1.800907e-02  0 
 -8.647651e-04  -1.798778e-02  0 
 9.087561e-04  -1.798778e-02  0 
 2.718039e-03  -1.800907e-02  0 
 4.417575e-03  -1.803073e-02  0 
VECTORS displacement_ITER7 FLOAT
 -4.239878e-03  -1.366111e-02  0 
 -4.373611e-03  -1.803072e-02  0 
 -2.446664e-03  -1.363347e-02  0 
 -8.217991e-04  -1.361387e-02  0 
 8.658116e-04  -1.361388e-02  0 
 2.490651e-03  -1.363351e-02  0 
 4.283853e-03  -1.366115e-02  0 
 -2.674066e-03  -1.800906e-02  0 
 -8.647507e-04  -1.798776e-02  0 
 9.087542e-04  -1.798776e-02  0 
 2.718065e-03  -1.800906e-02  0 
 4.417594e-03  -1.803072e-02  0 
VECTORS displacement_ITER8 FLOAT
 -4.239878e-03  -1.366111e-02  0 
 -4.373612e-03  -1.803072e-02  0 
 -2.446663e-03  -1.363347e-02  0 
 -8.218012e-04  -1.361387e-02  0 
 8.658124e-04  -1.361388e-02  0 
 2.490650e-03  -1.363351e-02  0 
 4.283853e-03  -1.366115e-02  0 
 -2.674065e-03  -1.800906e-02  0 
 -8.647516e-04  -1.798777e-02  0 
 9.087545e-04  -1.798776e-02  0 
 2.718064e-03  -1.800906e-02  0 
 4.417593e-03  -1.803072e-02  0 
VECTORS displacement_ITER9 FLOAT
 -4.239879e-03  -1.366111e-02  0 
 -4.373613e-03  -1.803072e-02  0 
 -2.446663e-03  -1.363347e-02  0 
 -8.218017e-04  -1.361387e-02  0 
 8.658123e-04  -1.361388e-02  0 
 2.490649e-03  -1.363351e-02  0 
 4.283853e-03  -1.366115e-02  0 
 -2.674065e-03  -1.800906e-02  0 
 -8.647518e-04  -1.798777e-02  0 
 9.087542e-04  -1.798776e-02  0 
 2.718064e-03  -1.800906e-02  0 
 4.417593e-03  -1.803072e-02  0 
VECTORS displacement_ITER10 FLOAT
 -4.239878e-03  -1.366111e-02  0 
 -4.373613e-03  -1.803072e-02  0 
 -2.446663e-03  -1.363347e-02  0 
 -8.218016e-04  -1.361387e-02  0 
 8.658123e-04  -1.361388e-02  0 
 2.490649e-03  -1.363351e-02  0 
 4.283853e-03  -1.366115e-02  0 
 -2.674065e-03  -1.800906e-02  0 
 -8.647518e-04  -1.798777e-02  0 
 9.087543e-04  -1.798776e-02  0 
 2.718064e-03  -1.800906e-02  0 
 4.417593e-03  -1.803072e-02  0 
VECTORS displacement_ITER11 FLOAT
 -4.239878e-03  -1.366111e-02  0 
 -4.373613e-03  -1.803072e-02  0 
 -2.446663e-03  -1.363347e-02  0 
 -8.218017e-04  -1.361387e-02  0 
 8.658123e-04  -1.361388e-02  0 
 2.490649e-03  -1.363351e-02  0 
 4.283853e-03  -1.366115e-02  0 
 -2.674065e-03  -1.800906e-02  0 
 -8.647518e-04  -1.798777e-02  0 
 9.087542e-04  -1.798776e-02  0 
 2.718063e-03  -1.800906e-02  0 
 4.417593e-03  -1.803072e-02  0 
VECTORS displacement_ITER12 FLOAT
 -4.239878e-03  -1.366111e-02  0 
 -4.373613e-03  -1.803072e-02  0 
 -2.446663e-03  -1.363347e-02  0 
 -8.218016e-04  -1.361387e-02  0 
 8.658123e-04  -1.361388e-02  0 
 2.490649e-03  -1.363351e-02  0 
 4.283853e-03  -1.366115e-02  0 
 -2.674065e-03  -1.800906e-02  0 
 -8.647518e-04  -1.798777e-02  0 
 9.087543e-04  -1.798776e-02  0 
 2.718063e-03  -1.800906e-02  0 
 4.417593e-03  -1.803072e-02  0 
CELL_DATA 5
TENSORS element_stresses FLOAT
 -3.562269e-01  -1.022655e-02  0 
 -1.022655e-02  1.636625e-02  0 
 0  0  0 

 -2.633827e-02  -1.261926e-02  0 
 -1.261926e-02  2.323347e-03  0 
 0  0  0 

 -1.461432e-05  -7.306034e-02  0 
 -7.306034e-02  -2.124942e-05  0 
 0  0  0 

 2.633640e-02  -1.262059e-02  0 
 -1.262059e-02  -2.330735e-03  0 
 0  0  0 

 3.562434e-01  -1.022326e-02  0 
 -1.022326e-02  -1.637052e-02  0 
 0  0  0 

TENSORS element_stresses FLOAT
 -3.562269e-01  -1.022655e-02  0 
 -1.022655e-02  1.636625e-02  0 
 0  0  0 

 -2.633827e-02  -1.261926e-02  0 
 -1.261926e-02  2.323347e-03  0 
 0  0  0 

 -1.461432e-05  -7.306034e-02  0 
 -7.306034e-02  -2.124942e-05  0 
 0  0  0 

 2.633640e-02  -1.262059e-02  0 
 -1.262059e-02  -2.330735e-03  0 
 0  0  0 

 3.562434e-01  -1.022326e-02  0 
 -1.022326e-02  -1.637052e-02  0 
 0  0  0 

