# vtk DataFile Version 3.1
this is an vtk file created by FEMAC
ASCII
DATASET UNSTRUCTURED_GRID
POINTS 12 FLOAT
2.500000 0.000000 0.000000
3.000000 0.000000 0.000000
2.500000 0.200000 0.000000
2.500000 0.400000 0.000000
2.500000 0.600000 0.000000
2.500000 0.800000 0.000000
2.500000 1.000000 0.000000
3.000000 0.200000 0.000000
3.000000 0.400000 0.000000
3.000000 0.600000 0.000000
3.000000 0.800000 0.000000
3.000000 1.000000 0.000000
CELLS 5 25 
4 0 1 7 2
4 2 7 8 3
4 3 8 9 4
4 4  9 10  5
4 5 10 11  6
CELL_TYPES 5
9 9 9 9 9 
POINT_DATA 12
VECTORS displacement_ITER1 FLOAT
 -3.494508e-03  -9.792369e-03  0 
 -4.252973e-03  -1.370540e-02  0 
 -2.167536e-03  -9.743209e-03  0 
 -6.864598e-04  -9.712768e-03  0 
 7.247810e-04  -9.712487e-03  0 
 2.205142e-03  -9.741670e-03  0 
 3.535270e-03  -9.781865e-03  0 
 -2.461586e-03  -1.367118e-02  0 
 -8.271297e-04  -1.365076e-02  0 
 8.661198e-04  -1.364357e-02  0 
 2.497278e-03  -1.366630e-02  0 
 4.295138e-03  -1.369011e-02  0 
VECTORS displacement_ITER2 FLOAT
 -3.460759e-03  -9.776098e-03  0 
 -4.237999e-03  -1.367467e-02  0 
 -2.158352e-03  -9.740395e-03  0 
 -6.848326e-04  -9.708928e-03  0 
 7.252864e-04  -9.708902e-03  0 
 2.199410e-03  -9.739524e-03  0 
 3.501868e-03  -9.771236e-03  0 
 -2.448409e-03  -1.364430e-02  0 
 -8.241160e-04  -1.362499e-02  0 
 8.652211e-04  -1.362207e-02  0 
 2.487751e-03  -1.364250e-02  0 
 4.283401e-03  -1.366713e-02  0 
VECTORS displacement_ITER3 FLOAT
 -3.460452e-03  -9.761510e-03  0 
 -4.239271e-03  -1.365960e-02  0 
 -2.157165e-03  -9.728911e-03  0 
 -6.857022e-04  -9.697790e-03  0 
 7.298998e-04  -9.697723e-03  0 
 2.201365e-03  -9.728654e-03  0 
 3.504646e-03  -9.760788e-03  0 
 -2.446601e-03  -1.363072e-02  0 
 -8.225197e-04  -1.361123e-02  0 
 8.667210e-04  -1.361059e-02  0 
 2.490559e-03  -1.363034e-02  0 
 4.284669e-03  -1.365786e-02  0 
VECTORS displacement_ITER4 FLOAT
 -3.460311e-03  -9.762286e-03  0 
 -4.239724e-03  -1.366077e-02  0 
 -2.157234e-03  -9.730056e-03  0 
 -6.852820e-04  -9.699036e-03  0 
 7.292832e-04  -9.699020e-03  0 
 2.201346e-03  -9.730008e-03  0 
 3.504671e-03  -9.762430e-03  0 
 -2.446580e-03  -1.363318e-02  0 
 -8.217029e-04  -1.361358e-02  0 
 8.658058e-04  -1.361356e-02  0 
 2.490637e-03  -1.363319e-02  0 
 4.283729e-03  -1.366083e-02  0 
VECTORS displacement_ITER5 FLOAT
 -3.460565e-03  -9.762818e-03  0 
 -4.239973e-03  -1.366107e-02  0 
 -2.157319e-03  -9.730395e-03  0 
 -6.854032e-04  -9.699396e-03  0 
 7.293687e-04  -9.699432e-03  0 
 2.201355e-03  -9.730411e-03  0 
 3.504753e-03  -9.762826e-03  0 
 -2.446649e-03  -1.363351e-02  0 
 -8.218168e-04  -1.361389e-02  0 
 8.658339e-04  -1.361393e-02  0 
 2.490662e-03  -1.363356e-02  0 
 4.283911e-03  -1.366119e-02  0 
VECTORS displacement_ITER6 FLOAT
 -3.460588e-03  -9.762827e-03  0 
 -4.239870e-03  -1.366111e-02  0 
 -2.157307e-03  -9.730382e-03  0 
 -6.854231e-04  -9.699376e-03  0 
 7.293763e-04  -9.699427e-03  0 
 2.201328e-03  -9.730410e-03  0 
 3.504756e-03  -9.762803e-03  0 
 -2.446664e-03  -1.363347e-02  0 
 -8.218048e-04  -1.361387e-02  0 
 8.658131e-04  -1.361389e-02  0 
 2.490651e-03  -1.363352e-02  0 
 4.283817e-03  -1.366117e-02  0 
VECTORS displacement_ITER7 FLOAT
 -3.460571e-03  -9.762812e-03  0 
 -4.239877e-03  -1.366111e-02  0 
 -2.157311e-03  -9.730380e-03  0 
 -6.854237e-04  -9.699372e-03  0 
 7.293795e-04  -9.699420e-03  0 
 2.201334e-03  -9.730400e-03  0 
 3.504747e-03  -9.762786e-03  0 
 -2.446663e-03  -1.363347e-02  0 
 -8.218047e-04  -1.361387e-02  0 
 8.658149e-04  -1.361388e-02  0 
 2.490649e-03  -1.363351e-02  0 
 4.283854e-03  -1.366115e-02  0 
VECTORS displacement_ITER8 FLOAT
 -3.460572e-03  -9.762810e-03  0 
 -4.239878e-03  -1.366111e-02  0 
 -2.157310e-03  -9.730378e-03  0 
 -6.854236e-04  -9.699371e-03  0 
 7.293794e-04  -9.699418e-03  0 
 2.201333e-03  -9.730398e-03  0 
 3.504751e-03  -9.762788e-03  0 
 -2.446663e-03  -1.363347e-02  0 
 -8.218021e-04  -1.361387e-02  0 
 8.658128e-04  -1.361388e-02  0 
 2.490649e-03  -1.363351e-02  0 
 4.283853e-03  -1.366115e-02  0 
VECTORS displacement_ITER9 FLOAT
 -3.460572e-03  -9.762811e-03  0 
 -4.239879e-03  -1.366111e-02  0 
 -2.157310e-03  -9.730379e-03  0 
 -6.854234e-04  -9.699371e-03  0 
 7.293791e-04  -9.699418e-03  0 
 2.201333e-03  -9.730398e-03  0 
 3.504751e-03  -9.762788e-03  0 
 -2.446663e-03  -1.363347e-02  0 
 -8.218016e-04  -1.361387e-02  0 
 8.658123e-04  -1.361388e-02  0 
 2.490649e-03  -1.363351e-02  0 
 4.283853e-03  -1.366115e-02  0 
VECTORS displacement_ITER10 FLOAT
 -3.460573e-03  -9.762811e-03  0 
 -4.239878e-03  -1.366111e-02  0 
 -2.157310e-03  -9.730378e-03  0 
 -6.854235e-04  -9.699371e-03  0 
 7.293792e-04  -9.699418e-03  0 
 2.201333e-03  -9.730398e-03  0 
 3.504751e-03  -9.762788e-03  0 
 -2.446663e-03  -1.363347e-02  0 
 -8.218016e-04  -1.361387e-02  0 
 8.658123e-04  -1.361388e-02  0 
 2.490649e-03  -1.363351e-02  0 
 4.283853e-03  -1.366115e-02  0 
VECTORS displacement_ITER11 FLOAT
 -3.460572e-03  -9.762811e-03  0 
 -4.239878e-03  -1.366111e-02  0 
 -2.157310e-03  -9.730379e-03  0 
 -6.854235e-04  -9.699371e-03  0 
 7.293792e-04  -9.699418e-03  0 
 2.201333e-03  -9.730398e-03  0 
 3.504751e-03  -9.762788e-03  0 
 -2.446663e-03  -1.363347e-02  0 
 -8.218017e-04  -1.361387e-02  0 
 8.658123e-04  -1.361388e-02  0 
 2.490649e-03  -1.363351e-02  0 
 4.283853e-03  -1.366115e-02  0 
VECTORS displacement_ITER12 FLOAT
 -3.460572e-03  -9.762811e-03  0 
 -4.239878e-03  -1.366111e-02  0 
 -2.157310e-03  -9.730379e-03  0 
 -6.854235e-04  -9.699371e-03  0 
 7.293792e-04  -9.699418e-03  0 
 2.201333e-03  -9.730398e-03  0 
 3.504751e-03  -9.762788e-03  0 
 -2.446663e-03  -1.363347e-02  0 
 -8.218016e-04  -1.361387e-02  0 
 8.658123e-04  -1.361388e-02  0 
 2.490649e-03  -1.363351e-02  0 
 4.283853e-03  -1.366115e-02  0 
CELL_DATA 5
TENSORS element_stresses FLOAT
 -1.124843e-01  -4.630630e-03  0 
 -4.630630e-03  -1.872804e-02  0 
 0  0  0 

 -4.261244e-01  -5.824894e-02  0 
 -5.824894e-02  -1.312648e-03  0 
 0  0  0 

 1.285532e-06  -5.609220e-03  0 
 -5.609220e-03  -1.403134e-05  0 
 0  0  0 

 4.261462e-01  -5.815200e-02  0 
 -5.815200e-02  1.323249e-03  0 
 0  0  0 

 1.124611e-01  -4.609216e-03  0 
 -4.609216e-03  1.873101e-02  0 
 0  0  0 

TENSORS element_stresses FLOAT
 -1.124843e-01  -4.630630e-03  0 
 -4.630630e-03  -1.872804e-02  0 
 0  0  0 

 -4.261244e-01  -5.824894e-02  0 
 -5.824894e-02  -1.312648e-03  0 
 0  0  0 

 1.285532e-06  -5.609220e-03  0 
 -5.609220e-03  -1.403134e-05  0 
 0  0  0 

 4.261462e-01  -5.815200e-02  0 
 -5.815200e-02  1.323249e-03  0 
 0  0  0 

 1.124611e-01  -4.609216e-03  0 
 -4.609216e-03  1.873101e-02  0 
 0  0  0 

