# vtk DataFile Version 3.1
this is an vtk file created by FEMAC
ASCII
DATASET UNSTRUCTURED_GRID
POINTS 12 FLOAT
1.500000 0.000000 0.000000
2.000000 0.000000 0.000000
1.500000 0.200000 0.000000
1.500000 0.400000 0.000000
1.500000 0.600000 0.000000
1.500000 0.800000 0.000000
1.500000 1.000000 0.000000
2.000000 0.200000 0.000000
2.000000 0.400000 0.000000
2.000000 0.600000 0.000000
2.000000 0.800000 0.000000
2.000000 1.000000 0.000000
CELLS 5 25 
4 0 1 7 2
4 2 7 8 3
4 3 8 9 4
4 4  9 10  5
4 5 10 11  6
CELL_TYPES 5
9 9 9 9 9 
POINT_DATA 12
VECTORS displacement_ITER1 FLOAT
 -2.169528e-03  -3.571418e-03  0 
 -3.298480e-03  -6.322545e-03  0 
 -1.429545e-03  -3.523992e-03  0 
 -4.486770e-04  -3.484118e-03  0 
 4.888843e-04  -3.460355e-03  0 
 1.472623e-03  -3.503970e-03  0 
 2.208671e-03  -3.561920e-03  0 
 -1.836238e-03  -6.296847e-03  0 
 -6.345646e-04  -6.266307e-03  0 
 6.744637e-04  -6.254966e-03  0 
 1.880540e-03  -6.282415e-03  0 
 3.331537e-03  -6.331525e-03  0 
VECTORS displacement_ITER2 FLOAT
 -2.158039e-03  -3.572212e-03  0 
 -3.265384e-03  -6.331338e-03  0 
 -1.415880e-03  -3.524288e-03  0 
 -4.316167e-04  -3.482258e-03  0 
 4.733021e-04  -3.475324e-03  0 
 1.458466e-03  -3.519183e-03  0 
 2.197974e-03  -3.566402e-03  0 
 -1.825379e-03  -6.295446e-03  0 
 -6.223975e-04  -6.266104e-03  0 
 6.639165e-04  -6.264656e-03  0 
 1.868170e-03  -6.292355e-03  0 
 3.303976e-03  -6.334239e-03  0 
VECTORS displacement_ITER3 FLOAT
 -2.156342e-03  -3.567130e-03  0 
 -3.264945e-03  -6.327507e-03  0 
 -1.414555e-03  -3.520043e-03  0 
 -4.305729e-04  -3.477376e-03  0 
 4.753464e-04  -3.476327e-03  0 
 1.458767e-03  -3.519585e-03  0 
 2.199815e-03  -3.564548e-03  0 
 -1.823360e-03  -6.287778e-03  0 
 -6.235098e-04  -6.258864e-03  0 
 6.674797e-04  -6.259696e-03  0 
 1.868154e-03  -6.288003e-03  0 
 3.308855e-03  -6.327574e-03  0 
VECTORS displacement_ITER4 FLOAT
 -2.155951e-03  -3.566081e-03  0 
 -3.264492e-03  -6.328001e-03  0 
 -1.414986e-03  -3.519669e-03  0 
 -4.305614e-04  -3.476742e-03  0 
 4.751744e-04  -3.476377e-03  0 
 1.458655e-03  -3.519408e-03  0 
 2.201191e-03  -3.565724e-03  0 
 -1.823845e-03  -6.288164e-03  0 
 -6.235108e-04  -6.259493e-03  0 
 6.674061e-04  -6.259723e-03  0 
 1.868265e-03  -6.288259e-03  0 
 3.308735e-03  -6.327798e-03  0 
VECTORS displacement_ITER5 FLOAT
 -2.155848e-03  -3.566189e-03  0 
 -3.264672e-03  -6.328356e-03  0 
 -1.415158e-03  -3.520025e-03  0 
 -4.305525e-04  -3.477074e-03  0 
 4.750227e-04  -3.476497e-03  0 
 1.458651e-03  -3.519500e-03  0 
 2.201148e-03  -3.566016e-03  0 
 -1.823955e-03  -6.288753e-03  0 
 -6.235700e-04  -6.260102e-03  0 
 6.673151e-04  -6.260008e-03  0 
 1.868220e-03  -6.288568e-03  0 
 3.308915e-03  -6.328153e-03  0 
VECTORS displacement_ITER6 FLOAT
 -2.155862e-03  -3.566212e-03  0 
 -3.264680e-03  -6.328360e-03  0 
 -1.415167e-03  -3.520040e-03  0 
 -4.305658e-04  -3.477093e-03  0 
 4.750191e-04  -3.476466e-03  0 
 1.458649e-03  -3.519473e-03  0 
 2.201135e-03  -3.566009e-03  0 
 -1.823967e-03  -6.288770e-03  0 
 -6.235782e-04  -6.260117e-03  0 
 6.673068e-04  -6.259992e-03  0 
 1.868220e-03  -6.288549e-03  0 
 3.308904e-03  -6.328173e-03  0 
VECTORS displacement_ITER7 FLOAT
 -2.155874e-03  -3.566213e-03  0 
 -3.264673e-03  -6.328348e-03  0 
 -1.415157e-03  -3.520020e-03  0 
 -4.305673e-04  -3.477075e-03  0 
 4.750290e-04  -3.476458e-03  0 
 1.458652e-03  -3.519468e-03  0 
 2.201135e-03  -3.565988e-03  0 
 -1.823962e-03  -6.288743e-03  0 
 -6.235685e-04  -6.260088e-03  0 
 6.673065e-04  -6.259987e-03  0 
 1.868226e-03  -6.288540e-03  0 
 3.308891e-03  -6.328164e-03  0 
VECTORS displacement_ITER8 FLOAT
 -2.155874e-03  -3.566215e-03  0 
 -3.264676e-03  -6.328347e-03  0 
 -1.415156e-03  -3.520022e-03  0 
 -4.305674e-04  -3.477078e-03  0 
 4.750306e-04  -3.476460e-03  0 
 1.458654e-03  -3.519471e-03  0 
 2.201131e-03  -3.565985e-03  0 
 -1.823960e-03  -6.288743e-03  0 
 -6.235680e-04  -6.260088e-03  0 
 6.673071e-04  -6.259989e-03  0 
 1.868226e-03  -6.288542e-03  0 
 3.308893e-03  -6.328162e-03  0 
VECTORS displacement_ITER9 FLOAT
 -2.155873e-03  -3.566215e-03  0 
 -3.264676e-03  -6.328347e-03  0 
 -1.415156e-03  -3.520022e-03  0 
 -4.305676e-04  -3.477079e-03  0 
 4.750305e-04  -3.476461e-03  0 
 1.458654e-03  -3.519471e-03  0 
 2.201131e-03  -3.565985e-03  0 
 -1.823960e-03  -6.288744e-03  0 
 -6.235679e-04  -6.260089e-03  0 
 6.673066e-04  -6.259990e-03  0 
 1.868226e-03  -6.288542e-03  0 
 3.308893e-03  -6.328162e-03  0 
VECTORS displacement_ITER10 FLOAT
 -2.155873e-03  -3.566215e-03  0 
 -3.264676e-03  -6.328347e-03  0 
 -1.415156e-03  -3.520022e-03  0 
 -4.305678e-04  -3.477078e-03  0 
 4.750307e-04  -3.476461e-03  0 
 1.458654e-03  -3.519471e-03  0 
 2.201131e-03  -3.565985e-03  0 
 -1.823960e-03  -6.288744e-03  0 
 -6.235679e-04  -6.260089e-03  0 
 6.673065e-04  -6.259990e-03  0 
 1.868226e-03  -6.288542e-03  0 
 3.308893e-03  -6.328162e-03  0 
VECTORS displacement_ITER11 FLOAT
 -2.155873e-03  -3.566215e-03  0 
 -3.264676e-03  -6.328347e-03  0 
 -1.415156e-03  -3.520022e-03  0 
 -4.305678e-04  -3.477078e-03  0 
 4.750307e-04  -3.476461e-03  0 
 1.458654e-03  -3.519471e-03  0 
 2.201131e-03  -3.565986e-03  0 
 -1.823960e-03  -6.288744e-03  0 
 -6.235678e-04  -6.260089e-03  0 
 6.673065e-04  -6.259990e-03  0 
 1.868226e-03  -6.288542e-03  0 
 3.308893e-03  -6.328162e-03  0 
VECTORS displacement_ITER12 FLOAT
 -2.155873e-03  -3.566215e-03  0 
 -3.264676e-03  -6.328347e-03  0 
 -1.415156e-03  -3.520022e-03  0 
 -4.305678e-04  -3.477078e-03  0 
 4.750307e-04  -3.476461e-03  0 
 1.458654e-03  -3.519471e-03  0 
 2.201131e-03  -3.565986e-03  0 
 -1.823960e-03  -6.288744e-03  0 
 -6.235678e-04  -6.260089e-03  0 
 6.673065e-04  -6.259990e-03  0 
 1.868226e-03  -6.288542e-03  0 
 3.308893e-03  -6.328162e-03  0 
CELL_DATA 5
TENSORS element_stresses FLOAT
 -1.596989e-01  -5.943980e-03  0 
 -5.943980e-03  -2.646066e-02  0 
 0  0  0 

 -6.023130e-01  -6.867658e-02  0 
 -6.867658e-02  -1.696179e-03  0 
 0  0  0 

 -2.049724e-05  -5.796704e-03  0 
 -5.796704e-03  1.730783e-04  0 
 0  0  0 

 6.023913e-01  -7.018762e-02  0 
 -7.018762e-02  1.810075e-03  0 
 0  0  0 

 1.596411e-01  -5.645116e-03  0 
 -5.645116e-03  2.635870e-02  0 
 0  0  0 

TENSORS element_stresses FLOAT
 -1.596989e-01  -5.943980e-03  0 
 -5.943980e-03  -2.646066e-02  0 
 0  0  0 

 -6.023130e-01  -6.867658e-02  0 
 -6.867658e-02  -1.696179e-03  0 
 0  0  0 

 -2.049724e-05  -5.796704e-03  0 
 -5.796704e-03  1.730783e-04  0 
 0  0  0 

 6.023913e-01  -7.018762e-02  0 
 -7.018762e-02  1.810075e-03  0 
 0  0  0 

 1.596411e-01  -5.645116e-03  0 
 -5.645116e-03  2.635870e-02  0 
 0  0  0 

