# vtk DataFile Version 3.1
this is an vtk file created by FEMAC
ASCII
DATASET UNSTRUCTURED_GRID
POINTS 12 FLOAT
6.000000 0.000000 0.000000
6.500000 0.000000 0.000000
6.000000 0.200000 0.000000
6.000000 0.400000 0.000000
6.000000 0.600000 0.000000
6.000000 0.800000 0.000000
6.000000 1.000000 0.000000
6.500000 0.200000 0.000000
6.500000 0.400000 0.000000
6.500000 0.600000 0.000000
6.500000 0.800000 0.000000
6.500000 1.000000 0.000000
CELLS 5 25 
4 0 1 7 2
4 2 7 8 3
4 3 8 9 4
4 4  9 10  5
4 5 10 11  6
CELL_TYPES 5
9 9 9 9 9 
POINT_DATA 12
VECTORS displacement_ITER1 FLOAT
 -5.456355e-03  -4.364982e-02  0 
 -5.474456e-03  -4.914664e-02  0 
 -3.251835e-03  -4.364486e-02  0 
 -1.073117e-03  -4.364278e-02  0 
 1.111622e-03  -4.364277e-02  0 
 3.289561e-03  -4.364460e-02  0 
 5.494575e-03  -4.364955e-02  0 
 -3.282699e-03  -4.914486e-02  0 
 -1.081165e-03  -4.914174e-02  0 
 1.119346e-03  -4.914166e-02  0 
 3.320902e-03  -4.914483e-02  0 
 5.512287e-03  -4.914646e-02  0 
VECTORS displacement_ITER2 FLOAT
 -5.451788e-03  -4.358874e-02  0 
 -5.470097e-03  -4.908642e-02  0 
 -3.246886e-03  -4.358420e-02  0 
 -1.071395e-03  -4.358176e-02  0 
 1.113808e-03  -4.358172e-02  0 
 3.289442e-03  -4.358432e-02  0 
 5.494282e-03  -4.358887e-02  0 
 -3.277904e-03  -4.908395e-02  0 
 -1.078819e-03  -4.908095e-02  0 
 1.121366e-03  -4.908096e-02  0 
 3.320370e-03  -4.908397e-02  0 
 5.512506e-03  -4.908639e-02  0 
VECTORS displacement_ITER3 FLOAT
 -5.455348e-03  -4.358896e-02  0 
 -5.473742e-03  -4.909048e-02  0 
 -3.249049e-03  -4.358436e-02  0 
 -1.071402e-03  -4.358194e-02  0 
 1.115414e-03  -4.358194e-02  0 
 3.293118e-03  -4.358432e-02  0 
 5.499414e-03  -4.358892e-02  0 
 -3.279911e-03  -4.908805e-02  0 
 -1.078742e-03  -4.908498e-02  0 
 1.122803e-03  -4.908499e-02  0 
 3.323930e-03  -4.908805e-02  0 
 5.517807e-03  -4.909049e-02  0 
VECTORS displacement_ITER4 FLOAT
 -5.453886e-03  -4.358803e-02  0 
 -5.472289e-03  -4.908822e-02  0 
 -3.248099e-03  -4.358342e-02  0 
 -1.071227e-03  -4.358098e-02  0 
 1.115248e-03  -4.358098e-02  0 
 3.292136e-03  -4.358343e-02  0 
 5.497908e-03  -4.358805e-02  0 
 -3.278999e-03  -4.908581e-02  0 
 -1.078459e-03  -4.908275e-02  0 
 1.122491e-03  -4.908275e-02  0 
 3.323022e-03  -4.908581e-02  0 
 5.516320e-03  -4.908823e-02  0 
VECTORS displacement_ITER5 FLOAT
 -5.453818e-03  -4.358780e-02  0 
 -5.472222e-03  -4.908788e-02  0 
 -3.248073e-03  -4.358318e-02  0 
 -1.071200e-03  -4.358075e-02  0 
 1.115241e-03  -4.358075e-02  0 
 3.292115e-03  -4.358318e-02  0 
 5.497860e-03  -4.358780e-02  0 
 -3.278983e-03  -4.908546e-02  0 
 -1.078422e-03  -4.908241e-02  0 
 1.122465e-03  -4.908241e-02  0 
 3.323023e-03  -4.908546e-02  0 
 5.516264e-03  -4.908788e-02  0 
VECTORS displacement_ITER6 FLOAT
 -5.453866e-03  -4.358779e-02  0 
 -5.472272e-03  -4.908791e-02  0 
 -3.248097e-03  -4.358317e-02  0 
 -1.071251e-03  -4.358074e-02  0 
 1.115224e-03  -4.358074e-02  0 
 3.292075e-03  -4.358317e-02  0 
 5.497843e-03  -4.358779e-02  0 
 -3.279019e-03  -4.908549e-02  0 
 -1.078456e-03  -4.908244e-02  0 
 1.122433e-03  -4.908244e-02  0 
 3.322994e-03  -4.908549e-02  0 
 5.516247e-03  -4.908791e-02  0 
VECTORS displacement_ITER7 FLOAT
 -5.453863e-03  -4.358780e-02  0 
 -5.472269e-03  -4.908793e-02  0 
 -3.248095e-03  -4.358318e-02  0 
 -1.071240e-03  -4.358075e-02  0 
 1.115240e-03  -4.358075e-02  0 
 3.292095e-03  -4.358318e-02  0 
 5.497864e-03  -4.358780e-02  0 
 -3.279017e-03  -4.908551e-02  0 
 -1.078442e-03  -4.908245e-02  0 
 1.122443e-03  -4.908245e-02  0 
 3.323018e-03  -4.908551e-02  0 
 5.516270e-03  -4.908793e-02  0 
VECTORS displacement_ITER8 FLOAT
 -5.453858e-03  -4.358780e-02  0 
 -5.472264e-03  -4.908792e-02  0 
 -3.248091e-03  -4.358318e-02  0 
 -1.071240e-03  -4.358075e-02  0 
 1.115240e-03  -4.358075e-02  0 
 3.292091e-03  -4.358318e-02  0 
 5.497858e-03  -4.358780e-02  0 
 -3.279013e-03  -4.908550e-02  0 
 -1.078442e-03  -4.908245e-02  0 
 1.122442e-03  -4.908245e-02  0 
 3.323013e-03  -4.908550e-02  0 
 5.516264e-03  -4.908792e-02  0 
VECTORS displacement_ITER9 FLOAT
 -5.453858e-03  -4.358780e-02  0 
 -5.472264e-03  -4.908792e-02  0 
 -3.248091e-03  -4.358318e-02  0 
 -1.071240e-03  -4.358075e-02  0 
 1.115239e-03  -4.358075e-02  0 
 3.292090e-03  -4.358318e-02  0 
 5.497857e-03  -4.358780e-02  0 
 -3.279014e-03  -4.908550e-02  0 
 -1.078442e-03  -4.908245e-02  0 
 1.122441e-03  -4.908245e-02  0 
 3.323012e-03  -4.908550e-02  0 
 5.516263e-03  -4.908792e-02  0 
VECTORS displacement_ITER10 FLOAT
 -5.453858e-03  -4.358780e-02  0 
 -5.472264e-03  -4.908792e-02  0 
 -3.248091e-03  -4.358318e-02  0 
 -1.071240e-03  -4.358075e-02  0 
 1.115239e-03  -4.358075e-02  0 
 3.292090e-03  -4.358318e-02  0 
 5.497857e-03  -4.358780e-02  0 
 -3.279014e-03  -4.908550e-02  0 
 -1.078442e-03  -4.908245e-02  0 
 1.122441e-03  -4.908245e-02  0 
 3.323013e-03  -4.908550e-02  0 
 5.516263e-03  -4.908792e-02  0 
VECTORS displacement_ITER11 FLOAT
 -5.453858e-03  -4.358780e-02  0 
 -5.472264e-03  -4.908792e-02  0 
 -3.248091e-03  -4.358318e-02  0 
 -1.071240e-03  -4.358075e-02  0 
 1.115239e-03  -4.358075e-02  0 
 3.292090e-03  -4.358318e-02  0 
 5.497857e-03  -4.358780e-02  0 
 -3.279014e-03  -4.908550e-02  0 
 -1.078442e-03  -4.908245e-02  0 
 1.122441e-03  -4.908245e-02  0 
 3.323013e-03  -4.908550e-02  0 
 5.516263e-03  -4.908792e-02  0 
VECTORS displacement_ITER12 FLOAT
 -5.453858e-03  -4.358780e-02  0 
 -5.472264e-03  -4.908792e-02  0 
 -3.248091e-03  -4.358318e-02  0 
 -1.071240e-03  -4.358075e-02  0 
 1.115239e-03  -4.358075e-02  0 
 3.292090e-03  -4.358318e-02  0 
 5.497857e-03  -4.358780e-02  0 
 -3.279014e-03  -4.908550e-02  0 
 -1.078442e-03  -4.908245e-02  0 
 1.122441e-03  -4.908245e-02  0 
 3.323013e-03  -4.908550e-02  0 
 5.516263e-03  -4.908792e-02  0 
CELL_DATA 5
TENSORS element_stresses FLOAT
 -4.840766e-02  -3.766406e-03  0 
 -3.766406e-03  3.069295e-03  0 
 0  0  0 

 -3.737468e-03  -4.651081e-03  0 
 -4.651081e-03  2.497824e-04  0 
 0  0  0 

 1.094402e-08  -2.691503e-02  0 
 -2.691503e-02  1.367462e-08  0 
 0  0  0 

 3.737469e-03  -4.651080e-03  0 
 -4.651080e-03  -2.497788e-04  0 
 0  0  0 

 4.840765e-02  -3.766405e-03  0 
 -3.766405e-03  -3.069292e-03  0 
 0  0  0 

TENSORS element_stresses FLOAT
 -4.840766e-02  -3.766406e-03  0 
 -3.766406e-03  3.069295e-03  0 
 0  0  0 

 -3.737468e-03  -4.651081e-03  0 
 -4.651081e-03  2.497824e-04  0 
 0  0  0 

 1.094402e-08  -2.691503e-02  0 
 -2.691503e-02  1.367462e-08  0 
 0  0  0 

 3.737469e-03  -4.651080e-03  0 
 -4.651080e-03  -2.497788e-04  0 
 0  0  0 

 4.840765e-02  -3.766405e-03  0 
 -3.766405e-03  -3.069292e-03  0 
 0  0  0 

