# vtk DataFile Version 3.1
this is an vtk file created by FEMAC
ASCII
DATASET UNSTRUCTURED_GRID
POINTS 12 FLOAT
7.000000 0.000000 0.000000
7.500000 0.000000 0.000000
7.000000 0.200000 0.000000
7.000000 0.400000 0.000000
7.000000 0.600000 0.000000
7.000000 0.800000 0.000000
7.000000 1.000000 0.000000
7.500000 0.200000 0.000000
7.500000 0.400000 0.000000
7.500000 0.600000 0.000000
7.500000 0.800000 0.000000
7.500000 1.000000 0.000000
CELLS 5 25 
4 0 1 7 2
4 2 7 8 3
4 3 8 9 4
4 4  9 10  5
4 5 10 11  6
CELL_TYPES 5
9 9 9 9 9 
POINT_DATA 12
VECTORS displacement_ITER1 FLOAT
 -5.516462e-03  -5.466688e-02  0 
 -5.520069e-03  -6.020943e-02  0 
 -3.298699e-03  -5.466560e-02  0 
 -1.086972e-03  -5.466545e-02  0 
 1.124488e-03  -5.466550e-02  0 
 3.336207e-03  -5.466551e-02  0 
 5.554025e-03  -5.466664e-02  0 
 -3.304332e-03  -6.020920e-02  0 
 -1.089588e-03  -6.020846e-02  0 
 1.127132e-03  -6.020843e-02  0 
 3.341799e-03  -6.020914e-02  0 
 5.557602e-03  -6.020945e-02  0 
VECTORS displacement_ITER2 FLOAT
 -5.513758e-03  -5.460605e-02  0 
 -5.517342e-03  -6.014928e-02  0 
 -3.295606e-03  -5.460476e-02  0 
 -1.084762e-03  -5.460439e-02  0 
 1.127127e-03  -5.460440e-02  0 
 3.337992e-03  -5.460475e-02  0 
 5.556152e-03  -5.460602e-02  0 
 -3.301333e-03  -6.014901e-02  0 
 -1.087439e-03  -6.014831e-02  0 
 1.129815e-03  -6.014831e-02  0 
 3.343712e-03  -6.014900e-02  0 
 5.559729e-03  -6.014929e-02  0 
VECTORS displacement_ITER3 FLOAT
 -5.517587e-03  -5.461442e-02  0 
 -5.521183e-03  -6.016219e-02  0 
 -3.297633e-03  -5.461309e-02  0 
 -1.084831e-03  -5.461276e-02  0 
 1.128878e-03  -5.461276e-02  0 
 3.341709e-03  -5.461309e-02  0 
 5.561660e-03  -5.461442e-02  0 
 -3.303345e-03  -6.016194e-02  0 
 -1.087505e-03  -6.016123e-02  0 
 1.131576e-03  -6.016124e-02  0 
 3.347402e-03  -6.016194e-02  0 
 5.565253e-03  -6.016220e-02  0 
VECTORS displacement_ITER4 FLOAT
 -5.516098e-03  -5.461071e-02  0 
 -5.519690e-03  -6.015703e-02  0 
 -3.296712e-03  -5.460939e-02  0 
 -1.084565e-03  -5.460905e-02  0 
 1.128602e-03  -5.460905e-02  0 
 3.340754e-03  -5.460939e-02  0 
 5.560139e-03  -5.461071e-02  0 
 -3.302443e-03  -6.015677e-02  0 
 -1.087212e-03  -6.015606e-02  0 
 1.131253e-03  -6.015607e-02  0 
 3.346482e-03  -6.015677e-02  0 
 5.563731e-03  -6.015703e-02  0 
VECTORS displacement_ITER5 FLOAT
 -5.515996e-03  -5.461026e-02  0 
 -5.519589e-03  -6.015647e-02  0 
 -3.296653e-03  -5.460894e-02  0 
 -1.084545e-03  -5.460861e-02  0 
 1.128584e-03  -5.460860e-02  0 
 3.340695e-03  -5.460894e-02  0 
 5.560039e-03  -5.461025e-02  0 
 -3.302388e-03  -6.015621e-02  0 
 -1.087185e-03  -6.015550e-02  0 
 1.131227e-03  -6.015551e-02  0 
 3.346427e-03  -6.015621e-02  0 
 5.563631e-03  -6.015647e-02  0 
VECTORS displacement_ITER6 FLOAT
 -5.516048e-03  -5.461031e-02  0 
 -5.519642e-03  -6.015654e-02  0 
 -3.296696e-03  -5.460899e-02  0 
 -1.084586e-03  -5.460865e-02  0 
 1.128558e-03  -5.460865e-02  0 
 3.340669e-03  -5.460899e-02  0 
 5.560023e-03  -5.461030e-02  0 
 -3.302433e-03  -6.015628e-02  0 
 -1.087222e-03  -6.015558e-02  0 
 1.131195e-03  -6.015558e-02  0 
 3.346406e-03  -6.015628e-02  0 
 5.563616e-03  -6.015655e-02  0 
VECTORS displacement_ITER7 FLOAT
 -5.516042e-03  -5.461032e-02  0 
 -5.519636e-03  -6.015657e-02  0 
 -3.296686e-03  -5.460901e-02  0 
 -1.084574e-03  -5.460867e-02  0 
 1.128574e-03  -5.460867e-02  0 
 3.340687e-03  -5.460901e-02  0 
 5.560043e-03  -5.461032e-02  0 
 -3.302423e-03  -6.015631e-02  0 
 -1.087209e-03  -6.015560e-02  0 
 1.131210e-03  -6.015560e-02  0 
 3.346424e-03  -6.015631e-02  0 
 5.563636e-03  -6.015657e-02  0 
VECTORS displacement_ITER8 FLOAT
 -5.516037e-03  -5.461032e-02  0 
 -5.519631e-03  -6.015656e-02  0 
 -3.296683e-03  -5.460900e-02  0 
 -1.084573e-03  -5.460866e-02  0 
 1.128574e-03  -5.460866e-02  0 
 3.340683e-03  -5.460900e-02  0 
 5.560037e-03  -5.461032e-02  0 
 -3.302420e-03  -6.015630e-02  0 
 -1.087208e-03  -6.015559e-02  0 
 1.131208e-03  -6.015559e-02  0 
 3.346420e-03  -6.015630e-02  0 
 5.563631e-03  -6.015656e-02  0 
VECTORS displacement_ITER9 FLOAT
 -5.516038e-03  -5.461031e-02  0 
 -5.519631e-03  -6.015656e-02  0 
 -3.296684e-03  -5.460900e-02  0 
 -1.084574e-03  -5.460866e-02  0 
 1.128573e-03  -5.460866e-02  0 
 3.340682e-03  -5.460900e-02  0 
 5.560037e-03  -5.461031e-02  0 
 -3.302421e-03  -6.015629e-02  0 
 -1.087209e-03  -6.015559e-02  0 
 1.131208e-03  -6.015559e-02  0 
 3.346420e-03  -6.015629e-02  0 
 5.563630e-03  -6.015656e-02  0 
VECTORS displacement_ITER10 FLOAT
 -5.516038e-03  -5.461031e-02  0 
 -5.519631e-03  -6.015656e-02  0 
 -3.296684e-03  -5.460900e-02  0 
 -1.084574e-03  -5.460866e-02  0 
 1.128573e-03  -5.460866e-02  0 
 3.340683e-03  -5.460900e-02  0 
 5.560037e-03  -5.461031e-02  0 
 -3.302421e-03  -6.015629e-02  0 
 -1.087209e-03  -6.015559e-02  0 
 1.131208e-03  -6.015559e-02  0 
 3.346420e-03  -6.015629e-02  0 
 5.563630e-03  -6.015656e-02  0 
VECTORS displacement_ITER11 FLOAT
 -5.516038e-03  -5.461031e-02  0 
 -5.519631e-03  -6.015656e-02  0 
 -3.296684e-03  -5.460900e-02  0 
 -1.084574e-03  -5.460866e-02  0 
 1.128573e-03  -5.460866e-02  0 
 3.340683e-03  -5.460900e-02  0 
 5.560037e-03  -5.461031e-02  0 
 -3.302421e-03  -6.015629e-02  0 
 -1.087209e-03  -6.015559e-02  0 
 1.131208e-03  -6.015559e-02  0 
 3.346420e-03  -6.015629e-02  0 
 5.563630e-03  -6.015656e-02  0 
VECTORS displacement_ITER12 FLOAT
 -5.516038e-03  -5.461031e-02  0 
 -5.519631e-03  -6.015656e-02  0 
 -3.296684e-03  -5.460900e-02  0 
 -1.084574e-03  -5.460866e-02  0 
 1.128573e-03  -5.460866e-02  0 
 3.340683e-03  -5.460900e-02  0 
 5.560037e-03  -5.461031e-02  0 
 -3.302421e-03  -6.015629e-02  0 
 -1.087209e-03  -6.015559e-02  0 
 1.131208e-03  -6.015559e-02  0 
 3.346420e-03  -6.015629e-02  0 
 5.563630e-03  -6.015656e-02  0 
CELL_DATA 5
TENSORS element_stresses FLOAT
 -8.954295e-03  -1.634251e-03  0 
 -1.634251e-03  1.254729e-03  0 
 0  0  0 

 -8.340029e-04  -1.993472e-03  0 
 -1.993472e-03  1.064284e-05  0 
 0  0  0 

 -4.141469e-10  -1.149456e-02  0 
 -1.149456e-02  -9.925429e-10  0 
 0  0  0 

 8.340028e-04  -1.993472e-03  0 
 -1.993472e-03  -1.064311e-05  0 
 0  0  0 

 8.954295e-03  -1.634250e-03  0 
 -1.634250e-03  -1.254729e-03  0 
 0  0  0 

TENSORS element_stresses FLOAT
 -8.954295e-03  -1.634251e-03  0 
 -1.634251e-03  1.254729e-03  0 
 0  0  0 

 -8.340029e-04  -1.993472e-03  0 
 -1.993472e-03  1.064284e-05  0 
 0  0  0 

 -4.141469e-10  -1.149456e-02  0 
 -1.149456e-02  -9.925429e-10  0 
 0  0  0 

 8.340028e-04  -1.993472e-03  0 
 -1.993472e-03  -1.064311e-05  0 
 0  0  0 

 8.954295e-03  -1.634250e-03  0 
 -1.634250e-03  -1.254729e-03  0 
 0  0  0 

