# vtk DataFile Version 3.1
this is an vtk file created by FEMAC
ASCII
DATASET UNSTRUCTURED_GRID
POINTS 12 FLOAT
1.000000 0.000000 0.000000
1.500000 0.000000 0.000000
1.000000 0.200000 0.000000
1.000000 0.400000 0.000000
1.000000 0.600000 0.000000
1.000000 0.800000 0.000000
1.000000 1.000000 0.000000
1.500000 0.200000 0.000000
1.500000 0.400000 0.000000
1.500000 0.600000 0.000000
1.500000 0.800000 0.000000
1.500000 1.000000 0.000000
CELLS 5 25 
4 0 1 7 2
4 2 7 8 3
4 3 8 9 4
4 4  9 10  5
4 5 10 11  6
CELL_TYPES 5
9 9 9 9 9 
POINT_DATA 12
VECTORS displacement_ITER1 FLOAT
 -1.899143e-03  -1.476059e-03  0 
 -2.171368e-03  -3.559584e-03  0 
 -9.745627e-04  -1.418829e-03  0 
 -3.433499e-04  -1.362804e-03  0 
 3.900496e-04  -1.357047e-03  0 
 1.006953e-03  -1.405613e-03  0 
 1.944636e-03  -1.460545e-03  0 
 -1.433008e-03  -3.515849e-03  0 
 -4.269084e-04  -3.469612e-03  0 
 4.689403e-04  -3.475322e-03  0 
 1.470255e-03  -3.520670e-03  0 
 2.214518e-03  -3.564737e-03  0 
VECTORS displacement_ITER2 FLOAT
 -1.889434e-03  -1.471761e-03  0 
 -2.156995e-03  -3.567228e-03  0 
 -9.561745e-04  -1.418228e-03  0 
 -3.416707e-04  -1.361842e-03  0 
 3.894527e-04  -1.359893e-03  0 
 9.912648e-04  -1.407918e-03  0 
 1.931924e-03  -1.459660e-03  0 
 -1.416384e-03  -3.521525e-03  0 
 -4.321353e-04  -3.478753e-03  0 
 4.739253e-04  -3.480082e-03  0 
 1.455568e-03  -3.522442e-03  0 
 2.200226e-03  -3.569638e-03  0 
VECTORS displacement_ITER3 FLOAT
 -1.888651e-03  -1.470093e-03  0 
 -2.155371e-03  -3.565841e-03  0 
 -9.546994e-04  -1.417293e-03  0 
 -3.394185e-04  -1.361064e-03  0 
 3.900167e-04  -1.360547e-03  0 
 9.935129e-04  -1.408391e-03  0 
 1.932341e-03  -1.460719e-03  0 
 -1.415264e-03  -3.519904e-03  0 
 -4.305536e-04  -3.476870e-03  0 
 4.745878e-04  -3.476485e-03  0 
 1.458201e-03  -3.519470e-03  0 
 2.200857e-03  -3.566441e-03  0 
VECTORS displacement_ITER4 FLOAT
 -1.888881e-03  -1.469659e-03  0 
 -2.155788e-03  -3.565982e-03  0 
 -9.549898e-04  -1.417017e-03  0 
 -3.390777e-04  -1.360783e-03  0 
 3.900620e-04  -1.360508e-03  0 
 9.943666e-04  -1.408306e-03  0 
 1.932794e-03  -1.461011e-03  0 
 -1.415205e-03  -3.519849e-03  0 
 -4.304714e-04  -3.476900e-03  0 
 4.749943e-04  -3.476241e-03  0 
 1.458807e-03  -3.519244e-03  0 
 2.201185e-03  -3.565784e-03  0 
VECTORS displacement_ITER5 FLOAT
 -1.888911e-03  -1.469655e-03  0 
 -2.155868e-03  -3.566240e-03  0 
 -9.549732e-04  -1.417053e-03  0 
 -3.391489e-04  -1.360800e-03  0 
 3.900493e-04  -1.360511e-03  0 
 9.942623e-04  -1.408314e-03  0 
 1.932769e-03  -1.461027e-03  0 
 -1.415136e-03  -3.520037e-03  0 
 -4.305667e-04  -3.477096e-03  0 
 4.750454e-04  -3.476464e-03  0 
 1.458658e-03  -3.519476e-03  0 
 2.201130e-03  -3.565987e-03  0 
VECTORS displacement_ITER6 FLOAT
 -1.888915e-03  -1.469664e-03  0 
 -2.155878e-03  -3.566230e-03  0 
 -9.549886e-04  -1.417057e-03  0 
 -3.391601e-04  -1.360803e-03  0 
 3.900410e-04  -1.360503e-03  0 
 9.942524e-04  -1.408307e-03  0 
 1.932769e-03  -1.461017e-03  0 
 -1.415150e-03  -3.520031e-03  0 
 -4.305732e-04  -3.477088e-03  0 
 4.750364e-04  -3.476470e-03  0 
 1.458647e-03  -3.519482e-03  0 
 2.201126e-03  -3.565991e-03  0 
VECTORS displacement_ITER7 FLOAT
 -1.888915e-03  -1.469667e-03  0 
 -2.155875e-03  -3.566214e-03  0 
 -9.549931e-04  -1.417055e-03  0 
 -3.391576e-04  -1.360803e-03  0 
 3.900415e-04  -1.360502e-03  0 
 9.942587e-04  -1.408305e-03  0 
 1.932771e-03  -1.461014e-03  0 
 -1.415157e-03  -3.520021e-03  0 
 -4.305684e-04  -3.477077e-03  0 
 4.750320e-04  -3.476459e-03  0 
 1.458655e-03  -3.519469e-03  0 
 2.201132e-03  -3.565982e-03  0 
VECTORS displacement_ITER8 FLOAT
 -1.888914e-03  -1.469668e-03  0 
 -2.155873e-03  -3.566215e-03  0 
 -9.549911e-04  -1.417056e-03  0 
 -3.391584e-04  -1.360804e-03  0 
 3.900423e-04  -1.360503e-03  0 
 9.942565e-04  -1.408307e-03  0 
 1.932770e-03  -1.461014e-03  0 
 -1.415156e-03  -3.520022e-03  0 
 -4.305679e-04  -3.477078e-03  0 
 4.750310e-04  -3.476460e-03  0 
 1.458654e-03  -3.519471e-03  0 
 2.201131e-03  -3.565985e-03  0 
VECTORS displacement_ITER9 FLOAT
 -1.888914e-03  -1.469668e-03  0 
 -2.155873e-03  -3.566215e-03  0 
 -9.549908e-04  -1.417056e-03  0 
 -3.391587e-04  -1.360804e-03  0 
 3.900424e-04  -1.360503e-03  0 
 9.942559e-04  -1.408307e-03  0 
 1.932770e-03  -1.461014e-03  0 
 -1.415156e-03  -3.520022e-03  0 
 -4.305679e-04  -3.477078e-03  0 
 4.750308e-04  -3.476461e-03  0 
 1.458653e-03  -3.519471e-03  0 
 2.201131e-03  -3.565986e-03  0 
VECTORS displacement_ITER10 FLOAT
 -1.888914e-03  -1.469668e-03  0 
 -2.155873e-03  -3.566215e-03  0 
 -9.549909e-04  -1.417056e-03  0 
 -3.391588e-04  -1.360804e-03  0 
 3.900424e-04  -1.360503e-03  0 
 9.942560e-04  -1.408307e-03  0 
 1.932770e-03  -1.461014e-03  0 
 -1.415156e-03  -3.520022e-03  0 
 -4.305678e-04  -3.477078e-03  0 
 4.750307e-04  -3.476461e-03  0 
 1.458654e-03  -3.519471e-03  0 
 2.201131e-03  -3.565986e-03  0 
VECTORS displacement_ITER11 FLOAT
 -1.888914e-03  -1.469668e-03  0 
 -2.155873e-03  -3.566215e-03  0 
 -9.549909e-04  -1.417056e-03  0 
 -3.391588e-04  -1.360804e-03  0 
 3.900424e-04  -1.360503e-03  0 
 9.942560e-04  -1.408307e-03  0 
 1.932770e-03  -1.461014e-03  0 
 -1.415156e-03  -3.520022e-03  0 
 -4.305678e-04  -3.477078e-03  0 
 4.750307e-04  -3.476461e-03  0 
 1.458654e-03  -3.519471e-03  0 
 2.201131e-03  -3.565986e-03  0 
VECTORS displacement_ITER12 FLOAT
 -1.888914e-03  -1.469668e-03  0 
 -2.155873e-03  -3.566215e-03  0 
 -9.549909e-04  -1.417056e-03  0 
 -3.391588e-04  -1.360804e-03  0 
 3.900425e-04  -1.360503e-03  0 
 9.942560e-04  -1.408307e-03  0 
 1.932770e-03  -1.461014e-03  0 
 -1.415156e-03  -3.520022e-03  0 
 -4.305678e-04  -3.477078e-03  0 
 4.750307e-04  -3.476461e-03  0 
 1.458654e-03  -3.519471e-03  0 
 2.201131e-03  -3.565986e-03  0 
CELL_DATA 5
TENSORS element_stresses FLOAT
 -7.176053e-01  -9.931812e-03  0 
 -9.931812e-03  3.173115e-02  0 
 0  0  0 

 -5.243704e-02  -1.678378e-02  0 
 -1.678378e-02  9.068003e-03  0 
 0  0  0 

 -6.298734e-03  -1.117177e-01  0 
 -1.117177e-01  4.068705e-04  0 
 0  0  0 

 5.288739e-02  -1.981005e-02  0 
 -1.981005e-02  -6.837335e-03  0 
 0  0  0 

 7.234537e-01  -1.050669e-02  0 
 -1.050669e-02  -3.101796e-02  0 
 0  0  0 

TENSORS element_stresses FLOAT
 -7.176053e-01  -9.931812e-03  0 
 -9.931812e-03  3.173115e-02  0 
 0  0  0 

 -5.243704e-02  -1.678378e-02  0 
 -1.678378e-02  9.068003e-03  0 
 0  0  0 

 -6.298734e-03  -1.117177e-01  0 
 -1.117177e-01  4.068705e-04  0 
 0  0  0 

 5.288739e-02  -1.981005e-02  0 
 -1.981005e-02  -6.837335e-03  0 
 0  0  0 

 7.234537e-01  -1.050669e-02  0 
 -1.050669e-02  -3.101796e-02  0 
 0  0  0 

