# vtk DataFile Version 3.1
this is an vtk file created by FEMAC
ASCII
DATASET UNSTRUCTURED_GRID
POINTS 12 FLOAT
7.500000 0.000000 0.000000
8.000000 0.000000 0.000000
7.500000 0.200000 0.000000
7.500000 0.400000 0.000000
7.500000 0.600000 0.000000
7.500000 0.800000 0.000000
7.500000 1.000000 0.000000
8.000000 0.200000 0.000000
8.000000 0.400000 0.000000
8.000000 0.600000 0.000000
8.000000 0.800000 0.000000
8.000000 1.000000 0.000000
CELLS 5 25 
4 0 1 7 2
4 2 7 8 3
4 3 8 9 4
4 4  9 10  5
4 5 10 11  6
CELL_TYPES 5
9 9 9 9 9 
POINT_DATA 12
VECTORS displacement_ITER1 FLOAT
 -5.520201e-03  -6.020952e-02  0 
 -5.521776e-03  -6.575068e-02  0 
 -3.303884e-03  -6.020913e-02  0 
 -1.090230e-03  -6.020842e-02  0 
 1.127742e-03  -6.020850e-02  0 
 3.341370e-03  -6.020922e-02  0 
 5.557745e-03  -6.020933e-02  0 
 -3.305899e-03  -6.574929e-02  0 
 -1.088643e-03  -6.574952e-02  0 
 1.126171e-03  -6.574950e-02  0 
 3.343374e-03  -6.574927e-02  0 
 5.559269e-03  -6.575079e-02  0 
VECTORS displacement_ITER2 FLOAT
 -5.517316e-03  -6.014926e-02  0 
 -5.519469e-03  -6.569088e-02  0 
 -3.301406e-03  -6.014902e-02  0 
 -1.087371e-03  -6.014831e-02  0 
 1.129755e-03  -6.014831e-02  0 
 3.343787e-03  -6.014903e-02  0 
 5.559691e-03  -6.014925e-02  0 
 -3.303302e-03  -6.568946e-02  0 
 -1.086101e-03  -6.568967e-02  0 
 1.128485e-03  -6.568967e-02  0 
 3.345683e-03  -6.568946e-02  0 
 5.561851e-03  -6.569089e-02  0 
VECTORS displacement_ITER3 FLOAT
 -5.521192e-03  -6.016221e-02  0 
 -5.523250e-03  -6.570843e-02  0 
 -3.303344e-03  -6.016194e-02  0 
 -1.087477e-03  -6.016123e-02  0 
 1.131540e-03  -6.016122e-02  0 
 3.347427e-03  -6.016193e-02  0 
 5.565243e-03  -6.016220e-02  0 
 -3.305258e-03  -6.570702e-02  0 
 -1.086191e-03  -6.570722e-02  0 
 1.130259e-03  -6.570723e-02  0 
 3.349332e-03  -6.570703e-02  0 
 5.567344e-03  -6.570844e-02  0 
VECTORS displacement_ITER4 FLOAT
 -5.519688e-03  -6.015703e-02  0 
 -5.521753e-03  -6.570174e-02  0 
 -3.302453e-03  -6.015677e-02  0 
 -1.087197e-03  -6.015607e-02  0 
 1.131237e-03  -6.015606e-02  0 
 3.346497e-03  -6.015677e-02  0 
 5.563725e-03  -6.015703e-02  0 
 -3.304365e-03  -6.570033e-02  0 
 -1.085904e-03  -6.570053e-02  0 
 1.129945e-03  -6.570054e-02  0 
 3.348407e-03  -6.570033e-02  0 
 5.565799e-03  -6.570174e-02  0 
VECTORS displacement_ITER5 FLOAT
 -5.519590e-03  -6.015648e-02  0 
 -5.521641e-03  -6.570107e-02  0 
 -3.302388e-03  -6.015621e-02  0 
 -1.087182e-03  -6.015551e-02  0 
 1.131222e-03  -6.015550e-02  0 
 3.346431e-03  -6.015621e-02  0 
 5.563629e-03  -6.015647e-02  0 
 -3.304302e-03  -6.569965e-02  0 
 -1.085884e-03  -6.569986e-02  0 
 1.129925e-03  -6.569986e-02  0 
 3.348344e-03  -6.569966e-02  0 
 5.565686e-03  -6.570107e-02  0 
VECTORS displacement_ITER6 FLOAT
 -5.519642e-03  -6.015655e-02  0 
 -5.521692e-03  -6.570116e-02  0 
 -3.302432e-03  -6.015628e-02  0 
 -1.087221e-03  -6.015558e-02  0 
 1.131194e-03  -6.015558e-02  0 
 3.346406e-03  -6.015628e-02  0 
 5.563615e-03  -6.015654e-02  0 
 -3.304347e-03  -6.569974e-02  0 
 -1.085921e-03  -6.569995e-02  0 
 1.129895e-03  -6.569995e-02  0 
 3.348320e-03  -6.569974e-02  0 
 5.565667e-03  -6.570116e-02  0 
VECTORS displacement_ITER7 FLOAT
 -5.519636e-03  -6.015657e-02  0 
 -5.521686e-03  -6.570119e-02  0 
 -3.302423e-03  -6.015631e-02  0 
 -1.087209e-03  -6.015560e-02  0 
 1.131209e-03  -6.015560e-02  0 
 3.346424e-03  -6.015631e-02  0 
 5.563636e-03  -6.015657e-02  0 
 -3.304337e-03  -6.569977e-02  0 
 -1.085909e-03  -6.569998e-02  0 
 1.129910e-03  -6.569998e-02  0 
 3.348338e-03  -6.569977e-02  0 
 5.565687e-03  -6.570119e-02  0 
VECTORS displacement_ITER8 FLOAT
 -5.519630e-03  -6.015656e-02  0 
 -5.521681e-03  -6.570117e-02  0 
 -3.302420e-03  -6.015630e-02  0 
 -1.087208e-03  -6.015559e-02  0 
 1.131208e-03  -6.015559e-02  0 
 3.346420e-03  -6.015630e-02  0 
 5.563631e-03  -6.015656e-02  0 
 -3.304334e-03  -6.569976e-02  0 
 -1.085908e-03  -6.569996e-02  0 
 1.129908e-03  -6.569996e-02  0 
 3.348335e-03  -6.569976e-02  0 
 5.565681e-03  -6.570117e-02  0 
VECTORS displacement_ITER9 FLOAT
 -5.519631e-03  -6.015656e-02  0 
 -5.521681e-03  -6.570117e-02  0 
 -3.302421e-03  -6.015629e-02  0 
 -1.087209e-03  -6.015559e-02  0 
 1.131208e-03  -6.015559e-02  0 
 3.346420e-03  -6.015629e-02  0 
 5.563630e-03  -6.015656e-02  0 
 -3.304335e-03  -6.569975e-02  0 
 -1.085909e-03  -6.569996e-02  0 
 1.129908e-03  -6.569996e-02  0 
 3.348334e-03  -6.569975e-02  0 
 5.565680e-03  -6.570117e-02  0 
VECTORS displacement_ITER10 FLOAT
 -5.519631e-03  -6.015656e-02  0 
 -5.521681e-03  -6.570117e-02  0 
 -3.302421e-03  -6.015629e-02  0 
 -1.087209e-03  -6.015559e-02  0 
 1.131208e-03  -6.015559e-02  0 
 3.346420e-03  -6.015629e-02  0 
 5.563630e-03  -6.015656e-02  0 
 -3.304335e-03  -6.569976e-02  0 
 -1.085909e-03  -6.569996e-02  0 
 1.129908e-03  -6.569996e-02  0 
 3.348334e-03  -6.569976e-02  0 
 5.565680e-03  -6.570117e-02  0 
VECTORS displacement_ITER11 FLOAT
 -5.519631e-03  -6.015656e-02  0 
 -5.521681e-03  -6.570117e-02  0 
 -3.302421e-03  -6.015629e-02  0 
 -1.087209e-03  -6.015559e-02  0 
 1.131208e-03  -6.015559e-02  0 
 3.346420e-03  -6.015629e-02  0 
 5.563630e-03  -6.015656e-02  0 
 -3.304335e-03  -6.569976e-02  0 
 -1.085909e-03  -6.569996e-02  0 
 1.129908e-03  -6.569996e-02  0 
 3.348334e-03  -6.569976e-02  0 
 5.565680e-03  -6.570117e-02  0 
VECTORS displacement_ITER12 FLOAT
 -5.519631e-03  -6.015656e-02  0 
 -5.521681e-03  -6.570117e-02  0 
 -3.302421e-03  -6.015629e-02  0 
 -1.087209e-03  -6.015559e-02  0 
 1.131208e-03  -6.015559e-02  0 
 3.346420e-03  -6.015629e-02  0 
 5.563630e-03  -6.015656e-02  0 
 -3.304335e-03  -6.569976e-02  0 
 -1.085909e-03  -6.569996e-02  0 
 1.129908e-03  -6.569996e-02  0 
 3.348334e-03  -6.569976e-02  0 
 5.565680e-03  -6.570117e-02  0 
CELL_DATA 5
TENSORS element_stresses FLOAT
 -2.972010e-04  -1.295557e-04  0 
 -1.295557e-04  3.307017e-04  0 
 0  0  0 

 -2.624338e-04  -2.873954e-03  0 
 -2.873954e-03  1.173564e-03  0 
 0  0  0 

 5.764278e-11  -2.429808e-04  0 
 -2.429808e-04  2.381100e-10  0 
 0  0  0 

 2.624335e-04  -2.873954e-03  0 
 -2.873954e-03  -1.173564e-03  0 
 0  0  0 

 2.972013e-04  -1.295560e-04  0 
 -1.295560e-04  -3.307015e-04  0 
 0  0  0 

TENSORS element_stresses FLOAT
 -2.972010e-04  -1.295557e-04  0 
 -1.295557e-04  3.307017e-04  0 
 0  0  0 

 -2.624338e-04  -2.873954e-03  0 
 -2.873954e-03  1.173564e-03  0 
 0  0  0 

 5.764278e-11  -2.429808e-04  0 
 -2.429808e-04  2.381100e-10  0 
 0  0  0 

 2.624335e-04  -2.873954e-03  0 
 -2.873954e-03  -1.173564e-03  0 
 0  0  0 

 2.972013e-04  -1.295560e-04  0 
 -1.295560e-04  -3.307015e-04  0 
 0  0  0 

