# vtk DataFile Version 3.1
this is an vtk file created by FEMAC
ASCII
DATASET UNSTRUCTURED_GRID
POINTS 12 FLOAT
0.000000 0.000000 0.000000
0.500000 0.000000 0.000000
0.000000 0.200000 0.000000
0.500000 0.200000 0.000000
0.000000 0.400000 0.000000
0.500000 0.400000 0.000000
0.000000 0.600000 0.000000
0.500000 0.600000 0.000000
0.000000 0.800000 0.000000
0.500000 0.800000 0.000000
0.000000 1.000000 0.000000
0.500000 1.000000 0.000000
CELLS 5 25 
4 0 1 3 2
4 2 3 5 4
4 4 5 7 6
4 6 7 9 8
4 8  9 11 10
CELL_TYPES 5
9 9 9 9 9 
POINT_DATA 12
VECTORS displacement_ITER1 FLOAT
 0  0  0 
 -4.446897e-04  -1.861015e-04  0 
 0  3.418847e-05  0 
 -4.135920e-04  -1.390467e-04  0 
 0  6.484510e-05  0 
 -6.353799e-05  -1.211254e-04  0 
 0  5.823059e-05  0 
 1.095726e-04  -1.343750e-04  0 
 0  -1.568175e-04  0 
 4.549823e-04  -1.701400e-04  0 
 0  -2.215847e-04  0 
 4.021628e-04  -2.180491e-04  0 
VECTORS displacement_ITER2 FLOAT
 0  0  0 
 -4.476250e-04  -1.919279e-04  0 
 0  3.318758e-05  0 
 -4.118509e-04  -1.429862e-04  0 
 0  5.964393e-05  0 
 -6.203753e-05  -1.263200e-04  0 
 0  5.218897e-05  0 
 1.087401e-04  -1.381489e-04  0 
 0  -1.622925e-04  0 
 4.556969e-04  -1.731478e-04  0 
 0  -2.274872e-04  0 
 4.003150e-04  -2.198871e-04  0 
VECTORS displacement_ITER3 FLOAT
 0  0  0 
 -4.475766e-04  -1.918740e-04  0 
 0  3.328944e-05  0 
 -4.116635e-04  -1.432122e-04  0 
 0  5.984219e-05  0 
 -6.226850e-05  -1.266689e-04  0 
 0  5.233235e-05  0 
 1.091473e-04  -1.384731e-04  0 
 0  -1.626638e-04  0 
 4.555658e-04  -1.736960e-04  0 
 0  -2.278387e-04  0 
 4.002490e-04  -2.204880e-04  0 
VECTORS displacement_ITER4 FLOAT
 0  0  0 
 -4.474556e-04  -1.916530e-04  0 
 0  3.334029e-05  0 
 -4.116850e-04  -1.431066e-04  0 
 0  6.005800e-05  0 
 -6.237327e-05  -1.265641e-04  0 
 0  5.257603e-05  0 
 1.092718e-04  -1.384396e-04  0 
 0  -1.625665e-04  0 
 4.555076e-04  -1.737304e-04  0 
 0  -2.277070e-04  0 
 4.003193e-04  -2.206111e-04  0 
VECTORS displacement_ITER5 FLOAT
 0  0  0 
 -4.474634e-04  -1.916597e-04  0 
 0  3.333671e-05  0 
 -4.116885e-04  -1.431050e-04  0 
 0  6.003428e-05  0 
 -6.235799e-05  -1.265668e-04  0 
 0  5.255099e-05  0 
 1.092549e-04  -1.384390e-04  0 
 0  -1.625768e-04  0 
 4.555184e-04  -1.737197e-04  0 
 0  -2.277164e-04  0 
 4.003171e-04  -2.206033e-04  0 
VECTORS displacement_ITER6 FLOAT
 0  0  0 
 -4.474621e-04  -1.916578e-04  0 
 0  3.333671e-05  0 
 -4.116896e-04  -1.431028e-04  0 
 0  6.003649e-05  0 
 -6.235840e-05  -1.265632e-04  0 
 0  5.255403e-05  0 
 1.092540e-04  -1.384364e-04  0 
 0  -1.625714e-04  0 
 4.555178e-04  -1.737159e-04  0 
 0  -2.277109e-04  0 
 4.003184e-04  -2.205993e-04  0 
VECTORS displacement_ITER7 FLOAT
 0  0  0 
 -4.474613e-04  -1.916569e-04  0 
 0  3.333691e-05  0 
 -4.116898e-04  -1.431023e-04  0 
 0  6.003854e-05  0 
 -6.235946e-05  -1.265622e-04  0 
 0  5.255631e-05  0 
 1.092549e-04  -1.384357e-04  0 
 0  -1.625696e-04  0 
 4.555171e-04  -1.737158e-04  0 
 0  -2.277093e-04  0 
 4.003188e-04  -2.205988e-04  0 
VECTORS displacement_ITER8 FLOAT
 0  0  0 
 -4.474619e-04  -1.916578e-04  0 
 0  3.333674e-05  0 
 -4.116897e-04  -1.431027e-04  0 
 0  6.003750e-05  0 
 -6.235894e-05  -1.265628e-04  0 
 0  5.255509e-05  0 
 1.092544e-04  -1.384359e-04  0 
 0  -1.625704e-04  0 
 4.555174e-04  -1.737158e-04  0 
 0  -2.277102e-04  0 
 4.003184e-04  -2.205986e-04  0 
VECTORS displacement_ITER9 FLOAT
 0  0  0 
 -4.474620e-04  -1.916579e-04  0 
 0  3.333670e-05  0 
 -4.116897e-04  -1.431028e-04  0 
 0  6.003728e-05  0 
 -6.235882e-05  -1.265629e-04  0 
 0  5.255484e-05  0 
 1.092543e-04  -1.384360e-04  0 
 0  -1.625706e-04  0 
 4.555175e-04  -1.737158e-04  0 
 0  -2.277104e-04  0 
 4.003184e-04  -2.205985e-04  0 
VECTORS displacement_ITER10 FLOAT
 0  0  0 
 -4.474620e-04  -1.916579e-04  0 
 0  3.333670e-05  0 
 -4.116897e-04  -1.431028e-04  0 
 0  6.003728e-05  0 
 -6.235881e-05  -1.265628e-04  0 
 0  5.255485e-05  0 
 1.092543e-04  -1.384360e-04  0 
 0  -1.625706e-04  0 
 4.555175e-04  -1.737158e-04  0 
 0  -2.277104e-04  0 
 4.003184e-04  -2.205985e-04  0 
VECTORS displacement_ITER11 FLOAT
 0  0  0 
 -4.474620e-04  -1.916579e-04  0 
 0  3.333670e-05  0 
 -4.116897e-04  -1.431028e-04  0 
 0  6.003727e-05  0 
 -6.235881e-05  -1.265628e-04  0 
 0  5.255484e-05  0 
 1.092543e-04  -1.384360e-04  0 
 0  -1.625706e-04  0 
 4.555175e-04  -1.737158e-04  0 
 0  -2.277104e-04  0 
 4.003184e-04  -2.205985e-04  0 
VECTORS displacement_ITER12 FLOAT
 0  0  0 
 -4.474620e-04  -1.916579e-04  0 
 0  3.333670e-05  0 
 -4.116897e-04  -1.431028e-04  0 
 0  6.003727e-05  0 
 -6.235880e-05  -1.265628e-04  0 
 0  5.255484e-05  0 
 1.092543e-04  -1.384360e-04  0 
 0  -1.625706e-04  0 
 4.555175e-04  -1.737158e-04  0 
 0  -2.277104e-04  0 
 4.003184e-04  -2.205985e-04  0 
CELL_DATA 5
TENSORS element_stresses FLOAT
 -8.766294e-01  -2.143589e-01  0 
 -2.143589e-01  -5.825931e-02  0 
 0  0  0 

 -4.852946e-02  3.925289e-02  0 
 3.925289e-02  -3.748711e-03  0 
 0  0  0 

 3.558112e-02  3.957061e-02  0 
 3.957061e-02  -3.771453e-02  0 
 0  0  0 

 4.142504e-02  5.104016e-02  0 
 5.104016e-02  -5.017380e-02  0 
 0  0  0 

 8.481527e-01  -1.092548e-01  0 
 -1.092548e-01  -2.561050e-02  0 
 0  0  0 

TENSORS element_stresses FLOAT
 -8.766294e-01  -2.143589e-01  0 
 -2.143589e-01  -5.825931e-02  0 
 0  0  0 

 -4.852946e-02  3.925289e-02  0 
 3.925289e-02  -3.748711e-03  0 
 0  0  0 

 3.558112e-02  3.957061e-02  0 
 3.957061e-02  -3.771453e-02  0 
 0  0  0 

 4.142504e-02  5.104016e-02  0 
 5.104016e-02  -5.017380e-02  0 
 0  0  0 

 8.481527e-01  -1.092548e-01  0 
 -1.092548e-01  -2.561050e-02  0 
 0  0  0 

