# vtk DataFile Version 3.1
this is an vtk file created by FEMAC
ASCII
DATASET UNSTRUCTURED_GRID
POINTS 12 FLOAT
4.000000 0.000000 0.000000
4.500000 0.000000 0.000000
4.000000 0.200000 0.000000
4.000000 0.400000 0.000000
4.000000 0.600000 0.000000
4.000000 0.800000 0.000000
4.000000 1.000000 0.000000
4.500000 0.200000 0.000000
4.500000 0.400000 0.000000
4.500000 0.600000 0.000000
4.500000 0.800000 0.000000
4.500000 1.000000 0.000000
CELLS 5 25 
4 0 1 7 2
4 2 7 8 3
4 3 8 9 4
4 4  9 10  5
4 5 10 11  6
CELL_TYPES 5
9 9 9 9 9 
POINT_DATA 12
VECTORS displacement_ITER1 FLOAT
 -4.898967e-03  -2.276070e-02  0 
 -4.979312e-03  -2.774301e-02  0 
 -2.875036e-03  -2.274243e-02  0 
 -9.561621e-04  -2.273086e-02  0 
 9.927556e-04  -2.273358e-02  0 
 2.913088e-03  -2.274385e-02  0 
 4.934272e-03  -2.276129e-02  0 
 -3.019457e-03  -2.773174e-02  0 
 -9.857053e-04  -2.771888e-02  0 
 1.023648e-03  -2.771742e-02  0 
 3.055513e-03  -2.773117e-02  0 
 5.015912e-03  -2.774283e-02  0 
VECTORS displacement_ITER2 FLOAT
 -4.883368e-03  -2.270981e-02  0 
 -4.966080e-03  -2.768995e-02  0 
 -2.863072e-03  -2.269262e-02  0 
 -9.536952e-04  -2.268034e-02  0 
 9.957516e-04  -2.268089e-02  0 
 2.905536e-03  -2.269307e-02  0 
 4.924875e-03  -2.271057e-02  0 
 -3.004495e-03  -2.767660e-02  0 
 -9.826274e-04  -2.766323e-02  0 
 1.023986e-03  -2.766278e-02  0 
 3.047206e-03  -2.767606e-02  0 
 5.008241e-03  -2.768922e-02  0 
VECTORS displacement_ITER3 FLOAT
 -4.884737e-03  -2.270009e-02  0 
 -4.968297e-03  -2.768106e-02  0 
 -2.864640e-03  -2.268243e-02  0 
 -9.532731e-04  -2.267024e-02  0 
 9.975533e-04  -2.267024e-02  0 
 2.908865e-03  -2.268225e-02  0 
 4.928869e-03  -2.270012e-02  0 
 -3.005951e-03  -2.766780e-02  0 
 -9.810655e-04  -2.765426e-02  0 
 1.025154e-03  -2.765420e-02  0 
 3.050299e-03  -2.766763e-02  0 
 5.012431e-03  -2.768067e-02  0 
VECTORS displacement_ITER4 FLOAT
 -4.884262e-03  -2.270262e-02  0 
 -4.967704e-03  -2.768281e-02  0 
 -2.864226e-03  -2.268481e-02  0 
 -9.534323e-04  -2.267273e-02  0 
 9.974990e-04  -2.267273e-02  0 
 2.908275e-03  -2.268481e-02  0 
 4.928293e-03  -2.270265e-02  0 
 -3.005885e-03  -2.766975e-02  0 
 -9.809695e-04  -2.765634e-02  0 
 1.024986e-03  -2.765634e-02  0 
 3.049966e-03  -2.766974e-02  0 
 5.011763e-03  -2.768278e-02  0 
VECTORS displacement_ITER5 FLOAT
 -4.884202e-03  -2.270275e-02  0 
 -4.967646e-03  -2.768297e-02  0 
 -2.864128e-03  -2.268496e-02  0 
 -9.534922e-04  -2.267290e-02  0 
 9.975251e-04  -2.267290e-02  0 
 2.908154e-03  -2.268496e-02  0 
 4.928225e-03  -2.270276e-02  0 
 -3.005857e-03  -2.766990e-02  0 
 -9.809327e-04  -2.765649e-02  0 
 1.024941e-03  -2.765649e-02  0 
 3.049901e-03  -2.766989e-02  0 
 5.011683e-03  -2.768296e-02  0 
VECTORS displacement_ITER6 FLOAT
 -4.884190e-03  -2.270275e-02  0 
 -4.967657e-03  -2.768294e-02  0 
 -2.864123e-03  -2.268495e-02  0 
 -9.535417e-04  -2.267288e-02  0 
 9.975238e-04  -2.267288e-02  0 
 2.908106e-03  -2.268495e-02  0 
 4.928178e-03  -2.270274e-02  0 
 -3.005879e-03  -2.766986e-02  0 
 -9.809129e-04  -2.765646e-02  0 
 1.024891e-03  -2.765646e-02  0 
 3.049867e-03  -2.766986e-02  0 
 5.011640e-03  -2.768293e-02  0 
VECTORS displacement_ITER7 FLOAT
 -4.884196e-03  -2.270273e-02  0 
 -4.967663e-03  -2.768292e-02  0 
 -2.864126e-03  -2.268493e-02  0 
 -9.535374e-04  -2.267287e-02  0 
 9.975366e-04  -2.267287e-02  0 
 2.908127e-03  -2.268493e-02  0 
 4.928200e-03  -2.270272e-02  0 
 -3.005889e-03  -2.766984e-02  0 
 -9.808979e-04  -2.765644e-02  0 
 1.024899e-03  -2.765644e-02  0 
 3.049889e-03  -2.766984e-02  0 
 5.011664e-03  -2.768292e-02  0 
VECTORS displacement_ITER8 FLOAT
 -4.884195e-03  -2.270273e-02  0 
 -4.967661e-03  -2.768293e-02  0 
 -2.864122e-03  -2.268494e-02  0 
 -9.535392e-04  -2.267287e-02  0 
 9.975378e-04  -2.267287e-02  0 
 2.908123e-03  -2.268493e-02  0 
 4.928197e-03  -2.270273e-02  0 
 -3.005886e-03  -2.766985e-02  0 
 -9.808996e-04  -2.765645e-02  0 
 1.024899e-03  -2.765645e-02  0 
 3.049886e-03  -2.766985e-02  0 
 5.011662e-03  -2.768293e-02  0 
VECTORS displacement_ITER9 FLOAT
 -4.884196e-03  -2.270273e-02  0 
 -4.967662e-03  -2.768293e-02  0 
 -2.864124e-03  -2.268494e-02  0 
 -9.535393e-04  -2.267287e-02  0 
 9.975371e-04  -2.267287e-02  0 
 2.908123e-03  -2.268493e-02  0 
 4.928197e-03  -2.270273e-02  0 
 -3.005887e-03  -2.766985e-02  0 
 -9.808997e-04  -2.765645e-02  0 
 1.024898e-03  -2.765645e-02  0 
 3.049886e-03  -2.766985e-02  0 
 5.011662e-03  -2.768293e-02  0 
VECTORS displacement_ITER10 FLOAT
 -4.884196e-03  -2.270273e-02  0 
 -4.967661e-03  -2.768293e-02  0 
 -2.864123e-03  -2.268494e-02  0 
 -9.535391e-04  -2.267287e-02  0 
 9.975372e-04  -2.267287e-02  0 
 2.908123e-03  -2.268493e-02  0 
 4.928197e-03  -2.270273e-02  0 
 -3.005887e-03  -2.766985e-02  0 
 -9.808997e-04  -2.765645e-02  0 
 1.024898e-03  -2.765645e-02  0 
 3.049886e-03  -2.766985e-02  0 
 5.011662e-03  -2.768293e-02  0 
VECTORS displacement_ITER11 FLOAT
 -4.884196e-03  -2.270273e-02  0 
 -4.967661e-03  -2.768293e-02  0 
 -2.864123e-03  -2.268494e-02  0 
 -9.535391e-04  -2.267287e-02  0 
 9.975372e-04  -2.267287e-02  0 
 2.908123e-03  -2.268493e-02  0 
 4.928197e-03  -2.270273e-02  0 
 -3.005887e-03  -2.766985e-02  0 
 -9.808997e-04  -2.765645e-02  0 
 1.024898e-03  -2.765645e-02  0 
 3.049886e-03  -2.766985e-02  0 
 5.011662e-03  -2.768293e-02  0 
VECTORS displacement_ITER12 FLOAT
 -4.884196e-03  -2.270273e-02  0 
 -4.967661e-03  -2.768293e-02  0 
 -2.864123e-03  -2.268494e-02  0 
 -9.535391e-04  -2.267287e-02  0 
 9.975372e-04  -2.267287e-02  0 
 2.908123e-03  -2.268493e-02  0 
 4.928197e-03  -2.270273e-02  0 
 -3.005887e-03  -2.766985e-02  0 
 -9.808997e-04  -2.765645e-02  0 
 1.024898e-03  -2.765645e-02  0 
 3.049886e-03  -2.766985e-02  0 
 5.011662e-03  -2.768293e-02  0 
CELL_DATA 5
TENSORS element_stresses FLOAT
 -2.220575e-01  -8.072893e-03  0 
 -8.072893e-03  1.057145e-02  0 
 0  0  0 

 -1.648652e-02  -9.966634e-03  0 
 -9.966634e-03  1.419684e-03  0 
 0  0  0 

 1.194213e-06  -5.767104e-02  0 
 -5.767104e-02  1.784460e-06  0 
 0  0  0 

 1.648669e-02  -9.966586e-03  0 
 -9.966586e-03  -1.419113e-03  0 
 0  0  0 

 2.220561e-01  -8.072851e-03  0 
 -8.072851e-03  -1.057109e-02  0 
 0  0  0 

TENSORS element_stresses FLOAT
 -2.220575e-01  -8.072893e-03  0 
 -8.072893e-03  1.057145e-02  0 
 0  0  0 

 -1.648652e-02  -9.966634e-03  0 
 -9.966634e-03  1.419684e-03  0 
 0  0  0 

 1.194213e-06  -5.767104e-02  0 
 -5.767104e-02  1.784460e-06  0 
 0  0  0 

 1.648669e-02  -9.966586e-03  0 
 -9.966586e-03  -1.419113e-03  0 
 0  0  0 

 2.220561e-01  -8.072851e-03  0 
 -8.072851e-03  -1.057109e-02  0 
 0  0  0 

