# vtk DataFile Version 3.1
this is an vtk file created by FEMAC
ASCII
DATASET UNSTRUCTURED_GRID
POINTS 12 FLOAT
0.500000 0.000000 0.000000
1.000000 0.000000 0.000000
0.500000 0.200000 0.000000
0.500000 0.400000 0.000000
0.500000 0.600000 0.000000
0.500000 0.800000 0.000000
0.500000 1.000000 0.000000
1.000000 0.200000 0.000000
1.000000 0.400000 0.000000
1.000000 0.600000 0.000000
1.000000 0.800000 0.000000
1.000000 1.000000 0.000000
CELLS 5 25 
4 0 1 7 2
4 2 7 8 3
4 3 8 9 4
4 4  9 10  5
4 5 10 11  6
CELL_TYPES 5
9 9 9 9 9 
POINT_DATA 12
VECTORS displacement_ITER1 FLOAT
 -4.512655e-04  -1.920355e-04  0 
 -1.922479e-03  -1.456279e-03  0 
 -4.083556e-04  -1.383270e-04  0 
 -5.758425e-05  -1.266948e-04  0 
 1.047606e-04  -1.321104e-04  0 
 4.586787e-04  -1.678870e-04  0 
 3.986640e-04  -2.117829e-04  0 
 -9.466018e-04  -1.416439e-03  0 
 -3.342768e-04  -1.355991e-03  0 
 3.854944e-04  -1.371338e-03  0 
 9.936822e-04  -1.417668e-03  0 
 1.948764e-03  -1.463181e-03  0 
VECTORS displacement_ITER2 FLOAT
 -4.464955e-04  -1.891264e-04  0 
 -1.892669e-03  -1.464939e-03  0 
 -4.120829e-04  -1.422393e-04  0 
 -6.357432e-05  -1.262738e-04  0 
 1.089750e-04  -1.383319e-04  0 
 4.551184e-04  -1.741822e-04  0 
 4.012979e-04  -2.222644e-04  0 
 -9.547027e-04  -1.415876e-03  0 
 -3.386061e-04  -1.359182e-03  0 
 3.882724e-04  -1.363361e-03  0 
 9.947192e-04  -1.410438e-03  0 
 1.928348e-03  -1.465507e-03  0 
VECTORS displacement_ITER3 FLOAT
 -4.471911e-04  -1.912187e-04  0 
 -1.888489e-03  -1.469128e-03  0 
 -4.118522e-04  -1.430309e-04  0 
 -6.269565e-05  -1.264623e-04  0 
 1.093236e-04  -1.385809e-04  0 
 4.553217e-04  -1.739621e-04  0 
 4.005471e-04  -2.211571e-04  0 
 -9.551690e-04  -1.416870e-03  0 
 -3.391834e-04  -1.360634e-03  0 
 3.897803e-04  -1.360742e-03  0 
 9.943490e-04  -1.408401e-03  0 
 1.931814e-03  -1.462331e-03  0 
VECTORS displacement_ITER4 FLOAT
 -4.474936e-04  -1.917366e-04  0 
 -1.888809e-03  -1.469679e-03  0 
 -4.116787e-04  -1.431152e-04  0 
 -6.231396e-05  -1.265709e-04  0 
 1.092549e-04  -1.384277e-04  0 
 4.555287e-04  -1.736982e-04  0 
 4.002876e-04  -2.205561e-04  0 
 -9.549897e-04  -1.417095e-03  0 
 -3.391782e-04  -1.360836e-03  0 
 3.900903e-04  -1.360435e-03  0 
 9.942487e-04  -1.408247e-03  0 
 1.932911e-03  -1.460992e-03  0 
VECTORS displacement_ITER5 FLOAT
 -4.474640e-04  -1.916662e-04  0 
 -1.888883e-03  -1.469706e-03  0 
 -4.116900e-04  -1.431094e-04  0 
 -6.235681e-05  -1.265639e-04  0 
 1.092585e-04  -1.384420e-04  0 
 4.555168e-04  -1.737171e-04  0 
 4.003162e-04  -2.205949e-04  0 
 -9.549968e-04  -1.417067e-03  0 
 -3.391581e-04  -1.360820e-03  0 
 3.900473e-04  -1.360487e-03  0 
 9.942520e-04  -1.408297e-03  0 
 1.932787e-03  -1.460984e-03  0 
VECTORS displacement_ITER6 FLOAT
 -4.474613e-04  -1.916569e-04  0 
 -1.888915e-03  -1.469677e-03  0 
 -4.116897e-04  -1.431037e-04  0 
 -6.235996e-05  -1.265631e-04  0 
 1.092547e-04  -1.384367e-04  0 
 4.555177e-04  -1.737162e-04  0 
 4.003188e-04  -2.205988e-04  0 
 -9.549916e-04  -1.417055e-03  0 
 -3.391587e-04  -1.360804e-03  0 
 3.900428e-04  -1.360503e-03  0 
 9.942560e-04  -1.408307e-03  0 
 1.932765e-03  -1.461005e-03  0 
VECTORS displacement_ITER7 FLOAT
 -4.474631e-04  -1.916597e-04  0 
 -1.888917e-03  -1.469667e-03  0 
 -4.116889e-04  -1.431028e-04  0 
 -6.235731e-05  -1.265634e-04  0 
 1.092537e-04  -1.384348e-04  0 
 4.555185e-04  -1.737146e-04  0 
 4.003173e-04  -2.205964e-04  0 
 -9.549898e-04  -1.417056e-03  0 
 -3.391594e-04  -1.360803e-03  0 
 3.900442e-04  -1.360502e-03  0 
 9.942561e-04  -1.408306e-03  0 
 1.932772e-03  -1.461011e-03  0 
VECTORS displacement_ITER8 FLOAT
 -4.474622e-04  -1.916583e-04  0 
 -1.888914e-03  -1.469668e-03  0 
 -4.116895e-04  -1.431028e-04  0 
 -6.235855e-05  -1.265629e-04  0 
 1.092542e-04  -1.384358e-04  0 
 4.555177e-04  -1.737156e-04  0 
 4.003182e-04  -2.205982e-04  0 
 -9.549907e-04  -1.417056e-03  0 
 -3.391590e-04  -1.360803e-03  0 
 3.900429e-04  -1.360503e-03  0 
 9.942560e-04  -1.408307e-03  0 
 1.932770e-03  -1.461014e-03  0 
VECTORS displacement_ITER9 FLOAT
 -4.474620e-04  -1.916579e-04  0 
 -1.888914e-03  -1.469668e-03  0 
 -4.116897e-04  -1.431028e-04  0 
 -6.235883e-05  -1.265628e-04  0 
 1.092543e-04  -1.384360e-04  0 
 4.555175e-04  -1.737158e-04  0 
 4.003184e-04  -2.205986e-04  0 
 -9.549909e-04  -1.417056e-03  0 
 -3.391589e-04  -1.360804e-03  0 
 3.900425e-04  -1.360503e-03  0 
 9.942560e-04  -1.408307e-03  0 
 1.932769e-03  -1.461014e-03  0 
VECTORS displacement_ITER10 FLOAT
 -4.474620e-04  -1.916579e-04  0 
 -1.888914e-03  -1.469668e-03  0 
 -4.116897e-04  -1.431028e-04  0 
 -6.235880e-05  -1.265629e-04  0 
 1.092543e-04  -1.384360e-04  0 
 4.555175e-04  -1.737158e-04  0 
 4.003184e-04  -2.205985e-04  0 
 -9.549908e-04  -1.417056e-03  0 
 -3.391588e-04  -1.360804e-03  0 
 3.900425e-04  -1.360503e-03  0 
 9.942560e-04  -1.408307e-03  0 
 1.932770e-03  -1.461014e-03  0 
VECTORS displacement_ITER11 FLOAT
 -4.474620e-04  -1.916579e-04  0 
 -1.888914e-03  -1.469668e-03  0 
 -4.116897e-04  -1.431028e-04  0 
 -6.235880e-05  -1.265629e-04  0 
 1.092543e-04  -1.384360e-04  0 
 4.555175e-04  -1.737158e-04  0 
 4.003184e-04  -2.205985e-04  0 
 -9.549909e-04  -1.417056e-03  0 
 -3.391588e-04  -1.360804e-03  0 
 3.900425e-04  -1.360503e-03  0 
 9.942560e-04  -1.408307e-03  0 
 1.932770e-03  -1.461014e-03  0 
VECTORS displacement_ITER12 FLOAT
 -4.474620e-04  -1.916579e-04  0 
 -1.888914e-03  -1.469668e-03  0 
 -4.116897e-04  -1.431028e-04  0 
 -6.235880e-05  -1.265629e-04  0 
 1.092543e-04  -1.384360e-04  0 
 4.555175e-04  -1.737158e-04  0 
 4.003184e-04  -2.205985e-04  0 
 -9.549909e-04  -1.417056e-03  0 
 -3.391588e-04  -1.360804e-03  0 
 3.900425e-04  -1.360503e-03  0 
 9.942560e-04  -1.408307e-03  0 
 1.932770e-03  -1.461014e-03  0 
CELL_DATA 5
TENSORS element_stresses FLOAT
 -2.097668e-01  -9.825004e-03  0 
 -9.825004e-03  -3.763824e-02  0 
 0  0  0 

 -8.412162e-01  -7.329779e-02  0 
 -7.329779e-02  -7.038344e-02  0 
 0  0  0 

 -5.154966e-04  -1.571325e-02  0 
 -1.571325e-02  -3.047729e-03  0 
 0  0  0 

 8.321032e-01  -6.189702e-02  0 
 -6.189702e-02  4.192184e-02  0 
 0  0  0 

 2.193953e-01  -2.051695e-02  0 
 -2.051695e-02  4.092113e-02  0 
 0  0  0 

TENSORS element_stresses FLOAT
 -2.097668e-01  -9.825004e-03  0 
 -9.825004e-03  -3.763824e-02  0 
 0  0  0 

 -8.412162e-01  -7.329779e-02  0 
 -7.329779e-02  -7.038344e-02  0 
 0  0  0 

 -5.154966e-04  -1.571325e-02  0 
 -1.571325e-02  -3.047729e-03  0 
 0  0  0 

 8.321032e-01  -6.189702e-02  0 
 -6.189702e-02  4.192184e-02  0 
 0  0  0 

 2.193953e-01  -2.051695e-02  0 
 -2.051695e-02  4.092113e-02  0 
 0  0  0 

