# vtk DataFile Version 3.1
this is an vtk file created by FEMAC
ASCII
DATASET UNSTRUCTURED_GRID
POINTS 12 FLOAT
6.500000 0.000000 0.000000
7.000000 0.000000 0.000000
6.500000 0.200000 0.000000
6.500000 0.400000 0.000000
6.500000 0.600000 0.000000
6.500000 0.800000 0.000000
6.500000 1.000000 0.000000
7.000000 0.200000 0.000000
7.000000 0.400000 0.000000
7.000000 0.600000 0.000000
7.000000 0.800000 0.000000
7.000000 1.000000 0.000000
CELLS 5 25 
4 0 1 7 2
4 2 7 8 3
4 3 8 9 4
4 4  9 10  5
4 5 10 11  6
CELL_TYPES 5
9 9 9 9 9 
POINT_DATA 12
VECTORS displacement_ITER1 FLOAT
 -5.475904e-03  -4.914827e-02  0 
 -5.516792e-03  -5.466705e-02  0 
 -3.279962e-03  -4.914350e-02  0 
 -1.080208e-03  -4.914065e-02  0 
 1.117831e-03  -4.914087e-02  0 
 3.317354e-03  -4.914361e-02  0 
 5.515104e-03  -4.914930e-02  0 
 -3.298284e-03  -5.466556e-02  0 
 -1.087034e-03  -5.466490e-02  0 
 1.124704e-03  -5.466474e-02  0 
 3.335951e-03  -5.466555e-02  0 
 5.554042e-03  -5.466778e-02  0 
VECTORS displacement_ITER2 FLOAT
 -5.470088e-03  -4.908639e-02  0 
 -5.513762e-03  -5.460603e-02  0 
 -3.277939e-03  -4.908395e-02  0 
 -1.078326e-03  -4.908085e-02  0 
 1.120689e-03  -4.908090e-02  0 
 3.320338e-03  -4.908396e-02  0 
 5.512747e-03  -4.908660e-02  0 
 -3.295652e-03  -5.460471e-02  0 
 -1.084715e-03  -5.460437e-02  0 
 1.127133e-03  -5.460436e-02  0 
 3.338047e-03  -5.460474e-02  0 
 5.556096e-03  -5.460615e-02  0 
VECTORS displacement_ITER3 FLOAT
 -5.473748e-03  -4.909038e-02  0 
 -5.517613e-03  -5.461439e-02  0 
 -3.279925e-03  -4.908812e-02  0 
 -1.078717e-03  -4.908505e-02  0 
 1.122770e-03  -4.908503e-02  0 
 3.324012e-03  -4.908811e-02  0 
 5.517754e-03  -4.909035e-02  0 
 -3.297575e-03  -5.461311e-02  0 
 -1.084906e-03  -5.461277e-02  0 
 1.128978e-03  -5.461278e-02  0 
 3.341633e-03  -5.461311e-02  0 
 5.561680e-03  -5.461438e-02  0 
VECTORS displacement_ITER4 FLOAT
 -5.472278e-03  -4.908824e-02  0 
 -5.516098e-03  -5.461071e-02  0 
 -3.279044e-03  -4.908581e-02  0 
 -1.078411e-03  -4.908275e-02  0 
 1.122448e-03  -4.908275e-02  0 
 3.323089e-03  -4.908581e-02  0 
 5.516282e-03  -4.908821e-02  0 
 -3.296705e-03  -5.460940e-02  0 
 -1.084578e-03  -5.460906e-02  0 
 1.128617e-03  -5.460906e-02  0 
 3.340741e-03  -5.460939e-02  0 
 5.560145e-03  -5.461069e-02  0 
VECTORS displacement_ITER5 FLOAT
 -5.472229e-03  -4.908788e-02  0 
 -5.516000e-03  -5.461025e-02  0 
 -3.278977e-03  -4.908546e-02  0 
 -1.078406e-03  -4.908241e-02  0 
 1.122447e-03  -4.908240e-02  0 
 3.323022e-03  -4.908546e-02  0 
 5.516268e-03  -4.908788e-02  0 
 -3.296648e-03  -5.460894e-02  0 
 -1.084552e-03  -5.460860e-02  0 
 1.128595e-03  -5.460860e-02  0 
 3.340691e-03  -5.460894e-02  0 
 5.560037e-03  -5.461026e-02  0 
VECTORS displacement_ITER6 FLOAT
 -5.472268e-03  -4.908791e-02  0 
 -5.516050e-03  -5.461030e-02  0 
 -3.279025e-03  -4.908550e-02  0 
 -1.078451e-03  -4.908244e-02  0 
 1.122424e-03  -4.908244e-02  0 
 3.323000e-03  -4.908550e-02  0 
 5.516246e-03  -4.908791e-02  0 
 -3.296694e-03  -5.460899e-02  0 
 -1.084587e-03  -5.460865e-02  0 
 1.128562e-03  -5.460865e-02  0 
 3.340669e-03  -5.460899e-02  0 
 5.560021e-03  -5.461031e-02  0 
VECTORS displacement_ITER7 FLOAT
 -5.472270e-03  -4.908793e-02  0 
 -5.516042e-03  -5.461032e-02  0 
 -3.279016e-03  -4.908551e-02  0 
 -1.078442e-03  -4.908245e-02  0 
 1.122443e-03  -4.908245e-02  0 
 3.323016e-03  -4.908551e-02  0 
 5.516270e-03  -4.908793e-02  0 
 -3.296686e-03  -5.460901e-02  0 
 -1.084575e-03  -5.460867e-02  0 
 1.128575e-03  -5.460867e-02  0 
 3.340686e-03  -5.460901e-02  0 
 5.560043e-03  -5.461032e-02  0 
VECTORS displacement_ITER8 FLOAT
 -5.472264e-03  -4.908792e-02  0 
 -5.516037e-03  -5.461032e-02  0 
 -3.279013e-03  -4.908550e-02  0 
 -1.078441e-03  -4.908245e-02  0 
 1.122441e-03  -4.908245e-02  0 
 3.323013e-03  -4.908550e-02  0 
 5.516264e-03  -4.908792e-02  0 
 -3.296683e-03  -5.460900e-02  0 
 -1.084573e-03  -5.460866e-02  0 
 1.128573e-03  -5.460866e-02  0 
 3.340683e-03  -5.460900e-02  0 
 5.560037e-03  -5.461032e-02  0 
VECTORS displacement_ITER9 FLOAT
 -5.472264e-03  -4.908792e-02  0 
 -5.516038e-03  -5.461031e-02  0 
 -3.279014e-03  -4.908550e-02  0 
 -1.078442e-03  -4.908245e-02  0 
 1.122441e-03  -4.908245e-02  0 
 3.323012e-03  -4.908550e-02  0 
 5.516263e-03  -4.908792e-02  0 
 -3.296684e-03  -5.460900e-02  0 
 -1.084574e-03  -5.460866e-02  0 
 1.128573e-03  -5.460866e-02  0 
 3.340682e-03  -5.460900e-02  0 
 5.560037e-03  -5.461031e-02  0 
VECTORS displacement_ITER10 FLOAT
 -5.472264e-03  -4.908792e-02  0 
 -5.516038e-03  -5.461031e-02  0 
 -3.279014e-03  -4.908550e-02  0 
 -1.078442e-03  -4.908245e-02  0 
 1.122441e-03  -4.908245e-02  0 
 3.323013e-03  -4.908550e-02  0 
 5.516263e-03  -4.908792e-02  0 
 -3.296684e-03  -5.460900e-02  0 
 -1.084574e-03  -5.460866e-02  0 
 1.128573e-03  -5.460866e-02  0 
 3.340683e-03  -5.460900e-02  0 
 5.560037e-03  -5.461031e-02  0 
VECTORS displacement_ITER11 FLOAT
 -5.472264e-03  -4.908792e-02  0 
 -5.516038e-03  -5.461031e-02  0 
 -3.279014e-03  -4.908550e-02  0 
 -1.078442e-03  -4.908245e-02  0 
 1.122441e-03  -4.908245e-02  0 
 3.323013e-03  -4.908550e-02  0 
 5.516263e-03  -4.908792e-02  0 
 -3.296684e-03  -5.460900e-02  0 
 -1.084574e-03  -5.460866e-02  0 
 1.128573e-03  -5.460866e-02  0 
 3.340683e-03  -5.460900e-02  0 
 5.560037e-03  -5.461031e-02  0 
VECTORS displacement_ITER12 FLOAT
 -5.472264e-03  -4.908792e-02  0 
 -5.516038e-03  -5.461031e-02  0 
 -3.279014e-03  -4.908550e-02  0 
 -1.078442e-03  -4.908245e-02  0 
 1.122441e-03  -4.908245e-02  0 
 3.323013e-03  -4.908550e-02  0 
 5.516263e-03  -4.908792e-02  0 
 -3.296684e-03  -5.460900e-02  0 
 -1.084574e-03  -5.460866e-02  0 
 1.128573e-03  -5.460866e-02  0 
 3.340683e-03  -5.460900e-02  0 
 5.560037e-03  -5.461031e-02  0 
CELL_DATA 5
TENSORS element_stresses FLOAT
 -6.444636e-03  -1.106009e-03  0 
 -1.106009e-03  -1.000983e-03  0 
 0  0  0 

 -2.336027e-02  -1.385164e-02  0 
 -1.385164e-02  1.472325e-03  0 
 0  0  0 

 -8.384404e-12  -1.334702e-03  0 
 -1.334702e-03  -1.158860e-09  0 
 0  0  0 

 2.336028e-02  -1.385164e-02  0 
 -1.385164e-02  -1.472326e-03  0 
 0  0  0 

 6.444634e-03  -1.106008e-03  0 
 -1.106008e-03  1.000982e-03  0 
 0  0  0 

TENSORS element_stresses FLOAT
 -6.444636e-03  -1.106009e-03  0 
 -1.106009e-03  -1.000983e-03  0 
 0  0  0 

 -2.336027e-02  -1.385164e-02  0 
 -1.385164e-02  1.472325e-03  0 
 0  0  0 

 -8.384404e-12  -1.334702e-03  0 
 -1.334702e-03  -1.158860e-09  0 
 0  0  0 

 2.336028e-02  -1.385164e-02  0 
 -1.385164e-02  -1.472326e-03  0 
 0  0  0 

 6.444634e-03  -1.106008e-03  0 
 -1.106008e-03  1.000982e-03  0 
 0  0  0 

