# vtk DataFile Version 3.1
this is an vtk file created by FEMAC
ASCII
DATASET UNSTRUCTURED_GRID
POINTS 12 FLOAT
5.000000 0.000000 0.000000
5.500000 0.000000 0.000000
5.000000 0.200000 0.000000
5.000000 0.400000 0.000000
5.000000 0.600000 0.000000
5.000000 0.800000 0.000000
5.000000 1.000000 0.000000
5.500000 0.200000 0.000000
5.500000 0.400000 0.000000
5.500000 0.600000 0.000000
5.500000 0.800000 0.000000
5.500000 1.000000 0.000000
CELLS 5 25 
4 0 1 7 2
4 2 7 8 3
4 3 8 9 4
4 4  9 10  5
4 5 10 11  6
CELL_TYPES 5
9 9 9 9 9 
POINT_DATA 12
VECTORS displacement_ITER1 FLOAT
 -5.271681e-03  -3.290119e-02  0 
 -5.316068e-03  -3.823303e-02  0 
 -3.124256e-03  -3.289043e-02  0 
 -1.034600e-03  -3.288508e-02  0 
 1.071602e-03  -3.288513e-02  0 
 3.163387e-03  -3.289070e-02  0 
 5.309974e-03  -3.290169e-02  0 
 -3.199987e-03  -3.822764e-02  0 
 -1.051409e-03  -3.822021e-02  0 
 1.088993e-03  -3.822028e-02  0 
 3.238313e-03  -3.822774e-02  0 
 5.354791e-03  -3.823301e-02  0 
VECTORS displacement_ITER2 FLOAT
 -5.264096e-03  -3.284274e-02  0 
 -5.308882e-03  -3.817542e-02  0 
 -3.116317e-03  -3.283286e-02  0 
 -1.032133e-03  -3.282652e-02  0 
 1.074855e-03  -3.282652e-02  0 
 3.158687e-03  -3.283295e-02  0 
 5.306154e-03  -3.284307e-02  0 
 -3.192146e-03  -3.816863e-02  0 
 -1.048392e-03  -3.816143e-02  0 
 1.090707e-03  -3.816139e-02  0 
 3.234676e-03  -3.816851e-02  0 
 5.351297e-03  -3.817521e-02  0 
VECTORS displacement_ITER3 FLOAT
 -5.267452e-03  -3.283660e-02  0 
 -5.312465e-03  -3.817201e-02  0 
 -3.118563e-03  -3.282648e-02  0 
 -1.032135e-03  -3.282019e-02  0 
 1.076180e-03  -3.282023e-02  0 
 3.162709e-03  -3.282659e-02  0 
 5.311472e-03  -3.283672e-02  0 
 -3.194715e-03  -3.816532e-02  0 
 -1.047804e-03  -3.815799e-02  0 
 1.091958e-03  -3.815795e-02  0 
 3.238745e-03  -3.816534e-02  0 
 5.356492e-03  -3.817200e-02  0 
VECTORS displacement_ITER4 FLOAT
 -5.266071e-03  -3.283792e-02  0 
 -5.311075e-03  -3.817230e-02  0 
 -3.117548e-03  -3.282781e-02  0 
 -1.032080e-03  -3.282148e-02  0 
 1.076133e-03  -3.282148e-02  0 
 3.161579e-03  -3.282782e-02  0 
 5.310109e-03  -3.283792e-02  0 
 -3.193783e-03  -3.816563e-02  0 
 -1.047626e-03  -3.815832e-02  0 
 1.091658e-03  -3.815831e-02  0 
 3.237837e-03  -3.816561e-02  0 
 5.355100e-03  -3.817228e-02  0 
VECTORS displacement_ITER5 FLOAT
 -5.266028e-03  -3.283799e-02  0 
 -5.311041e-03  -3.817218e-02  0 
 -3.117574e-03  -3.282786e-02  0 
 -1.032076e-03  -3.282153e-02  0 
 1.076117e-03  -3.282153e-02  0 
 3.161618e-03  -3.282787e-02  0 
 5.310067e-03  -3.283800e-02  0 
 -3.193834e-03  -3.816552e-02  0 
 -1.047554e-03  -3.815820e-02  0 
 1.091598e-03  -3.815820e-02  0 
 3.237876e-03  -3.816552e-02  0 
 5.355079e-03  -3.817218e-02  0 
VECTORS displacement_ITER6 FLOAT
 -5.266061e-03  -3.283792e-02  0 
 -5.311081e-03  -3.817215e-02  0 
 -3.117599e-03  -3.282780e-02  0 
 -1.032122e-03  -3.282146e-02  0 
 1.076099e-03  -3.282146e-02  0 
 3.161576e-03  -3.282780e-02  0 
 5.310037e-03  -3.283792e-02  0 
 -3.193858e-03  -3.816548e-02  0 
 -1.047582e-03  -3.815816e-02  0 
 1.091562e-03  -3.815816e-02  0 
 3.237835e-03  -3.816548e-02  0 
 5.355057e-03  -3.817215e-02  0 
VECTORS displacement_ITER7 FLOAT
 -5.266058e-03  -3.283792e-02  0 
 -5.311079e-03  -3.817215e-02  0 
 -3.117589e-03  -3.282780e-02  0 
 -1.032119e-03  -3.282146e-02  0 
 1.076118e-03  -3.282146e-02  0 
 3.161589e-03  -3.282780e-02  0 
 5.310057e-03  -3.283792e-02  0 
 -3.193854e-03  -3.816549e-02  0 
 -1.047570e-03  -3.815817e-02  0 
 1.091570e-03  -3.815817e-02  0 
 3.237854e-03  -3.816549e-02  0 
 5.355079e-03  -3.817216e-02  0 
VECTORS displacement_ITER8 FLOAT
 -5.266054e-03  -3.283793e-02  0 
 -5.311075e-03  -3.817216e-02  0 
 -3.117587e-03  -3.282781e-02  0 
 -1.032119e-03  -3.282147e-02  0 
 1.076119e-03  -3.282147e-02  0 
 3.161587e-03  -3.282781e-02  0 
 5.310054e-03  -3.283793e-02  0 
 -3.193854e-03  -3.816550e-02  0 
 -1.047568e-03  -3.815818e-02  0 
 1.091568e-03  -3.815818e-02  0 
 3.237854e-03  -3.816550e-02  0 
 5.355075e-03  -3.817216e-02  0 
VECTORS displacement_ITER9 FLOAT
 -5.266055e-03  -3.283793e-02  0 
 -5.311076e-03  -3.817216e-02  0 
 -3.117588e-03  -3.282781e-02  0 
 -1.032119e-03  -3.282147e-02  0 
 1.076118e-03  -3.282147e-02  0 
 3.161586e-03  -3.282781e-02  0 
 5.310054e-03  -3.283793e-02  0 
 -3.193854e-03  -3.816550e-02  0 
 -1.047569e-03  -3.815818e-02  0 
 1.091568e-03  -3.815818e-02  0 
 3.237853e-03  -3.816550e-02  0 
 5.355074e-03  -3.817216e-02  0 
VECTORS displacement_ITER10 FLOAT
 -5.266055e-03  -3.283793e-02  0 
 -5.311076e-03  -3.817216e-02  0 
 -3.117587e-03  -3.282781e-02  0 
 -1.032119e-03  -3.282147e-02  0 
 1.076119e-03  -3.282147e-02  0 
 3.161586e-03  -3.282781e-02  0 
 5.310054e-03  -3.283793e-02  0 
 -3.193854e-03  -3.816550e-02  0 
 -1.047569e-03  -3.815818e-02  0 
 1.091568e-03  -3.815818e-02  0 
 3.237853e-03  -3.816550e-02  0 
 5.355075e-03  -3.817216e-02  0 
VECTORS displacement_ITER11 FLOAT
 -5.266055e-03  -3.283793e-02  0 
 -5.311076e-03  -3.817216e-02  0 
 -3.117588e-03  -3.282781e-02  0 
 -1.032119e-03  -3.282147e-02  0 
 1.076118e-03  -3.282147e-02  0 
 3.161586e-03  -3.282781e-02  0 
 5.310054e-03  -3.283793e-02  0 
 -3.193854e-03  -3.816550e-02  0 
 -1.047569e-03  -3.815818e-02  0 
 1.091568e-03  -3.815818e-02  0 
 3.237853e-03  -3.816550e-02  0 
 5.355075e-03  -3.817216e-02  0 
VECTORS displacement_ITER12 FLOAT
 -5.266055e-03  -3.283793e-02  0 
 -5.311076e-03  -3.817216e-02  0 
 -3.117588e-03  -3.282781e-02  0 
 -1.032119e-03  -3.282147e-02  0 
 1.076118e-03  -3.282147e-02  0 
 3.161586e-03  -3.282781e-02  0 
 5.310054e-03  -3.283793e-02  0 
 -3.193854e-03  -3.816550e-02  0 
 -1.047569e-03  -3.815818e-02  0 
 1.091568e-03  -3.815818e-02  0 
 3.237853e-03  -3.816550e-02  0 
 5.355075e-03  -3.817216e-02  0 
CELL_DATA 5
TENSORS element_stresses FLOAT
 -1.194458e-01  -5.920150e-03  0 
 -5.920150e-03  6.139548e-03  0 
 0  0  0 

 -8.953095e-03  -7.308740e-03  0 
 -7.308740e-03  7.283728e-04  0 
 0  0  0 

 -1.180369e-07  -4.229220e-02  0 
 -4.229220e-02  -1.526300e-07  0 
 0  0  0 

 8.953082e-03  -7.308750e-03  0 
 -7.308750e-03  -7.284156e-04  0 
 0  0  0 

 1.194459e-01  -5.920161e-03  0 
 -5.920161e-03  -6.139575e-03  0 
 0  0  0 

TENSORS element_stresses FLOAT
 -1.194458e-01  -5.920150e-03  0 
 -5.920150e-03  6.139548e-03  0 
 0  0  0 

 -8.953095e-03  -7.308740e-03  0 
 -7.308740e-03  7.283728e-04  0 
 0  0  0 

 -1.180369e-07  -4.229220e-02  0 
 -4.229220e-02  -1.526300e-07  0 
 0  0  0 

 8.953082e-03  -7.308750e-03  0 
 -7.308750e-03  -7.284156e-04  0 
 0  0  0 

 1.194459e-01  -5.920161e-03  0 
 -5.920161e-03  -6.139575e-03  0 
 0  0  0 

