# vtk DataFile Version 3.1
this is an vtk file created by FEMAC
ASCII
DATASET UNSTRUCTURED_GRID
POINTS 12 FLOAT
5.500000 0.000000 0.000000
6.000000 0.000000 0.000000
5.500000 0.200000 0.000000
5.500000 0.400000 0.000000
5.500000 0.600000 0.000000
5.500000 0.800000 0.000000
5.500000 1.000000 0.000000
6.000000 0.200000 0.000000
6.000000 0.400000 0.000000
6.000000 0.600000 0.000000
6.000000 0.800000 0.000000
6.000000 1.000000 0.000000
CELLS 5 25 
4 0 1 7 2
4 2 7 8 3
4 3 8 9 4
4 4  9 10  5
4 5 10 11  6
CELL_TYPES 5
9 9 9 9 9 
POINT_DATA 12
VECTORS displacement_ITER1 FLOAT
 -5.319831e-03  -3.823693e-02  0 
 -5.457090e-03  -4.364919e-02  0 
 -3.195537e-03  -3.822524e-02  0 
 -1.048331e-03  -3.821855e-02  0 
 1.087018e-03  -3.821868e-02  0 
 3.234050e-03  -3.822548e-02  0 
 5.357266e-03  -3.823703e-02  0 
 -3.250750e-03  -4.364554e-02  0 
 -1.073813e-03  -4.364220e-02  0 
 1.112387e-03  -4.364225e-02  0 
 3.289455e-03  -4.364550e-02  0 
 5.494261e-03  -4.364970e-02  0 
VECTORS displacement_ITER2 FLOAT
 -5.308643e-03  -3.817531e-02  0 
 -5.451532e-03  -4.358891e-02  0 
 -3.193161e-03  -3.816864e-02  0 
 -1.047102e-03  -3.816119e-02  0 
 1.089727e-03  -3.816126e-02  0 
 3.235632e-03  -3.816872e-02  0 
 5.350807e-03  -3.817547e-02  0 
 -3.247317e-03  -4.358417e-02  0 
 -1.071592e-03  -4.358175e-02  0 
 1.114135e-03  -4.358179e-02  0 
 3.289824e-03  -4.358416e-02  0 
 5.493945e-03  -4.358883e-02  0 
VECTORS displacement_ITER3 FLOAT
 -5.312361e-03  -3.817178e-02  0 
 -5.455327e-03  -4.358900e-02  0 
 -3.194780e-03  -3.816540e-02  0 
 -1.047915e-03  -3.815801e-02  0 
 1.091943e-03  -3.815810e-02  0 
 3.238842e-03  -3.816544e-02  0 
 5.356480e-03  -3.817189e-02  0 
 -3.248993e-03  -4.358428e-02  0 
 -1.071759e-03  -4.358189e-02  0 
 1.115832e-03  -4.358190e-02  0 
 3.293018e-03  -4.358432e-02  0 
 5.499374e-03  -4.358906e-02  0 
VECTORS displacement_ITER4 FLOAT
 -5.311055e-03  -3.817229e-02  0 
 -5.453896e-03  -4.358802e-02  0 
 -3.193855e-03  -3.816561e-02  0 
 -1.047451e-03  -3.815829e-02  0 
 1.091476e-03  -3.815830e-02  0 
 3.237865e-03  -3.816562e-02  0 
 5.355131e-03  -3.817232e-02  0 
 -3.248078e-03  -4.358343e-02  0 
 -1.071221e-03  -4.358100e-02  0 
 1.115245e-03  -4.358099e-02  0 
 3.292094e-03  -4.358343e-02  0 
 5.497937e-03  -4.358803e-02  0 
VECTORS displacement_ITER5 FLOAT
 -5.311058e-03  -3.817220e-02  0 
 -5.453825e-03  -4.358780e-02  0 
 -3.193812e-03  -3.816551e-02  0 
 -1.047522e-03  -3.815819e-02  0 
 1.091562e-03  -3.815819e-02  0 
 3.237854e-03  -3.816551e-02  0 
 5.355101e-03  -3.817220e-02  0 
 -3.248052e-03  -4.358318e-02  0 
 -1.071227e-03  -4.358075e-02  0 
 1.115268e-03  -4.358075e-02  0 
 3.292092e-03  -4.358318e-02  0 
 5.497868e-03  -4.358780e-02  0 
VECTORS displacement_ITER6 FLOAT
 -5.311076e-03  -3.817214e-02  0 
 -5.453863e-03  -4.358779e-02  0 
 -3.193866e-03  -3.816548e-02  0 
 -1.047577e-03  -3.815816e-02  0 
 1.091553e-03  -3.815816e-02  0 
 3.237844e-03  -3.816549e-02  0 
 5.355055e-03  -3.817214e-02  0 
 -3.248103e-03  -4.358317e-02  0 
 -1.071255e-03  -4.358074e-02  0 
 1.115233e-03  -4.358074e-02  0 
 3.292079e-03  -4.358317e-02  0 
 5.497837e-03  -4.358779e-02  0 
VECTORS displacement_ITER7 FLOAT
 -5.311077e-03  -3.817215e-02  0 
 -5.453863e-03  -4.358780e-02  0 
 -3.193858e-03  -3.816549e-02  0 
 -1.047568e-03  -3.815817e-02  0 
 1.091569e-03  -3.815817e-02  0 
 3.237858e-03  -3.816549e-02  0 
 5.355076e-03  -3.817215e-02  0 
 -3.248094e-03  -4.358318e-02  0 
 -1.071242e-03  -4.358075e-02  0 
 1.115243e-03  -4.358075e-02  0 
 3.292094e-03  -4.358318e-02  0 
 5.497864e-03  -4.358780e-02  0 
VECTORS displacement_ITER8 FLOAT
 -5.311075e-03  -3.817216e-02  0 
 -5.453858e-03  -4.358780e-02  0 
 -3.193854e-03  -3.816550e-02  0 
 -1.047568e-03  -3.815818e-02  0 
 1.091568e-03  -3.815818e-02  0 
 3.237854e-03  -3.816550e-02  0 
 5.355075e-03  -3.817216e-02  0 
 -3.248091e-03  -4.358318e-02  0 
 -1.071240e-03  -4.358075e-02  0 
 1.115240e-03  -4.358075e-02  0 
 3.292091e-03  -4.358318e-02  0 
 5.497858e-03  -4.358780e-02  0 
VECTORS displacement_ITER9 FLOAT
 -5.311076e-03  -3.817216e-02  0 
 -5.453858e-03  -4.358780e-02  0 
 -3.193854e-03  -3.816550e-02  0 
 -1.047569e-03  -3.815818e-02  0 
 1.091567e-03  -3.815818e-02  0 
 3.237853e-03  -3.816550e-02  0 
 5.355075e-03  -3.817216e-02  0 
 -3.248091e-03  -4.358318e-02  0 
 -1.071240e-03  -4.358075e-02  0 
 1.115239e-03  -4.358075e-02  0 
 3.292090e-03  -4.358318e-02  0 
 5.497857e-03  -4.358780e-02  0 
VECTORS displacement_ITER10 FLOAT
 -5.311076e-03  -3.817216e-02  0 
 -5.453858e-03  -4.358780e-02  0 
 -3.193854e-03  -3.816550e-02  0 
 -1.047569e-03  -3.815818e-02  0 
 1.091568e-03  -3.815818e-02  0 
 3.237853e-03  -3.816550e-02  0 
 5.355075e-03  -3.817216e-02  0 
 -3.248091e-03  -4.358318e-02  0 
 -1.071240e-03  -4.358075e-02  0 
 1.115239e-03  -4.358075e-02  0 
 3.292090e-03  -4.358318e-02  0 
 5.497857e-03  -4.358780e-02  0 
VECTORS displacement_ITER11 FLOAT
 -5.311076e-03  -3.817216e-02  0 
 -5.453858e-03  -4.358780e-02  0 
 -3.193854e-03  -3.816550e-02  0 
 -1.047569e-03  -3.815818e-02  0 
 1.091568e-03  -3.815818e-02  0 
 3.237853e-03  -3.816550e-02  0 
 5.355075e-03  -3.817216e-02  0 
 -3.248091e-03  -4.358318e-02  0 
 -1.071240e-03  -4.358075e-02  0 
 1.115239e-03  -4.358075e-02  0 
 3.292090e-03  -4.358318e-02  0 
 5.497857e-03  -4.358780e-02  0 
VECTORS displacement_ITER12 FLOAT
 -5.311076e-03  -3.817216e-02  0 
 -5.453858e-03  -4.358780e-02  0 
 -3.193854e-03  -3.816550e-02  0 
 -1.047569e-03  -3.815818e-02  0 
 1.091568e-03  -3.815818e-02  0 
 3.237853e-03  -3.816550e-02  0 
 5.355075e-03  -3.817216e-02  0 
 -3.248091e-03  -4.358318e-02  0 
 -1.071240e-03  -4.358075e-02  0 
 1.115239e-03  -4.358075e-02  0 
 3.292090e-03  -4.358318e-02  0 
 5.497857e-03  -4.358780e-02  0 
CELL_DATA 5
TENSORS element_stresses FLOAT
 -2.072046e-02  -1.989102e-03  0 
 -1.989102e-03  -3.395048e-03  0 
 0  0  0 

 -7.757865e-02  -2.493924e-02  0 
 -2.493924e-02  1.099699e-03  0 
 0  0  0 

 -3.620739e-10  -2.393239e-03  0 
 -2.393239e-03  1.043786e-08  0 
 0  0  0 

 7.757863e-02  -2.493930e-02  0 
 -2.493930e-02  -1.099681e-03  0 
 0  0  0 

 2.072048e-02  -1.989124e-03  0 
 -1.989124e-03  3.395053e-03  0 
 0  0  0 

TENSORS element_stresses FLOAT
 -2.072046e-02  -1.989102e-03  0 
 -1.989102e-03  -3.395048e-03  0 
 0  0  0 

 -7.757865e-02  -2.493924e-02  0 
 -2.493924e-02  1.099699e-03  0 
 0  0  0 

 -3.620739e-10  -2.393239e-03  0 
 -2.393239e-03  1.043786e-08  0 
 0  0  0 

 7.757863e-02  -2.493930e-02  0 
 -2.493930e-02  -1.099681e-03  0 
 0  0  0 

 2.072048e-02  -1.989124e-03  0 
 -1.989124e-03  3.395053e-03  0 
 0  0  0 

