# vtk DataFile Version 3.1
this is an vtk file created by FEMAC
ASCII
DATASET UNSTRUCTURED_GRID
POINTS 12 FLOAT
2.000000 0.000000 0.000000
2.500000 0.000000 0.000000
2.000000 0.200000 0.000000
2.000000 0.400000 0.000000
2.000000 0.600000 0.000000
2.000000 0.800000 0.000000
2.000000 1.000000 0.000000
2.500000 0.200000 0.000000
2.500000 0.400000 0.000000
2.500000 0.600000 0.000000
2.500000 0.800000 0.000000
2.500000 1.000000 0.000000
CELLS 5 25 
4 0 1 7 2
4 2 7 8 3
4 3 8 9 4
4 4  9 10  5
4 5 10 11  6
CELL_TYPES 5
9 9 9 9 9 
POINT_DATA 12
VECTORS displacement_ITER1 FLOAT
 -3.290940e-03  -6.331377e-03  0 
 -3.487398e-03  -9.775031e-03  0 
 -1.847266e-03  -6.286852e-03  0 
 -6.283175e-04  -6.259761e-03  0 
 6.662250e-04  -6.261629e-03  0 
 1.884686e-03  -6.288033e-03  0 
 3.332871e-03  -6.326953e-03  0 
 -2.178830e-03  -9.747850e-03  0 
 -6.928078e-04  -9.716860e-03  0 
 7.332618e-04  -9.716540e-03  0 
 2.216853e-03  -9.748615e-03  0 
 3.525610e-03  -9.779473e-03  0 
VECTORS displacement_ITER2 FLOAT
 -3.265054e-03  -6.334168e-03  0 
 -3.461460e-03  -9.771860e-03  0 
 -1.822552e-03  -6.293922e-03  0 
 -6.271263e-04  -6.264747e-03  0 
 6.669283e-04  -6.264866e-03  0 
 1.863374e-03  -6.293928e-03  0 
 3.307331e-03  -6.332508e-03  0 
 -2.156831e-03  -9.739938e-03  0 
 -6.878449e-04  -9.709454e-03  0 
 7.298164e-04  -9.709580e-03  0 
 2.196809e-03  -9.740573e-03  0 
 3.502132e-03  -9.773679e-03  0 
VECTORS displacement_ITER3 FLOAT
 -3.264316e-03  -6.327717e-03  0 
 -3.460323e-03  -9.760986e-03  0 
 -1.824230e-03  -6.287998e-03  0 
 -6.233164e-04  -6.259474e-03  0 
 6.672207e-04  -6.259123e-03  0 
 1.868423e-03  -6.287700e-03  0 
 3.308891e-03  -6.327410e-03  0 
 -2.157442e-03  -9.728723e-03  0 
 -6.851562e-04  -9.697657e-03  0 
 7.291570e-04  -9.697835e-03  0 
 2.201673e-03  -9.728915e-03  0 
 3.504682e-03  -9.761261e-03  0 
VECTORS displacement_ITER4 FLOAT
 -3.264496e-03  -6.327916e-03  0 
 -3.460412e-03  -9.762455e-03  0 
 -1.823814e-03  -6.288376e-03  0 
 -6.234661e-04  -6.259727e-03  0 
 6.673334e-04  -6.259561e-03  0 
 1.868173e-03  -6.288116e-03  0 
 3.308828e-03  -6.327743e-03  0 
 -2.157087e-03  -9.729965e-03  0 
 -6.854082e-04  -9.698969e-03  0 
 7.295033e-04  -9.699052e-03  0 
 2.201205e-03  -9.730005e-03  0 
 3.504673e-03  -9.762389e-03  0 
VECTORS displacement_ITER5 FLOAT
 -3.264678e-03  -6.328357e-03  0 
 -3.460569e-03  -9.762833e-03  0 
 -1.823960e-03  -6.288756e-03  0 
 -6.235547e-04  -6.260099e-03  0 
 6.673054e-04  -6.259999e-03  0 
 1.868240e-03  -6.288551e-03  0 
 3.308900e-03  -6.328179e-03  0 
 -2.157302e-03  -9.730398e-03  0 
 -6.854311e-04  -9.699388e-03  0 
 7.293958e-04  -9.699436e-03  0 
 2.201334e-03  -9.730419e-03  0 
 3.504761e-03  -9.762803e-03  0 
VECTORS displacement_ITER6 FLOAT
 -3.264685e-03  -6.328362e-03  0 
 -3.460578e-03  -9.762819e-03  0 
 -1.823969e-03  -6.288756e-03  0 
 -6.235668e-04  -6.260100e-03  0 
 6.673006e-04  -6.260007e-03  0 
 1.868232e-03  -6.288558e-03  0 
 3.308894e-03  -6.328178e-03  0 
 -2.157320e-03  -9.730390e-03  0 
 -6.854276e-04  -9.699384e-03  0 
 7.293784e-04  -9.699428e-03  0 
 2.201336e-03  -9.730407e-03  0 
 3.504752e-03  -9.762796e-03  0 
VECTORS displacement_ITER7 FLOAT
 -3.264675e-03  -6.328346e-03  0 
 -3.460571e-03  -9.762812e-03  0 
 -1.823959e-03  -6.288743e-03  0 
 -6.235682e-04  -6.260088e-03  0 
 6.673057e-04  -6.259990e-03  0 
 1.868224e-03  -6.288543e-03  0 
 3.308892e-03  -6.328161e-03  0 
 -2.157309e-03  -9.730379e-03  0 
 -6.854244e-04  -9.699372e-03  0 
 7.293793e-04  -9.699419e-03  0 
 2.201331e-03  -9.730398e-03  0 
 3.504749e-03  -9.762790e-03  0 
VECTORS displacement_ITER8 FLOAT
 -3.264676e-03  -6.328346e-03  0 
 -3.460572e-03  -9.762811e-03  0 
 -1.823960e-03  -6.288744e-03  0 
 -6.235675e-04  -6.260088e-03  0 
 6.673064e-04  -6.259989e-03  0 
 1.868226e-03  -6.288542e-03  0 
 3.308893e-03  -6.328162e-03  0 
 -2.157310e-03  -9.730378e-03  0 
 -6.854235e-04  -9.699371e-03  0 
 7.293794e-04  -9.699418e-03  0 
 2.201333e-03  -9.730397e-03  0 
 3.504751e-03  -9.762788e-03  0 
VECTORS displacement_ITER9 FLOAT
 -3.264676e-03  -6.328347e-03  0 
 -3.460572e-03  -9.762811e-03  0 
 -1.823960e-03  -6.288744e-03  0 
 -6.235677e-04  -6.260089e-03  0 
 6.673064e-04  -6.259990e-03  0 
 1.868226e-03  -6.288542e-03  0 
 3.308893e-03  -6.328162e-03  0 
 -2.157310e-03  -9.730379e-03  0 
 -6.854236e-04  -9.699371e-03  0 
 7.293793e-04  -9.699418e-03  0 
 2.201333e-03  -9.730398e-03  0 
 3.504751e-03  -9.762788e-03  0 
VECTORS displacement_ITER10 FLOAT
 -3.264676e-03  -6.328347e-03  0 
 -3.460572e-03  -9.762811e-03  0 
 -1.823960e-03  -6.288744e-03  0 
 -6.235678e-04  -6.260089e-03  0 
 6.673065e-04  -6.259990e-03  0 
 1.868226e-03  -6.288542e-03  0 
 3.308893e-03  -6.328162e-03  0 
 -2.157310e-03  -9.730378e-03  0 
 -6.854236e-04  -9.699371e-03  0 
 7.293793e-04  -9.699418e-03  0 
 2.201333e-03  -9.730398e-03  0 
 3.504751e-03  -9.762788e-03  0 
VECTORS displacement_ITER11 FLOAT
 -3.264676e-03  -6.328347e-03  0 
 -3.460572e-03  -9.762811e-03  0 
 -1.823960e-03  -6.288744e-03  0 
 -6.235678e-04  -6.260089e-03  0 
 6.673065e-04  -6.259990e-03  0 
 1.868226e-03  -6.288542e-03  0 
 3.308893e-03  -6.328162e-03  0 
 -2.157310e-03  -9.730379e-03  0 
 -6.854235e-04  -9.699371e-03  0 
 7.293792e-04  -9.699418e-03  0 
 2.201333e-03  -9.730398e-03  0 
 3.504751e-03  -9.762788e-03  0 
VECTORS displacement_ITER12 FLOAT
 -3.264676e-03  -6.328347e-03  0 
 -3.460572e-03  -9.762811e-03  0 
 -1.823960e-03  -6.288744e-03  0 
 -6.235678e-04  -6.260089e-03  0 
 6.673065e-04  -6.259990e-03  0 
 1.868226e-03  -6.288542e-03  0 
 3.308893e-03  -6.328162e-03  0 
 -2.157310e-03  -9.730379e-03  0 
 -6.854235e-04  -9.699371e-03  0 
 7.293792e-04  -9.699418e-03  0 
 2.201333e-03  -9.730398e-03  0 
 3.504751e-03  -9.762788e-03  0 
CELL_DATA 5
TENSORS element_stresses FLOAT
 -5.222196e-01  -1.242661e-02  0 
 -1.242661e-02  2.342302e-02  0 
 0  0  0 

 -3.851196e-02  -1.540146e-02  0 
 -1.540146e-02  3.362017e-03  0 
 0  0  0 

 2.814555e-04  -8.809124e-02  0 
 -8.809124e-02  2.148383e-04  0 
 0  0  0 

 3.851984e-02  -1.531547e-02  0 
 -1.531547e-02  -3.327080e-03  0 
 0  0  0 

 5.219303e-01  -1.251523e-02  0 
 -1.251523e-02  -2.344679e-02  0 
 0  0  0 

TENSORS element_stresses FLOAT
 -5.222196e-01  -1.242661e-02  0 
 -1.242661e-02  2.342302e-02  0 
 0  0  0 

 -3.851196e-02  -1.540146e-02  0 
 -1.540146e-02  3.362017e-03  0 
 0  0  0 

 2.814555e-04  -8.809124e-02  0 
 -8.809124e-02  2.148383e-04  0 
 0  0  0 

 3.851984e-02  -1.531547e-02  0 
 -1.531547e-02  -3.327080e-03  0 
 0  0  0 

 5.219303e-01  -1.251523e-02  0 
 -1.251523e-02  -2.344679e-02  0 
 0  0  0 

