# vtk DataFile Version 3.1
this is an vtk file created by FEMAC
ASCII
DATASET UNSTRUCTURED_GRID
POINTS 100 FLOAT
0.000000 5.000000 0.000000
1.000000 5.000000 0.000000
0.000000 6.000000 0.000000
1.000000 6.000000 0.000000
0.111111 5.000000 0.000000
0.222222 5.000000 0.000000
0.333333 5.000000 0.000000
0.444444 5.000000 0.000000
0.555556 5.000000 0.000000
0.666667 5.000000 0.000000
0.777778 5.000000 0.000000
0.888889 5.000000 0.000000
0.111111 6.000000 0.000000
0.222222 6.000000 0.000000
0.333333 6.000000 0.000000
0.444444 6.000000 0.000000
0.555556 6.000000 0.000000
0.666667 6.000000 0.000000
0.777778 6.000000 0.000000
0.888889 6.000000 0.000000
0.000000 5.111111 0.000000
0.000000 5.222222 0.000000
0.000000 5.333333 0.000000
0.000000 5.444444 0.000000
0.000000 5.555556 0.000000
0.000000 5.666667 0.000000
0.000000 5.777778 0.000000
0.000000 5.888889 0.000000
1.000000 5.111111 0.000000
1.000000 5.222222 0.000000
1.000000 5.333333 0.000000
1.000000 5.444444 0.000000
1.000000 5.555556 0.000000
1.000000 5.666667 0.000000
1.000000 5.777778 0.000000
1.000000 5.888889 0.000000
0.111111 5.111111 0.000000
0.111111 5.222222 0.000000
0.111111 5.333333 0.000000
0.111111 5.444444 0.000000
0.111111 5.555556 0.000000
0.111111 5.666667 0.000000
0.111111 5.777778 0.000000
0.111111 5.888889 0.000000
0.222222 5.111111 0.000000
0.222222 5.222222 0.000000
0.222222 5.333333 0.000000
0.222222 5.444444 0.000000
0.222222 5.555556 0.000000
0.222222 5.666667 0.000000
0.222222 5.777778 0.000000
0.222222 5.888889 0.000000
0.333333 5.111111 0.000000
0.333333 5.222222 0.000000
0.333333 5.333333 0.000000
0.333333 5.444444 0.000000
0.333333 5.555556 0.000000
0.333333 5.666667 0.000000
0.333333 5.777778 0.000000
0.333333 5.888889 0.000000
0.444444 5.111111 0.000000
0.444444 5.222222 0.000000
0.444444 5.333333 0.000000
0.444444 5.444444 0.000000
0.444444 5.555556 0.000000
0.444444 5.666667 0.000000
0.444444 5.777778 0.000000
0.444444 5.888889 0.000000
0.555556 5.111111 0.000000
0.555556 5.222222 0.000000
0.555556 5.333333 0.000000
0.555556 5.444444 0.000000
0.555556 5.555556 0.000000
0.555556 5.666667 0.000000
0.555556 5.777778 0.000000
0.555556 5.888889 0.000000
0.666667 5.111111 0.000000
0.666667 5.222222 0.000000
0.666667 5.333333 0.000000
0.666667 5.444444 0.000000
0.666667 5.555556 0.000000
0.666667 5.666667 0.000000
0.666667 5.777778 0.000000
0.666667 5.888889 0.000000
0.777778 5.111111 0.000000
0.777778 5.222222 0.000000
0.777778 5.333333 0.000000
0.777778 5.444444 0.000000
0.777778 5.555556 0.000000
0.777778 5.666667 0.000000
0.777778 5.777778 0.000000
0.777778 5.888889 0.000000
0.888889 5.111111 0.000000
0.888889 5.222222 0.000000
0.888889 5.333333 0.000000
0.888889 5.444444 0.000000
0.888889 5.555556 0.000000
0.888889 5.666667 0.000000
0.888889 5.777778 0.000000
0.888889 5.888889 0.000000
CELLS 81 405 
4 0  4 36 20
4 20 36 37 21
4 21 37 38 22
4 22 38 39 23
4 23 39 40 24
4 24 40 41 25
4 25 41 42 26
4 26 42 43 27
4 27 43 12  2
4 4  5 44 36
4 36 44 45 37
4 37 45 46 38
4 38 46 47 39
4 39 47 48 40
4 40 48 49 41
4 41 49 50 42
4 42 50 51 43
4 43 51 13 12
4 5  6 52 44
4 44 52 53 45
4 45 53 54 46
4 46 54 55 47
4 47 55 56 48
4 48 56 57 49
4 49 57 58 50
4 50 58 59 51
4 51 59 14 13
4 6  7 60 52
4 52 60 61 53
4 53 61 62 54
4 54 62 63 55
4 55 63 64 56
4 56 64 65 57
4 57 65 66 58
4 58 66 67 59
4 59 67 15 14
4 7  8 68 60
4 60 68 69 61
4 61 69 70 62
4 62 70 71 63
4 63 71 72 64
4 64 72 73 65
4 65 73 74 66
4 66 74 75 67
4 67 75 16 15
4 8  9 76 68
4 68 76 77 69
4 69 77 78 70
4 70 78 79 71
4 71 79 80 72
4 72 80 81 73
4 73 81 82 74
4 74 82 83 75
4 75 83 17 16
4 9 10 84 76
4 76 84 85 77
4 77 85 86 78
4 78 86 87 79
4 79 87 88 80
4 80 88 89 81
4 81 89 90 82
4 82 90 91 83
4 83 91 18 17
4 10 11 92 84
4 84 92 93 85
4 85 93 94 86
4 86 94 95 87
4 87 95 96 88
4 88 96 97 89
4 89 97 98 90
4 90 98 99 91
4 91 99 19 18
4 11  1 28 92
4 92 28 29 93
4 93 29 30 94
4 94 30 31 95
4 95 31 32 96
4 96 32 33 97
4 97 33 34 98
4 98 34 35 99
4 99 35  3 19
CELL_TYPES 81
9 9 9 9 9 9 9 9 9 9 9 9 9 9 9 9 9 9 9 9 9 9 9 9 9 9 9 9 9 9 9 9 9 9 9 9 9 9 9 9 9 9 9 9 9 9 9 9 9 9 9 9 9 9 9 9 9 9 9 9 9 9 9 9 9 9 9 9 9 9 9 9 9 9 9 9 9 9 9 9 9 
POINT_DATA 100
VECTORS displacement_ITER1 FLOAT
 6.509385e-21  6.830630e-21  0 
 3.890709e-03  -2.859065e-03  0 
 0  0  0 
 6.909838e-03  -4.066325e-03  0 
 1.156763e-03  -2.594295e-04  0 
 1.740762e-03  -4.229426e-04  0 
 1.656242e-03  -6.470107e-04  0 
 1.109163e-03  -9.585168e-04  0 
 4.278575e-04  -1.209357e-03  0 
 -7.391846e-05  -1.119642e-03  0 
 -1.076338e-04  -5.971512e-04  0 
 1.960379e-03  -1.285334e-03  0 
 1.277641e-03  -6.554580e-04  0 
 2.219242e-03  -1.163502e-03  0 
 3.060470e-03  -1.614840e-03  0 
 3.860575e-03  -2.034514e-03  0 
 4.643616e-03  -2.440390e-03  0 
 5.424419e-03  -2.852912e-03  0 
 6.194454e-03  -3.303723e-03  0 
 6.844003e-03  -3.794871e-03  0 
 0  0  0 
 0  0  0 
 0  0  0 
 0  0  0 
 0  0  0 
 0  0  0 
 0  0  0 
 0  0  0 
 4.042059e-03  -2.235456e-03  0 
 4.920748e-03  -2.889253e-03  0 
 5.167451e-03  -2.552166e-03  0 
 5.494930e-03  -2.456979e-03  0 
 6.041962e-03  -2.491325e-03  0 
 6.730235e-03  -2.841778e-03  0 
 7.386801e-03  -3.168406e-03  0 
 7.807408e-03  -3.508454e-03  0 
 6.619162e-04  -3.031327e-04  0 
 5.022761e-04  -2.230648e-04  0 
 4.633871e-04  -1.704527e-04  0 
 4.846566e-04  -1.600262e-04  0 
 5.392967e-04  -1.826741e-04  0 
 6.156853e-04  -2.278678e-04  0 
 7.164097e-04  -2.920582e-04  0 
 8.714343e-04  -3.948127e-04  0 
 1.142004e-03  -3.412180e-04  0 
 9.148815e-04  -2.955929e-04  0 
 8.983208e-04  -2.855730e-04  0 
 9.827502e-04  -3.283191e-04  0 
 1.117498e-03  -4.141466e-04  0 
 1.283648e-03  -5.311270e-04  0 
 1.491469e-03  -6.834630e-04  0 
 1.795430e-03  -9.036432e-04  0 
 1.343044e-03  -3.722132e-04  0 
 1.254635e-03  -3.273181e-04  0 
 1.341128e-03  -3.954981e-04  0 
 1.526001e-03  -5.293116e-04  0 
 1.752049e-03  -6.996704e-04  0 
 2.003380e-03  -8.925991e-04  0 
 2.297140e-03  -1.114021e-03  0 
 2.650713e-03  -1.362598e-03  0 
 1.298409e-03  -4.984954e-04  0 
 1.524234e-03  -4.309976e-04  0 
 1.818833e-03  -5.720964e-04  0 
 2.136460e-03  -7.963391e-04  0 
 2.445314e-03  -1.038545e-03  0 
 2.755889e-03  -1.285025e-03  0 
 3.090639e-03  -1.536225e-03  0 
 3.460612e-03  -1.789632e-03  0 
 1.148445e-03  -6.899115e-04  0 
 1.802805e-03  -6.675603e-04  0 
 2.369330e-03  -8.844439e-04  0 
 2.814942e-03  -1.147470e-03  0 
 3.182827e-03  -1.414603e-03  0 
 3.519354e-03  -1.681786e-03  0 
 3.865423e-03  -1.944571e-03  0 
 4.242576e-03  -2.198722e-03  0 
 1.162034e-03  -8.921594e-04  0 
 2.271329e-03  -1.108925e-03  0 
 3.012621e-03  -1.339596e-03  0 
 3.536170e-03  -1.560275e-03  0 
 3.942330e-03  -1.792590e-03  0 
 4.286917e-03  -2.052360e-03  0 
 4.627775e-03  -2.334927e-03  0 
 5.006907e-03  -2.607108e-03  0 
 1.867531e-03  -1.398551e-03  0 
 2.984935e-03  -1.708249e-03  0 
 3.723533e-03  -1.848285e-03  0 
 4.265933e-03  -1.983117e-03  0 
 4.686554e-03  -2.123876e-03  0 
 5.073154e-03  -2.349382e-03  0 
 5.417554e-03  -2.689540e-03  0 
 5.766632e-03  -3.036974e-03  0 
 3.050128e-03  -2.127984e-03  0 
 3.820319e-03  -2.219838e-03  0 
 4.501188e-03  -2.342203e-03  0 
 4.936872e-03  -2.308870e-03  0 
 5.380589e-03  -2.371015e-03  0 
 5.876181e-03  -2.571061e-03  0 
 6.355019e-03  -2.934789e-03  0 
 6.578737e-03  -3.473284e-03  0 
VECTORS displacement_ITER2 FLOAT
 6.635606e-21  7.571085e-21  0 
 2.511532e-03  -2.646033e-03  0 
 0  0  0 
 5.604382e-03  -2.825672e-03  0 
 4.098403e-04  2.116962e-04  0 
 3.568544e-04  2.018030e-04  0 
 3.466581e-04  -7.855816e-05  0 
 4.325091e-04  -4.508930e-04  0 
 5.272709e-04  -8.002168e-04  0 
 6.178157e-04  -9.284268e-04  0 
 7.787652e-04  -4.139137e-04  0 
 1.453337e-03  -8.474549e-04  0 
 1.017420e-03  -5.319929e-04  0 
 1.756583e-03  -9.414977e-04  0 
 2.412329e-03  -1.297048e-03  0 
 3.036203e-03  -1.618656e-03  0 
 3.650208e-03  -1.920635e-03  0 
 4.268053e-03  -2.215582e-03  0 
 4.889113e-03  -2.520257e-03  0 
 5.444613e-03  -2.829573e-03  0 
 0  0  0 
 0  0  0 
 0  0  0 
 0  0  0 
 0  0  0 
 0  0  0 
 0  0  0 
 0  0  0 
 3.471735e-03  -2.146392e-03  0 
 3.982482e-03  -1.911240e-03  0 
 3.787434e-03  -1.906549e-03  0 
 4.052237e-03  -2.093161e-03  0 
 4.596088e-03  -2.208008e-03  0 
 5.199838e-03  -2.287666e-03  0 
 5.813957e-03  -2.369987e-03  0 
 6.392570e-03  -2.482405e-03  0 
 2.126084e-04  7.686909e-05  0 
 2.488422e-04  6.585684e-06  0 
 3.040985e-04  -4.574207e-05  0 
 3.611800e-04  -9.193166e-05  0 
 4.205473e-04  -1.377051e-04  0 
 4.859435e-04  -1.863828e-04  0 
 5.664275e-04  -2.425270e-04  0 
 6.896789e-04  -3.253878e-04  0 
 4.635063e-04  8.540134e-05  0 
 5.459266e-04  -4.840765e-05  0 
 6.521484e-04  -1.446879e-04  0 
 7.658279e-04  -2.336390e-04  0 
 8.866035e-04  -3.278207e-04  0 
 1.019397e-03  -4.325099e-04  0 
 1.181309e-03  -5.589079e-04  0 
 1.420009e-03  -7.361610e-04  0 
 6.617540e-04  -1.090842e-04  0 
 8.574154e-04  -1.893801e-04  0 
 1.030362e-03  -2.978225e-04  0 
 1.210926e-03  -4.232312e-04  0 
 1.396996e-03  -5.642015e-04  0 
 1.593411e-03  -7.199934e-04  0 
 1.820258e-03  -8.983883e-04  0 
 2.094036e-03  -1.097878e-03  0 
 8.349144e-04  -3.888224e-04  0 
 1.145696e-03  -4.057533e-04  0 
 1.427102e-03  -5.076480e-04  0 
 1.694654e-03  -6.619043e-04  0 
 1.944536e-03  -8.362545e-04  0 
 2.189334e-03  -1.022740e-03  0 
 2.448834e-03  -1.220871e-03  0 
 2.732543e-03  -1.424396e-03  0 
 9.981495e-04  -6.432812e-04  0 
 1.437488e-03  -6.513671e-04  0 
 1.857803e-03  -7.830925e-04  0 
 2.213804e-03  -9.494124e-04  0 
 2.515006e-03  -1.125870e-03  0 
 2.789863e-03  -1.317054e-03  0 
 3.065219e-03  -1.521374e-03  0 
 3.353594e-03  -1.727028e-03  0 
 1.186378e-03  -7.874708e-04  0 
 1.833506e-03  -9.516401e-04  0 
 2.349617e-03  -1.131275e-03  0 
 2.749369e-03  -1.270371e-03  0 
 3.087453e-03  -1.406398e-03  0 
 3.392645e-03  -1.582027e-03  0 
 3.680927e-03  -1.797789e-03  0 
 3.970808e-03  -2.017167e-03  0 
 1.706214e-03  -9.911001e-04  0 
 2.419842e-03  -1.355325e-03  0 
 2.884626e-03  -1.518724e-03  0 
 3.258669e-03  -1.588368e-03  0 
 3.630041e-03  -1.658417e-03  0 
 4.010207e-03  -1.799137e-03  0 
 4.331014e-03  -2.037316e-03  0 
 4.599824e-03  -2.303302e-03  0 
 2.656904e-03  -1.502408e-03  0 
 3.145992e-03  -1.759343e-03  0 
 3.397143e-03  -1.854600e-03  0 
 3.684775e-03  -1.849181e-03  0 
 4.128241e-03  -1.902244e-03  0 
 4.622884e-03  -2.008700e-03  0 
 5.082821e-03  -2.183936e-03  0 
 5.303562e-03  -2.553714e-03  0 
VECTORS displacement_ITER3 FLOAT
 6.774619e-21  7.680515e-21  0 
 1.948150e-03  -1.983520e-03  0 
 0  0  0 
 5.359164e-03  -2.509356e-03  0 
 -4.198132e-05  3.195132e-05  0 
 -5.621388e-05  -1.278567e-04  0 
 1.996674e-04  -2.725459e-04  0 
 5.306501e-04  -3.531264e-04  0 
 7.102609e-04  -4.862752e-04  0 
 7.010905e-04  -7.206075e-04  0 
 7.959814e-04  -6.396331e-04  0 
 1.057112e-03  -8.703399e-04  0 
 9.239804e-04  -4.975523e-04  0 
 1.579667e-03  -8.893515e-04  0 
 2.145985e-03  -1.230335e-03  0 
 2.667659e-03  -1.530892e-03  0 
 3.161021e-03  -1.790098e-03  0 
 3.642354e-03  -1.998235e-03  0 
 4.146419e-03  -2.154946e-03  0 
 4.730353e-03  -2.309955e-03  0 
 0  0  0 
 0  0  0 
 0  0  0 
 0  0  0 
 0  0  0 
 0  0  0 
 0  0  0 
 0  0  0 
 2.602387e-03  -1.857050e-03  0 
 3.208904e-03  -1.865187e-03  0 
 3.471735e-03  -2.148608e-03  0 
 3.890373e-03  -2.244250e-03  0 
 4.212282e-03  -2.182355e-03  0 
 4.424642e-03  -2.019626e-03  0 
 4.709080e-03  -1.988531e-03  0 
 5.280699e-03  -2.162292e-03  0 
 9.896867e-05  -5.541976e-06  0 
 1.922871e-04  -4.866832e-05  0 
 2.555385e-04  -8.285352e-05  0 
 3.099877e-04  -1.160070e-04  0 
 3.642539e-04  -1.524379e-04  0 
 4.238095e-04  -1.934208e-04  0 
 4.982276e-04  -2.414783e-04  0 
 6.143232e-04  -3.130492e-04  0 
 2.569568e-04  -1.353637e-04  0 
 4.188468e-04  -1.670797e-04  0 
 5.414155e-04  -2.118541e-04  0 
 6.538307e-04  -2.722320e-04  0 
 7.667806e-04  -3.477839e-04  0 
 8.886618e-04  -4.382667e-04  0 
 1.037552e-03  -5.504922e-04  0 
 1.260017e-03  -7.082670e-04  0 
 4.514697e-04  -3.048205e-04  0 
 6.644730e-04  -3.206266e-04  0 
 8.523048e-04  -3.748226e-04  0 
 1.031980e-03  -4.633799e-04  0 
 1.208898e-03  -5.785856e-04  0 
 1.391262e-03  -7.160871e-04  0 
 1.598453e-03  -8.780033e-04  0 
 1.848581e-03  -1.057157e-03  0 
 6.925764e-04  -4.253594e-04  0 
 9.346827e-04  -4.774516e-04  0 
 1.194433e-03  -5.621916e-04  0 
 1.448329e-03  -6.850675e-04  0 
 1.687902e-03  -8.338208e-04  0 
 1.918620e-03  -1.001635e-03  0 
 2.152500e-03  -1.182996e-03  0 
 2.399659e-03  -1.365557e-03  0 
 9.381893e-04  -5.355755e-04  0 
 1.242940e-03  -6.382369e-04  0 
 1.583376e-03  -7.790938e-04  0 
 1.906327e-03  -9.360665e-04  0 
 2.196117e-03  -1.101107e-03  0 
 2.457752e-03  -1.275162e-03  0 
 2.699532e-03  -1.454942e-03  0 
 2.930263e-03  -1.631394e-03  0 
 1.152238e-03  -6.848022e-04  0 
 1.607249e-03  -8.548968e-04  0 
 2.029837e-03  -1.048118e-03  0 
 2.398157e-03  -1.215123e-03  0 
 2.721454e-03  -1.370127e-03  0 
 3.001439e-03  -1.526044e-03  0 
 3.241338e-03  -1.685085e-03  0 
 3.452057e-03  -1.845152e-03  0 
 1.462322e-03  -9.158418e-04  0 
 2.062416e-03  -1.189786e-03  0 
 2.513203e-03  -1.376731e-03  0 
 2.903506e-03  -1.517932e-03  0 
 3.247283e-03  -1.638499e-03  0 
 3.539593e-03  -1.745655e-03  0 
 3.774507e-03  -1.861267e-03  0 
 3.973696e-03  -1.998762e-03  0 
 2.066721e-03  -1.353604e-03  0 
 2.580597e-03  -1.589102e-03  0 
 2.998631e-03  -1.743975e-03  0 
 3.402003e-03  -1.847195e-03  0 
 3.758209e-03  -1.909281e-03  0 
 4.034828e-03  -1.931771e-03  0 
 4.289798e-03  -1.951986e-03  0 
 4.523413e-03  -2.103045e-03  0 
VECTORS displacement_ITER4 FLOAT
 6.672587e-21  7.739272e-21  0 
 1.682383e-03  -1.792960e-03  0 
 0  0  0 
 5.214387e-03  -2.236930e-03  0 
 5.212750e-05  -1.658370e-04  0 
 2.442363e-04  -2.854172e-04  0 
 4.611680e-04  -2.804455e-04  0 
 6.332087e-04  -3.038309e-04  0 
 7.314336e-04  -4.369361e-04  0 
 7.256630e-04  -6.760701e-04  0 
 8.588060e-04  -8.131375e-04  0 
 1.127480e-03  -8.357731e-04  0 
 8.839051e-04  -4.790680e-04  0 
 1.507651e-03  -8.549448e-04  0 
 2.045475e-03  -1.179415e-03  0 
 2.542201e-03  -1.463213e-03  0 
 3.014481e-03  -1.706840e-03  0 
 3.476738e-03  -1.901706e-03  0 
 3.956399e-03  -2.039777e-03  0 
 4.510932e-03  -2.140252e-03  0 
 0  0  0 
 0  0  0 
 0  0  0 
 0  0  0 
 0  0  0 
 0  0  0 
 0  0  0 
 0  0  0 
 2.408113e-03  -1.668610e-03  0 
 2.853161e-03  -1.810088e-03  0 
 3.320537e-03  -2.028907e-03  0 
 3.726320e-03  -2.043866e-03  0 
 4.003616e-03  -2.039129e-03  0 
 4.247850e-03  -1.979869e-03  0 
 4.539986e-03  -1.935263e-03  0 
 4.966015e-03  -2.044090e-03  0 
 1.744126e-04  -1.159169e-04  0 
 2.194458e-04  -1.024545e-04  0 
 2.606979e-04  -1.082155e-04  0 
 3.046446e-04  -1.274165e-04  0 
 3.525460e-04  -1.561948e-04  0 
 4.070423e-04  -1.920855e-04  0 
 4.765746e-04  -2.360771e-04  0 
 5.867498e-04  -3.033053e-04  0 
 3.404321e-04  -2.345955e-04  0 
 4.406214e-04  -2.151701e-04  0 
 5.368131e-04  -2.349676e-04  0 
 6.353321e-04  -2.809140e-04  0 
 7.381675e-04  -3.461403e-04  0 
 8.511337e-04  -4.282151e-04  0 
 9.911072e-04  -5.329644e-04  0 
 1.202498e-03  -6.826629e-04  0 
 5.372437e-04  -3.056566e-04  0 
 6.792265e-04  -3.295032e-04  0 
 8.371758e-04  -3.793512e-04  0 
 9.979652e-04  -4.589687e-04  0 
 1.160170e-03  -5.635012e-04  0 
 1.330233e-03  -6.909440e-04  0 
 1.525808e-03  -8.437731e-04  0 
 1.763230e-03  -1.014414e-03  0 
 7.599630e-04  -3.734682e-04  0 
 9.506001e-04  -4.492921e-04  0 
 1.171463e-03  -5.431554e-04  0 
 1.396806e-03  -6.599639e-04  0 
 1.616572e-03  -7.984856e-04  0 
 1.832953e-03  -9.566989e-04  0 
 2.054471e-03  -1.129832e-03  0 
 2.288950e-03  -1.304941e-03  0 
 9.747567e-04  -4.916364e-04  0 
 1.251781e-03  -6.012512e-04  0 
 1.544496e-03  -7.365582e-04  0 
 1.831563e-03  -8.849071e-04  0 
 2.099718e-03  -1.041570e-03  0 
 2.347846e-03  -1.208259e-03  0 
 2.578330e-03  -1.382193e-03  0 
 2.797129e-03  -1.553612e-03  0 
 1.180355e-03  -6.841252e-04  0 
 1.580505e-03  -8.133090e-04  0 
 1.956054e-03  -9.787297e-04  0 
 2.293150e-03  -1.136562e-03  0 
 2.597689e-03  -1.288074e-03  0 
 2.867629e-03  -1.438869e-03  0 
 3.100570e-03  -1.593455e-03  0 
 3.300759e-03  -1.751973e-03  0 
 1.425854e-03  -9.250291e-04  0 
 1.965865e-03  -1.115520e-03  0 
 2.394137e-03  -1.274519e-03  0 
 2.767213e-03  -1.415811e-03  0 
 3.095684e-03  -1.540089e-03  0 
 3.378404e-03  -1.646260e-03  0 
 3.617755e-03  -1.755799e-03  0 
 3.811960e-03  -1.889515e-03  0 
 1.891501e-03  -1.289463e-03  0 
 2.392334e-03  -1.479093e-03  0 
 2.845752e-03  -1.607295e-03  0 
 3.248858e-03  -1.726439e-03  0 
 3.572388e-03  -1.796096e-03  0 
 3.852379e-03  -1.830621e-03  0 
 4.112307e-03  -1.866480e-03  0 
 4.349507e-03  -1.966233e-03  0 
VECTORS displacement_ITER5 FLOAT
 6.494635e-21  7.598953e-21  0 
 1.590712e-03  -1.666918e-03  0 
 0  0  0 
 5.102601e-03  -2.002266e-03  0 
 1.940661e-04  -1.776435e-04  0 
 4.005820e-04  -2.250742e-04  0 
 4.993791e-04  -2.393039e-04  0 
 5.755048e-04  -3.357383e-04  0 
 6.840224e-04  -4.818411e-04  0 
 7.585435e-04  -6.298657e-04  0 
 8.872865e-04  -8.186576e-04  0 
 1.161451e-03  -8.587431e-04  0 
 8.625708e-04  -4.681301e-04  0 
 1.470690e-03  -8.341743e-04  0 
 1.996004e-03  -1.148893e-03  0 
 2.483863e-03  -1.424201e-03  0 
 2.951809e-03  -1.663489e-03  0 
 3.412409e-03  -1.861710e-03  0 
 3.882105e-03  -2.005716e-03  0 
 4.400323e-03  -2.075728e-03  0 
 0  0  0 
 0  0  0 
 0  0  0 
 0  0  0 
 0  0  0 
 0  0  0 
 0  0  0 
 0  0  0 
 2.363656e-03  -1.626704e-03  0 
 2.806262e-03  -1.770558e-03  0 
 3.260690e-03  -1.864162e-03  0 
 3.552289e-03  -1.904073e-03  0 
 3.814530e-03  -1.995914e-03  0 
 4.132280e-03  -2.043813e-03  0 
 4.488975e-03  -2.001547e-03  0 
 4.837691e-03  -1.995955e-03  0 
 2.076065e-04  -1.226157e-04  0 
 2.253428e-04  -1.022492e-04  0 
 2.591161e-04  -1.066747e-04  0 
 3.000461e-04  -1.256081e-04  0 
 3.458927e-04  -1.537334e-04  0 
 3.984642e-04  -1.885404e-04  0 
 4.657974e-04  -2.312129e-04  0 
 5.728259e-04  -2.966854e-04  0 
 3.854536e-04  -1.985223e-04  0 
 4.503437e-04  -1.989624e-04  0 
 5.338184e-04  -2.267702e-04  0 
 6.257128e-04  -2.746664e-04  0 
 7.238149e-04  -3.389100e-04  0 
 8.326736e-04  -4.185613e-04  0 
 9.683827e-04  -5.201938e-04  0 
 1.173955e-03  -6.660628e-04  0 
 5.741793e-04  -2.595650e-04  0 
 6.922096e-04  -3.038501e-04  0 
 8.327779e-04  -3.647140e-04  0 
 9.823331e-04  -4.470242e-04  0 
 1.136499e-03  -5.496953e-04  0 
 1.300244e-03  -6.732184e-04  0 
 1.490222e-03  -8.213996e-04  0 
 1.721632e-03  -9.875835e-04  0 
 7.650843e-04  -3.652652e-04  0 
 9.545902e-04  -4.320037e-04  0 
 1.160405e-03  -5.271381e-04  0 
 1.371606e-03  -6.428182e-04  0 
 1.580762e-03  -7.770655e-04  0 
 1.789489e-03  -9.298448e-04  0 
 2.005542e-03  -1.097773e-03  0 
 2.235840e-03  -1.268687e-03  0 
 9.525898e-04  -5.093290e-04  0 
 1.236501e-03  -5.991345e-04  0 
 1.517767e-03  -7.238432e-04  0 
 1.790037e-03  -8.641082e-04  0 
 2.047244e-03  -1.012519e-03  0 
 2.288677e-03  -1.171928e-03  0 
 2.515990e-03  -1.341629e-03  0 
 2.734369e-03  -1.511237e-03  0 
 1.166488e-03  -6.888588e-04  0 
 1.550599e-03  -8.127918e-04  0 
 1.907525e-03  -9.657405e-04  0 
 2.227845e-03  -1.113012e-03  0 
 2.521371e-03  -1.252459e-03  0 
 2.789836e-03  -1.393320e-03  0 
 3.027398e-03  -1.546802e-03  0 
 3.231946e-03  -1.709961e-03  0 
 1.430306e-03  -9.084310e-04  0 
 1.928766e-03  -1.089807e-03  0 
 2.328781e-03  -1.250154e-03  0 
 2.671925e-03  -1.386599e-03  0 
 2.984729e-03  -1.498171e-03  0 
 3.277418e-03  -1.597300e-03  0 
 3.542109e-03  -1.708754e-03  0 
 3.745957e-03  -1.853135e-03  0 
 1.852687e-03  -1.243545e-03  0 
 2.362090e-03  -1.419064e-03  0 
 2.778709e-03  -1.552584e-03  0 
 3.115656e-03  -1.671863e-03  0 
 3.414697e-03  -1.748395e-03  0 
 3.731486e-03  -1.799600e-03  0 
 4.040291e-03  -1.849680e-03  0 
 4.297146e-03  -1.921381e-03  0 
VECTORS displacement_ITER6 FLOAT
 6.386877e-21  7.362557e-21  0 
 1.544222e-03  -1.522385e-03  0 
 0  0  0 
 5.073555e-03  -1.926893e-03  0 
 2.133195e-04  -9.765653e-05  0 
 3.216267e-04  -1.423807e-04  0 
 3.815632e-04  -2.472201e-04  0 
 4.811688e-04  -3.763834e-04  0 
 6.289071e-04  -4.798352e-04  0 
 7.729840e-04  -5.459550e-04  0 
 8.924811e-04  -7.196656e-04  0 
 1.169425e-03  -8.894983e-04  0 
 8.558849e-04  -4.642524e-04  0 
 1.460002e-03  -8.280184e-04  0 
 1.982165e-03  -1.141900e-03  0 
 2.466839e-03  -1.417725e-03  0 
 2.930608e-03  -1.658566e-03  0 
 3.384427e-03  -1.858109e-03  0 
 3.842411e-03  -1.998898e-03  0 
 4.345588e-03  -2.049543e-03  0 
 0  0  0 
 0  0  0 
 0  0  0 
 0  0  0 
 0  0  0 
 0  0  0 
 0  0  0 
 0  0  0 
 2.344653e-03  -1.633541e-03  0 
 2.831915e-03  -1.765601e-03  0 
 3.221875e-03  -1.824075e-03  0 
 3.500643e-03  -1.913503e-03  0 
 3.802543e-03  -2.000806e-03  0 
 4.119999e-03  -2.045834e-03  0 
 4.445338e-03  -2.028435e-03  0 
 4.740187e-03  -1.996472e-03  0 
 1.847784e-04  -7.966496e-05  0 
 2.112607e-04  -8.054623e-05  0 
 2.499655e-04  -9.527914e-05  0 
 2.931116e-04  -1.190084e-04  0 
 3.400786e-04  -1.494263e-04  0 
 3.933266e-04  -1.853553e-04  0 
 4.610408e-04  -2.284987e-04  0 
 5.679930e-04  -2.939214e-04  0 
 3.597928e-04  -1.464109e-04  0 
 4.333099e-04  -1.727355e-04  0 
 5.206127e-04  -2.117071e-04  0 
 6.142864e-04  -2.650518e-04  0 
 7.134618e-04  -3.322327e-04  0 
 8.230346e-04  -4.134034e-04  0 
 9.591083e-04  -5.155082e-04  0 
 1.164401e-03  -6.608855e-04  0 
 5.326660e-04  -2.470782e-04  0 
 6.700936e-04  -2.872599e-04  0 
 8.152136e-04  -3.515526e-04  0 
 9.667598e-04  -4.372515e-04  0 
 1.122052e-03  -5.424046e-04  0 
 1.286380e-03  -6.673314e-04  0 
 1.476561e-03  -8.158552e-04  0 
 1.707929e-03  -9.815014e-04  0 
 7.062205e-04  -3.798606e-04  0 
 9.197083e-04  -4.291288e-04  0 
 1.135788e-03  -5.191451e-04  0 
 1.351227e-03  -6.352620e-04  0 
 1.562139e-03  -7.707489e-04  0 
 1.771503e-03  -9.244461e-04  0 
 1.987661e-03  -1.092658e-03  0 
 2.218116e-03  -1.263140e-03  0 
 8.968208e-04  -5.134481e-04  0 
 1.193512e-03  -5.990067e-04  0 
 1.486695e-03  -7.208029e-04  0 
 1.764584e-03  -8.599333e-04  0 
 2.024241e-03  -1.008379e-03  0 
 2.266620e-03  -1.167910e-03  0 
 2.494118e-03  -1.337863e-03  0 
 2.712417e-03  -1.507383e-03  0 
 1.131674e-03  -6.587643e-04  0 
 1.514822e-03  -8.056723e-04  0 
 1.874825e-03  -9.629115e-04  0 
 2.199088e-03  -1.111311e-03  0 
 2.493868e-03  -1.250833e-03  0 
 2.763601e-03  -1.391242e-03  0 
 3.002268e-03  -1.544758e-03  0 
 3.205534e-03  -1.707884e-03  0 
 1.431904e-03  -8.668774e-04  0 
 1.904717e-03  -1.070513e-03  0 
 2.300739e-03  -1.245224e-03  0 
 2.642129e-03  -1.384262e-03  0 
 2.953796e-03  -1.496877e-03  0 
 3.247173e-03  -1.599771e-03  0 
 3.513846e-03  -1.709026e-03  0 
 3.715272e-03  -1.849704e-03  0 
 1.838067e-03  -1.198599e-03  0 
 2.358757e-03  -1.397466e-03  0 
 2.753868e-03  -1.549818e-03  0 
 3.078802e-03  -1.662786e-03  0 
 3.388493e-03  -1.745722e-03  0 
 3.702889e-03  -1.808985e-03  0 
 4.000854e-03  -1.860149e-03  0 
 4.260016e-03  -1.908456e-03  0 
VECTORS displacement_ITER7 FLOAT
 6.201704e-21  7.089708e-21  0 
 1.476678e-03  -1.443146e-03  0 
 0  0  0 
 5.035729e-03  -1.949511e-03  0 
 2.029490e-04  -7.358408e-05  0 
 3.069912e-04  -1.605592e-04  0 
 4.172832e-04  -2.841052e-04  0 
 5.338915e-04  -3.745973e-04  0 
 6.450494e-04  -4.505201e-04  0 
 7.821817e-04  -5.309115e-04  0 
 9.026508e-04  -6.898358e-04  0 
 1.159684e-03  -9.337596e-04  0 
 8.493111e-04  -4.615701e-04  0 
 1.447912e-03  -8.237039e-04  0 
 1.964597e-03  -1.136350e-03  0 
 2.443357e-03  -1.411045e-03  0 
 2.900109e-03  -1.650186e-03  0 
 3.345383e-03  -1.846215e-03  0 
 3.794987e-03  -1.981639e-03  0 
 4.295789e-03  -2.031044e-03  0 
 0  0  0 
 0  0  0 
 0  0  0 
 0  0  0 
 0  0  0 
 0  0  0 
 0  0  0 
 0  0  0 
 2.281708e-03  -1.616074e-03  0 
 2.774219e-03  -1.755259e-03  0 
 3.144060e-03  -1.837042e-03  0 
 3.486941e-03  -1.930349e-03  0 
 3.828463e-03  -1.962601e-03  0 
 4.119025e-03  -1.977824e-03  0 
 4.389715e-03  -1.998046e-03  0 
 4.651089e-03  -1.998415e-03  0 
 1.865174e-04  -7.806507e-05  0 
 2.149355e-04  -8.542583e-05  0 
 2.508162e-04  -9.950751e-05  0 
 2.916626e-04  -1.216109e-04  0 
 3.371841e-04  -1.507648e-04  0 
 3.895105e-04  -1.857766e-04  0 
 4.565812e-04  -2.281625e-04  0 
 5.629148e-04  -2.927551e-04  0 
 3.717727e-04  -1.611465e-04  0 
 4.386388e-04  -1.817929e-04  0 
 5.199579e-04  -2.165778e-04  0 
 6.098900e-04  -2.675050e-04  0 
 7.066994e-04  -3.331244e-04  0 
 8.146869e-04  -4.131274e-04  0 
 9.495745e-04  -5.141384e-04  0 
 1.153672e-03  -6.581549e-04  0 
 5.426226e-04  -2.675358e-04  0 
 6.714079e-04  -2.941726e-04  0 
 8.110623e-04  -3.537257e-04  0 
 9.586115e-04  -4.373771e-04  0 
 1.110995e-03  -5.414044e-04  0 
 1.273226e-03  -6.654982e-04  0 
 1.461758e-03  -8.131178e-04  0 
 1.691652e-03  -9.775240e-04  0 
 7.137767e-04  -3.781246e-04  0 
 9.170569e-04  -4.277621e-04  0 
 1.128069e-03  -5.160155e-04  0 
 1.339344e-03  -6.313543e-04  0 
 1.546904e-03  -7.667690e-04  0 
 1.753784e-03  -9.205775e-04  0 
 1.967869e-03  -1.088541e-03  0 
 2.196318e-03  -1.258086e-03  0 
 9.059038e-04  -4.957219e-04  0 
 1.189946e-03  -5.871412e-04  0 
 1.476557e-03  -7.102252e-04  0 
 1.749773e-03  -8.501731e-04  0 
 2.005764e-03  -1.000665e-03  0 
 2.245128e-03  -1.162055e-03  0 
 2.469774e-03  -1.332495e-03  0 
 2.684897e-03  -1.501006e-03  0 
 1.132256e-03  -6.413380e-04  0 
 1.507336e-03  -7.881978e-04  0 
 1.861401e-03  -9.435528e-04  0 
 2.183313e-03  -1.093928e-03  0 
 2.474777e-03  -1.238846e-03  0 
 2.739786e-03  -1.384139e-03  0 
 2.973246e-03  -1.538434e-03  0 
 3.171317e-03  -1.699006e-03  0 
 1.422524e-03  -8.576209e-04  0 
 1.880539e-03  -1.051627e-03  0 
 2.279748e-03  -1.220433e-03  0 
 2.628214e-03  -1.358836e-03  0 
 2.940448e-03  -1.479496e-03  0 
 3.224037e-03  -1.591930e-03  0 
 3.477331e-03  -1.701858e-03  0 
 3.671413e-03  -1.836559e-03  0 
 1.797113e-03  -1.180884e-03  0 
 2.311897e-03  -1.384682e-03  0 
 2.714133e-03  -1.532982e-03  0 
 3.067193e-03  -1.635323e-03  0 
 3.394052e-03  -1.721061e-03  0 
 3.685979e-03  -1.792421e-03  0 
 3.950756e-03  -1.848731e-03  0 
 4.199589e-03  -1.894887e-03  0 
VECTORS displacement_ITER8 FLOAT
 5.949889e-21  6.797062e-21  0 
 1.444826e-03  -1.424594e-03  0 
 0  0  0 
 4.993704e-03  -1.971911e-03  0 
 1.880079e-04  -8.708819e-05  0 
 3.264837e-04  -1.932628e-04  0 
 4.657387e-04  -2.857054e-04  0 
 5.676987e-04  -3.528421e-04  0 
 6.456911e-04  -4.392179e-04  0 
 7.714558e-04  -5.583522e-04  0 
 9.207615e-04  -6.923256e-04  0 
 1.153534e-03  -9.438428e-04  0 
 8.466031e-04  -4.606649e-04  0 
 1.442666e-03  -8.222455e-04  0 
 1.956764e-03  -1.134332e-03  0 
 2.433007e-03  -1.408436e-03  0 
 2.887564e-03  -1.647161e-03  0 
 3.331360e-03  -1.843759e-03  0 
 3.780135e-03  -1.982786e-03  0 
 4.276904e-03  -2.040280e-03  0 
 0  0  0 
 0  0  0 
 0  0  0 
 0  0  0 
 0  0  0 
 0  0  0 
 0  0  0 
 0  0  0 
 2.267836e-03  -1.596271e-03  0 
 2.751944e-03  -1.748183e-03  0 
 3.121443e-03  -1.848824e-03  0 
 3.482880e-03  -1.918611e-03  0 
 3.811489e-03  -1.936749e-03  0 
 4.100230e-03  -1.960855e-03  0 
 4.373397e-03  -1.998812e-03  0 
 4.638686e-03  -2.001889e-03  0 
 1.927091e-04  -9.043916e-05  0 
 2.183953e-04  -9.322861e-05  0 
 2.516569e-04  -1.038291e-04  0 
 2.912097e-04  -1.240608e-04  0 
 3.360648e-04  -1.522073e-04  0 
 3.879639e-04  -1.865623e-04  0 
 4.547126e-04  -2.284375e-04  0 
 5.607488e-04  -2.925489e-04  0 
 3.798673e-04  -1.809429e-04  0 
 4.411183e-04  -1.911675e-04  0 
 5.195119e-04  -2.217218e-04  0 
 6.079610e-04  -2.707117e-04  0 
 7.037957e-04  -3.350867e-04  0 
 8.110761e-04  -4.141044e-04  0 
 9.454169e-04  -5.142685e-04  0 
 1.148983e-03  -6.574790e-04  0 
 5.522131e-04  -2.729705e-04  0 
 6.724083e-04  -2.987925e-04  0 
 8.094074e-04  -3.574012e-04  0 
 9.550590e-04  -4.400861e-04  0 
 1.105982e-03  -5.430885e-04  0 
 1.267202e-03  -6.661666e-04  0 
 1.455045e-03  -8.128088e-04  0 
 1.684378e-03  -9.763160e-04  0 
 7.267641e-04  -3.664833e-04  0 
 9.205931e-04  -4.258673e-04  0 
 1.126479e-03  -5.168966e-04  0 
 1.334405e-03  -6.324389e-04  0 
 1.539698e-03  -7.674512e-04  0 
 1.745157e-03  -9.206026e-04  0 
 1.958441e-03  -1.087684e-03  0 
 2.186422e-03  -1.256288e-03  0 
 9.185398e-04  -4.877893e-04  0 
 1.195598e-03  -5.827317e-04  0 
 1.475061e-03  -7.077004e-04  0 
 1.743623e-03  -8.486030e-04  0 
 1.996566e-03  -9.997470e-04  0 
 2.233872e-03  -1.161323e-03  0 
 2.457394e-03  -1.331229e-03  0 
 2.672273e-03  -1.498770e-03  0 
 1.136059e-03  -6.472749e-04  0 
 1.508436e-03  -7.848043e-04  0 
 1.857893e-03  -9.379954e-04  0 
 2.175970e-03  -1.089307e-03  0 
 2.464192e-03  -1.235919e-03  0 
 2.726117e-03  -1.382552e-03  0 
 2.957458e-03  -1.537126e-03  0 
 3.155625e-03  -1.697132e-03  0 
 1.415099e-03  -8.639311e-04  0 
 1.871922e-03  -1.048326e-03  0 
 2.272149e-03  -1.212796e-03  0 
 2.620098e-03  -1.351552e-03  0 
 2.929276e-03  -1.474404e-03  0 
 3.208370e-03  -1.588262e-03  0 
 3.457991e-03  -1.700585e-03  0 
 3.652190e-03  -1.837288e-03  0 
 1.784086e-03  -1.174014e-03  0 
 2.293024e-03  -1.381053e-03  0 
 2.701548e-03  -1.525232e-03  0 
 3.060571e-03  -1.626580e-03  0 
 3.382316e-03  -1.711772e-03  0 
 3.667078e-03  -1.783884e-03  0 
 3.931504e-03  -1.845367e-03  0 
 4.177613e-03  -1.902467e-03  0 
VECTORS displacement_ITER9 FLOAT
 5.703340e-21  6.470143e-21  0 
 1.421967e-03  -1.426117e-03  0 
 0  0  0 
 4.943114e-03  -1.972701e-03  0 
 1.665605e-04  -9.049362e-05  0 
 3.067670e-04  -1.811179e-04  0 
 4.271778e-04  -2.537077e-04  0 
 5.232778e-04  -3.409966e-04  0 
 6.217278e-04  -4.446148e-04  0 
 7.545468e-04  -5.695779e-04  0 
 9.332039e-04  -6.800407e-04  0 
 1.144463e-03  -9.151367e-04  0 
 8.447063e-04  -4.595639e-04  0 
 1.439608e-03  -8.204147e-04  0 
 1.952852e-03  -1.132065e-03  0 
 2.428598e-03  -1.406119e-03  0 
 2.883366e-03  -1.645718e-03  0 
 3.328241e-03  -1.845387e-03  0 
 3.777139e-03  -1.990920e-03  0 
 4.265221e-03  -2.055123e-03  0 
 0  0  0 
 0  0  0 
 0  0  0 
 0  0  0 
 0  0  0 
 0  0  0 
 0  0  0 
 0  0  0 
 2.303064e-03  -1.593490e-03  0 
 2.772115e-03  -1.734640e-03  0 
 3.135032e-03  -1.834725e-03  0 