# vtk DataFile Version 3.1
this is an vtk file created by FEMAC
ASCII
DATASET UNSTRUCTURED_GRID
POINTS 100 FLOAT
1.000000 1.000000 0.000000
1.000000 2.000000 0.000000
2.000000 1.000000 0.000000
2.000000 2.000000 0.000000
1.000000 1.111111 0.000000
1.000000 1.222222 0.000000
1.000000 1.333333 0.000000
1.000000 1.444444 0.000000
1.000000 1.555556 0.000000
1.000000 1.666667 0.000000
1.000000 1.777778 0.000000
1.000000 1.888889 0.000000
1.111111 1.000000 0.000000
1.222222 1.000000 0.000000
1.333333 1.000000 0.000000
1.444444 1.000000 0.000000
1.555556 1.000000 0.000000
1.666667 1.000000 0.000000
1.777778 1.000000 0.000000
1.888889 1.000000 0.000000
1.111111 2.000000 0.000000
1.222222 2.000000 0.000000
1.333333 2.000000 0.000000
1.444444 2.000000 0.000000
1.555556 2.000000 0.000000
1.666667 2.000000 0.000000
1.777778 2.000000 0.000000
1.888889 2.000000 0.000000
2.000000 1.111111 0.000000
2.000000 1.222222 0.000000
2.000000 1.333333 0.000000
2.000000 1.444444 0.000000
2.000000 1.555556 0.000000
2.000000 1.666667 0.000000
2.000000 1.777778 0.000000
2.000000 1.888889 0.000000
1.111111 1.111111 0.000000
1.111111 1.222222 0.000000
1.111111 1.333333 0.000000
1.111111 1.444444 0.000000
1.111111 1.555556 0.000000
1.111111 1.666667 0.000000
1.111111 1.777778 0.000000
1.111111 1.888889 0.000000
1.222222 1.111111 0.000000
1.222222 1.222222 0.000000
1.222222 1.333333 0.000000
1.222222 1.444444 0.000000
1.222222 1.555556 0.000000
1.222222 1.666667 0.000000
1.222222 1.777778 0.000000
1.222222 1.888889 0.000000
1.333333 1.111111 0.000000
1.333333 1.222222 0.000000
1.333333 1.333333 0.000000
1.333333 1.444444 0.000000
1.333333 1.555556 0.000000
1.333333 1.666667 0.000000
1.333333 1.777778 0.000000
1.333333 1.888889 0.000000
1.444444 1.111111 0.000000
1.444444 1.222222 0.000000
1.444444 1.333333 0.000000
1.444444 1.444444 0.000000
1.444444 1.555556 0.000000
1.444444 1.666667 0.000000
1.444444 1.777778 0.000000
1.444444 1.888889 0.000000
1.555556 1.111111 0.000000
1.555556 1.222222 0.000000
1.555556 1.333333 0.000000
1.555556 1.444444 0.000000
1.555556 1.555556 0.000000
1.555556 1.666667 0.000000
1.555556 1.777778 0.000000
1.555556 1.888889 0.000000
1.666667 1.111111 0.000000
1.666667 1.222222 0.000000
1.666667 1.333333 0.000000
1.666667 1.444444 0.000000
1.666667 1.555556 0.000000
1.666667 1.666667 0.000000
1.666667 1.777778 0.000000
1.666667 1.888889 0.000000
1.777778 1.111111 0.000000
1.777778 1.222222 0.000000
1.777778 1.333333 0.000000
1.777778 1.444444 0.000000
1.777778 1.555556 0.000000
1.777778 1.666667 0.000000
1.777778 1.777778 0.000000
1.777778 1.888889 0.000000
1.888889 1.111111 0.000000
1.888889 1.222222 0.000000
1.888889 1.333333 0.000000
1.888889 1.444444 0.000000
1.888889 1.555556 0.000000
1.888889 1.666667 0.000000
1.888889 1.777778 0.000000
1.888889 1.888889 0.000000
CELLS 81 405 
4 0 12 36  4
4 4 36 37  5
4 5 37 38  6
4 6 38 39  7
4 7 39 40  8
4 8 40 41  9
4 9 41 42 10
4 10 42 43 11
4 11 43 20  1
4 12 13 44 36
4 36 44 45 37
4 37 45 46 38
4 38 46 47 39
4 39 47 48 40
4 40 48 49 41
4 41 49 50 42
4 42 50 51 43
4 43 51 21 20
4 13 14 52 44
4 44 52 53 45
4 45 53 54 46
4 46 54 55 47
4 47 55 56 48
4 48 56 57 49
4 49 57 58 50
4 50 58 59 51
4 51 59 22 21
4 14 15 60 52
4 52 60 61 53
4 53 61 62 54
4 54 62 63 55
4 55 63 64 56
4 56 64 65 57
4 57 65 66 58
4 58 66 67 59
4 59 67 23 22
4 15 16 68 60
4 60 68 69 61
4 61 69 70 62
4 62 70 71 63
4 63 71 72 64
4 64 72 73 65
4 65 73 74 66
4 66 74 75 67
4 67 75 24 23
4 16 17 76 68
4 68 76 77 69
4 69 77 78 70
4 70 78 79 71
4 71 79 80 72
4 72 80 81 73
4 73 81 82 74
4 74 82 83 75
4 75 83 25 24
4 17 18 84 76
4 76 84 85 77
4 77 85 86 78
4 78 86 87 79
4 79 87 88 80
4 80 88 89 81
4 81 89 90 82
4 82 90 91 83
4 83 91 26 25
4 18 19 92 84
4 84 92 93 85
4 85 93 94 86
4 86 94 95 87
4 87 95 96 88
4 88 96 97 89
4 89 97 98 90
4 90 98 99 91
4 91 99 27 26
4 19  2 28 92
4 92 28 29 93
4 93 29 30 94
4 94 30 31 95
4 95 31 32 96
4 96 32 33 97
4 97 33 34 98
4 98 34 35 99
4 99 35  3 27
CELL_TYPES 81
9 9 9 9 9 9 9 9 9 9 9 9 9 9 9 9 9 9 9 9 9 9 9 9 9 9 9 9 9 9 9 9 9 9 9 9 9 9 9 9 9 9 9 9 9 9 9 9 9 9 9 9 9 9 9 9 9 9 9 9 9 9 9 9 9 9 9 9 9 9 9 9 9 9 9 9 9 9 9 9 9 
POINT_DATA 100
VECTORS displacement_ITER1 FLOAT
 -2.099266e-03  -6.785576e-04  0 
 -6.008290e-04  -8.656686e-04  0 
 -3.182797e-03  -3.464193e-03  0 
 -1.022005e-03  -3.373413e-03  0 
 -2.218705e-03  -8.288887e-04  0 
 -2.105326e-03  -8.768287e-04  0 
 -1.946995e-03  -9.021200e-04  0 
 -1.757390e-03  -9.149602e-04  0 
 -1.549105e-03  -9.170422e-04  0 
 -1.321899e-03  -9.084205e-04  0 
 -1.084539e-03  -8.995983e-04  0 
 -8.502157e-04  -8.901824e-04  0 
 -2.424274e-03  -9.860056e-04  0 
 -2.577662e-03  -1.272854e-03  0 
 -2.691265e-03  -1.553069e-03  0 
 -2.779839e-03  -1.831295e-03  0 
 -2.853416e-03  -2.115231e-03  0 
 -2.922335e-03  -2.405799e-03  0 
 -2.990858e-03  -2.715521e-03  0 
 -3.065019e-03  -3.043428e-03  0 
 -6.069657e-04  -1.138631e-03  0 
 -5.979560e-04  -1.384090e-03  0 
 -5.827596e-04  -1.646922e-03  0 
 -5.808859e-04  -1.920787e-03  0 
 -5.959025e-04  -2.202982e-03  0 
 -6.404451e-04  -2.481430e-03  0 
 -6.967534e-04  -2.759382e-03  0 
 -7.975466e-04  -3.056725e-03  0 
 -2.726612e-03  -3.393543e-03  0 
 -2.395052e-03  -3.330037e-03  0 
 -2.095483e-03  -3.277068e-03  0 
 -1.827507e-03  -3.232698e-03  0 
 -1.590038e-03  -3.202212e-03  0 
 -1.376836e-03  -3.194362e-03  0 
 -1.188273e-03  -3.206983e-03  0 
 -1.024292e-03  -3.244421e-03  0 
 -2.231061e-03  -9.740881e-04  0 
 -2.113450e-03  -1.045714e-03  0 
 -1.949278e-03  -1.091128e-03  0 
 -1.759429e-03  -1.119523e-03  0 
 -1.550228e-03  -1.135405e-03  0 
 -1.325061e-03  -1.141764e-03  0 
 -1.089141e-03  -1.139932e-03  0 
 -8.489221e-04  -1.135796e-03  0 
 -2.338558e-03  -1.253176e-03  0 
 -2.140333e-03  -1.267766e-03  0 
 -1.958570e-03  -1.308490e-03  0 
 -1.762440e-03  -1.343281e-03  0 
 -1.551279e-03  -1.368048e-03  0 
 -1.326572e-03  -1.382343e-03  0 
 -1.090380e-03  -1.387463e-03  0 
 -8.449084e-04  -1.386929e-03  0 
 -2.431305e-03  -1.534711e-03  0 
 -2.196220e-03  -1.536106e-03  0 
 -1.980672e-03  -1.557580e-03  0 
 -1.770966e-03  -1.588820e-03  0 
 -1.555208e-03  -1.616606e-03  0 
 -1.329749e-03  -1.635864e-03  0 
 -1.093037e-03  -1.645535e-03  0 
 -8.448542e-04  -1.647045e-03  0 
 -2.506879e-03  -1.817729e-03  0 
 -2.250912e-03  -1.816047e-03  0 
 -2.011905e-03  -1.829527e-03  0 
 -1.785358e-03  -1.854085e-03  0 
 -1.562986e-03  -1.881153e-03  0 
 -1.336647e-03  -1.902772e-03  0 
 -1.100729e-03  -1.915558e-03  0 
 -8.503072e-04  -1.920288e-03  0 
 -2.569016e-03  -2.102656e-03  0 
 -2.296727e-03  -2.101033e-03  0 
 -2.040637e-03  -2.111489e-03  0 
 -1.800830e-03  -2.132033e-03  0 
 -1.572915e-03  -2.157349e-03  0 
 -1.347909e-03  -2.180282e-03  0 
 -1.115260e-03  -2.195343e-03  0 
 -8.673297e-04  -2.202164e-03  0 
 -2.621115e-03  -2.393741e-03  0 
 -2.332161e-03  -2.391085e-03  0 
 -2.061296e-03  -2.398698e-03  0 
 -1.811723e-03  -2.414476e-03  0 
 -1.580906e-03  -2.436313e-03  0 
 -1.361448e-03  -2.460991e-03  0 
 -1.139170e-03  -2.479740e-03  0 
 -8.989130e-04  -2.485953e-03  0 
 -2.666805e-03  -2.696728e-03  0 
 -2.357165e-03  -2.690351e-03  0 
 -2.073172e-03  -2.690213e-03  0 
 -1.817045e-03  -2.695087e-03  0 
 -1.584527e-03  -2.708118e-03  0 
 -1.370698e-03  -2.730278e-03  0 
 -1.169199e-03  -2.759457e-03  0 
 -9.526705e-04  -2.771626e-03  0 
 -2.704704e-03  -3.022808e-03  0 
 -2.373211e-03  -3.005624e-03  0 
 -2.081956e-03  -2.983818e-03  0 
 -1.820170e-03  -2.968989e-03  0 
 -1.585726e-03  -2.965389e-03  0 
 -1.374511e-03  -2.976024e-03  0 
 -1.183208e-03  -3.004619e-03  0 
 -1.022357e-03  -3.058944e-03  0 
VECTORS displacement_ITER2 FLOAT
 -1.319248e-03  -5.668233e-04  0 
 -4.679146e-04  -7.437617e-04  0 
 -2.682350e-03  -2.939715e-03  0 
 -9.448551e-04  -2.792712e-03  0 
 -1.601012e-03  -7.527054e-04  0 
 -1.578551e-03  -7.956592e-04  0 
 -1.489888e-03  -8.088073e-04  0 
 -1.359504e-03  -8.086517e-04  0 
 -1.204585e-03  -8.023017e-04  0 
 -1.033126e-03  -7.929243e-04  0 
 -8.446105e-04  -7.853384e-04  0 
 -6.610179e-04  -7.761232e-04  0 
 -1.733964e-03  -8.146268e-04  0 
 -1.928737e-03  -1.047431e-03  0 
 -2.054943e-03  -1.273288e-03  0 
 -2.147230e-03  -1.499594e-03  0 
 -2.224632e-03  -1.723943e-03  0 
 -2.301996e-03  -1.957163e-03  0 
 -2.391443e-03  -2.203996e-03  0 
 -2.507652e-03  -2.495987e-03  0 
 -4.684617e-04  -9.693876e-04  0 
 -4.615563e-04  -1.167482e-03  0 
 -4.549028e-04  -1.372321e-03  0 
 -4.557459e-04  -1.584436e-03  0 
 -4.734856e-04  -1.806469e-03  0 
 -5.087972e-04  -2.029039e-03  0 
 -5.675222e-04  -2.260601e-03  0 
 -6.800823e-04  -2.513048e-03  0 
 -2.180682e-03  -2.837057e-03  0 
 -1.877496e-03  -2.741940e-03  0 
 -1.630726e-03  -2.675006e-03  0 
 -1.420112e-03  -2.628018e-03  0 
 -1.239785e-03  -2.600135e-03  0 
 -1.082048e-03  -2.587737e-03  0 
 -9.514693e-04  -2.598648e-03  0 
 -8.594269e-04  -2.640599e-03  0 
 -1.611135e-03  -7.948822e-04  0 
 -1.582519e-03  -8.804189e-04  0 
 -1.489751e-03  -9.290618e-04  0 
 -1.360727e-03  -9.557410e-04  0 
 -1.206396e-03  -9.689204e-04  0 
 -1.033800e-03  -9.742847e-04  0 
 -8.502685e-04  -9.727470e-04  0 
 -6.629534e-04  -9.670403e-04  0 
 -1.738923e-03  -1.019679e-03  0 
 -1.606957e-03  -1.034586e-03  0 
 -1.494362e-03  -1.081193e-03  0 
 -1.360399e-03  -1.119423e-03  0 
 -1.205787e-03  -1.145594e-03  0 
 -1.034778e-03  -1.160443e-03  0 
 -8.518746e-04  -1.166061e-03  0 
 -6.591970e-04  -1.167366e-03  0 
 -1.845917e-03  -1.250841e-03  0 
 -1.668907e-03  -1.248343e-03  0 
 -1.515169e-03  -1.270970e-03  0 
 -1.366166e-03  -1.306001e-03  0 
 -1.207622e-03  -1.336957e-03  0 
 -1.036859e-03  -1.358062e-03  0 
 -8.537945e-04  -1.369050e-03  0 
 -6.592628e-04  -1.372060e-03  0 
 -1.930342e-03  -1.480400e-03  0 
 -1.730822e-03  -1.474703e-03  0 
 -1.548966e-03  -1.487671e-03  0 
 -1.379746e-03  -1.514954e-03  0 
 -1.213926e-03  -1.545454e-03  0 
 -1.042800e-03  -1.569212e-03  0 
 -8.611566e-04  -1.582445e-03  0 
 -6.664165e-04  -1.586401e-03  0 
 -1.999751e-03  -1.708561e-03  0 
 -1.782993e-03  -1.704309e-03  0 
 -1.580652e-03  -1.715532e-03  0 
 -1.395321e-03  -1.739031e-03  0 
 -1.223225e-03  -1.767541e-03  0 
 -1.054335e-03  -1.792154e-03  0 
 -8.771499e-04  -1.806211e-03  0 
 -6.843511e-04  -1.809302e-03  0 
 -2.060426e-03  -1.940184e-03  0 
 -1.822735e-03  -1.938795e-03  0 
 -1.602113e-03  -1.950114e-03  0 
 -1.405599e-03  -1.969230e-03  0 
 -1.230858e-03  -1.993496e-03  0 
 -1.069162e-03  -2.019670e-03  0 
 -9.041396e-04  -2.037429e-03  0 
 -7.187801e-04  -2.039094e-03  0 
 -2.115179e-03  -2.186869e-03  0 
 -1.847578e-03  -2.186959e-03  0 
 -1.611851e-03  -2.191874e-03  0 
 -1.409789e-03  -2.198285e-03  0 
 -1.233950e-03  -2.211903e-03  0 
 -1.078791e-03  -2.235543e-03  0 
 -9.376206e-04  -2.266689e-03  0 
 -7.770928e-04  -2.277207e-03  0 
 -2.158002e-03  -2.473364e-03  0 
 -1.858136e-03  -2.459899e-03  0 
 -1.617876e-03  -2.436533e-03  0 
 -1.412893e-03  -2.419926e-03  0 
 -1.234900e-03  -2.415008e-03  0 
 -1.080830e-03  -2.426011e-03  0 
 -9.509897e-04  -2.458153e-03  0 
 -8.560684e-04  -2.519680e-03  0 
VECTORS displacement_ITER3 FLOAT
 -1.064696e-03  -4.831145e-04  0 
 -4.014860e-04  -6.416476e-04  0 
 -2.551400e-03  -2.759498e-03  0 
 -9.011185e-04  -2.589543e-03  0 
 -1.406735e-03  -6.842488e-04  0 
 -1.417242e-03  -7.183830e-04  0 
 -1.349334e-03  -7.221367e-04  0 
 -1.234574e-03  -7.148421e-04  0 
 -1.091541e-03  -7.040135e-04  0 
 -9.320197e-04  -6.931731e-04  0 
 -7.563452e-04  -6.845931e-04  0 
 -5.834453e-04  -6.751551e-04  0 
 -1.518657e-03  -7.099595e-04  0 
 -1.727628e-03  -9.236598e-04  0 
 -1.856057e-03  -1.135421e-03  0 
 -1.950693e-03  -1.348519e-03  0 
 -2.032255e-03  -1.557745e-03  0 
 -2.114874e-03  -1.774680e-03  0 
 -2.214162e-03  -2.004944e-03  0 
 -2.350489e-03  -2.290799e-03  0 
 -3.984917e-04  -8.561719e-04  0 
 -3.951320e-04  -1.046054e-03  0 
 -3.947906e-04  -1.238576e-03  0 
 -3.974267e-04  -1.435660e-03  0 
 -4.136066e-04  -1.640358e-03  0 
 -4.419097e-04  -1.849117e-03  0 
 -4.988750e-04  -2.070576e-03  0 
 -6.154287e-04  -2.309836e-03  0 
 -2.019782e-03  -2.635132e-03  0 
 -1.718735e-03  -2.526767e-03  0 
 -1.486515e-03  -2.454615e-03  0 
 -1.290884e-03  -2.406247e-03  0 
 -1.121250e-03  -2.378692e-03  0 
 -9.731581e-04  -2.365920e-03  0 
 -8.540511e-04  -2.376537e-03  0 
 -7.822328e-04  -2.422098e-03  0 
 -1.417280e-03  -6.857609e-04  0 
 -1.419086e-03  -7.756544e-04  0 
 -1.347732e-03  -8.238311e-04  0 
 -1.234703e-03  -8.483919e-04  0 
 -1.093508e-03  -8.595681e-04  0 
 -9.332591e-04  -8.634135e-04  0 
 -7.619040e-04  -8.613781e-04  0 
 -5.858781e-04  -8.550985e-04  0 
 -1.552336e-03  -8.944465e-04  0 
 -1.441096e-03  -9.089981e-04  0 
 -1.349395e-03  -9.574132e-04  0 
 -1.232426e-03  -9.963648e-04  0 
 -1.092087e-03  -1.022467e-03  0 
 -9.340145e-04  -1.037200e-03  0 
 -7.636294e-04  -1.043167e-03  0 
 -5.829658e-04  -1.045511e-03  0 
 -1.663609e-03  -1.111545e-03  0 
 -1.504334e-03  -1.107552e-03  0 
 -1.368596e-03  -1.130524e-03  0 
 -1.236308e-03  -1.166936e-03  0 
 -1.092500e-03  -1.199060e-03  0 
 -9.351300e-04  -1.221042e-03  0 
 -7.649748e-04  -1.233073e-03  0 
 -5.837331e-04  -1.237587e-03  0 
 -1.751259e-03  -1.326563e-03  0 
 -1.568428e-03  -1.319251e-03  0 
 -1.402586e-03  -1.332149e-03  0 
 -1.248725e-03  -1.360685e-03  0 
 -1.097427e-03  -1.392792e-03  0 
 -9.399573e-04  -1.417786e-03  0 
 -7.715484e-04  -1.431817e-03  0 
 -5.910229e-04  -1.436479e-03  0 
 -1.824442e-03  -1.539572e-03  0 
 -1.623072e-03  -1.533987e-03  0 
 -1.434958e-03  -1.545592e-03  0 
 -1.263644e-03  -1.570501e-03  0 
 -1.105707e-03  -1.600646e-03  0 
 -9.507946e-04  -1.626429e-03  0 
 -7.872084e-04  -1.640774e-03  0 
 -6.080450e-04  -1.643310e-03  0 
 -1.889815e-03  -1.755419e-03  0 
 -1.665055e-03  -1.754061e-03  0 
 -1.456707e-03  -1.766724e-03  0 
 -1.273293e-03  -1.787190e-03  0 
 -1.112545e-03  -1.812716e-03  0 
 -9.653106e-04  -1.840126e-03  0 
 -8.142859e-04  -1.858345e-03  0 
 -6.418915e-04  -1.859408e-03  0 
 -1.949416e-03  -1.987556e-03  0 
 -1.690633e-03  -1.990054e-03  0 
 -1.466152e-03  -1.996541e-03  0 
 -1.277155e-03  -2.003233e-03  0 
 -1.114989e-03  -2.017089e-03  0 
 -9.740474e-04  -2.042052e-03  0 
 -8.478379e-04  -2.075490e-03  0 
 -6.999226e-04  -2.086686e-03  0 
 -1.994925e-03  -2.266984e-03  0 
 -1.700076e-03  -2.254217e-03  0 
 -1.472277e-03  -2.229943e-03  0 
 -1.281164e-03  -2.211861e-03  0 
 -1.115849e-03  -2.206112e-03  0 
 -9.739902e-04  -2.217911e-03  0 
 -8.585880e-04  -2.253372e-03  0 
 -7.818306e-04  -2.320398e-03  0 
VECTORS displacement_ITER4 FLOAT
 -9.760351e-04  -4.812949e-04  0 
 -3.371754e-04  -6.242667e-04  0 
 -2.490240e-03  -2.742403e-03  0 
 -8.609485e-04  -2.551541e-03  0 
 -1.333964e-03  -6.858034e-04  0 
 -1.351763e-03  -7.135615e-04  0 
 -1.285791e-03  -7.135412e-04  0 
 -1.172580e-03  -7.055046e-04  0 
 -1.030665e-03  -6.949785e-04  0 
 -8.715809e-04  -6.835492e-04  0 
 -6.992870e-04  -6.723893e-04  0 
 -5.242411e-04  -6.592161e-04  0 
 -1.439243e-03  -7.012471e-04  0 
 -1.649601e-03  -9.093644e-04  0 
 -1.778828e-03  -1.119192e-03  0 
 -1.875570e-03  -1.327718e-03  0 
 -1.958743e-03  -1.534002e-03  0 
 -2.041550e-03  -1.747558e-03  0 
 -2.140924e-03  -1.977708e-03  0 
 -2.281239e-03  -2.262829e-03  0 
 -3.363419e-04  -8.424082e-04  0 
 -3.369520e-04  -1.034785e-03  0 
 -3.403301e-04  -1.226555e-03  0 
 -3.462782e-04  -1.420945e-03  0 
 -3.636839e-04  -1.620929e-03  0 
 -3.941350e-04  -1.827369e-03  0 
 -4.528685e-04  -2.045555e-03  0 
 -5.696561e-04  -2.276165e-03  0 
 -1.947130e-03  -2.608400e-03  0 
 -1.644642e-03  -2.497925e-03  0 
 -1.414816e-03  -2.424324e-03  0 
 -1.222351e-03  -2.375067e-03  0 
 -1.055578e-03  -2.345868e-03  0 
 -9.123462e-04  -2.332601e-03  0 
 -7.983948e-04  -2.339347e-03  0 
 -7.306140e-04  -2.380177e-03  0 
 -1.343546e-03  -6.757487e-04  0 
 -1.352248e-03  -7.664223e-04  0 
 -1.283830e-03  -8.139919e-04  0 
 -1.172352e-03  -8.379233e-04  0 
 -1.032682e-03  -8.488056e-04  0 
 -8.743720e-04  -8.518876e-04  0 
 -7.044188e-04  -8.491990e-04  0 
 -5.275680e-04  -8.426510e-04  0 
 -1.479044e-03  -8.805404e-04  0 
 -1.372475e-03  -8.952496e-04  0 
 -1.284405e-03  -9.444200e-04  0 
 -1.169753e-03  -9.836735e-04  0 
 -1.031388e-03  -1.009784e-03  0 
 -8.751440e-04  -1.024629e-03  0 
 -7.059902e-04  -1.031082e-03  0 
 -5.256016e-04  -1.034068e-03  0 
 -1.590739e-03  -1.094047e-03  0 
 -1.435086e-03  -1.090368e-03  0 
 -1.302473e-03  -1.114178e-03  0 
 -1.172854e-03  -1.151481e-03  0 
 -1.031293e-03  -1.184323e-03  0 
 -8.758518e-04  -1.207035e-03  0 
 -7.073081e-04  -1.219903e-03  0 
 -5.275800e-04  -1.225297e-03  0 
 -1.678991e-03  -1.305787e-03  0 
 -1.498787e-03  -1.299000e-03  0 
 -1.335539e-03  -1.312835e-03  0 
 -1.184210e-03  -1.342454e-03  0 
 -1.035331e-03  -1.375649e-03  0 
 -8.801852e-04  -1.401648e-03  0 
 -7.140850e-04  -1.416480e-03  0 
 -5.360192e-04  -1.421510e-03  0 
 -1.752458e-03  -1.515939e-03  0 
 -1.552988e-03  -1.511096e-03  0 
 -1.367013e-03  -1.523621e-03  0 
 -1.198016e-03  -1.549586e-03  0 
 -1.042622e-03  -1.580777e-03  0 
 -8.905140e-04  -1.607479e-03  0 
 -7.301000e-04  -1.622481e-03  0 
 -5.545200e-04  -1.625035e-03  0 
 -1.817712e-03  -1.729615e-03  0 
 -1.594431e-03  -1.728873e-03  0 
 -1.387805e-03  -1.742404e-03  0 
 -1.206596e-03  -1.763682e-03  0 
 -1.048531e-03  -1.789861e-03  0 
 -9.045326e-04  -1.817807e-03  0 
 -7.573544e-04  -1.836380e-03  0 
 -5.895620e-04  -1.837723e-03  0 
 -1.877350e-03  -1.959823e-03  0 
 -1.619196e-03  -1.963099e-03  0 
 -1.396200e-03  -1.970193e-03  0 
 -1.209526e-03  -1.977218e-03  0 
 -1.050288e-03  -1.991097e-03  0 
 -9.127683e-04  -2.015881e-03  0 
 -7.909088e-04  -2.049293e-03  0 
 -6.478946e-04  -2.060395e-03  0 
 -1.922598e-03  -2.238933e-03  0 
 -1.627485e-03  -2.226184e-03  0 
 -1.401333e-03  -2.201844e-03  0 
 -1.212812e-03  -2.183210e-03  0 
 -1.050794e-03  -2.176981e-03  0 
 -9.126242e-04  -2.187786e-03  0 
 -8.013053e-04  -2.221840e-03  0 
 -7.308894e-04  -2.288622e-03  0 
VECTORS displacement_ITER5 FLOAT
 -9.561964e-04  -4.900412e-04  0 
 -3.340697e-04  -6.197062e-04  0 
 -2.484392e-03  -2.742437e-03  0 
 -8.692586e-04  -2.538517e-03  0 
 -1.324665e-03  -6.930110e-04  0 
 -1.344188e-03  -7.162400e-04  0 
 -1.276623e-03  -7.145435e-04  0 
 -1.163525e-03  -7.073338e-04  0 
 -1.023686e-03  -6.980935e-04  0 
 -8.667000e-04  -6.868627e-04  0 
 -6.982846e-04  -6.739941e-04  0 
 -5.227388e-04  -6.569885e-04  0 
 -1.424347e-03  -7.045638e-04  0 
 -1.635807e-03  -9.090733e-04  0 
 -1.766462e-03  -1.117422e-03  0 
 -1.864641e-03  -1.322931e-03  0 
 -1.948450e-03  -1.529172e-03  0 
 -2.031286e-03  -1.741885e-03  0 
 -2.130075e-03  -1.972705e-03  0 
 -2.271152e-03  -2.255755e-03  0 
 -3.338910e-04  -8.410236e-04  0 
 -3.360783e-04  -1.034011e-03  0 
 -3.393520e-04  -1.224865e-03  0 
 -3.461148e-04  -1.418321e-03  0 
 -3.628058e-04  -1.616780e-03  0 
 -3.954444e-04  -1.823013e-03  0 
 -4.556248e-04  -2.039676e-03  0 
 -5.729873e-04  -2.265286e-03  0 
 -1.935385e-03  -2.602458e-03  0 
 -1.634604e-03  -2.490486e-03  0 
 -1.406398e-03  -2.414930e-03  0 
 -1.215085e-03  -2.364437e-03  0 
 -1.049100e-03  -2.333993e-03  0 
 -9.075014e-04  -2.321610e-03  0 
 -7.957820e-04  -2.327351e-03  0 
 -7.304531e-04  -2.365295e-03  0 
 -1.332738e-03  -6.777670e-04  0 
 -1.344030e-03  -7.686000e-04  0 
 -1.275614e-03  -8.155818e-04  0 
 -1.164367e-03  -8.389160e-04  0 
 -1.026177e-03  -8.495680e-04  0 
 -8.703177e-04  -8.521958e-04  0 
 -7.026223e-04  -8.489427e-04  0 
 -5.265302e-04  -8.419520e-04  0 
 -1.468120e-03  -8.802774e-04  0 
 -1.363464e-03  -8.951916e-04  0 
 -1.276524e-03  -9.445751e-04  0 
 -1.162719e-03  -9.835000e-04  0 
 -1.025685e-03  -1.009086e-03  0 
 -8.712077e-04  -1.023581e-03  0 
 -7.036224e-04  -1.030018e-03  0 
 -5.240628e-04  -1.033188e-03  0 
 -1.580130e-03  -1.091644e-03  0 
 -1.425851e-03  -1.088383e-03  0 
 -1.294509e-03  -1.112537e-03  0 
 -1.166159e-03  -1.149880e-03  0 
 -1.025949e-03  -1.182538e-03  0 
 -8.719208e-04  -1.205128e-03  0 
 -7.046334e-04  -1.218052e-03  0 
 -5.259887e-04  -1.223615e-03  0 
 -1.668662e-03  -1.301849e-03  0 
 -1.489406e-03  -1.295479e-03  0 
 -1.327368e-03  -1.309653e-03  0 
 -1.177402e-03  -1.339463e-03  0 
 -1.029949e-03  -1.372757e-03  0 
 -8.762264e-04  -1.398848e-03  0 
 -7.114582e-04  -1.413764e-03  0 
 -5.344167e-04  -1.418737e-03  0 
 -1.742173e-03  -1.511024e-03  0 
 -1.543424e-03  -1.506443e-03  0 
 -1.358559e-03  -1.519148e-03  0 
 -1.190899e-03  -1.545283e-03  0 
 -1.036996e-03  -1.576638e-03  0 
 -8.864587e-04  -1.603529e-03  0 
 -7.276316e-04  -1.618758e-03  0 
 -5.535024e-04  -1.621381e-03  0 
 -1.807369e-03  -1.724246e-03  0 
 -1.584707e-03  -1.723307e-03  0 
 -1.379037e-03  -1.736812e-03  0 
 -1.199141e-03  -1.758072e-03  0 
 -1.042613e-03  -1.784268e-03  0 
 -9.003081e-04  -1.812372e-03  0 
 -7.549235e-04  -1.831237e-03  0 
 -5.890272e-04  -1.833104e-03  0 
 -1.867095e-03  -1.953776e-03  0 
 -1.609250e-03  -1.956833e-03  0 
 -1.387151e-03  -1.963552e-03  0 
 -1.201844e-03  -1.970191e-03  0 
 -1.044179e-03  -1.983815e-03  0 
 -9.083007e-04  -2.008549e-03  0 
 -7.884120e-04  -2.042278e-03  0 
 -6.475763e-04  -2.053637e-03  0 
 -1.911927e-03  -2.232687e-03  0 
 -1.617257e-03  -2.219427e-03  0 
 -1.392304e-03  -2.194064e-03  0 
 -1.205101e-03  -2.174417e-03  0 
 -1.044626e-03  -2.167787e-03  0 
 -9.080535e-04  -2.178365e-03  0 
 -7.983689e-04  -2.212205e-03  0 
 -7.313268e-04  -2.279313e-03  0 
VECTORS displacement_ITER6 FLOAT
 -9.604672e-04  -5.205914e-04  0 
 -3.436110e-04  -6.334787e-04  0 
 -2.493462e-03  -2.760524e-03  0 
 -8.840477e-04  -2.558385e-03  0 
 -1.335082e-03  -7.201510e-04  0 
 -1.354592e-03  -7.399915e-04  0 
 -1.285951e-03  -7.372839e-04  0 
 -1.173081e-03  -7.305322e-04  0 
 -1.035001e-03  -7.212688e-04  0 
 -8.794335e-04  -7.094355e-04  0 
 -7.125189e-04  -6.946355e-04  0 
 -5.354789e-04  -6.738350e-04  0 
 -1.430770e-03  -7.298036e-04  0 
 -1.642603e-03  -9.315512e-04  0 
 -1.774009e-03  -1.138124e-03  0 
 -1.872732e-03  -1.342325e-03  0 
 -1.956905e-03  -1.549474e-03  0 
 -2.039972e-03  -1.762116e-03  0 
 -2.137974e-03  -1.992646e-03  0 
 -2.278169e-03  -2.272933e-03  0 
 -3.443691e-04  -8.604891e-04  0 
 -3.479375e-04  -1.054610e-03  0 
 -3.508737e-04  -1.245498e-03  0 
 -3.577815e-04  -1.439126e-03  0 
 -3.735785e-04  -1.637920e-03  0 
 -4.073040e-04  -1.844795e-03  0 
 -4.689298e-04  -2.061048e-03  0 
 -5.867541e-04  -2.285239e-03  0 
 -1.942362e-03  -2.619762e-03  0 
 -1.644259e-03  -2.508279e-03  0 
 -1.416792e-03  -2.432967e-03  0 
 -1.226047e-03  -2.383119e-03  0 
 -1.060721e-03  -2.352890e-03  0 
 -9.192163e-04  -2.341459e-03  0 
 -8.072088e-04  -2.347639e-03  0 
 -7.428094e-04  -2.384097e-03  0 
 -1.342172e-03  -7.022274e-04  0 
 -1.354519e-03  -7.925949e-04  0 
 -1.285792e-03  -8.387273e-04  0 
 -1.174797e-03  -8.612476e-04  0 
 -1.037657e-03  -8.713249e-04  0 
 -8.831184e-04  -8.732678e-04  0 
 -7.162418e-04  -8.692240e-04  0 
 -5.395665e-04  -8.616080e-04  0 
 -1.477134e-03  -9.028205e-04  0 
 -1.373620e-03  -9.178614e-04  0 
 -1.287207e-03  -9.670225e-04  0 
 -1.173835e-03  -1.005332e-03  0 
 -1.037495e-03  -1.030268e-03  0 
 -8.837705e-04  -1.044305e-03  0 
 -7.164885e-04  -1.050571e-03  0 
 -5.363969e-04  -1.053828e-03  0 
 -1.589008e-03  -1.112678e-03  0 
 -1.435740e-03  -1.109855e-03  0 
 -1.305212e-03  -1.134096e-03  0 
 -1.177524e-03  -1.171207e-03  0 
 -1.037876e-03  -1.203525e-03  0 
 -8.842400e-04  -1.225903e-03  0 
 -7.169883e-04  -1.238800e-03  0 
 -5.380890e-04  -1.244369e-03  0 
 -1.677405e-03  -1.322120e-03  0 
 -1.499064e-03  -1.316149e-03  0 
 -1.337918e-03  -1.330505e-03  0 
 -1.188702e-03  -1.360330e-03  0 
 -1.041795e-03  -1.393584e-03  0 
 -8.883847e-04  -1.419683e-03  0 
 -7.236643e-04  -1.434630e-03  0 
 -5.463162e-04  -1.439542e-03  0 
 -1.750908e-03  -1.531082e-03  0 
 -1.552951e-03  -1.526649e-03  0 
 -1.368958e-03  -1.539482e-03  0 
 -1.202038e-03  -1.565737e-03  0 
 -1.048683e-03  -1.597228e-03  0 
 -8.984913e-04  -1.624298e-03  0 
 -7.398087e-04  -1.639742e-03  0 
 -5.655261e-04  -1.642505e-03  0 
 -1.816203e-03  -1.744287e-03  0 
 -1.594261e-03  -1.743166e-03  0 
 -1.389365e-03  -1.756728e-03  0 
 -1.210156e-03  -1.778138e-03  0 
 -1.054149e-03  -1.804534e-03  0 
 -9.121968e-04  -1.832928e-03  0 
 -7.670219e-04  -1.852183e-03  0 
 -6.011680e-04  -1.854580e-03  0 
 -1.876010e-03  -1.973238e-03  0 
 -1.618855e-03  -1.976240e-03  0 
 -1.397465e-03  -1.983050e-03  0 
 -1.212835e-03  -1.989844e-03  0 
 -1.055644e-03  -2.003708e-03  0 
 -9.200367e-04  -2.028749e-03  0 
 -8.003792e-04  -2.062948e-03  0 
 -6.598424e-04  -2.074751e-03  0 
 -1.920489e-03  -2.251011e-03  0 
 -1.626706e-03  -2.238242e-03  0 
 -1.402689e-03  -2.212963e-03  0 
 -1.216110e-03  -2.193568e-03  0 
 -1.056121e-03  -2.187320e-03  0 
 -9.197783e-04  -2.198196e-03  0 
 -8.100602e-04  -2.232334e-03  0 
 -7.438439e-04  -2.299822e-03  0 
VECTORS displacement_ITER7 FLOAT
 -9.710042e-04  -5.385992e-04  0 
 -3.544495e-04  -6.376921e-04  0 
 -2.504550e-03  -2.764020e-03  0 
 -9.021676e-04  -2.561929e-03  0 
 -1.348026e-03  -7.341774e-04  0 
 -1.367626e-03  -7.514689e-04  0 
 -1.299276e-03  -7.482300e-04  0 
 -1.186890e-03  -7.416292e-04  0 
 -1.049627e-03  -7.318757e-04  0 
 -8.947868e-04  -7.192239e-04  0 
 -7.280955e-04  -7.029820e-04  0 
 -5.502681e-04  -6.799763e-04  0 
 -1.441030e-03  -7.420423e-04  0 
 -1.652951e-03  -9.416525e-04  0 
 -1.784693e-03  -1.146927e-03  0 
 -1.883537e-03  -1.350718e-03  0 
 -1.967777e-03  -1.557449e-03  0 
 -2.050758e-03  -1.769422e-03  0 
 -2.148265e-03  -1.998761e-03  0 
 -2.287665e-03  -2.277022e-03  0 
 -3.573618e-04  -8.687918e-04  0 
 -3.626635e-04  -1.063438e-03  0 
 -3.660933e-04  -1.254073e-03  0 
 -3.733170e-04  -1.447386e-03  0 
 -3.894499e-04  -1.646434e-03  0 
 -4.238069e-04  -1.852914e-03  0 
 -4.864402e-04  -2.067934e-03  0 
 -6.047722e-04  -2.291374e-03  0 
 -1.952971e-03  -2.623495e-03  0 
 -1.656627e-03  -2.512472e-03  0 
 -1.429389e-03  -2.438058e-03  0 
 -1.239185e-03  -2.388871e-03  0 
 -1.075109e-03  -2.358754e-03  0 
 -9.342325e-04  -2.346931e-03  0 
 -8.222505e-04  -2.352990e-03  0 
 -7.591369e-04  -2.388498e-03  0 
 -1.355009e-03  -7.145013e-04  0 
 -1.367930e-03  -8.041229e-04  0 
 -1.299335e-03  -8.495262e-04  0 
 -1.188845e-03  -8.715345e-04  0 
 -1.052434e-03  -8.811493e-04  0 
 -8.985195e-04  -8.825308e-04  0 
 -7.318653e-04  -8.778949e-04  0 
 -5.544216e-04  -8.699988e-04  0 
 -1.489257e-03  -9.131456e-04  0 
 -1.386819e-03  -9.283458e-04  0 
 -1.300962e-03  -9.772221e-04  0 
 -1.188100e-03  -1.015092e-03  0 
 -1.052335e-03  -1.039645e-03  0 
 -8.990607e-04  -1.053407e-03  0 
 -7.318221e-04  -1.059569e-03  0 
 -5.512939e-04  -1.062849e-03  0 
 -1.600760e-03  -1.121819e-03  0 
 -1.448555e-03  -1.119224e-03  0 
 -1.318865e-03  -1.143479e-03  0 
 -1.191813e-03  -1.180421e-03  0 
 -1.052677e-03  -1.212562e-03  0 
 -8.993869e-04  -1.234869e-03  0 
 -7.322375e-04  -1.247761e-03  0 
 -5.532851e-04  -1.253194e-03  0 
 -1.689009e-03  -1.330529e-03  0 
 -1.511621e-03  -1.324655e-03  0 
 -1.351355e-03  -1.339081e-03  0 
 -1.202849e-03  -1.368924e-03  0 
 -1.056474e-03  -1.402194e-03  0 
 -9.034493e-04  -1.428348e-03  0 
 -7.390076e-04  -1.443330e-03  0 
 -5.618429e-04  -1.448147e-03  0 
 -1.762490e-03  -1.538908e-03  0 
 -1.565388e-03  -1.534443e-03  0 
 -1.382225e-03  -1.547319e-03  0 
 -1.216003e-03  -1.573663e-03  0 
 -1.063202e-03  -1.605278e-03  0 
 -9.134803e-04  -1.632490e-03  0 
 -7.552320e-04  -1.648062e-03  0 
 -5.813272e-04  -1.650905e-03  0 
 -1.827762e-03  -1.751434e-03  0 
 -1.606673e-03  -1.750242e-03  0 
 -1.402544e-03  -1.763851e-03  0 
 -1.223974e-03  -1.785387e-03  0 
 -1.068503e-03  -1.811941e-03  0 
 -9.270593e-04  -1.840514e-03  0 
 -7.824436e-04  -1.859967e-03  0 
 -6.171530e-04  -1.862565e-03  0 
 -1.887504e-03  -1.979401e-03  0 
 -1.631255e-03  -1.982469e-03  0 
 -1.410584e-03  -1.989462e-03  0 
 -1.226552e-03  -1.996452e-03  0 
 -1.069852e-03  -2.010487e-03  0 
 -9.347554e-04  -2.035631e-03  0 
 -8.157257e-04  -2.069949e-03  0 
 -6.760653e-04  -2.081916e-03  0 
 -1.931827e-03  -2.255805e-03  0 
 -1.638973e-03  -2.243566e-03  0 
 -1.415708e-03  -2.218612e-03  0 
 -1.229675e-03  -2.199670e-03  0 
 -1.070263e-03  -2.193591e-03  0 
 -9.344848e-04  -2.204340e-03  0 
 -8.253267e-04  -2.238341e-03  0 
 -7.600904e-04  -2.305772e-03  0 
VECTORS displacement_ITER8 FLOAT
 -9.795575e-04  -5.489466e-04  0 
 -3.511742e-04  -6.382083e-04  0 
 -2.512782e-03  -2.776045e-03  0 
 -9.033020e-04  -2.573024e-03  0 
 -1.356370e-03  -7.412571e-04  0 
 -1.374798e-03  -7.572905e-04  0 
 -1.305690e-03  -7.538310e-04  0 
 -1.192478e-03  -7.469809e-04  0 
 -1.054304e-03  -7.366890e-04  0 
 -8.987443e-04  -7.234270e-04  0 
 -7.308754e-04  -7.064184e-04  0 
 -5.516923e-04  -6.823035e-04  0 
 -1.448946e-03  -7.490779e-04  0 
 -1.661255e-03  -9.490447e-04  0 
 -1.793305e-03  -1.155021e-03  0 
 -1.892165e-03  -1.360041e-03  0 
 -1.976183e-03  -1.567028e-03  0 
 -2.058776e-03  -1.779709e-03  0 
 -2.156036e-03  -2.009544e-03  0 
 -2.295258e-03  -2.288174e-03  0 
 -3.559253e-04  -8.737667e-04  0 
 -3.626878e-04  -1.070153e-03  0 
 -3.667875e-04  -1.261749e-03  0 
 -3.740396e-04  -1.455833e-03  0 
 -3.905806e-04  -1.656087e-03  0 
 -4.248361e-04  -1.863340e-03  0 
 -4.875567e-04  -2.078784e-03  0 
 -6.062610e-04  -2.303237e-03  0 
 -1.960240e-03  -2.635603e-03  0 
 -1.663689e-03  -2.524616e-03  0 
 -1.435594e-03  -2.450731e-03  0 
 -1.244403e-03  -2.401609e-03  0 
 -1.079502e-03  -2.371642e-03  0 
 -9.376205e-04  -2.359493e-03  0 
 -8.243815e-04  -2.365339e-03  0 
 -7.606660e-04  -2.400509e-03  0 
 -1.363471e-03  -7.219643e-04  0 
 -1.375403e-03  -8.110534e-04  0 
 -1.305819e-03  -8.559775e-04  0 
 -1.194519e-03  -8.776522e-04  0 
 -1.057305e-03  -8.868974e-04  0 
 -9.024953e-04  -8.878980e-04  0 
 -7.347689e-04  -8.829315e-04  0 
 -5.556448e-04  -8.749711e-04  0 
 -1.497198e-03  -9.205736e-04  0 
 -1.394229e-03  -9.358709e-04  0 
 -1.307530e-03  -9.845037e-04  0 
 -1.193818e-03  -1.022081e-03  0 
 -1.057201e-03  -1.046396e-03  0 
 -9.029730e-04  -1.059996e-03  0 
 -7.345490e-04  -1.066147e-03  0 
 -5.525775e-04  -1.069582e-03  0 