# vtk DataFile Version 3.1
this is an vtk file created by FEMAC
ASCII
DATASET UNSTRUCTURED_GRID
POINTS 100 FLOAT
3.000000 2.000000 0.000000
3.000000 3.000000 0.000000
4.000000 2.000000 0.000000
4.000000 3.000000 0.000000
3.000000 2.111111 0.000000
3.000000 2.222222 0.000000
3.000000 2.333333 0.000000
3.000000 2.444444 0.000000
3.000000 2.555556 0.000000
3.000000 2.666667 0.000000
3.000000 2.777778 0.000000
3.000000 2.888889 0.000000
3.111111 2.000000 0.000000
3.222222 2.000000 0.000000
3.333333 2.000000 0.000000
3.444444 2.000000 0.000000
3.555556 2.000000 0.000000
3.666667 2.000000 0.000000
3.777778 2.000000 0.000000
3.888889 2.000000 0.000000
3.111111 3.000000 0.000000
3.222222 3.000000 0.000000
3.333333 3.000000 0.000000
3.444444 3.000000 0.000000
3.555556 3.000000 0.000000
3.666667 3.000000 0.000000
3.777778 3.000000 0.000000
3.888889 3.000000 0.000000
4.000000 2.111111 0.000000
4.000000 2.222222 0.000000
4.000000 2.333333 0.000000
4.000000 2.444444 0.000000
4.000000 2.555556 0.000000
4.000000 2.666667 0.000000
4.000000 2.777778 0.000000
4.000000 2.888889 0.000000
3.111111 2.111111 0.000000
3.111111 2.222222 0.000000
3.111111 2.333333 0.000000
3.111111 2.444444 0.000000
3.111111 2.555556 0.000000
3.111111 2.666667 0.000000
3.111111 2.777778 0.000000
3.111111 2.888889 0.000000
3.222222 2.111111 0.000000
3.222222 2.222222 0.000000
3.222222 2.333333 0.000000
3.222222 2.444444 0.000000
3.222222 2.555556 0.000000
3.222222 2.666667 0.000000
3.222222 2.777778 0.000000
3.222222 2.888889 0.000000
3.333333 2.111111 0.000000
3.333333 2.222222 0.000000
3.333333 2.333333 0.000000
3.333333 2.444444 0.000000
3.333333 2.555556 0.000000
3.333333 2.666667 0.000000
3.333333 2.777778 0.000000
3.333333 2.888889 0.000000
3.444444 2.111111 0.000000
3.444444 2.222222 0.000000
3.444444 2.333333 0.000000
3.444444 2.444444 0.000000
3.444444 2.555556 0.000000
3.444444 2.666667 0.000000
3.444444 2.777778 0.000000
3.444444 2.888889 0.000000
3.555556 2.111111 0.000000
3.555556 2.222222 0.000000
3.555556 2.333333 0.000000
3.555556 2.444444 0.000000
3.555556 2.555556 0.000000
3.555556 2.666667 0.000000
3.555556 2.777778 0.000000
3.555556 2.888889 0.000000
3.666667 2.111111 0.000000
3.666667 2.222222 0.000000
3.666667 2.333333 0.000000
3.666667 2.444444 0.000000
3.666667 2.555556 0.000000
3.666667 2.666667 0.000000
3.666667 2.777778 0.000000
3.666667 2.888889 0.000000
3.777778 2.111111 0.000000
3.777778 2.222222 0.000000
3.777778 2.333333 0.000000
3.777778 2.444444 0.000000
3.777778 2.555556 0.000000
3.777778 2.666667 0.000000
3.777778 2.777778 0.000000
3.777778 2.888889 0.000000
3.888889 2.111111 0.000000
3.888889 2.222222 0.000000
3.888889 2.333333 0.000000
3.888889 2.444444 0.000000
3.888889 2.555556 0.000000
3.888889 2.666667 0.000000
3.888889 2.777778 0.000000
3.888889 2.888889 0.000000
CELLS 81 405 
4 0 12 36  4
4 4 36 37  5
4 5 37 38  6
4 6 38 39  7
4 7 39 40  8
4 8 40 41  9
4 9 41 42 10
4 10 42 43 11
4 11 43 20  1
4 12 13 44 36
4 36 44 45 37
4 37 45 46 38
4 38 46 47 39
4 39 47 48 40
4 40 48 49 41
4 41 49 50 42
4 42 50 51 43
4 43 51 21 20
4 13 14 52 44
4 44 52 53 45
4 45 53 54 46
4 46 54 55 47
4 47 55 56 48
4 48 56 57 49
4 49 57 58 50
4 50 58 59 51
4 51 59 22 21
4 14 15 60 52
4 52 60 61 53
4 53 61 62 54
4 54 62 63 55
4 55 63 64 56
4 56 64 65 57
4 57 65 66 58
4 58 66 67 59
4 59 67 23 22
4 15 16 68 60
4 60 68 69 61
4 61 69 70 62
4 62 70 71 63
4 63 71 72 64
4 64 72 73 65
4 65 73 74 66
4 66 74 75 67
4 67 75 24 23
4 16 17 76 68
4 68 76 77 69
4 69 77 78 70
4 70 78 79 71
4 71 79 80 72
4 72 80 81 73
4 73 81 82 74
4 74 82 83 75
4 75 83 25 24
4 17 18 84 76
4 76 84 85 77
4 77 85 86 78
4 78 86 87 79
4 79 87 88 80
4 80 88 89 81
4 81 89 90 82
4 82 90 91 83
4 83 91 26 25
4 18 19 92 84
4 84 92 93 85
4 85 93 94 86
4 86 94 95 87
4 87 95 96 88
4 88 96 97 89
4 89 97 98 90
4 90 98 99 91
4 91 99 27 26
4 19  2 28 92
4 92 28 29 93
4 93 29 30 94
4 94 30 31 95
4 95 31 32 96
4 96 32 33 97
4 97 33 34 98
4 98 34 35 99
4 99 35  3 27
CELL_TYPES 81
9 9 9 9 9 9 9 9 9 9 9 9 9 9 9 9 9 9 9 9 9 9 9 9 9 9 9 9 9 9 9 9 9 9 9 9 9 9 9 9 9 9 9 9 9 9 9 9 9 9 9 9 9 9 9 9 9 9 9 9 9 9 9 9 9 9 9 9 9 9 9 9 9 9 9 9 9 9 9 9 9 
POINT_DATA 100
VECTORS displacement_ITER1 FLOAT
 -3.240465e-03  -6.462315e-03  0 
 9.983996e-04  -7.363893e-03  0 
 -3.917972e-03  -1.236695e-02  0 
 9.685864e-04  -1.170964e-02  0 
 -1.424037e-03  -7.085106e-03  0 
 -9.537306e-04  -6.939695e-03  0 
 -8.943644e-04  -7.922515e-03  0 
 -9.757179e-04  -8.192744e-03  0 
 -7.211746e-04  -7.862548e-03  0 
 -4.461956e-04  -7.606434e-03  0 
 2.635834e-04  -6.655715e-03  0 
 5.628222e-04  -6.980124e-03  0 
 -2.295200e-03  -8.812934e-03  0 
 -2.209298e-03  -9.889096e-03  0 
 -2.407805e-03  -9.853742e-03  0 
 -2.567902e-03  -1.006884e-02  0 
 -2.334812e-03  -1.051871e-02  0 
 -2.217109e-03  -1.084308e-02  0 
 -2.191671e-03  -1.098297e-02  0 
 -3.206095e-03  -1.132123e-02  0 
 5.980760e-06  -8.564492e-03  0 
 5.568141e-04  -8.846722e-03  0 
 1.254840e-03  -9.140771e-03  0 
 1.692825e-03  -9.804663e-03  0 
 1.516584e-03  -1.063903e-02  0 
 9.414634e-04  -1.136416e-02  0 
 2.938848e-04  -1.157269e-02  0 
 3.685024e-04  -1.148944e-02  0 
 -2.630440e-03  -1.261168e-02  0 
 -2.172070e-03  -1.218923e-02  0 
 -1.714077e-03  -1.189895e-02  0 
 -1.282926e-03  -1.208459e-02  0 
 -7.103270e-04  -1.238273e-02  0 
 -9.365180e-05  -1.239172e-02  0 
 2.265533e-04  -1.253547e-02  0 
 6.753955e-04  -1.238834e-02  0 
 -1.668498e-03  -8.436870e-03  0 
 -1.127275e-03  -8.236621e-03  0 
 -8.632676e-04  -8.199146e-03  0 
 -8.705578e-04  -8.295251e-03  0 
 -7.411995e-04  -8.273274e-03  0 
 -4.514785e-04  -8.086813e-03  0 
 4.754882e-05  -7.998372e-03  0 
 5.048171e-04  -8.063199e-03  0 
 -1.909775e-03  -9.298779e-03  0 
 -1.444724e-03  -8.995613e-03  0 
 -1.093976e-03  -8.817444e-03  0 
 -8.817037e-04  -8.740329e-03  0 
 -6.911396e-04  -8.721213e-03  0 
 -3.636766e-04  -8.698196e-03  0 
 1.022739e-04  -8.648076e-03  0 
 5.112440e-04  -8.602797e-03  0 
 -2.112670e-03  -9.746527e-03  0 
 -1.673386e-03  -9.585735e-03  0 
 -1.294639e-03  -9.420201e-03  0 
 -9.785875e-04  -9.312168e-03  0 
 -6.768938e-04  -9.278396e-03  0 
 -3.223451e-04  -9.275133e-03  0 
 1.204133e-04  -9.228657e-03  0 
 6.550702e-04  -9.131611e-03  0 
 -2.128240e-03  -1.013754e-02  0 
 -1.792129e-03  -1.007177e-02  0 
 -1.434640e-03  -9.958284e-03  0 
 -1.070790e-03  -9.875968e-03  0 
 -7.038938e-04  -9.851970e-03  0 
 -3.226382e-04  -9.868467e-03  0 
 1.173631e-04  -9.882910e-03  0 
 7.178493e-04  -9.854627e-03  0 
 -2.131739e-03  -1.053987e-02  0 
 -1.863994e-03  -1.048042e-02  0 
 -1.526667e-03  -1.042271e-02  0 
 -1.135032e-03  -1.039264e-02  0 
 -7.266598e-04  -1.039707e-02  0 
 -3.118165e-04  -1.044743e-02  0 
 1.262376e-04  -1.054940e-02  0 
 6.719115e-04  -1.066332e-02  0 
 -2.171961e-03  -1.084299e-02  0 
 -1.946189e-03  -1.082096e-02  0 
 -1.578430e-03  -1.084467e-02  0 
 -1.168168e-03  -1.087055e-02  0 
 -7.346503e-04  -1.090151e-02  0 
 -2.776229e-04  -1.096852e-02  0 
 1.766768e-04  -1.110181e-02  0 
 5.731028e-04  -1.129463e-02  0 
 -2.343362e-03  -1.102708e-02  0 
 -1.987451e-03  -1.116487e-02  0 
 -1.594402e-03  -1.127033e-02  0 
 -1.192088e-03  -1.131497e-02  0 
 -7.421283e-04  -1.136692e-02  0 
 -2.484994e-04  -1.144118e-02  0 
 2.354182e-04  -1.151281e-02  0 
 5.444099e-04  -1.158313e-02  0 
 -2.499185e-03  -1.145770e-02  0 
 -1.967529e-03  -1.163823e-02  0 
 -1.622977e-03  -1.167279e-02  0 
 -1.249761e-03  -1.172301e-02  0 
 -7.361982e-04  -1.180546e-02  0 
 -2.194367e-04  -1.192817e-02  0 
 2.353792e-04  -1.192703e-02  0 
 5.819641e-04  -1.173761e-02  0 
VECTORS displacement_ITER2 FLOAT
 -6.296519e-04  -6.384523e-03  0 
 9.451692e-04  -5.992710e-03  0 
 -2.368568e-03  -8.859471e-03  0 
 1.291350e-03  -9.424481e-03  0 
 -1.477843e-03  -5.595680e-03  0 
 -1.400589e-03  -5.313977e-03  0 
 -1.417624e-03  -5.138915e-03  0 
 -5.655682e-04  -5.085063e-03  0 
 -1.122177e-04  -5.498463e-03  0 
 6.792257e-05  -5.846400e-03  0 
 2.847473e-04  -5.876547e-03  0 
 5.412047e-04  -5.678757e-03  0 
 -1.137508e-03  -5.886307e-03  0 
 -2.100502e-03  -6.500045e-03  0 
 -2.653302e-03  -7.083043e-03  0 
 -2.731011e-03  -7.664872e-03  0 
 -2.611167e-03  -8.279333e-03  0 
 -2.497724e-03  -8.869627e-03  0 
 -2.160703e-03  -9.264356e-03  0 
 -2.123873e-03  -8.993012e-03  0 
 4.817265e-04  -6.779904e-03  0 
 7.565814e-04  -6.834272e-03  0 
 1.042828e-03  -7.157002e-03  0 
 9.109664e-04  -7.673929e-03  0 
 5.990536e-04  -8.084340e-03  0 
 4.486704e-04  -8.400719e-03  0 
 4.712222e-04  -8.822503e-03  0 
 7.804091e-04  -9.105824e-03  0 
 -2.218428e-03  -9.405284e-03  0 
 -2.205674e-03  -9.721419e-03  0 
 -1.645315e-03  -9.929709e-03  0 
 -9.635985e-04  -9.907806e-03  0 
 -4.925372e-04  -9.829002e-03  0 
 -4.477962e-05  -9.810372e-03  0 
 3.587912e-04  -9.713183e-03  0 
 7.548979e-04  -9.753263e-03  0 
 -1.572989e-03  -5.864389e-03  0 
 -1.499193e-03  -5.820933e-03  0 
 -1.170050e-03  -5.884708e-03  0 
 -6.574335e-04  -6.011175e-03  0 
 -1.785323e-04  -6.069667e-03  0 
 8.197268e-05  -6.175185e-03  0 
 2.788171e-04  -6.273364e-03  0 
 5.528510e-04  -6.441556e-03  0 
 -1.729701e-03  -6.282836e-03  0 
 -1.466122e-03  -6.382171e-03  0 
 -1.093520e-03  -6.505656e-03  0 
 -6.809586e-04  -6.597194e-03  0 
 -2.928138e-04  -6.641045e-03  0 
 3.219611e-05  -6.668995e-03  0 
 3.204911e-04  -6.729835e-03  0 
 6.014373e-04  -6.769525e-03  0 
 -1.962338e-03  -6.986632e-03  0 
 -1.479070e-03  -6.998574e-03  0 
 -1.084921e-03  -7.069409e-03  0 
 -7.110755e-04  -7.123329e-03  0 
 -3.575637e-04  -7.153722e-03  0 
 -2.684224e-05  -7.178448e-03  0 
 2.787716e-04  -7.200187e-03  0 
 5.831709e-04  -7.193430e-03  0 
 -2.076805e-03  -7.678446e-03  0 
 -1.552456e-03  -7.640218e-03  0 
 -1.129524e-03  -7.620603e-03  0 
 -7.575999e-04  -7.619086e-03  0 
 -4.057119e-04  -7.629136e-03  0 
 -7.513055e-05  -7.649439e-03  0 
 2.293217e-04  -7.676313e-03  0 
 5.309090e-04  -7.706824e-03  0 
 -2.092358e-03  -8.287908e-03  0 
 -1.632909e-03  -8.218597e-03  0 
 -1.220505e-03  -8.134012e-03  0 
 -8.271738e-04  -8.086011e-03  0 
 -4.509350e-04  -8.073025e-03  0 
 -1.018415e-04  -8.084874e-03  0 
 2.048787e-04  -8.115385e-03  0 
 4.602669e-04  -8.138802e-03  0 
 -2.083628e-03  -8.816965e-03  0 
 -1.740651e-03  -8.682672e-03  0 
 -1.335102e-03  -8.580849e-03  0 
 -9.081063e-04  -8.523401e-03  0 
 -4.921076e-04  -8.499661e-03  0 
 -1.095365e-04  -8.493445e-03  0 
 2.064749e-04  -8.495255e-03  0 
 4.021757e-04  -8.488012e-03  0 
 -2.181887e-03  -9.131494e-03  0 
 -1.880098e-03  -9.036497e-03  0 
 -1.448207e-03  -8.978279e-03  0 
 -9.769277e-04  -8.944340e-03  0 
 -5.163552e-04  -8.928365e-03  0 
 -1.083580e-04  -8.902725e-03  0 
 2.348330e-04  -8.849251e-03  0 
 4.570180e-04  -8.804219e-03  0 
 -2.281965e-03  -9.233818e-03  0 
 -2.018155e-03  -9.368586e-03  0 
 -1.552938e-03  -9.371825e-03  0 
 -9.996851e-04  -9.387903e-03  0 
 -5.126024e-04  -9.381727e-03  0 
 -9.127814e-05  -9.329499e-03  0 
 2.721948e-04  -9.265364e-03  0 
 6.170243e-04  -9.138062e-03  0 
VECTORS displacement_ITER3 FLOAT
 -1.686546e-03  -5.327572e-03  0 
 5.880658e-04  -5.276075e-03  0 
 -2.466092e-03  -8.629822e-03  0 
 1.301187e-03  -8.877557e-03  0 
 -1.265575e-03  -5.151786e-03  0 
 -8.991445e-04  -5.602856e-03  0 
 -9.285346e-04  -5.268195e-03  0 
 -3.955766e-04  -5.028594e-03  0 
 -2.733258e-04  -5.189222e-03  0 
 -1.987437e-04  -5.215605e-03  0 
 -1.251719e-04  -5.283174e-03  0 
 2.269885e-04  -4.981814e-03  0 
 -1.692541e-03  -6.159628e-03  0 
 -1.612812e-03  -6.561568e-03  0 
 -1.580307e-03  -6.838795e-03  0 
 -1.364059e-03  -7.024805e-03  0 
 -1.407995e-03  -7.215259e-03  0 
 -1.521769e-03  -7.535722e-03  0 
 -1.717555e-03  -8.050707e-03  0 
 -1.867391e-03  -8.241880e-03  0 
 5.815527e-04  -5.927855e-03  0 
 6.945703e-04  -6.325655e-03  0 
 4.600702e-04  -6.758521e-03  0 
 8.607518e-05  -7.034046e-03  0 
 -6.440367e-05  -7.153008e-03  0 
 6.065664e-05  -7.312710e-03  0 
 3.827494e-04  -7.723120e-03  0 
 7.823487e-04  -8.134751e-03  0 
 -1.595816e-03  -8.817306e-03  0 
 -1.257457e-03  -8.515974e-03  0 
 -1.037794e-03  -8.406838e-03  0 
 -7.755386e-04  -8.256629e-03  0 
 -6.258425e-04  -8.224048e-03  0 
 -3.155682e-04  -8.379233e-03  0 
 1.138199e-04  -8.431163e-03  0 
 5.464988e-04  -8.730777e-03  0 
 -1.270826e-03  -5.995496e-03  0 
 -1.029201e-03  -5.841266e-03  0 
 -8.695147e-04  -5.805484e-03  0 
 -5.796849e-04  -5.748050e-03  0 
 -3.324705e-04  -5.667443e-03  0 
 -1.988802e-04  -5.686235e-03  0 
 -5.108743e-05  -5.709138e-03  0 
 2.585518e-04  -5.789497e-03  0 
 -1.367727e-03  -6.449415e-03  0 
 -1.105416e-03  -6.331911e-03  0 
 -8.704763e-04  -6.257870e-03  0 
 -6.428817e-04  -6.216137e-03  0 
 -4.132628e-04  -6.176642e-03  0 
 -2.110111e-04  -6.170917e-03  0 
 -5.406716e-06  -6.232846e-03  0 
 2.665875e-04  -6.300805e-03  0 
 -1.362514e-03  -6.802975e-03  0 
 -1.148138e-03  -6.730107e-03  0 
 -9.092300e-04  -6.667277e-03  0 
 -6.733612e-04  -6.625858e-03  0 
 -4.431659e-04  -6.606457e-03  0 
 -2.176590e-04  -6.618916e-03  0 
 -4.789515e-06  -6.673646e-03  0 
 2.021124e-04  -6.753995e-03  0 
 -1.346201e-03  -7.061900e-03  0 
 -1.160715e-03  -7.047228e-03  0 
 -9.340873e-04  -7.019622e-03  0 
 -6.941032e-04  -6.992232e-03  0 
 -4.533866e-04  -6.977442e-03  0 
 -2.218286e-04  -6.981845e-03  0 
 -1.833992e-05  -7.008807e-03  0 
 1.166515e-04  -7.049492e-03  0 
 -1.317484e-03  -7.282161e-03  0 
 -1.154515e-03  -7.323836e-03  0 
 -9.422784e-04  -7.327151e-03  0 
 -7.068307e-04  -7.316236e-03  0 
 -4.661046e-04  -7.298331e-03  0 
 -2.361923e-04  -7.276852e-03  0 
 -4.381469e-05  -7.252912e-03  0 
 5.369452e-05  -7.213420e-03  0 
 -1.336296e-03  -7.571682e-03  0 
 -1.155565e-03  -7.591277e-03  0 
 -9.436930e-04  -7.608604e-03  0 
 -7.163996e-04  -7.608381e-03  0 
 -4.894569e-04  -7.582307e-03  0 
 -2.670245e-04  -7.534198e-03  0 
 -6.958222e-05  -7.467646e-03  0 
 5.511090e-05  -7.389998e-03  0 
 -1.440906e-03  -7.896919e-03  0 
 -1.185335e-03  -7.871789e-03  0 
 -9.402760e-04  -7.887559e-03  0 
 -7.323996e-04  -7.875905e-03  0 
 -5.238051e-04  -7.839623e-03  0 
 -3.066763e-04  -7.787548e-03  0 
 -7.277266e-05  -7.722070e-03  0 
 1.636484e-04  -7.670961e-03  0 
 -1.596459e-03  -8.199056e-03  0 
 -1.199870e-03  -8.219464e-03  0 
 -9.579023e-04  -8.151371e-03  0 
 -7.544295e-04  -8.106414e-03  0 
 -5.730526e-04  -8.075897e-03  0 
 -3.289203e-04  -8.043197e-03  0 
 -3.176767e-05  -8.071582e-03  0 
 3.464195e-04  -8.086511e-03  0 
VECTORS displacement_ITER4 FLOAT
 -1.481903e-03  -5.511710e-03  0 
 3.620511e-04  -5.601974e-03  0 
 -2.079720e-03  -8.051535e-03  0 
 4.814572e-04  -8.081815e-03  0 
 -1.374534e-03  -5.130750e-03  0 
 -1.007095e-03  -5.212759e-03  0 
 -7.181290e-04  -5.015311e-03  0 
 -4.475135e-04  -4.880372e-03  0 
 -2.690503e-04  -4.789149e-03  0 
 9.713804e-05  -4.762385e-03  0 
 3.544400e-04  -5.045684e-03  0 
 4.623172e-04  -5.197893e-03  0 
 -1.615164e-03  -5.989868e-03  0 
 -1.685528e-03  -6.307087e-03  0 
 -1.695355e-03  -6.644115e-03  0 
 -1.646537e-03  -6.944700e-03  0 
 -1.724845e-03  -7.252201e-03  0 
 -1.756823e-03  -7.623841e-03  0 
 -1.872566e-03  -7.944867e-03  0 
 -1.929273e-03  -8.038578e-03  0 
 5.412184e-04  -5.836154e-03  0 
 6.733833e-04  -6.007212e-03  0 
 6.897584e-04  -6.307776e-03  0 
 7.057994e-04  -6.682437e-03  0 
 7.358730e-04  -7.155192e-03  0 
 6.872395e-04  -7.613037e-03  0 
 5.939736e-04  -8.039571e-03  0 
 3.855347e-04  -8.175067e-03  0 
 -1.879092e-03  -8.272008e-03  0 
 -1.664150e-03  -8.436393e-03  0 
 -1.284569e-03  -8.606789e-03  0 
 -8.518791e-04  -8.653407e-03  0 
 -4.230958e-04  -8.633629e-03  0 
 -3.195299e-05  -8.584572e-03  0 
 3.420880e-04  -8.430075e-03  0 
 4.501562e-04  -8.280506e-03  0 
 -1.380800e-03  -5.799153e-03  0 
 -1.093822e-03  -5.667104e-03  0 
 -8.307040e-04  -5.566963e-03  0 
 -5.539710e-04  -5.461686e-03  0 
 -2.639375e-04  -5.419716e-03  0 
 6.433545e-05  -5.450348e-03  0 
 3.386909e-04  -5.493890e-03  0 
 5.050258e-04  -5.618351e-03  0 
 -1.442138e-03  -6.232193e-03  0 
 -1.172074e-03  -6.140886e-03  0 
 -8.967254e-04  -6.054980e-03  0 
 -6.081624e-04  -5.996154e-03  0 
 -2.970173e-04  -5.966131e-03  0 
 1.084365e-05  -5.954823e-03  0 
 2.913128e-04  -5.956704e-03  0 
 5.175799e-04  -5.975427e-03  0 
 -1.469219e-03  -6.612193e-03  0 
 -1.222105e-03  -6.556009e-03  0 
 -9.458395e-04  -6.501703e-03  0 
 -6.523471e-04  -6.460222e-03  0 
 -3.499102e-04  -6.431738e-03  0 
 -5.028464e-05  -6.408033e-03  0 
 2.332758e-04  -6.381443e-03  0 
 4.866779e-04  -6.347890e-03  0 
 -1.493940e-03  -6.947875e-03  0 
 -1.255128e-03  -6.927067e-03  0 
 -9.863857e-04  -6.894149e-03  0 
 -6.967544e-04  -6.864444e-03  0 
 -3.999464e-04  -6.842906e-03  0 
 -1.078521e-04  -6.823976e-03  0 
 1.733772e-04  -6.795797e-03  0 
 4.439611e-04  -6.747556e-03  0 
 -1.513624e-03  -7.273855e-03  0 
 -1.293317e-03  -7.264301e-03  0 
 -1.029501e-03  -7.241015e-03  0 
 -7.369086e-04  -7.221517e-03  0 
 -4.355238e-04  -7.211992e-03  0 
 -1.440064e-04  -7.210280e-03  0 
 1.317390e-04  -7.205473e-03  0 
 4.077488e-04  -7.183621e-03  0 
 -1.579225e-03  -7.600000e-03  0 
 -1.357345e-03  -7.575283e-03  0 
 -1.084049e-03  -7.558313e-03  0 
 -7.719602e-04  -7.549915e-03  0 
 -4.493801e-04  -7.552194e-03  0 
 -1.431872e-04  -7.567154e-03  0 
 1.299892e-04  -7.594835e-03  0 
 3.886344e-04  -7.621895e-03  0 
 -1.690708e-03  -7.884167e-03  0 
 -1.456115e-03  -7.867119e-03  0 
 -1.151052e-03  -7.868955e-03  0 
 -8.036921e-04  -7.875750e-03  0 
 -4.428218e-04  -7.884083e-03  0 
 -1.063535e-04  -7.898593e-03  0 
 1.798450e-04  -7.929166e-03  0 
 3.931140e-04  -7.988252e-03  0 
 -1.823110e-03  -8.094010e-03  0 
 -1.565183e-03  -8.156657e-03  0 
 -1.226372e-03  -8.198660e-03  0 
 -8.280096e-04  -8.232037e-03  0 
 -4.314560e-04  -8.239245e-03  0 
 -5.241533e-05  -8.217072e-03  0 
 2.546636e-04  -8.204518e-03  0 
 4.491307e-04  -8.188673e-03  0 
VECTORS displacement_ITER5 FLOAT
 -1.492920e-03  -5.453245e-03  0 
 7.473935e-04  -5.169560e-03  0 
 -2.085473e-03  -8.301905e-03  0 
 7.685459e-04  -8.511664e-03  0 
 -1.330686e-03  -5.126490e-03  0 
 -9.897440e-04  -5.043159e-03  0 
 -6.085174e-04  -5.021221e-03  0 
 -5.099384e-04  -5.067456e-03  0 
 -3.979130e-04  -5.032984e-03  0 
 -1.638664e-04  -5.013411e-03  0 
 5.702474e-05  -5.107703e-03  0 
 2.773156e-04  -5.082349e-03  0 
 -1.603078e-03  -5.947328e-03  0 
 -1.700532e-03  -6.213254e-03  0 
 -1.704289e-03  -6.534433e-03  0 
 -1.691884e-03  -6.862132e-03  0 
 -1.671101e-03  -7.161785e-03  0 
 -1.623017e-03  -7.437457e-03  0 
 -1.735580e-03  -7.667834e-03  0 
 -1.913091e-03  -7.985814e-03  0 
 6.006125e-04  -5.906818e-03  0 
 3.955397e-04  -6.191377e-03  0 
 2.710500e-04  -6.406247e-03  0 
 2.706631e-04  -6.647103e-03  0 
 2.995575e-04  -6.960269e-03  0 
 2.902930e-04  -7.245709e-03  0 
 3.743772e-04  -7.525724e-03  0 
 5.489343e-04  -7.889243e-03  0 
 -1.656211e-03  -8.387278e-03  0 
 -1.320654e-03  -8.296647e-03  0 
 -1.050738e-03  -8.257215e-03  0 
 -8.165804e-04  -8.234130e-03  0 
 -5.539953e-04  -8.210228e-03  0 
 -3.346744e-04  -8.201677e-03  0 
 -6.304999e-05  -8.251949e-03  0 
 2.389817e-04  -8.377934e-03  0 
 -1.384814e-03  -5.734065e-03  0 
 -1.062764e-03  -5.635072e-03  0 
 -7.712221e-04  -5.560085e-03  0 
 -5.604439e-04  -5.507404e-03  0 
 -3.845248e-04  -5.521249e-03  0 
 -1.674287e-04  -5.559209e-03  0 
 5.146040e-05  -5.605684e-03  0 
 2.962369e-04  -5.727710e-03  0 
 -1.436715e-03  -6.166020e-03  0 
 -1.145831e-03  -6.100641e-03  0 
 -8.701959e-04  -6.032662e-03  0 
 -6.206129e-04  -5.986927e-03  0 
 -3.898686e-04  -5.981068e-03  0 
 -1.669478e-04  -6.009340e-03  0 
 6.292077e-05  -6.065879e-03  0 
 2.825809e-04  -6.147933e-03  0 
 -1.455700e-03  -6.531374e-03  0 
 -1.194865e-03  -6.499777e-03  0 
 -9.298532e-04  -6.455555e-03  0 
 -6.690368e-04  -6.419193e-03  0 
 -4.174309e-04  -6.403706e-03  0 
 -1.774993e-04  -6.411388e-03  0 
 4.561820e-05  -6.430693e-03  0 
 2.195720e-04  -6.433013e-03  0 
 -1.460199e-03  -6.867999e-03  0 
 -1.220233e-03  -6.854051e-03  0 
 -9.687500e-04  -6.827306e-03  0 
 -7.089388e-04  -6.801054e-03  0 
 -4.516722e-04  -6.780653e-03  0 
 -2.090903e-04  -6.765016e-03  0 
 1.649539e-06  -6.744126e-03  0 
 1.623220e-04  -6.702412e-03  0 
 -1.462182e-03  -7.179030e-03  0 
 -1.242311e-03  -7.167901e-03  0 
 -9.972685e-04  -7.155776e-03  0 
 -7.418278e-04  -7.140301e-03  0 
 -4.886108e-04  -7.117663e-03  0 
 -2.495866e-04  -7.084559e-03  0 
 -3.839672e-05  -7.041445e-03  0 
 1.351678e-04  -6.996810e-03  0 
 -1.488099e-03  -7.442196e-03  0 
 -1.264894e-03  -7.448921e-03  0 
 -1.017513e-03  -7.453361e-03  0 
 -7.667706e-04  -7.447813e-03  0 
 -5.228597e-04  -7.426681e-03  0 
 -2.880576e-04  -7.387998e-03  0 
 -6.360776e-05  -7.335590e-03  0 
 1.422054e-04  -7.286803e-03  0 
 -1.529196e-03  -7.688646e-03  0 
 -1.283276e-03  -7.717538e-03  0 
 -1.027785e-03  -7.734469e-03  0 
 -7.830905e-04  -7.731169e-03  0 
 -5.481221e-04  -7.713661e-03  0 
 -3.191399e-04  -7.683645e-03  0 
 -8.424286e-05  -7.636635e-03  0 
 1.613101e-04  -7.573695e-03  0 
 -1.594524e-03  -7.975996e-03  0 
 -1.291204e-03  -8.004222e-03  0 
 -1.037103e-03  -8.005702e-03  0 
 -7.944813e-04  -7.991966e-03  0 
 -5.603759e-04  -7.976157e-03  0 
 -3.331154e-04  -7.962912e-03  0 
 -1.000402e-04  -7.951505e-03  0 
 1.865079e-04  -7.926232e-03  0 
VECTORS displacement_ITER6 FLOAT
 -1.577813e-03  -5.380202e-03  0 
 4.713627e-04  -5.365146e-03  0 
 -1.894677e-03  -8.199567e-03  0 
 3.828184e-04  -8.121680e-03  0 
 -1.254475e-03  -5.178715e-03  0 
 -9.947828e-04  -5.065312e-03  0 
 -6.975077e-04  -5.022294e-03  0 
 -5.377472e-04  -4.996697e-03  0 
 -2.828884e-04  -4.982136e-03  0 
 -3.984627e-05  -4.989068e-03  0 
 2.286041e-04  -5.018969e-03  0 
 4.374401e-04  -5.191915e-03  0 
 -1.613448e-03  -5.967061e-03  0 
 -1.712060e-03  -6.236763e-03  0 
 -1.734175e-03  -6.520961e-03  0 
 -1.787417e-03  -6.827222e-03  0 
 -1.807914e-03  -7.141400e-03  0 
 -1.787686e-03  -7.472186e-03  0 
 -1.788315e-03  -7.757585e-03  0 
 -1.830602e-03  -8.044048e-03  0 
 4.546152e-04  -5.684947e-03  0 
 4.822913e-04  -6.003584e-03  0 
 5.012558e-04  -6.365351e-03  0 
 5.172756e-04  -6.720517e-03  0 
 5.117014e-04  -7.048758e-03  0 
 4.900210e-04  -7.347243e-03  0 
 4.735722e-04  -7.648051e-03  0 
 4.256186e-04  -7.978905e-03  0 
 -1.739488e-03  -8.265620e-03  0 
 -1.501132e-03  -8.331077e-03  0 
 -1.199917e-03  -8.370642e-03  0 
 -9.026851e-04  -8.418419e-03  0 
 -5.490374e-04  -8.436272e-03  0 
 -2.213942e-04  -8.402011e-03  0 
 1.021466e-04  -8.370388e-03  0 
 3.605795e-04  -8.246414e-03  0 
 -1.379655e-03  -5.743087e-03  0 
 -1.085208e-03  -5.618356e-03  0 
 -8.141653e-04  -5.538569e-03  0 
 -5.648872e-04  -5.500146e-03  0 
 -3.194503e-04  -5.498491e-03  0 
 -6.260132e-05  -5.512393e-03  0 
 1.929166e-04  -5.553631e-03  0 
 3.892049e-04  -5.601821e-03  0 
 -1.466288e-03  -6.163079e-03  0 
 -1.180955e-03  -6.081112e-03  0 
 -8.940728e-04  -6.017238e-03  0 
 -6.181739e-04  -5.979592e-03  0 
 -3.522563e-04  -5.966910e-03  0 
 -9.298365e-05  -5.972150e-03  0 
 1.474304e-04  -5.979946e-03  0 
 3.436685e-04  -5.986584e-03  0 
 -1.511781e-03  -6.511817e-03  0 
 -1.239432e-03  -6.483278e-03  0 
 -9.531931e-04  -6.446424e-03  0 
 -6.694829e-04  -6.414828e-03  0 
 -3.946401e-04  -6.394531e-03  0 
 -1.340232e-04  -6.382030e-03  0 
 1.049095e-04  -6.370899e-03  0 
 3.159994e-04  -6.361076e-03  0 
 -1.533916e-03  -6.844357e-03  0 
 -1.270811e-03  -6.847363e-03  0 
 -9.953009e-04  -6.830126e-03  0 
 -7.149311e-04  -6.805604e-03  0 
 -4.390685e-04  -6.782092e-03  0 
 -1.753571e-04  -6.761095e-03  0 
 7.136189e-05  -6.741755e-03  0 
 3.002297e-04  -6.726276e-03  0 
 -1.548836e-03  -7.180983e-03  0 
 -1.295674e-03  -7.187609e-03  0 
 -1.030668e-03  -7.177436e-03  0 
 -7.550257e-04  -7.157902e-03  0 
 -4.779098e-04  -7.136174e-03  0 
 -2.090493e-04  -7.115493e-03  0 
 4.690258e-05  -7.094841e-03  0 
 2.883484e-04  -7.073376e-03  0 
 -1.567916e-03  -7.500483e-03  0 
 -1.328586e-03  -7.505583e-03  0 
 -1.069330e-03  -7.497021e-03  0 
 -7.923054e-04  -7.481962e-03  0 
 -5.078804e-04  -7.464312e-03  0 
 -2.298084e-04  -7.447562e-03  0 
 3.131052e-05  -7.430351e-03  0 
 2.747329e-04  -7.400187e-03  0 
 -1.599485e-03  -7.790973e-03  0 
 -1.375351e-03  -7.797573e-03  0 
 -1.115288e-03  -7.796783e-03  0 
 -8.287573e-04  -7.790206e-03  0 
 -5.301767e-04  -7.778106e-03  0 
 -2.350469e-04  -7.761838e-03  0 
 3.405187e-05  -7.745682e-03  0 
 2.614177e-04  -7.719879e-03  0 
 -1.660385e-03  -8.046960e-03  0 
 -1.433787e-03  -8.065020e-03  0 
 -1.164283e-03  -8.087184e-03  0 
 -8.651897e-04  -8.097039e-03  0 
 -5.455390e-04  -8.092666e-03  0 
 -2.298492e-04  -8.076846e-03  0 
 6.270871e-05  -8.041137e-03  0 
 2.883729e-04  -8.015007e-03  0 
VECTORS displacement_ITER7 FLOAT
 -1.613830e-03  -5.322209e-03  0 
 6.293908e-04  -5.191754e-03  0 
 -1.952032e-03  -8.311692e-03  0 
 5.261828e-04  -8.302856e-03  0 
 -1.199196e-03  -5.199323e-03  0 
 -9.688534e-04  -5.115982e-03  0 
 -7.554383e-04  -5.076530e-03  0 
 -5.438270e-04  -5.046148e-03  0 
 -2.752571e-04  -5.083622e-03  0 
 -9.398220e-05  -5.131593e-03  0 
 9.602241e-05  -5.113256e-03  0 
 3.263678e-04  -5.132787e-03  0 
 -1.615711e-03  -5.950020e-03  0 
 -1.702867e-03  -6.304002e-03  0 
 -1.699723e-03  -6.606003e-03  0 
 -1.706594e-03  -6.888907e-03  0 
 -1.702554e-03  -7.140730e-03  0 
 -1.720337e-03  -7.412454e-03  0 
 -1.742016e-03  -7.707876e-03  0 
 -1.826100e-03  -8.043468e-03  0 
 4.355030e-04  -5.734625e-03  0 
 3.713585e-04  -6.118624e-03  0 
 3.540070e-04  -6.473541e-03  0 
 3.349786e-04  -6.783095e-03  0 
 3.203851e-04  -7.032172e-03  0 
 3.355483e-04  -7.275078e-03  0 
 3.713828e-04  -7.534374e-03  0 
 4.502141e-04  -7.900208e-03  0 
 -1.709273e-03  -8.327915e-03  0 
 -1.417620e-03  -8.310289e-03  0 
 -1.124558e-03  -8.279195e-03  0 
 -8.565539e-04  -8.269556e-03  0 
 -5.876963e-04  -8.273768e-03  0 
 -3.171111e-04  -8.279189e-03  0 
 -4.101577e-05  -8.317299e-03  0 
 2.779581e-04  -8.317596e-03  0 
 -1.342839e-03  -5.767446e-03  0 
 -1.063189e-03  -5.649826e-03  0 
 -8.177999e-04  -5.590137e-03  0 
 -5.722112e-04  -5.575396e-03  0 
 -3.344413e-04  -5.574896e-03  0 
 -1.281538e-04  -5.583329e-03  0 
 6.936474e-05  -5.618724e-03  0 
 2.820607e-04  -5.673350e-03  0 
 -1.429827e-03  -6.210925e-03  0 
 -1.152018e-03  -6.124549e-03  0 
 -8.804380e-04  -6.065646e-03  0 
 -6.235294e-04  -6.035043e-03  0 
 -3.835594e-04  -6.022189e-03  0 
 -1.592874e-04  -6.027236e-03  0 
 5.055728e-05  -6.052839e-03  0 
 2.361708e-04  -6.086183e-03  0 
 -1.474378e-03  -6.576061e-03  0 
 -1.211028e-03  -6.528854e-03  0 
 -9.398879e-04  -6.484706e-03  0 
 -6.760114e-04  -6.451346e-03  0 
 -4.255251e-04  -6.431739e-03  0 
 -1.903964e-04  -6.426431e-03  0 
 2.276715e-05  -6.433138e-03  0 
 2.034590e-04  -6.447997e-03  0 
 -1.491926e-03  -6.890001e-03  0 
 -1.246868e-03  -6.877578e-03  0 
 -9.849984e-04  -6.853549e-03  0 
 -7.216696e-04  -6.826582e-03  0 
 -4.654535e-04  -6.802987e-03  0 
 -2.230884e-04  -6.785245e-03  0 
 -2.840277e-06  -6.774175e-03  0 
 1.863041e-04  -6.772892e-03  0 
 -1.502507e-03  -7.178847e-03  0 
 -1.267828e-03  -7.189977e-03  0 
 -1.017376e-03  -7.182688e-03  0 
 -7.595581e-04  -7.164295e-03  0 
 -5.030020e-04  -7.140401e-03  0 
 -2.556015e-04  -7.113731e-03  0 
 -2.543084e-05  -7.086299e-03  0 
 1.751150e-04  -7.060401e-03  0 
 -1.511177e-03  -7.459484e-03  0 
 -1.285833e-03  -7.480027e-03  0 
 -1.043267e-03  -7.481834e-03  0 
 -7.909481e-04  -7.471611e-03  0 
 -5.364737e-04  -7.450975e-03  0 
 -2.864496e-04  -7.420957e-03  0 
 -4.789859e-05  -7.381564e-03  0 
 1.671003e-04  -7.331352e-03  0 
 -1.539246e-03  -7.742872e-03  0 
 -1.312131e-03  -7.754993e-03  0 
 -1.067946e-03  -7.759944e-03  0 
 -8.165894e-04  -7.755836e-03  0 
 -5.642640e-04  -7.741469e-03  0 
 -3.123478e-04  -7.714784e-03  0 
 -6.580389e-05  -7.675432e-03  0 
 1.676314e-04  -7.618711e-03  0 
 -1.605701e-03  -8.026212e-03  0 
 -1.353532e-03  -8.024832e-03  0 
 -1.093843e-03  -8.025299e-03  0 
 -8.379550e-04  -8.022119e-03  0 
 -5.822236e-04  -8.014325e-03  0 
 -3.279121e-04  -8.003917e-03  0 
 -6.619392e-05  -7.978776e-03  0 
 1.926539e-04  -7.947436e-03  0 
VECTORS displacement_ITER8 FLOAT
 -1.566564e-03  -5.435385e-03  0 
 5.348067e-04  -5.336226e-03  0 
 -1.924679e-03  -8.291150e-03  0 
 4.450127e-04  -8.222567e-03  0 
 -1.255684e-03  -5.230251e-03  0 
 -1.004094e-03  -5.103137e-03  0 
 -7.938709e-04  -5.032028e-03  0 
 -5.399447e-04  -4.988370e-03  0 
 -2.857404e-04  -4.995609e-03  0 
 -6.011617e-05  -5.026315e-03  0 
 1.552986e-04  -5.076746e-03  0 
 3.720301e-04  -5.168020e-03  0 
 -1.625619e-03  -5.901095e-03  0 
 -1.724947e-03  -6.276005e-03  0 
 -1.743205e-03  -6.588875e-03  0 
 -1.749578e-03  -6.886282e-03  0 
 -1.752032e-03  -7.163328e-03  0 
 -1.764074e-03  -7.451062e-03  0 
 -1.754622e-03  -7.742178e-03  0 
 -1.812286e-03  -8.023833e-03  0 
 3.994359e-04  -5.734542e-03  0 
 3.654509e-04  -6.074062e-03  0 
 3.805708e-04  -6.398811e-03  0 
 3.937225e-04  -6.706610e-03  0 
 4.004242e-04  -7.007140e-03  0 
 4.037920e-04  -7.319190e-03  0 
 3.735075e-04  -7.618733e-03  0 
 3.705839e-04  -7.915117e-03  0 
 -1.745920e-03  -8.294636e-03  0 
 -1.488749e-03  -8.326566e-03  0 
 -1.185601e-03  -8.348137e-03  0 
 -8.698141e-04  -8.350619e-03  0 
 -5.730411e-04  -8.348280e-03  0 
 -2.741004e-04  -8.339729e-03  0 
 4.283940e-07  -8.330570e-03  0 
 2.645537e-04  -8.282406e-03  0 
 -1.383151e-03  -5.754226e-03  0 
 -1.109699e-03  -5.634352e-03  0 
 -8.496150e-04  -5.562649e-03  0 
 -5.896237e-04  -5.531541e-03  0 
 -3.326867e-04  -5.521622e-03  0 
 -9.341617e-05  -5.537736e-03  0 
 1.283883e-04  -5.584212e-03  0 
 3.191810e-04  -5.657205e-03  0 
 -1.459440e-03  -6.182036e-03  0 
 -1.188016e-03  -6.104507e-03  0 
 -9.110108e-04  -6.045277e-03  0 
 -6.401660e-04  -6.009632e-03  0 
 -3.785460e-04  -5.993636e-03  0 
 -1.302394e-04  -5.995024e-03  0 
 9.389929e-05  -6.012403e-03  0 
 2.694299e-04  -6.036278e-03  0 
 -1.505705e-03  -6.557861e-03  0 
 -1.239379e-03  -6.513165e-03  0 
 -9.641332e-04  -6.472033e-03  0 
 -6.899098e-04  -6.438900e-03  0 
 -4.242952e-04  -6.416063e-03  0 
 -1.734144e-04  -6.401715e-03  0 