# vtk DataFile Version 3.1
this is an vtk file created by FEMAC
ASCII
DATASET UNSTRUCTURED_GRID
POINTS 100 FLOAT
1.000000 2.000000 0.000000
1.000000 3.000000 0.000000
2.000000 2.000000 0.000000
2.000000 3.000000 0.000000
1.000000 2.111111 0.000000
1.000000 2.222222 0.000000
1.000000 2.333333 0.000000
1.000000 2.444444 0.000000
1.000000 2.555556 0.000000
1.000000 2.666667 0.000000
1.000000 2.777778 0.000000
1.000000 2.888889 0.000000
1.111111 2.000000 0.000000
1.222222 2.000000 0.000000
1.333333 2.000000 0.000000
1.444444 2.000000 0.000000
1.555556 2.000000 0.000000
1.666667 2.000000 0.000000
1.777778 2.000000 0.000000
1.888889 2.000000 0.000000
1.111111 3.000000 0.000000
1.222222 3.000000 0.000000
1.333333 3.000000 0.000000
1.444444 3.000000 0.000000
1.555556 3.000000 0.000000
1.666667 3.000000 0.000000
1.777778 3.000000 0.000000
1.888889 3.000000 0.000000
2.000000 2.111111 0.000000
2.000000 2.222222 0.000000
2.000000 2.333333 0.000000
2.000000 2.444444 0.000000
2.000000 2.555556 0.000000
2.000000 2.666667 0.000000
2.000000 2.777778 0.000000
2.000000 2.888889 0.000000
1.111111 2.111111 0.000000
1.111111 2.222222 0.000000
1.111111 2.333333 0.000000
1.111111 2.444444 0.000000
1.111111 2.555556 0.000000
1.111111 2.666667 0.000000
1.111111 2.777778 0.000000
1.111111 2.888889 0.000000
1.222222 2.111111 0.000000
1.222222 2.222222 0.000000
1.222222 2.333333 0.000000
1.222222 2.444444 0.000000
1.222222 2.555556 0.000000
1.222222 2.666667 0.000000
1.222222 2.777778 0.000000
1.222222 2.888889 0.000000
1.333333 2.111111 0.000000
1.333333 2.222222 0.000000
1.333333 2.333333 0.000000
1.333333 2.444444 0.000000
1.333333 2.555556 0.000000
1.333333 2.666667 0.000000
1.333333 2.777778 0.000000
1.333333 2.888889 0.000000
1.444444 2.111111 0.000000
1.444444 2.222222 0.000000
1.444444 2.333333 0.000000
1.444444 2.444444 0.000000
1.444444 2.555556 0.000000
1.444444 2.666667 0.000000
1.444444 2.777778 0.000000
1.444444 2.888889 0.000000
1.555556 2.111111 0.000000
1.555556 2.222222 0.000000
1.555556 2.333333 0.000000
1.555556 2.444444 0.000000
1.555556 2.555556 0.000000
1.555556 2.666667 0.000000
1.555556 2.777778 0.000000
1.555556 2.888889 0.000000
1.666667 2.111111 0.000000
1.666667 2.222222 0.000000
1.666667 2.333333 0.000000
1.666667 2.444444 0.000000
1.666667 2.555556 0.000000
1.666667 2.666667 0.000000
1.666667 2.777778 0.000000
1.666667 2.888889 0.000000
1.777778 2.111111 0.000000
1.777778 2.222222 0.000000
1.777778 2.333333 0.000000
1.777778 2.444444 0.000000
1.777778 2.555556 0.000000
1.777778 2.666667 0.000000
1.777778 2.777778 0.000000
1.777778 2.888889 0.000000
1.888889 2.111111 0.000000
1.888889 2.222222 0.000000
1.888889 2.333333 0.000000
1.888889 2.444444 0.000000
1.888889 2.555556 0.000000
1.888889 2.666667 0.000000
1.888889 2.777778 0.000000
1.888889 2.888889 0.000000
CELLS 81 405 
4 0 12 36  4
4 4 36 37  5
4 5 37 38  6
4 6 38 39  7
4 7 39 40  8
4 8 40 41  9
4 9 41 42 10
4 10 42 43 11
4 11 43 20  1
4 12 13 44 36
4 36 44 45 37
4 37 45 46 38
4 38 46 47 39
4 39 47 48 40
4 40 48 49 41
4 41 49 50 42
4 42 50 51 43
4 43 51 21 20
4 13 14 52 44
4 44 52 53 45
4 45 53 54 46
4 46 54 55 47
4 47 55 56 48
4 48 56 57 49
4 49 57 58 50
4 50 58 59 51
4 51 59 22 21
4 14 15 60 52
4 52 60 61 53
4 53 61 62 54
4 54 62 63 55
4 55 63 64 56
4 56 64 65 57
4 57 65 66 58
4 58 66 67 59
4 59 67 23 22
4 15 16 68 60
4 60 68 69 61
4 61 69 70 62
4 62 70 71 63
4 63 71 72 64
4 64 72 73 65
4 65 73 74 66
4 66 74 75 67
4 67 75 24 23
4 16 17 76 68
4 68 76 77 69
4 69 77 78 70
4 70 78 79 71
4 71 79 80 72
4 72 80 81 73
4 73 81 82 74
4 74 82 83 75
4 75 83 25 24
4 17 18 84 76
4 76 84 85 77
4 77 85 86 78
4 78 86 87 79
4 79 87 88 80
4 80 88 89 81
4 81 89 90 82
4 82 90 91 83
4 83 91 26 25
4 18 19 92 84
4 84 92 93 85
4 85 93 94 86
4 86 94 95 87
4 87 95 96 88
4 88 96 97 89
4 89 97 98 90
4 90 98 99 91
4 91 99 27 26
4 19  2 28 92
4 92 28 29 93
4 93 29 30 94
4 94 30 31 95
4 95 31 32 96
4 96 32 33 97
4 97 33 34 98
4 98 34 35 99
4 99 35  3 27
CELL_TYPES 81
9 9 9 9 9 9 9 9 9 9 9 9 9 9 9 9 9 9 9 9 9 9 9 9 9 9 9 9 9 9 9 9 9 9 9 9 9 9 9 9 9 9 9 9 9 9 9 9 9 9 9 9 9 9 9 9 9 9 9 9 9 9 9 9 9 9 9 9 9 9 9 9 9 9 9 9 9 9 9 9 9 
POINT_DATA 100
VECTORS displacement_ITER1 FLOAT
 -7.268795e-04  -2.461650e-04  0 
 3.087561e-04  -3.553246e-04  0 
 -5.799952e-04  -2.211540e-03  0 
 7.195227e-04  -3.142491e-03  0 
 -2.650045e-04  -2.117026e-05  0 
 2.633150e-04  -7.645643e-05  0 
 3.653570e-04  -7.703344e-04  0 
 1.734824e-04  -1.302952e-03  0 
 -1.331157e-04  -1.314263e-03  0 
 -3.116639e-04  -7.681876e-04  0 
 -1.368973e-04  -5.317638e-05  0 
 1.129111e-04  -1.142238e-04  0 
 2.745248e-04  -7.075743e-04  0 
 4.608850e-05  -1.780816e-03  0 
 -6.590754e-04  -1.792548e-03  0 
 -1.010765e-03  -1.671220e-03  0 
 -1.294162e-03  -1.598779e-03  0 
 -5.186182e-04  -2.167970e-03  0 
 -5.089763e-04  -3.165283e-03  0 
 -2.384849e-04  -2.918779e-03  0 
 -6.384171e-04  -1.128961e-03  0 
 -3.567261e-04  -1.840843e-03  0 
 -1.422163e-04  -1.967875e-03  0 
 -2.711011e-05  -2.151137e-03  0 
 -2.578868e-04  -2.430307e-03  0 
 -6.331250e-04  -2.782903e-03  0 
 -9.538224e-04  -3.104805e-03  0 
 -4.062140e-04  -3.148411e-03  0 
 -2.787449e-03  -4.174109e-03  0 
 -2.657608e-03  -5.002238e-03  0 
 -1.649451e-03  -4.358454e-03  0 
 -8.153034e-04  -3.943846e-03  0 
 -3.274475e-04  -3.670386e-03  0 
 3.344383e-04  -3.925743e-03  0 
 9.880437e-04  -4.140255e-03  0 
 1.018069e-03  -4.162387e-03  0 
 -9.636106e-05  -9.652401e-04  0 
 9.867689e-05  -9.580129e-04  0 
 2.207345e-04  -1.016580e-03  0 
 4.885661e-05  -1.132111e-03  0 
 -2.454838e-04  -1.153032e-03  0 
 -4.157666e-04  -1.074548e-03  0 
 -3.038978e-04  -1.014009e-03  0 
 -1.579430e-04  -1.032681e-03  0 
 -1.565971e-04  -1.328289e-03  0 
 -1.494216e-04  -1.310562e-03  0 
 -7.785671e-05  -1.294549e-03  0 
 -1.288527e-04  -1.292410e-03  0 
 -2.679566e-04  -1.330954e-03  0 
 -3.441741e-04  -1.399784e-03  0 
 -3.030394e-04  -1.456552e-03  0 
 -2.827248e-04  -1.496886e-03  0 
 -5.329523e-04  -1.589613e-03  0 
 -3.888496e-04  -1.552194e-03  0 
 -2.912359e-04  -1.574577e-03  0 
 -2.655039e-04  -1.587181e-03  0 
 -2.878169e-04  -1.635028e-03  0 
 -3.046727e-04  -1.720392e-03  0 
 -2.809374e-04  -1.796004e-03  0 
 -1.922768e-04  -1.864608e-03  0 
 -8.252986e-04  -1.765318e-03  0 
 -5.638600e-04  -1.870535e-03  0 
 -4.290800e-04  -1.893882e-03  0 
 -3.565210e-04  -1.906766e-03  0 
 -3.122716e-04  -1.955260e-03  0 
 -2.879493e-04  -2.047361e-03  0 
 -2.600239e-04  -2.148477e-03  0 
 -1.938753e-04  -2.194059e-03  0 
 -8.177236e-04  -2.126889e-03  0 
 -6.707494e-04  -2.245612e-03  0 
 -5.546035e-04  -2.229159e-03  0 
 -4.359757e-04  -2.218045e-03  0 
 -3.234806e-04  -2.259361e-03  0 
 -2.496131e-04  -2.356018e-03  0 
 -2.389070e-04  -2.483130e-03  0 
 -2.616176e-04  -2.557143e-03  0 
 -7.942794e-04  -2.619889e-03  0 
 -8.274423e-04  -2.615981e-03  0 
 -7.186317e-04  -2.550155e-03  0 
 -5.194537e-04  -2.531416e-03  0 
 -3.172973e-04  -2.563459e-03  0 
 -1.716921e-04  -2.634304e-03  0 
 -1.427414e-04  -2.753204e-03  0 
 -3.110886e-04  -2.883090e-03  0 
 -1.024576e-03  -3.075474e-03  0 
 -1.172463e-03  -2.969833e-03  0 
 -9.329992e-04  -2.904210e-03  0 
 -5.988582e-04  -2.899218e-03  0 
 -3.016193e-04  -2.903521e-03  0 
 -6.869852e-05  -2.928337e-03  0 
 5.912119e-05  -2.974667e-03  0 
 -1.115093e-04  -3.070908e-03  0 
 -1.789717e-03  -3.489282e-03  0 
 -1.745625e-03  -3.506394e-03  0 
 -1.183143e-03  -3.461986e-03  0 
 -6.829337e-04  -3.361060e-03  0 
 -2.950675e-04  -3.312978e-03  0 
 6.310871e-05  -3.295399e-03  0 
 3.634088e-04  -3.364123e-03  0 
 3.968040e-04  -3.268616e-03  0 
VECTORS displacement_ITER2 FLOAT
 -7.759272e-05  -9.887259e-04  0 
 -3.613410e-04  -1.300305e-03  0 
 -1.958150e-03  -3.420615e-03  0 
 6.287805e-04  -2.337671e-03  0 
 -5.280861e-04  -5.344960e-04  0 
 -3.843916e-04  -3.200416e-04  0 
 -3.591405e-04  -3.012058e-04  0 
 -2.097473e-04  -2.448094e-04  0 
 1.481026e-06  -2.117994e-04  0 
 1.407137e-04  -1.907844e-04  0 
 1.999711e-04  -1.501783e-04  0 
 3.418486e-04  -5.031162e-04  0 
 1.702961e-04  -5.761658e-04  0 
 -4.347981e-04  -1.055066e-03  0 
 -8.111201e-04  -1.442940e-03  0 
 -8.526384e-04  -1.829945e-03  0 
 -4.416257e-04  -1.806444e-03  0 
 -1.194049e-04  -2.192611e-03  0 
 -2.504026e-06  -2.553321e-03  0 
 -4.035998e-04  -2.083044e-03  0 
 -6.097630e-04  -9.573391e-04  0 
 2.171175e-05  -1.062997e-03  0 
 2.896951e-04  -1.163612e-03  0 
 3.801204e-04  -1.367111e-03  0 
 3.115146e-04  -1.752096e-03  0 
 -1.267842e-05  -2.299992e-03  0 
 -3.915031e-04  -2.836794e-03  0 
 -3.767720e-04  -2.848579e-03  0 
 -8.876133e-04  -4.112086e-03  0 
 -1.801154e-04  -2.980852e-03  0 
 -3.588686e-04  -2.126495e-03  0 
 -7.125633e-04  -2.092292e-03  0 
 -8.096571e-04  -2.561894e-03  0 
 -5.386465e-04  -3.027790e-03  0 
 1.873868e-04  -3.278615e-03  0 
 7.972300e-04  -3.328122e-03  0 
 -4.248487e-04  -7.352467e-04  0 
 -4.371739e-04  -7.341458e-04  0 
 -3.352176e-04  -7.014295e-04  0 
 -2.122436e-04  -6.998784e-04  0 
 -6.057937e-05  -6.733964e-04  0 
 7.276993e-05  -6.418477e-04  0 
 2.048862e-04  -6.964081e-04  0 
 1.800378e-04  -7.978144e-04  0 
 -3.845262e-04  -9.373668e-04  0 
 -4.034301e-04  -1.040573e-03  0 
 -3.270598e-04  -1.084873e-03  0 
 -2.199576e-04  -1.089013e-03  0 
 -1.036027e-04  -1.070463e-03  0 
 2.916985e-05  -1.038380e-03  0 
 1.374740e-04  -9.871896e-04  0 
 1.060931e-04  -9.130143e-04  0 
 -5.007587e-04  -1.374982e-03  0 
 -3.752667e-04  -1.388817e-03  0 
 -3.097962e-04  -1.431151e-03  0 
 -2.357875e-04  -1.440860e-03  0 
 -1.490531e-04  -1.422527e-03  0 
 -5.316804e-05  -1.371491e-03  0 
 4.187099e-05  -1.275182e-03  0 
 1.589604e-04  -1.187293e-03  0 
 -5.393052e-04  -1.782574e-03  0 
 -3.847796e-04  -1.769217e-03  0 
 -3.136256e-04  -1.760854e-03  0 
 -2.615699e-04  -1.751024e-03  0 
 -2.045920e-04  -1.729486e-03  0 
 -1.442662e-04  -1.687318e-03  0 
 -5.345043e-05  -1.617544e-03  0 
 1.174816e-04  -1.507327e-03  0 
 -4.349249e-04  -2.077338e-03  0 
 -3.831720e-04  -2.080871e-03  0 
 -3.468004e-04  -2.048067e-03  0 
 -3.028874e-04  -2.023570e-03  0 
 -2.590969e-04  -1.994211e-03  0 
 -2.161406e-04  -1.969549e-03  0 
 -1.558249e-04  -1.958738e-03  0 
 -1.839458e-05  -1.912255e-03  0 
 -2.745292e-04  -2.261523e-03  0 
 -3.792053e-04  -2.257166e-03  0 
 -3.719009e-04  -2.273459e-03  0 
 -3.547417e-04  -2.264816e-03  0 
 -3.297489e-04  -2.214335e-03  0 
 -2.692045e-04  -2.180162e-03  0 
 -2.003556e-04  -2.230861e-03  0 
 -1.515406e-04  -2.340767e-03  0 
 -3.600243e-04  -2.312155e-03  0 
 -3.333792e-04  -2.357537e-03  0 
 -3.362329e-04  -2.459180e-03  0 
 -4.332229e-04  -2.450425e-03  0 
 -4.614060e-04  -2.380837e-03  0 
 -3.377504e-04  -2.342483e-03  0 
 -1.342705e-04  -2.398007e-03  0 
 -9.438973e-05  -2.618951e-03  0 
 -5.537104e-04  -2.464424e-03  0 
 -1.545483e-04  -2.599406e-03  0 
 -2.750876e-04  -2.530563e-03  0 
 -5.771063e-04  -2.464251e-03  0 
 -6.705502e-04  -2.491790e-03  0 
 -4.377027e-04  -2.560719e-03  0 
 -2.230955e-05  -2.641559e-03  0 
 2.993666e-04  -2.688657e-03  0 
VECTORS displacement_ITER3 FLOAT
 -2.317178e-04  -5.214556e-04  0 
 -1.110602e-04  -9.077690e-04  0 
 -1.123695e-03  -2.113063e-03  0 
 9.832969e-04  -2.633749e-03  0 
 -1.903351e-04  -3.401879e-04  0 
 -8.307451e-05  -5.230783e-04  0 
 -1.587429e-04  -4.802390e-04  0 
 -1.020552e-04  -3.947504e-04  0 
 2.153516e-06  -4.336019e-04  0 
 1.570337e-05  -5.621678e-04  0 
 -8.287299e-05  -5.770043e-04  0 
 1.912947e-04  -4.511055e-04  0 
 -1.588383e-04  -7.478726e-04  0 
 -3.661873e-04  -1.112847e-03  0 
 -3.145710e-04  -1.302124e-03  0 
 -4.260096e-04  -1.504099e-03  0 
 -2.919763e-04  -1.557774e-03  0 
 -6.384511e-04  -2.023556e-03  0 
 -6.779369e-04  -2.455947e-03  0 
 -5.795763e-04  -2.188539e-03  0 
 -1.676086e-04  -1.041767e-03  0 
 4.864625e-05  -1.391001e-03  0 
 -5.372412e-05  -1.585216e-03  0 
 -1.665385e-04  -1.719299e-03  0 
 -1.945266e-04  -1.874092e-03  0 
 -2.083003e-04  -2.110949e-03  0 
 -1.460980e-04  -2.433144e-03  0 
 8.193379e-05  -2.449798e-03  0 
 -1.367883e-03  -2.916463e-03  0 
 -8.505810e-04  -2.573084e-03  0 
 -7.032027e-04  -2.599801e-03  0 
 -4.680581e-04  -2.693198e-03  0 
 -1.682690e-04  -2.763779e-03  0 
 -8.413615e-05  -2.543748e-03  0 
 8.151418e-05  -2.537102e-03  0 
 5.939434e-04  -2.787704e-03  0 
 -2.145551e-04  -7.877219e-04  0 
 -1.714427e-04  -7.697496e-04  0 
 -1.781088e-04  -7.770475e-04  0 
 -1.339996e-04  -8.026991e-04  0 
 -5.994029e-05  -8.246404e-04  0 
 -4.155934e-05  -8.468672e-04  0 
 -4.041761e-05  -9.119666e-04  0 
 8.404153e-06  -9.822460e-04  0 
 -2.578729e-04  -1.064244e-03  0 
 -2.386041e-04  -1.064531e-03  0 
 -2.009670e-04  -1.076072e-03  0 
 -1.582936e-04  -1.105025e-03  0 
 -1.138964e-04  -1.131820e-03  0 
 -7.653337e-05  -1.164579e-03  0 
 -4.918455e-05  -1.216757e-03  0 
 -4.647225e-05  -1.268579e-03  0 
 -3.379734e-04  -1.324991e-03  0 
 -2.856115e-04  -1.327252e-03  0 
 -2.377652e-04  -1.343195e-03  0 
 -1.883765e-04  -1.366421e-03  0 
 -1.434908e-04  -1.397392e-03  0 
 -1.029500e-04  -1.436258e-03  0 
 -7.346368e-05  -1.481541e-03  0 
 -4.721812e-05  -1.546813e-03  0 
 -3.706259e-04  -1.534504e-03  0 
 -3.355381e-04  -1.562062e-03  0 
 -2.775822e-04  -1.578981e-03  0 
 -2.201363e-04  -1.596433e-03  0 
 -1.650481e-04  -1.624902e-03  0 
 -1.207476e-04  -1.665621e-03  0 
 -9.094417e-05  -1.710639e-03  0 
 -8.820350e-05  -1.736494e-03  0 
 -4.212703e-04  -1.730016e-03  0 
 -3.799895e-04  -1.779294e-03  0 
 -3.286978e-04  -1.788546e-03  0 
 -2.568786e-04  -1.798010e-03  0 
 -1.813409e-04  -1.820666e-03  0 
 -1.236702e-04  -1.857978e-03  0 
 -1.044622e-04  -1.900463e-03  0 
 -1.313012e-04  -1.914090e-03  0 
 -4.638315e-04  -1.988389e-03  0 
 -4.644110e-04  -1.983264e-03  0 
 -4.008576e-04  -1.976926e-03  0 
 -3.003923e-04  -1.985662e-03  0 
 -1.950292e-04  -2.000623e-03  0 
 -1.080133e-04  -2.022719e-03  0 
 -7.691777e-05  -2.060359e-03  0 
 -1.275732e-04  -2.109962e-03  0 
 -6.779577e-04  -2.257756e-03  0 
 -6.116171e-04  -2.166296e-03  0 
 -4.901548e-04  -2.173169e-03  0 
 -3.513467e-04  -2.179071e-03  0 
 -2.072879e-04  -2.188304e-03  0 
 -8.098662e-05  -2.194598e-03  0 
 5.052576e-06  -2.194534e-03  0 
 -7.657290e-06  -2.260711e-03  0 
 -9.600045e-04  -2.328853e-03  0 
 -7.502409e-04  -2.382281e-03  0 
 -5.937904e-04  -2.393379e-03  0 
 -4.161170e-04  -2.402463e-03  0 
 -2.041096e-04  -2.409075e-03  0 
 -5.039671e-05  -2.404937e-03  0 
 6.141804e-05  -2.350731e-03  0 
 2.516450e-04  -2.333310e-03  0 
VECTORS displacement_ITER4 FLOAT
 -2.531259e-04  -4.716582e-04  0 
 -8.796880e-05  -7.950877e-04  0 
 -1.029060e-03  -2.443116e-03  0 
 4.191080e-04  -2.586346e-03  0 
 -1.718927e-04  -4.102889e-04  0 
 -1.558629e-04  -5.313541e-04  0 
 -1.312159e-04  -4.631081e-04  0 
 -7.814482e-05  -4.210255e-04  0 
 -3.117789e-05  -4.234600e-04  0 
 2.286150e-05  -4.834560e-04  0 
 7.171823e-06  -5.761921e-04  0 
 9.013789e-05  -4.739847e-04  0 
 -2.902676e-04  -8.367750e-04  0 
 -4.145226e-04  -1.058247e-03  0 
 -2.931823e-04  -1.211181e-03  0 
 -3.286145e-04  -1.431931e-03  0 
 -1.930058e-04  -1.651232e-03  0 
 -4.149689e-04  -1.958872e-03  0 
 -5.410708e-04  -2.175242e-03  0 
 -6.292684e-04  -2.163980e-03  0 
 -1.683062e-04  -1.002033e-03  0 
 -7.604395e-05  -1.288523e-03  0 
 -1.134439e-04  -1.462070e-03  0 
 -1.282139e-04  -1.676946e-03  0 
 -1.112592e-04  -1.896759e-03  0 
 -6.037584e-05  -2.127577e-03  0 
 3.718943e-05  -2.434399e-03  0 
 2.627829e-05  -2.553557e-03  0 
 -1.020673e-03  -2.680489e-03  0 
 -9.062728e-04  -2.549303e-03  0 
 -7.505033e-04  -2.852322e-03  0 
 -4.556662e-04  -2.999191e-03  0 
 -1.682647e-04  -3.008639e-03  0 
 -4.556462e-05  -2.791976e-03  0 
 4.847821e-05  -2.650178e-03  0 
 2.898649e-04  -2.681819e-03  0 
 -2.512733e-04  -7.924411e-04  0 
 -2.028756e-04  -7.812618e-04  0 
 -1.820567e-04  -7.927641e-04  0 
 -1.300275e-04  -7.927431e-04  0 
 -7.024625e-05  -8.065283e-04  0 
 -2.662440e-05  -8.346446e-04  0 
 -2.130150e-05  -8.706202e-04  0 
 -2.003018e-05  -9.380939e-04  0 
 -3.067155e-04  -1.073838e-03  0 
 -2.565917e-04  -1.079440e-03  0 
 -2.113818e-04  -1.089332e-03  0 
 -1.649640e-04  -1.105402e-03  0 
 -1.129394e-04  -1.121039e-03  0 
 -7.197112e-05  -1.140200e-03  0 
 -4.844564e-05  -1.171107e-03  0 
 -6.089036e-05  -1.204928e-03  0 
 -3.320937e-04  -1.313111e-03  0 
 -2.899831e-04  -1.347641e-03  0 
 -2.475953e-04  -1.361170e-03  0 
 -1.992093e-04  -1.374383e-03  0 
 -1.495706e-04  -1.390895e-03  0 
 -1.049299e-04  -1.410658e-03  0 
 -7.716364e-05  -1.432706e-03  0 
 -7.044062e-05  -1.460186e-03  0 
 -3.129378e-04  -1.535720e-03  0 
 -3.225005e-04  -1.580493e-03  0 
 -2.888527e-04  -1.598260e-03  0 
 -2.370209e-04  -1.611456e-03  0 
 -1.794138e-04  -1.629270e-03  0 
 -1.279303e-04  -1.651269e-03  0 
 -9.237241e-05  -1.672354e-03  0 
 -8.838433e-05  -1.682266e-03  0 
 -3.540125e-04  -1.748861e-03  0 
 -3.709780e-04  -1.788381e-03  0 
 -3.415678e-04  -1.808999e-03  0 
 -2.773136e-04  -1.825278e-03  0 
 -2.013832e-04  -1.846533e-03  0 
 -1.346780e-04  -1.873662e-03  0 
 -9.307722e-05  -1.897285e-03  0 
 -8.301614e-05  -1.904776e-03  0 
 -4.348326e-04  -1.958085e-03  0 
 -4.609069e-04  -1.989630e-03  0 
 -4.136716e-04  -2.011610e-03  0 
 -3.215116e-04  -2.033145e-03  0 
 -2.127711e-04  -2.058562e-03  0 
 -1.173780e-04  -2.088296e-03  0 
 -6.455976e-05  -2.118148e-03  0 
 -5.427197e-05  -2.135381e-03  0 
 -6.073096e-04  -2.173535e-03  0 
 -5.928660e-04  -2.197138e-03  0 
 -5.114708e-04  -2.233089e-03  0 
 -3.725618e-04  -2.259885e-03  0 
 -2.097973e-04  -2.292326e-03  0 
 -7.680552e-05  -2.314400e-03  0 
 1.512897e-06  -2.323047e-03  0 
 1.041762e-05  -2.358638e-03  0 
 -7.849833e-04  -2.325541e-03  0 
 -7.442593e-04  -2.432574e-03  0 
 -6.435431e-04  -2.488113e-03  0 
 -4.230134e-04  -2.556374e-03  0 
 -1.888416e-04  -2.584435e-03  0 
 -2.931525e-05  -2.567850e-03  0 
 5.562009e-05  -2.509744e-03  0 
 1.448323e-04  -2.486697e-03  0 
VECTORS displacement_ITER5 FLOAT
 -2.831471e-04  -5.131986e-04  0 
 4.620195e-05  -7.191343e-04  0 
 -9.192350e-04  -2.479140e-03  0 
 2.214488e-04  -2.588583e-03  0 
 -2.271252e-04  -5.362509e-04  0 
 -2.451700e-04  -5.438663e-04  0 
 -1.325420e-04  -4.908422e-04  0 
 -6.721569e-05  -4.957676e-04  0 
 -4.150977e-05  -4.878424e-04  0 
 2.223786e-05  -4.887238e-04  0 
 8.051148e-05  -5.836480e-04  0 
 4.223569e-05  -5.778769e-04  0 
 -3.043814e-04  -9.152219e-04  0 
 -3.772701e-04  -1.060755e-03  0 
 -3.126635e-04  -1.195843e-03  0 
 -3.014857e-04  -1.373986e-03  0 
 -2.581173e-04  -1.638979e-03  0 
 -3.299598e-04  -1.834895e-03  0 
 -5.204057e-04  -1.970339e-03  0 
 -7.152884e-04  -2.241037e-03  0 
 -1.706296e-04  -1.080209e-03  0 
 -1.958839e-04  -1.295192e-03  0 
 -2.162036e-04  -1.428123e-03  0 
 -1.956206e-04  -1.634192e-03  0 
 -1.734256e-04  -1.837888e-03  0 
 -1.099619e-04  -2.024049e-03  0 
 3.537669e-05  -2.261285e-03  0 
 7.088323e-05  -2.538295e-03  0 
 -9.596372e-04  -2.628150e-03  0 
 -8.573442e-04  -2.619413e-03  0 
 -6.274103e-04  -2.776154e-03  0 
 -4.421146e-04  -2.790583e-03  0 
 -3.112501e-04  -2.807306e-03  0 
 -1.501566e-04  -2.791654e-03  0 
 2.615459e-05  -2.707254e-03  0 
 1.961493e-04  -2.655685e-03  0 
 -2.906879e-04  -8.370493e-04  0 
 -2.544629e-04  -8.323557e-04  0 
 -1.982792e-04  -8.403113e-04  0 
 -1.332947e-04  -8.300815e-04  0 
 -8.359436e-05  -8.402773e-04  0 
 -2.926128e-05  -8.731368e-04  0 
 -9.657906e-06  -9.041399e-04  0 
 -3.172953e-05  -9.805590e-04  0 
 -3.332238e-04  -1.092048e-03  0 
 -2.857377e-04  -1.107503e-03  0 
 -2.350554e-04  -1.121075e-03  0 
 -1.802374e-04  -1.131021e-03  0 
 -1.231088e-04  -1.144184e-03  0 
 -7.987799e-05  -1.164092e-03  0 
 -5.967745e-05  -1.192692e-03  0 
 -8.751610e-05  -1.227750e-03  0 
 -3.393017e-04  -1.300852e-03  0 
 -3.093645e-04  -1.350298e-03  0 
 -2.680200e-04  -1.371959e-03  0 
 -2.168595e-04  -1.386575e-03  0 
 -1.631278e-04  -1.400031e-03  0 
 -1.192807e-04  -1.414248e-03  0 
 -1.011229e-04  -1.427992e-03  0 
 -1.235525e-04  -1.437115e-03  0 
 -3.209475e-04  -1.503326e-03  0 
 -3.317426e-04  -1.562357e-03  0 
 -3.039819e-04  -1.590750e-03  0 
 -2.538302e-04  -1.609185e-03  0 
 -1.975516e-04  -1.623399e-03  0 
 -1.500679e-04  -1.633646e-03  0 
 -1.270137e-04  -1.638881e-03  0 
 -1.449085e-04  -1.637023e-03  0 
 -3.487416e-04  -1.705084e-03  0 
 -3.743034e-04  -1.751319e-03  0 
 -3.480574e-04  -1.787667e-03  0 
 -2.918799e-04  -1.812130e-03  0 
 -2.258604e-04  -1.828760e-03  0 
 -1.681376e-04  -1.838966e-03  0 
 -1.323469e-04  -1.840591e-03  0 
 -1.293820e-04  -1.839022e-03  0 
 -4.372677e-04  -1.880614e-03  0 
 -4.449640e-04  -1.937752e-03  0 
 -4.045426e-04  -1.981500e-03  0 
 -3.322254e-04  -2.012430e-03  0 
 -2.465812e-04  -2.032263e-03  0 
 -1.692831e-04  -2.043391e-03  0 
 -1.171732e-04  -2.047511e-03  0 
 -8.914120e-05  -2.037592e-03  0 
 -5.586861e-04  -2.073884e-03  0 
 -5.424033e-04  -2.139812e-03  0 
 -4.759293e-04  -2.190614e-03  0 
 -3.756756e-04  -2.230234e-03  0 
 -2.608437e-04  -2.254072e-03  0 
 -1.558614e-04  -2.257886e-03  0 
 -7.601855e-05  -2.257390e-03  0 
 -3.669931e-05  -2.265894e-03  0 
 -7.237125e-04  -2.311195e-03  0 
 -6.743221e-04  -2.376979e-03  0 
 -5.609112e-04  -2.428022e-03  0 
 -4.116439e-04  -2.492077e-03  0 
 -2.794960e-04  -2.512190e-03  0 
 -1.422316e-04  -2.496566e-03  0 
 -1.604073e-05  -2.473766e-03  0 
 7.309765e-05  -2.475166e-03  0 
VECTORS displacement_ITER6 FLOAT
 -2.624114e-04  -5.687410e-04  0 
 6.255003e-06  -7.469230e-04  0 
 -7.817214e-04  -2.489557e-03  0 
 2.400505e-04  -2.666257e-03  0 
 -2.698416e-04  -5.303514e-04  0 
 -2.332995e-04  -5.003837e-04  0 
 -1.155217e-04  -5.126667e-04  0 
 -6.926833e-05  -5.384280e-04  0 
 -4.950306e-05  -5.324265e-04  0 
 -8.544429e-06  -5.005208e-04  0 
 8.767616e-05  -5.206732e-04  0 
 6.575966e-05  -5.931539e-04  0 
 -3.181800e-04  -8.783751e-04  0 
 -4.022792e-04  -1.058088e-03  0 
 -4.104441e-04  -1.221403e-03  0 
 -3.855842e-04  -1.389688e-03  0 
 -4.341090e-04  -1.663508e-03  0 
 -4.231050e-04  -1.866360e-03  0 
 -5.107696e-04  -2.036675e-03  0 
 -6.587889e-04  -2.376439e-03  0 
 -1.376609e-04  -1.046639e-03  0 
 -1.405314e-04  -1.279173e-03  0 
 -1.400244e-04  -1.484693e-03  0 
 -1.409882e-04  -1.714661e-03  0 
 -1.521631e-04  -1.924865e-03  0 
 -1.381147e-04  -2.104116e-03  0 
 -3.668640e-05  -2.250419e-03  0 
 1.215503e-04  -2.490877e-03  0 
 -9.380945e-04  -2.702125e-03  0 
 -8.417124e-04  -2.814112e-03  0 
 -6.161405e-04  -2.823094e-03  0 
 -4.789155e-04  -2.765318e-03  0 
 -3.514606e-04  -2.752835e-03  0 
 -1.431800e-04  -2.787488e-03  0 
 6.116855e-05  -2.752618e-03  0 
 1.729658e-04  -2.710310e-03  0 
 -3.182803e-04  -8.292939e-04  0 
 -2.629921e-04  -8.349555e-04  0 
 -1.900136e-04  -8.433898e-04  0 
 -1.345808e-04  -8.448510e-04  0 
 -9.896189e-05  -8.554695e-04  0 
 -5.099094e-05  -8.805002e-04  0 
 -5.135178e-06  -9.080171e-04  0 
 -4.468638e-06  -9.605472e-04  0 
 -3.615347e-04  -1.083791e-03  0 
 -3.039679e-04  -1.108909e-03  0 
 -2.426377e-04  -1.126740e-03  0 
 -1.853593e-04  -1.139414e-03  0 
 -1.335690e-04  -1.157829e-03  0 
 -8.896289e-05  -1.183379e-03  0 
 -5.850130e-05  -1.209445e-03  0 
 -6.677790e-05  -1.231900e-03  0 
 -3.855042e-04  -1.305406e-03  0 
 -3.368889e-04  -1.353700e-03  0 
 -2.804911e-04  -1.382598e-03  0 
 -2.218374e-04  -1.403189e-03  0 
 -1.660650e-04  -1.423231e-03  0 
 -1.215760e-04  -1.444662e-03  0 
 -9.809125e-05  -1.463468e-03  0 
 -1.022611e-04  -1.476597e-03  0 
 -3.937083e-04  -1.514436e-03  0 
 -3.626718e-04  -1.579645e-03  0 
 -3.134296e-04  -1.614988e-03  0 
 -2.534741e-04  -1.638562e-03  0 
 -1.935824e-04  -1.657613e-03  0 
 -1.452827e-04  -1.675143e-03  0 
 -1.195185e-04  -1.692083e-03  0 
 -1.215930e-04  -1.706112e-03  0 
 -4.130308e-04  -1.735308e-03  0 
 -3.976741e-04  -1.792566e-03  0 
 -3.501950e-04  -1.830557e-03  0 
 -2.853415e-04  -1.854708e-03  0 
 -2.163443e-04  -1.871664e-03  0 
 -1.571256e-04  -1.885151e-03  0 
 -1.200653e-04  -1.898420e-03  0 
 -1.169103e-04  -1.915992e-03  0 
 -4.787318e-04  -1.950954e-03  0 
 -4.530001e-04  -2.004339e-03  0 
 -3.986283e-04  -2.040434e-03  0 
 -3.210272e-04  -2.064319e-03  0 
 -2.360642e-04  -2.078268e-03  0 
 -1.594879e-04  -2.085211e-03  0 
 -1.034831e-04  -2.089987e-03  0 
 -8.275090e-05  -2.095087e-03  0 
 -5.589975e-04  -2.167724e-03  0 
 -5.381753e-04  -2.222638e-03  0 
 -4.620381e-04  -2.257947e-03  0 
 -3.624227e-04  -2.283563e-03  0 
 -2.575480e-04  -2.290798e-03  0 
 -1.573865e-04  -2.286054e-03  0 
 -7.283651e-05  -2.281631e-03  0 
 -2.525945e-05  -2.274012e-03  0 
 -7.132656e-04  -2.421236e-03  0 
 -6.625125e-04  -2.466702e-03  0 
 -5.347131e-04  -2.503347e-03  0 
 -4.091469e-04  -2.525939e-03  0 
 -2.944924e-04  -2.518648e-03  0 
 -1.545007e-04  -2.501685e-03  0 
 -1.946072e-05  -2.496252e-03  0 
 6.428790e-05  -2.484653e-03  0 
VECTORS displacement_ITER7 FLOAT
 -3.218041e-04  -5.806984e-04  0 
 -1.308457e-06  -7.794700e-04  0 
 -8.435460e-04  -2.563618e-03  0 
 2.036901e-04  -2.669665e-03  0 
 -2.506346e-04  -5.222034e-04  0 
 -1.826479e-04  -5.164578e-04  0 
 -1.263293e-04  -5.416469e-04  0 
 -8.962980e-05  -5.349430e-04  0 
 -3.841693e-05  -5.342084e-04  0 
 -5.231325e-06  -5.348372e-04  0 
 5.916942e-05  -5.254131e-04  0 
 6.896355e-05  -5.976112e-04  0 
 -3.308726e-04  -8.819642e-04  0 
 -3.901273e-04  -1.087215e-03  0 
 -4.256802e-04  -1.261498e-03  0 
 -3.997082e-04  -1.435119e-03  0 
 -4.545507e-04  -1.649048e-03  0 
 -4.460052e-04  -1.851795e-03  0 
 -4.726781e-04  -2.060994e-03  0 
 -6.409982e-04  -2.336135e-03  0 
 -1.185537e-04  -1.044071e-03  0 
 -1.289312e-04  -1.284331e-03  0 
 -1.362164e-04  -1.486551e-03  0 
 -1.367578e-04  -1.680882e-03  0 
 -1.285387e-04  -1.889841e-03  0 
 -1.178691e-04  -2.121621e-03  0 
 -8.722615e-05  -2.307544e-03  0 
 5.881458e-05  -2.511295e-03  0 
 -9.322411e-04  -2.704411e-03  0 
 -8.500631e-04  -2.785908e-03  0 
 -6.909603e-04  -2.757512e-03  0 
 -5.261970e-04  -2.765665e-03  0 
 -3.144981e-04  -2.762501e-03  0 
 -8.219654e-05  -2.790524e-03  0 
 1.089709e-04  -2.786241e-03  0 
 1.970985e-04  -2.745281e-03  0 
 -3.107825e-04  -8.548428e-04  0 
 -2.450859e-04  -8.452556e-04  0 
 -1.888433e-04  -8.461608e-04  0 
 -1.415546e-04  -8.556747e-04  0 
 -9.557919e-05  -8.659559e-04  0 
 -5.244189e-05  -8.830201e-04  0 
 -1.287174e-05  -9.156564e-04  0 
 -2.761329e-06  -9.687621e-04  0 
 -3.580117e-04  -1.105439e-03  0 
 -3.019422e-04  -1.122514e-03  0 
 -2.420562e-04  -1.133269e-03  0 
 -1.866966e-04  -1.146063e-03  0 
 -1.361548e-04  -1.163250e-03  0 
 -9.007739e-05  -1.185300e-03  0 
 -5.726942e-05  -1.211191e-03  0 
 -6.342976e-05  -1.236884e-03  0 
 -3.886534e-04  -1.328720e-03  0 
 -3.420784e-04  -1.366423e-03  0 
 -2.845705e-04  -1.390630e-03  0 
 -2.256280e-04  -1.408701e-03  0 
 -1.704364e-04  -1.426958e-03  0 
 -1.239582e-04  -1.445750e-03  0 
 -9.493186e-05  -1.460779e-03  0 
 -9.388193e-05  -1.472555e-03  0 
 -4.115888e-04  -1.532970e-03  0 
 -3.733875e-04  -1.590242e-03  0 
 -3.206637e-04  -1.622723e-03  0 
 -2.603074e-04  -1.643761e-03  0 
 -2.008752e-04  -1.661204e-03  0 
 -1.517300e-04  -1.677004e-03  0 
 -1.207768e-04  -1.688617e-03  0 
 -1.130463e-04  -1.690454e-03  0 
 -4.319468e-04  -1.741012e-03  0 
 -4.085842e-04  -1.802676e-03  0 
 -3.594790e-04  -1.836683e-03  0 
 -2.945724e-04  -1.857669e-03  0 
 -2.263360e-04  -1.873698e-03  0 
 -1.677420e-04  -1.888341e-03  0 
 -1.300456e-04  -1.901393e-03  0 
 -1.195186e-04  -1.906567e-03  0 
 -4.800156e-04  -1.959015e-03  0 
 -4.631642e-04  -2.010882e-03  0 
 -4.101948e-04  -2.042356e-03  0 
 -3.325975e-04  -2.061788e-03  0 
 -2.470477e-04  -2.075538e-03  0 
 -1.694149e-04  -2.088253e-03  0 
 -1.145248e-04  -2.102769e-03  0 
 -9.688724e-05  -2.117833e-03  0 
 -5.612879e-04  -2.169997e-03  0 
 -5.491868e-04  -2.223932e-03  0 
 -4.792374e-04  -2.253897e-03  0 
 -3.786913e-04  -2.271339e-03  0 
 -2.661637e-04  -2.280232e-03  0 
 -1.569514e-04  -2.289486e-03  0 
 -7.118169e-05  -2.302091e-03  0 
 -3.331082e-05  -2.314055e-03  0 
 -7.087594e-04  -2.410123e-03  0 
 -6.722759e-04  -2.459925e-03  0 
 -5.696964e-04  -2.491894e-03  0 
 -4.399678e-04  -2.500164e-03  0 
 -2.883189e-04  -2.504591e-03  0 
 -1.306403e-04  -2.510565e-03  0 
 1.797244e-06  -2.520328e-03  0 
 6.761853e-05  -2.515425e-03  0 
VECTORS displacement_ITER8 FLOAT
 -3.851767e-04  -5.889378e-04  0 
 5.294505e-05  -7.609490e-04  0 
 -8.634335e-04  -2.586632e-03  0 
 1.972247e-04  -2.669687e-03  0 
 -2.329093e-04  -5.583408e-04  0 
 -1.678945e-04  -5.544199e-04  0 
 -1.401315e-04  -5.463966e-04  0 
 -8.605568e-05  -5.186362e-04  0 
 -1.339523e-05  -5.286377e-04  0 
 2.159692e-05  -5.675952e-04  0 
 3.441458e-05  -5.730485e-04  0 
 4.910797e-05  -6.083279e-04  0 
 -3.354890e-04  -9.172793e-04  0 
 -3.458978e-04  -1.103826e-03  0 
 -3.781178e-04  -1.270646e-03  0 
 -3.750863e-04  -1.457875e-03  0 
 -4.113105e-04  -1.632802e-03  0 
 -4.472062e-04  -1.834603e-03  0 
 -4.730547e-04  -2.086845e-03  0 
 -6.279380e-04  -2.312666e-03  0 
 -9.474952e-05  -1.097491e-03  0 
 -1.474958e-04  -1.327643e-03  0 
 -1.660425e-04  -1.514076e-03  0 
 -1.692879e-04  -1.680609e-03  0 
 -1.508194e-04  -1.863261e-03  0 
 -1.196355e-04  -2.083495e-03  0 
 -9.381852e-05  -2.298033e-03  0 
 2.868836e-05  -2.486555e-03  0 
 -9.624162e-04  -2.710500e-03  0 
 -8.622067e-04  -2.765225e-03  0 
 -7.202819e-04  -2.752479e-03  0 
 -5.192894e-04  -2.784013e-03  0 
 -2.830812e-04  -2.773993e-03  0 
 -8.370710e-05  -2.772778e-03  0 
 8.297190e-05  -2.788873e-03  0 
 2.081168e-04  -2.761337e-03  0 
 -3.017582e-04  -8.925236e-04  0 
 -2.408887e-04  -8.664158e-04  0 
 -1.922434e-04  -8.595908e-04  0 
 -1.366606e-04  -8.680498e-04  0 
 -7.657389e-05  -8.797053e-04  0 
 -3.872498e-05  -8.977132e-04  0 
 -2.107968e-05  -9.380524e-04  0 
 -1.460562e-05  -1.008706e-03  0 
 -3.439830e-04  -1.130345e-03  0 
 -2.970847e-04  -1.142373e-03  0 
 -2.390701e-04  -1.149453e-03  0 
 -1.804517e-04  -1.161936e-03  0 
 -1.263954e-04  -1.177244e-03  0 
 -8.246151e-05  -1.198300e-03  0 
 -5.598383e-05  -1.232306e-03  0 
 -6.734435e-05  -1.274678e-03  0 
 -3.656826e-04  -1.339875e-03  0 
 -3.331205e-04  -1.379443e-03  0 
 -2.796623e-04  -1.403340e-03  0 