# vtk DataFile Version 3.1
this is an vtk file created by FEMAC
ASCII
DATASET UNSTRUCTURED_GRID
POINTS 100 FLOAT
4.000000 5.000000 0.000000
4.000000 6.000000 0.000000
5.000000 5.000000 0.000000
5.000000 6.000000 0.000000
4.000000 5.111111 0.000000
4.000000 5.222222 0.000000
4.000000 5.333333 0.000000
4.000000 5.444444 0.000000
4.000000 5.555556 0.000000
4.000000 5.666667 0.000000
4.000000 5.777778 0.000000
4.000000 5.888889 0.000000
4.111111 5.000000 0.000000
4.222222 5.000000 0.000000
4.333333 5.000000 0.000000
4.444444 5.000000 0.000000
4.555556 5.000000 0.000000
4.666667 5.000000 0.000000
4.777778 5.000000 0.000000
4.888889 5.000000 0.000000
4.111111 6.000000 0.000000
4.222222 6.000000 0.000000
4.333333 6.000000 0.000000
4.444444 6.000000 0.000000
4.555556 6.000000 0.000000
4.666667 6.000000 0.000000
4.777778 6.000000 0.000000
4.888889 6.000000 0.000000
5.000000 5.111111 0.000000
5.000000 5.222222 0.000000
5.000000 5.333333 0.000000
5.000000 5.444444 0.000000
5.000000 5.555556 0.000000
5.000000 5.666667 0.000000
5.000000 5.777778 0.000000
5.000000 5.888889 0.000000
4.111111 5.111111 0.000000
4.111111 5.222222 0.000000
4.111111 5.333333 0.000000
4.111111 5.444444 0.000000
4.111111 5.555556 0.000000
4.111111 5.666667 0.000000
4.111111 5.777778 0.000000
4.111111 5.888889 0.000000
4.222222 5.111111 0.000000
4.222222 5.222222 0.000000
4.222222 5.333333 0.000000
4.222222 5.444444 0.000000
4.222222 5.555556 0.000000
4.222222 5.666667 0.000000
4.222222 5.777778 0.000000
4.222222 5.888889 0.000000
4.333333 5.111111 0.000000
4.333333 5.222222 0.000000
4.333333 5.333333 0.000000
4.333333 5.444444 0.000000
4.333333 5.555556 0.000000
4.333333 5.666667 0.000000
4.333333 5.777778 0.000000
4.333333 5.888889 0.000000
4.444444 5.111111 0.000000
4.444444 5.222222 0.000000
4.444444 5.333333 0.000000
4.444444 5.444444 0.000000
4.444444 5.555556 0.000000
4.444444 5.666667 0.000000
4.444444 5.777778 0.000000
4.444444 5.888889 0.000000
4.555556 5.111111 0.000000
4.555556 5.222222 0.000000
4.555556 5.333333 0.000000
4.555556 5.444444 0.000000
4.555556 5.555556 0.000000
4.555556 5.666667 0.000000
4.555556 5.777778 0.000000
4.555556 5.888889 0.000000
4.666667 5.111111 0.000000
4.666667 5.222222 0.000000
4.666667 5.333333 0.000000
4.666667 5.444444 0.000000
4.666667 5.555556 0.000000
4.666667 5.666667 0.000000
4.666667 5.777778 0.000000
4.666667 5.888889 0.000000
4.777778 5.111111 0.000000
4.777778 5.222222 0.000000
4.777778 5.333333 0.000000
4.777778 5.444444 0.000000
4.777778 5.555556 0.000000
4.777778 5.666667 0.000000
4.777778 5.777778 0.000000
4.777778 5.888889 0.000000
4.888889 5.111111 0.000000
4.888889 5.222222 0.000000
4.888889 5.333333 0.000000
4.888889 5.444444 0.000000
4.888889 5.555556 0.000000
4.888889 5.666667 0.000000
4.888889 5.777778 0.000000
4.888889 5.888889 0.000000
CELLS 81 405 
4 0 12 36  4
4 4 36 37  5
4 5 37 38  6
4 6 38 39  7
4 7 39 40  8
4 8 40 41  9
4 9 41 42 10
4 10 42 43 11
4 11 43 20  1
4 12 13 44 36
4 36 44 45 37
4 37 45 46 38
4 38 46 47 39
4 39 47 48 40
4 40 48 49 41
4 41 49 50 42
4 42 50 51 43
4 43 51 21 20
4 13 14 52 44
4 44 52 53 45
4 45 53 54 46
4 46 54 55 47
4 47 55 56 48
4 48 56 57 49
4 49 57 58 50
4 50 58 59 51
4 51 59 22 21
4 14 15 60 52
4 52 60 61 53
4 53 61 62 54
4 54 62 63 55
4 55 63 64 56
4 56 64 65 57
4 57 65 66 58
4 58 66 67 59
4 59 67 23 22
4 15 16 68 60
4 60 68 69 61
4 61 69 70 62
4 62 70 71 63
4 63 71 72 64
4 64 72 73 65
4 65 73 74 66
4 66 74 75 67
4 67 75 24 23
4 16 17 76 68
4 68 76 77 69
4 69 77 78 70
4 70 78 79 71
4 71 79 80 72
4 72 80 81 73
4 73 81 82 74
4 74 82 83 75
4 75 83 25 24
4 17 18 84 76
4 76 84 85 77
4 77 85 86 78
4 78 86 87 79
4 79 87 88 80
4 80 88 89 81
4 81 89 90 82
4 82 90 91 83
4 83 91 26 25
4 18 19 92 84
4 84 92 93 85
4 85 93 94 86
4 86 94 95 87
4 87 95 96 88
4 88 96 97 89
4 89 97 98 90
4 90 98 99 91
4 91 99 27 26
4 19  2 28 92
4 92 28 29 93
4 93 29 30 94
4 94 30 31 95
4 95 31 32 96
4 96 32 33 97
4 97 33 34 98
4 98 34 35 99
4 99 35  3 27
CELL_TYPES 81
9 9 9 9 9 9 9 9 9 9 9 9 9 9 9 9 9 9 9 9 9 9 9 9 9 9 9 9 9 9 9 9 9 9 9 9 9 9 9 9 9 9 9 9 9 9 9 9 9 9 9 9 9 9 9 9 9 9 9 9 9 9 9 9 9 9 9 9 9 9 9 9 9 9 9 9 9 9 9 9 9 
POINT_DATA 100
VECTORS displacement_ITER1 FLOAT
 8.265249e-03  -1.329879e-02  0 
 1.215081e-02  -1.372847e-02  0 
 9.659585e-03  -1.735206e-02  0 
 1.388430e-02  -1.732185e-02  0 
 8.497016e-03  -1.347266e-02  0 
 8.533408e-03  -1.366849e-02  0 
 9.346495e-03  -1.368804e-02  0 
 9.839012e-03  -1.383066e-02  0 
 1.030067e-02  -1.393739e-02  0 
 1.053888e-02  -1.393641e-02  0 
 1.085040e-02  -1.380734e-02  0 
 1.135225e-02  -1.369364e-02  0 
 8.925854e-03  -1.348847e-02  0 
 9.183769e-03  -1.364408e-02  0 
 9.086811e-03  -1.433478e-02  0 
 8.889713e-03  -1.498415e-02  0 
 8.863606e-03  -1.553791e-02  0 
 8.874815e-03  -1.590868e-02  0 
 8.970959e-03  -1.608039e-02  0 
 9.338924e-03  -1.655566e-02  0 
 1.221011e-02  -1.445103e-02  0 
 1.229089e-02  -1.499321e-02  0 
 1.240778e-02  -1.544205e-02  0 
 1.254845e-02  -1.584382e-02  0 
 1.270838e-02  -1.621342e-02  0 
 1.289188e-02  -1.655586e-02  0 
 1.310809e-02  -1.687015e-02  0 
 1.338409e-02  -1.713883e-02  0 
 9.828607e-03  -1.731344e-02  0 
 1.023491e-02  -1.744235e-02  0 
 1.082551e-02  -1.735685e-02  0 
 1.130733e-02  -1.728901e-02  0 
 1.177236e-02  -1.731937e-02  0 
 1.228794e-02  -1.738634e-02  0 
 1.281407e-02  -1.745695e-02  0 
 1.323261e-02  -1.744692e-02  0 
 8.829820e-03  -1.375156e-02  0 
 9.072538e-03  -1.399159e-02  0 
 9.488911e-03  -1.418646e-02  0 
 9.979314e-03  -1.424918e-02  0 
 1.036898e-02  -1.428605e-02  0 
 1.070294e-02  -1.430057e-02  0 
 1.107797e-02  -1.433930e-02  0 
 1.159733e-02  -1.440646e-02  0 
 9.186407e-03  -1.402468e-02  0 
 9.402004e-03  -1.430950e-02  0 
 9.736388e-03  -1.450891e-02  0 
 1.012194e-02  -1.462608e-02  0 
 1.051453e-02  -1.468684e-02  0 
 1.090258e-02  -1.475268e-02  0 
 1.132494e-02  -1.484299e-02  0 
 1.179692e-02  -1.493645e-02  0 
 9.379752e-03  -1.443178e-02  0 
 9.645409e-03  -1.465151e-02  0 
 9.962220e-03  -1.484058e-02  0 
 1.032187e-02  -1.498226e-02  0 
 1.071006e-02  -1.509128e-02  0 
 1.111870e-02  -1.519118e-02  0 
 1.154318e-02  -1.529328e-02  0 
 1.197755e-02  -1.538337e-02  0 
 9.407772e-03  -1.497082e-02  0 
 9.793902e-03  -1.506556e-02  0 
 1.015670e-02  -1.521086e-02  0 
 1.053389e-02  -1.535388e-02  0 
 1.092881e-02  -1.548046e-02  0 
 1.133703e-02  -1.559420e-02  0 
 1.174913e-02  -1.569718e-02  0 
 1.215527e-02  -1.578354e-02  0 
 9.390198e-03  -1.548898e-02  0 
 9.875893e-03  -1.552463e-02  0 
 1.031738e-02  -1.562720e-02  0 
 1.073261e-02  -1.574661e-02  0 
 1.114295e-02  -1.586099e-02  0 
 1.155281e-02  -1.596680e-02  0 
 1.195500e-02  -1.606410e-02  0 
 1.234171e-02  -1.614917e-02  0 
 9.411547e-03  -1.592096e-02  0 
 9.965568e-03  -1.599404e-02  0 
 1.045781e-02  -1.607171e-02  0 
 1.090663e-02  -1.615447e-02  0 
 1.133703e-02  -1.623915e-02  0 
 1.175899e-02  -1.631976e-02  0 
 1.216642e-02  -1.640135e-02  0 
 1.254600e-02  -1.648473e-02  0 
 9.553639e-03  -1.635665e-02  0 
 1.009241e-02  -1.646319e-02  0 
 1.058859e-02  -1.651222e-02  0 
 1.105808e-02  -1.656337e-02  0 
 1.150528e-02  -1.661510e-02  0 
 1.194486e-02  -1.666653e-02  0 
 1.238310e-02  -1.671900e-02  0 
 1.278099e-02  -1.679180e-02  0 
 9.756912e-03  -1.686642e-02  0 
 1.020237e-02  -1.691304e-02  0 
 1.071699e-02  -1.693532e-02  0 
 1.119319e-02  -1.695692e-02  0 
 1.164655e-02  -1.697877e-02  0 
 1.211380e-02  -1.701641e-02  0 
 1.258562e-02  -1.706128e-02  0 
 1.305608e-02  -1.707013e-02  0 
VECTORS displacement_ITER2 FLOAT
 6.482168e-03  -1.061337e-02  0 
 9.600776e-03  -1.088911e-02  0 
 7.505966e-03  -1.348403e-02  0 
 1.098610e-02  -1.349825e-02  0 
 6.529550e-03  -1.055958e-02  0 
 6.920926e-03  -1.063017e-02  0 
 7.481444e-03  -1.071934e-02  0 
 7.628693e-03  -1.072186e-02  0 
 7.803038e-03  -1.065716e-02  0 
 8.082069e-03  -1.062161e-02  0 
 8.609332e-03  -1.065800e-02  0 
 9.118203e-03  -1.083581e-02  0 
 6.853664e-03  -1.043943e-02  0 
 6.925339e-03  -1.078572e-02  0 
 7.002917e-03  -1.132917e-02  0 
 6.964526e-03  -1.165620e-02  0 
 6.846541e-03  -1.198068e-02  0 
 6.775976e-03  -1.239999e-02  0 
 6.876374e-03  -1.266953e-02  0 
 7.082895e-03  -1.298673e-02  0 
 9.669373e-03  -1.132718e-02  0 
 9.747955e-03  -1.173716e-02  0 
 9.825610e-03  -1.211192e-02  0 
 9.918954e-03  -1.244216e-02  0 
 1.003489e-02  -1.273747e-02  0 
 1.018015e-02  -1.300643e-02  0 
 1.036304e-02  -1.325381e-02  0 
 1.059666e-02  -1.346709e-02  0 
 7.522325e-03  -1.363735e-02  0 
 8.059250e-03  -1.365637e-02  0 
 8.474621e-03  -1.351348e-02  0 
 8.873209e-03  -1.349407e-02  0 
 9.265431e-03  -1.351435e-02  0 
 9.696401e-03  -1.358467e-02  0 
 1.015964e-02  -1.369402e-02  0 
 1.054122e-02  -1.370425e-02  0 
 6.846086e-03  -1.078027e-02  0 
 7.139998e-03  -1.096499e-02  0 
 7.462056e-03  -1.101083e-02  0 
 7.729596e-03  -1.100619e-02  0 
 7.987647e-03  -1.104546e-02  0 
 8.338404e-03  -1.112472e-02  0 
 8.784004e-03  -1.121926e-02  0 
 9.243449e-03  -1.128209e-02  0 
 7.128996e-03  -1.102050e-02  0 
 7.315339e-03  -1.119904e-02  0 
 7.573425e-03  -1.129334e-02  0 
 7.867539e-03  -1.135715e-02  0 
 8.190995e-03  -1.143823e-02  0 
 8.552168e-03  -1.154269e-02  0 
 8.945567e-03  -1.163722e-02  0 
 9.349212e-03  -1.170260e-02  0 
 7.228257e-03  -1.135687e-02  0 
 7.462612e-03  -1.146281e-02  0 
 7.730804e-03  -1.158368e-02  0 
 8.041269e-03  -1.169338e-02  0 
 8.382040e-03  -1.180069e-02  0 
 8.739336e-03  -1.190661e-02  0 
 9.103440e-03  -1.200050e-02  0 
 9.467924e-03  -1.207080e-02  0 
 7.247876e-03  -1.168893e-02  0 
 7.568539e-03  -1.177843e-02  0 
 7.888942e-03  -1.189544e-02  0 
 8.221444e-03  -1.201666e-02  0 
 8.566958e-03  -1.213028e-02  0 
 8.916415e-03  -1.223372e-02  0 
 9.261593e-03  -1.232422e-02  0 
 9.597565e-03  -1.239614e-02  0 
 7.273170e-03  -1.203485e-02  0 
 7.661984e-03  -1.212428e-02  0 
 8.032790e-03  -1.222953e-02  0 
 8.390886e-03  -1.233764e-02  0 
 8.743274e-03  -1.243843e-02  0 
 9.089461e-03  -1.253026e-02  0 
 9.423615e-03  -1.261390e-02  0 
 9.740474e-03  -1.268586e-02  0 
 7.307412e-03  -1.241537e-02  0 
 7.759401e-03  -1.249009e-02  0 
 8.165814e-03  -1.257622e-02  0 
 8.542331e-03  -1.265808e-02  0 
 8.903594e-03  -1.273348e-02  0 
 9.256183e-03  -1.280248e-02  0 
 9.593639e-03  -1.287371e-02  0 
 9.903762e-03  -1.294628e-02  0 
 7.384220e-03  -1.279948e-02  0 
 7.867109e-03  -1.286988e-02  0 
 8.288089e-03  -1.292044e-02  0 
 8.674658e-03  -1.297090e-02  0 
 9.041655e-03  -1.301608e-02  0 
 9.408278e-03  -1.306241e-02  0 
 9.774605e-03  -1.311100e-02  0 
 1.010089e-02  -1.318222e-02  0 
 7.526772e-03  -1.321081e-02  0 
 7.967463e-03  -1.323285e-02  0 
 8.403221e-03  -1.325199e-02  0 
 8.782033e-03  -1.325550e-02  0 
 9.159749e-03  -1.328048e-02  0 
 9.547282e-03  -1.332112e-02  0 
 9.949920e-03  -1.336815e-02  0 
 1.035268e-02  -1.339012e-02  0 
VECTORS displacement_ITER3 FLOAT
 5.454410e-03  -9.561242e-03  0 
 8.297201e-03  -9.800752e-03  0 
 6.142456e-03  -1.207526e-02  0 
 9.605808e-03  -1.204776e-02  0 
 5.518121e-03  -9.574480e-03  0 
 5.977111e-03  -9.609689e-03  0 
 6.331411e-03  -9.590099e-03  0 
 6.571824e-03  -9.486847e-03  0 
 6.848031e-03  -9.449495e-03  0 
 7.164053e-03  -9.513266e-03  0 
 7.564067e-03  -9.636273e-03  0 
 7.913269e-03  -9.770731e-03  0 
 5.698194e-03  -9.495227e-03  0 
 5.840147e-03  -9.885975e-03  0 
 6.019811e-03  -1.022608e-02  0 
 6.089943e-03  -1.042371e-02  0 
 6.033464e-03  -1.064296e-02  0 
 5.954858e-03  -1.097166e-02  0 
 5.944621e-03  -1.126374e-02  0 
 5.986561e-03  -1.154868e-02  0 
 8.388689e-03  -1.017044e-02  0 
 8.485674e-03  -1.051024e-02  0 
 8.570370e-03  -1.083846e-02  0 
 8.654935e-03  -1.113915e-02  0 
 8.752574e-03  -1.140879e-02  0 
 8.874729e-03  -1.164812e-02  0 
 9.031696e-03  -1.185612e-02  0 
 9.241793e-03  -1.202039e-02  0 
 6.447434e-03  -1.217242e-02  0 
 6.926307e-03  -1.209919e-02  0 
 7.231797e-03  -1.204999e-02  0 
 7.629200e-03  -1.210547e-02  0 
 8.061634e-03  -1.211656e-02  0 
 8.500094e-03  -1.212511e-02  0 
 8.915875e-03  -1.216432e-02  0 
 9.241107e-03  -1.217224e-02  0 
 5.825494e-03  -9.778088e-03  0 
 6.087539e-03  -9.890370e-03  0 
 6.374854e-03  -9.886070e-03  0 
 6.663521e-03  -9.876897e-03  0 
 6.983535e-03  -9.901823e-03  0 
 7.335821e-03  -9.968529e-03  0 
 7.696966e-03  -1.005050e-02  0 
 8.045393e-03  -1.011877e-02  0 
 6.057701e-03  -1.001201e-02  0 
 6.242866e-03  -1.011690e-02  0 
 6.493638e-03  -1.017641e-02  0 
 6.793636e-03  -1.022287e-02  0 
 7.124206e-03  -1.028141e-02  0 
 7.470103e-03  -1.034967e-02  0 
 7.814466e-03  -1.041642e-02  0 
 8.151510e-03  -1.047287e-02  0 
 6.171774e-03  -1.027791e-02  0 
 6.382936e-03  -1.035122e-02  0 
 6.639497e-03  -1.043994e-02  0 
 6.940464e-03  -1.052416e-02  0 
 7.267443e-03  -1.060386e-02  0 
 7.601773e-03  -1.067913e-02  0 
 7.932016e-03  -1.074667e-02  0 
 8.254039e-03  -1.080194e-02  0 
 6.245641e-03  -1.050123e-02  0 
 6.495716e-03  -1.059564e-02  0 
 6.782392e-03  -1.069652e-02  0 
 7.092654e-03  -1.079596e-02  0 
 7.416491e-03  -1.088688e-02  0 
 7.741302e-03  -1.096840e-02  0 
 8.058159e-03  -1.104039e-02  0 
 8.363079e-03  -1.109977e-02  0 
 6.304010e-03  -1.073955e-02  0 
 6.598437e-03  -1.085060e-02  0 
 6.915020e-03  -1.095743e-02  0 
 7.240999e-03  -1.105602e-02  0 
 7.568311e-03  -1.114419e-02  0 
 7.889858e-03  -1.122440e-02  0 
 8.197768e-03  -1.129879e-02  0 
 8.486378e-03  -1.136352e-02  0 
 6.338349e-03  -1.103157e-02  0 
 6.690368e-03  -1.113149e-02  0 
 7.036791e-03  -1.123066e-02  0 
 7.377836e-03  -1.131402e-02  0 
 7.714533e-03  -1.138615e-02  0 
 8.044218e-03  -1.145415e-02  0 
 8.354667e-03  -1.152479e-02  0 
 8.632725e-03  -1.159416e-02  0 
 6.370200e-03  -1.135459e-02  0 
 6.774666e-03  -1.144778e-02  0 
 7.139876e-03  -1.151957e-02  0 
 7.493121e-03  -1.157268e-02  0 
 7.846699e-03  -1.161970e-02  0 
 8.197604e-03  -1.167153e-02  0 
 8.530973e-03  -1.172480e-02  0 
 8.814161e-03  -1.179226e-02  0 
 6.446871e-03  -1.171952e-02  0 
 6.853135e-03  -1.177961e-02  0 
 7.212085e-03  -1.181439e-02  0 
 7.572449e-03  -1.182777e-02  0 
 7.964083e-03  -1.185674e-02  0 
 8.348809e-03  -1.189157e-02  0 
 8.710869e-03  -1.192982e-02  0 
 9.045665e-03  -1.195156e-02  0 
VECTORS displacement_ITER4 FLOAT
 5.121716e-03  -9.105827e-03  0 
 7.897480e-03  -9.345689e-03  0 
 5.725825e-03  -1.154772e-02  0 
 9.234546e-03  -1.168607e-02  0 
 5.341787e-03  -9.217254e-03  0 
 5.676505e-03  -9.293574e-03  0 
 5.927824e-03  -9.261755e-03  0 
 6.258579e-03  -9.208340e-03  0 
 6.541960e-03  -9.235423e-03  0 
 6.833917e-03  -9.293706e-03  0 
 7.132681e-03  -9.339481e-03  0 
 7.439178e-03  -9.344914e-03  0 
 5.402902e-03  -9.227509e-03  0 
 5.581846e-03  -9.464121e-03  0 
 5.602264e-03  -9.697020e-03  0 
 5.598041e-03  -9.984905e-03  0 
 5.582291e-03  -1.030147e-02  0 
 5.614540e-03  -1.061737e-02  0 
 5.656392e-03  -1.089474e-02  0 
 5.736551e-03  -1.109459e-02  0 
 7.965309e-03  -9.797689e-03  0 
 8.036349e-03  -1.015098e-02  0 
 8.110518e-03  -1.046425e-02  0 
 8.190184e-03  -1.074398e-02  0 
 8.282923e-03  -1.098973e-02  0 
 8.399653e-03  -1.120044e-02  0 
 8.558614e-03  -1.137626e-02  0 
 8.800166e-03  -1.152611e-02  0 
 6.138870e-03  -1.160072e-02  0 
 6.513645e-03  -1.160264e-02  0 
 6.872438e-03  -1.166395e-02  0 
 7.296283e-03  -1.168598e-02  0 
 7.689883e-03  -1.164996e-02  0 
 8.054523e-03  -1.161418e-02  0 
 8.413882e-03  -1.162695e-02  0 
 8.784905e-03  -1.166191e-02  0 
 5.547100e-03  -9.420139e-03  0 
 5.768946e-03  -9.502120e-03  0 
 6.032966e-03  -9.543324e-03  0 
 6.332996e-03  -9.573993e-03  0 
 6.647962e-03  -9.604135e-03  0 
 6.951167e-03  -9.651499e-03  0 
 7.253177e-03  -9.700162e-03  0 
 7.586414e-03  -9.755328e-03  0 
 5.702001e-03  -9.595863e-03  0 
 5.904608e-03  -9.715012e-03  0 
 6.162394e-03  -9.803763e-03  0 
 6.453199e-03  -9.873580e-03  0 
 6.760219e-03  -9.933229e-03  0 
 7.069826e-03  -9.990344e-03  0 
 7.381961e-03  -1.005287e-02  0 
 7.705400e-03  -1.011293e-02  0 
 5.809136e-03  -9.814665e-03  0 
 6.040065e-03  -9.939804e-03  0 
 6.303165e-03  -1.005071e-02  0 
 6.591243e-03  -1.014378e-02  0 
 6.893215e-03  -1.022421e-02  0 
 7.200420e-03  -1.029822e-02  0 
 7.507635e-03  -1.036799e-02  0 
 7.811512e-03  -1.042724e-02  0 
 5.879642e-03  -1.007934e-02  0 
 6.156706e-03  -1.019041e-02  0 
 6.440084e-03  -1.029883e-02  0 
 6.735424e-03  -1.039787e-02  0 
 7.038460e-03  -1.048736e-02  0 
 7.341537e-03  -1.056940e-02  0 
 7.637255e-03  -1.064361e-02  0 
 7.920612e-03  -1.070480e-02  0 
 5.932811e-03  -1.037605e-02  0 
 6.250664e-03  -1.046272e-02  0 
 6.562897e-03  -1.055482e-02  0 
 6.875408e-03  -1.064528e-02  0 
 7.186687e-03  -1.072998e-02  0 
 7.490418e-03  -1.080904e-02  0 
 7.777865e-03  -1.088245e-02  0 
 8.042603e-03  -1.094591e-02  0 
 5.975008e-03  -1.067870e-02  0 
 6.326165e-03  -1.074587e-02  0 
 6.669262e-03  -1.081939e-02  0 
 7.003974e-03  -1.089174e-02  0 
 7.330034e-03  -1.096051e-02  0 
 7.643228e-03  -1.102519e-02  0 
 7.932382e-03  -1.108821e-02  0 
 8.186108e-03  -1.114994e-02  0 
 6.019671e-03  -1.096543e-02  0 
 6.393416e-03  -1.103573e-02  0 
 6.759440e-03  -1.109179e-02  0 
 7.117121e-03  -1.113992e-02  0 
 7.463985e-03  -1.118700e-02  0 
 7.792451e-03  -1.122984e-02  0 
 8.097675e-03  -1.126750e-02  0 
 8.360716e-03  -1.131737e-02  0 
 6.087407e-03  -1.125442e-02  0 
 6.458001e-03  -1.133279e-02  0 
 6.827674e-03  -1.137014e-02  0 
 7.213767e-03  -1.139554e-02  0 
 7.588324e-03  -1.141661e-02  0 
 7.931183e-03  -1.143023e-02  0 
 8.256021e-03  -1.144229e-02  0 
 8.574709e-03  -1.145757e-02  0 
VECTORS displacement_ITER5 FLOAT
 5.072371e-03  -9.010669e-03  0 
 7.706489e-03  -9.175953e-03  0 
 5.573499e-03  -1.142877e-02  0 
 9.021012e-03  -1.155355e-02  0 
 5.231637e-03  -9.051414e-03  0 
 5.480643e-03  -9.113985e-03  0 
 5.731149e-03  -9.121697e-03  0 
 6.068855e-03  -9.140328e-03  0 
 6.382029e-03  -9.166034e-03  0 
 6.703269e-03  -9.189222e-03  0 
 7.003568e-03  -9.177036e-03  0 
 7.322028e-03  -9.153180e-03  0 
 5.289322e-03  -9.061820e-03  0 
 5.384929e-03  -9.288524e-03  0 
 5.363465e-03  -9.561253e-03  0 
 5.377461e-03  -9.902880e-03  0 
 5.433368e-03  -1.021167e-02  0 
 5.466860e-03  -1.047686e-02  0 
 5.470333e-03  -1.076022e-02  0 
 5.521119e-03  -1.102978e-02  0 
 7.828303e-03  -9.615919e-03  0 
 7.898634e-03  -9.998387e-03  0 
 7.961243e-03  -1.032844e-02  0 
 8.031372e-03  -1.061542e-02  0 
 8.118655e-03  -1.086444e-02  0 
 8.233039e-03  -1.107891e-02  0 
 8.389431e-03  -1.126121e-02  0 
 8.619903e-03  -1.141520e-02  0 
 5.928067e-03  -1.145226e-02  0 
 6.335260e-03  -1.148478e-02  0 
 6.735813e-03  -1.152007e-02  0 
 7.121093e-03  -1.151830e-02  0 
 7.480862e-03  -1.151999e-02  0 
 7.852947e-03  -1.152665e-02  0 
 8.237417e-03  -1.153081e-02  0 
 8.628702e-03  -1.153209e-02  0 
 5.389595e-03  -9.241593e-03  0 
 5.601417e-03  -9.336013e-03  0 
 5.866642e-03  -9.410718e-03  0 
 6.167435e-03  -9.466139e-03  0 
 6.480915e-03  -9.505438e-03  0 
 6.788694e-03  -9.534453e-03  0 
 7.099858e-03  -9.557036e-03  0 
 7.440204e-03  -9.585839e-03  0 
 5.531586e-03  -9.425618e-03  0 
 5.744877e-03  -9.564686e-03  0 
 6.005442e-03  -9.670408e-03  0 
 6.292390e-03  -9.751953e-03  0 
 6.593108e-03  -9.814818e-03  0 
 6.899910e-03  -9.867074e-03  0 
 7.215987e-03  -9.917572e-03  0 
 7.549177e-03  -9.965932e-03  0 
 5.632062e-03  -9.680710e-03  0 
 5.880318e-03  -9.808291e-03  0 
 6.144825e-03  -9.921911e-03  0 
 6.429005e-03  -1.001742e-02  0 
 6.725475e-03  -1.009892e-02  0 
 7.029388e-03  -1.017165e-02  0 
 7.338567e-03  -1.023832e-02  0 
 7.650728e-03  -1.029442e-02  0 
 5.700198e-03  -9.981172e-03  0 
 5.988071e-03  -1.007484e-02  0 
 6.274584e-03  -1.017592e-02  0 
 6.568587e-03  -1.027249e-02  0 
 6.868648e-03  -1.036122e-02  0 
 7.169957e-03  -1.044312e-02  0 
 7.467371e-03  -1.051724e-02  0 
 7.755967e-03  -1.057786e-02  0 
 5.750309e-03  -1.027649e-02  0 
 6.072741e-03  -1.035118e-02  0 
 6.389369e-03  -1.043647e-02  0 
 6.702719e-03  -1.052299e-02  0 
 7.013376e-03  -1.060579e-02  0 
 7.316873e-03  -1.068443e-02  0 
 7.605881e-03  -1.075804e-02  0 
 7.874338e-03  -1.082140e-02  0 
 5.800250e-03  -1.055317e-02  0 
 6.148485e-03  -1.062838e-02  0 
 6.491466e-03  -1.070163e-02  0 
 6.825761e-03  -1.077218e-02  0 
 7.152020e-03  -1.083889e-02  0 
 7.465910e-03  -1.090205e-02  0 
 7.757015e-03  -1.096543e-02  0 
 8.014560e-03  -1.102830e-02  0 
 5.852222e-03  -1.083570e-02  0 
 6.222339e-03  -1.090865e-02  0 
 6.583237e-03  -1.096829e-02  0 
 6.936036e-03  -1.102163e-02  0 
 7.278680e-03  -1.106769e-02  0 
 7.609239e-03  -1.110672e-02  0 
 7.920314e-03  -1.114646e-02  0 
 8.187290e-03  -1.120118e-02  0 
 5.906954e-03  -1.114134e-02  0 
 6.284831e-03  -1.119387e-02  0 
 6.665409e-03  -1.123653e-02  0 
 7.034922e-03  -1.127257e-02  0 
 7.389068e-03  -1.129630e-02  0 
 7.738287e-03  -1.131130e-02  0 
 8.083086e-03  -1.132449e-02  0 
 8.403520e-03  -1.134628e-02  0 
VECTORS displacement_ITER6 FLOAT
 5.028315e-03  -8.952043e-03  0 
 7.540641e-03  -9.140201e-03  0 
 5.462778e-03  -1.131279e-02  0 
 8.876399e-03  -1.143238e-02  0 
 5.138823e-03  -8.974805e-03  0 
 5.397780e-03  -9.016247e-03  0 
 5.681047e-03  -9.051224e-03  0 
 5.986563e-03  -9.100845e-03  0 
 6.280986e-03  -9.109238e-03  0 
 6.604285e-03  -9.103884e-03  0 
 6.929998e-03  -9.090031e-03  0 
 7.248921e-03  -9.101189e-03  0 
 5.151380e-03  -9.021983e-03  0 
 5.248003e-03  -9.283868e-03  0 
 5.299373e-03  -9.556774e-03  0 
 5.351407e-03  -9.826610e-03  0 
 5.387997e-03  -1.007991e-02  0 
 5.395800e-03  -1.033784e-02  0 
 5.383364e-03  -1.064067e-02  0 
 5.414398e-03  -1.096387e-02  0 
 7.709797e-03  -9.529713e-03  0 
 7.795283e-03  -9.908687e-03  0 
 7.859433e-03  -1.024142e-02  0 
 7.928713e-03  -1.052919e-02  0 
 8.015817e-03  -1.077809e-02  0 
 8.130507e-03  -1.099311e-02  0 
 8.285287e-03  -1.117663e-02  0 
 8.505921e-03  -1.132814e-02  0 
 5.829040e-03  -1.136327e-02  0 
 6.245717e-03  -1.139367e-02  0 
 6.646557e-03  -1.140250e-02  0 
 7.013727e-03  -1.140067e-02  0 
 7.378882e-03  -1.142114e-02  0 
 7.763621e-03  -1.143900e-02  0 
 8.154696e-03  -1.143716e-02  0 
 8.542775e-03  -1.142501e-02  0 
 5.299361e-03  -9.180411e-03  0 
 5.526479e-03  -9.278038e-03  0 
 5.800018e-03  -9.347009e-03  0 
 6.087640e-03  -9.396571e-03  0 
 6.383206e-03  -9.436041e-03  0 
 6.692444e-03  -9.463938e-03  0 
 7.015193e-03  -9.483685e-03  0 
 7.346821e-03  -9.501209e-03  0 
 5.441000e-03  -9.401434e-03  0 
 5.664167e-03  -9.517119e-03  0 
 5.923884e-03  -9.607542e-03  0 
 6.205809e-03  -9.679196e-03  0 
 6.500267e-03  -9.739790e-03  0 
 6.804520e-03  -9.792714e-03  0 
 7.119280e-03  -9.838102e-03  0 
 7.448213e-03  -9.878685e-03  0 
 5.540954e-03  -9.653956e-03  0 
 5.787200e-03  -9.757156e-03  0 
 6.052356e-03  -9.855463e-03  0 
 6.335884e-03  -9.942736e-03  0 
 6.630654e-03  -1.002055e-02  0 
 6.931653e-03  -1.009119e-02  0 
 7.237659e-03  -1.015502e-02  0 
 7.548207e-03  -1.020840e-02  0 
 5.614506e-03  -9.912294e-03  0 
 5.890125e-03  -1.000512e-02  0 
 6.176215e-03  -1.010135e-02  0 
 6.470960e-03  -1.019353e-02  0 
 6.770454e-03  -1.027918e-02  0 
 7.069860e-03  -1.035902e-02  0 
 7.365285e-03  -1.043186e-02  0 
 7.653136e-03  -1.049188e-02  0 
 5.673954e-03  -1.016709e-02  0 
 5.980383e-03  -1.025904e-02  0 
 6.291849e-03  -1.035064e-02  0 
 6.603795e-03  -1.043770e-02  0 
 6.913481e-03  -1.051948e-02  0 
 7.215522e-03  -1.059741e-02  0 
 7.503261e-03  -1.067110e-02  0 
 7.771343e-03  -1.073485e-02  0 
 5.726802e-03  -1.043089e-02  0 
 6.064329e-03  -1.052246e-02  0 
 6.398425e-03  -1.060537e-02  0 
 6.728229e-03  -1.067984e-02  0 
 7.052295e-03  -1.074727e-02  0 
 7.364828e-03  -1.081123e-02  0 
 7.654822e-03  -1.087684e-02  0 
 7.911697e-03  -1.094183e-02  0 
 5.775523e-03  -1.072259e-02  0 
 6.140522e-03  -1.079919e-02  0 
 6.493962e-03  -1.086591e-02  0 
 6.839775e-03  -1.092331e-02  0 
 7.179045e-03  -1.097015e-02  0 
 7.510318e-03  -1.101088e-02  0 
 7.821633e-03  -1.105566e-02  0 
 8.085427e-03  -1.111553e-02  0 
 5.814420e-03  -1.104023e-02  0 
 6.201529e-03  -1.108747e-02  0 
 6.577827e-03  -1.113165e-02  0 
 6.935793e-03  -1.116846e-02  0 
 7.287089e-03  -1.119389e-02  0 
 7.643312e-03  -1.121328e-02  0 
 7.993321e-03  -1.123024e-02  0 
 8.305586e-03  -1.125773e-02  0 
VECTORS displacement_ITER7 FLOAT
 4.954363e-03  -8.888939e-03  0 
 7.468374e-03  -9.091247e-03  0 
 5.374726e-03  -1.127698e-02  0 
 8.797673e-03  -1.142500e-02  0 
 5.088616e-03  -8.952681e-03  0 
 5.327223e-03  -8.992036e-03  0 
 5.617777e-03  -9.028770e-03  0 
 5.915464e-03  -9.066035e-03  0 
 6.223815e-03  -9.074440e-03  0 
 6.541444e-03  -9.076108e-03  0 
 6.865988e-03  -9.073196e-03  0 
 7.177447e-03  -9.084171e-03  0 
 5.068635e-03  -9.038891e-03  0 
 5.174456e-03  -9.278357e-03  0 
 5.244841e-03  -9.529255e-03  0 
 5.282315e-03  -9.772531e-03  0 
 5.289646e-03  -1.003879e-02  0 
 5.303999e-03  -1.032870e-02  0 
 5.319656e-03  -1.062715e-02  0 
 5.345179e-03  -1.093779e-02  0 
 7.635451e-03  -9.501868e-03  0 
 7.720263e-03  -9.878760e-03  0 
 7.784351e-03  -1.021022e-02  0 
 7.852729e-03  -1.049786e-02  0 
 7.937990e-03  -1.074710e-02  0 
 8.050238e-03  -1.096218e-02  0 
 8.203005e-03  -1.114557e-02  0 
 8.424752e-03  -1.130096e-02  0 
 5.768728e-03  -1.132859e-02  0 
 6.162286e-03  -1.135995e-02  0 
 6.547128e-03  -1.137166e-02  0 
 6.924219e-03  -1.138005e-02  0 
 7.309271e-03  -1.138997e-02  0 
 7.690933e-03  -1.139524e-02  0 
 8.066077e-03  -1.139777e-02  0 
 8.446839e-03  -1.140884e-02  0 
 5.236471e-03  -9.163003e-03  0 
 5.460174e-03  -9.254731e-03  0 
 5.729599e-03  -9.320359e-03  0 
 6.018527e-03  -9.368776e-03  0 
 6.318208e-03  -9.407558e-03  0 
 6.629413e-03  -9.435761e-03  0 
 6.948286e-03  -9.456530e-03  0 
 7.272048e-03  -9.471743e-03  0 
 5.365639e-03  -9.390179e-03  0 
 5.591059e-03  -9.493574e-03  0 
 5.851412e-03  -9.580849e-03  0 
 6.134996e-03  -9.652355e-03  0 
 6.431475e-03  -9.712578e-03  0 
 6.736342e-03  -9.764099e-03  0 
 7.048808e-03  -9.807715e-03  0 
 7.375061e-03  -9.848458e-03  0 
 5.462907e-03  -9.627297e-03  0 
 5.708957e-03  -9.730786e-03  0 
 5.977681e-03  -9.828855e-03  0 
 6.263127e-03  -9.916105e-03  0 
 6.558682e-03  -9.993219e-03  0 
 6.859498e-03  -1.006234e-02  0 
 7.164682e-03  -1.012479e-02  0 
 7.474103e-03  -1.017743e-02  0 
 5.537680e-03  -9.871707e-03  0 
 5.813842e-03  -9.975067e-03  0 
 6.101097e-03  -1.007458e-02  0 
 6.396461e-03  -1.016687e-02  0 
 6.695837e-03  -1.025167e-02  0 
 6.994843e-03  -1.033030e-02  0 
 7.289838e-03  -1.040197e-02  0 
 7.577276e-03  -1.046111e-02  0 
 5.600042e-03  -1.013274e-02  0 
 5.907353e-03  -1.022999e-02  0 
 6.217205e-03  -1.032330e-02  0 
 6.527966e-03  -1.041039e-02  0 
 6.836676e-03  -1.049161e-02  0 
 7.138039e-03  -1.056880e-02  0 
 7.425495e-03  -1.064164e-02  0 
 7.693461e-03  -1.070457e-02  0 
 5.650617e-03  -1.041267e-02  0 
 5.989609e-03  -1.049738e-02  0 
 6.322639e-03  -1.057769e-02  0 
 6.651185e-03  -1.065107e-02  0 
 6.973854e-03  -1.071844e-02  0 
 7.285277e-03  -1.078278e-02  0 
 7.574741e-03  -1.084805e-02  0 
 7.831494e-03  -1.091191e-02  0 
 5.696079e-03  -1.070588e-02  0 
 6.060454e-03  -1.077668e-02  0 
 6.414318e-03  -1.083858e-02  0 
 6.760784e-03  -1.089231e-02  0 
 7.100449e-03  -1.093925e-02  0 
 7.430032e-03  -1.098263e-02  0 
 7.738603e-03  -1.102806e-02  0 
 8.001830e-03  -1.108594e-02  0 
 5.738156e-03  -1.101227e-02  0 
 6.119169e-03  -1.106430e-02  0 
 6.489981e-03  -1.110485e-02  0 
 6.852729e-03  -1.113576e-02  0 
 7.211980e-03  -1.116073e-02  0 
 7.565794e-03  -1.118293e-02  0 
 7.905914e-03  -1.120276e-02  0 
 8.215852e-03  -1.123040e-02  0 
VECTORS displacement_ITER8 FLOAT
 4.938967e-03  -8.876300e-03  0 
 7.441882e-03  -9.037981e-03  0 
 5.308209e-03  -1.126254e-02  0 
 8.768423e-03  -1.139519e-02  0 
 5.075684e-03  -8.934173e-03  0 
 5.293893e-03  -8.974838e-03  0 
 5.575624e-03  -9.009732e-03  0 
 5.865313e-03  -9.029921e-03  0 
 6.188471e-03  -9.040354e-03  0 
 6.506512e-03  -9.057013e-03  0 
 6.816991e-03  -9.064388e-03  0 
 7.127348e-03  -9.060659e-03  0 
 5.066906e-03  -9.016797e-03  0 
 5.139046e-03  -9.220115e-03  0 
 5.181290e-03  -9.474754e-03  0 
 5.205072e-03  -9.747569e-03  0 
 5.233842e-03  -1.003946e-02  0 
 5.269180e-03  -1.033340e-02  0 
 5.303022e-03  -1.060853e-02  0 
 5.306062e-03  -1.090128e-02  0 
 7.594693e-03  -9.480070e-03  0 
 7.673595e-03  -9.856487e-03  0 
 7.737198e-03  -1.018435e-02  0 
 7.805845e-03  -1.046945e-02  0 
 7.891085e-03  -1.071678e-02  0 
 8.003225e-03  -1.092997e-02  0 
 8.156611e-03  -1.111129e-02  0 
 8.381996e-03  -1.126537e-02  0 
 5.744189e-03  -1.130550e-02  0 
 6.122164e-03  -1.132345e-02  0 
 6.492796e-03  -1.133904e-02  0 
 6.875655e-03  -1.135521e-02  0 
 7.264440e-03  -1.136025e-02  0 
 7.641569e-03  -1.136084e-02  0 
 8.014340e-03  -1.136637e-02  0 
 8.393696e-03  -1.138151e-02  0 
 5.206158e-03  -9.131037e-03  0 
 5.423306e-03  -9.221262e-03  0 
 5.685425e-03  -9.288637e-03  0 
 5.974455e-03  -9.340726e-03  0 
 6.280208e-03  -9.381908e-03  0 
 6.592171e-03  -9.410691e-03  0 
 6.903568e-03  -9.432731e-03  0 
 7.222913e-03  -9.449374e-03  0 
 5.326447e-03  -9.341978e-03  0 
 5.551346e-03  -9.454317e-03  0 
 5.811452e-03  -9.547926e-03  0 
 6.095134e-03  -9.624401e-03  0 
 6.392184e-03  -9.686700e-03  0 
 6.696180e-03  -9.737831e-03  0 
 7.005895e-03  -9.781749e-03  0 
 7.330156e-03  -9.825062e-03  0 
 5.419763e-03  -9.582112e-03  0 
 5.671692e-03  -9.694860e-03  0 
 5.940837e-03  -9.798187e-03  0 
 6.225257e-03  -9.888139e-03  0 
 6.519324e-03  -9.966249e-03  0 
 6.818585e-03  -1.003539e-02  0 
 7.122251e-03  -1.009806e-02  0 
 7.429718e-03  -1.015125e-02  0 
 5.493873e-03  -9.846518e-03  0 
 5.777531e-03  -9.948795e-03  0 
 6.064894e-03  -1.004772e-02  0 
 6.358618e-03  -1.013964e-02  0 
 6.656180e-03  -1.022409e-02  0 
 6.953559e-03  -1.030237e-02  0 
 7.246996e-03  -1.037377e-02  0 
 7.532554e-03  -1.043274e-02  0 
 5.555951e-03  -1.012554e-02  0 
 5.868101e-03  -1.021266e-02  0 
 6.178474e-03  -1.030001e-02  0 
 6.488364e-03  -1.038419e-02  0 
 6.795747e-03  -1.046375e-02  0 
 7.095831e-03  -1.053979e-02  0 
 7.382001e-03  -1.061187e-02  0 