# vtk DataFile Version 3.1
this is an vtk file created by FEMAC
ASCII
DATASET UNSTRUCTURED_GRID
POINTS 100 FLOAT
0.000000 2.000000 0.000000
1.000000 2.000000 0.000000
0.000000 3.000000 0.000000
1.000000 3.000000 0.000000
0.111111 2.000000 0.000000
0.222222 2.000000 0.000000
0.333333 2.000000 0.000000
0.444444 2.000000 0.000000
0.555556 2.000000 0.000000
0.666667 2.000000 0.000000
0.777778 2.000000 0.000000
0.888889 2.000000 0.000000
0.111111 3.000000 0.000000
0.222222 3.000000 0.000000
0.333333 3.000000 0.000000
0.444444 3.000000 0.000000
0.555556 3.000000 0.000000
0.666667 3.000000 0.000000
0.777778 3.000000 0.000000
0.888889 3.000000 0.000000
0.000000 2.111111 0.000000
0.000000 2.222222 0.000000
0.000000 2.333333 0.000000
0.000000 2.444444 0.000000
0.000000 2.555556 0.000000
0.000000 2.666667 0.000000
0.000000 2.777778 0.000000
0.000000 2.888889 0.000000
1.000000 2.111111 0.000000
1.000000 2.222222 0.000000
1.000000 2.333333 0.000000
1.000000 2.444444 0.000000
1.000000 2.555556 0.000000
1.000000 2.666667 0.000000
1.000000 2.777778 0.000000
1.000000 2.888889 0.000000
0.111111 2.111111 0.000000
0.111111 2.222222 0.000000
0.111111 2.333333 0.000000
0.111111 2.444444 0.000000
0.111111 2.555556 0.000000
0.111111 2.666667 0.000000
0.111111 2.777778 0.000000
0.111111 2.888889 0.000000
0.222222 2.111111 0.000000
0.222222 2.222222 0.000000
0.222222 2.333333 0.000000
0.222222 2.444444 0.000000
0.222222 2.555556 0.000000
0.222222 2.666667 0.000000
0.222222 2.777778 0.000000
0.222222 2.888889 0.000000
0.333333 2.111111 0.000000
0.333333 2.222222 0.000000
0.333333 2.333333 0.000000
0.333333 2.444444 0.000000
0.333333 2.555556 0.000000
0.333333 2.666667 0.000000
0.333333 2.777778 0.000000
0.333333 2.888889 0.000000
0.444444 2.111111 0.000000
0.444444 2.222222 0.000000
0.444444 2.333333 0.000000
0.444444 2.444444 0.000000
0.444444 2.555556 0.000000
0.444444 2.666667 0.000000
0.444444 2.777778 0.000000
0.444444 2.888889 0.000000
0.555556 2.111111 0.000000
0.555556 2.222222 0.000000
0.555556 2.333333 0.000000
0.555556 2.444444 0.000000
0.555556 2.555556 0.000000
0.555556 2.666667 0.000000
0.555556 2.777778 0.000000
0.555556 2.888889 0.000000
0.666667 2.111111 0.000000
0.666667 2.222222 0.000000
0.666667 2.333333 0.000000
0.666667 2.444444 0.000000
0.666667 2.555556 0.000000
0.666667 2.666667 0.000000
0.666667 2.777778 0.000000
0.666667 2.888889 0.000000
0.777778 2.111111 0.000000
0.777778 2.222222 0.000000
0.777778 2.333333 0.000000
0.777778 2.444444 0.000000
0.777778 2.555556 0.000000
0.777778 2.666667 0.000000
0.777778 2.777778 0.000000
0.777778 2.888889 0.000000
0.888889 2.111111 0.000000
0.888889 2.222222 0.000000
0.888889 2.333333 0.000000
0.888889 2.444444 0.000000
0.888889 2.555556 0.000000
0.888889 2.666667 0.000000
0.888889 2.777778 0.000000
0.888889 2.888889 0.000000
CELLS 81 405 
4 0  4 36 20
4 20 36 37 21
4 21 37 38 22
4 22 38 39 23
4 23 39 40 24
4 24 40 41 25
4 25 41 42 26
4 26 42 43 27
4 27 43 12  2
4 4  5 44 36
4 36 44 45 37
4 37 45 46 38
4 38 46 47 39
4 39 47 48 40
4 40 48 49 41
4 41 49 50 42
4 42 50 51 43
4 43 51 13 12
4 5  6 52 44
4 44 52 53 45
4 45 53 54 46
4 46 54 55 47
4 47 55 56 48
4 48 56 57 49
4 49 57 58 50
4 50 58 59 51
4 51 59 14 13
4 6  7 60 52
4 52 60 61 53
4 53 61 62 54
4 54 62 63 55
4 55 63 64 56
4 56 64 65 57
4 57 65 66 58
4 58 66 67 59
4 59 67 15 14
4 7  8 68 60
4 60 68 69 61
4 61 69 70 62
4 62 70 71 63
4 63 71 72 64
4 64 72 73 65
4 65 73 74 66
4 66 74 75 67
4 67 75 16 15
4 8  9 76 68
4 68 76 77 69
4 69 77 78 70
4 70 78 79 71
4 71 79 80 72
4 72 80 81 73
4 73 81 82 74
4 74 82 83 75
4 75 83 17 16
4 9 10 84 76
4 76 84 85 77
4 77 85 86 78
4 78 86 87 79
4 79 87 88 80
4 80 88 89 81
4 81 89 90 82
4 82 90 91 83
4 83 91 18 17
4 10 11 92 84
4 84 92 93 85
4 85 93 94 86
4 86 94 95 87
4 87 95 96 88
4 88 96 97 89
4 89 97 98 90
4 90 98 99 91
4 91 99 19 18
4 11  1 28 92
4 92 28 29 93
4 93 29 30 94
4 94 30 31 95
4 95 31 32 96
4 96 32 33 97
4 97 33 34 98
4 98 34 35 99
4 99 35  3 19
CELL_TYPES 81
9 9 9 9 9 9 9 9 9 9 9 9 9 9 9 9 9 9 9 9 9 9 9 9 9 9 9 9 9 9 9 9 9 9 9 9 9 9 9 9 9 9 9 9 9 9 9 9 9 9 9 9 9 9 9 9 9 9 9 9 9 9 9 9 9 9 9 9 9 9 9 9 9 9 9 9 9 9 9 9 9 
POINT_DATA 100
VECTORS displacement_ITER1 FLOAT
 -1.389385e-21  -7.261736e-21  0 
 -2.885348e-04  -5.508764e-04  0 
 -9.233913e-21  -4.622007e-21  0 
 4.918109e-05  -6.433196e-04  0 
 -7.573652e-05  -4.640498e-05  0 
 -1.292570e-04  -9.251073e-05  0 
 -1.738775e-04  -1.406062e-04  0 
 -2.114740e-04  -1.914464e-04  0 
 -2.416369e-04  -2.461773e-04  0 
 -2.639764e-04  -3.062331e-04  0 
 -2.785708e-04  -3.733779e-04  0 
 -2.859838e-04  -4.443984e-04  0 
 5.849421e-05  -3.744310e-05  0 
 9.916936e-05  -8.078973e-05  0 
 1.312784e-04  -1.314215e-04  0 
 1.550406e-04  -1.890130e-04  0 
 1.685570e-04  -2.536325e-04  0 
 1.697213e-04  -3.257999e-04  0 
 1.565998e-04  -4.072275e-04  0 
 1.252652e-04  -4.967456e-04  0 
 0  0  0 
 0  0  0 
 0  0  0 
 0  0  0 
 0  0  0 
 0  0  0 
 0  0  0 
 0  0  0 
 -2.124175e-04  -5.169862e-04  0 
 -1.596412e-04  -4.942318e-04  0 
 -1.122950e-04  -4.742915e-04  0 
 -7.124783e-05  -4.635121e-04  0 
 -3.447190e-05  -4.658554e-04  0 
 -1.481387e-07  -4.823021e-04  0 
 3.118773e-05  -5.108314e-04  0 
 5.541741e-05  -5.493290e-04  0 
 -4.590571e-05  -3.258529e-05  0 
 -3.226671e-05  -2.914507e-05  0 
 -2.218004e-05  -2.821865e-05  0 
 -1.322104e-05  -2.779889e-05  0 
 -4.321395e-06  -2.722125e-05  0 
 5.240614e-06  -2.642294e-05  0 
 1.633558e-05  -2.592889e-05  0 
 3.083678e-05  -2.744582e-05  0 
 -9.222667e-05  -7.939030e-05  0 
 -6.473967e-05  -7.139835e-05  0 
 -4.434703e-05  -6.863048e-05  0 
 -2.671057e-05  -6.772548e-05  0 
 -9.454039e-06  -6.709426e-05  0 
 9.273458e-06  -6.650084e-05  0 
 3.151136e-05  -6.705922e-05  0 
 6.075188e-05  -7.161458e-05  0 
 -1.309368e-04  -1.295561e-04  0 
 -9.493088e-05  -1.224898e-04  0 
 -6.534004e-05  -1.192365e-04  0 
 -3.984802e-05  -1.184462e-04  0 
 -1.521270e-05  -1.184066e-04  0 
 1.164559e-05  -1.186208e-04  0 
 4.374128e-05  -1.200166e-04  0 
 8.330661e-05  -1.239210e-04  0 
 -1.620180e-04  -1.833125e-04  0 
 -1.193097e-04  -1.786877e-04  0 
 -8.306082e-05  -1.770199e-04  0 
 -5.152903e-05  -1.774480e-04  0 
 -2.144338e-05  -1.787829e-04  0 
 1.126772e-05  -1.801634e-04  0 
 5.024409e-05  -1.816202e-04  0 
 9.782749e-05  -1.840435e-04  0 
 -1.853624e-04  -2.410138e-04  0 
 -1.368210e-04  -2.387861e-04  0 
 -9.574581e-05  -2.389873e-04  0 
 -6.045470e-05  -2.411692e-04  0 
 -2.766400e-05  -2.446028e-04  0 
 7.508427e-06  -2.480030e-04  0 
 5.001650e-05  -2.502781e-04  0 
 1.032481e-04  -2.515909e-04  0 
 -2.009901e-04  -3.030548e-04  0 
 -1.474690e-04  -3.018421e-04  0 
 -1.030098e-04  -3.026424e-04  0 
 -6.591876e-05  -3.055048e-04  0 
 -3.264351e-05  -3.109548e-04  0 
 1.367327e-06  -3.182641e-04  0 
 4.306617e-05  -3.239909e-04  0 
 9.840967e-05  -3.261909e-04  0 
 -2.096865e-04  -3.694890e-04  0 
 -1.520068e-04  -3.672008e-04  0 
 -1.061673e-04  -3.651898e-04  0 
 -6.840103e-05  -3.663755e-04  0 
 -3.529689e-05  -3.725798e-04  0 
 -3.365850e-06  -3.842759e-04  0 
 3.146911e-05  -3.995919e-04  0 
 8.262546e-05  -4.072049e-04  0 
 -2.108659e-04  -4.428388e-04  0 
 -1.541745e-04  -4.324886e-04  0 
 -1.080332e-04  -4.233651e-04  0 
 -6.943316e-05  -4.201150e-04  0 
 -3.565447e-05  -4.252029e-04  0 
 -4.055000e-06  -4.397957e-04  0 
 2.693516e-05  -4.639864e-04  0 
 5.512773e-05  -4.969731e-04  0 
VECTORS displacement_ITER2 FLOAT
 -1.368928e-21  -7.007062e-21  0 
 -2.937258e-04  -5.430282e-04  0 
 -9.266172e-21  -4.755172e-21  0 
 3.539953e-05  -6.574715e-04  0 
 -7.862316e-05  -4.853753e-05  0 
 -1.330413e-04  -9.508189e-05  0 
 -1.752268e-04  -1.424804e-04  0 
 -2.084457e-04  -1.916231e-04  0 
 -2.344729e-04  -2.432956e-04  0 
 -2.547043e-04  -2.988521e-04  0 
 -2.701468e-04  -3.614540e-04  0 
 -2.843811e-04  -4.335307e-04  0 
 5.743779e-05  -3.932834e-05  0 
 9.628435e-05  -8.277234e-05  0 
 1.251929e-04  -1.314741e-04  0 
 1.458819e-04  -1.861701e-04  0 
 1.582284e-04  -2.477949e-04  0 
 1.608108e-04  -3.176621e-04  0 
 1.505160e-04  -3.990521e-04  0 
 1.216828e-04  -4.955799e-04  0 
 0  0  0 
 0  0  0 
 0  0  0 
 0  0  0 
 0  0  0 
 0  0  0 
 0  0  0 
 0  0  0 
 -2.098538e-04  -5.047222e-04  0 
 -1.556084e-04  -4.801597e-04  0 
 -1.092293e-04  -4.653002e-04  0 
 -6.989675e-05  -4.594530e-04  0 
 -3.511115e-05  -4.628607e-04  0 
 -2.786313e-06  -4.765479e-04  0 
 2.653084e-05  -5.025333e-04  0 
 4.685286e-05  -5.475536e-04  0 
 -4.663903e-05  -3.325034e-05  0 
 -3.241400e-05  -2.961529e-05  0 
 -2.227258e-05  -2.862756e-05  0 
 -1.346589e-05  -2.814584e-05  0 
 -4.799525e-06  -2.755582e-05  0 
 4.475368e-06  -2.684668e-05  0 
 1.524271e-05  -2.656046e-05  0 
 2.947466e-05  -2.843368e-05  0 
 -9.335964e-05  -8.112946e-05  0 
 -6.497806e-05  -7.247725e-05  0 
 -4.460525e-05  -6.927469e-05  0 
 -2.727326e-05  -6.807877e-05  0 
 -1.039409e-05  -6.732069e-05  0 
 7.886885e-06  -6.681186e-05  0 
 2.956292e-05  -6.770900e-05  0 
 5.821752e-05  -7.287866e-05  0 
 -1.313083e-04  -1.315091e-04  0 
 -9.517226e-05  -1.236722e-04  0 
 -6.590489e-05  -1.196818e-04  0 
 -4.086314e-05  -1.184114e-04  0 
 -1.666767e-05  -1.181204e-04  0 
 9.702130e-06  -1.182977e-04  0 
 4.106980e-05  -1.199064e-04  0 
 7.940100e-05  -1.241718e-04  0 
 -1.608161e-04  -1.839923e-04  0 
 -1.193648e-04  -1.788223e-04  0 
 -8.396267e-05  -1.765484e-04  0 
 -5.306060e-05  -1.765913e-04  0 
 -2.349454e-05  -1.776854e-04  0 
 8.693746e-06  -1.788314e-04  0 
 4.681808e-05  -1.800200e-04  0 
 9.252981e-05  -1.820857e-04  0 
 -1.826186e-04  -2.387992e-04  0 
 -1.365473e-04  -2.366394e-04  0 
 -9.679768e-05  -2.368372e-04  0 
 -6.234609e-05  -2.390761e-04  0 
 -3.028856e-05  -2.425387e-04  0 
 4.138798e-06  -2.456424e-04  0 
 4.569165e-05  -2.470441e-04  0 
 9.702558e-05  -2.470415e-04  0 
 -1.973045e-04  -2.968131e-04  0 
 -1.467377e-04  -2.966876e-04  0 
 -1.038678e-04  -2.983874e-04  0 
 -6.778041e-05  -3.019036e-04  0 
 -3.548475e-05  -3.078408e-04  0 
 -2.767046e-06  -3.152491e-04  0 
 3.758037e-05  -3.199466e-04  0 
 9.166441e-05  -3.199478e-04  0 
 -2.057342e-04  -3.593002e-04  0 
 -1.505698e-04  -3.591424e-04  0 
 -1.064834e-04  -3.589465e-04  0 
 -6.980797e-05  -3.613761e-04  0 
 -3.762667e-05  -3.684463e-04  0 
 -7.465426e-06  -3.807810e-04  0 
 2.466992e-05  -3.961636e-04  0 
 7.476267e-05  -4.017465e-04  0 
 -2.071766e-04  -4.304237e-04  0 
 -1.516468e-04  -4.220747e-04  0 
 -1.074790e-04  -4.155104e-04  0 
 -6.994168e-05  -4.146165e-04  0 
 -3.691813e-05  -4.207295e-04  0 
 -6.942409e-06  -4.353106e-04  0 
 2.039764e-05  -4.604336e-04  0 
 4.447705e-05  -4.960121e-04  0 
VECTORS displacement_ITER3 FLOAT
 -1.526192e-21  -7.931125e-21  0 
 -3.047022e-04  -5.648493e-04  0 
 -9.998943e-21  -5.176589e-21  0 
 3.984103e-05  -6.921893e-04  0 
 -8.441529e-05  -5.010090e-05  0 
 -1.411568e-04  -9.845761e-05  0 
 -1.832947e-04  -1.495925e-04  0 
 -2.153805e-04  -2.033190e-04  0 
 -2.403658e-04  -2.587895e-04  0 
 -2.607192e-04  -3.158435e-04  0 
 -2.779121e-04  -3.770459e-04  0 
 -2.948733e-04  -4.492888e-04  0 
 6.343510e-05  -4.105992e-05  0 
 1.052276e-04  -8.581808e-05  0 
 1.344545e-04  -1.373638e-04  0 
 1.541037e-04  -1.960482e-04  0 
 1.655283e-04  -2.617158e-04  0 
 1.686672e-04  -3.344891e-04  0 
 1.608530e-04  -4.171641e-04  0 
 1.341898e-04  -5.169888e-04  0 
 0  0  0 
 0  0  0 
 0  0  0 
 0  0  0 
 0  0  0 
 0  0  0 
 0  0  0 
 0  0  0 
 -2.193426e-04  -5.237338e-04  0 
 -1.628609e-04  -4.972519e-04  0 
 -1.151142e-04  -4.842243e-04  0 
 -7.325950e-05  -4.801086e-04  0 
 -3.527722e-05  -4.839722e-04  0 
 -4.093838e-08  -4.969165e-04  0 
 3.142749e-05  -5.224068e-04  0 
 5.312781e-05  -5.724883e-04  0 
 -4.921164e-05  -3.429356e-05  0 
 -3.366328e-05  -3.096206e-05  0 
 -2.286239e-05  -3.016579e-05  0 
 -1.366625e-05  -2.970097e-05  0 
 -4.660050e-06  -2.901253e-05  0 
 5.065514e-06  -2.811454e-05  0 
 1.659362e-05  -2.754711e-05  0 
 3.224386e-05  -2.919919e-05  0 
 -9.762602e-05  -8.509033e-05  0 
 -6.711639e-05  -7.640649e-05  0 
 -4.571607e-05  -7.307515e-05  0 
 -2.774407e-05  -7.170000e-05  0 
 -1.025785e-05  -7.077705e-05  0 
 8.830008e-06  -7.014785e-05  0 
 3.183318e-05  -7.097168e-05  0 
 6.298449e-05  -7.616462e-05  0 
 -1.360517e-04  -1.390106e-04  0 
 -9.804877e-05  -1.307158e-04  0 
 -6.764529e-05  -1.261143e-04  0 
 -4.173111e-05  -1.244175e-04  0 
 -1.661810e-05  -1.239418e-04  0 
 1.091068e-05  -1.241887e-04  0 
 4.393324e-05  -1.260985e-04  0 
 8.477967e-05  -1.305998e-04  0 
 -1.657142e-04  -1.950421e-04  0 
 -1.229942e-04  -1.887626e-04  0 
 -8.647996e-05  -1.855647e-04  0 
 -5.443736e-05  -1.850868e-04  0 
 -2.359887e-05  -1.860473e-04  0 
 1.011099e-05  -1.874104e-04  0 
 5.004782e-05  -1.891451e-04  0 
 9.790688e-05  -1.918710e-04  0 
 -1.880710e-04  -2.525212e-04  0 
 -1.411519e-04  -2.488661e-04  0 
 -1.001404e-04  -2.481579e-04  0 
 -6.424341e-05  -2.499956e-04  0 
 -3.060646e-05  -2.534746e-04  0 
 5.645901e-06  -2.568929e-04  0 
 4.926541e-05  -2.588664e-04  0 
 1.025973e-04  -2.598157e-04  0 
 -2.039252e-04  -3.117730e-04  0 
 -1.523715e-04  -3.106194e-04  0 
 -1.079531e-04  -3.117772e-04  0 
 -7.011760e-05  -3.150787e-04  0 
 -3.596471e-05  -3.212436e-04  0 
 -1.302147e-06  -3.292263e-04  0 
 4.133514e-05  -3.344340e-04  0 
 9.792195e-05  -3.350635e-04  0 
 -2.134163e-04  -3.746983e-04  0 
 -1.569091e-04  -3.746336e-04  0 
 -1.112455e-04  -3.742727e-04  0 
 -7.252860e-05  -3.766639e-04  0 
 -3.804740e-05  -3.841162e-04  0 
 -5.813562e-06  -3.973524e-04  0 
 2.813451e-05  -4.138000e-04  0 
 8.127980e-05  -4.193977e-04  0 
 -2.150111e-04  -4.471884e-04  0 
 -1.585049e-04  -4.389801e-04  0 
 -1.129754e-04  -4.326499e-04  0 
 -7.304689e-05  -4.321758e-04  0 
 -3.711071e-05  -4.387299e-04  0 
 -4.565533e-06  -4.539368e-04  0 
 2.417720e-05  -4.806009e-04  0 
 4.918831e-05  -5.185662e-04  0 
VECTORS displacement_ITER4 FLOAT
 -1.555358e-21  -8.158161e-21  0 
 -3.161089e-04  -5.789795e-04  0 
 -1.012236e-20  -5.215336e-21  0 
 3.420707e-05  -7.117660e-04  0 
 -8.641267e-05  -5.052976e-05  0 
 -1.442808e-04  -1.001882e-04  0 
 -1.880910e-04  -1.531654e-04  0 
 -2.218364e-04  -2.085115e-04  0 
 -2.477687e-04  -2.654763e-04  0 
 -2.685147e-04  -3.240608e-04  0 
 -2.867700e-04  -3.860322e-04  0 
 -3.052035e-04  -4.590093e-04  0 
 6.498346e-05  -4.114414e-05  0 
 1.073352e-04  -8.710589e-05  0 
 1.371168e-04  -1.408947e-04  0 
 1.568935e-04  -2.017098e-04  0 
 1.675030e-04  -2.690902e-04  0 
 1.692528e-04  -3.434751e-04  0 
 1.609175e-04  -4.277148e-04  0 
 1.342056e-04  -5.296553e-04  0 
 0  0  0 
 0  0  0 
 0  0  0 
 0  0  0 
 0  0  0 
 0  0  0 
 0  0  0 
 0  0  0 
 -2.276789e-04  -5.355363e-04  0 
 -1.686215e-04  -5.088798e-04  0 
 -1.201989e-04  -4.955749e-04  0 
 -7.713514e-05  -4.911046e-04  0 
 -3.786803e-05  -4.952071e-04  0 
 -2.243172e-06  -5.088029e-04  0 
 2.865236e-05  -5.345650e-04  0 
 5.148433e-05  -5.858611e-04  0 
 -5.052729e-05  -3.493592e-05  0 
 -3.471294e-05  -3.168372e-05  0 
 -2.371527e-05  -3.092662e-05  0 
 -1.433959e-05  -3.047465e-05  0 
 -5.142707e-06  -2.976515e-05  0 
 4.815837e-06  -2.880074e-05  0 
 1.666292e-05  -2.810623e-05  0 
 3.280343e-05  -2.955151e-05  0 
 -1.001681e-04  -8.686067e-05  0 
 -6.916898e-05  -7.816741e-05  0 
 -4.739190e-05  -7.486773e-05  0 
 -2.908850e-05  -7.352006e-05  0 
 -1.125910e-05  -7.259792e-05  0 
 8.243809e-06  -7.192817e-05  0 
 3.181263e-05  -7.266171e-05  0 
 6.381709e-05  -7.772550e-05  0 
 -1.398067e-04  -1.421476e-04  0 
 -1.010701e-04  -1.337667e-04  0 
 -7.011022e-05  -1.291670e-04  0 
 -4.372545e-05  -1.275148e-04  0 
 -1.813392e-05  -1.270989e-04  0 
 9.960890e-06  -1.274000e-04  0 
 4.374351e-05  -1.293515e-04  0 
 8.569296e-05  -1.338961e-04  0 
 -1.706464e-04  -1.997703e-04  0 
 -1.269217e-04  -1.932715e-04  0 
 -8.968603e-05  -1.900223e-04  0 
 -5.703096e-05  -1.896259e-04  0 
 -2.559334e-05  -1.907382e-04  0 
 8.801651e-06  -1.922790e-04  0 
 4.962085e-05  -1.942190e-04  0 
 9.875228e-05  -1.971988e-04  0 
 -1.939545e-04  -2.588467e-04  0 
 -1.459269e-04  -2.548432e-04  0 
 -1.039959e-04  -2.540676e-04  0 
 -6.733329e-05  -2.560560e-04  0 
 -3.301775e-05  -2.598039e-04  0 
 3.969880e-06  -2.635239e-04  0 
 4.852209e-05  -2.658120e-04  0 
 1.030443e-04  -2.671039e-04  0 
 -2.106722e-04  -3.193780e-04  0 
 -1.578496e-04  -3.179466e-04  0 
 -1.122853e-04  -3.191278e-04  0 
 -7.355087e-05  -3.226416e-04  0 
 -3.868185e-05  -3.291703e-04  0 
 -3.372228e-06  -3.376121e-04  0 
 4.009668e-05  -3.431722e-04  0 
 9.772164e-05  -3.440067e-04  0 
 -2.209032e-04  -3.833246e-04  0 
 -1.628007e-04  -3.833112e-04  0 
 -1.158466e-04  -3.830162e-04  0 
 -7.613741e-05  -3.856124e-04  0 
 -4.093873e-05  -3.934431e-04  0 
 -8.149185e-06  -4.072422e-04  0 
 2.616362e-05  -4.243629e-04  0 
 8.017286e-05  -4.299633e-04  0 
 -2.227495e-04  -4.573093e-04  0 
 -1.645912e-04  -4.490683e-04  0 
 -1.176952e-04  -4.427656e-04  0 
 -7.674515e-05  -4.422712e-04  0 
 -4.001539e-05  -4.491539e-04  0 
 -6.978079e-06  -4.649923e-04  0 
 2.196494e-05  -4.923675e-04  0 
 4.642429e-05  -5.317912e-04  0 
VECTORS displacement_ITER5 FLOAT
 -1.534082e-21  -8.048311e-21  0 
 -3.216747e-04  -5.947060e-04  0 
 -1.004236e-20  -5.163224e-21  0 
 3.435431e-05  -7.322597e-04  0 
 -8.829045e-05  -5.169918e-05  0 
 -1.478269e-04  -1.029197e-04  0 
 -1.935916e-04  -1.571088e-04  0 
 -2.289072e-04  -2.134645e-04  0 
 -2.554714e-04  -2.717539e-04  0 
 -2.757554e-04  -3.323083e-04  0 
 -2.934109e-04  -3.966080e-04  0 
 -3.117110e-04  -4.716943e-04  0 
 6.614830e-05  -4.177826e-05  0 
 1.094786e-04  -8.920153e-05  0 
 1.405907e-04  -1.446241e-04  0 
 1.614305e-04  -2.069222e-04  0 
 1.723136e-04  -2.757574e-04  0 
 1.734456e-04  -3.519105e-04  0 
 1.644360e-04  -4.386602e-04  0 
 1.374280e-04  -5.441149e-04  0 
 0  0  0 
 0  0  0 
 0  0  0 
 0  0  0 
 0  0  0 
 0  0  0 
 0  0  0 
 0  0  0 
 -2.322569e-04  -5.487983e-04  0 
 -1.719678e-04  -5.219791e-04  0 
 -1.231927e-04  -5.077760e-04  0 
 -7.950326e-05  -5.028042e-04  0 
 -3.953258e-05  -5.072236e-04  0 
 -3.260618e-06  -5.219067e-04  0 
 2.795599e-05  -5.489746e-04  0 
 5.255772e-05  -6.009932e-04  0 
 -5.181133e-05  -3.582399e-05  0 
 -3.569610e-05  -3.243281e-05  0 
 -2.441616e-05  -3.164111e-05  0 
 -1.476775e-05  -3.119053e-05  0 
 -5.305505e-06  -3.047606e-05  0 
 4.919365e-06  -2.949245e-05  0 
 1.704154e-05  -2.878203e-05  0 
 3.348063e-05  -3.023188e-05  0 
 -1.028990e-04  -8.893118e-05  0 
 -7.116778e-05  -7.999727e-05  0 
 -4.877269e-05  -7.666908e-05  0 
 -2.993236e-05  -7.533690e-05  0 
 -1.160208e-05  -7.440435e-05  0 
 8.416158e-06  -7.369237e-05  0 
 3.255346e-05  -7.439423e-05  0 
 6.520814e-05  -7.952931e-05  0 
 -1.439049e-04  -1.455084e-04  0 
 -1.039766e-04  -1.369927e-04  0 
 -7.208534e-05  -1.324090e-04  0 
 -4.495495e-05  -1.307853e-04  0 
 -1.868373e-05  -1.303553e-04  0 
 1.013531e-05  -1.305990e-04  0 
 4.478109e-05  -1.325015e-04  0 
 8.780396e-05  -1.371304e-04  0 
 -1.757150e-04  -2.046268e-04  0 
 -1.304570e-04  -1.981729e-04  0 
 -9.211052e-05  -1.949779e-04  0 
 -5.859806e-05  -1.946160e-04  0 
 -2.638406e-05  -1.957232e-04  0 
 8.872215e-06  -1.972166e-04  0 
 5.078559e-05  -1.991047e-04  0 
 1.013802e-04  -2.021206e-04  0 
 -1.993763e-04  -2.654835e-04  0 
 -1.497641e-04  -2.615944e-04  0 
 -1.066985e-04  -2.608631e-04  0 
 -6.917027e-05  -2.628863e-04  0 
 -3.407868e-05  -2.666652e-04  0 
 3.800984e-06  -2.703927e-04  0 
 4.955497e-05  -2.726571e-04  0 
 1.057177e-04  -2.739042e-04  0 
 -2.159797e-04  -3.279504e-04  0 
 -1.617201e-04  -3.265471e-04  0 
 -1.151022e-04  -3.277205e-04  0 
 -7.558097e-05  -3.312530e-04  0 
 -4.000847e-05  -3.378656e-04  0 
 -3.904508e-06  -3.464501e-04  0 
 4.070187e-05  -3.520905e-04  0 
 9.994739e-05  -3.528454e-04  0 
 -2.259159e-04  -3.937679e-04  0 
 -1.665239e-04  -3.936450e-04  0 
 -1.186697e-04  -3.931847e-04  0 
 -7.827853e-05  -3.957627e-04  0 
 -4.250791e-05  -4.037352e-04  0 
 -9.027635e-06  -4.178380e-04  0 
 2.613652e-05  -4.354239e-04  0 
 8.159788e-05  -4.411082e-04  0 
 -2.273254e-04  -4.696699e-04  0 
 -1.682141e-04  -4.608227e-04  0 
 -1.204643e-04  -4.542040e-04  0 
 -7.896880e-05  -4.535088e-04  0 
 -4.173865e-05  -4.606047e-04  0 
 -8.131833e-06  -4.770550e-04  0 
 2.169063e-05  -5.051505e-04  0 
 4.675934e-05  -5.459568e-04  0 
VECTORS displacement_ITER6 FLOAT
 -1.494390e-21  -7.832603e-21  0 
 -3.259337e-04  -6.084833e-04  0 
 -9.830494e-21  -5.049615e-21  0 
 3.835508e-05  -7.491012e-04  0 
 -8.975263e-05  -5.279786e-05  0 
 -1.506144e-04  -1.049880e-04  0 
 -1.974664e-04  -1.599761e-04  0 
 -2.336870e-04  -2.175675e-04  0 
 -2.610150e-04  -2.775309e-04  0 
 -2.815276e-04  -3.399140e-04  0 
 -2.987879e-04  -4.063299e-04  0 
 -3.165474e-04  -4.834459e-04  0 
 6.715604e-05  -4.274917e-05  0 
 1.115331e-04  -9.124317e-05  0 
 1.436341e-04  -1.475579e-04  0 
 1.652969e-04  -2.110890e-04  0 
 1.769063e-04  -2.815337e-04  0 
 1.784721e-04  -3.593475e-04  0 
 1.695010e-04  -4.480612e-04  0 
 1.423802e-04  -5.564581e-04  0 
 0  0  0 
 0  0  0 
 0  0  0 
 0  0  0 
 0  0  0 
 0  0  0 
 0  0  0 
 0  0  0 
 -2.359751e-04  -5.611745e-04  0 
 -1.751024e-04  -5.339224e-04  0 
 -1.252508e-04  -5.187812e-04  0 
 -8.057500e-05  -5.134687e-04  0 
 -3.979171e-05  -5.179781e-04  0 
 -2.449833e-06  -5.333138e-04  0 
 2.978349e-05  -5.618017e-04  0 
 5.559830e-05  -6.145161e-04  0 
 -5.277560e-05  -3.653921e-05  0 
 -3.636738e-05  -3.304140e-05  0 
 -2.483549e-05  -3.223618e-05  0 
 -1.495880e-05  -3.179426e-05  0 
 -5.281166e-06  -3.108520e-05  0 
 5.155918e-06  -3.010419e-05  0 
 1.749524e-05  -2.941614e-05  0 
 3.416107e-05  -3.095886e-05  0 
 -1.048980e-04  -9.060762e-05  0 
 -7.250775e-05  -8.152782e-05  0 
 -4.958881e-05  -7.818083e-05  0 
 -3.030111e-05  -7.685831e-05  0 
 -1.155660e-05  -7.592501e-05  0 
 8.880971e-06  -7.520507e-05  0 
 3.347668e-05  -7.592863e-05  0 
 6.666335e-05  -8.119379e-05  0 
 -1.467477e-04  -1.482837e-04  0 
 -1.058900e-04  -1.397157e-04  0 
 -7.324255e-05  -1.351304e-04  0 
 -4.548521e-05  -1.335122e-04  0 
 -1.863700e-05  -1.330666e-04  0 
 1.078441e-05  -1.332823e-04  0 
 4.611757e-05  -1.351846e-04  0 
 8.995010e-05  -1.398925e-04  0 
 -1.791424e-04  -2.087252e-04  0 
 -1.327616e-04  -2.023127e-04  0 
 -9.351682e-05  -1.991402e-04  0 
 -5.926918e-05  -1.987743e-04  0 
 -2.637381e-05  -1.998518e-04  0 
 9.620958e-06  -2.012992e-04  0 
 5.240950e-05  -2.031530e-04  0 
 1.040423e-04  -2.061851e-04  0 
 -2.031614e-04  -2.712159e-04  0 
 -1.522723e-04  -2.673510e-04  0 
 -1.082552e-04  -2.666072e-04  0 
 -6.995904e-05  -2.686002e-04  0 
 -3.414841e-05  -2.723514e-04  0 
 4.539245e-06  -2.760490e-04  0 
 5.130536e-05  -2.782753e-04  0 
 1.087423e-04  -2.795181e-04  0 
 -2.198672e-04  -3.355664e-04  0 
 -1.643055e-04  -3.340330e-04  0 
 -1.167453e-04  -3.350702e-04  0 
 -7.646809e-05  -3.385189e-04  0 
 -4.017778e-05  -3.451284e-04  0 
 -3.265991e-06  -3.537762e-04  0 
 4.240856e-05  -3.594747e-04  0 
 1.031244e-04  -3.602527e-04  0 
 -2.297104e-04  -4.032948e-04  0 
 -1.691429e-04  -4.028102e-04  0 
 -1.203946e-04  -4.020183e-04  0 
 -7.924350e-05  -4.044449e-04  0 
 -4.276138e-05  -4.124622e-04  0 
 -8.478601e-06  -4.267763e-04  0 
 2.768102e-05  -4.447127e-04  0 
 8.462409e-05  -4.505927e-04  0 
 -2.309913e-04  -4.809868e-04  0 
 -1.709747e-04  -4.714191e-04  0 
 -1.222967e-04  -4.642905e-04  0 
 -8.000265e-05  -4.633527e-04  0 
 -4.200464e-05  -4.705362e-04  0 
 -7.603307e-06  -4.874265e-04  0 
 2.327857e-05  -5.161775e-04  0 
 4.942821e-05  -5.579714e-04  0 
VECTORS displacement_ITER7 FLOAT
 -1.487612e-21  -7.819944e-21  0 
 -3.301925e-04  -6.166901e-04  0 
 -9.694837e-21  -4.975136e-21  0 
 3.695098e-05  -7.587189e-04  0 
 -9.098325e-05  -5.361013e-05  0 
 -1.527000e-04  -1.063065e-04  0 
 -2.000083e-04  -1.618761e-04  0 
 -2.367087e-04  -2.204389e-04  0 
 -2.647469e-04  -2.815600e-04  0 
 -2.859666e-04  -3.449614e-04  0 
 -3.033974e-04  -4.124414e-04  0 
 -3.207234e-04  -4.906631e-04  0 
 6.823086e-05  -4.349228e-05  0 
 1.134226e-04  -9.252509e-05  0 
 1.457750e-04  -1.494411e-04  0 
 1.673733e-04  -2.140678e-04  0 
 1.788628e-04  -2.859593e-04  0 
 1.802701e-04  -3.650610e-04  0 
 1.708600e-04  -4.547304e-04  0 
 1.428287e-04  -5.642176e-04  0 
 0  0  0 
 0  0  0 
 0  0  0 
 0  0  0 
 0  0  0 
 0  0  0 
 0  0  0 
 0  0  0 
 -2.397312e-04  -5.689481e-04  0 
 -1.782348e-04  -5.415230e-04  0 
 -1.270214e-04  -5.261194e-04  0 
 -8.153181e-05  -5.207238e-04  0 
 -4.035788e-05  -5.250386e-04  0 
 -2.572466e-06  -5.402019e-04  0 
 3.016389e-05  -5.691112e-04  0 
 5.564410e-05  -6.222564e-04  0 
 -5.352957e-05  -3.704443e-05  0 
 -3.689754e-05  -3.350421e-05  0 
 -2.521322e-05  -3.270374e-05  0 
 -1.520826e-05  -3.226740e-05  0 
 -5.399739e-06  -3.155117e-05  0 
 5.192937e-06  -3.054513e-05  0 
 1.774000e-05  -2.982371e-05  0 
 3.470525e-05  -3.138493e-05  0 
 -1.063681e-04  -9.181804e-05  0 
 -7.354218e-05  -8.265892e-05  0 
 -5.032682e-05  -7.929886e-05  0 
 -3.079500e-05  -7.798709e-05  0 
 -1.180883e-05  -7.706175e-05  0 
 8.913558e-06  -7.633562e-05  0 
 3.390011e-05  -7.704754e-05  0 
 6.768555e-05  -8.234446e-05  0 
 -1.487302e-04  -1.502460e-04  0 
 -1.073681e-04  -1.416369e-04  0 
 -7.430696e-05  -1.370392e-04  0 
 -4.620245e-05  -1.354485e-04  0 
 -1.902145e-05  -1.350435e-04  0 
 1.078136e-05  -1.352982e-04  0 
 4.661972e-05  -1.372343e-04  0 
 9.116058e-05  -1.419389e-04  0 
 -1.815427e-04  -2.115213e-04  0 
 -1.345920e-04  -2.050839e-04  0 
 -9.484253e-05  -2.019299e-04  0 
 -6.016802e-05  -2.016204e-04  0 
 -2.687752e-05  -2.027808e-04  0 
 9.552065e-06  -2.043188e-04  0 
 5.287986e-05  -2.062479e-04  0 
 1.052001e-04  -2.092946e-04  0 
 -2.060001e-04  -2.749657e-04  0 
 -1.543723e-04  -2.710534e-04  0 
 -1.097631e-04  -2.703306e-04  0 
 -7.098243e-05  -2.723951e-04  0 
 -3.474429e-05  -2.762731e-04  0 
 4.382048e-06  -2.801209e-04  0 
 5.167362e-05  -2.824743e-04  0 
 1.097828e-04  -2.838148e-04  0 
 -2.230675e-04  -3.404022e-04  0 
 -1.666134e-04  -3.387546e-04  0 
 -1.183829e-04  -3.397430e-04  0 
 -7.755815e-05  -3.432409e-04  0 
 -4.080899e-05  -3.500052e-04  0 
 -3.497702e-06  -3.588826e-04  0 
 4.262940e-05  -3.647974e-04  0 
 1.040012e-04  -3.657446e-04  0 
 -2.331011e-04  -4.092894e-04  0 
 -1.716406e-04  -4.085508e-04  0 
 -1.221449e-04  -4.076096e-04  0 
 -8.035025e-05  -4.100402e-04  0 
 -4.335055e-05  -4.181972e-04  0 
 -8.698067e-06  -4.327714e-04  0 
 2.773112e-05  -4.510851e-04  0 
 8.514805e-05  -4.572257e-04  0 
 -2.345498e-04  -4.880161e-04  0 
 -1.736983e-04  -4.780803e-04  0 
 -1.241327e-04  -4.707426e-04  0 
 -8.107311e-05  -4.697899e-04  0 
 -4.251277e-05  -4.770063e-04  0 
 -7.741828e-06  -4.940396e-04  0 
 2.335556e-05  -5.232004e-04  0 
 4.939438e-05  -5.657302e-04  0 
VECTORS displacement_ITER8 FLOAT
 -1.467718e-21  -7.734278e-21  0 
 -3.345749e-04  -6.249738e-04  0 
 -9.496212e-21  -4.869784e-21  0 
 3.691045e-05  -7.689040e-04  0 
 -9.228577e-05  -5.442991e-05  0 
 -1.547746e-04  -1.078267e-04  0 
 -2.025821e-04  -1.641934e-04  0 
 -2.397296e-04  -2.235242e-04  0 
 -2.681811e-04  -2.854384e-04  0 
 -2.898737e-04  -3.497801e-04  0 
 -3.075953e-04  -4.183930e-04  0 
 -3.248004e-04  -4.978718e-04  0 
 6.938636e-05  -4.416154e-05  0 
 1.152918e-04  -9.379031e-05  0 
 1.480511e-04  -1.515086e-04  0 
 1.699487e-04  -2.170569e-04  0 
 1.815626e-04  -2.899738e-04  0 
 1.829382e-04  -3.702689e-04  0 
 1.732884e-04  -4.612243e-04  0 
 1.444964e-04  -5.721015e-04  0 
 0  0  0 
 0  0  0 
 0  0  0 
 0  0  0 
 0  0  0 
 0  0  0 
 0  0  0 
 0  0  0 
 -2.432055e-04  -5.765555e-04  0 
 -1.808825e-04  -5.489781e-04  0 
 -1.286422e-04  -5.336533e-04  0 
 -8.252616e-05  -5.282502e-04  0 
 -4.082965e-05  -5.325344e-04  0 
 -2.550613e-06  -5.476640e-04  0 
 3.092944e-05  -5.767414e-04  0 
 5.651629e-05  -6.305919e-04  0 
 -5.424774e-05  -3.758966e-05  0 
 -3.737652e-05  -3.399224e-05  0 
 -2.553466e-05  -3.317133e-05  0 
 -1.539413e-05  -3.271991e-05  0 
 -5.447956e-06  -3.198545e-05  0 
 5.299929e-06  -3.095723e-05  0 
 1.804022e-05  -3.021844e-05  0 
 3.528497e-05  -3.180320e-05  0 
 -1.077810e-04  -9.316172e-05  0 
 -7.450513e-05  -8.384888e-05  0 
 -5.097791e-05  -8.042256e-05  0 
 -3.117996e-05  -7.908061e-05  0 
 -1.192723e-05  -7.813420e-05  0 
 9.097801e-06  -7.739153e-05  0 
 3.446641e-05  -7.811131e-05  0 
 6.879375e-05  -8.349105e-05  0 
 -1.506822e-04  -1.523943e-04  0 
 -1.087837e-04  -1.436441e-04  0 
 -7.527701e-05  -1.389662e-04  0 
 -4.678664e-05  -1.373461e-04  0 
 -1.922482e-05  -1.369335e-04  0 
 1.100962e-05  -1.371930e-04  0 
 4.738679e-05  -1.391587e-04  0 
 9.261087e-05  -1.439252e-04  0 
 -1.839238e-04  -2.144808e-04  0 
 -1.363692e-04  -2.079525e-04  0 
 -9.608145e-05  -2.047539e-04  0 
 -6.093008e-05  -2.044398e-04  0 
 -2.717524e-05  -2.056227e-04  0 
 9.774652e-06  -2.071944e-04  0 
 5.373611e-05  -2.091579e-04  0 
 1.068349e-04  -2.122369e-04  0 
 -2.087218e-04  -2.787724e-04  0 
 -1.564060e-04  -2.748317e-04  0 
 -1.111940e-04  -2.741019e-04  0 
 -7.187976e-05  -2.761925e-04  0 
 -3.513229e-05  -2.801381e-04  0 
 4.545474e-06  -2.840668e-04  0 
 5.250599e-05  -2.864748e-04  0 
 1.114543e-04  -2.878339e-04  0 
 -2.260272e-04  -3.451654e-04  0 
 -1.688129e-04  -3.435009e-04  0 
 -1.199432e-04  -3.444765e-04  0 
 -7.853954e-05  -3.480137e-04  0 
 -4.125118e-05  -3.548891e-04  0 
 -3.413784e-06  -3.639271e-04  0 
 4.333416e-05  -3.699665e-04  0 
 1.055504e-04  -3.709494e-04  0 
 -2.362063e-04  -4.151470e-04  0 
 -1.739764e-04  -4.142782e-04  0 
 -1.238022e-04  -4.132854e-04  0 
 -8.137062e-05  -4.157585e-04  0 
 -4.378906e-05  -4.240358e-04  0 
 -8.634991e-06  -4.388196e-04  0 
 2.825266e-05  -4.574288e-04  0 
 8.638259e-05  -4.637252e-04  0 
 -2.378228e-04  -4.948968e-04  0 
 -1.761886e-04  -4.847193e-04  0 
 -1.258491e-04  -4.773257e-04  0 
 -8.208561e-05  -4.764370e-04  0 
 -4.293763e-05  -4.837211e-04  0 
 -7.631859e-06  -5.008807e-04  0 
 2.387819e-05  -5.304173e-04  0 
 5.012012e-05  -5.736206e-04  0 
VECTORS displacement_ITER9 FLOAT
 -1.428904e-21  -7.539303e-21  0 
 -3.401295e-04  -6.323734e-04  0 
 -9.206117e-21  -4.717649e-21  0 
 3.761097e-05  -7.785286e-04  0 