# vtk DataFile Version 3.1
this is an vtk file created by FEMAC
ASCII
DATASET UNSTRUCTURED_GRID
POINTS 100 FLOAT
2.000000 2.000000 0.000000
2.000000 3.000000 0.000000
3.000000 2.000000 0.000000
3.000000 3.000000 0.000000
2.000000 2.111111 0.000000
2.000000 2.222222 0.000000
2.000000 2.333333 0.000000
2.000000 2.444444 0.000000
2.000000 2.555556 0.000000
2.000000 2.666667 0.000000
2.000000 2.777778 0.000000
2.000000 2.888889 0.000000
2.111111 2.000000 0.000000
2.222222 2.000000 0.000000
2.333333 2.000000 0.000000
2.444444 2.000000 0.000000
2.555556 2.000000 0.000000
2.666667 2.000000 0.000000
2.777778 2.000000 0.000000
2.888889 2.000000 0.000000
2.111111 3.000000 0.000000
2.222222 3.000000 0.000000
2.333333 3.000000 0.000000
2.444444 3.000000 0.000000
2.555556 3.000000 0.000000
2.666667 3.000000 0.000000
2.777778 3.000000 0.000000
2.888889 3.000000 0.000000
3.000000 2.111111 0.000000
3.000000 2.222222 0.000000
3.000000 2.333333 0.000000
3.000000 2.444444 0.000000
3.000000 2.555556 0.000000
3.000000 2.666667 0.000000
3.000000 2.777778 0.000000
3.000000 2.888889 0.000000
2.111111 2.111111 0.000000
2.111111 2.222222 0.000000
2.111111 2.333333 0.000000
2.111111 2.444444 0.000000
2.111111 2.555556 0.000000
2.111111 2.666667 0.000000
2.111111 2.777778 0.000000
2.111111 2.888889 0.000000
2.222222 2.111111 0.000000
2.222222 2.222222 0.000000
2.222222 2.333333 0.000000
2.222222 2.444444 0.000000
2.222222 2.555556 0.000000
2.222222 2.666667 0.000000
2.222222 2.777778 0.000000
2.222222 2.888889 0.000000
2.333333 2.111111 0.000000
2.333333 2.222222 0.000000
2.333333 2.333333 0.000000
2.333333 2.444444 0.000000
2.333333 2.555556 0.000000
2.333333 2.666667 0.000000
2.333333 2.777778 0.000000
2.333333 2.888889 0.000000
2.444444 2.111111 0.000000
2.444444 2.222222 0.000000
2.444444 2.333333 0.000000
2.444444 2.444444 0.000000
2.444444 2.555556 0.000000
2.444444 2.666667 0.000000
2.444444 2.777778 0.000000
2.444444 2.888889 0.000000
2.555556 2.111111 0.000000
2.555556 2.222222 0.000000
2.555556 2.333333 0.000000
2.555556 2.444444 0.000000
2.555556 2.555556 0.000000
2.555556 2.666667 0.000000
2.555556 2.777778 0.000000
2.555556 2.888889 0.000000
2.666667 2.111111 0.000000
2.666667 2.222222 0.000000
2.666667 2.333333 0.000000
2.666667 2.444444 0.000000
2.666667 2.555556 0.000000
2.666667 2.666667 0.000000
2.666667 2.777778 0.000000
2.666667 2.888889 0.000000
2.777778 2.111111 0.000000
2.777778 2.222222 0.000000
2.777778 2.333333 0.000000
2.777778 2.444444 0.000000
2.777778 2.555556 0.000000
2.777778 2.666667 0.000000
2.777778 2.777778 0.000000
2.777778 2.888889 0.000000
2.888889 2.111111 0.000000
2.888889 2.222222 0.000000
2.888889 2.333333 0.000000
2.888889 2.444444 0.000000
2.888889 2.555556 0.000000
2.888889 2.666667 0.000000
2.888889 2.777778 0.000000
2.888889 2.888889 0.000000
CELLS 81 405 
4 0 12 36  4
4 4 36 37  5
4 5 37 38  6
4 6 38 39  7
4 7 39 40  8
4 8 40 41  9
4 9 41 42 10
4 10 42 43 11
4 11 43 20  1
4 12 13 44 36
4 36 44 45 37
4 37 45 46 38
4 38 46 47 39
4 39 47 48 40
4 40 48 49 41
4 41 49 50 42
4 42 50 51 43
4 43 51 21 20
4 13 14 52 44
4 44 52 53 45
4 45 53 54 46
4 46 54 55 47
4 47 55 56 48
4 48 56 57 49
4 49 57 58 50
4 50 58 59 51
4 51 59 22 21
4 14 15 60 52
4 52 60 61 53
4 53 61 62 54
4 54 62 63 55
4 55 63 64 56
4 56 64 65 57
4 57 65 66 58
4 58 66 67 59
4 59 67 23 22
4 15 16 68 60
4 60 68 69 61
4 61 69 70 62
4 62 70 71 63
4 63 71 72 64
4 64 72 73 65
4 65 73 74 66
4 66 74 75 67
4 67 75 24 23
4 16 17 76 68
4 68 76 77 69
4 69 77 78 70
4 70 78 79 71
4 71 79 80 72
4 72 80 81 73
4 73 81 82 74
4 74 82 83 75
4 75 83 25 24
4 17 18 84 76
4 76 84 85 77
4 77 85 86 78
4 78 86 87 79
4 79 87 88 80
4 80 88 89 81
4 81 89 90 82
4 82 90 91 83
4 83 91 26 25
4 18 19 92 84
4 84 92 93 85
4 85 93 94 86
4 86 94 95 87
4 87 95 96 88
4 88 96 97 89
4 89 97 98 90
4 90 98 99 91
4 91 99 27 26
4 19  2 28 92
4 92 28 29 93
4 93 29 30 94
4 94 30 31 95
4 95 31 32 96
4 96 32 33 97
4 97 33 34 98
4 98 34 35 99
4 99 35  3 27
CELL_TYPES 81
9 9 9 9 9 9 9 9 9 9 9 9 9 9 9 9 9 9 9 9 9 9 9 9 9 9 9 9 9 9 9 9 9 9 9 9 9 9 9 9 9 9 9 9 9 9 9 9 9 9 9 9 9 9 9 9 9 9 9 9 9 9 9 9 9 9 9 9 9 9 9 9 9 9 9 9 9 9 9 9 9 
POINT_DATA 100
VECTORS displacement_ITER1 FLOAT
 -1.908363e-03  -3.383275e-03  0 
 6.453214e-04  -3.436475e-03  0 
 -2.437968e-03  -7.359810e-03  0 
 9.035061e-04  -7.337691e-03  0 
 -1.751051e-03  -3.509938e-03  0 
 -1.465788e-03  -3.549923e-03  0 
 -1.156690e-03  -3.578649e-03  0 
 -8.341677e-04  -3.591529e-03  0 
 -5.034915e-04  -3.594840e-03  0 
 -1.750499e-04  -3.586056e-03  0 
 1.452223e-04  -3.568650e-03  0 
 4.473570e-04  -3.537404e-03  0 
 -2.117002e-03  -3.835726e-03  0 
 -2.213903e-03  -4.251289e-03  0 
 -2.286653e-03  -4.656750e-03  0 
 -2.341968e-03  -5.064066e-03  0 
 -2.378753e-03  -5.473053e-03  0 
 -2.411241e-03  -5.888089e-03  0 
 -2.438549e-03  -6.320654e-03  0 
 -2.455061e-03  -6.781037e-03  0 
 8.085725e-04  -3.870972e-03  0 
 8.910054e-04  -4.273538e-03  0 
 9.522646e-04  -4.673699e-03  0 
 9.970223e-04  -5.076487e-03  0 
 1.020290e-03  -5.487084e-03  0 
 1.026089e-03  -5.910190e-03  0 
 1.020381e-03  -6.342619e-03  0 
 9.997054e-04  -6.794253e-03  0 
 -2.006130e-03  -7.211938e-03  0 
 -1.609783e-03  -7.140541e-03  0 
 -1.227655e-03  -7.085843e-03  0 
 -8.586939e-04  -7.057628e-03  0 
 -4.979085e-04  -7.055073e-03  0 
 -1.395966e-04  -7.072255e-03  0 
 2.158994e-04  -7.119966e-03  0 
 5.746812e-04  -7.188026e-03  0 
 -1.762586e-03  -3.827859e-03  0 
 -1.471393e-03  -3.877650e-03  0 
 -1.157421e-03  -3.908780e-03  0 
 -8.335754e-04  -3.926403e-03  0 
 -5.042463e-04  -3.930375e-03  0 
 -1.747648e-04  -3.921610e-03  0 
 1.492711e-04  -3.899789e-03  0 
 4.552359e-04  -3.862139e-03  0 
 -1.836865e-03  -4.236163e-03  0 
 -1.491547e-03  -4.242301e-03  0 
 -1.164810e-03  -4.264777e-03  0 
 -8.357370e-04  -4.280403e-03  0 
 -5.039713e-04  -4.285170e-03  0 
 -1.704930e-04  -4.278539e-03  0 
 1.638880e-04  -4.263786e-03  0 
 5.144048e-04  -4.260253e-03  0 
 -1.897778e-03  -4.643300e-03  0 
 -1.529660e-03  -4.640042e-03  0 
 -1.180389e-03  -4.646935e-03  0 
 -8.411156e-04  -4.657145e-03  0 
 -5.029851e-04  -4.662016e-03  0 
 -1.612825e-04  -4.660331e-03  0 
 1.915092e-04  -4.658063e-03  0 
 5.624258e-04  -4.661545e-03  0 
 -1.943705e-03  -5.052823e-03  0 
 -1.563453e-03  -5.047589e-03  0 
 -1.199472e-03  -5.049162e-03  0 
 -8.482161e-04  -5.054569e-03  0 
 -5.018671e-04  -5.059548e-03  0 
 -1.507417e-04  -5.062492e-03  0 
 2.133592e-04  -5.065129e-03  0 
 5.953701e-04  -5.069373e-03  0 
 -1.976748e-03  -5.464872e-03  0 
 -1.586698e-03  -5.461208e-03  0 
 -1.213116e-03  -5.461995e-03  0 
 -8.539536e-04  -5.465605e-03  0 
 -5.016422e-04  -5.470852e-03  0 
 -1.453314e-04  -5.476348e-03  0 
 2.243065e-04  -5.480969e-03  0 
 6.122733e-04  -5.484816e-03  0 
 -1.996362e-03  -5.882572e-03  0 
 -1.597176e-03  -5.880750e-03  0 
 -1.218320e-03  -5.879717e-03  0 
 -8.563721e-04  -5.880216e-03  0 
 -5.021828e-04  -5.885371e-03  0 
 -1.462417e-04  -5.894609e-03  0 
 2.231683e-04  -5.902748e-03  0 
 6.138529e-04  -5.907332e-03  0 
 -2.002623e-03  -6.313774e-03  0 
 -1.595874e-03  -6.307236e-03  0 
 -1.218667e-03  -6.295027e-03  0 
 -8.564460e-04  -6.288715e-03  0 
 -5.020496e-04  -6.292492e-03  0 
 -1.484804e-04  -6.306681e-03  0 
 2.120294e-04  -6.327448e-03  0 
 5.999057e-04  -6.338282e-03  0 
 -1.992295e-03  -6.771429e-03  0 
 -1.596850e-03  -6.730413e-03  0 
 -1.220007e-03  -6.699584e-03  0 
 -8.567569e-04  -6.683350e-03  0 
 -5.002506e-04  -6.683681e-03  0 
 -1.470669e-04  -6.702184e-03  0 
 2.080559e-04  -6.736831e-03  0 
 5.672345e-04  -6.786872e-03  0 
VECTORS displacement_ITER2 FLOAT
 -1.112564e-03  -2.766463e-03  0 
 3.311961e-04  -2.860612e-03  0 
 -1.787694e-03  -5.906514e-03  0 
 6.668870e-04  -5.833431e-03  0 
 -1.139373e-03  -2.918418e-03  0 
 -9.818694e-04  -2.964196e-03  0 
 -7.771103e-04  -2.985074e-03  0 
 -5.512109e-04  -2.993061e-03  0 
 -3.179632e-04  -2.993407e-03  0 
 -8.762033e-05  -2.990920e-03  0 
 1.245840e-04  -2.984656e-03  0 
 3.019285e-04  -2.963367e-03  0 
 -1.385541e-03  -3.116853e-03  0 
 -1.510409e-03  -3.430999e-03  0 
 -1.590399e-03  -3.739471e-03  0 
 -1.647722e-03  -4.041342e-03  0 
 -1.689974e-03  -4.348867e-03  0 
 -1.725525e-03  -4.667164e-03  0 
 -1.758422e-03  -4.999610e-03  0 
 -1.792369e-03  -5.372833e-03  0 
 5.450795e-04  -3.168102e-03  0 
 6.474254e-04  -3.460613e-03  0 
 7.139535e-04  -3.759960e-03  0 
 7.623893e-04  -4.059291e-03  0 
 7.922940e-04  -4.366077e-03  0 
 8.056580e-04  -4.687132e-03  0 
 8.038215e-04  -5.013842e-03  0 
 7.798124e-04  -5.371844e-03  0 
 -1.418805e-03  -5.724869e-03  0 
 -1.117963e-03  -5.629087e-03  0 
 -8.368342e-04  -5.573200e-03  0 
 -5.735730e-04  -5.543588e-03  0 
 -3.129162e-04  -5.534449e-03  0 
 -5.496400e-05  -5.547077e-03  0 
 1.989721e-04  -5.585843e-03  0 
 4.509605e-04  -5.662778e-03  0 
 -1.143683e-03  -3.104290e-03  0 
 -9.771415e-04  -3.168033e-03  0 
 -7.733018e-04  -3.206110e-03  0 
 -5.506379e-04  -3.224815e-03  0 
 -3.197753e-04  -3.229324e-03  0 
 -9.099179e-05  -3.221046e-03  0 
 1.243356e-04  -3.198201e-03  0 
 3.089504e-04  -3.155246e-03  0 
 -1.229494e-03  -3.413184e-03  0 
 -9.920803e-04  -3.422144e-03  0 
 -7.747586e-04  -3.451851e-03  0 
 -5.501926e-04  -3.472157e-03  0 
 -3.204433e-04  -3.478249e-03  0 
 -9.072419e-05  -3.470158e-03  0 
 1.350459e-04  -3.451844e-03  0 
 3.751430e-04  -3.446789e-03  0 
 -1.299315e-03  -3.722189e-03  0 
 -1.032714e-03  -3.718304e-03  0 
 -7.878079e-04  -3.728199e-03  0 
 -5.533520e-04  -3.742071e-03  0 
 -3.194973e-04  -3.748368e-03  0 
 -8.279769e-05  -3.745610e-03  0 
 1.638918e-04  -3.741846e-03  0 
 4.287201e-04  -3.745743e-03  0 
 -1.350603e-03  -4.030859e-03  0 
 -1.069931e-03  -4.025617e-03  0 
 -8.074848e-04  -4.028192e-03  0 
 -5.595592e-04  -4.035301e-03  0 
 -3.175744e-04  -4.041219e-03  0 
 -7.103969e-05  -4.043849e-03  0 
 1.886932e-04  -4.045951e-03  0 
 4.664466e-04  -4.050636e-03  0 
 -1.386122e-03  -4.342086e-03  0 
 -1.095608e-03  -4.339145e-03  0 
 -8.221529e-04  -4.340612e-03  0 
 -5.649723e-04  -4.344914e-03  0 
 -3.162948e-04  -4.350471e-03  0 
 -6.396459e-05  -4.355670e-03  0 
 2.024092e-04  -4.359494e-03  0 
 4.875022e-04  -4.362845e-03  0 
 -1.408823e-03  -4.660688e-03  0 
 -1.107261e-03  -4.659795e-03  0 
 -8.274772e-04  -4.659682e-03  0 
 -5.669518e-04  -4.659892e-03  0 
 -3.158651e-04  -4.664479e-03  0 
 -6.374773e-05  -4.673313e-03  0 
 2.026487e-04  -4.680409e-03  0 
 4.925453e-04  -4.683235e-03  0 
 -1.417392e-03  -4.994490e-03  0 
 -1.105069e-03  -4.990695e-03  0 
 -8.275163e-04  -4.978042e-03  0 
 -5.670052e-04  -4.969576e-03  0 
 -3.149106e-04  -4.971396e-03  0 
 -6.484486e-05  -4.984821e-03  0 
 1.914349e-04  -5.005738e-03  0 
 4.783909e-04  -5.014698e-03  0 
 -1.404120e-03  -5.363878e-03  0 
 -1.104059e-03  -5.320409e-03  0 
 -8.299082e-04  -5.285551e-03  0 
 -5.682828e-04  -5.265984e-03  0 
 -3.133410e-04  -5.262690e-03  0 
 -6.179698e-05  -5.278102e-03  0 
 1.886616e-04  -5.313467e-03  0 
 4.408649e-04  -5.366757e-03  0 
VECTORS displacement_ITER3 FLOAT
 -9.667697e-04  -2.503172e-03  0 
 2.626102e-04  -2.598134e-03  0 
 -1.669623e-03  -5.475982e-03  0 
 6.221278e-04  -5.414635e-03  0 
 -1.035613e-03  -2.664380e-03  0 
 -9.021299e-04  -2.705240e-03  0 
 -7.179601e-04  -2.718959e-03  0 
 -5.119236e-04  -2.725501e-03  0 
 -2.979533e-04  -2.727512e-03  0 
 -8.425487e-05  -2.729477e-03  0 
 1.123478e-04  -2.726692e-03  0 
 2.684797e-04  -2.707450e-03  0 
 -1.261925e-03  -2.831462e-03  0 
 -1.392641e-03  -3.125755e-03  0 
 -1.471633e-03  -3.418397e-03  0 
 -1.528297e-03  -3.706773e-03  0 
 -1.573599e-03  -3.998437e-03  0 
 -1.609163e-03  -4.296615e-03  0 
 -1.641354e-03  -4.606364e-03  0 
 -1.675656e-03  -4.956271e-03  0 
 4.904923e-04  -2.885290e-03  0 
 5.957558e-04  -3.160765e-03  0 
 6.592017e-04  -3.441134e-03  0 
 7.033900e-04  -3.722993e-03  0 
 7.349224e-04  -4.010958e-03  0 
 7.527886e-04  -4.309006e-03  0 
 7.546432e-04  -4.617690e-03  0 
 7.320010e-04  -4.959342e-03  0 
 -1.319979e-03  -5.290025e-03  0 
 -1.041712e-03  -5.190287e-03  0 
 -7.830043e-04  -5.139036e-03  0 
 -5.369703e-04  -5.113140e-03  0 
 -2.925575e-04  -5.106249e-03  0 
 -5.152272e-05  -5.121010e-03  0 
 1.864185e-04  -5.157913e-03  0 
 4.202613e-04  -5.235543e-03  0 
 -1.039163e-03  -2.818206e-03  0 
 -8.977010e-04  -2.885034e-03  0 
 -7.143807e-04  -2.923044e-03  0 
 -5.102798e-04  -2.941411e-03  0 
 -2.974119e-04  -2.947232e-03  0 
 -8.648394e-05  -2.940849e-03  0 
 1.099386e-04  -2.918405e-03  0 
 2.725582e-04  -2.872617e-03  0 
 -1.127953e-03  -3.109222e-03  0 
 -9.107786e-04  -3.118960e-03  0 
 -7.142966e-04  -3.150092e-03  0 
 -5.088698e-04  -3.171242e-03  0 
 -2.975858e-04  -3.178017e-03  0 
 -8.685359e-05  -3.170389e-03  0 
 1.187926e-04  -3.151758e-03  0 
 3.394564e-04  -3.146539e-03  0 
 -1.198563e-03  -3.402021e-03  0 
 -9.514161e-04  -3.397825e-03  0 
 -7.263660e-04  -3.407979e-03  0 
 -5.114535e-04  -3.422421e-03  0 
 -2.967499e-04  -3.429017e-03  0 
 -7.945091e-05  -3.426347e-03  0 
 1.474761e-04  -3.423038e-03  0 
 3.927107e-04  -3.427881e-03  0 
 -1.250664e-03  -3.694179e-03  0 
 -9.893763e-04  -3.687819e-03  0 
 -7.463598e-04  -3.689815e-03  0 
 -5.178085e-04  -3.696740e-03  0 
 -2.950823e-04  -3.702578e-03  0 
 -6.772251e-05  -3.705224e-03  0 
 1.726748e-04  -3.707769e-03  0 
 4.300844e-04  -3.713499e-03  0 
 -1.287711e-03  -3.988225e-03  0 
 -1.016362e-03  -3.983506e-03  0 
 -7.620846e-04  -3.983946e-03  0 
 -5.240072e-04  -3.987614e-03  0 
 -2.943019e-04  -3.992777e-03  0 
 -6.074063e-05  -3.997774e-03  0 
 1.868234e-04  -4.001547e-03  0 
 4.522696e-04  -4.005197e-03  0 
 -1.312061e-03  -4.288142e-03  0 
 -1.029529e-03  -4.285661e-03  0 
 -7.687873e-04  -4.284545e-03  0 
 -5.271861e-04  -4.283943e-03  0 
 -2.946703e-04  -4.288024e-03  0 
 -6.083492e-05  -4.296635e-03  0 
 1.873688e-04  -4.303439e-03  0 
 4.589183e-04  -4.305774e-03  0 
 -1.321053e-03  -4.601162e-03  0 
 -1.028301e-03  -4.597390e-03  0 
 -7.703532e-04  -4.584051e-03  0 
 -5.287450e-04  -4.574958e-03  0 
 -2.945675e-04  -4.576606e-03  0 
 -6.207123e-05  -4.590172e-03  0 
 1.764380e-04  -4.611157e-03  0 
 4.458230e-04  -4.619399e-03  0 
 -1.306025e-03  -4.949627e-03  0 
 -1.027660e-03  -4.906758e-03  0 
 -7.746025e-04  -4.871743e-03  0 
 -5.313375e-04  -4.852800e-03  0 
 -2.935523e-04  -4.850618e-03  0 
 -5.863376e-05  -4.866491e-03  0 
 1.746181e-04  -4.902330e-03  0 
 4.087645e-04  -4.956012e-03  0 
VECTORS displacement_ITER4 FLOAT
 -8.823033e-04  -2.533877e-03  0 
 2.564535e-04  -2.629513e-03  0 
 -1.574125e-03  -5.396193e-03  0 
 5.918603e-04  -5.338286e-03  0 
 -9.672743e-04  -2.701897e-03  0 
 -8.424925e-04  -2.739891e-03  0 
 -6.693553e-04  -2.751938e-03  0 
 -4.742453e-04  -2.758431e-03  0 
 -2.709337e-04  -2.761084e-03  0 
 -6.801512e-05  -2.762329e-03  0 
 1.199549e-04  -2.759449e-03  0 
 2.695680e-04  -2.741224e-03  0 
 -1.181531e-03  -2.856117e-03  0 
 -1.313013e-03  -3.141923e-03  0 
 -1.391044e-03  -3.422829e-03  0 
 -1.446014e-03  -3.699490e-03  0 
 -1.488858e-03  -3.977484e-03  0 
 -1.521346e-03  -4.261239e-03  0 
 -1.550781e-03  -4.558265e-03  0 
 -1.582328e-03  -4.893471e-03  0 
 4.811121e-04  -2.909536e-03  0 
 5.833494e-04  -3.177804e-03  0 
 6.432300e-04  -3.447164e-03  0 
 6.825343e-04  -3.717016e-03  0 
 7.095458e-04  -3.990761e-03  0 
 7.235260e-04  -4.271809e-03  0 
 7.237132e-04  -4.566805e-03  0 
 7.014451e-04  -4.892327e-03  0 
 -1.241781e-03  -5.212399e-03  0 
 -9.777114e-04  -5.116617e-03  0 
 -7.341472e-04  -5.065290e-03  0 
 -4.985277e-04  -5.038809e-03  0 
 -2.672814e-04  -5.032659e-03  0 
 -4.097884e-05  -5.046780e-03  0 
 1.822035e-04  -5.082057e-03  0 
 4.025011e-04  -5.156603e-03  0 
 -9.683507e-04  -2.842014e-03  0 
 -8.388641e-04  -2.909497e-03  0 
 -6.660049e-04  -2.946804e-03  0 
 -4.725498e-04  -2.964961e-03  0 
 -2.705765e-04  -2.970864e-03  0 
 -7.009109e-05  -2.964993e-03  0 
 1.171011e-04  -2.943269e-03  0 
 2.709768e-04  -2.897505e-03  0 
 -1.057698e-03  -3.123540e-03  0 
 -8.512146e-04  -3.132594e-03  0 
 -6.658182e-04  -3.163702e-03  0 
 -4.712315e-04  -3.184781e-03  0 
 -2.707629e-04  -3.191844e-03  0 
 -7.060041e-05  -3.184918e-03  0 
 1.248152e-04  -3.167064e-03  0 
 3.357994e-04  -3.162489e-03  0 
 -1.128210e-03  -3.405841e-03  0 
 -8.916279e-04  -3.400902e-03  0 
 -6.775550e-04  -3.410779e-03  0 
 -4.737180e-04  -3.425315e-03  0 
 -2.700044e-04  -3.432271e-03  0 
 -6.366189e-05  -3.430257e-03  0 
 1.523511e-04  -3.427830e-03  0 
 3.869045e-04  -3.433613e-03  0 
 -1.179385e-03  -3.686325e-03  0 
 -9.291576e-04  -3.679574e-03  0 
 -6.972749e-04  -3.681328e-03  0 
 -4.799689e-04  -3.688265e-03  0 
 -2.685242e-04  -3.694370e-03  0 
 -5.251605e-05  -3.697516e-03  0 
 1.763424e-04  -3.700761e-03  0 
 4.217919e-04  -3.707245e-03  0 
 -1.215049e-03  -3.967768e-03  0 
 -9.553555e-04  -3.963108e-03  0 
 -7.126890e-04  -3.963441e-03  0 
 -4.861828e-04  -3.967054e-03  0 
 -2.680729e-04  -3.972300e-03  0 
 -4.626568e-05  -3.977484e-03  0 
 1.891114e-04  -3.981469e-03  0 
 4.415569e-04  -3.985155e-03  0 
 -1.237457e-03  -4.254433e-03  0 
 -9.675795e-04  -4.252349e-03  0 
 -7.190684e-04  -4.251245e-03  0 
 -4.894662e-04  -4.250610e-03  0 
 -2.689245e-04  -4.254620e-03  0 
 -4.728651e-05  -4.263036e-03  0 
 1.881615e-04  -4.269378e-03  0 
 4.457282e-04  -4.270863e-03  0 
 -1.244726e-03  -4.553846e-03  0 
 -9.655776e-04  -4.550479e-03  0 
 -7.203347e-04  -4.537304e-03  0 
 -4.911261e-04  -4.528306e-03  0 
 -2.693893e-04  -4.529840e-03  0 
 -4.954297e-05  -4.542915e-03  0 
 1.756285e-04  -4.562847e-03  0 
 4.307337e-04  -4.569320e-03  0 
 -1.228730e-03  -4.887998e-03  0 
 -9.646197e-04  -4.845990e-03  0 
 -7.243298e-04  -4.811340e-03  0 
 -4.937306e-04  -4.792372e-03  0 
 -2.687044e-04  -4.790367e-03  0 
 -4.713702e-05  -4.805711e-03  0 
 1.723364e-04  -4.839893e-03  0 
 3.920455e-04  -4.891801e-03  0 
VECTORS displacement_ITER5 FLOAT
 -8.891280e-04  -2.519346e-03  0 
 2.415256e-04  -2.616208e-03  0 
 -1.588491e-03  -5.374683e-03  0 
 5.751006e-04  -5.311807e-03  0 
 -9.777493e-04  -2.688823e-03  0 
 -8.535929e-04  -2.724687e-03  0 
 -6.817411e-04  -2.737563e-03  0 
 -4.871624e-04  -2.744946e-03  0 
 -2.844326e-04  -2.747957e-03  0 
 -8.313907e-05  -2.747714e-03  0 
 1.041423e-04  -2.744162e-03  0 
 2.547850e-04  -2.727163e-03  0 
 -1.190566e-03  -2.841416e-03  0 
 -1.321329e-03  -3.125592e-03  0 
 -1.399691e-03  -3.404293e-03  0 
 -1.455491e-03  -3.680015e-03  0 
 -1.498619e-03  -3.957362e-03  0 
 -1.532372e-03  -4.241077e-03  0 
 -1.563309e-03  -4.539393e-03  0 
 -1.595412e-03  -4.873808e-03  0 
 4.656102e-04  -2.895408e-03  0 
 5.662002e-04  -3.162562e-03  0 
 6.256869e-04  -3.430682e-03  0 
 6.648596e-04  -3.699725e-03  0 
 6.905790e-04  -3.972502e-03  0 
 7.036074e-04  -4.251588e-03  0 
 7.043035e-04  -4.545243e-03  0 
 6.837114e-04  -4.866068e-03  0 
 -1.255960e-03  -5.191549e-03  0 
 -9.907049e-04  -5.097428e-03  0 
 -7.469691e-04  -5.044240e-03  0 
 -5.103577e-04  -5.015601e-03  0 
 -2.801794e-04  -5.008031e-03  0 
 -5.477167e-05  -5.021036e-03  0 
 1.670694e-04  -5.056450e-03  0 
 3.859646e-04  -5.130036e-03  0 
 -9.781928e-04  -2.826539e-03  0 
 -8.501666e-04  -2.894198e-03  0 
 -6.779317e-04  -2.931525e-03  0 
 -4.853897e-04  -2.950027e-03  0 
 -2.846167e-04  -2.955873e-03  0 
 -8.517343e-05  -2.949958e-03  0 
 1.017816e-04  -2.928575e-03  0 
 2.556003e-04  -2.883175e-03  0 
 -1.067801e-03  -3.106992e-03  0 
 -8.622970e-04  -3.116010e-03  0 
 -6.778014e-04  -3.147329e-03  0 
 -4.841432e-04  -3.168523e-03  0 
 -2.847065e-04  -3.175794e-03  0 
 -8.536808e-05  -3.169220e-03  0 
 1.094699e-04  -3.151716e-03  0 
 3.198976e-04  -3.147337e-03  0 
 -1.138308e-03  -3.387720e-03  0 
 -9.026942e-04  -3.383072e-03  0 
 -6.894837e-04  -3.393147e-03  0 
 -4.865365e-04  -3.407921e-03  0 
 -2.837172e-04  -3.415201e-03  0 
 -7.826646e-05  -3.413590e-03  0 
 1.368486e-04  -3.411488e-03  0 
 3.704522e-04  -3.417283e-03  0 
 -1.189546e-03  -3.667039e-03  0 
 -9.401887e-04  -3.660541e-03  0 
 -7.090936e-04  -3.662532e-03  0 
 -4.925827e-04  -3.669726e-03  0 
 -2.819935e-04  -3.676156e-03  0 
 -6.697144e-05  -3.679676e-03  0 
 1.607160e-04  -3.683259e-03  0 
 4.048848e-04  -3.689955e-03  0 
 -1.225589e-03  -3.947719e-03  0 
 -9.664428e-04  -3.943132e-03  0 
 -7.244081e-04  -3.943584e-03  0 
 -4.985862e-04  -3.947378e-03  0 
 -2.812804e-04  -3.952854e-03  0 
 -6.049329e-05  -3.958298e-03  0 
 1.735562e-04  -3.962612e-03  0 
 4.244240e-04  -3.966686e-03  0 
 -1.248503e-03  -4.234045e-03  0 
 -9.789393e-04  -4.231707e-03  0 
 -7.307865e-04  -4.230479e-03  0 
 -5.016790e-04  -4.229876e-03  0 
 -2.818777e-04  -4.233946e-03  0 
 -6.125958e-05  -4.242391e-03  0 
 1.728655e-04  -4.248807e-03  0 
 4.285190e-04  -4.250593e-03  0 
 -1.256794e-03  -4.533562e-03  0 
 -9.775122e-04  -4.529423e-03  0 
 -7.321348e-04  -4.515883e-03  0 
 -5.031533e-04  -4.506675e-03  0 
 -2.821454e-04  -4.507975e-03  0 
 -6.336983e-05  -4.520764e-03  0 
 1.605007e-04  -4.540366e-03  0 
 4.140226e-04  -4.546604e-03  0 
 -1.242240e-03  -4.867650e-03  0 
 -9.773407e-04  -4.825040e-03  0 
 -7.362058e-04  -4.789781e-03  0 
 -5.056723e-04  -4.769974e-03  0 
 -2.813391e-04  -4.767242e-03  0 
 -6.100083e-05  -4.781993e-03  0 
 1.571910e-04  -4.815613e-03  0 
 3.756488e-04  -4.866931e-03  0 
VECTORS displacement_ITER6 FLOAT
 -8.755294e-04  -2.540241e-03  0 
 2.217422e-04  -2.643793e-03  0 
 -1.573911e-03  -5.358219e-03  0 
 5.529884e-04  -5.297927e-03  0 
 -9.666219e-04  -2.711556e-03  0 
 -8.457030e-04  -2.747243e-03  0 
 -6.773329e-04  -2.762216e-03  0 
 -4.868026e-04  -2.770956e-03  0 
 -2.889054e-04  -2.774847e-03  0 
 -9.283130e-05  -2.774247e-03  0 
 9.002145e-05  -2.769974e-03  0 
 2.377073e-04  -2.753296e-03  0 
 -1.176635e-03  -2.861823e-03  0 
 -1.305715e-03  -3.141884e-03  0 
 -1.383652e-03  -3.416346e-03  0 
 -1.439546e-03  -3.688020e-03  0 
 -1.482091e-03  -3.961443e-03  0 
 -1.516315e-03  -4.240707e-03  0 
 -1.547680e-03  -4.534946e-03  0 
 -1.579827e-03  -4.864406e-03  0 
 4.449606e-04  -2.919031e-03  0 
 5.438977e-04  -3.180241e-03  0 
 6.032336e-04  -3.442764e-03  0 
 6.429934e-04  -3.707286e-03  0 
 6.679751e-04  -3.976402e-03  0 
 6.801476e-04  -4.251826e-03  0 
 6.803170e-04  -4.541494e-03  0 
 6.603671e-04  -4.856742e-03  0 
 -1.246318e-03  -5.176374e-03  0 
 -9.842371e-04  -5.083651e-03  0 
 -7.434316e-04  -5.030289e-03  0 
 -5.112387e-04  -5.001523e-03  0 
 -2.863552e-04  -4.993610e-03  0 
 -6.529571e-05  -5.006610e-03  0 
 1.521416e-04  -5.043003e-03  0 
 3.664418e-04  -5.115765e-03  0 
 -9.668017e-04  -2.846374e-03  0 
 -8.421238e-04  -2.914396e-03  0 
 -6.734670e-04  -2.952174e-03  0 
 -4.852330e-04  -2.971225e-03  0 
 -2.892392e-04  -2.977339e-03  0 
 -9.459574e-05  -2.971640e-03  0 
 8.824136e-05  -2.950683e-03  0 
 2.385395e-04  -2.905969e-03  0 
 -1.056339e-03  -3.123585e-03  0 
 -8.543656e-04  -3.132596e-03  0 
 -6.737328e-04  -3.164008e-03  0 
 -4.843291e-04  -3.185279e-03  0 
 -2.894098e-04  -3.192716e-03  0 
 -9.448441e-05  -3.186443e-03  0 
 9.625304e-05  -3.169318e-03  0 
 3.026683e-04  -3.165217e-03  0 
 -1.126518e-03  -3.400086e-03  0 
 -8.949136e-04  -3.395631e-03  0 
 -6.857643e-04  -3.405673e-03  0 
 -4.870521e-04  -3.420434e-03  0 
 -2.885640e-04  -3.427812e-03  0 
 -8.742220e-05  -3.426394e-03  0 
 1.234599e-04  -3.424385e-03  0 
 3.527659e-04  -3.429869e-03  0 
 -1.177555e-03  -3.675247e-03  0 
 -9.324856e-04  -3.668785e-03  0 
 -7.056368e-04  -3.670761e-03  0 
 -4.933780e-04  -3.677943e-03  0 
 -2.870771e-04  -3.684437e-03  0 
 -7.639752e-05  -3.688056e-03  0 
 1.468833e-04  -3.691618e-03  0 
 3.866898e-04  -3.698020e-03  0 
 -1.213697e-03  -3.951632e-03  0 
 -9.588809e-04  -3.946958e-03  0 
 -7.211679e-04  -3.947376e-03  0 
 -4.996280e-04  -3.951187e-03  0 
 -2.866110e-04  -3.956728e-03  0 
 -7.020194e-05  -3.962252e-03  0 
 1.593546e-04  -3.966644e-03  0 
 4.058142e-04  -3.970769e-03  0 
 -1.236782e-03  -4.233495e-03  0 
 -9.716141e-04  -4.231001e-03  0 
 -7.277663e-04  -4.229723e-03  0 
 -5.029075e-04  -4.229208e-03  0 
 -2.873961e-04  -4.233388e-03  0 
 -7.115922e-05  -4.241910e-03  0 
 1.584979e-04  -4.248462e-03  0 
 4.095667e-04  -4.250572e-03  0 
 -1.245507e-03  -4.528512e-03  0 
 -9.705469e-04  -4.524014e-03  0 
 -7.292621e-04  -4.510537e-03  0 
 -5.044303e-04  -4.501550e-03  0 
 -2.877795e-04  -4.503000e-03  0 
 -7.345276e-05  -4.515818e-03  0 
 1.460204e-04  -4.535461e-03  0 
 3.950963e-04  -4.541979e-03  0 
 -1.231881e-03  -4.857658e-03  0 
 -9.707360e-04  -4.814936e-03  0 
 -7.331859e-04  -4.779997e-03  0 
 -5.068261e-04  -4.760453e-03  0 
 -2.870634e-04  -4.757736e-03  0 
 -7.139406e-05  -4.772497e-03  0 
 1.424848e-04  -4.806143e-03  0 
 3.567969e-04  -4.857472e-03  0 
VECTORS displacement_ITER7 FLOAT
 -8.872707e-04  -2.549835e-03  0 
 2.158061e-04  -2.656514e-03  0 
 -1.591361e-03  -5.374216e-03  0 
 5.449560e-04  -5.309546e-03  0 
 -9.773986e-04  -2.721593e-03  0 
 -8.559323e-04  -2.757637e-03  0 
 -6.868646e-04  -2.773268e-03  0 
 -4.964820e-04  -2.781792e-03  0 
 -2.989553e-04  -2.785617e-03  0 
 -1.026761e-04  -2.784829e-03  0 
 8.093205e-05  -2.780149e-03  0 
 2.297737e-04  -2.763735e-03  0 
 -1.188659e-03  -2.873031e-03  0 
 -1.316801e-03  -3.153227e-03  0 
 -1.395077e-03  -3.427999e-03  0 
 -1.451691e-03  -3.699852e-03  0 
 -1.494737e-03  -3.973569e-03  0 
 -1.529945e-03  -4.253336e-03  0 
 -1.561964e-03  -4.548460e-03  0 
 -1.594891e-03  -4.879640e-03  0 
 4.379216e-04  -2.930791e-03  0 
 5.357743e-04  -3.191410e-03  0 
 5.954546e-04  -3.454298e-03  0 
 6.362915e-04  -3.719466e-03  0 
 6.616688e-04  -3.989281e-03  0 
 6.737030e-04  -4.265483e-03  0 
 6.727710e-04  -4.554835e-03  0 
 6.520794e-04  -4.870283e-03  0 
 -1.260753e-03  -5.192475e-03  0 
 -9.965656e-04  -5.099809e-03  0 
 -7.537006e-04  -5.046047e-03  0 
 -5.211084e-04  -5.016853e-03  0 
 -2.957298e-04  -5.008397e-03  0 
 -7.385890e-05  -5.020813e-03  0 
 1.443571e-04  -5.056775e-03  0 
 3.589501e-04  -5.129183e-03  0 
 -9.776494e-04  -2.857296e-03  0 
 -8.523902e-04  -2.925315e-03  0 
 -6.834269e-04  -2.963031e-03  0 
 -4.951112e-04  -2.982002e-03  0 
 -2.990118e-04  -2.988110e-03  0 
 -1.040608e-04  -2.982532e-03  0 
 7.951019e-05  -2.961836e-03  0 
 2.309789e-04  -2.917666e-03  0 
 -1.067438e-03  -3.134996e-03  0 
 -8.649941e-04  -3.143776e-03  0 
 -6.839964e-04  -3.175039e-03  0 
 -4.942807e-04  -3.196261e-03  0 
 -2.990046e-04  -3.203776e-03  0 
 -1.035696e-04  -3.197706e-03  0 
 8.787014e-05  -3.180854e-03  0 
 2.948431e-04  -3.176821e-03  0 
 -1.137820e-03  -3.411547e-03  0 
 -9.058671e-04  -3.407027e-03  0 
 -6.962467e-04  -3.416989e-03  0 
 -4.970447e-04  -3.431765e-03  0 
 -2.980322e-04  -3.439262e-03  0 
 -9.630865e-05  -3.438011e-03  0 
 1.151509e-04  -3.436074e-03  0 
 3.448637e-04  -3.441418e-03  0 
 -1.189241e-03  -3.686936e-03  0 
 -9.436880e-04  -3.680423e-03  0 
 -7.162605e-04  -3.682427e-03  0 
 -5.033817e-04  -3.689689e-03  0 
 -2.964659e-04  -3.696316e-03  0 
 -8.520586e-05  -3.700060e-03  0 
 1.386108e-04  -3.703656e-03  0 
 3.790085e-04  -3.710022e-03  0 
 -1.225860e-03  -3.963659e-03  0 
 -9.703276e-04  -3.958995e-03  0 
 -7.318803e-04  -3.959485e-03  0 
 -5.096106e-04  -3.963408e-03  0 
 -2.959120e-04  -3.969082e-03  0 
 -7.891106e-05  -3.974737e-03  0 
 1.511983e-04  -3.979249e-03  0 
 3.983677e-04  -3.983518e-03  0 
 -1.249382e-03  -4.246079e-03  0 
 -9.832963e-04  -4.243623e-03  0 
 -7.385508e-04  -4.242412e-03  0 
 -5.128312e-04  -4.242007e-03  0 
 -2.965659e-04  -4.246289e-03  0 
 -7.969951e-05  -4.254912e-03  0 
 1.505033e-04  -4.261633e-03  0 
 4.021767e-04  -4.263969e-03  0 
 -1.258589e-03  -4.541999e-03  0 
 -9.824926e-04  -4.537389e-03  0 
 -7.400723e-04  -4.524003e-03  0 
 -5.142620e-04  -4.515091e-03  0 
 -2.968185e-04  -4.516521e-03  0 
 -8.184424e-05  -4.529289e-03  0 
 1.381854e-04  -4.548961e-03  0 
 3.875938e-04  -4.555660e-03  0 
 -1.245775e-03  -4.872141e-03  0 
 -9.828626e-04  -4.829358e-03  0 
 -7.438900e-04  -4.794501e-03  0 
 -5.165780e-04  -4.774920e-03  0 
 -2.961156e-04  -4.771897e-03  0 
 -7.977138e-05  -4.786344e-03  0 
 1.346814e-04  -4.819779e-03  0 
 3.493040e-04  -4.870850e-03  0 
VECTORS displacement_ITER8 FLOAT
 -9.003906e-04  -2.563922e-03  0 
 2.105794e-04  -2.673256e-03  0 
 -1.607774e-03  -5.390772e-03  0 
 5.356790e-04  -5.322862e-03  0 
 -9.888721e-04  -2.735055e-03  0 
 -8.670220e-04  -2.771467e-03  0 
 -6.974534e-04  -2.786994e-03  0 
 -5.069506e-04  -2.795285e-03  0 
 -3.090346e-04  -2.798981e-03  0 
 -1.118635e-04  -2.798461e-03  0 
 7.261590e-05  -2.793959e-03  0 
 2.221305e-04  -2.777978e-03  0 
 -1.201121e-03  -2.887262e-03  0 
 -1.328669e-03  -3.167775e-03  0 
 -1.406897e-03  -3.442912e-03  0 
 -1.463484e-03  -3.714916e-03  0 
 -1.506753e-03  -3.988721e-03  0 
 -1.542319e-03  -4.268732e-03  0 
 -1.574748e-03  -4.563791e-03  0 
 -1.608575e-03  -4.895907e-03  0 
 4.307090e-04  -2.945853e-03  0 
 5.276597e-04  -3.206132e-03  0 
 5.870846e-04  -3.468988e-03  0 
 6.278232e-04  -3.734226e-03  0 
 6.533588e-04  -4.004350e-03  0 
 6.654094e-04  -4.281342e-03  0 
 6.638846e-04  -4.570577e-03  0 
 6.425694e-04  -4.886304e-03  0 
 -1.273787e-03  -5.209477e-03  0 
 -1.008594e-03  -5.116770e-03  0 
 -7.648224e-04  -5.063064e-03  0 
 -5.319307e-04  -5.033893e-03  0 
 -3.056778e-04  -5.025625e-03  0 
 -8.334801e-05  -5.037991e-03  0 
 1.352482e-04  -5.073161e-03  0 
 3.499903e-04  -5.144691e-03  0 
 -9.894026e-04  -2.871649e-03  0 
 -8.635065e-04  -2.939438e-03  0 
 -6.942123e-04  -2.977049e-03  0 
 -5.055205e-04  -2.995951e-03  0 
 -3.088660e-04  -3.002175e-03  0 
 -1.131991e-04  -2.996789e-03  0 
 7.114890e-05  -2.976393e-03  0 
 2.236683e-04  -2.932880e-03  0 
 -1.079102e-03  -3.149617e-03  0 
 -8.762637e-04  -3.158290e-03  0 
 -6.948320e-04  -3.189431e-03  0 
 -5.046381e-04  -3.210666e-03  0 
 -3.087821e-04  -3.218293e-03  0 
 -1.126869e-04  -3.212403e-03  0 
 7.947278e-05  -3.195782e-03  0 
 2.868795e-04  -3.191762e-03  0 
 -1.149432e-03  -3.426373e-03  0 
 -9.171895e-04  -3.421795e-03  0 
 -7.071359e-04  -3.431719e-03  0 
 -5.074107e-04  -3.446523e-03  0 
 -3.078213e-04  -3.454115e-03  0 
 -1.054972e-04  -3.452976e-03  0 
 1.064763e-04  -3.451052e-03  0 