# vtk DataFile Version 3.1
this is an vtk file created by FEMAC
ASCII
DATASET UNSTRUCTURED_GRID
POINTS 100 FLOAT
1.000000 3.000000 0.000000
1.000000 4.000000 0.000000
2.000000 3.000000 0.000000
2.000000 4.000000 0.000000
1.000000 3.111111 0.000000
1.000000 3.222222 0.000000
1.000000 3.333333 0.000000
1.000000 3.444444 0.000000
1.000000 3.555556 0.000000
1.000000 3.666667 0.000000
1.000000 3.777778 0.000000
1.000000 3.888889 0.000000
1.111111 3.000000 0.000000
1.222222 3.000000 0.000000
1.333333 3.000000 0.000000
1.444444 3.000000 0.000000
1.555556 3.000000 0.000000
1.666667 3.000000 0.000000
1.777778 3.000000 0.000000
1.888889 3.000000 0.000000
1.111111 4.000000 0.000000
1.222222 4.000000 0.000000
1.333333 4.000000 0.000000
1.444444 4.000000 0.000000
1.555556 4.000000 0.000000
1.666667 4.000000 0.000000
1.777778 4.000000 0.000000
1.888889 4.000000 0.000000
2.000000 3.111111 0.000000
2.000000 3.222222 0.000000
2.000000 3.333333 0.000000
2.000000 3.444444 0.000000
2.000000 3.555556 0.000000
2.000000 3.666667 0.000000
2.000000 3.777778 0.000000
2.000000 3.888889 0.000000
1.111111 3.111111 0.000000
1.111111 3.222222 0.000000
1.111111 3.333333 0.000000
1.111111 3.444444 0.000000
1.111111 3.555556 0.000000
1.111111 3.666667 0.000000
1.111111 3.777778 0.000000
1.111111 3.888889 0.000000
1.222222 3.111111 0.000000
1.222222 3.222222 0.000000
1.222222 3.333333 0.000000
1.222222 3.444444 0.000000
1.222222 3.555556 0.000000
1.222222 3.666667 0.000000
1.222222 3.777778 0.000000
1.222222 3.888889 0.000000
1.333333 3.111111 0.000000
1.333333 3.222222 0.000000
1.333333 3.333333 0.000000
1.333333 3.444444 0.000000
1.333333 3.555556 0.000000
1.333333 3.666667 0.000000
1.333333 3.777778 0.000000
1.333333 3.888889 0.000000
1.444444 3.111111 0.000000
1.444444 3.222222 0.000000
1.444444 3.333333 0.000000
1.444444 3.444444 0.000000
1.444444 3.555556 0.000000
1.444444 3.666667 0.000000
1.444444 3.777778 0.000000
1.444444 3.888889 0.000000
1.555556 3.111111 0.000000
1.555556 3.222222 0.000000
1.555556 3.333333 0.000000
1.555556 3.444444 0.000000
1.555556 3.555556 0.000000
1.555556 3.666667 0.000000
1.555556 3.777778 0.000000
1.555556 3.888889 0.000000
1.666667 3.111111 0.000000
1.666667 3.222222 0.000000
1.666667 3.333333 0.000000
1.666667 3.444444 0.000000
1.666667 3.555556 0.000000
1.666667 3.666667 0.000000
1.666667 3.777778 0.000000
1.666667 3.888889 0.000000
1.777778 3.111111 0.000000
1.777778 3.222222 0.000000
1.777778 3.333333 0.000000
1.777778 3.444444 0.000000
1.777778 3.555556 0.000000
1.777778 3.666667 0.000000
1.777778 3.777778 0.000000
1.777778 3.888889 0.000000
1.888889 3.111111 0.000000
1.888889 3.222222 0.000000
1.888889 3.333333 0.000000
1.888889 3.444444 0.000000
1.888889 3.555556 0.000000
1.888889 3.666667 0.000000
1.888889 3.777778 0.000000
1.888889 3.888889 0.000000
CELLS 81 405 
4 0 12 36  4
4 4 36 37  5
4 5 37 38  6
4 6 38 39  7
4 7 39 40  8
4 8 40 41  9
4 9 41 42 10
4 10 42 43 11
4 11 43 20  1
4 12 13 44 36
4 36 44 45 37
4 37 45 46 38
4 38 46 47 39
4 39 47 48 40
4 40 48 49 41
4 41 49 50 42
4 42 50 51 43
4 43 51 21 20
4 13 14 52 44
4 44 52 53 45
4 45 53 54 46
4 46 54 55 47
4 47 55 56 48
4 48 56 57 49
4 49 57 58 50
4 50 58 59 51
4 51 59 22 21
4 14 15 60 52
4 52 60 61 53
4 53 61 62 54
4 54 62 63 55
4 55 63 64 56
4 56 64 65 57
4 57 65 66 58
4 58 66 67 59
4 59 67 23 22
4 15 16 68 60
4 60 68 69 61
4 61 69 70 62
4 62 70 71 63
4 63 71 72 64
4 64 72 73 65
4 65 73 74 66
4 66 74 75 67
4 67 75 24 23
4 16 17 76 68
4 68 76 77 69
4 69 77 78 70
4 70 78 79 71
4 71 79 80 72
4 72 80 81 73
4 73 81 82 74
4 74 82 83 75
4 75 83 25 24
4 17 18 84 76
4 76 84 85 77
4 77 85 86 78
4 78 86 87 79
4 79 87 88 80
4 80 88 89 81
4 81 89 90 82
4 82 90 91 83
4 83 91 26 25
4 18 19 92 84
4 84 92 93 85
4 85 93 94 86
4 86 94 95 87
4 87 95 96 88
4 88 96 97 89
4 89 97 98 90
4 90 98 99 91
4 91 99 27 26
4 19  2 28 92
4 92 28 29 93
4 93 29 30 94
4 94 30 31 95
4 95 31 32 96
4 96 32 33 97
4 97 33 34 98
4 98 34 35 99
4 99 35  3 27
CELL_TYPES 81
9 9 9 9 9 9 9 9 9 9 9 9 9 9 9 9 9 9 9 9 9 9 9 9 9 9 9 9 9 9 9 9 9 9 9 9 9 9 9 9 9 9 9 9 9 9 9 9 9 9 9 9 9 9 9 9 9 9 9 9 9 9 9 9 9 9 9 9 9 9 9 9 9 9 9 9 9 9 9 9 9 
POINT_DATA 100
VECTORS displacement_ITER1 FLOAT
 6.255565e-05  -1.004143e-03  0 
 1.505676e-03  -9.437560e-04  0 
 2.036914e-04  -3.530691e-03  0 
 2.289933e-03  -3.759092e-03  0 
 2.237068e-04  -1.084153e-03  0 
 4.281944e-04  -1.113153e-03  0 
 6.423759e-04  -1.139073e-03  0 
 8.545252e-04  -1.152748e-03  0 
 1.059112e-03  -1.157760e-03  0 
 1.247878e-03  -1.150809e-03  0 
 1.410156e-03  -1.129035e-03  0 
 1.541579e-03  -1.086255e-03  0 
 -1.914293e-05  -1.312468e-03  0 
 -6.117558e-05  -1.580772e-03  0 
 -8.655847e-05  -1.852377e-03  0 
 -9.697946e-05  -2.123529e-03  0 
 -8.954861e-05  -2.394610e-03  0 
 -6.451003e-05  -2.664465e-03  0 
 -2.105286e-05  -2.934489e-03  0 
 4.588941e-05  -3.212835e-03  0 
 1.749165e-03  -1.252783e-03  0 
 1.871779e-03  -1.529718e-03  0 
 1.966031e-03  -1.801167e-03  0 
 2.038401e-03  -2.071490e-03  0 
 2.098699e-03  -2.349616e-03  0 
 2.149862e-03  -2.639781e-03  0 
 2.191072e-03  -2.958289e-03  0 
 2.234851e-03  -3.295500e-03  0 
 2.829953e-04  -3.419484e-03  0 
 4.579750e-04  -3.387532e-03  0 
 6.481671e-04  -3.379036e-03  0 
 8.568639e-04  -3.390551e-03  0 
 1.082607e-03  -3.421720e-03  0 
 1.331448e-03  -3.473285e-03  0 
 1.605330e-03  -3.540386e-03  0 
 1.898842e-03  -3.624659e-03  0 
 2.230454e-04  -1.310347e-03  0 
 4.327615e-04  -1.339348e-03  0 
 6.466987e-04  -1.357387e-03  0 
 8.569078e-04  -1.364281e-03  0 
 1.059092e-03  -1.358300e-03  0 
 1.247298e-03  -1.338329e-03  0 
 1.416377e-03  -1.302784e-03  0 
 1.550934e-03  -1.244840e-03  0 
 1.938832e-04  -1.579232e-03  0 
 4.280117e-04  -1.583855e-03  0 
 6.458945e-04  -1.591711e-03  0 
 8.565645e-04  -1.590475e-03  0 
 1.059242e-03  -1.577584e-03  0 
 1.252822e-03  -1.553518e-03  0 
 1.437441e-03  -1.522898e-03  0 
 1.637586e-03  -1.512549e-03  0 
 1.737541e-04  -1.848820e-03  0 
 4.157250e-04  -1.846638e-03  0 
 6.413145e-04  -1.843266e-03  0 
 8.551094e-04  -1.835028e-03  0 
 1.062407e-03  -1.819010e-03  0 
 1.267677e-03  -1.798148e-03  0 
 1.480849e-03  -1.783318e-03  0 
 1.712317e-03  -1.783929e-03  0 
 1.647269e-04  -2.121460e-03  0 
 4.083908e-04  -2.117068e-03  0 
 6.366733e-04  -2.109169e-03  0 
 8.541971e-04  -2.096785e-03  0 
 1.068202e-03  -2.080701e-03  0 
 1.287807e-03  -2.065302e-03  0 
 1.521151e-03  -2.056747e-03  0 
 1.772022e-03  -2.059122e-03  0 
 1.690191e-04  -2.395629e-03  0 
 4.101539e-04  -2.391981e-03  0 
 6.365455e-04  -2.382987e-03  0 
 8.544589e-04  -2.369711e-03  0 
 1.073550e-03  -2.355524e-03  0 
 1.303690e-03  -2.344250e-03  0 
 1.551095e-03  -2.338694e-03  0 
 1.817344e-03  -2.340040e-03  0 
 1.885468e-04  -2.669870e-03  0 
 4.225731e-04  -2.667633e-03  0 
 6.411313e-04  -2.657377e-03  0 
 8.548817e-04  -2.644039e-03  0 
 1.075753e-03  -2.634265e-03  0 
 1.311916e-03  -2.629545e-03  0 
 1.569589e-03  -2.628843e-03  0 
 1.849527e-03  -2.632708e-03  0 
 2.251142e-04  -2.943659e-03  0 
 4.429709e-04  -2.938028e-03  0 
 6.455097e-04  -2.920612e-03  0 
 8.543982e-04  -2.909952e-03  0 
 1.075765e-03  -2.908798e-03  0 
 1.314909e-03  -2.916553e-03  0 
 1.577954e-03  -2.929163e-03  0 
 1.872394e-03  -2.940636e-03  0 
 2.781614e-04  -3.218747e-03  0 
 4.538240e-04  -3.181098e-03  0 
 6.473518e-04  -3.162623e-03  0 
 8.540681e-04  -3.160245e-03  0 
 1.076784e-03  -3.172982e-03  0 
 1.319367e-03  -3.199109e-03  0 
 1.585091e-03  -3.236770e-03  0 
 1.882801e-03  -3.275591e-03  0 
VECTORS displacement_ITER2 FLOAT
 9.507817e-05  -7.876006e-04  0 
 1.042786e-03  -7.364570e-04  0 
 2.860820e-04  -2.925891e-03  0 
 1.935058e-03  -3.246050e-03  0 
 2.029041e-04  -8.953338e-04  0 
 3.591479e-04  -9.333573e-04  0 
 5.259095e-04  -9.556245e-04  0 
 6.903573e-04  -9.688265e-04  0 
 8.466486e-04  -9.737296e-04  0 
 9.876222e-04  -9.705928e-04  0 
 1.103129e-03  -9.519522e-04  0 
 1.171771e-03  -9.079892e-04  0 
 -1.025610e-06  -1.075494e-03  0 
 -4.457403e-05  -1.307152e-03  0 
 -6.773163e-05  -1.533880e-03  0 
 -7.635539e-05  -1.757914e-03  0 
 -6.920280e-05  -1.981155e-03  0 
 -4.279442e-05  -2.203615e-03  0 
 5.310640e-06  -2.427567e-03  0 
 8.966167e-05  -2.660244e-03  0 
 1.338211e-03  -1.015544e-03  0 
 1.479997e-03  -1.255407e-03  0 
 1.569280e-03  -1.485341e-03  0 
 1.636234e-03  -1.713885e-03  0 
 1.693113e-03  -1.945771e-03  0 
 1.750488e-03  -2.184645e-03  0 
 1.805759e-03  -2.451454e-03  0 
 1.873455e-03  -2.755586e-03  0 
 2.730470e-04  -2.810195e-03  0 
 3.852029e-04  -2.778189e-03  0 
 5.291938e-04  -2.772402e-03  0 
 6.948435e-04  -2.787672e-03  0 
 8.761702e-04  -2.821656e-03  0 
 1.074782e-03  -2.876219e-03  0 
 1.298444e-03  -2.952595e-03  0 
 1.553970e-03  -3.066485e-03  0 
 2.051773e-04  -1.072951e-03  0 
 3.645114e-04  -1.107117e-03  0 
 5.294389e-04  -1.127395e-03  0 
 6.921475e-04  -1.134406e-03  0 
 8.468281e-04  -1.129024e-03  0 
 9.869068e-04  -1.109245e-03  0 
 1.104354e-03  -1.070163e-03  0 
 1.180484e-03  -1.002250e-03  0 
 1.706831e-04  -1.302645e-03  0 
 3.596211e-04  -1.305888e-03  0 
 5.291589e-04  -1.314838e-03  0 
 6.917733e-04  -1.314467e-03  0 
 8.463387e-04  -1.301637e-03  0 
 9.903220e-04  -1.276417e-03  0 
 1.123557e-03  -1.243268e-03  0 
 1.277415e-03  -1.233953e-03  0 
 1.481537e-04  -1.528918e-03  0 
 3.452662e-04  -1.524931e-03  0 
 5.242895e-04  -1.520996e-03  0 
 6.902771e-04  -1.512882e-03  0 
 8.490962e-04  -1.496621e-03  0 
 1.005208e-03  -1.475447e-03  0 
 1.170102e-03  -1.462213e-03  0 
 1.356942e-03  -1.466864e-03  0 
 1.388830e-04  -1.755333e-03  0 
 3.370419e-04  -1.750486e-03  0 
 5.190603e-04  -1.742121e-03  0 
 6.891433e-04  -1.729300e-03  0 
 8.551717e-04  -1.712830e-03  0 
 1.027218e-03  -1.697905e-03  0 
 1.213748e-03  -1.691876e-03  0 
 1.417471e-03  -1.698411e-03  0 
 1.442559e-04  -1.982746e-03  0 
 3.396149e-04  -1.979882e-03  0 
 5.191424e-04  -1.970961e-03  0 
 6.892414e-04  -1.957253e-03  0 
 8.606845e-04  -1.942750e-03  0 
 1.044429e-03  -1.931650e-03  0 
 1.246180e-03  -1.927233e-03  0 
 1.464976e-03  -1.931572e-03  0 
 1.664233e-04  -2.211103e-03  0 
 3.542730e-04  -2.210139e-03  0 
 5.245429e-04  -2.199572e-03  0 
 6.895706e-04  -2.185731e-03  0 
 8.625358e-04  -2.176322e-03  0 
 1.052279e-03  -2.172087e-03  0 
 1.265603e-03  -2.170665e-03  0 
 1.500943e-03  -2.174083e-03  0 
 2.084852e-04  -2.440543e-03  0 
 3.769654e-04  -2.434642e-03  0 
 5.289838e-04  -2.414920e-03  0 
 6.891551e-04  -2.403933e-03  0 
 8.627292e-04  -2.404676e-03  0 
 1.054319e-03  -2.415007e-03  0 
 1.271712e-03  -2.428143e-03  0 
 1.526798e-03  -2.435453e-03  0 
 2.688316e-04  -2.670694e-03  0 
 3.864720e-04  -2.627452e-03  0 
 5.294432e-04  -2.606424e-03  0 
 6.897420e-04  -2.605163e-03  0 
 8.659454e-04  -2.621353e-03  0 
 1.059832e-03  -2.652276e-03  0 
 1.276396e-03  -2.695777e-03  0 
 1.533332e-03  -2.739383e-03  0 
VECTORS displacement_ITER3 FLOAT
 1.123480e-04  -7.715489e-04  0 
 8.037764e-04  -7.673910e-04  0 
 3.198709e-04  -2.726142e-03  0 
 1.803811e-03  -3.094124e-03  0 
 1.993098e-04  -8.875071e-04  0 
 3.335786e-04  -9.280340e-04  0 
 4.795638e-04  -9.480894e-04  0 
 6.250284e-04  -9.626459e-04  0 
 7.624035e-04  -9.712694e-04  0 
 8.829998e-04  -9.762924e-04  0 
 9.746295e-04  -9.698514e-04  0 
 1.006005e-03  -9.363638e-04  0 
 1.055052e-05  -1.048419e-03  0 
 -2.944023e-05  -1.261591e-03  0 
 -4.886650e-05  -1.466797e-03  0 
 -5.579980e-05  -1.668842e-03  0 
 -4.942438e-05  -1.870894e-03  0 
 -2.564669e-05  -2.073309e-03  0 
 2.035574e-05  -2.277466e-03  0 
 1.085325e-04  -2.488206e-03  0 
 1.138698e-03  -1.005346e-03  0 
 1.295576e-03  -1.216234e-03  0 
 1.389019e-03  -1.421169e-03  0 
 1.459733e-03  -1.626116e-03  0 
 1.520136e-03  -1.834641e-03  0 
 1.581544e-03  -2.051801e-03  0 
 1.647983e-03  -2.293059e-03  0 
 1.729529e-03  -2.586963e-03  0 
 2.692506e-04  -2.610399e-03  0 
 3.574896e-04  -2.583600e-03  0 
 4.816617e-04  -2.583947e-03  0 
 6.261960e-04  -2.602622e-03  0 
 7.866390e-04  -2.637387e-03  0 
 9.633593e-04  -2.691367e-03  0 
 1.166479e-03  -2.769366e-03  0 
 1.412573e-03  -2.892861e-03  0 
 2.020991e-04  -1.044864e-03  0 
 3.399866e-04  -1.080137e-03  0 
 4.843033e-04  -1.101733e-03  0 
 6.278690e-04  -1.110293e-03  0 
 7.633846e-04  -1.107704e-03  0 
 8.826141e-04  -1.091591e-03  0 
 9.738609e-04  -1.054914e-03  0 
 1.014127e-03  -9.858385e-04  0 
 1.665849e-04  -1.256833e-03  0 
 3.358067e-04  -1.259480e-03  0 
 4.851039e-04  -1.269189e-03  0 
 6.279285e-04  -1.270010e-03  0 
 7.623593e-04  -1.258270e-03  0 
 8.840101e-04  -1.233445e-03  0 
 9.910185e-04  -1.199631e-03  0 
 1.117140e-03  -1.191406e-03  0 
 1.447013e-04  -1.462662e-03  0 
 3.212609e-04  -1.458651e-03  0 
 4.802147e-04  -1.454774e-03  0 
 6.260017e-04  -1.446822e-03  0 
 7.639190e-04  -1.430281e-03  0 
 8.975565e-04  -1.408336e-03  0 
 1.038513e-03  -1.394864e-03  0 
 1.201060e-03  -1.400817e-03  0 
 1.361085e-04  -1.667440e-03  0 
 3.128165e-04  -1.663219e-03  0 
 4.742478e-04  -1.654918e-03  0 
 6.237977e-04  -1.641615e-03  0 
 7.689057e-04  -1.624146e-03  0 
 9.194720e-04  -1.608177e-03  0 
 1.083823e-03  -1.601914e-03  0 
 1.264601e-03  -1.609190e-03  0 
 1.413861e-04  -1.873353e-03  0 
 3.150544e-04  -1.871420e-03  0 
 4.734261e-04  -1.862757e-03  0 
 6.226212e-04  -1.848512e-03  0 
 7.734083e-04  -1.832890e-03  0 
 9.367920e-04  -1.820427e-03  0 
 1.118070e-03  -1.815019e-03  0 
 1.315075e-03  -1.819713e-03  0 
 1.628502e-04  -2.081075e-03  0 
 3.292181e-04  -2.080983e-03  0 
 4.778560e-04  -2.070690e-03  0 
 6.216910e-04  -2.056583e-03  0 
 7.741597e-04  -2.046503e-03  0 
 9.441753e-04  -2.040931e-03  0 
 1.138662e-03  -2.037425e-03  0 
 1.355136e-03  -2.039244e-03  0 
 2.045739e-04  -2.290676e-03  0 
 3.511492e-04  -2.285137e-03  0 
 4.810999e-04  -2.265517e-03  0 
 6.202967e-04  -2.255002e-03  0 
 7.734549e-04  -2.256025e-03  0 
 9.451467e-04  -2.265731e-03  0 
 1.144131e-03  -2.276769e-03  0 
 1.383824e-03  -2.280211e-03  0 
 2.657677e-04  -2.500026e-03  0 
 3.590983e-04  -2.456179e-03  0 
 4.806599e-04  -2.436748e-03  0 
 6.206602e-04  -2.437429e-03  0 
 7.763894e-04  -2.454649e-03  0 
 9.495624e-04  -2.485876e-03  0 
 1.146847e-03  -2.528965e-03  0 
 1.390082e-03  -2.571885e-03  0 
VECTORS displacement_ITER4 FLOAT
 3.710041e-05  -7.572374e-04  0 
 6.685941e-04  -7.846142e-04  0 
 2.424804e-04  -2.693754e-03  0 
 1.710650e-03  -3.091069e-03  0 
 1.194172e-04  -8.785748e-04  0 
 2.513988e-04  -9.216704e-04  0 
 3.944274e-04  -9.437699e-04  0 
 5.376648e-04  -9.598968e-04  0 
 6.728293e-04  -9.700039e-04  0 
 7.905311e-04  -9.764073e-04  0 
 8.764218e-04  -9.752884e-04  0 
 8.992932e-04  -9.490793e-04  0 
 -6.918798e-05  -1.038734e-03  0 
 -1.080032e-04  -1.252301e-03  0 
 -1.276211e-04  -1.455691e-03  0 
 -1.355879e-04  -1.654705e-03  0 
 -1.304632e-04  -1.853764e-03  0 
 -1.083542e-04  -2.053880e-03  0 
 -6.337840e-05  -2.256039e-03  0 
 2.611953e-05  -2.462099e-03  0 
 1.020865e-03  -1.004117e-03  0 
 1.181974e-03  -1.205991e-03  0 
 1.281347e-03  -1.408140e-03  0 
 1.356457e-03  -1.610096e-03  0 
 1.419464e-03  -1.816412e-03  0 
 1.479401e-03  -2.033592e-03  0 
 1.546172e-03  -2.273966e-03  0 
 1.631183e-03  -2.570405e-03  0 
 1.815234e-04  -2.577665e-03  0 
 2.689447e-04  -2.555315e-03  0 
 3.913716e-04  -2.558163e-03  0 
 5.336061e-04  -2.576375e-03  0 
 6.918331e-04  -2.610890e-03  0 
 8.662842e-04  -2.665732e-03  0 
 1.065002e-03  -2.747521e-03  0 
 1.310214e-03  -2.876007e-03  0 
 1.230711e-04  -1.034998e-03  0 
 2.579893e-04  -1.071836e-03  0 
 3.995113e-04  -1.094764e-03  0 
 5.404018e-04  -1.104568e-03  0 
 6.732326e-04  -1.102991e-03  0 
 7.893861e-04  -1.088019e-03  0 
 8.758665e-04  -1.052505e-03  0 
 9.063934e-04  -9.831901e-04  0 
 8.611803e-05  -1.247047e-03  0 
 2.532517e-04  -1.249425e-03  0 
 3.998387e-04  -1.259685e-03  0 
 5.398898e-04  -1.261118e-03  0 
 6.714121e-04  -1.249809e-03  0 
 7.896132e-04  -1.224951e-03  0 
 8.916102e-04  -1.190339e-03  0 
 1.011259e-03  -1.181560e-03  0 
 6.317099e-05  -1.450982e-03  0 
 2.374155e-04  -1.446683e-03  0 
 3.939059e-04  -1.442759e-03  0 
 5.369139e-04  -1.434893e-03  0 
 6.717572e-04  -1.418194e-03  0 
 8.018310e-04  -1.395595e-03  0 
 9.387537e-04  -1.381161e-03  0 
 1.096947e-03  -1.386472e-03  0 
 5.353192e-05  -1.653115e-03  0 
 2.277689e-04  -1.648782e-03  0 
 3.866648e-04  -1.640370e-03  0 
 5.334159e-04  -1.626880e-03  0 
 6.754482e-04  -1.609037e-03  0 
 8.227855e-04  -1.592468e-03  0 
 9.840186e-04  -1.585551e-03  0 
 1.162526e-03  -1.592490e-03  0 
 5.779701e-05  -1.856232e-03  0 
 2.289759e-04  -1.854323e-03  0 
 3.846916e-04  -1.845595e-03  0 
 5.310402e-04  -1.831231e-03  0 
 6.788784e-04  -1.815437e-03  0 
 8.394392e-04  -1.802733e-03  0 
 1.018349e-03  -1.797169e-03  0 
 1.213792e-03  -1.801930e-03  0 
 7.832666e-05  -2.061410e-03  0 
 2.422191e-04  -2.061212e-03  0 
 3.881940e-04  -2.050869e-03  0 
 5.292744e-04  -2.036905e-03  0 
 6.789397e-04  -2.027151e-03  0 
 8.463175e-04  -2.021889e-03  0 
 1.038815e-03  -2.018567e-03  0 
 1.254115e-03  -2.020692e-03  0 
 1.191444e-04  -2.268511e-03  0 
 2.631954e-04  -2.262636e-03  0 
 3.907065e-04  -2.242981e-03  0 
 5.276115e-04  -2.233005e-03  0 
 6.780674e-04  -2.234859e-03  0 
 8.469190e-04  -2.245487e-03  0 
 1.043678e-03  -2.257304e-03  0 
 1.282552e-03  -2.260904e-03  0 
 1.797973e-04  -2.474569e-03  0 
 2.699309e-04  -2.430410e-03  0 
 3.900419e-04  -2.411912e-03  0 
 5.281899e-04  -2.413300e-03  0 
 6.813656e-04  -2.431148e-03  0 
 8.513456e-04  -2.463895e-03  0 
 1.045715e-03  -2.508857e-03  0 
 1.287774e-03  -2.553749e-03  0 
VECTORS displacement_ITER5 FLOAT
 1.792025e-05  -7.589273e-04  0 
 6.074670e-04  -8.094410e-04  0 
 2.262599e-04  -2.677312e-03  0 
 1.670037e-03  -3.094096e-03  0 
 9.735944e-05  -8.850371e-04  0 
 2.274676e-04  -9.303721e-04  0 
 3.669518e-04  -9.549735e-04  0 
 5.065636e-04  -9.719498e-04  0 
 6.383741e-04  -9.827925e-04  0 
 7.538253e-04  -9.890494e-04  0 
 8.369359e-04  -9.901717e-04  0 
 8.561083e-04  -9.695857e-04  0 
 -9.026874e-05  -1.043705e-03  0 
 -1.279909e-04  -1.256891e-03  0 
 -1.476250e-04  -1.458339e-03  0 
 -1.559906e-04  -1.654962e-03  0 
 -1.511009e-04  -1.851659e-03  0 
 -1.291513e-04  -2.049648e-03  0 
 -8.393391e-05  -2.249992e-03  0 
 5.969191e-06  -2.451812e-03  0 
 9.696372e-04  -1.016500e-03  0 
 1.133065e-03  -1.211876e-03  0 
 1.235233e-03  -1.411194e-03  0 
 1.311971e-03  -1.610822e-03  0 
 1.376023e-03  -1.815745e-03  0 
 1.435599e-03  -2.031918e-03  0 
 1.502100e-03  -2.270340e-03  0 
 1.587952e-03  -2.565442e-03  0 
 1.563924e-04  -2.562161e-03  0 
 2.415899e-04  -2.542219e-03  0 
 3.621389e-04  -2.545191e-03  0 
 5.028342e-04  -2.562583e-03  0 
 6.589392e-04  -2.597010e-03  0 
 8.310990e-04  -2.652680e-03  0 
 1.025745e-03  -2.737280e-03  0 
 1.267305e-03  -2.869669e-03  0 
 1.018567e-04  -1.040259e-03  0 
 2.340450e-04  -1.078484e-03  0 
 3.723662e-04  -1.102429e-03  0 
 5.097546e-04  -1.113259e-03  0 
 6.394118e-04  -1.112488e-03  0 
 7.529273e-04  -1.098407e-03  0 
 8.368632e-04  -1.063836e-03  0 
 8.619624e-04  -9.944642e-04  0 
 6.413270e-05  -1.251582e-03  0 
 2.289858e-04  -1.254002e-03  0 
 3.725968e-04  -1.264795e-03  0 
 5.094944e-04  -1.266883e-03  0 
 6.379453e-04  -1.256271e-03  0 
 7.532254e-04  -1.231890e-03  0 
 8.518183e-04  -1.197094e-03  0 
 9.673418e-04  -1.187882e-03  0 
 4.074966e-05  -1.453539e-03  0 
 2.125903e-04  -1.449270e-03  0 
 3.663794e-04  -1.445527e-03  0 
 5.064139e-04  -1.438026e-03  0 
 6.381869e-04  -1.421676e-03  0 
 7.650743e-04  -1.399151e-03  0 
 8.986972e-04  -1.384437e-03  0 
 1.053557e-03  -1.389320e-03  0 
 3.081723e-05  -1.653376e-03  0 
 2.025797e-04  -1.649100e-03  0 
 3.587717e-04  -1.640781e-03  0 
 5.025842e-04  -1.627445e-03  0 
 6.415152e-04  -1.609749e-03  0 
 7.856976e-04  -1.593217e-03  0 
 9.438869e-04  -1.586224e-03  0 
 1.119849e-03  -1.593109e-03  0 
 3.489306e-05  -1.854147e-03  0 
 2.035466e-04  -1.852208e-03  0 
 3.564746e-04  -1.843460e-03  0 
 4.998528e-04  -1.829193e-03  0 
 6.446089e-04  -1.813597e-03  0 
 8.021359e-04  -1.801118e-03  0 
 9.782764e-04  -1.795818e-03  0 
 1.171451e-03  -1.800938e-03  0 
 5.530284e-05  -2.057019e-03  0 
 2.165067e-04  -2.056471e-03  0 
 3.597067e-04  -2.045958e-03  0 
 4.978966e-04  -2.032131e-03  0 
 6.445474e-04  -2.022818e-03  0 
 8.089251e-04  -2.018136e-03  0 
 9.987878e-04  -2.015381e-03  0 
 1.211990e-03  -2.018194e-03  0 
 9.571335e-05  -2.261511e-03  0 
 2.370226e-04  -2.255042e-03  0 
 3.619628e-04  -2.235072e-03  0 
 4.963373e-04  -2.225319e-03  0 
 6.439196e-04  -2.227839e-03  0 
 8.096568e-04  -2.239482e-03  0 
 1.003516e-03  -2.252389e-03  0 
 1.240371e-03  -2.256650e-03  0 
 1.559101e-04  -2.464430e-03  0 
 2.428972e-04  -2.419635e-03  0 
 3.611669e-04  -2.401123e-03  0 
 4.972299e-04  -2.402607e-03  0 
 6.478634e-04  -2.420938e-03  0 
 8.146885e-04  -2.455021e-03  0 
 1.005606e-03  -2.501887e-03  0 
 1.244771e-03  -2.548594e-03  0 
VECTORS displacement_ITER6 FLOAT
 2.074127e-05  -7.788728e-04  0 
 5.833741e-04  -8.559941e-04  0 
 2.289504e-04  -2.684719e-03  0 
 1.665476e-03  -3.116088e-03  0 
 1.000346e-04  -9.090172e-04  0 
 2.299359e-04  -9.565004e-04  0 
 3.675791e-04  -9.833251e-04  0 
 5.046539e-04  -1.001400e-03  0 
 6.337247e-04  -1.013544e-03  0 
 7.471954e-04  -1.020981e-03  0 
 8.281816e-04  -1.024406e-03  0 
 8.446215e-04  -1.009339e-03  0 
 -8.822290e-05  -1.067978e-03  0 
 -1.250490e-04  -1.281406e-03  0 
 -1.444714e-04  -1.481460e-03  0 
 -1.527457e-04  -1.676688e-03  0 
 -1.477797e-04  -1.871810e-03  0 
 -1.256977e-04  -2.068028e-03  0 
 -8.008668e-05  -2.266797e-03  0 
 9.133855e-06  -2.466059e-03  0 
 9.507348e-04  -1.049781e-03  0 
 1.116082e-03  -1.239164e-03  0 
 1.220506e-03  -1.434226e-03  0 
 1.298992e-03  -1.631358e-03  0 
 1.364598e-03  -1.834996e-03  0 
 1.425390e-03  -2.049806e-03  0 
 1.492561e-03  -2.287418e-03  0 
 1.580175e-03  -2.581903e-03  0 
 1.565293e-04  -2.573214e-03  0 
 2.406000e-04  -2.555868e-03  0 
 3.601553e-04  -2.559163e-03  0 
 4.996423e-04  -2.576770e-03  0 
 6.536766e-04  -2.611582e-03  0 
 8.240270e-04  -2.667390e-03  0 
 1.017382e-03  -2.752702e-03  0 
 1.258211e-03  -2.886901e-03  0 
 1.050323e-04  -1.064542e-03  0 
 2.362607e-04  -1.103786e-03  0 
 3.729190e-04  -1.128596e-03  0 
 5.081042e-04  -1.140431e-03  0 
 6.355552e-04  -1.140772e-03  0 
 7.470260e-04  -1.128071e-03  0 
 8.289541e-04  -1.095173e-03  0 
 8.500021e-04  -1.026929e-03  0 
 6.658233e-05  -1.275956e-03  0 
 2.306905e-04  -1.278324e-03  0 
 3.728311e-04  -1.289457e-03  0 
 5.079231e-04  -1.292094e-03  0 
 6.344273e-04  -1.282222e-03  0 
 7.476708e-04  -1.258610e-03  0 
 8.436571e-04  -1.224210e-03  0 
 9.554265e-04  -1.214956e-03  0 
 4.287601e-05  -1.476821e-03  0 
 2.136755e-04  -1.472512e-03  0 
 3.661505e-04  -1.468766e-03  0 
 5.045748e-04  -1.461433e-03  0 
 6.345259e-04  -1.445324e-03  0 
 7.592906e-04  -1.422919e-03  0 
 8.903228e-04  -1.408043e-03  0 
 1.042110e-03  -1.412570e-03  0 
 3.277986e-05  -1.675213e-03  0 
 2.032132e-04  -1.670925e-03  0 
 3.579875e-04  -1.662509e-03  0 
 5.002271e-04  -1.649076e-03  0 
 6.373899e-04  -1.631270e-03  0 
 7.795569e-04  -1.614531e-03  0 
 9.354814e-04  -1.607221e-03  0 
 1.109055e-03  -1.613807e-03  0 
 3.669653e-05  -1.874390e-03  0 
 2.037917e-04  -1.872411e-03  0 
 3.551258e-04  -1.863517e-03  0 
 4.968948e-04  -1.849088e-03  0 
 6.399608e-04  -1.833296e-03  0 
 7.956913e-04  -1.820545e-03  0 
 9.699805e-04  -1.814960e-03  0 
 1.161412e-03  -1.819922e-03  0 
 5.695827e-05  -2.075557e-03  0 
 2.162987e-04  -2.074845e-03  0 
 3.578302e-04  -2.064230e-03  0 
 4.944493e-04  -2.050387e-03  0 
 6.394904e-04  -2.041021e-03  0 
 8.022481e-04  -2.036181e-03  0 
 9.906470e-04  -2.033211e-03  0 
 1.202620e-03  -2.035988e-03  0 
 9.690121e-05  -2.277984e-03  0 
 2.362672e-04  -2.271352e-03  0 
 3.597449e-04  -2.251589e-03  0 
 4.926628e-04  -2.242108e-03  0 
 6.386620e-04  -2.244791e-03  0 
 8.028047e-04  -2.256498e-03  0 
 9.953497e-04  -2.269352e-03  0 
 1.231516e-03  -2.273458e-03  0 
 1.561395e-04  -2.478191e-03  0 
 2.417731e-04  -2.434014e-03  0 
 3.590022e-04  -2.416165e-03  0 
 4.936218e-04  -2.418102e-03  0 
 6.426005e-04  -2.436733e-03  0 
 8.077505e-04  -2.471047e-03  0 
 9.972283e-04  -2.518260e-03  0 
 1.235849e-03  -2.565234e-03  0 
VECTORS displacement_ITER7 FLOAT
 2.176841e-05  -7.884328e-04  0 
 5.701890e-04  -8.833025e-04  0 
 2.291862e-04  -2.689860e-03  0 
 1.665691e-03  -3.134588e-03  0 
 1.005284e-04  -9.211971e-04  0 
 2.301165e-04  -9.701353e-04  0 
 3.670323e-04  -9.983667e-04  0 
 5.031629e-04  -1.017070e-03  0 
 6.312229e-04  -1.029658e-03  0 
 7.439267e-04  -1.037641e-03  0 
 8.243087e-04  -1.042011e-03  0 
 8.389425e-04  -1.030933e-03  0 
 -8.875904e-05  -1.080642e-03  0 
 -1.255642e-04  -1.294899e-03  0 
 -1.449226e-04  -1.495120e-03  0 
 -1.530805e-04  -1.690485e-03  0 
 -1.479524e-04  -1.885274e-03  0 
 -1.255680e-04  -2.080556e-03  0 
 -7.926515e-05  -2.277994e-03  0 
 1.013747e-05  -2.475815e-03  0 
 9.400915e-04  -1.066863e-03  0 
 1.107704e-03  -1.253636e-03  0 
 1.213751e-03  -1.447265e-03  0 
 1.293203e-03  -1.644015e-03  0 
 1.359430e-03  -1.847483e-03  0 
 1.421025e-03  -2.061785e-03  0 
 1.488853e-03  -2.299739e-03  0 
 1.577870e-03  -2.594951e-03  0 
 1.545659e-04  -2.581164e-03  0 
 2.380398e-04  -2.565189e-03  0 
 3.575300e-04  -2.568964e-03  0 
 4.966418e-04  -2.587313e-03  0 
 6.499135e-04  -2.622869e-03  0 
 8.197042e-04  -2.679304e-03  0 
 1.013281e-03  -2.765320e-03  0 
 1.254558e-03  -2.901553e-03  0 
 1.056320e-04  -1.077172e-03  0 
 2.364880e-04  -1.117253e-03  0 
 3.724431e-04  -1.142749e-03  0 
 5.067060e-04  -1.155173e-03  0 
 6.332987e-04  -1.156044e-03  0 
 7.440325e-04  -1.143966e-03  0 
 8.252701e-04  -1.111925e-03  0 
 8.443425e-04  -1.044237e-03  0 
 6.653993e-05  -1.289416e-03  0 
 2.306401e-04  -1.291800e-03  0 
 3.722052e-04  -1.303192e-03  0 
 5.065378e-04  -1.306150e-03  0 
 6.322565e-04  -1.296638e-03  0 
 7.447163e-04  -1.273361e-03  0 
 8.395931e-04  -1.239013e-03  0 
 9.494093e-04  -1.229361e-03  0 
 4.252745e-05  -1.490494e-03  0 
 2.131631e-04  -1.486052e-03  0 
 3.651885e-04  -1.482224e-03  0 
 5.029610e-04  -1.474928e-03  0 
 6.321700e-04  -1.458892e-03  0 
 7.560559e-04  -1.436466e-03  0 
 8.859351e-04  -1.421382e-03  0 
 1.036414e-03  -1.425673e-03  0 
 3.224430e-05  -1.688802e-03  0 
 2.022900e-04  -1.684282e-03  0 
 3.565553e-04  -1.675645e-03  0 
 4.981804e-04  -1.662042e-03  0 
 6.346419e-04  -1.644093e-03  0 
 7.760117e-04  -1.627183e-03  0 
 9.310673e-04  -1.619713e-03  0 
 1.103797e-03  -1.626293e-03  0 
 3.598699e-05  -1.887589e-03  0 
 2.024829e-04  -1.885335e-03  0 
 3.531826e-04  -1.876173e-03  0 
 4.943262e-04  -1.861528e-03  0 
 6.367734e-04  -1.845565e-03  0 
 7.919041e-04  -1.832664e-03  0 
 9.656553e-04  -1.826996e-03  0 
 1.156669e-03  -1.832031e-03  0 
 5.615003e-05  -2.088010e-03  0 
 2.145993e-04  -2.087043e-03  0 
 3.553931e-04  -2.076228e-03  0 
 4.914177e-04  -2.062309e-03  0 
 6.359334e-04  -2.052925e-03  0 
 7.982543e-04  -2.048071e-03  0 
 9.863957e-04  -2.045080e-03  0 
 1.198264e-03  -2.047917e-03  0 
 9.594584e-05  -2.289262e-03  0 
 2.341464e-04  -2.282461e-03  0 
 3.569555e-04  -2.262806e-03  0 
 4.893487e-04  -2.253550e-03  0 
 6.348848e-04  -2.256458e-03  0 
 7.986473e-04  -2.268380e-03  0 
 9.910371e-04  -2.281378e-03  0 
 1.227486e-03  -2.285504e-03  0 
 1.545752e-04  -2.487663e-03  0 
 2.393664e-04  -2.443927e-03  0 
 3.561568e-04  -2.426620e-03  0 
 4.902878e-04  -2.429107e-03  0 
 6.387632e-04  -2.448240e-03  0 
 8.035436e-04  -2.482956e-03  0 
 9.928346e-04  -2.530718e-03  0 
 1.231881e-03  -2.578205e-03  0 
VECTORS displacement_ITER8 FLOAT
 2.454400e-05  -7.908124e-04  0 
 5.581333e-04  -9.000941e-04  0 
 2.282547e-04  -2.684719e-03  0 
 1.664375e-03  -3.139672e-03  0 
 1.024908e-04  -9.259065e-04  0 
 2.307671e-04  -9.762364e-04  0 
 3.662991e-04  -1.005302e-03  0 
 5.011572e-04  -1.024591e-03  0 
 6.281552e-04  -1.037593e-03  0 
 7.397176e-04  -1.046207e-03  0 
 8.193119e-04  -1.051349e-03  0 
 8.319319e-04  -1.042823e-03  0 
 -8.706026e-05  -1.084830e-03  0 
 -1.238575e-04  -1.299197e-03  0 
 -1.433171e-04  -1.498926e-03  0 
 -1.516335e-04  -1.693736e-03  0 
 -1.467007e-04  -1.887867e-03  0 
 -1.245285e-04  -2.082319e-03  0 
 -7.830646e-05  -2.278386e-03  0 
 1.108109e-05  -2.474726e-03  0 
 9.292911e-04  -1.075540e-03  0 
 1.099039e-03  -1.260173e-03  0 
 1.206012e-03  -1.452142e-03  0 
 1.286007e-03  -1.647647e-03  0 
 1.352647e-03  -1.849929e-03  0 
 1.415146e-03  -2.063453e-03  0 
 1.484118e-03  -2.301175e-03  0 
 1.574167e-03  -2.596659e-03  0 
 1.534607e-04  -2.578742e-03  0 
 2.365903e-04  -2.563790e-03  0 
 3.556604e-04  -2.567966e-03  0 
 4.939901e-04  -2.586631e-03  0 
 6.466944e-04  -2.622521e-03  0 
 8.159478e-04  -2.679615e-03  0 
 1.009271e-03  -2.766216e-03  0 
 1.250439e-03  -2.903874e-03  0 
 1.075302e-04  -1.081482e-03  0 
 2.372773e-04  -1.122247e-03  0 
 3.719492e-04  -1.148411e-03  0 
 5.049831e-04  -1.161412e-03  0 
 6.304656e-04  -1.162820e-03  0 
 7.401862e-04  -1.151331e-03  0 
 8.203752e-04  -1.120025e-03  0 
 8.377242e-04  -1.052994e-03  0 
 6.786220e-05  -1.293692e-03  0 
 2.312577e-04  -1.296148e-03  0 
 3.717598e-04  -1.307872e-03  0 
 5.049710e-04  -1.311245e-03  0 
 6.296131e-04  -1.302165e-03  0 
 7.410118e-04  -1.279300e-03  0 
 8.346299e-04  -1.245216e-03  0 
 9.425832e-04  -1.235509e-03  0 
 4.350918e-05  -1.494308e-03  0 
 2.134259e-04  -1.489844e-03  0 
 3.645695e-04  -1.486084e-03  0 
 5.013483e-04  -1.478980e-03  0 
 6.295304e-04  -1.463179e-03  0 
 7.523182e-04  -1.440939e-03  0 
 8.809059e-04  -1.425928e-03  0 
 1.029988e-03  -1.430340e-03  0 
 3.295793e-05  -1.691983e-03  0 
 2.022043e-04  -1.687383e-03  0 
 3.556172e-04  -1.678701e-03  0 
 4.963391e-04  -1.665125e-03  0 
 6.318503e-04  -1.647245e-03  0 
 7.722046e-04  -1.630392e-03  0 
 9.261763e-04  -1.622992e-03  0 
 1.097763e-03  -1.629720e-03  0 
 3.640608e-05  -1.890017e-03  0 
 2.020267e-04  -1.887616e-03  0 
 3.518660e-04  -1.878364e-03  0 
 4.921675e-04  -1.863699e-03  0 
 6.337688e-04  -1.847759e-03  0 