# vtk DataFile Version 3.1
this is an vtk file created by FEMAC
ASCII
DATASET UNSTRUCTURED_GRID
POINTS 100 FLOAT
3.000000 0.000000 0.000000
4.000000 0.000000 0.000000
3.000000 1.000000 0.000000
4.000000 1.000000 0.000000
3.111111 0.000000 0.000000
3.222222 0.000000 0.000000
3.333333 0.000000 0.000000
3.444444 0.000000 0.000000
3.555556 0.000000 0.000000
3.666667 0.000000 0.000000
3.777778 0.000000 0.000000
3.888889 0.000000 0.000000
3.000000 0.111111 0.000000
3.000000 0.222222 0.000000
3.000000 0.333333 0.000000
3.000000 0.444444 0.000000
3.000000 0.555556 0.000000
3.000000 0.666667 0.000000
3.000000 0.777778 0.000000
3.000000 0.888889 0.000000
3.111111 1.000000 0.000000
3.222222 1.000000 0.000000
3.333333 1.000000 0.000000
3.444444 1.000000 0.000000
3.555556 1.000000 0.000000
3.666667 1.000000 0.000000
3.777778 1.000000 0.000000
3.888889 1.000000 0.000000
4.000000 0.111111 0.000000
4.000000 0.222222 0.000000
4.000000 0.333333 0.000000
4.000000 0.444444 0.000000
4.000000 0.555556 0.000000
4.000000 0.666667 0.000000
4.000000 0.777778 0.000000
4.000000 0.888889 0.000000
3.111111 0.111111 0.000000
3.111111 0.222222 0.000000
3.111111 0.333333 0.000000
3.111111 0.444444 0.000000
3.111111 0.555556 0.000000
3.111111 0.666667 0.000000
3.111111 0.777778 0.000000
3.111111 0.888889 0.000000
3.222222 0.111111 0.000000
3.222222 0.222222 0.000000
3.222222 0.333333 0.000000
3.222222 0.444444 0.000000
3.222222 0.555556 0.000000
3.222222 0.666667 0.000000
3.222222 0.777778 0.000000
3.222222 0.888889 0.000000
3.333333 0.111111 0.000000
3.333333 0.222222 0.000000
3.333333 0.333333 0.000000
3.333333 0.444444 0.000000
3.333333 0.555556 0.000000
3.333333 0.666667 0.000000
3.333333 0.777778 0.000000
3.333333 0.888889 0.000000
3.444444 0.111111 0.000000
3.444444 0.222222 0.000000
3.444444 0.333333 0.000000
3.444444 0.444444 0.000000
3.444444 0.555556 0.000000
3.444444 0.666667 0.000000
3.444444 0.777778 0.000000
3.444444 0.888889 0.000000
3.555556 0.111111 0.000000
3.555556 0.222222 0.000000
3.555556 0.333333 0.000000
3.555556 0.444444 0.000000
3.555556 0.555556 0.000000
3.555556 0.666667 0.000000
3.555556 0.777778 0.000000
3.555556 0.888889 0.000000
3.666667 0.111111 0.000000
3.666667 0.222222 0.000000
3.666667 0.333333 0.000000
3.666667 0.444444 0.000000
3.666667 0.555556 0.000000
3.666667 0.666667 0.000000
3.666667 0.777778 0.000000
3.666667 0.888889 0.000000
3.777778 0.111111 0.000000
3.777778 0.222222 0.000000
3.777778 0.333333 0.000000
3.777778 0.444444 0.000000
3.777778 0.555556 0.000000
3.777778 0.666667 0.000000
3.777778 0.777778 0.000000
3.777778 0.888889 0.000000
3.888889 0.111111 0.000000
3.888889 0.222222 0.000000
3.888889 0.333333 0.000000
3.888889 0.444444 0.000000
3.888889 0.555556 0.000000
3.888889 0.666667 0.000000
3.888889 0.777778 0.000000
3.888889 0.888889 0.000000
CELLS 81 405 
4 0  4 36 12
4 12 36 37 13
4 13 37 38 14
4 14 38 39 15
4 15 39 40 16
4 16 40 41 17
4 17 41 42 18
4 18 42 43 19
4 19 43 20  2
4 4  5 44 36
4 36 44 45 37
4 37 45 46 38
4 38 46 47 39
4 39 47 48 40
4 40 48 49 41
4 41 49 50 42
4 42 50 51 43
4 43 51 21 20
4 5  6 52 44
4 44 52 53 45
4 45 53 54 46
4 46 54 55 47
4 47 55 56 48
4 48 56 57 49
4 49 57 58 50
4 50 58 59 51
4 51 59 22 21
4 6  7 60 52
4 52 60 61 53
4 53 61 62 54
4 54 62 63 55
4 55 63 64 56
4 56 64 65 57
4 57 65 66 58
4 58 66 67 59
4 59 67 23 22
4 7  8 68 60
4 60 68 69 61
4 61 69 70 62
4 62 70 71 63
4 63 71 72 64
4 64 72 73 65
4 65 73 74 66
4 66 74 75 67
4 67 75 24 23
4 8  9 76 68
4 68 76 77 69
4 69 77 78 70
4 70 78 79 71
4 71 79 80 72
4 72 80 81 73
4 73 81 82 74
4 74 82 83 75
4 75 83 25 24
4 9 10 84 76
4 76 84 85 77
4 77 85 86 78
4 78 86 87 79
4 79 87 88 80
4 80 88 89 81
4 81 89 90 82
4 82 90 91 83
4 83 91 26 25
4 10 11 92 84
4 84 92 93 85
4 85 93 94 86
4 86 94 95 87
4 87 95 96 88
4 88 96 97 89
4 89 97 98 90
4 90 98 99 91
4 91 99 27 26
4 11  1 28 92
4 92 28 29 93
4 93 29 30 94
4 94 30 31 95
4 95 31 32 96
4 96 32 33 97
4 97 33 34 98
4 98 34 35 99
4 99 35  3 27
CELL_TYPES 81
9 9 9 9 9 9 9 9 9 9 9 9 9 9 9 9 9 9 9 9 9 9 9 9 9 9 9 9 9 9 9 9 9 9 9 9 9 9 9 9 9 9 9 9 9 9 9 9 9 9 9 9 9 9 9 9 9 9 9 9 9 9 9 9 9 9 9 9 9 9 9 9 9 9 9 9 9 9 9 9 9 
POINT_DATA 100
VECTORS displacement_ITER1 FLOAT
 -9.423338e-03  -1.006325e-02  0 
 -1.181787e-02  -1.282016e-02  0 
 -5.461103e-03  -8.439240e-03  0 
 -7.014621e-03  -1.288683e-02  0 
 -9.592265e-03  -9.980795e-03  0 
 -9.888748e-03  -1.041893e-02  0 
 -1.013035e-02  -1.088514e-02  0 
 -1.035150e-02  -1.131787e-02  0 
 -1.058008e-02  -1.170503e-02  0 
 -1.082956e-02  -1.205163e-02  0 
 -1.110882e-02  -1.236250e-02  0 
 -1.142986e-02  -1.263793e-02  0 
 -8.519098e-03  -8.989331e-03  0 
 -8.367393e-03  -8.889745e-03  0 
 -8.350884e-03  -9.336627e-03  0 
 -7.980742e-03  -9.574305e-03  0 
 -7.310195e-03  -9.449350e-03  0 
 -6.481087e-03  -9.251258e-03  0 
 -5.963749e-03  -9.341963e-03  0 
 -6.364390e-03  -8.595049e-03  0 
 -6.567799e-03  -8.942414e-03  0 
 -7.014425e-03  -8.937384e-03  0 
 -6.727025e-03  -9.665332e-03  0 
 -6.684588e-03  -1.047114e-02  0 
 -6.835438e-03  -1.091598e-02  0 
 -6.783681e-03  -1.085879e-02  0 
 -7.182856e-03  -1.076507e-02  0 
 -7.156918e-03  -1.130101e-02  0 
 -1.155786e-02  -1.274933e-02  0 
 -1.105071e-02  -1.273072e-02  0 
 -1.054292e-02  -1.274578e-02  0 
 -1.002229e-02  -1.270917e-02  0 
 -9.531281e-03  -1.270182e-02  0 
 -9.132412e-03  -1.263399e-02  0 
 -8.825287e-03  -1.271497e-02  0 
 -8.247457e-03  -1.280484e-02  0 
 -9.197427e-03  -9.866596e-03  0 
 -8.638279e-03  -9.643552e-03  0 
 -8.292984e-03  -9.683178e-03  0 
 -7.976988e-03  -9.813430e-03  0 
 -7.515105e-03  -9.838971e-03  0 
 -6.966000e-03  -9.702540e-03  0 
 -6.686590e-03  -9.333975e-03  0 
 -6.517784e-03  -9.158738e-03  0 
 -9.437761e-03  -1.033845e-02  0 
 -8.969298e-03  -1.025197e-02  0 
 -8.510732e-03  -1.016672e-02  0 
 -8.118744e-03  -1.014364e-02  0 
 -7.739439e-03  -1.010129e-02  0 
 -7.391917e-03  -9.933098e-03  0 
 -7.085533e-03  -9.686087e-03  0 
 -6.872203e-03  -9.367654e-03  0 
 -9.683222e-03  -1.080937e-02  0 
 -9.240125e-03  -1.071836e-02  0 
 -8.800182e-03  -1.061550e-02  0 
 -8.385363e-03  -1.050425e-02  0 
 -8.018275e-03  -1.037632e-02  0 
 -7.688380e-03  -1.021510e-02  0 
 -7.399404e-03  -1.001518e-02  0 
 -7.163764e-03  -9.776153e-03  0 
 -9.938475e-03  -1.123746e-02  0 
 -9.521166e-03  -1.113426e-02  0 
 -9.104422e-03  -1.101134e-02  0 
 -8.697190e-03  -1.086713e-02  0 
 -8.307556e-03  -1.070531e-02  0 
 -7.937949e-03  -1.053625e-02  0 
 -7.587525e-03  -1.038749e-02  0 
 -7.222024e-03  -1.035699e-02  0 
 -1.020466e-02  -1.161905e-02  0 
 -9.815066e-03  -1.150829e-02  0 
 -9.416965e-03  -1.137950e-02  0 
 -9.012133e-03  -1.123505e-02  0 
 -8.597139e-03  -1.107590e-02  0 
 -8.164009e-03  -1.091241e-02  0 
 -7.701146e-03  -1.078588e-02  0 
 -7.203469e-03  -1.075852e-02  0 
 -1.048693e-02  -1.195880e-02  0 
 -1.011805e-02  -1.184588e-02  0 
 -9.726120e-03  -1.172637e-02  0 
 -9.314647e-03  -1.160726e-02  0 
 -8.880079e-03  -1.148170e-02  0 
 -8.402722e-03  -1.133842e-02  0 
 -7.863480e-03  -1.117753e-02  0 
 -7.308253e-03  -1.101808e-02  0 
 -1.079391e-02  -1.226161e-02  0 
 -1.043138e-02  -1.215093e-02  0 
 -1.002270e-02  -1.205490e-02  0 
 -9.587618e-03  -1.197595e-02  0 
 -9.144147e-03  -1.190280e-02  0 
 -8.676467e-03  -1.179961e-02  0 
 -8.146772e-03  -1.160964e-02  0 
 -7.551898e-03  -1.128374e-02  0 
 -1.114269e-02  -1.252246e-02  0 
 -1.075502e-02  -1.243404e-02  0 
 -1.029552e-02  -1.238089e-02  0 
 -9.822385e-03  -1.234219e-02  0 
 -9.362832e-03  -1.230429e-02  0 
 -8.946016e-03  -1.226785e-02  0 
 -8.515352e-03  -1.213581e-02  0 
 -7.950662e-03  -1.181113e-02  0 
VECTORS displacement_ITER2 FLOAT
 -7.711634e-03  -7.539791e-03  0 
 -9.356888e-03  -1.019544e-02  0 
 -4.859427e-03  -7.135700e-03  0 
 -5.714191e-03  -9.978131e-03  0 
 -7.553546e-03  -7.884887e-03  0 
 -7.718181e-03  -8.178951e-03  0 
 -7.874155e-03  -8.537841e-03  0 
 -8.015932e-03  -8.879984e-03  0 
 -8.173913e-03  -9.181815e-03  0 
 -8.369419e-03  -9.451288e-03  0 
 -8.621286e-03  -9.708147e-03  0 
 -8.947819e-03  -9.984996e-03  0 
 -6.615207e-03  -7.190135e-03  0 
 -6.652617e-03  -6.984849e-03  0 
 -6.389247e-03  -7.005065e-03  0 
 -5.837308e-03  -7.173746e-03  0 
 -5.348847e-03  -7.265770e-03  0 
 -5.029126e-03  -7.216808e-03  0 
 -4.459179e-03  -6.967521e-03  0 
 -4.268029e-03  -6.888357e-03  0 
 -4.851700e-03  -6.462698e-03  0 
 -4.681494e-03  -6.769441e-03  0 
 -4.761459e-03  -7.533049e-03  0 
 -4.966052e-03  -7.974467e-03  0 
 -5.007149e-03  -8.257711e-03  0 
 -4.882806e-03  -8.456371e-03  0 
 -5.069451e-03  -8.787147e-03  0 
 -5.194621e-03  -9.319202e-03  0 
 -8.955784e-03  -1.021990e-02  0 
 -8.447250e-03  -1.007038e-02  0 
 -8.033358e-03  -9.917412e-03  0 
 -7.652587e-03  -9.787493e-03  0 
 -7.259477e-03  -9.791374e-03  0 
 -6.845186e-03  -9.870469e-03  0 
 -6.397267e-03  -1.009125e-02  0 
 -5.826573e-03  -1.021516e-02  0 
 -7.193176e-03  -7.734471e-03  0 
 -6.770339e-03  -7.531911e-03  0 
 -6.386292e-03  -7.539095e-03  0 
 -5.960274e-03  -7.563226e-03  0 
 -5.571546e-03  -7.520945e-03  0 
 -5.221209e-03  -7.427713e-03  0 
 -4.883138e-03  -7.241684e-03  0 
 -4.657254e-03  -6.891684e-03  0 
 -7.370348e-03  -8.118051e-03  0 
 -6.965595e-03  -8.040007e-03  0 
 -6.542928e-03  -7.963343e-03  0 
 -6.157142e-03  -7.898169e-03  0 
 -5.799861e-03  -7.804303e-03  0 
 -5.479415e-03  -7.665305e-03  0 
 -5.217918e-03  -7.451798e-03  0 
 -5.022726e-03  -7.129286e-03  0 
 -7.517878e-03  -8.488322e-03  0 
 -7.146387e-03  -8.421831e-03  0 
 -6.761491e-03  -8.331589e-03  0 
 -6.388492e-03  -8.219850e-03  0 
 -6.042741e-03  -8.087169e-03  0 
 -5.730908e-03  -7.924485e-03  0 
 -5.461434e-03  -7.741415e-03  0 
 -5.191003e-03  -7.592089e-03  0 
 -7.685809e-03  -8.824394e-03  0 
 -7.341512e-03  -8.748122e-03  0 
 -6.987683e-03  -8.650611e-03  0 
 -6.632938e-03  -8.528667e-03  0 
 -6.286360e-03  -8.383089e-03  0 
 -5.949419e-03  -8.222084e-03  0 
 -5.610245e-03  -8.075641e-03  0 
 -5.261445e-03  -8.001158e-03  0 
 -7.873991e-03  -9.118080e-03  0 
 -7.550620e-03  -9.036182e-03  0 
 -7.214361e-03  -8.940297e-03  0 
 -6.870709e-03  -8.827640e-03  0 
 -6.519091e-03  -8.696368e-03  0 
 -6.149403e-03  -8.552732e-03  0 
 -5.748541e-03  -8.413235e-03  0 
 -5.328904e-03  -8.289893e-03  0 
 -8.085223e-03  -9.377012e-03  0 
 -7.767539e-03  -9.293749e-03  0 
 -7.433441e-03  -9.208262e-03  0 
 -7.091689e-03  -9.118344e-03  0 
 -6.737816e-03  -9.016631e-03  0 
 -6.353786e-03  -8.900681e-03  0 
 -5.921239e-03  -8.765728e-03  0 
 -5.444032e-03  -8.613687e-03  0 
 -8.327945e-03  -9.618760e-03  0 
 -7.990208e-03  -9.531302e-03  0 
 -7.636472e-03  -9.459472e-03  0 
 -7.289980e-03  -9.391205e-03  0 
 -6.941244e-03  -9.324339e-03  0 
 -6.559638e-03  -9.251303e-03  0 
 -6.121155e-03  -9.160995e-03  0 
 -5.599703e-03  -9.018719e-03  0 
 -8.621385e-03  -9.862694e-03  0 
 -8.213292e-03  -9.778764e-03  0 
 -7.825035e-03  -9.696935e-03  0 
 -7.470546e-03  -9.627772e-03  0 
 -7.118937e-03  -9.587869e-03  0 
 -6.742945e-03  -9.592389e-03  0 
 -6.298725e-03  -9.589789e-03  0 
 -5.802029e-03  -9.549120e-03  0 
VECTORS displacement_ITER3 FLOAT
 -6.746395e-03  -6.922111e-03  0 
 -8.235553e-03  -9.156940e-03  0 
 -3.664083e-03  -6.096221e-03  0 
 -5.047547e-03  -8.889147e-03  0 
 -6.681721e-03  -7.226308e-03  0 
 -6.823570e-03  -7.498677e-03  0 
 -6.946244e-03  -7.822205e-03  0 
 -7.051049e-03  -8.128274e-03  0 
 -7.167157e-03  -8.391793e-03  0 
 -7.314281e-03  -8.613983e-03  0 
 -7.511300e-03  -8.804028e-03  0 
 -7.792999e-03  -8.985815e-03  0 
 -5.970876e-03  -6.698661e-03  0 
 -5.934258e-03  -6.516637e-03  0 
 -5.623468e-03  -6.381411e-03  0 
 -5.078508e-03  -6.430382e-03  0 
 -4.663633e-03  -6.627228e-03  0 
 -4.455720e-03  -6.763736e-03  0 
 -4.058506e-03  -6.630948e-03  0 
 -3.762713e-03  -6.478506e-03  0 
 -4.029037e-03  -6.247148e-03  0 
 -4.221229e-03  -6.515192e-03  0 
 -4.418595e-03  -6.799403e-03  0 
 -4.462218e-03  -7.003570e-03  0 
 -4.356160e-03  -7.338858e-03  0 
 -4.240573e-03  -7.796887e-03  0 
 -4.337244e-03  -8.277237e-03  0 
 -4.699221e-03  -8.447450e-03  0 
 -7.785917e-03  -9.161179e-03  0 
 -7.400172e-03  -9.050992e-03  0 
 -7.075891e-03  -8.979024e-03  0 
 -6.725420e-03  -8.958286e-03  0 
 -6.328810e-03  -8.954917e-03  0 
 -5.906623e-03  -8.992596e-03  0 
 -5.495071e-03  -9.028954e-03  0 
 -5.215957e-03  -9.029984e-03  0 
 -6.375020e-03  -7.109559e-03  0 
 -6.027539e-03  -6.950849e-03  0 
 -5.658862e-03  -6.929750e-03  0 
 -5.216754e-03  -6.924899e-03  0 
 -4.836807e-03  -6.898911e-03  0 
 -4.563767e-03  -6.871006e-03  0 
 -4.322986e-03  -6.790128e-03  0 
 -4.124520e-03  -6.558231e-03  0 
 -6.513867e-03  -7.448478e-03  0 
 -6.161210e-03  -7.387404e-03  0 
 -5.776352e-03  -7.328190e-03  0 
 -5.400526e-03  -7.267083e-03  0 
 -5.054727e-03  -7.177289e-03  0 
 -4.765684e-03  -7.065553e-03  0 
 -4.546483e-03  -6.923714e-03  0 
 -4.386914e-03  -6.739160e-03  0 
 -6.627876e-03  -7.783136e-03  0 
 -6.296513e-03  -7.729954e-03  0 
 -5.948752e-03  -7.656579e-03  0 
 -5.604393e-03  -7.558914e-03  0 
 -5.280696e-03  -7.435479e-03  0 
 -4.989819e-03  -7.284200e-03  0 
 -4.742712e-03  -7.114412e-03  0 
 -4.542112e-03  -6.948030e-03  0 
 -6.759097e-03  -8.084051e-03  0 
 -6.453758e-03  -8.018938e-03  0 
 -6.137540e-03  -7.933565e-03  0 
 -5.818302e-03  -7.824436e-03  0 
 -5.505863e-03  -7.689737e-03  0 
 -5.205770e-03  -7.530292e-03  0 
 -4.918095e-03  -7.352321e-03  0 
 -4.652461e-03  -7.169918e-03  0 
 -6.910871e-03  -8.339677e-03  0 
 -6.630716e-03  -8.266244e-03  0 
 -6.333944e-03  -8.177487e-03  0 
 -6.028187e-03  -8.072684e-03  0 
 -5.719252e-03  -7.949044e-03  0 
 -5.406664e-03  -7.805447e-03  0 
 -5.083945e-03  -7.643460e-03  0 
 -4.739123e-03  -7.468001e-03  0 
 -7.086958e-03  -8.552932e-03  0 
 -6.821441e-03  -8.478589e-03  0 
 -6.529731e-03  -8.398253e-03  0 
 -6.224327e-03  -8.310285e-03  0 
 -5.911366e-03  -8.211953e-03  0 
 -5.585227e-03  -8.104132e-03  0 
 -5.230158e-03  -7.987975e-03  0 
 -4.815507e-03  -7.876637e-03  0 
 -7.293933e-03  -8.733040e-03  0 
 -7.019980e-03  -8.666476e-03  0 
 -6.716038e-03  -8.606379e-03  0 
 -6.402841e-03  -8.538815e-03  0 
 -6.076498e-03  -8.470975e-03  0 
 -5.731314e-03  -8.412027e-03  0 
 -5.352129e-03  -8.360742e-03  0 
 -4.900319e-03  -8.310685e-03  0 
 -7.539728e-03  -8.895443e-03  0 
 -7.208717e-03  -8.856716e-03  0 
 -6.894487e-03  -8.806632e-03  0 
 -6.567885e-03  -8.754325e-03  0 
 -6.214898e-03  -8.719690e-03  0 
 -5.837898e-03  -8.707302e-03  0 
 -5.448991e-03  -8.718136e-03  0 
 -5.053737e-03  -8.693695e-03  0 
VECTORS displacement_ITER4 FLOAT
 -6.479370e-03  -6.615683e-03  0 
 -7.632734e-03  -8.661652e-03  0 
 -3.645450e-03  -6.045875e-03  0 
 -4.386876e-03  -8.709415e-03  0 
 -6.472228e-03  -7.043684e-03  0 
 -6.533611e-03  -7.373215e-03  0 
 -6.608360e-03  -7.675328e-03  0 
 -6.698344e-03  -7.942752e-03  0 
 -6.809893e-03  -8.177180e-03  0 
 -6.946852e-03  -8.381204e-03  0 
 -7.111917e-03  -8.551333e-03  0 
 -7.316036e-03  -8.669398e-03  0 
 -5.927125e-03  -6.585208e-03  0 
 -5.612599e-03  -6.503401e-03  0 
 -5.237543e-03  -6.464338e-03  0 
 -4.894315e-03  -6.437627e-03  0 
 -4.595373e-03  -6.434236e-03  0 
 -4.318572e-03  -6.466483e-03  0 
 -3.981023e-03  -6.400184e-03  0 
 -3.663577e-03  -6.329999e-03  0 
 -3.923968e-03  -6.122329e-03  0 
 -4.153522e-03  -6.403727e-03  0 
 -4.223900e-03  -6.690182e-03  0 
 -4.281627e-03  -6.996638e-03  0 
 -4.370082e-03  -7.309560e-03  0 
 -4.304007e-03  -7.565513e-03  0 
 -4.253843e-03  -7.749314e-03  0 
 -4.343710e-03  -7.916985e-03  0 
 -7.438829e-03  -8.697958e-03  0 
 -7.124532e-03  -8.744863e-03  0 
 -6.751506e-03  -8.775803e-03  0 
 -6.354394e-03  -8.767715e-03  0 
 -5.971787e-03  -8.694656e-03  0 
 -5.619331e-03  -8.626199e-03  0 
 -5.295451e-03  -8.566215e-03  0 
 -4.991365e-03  -8.609284e-03  0 
 -6.101320e-03  -6.990944e-03  0 
 -5.731893e-03  -6.917180e-03  0 
 -5.381455e-03  -6.858066e-03  0 
 -5.045825e-03  -6.799933e-03  0 
 -4.734017e-03  -6.749493e-03  0 
 -4.452079e-03  -6.696158e-03  0 
 -4.192012e-03  -6.612659e-03  0 
 -4.012770e-03  -6.417490e-03  0 
 -6.208857e-03  -7.336896e-03  0 
 -5.870557e-03  -7.272711e-03  0 
 -5.534219e-03  -7.194799e-03  0 
 -5.210878e-03  -7.112828e-03  0 
 -4.907872e-03  -7.024585e-03  0 
 -4.636922e-03  -6.923483e-03  0 
 -4.416691e-03  -6.784888e-03  0 
 -4.254423e-03  -6.600660e-03  0 
 -6.316025e-03  -7.636432e-03  0 
 -6.010327e-03  -7.570992e-03  0 
 -5.697592e-03  -7.484535e-03  0 
 -5.388635e-03  -7.383311e-03  0 
 -5.095142e-03  -7.269771e-03  0 
 -4.831634e-03  -7.140948e-03  0 
 -4.608607e-03  -6.995748e-03  0 
 -4.415846e-03  -6.836513e-03  0 
 -6.437681e-03  -7.897998e-03  0 
 -6.159536e-03  -7.826586e-03  0 
 -5.869036e-03  -7.733678e-03  0 
 -5.573376e-03  -7.623527e-03  0 
 -5.282420e-03  -7.498906e-03  0 
 -5.007150e-03  -7.364050e-03  0 
 -4.755932e-03  -7.229659e-03  0 
 -4.527915e-03  -7.111464e-03  0 
 -6.578402e-03  -8.125251e-03  0 
 -6.323460e-03  -8.047633e-03  0 
 -6.048107e-03  -7.952188e-03  0 
 -5.757962e-03  -7.844674e-03  0 
 -5.460422e-03  -7.726391e-03  0 
 -5.161490e-03  -7.598642e-03  0 
 -4.867599e-03  -7.472656e-03  0 
 -4.590526e-03  -7.371102e-03  0 
 -6.743437e-03  -8.321212e-03  0 
 -6.505688e-03  -8.239015e-03  0 
 -6.232806e-03  -8.148381e-03  0 
 -5.934225e-03  -8.056310e-03  0 
 -5.623037e-03  -7.959806e-03  0 
 -5.302864e-03  -7.851530e-03  0 
 -4.968452e-03  -7.728616e-03  0 
 -4.629434e-03  -7.612156e-03  0 
 -6.941153e-03  -8.483756e-03  0 
 -6.709507e-03  -8.404948e-03  0 
 -6.417594e-03  -8.334499e-03  0 
 -6.093903e-03  -8.268113e-03  0 
 -5.761865e-03  -8.199603e-03  0 
 -5.431618e-03  -8.121565e-03  0 
 -5.085563e-03  -8.016146e-03  0 
 -4.685204e-03  -7.873932e-03  0 
 -7.184419e-03  -8.598602e-03  0 
 -6.923945e-03  -8.562426e-03  0 
 -6.594405e-03  -8.533533e-03  0 
 -6.231991e-03  -8.494964e-03  0 
 -5.873341e-03  -8.445798e-03  0 
 -5.535102e-03  -8.385687e-03  0 
 -5.210993e-03  -8.324245e-03  0 
 -4.834914e-03  -8.206114e-03  0 
VECTORS displacement_ITER5 FLOAT
 -6.350315e-03  -6.420413e-03  0 
 -7.619974e-03  -8.663236e-03  0 
 -3.583530e-03  -6.136394e-03  0 
 -4.419730e-03  -8.444722e-03  0 
 -6.445445e-03  -6.837155e-03  0 
 -6.491704e-03  -7.225704e-03  0 
 -6.546456e-03  -7.545067e-03  0 
 -6.621227e-03  -7.815022e-03  0 
 -6.717403e-03  -8.046331e-03  0 
 -6.840604e-03  -8.242049e-03  0 
 -7.003876e-03  -8.403860e-03  0 
 -7.236340e-03  -8.536067e-03  0 
 -5.961593e-03  -6.363553e-03  0 
 -5.521495e-03  -6.369702e-03  0 
 -5.174580e-03  -6.425445e-03  0 
 -4.920697e-03  -6.371662e-03  0 
 -4.619512e-03  -6.263716e-03  0 
 -4.222516e-03  -6.219243e-03  0 
 -3.869887e-03  -6.249832e-03  0 
 -3.568175e-03  -6.260212e-03  0 
 -3.795706e-03  -6.135047e-03  0 
 -4.014257e-03  -6.329253e-03  0 
 -4.054503e-03  -6.559333e-03  0 
 -4.104027e-03  -6.855245e-03  0 
 -4.205087e-03  -7.167392e-03  0 
 -4.205275e-03  -7.448174e-03  0 
 -4.172906e-03  -7.678768e-03  0 
 -4.277850e-03  -7.964138e-03  0 
 -7.293905e-03  -8.606670e-03  0 
 -6.945119e-03  -8.594921e-03  0 
 -6.588562e-03  -8.591873e-03  0 
 -6.251829e-03  -8.597134e-03  0 
 -5.923683e-03  -8.590593e-03  0 
 -5.578257e-03  -8.593689e-03  0 
 -5.198468e-03  -8.562060e-03  0 
 -4.807068e-03  -8.509906e-03  0 
 -6.041011e-03  -6.821431e-03  0 
 -5.654797e-03  -6.789475e-03  0 
 -5.323967e-03  -6.731225e-03  0 
 -5.036106e-03  -6.674229e-03  0 
 -4.720256e-03  -6.625172e-03  0 
 -4.372997e-03  -6.567764e-03  0 
 -4.058820e-03  -6.488622e-03  0 
 -3.869003e-03  -6.351222e-03  0 
 -6.139024e-03  -7.195132e-03  0 
 -5.798355e-03  -7.135511e-03  0 
 -5.476460e-03  -7.059577e-03  0 
 -5.164846e-03  -6.985042e-03  0 
 -4.853485e-03  -6.912771e-03  0 
 -4.548638e-03  -6.820635e-03  0 
 -4.284043e-03  -6.684698e-03  0 
 -4.093328e-03  -6.508680e-03  0 
 -6.246447e-03  -7.507746e-03  0 
 -5.939237e-03  -7.440852e-03  0 
 -5.630342e-03  -7.357374e-03  0 
 -5.321380e-03  -7.265949e-03  0 
 -5.018312e-03  -7.165050e-03  0 
 -4.733739e-03  -7.044253e-03  0 
 -4.481000e-03  -6.895627e-03  0 
 -4.262400e-03  -6.721745e-03  0 
 -6.361352e-03  -7.773600e-03  0 
 -6.084053e-03  -7.704873e-03  0 
 -5.793145e-03  -7.617353e-03  0 
 -5.494278e-03  -7.516125e-03  0 
 -5.196157e-03  -7.400812e-03  0 
 -4.908839e-03  -7.270151e-03  0 
 -4.639998e-03  -7.129199e-03  0 
 -4.385924e-03  -6.991362e-03  0 
 -6.490962e-03  -7.999676e-03  0 
 -6.239029e-03  -7.929639e-03  0 
 -5.964214e-03  -7.843769e-03  0 
 -5.672511e-03  -7.745128e-03  0 
 -5.371941e-03  -7.633081e-03  0 
 -5.068653e-03  -7.508038e-03  0 
 -4.765818e-03  -7.378359e-03  0 
 -4.470086e-03  -7.263622e-03  0 
 -6.642721e-03  -8.188299e-03  0 
 -6.407276e-03  -8.119215e-03  0 
 -6.138704e-03  -8.044138e-03  0 
 -5.845849e-03  -7.962334e-03  0 
 -5.537253e-03  -7.868898e-03  0 
 -5.215988e-03  -7.761814e-03  0 
 -4.879819e-03  -7.642913e-03  0 
 -4.532584e-03  -7.522316e-03  0 
 -6.825397e-03  -8.340972e-03  0 
 -6.587626e-03  -8.279619e-03  0 
 -6.307634e-03  -8.228107e-03  0 
 -6.005053e-03  -8.175035e-03  0 
 -5.686708e-03  -8.110269e-03  0 
 -5.352008e-03  -8.029746e-03  0 
 -4.996382e-03  -7.931954e-03  0 
 -4.606862e-03  -7.811345e-03  0 
 -7.048898e-03  -8.464198e-03  0 
 -6.769561e-03  -8.428277e-03  0 
 -6.460412e-03  -8.407544e-03  0 
 -6.141605e-03  -8.386520e-03  0 
 -5.816961e-03  -8.355772e-03  0 
 -5.474328e-03  -8.306274e-03  0 
 -5.106269e-03  -8.241460e-03  0 
 -4.715148e-03  -8.150238e-03  0 
VECTORS displacement_ITER6 FLOAT
 -6.238095e-03  -6.395405e-03  0 
 -7.549911e-03  -8.670766e-03  0 
 -3.590004e-03  -6.132751e-03  0 
 -4.373937e-03  -8.394161e-03  0 
 -6.401375e-03  -6.785444e-03  0 
 -6.462266e-03  -7.183312e-03  0 
 -6.511092e-03  -7.515683e-03  0 
 -6.573106e-03  -7.793892e-03  0 
 -6.657254e-03  -8.027157e-03  0 
 -6.772160e-03  -8.221399e-03  0 
 -6.932386e-03  -8.382773e-03  0 
 -7.167477e-03  -8.522778e-03  0 
 -5.965219e-03  -6.346927e-03  0 
 -5.556593e-03  -6.357397e-03  0 
 -5.189859e-03  -6.371957e-03  0 
 -4.846879e-03  -6.340350e-03  0 
 -4.508152e-03  -6.305319e-03  0 
 -4.158971e-03  -6.268666e-03  0 
 -3.882038e-03  -6.267579e-03  0 
 -3.609516e-03  -6.212603e-03  0 
 -3.771925e-03  -6.162085e-03  0 
 -3.942652e-03  -6.361126e-03  0 
 -4.004014e-03  -6.596877e-03  0 
 -4.067178e-03  -6.849425e-03  0 
 -4.128966e-03  -7.126252e-03  0 
 -4.148446e-03  -7.435078e-03  0 
 -4.170800e-03  -7.718104e-03  0 
 -4.274843e-03  -8.048150e-03  0 
 -7.213364e-03  -8.606076e-03  0 
 -6.852222e-03  -8.573816e-03  0 
 -6.501835e-03  -8.552344e-03  0 
 -6.172616e-03  -8.553304e-03  0 
 -5.845145e-03  -8.558358e-03  0 
 -5.505785e-03  -8.567709e-03  0 
 -5.137346e-03  -8.555086e-03  0 
 -4.736935e-03  -8.499671e-03  0 
 -6.015672e-03  -6.773501e-03  0 
 -5.653184e-03  -6.761645e-03  0 
 -5.304171e-03  -6.726909e-03  0 
 -4.971153e-03  -6.683456e-03  0 
 -4.641797e-03  -6.630300e-03  0 
 -4.326707e-03  -6.565047e-03  0 
 -4.053210e-03  -6.480058e-03  0 
 -3.864494e-03  -6.354460e-03  0 
 -6.104602e-03  -7.156866e-03  0 
 -5.763791e-03  -7.113762e-03  0 
 -5.434255e-03  -7.058391e-03  0 
 -5.111325e-03  -6.990691e-03  0 
 -4.798123e-03  -6.910363e-03  0 
 -4.504701e-03  -6.810107e-03  0 
 -4.251987e-03  -6.681390e-03  0 
 -4.060409e-03  -6.524120e-03  0 
 -6.202319e-03  -7.483362e-03  0 
 -5.889867e-03  -7.425602e-03  0 
 -5.578750e-03  -7.352099e-03  0 
 -5.270383e-03  -7.265004e-03  0 
 -4.969668e-03  -7.161934e-03  0 
 -4.686578e-03  -7.039025e-03  0 
 -4.431866e-03  -6.895147e-03  0 
 -4.209571e-03  -6.738601e-03  0 
 -6.308260e-03  -7.756447e-03  0 
 -6.027546e-03  -7.692295e-03  0 
 -5.736673e-03  -7.609584e-03  0 
 -5.440920e-03  -7.512086e-03  0 
 -5.146327e-03  -7.399220e-03  0 
 -4.859691e-03  -7.270208e-03  0 
 -4.586057e-03  -7.129297e-03  0 
 -4.324010e-03  -6.987264e-03  0 
 -6.429788e-03  -7.983493e-03  0 
 -6.176577e-03  -7.916542e-03  0 
 -5.902671e-03  -7.834178e-03  0 
 -5.614386e-03  -7.739429e-03  0 
 -5.318422e-03  -7.631709e-03  0 
 -5.019493e-03  -7.510852e-03  0 
 -4.718944e-03  -7.380905e-03  0 
 -4.419688e-03  -7.251260e-03  0 
 -6.574105e-03  -8.169862e-03  0 
 -6.337755e-03  -8.103760e-03  0 
 -6.070492e-03  -8.031995e-03  0 
 -5.781784e-03  -7.953762e-03  0 
 -5.479176e-03  -7.864433e-03  0 
 -5.165375e-03  -7.762497e-03  0 
 -4.839733e-03  -7.649738e-03  0 
 -4.499532e-03  -7.530628e-03  0 
 -6.749843e-03  -8.320911e-03  0 
 -6.509513e-03  -8.261571e-03  0 
 -6.231568e-03  -8.211851e-03  0 
 -5.934720e-03  -8.160598e-03  0 
 -5.623940e-03  -8.099134e-03  0 
 -5.296740e-03  -8.023920e-03  0 
 -4.950415e-03  -7.936227e-03  0 
 -4.580616e-03  -7.837654e-03  0 
 -6.967324e-03  -8.448240e-03  0 
 -6.682575e-03  -8.408264e-03  0 
 -6.376768e-03  -8.384119e-03  0 
 -6.066280e-03  -8.361457e-03  0 
 -5.748241e-03  -8.333807e-03  0 
 -5.412556e-03  -8.293481e-03  0 
 -5.049399e-03  -8.236066e-03  0 
 -4.665152e-03  -8.161326e-03  0 
VECTORS displacement_ITER7 FLOAT
 -6.206591e-03  -6.353545e-03  0 
 -7.473030e-03  -8.581278e-03  0 
 -3.571088e-03  -6.083173e-03  0 
 -4.299602e-03  -8.428748e-03  0 
 -6.355164e-03  -6.799955e-03  0 
 -6.419603e-03  -7.185850e-03  0 
 -6.472460e-03  -7.513822e-03  0 
 -6.535975e-03  -7.791304e-03  0 
 -6.621027e-03  -8.024928e-03  0 
 -6.735412e-03  -8.220238e-03  0 
 -6.889660e-03  -8.380071e-03  0 
 -7.108474e-03  -8.505153e-03  0 
 -5.907210e-03  -6.382786e-03  0 
 -5.562275e-03  -6.398313e-03  0 
 -5.196807e-03  -6.364225e-03  0 
 -4.806218e-03  -6.345464e-03  0 
 -4.453913e-03  -6.352618e-03  0 
 -4.153081e-03  -6.321321e-03  0 
 -3.903680e-03  -6.269179e-03  0 
 -3.652466e-03  -6.178306e-03  0 
 -3.795513e-03  -6.165963e-03  0 
 -3.926888e-03  -6.376556e-03  0 
 -4.005190e-03  -6.633143e-03  0 
 -4.069837e-03  -6.873538e-03  0 
 -4.108238e-03  -7.129548e-03  0 
 -4.147446e-03  -7.418100e-03  0 
 -4.194972e-03  -7.692130e-03  0 
 -4.251090e-03  -8.017331e-03  0 
 -7.174660e-03  -8.572860e-03  0 
 -6.825835e-03  -8.577400e-03  0 
 -6.475188e-03  -8.580922e-03  0 
 -6.125644e-03  -8.579892e-03  0 
 -5.777427e-03  -8.563437e-03  0 
 -5.441463e-03  -8.527999e-03  0 
 -5.112215e-03  -8.492789e-03  0 
 -4.742721e-03  -8.464097e-03  0 
 -5.972971e-03  -6.777531e-03  0 
 -5.637309e-03  -6.767554e-03  0 
 -5.291386e-03  -6.746154e-03  0 
 -4.937602e-03  -6.706395e-03  0 
 -4.609260e-03  -6.647256e-03  0 
 -4.323111e-03  -6.574215e-03  0 
 -4.075500e-03  -6.482443e-03  0 
 -3.883398e-03  -6.352968e-03  0 
 -6.069740e-03  -7.157779e-03  0 
 -5.734262e-03  -7.117097e-03  0 
 -5.407639e-03  -7.070246e-03  0 
 -5.085798e-03  -7.004796e-03  0 
 -4.778763e-03  -6.917652e-03  0 
 -4.499030e-03  -6.812247e-03  0 
 -4.258810e-03  -6.687033e-03  0 
 -4.071120e-03  -6.536186e-03  0 
 -6.166216e-03  -7.481969e-03  0 
 -5.856033e-03  -7.426650e-03  0 
 -5.548084e-03  -7.355698e-03  0 
 -5.245376e-03  -7.269138e-03  0 
 -4.951616e-03  -7.164403e-03  0 
 -4.675268e-03  -7.041448e-03  0 
 -4.426087e-03  -6.902770e-03  0 
 -4.206792e-03  -6.759540e-03  0 
 -6.271509e-03  -7.753850e-03  0 
 -5.992133e-03  -7.689978e-03  0 
 -5.704311e-03  -7.607344e-03  0 
 -5.413263e-03  -7.509987e-03  0 
 -5.123719e-03  -7.398259e-03  0 
 -4.841232e-03  -7.272212e-03  0 
 -4.570262e-03  -7.136415e-03  0 
 -4.310455e-03  -7.000430e-03  0 
 -6.393338e-03  -7.980625e-03  0 
 -6.140957e-03  -7.912012e-03  0 
 -5.868724e-03  -7.827931e-03  0 
 -5.582686e-03  -7.733185e-03  0 
 -5.289363e-03  -7.627808e-03  0 
 -4.993455e-03  -7.510760e-03  0 
 -4.697167e-03  -7.384639e-03  0 
 -4.403189e-03  -7.255495e-03  0 
 -6.538532e-03  -8.167907e-03  0 
 -6.303801e-03  -8.098416e-03  0 
 -6.035817e-03  -8.023171e-03  0 
 -5.745115e-03  -7.944467e-03  0 
 -5.442439e-03  -7.857815e-03  0 
 -5.131978e-03  -7.759164e-03  0 
 -4.813178e-03  -7.647375e-03  0 
 -4.484702e-03  -7.528034e-03  0 
 -6.716050e-03  -8.318649e-03  0 
 -6.480668e-03  -8.256035e-03  0 
 -6.197901e-03  -8.203799e-03  0 
 -5.892368e-03  -8.150810e-03  0 
 -5.577031e-03  -8.090133e-03  0 
 -5.255190e-03  -8.016770e-03  0 
 -4.921875e-03  -7.926090e-03  0 
 -4.567554e-03  -7.817114e-03  0 
 -6.937348e-03  -8.434475e-03  0 
 -6.659298e-03  -8.405235e-03  0 
 -6.346054e-03  -8.385535e-03  0 
 -6.019523e-03  -8.359954e-03  0 
 -5.688420e-03  -8.324555e-03  0 
 -5.358930e-03  -8.277926e-03  0 
 -5.023487e-03  -8.214324e-03  0 
 -4.660293e-03  -8.128758e-03  0 
VECTORS displacement_ITER8 FLOAT
 -6.232291e-03  -6.331715e-03  0 
 -7.461652e-03  -8.582931e-03  0 
 -3.597822e-03  -6.121405e-03  0 
 -4.275487e-03  -8.415137e-03  0 
 -6.351481e-03  -6.813833e-03  0 
 -6.406731e-03  -7.194826e-03  0 
 -6.457101e-03  -7.516856e-03  0 
 -6.518943e-03  -7.790050e-03  0 
 -6.601374e-03  -8.020506e-03  0 
 -6.712316e-03  -8.212669e-03  0 
 -6.863793e-03  -8.369025e-03  0 
 -7.084377e-03  -8.493441e-03  0 
 -5.887047e-03  -6.392343e-03  0 
 -5.553046e-03  -6.415861e-03  0 
 -5.201673e-03  -6.384949e-03  0 
 -4.834205e-03  -6.366336e-03  0 
 -4.484091e-03  -6.352031e-03  0 
 -4.162791e-03  -6.303516e-03  0 
 -3.862921e-03  -6.248135e-03  0 
 -3.625692e-03  -6.203282e-03  0 
 -3.805766e-03  -6.174514e-03  0 
 -3.919079e-03  -6.364017e-03  0 
 -4.007344e-03  -6.623658e-03  0 
 -4.070156e-03  -6.878189e-03  0 
 -4.107260e-03  -7.138598e-03  0 
 -4.145517e-03  -7.413971e-03  0 
 -4.195898e-03  -7.700621e-03  0 
 -4.234611e-03  -8.021756e-03  0 
 -7.129890e-03  -8.576336e-03  0 
 -6.787463e-03  -8.565959e-03  0 
 -6.454473e-03  -8.561854e-03  0 
 -6.117752e-03  -8.559406e-03  0 
 -5.775862e-03  -8.551564e-03  0 
 -5.432658e-03  -8.531336e-03  0 
 -5.088468e-03  -8.500452e-03  0 
 -4.714135e-03  -8.456956e-03  0 
 -5.961668e-03  -6.788671e-03  0 
 -5.629193e-03  -6.775835e-03  0 
 -5.294841e-03  -6.753317e-03  0 
 -4.953572e-03  -6.712124e-03  0 
 -4.627720e-03  -6.653671e-03  0 
 -4.325530e-03  -6.581415e-03  0 
 -4.056139e-03  -6.487448e-03  0 
 -3.864173e-03  -6.350562e-03  0 
 -6.060825e-03  -7.166184e-03  0 
 -5.728627e-03  -7.121969e-03  0 
 -5.408241e-03  -7.072949e-03  0 
 -5.091960e-03  -7.008792e-03  0 
 -4.784870e-03  -6.925645e-03  0 
 -4.498911e-03  -6.822661e-03  0 
 -4.252270e-03  -6.692845e-03  0 
 -4.063468e-03  -6.532938e-03  0 