# vtk DataFile Version 3.1
this is an vtk file created by FEMAC
ASCII
DATASET UNSTRUCTURED_GRID
POINTS 100 FLOAT
3.000000 1.000000 0.000000
3.000000 2.000000 0.000000
4.000000 1.000000 0.000000
4.000000 2.000000 0.000000
3.000000 1.111111 0.000000
3.000000 1.222222 0.000000
3.000000 1.333333 0.000000
3.000000 1.444444 0.000000
3.000000 1.555556 0.000000
3.000000 1.666667 0.000000
3.000000 1.777778 0.000000
3.000000 1.888889 0.000000
3.111111 1.000000 0.000000
3.222222 1.000000 0.000000
3.333333 1.000000 0.000000
3.444444 1.000000 0.000000
3.555556 1.000000 0.000000
3.666667 1.000000 0.000000
3.777778 1.000000 0.000000
3.888889 1.000000 0.000000
3.111111 2.000000 0.000000
3.222222 2.000000 0.000000
3.333333 2.000000 0.000000
3.444444 2.000000 0.000000
3.555556 2.000000 0.000000
3.666667 2.000000 0.000000
3.777778 2.000000 0.000000
3.888889 2.000000 0.000000
4.000000 1.111111 0.000000
4.000000 1.222222 0.000000
4.000000 1.333333 0.000000
4.000000 1.444444 0.000000
4.000000 1.555556 0.000000
4.000000 1.666667 0.000000
4.000000 1.777778 0.000000
4.000000 1.888889 0.000000
3.111111 1.111111 0.000000
3.111111 1.222222 0.000000
3.111111 1.333333 0.000000
3.111111 1.444444 0.000000
3.111111 1.555556 0.000000
3.111111 1.666667 0.000000
3.111111 1.777778 0.000000
3.111111 1.888889 0.000000
3.222222 1.111111 0.000000
3.222222 1.222222 0.000000
3.222222 1.333333 0.000000
3.222222 1.444444 0.000000
3.222222 1.555556 0.000000
3.222222 1.666667 0.000000
3.222222 1.777778 0.000000
3.222222 1.888889 0.000000
3.333333 1.111111 0.000000
3.333333 1.222222 0.000000
3.333333 1.333333 0.000000
3.333333 1.444444 0.000000
3.333333 1.555556 0.000000
3.333333 1.666667 0.000000
3.333333 1.777778 0.000000
3.333333 1.888889 0.000000
3.444444 1.111111 0.000000
3.444444 1.222222 0.000000
3.444444 1.333333 0.000000
3.444444 1.444444 0.000000
3.444444 1.555556 0.000000
3.444444 1.666667 0.000000
3.444444 1.777778 0.000000
3.444444 1.888889 0.000000
3.555556 1.111111 0.000000
3.555556 1.222222 0.000000
3.555556 1.333333 0.000000
3.555556 1.444444 0.000000
3.555556 1.555556 0.000000
3.555556 1.666667 0.000000
3.555556 1.777778 0.000000
3.555556 1.888889 0.000000
3.666667 1.111111 0.000000
3.666667 1.222222 0.000000
3.666667 1.333333 0.000000
3.666667 1.444444 0.000000
3.666667 1.555556 0.000000
3.666667 1.666667 0.000000
3.666667 1.777778 0.000000
3.666667 1.888889 0.000000
3.777778 1.111111 0.000000
3.777778 1.222222 0.000000
3.777778 1.333333 0.000000
3.777778 1.444444 0.000000
3.777778 1.555556 0.000000
3.777778 1.666667 0.000000
3.777778 1.777778 0.000000
3.777778 1.888889 0.000000
3.888889 1.111111 0.000000
3.888889 1.222222 0.000000
3.888889 1.333333 0.000000
3.888889 1.444444 0.000000
3.888889 1.555556 0.000000
3.888889 1.666667 0.000000
3.888889 1.777778 0.000000
3.888889 1.888889 0.000000
CELLS 81 405 
4 0 12 36  4
4 4 36 37  5
4 5 37 38  6
4 6 38 39  7
4 7 39 40  8
4 8 40 41  9
4 9 41 42 10
4 10 42 43 11
4 11 43 20  1
4 12 13 44 36
4 36 44 45 37
4 37 45 46 38
4 38 46 47 39
4 39 47 48 40
4 40 48 49 41
4 41 49 50 42
4 42 50 51 43
4 43 51 21 20
4 13 14 52 44
4 44 52 53 45
4 45 53 54 46
4 46 54 55 47
4 47 55 56 48
4 48 56 57 49
4 49 57 58 50
4 50 58 59 51
4 51 59 22 21
4 14 15 60 52
4 52 60 61 53
4 53 61 62 54
4 54 62 63 55
4 55 63 64 56
4 56 64 65 57
4 57 65 66 58
4 58 66 67 59
4 59 67 23 22
4 15 16 68 60
4 60 68 69 61
4 61 69 70 62
4 62 70 71 63
4 63 71 72 64
4 64 72 73 65
4 65 73 74 66
4 66 74 75 67
4 67 75 24 23
4 16 17 76 68
4 68 76 77 69
4 69 77 78 70
4 70 78 79 71
4 71 79 80 72
4 72 80 81 73
4 73 81 82 74
4 74 82 83 75
4 75 83 25 24
4 17 18 84 76
4 76 84 85 77
4 77 85 86 78
4 78 86 87 79
4 79 87 88 80
4 80 88 89 81
4 81 89 90 82
4 82 90 91 83
4 83 91 26 25
4 18 19 92 84
4 84 92 93 85
4 85 93 94 86
4 86 94 95 87
4 87 95 96 88
4 88 96 97 89
4 89 97 98 90
4 90 98 99 91
4 91 99 27 26
4 19  2 28 92
4 92 28 29 93
4 93 29 30 94
4 94 30 31 95
4 95 31 32 96
4 96 32 33 97
4 97 33 34 98
4 98 34 35 99
4 99 35  3 27
CELL_TYPES 81
9 9 9 9 9 9 9 9 9 9 9 9 9 9 9 9 9 9 9 9 9 9 9 9 9 9 9 9 9 9 9 9 9 9 9 9 9 9 9 9 9 9 9 9 9 9 9 9 9 9 9 9 9 9 9 9 9 9 9 9 9 9 9 9 9 9 9 9 9 9 9 9 9 9 9 9 9 9 9 9 9 
POINT_DATA 100
VECTORS displacement_ITER1 FLOAT
 -6.371605e-03  -8.282754e-03  0 
 -2.681971e-03  -7.811606e-03  0 
 -6.872766e-03  -1.234763e-02  0 
 -2.778062e-03  -1.231874e-02  0 
 -6.156653e-03  -8.257836e-03  0 
 -5.783996e-03  -8.214254e-03  0 
 -5.386412e-03  -8.182469e-03  0 
 -4.968948e-03  -8.142457e-03  0 
 -4.533196e-03  -8.102065e-03  0 
 -4.084474e-03  -8.057356e-03  0 
 -3.627305e-03  -8.005923e-03  0 
 -3.169174e-03  -7.939241e-03  0 
 -6.534184e-03  -8.617543e-03  0 
 -6.626688e-03  -9.034641e-03  0 
 -6.694762e-03  -9.469243e-03  0 
 -6.746991e-03  -9.918409e-03  0 
 -6.787747e-03  -1.038081e-02  0 
 -6.820688e-03  -1.085742e-02  0 
 -6.839551e-03  -1.134189e-02  0 
 -6.857729e-03  -1.183017e-02  0 
 -2.659719e-03  -8.433088e-03  0 
 -2.663412e-03  -8.946589e-03  0 
 -2.666310e-03  -9.445480e-03  0 
 -2.672376e-03  -9.930035e-03  0 
 -2.682714e-03  -1.040458e-02  0 
 -2.692830e-03  -1.087566e-02  0 
 -2.706534e-03  -1.134756e-02  0 
 -2.721473e-03  -1.182565e-02  0 
 -6.375854e-03  -1.231193e-02  0 
 -5.897063e-03  -1.228871e-02  0 
 -5.426306e-03  -1.226833e-02  0 
 -4.966444e-03  -1.225247e-02  0 
 -4.515191e-03  -1.224665e-02  0 
 -4.069054e-03  -1.224735e-02  0 
 -3.628256e-03  -1.225762e-02  0 
 -3.185668e-03  -1.227837e-02  0 
 -6.170213e-03  -8.601627e-03  0 
 -5.800424e-03  -8.604128e-03  0 
 -5.396755e-03  -8.590099e-03  0 
 -4.976281e-03  -8.570972e-03  0 
 -4.541044e-03  -8.546142e-03  0 
 -4.094970e-03  -8.515608e-03  0 
 -3.640833e-03  -8.478583e-03  0 
 -3.176776e-03  -8.439399e-03  0 
 -6.215060e-03  -9.016032e-03  0 
 -5.812312e-03  -9.012760e-03  0 
 -5.402400e-03  -9.013263e-03  0 
 -4.978180e-03  -9.007457e-03  0 
 -4.542556e-03  -8.996120e-03  0 
 -4.096570e-03  -8.979924e-03  0 
 -3.639057e-03  -8.962498e-03  0 
 -3.160108e-03  -8.953695e-03  0 
 -6.259254e-03  -9.455542e-03  0 
 -5.831874e-03  -9.451090e-03  0 
 -5.406754e-03  -9.452972e-03  0 
 -4.976945e-03  -9.455094e-03  0 
 -4.538713e-03  -9.453915e-03  0 
 -4.090392e-03  -9.450389e-03  0 
 -3.628759e-03  -9.447844e-03  0 
 -3.153317e-03  -9.446598e-03  0 
 -6.295105e-03  -9.909455e-03  0 
 -5.851129e-03  -9.906539e-03  0 
 -5.412406e-03  -9.908874e-03  0 
 -4.974432e-03  -9.913908e-03  0 
 -4.532213e-03  -9.919073e-03  0 
 -4.081735e-03  -9.923486e-03  0 
 -3.621041e-03  -9.927107e-03  0 
 -3.150581e-03  -9.929665e-03  0 
 -6.322425e-03  -1.037478e-02  0 
 -5.866212e-03  -1.037303e-02  0 
 -5.417221e-03  -1.037535e-02  0 
 -4.971871e-03  -1.038116e-02  0 
 -4.525978e-03  -1.038890e-02  0 
 -4.075383e-03  -1.039657e-02  0 
 -3.617506e-03  -1.040240e-02  0 
 -3.152207e-03  -1.040532e-02  0 
 -6.342222e-03  -1.085027e-02  0 
 -5.876914e-03  -1.084691e-02  0 
 -5.420112e-03  -1.084777e-02  0 
 -4.969372e-03  -1.085231e-02  0 
 -4.521281e-03  -1.085982e-02  0 
 -4.072415e-03  -1.086849e-02  0 
 -3.618917e-03  -1.087503e-02  0 
 -3.158844e-03  -1.087736e-02  0 
 -6.357182e-03  -1.133222e-02  0 
 -5.883888e-03  -1.132582e-02  0 
 -5.421612e-03  -1.132249e-02  0 
 -4.967136e-03  -1.132332e-02  0 
 -4.517894e-03  -1.132827e-02  0 
 -4.071215e-03  -1.133632e-02  0 
 -3.624432e-03  -1.134553e-02  0 
 -3.170130e-03  -1.134909e-02  0 
 -6.366032e-03  -1.182061e-02  0 
 -5.889597e-03  -1.180705e-02  0 
 -5.423013e-03  -1.179649e-02  0 
 -4.965793e-03  -1.179121e-02  0 
 -4.515679e-03  -1.179112e-02  0 
 -4.070264e-03  -1.179688e-02  0 
 -3.627476e-03  -1.180766e-02  0 
 -3.187225e-03  -1.182423e-02  0 
VECTORS displacement_ITER2 FLOAT
 -4.602296e-03  -6.674711e-03  0 
 -2.021683e-03  -6.082223e-03  0 
 -5.196778e-03  -9.645679e-03  0 
 -2.145709e-03  -9.627275e-03  0 
 -4.563681e-03  -6.628548e-03  0 
 -4.328755e-03  -6.565108e-03  0 
 -4.049728e-03  -6.520687e-03  0 
 -3.744778e-03  -6.473547e-03  0 
 -3.422818e-03  -6.429947e-03  0 
 -3.089569e-03  -6.384424e-03  0 
 -2.749128e-03  -6.329956e-03  0 
 -2.403534e-03  -6.245290e-03  0 
 -4.803489e-03  -6.848257e-03  0 
 -4.919331e-03  -7.135055e-03  0 
 -4.994237e-03  -7.451577e-03  0 
 -5.048331e-03  -7.785793e-03  0 
 -5.090280e-03  -8.130986e-03  0 
 -5.123855e-03  -8.486041e-03  0 
 -5.148420e-03  -8.848449e-03  0 
 -5.173768e-03  -9.222656e-03  0 
 -1.997564e-03  -6.634941e-03  0 
 -2.007266e-03  -7.045346e-03  0 
 -2.015889e-03  -7.426818e-03  0 
 -2.025344e-03  -7.793849e-03  0 
 -2.034978e-03  -8.152254e-03  0 
 -2.044101e-03  -8.507746e-03  0 
 -2.057340e-03  -8.865833e-03  0 
 -2.079176e-03  -9.235838e-03  0 
 -4.799109e-03  -9.595533e-03  0 
 -4.437543e-03  -9.564695e-03  0 
 -4.086777e-03  -9.543924e-03  0 
 -3.746600e-03  -9.531921e-03  0 
 -3.411860e-03  -9.528696e-03  0 
 -3.080269e-03  -9.533112e-03  0 
 -2.753494e-03  -9.547193e-03  0 
 -2.429649e-03  -9.572844e-03  0 
 -4.580263e-03  -6.826808e-03  0 
 -4.342539e-03  -6.828776e-03  0 
 -4.059227e-03  -6.811811e-03  0 
 -3.753824e-03  -6.788593e-03  0 
 -3.432791e-03  -6.759899e-03  0 
 -3.102264e-03  -6.725785e-03  0 
 -2.765362e-03  -6.684074e-03  0 
 -2.416634e-03  -6.639312e-03  0 
 -4.628805e-03  -7.115262e-03  0 
 -4.350984e-03  -7.113432e-03  0 
 -4.062693e-03  -7.114919e-03  0 
 -3.756067e-03  -7.107943e-03  0 
 -3.436200e-03  -7.094011e-03  0 
 -3.105856e-03  -7.074812e-03  0 
 -2.763612e-03  -7.055469e-03  0 
 -2.395925e-03  -7.048601e-03  0 
 -4.676469e-03  -7.437222e-03  0 
 -4.369898e-03  -7.432569e-03  0 
 -4.065486e-03  -7.435156e-03  0 
 -3.754422e-03  -7.437436e-03  0 
 -3.432961e-03  -7.435352e-03  0 
 -3.099937e-03  -7.430670e-03  0 
 -2.751881e-03  -7.428178e-03  0 
 -2.388765e-03  -7.428159e-03  0 
 -4.714865e-03  -7.774799e-03  0 
 -4.390380e-03  -7.770692e-03  0 
 -4.071038e-03  -7.773066e-03  0 
 -3.751524e-03  -7.778690e-03  0 
 -3.426294e-03  -7.784200e-03  0 
 -3.091035e-03  -7.788679e-03  0 
 -2.744128e-03  -7.792294e-03  0 
 -2.387490e-03  -7.794456e-03  0 
 -4.744588e-03  -8.122576e-03  0 
 -4.407233e-03  -8.119742e-03  0 
 -4.076426e-03  -8.122418e-03  0 
 -3.748878e-03  -8.129205e-03  0 
 -3.420020e-03  -8.137925e-03  0 
 -3.085165e-03  -8.146118e-03  0 
 -2.741710e-03  -8.151615e-03  0 
 -2.390352e-03  -8.153484e-03  0 
 -4.766702e-03  -8.478457e-03  0 
 -4.419051e-03  -8.475983e-03  0 
 -4.079675e-03  -8.478162e-03  0 
 -3.746539e-03  -8.483917e-03  0 
 -3.415714e-03  -8.492625e-03  0 
 -3.083320e-03  -8.502379e-03  0 
 -2.744964e-03  -8.509161e-03  0 
 -2.398038e-03  -8.510424e-03  0 
 -4.782409e-03  -8.841226e-03  0 
 -4.425578e-03  -8.837913e-03  0 
 -4.081206e-03  -8.836279e-03  0 
 -3.744831e-03  -8.838162e-03  0 
 -3.412964e-03  -8.844403e-03  0 
 -3.082979e-03  -8.854352e-03  0 
 -2.752342e-03  -8.865740e-03  0 
 -2.411975e-03  -8.869783e-03  0 
 -4.789952e-03  -9.215178e-03  0 
 -4.429903e-03  -9.202653e-03  0 
 -4.083054e-03  -9.192706e-03  0 
 -3.744566e-03  -9.188505e-03  0 
 -3.411491e-03  -9.190238e-03  0 
 -3.082037e-03  -9.198532e-03  0 
 -2.755255e-03  -9.213255e-03  0 
 -2.432416e-03  -9.234866e-03  0 
VECTORS displacement_ITER3 FLOAT
 -3.922755e-03  -6.163163e-03  0 
 -1.730712e-03  -5.518605e-03  0 
 -4.571074e-03  -8.735783e-03  0 
 -1.881245e-03  -8.702684e-03  0 
 -3.952367e-03  -6.101727e-03  0 
 -3.766091e-03  -6.029615e-03  0 
 -3.525300e-03  -5.973990e-03  0 
 -3.260257e-03  -5.927042e-03  0 
 -2.981705e-03  -5.884233e-03  0 
 -2.694545e-03  -5.838094e-03  0 
 -2.398085e-03  -5.781990e-03  0 
 -2.088002e-03  -5.693019e-03  0 
 -4.138122e-03  -6.267275e-03  0 
 -4.261438e-03  -6.506101e-03  0 
 -4.339873e-03  -6.781700e-03  0 
 -4.396257e-03  -7.074029e-03  0 
 -4.439816e-03  -7.375498e-03  0 
 -4.475524e-03  -7.684689e-03  0 
 -4.506632e-03  -8.003437e-03  0 
 -4.537275e-03  -8.340445e-03  0 
 -1.712715e-03  -6.044031e-03  0 
 -1.732006e-03  -6.419534e-03  0 
 -1.747264e-03  -6.759151e-03  0 
 -1.760314e-03  -7.082921e-03  0 
 -1.769548e-03  -7.398866e-03  0 
 -1.778920e-03  -7.711555e-03  0 
 -1.790015e-03  -8.025029e-03  0 
 -1.813174e-03  -8.349617e-03  0 
 -4.197672e-03  -8.678339e-03  0 
 -3.873664e-03  -8.643891e-03  0 
 -3.564060e-03  -8.621712e-03  0 
 -3.264655e-03  -8.609329e-03  0 
 -2.971066e-03  -8.605053e-03  0 
 -2.682310e-03  -8.608147e-03  0 
 -2.399308e-03  -8.619745e-03  0 
 -2.120704e-03  -8.643830e-03  0 
 -3.968682e-03  -6.245921e-03  0 
 -3.778707e-03  -6.246943e-03  0 
 -3.537127e-03  -6.228055e-03  0 
 -3.271847e-03  -6.201953e-03  0 
 -2.993601e-03  -6.171775e-03  0 
 -2.706884e-03  -6.137234e-03  0 
 -2.412250e-03  -6.095918e-03  0 
 -2.101781e-03  -6.050989e-03  0 
 -4.016801e-03  -6.486950e-03  0 
 -3.785176e-03  -6.486215e-03  0 
 -3.540594e-03  -6.487797e-03  0 
 -3.276095e-03  -6.479782e-03  0 
 -2.998250e-03  -6.464757e-03  0 
 -2.710199e-03  -6.445665e-03  0 
 -2.409596e-03  -6.427593e-03  0 
 -2.081837e-03  -6.422529e-03  0 
 -4.065579e-03  -6.765921e-03  0 
 -3.803544e-03  -6.761168e-03  0 
 -3.543043e-03  -6.764115e-03  0 
 -3.274764e-03  -6.766546e-03  0 
 -2.995334e-03  -6.764598e-03  0 
 -2.704056e-03  -6.760562e-03  0 
 -2.397640e-03  -6.759394e-03  0 
 -2.076471e-03  -6.760675e-03  0 
 -4.105968e-03  -7.061066e-03  0 
 -3.824844e-03  -7.056030e-03  0 
 -3.548546e-03  -7.058584e-03  0 
 -3.271523e-03  -7.064922e-03  0 
 -2.988311e-03  -7.071271e-03  0 
 -2.694912e-03  -7.076663e-03  0 
 -2.390246e-03  -7.081182e-03  0 
 -2.076897e-03  -7.083767e-03  0 
 -4.137939e-03  -7.365465e-03  0 
 -3.843000e-03  -7.361993e-03  0 
 -3.554067e-03  -7.365111e-03  0 
 -3.268379e-03  -7.372824e-03  0 
 -2.981473e-03  -7.382526e-03  0 
 -2.688799e-03  -7.391496e-03  0 
 -2.388108e-03  -7.397454e-03  0 
 -2.080653e-03  -7.399601e-03  0 
 -4.162295e-03  -7.677209e-03  0 
 -3.855683e-03  -7.675558e-03  0 
 -3.557245e-03  -7.678687e-03  0 
 -3.265496e-03  -7.685331e-03  0 
 -2.976597e-03  -7.694763e-03  0 
 -2.686670e-03  -7.705008e-03  0 
 -2.391327e-03  -7.711917e-03  0 
 -2.087924e-03  -7.713262e-03  0 
 -4.179417e-03  -7.997661e-03  0 
 -3.862309e-03  -7.996023e-03  0 
 -3.558378e-03  -7.995439e-03  0 
 -3.263285e-03  -7.997773e-03  0 
 -2.973302e-03  -8.004232e-03  0 
 -2.685874e-03  -8.014312e-03  0 
 -2.398556e-03  -8.025678e-03  0 
 -2.101684e-03  -8.029173e-03  0 
 -4.188214e-03  -8.332878e-03  0 
 -3.866152e-03  -8.321129e-03  0 
 -3.559973e-03  -8.311192e-03  0 
 -3.262725e-03  -8.306636e-03  0 
 -2.971311e-03  -8.308100e-03  0 
 -2.684331e-03  -8.315877e-03  0 
 -2.401140e-03  -8.330026e-03  0 
 -2.122982e-03  -8.351240e-03  0 
VECTORS displacement_ITER4 FLOAT
 -3.701132e-03  -6.113964e-03  0 
 -1.716250e-03  -5.454272e-03  0 
 -4.380318e-03  -8.493435e-03  0 
 -1.877273e-03  -8.440795e-03  0 
 -3.762193e-03  -6.047794e-03  0 
 -3.601246e-03  -5.974517e-03  0 
 -3.383729e-03  -5.918779e-03  0 
 -3.140531e-03  -5.871986e-03  0 
 -2.883344e-03  -5.828160e-03  0 
 -2.617401e-03  -5.780115e-03  0 
 -2.342664e-03  -5.721973e-03  0 
 -2.052927e-03  -5.633217e-03  0 
 -3.921822e-03  -6.187887e-03  0 
 -4.047126e-03  -6.402463e-03  0 
 -4.128306e-03  -6.655226e-03  0 
 -4.186139e-03  -6.924835e-03  0 
 -4.229991e-03  -7.204189e-03  0 
 -4.267624e-03  -7.492349e-03  0 
 -4.302073e-03  -7.791806e-03  0 
 -4.337989e-03  -8.109256e-03  0 
 -1.699202e-03  -5.962599e-03  0 
 -1.719328e-03  -6.317740e-03  0 
 -1.735757e-03  -6.635444e-03  0 
 -1.747966e-03  -6.936623e-03  0 
 -1.757083e-03  -7.230401e-03  0 
 -1.767176e-03  -7.520930e-03  0 
 -1.779781e-03  -7.813306e-03  0 
 -1.804937e-03  -8.113371e-03  0 
 -4.013890e-03  -8.430601e-03  0 
 -3.708240e-03  -8.392533e-03  0 
 -3.418779e-03  -8.368183e-03  0 
 -3.140208e-03  -8.353899e-03  0 
 -2.868094e-03  -8.348361e-03  0 
 -2.601668e-03  -8.349926e-03  0 
 -2.341633e-03  -8.359358e-03  0 
 -2.088678e-03  -8.380475e-03  0 
 -3.778399e-03  -6.166531e-03  0 
 -3.613016e-03  -6.167824e-03  0 
 -3.394559e-03  -6.149301e-03  0 
 -3.151692e-03  -6.123297e-03  0 
 -2.895459e-03  -6.092736e-03  0 
 -2.630419e-03  -6.057387e-03  0 
 -2.356946e-03  -6.015465e-03  0 
 -2.067840e-03  -5.969676e-03  0 
 -3.826892e-03  -6.383348e-03  0 
 -3.618955e-03  -6.383254e-03  0 
 -3.397415e-03  -6.385491e-03  0 
 -3.155463e-03  -6.377875e-03  0 
 -2.899785e-03  -6.362968e-03  0 
 -2.633485e-03  -6.343822e-03  0 
 -2.354386e-03  -6.325556e-03  0 
 -2.047998e-03  -6.320558e-03  0 
 -3.876407e-03  -6.639259e-03  0 
 -3.637175e-03  -6.635049e-03  0 
 -3.399377e-03  -6.638681e-03  0 
 -3.153549e-03  -6.641747e-03  0 
 -2.896279e-03  -6.640293e-03  0 
 -2.626884e-03  -6.636552e-03  0 
 -2.342097e-03  -6.635516e-03  0 
 -2.042470e-03  -6.636853e-03  0 
 -3.917609e-03  -6.912146e-03  0 
 -3.658605e-03  -6.907392e-03  0 
 -3.404511e-03  -6.910535e-03  0 
 -3.149664e-03  -6.917599e-03  0 
 -2.888564e-03  -6.924640e-03  0 
 -2.617186e-03  -6.930540e-03  0 
 -2.334393e-03  -6.935264e-03  0 
 -2.042856e-03  -6.937686e-03  0 
 -3.950334e-03  -7.194504e-03  0 
 -3.677022e-03  -7.191294e-03  0 
 -3.409721e-03  -7.194918e-03  0 
 -3.145827e-03  -7.203333e-03  0 
 -2.880951e-03  -7.213748e-03  0 
 -2.610489e-03  -7.223289e-03  0 
 -2.332058e-03  -7.229528e-03  0 
 -2.046624e-03  -7.231538e-03  0 
 -3.975624e-03  -7.484714e-03  0 
 -3.689991e-03  -7.483251e-03  0 
 -3.412525e-03  -7.486868e-03  0 
 -3.142199e-03  -7.494029e-03  0 
 -2.875241e-03  -7.503931e-03  0 
 -2.607704e-03  -7.514641e-03  0 
 -2.335030e-03  -7.521918e-03  0 
 -2.054273e-03  -7.523362e-03  0 
 -3.994407e-03  -7.784535e-03  0 
 -3.696755e-03  -7.783002e-03  0 
 -3.413169e-03  -7.782662e-03  0 
 -3.139318e-03  -7.784973e-03  0 
 -2.871164e-03  -7.791365e-03  0 
 -2.606126e-03  -7.801503e-03  0 
 -2.341888e-03  -7.813182e-03  0 
 -2.068410e-03  -7.816925e-03  0 
 -4.004611e-03  -8.100856e-03  0 
 -3.700430e-03  -8.088826e-03  0 
 -3.414475e-03  -8.077953e-03  0 
 -3.138347e-03  -8.072537e-03  0 
 -2.868643e-03  -8.073240e-03  0 
 -2.603875e-03  -8.080324e-03  0 
 -2.343787e-03  -8.094010e-03  0 
 -2.090320e-03  -8.115468e-03  0 
VECTORS displacement_ITER5 FLOAT
 -3.630791e-03  -6.061616e-03  0 
 -1.680826e-03  -5.392862e-03  0 
 -4.320009e-03  -8.402827e-03  0 
 -1.862371e-03  -8.338027e-03  0 
 -3.700678e-03  -5.993414e-03  0 
 -3.543739e-03  -5.919018e-03  0 
 -3.330844e-03  -5.862959e-03  0 
 -3.092678e-03  -5.816773e-03  0 
 -2.840656e-03  -5.772536e-03  0 
 -2.578925e-03  -5.723536e-03  0 
 -2.307952e-03  -5.663244e-03  0 
 -2.020415e-03  -5.573431e-03  0 
 -3.854436e-03  -6.126932e-03  0 
 -3.981075e-03  -6.337371e-03  0 
 -4.062903e-03  -6.586304e-03  0 
 -4.120807e-03  -6.851852e-03  0 
 -4.164339e-03  -7.127045e-03  0 
 -4.201133e-03  -7.410433e-03  0 
 -4.235836e-03  -7.704666e-03  0 
 -4.274153e-03  -8.017189e-03  0 
 -1.667638e-03  -5.901538e-03  0 
 -1.689698e-03  -6.253863e-03  0 
 -1.707591e-03  -6.567716e-03  0 
 -1.720358e-03  -6.864383e-03  0 
 -1.731122e-03  -7.153770e-03  0 
 -1.743175e-03  -7.440072e-03  0 
 -1.758406e-03  -7.727667e-03  0 
 -1.786021e-03  -8.019888e-03  0 
 -3.951852e-03  -8.337698e-03  0 
 -3.649403e-03  -8.297041e-03  0 
 -3.365176e-03  -8.271882e-03  0 
 -3.091522e-03  -8.257269e-03  0 
 -2.824399e-03  -8.251398e-03  0 
 -2.562877e-03  -8.252436e-03  0 
 -2.307939e-03  -8.260497e-03  0 
 -2.062521e-03  -8.279287e-03  0 
 -3.716510e-03  -6.106255e-03  0 
 -3.555989e-03  -6.107858e-03  0 
 -3.341952e-03  -6.089213e-03  0 
 -3.103870e-03  -6.063065e-03  0 
 -2.852513e-03  -6.032403e-03  0 
 -2.591938e-03  -5.996685e-03  0 
 -2.321963e-03  -5.954480e-03  0 
 -2.034926e-03  -5.908776e-03  0 
 -3.765045e-03  -6.318328e-03  0 
 -3.561822e-03  -6.318568e-03  0 
 -3.344967e-03  -6.320947e-03  0 
 -3.107680e-03  -6.313318e-03  0 
 -2.856624e-03  -6.298437e-03  0 
 -2.594571e-03  -6.279452e-03  0 
 -2.318989e-03  -6.261480e-03  0 
 -2.015535e-03  -6.256751e-03  0 
 -3.814839e-03  -6.570162e-03  0 
 -3.580001e-03  -6.565980e-03  0 
 -3.346850e-03  -6.569745e-03  0 
 -3.105659e-03  -6.572976e-03  0 
 -2.852882e-03  -6.571777e-03  0 
 -2.587684e-03  -6.568399e-03  0 
 -2.306700e-03  -6.567691e-03  0 
 -2.010560e-03  -6.569127e-03  0 
 -3.856165e-03  -6.838994e-03  0 
 -3.601450e-03  -6.834097e-03  0 
 -3.351867e-03  -6.837270e-03  0 
 -3.101562e-03  -6.844573e-03  0 
 -2.844947e-03  -6.852004e-03  0 
 -2.577941e-03  -6.858340e-03  0 
 -2.299343e-03  -6.863365e-03  0 
 -2.011761e-03  -6.865763e-03  0 
 -3.888833e-03  -7.117089e-03  0 
 -3.619887e-03  -7.113630e-03  0 
 -3.356950e-03  -7.117264e-03  0 
 -3.097477e-03  -7.125930e-03  0 
 -2.837132e-03  -7.136733e-03  0 
 -2.571299e-03  -7.146710e-03  0 
 -2.297528e-03  -7.153309e-03  0 
 -2.016570e-03  -7.155385e-03  0 
 -3.914125e-03  -7.402560e-03  0 
 -3.632813e-03  -7.400978e-03  0 
 -3.359537e-03  -7.404748e-03  0 
 -3.093590e-03  -7.412104e-03  0 
 -2.831240e-03  -7.422232e-03  0 
 -2.568550e-03  -7.433271e-03  0 
 -2.300956e-03  -7.440947e-03  0 
 -2.025452e-03  -7.442703e-03  0 
 -3.933007e-03  -7.697248e-03  0 
 -3.639224e-03  -7.696169e-03  0 
 -3.359831e-03  -7.696078e-03  0 
 -3.090529e-03  -7.698368e-03  0 
 -2.827072e-03  -7.704686e-03  0 
 -2.566948e-03  -7.714874e-03  0 
 -2.308108e-03  -7.726831e-03  0 
 -2.040547e-03  -7.730906e-03  0 
 -3.942893e-03  -8.009457e-03  0 
 -3.642149e-03  -7.997853e-03  0 
 -3.360852e-03  -7.986770e-03  0 
 -3.089568e-03  -7.981031e-03  0 
 -2.824666e-03  -7.981428e-03  0 
 -2.564744e-03  -7.988119e-03  0 
 -2.310029e-03  -8.001522e-03  0 
 -2.063416e-03  -8.022905e-03  0 
VECTORS displacement_ITER6 FLOAT
 -3.597517e-03  -6.087962e-03  0 
 -1.679457e-03  -5.416437e-03  0 
 -4.288755e-03  -8.389606e-03  0 
 -1.876295e-03  -8.317562e-03  0 
 -3.673183e-03  -6.017965e-03  0 
 -3.519607e-03  -5.942966e-03  0 
 -3.310695e-03  -5.887153e-03  0 
 -3.076946e-03  -5.841224e-03  0 
 -2.829729e-03  -5.796864e-03  0 
 -2.572215e-03  -5.747902e-03  0 
 -2.304893e-03  -5.686630e-03  0 
 -2.020527e-03  -5.595955e-03  0 
 -3.821761e-03  -6.146655e-03  0 
 -3.948928e-03  -6.352910e-03  0 
 -4.030367e-03  -6.597679e-03  0 
 -4.087852e-03  -6.859239e-03  0 
 -4.131216e-03  -7.130450e-03  0 
 -4.167228e-03  -7.409238e-03  0 
 -4.201343e-03  -7.698154e-03  0 
 -4.240798e-03  -8.005638e-03  0 
 -1.669875e-03  -5.922512e-03  0 
 -1.693732e-03  -6.270596e-03  0 
 -1.712605e-03  -6.580345e-03  0 
 -1.725797e-03  -6.872912e-03  0 
 -1.737272e-03  -7.158040e-03  0 
 -1.750151e-03  -7.439765e-03  0 
 -1.767473e-03  -7.722137e-03  0 
 -1.797367e-03  -8.008028e-03  0 
 -3.921851e-03  -8.323797e-03  0 
 -3.623302e-03  -8.282011e-03  0 
 -3.344223e-03  -8.256618e-03  0 
 -3.075350e-03  -8.241985e-03  0 
 -2.812926e-03  -8.235907e-03  0 
 -2.555855e-03  -8.236497e-03  0 
 -2.305507e-03  -8.243365e-03  0 
 -2.066475e-03  -8.260202e-03  0 
 -3.688627e-03  -6.126372e-03  0 
 -3.532057e-03  -6.128087e-03  0 
 -3.321983e-03  -6.109363e-03  0 
 -3.088262e-03  -6.083192e-03  0 
 -2.841337e-03  -6.052613e-03  0 
 -2.585034e-03  -6.016936e-03  0 
 -2.318858e-03  -5.974818e-03  0 
 -2.034410e-03  -5.929705e-03  0 
 -3.736761e-03  -6.334051e-03  0 
 -3.537743e-03  -6.334559e-03  0 
 -3.325083e-03  -6.337005e-03  0 
 -3.092065e-03  -6.329402e-03  0 
 -2.845317e-03  -6.314638e-03  0 
 -2.587420e-03  -6.295896e-03  0 
 -2.315579e-03  -6.278325e-03  0 
 -2.015653e-03  -6.273812e-03  0 
 -3.786334e-03  -6.581789e-03  0 
 -3.555690e-03  -6.577727e-03  0 
 -3.326840e-03  -6.581612e-03  0 
 -3.089955e-03  -6.584966e-03  0 
 -2.841446e-03  -6.583970e-03  0 
 -2.580402e-03  -6.580894e-03  0 
 -2.303451e-03  -6.580448e-03  0 
 -2.011356e-03  -6.581910e-03  0 
 -3.827378e-03  -6.846446e-03  0 
 -3.576928e-03  -6.841605e-03  0 
 -3.331672e-03  -6.844854e-03  0 
 -3.085698e-03  -6.852322e-03  0 
 -2.833399e-03  -6.860007e-03  0 
 -2.570704e-03  -6.866624e-03  0 
 -2.296415e-03  -6.871839e-03  0 
 -2.013118e-03  -6.874283e-03  0 
 -3.859785e-03  -7.120311e-03  0 
 -3.595192e-03  -7.116771e-03  0 
 -3.336582e-03  -7.120447e-03  0 
 -3.081429e-03  -7.129271e-03  0 
 -2.825475e-03  -7.140310e-03  0 
 -2.564139e-03  -7.150558e-03  0 
 -2.294932e-03  -7.157390e-03  0 
 -2.018438e-03  -7.159587e-03  0 
 -3.884925e-03  -7.401244e-03  0 
 -3.607997e-03  -7.399576e-03  0 
 -3.338989e-03  -7.403438e-03  0 
 -3.077364e-03  -7.410905e-03  0 
 -2.819458e-03  -7.421158e-03  0 
 -2.561392e-03  -7.432412e-03  0 
 -2.298616e-03  -7.440392e-03  0 
 -2.027990e-03  -7.442399e-03  0 
 -3.903684e-03  -7.690914e-03  0 
 -3.614156e-03  -7.690163e-03  0 
 -3.339064e-03  -7.690265e-03  0 
 -3.074199e-03  -7.692546e-03  0 
 -2.815218e-03  -7.698784e-03  0 
 -2.559701e-03  -7.708983e-03  0 
 -2.305860e-03  -7.721171e-03  0 
 -2.043779e-03  -7.725552e-03  0 
 -3.913214e-03  -7.998498e-03  0 
 -3.616551e-03  -7.987426e-03  0 
 -3.339905e-03  -7.976388e-03  0 
 -3.073284e-03  -7.970503e-03  0 
 -2.812910e-03  -7.970675e-03  0 
 -2.557475e-03  -7.977019e-03  0 
 -2.307639e-03  -7.990147e-03  0 
 -2.067224e-03  -8.011483e-03  0 
VECTORS displacement_ITER7 FLOAT
 -3.584903e-03  -6.092040e-03  0 
 -1.659489e-03  -5.416729e-03  0 
 -4.277963e-03  -8.392567e-03  0 
 -1.869759e-03  -8.314909e-03  0 
 -3.661146e-03  -6.021147e-03  0 
 -3.507409e-03  -5.945935e-03  0 
 -3.298393e-03  -5.890229e-03  0 
 -3.064534e-03  -5.844116e-03  0 
 -2.817212e-03  -5.799373e-03  0 
 -2.559528e-03  -5.750228e-03  0 
 -2.291587e-03  -5.688371e-03  0 
 -2.005999e-03  -5.596173e-03  0 
 -3.808849e-03  -6.149528e-03  0 
 -3.936397e-03  -6.355576e-03  0 
 -4.017620e-03  -6.600134e-03  0 
 -4.075098e-03  -6.861624e-03  0 
 -4.118650e-03  -7.132984e-03  0 
 -4.154348e-03  -7.411897e-03  0 
 -4.188247e-03  -7.700445e-03  0 
 -4.228610e-03  -8.007736e-03  0 
 -1.653335e-03  -5.925655e-03  0 
 -1.679157e-03  -6.273561e-03  0 
 -1.698988e-03  -6.583205e-03  0 
 -1.713032e-03  -6.875827e-03  0 
 -1.725254e-03  -7.161112e-03  0 
 -1.738685e-03  -7.442988e-03  0 
 -1.757191e-03  -7.724823e-03  0 
 -1.788668e-03  -8.009386e-03  0 
 -3.908807e-03  -8.326825e-03  0 
 -3.609939e-03  -8.284485e-03  0 
 -3.331208e-03  -8.258777e-03  0 
 -3.062423e-03  -8.244056e-03  0 
 -2.800150e-03  -8.237828e-03  0 
 -2.543233e-03  -8.238199e-03  0 
 -2.293249e-03  -8.244239e-03  0 
 -2.055494e-03  -8.259542e-03  0 
 -3.676386e-03  -6.129391e-03  0 
 -3.519800e-03  -6.131109e-03  0 
 -3.309669e-03  -6.112327e-03  0 
 -3.075924e-03  -6.086076e-03  0 
 -2.828870e-03  -6.055380e-03  0 
 -2.572306e-03  -6.019563e-03  0 
 -2.305623e-03  -5.977335e-03  0 
 -2.019630e-03  -5.932634e-03  0 
 -3.724258e-03  -6.336779e-03  0 
 -3.525373e-03  -6.337432e-03  0 
 -3.312728e-03  -6.339930e-03  0 
 -3.079677e-03  -6.332354e-03  0 
 -2.832817e-03  -6.317624e-03  0 
 -2.574647e-03  -6.298948e-03  0 
 -2.302187e-03  -6.281583e-03  0 
 -2.001409e-03  -6.277179e-03  0 
 -3.773745e-03  -6.584404e-03  0 
 -3.543162e-03  -6.580463e-03  0 
 -3.314357e-03  -6.584485e-03  0 
 -3.077462e-03  -6.587967e-03  0 
 -2.828864e-03  -6.587122e-03  0 
 -2.567595e-03  -6.584230e-03  0 
 -2.290297e-03  -6.583902e-03  0 
 -1.997905e-03  -6.585210e-03  0 
 -3.814672e-03  -6.848957e-03  0 
 -3.564252e-03  -6.844269e-03  0 
 -3.319030e-03  -6.847657e-03  0 
 -3.073063e-03  -6.855300e-03  0 
 -2.820730e-03  -6.863192e-03  0 
 -2.557979e-03  -6.869998e-03  0 
 -2.283649e-03  -6.875271e-03  0 
 -2.000350e-03  -6.877567e-03  0 
 -3.846972e-03  -7.122860e-03  0 
 -3.582401e-03  -7.119366e-03  0 
 -3.323803e-03  -7.123148e-03  0 
 -3.068649e-03  -7.132135e-03  0 
 -2.812730e-03  -7.143366e-03  0 
 -2.551513e-03  -7.153789e-03  0 
 -2.282513e-03  -7.160714e-03  0 
 -2.006245e-03  -7.162852e-03  0 
 -3.872111e-03  -7.403783e-03  0 
 -3.595164e-03  -7.402065e-03  0 
 -3.326099e-03  -7.406016e-03  0 
 -3.064459e-03  -7.413597e-03  0 
 -2.806632e-03  -7.423954e-03  0 
 -2.548788e-03  -7.435336e-03  0 
 -2.286416e-03  -7.443471e-03  0 
 -2.016285e-03  -7.445579e-03  0 
 -3.890944e-03  -7.693181e-03  0 
 -3.601260e-03  -7.692541e-03  0 
 -3.326057e-03  -7.692754e-03  0 
 -3.061223e-03  -7.695047e-03  0 
 -2.802341e-03  -7.701246e-03  0 
 -2.547033e-03  -7.711433e-03  0 
 -2.293686e-03  -7.723731e-03  0 
 -2.032470e-03  -7.728319e-03  0 
 -3.900463e-03  -8.000632e-03  0 
 -3.603415e-03  -7.989855e-03  0 
 -3.326817e-03  -7.978797e-03  0 
 -3.060324e-03  -7.972785e-03  0 
 -2.800062e-03  -7.972829e-03  0 
 -2.544773e-03  -7.978954e-03  0 
 -2.295328e-03  -7.991830e-03  0 
 -2.056167e-03  -8.013044e-03  0 
VECTORS displacement_ITER8 FLOAT
 -3.586184e-03  -6.106633e-03  0 
 -1.664238e-03  -5.428881e-03  0 
 -4.278546e-03  -8.395856e-03  0 
 -1.887103e-03  -8.313381e-03  0 
 -3.662893e-03  -6.035729e-03  0 
 -3.510175e-03  -5.960349e-03  0 
 -3.302373e-03  -5.904800e-03  0 
 -3.069722e-03  -5.858527e-03  0 
 -2.823385e-03  -5.813672e-03  0 
 -2.566834e-03  -5.764355e-03  0 
 -2.299856e-03  -5.702363e-03  0 
 -2.014305e-03  -5.608851e-03  0 
 -3.809364e-03  -6.162918e-03  0 
 -3.936659e-03  -6.367858e-03  0 
 -4.017452e-03  -6.611127e-03  0 
 -4.074741e-03  -6.871103e-03  0 
 -4.118219e-03  -7.141054e-03  0 
 -4.153813e-03  -7.418728e-03  0 
 -4.187667e-03  -7.705721e-03  0 
 -4.228489e-03  -8.011733e-03  0 
 -1.661048e-03  -5.939513e-03  0 
 -1.688852e-03  -6.286372e-03  0 
 -1.709569e-03  -6.594694e-03  0 
 -1.724411e-03  -6.885935e-03  0 
 -1.737209e-03  -7.169669e-03  0 
 -1.751272e-03  -7.450054e-03  0 
 -1.770800e-03  -7.730284e-03  0 
 -1.803837e-03  -8.012857e-03  0 
 -3.909472e-03  -8.330075e-03  0 
 -3.611847e-03  -8.287374e-03  0 
 -3.334453e-03  -8.261378e-03  0 
 -3.066981e-03  -8.246534e-03  0 
 -2.806128e-03  -8.240075e-03  0 
 -2.550753e-03  -8.240107e-03  0 
 -2.302584e-03  -8.245415e-03  0 
 -2.067228e-03  -8.259388e-03  0 
 -3.678081e-03  -6.142903e-03  0 
 -3.522553e-03  -6.144558e-03  0 
 -3.313604e-03  -6.125706e-03  0 
 -3.081064e-03  -6.099457e-03  0 
 -2.835138e-03  -6.068718e-03  0 
 -2.579621e-03  -6.032863e-03  0 
 -2.313830e-03  -5.990646e-03  0 
 -2.027876e-03  -5.946362e-03  0 
 -3.725697e-03  -6.349073e-03  0 
 -3.528058e-03  -6.349713e-03  0 
 -3.316618e-03  -6.352192e-03  0 
 -3.084768e-03  -6.344636e-03  0 
 -2.839066e-03  -6.329969e-03  0 
 -2.581939e-03  -6.311408e-03  0 
 -2.310274e-03  -6.294309e-03  0 
 -2.010087e-03  -6.290152e-03  0 