# vtk DataFile Version 3.1
this is an vtk file created by FEMAC
ASCII
DATASET UNSTRUCTURED_GRID
POINTS 100 FLOAT
5.000000 4.000000 0.000000
5.000000 5.000000 0.000000
6.000000 4.000000 0.000000
6.000000 5.000000 0.000000
5.000000 4.111111 0.000000
5.000000 4.222222 0.000000
5.000000 4.333333 0.000000
5.000000 4.444444 0.000000
5.000000 4.555556 0.000000
5.000000 4.666667 0.000000
5.000000 4.777778 0.000000
5.000000 4.888889 0.000000
5.111111 4.000000 0.000000
5.222222 4.000000 0.000000
5.333333 4.000000 0.000000
5.444444 4.000000 0.000000
5.555556 4.000000 0.000000
5.666667 4.000000 0.000000
5.777778 4.000000 0.000000
5.888889 4.000000 0.000000
5.111111 5.000000 0.000000
5.222222 5.000000 0.000000
5.333333 5.000000 0.000000
5.444444 5.000000 0.000000
5.555556 5.000000 0.000000
5.666667 5.000000 0.000000
5.777778 5.000000 0.000000
5.888889 5.000000 0.000000
6.000000 4.111111 0.000000
6.000000 4.222222 0.000000
6.000000 4.333333 0.000000
6.000000 4.444444 0.000000
6.000000 4.555556 0.000000
6.000000 4.666667 0.000000
6.000000 4.777778 0.000000
6.000000 4.888889 0.000000
5.111111 4.111111 0.000000
5.111111 4.222222 0.000000
5.111111 4.333333 0.000000
5.111111 4.444444 0.000000
5.111111 4.555556 0.000000
5.111111 4.666667 0.000000
5.111111 4.777778 0.000000
5.111111 4.888889 0.000000
5.222222 4.111111 0.000000
5.222222 4.222222 0.000000
5.222222 4.333333 0.000000
5.222222 4.444444 0.000000
5.222222 4.555556 0.000000
5.222222 4.666667 0.000000
5.222222 4.777778 0.000000
5.222222 4.888889 0.000000
5.333333 4.111111 0.000000
5.333333 4.222222 0.000000
5.333333 4.333333 0.000000
5.333333 4.444444 0.000000
5.333333 4.555556 0.000000
5.333333 4.666667 0.000000
5.333333 4.777778 0.000000
5.333333 4.888889 0.000000
5.444444 4.111111 0.000000
5.444444 4.222222 0.000000
5.444444 4.333333 0.000000
5.444444 4.444444 0.000000
5.444444 4.555556 0.000000
5.444444 4.666667 0.000000
5.444444 4.777778 0.000000
5.444444 4.888889 0.000000
5.555556 4.111111 0.000000
5.555556 4.222222 0.000000
5.555556 4.333333 0.000000
5.555556 4.444444 0.000000
5.555556 4.555556 0.000000
5.555556 4.666667 0.000000
5.555556 4.777778 0.000000
5.555556 4.888889 0.000000
5.666667 4.111111 0.000000
5.666667 4.222222 0.000000
5.666667 4.333333 0.000000
5.666667 4.444444 0.000000
5.666667 4.555556 0.000000
5.666667 4.666667 0.000000
5.666667 4.777778 0.000000
5.666667 4.888889 0.000000
5.777778 4.111111 0.000000
5.777778 4.222222 0.000000
5.777778 4.333333 0.000000
5.777778 4.444444 0.000000
5.777778 4.555556 0.000000
5.777778 4.666667 0.000000
5.777778 4.777778 0.000000
5.777778 4.888889 0.000000
5.888889 4.111111 0.000000
5.888889 4.222222 0.000000
5.888889 4.333333 0.000000
5.888889 4.444444 0.000000
5.888889 4.555556 0.000000
5.888889 4.666667 0.000000
5.888889 4.777778 0.000000
5.888889 4.888889 0.000000
CELLS 81 405 
4 0 12 36  4
4 4 36 37  5
4 5 37 38  6
4 6 38 39  7
4 7 39 40  8
4 8 40 41  9
4 9 41 42 10
4 10 42 43 11
4 11 43 20  1
4 12 13 44 36
4 36 44 45 37
4 37 45 46 38
4 38 46 47 39
4 39 47 48 40
4 40 48 49 41
4 41 49 50 42
4 42 50 51 43
4 43 51 21 20
4 13 14 52 44
4 44 52 53 45
4 45 53 54 46
4 46 54 55 47
4 47 55 56 48
4 48 56 57 49
4 49 57 58 50
4 50 58 59 51
4 51 59 22 21
4 14 15 60 52
4 52 60 61 53
4 53 61 62 54
4 54 62 63 55
4 55 63 64 56
4 56 64 65 57
4 57 65 66 58
4 58 66 67 59
4 59 67 23 22
4 15 16 68 60
4 60 68 69 61
4 61 69 70 62
4 62 70 71 63
4 63 71 72 64
4 64 72 73 65
4 65 73 74 66
4 66 74 75 67
4 67 75 24 23
4 16 17 76 68
4 68 76 77 69
4 69 77 78 70
4 70 78 79 71
4 71 79 80 72
4 72 80 81 73
4 73 81 82 74
4 74 82 83 75
4 75 83 25 24
4 17 18 84 76
4 76 84 85 77
4 77 85 86 78
4 78 86 87 79
4 79 87 88 80
4 80 88 89 81
4 81 89 90 82
4 82 90 91 83
4 83 91 26 25
4 18 19 92 84
4 84 92 93 85
4 85 93 94 86
4 86 94 95 87
4 87 95 96 88
4 88 96 97 89
4 89 97 98 90
4 90 98 99 91
4 91 99 27 26
4 19  2 28 92
4 92 28 29 93
4 93 29 30 94
4 94 30 31 95
4 95 31 32 96
4 96 32 33 97
4 97 33 34 98
4 98 34 35 99
4 99 35  3 27
CELL_TYPES 81
9 9 9 9 9 9 9 9 9 9 9 9 9 9 9 9 9 9 9 9 9 9 9 9 9 9 9 9 9 9 9 9 9 9 9 9 9 9 9 9 9 9 9 9 9 9 9 9 9 9 9 9 9 9 9 9 9 9 9 9 9 9 9 9 9 9 9 9 9 9 9 9 9 9 9 9 9 9 9 9 9 
POINT_DATA 100
VECTORS displacement_ITER1 FLOAT
 5.246969e-03  -1.710011e-02  0 
 9.237544e-03  -1.737800e-02  0 
 5.172196e-03  -2.116411e-02  0 
 9.281235e-03  -2.214605e-02  0 
 5.503994e-03  -1.682474e-02  0 
 5.939402e-03  -1.699438e-02  0 
 6.435429e-03  -1.705256e-02  0 
 6.923343e-03  -1.701079e-02  0 
 7.403980e-03  -1.692620e-02  0 
 7.830909e-03  -1.684542e-02  0 
 8.191240e-03  -1.686396e-02  0 
 8.712062e-03  -1.727089e-02  0 
 5.181474e-03  -1.745504e-02  0 
 5.184464e-03  -1.799349e-02  0 
 5.149569e-03  -1.839646e-02  0 
 5.153644e-03  -1.887340e-02  0 
 5.233435e-03  -1.934931e-02  0 
 5.281329e-03  -1.977574e-02  0 
 5.253287e-03  -2.020059e-02  0 
 5.197604e-03  -2.065478e-02  0 
 9.191487e-03  -1.791578e-02  0 
 9.319178e-03  -1.840179e-02  0 
 9.338956e-03  -1.892654e-02  0 
 9.308093e-03  -1.944203e-02  0 
 9.284364e-03  -1.991603e-02  0 
 9.268246e-03  -2.038575e-02  0 
 9.274139e-03  -2.086371e-02  0 
 9.286729e-03  -2.133237e-02  0 
 5.724085e-03  -2.129359e-02  0 
 6.186643e-03  -2.139977e-02  0 
 6.620312e-03  -2.150635e-02  0 
 7.047860e-03  -2.160485e-02  0 
 7.474608e-03  -2.168870e-02  0 
 7.899071e-03  -2.175780e-02  0 
 8.318871e-03  -2.182098e-02  0 
 8.740888e-03  -2.191159e-02  0 
 5.545939e-03  -1.750838e-02  0 
 5.988315e-03  -1.754100e-02  0 
 6.424396e-03  -1.758533e-02  0 
 6.878306e-03  -1.759037e-02  0 
 7.341667e-03  -1.756904e-02  0 
 7.812132e-03  -1.756457e-02  0 
 8.328997e-03  -1.765639e-02  0 
 8.817078e-03  -1.777948e-02  0 
 5.559730e-03  -1.801690e-02  0 
 5.985669e-03  -1.807629e-02  0 
 6.427232e-03  -1.812154e-02  0 
 6.875184e-03  -1.815573e-02  0 
 7.343846e-03  -1.818310e-02  0 
 7.843216e-03  -1.822605e-02  0 
 8.352916e-03  -1.828127e-02  0 
 8.839511e-03  -1.833651e-02  0 
 5.567123e-03  -1.850426e-02  0 
 5.998740e-03  -1.858810e-02  0 
 6.437751e-03  -1.865366e-02  0 
 6.891923e-03  -1.870900e-02  0 
 7.367004e-03  -1.876227e-02  0 
 7.860540e-03  -1.881245e-02  0 
 8.357320e-03  -1.885635e-02  0 
 8.847297e-03  -1.889666e-02  0 
 5.596986e-03  -1.899308e-02  0 
 6.020138e-03  -1.908812e-02  0 
 6.458021e-03  -1.916937e-02  0 
 6.913966e-03  -1.924236e-02  0 
 7.387006e-03  -1.930615e-02  0 
 7.871652e-03  -1.935785e-02  0 
 8.359894e-03  -1.939698e-02  0 
 8.843132e-03  -1.942551e-02  0 
 5.624649e-03  -1.946817e-02  0 
 6.044161e-03  -1.956939e-02  0 
 6.482897e-03  -1.966610e-02  0 
 6.936984e-03  -1.975293e-02  0 
 7.402670e-03  -1.982457e-02  0 
 7.877695e-03  -1.987672e-02  0 
 8.357178e-03  -1.990902e-02  0 
 8.830834e-03  -1.992278e-02  0 
 5.649534e-03  -1.990790e-02  0 
 6.071079e-03  -2.003202e-02  0 
 6.512670e-03  -2.014543e-02  0 
 6.962142e-03  -2.024344e-02  0 
 7.416733e-03  -2.032213e-02  0 
 7.877208e-03  -2.037733e-02  0 
 8.346287e-03  -2.040305e-02  0 
 8.815451e-03  -2.040361e-02  0 
 5.669951e-03  -2.034095e-02  0 
 6.106715e-03  -2.048609e-02  0 
 6.548477e-03  -2.061190e-02  0 
 6.990281e-03  -2.071541e-02  0 
 7.432641e-03  -2.079879e-02  0 
 7.875770e-03  -2.086118e-02  0 
 8.324123e-03  -2.089500e-02  0 
 8.797397e-03  -2.088383e-02  0 
 5.691082e-03  -2.080046e-02  0 
 6.149171e-03  -2.094499e-02  0 
 6.586304e-03  -2.106690e-02  0 
 7.019572e-03  -2.116907e-02  0 
 7.452354e-03  -2.125376e-02  0 
 7.882762e-03  -2.132256e-02  0 
 8.309735e-03  -2.137705e-02  0 
 8.748485e-03  -2.140668e-02  0 
VECTORS displacement_ITER2 FLOAT
 3.858789e-03  -1.310109e-02  0 
 7.189866e-03  -1.346744e-02  0 
 4.266605e-03  -1.623344e-02  0 
 7.172958e-03  -1.747743e-02  0 
 4.621989e-03  -1.315136e-02  0 
 4.735279e-03  -1.347714e-02  0 
 5.021087e-03  -1.344666e-02  0 
 5.336398e-03  -1.336134e-02  0 
 5.738157e-03  -1.327736e-02  0 
 6.142589e-03  -1.330531e-02  0 
 6.368001e-03  -1.341501e-02  0 
 6.707022e-03  -1.359492e-02  0 
 4.194129e-03  -1.381338e-02  0 
 4.329080e-03  -1.398585e-02  0 
 4.251386e-03  -1.427960e-02  0 
 4.239200e-03  -1.470781e-02  0 
 4.258617e-03  -1.510935e-02  0 
 4.251210e-03  -1.543426e-02  0 
 4.177714e-03  -1.570897e-02  0 
 4.173679e-03  -1.594026e-02  0 
 7.159935e-03  -1.407474e-02  0 
 7.167407e-03  -1.447876e-02  0 
 7.211998e-03  -1.488508e-02  0 
 7.214043e-03  -1.529870e-02  0 
 7.246280e-03  -1.569492e-02  0 
 7.258452e-03  -1.612556e-02  0 
 7.213823e-03  -1.660314e-02  0 
 7.120918e-03  -1.697991e-02  0 
 4.570790e-03  -1.646132e-02  0 
 4.898805e-03  -1.663569e-02  0 
 5.224045e-03  -1.677840e-02  0 
 5.544787e-03  -1.690350e-02  0 
 5.864205e-03  -1.701609e-02  0 
 6.184401e-03  -1.711797e-02  0 
 6.503448e-03  -1.720988e-02  0 
 6.805383e-03  -1.730155e-02  0 
 4.499097e-03  -1.377604e-02  0 
 4.792501e-03  -1.376007e-02  0 
 5.022532e-03  -1.382661e-02  0 
 5.340304e-03  -1.384323e-02  0 
 5.717676e-03  -1.385210e-02  0 
 6.101639e-03  -1.385825e-02  0 
 6.458440e-03  -1.391274e-02  0 
 6.785514e-03  -1.399224e-02  0 
 4.474124e-03  -1.411151e-02  0 
 4.762367e-03  -1.417313e-02  0 
 5.056279e-03  -1.422554e-02  0 
 5.367889e-03  -1.428683e-02  0 
 5.720987e-03  -1.432773e-02  0 
 6.096771e-03  -1.435822e-02  0 
 6.471085e-03  -1.439066e-02  0 
 6.834505e-03  -1.443721e-02  0 
 4.516442e-03  -1.443366e-02  0 
 4.777321e-03  -1.455399e-02  0 
 5.073632e-03  -1.463594e-02  0 
 5.392576e-03  -1.470611e-02  0 
 5.735296e-03  -1.476647e-02  0 
 6.100571e-03  -1.481025e-02  0 
 6.476285e-03  -1.484204e-02  0 
 6.844759e-03  -1.486676e-02  0 
 4.533220e-03  -1.481920e-02  0 
 4.802737e-03  -1.492523e-02  0 
 5.092925e-03  -1.502383e-02  0 
 5.410629e-03  -1.511000e-02  0 
 5.749105e-03  -1.518272e-02  0 
 6.105502e-03  -1.523744e-02  0 
 6.476268e-03  -1.527036e-02  0 
 6.853764e-03  -1.528698e-02  0 
 4.526638e-03  -1.519492e-02  0 
 4.809901e-03  -1.528978e-02  0 
 5.110832e-03  -1.539540e-02  0 
 5.429148e-03  -1.549637e-02  0 
 5.762568e-03  -1.558293e-02  0 
 6.109441e-03  -1.564950e-02  0 
 6.471261e-03  -1.569097e-02  0 
 6.851554e-03  -1.570238e-02  0 
 4.508380e-03  -1.552487e-02  0 
 4.811894e-03  -1.563786e-02  0 
 5.128470e-03  -1.575647e-02  0 
 5.451048e-03  -1.586882e-02  0 
 5.779922e-03  -1.596762e-02  0 
 6.116545e-03  -1.604809e-02  0 
 6.465007e-03  -1.610559e-02  0 
 6.835131e-03  -1.613467e-02  0 
 4.499611e-03  -1.583143e-02  0 
 4.826157e-03  -1.597461e-02  0 
 5.152526e-03  -1.610777e-02  0 
 5.477901e-03  -1.622866e-02  0 
 5.803539e-03  -1.633589e-02  0 
 6.131509e-03  -1.642886e-02  0 
 6.466061e-03  -1.650608e-02  0 
 6.818851e-03  -1.656412e-02  0 
 4.521329e-03  -1.614523e-02  0 
 4.856552e-03  -1.630673e-02  0 
 5.185485e-03  -1.644894e-02  0 
 5.509882e-03  -1.657444e-02  0 
 5.832564e-03  -1.668594e-02  0 
 6.155780e-03  -1.678598e-02  0 
 6.479075e-03  -1.687816e-02  0 
 6.805365e-03  -1.695807e-02  0 
VECTORS displacement_ITER3 FLOAT
 3.343841e-03  -1.179266e-02  0 
 6.112996e-03  -1.202703e-02  0 
 3.504521e-03  -1.446911e-02  0 
 6.029891e-03  -1.571065e-02  0 
 3.738157e-03  -1.184190e-02  0 
 3.893813e-03  -1.194390e-02  0 
 4.243774e-03  -1.190471e-02  0 
 4.527125e-03  -1.190146e-02  0 
 4.786679e-03  -1.190107e-02  0 
 5.049138e-03  -1.192018e-02  0 
 5.252998e-03  -1.196591e-02  0 
 5.617233e-03  -1.202638e-02  0 
 3.452699e-03  -1.227767e-02  0 
 3.482339e-03  -1.243543e-02  0 
 3.485572e-03  -1.275510e-02  0 
 3.536058e-03  -1.306881e-02  0 
 3.533580e-03  -1.336223e-02  0 
 3.503745e-03  -1.366775e-02  0 
 3.459684e-03  -1.396853e-02  0 
 3.478120e-03  -1.422135e-02  0 
 6.076605e-03  -1.248258e-02  0 
 6.061272e-03  -1.291226e-02  0 
 6.082128e-03  -1.331888e-02  0 
 6.089365e-03  -1.372614e-02  0 
 6.120362e-03  -1.412396e-02  0 
 6.123273e-03  -1.452404e-02  0 
 6.100441e-03  -1.494990e-02  0 
 6.021585e-03  -1.532797e-02  0 
 3.810502e-03  -1.467674e-02  0 
 4.100731e-03  -1.483434e-02  0 
 4.380560e-03  -1.497184e-02  0 
 4.652927e-03  -1.510215e-02  0 
 4.925501e-03  -1.522705e-02  0 
 5.202593e-03  -1.534513e-02  0 
 5.483434e-03  -1.545475e-02  0 
 5.754515e-03  -1.555918e-02  0 
 3.675671e-03  -1.225602e-02  0 
 3.932474e-03  -1.228372e-02  0 
 4.195687e-03  -1.232955e-02  0 
 4.488236e-03  -1.233579e-02  0 
 4.772556e-03  -1.234941e-02  0 
 5.054501e-03  -1.237039e-02  0 
 5.354503e-03  -1.241852e-02  0 
 5.695311e-03  -1.247849e-02  0 
 3.674904e-03  -1.257539e-02  0 
 3.928706e-03  -1.265050e-02  0 
 4.193580e-03  -1.270466e-02  0 
 4.472292e-03  -1.274782e-02  0 
 4.766955e-03  -1.277952e-02  0 
 5.073426e-03  -1.281604e-02  0 
 5.395534e-03  -1.285954e-02  0 
 5.728907e-03  -1.289663e-02  0 
 3.713329e-03  -1.288323e-02  0 
 3.941202e-03  -1.298905e-02  0 
 4.199174e-03  -1.306910e-02  0 
 4.476631e-03  -1.313464e-02  0 
 4.772640e-03  -1.319031e-02  0 
 5.086304e-03  -1.323800e-02  0 
 5.412195e-03  -1.327789e-02  0 
 5.743093e-03  -1.330656e-02  0 
 3.731360e-03  -1.319768e-02  0 
 3.962352e-03  -1.331222e-02  0 
 4.215647e-03  -1.341544e-02  0 
 4.490961e-03  -1.350408e-02  0 
 4.784612e-03  -1.357903e-02  0 
 5.094745e-03  -1.363892e-02  0 
 5.419104e-03  -1.368166e-02  0 
 5.754663e-03  -1.370863e-02  0 
 3.745331e-03  -1.349767e-02  0 
 3.982342e-03  -1.362774e-02  0 
 4.239720e-03  -1.374799e-02  0 
 4.513275e-03  -1.385589e-02  0 
 4.801437e-03  -1.394849e-02  0 
 5.103402e-03  -1.402311e-02  0 
 5.421337e-03  -1.407648e-02  0 
 5.758891e-03  -1.410684e-02  0 
 3.749721e-03  -1.379722e-02  0 
 4.004300e-03  -1.393651e-02  0 
 4.268635e-03  -1.407005e-02  0 
 4.542401e-03  -1.419201e-02  0 
 4.824813e-03  -1.429926e-02  0 
 5.116918e-03  -1.439009e-02  0 
 5.422826e-03  -1.446161e-02  0 
 5.753693e-03  -1.450826e-02  0 
 3.752347e-03  -1.409789e-02  0 
 4.028456e-03  -1.424143e-02  0 
 4.302588e-03  -1.438304e-02  0 
 4.576901e-03  -1.451331e-02  0 
 4.854895e-03  -1.463038e-02  0 
 5.138893e-03  -1.473497e-02  0 
 5.431511e-03  -1.482743e-02  0 
 5.741346e-03  -1.490255e-02  0 
 3.765786e-03  -1.438764e-02  0 
 4.060611e-03  -1.454240e-02  0 
 4.340641e-03  -1.468570e-02  0 
 4.614540e-03  -1.481814e-02  0 
 4.889343e-03  -1.494026e-02  0 
 5.168951e-03  -1.505331e-02  0 
 5.452848e-03  -1.516004e-02  0 
 5.738648e-03  -1.526172e-02  0 
VECTORS displacement_ITER4 FLOAT
 3.246053e-03  -1.147759e-02  0 
 5.715903e-03  -1.164919e-02  0 
 3.188295e-03  -1.396193e-02  0 
 5.744340e-03  -1.515763e-02  0 
 3.334526e-03  -1.144573e-02  0 
 3.624368e-03  -1.137906e-02  0 
 3.992146e-03  -1.136809e-02  0 
 4.281798e-03  -1.137742e-02  0 
 4.531361e-03  -1.139129e-02  0 
 4.779567e-03  -1.139234e-02  0 
 5.027506e-03  -1.142293e-02  0 
 5.344983e-03  -1.149014e-02  0 
 3.191744e-03  -1.170026e-02  0 
 3.132726e-03  -1.197103e-02  0 
 3.190320e-03  -1.229969e-02  0 
 3.244889e-03  -1.256686e-02  0 
 3.253217e-03  -1.282916e-02  0 
 3.238703e-03  -1.311524e-02  0 
 3.214258e-03  -1.340528e-02  0 
 3.207722e-03  -1.367954e-02  0 
 5.743091e-03  -1.194023e-02  0 
 5.740304e-03  -1.237985e-02  0 
 5.732335e-03  -1.280467e-02  0 
 5.716949e-03  -1.321292e-02  0 
 5.708045e-03  -1.359620e-02  0 
 5.709314e-03  -1.395293e-02  0 
 5.737326e-03  -1.431203e-02  0 
 5.756230e-03  -1.471915e-02  0 
 3.539537e-03  -1.413504e-02  0 
 3.825874e-03  -1.427044e-02  0 
 4.091151e-03  -1.439790e-02  0 
 4.348390e-03  -1.452155e-02  0 
 4.606155e-03  -1.464006e-02  0 
 4.868834e-03  -1.475342e-02  0 
 5.140283e-03  -1.486626e-02  0 
 5.430364e-03  -1.499123e-02  0 
 3.359954e-03  -1.174547e-02  0 
 3.621792e-03  -1.180098e-02  0 
 3.930058e-03  -1.181622e-02  0 
 4.227969e-03  -1.181858e-02  0 
 4.504232e-03  -1.183004e-02  0 
 4.780185e-03  -1.185435e-02  0 
 5.078302e-03  -1.189568e-02  0 
 5.411202e-03  -1.194927e-02  0 
 3.389303e-03  -1.207573e-02  0 
 3.635586e-03  -1.215468e-02  0 
 3.907621e-03  -1.220585e-02  0 
 4.195867e-03  -1.223595e-02  0 
 4.488071e-03  -1.226346e-02  0 
 4.785914e-03  -1.229943e-02  0 
 5.096121e-03  -1.234108e-02  0 
 5.412052e-03  -1.236918e-02  0 
 3.410211e-03  -1.240265e-02  0 
 3.649677e-03  -1.248946e-02  0 
 3.909320e-03  -1.256382e-02  0 
 4.188836e-03  -1.262304e-02  0 
 4.483331e-03  -1.267247e-02  0 
 4.787430e-03  -1.271803e-02  0 
 5.096170e-03  -1.275822e-02  0 
 5.409098e-03  -1.278910e-02  0 
 3.432388e-03  -1.269695e-02  0 
 3.666222e-03  -1.280686e-02  0 
 3.922906e-03  -1.290273e-02  0 
 4.197724e-03  -1.298519e-02  0 
 4.487965e-03  -1.305397e-02  0 
 4.789027e-03  -1.310995e-02  0 
 5.095937e-03  -1.315503e-02  0 
 5.405553e-03  -1.319036e-02  0 
 3.456989e-03  -1.297536e-02  0 
 3.689907e-03  -1.310855e-02  0 
 3.945350e-03  -1.322567e-02  0 
 4.216354e-03  -1.332739e-02  0 
 4.499781e-03  -1.341257e-02  0 
 4.794060e-03  -1.348006e-02  0 
 5.097466e-03  -1.353079e-02  0 
 5.404678e-03  -1.356869e-02  0 
 3.473492e-03  -1.325841e-02  0 
 3.718414e-03  -1.340239e-02  0 
 3.975719e-03  -1.353542e-02  0 
 4.242889e-03  -1.365247e-02  0 
 4.518106e-03  -1.375150e-02  0 
 4.802353e-03  -1.383154e-02  0 
 5.098373e-03  -1.389043e-02  0 
 5.406430e-03  -1.392820e-02  0 
 3.484299e-03  -1.354638e-02  0 
 3.748981e-03  -1.369426e-02  0 
 4.012490e-03  -1.383573e-02  0 
 4.275724e-03  -1.396129e-02  0 
 4.542700e-03  -1.407043e-02  0 
 4.816157e-03  -1.416351e-02  0 
 5.099592e-03  -1.423863e-02  0 
 5.403457e-03  -1.428726e-02  0 
 3.499220e-03  -1.383250e-02  0 
 3.786192e-03  -1.398665e-02  0 
 4.052206e-03  -1.412574e-02  0 
 4.311813e-03  -1.425228e-02  0 
 4.572664e-03  -1.436737e-02  0 
 4.838438e-03  -1.447210e-02  0 
 5.112253e-03  -1.456798e-02  0 
 5.401646e-03  -1.465672e-02  0 
VECTORS displacement_ITER5 FLOAT
 2.999710e-03  -1.131601e-02  0 
 5.529868e-03  -1.145898e-02  0 
 3.061345e-03  -1.377452e-02  0 
 5.596443e-03  -1.500026e-02  0 
 3.250339e-03  -1.129846e-02  0 
 3.526651e-03  -1.129207e-02  0 
 3.802238e-03  -1.128413e-02  0 
 4.065030e-03  -1.125666e-02  0 
 4.350471e-03  -1.124535e-02  0 
 4.649614e-03  -1.125721e-02  0 
 4.938642e-03  -1.131377e-02  0 
 5.191105e-03  -1.139219e-02  0 
 3.039797e-03  -1.163110e-02  0 
 3.048959e-03  -1.190043e-02  0 
 3.063567e-03  -1.215395e-02  0 
 3.042956e-03  -1.240787e-02  0 
 3.028931e-03  -1.268891e-02  0 
 3.043371e-03  -1.297256e-02  0 
 3.060912e-03  -1.324177e-02  0 
 3.072512e-03  -1.351185e-02  0 
 5.565577e-03  -1.186554e-02  0 
 5.555267e-03  -1.227463e-02  0 
 5.546562e-03  -1.267355e-02  0 
 5.546675e-03  -1.305950e-02  0 
 5.544805e-03  -1.344674e-02  0 
 5.544929e-03  -1.382385e-02  0 
 5.554369e-03  -1.419414e-02  0 
 5.580919e-03  -1.459185e-02  0 
 3.387247e-03  -1.395870e-02  0 
 3.659797e-03  -1.410866e-02  0 
 3.919655e-03  -1.424782e-02  0 
 4.176909e-03  -1.437822e-02  0 
 4.436499e-03  -1.450032e-02  0 
 4.701584e-03  -1.461579e-02  0 
 4.975836e-03  -1.472921e-02  0 
 5.269295e-03  -1.485135e-02  0 
 3.240189e-03  -1.166332e-02  0 
 3.492184e-03  -1.167998e-02  0 
 3.757903e-03  -1.168773e-02  0 
 4.035931e-03  -1.169817e-02  0 
 4.330750e-03  -1.171536e-02  0 
 4.637852e-03  -1.174161e-02  0 
 4.942356e-03  -1.177609e-02  0 
 5.244766e-03  -1.182597e-02  0 
 3.242079e-03  -1.197233e-02  0 
 3.475598e-03  -1.202706e-02  0 
 3.739477e-03  -1.207042e-02  0 
 4.022716e-03  -1.210928e-02  0 
 4.320847e-03  -1.214668e-02  0 
 4.628645e-03  -1.218215e-02  0 
 4.940712e-03  -1.221732e-02  0 
 5.251589e-03  -1.225178e-02  0 
 3.246731e-03  -1.225795e-02  0 
 3.479280e-03  -1.234988e-02  0 
 3.740186e-03  -1.242732e-02  0 
 4.021660e-03  -1.249220e-02  0 
 4.317721e-03  -1.254708e-02  0 
 4.623694e-03  -1.259306e-02  0 
 4.934872e-03  -1.263007e-02  0 
 5.245214e-03  -1.265669e-02  0 
 3.258891e-03  -1.253976e-02  0 
 3.496072e-03  -1.266073e-02  0 
 3.754551e-03  -1.276396e-02  0 
 4.031009e-03  -1.285087e-02  0 
 4.321501e-03  -1.292240e-02  0 
 4.622061e-03  -1.297901e-02  0 
 4.928594e-03  -1.302070e-02  0 
 5.237206e-03  -1.304744e-02  0 
 3.274356e-03  -1.283150e-02  0 
 3.519573e-03  -1.296512e-02  0 
 3.777461e-03  -1.308556e-02  0 
 4.048890e-03  -1.318987e-02  0 
 4.331889e-03  -1.327658e-02  0 
 4.624574e-03  -1.334474e-02  0 
 4.925362e-03  -1.339442e-02  0 
 5.232218e-03  -1.342759e-02  0 
 3.291645e-03  -1.312208e-02  0 
 3.545772e-03  -1.326331e-02  0 
 3.806106e-03  -1.339500e-02  0 
 4.073847e-03  -1.351238e-02  0 
 4.348952e-03  -1.361218e-02  0 
 4.632340e-03  -1.369318e-02  0 
 4.926116e-03  -1.375435e-02  0 
 5.231774e-03  -1.379662e-02  0 
 3.314692e-03  -1.340193e-02  0 
 3.576232e-03  -1.355268e-02  0 
 3.840306e-03  -1.369358e-02  0 
 4.104683e-03  -1.381929e-02  0 
 4.372718e-03  -1.392931e-02  0 
 4.647166e-03  -1.402364e-02  0 
 4.931549e-03  -1.410136e-02  0 
 5.233408e-03  -1.415823e-02  0 
 3.341927e-03  -1.367308e-02  0 
 3.616142e-03  -1.383557e-02  0 
 3.879125e-03  -1.397947e-02  0 
 4.139697e-03  -1.410894e-02  0 
 4.402493e-03  -1.422617e-02  0 
 4.670557e-03  -1.433256e-02  0 
 4.947316e-03  -1.442953e-02  0 
 5.239790e-03  -1.451793e-02  0 
VECTORS displacement_ITER6 FLOAT
 2.935188e-03  -1.120992e-02  0 
 5.462592e-03  -1.130432e-02  0 
 3.011869e-03  -1.366431e-02  0 
 5.466226e-03  -1.484821e-02  0 
 3.203442e-03  -1.119738e-02  0 
 3.480163e-03  -1.121883e-02  0 
 3.725398e-03  -1.122591e-02  0 
 3.983129e-03  -1.121284e-02  0 
 4.260710e-03  -1.120728e-02  0 
 4.544431e-03  -1.121135e-02  0 
 4.833761e-03  -1.122792e-02  0 
 5.092989e-03  -1.126532e-02  0 
 2.983871e-03  -1.151152e-02  0 
 2.996996e-03  -1.179397e-02  0 
 2.997967e-03  -1.205176e-02  0 
 2.985060e-03  -1.232897e-02  0 
 2.991956e-03  -1.260495e-02  0 
 3.004815e-03  -1.286453e-02  0 
 3.009527e-03  -1.311955e-02  0 
 3.008503e-03  -1.338960e-02  0 
 5.446796e-03  -1.177220e-02  0 
 5.434598e-03  -1.217407e-02  0 
 5.442407e-03  -1.255562e-02  0 
 5.462406e-03  -1.293186e-02  0 
 5.479540e-03  -1.332174e-02  0 
 5.486916e-03  -1.372279e-02  0 
 5.473590e-03  -1.411847e-02  0 
 5.465859e-03  -1.450316e-02  0 
 3.330371e-03  -1.383964e-02  0 
 3.598789e-03  -1.398585e-02  0 
 3.852069e-03  -1.412566e-02  0 
 4.104020e-03  -1.425927e-02  0 
 4.360890e-03  -1.438569e-02  0 
 4.625954e-03  -1.450495e-02  0 
 4.900724e-03  -1.461786e-02  0 
 5.184946e-03  -1.472755e-02  0 
 3.190227e-03  -1.156633e-02  0 
 3.440477e-03  -1.159099e-02  0 
 3.694987e-03  -1.161030e-02  0 
 3.960560e-03  -1.162991e-02  0 
 4.242633e-03  -1.164679e-02  0 
 4.535485e-03  -1.166510e-02  0 
 4.831621e-03  -1.168826e-02  0 
 5.135710e-03  -1.172934e-02  0 
 3.190776e-03  -1.187143e-02  0 
 3.422775e-03  -1.193426e-02  0 
 3.679068e-03  -1.198202e-02  0 
 3.950072e-03  -1.202297e-02  0 
 4.234989e-03  -1.205878e-02  0 
 4.532092e-03  -1.208973e-02  0 
 4.838421e-03  -1.212020e-02  0 
 5.145933e-03  -1.215092e-02  0 
 3.195839e-03  -1.216242e-02  0 
 3.425681e-03  -1.225566e-02  0 
 3.678090e-03  -1.233219e-02  0 
 3.948806e-03  -1.239547e-02  0 
 4.234080e-03  -1.244818e-02  0 
 4.532175e-03  -1.249084e-02  0 
 4.839643e-03  -1.252283e-02  0 
 5.147660e-03  -1.254304e-02  0 
 3.207015e-03  -1.245190e-02  0 
 3.438666e-03  -1.256506e-02  0 
 3.689273e-03  -1.266385e-02  0 
 3.956910e-03  -1.274814e-02  0 
 4.238820e-03  -1.281780e-02  0 
 4.532833e-03  -1.287187e-02  0 
 4.836860e-03  -1.290832e-02  0 
 5.147969e-03  -1.292670e-02  0 
 3.218398e-03  -1.273901e-02  0 
 3.457074e-03  -1.286495e-02  0 
 3.708988e-03  -1.298116e-02  0 
 3.973744e-03  -1.308328e-02  0 
 4.249806e-03  -1.316900e-02  0 
 4.536435e-03  -1.323659e-02  0 
 4.834494e-03  -1.328434e-02  0 
 5.147158e-03  -1.331141e-02  0 
 3.234464e-03  -1.301443e-02  0 
 3.480882e-03  -1.315588e-02  0 
 3.736121e-03  -1.328653e-02  0 
 3.998460e-03  -1.340283e-02  0 
 4.268185e-03  -1.350259e-02  0 
 4.546635e-03  -1.358536e-02  0 
 4.836956e-03  -1.365040e-02  0 
 5.145906e-03  -1.369643e-02  0 
 3.257515e-03  -1.328331e-02  0 
 3.513027e-03  -1.343883e-02  0 
 3.770720e-03  -1.358100e-02  0 
 4.029846e-03  -1.370698e-02  0 
 4.293927e-03  -1.381788e-02  0 
 4.565746e-03  -1.391514e-02  0 
 4.848014e-03  -1.400000e-02  0 
 5.147551e-03  -1.407041e-02  0 
 3.286923e-03  -1.355447e-02  0 
 3.554740e-03  -1.371738e-02  0 
 3.810692e-03  -1.386255e-02  0 
 4.065751e-03  -1.399362e-02  0 
 4.325499e-03  -1.411301e-02  0 
 4.593094e-03  -1.422238e-02  0 
 4.870367e-03  -1.432377e-02  0 
 5.157073e-03  -1.441963e-02  0 
VECTORS displacement_ITER7 FLOAT
 2.891683e-03  -1.121535e-02  0 
 5.351769e-03  -1.127667e-02  0 
 2.955586e-03  -1.361442e-02  0 
 5.415863e-03  -1.482569e-02  0 
 3.126737e-03  -1.117726e-02  0 
 3.401889e-03  -1.117092e-02  0 
 3.672169e-03  -1.116395e-02  0 
 3.949342e-03  -1.117091e-02  0 
 4.217777e-03  -1.118381e-02  0 
 4.479628e-03  -1.119301e-02  0 
 4.758002e-03  -1.119272e-02  0 
 5.036166e-03  -1.122949e-02  0 
 2.915735e-03  -1.147392e-02  0 
 2.923745e-03  -1.175338e-02  0 
 2.925990e-03  -1.202435e-02  0 
 2.937462e-03  -1.230281e-02  0 
 2.952420e-03  -1.256111e-02  0 
 2.953249e-03  -1.281122e-02  0 
 2.948097e-03  -1.306968e-02  0 
 2.945540e-03  -1.333893e-02  0 
 5.355898e-03  -1.172744e-02  0 
 5.380772e-03  -1.213860e-02  0 
 5.397376e-03  -1.253672e-02  0 
 5.399452e-03  -1.292149e-02  0 
 5.396691e-03  -1.329870e-02  0 
 5.396556e-03  -1.367977e-02  0 
 5.389753e-03  -1.406777e-02  0 
 5.394575e-03  -1.445151e-02  0 
 3.271636e-03  -1.379162e-02  0 
 3.541002e-03  -1.393792e-02  0 
 3.793513e-03  -1.407734e-02  0 
 4.043084e-03  -1.421080e-02  0 
 4.296434e-03  -1.433681e-02  0 
 4.556706e-03  -1.445548e-02  0 
 4.826111e-03  -1.456960e-02  0 
 5.108612e-03  -1.468668e-02  0 
 3.114903e-03  -1.153027e-02  0 
 3.368146e-03  -1.155631e-02  0 
 3.638602e-03  -1.157633e-02  0 
 3.915715e-03  -1.159422e-02  0 
 4.192991e-03  -1.161099e-02  0 
 4.472090e-03  -1.162995e-02  0 
 4.762395e-03  -1.165489e-02  0 
 5.064017e-03  -1.168765e-02  0 
 3.122983e-03  -1.183630e-02  0 
 3.358585e-03  -1.190409e-02  0 
 3.619976e-03  -1.195261e-02  0 
 3.894680e-03  -1.199030e-02  0 
 4.177736e-03  -1.202248e-02  0 
 4.468953e-03  -1.205329e-02  0 
 4.769267e-03  -1.208401e-02  0 
 5.075487e-03  -1.211217e-02  0 
 3.134781e-03  -1.213411e-02  0 
 3.364594e-03  -1.222611e-02  0 
 3.617148e-03  -1.230148e-02  0 
 3.887986e-03  -1.236259e-02  0 
 4.172182e-03  -1.241329e-02  0 
 4.467303e-03  -1.245591e-02  0 
 4.771306e-03  -1.249076e-02  0 
 5.081689e-03  -1.251749e-02  0 
 3.147892e-03  -1.242291e-02  0 
 3.377258e-03  -1.253266e-02  0 
 3.626920e-03  -1.263020e-02  0 
 3.893888e-03  -1.271372e-02  0 
 4.174994e-03  -1.278307e-02  0 
 4.467829e-03  -1.283854e-02  0 
 4.770959e-03  -1.288002e-02  0 
 5.082810e-03  -1.290785e-02  0 
 3.161300e-03  -1.269862e-02  0 
 3.395635e-03  -1.282683e-02  0 
 3.646285e-03  -1.294393e-02  0 
 3.910249e-03  -1.304672e-02  0 
 4.185744e-03  -1.313332e-02  0 
 4.472122e-03  -1.320277e-02  0 
 4.769742e-03  -1.325416e-02  0 
 5.079103e-03  -1.328605e-02  0 
 3.178908e-03  -1.296529e-02  0 
 3.421251e-03  -1.311182e-02  0 
 3.674457e-03  -1.324555e-02  0 
 3.935516e-03  -1.336372e-02  0 
 4.204243e-03  -1.346490e-02  0 
 4.481860e-03  -1.354870e-02  0 
 4.770519e-03  -1.361381e-02  0 
 5.073214e-03  -1.365805e-02  0 
 3.200476e-03  -1.323301e-02  0 
 3.455126e-03  -1.339156e-02  0 
 3.710716e-03  -1.353671e-02  0 
 3.967877e-03  -1.366485e-02  0 
 4.229858e-03  -1.377711e-02  0 
 4.499010e-03  -1.387456e-02  0 
 4.777783e-03  -1.395712e-02  0 
 5.072230e-03  -1.402235e-02  0 
 3.228595e-03  -1.350601e-02  0 
 3.497135e-03  -1.366939e-02  0 
 3.751840e-03  -1.381593e-02  0 
 4.004574e-03  -1.394826e-02  0 
 4.261214e-03  -1.406833e-02  0 
 4.524496e-03  -1.417764e-02  0 
 4.796436e-03  -1.427803e-02  0 
 5.080956e-03  -1.437107e-02  0 
VECTORS displacement_ITER8 FLOAT
 2.843258e-03  -1.117042e-02  0 
 5.304274e-03  -1.125901e-02  0 
 2.928241e-03  -1.357572e-02  0 
 5.361306e-03  -1.480214e-02  0 
 3.101049e-03  -1.116324e-02  0 
 3.353524e-03  -1.116121e-02  0 
 3.618857e-03  -1.114654e-02  0 
 3.896854e-03  -1.114532e-02  0 
 4.171976e-03  -1.114894e-02  0 
 4.445856e-03  -1.115981e-02  0 
 4.722025e-03  -1.116780e-02  0 
 5.011581e-03  -1.119755e-02  0 
 2.878098e-03  -1.146589e-02  0 
 2.902278e-03  -1.172488e-02  0 
 2.903961e-03  -1.198651e-02  0 
 2.906652e-03  -1.225090e-02  0 
 2.902522e-03  -1.251414e-02  0 
 2.896789e-03  -1.278558e-02  0 
 2.903265e-03  -1.305812e-02  0 
 2.913864e-03  -1.332076e-02  0 
 5.312571e-03  -1.169440e-02  0 
 5.334746e-03  -1.210620e-02  0 
 5.349531e-03  -1.250515e-02  0 
 5.352181e-03  -1.289588e-02  0 
 5.348055e-03  -1.327515e-02  0 
 5.346305e-03  -1.364909e-02  0 
 5.348140e-03  -1.402943e-02  0 
 5.353042e-03  -1.441613e-02  0 
 3.229486e-03  -1.376162e-02  0 
 3.496612e-03  -1.391169e-02  0 
 3.750873e-03  -1.405013e-02  0 
 4.001504e-03  -1.418115e-02  0 
 4.254375e-03  -1.430508e-02  0 
 4.513026e-03  -1.442257e-02  0 
 4.780258e-03  -1.453669e-02  0 
 5.060827e-03  -1.465568e-02  0 
 3.081827e-03  -1.151044e-02  0 
 3.325214e-03  -1.153328e-02  0 
 3.587906e-03  -1.155333e-02  0 
 3.864733e-03  -1.156937e-02  0 
 4.147389e-03  -1.158527e-02  0 
 4.433062e-03  -1.160288e-02  0 
 4.725881e-03  -1.162707e-02  0 
 5.026487e-03  -1.165883e-02  0 
 3.085555e-03  -1.181087e-02  0 
 3.315522e-03  -1.187551e-02  0 
 3.572956e-03  -1.192463e-02  0 
 3.847083e-03  -1.196444e-02  0 
 4.132526e-03  -1.199759e-02  0 
 4.426577e-03  -1.202778e-02  0 
 4.728150e-03  -1.205661e-02  0 
 5.032807e-03  -1.208200e-02  0 
 3.097925e-03  -1.209662e-02  0 
 3.321758e-03  -1.219217e-02  0 
 3.572916e-03  -1.227073e-02  0 
 3.843384e-03  -1.233470e-02  0 
 4.127920e-03  -1.238705e-02  0 
 4.423456e-03  -1.242973e-02  0 
 4.726951e-03  -1.246343e-02  0 
 5.035838e-03  -1.248838e-02  0 
 3.109509e-03  -1.237824e-02  0 
 3.337188e-03  -1.249537e-02  0 
 3.585599e-03  -1.259797e-02  0 
 3.851597e-03  -1.268434e-02  0 
 4.131875e-03  -1.275509e-02  0 
 4.423901e-03  -1.281086e-02  0 
 4.725739e-03  -1.285227e-02  0 
 5.035594e-03  -1.288048e-02  0 
 3.122933e-03  -1.265717e-02  0 
 3.358347e-03  -1.279125e-02  0 
 3.607436e-03  -1.291172e-02  0 
 3.869553e-03  -1.301643e-02  0 
 4.143514e-03  -1.310399e-02  0 
 4.428718e-03  -1.317366e-02  0 
 4.725384e-03  -1.322511e-02  0 