# vtk DataFile Version 3.1
this is an vtk file created by FEMAC
ASCII
DATASET UNSTRUCTURED_GRID
POINTS 100 FLOAT
1.000000 4.000000 0.000000
1.000000 5.000000 0.000000
2.000000 4.000000 0.000000
2.000000 5.000000 0.000000
1.000000 4.111111 0.000000
1.000000 4.222222 0.000000
1.000000 4.333333 0.000000
1.000000 4.444444 0.000000
1.000000 4.555556 0.000000
1.000000 4.666667 0.000000
1.000000 4.777778 0.000000
1.000000 4.888889 0.000000
1.111111 4.000000 0.000000
1.222222 4.000000 0.000000
1.333333 4.000000 0.000000
1.444444 4.000000 0.000000
1.555556 4.000000 0.000000
1.666667 4.000000 0.000000
1.777778 4.000000 0.000000
1.888889 4.000000 0.000000
1.111111 5.000000 0.000000
1.222222 5.000000 0.000000
1.333333 5.000000 0.000000
1.444444 5.000000 0.000000
1.555556 5.000000 0.000000
1.666667 5.000000 0.000000
1.777778 5.000000 0.000000
1.888889 5.000000 0.000000
2.000000 4.111111 0.000000
2.000000 4.222222 0.000000
2.000000 4.333333 0.000000
2.000000 4.444444 0.000000
2.000000 4.555556 0.000000
2.000000 4.666667 0.000000
2.000000 4.777778 0.000000
2.000000 4.888889 0.000000
1.111111 4.111111 0.000000
1.111111 4.222222 0.000000
1.111111 4.333333 0.000000
1.111111 4.444444 0.000000
1.111111 4.555556 0.000000
1.111111 4.666667 0.000000
1.111111 4.777778 0.000000
1.111111 4.888889 0.000000
1.222222 4.111111 0.000000
1.222222 4.222222 0.000000
1.222222 4.333333 0.000000
1.222222 4.444444 0.000000
1.222222 4.555556 0.000000
1.222222 4.666667 0.000000
1.222222 4.777778 0.000000
1.222222 4.888889 0.000000
1.333333 4.111111 0.000000
1.333333 4.222222 0.000000
1.333333 4.333333 0.000000
1.333333 4.444444 0.000000
1.333333 4.555556 0.000000
1.333333 4.666667 0.000000
1.333333 4.777778 0.000000
1.333333 4.888889 0.000000
1.444444 4.111111 0.000000
1.444444 4.222222 0.000000
1.444444 4.333333 0.000000
1.444444 4.444444 0.000000
1.444444 4.555556 0.000000
1.444444 4.666667 0.000000
1.444444 4.777778 0.000000
1.444444 4.888889 0.000000
1.555556 4.111111 0.000000
1.555556 4.222222 0.000000
1.555556 4.333333 0.000000
1.555556 4.444444 0.000000
1.555556 4.555556 0.000000
1.555556 4.666667 0.000000
1.555556 4.777778 0.000000
1.555556 4.888889 0.000000
1.666667 4.111111 0.000000
1.666667 4.222222 0.000000
1.666667 4.333333 0.000000
1.666667 4.444444 0.000000
1.666667 4.555556 0.000000
1.666667 4.666667 0.000000
1.666667 4.777778 0.000000
1.666667 4.888889 0.000000
1.777778 4.111111 0.000000
1.777778 4.222222 0.000000
1.777778 4.333333 0.000000
1.777778 4.444444 0.000000
1.777778 4.555556 0.000000
1.777778 4.666667 0.000000
1.777778 4.777778 0.000000
1.777778 4.888889 0.000000
1.888889 4.111111 0.000000
1.888889 4.222222 0.000000
1.888889 4.333333 0.000000
1.888889 4.444444 0.000000
1.888889 4.555556 0.000000
1.888889 4.666667 0.000000
1.888889 4.777778 0.000000
1.888889 4.888889 0.000000
CELLS 81 405 
4 0 12 36  4
4 4 36 37  5
4 5 37 38  6
4 6 38 39  7
4 7 39 40  8
4 8 40 41  9
4 9 41 42 10
4 10 42 43 11
4 11 43 20  1
4 12 13 44 36
4 36 44 45 37
4 37 45 46 38
4 38 46 47 39
4 39 47 48 40
4 40 48 49 41
4 41 49 50 42
4 42 50 51 43
4 43 51 21 20
4 13 14 52 44
4 44 52 53 45
4 45 53 54 46
4 46 54 55 47
4 47 55 56 48
4 48 56 57 49
4 49 57 58 50
4 50 58 59 51
4 51 59 22 21
4 14 15 60 52
4 52 60 61 53
4 53 61 62 54
4 54 62 63 55
4 55 63 64 56
4 56 64 65 57
4 57 65 66 58
4 58 66 67 59
4 59 67 23 22
4 15 16 68 60
4 60 68 69 61
4 61 69 70 62
4 62 70 71 63
4 63 71 72 64
4 64 72 73 65
4 65 73 74 66
4 66 74 75 67
4 67 75 24 23
4 16 17 76 68
4 68 76 77 69
4 69 77 78 70
4 70 78 79 71
4 71 79 80 72
4 72 80 81 73
4 73 81 82 74
4 74 82 83 75
4 75 83 25 24
4 17 18 84 76
4 76 84 85 77
4 77 85 86 78
4 78 86 87 79
4 79 87 88 80
4 80 88 89 81
4 81 89 90 82
4 82 90 91 83
4 83 91 26 25
4 18 19 92 84
4 84 92 93 85
4 85 93 94 86
4 86 94 95 87
4 87 95 96 88
4 88 96 97 89
4 89 97 98 90
4 90 98 99 91
4 91 99 27 26
4 19  2 28 92
4 92 28 29 93
4 93 29 30 94
4 94 30 31 95
4 95 31 32 96
4 96 32 33 97
4 97 33 34 98
4 98 34 35 99
4 99 35  3 27
CELL_TYPES 81
9 9 9 9 9 9 9 9 9 9 9 9 9 9 9 9 9 9 9 9 9 9 9 9 9 9 9 9 9 9 9 9 9 9 9 9 9 9 9 9 9 9 9 9 9 9 9 9 9 9 9 9 9 9 9 9 9 9 9 9 9 9 9 9 9 9 9 9 9 9 9 9 9 9 9 9 9 9 9 9 9 
POINT_DATA 100
VECTORS displacement_ITER1 FLOAT
 4.677658e-04  -1.072003e-03  0 
 2.981752e-03  -2.513978e-03  0 
 2.199277e-03  -2.991801e-03  0 
 5.838992e-03  -8.331152e-03  0 
 -7.104871e-05  -5.395204e-04  0 
 -8.182482e-04  -6.622046e-04  0 
 -6.902684e-04  -1.075242e-03  0 
 -2.074780e-04  -1.198245e-03  0 
 3.419585e-05  -1.092876e-03  0 
 -1.523280e-04  -9.316630e-04  0 
 -4.396085e-04  -5.652461e-04  0 
 1.278483e-03  -1.843716e-03  0 
 2.925123e-03  -1.799263e-03  0 
 3.249464e-03  -1.366578e-03  0 
 2.086814e-03  -1.519820e-03  0 
 1.478239e-03  -2.347845e-03  0 
 1.335807e-03  -2.993361e-03  0 
 1.801081e-03  -3.369406e-03  0 
 2.742587e-03  -2.304708e-03  0 
 3.352107e-03  -2.280597e-03  0 
 3.812332e-03  -3.587699e-03  0 
 4.786178e-03  -4.736789e-03  0 
 3.924073e-03  -4.930563e-03  0 
 3.394104e-03  -4.726772e-03  0 
 3.062544e-03  -4.681045e-03  0 
 2.808403e-03  -5.154652e-03  0 
 3.491435e-03  -5.973914e-03  0 
 4.811091e-03  -6.740324e-03  0 
 4.175537e-03  -4.937364e-03  0 
 5.054636e-03  -5.444212e-03  0 
 4.637411e-03  -4.887592e-03  0 
 4.300883e-03  -4.868709e-03  0 
 4.330861e-03  -4.584886e-03  0 
 5.058954e-03  -5.047962e-03  0 
 6.201387e-03  -5.399355e-03  0 
 6.242111e-03  -6.786594e-03  0 
 8.712499e-04  -1.427369e-03  0 
 2.720037e-04  -1.343721e-03  0 
 1.329099e-04  -1.569428e-03  0 
 2.135350e-04  -1.721168e-03  0 
 3.377565e-04  -1.728582e-03  0 
 4.582145e-04  -1.775287e-03  0 
 1.109860e-03  -2.332490e-03  0 
 2.340405e-03  -2.962834e-03  0 
 1.528639e-03  -1.347149e-03  0 
 9.445227e-04  -1.645044e-03  0 
 7.819760e-04  -1.927003e-03  0 
 7.813127e-04  -2.187406e-03  0 
 9.223935e-04  -2.442325e-03  0 
 1.315945e-03  -2.843965e-03  0 
 2.007292e-03  -3.410057e-03  0 
 2.986215e-03  -4.055292e-03  0 
 1.856480e-03  -1.519600e-03  0 
 1.530040e-03  -1.891982e-03  0 
 1.402235e-03  -2.285117e-03  0 
 1.437972e-03  -2.674902e-03  0 
 1.645413e-03  -3.119400e-03  0 
 2.047064e-03  -3.633040e-03  0 
 2.631882e-03  -4.185291e-03  0 
 3.390362e-03  -4.735500e-03  0 
 1.895447e-03  -2.151596e-03  0 
 1.976791e-03  -2.327185e-03  0 
 1.997631e-03  -2.691529e-03  0 
 2.113779e-03  -3.148802e-03  0 
 2.339803e-03  -3.660186e-03  0 
 2.657828e-03  -4.184825e-03  0 
 3.036309e-03  -4.650205e-03  0 
 3.363138e-03  -4.875502e-03  0 
 1.971172e-03  -2.830721e-03  0 
 2.283974e-03  -2.858934e-03  0 
 2.524541e-03  -3.148950e-03  0 
 2.751341e-03  -3.588485e-03  0 
 2.970148e-03  -4.074396e-03  0 
 3.162624e-03  -4.529772e-03  0 
 3.282896e-03  -4.874413e-03  0 
 3.245799e-03  -4.991789e-03  0 
 2.148521e-03  -3.193903e-03  0 
 2.601935e-03  -3.322667e-03  0 
 3.020037e-03  -3.629830e-03  0 
 3.341629e-03  -4.009926e-03  0 
 3.530536e-03  -4.379274e-03  0 
 3.599346e-03  -4.720235e-03  0 
 3.556720e-03  -5.000716e-03  0 
 3.340767e-03  -5.180954e-03  0 
 2.616724e-03  -3.215635e-03  0 
 3.093553e-03  -3.707698e-03  0 
 3.592921e-03  -4.153332e-03  0 
 3.862888e-03  -4.419739e-03  0 
 3.997486e-03  -4.569419e-03  0 
 4.046239e-03  -4.796088e-03  0 
 3.979713e-03  -5.138204e-03  0 
 3.830261e-03  -5.490004e-03  0 
 3.250621e-03  -3.274593e-03  0 
 3.984902e-03  -4.285377e-03  0 
 4.236579e-03  -4.734495e-03  0 
 4.211311e-03  -4.710137e-03  0 
 4.288520e-03  -4.686166e-03  0 
 4.560307e-03  -4.755412e-03  0 
 4.772911e-03  -5.321461e-03  0 
 4.697120e-03  -6.129439e-03  0 
VECTORS displacement_ITER2 FLOAT
 6.862919e-05  -1.010710e-03  0 
 1.762315e-03  -2.556642e-03  0 
 2.157659e-03  -2.451521e-03  0 
 3.142966e-03  -5.126997e-03  0 
 -5.966412e-04  -4.288592e-04  0 
 6.544913e-05  -5.023089e-04  0 
 5.854292e-04  -1.095467e-03  0 
 7.244682e-04  -1.097424e-03  0 
 7.750818e-04  -9.351667e-04  0 
 4.543333e-04  -9.677655e-04  0 
 2.415874e-04  -9.443763e-04  0 
 4.481462e-04  -1.986377e-03  0 
 1.587922e-03  -1.320996e-03  0 
 1.590400e-03  -1.150615e-03  0 
 1.674134e-03  -1.599644e-03  0 
 1.902623e-03  -1.836503e-03  0 
 1.954477e-03  -1.935201e-03  0 
 1.688854e-03  -2.418949e-03  0 
 1.922415e-03  -2.232815e-03  0 
 2.137706e-03  -2.832711e-03  0 
 2.027975e-03  -2.571619e-03  0 
 2.960488e-03  -2.490200e-03  0 
 3.157900e-03  -2.638949e-03  0 
 3.583449e-03  -3.123947e-03  0 
 3.924775e-03  -3.880698e-03  0 
 3.811715e-03  -4.954996e-03  0 
 3.596672e-03  -5.403777e-03  0 
 3.338093e-03  -5.610312e-03  0 
 2.898964e-03  -4.294423e-03  0 
 3.655078e-03  -4.682292e-03  0 
 3.589400e-03  -4.561594e-03  0 
 3.650798e-03  -4.602945e-03  0 
 3.895914e-03  -4.390351e-03  0 
 4.191365e-03  -4.527999e-03  0 
 5.207536e-03  -4.553984e-03  0 
 5.416396e-03  -4.754576e-03  0 
 4.739859e-04  -1.228736e-03  0 
 6.014217e-04  -1.358571e-03  0 
 8.273852e-04  -1.386726e-03  0 
 8.993889e-04  -1.401449e-03  0 
 9.499144e-04  -1.362557e-03  0 
 9.921981e-04  -1.379937e-03  0 
 1.231173e-03  -1.694241e-03  0 
 1.726853e-03  -2.155855e-03  0 
 1.176883e-03  -1.395748e-03  0 
 1.024437e-03  -1.633581e-03  0 
 1.070829e-03  -1.727365e-03  0 
 1.161729e-03  -1.771244e-03  0 
 1.282677e-03  -1.839127e-03  0 
 1.519350e-03  -1.979188e-03  0 
 1.896359e-03  -2.191837e-03  0 
 2.337912e-03  -2.385470e-03  0 
 1.541352e-03  -1.654067e-03  0 
 1.405227e-03  -1.825846e-03  0 
 1.395928e-03  -2.004604e-03  0 
 1.492351e-03  -2.164413e-03  0 
 1.671964e-03  -2.339527e-03  0 
 1.945158e-03  -2.527443e-03  0 
 2.315758e-03  -2.673989e-03  0 
 2.771504e-03  -2.742066e-03  0 
 1.722097e-03  -1.908756e-03  0 
 1.703413e-03  -2.062093e-03  0 
 1.758439e-03  -2.286482e-03  0 
 1.888056e-03  -2.540772e-03  0 
 2.076224e-03  -2.803355e-03  0 
 2.312496e-03  -3.044189e-03  0 
 2.614640e-03  -3.207834e-03  0 
 3.026225e-03  -3.210995e-03  0 
 1.881646e-03  -2.122299e-03  0 
 1.968129e-03  -2.339701e-03  0 
 2.129924e-03  -2.607354e-03  0 
 2.321445e-03  -2.907458e-03  0 
 2.513211e-03  -3.218803e-03  0 
 2.691419e-03  -3.517742e-03  0 
 2.888776e-03  -3.766838e-03  0 
 3.202839e-03  -3.920518e-03  0 
 2.002978e-03  -2.408086e-03  0 
 2.245585e-03  -2.679012e-03  0 
 2.511598e-03  -2.986999e-03  0 
 2.772137e-03  -3.292634e-03  0 
 2.983311e-03  -3.583621e-03  0 
 3.128671e-03  -3.901200e-03  0 
 3.236770e-03  -4.264051e-03  0 
 3.416409e-03  -4.630796e-03  0 
 2.170969e-03  -2.782741e-03  0 
 2.550015e-03  -3.114252e-03  0 
 2.924405e-03  -3.468255e-03  0 
 3.197939e-03  -3.723013e-03  0 
 3.425134e-03  -3.901576e-03  0 
 3.624887e-03  -4.138618e-03  0 
 3.711464e-03  -4.559031e-03  0 
 3.687095e-03  -5.092875e-03  0 
 2.409377e-03  -3.147962e-03  0 
 3.018433e-03  -3.745354e-03  0 
 3.337596e-03  -4.078324e-03  0 
 3.521246e-03  -4.146935e-03  0 
 3.732576e-03  -4.215674e-03  0 
 4.056255e-03  -4.256086e-03  0 
 4.384931e-03  -4.539790e-03  0 
 4.181969e-03  -5.200158e-03  0 
VECTORS displacement_ITER3 FLOAT
 3.726676e-04  -8.799943e-04  0 
 2.178837e-03  -1.611503e-03  0 
 1.985302e-03  -2.815965e-03  0 
 3.368444e-03  -5.065249e-03  0 
 -3.291377e-04  -6.150771e-04  0 
 1.336522e-04  -8.649263e-04  0 
 5.236037e-04  -1.245715e-03  0 
 5.442792e-04  -1.255666e-03  0 
 4.789160e-04  -1.043069e-03  0 
 3.681029e-04  -9.237776e-04  0 
 5.212970e-04  -1.017586e-03  0 
 4.108767e-04  -1.564836e-03  0 
 1.185093e-03  -9.196193e-04  0 
 9.917446e-04  -9.797609e-04  0 
 1.411675e-03  -1.574404e-03  0 
 1.783758e-03  -1.792990e-03  0 
 1.918882e-03  -1.902188e-03  0 
 1.636486e-03  -2.217731e-03  0 
 1.544354e-03  -2.521434e-03  0 
 1.767613e-03  -2.795022e-03  0 
 2.247264e-03  -2.359455e-03  0 
 2.394187e-03  -2.550532e-03  0 
 2.328638e-03  -3.029163e-03  0 
 2.316978e-03  -3.580328e-03  0 
 2.299115e-03  -4.013568e-03  0 
 2.384887e-03  -4.345106e-03  0 
 2.479638e-03  -4.493208e-03  0 
 2.496512e-03  -4.740572e-03  0 
 2.598633e-03  -3.339133e-03  0 
 2.775042e-03  -3.768690e-03  0 
 2.942992e-03  -3.895414e-03  0 
 3.141514e-03  -3.887813e-03  0 
 3.419777e-03  -4.004171e-03  0 
 3.375515e-03  -3.777445e-03  0 
 3.695593e-03  -3.948666e-03  0 
 4.016910e-03  -4.513836e-03  0 
 4.676219e-04  -1.085859e-03  0 
 5.564365e-04  -1.373592e-03  0 
 6.726313e-04  -1.482237e-03  0 
 6.659168e-04  -1.504350e-03  0 
 6.567878e-04  -1.503567e-03  0 
 7.568324e-04  -1.563302e-03  0 
 9.936106e-04  -1.724367e-03  0 
 1.481261e-03  -2.051465e-03  0 
 1.029028e-03  -1.329686e-03  0 
 9.227008e-04  -1.610414e-03  0 
 8.963127e-04  -1.756894e-03  0 
 9.035614e-04  -1.853827e-03  0 
 9.616190e-04  -1.977061e-03  0 
 1.117029e-03  -2.146823e-03  0 
 1.411293e-03  -2.366946e-03  0 
 1.849664e-03  -2.567713e-03  0 
 1.338789e-03  -1.681605e-03  0 
 1.241466e-03  -1.831301e-03  0 
 1.188698e-03  -2.012146e-03  0 
 1.210453e-03  -2.199975e-03  0 
 1.299703e-03  -2.411320e-03  0 
 1.461900e-03  -2.650262e-03  0 
 1.698178e-03  -2.883800e-03  0 
 1.988503e-03  -3.037669e-03  0 
 1.552767e-03  -1.916034e-03  0 
 1.492378e-03  -2.058069e-03  0 
 1.500606e-03  -2.263954e-03  0 
 1.556163e-03  -2.511085e-03  0 
 1.654151e-03  -2.781066e-03  0 
 1.784736e-03  -3.055720e-03  0 
 1.935356e-03  -3.302395e-03  0 
 2.098576e-03  -3.484204e-03  0 
 1.719828e-03  -2.062152e-03  0 
 1.734547e-03  -2.276986e-03  0 
 1.815851e-03  -2.520274e-03  0 
 1.917800e-03  -2.792109e-03  0 
 2.020519e-03  -3.083148e-03  0 
 2.109599e-03  -3.374681e-03  0 
 2.182874e-03  -3.640467e-03  0 
 2.248193e-03  -3.862404e-03  0 
 1.842048e-03  -2.298498e-03  0 
 1.980618e-03  -2.534884e-03  0 
 2.133326e-03  -2.791324e-03  0 
 2.281654e-03  -3.056507e-03  0 
 2.396975e-03  -3.328390e-03  0 
 2.459035e-03  -3.610799e-03  0 
 2.461464e-03  -3.894709e-03  0 
 2.432486e-03  -4.138010e-03  0 
 1.939895e-03  -2.666932e-03  0 
 2.213097e-03  -2.866635e-03  0 
 2.443067e-03  -3.104696e-03  0 
 2.630114e-03  -3.323240e-03  0 
 2.767302e-03  -3.532759e-03  0 
 2.835961e-03  -3.759762e-03  0 
 2.800324e-03  -4.032123e-03  0 
 2.652338e-03  -4.335467e-03  0 
 2.114416e-03  -3.008461e-03  0 
 2.466035e-03  -3.283159e-03  0 
 2.729192e-03  -3.475833e-03  0 
 2.928259e-03  -3.609826e-03  0 
 3.101810e-03  -3.718720e-03  0 
 3.204991e-03  -3.844182e-03  0 
 3.204000e-03  -4.012191e-03  0 
 3.081030e-03  -4.396901e-03  0 
VECTORS displacement_ITER4 FLOAT
 4.345132e-04  -8.899667e-04  0 
 1.879862e-03  -1.648451e-03  0 
 1.679030e-03  -3.053695e-03  0 
 3.186695e-03  -4.776065e-03  0 
 9.370283e-05  -8.337886e-04  0 
 1.221077e-04  -1.200857e-03  0 
 3.888797e-05  -1.090817e-03  0 
 1.722388e-04  -8.826088e-04  0 
 3.444414e-04  -7.716390e-04  0 
 4.929752e-04  -8.566619e-04  0 
 5.435684e-04  -1.146472e-03  0 
 5.732882e-04  -1.442760e-03  0 
 1.075079e-03  -1.105565e-03  0 
 1.184668e-03  -1.135950e-03  0 
 1.347236e-03  -1.327319e-03  0 
 1.407730e-03  -1.574568e-03  0 
 1.467730e-03  -1.884833e-03  0 
 1.512968e-03  -2.129578e-03  0 
 1.535227e-03  -2.342735e-03  0 
 1.589636e-03  -2.466932e-03  0 
 2.098460e-03  -2.190926e-03  0 
 2.087857e-03  -2.563061e-03  0 
 2.127334e-03  -2.932705e-03  0 
 2.221566e-03  -3.364745e-03  0 
 2.269959e-03  -3.637280e-03  0 
 2.506177e-03  -3.887394e-03  0 
 2.537872e-03  -4.117147e-03  0 
 2.481268e-03  -4.455465e-03  0 
 2.533274e-03  -3.282041e-03  0 
 2.643329e-03  -3.649455e-03  0 
 2.840374e-03  -3.775543e-03  0 
 3.064973e-03  -3.810962e-03  0 
 3.295581e-03  -3.936677e-03  0 
 3.410887e-03  -3.748390e-03  0 
 3.496357e-03  -3.725658e-03  0 
 3.710032e-03  -4.215501e-03  0 
 5.923675e-04  -1.188845e-03  0 
 4.329890e-04  -1.271680e-03  0 
 3.430881e-04  -1.340881e-03  0 
 4.050183e-04  -1.370552e-03  0 
 5.805665e-04  -1.401297e-03  0 
 7.897922e-04  -1.493120e-03  0 
 9.961610e-04  -1.669431e-03  0 
 1.377629e-03  -1.998333e-03  0 
 9.201232e-04  -1.293489e-03  0 
 7.453820e-04  -1.455869e-03  0 
 6.890374e-04  -1.601293e-03  0 
 7.353811e-04  -1.747421e-03  0 
 8.808559e-04  -1.889426e-03  0 
 1.093394e-03  -2.045272e-03  0 
 1.372051e-03  -2.253808e-03  0 
 1.722593e-03  -2.475758e-03  0 
 1.162881e-03  -1.474226e-03  0 
 1.059452e-03  -1.659497e-03  0 
 1.034037e-03  -1.863272e-03  0 
 1.091291e-03  -2.075104e-03  0 
 1.221724e-03  -2.290450e-03  0 
 1.416667e-03  -2.507034e-03  0 
 1.653763e-03  -2.717072e-03  0 
 1.896148e-03  -2.878315e-03  0 
 1.363692e-03  -1.709272e-03  0 
 1.340500e-03  -1.895266e-03  0 
 1.370676e-03  -2.121267e-03  0 
 1.452686e-03  -2.372593e-03  0 
 1.577386e-03  -2.631098e-03  0 
 1.733449e-03  -2.875570e-03  0 
 1.903242e-03  -3.082496e-03  0 
 2.057491e-03  -3.243794e-03  0 
 1.515691e-03  -1.977372e-03  0 
 1.587970e-03  -2.152160e-03  0 
 1.692209e-03  -2.385202e-03  0 
 1.815031e-03  -2.649735e-03  0 
 1.937800e-03  -2.921829e-03  0 
 2.049455e-03  -3.177916e-03  0 
 2.151491e-03  -3.389538e-03  0 
 2.252261e-03  -3.540550e-03  0 
 1.640567e-03  -2.243593e-03  0 
 1.815908e-03  -2.432485e-03  0 
 2.004622e-03  -2.670147e-03  0 
 2.174029e-03  -2.920109e-03  0 
 2.305068e-03  -3.171457e-03  0 
 2.384140e-03  -3.421223e-03  0 
 2.411891e-03  -3.649838e-03  0 
 2.424684e-03  -3.802808e-03  0 
 1.777517e-03  -2.509786e-03  0 
 2.063380e-03  -2.760761e-03  0 
 2.312323e-03  -2.997263e-03  0 
 2.516173e-03  -3.199147e-03  0 
 2.671119e-03  -3.390529e-03  0 
 2.750226e-03  -3.596195e-03  0 
 2.724461e-03  -3.826715e-03  0 
 2.610373e-03  -4.057994e-03  0 
 2.026651e-03  -2.856420e-03  0 
 2.354566e-03  -3.172280e-03  0 
 2.605556e-03  -3.366113e-03  0 
 2.812773e-03  -3.506488e-03  0 
 3.008885e-03  -3.603092e-03  0 
 3.132408e-03  -3.712852e-03  0 
 3.106452e-03  -3.862357e-03  0 
 2.946355e-03  -4.156033e-03  0 
VECTORS displacement_ITER5 FLOAT
 5.478005e-04  -9.526141e-04  0 
 1.635204e-03  -1.628683e-03  0 
 1.811881e-03  -2.904256e-03  0 
 3.042957e-03  -4.491534e-03  0 
 1.740295e-04  -8.410192e-04  0 
 1.175723e-04  -1.049107e-03  0 
 8.852005e-05  -8.378008e-04  0 
 2.276727e-04  -8.350093e-04  0 
 3.063512e-04  -8.664371e-04  0 
 3.804613e-04  -9.541509e-04  0 
 4.752567e-04  -1.069490e-03  0 
 8.087705e-04  -1.267558e-03  0 
 9.349089e-04  -1.025910e-03  0 
 1.138518e-03  -1.198468e-03  0 
 1.243705e-03  -1.315665e-03  0 
 1.269546e-03  -1.557808e-03  0 
 1.309203e-03  -1.831585e-03  0 
 1.408424e-03  -2.020033e-03  0 
 1.475704e-03  -2.280124e-03  0 
 1.612920e-03  -2.487988e-03  0 
 2.010129e-03  -2.014349e-03  0 
 2.050955e-03  -2.558756e-03  0 
 2.150098e-03  -2.953688e-03  0 
 2.260177e-03  -3.307751e-03  0 
 2.337544e-03  -3.567872e-03  0 
 2.570634e-03  -3.836051e-03  0 
 2.580480e-03  -4.070618e-03  0 
 2.674018e-03  -4.426053e-03  0 
 2.335111e-03  -3.296404e-03  0 
 2.533538e-03  -3.709631e-03  0 
 2.739752e-03  -3.769453e-03  0 
 2.929498e-03  -3.794911e-03  0 
 3.068347e-03  -3.940224e-03  0 
 3.319912e-03  -3.965816e-03  0 
 3.492876e-03  -3.895216e-03  0 
 3.697097e-03  -4.168262e-03  0 
 5.775594e-04  -1.131417e-03  0 
 4.085367e-04  -1.180173e-03  0 
 3.694537e-04  -1.250346e-03  0 
 4.584622e-04  -1.290895e-03  0 
 5.761962e-04  -1.358812e-03  0 
 7.182647e-04  -1.472940e-03  0 
 9.436820e-04  -1.658655e-03  0 
 1.355866e-03  -1.909855e-03  0 
 8.537701e-04  -1.272018e-03  0 
 7.077947e-04  -1.403024e-03  0 
 6.818154e-04  -1.538329e-03  0 
 7.446384e-04  -1.674228e-03  0 
 8.766240e-04  -1.813679e-03  0 
 1.064912e-03  -1.987311e-03  0 
 1.327619e-03  -2.204345e-03  0 
 1.667461e-03  -2.420341e-03  0 
 1.068098e-03  -1.452732e-03  0 
 9.920112e-04  -1.622635e-03  0 
 9.949664e-04  -1.812339e-03  0 
 1.070032e-03  -2.010771e-03  0 
 1.207378e-03  -2.217702e-03  0 
 1.399977e-03  -2.434349e-03  0 
 1.633788e-03  -2.652072e-03  0 
 1.890061e-03  -2.838461e-03  0 
 1.248821e-03  -1.679020e-03  0 
 1.251347e-03  -1.864650e-03  0 
 1.306718e-03  -2.083851e-03  0 
 1.409201e-03  -2.322753e-03  0 
 1.549709e-03  -2.568994e-03  0 
 1.718535e-03  -2.807514e-03  0 
 1.904230e-03  -3.019070e-03  0 
 2.084872e-03  -3.191313e-03  0 
 1.392709e-03  -1.943651e-03  0 
 1.489658e-03  -2.131637e-03  0 
 1.611191e-03  -2.364787e-03  0 
 1.751107e-03  -2.618343e-03  0 
 1.894576e-03  -2.875992e-03  0 
 2.030570e-03  -3.121321e-03  0 
 2.158320e-03  -3.330629e-03  0 
 2.283247e-03  -3.479584e-03  0 
 1.538297e-03  -2.211899e-03  0 
 1.720127e-03  -2.426082e-03  0 
 1.909554e-03  -2.666973e-03  0 
 2.087856e-03  -2.910335e-03  0 
 2.240113e-03  -3.146954e-03  0 
 2.351435e-03  -3.379489e-03  0 
 2.418128e-03  -3.596495e-03  0 
 2.461816e-03  -3.752860e-03  0 
 1.711514e-03  -2.498189e-03  0 
 1.969621e-03  -2.758909e-03  0 
 2.207261e-03  -3.004138e-03  0 
 2.405997e-03  -3.213805e-03  0 
 2.571472e-03  -3.393351e-03  0 
 2.691161e-03  -3.577881e-03  0 
 2.726290e-03  -3.794449e-03  0 
 2.671982e-03  -4.012723e-03  0 
 1.938685e-03  -2.862890e-03  0 
 2.250214e-03  -3.164498e-03  0 
 2.506528e-03  -3.377480e-03  0 
 2.682793e-03  -3.530915e-03  0 
 2.853991e-03  -3.639077e-03  0 
 3.031994e-03  -3.741604e-03  0 
 3.117126e-03  -3.892116e-03  0 
 3.003288e-03  -4.146404e-03  0 
VECTORS displacement_ITER6 FLOAT
 5.856374e-04  -9.258681e-04  0 
 1.526041e-03  -1.572204e-03  0 
 1.780622e-03  -3.020756e-03  0 
 3.077339e-03  -4.420779e-03  0 
 1.389596e-04  -7.543405e-04  0 
 1.132012e-04  -8.263590e-04  0 
 2.206129e-04  -7.665952e-04  0 
 3.017582e-04  -8.922105e-04  0 
 3.269256e-04  -9.690756e-04  0 
 3.988872e-04  -1.024535e-03  0 
 5.515712e-04  -1.104910e-03  0 
 8.324360e-04  -1.321071e-03  0 
 8.250149e-04  -9.059745e-04  0 
 1.086614e-03  -1.202339e-03  0 
 1.203439e-03  -1.428458e-03  0 
 1.270436e-03  -1.677717e-03  0 
 1.299156e-03  -1.881335e-03  0 
 1.372159e-03  -2.065808e-03  0 
 1.458893e-03  -2.302937e-03  0 
 1.566840e-03  -2.574748e-03  0 
 1.815548e-03  -2.063255e-03  0 
 2.000140e-03  -2.549903e-03  0 
 2.164183e-03  -2.946193e-03  0 
 2.295041e-03  -3.270472e-03  0 
 2.383964e-03  -3.599391e-03  0 
 2.478811e-03  -3.853744e-03  0 
 2.574636e-03  -4.079922e-03  0 
 2.748174e-03  -4.355722e-03  0 
 2.251034e-03  -3.375973e-03  0 
 2.516195e-03  -3.661616e-03  0 
 2.724594e-03  -3.713313e-03  0 
 2.937217e-03  -3.749237e-03  0 
 3.067107e-03  -3.827824e-03  0 
 3.263277e-03  -3.949073e-03  0 
 3.454402e-03  -3.966413e-03  0 
 3.571644e-03  -4.164828e-03  0 
 5.461480e-04  -1.052927e-03  0 
 4.408899e-04  -1.142149e-03  0 
 4.675739e-04  -1.225984e-03  0 
 5.455335e-04  -1.290620e-03  0 
 6.185383e-04  -1.389620e-03  0 
 7.412051e-04  -1.518070e-03  0 
 9.636470e-04  -1.688791e-03  0 
 1.324235e-03  -1.907526e-03  0 
 8.531222e-04  -1.282402e-03  0 
 7.465693e-04  -1.415470e-03  0 
 7.443311e-04  -1.546138e-03  0 
 8.101235e-04  -1.675186e-03  0 
 9.230565e-04  -1.819219e-03  0 
 1.087298e-03  -1.996802e-03  0 
 1.326673e-03  -2.200003e-03  0 
 1.637806e-03  -2.397414e-03  0 
 1.072278e-03  -1.519589e-03  0 
 1.015584e-03  -1.662211e-03  0 
 1.032125e-03  -1.834156e-03  0 
 1.110436e-03  -2.019230e-03  0 
 1.239035e-03  -2.217199e-03  0 
 1.412826e-03  -2.427386e-03  0 
 1.629227e-03  -2.635555e-03  0 
 1.884821e-03  -2.814213e-03  0 
 1.235175e-03  -1.755259e-03  0 
 1.255322e-03  -1.912192e-03  0 
 1.322281e-03  -2.112221e-03  0 
 1.428097e-03  -2.335444e-03  0 
 1.563835e-03  -2.568853e-03  0 
 1.721667e-03  -2.799641e-03  0 
 1.896775e-03  -3.010343e-03  0 
 2.086235e-03  -3.178725e-03  0 
 1.375704e-03  -1.995170e-03  0 
 1.482460e-03  -2.173802e-03  0 
 1.611891e-03  -2.392999e-03  0 
 1.753020e-03  -2.632628e-03  0 
 1.893899e-03  -2.877759e-03  0 
 2.026607e-03  -3.115577e-03  0 
 2.150773e-03  -3.328336e-03  0 
 2.269840e-03  -3.494495e-03  0 
 1.525568e-03  -2.246576e-03  0 
 1.713549e-03  -2.455709e-03  0 
 1.904084e-03  -2.687384e-03  0 
 2.078356e-03  -2.921134e-03  0 
 2.226219e-03  -3.149517e-03  0 
 2.338407e-03  -3.374602e-03  0 
 2.411321e-03  -3.588958e-03  0 
 2.455958e-03  -3.761382e-03  0 
 1.701091e-03  -2.529518e-03  0 
 1.965843e-03  -2.776277e-03  0 
 2.201739e-03  -3.006526e-03  0 
 2.392713e-03  -3.210622e-03  0 
 2.547314e-03  -3.391783e-03  0 
 2.661695e-03  -3.574799e-03  0 
 2.707650e-03  -3.780142e-03  0 
 2.669802e-03  -3.981005e-03  0 
 1.926333e-03  -2.899641e-03  0 
 2.242213e-03  -3.165308e-03  0 
 2.496066e-03  -3.353959e-03  0 
 2.679784e-03  -3.495542e-03  0 
 2.831235e-03  -3.621049e-03  0 
 2.979531e-03  -3.734858e-03  0 
 3.071305e-03  -3.893614e-03  0 
 2.995243e-03  -4.123983e-03  0 
VECTORS displacement_ITER7 FLOAT
 4.543147e-04  -8.799010e-04  0 
 1.534886e-03  -1.468794e-03  0 
 1.723485e-03  -3.135303e-03  0 
 3.089763e-03  -4.357218e-03  0 
 2.035720e-04  -8.103871e-04  0 
 1.271012e-04  -8.491149e-04  0 
 1.730361e-04  -8.802100e-04  0 
 1.872695e-04  -9.126362e-04  0 
 2.657965e-04  -9.374618e-04  0 
 4.059337e-04  -9.898054e-04  0 
 5.899418e-04  -1.102830e-03  0 
 8.027879e-04  -1.316493e-03  0 
 8.480646e-04  -1.041769e-03  0 
 1.158564e-03  -1.267950e-03  0 
 1.261966e-03  -1.472126e-03  0 
 1.331536e-03  -1.666049e-03  0 
 1.352745e-03  -1.824619e-03  0 
 1.406039e-03  -2.037514e-03  0 
 1.508070e-03  -2.259607e-03  0 
 1.589724e-03  -2.577097e-03  0 
 1.742942e-03  -2.134045e-03  0 
 1.984207e-03  -2.554718e-03  0 
 2.140365e-03  -2.919502e-03  0 
 2.266147e-03  -3.210093e-03  0 
 2.375229e-03  -3.542392e-03  0 
 2.411578e-03  -3.803087e-03  0 
 2.574693e-03  -4.049678e-03  0 
 2.740883e-03  -4.266439e-03  0 
 2.247284e-03  -3.392931e-03  0 
 2.525820e-03  -3.559803e-03  0 
 2.719176e-03  -3.633278e-03  0 
 2.942846e-03  -3.708468e-03  0 
 3.121320e-03  -3.726512e-03  0 
 3.259187e-03  -3.833243e-03  0 
 3.407629e-03  -3.916934e-03  0 
 3.437127e-03  -4.100645e-03  0 
 5.699238e-04  -1.127085e-03  0 
 4.558975e-04  -1.185450e-03  0 
 4.354200e-04  -1.246058e-03  0 
 4.750105e-04  -1.312871e-03  0 
 5.696413e-04  -1.405997e-03  0 
 7.327506e-04  -1.522912e-03  0 
 9.646684e-04  -1.678157e-03  0 
 1.302110e-03  -1.902139e-03  0 
 8.716867e-04  -1.341236e-03  0 
 7.448457e-04  -1.445218e-03  0 
 7.219577e-04  -1.558099e-03  0 
 7.741509e-04  -1.686555e-03  0 
 8.891067e-04  -1.834300e-03  0 
 1.066247e-03  -2.003029e-03  0 
 1.314514e-03  -2.193415e-03  0 
 1.626281e-03  -2.391122e-03  0 
 1.096817e-03  -1.540021e-03  0 
 1.013523e-03  -1.673396e-03  0 
 1.017809e-03  -1.838631e-03  0 
 1.089381e-03  -2.022449e-03  0 
 1.215160e-03  -2.220216e-03  0 
 1.390527e-03  -2.425816e-03  0 
 1.612855e-03  -2.624651e-03  0 
 1.872306e-03  -2.794554e-03  0 
 1.259170e-03  -1.744277e-03  0 
 1.262277e-03  -1.902777e-03  0 
 1.317214e-03  -2.104706e-03  0 
 1.415318e-03  -2.328232e-03  0 
 1.545672e-03  -2.560323e-03  0 
 1.700607e-03  -2.787319e-03  0 
 1.874944e-03  -2.990285e-03  0 
 2.066357e-03  -3.141525e-03  0 
 1.409072e-03  -1.960654e-03  0 
 1.500036e-03  -2.148363e-03  0 
 1.616928e-03  -2.371569e-03  0 
 1.747072e-03  -2.612950e-03  0 
 1.879194e-03  -2.857302e-03  0 
 2.005866e-03  -3.091492e-03  0 
 2.125141e-03  -3.297639e-03  0 
 2.236668e-03  -3.455061e-03  0 
 1.564277e-03  -2.207733e-03  0 
 1.740015e-03  -2.419293e-03  0 
 1.917825e-03  -2.651958e-03  0 
 2.078837e-03  -2.886435e-03  0 
 2.214300e-03  -3.116266e-03  0 
 2.317368e-03  -3.340091e-03  0 
 2.384344e-03  -3.548340e-03  0 
 2.425133e-03  -3.715865e-03  0 
 1.738010e-03  -2.495090e-03  0 
 1.994318e-03  -2.735936e-03  0 
 2.218277e-03  -2.957127e-03  0 
 2.399559e-03  -3.156439e-03  0 
 2.542506e-03  -3.343860e-03  0 
 2.640860e-03  -3.533391e-03  0 
 2.676007e-03  -3.732891e-03  0 
 2.638836e-03  -3.922089e-03  0 
 1.963404e-03  -2.871754e-03  0 
 2.266402e-03  -3.119308e-03  0 
 2.498479e-03  -3.291823e-03  0 
 2.693412e-03  -3.421551e-03  0 
 2.848676e-03  -3.554293e-03  0 
 2.963599e-03  -3.680840e-03  0 
 3.021606e-03  -3.844238e-03  0 
 2.955442e-03  -4.063384e-03  0 
VECTORS displacement_ITER8 FLOAT
 4.501365e-04  -9.017504e-04  0 
 1.510026e-03  -1.438462e-03  0 
 1.768633e-03  -3.088595e-03  0 
 3.075210e-03  -4.256996e-03  0 
 2.129787e-04  -8.376564e-04  0 
 1.305656e-04  -8.402761e-04  0 
 1.448910e-04  -8.860140e-04  0 
 1.693202e-04  -8.845140e-04  0 
 2.676397e-04  -9.126733e-04  0 
 3.790568e-04  -9.840239e-04  0 
 5.479237e-04  -1.064684e-03  0 
 8.378243e-04  -1.240344e-03  0 
 9.012206e-04  -1.075768e-03  0 
 1.141822e-03  -1.224222e-03  0 
 1.218913e-03  -1.455247e-03  0 
 1.296841e-03  -1.672175e-03  0 
 1.349229e-03  -1.853487e-03  0 
 1.399135e-03  -2.066105e-03  0 
 1.487696e-03  -2.287237e-03  0 
 1.616342e-03  -2.603059e-03  0 
 1.776990e-03  -2.136768e-03  0 
 2.014992e-03  -2.568134e-03  0 
 2.149815e-03  -2.915616e-03  0 
 2.253578e-03  -3.204163e-03  0 
 2.363922e-03  -3.500790e-03  0 
 2.452386e-03  -3.811656e-03  0 
 2.583514e-03  -4.073592e-03  0 
 2.780798e-03  -4.267343e-03  0 
 2.163032e-03  -3.380699e-03  0 
 2.451341e-03  -3.564789e-03  0 
 2.660460e-03  -3.659464e-03  0 
 2.875374e-03  -3.764097e-03  0 
 3.102249e-03  -3.808852e-03  0 
 3.277100e-03  -3.877041e-03  0 
 3.409111e-03  -3.967103e-03  0 
 3.434249e-03  -4.092648e-03  0 
 5.601266e-04  -1.127881e-03  0 
 4.419666e-04  -1.177779e-03  0 
 4.171863e-04  -1.232170e-03  0 
 4.570376e-04  -1.302224e-03  0 
 5.590335e-04  -1.388086e-03  0 
 7.140212e-04  -1.498219e-03  0 
 9.455663e-04  -1.659980e-03  0 
 1.304520e-03  -1.884644e-03  0 
 8.570546e-04  -1.319327e-03  0 
 7.282554e-04  -1.432907e-03  0 
 7.063048e-04  -1.547770e-03  0 
 7.593198e-04  -1.675320e-03  0 
 8.745922e-04  -1.820134e-03  0 
 1.054541e-03  -1.987896e-03  0 
 1.308593e-03  -2.184290e-03  0 
 1.635220e-03  -2.393126e-03  0 
 1.080868e-03  -1.526668e-03  0 
 1.000389e-03  -1.665883e-03  0 
 1.003666e-03  -1.832076e-03  0 
 1.075364e-03  -2.014073e-03  0 
 1.203235e-03  -2.210336e-03  0 
 1.383935e-03  -2.416828e-03  0 
 1.614382e-03  -2.620393e-03  0 
 1.880208e-03  -2.797505e-03  0 
 1.242156e-03  -1.754164e-03  0 
 1.247544e-03  -1.906308e-03  0 
 1.301813e-03  -2.103858e-03  0 
 1.400816e-03  -2.324014e-03  0 
 1.534950e-03  -2.554188e-03  0 
 1.696353e-03  -2.781256e-03  0 
 1.878326e-03  -2.984269e-03  0 
 2.072172e-03  -3.133682e-03  0 
 1.390000e-03  -1.982806e-03  0 
 1.478723e-03  -2.161973e-03  0 
 1.595946e-03  -2.377600e-03  0 
 1.728722e-03  -2.613136e-03  0 
 1.866927e-03  -2.854227e-03  0 
 2.001350e-03  -3.087066e-03  0 
 2.126324e-03  -3.291243e-03  0 