# vtk DataFile Version 3.1
this is an vtk file created by FEMAC
ASCII
DATASET UNSTRUCTURED_GRID
POINTS 100 FLOAT
4.000000 4.000000 0.000000
4.000000 5.000000 0.000000
5.000000 4.000000 0.000000
5.000000 5.000000 0.000000
4.000000 4.111111 0.000000
4.000000 4.222222 0.000000
4.000000 4.333333 0.000000
4.000000 4.444444 0.000000
4.000000 4.555556 0.000000
4.000000 4.666667 0.000000
4.000000 4.777778 0.000000
4.000000 4.888889 0.000000
4.111111 4.000000 0.000000
4.222222 4.000000 0.000000
4.333333 4.000000 0.000000
4.444444 4.000000 0.000000
4.555556 4.000000 0.000000
4.666667 4.000000 0.000000
4.777778 4.000000 0.000000
4.888889 4.000000 0.000000
4.111111 5.000000 0.000000
4.222222 5.000000 0.000000
4.333333 5.000000 0.000000
4.444444 5.000000 0.000000
4.555556 5.000000 0.000000
4.666667 5.000000 0.000000
4.777778 5.000000 0.000000
4.888889 5.000000 0.000000
5.000000 4.111111 0.000000
5.000000 4.222222 0.000000
5.000000 4.333333 0.000000
5.000000 4.444444 0.000000
5.000000 4.555556 0.000000
5.000000 4.666667 0.000000
5.000000 4.777778 0.000000
5.000000 4.888889 0.000000
4.111111 4.111111 0.000000
4.111111 4.222222 0.000000
4.111111 4.333333 0.000000
4.111111 4.444444 0.000000
4.111111 4.555556 0.000000
4.111111 4.666667 0.000000
4.111111 4.777778 0.000000
4.111111 4.888889 0.000000
4.222222 4.111111 0.000000
4.222222 4.222222 0.000000
4.222222 4.333333 0.000000
4.222222 4.444444 0.000000
4.222222 4.555556 0.000000
4.222222 4.666667 0.000000
4.222222 4.777778 0.000000
4.222222 4.888889 0.000000
4.333333 4.111111 0.000000
4.333333 4.222222 0.000000
4.333333 4.333333 0.000000
4.333333 4.444444 0.000000
4.333333 4.555556 0.000000
4.333333 4.666667 0.000000
4.333333 4.777778 0.000000
4.333333 4.888889 0.000000
4.444444 4.111111 0.000000
4.444444 4.222222 0.000000
4.444444 4.333333 0.000000
4.444444 4.444444 0.000000
4.444444 4.555556 0.000000
4.444444 4.666667 0.000000
4.444444 4.777778 0.000000
4.444444 4.888889 0.000000
4.555556 4.111111 0.000000
4.555556 4.222222 0.000000
4.555556 4.333333 0.000000
4.555556 4.444444 0.000000
4.555556 4.555556 0.000000
4.555556 4.666667 0.000000
4.555556 4.777778 0.000000
4.555556 4.888889 0.000000
4.666667 4.111111 0.000000
4.666667 4.222222 0.000000
4.666667 4.333333 0.000000
4.666667 4.444444 0.000000
4.666667 4.555556 0.000000
4.666667 4.666667 0.000000
4.666667 4.777778 0.000000
4.666667 4.888889 0.000000
4.777778 4.111111 0.000000
4.777778 4.222222 0.000000
4.777778 4.333333 0.000000
4.777778 4.444444 0.000000
4.777778 4.555556 0.000000
4.777778 4.666667 0.000000
4.777778 4.777778 0.000000
4.777778 4.888889 0.000000
4.888889 4.111111 0.000000
4.888889 4.222222 0.000000
4.888889 4.333333 0.000000
4.888889 4.444444 0.000000
4.888889 4.555556 0.000000
4.888889 4.666667 0.000000
4.888889 4.777778 0.000000
4.888889 4.888889 0.000000
CELLS 81 405 
4 0 12 36  4
4 4 36 37  5
4 5 37 38  6
4 6 38 39  7
4 7 39 40  8
4 8 40 41  9
4 9 41 42 10
4 10 42 43 11
4 11 43 20  1
4 12 13 44 36
4 36 44 45 37
4 37 45 46 38
4 38 46 47 39
4 39 47 48 40
4 40 48 49 41
4 41 49 50 42
4 42 50 51 43
4 43 51 21 20
4 13 14 52 44
4 44 52 53 45
4 45 53 54 46
4 46 54 55 47
4 47 55 56 48
4 48 56 57 49
4 49 57 58 50
4 50 58 59 51
4 51 59 22 21
4 14 15 60 52
4 52 60 61 53
4 53 61 62 54
4 54 62 63 55
4 55 63 64 56
4 56 64 65 57
4 57 65 66 58
4 58 66 67 59
4 59 67 23 22
4 15 16 68 60
4 60 68 69 61
4 61 69 70 62
4 62 70 71 63
4 63 71 72 64
4 64 72 73 65
4 65 73 74 66
4 66 74 75 67
4 67 75 24 23
4 16 17 76 68
4 68 76 77 69
4 69 77 78 70
4 70 78 79 71
4 71 79 80 72
4 72 80 81 73
4 73 81 82 74
4 74 82 83 75
4 75 83 25 24
4 17 18 84 76
4 76 84 85 77
4 77 85 86 78
4 78 86 87 79
4 79 87 88 80
4 80 88 89 81
4 81 89 90 82
4 82 90 91 83
4 83 91 26 25
4 18 19 92 84
4 84 92 93 85
4 85 93 94 86
4 86 94 95 87
4 87 95 96 88
4 88 96 97 89
4 89 97 98 90
4 90 98 99 91
4 91 99 27 26
4 19  2 28 92
4 92 28 29 93
4 93 29 30 94
4 94 30 31 95
4 95 31 32 96
4 96 32 33 97
4 97 33 34 98
4 98 34 35 99
4 99 35  3 27
CELL_TYPES 81
9 9 9 9 9 9 9 9 9 9 9 9 9 9 9 9 9 9 9 9 9 9 9 9 9 9 9 9 9 9 9 9 9 9 9 9 9 9 9 9 9 9 9 9 9 9 9 9 9 9 9 9 9 9 9 9 9 9 9 9 9 9 9 9 9 9 9 9 9 9 9 9 9 9 9 9 9 9 9 9 9 
POINT_DATA 100
VECTORS displacement_ITER1 FLOAT
 5.122273e-03  -1.285178e-02  0 
 8.824217e-03  -1.317792e-02  0 
 5.098575e-03  -1.710063e-02  0 
 9.070855e-03  -1.712889e-02  0 
 5.556337e-03  -1.294024e-02  0 
 5.993644e-03  -1.298654e-02  0 
 6.430855e-03  -1.302197e-02  0 
 6.863510e-03  -1.305296e-02  0 
 7.290249e-03  -1.307911e-02  0 
 7.707628e-03  -1.310399e-02  0 
 8.112870e-03  -1.312821e-02  0 
 8.505522e-03  -1.315538e-02  0 
 5.087599e-03  -1.339983e-02  0 
 5.077823e-03  -1.388277e-02  0 
 5.072612e-03  -1.435275e-02  0 
 5.069920e-03  -1.481251e-02  0 
 5.069797e-03  -1.526686e-02  0 
 5.072101e-03  -1.571943e-02  0 
 5.075206e-03  -1.617298e-02  0 
 5.079395e-03  -1.663051e-02  0 
 8.902388e-03  -1.354474e-02  0 
 8.951736e-03  -1.395817e-02  0 
 8.990062e-03  -1.438215e-02  0 
 9.022275e-03  -1.481754e-02  0 
 9.046562e-03  -1.526206e-02  0 
 9.064561e-03  -1.571470e-02  0 
 9.075029e-03  -1.617572e-02  0 
 9.077198e-03  -1.663984e-02  0 
 5.530168e-03  -1.707629e-02  0 
 5.969137e-03  -1.706209e-02  0 
 6.406502e-03  -1.705448e-02  0 
 6.844352e-03  -1.705248e-02  0 
 7.283577e-03  -1.705578e-02  0 
 7.725850e-03  -1.706421e-02  0 
 8.172246e-03  -1.707649e-02  0 
 8.618843e-03  -1.709216e-02  0 
 5.562460e-03  -1.340449e-02  0 
 6.001209e-03  -1.343479e-02  0 
 6.436880e-03  -1.346173e-02  0 
 6.868643e-03  -1.348394e-02  0 
 7.295038e-03  -1.350231e-02  0 
 7.714342e-03  -1.351718e-02  0 
 8.124280e-03  -1.352923e-02  0 
 8.516745e-03  -1.353403e-02  0 
 5.545344e-03  -1.388523e-02  0 
 5.998148e-03  -1.389231e-02  0 
 6.436848e-03  -1.390671e-02  0 
 6.869436e-03  -1.392033e-02  0 
 7.296769e-03  -1.393096e-02  0 
 7.718273e-03  -1.393814e-02  0 
 8.132251e-03  -1.394165e-02  0 
 8.540932e-03  -1.394618e-02  0 
 5.534098e-03  -1.435220e-02  0 
 5.987554e-03  -1.435331e-02  0 
 6.431182e-03  -1.435716e-02  0 
 6.866341e-03  -1.436264e-02  0 
 7.295809e-03  -1.436685e-02  0 
 7.720746e-03  -1.436883e-02  0 
 8.142829e-03  -1.437008e-02  0 
 8.565207e-03  -1.437381e-02  0 
 5.526771e-03  -1.481192e-02  0 
 5.978484e-03  -1.481093e-02  0 
 6.423199e-03  -1.481035e-02  0 
 6.860878e-03  -1.481027e-02  0 
 7.293208e-03  -1.481007e-02  0 
 7.722862e-03  -1.480946e-02  0 
 8.152681e-03  -1.480947e-02  0 
 8.585080e-03  -1.481167e-02  0 
 5.523167e-03  -1.526720e-02  0 
 5.972547e-03  -1.526595e-02  0 
 6.416572e-03  -1.526375e-02  0 
 6.855189e-03  -1.526122e-02  0 
 7.290004e-03  -1.525894e-02  0 
 7.723858e-03  -1.525735e-02  0 
 8.159765e-03  -1.525686e-02  0 
 8.600229e-03  -1.525813e-02  0 
 5.522948e-03  -1.572035e-02  0 
 5.970102e-03  -1.571927e-02  0 
 6.412394e-03  -1.571644e-02  0 
 6.850652e-03  -1.571297e-02  0 
 7.286952e-03  -1.571046e-02  0 
 7.723626e-03  -1.570964e-02  0 
 8.163745e-03  -1.571014e-02  0 
 8.610015e-03  -1.571176e-02  0 
 5.525880e-03  -1.617335e-02  0 
 5.970606e-03  -1.617144e-02  0 
 6.409960e-03  -1.616695e-02  0 
 6.847422e-03  -1.616326e-02  0 
 7.284660e-03  -1.616175e-02  0 
 7.723289e-03  -1.616312e-02  0 
 8.165221e-03  -1.616717e-02  0 
 8.614932e-03  -1.617115e-02  0 
 5.531936e-03  -1.662879e-02  0 
 5.970722e-03  -1.661989e-02  0 
 6.408187e-03  -1.661346e-02  0 
 6.845305e-03  -1.661026e-02  0 
 7.283422e-03  -1.661072e-02  0 
 7.723921e-03  -1.661501e-02  0 
 8.167600e-03  -1.662355e-02  0 
 8.614675e-03  -1.663571e-02  0 
VECTORS displacement_ITER2 FLOAT
 4.039003e-03  -1.006956e-02  0 
 6.735870e-03  -1.046904e-02  0 
 4.038236e-03  -1.337696e-02  0 
 7.045590e-03  -1.342749e-02  0 
 4.376277e-03  -1.017958e-02  0 
 4.707232e-03  -1.023518e-02  0 
 5.035660e-03  -1.027360e-02  0 
 5.360651e-03  -1.030439e-02  0 
 5.681139e-03  -1.033206e-02  0 
 5.994377e-03  -1.035998e-02  0 
 6.293101e-03  -1.038994e-02  0 
 6.565365e-03  -1.042883e-02  0 
 4.000962e-03  -1.053820e-02  0 
 3.996622e-03  -1.092288e-02  0 
 3.997368e-03  -1.128759e-02  0 
 4.000036e-03  -1.164002e-02  0 
 4.002920e-03  -1.198573e-02  0 
 4.006027e-03  -1.232760e-02  0 
 4.009886e-03  -1.266895e-02  0 
 4.016105e-03  -1.301605e-02  0 
 6.839445e-03  -1.069557e-02  0 
 6.903069e-03  -1.099267e-02  0 
 6.946238e-03  -1.130903e-02  0 
 6.979408e-03  -1.163825e-02  0 
 7.004952e-03  -1.197552e-02  0 
 7.024340e-03  -1.231876e-02  0 
 7.037739e-03  -1.267037e-02  0 
 7.046589e-03  -1.303117e-02  0 
 4.354984e-03  -1.335192e-02  0 
 4.684396e-03  -1.333931e-02  0 
 5.012564e-03  -1.333430e-02  0 
 5.342504e-03  -1.333375e-02  0 
 5.673641e-03  -1.333768e-02  0 
 6.007290e-03  -1.334628e-02  0 
 6.345937e-03  -1.336015e-02  0 
 6.688470e-03  -1.338224e-02  0 
 4.383266e-03  -1.054223e-02  0 
 4.716192e-03  -1.057568e-02  0 
 5.043510e-03  -1.060508e-02  0 
 5.367560e-03  -1.062914e-02  0 
 5.687532e-03  -1.064924e-02  0 
 6.000488e-03  -1.066583e-02  0 
 6.301413e-03  -1.067854e-02  0 
 6.577432e-03  -1.068257e-02  0 
 4.363962e-03  -1.092385e-02  0 
 4.713044e-03  -1.092914e-02  0 
 5.044642e-03  -1.094377e-02  0 
 5.369618e-03  -1.095834e-02  0 
 5.689483e-03  -1.096976e-02  0 
 6.002831e-03  -1.097681e-02  0 
 6.306505e-03  -1.097873e-02  0 
 6.602762e-03  -1.098109e-02  0 
 4.353566e-03  -1.128655e-02  0 
 4.701586e-03  -1.128573e-02  0 
 5.038722e-03  -1.128813e-02  0 
 5.366424e-03  -1.129306e-02  0 
 5.687826e-03  -1.129680e-02  0 
 6.003847e-03  -1.129779e-02  0 
 6.316080e-03  -1.129770e-02  0 
 6.628704e-03  -1.130072e-02  0 
 4.348079e-03  -1.163897e-02  0 
 4.692264e-03  -1.163650e-02  0 
 5.029825e-03  -1.163430e-02  0 
 5.359989e-03  -1.163286e-02  0 
 5.684217e-03  -1.163144e-02  0 
 6.005275e-03  -1.162969e-02  0 
 6.326283e-03  -1.162902e-02  0 
 6.650130e-03  -1.163150e-02  0 
 4.345846e-03  -1.198506e-02  0 
 4.686426e-03  -1.198289e-02  0 
 5.022463e-03  -1.197957e-02  0 
 5.353229e-03  -1.197575e-02  0 
 5.680096e-03  -1.197221e-02  0 
 6.006021e-03  -1.196958e-02  0 
 6.334148e-03  -1.196856e-02  0 
 6.666775e-03  -1.197021e-02  0 
 4.346396e-03  -1.232803e-02  0 
 4.684282e-03  -1.232678e-02  0 
 5.017935e-03  -1.232342e-02  0 
 5.347982e-03  -1.231919e-02  0 
 5.676377e-03  -1.231593e-02  0 
 6.005512e-03  -1.231437e-02  0 
 6.338626e-03  -1.231412e-02  0 
 6.678045e-03  -1.231540e-02  0 
 4.350278e-03  -1.267072e-02  0 
 4.685181e-03  -1.266925e-02  0 
 5.015417e-03  -1.266471e-02  0 
 5.344537e-03  -1.266098e-02  0 
 5.673835e-03  -1.265946e-02  0 
 6.004805e-03  -1.266073e-02  0 
 6.339795e-03  -1.266419e-02  0 
 6.683839e-03  -1.266685e-02  0 
 4.357493e-03  -1.301597e-02  0 
 4.685428e-03  -1.300757e-02  0 
 5.013784e-03  -1.300194e-02  0 
 5.342720e-03  -1.299950e-02  0 
 5.672886e-03  -1.300058e-02  0 
 6.005345e-03  -1.300538e-02  0 
 6.341370e-03  -1.301446e-02  0 
 6.683386e-03  -1.302680e-02  0 
VECTORS displacement_ITER3 FLOAT
 3.353138e-03  -8.988470e-03  0 
 5.656057e-03  -9.422186e-03  0 
 3.361960e-03  -1.192860e-02  0 
 5.998849e-03  -1.198824e-02  0 
 3.656358e-03  -9.109950e-03  0 
 3.946184e-03  -9.169075e-03  0 
 4.231106e-03  -9.207732e-03  0 
 4.512777e-03  -9.237923e-03  0 
 4.790714e-03  -9.266151e-03  0 
 5.062645e-03  -9.295889e-03  0 
 5.320573e-03  -9.329871e-03  0 
 5.546553e-03  -9.374619e-03  0 
 3.315858e-03  -9.428374e-03  0 
 3.315777e-03  -9.774496e-03  0 
 3.319581e-03  -1.009686e-02  0 
 3.323750e-03  -1.040700e-02  0 
 3.326752e-03  -1.071058e-02  0 
 3.328999e-03  -1.101019e-02  0 
 3.331621e-03  -1.130837e-02  0 
 3.337834e-03  -1.161134e-02  0 
 5.771122e-03  -9.590618e-03  0 
 5.840415e-03  -9.841800e-03  0 
 5.885813e-03  -1.011696e-02  0 
 5.919123e-03  -1.040447e-02  0 
 5.944706e-03  -1.069941e-02  0 
 5.964761e-03  -1.099989e-02  0 
 5.980742e-03  -1.130796e-02  0 
 5.994070e-03  -1.162761e-02  0 
 3.634637e-03  -1.190354e-02  0 
 3.920257e-03  -1.189321e-02  0 
 4.205865e-03  -1.188905e-02  0 
 4.493982e-03  -1.188861e-02  0 
 4.783914e-03  -1.189223e-02  0 
 5.076189e-03  -1.190089e-02  0 
 5.372809e-03  -1.191572e-02  0 
 5.675203e-03  -1.194076e-02  0 
 3.663339e-03  -9.432530e-03  0 
 3.954738e-03  -9.466810e-03  0 
 4.239110e-03  -9.496656e-03  0 
 4.520397e-03  -9.521211e-03  0 
 4.798277e-03  -9.542202e-03  0 
 5.069612e-03  -9.560192e-03  0 
 5.328064e-03  -9.573858e-03  0 
 5.558153e-03  -9.577456e-03  0 
 3.643048e-03  -9.774995e-03  0 
 3.951169e-03  -9.779220e-03  0 
 4.240484e-03  -9.793664e-03  0 
 4.523046e-03  -9.808563e-03  0 
 4.800682e-03  -9.820564e-03  0 
 5.071592e-03  -9.827978e-03  0 
 5.331820e-03  -9.829489e-03  0 
 5.583623e-03  -9.830882e-03  0 
 3.633113e-03  -1.009606e-02  0 
 3.939251e-03  -1.009457e-02  0 
 4.234419e-03  -1.009636e-02  0 
 4.519905e-03  -1.010114e-02  0 
 4.798887e-03  -1.010489e-02  0 
 5.072060e-03  -1.010573e-02  0 
 5.340928e-03  -1.010532e-02  0 
 5.610204e-03  -1.010823e-02  0 
 3.628319e-03  -1.040597e-02  0 
 3.929824e-03  -1.040317e-02  0 
 4.225160e-03  -1.040046e-02  0 
 4.513132e-03  -1.039858e-02  0 
 4.794958e-03  -1.039681e-02  0 
 5.073316e-03  -1.039480e-02  0 
 5.351398e-03  -1.039417e-02  0 
 5.632410e-03  -1.039715e-02  0 
 3.626201e-03  -1.070945e-02  0 
 3.923853e-03  -1.070694e-02  0 
 4.217440e-03  -1.070324e-02  0 
 4.505949e-03  -1.069901e-02  0 
 4.790558e-03  -1.069506e-02  0 
 5.074168e-03  -1.069215e-02  0 
 5.359878e-03  -1.069123e-02  0 
 5.649762e-03  -1.069344e-02  0 
 3.626234e-03  -1.100974e-02  0 
 3.921363e-03  -1.100815e-02  0 
 4.212560e-03  -1.100453e-02  0 
 4.500355e-03  -1.100001e-02  0 
 4.786629e-03  -1.099648e-02  0 
 5.073771e-03  -1.099465e-02  0 
 5.364961e-03  -1.099423e-02  0 
 5.662094e-03  -1.099569e-02  0 
 3.629456e-03  -1.130969e-02  0 
 3.921789e-03  -1.130809e-02  0 
 4.209640e-03  -1.130336e-02  0 
 4.496664e-03  -1.129949e-02  0 
 4.783974e-03  -1.129788e-02  0 
 5.073040e-03  -1.129906e-02  0 
 5.366444e-03  -1.130217e-02  0 
 5.669125e-03  -1.130436e-02  0 
 3.636568e-03  -1.161208e-02  0 
 3.921484e-03  -1.160388e-02  0 
 4.207557e-03  -1.159842e-02  0 
 4.494630e-03  -1.159592e-02  0 
 4.783079e-03  -1.159698e-02  0 
 5.073687e-03  -1.160196e-02  0 
 5.367934e-03  -1.161126e-02  0 
 5.669618e-03  -1.162315e-02  0 
VECTORS displacement_ITER4 FLOAT
 3.141983e-03  -8.632702e-03  0 
 5.305305e-03  -9.085698e-03  0 
 3.152542e-03  -1.145657e-02  0 
 5.669719e-03  -1.152338e-02  0 
 3.432092e-03  -8.760398e-03  0 
 3.708621e-03  -8.822533e-03  0 
 3.979839e-03  -8.862455e-03  0 
 4.248025e-03  -8.893555e-03  0 
 4.511740e-03  -8.922134e-03  0 
 4.768248e-03  -8.952255e-03  0 
 5.010757e-03  -8.988370e-03  0 
 5.221252e-03  -9.035621e-03  0 
 3.103693e-03  -9.068108e-03  0 
 3.104908e-03  -9.401089e-03  0 
 3.109286e-03  -9.709079e-03  0 
 3.112729e-03  -1.000497e-02  0 
 3.115145e-03  -1.029492e-02  0 
 3.117378e-03  -1.058190e-02  0 
 3.120358e-03  -1.086774e-02  0 
 3.127382e-03  -1.115586e-02  0 
 5.427597e-03  -9.232405e-03  0 
 5.500283e-03  -9.468972e-03  0 
 5.548591e-03  -9.730383e-03  0 
 5.583332e-03  -1.000337e-02  0 
 5.609604e-03  -1.028393e-02  0 
 5.629756e-03  -1.057079e-02  0 
 5.646627e-03  -1.086507e-02  0 
 5.661664e-03  -1.117204e-02  0 
 3.409959e-03  -1.143219e-02  0 
 3.680123e-03  -1.142349e-02  0 
 3.952253e-03  -1.141941e-02  0 
 4.226600e-03  -1.141899e-02  0 
 4.502735e-03  -1.142271e-02  0 
 4.781275e-03  -1.143191e-02  0 
 5.063997e-03  -1.144786e-02  0 
 5.354446e-03  -1.147465e-02  0 
 3.440128e-03  -9.070997e-03  0 
 3.717636e-03  -9.106307e-03  0 
 3.988039e-03  -9.137115e-03  0 
 4.255291e-03  -9.162224e-03  0 
 4.518818e-03  -9.183479e-03  0 
 4.775559e-03  -9.201938e-03  0 
 5.018946e-03  -9.216229e-03  0 
 5.232209e-03  -9.219566e-03  0 
 3.418824e-03  -9.401349e-03  0 
 3.713768e-03  -9.405242e-03  0 
 3.989227e-03  -9.419980e-03  0 
 4.257686e-03  -9.435171e-03  0 
 4.521060e-03  -9.447354e-03  0 
 4.777460e-03  -9.454837e-03  0 
 5.022561e-03  -9.456154e-03  0 
 5.258711e-03  -9.457410e-03  0 
 3.408568e-03  -9.708487e-03  0 
 3.701210e-03  -9.707044e-03  0 
 3.982751e-03  -9.708823e-03  0 
 4.254258e-03  -9.713626e-03  0 
 4.519034e-03  -9.717336e-03  0 
 4.777759e-03  -9.718002e-03  0 
 5.031984e-03  -9.717420e-03  0 
 5.286742e-03  -9.720547e-03  0 
 3.403625e-03  -1.000436e-02  0 
 3.691483e-03  -1.000189e-02  0 
 3.973077e-03  -9.999206e-03  0 
 4.247114e-03  -9.997180e-03  0 
 4.514834e-03  -9.995205e-03  0 
 4.779003e-03  -9.992995e-03  0 
 5.042954e-03  -9.992329e-03  0 
 5.310151e-03  -9.995577e-03  0 
 3.401419e-03  -1.029433e-02  0 
 3.685366e-03  -1.029206e-02  0 
 3.965020e-03  -1.028832e-02  0 
 4.239540e-03  -1.028389e-02  0 
 4.510168e-03  -1.027970e-02  0 
 4.779882e-03  -1.027661e-02  0 
 5.051842e-03  -1.027566e-02  0 
 5.328087e-03  -1.027802e-02  0 
 3.401421e-03  -1.058154e-02  0 
 3.682641e-03  -1.057976e-02  0 
 3.959799e-03  -1.057595e-02  0 
 4.233584e-03  -1.057127e-02  0 
 4.505955e-03  -1.056759e-02  0 
 4.779394e-03  -1.056560e-02  0 
 5.057107e-03  -1.056504e-02  0 
 5.340828e-03  -1.056646e-02  0 
 3.404388e-03  -1.086817e-02  0 
 3.682660e-03  -1.086607e-02  0 
 3.956507e-03  -1.086108e-02  0 
 4.229600e-03  -1.085715e-02  0 
 4.503030e-03  -1.085557e-02  0 
 4.778388e-03  -1.085673e-02  0 
 5.058483e-03  -1.085964e-02  0 
 5.348202e-03  -1.086156e-02  0 
 3.411211e-03  -1.115641e-02  0 
 3.681862e-03  -1.114795e-02  0 
 3.954104e-03  -1.114240e-02  0 
 4.227386e-03  -1.113997e-02  0 
 4.501974e-03  -1.114118e-02  0 
 4.778730e-03  -1.114647e-02  0 
 5.059528e-03  -1.115597e-02  0 
 5.348875e-03  -1.116764e-02  0 
VECTORS displacement_ITER5 FLOAT
 2.985266e-03  -8.512616e-03  0 
 5.135205e-03  -8.975315e-03  0 
 2.999694e-03  -1.133359e-02  0 
 5.509950e-03  -1.140242e-02  0 
 3.276976e-03  -8.643623e-03  0 
 3.553362e-03  -8.706661e-03  0 
 3.823637e-03  -8.747256e-03  0 
 4.090993e-03  -8.779176e-03  0 
 4.353755e-03  -8.808109e-03  0 
 4.608858e-03  -8.838186e-03  0 
 4.849728e-03  -8.874807e-03  0 
 5.058464e-03  -8.923406e-03  0 
 2.948162e-03  -8.951633e-03  0 
 2.950807e-03  -9.284309e-03  0 
 2.955201e-03  -9.591601e-03  0 
 2.957898e-03  -9.886438e-03  0 
 2.959942e-03  -1.017519e-02  0 
 2.962568e-03  -1.046125e-02  0 
 2.966316e-03  -1.074680e-02  0 
 2.974116e-03  -1.103405e-02  0 
 5.261160e-03  -9.116898e-03  0 
 5.335921e-03  -9.351841e-03  0 
 5.385291e-03  -9.612065e-03  0 
 5.420436e-03  -9.883896e-03  0 
 5.446525e-03  -1.016356e-02  0 
 5.466887e-03  -1.044966e-02  0 
 5.484315e-03  -1.074282e-02  0 
 5.500701e-03  -1.104880e-02  0 
 3.254819e-03  -1.130911e-02  0 
 3.523812e-03  -1.130030e-02  0 
 3.795481e-03  -1.129608e-02  0 
 4.068907e-03  -1.129550e-02  0 
 4.343686e-03  -1.129911e-02  0 
 4.620745e-03  -1.130830e-02  0 
 4.902091e-03  -1.132469e-02  0 
 5.192550e-03  -1.135232e-02  0 
 3.285335e-03  -8.954347e-03  0 
 3.562294e-03  -8.989929e-03  0 
 3.831940e-03  -9.021058e-03  0 
 4.098233e-03  -9.046491e-03  0 
 4.360594e-03  -9.067926e-03  0 
 4.616069e-03  -9.086494e-03  0 
 4.858045e-03  -9.100923e-03  0 
 5.068968e-03  -9.104020e-03  0 
 3.263804e-03  -9.284570e-03  0 
 3.558220e-03  -9.288256e-03  0 
 3.832929e-03  -9.303016e-03  0 
 4.100447e-03  -9.318272e-03  0 
 4.362705e-03  -9.330499e-03  0 
 4.617851e-03  -9.337954e-03  0 
 4.861437e-03  -9.339051e-03  0 
 5.095816e-03  -9.340058e-03  0 
 3.253434e-03  -9.590749e-03  0 
 3.545366e-03  -9.589252e-03  0 
 3.826195e-03  -9.590961e-03  0 
 4.096805e-03  -9.595703e-03  0 
 4.360508e-03  -9.599319e-03  0 
 4.617991e-03  -9.599830e-03  0 
 4.870857e-03  -9.599057e-03  0 
 5.124364e-03  -9.602094e-03  0 
 3.248260e-03  -9.885629e-03  0 
 3.535486e-03  -9.883191e-03  0 
 3.816321e-03  -9.880474e-03  0 
 4.089454e-03  -9.878319e-03  0 
 4.356134e-03  -9.876164e-03  0 
 4.619159e-03  -9.873768e-03  0 
 4.881939e-03  -9.872986e-03  0 
 5.148057e-03  -9.876213e-03  0 
 3.245972e-03  -1.017477e-02  0 
 3.529332e-03  -1.017254e-02  0 
 3.808149e-03  -1.016874e-02  0 
 4.081706e-03  -1.016415e-02  0 
 4.351315e-03  -1.015976e-02  0 
 4.620003e-03  -1.015646e-02  0 
 4.890938e-03  -1.015538e-02  0 
 5.166135e-03  -1.015773e-02  0 
 3.246193e-03  -1.046127e-02  0 
 3.526644e-03  -1.045947e-02  0 
 3.802859e-03  -1.045552e-02  0 
 4.075623e-03  -1.045068e-02  0 
 4.346962e-03  -1.044683e-02  0 
 4.619425e-03  -1.044463e-02  0 
 4.896252e-03  -1.044383e-02  0 
 5.179046e-03  -1.044515e-02  0 
 3.249437e-03  -1.074719e-02  0 
 3.526698e-03  -1.074489e-02  0 
 3.799532e-03  -1.073971e-02  0 
 4.071588e-03  -1.073566e-02  0 
 4.343931e-03  -1.073402e-02  0 
 4.618231e-03  -1.073503e-02  0 
 4.897473e-03  -1.073765e-02  0 
 5.186663e-03  -1.073922e-02  0 
 3.256336e-03  -1.103454e-02  0 
 3.525824e-03  -1.102573e-02  0 
 3.797157e-03  -1.102000e-02  0 
 4.069462e-03  -1.101753e-02  0 
 4.342868e-03  -1.101873e-02  0 
 4.618340e-03  -1.102401e-02  0 
 4.898121e-03  -1.103341e-02  0 
 5.187183e-03  -1.104483e-02  0 
VECTORS displacement_ITER6 FLOAT
 2.927227e-03  -8.439406e-03  0 
 5.047580e-03  -8.909838e-03  0 
 2.943429e-03  -1.123601e-02  0 
 5.427733e-03  -1.130811e-02  0 
 3.217825e-03  -8.573211e-03  0 
 3.491479e-03  -8.636872e-03  0 
 3.758355e-03  -8.677953e-03  0 
 4.022211e-03  -8.710436e-03  0 
 4.281745e-03  -8.739865e-03  0 
 4.534127e-03  -8.770150e-03  0 
 4.772265e-03  -8.806770e-03  0 
 4.977800e-03  -8.856274e-03  0 
 2.890976e-03  -8.878736e-03  0 
 2.894548e-03  -9.209037e-03  0 
 2.898888e-03  -9.513441e-03  0 
 2.901334e-03  -9.805454e-03  0 
 2.903154e-03  -1.009153e-02  0 
 2.905666e-03  -1.037469e-02  0 
 2.909784e-03  -1.065718e-02  0 
 2.918085e-03  -1.094085e-02  0 
 5.175950e-03  -9.045035e-03  0 
 5.251653e-03  -9.276510e-03  0 
 5.300965e-03  -9.533691e-03  0 
 5.336065e-03  -9.802852e-03  0 
 5.362283e-03  -1.007970e-02  0 
 5.382740e-03  -1.036268e-02  0 
 5.400361e-03  -1.065258e-02  0 
 5.417577e-03  -1.095537e-02  0 
 3.194955e-03  -1.121227e-02  0 
 3.460816e-03  -1.120377e-02  0 
 3.729778e-03  -1.119958e-02  0 
 4.000188e-03  -1.119882e-02  0 
 4.271840e-03  -1.120235e-02  0 
 4.545738e-03  -1.121163e-02  0 
 4.823845e-03  -1.122859e-02  0 
 5.111444e-03  -1.125711e-02  0 
 3.226279e-03  -8.881479e-03  0 
 3.500284e-03  -8.917321e-03  0 
 3.766766e-03  -8.948715e-03  0 
 4.029797e-03  -8.974513e-03  0 
 4.288960e-03  -8.996335e-03  0 
 4.541375e-03  -9.015150e-03  0 
 4.780394e-03  -9.029640e-03  0 
 4.987858e-03  -9.032408e-03  0 
 3.204515e-03  -9.209283e-03  0 
 3.496088e-03  -9.212891e-03  0 
 3.767743e-03  -9.227758e-03  0 
 4.032120e-03  -9.243207e-03  0 
 4.291198e-03  -9.255650e-03  0 
 4.543162e-03  -9.263244e-03  0 
 4.783498e-03  -9.264247e-03  0 
 5.014545e-03  -9.264957e-03  0 
 3.194099e-03  -9.512571e-03  0 
 3.483083e-03  -9.511079e-03  0 
 3.760923e-03  -9.512793e-03  0 
 4.028441e-03  -9.517594e-03  0 
 4.288977e-03  -9.521284e-03  0 
 4.543219e-03  -9.521820e-03  0 
 4.792798e-03  -9.520998e-03  0 
 5.043088e-03  -9.523952e-03  0 
 3.188843e-03  -9.804579e-03  0 
 3.473112e-03  -9.802108e-03  0 
 3.750930e-03  -9.799360e-03  0 
 4.020979e-03  -9.797175e-03  0 
 4.284506e-03  -9.794999e-03  0 
 4.544325e-03  -9.792590e-03  0 
 4.803877e-03  -9.791819e-03  0 
 5.066792e-03  -9.795086e-03  0 
 3.186433e-03  -1.009087e-02  0 
 3.466861e-03  -1.008853e-02  0 
 3.742633e-03  -1.008463e-02  0 
 4.013094e-03  -1.007997e-02  0 
 4.279577e-03  -1.007552e-02  0 
 4.545128e-03  -1.007220e-02  0 
 4.812921e-03  -1.007114e-02  0 
 5.084977e-03  -1.007362e-02  0 
 3.186572e-03  -1.037450e-02  0 
 3.464046e-03  -1.037245e-02  0 
 3.737209e-03  -1.036834e-02  0 
 4.006891e-03  -1.036343e-02  0 
 4.275124e-03  -1.035956e-02  0 
 4.544493e-03  -1.035734e-02  0 
 4.818284e-03  -1.035653e-02  0 
 5.098041e-03  -1.035796e-02  0 
 3.189750e-03  -1.065733e-02  0 
 3.463933e-03  -1.065473e-02  0 
 3.733773e-03  -1.064940e-02  0 
 4.002800e-03  -1.064532e-02  0 
 4.272037e-03  -1.064370e-02  0 
 4.543206e-03  -1.064475e-02  0 
 4.819440e-03  -1.064735e-02  0 
 5.105805e-03  -1.064884e-02  0 
 3.196489e-03  -1.094120e-02  0 
 3.462926e-03  -1.093233e-02  0 
 3.731368e-03  -1.092653e-02  0 
 4.000705e-03  -1.092406e-02  0 
 4.270990e-03  -1.092527e-02  0 
 4.543254e-03  -1.093069e-02  0 
 4.819895e-03  -1.094026e-02  0 
 5.106230e-03  -1.095166e-02  0 
VECTORS displacement_ITER7 FLOAT
 2.862150e-03  -8.417586e-03  0 
 4.974112e-03  -8.891470e-03  0 
 2.881131e-03  -1.120629e-02  0 
 5.357450e-03  -1.127993e-02  0 
 3.153706e-03  -8.552633e-03  0 
 3.426531e-03  -8.616868e-03  0 
 3.692510e-03  -8.658104e-03  0 
 3.955339e-03  -8.690453e-03  0 
 4.213830e-03  -8.719704e-03  0 
 4.465357e-03  -8.749974e-03  0 
 4.702714e-03  -8.786594e-03  0 
 4.907271e-03  -8.837082e-03  0 
 2.827048e-03  -8.857901e-03  0 
 2.831327e-03  -9.187394e-03  0 
 2.835923e-03  -9.490376e-03  0 
 2.838622e-03  -9.781242e-03  0 
 2.840589e-03  -1.006651e-02  0 
 2.842991e-03  -1.034884e-02  0 
 2.847184e-03  -1.063032e-02  0 
 2.855659e-03  -1.091287e-02  0 
 5.103587e-03  -9.023711e-03  0 
 5.179867e-03  -9.254256e-03  0 
 5.229165e-03  -9.510637e-03  0 
 5.264349e-03  -9.778977e-03  0 
 5.290756e-03  -1.005476e-02  0 
 5.311257e-03  -1.033656e-02  0 
 5.328882e-03  -1.062548e-02  0 
 5.346547e-03  -1.092738e-02  0 
 3.131210e-03  -1.118291e-02  0 
 3.395996e-03  -1.117472e-02  0 
 3.663830e-03  -1.117074e-02  0 
 3.933150e-03  -1.116995e-02  0 
 4.203881e-03  -1.117348e-02  0 
 4.476943e-03  -1.118279e-02  0 
 4.754193e-03  -1.119993e-02  0 
 5.040820e-03  -1.122873e-02  0 
 3.162122e-03  -8.860529e-03  0 
 3.435395e-03  -8.896321e-03  0 
 3.700887e-03  -8.927738e-03  0 
 3.962902e-03  -8.953502e-03  0 
 4.221111e-03  -8.975303e-03  0 
 4.472636e-03  -8.994132e-03  0 
 4.710834e-03  -9.008706e-03  0 
 4.917132e-03  -9.011332e-03  0 
 3.140331e-03  -9.187530e-03  0 
 3.431115e-03  -9.191006e-03  0 
 3.701856e-03  -9.205798e-03  0 
 3.965264e-03  -9.221225e-03  0 
 4.223393e-03  -9.233666e-03  0 
 4.474432e-03  -9.241262e-03  0 
 4.713766e-03  -9.242193e-03  0 
 4.943677e-03  -9.242752e-03  0 
 3.130063e-03  -9.489697e-03  0 
 3.418110e-03  -9.488227e-03  0 
 3.695028e-03  -9.489887e-03  0 
 3.961602e-03  -9.494643e-03  0 
 4.221185e-03  -9.498304e-03  0 
 4.474453e-03  -9.498798e-03  0 
 4.723009e-03  -9.497918e-03  0 
 4.972275e-03  -9.500873e-03  0 
 3.125013e-03  -9.780615e-03  0 
 3.408222e-03  -9.778224e-03  0 
 3.685049e-03  -9.775468e-03  0 
 3.954134e-03  -9.773239e-03  0 
 4.216700e-03  -9.771010e-03  0 
 4.475549e-03  -9.768550e-03  0 
 4.734129e-03  -9.767755e-03  0 
 4.996072e-03  -9.771055e-03  0 
 3.122722e-03  -1.006590e-02  0 
 3.402049e-03  -1.006361e-02  0 
 3.676773e-03  -1.005972e-02  0 
 3.946235e-03  -1.005503e-02  0 
 4.211753e-03  -1.005054e-02  0 
 4.476360e-03  -1.004716e-02  0 
 4.743224e-03  -1.004609e-02  0 
 5.014367e-03  -1.004858e-02  0 
 3.122882e-03  -1.034858e-02  0 
 3.399255e-03  -1.034653e-02  0 
 3.671348e-03  -1.034241e-02  0 
 3.940016e-03  -1.033749e-02  0 
 4.207279e-03  -1.033359e-02  0 
 4.475722e-03  -1.033133e-02  0 
 4.748625e-03  -1.033048e-02  0 
 5.027491e-03  -1.033191e-02  0 
 3.126035e-03  -1.063044e-02  0 
 3.399098e-03  -1.062778e-02  0 
 3.667881e-03  -1.062245e-02  0 
 3.935904e-03  -1.061838e-02  0 
 4.204169e-03  -1.061676e-02  0 
 4.474402e-03  -1.061780e-02  0 
 4.749773e-03  -1.062035e-02  0 
 5.035316e-03  -1.062177e-02  0 
 3.132730e-03  -1.091315e-02  0 
 3.398036e-03  -1.090433e-02  0 
 3.665441e-03  -1.089861e-02  0 
 3.933772e-03  -1.089616e-02  0 
 4.203091e-03  -1.089736e-02  0 
 4.474430e-03  -1.090280e-02  0 
 4.750164e-03  -1.091242e-02  0 
 5.035773e-03  -1.092373e-02  0 
VECTORS displacement_ITER8 FLOAT
 2.829779e-03  -8.401751e-03  0 
 4.931622e-03  -8.878253e-03  0 
 2.850770e-03  -1.118045e-02  0 
 5.317329e-03  -1.125598e-02  0 
 3.121293e-03  -8.537236e-03  0 
 3.392993e-03  -8.601752e-03  0 
 3.658140e-03  -8.643144e-03  0 
 3.919980e-03  -8.675496e-03  0 
 4.177335e-03  -8.704754e-03  0 
 4.427638e-03  -8.735188e-03  0 
 4.663783e-03  -8.772044e-03  0 
 4.867025e-03  -8.823188e-03  0 
 2.795235e-03  -8.841927e-03  0 
 2.799598e-03  -9.170496e-03  0 
 2.804255e-03  -9.472424e-03  0 
 2.807136e-03  -9.762243e-03  0 
 2.809298e-03  -1.004633e-02  0 
 2.811847e-03  -1.032739e-02  0 
 2.816230e-03  -1.060756e-02  0 
 2.825015e-03  -1.088889e-02  0 
 5.061548e-03  -9.008086e-03  0 
 5.138432e-03  -9.237410e-03  0 
 5.187977e-03  -9.492585e-03  0 
 5.223290e-03  -9.759632e-03  0 
 5.249614e-03  -1.003415e-02  0 
 5.270136e-03  -1.031479e-02  0 
 5.287797e-03  -1.060276e-02  0 
 5.305875e-03  -1.090380e-02  0 
 3.099038e-03  -1.115740e-02  0 
 3.362649e-03  -1.114948e-02  0 
 3.629257e-03  -1.114566e-02  0 
 3.897386e-03  -1.114501e-02  0 
 4.166953e-03  -1.114869e-02  0 
 4.438852e-03  -1.115810e-02  0 
 4.715072e-03  -1.117531e-02  0 
 5.000726e-03  -1.120452e-02  0 
 3.129556e-03  -8.844458e-03  0 
 3.401966e-03  -8.880246e-03  0 
 3.666459e-03  -8.911731e-03  0 
 3.927441e-03  -8.937504e-03  0 
 4.184570e-03  -8.959325e-03  0 
 4.434965e-03  -8.978237e-03  0 
 4.671991e-03  -8.992980e-03  0 
 4.876905e-03  -8.995705e-03  0 
 3.107732e-03  -9.170574e-03  0 
 3.397627e-03  -9.174002e-03  0 
 3.667386e-03  -9.188761e-03  0 
 3.929749e-03  -9.204176e-03  0 
 4.186809e-03  -9.216613e-03  0 
 4.436743e-03  -9.224228e-03  0 
 4.674886e-03  -9.225171e-03  0 
 4.903474e-03  -9.225734e-03  0 
 3.097496e-03  -9.471744e-03  0 
 3.384581e-03  -9.470223e-03  0 
 3.660496e-03  -9.471822e-03  0 
 3.926029e-03  -9.476528e-03  0 
 4.184542e-03  -9.480150e-03  0 
 4.436703e-03  -9.480606e-03  0 
 4.684105e-03  -9.479695e-03  0 
 4.932214e-03  -9.482682e-03  0 
 3.092505e-03  -9.761595e-03  0 
 3.374680e-03  -9.759154e-03  0 
 3.650463e-03  -9.756335e-03  0 
 3.918490e-03  -9.754040e-03  0 
 4.179981e-03  -9.751746e-03  0 
 4.437739e-03  -9.749227e-03  0 
 4.695224e-03  -9.748396e-03  0 
 4.956076e-03  -9.751699e-03  0 
 3.090288e-03  -1.004573e-02  0 
 3.368514e-03  -1.004341e-02  0 
 3.642145e-03  -1.003947e-02  0 
 3.910519e-03  -1.003472e-02  0 
 4.174957e-03  -1.003017e-02  0 
 4.438494e-03  -1.002673e-02  0 
 4.704294e-03  -1.002561e-02  0 