# vtk DataFile Version 3.1
this is an vtk file created by FEMAC
ASCII
DATASET UNSTRUCTURED_GRID
POINTS 100 FLOAT
5.000000 2.000000 0.000000
5.000000 3.000000 0.000000
6.000000 2.000000 0.000000
6.000000 3.000000 0.000000
5.000000 2.111111 0.000000
5.000000 2.222222 0.000000
5.000000 2.333333 0.000000
5.000000 2.444444 0.000000
5.000000 2.555556 0.000000
5.000000 2.666667 0.000000
5.000000 2.777778 0.000000
5.000000 2.888889 0.000000
5.111111 2.000000 0.000000
5.222222 2.000000 0.000000
5.333333 2.000000 0.000000
5.444444 2.000000 0.000000
5.555556 2.000000 0.000000
5.666667 2.000000 0.000000
5.777778 2.000000 0.000000
5.888889 2.000000 0.000000
5.111111 3.000000 0.000000
5.222222 3.000000 0.000000
5.333333 3.000000 0.000000
5.444444 3.000000 0.000000
5.555556 3.000000 0.000000
5.666667 3.000000 0.000000
5.777778 3.000000 0.000000
5.888889 3.000000 0.000000
6.000000 2.111111 0.000000
6.000000 2.222222 0.000000
6.000000 2.333333 0.000000
6.000000 2.444444 0.000000
6.000000 2.555556 0.000000
6.000000 2.666667 0.000000
6.000000 2.777778 0.000000
6.000000 2.888889 0.000000
5.111111 2.111111 0.000000
5.111111 2.222222 0.000000
5.111111 2.333333 0.000000
5.111111 2.444444 0.000000
5.111111 2.555556 0.000000
5.111111 2.666667 0.000000
5.111111 2.777778 0.000000
5.111111 2.888889 0.000000
5.222222 2.111111 0.000000
5.222222 2.222222 0.000000
5.222222 2.333333 0.000000
5.222222 2.444444 0.000000
5.222222 2.555556 0.000000
5.222222 2.666667 0.000000
5.222222 2.777778 0.000000
5.222222 2.888889 0.000000
5.333333 2.111111 0.000000
5.333333 2.222222 0.000000
5.333333 2.333333 0.000000
5.333333 2.444444 0.000000
5.333333 2.555556 0.000000
5.333333 2.666667 0.000000
5.333333 2.777778 0.000000
5.333333 2.888889 0.000000
5.444444 2.111111 0.000000
5.444444 2.222222 0.000000
5.444444 2.333333 0.000000
5.444444 2.444444 0.000000
5.444444 2.555556 0.000000
5.444444 2.666667 0.000000
5.444444 2.777778 0.000000
5.444444 2.888889 0.000000
5.555556 2.111111 0.000000
5.555556 2.222222 0.000000
5.555556 2.333333 0.000000
5.555556 2.444444 0.000000
5.555556 2.555556 0.000000
5.555556 2.666667 0.000000
5.555556 2.777778 0.000000
5.555556 2.888889 0.000000
5.666667 2.111111 0.000000
5.666667 2.222222 0.000000
5.666667 2.333333 0.000000
5.666667 2.444444 0.000000
5.666667 2.555556 0.000000
5.666667 2.666667 0.000000
5.666667 2.777778 0.000000
5.666667 2.888889 0.000000
5.777778 2.111111 0.000000
5.777778 2.222222 0.000000
5.777778 2.333333 0.000000
5.777778 2.444444 0.000000
5.777778 2.555556 0.000000
5.777778 2.666667 0.000000
5.777778 2.777778 0.000000
5.777778 2.888889 0.000000
5.888889 2.111111 0.000000
5.888889 2.222222 0.000000
5.888889 2.333333 0.000000
5.888889 2.444444 0.000000
5.888889 2.555556 0.000000
5.888889 2.666667 0.000000
5.888889 2.777778 0.000000
5.888889 2.888889 0.000000
CELLS 81 405 
4 0 12 36  4
4 4 36 37  5
4 5 37 38  6
4 6 38 39  7
4 7 39 40  8
4 8 40 41  9
4 9 41 42 10
4 10 42 43 11
4 11 43 20  1
4 12 13 44 36
4 36 44 45 37
4 37 45 46 38
4 38 46 47 39
4 39 47 48 40
4 40 48 49 41
4 41 49 50 42
4 42 50 51 43
4 43 51 21 20
4 13 14 52 44
4 44 52 53 45
4 45 53 54 46
4 46 54 55 47
4 47 55 56 48
4 48 56 57 49
4 49 57 58 50
4 50 58 59 51
4 51 59 22 21
4 14 15 60 52
4 52 60 61 53
4 53 61 62 54
4 54 62 63 55
4 55 63 64 56
4 56 64 65 57
4 57 65 66 58
4 58 66 67 59
4 59 67 23 22
4 15 16 68 60
4 60 68 69 61
4 61 69 70 62
4 62 70 71 63
4 63 71 72 64
4 64 72 73 65
4 65 73 74 66
4 66 74 75 67
4 67 75 24 23
4 16 17 76 68
4 68 76 77 69
4 69 77 78 70
4 70 78 79 71
4 71 79 80 72
4 72 80 81 73
4 73 81 82 74
4 74 82 83 75
4 75 83 25 24
4 17 18 84 76
4 76 84 85 77
4 77 85 86 78
4 78 86 87 79
4 79 87 88 80
4 80 88 89 81
4 81 89 90 82
4 82 90 91 83
4 83 91 26 25
4 18 19 92 84
4 84 92 93 85
4 85 93 94 86
4 86 94 95 87
4 87 95 96 88
4 88 96 97 89
4 89 97 98 90
4 90 98 99 91
4 91 99 27 26
4 19  2 28 92
4 92 28 29 93
4 93 29 30 94
4 94 30 31 95
4 95 31 32 96
4 96 32 33 97
4 97 33 34 98
4 98 34 35 99
4 99 35  3 27
CELL_TYPES 81
9 9 9 9 9 9 9 9 9 9 9 9 9 9 9 9 9 9 9 9 9 9 9 9 9 9 9 9 9 9 9 9 9 9 9 9 9 9 9 9 9 9 9 9 9 9 9 9 9 9 9 9 9 9 9 9 9 9 9 9 9 9 9 9 9 9 9 9 9 9 9 9 9 9 9 9 9 9 9 9 9 
POINT_DATA 100
VECTORS displacement_ITER1 FLOAT
 -3.144314e-03  -1.707152e-02  0 
 1.205176e-03  -1.663947e-02  0 
 -3.322691e-03  -2.159415e-02  0 
 9.417145e-04  -2.107526e-02  0 
 -2.752565e-03  -1.692113e-02  0 
 -2.179601e-03  -1.666074e-02  0 
 -1.616451e-03  -1.694736e-02  0 
 -1.098664e-03  -1.705843e-02  0 
 -7.519496e-04  -1.705009e-02  0 
 -4.545086e-04  -1.712012e-02  0 
 -1.408418e-04  -1.692947e-02  0 
 3.464854e-04  -1.677640e-02  0 
 -3.255274e-03  -1.776209e-02  0 
 -3.330811e-03  -1.847266e-02  0 
 -3.409035e-03  -1.895045e-02  0 
 -3.404992e-03  -1.941795e-02  0 
 -3.372999e-03  -1.982904e-02  0 
 -3.340950e-03  -2.021812e-02  0 
 -3.306733e-03  -2.063718e-02  0 
 -3.302323e-03  -2.113562e-02  0 
 9.891898e-04  -1.760147e-02  0 
 9.735547e-04  -1.807500e-02  0 
 1.177154e-03  -1.847084e-02  0 
 1.318100e-03  -1.890864e-02  0 
 1.293267e-03  -1.935890e-02  0 
 1.197148e-03  -1.980360e-02  0 
 1.040837e-03  -2.028103e-02  0 
 9.121831e-04  -2.075058e-02  0 
 -2.821652e-03  -2.167211e-02  0 
 -2.350583e-03  -2.171930e-02  0 
 -1.878545e-03  -2.174638e-02  0 
 -1.394489e-03  -2.174156e-02  0 
 -9.028407e-04  -2.169718e-02  0 
 -4.143612e-04  -2.160933e-02  0 
 5.796234e-05  -2.147674e-02  0 
 5.003153e-04  -2.130097e-02  0 
 -2.766157e-03  -1.763360e-02  0 
 -2.198523e-03  -1.759021e-02  0 
 -1.621771e-03  -1.756031e-02  0 
 -1.168878e-03  -1.756106e-02  0 
 -7.606230e-04  -1.754282e-02  0 
 -4.048463e-04  -1.750279e-02  0 
 -2.551803e-05  -1.749381e-02  0 
 4.668358e-04  -1.752916e-02  0 
 -2.806218e-03  -1.831185e-02  0 
 -2.251960e-03  -1.823688e-02  0 
 -1.715587e-03  -1.817349e-02  0 
 -1.224699e-03  -1.811156e-02  0 
 -7.821000e-04  -1.806138e-02  0 
 -3.494196e-04  -1.802697e-02  0 
 1.088279e-04  -1.802375e-02  0 
 5.921661e-04  -1.804487e-02  0 
 -2.863998e-03  -1.888559e-02  0 
 -2.318288e-03  -1.881326e-02  0 
 -1.789443e-03  -1.874241e-02  0 
 -1.283734e-03  -1.867310e-02  0 
 -7.976596e-04  -1.861347e-02  0 
 -3.145269e-04  -1.857040e-02  0 
 1.805761e-04  -1.853622e-02  0 
 6.799373e-04  -1.849269e-02  0 
 -2.894562e-03  -1.938934e-02  0 
 -2.368990e-03  -1.934216e-02  0 
 -1.843067e-03  -1.928462e-02  0 
 -1.325922e-03  -1.922393e-02  0 
 -8.163538e-04  -1.916610e-02  0 
 -3.088783e-04  -1.911162e-02  0 
 2.030726e-04  -1.905193e-02  0 
 7.321067e-04  -1.898259e-02  0 
 -2.901417e-03  -1.984806e-02  0 
 -2.393526e-03  -1.983669e-02  0 
 -1.874370e-03  -1.980338e-02  0 
 -1.353737e-03  -1.975658e-02  0 
 -8.355369e-04  -1.970288e-02  0 
 -3.206942e-04  -1.964367e-02  0 
 1.964922e-04  -1.957438e-02  0 
 7.330739e-04  -1.948556e-02  0 
 -2.884668e-03  -2.028655e-02  0 
 -2.394508e-03  -2.031167e-02  0 
 -1.886759e-03  -2.030239e-02  0 
 -1.370433e-03  -2.026966e-02  0 
 -8.525170e-04  -2.022026e-02  0 
 -3.378597e-04  -2.015830e-02  0 
 1.703130e-04  -2.008367e-02  0 
 6.764108e-04  -1.997822e-02  0 
 -2.855873e-03  -2.073270e-02  0 
 -2.381840e-03  -2.077848e-02  0 
 -1.886983e-03  -2.078838e-02  0 
 -1.380069e-03  -2.076695e-02  0 
 -8.678532e-04  -2.072022e-02  0 
 -3.584074e-04  -2.065193e-02  0 
 1.379701e-04  -2.056258e-02  0 
 6.013696e-04  -2.045267e-02  0 
 -2.837219e-03  -2.119293e-02  0 
 -2.364802e-03  -2.124766e-02  0 
 -1.882693e-03  -2.126827e-02  0 
 -1.387308e-03  -2.125490e-02  0 
 -8.842108e-04  -2.120910e-02  0 
 -3.837424e-04  -2.113131e-02  0 
 1.007221e-04  -2.102090e-02  0 
 5.557379e-04  -2.087829e-02  0 
VECTORS displacement_ITER2 FLOAT
 -2.443513e-03  -1.368594e-02  0 
 1.106728e-03  -1.319725e-02  0 
 -2.644624e-03  -1.697674e-02  0 
 1.158593e-03  -1.651804e-02  0 
 -2.160642e-03  -1.320644e-02  0 
 -1.815372e-03  -1.328189e-02  0 
 -1.513391e-03  -1.319171e-02  0 
 -9.809900e-04  -1.315531e-02  0 
 -5.201063e-04  -1.314685e-02  0 
 -1.769325e-05  -1.310945e-02  0 
 4.257551e-04  -1.313646e-02  0 
 6.967968e-04  -1.297180e-02  0 
 -2.560390e-03  -1.397572e-02  0 
 -2.551673e-03  -1.429867e-02  0 
 -2.627572e-03  -1.456642e-02  0 
 -2.639275e-03  -1.494996e-02  0 
 -2.627698e-03  -1.536511e-02  0 
 -2.610280e-03  -1.578293e-02  0 
 -2.585496e-03  -1.619795e-02  0 
 -2.597813e-03  -1.661632e-02  0 
 1.068243e-03  -1.352747e-02  0 
 1.113744e-03  -1.389611e-02  0 
 1.154055e-03  -1.438417e-02  0 
 1.099612e-03  -1.479811e-02  0 
 1.015402e-03  -1.509030e-02  0 
 9.771387e-04  -1.532355e-02  0 
 9.832125e-04  -1.557447e-02  0 
 1.077628e-03  -1.594477e-02  0 
 -2.192447e-03  -1.705460e-02  0 
 -1.778045e-03  -1.707358e-02  0 
 -1.377490e-03  -1.706387e-02  0 
 -9.842640e-04  -1.702508e-02  0 
 -5.985756e-04  -1.695482e-02  0 
 -2.222287e-04  -1.685428e-02  0 
 1.503196e-04  -1.673448e-02  0 
 5.587970e-04  -1.662265e-02  0 
 -2.217379e-03  -1.384445e-02  0 
 -1.826372e-03  -1.372375e-02  0 
 -1.434950e-03  -1.370718e-02  0 
 -9.833641e-04  -1.369322e-02  0 
 -5.140363e-04  -1.366379e-02  0 
 -5.581214e-05  -1.363384e-02  0 
 3.489400e-04  -1.356266e-02  0 
 7.521146e-04  -1.354737e-02  0 
 -2.252478e-03  -1.423742e-02  0 
 -1.844127e-03  -1.420120e-02  0 
 -1.408667e-03  -1.417755e-02  0 
 -9.681633e-04  -1.416493e-02  0 
 -5.205285e-04  -1.413948e-02  0 
 -8.734271e-05  -1.409360e-02  0 
 3.318702e-04  -1.404426e-02  0 
 7.335230e-04  -1.397879e-02  0 
 -2.245659e-03  -1.460980e-02  0 
 -1.834107e-03  -1.462832e-02  0 
 -1.399056e-03  -1.462519e-02  0 
 -9.585709e-04  -1.460813e-02  0 
 -5.229662e-04  -1.457774e-02  0 
 -9.578547e-05  -1.453514e-02  0 
 3.163667e-04  -1.448388e-02  0 
 7.146976e-04  -1.442812e-02  0 
 -2.227162e-03  -1.500719e-02  0 
 -1.812961e-03  -1.504108e-02  0 
 -1.386681e-03  -1.504877e-02  0 
 -9.535992e-04  -1.503218e-02  0 
 -5.213767e-04  -1.499672e-02  0 
 -9.645777e-05  -1.494781e-02  0 
 3.149911e-04  -1.489347e-02  0 
 7.127778e-04  -1.484676e-02  0 
 -2.210445e-03  -1.542029e-02  0 
 -1.795173e-03  -1.545236e-02  0 
 -1.375802e-03  -1.545997e-02  0 
 -9.506269e-04  -1.544255e-02  0 
 -5.230551e-04  -1.540126e-02  0 
 -9.820489e-05  -1.533995e-02  0 
 3.160430e-04  -1.526686e-02  0 
 7.020850e-04  -1.518772e-02  0 
 -2.196576e-03  -1.583527e-02  0 
 -1.785460e-03  -1.586105e-02  0 
 -1.370474e-03  -1.586482e-02  0 
 -9.520270e-04  -1.584468e-02  0 
 -5.323256e-04  -1.579701e-02  0 
 -1.129012e-04  -1.571990e-02  0 
 2.994659e-04  -1.561304e-02  0 
 6.783545e-04  -1.547986e-02  0 
 -2.190832e-03  -1.624284e-02  0 
 -1.783071e-03  -1.626391e-02  0 
 -1.369764e-03  -1.626621e-02  0 
 -9.585236e-04  -1.624170e-02  0 
 -5.502053e-04  -1.618718e-02  0 
 -1.452313e-04  -1.609765e-02  0 
 2.569754e-04  -1.596334e-02  0 
 6.494983e-04  -1.578097e-02  0 
 -2.197843e-03  -1.663854e-02  0 
 -1.780557e-03  -1.666709e-02  0 
 -1.372069e-03  -1.666596e-02  0 
 -9.695473e-04  -1.663472e-02  0 
 -5.733880e-04  -1.657269e-02  0 
 -1.853856e-04  -1.647739e-02  0 
 1.983115e-04  -1.634308e-02  0 
 6.056740e-04  -1.615637e-02  0 
VECTORS displacement_ITER3 FLOAT
 -2.356008e-03  -1.203516e-02  0 
 9.214076e-04  -1.194713e-02  0 
 -2.286937e-03  -1.493658e-02  0 
 7.755541e-04  -1.455502e-02  0 
 -1.826643e-03  -1.170405e-02  0 
 -1.436245e-03  -1.188351e-02  0 
 -1.173610e-03  -1.176225e-02  0 
 -8.058070e-04  -1.176637e-02  0 
 -4.871876e-04  -1.180759e-02  0 
 -1.009034e-04  -1.171539e-02  0 
 3.188753e-04  -1.178613e-02  0 
 5.258933e-04  -1.172079e-02  0 
 -2.274105e-03  -1.250097e-02  0 
 -2.272998e-03  -1.277883e-02  0 
 -2.301308e-03  -1.305189e-02  0 
 -2.295939e-03  -1.337788e-02  0 
 -2.299839e-03  -1.372167e-02  0 
 -2.300095e-03  -1.405199e-02  0 
 -2.304115e-03  -1.434171e-02  0 
 -2.318253e-03  -1.462739e-02  0 
 8.885578e-04  -1.217518e-02  0 
 8.867867e-04  -1.238389e-02  0 
 8.609753e-04  -1.274336e-02  0 
 8.372884e-04  -1.306623e-02  0 
 8.558090e-04  -1.336678e-02  0 
 8.774529e-04  -1.366852e-02  0 
 8.731784e-04  -1.394342e-02  0 
 8.623025e-04  -1.421764e-02  0 
 -1.946350e-03  -1.505218e-02  0 
 -1.601719e-03  -1.511270e-02  0 
 -1.258598e-03  -1.513463e-02  0 
 -9.157121e-04  -1.512203e-02  0 
 -5.734193e-04  -1.507697e-02  0 
 -2.315755e-04  -1.500009e-02  0 
 1.094086e-04  -1.488995e-02  0 
 4.497540e-04  -1.474340e-02  0 
 -1.908424e-03  -1.238030e-02  0 
 -1.508667e-03  -1.225753e-02  0 
 -1.173772e-03  -1.223352e-02  0 
 -8.110668e-04  -1.221406e-02  0 
 -4.618153e-04  -1.219717e-02  0 
 -9.040920e-05  -1.219899e-02  0 
 2.672635e-04  -1.215665e-02  0 
 6.164748e-04  -1.216666e-02  0 
 -1.955612e-03  -1.274602e-02  0 
 -1.574271e-03  -1.269871e-02  0 
 -1.191073e-03  -1.265420e-02  0 
 -8.238817e-04  -1.262890e-02  0 
 -4.554198e-04  -1.260785e-02  0 
 -9.509765e-05  -1.258129e-02  0 
 2.597164e-04  -1.255005e-02  0 
 5.937724e-04  -1.249378e-02  0 
 -1.959950e-03  -1.308071e-02  0 
 -1.596382e-03  -1.307775e-02  0 
 -1.216915e-03  -1.305340e-02  0 
 -8.377130e-04  -1.302280e-02  0 
 -4.660483e-04  -1.298987e-02  0 
 -1.033636e-04  -1.295022e-02  0 
 2.425791e-04  -1.289756e-02  0 
 5.597065e-04  -1.282622e-02  0 
 -1.956119e-03  -1.341823e-02  0 
 -1.601346e-03  -1.343172e-02  0 
 -1.231970e-03  -1.342213e-02  0 
 -8.554293e-04  -1.339489e-02  0 
 -4.818518e-04  -1.335430e-02  0 
 -1.189931e-04  -1.330042e-02  0 
 2.261952e-04  -1.323185e-02  0 
 5.496906e-04  -1.315245e-02  0 
 -1.955699e-03  -1.375613e-02  0 
 -1.605740e-03  -1.377362e-02  0 
 -1.242385e-03  -1.377208e-02  0 
 -8.712447e-04  -1.374957e-02  0 
 -5.004096e-04  -1.370569e-02  0 
 -1.370734e-04  -1.364158e-02  0 
 2.132433e-04  -1.356043e-02  0 
 5.450662e-04  -1.346612e-02  0 
 -1.964364e-03  -1.408476e-02  0 
 -1.612729e-03  -1.410756e-02  0 
 -1.251050e-03  -1.411337e-02  0 
 -8.849547e-04  -1.409501e-02  0 
 -5.189970e-04  -1.405028e-02  0 
 -1.568832e-04  -1.397991e-02  0 
 1.987083e-04  -1.388654e-02  0 
 5.432488e-04  -1.377863e-02  0 
 -1.972215e-03  -1.439918e-02  0 
 -1.616705e-03  -1.443875e-02  0 
 -1.256998e-03  -1.445249e-02  0 
 -8.967025e-04  -1.443742e-02  0 
 -5.371673e-04  -1.439266e-02  0 
 -1.792656e-04  -1.431870e-02  0 
 1.768415e-04  -1.421684e-02  0 
 5.338439e-04  -1.408808e-02  0 
 -1.965261e-03  -1.471689e-02  0 
 -1.612443e-03  -1.477260e-02  0 
 -1.259140e-03  -1.479262e-02  0 
 -9.067298e-04  -1.477957e-02  0 
 -5.552303e-04  -1.473482e-02  0 
 -2.044018e-04  -1.465892e-02  0 
 1.463472e-04  -1.455164e-02  0 
 4.960296e-04  -1.440987e-02  0 
VECTORS displacement_ITER4 FLOAT
 -2.200687e-03  -1.166602e-02  0 
 8.676139e-04  -1.132832e-02  0 
 -2.192646e-03  -1.435586e-02  0 
 6.972512e-04  -1.392509e-02  0 
 -1.795899e-03  -1.141749e-02  0 
 -1.486109e-03  -1.142124e-02  0 
 -1.137678e-03  -1.136506e-02  0 
 -8.077243e-04  -1.136379e-02  0 
 -4.753235e-04  -1.138177e-02  0 
 -1.554362e-04  -1.137694e-02  0 
 1.810935e-04  -1.139759e-02  0 
 4.303579e-04  -1.138268e-02  0 
 -2.149462e-03  -1.200165e-02  0 
 -2.184733e-03  -1.224825e-02  0 
 -2.189395e-03  -1.258381e-02  0 
 -2.157867e-03  -1.290324e-02  0 
 -2.154465e-03  -1.320262e-02  0 
 -2.176602e-03  -1.349381e-02  0 
 -2.193849e-03  -1.378962e-02  0 
 -2.201088e-03  -1.407512e-02  0 
 7.877315e-04  -1.178120e-02  0 
 7.319601e-04  -1.199744e-02  0 
 6.944558e-04  -1.224570e-02  0 
 7.223769e-04  -1.249987e-02  0 
 7.751984e-04  -1.280488e-02  0 
 8.108116e-04  -1.313385e-02  0 
 8.080027e-04  -1.345241e-02  0 
 7.644289e-04  -1.371923e-02  0 
 -1.859882e-03  -1.446409e-02  0 
 -1.534945e-03  -1.451473e-02  0 
 -1.216057e-03  -1.453127e-02  0 
 -8.993415e-04  -1.452012e-02  0 
 -5.804087e-04  -1.448278e-02  0 
 -2.552328e-04  -1.441824e-02  0 
 7.820374e-05  -1.431992e-02  0 
 4.110402e-04  -1.416829e-02  0 
 -1.867347e-03  -1.191465e-02  0 
 -1.501013e-03  -1.184064e-02  0 
 -1.156014e-03  -1.181357e-02  0 
 -8.045495e-04  -1.179168e-02  0 
 -4.676510e-04  -1.177882e-02  0 
 -1.366450e-04  -1.177247e-02  0 
 1.764291e-04  -1.175691e-02  0 
 4.821043e-04  -1.175825e-02  0 
 -1.872268e-03  -1.226202e-02  0 
 -1.526137e-03  -1.224498e-02  0 
 -1.168456e-03  -1.221421e-02  0 
 -8.163559e-04  -1.218729e-02  0 
 -4.694959e-04  -1.216006e-02  0 
 -1.348366e-04  -1.213122e-02  0 
 1.866840e-04  -1.210236e-02  0 
 4.878424e-04  -1.207071e-02  0 
 -1.861529e-03  -1.260219e-02  0 
 -1.530701e-03  -1.260220e-02  0 
 -1.183007e-03  -1.258445e-02  0 
 -8.299602e-04  -1.255522e-02  0 
 -4.812365e-04  -1.251830e-02  0 
 -1.416479e-04  -1.247290e-02  0 
 1.818797e-04  -1.241638e-02  0 
 4.711432e-04  -1.234036e-02  0 
 -1.859197e-03  -1.293014e-02  0 
 -1.533690e-03  -1.293650e-02  0 
 -1.193269e-03  -1.292762e-02  0 
 -8.448916e-04  -1.290150e-02  0 
 -4.973447e-04  -1.285898e-02  0 
 -1.583218e-04  -1.279960e-02  0 
 1.640447e-04  -1.271950e-02  0 
 4.605458e-04  -1.261630e-02  0 
 -1.860231e-03  -1.323687e-02  0 
 -1.538614e-03  -1.325625e-02  0 
 -1.202212e-03  -1.325521e-02  0 
 -8.588686e-04  -1.323273e-02  0 
 -5.153879e-04  -1.318769e-02  0 
 -1.788535e-04  -1.311989e-02  0 
 1.455880e-04  -1.302955e-02  0 
 4.589317e-04  -1.291966e-02  0 
 -1.865539e-03  -1.353873e-02  0 
 -1.543012e-03  -1.356798e-02  0 
 -1.209889e-03  -1.357511e-02  0 
 -8.715800e-04  -1.355664e-02  0 
 -5.328164e-04  -1.351118e-02  0 
 -1.972307e-04  -1.344024e-02  0 
 1.329776e-04  -1.334889e-02  0 
 4.626682e-04  -1.324450e-02  0 
 -1.873016e-03  -1.384171e-02  0 
 -1.545798e-03  -1.387896e-02  0 
 -1.214750e-03  -1.389324e-02  0 
 -8.825066e-04  -1.387869e-02  0 
 -5.490520e-04  -1.383464e-02  0 
 -2.136496e-04  -1.376326e-02  0 
 1.242237e-04  -1.367056e-02  0 
 4.629575e-04  -1.356658e-02  0 
 -1.874957e-03  -1.414577e-02  0 
 -1.542998e-03  -1.419445e-02  0 
 -1.216371e-03  -1.421251e-02  0 
 -8.915766e-04  -1.420051e-02  0 
 -5.648862e-04  -1.415931e-02  0 
 -2.325231e-04  -1.408958e-02  0 
 1.080876e-04  -1.399178e-02  0 
 4.513588e-04  -1.386720e-02  0 
VECTORS displacement_ITER5 FLOAT
 -2.170462e-03  -1.137762e-02  0 
 6.521081e-04  -1.137333e-02  0 
 -2.167707e-03  -1.412363e-02  0 
 6.335070e-04  -1.379491e-02  0 
 -1.764746e-03  -1.131854e-02  0 
 -1.456628e-03  -1.126678e-02  0 
 -1.122771e-03  -1.123765e-02  0 
 -8.596713e-04  -1.124790e-02  0 
 -5.632563e-04  -1.125684e-02  0 
 -2.641704e-04  -1.125501e-02  0 
 7.371586e-05  -1.123763e-02  0 
 4.251940e-04  -1.129697e-02  0 
 -2.125194e-03  -1.183169e-02  0 
 -2.167276e-03  -1.212265e-02  0 
 -2.153768e-03  -1.244554e-02  0 
 -2.142077e-03  -1.273140e-02  0 
 -2.146768e-03  -1.301343e-02  0 
 -2.159197e-03  -1.329434e-02  0 
 -2.166509e-03  -1.358166e-02  0 
 -2.164696e-03  -1.385919e-02  0 
 6.746754e-04  -1.157083e-02  0 
 7.098459e-04  -1.186959e-02  0 
 6.733243e-04  -1.216985e-02  0 
 6.470040e-04  -1.245864e-02  0 
 6.200810e-04  -1.273436e-02  0 
 6.067139e-04  -1.298331e-02  0 
 6.197329e-04  -1.322324e-02  0 
 6.353138e-04  -1.346931e-02  0 
 -1.842538e-03  -1.423341e-02  0 
 -1.531625e-03  -1.428611e-02  0 
 -1.226316e-03  -1.430339e-02  0 
 -9.249873e-04  -1.429006e-02  0 
 -6.265571e-04  -1.424693e-02  0 
 -3.306716e-04  -1.417484e-02  0 
 -3.484853e-05  -1.407600e-02  0 
 2.707643e-04  -1.395301e-02  0 
 -1.825639e-03  -1.175173e-02  0 
 -1.486985e-03  -1.170097e-02  0 
 -1.161201e-03  -1.166802e-02  0 
 -8.477661e-04  -1.164906e-02  0 
 -5.437409e-04  -1.164574e-02  0 
 -2.306068e-04  -1.164317e-02  0 
 1.017294e-04  -1.164303e-02  0 
 4.240340e-04  -1.161936e-02  0 
 -1.846675e-03  -1.211736e-02  0 
 -1.517531e-03  -1.209116e-02  0 
 -1.185004e-03  -1.206186e-02  0 
 -8.572850e-04  -1.203857e-02  0 
 -5.349092e-04  -1.202204e-02  0 
 -2.141270e-04  -1.200902e-02  0 
 1.026951e-04  -1.198422e-02  0 
 4.036664e-04  -1.193487e-02  0 
 -1.853357e-03  -1.245107e-02  0 
 -1.533637e-03  -1.244299e-02  0 
 -1.202417e-03  -1.242537e-02  0 
 -8.685968e-04  -1.240302e-02  0 
 -5.381904e-04  -1.237854e-02  0 
 -2.160260e-04  -1.234882e-02  0 
 9.315807e-05  -1.230725e-02  0 
 3.910159e-04  -1.225033e-02  0 
 -1.855582e-03  -1.275984e-02  0 
 -1.541508e-03  -1.276896e-02  0 
 -1.213460e-03  -1.276308e-02  0 
 -8.798312e-04  -1.274412e-02  0 
 -5.482381e-04  -1.271339e-02  0 
 -2.257662e-04  -1.267096e-02  0 
 8.242735e-05  -1.261661e-02  0 
 3.725859e-04  -1.254760e-02  0 
 -1.855709e-03  -1.305413e-02  0 
 -1.544597e-03  -1.307859e-02  0 
 -1.220481e-03  -1.308277e-02  0 
 -8.904646e-04  -1.306731e-02  0 
 -5.611562e-04  -1.303259e-02  0 
 -2.387388e-04  -1.297961e-02  0 
 7.021404e-05  -1.291078e-02  0 
 3.584298e-04  -1.282924e-02  0 
 -1.856957e-03  -1.334649e-02  0 
 -1.545443e-03  -1.337988e-02  0 
 -1.225002e-03  -1.339160e-02  0 
 -9.001575e-04  -1.337950e-02  0 
 -5.759210e-04  -1.334229e-02  0 
 -2.559079e-04  -1.328016e-02  0 
 5.540632e-05  -1.319551e-02  0 
 3.487355e-04  -1.309454e-02  0 
 -1.858906e-03  -1.363882e-02  0 
 -1.545398e-03  -1.367837e-02  0 
 -1.227076e-03  -1.369598e-02  0 
 -9.088048e-04  -1.368586e-02  0 
 -5.922454e-04  -1.364691e-02  0 
 -2.784203e-04  -1.357876e-02  0 
 3.263787e-05  -1.348070e-02  0 
 3.373517e-04  -1.335626e-02  0 
 -1.859244e-03  -1.392869e-02  0 
 -1.540570e-03  -1.397982e-02  0 
 -1.227044e-03  -1.399979e-02  0 
 -9.168074e-04  -1.398910e-02  0 
 -6.093066e-04  -1.394836e-02  0 
 -3.043995e-04  -1.387763e-02  0 
 -1.357440e-07  -1.377564e-02  0 
 3.126056e-04  -1.363783e-02  0 
VECTORS displacement_ITER6 FLOAT
 -2.126516e-03  -1.134073e-02  0 
 6.882627e-04  -1.119445e-02  0 
 -2.182969e-03  -1.403473e-02  0 
 6.155930e-04  -1.368304e-02  0 
 -1.811390e-03  -1.128557e-02  0 
 -1.512830e-03  -1.118186e-02  0 
 -1.178896e-03  -1.118126e-02  0 
 -8.788273e-04  -1.115189e-02  0 
 -5.399556e-04  -1.114015e-02  0 
 -2.269710e-04  -1.117923e-02  0 
 6.481732e-05  -1.117932e-02  0 
 3.893373e-04  -1.122337e-02  0 
 -2.130814e-03  -1.172556e-02  0 
 -2.162032e-03  -1.203461e-02  0 
 -2.147472e-03  -1.233245e-02  0 
 -2.153885e-03  -1.261365e-02  0 
 -2.157732e-03  -1.290303e-02  0 
 -2.157241e-03  -1.318900e-02  0 
 -2.160246e-03  -1.347646e-02  0 
 -2.165182e-03  -1.376268e-02  0 
 6.382148e-04  -1.151131e-02  0 
 6.176007e-04  -1.179191e-02  0 
 6.042803e-04  -1.205094e-02  0 
 6.017972e-04  -1.232469e-02  0 
 5.952334e-04  -1.259396e-02  0 
 5.945902e-04  -1.285656e-02  0 
 6.036349e-04  -1.311961e-02  0 
 6.097198e-04  -1.338220e-02  0 
 -1.846110e-03  -1.413171e-02  0 
 -1.537434e-03  -1.417532e-02  0 
 -1.237889e-03  -1.418817e-02  0 
 -9.425847e-04  -1.417350e-02  0 
 -6.490059e-04  -1.413178e-02  0 
 -3.552837e-04  -1.406381e-02  0 
 -5.748702e-05  -1.397065e-02  0 
 2.531357e-04  -1.385074e-02  0 
 -1.848778e-03  -1.166428e-02  0 
 -1.527802e-03  -1.162606e-02  0 
 -1.197982e-03  -1.159045e-02  0 
 -8.718802e-04  -1.157277e-02  0 
 -5.387891e-04  -1.156410e-02  0 
 -2.182398e-04  -1.155367e-02  0 
 9.038738e-05  -1.155601e-02  0 
 3.824081e-04  -1.154377e-02  0 
 -1.859610e-03  -1.202141e-02  0 
 -1.542288e-03  -1.200084e-02  0 
 -1.211311e-03  -1.197933e-02  0 
 -8.755785e-04  -1.195892e-02  0 
 -5.439384e-04  -1.193870e-02  0 
 -2.200503e-04  -1.191619e-02  0 
 8.765667e-05  -1.188698e-02  0 
 3.696559e-04  -1.184624e-02  0 
 -1.864720e-03  -1.234525e-02  0 
 -1.549203e-03  -1.234504e-02  0 
 -1.219815e-03  -1.233473e-02  0 
 -8.852200e-04  -1.231528e-02  0 
 -5.532925e-04  -1.228732e-02  0 
 -2.313125e-04  -1.224974e-02  0 
 7.346147e-05  -1.219978e-02  0 
 3.545562e-04  -1.213461e-02  0 
 -1.862158e-03  -1.264925e-02  0 
 -1.551031e-03  -1.266692e-02  0 
 -1.226111e-03  -1.266602e-02  0 
 -8.955328e-04  -1.264840e-02  0 
 -5.666896e-04  -1.261468e-02  0 
 -2.470202e-04  -1.256501e-02  0 
 5.661601e-05  -1.249950e-02  0 
 3.387797e-04  -1.241836e-02  0 
 -1.859860e-03  -1.294796e-02  0 
 -1.550643e-03  -1.297490e-02  0 
 -1.231054e-03  -1.298114e-02  0 
 -9.060877e-04  -1.296557e-02  0 
 -5.818748e-04  -1.292796e-02  0 
 -2.644317e-04  -1.286904e-02  0 
 4.042370e-05  -1.279129e-02  0 
 3.282028e-04  -1.269888e-02  0 
 -1.859185e-03  -1.324269e-02  0 
 -1.550704e-03  -1.327563e-02  0 
 -1.235162e-03  -1.328682e-02  0 
 -9.162887e-04  -1.327352e-02  0 
 -5.981225e-04  -1.323373e-02  0 
 -2.834554e-04  -1.316790e-02  0 
 2.430116e-05  -1.307938e-02  0 
 3.195238e-04  -1.297388e-02  0 
 -1.859217e-03  -1.353418e-02  0 
 -1.550523e-03  -1.357261e-02  0 
 -1.237561e-03  -1.358868e-02  0 
 -9.256404e-04  -1.357680e-02  0 
 -6.151229e-04  -1.353608e-02  0 
 -3.056264e-04  -1.346656e-02  0 
 3.892374e-06  -1.336889e-02  0 
 3.099005e-04  -1.324925e-02  0 
 -1.860439e-03  -1.382388e-02  0 
 -1.545416e-03  -1.387210e-02  0 
 -1.237967e-03  -1.388941e-02  0 
 -9.342039e-04  -1.387699e-02  0 
 -6.322637e-04  -1.383585e-02  0 
 -3.304091e-04  -1.376621e-02  0 
 -2.521065e-05  -1.366703e-02  0 
 2.919548e-04  -1.353489e-02  0 
VECTORS displacement_ITER7 FLOAT
 -2.134934e-03  -1.124875e-02  0 
 6.404867e-04  -1.117892e-02  0 
 -2.149349e-03  -1.396213e-02  0 
 5.361418e-04  -1.360132e-02  0 
 -1.778727e-03  -1.122505e-02  0 
 -1.466555e-03  -1.117193e-02  0 
 -1.171961e-03  -1.117664e-02  0 
 -8.771891e-04  -1.115736e-02  0 
 -5.731163e-04  -1.114621e-02  0 
 -2.682134e-04  -1.115727e-02  0 
 1.632031e-05  -1.115615e-02  0 
 3.328598e-04  -1.116435e-02  0 
 -2.126340e-03  -1.168130e-02  0 
 -2.130185e-03  -1.200972e-02  0 
 -2.132032e-03  -1.228952e-02  0 
 -2.150200e-03  -1.257373e-02  0 
 -2.155138e-03  -1.286130e-02  0 
 -2.150024e-03  -1.314305e-02  0 
 -2.146275e-03  -1.341933e-02  0 
 -2.145887e-03  -1.369587e-02  0 
 5.907583e-04  -1.147667e-02  0 
 5.691748e-04  -1.176216e-02  0 
 5.763359e-04  -1.202219e-02  0 
 5.840793e-04  -1.228907e-02  0 
 5.878693e-04  -1.254932e-02  0 
 5.872199e-04  -1.281652e-02  0 
 5.759299e-04  -1.308622e-02  0 
 5.531672e-04  -1.334689e-02  0 
 -1.833231e-03  -1.405974e-02  0 
 -1.534452e-03  -1.410819e-02  0 
 -1.240870e-03  -1.412536e-02  0 
 -9.492298e-04  -1.411391e-02  0 
 -6.583377e-04  -1.407450e-02  0 
 -3.673445e-04  -1.400752e-02  0 
 -7.446803e-05  -1.391227e-02  0 
 2.224879e-04  -1.378381e-02  0 
 -1.815154e-03  -1.163134e-02  0 
 -1.497214e-03  -1.159406e-02  0 
 -1.184118e-03  -1.156618e-02  0 
 -8.771559e-04  -1.155191e-02  0 
 -5.645795e-04  -1.154078e-02  0 
 -2.574645e-04  -1.152881e-02  0 
 4.327201e-05  -1.152263e-02  0 
 3.359129e-04  -1.151377e-02  0 
 -1.838850e-03  -1.198896e-02  0 
 -1.523400e-03  -1.196485e-02  0 
 -1.202139e-03  -1.194251e-02  0 
 -8.817200e-04  -1.192279e-02  0 
 -5.647500e-04  -1.190333e-02  0 
 -2.522930e-04  -1.188078e-02  0 
 4.993105e-05  -1.185287e-02  0 
 3.294145e-04  -1.181288e-02  0 
 -1.850799e-03  -1.230510e-02  0 
 -1.538876e-03  -1.230457e-02  0 
 -1.216354e-03  -1.229240e-02  0 
 -8.919773e-04  -1.227234e-02  0 
 -5.707631e-04  -1.224517e-02  0 
 -2.567700e-04  -1.220909e-02  0 
 4.385931e-05  -1.216059e-02  0 
 3.232874e-04  -1.209780e-02  0 
 -1.853362e-03  -1.260626e-02  0 
 -1.545320e-03  -1.262281e-02  0 
 -1.226315e-03  -1.262061e-02  0 
 -9.032014e-04  -1.260246e-02  0 
 -5.820849e-04  -1.256970e-02  0 
 -2.684350e-04  -1.252179e-02  0 
 3.281718e-05  -1.245771e-02  0 
 3.176840e-04  -1.237835e-02  0 
 -1.855007e-03  -1.290438e-02  0 
 -1.547974e-03  -1.292859e-02  0 
 -1.233246e-03  -1.293341e-02  0 
 -9.141632e-04  -1.291772e-02  0 
 -5.960024e-04  -1.288154e-02  0 
 -2.836958e-04  -1.282528e-02  0 
 1.904438e-05  -1.274998e-02  0 
 3.103676e-04  -1.265736e-02  0 
 -1.854977e-03  -1.319547e-02  0 
 -1.549773e-03  -1.322671e-02  0 
 -1.238413e-03  -1.323674e-02  0 
 -9.243041e-04  -1.322351e-02  0 
 -6.109106e-04  -1.318555e-02  0 
 -3.009230e-04  -1.312343e-02  0 
 2.908637e-06  -1.303957e-02  0 
 2.984364e-04  -1.293647e-02  0 
 -1.852867e-03  -1.348036e-02  0 
 -1.549417e-03  -1.351956e-02  0 
 -1.241320e-03  -1.353529e-02  0 
 -9.333801e-04  -1.352395e-02  0 
 -6.264094e-04  -1.348514e-02  0 
 -3.206976e-04  -1.341927e-02  0 
 -1.643543e-05  -1.332763e-02  0 
 2.829446e-04  -1.321562e-02  0 
 -1.849214e-03  -1.376308e-02  0 
 -1.543595e-03  -1.381271e-02  0 
 -1.241677e-03  -1.383148e-02  0 
 -9.415228e-04  -1.382075e-02  0 
 -6.423317e-04  -1.378160e-02  0 
 -3.432743e-04  -1.371429e-02  0 
 -4.277572e-05  -1.361829e-02  0 
 2.619650e-04  -1.349214e-02  0 
VECTORS displacement_ITER8 FLOAT
 -2.131858e-03  -1.126845e-02  0 
 5.888447e-04  -1.116290e-02  0 
 -2.155934e-03  -1.394959e-02  0 
 5.515054e-04  -1.358010e-02  0 
 -1.800057e-03  -1.119727e-02  0 
 -1.486224e-03  -1.115440e-02  0 
 -1.190108e-03  -1.114636e-02  0 
 -8.766562e-04  -1.113583e-02  0 
 -5.831727e-04  -1.112824e-02  0 
 -2.776012e-04  -1.111801e-02  0 
 2.713541e-05  -1.112199e-02  0 
 3.331409e-04  -1.113864e-02  0 
 -2.130686e-03  -1.164472e-02  0 
 -2.137031e-03  -1.196426e-02  0 
 -2.150527e-03  -1.225337e-02  0 
 -2.154518e-03  -1.254758e-02  0 
 -2.151113e-03  -1.282982e-02  0 
 -2.148510e-03  -1.310935e-02  0 
 -2.147634e-03  -1.339010e-02  0 
 -2.149840e-03  -1.367324e-02  0 
 5.802601e-04  -1.143669e-02  0 
 5.757608e-04  -1.171831e-02  0 
 5.743057e-04  -1.198969e-02  0 
 5.636746e-04  -1.225471e-02  0 
 5.568728e-04  -1.251557e-02  0 
 5.522013e-04  -1.278073e-02  0 
 5.508811e-04  -1.304954e-02  0 
 5.491027e-04  -1.332199e-02  0 
 -1.835147e-03  -1.403646e-02  0 
 -1.536752e-03  -1.407816e-02  0 
 -1.245800e-03  -1.409136e-02  0 
 -9.577371e-04  -1.407777e-02  0 
 -6.706704e-04  -1.403760e-02  0 
 -3.830765e-04  -1.397160e-02  0 
 -9.114432e-05  -1.388048e-02  0 
 2.131582e-04  -1.376036e-02  0 
 -1.833146e-03  -1.160471e-02  0 
 -1.514272e-03  -1.156750e-02  0 
 -1.197015e-03  -1.154393e-02  0 
 -8.850034e-04  -1.152803e-02  0 
 -5.745164e-04  -1.151306e-02  0 
 -2.650200e-04  -1.150184e-02  0 
 4.252316e-05  -1.149012e-02  0 
 3.320452e-04  -1.147190e-02  0 
 -1.850132e-03  -1.195288e-02  0 
 -1.535249e-03  -1.193735e-02  0 
 -1.212908e-03  -1.191776e-02  0 
 -8.922316e-04  -1.189780e-02  0 
 -5.745434e-04  -1.187729e-02  0 
 -2.613615e-04  -1.185331e-02  0 
 4.113810e-05  -1.182125e-02  0 
 3.229823e-04  -1.177526e-02  0 
 -1.856797e-03  -1.227257e-02  0 
 -1.546128e-03  -1.227574e-02  0 
 -1.225303e-03  -1.226583e-02  0 
 -9.018350e-04  -1.224642e-02  0 
 -5.812008e-04  -1.221892e-02  0 
 -2.680894e-04  -1.218165e-02  0 
 3.179767e-05  -1.213154e-02  0 