# vtk DataFile Version 3.1
this is an vtk file created by FEMAC
ASCII
DATASET UNSTRUCTURED_GRID
POINTS 100 FLOAT
0.000000 0.000000 0.000000
1.000000 0.000000 0.000000
0.000000 1.000000 0.000000
1.000000 1.000000 0.000000
0.111111 0.000000 0.000000
0.222222 0.000000 0.000000
0.333333 0.000000 0.000000
0.444444 0.000000 0.000000
0.555556 0.000000 0.000000
0.666667 0.000000 0.000000
0.777778 0.000000 0.000000
0.888889 0.000000 0.000000
0.111111 1.000000 0.000000
0.222222 1.000000 0.000000
0.333333 1.000000 0.000000
0.444444 1.000000 0.000000
0.555556 1.000000 0.000000
0.666667 1.000000 0.000000
0.777778 1.000000 0.000000
0.888889 1.000000 0.000000
0.000000 0.111111 0.000000
0.000000 0.222222 0.000000
0.000000 0.333333 0.000000
0.000000 0.444444 0.000000
0.000000 0.555556 0.000000
0.000000 0.666667 0.000000
0.000000 0.777778 0.000000
0.000000 0.888889 0.000000
1.000000 0.111111 0.000000
1.000000 0.222222 0.000000
1.000000 0.333333 0.000000
1.000000 0.444444 0.000000
1.000000 0.555556 0.000000
1.000000 0.666667 0.000000
1.000000 0.777778 0.000000
1.000000 0.888889 0.000000
0.111111 0.111111 0.000000
0.111111 0.222222 0.000000
0.111111 0.333333 0.000000
0.111111 0.444444 0.000000
0.111111 0.555556 0.000000
0.111111 0.666667 0.000000
0.111111 0.777778 0.000000
0.111111 0.888889 0.000000
0.222222 0.111111 0.000000
0.222222 0.222222 0.000000
0.222222 0.333333 0.000000
0.222222 0.444444 0.000000
0.222222 0.555556 0.000000
0.222222 0.666667 0.000000
0.222222 0.777778 0.000000
0.222222 0.888889 0.000000
0.333333 0.111111 0.000000
0.333333 0.222222 0.000000
0.333333 0.333333 0.000000
0.333333 0.444444 0.000000
0.333333 0.555556 0.000000
0.333333 0.666667 0.000000
0.333333 0.777778 0.000000
0.333333 0.888889 0.000000
0.444444 0.111111 0.000000
0.444444 0.222222 0.000000
0.444444 0.333333 0.000000
0.444444 0.444444 0.000000
0.444444 0.555556 0.000000
0.444444 0.666667 0.000000
0.444444 0.777778 0.000000
0.444444 0.888889 0.000000
0.555556 0.111111 0.000000
0.555556 0.222222 0.000000
0.555556 0.333333 0.000000
0.555556 0.444444 0.000000
0.555556 0.555556 0.000000
0.555556 0.666667 0.000000
0.555556 0.777778 0.000000
0.555556 0.888889 0.000000
0.666667 0.111111 0.000000
0.666667 0.222222 0.000000
0.666667 0.333333 0.000000
0.666667 0.444444 0.000000
0.666667 0.555556 0.000000
0.666667 0.666667 0.000000
0.666667 0.777778 0.000000
0.666667 0.888889 0.000000
0.777778 0.111111 0.000000
0.777778 0.222222 0.000000
0.777778 0.333333 0.000000
0.777778 0.444444 0.000000
0.777778 0.555556 0.000000
0.777778 0.666667 0.000000
0.777778 0.777778 0.000000
0.777778 0.888889 0.000000
0.888889 0.111111 0.000000
0.888889 0.222222 0.000000
0.888889 0.333333 0.000000
0.888889 0.444444 0.000000
0.888889 0.555556 0.000000
0.888889 0.666667 0.000000
0.888889 0.777778 0.000000
0.888889 0.888889 0.000000
CELLS 81 405 
4 0  4 36 20
4 20 36 37 21
4 21 37 38 22
4 22 38 39 23
4 23 39 40 24
4 24 40 41 25
4 25 41 42 26
4 26 42 43 27
4 27 43 12  2
4 4  5 44 36
4 36 44 45 37
4 37 45 46 38
4 38 46 47 39
4 39 47 48 40
4 40 48 49 41
4 41 49 50 42
4 42 50 51 43
4 43 51 13 12
4 5  6 52 44
4 44 52 53 45
4 45 53 54 46
4 46 54 55 47
4 47 55 56 48
4 48 56 57 49
4 49 57 58 50
4 50 58 59 51
4 51 59 14 13
4 6  7 60 52
4 52 60 61 53
4 53 61 62 54
4 54 62 63 55
4 55 63 64 56
4 56 64 65 57
4 57 65 66 58
4 58 66 67 59
4 59 67 15 14
4 7  8 68 60
4 60 68 69 61
4 61 69 70 62
4 62 70 71 63
4 63 71 72 64
4 64 72 73 65
4 65 73 74 66
4 66 74 75 67
4 67 75 16 15
4 8  9 76 68
4 68 76 77 69
4 69 77 78 70
4 70 78 79 71
4 71 79 80 72
4 72 80 81 73
4 73 81 82 74
4 74 82 83 75
4 75 83 17 16
4 9 10 84 76
4 76 84 85 77
4 77 85 86 78
4 78 86 87 79
4 79 87 88 80
4 80 88 89 81
4 81 89 90 82
4 82 90 91 83
4 83 91 18 17
4 10 11 92 84
4 84 92 93 85
4 85 93 94 86
4 86 94 95 87
4 87 95 96 88
4 88 96 97 89
4 89 97 98 90
4 90 98 99 91
4 91 99 19 18
4 11  1 28 92
4 92 28 29 93
4 93 29 30 94
4 94 30 31 95
4 95 31 32 96
4 96 32 33 97
4 97 33 34 98
4 98 34 35 99
4 99 35  3 19
CELL_TYPES 81
9 9 9 9 9 9 9 9 9 9 9 9 9 9 9 9 9 9 9 9 9 9 9 9 9 9 9 9 9 9 9 9 9 9 9 9 9 9 9 9 9 9 9 9 9 9 9 9 9 9 9 9 9 9 9 9 9 9 9 9 9 9 9 9 9 9 9 9 9 9 9 9 9 9 9 9 9 9 9 9 9 
POINT_DATA 100
VECTORS displacement_ITER1 FLOAT
 0  0  0 
 -4.164666e-04  -5.068752e-04  0 
 8.055366e-21  8.862992e-23  0 
 -7.469774e-04  -6.597100e-04  0 
 -1.258926e-04  -7.526193e-05  0 
 -2.047472e-04  -1.422717e-04  0 
 -2.609490e-04  -2.042721e-04  0 
 -3.021498e-04  -2.609082e-04  0 
 -3.328246e-04  -3.125664e-04  0 
 -3.569073e-04  -3.603722e-04  0 
 -3.778799e-04  -4.065426e-04  0 
 -3.980579e-04  -4.543104e-04  0 
 1.679831e-05  -3.044340e-05  0 
 2.728884e-05  -7.726180e-05  0 
 3.081115e-05  -1.399505e-04  0 
 1.779881e-05  -2.184812e-04  0 
 -2.375918e-05  -3.087432e-04  0 
 -1.031427e-04  -4.025849e-04  0 
 -2.238885e-04  -4.920108e-04  0 
 -3.919589e-04  -5.778691e-04  0 
 0  0  0 
 0  0  0 
 0  0  0 
 0  0  0 
 0  0  0 
 0  0  0 
 0  0  0 
 0  0  0 
 -3.659848e-04  -4.991885e-04  0 
 -3.172532e-04  -4.902587e-04  0 
 -2.778314e-04  -4.796586e-04  0 
 -2.503037e-04  -4.681982e-04  0 
 -2.381004e-04  -4.590073e-04  0 
 -2.480219e-04  -4.570434e-04  0 
 -2.935929e-04  -4.710679e-04  0 
 -3.869388e-04  -5.094780e-04  0 
 -7.684982e-05  -5.359511e-05  0 
 -5.960788e-05  -4.975590e-05  0 
 -4.993324e-05  -4.904724e-05  0 
 -4.262870e-05  -4.800118e-05  0 
 -3.526793e-05  -4.545836e-05  0 
 -2.646265e-05  -4.116452e-05  0 
 -1.540682e-05  -3.576397e-05  0 
 -1.665487e-06  -3.104503e-05  0 
 -1.510078e-04  -1.242281e-04  0 
 -1.180360e-04  -1.125421e-04  0 
 -9.958005e-05  -1.084601e-04  0 
 -8.655267e-05  -1.062714e-04  0 
 -7.396808e-05  -1.028072e-04  0 
 -5.840824e-05  -9.668488e-05  0 
 -3.735897e-05  -8.829701e-05  0 
 -8.922085e-06  -8.030847e-05  0 
 -2.090986e-04  -1.903033e-04  0 
 -1.718000e-04  -1.794254e-04  0 
 -1.470552e-04  -1.738662e-04  0 
 -1.300464e-04  -1.720085e-04  0 
 -1.146028e-04  -1.700520e-04  0 
 -9.516834e-05  -1.651804e-04  0 
 -6.686844e-05  -1.566253e-04  0 
 -2.578979e-05  -1.462978e-04  0 
 -2.534256e-04  -2.505545e-04  0 
 -2.156595e-04  -2.425170e-04  0 
 -1.885476e-04  -2.391833e-04  0 
 -1.698481e-04  -2.403647e-04  0 
 -1.545459e-04  -2.431118e-04  0 
 -1.354949e-04  -2.432939e-04  0 
 -1.050812e-04  -2.381631e-04  0 
 -5.621872e-05  -2.282010e-04  0 
 -2.868729e-04  -3.048663e-04  0 
 -2.491193e-04  -2.996107e-04  0 
 -2.208104e-04  -2.994138e-04  0 
 -2.019019e-04  -3.052045e-04  0 
 -1.896762e-04  -3.154310e-04  0 
 -1.767239e-04  -3.249731e-04  0 
 -1.519841e-04  -3.278615e-04  0 
 -1.043460e-04  -3.216034e-04  0 
 -3.122748e-04  -3.542650e-04  0 
 -2.735191e-04  -3.507111e-04  0 
 -2.433055e-04  -3.523407e-04  0 
 -2.236002e-04  -3.611729e-04  0 
 -2.147502e-04  -3.779745e-04  0 
 -2.135151e-04  -4.003335e-04  0 
 -2.059313e-04  -4.171362e-04  0 
 -1.734000e-04  -4.184584e-04  0 
 -3.323383e-04  -4.009922e-04  0 
 -2.912037e-04  -3.975207e-04  0 
 -2.579204e-04  -3.982427e-04  0 
 -2.357136e-04  -4.058237e-04  0 
 -2.277320e-04  -4.231138e-04  0 
 -2.359264e-04  -4.523908e-04  0 
 -2.597740e-04  -4.920688e-04  0 
 -2.654236e-04  -5.093203e-04  0 
 -3.493752e-04  -4.483248e-04  0 
 -3.050530e-04  -4.428031e-04  0 
 -2.680950e-04  -4.395270e-04  0 
 -2.425423e-04  -4.402835e-04  0 
 -2.325567e-04  -4.487674e-04  0 
 -2.440179e-04  -4.705084e-04  0 
 -2.837942e-04  -5.119650e-04  0 
 -3.758081e-04  -5.866999e-04  0 
VECTORS displacement_ITER2 FLOAT
 0  0  0 
 -3.730754e-04  -4.634200e-04  0 
 9.663245e-21  1.475643e-22  0 
 -9.029384e-04  -6.297835e-04  0 
 -1.218322e-04  -7.433066e-05  0 
 -1.959899e-04  -1.401612e-04  0 
 -2.468120e-04  -1.998011e-04  0 
 -2.822436e-04  -2.526518e-04  0 
 -3.070692e-04  -2.990826e-04  0 
 -3.254583e-04  -3.402788e-04  0 
 -3.410868e-04  -3.784733e-04  0 
 -3.567899e-04  -4.170114e-04  0 
 1.959182e-05  -3.581153e-05  0 
 2.647038e-05  -8.318583e-05  0 
 1.946138e-05  -1.423868e-04  0 
 -5.672819e-06  -2.144965e-04  0 
 -5.597414e-05  -2.971231e-04  0 
 -1.404514e-04  -3.842133e-04  0 
 -2.702911e-04  -4.694477e-04  0 
 -4.728403e-04  -5.578922e-04  0 
 0  0  0 
 0  0  0 
 0  0  0 
 0  0  0 
 0  0  0 
 0  0  0 
 0  0  0 
 0  0  0 
 -3.287356e-04  -4.531710e-04  0 
 -2.909957e-04  -4.452525e-04  0 
 -2.619450e-04  -4.360357e-04  0 
 -2.420619e-04  -4.259578e-04  0 
 -2.363443e-04  -4.162420e-04  0 
 -2.549960e-04  -4.109362e-04  0 
 -3.168985e-04  -4.187326e-04  0 
 -4.472250e-04  -4.503149e-04  0 
 -7.383809e-05  -5.382493e-05  0 
 -5.765669e-05  -5.069616e-05  0 
 -4.907998e-05  -5.046020e-05  0 
 -4.283915e-05  -4.971202e-05  0 
 -3.645268e-05  -4.733492e-05  0 
 -2.846946e-05  -4.312749e-05  0 
 -1.787628e-05  -3.779500e-05  0 
 -3.527881e-06  -3.343130e-05  0 
 -1.442505e-04  -1.235196e-04  0 
 -1.135945e-04  -1.130026e-04  0 
 -9.750681e-05  -1.098285e-04  0 
 -8.676919e-05  -1.083060e-04  0 
 -7.625387e-05  -1.052907e-04  0 
 -6.241231e-05  -9.953331e-05  0 
 -4.245303e-05  -9.172254e-05  0 
 -1.345622e-05  -8.497677e-05  0 
 -1.982007e-04  -1.873884e-04  0 
 -1.644329e-04  -1.778939e-04  0 
 -1.433807e-04  -1.736223e-04  0 
 -1.300335e-04  -1.728884e-04  0 
 -1.179454e-04  -1.717794e-04  0 
 -1.012878e-04  -1.675049e-04  0 
 -7.505276e-05  -1.595841e-04  0 
 -3.549145e-05  -1.498958e-04  0 
 -2.380832e-04  -2.439167e-04  0 
 -2.050319e-04  -2.373621e-04  0 
 -1.828484e-04  -2.355738e-04  0 
 -1.692588e-04  -2.383773e-04  0 
 -1.589573e-04  -2.425425e-04  0 
 -1.442883e-04  -2.434796e-04  0 
 -1.175564e-04  -2.381870e-04  0 
 -7.280571e-05  -2.270786e-04  0 
 -2.669758e-04  -2.929722e-04  0 
 -2.350281e-04  -2.891560e-04  0 
 -2.126775e-04  -2.905341e-04  0 
 -2.001602e-04  -2.982444e-04  0 
 -1.948800e-04  -3.106043e-04  0 
 -1.889006e-04  -3.215183e-04  0 
 -1.702901e-04  -3.235647e-04  0 
 -1.284647e-04  -3.140126e-04  0 
 -2.879450e-04  -3.356856e-04  0 
 -2.559968e-04  -3.334407e-04  0 
 -2.325369e-04  -3.363973e-04  0 
 -2.200566e-04  -3.469068e-04  0 
 -2.196217e-04  -3.661481e-04  0 
 -2.285821e-04  -3.914077e-04  0 
 -2.314337e-04  -4.088473e-04  0 
 -2.063596e-04  -4.058189e-04  0 
 -3.038299e-04  -3.744081e-04  0 
 -2.704702e-04  -3.722668e-04  0 
 -2.447563e-04  -3.738823e-04  0 
 -2.301324e-04  -3.823465e-04  0 
 -2.307474e-04  -4.013385e-04  0 
 -2.505769e-04  -4.340894e-04  0 
 -2.911867e-04  -4.790681e-04  0 
 -3.117621e-04  -4.960552e-04  0 
 -3.166086e-04  -4.127677e-04  0 
 -2.814359e-04  -4.085359e-04  0 
 -2.532384e-04  -4.059071e-04  0 
 -2.353869e-04  -4.068671e-04  0 
 -2.329913e-04  -4.156472e-04  0 
 -2.548462e-04  -4.385154e-04  0 
 -3.126040e-04  -4.843990e-04  0 
 -4.383061e-04  -5.715999e-04  0 
VECTORS displacement_ITER3 FLOAT
 0  0  0 
 -3.552172e-04  -4.440240e-04  0 
 9.611780e-21  1.467809e-22  0 
 -9.570394e-04  -6.145795e-04  0 
 -1.196961e-04  -7.370496e-05  0 
 -1.915850e-04  -1.388304e-04  0 
 -2.399173e-04  -1.972726e-04  0 
 -2.727325e-04  -2.483102e-04  0 
 -2.949315e-04  -2.922607e-04  0 
 -3.108299e-04  -3.303109e-04  0 
 -3.243360e-04  -3.648055e-04  0 
 -3.387175e-04  -3.995302e-04  0 
 2.743320e-05  -3.821525e-05  0 
 3.120419e-05  -8.700597e-05  0 
 1.415525e-05  -1.466091e-04  0 
 -2.190078e-05  -2.155843e-04  0 
 -7.842833e-05  -2.919497e-04  0 
 -1.618187e-04  -3.726122e-04  0 
 -2.868326e-04  -4.541752e-04  0 
 -4.998939e-04  -5.391293e-04  0 
 0  0  0 
 0  0  0 
 0  0  0 
 0  0  0 
 0  0  0 
 0  0  0 
 0  0  0 
 0  0  0 
 -3.111430e-04  -4.334180e-04  0 
 -2.786649e-04  -4.238349e-04  0 
 -2.547883e-04  -4.135365e-04  0 
 -2.397844e-04  -4.040836e-04  0 
 -2.385452e-04  -3.961823e-04  0 
 -2.605552e-04  -3.917893e-04  0 
 -3.248782e-04  -3.961444e-04  0 
 -4.684135e-04  -4.224746e-04  0 
 -7.229888e-05  -5.377125e-05  0 
 -5.663104e-05  -5.098332e-05  0 
 -4.858323e-05  -5.101496e-05  0 
 -4.289113e-05  -5.052091e-05  0 
 -3.706205e-05  -4.840369e-05  0 
 -2.955713e-05  -4.441238e-05  0 
 -1.900177e-05  -3.908382e-05  0 
 -3.135616e-06  -3.443827e-05  0 
 -1.408599e-04  -1.228491e-04  0 
 -1.112883e-04  -1.128856e-04  0 
 -9.627779e-05  -1.101777e-04  0 
 -8.662158e-05  -1.091157e-04  0 
 -7.719271e-05  -1.066358e-04  0 
 -6.437205e-05  -1.015791e-04  0 
 -4.494906e-05  -9.471418e-05  0 
 -1.445598e-05  -8.917553e-05  0 
 -1.928529e-04  -1.855673e-04  0 
 -1.606911e-04  -1.766915e-04  0 
 -1.412510e-04  -1.730088e-04  0 
 -1.294936e-04  -1.728820e-04  0 
 -1.189533e-04  -1.724859e-04  0 
 -1.037755e-04  -1.692178e-04  0 
 -7.885230e-05  -1.628351e-04  0 
 -4.032205e-05  -1.547642e-04  0 
 -2.307163e-04  -2.402993e-04  0 
 -1.997962e-04  -2.343859e-04  0 
 -1.797237e-04  -2.332371e-04  0 
 -1.682347e-04  -2.367247e-04  0 
 -1.599978e-04  -2.416261e-04  0 
 -1.473425e-04  -2.433775e-04  0 
 -1.229360e-04  -2.390487e-04  0 
 -8.195472e-05  -2.288401e-04  0 
 -2.575943e-04  -2.868682e-04  0 
 -2.282962e-04  -2.837031e-04  0 
 -2.085346e-04  -2.857185e-04  0 
 -1.986405e-04  -2.940731e-04  0 
 -1.961195e-04  -3.070666e-04  0 
 -1.930348e-04  -3.183511e-04  0 
 -1.776835e-04  -3.201290e-04  0 
 -1.409356e-04  -3.097528e-04  0 
 -2.766165e-04  -3.264071e-04  0 
 -2.477853e-04  -3.248465e-04  0 
 -2.274182e-04  -3.284163e-04  0 
 -2.181195e-04  -3.393597e-04  0 
 -2.211297e-04  -3.589447e-04  0 
 -2.341222e-04  -3.844530e-04  0 
 -2.414189e-04  -4.011025e-04  0 
 -2.209863e-04  -3.955866e-04  0 
 -2.906483e-04  -3.613768e-04  0 
 -2.607129e-04  -3.599751e-04  0 
 -2.387374e-04  -3.621294e-04  0 
 -2.280410e-04  -3.707331e-04  0 
 -2.324962e-04  -3.896148e-04  0 
 -2.567137e-04  -4.225039e-04  0 
 -3.034293e-04  -4.681030e-04  0 
 -3.292996e-04  -4.834683e-04  0 
 -3.015272e-04  -3.958597e-04  0 
 -2.699919e-04  -3.921679e-04  0 
 -2.464970e-04  -3.895130e-04  0 
 -2.333963e-04  -3.905799e-04  0 
 -2.351764e-04  -3.994102e-04  0 
 -2.605146e-04  -4.218657e-04  0 
 -3.235689e-04  -4.684419e-04  0 
 -4.605937e-04  -5.591932e-04  0 
VECTORS displacement_ITER4 FLOAT
 0  0  0 
 -3.538611e-04  -4.436500e-04  0 
 9.508241e-21  1.426305e-22  0 
 -9.610125e-04  -6.177606e-04  0 
 -1.191612e-04  -7.346819e-05  0 
 -1.906113e-04  -1.384057e-04  0 
 -2.385222e-04  -1.966490e-04  0 
 -2.709196e-04  -2.474454e-04  0 
 -2.927221e-04  -2.910820e-04  0 
 -3.083274e-04  -3.287596e-04  0 
 -3.218242e-04  -3.629867e-04  0 
 -3.366713e-04  -3.980230e-04  0 
 3.086882e-05  -3.663184e-05  0 
 3.326510e-05  -8.725953e-05  0 
 1.442463e-05  -1.494511e-04  0 
 -2.320100e-05  -2.182834e-04  0 
 -8.053532e-05  -2.918239e-04  0 
 -1.629236e-04  -3.697855e-04  0 
 -2.842226e-04  -4.520104e-04  0 
 -4.966979e-04  -5.340769e-04  0 
 0  0  0 
 0  0  0 
 0  0  0 
 0  0  0 
 0  0  0 
 0  0  0 
 0  0  0 
 0  0  0 
 -3.080149e-04  -4.331647e-04  0 
 -2.751761e-04  -4.216921e-04  0 
 -2.512611e-04  -4.103045e-04  0 
 -2.377703e-04  -4.009277e-04  0 
 -2.385187e-04  -3.943534e-04  0 
 -2.608810e-04  -3.914393e-04  0 
 -3.224461e-04  -3.942433e-04  0 
 -4.662261e-04  -4.189340e-04  0 
 -7.191679e-05  -5.365139e-05  0 
 -5.631832e-05  -5.091788e-05  0 
 -4.832759e-05  -5.099837e-05  0 
 -4.269916e-05  -5.057047e-05  0 
 -3.695253e-05  -4.854340e-05  0 
 -2.953667e-05  -4.463443e-05  0 
 -1.896594e-05  -3.925080e-05  0 
 -2.560996e-06  -3.411397e-05  0 
 -1.400635e-04  -1.225443e-04  0 
 -1.106295e-04  -1.126792e-04  0 
 -9.571983e-05  -1.100544e-04  0 
 -8.615997e-05  -1.090977e-04  0 
 -7.685761e-05  -1.067790e-04  0 
 -6.421523e-05  -1.019631e-04  0 
 -4.494542e-05  -9.540511e-05  0 
 -1.412065e-05  -9.011612e-05  0 
 -1.916668e-04  -1.850628e-04  0 
 -1.596815e-04  -1.762935e-04  0 
 -1.403719e-04  -1.727123e-04  0 
 -1.287144e-04  -1.727038e-04  0 
 -1.182830e-04  -1.724899e-04  0 
 -1.032691e-04  -1.695533e-04  0 
 -7.857756e-05  -1.637743e-04  0 
 -4.029589e-05  -1.565992e-04  0 
 -2.291639e-04  -2.395557e-04  0 
 -1.984563e-04  -2.337625e-04  0 
 -1.785322e-04  -2.327320e-04  0 
 -1.671387e-04  -2.363361e-04  0 
 -1.589691e-04  -2.413773e-04  0 
 -1.463956e-04  -2.433788e-04  0 
 -1.221975e-04  -2.395598e-04  0 
 -8.178860e-05  -2.302966e-04  0 
 -2.556935e-04  -2.858177e-04  0 
 -2.266346e-04  -2.828196e-04  0 
 -2.070498e-04  -2.849989e-04  0 
 -1.972766e-04  -2.934589e-04  0 
 -1.948375e-04  -3.065011e-04  0 
 -1.917980e-04  -3.178023e-04  0 
 -1.765780e-04  -3.196545e-04  0 
 -1.405174e-04  -3.094728e-04  0 
 -2.743729e-04  -3.249778e-04  0 
 -2.457473e-04  -3.236661e-04  0 
 -2.256358e-04  -3.274932e-04  0 
 -2.165874e-04  -3.385271e-04  0 
 -2.197745e-04  -3.580145e-04  0 
 -2.329095e-04  -3.833327e-04  0 
 -2.402884e-04  -3.995550e-04  0 
 -2.203069e-04  -3.934265e-04  0 
 -2.880611e-04  -3.596125e-04  0 
 -2.581351e-04  -3.584656e-04  0 
 -2.365629e-04  -3.609472e-04  0 
 -2.264970e-04  -3.696798e-04  0 
 -2.313356e-04  -3.883248e-04  0 
 -2.556556e-04  -4.208223e-04  0 
 -3.026041e-04  -4.661688e-04  0 
 -3.280971e-04  -4.805992e-04  0 
 -2.986484e-04  -3.941532e-04  0 
 -2.666816e-04  -3.903836e-04  0 
 -2.437550e-04  -3.876841e-04  0 
 -2.318297e-04  -3.890417e-04  0 
 -2.346558e-04  -3.979793e-04  0 
 -2.597671e-04  -4.198901e-04  0 
 -3.221324e-04  -4.662922e-04  0 
 -4.600223e-04  -5.579903e-04  0 
VECTORS displacement_ITER5 FLOAT
 0  0  0 
 -3.469544e-04  -4.335079e-04  0 
 9.303202e-21  1.388787e-22  0 
 -9.724886e-04  -6.046330e-04  0 
 -1.176734e-04  -7.269282e-05  0 
 -1.880039e-04  -1.368362e-04  0 
 -2.349615e-04  -1.941623e-04  0 
 -2.665395e-04  -2.439127e-04  0 
 -2.876519e-04  -2.863855e-04  0 
 -3.026969e-04  -3.228061e-04  0 
 -3.157660e-04  -3.557293e-04  0 
 -3.302798e-04  -3.895050e-04  0 
 2.914480e-05  -3.422761e-05  0 
 3.020677e-05  -8.532055e-05  0 
 1.127555e-05  -1.476846e-04  0 
 -2.661766e-05  -2.157009e-04  0 
 -8.491731e-05  -2.875746e-04  0 
 -1.687810e-04  -3.636158e-04  0 
 -2.911434e-04  -4.454021e-04  0 
 -5.027747e-04  -5.227573e-04  0 
 0  0  0 
 0  0  0 
 0  0  0 
 0  0  0 
 0  0  0 
 0  0  0 
 0  0  0 
 0  0  0 
 -3.028521e-04  -4.234180e-04  0 
 -2.713134e-04  -4.115041e-04  0 
 -2.484109e-04  -4.001644e-04  0 
 -2.363249e-04  -3.908485e-04  0 
 -2.385323e-04  -3.844843e-04  0 
 -2.618827e-04  -3.816356e-04  0 
 -3.240789e-04  -3.828895e-04  0 
 -4.704909e-04  -4.050007e-04  0 
 -7.101380e-05  -5.316885e-05  0 
 -5.571521e-05  -5.052385e-05  0 
 -4.796112e-05  -5.064254e-05  0 
 -4.254899e-05  -5.023499e-05  0 
 -3.701763e-05  -4.821274e-05  0 
 -2.983316e-05  -4.427970e-05  0 
 -1.954268e-05  -3.879660e-05  0 
 -3.537555e-06  -3.329168e-05  0 
 -1.382273e-04  -1.212500e-04  0 
 -1.093954e-04  -1.115741e-04  0 
 -9.496485e-05  -1.090447e-04  0 
 -8.584377e-05  -1.081372e-04  0 
 -7.698357e-05  -1.058295e-04  0 
 -6.482535e-05  -1.009634e-04  0 
 -4.614995e-05  -9.423599e-05  0 
 -1.617777e-05  -8.855583e-05  0 
 -1.890225e-04  -1.828195e-04  0 
 -1.578303e-04  -1.742406e-04  0 
 -1.392168e-04  -1.707877e-04  0 
 -1.282099e-04  -1.708521e-04  0 
 -1.184432e-04  -1.706630e-04  0 
 -1.041514e-04  -1.676830e-04  0 
 -8.027192e-05  -1.617734e-04  0 
 -4.283653e-05  -1.545011e-04  0 
 -2.258296e-04  -2.362306e-04  0 
 -1.960586e-04  -2.306030e-04  0 
 -1.769915e-04  -2.296906e-04  0 
 -1.664227e-04  -2.333691e-04  0 
 -1.591013e-04  -2.384512e-04  0 
 -1.474399e-04  -2.404711e-04  0 
 -1.241751e-04  -2.366581e-04  0 
 -8.458811e-05  -2.274700e-04  0 
 -2.517781e-04  -2.812947e-04  0 
 -2.237728e-04  -2.784338e-04  0 
 -2.051676e-04  -2.807010e-04  0 
 -1.963390e-04  -2.892061e-04  0 
 -1.948675e-04  -3.022870e-04  0 
 -1.928589e-04  -3.136564e-04  0 
 -1.787526e-04  -3.156406e-04  0 
 -1.437778e-04  -3.054967e-04  0 
 -2.699738e-04  -3.191647e-04  0 
 -2.424987e-04  -3.179661e-04  0 
 -2.234778e-04  -3.218520e-04  0 
 -2.154586e-04  -3.328819e-04  0 
 -2.196573e-04  -3.523480e-04  0 
 -2.338999e-04  -3.777117e-04  0 
 -2.425450e-04  -3.940133e-04  0 
 -2.242583e-04  -3.880022e-04  0 
 -2.832637e-04  -3.524543e-04  0 
 -2.545655e-04  -3.513728e-04  0 
 -2.341931e-04  -3.538984e-04  0 
 -2.252622e-04  -3.626099e-04  0 
 -2.311243e-04  -3.811291e-04  0 
 -2.564992e-04  -4.134884e-04  0 
 -3.049039e-04  -4.588453e-04  0 
 -3.321446e-04  -4.730631e-04  0 
 -2.935706e-04  -3.856201e-04  0 
 -2.628588e-04  -3.818237e-04  0 
 -2.412010e-04  -3.791181e-04  0 
 -2.305293e-04  -3.805476e-04  0 
 -2.345423e-04  -3.893811e-04  0 
 -2.605423e-04  -4.108651e-04  0 
 -3.240355e-04  -4.568403e-04  0 
 -4.645975e-04  -5.485307e-04  0 
VECTORS displacement_ITER6 FLOAT
 0  0  0 
 -3.445133e-04  -4.292300e-04  0 
 9.002965e-21  1.330919e-22  0 
 -9.764578e-04  -5.971218e-04  0 
 -1.171064e-04  -7.236109e-05  0 
 -1.870586e-04  -1.361672e-04  0 
 -2.337363e-04  -1.931317e-04  0 
 -2.651086e-04  -2.425063e-04  0 
 -2.860688e-04  -2.845991e-04  0 
 -3.009777e-04  -3.206311e-04  0 
 -3.138671e-04  -3.531074e-04  0 
 -3.281130e-04  -3.862655e-04  0 
 2.713342e-05  -3.353286e-05  0 
 2.848379e-05  -8.456222e-05  0 
 1.031620e-05  -1.458708e-04  0 
 -2.728294e-05  -2.135335e-04  0 
 -8.580127e-05  -2.856732e-04  0 
 -1.704824e-04  -3.613649e-04  0 
 -2.946611e-04  -4.425867e-04  0 
 -5.049185e-04  -5.179050e-04  0 
 0  0  0 
 0  0  0 
 0  0  0 
 0  0  0 
 0  0  0 
 0  0  0 
 0  0  0 
 0  0  0 
 -3.013386e-04  -4.194475e-04  0 
 -2.703261e-04  -4.080273e-04  0 
 -2.481011e-04  -3.970492e-04  0 
 -2.364402e-04  -3.874269e-04  0 
 -2.386952e-04  -3.806380e-04  0 
 -2.619473e-04  -3.776447e-04  0 
 -3.247512e-04  -3.783215e-04  0 
 -4.722341e-04  -3.989089e-04  0 
 -7.068918e-05  -5.293770e-05  0 
 -5.550109e-05  -5.031071e-05  0 
 -4.782603e-05  -5.042703e-05  0 
 -4.248061e-05  -5.000626e-05  0 
 -3.701051e-05  -4.795878e-05  0 
 -2.989272e-05  -4.399108e-05  0 
 -1.972631e-05  -3.848547e-05  0 
 -4.096246e-06  -3.298441e-05  0 
 -1.375859e-04  -1.206663e-04  0 
 -1.089721e-04  -1.110414e-04  0 
 -9.470303e-05  -1.085222e-04  0 
 -8.572429e-05  -1.075993e-04  0 
 -7.700133e-05  -1.052466e-04  0 
 -6.498693e-05  -1.002871e-04  0 
 -4.651176e-05  -9.338879e-05  0 
 -1.701036e-05  -8.746096e-05  0 
 -1.881324e-04  -1.818546e-04  0 
 -1.572151e-04  -1.733202e-04  0 
 -1.388354e-04  -1.698814e-04  0 
 -1.280465e-04  -1.699296e-04  0 
 -1.185052e-04  -1.696899e-04  0 
 -1.044563e-04  -1.665935e-04  0 
 -8.084226e-05  -1.604572e-04  0 
 -4.362183e-05  -1.528999e-04  0 
 -2.247522e-04  -2.348696e-04  0 
 -1.952916e-04  -2.292655e-04  0 
 -1.765070e-04  -2.283482e-04  0 
 -1.662138e-04  -2.319985e-04  0 
 -1.591875e-04  -2.370347e-04  0 
 -1.478583e-04  -2.389837e-04  0 
 -1.249057e-04  -2.350437e-04  0 
 -8.548709e-05  -2.256404e-04  0 
 -2.505660e-04  -2.795364e-04  0 
 -2.229035e-04  -2.766696e-04  0 
 -2.046125e-04  -2.788974e-04  0 
 -1.960839e-04  -2.873476e-04  0 
 -1.949293e-04  -3.003808e-04  0 
 -1.932820e-04  -3.117355e-04  0 
 -1.795833e-04  -3.137589e-04  0 
 -1.448683e-04  -3.036057e-04  0 
 -2.686705e-04  -3.170094e-04  0 
 -2.415872e-04  -3.157766e-04  0 
 -2.229007e-04  -3.195871e-04  0 
 -2.151721e-04  -3.305298e-04  0 
 -2.196597e-04  -3.499214e-04  0 
 -2.342379e-04  -3.752635e-04  0 
 -2.433019e-04  -3.916517e-04  0 
 -2.256329e-04  -3.859242e-04  0 
 -2.819005e-04  -3.498680e-04  0 
 -2.536811e-04  -3.487573e-04  0 
 -2.336529e-04  -3.512058e-04  0 
 -2.249801e-04  -3.598015e-04  0 
 -2.310888e-04  -3.781848e-04  0 
 -2.567372e-04  -4.104268e-04  0 
 -3.055450e-04  -4.557415e-04  0 
 -3.334702e-04  -4.699418e-04  0 
 -2.921557e-04  -3.824578e-04  0 
 -2.620315e-04  -3.787807e-04  0 
 -2.407506e-04  -3.761022e-04  0 
 -2.303281e-04  -3.773708e-04  0 
 -2.345492e-04  -3.859524e-04  0 
 -2.607508e-04  -4.072105e-04  0 
 -3.245827e-04  -4.528752e-04  0 
 -4.660861e-04  -5.440996e-04  0 
VECTORS displacement_ITER7 FLOAT
 0  0  0 
 -3.420230e-04  -4.251083e-04  0 
 8.605655e-21  1.252763e-22  0 
 -9.756880e-04  -5.901151e-04  0 
 -1.164737e-04  -7.197938e-05  0 
 -1.860247e-04  -1.354123e-04  0 
 -2.324229e-04  -1.919980e-04  0 
 -2.636050e-04  -2.409989e-04  0 
 -2.844389e-04  -2.827311e-04  0 
 -2.992478e-04  -3.184120e-04  0 
 -3.120035e-04  -3.505093e-04  0 
 -3.260028e-04  -3.831433e-04  0 
 2.575480e-05  -3.356744e-05  0 
 2.730382e-05  -8.384501e-05  0 
 9.080672e-06  -1.440150e-04  0 
 -2.854286e-05  -2.115088e-04  0 
 -8.697329e-05  -2.839906e-04  0 
 -1.715140e-04  -3.592782e-04  0 
 -2.964029e-04  -4.387811e-04  0 
 -5.055321e-04  -5.129534e-04  0 
 0  0  0 
 0  0  0 
 0  0  0 
 0  0  0 
 0  0  0 
 0  0  0 
 0  0  0 
 0  0  0 
 -2.999694e-04  -4.155743e-04  0 
 -2.693811e-04  -4.046560e-04  0 
 -2.475736e-04  -3.939144e-04  0 
 -2.360918e-04  -3.842160e-04  0 
 -2.384954e-04  -3.771493e-04  0 
 -2.618289e-04  -3.738240e-04  0 
 -3.249429e-04  -3.742463e-04  0 
 -4.722766e-04  -3.940784e-04  0 
 -7.032450e-05  -5.266466e-05  0 
 -5.524763e-05  -5.005553e-05  0 
 -4.764775e-05  -5.017327e-05  0 
 -4.236762e-05  -4.975260e-05  0 
 -3.696358e-05  -4.770554e-05  0 
 -2.991908e-05  -4.373816e-05  0 
 -1.985681e-05  -3.824685e-05  0 
 -4.470753e-06  -3.282633e-05  0 
 -1.368719e-04  -1.199998e-04  0 
 -1.084724e-04  -1.104284e-04  0 
 -9.434947e-05  -1.079234e-04  0 
 -8.549750e-05  -1.070015e-04  0 
 -7.690661e-05  -1.046445e-04  0 
 -6.504362e-05  -9.966698e-05  0 
 -4.675935e-05  -9.270961e-05  0 
 -1.759351e-05  -8.665584e-05  0 
 -1.871537e-04  -1.807851e-04  0 
 -1.564949e-04  -1.722943e-04  0 
 -1.383177e-04  -1.688690e-04  0 
 -1.277079e-04  -1.689087e-04  0 
 -1.183590e-04  -1.686513e-04  0 
 -1.045458e-04  -1.655206e-04  0 
 -8.123463e-05  -1.592913e-04  0 
 -4.436293e-05  -1.515235e-04  0 
 -2.235853e-04  -2.334029e-04  0 
 -1.944053e-04  -2.278184e-04  0 
 -1.758569e-04  -2.268888e-04  0 
 -1.657766e-04  -2.305009e-04  0 
 -1.589773e-04  -2.354903e-04  0 
 -1.479389e-04  -2.373963e-04  0 
 -1.253694e-04  -2.334033e-04  0 
 -8.641892e-05  -2.238770e-04  0 
 -2.492745e-04  -2.776901e-04  0 
 -2.219139e-04  -2.748132e-04  0 
 -2.038836e-04  -2.769909e-04  0 
 -1.955808e-04  -2.853605e-04  0 
 -1.946459e-04  -2.983017e-04  0 
 -1.932726e-04  -3.095887e-04  0 
 -1.799680e-04  -3.116153e-04  0 
 -1.457248e-04  -3.015720e-04  0 
 -2.673037e-04  -3.148010e-04  0 
 -2.405619e-04  -3.135283e-04  0 
 -2.221580e-04  -3.172540e-04  0 
 -2.146499e-04  -3.280858e-04  0 
 -2.193219e-04  -3.473433e-04  0 
 -2.340892e-04  -3.725487e-04  0 
 -2.434301e-04  -3.889070e-04  0 
 -2.262154e-04  -3.834042e-04  0 
 -2.804953e-04  -3.472843e-04  0 
 -2.526948e-04  -3.461210e-04  0 
 -2.329585e-04  -3.484852e-04  0 
 -2.244778e-04  -3.569725e-04  0 
 -2.307431e-04  -3.752025e-04  0 
 -2.565144e-04  -4.072258e-04  0 
 -3.054171e-04  -4.522824e-04  0 
 -3.336962e-04  -4.663761e-04  0 
 -2.907501e-04  -3.793823e-04  0 
 -2.611400e-04  -3.757388e-04  0 
 -2.401293e-04  -3.730895e-04  0 
 -2.298792e-04  -3.742678e-04  0 
 -2.342338e-04  -3.826641e-04  0 
 -2.605900e-04  -4.036730e-04  0 
 -3.245009e-04  -4.488771e-04  0 
 -4.660130e-04  -5.392892e-04  0 
VECTORS displacement_ITER8 FLOAT
 0  0  0 
 -3.402203e-04  -4.223176e-04  0 
 8.161010e-21  1.173157e-22  0 
 -9.744389e-04  -5.845493e-04  0 
 -1.160062e-04  -7.170718e-05  0 
 -1.852465e-04  -1.348695e-04  0 
 -2.314162e-04  -1.911704e-04  0 
 -2.624354e-04  -2.398786e-04  0 
 -2.831642e-04  -2.813197e-04  0 
 -2.979149e-04  -3.167236e-04  0 
 -3.106309e-04  -3.485658e-04  0 
 -3.245251e-04  -3.809173e-04  0 
 2.535512e-05  -3.362546e-05  0 
 2.678813e-05  -8.309236e-05  0 
 8.210287e-06  -1.429131e-04  0 
 -2.947941e-05  -2.104044e-04  0 
 -8.806590e-05  -2.829017e-04  0 
 -1.727639e-04  -3.580159e-04  0 
 -2.978211e-04  -4.360051e-04  0 
 -5.063529e-04  -5.094568e-04  0 
 0  0  0 
 0  0  0 
 0  0  0 
 0  0  0 
 0  0  0 
 0  0  0 
 0  0  0 
 0  0  0 
 -2.990804e-04  -4.128326e-04  0 
 -2.687547e-04  -4.020811e-04  0 
 -2.469253e-04  -3.913437e-04  0 
 -2.353677e-04  -3.817297e-04  0 
 -2.380630e-04  -3.745943e-04  0 
 -2.619225e-04  -3.708759e-04  0 
 -3.254872e-04  -3.711425e-04  0 
 -4.724215e-04  -3.907989e-04  0 
 -7.005208e-05  -5.247604e-05  0 
 -5.506111e-05  -4.988508e-05  0 
 -4.752204e-05  -5.000958e-05  0 
 -4.229531e-05  -4.959514e-05  0 
 -3.694312e-05  -4.755310e-05  0 
 -2.994862e-05  -4.358445e-05  0 
 -1.993390e-05  -3.808418e-05  0 
 -4.604540e-06  -3.267151e-05  0 
 -1.363329e-04  -1.195281e-04  0 
 -1.080994e-04  -1.100036e-04  0 
 -9.409392e-05  -1.075201e-04  0 
 -8.534525e-05  -1.066133e-04  0 
 -7.685987e-05  -1.042701e-04  0 
 -6.510821e-05  -9.929645e-05  0 
 -4.693635e-05  -9.231319e-05  0 
 -1.789923e-05  -8.617070e-05  0 
 -1.864056e-04  -1.800124e-04  0 
 -1.559495e-04  -1.715645e-04  0 
 -1.379336e-04  -1.681659e-04  0 
 -1.274676e-04  -1.682226e-04  0 
 -1.182712e-04  -1.679828e-04  0 
 -1.046373e-04  -1.648661e-04  0 
 -8.153653e-05  -1.586121e-04  0 
 -4.490808e-05  -1.507117e-04  0 
 -2.226821e-04  -2.323206e-04  0 
 -1.937221e-04  -2.267657e-04  0 
 -1.753599e-04  -2.258514e-04  0 
 -1.654485e-04  -2.294669e-04  0 
 -1.588285e-04  -2.344611e-04  0 
 -1.480170e-04  -2.363846e-04  0 
 -1.257509e-04  -2.324089e-04  0 
 -8.714730e-05  -2.228466e-04  0 
 -2.482639e-04  -2.763007e-04  0 
 -2.211324e-04  -2.734361e-04  0 
 -2.033045e-04  -2.756089e-04  0 
 -1.951828e-04  -2.839577e-04  0 
 -1.944248e-04  -2.968722e-04  0 
 -1.932739e-04  -3.081556e-04  0 
 -1.802940e-04  -3.102372e-04  0 
 -1.464793e-04  -3.003437e-04  0 
 -2.662272e-04  -3.131188e-04  0 
 -2.397238e-04  -3.118332e-04  0 
 -2.215344e-04  -3.155294e-04  0 
 -2.142106e-04  -3.263245e-04  0 
 -2.190438e-04  -3.455294e-04  0 
 -2.339764e-04  -3.706655e-04  0 
 -2.435791e-04  -3.870263e-04  0 
 -2.268007e-04  -3.816858e-04  0 
 -2.793934e-04  -3.453281e-04  0 
 -2.518540e-04  -3.441102e-04  0 
 -2.323260e-04  -3.464232e-04  0 
 -2.240075e-04  -3.548851e-04  0 
 -2.304321e-04  -3.730718e-04  0 
 -2.563600e-04  -4.049608e-04  0 
 -3.053919e-04  -4.497768e-04  0 
 -3.340574e-04  -4.638027e-04  0 
 -2.896888e-04  -3.771386e-04  0 
 -2.603813e-04  -3.733961e-04  0 
 -2.394942e-04  -3.707228e-04  0 
 -2.293483e-04  -3.719151e-04  0 
 -2.338680e-04  -3.802858e-04  0 
 -2.605183e-04  -4.011365e-04  0 
 -3.246489e-04  -4.459246e-04  0 
 -4.660111e-04  -5.356110e-04  0 
VECTORS displacement_ITER9 FLOAT
 0  0  0 
 -3.391642e-04  -4.208358e-04  0 
 7.675403e-21  1.091308e-22  0 
 -9.719315e-04  -5.812104e-04  0 