# vtk DataFile Version 3.1
this is an vtk file created by FEMAC
ASCII
DATASET UNSTRUCTURED_GRID
POINTS 100 FLOAT
0.000000 1.000000 0.000000
1.000000 1.000000 0.000000
0.000000 2.000000 0.000000
1.000000 2.000000 0.000000
0.111111 1.000000 0.000000
0.222222 1.000000 0.000000
0.333333 1.000000 0.000000
0.444444 1.000000 0.000000
0.555556 1.000000 0.000000
0.666667 1.000000 0.000000
0.777778 1.000000 0.000000
0.888889 1.000000 0.000000
0.111111 2.000000 0.000000
0.222222 2.000000 0.000000
0.333333 2.000000 0.000000
0.444444 2.000000 0.000000
0.555556 2.000000 0.000000
0.666667 2.000000 0.000000
0.777778 2.000000 0.000000
0.888889 2.000000 0.000000
0.000000 1.111111 0.000000
0.000000 1.222222 0.000000
0.000000 1.333333 0.000000
0.000000 1.444444 0.000000
0.000000 1.555556 0.000000
0.000000 1.666667 0.000000
0.000000 1.777778 0.000000
0.000000 1.888889 0.000000
1.000000 1.111111 0.000000
1.000000 1.222222 0.000000
1.000000 1.333333 0.000000
1.000000 1.444444 0.000000
1.000000 1.555556 0.000000
1.000000 1.666667 0.000000
1.000000 1.777778 0.000000
1.000000 1.888889 0.000000
0.111111 1.111111 0.000000
0.111111 1.222222 0.000000
0.111111 1.333333 0.000000
0.111111 1.444444 0.000000
0.111111 1.555556 0.000000
0.111111 1.666667 0.000000
0.111111 1.777778 0.000000
0.111111 1.888889 0.000000
0.222222 1.111111 0.000000
0.222222 1.222222 0.000000
0.222222 1.333333 0.000000
0.222222 1.444444 0.000000
0.222222 1.555556 0.000000
0.222222 1.666667 0.000000
0.222222 1.777778 0.000000
0.222222 1.888889 0.000000
0.333333 1.111111 0.000000
0.333333 1.222222 0.000000
0.333333 1.333333 0.000000
0.333333 1.444444 0.000000
0.333333 1.555556 0.000000
0.333333 1.666667 0.000000
0.333333 1.777778 0.000000
0.333333 1.888889 0.000000
0.444444 1.111111 0.000000
0.444444 1.222222 0.000000
0.444444 1.333333 0.000000
0.444444 1.444444 0.000000
0.444444 1.555556 0.000000
0.444444 1.666667 0.000000
0.444444 1.777778 0.000000
0.444444 1.888889 0.000000
0.555556 1.111111 0.000000
0.555556 1.222222 0.000000
0.555556 1.333333 0.000000
0.555556 1.444444 0.000000
0.555556 1.555556 0.000000
0.555556 1.666667 0.000000
0.555556 1.777778 0.000000
0.555556 1.888889 0.000000
0.666667 1.111111 0.000000
0.666667 1.222222 0.000000
0.666667 1.333333 0.000000
0.666667 1.444444 0.000000
0.666667 1.555556 0.000000
0.666667 1.666667 0.000000
0.666667 1.777778 0.000000
0.666667 1.888889 0.000000
0.777778 1.111111 0.000000
0.777778 1.222222 0.000000
0.777778 1.333333 0.000000
0.777778 1.444444 0.000000
0.777778 1.555556 0.000000
0.777778 1.666667 0.000000
0.777778 1.777778 0.000000
0.777778 1.888889 0.000000
0.888889 1.111111 0.000000
0.888889 1.222222 0.000000
0.888889 1.333333 0.000000
0.888889 1.444444 0.000000
0.888889 1.555556 0.000000
0.888889 1.666667 0.000000
0.888889 1.777778 0.000000
0.888889 1.888889 0.000000
CELLS 81 405 
4 0  4 36 20
4 20 36 37 21
4 21 37 38 22
4 22 38 39 23
4 23 39 40 24
4 24 40 41 25
4 25 41 42 26
4 26 42 43 27
4 27 43 12  2
4 4  5 44 36
4 36 44 45 37
4 37 45 46 38
4 38 46 47 39
4 39 47 48 40
4 40 48 49 41
4 41 49 50 42
4 42 50 51 43
4 43 51 13 12
4 5  6 52 44
4 44 52 53 45
4 45 53 54 46
4 46 54 55 47
4 47 55 56 48
4 48 56 57 49
4 49 57 58 50
4 50 58 59 51
4 51 59 14 13
4 6  7 60 52
4 52 60 61 53
4 53 61 62 54
4 54 62 63 55
4 55 63 64 56
4 56 64 65 57
4 57 65 66 58
4 58 66 67 59
4 59 67 15 14
4 7  8 68 60
4 60 68 69 61
4 61 69 70 62
4 62 70 71 63
4 63 71 72 64
4 64 72 73 65
4 65 73 74 66
4 66 74 75 67
4 67 75 16 15
4 8  9 76 68
4 68 76 77 69
4 69 77 78 70
4 70 78 79 71
4 71 79 80 72
4 72 80 81 73
4 73 81 82 74
4 74 82 83 75
4 75 83 17 16
4 9 10 84 76
4 76 84 85 77
4 77 85 86 78
4 78 86 87 79
4 79 87 88 80
4 80 88 89 81
4 81 89 90 82
4 82 90 91 83
4 83 91 18 17
4 10 11 92 84
4 84 92 93 85
4 85 93 94 86
4 86 94 95 87
4 87 95 96 88
4 88 96 97 89
4 89 97 98 90
4 90 98 99 91
4 91 99 19 18
4 11  1 28 92
4 92 28 29 93
4 93 29 30 94
4 94 30 31 95
4 95 31 32 96
4 96 32 33 97
4 97 33 34 98
4 98 34 35 99
4 99 35  3 19
CELL_TYPES 81
9 9 9 9 9 9 9 9 9 9 9 9 9 9 9 9 9 9 9 9 9 9 9 9 9 9 9 9 9 9 9 9 9 9 9 9 9 9 9 9 9 9 9 9 9 9 9 9 9 9 9 9 9 9 9 9 9 9 9 9 9 9 9 9 9 9 9 9 9 9 9 9 9 9 9 9 9 9 9 9 9 
POINT_DATA 100
VECTORS displacement_ITER1 FLOAT
 -8.055366e-21  -8.862992e-23  0 
 -6.141836e-04  -3.052090e-04  0 
 1.389385e-21  7.261736e-21  0 
 -1.025381e-03  1.783520e-05  0 
 1.457417e-03  -4.384778e-04  0 
 1.627930e-03  -2.960783e-04  0 
 6.999263e-04  -9.547963e-05  0 
 -4.760449e-04  -2.008426e-05  0 
 -1.029332e-03  -6.319265e-05  0 
 -5.215165e-04  -1.277865e-04  0 
 6.087733e-04  -1.285403e-04  0 
 5.123027e-05  -2.801970e-04  0 
 -6.152525e-04  -6.218676e-05  0 
 -8.545039e-04  9.128642e-05  0 
 -6.654472e-04  1.563346e-04  0 
 -2.857174e-04  2.463649e-05  0 
 2.628248e-05  -2.215547e-04  0 
 1.233871e-04  -4.120244e-04  0 
 -2.876454e-06  -4.468524e-04  0 
 -6.179446e-04  -7.941739e-04  0 
 0  0  0 
 0  0  0 
 0  0  0 
 0  0  0 
 0  0  0 
 0  0  0 
 0  0  0 
 0  0  0 
 -2.143180e-03  -2.734032e-03  0 
 -2.594716e-03  -2.062696e-03  0 
 -2.196063e-03  -1.326397e-03  0 
 -1.863882e-03  -6.792551e-04  0 
 -1.523565e-03  -3.445198e-04  0 
 -1.503313e-03  -7.044369e-04  0 
 -1.337754e-03  -1.074556e-03  0 
 -6.680200e-04  -9.258459e-04  0 
 3.853428e-04  -3.861280e-04  0 
 4.329925e-05  -2.261956e-04  0 
 -6.554336e-05  -1.404986e-04  0 
 -9.137328e-05  -1.032748e-04  0 
 -9.319754e-05  -8.471886e-05  0 
 -9.715788e-05  -7.489090e-05  0 
 -1.283083e-04  -7.807035e-05  0 
 -2.418913e-04  -9.809687e-05  0 
 4.327567e-04  -1.525798e-04  0 
 -3.551206e-05  -1.575376e-04  0 
 -1.720808e-04  -1.644381e-04  0 
 -2.009474e-04  -1.598972e-04  0 
 -2.003980e-04  -1.377759e-04  0 
 -2.020419e-04  -1.002605e-04  0 
 -2.410418e-04  -5.003312e-05  0 
 -4.017017e-04  1.928545e-05  0 
 1.401892e-04  8.718967e-05  0 
 -1.470303e-04  -4.717652e-05  0 
 -2.689275e-04  -1.649197e-04  0 
 -3.130672e-04  -2.026657e-04  0 
 -3.244904e-04  -1.789308e-04  0 
 -3.281977e-04  -1.118681e-04  0 
 -3.561364e-04  -8.994685e-06  0 
 -4.543123e-04  1.122814e-04  0 
 -2.775038e-04  4.117801e-05  0 
 -2.910275e-04  -1.098692e-04  0 
 -3.742721e-04  -2.258461e-04  0 
 -4.404797e-04  -2.610785e-04  0 
 -4.695692e-04  -2.308676e-04  0 
 -4.712361e-04  -1.502043e-04  0 
 -4.558889e-04  -3.961675e-05  0 
 -4.146917e-04  5.401827e-05  0 
 -5.471919e-04  -2.666303e-04  0 
 -4.725839e-04  -3.407918e-04  0 
 -5.404329e-04  -3.572326e-04  0 
 -6.069954e-04  -3.516860e-04  0 
 -6.387989e-04  -3.111000e-04  0 
 -6.253161e-04  -2.389797e-04  0 
 -5.416073e-04  -1.581993e-04  0 
 -3.498226e-04  -1.276373e-04  0 
 -6.026039e-04  -6.038750e-04  0 
 -7.234903e-04  -5.718796e-04  0 
 -7.763543e-04  -5.155972e-04  0 
 -8.201661e-04  -4.743000e-04  0 
 -8.407674e-04  -4.209091e-04  0 
 -7.940101e-04  -3.640414e-04  0 
 -6.520467e-04  -3.358389e-04  0 
 -3.450072e-04  -3.349579e-04  0 
 -7.560841e-04  -6.841944e-04  0 
 -1.040951e-03  -7.547613e-04  0 
 -1.055237e-03  -6.900663e-04  0 
 -1.074941e-03  -5.939566e-04  0 
 -1.086205e-03  -5.388548e-04  0 
 -1.006370e-03  -4.978691e-04  0 
 -7.902197e-04  -4.961487e-04  0 
 -5.016516e-04  -5.681928e-04  0 
 -1.217421e-03  -9.329156e-04  0 
 -1.466370e-03  -1.179415e-03  0 
 -1.475323e-03  -9.061992e-04  0 
 -1.369050e-03  -6.549788e-04  0 
 -1.350084e-03  -5.860331e-04  0 
 -1.295171e-03  -6.366182e-04  0 
 -9.947623e-04  -6.540248e-04  0 
 -5.979604e-04  -6.770106e-04  0 
VECTORS displacement_ITER2 FLOAT
 -9.663245e-21  -1.475643e-22  0 
 -1.117600e-03  -1.371576e-03  0 
 1.368928e-21  7.007062e-21  0 
 3.752219e-04  -6.012075e-04  0 
 1.046479e-03  2.152550e-04  0 
 7.538049e-04  2.439646e-04  0 
 6.534550e-05  -2.195359e-05  0 
 -5.810227e-04  -2.565119e-04  0 
 -9.114050e-04  -3.709734e-04  0 
 -6.636908e-04  -4.618092e-04  0 
 2.173165e-04  -5.793656e-04  0 
 1.315861e-05  1.539028e-04  0 
 -3.362517e-04  1.508165e-04  0 
 -2.644357e-04  2.271304e-04  0 
 -1.230261e-04  5.663307e-05  0 
 -4.839150e-05  -2.349220e-04  0 
 -6.511054e-05  -5.254865e-04  0 
 -1.883923e-04  -6.747126e-04  0 
 -3.773358e-04  -4.499328e-04  0 
 -2.920883e-04  -1.740549e-04  0 
 0  0  0 
 0  0  0 
 0  0  0 
 0  0  0 
 0  0  0 
 0  0  0 
 0  0  0 
 0  0  0 
 -1.388289e-03  -1.840813e-03  0 
 -1.821055e-03  -8.552605e-04  0 
 -1.650406e-03  -4.872296e-04  0 
 -1.493422e-03  -5.352087e-04  0 
 -1.184063e-03  -6.798128e-04  0 
 -7.909553e-04  -6.963081e-04  0 
 -1.157381e-03  -5.888157e-04  0 
 -7.906430e-04  -4.937952e-04  0 
 1.572650e-04  -3.876834e-05  0 
 -2.596057e-05  -7.318428e-05  0 
 -7.457420e-05  -8.312056e-05  0 
 -8.205047e-05  -8.797302e-05  0 
 -7.724977e-05  -8.312036e-05  0 
 -6.812906e-05  -6.414638e-05  0 
 -6.023924e-05  -2.861814e-05  0 
 -8.079344e-05  2.793634e-05  0 
 2.182831e-04  1.374977e-04  0 
 -6.150195e-05  -3.740958e-05  0 
 -1.423238e-04  -1.214637e-04  0 
 -1.620167e-04  -1.559274e-04  0 
 -1.646214e-04  -1.557150e-04  0 
 -1.614041e-04  -1.243423e-04  0 
 -1.583933e-04  -5.424044e-05  0 
 -1.864789e-04  7.772976e-05  0 
 -7.276182e-06  6.906964e-05  0 
 -1.256480e-04  -4.874640e-05  0 
 -2.024513e-04  -1.666488e-04  0 
 -2.394909e-04  -2.183139e-04  0 
 -2.585044e-04  -2.200734e-04  0 
 -2.680465e-04  -1.871768e-04  0 
 -2.704164e-04  -1.187254e-04  0 
 -2.456867e-04  -2.150967e-05  0 
 -3.329827e-04  -1.552946e-04  0 
 -2.600450e-04  -2.042828e-04  0 
 -2.890526e-04  -2.653760e-04  0 
 -3.344453e-04  -2.888224e-04  0 
 -3.607773e-04  -2.802897e-04  0 
 -3.691165e-04  -2.557191e-04  0 
 -3.537741e-04  -2.315353e-04  0 
 -2.738898e-04  -2.206667e-04  0 
 -5.383448e-04  -4.397833e-04  0 
 -4.237051e-04  -4.410293e-04  0 
 -4.402896e-04  -4.024683e-04  0 
 -4.710681e-04  -3.722938e-04  0 
 -4.821875e-04  -3.420949e-04  0 
 -4.594874e-04  -3.232668e-04  0 
 -4.016271e-04  -3.441498e-04  0 
 -2.950130e-04  -4.200079e-04  0 
 -5.590098e-04  -7.114349e-04  0 
 -6.295546e-04  -6.135053e-04  0 
 -6.469164e-04  -5.275089e-04  0 
 -6.584290e-04  -4.569752e-04  0 
 -6.397462e-04  -4.057787e-04  0 
 -5.607398e-04  -3.860738e-04  0 
 -4.346731e-04  -4.124244e-04  0 
 -3.059341e-04  -5.124279e-04  0 
 -6.849459e-04  -6.730786e-04  0 
 -8.383397e-04  -6.907247e-04  0 
 -8.917882e-04  -6.169365e-04  0 
 -9.005186e-04  -5.067222e-04  0 
 -8.315813e-04  -4.640559e-04  0 
 -6.978787e-04  -4.644915e-04  0 
 -5.073618e-04  -4.519011e-04  0 
 -3.356672e-04  -4.380090e-04  0 
 -8.338979e-04  -6.806806e-04  0 
 -1.063984e-03  -8.057699e-04  0 
 -1.235713e-03  -6.090339e-04  0 
 -1.197763e-03  -5.211426e-04  0 
 -1.012805e-03  -5.089369e-04  0 
 -8.369376e-04  -5.852923e-04  0 
 -7.034294e-04  -5.435320e-04  0 
 -4.838248e-04  -3.086968e-04  0 
VECTORS displacement_ITER3 FLOAT
 -9.611780e-21  -1.467809e-22  0 
 -1.296655e-03  -1.235713e-03  0 
 1.526192e-21  7.931125e-21  0 
 2.791755e-04  -3.545172e-04  0 
 1.547365e-04  3.493288e-04  0 
 -1.196652e-04  8.952363e-05  0 
 -1.081869e-04  -2.863126e-04  0 
 -9.585140e-06  -4.284732e-04  0 
 -6.344237e-05  -3.537931e-04  0 
 -2.664126e-04  -3.085598e-04  0 
 -2.819443e-04  -6.239363e-04  0 
 -2.037238e-04  -1.090864e-04  0 
 -2.074593e-05  2.694367e-05  0 
 -2.050196e-05  -9.789110e-05  0 
 -1.796309e-04  -2.145181e-04  0 
 -3.558482e-04  -2.294783e-04  0 
 -4.047601e-04  -2.259674e-04  0 
 -3.252526e-04  -3.131832e-04  0 
 -2.880501e-04  -4.020217e-04  0 
 -2.024044e-04  -3.582746e-04  0 
 0  0  0 
 0  0  0 
 0  0  0 
 0  0  0 
 0  0  0 
 0  0  0 
 0  0  0 
 0  0  0 
 -1.613399e-03  -1.013229e-03  0 
 -1.618268e-03  -4.615913e-04  0 
 -1.269808e-03  -3.860239e-04  0 
 -1.106185e-03  -6.218705e-04  0 
 -9.862053e-04  -8.845059e-04  0 
 -6.759727e-04  -8.995181e-04  0 
 -9.144685e-04  -7.213343e-04  0 
 -4.964600e-04  -3.565604e-04  0 
 -4.824425e-05  3.047457e-05  0 
 -5.128955e-05  -8.585595e-05  0 
 -5.753063e-05  -1.223213e-04  0 
 -6.290295e-05  -1.286914e-04  0 
 -6.549948e-05  -1.240033e-04  0 
 -6.525857e-05  -1.137763e-04  0 
 -5.983511e-05  -9.480059e-05  0 
 -3.906942e-05  -5.369856e-05  0 
 -2.519912e-06  -6.223441e-05  0 
 -6.929381e-05  -1.845412e-04  0 
 -1.102151e-04  -2.229708e-04  0 
 -1.309571e-04  -2.272590e-04  0 
 -1.392262e-04  -2.179824e-04  0 
 -1.411382e-04  -2.030681e-04  0 
 -1.387238e-04  -1.831655e-04  0 
 -1.246565e-04  -1.482429e-04  0 
 -6.905458e-05  -2.944030e-04  0 
 -1.251873e-04  -2.929975e-04  0 
 -1.828159e-04  -3.041129e-04  0 
 -2.122894e-04  -2.998239e-04  0 
 -2.225667e-04  -2.842356e-04  0 
 -2.213398e-04  -2.660979e-04  0 
 -2.154941e-04  -2.511607e-04  0 
 -2.038519e-04  -2.446660e-04  0 
 -1.773103e-04  -4.146071e-04  0 
 -2.446442e-04  -3.901808e-04  0 
 -2.895077e-04  -3.750577e-04  0 
 -3.170663e-04  -3.540331e-04  0 
 -3.199161e-04  -3.286680e-04  0 
 -3.058127e-04  -3.063604e-04  0 
 -2.861126e-04  -2.904756e-04  0 
 -2.822099e-04  -2.745365e-04  0 
 -2.861504e-04  -4.220371e-04  0 
 -3.753253e-04  -4.550533e-04  0 
 -4.337602e-04  -4.319776e-04  0 
 -4.537938e-04  -3.962968e-04  0 
 -4.369636e-04  -3.610107e-04  0 
 -3.962619e-04  -3.329129e-04  0 
 -3.567708e-04  -3.108780e-04  0 
 -3.463687e-04  -2.764984e-04  0 
 -3.709434e-04  -4.747249e-04  0 
 -5.324509e-04  -4.868769e-04  0 
 -6.119307e-04  -4.642229e-04  0 
 -6.240738e-04  -4.314648e-04  0 
 -5.773022e-04  -3.980571e-04  0 
 -4.918435e-04  -3.664184e-04  0 
 -4.121439e-04  -3.385050e-04  0 
 -3.727782e-04  -3.166057e-04  0 
 -5.844545e-04  -5.210351e-04  0 
 -7.457608e-04  -4.913055e-04  0 
 -8.272211e-04  -4.753174e-04  0 
 -8.197517e-04  -4.642906e-04  0 
 -7.310219e-04  -4.680545e-04  0 
 -5.946297e-04  -4.490870e-04  0 
 -4.468105e-04  -3.976108e-04  0 
 -3.467153e-04  -3.669323e-04  0 
 -9.155307e-04  -5.508231e-04  0 
 -1.041986e-03  -4.912767e-04  0 
 -1.078797e-03  -4.458067e-04  0 
 -1.014863e-03  -5.286451e-04  0 
 -8.610103e-04  -5.939248e-04  0 
 -6.995836e-04  -6.363729e-04  0 
 -5.344929e-04  -5.294218e-04  0 
 -3.348671e-04  -3.424718e-04  0 
VECTORS displacement_ITER4 FLOAT
 -9.508241e-21  -1.426305e-22  0 
 -9.333289e-04  -8.844223e-04  0 
 1.555358e-21  8.158161e-21  0 
 -3.227384e-05  -2.860982e-04  0 
 -1.979557e-04  9.037547e-05  0 
 -1.730744e-04  -1.088179e-04  0 
 4.579415e-06  -1.689091e-04  0 
 9.812357e-05  -2.094638e-04  0 
 4.174912e-05  -2.739672e-04  0 
 -1.842017e-04  -3.292641e-04  0 
 -5.065334e-04  -5.877476e-04  0 
 -2.923622e-04  -4.958943e-04  0 
 -1.702897e-05  -8.744979e-05  0 
 -1.236851e-04  -1.956352e-04  0 
 -2.662622e-04  -2.106483e-04  0 
 -3.652072e-04  -1.906145e-04  0 
 -3.916335e-04  -1.920359e-04  0 
 -3.216231e-04  -2.572602e-04  0 
 -2.345891e-04  -4.211044e-04  0 
 -2.090520e-04  -5.292826e-04  0 
 0  0  0 
 0  0  0 
 0  0  0 
 0  0  0 
 0  0  0 
 0  0  0 
 0  0  0 
 0  0  0 
 -1.631930e-03  -7.107211e-04  0 
 -1.457242e-03  -5.571532e-04  0 
 -1.084281e-03  -5.764551e-04  0 
 -9.097887e-04  -6.959482e-04  0 
 -9.203909e-04  -7.964491e-04  0 
 -8.344661e-04  -8.497228e-04  0 
 -8.543509e-04  -7.927325e-04  0 
 -4.823136e-04  -4.577884e-04  0 
 -8.478087e-05  -6.402035e-05  0 
 -6.444605e-05  -1.210017e-04  0 
 -6.354878e-05  -1.367679e-04  0 
 -6.476496e-05  -1.367097e-04  0 
 -6.505007e-05  -1.316554e-04  0 
 -6.492587e-05  -1.262555e-04  0 
 -6.499429e-05  -1.211577e-04  0 
 -6.077048e-05  -1.117889e-04  0 
 -1.017650e-04  -1.974995e-04  0 
 -1.116928e-04  -2.384213e-04  0 
 -1.276945e-04  -2.490463e-04  0 
 -1.360095e-04  -2.436178e-04  0 
 -1.369244e-04  -2.320112e-04  0 
 -1.346316e-04  -2.201745e-04  0 
 -1.334530e-04  -2.115264e-04  0 
 -1.336777e-04  -2.070157e-04  0 
 -1.106628e-04  -2.978692e-04  0 
 -1.680220e-04  -3.296874e-04  0 
 -2.038884e-04  -3.333764e-04  0 
 -2.187642e-04  -3.226969e-04  0 
 -2.186523e-04  -3.042115e-04  0 
 -2.105001e-04  -2.841155e-04  0 
 -2.035897e-04  -2.668425e-04  0 
 -2.114787e-04  -2.502801e-04  0 
 -1.223752e-04  -3.317072e-04  0 
 -2.414201e-04  -3.815922e-04  0 
 -2.967931e-04  -3.917191e-04  0 
 -3.176491e-04  -3.789709e-04  0 
 -3.139053e-04  -3.544233e-04  0 
 -2.956940e-04  -3.257468e-04  0 
 -2.785091e-04  -2.935486e-04  0 
 -2.891459e-04  -2.524429e-04  0 
 -1.995901e-04  -3.505188e-04  0 
 -3.347187e-04  -4.128171e-04  0 
 -4.104991e-04  -4.320017e-04  0 
 -4.381542e-04  -4.193620e-04  0 
 -4.248754e-04  -3.928539e-04  0 
 -3.897801e-04  -3.594660e-04  0 
 -3.564115e-04  -3.160045e-04  0 
 -3.456934e-04  -2.564168e-04  0 
 -3.387601e-04  -4.107338e-04  0 
 -4.677563e-04  -4.541694e-04  0 
 -5.583731e-04  -4.591005e-04  0 
 -5.831091e-04  -4.543272e-04  0 
 -5.504859e-04  -4.387243e-04  0 
 -4.871263e-04  -4.054076e-04  0 
 -4.262604e-04  -3.598988e-04  0 
 -3.788663e-04  -3.054384e-04  0 
 -5.397192e-04  -5.457790e-04  0 
 -6.835770e-04  -4.880186e-04  0 
 -7.482840e-04  -4.735639e-04  0 
 -7.385883e-04  -5.004171e-04  0 
 -6.834426e-04  -5.208120e-04  0 
 -5.933293e-04  -4.918839e-04  0 
 -4.809252e-04  -4.305115e-04  0 
 -3.829149e-04  -4.004028e-04  0 
 -9.144159e-04  -6.251499e-04  0 
 -1.012539e-03  -4.895822e-04  0 
 -9.484807e-04  -4.904669e-04  0 
 -8.667626e-04  -5.829575e-04  0 
 -8.030142e-04  -6.481913e-04  0 
 -7.308262e-04  -6.506276e-04  0 
 -5.727427e-04  -5.506012e-04  0 
 -3.568254e-04  -4.446480e-04  0 
VECTORS displacement_ITER5 FLOAT
 -9.303202e-21  -1.388787e-22  0 
 -8.763552e-04  -8.056031e-04  0 
 1.534082e-21  8.048311e-21  0 
 -1.101703e-04  -3.393179e-04  0 
 -1.808362e-04  -9.664439e-05  0 
 -3.093610e-05  -1.437510e-04  0 
 4.305037e-05  -6.036863e-05  0 
 1.613005e-05  -1.257594e-04  0 
 -3.077565e-05  -3.107920e-04  0 
 -1.164932e-04  -4.166628e-04  0 
 -4.257061e-04  -4.505428e-04  0 
 -4.168344e-04  -5.847346e-04  0 
 -7.266447e-05  -7.972641e-05  0 
 -1.559616e-04  -1.079787e-04  0 
 -1.760562e-04  -1.190346e-04  0 
 -1.874742e-04  -1.909280e-04  0 
 -2.446739e-04  -2.851220e-04  0 
 -3.011171e-04  -3.389268e-04  0 
 -2.813706e-04  -4.106252e-04  0 
 -2.148432e-04  -4.961897e-04  0 
 0  0  0 
 0  0  0 
 0  0  0 
 0  0  0 
 0  0  0 
 0  0  0 
 0  0  0 
 0  0  0 
 -1.440056e-03  -6.973183e-04  0 
 -1.325617e-03  -6.062106e-04  0 
 -1.196743e-03  -6.511508e-04  0 
 -1.079667e-03  -7.361169e-04  0 
 -1.026272e-03  -7.461618e-04  0 
 -9.420311e-04  -7.697723e-04  0 
 -7.894299e-04  -7.295708e-04  0 
 -5.300740e-04  -5.220306e-04  0 
 -6.792065e-05  -1.259101e-04  0 
 -6.822134e-05  -1.346581e-04  0 
 -6.829078e-05  -1.364891e-04  0 
 -6.635873e-05  -1.321012e-04  0 
 -6.271874e-05  -1.230569e-04  0 
 -5.747384e-05  -1.115196e-04  0 
 -5.258587e-05  -1.000743e-04  0 
 -5.579594e-05  -9.210420e-05  0 
 -1.175118e-04  -2.179387e-04  0 
 -1.306033e-04  -2.399692e-04  0 
 -1.386821e-04  -2.471006e-04  0 
 -1.408539e-04  -2.393290e-04  0 
 -1.369303e-04  -2.223738e-04  0 
 -1.278641e-04  -2.000419e-04  0 
 -1.165457e-04  -1.730701e-04  0 
 -1.126920e-04  -1.417671e-04  0 
 -1.175543e-04  -2.384120e-04  0 
 -1.826080e-04  -3.157477e-04  0 
 -2.136478e-04  -3.319851e-04  0 
 -2.257205e-04  -3.218083e-04  0 
 -2.230554e-04  -2.989566e-04  0 
 -2.107737e-04  -2.690332e-04  0 
 -1.940935e-04  -2.316782e-04  0 
 -1.791534e-04  -1.801353e-04  0 
 -1.190887e-04  -2.876572e-04  0 
 -2.367073e-04  -3.701994e-04  0 
 -3.012250e-04  -3.924432e-04  0 
 -3.247043e-04  -3.824333e-04  0 
 -3.215429e-04  -3.562088e-04  0 
 -3.020627e-04  -3.231481e-04  0 
 -2.760149e-04  -2.857293e-04  0 
 -2.464378e-04  -2.419904e-04  0 
 -1.935445e-04  -3.782213e-04  0 
 -3.322102e-04  -4.194799e-04  0 
 -4.128435e-04  -4.388198e-04  0 
 -4.441584e-04  -4.286526e-04  0 
 -4.337800e-04  -4.020741e-04  0 
 -3.975112e-04  -3.698235e-04  0 
 -3.510804e-04  -3.381626e-04  0 
 -3.013548e-04  -3.119937e-04  0 
 -3.549682e-04  -4.437156e-04  0 
 -4.778778e-04  -4.770074e-04  0 
 -5.638234e-04  -4.808667e-04  0 
 -5.905241e-04  -4.717533e-04  0 
 -5.624406e-04  -4.515040e-04  0 
 -4.978590e-04  -4.204416e-04  0 
 -4.201420e-04  -3.891772e-04  0 
 -3.462253e-04  -3.647492e-04  0 
 -5.331887e-04  -5.354169e-04  0 
 -6.877984e-04  -5.275843e-04  0 
 -7.598347e-04  -5.180712e-04  0 
 -7.597611e-04  -5.258477e-04  0 
 -7.083080e-04  -5.245409e-04  0 
 -6.151802e-04  -4.942304e-04  0 
 -4.933414e-04  -4.437969e-04  0 
 -3.802068e-04  -4.116922e-04  0 
 -8.433726e-04  -6.189772e-04  0 
 -9.803789e-04  -5.512014e-04  0 
 -9.826344e-04  -5.641377e-04  0 
 -9.314042e-04  -6.050137e-04  0 
 -8.633694e-04  -6.336870e-04  0 
 -7.682454e-04  -6.112185e-04  0 
 -6.037056e-04  -5.372551e-04  0 
 -3.920793e-04  -4.512827e-04  0 
VECTORS displacement_ITER6 FLOAT
 -9.002965e-21  -1.330919e-22  0 
 -9.249410e-04  -7.929782e-04  0 
 1.494390e-21  7.832603e-21  0 
 -1.393555e-04  -4.854907e-04  0 
 -3.289297e-05  -9.546749e-05  0 
 2.904785e-05  -4.813816e-05  0 
 -2.565223e-05  -4.659109e-05  0 
 -7.940480e-05  -1.669316e-04  0 
 -1.127954e-04  -3.390857e-04  0 
 -1.388105e-04  -4.620220e-04  0 
 -3.139508e-04  -3.938332e-04  0 
 -5.127226e-04  -5.462013e-04  0 
 -1.041034e-04  -6.236942e-05  0 
 -1.606777e-04  -8.683874e-05  0 
 -1.650935e-04  -1.376985e-04  0 
 -1.774517e-04  -2.215405e-04  0 
 -2.242676e-04  -3.072171e-04  0 
 -2.963782e-04  -3.611353e-04  0 
 -3.189321e-04  -4.042042e-04  0 
 -2.500909e-04  -4.806230e-04  0 
 0  0  0 
 0  0  0 
 0  0  0 
 0  0  0 
 0  0  0 
 0  0  0 
 0  0  0 
 0  0  0 
 -1.300140e-03  -7.201165e-04  0 
 -1.289885e-03  -6.552047e-04  0 
 -1.296833e-03  -7.058749e-04  0 
 -1.193455e-03  -7.543639e-04  0 
 -1.034835e-03  -7.348192e-04  0 
 -9.058431e-04  -7.079347e-04  0 
 -7.153133e-04  -6.661205e-04  0 
 -5.890660e-04  -6.128190e-04  0 
 -5.642006e-05  -1.111874e-04  0 
 -7.092927e-05  -1.219927e-04  0 
 -7.159423e-05  -1.288057e-04  0 
 -6.895741e-05  -1.281089e-04  0 
 -6.485705e-05  -1.211293e-04  0 
 -5.951051e-05  -1.101568e-04  0 
 -5.473515e-05  -9.737220e-05  0 
 -5.893833e-05  -8.454290e-05  0 
 -1.015730e-04  -1.602141e-04  0 
 -1.303787e-04  -2.134066e-04  0 
 -1.408603e-04  -2.342844e-04  0 
 -1.433758e-04  -2.335084e-04  0 
 -1.399770e-04  -2.199239e-04  0 
 -1.317991e-04  -1.985378e-04  0 
 -1.222511e-04  -1.700597e-04  0 
 -1.224396e-04  -1.315913e-04  0 
 -1.169256e-04  -2.004716e-04  0 
 -1.789666e-04  -2.899698e-04  0 
 -2.124168e-04  -3.194021e-04  0 
 -2.268298e-04  -3.164902e-04  0 
 -2.262728e-04  -2.973625e-04  0 
 -2.158725e-04  -2.689513e-04  0 
 -2.008561e-04  -2.317816e-04  0 
 -1.854141e-04  -1.840949e-04  0 
 -1.527599e-04  -2.960592e-04  0 
 -2.400502e-04  -3.654609e-04  0 
 -3.000479e-04  -3.870937e-04  0 
 -3.252146e-04  -3.799206e-04  0 
 -3.246059e-04  -3.569089e-04  0 
 -3.072971e-04  -3.263934e-04  0 
 -2.805878e-04  -2.923080e-04  0 
 -2.431547e-04  -2.562864e-04  0 
 -2.320802e-04  -4.138135e-04  0 
 -3.483434e-04  -4.376423e-04  0 
 -4.180250e-04  -4.436576e-04  0 
 -4.454872e-04  -4.307797e-04  0 
 -4.367700e-04  -4.057832e-04  0 
 -4.027690e-04  -3.766346e-04  0 
 -3.547861e-04  -3.501045e-04  0 
 -2.981141e-04  -3.299616e-04  0 
 -3.815229e-04  -4.829129e-04  0 
 -5.053878e-04  -5.005743e-04  0 
 -5.756445e-04  -4.954737e-04  0 
 -5.932765e-04  -4.780976e-04  0 
 -5.656279e-04  -4.550474e-04  0 
 -5.046695e-04  -4.279580e-04  0 
 -4.263833e-04  -4.024807e-04  0 
 -3.490043e-04  -3.840150e-04  0 
 -5.576614e-04  -5.294710e-04  0 
 -7.110171e-04  -5.548185e-04  0 
 -7.765764e-04  -5.458612e-04  0 
 -7.696243e-04  -5.328013e-04  0 
 -7.113142e-04  -5.171118e-04  0 
 -6.200531e-04  -4.951073e-04  0 
 -5.059281e-04  -4.585006e-04  0 
 -3.936973e-04  -4.238615e-04  0 
 -8.149084e-04  -5.986639e-04  0 
 -9.784773e-04  -6.003019e-04  0 
 -1.019883e-03  -6.099336e-04  0 
 -9.702786e-04  -6.097860e-04  0 
 -8.701051e-04  -6.083024e-04  0 
 -7.488295e-04  -5.864686e-04  0 
 -6.140429e-04  -5.493088e-04  0 
 -4.347199e-04  -4.766821e-04  0 
VECTORS displacement_ITER7 FLOAT
 -8.605655e-21  -1.252763e-22  0 
 -9.273134e-04  -6.585562e-04  0 
 1.487612e-21  7.819944e-21  0 
 -2.341046e-04  -5.429448e-04  0 
 5.719107e-05  -3.747624e-05  0 
 3.166504e-05  -1.197212e-05  0 
 -2.066903e-05  -1.053416e-04  0 
 -3.734869e-05  -1.981174e-04  0 
 -9.732267e-05  -2.779455e-04  0 
 -1.957761e-04  -4.113654e-04  0 
 -2.959551e-04  -4.400360e-04  0 
 -5.187487e-04  -5.602865e-04  0 
 -1.016131e-04  -5.772481e-05  0 
 -1.567880e-04  -1.148321e-04  0 
 -2.041791e-04  -1.855226e-04  0 
 -2.427756e-04  -2.300297e-04  0 
 -2.542392e-04  -2.678774e-04  0 
 -2.705384e-04  -3.331056e-04  0 
 -2.964599e-04  -4.186291e-04  0 
 -2.926995e-04  -5.207780e-04  0 
 0  0  0 
 0  0  0 
 0  0  0 
 0  0  0 
 0  0  0 
 0  0  0 
 0  0  0 
 0  0  0 
 -1.316243e-03  -7.015394e-04  0 
 -1.336551e-03  -7.424943e-04  0 
 -1.303584e-03  -7.698110e-04  0 
 -1.196472e-03  -7.427945e-04  0 
 -1.033170e-03  -7.121564e-04  0 
 -8.974582e-04  -6.857749e-04  0 
 -7.194599e-04  -6.782811e-04  0 
 -6.106888e-04  -6.837025e-04  0 
 -4.543255e-05  -9.189928e-05  0 
 -6.445120e-05  -1.188144e-04  0 
 -6.927314e-05  -1.293032e-04  0 
 -6.937596e-05  -1.293306e-04  0 
 -6.703944e-05  -1.235822e-04  0 
 -6.382168e-05  -1.150739e-04  0 
 -6.175419e-05  -1.048202e-04  0 
 -6.481468e-05  -8.991216e-05  0 
 -6.706169e-05  -1.409884e-04  0 
 -1.158230e-04  -2.084025e-04  0 
 -1.370291e-04  -2.321068e-04  0 
 -1.440240e-04  -2.330941e-04  0 
 -1.425949e-04  -2.218667e-04  0 
 -1.368626e-04  -2.043770e-04  0 
 -1.324753e-04  -1.828519e-04  0 
 -1.388723e-04  -1.535521e-04  0 
 -9.548216e-05  -2.135407e-04  0 
 -1.679627e-04  -2.835586e-04  0 
 -2.098571e-04  -3.133228e-04  0 
 -2.277539e-04  -3.139118e-04  0 
 -2.286798e-04  -2.977654e-04  0 
 -2.192699e-04  -2.725447e-04  0 
 -2.075481e-04  -2.421374e-04  0 
 -2.020590e-04  -2.113490e-04  0 
 -1.578547e-04  -3.000923e-04  0 
 -2.423305e-04  -3.574452e-04  0 
 -3.000044e-04  -3.802158e-04  0 
 -3.268027e-04  -3.767566e-04  0 
 -3.275837e-04  -3.567846e-04  0 
 -3.104244e-04  -3.274854e-04  0 
 -2.837344e-04  -2.932913e-04  0 
 -2.552310e-04  -2.587151e-04  0 
 -2.427792e-04  -3.843432e-04  0 
 -3.523328e-04  -4.285045e-04  0 
 -4.199098e-04  -4.381195e-04  0 
 -4.478577e-04  -4.284024e-04  0 
 -4.412138e-04  -4.068513e-04  0 
 -4.095458e-04  -3.777734e-04  0 
 -3.629743e-04  -3.439495e-04  0 
 -3.094489e-04  -3.061474e-04  0 
 -3.762860e-04  -4.683539e-04  0 
 -5.073368e-04  -4.924002e-04  0 
 -5.778821e-04  -4.898069e-04  0 
 -5.944946e-04  -4.766958e-04  0 
 -5.704208e-04  -4.580940e-04  0 
 -5.170228e-04  -4.320291e-04  0 
 -4.451982e-04  -4.008120e-04  0 
 -3.638392e-04  -3.678925e-04  0 
 -5.718167e-04  -5.422158e-04  0 
 -7.225209e-04  -5.514122e-04  0 
 -7.780417e-04  -5.429891e-04  0 
 -7.655940e-04  -5.332691e-04  0 
 -7.132582e-04  -5.199812e-04  0 
 -6.351557e-04  -5.013213e-04  0 
 -5.313363e-04  -4.703199e-04  0 
 -4.146029e-04  -4.416406e-04  0 
 -8.580088e-04  -6.051707e-04  0 
 -1.007680e-03  -6.163471e-04  0 
 -1.018428e-03  -6.235074e-04  0 
 -9.608144e-04  -6.145857e-04  0 
 -8.690518e-04  -6.013973e-04  0 
 -7.579913e-04  -5.869411e-04  0 
 -6.371056e-04  -5.710386e-04  0 
 -4.641506e-04  -5.209846e-04  0 
VECTORS displacement_ITER8 FLOAT
 -8.161010e-21  -1.173157e-22  0 
 -9.830577e-04  -5.993173e-04  0 
 1.467718e-21  7.734278e-21  0 
 -2.711674e-04  -5.670355e-04  0 
 4.807935e-05  -1.192065e-05  0 
 2.182830e-06  -5.711312e-05  0 
 -6.802049e-07  -1.646664e-04  0 
 -1.895524e-06  -2.148497e-04  0 
 -6.483706e-05  -2.456555e-04  0 
 -1.958117e-04  -3.475434e-04  0 
 -2.863215e-04  -4.596790e-04  0 
 -5.084402e-04  -5.483734e-04  0 
 -1.001899e-04  -5.170375e-05  0 
 -1.620079e-04  -1.180458e-04  0 
 -2.244826e-04  -1.870033e-04  0 
 -2.670671e-04  -2.313605e-04  0 
 -2.759243e-04  -2.709405e-04  0 
 -2.751132e-04  -3.370244e-04  0 
 -2.919004e-04  -4.240551e-04  0 
 -3.074492e-04  -5.122684e-04  0 
 0  0  0 
 0  0  0 
 0  0  0 
 0  0  0 
 0  0  0 
 0  0  0 
 0  0  0 
 0  0  0 
 -1.345780e-03  -7.046067e-04  0 
 -1.371586e-03  -7.806372e-04  0 
 -1.303691e-03  -7.832869e-04  0 
 -1.202656e-03  -7.378466e-04  0 
 -1.054676e-03  -7.288322e-04  0 
 -8.955926e-04  -7.193301e-04  0 
 -7.161418e-04  -7.156128e-04  0 
 -5.798635e-04  -6.926244e-04  0 
 -4.384861e-05  -9.360345e-05  0 
 -6.061080e-05  -1.261502e-04  0 
 -6.786370e-05  -1.349652e-04  0 
 -6.983740e-05  -1.328942e-04  0 
 -6.864183e-05  -1.259578e-04  0 
 -6.626500e-05  -1.170189e-04  0 
 -6.494180e-05  -1.064464e-04  0 
 -6.790758e-05  -8.991015e-05  0 
 -5.827994e-05  -1.655772e-04  0 
 -1.117458e-04  -2.228005e-04  0 
 -1.373395e-04  -2.401404e-04  0 
 -1.466268e-04  -2.376482e-04  0 
 -1.463304e-04  -2.248842e-04  0 
 -1.416710e-04  -2.070361e-04  0 
 -1.387727e-04  -1.857625e-04  0 
 -1.468022e-04  -1.568074e-04  0 
 -9.544967e-05  -2.492509e-04  0 
 -1.705692e-04  -2.991319e-04  0 
 -2.147544e-04  -3.205605e-04  0 
 -2.333147e-04  -3.178407e-04  0 
 -2.345609e-04  -3.002851e-04  0 
 -2.257984e-04  -2.748065e-04  0 
 -2.158251e-04  -2.451268e-04  0 
 -2.135195e-04  -2.154323e-04  0 
 -1.593712e-04  -3.126987e-04  0 
 -2.522231e-04  -3.651798e-04  0 
 -3.090627e-04  -3.848406e-04  0 
 -3.351816e-04  -3.794177e-04  0 
 -3.353157e-04  -3.584135e-04  0 
 -3.179938e-04  -3.287745e-04  0 
 -2.926499e-04  -2.947614e-04  0 
 -2.694667e-04  -2.605332e-04  0 
 -2.440702e-04  -3.663773e-04  0 
 -3.600207e-04  -4.254674e-04  0 
 -4.305238e-04  -4.388851e-04  0 
 -4.581731e-04  -4.295584e-04  0 
 -4.502008e-04  -4.079637e-04  0 
 -4.176484e-04  -3.785137e-04  0 
 -3.715726e-04  -3.439456e-04  0 
 -3.211068e-04  -3.058809e-04  0 
 -3.666997e-04  -4.466437e-04  0 
 -5.114887e-04  -4.827210e-04  0 
 -5.882354e-04  -4.862714e-04  0 
 -6.053279e-04  -4.772372e-04  0 
 -5.798328e-04  -4.599046e-04  0 
 -5.250991e-04  -4.336362e-04  0 
 -4.522884e-04  -4.018593e-04  0 
 -3.701890e-04  -3.686424e-04  0 
 -5.720091e-04  -5.329233e-04  0 
 -7.305164e-04  -5.385483e-04  0 
 -7.869282e-04  -5.386968e-04  0 
 -7.754389e-04  -5.360520e-04  0 
 -7.234927e-04  -5.248863e-04  0 
 -6.425123e-04  -5.052524e-04  0 
 -5.350267e-04  -4.760253e-04  0 
 -4.152688e-04  -4.483671e-04  0 
 -8.894813e-04  -5.957435e-04  0 
 -1.023433e-03  -6.123431e-04  0 
 -1.022481e-03  -6.242725e-04  0 
 -9.693613e-04  -6.223648e-04  0 
 -8.828875e-04  -6.103051e-04  0 
 -7.657218e-04  -5.992299e-04  0 
 -6.313724e-04  -5.831729e-04  0 