# vtk DataFile Version 3.1
this is an vtk file created by FEMAC
ASCII
DATASET UNSTRUCTURED_GRID
POINTS 100 FLOAT
0.000000 4.000000 0.000000
1.000000 4.000000 0.000000
0.000000 5.000000 0.000000
1.000000 5.000000 0.000000
0.111111 4.000000 0.000000
0.222222 4.000000 0.000000
0.333333 4.000000 0.000000
0.444444 4.000000 0.000000
0.555556 4.000000 0.000000
0.666667 4.000000 0.000000
0.777778 4.000000 0.000000
0.888889 4.000000 0.000000
0.111111 5.000000 0.000000
0.222222 5.000000 0.000000
0.333333 5.000000 0.000000
0.444444 5.000000 0.000000
0.555556 5.000000 0.000000
0.666667 5.000000 0.000000
0.777778 5.000000 0.000000
0.888889 5.000000 0.000000
0.000000 4.111111 0.000000
0.000000 4.222222 0.000000
0.000000 4.333333 0.000000
0.000000 4.444444 0.000000
0.000000 4.555556 0.000000
0.000000 4.666667 0.000000
0.000000 4.777778 0.000000
0.000000 4.888889 0.000000
1.000000 4.111111 0.000000
1.000000 4.222222 0.000000
1.000000 4.333333 0.000000
1.000000 4.444444 0.000000
1.000000 4.555556 0.000000
1.000000 4.666667 0.000000
1.000000 4.777778 0.000000
1.000000 4.888889 0.000000
0.111111 4.111111 0.000000
0.111111 4.222222 0.000000
0.111111 4.333333 0.000000
0.111111 4.444444 0.000000
0.111111 4.555556 0.000000
0.111111 4.666667 0.000000
0.111111 4.777778 0.000000
0.111111 4.888889 0.000000
0.222222 4.111111 0.000000
0.222222 4.222222 0.000000
0.222222 4.333333 0.000000
0.222222 4.444444 0.000000
0.222222 4.555556 0.000000
0.222222 4.666667 0.000000
0.222222 4.777778 0.000000
0.222222 4.888889 0.000000
0.333333 4.111111 0.000000
0.333333 4.222222 0.000000
0.333333 4.333333 0.000000
0.333333 4.444444 0.000000
0.333333 4.555556 0.000000
0.333333 4.666667 0.000000
0.333333 4.777778 0.000000
0.333333 4.888889 0.000000
0.444444 4.111111 0.000000
0.444444 4.222222 0.000000
0.444444 4.333333 0.000000
0.444444 4.444444 0.000000
0.444444 4.555556 0.000000
0.444444 4.666667 0.000000
0.444444 4.777778 0.000000
0.444444 4.888889 0.000000
0.555556 4.111111 0.000000
0.555556 4.222222 0.000000
0.555556 4.333333 0.000000
0.555556 4.444444 0.000000
0.555556 4.555556 0.000000
0.555556 4.666667 0.000000
0.555556 4.777778 0.000000
0.555556 4.888889 0.000000
0.666667 4.111111 0.000000
0.666667 4.222222 0.000000
0.666667 4.333333 0.000000
0.666667 4.444444 0.000000
0.666667 4.555556 0.000000
0.666667 4.666667 0.000000
0.666667 4.777778 0.000000
0.666667 4.888889 0.000000
0.777778 4.111111 0.000000
0.777778 4.222222 0.000000
0.777778 4.333333 0.000000
0.777778 4.444444 0.000000
0.777778 4.555556 0.000000
0.777778 4.666667 0.000000
0.777778 4.777778 0.000000
0.777778 4.888889 0.000000
0.888889 4.111111 0.000000
0.888889 4.222222 0.000000
0.888889 4.333333 0.000000
0.888889 4.444444 0.000000
0.888889 4.555556 0.000000
0.888889 4.666667 0.000000
0.888889 4.777778 0.000000
0.888889 4.888889 0.000000
CELLS 81 405 
4 0  4 36 20
4 20 36 37 21
4 21 37 38 22
4 22 38 39 23
4 23 39 40 24
4 24 40 41 25
4 25 41 42 26
4 26 42 43 27
4 27 43 12  2
4 4  5 44 36
4 36 44 45 37
4 37 45 46 38
4 38 46 47 39
4 39 47 48 40
4 40 48 49 41
4 41 49 50 42
4 42 50 51 43
4 43 51 13 12
4 5  6 52 44
4 44 52 53 45
4 45 53 54 46
4 46 54 55 47
4 47 55 56 48
4 48 56 57 49
4 49 57 58 50
4 50 58 59 51
4 51 59 14 13
4 6  7 60 52
4 52 60 61 53
4 53 61 62 54
4 54 62 63 55
4 55 63 64 56
4 56 64 65 57
4 57 65 66 58
4 58 66 67 59
4 59 67 15 14
4 7  8 68 60
4 60 68 69 61
4 61 69 70 62
4 62 70 71 63
4 63 71 72 64
4 64 72 73 65
4 65 73 74 66
4 66 74 75 67
4 67 75 16 15
4 8  9 76 68
4 68 76 77 69
4 69 77 78 70
4 70 78 79 71
4 71 79 80 72
4 72 80 81 73
4 73 81 82 74
4 74 82 83 75
4 75 83 17 16
4 9 10 84 76
4 76 84 85 77
4 77 85 86 78
4 78 86 87 79
4 79 87 88 80
4 80 88 89 81
4 81 89 90 82
4 82 90 91 83
4 83 91 18 17
4 10 11 92 84
4 84 92 93 85
4 85 93 94 86
4 86 94 95 87
4 87 95 96 88
4 88 96 97 89
4 89 97 98 90
4 90 98 99 91
4 91 99 19 18
4 11  1 28 92
4 92 28 29 93
4 93 29 30 94
4 94 30 31 95
4 95 31 32 96
4 96 32 33 97
4 97 33 34 98
4 98 34 35 99
4 99 35  3 19
CELL_TYPES 81
9 9 9 9 9 9 9 9 9 9 9 9 9 9 9 9 9 9 9 9 9 9 9 9 9 9 9 9 9 9 9 9 9 9 9 9 9 9 9 9 9 9 9 9 9 9 9 9 9 9 9 9 9 9 9 9 9 9 9 9 9 9 9 9 9 9 9 9 9 9 9 9 9 9 9 9 9 9 9 9 9 
POINT_DATA 100
VECTORS displacement_ITER1 FLOAT
 -1.067559e-20  -8.534367e-21  0 
 2.268223e-04  -1.155501e-03  0 
 -6.509385e-21  -6.830630e-21  0 
 1.223016e-03  -1.360678e-03  0 
 -9.722261e-05  -6.524210e-05  0 
 -1.643684e-04  -1.492420e-04  0 
 -2.106438e-04  -2.527168e-04  0 
 -2.334497e-04  -3.724374e-04  0 
 -2.282802e-04  -5.047390e-04  0 
 -1.916355e-04  -6.455995e-04  0 
 -1.219811e-04  -7.934113e-04  0 
 -1.387257e-05  -9.526540e-04  0 
 1.775250e-04  -9.667544e-05  0 
 3.122368e-04  -1.820288e-04  0 
 4.356013e-04  -2.697282e-04  0 
 5.546701e-04  -3.661973e-04  0 
 6.714507e-04  -4.782113e-04  0 
 7.870273e-04  -6.142630e-04  0 
 9.025858e-04  -7.847860e-04  0 
 1.025503e-03  -9.857648e-04  0 
 0  0  0 
 0  0  0 
 0  0  0 
 0  0  0 
 0  0  0 
 0  0  0 
 0  0  0 
 0  0  0 
 8.289451e-05  -1.006174e-03  0 
 9.161594e-05  -9.615644e-04  0 
 1.304027e-04  -9.452779e-04  0 
 1.908130e-04  -9.577048e-04  0 
 2.792370e-04  -9.972387e-04  0 
 4.035876e-04  -1.058158e-03  0 
 5.739841e-04  -1.137941e-03  0 
 7.877990e-04  -1.231531e-03  0 
 -4.300383e-05  -4.774380e-05  0 
 -1.208568e-05  -4.553110e-05  0 
 1.211305e-05  -4.628911e-05  0 
 3.305314e-05  -4.706563e-05  0 
 5.237543e-05  -4.748713e-05  0 
 7.136917e-05  -4.842076e-05  0 
 9.193255e-05  -5.183299e-05  0 
 1.186303e-04  -6.228187e-05  0 
 -8.323996e-05  -1.332834e-04  0 
 -2.180230e-05  -1.255696e-04  0 
 2.572658e-05  -1.234127e-04  0 
 6.646663e-05  -1.221395e-04  0 
 1.045066e-04  -1.209312e-04  0 
 1.431835e-04  -1.217091e-04  0 
 1.865222e-04  -1.288324e-04  0 
 2.421961e-04  -1.495890e-04  0 
 -1.084876e-04  -2.408212e-04  0 
 -2.628020e-05  -2.334420e-04  0 
 4.072736e-05  -2.280615e-04  0 
 9.866296e-05  -2.229301e-04  0 
 1.538982e-04  -2.180570e-04  0 
 2.119401e-04  -2.164751e-04  0 
 2.777141e-04  -2.232002e-04  0 
 3.531673e-04  -2.412459e-04  0 
 -1.160139e-04  -3.667468e-04  0 
 -2.075584e-05  -3.615600e-04  0 
 5.811966e-05  -3.544484e-04  0 
 1.279012e-04  -3.448572e-04  0 
 1.968526e-04  -3.346935e-04  0 
 2.721985e-04  -3.281438e-04  0 
 3.578188e-04  -3.296538e-04  0 
 4.533126e-04  -3.420068e-04  0 
 -1.031965e-04  -5.064902e-04  0 
 -3.281939e-06  -5.038774e-04  0 
 7.842501e-05  -4.949296e-04  0 
 1.520400e-04  -4.807153e-04  0 
 2.293828e-04  -4.652487e-04  0 
 3.193376e-04  -4.534479e-04  0 
 4.247150e-04  -4.496360e-04  0 
 5.437608e-04  -4.571114e-04  0 
 -6.779070e-05  -6.548589e-04  0 
 2.636322e-05  -6.528674e-04  0 
 9.959991e-05  -6.392617e-04  0 
 1.685959e-04  -6.202146e-04  0 
 2.495056e-04  -6.037245e-04  0 
 3.514037e-04  -5.916325e-04  0 
 4.779077e-04  -5.861495e-04  0 
 6.251291e-04  -5.926414e-04  0 
 -8.213211e-06  -8.068701e-04  0 
 6.360081e-05  -7.973287e-04  0 
 1.149720e-04  -7.707195e-04  0 
 1.774850e-04  -7.521502e-04  0 
 2.598609e-04  -7.434613e-04  0 
 3.698274e-04  -7.425698e-04  0 
 5.160817e-04  -7.450070e-04  0 
 6.990844e-04  -7.543465e-04  0 
 7.272897e-05  -9.605400e-04  0 
 8.395163e-05  -9.039263e-04  0 
 1.234773e-04  -8.748634e-04  0 
 1.826982e-04  -8.672635e-04  0 
 2.669549e-04  -8.770920e-04  0 
 3.836401e-04  -9.008902e-04  0 
 5.402727e-04  -9.335868e-04  0 
 7.581408e-04  -9.584466e-04  0 
VECTORS displacement_ITER2 FLOAT
 -1.127163e-20  -8.404716e-21  0 
 3.395316e-04  -1.131045e-03  0 
 -6.635606e-21  -7.571085e-21  0 
 1.334735e-03  -1.401359e-03  0 
 -8.773773e-05  -6.115402e-05  0 
 -1.453894e-04  -1.394984e-04  0 
 -1.828333e-04  -2.380394e-04  0 
 -2.002078e-04  -3.548117e-04  0 
 -1.941834e-04  -4.857492e-04  0 
 -1.590194e-04  -6.253957e-04  0 
 -8.619772e-05  -7.706843e-04  0 
 4.485497e-05  -9.291719e-04  0 
 1.887353e-04  -1.011842e-04  0 
 3.283165e-04  -1.902003e-04  0 
 4.480973e-04  -2.801758e-04  0 
 5.580652e-04  -3.750393e-04  0 
 6.662647e-04  -4.793773e-04  0 
 7.809356e-04  -6.019387e-04  0 
 9.101496e-04  -7.598053e-04  0 
 1.077006e-03  -9.682582e-04  0 
 0  0  0 
 0  0  0 
 0  0  0 
 0  0  0 
 0  0  0 
 0  0  0 
 0  0  0 
 0  0  0 
 1.326557e-04  -9.577581e-04  0 
 1.110307e-04  -9.160552e-04  0 
 1.381984e-04  -9.079878e-04  0 
 1.978305e-04  -9.289569e-04  0 
 2.858595e-04  -9.731289e-04  0 
 4.084440e-04  -1.036965e-03  0 
 5.748588e-04  -1.126798e-03  0 
 8.143426e-04  -1.245940e-03  0 
 -3.678539e-05  -4.582414e-05  0 
 -7.510751e-06  -4.451694e-05  0 
 1.558679e-05  -4.575367e-05  0 
 3.569443e-05  -4.693385e-05  0 
 5.433351e-05  -4.779970e-05  0 
 7.288509e-05  -4.916248e-05  0 
 9.372484e-05  -5.285037e-05  0 
 1.225502e-04  -6.365276e-05  0 
 -7.007417e-05  -1.276482e-04  0 
 -1.227672e-05  -1.220699e-04  0 
 3.297832e-05  -1.211181e-04  0 
 7.214251e-05  -1.207913e-04  0 
 1.089116e-04  -1.206350e-04  0 
 1.466243e-04  -1.227923e-04  0 
 1.900423e-04  -1.317378e-04  0 
 2.489223e-04  -1.549454e-04  0 
 -8.875138e-05  -2.309222e-04  0 
 -1.178709e-05  -2.265377e-04  0 
 5.190654e-05  -2.231441e-04  0 
 1.076423e-04  -2.194454e-04  0 
 1.612199e-04  -2.160093e-04  0 
 2.179615e-04  -2.165854e-04  0 
 2.832049e-04  -2.267231e-04  0 
 3.601187e-04  -2.489797e-04  0 
 -9.117055e-05  -3.528917e-04  0 
 -1.766526e-06  -3.511815e-04  0 
 7.305358e-05  -3.466646e-04  0 
 1.399417e-04  -3.386414e-04  0 
 2.069339e-04  -3.296325e-04  0 
 2.810008e-04  -3.250398e-04  0 
 3.654145e-04  -3.302699e-04  0 
 4.591190e-04  -3.476586e-04  0 
 -7.504294e-05  -4.897874e-04  0 
 1.964809e-05  -4.908542e-04  0 
 9.650502e-05  -4.845554e-04  0 
 1.659854e-04  -4.713701e-04  0 
 2.408646e-04  -4.561259e-04  0 
 3.300430e-04  -4.449415e-04  0 
 4.344923e-04  -4.433120e-04  0 
 5.493631e-04  -4.548013e-04  0 
 -3.654406e-05  -6.370146e-04  0 
 5.297338e-05  -6.386077e-04  0 
 1.193555e-04  -6.261702e-04  0 
 1.823340e-04  -6.068825e-04  0 
 2.601068e-04  -5.901221e-04  0 
 3.618558e-04  -5.773445e-04  0 
 4.893445e-04  -5.708847e-04  0 
 6.334842e-04  -5.780194e-04  0 
 2.979444e-05  -7.901451e-04  0 
 9.275303e-05  -7.817563e-04  0 
 1.331337e-04  -7.525913e-04  0 
 1.889123e-04  -7.332591e-04  0 
 2.680612e-04  -7.255757e-04  0 
 3.774628e-04  -7.249588e-04  0 
 5.266736e-04  -7.240903e-04  0 
 7.140021e-04  -7.286185e-04  0 
 1.222243e-04  -9.435354e-04  0 
 1.097545e-04  -8.792949e-04  0 
 1.366115e-04  -8.478870e-04  0 
 1.910660e-04  -8.419997e-04  0 
 2.737289e-04  -8.553412e-04  0 
 3.882808e-04  -8.827636e-04  0 
 5.459229e-04  -9.161862e-04  0 
 7.796088e-04  -9.365028e-04  0 
VECTORS displacement_ITER3 FLOAT
 -1.138598e-20  -7.845196e-21  0 
 4.052163e-04  -1.101023e-03  0 
 -6.774619e-21  -7.680515e-21  0 
 1.409937e-03  -1.434255e-03  0 
 -9.039681e-05  -6.152823e-05  0 
 -1.481032e-04  -1.399600e-04  0 
 -1.832730e-04  -2.389387e-04  0 
 -1.967594e-04  -3.560190e-04  0 
 -1.862185e-04  -4.870750e-04  0 
 -1.468463e-04  -6.263784e-04  0 
 -6.962198e-05  -7.690758e-04  0 
 7.521464e-05  -9.184045e-04  0 
 1.922936e-04  -1.001469e-04  0 
 3.325172e-04  -1.890388e-04  0 
 4.508921e-04  -2.805524e-04  0 
 5.586121e-04  -3.766483e-04  0 
 6.655804e-04  -4.799210e-04  0 
 7.829316e-04  -5.978131e-04  0 
 9.221410e-04  -7.487720e-04  0 
 1.114033e-03  -9.647145e-04  0 
 0  0  0 
 0  0  0 
 0  0  0 
 0  0  0 
 0  0  0 
 0  0  0 
 0  0  0 
 0  0  0 
 1.471692e-04  -9.276069e-04  0 
 1.133352e-04  -8.954252e-04  0 
 1.362726e-04  -8.971754e-04  0 
 1.954158e-04  -9.229726e-04  0 
 2.837414e-04  -9.703951e-04  0 
 4.052355e-04  -1.038463e-03  0 
 5.719309e-04  -1.133847e-03  0 
 8.306427e-04  -1.267459e-03  0 
 -3.711431e-05  -4.562270e-05  0 
 -6.996127e-06  -4.447895e-05  0 
 1.643173e-05  -4.584426e-05  0 
 3.659647e-05  -4.705478e-05  0 
 5.513370e-05  -4.789563e-05  0 
 7.354723e-05  -4.916928e-05  0 
 9.444056e-05  -5.260235e-05  0 
 1.239203e-04  -6.289407e-05  0 
 -7.011069e-05  -1.283354e-04  0 
 -1.099131e-05  -1.226879e-04  0 
 3.471840e-05  -1.215733e-04  0 
 7.391873e-05  -1.209900e-04  0 
 1.104777e-04  -1.206149e-04  0 
 1.478590e-04  -1.226971e-04  0 
 1.911179e-04  -1.316569e-04  0 
 2.507010e-04  -1.547244e-04  0 
 -8.736318e-05  -2.325528e-04  0 
 -9.548656e-06  -2.280384e-04  0 
 5.438209e-05  -2.240565e-04  0 
 1.100569e-04  -2.195958e-04  0 
 1.634418e-04  -2.155230e-04  0 
 2.198645e-04  -2.159322e-04  0 
 2.847296e-04  -2.265181e-04  0 
 3.616007e-04  -2.494383e-04  0 
 -8.752409e-05  -3.551521e-04  0 
 1.601466e-06  -3.532817e-04  0 
 7.594707e-05  -3.478670e-04  0 
 1.424764e-04  -3.385501e-04  0 
 2.094244e-04  -3.282932e-04  0 
 2.836253e-04  -3.231033e-04  0 
 3.678555e-04  -3.288871e-04  0 
 4.607094e-04  -3.478653e-04  0 
 -6.871342e-05  -4.920415e-04  0 
 2.417260e-05  -4.929262e-04  0 
 9.937797e-05  -4.855736e-04  0 
 1.678213e-04  -4.707582e-04  0 
 2.427903e-04  -4.537659e-04  0 
 3.330439e-04  -4.412618e-04  0 
 4.384516e-04  -4.394833e-04  0 
 5.525025e-04  -4.526502e-04  0 
 -2.742219e-05  -6.383191e-04  0 
 5.853439e-05  -6.397122e-04  0 
 1.215535e-04  -6.260206e-04  0 
 1.825645e-04  -6.052183e-04  0 
 2.604152e-04  -5.870793e-04  0 
 3.641909e-04  -5.725606e-04  0 
 4.947113e-04  -5.643464e-04  0 
 6.402054e-04  -5.713309e-04  0 
 4.246432e-05  -7.892339e-04  0 
 9.860590e-05  -7.801532e-04  0 
 1.335811e-04  -7.493450e-04  0 
 1.872726e-04  -7.298711e-04  0 
 2.663539e-04  -7.225494e-04  0 
 3.775994e-04  -7.212323e-04  0 
 5.316971e-04  -7.173169e-04  0 
 7.255073e-04  -7.183140e-04  0 
 1.396691e-04  -9.369578e-04  0 
 1.130723e-04  -8.700530e-04  0 
 1.350742e-04  -8.400329e-04  0 
 1.885076e-04  -8.367493e-04  0 
 2.709536e-04  -8.527059e-04  0 
 3.858996e-04  -8.821045e-04  0 
 5.472480e-04  -9.152944e-04  0 
 7.950211e-04  -9.312331e-04  0 
VECTORS displacement_ITER4 FLOAT
 -1.130442e-20  -7.452780e-21  0 
 4.390215e-04  -1.070992e-03  0 
 -6.672587e-21  -7.739272e-21  0 
 1.441660e-03  -1.441074e-03  0 
 -8.821035e-05  -6.014409e-05  0 
 -1.443712e-04  -1.383624e-04  0 
 -1.789606e-04  -2.366873e-04  0 
 -1.917459e-04  -3.516231e-04  0 
 -1.795350e-04  -4.796274e-04  0 
 -1.375889e-04  -6.166129e-04  0 
 -5.794609e-05  -7.586309e-04  0 
 9.179585e-05  -9.022346e-04  0 
 1.888526e-04  -9.730817e-05  0 
 3.269623e-04  -1.847291e-04  0 
 4.457075e-04  -2.751468e-04  0 
 5.549436e-04  -3.699819e-04  0 
 6.630189e-04  -4.720289e-04  0 
 7.812206e-04  -5.883390e-04  0 
 9.240040e-04  -7.353872e-04  0 
 1.125195e-03  -9.538292e-04  0 
 0  0  0 
 0  0  0 
 0  0  0 
 0  0  0 
 0  0  0 
 0  0  0 
 0  0  0 
 0  0  0 
 1.541544e-04  -9.021590e-04  0 
 1.170744e-04  -8.761191e-04  0 
 1.413513e-04  -8.843550e-04  0 
 1.995047e-04  -9.117767e-04  0 
 2.855294e-04  -9.586463e-04  0 
 4.036080e-04  -1.027210e-03  0 
 5.701970e-04  -1.124769e-03  0 
 8.319061e-04  -1.267916e-03  0 
 -3.568122e-05  -4.489497e-05  0 
 -5.968577e-06  -4.376353e-05  0 
 1.718687e-05  -4.503495e-05  0 
 3.713069e-05  -4.615613e-05  0 
 5.543050e-05  -4.693013e-05  0 
 7.353082e-05  -4.815686e-05  0 
 9.393846e-05  -5.153184e-05  0 
 1.225359e-04  -6.156160e-05  0 
 -6.741041e-05  -1.265958e-04  0 
 -9.081619e-06  -1.208855e-04  0 
 3.611759e-05  -1.196405e-04  0 
 7.490487e-05  -1.188812e-04  0 
 1.110201e-04  -1.183094e-04  0 
 1.478123e-04  -1.201785e-04  0 
 1.901573e-04  -1.288359e-04  0 
 2.480738e-04  -1.513157e-04  0 
 -8.392383e-05  -2.296150e-04  0 
 -6.928801e-06  -2.249268e-04  0 
 5.631014e-05  -2.207942e-04  0 
 1.113773e-04  -2.160458e-04  0 
 1.641467e-04  -2.115900e-04  0 
 2.197908e-04  -2.115872e-04  0 
 2.835072e-04  -2.217043e-04  0 
 3.586937e-04  -2.441020e-04  0 
 -8.341035e-05  -3.506533e-04  0 
 4.851651e-06  -3.487652e-04  0 
 7.827034e-05  -3.431695e-04  0 
 1.439491e-04  -3.334345e-04  0 
 2.101764e-04  -3.226035e-04  0 
 2.836303e-04  -3.168353e-04  0 
 3.668139e-04  -3.221997e-04  0 
 4.583129e-04  -3.409894e-04  0 
 -6.338523e-05  -4.856783e-04  0 
 2.813590e-05  -4.868478e-04  0 
 1.019421e-04  -4.792891e-04  0 
 1.692206e-04  -4.640258e-04  0 
 2.434310e-04  -4.464281e-04  0 
 3.332279e-04  -4.332436e-04  0 
 4.380948e-04  -4.309916e-04  0 
 5.511078e-04  -4.443214e-04  0 
 -2.037211e-05  -6.300376e-04  0 
 6.319679e-05  -6.316875e-04  0 
 1.241813e-04  -6.177943e-04  0 
 1.837751e-04  -5.967971e-04  0 
 2.608450e-04  -5.784851e-04  0 
 3.643995e-04  -5.633549e-04  0 
 4.951115e-04  -5.542207e-04  0 
 6.405051e-04  -5.608597e-04  0 
 5.100071e-05  -7.786576e-04  0 
 1.035396e-04  -7.695030e-04  0 
 1.360510e-04  -7.385764e-04  0 
 1.886302e-04  -7.198064e-04  0 
 2.668597e-04  -7.131648e-04  0 
 3.773434e-04  -7.117711e-04  0 
 5.319975e-04  -7.064402e-04  0 
 7.275740e-04  -7.057675e-04  0 
 1.494027e-04  -9.226614e-04  0 
 1.169348e-04  -8.551226e-04  0 
 1.378284e-04  -8.268271e-04  0 
 1.910380e-04  -8.256145e-04  0 
 2.720156e-04  -8.426860e-04  0 
 3.851574e-04  -8.724082e-04  0 
 5.456668e-04  -9.059211e-04  0 
 7.982104e-04  -9.198162e-04  0 
VECTORS displacement_ITER5 FLOAT
 -1.103601e-20  -7.031926e-21  0 
 4.621851e-04  -1.043175e-03  0 
 -6.494635e-21  -7.598953e-21  0 
 1.455211e-03  -1.437446e-03  0 
 -8.532974e-05  -5.850289e-05  0 
 -1.395770e-04  -1.358517e-04  0 
 -1.729899e-04  -2.331931e-04  0 
 -1.848447e-04  -3.467546e-04  0 
 -1.716768e-04  -4.727793e-04  0 
 -1.283571e-04  -6.074340e-04  0 
 -4.665702e-05  -7.479739e-04  0 
 1.056473e-04  -8.871525e-04  0 
 1.855770e-04  -9.593011e-05  0 
 3.222533e-04  -1.820952e-04  0 
 4.412114e-04  -2.704043e-04  0 
 5.512894e-04  -3.632205e-04  0 
 6.597903e-04  -4.640699e-04  0 
 7.776968e-04  -5.796012e-04  0 
 9.219625e-04  -7.241244e-04  0 
 1.127634e-03  -9.416383e-04  0 
 0  0  0 
 0  0  0 
 0  0  0 
 0  0  0 
 0  0  0 
 0  0  0 
 0  0  0 
 0  0  0 
 1.609508e-04  -8.799161e-04  0 
 1.209497e-04  -8.598505e-04  0 
 1.438775e-04  -8.713752e-04  0 
 2.013908e-04  -8.982924e-04  0 
 2.865377e-04  -9.446268e-04  0 
 4.031327e-04  -1.013604e-03  0 
 5.680729e-04  -1.113782e-03  0 
 8.287320e-04  -1.261759e-03  0 
 -3.401513e-05  -4.407287e-05  0 
 -4.839379e-06  -4.308513e-05  0 
 1.795614e-05  -4.434201e-05  0 
 3.761187e-05  -4.540733e-05  0 
 5.564197e-05  -4.612307e-05  0 
 7.344039e-05  -4.731638e-05  0 
 9.341210e-05  -5.071350e-05  0 
 1.211977e-04  -6.077743e-05  0 
 -6.410865e-05  -1.245094e-04  0 
 -6.870752e-06  -1.190695e-04  0 
 3.758750e-05  -1.178551e-04  0 
 7.579387e-05  -1.170103e-04  0 
 1.113823e-04  -1.163016e-04  0 
 1.476133e-04  -1.180084e-04  0 
 1.892088e-04  -1.264706e-04  0 
 2.457878e-04  -1.486955e-04  0 
 -7.945696e-05  -2.262268e-04  0 
 -3.787168e-06  -2.216976e-04  0 
 5.838140e-05  -2.176076e-04  0 
 1.125762e-04  -2.127403e-04  0 
 1.645717e-04  -2.080588e-04  0 
 2.194256e-04  -2.077656e-04  0 
 2.821925e-04  -2.174984e-04  0 
 3.561138e-04  -2.394631e-04  0 
 -7.810434e-05  -3.457914e-04  0 
 8.697099e-06  -3.439905e-04  0 
 8.078667e-05  -3.383821e-04  0 
 1.453139e-04  -3.284681e-04  0 
 2.105712e-04  -3.173372e-04  0 
 2.831145e-04  -3.112170e-04  0 
 3.652837e-04  -3.162223e-04  0 
 4.556835e-04  -3.345926e-04  0 
 -5.729751e-05  -4.791147e-04  0 
 3.252546e-05  -4.803911e-04  0 
 1.046934e-04  -4.727151e-04  0 
 1.705781e-04  -4.572485e-04  0 
 2.437044e-04  -4.393761e-04  0 
 3.326341e-04  -4.258448e-04  0 
 4.366183e-04  -4.233022e-04  0 
 5.485589e-04  -4.365644e-04  0 
 -1.335147e-05  -6.216698e-04  0 
 6.788895e-05  -6.232654e-04  0 
 1.269333e-04  -6.091561e-04  0 
 1.850385e-04  -5.880896e-04  0 
 2.609640e-04  -5.697816e-04  0 
 3.636961e-04  -5.544105e-04  0 
 4.938627e-04  -5.448674e-04  0 
 6.385676e-04  -5.514737e-04  0 
 5.865976e-05  -7.680000e-04  0 
 1.080541e-04  -7.586291e-04  0 
 1.385847e-04  -7.275813e-04  0 
 1.899793e-04  -7.091565e-04  0 
 2.670258e-04  -7.029478e-04  0 
 3.763343e-04  -7.017329e-04  0 
 5.306283e-04  -6.958553e-04  0 
 7.265276e-04  -6.944614e-04  0 
 1.572500e-04  -9.083408e-04  0 
 1.205252e-04  -8.411030e-04  0 
 1.402821e-04  -8.138468e-04  0 
 1.928139e-04  -8.133194e-04  0 
 2.725820e-04  -8.307925e-04  0 
 3.840982e-04  -8.611862e-04  0 
 5.432215e-04  -8.954203e-04  0 
 7.975187e-04  -9.080900e-04  0 
VECTORS displacement_ITER6 FLOAT
 -1.067060e-20  -6.625636e-21  0 
 4.801897e-04  -1.014310e-03  0 
 -6.386877e-21  -7.362557e-21  0 
 1.459364e-03  -1.430876e-03  0 
 -8.316916e-05  -5.727563e-05  0 
 -1.360356e-04  -1.333870e-04  0 
 -1.680046e-04  -2.294398e-04  0 
 -1.784085e-04  -3.420886e-04  0 
 -1.641270e-04  -4.670301e-04  0 
 -1.198637e-04  -5.995097e-04  0 
 -3.621548e-05  -7.371661e-04  0 
 1.182171e-04  -8.722101e-04  0 
 1.839410e-04  -9.554308e-05  0 
 3.199802e-04  -1.805138e-04  0 
 4.383760e-04  -2.669156e-04  0 
 5.480424e-04  -3.583035e-04  0 
 6.561696e-04  -4.583394e-04  0 
 7.732384e-04  -5.730368e-04  0 
 9.177586e-04  -7.158017e-04  0 
 1.125734e-03  -9.308746e-04  0 
 0  0  0 
 0  0  0 
 0  0  0 
 0  0  0 
 0  0  0 
 0  0  0 
 0  0  0 
 0  0  0 
 1.675709e-04  -8.590208e-04  0 
 1.251619e-04  -8.446393e-04  0 
 1.459318e-04  -8.574180e-04  0 
 2.025428e-04  -8.850215e-04  0 
 2.864491e-04  -9.318803e-04  0 
 4.013915e-04  -1.001858e-03  0 
 5.645221e-04  -1.103594e-03  0 
 8.250314e-04  -1.253451e-03  0 
 -3.280005e-05  -4.331800e-05  0 
 -4.008922e-06  -4.250167e-05  0 
 1.849876e-05  -4.381660e-05  0 
 3.789747e-05  -4.487538e-05  0 
 5.569119e-05  -4.555382e-05  0 
 7.326678e-05  -4.670781e-05  0 
 9.299712e-05  -5.009964e-05  0 
 1.204204e-04  -6.024278e-05  0 
 -6.156925e-05  -1.226115e-04  0 
 -5.140984e-06  -1.175590e-04  0 
 3.867196e-05  -1.164704e-04  0 
 7.632471e-05  -1.156171e-04  0 
 1.114272e-04  -1.148432e-04  0 
 1.472215e-04  -1.164641e-04  0 
 1.883881e-04  -1.248328e-04  0 
 2.444087e-04  -1.469771e-04  0 
 -7.568227e-05  -2.231889e-04  0 
 -1.185144e-06  -2.190134e-04  0 
 5.995376e-05  -2.150504e-04  0 
 1.132875e-04  -2.101666e-04  0 
 1.645522e-04  -2.054058e-04  0 
 2.187588e-04  -2.050108e-04  0 
 2.809120e-04  -2.145952e-04  0 
 3.541931e-04  -2.363299e-04  0 
 -7.325599e-05  -3.415099e-04  0 
 1.199065e-05  -3.399080e-04  0 
 8.271591e-05  -3.343693e-04  0 
 1.461011e-04  -3.244244e-04  0 
 2.104295e-04  -3.132209e-04  0 
 2.821664e-04  -3.070297e-04  0 
 3.635464e-04  -3.119477e-04  0 
 4.531605e-04  -3.300861e-04  0 
 -5.168475e-05  -4.732988e-04  0 
 3.628950e-05  -4.746347e-04  0 
 1.067871e-04  -4.669616e-04  0 
 1.713112e-04  -4.514936e-04  0 
 2.433883e-04  -4.336209e-04  0 
 3.314575e-04  -4.200737e-04  0 
 4.345781e-04  -4.175515e-04  0 
 5.455581e-04  -4.308921e-04  0 
 -7.103758e-06  -6.139190e-04  0 
 7.184946e-05  -6.154441e-04  0 
 1.289926e-04  -6.013262e-04  0 
 1.856542e-04  -5.804477e-04  0 
 2.604516e-04  -5.623601e-04  0 
 3.623043e-04  -5.470592e-04  0 
 4.917368e-04  -5.375228e-04  0 
 6.355200e-04  -5.444119e-04  0 
 6.537725e-05  -7.575706e-04  0 
 1.118420e-04  -7.481317e-04  0 
 1.405469e-04  -7.173969e-04  0 
 1.906090e-04  -6.995642e-04  0 
 2.663998e-04  -6.938956e-04  0 
 3.746371e-04  -6.930105e-04  0 
 5.283197e-04  -6.870428e-04  0 
 7.238438e-04  -6.855066e-04  0 
 1.638275e-04  -8.936506e-04  0 
 1.239979e-04  -8.274737e-04  0 
 1.424123e-04  -8.015313e-04  0 
 1.936557e-04  -8.017723e-04  0 
 2.721014e-04  -8.200376e-04  0 
 3.821574e-04  -8.511894e-04  0 
 5.402019e-04  -8.858320e-04  0 
 7.949249e-04  -8.978884e-04  0 
VECTORS displacement_ITER7 FLOAT
 -1.023877e-20  -6.201414e-21  0 
 4.948631e-04  -9.947028e-04  0 
 -6.201704e-21  -7.089708e-21  0 
 1.462379e-03  -1.426096e-03  0 
 -8.216733e-05  -5.680111e-05  0 
 -1.344883e-04  -1.322186e-04  0 
 -1.656655e-04  -2.275194e-04  0 
 -1.750329e-04  -3.396701e-04  0 
 -1.595692e-04  -4.642070e-04  0 
 -1.141331e-04  -5.957411e-04  0 
 -2.851845e-05  -7.312614e-04  0 
 1.287455e-04  -8.632208e-04  0 
 1.830601e-04  -9.530736e-05  0 
 3.183189e-04  -1.794084e-04  0 
 4.358165e-04  -2.648821e-04  0 
 5.450358e-04  -3.555475e-04  0 
 6.531984e-04  -4.548124e-04  0 
 7.702261e-04  -5.684131e-04  0 
 9.150198e-04  -7.102000e-04  0 
 1.124791e-03  -9.237046e-04  0 
 0  0  0 
 0  0  0 
 0  0  0 
 0  0  0 
 0  0  0 
 0  0  0 
 0  0  0 
 0  0  0 
 1.730028e-04  -8.450019e-04  0 
 1.284403e-04  -8.344886e-04  0 
 1.481362e-04  -8.479214e-04  0 
 2.039432e-04  -8.769374e-04  0 
 2.865606e-04  -9.244550e-04  0 
 4.002101e-04  -9.949014e-04  0 
 5.624063e-04  -1.097151e-03  0 
 8.233334e-04  -1.247965e-03  0 
 -3.219194e-05  -4.292760e-05  0 
 -3.535913e-06  -4.218696e-05  0 
 1.885230e-05  -4.355451e-05  0 
 3.811344e-05  -4.463458e-05  0 
 5.574983e-05  -4.531310e-05  0 
 7.315119e-05  -4.645941e-05  0 
 9.268958e-05  -4.984178e-05  0 
 1.198933e-04  -5.997347e-05  0 
 -6.028520e-05  -1.216508e-04  0 
 -4.123832e-06  -1.167957e-04  0 
 3.941016e-05  -1.157889e-04  0 
 7.675676e-05  -1.149378e-04  0 
 1.115336e-04  -1.141295e-04  0 
 1.469818e-04  -1.157090e-04  0 
 1.877664e-04  -1.240348e-04  0 
 2.433324e-04  -1.460984e-04  0 
 -7.364548e-05  -2.216787e-04  0 
 4.224386e-07  -2.177073e-04  0 
 6.106444e-05  -2.137882e-04  0 
 1.138971e-04  -2.088461e-04  0 
 1.646712e-04  -2.039899e-04  0 
 2.183806e-04  -2.035051e-04  0 
 2.799837e-04  -2.130052e-04  0 
 3.525815e-04  -2.346127e-04  0 
 -7.037436e-05  -3.394368e-04  0 
 1.415384e-05  -3.379368e-04  0 
 8.412341e-05  -3.323442e-04  0 
 1.468027e-04  -3.222581e-04  0 
 2.105050e-04  -3.108945e-04  0 
 2.816468e-04  -3.045722e-04  0 
 3.623698e-04  -3.093861e-04  0 
 4.511737e-04  -3.274114e-04  0 
 -4.800224e-05  -4.705039e-04  0 
 3.891145e-05  -4.717767e-04  0 
 1.083571e-04  -4.639405e-04  0 
 1.719853e-04  -4.482826e-04  0 
 2.433568e-04  -4.302387e-04  0 
 3.308189e-04  -4.165434e-04  0 
 4.332755e-04  -4.139275e-04  0 
 5.434507e-04  -4.272478e-04  0 
 -2.667058e-06  -6.100234e-04  0 
 7.476861e-05  -6.113296e-04  0 
 1.305640e-04  -5.969872e-04  0 
 1.862217e-04  -5.760224e-04  0 
 2.602760e-04  -5.578918e-04  0 
 3.615534e-04  -5.424723e-04  0 
 4.904558e-04  -5.327967e-04  0 
 6.335125e-04  -5.397267e-04  0 
 7.054367e-05  -7.518854e-04  0 
 1.147851e-04  -7.421133e-04  0 
 1.420665e-04  -7.113993e-04  0 
 1.911500e-04  -6.938440e-04  0 
 2.661300e-04  -6.884011e-04  0 
 3.737221e-04  -6.875592e-04  0 
 5.270084e-04  -6.813404e-04  0 
 7.222161e-04  -6.795604e-04  0 
 1.691599e-04  -8.846531e-04  0 
 1.268609e-04  -8.188838e-04  0 
 1.441613e-04  -7.938288e-04  0 
 1.943927e-04  -7.947400e-04  0 
 2.719363e-04  -8.136062e-04  0 
 3.810679e-04  -8.450453e-04  0 
 5.385082e-04  -8.796480e-04  0 
 7.935678e-04  -8.911237e-04  0 
VECTORS displacement_ITER8 FLOAT
 -9.780645e-21  -5.764861e-21  0 
 5.057906e-04  -9.766922e-04  0 
 -5.949889e-21  -6.797062e-21  0 
 1.463735e-03  -1.421148e-03  0 
 -8.086697e-05  -5.630001e-05  0 
 -1.322838e-04  -1.310887e-04  0 
 -1.627997e-04  -2.256696e-04  0 
 -1.716350e-04  -3.368971e-04  0 
 -1.554059e-04  -4.604891e-04  0 
 -1.090111e-04  -5.912178e-04  0 
 -2.210872e-05  -7.251253e-04  0 
 1.375281e-04  -8.542687e-04  0 
 1.820719e-04  -9.465491e-05  0 
 3.163685e-04  -1.779723e-04  0 
 4.331439e-04  -2.628264e-04  0 
 5.420909e-04  -3.526595e-04  0 
 6.503735e-04  -4.508911e-04  0 
 7.677710e-04  -5.633898e-04  0 
 9.128581e-04  -7.046709e-04  0 
 1.123933e-03  -9.175646e-04  0 
 0  0  0 
 0  0  0 
 0  0  0 
 0  0  0 
 0  0  0 
 0  0  0 
 0  0  0 
 0  0  0 
 1.775035e-04  -8.318763e-04  0 
 1.305692e-04  -8.242531e-04  0 
 1.493262e-04  -8.389661e-04  0 
 2.041498e-04  -8.691721e-04  0 
 2.860143e-04  -9.173982e-04  0 
 3.993549e-04  -9.881843e-04  0 
 5.612323e-04  -1.091030e-03  0 
 8.217321e-04  -1.242925e-03  0 
 -3.143167e-05  -4.260305e-05  0 
 -3.033313e-06  -4.188579e-05  0 
 1.917214e-05  -4.324473e-05  0 
 3.827584e-05  -4.430812e-05  0 
 5.575507e-05  -4.496952e-05  0 
 7.298469e-05  -4.610399e-05  0 
 9.232364e-05  -4.947181e-05  0 
 1.192866e-04  -5.954097e-05  0 
 -5.879481e-05  -1.206882e-04  0 
 -3.136293e-06  -1.159353e-04  0 
 4.003104e-05  -1.149500e-04  0 
 7.705861e-05  -1.140697e-04  0 
 1.115268e-04  -1.132107e-04  0 
 1.466468e-04  -1.147419e-04  0 
 1.870394e-04  -1.230210e-04  0 
 2.420828e-04  -1.449808e-04  0 
 -7.155589e-05  -2.199552e-04  0 
 1.871721e-06  -2.161205e-04  0 
 6.195661e-05  -2.122385e-04  0 
 1.142956e-04  -2.072409e-04  0 
 1.646173e-04  -2.022877e-04  0 
 2.178754e-04  -2.017044e-04  0 
 2.789524e-04  -2.111195e-04  0 
 3.508476e-04  -2.326455e-04  0 
 -6.772847e-05  -3.368949e-04  0 
 1.600927e-05  -3.355299e-04  0 
 8.521432e-05  -3.299317e-04  0 
 1.472208e-04  -3.197449e-04  0 
 2.103530e-04  -3.082448e-04  0 
 2.809749e-04  -3.017915e-04  0 
 3.611359e-04  -3.064955e-04  0 
 4.492213e-04  -3.244676e-04  0 
 -4.477089e-05  -4.670957e-04  0 
 4.107728e-05  -4.684204e-04  0 
 1.095180e-04  -4.604999e-04  0 
 1.723180e-04  -4.447139e-04  0 
 2.430560e-04  -4.265478e-04  0 
 3.299992e-04  -4.127347e-04  0 
 4.319338e-04  -4.100178e-04  0 
 5.414954e-04  -4.232643e-04  0 
 1.115626e-06  -6.055447e-04  0 
 7.708086e-05  -6.067723e-04  0 
 1.316258e-04  -5.922931e-04  0 
 1.863937e-04  -5.712900e-04  0 
 2.598095e-04  -5.531635e-04  0 
 3.606074e-04  -5.377025e-04  0 
 4.890978e-04  -5.279409e-04  0 
 6.316466e-04  -5.348249e-04  0 
 7.477929e-05  -7.458498e-04  0 
 1.169591e-04  -7.358513e-04  0 
 1.429410e-04  -7.052424e-04  0 
 1.911887e-04  -6.879350e-04  0 
 2.655605e-04  -6.827171e-04  0 
 3.726678e-04  -6.820161e-04  0 
 5.256511e-04  -6.757485e-04  0 
 7.206524e-04  -6.738650e-04  0 
 1.732975e-04  -8.756228e-04  0 
 1.288536e-04  -8.104390e-04  0 
 1.450098e-04  -7.862007e-04  0 
 1.944182e-04  -7.877848e-04  0 
 2.713805e-04  -8.071038e-04  0 
 3.800356e-04  -8.388834e-04  0 
 5.370521e-04  -8.737722e-04  0 
 7.922871e-04  -8.850534e-04  0 
VECTORS displacement_ITER9 FLOAT
 -9.284000e-21  -5.375109e-21  0 
 5.150069e-04  -9.606517e-04  0 
 -5.703340e-21  -6.470143e-21  0 
 1.464118e-03  -1.417148e-03  0 
 -7.947478e-05  -5.570658e-05  0 
 -1.297851e-04  -1.298696e-04  0 
 -1.596020e-04  -2.238114e-04  0 
 -1.680560e-04  -3.341427e-04  0 
 -1.513672e-04  -4.567159e-04  0 
 -1.041759e-04  -5.867011e-04  0 
 -1.626389e-05  -7.195587e-04  0 
 1.455171e-04  -8.463304e-04  0 
 1.814868e-04  -9.411518e-05  0 
 3.152321e-04  -1.770070e-04  0 