# vtk DataFile Version 3.1
this is an vtk file created by FEMAC
ASCII
DATASET UNSTRUCTURED_GRID
POINTS 100 FLOAT
4.000000 0.000000 0.000000
5.000000 0.000000 0.000000
4.000000 1.000000 0.000000
5.000000 1.000000 0.000000
4.111111 0.000000 0.000000
4.222222 0.000000 0.000000
4.333333 0.000000 0.000000
4.444444 0.000000 0.000000
4.555556 0.000000 0.000000
4.666667 0.000000 0.000000
4.777778 0.000000 0.000000
4.888889 0.000000 0.000000
4.000000 0.111111 0.000000
4.000000 0.222222 0.000000
4.000000 0.333333 0.000000
4.000000 0.444444 0.000000
4.000000 0.555556 0.000000
4.000000 0.666667 0.000000
4.000000 0.777778 0.000000
4.000000 0.888889 0.000000
4.111111 1.000000 0.000000
4.222222 1.000000 0.000000
4.333333 1.000000 0.000000
4.444444 1.000000 0.000000
4.555556 1.000000 0.000000
4.666667 1.000000 0.000000
4.777778 1.000000 0.000000
4.888889 1.000000 0.000000
5.000000 0.111111 0.000000
5.000000 0.222222 0.000000
5.000000 0.333333 0.000000
5.000000 0.444444 0.000000
5.000000 0.555556 0.000000
5.000000 0.666667 0.000000
5.000000 0.777778 0.000000
5.000000 0.888889 0.000000
4.111111 0.111111 0.000000
4.111111 0.222222 0.000000
4.111111 0.333333 0.000000
4.111111 0.444444 0.000000
4.111111 0.555556 0.000000
4.111111 0.666667 0.000000
4.111111 0.777778 0.000000
4.111111 0.888889 0.000000
4.222222 0.111111 0.000000
4.222222 0.222222 0.000000
4.222222 0.333333 0.000000
4.222222 0.444444 0.000000
4.222222 0.555556 0.000000
4.222222 0.666667 0.000000
4.222222 0.777778 0.000000
4.222222 0.888889 0.000000
4.333333 0.111111 0.000000
4.333333 0.222222 0.000000
4.333333 0.333333 0.000000
4.333333 0.444444 0.000000
4.333333 0.555556 0.000000
4.333333 0.666667 0.000000
4.333333 0.777778 0.000000
4.333333 0.888889 0.000000
4.444444 0.111111 0.000000
4.444444 0.222222 0.000000
4.444444 0.333333 0.000000
4.444444 0.444444 0.000000
4.444444 0.555556 0.000000
4.444444 0.666667 0.000000
4.444444 0.777778 0.000000
4.444444 0.888889 0.000000
4.555556 0.111111 0.000000
4.555556 0.222222 0.000000
4.555556 0.333333 0.000000
4.555556 0.444444 0.000000
4.555556 0.555556 0.000000
4.555556 0.666667 0.000000
4.555556 0.777778 0.000000
4.555556 0.888889 0.000000
4.666667 0.111111 0.000000
4.666667 0.222222 0.000000
4.666667 0.333333 0.000000
4.666667 0.444444 0.000000
4.666667 0.555556 0.000000
4.666667 0.666667 0.000000
4.666667 0.777778 0.000000
4.666667 0.888889 0.000000
4.777778 0.111111 0.000000
4.777778 0.222222 0.000000
4.777778 0.333333 0.000000
4.777778 0.444444 0.000000
4.777778 0.555556 0.000000
4.777778 0.666667 0.000000
4.777778 0.777778 0.000000
4.777778 0.888889 0.000000
4.888889 0.111111 0.000000
4.888889 0.222222 0.000000
4.888889 0.333333 0.000000
4.888889 0.444444 0.000000
4.888889 0.555556 0.000000
4.888889 0.666667 0.000000
4.888889 0.777778 0.000000
4.888889 0.888889 0.000000
CELLS 81 405 
4 0  4 36 12
4 12 36 37 13
4 13 37 38 14
4 14 38 39 15
4 15 39 40 16
4 16 40 41 17
4 17 41 42 18
4 18 42 43 19
4 19 43 20  2
4 4  5 44 36
4 36 44 45 37
4 37 45 46 38
4 38 46 47 39
4 39 47 48 40
4 40 48 49 41
4 41 49 50 42
4 42 50 51 43
4 43 51 21 20
4 5  6 52 44
4 44 52 53 45
4 45 53 54 46
4 46 54 55 47
4 47 55 56 48
4 48 56 57 49
4 49 57 58 50
4 50 58 59 51
4 51 59 22 21
4 6  7 60 52
4 52 60 61 53
4 53 61 62 54
4 54 62 63 55
4 55 63 64 56
4 56 64 65 57
4 57 65 66 58
4 58 66 67 59
4 59 67 23 22
4 7  8 68 60
4 60 68 69 61
4 61 69 70 62
4 62 70 71 63
4 63 71 72 64
4 64 72 73 65
4 65 73 74 66
4 66 74 75 67
4 67 75 24 23
4 8  9 76 68
4 68 76 77 69
4 69 77 78 70
4 70 78 79 71
4 71 79 80 72
4 72 80 81 73
4 73 81 82 74
4 74 82 83 75
4 75 83 25 24
4 9 10 84 76
4 76 84 85 77
4 77 85 86 78
4 78 86 87 79
4 79 87 88 80
4 80 88 89 81
4 81 89 90 82
4 82 90 91 83
4 83 91 26 25
4 10 11 92 84
4 84 92 93 85
4 85 93 94 86
4 86 94 95 87
4 87 95 96 88
4 88 96 97 89
4 89 97 98 90
4 90 98 99 91
4 91 99 27 26
4 11  1 28 92
4 92 28 29 93
4 93 29 30 94
4 94 30 31 95
4 95 31 32 96
4 96 32 33 97
4 97 33 34 98
4 98 34 35 99
4 99 35  3 27
CELL_TYPES 81
9 9 9 9 9 9 9 9 9 9 9 9 9 9 9 9 9 9 9 9 9 9 9 9 9 9 9 9 9 9 9 9 9 9 9 9 9 9 9 9 9 9 9 9 9 9 9 9 9 9 9 9 9 9 9 9 9 9 9 9 9 9 9 9 9 9 9 9 9 9 9 9 9 9 9 9 9 9 9 9 9 
POINT_DATA 100
VECTORS displacement_ITER1 FLOAT
 -1.213133e-02  -1.280094e-02  0 
 -1.216190e-02  -1.762366e-02  0 
 -7.247782e-03  -1.266441e-02  0 
 -7.398293e-03  -1.757507e-02  0 
 -1.213680e-02  -1.333104e-02  0 
 -1.214293e-02  -1.386312e-02  0 
 -1.214838e-02  -1.439731e-02  0 
 -1.215283e-02  -1.493316e-02  0 
 -1.215635e-02  -1.547031e-02  0 
 -1.215917e-02  -1.600855e-02  0 
 -1.216140e-02  -1.654774e-02  0 
 -1.216266e-02  -1.708739e-02  0 
 -1.160067e-02  -1.279887e-02  0 
 -1.107015e-02  -1.279532e-02  0 
 -1.053793e-02  -1.278955e-02  0 
 -1.000437e-02  -1.278207e-02  0 
 -9.468744e-03  -1.277119e-02  0 
 -8.929716e-03  -1.275698e-02  0 
 -8.385078e-03  -1.273638e-02  0 
 -7.832046e-03  -1.270757e-02  0 
 -7.266166e-03  -1.327121e-02  0 
 -7.284705e-03  -1.383548e-02  0 
 -7.299435e-03  -1.438854e-02  0 
 -7.312264e-03  -1.493387e-02  0 
 -7.325126e-03  -1.547426e-02  0 
 -7.338182e-03  -1.601103e-02  0 
 -7.352504e-03  -1.654339e-02  0 
 -7.368914e-03  -1.707219e-02  0 
 -1.162618e-02  -1.762615e-02  0 
 -1.108530e-02  -1.762680e-02  0 
 -1.054476e-02  -1.762498e-02  0 
 -1.000572e-02  -1.762133e-02  0 
 -9.469326e-03  -1.761556e-02  0 
 -8.936539e-03  -1.760795e-02  0 
 -8.408894e-03  -1.759869e-02  0 
 -7.887172e-03  -1.758860e-02  0 
 -1.160561e-02  -1.332894e-02  0 
 -1.107401e-02  -1.332615e-02  0 
 -1.054168e-02  -1.332229e-02  0 
 -1.000818e-02  -1.331676e-02  0 
 -9.472873e-03  -1.330948e-02  0 
 -8.934640e-03  -1.330000e-02  0 
 -8.391538e-03  -1.328850e-02  0 
 -7.838538e-03  -1.327725e-02  0 
 -1.161001e-02  -1.386139e-02  0 
 -1.107728e-02  -1.385951e-02  0 
 -1.054428e-02  -1.385709e-02  0 
 -1.001045e-02  -1.385396e-02  0 
 -9.474973e-03  -1.385006e-02  0 
 -8.936607e-03  -1.384568e-02  0 
 -8.393117e-03  -1.384184e-02  0 
 -7.841557e-03  -1.383973e-02  0 
 -1.161375e-02  -1.439594e-02  0 
 -1.107969e-02  -1.439475e-02  0 
 -1.054568e-02  -1.439364e-02  0 
 -1.001113e-02  -1.439258e-02  0 
 -9.475185e-03  -1.439167e-02  0 
 -8.936601e-03  -1.439121e-02  0 
 -8.394038e-03  -1.439135e-02  0 
 -7.847687e-03  -1.439090e-02  0 
 -1.161671e-02  -1.493211e-02  0 
 -1.108123e-02  -1.493142e-02  0 
 -1.054601e-02  -1.493123e-02  0 
 -1.001056e-02  -1.493167e-02  0 
 -9.474248e-03  -1.493282e-02  0 
 -8.936306e-03  -1.493451e-02  0 
 -8.396364e-03  -1.493595e-02  0 
 -7.854743e-03  -1.493601e-02  0 
 -1.161895e-02  -1.546949e-02  0 
 -1.108210e-02  -1.546905e-02  0 
 -1.054560e-02  -1.546926e-02  0 
 -1.000924e-02  -1.547036e-02  0 
 -9.472851e-03  -1.547238e-02  0 
 -8.936325e-03  -1.547485e-02  0 
 -8.399527e-03  -1.547669e-02  0 
 -7.862396e-03  -1.547675e-02  0 
 -1.162069e-02  -1.600784e-02  0 
 -1.108265e-02  -1.600734e-02  0 
 -1.054495e-02  -1.600737e-02  0 
 -1.000769e-02  -1.600823e-02  0 
 -9.471270e-03  -1.600991e-02  0 
 -8.936273e-03  -1.601211e-02  0 
 -8.402891e-03  -1.601391e-02  0 
 -7.870473e-03  -1.601380e-02  0 
 -1.162222e-02  -1.654700e-02  0 
 -1.108333e-02  -1.654611e-02  0 
 -1.054451e-02  -1.654559e-02  0 
 -1.000635e-02  -1.654550e-02  0 
 -9.469771e-03  -1.654569e-02  0 
 -8.935747e-03  -1.654615e-02  0 
 -8.405506e-03  -1.654705e-02  0 
 -7.878715e-03  -1.654701e-02  0 
 -1.162404e-02  -1.708654e-02  0 
 -1.108438e-02  -1.708552e-02  0 
 -1.054441e-02  -1.708450e-02  0 
 -1.000559e-02  -1.708286e-02  0 
 -9.468884e-03  -1.708054e-02  0 
 -8.935432e-03  -1.707764e-02  0 
 -8.406526e-03  -1.707469e-02  0 
 -7.885481e-03  -1.707386e-02  0 
VECTORS displacement_ITER2 FLOAT
 -9.362036e-03  -1.008609e-02  0 
 -9.383087e-03  -1.383906e-02  0 
 -5.504699e-03  -9.914864e-03  0 
 -5.721625e-03  -1.377251e-02  0 
 -9.367754e-03  -1.049702e-02  0 
 -9.373078e-03  -1.091139e-02  0 
 -9.377517e-03  -1.132751e-02  0 
 -9.380970e-03  -1.174503e-02  0 
 -9.383491e-03  -1.216373e-02  0 
 -9.385211e-03  -1.258342e-02  0 
 -9.386127e-03  -1.300376e-02  0 
 -9.385717e-03  -1.342384e-02  0 
 -8.950769e-03  -1.008265e-02  0 
 -8.537877e-03  -1.007992e-02  0 
 -8.123504e-03  -1.007557e-02  0 
 -7.708158e-03  -1.006881e-02  0 
 -7.291237e-03  -1.005722e-02  0 
 -6.870861e-03  -1.003962e-02  0 
 -6.443340e-03  -1.001257e-02  0 
 -6.000645e-03  -9.972361e-03  0 
 -5.536353e-03  -1.043222e-02  0 
 -5.564600e-03  -1.088736e-02  0 
 -5.584934e-03  -1.132434e-02  0 
 -5.601938e-03  -1.175212e-02  0 
 -5.617220e-03  -1.217439e-02  0 
 -5.633430e-03  -1.259151e-02  0 
 -5.652530e-03  -1.300190e-02  0 
 -5.678292e-03  -1.340567e-02  0 
 -8.968777e-03  -1.384235e-02  0 
 -8.547880e-03  -1.384441e-02  0 
 -8.126472e-03  -1.384353e-02  0 
 -7.705785e-03  -1.384041e-02  0 
 -7.287213e-03  -1.383389e-02  0 
 -6.872810e-03  -1.382435e-02  0 
 -6.466170e-03  -1.381109e-02  0 
 -6.069490e-03  -1.379367e-02  0 
 -8.954650e-03  -1.049544e-02  0 
 -8.540926e-03  -1.049319e-02  0 
 -8.126763e-03  -1.048974e-02  0 
 -7.711946e-03  -1.048419e-02  0 
 -7.295660e-03  -1.047603e-02  0 
 -6.876036e-03  -1.046480e-02  0 
 -6.449358e-03  -1.045114e-02  0 
 -6.006679e-03  -1.043906e-02  0 
 -8.958149e-03  -1.090999e-02  0 
 -8.543638e-03  -1.090845e-02  0 
 -8.129120e-03  -1.090619e-02  0 
 -7.714079e-03  -1.090300e-02  0 
 -7.297386e-03  -1.089890e-02  0 
 -6.876937e-03  -1.089456e-02  0 
 -6.449039e-03  -1.089164e-02  0 
 -6.009844e-03  -1.089117e-02  0 
 -8.961125e-03  -1.132641e-02  0 
 -8.545446e-03  -1.132543e-02  0 
 -8.130038e-03  -1.132452e-02  0 
 -7.714173e-03  -1.132373e-02  0 
 -7.296624e-03  -1.132342e-02  0 
 -6.875514e-03  -1.132411e-02  0 
 -6.449006e-03  -1.132591e-02  0 
 -6.017754e-03  -1.132676e-02  0 
 -8.963266e-03  -1.174424e-02  0 
 -8.546262e-03  -1.174378e-02  0 
 -8.129590e-03  -1.174389e-02  0 
 -7.712654e-03  -1.174492e-02  0 
 -7.294560e-03  -1.174713e-02  0 
 -6.874299e-03  -1.175030e-02  0 
 -6.451509e-03  -1.175323e-02  0 
 -6.026887e-03  -1.175418e-02  0 
 -8.964623e-03  -1.216319e-02  0 
 -8.546316e-03  -1.216298e-02  0 
 -8.128303e-03  -1.216352e-02  0 
 -7.710309e-03  -1.216528e-02  0 
 -7.292178e-03  -1.216841e-02  0 
 -6.873878e-03  -1.217231e-02  0 
 -6.455339e-03  -1.217547e-02  0 
 -6.036521e-03  -1.217633e-02  0 
 -8.965464e-03  -1.258299e-02  0 
 -8.546127e-03  -1.258267e-02  0 
 -8.126920e-03  -1.258293e-02  0 
 -7.707925e-03  -1.258425e-02  0 
 -7.289774e-03  -1.258676e-02  0 
 -6.873465e-03  -1.259017e-02  0 
 -6.459415e-03  -1.259326e-02  0 
 -6.046537e-03  -1.259396e-02  0 
 -8.966155e-03  -1.300334e-02  0 
 -8.546325e-03  -1.300259e-02  0 
 -8.126093e-03  -1.300217e-02  0 
 -7.706108e-03  -1.300225e-02  0 
 -7.287670e-03  -1.300274e-02  0 
 -6.872374e-03  -1.300374e-02  0 
 -6.462337e-03  -1.300562e-02  0 
 -6.057316e-03  -1.300638e-02  0 
 -8.967260e-03  -1.342342e-02  0 
 -8.547191e-03  -1.342273e-02  0 
 -8.125997e-03  -1.342204e-02  0 
 -7.705317e-03  -1.342043e-02  0 
 -7.286543e-03  -1.341782e-02  0 
 -6.871646e-03  -1.341429e-02  0 
 -6.463020e-03  -1.341040e-02  0 
 -6.066543e-03  -1.340926e-02  0 
VECTORS displacement_ITER3 FLOAT
 -8.174263e-03  -9.084336e-03  0 
 -8.200796e-03  -1.238637e-02  0 
 -4.761571e-03  -8.909442e-03  0 
 -4.997750e-03  -1.230272e-02  0 
 -8.180677e-03  -9.443157e-03  0 
 -8.186189e-03  -9.806653e-03  0 
 -8.190556e-03  -1.017217e-02  0 
 -8.193850e-03  -1.053915e-02  0 
 -8.196252e-03  -1.090728e-02  0 
 -8.198034e-03  -1.127636e-02  0 
 -8.199433e-03  -1.164620e-02  0 
 -8.200452e-03  -1.201654e-02  0 
 -7.815739e-03  -9.080461e-03  0 
 -7.453277e-03  -9.076847e-03  0 
 -7.089093e-03  -9.071795e-03  0 
 -6.723781e-03  -9.064257e-03  0 
 -6.356795e-03  -9.053099e-03  0 
 -5.986327e-03  -9.036180e-03  0 
 -5.608704e-03  -9.010769e-03  0 
 -5.214305e-03  -8.970880e-03  0 
 -4.799931e-03  -9.382741e-03  0 
 -4.830623e-03  -9.785884e-03  0 
 -4.852696e-03  -1.016957e-02  0 
 -4.870721e-03  -1.054493e-02  0 
 -4.886484e-03  -1.091592e-02  0 
 -4.902881e-03  -1.128274e-02  0 
 -4.922481e-03  -1.164348e-02  0 
 -4.951300e-03  -1.199454e-02  0 
 -7.831261e-03  -1.238662e-02  0 
 -7.460469e-03  -1.238636e-02  0 
 -7.090254e-03  -1.238429e-02  0 
 -6.720915e-03  -1.238064e-02  0 
 -6.353253e-03  -1.237439e-02  0 
 -5.989192e-03  -1.236471e-02  0 
 -5.632458e-03  -1.235036e-02  0 
 -5.288372e-03  -1.232892e-02  0 
 -7.818906e-03  -9.441647e-03  0 
 -7.456055e-03  -9.439460e-03  0 
 -7.092201e-03  -9.435808e-03  0 
 -6.727349e-03  -9.430235e-03  0 
 -6.360864e-03  -9.422307e-03  0 
 -5.991017e-03  -9.411757e-03  0 
 -5.614095e-03  -9.399085e-03  0 
 -5.220930e-03  -9.388234e-03  0 
 -7.822026e-03  -9.805328e-03  0 
 -7.458230e-03  -9.803973e-03  0 
 -7.094111e-03  -9.801927e-03  0 
 -6.729143e-03  -9.798950e-03  0 
 -6.362338e-03  -9.795177e-03  0 
 -5.991727e-03  -9.791302e-03  0 
 -5.613723e-03  -9.789029e-03  0 
 -5.224653e-03  -9.789269e-03  0 
 -7.824740e-03  -1.017115e-02  0 
 -7.459596e-03  -1.017036e-02  0 
 -7.094572e-03  -1.016972e-02  0 
 -6.728902e-03  -1.016925e-02  0 
 -6.361426e-03  -1.016924e-02  0 
 -5.990384e-03  -1.017020e-02  0 
 -5.614101e-03  -1.017213e-02  0 
 -5.233586e-03  -1.017278e-02  0 
 -7.826671e-03  -1.053843e-02  0 
 -7.460111e-03  -1.053812e-02  0 
 -7.093786e-03  -1.053847e-02  0 
 -6.727131e-03  -1.053977e-02  0 
 -6.359332e-03  -1.054218e-02  0 
 -5.989483e-03  -1.054539e-02  0 
 -5.617355e-03  -1.054802e-02  0 
 -5.243860e-03  -1.054820e-02  0 
 -7.827899e-03  -1.090678e-02  0 
 -7.459973e-03  -1.090671e-02  0 
 -7.092275e-03  -1.090744e-02  0 
 -6.724636e-03  -1.090933e-02  0 
 -6.357010e-03  -1.091249e-02  0 
 -5.989464e-03  -1.091624e-02  0 
 -5.621969e-03  -1.091896e-02  0 
 -5.254418e-03  -1.091897e-02  0 
 -7.828712e-03  -1.127595e-02  0 
 -7.459626e-03  -1.127580e-02  0 
 -7.090727e-03  -1.127622e-02  0 
 -6.722217e-03  -1.127749e-02  0 
 -6.354732e-03  -1.127976e-02  0 
 -5.989334e-03  -1.128285e-02  0 
 -5.626550e-03  -1.128563e-02  0 
 -5.265085e-03  -1.128588e-02  0 
 -7.829423e-03  -1.164576e-02  0 
 -7.459534e-03  -1.164529e-02  0 
 -7.089752e-03  -1.164492e-02  0 
 -6.720538e-03  -1.164471e-02  0 
 -6.352880e-03  -1.164469e-02  0 
 -5.988358e-03  -1.164515e-02  0 
 -5.629415e-03  -1.164677e-02  0 
 -5.276118e-03  -1.164770e-02  0 
 -7.830280e-03  -1.201607e-02  0 
 -7.459916e-03  -1.201528e-02  0 
 -7.089618e-03  -1.201410e-02  0 
 -6.720087e-03  -1.201200e-02  0 
 -6.352203e-03  -1.200887e-02  0 
 -5.987760e-03  -1.200472e-02  0 
 -5.629632e-03  -1.200013e-02  0 
 -5.284960e-03  -1.199859e-02  0 
VECTORS displacement_ITER4 FLOAT
 -7.770718e-03  -8.738266e-03  0 
 -7.796267e-03  -1.193751e-02  0 
 -4.452193e-03  -8.561370e-03  0 
 -4.699821e-03  -1.184675e-02  0 
 -7.776135e-03  -9.085995e-03  0 
 -7.781409e-03  -9.437631e-03  0 
 -7.785634e-03  -9.791478e-03  0 
 -7.788748e-03  -1.014689e-02  0 
 -7.790978e-03  -1.050347e-02  0 
 -7.792675e-03  -1.086101e-02  0 
 -7.794153e-03  -1.121937e-02  0 
 -7.795473e-03  -1.157848e-02  0 
 -7.422568e-03  -8.735007e-03  0 
 -7.071783e-03  -8.730804e-03  0 
 -6.719612e-03  -8.725163e-03  0 
 -6.365908e-03  -8.717338e-03  0 
 -6.009961e-03  -8.706481e-03  0 
 -5.650292e-03  -8.690315e-03  0 
 -5.283544e-03  -8.665780e-03  0 
 -4.899889e-03  -8.625461e-03  0 
 -4.495308e-03  -9.027893e-03  0 
 -4.529176e-03  -9.418514e-03  0 
 -4.552884e-03  -9.790224e-03  0 
 -4.570860e-03  -1.015392e-02  0 
 -4.586589e-03  -1.051294e-02  0 
 -4.603068e-03  -1.086793e-02  0 
 -4.622998e-03  -1.121710e-02  0 
 -4.652854e-03  -1.155446e-02  0 
 -7.437252e-03  -1.193769e-02  0 
 -7.077596e-03  -1.193676e-02  0 
 -6.718780e-03  -1.193421e-02  0 
 -6.361223e-03  -1.193005e-02  0 
 -6.005484e-03  -1.192358e-02  0 
 -5.653111e-03  -1.191356e-02  0 
 -5.307542e-03  -1.189875e-02  0 
 -4.976365e-03  -1.187567e-02  0 
 -7.425955e-03  -9.084346e-03  0 
 -7.074756e-03  -9.081875e-03  0 
 -6.722517e-03  -9.078066e-03  0 
 -6.369036e-03  -9.072639e-03  0 
 -6.013650e-03  -9.065099e-03  0 
 -5.654823e-03  -9.055064e-03  0 
 -5.289048e-03  -9.042886e-03  0 
 -4.906526e-03  -9.032783e-03  0 
 -7.428960e-03  -9.436321e-03  0 
 -7.076758e-03  -9.434950e-03  0 
 -6.724105e-03  -9.432995e-03  0 
 -6.370461e-03  -9.430273e-03  0 
 -6.014887e-03  -9.426875e-03  0 
 -5.655506e-03  -9.423425e-03  0 
 -5.288728e-03  -9.421681e-03  0 
 -4.910964e-03  -9.422410e-03  0 
 -7.431424e-03  -9.790531e-03  0 
 -7.077822e-03  -9.789858e-03  0 
 -6.724233e-03  -9.789407e-03  0 
 -6.369927e-03  -9.789209e-03  0 
 -6.013805e-03  -9.789527e-03  0 
 -5.654154e-03  -9.790838e-03  0 
 -5.289399e-03  -9.793055e-03  0 
 -4.920878e-03  -9.793702e-03  0 
 -7.433108e-03  -1.014625e-02  0 
 -7.078038e-03  -1.014607e-02  0 
 -6.723147e-03  -1.014662e-02  0 
 -6.367909e-03  -1.014816e-02  0 
 -6.011580e-03  -1.015083e-02  0 
 -5.653329e-03  -1.015425e-02  0 
 -5.293027e-03  -1.015696e-02  0 
 -4.931682e-03  -1.015705e-02  0 
 -7.434135e-03  -1.050304e-02  0 
 -7.077658e-03  -1.050307e-02  0 
 -6.721387e-03  -1.050395e-02  0 
 -6.365208e-03  -1.050601e-02  0 
 -6.009150e-03  -1.050931e-02  0 
 -5.653366e-03  -1.051317e-02  0 
 -5.297866e-03  -1.051594e-02  0 
 -4.942413e-03  -1.051596e-02  0 
 -7.434812e-03  -1.086062e-02  0 
 -7.077121e-03  -1.086056e-02  0 
 -6.719641e-03  -1.086107e-02  0 
 -6.362629e-03  -1.086240e-02  0 
 -6.006770e-03  -1.086466e-02  0 
 -5.653184e-03  -1.086774e-02  0 
 -5.302449e-03  -1.087061e-02  0 
 -4.953212e-03  -1.087103e-02  0 
 -7.435454e-03  -1.121892e-02  0 
 -7.076859e-03  -1.121848e-02  0 
 -6.718499e-03  -1.121813e-02  0 
 -6.360856e-03  -1.121784e-02  0 
 -6.004860e-03  -1.121765e-02  0 
 -5.652097e-03  -1.121793e-02  0 
 -5.305101e-03  -1.121951e-02  0 
 -4.964148e-03  -1.122074e-02  0 
 -7.436291e-03  -1.157791e-02  0 
 -7.077069e-03  -1.157704e-02  0 
 -6.718227e-03  -1.157567e-02  0 
 -6.360377e-03  -1.157337e-02  0 
 -6.004256e-03  -1.156993e-02  0 
 -5.651473e-03  -1.156541e-02  0 
 -5.305060e-03  -1.156051e-02  0 
 -4.972616e-03  -1.155872e-02  0 
VECTORS displacement_ITER5 FLOAT
 -7.637589e-03  -8.621391e-03  0 
 -7.664474e-03  -1.177577e-02  0 
 -4.361301e-03  -8.442878e-03  0 
 -4.615146e-03  -1.168115e-02  0 
 -7.643253e-03  -8.964151e-03  0 
 -7.648626e-03  -9.310546e-03  0 
 -7.652906e-03  -9.659201e-03  0 
 -7.656043e-03  -1.000946e-02  0 
 -7.658278e-03  -1.036091e-02  0 
 -7.659995e-03  -1.071331e-02  0 
 -7.661567e-03  -1.106658e-02  0 
 -7.663168e-03  -1.142077e-02  0 
 -7.295095e-03  -8.618703e-03  0 
 -6.949919e-03  -8.614640e-03  0 
 -6.603043e-03  -8.608892e-03  0 
 -6.254198e-03  -8.600665e-03  0 
 -5.902893e-03  -8.589182e-03  0 
 -5.547906e-03  -8.572532e-03  0 
 -5.186051e-03  -8.547770e-03  0 
 -4.807409e-03  -8.507519e-03  0 
 -4.406877e-03  -8.906047e-03  0 
 -4.442021e-03  -9.291358e-03  0 
 -4.466013e-03  -9.658240e-03  0 
 -4.483912e-03  -1.001689e-02  0 
 -4.499784e-03  -1.037059e-02  0 
 -4.516520e-03  -1.072020e-02  0 
 -4.537007e-03  -1.106431e-02  0 
 -4.567503e-03  -1.139585e-02  0 
 -7.309552e-03  -1.177526e-02  0 
 -6.954884e-03  -1.177376e-02  0 
 -6.601142e-03  -1.177110e-02  0 
 -6.248803e-03  -1.176698e-02  0 
 -5.898436e-03  -1.176061e-02  0 
 -5.551374e-03  -1.175053e-02  0 
 -5.210605e-03  -1.173519e-02  0 
 -4.884656e-03  -1.171125e-02  0 
 -7.298370e-03  -8.962477e-03  0 
 -6.952639e-03  -8.960127e-03  0 
 -6.605706e-03  -8.956361e-03  0 
 -6.257301e-03  -8.950832e-03  0 
 -5.906772e-03  -8.943067e-03  0 
 -5.552703e-03  -8.932788e-03  0 
 -5.191684e-03  -8.920530e-03  0 
 -4.813655e-03  -8.910762e-03  0 
 -7.301415e-03  -9.309225e-03  0 
 -6.954489e-03  -9.307882e-03  0 
 -6.607090e-03  -9.305996e-03  0 
 -6.258574e-03  -9.303309e-03  0 
 -5.907974e-03  -9.299891e-03  0 
 -5.553437e-03  -9.296408e-03  0 
 -5.191402e-03  -9.294721e-03  0 
 -4.818453e-03  -9.295520e-03  0 
 -7.303880e-03  -9.658252e-03  0 
 -6.955474e-03  -9.657605e-03  0 
 -6.607062e-03  -9.657216e-03  0 
 -6.257875e-03  -9.657100e-03  0 
 -5.906779e-03  -9.657492e-03  0 
 -5.552059e-03  -9.658860e-03  0 
 -5.192210e-03  -9.661094e-03  0 
 -4.828746e-03  -9.661674e-03  0 
 -7.305550e-03  -1.000883e-02  0 
 -6.955626e-03  -1.000868e-02  0 
 -6.605860e-03  -1.000929e-02  0 
 -6.255718e-03  -1.001091e-02  0 
 -5.904448e-03  -1.001367e-02  0 
 -5.551228e-03  -1.001716e-02  0 
 -5.195966e-03  -1.001986e-02  0 
 -4.839688e-03  -1.001992e-02  0 
 -7.306560e-03  -1.036048e-02  0 
 -6.955191e-03  -1.036055e-02  0 
 -6.604012e-03  -1.036149e-02  0 
 -6.252915e-03  -1.036362e-02  0 
 -5.901941e-03  -1.036698e-02  0 
 -5.551264e-03  -1.037089e-02  0 
 -5.200888e-03  -1.037368e-02  0 
 -4.850518e-03  -1.037367e-02  0 
 -7.307223e-03  -1.071294e-02  0 
 -6.954599e-03  -1.071292e-02  0 
 -6.602196e-03  -1.071350e-02  0 
 -6.250276e-03  -1.071486e-02  0 
 -5.899516e-03  -1.071712e-02  0 
 -5.551059e-03  -1.072022e-02  0 
 -5.205520e-03  -1.072312e-02  0 
 -4.861531e-03  -1.072354e-02  0 
 -7.307850e-03  -1.106614e-02  0 
 -6.954249e-03  -1.106576e-02  0 
 -6.600992e-03  -1.106546e-02  0 
 -6.248497e-03  -1.106516e-02  0 
 -5.897617e-03  -1.106492e-02  0 
 -5.549955e-03  -1.106512e-02  0 
 -5.208160e-03  -1.106666e-02  0 
 -4.872623e-03  -1.106793e-02  0 
 -7.308622e-03  -1.142017e-02  0 
 -6.954351e-03  -1.141926e-02  0 
 -6.600670e-03  -1.141782e-02  0 
 -6.248029e-03  -1.141554e-02  0 
 -5.897115e-03  -1.141207e-02  0 
 -5.549415e-03  -1.140735e-02  0 
 -5.208062e-03  -1.140219e-02  0 
 -4.881059e-03  -1.140026e-02  0 
VECTORS displacement_ITER6 FLOAT
 -7.541751e-03  -8.599457e-03  0 
 -7.568765e-03  -1.169906e-02  0 
 -4.319925e-03  -8.421074e-03  0 
 -4.574778e-03  -1.160301e-02  0 
 -7.547276e-03  -8.936305e-03  0 
 -7.552535e-03  -9.276579e-03  0 
 -7.556751e-03  -9.619046e-03  0 
 -7.559857e-03  -9.963091e-03  0 
 -7.562084e-03  -1.030833e-02  0 
 -7.563809e-03  -1.065454e-02  0 
 -7.565418e-03  -1.100162e-02  0 
 -7.567139e-03  -1.134969e-02  0 
 -7.205195e-03  -8.596915e-03  0 
 -6.866223e-03  -8.593090e-03  0 
 -6.525531e-03  -8.587530e-03  0 
 -6.182938e-03  -8.579373e-03  0 
 -5.837911e-03  -8.567782e-03  0 
 -5.489105e-03  -8.551079e-03  0 
 -5.133341e-03  -8.526223e-03  0 
 -4.760952e-03  -8.485996e-03  0 
 -4.366849e-03  -8.878332e-03  0 
 -4.401943e-03  -9.257315e-03  0 
 -4.425332e-03  -9.617960e-03  0 
 -4.443029e-03  -9.970419e-03  0 
 -4.458952e-03  -1.031815e-02  0 
 -4.475698e-03  -1.066171e-02  0 
 -4.496433e-03  -1.099965e-02  0 
 -4.526946e-03  -1.132479e-02  0 
 -7.219361e-03  -1.169822e-02  0 
 -6.870913e-03  -1.169652e-02  0 
 -6.523467e-03  -1.169379e-02  0 
 -6.177327e-03  -1.168958e-02  0 
 -5.833093e-03  -1.168316e-02  0 
 -5.492193e-03  -1.167326e-02  0 
 -5.157585e-03  -1.165791e-02  0 
 -4.837784e-03  -1.163376e-02  0 
 -7.208448e-03  -8.934661e-03  0 
 -6.868856e-03  -8.932366e-03  0 
 -6.528148e-03  -8.928668e-03  0 
 -6.186005e-03  -8.923159e-03  0 
 -5.841713e-03  -8.915391e-03  0 
 -5.493822e-03  -8.905091e-03  0 
 -5.138953e-03  -8.892819e-03  0 
 -4.767059e-03  -8.883131e-03  0 
 -7.211473e-03  -9.275273e-03  0 
 -6.870707e-03  -9.273930e-03  0 
 -6.529514e-03  -9.272047e-03  0 
 -6.187228e-03  -9.269371e-03  0 
 -5.842843e-03  -9.265960e-03  0 
 -5.494486e-03  -9.262469e-03  0 
 -5.138596e-03  -9.260755e-03  0 
 -4.771866e-03  -9.261470e-03  0 
 -7.213916e-03  -9.618103e-03  0 
 -6.871693e-03  -9.617451e-03  0 
 -6.529476e-03  -9.617055e-03  0 
 -6.186493e-03  -9.616940e-03  0 
 -5.841598e-03  -9.617338e-03  0 
 -5.493061e-03  -9.618696e-03  0 
 -5.139381e-03  -9.620877e-03  0 
 -4.782065e-03  -9.621363e-03  0 
 -7.215567e-03  -9.962465e-03  0 
 -6.871834e-03  -9.962316e-03  0 
 -6.528257e-03  -9.962924e-03  0 
 -6.184306e-03  -9.964548e-03  0 
 -5.839229e-03  -9.967316e-03  0 
 -5.492199e-03  -9.970797e-03  0 
 -5.143102e-03  -9.973481e-03  0 
 -4.792904e-03  -9.973526e-03  0 
 -7.216564e-03  -1.030791e-02  0 
 -6.871381e-03  -1.030798e-02  0 
 -6.526383e-03  -1.030893e-02  0 
 -6.181469e-03  -1.031107e-02  0 
 -5.836684e-03  -1.031444e-02  0 
 -5.492192e-03  -1.031836e-02  0 
 -5.147976e-03  -1.032118e-02  0 
 -4.803692e-03  -1.032120e-02  0 
 -7.217219e-03  -1.065416e-02  0 
 -6.870762e-03  -1.065416e-02  0 
 -6.524530e-03  -1.065476e-02  0 
 -6.178795e-03  -1.065612e-02  0 
 -5.834220e-03  -1.065839e-02  0 
 -5.491935e-03  -1.066151e-02  0 
 -5.152551e-03  -1.066447e-02  0 
 -4.814701e-03  -1.066498e-02  0 
 -7.217839e-03  -1.100118e-02  0 
 -6.870369e-03  -1.100084e-02  0 
 -6.523284e-03  -1.100054e-02  0 
 -6.176989e-03  -1.100024e-02  0 
 -5.832300e-03  -1.099999e-02  0 
 -5.490793e-03  -1.100020e-02  0 
 -5.155128e-03  -1.100179e-02  0 
 -4.825755e-03  -1.100316e-02  0 
 -7.218560e-03  -1.134911e-02  0 
 -6.870409e-03  -1.134822e-02  0 
 -6.522947e-03  -1.134673e-02  0 
 -6.176511e-03  -1.134439e-02  0 
 -5.831796e-03  -1.134093e-02  0 
 -5.490251e-03  -1.133623e-02  0 
 -5.154997e-03  -1.133107e-02  0 
 -4.834138e-03  -1.132912e-02  0 
VECTORS displacement_ITER7 FLOAT
 -7.484691e-03  -8.584952e-03  0 
 -7.512858e-03  -1.166149e-02  0 
 -4.286131e-03  -8.406877e-03  0 
 -4.540170e-03  -1.156464e-02  0 
 -7.490428e-03  -8.918465e-03  0 
 -7.495812e-03  -9.256062e-03  0 
 -7.500054e-03  -9.595959e-03  0 
 -7.503153e-03  -9.937448e-03  0 
 -7.505374e-03  -1.028012e-02  0 
 -7.507122e-03  -1.062375e-02  0 
 -7.508815e-03  -1.096827e-02  0 
 -7.510759e-03  -1.131389e-02  0 
 -7.151219e-03  -8.581815e-03  0 
 -6.814778e-03  -8.577615e-03  0 
 -6.476505e-03  -8.571891e-03  0 
 -6.136480e-03  -8.563851e-03  0 
 -5.794095e-03  -8.552477e-03  0 
 -5.447882e-03  -8.536176e-03  0 
 -5.094585e-03  -8.511663e-03  0 
 -4.724694e-03  -8.471679e-03  0 
 -4.333707e-03  -8.861045e-03  0 
 -4.368768e-03  -9.237236e-03  0 
 -4.391917e-03  -9.594922e-03  0 
 -4.409690e-03  -9.944596e-03  0 
 -4.425664e-03  -1.028970e-02  0 
 -4.442271e-03  -1.063063e-02  0 
 -4.462861e-03  -1.096596e-02  0 
 -4.492969e-03  -1.128876e-02  0 
 -7.165114e-03  -1.166017e-02  0 
 -6.819180e-03  -1.165817e-02  0 
 -6.474413e-03  -1.165526e-02  0 
 -6.130924e-03  -1.165089e-02  0 
 -5.789336e-03  -1.164442e-02  0 
 -5.451066e-03  -1.163468e-02  0 
 -5.119056e-03  -1.161953e-02  0 
 -4.801547e-03  -1.159553e-02  0 
 -7.154439e-03  -8.916819e-03  0 
 -6.817422e-03  -8.914463e-03  0 
 -6.479169e-03  -8.910708e-03  0 
 -6.139507e-03  -8.905217e-03  0 
 -5.797745e-03  -8.897598e-03  0 
 -5.452405e-03  -8.887519e-03  0 
 -5.100124e-03  -8.875466e-03  0 
 -4.730897e-03  -8.865930e-03  0 
 -7.157377e-03  -9.254766e-03  0 
 -6.819204e-03  -9.253465e-03  0 
 -6.480521e-03  -9.251601e-03  0 
 -6.140715e-03  -9.248954e-03  0 
 -5.798832e-03  -9.245611e-03  0 
 -5.453030e-03  -9.242216e-03  0 
 -5.099767e-03  -9.240580e-03  0 
 -4.735783e-03  -9.241296e-03  0 
 -7.159787e-03  -9.595027e-03  0 
 -6.820129e-03  -9.594408e-03  0 
 -6.480446e-03  -9.594050e-03  0 
 -6.139973e-03  -9.593965e-03  0 
 -5.797599e-03  -9.594385e-03  0 
 -5.451635e-03  -9.595758e-03  0 
 -5.100603e-03  -9.597928e-03  0 
 -4.745988e-03  -9.598378e-03  0 
 -7.161422e-03  -9.936829e-03  0 
 -6.820241e-03  -9.936700e-03  0 
 -6.479206e-03  -9.937336e-03  0 
 -6.137790e-03  -9.938976e-03  0 
 -5.795262e-03  -9.941737e-03  0 
 -5.450820e-03  -9.945184e-03  0 
 -5.104364e-03  -9.947823e-03  0 
 -4.756851e-03  -9.947821e-03  0 
 -7.162416e-03  -1.027970e-02  0 
 -6.819779e-03  -1.027979e-02  0 
 -6.477326e-03  -1.028076e-02  0 
 -6.134968e-03  -1.028290e-02  0 
 -5.792755e-03  -1.028623e-02  0 
 -5.450858e-03  -1.029009e-02  0 
 -5.109266e-03  -1.029284e-02  0 
 -4.767652e-03  -1.029280e-02  0 
 -7.163082e-03  -1.062337e-02  0 
 -6.819151e-03  -1.062339e-02  0 
 -6.475464e-03  -1.062401e-02  0 
 -6.132313e-03  -1.062537e-02  0 
 -5.790342e-03  -1.062759e-02  0 
 -5.450654e-03  -1.063062e-02  0 
 -5.113863e-03  -1.063348e-02  0 
 -4.778627e-03  -1.063392e-02  0 
 -7.163718e-03  -1.096783e-02  0 
 -6.818723e-03  -1.096752e-02  0 
 -6.474195e-03  -1.096723e-02  0 
 -6.130525e-03  -1.096689e-02  0 
 -5.788481e-03  -1.096659e-02  0 
 -5.449590e-03  -1.096673e-02  0 
 -5.116466e-03  -1.096821e-02  0 
 -4.789602e-03  -1.096951e-02  0 
 -7.164408e-03  -1.131331e-02  0 
 -6.818701e-03  -1.131241e-02  0 
 -6.473847e-03  -1.131083e-02  0 
 -6.130065e-03  -1.130841e-02  0 
 -5.788029e-03  -1.130491e-02  0 
 -5.449130e-03  -1.130021e-02  0 
 -5.116406e-03  -1.129504e-02  0 
 -4.797874e-03  -1.129298e-02  0 
VECTORS displacement_ITER8 FLOAT
 -7.455648e-03  -8.579757e-03  0 
 -7.484017e-03  -1.163714e-02  0 
 -4.276365e-03  -8.402377e-03  0 
 -4.530096e-03  -1.153906e-02  0 
 -7.461525e-03  -8.910935e-03  0 
 -7.466885e-03  -9.246443e-03  0 
 -7.471075e-03  -9.584227e-03  0 
 -7.474140e-03  -9.923577e-03  0 
 -7.476350e-03  -1.026410e-02  0 
 -7.478106e-03  -1.060558e-02  0 
 -7.479820e-03  -1.094797e-02  0 
 -7.481810e-03  -1.129145e-02  0 
 -7.124634e-03  -8.576454e-03  0 
 -6.790220e-03  -8.572272e-03  0 
 -6.453937e-03  -8.566636e-03  0 
 -6.116002e-03  -8.558717e-03  0 
 -5.775783e-03  -8.547391e-03  0 
 -5.431790e-03  -8.531044e-03  0 
 -5.080677e-03  -8.506535e-03  0 
 -4.712895e-03  -8.466785e-03  0 
 -4.324262e-03  -8.853737e-03  0 
 -4.359173e-03  -9.227713e-03  0 
 -4.382318e-03  -9.583331e-03  0 
 -4.400179e-03  -9.931031e-03  0 
 -4.416154e-03  -1.027397e-02  0 
 -4.432725e-03  -1.061256e-02  0 
 -4.453251e-03  -1.094535e-02  0 
 -4.483223e-03  -1.126587e-02  0 
 -7.138236e-03  -1.163561e-02  0 
 -6.794498e-03  -1.163355e-02  0 
 -6.451855e-03  -1.163069e-02  0 
 -6.110432e-03  -1.162637e-02  0 
 -5.770944e-03  -1.161979e-02  0 
 -5.434771e-03  -1.160987e-02  0 
 -5.104952e-03  -1.159454e-02  0 
 -4.789526e-03  -1.157042e-02  0 
 -7.127700e-03  -8.909343e-03  0 
 -6.792780e-03  -8.907060e-03  0 
 -6.456591e-03  -8.903352e-03  0 
 -6.119043e-03  -8.897893e-03  0 
 -5.779459e-03  -8.890295e-03  0 
 -5.436302e-03  -8.880243e-03  0 
 -5.086150e-03  -8.868246e-03  0 
 -4.719029e-03  -8.858764e-03  0 
 -7.130558e-03  -9.245175e-03  0 
 -6.794500e-03  -9.243918e-03  0 
 -6.457932e-03  -9.242087e-03  0 
 -6.120260e-03  -9.239457e-03  0 
 -5.780537e-03  -9.236139e-03  0 
 -5.436904e-03  -9.232787e-03  0 
 -5.085807e-03  -9.231182e-03  0 
 -4.724029e-03  -9.231843e-03  0 