# vtk DataFile Version 3.1
this is an vtk file created by FEMAC
ASCII
DATASET UNSTRUCTURED_GRID
POINTS 100 FLOAT
2.000000 3.000000 0.000000
2.000000 4.000000 0.000000
3.000000 3.000000 0.000000
3.000000 4.000000 0.000000
2.000000 3.111111 0.000000
2.000000 3.222222 0.000000
2.000000 3.333333 0.000000
2.000000 3.444444 0.000000
2.000000 3.555556 0.000000
2.000000 3.666667 0.000000
2.000000 3.777778 0.000000
2.000000 3.888889 0.000000
2.111111 3.000000 0.000000
2.222222 3.000000 0.000000
2.333333 3.000000 0.000000
2.444444 3.000000 0.000000
2.555556 3.000000 0.000000
2.666667 3.000000 0.000000
2.777778 3.000000 0.000000
2.888889 3.000000 0.000000
2.111111 4.000000 0.000000
2.222222 4.000000 0.000000
2.333333 4.000000 0.000000
2.444444 4.000000 0.000000
2.555556 4.000000 0.000000
2.666667 4.000000 0.000000
2.777778 4.000000 0.000000
2.888889 4.000000 0.000000
3.000000 3.111111 0.000000
3.000000 3.222222 0.000000
3.000000 3.333333 0.000000
3.000000 3.444444 0.000000
3.000000 3.555556 0.000000
3.000000 3.666667 0.000000
3.000000 3.777778 0.000000
3.000000 3.888889 0.000000
2.111111 3.111111 0.000000
2.111111 3.222222 0.000000
2.111111 3.333333 0.000000
2.111111 3.444444 0.000000
2.111111 3.555556 0.000000
2.111111 3.666667 0.000000
2.111111 3.777778 0.000000
2.111111 3.888889 0.000000
2.222222 3.111111 0.000000
2.222222 3.222222 0.000000
2.222222 3.333333 0.000000
2.222222 3.444444 0.000000
2.222222 3.555556 0.000000
2.222222 3.666667 0.000000
2.222222 3.777778 0.000000
2.222222 3.888889 0.000000
2.333333 3.111111 0.000000
2.333333 3.222222 0.000000
2.333333 3.333333 0.000000
2.333333 3.444444 0.000000
2.333333 3.555556 0.000000
2.333333 3.666667 0.000000
2.333333 3.777778 0.000000
2.333333 3.888889 0.000000
2.444444 3.111111 0.000000
2.444444 3.222222 0.000000
2.444444 3.333333 0.000000
2.444444 3.444444 0.000000
2.444444 3.555556 0.000000
2.444444 3.666667 0.000000
2.444444 3.777778 0.000000
2.444444 3.888889 0.000000
2.555556 3.111111 0.000000
2.555556 3.222222 0.000000
2.555556 3.333333 0.000000
2.555556 3.444444 0.000000
2.555556 3.555556 0.000000
2.555556 3.666667 0.000000
2.555556 3.777778 0.000000
2.555556 3.888889 0.000000
2.666667 3.111111 0.000000
2.666667 3.222222 0.000000
2.666667 3.333333 0.000000
2.666667 3.444444 0.000000
2.666667 3.555556 0.000000
2.666667 3.666667 0.000000
2.666667 3.777778 0.000000
2.666667 3.888889 0.000000
2.777778 3.111111 0.000000
2.777778 3.222222 0.000000
2.777778 3.333333 0.000000
2.777778 3.444444 0.000000
2.777778 3.555556 0.000000
2.777778 3.666667 0.000000
2.777778 3.777778 0.000000
2.777778 3.888889 0.000000
2.888889 3.111111 0.000000
2.888889 3.222222 0.000000
2.888889 3.333333 0.000000
2.888889 3.444444 0.000000
2.888889 3.555556 0.000000
2.888889 3.666667 0.000000
2.888889 3.777778 0.000000
2.888889 3.888889 0.000000
CELLS 81 405 
4 0 12 36  4
4 4 36 37  5
4 5 37 38  6
4 6 38 39  7
4 7 39 40  8
4 8 40 41  9
4 9 41 42 10
4 10 42 43 11
4 11 43 20  1
4 12 13 44 36
4 36 44 45 37
4 37 45 46 38
4 38 46 47 39
4 39 47 48 40
4 40 48 49 41
4 41 49 50 42
4 42 50 51 43
4 43 51 21 20
4 13 14 52 44
4 44 52 53 45
4 45 53 54 46
4 46 54 55 47
4 47 55 56 48
4 48 56 57 49
4 49 57 58 50
4 50 58 59 51
4 51 59 22 21
4 14 15 60 52
4 52 60 61 53
4 53 61 62 54
4 54 62 63 55
4 55 63 64 56
4 56 64 65 57
4 57 65 66 58
4 58 66 67 59
4 59 67 23 22
4 15 16 68 60
4 60 68 69 61
4 61 69 70 62
4 62 70 71 63
4 63 71 72 64
4 64 72 73 65
4 65 73 74 66
4 66 74 75 67
4 67 75 24 23
4 16 17 76 68
4 68 76 77 69
4 69 77 78 70
4 70 78 79 71
4 71 79 80 72
4 72 80 81 73
4 73 81 82 74
4 74 82 83 75
4 75 83 25 24
4 17 18 84 76
4 76 84 85 77
4 77 85 86 78
4 78 86 87 79
4 79 87 88 80
4 80 88 89 81
4 81 89 90 82
4 82 90 91 83
4 83 91 26 25
4 18 19 92 84
4 84 92 93 85
4 85 93 94 86
4 86 94 95 87
4 87 95 96 88
4 88 96 97 89
4 89 97 98 90
4 90 98 99 91
4 91 99 27 26
4 19  2 28 92
4 92 28 29 93
4 93 29 30 94
4 94 30 31 95
4 95 31 32 96
4 96 32 33 97
4 97 33 34 98
4 98 34 35 99
4 99 35  3 27
CELL_TYPES 81
9 9 9 9 9 9 9 9 9 9 9 9 9 9 9 9 9 9 9 9 9 9 9 9 9 9 9 9 9 9 9 9 9 9 9 9 9 9 9 9 9 9 9 9 9 9 9 9 9 9 9 9 9 9 9 9 9 9 9 9 9 9 9 9 9 9 9 9 9 9 9 9 9 9 9 9 9 9 9 9 9 
POINT_DATA 100
VECTORS displacement_ITER1 FLOAT
 8.318199e-04  -3.583046e-03  0 
 2.064397e-03  -5.155169e-03  0 
 1.865991e-04  -7.437309e-03  0 
 5.902977e-03  -9.572387e-03  0 
 4.709404e-05  -3.156988e-03  0 
 -2.216670e-04  -2.898076e-03  0 
 6.853193e-04  -2.985207e-03  0 
 1.356796e-03  -3.242349e-03  0 
 1.691126e-03  -3.408030e-03  0 
 1.479473e-03  -3.168450e-03  0 
 1.180387e-03  -2.867580e-03  0 
 1.916870e-03  -3.708049e-03  0 
 1.895733e-03  -3.552996e-03  0 
 1.569230e-03  -3.609742e-03  0 
 6.629384e-04  -4.147772e-03  0 
 1.093140e-04  -5.134482e-03  0 
 6.427640e-04  -5.871409e-03  0 
 1.437732e-03  -5.589622e-03  0 
 1.554538e-03  -5.292190e-03  0 
 8.850618e-04  -5.767955e-03  0 
 2.319706e-03  -5.573597e-03  0 
 3.309414e-03  -6.563766e-03  0 
 3.373630e-03  -6.400160e-03  0 
 3.477882e-03  -6.890028e-03  0 
 3.138760e-03  -7.128105e-03  0 
 2.687117e-03  -7.352480e-03  0 
 2.324288e-03  -7.466941e-03  0 
 3.579963e-03  -7.888289e-03  0 
 1.522636e-03  -8.164123e-03  0 
 1.951691e-03  -8.011579e-03  0 
 2.116321e-03  -7.557004e-03  0 
 2.381058e-03  -7.351489e-03  0 
 2.761291e-03  -7.257697e-03  0 
 3.229904e-03  -7.293045e-03  0 
 3.683154e-03  -7.669138e-03  0 
 3.693254e-03  -8.704181e-03  0 
 5.819182e-04  -3.525526e-03  0 
 4.614515e-04  -3.663099e-03  0 
 8.484538e-04  -3.853433e-03  0 
 1.298102e-03  -3.917463e-03  0 
 1.497480e-03  -3.892362e-03  0 
 1.542854e-03  -3.908913e-03  0 
 1.838955e-03  -4.280973e-03  0 
 2.319100e-03  -4.889811e-03  0 
 9.436737e-04  -3.708308e-03  0 
 8.713296e-04  -4.080683e-03  0 
 1.069384e-03  -4.353182e-03  0 
 1.323215e-03  -4.485853e-03  0 
 1.559014e-03  -4.575218e-03  0 
 1.844548e-03  -4.788125e-03  0 
 2.243201e-03  -5.150853e-03  0 
 2.677454e-03  -5.622587e-03  0 
 1.021705e-03  -4.215007e-03  0 
 1.169455e-03  -4.531333e-03  0 
 1.305111e-03  -4.801539e-03  0 
 1.500984e-03  -5.013873e-03  0 
 1.765205e-03  -5.235300e-03  0 
 2.099021e-03  -5.514814e-03  0 
 2.494485e-03  -5.849380e-03  0 
 2.993591e-03  -6.228896e-03  0 
 1.017600e-03  -5.051793e-03  0 
 1.315726e-03  -5.099792e-03  0 
 1.509364e-03  -5.270833e-03  0 
 1.734000e-03  -5.509530e-03  0 
 2.009628e-03  -5.787662e-03  0 
 2.318814e-03  -6.096252e-03  0 
 2.654481e-03  -6.415668e-03  0 
 2.994105e-03  -6.665666e-03  0 
 1.003934e-03  -5.719500e-03  0 
 1.346451e-03  -5.631016e-03  0 
 1.661581e-03  -5.743374e-03  0 
 1.961553e-03  -5.973014e-03  0 
 2.249161e-03  -6.245923e-03  0 
 2.521009e-03  -6.533301e-03  0 
 2.749565e-03  -6.824539e-03  0 
 2.951474e-03  -7.077103e-03  0 
 1.101121e-03  -5.882148e-03  0 
 1.402358e-03  -6.019776e-03  0 
 1.817763e-03  -6.198283e-03  0 
 2.175817e-03  -6.407422e-03  0 
 2.457273e-03  -6.626341e-03  0 
 2.692034e-03  -6.845164e-03  0 
 2.870783e-03  -7.073113e-03  0 
 2.876454e-03  -7.313235e-03  0 
 1.282784e-03  -5.901512e-03  0 
 1.607841e-03  -6.385135e-03  0 
 2.027412e-03  -6.660655e-03  0 
 2.362331e-03  -6.797296e-03  0 
 2.624216e-03  -6.914567e-03  0 
 2.823760e-03  -7.079490e-03  0 
 2.993047e-03  -7.222760e-03  0 
 3.023431e-03  -7.347546e-03  0 
 1.420719e-03  -6.483147e-03  0 
 1.913108e-03  -7.015353e-03  0 
 2.204949e-03  -7.150929e-03  0 
 2.449714e-03  -7.111054e-03  0 
 2.737250e-03  -7.105173e-03  0 
 2.998215e-03  -7.216874e-03  0 
 3.120456e-03  -7.486023e-03  0 
 3.358162e-03  -7.566149e-03  0 
VECTORS displacement_ITER2 FLOAT
 5.436651e-04  -2.390042e-03  0 
 2.607464e-03  -3.558206e-03  0 
 1.137516e-03  -4.881073e-03  0 
 3.316245e-03  -5.963272e-03  0 
 1.361682e-04  -1.878617e-03  0 
 7.478655e-04  -2.608822e-03  0 
 9.676511e-04  -3.318984e-03  0 
 8.284414e-04  -3.486149e-03  0 
 7.266520e-04  -3.344431e-03  0 
 6.946528e-04  -3.012081e-03  0 
 4.956012e-04  -2.707693e-03  0 
 1.236416e-03  -2.542583e-03  0 
 8.568858e-04  -2.850047e-03  0 
 9.082778e-04  -3.606244e-03  0 
 6.481800e-04  -3.802178e-03  0 
 1.630626e-04  -4.455241e-03  0 
 2.178575e-04  -5.002568e-03  0 
 3.179368e-04  -4.756206e-03  0 
 4.156064e-04  -5.177034e-03  0 
 6.314123e-04  -5.064142e-03  0 
 2.288497e-03  -4.865386e-03  0 
 2.534840e-03  -5.213244e-03  0 
 2.568972e-03  -5.012570e-03  0 
 2.879811e-03  -4.884418e-03  0 
 3.377202e-03  -5.433836e-03  0 
 3.297528e-03  -6.388941e-03  0 
 2.625379e-03  -7.151717e-03  0 
 2.374811e-03  -6.792977e-03  0 
 8.102637e-04  -6.296812e-03  0 
 1.258686e-03  -6.719509e-03  0 
 1.605158e-03  -6.766125e-03  0 
 1.952773e-03  -6.874589e-03  0 
 2.344556e-03  -6.890489e-03  0 
 2.802283e-03  -6.902033e-03  0 
 3.550988e-03  -6.805903e-03  0 
 3.596560e-03  -6.292866e-03  0 
 7.048472e-04  -3.032147e-03  0 
 9.280881e-04  -3.217151e-03  0 
 1.010494e-03  -3.377227e-03  0 
 9.262472e-04  -3.487731e-03  0 
 8.535200e-04  -3.504390e-03  0 
 8.724785e-04  -3.472636e-03  0 
 1.114404e-03  -3.632230e-03  0 
 1.759913e-03  -4.174189e-03  0 
 8.275130e-04  -3.499599e-03  0 
 9.208055e-04  -3.593472e-03  0 
 1.012963e-03  -3.669381e-03  0 
 1.044840e-03  -3.745245e-03  0 
 1.093798e-03  -3.845887e-03  0 
 1.282335e-03  -4.011000e-03  0 
 1.684784e-03  -4.309294e-03  0 
 2.165155e-03  -4.716551e-03  0 
 7.492908e-04  -3.878482e-03  0 
 9.159319e-04  -3.958145e-03  0 
 1.047084e-03  -4.032759e-03  0 
 1.180219e-03  -4.136560e-03  0 
 1.355812e-03  -4.297355e-03  0 
 1.641010e-03  -4.510982e-03  0 
 2.049511e-03  -4.726994e-03  0 
 2.475736e-03  -4.908963e-03  0 
 6.769487e-04  -4.356809e-03  0 
 8.933458e-04  -4.361050e-03  0 
 1.109502e-03  -4.435253e-03  0 
 1.334373e-03  -4.568622e-03  0 
 1.586029e-03  -4.759215e-03  0 
 1.878596e-03  -4.970200e-03  0 
 2.227516e-03  -5.110328e-03  0 
 2.613542e-03  -5.068680e-03  0 
 5.163819e-04  -4.800700e-03  0 
 8.688273e-04  -4.782354e-03  0 
 1.179822e-03  -4.859921e-03  0 
 1.491109e-03  -4.999608e-03  0 
 1.793667e-03  -5.187353e-03  0 
 2.067085e-03  -5.396727e-03  0 
 2.314820e-03  -5.561297e-03  0 
 2.643836e-03  -5.563897e-03  0 
 5.251589e-04  -5.086917e-03  0 
 8.712120e-04  -5.188336e-03  0 
 1.257415e-03  -5.296097e-03  0 
 1.640854e-03  -5.431904e-03  0 
 1.995769e-03  -5.585469e-03  0 
 2.288504e-03  -5.771696e-03  0 
 2.491496e-03  -6.016764e-03  0 
 2.684877e-03  -6.302175e-03  0 
 6.172469e-04  -5.334724e-03  0 
 9.440070e-04  -5.567020e-03  0 
 1.362677e-03  -5.754186e-03  0 
 1.776763e-03  -5.888610e-03  0 
 2.175517e-03  -5.983787e-03  0 
 2.546094e-03  -6.098188e-03  0 
 2.823181e-03  -6.319489e-03  0 
 2.888340e-03  -6.732200e-03  0 
 6.841017e-04  -5.651877e-03  0 
 1.093642e-03  -6.023841e-03  0 
 1.502416e-03  -6.262070e-03  0 
 1.883779e-03  -6.368676e-03  0 
 2.291716e-03  -6.425488e-03  0 
 2.753098e-03  -6.429346e-03  0 
 3.190420e-03  -6.475603e-03  0 
 3.291328e-03  -6.596855e-03  0 
VECTORS displacement_ITER3 FLOAT
 6.812127e-04  -2.728592e-03  0 
 1.702164e-03  -3.569223e-03  0 
 2.644772e-04  -5.530569e-03  0 
 2.934647e-03  -5.442292e-03  0 
 -4.800263e-05  -2.207841e-03  0 
 4.522168e-04  -2.551206e-03  0 
 5.480425e-04  -2.639215e-03  0 
 6.692045e-04  -2.411016e-03  0 
 8.770916e-04  -2.266805e-03  0 
 1.201479e-03  -2.307631e-03  0 
 1.133524e-03  -2.623371e-03  0 
 1.170758e-03  -2.801367e-03  0 
 5.505987e-04  -2.886464e-03  0 
 5.857014e-04  -3.422766e-03  0 
 8.144530e-04  -3.654528e-03  0 
 9.094503e-04  -3.865155e-03  0 
 7.538120e-04  -4.024728e-03  0 
 4.841087e-04  -4.126902e-03  0 
 4.804944e-04  -4.649903e-03  0 
 6.380996e-04  -4.586255e-03  0 
 1.862253e-03  -4.317849e-03  0 
 2.387952e-03  -4.261479e-03  0 
 2.509597e-03  -4.657571e-03  0 
 2.326070e-03  -4.767384e-03  0 
 2.377831e-03  -5.020201e-03  0 
 2.387894e-03  -5.255719e-03  0 
 2.445523e-03  -5.674997e-03  0 
 2.531515e-03  -5.776912e-03  0 
 1.083148e-03  -5.622874e-03  0 
 1.347321e-03  -5.575585e-03  0 
 1.538416e-03  -5.672007e-03  0 
 1.798282e-03  -5.809463e-03  0 
 2.016163e-03  -5.837899e-03  0 
 2.205087e-03  -5.841459e-03  0 
 2.601577e-03  -5.884134e-03  0 
 3.053738e-03  -5.760836e-03  0 
 4.687732e-04  -2.928861e-03  0 
 5.658122e-04  -2.979475e-03  0 
 6.435066e-04  -2.957502e-03  0 
 7.557734e-04  -2.947271e-03  0 
 9.882674e-04  -2.959238e-03  0 
 1.246179e-03  -3.016494e-03  0 
 1.441431e-03  -3.175262e-03  0 
 1.721469e-03  -3.611932e-03  0 
 6.481482e-04  -3.347490e-03  0 
 6.748944e-04  -3.344071e-03  0 
 7.579156e-04  -3.355961e-03  0 
 9.085161e-04  -3.403403e-03  0 
 1.124158e-03  -3.484369e-03  0 
 1.385572e-03  -3.596342e-03  0 
 1.690843e-03  -3.791341e-03  0 
 2.021874e-03  -4.049722e-03  0 
 7.245600e-04  -3.673469e-03  0 
 7.640612e-04  -3.666007e-03  0 
 8.784783e-04  -3.715441e-03  0 
 1.058292e-03  -3.807758e-03  0 
 1.286256e-03  -3.930828e-03  0 
 1.557259e-03  -4.083804e-03  0 
 1.857028e-03  -4.261005e-03  0 
 2.153873e-03  -4.452847e-03  0 
 7.777916e-04  -3.875485e-03  0 
 8.372608e-04  -3.938900e-03  0 
 1.000802e-03  -4.041769e-03  0 
 1.211463e-03  -4.170148e-03  0 
 1.453184e-03  -4.318348e-03  0 
 1.712866e-03  -4.477593e-03  0 
 1.976878e-03  -4.630955e-03  0 
 2.228065e-03  -4.758736e-03  0 
 7.725115e-04  -4.053938e-03  0 
 9.266490e-04  -4.204237e-03  0 
 1.127747e-03  -4.354297e-03  0 
 1.363883e-03  -4.503426e-03  0 
 1.612748e-03  -4.652247e-03  0 
 1.853547e-03  -4.799235e-03  0 
 2.068951e-03  -4.928852e-03  0 
 2.237939e-03  -4.994408e-03  0 
 7.975400e-04  -4.338657e-03  0 
 1.016844e-03  -4.504049e-03  0 
 1.255871e-03  -4.673515e-03  0 
 1.505227e-03  -4.823812e-03  0 
 1.756227e-03  -4.949640e-03  0 
 1.989973e-03  -5.063413e-03  0 
 2.168429e-03  -5.173928e-03  0 
 2.285715e-03  -5.265555e-03  0 
 8.078140e-04  -4.675871e-03  0 
 1.111576e-03  -4.846991e-03  0 
 1.378484e-03  -5.016348e-03  0 
 1.622167e-03  -5.143034e-03  0 
 1.870350e-03  -5.237084e-03  0 
 2.116597e-03  -5.300883e-03  0 
 2.321097e-03  -5.368903e-03  0 
 2.415907e-03  -5.499275e-03  0 
 8.893679e-04  -5.020657e-03  0 
 1.242174e-03  -5.244357e-03  0 
 1.473193e-03  -5.363651e-03  0 
 1.712023e-03  -5.460676e-03  0 
 1.954654e-03  -5.540012e-03  0 
 2.197922e-03  -5.561132e-03  0 
 2.484554e-03  -5.547323e-03  0 
 2.711079e-03  -5.610478e-03  0 
VECTORS displacement_ITER4 FLOAT
 4.403659e-04  -2.774333e-03  0 
 1.581755e-03  -3.362933e-03  0 
 3.758053e-04  -5.548618e-03  0 
 3.005053e-03  -5.845961e-03  0 
 1.186685e-05  -2.582190e-03  0 
 1.161947e-04  -2.638830e-03  0 
 2.890477e-04  -2.469785e-03  0 
 5.669521e-04  -2.366389e-03  0 
 7.718814e-04  -2.382186e-03  0 
 1.023195e-03  -2.446912e-03  0 
 1.191631e-03  -2.642369e-03  0 
 1.278760e-03  -2.920433e-03  0 
 5.781050e-04  -2.966723e-03  0 
 4.737338e-04  -3.033076e-03  0 
 5.547427e-04  -3.293879e-03  0 
 7.231925e-04  -3.595816e-03  0 
 6.675691e-04  -3.948215e-03  0 
 6.304167e-04  -4.373579e-03  0 
 7.037533e-04  -4.762925e-03  0 
 7.789415e-04  -4.805723e-03  0 
 1.836124e-03  -4.023782e-03  0 
 2.229632e-03  -4.168844e-03  0 
 2.247038e-03  -4.627620e-03  0 
 2.048868e-03  -4.862711e-03  0 
 1.939274e-03  -5.043337e-03  0 
 1.976841e-03  -5.038756e-03  0 
 2.266870e-03  -5.219084e-03  0 
 2.593076e-03  -5.581548e-03  0 
 1.005304e-03  -5.434606e-03  0 
 1.188450e-03  -5.422468e-03  0 
 1.446664e-03  -5.511586e-03  0 
 1.729654e-03  -5.544326e-03  0 
 1.929016e-03  -5.528766e-03  0 
 2.051409e-03  -5.496232e-03  0 
 2.167127e-03  -5.594549e-03  0 
 2.594736e-03  -5.875829e-03  0 
 2.914519e-04  -2.897790e-03  0 
 2.905798e-04  -2.930118e-03  0 
 4.184288e-04  -2.954269e-03  0 
 6.405021e-04  -2.960560e-03  0 
 8.866753e-04  -2.998985e-03  0 
 1.131162e-03  -3.097847e-03  0 
 1.371245e-03  -3.249302e-03  0 
 1.641993e-03  -3.523269e-03  0 
 4.550445e-04  -3.132161e-03  0 
 4.847153e-04  -3.244698e-03  0 
 5.992336e-04  -3.341233e-03  0 
 7.861292e-04  -3.429291e-03  0 
 1.018089e-03  -3.523162e-03  0 
 1.266043e-03  -3.646089e-03  0 
 1.532864e-03  -3.816104e-03  0 
 1.837575e-03  -4.014777e-03  0 
 6.018391e-04  -3.432552e-03  0 
 6.649935e-04  -3.557959e-03  0 
 7.865111e-04  -3.690883e-03  0 
 9.619031e-04  -3.820737e-03  0 
 1.177227e-03  -3.952789e-03  0 
 1.415530e-03  -4.101584e-03  0 
 1.661696e-03  -4.275515e-03  0 
 1.915733e-03  -4.459741e-03  0 
 7.196513e-04  -3.733445e-03  0 
 8.218793e-04  -3.874752e-03  0 
 9.618705e-04  -4.019032e-03  0 
 1.137548e-03  -4.162877e-03  0 
 1.343852e-03  -4.307527e-03  0 
 1.565455e-03  -4.457347e-03  0 
 1.778204e-03  -4.617764e-03  0 
 1.955895e-03  -4.784150e-03  0 
 8.185344e-04  -4.056282e-03  0 
 9.552107e-04  -4.194994e-03  0 
 1.113350e-03  -4.331007e-03  0 
 1.296033e-03  -4.470161e-03  0 
 1.496531e-03  -4.606051e-03  0 
 1.701039e-03  -4.733968e-03  0 
 1.883975e-03  -4.851152e-03  0 
 1.989756e-03  -4.951955e-03  0 
 8.733729e-04  -4.431139e-03  0 
 1.050245e-03  -4.513693e-03  0 
 1.237192e-03  -4.629202e-03  0 
 1.430738e-03  -4.752277e-03  0 
 1.624830e-03  -4.867405e-03  0 
 1.812280e-03  -4.961177e-03  0 
 1.969256e-03  -5.024197e-03  0 
 2.060303e-03  -5.050422e-03  0 
 8.803477e-04  -4.759533e-03  0 
 1.111876e-03  -4.829068e-03  0 
 1.335088e-03  -4.920916e-03  0 
 1.542981e-03  -5.014426e-03  0 
 1.733157e-03  -5.106519e-03  0 
 1.898598e-03  -5.171316e-03  0 
 2.046565e-03  -5.191419e-03  0 
 2.157974e-03  -5.193373e-03  0 
 9.187680e-04  -5.038843e-03  0 
 1.168941e-03  -5.151081e-03  0 
 1.400675e-03  -5.204731e-03  0 
 1.640237e-03  -5.268605e-03  0 
 1.838155e-03  -5.326960e-03  0 
 1.973872e-03  -5.372974e-03  0 
 2.108084e-03  -5.394011e-03  0 
 2.346169e-03  -5.422568e-03  0 
VECTORS displacement_ITER5 FLOAT
 8.319020e-05  -2.387635e-03  0 
 1.728542e-03  -3.002991e-03  0 
 6.292344e-04  -5.208455e-03  0 
 2.465928e-03  -5.491592e-03  0 
 2.305667e-04  -2.542266e-03  0 
 3.197998e-04  -2.688464e-03  0 
 4.784630e-04  -2.659937e-03  0 
 6.186164e-04  -2.722022e-03  0 
 6.569507e-04  -2.781061e-03  0 
 7.252069e-04  -2.757011e-03  0 
 9.418501e-04  -2.713143e-03  0 
 1.180065e-03  -2.825310e-03  0 
 4.841372e-04  -3.031539e-03  0 
 5.626694e-04  -3.153562e-03  0 
 6.546071e-04  -3.396338e-03  0 
 7.807335e-04  -3.663442e-03  0 
 7.710374e-04  -3.977599e-03  0 
 7.526779e-04  -4.379518e-03  0 
 6.825801e-04  -4.675993e-03  0 
 7.008731e-04  -5.003072e-03  0 
 1.844101e-03  -3.900208e-03  0 
 1.967408e-03  -4.190216e-03  0 
 1.988610e-03  -4.370701e-03  0 
 2.086564e-03  -4.569979e-03  0 
 2.152391e-03  -4.869214e-03  0 
 2.206060e-03  -5.133472e-03  0 
 2.272662e-03  -5.383372e-03  0 
 2.310611e-03  -5.620803e-03  0 
 7.365816e-04  -5.383043e-03  0 
 1.014381e-03  -5.534902e-03  0 
 1.332286e-03  -5.650473e-03  0 
 1.625346e-03  -5.723692e-03  0 
 1.922893e-03  -5.779544e-03  0 
 2.216368e-03  -5.747687e-03  0 
 2.380274e-03  -5.643233e-03  0 
 2.520246e-03  -5.647277e-03  0 
 4.135735e-04  -2.973940e-03  0 
 4.764856e-04  -3.013043e-03  0 
 5.805923e-04  -3.072001e-03  0 
 7.058330e-04  -3.101599e-03  0 
 8.042862e-04  -3.141058e-03  0 
 9.305211e-04  -3.214809e-03  0 
 1.148721e-03  -3.329044e-03  0 
 1.468337e-03  -3.531473e-03  0 
 5.423244e-04  -3.257924e-03  0 
 6.058991e-04  -3.337767e-03  0 
 7.037537e-04  -3.406014e-03  0 
 8.229542e-04  -3.469939e-03  0 
 9.663773e-04  -3.544527e-03  0 
 1.147343e-03  -3.655227e-03  0 
 1.390351e-03  -3.810174e-03  0 
 1.690148e-03  -4.005461e-03  0 
 6.755917e-04  -3.524999e-03  0 
 7.315405e-04  -3.631563e-03  0 
 8.334615e-04  -3.725044e-03  0 
 9.675110e-04  -3.818054e-03  0 
 1.134771e-03  -3.924041e-03  0 
 1.339157e-03  -4.050058e-03  0 
 1.578208e-03  -4.188600e-03  0 
 1.825825e-03  -4.306562e-03  0 
 7.757907e-04  -3.799791e-03  0 
 8.508857e-04  -3.919840e-03  0 
 9.652118e-04  -4.030528e-03  0 
 1.115980e-03  -4.142810e-03  0 
 1.296501e-03  -4.263575e-03  0 
 1.499382e-03  -4.389136e-03  0 
 1.710247e-03  -4.500711e-03  0 
 1.905560e-03  -4.567404e-03  0 
 8.518575e-04  -4.099948e-03  0 
 9.465696e-04  -4.214354e-03  0 
 1.084777e-03  -4.327668e-03  0 
 1.255087e-03  -4.444335e-03  0 
 1.445761e-03  -4.565800e-03  0 
 1.639895e-03  -4.684383e-03  0 
 1.822373e-03  -4.781851e-03  0 
 1.987779e-03  -4.843302e-03  0 
 8.666959e-04  -4.427464e-03  0 
 1.009198e-03  -4.521403e-03  0 
 1.178791e-03  -4.624340e-03  0 
 1.377058e-03  -4.733087e-03  0 
 1.584937e-03  -4.844317e-03  0 
 1.779737e-03  -4.951440e-03  0 
 1.943787e-03  -5.046748e-03  0 
 2.083229e-03  -5.112240e-03  0 
 8.542294e-04  -4.764843e-03  0 
 1.030622e-03  -4.839840e-03  0 
 1.242868e-03  -4.932126e-03  0 
 1.478984e-03  -5.028805e-03  0 
 1.716116e-03  -5.119432e-03  0 
 1.927113e-03  -5.204192e-03  0 
 2.091156e-03  -5.282792e-03  0 
 2.187711e-03  -5.357975e-03  0 
 8.072515e-04  -5.079375e-03  0 
 1.023907e-03  -5.166702e-03  0 
 1.288003e-03  -5.267283e-03  0 
 1.560224e-03  -5.357049e-03  0 
 1.832446e-03  -5.415954e-03  0 
 2.079118e-03  -5.458290e-03  0 
 2.249680e-03  -5.490752e-03  0 
 2.347374e-03  -5.517244e-03  0 
VECTORS displacement_ITER6 FLOAT
 3.263099e-04  -2.708937e-03  0 
 1.591460e-03  -3.241436e-03  0 
 4.641803e-04  -5.359689e-03  0 
 2.546973e-03  -5.656817e-03  0 
 7.746100e-05  -2.600890e-03  0 
 1.765839e-04  -2.533120e-03  0 
 3.740457e-04  -2.501922e-03  0 
 5.280006e-04  -2.544729e-03  0 
 6.766197e-04  -2.588825e-03  0 
 8.295348e-04  -2.646281e-03  0 
 1.068764e-03  -2.693025e-03  0 
 1.305452e-03  -2.926855e-03  0 
 4.285643e-04  -2.853746e-03  0 
 4.352801e-04  -3.081891e-03  0 
 5.172169e-04  -3.412309e-03  0 
 6.403183e-04  -3.712700e-03  0 
 7.537884e-04  -3.973244e-03  0 
 8.125765e-04  -4.254014e-03  0 
 7.060477e-04  -4.438705e-03  0 
 5.672521e-04  -4.888319e-03  0 
 1.820409e-03  -3.770004e-03  0 
 1.993402e-03  -4.097756e-03  0 
 2.047557e-03  -4.306352e-03  0 
 2.134892e-03  -4.567097e-03  0 
 2.151301e-03  -4.838309e-03  0 
 2.163841e-03  -5.111899e-03  0 
 2.183455e-03  -5.311567e-03  0 
 2.326563e-03  -5.520821e-03  0 
 7.883948e-04  -5.483253e-03  0 
 1.073770e-03  -5.497090e-03  0 
 1.302804e-03  -5.515943e-03  0 
 1.500975e-03  -5.555271e-03  0 
 1.736351e-03  -5.633129e-03  0 
 2.029141e-03  -5.691596e-03  0 
 2.272726e-03  -5.666684e-03  0 
 2.425935e-03  -5.690725e-03  0 
 2.857674e-04  -2.882824e-03  0 
 3.353486e-04  -2.938737e-03  0 
 4.820118e-04  -2.970267e-03  0 
 6.501374e-04  -3.001918e-03  0 
 8.190450e-04  -3.060212e-03  0 
 1.013060e-03  -3.148898e-03  0 
 1.260364e-03  -3.287270e-03  0 
 1.545090e-03  -3.481466e-03  0 
 4.517589e-04  -3.175831e-03  0 
 5.048863e-04  -3.275319e-03  0 
 6.204103e-04  -3.353899e-03  0 
 7.808464e-04  -3.421697e-03  0 
 9.702129e-04  -3.502249e-03  0 
 1.190684e-03  -3.611731e-03  0 
 1.446585e-03  -3.749239e-03  0 
 1.724704e-03  -3.913046e-03  0 
 5.809034e-04  -3.501670e-03  0 
 6.543405e-04  -3.598537e-03  0 
 7.669612e-04  -3.696492e-03  0 
 9.245523e-04  -3.793571e-03  0 
 1.120119e-03  -3.897780e-03  0 
 1.344726e-03  -4.013462e-03  0 
 1.590924e-03  -4.134268e-03  0 
 1.845400e-03  -4.242146e-03  0 
 6.882012e-04  -3.814214e-03  0 
 7.753417e-04  -3.909969e-03  0 
 9.009982e-04  -4.013735e-03  0 
 1.066598e-03  -4.126445e-03  0 
 1.262677e-03  -4.243029e-03  0 
 1.477192e-03  -4.358722e-03  0 
 1.698114e-03  -4.462646e-03  0 
 1.912400e-03  -4.533515e-03  0 
 7.781185e-04  -4.095843e-03  0 
 8.694781e-04  -4.197906e-03  0 
 1.017701e-03  -4.312600e-03  0 
 1.197269e-03  -4.431396e-03  0 
 1.394437e-03  -4.547629e-03  0 
 1.596528e-03  -4.656418e-03  0 
 1.790751e-03  -4.750564e-03  0 
 1.973377e-03  -4.819593e-03  0 
 8.195597e-04  -4.342980e-03  0 
 9.484361e-04  -4.475765e-03  0 
 1.120004e-03  -4.604150e-03  0 
 1.312419e-03  -4.720257e-03  0 
 1.512796e-03  -4.824315e-03  0 
 1.709907e-03  -4.918746e-03  0 
 1.890610e-03  -5.004576e-03  0 
 2.041417e-03  -5.074840e-03  0 
 8.424134e-04  -4.621307e-03  0 
 1.017195e-03  -4.773530e-03  0 
 1.207641e-03  -4.902233e-03  0 
 1.406137e-03  -5.004124e-03  0 
 1.613363e-03  -5.085620e-03  0 
 1.818852e-03  -5.159849e-03  0 
 2.003638e-03  -5.229684e-03  0 
 2.138687e-03  -5.290245e-03  0 
 8.374418e-04  -4.992129e-03  0 
 1.068925e-03  -5.113536e-03  0 
 1.273044e-03  -5.210912e-03  0 
 1.469692e-03  -5.288545e-03  0 
 1.686639e-03  -5.347108e-03  0 
 1.925628e-03  -5.398224e-03  0 
 2.130443e-03  -5.450327e-03  0 
 2.270794e-03  -5.475956e-03  0 
VECTORS displacement_ITER7 FLOAT
 2.925536e-04  -2.675004e-03  0 
 1.640538e-03  -3.165538e-03  0 
 5.565032e-04  -5.302154e-03  0 
 2.549067e-03  -5.691368e-03  0 
 1.835895e-04  -2.585632e-03  0 
 2.698721e-04  -2.578620e-03  0 
 3.688183e-04  -2.587188e-03  0 
 4.665665e-04  -2.580873e-03  0 
 6.429103e-04  -2.587113e-03  0 
 8.224944e-04  -2.666942e-03  0 
 1.007069e-03  -2.744975e-03  0 
 1.241595e-03  -2.914670e-03  0 
 4.167198e-04  -2.900399e-03  0 
 5.217586e-04  -3.186511e-03  0 
 5.797639e-04  -3.428482e-03  0 
 5.764753e-04  -3.679269e-03  0 
 6.228890e-04  -3.954603e-03  0 
 6.616571e-04  -4.266135e-03  0 
 6.696906e-04  -4.544020e-03  0 
 6.396655e-04  -4.920116e-03  0 
 1.801544e-03  -3.765279e-03  0 
 1.939299e-03  -4.140474e-03  0 
 1.988426e-03  -4.397082e-03  0 
 2.019764e-03  -4.652743e-03  0 
 2.025259e-03  -4.837822e-03  0 
 2.073134e-03  -5.049722e-03  0 
 2.126697e-03  -5.239575e-03  0 
 2.312443e-03  -5.440265e-03  0 
 7.720024e-04  -5.470749e-03  0 
 9.853568e-04  -5.543158e-03  0 
 1.233076e-03  -5.583928e-03  0 
 1.484857e-03  -5.591994e-03  0 
 1.726663e-03  -5.592168e-03  0 
 1.957417e-03  -5.628153e-03  0 
 2.197953e-03  -5.659172e-03  0 
 2.373032e-03  -5.678560e-03  0 
 3.519324e-04  -2.937016e-03  0 
 3.903476e-04  -2.961926e-03  0 
 4.813230e-04  -2.983860e-03  0 
 6.086689e-04  -3.026024e-03  0 
 7.799052e-04  -3.090475e-03  0 
 9.780854e-04  -3.173417e-03  0 
 1.204090e-03  -3.306545e-03  0 
 1.485734e-03  -3.504376e-03  0 
 4.783643e-04  -3.227864e-03  0 
 5.132718e-04  -3.287547e-03  0 
 6.118369e-04  -3.353743e-03  0 
 7.553289e-04  -3.430793e-03  0 
 9.333241e-04  -3.523486e-03  0 
 1.144270e-03  -3.637944e-03  0 
 1.389101e-03  -3.782619e-03  0 
 1.661557e-03  -3.955230e-03  0 
 5.695749e-04  -3.501094e-03  0 
 6.352571e-04  -3.593834e-03  0 
 7.491202e-04  -3.692306e-03  0 
 9.033445e-04  -3.795934e-03  0 
 1.090132e-03  -3.909393e-03  0 
 1.304078e-03  -4.035772e-03  0 
 1.537739e-03  -4.171904e-03  0 
 1.775829e-03  -4.304052e-03  0 
 6.510346e-04  -3.782618e-03  0 
 7.479561e-04  -3.895852e-03  0 
 8.812376e-04  -4.010402e-03  0 
 1.047279e-03  -4.128006e-03  0 
 1.238769e-03  -4.249133e-03  0 
 1.445895e-03  -4.372023e-03  0 
 1.656017e-03  -4.488616e-03  0 
 1.851000e-03  -4.584379e-03  0 
 7.190900e-04  -4.081882e-03  0 
 8.445193e-04  -4.197377e-03  0 
 9.994987e-04  -4.316038e-03  0 
 1.178520e-03  -4.434515e-03  0 
 1.372771e-03  -4.550087e-03  0 
 1.570350e-03  -4.658707e-03  0 
 1.755933e-03  -4.753500e-03  0 
 1.916164e-03  -4.821753e-03  0 
 7.691211e-04  -4.382482e-03  0 
 9.209884e-04  -4.501876e-03  0 
 1.098693e-03  -4.616141e-03  0 
 1.291450e-03  -4.724772e-03  0 
 1.489294e-03  -4.824352e-03  0 
 1.681085e-03  -4.911511e-03  0 
 1.852394e-03  -4.982736e-03  0 
 1.982442e-03  -5.032608e-03  0 
 7.992598e-04  -4.698706e-03  0 
 9.753577e-04  -4.816764e-03  0 
 1.175925e-03  -4.919465e-03  0 
 1.382903e-03  -5.008594e-03  0 
 1.587435e-03  -5.084809e-03  0 
 1.780750e-03  -5.147089e-03  0 
 1.951988e-03  -5.194404e-03  0 
 2.083938e-03  -5.227403e-03  0 
 7.988946e-04  -5.047396e-03  0 
 1.003249e-03  -5.160123e-03  0 
 1.224241e-03  -5.236331e-03  0 
 1.450981e-03  -5.294351e-03  0 
 1.666052e-03  -5.342273e-03  0 
 1.871614e-03  -5.379372e-03  0 
 2.061392e-03  -5.412579e-03  0 
 2.213996e-03  -5.429857e-03  0 
VECTORS displacement_ITER8 FLOAT
 2.368647e-04  -2.646260e-03  0 
 1.648474e-03  -3.140189e-03  0 
 5.299867e-04  -5.313622e-03  0 
 2.409390e-03  -5.615045e-03  0 
 1.969075e-04  -2.570456e-03  0 
 2.902903e-04  -2.578668e-03  0 
 3.807479e-04  -2.594761e-03  0 
 4.912008e-04  -2.590962e-03  0 
 6.494758e-04  -2.604199e-03  0 
 8.168563e-04  -2.668778e-03  0 
 9.739420e-04  -2.761830e-03  0 
 1.207025e-03  -2.917928e-03  0 
 3.761446e-04  -2.938497e-03  0 
 5.258826e-04  -3.247343e-03  0 
 5.879661e-04  -3.487364e-03  0 
 5.841477e-04  -3.740420e-03  0 
 6.133067e-04  -4.007774e-03  0 
 6.273299e-04  -4.284740e-03  0 
 6.695623e-04  -4.596278e-03  0 
 6.554395e-04  -4.889101e-03  0 
 1.791277e-03  -3.773091e-03  0 
 1.912103e-03  -4.113491e-03  0 
 1.993013e-03  -4.363758e-03  0 
 2.037222e-03  -4.611812e-03  0 
 2.073829e-03  -4.820247e-03  0 
 2.121373e-03  -5.065456e-03  0 
 2.147288e-03  -5.312467e-03  0 
 2.228041e-03  -5.499589e-03  0 
 7.490528e-04  -5.462945e-03  0 
 9.448006e-04  -5.564008e-03  0 
 1.200159e-03  -5.630706e-03  0 
 1.481098e-03  -5.663543e-03  0 
 1.753989e-03  -5.666356e-03  0 
 1.988648e-03  -5.686190e-03  0 
 2.225316e-03  -5.720694e-03  0 
 2.380733e-03  -5.683541e-03  0 
 3.562011e-04  -2.965393e-03  0 
 4.066555e-04  -2.977904e-03  0 
 4.979167e-04  -2.996981e-03  0 
 6.227517e-04  -3.035302e-03  0 
 7.862783e-04  -3.091836e-03  0 
 9.746067e-04  -3.171322e-03  0 
 1.191508e-03  -3.301693e-03  0 
 1.467302e-03  -3.505641e-03  0 
 4.774150e-04  -3.276233e-03  0 
 5.198044e-04  -3.319067e-03  0 
 6.204610e-04  -3.372157e-03  0 
 7.615460e-04  -3.439249e-03  0 
 9.361052e-04  -3.523340e-03  0 
 1.143942e-03  -3.630425e-03  0 
 1.386968e-03  -3.770763e-03  0 
 1.658014e-03  -3.940448e-03  0 
 5.691934e-04  -3.550384e-03  0 
 6.320471e-04  -3.629780e-03  0 
 7.469110e-04  -3.714616e-03  0 
 9.013576e-04  -3.807273e-03  0 
 1.087845e-03  -3.911556e-03  0 
 1.303017e-03  -4.029311e-03  0 
 1.539802e-03  -4.156018e-03  0 
 1.777978e-03  -4.276390e-03  0 
 6.445245e-04  -3.827530e-03  0 
 7.367546e-04  -3.928961e-03  0 
 8.706550e-04  -4.034314e-03  0 
 1.037936e-03  -4.143081e-03  0 
 1.230956e-03  -4.256760e-03  0 
 1.440991e-03  -4.372035e-03  0 
 1.656827e-03  -4.477761e-03  0 
 1.862342e-03  -4.559627e-03  0 
 7.009066e-04  -4.117236e-03  0 
 8.278840e-04  -4.228521e-03  0 
 9.830493e-04  -4.340272e-03  0 
 1.164269e-03  -4.452806e-03  0 
 1.361572e-03  -4.564502e-03  0 
 1.562333e-03  -4.670368e-03  0 
 1.754031e-03  -4.759753e-03  0 