# vtk DataFile Version 3.1
this is an vtk file created by FEMAC
ASCII
DATASET UNSTRUCTURED_GRID
POINTS 100 FLOAT
4.000000 1.000000 0.000000
4.000000 2.000000 0.000000
5.000000 1.000000 0.000000
5.000000 2.000000 0.000000
4.000000 1.111111 0.000000
4.000000 1.222222 0.000000
4.000000 1.333333 0.000000
4.000000 1.444444 0.000000
4.000000 1.555556 0.000000
4.000000 1.666667 0.000000
4.000000 1.777778 0.000000
4.000000 1.888889 0.000000
4.111111 1.000000 0.000000
4.222222 1.000000 0.000000
4.333333 1.000000 0.000000
4.444444 1.000000 0.000000
4.555556 1.000000 0.000000
4.666667 1.000000 0.000000
4.777778 1.000000 0.000000
4.888889 1.000000 0.000000
4.111111 2.000000 0.000000
4.222222 2.000000 0.000000
4.333333 2.000000 0.000000
4.444444 2.000000 0.000000
4.555556 2.000000 0.000000
4.666667 2.000000 0.000000
4.777778 2.000000 0.000000
4.888889 2.000000 0.000000
5.000000 1.111111 0.000000
5.000000 1.222222 0.000000
5.000000 1.333333 0.000000
5.000000 1.444444 0.000000
5.000000 1.555556 0.000000
5.000000 1.666667 0.000000
5.000000 1.777778 0.000000
5.000000 1.888889 0.000000
4.111111 1.111111 0.000000
4.111111 1.222222 0.000000
4.111111 1.333333 0.000000
4.111111 1.444444 0.000000
4.111111 1.555556 0.000000
4.111111 1.666667 0.000000
4.111111 1.777778 0.000000
4.111111 1.888889 0.000000
4.222222 1.111111 0.000000
4.222222 1.222222 0.000000
4.222222 1.333333 0.000000
4.222222 1.444444 0.000000
4.222222 1.555556 0.000000
4.222222 1.666667 0.000000
4.222222 1.777778 0.000000
4.222222 1.888889 0.000000
4.333333 1.111111 0.000000
4.333333 1.222222 0.000000
4.333333 1.333333 0.000000
4.333333 1.444444 0.000000
4.333333 1.555556 0.000000
4.333333 1.666667 0.000000
4.333333 1.777778 0.000000
4.333333 1.888889 0.000000
4.444444 1.111111 0.000000
4.444444 1.222222 0.000000
4.444444 1.333333 0.000000
4.444444 1.444444 0.000000
4.444444 1.555556 0.000000
4.444444 1.666667 0.000000
4.444444 1.777778 0.000000
4.444444 1.888889 0.000000
4.555556 1.111111 0.000000
4.555556 1.222222 0.000000
4.555556 1.333333 0.000000
4.555556 1.444444 0.000000
4.555556 1.555556 0.000000
4.555556 1.666667 0.000000
4.555556 1.777778 0.000000
4.555556 1.888889 0.000000
4.666667 1.111111 0.000000
4.666667 1.222222 0.000000
4.666667 1.333333 0.000000
4.666667 1.444444 0.000000
4.666667 1.555556 0.000000
4.666667 1.666667 0.000000
4.666667 1.777778 0.000000
4.666667 1.888889 0.000000
4.777778 1.111111 0.000000
4.777778 1.222222 0.000000
4.777778 1.333333 0.000000
4.777778 1.444444 0.000000
4.777778 1.555556 0.000000
4.777778 1.666667 0.000000
4.777778 1.777778 0.000000
4.777778 1.888889 0.000000
4.888889 1.111111 0.000000
4.888889 1.222222 0.000000
4.888889 1.333333 0.000000
4.888889 1.444444 0.000000
4.888889 1.555556 0.000000
4.888889 1.666667 0.000000
4.888889 1.777778 0.000000
4.888889 1.888889 0.000000
CELLS 81 405 
4 0 12 36  4
4 4 36 37  5
4 5 37 38  6
4 6 38 39  7
4 7 39 40  8
4 8 40 41  9
4 9 41 42 10
4 10 42 43 11
4 11 43 20  1
4 12 13 44 36
4 36 44 45 37
4 37 45 46 38
4 38 46 47 39
4 39 47 48 40
4 40 48 49 41
4 41 49 50 42
4 42 50 51 43
4 43 51 21 20
4 13 14 52 44
4 44 52 53 45
4 45 53 54 46
4 46 54 55 47
4 47 55 56 48
4 48 56 57 49
4 49 57 58 50
4 50 58 59 51
4 51 59 22 21
4 14 15 60 52
4 52 60 61 53
4 53 61 62 54
4 54 62 63 55
4 55 63 64 56
4 56 64 65 57
4 57 65 66 58
4 58 66 67 59
4 59 67 23 22
4 15 16 68 60
4 60 68 69 61
4 61 69 70 62
4 62 70 71 63
4 63 71 72 64
4 64 72 73 65
4 65 73 74 66
4 66 74 75 67
4 67 75 24 23
4 16 17 76 68
4 68 76 77 69
4 69 77 78 70
4 70 78 79 71
4 71 79 80 72
4 72 80 81 73
4 73 81 82 74
4 74 82 83 75
4 75 83 25 24
4 17 18 84 76
4 76 84 85 77
4 77 85 86 78
4 78 86 87 79
4 79 87 88 80
4 80 88 89 81
4 81 89 90 82
4 82 90 91 83
4 83 91 26 25
4 18 19 92 84
4 84 92 93 85
4 85 93 94 86
4 86 94 95 87
4 87 95 96 88
4 88 96 97 89
4 89 97 98 90
4 90 98 99 91
4 91 99 27 26
4 19  2 28 92
4 92 28 29 93
4 93 29 30 94
4 94 30 31 95
4 95 31 32 96
4 96 32 33 97
4 97 33 34 98
4 98 34 35 99
4 99 35  3 27
CELL_TYPES 81
9 9 9 9 9 9 9 9 9 9 9 9 9 9 9 9 9 9 9 9 9 9 9 9 9 9 9 9 9 9 9 9 9 9 9 9 9 9 9 9 9 9 9 9 9 9 9 9 9 9 9 9 9 9 9 9 9 9 9 9 9 9 9 9 9 9 9 9 9 9 9 9 9 9 9 9 9 9 9 9 9 
POINT_DATA 100
VECTORS displacement_ITER1 FLOAT
 -7.141815e-03  -1.276083e-02  0 
 -2.968466e-03  -1.251192e-02  0 
 -8.034352e-03  -1.794047e-02  0 
 -2.801838e-03  -1.733674e-02  0 
 -6.044650e-03  -1.229448e-02  0 
 -5.693557e-03  -1.199418e-02  0 
 -5.561566e-03  -1.204432e-02  0 
 -5.284436e-03  -1.222209e-02  0 
 -4.780872e-03  -1.214876e-02  0 
 -4.191876e-03  -1.221526e-02  0 
 -3.519816e-03  -1.218427e-02  0 
 -3.353787e-03  -1.198144e-02  0 
 -7.082036e-03  -1.353249e-02  0 
 -7.120749e-03  -1.399276e-02  0 
 -7.166924e-03  -1.434967e-02  0 
 -7.197154e-03  -1.487408e-02  0 
 -7.092905e-03  -1.545520e-02  0 
 -6.985449e-03  -1.596292e-02  0 
 -6.960904e-03  -1.641582e-02  0 
 -7.450282e-03  -1.670690e-02  0 
 -3.400366e-03  -1.290227e-02  0 
 -3.586179e-03  -1.339791e-02  0 
 -3.391827e-03  -1.381002e-02  0 
 -3.402532e-03  -1.445776e-02  0 
 -3.391007e-03  -1.505642e-02  0 
 -3.562208e-03  -1.533153e-02  0 
 -3.731139e-03  -1.554074e-02  0 
 -3.439829e-03  -1.579501e-02  0 
 -7.030052e-03  -1.733529e-02  0 
 -6.722474e-03  -1.694155e-02  0 
 -6.248898e-03  -1.696416e-02  0 
 -5.717605e-03  -1.699293e-02  0 
 -5.224190e-03  -1.695082e-02  0 
 -4.823362e-03  -1.694316e-02  0 
 -4.605398e-03  -1.698180e-02  0 
 -4.182288e-03  -1.720687e-02  0 
 -6.512506e-03  -1.320221e-02  0 
 -5.964172e-03  -1.289204e-02  0 
 -5.550462e-03  -1.279645e-02  0 
 -5.194461e-03  -1.283165e-02  0 
 -4.765300e-03  -1.289730e-02  0 
 -4.263627e-03  -1.290458e-02  0 
 -3.844241e-03  -1.284514e-02  0 
 -3.476089e-03  -1.288666e-02  0 
 -6.683419e-03  -1.382277e-02  0 
 -6.154504e-03  -1.366082e-02  0 
 -5.652043e-03  -1.354366e-02  0 
 -5.206458e-03  -1.350725e-02  0 
 -4.782680e-03  -1.351114e-02  0 
 -4.368167e-03  -1.349361e-02  0 
 -3.965158e-03  -1.345271e-02  0 
 -3.640615e-03  -1.338406e-02  0 
 -6.726907e-03  -1.435615e-02  0 
 -6.236085e-03  -1.430132e-02  0 
 -5.746898e-03  -1.421687e-02  0 
 -5.283073e-03  -1.414336e-02  0 
 -4.854212e-03  -1.409090e-02  0 
 -4.453135e-03  -1.404543e-02  0 
 -4.081923e-03  -1.398378e-02  0 
 -3.753306e-03  -1.389593e-02  0 
 -6.704938e-03  -1.490268e-02  0 
 -6.266888e-03  -1.487347e-02  0 
 -5.822689e-03  -1.480279e-02  0 
 -5.377890e-03  -1.471885e-02  0 
 -4.946480e-03  -1.463892e-02  0 
 -4.540885e-03  -1.456769e-02  0 
 -4.165983e-03  -1.450562e-02  0 
 -3.802386e-03  -1.446450e-02  0 
 -6.690514e-03  -1.544934e-02  0 
 -6.300198e-03  -1.539168e-02  0 
 -5.895293e-03  -1.531799e-02  0 
 -5.471829e-03  -1.523907e-02  0 
 -5.044093e-03  -1.515361e-02  0 
 -4.620500e-03  -1.506981e-02  0 
 -4.213247e-03  -1.501029e-02  0 
 -3.821771e-03  -1.499531e-02  0 
 -6.705562e-03  -1.592824e-02  0 
 -6.365083e-03  -1.584527e-02  0 
 -5.967924e-03  -1.578103e-02  0 
 -5.559073e-03  -1.571437e-02  0 
 -5.139433e-03  -1.564328e-02  0 
 -4.701441e-03  -1.556164e-02  0 
 -4.251939e-03  -1.547422e-02  0 
 -3.845459e-03  -1.542276e-02  0 
 -6.812734e-03  -1.629355e-02  0 
 -6.434139e-03  -1.626358e-02  0 
 -6.043504e-03  -1.620592e-02  0 
 -5.636197e-03  -1.614533e-02  0 
 -5.215275e-03  -1.610805e-02  0 
 -4.794597e-03  -1.605888e-02  0 
 -4.344553e-03  -1.593677e-02  0 
 -3.891409e-03  -1.573138e-02  0 
 -6.893690e-03  -1.672954e-02  0 
 -6.518185e-03  -1.668045e-02  0 
 -6.150747e-03  -1.658389e-02  0 
 -5.691541e-03  -1.654905e-02  0 
 -5.241879e-03  -1.654193e-02  0 
 -4.858381e-03  -1.653894e-02  0 
 -4.510492e-03  -1.647870e-02  0 
 -4.029360e-03  -1.621067e-02  0 
VECTORS displacement_ITER2 FLOAT
 -5.765166e-03  -1.003595e-02  0 
 -2.070611e-03  -9.364937e-03  0 
 -5.435380e-03  -1.363309e-02  0 
 -2.895798e-03  -1.285209e-02  0 
 -4.777800e-03  -9.699203e-03  0 
 -4.276304e-03  -9.528972e-03  0 
 -4.046792e-03  -9.523216e-03  0 
 -3.594562e-03  -9.545945e-03  0 
 -3.182430e-03  -9.614800e-03  0 
 -2.947483e-03  -9.671812e-03  0 
 -2.680009e-03  -9.473747e-03  0 
 -2.538424e-03  -9.089989e-03  0 
 -5.716325e-03  -1.072682e-02  0 
 -5.659872e-03  -1.096458e-02  0 
 -5.718913e-03  -1.122573e-02  0 
 -5.739148e-03  -1.159317e-02  0 
 -5.798805e-03  -1.202039e-02  0 
 -5.815799e-03  -1.256024e-02  0 
 -5.726789e-03  -1.321820e-02  0 
 -5.678420e-03  -1.352557e-02  0 
 -2.380206e-03  -1.011130e-02  0 
 -2.467152e-03  -1.047788e-02  0 
 -2.407885e-03  -1.073334e-02  0 
 -2.274678e-03  -1.107728e-02  0 
 -2.242558e-03  -1.157081e-02  0 
 -2.298395e-03  -1.205815e-02  0 
 -2.431997e-03  -1.255979e-02  0 
 -2.582712e-03  -1.300606e-02  0 
 -5.595792e-03  -1.371128e-02  0 
 -5.273600e-03  -1.378460e-02  0 
 -4.737329e-03  -1.380650e-02  0 
 -4.338250e-03  -1.378319e-02  0 
 -3.995823e-03  -1.377847e-02  0 
 -3.623887e-03  -1.381514e-02  0 
 -3.227314e-03  -1.381632e-02  0 
 -2.740130e-03  -1.362500e-02  0 
 -5.124926e-03  -1.045861e-02  0 
 -4.565754e-03  -1.021501e-02  0 
 -4.115328e-03  -1.012361e-02  0 
 -3.704465e-03  -1.011784e-02  0 
 -3.330897e-03  -1.008486e-02  0 
 -3.055299e-03  -1.002423e-02  0 
 -2.849567e-03  -9.950063e-03  0 
 -2.560653e-03  -9.988800e-03  0 
 -5.282394e-03  -1.091530e-02  0 
 -4.767511e-03  -1.080411e-02  0 
 -4.270137e-03  -1.070400e-02  0 
 -3.838593e-03  -1.063270e-02  0 
 -3.470801e-03  -1.056109e-02  0 
 -3.153054e-03  -1.048304e-02  0 
 -2.850757e-03  -1.044237e-02  0 
 -2.580068e-03  -1.044055e-02  0 
 -5.322021e-03  -1.128519e-02  0 
 -4.873105e-03  -1.128100e-02  0 
 -4.405516e-03  -1.122343e-02  0 
 -3.973616e-03  -1.114116e-02  0 
 -3.588452e-03  -1.105186e-02  0 
 -3.231457e-03  -1.096691e-02  0 
 -2.893054e-03  -1.088598e-02  0 
 -2.594426e-03  -1.079939e-02  0 
 -5.343745e-03  -1.168053e-02  0 
 -4.918175e-03  -1.172198e-02  0 
 -4.493403e-03  -1.170053e-02  0 
 -4.082895e-03  -1.163073e-02  0 
 -3.692182e-03  -1.154099e-02  0 
 -3.319784e-03  -1.144426e-02  0 
 -2.964424e-03  -1.133584e-02  0 
 -2.626713e-03  -1.120844e-02  0 
 -5.347167e-03  -1.212609e-02  0 
 -4.939013e-03  -1.217463e-02  0 
 -4.553916e-03  -1.215587e-02  0 
 -4.169302e-03  -1.209568e-02  0 
 -3.784288e-03  -1.201271e-02  0 
 -3.406766e-03  -1.191775e-02  0 
 -3.039315e-03  -1.181064e-02  0 
 -2.664042e-03  -1.169053e-02  0 
 -5.336688e-03  -1.263701e-02  0 
 -4.970141e-03  -1.262807e-02  0 
 -4.612973e-03  -1.259201e-02  0 
 -4.244609e-03  -1.253891e-02  0 
 -3.862642e-03  -1.247006e-02  0 
 -3.477587e-03  -1.238620e-02  0 
 -3.099520e-03  -1.229695e-02  0 
 -2.716712e-03  -1.219866e-02  0 
 -5.377170e-03  -1.312074e-02  0 
 -5.033863e-03  -1.305213e-02  0 
 -4.680482e-03  -1.300043e-02  0 
 -4.307036e-03  -1.296754e-02  0 
 -3.926642e-03  -1.292438e-02  0 
 -3.535761e-03  -1.285207e-02  0 
 -3.137308e-03  -1.276634e-02  0 
 -2.771351e-03  -1.268908e-02  0 
 -5.453031e-03  -1.350871e-02  0 
 -5.142541e-03  -1.341740e-02  0 
 -4.736406e-03  -1.338703e-02  0 
 -4.337936e-03  -1.338928e-02  0 
 -3.973202e-03  -1.337208e-02  0 
 -3.596564e-03  -1.332891e-02  0 
 -3.172176e-03  -1.323869e-02  0 
 -2.770172e-03  -1.311572e-02  0 
VECTORS displacement_ITER3 FLOAT
 -4.666821e-03  -9.134886e-03  0 
 -2.085227e-03  -8.475485e-03  0 
 -4.950706e-03  -1.227882e-02  0 
 -2.234906e-03  -1.198834e-02  0 
 -4.114825e-03  -8.865164e-03  0 
 -3.786710e-03  -8.593446e-03  0 
 -3.575671e-03  -8.537049e-03  0 
 -3.262482e-03  -8.503789e-03  0 
 -2.981624e-03  -8.523720e-03  0 
 -2.722899e-03  -8.536741e-03  0 
 -2.411261e-03  -8.461286e-03  0 
 -2.299897e-03  -8.232498e-03  0 
 -4.757117e-03  -9.435131e-03  0 
 -4.968757e-03  -9.685390e-03  0 
 -5.051733e-03  -1.014648e-02  0 
 -4.972675e-03  -1.059488e-02  0 
 -4.928839e-03  -1.095181e-02  0 
 -4.914848e-03  -1.130442e-02  0 
 -4.925479e-03  -1.172864e-02  0 
 -4.938462e-03  -1.201461e-02  0 
 -2.208667e-03  -8.981440e-03  0 
 -2.162271e-03  -9.285253e-03  0 
 -2.175857e-03  -9.700662e-03  0 
 -2.167404e-03  -1.004931e-02  0 
 -2.311404e-03  -1.040665e-02  0 
 -2.389763e-03  -1.071004e-02  0 
 -2.294625e-03  -1.099736e-02  0 
 -2.270305e-03  -1.151401e-02  0 
 -4.767280e-03  -1.227722e-02  0 
 -4.456402e-03  -1.221190e-02  0 
 -4.089747e-03  -1.219307e-02  0 
 -3.829683e-03  -1.216532e-02  0 
 -3.576350e-03  -1.215194e-02  0 
 -3.317463e-03  -1.214692e-02  0 
 -3.065960e-03  -1.213193e-02  0 
 -2.689340e-03  -1.215900e-02  0 
 -4.424016e-03  -9.296348e-03  0 
 -4.017234e-03  -9.155690e-03  0 
 -3.662771e-03  -9.069777e-03  0 
 -3.347620e-03  -9.038073e-03  0 
 -3.050238e-03  -9.007806e-03  0 
 -2.786124e-03  -8.975259e-03  0 
 -2.565829e-03  -8.907940e-03  0 
 -2.320215e-03  -8.899306e-03  0 
 -4.542770e-03  -9.698763e-03  0 
 -4.145956e-03  -9.658203e-03  0 
 -3.772496e-03  -9.590796e-03  0 
 -3.436442e-03  -9.530453e-03  0 
 -3.135383e-03  -9.476948e-03  0 
 -2.865493e-03  -9.419132e-03  0 
 -2.607888e-03  -9.372615e-03  0 
 -2.367170e-03  -9.332314e-03  0 
 -4.590142e-03  -1.015266e-02  0 
 -4.216538e-03  -1.012080e-02  0 
 -3.861730e-03  -1.006560e-02  0 
 -3.527144e-03  -9.997722e-03  0 
 -3.218985e-03  -9.927351e-03  0 
 -2.932877e-03  -9.861762e-03  0 
 -2.663893e-03  -9.799802e-03  0 
 -2.407527e-03  -9.735412e-03  0 
 -4.621472e-03  -1.059057e-02  0 
 -4.268436e-03  -1.055395e-02  0 
 -3.932046e-03  -1.050199e-02  0 
 -3.608354e-03  -1.043430e-02  0 
 -3.297330e-03  -1.035800e-02  0 
 -3.000823e-03  -1.028047e-02  0 
 -2.722898e-03  -1.020730e-02  0 
 -2.461186e-03  -1.013742e-02  0 
 -4.626687e-03  -1.097136e-02  0 
 -4.306208e-03  -1.095262e-02  0 
 -3.990494e-03  -1.090522e-02  0 
 -3.680017e-03  -1.084138e-02  0 
 -3.372888e-03  -1.076465e-02  0 
 -3.070670e-03  -1.067827e-02  0 
 -2.779085e-03  -1.058813e-02  0 
 -2.516320e-03  -1.050758e-02  0 
 -4.620608e-03  -1.133160e-02  0 
 -4.332581e-03  -1.131348e-02  0 
 -4.038985e-03  -1.127351e-02  0 
 -3.743004e-03  -1.121918e-02  0 
 -3.445331e-03  -1.115001e-02  0 
 -3.145110e-03  -1.106163e-02  0 
 -2.845805e-03  -1.095317e-02  0 
 -2.563159e-03  -1.082381e-02  0 
 -4.638865e-03  -1.167509e-02  0 
 -4.360135e-03  -1.164062e-02  0 
 -4.077553e-03  -1.160616e-02  0 
 -3.792540e-03  -1.156718e-02  0 
 -3.508941e-03  -1.151490e-02  0 
 -3.223353e-03  -1.143745e-02  0 
 -2.925011e-03  -1.132508e-02  0 
 -2.623160e-03  -1.117924e-02  0 
 -4.686325e-03  -1.198822e-02  0 
 -4.397511e-03  -1.193717e-02  0 
 -4.102573e-03  -1.190615e-02  0 
 -3.819760e-03  -1.188732e-02  0 
 -3.555405e-03  -1.185215e-02  0 
 -3.289729e-03  -1.180379e-02  0 
 -3.006875e-03  -1.172801e-02  0 
 -2.661419e-03  -1.160928e-02  0 
VECTORS displacement_ITER4 FLOAT
 -4.467984e-03  -8.618056e-03  0 
 -1.920098e-03  -8.300018e-03  0 
 -4.770534e-03  -1.189082e-02  0 
 -2.144034e-03  -1.144823e-02  0 
 -3.967616e-03  -8.559876e-03  0 
 -3.583738e-03  -8.338784e-03  0 
 -3.390334e-03  -8.308543e-03  0 
 -3.142690e-03  -8.318661e-03  0 
 -2.910729e-03  -8.324424e-03  0 
 -2.626993e-03  -8.364125e-03  0 
 -2.289392e-03  -8.380468e-03  0 
 -2.105862e-03  -8.331321e-03  0 
 -4.555361e-03  -9.029963e-03  0 
 -4.609538e-03  -9.420834e-03  0 
 -4.556453e-03  -9.823145e-03  0 
 -4.527736e-03  -1.017270e-02  0 
 -4.541094e-03  -1.050933e-02  0 
 -4.562694e-03  -1.083197e-02  0 
 -4.630412e-03  -1.118424e-02  0 
 -4.669817e-03  -1.153211e-02  0 
 -2.066747e-03  -8.876648e-03  0 
 -2.091367e-03  -9.073065e-03  0 
 -2.126006e-03  -9.403271e-03  0 
 -2.147291e-03  -9.691262e-03  0 
 -2.149815e-03  -1.000719e-02  0 
 -2.127035e-03  -1.039732e-02  0 
 -2.143241e-03  -1.077962e-02  0 
 -2.191488e-03  -1.109217e-02  0 
 -4.459884e-03  -1.180452e-02  0 
 -4.172445e-03  -1.173916e-02  0 
 -3.921994e-03  -1.174254e-02  0 
 -3.684574e-03  -1.178373e-02  0 
 -3.393583e-03  -1.179701e-02  0 
 -3.072965e-03  -1.177467e-02  0 
 -2.766929e-03  -1.169071e-02  0 
 -2.523736e-03  -1.164022e-02  0 
 -4.148632e-03  -8.978955e-03  0 
 -3.781530e-03  -8.892882e-03  0 
 -3.459741e-03  -8.817987e-03  0 
 -3.189148e-03  -8.797143e-03  0 
 -2.918837e-03  -8.799409e-03  0 
 -2.643630e-03  -8.809432e-03  0 
 -2.394034e-03  -8.794349e-03  0 
 -2.183527e-03  -8.783833e-03  0 
 -4.222603e-03  -9.418113e-03  0 
 -3.879308e-03  -9.367125e-03  0 
 -3.552643e-03  -9.307953e-03  0 
 -3.247126e-03  -9.263220e-03  0 
 -2.961591e-03  -9.237180e-03  0 
 -2.694226e-03  -9.210800e-03  0 
 -2.449843e-03  -9.178730e-03  0 
 -2.236050e-03  -9.143200e-03  0 
 -4.256672e-03  -9.827494e-03  0 
 -3.942009e-03  -9.794353e-03  0 
 -3.626431e-03  -9.747649e-03  0 
 -3.318212e-03  -9.697427e-03  0 
 -3.026242e-03  -9.647247e-03  0 
 -2.754618e-03  -9.594924e-03  0 
 -2.505854e-03  -9.535812e-03  0 
 -2.294199e-03  -9.465844e-03  0 
 -4.274456e-03  -1.019227e-02  0 
 -3.987804e-03  -1.018043e-02  0 
 -3.688375e-03  -1.014586e-02  0 
 -3.388923e-03  -1.009604e-02  0 
 -3.098463e-03  -1.003509e-02  0 
 -2.823147e-03  -9.964733e-03  0 
 -2.567861e-03  -9.883148e-03  0 
 -2.336693e-03  -9.791352e-03  0 
 -4.292567e-03  -1.053308e-02  0 
 -4.024796e-03  -1.053570e-02  0 
 -3.742655e-03  -1.051258e-02  0 
 -3.455643e-03  -1.046662e-02  0 
 -3.170470e-03  -1.040285e-02  0 
 -2.893181e-03  -1.032490e-02  0 
 -2.628630e-03  -1.023436e-02  0 
 -2.379390e-03  -1.012851e-02  0 
 -4.318839e-03  -1.086334e-02  0 
 -4.059260e-03  -1.087297e-02  0 
 -3.793186e-03  -1.085654e-02  0 
 -3.518574e-03  -1.081587e-02  0 
 -3.238615e-03  -1.075581e-02  0 
 -2.957568e-03  -1.067988e-02  0 
 -2.681388e-03  -1.059145e-02  0 
 -2.413395e-03  -1.049377e-02  0 
 -4.347915e-03  -1.119168e-02  0 
 -4.096128e-03  -1.119479e-02  0 
 -3.843732e-03  -1.118201e-02  0 
 -3.579331e-03  -1.114934e-02  0 
 -3.299809e-03  -1.109888e-02  0 
 -3.012731e-03  -1.103562e-02  0 
 -2.720985e-03  -1.095555e-02  0 
 -2.430620e-03  -1.086858e-02  0 
 -4.392519e-03  -1.150821e-02  0 
 -4.134077e-03  -1.149107e-02  0 
 -3.893266e-03  -1.148479e-02  0 
 -3.637517e-03  -1.147102e-02  0 
 -3.353221e-03  -1.144082e-02  0 
 -3.049581e-03  -1.139335e-02  0 
 -2.756429e-03  -1.133480e-02  0 
 -2.452769e-03  -1.122575e-02  0 
VECTORS displacement_ITER5 FLOAT
 -4.371671e-03  -8.470589e-03  0 
 -1.971715e-03  -8.211009e-03  0 
 -4.632313e-03  -1.168753e-02  0 
 -2.110047e-03  -1.143796e-02  0 
 -3.911773e-03  -8.422444e-03  0 
 -3.583770e-03  -8.318403e-03  0 
 -3.367328e-03  -8.284228e-03  0 
 -3.118001e-03  -8.282583e-03  0 
 -2.873226e-03  -8.271239e-03  0 
 -2.594383e-03  -8.283216e-03  0 
 -2.287309e-03  -8.270381e-03  0 
 -2.040954e-03  -8.224166e-03  0 
 -4.462050e-03  -8.894041e-03  0 
 -4.454166e-03  -9.316127e-03  0 
 -4.410159e-03  -9.659371e-03  0 
 -4.444827e-03  -9.993297e-03  0 
 -4.487702e-03  -1.036304e-02  0 
 -4.501009e-03  -1.072217e-02  0 
 -4.534137e-03  -1.105398e-02  0 
 -4.541777e-03  -1.139925e-02  0 
 -2.072565e-03  -8.611677e-03  0 
 -2.111052e-03  -8.918698e-03  0 
 -2.153158e-03  -9.291835e-03  0 
 -2.168179e-03  -9.632943e-03  0 
 -2.187554e-03  -9.958291e-03  0 
 -2.182700e-03  -1.030435e-02  0 
 -2.147254e-03  -1.061365e-02  0 
 -2.152257e-03  -1.094372e-02  0 
 -4.385970e-03  -1.161793e-02  0 
 -4.130245e-03  -1.159534e-02  0 
 -3.869635e-03  -1.160871e-02  0 
 -3.585686e-03  -1.161347e-02  0 
 -3.300858e-03  -1.157620e-02  0 
 -3.031142e-03  -1.154518e-02  0 
 -2.755970e-03  -1.150302e-02  0 
 -2.520975e-03  -1.147401e-02  0 
 -4.055634e-03  -8.873087e-03  0 
 -3.723327e-03  -8.809311e-03  0 
 -3.431463e-03  -8.759799e-03  0 
 -3.166216e-03  -8.738441e-03  0 
 -2.901113e-03  -8.729585e-03  0 
 -2.634621e-03  -8.719669e-03  0 
 -2.384730e-03  -8.690033e-03  0 
 -2.179852e-03  -8.635484e-03  0 
 -4.124889e-03  -9.301560e-03  0 
 -3.810130e-03  -9.256910e-03  0 
 -3.507379e-03  -9.212746e-03  0 
 -3.221201e-03  -9.178253e-03  0 
 -2.949813e-03  -9.150678e-03  0 
 -2.694113e-03  -9.117203e-03  0 
 -2.462915e-03  -9.068176e-03  0 
 -2.266438e-03  -9.002923e-03  0 
 -4.163032e-03  -9.677313e-03  0 
 -3.868213e-03  -9.661405e-03  0 
 -3.571241e-03  -9.629105e-03  0 
 -3.283412e-03  -9.589386e-03  0 
 -3.010810e-03  -9.544677e-03  0 
 -2.757875e-03  -9.492341e-03  0 
 -2.528465e-03  -9.429502e-03  0 
 -2.326762e-03  -9.357763e-03  0 
 -4.181802e-03  -1.002701e-02  0 
 -3.906844e-03  -1.003408e-02  0 
 -3.624445e-03  -1.001198e-02  0 
 -3.344851e-03  -9.971214e-03  0 
 -3.074917e-03  -9.917169e-03  0 
 -2.819560e-03  -9.852936e-03  0 
 -2.582933e-03  -9.781433e-03  0 
 -2.366078e-03  -9.706450e-03  0 
 -4.205422e-03  -1.038440e-02  0 
 -3.939530e-03  -1.038752e-02  0 
 -3.671628e-03  -1.036866e-02  0 
 -3.402937e-03  -1.032862e-02  0 
 -3.136850e-03  -1.027228e-02  0 
 -2.876954e-03  -1.020319e-02  0 
 -2.627504e-03  -1.012579e-02  0 
 -2.395608e-03  -1.004635e-02  0 
 -4.238803e-03  -1.073347e-02  0 
 -3.976869e-03  -1.072837e-02  0 
 -3.718948e-03  -1.070478e-02  0 
 -3.457622e-03  -1.066606e-02  0 
 -3.193963e-03  -1.061389e-02  0 
 -2.930091e-03  -1.054748e-02  0 
 -2.667750e-03  -1.046664e-02  0 
 -2.413259e-03  -1.037763e-02  0 
 -4.269325e-03  -1.106622e-02  0 
 -4.023555e-03  -1.104959e-02  0 
 -3.770185e-03  -1.102185e-02  0 
 -3.508399e-03  -1.098727e-02  0 
 -3.242339e-03  -1.094424e-02  0 
 -2.977113e-03  -1.088893e-02  0 
 -2.708753e-03  -1.081310e-02  0 
 -2.430198e-03  -1.071653e-02  0 
 -4.317109e-03  -1.136606e-02  0 
 -4.078485e-03  -1.134176e-02  0 
 -3.824257e-03  -1.132159e-02  0 
 -3.551856e-03  -1.129705e-02  0 
 -3.278031e-03  -1.126652e-02  0 
 -3.010485e-03  -1.122188e-02  0 
 -2.747900e-03  -1.116820e-02  0 
 -2.464869e-03  -1.107917e-02  0 
VECTORS displacement_ITER6 FLOAT
 -4.343636e-03  -8.456593e-03  0 
 -1.947332e-03  -8.187397e-03  0 
 -4.544814e-03  -1.159280e-02  0 
 -2.153826e-03  -1.130061e-02  0 
 -3.893207e-03  -8.364805e-03  0 
 -3.608325e-03  -8.294375e-03  0 
 -3.346915e-03  -8.245178e-03  0 
 -3.067317e-03  -8.241057e-03  0 
 -2.797856e-03  -8.245855e-03  0 
 -2.536311e-03  -8.272040e-03  0 
 -2.283839e-03  -8.269932e-03  0 
 -2.036891e-03  -8.226768e-03  0 
 -4.382398e-03  -8.856607e-03  0 
 -4.394983e-03  -9.255186e-03  0 
 -4.413000e-03  -9.602400e-03  0 
 -4.456529e-03  -9.961415e-03  0 
 -4.481921e-03  -1.032212e-02  0 
 -4.493270e-03  -1.067185e-02  0 
 -4.507343e-03  -1.099542e-02  0 
 -4.513127e-03  -1.134295e-02  0 
 -2.023931e-03  -8.587526e-03  0 
 -2.074554e-03  -8.917317e-03  0 
 -2.096732e-03  -9.253958e-03  0 
 -2.116571e-03  -9.594182e-03  0 
 -2.101149e-03  -9.919639e-03  0 
 -2.090208e-03  -1.025646e-02  0 
 -2.093827e-03  -1.058717e-02  0 
 -2.136532e-03  -1.090118e-02  0 
 -4.363138e-03  -1.156302e-02  0 
 -4.105985e-03  -1.156337e-02  0 
 -3.837895e-03  -1.156033e-02  0 
 -3.560514e-03  -1.154424e-02  0 
 -3.293601e-03  -1.151988e-02  0 
 -3.026083e-03  -1.151035e-02  0 
 -2.727252e-03  -1.149234e-02  0 
 -2.452997e-03  -1.140834e-02  0 
 -4.033558e-03  -8.831229e-03  0 
 -3.709942e-03  -8.767751e-03  0 
 -3.411379e-03  -8.730988e-03  0 
 -3.122354e-03  -8.710200e-03  0 
 -2.844838e-03  -8.698852e-03  0 
 -2.586350e-03  -8.686216e-03  0 
 -2.353382e-03  -8.664089e-03  0 
 -2.159464e-03  -8.619935e-03  0 
 -4.097828e-03  -9.241763e-03  0 
 -3.787146e-03  -9.211553e-03  0 
 -3.478752e-03  -9.177234e-03  0 
 -3.183954e-03  -9.146720e-03  0 
 -2.905569e-03  -9.115427e-03  0 
 -2.648909e-03  -9.078961e-03  0 
 -2.420934e-03  -9.033024e-03  0 
 -2.225148e-03  -8.978081e-03  0 
 -4.138358e-03  -9.620361e-03  0 
 -3.840282e-03  -9.613691e-03  0 
 -3.540299e-03  -9.588939e-03  0 
 -3.248426e-03  -9.552192e-03  0 
 -2.971478e-03  -9.506607e-03  0 
 -2.714059e-03  -9.452218e-03  0 
 -2.480456e-03  -9.390266e-03  0 
 -2.276150e-03  -9.323428e-03  0 
 -4.166747e-03  -9.985220e-03  0 
 -3.880917e-03  -9.989690e-03  0 
 -3.594102e-03  -9.970231e-03  0 
 -3.311397e-03  -9.931438e-03  0 
 -3.037797e-03  -9.877543e-03  0 
 -2.777260e-03  -9.812198e-03  0 
 -2.533405e-03  -9.738817e-03  0 
 -2.309463e-03  -9.662943e-03  0 
 -4.194990e-03  -1.034574e-02  0 
 -3.917858e-03  -1.034734e-02  0 
 -3.643852e-03  -1.032825e-02  0 
 -3.371569e-03  -1.028871e-02  0 
 -3.101900e-03  -1.023238e-02  0 
 -2.837354e-03  -1.016270e-02  0 
 -2.580770e-03  -1.008355e-02  0 
 -2.335252e-03  -9.999874e-03  0 
 -4.222770e-03  -1.069030e-02  0 
 -3.955787e-03  -1.068828e-02  0 
 -3.693369e-03  -1.066564e-02  0 
 -3.429265e-03  -1.062730e-02  0 
 -3.162363e-03  -1.057431e-02  0 
 -2.893812e-03  -1.050695e-02  0 
 -2.624873e-03  -1.042742e-02  0 
 -2.356990e-03  -1.034108e-02  0 
 -4.247709e-03  -1.101910e-02  0 
 -3.999226e-03  -1.100639e-02  0 
 -3.744146e-03  -1.098106e-02  0 
 -3.482697e-03  -1.094889e-02  0 
 -3.217185e-03  -1.090539e-02  0 
 -2.946074e-03  -1.084685e-02  0 
 -2.667330e-03  -1.077318e-02  0 
 -2.381252e-03  -1.068582e-02  0 
 -4.290298e-03  -1.131855e-02  0 
 -4.053034e-03  -1.129521e-02  0 
 -3.793179e-03  -1.127635e-02  0 
 -3.527034e-03  -1.125364e-02  0 
 -3.262654e-03  -1.122475e-02  0 
 -2.992586e-03  -1.118200e-02  0 
 -2.706646e-03  -1.112335e-02  0 
 -2.413736e-03  -1.103931e-02  0 
VECTORS displacement_ITER7 FLOAT
 -4.271654e-03  -8.457700e-03  0 
 -1.965382e-03  -8.253793e-03  0 
 -4.562028e-03  -1.157921e-02  0 
 -2.125508e-03  -1.130957e-02  0 
 -3.900326e-03  -8.350457e-03  0 
 -3.619891e-03  -8.283193e-03  0 
 -3.330570e-03  -8.246301e-03  0 
 -3.059428e-03  -8.242818e-03  0 
 -2.795799e-03  -8.239261e-03  0 
 -2.539810e-03  -8.243835e-03  0 
 -2.291672e-03  -8.243889e-03  0 
 -2.037785e-03  -8.221748e-03  0 
 -4.327467e-03  -8.830108e-03  0 
 -4.359638e-03  -9.212558e-03  0 
 -4.399675e-03  -9.587292e-03  0 
 -4.415452e-03  -9.961732e-03  0 
 -4.416359e-03  -1.030564e-02  0 
 -4.429715e-03  -1.063843e-02  0 
 -4.446566e-03  -1.095192e-02  0 
 -4.486202e-03  -1.128293e-02  0 
 -2.011975e-03  -8.570016e-03  0 
 -2.069484e-03  -8.920851e-03  0 
 -2.088974e-03  -9.244657e-03  0 
 -2.104682e-03  -9.581227e-03  0 
 -2.109327e-03  -9.904744e-03  0 
 -2.120459e-03  -1.020843e-02  0 
 -2.109982e-03  -1.051521e-02  0 
 -2.131340e-03  -1.087243e-02  0 
 -4.323620e-03  -1.152964e-02  0 
 -4.062265e-03  -1.150188e-02  0 
 -3.800549e-03  -1.147263e-02  0 
 -3.538716e-03  -1.144451e-02  0 
 -3.280104e-03  -1.142976e-02  0 
 -3.017900e-03  -1.142215e-02  0 
 -2.743622e-03  -1.142032e-02  0 
 -2.447373e-03  -1.137340e-02  0 
 -4.014253e-03  -8.804692e-03  0 
 -3.698683e-03  -8.757073e-03  0 
 -3.398998e-03  -8.725512e-03  0 
 -3.113791e-03  -8.701999e-03  0 
 -2.844272e-03  -8.686364e-03  0 
 -2.588256e-03  -8.671062e-03  0 
 -2.350769e-03  -8.651867e-03  0 
 -2.150771e-03  -8.616732e-03  0 
 -4.067315e-03  -9.211833e-03  0 
 -3.762385e-03  -9.194041e-03  0 
 -3.461615e-03  -9.164921e-03  0 
 -3.173663e-03  -9.134055e-03  0 
 -2.900655e-03  -9.102031e-03  0 
 -2.645773e-03  -9.067032e-03  0 
 -2.415548e-03  -9.023648e-03  0 
 -2.219058e-03  -8.970508e-03  0 
 -4.100667e-03  -9.601273e-03  0 
 -3.808229e-03  -9.595041e-03  0 
 -3.517682e-03  -9.571163e-03  0 
 -3.233995e-03  -9.535143e-03  0 
 -2.962430e-03  -9.490688e-03  0 
 -2.707884e-03  -9.438381e-03  0 
 -2.475591e-03  -9.378439e-03  0 
 -2.269476e-03  -9.312844e-03  0 
 -4.128292e-03  -9.975282e-03  0 
 -3.847157e-03  -9.970081e-03  0 
 -3.568450e-03  -9.947563e-03  0 
 -3.293487e-03  -9.908859e-03  0 
 -3.025823e-03  -9.856363e-03  0 
 -2.769546e-03  -9.792840e-03  0 
 -2.529001e-03  -9.722140e-03  0 
 -2.307319e-03  -9.649276e-03  0 
 -4.152594e-03  -1.032572e-02  0 
 -3.884039e-03  -1.032145e-02  0 
 -3.616868e-03  -1.029879e-02  0 
 -3.351506e-03  -1.025913e-02  0 
 -3.088519e-03  -1.020388e-02  0 
 -2.829511e-03  -1.013528e-02  0 
 -2.576976e-03  -1.005748e-02  0 
 -2.336118e-03  -9.978515e-03  0 
 -4.175538e-03  -1.065368e-02  0 
 -3.920091e-03  -1.064937e-02  0 
 -3.664107e-03  -1.062641e-02  0 
 -3.407332e-03  -1.058856e-02  0 
 -3.148948e-03  -1.053626e-02  0 
 -2.888079e-03  -1.046940e-02  0 
 -2.624580e-03  -1.038932e-02  0 
 -2.361264e-03  -1.029950e-02  0 
 -4.204168e-03  -1.096605e-02  0 
 -3.959146e-03  -1.095407e-02  0 
 -3.710321e-03  -1.093014e-02  0 
 -3.458735e-03  -1.089734e-02  0 
 -3.204585e-03  -1.085400e-02  0 
 -2.943951e-03  -1.079682e-02  0 
 -2.673656e-03  -1.072339e-02  0 
 -2.395201e-03  -1.063009e-02  0 
 -4.249891e-03  -1.126029e-02  0 
 -4.006884e-03  -1.123592e-02  0 
 -3.754943e-03  -1.121104e-02  0 
 -3.502935e-03  -1.118393e-02  0 
 -3.250305e-03  -1.115361e-02  0 
 -2.991956e-03  -1.111719e-02  0 
 -2.718066e-03  -1.106388e-02  0 
 -2.428388e-03  -1.098800e-02  0 
VECTORS displacement_ITER8 FLOAT
 -4.286243e-03  -8.431597e-03  0 
 -1.922907e-03  -8.248484e-03  0 
 -4.525780e-03  -1.153689e-02  0 
 -2.137150e-03  -1.127438e-02  0 
 -3.910249e-03  -8.335109e-03  0 
 -3.609892e-03  -8.285909e-03  0 
 -3.324359e-03  -8.269608e-03  0 
 -3.068482e-03  -8.261063e-03  0 
 -2.809761e-03  -8.249602e-03  0 
 -2.552288e-03  -8.244511e-03  0 
 -2.300275e-03  -8.254372e-03  0 
 -2.063017e-03  -8.249050e-03  0 
 -4.329120e-03  -8.844955e-03  0 
 -4.352094e-03  -9.227152e-03  0 
 -4.378098e-03  -9.588701e-03  0 
 -4.387903e-03  -9.932808e-03  0 
 -4.405234e-03  -1.026448e-02  0 
 -4.435976e-03  -1.060761e-02  0 
 -4.451886e-03  -1.094851e-02  0 
 -4.478413e-03  -1.126786e-02  0 
 -2.004060e-03  -8.614186e-03  0 
 -2.072096e-03  -8.936502e-03  0 
 -2.086776e-03  -9.237059e-03  0 
 -2.097509e-03  -9.554598e-03  0 
 -2.096879e-03  -9.878882e-03  0 
 -2.109508e-03  -1.019428e-02  0 
 -2.126603e-03  -1.051549e-02  0 
 -2.157049e-03  -1.086223e-02  0 
 -4.333801e-03  -1.149885e-02  0 
 -4.087515e-03  -1.148264e-02  0 
 -3.826729e-03  -1.146751e-02  0 
 -3.555475e-03  -1.145546e-02  0 
 -3.274052e-03  -1.144631e-02  0 
 -2.992444e-03  -1.142031e-02  0 
 -2.728917e-03  -1.139035e-02  0 
 -2.449050e-03  -1.134301e-02  0 
 -4.009220e-03  -8.810863e-03  0 
 -3.689700e-03  -8.763995e-03  0 
 -3.395079e-03  -8.730622e-03  0 
 -3.119542e-03  -8.707310e-03  0 
 -2.854407e-03  -8.691114e-03  0 
 -2.595685e-03  -8.677034e-03  0 
 -2.354846e-03  -8.661031e-03  0 
 -2.152685e-03  -8.638751e-03  0 
 -4.061300e-03  -9.221313e-03  0 
 -3.758354e-03  -9.196872e-03  0 
 -3.461056e-03  -9.163944e-03  0 
 -3.176878e-03  -9.132340e-03  0 
 -2.905392e-03  -9.102122e-03  0 
 -2.648296e-03  -9.069287e-03  0 
 -2.413212e-03  -9.029359e-03  0 
 -2.212142e-03  -8.982744e-03  0 