# vtk DataFile Version 3.1
this is an vtk file created by FEMAC
ASCII
DATASET UNSTRUCTURED_GRID
POINTS 100 FLOAT
3.000000 5.000000 0.000000
3.000000 6.000000 0.000000
4.000000 5.000000 0.000000
4.000000 6.000000 0.000000
3.000000 5.111111 0.000000
3.000000 5.222222 0.000000
3.000000 5.333333 0.000000
3.000000 5.444444 0.000000
3.000000 5.555556 0.000000
3.000000 5.666667 0.000000
3.000000 5.777778 0.000000
3.000000 5.888889 0.000000
3.111111 5.000000 0.000000
3.222222 5.000000 0.000000
3.333333 5.000000 0.000000
3.444444 5.000000 0.000000
3.555556 5.000000 0.000000
3.666667 5.000000 0.000000
3.777778 5.000000 0.000000
3.888889 5.000000 0.000000
3.111111 6.000000 0.000000
3.222222 6.000000 0.000000
3.333333 6.000000 0.000000
3.444444 6.000000 0.000000
3.555556 6.000000 0.000000
3.666667 6.000000 0.000000
3.777778 6.000000 0.000000
3.888889 6.000000 0.000000
4.000000 5.111111 0.000000
4.000000 5.222222 0.000000
4.000000 5.333333 0.000000
4.000000 5.444444 0.000000
4.000000 5.555556 0.000000
4.000000 5.666667 0.000000
4.000000 5.777778 0.000000
4.000000 5.888889 0.000000
3.111111 5.111111 0.000000
3.111111 5.222222 0.000000
3.111111 5.333333 0.000000
3.111111 5.444444 0.000000
3.111111 5.555556 0.000000
3.111111 5.666667 0.000000
3.111111 5.777778 0.000000
3.111111 5.888889 0.000000
3.222222 5.111111 0.000000
3.222222 5.222222 0.000000
3.222222 5.333333 0.000000
3.222222 5.444444 0.000000
3.222222 5.555556 0.000000
3.222222 5.666667 0.000000
3.222222 5.777778 0.000000
3.222222 5.888889 0.000000
3.333333 5.111111 0.000000
3.333333 5.222222 0.000000
3.333333 5.333333 0.000000
3.333333 5.444444 0.000000
3.333333 5.555556 0.000000
3.333333 5.666667 0.000000
3.333333 5.777778 0.000000
3.333333 5.888889 0.000000
3.444444 5.111111 0.000000
3.444444 5.222222 0.000000
3.444444 5.333333 0.000000
3.444444 5.444444 0.000000
3.444444 5.555556 0.000000
3.444444 5.666667 0.000000
3.444444 5.777778 0.000000
3.444444 5.888889 0.000000
3.555556 5.111111 0.000000
3.555556 5.222222 0.000000
3.555556 5.333333 0.000000
3.555556 5.444444 0.000000
3.555556 5.555556 0.000000
3.555556 5.666667 0.000000
3.555556 5.777778 0.000000
3.555556 5.888889 0.000000
3.666667 5.111111 0.000000
3.666667 5.222222 0.000000
3.666667 5.333333 0.000000
3.666667 5.444444 0.000000
3.666667 5.555556 0.000000
3.666667 5.666667 0.000000
3.666667 5.777778 0.000000
3.666667 5.888889 0.000000
3.777778 5.111111 0.000000
3.777778 5.222222 0.000000
3.777778 5.333333 0.000000
3.777778 5.444444 0.000000
3.777778 5.555556 0.000000
3.777778 5.666667 0.000000
3.777778 5.777778 0.000000
3.777778 5.888889 0.000000
3.888889 5.111111 0.000000
3.888889 5.222222 0.000000
3.888889 5.333333 0.000000
3.888889 5.444444 0.000000
3.888889 5.555556 0.000000
3.888889 5.666667 0.000000
3.888889 5.777778 0.000000
3.888889 5.888889 0.000000
CELLS 81 405 
4 0 12 36  4
4 4 36 37  5
4 5 37 38  6
4 6 38 39  7
4 7 39 40  8
4 8 40 41  9
4 9 41 42 10
4 10 42 43 11
4 11 43 20  1
4 12 13 44 36
4 36 44 45 37
4 37 45 46 38
4 38 46 47 39
4 39 47 48 40
4 40 48 49 41
4 41 49 50 42
4 42 50 51 43
4 43 51 21 20
4 13 14 52 44
4 44 52 53 45
4 45 53 54 46
4 46 54 55 47
4 47 55 56 48
4 48 56 57 49
4 49 57 58 50
4 50 58 59 51
4 51 59 22 21
4 14 15 60 52
4 52 60 61 53
4 53 61 62 54
4 54 62 63 55
4 55 63 64 56
4 56 64 65 57
4 57 65 66 58
4 58 66 67 59
4 59 67 23 22
4 15 16 68 60
4 60 68 69 61
4 61 69 70 62
4 62 70 71 63
4 63 71 72 64
4 64 72 73 65
4 65 73 74 66
4 66 74 75 67
4 67 75 24 23
4 16 17 76 68
4 68 76 77 69
4 69 77 78 70
4 70 78 79 71
4 71 79 80 72
4 72 80 81 73
4 73 81 82 74
4 74 82 83 75
4 75 83 25 24
4 17 18 84 76
4 76 84 85 77
4 77 85 86 78
4 78 86 87 79
4 79 87 88 80
4 80 88 89 81
4 81 89 90 82
4 82 90 91 83
4 83 91 26 25
4 18 19 92 84
4 84 92 93 85
4 85 93 94 86
4 86 94 95 87
4 87 95 96 88
4 88 96 97 89
4 89 97 98 90
4 90 98 99 91
4 91 99 27 26
4 19  2 28 92
4 92 28 29 93
4 93 29 30 94
4 94 30 31 95
4 95 31 32 96
4 96 32 33 97
4 97 33 34 98
4 98 34 35 99
4 99 35  3 27
CELL_TYPES 81
9 9 9 9 9 9 9 9 9 9 9 9 9 9 9 9 9 9 9 9 9 9 9 9 9 9 9 9 9 9 9 9 9 9 9 9 9 9 9 9 9 9 9 9 9 9 9 9 9 9 9 9 9 9 9 9 9 9 9 9 9 9 9 9 9 9 9 9 9 9 9 9 9 9 9 9 9 9 9 9 9 
POINT_DATA 100
VECTORS displacement_ITER1 FLOAT
 7.712743e-03  -9.473369e-03  0 
 1.193727e-02  -9.712802e-03  0 
 8.159848e-03  -1.361578e-02  0 
 1.198156e-02  -1.373673e-02  0 
 8.291016e-03  -9.548406e-03  0 
 8.785438e-03  -9.593803e-03  0 
 9.258500e-03  -9.629482e-03  0 
 9.728633e-03  -9.658331e-03  0 
 1.017700e-02  -9.682737e-03  0 
 1.062066e-02  -9.698237e-03  0 
 1.106074e-02  -9.708179e-03  0 
 1.149674e-02  -9.711993e-03  0 
 7.779862e-03  -1.005955e-02  0 
 7.830683e-03  -1.055516e-02  0 
 7.872863e-03  -1.103436e-02  0 
 7.911290e-03  -1.149882e-02  0 
 7.948054e-03  -1.195139e-02  0 
 7.986166e-03  -1.239428e-02  0 
 8.028541e-03  -1.282604e-02  0 
 8.080575e-03  -1.324786e-02  0 
 1.194598e-02  -1.015400e-02  0 
 1.195541e-02  -1.059560e-02  0 
 1.196317e-02  -1.104025e-02  0 
 1.196861e-02  -1.148717e-02  0 
 1.197218e-02  -1.193551e-02  0 
 1.197484e-02  -1.238477e-02  0 
 1.197744e-02  -1.283491e-02  0 
 1.198008e-02  -1.328604e-02  0 
 8.480938e-03  -1.364332e-02  0 
 8.884522e-03  -1.367110e-02  0 
 9.303885e-03  -1.369279e-02  0 
 9.739077e-03  -1.370874e-02  0 
 1.018131e-02  -1.372020e-02  0 
 1.062992e-02  -1.372843e-02  0 
 1.108078e-02  -1.373386e-02  0 
 1.153199e-02  -1.373651e-02  0 
 8.304831e-03  -1.006896e-02  0 
 8.798781e-03  -1.008377e-02  0 
 9.271722e-03  -1.010260e-02  0 
 9.732500e-03  -1.011851e-02  0 
 1.018320e-02  -1.013028e-02  0 
 1.062646e-02  -1.014005e-02  0 
 1.106645e-02  -1.014619e-02  0 
 1.150562e-02  -1.015046e-02  0 
 8.322016e-03  -1.056657e-02  0 
 8.806801e-03  -1.057007e-02  0 
 9.276985e-03  -1.057439e-02  0 
 9.735171e-03  -1.057936e-02  0 
 1.018523e-02  -1.058361e-02  0 
 1.062981e-02  -1.058707e-02  0 
 1.107153e-02  -1.059019e-02  0 
 1.151298e-02  -1.059298e-02  0 
 8.345952e-03  -1.104189e-02  0 
 8.816063e-03  -1.104357e-02  0 
 9.279883e-03  -1.104175e-02  0 
 9.735711e-03  -1.103961e-02  0 
 1.018524e-02  -1.103802e-02  0 
 1.063086e-02  -1.103723e-02  0 
 1.107464e-02  -1.103743e-02  0 
 1.151828e-02  -1.103853e-02  0 
 8.370347e-03  -1.150477e-02  0 
 8.828393e-03  -1.150542e-02  0 
 9.283692e-03  -1.150186e-02  0 
 9.735397e-03  -1.149642e-02  0 
 1.018383e-02  -1.149138e-02  0 
 1.063025e-02  -1.148790e-02  0 
 1.107588e-02  -1.148625e-02  0 
 1.152170e-02  -1.148619e-02  0 
 8.395265e-03  -1.195778e-02  0 
 8.842143e-03  -1.195840e-02  0 
 9.288642e-03  -1.195430e-02  0 
 9.735060e-03  -1.194793e-02  0 
 1.018174e-02  -1.194189e-02  0 
 1.062871e-02  -1.193763e-02  0 
 1.107600e-02  -1.193541e-02  0 
 1.152376e-02  -1.193493e-02  0 
 8.421009e-03  -1.240206e-02  0 
 8.856072e-03  -1.240311e-02  0 
 9.293308e-03  -1.239901e-02  0 
 9.734634e-03  -1.239349e-02  0 
 1.017973e-02  -1.238888e-02  0 
 1.062715e-02  -1.238583e-02  0 
 1.107585e-02  -1.238438e-02  0 
 1.152520e-02  -1.238421e-02  0 
 8.447822e-03  -1.283714e-02  0 
 8.867836e-03  -1.283790e-02  0 
 9.296370e-03  -1.283538e-02  0 
 9.734408e-03  -1.283387e-02  0 
 1.017859e-02  -1.283304e-02  0 
 1.062647e-02  -1.283285e-02  0 
 1.107625e-02  -1.283325e-02  0 
 1.152677e-02  -1.283406e-02  0 
 8.471546e-03  -1.325670e-02  0 
 8.874653e-03  -1.325873e-02  0 
 9.299275e-03  -1.326526e-02  0 
 9.735395e-03  -1.327122e-02  0 
 1.017909e-02  -1.327610e-02  0 
 1.062726e-02  -1.327978e-02  0 
 1.107785e-02  -1.328268e-02  0 
 1.152901e-02  -1.328478e-02  0 
VECTORS displacement_ITER2 FLOAT
 5.999005e-03  -7.407070e-03  0 
 9.297843e-03  -7.677300e-03  0 
 6.562881e-03  -1.054049e-02  0 
 9.313914e-03  -1.070299e-02  0 
 6.513387e-03  -7.498903e-03  0 
 6.909367e-03  -7.563151e-03  0 
 7.273157e-03  -7.604438e-03  0 
 7.620897e-03  -7.634569e-03  0 
 7.957709e-03  -7.655468e-03  0 
 8.291974e-03  -7.666385e-03  0 
 8.625322e-03  -7.672836e-03  0 
 8.960296e-03  -7.675032e-03  0 
 6.091999e-03  -7.920433e-03  0 
 6.161158e-03  -8.313829e-03  0 
 6.210811e-03  -8.678611e-03  0 
 6.251944e-03  -9.028677e-03  0 
 6.291309e-03  -9.370087e-03  0 
 6.333210e-03  -9.703745e-03  0 
 6.384230e-03  -1.002454e-02  0 
 6.453192e-03  -1.032275e-02  0 
 9.300254e-03  -8.011692e-03  0 
 9.304158e-03  -8.345896e-03  0 
 9.307765e-03  -8.680866e-03  0 
 9.310248e-03  -9.016887e-03  0 
 9.311662e-03  -9.353771e-03  0 
 9.312462e-03  -9.691252e-03  0 
 9.313048e-03  -1.002899e-02  0 
 9.313491e-03  -1.036643e-02  0 
 6.723553e-03  -1.058499e-02  0 
 7.000009e-03  -1.062763e-02  0 
 7.306347e-03  -1.065781e-02  0 
 7.632116e-03  -1.067932e-02  0 
 7.966177e-03  -1.069289e-02  0 
 8.303724e-03  -1.069995e-02  0 
 8.640673e-03  -1.070283e-02  0 
 8.977607e-03  -1.070280e-02  0 
 6.527164e-03  -7.931189e-03  0 
 6.920479e-03  -7.944657e-03  0 
 7.281946e-03  -7.963450e-03  0 
 7.628074e-03  -7.979512e-03  0 
 7.965212e-03  -7.991813e-03  0 
 8.298573e-03  -8.000684e-03  0 
 8.631577e-03  -8.006246e-03  0 
 8.965679e-03  -8.009951e-03  0 
 6.544943e-03  -8.324212e-03  0 
 6.924119e-03  -8.324185e-03  0 
 7.285073e-03  -8.325738e-03  0 
 7.631327e-03  -8.329920e-03  0 
 7.969284e-03  -8.334487e-03  0 
 8.303286e-03  -8.338627e-03  0 
 8.636367e-03  -8.342035e-03  0 
 8.969933e-03  -8.344388e-03  0 
 6.571415e-03  -8.687175e-03  0 
 6.932226e-03  -8.687952e-03  0 
 7.286589e-03  -8.684184e-03  0 
 7.631750e-03  -8.680707e-03  0 
 7.970085e-03  -8.678880e-03  0 
 8.304957e-03  -8.678486e-03  0 
 8.638750e-03  -8.679027e-03  0 
 8.972808e-03  -8.679932e-03  0 
 6.599126e-03  -9.036978e-03  0 
 6.945943e-03  -9.038466e-03  0 
 7.290350e-03  -9.034126e-03  0 
 7.631085e-03  -9.027457e-03  0 
 7.968491e-03  -9.021701e-03  0 
 8.304039e-03  -9.018147e-03  0 
 8.639027e-03  -9.016637e-03  0 
 8.974261e-03  -9.016457e-03  0 
 6.627426e-03  -9.378503e-03  0 
 6.961840e-03  -9.379888e-03  0 
 7.295764e-03  -9.375079e-03  0 
 7.630257e-03  -9.367506e-03  0 
 7.965685e-03  -9.360672e-03  0 
 8.301749e-03  -9.356244e-03  0 
 8.638110e-03  -9.354146e-03  0 
 8.974702e-03  -9.353606e-03  0 
 6.656643e-03  -9.712269e-03  0 
 6.977131e-03  -9.712545e-03  0 
 7.300175e-03  -9.706902e-03  0 
 7.628989e-03  -9.700209e-03  0 
 7.962921e-03  -9.695245e-03  0 
 8.299572e-03  -9.692384e-03  0 
 8.637164e-03  -9.691226e-03  0 
 8.974839e-03  -9.691072e-03  0 
 6.686615e-03  -1.003470e-02  0 
 6.988319e-03  -1.003309e-02  0 
 7.301586e-03  -1.002877e-02  0 
 7.627725e-03  -1.002702e-02  0 
 7.961469e-03  -1.002679e-02  0 
 8.298850e-03  -1.002730e-02  0 
 8.637214e-03  -1.002803e-02  0 
 8.975320e-03  -1.002866e-02  0 
 6.712878e-03  -1.033399e-02  0 
 6.992243e-03  -1.033532e-02  0 
 7.302365e-03  -1.034349e-02  0 
 7.628116e-03  -1.035157e-02  0 
 7.962514e-03  -1.035811e-02  0 
 8.300295e-03  -1.036258e-02  0 
 8.638674e-03  -1.036502e-02  0 
 8.976381e-03  -1.036610e-02  0 
VECTORS displacement_ITER3 FLOAT
 4.905657e-03  -6.363423e-03  0 
 8.211505e-03  -6.655609e-03  0 
 5.530942e-03  -9.469914e-03  0 
 8.233583e-03  -9.652697e-03  0 
 5.445876e-03  -6.461129e-03  0 
 5.847399e-03  -6.532355e-03  0 
 6.212714e-03  -6.577192e-03  0 
 6.557845e-03  -6.609166e-03  0 
 6.895540e-03  -6.630789e-03  0 
 7.227238e-03  -6.643072e-03  0 
 7.557102e-03  -6.650877e-03  0 
 7.884353e-03  -6.654059e-03  0 
 5.018221e-03  -6.891142e-03  0 
 5.098778e-03  -7.286571e-03  0 
 5.154909e-03  -7.648487e-03  0 
 5.200044e-03  -7.994729e-03  0 
 5.241325e-03  -8.332363e-03  0 
 5.284325e-03  -8.662264e-03  0 
 5.336698e-03  -8.979807e-03  0 
 5.411083e-03  -9.271018e-03  0 
 8.218058e-03  -6.984029e-03  0 
 8.223844e-03  -7.314122e-03  0 
 8.227991e-03  -7.646014e-03  0 
 8.230328e-03  -7.979234e-03  0 
 8.231314e-03  -8.313331e-03  0 
 8.231686e-03  -8.647970e-03  0 
 8.232071e-03  -8.982901e-03  0 
 8.232730e-03  -9.317875e-03  0 
 5.671594e-03  -9.521641e-03  0 
 5.940175e-03  -9.569882e-03  0 
 6.243953e-03  -9.603388e-03  0 
 6.565335e-03  -9.626521e-03  0 
 6.895301e-03  -9.640779e-03  0 
 7.229221e-03  -9.648160e-03  0 
 7.563841e-03  -9.651281e-03  0 
 7.898979e-03  -9.652112e-03  0 
 5.460747e-03  -6.903692e-03  0 
 5.859110e-03  -6.916333e-03  0 
 6.220863e-03  -6.935549e-03  0 
 6.565824e-03  -6.952397e-03  0 
 6.901295e-03  -6.965264e-03  0 
 7.232301e-03  -6.973967e-03  0 
 7.561155e-03  -6.979059e-03  0 
 7.889316e-03  -6.981955e-03  0 
 5.482031e-03  -7.297833e-03  0 
 5.862251e-03  -7.296975e-03  0 
 6.223349e-03  -7.297386e-03  0 
 6.568323e-03  -7.301028e-03  0 
 6.904085e-03  -7.305135e-03  0 
 7.235097e-03  -7.308514e-03  0 
 7.564315e-03  -7.310900e-03  0 
 7.893553e-03  -7.312617e-03  0 
 5.511973e-03  -7.658226e-03  0 
 5.871030e-03  -7.658902e-03  0 
 6.224131e-03  -7.654192e-03  0 
 6.567571e-03  -7.649571e-03  0 
 6.903443e-03  -7.646658e-03  0 
 7.235243e-03  -7.645200e-03  0 
 7.565608e-03  -7.644832e-03  0 
 7.896198e-03  -7.645202e-03  0 
 5.542421e-03  -8.004142e-03  0 
 5.885865e-03  -8.005995e-03  0 
 6.227619e-03  -8.001157e-03  0 
 6.565833e-03  -7.993437e-03  0 
 6.900522e-03  -7.986488e-03  0 
 7.233118e-03  -7.981882e-03  0 
 7.565038e-03  -7.979602e-03  0 
 7.897231e-03  -7.978986e-03  0 
 5.572639e-03  -8.341535e-03  0 
 5.902815e-03  -8.343395e-03  0 
 6.233009e-03  -8.338330e-03  0 
 6.564215e-03  -8.329979e-03  0 
 6.896657e-03  -8.322219e-03  0 
 7.229863e-03  -8.316966e-03  0 
 7.563397e-03  -8.314261e-03  0 
 7.897170e-03  -8.313357e-03  0 
 5.603211e-03  -8.671350e-03  0 
 5.918786e-03  -8.671793e-03  0 
 6.237285e-03  -8.665858e-03  0 
 6.562340e-03  -8.658738e-03  0 
 6.893132e-03  -8.653328e-03  0 
 7.226947e-03  -8.650001e-03  0 
 7.561826e-03  -8.648412e-03  0 
 7.896822e-03  -8.647952e-03  0 
 5.634214e-03  -8.989608e-03  0 
 5.929918e-03  -8.987458e-03  0 
 6.238289e-03  -8.982979e-03  0 
 6.560665e-03  -8.981470e-03  0 
 6.891210e-03  -8.981387e-03  0 
 7.225655e-03  -8.981773e-03  0 
 7.561316e-03  -8.982247e-03  0 
 7.896900e-03  -8.982652e-03  0 
 5.660739e-03  -9.282369e-03  0 
 5.933018e-03  -9.283555e-03  0 
 6.238862e-03  -9.292863e-03  0 
 6.561078e-03  -9.302232e-03  0 
 6.891951e-03  -9.309349e-03  0 
 7.226574e-03  -9.313900e-03  0 
 7.562242e-03  -9.316313e-03  0 
 7.897684e-03  -9.317433e-03  0 
VECTORS displacement_ITER4 FLOAT
 4.610226e-03  -6.162718e-03  0 
 7.772804e-03  -6.458627e-03  0 
 5.258476e-03  -9.108576e-03  0 
 7.794116e-03  -9.297504e-03  0 
 5.143868e-03  -6.260400e-03  0 
 5.530435e-03  -6.331720e-03  0 
 5.876493e-03  -6.377165e-03  0 
 6.206181e-03  -6.407798e-03  0 
 6.524975e-03  -6.428171e-03  0 
 6.839297e-03  -6.441051e-03  0 
 7.152225e-03  -6.449870e-03  0 
 7.462204e-03  -6.455191e-03  0 
 4.731499e-03  -6.676589e-03  0 
 4.815550e-03  -7.054728e-03  0 
 4.872667e-03  -7.397474e-03  0 
 4.917369e-03  -7.725561e-03  0 
 4.957969e-03  -8.045159e-03  0 
 5.001079e-03  -8.357120e-03  0 
 5.054745e-03  -8.657685e-03  0 
 5.132453e-03  -8.931793e-03  0 
 7.778142e-03  -6.767418e-03  0 
 7.783903e-03  -7.079229e-03  0 
 7.787943e-03  -7.393427e-03  0 
 7.790050e-03  -7.709112e-03  0 
 7.790804e-03  -8.025685e-03  0 
 7.791095e-03  -8.342830e-03  0 
 7.791711e-03  -8.660488e-03  0 
 7.792934e-03  -8.978785e-03  0 
 5.372552e-03  -9.161726e-03  0 
 5.622740e-03  -9.211234e-03  0 
 5.909268e-03  -9.244913e-03  0 
 6.211770e-03  -9.267547e-03  0 
 6.523388e-03  -9.281800e-03  0 
 6.839261e-03  -9.290073e-03  0 
 7.157116e-03  -9.294556e-03  0 
 7.475918e-03  -9.296708e-03  0 
 5.158027e-03  -6.689063e-03  0 
 5.540732e-03  -6.699756e-03  0 
 5.885314e-03  -6.718075e-03  0 
 6.212692e-03  -6.734364e-03  0 
 6.531006e-03  -6.746695e-03  0 
 6.844870e-03  -6.755652e-03  0 
 7.156705e-03  -6.761432e-03  0 
 7.467690e-03  -6.765129e-03  0 
 5.180127e-03  -7.065435e-03  0 
 5.543148e-03  -7.063672e-03  0 
 5.887306e-03  -7.063056e-03  0 
 6.215088e-03  -7.066144e-03  0 
 6.533730e-03  -7.070057e-03  0 
 6.847720e-03  -7.073450e-03  0 
 7.159779e-03  -7.076010e-03  0 
 7.471486e-03  -7.077766e-03  0 
 5.210744e-03  -7.407322e-03  0 
 5.552008e-03  -7.407822e-03  0 
 5.887878e-03  -7.402728e-03  0 
 6.214235e-03  -7.397737e-03  0 
 6.532996e-03  -7.394602e-03  0 
 6.847639e-03  -7.393004e-03  0 
 7.160693e-03  -7.392488e-03  0 
 7.473759e-03  -7.392711e-03  0 
 5.241594e-03  -7.734884e-03  0 
 5.567244e-03  -7.736990e-03  0 
 5.891544e-03  -7.732226e-03  0 
 6.212462e-03  -7.724369e-03  0 
 6.529892e-03  -7.717183e-03  0 
 6.845193e-03  -7.712316e-03  0 
 7.159739e-03  -7.709783e-03  0 
 7.474469e-03  -7.708974e-03  0 
 5.272046e-03  -8.054447e-03  0 
 5.584716e-03  -8.056686e-03  0 
 5.897263e-03  -8.051824e-03  0 
 6.210862e-03  -8.043419e-03  0 
 6.525806e-03  -8.035445e-03  0 
 6.841592e-03  -8.029906e-03  0 
 7.157740e-03  -8.026916e-03  0 
 7.474120e-03  -8.025809e-03  0 
 5.303199e-03  -8.366865e-03  0 
 5.601237e-03  -8.367596e-03  0 
 5.901806e-03  -8.361674e-03  0 
 6.208969e-03  -8.354475e-03  0 
 6.522041e-03  -8.348921e-03  0 
 6.838302e-03  -8.345358e-03  0 
 7.155801e-03  -8.343506e-03  0 
 7.473541e-03  -8.342862e-03  0 
 5.335226e-03  -8.667981e-03  0 
 5.612739e-03  -8.665573e-03  0 
 5.902901e-03  -8.660827e-03  0 
 6.207261e-03  -8.659311e-03  0 
 6.519863e-03  -8.659203e-03  0 
 6.836579e-03  -8.659467e-03  0 
 7.154892e-03  -8.659822e-03  0 
 7.473470e-03  -8.660179e-03  0 
 5.362454e-03  -8.942936e-03  0 
 5.615698e-03  -8.943206e-03  0 
 5.903616e-03  -8.952489e-03  0 
 6.207725e-03  -8.961963e-03  0 
 6.520292e-03  -8.969100e-03  0 
 6.837024e-03  -8.973805e-03  0 
 7.155460e-03  -8.976540e-03  0 
 7.474266e-03  -8.978049e-03  0 
VECTORS displacement_ITER5 FLOAT
 4.472610e-03  -6.052051e-03  0 
 7.628335e-03  -6.353692e-03  0 
 5.130301e-03  -8.992186e-03  0 
 7.656311e-03  -9.181933e-03  0 
 5.011804e-03  -6.150084e-03  0 
 5.397127e-03  -6.221185e-03  0 
 5.742215e-03  -6.267492e-03  0 
 6.071952e-03  -6.298583e-03  0 
 6.390877e-03  -6.319800e-03  0 
 6.705121e-03  -6.334112e-03  0 
 7.016000e-03  -6.343746e-03  0 
 7.323269e-03  -6.349850e-03  0 
 4.599377e-03  -6.566889e-03  0 
 4.684174e-03  -6.943834e-03  0 
 4.741571e-03  -7.285474e-03  0 
 4.786327e-03  -7.612857e-03  0 
 4.826895e-03  -7.931544e-03  0 
 4.869918e-03  -8.242437e-03  0 
 4.923409e-03  -8.542394e-03  0 
 5.001904e-03  -8.816496e-03  0 
 7.636177e-03  -6.658914e-03  0 
 7.643234e-03  -6.968875e-03  0 
 7.647946e-03  -7.281789e-03  0 
 7.650372e-03  -7.596407e-03  0 
 7.651266e-03  -7.911972e-03  0 
 7.651672e-03  -8.228134e-03  0 
 7.652536e-03  -8.544925e-03  0 
 7.654288e-03  -8.862731e-03  0 
 5.240999e-03  -9.045695e-03  0 
 5.491074e-03  -9.095140e-03  0 
 5.776871e-03  -9.127861e-03  0 
 6.078023e-03  -9.149296e-03  0 
 6.387714e-03  -9.163382e-03  0 
 6.701888e-03  -9.172244e-03  0 
 7.018820e-03  -9.177745e-03  0 
 7.337195e-03  -9.180773e-03  0 
 5.024889e-03  -6.579335e-03  0 
 5.407614e-03  -6.589444e-03  0 
 5.751715e-03  -6.608034e-03  0 
 6.078740e-03  -6.624925e-03  0 
 6.396843e-03  -6.637790e-03  0 
 6.709917e-03  -6.647006e-03  0 
 7.020099e-03  -6.652897e-03  0 
 7.328510e-03  -6.656461e-03  0 
 5.047582e-03  -6.954732e-03  0 
 5.410040e-03  -6.953111e-03  0 
 5.753878e-03  -6.952592e-03  0 
 6.081209e-03  -6.955948e-03  0 
 6.399199e-03  -6.960029e-03  0 
 6.712169e-03  -6.963357e-03  0 
 7.022702e-03  -6.965685e-03  0 
 7.332547e-03  -6.967289e-03  0 
 5.078650e-03  -7.295647e-03  0 
 5.419162e-03  -7.296425e-03  0 
 5.754461e-03  -7.291519e-03  0 
 6.080207e-03  -7.286605e-03  0 
 6.398133e-03  -7.283431e-03  0 
 6.711672e-03  -7.281649e-03  0 
 7.023394e-03  -7.280904e-03  0 
 7.335047e-03  -7.281011e-03  0 
 5.109738e-03  -7.622275e-03  0 
 5.434605e-03  -7.624622e-03  0 
 5.758168e-03  -7.620057e-03  0 
 6.078289e-03  -7.612252e-03  0 
 6.394777e-03  -7.604959e-03  0 
 6.708984e-03  -7.599890e-03  0 
 7.022346e-03  -7.597159e-03  0 
 7.335890e-03  -7.596252e-03  0 
 5.140268e-03  -7.940899e-03  0 
 5.452246e-03  -7.943352e-03  0 
 5.763981e-03  -7.938684e-03  0 
 6.076632e-03  -7.930329e-03  0 
 6.390529e-03  -7.922252e-03  0 
 6.705219e-03  -7.916512e-03  0 
 7.020274e-03  -7.913322e-03  0 
 7.335598e-03  -7.912104e-03  0 
 5.171553e-03  -8.252417e-03  0 
 5.469005e-03  -8.253385e-03  0 
 5.768691e-03  -8.247595e-03  0 
 6.074765e-03  -8.240428e-03  0 
 6.386652e-03  -8.234791e-03  0 
 6.701752e-03  -8.231031e-03  0 
 7.018209e-03  -8.228955e-03  0 
 7.335025e-03  -8.228175e-03  0 
 5.203901e-03  -8.552961e-03  0 
 5.480797e-03  -8.550567e-03  0 
 5.770021e-03  -8.545769e-03  0 
 6.073172e-03  -8.544250e-03  0 
 6.384373e-03  -8.544070e-03  0 
 6.699763e-03  -8.544181e-03  0 
 7.017059e-03  -8.544353e-03  0 
 7.334935e-03  -8.544589e-03  0 
 5.231374e-03  -8.827634e-03  0 
 5.483885e-03  -8.827402e-03  0 
 5.771073e-03  -8.836402e-03  0 
 6.073834e-03  -8.845653e-03  0 
 6.384684e-03  -8.852671e-03  0 
 6.699874e-03  -8.857413e-03  0 
 7.017278e-03  -8.860298e-03  0 
 7.335691e-03  -8.861891e-03  0 
VECTORS displacement_ITER6 FLOAT
 4.370741e-03  -5.985328e-03  0 
 7.534358e-03  -6.287422e-03  0 
 5.032798e-03  -8.928444e-03  0 
 7.563577e-03  -9.120855e-03  0 
 4.913585e-03  -6.083689e-03  0 
 5.299374e-03  -6.154987e-03  0 
 5.645654e-03  -6.200984e-03  0 
 5.975048e-03  -6.231689e-03  0 
 6.295354e-03  -6.252737e-03  0 
 6.610500e-03  -6.267136e-03  0 
 6.921910e-03  -6.276850e-03  0 
 7.230229e-03  -6.283230e-03  0 
 4.501034e-03  -6.501715e-03  0 
 4.585802e-03  -6.878340e-03  0 
 4.643062e-03  -7.220384e-03  0 
 4.687880e-03  -7.548253e-03  0 
 4.728794e-03  -7.867462e-03  0 
 4.771889e-03  -8.178850e-03  0 
 4.825031e-03  -8.479223e-03  0 
 4.903175e-03  -8.753858e-03  0 
 7.542901e-03  -6.592424e-03  0 
 7.550065e-03  -6.903012e-03  0 
 7.554725e-03  -7.216575e-03  0 
 7.557070e-03  -7.531818e-03  0 
 7.557898e-03  -7.847983e-03  0 
 7.558275e-03  -8.164725e-03  0 
 7.559167e-03  -8.482095e-03  0 
 7.561067e-03  -8.800517e-03  0 
 5.142762e-03  -8.983303e-03  0 
 5.393614e-03  -9.033308e-03  0 
 5.679841e-03  -9.065994e-03  0 
 5.981728e-03  -9.087290e-03  0 
 6.291937e-03  -9.101539e-03  0 
 6.606623e-03  -9.110668e-03  0 
 6.923982e-03  -9.116326e-03  0 
 7.242961e-03  -9.119422e-03  0 
 4.926377e-03  -6.513984e-03  0 
 5.309974e-03  -6.523710e-03  0 
 5.654619e-03  -6.542032e-03  0 
 5.982284e-03  -6.558779e-03  0 
 6.301172e-03  -6.571661e-03  0 
 6.615092e-03  -6.580762e-03  0 
 6.926014e-03  -6.586660e-03  0 
 7.234920e-03  -6.590091e-03  0 
 4.949378e-03  -6.889431e-03  0 
 5.312307e-03  -6.887839e-03  0 
 5.656785e-03  -6.887194e-03  0 
 5.984794e-03  -6.890483e-03  0 
 6.303496e-03  -6.894512e-03  0 
 6.617190e-03  -6.897780e-03  0 
 6.928385e-03  -6.899985e-03  0 
 7.238787e-03  -6.901469e-03  0 
 4.980624e-03  -7.230653e-03  0 
 5.321572e-03  -7.231543e-03  0 
 5.657412e-03  -7.226657e-03  0 
 5.983788e-03  -7.221705e-03  0 
 6.302374e-03  -7.218482e-03  0 
 6.616571e-03  -7.216629e-03  0 
 6.928925e-03  -7.215794e-03  0 
 7.241197e-03  -7.215832e-03  0 
 5.011826e-03  -7.557792e-03  0 
 5.337129e-03  -7.560188e-03  0 
 5.661175e-03  -7.555659e-03  0 
 5.981861e-03  -7.547857e-03  0 
 6.298965e-03  -7.540536e-03  0 
 6.613802e-03  -7.535418e-03  0 
 6.927795e-03  -7.532636e-03  0 
 7.241968e-03  -7.531691e-03  0 
 5.042432e-03  -7.876900e-03  0 
 5.354803e-03  -7.879367e-03  0 
 5.667012e-03  -7.874733e-03  0 
 5.980199e-03  -7.866413e-03  0 
 6.294681e-03  -7.858344e-03  0 
 6.609989e-03  -7.852587e-03  0 
 6.925675e-03  -7.849370e-03  0 
 7.241625e-03  -7.848130e-03  0 
 5.073704e-03  -8.188804e-03  0 
 5.371553e-03  -8.189819e-03  0 
 5.671727e-03  -8.184094e-03  0 
 5.978333e-03  -8.176999e-03  0 
 6.290785e-03  -8.171412e-03  0 
 6.606485e-03  -8.167662e-03  0 
 6.923575e-03  -8.165569e-03  0 
 7.241026e-03  -8.164772e-03  0 
 5.105946e-03  -8.489765e-03  0 
 5.383310e-03  -8.487433e-03  0 
 5.673070e-03  -8.482733e-03  0 
 5.976764e-03  -8.481326e-03  0 
 6.288498e-03  -8.481231e-03  0 
 6.604456e-03  -8.481392e-03  0 
 6.922383e-03  -8.481561e-03  0 
 7.240933e-03  -8.481762e-03  0 
 5.133261e-03  -8.764907e-03  0 
 5.386332e-03  -8.764777e-03  0 
 5.674168e-03  -8.773901e-03  0 
 5.977470e-03  -8.783225e-03  0 
 6.288827e-03  -8.790359e-03  0 
 6.604541e-03  -8.795226e-03  0 
 6.922528e-03  -8.798178e-03  0 
 7.241654e-03  -8.799714e-03  0 
VECTORS displacement_ITER7 FLOAT
 4.305962e-03  -5.960836e-03  0 
 7.461806e-03  -6.262459e-03  0 
 4.970274e-03  -8.892422e-03  0 
 7.489983e-03  -9.086108e-03  0 
 4.848952e-03  -6.059316e-03  0 
 5.233586e-03  -6.130825e-03  0 
 5.578935e-03  -6.176374e-03  0 
 5.906912e-03  -6.206566e-03  0 
 6.225815e-03  -6.227198e-03  0 
 6.539660e-03  -6.241238e-03  0 
 6.850209e-03  -6.250816e-03  0 
 7.158301e-03  -6.257497e-03  0 
 4.437706e-03  -6.476162e-03  0 
 4.522550e-03  -6.851057e-03  0 
 4.579549e-03  -7.192094e-03  0 
 4.624294e-03  -7.518900e-03  0 
 4.665380e-03  -7.837009e-03  0 
 4.708615e-03  -8.147161e-03  0 
 4.761771e-03  -8.446053e-03  0 
 4.839940e-03  -8.719475e-03  0 
 7.469943e-03  -6.565987e-03  0 
 7.476852e-03  -6.875606e-03  0 
 7.481311e-03  -7.188145e-03  0 
 7.483507e-03  -7.502313e-03  0 
 7.484230e-03  -7.817368e-03  0 
 7.484538e-03  -8.132980e-03  0 
 7.485399e-03  -8.449209e-03  0 
 7.487331e-03  -8.766512e-03  0 
 5.078208e-03  -8.947565e-03  0 
 5.327901e-03  -8.997825e-03  0 
 5.612772e-03  -9.030590e-03  0 
 5.913543e-03  -9.052090e-03  0 
 6.222521e-03  -9.066415e-03  0 
 6.536170e-03  -9.075555e-03  0 
 6.852381e-03  -9.081142e-03  0 
 7.170218e-03  -9.084300e-03  0 
 4.861594e-03  -6.488477e-03  0 
 5.244120e-03  -6.498010e-03  0 
 5.587529e-03  -6.516108e-03  0 
 5.913965e-03  -6.532524e-03  0 
 6.231622e-03  -6.545158e-03  0 
 6.544465e-03  -6.554172e-03  0 
 6.854600e-03  -6.560177e-03  0 
 7.162887e-03  -6.563744e-03  0 
 4.884696e-03  -6.862388e-03  0 
 5.246361e-03  -6.860811e-03  0 
 5.589622e-03  -6.860027e-03  0 
 5.916432e-03  -6.863166e-03  0 
 6.234021e-03  -6.867094e-03  0 
 6.546724e-03  -6.870369e-03  0 
 6.857034e-03  -6.872638e-03  0 
 7.166538e-03  -6.874119e-03  0 
 4.915993e-03  -7.202330e-03  0 
 5.255667e-03  -7.203250e-03  0 
 5.590268e-03  -7.198326e-03  0 
 5.915475e-03  -7.193320e-03  0 
 6.232977e-03  -7.190077e-03  0 
 6.546164e-03  -7.188239e-03  0 
 6.857535e-03  -7.187419e-03  0 
 7.168812e-03  -7.187443e-03  0 
 4.947173e-03  -7.528392e-03  0 
 5.271261e-03  -7.530735e-03  0 
 5.594083e-03  -7.526183e-03  0 
 5.913607e-03  -7.518376e-03  0 
 6.229616e-03  -7.511062e-03  0 
 6.543401e-03  -7.505956e-03  0 
 6.856357e-03  -7.503176e-03  0 
 7.169481e-03  -7.502216e-03  0 
 4.977784e-03  -7.846385e-03  0 
 5.288936e-03  -7.848777e-03  0 
 5.599951e-03  -7.844119e-03  0 
 5.911982e-03  -7.835805e-03  0 
 6.225351e-03  -7.827751e-03  0 
 6.539577e-03  -7.822005e-03  0 
 6.854192e-03  -7.818789e-03  0 
 7.169062e-03  -7.817537e-03  0 
 5.009069e-03  -8.157049e-03  0 
 5.305688e-03  -8.158052e-03  0 
 5.604674e-03  -8.152327e-03  0 
 5.910126e-03  -8.145242e-03  0 
 6.221456e-03  -8.139674e-03  0 
 6.536055e-03  -8.135940e-03  0 
 6.852056e-03  -8.133849e-03  0 
 7.168410e-03  -8.133042e-03  0 
 5.041371e-03  -8.456720e-03  0 
 5.317471e-03  -8.454452e-03  0 
 5.606014e-03  -8.449784e-03  0 
 5.908549e-03  -8.448410e-03  0 
 6.219160e-03  -8.448340e-03  0 
 6.534010e-03  -8.448526e-03  0 
 6.850829e-03  -8.448705e-03  0 
 7.168280e-03  -8.448890e-03  0 
 5.068777e-03  -8.730600e-03  0 
 5.320512e-03  -8.730524e-03  0 
 5.607123e-03  -8.739755e-03  0 
 5.909236e-03  -8.749146e-03  0 
 6.219475e-03  -8.756333e-03  0 
 6.534087e-03  -8.761214e-03  0 
 6.850952e-03  -8.764190e-03  0 
 7.168944e-03  -8.765732e-03  0 
VECTORS displacement_ITER8 FLOAT
 4.281760e-03  -5.958309e-03  0 
 7.419560e-03  -6.260132e-03  0 
 4.947513e-03  -8.870940e-03  0 
 7.448030e-03  -9.065064e-03  0 
 4.823589e-03  -6.056665e-03  0 
 5.205935e-03  -6.128156e-03  0 
 5.549367e-03  -6.173783e-03  0 
 5.875663e-03  -6.204300e-03  0 
 6.192567e-03  -6.225172e-03  0 
 6.504456e-03  -6.239180e-03  0 
 6.812893e-03  -6.248538e-03  0 
 7.118666e-03  -6.255029e-03  0 
 4.414228e-03  -6.471133e-03  0 
 4.499212e-03  -6.844013e-03  0 
 4.556194e-03  -7.183488e-03  0 
 4.601130e-03  -7.508480e-03  0 
 4.642360e-03  -7.824568e-03  0 
 4.685705e-03  -8.132475e-03  0 
 4.738838e-03  -8.428955e-03  0 
 4.817007e-03  -8.700099e-03  0 
 7.428054e-03  -6.561372e-03  0 
 7.435033e-03  -6.868960e-03  0 
 7.439479e-03  -7.179451e-03  0 
 7.441646e-03  -7.491548e-03  0 
 7.442340e-03  -7.804518e-03  0 
 7.442620e-03  -8.118038e-03  0 
 7.443456e-03  -8.432167e-03  0 
 7.445380e-03  -8.747375e-03  0 
 5.053040e-03  -8.926132e-03  0 
 5.300583e-03  -8.976409e-03  0 
 5.583303e-03  -9.009246e-03  0 
 5.882067e-03  -9.030937e-03  0 
 6.188909e-03  -9.045264e-03  0 
 6.500501e-03  -9.054315e-03  0 
 6.814679e-03  -9.059784e-03  0 
 7.130346e-03  -9.063016e-03  0 
 4.836021e-03  -6.483790e-03  0 
 5.216659e-03  -6.493390e-03  0 
 5.558160e-03  -6.511668e-03  0 
 5.882696e-03  -6.528199e-03  0 
 6.198340e-03  -6.540878e-03  0 
 6.509075e-03  -6.549858e-03  0 
 6.817064e-03  -6.555733e-03  0 
 7.123165e-03  -6.559168e-03  0 
 4.859361e-03  -6.855642e-03  0 
 5.219034e-03  -6.854261e-03  0 
 5.560329e-03  -6.853564e-03  0 
 5.885127e-03  -6.856742e-03  0 
 6.200652e-03  -6.860653e-03  0 
 6.511235e-03  -6.863874e-03  0 
 6.819406e-03  -6.866070e-03  0 
 7.126788e-03  -6.867491e-03  0 
 4.890805e-03  -7.193717e-03  0 
 5.228444e-03  -7.194694e-03  0 
 5.560988e-03  -7.189800e-03  0 
 5.884127e-03  -7.184783e-03  0 
 6.199535e-03  -7.181504e-03  0 
 6.510610e-03  -7.179620e-03  0 
 6.819868e-03  -7.178759e-03  0 
 7.129050e-03  -7.178760e-03  0 
 4.922007e-03  -7.517891e-03  0 
 5.244048e-03  -7.520156e-03  0 
 5.564783e-03  -7.515564e-03  0 
 5.882213e-03  -7.507722e-03  0 
 6.196122e-03  -7.500372e-03  0 
 6.507806e-03  -7.495233e-03  0 
 6.818664e-03  -7.492430e-03  0 
 7.129701e-03  -7.491459e-03  0 
 4.952625e-03  -7.833825e-03  0 
 5.261675e-03  -7.836115e-03  0 
 5.570604e-03  -7.831390e-03  0 
 5.880543e-03  -7.823032e-03  0 
 6.191819e-03  -7.814948e-03  0 
 6.503953e-03  -7.809182e-03  0 
 6.816478e-03  -7.805954e-03  0 