# vtk DataFile Version 3.1
this is an vtk file created by FEMAC
ASCII
DATASET UNSTRUCTURED_GRID
POINTS 100 FLOAT
5.000000 1.000000 0.000000
5.000000 2.000000 0.000000
6.000000 1.000000 0.000000
6.000000 2.000000 0.000000
5.000000 1.111111 0.000000
5.000000 1.222222 0.000000
5.000000 1.333333 0.000000
5.000000 1.444444 0.000000
5.000000 1.555556 0.000000
5.000000 1.666667 0.000000
5.000000 1.777778 0.000000
5.000000 1.888889 0.000000
5.111111 1.000000 0.000000
5.222222 1.000000 0.000000
5.333333 1.000000 0.000000
5.444444 1.000000 0.000000
5.555556 1.000000 0.000000
5.666667 1.000000 0.000000
5.777778 1.000000 0.000000
5.888889 1.000000 0.000000
5.111111 2.000000 0.000000
5.222222 2.000000 0.000000
5.333333 2.000000 0.000000
5.444444 2.000000 0.000000
5.555556 2.000000 0.000000
5.666667 2.000000 0.000000
5.777778 2.000000 0.000000
5.888889 2.000000 0.000000
6.000000 1.111111 0.000000
6.000000 1.222222 0.000000
6.000000 1.333333 0.000000
6.000000 1.444444 0.000000
6.000000 1.555556 0.000000
6.000000 1.666667 0.000000
6.000000 1.777778 0.000000
6.000000 1.888889 0.000000
5.111111 1.111111 0.000000
5.111111 1.222222 0.000000
5.111111 1.333333 0.000000
5.111111 1.444444 0.000000
5.111111 1.555556 0.000000
5.111111 1.666667 0.000000
5.111111 1.777778 0.000000
5.111111 1.888889 0.000000
5.222222 1.111111 0.000000
5.222222 1.222222 0.000000
5.222222 1.333333 0.000000
5.222222 1.444444 0.000000
5.222222 1.555556 0.000000
5.222222 1.666667 0.000000
5.222222 1.777778 0.000000
5.222222 1.888889 0.000000
5.333333 1.111111 0.000000
5.333333 1.222222 0.000000
5.333333 1.333333 0.000000
5.333333 1.444444 0.000000
5.333333 1.555556 0.000000
5.333333 1.666667 0.000000
5.333333 1.777778 0.000000
5.333333 1.888889 0.000000
5.444444 1.111111 0.000000
5.444444 1.222222 0.000000
5.444444 1.333333 0.000000
5.444444 1.444444 0.000000
5.444444 1.555556 0.000000
5.444444 1.666667 0.000000
5.444444 1.777778 0.000000
5.444444 1.888889 0.000000
5.555556 1.111111 0.000000
5.555556 1.222222 0.000000
5.555556 1.333333 0.000000
5.555556 1.444444 0.000000
5.555556 1.555556 0.000000
5.555556 1.666667 0.000000
5.555556 1.777778 0.000000
5.555556 1.888889 0.000000
5.666667 1.111111 0.000000
5.666667 1.222222 0.000000
5.666667 1.333333 0.000000
5.666667 1.444444 0.000000
5.666667 1.555556 0.000000
5.666667 1.666667 0.000000
5.666667 1.777778 0.000000
5.666667 1.888889 0.000000
5.777778 1.111111 0.000000
5.777778 1.222222 0.000000
5.777778 1.333333 0.000000
5.777778 1.444444 0.000000
5.777778 1.555556 0.000000
5.777778 1.666667 0.000000
5.777778 1.777778 0.000000
5.777778 1.888889 0.000000
5.888889 1.111111 0.000000
5.888889 1.222222 0.000000
5.888889 1.333333 0.000000
5.888889 1.444444 0.000000
5.888889 1.555556 0.000000
5.888889 1.666667 0.000000
5.888889 1.777778 0.000000
5.888889 1.888889 0.000000
CELLS 81 405 
4 0 12 36  4
4 4 36 37  5
4 5 37 38  6
4 6 38 39  7
4 7 39 40  8
4 8 40 41  9
4 9 41 42 10
4 10 42 43 11
4 11 43 20  1
4 12 13 44 36
4 36 44 45 37
4 37 45 46 38
4 38 46 47 39
4 39 47 48 40
4 40 48 49 41
4 41 49 50 42
4 42 50 51 43
4 43 51 21 20
4 13 14 52 44
4 44 52 53 45
4 45 53 54 46
4 46 54 55 47
4 47 55 56 48
4 48 56 57 49
4 49 57 58 50
4 50 58 59 51
4 51 59 22 21
4 14 15 60 52
4 52 60 61 53
4 53 61 62 54
4 54 62 63 55
4 55 63 64 56
4 56 64 65 57
4 57 65 66 58
4 58 66 67 59
4 59 67 23 22
4 15 16 68 60
4 60 68 69 61
4 61 69 70 62
4 62 70 71 63
4 63 71 72 64
4 64 72 73 65
4 65 73 74 66
4 66 74 75 67
4 67 75 24 23
4 16 17 76 68
4 68 76 77 69
4 69 77 78 70
4 70 78 79 71
4 71 79 80 72
4 72 80 81 73
4 73 81 82 74
4 74 82 83 75
4 75 83 25 24
4 17 18 84 76
4 76 84 85 77
4 77 85 86 78
4 78 86 87 79
4 79 87 88 80
4 80 88 89 81
4 81 89 90 82
4 82 90 91 83
4 83 91 26 25
4 18 19 92 84
4 84 92 93 85
4 85 93 94 86
4 86 94 95 87
4 87 95 96 88
4 88 96 97 89
4 89 97 98 90
4 90 98 99 91
4 91 99 27 26
4 19  2 28 92
4 92 28 29 93
4 93 29 30 94
4 94 30 31 95
4 95 31 32 96
4 96 32 33 97
4 97 33 34 98
4 98 34 35 99
4 99 35  3 27
CELL_TYPES 81
9 9 9 9 9 9 9 9 9 9 9 9 9 9 9 9 9 9 9 9 9 9 9 9 9 9 9 9 9 9 9 9 9 9 9 9 9 9 9 9 9 9 9 9 9 9 9 9 9 9 9 9 9 9 9 9 9 9 9 9 9 9 9 9 9 9 9 9 9 9 9 9 9 9 9 9 9 9 9 9 9 
POINT_DATA 100
VECTORS displacement_ITER1 FLOAT
 -7.685402e-03  -1.731310e-02  0 
 -3.325867e-03  -1.714254e-02  0 
 -7.774847e-03  -2.172148e-02  0 
 -3.310542e-03  -2.172575e-02  0 
 -7.240054e-03  -1.730024e-02  0 
 -6.762802e-03  -1.728893e-02  0 
 -6.280664e-03  -1.727701e-02  0 
 -5.794429e-03  -1.726502e-02  0 
 -5.305477e-03  -1.725247e-02  0 
 -4.814173e-03  -1.723734e-02  0 
 -4.319819e-03  -1.721894e-02  0 
 -3.824189e-03  -1.719220e-02  0 
 -7.717124e-03  -1.777445e-02  0 
 -7.735100e-03  -1.825906e-02  0 
 -7.750218e-03  -1.874783e-02  0 
 -7.761943e-03  -1.923965e-02  0 
 -7.770051e-03  -1.973578e-02  0 
 -7.775059e-03  -2.023411e-02  0 
 -7.777186e-03  -2.073228e-02  0 
 -7.776998e-03  -2.122935e-02  0 
 -3.309678e-03  -1.769990e-02  0 
 -3.309428e-03  -1.821762e-02  0 
 -3.309315e-03  -1.872716e-02  0 
 -3.309852e-03  -1.923138e-02  0 
 -3.310397e-03  -1.973293e-02  0 
 -3.310959e-03  -2.023277e-02  0 
 -3.311574e-03  -2.073107e-02  0 
 -3.311404e-03  -2.122798e-02  0 
 -7.282501e-03  -2.172155e-02  0 
 -6.786627e-03  -2.172040e-02  0 
 -6.290615e-03  -2.171932e-02  0 
 -5.794689e-03  -2.171909e-02  0 
 -5.298632e-03  -2.171982e-02  0 
 -4.802229e-03  -2.172123e-02  0 
 -4.305434e-03  -2.172287e-02  0 
 -3.808374e-03  -2.172438e-02  0 
 -7.243574e-03  -1.777067e-02  0 
 -6.767225e-03  -1.776766e-02  0 
 -6.284076e-03  -1.776124e-02  0 
 -5.797389e-03  -1.775315e-02  0 
 -5.308324e-03  -1.774347e-02  0 
 -4.817190e-03  -1.773206e-02  0 
 -4.324040e-03  -1.771804e-02  0 
 -3.827974e-03  -1.770228e-02  0 
 -7.252289e-03  -1.825376e-02  0 
 -6.770166e-03  -1.825099e-02  0 
 -6.285889e-03  -1.824806e-02  0 
 -5.798703e-03  -1.824331e-02  0 
 -5.309228e-03  -1.823705e-02  0 
 -4.817522e-03  -1.822969e-02  0 
 -4.322598e-03  -1.822244e-02  0 
 -3.819651e-03  -1.821930e-02  0 
 -7.261402e-03  -1.874322e-02  0 
 -6.774072e-03  -1.874057e-02  0 
 -6.286937e-03  -1.873857e-02  0 
 -5.798550e-03  -1.873611e-02  0 
 -5.308120e-03  -1.873290e-02  0 
 -4.814971e-03  -1.872967e-02  0 
 -4.317546e-03  -1.872785e-02  0 
 -3.815279e-03  -1.872740e-02  0 
 -7.268792e-03  -1.923670e-02  0 
 -6.777827e-03  -1.923442e-02  0 
 -6.287880e-03  -1.923279e-02  0 
 -5.797587e-03  -1.923151e-02  0 
 -5.305700e-03  -1.923051e-02  0 
 -4.811155e-03  -1.923014e-02  0 
 -4.313385e-03  -1.923054e-02  0 
 -3.812611e-03  -1.923126e-02  0 
 -7.274127e-03  -1.973310e-02  0 
 -6.780806e-03  -1.973094e-02  0 
 -6.288657e-03  -1.972947e-02  0 
 -5.796458e-03  -1.972880e-02  0 
 -5.303086e-03  -1.972895e-02  0 
 -4.807775e-03  -1.972984e-02  0 
 -4.310316e-03  -1.973116e-02  0 
 -3.811013e-03  -1.973238e-02  0 
 -7.277817e-03  -2.023119e-02  0 
 -6.783019e-03  -2.022883e-02  0 
 -6.289294e-03  -2.022734e-02  0 
 -5.795561e-03  -2.022691e-02  0 
 -5.301048e-03  -2.022746e-02  0 
 -4.805280e-03  -2.022871e-02  0 
 -4.308165e-03  -2.023027e-02  0 
 -3.809969e-03  -2.023177e-02  0 
 -7.280126e-03  -2.072945e-02  0 
 -6.784710e-03  -2.072685e-02  0 
 -6.289873e-03  -2.072535e-02  0 
 -5.795031e-03  -2.072500e-02  0 
 -5.299743e-03  -2.072561e-02  0 
 -4.803684e-03  -2.072685e-02  0 
 -4.306762e-03  -2.072836e-02  0 
 -3.809169e-03  -2.072982e-02  0 
 -7.281577e-03  -2.122641e-02  0 
 -6.785964e-03  -2.122406e-02  0 
 -6.290329e-03  -2.122280e-02  0 
 -5.794793e-03  -2.122253e-02  0 
 -5.299033e-03  -2.122313e-02  0 
 -4.802779e-03  -2.122434e-02  0 
 -4.305957e-03  -2.122581e-02  0 
 -3.808682e-03  -2.122711e-02  0 
VECTORS displacement_ITER2 FLOAT
 -5.720959e-03  -1.371221e-02  0 
 -2.580055e-03  -1.349468e-02  0 
 -5.833530e-03  -1.688813e-02  0 
 -2.577840e-03  -1.689127e-02  0 
 -5.427208e-03  -1.369015e-02  0 
 -5.089913e-03  -1.367103e-02  0 
 -4.743756e-03  -1.365548e-02  0 
 -4.391426e-03  -1.364097e-02  0 
 -4.035918e-03  -1.362605e-02  0 
 -3.678465e-03  -1.360867e-02  0 
 -3.318693e-03  -1.358671e-02  0 
 -2.955293e-03  -1.355433e-02  0 
 -5.763026e-03  -1.402318e-02  0 
 -5.787875e-03  -1.436907e-02  0 
 -5.804263e-03  -1.472172e-02  0 
 -5.816042e-03  -1.507957e-02  0 
 -5.824642e-03  -1.544037e-02  0 
 -5.830222e-03  -1.580253e-02  0 
 -5.833256e-03  -1.616539e-02  0 
 -5.834063e-03  -1.652837e-02  0 
 -2.566144e-03  -1.393395e-02  0 
 -2.569908e-03  -1.432454e-02  0 
 -2.573352e-03  -1.470223e-02  0 
 -2.576427e-03  -1.507236e-02  0 
 -2.578451e-03  -1.543844e-02  0 
 -2.579511e-03  -1.580233e-02  0 
 -2.579885e-03  -1.616501e-02  0 
 -2.579175e-03  -1.652730e-02  0 
 -5.473386e-03  -1.688713e-02  0 
 -5.111758e-03  -1.688550e-02  0 
 -4.750367e-03  -1.688438e-02  0 
 -4.389112e-03  -1.688425e-02  0 
 -4.027745e-03  -1.688504e-02  0 
 -3.666106e-03  -1.688641e-02  0 
 -3.304149e-03  -1.688798e-02  0 
 -2.941787e-03  -1.688957e-02  0 
 -5.431842e-03  -1.401753e-02  0 
 -5.094268e-03  -1.401330e-02  0 
 -4.746808e-03  -1.400511e-02  0 
 -4.394697e-03  -1.399530e-02  0 
 -4.039742e-03  -1.398377e-02  0 
 -3.682791e-03  -1.397025e-02  0 
 -3.323512e-03  -1.395420e-02  0 
 -2.959042e-03  -1.393691e-02  0 
 -5.441147e-03  -1.436273e-02  0 
 -5.096245e-03  -1.435989e-02  0 
 -4.748073e-03  -1.435658e-02  0 
 -4.395923e-03  -1.435097e-02  0 
 -4.040961e-03  -1.434364e-02  0 
 -3.683357e-03  -1.433534e-02  0 
 -3.321710e-03  -1.432779e-02  0 
 -2.950275e-03  -1.432545e-02  0 
 -5.450901e-03  -1.471700e-02  0 
 -5.099663e-03  -1.471391e-02  0 
 -4.748438e-03  -1.471175e-02  0 
 -4.395291e-03  -1.470907e-02  0 
 -4.039446e-03  -1.470562e-02  0 
 -3.680249e-03  -1.470243e-02  0 
 -3.316034e-03  -1.470123e-02  0 
 -2.946419e-03  -1.470181e-02  0 
 -5.458664e-03  -1.507556e-02  0 
 -5.103406e-03  -1.507275e-02  0 
 -4.748896e-03  -1.507097e-02  0 
 -4.393651e-03  -1.506982e-02  0 
 -4.036280e-03  -1.506910e-02  0 
 -3.675704e-03  -1.506921e-02  0 
 -3.311550e-03  -1.507031e-02  0 
 -2.944543e-03  -1.507176e-02  0 
 -5.464501e-03  -1.543685e-02  0 
 -5.106456e-03  -1.543434e-02  0 
 -4.749329e-03  -1.543291e-02  0 
 -4.391897e-03  -1.543252e-02  0 
 -4.032972e-03  -1.543312e-02  0 
 -3.671806e-03  -1.543449e-02  0 
 -3.308420e-03  -1.543625e-02  0 
 -2.943576e-03  -1.543775e-02  0 
 -5.468524e-03  -1.579963e-02  0 
 -5.108646e-03  -1.579739e-02  0 
 -4.749650e-03  -1.579614e-02  0 
 -4.390523e-03  -1.579606e-02  0 
 -4.030480e-03  -1.579699e-02  0 
 -3.669081e-03  -1.579855e-02  0 
 -3.306383e-03  -1.580022e-02  0 
 -2.942947e-03  -1.580158e-02  0 
 -5.470930e-03  -1.616291e-02  0 
 -5.110152e-03  -1.616073e-02  0 
 -4.749925e-03  -1.615957e-02  0 
 -4.389680e-03  -1.615952e-02  0 
 -4.028953e-03  -1.616038e-02  0 
 -3.667465e-03  -1.616176e-02  0 
 -3.305195e-03  -1.616317e-02  0 
 -2.942409e-03  -1.616426e-02  0 
 -5.472443e-03  -1.652558e-02  0 
 -5.111159e-03  -1.652353e-02  0 
 -4.750164e-03  -1.652247e-02  0 
 -4.389278e-03  -1.652238e-02  0 
 -4.028165e-03  -1.652311e-02  0 
 -3.666617e-03  -1.652435e-02  0 
 -3.304592e-03  -1.652570e-02  0 
 -2.942068e-03  -1.652672e-02  0 
VECTORS displacement_ITER3 FLOAT
 -4.984160e-03  -1.226089e-02  0 
 -2.312642e-03  -1.202247e-02  0 
 -5.113194e-03  -1.497262e-02  0 
 -2.307789e-03  -1.497387e-02  0 
 -4.750304e-03  -1.223439e-02  0 
 -4.466700e-03  -1.221236e-02  0 
 -4.171557e-03  -1.219474e-02  0 
 -3.869859e-03  -1.217908e-02  0 
 -3.565163e-03  -1.216343e-02  0 
 -3.258355e-03  -1.214579e-02  0 
 -2.949383e-03  -1.212373e-02  0 
 -2.636776e-03  -1.208963e-02  0 
 -5.029905e-03  -1.251231e-02  0 
 -5.058007e-03  -1.280385e-02  0 
 -5.076138e-03  -1.310501e-02  0 
 -5.089346e-03  -1.341191e-02  0 
 -5.098937e-03  -1.372214e-02  0 
 -5.105386e-03  -1.403380e-02  0 
 -5.109368e-03  -1.434614e-02  0 
 -5.111607e-03  -1.465919e-02  0 
 -2.297869e-03  -1.241797e-02  0 
 -2.301178e-03  -1.275943e-02  0 
 -2.305019e-03  -1.308640e-02  0 
 -2.307899e-03  -1.340576e-02  0 
 -2.309268e-03  -1.372114e-02  0 
 -2.309514e-03  -1.403467e-02  0 
 -2.309071e-03  -1.434770e-02  0 
 -2.308285e-03  -1.466069e-02  0 
 -4.799832e-03  -1.496940e-02  0 
 -4.488034e-03  -1.496659e-02  0 
 -4.177099e-03  -1.496496e-02  0 
 -3.866514e-03  -1.496471e-02  0 
 -3.555856e-03  -1.496570e-02  0 
 -3.244821e-03  -1.496754e-02  0 
 -2.933212e-03  -1.496978e-02  0 
 -2.620875e-03  -1.497203e-02  0 
 -4.754874e-03  -1.250623e-02  0 
 -4.470658e-03  -1.250178e-02  0 
 -4.174720e-03  -1.249299e-02  0 
 -3.873394e-03  -1.248242e-02  0 
 -3.569082e-03  -1.247030e-02  0 
 -3.262830e-03  -1.245630e-02  0 
 -2.954562e-03  -1.243950e-02  0 
 -2.641575e-03  -1.242084e-02  0 
 -4.764237e-03  -1.279788e-02  0 
 -4.472071e-03  -1.279561e-02  0 
 -4.175674e-03  -1.279253e-02  0 
 -3.874590e-03  -1.278678e-02  0 
 -3.570392e-03  -1.277910e-02  0 
 -3.263574e-03  -1.277033e-02  0 
 -2.952855e-03  -1.276228e-02  0 
 -2.631900e-03  -1.275995e-02  0 
 -4.774545e-03  -1.310035e-02  0 
 -4.475229e-03  -1.309767e-02  0 
 -4.175656e-03  -1.309596e-02  0 
 -3.873725e-03  -1.309349e-02  0 
 -3.568788e-03  -1.308997e-02  0 
 -3.260353e-03  -1.308657e-02  0 
 -2.946720e-03  -1.308528e-02  0 
 -2.627480e-03  -1.308600e-02  0 
 -4.783005e-03  -1.340789e-02  0 
 -4.479071e-03  -1.340529e-02  0 
 -4.175887e-03  -1.340389e-02  0 
 -3.871798e-03  -1.340306e-02  0 
 -3.565358e-03  -1.340250e-02  0 
 -3.255481e-03  -1.340265e-02  0 
 -2.941821e-03  -1.340376e-02  0 
 -2.625287e-03  -1.340518e-02  0 
 -4.789534e-03  -1.371850e-02  0 
 -4.482391e-03  -1.371610e-02  0 
 -4.176242e-03  -1.371496e-02  0 
 -3.869784e-03  -1.371492e-02  0 
 -3.561737e-03  -1.371579e-02  0 
 -3.251271e-03  -1.371731e-02  0 
 -2.938400e-03  -1.371909e-02  0 
 -2.623958e-03  -1.372050e-02  0 
 -4.794199e-03  -1.403075e-02  0 
 -4.484844e-03  -1.402863e-02  0 
 -4.176511e-03  -1.402768e-02  0 
 -3.868199e-03  -1.402790e-02  0 
 -3.558985e-03  -1.402910e-02  0 
 -3.248307e-03  -1.403086e-02  0 
 -2.936147e-03  -1.403263e-02  0 
 -2.622974e-03  -1.403396e-02  0 
 -4.797132e-03  -1.434366e-02  0 
 -4.486433e-03  -1.434175e-02  0 
 -4.176695e-03  -1.434082e-02  0 
 -3.867202e-03  -1.434097e-02  0 
 -3.557279e-03  -1.434205e-02  0 
 -3.246500e-03  -1.434367e-02  0 
 -2.934749e-03  -1.434534e-02  0 
 -2.622167e-03  -1.434670e-02  0 
 -4.798807e-03  -1.465665e-02  0 
 -4.487356e-03  -1.465463e-02  0 
 -4.176866e-03  -1.465348e-02  0 
 -3.866713e-03  -1.465342e-02  0 
 -3.556374e-03  -1.465434e-02  0 
 -3.245492e-03  -1.465591e-02  0 
 -2.933890e-03  -1.465769e-02  0 
 -2.621504e-03  -1.465933e-02  0 
VECTORS displacement_ITER4 FLOAT
 -4.700162e-03  -1.182946e-02  0 
 -2.184086e-03  -1.158140e-02  0 
 -4.831343e-03  -1.437995e-02  0 
 -2.183527e-03  -1.438049e-02  0 
 -4.486186e-03  -1.180106e-02  0 
 -4.220201e-03  -1.177732e-02  0 
 -3.941477e-03  -1.175903e-02  0 
 -3.657034e-03  -1.174302e-02  0 
 -3.370072e-03  -1.172740e-02  0 
 -3.081303e-03  -1.170980e-02  0 
 -2.790449e-03  -1.168732e-02  0 
 -2.494125e-03  -1.165188e-02  0 
 -4.747002e-03  -1.206025e-02  0 
 -4.775921e-03  -1.233340e-02  0 
 -4.794371e-03  -1.261765e-02  0 
 -4.807587e-03  -1.290708e-02  0 
 -4.816970e-03  -1.319938e-02  0 
 -4.823280e-03  -1.349335e-02  0 
 -4.827475e-03  -1.378839e-02  0 
 -4.829893e-03  -1.408403e-02  0 
 -2.170796e-03  -1.196482e-02  0 
 -2.175687e-03  -1.228958e-02  0 
 -2.180444e-03  -1.259845e-02  0 
 -2.183595e-03  -1.290010e-02  0 
 -2.185082e-03  -1.319811e-02  0 
 -2.185363e-03  -1.349425e-02  0 
 -2.185014e-03  -1.378950e-02  0 
 -2.184297e-03  -1.408468e-02  0 
 -4.535505e-03  -1.437672e-02  0 
 -4.241130e-03  -1.437382e-02  0 
 -3.947681e-03  -1.437210e-02  0 
 -3.654610e-03  -1.437179e-02  0 
 -3.361478e-03  -1.437269e-02  0 
 -3.067986e-03  -1.437442e-02  0 
 -2.773959e-03  -1.437652e-02  0 
 -2.479263e-03  -1.437863e-02  0 
 -4.490704e-03  -1.205409e-02  0 
 -4.224083e-03  -1.204951e-02  0 
 -3.945205e-03  -1.204028e-02  0 
 -3.661063e-03  -1.202927e-02  0 
 -3.374282e-03  -1.201687e-02  0 
 -3.085829e-03  -1.200269e-02  0 
 -2.795216e-03  -1.198588e-02  0 
 -2.499213e-03  -1.196725e-02  0 
 -4.499790e-03  -1.232773e-02  0 
 -4.225307e-03  -1.232558e-02  0 
 -3.946341e-03  -1.232239e-02  0 
 -3.662600e-03  -1.231635e-02  0 
 -3.375844e-03  -1.230840e-02  0 
 -3.086541e-03  -1.229954e-02  0 
 -2.793220e-03  -1.229165e-02  0 
 -2.489281e-03  -1.228978e-02  0 
 -4.510086e-03  -1.261272e-02  0 
 -4.228356e-03  -1.261000e-02  0 
 -3.946327e-03  -1.260824e-02  0 
 -3.661857e-03  -1.260564e-02  0 
 -3.374337e-03  -1.260200e-02  0 
 -3.083287e-03  -1.259859e-02  0 
 -2.786970e-03  -1.259744e-02  0 
 -2.485080e-03  -1.259826e-02  0 
 -4.518672e-03  -1.290282e-02  0 
 -4.232204e-03  -1.290009e-02  0 
 -3.946533e-03  -1.289862e-02  0 
 -3.659926e-03  -1.289775e-02  0 
 -3.370912e-03  -1.289716e-02  0 
 -3.078427e-03  -1.289731e-02  0 
 -2.782195e-03  -1.289843e-02  0 
 -2.483246e-03  -1.289974e-02  0 
 -4.525200e-03  -1.319583e-02  0 
 -4.235544e-03  -1.319337e-02  0 
 -3.946870e-03  -1.319218e-02  0 
 -3.657881e-03  -1.319212e-02  0 
 -3.367283e-03  -1.319297e-02  0 
 -3.074273e-03  -1.319447e-02  0 
 -2.778929e-03  -1.319619e-02  0 
 -2.482121e-03  -1.319752e-02  0 
 -4.529779e-03  -1.349043e-02  0 
 -4.237967e-03  -1.348834e-02  0 
 -3.947118e-03  -1.348738e-02  0 
 -3.656277e-03  -1.348758e-02  0 
 -3.364540e-03  -1.348875e-02  0 
 -3.071366e-03  -1.349045e-02  0 
 -2.776759e-03  -1.349216e-02  0 
 -2.481193e-03  -1.349345e-02  0 
 -4.532692e-03  -1.378582e-02  0 
 -4.239513e-03  -1.378392e-02  0 
 -3.947277e-03  -1.378299e-02  0 
 -3.655276e-03  -1.378311e-02  0 
 -3.362853e-03  -1.378414e-02  0 
 -3.069600e-03  -1.378569e-02  0 
 -2.775401e-03  -1.378728e-02  0 
 -2.480402e-03  -1.378857e-02  0 
 -4.534423e-03  -1.408140e-02  0 
 -4.240430e-03  -1.407932e-02  0 
 -3.947436e-03  -1.407813e-02  0 
 -3.654792e-03  -1.407802e-02  0 
 -3.361969e-03  -1.407887e-02  0 
 -3.068623e-03  -1.408035e-02  0 
 -2.774589e-03  -1.408203e-02  0 
 -2.479802e-03  -1.408352e-02  0 
VECTORS displacement_ITER5 FLOAT
 -4.610936e-03  -1.167300e-02  0 
 -2.158285e-03  -1.141836e-02  0 
 -4.744610e-03  -1.415773e-02  0 
 -2.159674e-03  -1.415809e-02  0 
 -4.405604e-03  -1.164323e-02  0 
 -4.146913e-03  -1.161858e-02  0 
 -3.875328e-03  -1.160004e-02  0 
 -3.598377e-03  -1.158412e-02  0 
 -3.318628e-03  -1.156852e-02  0 
 -3.036767e-03  -1.155064e-02  0 
 -2.752806e-03  -1.152749e-02  0 
 -2.463333e-03  -1.149143e-02  0 
 -4.658293e-03  -1.189419e-02  0 
 -4.687937e-03  -1.215984e-02  0 
 -4.707158e-03  -1.243721e-02  0 
 -4.720613e-03  -1.271955e-02  0 
 -4.729904e-03  -1.300484e-02  0 
 -4.736151e-03  -1.329193e-02  0 
 -4.740320e-03  -1.358000e-02  0 
 -4.742906e-03  -1.386853e-02  0 
 -2.145970e-03  -1.179809e-02  0 
 -2.151417e-03  -1.211591e-02  0 
 -2.156456e-03  -1.241794e-02  0 
 -2.159475e-03  -1.271282e-02  0 
 -2.160985e-03  -1.300398e-02  0 
 -2.161448e-03  -1.329316e-02  0 
 -2.161243e-03  -1.358130e-02  0 
 -2.160598e-03  -1.386930e-02  0 
 -4.455463e-03  -1.415435e-02  0 
 -4.168074e-03  -1.415139e-02  0 
 -3.881634e-03  -1.414966e-02  0 
 -3.595573e-03  -1.414935e-02  0 
 -3.309452e-03  -1.415026e-02  0 
 -3.022981e-03  -1.415200e-02  0 
 -2.736006e-03  -1.415408e-02  0 
 -2.448415e-03  -1.415618e-02  0 
 -4.410216e-03  -1.188825e-02  0 
 -4.150981e-03  -1.188358e-02  0 
 -3.879230e-03  -1.187418e-02  0 
 -3.602274e-03  -1.186309e-02  0 
 -3.322694e-03  -1.185066e-02  0 
 -3.041344e-03  -1.183632e-02  0 
 -2.757672e-03  -1.181922e-02  0 
 -2.468401e-03  -1.180029e-02  0 
 -4.419273e-03  -1.215425e-02  0 
 -4.152184e-03  -1.215227e-02  0 
 -3.880413e-03  -1.214911e-02  0 
 -3.603806e-03  -1.214303e-02  0 
 -3.324185e-03  -1.213504e-02  0 
 -3.041966e-03  -1.212612e-02  0 
 -2.755580e-03  -1.211817e-02  0 
 -2.458312e-03  -1.211632e-02  0 
 -4.429758e-03  -1.243212e-02  0 
 -4.155196e-03  -1.242948e-02  0 
 -3.880358e-03  -1.242780e-02  0 
 -3.603028e-03  -1.242523e-02  0 
 -3.322607e-03  -1.242160e-02  0 
 -3.038596e-03  -1.241820e-02  0 
 -2.749203e-03  -1.241708e-02  0 
 -2.454162e-03  -1.241787e-02  0 
 -4.438535e-03  -1.271530e-02  0 
 -4.159077e-03  -1.271255e-02  0 
 -3.880523e-03  -1.271112e-02  0 
 -3.601034e-03  -1.271029e-02  0 
 -3.319099e-03  -1.270975e-02  0 
 -3.033637e-03  -1.270997e-02  0 
 -2.744376e-03  -1.271113e-02  0 
 -2.452348e-03  -1.271244e-02  0 
 -4.445106e-03  -1.300135e-02  0 
 -4.162463e-03  -1.299887e-02  0 
 -3.880848e-03  -1.299768e-02  0 
 -3.598931e-03  -1.299765e-02  0 
 -3.315390e-03  -1.299856e-02  0 
 -3.029410e-03  -1.300014e-02  0 
 -2.741066e-03  -1.300193e-02  0 
 -2.451201e-03  -1.300334e-02  0 
 -4.449682e-03  -1.328898e-02  0 
 -4.164914e-03  -1.328686e-02  0 
 -3.881093e-03  -1.328590e-02  0 
 -3.597287e-03  -1.328613e-02  0 
 -3.312587e-03  -1.328735e-02  0 
 -3.026439e-03  -1.328912e-02  0 
 -2.738843e-03  -1.329091e-02  0 
 -2.450272e-03  -1.329230e-02  0 
 -4.452640e-03  -1.357736e-02  0 
 -4.166467e-03  -1.357545e-02  0 
 -3.881242e-03  -1.357453e-02  0 
 -3.596260e-03  -1.357468e-02  0 
 -3.310859e-03  -1.357574e-02  0 
 -3.024626e-03  -1.357734e-02  0 
 -2.737450e-03  -1.357899e-02  0 
 -2.449501e-03  -1.358034e-02  0 
 -4.454389e-03  -1.386593e-02  0 
 -4.167375e-03  -1.386387e-02  0 
 -3.881392e-03  -1.386268e-02  0 
 -3.595761e-03  -1.386259e-02  0 
 -3.309952e-03  -1.386346e-02  0 
 -3.023625e-03  -1.386497e-02  0 
 -2.736632e-03  -1.386667e-02  0 
 -2.448922e-03  -1.386817e-02  0 
VECTORS displacement_ITER6 FLOAT
 -4.557865e-03  -1.160607e-02  0 
 -2.152750e-03  -1.134718e-02  0 
 -4.691866e-03  -1.404012e-02  0 
 -2.156391e-03  -1.404010e-02  0 
 -4.358380e-03  -1.157540e-02  0 
 -4.105116e-03  -1.155033e-02  0 
 -3.838949e-03  -1.153183e-02  0 
 -3.567463e-03  -1.151597e-02  0 
 -3.293096e-03  -1.150010e-02  0 
 -3.016635e-03  -1.148184e-02  0 
 -2.738087e-03  -1.145808e-02  0 
 -2.454082e-03  -1.142148e-02  0 
 -4.605405e-03  -1.182081e-02  0 
 -4.635239e-03  -1.208076e-02  0 
 -4.654500e-03  -1.235257e-02  0 
 -4.667753e-03  -1.262953e-02  0 
 -4.676970e-03  -1.290938e-02  0 
 -4.683245e-03  -1.319087e-02  0 
 -4.687369e-03  -1.347327e-02  0 
 -4.689998e-03  -1.375618e-02  0 
 -2.141018e-03  -1.172372e-02  0 
 -2.147202e-03  -1.203627e-02  0 
 -2.152512e-03  -1.233318e-02  0 
 -2.155617e-03  -1.262274e-02  0 
 -2.157344e-03  -1.290847e-02  0 
 -2.158086e-03  -1.319210e-02  0 
 -2.158048e-03  -1.347463e-02  0 
 -2.157414e-03  -1.375690e-02  0 
 -4.408033e-03  -1.403663e-02  0 
 -4.126175e-03  -1.403369e-02  0 
 -3.845246e-03  -1.403200e-02  0 
 -3.564670e-03  -1.403172e-02  0 
 -3.284025e-03  -1.403262e-02  0 
 -3.003047e-03  -1.403430e-02  0 
 -2.721605e-03  -1.403629e-02  0 
 -2.439607e-03  -1.403828e-02  0 
 -4.363080e-03  -1.181482e-02  0 
 -4.109246e-03  -1.181002e-02  0 
 -3.842876e-03  -1.180051e-02  0 
 -3.571399e-03  -1.178932e-02  0 
 -3.297311e-03  -1.177674e-02  0 
 -3.021421e-03  -1.176213e-02  0 
 -2.743139e-03  -1.174475e-02  0 
 -2.458986e-03  -1.172570e-02  0 
 -4.372062e-03  -1.207517e-02  0 
 -4.110444e-03  -1.207321e-02  0 
 -3.844121e-03  -1.206997e-02  0 
 -3.572989e-03  -1.206378e-02  0 
 -3.298861e-03  -1.205567e-02  0 
 -3.022090e-03  -1.204664e-02  0 
 -2.741021e-03  -1.203863e-02  0 
 -2.448873e-03  -1.203683e-02  0 
 -4.382483e-03  -1.234755e-02  0 
 -4.113417e-03  -1.234489e-02  0 
 -3.844080e-03  -1.234317e-02  0 
 -3.572238e-03  -1.234053e-02  0 
 -3.297286e-03  -1.233684e-02  0 
 -3.018692e-03  -1.233342e-02  0 
 -2.734628e-03  -1.233232e-02  0 
 -2.444886e-03  -1.233309e-02  0 
 -4.391208e-03  -1.262526e-02  0 
 -4.117275e-03  -1.262246e-02  0 
 -3.844232e-03  -1.262099e-02  0 
 -3.570231e-03  -1.262013e-02  0 
 -3.293750e-03  -1.261958e-02  0 
 -3.013707e-03  -1.261981e-02  0 
 -2.729838e-03  -1.262101e-02  0 
 -2.443180e-03  -1.262233e-02  0 
 -4.397759e-03  -1.290580e-02  0 
 -4.120651e-03  -1.290327e-02  0 
 -3.844538e-03  -1.290205e-02  0 
 -3.568097e-03  -1.290202e-02  0 
 -3.290008e-03  -1.290294e-02  0 
 -3.009464e-03  -1.290454e-02  0 
 -2.726557e-03  -1.290637e-02  0 
 -2.442131e-03  -1.290782e-02  0 
 -4.402338e-03  -1.318787e-02  0 
 -4.123092e-03  -1.318573e-02  0 
 -3.844760e-03  -1.318476e-02  0 
 -3.566423e-03  -1.318500e-02  0 
 -3.287177e-03  -1.318624e-02  0 
 -3.006482e-03  -1.318803e-02  0 
 -2.724354e-03  -1.318985e-02  0 
 -2.441301e-03  -1.319126e-02  0 
 -4.405291e-03  -1.347066e-02  0 
 -4.124625e-03  -1.346879e-02  0 
 -3.844886e-03  -1.346789e-02  0 
 -3.565373e-03  -1.346804e-02  0 
 -3.285432e-03  -1.346912e-02  0 
 -3.004665e-03  -1.347072e-02  0 
 -2.722984e-03  -1.347236e-02  0 
 -2.440599e-03  -1.347368e-02  0 
 -4.406997e-03  -1.375369e-02  0 
 -4.125498e-03  -1.375169e-02  0 
 -3.845017e-03  -1.375053e-02  0 
 -3.564863e-03  -1.375045e-02  0 
 -3.284520e-03  -1.375132e-02  0 
 -3.003672e-03  -1.375280e-02  0 
 -2.722198e-03  -1.375446e-02  0 
 -2.440064e-03  -1.375586e-02  0 
VECTORS displacement_ITER7 FLOAT
 -4.534962e-03  -1.155831e-02  0 
 -2.139757e-03  -1.129617e-02  0 
 -4.669434e-03  -1.398080e-02  0 
 -2.145077e-03  -1.398047e-02  0 
 -4.336728e-03  -1.152734e-02  0 
 -4.084754e-03  -1.150227e-02  0 
 -3.819917e-03  -1.148387e-02  0 
 -3.549765e-03  -1.146800e-02  0 
 -3.276759e-03  -1.145190e-02  0 
 -3.001627e-03  -1.143340e-02  0 
 -2.724168e-03  -1.140925e-02  0 
 -2.441352e-03  -1.137186e-02  0 
 -4.582291e-03  -1.177144e-02  0 
 -4.612200e-03  -1.202991e-02  0 
 -4.631569e-03  -1.230033e-02  0 
 -4.644884e-03  -1.257607e-02  0 
 -4.654220e-03  -1.285475e-02  0 
 -4.660577e-03  -1.313502e-02  0 
 -4.664665e-03  -1.341612e-02  0 
 -4.667363e-03  -1.369778e-02  0 
 -2.128616e-03  -1.167360e-02  0 
 -2.135356e-03  -1.198519e-02  0 
 -2.140681e-03  -1.228109e-02  0 
 -2.143806e-03  -1.256942e-02  0 
 -2.145570e-03  -1.285396e-02  0 
 -2.146368e-03  -1.313639e-02  0 
 -2.146417e-03  -1.341774e-02  0 
 -2.145897e-03  -1.369877e-02  0 
 -4.386558e-03  -1.397715e-02  0 
 -4.105916e-03  -1.397416e-02  0 
 -3.826217e-03  -1.397248e-02  0 
 -3.546867e-03  -1.397221e-02  0 
 -3.267446e-03  -1.397314e-02  0 
 -2.987693e-03  -1.397484e-02  0 
 -2.707486e-03  -1.397683e-02  0 
 -2.426763e-03  -1.397876e-02  0 
 -4.341466e-03  -1.176546e-02  0 
 -4.088912e-03  -1.176062e-02  0 
 -3.823857e-03  -1.175109e-02  0 
 -3.553746e-03  -1.173984e-02  0 
 -3.281009e-03  -1.172714e-02  0 
 -3.006403e-03  -1.171237e-02  0 
 -2.729354e-03  -1.169475e-02  0 
 -2.446201e-03  -1.167552e-02  0 
 -4.350430e-03  -1.202436e-02  0 
 -4.090150e-03  -1.202243e-02  0 
 -3.825146e-03  -1.201916e-02  0 
 -3.555348e-03  -1.201293e-02  0 
 -3.282540e-03  -1.200476e-02  0 
 -3.007041e-03  -1.199565e-02  0 
 -2.727137e-03  -1.198759e-02  0 
 -2.435967e-03  -1.198583e-02  0 
 -4.360865e-03  -1.229538e-02  0 
 -4.093132e-03  -1.229276e-02  0 
 -3.825119e-03  -1.229104e-02  0 
 -3.554587e-03  -1.228838e-02  0 
 -3.280921e-03  -1.228467e-02  0 
 -3.003558e-03  -1.228126e-02  0 
 -2.720636e-03  -1.228018e-02  0 
 -2.431986e-03  -1.228096e-02  0 
 -4.369626e-03  -1.257181e-02  0 
 -4.097000e-03  -1.256903e-02  0 
 -3.825262e-03  -1.256757e-02  0 
 -3.552550e-03  -1.256673e-02  0 
 -3.277328e-03  -1.256620e-02  0 
 -2.998499e-03  -1.256647e-02  0 
 -2.715796e-03  -1.256769e-02  0 
 -2.430261e-03  -1.256903e-02  0 
 -4.376233e-03  -1.285112e-02  0 
 -4.100392e-03  -1.284859e-02  0 
 -3.825553e-03  -1.284739e-02  0 
 -3.550377e-03  -1.284739e-02  0 
 -3.273532e-03  -1.284835e-02  0 
 -2.994206e-03  -1.285000e-02  0 
 -2.712489e-03  -1.285186e-02  0 
 -2.429223e-03  -1.285333e-02  0 
 -4.380865e-03  -1.313198e-02  0 
 -4.102851e-03  -1.312983e-02  0 
 -3.825761e-03  -1.312888e-02  0 
 -3.548667e-03  -1.312915e-02  0 
 -3.270657e-03  -1.313043e-02  0 
 -2.991187e-03  -1.313227e-02  0 
 -2.710275e-03  -1.313413e-02  0 
 -2.428421e-03  -1.313557e-02  0 
 -4.383849e-03  -1.341354e-02  0 
 -4.104389e-03  -1.341168e-02  0 
 -3.825872e-03  -1.341080e-02  0 
 -3.547592e-03  -1.341098e-02  0 
 -3.268880e-03  -1.341208e-02  0 
 -2.989341e-03  -1.341372e-02  0 
 -2.708892e-03  -1.341541e-02  0 
 -2.427749e-03  -1.341678e-02  0 
 -4.385539e-03  -1.369535e-02  0 
 -4.105247e-03  -1.369338e-02  0 
 -3.825993e-03  -1.369223e-02  0 
 -3.547067e-03  -1.369217e-02  0 
 -3.267950e-03  -1.369306e-02  0 
 -2.988327e-03  -1.369457e-02  0 
 -2.708086e-03  -1.369625e-02  0 
 -2.427226e-03  -1.369770e-02  0 
VECTORS displacement_ITER8 FLOAT
 -4.530138e-03  -1.153945e-02  0 
 -2.141439e-03  -1.127443e-02  0 
 -4.663644e-03  -1.395156e-02  0 
 -2.149017e-03  -1.395120e-02  0 
 -4.332464e-03  -1.150790e-02  0 
 -4.081267e-03  -1.148268e-02  0 
 -3.817380e-03  -1.146414e-02  0 
 -3.548261e-03  -1.144810e-02  0 
 -3.276357e-03  -1.143183e-02  0 
 -3.002290e-03  -1.141323e-02  0 
 -2.725679e-03  -1.138895e-02  0 
 -2.443490e-03  -1.135099e-02  0 
 -4.577034e-03  -1.175103e-02  0 
 -4.606772e-03  -1.200847e-02  0 
 -4.626043e-03  -1.227777e-02  0 
 -4.639318e-03  -1.255241e-02  0 
 -4.648600e-03  -1.282994e-02  0 
 -4.654858e-03  -1.310912e-02  0 
 -4.658875e-03  -1.338916e-02  0 
 -4.661564e-03  -1.366972e-02  0 
 -2.131027e-03  -1.165246e-02  0 
 -2.138306e-03  -1.196347e-02  0 
 -2.143842e-03  -1.225842e-02  0 
 -2.147265e-03  -1.254573e-02  0 
 -2.149222e-03  -1.282926e-02  0 
 -2.150120e-03  -1.311063e-02  0 
 -2.150248e-03  -1.339086e-02  0 
 -2.149789e-03  -1.367073e-02  0 
 -4.381881e-03  -1.394801e-02  0 
 -4.102322e-03  -1.394509e-02  0 
 -3.823684e-03  -1.394347e-02  0 
 -3.545376e-03  -1.394324e-02  0 
 -3.266988e-03  -1.394418e-02  0 
 -2.988274e-03  -1.394585e-02  0 
 -2.709128e-03  -1.394778e-02  0 
 -2.429511e-03  -1.394962e-02  0 
 -4.337249e-03  -1.174514e-02  0 
 -4.085544e-03  -1.174010e-02  0 
 -3.821444e-03  -1.173039e-02  0 
 -3.552346e-03  -1.171899e-02  0 
 -3.280631e-03  -1.170618e-02  0 
 -3.007008e-03  -1.169134e-02  0 
 -2.730873e-03  -1.167364e-02  0 
 -2.448383e-03  -1.165438e-02  0 
 -4.346082e-03  -1.200289e-02  0 
 -4.086828e-03  -1.200090e-02  0 
 -3.822803e-03  -1.199750e-02  0 
 -3.553994e-03  -1.199115e-02  0 
 -3.282169e-03  -1.198291e-02  0 
 -3.007626e-03  -1.197378e-02  0 
 -2.728594e-03  -1.196575e-02  0 
 -2.438157e-03  -1.196406e-02  0 