# vtk DataFile Version 3.1
this is an vtk file created by FEMAC
ASCII
DATASET UNSTRUCTURED_GRID
POINTS 100 FLOAT
2.000000 1.000000 0.000000
2.000000 2.000000 0.000000
3.000000 1.000000 0.000000
3.000000 2.000000 0.000000
2.000000 1.111111 0.000000
2.000000 1.222222 0.000000
2.000000 1.333333 0.000000
2.000000 1.444444 0.000000
2.000000 1.555556 0.000000
2.000000 1.666667 0.000000
2.000000 1.777778 0.000000
2.000000 1.888889 0.000000
2.111111 1.000000 0.000000
2.222222 1.000000 0.000000
2.333333 1.000000 0.000000
2.444444 1.000000 0.000000
2.555556 1.000000 0.000000
2.666667 1.000000 0.000000
2.777778 1.000000 0.000000
2.888889 1.000000 0.000000
2.111111 2.000000 0.000000
2.222222 2.000000 0.000000
2.333333 2.000000 0.000000
2.444444 2.000000 0.000000
2.555556 2.000000 0.000000
2.666667 2.000000 0.000000
2.777778 2.000000 0.000000
2.888889 2.000000 0.000000
3.000000 1.111111 0.000000
3.000000 1.222222 0.000000
3.000000 1.333333 0.000000
3.000000 1.444444 0.000000
3.000000 1.555556 0.000000
3.000000 1.666667 0.000000
3.000000 1.777778 0.000000
3.000000 1.888889 0.000000
2.111111 1.111111 0.000000
2.111111 1.222222 0.000000
2.111111 1.333333 0.000000
2.111111 1.444444 0.000000
2.111111 1.555556 0.000000
2.111111 1.666667 0.000000
2.111111 1.777778 0.000000
2.111111 1.888889 0.000000
2.222222 1.111111 0.000000
2.222222 1.222222 0.000000
2.222222 1.333333 0.000000
2.222222 1.444444 0.000000
2.222222 1.555556 0.000000
2.222222 1.666667 0.000000
2.222222 1.777778 0.000000
2.222222 1.888889 0.000000
2.333333 1.111111 0.000000
2.333333 1.222222 0.000000
2.333333 1.333333 0.000000
2.333333 1.444444 0.000000
2.333333 1.555556 0.000000
2.333333 1.666667 0.000000
2.333333 1.777778 0.000000
2.333333 1.888889 0.000000
2.444444 1.111111 0.000000
2.444444 1.222222 0.000000
2.444444 1.333333 0.000000
2.444444 1.444444 0.000000
2.444444 1.555556 0.000000
2.444444 1.666667 0.000000
2.444444 1.777778 0.000000
2.444444 1.888889 0.000000
2.555556 1.111111 0.000000
2.555556 1.222222 0.000000
2.555556 1.333333 0.000000
2.555556 1.444444 0.000000
2.555556 1.555556 0.000000
2.555556 1.666667 0.000000
2.555556 1.777778 0.000000
2.555556 1.888889 0.000000
2.666667 1.111111 0.000000
2.666667 1.222222 0.000000
2.666667 1.333333 0.000000
2.666667 1.444444 0.000000
2.666667 1.555556 0.000000
2.666667 1.666667 0.000000
2.666667 1.777778 0.000000
2.666667 1.888889 0.000000
2.777778 1.111111 0.000000
2.777778 1.222222 0.000000
2.777778 1.333333 0.000000
2.777778 1.444444 0.000000
2.777778 1.555556 0.000000
2.777778 1.666667 0.000000
2.777778 1.777778 0.000000
2.777778 1.888889 0.000000
2.888889 1.111111 0.000000
2.888889 1.222222 0.000000
2.888889 1.333333 0.000000
2.888889 1.444444 0.000000
2.888889 1.555556 0.000000
2.888889 1.666667 0.000000
2.888889 1.777778 0.000000
2.888889 1.888889 0.000000
CELLS 81 405 
4 0 12 36  4
4 4 36 37  5
4 5 37 38  6
4 6 38 39  7
4 7 39 40  8
4 8 40 41  9
4 9 41 42 10
4 10 42 43 11
4 11 43 20  1
4 12 13 44 36
4 36 44 45 37
4 37 45 46 38
4 38 46 47 39
4 39 47 48 40
4 40 48 49 41
4 41 49 50 42
4 42 50 51 43
4 43 51 21 20
4 13 14 52 44
4 44 52 53 45
4 45 53 54 46
4 46 54 55 47
4 47 55 56 48
4 48 56 57 49
4 49 57 58 50
4 50 58 59 51
4 51 59 22 21
4 14 15 60 52
4 52 60 61 53
4 53 61 62 54
4 54 62 63 55
4 55 63 64 56
4 56 64 65 57
4 57 65 66 58
4 58 66 67 59
4 59 67 23 22
4 15 16 68 60
4 60 68 69 61
4 61 69 70 62
4 62 70 71 63
4 63 71 72 64
4 64 72 73 65
4 65 73 74 66
4 66 74 75 67
4 67 75 24 23
4 16 17 76 68
4 68 76 77 69
4 69 77 78 70
4 70 78 79 71
4 71 79 80 72
4 72 80 81 73
4 73 81 82 74
4 74 82 83 75
4 75 83 25 24
4 17 18 84 76
4 76 84 85 77
4 77 85 86 78
4 78 86 87 79
4 79 87 88 80
4 80 88 89 81
4 81 89 90 82
4 82 90 91 83
4 83 91 26 25
4 18 19 92 84
4 84 92 93 85
4 85 93 94 86
4 86 94 95 87
4 87 95 96 88
4 88 96 97 89
4 89 97 98 90
4 90 98 99 91
4 91 99 27 26
4 19  2 28 92
4 92 28 29 93
4 93 29 30 94
4 94 30 31 95
4 95 31 32 96
4 96 32 33 97
4 97 33 34 98
4 98 34 35 99
4 99 35  3 27
CELL_TYPES 81
9 9 9 9 9 9 9 9 9 9 9 9 9 9 9 9 9 9 9 9 9 9 9 9 9 9 9 9 9 9 9 9 9 9 9 9 9 9 9 9 9 9 9 9 9 9 9 9 9 9 9 9 9 9 9 9 9 9 9 9 9 9 9 9 9 9 9 9 9 9 9 9 9 9 9 9 9 9 9 9 9 
POINT_DATA 100
VECTORS displacement_ITER1 FLOAT
 -4.584525e-03  -4.278300e-03  0 
 -5.305018e-05  -2.446325e-03  0 
 -6.567918e-03  -9.751979e-03  0 
 -2.441749e-03  -6.550399e-03  0 
 -2.244588e-03  -3.471292e-03  0 
 -1.480297e-03  -3.119992e-03  0 
 -1.817942e-03  -3.187068e-03  0 
 -2.056718e-03  -3.422163e-03  0 
 -1.892171e-03  -3.674363e-03  0 
 -1.545644e-03  -3.421023e-03  0 
 -1.062775e-03  -3.103690e-03  0 
 -1.629643e-03  -2.492752e-03  0 
 -4.244086e-03  -5.930326e-03  0 
 -4.658070e-03  -6.469602e-03  0 
 -4.791247e-03  -6.028454e-03  0 
 -5.275278e-03  -6.397945e-03  0 
 -5.415904e-03  -6.776461e-03  0 
 -5.019798e-03  -7.832909e-03  0 
 -4.296611e-03  -8.901547e-03  0 
 -5.266416e-03  -8.289086e-03  0 
 -2.618145e-03  -4.304785e-03  0 
 -3.588487e-03  -4.215593e-03  0 
 -3.082092e-03  -4.500347e-03  0 
 -2.603251e-03  -4.915639e-03  0 
 -2.791277e-03  -5.395922e-03  0 
 -2.622465e-03  -5.768494e-03  0 
 -2.382412e-03  -6.011517e-03  0 
 -2.605949e-03  -6.407397e-03  0 
 -5.869843e-03  -8.393378e-03  0 
 -6.323304e-03  -8.056966e-03  0 
 -5.469361e-03  -7.532656e-03  0 
 -4.636277e-03  -7.715318e-03  0 
 -4.189413e-03  -7.719481e-03  0 
 -4.077636e-03  -7.962158e-03  0 
 -3.871403e-03  -8.346972e-03  0 
 -2.858939e-03  -7.950787e-03  0 
 -3.351639e-03  -5.083564e-03  0 
 -2.548532e-03  -4.276474e-03  0 
 -2.235963e-03  -3.929969e-03  0 
 -2.145256e-03  -3.958690e-03  0 
 -2.078676e-03  -4.024919e-03  0 
 -1.959092e-03  -4.002799e-03  0 
 -1.943623e-03  -3.809783e-03  0 
 -1.976883e-03  -3.981930e-03  0 
 -4.059648e-03  -5.731800e-03  0 
 -3.369686e-03  -5.177830e-03  0 
 -2.808126e-03  -4.779900e-03  0 
 -2.490460e-03  -4.580742e-03  0 
 -2.340793e-03  -4.494361e-03  0 
 -2.282289e-03  -4.408353e-03  0 
 -2.257605e-03  -4.345357e-03  0 
 -2.450946e-03  -4.284761e-03  0 
 -4.485941e-03  -6.050915e-03  0 
 -3.861740e-03  -5.810450e-03  0 
 -3.304500e-03  -5.513410e-03  0 
 -2.911811e-03  -5.227809e-03  0 
 -2.684545e-03  -4.999349e-03  0 
 -2.570797e-03  -4.828178e-03  0 
 -2.565513e-03  -4.664009e-03  0 
 -2.749290e-03  -4.445834e-03  0 
 -4.630933e-03  -6.386282e-03  0 
 -4.111992e-03  -6.363073e-03  0 
 -3.673432e-03  -6.129256e-03  0 
 -3.325980e-03  -5.808320e-03  0 
 -3.060918e-03  -5.500447e-03  0 
 -2.885973e-03  -5.239450e-03  0 
 -2.817422e-03  -5.028009e-03  0 
 -2.815468e-03  -4.916448e-03  0 
 -4.654952e-03  -7.031634e-03  0 
 -4.260291e-03  -6.921752e-03  0 
 -3.996667e-03  -6.634675e-03  0 
 -3.720525e-03  -6.301007e-03  0 
 -3.442380e-03  -5.969955e-03  0 
 -3.186934e-03  -5.678580e-03  0 
 -2.970391e-03  -5.467718e-03  0 
 -2.796965e-03  -5.393344e-03  0 
 -4.608525e-03  -7.783348e-03  0 
 -4.521662e-03  -7.374678e-03  0 
 -4.335271e-03  -7.025845e-03  0 
 -4.101632e-03  -6.715420e-03  0 
 -3.806714e-03  -6.427931e-03  0 
 -3.458196e-03  -6.161570e-03  0 
 -3.101415e-03  -5.942329e-03  0 
 -2.790625e-03  -5.775753e-03  0 
 -4.981044e-03  -8.106374e-03  0 
 -4.888923e-03  -7.663004e-03  0 
 -4.701288e-03  -7.298674e-03  0 
 -4.441452e-03  -7.053823e-03  0 
 -4.121179e-03  -6.902551e-03  0 
 -3.723206e-03  -6.721792e-03  0 
 -3.251340e-03  -6.469386e-03  0 
 -2.810837e-03  -6.252010e-03  0 
 -5.410158e-03  -8.269114e-03  0 
 -5.383662e-03  -7.843909e-03  0 
 -5.101017e-03  -7.455741e-03  0 
 -4.661230e-03  -7.319952e-03  0 
 -4.271609e-03  -7.382823e-03  0 
 -3.994352e-03  -7.397080e-03  0 
 -3.495081e-03  -7.173065e-03  0 
 -2.788524e-03  -6.802076e-03  0 
VECTORS displacement_ITER2 FLOAT
 -2.703484e-03  -4.223648e-03  0 
 -1.944581e-03  -3.707515e-03  0 
 -4.424606e-03  -7.198885e-03  0 
 -1.055254e-03  -5.635765e-03  0 
 -2.487375e-03  -2.431084e-03  0 
 -1.913329e-03  -2.282206e-03  0 
 -2.002749e-03  -2.205026e-03  0 
 -1.971903e-03  -1.968232e-03  0 
 -1.335713e-03  -1.672601e-03  0 
 -7.596959e-04  -1.846661e-03  0 
 -2.843155e-04  -1.833183e-03  0 
 -2.642607e-04  -2.064314e-03  0 
 -3.802618e-03  -3.937505e-03  0 
 -4.093795e-03  -4.555266e-03  0 
 -3.951325e-03  -4.798256e-03  0 
 -3.856712e-03  -5.194174e-03  0 
 -3.850865e-03  -5.433978e-03  0 
 -3.937644e-03  -5.742261e-03  0 
 -4.191279e-03  -6.753613e-03  0 
 -4.426415e-03  -7.015807e-03  0 
 -2.177258e-03  -2.532677e-03  0 
 -1.651191e-03  -2.661956e-03  0 
 -1.102916e-03  -3.234298e-03  0 
 -1.084634e-03  -4.413545e-03  0 
 -1.651672e-03  -5.072890e-03  0 
 -1.983758e-03  -5.078356e-03  0 
 -2.078582e-03  -5.198636e-03  0 
 -1.793627e-03  -5.239661e-03  0 
 -4.935384e-03  -6.844011e-03  0 
 -4.624099e-03  -6.940920e-03  0 
 -3.835365e-03  -6.364069e-03  0 
 -3.407218e-03  -6.530834e-03  0 
 -3.152454e-03  -6.446164e-03  0 
 -3.195155e-03  -6.329583e-03  0 
 -3.342500e-03  -6.366446e-03  0 
 -2.647396e-03  -6.675485e-03  0 
 -3.103136e-03  -3.578996e-03  0 
 -2.509878e-03  -3.112195e-03  0 
 -2.246041e-03  -2.835092e-03  0 
 -2.011182e-03  -2.750077e-03  0 
 -1.576926e-03  -2.716132e-03  0 
 -1.107431e-03  -2.620451e-03  0 
 -8.120944e-04  -2.556024e-03  0 
 -8.733886e-04  -2.529955e-03  0 
 -3.441545e-03  -4.220965e-03  0 
 -2.945209e-03  -3.895538e-03  0 
 -2.527169e-03  -3.623421e-03  0 
 -2.168207e-03  -3.484109e-03  0 
 -1.821868e-03  -3.398110e-03  0 
 -1.498795e-03  -3.271851e-03  0 
 -1.280960e-03  -3.057969e-03  0 
 -1.319716e-03  -2.728115e-03  0 
 -3.613994e-03  -4.745838e-03  0 
 -3.198889e-03  -4.521391e-03  0 
 -2.790380e-03  -4.305965e-03  0 
 -2.415055e-03  -4.128979e-03  0 
 -2.098137e-03  -3.980770e-03  0 
 -1.852108e-03  -3.821233e-03  0 
 -1.697108e-03  -3.616191e-03  0 
 -1.549035e-03  -3.392726e-03  0 
 -3.663524e-03  -5.124977e-03  0 
 -3.361498e-03  -5.014249e-03  0 
 -3.010027e-03  -4.855499e-03  0 
 -2.671760e-03  -4.677462e-03  0 
 -2.372349e-03  -4.501265e-03  0 
 -2.131156e-03  -4.343277e-03  0 
 -1.934794e-03  -4.239555e-03  0 
 -1.701120e-03  -4.261176e-03  0 
 -3.714936e-03  -5.466013e-03  0 
 -3.465002e-03  -5.424983e-03  0 
 -3.195702e-03  -5.303401e-03  0 
 -2.908604e-03  -5.143982e-03  0 
 -2.616390e-03  -4.976525e-03  0 
 -2.330449e-03  -4.838421e-03  0 
 -2.057090e-03  -4.789629e-03  0 
 -1.780591e-03  -4.887077e-03  0 
 -3.748829e-03  -5.872366e-03  0 
 -3.580912e-03  -5.792885e-03  0 
 -3.368261e-03  -5.670324e-03  0 
 -3.118725e-03  -5.544896e-03  0 
 -2.834394e-03  -5.421106e-03  0 
 -2.510493e-03  -5.290382e-03  0 
 -2.175367e-03  -5.191596e-03  0 
 -1.943625e-03  -5.151155e-03  0 
 -3.950681e-03  -6.336184e-03  0 
 -3.772373e-03  -6.120244e-03  0 
 -3.550456e-03  -5.966596e-03  0 
 -3.286492e-03  -5.888197e-03  0 
 -3.024377e-03  -5.831399e-03  0 
 -2.742484e-03  -5.731131e-03  0 
 -2.394395e-03  -5.503467e-03  0 
 -2.096016e-03  -5.268860e-03  0 
 -4.368476e-03  -6.791318e-03  0 
 -4.102820e-03  -6.381166e-03  0 
 -3.720092e-03  -6.239967e-03  0 
 -3.402020e-03  -6.174364e-03  0 
 -3.131640e-03  -6.184101e-03  0 
 -3.002381e-03  -6.146184e-03  0 
 -2.829441e-03  -5.940500e-03  0 
 -2.240647e-03  -5.470507e-03  0 
VECTORS displacement_ITER3 FLOAT
 -2.614669e-03  -3.109698e-03  0 
 -8.285772e-04  -2.245098e-03  0 
 -3.616608e-03  -6.344876e-03  0 
 -1.276126e-03  -4.900966e-03  0 
 -1.838040e-03  -2.299799e-03  0 
 -1.497511e-03  -2.457095e-03  0 
 -1.341013e-03  -2.455261e-03  0 
 -1.235462e-03  -2.488029e-03  0 
 -1.090632e-03  -2.438785e-03  0 
 -1.221368e-03  -2.704526e-03  0 
 -1.330822e-03  -2.362411e-03  0 
 -7.944574e-04  -1.677186e-03  0 
 -3.371076e-03  -3.755264e-03  0 
 -3.263809e-03  -3.950365e-03  0 
 -3.257917e-03  -4.291121e-03  0 
 -3.210764e-03  -4.783427e-03  0 
 -3.261699e-03  -5.080506e-03  0 
 -3.306014e-03  -5.365181e-03  0 
 -3.628142e-03  -5.952756e-03  0 
 -3.664989e-03  -6.321425e-03  0 
 -1.179036e-03  -3.024775e-03  0 
 -1.491271e-03  -3.637302e-03  0 
 -1.804887e-03  -3.739123e-03  0 
 -1.960788e-03  -3.881943e-03  0 
 -1.813471e-03  -3.941067e-03  0 
 -1.647995e-03  -4.072991e-03  0 
 -1.561158e-03  -4.561499e-03  0 
 -1.476317e-03  -4.891746e-03  0 
 -4.169051e-03  -6.077907e-03  0 
 -4.023075e-03  -6.072591e-03  0 
 -3.832870e-03  -6.185931e-03  0 
 -3.490750e-03  -6.334478e-03  0 
 -3.101448e-03  -6.229200e-03  0 
 -2.671071e-03  -6.017521e-03  0 
 -2.428024e-03  -5.648148e-03  0 
 -2.001548e-03  -5.530500e-03  0 
 -2.452958e-03  -3.354131e-03  0 
 -1.893771e-03  -3.075423e-03  0 
 -1.630260e-03  -2.992952e-03  0 
 -1.465828e-03  -2.951975e-03  0 
 -1.359542e-03  -2.934132e-03  0 
 -1.394972e-03  -2.874373e-03  0 
 -1.459581e-03  -2.889800e-03  0 
 -1.277716e-03  -2.946009e-03  0 
 -2.804067e-03  -3.935794e-03  0 
 -2.290443e-03  -3.728386e-03  0 
 -1.937764e-03  -3.540942e-03  0 
 -1.720042e-03  -3.422760e-03  0 
 -1.599031e-03  -3.332971e-03  0 
 -1.543791e-03  -3.294510e-03  0 
 -1.503034e-03  -3.347886e-03  0 
 -1.472717e-03  -3.459940e-03  0 
 -2.900895e-03  -4.342708e-03  0 
 -2.562175e-03  -4.229611e-03  0 
 -2.236215e-03  -4.045893e-03  0 
 -1.984740e-03  -3.873687e-03  0 
 -1.805260e-03  -3.746069e-03  0 
 -1.673144e-03  -3.679752e-03  0 
 -1.591601e-03  -3.681493e-03  0 
 -1.602993e-03  -3.739377e-03  0 
 -3.005011e-03  -4.730919e-03  0 
 -2.756757e-03  -4.631765e-03  0 
 -2.491113e-03  -4.475167e-03  0 
 -2.236740e-03  -4.294904e-03  0 
 -2.013520e-03  -4.134679e-03  0 
 -1.829190e-03  -4.014652e-03  0 
 -1.704936e-03  -3.931351e-03  0 
 -1.707939e-03  -3.875388e-03  0 
 -3.130952e-03  -5.082952e-03  0 
 -2.941562e-03  -5.000088e-03  0 
 -2.721648e-03  -4.854650e-03  0 
 -2.481810e-03  -4.673770e-03  0 
 -2.235465e-03  -4.491715e-03  0 
 -2.010233e-03  -4.326746e-03  0 
 -1.841815e-03  -4.173403e-03  0 
 -1.759437e-03  -4.021487e-03  0 
 -3.266235e-03  -5.423645e-03  0 
 -3.139001e-03  -5.354711e-03  0 
 -2.967087e-03  -5.203980e-03  0 
 -2.736346e-03  -5.022759e-03  0 
 -2.466560e-03  -4.838040e-03  0 
 -2.196495e-03  -4.650885e-03  0 
 -1.970205e-03  -4.465840e-03  0 
 -1.806141e-03  -4.284938e-03  0 
 -3.435356e-03  -5.809796e-03  0 
 -3.389887e-03  -5.683130e-03  0 
 -3.254621e-03  -5.527898e-03  0 
 -3.004311e-03  -5.372772e-03  0 
 -2.691736e-03  -5.210014e-03  0 
 -2.374812e-03  -5.030571e-03  0 
 -2.074121e-03  -4.817353e-03  0 
 -1.821437e-03  -4.638096e-03  0 
 -3.720434e-03  -6.128169e-03  0 
 -3.725419e-03  -5.924857e-03  0 
 -3.568179e-03  -5.852302e-03  0 
 -3.271765e-03  -5.774567e-03  0 
 -2.894280e-03  -5.657747e-03  0 
 -2.531298e-03  -5.479421e-03  0 
 -2.214326e-03  -5.262458e-03  0 
 -1.811199e-03  -4.969836e-03  0 
VECTORS displacement_ITER4 FLOAT
 -2.559573e-03  -2.850636e-03  0 
 -1.257838e-03  -2.725523e-03  0 
 -3.680710e-03  -6.391055e-03  0 
 -1.486323e-03  -5.269003e-03  0 
 -1.775033e-03  -2.613145e-03  0 
 -1.773458e-03  -2.531508e-03  0 
 -1.541148e-03  -2.299694e-03  0 
 -1.263699e-03  -2.183706e-03  0 
 -1.000232e-03  -2.087557e-03  0 
 -7.769433e-04  -2.266766e-03  0 
 -6.487746e-04  -2.386192e-03  0 
 -6.272021e-04  -2.289074e-03  0 
 -2.978271e-03  -3.677968e-03  0 
 -2.962241e-03  -3.719382e-03  0 
 -3.055059e-03  -4.161330e-03  0 
 -3.074761e-03  -4.641939e-03  0 
 -3.115117e-03  -5.082917e-03  0 
 -3.077644e-03  -5.388570e-03  0 
 -3.306985e-03  -5.646387e-03  0 
 -3.465926e-03  -6.084417e-03  0 
 -1.324545e-03  -2.888634e-03  0 
 -1.182007e-03  -3.023581e-03  0 
 -1.239093e-03  -3.243605e-03  0 
 -1.325564e-03  -3.545395e-03  0 
 -1.272415e-03  -3.919344e-03  0 
 -1.413554e-03  -4.314210e-03  0 
 -1.594886e-03  -4.736943e-03  0 
 -1.664280e-03  -5.022794e-03  0 
 -3.786704e-03  -6.183609e-03  0 
 -3.434049e-03  -5.985238e-03  0 
 -3.251487e-03  -5.876271e-03  0 
 -3.094449e-03  -5.864334e-03  0 
 -2.938526e-03  -5.825055e-03  0 
 -2.665304e-03  -5.840038e-03  0 
 -2.417836e-03  -5.665023e-03  0 
 -2.206114e-03  -5.485915e-03  0 
 -2.357661e-03  -3.262015e-03  0 
 -2.006600e-03  -3.016524e-03  0 
 -1.755748e-03  -2.915872e-03  0 
 -1.474102e-03  -2.814970e-03  0 
 -1.191188e-03  -2.765892e-03  0 
 -9.727524e-04  -2.739896e-03  0 
 -8.964388e-04  -2.727352e-03  0 
 -9.440515e-04  -2.738765e-03  0 
 -2.657113e-03  -3.756237e-03  0 
 -2.263149e-03  -3.602517e-03  0 
 -1.947569e-03  -3.468379e-03  0 
 -1.669818e-03  -3.370539e-03  0 
 -1.414566e-03  -3.274323e-03  0 
 -1.219598e-03  -3.175668e-03  0 
 -1.112449e-03  -3.085683e-03  0 
 -1.112277e-03  -3.016449e-03  0 
 -2.730820e-03  -4.166669e-03  0 
 -2.443284e-03  -4.103164e-03  0 
 -2.148013e-03  -3.979569e-03  0 
 -1.881212e-03  -3.849579e-03  0 
 -1.648604e-03  -3.717564e-03  0 
 -1.458115e-03  -3.578908e-03  0 
 -1.322331e-03  -3.442428e-03  0 
 -1.248818e-03  -3.334215e-03  0 
 -2.817472e-03  -4.611862e-03  0 
 -2.579063e-03  -4.533002e-03  0 
 -2.340506e-03  -4.416885e-03  0 
 -2.101377e-03  -4.275417e-03  0 
 -1.881190e-03  -4.122543e-03  0 
 -1.687940e-03  -3.965036e-03  0 
 -1.522598e-03  -3.808334e-03  0 
 -1.385260e-03  -3.658087e-03  0 
 -2.913588e-03  -5.015925e-03  0 
 -2.730762e-03  -4.914030e-03  0 
 -2.528431e-03  -4.796097e-03  0 
 -2.318391e-03  -4.655491e-03  0 
 -2.107258e-03  -4.499080e-03  0 
 -1.904743e-03  -4.339027e-03  0 
 -1.715802e-03  -4.183766e-03  0 
 -1.530035e-03  -4.033479e-03  0 
 -3.045555e-03  -5.329691e-03  0 
 -2.889369e-03  -5.245501e-03  0 
 -2.719839e-03  -5.132777e-03  0 
 -2.531184e-03  -5.000418e-03  0 
 -2.325120e-03  -4.854167e-03  0 
 -2.107436e-03  -4.700907e-03  0 
 -1.888358e-03  -4.559105e-03  0 
 -1.666936e-03  -4.445777e-03  0 
 -3.167462e-03  -5.614592e-03  0 
 -3.056746e-03  -5.530084e-03  0 
 -2.912479e-03  -5.426935e-03  0 
 -2.738626e-03  -5.319080e-03  0 
 -2.536091e-03  -5.194347e-03  0 
 -2.304396e-03  -5.059661e-03  0 
 -2.043923e-03  -4.919940e-03  0 
 -1.793316e-03  -4.808552e-03  0 
 -3.377291e-03  -5.912978e-03  0 
 -3.248025e-03  -5.760990e-03  0 
 -3.092427e-03  -5.683311e-03  0 
 -2.933193e-03  -5.608249e-03  0 
 -2.742307e-03  -5.527101e-03  0 
 -2.496778e-03  -5.418410e-03  0 
 -2.222137e-03  -5.300268e-03  0 
 -1.912585e-03  -5.109646e-03  0 
VECTORS displacement_ITER5 FLOAT
 -2.561662e-03  -2.598365e-03  0 
 -9.873987e-04  -2.451141e-03  0 
 -3.618392e-03  -6.203966e-03  0 
 -1.486654e-03  -5.323281e-03  0 
 -1.775585e-03  -2.608661e-03  0 
 -1.686839e-03  -2.523159e-03  0 
 -1.404747e-03  -2.459561e-03  0 
 -1.211637e-03  -2.464610e-03  0 
 -1.139215e-03  -2.422690e-03  0 
 -9.630264e-04  -2.372961e-03  0 
 -7.414647e-04  -2.438142e-03  0 
 -7.630656e-04  -2.366412e-03  0 
 -2.789195e-03  -3.492307e-03  0 
 -2.852192e-03  -3.748590e-03  0 
 -2.917650e-03  -4.221421e-03  0 
 -3.021579e-03  -4.612637e-03  0 
 -3.160887e-03  -5.012495e-03  0 
 -3.195301e-03  -5.425330e-03  0 
 -3.237492e-03  -5.653559e-03  0 
 -3.345215e-03  -5.941310e-03  0 
 -1.225333e-03  -2.937857e-03  0 
 -1.243104e-03  -3.130327e-03  0 
 -1.341166e-03  -3.420832e-03  0 
 -1.438860e-03  -3.686824e-03  0 
 -1.443752e-03  -3.990206e-03  0 
 -1.539039e-03  -4.262527e-03  0 
 -1.574754e-03  -4.530848e-03  0 
 -1.583152e-03  -4.916865e-03  0 
 -3.732643e-03  -6.010494e-03  0 
 -3.525009e-03  -5.906359e-03  0 
 -3.305643e-03  -5.879674e-03  0 
 -3.071549e-03  -5.803914e-03  0 
 -2.864029e-03  -5.733211e-03  0 
 -2.621371e-03  -5.741187e-03  0 
 -2.344011e-03  -5.657888e-03  0 
 -2.116463e-03  -5.428037e-03  0 
 -2.244038e-03  -3.218917e-03  0 
 -1.895660e-03  -3.072405e-03  0 
 -1.643140e-03  -3.007763e-03  0 
 -1.440125e-03  -2.932064e-03  0 
 -1.286473e-03  -2.889829e-03  0 
 -1.127232e-03  -2.878867e-03  0 
 -1.020342e-03  -2.834504e-03  0 
 -1.021380e-03  -2.816287e-03  0 
 -2.504736e-03  -3.749021e-03  0 
 -2.149183e-03  -3.618324e-03  0 
 -1.871125e-03  -3.501288e-03  0 
 -1.650684e-03  -3.408854e-03  0 
 -1.463985e-03  -3.334786e-03  0 
 -1.318997e-03  -3.269497e-03  0 
 -1.224687e-03  -3.206071e-03  0 
 -1.195794e-03  -3.153794e-03  0 
 -2.640803e-03  -4.170623e-03  0 
 -2.359757e-03  -4.086104e-03  0 
 -2.090565e-03  -3.967867e-03  0 
 -1.859921e-03  -3.849417e-03  0 
 -1.666545e-03  -3.739045e-03  0 
 -1.511909e-03  -3.636207e-03  0 
 -1.401069e-03  -3.543138e-03  0 
 -1.343085e-03  -3.468368e-03  0 
 -2.776626e-03  -4.574187e-03  0 
 -2.528047e-03  -4.498869e-03  0 
 -2.294445e-03  -4.384464e-03  0 
 -2.074500e-03  -4.250300e-03  0 
 -1.876237e-03  -4.113908e-03  0 
 -1.704818e-03  -3.984060e-03  0 
 -1.566720e-03  -3.866649e-03  0 
 -1.467113e-03  -3.765325e-03  0 
 -2.896891e-03  -4.970478e-03  0 
 -2.693681e-03  -4.877213e-03  0 
 -2.493020e-03  -4.754034e-03  0 
 -2.290458e-03  -4.612926e-03  0 
 -2.088729e-03  -4.464953e-03  0 
 -1.896517e-03  -4.319509e-03  0 
 -1.723901e-03  -4.184275e-03  0 
 -1.583496e-03  -4.068610e-03  0 
 -3.036932e-03  -5.328847e-03  0 
 -2.871195e-03  -5.212502e-03  0 
 -2.698216e-03  -5.081477e-03  0 
 -2.507362e-03  -4.943246e-03  0 
 -2.300845e-03  -4.799867e-03  0 
 -2.086870e-03  -4.651460e-03  0 
 -1.876614e-03  -4.505560e-03  0 
 -1.679096e-03  -4.375361e-03  0 
 -3.184522e-03  -5.614592e-03  0 
 -3.069833e-03  -5.493067e-03  0 
 -2.910437e-03  -5.365292e-03  0 
 -2.718842e-03  -5.248862e-03  0 
 -2.507431e-03  -5.127771e-03  0 
 -2.277775e-03  -4.991438e-03  0 
 -2.029775e-03  -4.841482e-03  0 
 -1.787783e-03  -4.688634e-03  0 
 -3.379374e-03  -5.836897e-03  0 
 -3.297652e-03  -5.712030e-03  0 
 -3.117178e-03  -5.616773e-03  0 
 -2.907698e-03  -5.535001e-03  0 
 -2.700652e-03  -5.451221e-03  0 
 -2.465828e-03  -5.346343e-03  0 
 -2.191980e-03  -5.218122e-03  0 
 -1.895222e-03  -5.042394e-03  0 
VECTORS displacement_ITER6 FLOAT
 -2.486292e-03  -2.736447e-03  0 
 -9.573371e-04  -2.468155e-03  0 
 -3.526950e-03  -6.191274e-03  0 
 -1.565184e-03  -5.306068e-03  0 
 -1.954370e-03  -2.626623e-03  0 
 -1.682459e-03  -2.476729e-03  0 
 -1.382177e-03  -2.465475e-03  0 
 -1.187511e-03  -2.458267e-03  0 
 -1.107551e-03  -2.449332e-03  0 
 -9.732026e-04  -2.346772e-03  0 
 -7.779121e-04  -2.347263e-03  0 
 -7.670281e-04  -2.366672e-03  0 
 -2.771978e-03  -3.360918e-03  0 
 -2.913759e-03  -3.830445e-03  0 
 -2.935693e-03  -4.299731e-03  0 
 -3.019415e-03  -4.642101e-03  0 
 -3.141801e-03  -4.954005e-03  0 
 -3.261213e-03  -5.350760e-03  0 
 -3.279314e-03  -5.670780e-03  0 
 -3.328711e-03  -5.983703e-03  0 
 -1.186239e-03  -2.866681e-03  0 
 -1.261958e-03  -3.141732e-03  0 
 -1.362673e-03  -3.454588e-03  0 
 -1.441948e-03  -3.717833e-03  0 
 -1.492066e-03  -3.970226e-03  0 
 -1.528017e-03  -4.224425e-03  0 
 -1.513127e-03  -4.477202e-03  0 
 -1.532667e-03  -4.919649e-03  0 
 -3.698576e-03  -6.042337e-03  0 
 -3.568445e-03  -5.960603e-03  0 
 -3.348570e-03  -5.939968e-03  0 
 -3.088892e-03  -5.868124e-03  0 
 -2.812920e-03  -5.798743e-03  0 
 -2.567581e-03  -5.755879e-03  0 
 -2.303367e-03  -5.722779e-03  0 
 -2.012237e-03  -5.495627e-03  0 
 -2.290666e-03  -3.211366e-03  0 
 -1.919750e-03  -3.099093e-03  0 
 -1.630853e-03  -3.010441e-03  0 
 -1.423432e-03  -2.934496e-03  0 
 -1.281599e-03  -2.877646e-03  0 
 -1.146975e-03  -2.854109e-03  0 
 -1.032319e-03  -2.817967e-03  0 
 -1.016534e-03  -2.800045e-03  0 
 -2.502886e-03  -3.763933e-03  0 
 -2.159768e-03  -3.636688e-03  0 
 -1.875823e-03  -3.513222e-03  0 
 -1.649050e-03  -3.405106e-03  0 
 -1.467503e-03  -3.322059e-03  0 
 -1.326167e-03  -3.258409e-03  0 
 -1.232356e-03  -3.202871e-03  0 
 -1.207130e-03  -3.156336e-03  0 
 -2.664855e-03  -4.216268e-03  0 
 -2.373844e-03  -4.100525e-03  0 
 -2.102477e-03  -3.972332e-03  0 
 -1.866417e-03  -3.846349e-03  0 
 -1.668194e-03  -3.731206e-03  0 
 -1.511442e-03  -3.630194e-03  0 
 -1.403064e-03  -3.544392e-03  0 
 -1.351155e-03  -3.480814e-03  0 
 -2.806734e-03  -4.591456e-03  0 
 -2.555921e-03  -4.505887e-03  0 
 -2.309634e-03  -4.386071e-03  0 
 -2.080718e-03  -4.248978e-03  0 
 -1.874575e-03  -4.109927e-03  0 
 -1.697193e-03  -3.979239e-03  0 
 -1.557970e-03  -3.865928e-03  0 
 -1.467236e-03  -3.777571e-03  0 
 -2.929153e-03  -4.944485e-03  0 
 -2.717418e-03  -4.874806e-03  0 
 -2.505954e-03  -4.757885e-03  0 
 -2.293698e-03  -4.615595e-03  0 
 -2.083478e-03  -4.464708e-03  0 
 -1.883212e-03  -4.315724e-03  0 
 -1.704852e-03  -4.176822e-03  0 
 -1.569288e-03  -4.060082e-03  0 
 -3.049872e-03  -5.303311e-03  0 
 -2.882012e-03  -5.214795e-03  0 
 -2.705027e-03  -5.090605e-03  0 
 -2.507340e-03  -4.951074e-03  0 
 -2.292370e-03  -4.804507e-03  0 
 -2.070013e-03  -4.651851e-03  0 
 -1.853342e-03  -4.496004e-03  0 
 -1.656548e-03  -4.343444e-03  0 
 -3.191681e-03  -5.635152e-03  0 
 -3.075967e-03  -5.514823e-03  0 
 -2.917029e-03  -5.384652e-03  0 
 -2.716951e-03  -5.262461e-03  0 
 -2.494386e-03  -5.139993e-03  0 
 -2.255444e-03  -5.001309e-03  0 
 -2.004415e-03  -4.843429e-03  0 
 -1.757187e-03  -4.671927e-03  0 
 -3.381129e-03  -5.885703e-03  0 
 -3.314547e-03  -5.757751e-03  0 
 -3.137891e-03  -5.652642e-03  0 
 -2.909833e-03  -5.562251e-03  0 
 -2.673917e-03  -5.473947e-03  0 
 -2.432464e-03  -5.376351e-03  0 
 -2.157454e-03  -5.237120e-03  0 
 -1.855385e-03  -5.066193e-03  0 
VECTORS displacement_ITER7 FLOAT
 -2.487909e-03  -2.789701e-03  0 
 -1.028427e-03  -2.563324e-03  0 
 -3.551719e-03  -6.193038e-03  0 
 -1.592558e-03  -5.335092e-03  0 
 -1.986568e-03  -2.652527e-03  0 
 -1.677813e-03  -2.509316e-03  0 
 -1.459350e-03  -2.446069e-03  0 
 -1.252709e-03  -2.355114e-03  0 
 -1.059417e-03  -2.347919e-03  0 
 -9.125344e-04  -2.330095e-03  0 
 -7.928440e-04  -2.329145e-03  0 
 -7.474023e-04  -2.392393e-03  0 
 -2.733869e-03  -3.363915e-03  0 
 -2.873028e-03  -3.859234e-03  0 
 -2.946462e-03  -4.265571e-03  0 
 -3.040702e-03  -4.635150e-03  0 
 -3.098281e-03  -4.974556e-03  0 
 -3.203660e-03  -5.310656e-03  0 
 -3.263665e-03  -5.643617e-03  0 
 -3.345618e-03  -5.971515e-03  0 
 -1.176443e-03  -2.836021e-03  0 
 -1.309903e-03  -3.135026e-03  0 
 -1.381535e-03  -3.412401e-03  0 
 -1.412753e-03  -3.693624e-03  0 
 -1.466338e-03  -3.973313e-03  0 
 -1.486210e-03  -4.255346e-03  0 
 -1.518130e-03  -4.519549e-03  0 
 -1.563096e-03  -4.894868e-03  0 
 -3.654417e-03  -6.068272e-03  0 
 -3.520542e-03  -5.949649e-03  0 
 -3.315624e-03  -5.893588e-03  0 
 -3.079711e-03  -5.831388e-03  0 
 -2.800148e-03  -5.790163e-03  0 
 -2.543975e-03  -5.734594e-03  0 
 -2.307637e-03  -5.709766e-03  0 
 -2.010984e-03  -5.550426e-03  0 
 -2.292573e-03  -3.232503e-03  0 
 -1.949433e-03  -3.094486e-03  0 
 -1.682744e-03  -2.982834e-03  0 
 -1.456237e-03  -2.910215e-03  0 
 -1.260681e-03  -2.851095e-03  0 
 -1.111671e-03  -2.815846e-03  0 
 -1.011782e-03  -2.801342e-03  0 
 -1.014176e-03  -2.798411e-03  0 
 -2.508191e-03  -3.753418e-03  0 
 -2.184728e-03  -3.622890e-03  0 
 -1.903157e-03  -3.501678e-03  0 
 -1.663546e-03  -3.398229e-03  0 
 -1.463757e-03  -3.311640e-03  0 
 -1.307524e-03  -3.239176e-03  0 
 -1.212918e-03  -3.179141e-03  0 
 -1.204402e-03  -3.136412e-03  0 
 -2.670426e-03  -4.197375e-03  0 
 -2.382383e-03  -4.089974e-03  0 
 -2.113869e-03  -3.967147e-03  0 
 -1.874152e-03  -3.843950e-03  0 
 -1.668819e-03  -3.726934e-03  0 
 -1.504895e-03  -3.618725e-03  0 
 -1.393902e-03  -3.522582e-03  0 
 -1.347624e-03  -3.446722e-03  0 
 -2.797147e-03  -4.588329e-03  0 
 -2.553869e-03  -4.500060e-03  0 
 -2.311901e-03  -4.381892e-03  0 
 -2.083974e-03  -4.247291e-03  0 
 -1.876859e-03  -4.107931e-03  0 
 -1.698053e-03  -3.972790e-03  0 
 -1.557383e-03  -3.850984e-03  0 
 -1.464514e-03  -3.753780e-03  0 
 -2.917263e-03  -4.944875e-03  0 
 -2.710802e-03  -4.867673e-03  0 
 -2.502380e-03  -4.752248e-03  0 
 -2.292713e-03  -4.613150e-03  0 
 -2.085225e-03  -4.463833e-03  0 
 -1.886922e-03  -4.314187e-03  0 
 -1.708009e-03  -4.174339e-03  0 
 -1.561189e-03  -4.058394e-03  0 
 -3.031066e-03  -5.281871e-03  0 
 -2.869803e-03  -5.201235e-03  0 
 -2.694661e-03  -5.082449e-03  0 
 -2.500948e-03  -4.947051e-03  0 
 -2.291568e-03  -4.803508e-03  0 
 -2.072816e-03  -4.654282e-03  0 
 -1.854490e-03  -4.504417e-03  0 
 -1.651576e-03  -4.363094e-03  0 
 -3.165558e-03  -5.601920e-03  0 
 -3.051203e-03  -5.495187e-03  0 
 -2.897055e-03  -5.374418e-03  0 
 -2.705151e-03  -5.254322e-03  0 
 -2.489565e-03  -5.134861e-03  0 
 -2.255100e-03  -5.004728e-03  0 
 -2.003808e-03  -4.856670e-03  0 
 -1.750093e-03  -4.695741e-03  0 
 -3.355982e-03  -5.865852e-03  0 
 -3.271549e-03  -5.741623e-03  0 
 -3.108750e-03  -5.636414e-03  0 
 -2.898325e-03  -5.545394e-03  0 
 -2.664145e-03  -5.458893e-03  0 
 -2.423209e-03  -5.374641e-03  0 
 -2.160084e-03  -5.250144e-03  0 
 -1.861665e-03  -5.079449e-03  0 
VECTORS displacement_ITER8 FLOAT
 -2.513913e-03  -2.766315e-03  0 
 -9.466358e-04  -2.504723e-03  0 
 -3.565852e-03  -6.152909e-03  0 
 -1.582540e-03  -5.390613e-03  0 
 -1.949962e-03  -2.642738e-03  0 
 -1.624802e-03  -2.538557e-03  0 
 -1.442227e-03  -2.463637e-03  0 
 -1.259303e-03  -2.383532e-03  0 
 -1.062045e-03  -2.372366e-03  0 
 -9.339640e-04  -2.393478e-03  0 
 -8.697968e-04  -2.376328e-03  0 
 -7.856819e-04  -2.386893e-03  0 
 -2.708974e-03  -3.402581e-03  0 
 -2.824536e-03  -3.883310e-03  0 
 -2.946741e-03  -4.248029e-03  0 
 -3.055436e-03  -4.640125e-03  0 
 -3.100902e-03  -5.025287e-03  0 
 -3.169878e-03  -5.353723e-03  0 
 -3.254073e-03  -5.674043e-03  0 
 -3.368907e-03  -5.960583e-03  0 
 -1.140034e-03  -2.896740e-03  0 
 -1.350858e-03  -3.205467e-03  0 
 -1.430698e-03  -3.449882e-03  0 
 -1.462504e-03  -3.726130e-03  0 
 -1.507409e-03  -4.012660e-03  0 
 -1.520309e-03  -4.295679e-03  0 
 -1.577057e-03  -4.583974e-03  0 
 -1.612692e-03  -4.877433e-03  0 
 -3.673773e-03  -6.056262e-03  0 
 -3.534066e-03  -5.977528e-03  0 
 -3.317617e-03  -5.914041e-03  0 
 -3.082065e-03  -5.861143e-03  0 
 -2.816103e-03  -5.822619e-03  0 
 -2.547335e-03  -5.765712e-03  0 
 -2.313815e-03  -5.703132e-03  0 
 -2.038973e-03  -5.588102e-03  0 
 -2.262108e-03  -3.260936e-03  0 
 -1.921897e-03  -3.108247e-03  0 
 -1.669245e-03  -2.997860e-03  0 
 -1.455367e-03  -2.932388e-03  0 
 -1.267922e-03  -2.882878e-03  0 
 -1.137601e-03  -2.845989e-03  0 
 -1.059992e-03  -2.839739e-03  0 
 -1.049657e-03  -2.852237e-03  0 
 -2.495496e-03  -3.767836e-03  0 
 -2.172038e-03  -3.636746e-03  0 
 -1.893543e-03  -3.517296e-03  0 
 -1.662015e-03  -3.419086e-03  0 
 -1.473994e-03  -3.336525e-03  0 
 -1.330104e-03  -3.269368e-03  0 
 -1.241594e-03  -3.221710e-03  0 
 -1.228613e-03  -3.198280e-03  0 