# vtk DataFile Version 3.1
this is an vtk file created by FEMAC
ASCII
DATASET UNSTRUCTURED_GRID
POINTS 100 FLOAT
1.000000 0.000000 0.000000
2.000000 0.000000 0.000000
1.000000 1.000000 0.000000
2.000000 1.000000 0.000000
1.111111 0.000000 0.000000
1.222222 0.000000 0.000000
1.333333 0.000000 0.000000
1.444444 0.000000 0.000000
1.555556 0.000000 0.000000
1.666667 0.000000 0.000000
1.777778 0.000000 0.000000
1.888889 0.000000 0.000000
1.000000 0.111111 0.000000
1.000000 0.222222 0.000000
1.000000 0.333333 0.000000
1.000000 0.444444 0.000000
1.000000 0.555556 0.000000
1.000000 0.666667 0.000000
1.000000 0.777778 0.000000
1.000000 0.888889 0.000000
1.111111 1.000000 0.000000
1.222222 1.000000 0.000000
1.333333 1.000000 0.000000
1.444444 1.000000 0.000000
1.555556 1.000000 0.000000
1.666667 1.000000 0.000000
1.777778 1.000000 0.000000
1.888889 1.000000 0.000000
2.000000 0.111111 0.000000
2.000000 0.222222 0.000000
2.000000 0.333333 0.000000
2.000000 0.444444 0.000000
2.000000 0.555556 0.000000
2.000000 0.666667 0.000000
2.000000 0.777778 0.000000
2.000000 0.888889 0.000000
1.111111 0.111111 0.000000
1.111111 0.222222 0.000000
1.111111 0.333333 0.000000
1.111111 0.444444 0.000000
1.111111 0.555556 0.000000
1.111111 0.666667 0.000000
1.111111 0.777778 0.000000
1.111111 0.888889 0.000000
1.222222 0.111111 0.000000
1.222222 0.222222 0.000000
1.222222 0.333333 0.000000
1.222222 0.444444 0.000000
1.222222 0.555556 0.000000
1.222222 0.666667 0.000000
1.222222 0.777778 0.000000
1.222222 0.888889 0.000000
1.333333 0.111111 0.000000
1.333333 0.222222 0.000000
1.333333 0.333333 0.000000
1.333333 0.444444 0.000000
1.333333 0.555556 0.000000
1.333333 0.666667 0.000000
1.333333 0.777778 0.000000
1.333333 0.888889 0.000000
1.444444 0.111111 0.000000
1.444444 0.222222 0.000000
1.444444 0.333333 0.000000
1.444444 0.444444 0.000000
1.444444 0.555556 0.000000
1.444444 0.666667 0.000000
1.444444 0.777778 0.000000
1.444444 0.888889 0.000000
1.555556 0.111111 0.000000
1.555556 0.222222 0.000000
1.555556 0.333333 0.000000
1.555556 0.444444 0.000000
1.555556 0.555556 0.000000
1.555556 0.666667 0.000000
1.555556 0.777778 0.000000
1.555556 0.888889 0.000000
1.666667 0.111111 0.000000
1.666667 0.222222 0.000000
1.666667 0.333333 0.000000
1.666667 0.444444 0.000000
1.666667 0.555556 0.000000
1.666667 0.666667 0.000000
1.666667 0.777778 0.000000
1.666667 0.888889 0.000000
1.777778 0.111111 0.000000
1.777778 0.222222 0.000000
1.777778 0.333333 0.000000
1.777778 0.444444 0.000000
1.777778 0.555556 0.000000
1.777778 0.666667 0.000000
1.777778 0.777778 0.000000
1.777778 0.888889 0.000000
1.888889 0.111111 0.000000
1.888889 0.222222 0.000000
1.888889 0.333333 0.000000
1.888889 0.444444 0.000000
1.888889 0.555556 0.000000
1.888889 0.666667 0.000000
1.888889 0.777778 0.000000
1.888889 0.888889 0.000000
CELLS 81 405 
4 0  4 36 12
4 12 36 37 13
4 13 37 38 14
4 14 38 39 15
4 15 39 40 16
4 16 40 41 17
4 17 41 42 18
4 18 42 43 19
4 19 43 20  2
4 4  5 44 36
4 36 44 45 37
4 37 45 46 38
4 38 46 47 39
4 39 47 48 40
4 40 48 49 41
4 41 49 50 42
4 42 50 51 43
4 43 51 21 20
4 5  6 52 44
4 44 52 53 45
4 45 53 54 46
4 46 54 55 47
4 47 55 56 48
4 48 56 57 49
4 49 57 58 50
4 50 58 59 51
4 51 59 22 21
4 6  7 60 52
4 52 60 61 53
4 53 61 62 54
4 54 62 63 55
4 55 63 64 56
4 56 64 65 57
4 57 65 66 58
4 58 66 67 59
4 59 67 23 22
4 7  8 68 60
4 60 68 69 61
4 61 69 70 62
4 62 70 71 63
4 63 71 72 64
4 64 72 73 65
4 65 73 74 66
4 66 74 75 67
4 67 75 24 23
4 8  9 76 68
4 68 76 77 69
4 69 77 78 70
4 70 78 79 71
4 71 79 80 72
4 72 80 81 73
4 73 81 82 74
4 74 82 83 75
4 75 83 25 24
4 9 10 84 76
4 76 84 85 77
4 77 85 86 78
4 78 86 87 79
4 79 87 88 80
4 80 88 89 81
4 81 89 90 82
4 82 90 91 83
4 83 91 26 25
4 10 11 92 84
4 84 92 93 85
4 85 93 94 86
4 86 94 95 87
4 87 95 96 88
4 88 96 97 89
4 89 97 98 90
4 90 98 99 91
4 91 99 27 26
4 11  1 28 92
4 92 28 29 93
4 93 29 30 94
4 94 30 31 95
4 95 31 32 96
4 96 32 33 97
4 97 33 34 98
4 98 34 35 99
4 99 35  3 27
CELL_TYPES 81
9 9 9 9 9 9 9 9 9 9 9 9 9 9 9 9 9 9 9 9 9 9 9 9 9 9 9 9 9 9 9 9 9 9 9 9 9 9 9 9 9 9 9 9 9 9 9 9 9 9 9 9 9 9 9 9 9 9 9 9 9 9 9 9 9 9 9 9 9 9 9 9 9 9 9 9 9 9 9 9 9 
POINT_DATA 100
VECTORS displacement_ITER1 FLOAT
 -7.024767e-04  -7.957713e-04  0 
 -9.397164e-03  -5.261267e-03  0 
 5.158777e-04  -3.777535e-04  0 
 -4.808724e-03  -3.231457e-03  0 
 -2.099708e-03  -1.616957e-03  0 
 -3.304703e-03  -2.221122e-03  0 
 -4.332861e-03  -2.837832e-03  0 
 -5.233171e-03  -3.416856e-03  0 
 -6.053844e-03  -3.927671e-03  0 
 -6.828381e-03  -4.359849e-03  0 
 -7.588320e-03  -4.710450e-03  0 
 -8.389036e-03  -4.977717e-03  0 
 -1.924057e-04  -6.245304e-04  0 
 -4.224298e-04  -4.197986e-04  0 
 -4.796153e-04  -2.133728e-04  0 
 -3.639606e-04  -3.027457e-04  0 
 -2.413219e-04  -6.355006e-04  0 
 -1.322409e-04  -9.346622e-04  0 
 1.377951e-04  -7.167109e-04  0 
 -5.985684e-04  2.255960e-04  0 
 -2.937102e-03  -1.458395e-03  0 
 -3.968674e-03  -1.354738e-03  0 
 -3.096243e-03  -1.507944e-03  0 
 -2.523578e-03  -2.149276e-03  0 
 -2.421547e-03  -2.472746e-03  0 
 -2.457532e-03  -2.734922e-03  0 
 -2.750114e-03  -2.503271e-03  0 
 -4.008975e-03  -2.953479e-03  0 
 -8.817461e-03  -5.037135e-03  0 
 -8.451565e-03  -4.885567e-03  0 
 -7.957938e-03  -4.810648e-03  0 
 -7.744760e-03  -4.606625e-03  0 
 -7.217994e-03  -4.760159e-03  0 
 -6.808086e-03  -5.190713e-03  0 
 -6.531292e-03  -5.146807e-03  0 
 -5.586858e-03  -4.837377e-03  0 
 -1.595611e-03  -1.206791e-03  0 
 -1.383977e-03  -9.418243e-04  0 
 -1.233021e-03  -8.721073e-04  0 
 -1.031867e-03  -8.995847e-04  0 
 -8.883973e-04  -9.875593e-04  0 
 -8.951826e-04  -1.055669e-03  0 
 -1.176814e-03  -9.789390e-04  0 
 -1.496171e-03  -1.269008e-03  0 
 -2.768394e-03  -1.893610e-03  0 
 -2.363012e-03  -1.623702e-03  0 
 -2.055569e-03  -1.465023e-03  0 
 -1.814160e-03  -1.377894e-03  0 
 -1.662809e-03  -1.304686e-03  0 
 -1.670357e-03  -1.224879e-03  0 
 -1.818643e-03  -1.213295e-03  0 
 -2.327971e-03  -1.185855e-03  0 
 -3.786029e-03  -2.549200e-03  0 
 -3.332501e-03  -2.276264e-03  0 
 -2.959470e-03  -2.040467e-03  0 
 -2.669214e-03  -1.836476e-03  0 
 -2.471381e-03  -1.646722e-03  0 
 -2.378295e-03  -1.482175e-03  0 
 -2.446719e-03  -1.337447e-03  0 
 -2.764330e-03  -1.232799e-03  0 
 -4.722900e-03  -3.148780e-03  0 
 -4.278787e-03  -2.869366e-03  0 
 -3.893596e-03  -2.592298e-03  0 
 -3.564725e-03  -2.319845e-03  0 
 -3.290878e-03  -2.056414e-03  0 
 -3.081697e-03  -1.813892e-03  0 
 -2.957052e-03  -1.641719e-03  0 
 -2.847353e-03  -1.686819e-03  0 
 -5.604109e-03  -3.674126e-03  0 
 -5.195878e-03  -3.400684e-03  0 
 -4.821791e-03  -3.120820e-03  0 
 -4.469614e-03  -2.835941e-03  0 
 -4.124537e-03  -2.547427e-03  0 
 -3.771535e-03  -2.280772e-03  0 
 -3.377154e-03  -2.111168e-03  0 
 -2.917225e-03  -2.176221e-03  0 
 -6.444270e-03  -4.117346e-03  0 
 -6.074058e-03  -3.863687e-03  0 
 -5.715654e-03  -3.618132e-03  0 
 -5.357698e-03  -3.375468e-03  0 
 -4.965060e-03  -3.122629e-03  0 
 -4.485426e-03  -2.871596e-03  0 
 -3.885706e-03  -2.674083e-03  0 
 -3.154496e-03  -2.557768e-03  0 
 -7.261448e-03  -4.475226e-03  0 
 -6.905276e-03  -4.254150e-03  0 
 -6.547105e-03  -4.067041e-03  0 
 -6.196652e-03  -3.905242e-03  0 
 -5.806181e-03  -3.745967e-03  0 
 -5.280653e-03  -3.556126e-03  0 
 -4.559057e-03  -3.317514e-03  0 
 -3.739274e-03  -3.048076e-03  0 
 -8.071022e-03  -4.758715e-03  0 
 -7.683320e-03  -4.590827e-03  0 
 -7.304105e-03  -4.450262e-03  0 
 -6.955096e-03  -4.361551e-03  0 
 -6.616005e-03  -4.326211e-03  0 
 -6.124591e-03  -4.326126e-03  0 
 -5.441970e-03  -4.140187e-03  0 
 -4.548578e-03  -3.614313e-03  0 
VECTORS displacement_ITER2 FLOAT
 -5.036978e-04  -5.259378e-04  0 
 -7.336302e-03  -3.721397e-03  0 
 -4.990806e-04  -6.788437e-04  0 
 -3.627952e-03  -2.898947e-03  0 
 -1.634842e-03  -1.335120e-03  0 
 -2.562982e-03  -1.819101e-03  0 
 -3.350226e-03  -2.297465e-03  0 
 -4.054641e-03  -2.734855e-03  0 
 -4.719336e-03  -3.126812e-03  0 
 -5.368891e-03  -3.478049e-03  0 
 -6.009466e-03  -3.780410e-03  0 
 -6.638329e-03  -3.981262e-03  0 
 -2.251635e-04  -6.684131e-04  0 
 -3.511910e-04  -4.161297e-04  0 
 -2.555372e-04  -2.429372e-04  0 
 -2.223111e-04  -3.218909e-04  0 
 -3.098913e-04  -5.807444e-04  0 
 -3.270681e-04  -7.678235e-04  0 
 9.077079e-05  -5.341316e-04  0 
 -2.140691e-04  -2.079539e-04  0 
 -2.179472e-03  -8.773179e-04  0 
 -2.014082e-03  -6.740125e-04  0 
 -1.557288e-03  -1.327099e-03  0 
 -1.697240e-03  -1.735583e-03  0 
 -2.060062e-03  -2.203285e-03  0 
 -2.260296e-03  -2.207151e-03  0 
 -2.379268e-03  -2.534302e-03  0 
 -2.975545e-03  -2.630427e-03  0 
 -7.255036e-03  -3.925619e-03  0 
 -6.718738e-03  -4.021403e-03  0 
 -6.109824e-03  -4.083984e-03  0 
 -5.566840e-03  -3.887405e-03  0 
 -4.978206e-03  -3.589444e-03  0 
 -4.836591e-03  -3.689332e-03  0 
 -4.979461e-03  -3.623158e-03  0 
 -4.584127e-03  -4.077770e-03  0 
 -1.229182e-03  -1.012752e-03  0 
 -1.081716e-03  -8.609057e-04  0 
 -9.316256e-04  -7.835919e-04  0 
 -7.962856e-04  -7.560329e-04  0 
 -7.466014e-04  -7.998730e-04  0 
 -7.445366e-04  -8.609989e-04  0 
 -7.841769e-04  -7.932180e-04  0 
 -9.269656e-04  -7.537537e-04  0 
 -2.138358e-03  -1.570419e-03  0 
 -1.826629e-03  -1.364509e-03  0 
 -1.603540e-03  -1.239574e-03  0 
 -1.428635e-03  -1.153739e-03  0 
 -1.314092e-03  -1.092875e-03  0 
 -1.282592e-03  -1.036828e-03  0 
 -1.320533e-03  -9.559890e-04  0 
 -1.521651e-03  -7.723414e-04  0 
 -2.929641e-03  -2.072483e-03  0 
 -2.581591e-03  -1.859789e-03  0 
 -2.302038e-03  -1.681193e-03  0 
 -2.084091e-03  -1.536349e-03  0 
 -1.923956e-03  -1.410255e-03  0 
 -1.830194e-03  -1.298342e-03  0 
 -1.817061e-03  -1.189733e-03  0 
 -1.831600e-03  -1.115121e-03  0 
 -3.660607e-03  -2.521900e-03  0 
 -3.310893e-03  -2.304669e-03  0 
 -3.008715e-03  -2.102830e-03  0 
 -2.751573e-03  -1.922682e-03  0 
 -2.534324e-03  -1.763568e-03  0 
 -2.356355e-03  -1.629729e-03  0 
 -2.207456e-03  -1.557794e-03  0 
 -2.022120e-03  -1.631378e-03  0 
 -4.356618e-03  -2.918080e-03  0 
 -4.015428e-03  -2.698709e-03  0 
 -3.700317e-03  -2.493324e-03  0 
 -3.408986e-03  -2.314778e-03  0 
 -3.131916e-03  -2.159699e-03  0 
 -2.855189e-03  -2.031311e-03  0 
 -2.559985e-03  -1.962543e-03  0 
 -2.257451e-03  -1.995935e-03  0 
 -5.040146e-03  -3.267501e-03  0 
 -4.705317e-03  -3.042979e-03  0 
 -4.363384e-03  -2.847280e-03  0 
 -4.028260e-03  -2.703693e-03  0 
 -3.705897e-03  -2.593295e-03  0 
 -3.365198e-03  -2.481269e-03  0 
 -2.982947e-03  -2.366819e-03  0 
 -2.577873e-03  -2.272255e-03  0 
 -5.739274e-03  -3.567229e-03  0 
 -5.403378e-03  -3.343219e-03  0 
 -4.986738e-03  -3.175528e-03  0 
 -4.577651e-03  -3.078998e-03  0 
 -4.230390e-03  -3.028395e-03  0 
 -3.915510e-03  -2.966172e-03  0 
 -3.519795e-03  -2.804746e-03  0 
 -3.030539e-03  -2.601747e-03  0 
 -6.498293e-03  -3.765028e-03  0 
 -6.099654e-03  -3.641648e-03  0 
 -5.574475e-03  -3.546475e-03  0 
 -5.041880e-03  -3.441488e-03  0 
 -4.670813e-03  -3.402642e-03  0 
 -4.438588e-03  -3.401498e-03  0 
 -4.229116e-03  -3.349517e-03  0 
 -3.642810e-03  -3.005424e-03  0 
VECTORS displacement_ITER3 FLOAT
 -3.081669e-04  -4.289759e-04  0 
 -6.614907e-03  -3.188292e-03  0 
 -8.232808e-04  -7.559949e-04  0 
 -2.814679e-03  -2.928831e-03  0 
 -1.450401e-03  -1.090000e-03  0 
 -2.254213e-03  -1.575570e-03  0 
 -2.926245e-03  -2.005378e-03  0 
 -3.540818e-03  -2.377288e-03  0 
 -4.124935e-03  -2.703510e-03  0 
 -4.690772e-03  -2.984516e-03  0 
 -5.249457e-03  -3.204543e-03  0 
 -5.838040e-03  -3.337241e-03  0 
 -3.241864e-04  -5.140943e-04  0 
 -2.883182e-04  -3.653322e-04  0 
 -1.699939e-04  -3.533261e-04  0 
 -2.145958e-04  -4.138411e-04  0 
 -3.620546e-04  -4.972545e-04  0 
 -4.407028e-04  -5.373598e-04  0 
 -2.368458e-04  -3.461553e-04  0 
 -2.177412e-04  -2.663576e-04  0 
 -1.486321e-03  -7.986814e-04  0 
 -1.473781e-03  -8.701170e-04  0 
 -1.788182e-03  -1.348553e-03  0 
 -2.200393e-03  -1.271473e-03  0 
 -2.381405e-03  -1.533321e-03  0 
 -2.347442e-03  -1.593799e-03  0 
 -2.207038e-03  -2.174032e-03  0 
 -2.294907e-03  -2.218351e-03  0 
 -6.254236e-03  -3.367819e-03  0 
 -5.865984e-03  -3.350703e-03  0 
 -5.565562e-03  -3.334441e-03  0 
 -5.198146e-03  -3.283587e-03  0 
 -4.618077e-03  -3.185848e-03  0 
 -4.144219e-03  -3.164111e-03  0 
 -3.888858e-03  -3.037113e-03  0 
 -3.703195e-03  -3.245020e-03  0 
 -1.075629e-03  -8.528321e-04  0 
 -9.251959e-04  -7.858831e-04  0 
 -7.995641e-04  -7.240842e-04  0 
 -7.551561e-04  -6.846796e-04  0 
 -7.847326e-04  -6.937045e-04  0 
 -8.257352e-04  -7.267492e-04  0 
 -8.291761e-04  -7.291446e-04  0 
 -8.693334e-04  -6.915559e-04  0 
 -1.855313e-03  -1.366111e-03  0 
 -1.583989e-03  -1.193537e-03  0 
 -1.417292e-03  -1.079328e-03  0 
 -1.310163e-03  -9.939371e-04  0 
 -1.257086e-03  -9.481821e-04  0 
 -1.248396e-03  -9.403400e-04  0 
 -1.280858e-03  -9.401346e-04  0 
 -1.399651e-03  -9.051207e-04  0 
 -2.558148e-03  -1.804906e-03  0 
 -2.260480e-03  -1.606546e-03  0 
 -2.036563e-03  -1.437872e-03  0 
 -1.872250e-03  -1.307792e-03  0 
 -1.754198e-03  -1.214061e-03  0 
 -1.686940e-03  -1.156639e-03  0 
 -1.685402e-03  -1.132110e-03  0 
 -1.734414e-03  -1.165056e-03  0 
 -3.208690e-03  -2.185161e-03  0 
 -2.913600e-03  -1.980299e-03  0 
 -2.659706e-03  -1.787259e-03  0 
 -2.444811e-03  -1.621719e-03  0 
 -2.265568e-03  -1.487879e-03  0 
 -2.126984e-03  -1.387618e-03  0 
 -2.039245e-03  -1.334515e-03  0 
 -2.026668e-03  -1.345220e-03  0 
 -3.828744e-03  -2.516561e-03  0 
 -3.546234e-03  -2.311549e-03  0 
 -3.276113e-03  -2.111874e-03  0 
 -3.021197e-03  -1.934158e-03  0 
 -2.784731e-03  -1.780409e-03  0 
 -2.569529e-03  -1.648482e-03  0 
 -2.391690e-03  -1.544502e-03  0 
 -2.301375e-03  -1.465923e-03  0 
 -4.436933e-03  -2.800892e-03  0 
 -4.169477e-03  -2.601152e-03  0 
 -3.880716e-03  -2.411403e-03  0 
 -3.585171e-03  -2.245167e-03  0 
 -3.300958e-03  -2.098585e-03  0 
 -3.024272e-03  -1.956861e-03  0 
 -2.754641e-03  -1.810887e-03  0 
 -2.523473e-03  -1.696986e-03  0 
 -5.050998e-03  -3.026437e-03  0 
 -4.789801e-03  -2.851935e-03  0 
 -4.464863e-03  -2.702984e-03  0 
 -4.124579e-03  -2.560142e-03  0 
 -3.791171e-03  -2.435036e-03  0 
 -3.475052e-03  -2.330810e-03  0 
 -3.134942e-03  -2.196063e-03  0 
 -2.721014e-03  -2.042801e-03  0 
 -5.692221e-03  -3.158799e-03  0 
 -5.366725e-03  -3.097773e-03  0 
 -5.028628e-03  -3.015333e-03  0 
 -4.645473e-03  -2.890258e-03  0 
 -4.237460e-03  -2.788234e-03  0 
 -3.853563e-03  -2.732570e-03  0 
 -3.546056e-03  -2.707838e-03  0 
 -3.067920e-03  -2.538604e-03  0 
VECTORS displacement_ITER4 FLOAT
 -2.031666e-04  -3.986961e-04  0 
 -6.431368e-03  -3.218011e-03  0 
 -7.774507e-04  -5.296366e-04  0 
 -2.622850e-03  -2.831740e-03  0 
 -1.387680e-03  -1.022582e-03  0 
 -2.171563e-03  -1.528122e-03  0 
 -2.822542e-03  -1.954465e-03  0 
 -3.412772e-03  -2.319286e-03  0 
 -3.966528e-03  -2.632982e-03  0 
 -4.498501e-03  -2.892448e-03  0 
 -5.029572e-03  -3.085524e-03  0 
 -5.615531e-03  -3.204823e-03  0 
 -2.959133e-04  -4.233717e-04  0 
 -2.684017e-04  -4.179001e-04  0 
 -2.531154e-04  -4.471886e-04  0 
 -2.594195e-04  -4.252208e-04  0 
 -2.560976e-04  -4.057674e-04  0 
 -2.553700e-04  -4.467532e-04  0 
 -3.447676e-04  -4.603445e-04  0 
 -4.880482e-04  -3.902672e-04  0 
 -1.348228e-03  -9.050981e-04  0 
 -1.580688e-03  -9.775579e-04  0 
 -1.878881e-03  -1.144927e-03  0 
 -2.025012e-03  -1.172843e-03  0 
 -2.069817e-03  -1.552125e-03  0 
 -2.155119e-03  -1.792740e-03  0 
 -2.179185e-03  -2.138080e-03  0 
 -2.172623e-03  -2.094140e-03  0 
 -5.964203e-03  -3.235252e-03  0 
 -5.613347e-03  -3.176866e-03  0 
 -5.363347e-03  -3.131766e-03  0 
 -5.067129e-03  -3.130069e-03  0 
 -4.669849e-03  -3.150729e-03  0 
 -4.171871e-03  -3.148212e-03  0 
 -3.640479e-03  -3.078676e-03  0 
 -3.400569e-03  -2.950896e-03  0 
 -1.005921e-03  -8.123519e-04  0 
 -8.774807e-04  -7.629378e-04  0 
 -8.017969e-04  -7.253049e-04  0 
 -7.601038e-04  -7.009118e-04  0 
 -7.285400e-04  -6.893663e-04  0 
 -7.371767e-04  -6.810131e-04  0 
 -8.231168e-04  -6.860430e-04  0 
 -9.756427e-04  -7.390778e-04  0 
 -1.773513e-03  -1.322479e-03  0 
 -1.517904e-03  -1.156741e-03  0 
 -1.370555e-03  -1.056231e-03  0 
 -1.271415e-03  -9.865201e-04  0 
 -1.209658e-03  -9.354404e-04  0 
 -1.192186e-03  -8.987791e-04  0 
 -1.231587e-03  -8.893806e-04  0 
 -1.363759e-03  -9.200894e-04  0 
 -2.461770e-03  -1.759237e-03  0 
 -2.174678e-03  -1.565592e-03  0 
 -1.962543e-03  -1.404310e-03  0 
 -1.808690e-03  -1.280364e-03  0 
 -1.697886e-03  -1.184308e-03  0 
 -1.629873e-03  -1.114353e-03  0 
 -1.615355e-03  -1.071704e-03  0 
 -1.672266e-03  -1.065330e-03  0 
 -3.092117e-03  -2.134457e-03  0 
 -2.810010e-03  -1.935129e-03  0 
 -2.568226e-03  -1.745604e-03  0 
 -2.364607e-03  -1.581155e-03  0 
 -2.195274e-03  -1.446056e-03  0 
 -2.063194e-03  -1.341543e-03  0 
 -1.979070e-03  -1.270124e-03  0 
 -1.958475e-03  -1.227830e-03  0 
 -3.688595e-03  -2.455659e-03  0 
 -3.425036e-03  -2.259227e-03  0 
 -3.171393e-03  -2.064258e-03  0 
 -2.928701e-03  -1.885243e-03  0 
 -2.700822e-03  -1.727689e-03  0 
 -2.493045e-03  -1.595447e-03  0 
 -2.320882e-03  -1.502399e-03  0 
 -2.198061e-03  -1.463275e-03  0 
 -4.268662e-03  -2.720885e-03  0 
 -4.026049e-03  -2.537056e-03  0 
 -3.763607e-03  -2.359573e-03  0 
 -3.488011e-03  -2.192711e-03  0 
 -3.208856e-03  -2.036433e-03  0 
 -2.925568e-03  -1.894897e-03  0 
 -2.637597e-03  -1.781780e-03  0 
 -2.373891e-03  -1.755757e-03  0 
 -4.848060e-03  -2.919732e-03  0 
 -4.610508e-03  -2.768479e-03  0 
 -4.331601e-03  -2.640751e-03  0 
 -4.033910e-03  -2.507272e-03  0 
 -3.710307e-03  -2.372306e-03  0 
 -3.360438e-03  -2.252993e-03  0 
 -2.973767e-03  -2.141474e-03  0 
 -2.535102e-03  -2.033060e-03  0 
 -5.440963e-03  -3.041295e-03  0 
 -5.143477e-03  -2.979082e-03  0 
 -4.863749e-03  -2.910346e-03  0 
 -4.564264e-03  -2.825433e-03  0 
 -4.201878e-03  -2.738526e-03  0 
 -3.775498e-03  -2.658359e-03  0 
 -3.340760e-03  -2.597524e-03  0 
 -2.859251e-03  -2.449168e-03  0 
VECTORS displacement_ITER5 FLOAT
 -2.407688e-04  -3.598195e-04  0 
 -6.309437e-03  -3.116219e-03  0 
 -8.625480e-04  -5.689724e-04  0 
 -2.641247e-03  -2.807916e-03  0 
 -1.376920e-03  -1.006233e-03  0 
 -2.129493e-03  -1.508662e-03  0 
 -2.766755e-03  -1.918177e-03  0 
 -3.348734e-03  -2.268704e-03  0 
 -3.896441e-03  -2.572039e-03  0 
 -4.424395e-03  -2.826553e-03  0 
 -4.949940e-03  -3.020326e-03  0 
 -5.516832e-03  -3.127905e-03  0 
 -2.753670e-04  -3.820268e-04  0 
 -2.449017e-04  -4.556843e-04  0 
 -2.804207e-04  -4.789244e-04  0 
 -2.795598e-04  -4.197122e-04  0 
 -2.409248e-04  -3.523578e-04  0 
 -2.179369e-04  -3.554873e-04  0 
 -3.577806e-04  -4.335790e-04  0 
 -5.286935e-04  -4.767499e-04  0 
 -1.406305e-03  -7.583938e-04  0 
 -1.621970e-03  -8.733691e-04  0 
 -1.774504e-03  -9.990975e-04  0 
 -1.823485e-03  -1.239226e-03  0 
 -1.903266e-03  -1.567126e-03  0 
 -2.057743e-03  -1.825681e-03  0 
 -2.167331e-03  -2.018986e-03  0 
 -2.207216e-03  -2.127657e-03  0 
 -5.887994e-03  -3.121773e-03  0 
 -5.567042e-03  -3.131667e-03  0 
 -5.226640e-03  -3.097626e-03  0 
 -4.884515e-03  -3.052915e-03  0 
 -4.564100e-03  -3.039962e-03  0 
 -4.159059e-03  -3.014058e-03  0 
 -3.645085e-03  -3.029319e-03  0 
 -3.325403e-03  -2.892560e-03  0 
 -9.782019e-04  -8.065526e-04  0 
 -8.528623e-04  -7.506732e-04  0 
 -8.035809e-04  -7.150386e-04  0 
 -7.698490e-04  -6.847548e-04  0 
 -7.242640e-04  -6.531063e-04  0 
 -7.110380e-04  -6.254409e-04  0 
 -7.883577e-04  -6.279137e-04  0 
 -9.856012e-04  -6.765330e-04  0 
 -1.740665e-03  -1.303758e-03  0 
 -1.493403e-03  -1.133512e-03  0 
 -1.356939e-03  -1.029418e-03  0 
 -1.265733e-03  -9.583941e-04  0 
 -1.200205e-03  -9.005020e-04  0 
 -1.170376e-03  -8.483099e-04  0 
 -1.204724e-03  -8.112073e-04  0 
 -1.347597e-03  -8.042496e-04  0 
 -2.419672e-03  -1.725012e-03  0 
 -2.142848e-03  -1.531481e-03  0 
 -1.938955e-03  -1.369931e-03  0 
 -1.790908e-03  -1.245875e-03  0 
 -1.681527e-03  -1.146756e-03  0 
 -1.610956e-03  -1.065343e-03  0 
 -1.591517e-03  -1.001803e-03  0 
 -1.634622e-03  -9.700501e-04  0 
 -3.039554e-03  -2.086493e-03  0 
 -2.767160e-03  -1.890452e-03  0 
 -2.533475e-03  -1.704348e-03  0 
 -2.336247e-03  -1.542921e-03  0 
 -2.170924e-03  -1.408895e-03  0 
 -2.038374e-03  -1.302233e-03  0 
 -1.943936e-03  -1.229054e-03  0 
 -1.885492e-03  -1.198519e-03  0 
 -3.625747e-03  -2.397053e-03  0 
 -3.369307e-03  -2.204702e-03  0 
 -3.123205e-03  -2.015614e-03  0 
 -2.887363e-03  -1.843897e-03  0 
 -2.663959e-03  -1.694400e-03  0 
 -2.454792e-03  -1.571211e-03  0 
 -2.266001e-03  -1.492077e-03  0 
 -2.096967e-03  -1.484863e-03  0 
 -4.196726e-03  -2.655657e-03  0 
 -3.957258e-03  -2.473235e-03  0 
 -3.699211e-03  -2.301969e-03  0 
 -3.428998e-03  -2.147596e-03  0 
 -3.154363e-03  -2.006656e-03  0 
 -2.872370e-03  -1.881036e-03  0 
 -2.576136e-03  -1.784257e-03  0 
 -2.289219e-03  -1.763152e-03  0 
 -4.771785e-03  -2.852675e-03  0 
 -4.532523e-03  -2.696062e-03  0 
 -4.247915e-03  -2.571564e-03  0 
 -3.948803e-03  -2.455767e-03  0 
 -3.635570e-03  -2.341940e-03  0 
 -3.300014e-03  -2.232956e-03  0 
 -2.925915e-03  -2.127536e-03  0 
 -2.501265e-03  -2.017959e-03  0 
 -5.368073e-03  -2.974057e-03  0 
 -5.071415e-03  -2.903252e-03  0 
 -4.755126e-03  -2.833354e-03  0 
 -4.438149e-03  -2.765886e-03  0 
 -4.104974e-03  -2.690772e-03  0 
 -3.731235e-03  -2.612759e-03  0 
 -3.314307e-03  -2.539710e-03  0 
 -2.848718e-03  -2.411977e-03  0 
VECTORS displacement_ITER6 FLOAT
 -2.616243e-04  -3.938203e-04  0 
 -6.242798e-03  -3.123534e-03  0 
 -9.040414e-04  -5.913102e-04  0 
 -2.623118e-03  -2.844473e-03  0 
 -1.397418e-03  -1.006630e-03  0 
 -2.152269e-03  -1.507299e-03  0 
 -2.784032e-03  -1.925511e-03  0 
 -3.360689e-03  -2.283640e-03  0 
 -3.906952e-03  -2.594582e-03  0 
 -4.436009e-03  -2.860324e-03  0 
 -4.958953e-03  -3.069122e-03  0 
 -5.505207e-03  -3.182649e-03  0 
 -3.114275e-04  -3.934101e-04  0 
 -2.775166e-04  -4.176590e-04  0 
 -2.498674e-04  -4.130337e-04  0 
 -2.142908e-04  -4.141177e-04  0 
 -2.209104e-04  -3.991420e-04  0 
 -2.575044e-04  -3.606363e-04  0 
 -3.550360e-04  -3.934947e-04  0 
 -4.602462e-04  -4.906979e-04  0 
 -1.394035e-03  -6.485520e-04  0 
 -1.617537e-03  -8.849143e-04  0 
 -1.759104e-03  -1.107434e-03  0 
 -1.862745e-03  -1.415485e-03  0 
 -1.960329e-03  -1.577492e-03  0 
 -2.045103e-03  -1.789438e-03  0 
 -2.141464e-03  -1.961364e-03  0 
 -2.236729e-03  -2.224554e-03  0 
 -5.912483e-03  -3.148743e-03  0 
 -5.594221e-03  -3.200694e-03  0 
 -5.199645e-03  -3.185753e-03  0 
 -4.804114e-03  -3.129745e-03  0 
 -4.463840e-03  -3.065385e-03  0 
 -4.111219e-03  -2.973573e-03  0 
 -3.693403e-03  -2.992114e-03  0 
 -3.280606e-03  -2.918229e-03  0 
 -1.010296e-03  -8.044430e-04  0 
 -8.721883e-04  -7.481663e-04  0 
 -7.849619e-04  -7.159306e-04  0 
 -7.297503e-04  -6.831051e-04  0 
 -7.112498e-04  -6.512781e-04  0 
 -7.271702e-04  -6.359800e-04  0 
 -7.886882e-04  -6.464902e-04  0 
 -9.733516e-04  -6.566578e-04  0 
 -1.758211e-03  -1.306525e-03  0 
 -1.499281e-03  -1.143876e-03  0 
 -1.346624e-03  -1.041789e-03  0 
 -1.247775e-03  -9.649928e-04  0 
 -1.187937e-03  -9.060222e-04  0 
 -1.169970e-03  -8.663372e-04  0 
 -1.218731e-03  -8.388317e-04  0 
 -1.369337e-03  -8.210319e-04  0 
 -2.428094e-03  -1.735367e-03  0 
 -2.142122e-03  -1.545598e-03  0 
 -1.930551e-03  -1.385192e-03  0 
 -1.777808e-03  -1.259821e-03  0 
 -1.667588e-03  -1.161902e-03  0 
 -1.602875e-03  -1.087927e-03  0 
 -1.598051e-03  -1.041558e-03  0 
 -1.657591e-03  -1.044669e-03  0 
 -3.043090e-03  -2.102577e-03  0 
 -2.762223e-03  -1.907671e-03  0 
 -2.522189e-03  -1.722405e-03  0 
 -2.320668e-03  -1.561944e-03  0 
 -2.152955e-03  -1.430121e-03  0 
 -2.020219e-03  -1.329060e-03  0 
 -1.928062e-03  -1.271615e-03  0 
 -1.878664e-03  -1.282776e-03  0 
 -3.626367e-03  -2.419308e-03  0 
 -3.360368e-03  -2.226131e-03  0 
 -3.106974e-03  -2.036572e-03  0 
 -2.866188e-03  -1.866261e-03  0 
 -2.639571e-03  -1.720360e-03  0 
 -2.428167e-03  -1.601901e-03  0 
 -2.236227e-03  -1.526022e-03  0 
 -2.072212e-03  -1.518633e-03  0 
 -4.196104e-03  -2.687797e-03  0 
 -3.945941e-03  -2.500731e-03  0 
 -3.677903e-03  -2.325168e-03  0 
 -3.399597e-03  -2.171694e-03  0 
 -3.120998e-03  -2.035785e-03  0 
 -2.841006e-03  -1.913391e-03  0 
 -2.553862e-03  -1.809449e-03  0 
 -2.278276e-03  -1.752778e-03  0 
 -4.772602e-03  -2.898861e-03  0 
 -4.525219e-03  -2.731737e-03  0 
 -4.223962e-03  -2.597613e-03  0 
 -3.906349e-03  -2.481074e-03  0 
 -3.588073e-03  -2.372874e-03  0 
 -3.264682e-03  -2.263424e-03  0 
 -2.915361e-03  -2.146330e-03  0 
 -2.515975e-03  -2.023625e-03  0 
 -5.376271e-03  -3.029654e-03  0 
 -5.080063e-03  -2.948126e-03  0 
 -4.731409e-03  -2.873192e-03  0 
 -4.376654e-03  -2.800811e-03  0 
 -4.031527e-03  -2.719375e-03  0 
 -3.691783e-03  -2.635202e-03  0 
 -3.315777e-03  -2.542368e-03  0 
 -2.860573e-03  -2.422279e-03  0 
VECTORS displacement_ITER7 FLOAT
 -2.921198e-04  -4.061610e-04  0 
 -6.236700e-03  -3.195192e-03  0 
 -8.792216e-04  -5.614089e-04  0 
 -2.604206e-03  -2.823029e-03  0 
 -1.408017e-03  -1.016247e-03  0 
 -2.161222e-03  -1.511487e-03  0 
 -2.789921e-03  -1.931756e-03  0 
 -3.362019e-03  -2.292201e-03  0 
 -3.902794e-03  -2.603848e-03  0 
 -4.425794e-03  -2.867846e-03  0 
 -4.945380e-03  -3.074193e-03  0 
 -5.498305e-03  -3.199324e-03  0 
 -3.167732e-04  -4.050207e-04  0 
 -2.866676e-04  -3.970504e-04  0 
 -2.328772e-04  -3.797194e-04  0 
 -1.920828e-04  -3.991619e-04  0 
 -2.102633e-04  -4.102172e-04  0 
 -2.772608e-04  -3.771404e-04  0 
 -3.697865e-04  -3.816572e-04  0 
 -4.706885e-04  -4.649645e-04  0 
 -1.385606e-03  -6.642156e-04  0 
 -1.654093e-03  -9.354647e-04  0 
 -1.808712e-03  -1.167052e-03  0 
 -1.918088e-03  -1.419242e-03  0 
 -1.980481e-03  -1.539924e-03  0 
 -2.020274e-03  -1.757064e-03  0 
 -2.118978e-03  -1.981126e-03  0 
 -2.298291e-03  -2.296805e-03  0 
 -5.885455e-03  -3.181906e-03  0 
 -5.553236e-03  -3.180548e-03  0 
 -5.199150e-03  -3.159534e-03  0 
 -4.831492e-03  -3.144159e-03  0 
 -4.469876e-03  -3.105810e-03  0 
 -4.092929e-03  -3.020748e-03  0 
 -3.693586e-03  -2.980349e-03  0 
 -3.226764e-03  -2.897112e-03  0 
 -1.024351e-03  -8.090611e-04  0 
 -8.789802e-04  -7.469532e-04  0 
 -7.770593e-04  -7.115625e-04  0 
 -7.131372e-04  -6.778572e-04  0 
 -7.041602e-04  -6.491487e-04  0 
 -7.388604e-04  -6.401400e-04  0 
 -8.113371e-04  -6.577020e-04  0 
 -9.913493e-04  -6.725396e-04  0 
 -1.766811e-03  -1.311956e-03  0 
 -1.502964e-03  -1.149843e-03  0 
 -1.342857e-03  -1.046068e-03  0 
 -1.239932e-03  -9.656911e-04  0 
 -1.183250e-03  -9.050545e-04  0 
 -1.174032e-03  -8.704859e-04  0 
 -1.232741e-03  -8.561433e-04  0 
 -1.392585e-03  -8.574318e-04  0 
 -2.431730e-03  -1.742993e-03  0 
 -2.143104e-03  -1.554080e-03  0 
 -1.928457e-03  -1.392460e-03  0 
 -1.773781e-03  -1.264243e-03  0 
 -1.663752e-03  -1.164296e-03  0 
 -1.601364e-03  -1.092065e-03  0 
 -1.602006e-03  -1.053735e-03  0 
 -1.676517e-03  -1.073491e-03  0 
 -3.043107e-03  -2.112343e-03  0 
 -2.761176e-03  -1.917738e-03  0 
 -2.520052e-03  -1.731447e-03  0 
 -2.317703e-03  -1.568871e-03  0 
 -2.149841e-03  -1.434832e-03  0 
 -2.017454e-03  -1.331910e-03  0 
 -1.926951e-03  -1.272821e-03  0 
 -1.887118e-03  -1.284698e-03  0 
 -3.622851e-03  -2.430106e-03  0 
 -3.357388e-03  -2.237731e-03  0 
 -3.104194e-03  -2.047498e-03  0 
 -2.863620e-03  -1.874759e-03  0 
 -2.637764e-03  -1.725686e-03  0 
 -2.428215e-03  -1.603854e-03  0 
 -2.238118e-03  -1.520624e-03  0 
 -2.077313e-03  -1.496449e-03  0 
 -4.187948e-03  -2.697931e-03  0 
 -3.939857e-03  -2.513949e-03  0 
 -3.674655e-03  -2.338612e-03  0 
 -3.398767e-03  -2.181244e-03  0 
 -3.121182e-03  -2.040066e-03  0 
 -2.842739e-03  -1.914369e-03  0 
 -2.561310e-03  -1.808541e-03  0 
 -2.285253e-03  -1.739920e-03  0 
 -4.756175e-03  -2.907348e-03  0 
 -4.512430e-03  -2.746421e-03  0 
 -4.221432e-03  -2.613102e-03  0 
 -3.911124e-03  -2.491461e-03  0 
 -3.591877e-03  -2.376803e-03  0 
 -3.262826e-03  -2.264534e-03  0 
 -2.913736e-03  -2.151746e-03  0 
 -2.527233e-03  -2.046533e-03  0 
 -5.345709e-03  -3.042070e-03  0 
 -5.054880e-03  -2.957559e-03  0 
 -4.731882e-03  -2.884294e-03  0 
 -4.392801e-03  -2.810797e-03  0 
 -4.039944e-03  -2.730775e-03  0 
 -3.682414e-03  -2.645933e-03  0 
 -3.296369e-03  -2.547637e-03  0 
 -2.846907e-03  -2.436395e-03  0 
VECTORS displacement_ITER8 FLOAT
 -3.292060e-04  -3.832379e-04  0 
 -6.249227e-03  -3.233111e-03  0 
 -9.119686e-04  -5.738319e-04  0 
 -2.590262e-03  -2.793056e-03  0 
 -1.408738e-03  -1.034849e-03  0 
 -2.153982e-03  -1.524496e-03  0 
 -2.785095e-03  -1.937062e-03  0 
 -3.359805e-03  -2.293374e-03  0 
 -3.900454e-03  -2.602806e-03  0 
 -4.421682e-03  -2.864170e-03  0 
 -4.942010e-03  -3.068558e-03  0 
 -5.504369e-03  -3.203841e-03  0 
 -2.868402e-04  -4.093599e-04  0 
 -2.630245e-04  -4.174258e-04  0 
 -2.457753e-04  -4.074857e-04  0 
 -2.391863e-04  -3.929433e-04  0 
 -2.345301e-04  -3.724934e-04  0 
 -2.625320e-04  -3.568354e-04  0 
 -3.409114e-04  -3.733856e-04  0 
 -4.847280e-04  -4.437251e-04  0 
 -1.419852e-03  -6.994966e-04  0 
 -1.681323e-03  -9.252261e-04  0 
 -1.813251e-03  -1.140602e-03  0 
 -1.894877e-03  -1.357477e-03  0 
 -1.954177e-03  -1.553059e-03  0 
 -2.030853e-03  -1.786766e-03  0 
 -2.148402e-03  -2.026473e-03  0 
 -2.349450e-03  -2.338765e-03  0 
 -5.877966e-03  -3.203662e-03  0 
 -5.520482e-03  -3.165201e-03  0 
 -5.187038e-03  -3.136825e-03  0 
 -4.845823e-03  -3.138630e-03  0 
 -4.484984e-03  -3.131365e-03  0 
 -4.089164e-03  -3.083081e-03  0 
 -3.682330e-03  -3.004406e-03  0 
 -3.191091e-03  -2.889167e-03  0 
 -1.012822e-03  -8.236887e-04  0 
 -8.699663e-04  -7.518402e-04  0 
 -7.903712e-04  -7.081951e-04  0 
 -7.415482e-04  -6.731147e-04  0 
 -7.194990e-04  -6.457616e-04  0 
 -7.325770e-04  -6.320571e-04  0 
 -8.042918e-04  -6.431136e-04  0 
 -9.967176e-04  -6.687891e-04  0 
 -1.764699e-03  -1.321792e-03  0 
 -1.505852e-03  -1.151288e-03  0 
 -1.353478e-03  -1.042291e-03  0 
 -1.254483e-03  -9.637725e-04  0 
 -1.193850e-03  -9.050599e-04  0 
 -1.176642e-03  -8.651746e-04  0 
 -1.228532e-03  -8.431943e-04  0 
 -1.391048e-03  -8.447070e-04  0 