# vtk DataFile Version 3.1
this is an vtk file created by FEMAC
ASCII
DATASET UNSTRUCTURED_GRID
POINTS 100 FLOAT
0.000000 3.000000 0.000000
1.000000 3.000000 0.000000
0.000000 4.000000 0.000000
1.000000 4.000000 0.000000
0.111111 3.000000 0.000000
0.222222 3.000000 0.000000
0.333333 3.000000 0.000000
0.444444 3.000000 0.000000
0.555556 3.000000 0.000000
0.666667 3.000000 0.000000
0.777778 3.000000 0.000000
0.888889 3.000000 0.000000
0.111111 4.000000 0.000000
0.222222 4.000000 0.000000
0.333333 4.000000 0.000000
0.444444 4.000000 0.000000
0.555556 4.000000 0.000000
0.666667 4.000000 0.000000
0.777778 4.000000 0.000000
0.888889 4.000000 0.000000
0.000000 3.111111 0.000000
0.000000 3.222222 0.000000
0.000000 3.333333 0.000000
0.000000 3.444444 0.000000
0.000000 3.555556 0.000000
0.000000 3.666667 0.000000
0.000000 3.777778 0.000000
0.000000 3.888889 0.000000
1.000000 3.111111 0.000000
1.000000 3.222222 0.000000
1.000000 3.333333 0.000000
1.000000 3.444444 0.000000
1.000000 3.555556 0.000000
1.000000 3.666667 0.000000
1.000000 3.777778 0.000000
1.000000 3.888889 0.000000
0.111111 3.111111 0.000000
0.111111 3.222222 0.000000
0.111111 3.333333 0.000000
0.111111 3.444444 0.000000
0.111111 3.555556 0.000000
0.111111 3.666667 0.000000
0.111111 3.777778 0.000000
0.111111 3.888889 0.000000
0.222222 3.111111 0.000000
0.222222 3.222222 0.000000
0.222222 3.333333 0.000000
0.222222 3.444444 0.000000
0.222222 3.555556 0.000000
0.222222 3.666667 0.000000
0.222222 3.777778 0.000000
0.222222 3.888889 0.000000
0.333333 3.111111 0.000000
0.333333 3.222222 0.000000
0.333333 3.333333 0.000000
0.333333 3.444444 0.000000
0.333333 3.555556 0.000000
0.333333 3.666667 0.000000
0.333333 3.777778 0.000000
0.333333 3.888889 0.000000
0.444444 3.111111 0.000000
0.444444 3.222222 0.000000
0.444444 3.333333 0.000000
0.444444 3.444444 0.000000
0.444444 3.555556 0.000000
0.444444 3.666667 0.000000
0.444444 3.777778 0.000000
0.444444 3.888889 0.000000
0.555556 3.111111 0.000000
0.555556 3.222222 0.000000
0.555556 3.333333 0.000000
0.555556 3.444444 0.000000
0.555556 3.555556 0.000000
0.555556 3.666667 0.000000
0.555556 3.777778 0.000000
0.555556 3.888889 0.000000
0.666667 3.111111 0.000000
0.666667 3.222222 0.000000
0.666667 3.333333 0.000000
0.666667 3.444444 0.000000
0.666667 3.555556 0.000000
0.666667 3.666667 0.000000
0.666667 3.777778 0.000000
0.666667 3.888889 0.000000
0.777778 3.111111 0.000000
0.777778 3.222222 0.000000
0.777778 3.333333 0.000000
0.777778 3.444444 0.000000
0.777778 3.555556 0.000000
0.777778 3.666667 0.000000
0.777778 3.777778 0.000000
0.777778 3.888889 0.000000
0.888889 3.111111 0.000000
0.888889 3.222222 0.000000
0.888889 3.333333 0.000000
0.888889 3.444444 0.000000
0.888889 3.555556 0.000000
0.888889 3.666667 0.000000
0.888889 3.777778 0.000000
0.888889 3.888889 0.000000
CELLS 81 405 
4 0  4 36 20
4 20 36 37 21
4 21 37 38 22
4 22 38 39 23
4 23 39 40 24
4 24 40 41 25
4 25 41 42 26
4 26 42 43 27
4 27 43 12  2
4 4  5 44 36
4 36 44 45 37
4 37 45 46 38
4 38 46 47 39
4 39 47 48 40
4 40 48 49 41
4 41 49 50 42
4 42 50 51 43
4 43 51 13 12
4 5  6 52 44
4 44 52 53 45
4 45 53 54 46
4 46 54 55 47
4 47 55 56 48
4 48 56 57 49
4 49 57 58 50
4 50 58 59 51
4 51 59 14 13
4 6  7 60 52
4 52 60 61 53
4 53 61 62 54
4 54 62 63 55
4 55 63 64 56
4 56 64 65 57
4 57 65 66 58
4 58 66 67 59
4 59 67 15 14
4 7  8 68 60
4 60 68 69 61
4 61 69 70 62
4 62 70 71 63
4 63 71 72 64
4 64 72 73 65
4 65 73 74 66
4 66 74 75 67
4 67 75 16 15
4 8  9 76 68
4 68 76 77 69
4 69 77 78 70
4 70 78 79 71
4 71 79 80 72
4 72 80 81 73
4 73 81 82 74
4 74 82 83 75
4 75 83 17 16
4 9 10 84 76
4 76 84 85 77
4 77 85 86 78
4 78 86 87 79
4 79 87 88 80
4 80 88 89 81
4 81 89 90 82
4 82 90 91 83
4 83 91 18 17
4 10 11 92 84
4 84 92 93 85
4 85 93 94 86
4 86 94 95 87
4 87 95 96 88
4 88 96 97 89
4 89 97 98 90
4 90 98 99 91
4 91 99 19 18
4 11  1 28 92
4 92 28 29 93
4 93 29 30 94
4 94 30 31 95
4 95 31 32 96
4 96 32 33 97
4 97 33 34 98
4 98 34 35 99
4 99 35  3 19
CELL_TYPES 81
9 9 9 9 9 9 9 9 9 9 9 9 9 9 9 9 9 9 9 9 9 9 9 9 9 9 9 9 9 9 9 9 9 9 9 9 9 9 9 9 9 9 9 9 9 9 9 9 9 9 9 9 9 9 9 9 9 9 9 9 9 9 9 9 9 9 9 9 9 9 9 9 9 9 9 9 9 9 9 9 9 
POINT_DATA 100
VECTORS displacement_ITER1 FLOAT
 9.233913e-21  4.622007e-21  0 
 4.060654e-04  -8.274095e-05  0 
 1.067559e-20  8.534367e-21  0 
 1.416621e-03  -1.417126e-03  0 
 3.688123e-04  -1.020126e-04  0 
 5.017323e-04  4.479519e-05  0 
 2.762197e-04  1.770288e-04  0 
 -9.744169e-05  1.254645e-04  0 
 -3.325841e-04  -9.202176e-05  0 
 -2.409196e-04  -3.282130e-04  0 
 1.674660e-04  -4.436462e-04  0 
 8.248959e-04  -7.176603e-04  0 
 -3.670717e-04  2.267929e-04  0 
 -8.555533e-05  6.698090e-04  0 
 5.108438e-04  7.635976e-04  0 
 9.169764e-04  3.984057e-04  0 
 7.487099e-04  -2.385977e-04  0 
 -7.248207e-05  -8.053562e-04  0 
 -1.101421e-03  -9.524905e-04  0 
 -6.781376e-04  -7.037026e-04  0 
 0  0  0 
 0  0  0 
 0  0  0 
 0  0  0 
 0  0  0 
 0  0  0 
 0  0  0 
 0  0  0 
 1.103577e-04  -1.415515e-03  0 
 5.887416e-04  -1.815118e-03  0 
 9.041694e-04  -9.423325e-04  0 
 9.258975e-04  -5.842849e-04  0 
 8.755878e-04  -5.475322e-04  0 
 1.068009e-03  -1.034817e-03  0 
 1.713419e-03  -1.715971e-03  0 
 1.294800e-03  -2.193609e-03  0 
 1.075027e-04  -9.469557e-05  0 
 2.676727e-05  -6.841103e-05  0 
 1.632122e-05  -6.248706e-05  0 
 3.350034e-05  -5.818029e-05  0 
 6.563396e-05  -3.608364e-05  0 
 1.093029e-04  1.332492e-05  0 
 1.470276e-04  8.182639e-05  0 
 1.007389e-04  1.417015e-04  0 
 1.431796e-04  -5.998869e-07  0 
 4.432492e-05  -5.853199e-05  0 
 4.008121e-05  -1.084749e-04  0 
 6.330985e-05  -1.341558e-04  0 
 9.881729e-05  -1.156032e-04  0 
 1.517019e-04  -3.019955e-05  0 
 2.155466e-04  1.427610e-04  0 
 2.055873e-04  4.122866e-04  0 
 1.252955e-04  9.579690e-05  0 
 8.910553e-05  -4.831419e-05  0 
 9.833804e-05  -1.624858e-04  0 
 1.129203e-04  -2.280943e-04  0 
 1.231229e-04  -2.338196e-04  0 
 1.408710e-04  -1.519710e-04  0 
 1.901364e-04  6.218154e-05  0 
 2.991567e-04  4.189779e-04  0 
 8.015101e-05  4.318412e-05  0 
 1.605400e-04  -1.141725e-04  0 
 1.936231e-04  -2.491441e-04  0 
 1.965151e-04  -3.376811e-04  0 
 1.737552e-04  -3.747180e-04  0 
 1.362300e-04  -3.460161e-04  0 
 1.377339e-04  -2.145767e-04  0 
 3.193559e-04  5.208053e-05  0 
 6.609825e-05  -1.655731e-04  0 
 2.459873e-04  -2.719562e-04  0 
 3.110599e-04  -3.760309e-04  0 
 3.144205e-04  -4.603642e-04  0 
 2.770843e-04  -5.198397e-04  0 
 2.056399e-04  -5.570485e-04  0 
 1.367171e-04  -5.794348e-04  0 
 2.175544e-04  -5.251562e-04  0 
 1.315895e-04  -4.315483e-04  0 
 3.427119e-04  -4.762670e-04  0 
 4.381243e-04  -5.229987e-04  0 
 4.654792e-04  -5.940246e-04  0 
 4.272552e-04  -6.560855e-04  0 
 3.551742e-04  -7.164307e-04  0 
 2.553973e-04  -8.306313e-04  0 
 7.602675e-05  -9.909216e-04  0 
 2.751469e-04  -6.902255e-04  0 
 4.229241e-04  -6.472496e-04  0 
 6.041082e-04  -6.806580e-04  0 
 6.466003e-04  -7.279135e-04  0 
 5.903490e-04  -7.517089e-04  0 
 5.284894e-04  -8.132207e-04  0 
 4.773872e-04  -9.067061e-04  0 
 1.759826e-04  -1.038169e-03  0 
 1.835947e-04  -8.238734e-04  0 
 5.412303e-04  -8.958835e-04  0 
 8.358403e-04  -8.829492e-04  0 
 8.157470e-04  -7.688696e-04  0 
 7.275641e-04  -7.639839e-04  0 
 7.392261e-04  -8.595557e-04  0 
 7.802830e-04  -1.095878e-03  0 
 6.384489e-04  -1.026693e-03  0 
VECTORS displacement_ITER2 FLOAT
 9.266172e-21  4.755172e-21  0 
 -5.761775e-04  -8.162432e-04  0 
 1.127163e-20  8.404716e-21  0 
 1.003728e-03  -9.097809e-04  0 
 4.196718e-04  9.475143e-05  0 
 4.695905e-04  1.942188e-04  0 
 3.460390e-04  8.725596e-05  0 
 1.870296e-04  -1.605610e-04  0 
 7.471030e-05  -4.485868e-04  0 
 1.075484e-04  -6.525630e-04  0 
 3.450784e-04  -5.649991e-04  0 
 4.378470e-04  -3.358493e-04  0 
 -3.392647e-04  -6.199636e-05  0 
 -5.016841e-04  -1.618572e-04  0 
 -5.804545e-04  -2.446043e-04  0 
 -4.980037e-04  -2.670784e-04  0 
 -2.574963e-04  -3.642917e-04  0 
 -8.739155e-05  -7.062855e-04  0 
 -3.320425e-04  -1.204527e-03  0 
 -2.713141e-04  -8.061814e-04  0 
 0  0  0 
 0  0  0 
 0  0  0 
 0  0  0 
 0  0  0 
 0  0  0 
 0  0  0 
 0  0  0 
 1.969757e-04  -8.545890e-04  0 
 3.190913e-04  -8.390440e-04  0 
 3.369103e-04  -7.328428e-04  0 
 5.227031e-04  -7.268561e-04  0 
 8.017294e-04  -7.826712e-04  0 
 1.146606e-03  -7.873665e-04  0 
 1.479410e-03  -1.190520e-03  0 
 1.560779e-03  -1.437656e-03  0 
 1.122375e-04  -3.577159e-05  0 
 4.893262e-05  -8.653167e-05  0 
 3.043370e-05  -1.219528e-04  0 
 2.068670e-05  -1.491696e-04  0 
 8.973162e-06  -1.694647e-04  0 
 -1.139022e-05  -1.845395e-04  0 
 -5.114469e-05  -1.932007e-04  0 
 -1.286202e-04  -1.771368e-04  0 
 2.337067e-04  1.821119e-05  0 
 1.295235e-04  -1.221710e-04  0 
 9.017708e-05  -2.058001e-04  0 
 6.399901e-05  -2.590016e-04  0 
 3.472513e-05  -2.917451e-04  0 
 -8.176805e-06  -3.060584e-04  0 
 -8.674466e-05  -2.993964e-04  0 
 -2.472642e-04  -2.552408e-04  0 
 2.900556e-04  -3.106461e-05  0 
 2.224538e-04  -1.672989e-04  0 
 1.701731e-04  -2.693267e-04  0 
 1.249456e-04  -3.358830e-04  0 
 7.326636e-05  -3.761839e-04  0 
 5.039833e-06  -3.865849e-04  0 
 -9.839622e-05  -3.590303e-04  0 
 -2.748956e-04  -3.057127e-04  0 
 2.847950e-04  -1.922142e-04  0 
 2.845764e-04  -2.625284e-04  0 
 2.462613e-04  -3.314718e-04  0 
 1.959551e-04  -3.888239e-04  0 
 1.299792e-04  -4.329596e-04  0 
 3.713130e-05  -4.538419e-04  0 
 -8.102045e-05  -4.282327e-04  0 
 -2.320634e-04  -3.500112e-04  0 
 2.549024e-04  -4.027948e-04  0 
 3.011322e-04  -3.873637e-04  0 
 2.968156e-04  -3.985497e-04  0 
 2.704022e-04  -4.303677e-04  0 
 2.157579e-04  -4.714937e-04  0 
 1.171595e-04  -5.144332e-04  0 
 -2.773388e-05  -5.402199e-04  0 
 -1.659349e-04  -4.844417e-04  0 
 2.227699e-04  -5.689609e-04  0 
 2.777323e-04  -4.947821e-04  0 
 3.236257e-04  -4.679833e-04  0 
 3.478299e-04  -4.761446e-04  0 
 3.332383e-04  -5.046089e-04  0 
 2.706533e-04  -5.596796e-04  0 
 1.341167e-04  -6.565641e-04  0 
 -7.844009e-05  -7.702412e-04  0 
 1.920867e-04  -5.937328e-04  0 
 2.476239e-04  -5.619441e-04  0 
 3.498673e-04  -5.534647e-04  0 
 4.258751e-04  -5.363296e-04  0 
 4.755703e-04  -5.463718e-04  0 
 4.924394e-04  -6.071877e-04  0 
 4.478354e-04  -7.266893e-04  0 
 2.292147e-04  -9.544903e-04  0 
 1.558854e-04  -5.242739e-04  0 
 2.830476e-04  -6.625916e-04  0 
 3.751679e-04  -6.603422e-04  0 
 4.804549e-04  -6.165388e-04  0 
 6.427491e-04  -6.097126e-04  0 
 7.769545e-04  -6.957274e-04  0 
 8.555419e-04  -8.329525e-04  0 
 7.851039e-04  -9.343797e-04  0 
VECTORS displacement_ITER3 FLOAT
 9.998943e-21  5.176589e-21  0 
 -6.055013e-05  -4.195263e-04  0 
 1.138598e-20  7.845196e-21  0 
 9.163191e-04  -8.307499e-04  0 
 4.971732e-05  5.129795e-05  0 
 2.931911e-05  -5.917417e-05  0 
 1.389861e-04  -2.208680e-04  0 
 2.712896e-04  -2.849185e-04  0 
 2.778229e-04  -2.742026e-04  0 
 1.498915e-04  -3.050952e-04  0 
 9.923088e-05  -3.979042e-04  0 
 1.809644e-04  -4.753369e-04  0 
 3.872951e-05  -2.310805e-05  0 
 1.197359e-05  -2.574623e-04  0 
 -1.952300e-04  -4.540189e-04  0 
 -3.870622e-04  -4.778922e-04  0 
 -3.856371e-04  -3.963060e-04  0 
 -1.801174e-04  -4.366187e-04  0 
 -3.417676e-05  -8.688997e-04  0 
 1.973871e-05  -8.677996e-04  0 
 0  0  0 
 0  0  0 
 0  0  0 
 0  0  0 
 0  0  0 
 0  0  0 
 0  0  0 
 0  0  0 
 1.870338e-05  -6.678953e-04  0 
 3.063297e-04  -8.086728e-04  0 
 4.160513e-04  -1.070048e-03  0 
 6.111934e-04  -1.083050e-03  0 
 8.079731e-04  -1.049697e-03  0 
 9.959622e-04  -7.294335e-04  0 
 9.877494e-04  -8.148654e-04  0 
 1.311719e-03  -1.231556e-03  0 
 1.666732e-05  -6.098889e-05  0 
 2.438504e-05  -1.158072e-04  0 
 2.303960e-05  -1.432359e-04  0 
 1.858264e-05  -1.612452e-04  0 
 1.218941e-05  -1.765655e-04  0 
 3.007306e-06  -1.880422e-04  0 
 -6.083113e-06  -1.852234e-04  0 
 1.989819e-06  -1.423334e-04  0 
 8.801619e-05  -1.545788e-04  0 
 7.487462e-05  -2.182260e-04  0 
 6.246225e-05  -2.549897e-04  0 
 5.257228e-05  -2.849574e-04  0 
 4.039202e-05  -3.129894e-04  0 
 1.925855e-05  -3.373759e-04  0 
 -1.523286e-05  -3.508750e-04  0 
 -5.139763e-05  -3.323667e-04  0 
 1.413722e-04  -2.700925e-04  0 
 1.220838e-04  -2.993267e-04  0 
 1.085158e-04  -3.358183e-04  0 
 1.000996e-04  -3.749460e-04  0 
 8.601180e-05  -4.134550e-04  0 
 5.727872e-05  -4.468780e-04  0 
 3.052582e-06  -4.732761e-04  0 
 -8.310918e-05  -4.932756e-04  0 
 1.732109e-04  -3.246633e-04  0 
 1.540268e-04  -3.543378e-04  0 
 1.577782e-04  -3.938805e-04  0 
 1.612078e-04  -4.391461e-04  0 
 1.512764e-04  -4.854404e-04  0 
 1.170442e-04  -5.246453e-04  0 
 4.966774e-05  -5.440085e-04  0 
 -8.571276e-05  -5.369549e-04  0 
 1.848382e-04  -3.338311e-04  0 
 1.843512e-04  -3.941594e-04  0 
 2.105420e-04  -4.420331e-04  0 
 2.361881e-04  -4.888339e-04  0 
 2.408795e-04  -5.378560e-04  0 
 2.031503e-04  -5.804847e-04  0 
 1.076654e-04  -5.910138e-04  0 
 -5.523721e-05  -5.235432e-04  0 
 1.816484e-04  -3.795519e-04  0 
 2.090837e-04  -4.490943e-04  0 
 2.627506e-04  -4.963525e-04  0 
 3.257186e-04  -5.415675e-04  0 
 3.591637e-04  -5.863357e-04  0 
 3.318673e-04  -6.227856e-04  0 
 2.122135e-04  -6.423089e-04  0 
 1.404114e-06  -6.049599e-04  0 
 1.601467e-04  -4.814527e-04  0 
 2.073247e-04  -5.315692e-04  0 
 3.084537e-04  -5.890581e-04  0 
 4.285712e-04  -6.260849e-04  0 
 5.099415e-04  -6.547615e-04  0 
 5.095519e-04  -6.745767e-04  0 
 4.191482e-04  -6.870603e-04  0 
 1.999835e-04  -7.562293e-04  0 
 9.777788e-05  -5.356984e-04  0 
 2.053127e-04  -6.597942e-04  0 
 3.558087e-04  -7.586793e-04  0 
 5.250190e-04  -8.007533e-04  0 
 6.887849e-04  -7.627484e-04  0 
 7.384301e-04  -7.524511e-04  0 
 6.805105e-04  -7.489101e-04  0 
 6.346268e-04  -7.939944e-04  0 
VECTORS displacement_ITER4 FLOAT
 1.012236e-20  5.215336e-21  0 
 -1.977737e-05  -4.941488e-04  0 
 1.130442e-20  7.452780e-21  0 
 6.812176e-04  -6.884998e-04  0 
 -2.188343e-05  -4.117408e-05  0 
 2.518954e-05  -1.514574e-04  0 
 1.372525e-04  -2.143592e-04  0 
 2.345090e-04  -2.408885e-04  0 
 2.748285e-04  -2.560960e-04  0 
 2.223764e-04  -2.807679e-04  0 
 1.275282e-04  -3.811065e-04  0 
 1.012199e-04  -5.897160e-04  0 
 -1.826666e-05  -6.488701e-06  0 
 -5.067754e-05  -7.552497e-05  0 
 -8.371492e-05  -1.736584e-04  0 
 -1.174907e-04  -3.363798e-04  0 
 -1.689307e-04  -4.963580e-04  0 
 -1.657178e-04  -5.843946e-04  0 
 -2.365539e-06  -7.993792e-04  0 
 1.001351e-04  -9.677076e-04  0 
 0  0  0 
 0  0  0 
 0  0  0 
 0  0  0 
 0  0  0 
 0  0  0 
 0  0  0 
 0  0  0 
 3.712909e-05  -8.035966e-04  0 
 3.182807e-04  -8.776135e-04  0 
 4.030994e-04  -1.029873e-03  0 
 4.639402e-04  -9.860308e-04  0 
 5.225871e-04  -1.003326e-03  0 
 7.105598e-04  -8.622846e-04  0 
 8.702080e-04  -8.022274e-04  0 
 1.160365e-03  -1.053868e-03  0 
 9.082288e-06  -1.006994e-04  0 
 1.672086e-05  -1.295660e-04  0 
 1.761091e-05  -1.444162e-04  0 
 1.744022e-05  -1.531666e-04  0 
 1.750626e-05  -1.571404e-04  0 
 1.814456e-05  -1.535398e-04  0 
 1.885464e-05  -1.368498e-04  0 
 1.492683e-05  -9.789084e-05  0 
 5.072756e-05  -2.049101e-04  0 
 4.866947e-05  -2.379926e-04  0 
 4.494748e-05  -2.603361e-04  0 
 4.206489e-05  -2.772808e-04  0 
 3.805797e-05  -2.879258e-04  0 
 3.056748e-05  -2.858198e-04  0 
 1.773016e-05  -2.590178e-04  0 
 -6.420870e-06  -1.906076e-04  0 
 1.006394e-04  -2.829936e-04  0 
 8.534845e-05  -3.188273e-04  0 
 7.946666e-05  -3.477599e-04  0 
 7.649380e-05  -3.737006e-04  0 
 6.813461e-05  -3.932652e-04  0 
 4.835037e-05  -3.980158e-04  0 
 1.340652e-05  -3.744633e-04  0 
 -3.342947e-05  -3.048022e-04  0 
 1.511185e-04  -3.209394e-04  0 
 1.223992e-04  -3.717494e-04  0 
 1.213493e-04  -4.123437e-04  0 
 1.243564e-04  -4.475923e-04  0 
 1.158544e-04  -4.764777e-04  0 
 8.589013e-05  -4.923385e-04  0 
 3.059537e-05  -4.837444e-04  0 
 -4.760569e-05  -4.380511e-04  0 
 1.804604e-04  -3.404660e-04  0 
 1.597605e-04  -4.128287e-04  0 
 1.706565e-04  -4.677037e-04  0 
 1.871823e-04  -5.092408e-04  0 
 1.884603e-04  -5.435389e-04  0 
 1.560866e-04  -5.705666e-04  0 
 8.484684e-05  -5.806252e-04  0 
 -2.066577e-05  -5.610665e-04  0 
 1.880739e-04  -3.811866e-04  0 
 1.934814e-04  -4.709705e-04  0 
 2.221139e-04  -5.325609e-04  0 
 2.623631e-04  -5.761805e-04  0 
 2.858661e-04  -6.059598e-04  0 
 2.679588e-04  -6.309228e-04  0 
 1.874126e-04  -6.595024e-04  0 
 4.969762e-05  -6.608619e-04  0 
 1.812690e-04  -4.838641e-04  0 
 2.113197e-04  -5.579857e-04  0 
 2.732121e-04  -6.318541e-04  0 
 3.416947e-04  -6.730060e-04  0 
 3.961841e-04  -6.822213e-04  0 
 4.124811e-04  -6.824722e-04  0 
 3.664104e-04  -7.017689e-04  0 
 1.958251e-04  -7.682514e-04  0 
 1.181839e-04  -5.922382e-04  0 
 2.310891e-04  -6.959008e-04  0 
 3.346593e-04  -7.840614e-04  0 
 4.103520e-04  -8.275930e-04  0 
 4.892462e-04  -7.919497e-04  0 
 5.726181e-04  -7.510857e-04  0 
 6.014645e-04  -7.419016e-04  0 
 5.632854e-04  -7.980885e-04  0 
VECTORS displacement_ITER5 FLOAT
 1.004236e-20  5.163224e-21  0 
 -6.448755e-05  -5.729433e-04  0 
 1.103601e-20  7.031926e-21  0 
 6.735269e-04  -8.091265e-04  0 
 2.916735e-05  -7.100075e-05  0 
 1.016492e-04  -1.105859e-04  0 
 1.267819e-04  -1.164013e-04  0 
 1.246108e-04  -1.795234e-04  0 
 1.526275e-04  -2.877901e-04  0 
 1.923250e-04  -3.647191e-04  0 
 1.693472e-04  -4.224630e-04  0 
 8.744064e-05  -5.645524e-04  0 
 -7.974302e-05  -4.896762e-05  0 
 -1.650481e-04  -6.523849e-05  0 
 -1.651355e-04  -1.083482e-04  0 
 -1.342742e-04  -2.739297e-04  0 
 -1.514967e-04  -5.114048e-04  0 
 -2.032009e-04  -6.781362e-04  0 
 -7.787913e-05  -7.766768e-04  0 
 1.568035e-04  -9.654426e-04  0 
 0  0  0 
 0  0  0 
 0  0  0 
 0  0  0 
 0  0  0 
 0  0  0 
 0  0  0 
 0  0  0 
 8.644505e-05  -8.546807e-04  0 
 2.995424e-04  -9.497711e-04  0 
 4.244158e-04  -1.024710e-03  0 
 5.059718e-04  -9.846829e-04  0 
 5.642806e-04  -9.795918e-04  0 
 6.875303e-04  -9.461736e-04  0 
 8.390548e-04  -8.605118e-04  0 
 9.539027e-04  -1.021113e-03  0 
 1.633235e-05  -1.044323e-04  0 
 8.968032e-06  -1.213006e-04  0 
 9.585606e-06  -1.361459e-04  0 
 1.173692e-05  -1.480533e-04  0 
 1.344507e-05  -1.545329e-04  0 
 1.418685e-05  -1.528591e-04  0 
 1.069510e-05  -1.408013e-04  0 
 -1.044757e-05  -1.154890e-04  0 
 4.402273e-05  -1.680320e-04  0 
 3.324683e-05  -2.120330e-04  0 
 3.361904e-05  -2.461666e-04  0 
 3.419157e-05  -2.708693e-04  0 
 3.129880e-05  -2.848738e-04  0 
 2.330856e-05  -2.822114e-04  0 
 6.343910e-06  -2.521844e-04  0 
 -3.748864e-05  -1.821621e-04  0 
 8.447076e-05  -2.124800e-04  0 
 7.377858e-05  -2.847537e-04  0 
 7.195307e-05  -3.342461e-04  0 
 6.927758e-05  -3.695905e-04  0 
 5.869311e-05  -3.918446e-04  0 
 3.453332e-05  -3.933595e-04  0 
 -7.026985e-06  -3.572203e-04  0 
 -6.969934e-05  -2.616497e-04  0 
 1.285128e-04  -2.775740e-04  0 
 1.208608e-04  -3.522128e-04  0 
 1.198210e-04  -4.067677e-04  0 
 1.183792e-04  -4.485029e-04  0 
 1.038055e-04  -4.785092e-04  0 
 6.513121e-05  -4.903860e-04  0 
 -2.584299e-06  -4.709475e-04  0 
 -8.667762e-05  -4.013195e-04  0 
 1.570382e-04  -3.621006e-04  0 
 1.595025e-04  -4.215429e-04  0 
 1.710193e-04  -4.739394e-04  0 
 1.816484e-04  -5.175172e-04  0 
 1.743132e-04  -5.518813e-04  0 
 1.324440e-04  -5.754901e-04  0 
 5.070559e-05  -5.837222e-04  0 
 -6.125283e-05  -5.722579e-04  0 
 1.657448e-04  -4.380105e-04  0 
 1.863429e-04  -4.974696e-04  0 
 2.224227e-04  -5.498671e-04  0 
 2.578867e-04  -5.929528e-04  0 
 2.709786e-04  -6.236666e-04  0 
 2.439446e-04  -6.482587e-04  0 
 1.624988e-04  -6.770125e-04  0 
 2.770057e-05  -6.980605e-04  0 
 1.614551e-04  -5.171689e-04  0 
 2.069153e-04  -5.876520e-04  0 
 2.798407e-04  -6.535795e-04  0 
 3.424909e-04  -6.947047e-04  0 
 3.836468e-04  -7.083334e-04  0 
 3.883293e-04  -7.148132e-04  0 
 3.379349e-04  -7.350856e-04  0 
 1.802537e-04  -7.818568e-04  0 
 1.197167e-04  -6.185021e-04  0 
 2.398414e-04  -7.289929e-04  0 
 3.513016e-04  -8.021479e-04  0 
 4.289830e-04  -8.361870e-04  0 
 4.857544e-04  -8.229829e-04  0 
 5.489851e-04  -7.916422e-04  0 
 5.615645e-04  -7.929672e-04  0 
 4.909154e-04  -8.222065e-04  0 
VECTORS displacement_ITER6 FLOAT
 9.830494e-21  5.049615e-21  0 
 -4.287855e-05  -6.490176e-04  0 
 1.067060e-20  6.625636e-21  0 
 6.884382e-04  -9.361258e-04  0 
 9.432644e-05  -5.983617e-05  0 
 1.603362e-04  -7.431037e-05  0 
 1.598699e-04  -1.009675e-04  0 
 1.425743e-04  -1.755085e-04  0 
 1.431476e-04  -2.850864e-04  0 
 1.725448e-04  -3.927830e-04  0 
 1.874215e-04  -4.706601e-04  0 
 1.235288e-04  -5.533722e-04  0 
 -7.181031e-05  -7.719654e-05  0 
 -1.541004e-04  -1.332965e-04  0 
 -2.036729e-04  -2.036858e-04  0 
 -2.232202e-04  -3.064864e-04  0 
 -2.067031e-04  -4.629655e-04  0 
 -1.881592e-04  -6.590188e-04  0 
 -8.931669e-05  -7.822899e-04  0 
 2.257452e-04  -9.344537e-04  0 
 0  0  0 
 0  0  0 
 0  0  0 
 0  0  0 
 0  0  0 
 0  0  0 
 0  0  0 
 0  0  0 
 1.277112e-04  -8.696520e-04  0 
 2.277938e-04  -9.733083e-04  0 
 3.573137e-04  -1.026177e-03  0 
 4.986598e-04  -1.027133e-03  0 
 6.348751e-04  -9.982385e-04  0 
 7.407650e-04  -9.763724e-04  0 
 8.660756e-04  -9.009652e-04  0 
 8.363157e-04  -1.015296e-03  0 
 3.155274e-05  -1.006574e-04  0 
 1.460210e-05  -1.202518e-04  0 
 1.184278e-05  -1.371097e-04  0 
 1.221269e-05  -1.514469e-04  0 
 1.202165e-05  -1.615332e-04  0 
 9.626445e-06  -1.651814e-04  0 
 2.310155e-06  -1.593541e-04  0 
 -1.716099e-05  -1.377135e-04  0 
 7.229543e-05  -1.487183e-04  0 
 4.544460e-05  -2.048577e-04  0 
 3.976289e-05  -2.452404e-04  0 
 3.770022e-05  -2.749375e-04  0 
 3.253321e-05  -2.945223e-04  0 
 2.071830e-05  -3.001873e-04  0 
 -3.116275e-06  -2.841371e-04  0 
 -5.260839e-05  -2.336799e-04  0 
 1.127581e-04  -1.936189e-04  0 
 9.082227e-05  -2.733632e-04  0 
 8.288142e-05  -3.314465e-04  0 
 7.702532e-05  -3.731913e-04  0 
 6.431257e-05  -4.011580e-04  0 
 3.786154e-05  -4.103833e-04  0 
 -8.582373e-06  -3.885381e-04  0 
 -8.466928e-05  -3.217019e-04  0 
 1.444624e-04  -2.665321e-04  0 
 1.382330e-04  -3.445983e-04  0 
 1.342872e-04  -4.052301e-04  0 
 1.293591e-04  -4.519272e-04  0 
 1.126270e-04  -4.859937e-04  0 
 7.278536e-05  -5.022651e-04  0 
 2.728053e-06  -4.882012e-04  0 
 -9.581641e-05  -4.256902e-04  0 
 1.658074e-04  -3.635883e-04  0 
 1.746362e-04  -4.245730e-04  0 
 1.853199e-04  -4.765667e-04  0 
 1.929481e-04  -5.212849e-04  0 
 1.829611e-04  -5.572687e-04  0 
 1.398306e-04  -5.810979e-04  0 
 5.356653e-05  -5.854763e-04  0 
 -7.380413e-05  -5.551527e-04  0 
 1.722019e-04  -4.624606e-04  0 
 1.950804e-04  -5.118120e-04  0 
 2.321060e-04  -5.569336e-04  0 
 2.661894e-04  -5.960773e-04  0 
 2.771859e-04  -6.273688e-04  0 
 2.477722e-04  -6.523123e-04  0 
 1.626144e-04  -6.727359e-04  0 
 1.467508e-05  -6.832135e-04  0 
 1.593864e-04  -5.520588e-04  0 
 2.046535e-04  -6.130921e-04  0 
 2.780460e-04  -6.630758e-04  0 
 3.453251e-04  -6.944587e-04  0 
 3.916240e-04  -7.113012e-04  0 
 3.944613e-04  -7.267539e-04  0 
 3.358955e-04  -7.462935e-04  0 
 1.887756e-04  -7.773096e-04  0 
 1.271235e-04  -6.550333e-04  0 
 2.193837e-04  -7.605112e-04  0 
 3.220520e-04  -8.129640e-04  0 
 4.265224e-04  -8.324883e-04  0 
 5.116204e-04  -8.323358e-04  0 
 5.733497e-04  -8.154937e-04  0 
 5.623413e-04  -8.281391e-04  0 
 4.675601e-04  -8.457297e-04  0 
VECTORS displacement_ITER7 FLOAT
 9.694837e-21  4.975136e-21  0 
 -4.917766e-05  -6.990046e-04  0 
 1.023877e-20  6.201414e-21  0 
 6.334192e-04  -9.201012e-04  0 
 7.301355e-05  -4.386278e-05  0 
 1.033483e-04  -9.069183e-05  0 
 1.329308e-04  -1.653480e-04  0 
 1.736288e-04  -2.234252e-04  0 
 1.930197e-04  -2.694103e-04  0 
 1.946036e-04  -3.444621e-04  0 
 1.898230e-04  -4.494385e-04  0 
 1.287141e-04  -5.571675e-04  0 
 -5.048952e-05  -5.768790e-05  0 
 -8.221637e-05  -1.310239e-04  0 
 -1.333539e-04  -2.343579e-04  0 
 -1.863726e-04  -3.192527e-04  0 
 -1.805450e-04  -4.137077e-04  0 
 -1.219862e-04  -5.908103e-04  0 
 -4.615707e-05  -7.742921e-04  0 
 2.293337e-04  -9.086187e-04  0 
 0  0  0 
 0  0  0 
 0  0  0 
 0  0  0 
 0  0  0 
 0  0  0 
 0  0  0 
 0  0  0 
 1.272839e-04  -9.056384e-04  0 
 2.196313e-04  -9.958694e-04  0 
 3.427287e-04  -1.008153e-03  0 
 4.769547e-04  -1.030612e-03  0 
 6.250353e-04  -1.029932e-03  0 
 7.250606e-04  -1.037611e-03  0 
 8.471728e-04  -1.017748e-03  0 
 8.030789e-04  -1.023175e-03  0 
 2.263899e-05  -9.641224e-05  0 
 1.526052e-05  -1.229922e-04  0 
 1.456628e-05  -1.400374e-04  0 
 1.552992e-05  -1.521668e-04  0 
 1.625976e-05  -1.600101e-04  0 
 1.536052e-05  -1.618272e-04  0 
 1.121452e-05  -1.533388e-04  0 
 3.181476e-07  -1.255283e-04  0 
 6.654440e-05  -1.658496e-04  0 
 4.738956e-05  -2.186911e-04  0 
 4.238478e-05  -2.529253e-04  0 
 4.149933e-05  -2.772528e-04  0 
 3.908869e-05  -2.928300e-04  0 
 3.102778e-05  -2.962569e-04  0 
 1.212898e-05  -2.800424e-04  0 
 -2.639708e-05  -2.292123e-04  0 
 1.069109e-04  -2.370713e-04  0 
 8.790964e-05  -2.964179e-04  0 
 8.111929e-05  -3.432217e-04  0 
 7.851768e-05  -3.780798e-04  0 
 7.129592e-05  -4.010756e-04  0 
 5.252821e-05  -4.073082e-04  0 
 1.541967e-05  -3.874909e-04  0 
 -4.720194e-05  -3.334811e-04  0 
 1.380188e-04  -3.023279e-04  0 
 1.275440e-04  -3.666224e-04  0 
 1.266786e-04  -4.193005e-04  0 
 1.268597e-04  -4.605719e-04  0 
 1.176842e-04  -4.897030e-04  0 
 8.897319e-05  -5.015985e-04  0 
 3.466665e-05  -4.856206e-04  0 
 -4.920852e-05  -4.290167e-04  0 
 1.653468e-04  -3.649409e-04  0 
 1.639214e-04  -4.364677e-04  0 
 1.748585e-04  -4.910385e-04  0 
 1.861647e-04  -5.343354e-04  0 
 1.832289e-04  -5.663770e-04  0 
 1.517542e-04  -5.843410e-04  0 
 8.151809e-05  -5.797695e-04  0 
 -2.911750e-05  -5.304608e-04  0 
 1.822601e-04  -4.431183e-04  0 
 1.927609e-04  -5.143759e-04  0 
 2.234737e-04  -5.703305e-04  0 
 2.554675e-04  -6.129015e-04  0 
 2.696514e-04  -6.423398e-04  0 
 2.494892e-04  -6.611532e-04  0 
 1.772602e-04  -6.693836e-04  0 
 4.107380e-05  -6.565916e-04  0 
 1.726317e-04  -5.404613e-04  0 
 2.104880e-04  -6.146473e-04  0 
 2.728631e-04  -6.746874e-04  0 
 3.311624e-04  -7.120939e-04  0 
 3.739997e-04  -7.324316e-04  0 
 3.837829e-04  -7.456789e-04  0 
 3.375334e-04  -7.568563e-04  0 
 2.070548e-04  -7.745667e-04  0 
 1.350705e-04  -6.656832e-04  0 
 2.267397e-04  -7.672868e-04  0 
 3.167042e-04  -8.210453e-04  0 
 4.077362e-04  -8.441073e-04  0 
 4.899133e-04  -8.581035e-04  0 
 5.505367e-04  -8.576379e-04  0 
 5.563771e-04  -8.640077e-04  0 
 4.735210e-04  -8.694285e-04  0 
VECTORS displacement_ITER8 FLOAT
 9.496212e-21  4.869784e-21  0 
 -1.701318e-05  -7.189954e-04  0 
 9.780645e-21  5.764861e-21  0 
 5.934564e-04  -9.059037e-04  0 
 5.525341e-05  -3.654025e-05  0 
 7.767176e-05  -9.687166e-05  0 
 1.176337e-04  -1.738654e-04  0 
 1.629552e-04  -2.291026e-04  0 
 1.879069e-04  -2.721567e-04  0 
 1.892760e-04  -3.393535e-04  0 
 1.796856e-04  -4.500488e-04  0 
 1.366471e-04  -5.761799e-04  0 
 -6.936033e-05  -4.546790e-05  0 
 -9.721221e-05  -1.132254e-04  0 
 -1.282123e-04  -2.156797e-04  0 
 -1.597058e-04  -3.232083e-04  0 
 -1.670474e-04  -4.301805e-04  0 
 -1.153771e-04  -5.733583e-04  0 
 -3.308457e-05  -7.610475e-04  0 
 2.106351e-04  -8.812957e-04  0 
 0  0  0 
 0  0  0 
 0  0  0 
 0  0  0 
 0  0  0 
 0  0  0 
 0  0  0 
 0  0  0 
 1.049324e-04  -9.263166e-04  0 
 2.229834e-04  -1.007569e-03  0 
 3.670743e-04  -1.006475e-03  0 
 5.069887e-04  -1.018217e-03  0 
 6.424081e-04  -1.028485e-03  0 
 7.353369e-04  -1.043018e-03  0 
 8.198604e-04  -1.073060e-03  0 
 7.952908e-04  -1.051553e-03  0 
 1.671223e-05  -9.341830e-05  0 
 1.319132e-05  -1.218658e-04  0 
 1.389297e-05  -1.392695e-04  0 
 1.563223e-05  -1.512036e-04  0 
 1.692788e-05  -1.585086e-04  0 
 1.649715e-05  -1.593766e-04  0 
 1.228254e-05  -1.495729e-04  0 
 -1.826379e-06  -1.202331e-04  0 
 5.781094e-05  -1.685352e-04  0 
 4.372583e-05  -2.196409e-04  0 
 4.094347e-05  -2.529697e-04  0 
 4.133892e-05  -2.764259e-04  0 
 3.980074e-05  -2.908395e-04  0 
 3.216694e-05  -2.923767e-04  0 
 1.303658e-05  -2.724826e-04  0 
 -2.883223e-05  -2.152155e-04  0 
 9.624073e-05  -2.439471e-04  0 
 8.259701e-05  -3.000677e-04  0 
 7.863421e-05  -3.449303e-04  0 
 7.779688e-05  -3.783794e-04  0 
 7.168494e-05  -3.996626e-04  0 
 5.327050e-05  -4.034474e-04  0 
 1.540243e-05  -3.799946e-04  0 
 -4.674429e-05  -3.198946e-04  0 
 1.295751e-04  -3.080533e-04  0 
 1.217755e-04  -3.711601e-04  0 
 1.237374e-04  -4.227531e-04  0 
 1.257211e-04  -4.628880e-04  0 
 1.177206e-04  -4.901681e-04  0 
 8.995133e-05  -4.995705e-04  0 
 3.661615e-05  -4.817409e-04  0 
 -4.502799e-05  -4.269985e-04  0 
 1.592803e-04  -3.672570e-04  0 
 1.604928e-04  -4.400856e-04  0 
 1.733936e-04  -4.958200e-04  0 
 1.854061e-04  -5.391566e-04  0 
 1.831246e-04  -5.700926e-04  0 
 1.533937e-04  -5.861021e-04  0 
 8.700165e-05  -5.802389e-04  0 
 -1.659016e-05  -5.344627e-04  0 
 1.800768e-04  -4.426985e-04  0 
 1.945843e-04  -5.175490e-04  0 
 2.259138e-04  -5.752563e-04  0 
 2.567084e-04  -6.196782e-04  0 
 2.698153e-04  -6.501554e-04  0 
 2.507390e-04  -6.679888e-04  0 
 1.829143e-04  -6.735648e-04  0 
 5.285058e-05  -6.550644e-04  0 
 1.767728e-04  -5.453097e-04  0 
 2.177103e-04  -6.177340e-04  0 
 2.809346e-04  -6.774879e-04  0 
 3.378350e-04  -7.183478e-04  0 
 3.756055e-04  -7.437437e-04  0 
 3.821679e-04  -7.580486e-04  0 
 3.377173e-04  -7.648609e-04  0 
 2.097855e-04  -7.720047e-04  0 
 1.377399e-04  -6.807510e-04  0 
 2.339026e-04  -7.694603e-04  0 
 3.331711e-04  -8.200454e-04  0 
 4.235651e-04  -8.464153e-04  0 
 4.984994e-04  -8.655889e-04  0 
 5.444945e-04  -8.772241e-04  0 
 5.468668e-04  -8.806948e-04  0 
 4.694653e-04  -8.762148e-04  0 
VECTORS displacement_ITER9 FLOAT
 9.206117e-21  4.717649e-21  0 
 1.258934e-06  -7.627633e-04  0 
 9.284000e-21  5.375109e-21  0 
 6.054082e-04  -9.319341e-04  0 
 7.744430e-05  -4.487940e-05  0 
 1.314451e-04  -9.647243e-05  0 
 1.659602e-04  -1.454547e-04  0 
 1.737986e-04  -2.095883e-04  0 
 1.794289e-04  -2.915362e-04  0 
 1.867613e-04  -3.752244e-04  0 
 1.833537e-04  -4.692777e-04  0 
 1.531548e-04  -5.804919e-04  0 
 -9.386723e-05  -5.622360e-05  0 
 -1.519981e-04  -1.260943e-04  0 
 -1.766743e-04  -2.126060e-04  0 
 -1.726211e-04  -3.350287e-04  0 