# vtk DataFile Version 3.1
this is an vtk file created by FEMAC
ASCII
DATASET UNSTRUCTURED_GRID
POINTS 100 FLOAT
2.000000 5.000000 0.000000
2.000000 6.000000 0.000000
3.000000 5.000000 0.000000
3.000000 6.000000 0.000000
2.000000 5.111111 0.000000
2.000000 5.222222 0.000000
2.000000 5.333333 0.000000
2.000000 5.444444 0.000000
2.000000 5.555556 0.000000
2.000000 5.666667 0.000000
2.000000 5.777778 0.000000
2.000000 5.888889 0.000000
2.111111 5.000000 0.000000
2.222222 5.000000 0.000000
2.333333 5.000000 0.000000
2.444444 5.000000 0.000000
2.555556 5.000000 0.000000
2.666667 5.000000 0.000000
2.777778 5.000000 0.000000
2.888889 5.000000 0.000000
2.111111 6.000000 0.000000
2.222222 6.000000 0.000000
2.333333 6.000000 0.000000
2.444444 6.000000 0.000000
2.555556 6.000000 0.000000
2.666667 6.000000 0.000000
2.777778 6.000000 0.000000
2.888889 6.000000 0.000000
3.000000 5.111111 0.000000
3.000000 5.222222 0.000000
3.000000 5.333333 0.000000
3.000000 5.444444 0.000000
3.000000 5.555556 0.000000
3.000000 5.666667 0.000000
3.000000 5.777778 0.000000
3.000000 5.888889 0.000000
2.111111 5.111111 0.000000
2.111111 5.222222 0.000000
2.111111 5.333333 0.000000
2.111111 5.444444 0.000000
2.111111 5.555556 0.000000
2.111111 5.666667 0.000000
2.111111 5.777778 0.000000
2.111111 5.888889 0.000000
2.222222 5.111111 0.000000
2.222222 5.222222 0.000000
2.222222 5.333333 0.000000
2.222222 5.444444 0.000000
2.222222 5.555556 0.000000
2.222222 5.666667 0.000000
2.222222 5.777778 0.000000
2.222222 5.888889 0.000000
2.333333 5.111111 0.000000
2.333333 5.222222 0.000000
2.333333 5.333333 0.000000
2.333333 5.444444 0.000000
2.333333 5.555556 0.000000
2.333333 5.666667 0.000000
2.333333 5.777778 0.000000
2.333333 5.888889 0.000000
2.444444 5.111111 0.000000
2.444444 5.222222 0.000000
2.444444 5.333333 0.000000
2.444444 5.444444 0.000000
2.444444 5.555556 0.000000
2.444444 5.666667 0.000000
2.444444 5.777778 0.000000
2.444444 5.888889 0.000000
2.555556 5.111111 0.000000
2.555556 5.222222 0.000000
2.555556 5.333333 0.000000
2.555556 5.444444 0.000000
2.555556 5.555556 0.000000
2.555556 5.666667 0.000000
2.555556 5.777778 0.000000
2.555556 5.888889 0.000000
2.666667 5.111111 0.000000
2.666667 5.222222 0.000000
2.666667 5.333333 0.000000
2.666667 5.444444 0.000000
2.666667 5.555556 0.000000
2.666667 5.666667 0.000000
2.666667 5.777778 0.000000
2.666667 5.888889 0.000000
2.777778 5.111111 0.000000
2.777778 5.222222 0.000000
2.777778 5.333333 0.000000
2.777778 5.444444 0.000000
2.777778 5.555556 0.000000
2.777778 5.666667 0.000000
2.777778 5.777778 0.000000
2.777778 5.888889 0.000000
2.888889 5.111111 0.000000
2.888889 5.222222 0.000000
2.888889 5.333333 0.000000
2.888889 5.444444 0.000000
2.888889 5.555556 0.000000
2.888889 5.666667 0.000000
2.888889 5.777778 0.000000
2.888889 5.888889 0.000000
CELLS 81 405 
4 0 12 36  4
4 4 36 37  5
4 5 37 38  6
4 6 38 39  7
4 7 39 40  8
4 8 40 41  9
4 9 41 42 10
4 10 42 43 11
4 11 43 20  1
4 12 13 44 36
4 36 44 45 37
4 37 45 46 38
4 38 46 47 39
4 39 47 48 40
4 40 48 49 41
4 41 49 50 42
4 42 50 51 43
4 43 51 21 20
4 13 14 52 44
4 44 52 53 45
4 45 53 54 46
4 46 54 55 47
4 47 55 56 48
4 48 56 57 49
4 49 57 58 50
4 50 58 59 51
4 51 59 22 21
4 14 15 60 52
4 52 60 61 53
4 53 61 62 54
4 54 62 63 55
4 55 63 64 56
4 56 64 65 57
4 57 65 66 58
4 58 66 67 59
4 59 67 23 22
4 15 16 68 60
4 60 68 69 61
4 61 69 70 62
4 62 70 71 63
4 63 71 72 64
4 64 72 73 65
4 65 73 74 66
4 66 74 75 67
4 67 75 24 23
4 16 17 76 68
4 68 76 77 69
4 69 77 78 70
4 70 78 79 71
4 71 79 80 72
4 72 80 81 73
4 73 81 82 74
4 74 82 83 75
4 75 83 25 24
4 17 18 84 76
4 76 84 85 77
4 77 85 86 78
4 78 86 87 79
4 79 87 88 80
4 80 88 89 81
4 81 89 90 82
4 82 90 91 83
4 83 91 26 25
4 18 19 92 84
4 84 92 93 85
4 85 93 94 86
4 86 94 95 87
4 87 95 96 88
4 88 96 97 89
4 89 97 98 90
4 90 98 99 91
4 91 99 27 26
4 19  2 28 92
4 92 28 29 93
4 93 29 30 94
4 94 30 31 95
4 95 31 32 96
4 96 32 33 97
4 97 33 34 98
4 98 34 35 99
4 99 35  3 27
CELL_TYPES 81
9 9 9 9 9 9 9 9 9 9 9 9 9 9 9 9 9 9 9 9 9 9 9 9 9 9 9 9 9 9 9 9 9 9 9 9 9 9 9 9 9 9 9 9 9 9 9 9 9 9 9 9 9 9 9 9 9 9 9 9 9 9 9 9 9 9 9 9 9 9 9 9 9 9 9 9 9 9 9 9 9 
POINT_DATA 100
VECTORS displacement_ITER1 FLOAT
 4.682027e-03  -6.018344e-03  0 
 7.331430e-03  -7.923552e-03  0 
 8.155173e-03  -8.648025e-03  0 
 1.244539e-02  -1.059630e-02  0 
 4.465559e-03  -6.449245e-03  0 
 4.450137e-03  -7.548315e-03  0 
 5.239978e-03  -7.868392e-03  0 
 5.491627e-03  -7.394660e-03  0 
 6.693563e-03  -7.036417e-03  0 
 6.664447e-03  -7.003655e-03  0 
 7.380979e-03  -7.396581e-03  0 
 6.933719e-03  -7.752099e-03  0 
 5.773099e-03  -5.931975e-03  0 
 6.992223e-03  -5.501368e-03  0 
 6.663904e-03  -6.774361e-03  0 
 6.486337e-03  -7.180182e-03  0 
 6.396094e-03  -7.659731e-03  0 
 6.005019e-03  -7.554168e-03  0 
 6.164580e-03  -7.660291e-03  0 
 7.267596e-03  -8.414531e-03  0 
 7.755379e-03  -8.094924e-03  0 
 8.319398e-03  -8.264844e-03  0 
 8.789194e-03  -8.577568e-03  0 
 9.218782e-03  -8.887027e-03  0 
 9.668475e-03  -9.156118e-03  0 
 1.018416e-02  -9.394708e-03  0 
 1.080814e-02  -9.648227e-03  0 
 1.158445e-02  -1.001709e-02  0 
 8.443039e-03  -9.110302e-03  0 
 9.062717e-03  -9.940610e-03  0 
 9.678836e-03  -9.798330e-03  0 
 9.149139e-03  -9.718328e-03  0 
 9.848768e-03  -9.674392e-03  0 
 1.040737e-02  -9.721354e-03  0 
 1.100780e-02  -9.872855e-03  0 
 1.189665e-02  -1.019683e-02  0 
 5.508404e-03  -6.621205e-03  0 
 5.528297e-03  -7.215994e-03  0 
 5.620474e-03  -7.557856e-03  0 
 6.016201e-03  -7.666604e-03  0 
 6.569446e-03  -7.597283e-03  0 
 7.135934e-03  -7.584480e-03  0 
 7.463214e-03  -7.676261e-03  0 
 7.645462e-03  -7.844358e-03  0 
 6.316189e-03  -6.549116e-03  0 
 6.188625e-03  -7.092328e-03  0 
 6.260344e-03  -7.473970e-03  0 
 6.516046e-03  -7.736627e-03  0 
 6.932261e-03  -7.885990e-03  0 
 7.392105e-03  -7.954670e-03  0 
 7.777728e-03  -8.018259e-03  0 
 8.068827e-03  -8.128786e-03  0 
 6.795527e-03  -6.708062e-03  0 
 6.713525e-03  -7.117538e-03  0 
 6.811352e-03  -7.495010e-03  0 
 7.053894e-03  -7.818862e-03  0 
 7.394826e-03  -8.062088e-03  0 
 7.778502e-03  -8.222459e-03  0 
 8.149778e-03  -8.337234e-03  0 
 8.478765e-03  -8.449775e-03  0 
 6.805018e-03  -7.172879e-03  0 
 7.041959e-03  -7.306783e-03  0 
 7.280556e-03  -7.635504e-03  0 
 7.572475e-03  -7.969994e-03  0 
 7.900305e-03  -8.245540e-03  0 
 8.246533e-03  -8.452782e-03  0 
 8.590721e-03  -8.611304e-03  0 
 8.916735e-03  -8.752193e-03  0 
 6.754750e-03  -7.468315e-03  0 
 7.254028e-03  -7.637543e-03  0 
 7.691626e-03  -7.924584e-03  0 
 8.062075e-03  -8.222680e-03  0 
 8.408045e-03  -8.478657e-03  0 
 8.744221e-03  -8.682481e-03  0 
 9.074354e-03  -8.850439e-03  0 
 9.390064e-03  -9.006590e-03  0 
 6.845803e-03  -7.764485e-03  0 
 7.551023e-03  -8.074774e-03  0 
 8.084242e-03  -8.340863e-03  0 
 8.517026e-03  -8.574966e-03  0 
 8.886104e-03  -8.767746e-03  0 
 9.226916e-03  -8.922621e-03  0 
 9.568598e-03  -9.068985e-03  0 
 9.902406e-03  -9.227267e-03  0 
 7.275997e-03  -8.272527e-03  0 
 7.953328e-03  -8.589777e-03  0 
 8.493634e-03  -8.833100e-03  0 
 8.936211e-03  -9.001590e-03  0 
 9.294827e-03  -9.087235e-03  0 
 9.660137e-03  -9.165463e-03  0 
 1.005973e-02  -9.293597e-03  0 
 1.045830e-02  -9.455419e-03  0 
 7.807342e-03  -8.830053e-03  0 
 8.462585e-03  -9.085484e-03  0 
 8.973985e-03  -9.403200e-03  0 
 9.255238e-03  -9.442728e-03  0 
 9.582143e-03  -9.364210e-03  0 
 1.004809e-02  -9.433870e-03  0 
 1.055252e-02  -9.547263e-03  0 
 1.107537e-02  -9.756531e-03  0 
VECTORS displacement_ITER2 FLOAT
 3.183517e-03  -4.263042e-03  0 
 7.867186e-03  -5.049932e-03  0 
 6.538867e-03  -6.988003e-03  0 
 8.178965e-03  -7.374305e-03  0 
 3.344720e-03  -5.432559e-03  0 
 3.480203e-03  -5.825949e-03  0 
 4.130497e-03  -6.108879e-03  0 
 4.214113e-03  -6.224630e-03  0 
 4.494590e-03  -6.171838e-03  0 
 4.517140e-03  -5.977224e-03  0 
 5.197845e-03  -5.728219e-03  0 
 6.003426e-03  -5.357778e-03  0 
 4.326030e-03  -4.654758e-03  0 
 5.004525e-03  -4.456083e-03  0 
 5.173628e-03  -5.333741e-03  0 
 4.981020e-03  -5.903613e-03  0 
 4.938172e-03  -6.283463e-03  0 
 4.839415e-03  -6.509200e-03  0 
 5.064276e-03  -6.675966e-03  0 
 5.623079e-03  -7.155558e-03  0 
 7.278921e-03  -6.487068e-03  0 
 7.050252e-03  -7.102375e-03  0 
 7.058177e-03  -7.448208e-03  0 
 7.207842e-03  -7.672495e-03  0 
 7.436123e-03  -7.836706e-03  0 
 7.696969e-03  -7.957917e-03  0 
 7.944936e-03  -8.018278e-03  0 
 8.122488e-03  -7.943400e-03  0 
 6.437990e-03  -7.461370e-03  0 
 6.735879e-03  -7.679365e-03  0 
 7.138235e-03  -7.907424e-03  0 
 7.673563e-03  -7.879685e-03  0 
 8.321854e-03  -7.705350e-03  0 
 8.701181e-03  -7.697477e-03  0 
 8.927065e-03  -7.583036e-03  0 
 8.829220e-03  -7.535598e-03  0 
 4.141093e-03  -5.237363e-03  0 
 4.201487e-03  -5.806755e-03  0 
 4.393679e-03  -6.101592e-03  0 
 4.590083e-03  -6.224992e-03  0 
 4.751893e-03  -6.282129e-03  0 
 5.030826e-03  -6.331515e-03  0 
 5.505168e-03  -6.386053e-03  0 
 6.304523e-03  -6.470086e-03  0 
 4.798306e-03  -5.279829e-03  0 
 4.766212e-03  -5.761384e-03  0 
 4.833913e-03  -6.096761e-03  0 
 4.980350e-03  -6.317521e-03  0 
 5.193518e-03  -6.497201e-03  0 
 5.500853e-03  -6.684272e-03  0 
 5.948052e-03  -6.887582e-03  0 
 6.514343e-03  -7.056911e-03  0 
 5.210424e-03  -5.483482e-03  0 
 5.210626e-03  -5.834792e-03  0 
 5.290104e-03  -6.158904e-03  0 
 5.444230e-03  -6.448223e-03  0 
 5.672697e-03  -6.714529e-03  0 
 5.975945e-03  -6.972675e-03  0 
 6.343884e-03  -7.208093e-03  0 
 6.729561e-03  -7.375010e-03  0 
 5.322706e-03  -5.867991e-03  0 
 5.528954e-03  -6.033900e-03  0 
 5.712563e-03  -6.310303e-03  0 
 5.918627e-03  -6.609602e-03  0 
 6.157946e-03  -6.905775e-03  0 
 6.429108e-03  -7.183327e-03  0 
 6.714204e-03  -7.417241e-03  0 
 6.984302e-03  -7.581354e-03  0 
 5.354072e-03  -6.229438e-03  0 
 5.759774e-03  -6.335587e-03  0 
 6.086797e-03  -6.543430e-03  0 
 6.366437e-03  -6.798997e-03  0 
 6.626347e-03  -7.072332e-03  0 
 6.869173e-03  -7.338429e-03  0 
 7.087995e-03  -7.567049e-03  0 
 7.277623e-03  -7.733665e-03  0 
 5.468075e-03  -6.565791e-03  0 
 5.990765e-03  -6.691000e-03  0 
 6.415348e-03  -6.829983e-03  0 
 6.772479e-03  -7.007703e-03  0 
 7.074031e-03  -7.222564e-03  0 
 7.313171e-03  -7.454805e-03  0 
 7.483851e-03  -7.675164e-03  0 
 7.601373e-03  -7.848275e-03  0 
 5.727833e-03  -6.957993e-03  0 
 6.234513e-03  -7.065239e-03  0 
 6.701421e-03  -7.136440e-03  0 
 7.135633e-03  -7.232009e-03  0 
 7.504330e-03  -7.367534e-03  0 
 7.774244e-03  -7.537302e-03  0 
 7.921706e-03  -7.728056e-03  0 
 7.953367e-03  -7.907858e-03  0 
 6.075317e-03  -7.302030e-03  0 
 6.466044e-03  -7.414785e-03  0 
 6.933778e-03  -7.472232e-03  0 
 7.460572e-03  -7.489672e-03  0 
 7.913962e-03  -7.530828e-03  0 
 8.247797e-03  -7.595192e-03  0 
 8.413863e-03  -7.700313e-03  0 
 8.357778e-03  -7.832094e-03  0 
VECTORS displacement_ITER3 FLOAT
 3.267057e-03  -4.787578e-03  0 
 4.808058e-03  -5.761499e-03  0 
 4.817941e-03  -6.799769e-03  0 
 8.325296e-03  -7.120945e-03  0 
 2.847280e-03  -5.025532e-03  0 
 3.139148e-03  -4.853751e-03  0 
 3.706851e-03  -4.714917e-03  0 
 4.129606e-03  -4.751973e-03  0 
 4.425779e-03  -4.783047e-03  0 
 4.942493e-03  -4.911464e-03  0 
 4.886312e-03  -5.130624e-03  0 
 4.951486e-03  -5.326421e-03  0 
 3.919255e-03  -3.941502e-03  0 
 3.978213e-03  -4.181765e-03  0 
 4.341883e-03  -4.625022e-03  0 
 4.307597e-03  -4.952316e-03  0 
 4.335806e-03  -5.087699e-03  0 
 4.454929e-03  -5.241531e-03  0 
 4.438905e-03  -5.333483e-03  0 
 4.527226e-03  -5.796923e-03  0 
 5.290544e-03  -5.540844e-03  0 
 5.671473e-03  -5.681613e-03  0 
 5.974049e-03  -5.879064e-03  0 
 6.236905e-03  -6.077382e-03  0 
 6.501769e-03  -6.245705e-03  0 
 6.803499e-03  -6.383926e-03  0 
 7.179593e-03  -6.514466e-03  0 
 7.682494e-03  -6.708946e-03  0 
 5.700071e-03  -6.558177e-03  0 
 6.010591e-03  -6.279125e-03  0 
 6.137744e-03  -6.363313e-03  0 
 6.612598e-03  -6.274633e-03  0 
 6.812209e-03  -6.192369e-03  0 
 7.110397e-03  -6.376922e-03  0 
 7.375404e-03  -6.536677e-03  0 
 7.818143e-03  -6.842055e-03  0 
 3.498777e-03  -4.589027e-03  0 
 3.577843e-03  -4.932792e-03  0 
 3.922224e-03  -5.034693e-03  0 
 4.306234e-03  -5.061482e-03  0 
 4.669101e-03  -5.145125e-03  0 
 4.972048e-03  -5.210218e-03  0 
 5.160897e-03  -5.289759e-03  0 
 5.258956e-03  -5.440504e-03  0 
 4.082759e-03  -4.562316e-03  0 
 4.075586e-03  -4.924219e-03  0 
 4.256170e-03  -5.154802e-03  0 
 4.554362e-03  -5.286881e-03  0 
 4.869120e-03  -5.372974e-03  0 
 5.141929e-03  -5.443608e-03  0 
 5.362708e-03  -5.512750e-03  0 
 5.521242e-03  -5.586044e-03  0 
 4.362062e-03  -4.773676e-03  0 
 4.461256e-03  -4.993707e-03  0 
 4.615534e-03  -5.234309e-03  0 
 4.847628e-03  -5.419899e-03  0 
 5.112787e-03  -5.547642e-03  0 
 5.366632e-03  -5.640123e-03  0 
 5.587668e-03  -5.717317e-03  0 
 5.781495e-03  -5.796074e-03  0 
 4.531002e-03  -4.972571e-03  0 
 4.727637e-03  -5.138504e-03  0 
 4.935659e-03  -5.342981e-03  0 
 5.161174e-03  -5.538822e-03  0 
 5.399013e-03  -5.692648e-03  0 
 5.632496e-03  -5.807275e-03  0 
 5.849725e-03  -5.902182e-03  0 
 6.049176e-03  -5.992893e-03  0 
 4.649850e-03  -5.178787e-03  0 
 4.947497e-03  -5.312707e-03  0 
 5.224928e-03  -5.498924e-03  0 
 5.474237e-03  -5.681121e-03  0 
 5.704401e-03  -5.832679e-03  0 
 5.925862e-03  -5.952986e-03  0 
 6.138146e-03  -6.056108e-03  0 
 6.333308e-03  -6.154674e-03  0 
 4.783551e-03  -5.347651e-03  0 
 5.179166e-03  -5.523976e-03  0 
 5.513285e-03  -5.697724e-03  0 
 5.778441e-03  -5.847315e-03  0 
 6.007020e-03  -5.974254e-03  0 
 6.225494e-03  -6.083659e-03  0 
 6.440924e-03  -6.182086e-03  0 
 6.642452e-03  -6.281669e-03  0 
 5.002823e-03  -5.588477e-03  0 
 5.461866e-03  -5.799061e-03  0 
 5.801172e-03  -5.921324e-03  0 
 6.064940e-03  -6.011333e-03  0 
 6.297010e-03  -6.107135e-03  0 
 6.516320e-03  -6.202966e-03  0 
 6.745715e-03  -6.294745e-03  0 
 6.984427e-03  -6.396443e-03  0 
 5.350710e-03  -6.013196e-03  0 
 5.751507e-03  -6.134778e-03  0 
 6.036122e-03  -6.125806e-03  0 
 6.335924e-03  -6.145139e-03  0 
 6.576380e-03  -6.214656e-03  0 
 6.793515e-03  -6.294313e-03  0 
 7.055879e-03  -6.421149e-03  0 
 7.359910e-03  -6.550254e-03  0 
VECTORS displacement_ITER4 FLOAT
 2.885759e-03  -4.268885e-03  0 
 5.568012e-03  -4.739455e-03  0 
 4.727302e-03  -6.235142e-03  0 
 7.275324e-03  -6.259829e-03  0 
 3.079140e-03  -4.753502e-03  0 
 3.374776e-03  -4.916573e-03  0 
 3.447366e-03  -5.026262e-03  0 
 3.510346e-03  -5.004329e-03  0 
 3.781202e-03  -5.008301e-03  0 
 4.123660e-03  -4.925572e-03  0 
 4.517379e-03  -4.841265e-03  0 
 4.941210e-03  -4.763643e-03  0 
 3.645320e-03  -4.143197e-03  0 
 3.908515e-03  -4.390178e-03  0 
 4.115268e-03  -4.528387e-03  0 
 4.132328e-03  -4.782277e-03  0 
 4.159417e-03  -4.943030e-03  0 
 4.243280e-03  -5.127737e-03  0 
 4.262980e-03  -5.432029e-03  0 
 4.424818e-03  -5.627725e-03  0 
 5.615152e-03  -5.345597e-03  0 
 5.679288e-03  -5.744250e-03  0 
 5.795559e-03  -6.026132e-03  0 
 5.967504e-03  -6.232192e-03  0 
 6.187925e-03  -6.389563e-03  0 
 6.443618e-03  -6.511731e-03  0 
 6.716945e-03  -6.591089e-03  0 
 6.991247e-03  -6.589691e-03  0 
 5.303499e-03  -6.248468e-03  0 
 5.502769e-03  -6.262287e-03  0 
 5.854995e-03  -6.355710e-03  0 
 6.129875e-03  -6.428388e-03  0 
 6.592371e-03  -6.513240e-03  0 
 7.012411e-03  -6.536985e-03  0 
 7.252736e-03  -6.457224e-03  0 
 7.512203e-03  -6.360686e-03  0 
 3.541994e-03  -4.651308e-03  0 
 3.610224e-03  -4.900163e-03  0 
 3.709593e-03  -5.013076e-03  0 
 3.845133e-03  -5.122813e-03  0 
 4.063376e-03  -5.201708e-03  0 
 4.357204e-03  -5.245748e-03  0 
 4.713582e-03  -5.268065e-03  0 
 5.135979e-03  -5.308105e-03  0 
 3.915105e-03  -4.635098e-03  0 
 3.922525e-03  -4.887216e-03  0 
 4.017057e-03  -5.077822e-03  0 
 4.175136e-03  -5.236335e-03  0 
 4.385168e-03  -5.379310e-03  0 
 4.651024e-03  -5.500782e-03  0 
 4.970467e-03  -5.605568e-03  0 
 5.326987e-03  -5.692942e-03  0 
 4.138228e-03  -4.736475e-03  0 
 4.217797e-03  -4.944431e-03  0 
 4.338887e-03  -5.158935e-03  0 
 4.511542e-03  -5.357876e-03  0 
 4.724902e-03  -5.540749e-03  0 
 4.972808e-03  -5.707168e-03  0 
 5.248834e-03  -5.850299e-03  0 
 5.533387e-03  -5.959708e-03  0 
 4.303391e-03  -4.880981e-03  0 
 4.465446e-03  -5.068400e-03  0 
 4.647549e-03  -5.276802e-03  0 
 4.849934e-03  -5.487351e-03  0 
 5.070759e-03  -5.687722e-03  0 
 5.303555e-03  -5.871550e-03  0 
 5.540207e-03  -6.029930e-03  0 
 5.767716e-03  -6.151944e-03  0 
 4.427524e-03  -5.076127e-03  0 
 4.686130e-03  -5.243538e-03  0 
 4.934493e-03  -5.436864e-03  0 
 5.177491e-03  -5.633290e-03  0 
 5.413646e-03  -5.823554e-03  0 
 5.639048e-03  -6.004053e-03  0 
 5.847223e-03  -6.166491e-03  0 
 6.032155e-03  -6.297606e-03  0 
 4.566828e-03  -5.293704e-03  0 
 4.896455e-03  -5.466154e-03  0 
 5.202418e-03  -5.638534e-03  0 
 5.482304e-03  -5.799600e-03  0 
 5.743870e-03  -5.954966e-03  0 
 5.980670e-03  -6.112906e-03  0 
 6.176980e-03  -6.270981e-03  0 
 6.327974e-03  -6.410150e-03  0 
 4.732326e-03  -5.556409e-03  0 
 5.119920e-03  -5.737140e-03  0 
 5.445545e-03  -5.875243e-03  0 
 5.751454e-03  -5.985362e-03  0 
 6.050601e-03  -6.094092e-03  0 
 6.326564e-03  -6.210480e-03  0 
 6.541605e-03  -6.343956e-03  0 
 6.660449e-03  -6.483974e-03  0 
 4.975655e-03  -5.901525e-03  0 
 5.346138e-03  -6.036353e-03  0 
 5.648437e-03  -6.120223e-03  0 
 5.975522e-03  -6.196882e-03  0 
 6.326191e-03  -6.258689e-03  0 
 6.668436e-03  -6.335642e-03  0 
 6.932735e-03  -6.391896e-03  0 
 7.050890e-03  -6.470615e-03  0 
VECTORS displacement_ITER5 FLOAT
 3.001822e-03  -4.364377e-03  0 
 5.120235e-03  -4.737169e-03  0 
 4.670338e-03  -5.942495e-03  0 
 7.650741e-03  -6.439388e-03  0 
 2.861795e-03  -4.592596e-03  0 
 3.117249e-03  -4.631206e-03  0 
 3.281250e-03  -4.651480e-03  0 
 3.537290e-03  -4.659351e-03  0 
 3.872496e-03  -4.753301e-03  0 
 4.151967e-03  -4.751595e-03  0 
 4.500492e-03  -4.737088e-03  0 
 4.738931e-03  -4.749249e-03  0 
 3.490312e-03  -4.013099e-03  0 
 3.748687e-03  -4.165358e-03  0 
 3.832061e-03  -4.309325e-03  0 
 3.920719e-03  -4.630932e-03  0 
 3.989006e-03  -4.840666e-03  0 
 4.072073e-03  -5.076281e-03  0 
 4.105592e-03  -5.437376e-03  0 
 4.286976e-03  -5.598493e-03  0 
 5.317045e-03  -5.185744e-03  0 
 5.486869e-03  -5.508745e-03  0 
 5.661451e-03  -5.769777e-03  0 
 5.860098e-03  -5.974143e-03  0 
 6.090760e-03  -6.132581e-03  0 
 6.359984e-03  -6.252698e-03  0 
 6.681269e-03  -6.340553e-03  0 
 7.087060e-03  -6.409803e-03  0 
 4.981793e-03  -6.138514e-03  0 
 5.333900e-03  -6.314802e-03  0 
 5.796769e-03  -6.296835e-03  0 
 6.009586e-03  -6.282479e-03  0 
 6.377419e-03  -6.310788e-03  0 
 6.678383e-03  -6.317862e-03  0 
 6.978809e-03  -6.340277e-03  0 
 7.386915e-03  -6.375691e-03  0 
 3.332678e-03  -4.443271e-03  0 
 3.388931e-03  -4.665857e-03  0 
 3.573434e-03  -4.782445e-03  0 
 3.821056e-03  -4.892224e-03  0 
 4.096038e-03  -4.968355e-03  0 
 4.376119e-03  -5.032087e-03  0 
 4.667184e-03  -5.074147e-03  0 
 4.971081e-03  -5.118053e-03  0 
 3.701331e-03  -4.414544e-03  0 
 3.744035e-03  -4.687622e-03  0 
 3.894584e-03  -4.894093e-03  0 
 4.113842e-03  -5.047474e-03  0 
 4.363542e-03  -5.170809e-03  0 
 4.628218e-03  -5.272093e-03  0 
 4.902854e-03  -5.361793e-03  0 
 5.192552e-03  -5.444808e-03  0 
 3.953649e-03  -4.542055e-03  0 
 4.064769e-03  -4.775315e-03  0 
 4.220912e-03  -4.997645e-03  0 
 4.426328e-03  -5.186416e-03  0 
 4.661834e-03  -5.343705e-03  0 
 4.911208e-03  -5.478913e-03  0 
 5.166537e-03  -5.597569e-03  0 
 5.420103e-03  -5.697511e-03  0 
 4.130371e-03  -4.743804e-03  0 
 4.324282e-03  -4.929453e-03  0 
 4.525905e-03  -5.133446e-03  0 
 4.744540e-03  -5.327394e-03  0 
 4.977656e-03  -5.500024e-03  0 
 5.215332e-03  -5.651668e-03  0 
 5.447535e-03  -5.783803e-03  0 
 5.665368e-03  -5.893490e-03  0 
 4.270260e-03  -4.972904e-03  0 
 4.545001e-03  -5.131681e-03  0 
 4.802891e-03  -5.309364e-03  0 
 5.052656e-03  -5.486463e-03  0 
 5.296446e-03  -5.650094e-03  0 
 5.530020e-03  -5.797404e-03  0 
 5.745158e-03  -5.929153e-03  0 
 5.934161e-03  -6.043221e-03  0 
 4.417429e-03  -5.221217e-03  0 
 4.749965e-03  -5.368077e-03  0 
 5.059394e-03  -5.521401e-03  0 
 5.342232e-03  -5.668895e-03  0 
 5.604179e-03  -5.803368e-03  0 
 5.845283e-03  -5.925035e-03  0 
 6.058119e-03  -6.041374e-03  0 
 6.232164e-03  -6.154022e-03  0 
 4.563956e-03  -5.503175e-03  0 
 4.957590e-03  -5.638244e-03  0 
 5.301864e-03  -5.762912e-03  0 
 5.610523e-03  -5.873143e-03  0 
 5.887978e-03  -5.965225e-03  0 
 6.147395e-03  -6.045212e-03  0 
 6.383632e-03  -6.129441e-03  0 
 6.567025e-03  -6.231036e-03  0 
 4.745389e-03  -5.837222e-03  0 
 5.164134e-03  -5.935909e-03  0 
 5.538086e-03  -6.029803e-03  0 
 5.849583e-03  -6.091823e-03  0 
 6.137741e-03  -6.128080e-03  0 
 6.425673e-03  -6.178318e-03  0 
 6.703148e-03  -6.214501e-03  0 
 6.953013e-03  -6.279880e-03  0 
VECTORS displacement_ITER6 FLOAT
 3.073265e-03  -4.360443e-03  0 
 4.926566e-03  -4.764186e-03  0 
 4.397494e-03  -6.005798e-03  0 
 7.630129e-03  -6.399346e-03  0 
 2.835686e-03  -4.494498e-03  0 
 3.040314e-03  -4.525891e-03  0 
 3.263522e-03  -4.531110e-03  0 
 3.584817e-03  -4.591380e-03  0 
 3.880247e-03  -4.667819e-03  0 
 4.175405e-03  -4.702757e-03  0 
 4.449199e-03  -4.710358e-03  0 
 4.693192e-03  -4.743141e-03  0 
 3.454779e-03  -4.011911e-03  0 
 3.719303e-03  -4.175106e-03  0 
 3.815759e-03  -4.367264e-03  0 
 3.938966e-03  -4.613164e-03  0 
 3.995488e-03  -4.813362e-03  0 
 4.065578e-03  -5.030568e-03  0 
 4.091590e-03  -5.286481e-03  0 
 4.203394e-03  -5.491303e-03  0 
 5.198448e-03  -5.122928e-03  0 
 5.396076e-03  -5.427122e-03  0 
 5.582655e-03  -5.678554e-03  0 
 5.783015e-03  -5.879412e-03  0 
 6.008397e-03  -6.035610e-03  0 
 6.268849e-03  -6.151495e-03  0 
 6.583145e-03  -6.231902e-03  0 
 6.997185e-03  -6.293406e-03  0 
 4.935126e-03  -6.100877e-03  0 
 5.310904e-03  -6.192342e-03  0 
 5.687518e-03  -6.197012e-03  0 
 5.993028e-03  -6.201945e-03  0 
 6.288388e-03  -6.207584e-03  0 
 6.557369e-03  -6.215579e-03  0 
 6.860897e-03  -6.240713e-03  0 
 7.218691e-03  -6.298612e-03  0 
 3.305353e-03  -4.391676e-03  0 
 3.359092e-03  -4.604506e-03  0 
 3.564935e-03  -4.729452e-03  0 
 3.829571e-03  -4.825752e-03  0 
 4.104249e-03  -4.902363e-03  0 
 4.370723e-03  -4.965769e-03  0 
 4.636248e-03  -5.015025e-03  0 
 4.898990e-03  -5.058908e-03  0 
 3.676776e-03  -4.407110e-03  0 
 3.724113e-03  -4.658945e-03  0 
 3.878822e-03  -4.852567e-03  0 
 4.102145e-03  -4.994616e-03  0 
 4.351290e-03  -5.105864e-03  0 
 4.605616e-03  -5.199334e-03  0 
 4.860098e-03  -5.282162e-03  0 
 5.122541e-03  -5.360683e-03  0 
 3.929439e-03  -4.547482e-03  0 
 4.036653e-03  -4.755673e-03  0 
 4.192355e-03  -4.959936e-03  0 
 4.396790e-03  -5.133956e-03  0 
 4.629244e-03  -5.278036e-03  0 
 4.870658e-03  -5.401243e-03  0 
 5.112442e-03  -5.510723e-03  0 
 5.351342e-03  -5.606181e-03  0 
 4.103467e-03  -4.732852e-03  0 
 4.286471e-03  -4.901830e-03  0 
 4.482681e-03  -5.089933e-03  0 
 4.698512e-03  -5.270665e-03  0 
 4.928007e-03  -5.431238e-03  0 
 5.159734e-03  -5.571795e-03  0 
 5.383855e-03  -5.695424e-03  0 
 5.593438e-03  -5.800431e-03  0 
 4.247425e-03  -4.931690e-03  0 
 4.498312e-03  -5.082844e-03  0 
 4.748332e-03  -5.253247e-03  0 
 4.993860e-03  -5.423031e-03  0 
 5.233430e-03  -5.578142e-03  0 
 5.462410e-03  -5.716299e-03  0 
 5.672527e-03  -5.840218e-03  0 
 5.856105e-03  -5.949176e-03  0 
 4.377935e-03  -5.148587e-03  0 
 4.698007e-03  -5.294593e-03  0 
 4.999912e-03  -5.451004e-03  0 
 5.276140e-03  -5.597886e-03  0 
 5.531194e-03  -5.728350e-03  0 
 5.766976e-03  -5.843421e-03  0 
 5.976035e-03  -5.951127e-03  0 
 6.146132e-03  -6.056613e-03  0 
 4.515657e-03  -5.397620e-03  0 
 4.905391e-03  -5.548825e-03  0 
 5.243863e-03  -5.681168e-03  0 
 5.541215e-03  -5.793105e-03  0 
 5.809573e-03  -5.886341e-03  0 
 6.058537e-03  -5.964571e-03  0 
 6.287188e-03  -6.037744e-03  0 
 6.471779e-03  -6.127235e-03  0 
 4.701749e-03  -5.722438e-03  0 
 5.120244e-03  -5.848735e-03  0 
 5.475942e-03  -5.935628e-03  0 
 5.783867e-03  -5.999364e-03  0 
 6.061283e-03  -6.049241e-03  0 
 6.324569e-03  -6.090027e-03  0 
 6.585091e-03  -6.125651e-03  0 
 6.840341e-03  -6.176590e-03  0 
VECTORS displacement_ITER7 FLOAT
 3.072152e-03  -4.212126e-03  0 
 5.024516e-03  -4.608948e-03  0 
 4.288554e-03  -5.999396e-03  0 
 7.380477e-03  -6.187372e-03  0 
 2.933234e-03  -4.390482e-03  0 
 3.073078e-03  -4.516457e-03  0 
 3.255616e-03  -4.601243e-03  0 
 3.483424e-03  -4.665843e-03  0 
 3.761954e-03  -4.683139e-03  0 
 4.055366e-03  -4.687277e-03  0 
 4.375849e-03  -4.669635e-03  0 
 4.691341e-03  -4.651094e-03  0 
 3.454060e-03  -4.057131e-03  0 
 3.719621e-03  -4.210902e-03  0 
 3.822078e-03  -4.420681e-03  0 
 3.923822e-03  -4.616328e-03  0 
 3.972456e-03  -4.826695e-03  0 
 4.030062e-03  -5.029689e-03  0 
 4.074137e-03  -5.238704e-03  0 
 4.176710e-03  -5.483636e-03  0 
 5.240429e-03  -5.085936e-03  0 
 5.391395e-03  -5.431913e-03  0 
 5.552336e-03  -5.697035e-03  0 
 5.741872e-03  -5.902265e-03  0 
 5.963456e-03  -6.062641e-03  0 
 6.217065e-03  -6.184762e-03  0 
 6.505673e-03  -6.264402e-03  0 
 6.852714e-03  -6.283425e-03  0 
 4.879605e-03  -6.051682e-03  0 
 5.236187e-03  -6.100916e-03  0 
 5.557868e-03  -6.161978e-03  0 
 5.894989e-03  -6.240069e-03  0 
 6.246072e-03  -6.280129e-03  0 
 6.571677e-03  -6.282183e-03  0 
 6.885252e-03  -6.250011e-03  0 
 7.155626e-03  -6.211975e-03  0 
 3.353058e-03  -4.380110e-03  0 
 3.402660e-03  -4.590112e-03  0 
 3.553537e-03  -4.729930e-03  0 
 3.757018e-03  -4.834526e-03  0 
 3.999586e-03  -4.912689e-03  0 
 4.272067e-03  -4.966621e-03  0 
 4.563289e-03  -5.005232e-03  0 
 4.872063e-03  -5.034552e-03  0 
 3.686612e-03  -4.432127e-03  0 
 3.731715e-03  -4.654936e-03  0 
 3.859473e-03  -4.836855e-03  0 
 4.046751e-03  -4.983198e-03  0 
 4.271841e-03  -5.104493e-03  0 
 4.523157e-03  -5.205663e-03  0 
 4.794059e-03  -5.291416e-03  0 
 5.086720e-03  -5.371163e-03  0 
 3.915970e-03  -4.567235e-03  0 
 4.016151e-03  -4.756348e-03  0 
 4.159929e-03  -4.946850e-03  0 
 4.347326e-03  -5.119640e-03  0 
 4.565660e-03  -5.272507e-03  0 
 4.803195e-03  -5.407641e-03  0 
 5.053494e-03  -5.526996e-03  0 
 5.308245e-03  -5.626775e-03  0 
 4.076604e-03  -4.742145e-03  0 
 4.250287e-03  -4.901035e-03  0 
 4.439305e-03  -5.079982e-03  0 
 4.648328e-03  -5.258369e-03  0 
 4.871903e-03  -5.425174e-03  0 
 5.101583e-03  -5.577409e-03  0 
 5.329274e-03  -5.712248e-03  0 
 5.546178e-03  -5.823097e-03  0 
 4.211584e-03  -4.933055e-03  0 
 4.451396e-03  -5.078792e-03  0 
 4.696203e-03  -5.243808e-03  0 
 4.940139e-03  -5.411285e-03  0 
 5.180086e-03  -5.571003e-03  0 
 5.409940e-03  -5.720624e-03  0 
 5.621203e-03  -5.857709e-03  0 
 5.806989e-03  -5.974771e-03  0 
 4.331645e-03  -5.142988e-03  0 
 4.641437e-03  -5.288080e-03  0 
 4.937248e-03  -5.440750e-03  0 
 5.215880e-03  -5.584745e-03  0 
 5.479003e-03  -5.718449e-03  0 
 5.722273e-03  -5.845757e-03  0 
 5.931614e-03  -5.970803e-03  0 
 6.095949e-03  -6.088547e-03  0 
 4.470177e-03  -5.381592e-03  0 
 4.837534e-03  -5.537330e-03  0 
 5.165308e-03  -5.669916e-03  0 
 5.468530e-03  -5.779911e-03  0 
 5.758431e-03  -5.876859e-03  0 
 6.028751e-03  -5.967075e-03  0 
 6.260186e-03  -6.056913e-03  0 
 6.421442e-03  -6.161456e-03  0 
 4.656176e-03  -5.683180e-03  0 
 5.044548e-03  -5.822662e-03  0 
 5.372698e-03  -5.919398e-03  0 
 5.692934e-03  -5.995112e-03  0 
 6.012933e-03  -6.059161e-03  0 
 6.316928e-03  -6.105339e-03  0 
 6.585750e-03  -6.139255e-03  0 
 6.794856e-03  -6.179978e-03  0 
VECTORS displacement_ITER8 FLOAT
 3.125987e-03  -4.231480e-03  0 
 4.912744e-03  -4.652655e-03  0 
 4.311496e-03  -5.968966e-03  0 
 7.467712e-03  -6.270862e-03  0 
 2.905428e-03  -4.352044e-03  0 
 2.999543e-03  -4.446688e-03  0 
 3.238905e-03  -4.523797e-03  0 
 3.493346e-03  -4.580844e-03  0 
 3.797353e-03  -4.603953e-03  0 
 4.088759e-03  -4.631975e-03  0 
 4.388959e-03  -4.660698e-03  0 
 4.646459e-03  -4.670357e-03  0 
 3.452678e-03  -4.058964e-03  0 
 3.662492e-03  -4.158079e-03  0 
 3.764273e-03  -4.366023e-03  0 
 3.849511e-03  -4.572542e-03  0 
 3.917612e-03  -4.797268e-03  0 
 3.978926e-03  -5.022134e-03  0 
 4.039639e-03  -5.260396e-03  0 
 4.164180e-03  -5.569758e-03  0 
 5.165490e-03  -5.062670e-03  0 
 5.347919e-03  -5.380005e-03  0 
 5.526294e-03  -5.636823e-03  0 
 5.722386e-03  -5.841943e-03  0 
 5.945583e-03  -6.003995e-03  0 
 6.202855e-03  -6.128853e-03  0 
 6.506092e-03  -6.218758e-03  0 
 6.888261e-03  -6.274508e-03  0 
 4.799968e-03  -6.050580e-03  0 
 5.212385e-03  -6.115056e-03  0 
 5.551827e-03  -6.148471e-03  0 
 5.859139e-03  -6.184537e-03  0 
 6.186838e-03  -6.206667e-03  0 
 6.479786e-03  -6.230634e-03  0 
 6.796371e-03  -6.255926e-03  0 
 7.125774e-03  -6.276616e-03  0 
 3.310596e-03  -4.330095e-03  0 
 3.356828e-03  -4.536019e-03  0 
 3.526393e-03  -4.676901e-03  0 
 3.756634e-03  -4.777935e-03  0 
 4.018422e-03  -4.856560e-03  0 
 4.297048e-03  -4.916341e-03  0 
 4.571059e-03  -4.962616e-03  0 
 4.842862e-03  -5.001702e-03  0 
 3.637638e-03  -4.381673e-03  0 
 3.691759e-03  -4.607351e-03  0 
 3.833790e-03  -4.794036e-03  0 
 4.038108e-03  -4.941185e-03  0 
 4.277194e-03  -5.059338e-03  0 
 4.531941e-03  -5.155573e-03  0 
 4.792720e-03  -5.236837e-03  0 
 5.064507e-03  -5.315108e-03  0 
 3.865824e-03  -4.519797e-03  0 
 3.979522e-03  -4.716969e-03  0 
 4.135326e-03  -4.912312e-03  0 
 4.333354e-03  -5.085283e-03  0 
 4.559219e-03  -5.232902e-03  0 
 4.798517e-03  -5.359365e-03  0 
 5.043706e-03  -5.470356e-03  0 
 5.289164e-03  -5.565695e-03  0 
 4.031223e-03  -4.705932e-03  0 
 4.217508e-03  -4.871828e-03  0 
 4.415069e-03  -5.054053e-03  0 
 4.629292e-03  -5.230489e-03  0 
 4.855794e-03  -5.390290e-03  0 
 5.086338e-03  -5.532568e-03  0 
 5.312755e-03  -5.658072e-03  0 
 5.527364e-03  -5.763595e-03  0 
 4.171259e-03  -4.912298e-03  0 
 4.423497e-03  -5.061368e-03  0 
 4.672069e-03  -5.226404e-03  0 
 4.915659e-03  -5.389799e-03  0 
 5.154741e-03  -5.541699e-03  0 
 5.384846e-03  -5.680579e-03  0 
 5.597910e-03  -5.807060e-03  0 