# vtk DataFile Version 3.1
this is an vtk file created by FEMAC
ASCII
DATASET UNSTRUCTURED_GRID
POINTS 100 FLOAT
2.000000 0.000000 0.000000
3.000000 0.000000 0.000000
2.000000 1.000000 0.000000
3.000000 1.000000 0.000000
2.111111 0.000000 0.000000
2.222222 0.000000 0.000000
2.333333 0.000000 0.000000
2.444444 0.000000 0.000000
2.555556 0.000000 0.000000
2.666667 0.000000 0.000000
2.777778 0.000000 0.000000
2.888889 0.000000 0.000000
2.000000 0.111111 0.000000
2.000000 0.222222 0.000000
2.000000 0.333333 0.000000
2.000000 0.444444 0.000000
2.000000 0.555556 0.000000
2.000000 0.666667 0.000000
2.000000 0.777778 0.000000
2.000000 0.888889 0.000000
2.111111 1.000000 0.000000
2.222222 1.000000 0.000000
2.333333 1.000000 0.000000
2.444444 1.000000 0.000000
2.555556 1.000000 0.000000
2.666667 1.000000 0.000000
2.777778 1.000000 0.000000
2.888889 1.000000 0.000000
3.000000 0.111111 0.000000
3.000000 0.222222 0.000000
3.000000 0.333333 0.000000
3.000000 0.444444 0.000000
3.000000 0.555556 0.000000
3.000000 0.666667 0.000000
3.000000 0.777778 0.000000
3.000000 0.888889 0.000000
2.111111 0.111111 0.000000
2.111111 0.222222 0.000000
2.111111 0.333333 0.000000
2.111111 0.444444 0.000000
2.111111 0.555556 0.000000
2.111111 0.666667 0.000000
2.111111 0.777778 0.000000
2.111111 0.888889 0.000000
2.222222 0.111111 0.000000
2.222222 0.222222 0.000000
2.222222 0.333333 0.000000
2.222222 0.444444 0.000000
2.222222 0.555556 0.000000
2.222222 0.666667 0.000000
2.222222 0.777778 0.000000
2.222222 0.888889 0.000000
2.333333 0.111111 0.000000
2.333333 0.222222 0.000000
2.333333 0.333333 0.000000
2.333333 0.444444 0.000000
2.333333 0.555556 0.000000
2.333333 0.666667 0.000000
2.333333 0.777778 0.000000
2.333333 0.888889 0.000000
2.444444 0.111111 0.000000
2.444444 0.222222 0.000000
2.444444 0.333333 0.000000
2.444444 0.444444 0.000000
2.444444 0.555556 0.000000
2.444444 0.666667 0.000000
2.444444 0.777778 0.000000
2.444444 0.888889 0.000000
2.555556 0.111111 0.000000
2.555556 0.222222 0.000000
2.555556 0.333333 0.000000
2.555556 0.444444 0.000000
2.555556 0.555556 0.000000
2.555556 0.666667 0.000000
2.555556 0.777778 0.000000
2.555556 0.888889 0.000000
2.666667 0.111111 0.000000
2.666667 0.222222 0.000000
2.666667 0.333333 0.000000
2.666667 0.444444 0.000000
2.666667 0.555556 0.000000
2.666667 0.666667 0.000000
2.666667 0.777778 0.000000
2.666667 0.888889 0.000000
2.777778 0.111111 0.000000
2.777778 0.222222 0.000000
2.777778 0.333333 0.000000
2.777778 0.444444 0.000000
2.777778 0.555556 0.000000
2.777778 0.666667 0.000000
2.777778 0.777778 0.000000
2.777778 0.888889 0.000000
2.888889 0.111111 0.000000
2.888889 0.222222 0.000000
2.888889 0.333333 0.000000
2.888889 0.444444 0.000000
2.888889 0.555556 0.000000
2.888889 0.666667 0.000000
2.888889 0.777778 0.000000
2.888889 0.888889 0.000000
CELLS 81 405 
4 0  4 36 12
4 12 36 37 13
4 13 37 38 14
4 14 38 39 15
4 15 39 40 16
4 16 40 41 17
4 17 41 42 18
4 18 42 43 19
4 19 43 20  2
4 4  5 44 36
4 36 44 45 37
4 37 45 46 38
4 38 46 47 39
4 39 47 48 40
4 40 48 49 41
4 41 49 50 42
4 42 50 51 43
4 43 51 21 20
4 5  6 52 44
4 44 52 53 45
4 45 53 54 46
4 46 54 55 47
4 47 55 56 48
4 48 56 57 49
4 49 57 58 50
4 50 58 59 51
4 51 59 22 21
4 6  7 60 52
4 52 60 61 53
4 53 61 62 54
4 54 62 63 55
4 55 63 64 56
4 56 64 65 57
4 57 65 66 58
4 58 66 67 59
4 59 67 23 22
4 7  8 68 60
4 60 68 69 61
4 61 69 70 62
4 62 70 71 63
4 63 71 72 64
4 64 72 73 65
4 65 73 74 66
4 66 74 75 67
4 67 75 24 23
4 8  9 76 68
4 68 76 77 69
4 69 77 78 70
4 70 78 79 71
4 71 79 80 72
4 72 80 81 73
4 73 81 82 74
4 74 82 83 75
4 75 83 25 24
4 9 10 84 76
4 76 84 85 77
4 77 85 86 78
4 78 86 87 79
4 79 87 88 80
4 80 88 89 81
4 81 89 90 82
4 82 90 91 83
4 83 91 26 25
4 10 11 92 84
4 84 92 93 85
4 85 93 94 86
4 86 94 95 87
4 87 95 96 88
4 88 96 97 89
4 89 97 98 90
4 90 98 99 91
4 91 99 27 26
4 11  1 28 92
4 92 28 29 93
4 93 29 30 94
4 94 30 31 95
4 95 31 32 96
4 96 32 33 97
4 97 33 34 98
4 98 34 35 99
4 99 35  3 27
CELL_TYPES 81
9 9 9 9 9 9 9 9 9 9 9 9 9 9 9 9 9 9 9 9 9 9 9 9 9 9 9 9 9 9 9 9 9 9 9 9 9 9 9 9 9 9 9 9 9 9 9 9 9 9 9 9 9 9 9 9 9 9 9 9 9 9 9 9 9 9 9 9 9 9 9 9 9 9 9 9 9 9 9 9 9 
POINT_DATA 100
VECTORS displacement_ITER1 FLOAT
 -9.478161e-03  -4.822820e-03  0 
 -9.516848e-03  -9.224427e-03  0 
 -4.722601e-03  -4.524410e-03  0 
 -5.516343e-03  -9.046490e-03  0 
 -9.490144e-03  -5.304963e-03  0 
 -9.499964e-03  -5.792545e-03  0 
 -9.506611e-03  -6.282461e-03  0 
 -9.510386e-03  -6.773387e-03  0 
 -9.512511e-03  -7.264669e-03  0 
 -9.514611e-03  -7.756499e-03  0 
 -9.517739e-03  -8.249813e-03  0 
 -9.520204e-03  -8.744497e-03  0 
 -8.997123e-03  -4.817328e-03  0 
 -8.510814e-03  -4.809251e-03  0 
 -8.023070e-03  -4.796662e-03  0 
 -7.529616e-03  -4.780168e-03  0 
 -7.033313e-03  -4.752021e-03  0 
 -6.521434e-03  -4.709812e-03  0 
 -5.986531e-03  -4.660361e-03  0 
 -5.421073e-03  -4.593420e-03  0 
 -4.848703e-03  -5.178033e-03  0 
 -4.928049e-03  -5.734969e-03  0 
 -4.993958e-03  -6.271300e-03  0 
 -5.051474e-03  -6.783961e-03  0 
 -5.111410e-03  -7.286867e-03  0 
 -5.179823e-03  -7.770434e-03  0 
 -5.256823e-03  -8.234975e-03  0 
 -5.347602e-03  -8.692462e-03  0 
 -9.035846e-03  -9.237454e-03  0 
 -8.534892e-03  -9.237904e-03  0 
 -8.036319e-03  -9.224180e-03  0 
 -7.549690e-03  -9.205784e-03  0 
 -7.074400e-03  -9.186474e-03  0 
 -6.611503e-03  -9.162890e-03  0 
 -6.167773e-03  -9.128448e-03  0 
 -5.754996e-03  -9.086320e-03  0 
 -9.005235e-03  -5.301690e-03  0 
 -8.519835e-03  -5.296761e-03  0 
 -8.032326e-03  -5.288906e-03  0 
 -7.542151e-03  -5.276533e-03  0 
 -7.046125e-03  -5.259571e-03  0 
 -6.536931e-03  -5.239025e-03  0 
 -6.007629e-03  -5.215593e-03  0 
 -5.441523e-03  -5.199974e-03  0 
 -9.012340e-03  -5.790197e-03  0 
 -8.526062e-03  -5.787715e-03  0 
 -8.039246e-03  -5.784072e-03  0 
 -7.549697e-03  -5.778970e-03  0 
 -7.053746e-03  -5.772988e-03  0 
 -6.546451e-03  -5.766908e-03  0 
 -6.021158e-03  -5.762454e-03  0 
 -5.478070e-03  -5.755213e-03  0 
 -9.017328e-03  -6.281188e-03  0 
 -8.529779e-03  -6.280602e-03  0 
 -8.042396e-03  -6.280932e-03  0 
 -7.552925e-03  -6.282299e-03  0 
 -7.058332e-03  -6.284719e-03  0 
 -6.555000e-03  -6.287811e-03  0 
 -6.041101e-03  -6.288992e-03  0 
 -5.518945e-03  -6.283668e-03  0 
 -9.020035e-03  -6.772925e-03  0 
 -8.530954e-03  -6.773789e-03  0 
 -8.042417e-03  -6.776870e-03  0 
 -7.553236e-03  -6.782506e-03  0 
 -7.061700e-03  -6.790108e-03  0 
 -6.566096e-03  -6.797444e-03  0 
 -6.065706e-03  -6.800840e-03  0 
 -5.560715e-03  -6.796882e-03  0 
 -9.021143e-03  -7.264530e-03  0 
 -8.530346e-03  -7.265917e-03  0 
 -8.040477e-03  -7.269879e-03  0 
 -7.551731e-03  -7.276897e-03  0 
 -7.064414e-03  -7.286368e-03  0 
 -6.578374e-03  -7.295655e-03  0 
 -6.092229e-03  -7.300561e-03  0 
 -5.604209e-03  -7.297780e-03  0 
 -9.021834e-03  -7.756005e-03  0 
 -8.529244e-03  -7.756611e-03  0 
 -8.037958e-03  -7.759336e-03  0 
 -7.549361e-03  -7.764722e-03  0 
 -7.065652e-03  -7.772401e-03  0 
 -6.589110e-03  -7.781374e-03  0 
 -6.118879e-03  -7.787625e-03  0 
 -5.649978e-03  -7.785011e-03  0 
 -9.023531e-03  -8.248217e-03  0 
 -8.529227e-03  -8.246401e-03  0 
 -8.035976e-03  -8.246289e-03  0 
 -7.547214e-03  -8.247442e-03  0 
 -7.066066e-03  -8.249029e-03  0 
 -6.595780e-03  -8.251918e-03  0 
 -6.141747e-03  -8.257814e-03  0 
 -5.699906e-03  -8.256771e-03  0 
 -9.028576e-03  -8.741369e-03  0 
 -8.531198e-03  -8.737571e-03  0 
 -8.034876e-03  -8.733513e-03  0 
 -7.546733e-03  -8.727439e-03  0 
 -7.068375e-03  -8.719220e-03  0 
 -6.601551e-03  -8.709526e-03  0 
 -6.153366e-03  -8.701098e-03  0 
 -5.745250e-03  -8.704739e-03  0 
VECTORS displacement_ITER2 FLOAT
 -7.300380e-03  -3.832996e-03  0 
 -7.324335e-03  -7.205112e-03  0 
 -3.441641e-03  -3.439884e-03  0 
 -4.432580e-03  -6.979739e-03  0 
 -7.311533e-03  -4.197436e-03  0 
 -7.321360e-03  -4.569576e-03  0 
 -7.327377e-03  -4.945308e-03  0 
 -7.329747e-03  -5.322718e-03  0 
 -7.329789e-03  -5.700684e-03  0 
 -7.329217e-03  -6.078893e-03  0 
 -7.329236e-03  -6.457647e-03  0 
 -7.328936e-03  -6.836607e-03  0 
 -6.934049e-03  -3.825099e-03  0 
 -6.564595e-03  -3.815744e-03  0 
 -6.191856e-03  -3.801276e-03  0 
 -5.814057e-03  -3.781942e-03  0 
 -5.430698e-03  -3.752312e-03  0 
 -5.028666e-03  -3.704473e-03  0 
 -4.597645e-03  -3.641555e-03  0 
 -4.115553e-03  -3.545106e-03  0 
 -3.614513e-03  -4.060622e-03  0 
 -3.732727e-03  -4.524544e-03  0 
 -3.820181e-03  -4.945682e-03  0 
 -3.891889e-03  -5.343094e-03  0 
 -3.958066e-03  -5.728666e-03  0 
 -4.028562e-03  -6.101481e-03  0 
 -4.109781e-03  -6.452390e-03  0 
 -4.226317e-03  -6.779125e-03  0 
 -6.958103e-03  -7.212221e-03  0 
 -6.573357e-03  -7.214208e-03  0 
 -6.192106e-03  -7.205337e-03  0 
 -5.819484e-03  -7.189088e-03  0 
 -5.455294e-03  -7.167381e-03  0 
 -5.103217e-03  -7.136991e-03  0 
 -4.777899e-03  -7.095088e-03  0 
 -4.501089e-03  -7.033620e-03  0 
 -6.942642e-03  -4.193941e-03  0 
 -6.572533e-03  -4.188195e-03  0 
 -6.200303e-03  -4.179510e-03  0 
 -5.824358e-03  -4.166301e-03  0 
 -5.441300e-03  -4.148094e-03  0 
 -5.042805e-03  -4.125302e-03  0 
 -4.618059e-03  -4.098957e-03  0 
 -4.140321e-03  -4.083780e-03  0 
 -6.948686e-03  -4.567401e-03  0 
 -6.577405e-03  -4.565133e-03  0 
 -6.205214e-03  -4.561725e-03  0 
 -5.829622e-03  -4.557045e-03  0 
 -5.446314e-03  -4.551749e-03  0 
 -5.048908e-03  -4.547301e-03  0 
 -4.627789e-03  -4.546861e-03  0 
 -4.181989e-03  -4.544782e-03  0 
 -6.952190e-03  -4.944461e-03  0 
 -6.579029e-03  -4.944564e-03  0 
 -6.205862e-03  -4.945920e-03  0 
 -5.829981e-03  -4.948827e-03  0 
 -5.447631e-03  -4.953635e-03  0 
 -5.054092e-03  -4.960314e-03  0 
 -4.647245e-03  -4.965658e-03  0 
 -4.232412e-03  -4.962164e-03  0 
 -6.953022e-03  -5.322854e-03  0 
 -6.577831e-03  -5.324571e-03  0 
 -6.203072e-03  -5.329012e-03  0 
 -5.827198e-03  -5.336797e-03  0 
 -5.448100e-03  -5.347449e-03  0 
 -5.063879e-03  -5.358194e-03  0 
 -4.674661e-03  -5.363783e-03  0 
 -4.282785e-03  -5.359077e-03  0 
 -6.952017e-03  -5.701241e-03  0 
 -6.574904e-03  -5.703424e-03  0 
 -6.198489e-03  -5.708597e-03  0 
 -5.822924e-03  -5.717566e-03  0 
 -5.448761e-03  -5.729741e-03  0 
 -5.076344e-03  -5.741719e-03  0 
 -4.704826e-03  -5.747777e-03  0 
 -4.332893e-03  -5.743510e-03  0 
 -6.950558e-03  -6.079195e-03  0 
 -6.571893e-03  -6.080480e-03  0 
 -6.194023e-03  -6.083924e-03  0 
 -5.818527e-03  -6.090360e-03  0 
 -5.448369e-03  -6.099711e-03  0 
 -5.087044e-03  -6.110830e-03  0 
 -4.734190e-03  -6.118687e-03  0 
 -4.383365e-03  -6.115857e-03  0 
 -6.950095e-03  -6.457059e-03  0 
 -6.570535e-03  -6.456133e-03  0 
 -6.191250e-03  -6.456280e-03  0 
 -5.815376e-03  -6.457406e-03  0 
 -5.447277e-03  -6.459197e-03  0 
 -5.092117e-03  -6.463010e-03  0 
 -4.757258e-03  -6.471198e-03  0 
 -4.437192e-03  -6.472609e-03  0 
 -6.952457e-03  -6.834777e-03  0 
 -6.571688e-03  -6.831986e-03  0 
 -6.190479e-03  -6.828912e-03  0 
 -5.815191e-03  -6.822635e-03  0 
 -5.448523e-03  -6.812864e-03  0 
 -5.095369e-03  -6.801524e-03  0 
 -4.765795e-03  -6.791971e-03  0 
 -4.486779e-03  -6.797186e-03  0 
VECTORS displacement_ITER3 FLOAT
 -6.569223e-03  -3.332811e-03  0 
 -6.588548e-03  -6.609952e-03  0 
 -2.748727e-03  -2.900256e-03  0 
 -3.836850e-03  -6.345287e-03  0 
 -6.581025e-03  -3.685090e-03  0 
 -6.589858e-03  -4.047055e-03  0 
 -6.594475e-03  -4.412345e-03  0 
 -6.595513e-03  -4.779030e-03  0 
 -6.594349e-03  -5.146156e-03  0 
 -6.592670e-03  -5.513410e-03  0 
 -6.591738e-03  -5.880948e-03  0 
 -6.591247e-03  -6.248645e-03  0 
 -6.216569e-03  -3.323987e-03  0 
 -5.856671e-03  -3.314584e-03  0 
 -5.492818e-03  -3.301151e-03  0 
 -5.125304e-03  -3.281400e-03  0 
 -4.752324e-03  -3.250657e-03  0 
 -4.363306e-03  -3.202731e-03  0 
 -3.943590e-03  -3.133630e-03  0 
 -3.459341e-03  -3.027410e-03  0 
 -2.947755e-03  -3.549497e-03  0 
 -3.083317e-03  -4.013880e-03  0 
 -3.178423e-03  -4.423046e-03  0 
 -3.255034e-03  -4.807457e-03  0 
 -3.324653e-03  -5.179860e-03  0 
 -3.399198e-03  -5.539350e-03  0 
 -3.486285e-03  -5.878893e-03  0 
 -3.615567e-03  -6.182803e-03  0 
 -6.228622e-03  -6.614074e-03  0 
 -5.856765e-03  -6.614457e-03  0 
 -5.487773e-03  -6.607195e-03  0 
 -5.125300e-03  -6.592037e-03  0 
 -4.770635e-03  -6.567749e-03  0 
 -4.429766e-03  -6.531975e-03  0 
 -4.118324e-03  -6.482151e-03  0 
 -3.864022e-03  -6.409513e-03  0 
 -6.223034e-03  -3.682264e-03  0 
 -5.863273e-03  -3.677423e-03  0 
 -5.501205e-03  -3.668967e-03  0 
 -5.135882e-03  -3.655626e-03  0 
 -4.763775e-03  -3.636883e-03  0 
 -4.376719e-03  -3.613144e-03  0 
 -3.960867e-03  -3.587210e-03  0 
 -3.483741e-03  -3.573757e-03  0 
 -6.227600e-03  -4.045388e-03  0 
 -5.866977e-03  -4.043730e-03  0 
 -5.505544e-03  -4.040776e-03  0 
 -5.140818e-03  -4.036354e-03  0 
 -4.768412e-03  -4.031364e-03  0 
 -4.381046e-03  -4.028047e-03  0 
 -3.967598e-03  -4.030387e-03  0 
 -3.526500e-03  -4.032064e-03  0 
 -6.229898e-03  -4.411908e-03  0 
 -5.867453e-03  -4.412468e-03  0 
 -5.505150e-03  -4.414402e-03  0 
 -5.140159e-03  -4.418097e-03  0 
 -4.768377e-03  -4.424183e-03  0 
 -4.384505e-03  -4.432927e-03  0 
 -3.986190e-03  -4.440898e-03  0 
 -3.579866e-03  -4.439364e-03  0 
 -6.229534e-03  -4.779534e-03  0 
 -5.865054e-03  -4.781666e-03  0 
 -5.501030e-03  -4.786752e-03  0 
 -5.135879e-03  -4.795635e-03  0 
 -4.767353e-03  -4.807977e-03  0 
 -4.393440e-03  -4.820790e-03  0 
 -4.014468e-03  -4.828086e-03  0 
 -3.633487e-03  -4.823945e-03  0 
 -6.227400e-03  -5.147039e-03  0 
 -5.860951e-03  -5.149573e-03  0 
 -5.495068e-03  -5.155300e-03  0 
 -5.130048e-03  -5.165240e-03  0 
 -4.766681e-03  -5.178908e-03  0 
 -4.405604e-03  -5.192643e-03  0 
 -4.046122e-03  -5.199971e-03  0 
 -3.686691e-03  -5.195669e-03  0 
 -6.224972e-03  -5.514021e-03  0 
 -5.856964e-03  -5.515606e-03  0 
 -5.489487e-03  -5.519349e-03  0 
 -5.124380e-03  -5.526186e-03  0 
 -4.765063e-03  -5.536299e-03  0 
 -4.415759e-03  -5.548661e-03  0 
 -4.076587e-03  -5.557841e-03  0 
 -3.740427e-03  -5.555408e-03  0 
 -6.223666e-03  -5.880758e-03  0 
 -5.854869e-03  -5.880300e-03  0 
 -5.486171e-03  -5.880420e-03  0 
 -5.120584e-03  -5.881142e-03  0 
 -4.762919e-03  -5.882601e-03  0 
 -4.419606e-03  -5.886454e-03  0 
 -4.099458e-03  -5.895429e-03  0 
 -3.797055e-03  -5.898081e-03  0 
 -6.224798e-03  -6.247381e-03  0 
 -5.855401e-03  -6.245169e-03  0 
 -5.485726e-03  -6.241855e-03  0 
 -5.120519e-03  -6.234858e-03  0 
 -4.763590e-03  -6.223709e-03  0 
 -4.421624e-03  -6.210107e-03  0 
 -4.106524e-03  -6.198276e-03  0 
 -3.848202e-03  -6.202851e-03  0 
VECTORS displacement_ITER4 FLOAT
 -6.383495e-03  -3.227979e-03  0 
 -6.401343e-03  -6.487446e-03  0 
 -2.574254e-03  -2.792066e-03  0 
 -3.675556e-03  -6.216825e-03  0 
 -6.394813e-03  -3.579441e-03  0 
 -6.403164e-03  -3.939352e-03  0 
 -6.407357e-03  -4.302407e-03  0 
 -6.407943e-03  -4.666730e-03  0 
 -6.406242e-03  -5.031321e-03  0 
 -6.403912e-03  -5.395761e-03  0 
 -6.402314e-03  -5.760084e-03  0 
 -6.401804e-03  -6.124430e-03  0 
 -6.032652e-03  -3.220704e-03  0 
 -5.674909e-03  -3.211622e-03  0 
 -5.313324e-03  -3.198405e-03  0 
 -4.947795e-03  -3.178027e-03  0 
 -4.575037e-03  -3.146924e-03  0 
 -4.188498e-03  -3.100551e-03  0 
 -3.773870e-03  -3.030988e-03  0 
 -3.293039e-03  -2.925517e-03  0 
 -2.782396e-03  -3.446700e-03  0 
 -2.919763e-03  -3.907160e-03  0 
 -3.014256e-03  -4.311473e-03  0 
 -3.089566e-03  -4.693366e-03  0 
 -3.158135e-03  -5.062367e-03  0 
 -3.231623e-03  -5.420095e-03  0 
 -3.320106e-03  -5.761211e-03  0 
 -3.451898e-03  -6.062165e-03  0 
 -6.039025e-03  -6.487702e-03  0 
 -5.673517e-03  -6.486097e-03  0 
 -5.309526e-03  -6.479404e-03  0 
 -4.949032e-03  -6.466386e-03  0 
 -4.595911e-03  -6.444297e-03  0 
 -4.257218e-03  -6.409698e-03  0 
 -3.946697e-03  -6.359032e-03  0 
 -3.695557e-03  -6.284228e-03  0 
 -6.038673e-03  -3.576684e-03  0 
 -5.681194e-03  -3.572092e-03  0 
 -5.321392e-03  -3.563709e-03  0 
 -4.957964e-03  -3.550527e-03  0 
 -4.587413e-03  -3.531746e-03  0 
 -4.202862e-03  -3.507542e-03  0 
 -3.790338e-03  -3.482027e-03  0 
 -3.315944e-03  -3.469866e-03  0 
 -6.043058e-03  -3.937773e-03  0 
 -5.684649e-03  -3.936150e-03  0 
 -5.325439e-03  -3.933297e-03  0 
 -4.962820e-03  -3.928905e-03  0 
 -4.592586e-03  -3.923690e-03  0 
 -4.207549e-03  -3.920102e-03  0 
 -3.796608e-03  -3.922576e-03  0 
 -3.358402e-03  -3.924791e-03  0 
 -6.045089e-03  -4.302065e-03  0 
 -5.684956e-03  -4.302665e-03  0 
 -5.324959e-03  -4.304585e-03  0 
 -4.962288e-03  -4.308166e-03  0 
 -4.592819e-03  -4.314009e-03  0 
 -4.211218e-03  -4.322450e-03  0 
 -3.815273e-03  -4.330138e-03  0 
 -3.411877e-03  -4.328295e-03  0 
 -6.044431e-03  -4.667345e-03  0 
 -5.682436e-03  -4.669501e-03  0 
 -5.320883e-03  -4.674514e-03  0 
 -4.958186e-03  -4.683229e-03  0 
 -4.592078e-03  -4.695313e-03  0 
 -4.220519e-03  -4.707746e-03  0 
 -3.843860e-03  -4.714460e-03  0 
 -3.465357e-03  -4.709707e-03  0 
 -6.041990e-03  -5.032337e-03  0 
 -5.678245e-03  -5.034910e-03  0 
 -5.315012e-03  -5.040570e-03  0 
 -4.952578e-03  -5.050327e-03  0 
 -4.591735e-03  -5.063734e-03  0 
 -4.233107e-03  -5.077164e-03  0 
 -3.875928e-03  -5.084052e-03  0 
 -3.518327e-03  -5.078995e-03  0 
 -6.039215e-03  -5.396562e-03  0 
 -5.674146e-03  -5.398297e-03  0 
 -5.309546e-03  -5.402058e-03  0 
 -4.947216e-03  -5.408705e-03  0 
 -4.590450e-03  -5.418583e-03  0 
 -4.243504e-03  -5.430857e-03  0 
 -3.906625e-03  -5.440094e-03  0 
 -3.572529e-03  -5.437464e-03  0 
 -6.037427e-03  -5.760229e-03  0 
 -5.671764e-03  -5.760228e-03  0 
 -5.306416e-03  -5.760409e-03  0 
 -4.943904e-03  -5.760973e-03  0 
 -4.588625e-03  -5.762408e-03  0 
 -4.247263e-03  -5.766452e-03  0 
 -3.929188e-03  -5.775870e-03  0 
 -3.629194e-03  -5.779321e-03  0 
 -6.037401e-03  -6.123837e-03  0 
 -5.671855e-03  -6.122052e-03  0 
 -5.306523e-03  -6.118497e-03  0 
 -4.944381e-03  -6.111806e-03  0 
 -4.589474e-03  -6.101497e-03  0 
 -4.248988e-03  -6.088365e-03  0 
 -3.935476e-03  -6.076747e-03  0 
 -3.679747e-03  -6.081784e-03  0 
VECTORS displacement_ITER5 FLOAT
 -6.300143e-03  -3.159466e-03  0 
 -6.320844e-03  -6.389664e-03  0 
 -2.519069e-03  -2.718753e-03  0 
 -3.629265e-03  -6.110699e-03  0 
 -6.311262e-03  -3.507361e-03  0 
 -6.319616e-03  -3.863454e-03  0 
 -6.323861e-03  -4.222762e-03  0 
 -6.324491e-03  -4.583404e-03  0 
 -6.322846e-03  -4.944353e-03  0 
 -6.320647e-03  -5.305203e-03  0 
 -6.319369e-03  -5.666076e-03  0 
 -6.319629e-03  -6.027425e-03  0 
 -5.952815e-03  -3.152481e-03  0 
 -5.598577e-03  -3.143087e-03  0 
 -5.241359e-03  -3.129893e-03  0 
 -4.879827e-03  -3.109463e-03  0 
 -4.509978e-03  -3.078340e-03  0 
 -4.126604e-03  -3.032463e-03  0 
 -3.716061e-03  -2.962429e-03  0 
 -3.240248e-03  -2.856228e-03  0 
 -2.732325e-03  -3.376104e-03  0 
 -2.869807e-03  -3.830750e-03  0 
 -2.963820e-03  -4.230992e-03  0 
 -3.037966e-03  -4.609992e-03  0 
 -3.106009e-03  -4.976111e-03  0 
 -3.179138e-03  -5.330082e-03  0 
 -3.269744e-03  -5.668053e-03  0 
 -3.403337e-03  -5.965033e-03  0 
 -5.958327e-03  -6.388847e-03  0 
 -5.596831e-03  -6.385494e-03  0 
 -5.236387e-03  -6.377926e-03  0 
 -4.879090e-03  -6.364968e-03  0 
 -4.529619e-03  -6.343406e-03  0 
 -4.195027e-03  -6.309453e-03  0 
 -3.887791e-03  -6.257776e-03  0 
 -3.640893e-03  -6.181361e-03  0 
 -5.958857e-03  -3.504554e-03  0 
 -5.605158e-03  -3.499848e-03  0 
 -5.249173e-03  -3.491368e-03  0 
 -4.889445e-03  -3.478351e-03  0 
 -4.522283e-03  -3.459705e-03  0 
 -4.141279e-03  -3.435298e-03  0 
 -3.732723e-03  -3.409537e-03  0 
 -3.261997e-03  -3.397764e-03  0 
 -5.963280e-03  -3.861849e-03  0 
 -5.608608e-03  -3.860191e-03  0 
 -5.253075e-03  -3.857359e-03  0 
 -4.894062e-03  -3.853042e-03  0 
 -4.527434e-03  -3.847830e-03  0 
 -4.146032e-03  -3.844110e-03  0 
 -3.738668e-03  -3.846517e-03  0 
 -3.304031e-03  -3.848788e-03  0 
 -5.965302e-03  -4.222415e-03  0 
 -5.608850e-03  -4.223038e-03  0 
 -5.252490e-03  -4.225007e-03  0 
 -4.893444e-03  -4.228631e-03  0 
 -4.527607e-03  -4.234468e-03  0 
 -4.149603e-03  -4.242846e-03  0 
 -3.757209e-03  -4.250405e-03  0 
 -3.357495e-03  -4.248229e-03  0 
 -5.964630e-03  -4.584022e-03  0 
 -5.606262e-03  -4.586219e-03  0 
 -5.248320e-03  -4.591298e-03  0 
 -4.889242e-03  -4.600076e-03  0 
 -4.526773e-03  -4.612196e-03  0 
 -4.158840e-03  -4.624600e-03  0 
 -3.785756e-03  -4.631158e-03  0 
 -3.410765e-03  -4.626229e-03  0 
 -5.962184e-03  -4.945371e-03  0 
 -5.601996e-03  -4.948004e-03  0 
 -5.242322e-03  -4.953760e-03  0 
 -4.883487e-03  -4.963605e-03  0 
 -4.526295e-03  -4.977076e-03  0 
 -4.171346e-03  -4.990555e-03  0 
 -3.817756e-03  -4.997455e-03  0 
 -3.463339e-03  -4.992375e-03  0 
 -5.959419e-03  -5.305997e-03  0 
 -5.597770e-03  -5.307832e-03  0 
 -5.236670e-03  -5.311729e-03  0 
 -4.877950e-03  -5.318453e-03  0 
 -4.524836e-03  -5.328371e-03  0 
 -4.181549e-03  -5.340764e-03  0 
 -3.848323e-03  -5.350255e-03  0 
 -3.517659e-03  -5.347825e-03  0 
 -5.957635e-03  -5.666207e-03  0 
 -5.595138e-03  -5.666350e-03  0 
 -5.233289e-03  -5.666613e-03  0 
 -4.874499e-03  -5.667177e-03  0 
 -4.522858e-03  -5.668627e-03  0 
 -4.185032e-03  -5.672758e-03  0 
 -3.870618e-03  -5.682442e-03  0 
 -3.574640e-03  -5.686342e-03  0 
 -5.957437e-03  -6.026836e-03  0 
 -5.594873e-03  -6.025019e-03  0 
 -5.233260e-03  -6.021054e-03  0 
 -4.874830e-03  -6.014299e-03  0 
 -4.523613e-03  -6.004227e-03  0 
 -4.186591e-03  -5.991088e-03  0 
 -3.876566e-03  -5.979323e-03  0 
 -3.625212e-03  -5.984310e-03  0 
VECTORS displacement_ITER6 FLOAT
 -6.258532e-03  -3.187210e-03  0 
 -6.280113e-03  -6.385405e-03  0 
 -2.510952e-03  -2.746824e-03  0 
 -3.622429e-03  -6.102126e-03  0 
 -6.269103e-03  -3.531800e-03  0 
 -6.277263e-03  -3.884051e-03  0 
 -6.281438e-03  -4.239474e-03  0 
 -6.282023e-03  -4.596244e-03  0 
 -6.280352e-03  -4.953325e-03  0 
 -6.278180e-03  -5.310311e-03  0 
 -6.277074e-03  -5.667383e-03  0 
 -6.277852e-03  -6.025257e-03  0 
 -5.914117e-03  -3.180505e-03  0 
 -5.563638e-03  -3.171218e-03  0 
 -5.210630e-03  -3.158078e-03  0 
 -4.853243e-03  -3.137637e-03  0 
 -4.487270e-03  -3.106698e-03  0 
 -4.107395e-03  -3.061345e-03  0 
 -3.700332e-03  -2.991917e-03  0 
 -3.230069e-03  -2.885608e-03  0 
 -2.726001e-03  -3.402344e-03  0 
 -2.862862e-03  -3.850649e-03  0 
 -2.956252e-03  -4.247165e-03  0 
 -3.030016e-03  -4.622864e-03  0 
 -3.098251e-03  -4.985907e-03  0 
 -3.170981e-03  -5.336307e-03  0 
 -3.261929e-03  -5.669845e-03  0 
 -3.395740e-03  -5.962580e-03  0 
 -5.919281e-03  -6.383788e-03  0 
 -5.561105e-03  -6.379603e-03  0 
 -5.204580e-03  -6.371846e-03  0 
 -4.851809e-03  -6.358528e-03  0 
 -4.506693e-03  -6.336640e-03  0 
 -4.175758e-03  -6.303016e-03  0 
 -3.871739e-03  -6.251485e-03  0 
 -3.628396e-03  -6.174815e-03  0 
 -5.920323e-03  -3.528968e-03  0 
 -5.570394e-03  -3.524157e-03  0 
 -5.218377e-03  -3.515664e-03  0 
 -4.862601e-03  -3.502780e-03  0 
 -4.499215e-03  -3.484380e-03  0 
 -4.121907e-03  -3.460203e-03  0 
 -3.717401e-03  -3.434377e-03  0 
 -3.250898e-03  -3.422829e-03  0 
 -5.924766e-03  -3.882442e-03  0 
 -5.573910e-03  -3.880733e-03  0 
 -5.222217e-03  -3.877904e-03  0 
 -4.867044e-03  -3.873691e-03  0 
 -4.504243e-03  -3.868613e-03  0 
 -4.126735e-03  -3.864917e-03  0 
 -3.723316e-03  -3.867254e-03  0 
 -3.292653e-03  -3.869362e-03  0 
 -5.926744e-03  -4.239138e-03  0 
 -5.574126e-03  -4.239769e-03  0 
 -5.221579e-03  -4.241766e-03  0 
 -4.866357e-03  -4.245448e-03  0 
 -4.504397e-03  -4.251334e-03  0 
 -4.130330e-03  -4.259711e-03  0 
 -3.741909e-03  -4.267173e-03  0 
 -3.346194e-03  -4.264688e-03  0 
 -5.926020e-03  -4.596878e-03  0 
 -5.571484e-03  -4.599104e-03  0 
 -5.217355e-03  -4.604224e-03  0 
 -4.862110e-03  -4.613042e-03  0 
 -4.503531e-03  -4.625188e-03  0 
 -4.139556e-03  -4.637592e-03  0 
 -3.770472e-03  -4.644116e-03  0 
 -3.399403e-03  -4.639177e-03  0 
 -5.923535e-03  -4.954357e-03  0 
 -5.567156e-03  -4.957034e-03  0 
 -5.211286e-03  -4.962849e-03  0 
 -4.856285e-03  -4.972734e-03  0 
 -4.502986e-03  -4.986217e-03  0 
 -4.151986e-03  -4.999709e-03  0 
 -3.802350e-03  -5.006683e-03  0 
 -3.451785e-03  -5.001802e-03  0 
 -5.920745e-03  -5.311117e-03  0 
 -5.562841e-03  -5.313032e-03  0 
 -5.205520e-03  -5.317023e-03  0 
 -4.850653e-03  -5.323780e-03  0 
 -4.501442e-03  -5.333674e-03  0 
 -4.162070e-03  -5.346061e-03  0 
 -3.832738e-03  -5.355669e-03  0 
 -3.505907e-03  -5.353519e-03  0 
 -5.918930e-03  -5.667523e-03  0 
 -5.560026e-03  -5.667804e-03  0 
 -5.201965e-03  -5.668167e-03  0 
 -4.847118e-03  -5.668721e-03  0 
 -4.499438e-03  -5.670078e-03  0 
 -4.165492e-03  -5.674122e-03  0 
 -3.854859e-03  -5.683872e-03  0 
 -3.562707e-03  -5.688060e-03  0 
 -5.918602e-03  -6.024625e-03  0 
 -5.559443e-03  -6.022864e-03  0 
 -5.201736e-03  -6.018847e-03  0 
 -4.847407e-03  -6.011991e-03  0 
 -4.500332e-03  -6.001743e-03  0 
 -4.167152e-03  -5.988457e-03  0 
 -3.860670e-03  -5.976714e-03  0 
 -3.613061e-03  -5.981743e-03  0 
VECTORS displacement_ITER7 FLOAT
 -6.239260e-03  -3.196299e-03  0 
 -6.260345e-03  -6.384538e-03  0 
 -2.503503e-03  -2.758979e-03  0 
 -3.611926e-03  -6.101512e-03  0 
 -6.249470e-03  -3.540441e-03  0 
 -6.257367e-03  -3.891588e-03  0 
 -6.261395e-03  -4.245755e-03  0 
 -6.261893e-03  -4.601216e-03  0 
 -6.260170e-03  -4.956960e-03  0 
 -6.257980e-03  -5.312590e-03  0 
 -6.256915e-03  -5.668313e-03  0 
 -6.257860e-03  -6.024960e-03  0 
 -5.895434e-03  -3.190128e-03  0 
 -5.546315e-03  -3.181424e-03  0 
 -5.194440e-03  -3.168379e-03  0 
 -4.838171e-03  -3.147799e-03  0 
 -4.473607e-03  -3.116917e-03  0 
 -4.095059e-03  -3.071776e-03  0 
 -3.689283e-03  -3.003506e-03  0 
 -3.221716e-03  -2.897700e-03  0 
 -2.719518e-03  -3.412511e-03  0 
 -2.855914e-03  -3.858045e-03  0 
 -2.948326e-03  -4.253403e-03  0 
 -3.021791e-03  -4.627644e-03  0 
 -3.090200e-03  -4.989061e-03  0 
 -3.162646e-03  -5.338455e-03  0 
 -3.252796e-03  -5.670565e-03  0 
 -3.385704e-03  -5.962516e-03  0 
 -5.900507e-03  -6.382192e-03  0 
 -5.543254e-03  -6.377845e-03  0 
 -5.188086e-03  -6.370266e-03  0 
 -4.837020e-03  -6.356771e-03  0 
 -4.493504e-03  -6.334768e-03  0 
 -4.163669e-03  -6.301405e-03  0 
 -3.860592e-03  -6.250576e-03  0 
 -3.617646e-03  -6.174365e-03  0 
 -5.901610e-03  -3.537655e-03  0 
 -5.552866e-03  -3.532947e-03  0 
 -5.202153e-03  -3.524585e-03  0 
 -4.847622e-03  -3.511732e-03  0 
 -4.485482e-03  -3.493400e-03  0 
 -4.109405e-03  -3.469485e-03  0 
 -3.706469e-03  -3.443826e-03  0 
 -3.241890e-03  -3.432639e-03  0 
 -5.906039e-03  -3.890004e-03  0 
 -5.556370e-03  -3.888290e-03  0 
 -5.205935e-03  -3.885490e-03  0 
 -4.852034e-03  -3.881330e-03  0 
 -4.490482e-03  -3.876317e-03  0 
 -4.114318e-03  -3.872648e-03  0 
 -3.712420e-03  -3.874987e-03  0 
 -3.283525e-03  -3.877015e-03  0 
 -5.907966e-03  -4.245437e-03  0 
 -5.556590e-03  -4.246061e-03  0 
 -5.205291e-03  -4.248050e-03  0 
 -4.851334e-03  -4.251735e-03  0 
 -4.490675e-03  -4.257608e-03  0 
 -4.117987e-03  -4.265934e-03  0 
 -3.731065e-03  -4.273304e-03  0 
 -3.336961e-03  -4.270713e-03  0 
 -5.907199e-03  -4.601863e-03  0 
 -5.553946e-03  -4.604087e-03  0 
 -5.201088e-03  -4.609188e-03  0 
 -4.847124e-03  -4.617967e-03  0 
 -4.489858e-03  -4.630046e-03  0 
 -4.127250e-03  -4.642361e-03  0 
 -3.759598e-03  -4.648812e-03  0 
 -3.389923e-03  -4.643896e-03  0 
 -5.904687e-03  -4.958001e-03  0 
 -5.549618e-03  -4.960683e-03  0 
 -5.195048e-03  -4.966485e-03  0 
 -4.841349e-03  -4.976321e-03  0 
 -4.489362e-03  -4.989715e-03  0 
 -4.139682e-03  -5.003098e-03  0 
 -3.791371e-03  -5.010006e-03  0 
 -3.442180e-03  -5.005136e-03  0 
 -5.901881e-03  -5.313404e-03  0 
 -5.545293e-03  -5.315339e-03  0 
 -5.189295e-03  -5.319337e-03  0 
 -4.835762e-03  -5.326062e-03  0 
 -4.487876e-03  -5.335875e-03  0 
 -4.149785e-03  -5.348141e-03  0 
 -3.821680e-03  -5.357628e-03  0 
 -3.496109e-03  -5.355420e-03  0 
 -5.900048e-03  -5.668459e-03  0 
 -5.542436e-03  -5.668782e-03  0 
 -5.185726e-03  -5.669166e-03  0 
 -4.832249e-03  -5.669716e-03  0 
 -4.485945e-03  -5.671023e-03  0 
 -4.153293e-03  -5.674963e-03  0 
 -3.843779e-03  -5.684593e-03  0 
 -3.552590e-03  -5.688721e-03  0 
 -5.899664e-03  -6.024298e-03  0 
 -5.541790e-03  -6.022500e-03  0 
 -5.185426e-03  -6.018530e-03  0 
 -4.832537e-03  -6.011689e-03  0 
 -4.486937e-03  -6.001377e-03  0 
 -4.155087e-03  -5.988110e-03  0 
 -3.849601e-03  -5.976445e-03  0 
 -3.602629e-03  -5.981538e-03  0 
VECTORS displacement_ITER8 FLOAT
 -6.237451e-03  -3.204368e-03  0 
 -6.258003e-03  -6.392987e-03  0 
 -2.503024e-03  -2.768997e-03  0 
 -3.606410e-03  -6.112185e-03  0 
 -6.247555e-03  -3.548820e-03  0 
 -6.255389e-03  -3.900015e-03  0 
 -6.259394e-03  -4.254192e-03  0 
 -6.259883e-03  -4.609663e-03  0 
 -6.258152e-03  -4.965420e-03  0 
 -6.255950e-03  -5.321070e-03  0 
 -6.254857e-03  -5.676820e-03  0 
 -6.255725e-03  -6.033475e-03  0 
 -5.893375e-03  -3.198408e-03  0 
 -5.544476e-03  -3.190036e-03  0 
 -5.192560e-03  -3.176982e-03  0 
 -4.836157e-03  -3.156339e-03  0 
 -4.471633e-03  -3.125374e-03  0 
 -4.093107e-03  -3.080093e-03  0 
 -3.687391e-03  -3.012506e-03  0 
 -3.220623e-03  -2.907238e-03  0 
 -2.718891e-03  -3.421356e-03  0 
 -2.854750e-03  -3.866483e-03  0 
 -2.946407e-03  -4.262070e-03  0 
 -3.019713e-03  -4.636213e-03  0 
 -3.087978e-03  -4.997253e-03  0 
 -3.160305e-03  -5.346591e-03  0 
 -3.249587e-03  -5.678736e-03  0 
 -3.381340e-03  -5.971547e-03  0 
 -5.898520e-03  -6.390556e-03  0 
 -5.541228e-03  -6.386345e-03  0 
 -5.185953e-03  -6.378837e-03  0 
 -4.834718e-03  -6.365336e-03  0 
 -4.491202e-03  -6.343496e-03  0 
 -4.161441e-03  -6.310390e-03  0 
 -3.858447e-03  -6.260128e-03  0 
 -3.614564e-03  -6.184444e-03  0 
 -5.899584e-03  -3.546039e-03  0 
 -5.550861e-03  -3.541376e-03  0 
 -5.200195e-03  -3.533097e-03  0 
 -4.845649e-03  -3.520230e-03  0 
 -4.483504e-03  -3.501869e-03  0 
 -4.107380e-03  -3.478047e-03  0 
 -3.704568e-03  -3.452468e-03  0 
 -3.240435e-03  -3.441451e-03  0 
 -5.904030e-03  -3.898430e-03  0 
 -5.554339e-03  -3.896713e-03  0 
 -5.203912e-03  -3.893925e-03  0 
 -4.850017e-03  -3.889777e-03  0 
 -4.488441e-03  -3.884776e-03  0 
 -4.112291e-03  -3.881109e-03  0 
 -3.710525e-03  -3.883439e-03  0 
 -3.281934e-03  -3.885430e-03  0 