# vtk DataFile Version 3.1
this is an vtk file created by FEMAC
ASCII
DATASET UNSTRUCTURED_GRID
POINTS 100 FLOAT
4.000000 2.000000 0.000000
4.000000 3.000000 0.000000
5.000000 2.000000 0.000000
5.000000 3.000000 0.000000
4.000000 2.111111 0.000000
4.000000 2.222222 0.000000
4.000000 2.333333 0.000000
4.000000 2.444444 0.000000
4.000000 2.555556 0.000000
4.000000 2.666667 0.000000
4.000000 2.777778 0.000000
4.000000 2.888889 0.000000
4.111111 2.000000 0.000000
4.222222 2.000000 0.000000
4.333333 2.000000 0.000000
4.444444 2.000000 0.000000
4.555556 2.000000 0.000000
4.666667 2.000000 0.000000
4.777778 2.000000 0.000000
4.888889 2.000000 0.000000
4.111111 3.000000 0.000000
4.222222 3.000000 0.000000
4.333333 3.000000 0.000000
4.444444 3.000000 0.000000
4.555556 3.000000 0.000000
4.666667 3.000000 0.000000
4.777778 3.000000 0.000000
4.888889 3.000000 0.000000
5.000000 2.111111 0.000000
5.000000 2.222222 0.000000
5.000000 2.333333 0.000000
5.000000 2.444444 0.000000
5.000000 2.555556 0.000000
5.000000 2.666667 0.000000
5.000000 2.777778 0.000000
5.000000 2.888889 0.000000
4.111111 2.111111 0.000000
4.111111 2.222222 0.000000
4.111111 2.333333 0.000000
4.111111 2.444444 0.000000
4.111111 2.555556 0.000000
4.111111 2.666667 0.000000
4.111111 2.777778 0.000000
4.111111 2.888889 0.000000
4.222222 2.111111 0.000000
4.222222 2.222222 0.000000
4.222222 2.333333 0.000000
4.222222 2.444444 0.000000
4.222222 2.555556 0.000000
4.222222 2.666667 0.000000
4.222222 2.777778 0.000000
4.222222 2.888889 0.000000
4.333333 2.111111 0.000000
4.333333 2.222222 0.000000
4.333333 2.333333 0.000000
4.333333 2.444444 0.000000
4.333333 2.555556 0.000000
4.333333 2.666667 0.000000
4.333333 2.777778 0.000000
4.333333 2.888889 0.000000
4.444444 2.111111 0.000000
4.444444 2.222222 0.000000
4.444444 2.333333 0.000000
4.444444 2.444444 0.000000
4.444444 2.555556 0.000000
4.444444 2.666667 0.000000
4.444444 2.777778 0.000000
4.444444 2.888889 0.000000
4.555556 2.111111 0.000000
4.555556 2.222222 0.000000
4.555556 2.333333 0.000000
4.555556 2.444444 0.000000
4.555556 2.555556 0.000000
4.555556 2.666667 0.000000
4.555556 2.777778 0.000000
4.555556 2.888889 0.000000
4.666667 2.111111 0.000000
4.666667 2.222222 0.000000
4.666667 2.333333 0.000000
4.666667 2.444444 0.000000
4.666667 2.555556 0.000000
4.666667 2.666667 0.000000
4.666667 2.777778 0.000000
4.666667 2.888889 0.000000
4.777778 2.111111 0.000000
4.777778 2.222222 0.000000
4.777778 2.333333 0.000000
4.777778 2.444444 0.000000
4.777778 2.555556 0.000000
4.777778 2.666667 0.000000
4.777778 2.777778 0.000000
4.777778 2.888889 0.000000
4.888889 2.111111 0.000000
4.888889 2.222222 0.000000
4.888889 2.333333 0.000000
4.888889 2.444444 0.000000
4.888889 2.555556 0.000000
4.888889 2.666667 0.000000
4.888889 2.777778 0.000000
4.888889 2.888889 0.000000
CELLS 81 405 
4 0 12 36  4
4 4 36 37  5
4 5 37 38  6
4 6 38 39  7
4 7 39 40  8
4 8 40 41  9
4 9 41 42 10
4 10 42 43 11
4 11 43 20  1
4 12 13 44 36
4 36 44 45 37
4 37 45 46 38
4 38 46 47 39
4 39 47 48 40
4 40 48 49 41
4 41 49 50 42
4 42 50 51 43
4 43 51 21 20
4 13 14 52 44
4 44 52 53 45
4 45 53 54 46
4 46 54 55 47
4 47 55 56 48
4 48 56 57 49
4 49 57 58 50
4 50 58 59 51
4 51 59 22 21
4 14 15 60 52
4 52 60 61 53
4 53 61 62 54
4 54 62 63 55
4 55 63 64 56
4 56 64 65 57
4 57 65 66 58
4 58 66 67 59
4 59 67 23 22
4 15 16 68 60
4 60 68 69 61
4 61 69 70 62
4 62 70 71 63
4 63 71 72 64
4 64 72 73 65
4 65 73 74 66
4 66 74 75 67
4 67 75 24 23
4 16 17 76 68
4 68 76 77 69
4 69 77 78 70
4 70 78 79 71
4 71 79 80 72
4 72 80 81 73
4 73 81 82 74
4 74 82 83 75
4 75 83 25 24
4 17 18 84 76
4 76 84 85 77
4 77 85 86 78
4 78 86 87 79
4 79 87 88 80
4 80 88 89 81
4 81 89 90 82
4 82 90 91 83
4 83 91 26 25
4 18 19 92 84
4 84 92 93 85
4 85 93 94 86
4 86 94 95 87
4 87 95 96 88
4 88 96 97 89
4 89 97 98 90
4 90 98 99 91
4 91 99 27 26
4 19  2 28 92
4 92 28 29 93
4 93 29 30 94
4 94 30 31 95
4 95 31 32 96
4 96 32 33 97
4 97 33 34 98
4 98 34 35 99
4 99 35  3 27
CELL_TYPES 81
9 9 9 9 9 9 9 9 9 9 9 9 9 9 9 9 9 9 9 9 9 9 9 9 9 9 9 9 9 9 9 9 9 9 9 9 9 9 9 9 9 9 9 9 9 9 9 9 9 9 9 9 9 9 9 9 9 9 9 9 9 9 9 9 9 9 9 9 9 9 9 9 9 9 9 9 9 9 9 9 9 
POINT_DATA 100
VECTORS displacement_ITER1 FLOAT
 -3.195349e-03  -1.228259e-02  0 
 1.074690e-03  -1.224367e-02  0 
 -3.342281e-03  -1.699528e-02  0 
 1.150745e-03  -1.692008e-02  0 
 -2.760497e-03  -1.231959e-02  0 
 -2.283213e-03  -1.233298e-02  0 
 -1.801246e-03  -1.234075e-02  0 
 -1.315493e-03  -1.234055e-02  0 
 -8.278479e-04  -1.233595e-02  0 
 -3.410741e-04  -1.232970e-02  0 
 1.448940e-04  -1.231702e-02  0 
 6.222005e-04  -1.229682e-02  0 
 -3.256266e-03  -1.280581e-02  0 
 -3.284273e-03  -1.331794e-02  0 
 -3.306295e-03  -1.382942e-02  0 
 -3.321998e-03  -1.433947e-02  0 
 -3.335859e-03  -1.485196e-02  0 
 -3.344706e-03  -1.537076e-02  0 
 -3.349454e-03  -1.589398e-02  0 
 -3.352905e-03  -1.642711e-02  0 
 1.126980e-03  -1.279169e-02  0 
 1.151189e-03  -1.331038e-02  0 
 1.168977e-03  -1.382595e-02  0 
 1.181819e-03  -1.433919e-02  0 
 1.188441e-03  -1.485154e-02  0 
 1.192637e-03  -1.536459e-02  0 
 1.192084e-03  -1.587994e-02  0 
 1.183005e-03  -1.640036e-02  0 
 -2.827697e-03  -1.694365e-02  0 
 -2.320715e-03  -1.691822e-02  0 
 -1.817988e-03  -1.689807e-02  0 
 -1.318672e-03  -1.688713e-02  0 
 -8.184311e-04  -1.688326e-02  0 
 -3.184231e-04  -1.688285e-02  0 
 1.808447e-04  -1.688865e-02  0 
 6.773295e-04  -1.689802e-02  0 
 -2.761367e-03  -1.280368e-02  0 
 -2.284589e-03  -1.281820e-02  0 
 -1.801661e-03  -1.282592e-02  0 
 -1.316243e-03  -1.282857e-02  0 
 -8.288908e-04  -1.282638e-02  0 
 -3.417516e-04  -1.281953e-02  0 
 1.432202e-04  -1.280751e-02  0 
 6.236304e-04  -1.278978e-02  0 
 -2.782526e-03  -1.331380e-02  0 
 -2.290151e-03  -1.331499e-02  0 
 -1.803480e-03  -1.332033e-02  0 
 -1.316300e-03  -1.332314e-02  0 
 -8.285088e-04  -1.332216e-02  0 
 -3.403971e-04  -1.331725e-02  0 
 1.483027e-04  -1.330996e-02  0 
 6.445067e-04  -1.330765e-02  0 
 -2.800270e-03  -1.382426e-02  0 
 -2.300855e-03  -1.382245e-02  0 
 -1.807051e-03  -1.382350e-02  0 
 -1.316561e-03  -1.382514e-02  0 
 -8.267173e-04  -1.382493e-02  0 
 -3.358048e-04  -1.382288e-02  0 
 1.591383e-04  -1.382144e-02  0 
 6.606194e-04  -1.382239e-02  0 
 -2.814007e-03  -1.433595e-02  0 
 -2.309876e-03  -1.433402e-02  0 
 -1.811187e-03  -1.433359e-02  0 
 -1.316747e-03  -1.433390e-02  0 
 -8.240449e-04  -1.433410e-02  0 
 -3.298741e-04  -1.433414e-02  0 
 1.684363e-04  -1.433476e-02  0 
 6.721785e-04  -1.433653e-02  0 
 -2.822801e-03  -1.485013e-02  0 
 -2.315425e-03  -1.484877e-02  0 
 -1.813578e-03  -1.484774e-02  0 
 -1.316393e-03  -1.484714e-02  0 
 -8.214155e-04  -1.484717e-02  0 
 -3.253922e-04  -1.484788e-02  0 
 1.744263e-04  -1.484895e-02  0 
 6.793277e-04  -1.485022e-02  0 
 -2.827497e-03  -1.536837e-02  0 
 -2.317237e-03  -1.536641e-02  0 
 -1.813850e-03  -1.536405e-02  0 
 -1.315570e-03  -1.536168e-02  0 
 -8.194458e-04  -1.536084e-02  0 
 -3.229696e-04  -1.536189e-02  0 
 1.766671e-04  -1.536356e-02  0 
 6.817447e-04  -1.536433e-02  0 
 -2.827974e-03  -1.589098e-02  0 
 -2.316034e-03  -1.588671e-02  0 
 -1.813615e-03  -1.587992e-02  0 
 -1.315143e-03  -1.587463e-02  0 
 -8.182866e-04  -1.587229e-02  0 
 -3.214685e-04  -1.587346e-02  0 
 1.763542e-04  -1.587751e-02  0 
 6.794517e-04  -1.588023e-02  0 
 -2.823080e-03  -1.642138e-02  0 
 -2.316347e-03  -1.640511e-02  0 
 -1.814677e-03  -1.639238e-02  0 
 -1.316136e-03  -1.638374e-02  0 
 -8.180114e-04  -1.637973e-02  0 
 -3.199509e-04  -1.638073e-02  0 
 1.777827e-04  -1.638626e-02  0 
 6.737356e-04  -1.639709e-02  0 
VECTORS displacement_ITER2 FLOAT
 -2.333710e-03  -9.516173e-03  0 
 9.955020e-04  -9.481005e-03  0 
 -2.495661e-03  -1.334493e-02  0 
 1.068529e-03  -1.324540e-02  0 
 -2.013581e-03  -9.563514e-03  0 
 -1.641197e-03  -9.576158e-03  0 
 -1.261630e-03  -9.582060e-03  0 
 -8.782980e-04  -9.584289e-03  0 
 -4.919412e-04  -9.582523e-03  0 
 -1.060376e-04  -9.576310e-03  0 
 2.766963e-04  -9.565776e-03  0 
 6.525427e-04  -9.543169e-03  0 
 -2.407020e-03  -9.942293e-03  0 
 -2.440658e-03  -1.035666e-02  0 
 -2.462448e-03  -1.076966e-02  0 
 -2.478457e-03  -1.118192e-02  0 
 -2.489682e-03  -1.159437e-02  0 
 -2.497715e-03  -1.200940e-02  0 
 -2.503872e-03  -1.242936e-02  0 
 -2.509158e-03  -1.286197e-02  0 
 1.058496e-03  -9.934184e-03  0 
 1.085037e-03  -1.035742e-02  0 
 1.102155e-03  -1.077322e-02  0 
 1.111557e-03  -1.118534e-02  0 
 1.114969e-03  -1.159518e-02  0 
 1.114671e-03  -1.200438e-02  0 
 1.110611e-03  -1.241452e-02  0 
 1.100078e-03  -1.282881e-02  0 
 -2.079629e-03  -1.328358e-02  0 
 -1.674236e-03  -1.324995e-02  0 
 -1.273605e-03  -1.323036e-02  0 
 -8.768870e-04  -1.321786e-02  0 
 -4.809692e-04  -1.321143e-02  0 
 -8.653832e-05  -1.321045e-02  0 
 3.066948e-04  -1.321371e-02  0 
 6.990223e-04  -1.322360e-02  0 
 -2.013306e-03  -9.940275e-03  0 
 -1.641805e-03  -9.958326e-03  0 
 -1.261367e-03  -9.967832e-03  0 
 -8.775888e-04  -9.971883e-03  0 
 -4.923386e-04  -9.971075e-03  0 
 -1.072662e-04  -9.964975e-03  0 
 2.752848e-04  -9.952425e-03  0 
 6.522852e-04  -9.932564e-03  0 
 -2.036738e-03  -1.035210e-02  0 
 -1.646012e-03  -1.035424e-02  0 
 -1.262035e-03  -1.036151e-02  0 
 -8.771682e-04  -1.036571e-02  0 
 -4.917123e-04  -1.036570e-02  0 
 -1.061523e-04  -1.036133e-02  0 
 2.800236e-04  -1.035408e-02  0 
 6.754831e-04  -1.035255e-02  0 
 -2.055665e-03  -1.076443e-02  0 
 -1.656818e-03  -1.076250e-02  0 
 -1.265005e-03  -1.076415e-02  0 
 -8.770036e-04  -1.076679e-02  0 
 -4.897509e-04  -1.076750e-02  0 
 -1.014460e-04  -1.076627e-02  0 
 2.914842e-04  -1.076593e-02  0 
 6.924097e-04  -1.076847e-02  0 
 -2.069408e-03  -1.117716e-02  0 
 -1.666241e-03  -1.117439e-02  0 
 -1.269136e-03  -1.117384e-02  0 
 -8.768822e-04  -1.117469e-02  0 
 -4.867347e-04  -1.117574e-02  0 
 -9.512685e-05  -1.117687e-02  0 
 3.010057e-04  -1.117887e-02  0 
 7.032152e-04  -1.118200e-02  0 
 -2.078435e-03  -1.159085e-02  0 
 -1.672019e-03  -1.158847e-02  0 
 -1.271475e-03  -1.158729e-02  0 
 -8.762340e-04  -1.158700e-02  0 
 -4.837440e-04  -1.158766e-02  0 
 -9.043625e-05  -1.158928e-02  0 
 3.065856e-04  -1.159144e-02  0 
 7.085615e-04  -1.159363e-02  0 
 -2.082908e-03  -1.200668e-02  0 
 -1.673442e-03  -1.200479e-02  0 
 -1.271241e-03  -1.200254e-02  0 
 -8.750539e-04  -1.200023e-02  0 
 -4.816014e-04  -1.199962e-02  0 
 -8.819285e-05  -1.200106e-02  0 
 3.079462e-04  -1.200316e-02  0 
 7.089047e-04  -1.200431e-02  0 
 -2.082383e-03  -1.242713e-02  0 
 -1.670775e-03  -1.242393e-02  0 
 -1.270223e-03  -1.241687e-02  0 
 -8.742943e-04  -1.241114e-02  0 
 -4.804625e-04  -1.240861e-02  0 
 -8.730414e-05  -1.240954e-02  0 
 3.063220e-04  -1.241317e-02  0 
 7.045161e-04  -1.241532e-02  0 
 -2.074691e-03  -1.285865e-02  0 
 -1.669778e-03  -1.284121e-02  0 
 -1.270894e-03  -1.282686e-02  0 
 -8.747806e-04  -1.281748e-02  0 
 -4.803541e-04  -1.281282e-02  0 
 -8.679273e-05  -1.281280e-02  0 
 3.059698e-04  -1.281729e-02  0 
 6.967054e-04  -1.282674e-02  0 
VECTORS displacement_ITER3 FLOAT
 -2.077038e-03  -8.510573e-03  0 
 8.244597e-04  -8.484303e-03  0 
 -2.242439e-03  -1.194108e-02  0 
 9.125037e-04  -1.183681e-02  0 
 -1.806002e-03  -8.562727e-03  0 
 -1.481676e-03  -8.578491e-03  0 
 -1.146223e-03  -8.585002e-03  0 
 -8.070597e-04  -8.588705e-03  0 
 -4.662851e-04  -8.588328e-03  0 
 -1.274036e-04  -8.582727e-03  0 
 2.071322e-04  -8.572765e-03  0 
 5.347597e-04  -8.549654e-03  0 
 -2.155093e-03  -8.896603e-03  0 
 -2.189067e-03  -9.267497e-03  0 
 -2.209574e-03  -9.634106e-03  0 
 -2.225002e-03  -1.000046e-02  0 
 -2.235257e-03  -1.036740e-02  0 
 -2.243623e-03  -1.073662e-02  0 
 -2.251691e-03  -1.111213e-02  0 
 -2.257138e-03  -1.149932e-02  0 
 8.945088e-04  -8.891325e-03  0 
 9.230819e-04  -9.268406e-03  0 
 9.392169e-04  -9.637465e-03  0 
 9.482873e-04  -1.000405e-02  0 
 9.536255e-04  -1.036891e-02  0 
 9.534672e-04  -1.073250e-02  0 
 9.500196e-04  -1.109617e-02  0 
 9.399447e-04  -1.146064e-02  0 
 -1.872422e-03  -1.187547e-02  0 
 -1.514055e-03  -1.184012e-02  0 
 -1.159586e-03  -1.182109e-02  0 
 -8.074579e-04  -1.180828e-02  0 
 -4.567866e-04  -1.180094e-02  0 
 -1.077812e-04  -1.179990e-02  0 
 2.392547e-04  -1.180226e-02  0 
 5.849687e-04  -1.181147e-02  0 
 -1.804881e-03  -8.894080e-03  0 
 -1.479957e-03  -8.914016e-03  0 
 -1.145258e-03  -8.925311e-03  0 
 -8.066743e-04  -8.930134e-03  0 
 -4.674258e-04  -8.929637e-03  0 
 -1.292728e-04  -8.923562e-03  0 
 2.056492e-04  -8.910627e-03  0 
 5.342502e-04  -8.889526e-03  0 
 -1.829179e-03  -9.262228e-03  0 
 -1.483523e-03  -9.264522e-03  0 
 -1.145400e-03  -9.272652e-03  0 
 -8.065549e-04  -9.277399e-03  0 
 -4.674149e-04  -9.277429e-03  0 
 -1.287057e-04  -9.272809e-03  0 
 2.101460e-04  -9.265124e-03  0 
 5.587400e-04  -9.263495e-03  0 
 -1.848272e-03  -9.629392e-03  0 
 -1.494560e-03  -9.627483e-03  0 
 -1.148429e-03  -9.629210e-03  0 
 -8.065864e-04  -9.631983e-03  0 
 -4.658036e-04  -9.632642e-03  0 
 -1.242426e-04  -9.631223e-03  0 
 2.218779e-04  -9.630797e-03  0 
 5.761754e-04  -9.633427e-03  0 
 -1.861590e-03  -9.996297e-03  0 
 -1.504170e-03  -9.993614e-03  0 
 -1.152841e-03  -9.992944e-03  0 
 -8.066680e-04  -9.993650e-03  0 
 -4.628978e-04  -9.994565e-03  0 
 -1.178415e-04  -9.995623e-03  0 
 2.316688e-04  -9.997654e-03  0 
 5.871741e-04  -1.000074e-02  0 
 -1.870504e-03  -1.036409e-02  0 
 -1.510039e-03  -1.036173e-02  0 
 -1.155383e-03  -1.036044e-02  0 
 -8.061739e-04  -1.035993e-02  0 
 -4.598944e-04  -1.036037e-02  0 
 -1.129241e-04  -1.036191e-02  0 
 2.376042e-04  -1.036417e-02  0 
 5.929624e-04  -1.036663e-02  0 
 -1.875128e-03  -1.073408e-02  0 
 -1.511554e-03  -1.073227e-02  0 
 -1.155280e-03  -1.072986e-02  0 
 -8.051121e-04  -1.072722e-02  0 
 -4.577070e-04  -1.072634e-02  0 
 -1.103903e-04  -1.072766e-02  0 
 2.395730e-04  -1.072984e-02  0 
 5.942113e-04  -1.073158e-02  0 
 -1.874892e-03  -1.110933e-02  0 
 -1.509029e-03  -1.110603e-02  0 
 -1.154541e-03  -1.109847e-02  0 
 -8.045266e-04  -1.109227e-02  0 
 -4.564930e-04  -1.108946e-02  0 
 -1.091929e-04  -1.109026e-02  0 
 2.385170e-04  -1.109382e-02  0 
 5.907534e-04  -1.109598e-02  0 
 -1.867105e-03  -1.149636e-02  0 
 -1.508646e-03  -1.147799e-02  0 
 -1.155906e-03  -1.146276e-02  0 
 -8.052041e-04  -1.145291e-02  0 
 -4.562549e-04  -1.144801e-02  0 
 -1.083954e-04  -1.144772e-02  0 
 2.384585e-04  -1.145199e-02  0 
 5.830739e-04  -1.146080e-02  0 
VECTORS displacement_ITER4 FLOAT
 -1.978935e-03  -8.343457e-03  0 
 6.710141e-04  -8.312104e-03  0 
 -2.152796e-03  -1.153360e-02  0 
 7.644276e-04  -1.142612e-02  0 
 -1.735183e-03  -8.396838e-03  0 
 -1.438904e-03  -8.409691e-03  0 
 -1.131816e-03  -8.414296e-03  0 
 -8.199362e-04  -8.416169e-03  0 
 -5.068804e-04  -8.415114e-03  0 
 -1.945356e-04  -8.410409e-03  0 
 1.132652e-04  -8.401116e-03  0 
 4.130698e-04  -8.380100e-03  0 
 -2.057478e-03  -8.701733e-03  0 
 -2.091949e-03  -9.044161e-03  0 
 -2.113053e-03  -9.382894e-03  0 
 -2.128670e-03  -9.721336e-03  0 
 -2.140605e-03  -1.006077e-02  0 
 -2.150451e-03  -1.040249e-02  0 
 -2.158961e-03  -1.075061e-02  0 
 -2.165639e-03  -1.111314e-02  0 
 7.432452e-04  -8.692923e-03  0 
 7.727908e-04  -9.041376e-03  0 
 7.892866e-04  -9.383196e-03  0 
 7.999038e-04  -9.722355e-03  0 
 8.063253e-04  -1.006027e-02  0 
 8.079738e-04  -1.039737e-02  0 
 8.050886e-04  -1.073487e-02  0 
 7.947687e-04  -1.107421e-02  0 
 -1.805816e-03  -1.146343e-02  0 
 -1.473054e-03  -1.142769e-02  0 
 -1.146076e-03  -1.140710e-02  0 
 -8.208740e-04  -1.139426e-02  0 
 -4.972523e-04  -1.138739e-02  0 
 -1.745965e-04  -1.138594e-02  0 
 1.463051e-04  -1.138895e-02  0 
 4.646250e-04  -1.139785e-02  0 
 -1.735070e-03  -8.698346e-03  0 
 -1.438321e-03  -8.717243e-03  0 
 -1.131252e-03  -8.727262e-03  0 
 -8.199631e-04  -8.731180e-03  0 
 -5.075225e-04  -8.730323e-03  0 
 -1.961904e-04  -8.724355e-03  0 
 1.116046e-04  -8.711671e-03  0 
 4.116582e-04  -8.690132e-03  0 
 -1.760067e-03  -9.038323e-03  0 
 -1.442249e-03  -9.039861e-03  0 
 -1.131640e-03  -9.047322e-03  0 
 -8.198504e-04  -9.051553e-03  0 
 -5.075251e-04  -9.051253e-03  0 
 -1.957026e-04  -9.046384e-03  0 
 1.157499e-04  -9.038370e-03  0 
 4.365089e-04  -9.036655e-03  0 
 -1.779610e-03  -9.377641e-03  0 
 -1.453610e-03  -9.375202e-03  0 
 -1.134786e-03  -9.376541e-03  0 
 -8.199413e-04  -9.379011e-03  0 
 -5.060111e-04  -9.379341e-03  0 
 -1.913919e-04  -9.377508e-03  0 
 1.275599e-04  -9.376685e-03  0 
 4.543781e-04  -9.379049e-03  0 
 -1.793515e-03  -9.716776e-03  0 
 -1.463526e-03  -9.713823e-03  0 
 -1.139314e-03  -9.713010e-03  0 
 -8.200862e-04  -9.713557e-03  0 
 -5.032015e-04  -9.714189e-03  0 
 -1.850329e-04  -9.714823e-03  0 
 1.375362e-04  -9.716378e-03  0 
 4.659355e-04  -9.719110e-03  0 
 -1.803050e-03  -1.005697e-02  0 
 -1.469643e-03  -1.005466e-02  0 
 -1.141907e-03  -1.005343e-02  0 
 -8.196064e-04  -1.005288e-02  0 
 -5.002421e-04  -1.005312e-02  0 
 -1.801335e-04  -1.005428e-02  0 
 1.436588e-04  -1.005605e-02  0 
 4.724330e-04  -1.005808e-02  0 
 -1.808282e-03  -1.039989e-02  0 
 -1.471250e-03  -1.039830e-02  0 
 -1.141747e-03  -1.039606e-02  0 
 -8.184950e-04  -1.039341e-02  0 
 -4.980447e-04  -1.039237e-02  0 
 -1.776155e-04  -1.039346e-02  0 
 1.457285e-04  -1.039529e-02  0 
 4.741882e-04  -1.039659e-02  0 
 -1.808222e-03  -1.074859e-02  0 
 -1.468605e-03  -1.074562e-02  0 
 -1.140894e-03  -1.073812e-02  0 
 -8.178582e-04  -1.073182e-02  0 
 -4.968011e-04  -1.072884e-02  0 
 -1.763391e-04  -1.072957e-02  0 
 1.446815e-04  -1.073318e-02  0 
 4.708880e-04  -1.073515e-02  0 
 -1.800209e-03  -1.111002e-02  0 
 -1.468021e-03  -1.109134e-02  0 
 -1.142109e-03  -1.107595e-02  0 
 -8.186564e-04  -1.106581e-02  0 
 -4.965507e-04  -1.106076e-02  0 
 -1.753528e-04  -1.106052e-02  0 
 1.449116e-04  -1.106506e-02  0 
 4.627730e-04  -1.107460e-02  0 
VECTORS displacement_ITER5 FLOAT
 -1.973476e-03  -8.270922e-03  0 
 6.055663e-04  -8.238477e-03  0 
 -2.156111e-03  -1.140464e-02  0 
 7.087315e-04  -1.129180e-02  0 
 -1.739818e-03  -8.324408e-03  0 
 -1.452187e-03  -8.337455e-03  0 
 -1.152330e-03  -8.342156e-03  0 
 -8.468956e-04  -8.343661e-03  0 
 -5.403669e-04  -8.342372e-03  0 
 -2.345137e-04  -8.337728e-03  0 
 6.651712e-05  -8.328024e-03  0 
 3.580812e-04  -8.306976e-03  0 
 -2.054447e-03  -8.622788e-03  0 
 -2.089171e-03  -8.957186e-03  0 
 -2.110822e-03  -9.288458e-03  0 
 -2.127293e-03  -9.619489e-03  0 
 -2.140075e-03  -9.952122e-03  0 
 -2.150721e-03  -1.028761e-02  0 
 -2.160372e-03  -1.063015e-02  0 
 -2.167995e-03  -1.098694e-02  0 
 6.819078e-04  -8.613340e-03  0 
 7.118169e-04  -8.954682e-03  0 
 7.286106e-04  -9.289689e-03  0 
 7.399317e-04  -9.621575e-03  0 
 7.465328e-04  -9.952480e-03  0 
 7.483025e-04  -1.028312e-02  0 
 7.454755e-04  -1.061418e-02  0 
 7.364380e-04  -1.094596e-02  0 
 -1.813259e-03  -1.133132e-02  0 
 -1.486684e-03  -1.129538e-02  0 
 -1.165818e-03  -1.127419e-02  0 
 -8.465943e-04  -1.126091e-02  0 
 -5.293174e-04  -1.125371e-02  0 
 -2.131568e-04  -1.125184e-02  0 
 1.013261e-04  -1.125485e-02  0 
 4.124780e-04  -1.126351e-02  0 
 -1.739588e-03  -8.618318e-03  0 
 -1.450868e-03  -8.637340e-03  0 
 -1.151222e-03  -8.647598e-03  0 
 -8.468240e-04  -8.651577e-03  0 
 -5.410027e-04  -8.650632e-03  0 
 -2.364134e-04  -8.644476e-03  0 
 6.430363e-05  -8.631473e-03  0 
 3.567412e-04  -8.609549e-03  0 
 -1.765087e-03  -8.951177e-03  0 
 -1.454633e-03  -8.952584e-03  0 
 -1.151269e-03  -8.960237e-03  0 
 -8.464659e-04  -8.964655e-03  0 
 -5.409680e-04  -8.964386e-03  0 
 -2.359926e-04  -8.959389e-03  0 
 6.847676e-05  -8.951215e-03  0 
 3.823763e-04  -8.949727e-03  0 
 -1.784931e-03  -9.283085e-03  0 
 -1.466097e-03  -9.280738e-03  0 
 -1.154261e-03  -9.282242e-03  0 
 -8.463420e-04  -9.284904e-03  0 
 -5.392852e-04  -9.285345e-03  0 
 -2.315136e-04  -9.283531e-03  0 
 8.065682e-05  -9.282746e-03  0 
 4.007144e-04  -9.285216e-03  0 
 -1.799197e-03  -9.615064e-03  0 
 -1.476108e-03  -9.612312e-03  0 
 -1.158717e-03  -9.611709e-03  0 
 -8.462926e-04  -9.612442e-03  0 
 -5.362177e-04  -9.613224e-03  0 
 -2.248450e-04  -9.613976e-03  0 
 9.096229e-05  -9.615610e-03  0 
 4.126352e-04  -9.618357e-03  0 
 -1.809118e-03  -9.948492e-03  0 
 -1.482340e-03  -9.946381e-03  0 
 -1.161245e-03  -9.945357e-03  0 
 -8.456229e-04  -9.944972e-03  0 
 -5.329733e-04  -9.945341e-03  0 
 -2.196068e-04  -9.946620e-03  0 
 9.739764e-05  -9.948495e-03  0 
 4.193818e-04  -9.950536e-03  0 
 -1.814799e-03  -1.028507e-02  0 
 -1.484089e-03  -1.028359e-02  0 
 -1.161032e-03  -1.028148e-02  0 
 -8.443450e-04  -1.027891e-02  0 
 -5.305252e-04  -1.027793e-02  0 
 -2.167639e-04  -1.027905e-02  0 
 9.984115e-05  -1.028092e-02  0 
 4.213747e-04  -1.028235e-02  0 
 -1.815233e-03  -1.062781e-02  0 
 -1.481590e-03  -1.062485e-02  0 
 -1.160191e-03  -1.061727e-02  0 
 -8.436019e-04  -1.061090e-02  0 
 -5.290860e-04  -1.060787e-02  0 
 -2.152353e-04  -1.060854e-02  0 
 9.916630e-05  -1.061203e-02  0 
 4.186424e-04  -1.061401e-02  0 
 -1.807475e-03  -1.098386e-02  0 
 -1.481286e-03  -1.096474e-02  0 
 -1.161528e-03  -1.094901e-02  0 
 -8.443802e-04  -1.093861e-02  0 
 -5.286861e-04  -1.093337e-02  0 
 -2.140461e-04  -1.093297e-02  0 
 9.957625e-05  -1.093737e-02  0 
 4.110680e-04  -1.094649e-02  0 
VECTORS displacement_ITER6 FLOAT
 -1.945630e-03  -8.268215e-03  0 
 5.475312e-04  -8.232862e-03  0 
 -2.134447e-03  -1.132464e-02  0 
 6.551745e-04  -1.121196e-02  0 
 -1.722562e-03  -8.321652e-03  0 
 -1.444313e-03  -8.333311e-03  0 
 -1.153732e-03  -8.337411e-03  0 
 -8.574601e-04  -8.338250e-03  0 
 -5.600626e-04  -8.336454e-03  0 
 -2.635257e-04  -8.331637e-03  0 
 2.843270e-05  -8.321850e-03  0 
 3.104478e-04  -8.301548e-03  0 
 -2.028133e-03  -8.610174e-03  0 
 -2.063803e-03  -8.934685e-03  0 
 -2.086498e-03  -9.257119e-03  0 
 -2.103500e-03  -9.579231e-03  0 
 -2.117166e-03  -9.903197e-03  0 
 -2.128224e-03  -1.023049e-02  0 
 -2.137827e-03  -1.056457e-02  0 
 -2.145726e-03  -1.091331e-02  0 
 6.256109e-04  -8.598435e-03  0 
 6.558674e-04  -8.930933e-03  0 
 6.736956e-04  -9.257594e-03  0 
 6.858953e-04  -9.580840e-03  0 
 6.930325e-04  -9.903143e-03  0 
 6.954606e-04  -1.022524e-02  0 
 6.928758e-04  -1.054803e-02  0 
 6.837356e-04  -1.087279e-02  0 
 -1.798685e-03  -1.124956e-02  0 
 -1.480410e-03  -1.121321e-02  0 
 -1.168173e-03  -1.119110e-02  0 
 -8.581333e-04  -1.117796e-02  0 
 -5.497636e-04  -1.117120e-02  0 
 -2.422150e-04  -1.116951e-02  0 
 6.412938e-05  -1.117295e-02  0 
 3.671546e-04  -1.118222e-02  0 
 -1.722875e-03  -8.605171e-03  0 
 -1.443623e-03  -8.623909e-03  0 
 -1.153060e-03  -8.633673e-03  0 
 -8.577098e-04  -8.637239e-03  0 
 -5.608758e-04  -8.635948e-03  0 
 -2.652855e-04  -8.629591e-03  0 
 2.639817e-05  -8.616556e-03  0 
 3.094913e-04  -8.594525e-03  0 
 -1.749014e-03  -8.928613e-03  0 
 -1.447726e-03  -8.929844e-03  0 
 -1.153418e-03  -8.937294e-03  0 
 -8.575342e-04  -8.941455e-03  0 
 -5.609039e-04  -8.940950e-03  0 
 -2.647843e-04  -8.935765e-03  0 
 3.074172e-05  -8.927445e-03  0 
 3.356348e-04  -8.925954e-03  0 
 -1.769388e-03  -9.251480e-03  0 
 -1.459526e-03  -9.249022e-03  0 
 -1.156597e-03  -9.250433e-03  0 
 -8.575193e-04  -9.252967e-03  0 
 -5.592409e-04  -9.253237e-03  0 
 -2.602248e-04  -9.251239e-03  0 
 4.319107e-05  -9.250321e-03  0 
 3.544754e-04  -9.252773e-03  0 
 -1.784211e-03  -9.574682e-03  0 
 -1.469818e-03  -9.571879e-03  0 
 -1.161197e-03  -9.571249e-03  0 
 -8.575381e-04  -9.571917e-03  0 
 -5.561855e-04  -9.572575e-03  0 
 -2.534656e-04  -9.573162e-03  0 
 5.376772e-05  -9.574657e-03  0 
 3.669555e-04  -9.577420e-03  0 
 -1.794470e-03  -9.899541e-03  0 
 -1.476253e-03  -9.897448e-03  0 
 -1.163826e-03  -9.896425e-03  0 
 -8.569217e-04  -9.896010e-03  0 
 -5.529666e-04  -9.896292e-03  0 
 -2.481910e-04  -9.897431e-03  0 
 6.039811e-05  -9.899153e-03  0 
 3.741400e-04  -9.901113e-03  0 
 -1.800384e-03  -1.022779e-02  0 
 -1.478097e-03  -1.022629e-02  0 
 -1.163658e-03  -1.022420e-02  0 
 -8.556889e-04  -1.022161e-02  0 
 -5.505747e-04  -1.022057e-02  0 
 -2.454009e-04  -1.022160e-02  0 
 6.285125e-05  -1.022335e-02  0 
 3.763384e-04  -1.022458e-02  0 
 -1.800889e-03  -1.056224e-02  0 
 -1.475555e-03  -1.055927e-02  0 
 -1.162801e-03  -1.055167e-02  0 
 -8.549975e-04  -1.054527e-02  0 
 -5.492362e-04  -1.054219e-02  0 
 -2.439827e-04  -1.054286e-02  0 
 6.202773e-05  -1.054639e-02  0 
 3.735022e-04  -1.054826e-02  0 
 -1.792967e-03  -1.091020e-02  0 
 -1.475090e-03  -1.089080e-02  0 
 -1.164036e-03  -1.087496e-02  0 
 -8.558732e-04  -1.086450e-02  0 
 -5.489861e-04  -1.085929e-02  0 
 -2.429119e-04  -1.085901e-02  0 
 6.233761e-05  -1.086364e-02  0 
 3.656382e-04  -1.087316e-02  0 
VECTORS displacement_ITER7 FLOAT
 -1.938099e-03  -8.267572e-03  0 
 5.174021e-04  -8.229670e-03  0 
 -2.132348e-03  -1.129316e-02  0 
 6.276853e-04  -1.117809e-02  0 
 -1.720874e-03  -8.320414e-03  0 
 -1.447183e-03  -8.331981e-03  0 
 -1.160622e-03  -8.336066e-03  0 
 -8.682715e-04  -8.336895e-03  0 
 -5.743036e-04  -8.334880e-03  0 
 -2.813197e-04  -8.329623e-03  0 
 7.233550e-06  -8.319472e-03  0 
 2.852887e-04  -8.298687e-03  0 
 -2.022476e-03  -8.604848e-03  0 
 -2.058843e-03  -8.925229e-03  0 
 -2.082172e-03  -9.244052e-03  0 
 -2.099652e-03  -9.562653e-03  0 
 -2.113522e-03  -9.883155e-03  0 
 -2.124661e-03  -1.020722e-02  0 
 -2.134520e-03  -1.053807e-02  0 
 -2.142926e-03  -1.088338e-02  0 
 5.973209e-04  -8.592322e-03  0 
 6.280130e-04  -8.921463e-03  0 
 6.459987e-04  -9.244528e-03  0 
 6.578732e-04  -9.564436e-03  0 
 6.647379e-04  -9.883467e-03  0 
 6.670111e-04  -1.020215e-02  0 
 6.645137e-04  -1.052122e-02  0 
 6.556880e-04  -1.084210e-02  0 
 -1.798810e-03  -1.121686e-02  0 
 -1.483967e-03  -1.117973e-02  0 
 -1.174942e-03  -1.115739e-02  0 
 -8.684912e-04  -1.114396e-02  0 
 -5.635312e-04  -1.113706e-02  0 
 -2.596021e-04  -1.113550e-02  0 
 4.312951e-05  -1.113892e-02  0 
 3.427153e-04  -1.114854e-02  0 
 -1.721413e-03  -8.599585e-03  0 
 -1.446414e-03  -8.618429e-03  0 
 -1.159854e-03  -8.628292e-03  0 
 -8.683239e-04  -8.631898e-03  0 
 -5.751838e-04  -8.630520e-03  0 
 -2.831561e-04  -8.623932e-03  0 
 4.955159e-06  -8.610528e-03  0 
 2.843565e-04  -8.588129e-03  0 
 -1.747948e-03  -8.919156e-03  0 
 -1.450555e-03  -8.920442e-03  0 
 -1.160132e-03  -8.928020e-03  0 
 -8.680538e-04  -8.932262e-03  0 
 -5.751471e-04  -8.931755e-03  0 
 -2.826708e-04  -8.926461e-03  0 
 9.304104e-06  -8.917955e-03  0 
 3.108930e-04  -8.916386e-03  0 
 -1.768634e-03  -9.238341e-03  0 
 -1.462468e-03  -9.235936e-03  0 
 -1.163283e-03  -9.237436e-03  0 
 -8.679556e-04  -9.240058e-03  0 
 -5.733920e-04  -9.240377e-03  0 
 -2.780236e-04  -9.238387e-03  0 
 2.188032e-05  -9.237467e-03  0 
 3.298463e-04  -9.239887e-03  0 
 -1.783727e-03  -9.558051e-03  0 
 -1.472872e-03  -9.555258e-03  0 
 -1.167889e-03  -9.554675e-03  0 
 -8.679048e-04  -9.555411e-03  0 
 -5.702229e-04  -9.556142e-03  0 
 -2.711290e-04  -9.556807e-03  0 
 3.255291e-05  -9.558381e-03  0 
 3.422845e-04  -9.561170e-03  0 
 -1.794161e-03  -9.879520e-03  0 
 -1.479412e-03  -9.877389e-03  0 
 -1.170535e-03  -9.876370e-03  0 
 -8.672324e-04  -9.875996e-03  0 
 -5.668983e-04  -9.876340e-03  0 
 -2.657303e-04  -9.877558e-03  0 
 3.926744e-05  -9.879375e-03  0 
 3.494123e-04  -9.881422e-03  0 
 -1.800214e-03  -1.020441e-02  0 
 -1.481343e-03  -1.020283e-02  0 
 -1.170376e-03  -1.020072e-02  0 
 -8.659600e-04  -1.019814e-02  0 
 -5.644379e-04  -1.019712e-02  0 
 -2.628553e-04  -1.019819e-02  0 
 4.180637e-05  -1.020000e-02  0 
 3.516526e-04  -1.020133e-02  0 
 -1.800895e-03  -1.053551e-02  0 
 -1.478835e-03  -1.053248e-02  0 
 -1.169520e-03  -1.052480e-02  0 
 -8.652531e-04  -1.051834e-02  0 
 -5.630693e-04  -1.051524e-02  0 
 -2.614073e-04  -1.051592e-02  0 
 4.103907e-05  -1.051944e-02  0 
 3.489333e-04  -1.052133e-02  0 
 -1.793013e-03  -1.088035e-02  0 
 -1.478402e-03  -1.086075e-02  0 
 -1.170802e-03  -1.084467e-02  0 
 -8.661247e-04  -1.083407e-02  0 
 -5.628191e-04  -1.082880e-02  0 
 -2.603254e-04  -1.082852e-02  0 
 4.133386e-05  -1.083318e-02  0 
 3.411490e-04  -1.084260e-02  0 
VECTORS displacement_ITER8 FLOAT
 -1.933896e-03  -8.275108e-03  0 
 4.901143e-04  -8.234857e-03  0 
 -2.132824e-03  -1.127342e-02  0 
 6.035072e-04  -1.115830e-02  0 
 -1.721677e-03  -8.327146e-03  0 
 -1.451505e-03  -8.338008e-03  0 
 -1.168178e-03  -8.341582e-03  0 
 -8.791469e-04  -8.342217e-03  0 
 -5.882795e-04  -8.340072e-03  0 
 -2.983895e-04  -8.334682e-03  0 
 -1.282135e-05  -8.324625e-03  0 
 2.621985e-04  -8.303917e-03  0 
 -2.019709e-03  -8.607595e-03  0 
 -2.057009e-03  -8.924730e-03  0 
 -2.080940e-03  -9.240642e-03  0 
 -2.098730e-03  -9.556474e-03  0 
 -2.112761e-03  -9.874091e-03  0 
 -2.123996e-03  -1.019522e-02  0 
 -2.133843e-03  -1.052301e-02  0 
 -2.142652e-03  -1.086555e-02  0 
 5.709520e-04  -8.594104e-03  0 
 6.020683e-04  -8.920408e-03  0 
 6.203309e-04  -9.240654e-03  0 
 6.322685e-04  -9.557993e-03  0 
 6.393355e-04  -9.874318e-03  0 
 6.418236e-04  -1.019017e-02  0 
 6.396843e-04  -1.050639e-02  0 
 6.312208e-04  -1.082469e-02  0 
 -1.801081e-03  -1.119669e-02  0 
 -1.488999e-03  -1.115903e-02  0 
 -1.182893e-03  -1.113664e-02  0 
 -8.795087e-04  -1.112313e-02  0 
 -5.773830e-04  -1.111629e-02  0 
 -2.762761e-04  -1.111502e-02  0 
 2.357986e-05  -1.111861e-02  0 
 3.206690e-04  -1.112856e-02  0 
 -1.722438e-03  -8.602306e-03  0 
 -1.450953e-03  -8.621088e-03  0 
 -1.167601e-03  -8.630759e-03  0 
 -8.791925e-04  -8.634203e-03  0 
 -5.891492e-04  -8.632733e-03  0 
 -3.001434e-04  -8.626088e-03  0 
 -1.504345e-05  -8.612612e-03  0 
 2.611683e-04  -8.590018e-03  0 
 -1.749262e-03  -8.918545e-03  0 
 -1.455156e-03  -8.919844e-03  0 
 -1.167930e-03  -8.927404e-03  0 
 -8.789461e-04  -8.931580e-03  0 
 -5.890847e-04  -8.931010e-03  0 
 -2.996358e-04  -8.925653e-03  0 
 -1.070666e-05  -8.917039e-03  0 
 2.878609e-04  -8.915353e-03  0 
 -1.770268e-03  -9.234794e-03  0 
 -1.467175e-03  -9.232323e-03  0 
 -1.171103e-03  -9.233806e-03  0 
 -8.788476e-04  -9.236409e-03  0 
 -5.873134e-04  -9.236692e-03  0 
 -2.949616e-04  -9.234653e-03  0 
 1.938574e-06  -9.233688e-03  0 