# vtk DataFile Version 3.1
this is an vtk file created by FEMAC
ASCII
DATASET UNSTRUCTURED_GRID
POINTS 100 FLOAT
3.000000 3.000000 0.000000
3.000000 4.000000 0.000000
4.000000 3.000000 0.000000
4.000000 4.000000 0.000000
3.000000 3.111111 0.000000
3.000000 3.222222 0.000000
3.000000 3.333333 0.000000
3.000000 3.444444 0.000000
3.000000 3.555556 0.000000
3.000000 3.666667 0.000000
3.000000 3.777778 0.000000
3.000000 3.888889 0.000000
3.111111 3.000000 0.000000
3.222222 3.000000 0.000000
3.333333 3.000000 0.000000
3.444444 3.000000 0.000000
3.555556 3.000000 0.000000
3.666667 3.000000 0.000000
3.777778 3.000000 0.000000
3.888889 3.000000 0.000000
3.111111 4.000000 0.000000
3.222222 4.000000 0.000000
3.333333 4.000000 0.000000
3.444444 4.000000 0.000000
3.555556 4.000000 0.000000
3.666667 4.000000 0.000000
3.777778 4.000000 0.000000
3.888889 4.000000 0.000000
4.000000 3.111111 0.000000
4.000000 3.222222 0.000000
4.000000 3.333333 0.000000
4.000000 3.444444 0.000000
4.000000 3.555556 0.000000
4.000000 3.666667 0.000000
4.000000 3.777778 0.000000
4.000000 3.888889 0.000000
3.111111 3.111111 0.000000
3.111111 3.222222 0.000000
3.111111 3.333333 0.000000
3.111111 3.444444 0.000000
3.111111 3.555556 0.000000
3.111111 3.666667 0.000000
3.111111 3.777778 0.000000
3.111111 3.888889 0.000000
3.222222 3.111111 0.000000
3.222222 3.222222 0.000000
3.222222 3.333333 0.000000
3.222222 3.444444 0.000000
3.222222 3.555556 0.000000
3.222222 3.666667 0.000000
3.222222 3.777778 0.000000
3.222222 3.888889 0.000000
3.333333 3.111111 0.000000
3.333333 3.222222 0.000000
3.333333 3.333333 0.000000
3.333333 3.444444 0.000000
3.333333 3.555556 0.000000
3.333333 3.666667 0.000000
3.333333 3.777778 0.000000
3.333333 3.888889 0.000000
3.444444 3.111111 0.000000
3.444444 3.222222 0.000000
3.444444 3.333333 0.000000
3.444444 3.444444 0.000000
3.444444 3.555556 0.000000
3.444444 3.666667 0.000000
3.444444 3.777778 0.000000
3.444444 3.888889 0.000000
3.555556 3.111111 0.000000
3.555556 3.222222 0.000000
3.555556 3.333333 0.000000
3.555556 3.444444 0.000000
3.555556 3.555556 0.000000
3.555556 3.666667 0.000000
3.555556 3.777778 0.000000
3.555556 3.888889 0.000000
3.666667 3.111111 0.000000
3.666667 3.222222 0.000000
3.666667 3.333333 0.000000
3.666667 3.444444 0.000000
3.666667 3.555556 0.000000
3.666667 3.666667 0.000000
3.666667 3.777778 0.000000
3.666667 3.888889 0.000000
3.777778 3.111111 0.000000
3.777778 3.222222 0.000000
3.777778 3.333333 0.000000
3.777778 3.444444 0.000000
3.777778 3.555556 0.000000
3.777778 3.666667 0.000000
3.777778 3.777778 0.000000
3.777778 3.888889 0.000000
3.888889 3.111111 0.000000
3.888889 3.222222 0.000000
3.888889 3.333333 0.000000
3.888889 3.444444 0.000000
3.888889 3.555556 0.000000
3.888889 3.666667 0.000000
3.888889 3.777778 0.000000
3.888889 3.888889 0.000000
CELLS 81 405 
4 0 12 36  4
4 4 36 37  5
4 5 37 38  6
4 6 38 39  7
4 7 39 40  8
4 8 40 41  9
4 9 41 42 10
4 10 42 43 11
4 11 43 20  1
4 12 13 44 36
4 36 44 45 37
4 37 45 46 38
4 38 46 47 39
4 39 47 48 40
4 40 48 49 41
4 41 49 50 42
4 42 50 51 43
4 43 51 21 20
4 13 14 52 44
4 44 52 53 45
4 45 53 54 46
4 46 54 55 47
4 47 55 56 48
4 48 56 57 49
4 49 57 58 50
4 50 58 59 51
4 51 59 22 21
4 14 15 60 52
4 52 60 61 53
4 53 61 62 54
4 54 62 63 55
4 55 63 64 56
4 56 64 65 57
4 57 65 66 58
4 58 66 67 59
4 59 67 23 22
4 15 16 68 60
4 60 68 69 61
4 61 69 70 62
4 62 70 71 63
4 63 71 72 64
4 64 72 73 65
4 65 73 74 66
4 66 74 75 67
4 67 75 24 23
4 16 17 76 68
4 68 76 77 69
4 69 77 78 70
4 70 78 79 71
4 71 79 80 72
4 72 80 81 73
4 73 81 82 74
4 74 82 83 75
4 75 83 25 24
4 17 18 84 76
4 76 84 85 77
4 77 85 86 78
4 78 86 87 79
4 79 87 88 80
4 80 88 89 81
4 81 89 90 82
4 82 90 91 83
4 83 91 26 25
4 18 19 92 84
4 84 92 93 85
4 85 93 94 86
4 86 94 95 87
4 87 95 96 88
4 88 96 97 89
4 89 97 98 90
4 90 98 99 91
4 91 99 27 26
4 19  2 28 92
4 92 28 29 93
4 93 29 30 94
4 94 30 31 95
4 95 31 32 96
4 96 32 33 97
4 97 33 34 98
4 98 34 35 99
4 99 35  3 27
CELL_TYPES 81
9 9 9 9 9 9 9 9 9 9 9 9 9 9 9 9 9 9 9 9 9 9 9 9 9 9 9 9 9 9 9 9 9 9 9 9 9 9 9 9 9 9 9 9 9 9 9 9 9 9 9 9 9 9 9 9 9 9 9 9 9 9 9 9 9 9 9 9 9 9 9 9 9 9 9 9 9 9 9 9 9 
POINT_DATA 100
VECTORS displacement_ITER1 FLOAT
 9.383331e-04  -7.678325e-03  0 
 4.602830e-03  -7.988738e-03  0 
 8.467681e-04  -1.227221e-02  0 
 4.885999e-03  -1.234261e-02  0 
 1.329467e-03  -7.818546e-03  0 
 1.762672e-03  -7.882202e-03  0 
 2.202174e-03  -7.928508e-03  0 
 2.640320e-03  -7.962833e-03  0 
 3.074141e-03  -7.988857e-03  0 
 3.499755e-03  -8.007928e-03  0 
 3.912515e-03  -8.019272e-03  0 
 4.308499e-03  -8.022859e-03  0 
 8.406637e-04  -8.283527e-03  0 
 8.019422e-04  -8.806271e-03  0 
 7.794607e-04  -9.310842e-03  0 
 7.677260e-04  -9.802677e-03  0 
 7.668158e-04  -1.028730e-02  0 
 7.733881e-04  -1.076827e-02  0 
 7.855756e-04  -1.125217e-02  0 
 8.011239e-04  -1.174548e-02  0 
 4.728596e-03  -8.429177e-03  0 
 4.795387e-03  -8.881004e-03  0 
 4.847441e-03  -9.338326e-03  0 
 4.886725e-03  -9.806243e-03  0 
 4.914311e-03  -1.028450e-02  0 
 4.928134e-03  -1.077234e-02  0 
 4.931593e-03  -1.127051e-02  0 
 4.923259e-03  -1.177739e-02  0 
 1.280263e-03  -1.221279e-02  0 
 1.728163e-03  -1.218186e-02  0 
 2.173134e-03  -1.216449e-02  0 
 2.619694e-03  -1.215874e-02  0 
 3.068907e-03  -1.216478e-02  0 
 3.521526e-03  -1.218307e-02  0 
 3.977350e-03  -1.221307e-02  0 
 4.433902e-03  -1.225543e-02  0 
 1.335870e-03  -8.287887e-03  0 
 1.771205e-03  -8.337247e-03  0 
 2.209369e-03  -8.375475e-03  0 
 2.646047e-03  -8.403109e-03  0 
 3.078913e-03  -8.421328e-03  0 
 3.504935e-03  -8.430556e-03  0 
 3.920829e-03  -8.430592e-03  0 
 4.315690e-03  -8.416941e-03  0 
 1.297681e-03  -8.804726e-03  0 
 1.764450e-03  -8.814695e-03  0 
 2.208881e-03  -8.836862e-03  0 
 2.647020e-03  -8.855136e-03  0 
 3.080498e-03  -8.865976e-03  0 
 3.508985e-03  -8.868878e-03  0 
 3.931523e-03  -8.865159e-03  0 
 4.357494e-03  -8.866988e-03  0 
 1.270767e-03  -9.306429e-03  0 
 1.744529e-03  -9.306473e-03  0 
 2.200249e-03  -9.312198e-03  0 
 2.643160e-03  -9.320203e-03  0 
 3.079805e-03  -9.324816e-03  0 
 3.513668e-03  -9.324962e-03  0 
 3.949764e-03  -9.324490e-03  0 
 4.393538e-03  -9.328227e-03  0 
 1.254488e-03  -9.799573e-03  0 
 1.728307e-03  -9.796788e-03  0 
 2.188290e-03  -9.795882e-03  0 
 2.636348e-03  -9.796441e-03  0 
 3.077548e-03  -9.796793e-03  0 
 3.518380e-03  -9.796369e-03  0 
 3.964614e-03  -9.796663e-03  0 
 4.420172e-03  -9.799472e-03  0 
 1.247982e-03  -1.028669e-02  0 
 1.719510e-03  -1.028431e-02  0 
 2.179585e-03  -1.028136e-02  0 
 2.629603e-03  -1.027878e-02  0 
 3.074184e-03  -1.027732e-02  0 
 3.519936e-03  -1.027709e-02  0 
 3.972859e-03  -1.027791e-02  0 
 4.436832e-03  -1.028013e-02  0 
 1.250749e-03  -1.077053e-02  0 
 1.718787e-03  -1.076910e-02  0 
 2.175977e-03  -1.076505e-02  0 
 2.624874e-03  -1.076086e-02  0 
 3.070518e-03  -1.075966e-02  0 
 3.518087e-03  -1.076197e-02  0 
 3.974144e-03  -1.076548e-02  0 
 4.443653e-03  -1.076894e-02  0 
 1.261755e-03  -1.125434e-02  0 
 1.724572e-03  -1.125110e-02  0 
 2.175394e-03  -1.124268e-02  0 
 2.622107e-03  -1.123720e-02  0 
 3.067916e-03  -1.123757e-02  0 
 3.515936e-03  -1.124462e-02  0 
 3.970074e-03  -1.125654e-02  0 
 4.440823e-03  -1.126476e-02  0 
 1.280267e-03  -1.174332e-02  0 
 1.728693e-03  -1.172383e-02  0 
 2.175008e-03  -1.171010e-02  0 
 2.620552e-03  -1.170391e-02  0 
 3.067271e-03  -1.170673e-02  0 
 3.516647e-03  -1.171922e-02  0 
 3.969936e-03  -1.174131e-02  0 
 4.427648e-03  -1.177104e-02  0 
VECTORS displacement_ITER2 FLOAT
 9.099835e-04  -6.060684e-03  0 
 3.431720e-03  -6.424556e-03  0 
 8.338766e-04  -9.587770e-03  0 
 3.780896e-03  -9.692357e-03  0 
 1.177827e-03  -6.221041e-03  0 
 1.487185e-03  -6.290469e-03  0 
 1.803944e-03  -6.334463e-03  0 
 2.122411e-03  -6.365782e-03  0 
 2.438180e-03  -6.391234e-03  0 
 2.746298e-03  -6.412996e-03  0 
 3.036406e-03  -6.432311e-03  0 
 3.297716e-03  -6.450942e-03  0 
 7.991462e-04  -6.567263e-03  0 
 7.648903e-04  -6.975687e-03  0 
 7.493901e-04  -7.358669e-03  0 
 7.445836e-04  -7.727670e-03  0 
 7.463159e-04  -8.089989e-03  0 
 7.517658e-04  -8.449165e-03  0 
 7.607779e-04  -8.808200e-03  0 
 7.768735e-04  -9.177615e-03  0 
 3.585030e-03  -6.715633e-03  0 
 3.668208e-03  -7.041609e-03  0 
 3.723466e-03  -7.380348e-03  0 
 3.763342e-03  -7.729195e-03  0 
 3.791283e-03  -8.085762e-03  0 
 3.809439e-03  -8.450220e-03  0 
 3.818349e-03  -8.826480e-03  0 
 3.817291e-03  -9.220740e-03  0 
 1.132768e-03  -9.519934e-03  0 
 1.453773e-03  -9.488497e-03  0 
 1.776389e-03  -9.474484e-03  0 
 2.102678e-03  -9.472961e-03  0 
 2.431755e-03  -9.481773e-03  0 
 2.764408e-03  -9.501235e-03  0 
 3.100364e-03  -9.533730e-03  0 
 3.437642e-03  -9.586029e-03  0 
 1.185914e-03  -6.569193e-03  0 
 1.497958e-03  -6.621218e-03  0 
 1.813217e-03  -6.660614e-03  0 
 2.129399e-03  -6.688350e-03  0 
 2.443359e-03  -6.706833e-03  0 
 2.750073e-03  -6.716862e-03  0 
 3.043221e-03  -6.717561e-03  0 
 3.306943e-03  -6.702275e-03  0 
 1.144949e-03  -6.971851e-03  0 
 1.492401e-03  -6.979503e-03  0 
 1.814831e-03  -7.001698e-03  0 
 2.131702e-03  -7.020307e-03  0 
 2.444686e-03  -7.031078e-03  0 
 2.751985e-03  -7.033137e-03  0 
 3.050727e-03  -7.027360e-03  0 
 3.351064e-03  -7.027322e-03  0 
 1.119285e-03  -7.354416e-03  0 
 1.472272e-03  -7.352588e-03  0 
 1.806773e-03  -7.356895e-03  0 
 2.128165e-03  -7.364257e-03  0 
 2.443302e-03  -7.368076e-03  0 
 2.755085e-03  -7.366882e-03  0 
 3.068266e-03  -7.365200e-03  0 
 3.389582e-03  -7.369145e-03  0 
 1.105612e-03  -7.725474e-03  0 
 1.456389e-03  -7.721862e-03  0 
 1.794446e-03  -7.719667e-03  0 
 2.120808e-03  -7.719042e-03  0 
 2.440267e-03  -7.718204e-03  0 
 2.759379e-03  -7.716645e-03  0 
 3.084032e-03  -7.716586e-03  0 
 3.418066e-03  -7.720520e-03  0 
 1.100917e-03  -8.089361e-03  0 
 1.448071e-03  -8.086753e-03  0 
 1.785387e-03  -8.083218e-03  0 
 2.113297e-03  -8.079743e-03  0 
 2.436185e-03  -8.077317e-03  0 
 2.760897e-03  -8.076265e-03  0 
 3.093428e-03  -8.076739e-03  0 
 3.436827e-03  -8.079588e-03  0 
 1.103660e-03  -8.449785e-03  0 
 1.447664e-03  -8.448580e-03  0 
 1.781568e-03  -8.444510e-03  0 
 2.107936e-03  -8.439906e-03  0 
 2.431945e-03  -8.438468e-03  0 
 2.758780e-03  -8.440655e-03  0 
 3.095224e-03  -8.443648e-03  0 
 3.445612e-03  -8.446362e-03  0 
 1.114474e-03  -8.810699e-03  0 
 1.453575e-03  -8.808060e-03  0 
 1.780393e-03  -8.799367e-03  0 
 2.104650e-03  -8.794047e-03  0 
 2.429235e-03  -8.795193e-03  0 
 2.756542e-03  -8.803352e-03  0 
 3.090647e-03  -8.815819e-03  0 
 3.443846e-03  -8.822579e-03  0 
 1.134677e-03  -9.178133e-03  0 
 1.456467e-03  -9.157042e-03  0 
 1.778846e-03  -9.143449e-03  0 
 2.102831e-03  -9.138791e-03  0 
 2.429193e-03  -9.143473e-03  0 
 2.758215e-03  -9.157884e-03  0 
 3.090626e-03  -9.182650e-03  0 
 3.429389e-03  -9.215005e-03  0 
VECTORS displacement_ITER3 FLOAT
 6.797039e-04  -5.388189e-03  0 
 2.874120e-03  -5.780033e-03  0 
 6.108897e-04  -8.626653e-03  0 
 3.252556e-03  -8.750613e-03  0 
 9.157829e-04  -5.565919e-03  0 
 1.191539e-03  -5.640264e-03  0 
 1.473414e-03  -5.683655e-03  0 
 1.757041e-03  -5.714105e-03  0 
 2.038920e-03  -5.738723e-03  0 
 2.313944e-03  -5.760775e-03  0 
 2.571381e-03  -5.782017e-03  0 
 2.792760e-03  -5.802438e-03  0 
 5.645134e-04  -5.880477e-03  0 
 5.341571e-04  -6.256533e-03  0 
 5.233820e-04  -6.604124e-03  0 
 5.197157e-04  -6.937997e-03  0 
 5.193208e-04  -7.265883e-03  0 
 5.224195e-04  -7.590991e-03  0 
 5.298536e-04  -7.916375e-03  0 
 5.481199e-04  -8.251415e-03  0 
 3.041259e-03  -6.027202e-03  0 
 3.129706e-03  -6.317873e-03  0 
 3.185143e-03  -6.624084e-03  0 
 3.224793e-03  -6.939434e-03  0 
 3.253186e-03  -7.261398e-03  0 
 3.273932e-03  -7.590630e-03  0 
 3.286398e-03  -7.931825e-03  0 
 3.289259e-03  -8.295930e-03  0 
 8.689737e-04  -8.557033e-03  0 
 1.154851e-03  -8.528688e-03  0 
 1.444818e-03  -8.516806e-03  0 
 1.738145e-03  -8.515692e-03  0 
 2.033134e-03  -8.523632e-03  0 
 2.330567e-03  -8.541648e-03  0 
 2.631794e-03  -8.573596e-03  0 
 2.937000e-03  -8.630406e-03  0 
 9.256260e-04  -5.880307e-03  0 
 1.202692e-03  -5.934329e-03  0 
 1.482701e-03  -5.974433e-03  0 
 1.764263e-03  -6.002131e-03  0 
 2.044229e-03  -6.020653e-03  0 
 2.317343e-03  -6.030785e-03  0 
 2.575572e-03  -6.030653e-03  0 
 2.801392e-03  -6.013473e-03  0 
 8.825861e-04  -6.252399e-03  0 
 1.196949e-03  -6.258610e-03  0 
 1.484557e-03  -6.280736e-03  0 
 1.766813e-03  -6.299476e-03  0 
 2.045509e-03  -6.310250e-03  0 
 2.318252e-03  -6.311863e-03  0 
 2.581557e-03  -6.305015e-03  0 
 2.846177e-03  -6.304042e-03  0 
 8.571698e-04  -6.600544e-03  0 
 1.175881e-03  -6.597961e-03  0 
 1.476225e-03  -6.601618e-03  0 
 1.763214e-03  -6.608782e-03  0 
 2.043863e-03  -6.612352e-03  0 
 2.320884e-03  -6.610683e-03  0 
 2.599012e-03  -6.608594e-03  0 
 2.885430e-03  -6.612620e-03  0 
 8.439280e-04  -6.936029e-03  0 
 1.159658e-03  -6.932510e-03  0 
 1.463427e-03  -6.930071e-03  0 
 1.755548e-03  -6.929122e-03  0 
 2.040626e-03  -6.927915e-03  0 
 2.325278e-03  -6.925976e-03  0 
 2.615396e-03  -6.925815e-03  0 
 2.914669e-03  -6.930164e-03  0 
 8.388471e-04  -7.264939e-03  0 
 1.151222e-03  -7.262648e-03  0 
 1.454129e-03  -7.259237e-03  0 
 1.747764e-03  -7.255615e-03  0 
 2.036420e-03  -7.252914e-03  0 
 2.327021e-03  -7.251511e-03  0 
 2.625523e-03  -7.251672e-03  0 
 2.934506e-03  -7.254576e-03  0 
 8.407073e-04  -7.591344e-03  0 
 1.150612e-03  -7.590340e-03  0 
 1.450178e-03  -7.586368e-03  0 
 1.742298e-03  -7.581758e-03  0 
 2.032177e-03  -7.580303e-03  0 
 2.324955e-03  -7.582302e-03  0 
 2.627662e-03  -7.584632e-03  0 
 2.944505e-03  -7.586524e-03  0 
 8.510507e-04  -7.918942e-03  0 
 1.156107e-03  -7.916204e-03  0 
 1.448724e-03  -7.907313e-03  0 
 1.739106e-03  -7.902150e-03  0 
 2.029730e-03  -7.903518e-03  0 
 2.322775e-03  -7.911724e-03  0 
 2.622668e-03  -7.923829e-03  0 
 2.943256e-03  -7.929129e-03  0 
 8.714385e-04  -8.252929e-03  0 
 1.158025e-03  -8.231203e-03  0 
 1.446922e-03  -8.217914e-03  0 
 1.737685e-03  -8.213715e-03  0 
 2.030204e-03  -8.218514e-03  0 
 2.324682e-03  -8.232743e-03  0 
 2.622308e-03  -8.257663e-03  0 
 2.927441e-03  -8.291069e-03  0 
VECTORS displacement_ITER4 FLOAT
 6.801107e-04  -5.322256e-03  0 
 2.660819e-03  -5.715801e-03  0 
 6.171526e-04  -8.366946e-03  0 
 3.053024e-03  -8.502190e-03  0 
 8.944397e-04  -5.505050e-03  0 
 1.146821e-03  -5.579765e-03  0 
 1.404555e-03  -5.622892e-03  0 
 1.664717e-03  -5.653277e-03  0 
 1.923527e-03  -5.676996e-03  0 
 2.176071e-03  -5.698060e-03  0 
 2.412792e-03  -5.719016e-03  0 
 2.611482e-03  -5.738635e-03  0 
 5.642809e-04  -5.796584e-03  0 
 5.347480e-04  -6.150412e-03  0 
 5.218759e-04  -6.475618e-03  0 
 5.147890e-04  -6.787045e-03  0 
 5.123272e-04  -7.092018e-03  0 
 5.156494e-04  -7.395058e-03  0 
 5.253867e-04  -7.699744e-03  0 
 5.483558e-04  -8.013165e-03  0 
 2.835391e-03  -5.939017e-03  0 
 2.926304e-03  -6.207698e-03  0 
 2.982944e-03  -6.492808e-03  0 
 3.022694e-03  -6.786119e-03  0 
 3.050669e-03  -7.086545e-03  0 
 3.070919e-03  -7.395034e-03  0 
 3.084581e-03  -7.715766e-03  0 
 3.089873e-03  -8.059789e-03  0 
 8.458245e-04  -8.294381e-03  0 
 1.107639e-03  -8.267764e-03  0 
 1.374682e-03  -8.256292e-03  0 
 1.645371e-03  -8.254433e-03  0 
 1.918102e-03  -8.262188e-03  0 
 2.192762e-03  -8.281396e-03  0 
 2.470632e-03  -8.315272e-03  0 
 2.754880e-03  -8.375308e-03  0 
 9.038501e-04  -5.796068e-03  0 
 1.157154e-03  -5.850166e-03  0 
 1.413659e-03  -5.890153e-03  0 
 1.671945e-03  -5.917656e-03  0 
 1.929034e-03  -5.935874e-03  0 
 2.179967e-03  -5.945640e-03  0 
 2.416107e-03  -5.944553e-03  0 
 2.618555e-03  -5.925429e-03  0 
 8.592819e-04  -6.145830e-03  0 
 1.150577e-03  -6.151454e-03  0 
 1.415094e-03  -6.173462e-03  0 
 1.674459e-03  -6.192150e-03  0 
 1.930524e-03  -6.202799e-03  0 
 2.180840e-03  -6.203967e-03  0 
 2.421676e-03  -6.196161e-03  0 
 2.664122e-03  -6.194311e-03  0 
 8.324749e-04  -6.471042e-03  0 
 1.128529e-03  -6.468265e-03  0 
 1.406355e-03  -6.471927e-03  0 
 1.670774e-03  -6.479136e-03  0 
 1.928881e-03  -6.482580e-03  0 
 2.183433e-03  -6.480511e-03  0 
 2.439356e-03  -6.477870e-03  0 
 2.704108e-03  -6.481425e-03  0 
 8.177250e-04  -6.784132e-03  0 
 1.111672e-03  -6.780699e-03  0 
 1.393285e-03  -6.778478e-03  0 
 1.662993e-03  -6.777593e-03  0 
 1.925577e-03  -6.776253e-03  0 
 2.187870e-03  -6.774029e-03  0 
 2.455952e-03  -6.773538e-03  0 
 2.733699e-03  -6.777522e-03  0 
 8.117942e-04  -7.091317e-03  0 
 1.103032e-03  -7.089335e-03  0 
 1.383926e-03  -7.086112e-03  0 
 1.655109e-03  -7.082502e-03  0 
 1.921248e-03  -7.079679e-03  0 
 2.189554e-03  -7.078050e-03  0 
 2.466101e-03  -7.077936e-03  0 
 2.753384e-03  -7.080501e-03  0 
 8.140791e-04  -7.396548e-03  0 
 1.102680e-03  -7.395859e-03  0 
 1.380037e-03  -7.391810e-03  0 
 1.649558e-03  -7.387084e-03  0 
 1.916819e-03  -7.385590e-03  0 
 2.187212e-03  -7.387492e-03  0 
 2.468009e-03  -7.389524e-03  0 
 2.763272e-03  -7.391101e-03  0 
 8.258350e-04  -7.703227e-03  0 
 1.108638e-03  -7.700379e-03  0 
 1.378598e-03  -7.690982e-03  0 
 1.646354e-03  -7.685666e-03  0 
 1.914239e-03  -7.687164e-03  0 
 2.184649e-03  -7.695593e-03  0 
 2.462419e-03  -7.707770e-03  0 
 2.762013e-03  -7.712663e-03  0 
 8.480253e-04  -8.015732e-03  0 
 1.110540e-03  -7.993046e-03  0 
 1.376804e-03  -7.979426e-03  0 
 1.645055e-03  -7.975043e-03  0 
 1.914795e-03  -7.980022e-03  0 
 2.186379e-03  -7.994981e-03  0 
 2.461498e-03  -8.020850e-03  0 
 2.745350e-03  -8.055201e-03  0 
VECTORS displacement_ITER5 FLOAT
 5.905354e-04  -5.282201e-03  0 
 2.547793e-03  -5.671179e-03  0 
 5.439468e-04  -8.289789e-03  0 
 2.945761e-03  -8.439799e-03  0 
 8.076854e-04  -5.462896e-03  0 
 1.057703e-03  -5.536589e-03  0 
 1.312569e-03  -5.579404e-03  0 
 1.569824e-03  -5.609410e-03  0 
 1.825002e-03  -5.632381e-03  0 
 2.073719e-03  -5.652533e-03  0 
 2.307545e-03  -5.673553e-03  0 
 2.504673e-03  -5.694057e-03  0 
 4.789210e-04  -5.753164e-03  0 
 4.520300e-04  -6.102655e-03  0 
 4.398909e-04  -6.424199e-03  0 
 4.328406e-04  -6.732591e-03  0 
 4.309277e-04  -7.035019e-03  0 
 4.353884e-04  -7.335455e-03  0 
 4.466515e-04  -7.637166e-03  0 
 4.709246e-04  -7.944969e-03  0 
 2.725421e-03  -5.890176e-03  0 
 2.816503e-03  -6.157027e-03  0 
 2.873540e-03  -6.440509e-03  0 
 2.913350e-03  -6.731304e-03  0 
 2.941283e-03  -7.028761e-03  0 
 2.961136e-03  -7.334086e-03  0 
 2.975196e-03  -7.651887e-03  0 
 2.981906e-03  -7.993796e-03  0 
 7.631310e-04  -8.218834e-03  0 
 1.019012e-03  -8.194404e-03  0 
 1.281726e-03  -8.183840e-03  0 
 1.548654e-03  -8.182386e-03  0 
 1.818236e-03  -8.190776e-03  0 
 2.090205e-03  -8.211090e-03  0 
 2.365188e-03  -8.246495e-03  0 
 2.647558e-03  -8.308435e-03  0 
 8.161039e-04  -5.752378e-03  0 
 1.067553e-03  -5.805054e-03  0 
 1.321392e-03  -5.844215e-03  0 
 1.576571e-03  -5.871033e-03  0 
 1.830313e-03  -5.888591e-03  0 
 2.078085e-03  -5.898033e-03  0 
 2.311544e-03  -5.896923e-03  0 
 2.511031e-03  -5.877229e-03  0 
 7.723799e-04  -6.098505e-03  0 
 1.060737e-03  -6.103740e-03  0 
 1.322501e-03  -6.124983e-03  0 
 1.578843e-03  -6.142981e-03  0 
 1.831814e-03  -6.153118e-03  0 
 2.079152e-03  -6.153979e-03  0 
 2.317053e-03  -6.145893e-03  0 
 2.556706e-03  -6.143822e-03  0 
 7.465145e-04  -6.419996e-03  0 
 1.039088e-03  -6.417372e-03  0 
 1.313738e-03  -6.420711e-03  0 
 1.575068e-03  -6.427395e-03  0 
 1.830131e-03  -6.430368e-03  0 
 2.081714e-03  -6.427946e-03  0 
 2.334783e-03  -6.425107e-03  0 
 2.596889e-03  -6.428696e-03  0 
 7.324704e-04  -6.729951e-03  0 
 1.022811e-03  -6.726683e-03  0 
 1.300888e-03  -6.724317e-03  0 
 1.567260e-03  -6.723066e-03  0 
 1.826717e-03  -6.721317e-03  0 
 2.086079e-03  -6.718787e-03  0 
 2.351430e-03  -6.718190e-03  0 
 2.626689e-03  -6.722329e-03  0 
 7.271521e-04  -7.034388e-03  0 
 1.014630e-03  -7.032307e-03  0 
 1.291708e-03  -7.028847e-03  0 
 1.559318e-03  -7.024943e-03  0 
 1.822215e-03  -7.021836e-03  0 
 2.087619e-03  -7.019994e-03  0 
 2.361553e-03  -7.019818e-03  0 
 2.646375e-03  -7.022517e-03  0 
 7.300479e-04  -7.336759e-03  0 
 1.014474e-03  -7.335612e-03  0 
 1.287800e-03  -7.331198e-03  0 
 1.553609e-03  -7.326248e-03  0 
 1.817546e-03  -7.324659e-03  0 
 2.085006e-03  -7.326524e-03  0 
 2.363276e-03  -7.328505e-03  0 
 2.656195e-03  -7.330105e-03  0 
 7.421866e-04  -7.639777e-03  0 
 1.020366e-03  -7.636385e-03  0 
 1.286133e-03  -7.626651e-03  0 
 1.550182e-03  -7.621302e-03  0 
 1.814706e-03  -7.622961e-03  0 
 2.082103e-03  -7.631642e-03  0 
 2.357266e-03  -7.644021e-03  0 
 2.654819e-03  -7.648758e-03  0 
 7.647795e-04  -7.947431e-03  0 
 1.021961e-03  -7.924526e-03  0 
 1.284066e-03  -7.911060e-03  0 
 1.548654e-03  -7.906938e-03  0 
 1.815063e-03  -7.912317e-03  0 
 2.083607e-03  -7.927950e-03  0 
 2.356030e-03  -7.954583e-03  0 
 2.637659e-03  -7.989608e-03  0 
VECTORS displacement_ITER6 FLOAT
 5.684676e-04  -5.277239e-03  0 
 2.487765e-03  -5.665304e-03  0 
 5.309080e-04  -8.250804e-03  0 
 2.892961e-03  -8.406581e-03  0 
 7.832624e-04  -5.457984e-03  0 
 1.029951e-03  -5.531988e-03  0 
 1.281553e-03  -5.575459e-03  0 
 1.535270e-03  -5.606094e-03  0 
 1.786415e-03  -5.629389e-03  0 
 2.030591e-03  -5.649101e-03  0 
 2.259386e-03  -5.669289e-03  0 
 2.452088e-03  -5.689481e-03  0 
 4.584597e-04  -5.746538e-03  0 
 4.316028e-04  -6.091541e-03  0 
 4.187959e-04  -6.408496e-03  0 
 4.114644e-04  -6.712915e-03  0 
 4.097463e-04  -7.012186e-03  0 
 4.145430e-04  -7.309498e-03  0 
 4.271750e-04  -7.607865e-03  0 
 4.538702e-04  -7.911332e-03  0 
 2.669017e-03  -5.880974e-03  0 
 2.760452e-03  -6.144579e-03  0 
 2.818015e-03  -6.424317e-03  0 
 2.858129e-03  -6.711493e-03  0 
 2.886525e-03  -7.005403e-03  0 
 2.906399e-03  -7.306887e-03  0 
 2.920542e-03  -7.620936e-03  0 
 2.928116e-03  -7.960013e-03  0 
 7.400909e-04  -8.179364e-03  0 
 9.909207e-04  -8.155684e-03  0 
 1.250199e-03  -8.145331e-03  0 
 1.513382e-03  -8.144007e-03  0 
 1.778604e-03  -8.152581e-03  0 
 2.046157e-03  -8.173122e-03  0 
 2.316906e-03  -8.209224e-03  0 
 2.595899e-03  -8.272320e-03  0 
 7.916867e-04  -5.744872e-03  0 
 1.039797e-03  -5.797296e-03  0 
 1.290213e-03  -5.836571e-03  0 
 1.541669e-03  -5.863479e-03  0 
 1.791251e-03  -5.880898e-03  0 
 2.034510e-03  -5.889969e-03  0 
 2.263439e-03  -5.888431e-03  0 
 2.458127e-03  -5.868019e-03  0 
 7.477955e-04  -6.087157e-03  0 
 1.032717e-03  -6.092338e-03  0 
 1.290993e-03  -6.113529e-03  0 
 1.543542e-03  -6.131388e-03  0 
 1.792407e-03  -6.141264e-03  0 
 2.035450e-03  -6.141807e-03  0 
 2.268972e-03  -6.133379e-03  0 
 2.504513e-03  -6.131231e-03  0 
 7.218830e-04  -6.404541e-03  0 
 1.010956e-03  -6.402142e-03  0 
 1.281990e-03  -6.405474e-03  0 
 1.539485e-03  -6.411974e-03  0 
 1.790518e-03  -6.414668e-03  0 
 2.037968e-03  -6.411956e-03  0 
 2.286957e-03  -6.408937e-03  0 
 2.545129e-03  -6.412488e-03  0 
 7.079425e-04  -6.710751e-03  0 
 9.947524e-04  -6.707726e-03  0 
 1.269072e-03  -6.705381e-03  0 
 1.531523e-03  -6.703955e-03  0 
 1.786975e-03  -6.701939e-03  0 
 2.042346e-03  -6.699158e-03  0 
 2.303784e-03  -6.698401e-03  0 
 2.575232e-03  -6.702484e-03  0 
 7.028658e-04  -7.011751e-03  0 
 9.867637e-04  -7.009797e-03  0 
 1.259932e-03  -7.006277e-03  0 
 1.523499e-03  -7.002185e-03  0 
 1.782372e-03  -6.998846e-03  0 
 2.043859e-03  -6.996785e-03  0 
 2.313999e-03  -6.996440e-03  0 
 2.595123e-03  -6.999061e-03  0 
 7.061963e-04  -7.310860e-03  0 
 9.868437e-04  -7.309589e-03  0 
 1.256066e-03  -7.304937e-03  0 
 1.517726e-03  -7.299774e-03  0 
 1.777607e-03  -7.298049e-03  0 
 2.041149e-03  -7.299784e-03  0 
 2.315697e-03  -7.301582e-03  0 
 2.605060e-03  -7.303033e-03  0 
 7.189442e-04  -7.610455e-03  0 
 9.928858e-04  -7.606620e-03  0 
 1.254358e-03  -7.596444e-03  0 
 1.514286e-03  -7.590972e-03  0 
 1.774737e-03  -7.592671e-03  0 
 2.038116e-03  -7.601384e-03  0 
 2.309462e-03  -7.613681e-03  0 
 2.603599e-03  -7.618110e-03  0 
 7.422061e-04  -7.914102e-03  0 
 9.942376e-04  -7.890352e-03  0 
 1.252289e-03  -7.876642e-03  0 
 1.512929e-03  -7.872636e-03  0 
 1.775213e-03  -7.878209e-03  0 
 2.039535e-03  -7.894050e-03  0 
 2.307921e-03  -7.920877e-03  0 
 2.586041e-03  -7.956049e-03  0 
VECTORS displacement_ITER7 FLOAT
 5.310082e-04  -5.285963e-03  0 
 2.441759e-03  -5.668516e-03  0 
 4.964884e-04  -8.246218e-03  0 
 2.850410e-03  -8.405056e-03  0 
 7.456798e-04  -5.464756e-03  0 
 9.918480e-04  -5.537900e-03  0 
 1.242527e-03  -5.581024e-03  0 
 1.495006e-03  -5.611570e-03  0 
 1.745030e-03  -5.634992e-03  0 
 1.988432e-03  -5.654456e-03  0 
 2.216147e-03  -5.673809e-03  0 
 2.407782e-03  -5.693697e-03  0 
 4.225753e-04  -5.752401e-03  0 
 3.960127e-04  -6.095371e-03  0 
 3.830073e-04  -6.410904e-03  0 
 3.756081e-04  -6.714389e-03  0 
 3.738620e-04  -7.013045e-03  0 
 3.785170e-04  -7.309643e-03  0 
 3.913236e-04  -7.607351e-03  0 
 4.183391e-04  -7.909787e-03  0 
 2.624370e-03  -5.884376e-03  0 
 2.715953e-03  -6.147694e-03  0 
 2.773375e-03  -6.426422e-03  0 
 2.813252e-03  -6.712830e-03  0 
 2.841687e-03  -7.006063e-03  0 
 2.861628e-03  -7.306656e-03  0 
 2.875945e-03  -7.619519e-03  0 
 2.884340e-03  -7.957708e-03  0 
 7.026276e-04  -8.175823e-03  0 
 9.523186e-04  -8.152836e-03  0 
 1.210982e-03  -8.142662e-03  0 
 1.473326e-03  -8.141325e-03  0 
 1.737501e-03  -8.149795e-03  0 
 2.004057e-03  -8.170155e-03  0 
 2.273932e-03  -8.206368e-03  0 
 2.552084e-03  -8.269833e-03  0 
 7.539509e-04  -5.750690e-03  0 
 1.001348e-03  -5.802501e-03  0 
 1.250953e-03  -5.841335e-03  0 
 1.501446e-03  -5.868027e-03  0 
 1.749980e-03  -5.885321e-03  0 
 1.992142e-03  -5.894135e-03  0 
 2.220082e-03  -5.892235e-03  0 
 2.413773e-03  -5.871379e-03  0 
 7.104678e-04  -6.091195e-03  0 
 9.942249e-04  -6.096407e-03  0 
 1.251615e-03  -6.117379e-03  0 
 1.503245e-03  -6.135007e-03  0 
 1.751097e-03  -6.144675e-03  0 
 1.993100e-03  -6.145028e-03  0 
 2.225648e-03  -6.136411e-03  0 
 2.460469e-03  -6.134211e-03  0 
 6.848168e-04  -6.407194e-03  0 
 9.726696e-04  -6.404967e-03  0 
 1.242642e-03  -6.408284e-03  0 
 1.499157e-03  -6.414638e-03  0 
 1.749207e-03  -6.417163e-03  0 
 1.995683e-03  -6.414322e-03  0 
 2.243779e-03  -6.411250e-03  0 
 2.501194e-03  -6.414785e-03  0 
 6.709973e-04  -6.712394e-03  0 
 9.566365e-04  -6.709467e-03  0 
 1.229831e-03  -6.707143e-03  0 
 1.491236e-03  -6.705648e-03  0 
 1.745711e-03  -6.703527e-03  0 
 2.000156e-03  -6.700673e-03  0 
 2.260708e-03  -6.699895e-03  0 
 2.531276e-03  -6.703946e-03  0 
 6.659375e-04  -7.012557e-03  0 
 9.487272e-04  -7.010605e-03  0 
 1.220768e-03  -7.007058e-03  0 
 1.483270e-03  -7.002916e-03  0 
 1.741171e-03  -6.999518e-03  0 
 2.001757e-03  -6.997405e-03  0 
 2.271009e-03  -6.997030e-03  0 
 2.551202e-03  -6.999656e-03  0 
 6.692538e-04  -7.310923e-03  0 
 9.487899e-04  -7.309529e-03  0 
 1.216901e-03  -7.304776e-03  0 
 1.477528e-03  -7.299566e-03  0 
 1.736456e-03  -7.297818e-03  0 
 1.999105e-03  -7.299508e-03  0 
 2.272801e-03  -7.301237e-03  0 
 2.561285e-03  -7.302688e-03  0 
 6.819352e-04  -7.609727e-03  0 
 9.546937e-04  -7.605640e-03  0 
 1.215122e-03  -7.595343e-03  0 
 1.474107e-03  -7.589864e-03  0 
 1.733629e-03  -7.591573e-03  0 
 1.996085e-03  -7.600257e-03  0 
 2.266587e-03  -7.612447e-03  0 
 2.559990e-03  -7.616724e-03  0 
 7.049916e-04  -7.912257e-03  0 
 9.558038e-04  -7.888338e-03  0 
 1.213008e-03  -7.874655e-03  0 
 1.472793e-03  -7.870707e-03  0 
 1.734146e-03  -7.876268e-03  0 
 1.997492e-03  -7.892068e-03  0 
 2.264944e-03  -7.918862e-03  0 
 2.542432e-03  -7.953879e-03  0 
VECTORS displacement_ITER8 FLOAT
 5.242176e-04  -5.304151e-03  0 
 2.404164e-03  -5.680407e-03  0 
 4.919357e-04  -8.231134e-03  0 
 2.814848e-03  -8.392962e-03  0 
 7.351017e-04  -5.481732e-03  0 
 9.776683e-04  -5.554292e-03  0 
 1.224774e-03  -5.597011e-03  0 
 1.473607e-03  -5.627072e-03  0 
 1.720074e-03  -5.650039e-03  0 
 1.960146e-03  -5.669105e-03  0 
 2.184653e-03  -5.687727e-03  0 
 2.373067e-03  -5.706957e-03  0 
 4.158628e-04  -5.765481e-03  0 
 3.889777e-04  -6.104701e-03  0 
 3.756316e-04  -6.416959e-03  0 
 3.681045e-04  -6.717240e-03  0 
 3.663778e-04  -7.012362e-03  0 
 3.711760e-04  -7.305352e-03  0 
 3.844510e-04  -7.599570e-03  0 
 4.124142e-04  -7.898956e-03  0 
 2.587219e-03  -5.895008e-03  0 
 2.679007e-03  -6.156036e-03  0 
 2.736346e-03  -6.431881e-03  0 
 2.776196e-03  -6.715266e-03  0 
 2.804576e-03  -7.005310e-03  0 
 2.824552e-03  -7.302663e-03  0 
 2.839034e-03  -7.612096e-03  0 
 2.847988e-03  -7.947150e-03  0 
 6.923196e-04  -8.160915e-03  0 
 9.383985e-04  -8.138277e-03  0 
 1.193572e-03  -8.128355e-03  0 
 1.452495e-03  -8.127099e-03  0 
 1.713371e-03  -8.135650e-03  0 
 1.976644e-03  -8.156128e-03  0 
 2.243321e-03  -8.192616e-03  0 
 2.518279e-03  -8.256754e-03  0 
 7.431514e-04  -5.763826e-03  0 
 9.869974e-04  -5.815316e-03  0 
 1.233057e-03  -5.853790e-03  0 
 1.480010e-03  -5.880138e-03  0 
 1.725083e-03  -5.897114e-03  0 
 1.963858e-03  -5.905576e-03  0 
 2.188530e-03  -5.903286e-03  0 
 2.379110e-03  -5.882018e-03  0 
 6.997389e-04  -6.100504e-03  0 
 9.798378e-04  -6.105647e-03  0 
 1.233692e-03  -6.126409e-03  0 
 1.481842e-03  -6.143803e-03  0 
 1.726268e-03  -6.153245e-03  0 
 1.964921e-03  -6.153388e-03  0 
 2.194249e-03  -6.144607e-03  0 
 2.426123e-03  -6.142402e-03  0 
 6.740437e-04  -6.413074e-03  0 
 9.583323e-04  -6.410735e-03  0 
 1.224776e-03  -6.413942e-03  0 
 1.477837e-03  -6.420159e-03  0 
 1.724502e-03  -6.422554e-03  0 
 1.967681e-03  -6.419626e-03  0 
 2.212624e-03  -6.416556e-03  0 
 2.467064e-03  -6.420179e-03  0 
 6.601323e-04  -6.714968e-03  0 
 9.423295e-04  -6.711897e-03  0 
 1.212061e-03  -6.709494e-03  0 
 1.470037e-03  -6.707928e-03  0 
 1.721157e-03  -6.705747e-03  0 
 1.972349e-03  -6.702882e-03  0 
 2.229754e-03  -6.702157e-03  0 
 2.497248e-03  -6.706298e-03  0 
 6.550648e-04  -7.011777e-03  0 
 9.344814e-04  -7.009758e-03  0 
 1.203101e-03  -7.006155e-03  0 
 1.462191e-03  -7.001966e-03  0 
 1.716753e-03  -6.998547e-03  0 
 1.974105e-03  -6.996445e-03  0 
 2.240200e-03  -6.996120e-03  0 