# vtk DataFile Version 3.1
this is an vtk file created by FEMAC
ASCII
DATASET UNSTRUCTURED_GRID
POINTS 100 FLOAT
5.000000 5.000000 0.000000
5.000000 6.000000 0.000000
6.000000 5.000000 0.000000
6.000000 6.000000 0.000000
5.000000 5.111111 0.000000
5.000000 5.222222 0.000000
5.000000 5.333333 0.000000
5.000000 5.444444 0.000000
5.000000 5.555556 0.000000
5.000000 5.666667 0.000000
5.000000 5.777778 0.000000
5.000000 5.888889 0.000000
5.111111 5.000000 0.000000
5.222222 5.000000 0.000000
5.333333 5.000000 0.000000
5.444444 5.000000 0.000000
5.555556 5.000000 0.000000
5.666667 5.000000 0.000000
5.777778 5.000000 0.000000
5.888889 5.000000 0.000000
5.111111 6.000000 0.000000
5.222222 6.000000 0.000000
5.333333 6.000000 0.000000
5.444444 6.000000 0.000000
5.555556 6.000000 0.000000
5.666667 6.000000 0.000000
5.777778 6.000000 0.000000
5.888889 6.000000 0.000000
6.000000 5.111111 0.000000
6.000000 5.222222 0.000000
6.000000 5.333333 0.000000
6.000000 5.444444 0.000000
6.000000 5.555556 0.000000
6.000000 5.666667 0.000000
6.000000 5.777778 0.000000
6.000000 5.888889 0.000000
5.111111 5.111111 0.000000
5.111111 5.222222 0.000000
5.111111 5.333333 0.000000
5.111111 5.444444 0.000000
5.111111 5.555556 0.000000
5.111111 5.666667 0.000000
5.111111 5.777778 0.000000
5.111111 5.888889 0.000000
5.222222 5.111111 0.000000
5.222222 5.222222 0.000000
5.222222 5.333333 0.000000
5.222222 5.444444 0.000000
5.222222 5.555556 0.000000
5.222222 5.666667 0.000000
5.222222 5.777778 0.000000
5.222222 5.888889 0.000000
5.333333 5.111111 0.000000
5.333333 5.222222 0.000000
5.333333 5.333333 0.000000
5.333333 5.444444 0.000000
5.333333 5.555556 0.000000
5.333333 5.666667 0.000000
5.333333 5.777778 0.000000
5.333333 5.888889 0.000000
5.444444 5.111111 0.000000
5.444444 5.222222 0.000000
5.444444 5.333333 0.000000
5.444444 5.444444 0.000000
5.444444 5.555556 0.000000
5.444444 5.666667 0.000000
5.444444 5.777778 0.000000
5.444444 5.888889 0.000000
5.555556 5.111111 0.000000
5.555556 5.222222 0.000000
5.555556 5.333333 0.000000
5.555556 5.444444 0.000000
5.555556 5.555556 0.000000
5.555556 5.666667 0.000000
5.555556 5.777778 0.000000
5.555556 5.888889 0.000000
5.666667 5.111111 0.000000
5.666667 5.222222 0.000000
5.666667 5.333333 0.000000
5.666667 5.444444 0.000000
5.666667 5.555556 0.000000
5.666667 5.666667 0.000000
5.666667 5.777778 0.000000
5.666667 5.888889 0.000000
5.777778 5.111111 0.000000
5.777778 5.222222 0.000000
5.777778 5.333333 0.000000
5.777778 5.444444 0.000000
5.777778 5.555556 0.000000
5.777778 5.666667 0.000000
5.777778 5.777778 0.000000
5.777778 5.888889 0.000000
5.888889 5.111111 0.000000
5.888889 5.222222 0.000000
5.888889 5.333333 0.000000
5.888889 5.444444 0.000000
5.888889 5.555556 0.000000
5.888889 5.666667 0.000000
5.888889 5.777778 0.000000
5.888889 5.888889 0.000000
CELLS 81 405 
4 0 12 36  4
4 4 36 37  5
4 5 37 38  6
4 6 38 39  7
4 7 39 40  8
4 8 40 41  9
4 9 41 42 10
4 10 42 43 11
4 11 43 20  1
4 12 13 44 36
4 36 44 45 37
4 37 45 46 38
4 38 46 47 39
4 39 47 48 40
4 40 48 49 41
4 41 49 50 42
4 42 50 51 43
4 43 51 21 20
4 13 14 52 44
4 44 52 53 45
4 45 53 54 46
4 46 54 55 47
4 47 55 56 48
4 48 56 57 49
4 49 57 58 50
4 50 58 59 51
4 51 59 22 21
4 14 15 60 52
4 52 60 61 53
4 53 61 62 54
4 54 62 63 55
4 55 63 64 56
4 56 64 65 57
4 57 65 66 58
4 58 66 67 59
4 59 67 23 22
4 15 16 68 60
4 60 68 69 61
4 61 69 70 62
4 62 70 71 63
4 63 71 72 64
4 64 72 73 65
4 65 73 74 66
4 66 74 75 67
4 67 75 24 23
4 16 17 76 68
4 68 76 77 69
4 69 77 78 70
4 70 78 79 71
4 71 79 80 72
4 72 80 81 73
4 73 81 82 74
4 74 82 83 75
4 75 83 25 24
4 17 18 84 76
4 76 84 85 77
4 77 85 86 78
4 78 86 87 79
4 79 87 88 80
4 80 88 89 81
4 81 89 90 82
4 82 90 91 83
4 83 91 26 25
4 18 19 92 84
4 84 92 93 85
4 85 93 94 86
4 86 94 95 87
4 87 95 96 88
4 88 96 97 89
4 89 97 98 90
4 90 98 99 91
4 91 99 27 26
4 19  2 28 92
4 92 28 29 93
4 93 29 30 94
4 94 30 31 95
4 95 31 32 96
4 96 32 33 97
4 97 33 34 98
4 98 34 35 99
4 99 35  3 27
CELL_TYPES 81
9 9 9 9 9 9 9 9 9 9 9 9 9 9 9 9 9 9 9 9 9 9 9 9 9 9 9 9 9 9 9 9 9 9 9 9 9 9 9 9 9 9 9 9 9 9 9 9 9 9 9 9 9 9 9 9 9 9 9 9 9 9 9 9 9 9 9 9 9 9 9 9 9 9 9 9 9 9 9 9 9 
POINT_DATA 100
VECTORS displacement_ITER1 FLOAT
 9.271905e-03  -1.729417e-02  0 
 1.381419e-02  -1.741050e-02  0 
 9.294272e-03  -2.193826e-02  0 
 1.384468e-02  -2.194123e-02  0 
 9.797608e-03  -1.733600e-02  0 
 1.030718e-02  -1.735796e-02  0 
 1.081155e-02  -1.737318e-02  0 
 1.131497e-02  -1.738345e-02  0 
 1.181764e-02  -1.739039e-02  0 
 1.231945e-02  -1.739539e-02  0 
 1.282079e-02  -1.739927e-02  0 
 1.332170e-02  -1.740433e-02  0 
 9.272134e-03  -1.785621e-02  0 
 9.277598e-03  -1.838045e-02  0 
 9.281811e-03  -1.889597e-02  0 
 9.284752e-03  -1.940728e-02  0 
 9.286740e-03  -1.991667e-02  0 
 9.288339e-03  -2.042470e-02  0 
 9.289737e-03  -2.093172e-02  0 
 9.291861e-03  -2.143783e-02  0 
 1.382243e-02  -1.790337e-02  0 
 1.382894e-02  -1.840390e-02  0 
 1.383409e-02  -1.890672e-02  0 
 1.383817e-02  -1.941099e-02  0 
 1.384117e-02  -1.991631e-02  0 
 1.384314e-02  -2.042231e-02  0 
 1.384420e-02  -2.092865e-02  0 
 1.384460e-02  -2.143500e-02  0 
 9.795963e-03  -2.194137e-02  0 
 1.030157e-02  -2.194259e-02  0 
 1.080787e-02  -2.194271e-02  0 
 1.131423e-02  -2.194232e-02  0 
 1.182047e-02  -2.194176e-02  0 
 1.232655e-02  -2.194131e-02  0 
 1.283253e-02  -2.194111e-02  0 
 1.333854e-02  -2.194115e-02  0 
 9.800188e-03  -1.785818e-02  0 
 1.031008e-02  -1.786845e-02  0 
 1.081504e-02  -1.787815e-02  0 
 1.131801e-02  -1.788607e-02  0 
 1.182032e-02  -1.789198e-02  0 
 1.232227e-02  -1.789637e-02  0 
 1.282399e-02  -1.789983e-02  0 
 1.332435e-02  -1.790194e-02  0 
 9.795786e-03  -1.838151e-02  0 
 1.030893e-02  -1.838263e-02  0 
 1.081567e-02  -1.838670e-02  0 
 1.131959e-02  -1.839135e-02  0 
 1.182231e-02  -1.839550e-02  0 
 1.232455e-02  -1.839880e-02  0 
 1.282634e-02  -1.840106e-02  0 
 1.332755e-02  -1.840245e-02  0 
 9.794638e-03  -1.889649e-02  0 
 1.030600e-02  -1.889629e-02  0 
 1.081423e-02  -1.889680e-02  0 
 1.131951e-02  -1.889854e-02  0 
 1.182315e-02  -1.890072e-02  0 
 1.232597e-02  -1.890269e-02  0 
 1.282841e-02  -1.890420e-02  0 
 1.333095e-02  -1.890544e-02  0 
 9.794678e-03  -1.940765e-02  0 
 1.030415e-02  -1.940719e-02  0 
 1.081219e-02  -1.940662e-02  0 
 1.131837e-02  -1.940659e-02  0 
 1.182299e-02  -1.940717e-02  0 
 1.232671e-02  -1.940805e-02  0 
 1.283014e-02  -1.940900e-02  0 
 1.333381e-02  -1.940997e-02  0 
 9.795076e-03  -1.991675e-02  0 
 1.030314e-02  -1.991622e-02  0 
 1.081054e-02  -1.991534e-02  0 
 1.131694e-02  -1.991460e-02  0 
 1.182232e-02  -1.991429e-02  0 
 1.232696e-02  -1.991445e-02  0 
 1.283134e-02  -1.991492e-02  0 
 1.333593e-02  -1.991558e-02  0 
 9.795524e-03  -2.042462e-02  0 
 1.030257e-02  -2.042400e-02  0 
 1.080935e-02  -2.042305e-02  0 
 1.131573e-02  -2.042215e-02  0 
 1.182158e-02  -2.042155e-02  0 
 1.232692e-02  -2.042134e-02  0 
 1.283205e-02  -2.042148e-02  0 
 1.333732e-02  -2.042186e-02  0 
 9.795987e-03  -2.093158e-02  0 
 1.030209e-02  -2.093078e-02  0 
 1.080851e-02  -2.092995e-02  0 
 1.131490e-02  -2.092922e-02  0 
 1.182100e-02  -2.092864e-02  0 
 1.232678e-02  -2.092830e-02  0 
 1.283240e-02  -2.092824e-02  0 
 1.333811e-02  -2.092841e-02  0 
 9.795956e-03  -2.143712e-02  0 
 1.030165e-02  -2.143674e-02  0 
 1.080804e-02  -2.143639e-02  0 
 1.131445e-02  -2.143590e-02  0 
 1.182066e-02  -2.143539e-02  0 
 1.232665e-02  -2.143502e-02  0 
 1.283252e-02  -2.143487e-02  0 
 1.333845e-02  -2.143491e-02  0 
VECTORS displacement_ITER2 FLOAT
 7.173710e-03  -1.350242e-02  0 
 1.098374e-02  -1.362436e-02  0 
 7.205013e-03  -1.740852e-02  0 
 1.101124e-02  -1.741258e-02  0 
 7.623964e-03  -1.354772e-02  0 
 8.051383e-03  -1.357267e-02  0 
 8.474546e-03  -1.358874e-02  0 
 8.895583e-03  -1.359891e-02  0 
 9.315769e-03  -1.360607e-02  0 
 9.734944e-03  -1.361100e-02  0 
 1.015357e-02  -1.361423e-02  0 
 1.057199e-02  -1.361831e-02  0 
 7.177234e-03  -1.398899e-02  0 
 7.186218e-03  -1.443187e-02  0 
 7.191755e-03  -1.486457e-02  0 
 7.195471e-03  -1.529277e-02  0 
 7.197756e-03  -1.571892e-02  0 
 7.199702e-03  -1.614352e-02  0 
 7.201651e-03  -1.656657e-02  0 
 7.204028e-03  -1.698901e-02  0 
 1.099084e-02  -1.403566e-02  0 
 1.099666e-02  -1.445387e-02  0 
 1.100139e-02  -1.487411e-02  0 
 1.100517e-02  -1.529572e-02  0 
 1.100798e-02  -1.571835e-02  0 
 1.100981e-02  -1.614167e-02  0 
 1.101079e-02  -1.656532e-02  0 
 1.101116e-02  -1.698901e-02  0 
 7.625236e-03  -1.741079e-02  0 
 8.047517e-03  -1.741230e-02  0 
 8.470676e-03  -1.741294e-02  0 
 8.894138e-03  -1.741300e-02  0 
 9.317624e-03  -1.741277e-02  0 
 9.741028e-03  -1.741252e-02  0 
 1.016437e-02  -1.741243e-02  0 
 1.058775e-02  -1.741250e-02  0 
 7.626451e-03  -1.399071e-02  0 
 8.055170e-03  -1.400101e-02  0 
 8.477813e-03  -1.401110e-02  0 
 8.898432e-03  -1.401904e-02  0 
 9.318219e-03  -1.402487e-02  0 
 9.737462e-03  -1.402907e-02  0 
 1.015652e-02  -1.403229e-02  0 
 1.057469e-02  -1.403436e-02  0 
 7.622240e-03  -1.443287e-02  0 
 8.053776e-03  -1.443344e-02  0 
 8.478353e-03  -1.443721e-02  0 
 8.899797e-03  -1.444173e-02  0 
 9.319942e-03  -1.444573e-02  0 
 9.739570e-03  -1.444889e-02  0 
 1.015884e-02  -1.445112e-02  0 
 1.057767e-02  -1.445251e-02  0 
 7.621749e-03  -1.486511e-02  0 
 8.050719e-03  -1.486469e-02  0 
 8.476665e-03  -1.486483e-02  0 
 8.899495e-03  -1.486631e-02  0 
 9.320590e-03  -1.486832e-02  0 
 9.740862e-03  -1.487021e-02  0 
 1.016079e-02  -1.487170e-02  0 
 1.058081e-02  -1.487290e-02  0 
 7.622268e-03  -1.529317e-02  0 
 8.048988e-03  -1.529266e-02  0 
 8.474474e-03  -1.529192e-02  0 
 8.898162e-03  -1.529168e-02  0 
 9.320275e-03  -1.529213e-02  0 
 9.741469e-03  -1.529293e-02  0 
 1.016235e-02  -1.529384e-02  0 
 1.058345e-02  -1.529476e-02  0 
 7.622999e-03  -1.571905e-02  0 
 8.048144e-03  -1.571857e-02  0 
 8.472826e-03  -1.571770e-02  0 
 8.896640e-03  -1.571690e-02  0 
 9.319481e-03  -1.571653e-02  0 
 9.741584e-03  -1.571662e-02  0 
 1.016340e-02  -1.571705e-02  0 
 1.058539e-02  -1.571767e-02  0 
 7.623678e-03  -1.614359e-02  0 
 8.047749e-03  -1.614317e-02  0 
 8.471722e-03  -1.614238e-02  0 
 8.895428e-03  -1.614157e-02  0 
 9.318663e-03  -1.614099e-02  0 
 9.741439e-03  -1.614077e-02  0 
 1.016398e-02  -1.614089e-02  0 
 1.058665e-02  -1.614124e-02  0 
 7.624416e-03  -1.656709e-02  0 
 8.047499e-03  -1.656677e-02  0 
 8.471032e-03  -1.656626e-02  0 
 8.894644e-03  -1.656571e-02  0 
 9.318072e-03  -1.656523e-02  0 
 9.741241e-03  -1.656496e-02  0 
 1.016426e-02  -1.656493e-02  0 
 1.058735e-02  -1.656510e-02  0 
 7.624830e-03  -1.698935e-02  0 
 8.047375e-03  -1.698962e-02  0 
 8.470703e-03  -1.698965e-02  0 
 8.894258e-03  -1.698946e-02  0 
 9.317756e-03  -1.698917e-02  0 
 9.741103e-03  -1.698893e-02  0 
 1.016435e-02  -1.698885e-02  0 
 1.058766e-02  -1.698892e-02  0 
VECTORS displacement_ITER3 FLOAT
 6.050737e-03  -1.202486e-02  0 
 9.645735e-03  -1.215026e-02  0 
 6.089814e-03  -1.571117e-02  0 
 9.672396e-03  -1.571592e-02  0 
 6.481558e-03  -1.207232e-02  0 
 6.886083e-03  -1.209862e-02  0 
 7.285563e-03  -1.211444e-02  0 
 7.681990e-03  -1.212468e-02  0 
 8.077074e-03  -1.213233e-02  0 
 8.471117e-03  -1.213787e-02  0 
 8.864669e-03  -1.214164e-02  0 
 9.257902e-03  -1.214541e-02  0 
 6.057465e-03  -1.249153e-02  0 
 6.068773e-03  -1.291022e-02  0 
 6.075722e-03  -1.331778e-02  0 
 6.080086e-03  -1.372058e-02  0 
 6.082687e-03  -1.412124e-02  0 
 6.084774e-03  -1.452063e-02  0 
 6.086579e-03  -1.491873e-02  0 
 6.088675e-03  -1.531592e-02  0 
 9.652185e-03  -1.253778e-02  0 
 9.657847e-03  -1.293098e-02  0 
 9.662603e-03  -1.332623e-02  0 
 9.666419e-03  -1.372295e-02  0 
 9.669217e-03  -1.412077e-02  0 
 9.671018e-03  -1.451931e-02  0 
 9.671969e-03  -1.491819e-02  0 
 9.672321e-03  -1.531711e-02  0 
 6.485279e-03  -1.571329e-02  0 
 6.882590e-03  -1.571489e-02  0 
 7.280766e-03  -1.571572e-02  0 
 7.679289e-03  -1.571597e-02  0 
 8.077899e-03  -1.571590e-02  0 
 8.476487e-03  -1.571577e-02  0 
 8.875052e-03  -1.571573e-02  0 
 9.273666e-03  -1.571583e-02  0 
 6.484374e-03  -1.249295e-02  0 
 6.889726e-03  -1.250290e-02  0 
 7.288245e-03  -1.251279e-02  0 
 7.684453e-03  -1.252055e-02  0 
 8.079474e-03  -1.252643e-02  0 
 8.473727e-03  -1.253087e-02  0 
 8.867630e-03  -1.253424e-02  0 
 9.260729e-03  -1.253640e-02  0 
 6.480500e-03  -1.291115e-02  0 
 6.888071e-03  -1.291122e-02  0 
 7.288440e-03  -1.291456e-02  0 
 7.685432e-03  -1.291880e-02  0 
 8.080927e-03  -1.292266e-02  0 
 8.475686e-03  -1.292579e-02  0 
 8.869964e-03  -1.292807e-02  0 
 9.263836e-03  -1.292957e-02  0 
 6.480573e-03  -1.331839e-02  0 
 6.884959e-03  -1.331776e-02  0 
 7.286483e-03  -1.331758e-02  0 
 7.684814e-03  -1.331877e-02  0 
 8.081275e-03  -1.332057e-02  0 
 8.476783e-03  -1.332233e-02  0 
 8.871857e-03  -1.332379e-02  0 
 9.266968e-03  -1.332501e-02  0 
 6.481559e-03  -1.372112e-02  0 
 6.883368e-03  -1.372065e-02  0 
 7.284180e-03  -1.371979e-02  0 
 7.683261e-03  -1.371936e-02  0 
 8.080728e-03  -1.371962e-02  0 
 8.477202e-03  -1.372029e-02  0 
 8.873296e-03  -1.372111e-02  0 
 9.269547e-03  -1.372200e-02  0 
 6.482616e-03  -1.412166e-02  0 
 6.882716e-03  -1.412136e-02  0 
 7.282555e-03  -1.412053e-02  0 
 7.681643e-03  -1.411968e-02  0 
 8.079784e-03  -1.411920e-02  0 
 8.477168e-03  -1.411919e-02  0 
 8.874223e-03  -1.411954e-02  0 
 9.271424e-03  -1.412011e-02  0 
 6.483494e-03  -1.452097e-02  0 
 6.882490e-03  -1.452077e-02  0 
 7.281546e-03  -1.452014e-02  0 
 7.680428e-03  -1.451938e-02  0 
 8.078897e-03  -1.451879e-02  0 
 8.476928e-03  -1.451852e-02  0 
 8.874726e-03  -1.451858e-02  0 
 9.272630e-03  -1.451890e-02  0 
 6.484281e-03  -1.491934e-02  0 
 6.882392e-03  -1.491929e-02  0 
 7.280967e-03  -1.491898e-02  0 
 7.679687e-03  -1.491855e-02  0 
 8.078293e-03  -1.491813e-02  0 
 8.476688e-03  -1.491786e-02  0 
 8.874952e-03  -1.491782e-02  0 
 9.273292e-03  -1.491798e-02  0 
 6.484801e-03  -1.531669e-02  0 
 6.882383e-03  -1.531717e-02  0 
 7.280727e-03  -1.531739e-02  0 
 7.679355e-03  -1.531735e-02  0 
 8.077996e-03  -1.531716e-02  0 
 8.476545e-03  -1.531699e-02  0 
 8.875030e-03  -1.531694e-02  0 
 9.273579e-03  -1.531702e-02  0 
VECTORS displacement_ITER4 FLOAT
 5.703834e-03  -1.154377e-02  0 
 9.188491e-03  -1.167056e-02  0 
 5.743471e-03  -1.512129e-02  0 
 9.215979e-03  -1.512537e-02  0 
 6.122806e-03  -1.159282e-02  0 
 6.515469e-03  -1.161894e-02  0 
 6.902247e-03  -1.163396e-02  0 
 7.286561e-03  -1.164429e-02  0 
 7.669909e-03  -1.165217e-02  0 
 8.052313e-03  -1.165831e-02  0 
 8.433631e-03  -1.166298e-02  0 
 8.813293e-03  -1.166698e-02  0 
 5.711232e-03  -1.199941e-02  0 
 5.722946e-03  -1.240569e-02  0 
 5.730199e-03  -1.280078e-02  0 
 5.734655e-03  -1.319125e-02  0 
 5.737464e-03  -1.357959e-02  0 
 5.739374e-03  -1.396678e-02  0 
 5.740738e-03  -1.435305e-02  0 
 5.742056e-03  -1.473809e-02  0 
 9.195075e-03  -1.204623e-02  0 
 9.201048e-03  -1.242673e-02  0 
 9.206026e-03  -1.280954e-02  0 
 9.209951e-03  -1.319394e-02  0 
 9.212792e-03  -1.357947e-02  0 
 9.214605e-03  -1.396571e-02  0 
 9.215555e-03  -1.435228e-02  0 
 9.215904e-03  -1.473889e-02  0 
 6.126910e-03  -1.512339e-02  0 
 6.512287e-03  -1.512474e-02  0 
 6.898291e-03  -1.512536e-02  0 
 7.284524e-03  -1.512549e-02  0 
 7.670802e-03  -1.512537e-02  0 
 8.057051e-03  -1.512522e-02  0 
 8.443282e-03  -1.512518e-02  0 
 8.829570e-03  -1.512529e-02  0 
 6.126019e-03  -1.200078e-02  0 
 6.518889e-03  -1.201070e-02  0 
 6.905163e-03  -1.202050e-02  0 
 7.289341e-03  -1.202834e-02  0 
 7.672462e-03  -1.203446e-02  0 
 8.054756e-03  -1.203911e-02  0 
 8.436188e-03  -1.204248e-02  0 
 8.816322e-03  -1.204462e-02  0 
 6.122228e-03  -1.240667e-02  0 
 6.517452e-03  -1.240674e-02  0 
 6.905578e-03  -1.241016e-02  0 
 7.290475e-03  -1.241451e-02  0 
 7.673900e-03  -1.241845e-02  0 
 8.056448e-03  -1.242157e-02  0 
 8.438291e-03  -1.242377e-02  0 
 8.819611e-03  -1.242526e-02  0 
 6.122504e-03  -1.280154e-02  0 
 6.514526e-03  -1.280102e-02  0 
 6.903790e-03  -1.280092e-02  0 
 7.289921e-03  -1.280219e-02  0 
 7.674173e-03  -1.280401e-02  0 
 8.057392e-03  -1.280573e-02  0 
 8.440098e-03  -1.280711e-02  0 
 8.822794e-03  -1.280830e-02  0 
 6.123679e-03  -1.319193e-02  0 
 6.513083e-03  -1.319157e-02  0 
 6.901586e-03  -1.319081e-02  0 
 7.288396e-03  -1.319044e-02  0 
 7.673582e-03  -1.319071e-02  0 
 8.057747e-03  -1.319134e-02  0 
 8.441503e-03  -1.319212e-02  0 
 8.825405e-03  -1.319298e-02  0 
 6.124811e-03  -1.358014e-02  0 
 6.512517e-03  -1.357994e-02  0 
 6.900022e-03  -1.357919e-02  0 
 7.286804e-03  -1.357840e-02  0 
 7.672636e-03  -1.357794e-02  0 
 8.057698e-03  -1.357792e-02  0 
 8.442426e-03  -1.357825e-02  0 
 8.827304e-03  -1.357880e-02  0 
 6.125676e-03  -1.396717e-02  0 
 6.512307e-03  -1.396703e-02  0 
 6.899056e-03  -1.396648e-02  0 
 7.285624e-03  -1.396578e-02  0 
 7.671768e-03  -1.396520e-02  0 
 8.057468e-03  -1.396493e-02  0 
 8.442938e-03  -1.396499e-02  0 
 8.828524e-03  -1.396530e-02  0 
 6.126258e-03  -1.435335e-02  0 
 6.512194e-03  -1.435332e-02  0 
 6.898507e-03  -1.435305e-02  0 
 7.284917e-03  -1.435265e-02  0 
 7.671188e-03  -1.435223e-02  0 
 8.057243e-03  -1.435196e-02  0 
 8.443175e-03  -1.435192e-02  0 
 8.829194e-03  -1.435207e-02  0 
 6.126587e-03  -1.473871e-02  0 
 6.512139e-03  -1.473909e-02  0 
 6.898279e-03  -1.473925e-02  0 
 7.284601e-03  -1.473917e-02  0 
 7.670903e-03  -1.473896e-02  0 
 8.057108e-03  -1.473877e-02  0 
 8.443259e-03  -1.473872e-02  0 
 8.829483e-03  -1.473880e-02  0 
VECTORS displacement_ITER5 FLOAT
 5.530988e-03  -1.141794e-02  0 
 9.001364e-03  -1.154342e-02  0 
 5.569513e-03  -1.498062e-02  0 
 9.028115e-03  -1.498409e-02  0 
 5.948155e-03  -1.146721e-02  0 
 6.338846e-03  -1.149283e-02  0 
 6.723668e-03  -1.150776e-02  0 
 7.106593e-03  -1.151802e-02  0 
 7.488548e-03  -1.152551e-02  0 
 7.869468e-03  -1.153132e-02  0 
 8.249203e-03  -1.153606e-02  0 
 8.627117e-03  -1.154014e-02  0 
 5.538762e-03  -1.187103e-02  0 
 5.550193e-03  -1.227556e-02  0 
 5.557236e-03  -1.266912e-02  0 
 5.561514e-03  -1.305816e-02  0 
 5.564337e-03  -1.344488e-02  0 
 5.566265e-03  -1.383028e-02  0 
 5.567664e-03  -1.421476e-02  0 
 5.568629e-03  -1.459823e-02  0 
 9.007576e-03  -1.191791e-02  0 
 9.013439e-03  -1.229682e-02  0 
 9.018340e-03  -1.267806e-02  0 
 9.022194e-03  -1.306087e-02  0 
 9.024981e-03  -1.344478e-02  0 
 9.026762e-03  -1.382938e-02  0 
 9.027697e-03  -1.421431e-02  0 
 9.028042e-03  -1.459926e-02  0 
 5.952115e-03  -1.498231e-02  0 
 6.335951e-03  -1.498347e-02  0 
 6.720311e-03  -1.498405e-02  0 
 7.104896e-03  -1.498419e-02  0 
 7.489530e-03  -1.498408e-02  0 
 7.874134e-03  -1.498393e-02  0 
 8.258719e-03  -1.498390e-02  0 
 8.643358e-03  -1.498400e-02  0 
 5.951317e-03  -1.187274e-02  0 
 6.342269e-03  -1.188272e-02  0 
 6.726826e-03  -1.189252e-02  0 
 7.109369e-03  -1.190031e-02  0 
 7.490956e-03  -1.190629e-02  0 
 7.871789e-03  -1.191079e-02  0 
 8.251710e-03  -1.191408e-02  0 
 8.630297e-03  -1.191625e-02  0 
 5.947633e-03  -1.227667e-02  0 
 6.340977e-03  -1.227690e-02  0 
 6.727348e-03  -1.228040e-02  0 
 7.110576e-03  -1.228476e-02  0 
 7.492408e-03  -1.228868e-02  0 
 7.873426e-03  -1.229174e-02  0 
 8.253762e-03  -1.229389e-02  0 
 8.633563e-03  -1.229537e-02  0 
 5.947883e-03  -1.266990e-02  0 
 6.338146e-03  -1.266944e-02  0 
 6.725658e-03  -1.266943e-02  0 
 7.110103e-03  -1.267075e-02  0 
 7.492731e-03  -1.267259e-02  0 
 7.874377e-03  -1.267431e-02  0 
 8.255536e-03  -1.267568e-02  0 
 8.636680e-03  -1.267684e-02  0 
 5.948987e-03  -1.305873e-02  0 
 6.336710e-03  -1.305835e-02  0 
 6.723513e-03  -1.305762e-02  0 
 7.108647e-03  -1.305731e-02  0 
 7.492196e-03  -1.305763e-02  0 
 7.874756e-03  -1.305829e-02  0 
 8.256926e-03  -1.305908e-02  0 
 8.639244e-03  -1.305993e-02  0 
 5.950034e-03  -1.344534e-02  0 
 6.336109e-03  -1.344510e-02  0 
 6.721968e-03  -1.344437e-02  0 
 7.107103e-03  -1.344362e-02  0 
 7.491297e-03  -1.344321e-02  0 
 7.874735e-03  -1.344322e-02  0 
 8.257849e-03  -1.344357e-02  0 
 8.641115e-03  -1.344412e-02  0 
 5.950866e-03  -1.383068e-02  0 
 6.335872e-03  -1.383055e-02  0 
 6.721014e-03  -1.383003e-02  0 
 7.105956e-03  -1.382937e-02  0 
 7.490464e-03  -1.382883e-02  0 
 7.874527e-03  -1.382858e-02  0 
 8.258366e-03  -1.382866e-02  0 
 8.642320e-03  -1.382898e-02  0 
 5.951430e-03  -1.421515e-02  0 
 6.335783e-03  -1.421521e-02  0 
 6.720492e-03  -1.421499e-02  0 
 7.105272e-03  -1.421461e-02  0 
 7.489903e-03  -1.421422e-02  0 
 7.874316e-03  -1.421397e-02  0 
 8.258607e-03  -1.421394e-02  0 
 8.642983e-03  -1.421410e-02  0 
 5.951787e-03  -1.459894e-02  0 
 6.335788e-03  -1.459940e-02  0 
 6.720291e-03  -1.459958e-02  0 
 7.104969e-03  -1.459950e-02  0 
 7.489627e-03  -1.459930e-02  0 
 7.874188e-03  -1.459913e-02  0 
 8.258694e-03  -1.459908e-02  0 
 8.643271e-03  -1.459917e-02  0 
VECTORS displacement_ITER6 FLOAT
 5.436613e-03  -1.131206e-02  0 
 8.898351e-03  -1.143707e-02  0 
 5.475044e-03  -1.486579e-02  0 
 8.924657e-03  -1.486908e-02  0 
 5.852839e-03  -1.136130e-02  0 
 6.242595e-03  -1.138679e-02  0 
 6.626406e-03  -1.140192e-02  0 
 7.008324e-03  -1.141223e-02  0 
 7.389089e-03  -1.141962e-02  0 
 7.768868e-03  -1.142528e-02  0 
 8.147559e-03  -1.142996e-02  0 
 8.524512e-03  -1.143392e-02  0 
 5.444831e-03  -1.176393e-02  0 
 5.456018e-03  -1.216749e-02  0 
 5.462821e-03  -1.256020e-02  0 
 5.466968e-03  -1.294834e-02  0 
 5.469731e-03  -1.333408e-02  0 
 5.471660e-03  -1.371833e-02  0 
 5.473172e-03  -1.410160e-02  0 
 5.474226e-03  -1.448406e-02  0 
 8.904254e-03  -1.181091e-02  0 
 8.910002e-03  -1.218885e-02  0 
 8.914868e-03  -1.256908e-02  0 
 8.918715e-03  -1.295088e-02  0 
 8.921507e-03  -1.333378e-02  0 
 8.923295e-03  -1.371737e-02  0 
 8.924236e-03  -1.410129e-02  0 
 8.924583e-03  -1.448524e-02  0 
 5.856740e-03  -1.486728e-02  0 
 6.239507e-03  -1.486843e-02  0 
 6.622833e-03  -1.486904e-02  0 
 7.006415e-03  -1.486919e-02  0 
 7.390057e-03  -1.486908e-02  0 
 7.773669e-03  -1.486893e-02  0 
 8.157258e-03  -1.486889e-02  0 
 8.540899e-03  -1.486899e-02  0 
 5.856034e-03  -1.176577e-02  0 
 6.245985e-03  -1.177578e-02  0 
 6.629547e-03  -1.178558e-02  0 
 7.010999e-03  -1.179335e-02  0 
 7.391471e-03  -1.179929e-02  0 
 7.771224e-03  -1.180375e-02  0 
 8.150124e-03  -1.180702e-02  0 
 8.527806e-03  -1.180923e-02  0 
 5.852396e-03  -1.216861e-02  0 
 6.244670e-03  -1.216891e-02  0 
 6.630000e-03  -1.217240e-02  0 
 7.012167e-03  -1.217674e-02  0 
 7.392931e-03  -1.218065e-02  0 
 7.772906e-03  -1.218371e-02  0 
 8.152247e-03  -1.218588e-02  0 
 8.531095e-03  -1.218740e-02  0 
 5.852557e-03  -1.256089e-02  0 
 6.241803e-03  -1.256042e-02  0 
 6.628270e-03  -1.256040e-02  0 
 7.011674e-03  -1.256171e-02  0 
 7.393268e-03  -1.256355e-02  0 
 7.773895e-03  -1.256529e-02  0 
 8.154057e-03  -1.256668e-02  0 
 8.534211e-03  -1.256786e-02  0 
 5.853545e-03  -1.294879e-02  0 
 6.240297e-03  -1.294835e-02  0 
 6.626093e-03  -1.294759e-02  0 
 7.010208e-03  -1.294727e-02  0 
 7.392743e-03  -1.294759e-02  0 
 7.774295e-03  -1.294827e-02  0 
 8.155462e-03  -1.294907e-02  0 
 8.536775e-03  -1.294994e-02  0 
 5.854502e-03  -1.333443e-02  0 
 6.239630e-03  -1.333411e-02  0 
 6.624515e-03  -1.333335e-02  0 
 7.008655e-03  -1.333259e-02  0 
 7.391846e-03  -1.333218e-02  0 
 7.774280e-03  -1.333220e-02  0 
 8.156390e-03  -1.333256e-02  0 
 8.538649e-03  -1.333312e-02  0 
 5.855302e-03  -1.371872e-02  0 
 6.239362e-03  -1.371857e-02  0 
 6.623539e-03  -1.371803e-02  0 
 7.007495e-03  -1.371735e-02  0 
 7.391007e-03  -1.371681e-02  0 
 7.774072e-03  -1.371657e-02  0 
 8.156908e-03  -1.371664e-02  0 
 8.539857e-03  -1.371696e-02  0 
 5.855916e-03  -1.410212e-02  0 
 6.239287e-03  -1.410222e-02  0 
 6.623009e-03  -1.410200e-02  0 
 7.006800e-03  -1.410161e-02  0 
 7.390439e-03  -1.410121e-02  0 
 7.773857e-03  -1.410095e-02  0 
 8.157148e-03  -1.410092e-02  0 
 8.540523e-03  -1.410108e-02  0 
 5.856370e-03  -1.448490e-02  0 
 6.239326e-03  -1.448539e-02  0 
 6.622809e-03  -1.448558e-02  0 
 7.006489e-03  -1.448550e-02  0 
 7.390157e-03  -1.448530e-02  0 
 7.773725e-03  -1.448512e-02  0 
 8.157235e-03  -1.448507e-02  0 
 8.540812e-03  -1.448515e-02  0 
VECTORS displacement_ITER7 FLOAT
 5.361091e-03  -1.128420e-02  0 
 8.813145e-03  -1.140797e-02  0 
 5.399359e-03  -1.482704e-02  0 
 8.839049e-03  -1.483058e-02  0 
 5.775725e-03  -1.133303e-02  0 
 6.164516e-03  -1.135820e-02  0 
 6.547421e-03  -1.137329e-02  0 
 6.928226e-03  -1.138355e-02  0 
 7.307768e-03  -1.139098e-02  0 
 7.686457e-03  -1.139664e-02  0 
 8.064169e-03  -1.140119e-02  0 
 8.440213e-03  -1.140491e-02  0 
 5.369361e-03  -1.173425e-02  0 
 5.380181e-03  -1.213652e-02  0 
 5.386861e-03  -1.252810e-02  0 
 5.391105e-03  -1.291516e-02  0 
 5.394002e-03  -1.329990e-02  0 
 5.396040e-03  -1.368315e-02  0 
 5.397580e-03  -1.406529e-02  0 
 5.398630e-03  -1.444660e-02  0 
 8.818960e-03  -1.178099e-02  0 
 8.824578e-03  -1.215798e-02  0 
 8.829359e-03  -1.253716e-02  0 
 8.833158e-03  -1.291788e-02  0 
 8.835923e-03  -1.329968e-02  0 
 8.837696e-03  -1.368217e-02  0 
 8.838630e-03  -1.406499e-02  0 
 8.838975e-03  -1.444784e-02  0 
 5.779946e-03  -1.482863e-02  0 
 6.161594e-03  -1.482983e-02  0 
 6.543811e-03  -1.483047e-02  0 
 6.926291e-03  -1.483065e-02  0 
 7.308836e-03  -1.483056e-02  0 
 7.691352e-03  -1.483042e-02  0 
 8.073845e-03  -1.483039e-02  0 
 8.456388e-03  -1.483049e-02  0 
 5.779018e-03  -1.173613e-02  0 
 6.167878e-03  -1.174614e-02  0 
 6.550447e-03  -1.175587e-02  0 
 6.930842e-03  -1.176359e-02  0 
 7.310205e-03  -1.176951e-02  0 
 7.688850e-03  -1.177398e-02  0 
 8.066700e-03  -1.177721e-02  0 
 8.443413e-03  -1.177937e-02  0 
 5.775461e-03  -1.213768e-02  0 
 6.166610e-03  -1.213807e-02  0 
 6.550874e-03  -1.214159e-02  0 
 6.931983e-03  -1.214591e-02  0 
 7.311668e-03  -1.214979e-02  0 
 7.690558e-03  -1.215286e-02  0 
 8.068838e-03  -1.215503e-02  0 
 8.446669e-03  -1.215654e-02  0 
 5.775629e-03  -1.252886e-02  0 
 6.163805e-03  -1.252845e-02  0 
 6.549175e-03  -1.252847e-02  0 
 6.931494e-03  -1.252979e-02  0 
 7.312008e-03  -1.253162e-02  0 
 7.691561e-03  -1.253336e-02  0 
 8.070659e-03  -1.253477e-02  0 
 8.449760e-03  -1.253595e-02  0 
 5.776660e-03  -1.291571e-02  0 
 6.162340e-03  -1.291530e-02  0 
 6.547032e-03  -1.291456e-02  0 
 6.930047e-03  -1.291425e-02  0 
 7.311493e-03  -1.291458e-02  0 
 7.691968e-03  -1.291526e-02  0 
 8.072062e-03  -1.291607e-02  0 
 8.452302e-03  -1.291694e-02  0 
 5.777686e-03  -1.330029e-02  0 
 6.161700e-03  -1.329998e-02  0 
 6.545473e-03  -1.329923e-02  0 
 6.928509e-03  -1.329847e-02  0 
 7.310606e-03  -1.329807e-02  0 
 7.691956e-03  -1.329810e-02  0 
 8.072984e-03  -1.329846e-02  0 
 8.454158e-03  -1.329902e-02  0 
 5.778521e-03  -1.368351e-02  0 
 6.161445e-03  -1.368335e-02  0 
 6.544504e-03  -1.368280e-02  0 
 6.927357e-03  -1.368213e-02  0 
 7.309774e-03  -1.368160e-02  0 
 7.691749e-03  -1.368136e-02  0 
 8.073497e-03  -1.368145e-02  0 
 8.455355e-03  -1.368177e-02  0 
 5.779140e-03  -1.406579e-02  0 
 6.161367e-03  -1.406588e-02  0 
 6.543976e-03  -1.406566e-02  0 
 6.926666e-03  -1.406528e-02  0 
 7.309210e-03  -1.406489e-02  0 
 7.691535e-03  -1.406465e-02  0 
 8.073735e-03  -1.406462e-02  0 
 8.456015e-03  -1.406478e-02  0 
 5.779572e-03  -1.444740e-02  0 
 6.161405e-03  -1.444792e-02  0 
 6.543779e-03  -1.444813e-02  0 
 6.926359e-03  -1.444807e-02  0 
 7.308931e-03  -1.444788e-02  0 
 7.691405e-03  -1.444771e-02  0 
 8.073820e-03  -1.444767e-02  0 
 8.456301e-03  -1.444775e-02  0 
VECTORS displacement_ITER8 FLOAT
 5.314528e-03  -1.125542e-02  0 
 8.766103e-03  -1.138001e-02  0 
 5.353736e-03  -1.479771e-02  0 
 8.792342e-03  -1.480151e-02  0 
 5.729391e-03  -1.130439e-02  0 
 6.118359e-03  -1.132974e-02  0 
 6.501296e-03  -1.134492e-02  0 
 6.881973e-03  -1.135520e-02  0 
 7.261424e-03  -1.136269e-02  0 
 7.640059e-03  -1.136840e-02  0 
 8.017686e-03  -1.137297e-02  0 
 8.393637e-03  -1.137678e-02  0 
 5.323060e-03  -1.170571e-02  0 
 5.334080e-03  -1.210805e-02  0 
 5.340887e-03  -1.249957e-02  0 
 5.345165e-03  -1.288648e-02  0 
 5.348054e-03  -1.327111e-02  0 
 5.350094e-03  -1.365433e-02  0 
 5.351603e-03  -1.403647e-02  0 
 5.352769e-03  -1.441768e-02  0 
 8.772112e-03  -1.175264e-02  0 
 8.777809e-03  -1.212951e-02  0 
 8.782622e-03  -1.250859e-02  0 
 8.786438e-03  -1.288922e-02  0 
 8.789211e-03  -1.327093e-02  0 
 8.790988e-03  -1.365335e-02  0 
 8.791923e-03  -1.403609e-02  0 
 8.792268e-03  -1.441886e-02  0 
 5.733917e-03  -1.479948e-02  0 
 6.115455e-03  -1.480075e-02  0 
 6.497594e-03  -1.480140e-02  0 
 6.879994e-03  -1.480158e-02  0 
 7.262456e-03  -1.480149e-02  0 
 7.644889e-03  -1.480135e-02  0 
 8.027300e-03  -1.480132e-02  0 
 8.409762e-03  -1.480143e-02  0 
 5.732814e-03  -1.170765e-02  0 
 6.121731e-03  -1.171769e-02  0 
 6.504275e-03  -1.172743e-02  0 
 6.884601e-03  -1.173518e-02  0 
 7.263886e-03  -1.174113e-02  0 
 7.642447e-03  -1.174563e-02  0 
 8.020207e-03  -1.174889e-02  0 
 8.396778e-03  -1.175103e-02  0 
 5.729329e-03  -1.210922e-02  0 
 6.120456e-03  -1.210960e-02  0 
 6.504683e-03  -1.211311e-02  0 
 6.885734e-03  -1.211743e-02  0 
 7.265345e-03  -1.212132e-02  0 
 7.644147e-03  -1.212440e-02  0 
 8.022319e-03  -1.212657e-02  0 
 8.400022e-03  -1.212807e-02  0 
 5.729539e-03  -1.250032e-02  0 
 6.117654e-03  -1.249991e-02  0 
 6.502972e-03  -1.249993e-02  0 
 6.885231e-03  -1.250124e-02  0 
 7.265670e-03  -1.250307e-02  0 
 7.645133e-03  -1.250480e-02  0 
 8.024127e-03  -1.250620e-02  0 
 8.403122e-03  -1.250738e-02  0 
 5.730601e-03  -1.288706e-02  0 
 6.116203e-03  -1.288667e-02  0 
 6.500827e-03  -1.288594e-02  0 
 6.883771e-03  -1.288562e-02  0 
 7.265139e-03  -1.288594e-02  0 
 7.645525e-03  -1.288661e-02  0 
 8.025525e-03  -1.288741e-02  0 
 8.405671e-03  -1.288828e-02  0 
 5.731655e-03  -1.327155e-02  0 
 6.115583e-03  -1.327127e-02  0 
 6.499272e-03  -1.327052e-02  0 
 6.882225e-03  -1.326976e-02  0 
 7.264239e-03  -1.326935e-02  0 
 7.645503e-03  -1.326937e-02  0 
 8.026443e-03  -1.326972e-02  0 