# vtk DataFile Version 3.1
this is an vtk file created by FEMAC
ASCII
DATASET UNSTRUCTURED_GRID
POINTS 100 FLOAT
4.000000 3.000000 0.000000
4.000000 4.000000 0.000000
5.000000 3.000000 0.000000
5.000000 4.000000 0.000000
4.000000 3.111111 0.000000
4.000000 3.222222 0.000000
4.000000 3.333333 0.000000
4.000000 3.444444 0.000000
4.000000 3.555556 0.000000
4.000000 3.666667 0.000000
4.000000 3.777778 0.000000
4.000000 3.888889 0.000000
4.111111 3.000000 0.000000
4.222222 3.000000 0.000000
4.333333 3.000000 0.000000
4.444444 3.000000 0.000000
4.555556 3.000000 0.000000
4.666667 3.000000 0.000000
4.777778 3.000000 0.000000
4.888889 3.000000 0.000000
4.111111 4.000000 0.000000
4.222222 4.000000 0.000000
4.333333 4.000000 0.000000
4.444444 4.000000 0.000000
4.555556 4.000000 0.000000
4.666667 4.000000 0.000000
4.777778 4.000000 0.000000
4.888889 4.000000 0.000000
5.000000 3.111111 0.000000
5.000000 3.222222 0.000000
5.000000 3.333333 0.000000
5.000000 3.444444 0.000000
5.000000 3.555556 0.000000
5.000000 3.666667 0.000000
5.000000 3.777778 0.000000
5.000000 3.888889 0.000000
4.111111 3.111111 0.000000
4.111111 3.222222 0.000000
4.111111 3.333333 0.000000
4.111111 3.444444 0.000000
4.111111 3.555556 0.000000
4.111111 3.666667 0.000000
4.111111 3.777778 0.000000
4.111111 3.888889 0.000000
4.222222 3.111111 0.000000
4.222222 3.222222 0.000000
4.222222 3.333333 0.000000
4.222222 3.444444 0.000000
4.222222 3.555556 0.000000
4.222222 3.666667 0.000000
4.222222 3.777778 0.000000
4.222222 3.888889 0.000000
4.333333 3.111111 0.000000
4.333333 3.222222 0.000000
4.333333 3.333333 0.000000
4.333333 3.444444 0.000000
4.333333 3.555556 0.000000
4.333333 3.666667 0.000000
4.333333 3.777778 0.000000
4.333333 3.888889 0.000000
4.444444 3.111111 0.000000
4.444444 3.222222 0.000000
4.444444 3.333333 0.000000
4.444444 3.444444 0.000000
4.444444 3.555556 0.000000
4.444444 3.666667 0.000000
4.444444 3.777778 0.000000
4.444444 3.888889 0.000000
4.555556 3.111111 0.000000
4.555556 3.222222 0.000000
4.555556 3.333333 0.000000
4.555556 3.444444 0.000000
4.555556 3.555556 0.000000
4.555556 3.666667 0.000000
4.555556 3.777778 0.000000
4.555556 3.888889 0.000000
4.666667 3.111111 0.000000
4.666667 3.222222 0.000000
4.666667 3.333333 0.000000
4.666667 3.444444 0.000000
4.666667 3.555556 0.000000
4.666667 3.666667 0.000000
4.666667 3.777778 0.000000
4.666667 3.888889 0.000000
4.777778 3.111111 0.000000
4.777778 3.222222 0.000000
4.777778 3.333333 0.000000
4.777778 3.444444 0.000000
4.777778 3.555556 0.000000
4.777778 3.666667 0.000000
4.777778 3.777778 0.000000
4.777778 3.888889 0.000000
4.888889 3.111111 0.000000
4.888889 3.222222 0.000000
4.888889 3.333333 0.000000
4.888889 3.444444 0.000000
4.888889 3.555556 0.000000
4.888889 3.666667 0.000000
4.888889 3.777778 0.000000
4.888889 3.888889 0.000000
CELLS 81 405 
4 0 12 36  4
4 4 36 37  5
4 5 37 38  6
4 6 38 39  7
4 7 39 40  8
4 8 40 41  9
4 9 41 42 10
4 10 42 43 11
4 11 43 20  1
4 12 13 44 36
4 36 44 45 37
4 37 45 46 38
4 38 46 47 39
4 39 47 48 40
4 40 48 49 41
4 41 49 50 42
4 42 50 51 43
4 43 51 21 20
4 13 14 52 44
4 44 52 53 45
4 45 53 54 46
4 46 54 55 47
4 47 55 56 48
4 48 56 57 49
4 49 57 58 50
4 50 58 59 51
4 51 59 22 21
4 14 15 60 52
4 52 60 61 53
4 53 61 62 54
4 54 62 63 55
4 55 63 64 56
4 56 64 65 57
4 57 65 66 58
4 58 66 67 59
4 59 67 23 22
4 15 16 68 60
4 60 68 69 61
4 61 69 70 62
4 62 70 71 63
4 63 71 72 64
4 64 72 73 65
4 65 73 74 66
4 66 74 75 67
4 67 75 24 23
4 16 17 76 68
4 68 76 77 69
4 69 77 78 70
4 70 78 79 71
4 71 79 80 72
4 72 80 81 73
4 73 81 82 74
4 74 82 83 75
4 75 83 25 24
4 17 18 84 76
4 76 84 85 77
4 77 85 86 78
4 78 86 87 79
4 79 87 88 80
4 80 88 89 81
4 81 89 90 82
4 82 90 91 83
4 83 91 26 25
4 18 19 92 84
4 84 92 93 85
4 85 93 94 86
4 86 94 95 87
4 87 95 96 88
4 88 96 97 89
4 89 97 98 90
4 90 98 99 91
4 91 99 27 26
4 19  2 28 92
4 92 28 29 93
4 93 29 30 94
4 94 30 31 95
4 95 31 32 96
4 96 32 33 97
4 97 33 34 98
4 98 34 35 99
4 99 35  3 27
CELL_TYPES 81
9 9 9 9 9 9 9 9 9 9 9 9 9 9 9 9 9 9 9 9 9 9 9 9 9 9 9 9 9 9 9 9 9 9 9 9 9 9 9 9 9 9 9 9 9 9 9 9 9 9 9 9 9 9 9 9 9 9 9 9 9 9 9 9 9 9 9 9 9 9 9 9 9 9 9 9 9 9 9 9 9 
POINT_DATA 100
VECTORS displacement_ITER1 FLOAT
 1.150094e-03  -1.233446e-02  0 
 5.252819e-03  -1.284171e-02  0 
 1.184691e-03  -1.700150e-02  0 
 5.517743e-03  -1.698470e-02  0 
 1.045048e-03  -1.174355e-02  0 
 1.402033e-03  -1.188122e-02  0 
 2.102301e-03  -1.207591e-02  0 
 2.691963e-03  -1.222750e-02  0 
 3.098708e-03  -1.220482e-02  0 
 3.414985e-03  -1.195916e-02  0 
 3.805326e-03  -1.167514e-02  0 
 4.321481e-03  -1.196497e-02  0 
 1.459352e-03  -1.262591e-02  0 
 1.441335e-03  -1.329724e-02  0 
 1.249148e-03  -1.380797e-02  0 
 1.063746e-03  -1.442497e-02  0 
 1.140002e-03  -1.502879e-02  0 
 1.097162e-03  -1.551903e-02  0 
 1.070184e-03  -1.594221e-02  0 
 9.574627e-04  -1.616999e-02  0 
 4.391017e-03  -1.338613e-02  0 
 4.730715e-03  -1.395144e-02  0 
 5.086547e-03  -1.430040e-02  0 
 5.318278e-03  -1.487025e-02  0 
 5.255011e-03  -1.551246e-02  0 
 4.958997e-03  -1.596242e-02  0 
 4.783225e-03  -1.614752e-02  0 
 5.032851e-03  -1.631475e-02  0 
 1.550036e-03  -1.722768e-02  0 
 2.005540e-03  -1.699809e-02  0 
 2.379043e-03  -1.688515e-02  0 
 2.817201e-03  -1.685283e-02  0 
 3.311166e-03  -1.685350e-02  0 
 3.774908e-03  -1.688609e-02  0 
 4.122027e-03  -1.695853e-02  0 
 4.551745e-03  -1.709035e-02  0 
 1.360444e-03  -1.265915e-02  0 
 1.720423e-03  -1.270263e-02  0 
 2.195430e-03  -1.279214e-02  0 
 2.657472e-03  -1.280681e-02  0 
 3.036653e-03  -1.276162e-02  0 
 3.412643e-03  -1.271876e-02  0 
 3.912953e-03  -1.280501e-02  0 
 4.486840e-03  -1.311114e-02  0 
 1.549499e-03  -1.323833e-02  0 
 1.851190e-03  -1.332633e-02  0 
 2.252518e-03  -1.338352e-02  0 
 2.659001e-03  -1.340202e-02  0 
 3.068873e-03  -1.340886e-02  0 
 3.523122e-03  -1.345685e-02  0 
 4.045103e-03  -1.355746e-02  0 
 4.486681e-03  -1.365145e-02  0 
 1.573488e-03  -1.381497e-02  0 
 1.930865e-03  -1.388516e-02  0 
 2.305194e-03  -1.394632e-02  0 
 2.706792e-03  -1.399065e-02  0 
 3.137577e-03  -1.404182e-02  0 
 3.604314e-03  -1.410933e-02  0 
 4.090169e-03  -1.416675e-02  0 
 4.593870e-03  -1.421411e-02  0 
 1.569434e-03  -1.442507e-02  0 
 1.961745e-03  -1.445036e-02  0 
 2.354791e-03  -1.449789e-02  0 
 2.767808e-03  -1.455674e-02  0 
 3.205396e-03  -1.462338e-02  0 
 3.658103e-03  -1.469463e-02  0 
 4.125073e-03  -1.476549e-02  0 
 4.639796e-03  -1.482110e-02  0 
 1.535375e-03  -1.500421e-02  0 
 1.964249e-03  -1.500089e-02  0 
 2.389324e-03  -1.503735e-02  0 
 2.821281e-03  -1.509548e-02  0 
 3.261565e-03  -1.515830e-02  0 
 3.711084e-03  -1.522684e-02  0 
 4.166241e-03  -1.531566e-02  0 
 4.646408e-03  -1.543072e-02  0 
 1.514186e-03  -1.550279e-02  0 
 1.958562e-03  -1.551626e-02  0 
 2.418185e-03  -1.555893e-02  0 
 2.860341e-03  -1.560647e-02  0 
 3.298545e-03  -1.565458e-02  0 
 3.750791e-03  -1.570558e-02  0 
 4.213466e-03  -1.577459e-02  0 
 4.641686e-03  -1.588469e-02  0 
 1.478838e-03  -1.594579e-02  0 
 1.984501e-03  -1.602018e-02  0 
 2.445337e-03  -1.605845e-02  0 
 2.879899e-03  -1.607664e-02  0 
 3.311831e-03  -1.610573e-02  0 
 3.754987e-03  -1.614390e-02  0 
 4.220462e-03  -1.615830e-02  0 
 4.644052e-03  -1.614936e-02  0 
 1.544329e-03  -1.646980e-02  0 
 2.029242e-03  -1.653777e-02  0 
 2.443482e-03  -1.651442e-02  0 
 2.867346e-03  -1.648904e-02  0 
 3.312173e-03  -1.649951e-02  0 
 3.743740e-03  -1.654326e-02  0 
 4.155945e-03  -1.655953e-02  0 
 4.624895e-03  -1.643924e-02  0 
VECTORS displacement_ITER2 FLOAT
 8.213325e-04  -9.318056e-03  0 
 3.664270e-03  -1.044747e-02  0 
 8.814306e-04  -1.363298e-02  0 
 4.297195e-03  -1.318924e-02  0 
 1.233188e-03  -9.118432e-03  0 
 1.570817e-03  -9.510571e-03  0 
 1.935217e-03  -9.671791e-03  0 
 2.222444e-03  -9.617973e-03  0 
 2.500931e-03  -9.507913e-03  0 
 2.688705e-03  -9.389756e-03  0 
 2.879160e-03  -9.225262e-03  0 
 3.411109e-03  -9.418517e-03  0 
 1.264557e-03  -9.984172e-03  0 
 1.281677e-03  -1.019661e-02  0 
 1.021592e-03  -1.054941e-02  0 
 9.762759e-04  -1.105986e-02  0 
 1.140031e-03  -1.159380e-02  0 
 1.308806e-03  -1.202601e-02  0 
 1.404861e-03  -1.234392e-02  0 
 1.234647e-03  -1.250462e-02  0 
 3.583967e-03  -1.045892e-02  0 
 3.933433e-03  -1.078304e-02  0 
 4.131961e-03  -1.105742e-02  0 
 4.154530e-03  -1.145613e-02  0 
 4.118235e-03  -1.190192e-02  0 
 4.029376e-03  -1.240334e-02  0 
 3.865320e-03  -1.284619e-02  0 
 3.860405e-03  -1.294624e-02  0 
 1.803514e-03  -1.342328e-02  0 
 1.993829e-03  -1.315568e-02  0 
 2.150046e-03  -1.319062e-02  0 
 2.411948e-03  -1.326503e-02  0 
 2.762732e-03  -1.329925e-02  0 
 3.154174e-03  -1.326857e-02  0 
 3.462083e-03  -1.320969e-02  0 
 3.675190e-03  -1.325890e-02  0 
 1.340173e-03  -9.925973e-03  0 
 1.669430e-03  -9.942284e-03  0 
 1.936353e-03  -1.001503e-02  0 
 2.202050e-03  -1.002661e-02  0 
 2.470147e-03  -9.984269e-03  0 
 2.740976e-03  -9.941444e-03  0 
 3.108515e-03  -1.002492e-02  0 
 3.570010e-03  -1.024820e-02  0 
 1.375038e-03  -1.028210e-02  0 
 1.665483e-03  -1.037516e-02  0 
 1.961673e-03  -1.042883e-02  0 
 2.233869e-03  -1.046399e-02  0 
 2.520229e-03  -1.048123e-02  0 
 2.858940e-03  -1.051722e-02  0 
 3.259766e-03  -1.058637e-02  0 
 3.630267e-03  -1.063633e-02  0 
 1.408233e-03  -1.066899e-02  0 
 1.710615e-03  -1.079791e-02  0 
 2.001721e-03  -1.087400e-02  0 
 2.290972e-03  -1.092486e-02  0 
 2.598337e-03  -1.097518e-02  0 
 2.943560e-03  -1.102572e-02  0 
 3.316413e-03  -1.105650e-02  0 
 3.709986e-03  -1.106786e-02  0 
 1.439064e-03  -1.117394e-02  0 
 1.765627e-03  -1.125299e-02  0 
 2.056633e-03  -1.132039e-02  0 
 2.353636e-03  -1.137988e-02  0 
 2.665777e-03  -1.143790e-02  0 
 2.993866e-03  -1.148803e-02  0 
 3.344306e-03  -1.151624e-02  0 
 3.729531e-03  -1.150823e-02  0 
 1.488591e-03  -1.167022e-02  0 
 1.802019e-03  -1.170913e-02  0 
 2.104164e-03  -1.175622e-02  0 
 2.409789e-03  -1.181159e-02  0 
 2.719429e-03  -1.186451e-02  0 
 3.033445e-03  -1.191368e-02  0 
 3.354591e-03  -1.195424e-02  0 
 3.704118e-03  -1.195958e-02  0 
 1.541996e-03  -1.208192e-02  0 
 1.828466e-03  -1.212191e-02  0 
 2.143645e-03  -1.217481e-02  0 
 2.452422e-03  -1.221800e-02  0 
 2.759124e-03  -1.225519e-02  0 
 3.070150e-03  -1.229563e-02  0 
 3.376272e-03  -1.234561e-02  0 
 3.669268e-03  -1.240110e-02  0 
 1.567865e-03  -1.239443e-02  0 
 1.883752e-03  -1.251097e-02  0 
 2.179091e-03  -1.257504e-02  0 
 2.469837e-03  -1.259261e-02  0 
 2.781916e-03  -1.261007e-02  0 
 3.100252e-03  -1.264144e-02  0 
 3.415756e-03  -1.267564e-02  0 
 3.692110e-03  -1.273935e-02  0 
 1.674953e-03  -1.277280e-02  0 
 1.976206e-03  -1.290973e-02  0 
 2.179946e-03  -1.292542e-02  0 
 2.451469e-03  -1.293457e-02  0 
 2.785435e-03  -1.294247e-02  0 
 3.131444e-03  -1.295699e-02  0 
 3.433583e-03  -1.298047e-02  0 
 3.738623e-03  -1.294337e-02  0 
VECTORS displacement_ITER3 FLOAT
 6.948658e-04  -8.329579e-03  0 
 3.401212e-03  -9.074033e-03  0 
 8.469255e-04  -1.179862e-02  0 
 3.458287e-03  -1.181685e-02  0 
 9.889011e-04  -8.362447e-03  0 
 1.243968e-03  -8.589325e-03  0 
 1.486792e-03  -8.584639e-03  0 
 1.742266e-03  -8.450932e-03  0 
 2.090847e-03  -8.408780e-03  0 
 2.388081e-03  -8.537154e-03  0 
 2.515106e-03  -8.670469e-03  0 
 2.843971e-03  -8.749809e-03  0 
 8.601636e-04  -9.101921e-03  0 
 8.391351e-04  -9.339058e-03  0 
 8.522354e-04  -9.730342e-03  0 
 9.940328e-04  -1.000988e-02  0 
 9.926437e-04  -1.031580e-02  0 
 1.086582e-03  -1.067532e-02  0 
 1.056317e-03  -1.102222e-02  0 
 1.084506e-03  -1.142937e-02  0 
 3.328979e-03  -9.706889e-03  0 
 3.375172e-03  -9.894798e-03  0 
 3.343605e-03  -1.009692e-02  0 
 3.224425e-03  -1.031667e-02  0 
 3.210378e-03  -1.055345e-02  0 
 3.297716e-03  -1.091216e-02  0 
 3.360343e-03  -1.140664e-02  0 
 3.379193e-03  -1.167179e-02  0 
 1.174818e-03  -1.182552e-02  0 
 1.414324e-03  -1.190814e-02  0 
 1.766890e-03  -1.197939e-02  0 
 2.071984e-03  -1.196710e-02  0 
 2.326767e-03  -1.193400e-02  0 
 2.610219e-03  -1.189933e-02  0 
 2.914884e-03  -1.185645e-02  0 
 3.157352e-03  -1.186811e-02  0 
 1.052656e-03  -8.975630e-03  0 
 1.299564e-03  -8.973632e-03  0 
 1.512465e-03  -8.993024e-03  0 
 1.783887e-03  -9.004384e-03  0 
 2.113265e-03  -9.025959e-03  0 
 2.416960e-03  -9.065258e-03  0 
 2.685683e-03  -9.181341e-03  0 
 3.023012e-03  -9.408903e-03  0 
 1.063665e-03  -9.390889e-03  0 
 1.317487e-03  -9.405878e-03  0 
 1.572112e-03  -9.431287e-03  0 
 1.849127e-03  -9.474305e-03  0 
 2.152978e-03  -9.516751e-03  0 
 2.469068e-03  -9.571684e-03  0 
 2.793726e-03  -9.669515e-03  0 
 3.113315e-03  -9.793800e-03  0 
 1.111713e-03  -9.767030e-03  0 
 1.354506e-03  -9.808590e-03  0 
 1.623330e-03  -9.852197e-03  0 
 1.906635e-03  -9.900305e-03  0 
 2.205524e-03  -9.951859e-03  0 
 2.519494e-03  -1.000702e-02  0 
 2.832124e-03  -1.006393e-02  0 
 3.109090e-03  -1.010672e-02  0 
 1.154397e-03  -1.011181e-02  0 
 1.405165e-03  -1.018200e-02  0 
 1.672182e-03  -1.023997e-02  0 
 1.955400e-03  -1.029242e-02  0 
 2.249217e-03  -1.034121e-02  0 
 2.546772e-03  -1.038053e-02  0 
 2.832810e-03  -1.039732e-02  0 
 3.078884e-03  -1.038175e-02  0 
 1.225542e-03  -1.044245e-02  0 
 1.454545e-03  -1.053278e-02  0 
 1.716901e-03  -1.059847e-02  0 
 1.994979e-03  -1.065083e-02  0 
 2.279477e-03  -1.069198e-02  0 
 2.557517e-03  -1.071558e-02  0 
 2.816232e-03  -1.070836e-02  0 
 3.045222e-03  -1.065080e-02  0 
 1.260285e-03  -1.078426e-02  0 
 1.494348e-03  -1.087062e-02  0 
 1.749943e-03  -1.093472e-02  0 
 2.025015e-03  -1.098315e-02  0 
 2.302489e-03  -1.101594e-02  0 
 2.567131e-03  -1.102852e-02  0 
 2.807971e-03  -1.101720e-02  0 
 3.028880e-03  -1.097926e-02  0 
 1.278679e-03  -1.113508e-02  0 
 1.502983e-03  -1.120379e-02  0 
 1.767007e-03  -1.126073e-02  0 
 2.046611e-03  -1.130379e-02  0 
 2.324214e-03  -1.132677e-02  0 
 2.584405e-03  -1.132950e-02  0 
 2.829474e-03  -1.132205e-02  0 
 3.069987e-03  -1.133429e-02  0 
 1.230384e-03  -1.148083e-02  0 
 1.479413e-03  -1.154425e-02  0 
 1.768069e-03  -1.159297e-02  0 
 2.064335e-03  -1.163178e-02  0 
 2.338394e-03  -1.163518e-02  0 
 2.606803e-03  -1.161674e-02  0 
 2.868072e-03  -1.161380e-02  0 
 3.142078e-03  -1.162528e-02  0 
VECTORS displacement_ITER4 FLOAT
 5.549461e-04  -8.207530e-03  0 
 2.982651e-03  -8.797488e-03  0 
 9.303758e-04  -1.131941e-02  0 
 3.290545e-03  -1.147884e-02  0 
 8.229929e-04  -8.216055e-03  0 
 1.016727e-03  -8.259729e-03  0 
 1.312669e-03  -8.198412e-03  0 
 1.592807e-03  -8.146133e-03  0 
 1.870589e-03  -8.125403e-03  0 
 2.184575e-03  -8.144767e-03  0 
 2.473856e-03  -8.237971e-03  0 
 2.796850e-03  -8.377563e-03  0 
 8.129677e-04  -8.768597e-03  0 
 7.652863e-04  -9.041917e-03  0 
 8.131242e-04  -9.389577e-03  0 
 8.529569e-04  -9.671850e-03  0 
 8.002303e-04  -9.978335e-03  0 
 7.663997e-04  -1.035384e-02  0 
 7.429805e-04  -1.075537e-02  0 
 8.350106e-04  -1.111942e-02  0 
 3.094521e-03  -9.031800e-03  0 
 3.233652e-03  -9.385199e-03  0 
 3.173478e-03  -9.736368e-03  0 
 3.058713e-03  -1.003555e-02  0 
 2.998699e-03  -1.028738e-02  0 
 3.022111e-03  -1.052652e-02  0 
 3.125776e-03  -1.083925e-02  0 
 3.241506e-03  -1.114992e-02  0 
 9.612347e-04  -1.144783e-02  0 
 1.278853e-03  -1.157854e-02  0 
 1.636958e-03  -1.158235e-02  0 
 1.911476e-03  -1.154471e-02  0 
 2.134028e-03  -1.150482e-02  0 
 2.355420e-03  -1.148028e-02  0 
 2.621433e-03  -1.146948e-02  0 
 2.907557e-03  -1.147208e-02  0 
 8.844634e-04  -8.696854e-03  0 
 1.094331e-03  -8.681030e-03  0 
 1.333987e-03  -8.679189e-03  0 
 1.614523e-03  -8.667147e-03  0 
 1.913420e-03  -8.677758e-03  0 
 2.227525e-03  -8.717744e-03  0 
 2.550712e-03  -8.790644e-03  0 
 2.879818e-03  -8.905438e-03  0 
 9.393100e-04  -9.069010e-03  0 
 1.141175e-03  -9.088751e-03  0 
 1.384722e-03  -9.107290e-03  0 
 1.660132e-03  -9.132824e-03  0 
 1.960810e-03  -9.165610e-03  0 
 2.273673e-03  -9.212645e-03  0 
 2.590878e-03  -9.272737e-03  0 
 2.895840e-03  -9.326166e-03  0 
 9.780909e-04  -9.421811e-03  0 
 1.188193e-03  -9.460570e-03  0 
 1.437649e-03  -9.505432e-03  0 
 1.714806e-03  -9.550178e-03  0 
 2.010077e-03  -9.595078e-03  0 
 2.313003e-03  -9.640693e-03  0 
 2.608914e-03  -9.685353e-03  0 
 2.893884e-03  -9.727647e-03  0 
 1.005187e-03  -9.744183e-03  0 
 1.233792e-03  -9.814130e-03  0 
 1.490876e-03  -9.877291e-03  0 
 1.766917e-03  -9.931771e-03  0 
 2.054775e-03  -9.977051e-03  0 
 2.344406e-03  -1.001322e-02  0 
 2.622796e-03  -1.004091e-02  0 
 2.871051e-03  -1.005626e-02  0 
 1.034376e-03  -1.007243e-02  0 
 1.278486e-03  -1.016088e-02  0 
 1.539309e-03  -1.023116e-02  0 
 1.811210e-03  -1.028537e-02  0 
 2.090003e-03  -1.032418e-02  0 
 2.366971e-03  -1.034555e-02  0 
 2.628311e-03  -1.034744e-02  0 
 2.851686e-03  -1.032754e-02  0 
 1.049150e-03  -1.043516e-02  0 
 1.314396e-03  -1.051050e-02  0 
 1.576549e-03  -1.057082e-02  0 
 1.845276e-03  -1.061821e-02  0 
 2.115076e-03  -1.064796e-02  0 
 2.378196e-03  -1.065251e-02  0 
 2.627310e-03  -1.062951e-02  0 
 2.849059e-03  -1.058407e-02  0 
 1.055705e-03  -1.081858e-02  0 
 1.324865e-03  -1.085762e-02  0 
 1.599194e-03  -1.089869e-02  0 
 1.872311e-03  -1.093842e-02  0 
 2.131743e-03  -1.095645e-02  0 
 2.379317e-03  -1.094591e-02  0 
 2.622862e-03  -1.090955e-02  0 
 2.868968e-03  -1.085938e-02  0 
 1.028753e-03  -1.117463e-02  0 
 1.304100e-03  -1.119146e-02  0 
 1.618061e-03  -1.122836e-02  0 
 1.897062e-03  -1.125125e-02  0 
 2.139413e-03  -1.124874e-02  0 
 2.372494e-03  -1.122516e-02  0 
 2.617872e-03  -1.119443e-02  0 
 2.897795e-03  -1.116405e-02  0 
VECTORS displacement_ITER5 FLOAT
 6.608570e-04  -8.240699e-03  0 
 2.921914e-03  -8.520359e-03  0 
 5.753701e-04  -1.139531e-02  0 
 3.031613e-03  -1.127167e-02  0 
 6.513283e-04  -8.221646e-03  0 
 9.663222e-04  -8.176520e-03  0 
 1.356363e-03  -8.168329e-03  0 
 1.665427e-03  -8.216439e-03  0 
 1.882705e-03  -8.255019e-03  0 
 2.094755e-03  -8.246886e-03  0 
 2.339450e-03  -8.266264e-03  0 
 2.591732e-03  -8.316675e-03  0 
 7.000616e-04  -8.586688e-03  0 
 6.746304e-04  -8.958285e-03  0 
 7.513479e-04  -9.325149e-03  0 
 7.789863e-04  -9.663418e-03  0 
 7.941538e-04  -9.988121e-03  0 
 8.224304e-04  -1.027964e-02  0 
 7.984345e-04  -1.054534e-02  0 
 7.229333e-04  -1.093022e-02  0 
 2.935561e-03  -8.948132e-03  0 
 2.984364e-03  -9.295397e-03  0 
 2.972391e-03  -9.574467e-03  0 
 2.984256e-03  -9.876914e-03  0 
 2.976257e-03  -1.021083e-02  0 
 2.931495e-03  -1.050691e-02  0 
 2.939023e-03  -1.077505e-02  0 
 2.981903e-03  -1.104676e-02  0 
 9.714950e-04  -1.136611e-02  0 
 1.256369e-03  -1.130218e-02  0 
 1.460438e-03  -1.127098e-02  0 
 1.673933e-03  -1.131064e-02  0 
 1.939980e-03  -1.135562e-02  0 
 2.230408e-03  -1.136804e-02  0 
 2.521248e-03  -1.135191e-02  0 
 2.760898e-03  -1.131652e-02  0 
 8.060511e-04  -8.612161e-03  0 
 1.042900e-03  -8.667490e-03  0 
 1.352418e-03  -8.681772e-03  0 
 1.644975e-03  -8.678428e-03  0 
 1.892942e-03  -8.685086e-03  0 
 2.133730e-03  -8.711495e-03  0 
 2.393742e-03  -8.754475e-03  0 
 2.682478e-03  -8.840602e-03  0 
 8.929535e-04  -9.008162e-03  0 
 1.114979e-03  -9.064604e-03  0 
 1.370995e-03  -9.099179e-03  0 
 1.641026e-03  -9.109673e-03  0 
 1.907405e-03  -9.119935e-03  0 
 2.172109e-03  -9.145371e-03  0 
 2.447358e-03  -9.187998e-03  0 
 2.723641e-03  -9.237549e-03  0 
 9.391489e-04  -9.384197e-03  0 
 1.162302e-03  -9.433471e-03  0 
 1.402029e-03  -9.474058e-03  0 
 1.658425e-03  -9.501380e-03  0 
 1.925507e-03  -9.522391e-03  0 
 2.197615e-03  -9.545674e-03  0 
 2.471097e-03  -9.569257e-03  0 
 2.740494e-03  -9.583744e-03  0 
 9.764459e-04  -9.725504e-03  0 
 1.194581e-03  -9.780626e-03  0 
 1.431358e-03  -9.824834e-03  0 
 1.682823e-03  -9.860297e-03  0 
 1.944918e-03  -9.887193e-03  0 
 2.211263e-03  -9.906832e-03  0 
 2.474856e-03  -9.917390e-03  0 
 2.730088e-03  -9.908612e-03  0 
 9.996679e-04  -1.005018e-02  0 
 1.218244e-03  -1.010604e-02  0 
 1.455512e-03  -1.015548e-02  0 
 1.704603e-03  -1.019338e-02  0 
 1.960758e-03  -1.021913e-02  0 
 2.219075e-03  -1.023379e-02  0 
 2.473167e-03  -1.023795e-02  0 
 2.719296e-03  -1.023196e-02  0 
 1.008586e-03  -1.035065e-02  0 
 1.236153e-03  -1.041696e-02  0 
 1.474159e-03  -1.046990e-02  0 
 1.718902e-03  -1.050520e-02  0 
 1.969465e-03  -1.052474e-02  0 
 2.223803e-03  -1.053345e-02  0 
 2.476097e-03  -1.053491e-02  0 
 2.719220e-03  -1.052959e-02  0 
 1.018449e-03  -1.064597e-02  0 
 1.252703e-03  -1.072007e-02  0 
 1.485521e-03  -1.077095e-02  0 
 1.720477e-03  -1.079767e-02  0 
 1.967877e-03  -1.080892e-02  0 
 2.226191e-03  -1.081375e-02  0 
 2.484140e-03  -1.081209e-02  0 
 2.725721e-03  -1.079990e-02  0 
 1.012434e-03  -1.097143e-02  0 
 1.267761e-03  -1.101983e-02  0 
 1.483498e-03  -1.105090e-02  0 
 1.702785e-03  -1.106732e-02  0 
 1.955178e-03  -1.107943e-02  0 
 2.228788e-03  -1.108527e-02  0 
 2.496720e-03  -1.108148e-02  0 
 2.747952e-03  -1.106150e-02  0 
VECTORS displacement_ITER6 FLOAT
 4.810924e-04  -8.130252e-03  0 
 2.926285e-03  -8.413601e-03  0 
 6.966563e-04  -1.118032e-02  0 
 2.944678e-03  -1.119068e-02  0 
 7.163439e-04  -8.186254e-03  0 
 9.916554e-04  -8.202354e-03  0 
 1.249871e-03  -8.199697e-03  0 
 1.501527e-03  -8.188144e-03  0 
 1.758831e-03  -8.175047e-03  0 
 2.025878e-03  -8.164967e-03  0 
 2.310581e-03  -8.192509e-03  0 
 2.554720e-03  -8.261543e-03  0 
 6.391854e-04  -8.627072e-03  0 
 7.199675e-04  -8.953293e-03  0 
 7.331646e-04  -9.222815e-03  0 
 6.730367e-04  -9.560074e-03  0 
 6.440441e-04  -9.917318e-03  0 
 6.398353e-04  -1.026609e-02  0 
 6.724445e-04  -1.058366e-02  0 
 6.997128e-04  -1.087487e-02  0 
 2.890574e-03  -8.898937e-03  0 
 2.873897e-03  -9.229120e-03  0 
 2.875100e-03  -9.490818e-03  0 
 2.913314e-03  -9.775254e-03  0 
 2.940114e-03  -1.008400e-02  0 
 2.925355e-03  -1.038836e-02  0 
 2.909310e-03  -1.066937e-02  0 
 2.907222e-03  -1.095892e-02  0 
 9.029449e-04  -1.123620e-02  0 
 1.140443e-03  -1.126404e-02  0 
 1.392813e-03  -1.129035e-02  0 
 1.677200e-03  -1.130940e-02  0 
 1.961643e-03  -1.130344e-02  0 
 2.220206e-03  -1.128454e-02  0 
 2.464025e-03  -1.127289e-02  0 
 2.695670e-03  -1.124707e-02  0 
 8.049520e-04  -8.624277e-03  0 
 1.022644e-03  -8.628958e-03  0 
 1.267098e-03  -8.629026e-03  0 
 1.521532e-03  -8.630610e-03  0 
 1.785071e-03  -8.637255e-03  0 
 2.061840e-03  -8.657297e-03  0 
 2.343708e-03  -8.696786e-03  0 
 2.631070e-03  -8.784619e-03  0 
 8.476868e-04  -8.978783e-03  0 
 1.053771e-03  -9.003809e-03  0 
 1.293490e-03  -9.025799e-03  0 
 1.551110e-03  -9.044436e-03  0 
 1.821365e-03  -9.065018e-03  0 
 2.101904e-03  -9.091224e-03  0 
 2.389075e-03  -9.129136e-03  0 
 2.662101e-03  -9.177688e-03  0 
 8.789165e-04  -9.293235e-03  0 
 1.088748e-03  -9.351947e-03  0 
 1.328375e-03  -9.395420e-03  0 
 1.586039e-03  -9.428872e-03  0 
 1.856291e-03  -9.456373e-03  0 
 2.135002e-03  -9.480157e-03  0 
 2.413794e-03  -9.497446e-03  0 
 2.673403e-03  -9.501827e-03  0 
 9.006188e-04  -9.622388e-03  0 
 1.124471e-03  -9.691244e-03  0 
 1.365297e-03  -9.745635e-03  0 
 1.620355e-03  -9.786060e-03  0 
 1.885584e-03  -9.814962e-03  0 
 2.155416e-03  -9.831696e-03  0 
 2.421630e-03  -9.831802e-03  0 
 2.674786e-03  -9.809570e-03  0 
 9.051544e-04  -9.974143e-03  0 
 1.150912e-03  -1.003102e-02  0 
 1.396129e-03  -1.008140e-02  0 
 1.648887e-03  -1.012016e-02  0 
 1.907793e-03  -1.014588e-02  0 
 2.168061e-03  -1.015670e-02  0 
 2.424471e-03  -1.014967e-02  0 
 2.676466e-03  -1.012468e-02  0 
 9.092584e-04  -1.032087e-02  0 
 1.163400e-03  -1.036580e-02  0 
 1.415035e-03  -1.040441e-02  0 
 1.668527e-03  -1.043516e-02  0 
 1.924161e-03  -1.045541e-02  0 
 2.179044e-03  -1.046252e-02  0 
 2.430032e-03  -1.045502e-02  0 
 2.678882e-03  -1.043170e-02  0 
 9.138552e-04  -1.064575e-02  0 
 1.165441e-03  -1.068531e-02  0 
 1.420612e-03  -1.071334e-02  0 
 1.678821e-03  -1.073411e-02  0 
 1.937004e-03  -1.074852e-02  0 
 2.191141e-03  -1.075311e-02  0 
 2.439403e-03  -1.074365e-02  0 
 2.678519e-03  -1.071982e-02  0 
 9.179695e-04  -1.094590e-02  0 
 1.158205e-03  -1.098567e-02  0 
 1.412981e-03  -1.100789e-02  0 
 1.680840e-03  -1.102075e-02  0 
 1.949677e-03  -1.102930e-02  0 
 2.205179e-03  -1.102931e-02  0 
 2.448908e-03  -1.101579e-02  0 
 2.688036e-03  -1.098652e-02  0 
VECTORS displacement_ITER7 FLOAT
 5.803904e-04  -8.241079e-03  0 
 2.850209e-03  -8.436982e-03  0 
 6.135350e-04  -1.118580e-02  0 
 2.935016e-03  -1.124627e-02  0 
 6.742421e-04  -8.180810e-03  0 
 9.490361e-04  -8.149045e-03  0 
 1.192267e-03  -8.143267e-03  0 
 1.449268e-03  -8.132193e-03  0 
 1.728794e-03  -8.135443e-03  0 
 2.001955e-03  -8.159280e-03  0 
 2.282471e-03  -8.195162e-03  0 
 2.544424e-03  -8.285113e-03  0 
 6.048355e-04  -8.555327e-03  0 
 6.184045e-04  -8.905371e-03  0 
 6.252714e-04  -9.234463e-03  0 
 6.306675e-04  -9.579740e-03  0 
 6.491650e-04  -9.898976e-03  0 
 6.557318e-04  -1.020881e-02  0 
 6.650996e-04  -1.052687e-02  0 
 6.678750e-04  -1.086240e-02  0 
 2.834006e-03  -8.870064e-03  0 
 2.823626e-03  -9.196989e-03  0 
 2.820252e-03  -9.503011e-03  0 
 2.813121e-03  -9.794502e-03  0 
 2.811041e-03  -1.005640e-02  0 
 2.820368e-03  -1.032256e-02  0 
 2.830090e-03  -1.059962e-02  0 
 2.864988e-03  -1.090985e-02  0 
 8.688621e-04  -1.122557e-02  0 
 1.121565e-03  -1.121931e-02  0 
 1.380915e-03  -1.121745e-02  0 
 1.646382e-03  -1.120141e-02  0 
 1.892970e-03  -1.118805e-02  0 
 2.126245e-03  -1.119248e-02  0 
 2.362396e-03  -1.122097e-02  0 
 2.624871e-03  -1.124773e-02  0 
 7.503472e-04  -8.575521e-03  0 
 9.678584e-04  -8.588202e-03  0 
 1.218614e-03  -8.589017e-03  0 
 1.479835e-03  -8.600635e-03  0 
 1.754088e-03  -8.618460e-03  0 
 2.033208e-03  -8.646815e-03  0 
 2.313583e-03  -8.695206e-03  0 
 2.593179e-03  -8.772788e-03  0 
 7.954749e-04  -8.936457e-03  0 
 1.008301e-03  -8.973418e-03  0 
 1.251575e-03  -9.001863e-03  0 
 1.513910e-03  -9.025813e-03  0 
 1.786298e-03  -9.051942e-03  0 
 2.064795e-03  -9.082871e-03  0 
 2.342965e-03  -9.121633e-03  0 
 2.605845e-03  -9.162999e-03  0 
 8.273721e-04  -9.288607e-03  0 
 1.049118e-03  -9.337349e-03  0 
 1.290353e-03  -9.379603e-03  0 
 1.548500e-03  -9.414243e-03  0 
 1.817292e-03  -9.443299e-03  0 
 2.090026e-03  -9.468800e-03  0 
 2.357113e-03  -9.489466e-03  0 
 2.603679e-03  -9.501545e-03  0 
 8.538936e-04  -9.631821e-03  0 
 1.083815e-03  -9.684874e-03  0 
 1.326693e-03  -9.732333e-03  0 
 1.580576e-03  -9.770610e-03  0 
 1.842203e-03  -9.798208e-03  0 
 2.105600e-03  -9.814369e-03  0 
 2.362059e-03  -9.818023e-03  0 
 2.601393e-03  -9.810006e-03  0 
 8.735830e-04  -9.961680e-03  0 
 1.112621e-03  -1.001694e-02  0 
 1.357001e-03  -1.006416e-02  0 
 1.606429e-03  -1.010046e-02  0 
 1.859596e-03  -1.012340e-02  0 
 2.113099e-03  -1.013074e-02  0 
 2.361644e-03  -1.012155e-02  0 
 2.598505e-03  -1.009641e-02  0 
 8.932323e-04  -1.027944e-02  0 
 1.135475e-03  -1.033454e-02  0 
 1.380045e-03  -1.037631e-02  0 
 1.625296e-03  -1.040716e-02  0 
 1.870342e-03  -1.042478e-02  0 
 2.114899e-03  -1.042597e-02  0 
 2.357347e-03  -1.040891e-02  0 
 2.593742e-03  -1.037358e-02  0 
 9.059264e-04  -1.059482e-02  0 
 1.148728e-03  -1.063835e-02  0 
 1.394808e-03  -1.066992e-02  0 
 1.638283e-03  -1.069188e-02  0 
 1.877396e-03  -1.070482e-02  0 
 2.113688e-03  -1.070431e-02  0 
 2.351872e-03  -1.068632e-02  0 
 2.592841e-03  -1.065195e-02  0 
 8.982730e-04  -1.090402e-02  0 
 1.147047e-03  -1.093400e-02  0 
 1.397221e-03  -1.094713e-02  0 
 1.646374e-03  -1.095544e-02  0 
 1.884966e-03  -1.096148e-02  0 
 2.114541e-03  -1.096403e-02  0 
 2.349024e-03  -1.095805e-02  0 
 2.601779e-03  -1.093749e-02  0 
VECTORS displacement_ITER8 FLOAT
 4.737359e-04  -8.203475e-03  0 
 2.787950e-03  -8.414732e-03  0 
 6.022076e-04  -1.116567e-02  0 
 2.823757e-03  -1.115009e-02  0 
 6.988558e-04  -8.152579e-03  0 
 9.536764e-04  -8.140207e-03  0 
 1.189152e-03  -8.130167e-03  0 
 1.446740e-03  -8.125598e-03  0 
 1.719038e-03  -8.134628e-03  0 
 1.985396e-03  -8.160427e-03  0 
 2.254042e-03  -8.187233e-03  0 
 2.524208e-03  -8.261415e-03  0 
 5.665090e-04  -8.588686e-03  0 
 6.058403e-04  -8.934100e-03  0 
 6.244713e-04  -9.257913e-03  0 
 6.457303e-04  -9.566783e-03  0 
 6.475866e-04  -9.860835e-03  0 
 6.361007e-04  -1.016627e-02  0 
 6.274689e-04  -1.049245e-02  0 
 6.290987e-04  -1.082623e-02  0 
 2.793208e-03  -8.822748e-03  0 
 2.816423e-03  -9.150501e-03  0 
 2.834852e-03  -9.470045e-03  0 
 2.831866e-03  -9.769955e-03  0 
 2.831138e-03  -1.004601e-02  0 
 2.839326e-03  -1.033251e-02  0 
 2.828049e-03  -1.062741e-02  0 
 2.817050e-03  -1.090944e-02  0 
 8.392309e-04  -1.118571e-02  0 
 1.087037e-03  -1.120585e-02  0 
 1.342432e-03  -1.121659e-02  0 
 1.596488e-03  -1.122089e-02  0 
 1.854184e-03  -1.123189e-02  0 
 2.125123e-03  -1.123926e-02  0 
 2.392423e-03  -1.123040e-02  0 
 2.640187e-03  -1.119955e-02  0 
 7.400733e-04  -8.590855e-03  0 
 9.701866e-04  -8.582150e-03  0 
 1.215631e-03  -8.580765e-03  0 
 1.474318e-03  -8.589974e-03  0 
 1.744182e-03  -8.605332e-03  0 
 2.016527e-03  -8.629138e-03  0 
 2.292028e-03  -8.671052e-03  0 
 2.567513e-03  -8.736601e-03  0 
 7.801733e-04  -8.957560e-03  0 
 9.968759e-04  -8.978202e-03  0 
 1.241762e-03  -8.994058e-03  0 
 1.502063e-03  -9.011799e-03  0 
 1.771753e-03  -9.032455e-03  0 
 2.047408e-03  -9.057689e-03  0 
 2.323838e-03  -9.089212e-03  0 
 2.587652e-03  -9.121388e-03  0 
 8.122696e-04  -9.299999e-03  0 
 1.028331e-03  -9.338079e-03  0 
 1.270386e-03  -9.370837e-03  0 
 1.529393e-03  -9.398316e-03  0 
 1.797978e-03  -9.422271e-03  0 
 2.070953e-03  -9.443068e-03  0 
 2.340683e-03  -9.458962e-03  0 
 2.596191e-03  -9.467803e-03  0 
 8.355245e-04  -9.623175e-03  0 
 1.057552e-03  -9.675143e-03  0 
 1.299852e-03  -9.719515e-03  0 
 1.555750e-03  -9.754033e-03  0 
 1.819589e-03  -9.778769e-03  0 
 2.085884e-03  -9.793349e-03  0 
 2.348708e-03  -9.796286e-03  0 
 2.601165e-03  -9.788138e-03  0 
 8.541037e-04  -9.933852e-03  0 
 1.083682e-03  -9.997657e-03  0 
 1.326675e-03  -1.004780e-02  0 
 1.578756e-03  -1.008409e-02  0 
 1.836274e-03  -1.010708e-02  0 
 2.094882e-03  -1.011666e-02  0 
 2.350621e-03  -1.011126e-02  0 