# vtk DataFile Version 3.1
this is an vtk file created by FEMAC
ASCII
DATASET UNSTRUCTURED_GRID
POINTS 100 FLOAT
1.000000 5.000000 0.000000
1.000000 6.000000 0.000000
2.000000 5.000000 0.000000
2.000000 6.000000 0.000000
1.000000 5.111111 0.000000
1.000000 5.222222 0.000000
1.000000 5.333333 0.000000
1.000000 5.444444 0.000000
1.000000 5.555556 0.000000
1.000000 5.666667 0.000000
1.000000 5.777778 0.000000
1.000000 5.888889 0.000000
1.111111 5.000000 0.000000
1.222222 5.000000 0.000000
1.333333 5.000000 0.000000
1.444444 5.000000 0.000000
1.555556 5.000000 0.000000
1.666667 5.000000 0.000000
1.777778 5.000000 0.000000
1.888889 5.000000 0.000000
1.111111 6.000000 0.000000
1.222222 6.000000 0.000000
1.333333 6.000000 0.000000
1.444444 6.000000 0.000000
1.555556 6.000000 0.000000
1.666667 6.000000 0.000000
1.777778 6.000000 0.000000
1.888889 6.000000 0.000000
2.000000 5.111111 0.000000
2.000000 5.222222 0.000000
2.000000 5.333333 0.000000
2.000000 5.444444 0.000000
2.000000 5.555556 0.000000
2.000000 5.666667 0.000000
2.000000 5.777778 0.000000
2.000000 5.888889 0.000000
1.111111 5.111111 0.000000
1.111111 5.222222 0.000000
1.111111 5.333333 0.000000
1.111111 5.444444 0.000000
1.111111 5.555556 0.000000
1.111111 5.666667 0.000000
1.111111 5.777778 0.000000
1.111111 5.888889 0.000000
1.222222 5.111111 0.000000
1.222222 5.222222 0.000000
1.222222 5.333333 0.000000
1.222222 5.444444 0.000000
1.222222 5.555556 0.000000
1.222222 5.666667 0.000000
1.222222 5.777778 0.000000
1.222222 5.888889 0.000000
1.333333 5.111111 0.000000
1.333333 5.222222 0.000000
1.333333 5.333333 0.000000
1.333333 5.444444 0.000000
1.333333 5.555556 0.000000
1.333333 5.666667 0.000000
1.333333 5.777778 0.000000
1.333333 5.888889 0.000000
1.444444 5.111111 0.000000
1.444444 5.222222 0.000000
1.444444 5.333333 0.000000
1.444444 5.444444 0.000000
1.444444 5.555556 0.000000
1.444444 5.666667 0.000000
1.444444 5.777778 0.000000
1.444444 5.888889 0.000000
1.555556 5.111111 0.000000
1.555556 5.222222 0.000000
1.555556 5.333333 0.000000
1.555556 5.444444 0.000000
1.555556 5.555556 0.000000
1.555556 5.666667 0.000000
1.555556 5.777778 0.000000
1.555556 5.888889 0.000000
1.666667 5.111111 0.000000
1.666667 5.222222 0.000000
1.666667 5.333333 0.000000
1.666667 5.444444 0.000000
1.666667 5.555556 0.000000
1.666667 5.666667 0.000000
1.666667 5.777778 0.000000
1.666667 5.888889 0.000000
1.777778 5.111111 0.000000
1.777778 5.222222 0.000000
1.777778 5.333333 0.000000
1.777778 5.444444 0.000000
1.777778 5.555556 0.000000
1.777778 5.666667 0.000000
1.777778 5.777778 0.000000
1.777778 5.888889 0.000000
1.888889 5.111111 0.000000
1.888889 5.222222 0.000000
1.888889 5.333333 0.000000
1.888889 5.444444 0.000000
1.888889 5.555556 0.000000
1.888889 5.666667 0.000000
1.888889 5.777778 0.000000
1.888889 5.888889 0.000000
CELLS 81 405 
4 0 12 36  4
4 4 36 37  5
4 5 37 38  6
4 6 38 39  7
4 7 39 40  8
4 8 40 41  9
4 9 41 42 10
4 10 42 43 11
4 11 43 20  1
4 12 13 44 36
4 36 44 45 37
4 37 45 46 38
4 38 46 47 39
4 39 47 48 40
4 40 48 49 41
4 41 49 50 42
4 42 50 51 43
4 43 51 21 20
4 13 14 52 44
4 44 52 53 45
4 45 53 54 46
4 46 54 55 47
4 47 55 56 48
4 48 56 57 49
4 49 57 58 50
4 50 58 59 51
4 51 59 22 21
4 14 15 60 52
4 52 60 61 53
4 53 61 62 54
4 54 62 63 55
4 55 63 64 56
4 56 64 65 57
4 57 65 66 58
4 58 66 67 59
4 59 67 23 22
4 15 16 68 60
4 60 68 69 61
4 61 69 70 62
4 62 70 71 63
4 63 71 72 64
4 64 72 73 65
4 65 73 74 66
4 66 74 75 67
4 67 75 24 23
4 16 17 76 68
4 68 76 77 69
4 69 77 78 70
4 70 78 79 71
4 71 79 80 72
4 72 80 81 73
4 73 81 82 74
4 74 82 83 75
4 75 83 25 24
4 17 18 84 76
4 76 84 85 77
4 77 85 86 78
4 78 86 87 79
4 79 87 88 80
4 80 88 89 81
4 81 89 90 82
4 82 90 91 83
4 83 91 26 25
4 18 19 92 84
4 84 92 93 85
4 85 93 94 86
4 86 94 95 87
4 87 95 96 88
4 88 96 97 89
4 89 97 98 90
4 90 98 99 91
4 91 99 27 26
4 19  2 28 92
4 92 28 29 93
4 93 29 30 94
4 94 30 31 95
4 95 31 32 96
4 96 32 33 97
4 97 33 34 98
4 98 34 35 99
4 99 35  3 27
CELL_TYPES 81
9 9 9 9 9 9 9 9 9 9 9 9 9 9 9 9 9 9 9 9 9 9 9 9 9 9 9 9 9 9 9 9 9 9 9 9 9 9 9 9 9 9 9 9 9 9 9 9 9 9 9 9 9 9 9 9 9 9 9 9 9 9 9 9 9 9 9 9 9 9 9 9 9 9 9 9 9 9 9 9 9 
POINT_DATA 100
VECTORS displacement_ITER1 FLOAT
 3.221958e-03  -2.586084e-03  0 
 7.950354e-03  -3.044642e-03  0 
 4.424753e-03  -6.902079e-03  0 
 7.955372e-03  -7.166860e-03  0 
 4.056449e-03  -2.740783e-03  0 
 4.636054e-03  -2.851961e-03  0 
 5.159328e-03  -2.934067e-03  0 
 5.646418e-03  -2.991348e-03  0 
 6.111688e-03  -3.029674e-03  0 
 6.565548e-03  -3.049621e-03  0 
 7.016561e-03  -3.057024e-03  0 
 7.471473e-03  -3.053561e-03  0 
 3.442941e-03  -3.360074e-03  0 
 3.582680e-03  -3.918760e-03  0 
 3.697752e-03  -4.432390e-03  0 
 3.795245e-03  -4.917948e-03  0 
 3.888677e-03  -5.382455e-03  0 
 3.985476e-03  -5.822635e-03  0 
 4.084465e-03  -6.240006e-03  0 
 4.211605e-03  -6.630102e-03  0 
 7.945741e-03  -3.519696e-03  0 
 7.946683e-03  -3.977609e-03  0 
 7.948443e-03  -4.433314e-03  0 
 7.948627e-03  -4.888716e-03  0 
 7.947614e-03  -5.343886e-03  0 
 7.947036e-03  -5.798967e-03  0 
 7.948410e-03  -6.254507e-03  0 
 7.952132e-03  -6.711595e-03  0 
 4.555359e-03  -6.951760e-03  0 
 4.891746e-03  -7.008556e-03  0 
 5.273258e-03  -7.057184e-03  0 
 5.692859e-03  -7.100866e-03  0 
 6.125098e-03  -7.134255e-03  0 
 6.582222e-03  -7.155358e-03  0 
 7.036133e-03  -7.164029e-03  0 
 7.501040e-03  -7.167028e-03  0 
 4.083976e-03  -3.385705e-03  0 
 4.664207e-03  -3.407515e-03  0 
 5.179389e-03  -3.441044e-03  0 
 5.661590e-03  -3.469891e-03  0 
 6.124084e-03  -3.490707e-03  0 
 6.576687e-03  -3.504127e-03  0 
 7.027220e-03  -3.511590e-03  0 
 7.482916e-03  -3.516795e-03  0 
 4.136288e-03  -3.946606e-03  0 
 4.679342e-03  -3.950516e-03  0 
 5.189378e-03  -3.951868e-03  0 
 5.669355e-03  -3.956954e-03  0 
 6.131526e-03  -3.962423e-03  0 
 6.584906e-03  -3.967239e-03  0 
 7.036540e-03  -3.971782e-03  0 
 7.490592e-03  -3.975741e-03  0 
 4.202226e-03  -4.454995e-03  0 
 4.706024e-03  -4.459034e-03  0 
 5.197838e-03  -4.451605e-03  0 
 5.672619e-03  -4.442578e-03  0 
 6.133919e-03  -4.436159e-03  0 
 6.588269e-03  -4.432841e-03  0 
 7.040698e-03  -4.432165e-03  0 
 7.493799e-03  -4.432757e-03  0 
 4.269386e-03  -4.936814e-03  0 
 4.742208e-03  -4.940772e-03  0 
 5.211517e-03  -4.932293e-03  0 
 5.674891e-03  -4.918206e-03  0 
 6.132491e-03  -4.904966e-03  0 
 6.586805e-03  -4.895812e-03  0 
 7.040193e-03  -4.890967e-03  0 
 7.493930e-03  -4.889153e-03  0 
 4.335551e-03  -5.399311e-03  0 
 4.781543e-03  -5.402651e-03  0 
 5.228496e-03  -5.394159e-03  0 
 5.677406e-03  -5.379142e-03  0 
 6.128871e-03  -5.364223e-03  0 
 6.582410e-03  -5.353360e-03  0 
 7.037144e-03  -5.347191e-03  0 
 7.492386e-03  -5.344619e-03  0 
 4.401711e-03  -5.842074e-03  0 
 4.820178e-03  -5.846003e-03  0 
 5.243991e-03  -5.837342e-03  0 
 5.678805e-03  -5.824291e-03  0 
 6.124678e-03  -5.812906e-03  0 
 6.577637e-03  -5.805019e-03  0 
 7.033928e-03  -5.800764e-03  0 
 7.490950e-03  -5.799190e-03  0 
 4.470148e-03  -6.263880e-03  0 
 4.852905e-03  -6.266188e-03  0 
 5.253801e-03  -6.259591e-03  0 
 5.679116e-03  -6.255701e-03  0 
 6.121684e-03  -6.253644e-03  0 
 6.574806e-03  -6.252801e-03  0 
 7.032717e-03  -6.252934e-03  0 
 7.491253e-03  -6.253750e-03  0 
 4.532616e-03  -6.651742e-03  0 
 4.871042e-03  -6.650300e-03  0 
 5.261489e-03  -6.663335e-03  0 
 5.681249e-03  -6.678818e-03  0 
 6.122068e-03  -6.691785e-03  0 
 6.575336e-03  -6.700832e-03  0 
 7.034735e-03  -6.706362e-03  0 
 7.494194e-03  -6.709155e-03  0 
VECTORS displacement_ITER2 FLOAT
 2.260049e-03  -1.796902e-03  0 
 6.310605e-03  -2.337083e-03  0 
 3.692155e-03  -5.318698e-03  0 
 6.296313e-03  -5.642417e-03  0 
 3.099802e-03  -1.973144e-03  0 
 3.618375e-03  -2.110625e-03  0 
 4.061268e-03  -2.200235e-03  0 
 4.462661e-03  -2.260977e-03  0 
 4.841783e-03  -2.302010e-03  0 
 5.209034e-03  -2.327522e-03  0 
 5.570450e-03  -2.340509e-03  0 
 5.931088e-03  -2.342003e-03  0 
 2.539581e-03  -2.549951e-03  0 
 2.716887e-03  -3.039694e-03  0 
 2.846173e-03  -3.462385e-03  0 
 2.948218e-03  -3.851641e-03  0 
 3.041442e-03  -4.221913e-03  0 
 3.140129e-03  -4.573140e-03  0 
 3.257253e-03  -4.907715e-03  0 
 3.423441e-03  -5.195757e-03  0 
 6.310037e-03  -2.713006e-03  0 
 6.313685e-03  -3.078949e-03  0 
 6.315952e-03  -3.445689e-03  0 
 6.314920e-03  -3.813360e-03  0 
 6.311403e-03  -4.181077e-03  0 
 6.307243e-03  -4.548301e-03  0 
 6.303905e-03  -4.914929e-03  0 
 6.301305e-03  -5.280883e-03  0 
 3.644927e-03  -5.388680e-03  0 
 3.868629e-03  -5.476801e-03  0 
 4.161229e-03  -5.539844e-03  0 
 4.494836e-03  -5.584571e-03  0 
 4.846037e-03  -5.614577e-03  0 
 5.211039e-03  -5.632260e-03  0 
 5.574878e-03  -5.640257e-03  0 
 5.939888e-03  -5.643155e-03  0 
 3.129083e-03  -2.577063e-03  0 
 3.644283e-03  -2.592876e-03  0 
 4.078784e-03  -2.626334e-03  0 
 4.476312e-03  -2.656310e-03  0 
 4.852918e-03  -2.679082e-03  0 
 5.218289e-03  -2.694413e-03  0 
 5.579013e-03  -2.703402e-03  0 
 5.942024e-03  -2.709464e-03  0 
 3.187040e-03  -3.064047e-03  0 
 3.654075e-03  -3.060953e-03  0 
 4.084999e-03  -3.056935e-03  0 
 4.481434e-03  -3.060261e-03  0 
 4.857699e-03  -3.065335e-03  0 
 5.223313e-03  -3.069870e-03  0 
 5.585396e-03  -3.073819e-03  0 
 5.948486e-03  -3.077112e-03  0 
 3.259217e-03  -3.483333e-03  0 
 3.679667e-03  -3.484713e-03  0 
 4.090042e-03  -3.473665e-03  0 
 4.481405e-03  -3.461616e-03  0 
 4.856676e-03  -3.453102e-03  0 
 5.223145e-03  -3.448110e-03  0 
 5.586520e-03  -3.445998e-03  0 
 5.950166e-03  -3.445565e-03  0 
 3.331213e-03  -3.871897e-03  0 
 3.718138e-03  -3.877044e-03  0 
 4.102959e-03  -3.867616e-03  0 
 4.481042e-03  -3.850988e-03  0 
 4.851901e-03  -3.835053e-03  0 
 5.218288e-03  -3.823755e-03  0 
 5.583113e-03  -3.817362e-03  0 
 5.948239e-03  -3.814496e-03  0 
 3.402246e-03  -4.242708e-03  0 
 3.761629e-03  -4.249270e-03  0 
 4.120910e-03  -4.240466e-03  0 
 4.481988e-03  -4.223207e-03  0 
 4.845640e-03  -4.205966e-03  0 
 5.211101e-03  -4.193445e-03  0 
 5.577405e-03  -4.186156e-03  0 
 5.944175e-03  -4.182691e-03  0 
 3.475528e-03  -4.598618e-03  0 
 3.804159e-03  -4.603564e-03  0 
 4.136890e-03  -4.592697e-03  0 
 4.482304e-03  -4.577321e-03  0 
 4.840006e-03  -4.564726e-03  0 
 5.204644e-03  -4.556355e-03  0 
 5.572028e-03  -4.551749e-03  0 
 5.939896e-03  -4.549560e-03  0 
 3.552211e-03  -4.933849e-03  0 
 3.837243e-03  -4.932209e-03  0 
 4.144927e-03  -4.921568e-03  0 
 4.482018e-03  -4.916506e-03  0 
 4.837191e-03  -4.914618e-03  0 
 5.201672e-03  -4.914320e-03  0 
 5.569395e-03  -4.914841e-03  0 
 5.937110e-03  -4.915315e-03  0 
 3.620957e-03  -5.221991e-03  0 
 3.850178e-03  -5.217401e-03  0 
 4.149945e-03  -5.232155e-03  0 
 4.484606e-03  -5.248685e-03  0 
 4.839298e-03  -5.261955e-03  0 
 5.203664e-03  -5.271195e-03  0 
 5.570966e-03  -5.277005e-03  0 
 5.936805e-03  -5.280103e-03  0 
VECTORS displacement_ITER3 FLOAT
 1.720336e-03  -1.644491e-03  0 
 5.433109e-03  -2.209092e-03  0 
 3.276768e-03  -4.731365e-03  0 
 5.442936e-03  -5.121350e-03  0 
 2.561789e-03  -1.822248e-03  0 
 3.048029e-03  -1.964980e-03  0 
 3.448538e-03  -2.054197e-03  0 
 3.808981e-03  -2.114593e-03  0 
 4.149466e-03  -2.156107e-03  0 
 4.478154e-03  -2.184784e-03  0 
 4.798368e-03  -2.202219e-03  0 
 5.112756e-03  -2.208764e-03  0 
 2.030374e-03  -2.372021e-03  0 
 2.227599e-03  -2.819812e-03  0 
 2.364314e-03  -3.194930e-03  0 
 2.472139e-03  -3.538932e-03  0 
 2.570426e-03  -3.865664e-03  0 
 2.672798e-03  -4.176596e-03  0 
 2.799007e-03  -4.465306e-03  0 
 2.983459e-03  -4.696687e-03  0 
 5.439541e-03  -2.529530e-03  0 
 5.446001e-03  -2.849832e-03  0 
 5.448680e-03  -3.173052e-03  0 
 5.447221e-03  -3.497630e-03  0 
 5.443397e-03  -3.822289e-03  0 
 5.439745e-03  -4.146639e-03  0 
 5.438388e-03  -4.471185e-03  0 
 5.439858e-03  -4.796696e-03  0 
 3.137164e-03  -4.822268e-03  0 
 3.301648e-03  -4.927826e-03  0 
 3.547791e-03  -5.002187e-03  0 
 3.834210e-03  -5.052434e-03  0 
 4.142101e-03  -5.085906e-03  0 
 4.459223e-03  -5.107146e-03  0 
 4.787461e-03  -5.118461e-03  0 
 5.115870e-03  -5.122562e-03  0 
 2.589709e-03  -2.399913e-03  0 
 3.071808e-03  -2.410125e-03  0 
 3.466714e-03  -2.441729e-03  0 
 3.823887e-03  -2.471614e-03  0 
 4.160786e-03  -2.495007e-03  0 
 4.486052e-03  -2.511027e-03  0 
 4.804393e-03  -2.520494e-03  0 
 5.120967e-03  -2.526059e-03  0 
 2.652687e-03  -2.845282e-03  0 
 3.080817e-03  -2.840219e-03  0 
 3.472908e-03  -2.833648e-03  0 
 3.829204e-03  -2.835806e-03  0 
 4.164723e-03  -2.840224e-03  0 
 4.488750e-03  -2.843862e-03  0 
 4.807617e-03  -2.846389e-03  0 
 5.125782e-03  -2.848298e-03  0 
 2.731307e-03  -3.219134e-03  0 
 3.108856e-03  -3.221649e-03  0 
 3.478119e-03  -3.209637e-03  0 
 3.828437e-03  -3.195878e-03  0 
 4.162056e-03  -3.185600e-03  0 
 4.486150e-03  -3.178769e-03  0 
 4.806371e-03  -3.174908e-03  0 
 5.126388e-03  -3.173312e-03  0 
 2.808878e-03  -3.562888e-03  0 
 3.150800e-03  -3.570095e-03  0 
 3.491840e-03  -3.560611e-03  0 
 3.827001e-03  -3.542385e-03  0 
 4.155289e-03  -3.524270e-03  0 
 4.479120e-03  -3.510883e-03  0 
 4.801258e-03  -3.502882e-03  0 
 5.123537e-03  -3.499103e-03  0 
 2.884691e-03  -3.889914e-03  0 
 3.197226e-03  -3.898119e-03  0 
 3.510304e-03  -3.889096e-03  0 
 3.826616e-03  -3.870382e-03  0 
 4.146951e-03  -3.851231e-03  0 
 4.470011e-03  -3.836901e-03  0 
 4.794243e-03  -3.828263e-03  0 
 5.118829e-03  -3.824086e-03  0 
 2.961967e-03  -4.202426e-03  0 
 3.241282e-03  -4.207396e-03  0 
 3.525629e-03  -4.195661e-03  0 
 3.825133e-03  -4.179366e-03  0 
 4.139221e-03  -4.165817e-03  0 
 4.461773e-03  -4.156288e-03  0 
 4.787830e-03  -4.150592e-03  0 
 5.114392e-03  -4.147832e-03  0 
 3.041810e-03  -4.491762e-03  0 
 3.273602e-03  -4.488334e-03  0 
 3.531817e-03  -4.477249e-03  0 
 3.822979e-03  -4.473142e-03  0 
 4.134418e-03  -4.472014e-03  0 
 4.456902e-03  -4.471489e-03  0 
 4.784156e-03  -4.471117e-03  0 
 5.112105e-03  -4.471089e-03  0 
 3.112194e-03  -4.724695e-03  0 
 3.283937e-03  -4.721349e-03  0 
 3.535249e-03  -4.739961e-03  0 
 3.824762e-03  -4.760341e-03  0 
 4.134858e-03  -4.776534e-03  0 
 4.456523e-03  -4.786831e-03  0 
 4.784053e-03  -4.792442e-03  0 
 5.113061e-03  -4.795276e-03  0 
VECTORS displacement_ITER4 FLOAT
 1.549977e-03  -1.499775e-03  0 
 5.220117e-03  -2.079314e-03  0 
 3.158462e-03  -4.512737e-03  0 
 5.224866e-03  -4.920921e-03  0 
 2.403632e-03  -1.680882e-03  0 
 2.888508e-03  -1.826453e-03  0 
 3.281623e-03  -1.918752e-03  0 
 3.635024e-03  -1.980707e-03  0 
 3.968281e-03  -2.022234e-03  0 
 4.289555e-03  -2.050123e-03  0 
 4.603030e-03  -2.067614e-03  0 
 4.911676e-03  -2.075862e-03  0 
 1.874227e-03  -2.230366e-03  0 
 2.078930e-03  -2.670474e-03  0 
 2.216708e-03  -3.038530e-03  0 
 2.324921e-03  -3.376370e-03  0 
 2.424350e-03  -3.697540e-03  0 
 2.527899e-03  -4.002537e-03  0 
 2.658136e-03  -4.283256e-03  0 
 2.849125e-03  -4.503614e-03  0 
 5.228652e-03  -2.388305e-03  0 
 5.235507e-03  -2.701308e-03  0 
 5.237855e-03  -3.017466e-03  0 
 5.235783e-03  -3.334877e-03  0 
 5.231138e-03  -3.652195e-03  0 
 5.226422e-03  -3.968944e-03  0 
 5.223732e-03  -4.285484e-03  0 
 5.223764e-03  -4.602729e-03  0 
 2.986575e-03  -4.613842e-03  0 
 3.139864e-03  -4.725095e-03  0 
 3.381622e-03  -4.800624e-03  0 
 3.663063e-03  -4.850771e-03  0 
 3.962834e-03  -4.882660e-03  0 
 4.273168e-03  -4.903022e-03  0 
 4.589122e-03  -4.914439e-03  0 
 4.907361e-03  -4.919532e-03  0 
 2.431387e-03  -2.258688e-03  0 
 2.910928e-03  -2.267713e-03  0 
 3.300115e-03  -2.299473e-03  0 
 3.650024e-03  -2.330087e-03  0 
 3.979447e-03  -2.353780e-03  0 
 4.297544e-03  -2.369953e-03  0 
 4.609217e-03  -2.379730e-03  0 
 4.918575e-03  -2.385177e-03  0 
 2.496165e-03  -2.697618e-03  0 
 2.919232e-03  -2.692510e-03  0 
 3.305762e-03  -2.685434e-03  0 
 3.655293e-03  -2.687491e-03  0 
 3.983511e-03  -2.692085e-03  0 
 4.300290e-03  -2.695914e-03  0 
 4.611919e-03  -2.698389e-03  0 
 4.922626e-03  -2.699961e-03  0 
 2.576887e-03  -3.063777e-03  0 
 2.947925e-03  -3.067098e-03  0 
 3.310836e-03  -3.055021e-03  0 
 3.654376e-03  -3.040981e-03  0 
 3.980775e-03  -3.030573e-03  0 
 4.297447e-03  -3.023684e-03  0 
 4.610186e-03  -3.019681e-03  0 
 4.922787e-03  -3.017893e-03  0 
 2.655801e-03  -3.400840e-03  0 
 2.990970e-03  -3.408437e-03  0 
 3.324961e-03  -3.398988e-03  0 
 3.652905e-03  -3.380503e-03  0 
 3.973789e-03  -3.362124e-03  0 
 4.290080e-03  -3.348572e-03  0 
 4.604650e-03  -3.340451e-03  0 
 4.919438e-03  -3.336535e-03  0 
 2.732654e-03  -3.721517e-03  0 
 3.038302e-03  -3.729445e-03  0 
 3.343911e-03  -3.720022e-03  0 
 3.652597e-03  -3.700936e-03  0 
 3.965298e-03  -3.681582e-03  0 
 4.280691e-03  -3.667195e-03  0 
 4.597221e-03  -3.658516e-03  0 
 4.914126e-03  -3.654220e-03  0 
 2.811048e-03  -4.027503e-03  0 
 3.082867e-03  -4.031375e-03  0 
 3.359420e-03  -4.018592e-03  0 
 3.651249e-03  -4.001781e-03  0 
 3.957678e-03  -3.988255e-03  0 
 4.272377e-03  -3.978939e-03  0 
 4.590421e-03  -3.973327e-03  0 
 4.908964e-03  -3.970434e-03  0 
 2.892007e-03  -4.309275e-03  0 
 3.114961e-03  -4.303992e-03  0 
 3.365363e-03  -4.291485e-03  0 
 3.649457e-03  -4.287038e-03  0 
 3.953487e-03  -4.286204e-03  0 
 4.267800e-03  -4.286124e-03  0 
 4.586397e-03  -4.286013e-03  0 
 4.905758e-03  -4.285811e-03  0 
 2.962992e-03  -4.532031e-03  0 
 3.123857e-03  -4.527159e-03  0 
 3.368636e-03  -4.545431e-03  0 
 3.652075e-03  -4.565980e-03  0 
 3.955136e-03  -4.582148e-03  0 
 4.268216e-03  -4.592712e-03  0 
 4.586169e-03  -4.598791e-03  0 
 4.905334e-03  -4.601736e-03  0 
VECTORS displacement_ITER5 FLOAT
 1.502499e-03  -1.457499e-03  0 
 5.075298e-03  -2.039381e-03  0 
 3.135087e-03  -4.351890e-03  0 
 5.084794e-03  -4.776077e-03  0 
 2.350510e-03  -1.637379e-03  0 
 2.825350e-03  -1.782837e-03  0 
 3.207497e-03  -1.876317e-03  0 
 3.550112e-03  -1.938268e-03  0 
 3.871785e-03  -1.979374e-03  0 
 4.181135e-03  -2.006353e-03  0 
 4.483245e-03  -2.023557e-03  0 
 4.781380e-03  -2.033302e-03  0 
 1.832952e-03  -2.176736e-03  0 
 2.038847e-03  -2.603928e-03  0 
 2.176290e-03  -2.960444e-03  0 
 2.285109e-03  -3.287820e-03  0 
 2.385716e-03  -3.597648e-03  0 
 2.491079e-03  -3.890622e-03  0 
 2.623706e-03  -4.158395e-03  0 
 2.816229e-03  -4.364872e-03  0 
 5.085157e-03  -2.333531e-03  0 
 5.092377e-03  -2.634797e-03  0 
 5.094654e-03  -2.939434e-03  0 
 5.092454e-03  -3.245264e-03  0 
 5.087787e-03  -3.550954e-03  0 
 5.083257e-03  -3.856111e-03  0 
 5.081071e-03  -4.161230e-03  0 
 5.082082e-03  -4.467495e-03  0 
 2.939616e-03  -4.459908e-03  0 
 3.079392e-03  -4.574213e-03  0 
 3.308064e-03  -4.651457e-03  0 
 3.576099e-03  -4.702528e-03  0 
 3.863758e-03  -4.735275e-03  0 
 4.163177e-03  -4.756275e-03  0 
 4.468015e-03  -4.768297e-03  0 
 4.776372e-03  -4.773781e-03  0 
 2.378052e-03  -2.205322e-03  0 
 2.847643e-03  -2.213757e-03  0 
 3.226086e-03  -2.245403e-03  0 
 3.564668e-03  -2.275944e-03  0 
 3.882549e-03  -2.299262e-03  0 
 4.189131e-03  -2.315215e-03  0 
 4.489693e-03  -2.325136e-03  0 
 4.787619e-03  -2.330591e-03  0 
 2.443941e-03  -2.631961e-03  0 
 2.855957e-03  -2.627300e-03  0 
 3.231555e-03  -2.620047e-03  0 
 3.569777e-03  -2.621834e-03  0 
 3.886526e-03  -2.626203e-03  0 
 4.191912e-03  -2.629903e-03  0 
 4.492126e-03  -2.632245e-03  0 
 4.791180e-03  -2.633564e-03  0 
 2.525579e-03  -2.986429e-03  0 
 2.885165e-03  -2.990244e-03  0 
 3.236662e-03  -2.978191e-03  0 
 3.568778e-03  -2.963904e-03  0 
 3.883714e-03  -2.953235e-03  0 
 4.188912e-03  -2.946118e-03  0 
 4.490124e-03  -2.941892e-03  0 
 4.791148e-03  -2.939939e-03  0 
 2.605068e-03  -3.312373e-03  0 
 2.928685e-03  -3.320084e-03  0 
 3.250949e-03  -3.310588e-03  0 
 3.567237e-03  -3.291871e-03  0 
 3.876561e-03  -3.273188e-03  0 
 4.181340e-03  -3.259349e-03  0 
 4.484407e-03  -3.251009e-03  0 
 4.787678e-03  -3.246971e-03  0 
 2.682546e-03  -3.621751e-03  0 
 2.976330e-03  -3.629573e-03  0 
 3.269955e-03  -3.619942e-03  0 
 3.566787e-03  -3.600591e-03  0 
 3.867833e-03  -3.580939e-03  0 
 4.171729e-03  -3.566272e-03  0 
 4.476837e-03  -3.557385e-03  0 
 4.782311e-03  -3.552989e-03  0 
 2.761804e-03  -3.915849e-03  0 
 3.021118e-03  -3.919598e-03  0 
 3.285367e-03  -3.906610e-03  0 
 3.565187e-03  -3.889594e-03  0 
 3.859915e-03  -3.875865e-03  0 
 4.163155e-03  -3.866326e-03  0 
 4.469910e-03  -3.860526e-03  0 
 4.777199e-03  -3.857556e-03  0 
 2.843702e-03  -4.184823e-03  0 
 3.053424e-03  -4.179693e-03  0 
 3.291144e-03  -4.167266e-03  0 
 3.563114e-03  -4.162927e-03  0 
 3.855367e-03  -4.162088e-03  0 
 4.158254e-03  -4.161912e-03  0 
 4.465753e-03  -4.161699e-03  0 
 4.774172e-03  -4.161447e-03  0 
 2.915722e-03  -4.393810e-03  0 
 3.062510e-03  -4.389526e-03  0 
 3.294497e-03  -4.408772e-03  0 
 3.565478e-03  -4.429931e-03  0 
 3.856596e-03  -4.446310e-03  0 
 4.158316e-03  -4.457106e-03  0 
 4.465371e-03  -4.463318e-03  0 
 4.773999e-03  -4.466314e-03  0 
VECTORS displacement_ITER6 FLOAT
 1.482947e-03  -1.451128e-03  0 
 5.023438e-03  -2.029785e-03  0 
 3.123578e-03  -4.301500e-03  0 
 5.034750e-03  -4.732754e-03  0 
 2.327877e-03  -1.627865e-03  0 
 2.798959e-03  -1.772238e-03  0 
 3.178172e-03  -1.865638e-03  0 
 3.517274e-03  -1.927227e-03  0 
 3.835015e-03  -1.968344e-03  0 
 4.140730e-03  -1.995050e-03  0 
 4.439757e-03  -2.011838e-03  0 
 4.735016e-03  -2.022305e-03  0 
 1.816503e-03  -2.162420e-03  0 
 2.020985e-03  -2.585201e-03  0 
 2.157876e-03  -2.938132e-03  0 
 2.266937e-03  -3.262359e-03  0 
 2.367935e-03  -3.568095e-03  0 
 2.475050e-03  -3.856988e-03  0 
 2.607256e-03  -4.120202e-03  0 
 2.800266e-03  -4.323321e-03  0 
 5.034154e-03  -2.318573e-03  0 
 5.041506e-03  -2.616262e-03  0 
 5.043659e-03  -2.917358e-03  0 
 5.041330e-03  -3.219553e-03  0 
 5.036592e-03  -3.521551e-03  0 
 5.032073e-03  -3.823000e-03  0 
 5.030001e-03  -4.124437e-03  0 
 5.031287e-03  -4.427087e-03  0 
 2.919298e-03  -4.413654e-03  0 
 3.055516e-03  -4.528909e-03  0 
 3.279628e-03  -4.606505e-03  0 
 3.542914e-03  -4.657659e-03  0 
 3.826997e-03  -4.691173e-03  0 
 4.122502e-03  -4.712265e-03  0 
 4.424216e-03  -4.724396e-03  0 
 4.728667e-03  -4.730122e-03  0 
 2.355251e-03  -2.191698e-03  0 
 2.821441e-03  -2.199768e-03  0 
 3.196529e-03  -2.231129e-03  0 
 3.531623e-03  -2.261417e-03  0 
 3.845877e-03  -2.284561e-03  0 
 4.148874e-03  -2.300497e-03  0 
 4.446182e-03  -2.310488e-03  0 
 4.740683e-03  -2.315804e-03  0 
 2.422013e-03  -2.613493e-03  0 
 2.829992e-03  -2.609350e-03  0 
 3.202015e-03  -2.602082e-03  0 
 3.536689e-03  -2.603733e-03  0 
 3.849885e-03  -2.607994e-03  0 
 4.151756e-03  -2.611671e-03  0 
 4.448454e-03  -2.613964e-03  0 
 4.743900e-03  -2.615124e-03  0 
 2.503845e-03  -2.964312e-03  0 
 2.859612e-03  -2.968339e-03  0 
 3.207303e-03  -2.956446e-03  0 
 3.535756e-03  -2.942146e-03  0 
 3.847101e-03  -2.931420e-03  0 
 4.148725e-03  -2.924241e-03  0 
 4.446334e-03  -2.919937e-03  0 
 4.743747e-03  -2.917913e-03  0 
 2.583426e-03  -3.286741e-03  0 
 2.903352e-03  -3.294503e-03  0 
 3.221784e-03  -3.285061e-03  0 
 3.534311e-03  -3.266375e-03  0 
 3.839963e-03  -3.247665e-03  0 
 4.141110e-03  -3.233769e-03  0 
 4.440555e-03  -3.225369e-03  0 
 4.740201e-03  -3.221290e-03  0 
 2.661229e-03  -3.592496e-03  0 
 2.951115e-03  -3.600264e-03  0 
 3.240896e-03  -3.590650e-03  0 
 3.533923e-03  -3.571321e-03  0 
 3.831238e-03  -3.551661e-03  0 
 4.131467e-03  -3.536954e-03  0 
 4.432944e-03  -3.528022e-03  0 
 4.734788e-03  -3.523598e-03  0 
 2.740792e-03  -3.882452e-03  0 
 2.996076e-03  -3.886399e-03  0 
 3.256378e-03  -3.873503e-03  0 
 3.532343e-03  -3.856538e-03  0 
 3.823298e-03  -3.842821e-03  0 
 4.122847e-03  -3.833257e-03  0 
 4.425986e-03  -3.827423e-03  0 
 4.729672e-03  -3.824437e-03  0 
 2.823233e-03  -4.147205e-03  0 
 3.028623e-03  -4.142448e-03  0 
 3.262250e-03  -4.130265e-03  0 
 3.530271e-03  -4.126078e-03  0 
 3.818683e-03  -4.125274e-03  0 
 4.117871e-03  -4.125113e-03  0 
 4.421794e-03  -4.124904e-03  0 
 4.726689e-03  -4.124629e-03  0 
 2.895507e-03  -4.352066e-03  0 
 3.037987e-03  -4.348106e-03  0 
 3.265817e-03  -4.367861e-03  0 
 3.532582e-03  -4.389242e-03  0 
 3.819768e-03  -4.405715e-03  0 
 4.117894e-03  -4.416646e-03  0 
 4.421354e-03  -4.422949e-03  0 
 4.726551e-03  -4.425940e-03  0 
VECTORS displacement_ITER7 FLOAT
 1.460563e-03  -1.432606e-03  0 
 4.982520e-03  -2.008039e-03  0 
 3.106376e-03  -4.255785e-03  0 
 4.992108e-03  -4.690661e-03  0 
 2.304086e-03  -1.607402e-03  0 
 2.773315e-03  -1.751222e-03  0 
 3.150804e-03  -1.844519e-03  0 
 3.487249e-03  -1.906240e-03  0 
 3.802286e-03  -1.947649e-03  0 
 4.105649e-03  -1.974232e-03  0 
 4.402792e-03  -1.990407e-03  0 
 4.696332e-03  -2.000632e-03  0 
 1.796066e-03  -2.138784e-03  0 
 1.999792e-03  -2.559354e-03  0 
 2.136854e-03  -2.910326e-03  0 
 2.246240e-03  -3.232435e-03  0 
 2.347360e-03  -3.535701e-03  0 
 2.455233e-03  -3.821752e-03  0 
 2.586678e-03  -4.082054e-03  0 
 2.780261e-03  -4.283344e-03  0 
 4.993155e-03  -2.294885e-03  0 
 5.000200e-03  -2.590595e-03  0 
 5.002085e-03  -2.889500e-03  0 
 4.999567e-03  -3.189382e-03  0 
 4.994677e-03  -3.489013e-03  0 
 4.990000e-03  -3.788053e-03  0 
 4.987740e-03  -4.087016e-03  0 
 4.988835e-03  -4.387138e-03  0 
 2.896077e-03  -4.370887e-03  0 
 3.030572e-03  -4.486559e-03  0 
 3.252353e-03  -4.563773e-03  0 
 3.513611e-03  -4.614877e-03  0 
 3.795200e-03  -4.648663e-03  0 
 4.088319e-03  -4.669644e-03  0 
 4.387110e-03  -4.681593e-03  0 
 4.688533e-03  -4.687586e-03  0 
 2.331356e-03  -2.168859e-03  0 
 2.795721e-03  -2.176770e-03  0 
 3.168787e-03  -2.207936e-03  0 
 3.501590e-03  -2.238110e-03  0 
 3.813351e-03  -2.261284e-03  0 
 4.113920e-03  -2.277240e-03  0 
 4.409104e-03  -2.287160e-03  0 
 4.701640e-03  -2.292267e-03  0 
 2.398764e-03  -2.587849e-03  0 
 2.804345e-03  -2.583988e-03  0 
 3.174166e-03  -2.576649e-03  0 
 3.506565e-03  -2.578187e-03  0 
 3.817405e-03  -2.582400e-03  0 
 4.116924e-03  -2.586106e-03  0 
 4.411369e-03  -2.588417e-03  0 
 4.704677e-03  -2.589537e-03  0 
 2.480736e-03  -2.936512e-03  0 
 2.834171e-03  -2.940535e-03  0 
 3.179486e-03  -2.928651e-03  0 
 3.505611e-03  -2.914300e-03  0 
 3.814631e-03  -2.903546e-03  0 
 4.113933e-03  -2.896383e-03  0 
 4.409249e-03  -2.892112e-03  0 
 4.704415e-03  -2.890095e-03  0 
 2.560407e-03  -3.256658e-03  0 
 2.877995e-03  -3.264329e-03  0 
 3.194042e-03  -3.254841e-03  0 
 3.504203e-03  -3.236155e-03  0 
 3.807513e-03  -3.217458e-03  0 
 4.106327e-03  -3.203590e-03  0 
 4.403446e-03  -3.195221e-03  0 
 4.700770e-03  -3.191149e-03  0 
 2.638338e-03  -3.559985e-03  0 
 2.925798e-03  -3.567616e-03  0 
 3.213225e-03  -3.557977e-03  0 
 3.503887e-03  -3.538671e-03  0 
 3.798836e-03  -3.519062e-03  0 
 4.096696e-03  -3.504407e-03  0 
 4.395798e-03  -3.495510e-03  0 
 4.695260e-03  -3.491091e-03  0 
 2.717923e-03  -3.847208e-03  0 
 2.970858e-03  -3.851209e-03  0 
 3.228801e-03  -3.838328e-03  0 
 3.502410e-03  -3.821411e-03  0 
 3.790981e-03  -3.807776e-03  0 
 4.088111e-03  -3.798295e-03  0 
 4.388811e-03  -3.792511e-03  0 
 4.690047e-03  -3.789527e-03  0 
 2.800606e-03  -4.109378e-03  0 
 3.003515e-03  -4.104687e-03  0 
 3.234798e-03  -4.092548e-03  0 
 3.500485e-03  -4.088441e-03  0 
 3.786504e-03  -4.087724e-03  0 
 4.083223e-03  -4.087679e-03  0 
 4.384603e-03  -4.087555e-03  0 
 4.686949e-03  -4.087267e-03  0 
 2.872783e-03  -4.311833e-03  0 
 3.012915e-03  -4.307798e-03  0 
 3.238556e-03  -4.327641e-03  0 
 3.502956e-03  -4.349072e-03  0 
 3.787782e-03  -4.365624e-03  0 
 4.083437e-03  -4.376654e-03  0 
 4.384184e-03  -4.383068e-03  0 
 4.686611e-03  -4.386072e-03  0 
VECTORS displacement_ITER8 FLOAT
 1.459559e-03  -1.431208e-03  0 
 4.955538e-03  -2.005433e-03  0 
 3.111322e-03  -4.221945e-03  0 
 4.964489e-03  -4.660353e-03  0 
 2.300541e-03  -1.605498e-03  0 
 2.767202e-03  -1.749190e-03  0 
 3.141966e-03  -1.842516e-03  0 
 3.475285e-03  -1.904599e-03  0 
 3.787210e-03  -1.946186e-03  0 
 4.087278e-03  -1.972688e-03  0 
 4.381199e-03  -1.988580e-03  0 
 4.671648e-03  -1.998513e-03  0 
 1.795704e-03  -2.133467e-03  0 
 1.999544e-03  -2.551255e-03  0 
 2.137097e-03  -2.899532e-03  0 
 2.247111e-03  -3.218507e-03  0 
 2.348812e-03  -3.518713e-03  0 
 2.456753e-03  -3.800938e-03  0 
 2.588908e-03  -4.057600e-03  0 
 2.782836e-03  -4.255279e-03  0 
 4.965691e-03  -2.289919e-03  0 
 4.972459e-03  -2.582594e-03  0 
 4.974186e-03  -2.878332e-03  0 
 4.971575e-03  -3.174999e-03  0 
 4.966641e-03  -3.471407e-03  0 
 4.961971e-03  -3.767232e-03  0 
 4.959776e-03  -4.063008e-03  0 
 4.961005e-03  -4.359994e-03  0 
 2.894863e-03  -4.338939e-03  0 
 3.025879e-03  -4.455157e-03  0 
 3.243526e-03  -4.532599e-03  0 
 3.501164e-03  -4.584190e-03  0 
 3.779362e-03  -4.618377e-03  0 
 4.069449e-03  -4.639555e-03  0 
 4.365262e-03  -4.651403e-03  0 
 4.663889e-03  -4.657360e-03  0 
 2.327962e-03  -2.164006e-03  0 
 2.789642e-03  -2.171982e-03  0 
 3.159894e-03  -2.203150e-03  0 
 3.489677e-03  -2.233335e-03  0 
 3.798220e-03  -2.256521e-03  0 
 4.095519e-03  -2.272419e-03  0 
 4.387492e-03  -2.282259e-03  0 
 4.677000e-03  -2.287320e-03  0 
 2.395805e-03  -2.579973e-03  0 
 2.798421e-03  -2.576255e-03  0 
 3.165261e-03  -2.568889e-03  0 
 3.494579e-03  -2.570339e-03  0 
 3.802233e-03  -2.574470e-03  0 
 4.098528e-03  -2.578128e-03  0 
 4.389797e-03  -2.580428e-03  0 
 4.680017e-03  -2.581565e-03  0 
 2.478061e-03  -2.925744e-03  0 
 2.828423e-03  -2.929753e-03  0 
 3.170596e-03  -2.917801e-03  0 
 3.493568e-03  -2.903341e-03  0 
 3.799411e-03  -2.892485e-03  0 
 4.095527e-03  -2.885261e-03  0 
 4.387677e-03  -2.880973e-03  0 
 4.679690e-03  -2.878951e-03  0 
 2.558022e-03  -3.242834e-03  0 
 2.872349e-03  -3.250409e-03  0 
 3.185170e-03  -3.240823e-03  0 
 3.492120e-03  -3.222029e-03  0 
 3.792240e-03  -3.203230e-03  0 
 4.087881e-03  -3.189289e-03  0 
 4.381832e-03  -3.180879e-03  0 
 4.675980e-03  -3.176786e-03  0 
 2.636162e-03  -3.542820e-03  0 
 2.920250e-03  -3.550430e-03  0 
 3.204361e-03  -3.540723e-03  0 
 3.491760e-03  -3.521323e-03  0 
 3.783498e-03  -3.501617e-03  0 
 4.078186e-03  -3.486885e-03  0 
 4.374130e-03  -3.477938e-03  0 