# vtk DataFile Version 3.1
this is an vtk file created by FEMAC
ASCII
DATASET UNSTRUCTURED_GRID
POINTS 100 FLOAT
5.000000 0.000000 0.000000
6.000000 0.000000 0.000000
5.000000 1.000000 0.000000
6.000000 1.000000 0.000000
5.111111 0.000000 0.000000
5.222222 0.000000 0.000000
5.333333 0.000000 0.000000
5.444444 0.000000 0.000000
5.555556 0.000000 0.000000
5.666667 0.000000 0.000000
5.777778 0.000000 0.000000
5.888889 0.000000 0.000000
5.000000 0.111111 0.000000
5.000000 0.222222 0.000000
5.000000 0.333333 0.000000
5.000000 0.444444 0.000000
5.000000 0.555556 0.000000
5.000000 0.666667 0.000000
5.000000 0.777778 0.000000
5.000000 0.888889 0.000000
5.111111 1.000000 0.000000
5.222222 1.000000 0.000000
5.333333 1.000000 0.000000
5.444444 1.000000 0.000000
5.555556 1.000000 0.000000
5.666667 1.000000 0.000000
5.777778 1.000000 0.000000
5.888889 1.000000 0.000000
6.000000 0.111111 0.000000
6.000000 0.222222 0.000000
6.000000 0.333333 0.000000
6.000000 0.444444 0.000000
6.000000 0.555556 0.000000
6.000000 0.666667 0.000000
6.000000 0.777778 0.000000
6.000000 0.888889 0.000000
5.111111 0.111111 0.000000
5.111111 0.222222 0.000000
5.111111 0.333333 0.000000
5.111111 0.444444 0.000000
5.111111 0.555556 0.000000
5.111111 0.666667 0.000000
5.111111 0.777778 0.000000
5.111111 0.888889 0.000000
5.222222 0.111111 0.000000
5.222222 0.222222 0.000000
5.222222 0.333333 0.000000
5.222222 0.444444 0.000000
5.222222 0.555556 0.000000
5.222222 0.666667 0.000000
5.222222 0.777778 0.000000
5.222222 0.888889 0.000000
5.333333 0.111111 0.000000
5.333333 0.222222 0.000000
5.333333 0.333333 0.000000
5.333333 0.444444 0.000000
5.333333 0.555556 0.000000
5.333333 0.666667 0.000000
5.333333 0.777778 0.000000
5.333333 0.888889 0.000000
5.444444 0.111111 0.000000
5.444444 0.222222 0.000000
5.444444 0.333333 0.000000
5.444444 0.444444 0.000000
5.444444 0.555556 0.000000
5.444444 0.666667 0.000000
5.444444 0.777778 0.000000
5.444444 0.888889 0.000000
5.555556 0.111111 0.000000
5.555556 0.222222 0.000000
5.555556 0.333333 0.000000
5.555556 0.444444 0.000000
5.555556 0.555556 0.000000
5.555556 0.666667 0.000000
5.555556 0.777778 0.000000
5.555556 0.888889 0.000000
5.666667 0.111111 0.000000
5.666667 0.222222 0.000000
5.666667 0.333333 0.000000
5.666667 0.444444 0.000000
5.666667 0.555556 0.000000
5.666667 0.666667 0.000000
5.666667 0.777778 0.000000
5.666667 0.888889 0.000000
5.777778 0.111111 0.000000
5.777778 0.222222 0.000000
5.777778 0.333333 0.000000
5.777778 0.444444 0.000000
5.777778 0.555556 0.000000
5.777778 0.666667 0.000000
5.777778 0.777778 0.000000
5.777778 0.888889 0.000000
5.888889 0.111111 0.000000
5.888889 0.222222 0.000000
5.888889 0.333333 0.000000
5.888889 0.444444 0.000000
5.888889 0.555556 0.000000
5.888889 0.666667 0.000000
5.888889 0.777778 0.000000
5.888889 0.888889 0.000000
CELLS 81 405 
4 0  4 36 12
4 12 36 37 13
4 13 37 38 14
4 14 38 39 15
4 15 39 40 16
4 16 40 41 17
4 17 41 42 18
4 18 42 43 19
4 19 43 20  2
4 4  5 44 36
4 36 44 45 37
4 37 45 46 38
4 38 46 47 39
4 39 47 48 40
4 40 48 49 41
4 41 49 50 42
4 42 50 51 43
4 43 51 21 20
4 5  6 52 44
4 44 52 53 45
4 45 53 54 46
4 46 54 55 47
4 47 55 56 48
4 48 56 57 49
4 49 57 58 50
4 50 58 59 51
4 51 59 22 21
4 6  7 60 52
4 52 60 61 53
4 53 61 62 54
4 54 62 63 55
4 55 63 64 56
4 56 64 65 57
4 57 65 66 58
4 58 66 67 59
4 59 67 23 22
4 7  8 68 60
4 60 68 69 61
4 61 69 70 62
4 62 70 71 63
4 63 71 72 64
4 64 72 73 65
4 65 73 74 66
4 66 74 75 67
4 67 75 24 23
4 8  9 76 68
4 68 76 77 69
4 69 77 78 70
4 70 78 79 71
4 71 79 80 72
4 72 80 81 73
4 73 81 82 74
4 74 82 83 75
4 75 83 25 24
4 9 10 84 76
4 76 84 85 77
4 77 85 86 78
4 78 86 87 79
4 79 87 88 80
4 80 88 89 81
4 81 89 90 82
4 82 90 91 83
4 83 91 26 25
4 10 11 92 84
4 84 92 93 85
4 85 93 94 86
4 86 94 95 87
4 87 95 96 88
4 88 96 97 89
4 89 97 98 90
4 90 98 99 91
4 91 99 27 26
4 11  1 28 92
4 92 28 29 93
4 93 29 30 94
4 94 30 31 95
4 95 31 32 96
4 96 32 33 97
4 97 33 34 98
4 98 34 35 99
4 99 35  3 27
CELL_TYPES 81
9 9 9 9 9 9 9 9 9 9 9 9 9 9 9 9 9 9 9 9 9 9 9 9 9 9 9 9 9 9 9 9 9 9 9 9 9 9 9 9 9 9 9 9 9 9 9 9 9 9 9 9 9 9 9 9 9 9 9 9 9 9 9 9 9 9 9 9 9 9 9 9 9 9 9 9 9 9 9 9 9 
POINT_DATA 100
VECTORS displacement_ITER1 FLOAT
 -1.213240e-02  -1.792730e-02  0 
 -1.221174e-02  -2.262998e-02  0 
 -7.358528e-03  -1.711806e-02  0 
 -8.071578e-03  -2.170663e-02  0 
 -1.212836e-02  -1.843098e-02  0 
 -1.218340e-02  -1.896562e-02  0 
 -1.221562e-02  -1.951864e-02  0 
 -1.222451e-02  -2.006943e-02  0 
 -1.222158e-02  -2.060692e-02  0 
 -1.221556e-02  -2.112909e-02  0 
 -1.221110e-02  -2.163802e-02  0 
 -1.220989e-02  -2.213707e-02  0 
 -1.140349e-02  -1.775327e-02  0 
 -1.099413e-02  -1.768764e-02  0 
 -1.058901e-02  -1.766632e-02  0 
 -1.014601e-02  -1.765832e-02  0 
 -9.631558e-03  -1.770357e-02  0 
 -9.081671e-03  -1.777215e-02  0 
 -8.547621e-03  -1.780595e-02  0 
 -8.153491e-03  -1.747894e-02  0 
 -7.611182e-03  -1.803759e-02  0 
 -7.915633e-03  -1.838761e-02  0 
 -7.786686e-03  -1.884534e-02  0 
 -7.707234e-03  -1.946203e-02  0 
 -7.754109e-03  -1.989650e-02  0 
 -7.787032e-03  -2.022530e-02  0 
 -7.819560e-03  -2.060997e-02  0 
 -7.874396e-03  -2.105772e-02  0 
 -1.172103e-02  -2.261621e-02  0 
 -1.123322e-02  -2.257585e-02  0 
 -1.074831e-02  -2.250841e-02  0 
 -1.026849e-02  -2.241395e-02  0 
 -9.796927e-03  -2.229252e-02  0 
 -9.338231e-03  -2.214474e-02  0 
 -8.897289e-03  -2.197559e-02  0 
 -8.470719e-03  -2.180503e-02  0 
 -1.159250e-02  -1.838190e-02  0 
 -1.105921e-02  -1.829349e-02  0 
 -1.057895e-02  -1.826242e-02  0 
 -1.008783e-02  -1.826622e-02  0 
 -9.574347e-03  -1.827902e-02  0 
 -9.066315e-03  -1.826870e-02  0 
 -8.625052e-03  -1.818206e-02  0 
 -8.179168e-03  -1.810425e-02  0 
 -1.164545e-02  -1.894134e-02  0 
 -1.111244e-02  -1.890104e-02  0 
 -1.058573e-02  -1.886161e-02  0 
 -1.007225e-02  -1.883810e-02  0 
 -9.569595e-03  -1.880906e-02  0 
 -9.092833e-03  -1.875002e-02  0 
 -8.634648e-03  -1.866934e-02  0 
 -8.178244e-03  -1.857001e-02  0 
 -1.167064e-02  -1.950435e-02  0 
 -1.113561e-02  -1.947535e-02  0 
 -1.060575e-02  -1.943579e-02  0 
 -1.008761e-02  -1.938706e-02  0 
 -9.589797e-03  -1.932515e-02  0 
 -9.112528e-03  -1.924645e-02  0 
 -8.654298e-03  -1.914832e-02  0 
 -8.232524e-03  -1.900476e-02  0 
 -1.168477e-02  -2.005849e-02  0 
 -1.115308e-02  -2.002906e-02  0 
 -1.062894e-02  -1.998308e-02  0 
 -1.011595e-02  -1.991961e-02  0 
 -9.617972e-03  -1.983851e-02  0 
 -9.136589e-03  -1.974052e-02  0 
 -8.675723e-03  -1.962686e-02  0 
 -8.224717e-03  -1.952077e-02  0 
 -1.169352e-02  -2.059664e-02  0 
 -1.117007e-02  -2.056439e-02  0 
 -1.065372e-02  -2.051202e-02  0 
 -1.014698e-02  -2.043964e-02  0 
 -9.651212e-03  -2.034718e-02  0 
 -9.165406e-03  -2.023534e-02  0 
 -8.684504e-03  -2.011324e-02  0 
 -8.200209e-03  -2.000148e-02  0 
 -1.170013e-02  -2.111831e-02  0 
 -1.118651e-02  -2.108367e-02  0 
 -1.067820e-02  -2.102677e-02  0 
 -1.017786e-02  -2.094861e-02  0 
 -9.686351e-03  -2.084991e-02  0 
 -9.200594e-03  -2.073127e-02  0 
 -8.711571e-03  -2.059061e-02  0 
 -8.226831e-03  -2.042417e-02  0 
 -1.170649e-02  -2.162635e-02  0 
 -1.120218e-02  -2.158993e-02  0 
 -1.070166e-02  -2.152964e-02  0 
 -1.020766e-02  -2.144676e-02  0 
 -9.721701e-03  -2.134287e-02  0 
 -9.243952e-03  -2.121796e-02  0 
 -8.773490e-03  -2.106418e-02  0 
 -8.295322e-03  -2.085499e-02  0 
 -1.171348e-02  -2.212448e-02  0 
 -1.121747e-02  -2.208643e-02  0 
 -1.072465e-02  -2.202276e-02  0 
 -1.023729e-02  -2.193457e-02  0 
 -9.758057e-03  -2.182303e-02  0 
 -9.290950e-03  -2.168857e-02  0 
 -8.840219e-03  -2.153043e-02  0 
 -8.404157e-03  -2.134487e-02  0 
VECTORS displacement_ITER2 FLOAT
 -9.646251e-03  -1.409240e-02  0 
 -9.472784e-03  -1.796992e-02  0 
 -5.746699e-03  -1.363740e-02  0 
 -5.950275e-03  -1.707768e-02  0 
 -9.516517e-03  -1.454131e-02  0 
 -9.511557e-03  -1.498599e-02  0 
 -9.509882e-03  -1.544478e-02  0 
 -9.500231e-03  -1.589814e-02  0 
 -9.488063e-03  -1.633731e-02  0 
 -9.478075e-03  -1.676134e-02  0 
 -9.472326e-03  -1.717254e-02  0 
 -9.470914e-03  -1.757420e-02  0 
 -8.883411e-03  -1.393861e-02  0 
 -8.463739e-03  -1.383121e-02  0 
 -8.056537e-03  -1.380053e-02  0 
 -7.657157e-03  -1.378347e-02  0 
 -7.251587e-03  -1.384800e-02  0 
 -6.814318e-03  -1.389030e-02  0 
 -6.278606e-03  -1.394867e-02  0 
 -6.005161e-03  -1.380997e-02  0 
 -5.714000e-03  -1.395889e-02  0 
 -5.770685e-03  -1.419521e-02  0 
 -5.791248e-03  -1.465569e-02  0 
 -5.827541e-03  -1.503259e-02  0 
 -5.808684e-03  -1.538313e-02  0 
 -5.797606e-03  -1.577081e-02  0 
 -5.817958e-03  -1.615951e-02  0 
 -5.857705e-03  -1.652004e-02  0 
 -9.079214e-03  -1.795618e-02  0 
 -8.688194e-03  -1.791598e-02  0 
 -8.299028e-03  -1.784923e-02  0 
 -7.912422e-03  -1.775726e-02  0 
 -7.528227e-03  -1.764264e-02  0 
 -7.145052e-03  -1.750834e-02  0 
 -6.761599e-03  -1.735718e-02  0 
 -6.376308e-03  -1.719780e-02  0 
 -9.037994e-03  -1.450023e-02  0 
 -8.531122e-03  -1.439920e-02  0 
 -8.077752e-03  -1.434275e-02  0 
 -7.636901e-03  -1.432142e-02  0 
 -7.202495e-03  -1.431551e-02  0 
 -6.768186e-03  -1.431472e-02  0 
 -6.378787e-03  -1.423328e-02  0 
 -6.044056e-03  -1.409208e-02  0 
 -9.053323e-03  -1.497072e-02  0 
 -8.579777e-03  -1.492537e-02  0 
 -8.105135e-03  -1.486613e-02  0 
 -7.649127e-03  -1.481630e-02  0 
 -7.210558e-03  -1.476749e-02  0 
 -6.803747e-03  -1.469439e-02  0 
 -6.435982e-03  -1.458475e-02  0 
 -6.090211e-03  -1.443469e-02  0 
 -9.054051e-03  -1.543560e-02  0 
 -8.596073e-03  -1.540380e-02  0 
 -8.135239e-03  -1.535074e-02  0 
 -7.682845e-03  -1.528145e-02  0 
 -7.252715e-03  -1.519569e-02  0 
 -6.852011e-03  -1.508798e-02  0 
 -6.480954e-03  -1.495732e-02  0 
 -6.141300e-03  -1.480496e-02  0 
 -9.054236e-03  -1.588972e-02  0 
 -8.608450e-03  -1.585795e-02  0 
 -8.163688e-03  -1.580240e-02  0 
 -7.726038e-03  -1.572182e-02  0 
 -7.303917e-03  -1.561662e-02  0 
 -6.902205e-03  -1.548892e-02  0 
 -6.521466e-03  -1.534233e-02  0 
 -6.155776e-03  -1.518833e-02  0 
 -9.055760e-03  -1.632804e-02  0 
 -8.623154e-03  -1.629364e-02  0 
 -8.193129e-03  -1.623364e-02  0 
 -7.769433e-03  -1.614679e-02  0 
 -7.355501e-03  -1.603320e-02  0 
 -6.952610e-03  -1.589504e-02  0 
 -6.559727e-03  -1.573785e-02  0 
 -6.177905e-03  -1.556487e-02  0 
 -9.059258e-03  -1.675076e-02  0 
 -8.639540e-03  -1.671420e-02  0 
 -8.222303e-03  -1.665136e-02  0 
 -7.810212e-03  -1.656187e-02  0 
 -7.404434e-03  -1.644608e-02  0 
 -7.003594e-03  -1.630497e-02  0 
 -6.603710e-03  -1.613929e-02  0 
 -6.204743e-03  -1.595749e-02  0 
 -9.064713e-03  -1.716074e-02  0 
 -8.656140e-03  -1.712295e-02  0 
 -8.249687e-03  -1.705884e-02  0 
 -7.847302e-03  -1.696874e-02  0 
 -7.449345e-03  -1.685370e-02  0 
 -7.054220e-03  -1.671472e-02  0 
 -6.656371e-03  -1.655102e-02  0 
 -6.239779e-03  -1.635805e-02  0 
 -9.071637e-03  -1.756151e-02  0 
 -8.672240e-03  -1.752286e-02  0 
 -8.274947e-03  -1.745779e-02  0 
 -7.880870e-03  -1.736738e-02  0 
 -7.490099e-03  -1.725333e-02  0 
 -7.101280e-03  -1.711778e-02  0 
 -6.711217e-03  -1.696257e-02  0 
 -6.311877e-03  -1.678104e-02  0 
VECTORS displacement_ITER3 FLOAT
 -8.289096e-03  -1.247357e-02  0 
 -8.298092e-03  -1.604095e-02  0 
 -4.976111e-03  -1.228276e-02  0 
 -5.136666e-03  -1.498302e-02  0 
 -8.310772e-03  -1.291691e-02  0 
 -8.330666e-03  -1.334920e-02  0 
 -8.331479e-03  -1.377637e-02  0 
 -8.322758e-03  -1.418778e-02  0 
 -8.311849e-03  -1.458254e-02  0 
 -8.302823e-03  -1.496240e-02  0 
 -8.297515e-03  -1.533003e-02  0 
 -8.296214e-03  -1.568843e-02  0 
 -7.807705e-03  -1.242856e-02  0 
 -7.437331e-03  -1.236491e-02  0 
 -7.053331e-03  -1.235706e-02  0 
 -6.694119e-03  -1.235003e-02  0 
 -6.358882e-03  -1.235799e-02  0 
 -6.008001e-03  -1.235539e-02  0 
 -5.567363e-03  -1.236142e-02  0 
 -5.244767e-03  -1.234211e-02  0 
 -5.035209e-03  -1.247014e-02  0 
 -5.063505e-03  -1.275013e-02  0 
 -5.125005e-03  -1.313859e-02  0 
 -5.149369e-03  -1.343567e-02  0 
 -5.117124e-03  -1.370303e-02  0 
 -5.080717e-03  -1.401860e-02  0 
 -5.081626e-03  -1.435877e-02  0 
 -5.113325e-03  -1.465476e-02  0 
 -7.947715e-03  -1.602722e-02  0 
 -7.599933e-03  -1.598694e-02  0 
 -7.254173e-03  -1.591983e-02  0 
 -6.911248e-03  -1.582693e-02  0 
 -6.570677e-03  -1.571054e-02  0 
 -6.229555e-03  -1.557299e-02  0 
 -5.882638e-03  -1.541374e-02  0 
 -5.527288e-03  -1.522424e-02  0 
 -7.883055e-03  -1.289029e-02  0 
 -7.465905e-03  -1.285252e-02  0 
 -7.069816e-03  -1.282178e-02  0 
 -6.693270e-03  -1.279672e-02  0 
 -6.330375e-03  -1.277677e-02  0 
 -5.964184e-03  -1.276398e-02  0 
 -5.606036e-03  -1.271774e-02  0 
 -5.283458e-03  -1.261869e-02  0 
 -7.905986e-03  -1.333686e-02  0 
 -7.491360e-03  -1.330737e-02  0 
 -7.088866e-03  -1.326831e-02  0 
 -6.701507e-03  -1.322656e-02  0 
 -6.327205e-03  -1.318363e-02  0 
 -5.970851e-03  -1.312971e-02  0 
 -5.642988e-03  -1.305028e-02  0 
 -5.351130e-03  -1.292976e-02  0 
 -7.916076e-03  -1.376670e-02  0 
 -7.508355e-03  -1.373730e-02  0 
 -7.108675e-03  -1.369258e-02  0 
 -6.719792e-03  -1.363601e-02  0 
 -6.346587e-03  -1.356717e-02  0 
 -5.995811e-03  -1.348181e-02  0 
 -5.674873e-03  -1.337685e-02  0 
 -5.388176e-03  -1.325847e-02  0 
 -7.921024e-03  -1.417865e-02  0 
 -7.522817e-03  -1.414702e-02  0 
 -7.130244e-03  -1.409580e-02  0 
 -6.746785e-03  -1.402593e-02  0 
 -6.377486e-03  -1.393709e-02  0 
 -6.027423e-03  -1.382891e-02  0 
 -5.699719e-03  -1.370359e-02  0 
 -5.397507e-03  -1.356915e-02  0 
 -7.924270e-03  -1.457291e-02  0 
 -7.537402e-03  -1.453889e-02  0 
 -7.154369e-03  -1.448184e-02  0 
 -6.778633e-03  -1.440200e-02  0 
 -6.413658e-03  -1.429949e-02  0 
 -6.062270e-03  -1.417564e-02  0 
 -5.726256e-03  -1.403306e-02  0 
 -5.408343e-03  -1.387261e-02  0 
 -7.928072e-03  -1.495176e-02  0 
 -7.552680e-03  -1.491577e-02  0 
 -7.179895e-03  -1.485475e-02  0 
 -6.812529e-03  -1.476871e-02  0 
 -6.452380e-03  -1.465789e-02  0 
 -6.100179e-03  -1.452344e-02  0 
 -5.757057e-03  -1.436831e-02  0 
 -5.423180e-03  -1.419760e-02  0 
 -7.933388e-03  -1.531829e-02  0 
 -7.568350e-03  -1.528089e-02  0 
 -7.205382e-03  -1.521756e-02  0 
 -6.846525e-03  -1.512834e-02  0 
 -6.492284e-03  -1.501353e-02  0 
 -6.141425e-03  -1.487377e-02  0 
 -5.790835e-03  -1.471118e-02  0 
 -5.438452e-03  -1.453542e-02  0 
 -7.940174e-03  -1.567577e-02  0 
 -7.584033e-03  -1.563724e-02  0 
 -7.230054e-03  -1.557220e-02  0 
 -6.879429e-03  -1.548131e-02  0 
 -6.531994e-03  -1.536545e-02  0 
 -6.185066e-03  -1.522543e-02  0 
 -5.833119e-03  -1.506154e-02  0 
 -5.468133e-03  -1.487083e-02  0 
VECTORS displacement_ITER4 FLOAT
 -7.846000e-03  -1.201177e-02  0 
 -7.884241e-03  -1.545336e-02  0 
 -4.682064e-03  -1.187740e-02  0 
 -4.864165e-03  -1.437804e-02  0 
 -7.900834e-03  -1.242319e-02  0 
 -7.924355e-03  -1.285252e-02  0 
 -7.923384e-03  -1.327069e-02  0 
 -7.912339e-03  -1.367020e-02  0 
 -7.899725e-03  -1.405146e-02  0 
 -7.889681e-03  -1.441720e-02  0 
 -7.883865e-03  -1.477061e-02  0 
 -7.882388e-03  -1.511487e-02  0 
 -7.421241e-03  -1.194217e-02  0 
 -7.070670e-03  -1.191050e-02  0 
 -6.712477e-03  -1.191343e-02  0 
 -6.356978e-03  -1.192096e-02  0 
 -6.018570e-03  -1.192509e-02  0 
 -5.691788e-03  -1.192906e-02  0 
 -5.323691e-03  -1.189045e-02  0 
 -4.935287e-03  -1.187911e-02  0 
 -4.725595e-03  -1.202136e-02  0 
 -4.770361e-03  -1.231697e-02  0 
 -4.835479e-03  -1.261658e-02  0 
 -4.839208e-03  -1.289703e-02  0 
 -4.826022e-03  -1.319442e-02  0 
 -4.827080e-03  -1.349668e-02  0 
 -4.818538e-03  -1.378325e-02  0 
 -4.828635e-03  -1.405923e-02  0 
 -7.547856e-03  -1.543960e-02  0 
 -7.213990e-03  -1.539912e-02  0 
 -6.882145e-03  -1.533135e-02  0 
 -6.553360e-03  -1.523706e-02  0 
 -6.227610e-03  -1.511820e-02  0 
 -5.902918e-03  -1.497675e-02  0 
 -5.574710e-03  -1.481295e-02  0 
 -5.235955e-03  -1.462134e-02  0 
 -7.487023e-03  -1.240308e-02  0 
 -7.088621e-03  -1.237482e-02  0 
 -6.711444e-03  -1.235785e-02  0 
 -6.348964e-03  -1.234165e-02  0 
 -5.999203e-03  -1.232138e-02  0 
 -5.658480e-03  -1.229555e-02  0 
 -5.313858e-03  -1.225924e-02  0 
 -4.984465e-03  -1.217546e-02  0 
 -7.509043e-03  -1.284128e-02  0 
 -7.108852e-03  -1.281686e-02  0 
 -6.722931e-03  -1.278456e-02  0 
 -6.353268e-03  -1.274793e-02  0 
 -5.997677e-03  -1.270485e-02  0 
 -5.654998e-03  -1.265202e-02  0 
 -5.332037e-03  -1.257746e-02  0 
 -5.043359e-03  -1.246607e-02  0 
 -7.519039e-03  -1.326181e-02  0 
 -7.124289e-03  -1.323401e-02  0 
 -6.740159e-03  -1.319206e-02  0 
 -6.368657e-03  -1.313823e-02  0 
 -6.011932e-03  -1.307258e-02  0 
 -5.673729e-03  -1.299089e-02  0 
 -5.360480e-03  -1.288721e-02  0 
 -5.075799e-03  -1.276182e-02  0 
 -7.523350e-03  -1.366155e-02  0 
 -7.138444e-03  -1.363040e-02  0 
 -6.760522e-03  -1.358021e-02  0 
 -6.392600e-03  -1.351243e-02  0 
 -6.038444e-03  -1.342684e-02  0 
 -5.702636e-03  -1.332220e-02  0 
 -5.388931e-03  -1.319804e-02  0 
 -5.100087e-03  -1.305394e-02  0 
 -7.525822e-03  -1.404212e-02  0 
 -7.152604e-03  -1.400830e-02  0 
 -6.783600e-03  -1.395181e-02  0 
 -6.422267e-03  -1.387332e-02  0 
 -6.071942e-03  -1.377287e-02  0 
 -5.735781e-03  -1.365121e-02  0 
 -5.416904e-03  -1.351090e-02  0 
 -5.117023e-03  -1.335689e-02  0 
 -7.528932e-03  -1.440673e-02  0 
 -7.167303e-03  -1.437086e-02  0 
 -6.808284e-03  -1.431010e-02  0 
 -6.454921e-03  -1.422463e-02  0 
 -6.109266e-03  -1.411459e-02  0 
 -5.772242e-03  -1.398096e-02  0 
 -5.444586e-03  -1.382764e-02  0 
 -5.127770e-03  -1.366327e-02  0 
 -7.533772e-03  -1.475893e-02  0 
 -7.182527e-03  -1.472153e-02  0 
 -6.833278e-03  -1.465810e-02  0 
 -6.488346e-03  -1.456870e-02  0 
 -6.148571e-03  -1.445365e-02  0 
 -5.812797e-03  -1.431348e-02  0 
 -5.477906e-03  -1.414971e-02  0 
 -5.143887e-03  -1.396831e-02  0 
 -7.540344e-03  -1.510220e-02  0 
 -7.198040e-03  -1.506350e-02  0 
 -6.857838e-03  -1.499802e-02  0 
 -6.521178e-03  -1.490628e-02  0 
 -6.188287e-03  -1.478911e-02  0 
 -5.857119e-03  -1.464710e-02  0 
 -5.522920e-03  -1.447944e-02  0 
 -5.177661e-03  -1.428243e-02  0 
VECTORS displacement_ITER5 FLOAT
 -7.684680e-03  -1.180567e-02  0 
 -7.743344e-03  -1.523731e-02  0 
 -4.557730e-03  -1.167237e-02  0 
 -4.765979e-03  -1.414914e-02  0 
 -7.752729e-03  -1.224639e-02  0 
 -7.777304e-03  -1.267365e-02  0 
 -7.779269e-03  -1.308449e-02  0 
 -7.770453e-03  -1.347788e-02  0 
 -7.758766e-03  -1.385411e-02  0 
 -7.748906e-03  -1.421513e-02  0 
 -7.743036e-03  -1.456386e-02  0 
 -7.741504e-03  -1.490346e-02  0 
 -7.280645e-03  -1.177919e-02  0 
 -6.947128e-03  -1.178004e-02  0 
 -6.617757e-03  -1.177286e-02  0 
 -6.267099e-03  -1.175155e-02  0 
 -5.903025e-03  -1.173074e-02  0 
 -5.552168e-03  -1.174613e-02  0 
 -5.239141e-03  -1.174452e-02  0 
 -4.910284e-03  -1.172422e-02  0 
 -4.662215e-03  -1.191676e-02  0 
 -4.714519e-03  -1.217184e-02  0 
 -4.728234e-03  -1.242605e-02  0 
 -4.718580e-03  -1.272451e-02  0 
 -4.734769e-03  -1.302562e-02  0 
 -4.755155e-03  -1.330222e-02  0 
 -4.749136e-03  -1.356622e-02  0 
 -4.746507e-03  -1.384157e-02  0 
 -7.411590e-03  -1.522353e-02  0 
 -7.082354e-03  -1.518293e-02  0 
 -6.755236e-03  -1.511477e-02  0 
 -6.431532e-03  -1.501953e-02  0 
 -6.111801e-03  -1.489871e-02  0 
 -5.794942e-03  -1.475417e-02  0 
 -5.476281e-03  -1.458741e-02  0 
 -5.144041e-03  -1.439578e-02  0 
 -7.338576e-03  -1.222765e-02  0 
 -6.962340e-03  -1.220629e-02  0 
 -6.607562e-03  -1.219203e-02  0 
 -6.251553e-03  -1.217532e-02  0 
 -5.890294e-03  -1.215258e-02  0 
 -5.543135e-03  -1.211927e-02  0 
 -5.219887e-03  -1.208158e-02  0 
 -4.916224e-03  -1.202793e-02  0 
 -7.368942e-03  -1.266054e-02  0 
 -6.980732e-03  -1.263531e-02  0 
 -6.608593e-03  -1.260713e-02  0 
 -6.246139e-03  -1.257571e-02  0 
 -5.891772e-03  -1.253333e-02  0 
 -5.550672e-03  -1.247593e-02  0 
 -5.230935e-03  -1.240098e-02  0 
 -4.946835e-03  -1.229991e-02  0 
 -7.382257e-03  -1.307474e-02  0 
 -6.995660e-03  -1.304707e-02  0 
 -6.619924e-03  -1.300777e-02  0 
 -6.255883e-03  -1.295788e-02  0 
 -5.904913e-03  -1.289451e-02  0 
 -5.570434e-03  -1.281344e-02  0 
 -5.259128e-03  -1.270986e-02  0 
 -4.976461e-03  -1.257985e-02  0 
 -7.387411e-03  -1.346908e-02  0 
 -7.008915e-03  -1.343864e-02  0 
 -6.637566e-03  -1.339026e-02  0 
 -6.276343e-03  -1.332511e-02  0 
 -5.928428e-03  -1.324237e-02  0 
 -5.597832e-03  -1.314037e-02  0 
 -5.288873e-03  -1.301839e-02  0 
 -5.002066e-03  -1.287738e-02  0 
 -7.389969e-03  -1.384484e-02  0 
 -7.022239e-03  -1.381164e-02  0 
 -6.658971e-03  -1.375642e-02  0 
 -6.303544e-03  -1.367985e-02  0 
 -5.959070e-03  -1.358187e-02  0 
 -5.628545e-03  -1.346317e-02  0 
 -5.314755e-03  -1.332718e-02  0 
 -5.018171e-03  -1.318125e-02  0 
 -7.392944e-03  -1.420475e-02  0 
 -7.036297e-03  -1.416927e-02  0 
 -6.682453e-03  -1.410934e-02  0 
 -6.334450e-03  -1.402516e-02  0 
 -5.994275e-03  -1.391684e-02  0 
 -5.662678e-03  -1.378538e-02  0 
 -5.340630e-03  -1.363492e-02  0 
 -5.032641e-03  -1.347221e-02  0 
 -7.397620e-03  -1.455224e-02  0 
 -7.051091e-03  -1.451501e-02  0 
 -6.706667e-03  -1.445195e-02  0 
 -6.366784e-03  -1.436314e-02  0 
 -6.032430e-03  -1.424883e-02  0 
 -5.702636e-03  -1.410910e-02  0 
 -5.375121e-03  -1.394420e-02  0 
 -5.053557e-03  -1.375898e-02  0 
 -7.404095e-03  -1.489079e-02  0 
 -7.066408e-03  -1.485208e-02  0 
 -6.730890e-03  -1.478653e-02  0 
 -6.399185e-03  -1.469457e-02  0 
 -6.071967e-03  -1.457686e-02  0 
 -5.747952e-03  -1.443349e-02  0 
 -5.422862e-03  -1.426268e-02  0 
 -5.086904e-03  -1.406052e-02  0 
VECTORS displacement_ITER6 FLOAT
 -7.583555e-03  -1.171074e-02  0 
 -7.653265e-03  -1.512821e-02  0 
 -4.554089e-03  -1.161114e-02  0 
 -4.699574e-03  -1.404349e-02  0 
 -7.669053e-03  -1.215151e-02  0 
 -7.693622e-03  -1.258374e-02  0 
 -7.692563e-03  -1.299597e-02  0 
 -7.681663e-03  -1.338756e-02  0 
 -7.669043e-03  -1.376052e-02  0 
 -7.658886e-03  -1.411779e-02  0 
 -7.652958e-03  -1.446262e-02  0 
 -7.651424e-03  -1.479829e-02  0 
 -7.212876e-03  -1.169367e-02  0 
 -6.870065e-03  -1.169332e-02  0 
 -6.527250e-03  -1.169205e-02  0 
 -6.177521e-03  -1.168595e-02  0 
 -5.828947e-03  -1.167211e-02  0 
 -5.482182e-03  -1.166516e-02  0 
 -5.161479e-03  -1.165771e-02  0 
 -4.838025e-03  -1.164714e-02  0 
 -4.608000e-03  -1.181506e-02  0 
 -4.637524e-03  -1.207639e-02  0 
 -4.653410e-03  -1.234320e-02  0 
 -4.668157e-03  -1.262694e-02  0 
 -4.682733e-03  -1.290879e-02  0 
 -4.687373e-03  -1.318999e-02  0 
 -4.683250e-03  -1.347136e-02  0 
 -4.686102e-03  -1.375416e-02  0 
 -7.325447e-03  -1.511444e-02  0 
 -7.000150e-03  -1.507386e-02  0 
 -6.676979e-03  -1.500581e-02  0 
 -6.357208e-03  -1.491092e-02  0 
 -6.041168e-03  -1.479110e-02  0 
 -5.726999e-03  -1.464878e-02  0 
 -5.408878e-03  -1.448537e-02  0 
 -5.075604e-03  -1.429578e-02  0 
 -7.255572e-03  -1.213605e-02  0 
 -6.880103e-03  -1.212401e-02  0 
 -6.520277e-03  -1.211318e-02  0 
 -6.166039e-03  -1.209663e-02  0 
 -5.815077e-03  -1.207286e-02  0 
 -5.473610e-03  -1.203909e-02  0 
 -5.148598e-03  -1.199593e-02  0 
 -4.851280e-03  -1.193100e-02  0 
 -7.283021e-03  -1.257230e-02  0 
 -6.894844e-03  -1.255004e-02  0 
 -6.524257e-03  -1.252359e-02  0 
 -6.165106e-03  -1.249075e-02  0 
 -5.815901e-03  -1.244713e-02  0 
 -5.479891e-03  -1.238911e-02  0 
 -5.164846e-03  -1.231124e-02  0 
 -4.882771e-03  -1.220557e-02  0 
 -7.295822e-03  -1.298676e-02  0 
 -6.910332e-03  -1.295927e-02  0 
 -6.537336e-03  -1.291963e-02  0 
 -6.176963e-03  -1.286875e-02  0 
 -5.829923e-03  -1.280403e-02  0 
 -5.499632e-03  -1.272164e-02  0 
 -5.192008e-03  -1.261774e-02  0 
 -4.910587e-03  -1.249123e-02  0 
 -7.300962e-03  -1.337886e-02  0 
 -6.924837e-03  -1.334791e-02  0 
 -6.556514e-03  -1.329865e-02  0 
 -6.198837e-03  -1.323246e-02  0 
 -5.854558e-03  -1.314855e-02  0 
 -5.527108e-03  -1.304541e-02  0 
 -5.219942e-03  -1.292288e-02  0 
 -4.934723e-03  -1.278257e-02  0 
 -7.303608e-03  -1.375122e-02  0 
 -6.939083e-03  -1.371758e-02  0 
 -6.579156e-03  -1.366160e-02  0 
 -6.227237e-03  -1.358414e-02  0 
 -5.886223e-03  -1.348527e-02  0 
 -5.558768e-03  -1.336560e-02  0 
 -5.247470e-03  -1.322743e-02  0 
 -4.954546e-03  -1.307458e-02  0 
 -7.306684e-03  -1.410737e-02  0 
 -6.953695e-03  -1.407163e-02  0 
 -6.603487e-03  -1.401124e-02  0 
 -6.259100e-03  -1.392649e-02  0 
 -5.922456e-03  -1.381751e-02  0 
 -5.594426e-03  -1.368511e-02  0 
 -5.276647e-03  -1.353263e-02  0 
 -4.972625e-03  -1.336540e-02  0 
 -7.311436e-03  -1.445098e-02  0 
 -6.968774e-03  -1.441365e-02  0 
 -6.628199e-03  -1.435043e-02  0 
 -6.292132e-03  -1.426141e-02  0 
 -5.961517e-03  -1.414676e-02  0 
 -5.635378e-03  -1.400651e-02  0 
 -5.311349e-03  -1.384157e-02  0 
 -4.992253e-03  -1.365964e-02  0 
 -7.317946e-03  -1.478562e-02  0 
 -6.984195e-03  -1.474691e-02  0 
 -6.652628e-03  -1.468139e-02  0 
 -6.324883e-03  -1.458957e-02  0 
 -6.001505e-03  -1.447216e-02  0 
 -5.680673e-03  -1.432945e-02  0 
 -5.357039e-03  -1.416033e-02  0 
 -5.020486e-03  -1.396221e-02  0 
VECTORS displacement_ITER7 FLOAT
 -7.498362e-03  -1.165427e-02  0 
 -7.596028e-03  -1.506119e-02  0 
 -4.538498e-03  -1.156809e-02  0 
 -4.669645e-03  -1.396736e-02  0 
 -7.609228e-03  -1.209684e-02  0 
 -7.637947e-03  -1.253280e-02  0 
 -7.636332e-03  -1.294603e-02  0 
 -7.624692e-03  -1.333600e-02  0 
 -7.611784e-03  -1.370620e-02  0 
 -7.601596e-03  -1.406034e-02  0 
 -7.595699e-03  -1.440199e-02  0 
 -7.594183e-03  -1.473447e-02  0 
 -7.170354e-03  -1.165309e-02  0 
 -6.827732e-03  -1.165297e-02  0 
 -6.477234e-03  -1.165662e-02  0 
 -6.130585e-03  -1.166316e-02  0 
 -5.794073e-03  -1.165259e-02  0 
 -5.454443e-03  -1.162724e-02  0 
 -5.125719e-03  -1.160694e-02  0 
 -4.802709e-03  -1.159688e-02  0 
 -4.587997e-03  -1.176662e-02  0 
 -4.610542e-03  -1.203993e-02  0 
 -4.630339e-03  -1.231510e-02  0 
 -4.653267e-03  -1.258628e-02  0 
 -4.660311e-03  -1.285268e-02  0 
 -4.655713e-03  -1.313176e-02  0 
 -4.658130e-03  -1.341855e-02  0 
 -4.665212e-03  -1.369819e-02  0 
 -7.271408e-03  -1.504741e-02  0 
 -6.949318e-03  -1.500685e-02  0 
 -6.629376e-03  -1.493885e-02  0 
 -6.312874e-03  -1.484406e-02  0 
 -6.000085e-03  -1.472448e-02  0 
 -5.688918e-03  -1.458257e-02  0 
 -5.373329e-03  -1.441931e-02  0 
 -5.042951e-03  -1.422794e-02  0 
 -7.199409e-03  -1.208356e-02  0 
 -6.831130e-03  -1.208239e-02  0 
 -6.471227e-03  -1.207639e-02  0 
 -6.121067e-03  -1.206088e-02  0 
 -5.780490e-03  -1.203642e-02  0 
 -5.445744e-03  -1.200176e-02  0 
 -5.120301e-03  -1.195517e-02  0 
 -4.823673e-03  -1.188508e-02  0 
 -7.226680e-03  -1.252238e-02  0 
 -6.841497e-03  -1.250348e-02  0 
 -6.475781e-03  -1.248044e-02  0 
 -6.122227e-03  -1.244809e-02  0 
 -5.779549e-03  -1.240477e-02  0 
 -5.449232e-03  -1.234801e-02  0 
 -5.138319e-03  -1.227106e-02  0 
 -4.859408e-03  -1.216580e-02  0 
 -7.240435e-03  -1.293704e-02  0 
 -6.857406e-03  -1.291006e-02  0 
 -6.488920e-03  -1.287134e-02  0 
 -6.133955e-03  -1.282137e-02  0 
 -5.792093e-03  -1.275759e-02  0 
 -5.466512e-03  -1.267666e-02  0 
 -5.163051e-03  -1.257521e-02  0 
 -4.885298e-03  -1.245425e-02  0 
 -7.246275e-03  -1.332728e-02  0 
 -6.872964e-03  -1.329613e-02  0 
 -6.508449e-03  -1.324695e-02  0 
 -6.155242e-03  -1.318137e-02  0 
 -5.815448e-03  -1.309853e-02  0 
 -5.492003e-03  -1.299683e-02  0 
 -5.187959e-03  -1.287620e-02  0 
 -4.906120e-03  -1.273877e-02  0 
 -7.249302e-03  -1.369683e-02  0 
 -6.887862e-03  -1.366300e-02  0 
 -6.531379e-03  -1.360697e-02  0 
 -6.183241e-03  -1.352988e-02  0 
 -5.846133e-03  -1.343187e-02  0 
 -5.522497e-03  -1.331341e-02  0 
 -5.214804e-03  -1.317599e-02  0 
 -4.925696e-03  -1.302122e-02  0 
 -7.252555e-03  -1.404988e-02  0 
 -6.902761e-03  -1.401407e-02  0 
 -6.555848e-03  -1.395367e-02  0 
 -6.214880e-03  -1.386915e-02  0 
 -5.881777e-03  -1.376069e-02  0 
 -5.557546e-03  -1.362901e-02  0 
 -5.244334e-03  -1.347717e-02  0 
 -4.944825e-03  -1.330960e-02  0 
 -7.257377e-03  -1.439033e-02  0 
 -6.917934e-03  -1.435300e-02  0 
 -6.580605e-03  -1.428982e-02  0 
 -6.247831e-03  -1.420094e-02  0 
 -5.920587e-03  -1.408651e-02  0 
 -5.597986e-03  -1.394655e-02  0 
 -5.277801e-03  -1.378238e-02  0 
 -4.963374e-03  -1.360372e-02  0 
 -7.263907e-03  -1.472180e-02  0 
 -6.933370e-03  -1.468311e-02  0 
 -6.605039e-03  -1.461765e-02  0 
 -6.280573e-03  -1.452594e-02  0 
 -5.960496e-03  -1.440866e-02  0 
 -5.642823e-03  -1.426614e-02  0 
 -5.321947e-03  -1.409741e-02  0 
 -4.988098e-03  -1.390012e-02  0 
VECTORS displacement_ITER8 FLOAT
 -7.469721e-03  -1.161951e-02  0 
 -7.571722e-03  -1.502719e-02  0 
 -4.531755e-03  -1.153620e-02  0 
 -4.657584e-03  -1.394956e-02  0 
 -7.581945e-03  -1.207357e-02  0 
 -7.611082e-03  -1.250920e-02  0 
 -7.610634e-03  -1.292101e-02  0 
 -7.599869e-03  -1.330973e-02  0 
 -7.587367e-03  -1.367871e-02  0 
 -7.577306e-03  -1.403145e-02  0 
 -7.571419e-03  -1.437150e-02  0 
 -7.569885e-03  -1.470225e-02  0 
 -7.143209e-03  -1.163370e-02  0 
 -6.799674e-03  -1.163558e-02  0 
 -6.453807e-03  -1.163347e-02  0 
 -6.110054e-03  -1.163138e-02  0 
 -5.770646e-03  -1.162449e-02  0 
 -5.434549e-03  -1.160772e-02  0 
 -5.107247e-03  -1.159373e-02  0 
 -4.793551e-03  -1.157782e-02  0 
 -4.578030e-03  -1.175062e-02  0 
 -4.604897e-03  -1.200865e-02  0 
 -4.622080e-03  -1.228000e-02  0 
 -4.639533e-03  -1.255277e-02  0 
 -4.647595e-03  -1.283010e-02  0 
 -4.653068e-03  -1.311217e-02  0 
 -4.660175e-03  -1.339263e-02  0 
 -4.661265e-03  -1.367005e-02  0 
 -7.248889e-03  -1.501341e-02  0 
 -6.928627e-03  -1.497285e-02  0 
 -6.610597e-03  -1.490490e-02  0 
 -6.296120e-03  -1.481031e-02  0 
 -5.985554e-03  -1.469110e-02  0 
 -5.677092e-03  -1.454971e-02  0 
 -5.365095e-03  -1.438760e-02  0 
 -5.037854e-03  -1.420023e-02  0 
 -7.170784e-03  -1.205979e-02  0 
 -6.806511e-03  -1.205916e-02  0 
 -6.450140e-03  -1.205141e-02  0 
 -6.100342e-03  -1.203553e-02  0 
 -5.758457e-03  -1.201135e-02  0 
 -5.424732e-03  -1.197807e-02  0 
 -5.104331e-03  -1.193168e-02  0 
 -4.813798e-03  -1.186160e-02  0 
 -7.201029e-03  -1.249806e-02  0 
 -6.818000e-03  -1.247824e-02  0 
 -6.454583e-03  -1.245543e-02  0 
 -6.102014e-03  -1.242341e-02  0 
 -5.759872e-03  -1.237994e-02  0 
 -5.431128e-03  -1.232205e-02  0 
 -5.123069e-03  -1.224382e-02  0 
 -4.846594e-03  -1.213839e-02  0 