# vtk DataFile Version 3.1
this is an vtk file created by FEMAC
ASCII
DATASET UNSTRUCTURED_GRID
POINTS 100 FLOAT
3.000000 4.000000 0.000000
3.000000 5.000000 0.000000
4.000000 4.000000 0.000000
4.000000 5.000000 0.000000
3.000000 4.111111 0.000000
3.000000 4.222222 0.000000
3.000000 4.333333 0.000000
3.000000 4.444444 0.000000
3.000000 4.555556 0.000000
3.000000 4.666667 0.000000
3.000000 4.777778 0.000000
3.000000 4.888889 0.000000
3.111111 4.000000 0.000000
3.222222 4.000000 0.000000
3.333333 4.000000 0.000000
3.444444 4.000000 0.000000
3.555556 4.000000 0.000000
3.666667 4.000000 0.000000
3.777778 4.000000 0.000000
3.888889 4.000000 0.000000
3.111111 5.000000 0.000000
3.222222 5.000000 0.000000
3.333333 5.000000 0.000000
3.444444 5.000000 0.000000
3.555556 5.000000 0.000000
3.666667 5.000000 0.000000
3.777778 5.000000 0.000000
3.888889 5.000000 0.000000
4.000000 4.111111 0.000000
4.000000 4.222222 0.000000
4.000000 4.333333 0.000000
4.000000 4.444444 0.000000
4.000000 4.555556 0.000000
4.000000 4.666667 0.000000
4.000000 4.777778 0.000000
4.000000 4.888889 0.000000
3.111111 4.111111 0.000000
3.111111 4.222222 0.000000
3.111111 4.333333 0.000000
3.111111 4.444444 0.000000
3.111111 4.555556 0.000000
3.111111 4.666667 0.000000
3.111111 4.777778 0.000000
3.111111 4.888889 0.000000
3.222222 4.111111 0.000000
3.222222 4.222222 0.000000
3.222222 4.333333 0.000000
3.222222 4.444444 0.000000
3.222222 4.555556 0.000000
3.222222 4.666667 0.000000
3.222222 4.777778 0.000000
3.222222 4.888889 0.000000
3.333333 4.111111 0.000000
3.333333 4.222222 0.000000
3.333333 4.333333 0.000000
3.333333 4.444444 0.000000
3.333333 4.555556 0.000000
3.333333 4.666667 0.000000
3.333333 4.777778 0.000000
3.333333 4.888889 0.000000
3.444444 4.111111 0.000000
3.444444 4.222222 0.000000
3.444444 4.333333 0.000000
3.444444 4.444444 0.000000
3.444444 4.555556 0.000000
3.444444 4.666667 0.000000
3.444444 4.777778 0.000000
3.444444 4.888889 0.000000
3.555556 4.111111 0.000000
3.555556 4.222222 0.000000
3.555556 4.333333 0.000000
3.555556 4.444444 0.000000
3.555556 4.555556 0.000000
3.555556 4.666667 0.000000
3.555556 4.777778 0.000000
3.555556 4.888889 0.000000
3.666667 4.111111 0.000000
3.666667 4.222222 0.000000
3.666667 4.333333 0.000000
3.666667 4.444444 0.000000
3.666667 4.555556 0.000000
3.666667 4.666667 0.000000
3.666667 4.777778 0.000000
3.666667 4.888889 0.000000
3.777778 4.111111 0.000000
3.777778 4.222222 0.000000
3.777778 4.333333 0.000000
3.777778 4.444444 0.000000
3.777778 4.555556 0.000000
3.777778 4.666667 0.000000
3.777778 4.777778 0.000000
3.777778 4.888889 0.000000
3.888889 4.111111 0.000000
3.888889 4.222222 0.000000
3.888889 4.333333 0.000000
3.888889 4.444444 0.000000
3.888889 4.555556 0.000000
3.888889 4.666667 0.000000
3.888889 4.777778 0.000000
3.888889 4.888889 0.000000
CELLS 81 405 
4 0 12 36  4
4 4 36 37  5
4 5 37 38  6
4 6 38 39  7
4 7 39 40  8
4 8 40 41  9
4 9 41 42 10
4 10 42 43 11
4 11 43 20  1
4 12 13 44 36
4 36 44 45 37
4 37 45 46 38
4 38 46 47 39
4 39 47 48 40
4 40 48 49 41
4 41 49 50 42
4 42 50 51 43
4 43 51 21 20
4 13 14 52 44
4 44 52 53 45
4 45 53 54 46
4 46 54 55 47
4 47 55 56 48
4 48 56 57 49
4 49 57 58 50
4 50 58 59 51
4 51 59 22 21
4 14 15 60 52
4 52 60 61 53
4 53 61 62 54
4 54 62 63 55
4 55 63 64 56
4 56 64 65 57
4 57 65 66 58
4 58 66 67 59
4 59 67 23 22
4 15 16 68 60
4 60 68 69 61
4 61 69 70 62
4 62 70 71 63
4 63 71 72 64
4 64 72 73 65
4 65 73 74 66
4 66 74 75 67
4 67 75 24 23
4 16 17 76 68
4 68 76 77 69
4 69 77 78 70
4 70 78 79 71
4 71 79 80 72
4 72 80 81 73
4 73 81 82 74
4 74 82 83 75
4 75 83 25 24
4 17 18 84 76
4 76 84 85 77
4 77 85 86 78
4 78 86 87 79
4 79 87 88 80
4 80 88 89 81
4 81 89 90 82
4 82 90 91 83
4 83 91 26 25
4 18 19 92 84
4 84 92 93 85
4 85 93 94 86
4 86 94 95 87
4 87 95 96 88
4 88 96 97 89
4 89 97 98 90
4 90 98 99 91
4 91 99 27 26
4 19  2 28 92
4 92 28 29 93
4 93 29 30 94
4 94 30 31 95
4 95 31 32 96
4 96 32 33 97
4 97 33 34 98
4 98 34 35 99
4 99 35  3 27
CELL_TYPES 81
9 9 9 9 9 9 9 9 9 9 9 9 9 9 9 9 9 9 9 9 9 9 9 9 9 9 9 9 9 9 9 9 9 9 9 9 9 9 9 9 9 9 9 9 9 9 9 9 9 9 9 9 9 9 9 9 9 9 9 9 9 9 9 9 9 9 9 9 9 9 9 9 9 9 9 9 9 9 9 9 9 
POINT_DATA 100
VECTORS displacement_ITER1 FLOAT
 4.041777e-03  -8.233619e-03  0 
 7.431949e-03  -9.255114e-03  0 
 4.912475e-03  -1.244624e-02  0 
 8.672286e-03  -1.367102e-02  0 
 3.970879e-03  -8.021112e-03  0 
 4.181015e-03  -8.213989e-03  0 
 4.873290e-03  -8.573765e-03  0 
 5.330586e-03  -8.777186e-03  0 
 5.364934e-03  -9.024472e-03  0 
 5.160240e-03  -8.886409e-03  0 
 4.959948e-03  -8.726768e-03  0 
 6.071755e-03  -9.327501e-03  0 
 5.053753e-03  -8.174152e-03  0 
 5.254306e-03  -8.559736e-03  0 
 4.849935e-03  -9.419130e-03  0 
 4.676787e-03  -1.018888e-02  0 
 4.695292e-03  -1.075040e-02  0 
 5.088169e-03  -1.101588e-02  0 
 5.403017e-03  -1.101259e-02  0 
 5.658832e-03  -1.151796e-02  0 
 7.635814e-03  -1.030152e-02  0 
 7.876052e-03  -1.099824e-02  0 
 7.852993e-03  -1.098516e-02  0 
 7.918960e-03  -1.114226e-02  0 
 7.990964e-03  -1.164647e-02  0 
 7.927898e-03  -1.236016e-02  0 
 7.719773e-03  -1.316452e-02  0 
 7.875020e-03  -1.325838e-02  0 
 5.996572e-03  -1.322068e-02  0 
 6.282894e-03  -1.321744e-02  0 
 6.363690e-03  -1.301600e-02  0 
 6.575968e-03  -1.283161e-02  0 
 6.974276e-03  -1.293260e-02  0 
 7.744452e-03  -1.302661e-02  0 
 8.640368e-03  -1.303910e-02  0 
 8.643640e-03  -1.314683e-02  0 
 4.524184e-03  -8.587872e-03  0 
 4.715679e-03  -8.868426e-03  0 
 5.066445e-03  -9.100427e-03  0 
 5.372605e-03  -9.214927e-03  0 
 5.496432e-03  -9.241397e-03  0 
 5.546808e-03  -9.323064e-03  0 
 5.937623e-03  -9.655207e-03  0 
 6.645565e-03  -1.002501e-02  0 
 4.998020e-03  -8.916114e-03  0 
 5.061762e-03  -9.288002e-03  0 
 5.279377e-03  -9.520202e-03  0 
 5.507869e-03  -9.652532e-03  0 
 5.731481e-03  -9.761778e-03  0 
 6.042670e-03  -9.965127e-03  0 
 6.508781e-03  -1.026338e-02  0 
 7.124500e-03  -1.060589e-02  0 
 5.173723e-03  -9.464692e-03  0 
 5.326048e-03  -9.714438e-03  0 
 5.509582e-03  -9.948004e-03  0 
 5.739486e-03  -1.013783e-02  0 
 6.029295e-03  -1.033303e-02  0 
 6.404184e-03  -1.055691e-02  0 
 6.876553e-03  -1.078838e-02  0 
 7.429805e-03  -1.097618e-02  0 
 5.159844e-03  -1.014855e-02  0 
 5.480301e-03  -1.024578e-02  0 
 5.731775e-03  -1.042536e-02  0 
 6.002390e-03  -1.063701e-02  0 
 6.313222e-03  -1.086408e-02  0 
 6.668366e-03  -1.108892e-02  0 
 7.073634e-03  -1.126073e-02  0 
 7.506301e-03  -1.129065e-02  0 
 5.188267e-03  -1.075718e-02  0 
 5.569276e-03  -1.080698e-02  0 
 5.918601e-03  -1.094205e-02  0 
 6.249135e-03  -1.113037e-02  0 
 6.570928e-03  -1.134187e-02  0 
 6.881360e-03  -1.155174e-02  0 
 7.180931e-03  -1.171737e-02  0 
 7.515445e-03  -1.175775e-02  0 
 5.286291e-03  -1.118994e-02  0 
 5.680813e-03  -1.132977e-02  0 
 6.083586e-03  -1.147127e-02  0 
 6.461519e-03  -1.161716e-02  0 
 6.797661e-03  -1.176610e-02  0 
 7.090056e-03  -1.193975e-02  0 
 7.334838e-03  -1.214262e-02  0 
 7.548504e-03  -1.234235e-02  0 
 5.514760e-03  -1.154377e-02  0 
 5.854476e-03  -1.182718e-02  0 
 6.256647e-03  -1.201641e-02  0 
 6.613218e-03  -1.209665e-02  0 
 6.970474e-03  -1.214208e-02  0 
 7.318842e-03  -1.225606e-02  0 
 7.602333e-03  -1.248670e-02  0 
 7.766375e-03  -1.280405e-02  0 
 5.705181e-03  -1.200951e-02  0 
 6.123760e-03  -1.244571e-02  0 
 6.402516e-03  -1.255752e-02  0 
 6.655305e-03  -1.254243e-02  0 
 7.029986e-03  -1.250506e-02  0 
 7.564224e-03  -1.253832e-02  0 
 8.011292e-03  -1.276061e-02  0 
 8.156104e-03  -1.306525e-02  0 
VECTORS displacement_ITER2 FLOAT
 3.083637e-03  -6.353154e-03  0 
 5.166585e-03  -8.300124e-03  0 
 3.713270e-03  -9.883036e-03  0 
 6.485567e-03  -1.065762e-02  0 
 3.145882e-03  -6.186932e-03  0 
 3.415589e-03  -6.470184e-03  0 
 3.762342e-03  -6.605664e-03  0 
 3.829215e-03  -6.458198e-03  0 
 4.041850e-03  -6.129215e-03  0 
 4.434267e-03  -6.037715e-03  0 
 4.447141e-03  -6.405232e-03  0 
 5.082680e-03  -7.213418e-03  0 
 3.773705e-03  -6.535240e-03  0 
 3.848267e-03  -6.745591e-03  0 
 3.758765e-03  -7.229241e-03  0 
 3.681002e-03  -7.629530e-03  0 
 3.666816e-03  -8.053570e-03  0 
 3.756286e-03  -8.483815e-03  0 
 3.986031e-03  -8.781385e-03  0 
 4.173582e-03  -9.149528e-03  0 
 6.096998e-03  -7.704467e-03  0 
 6.502594e-03  -8.090845e-03  0 
 6.647890e-03  -8.393474e-03  0 
 6.680881e-03  -8.837848e-03  0 
 6.571975e-03  -9.275690e-03  0 
 6.472826e-03  -9.661386e-03  0 
 6.336146e-03  -1.017431e-02  0 
 6.401631e-03  -1.064330e-02  0 
 4.475502e-03  -1.042096e-02  0 
 4.935952e-03  -1.044254e-02  0 
 5.179242e-03  -1.031726e-02  0 
 5.428066e-03  -1.026623e-02  0 
 5.684711e-03  -1.026943e-02  0 
 5.950031e-03  -1.034021e-02  0 
 6.437408e-03  -1.059235e-02  0 
 6.897961e-03  -1.071527e-02  0 
 3.498035e-03  -6.715737e-03  0 
 3.656239e-03  -6.825967e-03  0 
 3.806033e-03  -6.866428e-03  0 
 3.959992e-03  -6.841699e-03  0 
 4.231373e-03  -6.846566e-03  0 
 4.634810e-03  -6.895679e-03  0 
 5.130777e-03  -7.151874e-03  0 
 5.629944e-03  -7.518595e-03  0 
 3.762662e-03  -6.957678e-03  0 
 3.813215e-03  -7.133350e-03  0 
 3.961375e-03  -7.235172e-03  0 
 4.177541e-03  -7.330065e-03  0 
 4.489501e-03  -7.442202e-03  0 
 4.917230e-03  -7.589385e-03  0 
 5.423150e-03  -7.753548e-03  0 
 5.929445e-03  -7.907853e-03  0 
 3.875516e-03  -7.304877e-03  0 
 3.990602e-03  -7.475333e-03  0 
 4.166673e-03  -7.648859e-03  0 
 4.417036e-03  -7.816082e-03  0 
 4.744727e-03  -7.988584e-03  0 
 5.146591e-03  -8.153922e-03  0 
 5.601790e-03  -8.288672e-03  0 
 6.107170e-03  -8.382602e-03  0 
 3.923841e-03  -7.733284e-03  0 
 4.148245e-03  -7.891703e-03  0 
 4.380310e-03  -8.083626e-03  0 
 4.653525e-03  -8.285103e-03  0 
 4.973189e-03  -8.481081e-03  0 
 5.333123e-03  -8.653774e-03  0 
 5.732763e-03  -8.783177e-03  0 
 6.169351e-03  -8.850633e-03  0 
 3.997461e-03  -8.186138e-03  0 
 4.289794e-03  -8.345703e-03  0 
 4.577027e-03  -8.533165e-03  0 
 4.873099e-03  -8.734937e-03  0 
 5.180069e-03  -8.929989e-03  0 
 5.495815e-03  -9.101938e-03  0 
 5.826339e-03  -9.233085e-03  0 
 6.191819e-03  -9.297228e-03  0 
 4.098323e-03  -8.637069e-03  0 
 4.430442e-03  -8.802388e-03  0 
 4.759200e-03  -8.985960e-03  0 
 5.072446e-03  -9.171383e-03  0 
 5.365987e-03  -9.338627e-03  0 
 5.645668e-03  -9.490819e-03  0 
 5.913227e-03  -9.628512e-03  0 
 6.175999e-03  -9.716018e-03  0 
 4.223278e-03  -9.060987e-03  0 
 4.581555e-03  -9.258352e-03  0 
 4.943608e-03  -9.446583e-03  0 
 5.245897e-03  -9.590535e-03  0 
 5.516797e-03  -9.706091e-03  0 
 5.784281e-03  -9.815782e-03  0 
 6.029211e-03  -9.948951e-03  0 
 6.216117e-03  -1.009876e-02  0 
 4.332787e-03  -9.502826e-03  0 
 4.781800e-03  -9.788073e-03  0 
 5.112520e-03  -9.912381e-03  0 
 5.371468e-03  -9.964290e-03  0 
 5.621540e-03  -1.002440e-02  0 
 5.888611e-03  -1.010120e-02  0 
 6.203681e-03  -1.020579e-02  0 
 6.427291e-03  -1.042032e-02  0 
VECTORS displacement_ITER3 FLOAT
 2.573165e-03  -5.806170e-03  0 
 4.956104e-03  -6.506392e-03  0 
 3.390161e-03  -8.548464e-03  0 
 5.558534e-03  -9.647247e-03  0 
 2.527485e-03  -5.796366e-03  0 
 2.867490e-03  -6.059105e-03  0 
 3.106749e-03  -6.076828e-03  0 
 3.213778e-03  -5.969483e-03  0 
 3.453057e-03  -5.776335e-03  0 
 3.763701e-03  -5.806161e-03  0 
 3.697662e-03  -6.098449e-03  0 
 4.025163e-03  -6.284072e-03  0 
 3.056148e-03  -6.066989e-03  0 
 3.178003e-03  -6.360313e-03  0 
 3.335875e-03  -6.679438e-03  0 
 3.345416e-03  -6.883840e-03  0 
 3.270517e-03  -7.166042e-03  0 
 3.106046e-03  -7.577626e-03  0 
 3.168059e-03  -8.001744e-03  0 
 3.398024e-03  -8.224198e-03  0 
 5.299362e-03  -7.025840e-03  0 
 5.310249e-03  -7.434695e-03  0 
 5.287599e-03  -7.733975e-03  0 
 5.208050e-03  -8.096820e-03  0 
 5.118910e-03  -8.372929e-03  0 
 5.127274e-03  -8.575889e-03  0 
 5.217578e-03  -8.858594e-03  0 
 5.417074e-03  -9.313999e-03  0 
 3.469966e-03  -8.914560e-03  0 
 3.827711e-03  -9.174675e-03  0 
 4.191028e-03  -9.292734e-03  0 
 4.590791e-03  -9.370904e-03  0 
 4.917207e-03  -9.290576e-03  0 
 5.050111e-03  -9.188302e-03  0 
 5.216245e-03  -9.314959e-03  0 
 5.658090e-03  -9.506182e-03  0 
 2.922166e-03  -6.244947e-03  0 
 3.038693e-03  -6.353189e-03  0 
 3.167783e-03  -6.379586e-03  0 
 3.325577e-03  -6.371767e-03  0 
 3.568802e-03  -6.393424e-03  0 
 3.859751e-03  -6.426973e-03  0 
 4.137975e-03  -6.562833e-03  0 
 4.553417e-03  -6.841155e-03  0 
 3.165786e-03  -6.504116e-03  0 
 3.192143e-03  -6.623431e-03  0 
 3.305556e-03  -6.704751e-03  0 
 3.487463e-03  -6.783837e-03  0 
 3.731365e-03  -6.870310e-03  0 
 4.030147e-03  -6.976314e-03  0 
 4.392603e-03  -7.128273e-03  0 
 4.827941e-03  -7.313279e-03  0 
 3.284248e-03  -6.769108e-03  0 
 3.340430e-03  -6.891677e-03  0 
 3.470289e-03  -7.027263e-03  0 
 3.666321e-03  -7.162153e-03  0 
 3.916459e-03  -7.300197e-03  0 
 4.216541e-03  -7.447449e-03  0 
 4.557366e-03  -7.599312e-03  0 
 4.917848e-03  -7.718837e-03  0 
 3.358055e-03  -7.022916e-03  0 
 3.469395e-03  -7.181410e-03  0 
 3.638660e-03  -7.349869e-03  0 
 3.851485e-03  -7.518652e-03  0 
 4.103835e-03  -7.684560e-03  0 
 4.385742e-03  -7.842586e-03  0 
 4.677413e-03  -7.978713e-03  0 
 4.950580e-03  -8.072797e-03  0 
 3.405455e-03  -7.318975e-03  0 
 3.589217e-03  -7.502814e-03  0 
 3.796968e-03  -7.682142e-03  0 
 4.029752e-03  -7.859640e-03  0 
 4.280945e-03  -8.030756e-03  0 
 4.537202e-03  -8.181973e-03  0 
 4.781204e-03  -8.296404e-03  0 
 4.992027e-03  -8.363148e-03  0 
 3.441637e-03  -7.708723e-03  0 
 3.685443e-03  -7.864200e-03  0 
 3.935031e-03  -8.026286e-03  0 
 4.193969e-03  -8.193776e-03  0 
 4.447479e-03  -8.353239e-03  0 
 4.679724e-03  -8.487506e-03  0 
 4.879478e-03  -8.579346e-03  0 
 5.038793e-03  -8.611150e-03  0 
 3.455845e-03  -8.136202e-03  0 
 3.742019e-03  -8.255172e-03  0 
 4.046817e-03  -8.392144e-03  0 
 4.346259e-03  -8.534178e-03  0 
 4.607679e-03  -8.667930e-03  0 
 4.821555e-03  -8.771692e-03  0 
 4.983608e-03  -8.840865e-03  0 
 5.108655e-03  -8.875176e-03  0 
 3.470957e-03  -8.505809e-03  0 
 3.776435e-03  -8.673062e-03  0 
 4.133236e-03  -8.809383e-03  0 
 4.483464e-03  -8.901466e-03  0 
 4.773293e-03  -8.981110e-03  0 
 4.950402e-03  -9.039642e-03  0 
 5.107016e-03  -9.067594e-03  0 
 5.264714e-03  -9.176059e-03  0 
VECTORS displacement_ITER4 FLOAT
 2.670783e-03  -5.857606e-03  0 
 4.658456e-03  -6.237188e-03  0 
 3.032375e-03  -8.526506e-03  0 
 5.214796e-03  -9.190190e-03  0 
 2.403268e-03  -5.689908e-03  0 
 2.628713e-03  -5.750559e-03  0 
 2.886298e-03  -5.664349e-03  0 
 3.129624e-03  -5.685677e-03  0 
 3.312703e-03  -5.739813e-03  0 
 3.476495e-03  -5.761926e-03  0 
 3.593870e-03  -5.915872e-03  0 
 3.834170e-03  -6.105363e-03  0 
 2.905121e-03  -5.871790e-03  0 
 2.865114e-03  -6.225384e-03  0 
 2.961504e-03  -6.591266e-03  0 
 3.049688e-03  -6.919317e-03  0 
 3.155443e-03  -7.195281e-03  0 
 3.141769e-03  -7.419396e-03  0 
 3.101033e-03  -7.655368e-03  0 
 3.107319e-03  -7.962526e-03  0 
 4.870404e-03  -6.728797e-03  0 
 4.841398e-03  -7.031135e-03  0 
 4.865916e-03  -7.362540e-03  0 
 4.911117e-03  -7.698780e-03  0 
 4.968016e-03  -8.028314e-03  0 
 5.006047e-03  -8.338572e-03  0 
 5.008513e-03  -8.611938e-03  0 
 5.069976e-03  -8.918022e-03  0 
 3.451602e-03  -8.772977e-03  0 
 3.757885e-03  -8.786074e-03  0 
 3.971266e-03  -8.835155e-03  0 
 4.209643e-03  -8.939812e-03  0 
 4.501722e-03  -8.993146e-03  0 
 4.794897e-03  -8.977327e-03  0 
 5.039441e-03  -8.947145e-03  0 
 5.300758e-03  -9.043945e-03  0 
 2.716896e-03  -6.019847e-03  0 
 2.807420e-03  -6.105661e-03  0 
 2.998349e-03  -6.145963e-03  0 
 3.227208e-03  -6.162279e-03  0 
 3.437353e-03  -6.194990e-03  0 
 3.653268e-03  -6.265162e-03  0 
 3.908565e-03  -6.384847e-03  0 
 4.278993e-03  -6.583207e-03  0 
 2.934119e-03  -6.310405e-03  0 
 2.999471e-03  -6.435931e-03  0 
 3.148093e-03  -6.522572e-03  0 
 3.348058e-03  -6.584079e-03  0 
 3.578292e-03  -6.647142e-03  0 
 3.834924e-03  -6.736627e-03  0 
 4.136996e-03  -6.862630e-03  0 
 4.492634e-03  -6.996436e-03  0 
 3.051879e-03  -6.668303e-03  0 
 3.159786e-03  -6.761125e-03  0 
 3.301856e-03  -6.864397e-03  0 
 3.495109e-03  -6.962198e-03  0 
 3.729630e-03  -7.059933e-03  0 
 3.997531e-03  -7.165121e-03  0 
 4.290663e-03  -7.271057e-03  0 
 4.585614e-03  -7.345221e-03  0 
 3.149017e-03  -6.997343e-03  0 
 3.275718e-03  -7.083604e-03  0 
 3.443814e-03  -7.191485e-03  0 
 3.647832e-03  -7.310731e-03  0 
 3.882503e-03  -7.429803e-03  0 
 4.137880e-03  -7.540603e-03  0 
 4.400749e-03  -7.629708e-03  0 
 4.659866e-03  -7.683518e-03  0 
 3.215923e-03  -7.281287e-03  0 
 3.372493e-03  -7.387584e-03  0 
 3.572704e-03  -7.511004e-03  0 
 3.796048e-03  -7.639766e-03  0 
 4.030468e-03  -7.764186e-03  0 
 4.267351e-03  -7.874718e-03  0 
 4.501023e-03  -7.960747e-03  0 
 4.731795e-03  -8.012347e-03  0 
 3.269111e-03  -7.542414e-03  0 
 3.465886e-03  -7.689774e-03  0 
 3.695997e-03  -7.830996e-03  0 
 3.935657e-03  -7.958383e-03  0 
 4.172651e-03  -8.072515e-03  0 
 4.398278e-03  -8.177025e-03  0 
 4.607378e-03  -8.266293e-03  0 
 4.805131e-03  -8.325606e-03  0 
 3.321160e-03  -7.838668e-03  0 
 3.566236e-03  -8.017318e-03  0 
 3.813364e-03  -8.165783e-03  0 
 4.058458e-03  -8.274802e-03  0 
 4.304783e-03  -8.364260e-03  0 
 4.537372e-03  -8.450710e-03  0 
 4.732530e-03  -8.538614e-03  0 
 4.887644e-03  -8.608803e-03  0 
 3.387430e-03  -8.208497e-03  0 
 3.678304e-03  -8.393987e-03  0 
 3.909130e-03  -8.514772e-03  0 
 4.148863e-03  -8.596022e-03  0 
 4.418144e-03  -8.657831e-03  0 
 4.678173e-03  -8.708887e-03  0 
 4.888487e-03  -8.763398e-03  0 
 5.014265e-03  -8.850666e-03  0 
VECTORS displacement_ITER5 FLOAT
 2.515207e-03  -5.608507e-03  0 
 4.515139e-03  -6.093329e-03  0 
 2.954560e-03  -8.459196e-03  0 
 5.035901e-03  -8.965959e-03  0 
 2.513242e-03  -5.553560e-03  0 
 2.599838e-03  -5.670945e-03  0 
 2.765137e-03  -5.614989e-03  0 
 2.993689e-03  -5.647782e-03  0 
 3.172049e-03  -5.743529e-03  0 
 3.350241e-03  -5.730174e-03  0 
 3.643380e-03  -5.779612e-03  0 
 3.877145e-03  -6.024455e-03  0 
 2.767199e-03  -5.891677e-03  0 
 2.822769e-03  -6.173808e-03  0 
 2.855219e-03  -6.404592e-03  0 
 2.857328e-03  -6.714184e-03  0 
 2.911249e-03  -7.039122e-03  0 
 2.933207e-03  -7.322697e-03  0 
 2.914134e-03  -7.598895e-03  0 
 2.947424e-03  -7.963416e-03  0 
 4.676231e-03  -6.582479e-03  0 
 4.701310e-03  -6.891025e-03  0 
 4.732576e-03  -7.262344e-03  0 
 4.797594e-03  -7.585230e-03  0 
 4.889992e-03  -7.923456e-03  0 
 4.945658e-03  -8.272443e-03  0 
 4.944648e-03  -8.571958e-03  0 
 4.928181e-03  -8.843008e-03  0 
 3.302896e-03  -8.666611e-03  0 
 3.573555e-03  -8.706276e-03  0 
 3.816998e-03  -8.738881e-03  0 
 4.036976e-03  -8.788687e-03  0 
 4.292253e-03  -8.858250e-03  0 
 4.614265e-03  -8.912247e-03  0 
 4.909615e-03  -8.888163e-03  0 
 5.124641e-03  -8.949414e-03  0 
 2.690593e-03  -5.945418e-03  0 
 2.760518e-03  -5.985283e-03  0 
 2.901639e-03  -6.047509e-03  0 
 3.109234e-03  -6.093627e-03  0 
 3.312881e-03  -6.138866e-03  0 
 3.543413e-03  -6.217518e-03  0 
 3.846484e-03  -6.317695e-03  0 
 4.209259e-03  -6.448083e-03  0 
 2.819976e-03  -6.224884e-03  0 
 2.899747e-03  -6.316467e-03  0 
 3.047671e-03  -6.404913e-03  0 
 3.237400e-03  -6.485940e-03  0 
 3.463536e-03  -6.566205e-03  0 
 3.724713e-03  -6.661486e-03  0 
 4.026418e-03  -6.769693e-03  0 
 4.366143e-03  -6.870724e-03  0 
 2.913844e-03  -6.515893e-03  0 
 3.029864e-03  -6.631288e-03  0 
 3.186525e-03  -6.744630e-03  0 
 3.383171e-03  -6.853874e-03  0 
 3.615254e-03  -6.961517e-03  0 
 3.878754e-03  -7.066783e-03  0 
 4.166252e-03  -7.162337e-03  0 
 4.457499e-03  -7.229137e-03  0 
 2.998889e-03  -6.826298e-03  0 
 3.142720e-03  -6.948313e-03  0 
 3.320697e-03  -7.074896e-03  0 
 3.528953e-03  -7.202081e-03  0 
 3.761483e-03  -7.323902e-03  0 
 4.012396e-03  -7.432971e-03  0 
 4.274847e-03  -7.517598e-03  0 
 4.542353e-03  -7.568072e-03  0 
 3.057731e-03  -7.145143e-03  0 
 3.239716e-03  -7.267499e-03  0 
 3.446067e-03  -7.402328e-03  0 
 3.668778e-03  -7.534879e-03  0 
 3.900389e-03  -7.658581e-03  0 
 4.135387e-03  -7.767744e-03  0 
 4.373143e-03  -7.853272e-03  0 
 4.618643e-03  -7.904624e-03  0 
 3.107009e-03  -7.450648e-03  0 
 3.329366e-03  -7.595109e-03  0 
 3.562486e-03  -7.733753e-03  0 
 3.797957e-03  -7.858777e-03  0 
 4.031653e-03  -7.970426e-03  0 
 4.258474e-03  -8.073947e-03  0 
 4.475679e-03  -8.168158e-03  0 
 4.695571e-03  -8.238916e-03  0 
 3.167575e-03  -7.779553e-03  0 
 3.422530e-03  -7.940271e-03  0 
 3.668981e-03  -8.074512e-03  0 
 3.907780e-03  -8.179080e-03  0 
 4.148943e-03  -8.265157e-03  0 
 4.385442e-03  -8.350933e-03  0 
 4.599263e-03  -8.447671e-03  0 
 4.778232e-03  -8.542718e-03  0 
 3.235817e-03  -8.165323e-03  0 
 3.517977e-03  -8.315302e-03  0 
 3.757519e-03  -8.416927e-03  0 
 3.987875e-03  -8.495311e-03  0 
 4.237009e-03  -8.555220e-03  0 
 4.509858e-03  -8.610181e-03  0 
 4.751500e-03  -8.684382e-03  0 
 4.903896e-03  -8.773070e-03  0 
VECTORS displacement_ITER6 FLOAT
 2.484066e-03  -5.613001e-03  0 
 4.395321e-03  -5.997002e-03  0 
 2.934017e-03  -8.378978e-03  0 
 5.044979e-03  -8.990472e-03  0 
 2.469097e-03  -5.566987e-03  0 
 2.560766e-03  -5.650796e-03  0 
 2.722315e-03  -5.670503e-03  0 
 2.911192e-03  -5.695393e-03  0 
 3.106644e-03  -5.750525e-03  0 
 3.316113e-03  -5.759163e-03  0 
 3.604314e-03  -5.770868e-03  0 
 3.856115e-03  -5.958336e-03  0 
 2.672642e-03  -5.908729e-03  0 
 2.797286e-03  -6.184880e-03  0 
 2.832941e-03  -6.412042e-03  0 
 2.839462e-03  -6.700583e-03  0 
 2.856076e-03  -7.013201e-03  0 
 2.885753e-03  -7.331915e-03  0 
 2.906173e-03  -7.625407e-03  0 
 2.948427e-03  -7.942283e-03  0 
 4.493911e-03  -6.476769e-03  0 
 4.590466e-03  -6.844081e-03  0 
 4.631008e-03  -7.238428e-03  0 
 4.674899e-03  -7.573772e-03  0 
 4.716683e-03  -7.891042e-03  0 
 4.761485e-03  -8.187876e-03  0 
 4.815075e-03  -8.448643e-03  0 
 4.905621e-03  -8.724165e-03  0 
 3.240788e-03  -8.549404e-03  0 
 3.474870e-03  -8.662358e-03  0 
 3.769481e-03  -8.712872e-03  0 
 4.040552e-03  -8.710106e-03  0 
 4.283978e-03  -8.702279e-03  0 
 4.519121e-03  -8.731286e-03  0 
 4.749846e-03  -8.768231e-03  0 
 4.965009e-03  -8.900902e-03  0 
 2.646851e-03  -5.954753e-03  0 
 2.724267e-03  -6.000685e-03  0 
 2.858916e-03  -6.059461e-03  0 
 3.042714e-03  -6.111869e-03  0 
 3.246648e-03  -6.161210e-03  0 
 3.480593e-03  -6.222266e-03  0 
 3.773211e-03  -6.298233e-03  0 
 4.113382e-03  -6.386978e-03  0 
 2.777472e-03  -6.242691e-03  0 
 2.859134e-03  -6.325045e-03  0 
 3.000248e-03  -6.408768e-03  0 
 3.180326e-03  -6.489907e-03  0 
 3.394180e-03  -6.569626e-03  0 
 3.642517e-03  -6.654762e-03  0 
 3.927477e-03  -6.741772e-03  0 
 4.244914e-03  -6.816325e-03  0 
 2.879363e-03  -6.516573e-03  0 
 2.986675e-03  -6.629178e-03  0 
 3.138692e-03  -6.739216e-03  0 
 3.325997e-03  -6.845287e-03  0 
 3.543811e-03  -6.948615e-03  0 
 3.789006e-03  -7.047513e-03  0 
 4.056863e-03  -7.135607e-03  0 
 4.340241e-03  -7.201514e-03  0 
 2.962382e-03  -6.809722e-03  0 
 3.103924e-03  -6.933841e-03  0 
 3.274429e-03  -7.058677e-03  0 
 3.471382e-03  -7.180826e-03  0 
 3.689609e-03  -7.297055e-03  0 
 3.924047e-03  -7.402405e-03  0 
 4.169587e-03  -7.489590e-03  0 
 4.421879e-03  -7.550053e-03  0 
 3.027064e-03  -7.124772e-03  0 
 3.206488e-03  -7.245486e-03  0 
 3.402411e-03  -7.373488e-03  0 
 3.611968e-03  -7.500125e-03  0 
 3.829944e-03  -7.619153e-03  0 
 4.051835e-03  -7.724610e-03  0 
 4.274723e-03  -7.809865e-03  0 
 4.496189e-03  -7.867845e-03  0 
 3.078724e-03  -7.444086e-03  0 
 3.295418e-03  -7.565575e-03  0 
 3.519975e-03  -7.689044e-03  0 
 3.744763e-03  -7.808397e-03  0 
 3.964498e-03  -7.919137e-03  0 
 4.175820e-03  -8.017781e-03  0 
 4.378210e-03  -8.099447e-03  0 
 4.573627e-03  -8.157820e-03  0 
 3.128052e-03  -7.772190e-03  0 
 3.375220e-03  -7.899236e-03  0 
 3.625704e-03  -8.011047e-03  0 
 3.865970e-03  -8.110527e-03  0 
 4.091158e-03  -8.200116e-03  0 
 4.297666e-03  -8.282218e-03  0 
 4.486269e-03  -8.358349e-03  0 
 4.659798e-03  -8.421327e-03  0 
 3.178816e-03  -8.130564e-03  0 
 3.443767e-03  -8.261225e-03  0 
 3.712526e-03  -8.345499e-03  0 
 3.970379e-03  -8.410869e-03  0 
 4.201421e-03  -8.464244e-03  0 
 4.415348e-03  -8.515771e-03  0 
 4.608002e-03  -8.584117e-03  0 
 4.772130e-03  -8.662230e-03  0 
VECTORS displacement_ITER7 FLOAT
 2.467963e-03  -5.660249e-03  0 
 4.289605e-03  -5.996705e-03  0 
 2.836287e-03  -8.421789e-03  0 
 4.954851e-03  -8.937171e-03  0 
 2.403600e-03  -5.601913e-03  0 
 2.525562e-03  -5.611873e-03  0 
 2.718755e-03  -5.653833e-03  0 
 2.902230e-03  -5.669807e-03  0 
 3.113099e-03  -5.694039e-03  0 
 3.335619e-03  -5.739066e-03  0 
 3.565492e-03  -5.765359e-03  0 
 3.849246e-03  -5.887383e-03  0 
 2.602576e-03  -5.910227e-03  0 
 2.711510e-03  -6.179211e-03  0 
 2.767984e-03  -6.455712e-03  0 
 2.823718e-03  -6.732257e-03  0 
 2.845338e-03  -7.002543e-03  0 
 2.862892e-03  -7.301052e-03  0 
 2.874133e-03  -7.602066e-03  0 
 2.874200e-03  -7.930416e-03  0 
 4.423351e-03  -6.427403e-03  0 
 4.531169e-03  -6.831670e-03  0 
 4.586206e-03  -7.196535e-03  0 
 4.638825e-03  -7.527610e-03  0 
 4.670509e-03  -7.844611e-03  0 
 4.713373e-03  -8.146146e-03  0 
 4.767189e-03  -8.433389e-03  0 
 4.849776e-03  -8.699554e-03  0 
 3.184779e-03  -8.531817e-03  0 
 3.435954e-03  -8.611709e-03  0 
 3.711914e-03  -8.654812e-03  0 
 3.977718e-03  -8.675879e-03  0 
 4.232883e-03  -8.688937e-03  0 
 4.466910e-03  -8.720039e-03  0 
 4.699706e-03  -8.768922e-03  0 
 4.898218e-03  -8.846595e-03  0 
 2.584671e-03  -5.952584e-03  0 
 2.681426e-03  -6.004304e-03  0 
 2.838696e-03  -6.047576e-03  0 
 3.026434e-03  -6.090564e-03  0 
 3.240832e-03  -6.137655e-03  0 
 3.474860e-03  -6.188276e-03  0 
 3.744763e-03  -6.261659e-03  0 
 4.065762e-03  -6.352557e-03  0 
 2.726048e-03  -6.252595e-03  0 
 2.818994e-03  -6.333241e-03  0 
 2.967645e-03  -6.407470e-03  0 
 3.156030e-03  -6.477477e-03  0 
 3.373318e-03  -6.547263e-03  0 
 3.619269e-03  -6.621908e-03  0 
 3.896310e-03  -6.701957e-03  0 
 4.199618e-03  -6.777413e-03  0 
 2.835341e-03  -6.542577e-03  0 
 2.944623e-03  -6.640731e-03  0 
 3.099467e-03  -6.739742e-03  0 
 3.290423e-03  -6.835129e-03  0 
 3.510294e-03  -6.927409e-03  0 
 3.754908e-03  -7.016380e-03  0 
 4.020331e-03  -7.097154e-03  0 
 4.302072e-03  -7.160971e-03  0 
 2.917659e-03  -6.830265e-03  0 
 3.057186e-03  -6.941275e-03  0 
 3.228534e-03  -7.056374e-03  0 
 3.426902e-03  -7.169409e-03  0 
 3.646317e-03  -7.276544e-03  0 
 3.881455e-03  -7.373530e-03  0 
 4.127897e-03  -7.454015e-03  0 
 4.380627e-03  -7.508811e-03  0 
 2.987691e-03  -7.120066e-03  0 
 3.157944e-03  -7.241865e-03  0 
 3.351768e-03  -7.365332e-03  0 
 3.561110e-03  -7.485854e-03  0 
 3.779584e-03  -7.598256e-03  0 
 4.002581e-03  -7.697631e-03  0 
 4.226946e-03  -7.777484e-03  0 
 4.450997e-03  -7.829646e-03  0 
 3.043983e-03  -7.422107e-03  0 
 3.248959e-03  -7.548724e-03  0 
 3.467676e-03  -7.673453e-03  0 
 3.689621e-03  -7.790113e-03  0 
 3.909079e-03  -7.896742e-03  0 
 4.121943e-03  -7.991905e-03  0 
 4.326189e-03  -8.070928e-03  0 
 4.522200e-03  -8.125587e-03  0 
 3.089809e-03  -7.742167e-03  0 
 3.331608e-03  -7.873489e-03  0 
 3.573152e-03  -7.987723e-03  0 
 3.807547e-03  -8.086957e-03  0 
 4.031945e-03  -8.176001e-03  0 
 4.242171e-03  -8.257762e-03  0 
 4.433448e-03  -8.334173e-03  0 
 4.607330e-03  -8.397384e-03  0 
 3.137480e-03  -8.104245e-03  0 
 3.402025e-03  -8.227905e-03  0 
 3.658302e-03  -8.312732e-03  0 
 3.907949e-03  -8.380321e-03  0 
 4.142160e-03  -8.440283e-03  0 
 4.360143e-03  -8.498084e-03  0 
 4.558437e-03  -8.563258e-03  0 
 4.719947e-03  -8.642384e-03  0 
VECTORS displacement_ITER8 FLOAT
 2.400380e-03  -5.649578e-03  0 
 4.322104e-03  -5.958269e-03  0 
 2.837418e-03  -8.367529e-03  0 
 4.903616e-03  -8.856794e-03  0 
 2.398472e-03  -5.619443e-03  0 
 2.494080e-03  -5.628047e-03  0 
 2.679589e-03  -5.660130e-03  0 
 2.875584e-03  -5.668723e-03  0 
 3.097593e-03  -5.686565e-03  0 
 3.333394e-03  -5.744326e-03  0 
 3.542572e-03  -5.793180e-03  0 
 3.843910e-03  -5.852260e-03  0 
 2.588185e-03  -5.922248e-03  0 
 2.674569e-03  -6.155802e-03  0 
 2.719347e-03  -6.437313e-03  0 
 2.766151e-03  -6.715641e-03  0 
 2.787869e-03  -6.993307e-03  0 
 2.804564e-03  -7.296591e-03  0 
 2.823992e-03  -7.619739e-03  0 
 2.838122e-03  -7.959082e-03  0 
 4.439436e-03  -6.481797e-03  0 
 4.495082e-03  -6.888005e-03  0 
 4.542756e-03  -7.198463e-03  0 
 4.596817e-03  -7.502548e-03  0 
 4.641188e-03  -7.810145e-03  0 
 4.696044e-03  -8.124746e-03  0 
 4.755182e-03  -8.442195e-03  0 
 4.816184e-03  -8.711448e-03  0 
 3.114512e-03  -8.525337e-03  0 
 3.388241e-03  -8.611228e-03  0 
 3.643545e-03  -8.649218e-03  0 
 3.901083e-03  -8.690974e-03  0 
 4.172168e-03  -8.725009e-03  0 
 4.432880e-03  -8.755298e-03  0 
 4.686996e-03  -8.793658e-03  0 
 4.884525e-03  -8.825384e-03  0 
 2.552967e-03  -5.955937e-03  0 
 2.647395e-03  -6.002764e-03  0 
 2.802473e-03  -6.048794e-03  0 
 2.996373e-03  -6.092869e-03  0 
 3.221854e-03  -6.141768e-03  0 
 3.461893e-03  -6.194191e-03  0 
 3.723053e-03  -6.270158e-03  0 
 4.044423e-03  -6.379906e-03  0 
 2.688049e-03  -6.240833e-03  0 
 2.781360e-03  -6.326753e-03  0 
 2.933287e-03  -6.404782e-03  0 
 3.126878e-03  -6.478962e-03  0 
 3.350817e-03  -6.550803e-03  0 
 3.600885e-03  -6.626386e-03  0 
 3.880452e-03  -6.713919e-03  0 
 4.186590e-03  -6.808664e-03  0 
 2.793290e-03  -6.527493e-03  0 
 2.906186e-03  -6.632126e-03  0 
 3.065279e-03  -6.736151e-03  0 
 3.261088e-03  -6.834769e-03  0 
 3.485766e-03  -6.928640e-03  0 
 3.735589e-03  -7.018964e-03  0 
 4.005829e-03  -7.102686e-03  0 
 4.284260e-03  -7.168282e-03  0 
 2.871266e-03  -6.819655e-03  0 
 3.017269e-03  -6.935124e-03  0 
 3.193337e-03  -7.053776e-03  0 
 3.395846e-03  -7.168367e-03  0 
 3.619481e-03  -7.275725e-03  0 
 3.858954e-03  -7.371824e-03  0 
 4.107832e-03  -7.448467e-03  0 
 4.356006e-03  -7.494296e-03  0 
 2.938694e-03  -7.115844e-03  0 
 3.115751e-03  -7.241607e-03  0 
 3.313397e-03  -7.365828e-03  0 
 3.526184e-03  -7.485127e-03  0 
 3.748527e-03  -7.595453e-03  0 
 3.974578e-03  -7.691795e-03  0 
 4.199824e-03  -7.765774e-03  0 