# vtk DataFile Version 3.1
this is an vtk file created by FEMAC
ASCII
DATASET UNSTRUCTURED_GRID
POINTS 100 FLOAT
2.000000 4.000000 0.000000
2.000000 5.000000 0.000000
3.000000 4.000000 0.000000
3.000000 5.000000 0.000000
2.000000 4.111111 0.000000
2.000000 4.222222 0.000000
2.000000 4.333333 0.000000
2.000000 4.444444 0.000000
2.000000 4.555556 0.000000
2.000000 4.666667 0.000000
2.000000 4.777778 0.000000
2.000000 4.888889 0.000000
2.111111 4.000000 0.000000
2.222222 4.000000 0.000000
2.333333 4.000000 0.000000
2.444444 4.000000 0.000000
2.555556 4.000000 0.000000
2.666667 4.000000 0.000000
2.777778 4.000000 0.000000
2.888889 4.000000 0.000000
2.111111 5.000000 0.000000
2.222222 5.000000 0.000000
2.333333 5.000000 0.000000
2.444444 5.000000 0.000000
2.555556 5.000000 0.000000
2.666667 5.000000 0.000000
2.777778 5.000000 0.000000
2.888889 5.000000 0.000000
3.000000 4.111111 0.000000
3.000000 4.222222 0.000000
3.000000 4.333333 0.000000
3.000000 4.444444 0.000000
3.000000 4.555556 0.000000
3.000000 4.666667 0.000000
3.000000 4.777778 0.000000
3.000000 4.888889 0.000000
2.111111 4.111111 0.000000
2.111111 4.222222 0.000000
2.111111 4.333333 0.000000
2.111111 4.444444 0.000000
2.111111 4.555556 0.000000
2.111111 4.666667 0.000000
2.111111 4.777778 0.000000
2.111111 4.888889 0.000000
2.222222 4.111111 0.000000
2.222222 4.222222 0.000000
2.222222 4.333333 0.000000
2.222222 4.444444 0.000000
2.222222 4.555556 0.000000
2.222222 4.666667 0.000000
2.222222 4.777778 0.000000
2.222222 4.888889 0.000000
2.333333 4.111111 0.000000
2.333333 4.222222 0.000000
2.333333 4.333333 0.000000
2.333333 4.444444 0.000000
2.333333 4.555556 0.000000
2.333333 4.666667 0.000000
2.333333 4.777778 0.000000
2.333333 4.888889 0.000000
2.444444 4.111111 0.000000
2.444444 4.222222 0.000000
2.444444 4.333333 0.000000
2.444444 4.444444 0.000000
2.444444 4.555556 0.000000
2.444444 4.666667 0.000000
2.444444 4.777778 0.000000
2.444444 4.888889 0.000000
2.555556 4.111111 0.000000
2.555556 4.222222 0.000000
2.555556 4.333333 0.000000
2.555556 4.444444 0.000000
2.555556 4.555556 0.000000
2.555556 4.666667 0.000000
2.555556 4.777778 0.000000
2.555556 4.888889 0.000000
2.666667 4.111111 0.000000
2.666667 4.222222 0.000000
2.666667 4.333333 0.000000
2.666667 4.444444 0.000000
2.666667 4.555556 0.000000
2.666667 4.666667 0.000000
2.666667 4.777778 0.000000
2.666667 4.888889 0.000000
2.777778 4.111111 0.000000
2.777778 4.222222 0.000000
2.777778 4.333333 0.000000
2.777778 4.444444 0.000000
2.777778 4.555556 0.000000
2.777778 4.666667 0.000000
2.777778 4.777778 0.000000
2.777778 4.888889 0.000000
2.888889 4.111111 0.000000
2.888889 4.222222 0.000000
2.888889 4.333333 0.000000
2.888889 4.444444 0.000000
2.888889 4.555556 0.000000
2.888889 4.666667 0.000000
2.888889 4.777778 0.000000
2.888889 4.888889 0.000000
CELLS 81 405 
4 0 12 36  4
4 4 36 37  5
4 5 37 38  6
4 6 38 39  7
4 7 39 40  8
4 8 40 41  9
4 9 41 42 10
4 10 42 43 11
4 11 43 20  1
4 12 13 44 36
4 36 44 45 37
4 37 45 46 38
4 38 46 47 39
4 39 47 48 40
4 40 48 49 41
4 41 49 50 42
4 42 50 51 43
4 43 51 21 20
4 13 14 52 44
4 44 52 53 45
4 45 53 54 46
4 46 54 55 47
4 47 55 56 48
4 48 56 57 49
4 49 57 58 50
4 50 58 59 51
4 51 59 22 21
4 14 15 60 52
4 52 60 61 53
4 53 61 62 54
4 54 62 63 55
4 55 63 64 56
4 56 64 65 57
4 57 65 66 58
4 58 66 67 59
4 59 67 23 22
4 15 16 68 60
4 60 68 69 61
4 61 69 70 62
4 62 70 71 63
4 63 71 72 64
4 64 72 73 65
4 65 73 74 66
4 66 74 75 67
4 67 75 24 23
4 16 17 76 68
4 68 76 77 69
4 69 77 78 70
4 70 78 79 71
4 71 79 80 72
4 72 80 81 73
4 73 81 82 74
4 74 82 83 75
4 75 83 25 24
4 17 18 84 76
4 76 84 85 77
4 77 85 86 78
4 78 86 87 79
4 79 87 88 80
4 80 88 89 81
4 81 89 90 82
4 82 90 91 83
4 83 91 26 25
4 18 19 92 84
4 84 92 93 85
4 85 93 94 86
4 86 94 95 87
4 87 95 96 88
4 88 96 97 89
4 89 97 98 90
4 90 98 99 91
4 91 99 27 26
4 19  2 28 92
4 92 28 29 93
4 93 29 30 94
4 94 30 31 95
4 95 31 32 96
4 96 32 33 97
4 97 33 34 98
4 98 34 35 99
4 99 35  3 27
CELL_TYPES 81
9 9 9 9 9 9 9 9 9 9 9 9 9 9 9 9 9 9 9 9 9 9 9 9 9 9 9 9 9 9 9 9 9 9 9 9 9 9 9 9 9 9 9 9 9 9 9 9 9 9 9 9 9 9 9 9 9 9 9 9 9 9 9 9 9 9 9 9 9 9 9 9 9 9 9 9 9 9 9 9 9 
POINT_DATA 100
VECTORS displacement_ITER1 FLOAT
 3.156472e-03  -5.080848e-03  0 
 5.996409e-03  -5.629401e-03  0 
 3.580080e-03  -8.653289e-03  0 
 6.730773e-03  -8.850574e-03  0 
 3.615838e-03  -5.197497e-03  0 
 4.007008e-03  -5.274795e-03  0 
 4.386620e-03  -5.342752e-03  0 
 4.746952e-03  -5.400493e-03  0 
 5.085243e-03  -5.459084e-03  0 
 5.395512e-03  -5.508453e-03  0 
 5.674331e-03  -5.556693e-03  0 
 5.920885e-03  -5.600313e-03  0 
 3.191527e-03  -5.618996e-03  0 
 3.223468e-03  -6.045789e-03  0 
 3.256770e-03  -6.455298e-03  0 
 3.286920e-03  -6.840854e-03  0 
 3.320109e-03  -7.219046e-03  0 
 3.359402e-03  -7.588716e-03  0 
 3.408602e-03  -7.950139e-03  0 
 3.465119e-03  -8.303961e-03  0 
 6.194796e-03  -5.849715e-03  0 
 6.302123e-03  -6.159913e-03  0 
 6.390339e-03  -6.478184e-03  0 
 6.463108e-03  -6.825612e-03  0 
 6.523571e-03  -7.185873e-03  0 
 6.579409e-03  -7.565777e-03  0 
 6.624771e-03  -7.959091e-03  0 
 6.668784e-03  -8.362212e-03  0 
 3.794249e-03  -8.618732e-03  0 
 4.093988e-03  -8.620539e-03  0 
 4.412956e-03  -8.628733e-03  0 
 4.749442e-03  -8.645160e-03  0 
 5.102423e-03  -8.666836e-03  0 
 5.471512e-03  -8.697457e-03  0 
 5.858906e-03  -8.732893e-03  0 
 6.254981e-03  -8.774796e-03  0 
 3.632603e-03  -5.635354e-03  0 
 4.029144e-03  -5.674763e-03  0 
 4.402708e-03  -5.715960e-03  0 
 4.759298e-03  -5.752609e-03  0 
 5.096007e-03  -5.782751e-03  0 
 5.409672e-03  -5.807368e-03  0 
 5.697853e-03  -5.824752e-03  0 
 5.945230e-03  -5.826792e-03  0 
 3.638680e-03  -6.062353e-03  0 
 4.035392e-03  -6.074977e-03  0 
 4.408532e-03  -6.091989e-03  0 
 4.762908e-03  -6.107447e-03  0 
 5.099857e-03  -6.118047e-03  0 
 5.418676e-03  -6.123156e-03  0 
 5.717662e-03  -6.123317e-03  0 
 6.007173e-03  -6.131097e-03  0 
 3.651605e-03  -6.462870e-03  0 
 4.036995e-03  -6.467412e-03  0 
 4.407224e-03  -6.469100e-03  0 
 4.760911e-03  -6.468736e-03  0 
 5.100114e-03  -6.465220e-03  0 
 5.426906e-03  -6.459271e-03  0 
 5.746134e-03  -6.456089e-03  0 
 6.065506e-03  -6.462216e-03  0 
 3.668214e-03  -6.849172e-03  0 
 4.041862e-03  -6.850112e-03  0 
 4.404855e-03  -6.844984e-03  0 
 4.756644e-03  -6.835552e-03  0 
 5.099183e-03  -6.824004e-03  0 
 5.436565e-03  -6.813502e-03  0 
 5.773722e-03  -6.808224e-03  0 
 6.114616e-03  -6.811476e-03  0 
 3.689504e-03  -7.226450e-03  0 
 4.050952e-03  -7.226095e-03  0 
 4.404808e-03  -7.218103e-03  0 
 4.752670e-03  -7.205195e-03  0 
 5.097967e-03  -7.191135e-03  0 
 5.444940e-03  -7.179677e-03  0 
 5.796959e-03  -7.173895e-03  0 
 6.156505e-03  -7.175908e-03  0 
 3.715850e-03  -7.597091e-03  0 
 4.064010e-03  -7.595902e-03  0 
 4.406981e-03  -7.586771e-03  0 
 4.749511e-03  -7.573828e-03  0 
 5.096397e-03  -7.562133e-03  0 
 5.450791e-03  -7.553916e-03  0 
 5.815546e-03  -7.550436e-03  0 
 6.191129e-03  -7.553814e-03  0 
 3.747908e-03  -7.959773e-03  0 
 4.079121e-03  -7.957438e-03  0 
 4.408773e-03  -7.946496e-03  0 
 4.747125e-03  -7.937849e-03  0 
 5.095400e-03  -7.933285e-03  0 
 5.455140e-03  -7.933520e-03  0 
 5.829156e-03  -7.937463e-03  0 
 6.220915e-03  -7.944254e-03  0 
 3.785797e-03  -8.314405e-03  0 
 4.087530e-03  -8.299288e-03  0 
 4.409990e-03  -8.294057e-03  0 
 4.746521e-03  -8.294997e-03  0 
 5.096696e-03  -8.302240e-03  0 
 5.461212e-03  -8.315131e-03  0 
 5.840809e-03  -8.333886e-03  0 
 6.240813e-03  -8.352066e-03  0 
VECTORS displacement_ITER2 FLOAT
 2.542939e-03  -3.975000e-03  0 
 4.426005e-03  -4.729011e-03  0 
 3.076390e-03  -6.736049e-03  0 
 5.339601e-03  -6.978922e-03  0 
 2.957663e-03  -4.142530e-03  0 
 3.266072e-03  -4.247740e-03  0 
 3.547650e-03  -4.326891e-03  0 
 3.806947e-03  -4.393685e-03  0 
 4.044700e-03  -4.458939e-03  0 
 4.258427e-03  -4.522413e-03  0 
 4.430037e-03  -4.591129e-03  0 
 4.543733e-03  -4.667121e-03  0 
 2.596171e-03  -4.491597e-03  0 
 2.649722e-03  -4.847047e-03  0 
 2.694336e-03  -5.162141e-03  0 
 2.731541e-03  -5.453850e-03  0 
 2.765305e-03  -5.728954e-03  0 
 2.805614e-03  -5.993816e-03  0 
 2.858575e-03  -6.251148e-03  0 
 2.932826e-03  -6.504821e-03  0 
 4.676696e-03  -4.772332e-03  0 
 4.821254e-03  -4.958389e-03  0 
 4.921435e-03  -5.174546e-03  0 
 5.003391e-03  -5.416647e-03  0 
 5.069718e-03  -5.677193e-03  0 
 5.128887e-03  -5.952913e-03  0 
 5.184581e-03  -6.244478e-03  0 
 5.250961e-03  -6.558166e-03  0 
 3.149783e-03  -6.703744e-03  0 
 3.337332e-03  -6.711070e-03  0 
 3.554379e-03  -6.725328e-03  0 
 3.792986e-03  -6.745024e-03  0 
 4.046028e-03  -6.770789e-03  0 
 4.313780e-03  -6.802820e-03  0 
 4.603974e-03  -6.841126e-03  0 
 4.917172e-03  -6.895552e-03  0 
 2.977741e-03  -4.510802e-03  0 
 3.287753e-03  -4.556038e-03  0 
 3.564645e-03  -4.603873e-03  0 
 3.821577e-03  -4.646898e-03  0 
 4.058800e-03  -4.684813e-03  0 
 4.271614e-03  -4.716984e-03  0 
 4.450911e-03  -4.740383e-03  0 
 4.571348e-03  -4.743664e-03  0 
 2.980878e-03  -4.860304e-03  0 
 3.290597e-03  -4.869069e-03  0 
 3.569129e-03  -4.885899e-03  0 
 3.825368e-03  -4.903806e-03  0 
 4.062051e-03  -4.917500e-03  0 
 4.277039e-03  -4.924300e-03  0 
 4.465528e-03  -4.922998e-03  0 
 4.637693e-03  -4.928455e-03  0 
 2.995385e-03  -5.169634e-03  0 
 3.288185e-03  -5.170185e-03  0 
 3.564165e-03  -5.168453e-03  0 
 3.820433e-03  -5.166399e-03  0 
 4.058998e-03  -5.161657e-03  0 
 4.281399e-03  -5.153714e-03  0 
 4.492625e-03  -5.148182e-03  0 
 4.703262e-03  -5.154230e-03  0 
 3.013434e-03  -5.458150e-03  0 
 3.290676e-03  -5.456071e-03  0 
 3.557630e-03  -5.447378e-03  0 
 3.811670e-03  -5.434115e-03  0 
 4.053922e-03  -5.418702e-03  0 
 4.288607e-03  -5.404735e-03  0 
 4.521505e-03  -5.397574e-03  0 
 4.757997e-03  -5.401286e-03  0 
 3.035137e-03  -5.734545e-03  0 
 3.298549e-03  -5.732510e-03  0 
 3.554258e-03  -5.721607e-03  0 
 3.803162e-03  -5.704437e-03  0 
 4.048721e-03  -5.685687e-03  0 
 4.295425e-03  -5.670192e-03  0 
 4.546661e-03  -5.662167e-03  0 
 4.804462e-03  -5.664501e-03  0 
 3.063002e-03  -6.003288e-03  0 
 3.311560e-03  -6.001983e-03  0 
 3.553845e-03  -5.990195e-03  0 
 3.796017e-03  -5.973470e-03  0 
 4.043473e-03  -5.957819e-03  0 
 4.299529e-03  -5.945681e-03  0 
 4.566737e-03  -5.938867e-03  0 
 4.843987e-03  -5.940869e-03  0 
 3.099615e-03  -6.265338e-03  0 
 3.326787e-03  -6.261996e-03  0 
 3.553137e-03  -6.248255e-03  0 
 3.790527e-03  -6.237480e-03  0 
 4.039500e-03  -6.231114e-03  0 
 4.301424e-03  -6.228898e-03  0 
 4.580082e-03  -6.228809e-03  0 
 4.878201e-03  -6.231135e-03  0 
 3.142162e-03  -6.516816e-03  0 
 3.333160e-03  -6.498537e-03  0 
 3.552221e-03  -6.492563e-03  0 
 3.788580e-03  -6.494555e-03  0 
 4.039389e-03  -6.502900e-03  0 
 4.305244e-03  -6.515921e-03  0 
 4.588690e-03  -6.533148e-03  0 
 4.901508e-03  -6.547213e-03  0 
VECTORS displacement_ITER3 FLOAT
 2.068660e-03  -3.471072e-03  0 
 3.603100e-03  -4.304122e-03  0 
 2.658158e-03  -5.944219e-03  0 
 4.620055e-03  -6.221674e-03  0 
 2.475522e-03  -3.668900e-03  0 
 2.755715e-03  -3.783202e-03  0 
 2.999258e-03  -3.864548e-03  0 
 3.220461e-03  -3.932299e-03  0 
 3.422321e-03  -3.993039e-03  0 
 3.603593e-03  -4.060343e-03  0 
 3.742610e-03  -4.134784e-03  0 
 3.809294e-03  -4.224385e-03  0 
 2.135741e-03  -3.991057e-03  0 
 2.200264e-03  -4.318239e-03  0 
 2.249537e-03  -4.592760e-03  0 
 2.290356e-03  -4.846393e-03  0 
 2.325940e-03  -5.086251e-03  0 
 2.365649e-03  -5.319245e-03  0 
 2.416484e-03  -5.544101e-03  0 
 2.496412e-03  -5.760374e-03  0 
 3.886350e-03  -4.275171e-03  0 
 4.051621e-03  -4.413934e-03  0 
 4.158680e-03  -4.599974e-03  0 
 4.242483e-03  -4.809514e-03  0 
 4.309814e-03  -5.036812e-03  0 
 4.368907e-03  -5.275962e-03  0 
 4.431686e-03  -5.531540e-03  0 
 4.510626e-03  -5.816206e-03  0 
 2.674720e-03  -5.915133e-03  0 
 2.822210e-03  -5.926065e-03  0 
 3.003962e-03  -5.942872e-03  0 
 3.206568e-03  -5.962843e-03  0 
 3.423335e-03  -5.988821e-03  0 
 3.655636e-03  -6.022196e-03  0 
 3.911786e-03  -6.065410e-03  0 
 4.201231e-03  -6.130269e-03  0 
 2.497574e-03  -4.009586e-03  0 
 2.775389e-03  -4.055709e-03  0 
 3.016388e-03  -4.104105e-03  0 
 3.236186e-03  -4.147479e-03  0 
 3.438309e-03  -4.186600e-03  0 
 3.617666e-03  -4.219765e-03  0 
 3.760879e-03  -4.243484e-03  0 
 3.836232e-03  -4.243799e-03  0 
 2.498783e-03  -4.328969e-03  0 
 2.776585e-03  -4.335154e-03  0 
 3.020408e-03  -4.351024e-03  0 
 3.241158e-03  -4.369036e-03  0 
 3.442499e-03  -4.383155e-03  0 
 3.621783e-03  -4.389418e-03  0 
 3.772327e-03  -4.385338e-03  0 
 3.904338e-03  -4.387005e-03  0 
 2.514441e-03  -4.602023e-03  0 
 2.773196e-03  -4.601968e-03  0 
 3.014961e-03  -4.599096e-03  0 
 3.236234e-03  -4.596308e-03  0 
 3.439140e-03  -4.590805e-03  0 
 3.624938e-03  -4.581441e-03  0 
 3.798748e-03  -4.573965e-03  0 
 3.972771e-03  -4.578816e-03  0 
 2.534913e-03  -4.853420e-03  0 
 2.776309e-03  -4.852221e-03  0 
 3.008106e-03  -4.843036e-03  0 
 3.226898e-03  -4.828658e-03  0 
 3.433442e-03  -4.811850e-03  0 
 3.632003e-03  -4.796517e-03  0 
 3.828812e-03  -4.788724e-03  0 
 4.030326e-03  -4.793121e-03  0 
 2.558593e-03  -5.093919e-03  0 
 2.785252e-03  -5.092845e-03  0 
 3.004747e-03  -5.081823e-03  0 
 3.217761e-03  -5.063660e-03  0 
 3.427736e-03  -5.043535e-03  0 
 3.639274e-03  -5.026884e-03  0 
 3.855804e-03  -5.018651e-03  0 
 4.078938e-03  -5.022203e-03  0 
 2.587217e-03  -5.328059e-03  0 
 2.798993e-03  -5.326968e-03  0 
 3.004320e-03  -5.314853e-03  0 
 3.210066e-03  -5.297415e-03  0 
 3.421973e-03  -5.280915e-03  0 
 3.643570e-03  -5.267816e-03  0 
 3.877303e-03  -5.260318e-03  0 
 4.121052e-03  -5.262657e-03  0 
 2.624082e-03  -5.556304e-03  0 
 2.814139e-03  -5.551768e-03  0 
 3.003146e-03  -5.537081e-03  0 
 3.204167e-03  -5.526090e-03  0 
 3.417484e-03  -5.519753e-03  0 
 3.644790e-03  -5.517209e-03  0 
 3.890879e-03  -5.515981e-03  0 
 4.157802e-03  -5.517270e-03  0 
 2.667403e-03  -5.772235e-03  0 
 2.819068e-03  -5.751562e-03  0 
 3.001605e-03  -5.745278e-03  0 
 3.202164e-03  -5.747847e-03  0 
 3.417096e-03  -5.756754e-03  0 
 3.647535e-03  -5.770670e-03  0 
 3.897881e-03  -5.788586e-03  0 
 4.183950e-03  -5.802167e-03  0 
VECTORS displacement_ITER4 FLOAT
 1.907902e-03  -3.337773e-03  0 
 3.379608e-03  -4.231260e-03  0 
 2.525225e-03  -5.792968e-03  0 
 4.448987e-03  -6.080951e-03  0 
 2.325713e-03  -3.549060e-03  0 
 2.604625e-03  -3.670826e-03  0 
 2.843071e-03  -3.756514e-03  0 
 3.058796e-03  -3.826512e-03  0 
 3.255853e-03  -3.889676e-03  0 
 3.430461e-03  -3.958849e-03  0 
 3.565473e-03  -4.039292e-03  0 
 3.621621e-03  -4.138907e-03  0 
 1.981004e-03  -3.876440e-03  0 
 2.052656e-03  -4.202490e-03  0 
 2.105379e-03  -4.472919e-03  0 
 2.146864e-03  -4.720796e-03  0 
 2.183439e-03  -4.956287e-03  0 
 2.222787e-03  -5.186069e-03  0 
 2.273367e-03  -5.408706e-03  0 
 2.355398e-03  -5.619282e-03  0 
 3.680294e-03  -4.170350e-03  0 
 3.854709e-03  -4.298930e-03  0 
 3.967925e-03  -4.481416e-03  0 
 4.052264e-03  -4.686497e-03  0 
 4.120081e-03  -4.907811e-03  0 
 4.180311e-03  -5.140980e-03  0 
 4.245656e-03  -5.388983e-03  0 
 4.329751e-03  -5.671577e-03  0 
 2.526824e-03  -5.766109e-03  0 
 2.669514e-03  -5.779598e-03  0 
 2.847444e-03  -5.796687e-03  0 
 3.044879e-03  -5.814834e-03  0 
 3.256618e-03  -5.838266e-03  0 
 3.483708e-03  -5.871315e-03  0 
 3.732598e-03  -5.917146e-03  0 
 4.020340e-03  -5.985757e-03  0 
 2.348293e-03  -3.893655e-03  0 
 2.624534e-03  -3.940938e-03  0 
 2.860976e-03  -3.991311e-03  0 
 3.075531e-03  -4.036849e-03  0 
 3.272219e-03  -4.077817e-03  0 
 3.446369e-03  -4.113433e-03  0 
 3.583500e-03  -4.139306e-03  0 
 3.647417e-03  -4.139344e-03  0 
 2.348845e-03  -4.213397e-03  0 
 2.624812e-03  -4.218536e-03  0 
 2.864947e-03  -4.234630e-03  0 
 3.080882e-03  -4.253634e-03  0 
 3.276943e-03  -4.269047e-03  0 
 3.450371e-03  -4.276288e-03  0 
 3.593385e-03  -4.271954e-03  0 
 3.716050e-03  -4.272294e-03  0 
 2.365387e-03  -4.482324e-03  0 
 2.620780e-03  -4.482174e-03  0 
 2.858968e-03  -4.479022e-03  0 
 3.075781e-03  -4.476344e-03  0 
 3.273394e-03  -4.471109e-03  0 
 3.452922e-03  -4.461729e-03  0 
 3.619479e-03  -4.453914e-03  0 
 3.786222e-03  -4.458856e-03  0 
 2.386873e-03  -4.728852e-03  0 
 2.624060e-03  -4.728045e-03  0 
 2.851724e-03  -4.718754e-03  0 
 3.065952e-03  -4.704035e-03  0 
 3.267239e-03  -4.686827e-03  0 
 3.459848e-03  -4.671136e-03  0 
 3.650299e-03  -4.663405e-03  0 
 3.845778e-03  -4.668779e-03  0 
 2.411303e-03  -4.964760e-03  0 
 2.633413e-03  -4.964058e-03  0 
 2.848244e-03  -4.952918e-03  0 
 3.056377e-03  -4.934300e-03  0 
 3.261177e-03  -4.913577e-03  0 
 3.467306e-03  -4.896440e-03  0 
 3.678320e-03  -4.888194e-03  0 
 3.895638e-03  -4.892408e-03  0 
 2.440390e-03  -5.194917e-03  0 
 2.647406e-03  -5.193683e-03  0 
 2.847783e-03  -5.181186e-03  0 
 3.048458e-03  -5.163291e-03  0 
 3.255193e-03  -5.146308e-03  0 
 3.471667e-03  -5.132619e-03  0 
 3.700417e-03  -5.124566e-03  0 
 3.938970e-03  -5.126740e-03  0 
 2.477206e-03  -5.419522e-03  0 
 2.662388e-03  -5.414078e-03  0 
 2.846479e-03  -5.398605e-03  0 
 3.042634e-03  -5.387184e-03  0 
 3.250650e-03  -5.380544e-03  0 
 3.472532e-03  -5.377504e-03  0 
 3.713875e-03  -5.375313e-03  0 
 3.976670e-03  -5.375602e-03  0 
 2.520438e-03  -5.631093e-03  0 
 2.666504e-03  -5.609107e-03  0 
 2.844849e-03  -5.602377e-03  0 
 3.040909e-03  -5.604256e-03  0 
 3.250487e-03  -5.612412e-03  0 
 3.474828e-03  -5.626272e-03  0 
 3.719812e-03  -5.644077e-03  0 
 4.003424e-03  -5.656639e-03  0 
VECTORS displacement_ITER5 FLOAT
 1.829875e-03  -3.256709e-03  0 
 3.247665e-03  -4.191088e-03  0 
 2.466858e-03  -5.687310e-03  0 
 4.348777e-03  -5.982058e-03  0 
 2.255848e-03  -3.476098e-03  0 
 2.531929e-03  -3.603457e-03  0 
 2.766032e-03  -3.692967e-03  0 
 2.976794e-03  -3.765287e-03  0 
 3.168832e-03  -3.830668e-03  0 
 3.336679e-03  -3.900062e-03  0 
 3.465704e-03  -3.983521e-03  0 
 3.513662e-03  -4.090144e-03  0 
 1.907552e-03  -3.806789e-03  0 
 1.984186e-03  -4.131146e-03  0 
 2.038735e-03  -4.399877e-03  0 
 2.079845e-03  -4.643442e-03  0 
 2.116704e-03  -4.873972e-03  0 
 2.156525e-03  -5.097549e-03  0 
 2.208687e-03  -5.315325e-03  0 
 2.292831e-03  -5.520889e-03  0 
 3.558901e-03  -4.107784e-03  0 
 3.738302e-03  -4.228270e-03  0 
 3.855110e-03  -4.404894e-03  0 
 3.940035e-03  -4.604499e-03  0 
 4.008351e-03  -4.820126e-03  0 
 4.069480e-03  -5.047693e-03  0 
 4.136200e-03  -5.290455e-03  0 
 4.223328e-03  -5.569787e-03  0 
 2.456295e-03  -5.660521e-03  0 
 2.593917e-03  -5.674818e-03  0 
 2.767103e-03  -5.691353e-03  0 
 2.959310e-03  -5.708705e-03  0 
 3.165577e-03  -5.731127e-03  0 
 3.386819e-03  -5.764214e-03  0 
 3.629235e-03  -5.812277e-03  0 
 3.913996e-03  -5.883541e-03  0 
 2.277770e-03  -3.823284e-03  0 
 2.552236e-03  -3.871344e-03  0 
 2.784340e-03  -3.923371e-03  0 
 2.993831e-03  -3.970498e-03  0 
 3.184811e-03  -4.012500e-03  0 
 3.353093e-03  -4.049375e-03  0 
 3.484134e-03  -4.076672e-03  0 
 3.538774e-03  -4.076959e-03  0 
 2.277881e-03  -4.142656e-03  0 
 2.551513e-03  -4.146968e-03  0 
 2.787829e-03  -4.162946e-03  0 
 2.998834e-03  -4.182326e-03  0 
 3.189413e-03  -4.198270e-03  0 
 3.356961e-03  -4.205970e-03  0 
 3.493122e-03  -4.201503e-03  0 
 3.607707e-03  -4.201209e-03  0 
 2.294708e-03  -4.408207e-03  0 
 2.546534e-03  -4.407376e-03  0 
 2.780847e-03  -4.403507e-03  0 
 2.993019e-03  -4.400422e-03  0 
 3.185322e-03  -4.394971e-03  0 
 3.358896e-03  -4.385292e-03  0 
 3.518862e-03  -4.377045e-03  0 
 3.678868e-03  -4.381836e-03  0 
 2.316069e-03  -4.650564e-03  0 
 2.549257e-03  -4.649007e-03  0 
 2.772704e-03  -4.638987e-03  0 
 2.982272e-03  -4.623503e-03  0 
 3.178361e-03  -4.605557e-03  0 
 3.365294e-03  -4.589195e-03  0 
 3.549783e-03  -4.581038e-03  0 
 3.739353e-03  -4.586489e-03  0 
 2.340355e-03  -4.881673e-03  0 
 2.558297e-03  -4.880385e-03  0 
 2.768584e-03  -4.868523e-03  0 
 2.971831e-03  -4.849052e-03  0 
 3.171477e-03  -4.827423e-03  0 
 3.372292e-03  -4.809452e-03  0 
 3.577924e-03  -4.800631e-03  0 
 3.789746e-03  -4.804644e-03  0 
 2.369864e-03  -5.106768e-03  0 
 2.572249e-03  -5.105103e-03  0 
 2.767700e-03  -5.091853e-03  0 
 2.963245e-03  -5.073166e-03  0 
 3.164754e-03  -5.055405e-03  0 
 3.376077e-03  -5.040868e-03  0 
 3.599870e-03  -5.031966e-03  0 
 3.833471e-03  -5.033559e-03  0 
 2.407448e-03  -5.326309e-03  0 
 2.587270e-03  -5.320260e-03  0 
 2.766117e-03  -5.303960e-03  0 
 2.957079e-03  -5.291936e-03  0 
 3.159673e-03  -5.284823e-03  0 
 3.376165e-03  -5.281214e-03  0 
 3.612729e-03  -5.278104e-03  0 
 3.871470e-03  -5.277440e-03  0 
 2.451135e-03  -5.532595e-03  0 
 2.591073e-03  -5.509525e-03  0 
 2.764417e-03  -5.502288e-03  0 
 2.955345e-03  -5.503618e-03  0 
 3.159392e-03  -5.511395e-03  0 
 3.377773e-03  -5.525298e-03  0 
 3.617466e-03  -5.543028e-03  0 
 3.898125e-03  -5.554873e-03  0 
VECTORS displacement_ITER6 FLOAT
 1.795810e-03  -3.237931e-03  0 
 3.192726e-03  -4.200743e-03  0 
 2.450680e-03  -5.665210e-03  0 
 4.316394e-03  -5.965225e-03  0 
 2.230115e-03  -3.464319e-03  0 
 2.505597e-03  -3.596600e-03  0 
 2.737880e-03  -3.688040e-03  0 
 2.946554e-03  -3.761458e-03  0 
 3.136268e-03  -3.828429e-03  0 
 3.301979e-03  -3.898016e-03  0 
 3.428575e-03  -3.982406e-03  0 
 3.473522e-03  -4.093629e-03  0 
 1.878065e-03  -3.798607e-03  0 
 1.958227e-03  -4.122729e-03  0 
 2.014117e-03  -4.389958e-03  0 
 2.055908e-03  -4.631493e-03  0 
 2.093582e-03  -4.860695e-03  0 
 2.134299e-03  -5.082388e-03  0 
 2.187827e-03  -5.298656e-03  0 
 2.273151e-03  -5.502652e-03  0 
 3.510408e-03  -4.103504e-03  0 
 3.693066e-03  -4.219814e-03  0 
 3.811808e-03  -4.393388e-03  0 
 3.897715e-03  -4.591432e-03  0 
 3.966944e-03  -4.804853e-03  0 
 4.029143e-03  -5.030548e-03  0 
 4.096687e-03  -5.272471e-03  0 
 4.185763e-03  -5.550281e-03  0 
 2.433379e-03  -5.638093e-03  0 
 2.568020e-03  -5.652968e-03  0 
 2.738595e-03  -5.668830e-03  0 
 2.928394e-03  -5.686207e-03  0 
 3.132128e-03  -5.709033e-03  0 
 3.350879e-03  -5.742332e-03  0 
 3.591484e-03  -5.791699e-03  0 
 3.875494e-03  -5.865208e-03  0 
 2.251751e-03  -3.814566e-03  0 
 2.526226e-03  -3.863138e-03  0 
 2.756520e-03  -3.916360e-03  0 
 2.963986e-03  -3.964500e-03  0 
 3.152683e-03  -4.007244e-03  0 
 3.318579e-03  -4.044842e-03  0 
 3.447355e-03  -4.072903e-03  0 
 3.497642e-03  -4.073085e-03  0 
 2.251451e-03  -4.134461e-03  0 
 2.524928e-03  -4.138365e-03  0 
 2.760015e-03  -4.154445e-03  0 
 2.969092e-03  -4.174231e-03  0 
 3.157456e-03  -4.190562e-03  0 
 3.322589e-03  -4.198527e-03  0 
 3.455761e-03  -4.193826e-03  0 
 3.566469e-03  -4.192794e-03  0 
 2.268785e-03  -4.398531e-03  0 
 2.519637e-03  -4.397728e-03  0 
 2.752716e-03  -4.393663e-03  0 
 2.963122e-03  -4.390472e-03  0 
 3.153248e-03  -4.384943e-03  0 
 3.324275e-03  -4.375016e-03  0 
 3.481288e-03  -4.366306e-03  0 
 3.638195e-03  -4.370686e-03  0 
 2.290773e-03  -4.639181e-03  0 
 2.522496e-03  -4.637771e-03  0 
 2.744348e-03  -4.627591e-03  0 
 2.952054e-03  -4.611759e-03  0 
 3.145959e-03  -4.593380e-03  0 
 3.330438e-03  -4.576530e-03  0 
 3.512338e-03  -4.567931e-03  0 
 3.699359e-03  -4.573177e-03  0 
 2.315680e-03  -4.868587e-03  0 
 2.531841e-03  -4.867408e-03  0 
 2.740154e-03  -4.855360e-03  0 
 2.941282e-03  -4.835467e-03  0 
 3.138707e-03  -4.813286e-03  0 
 3.337259e-03  -4.794762e-03  0 
 3.540665e-03  -4.785529e-03  0 
 3.750419e-03  -4.789341e-03  0 
 2.345885e-03  -5.091999e-03  0 
 2.546136e-03  -5.090287e-03  0 
 2.739253e-03  -5.076752e-03  0 
 2.932426e-03  -5.057650e-03  0 
 3.131633e-03  -5.039422e-03  0 
 3.340837e-03  -5.024385e-03  0 
 3.562750e-03  -5.015074e-03  0 
 3.794591e-03  -5.016508e-03  0 
 2.384223e-03  -5.309726e-03  0 
 2.561434e-03  -5.303386e-03  0 
 2.737637e-03  -5.286671e-03  0 
 2.926085e-03  -5.274344e-03  0 
 3.126273e-03  -5.266985e-03  0 
 3.340612e-03  -5.263139e-03  0 
 3.575566e-03  -5.259658e-03  0 
 3.833192e-03  -5.258825e-03  0 
 2.428489e-03  -5.513935e-03  0 
 2.565219e-03  -5.490093e-03  0 
 2.735961e-03  -5.482561e-03  0 
 2.924277e-03  -5.483724e-03  0 
 3.125882e-03  -5.491526e-03  0 
 3.341965e-03  -5.505619e-03  0 
 3.579828e-03  -5.523573e-03  0 
 3.860310e-03  -5.535169e-03  0 
VECTORS displacement_ITER7 FLOAT
 1.754505e-03  -3.202219e-03  0 
 3.160987e-03  -4.186930e-03  0 
 2.419024e-03  -5.653986e-03  0 
 4.300599e-03  -5.955963e-03  0 
 2.197095e-03  -3.433484e-03  0 
 2.475077e-03  -3.569335e-03  0 
 2.708881e-03  -3.661975e-03  0 
 2.919056e-03  -3.736115e-03  0 
 3.109643e-03  -3.804476e-03  0 
 3.276732e-03  -3.875015e-03  0 
 3.404565e-03  -3.960295e-03  0 
 3.450092e-03  -4.074944e-03  0 
 1.839889e-03  -3.772700e-03  0 
 1.922313e-03  -4.099876e-03  0 
 1.978962e-03  -4.368797e-03  0 
 2.021331e-03  -4.612132e-03  0 
 2.059196e-03  -4.843617e-03  0 
 2.100037e-03  -5.067380e-03  0 
 2.153924e-03  -5.285301e-03  0 
 2.239975e-03  -5.490896e-03  0 
 3.483371e-03  -4.081583e-03  0 
 3.668884e-03  -4.197846e-03  0 
 3.789036e-03  -4.372086e-03  0 
 3.876021e-03  -4.571808e-03  0 
 3.945895e-03  -4.786530e-03  0 
 4.008864e-03  -5.013944e-03  0 
 4.076767e-03  -5.257916e-03  0 
 4.167010e-03  -5.537083e-03  0 
 2.401065e-03  -5.626415e-03  0 
 2.536503e-03  -5.641856e-03  0 
 2.708282e-03  -5.657493e-03  0 
 2.899503e-03  -5.674960e-03  0 
 3.104700e-03  -5.698146e-03  0 
 3.325004e-03  -5.731385e-03  0 
 3.567710e-03  -5.780955e-03  0 
 3.853692e-03  -5.855808e-03  0 
 2.218638e-03  -3.788625e-03  0 
 2.495862e-03  -3.837673e-03  0 
 2.727723e-03  -3.891800e-03  0 
 2.936646e-03  -3.940714e-03  0 
 3.126646e-03  -3.984196e-03  0 
 3.293670e-03  -4.022604e-03  0 
 3.423581e-03  -4.051442e-03  0 
 3.473483e-03  -4.051604e-03  0 
 2.218019e-03  -4.111723e-03  0 
 2.494174e-03  -4.115485e-03  0 
 2.731227e-03  -4.131748e-03  0 
 2.941836e-03  -4.151933e-03  0 
 3.131539e-03  -4.168661e-03  0 
 3.297804e-03  -4.176947e-03  0 
 3.431612e-03  -4.172195e-03  0 
 3.542234e-03  -4.170706e-03  0 
 2.235632e-03  -4.377769e-03  0 
 2.488634e-03  -4.377052e-03  0 
 2.723692e-03  -4.372930e-03  0 
 2.935734e-03  -4.369750e-03  0 
 3.127208e-03  -4.364248e-03  0 
 3.299287e-03  -4.354225e-03  0 
 3.457018e-03  -4.345261e-03  0 
 3.614557e-03  -4.349463e-03  0 
 2.257951e-03  -4.620245e-03  0 
 2.491479e-03  -4.618953e-03  0 
 2.715084e-03  -4.608680e-03  0 
 2.924379e-03  -4.592648e-03  0 
 3.119646e-03  -4.574025e-03  0 
 3.305271e-03  -4.556904e-03  0 
 3.488210e-03  -4.548081e-03  0 
 3.676306e-03  -4.553269e-03  0 
 2.283073e-03  -4.851526e-03  0 
 2.500838e-03  -4.850348e-03  0 
 2.710693e-03  -4.838146e-03  0 
 2.913289e-03  -4.817968e-03  0 
 3.112101e-03  -4.795441e-03  0 
 3.311986e-03  -4.776602e-03  0 
 3.516720e-03  -4.767180e-03  0 
 3.727914e-03  -4.770965e-03  0 
 2.313352e-03  -5.076821e-03  0 
 2.515098e-03  -5.074951e-03  0 
 2.709587e-03  -5.061173e-03  0 
 2.904131e-03  -5.041763e-03  0 
 3.104754e-03  -5.023217e-03  0 
 3.315461e-03  -5.007882e-03  0 
 3.538985e-03  -4.998379e-03  0 
 3.772448e-03  -4.999819e-03  0 
 2.351818e-03  -5.296294e-03  0 
 2.530290e-03  -5.289667e-03  0 
 2.707727e-03  -5.272639e-03  0 
 2.897514e-03  -5.260065e-03  0 
 3.099153e-03  -5.252487e-03  0 
 3.315076e-03  -5.248470e-03  0 
 3.551872e-03  -5.244769e-03  0 
 3.811540e-03  -5.243864e-03  0 
 2.396240e-03  -5.501949e-03  0 
 2.533849e-03  -5.477678e-03  0 
 2.705845e-03  -5.469966e-03  0 
 2.895465e-03  -5.471022e-03  0 
 3.098564e-03  -5.478771e-03  0 
 3.316312e-03  -5.492842e-03  0 
 3.555928e-03  -5.510863e-03  0 
 3.838968e-03  -5.522138e-03  0 
VECTORS displacement_ITER8 FLOAT
 1.726549e-03  -3.190039e-03  0 
 3.136272e-03  -4.190028e-03  0 
 2.401457e-03  -5.655309e-03  0 
 4.284635e-03  -5.955744e-03  0 
 2.175731e-03  -3.424315e-03  0 
 2.455392e-03  -3.562532e-03  0 
 2.689916e-03  -3.656356e-03  0 
 2.900833e-03  -3.731234e-03  0 
 3.091593e-03  -3.800180e-03  0 
 3.258733e-03  -3.871689e-03  0 
 3.386882e-03  -3.957764e-03  0 
 3.431695e-03  -4.074779e-03  0 
 1.814697e-03  -3.766921e-03  0 
 1.899056e-03  -4.096460e-03  0 
 1.956580e-03  -4.366500e-03  0 
 1.999704e-03  -4.610746e-03  0 
 2.037982e-03  -4.842773e-03  0 
 2.079386e-03  -5.067019e-03  0 
 2.133853e-03  -5.285152e-03  0 
 2.221094e-03  -5.491209e-03  0 
 3.462186e-03  -4.078525e-03  0 
 3.650164e-03  -4.194502e-03  0 
 3.771125e-03  -4.369057e-03  0 
 3.858649e-03  -4.569182e-03  0 
 3.928466e-03  -4.784311e-03  0 
 3.991417e-03  -5.011964e-03  0 
 4.059218e-03  -5.256059e-03  0 
 4.149947e-03  -5.535084e-03  0 
 2.381844e-03  -5.626312e-03  0 
 2.516941e-03  -5.641636e-03  0 
 2.688744e-03  -5.657228e-03  0 
 2.880048e-03  -5.674633e-03  0 
 3.085498e-03  -5.697794e-03  0 
 3.306067e-03  -5.730871e-03  0 
 3.549162e-03  -5.780154e-03  0 
 3.835522e-03  -5.855594e-03  0 
 2.197061e-03  -3.783040e-03  0 
 2.476240e-03  -3.832307e-03  0 
 2.708947e-03  -3.887035e-03  0 
 2.918394e-03  -3.936462e-03  0 
 3.108763e-03  -3.980414e-03  0 
 3.275992e-03  -4.019352e-03  0 
 3.405941e-03  -4.048735e-03  0 
 3.454884e-03  -4.048847e-03  0 
 2.196449e-03  -4.108285e-03  0 
 2.474257e-03  -4.111830e-03  0 
 2.712353e-03  -4.128052e-03  0 
 2.923562e-03  -4.148401e-03  0 
 3.113641e-03  -4.165337e-03  0 
 3.280082e-03  -4.173785e-03  0 
 3.413690e-03  -4.168965e-03  0 
 3.523659e-03  -4.167197e-03  0 
 2.214411e-03  -4.375512e-03  0 
 2.468562e-03  -4.374618e-03  0 
 2.704590e-03  -4.370272e-03  0 
 2.917289e-03  -4.366954e-03  0 
 3.109142e-03  -4.361375e-03  0 
 3.281342e-03  -4.351232e-03  0 
 3.438967e-03  -4.342095e-03  0 
 3.596447e-03  -4.346257e-03  0 
 2.237069e-03  -4.618782e-03  0 
 2.471440e-03  -4.617350e-03  0 
 2.695810e-03  -4.606837e-03  0 
 2.905698e-03  -4.590528e-03  0 
 3.101338e-03  -4.571634e-03  0 
 3.287147e-03  -4.554278e-03  0 
 3.470192e-03  -4.545323e-03  0 
 3.658458e-03  -4.550530e-03  0 
 2.262537e-03  -4.850664e-03  0 
 2.480920e-03  -4.849367e-03  0 
 2.691338e-03  -4.836930e-03  0 
 2.894393e-03  -4.816423e-03  0 
 3.093562e-03  -4.793551e-03  0 
 3.293736e-03  -4.774434e-03  0 
 3.498727e-03  -4.764873e-03  0 