# vtk DataFile Version 3.1
this is an vtk file created by FEMAC
ASCII
DATASET UNSTRUCTURED_GRID
POINTS 100 FLOAT
5.000000 3.000000 0.000000
5.000000 4.000000 0.000000
6.000000 3.000000 0.000000
6.000000 4.000000 0.000000
5.000000 3.111111 0.000000
5.000000 3.222222 0.000000
5.000000 3.333333 0.000000
5.000000 3.444444 0.000000
5.000000 3.555556 0.000000
5.000000 3.666667 0.000000
5.000000 3.777778 0.000000
5.000000 3.888889 0.000000
5.111111 3.000000 0.000000
5.222222 3.000000 0.000000
5.333333 3.000000 0.000000
5.444444 3.000000 0.000000
5.555556 3.000000 0.000000
5.666667 3.000000 0.000000
5.777778 3.000000 0.000000
5.888889 3.000000 0.000000
5.111111 4.000000 0.000000
5.222222 4.000000 0.000000
5.333333 4.000000 0.000000
5.444444 4.000000 0.000000
5.555556 4.000000 0.000000
5.666667 4.000000 0.000000
5.777778 4.000000 0.000000
5.888889 4.000000 0.000000
6.000000 3.111111 0.000000
6.000000 3.222222 0.000000
6.000000 3.333333 0.000000
6.000000 3.444444 0.000000
6.000000 3.555556 0.000000
6.000000 3.666667 0.000000
6.000000 3.777778 0.000000
6.000000 3.888889 0.000000
5.111111 3.111111 0.000000
5.111111 3.222222 0.000000
5.111111 3.333333 0.000000
5.111111 3.444444 0.000000
5.111111 3.555556 0.000000
5.111111 3.666667 0.000000
5.111111 3.777778 0.000000
5.111111 3.888889 0.000000
5.222222 3.111111 0.000000
5.222222 3.222222 0.000000
5.222222 3.333333 0.000000
5.222222 3.444444 0.000000
5.222222 3.555556 0.000000
5.222222 3.666667 0.000000
5.222222 3.777778 0.000000
5.222222 3.888889 0.000000
5.333333 3.111111 0.000000
5.333333 3.222222 0.000000
5.333333 3.333333 0.000000
5.333333 3.444444 0.000000
5.333333 3.555556 0.000000
5.333333 3.666667 0.000000
5.333333 3.777778 0.000000
5.333333 3.888889 0.000000
5.444444 3.111111 0.000000
5.444444 3.222222 0.000000
5.444444 3.333333 0.000000
5.444444 3.444444 0.000000
5.444444 3.555556 0.000000
5.444444 3.666667 0.000000
5.444444 3.777778 0.000000
5.444444 3.888889 0.000000
5.555556 3.111111 0.000000
5.555556 3.222222 0.000000
5.555556 3.333333 0.000000
5.555556 3.444444 0.000000
5.555556 3.555556 0.000000
5.555556 3.666667 0.000000
5.555556 3.777778 0.000000
5.555556 3.888889 0.000000
5.666667 3.111111 0.000000
5.666667 3.222222 0.000000
5.666667 3.333333 0.000000
5.666667 3.444444 0.000000
5.666667 3.555556 0.000000
5.666667 3.666667 0.000000
5.666667 3.777778 0.000000
5.666667 3.888889 0.000000
5.777778 3.111111 0.000000
5.777778 3.222222 0.000000
5.777778 3.333333 0.000000
5.777778 3.444444 0.000000
5.777778 3.555556 0.000000
5.777778 3.666667 0.000000
5.777778 3.777778 0.000000
5.777778 3.888889 0.000000
5.888889 3.111111 0.000000
5.888889 3.222222 0.000000
5.888889 3.333333 0.000000
5.888889 3.444444 0.000000
5.888889 3.555556 0.000000
5.888889 3.666667 0.000000
5.888889 3.777778 0.000000
5.888889 3.888889 0.000000
CELLS 81 405 
4 0 12 36  4
4 4 36 37  5
4 5 37 38  6
4 6 38 39  7
4 7 39 40  8
4 8 40 41  9
4 9 41 42 10
4 10 42 43 11
4 11 43 20  1
4 12 13 44 36
4 36 44 45 37
4 37 45 46 38
4 38 46 47 39
4 39 47 48 40
4 40 48 49 41
4 41 49 50 42
4 42 50 51 43
4 43 51 21 20
4 13 14 52 44
4 44 52 53 45
4 45 53 54 46
4 46 54 55 47
4 47 55 56 48
4 48 56 57 49
4 49 57 58 50
4 50 58 59 51
4 51 59 22 21
4 14 15 60 52
4 52 60 61 53
4 53 61 62 54
4 54 62 63 55
4 55 63 64 56
4 56 64 65 57
4 57 65 66 58
4 58 66 67 59
4 59 67 23 22
4 15 16 68 60
4 60 68 69 61
4 61 69 70 62
4 62 70 71 63
4 63 71 72 64
4 64 72 73 65
4 65 73 74 66
4 66 74 75 67
4 67 75 24 23
4 16 17 76 68
4 68 76 77 69
4 69 77 78 70
4 70 78 79 71
4 71 79 80 72
4 72 80 81 73
4 73 81 82 74
4 74 82 83 75
4 75 83 25 24
4 17 18 84 76
4 76 84 85 77
4 77 85 86 78
4 78 86 87 79
4 79 87 88 80
4 80 88 89 81
4 81 89 90 82
4 82 90 91 83
4 83 91 26 25
4 18 19 92 84
4 84 92 93 85
4 85 93 94 86
4 86 94 95 87
4 87 95 96 88
4 88 96 97 89
4 89 97 98 90
4 90 98 99 91
4 91 99 27 26
4 19  2 28 92
4 92 28 29 93
4 93 29 30 94
4 94 30 31 95
4 95 31 32 96
4 96 32 33 97
4 97 33 34 98
4 98 34 35 99
4 99 35  3 27
CELL_TYPES 81
9 9 9 9 9 9 9 9 9 9 9 9 9 9 9 9 9 9 9 9 9 9 9 9 9 9 9 9 9 9 9 9 9 9 9 9 9 9 9 9 9 9 9 9 9 9 9 9 9 9 9 9 9 9 9 9 9 9 9 9 9 9 9 9 9 9 9 9 9 9 9 9 9 9 9 9 9 9 9 9 9 
POINT_DATA 100
VECTORS displacement_ITER1 FLOAT
 1.128296e-03  -1.697823e-02  0 
 5.157584e-03  -1.698817e-02  0 
 1.068106e-03  -2.116749e-02  0 
 5.217782e-03  -2.116512e-02  0 
 1.561637e-03  -1.699855e-02  0 
 2.011916e-03  -1.700912e-02  0 
 2.464917e-03  -1.701520e-02  0 
 2.918332e-03  -1.701886e-02  0 
 3.371239e-03  -1.702022e-02  0 
 3.823925e-03  -1.701898e-02  0 
 4.276412e-03  -1.701542e-02  0 
 4.725547e-03  -1.700835e-02  0 
 1.100341e-03  -1.745496e-02  0 
 1.088932e-03  -1.792337e-02  0 
 1.080355e-03  -1.838932e-02  0 
 1.074454e-03  -1.885429e-02  0 
 1.071543e-03  -1.931858e-02  0 
 1.070465e-03  -1.978197e-02  0 
 1.070596e-03  -2.024385e-02  0 
 1.070198e-03  -2.070466e-02  0 
 5.184052e-03  -1.746246e-02  0 
 5.194927e-03  -1.792797e-02  0 
 5.202154e-03  -1.839254e-02  0 
 5.206957e-03  -1.885544e-02  0 
 5.209955e-03  -1.931755e-02  0 
 5.212331e-03  -1.977942e-02  0 
 5.214558e-03  -2.024113e-02  0 
 5.216446e-03  -2.070289e-02  0 
 1.530694e-03  -2.116468e-02  0 
 1.991499e-03  -2.116263e-02  0 
 2.452237e-03  -2.116091e-02  0 
 2.912823e-03  -2.115967e-02  0 
 3.373234e-03  -2.115918e-02  0 
 3.833595e-03  -2.115959e-02  0 
 4.294160e-03  -2.116091e-02  0 
 4.755330e-03  -2.116296e-02  0 
 1.561871e-03  -1.745475e-02  0 
 2.012673e-03  -1.746316e-02  0 
 2.465286e-03  -1.746895e-02  0 
 2.918364e-03  -1.747212e-02  0 
 3.371246e-03  -1.747310e-02  0 
 3.823815e-03  -1.747200e-02  0 
 4.275622e-03  -1.746823e-02  0 
 4.724886e-03  -1.746118e-02  0 
 1.552333e-03  -1.792164e-02  0 
 2.010408e-03  -1.792262e-02  0 
 2.464607e-03  -1.792586e-02  0 
 2.918143e-03  -1.792812e-02  0 
 3.371383e-03  -1.792886e-02  0 
 3.824374e-03  -1.792806e-02  0 
 4.277358e-03  -1.792610e-02  0 
 4.733571e-03  -1.792604e-02  0 
 1.544742e-03  -1.838709e-02  0 
 2.005350e-03  -1.838602e-02  0 
 2.462484e-03  -1.838618e-02  0 
 2.917482e-03  -1.838695e-02  0 
 3.371766e-03  -1.838738e-02  0 
 3.826130e-03  -1.838743e-02  0 
 4.281914e-03  -1.838804e-02  0 
 4.740420e-03  -1.838981e-02  0 
 1.539201e-03  -1.885204e-02  0 
 2.000730e-03  -1.885003e-02  0 
 2.459554e-03  -1.884871e-02  0 
 2.916408e-03  -1.884819e-02  0 
 3.372359e-03  -1.884831e-02  0 
 3.828603e-03  -1.884906e-02  0 
 4.286137e-03  -1.885063e-02  0 
 4.745552e-03  -1.885295e-02  0 
 1.535449e-03  -1.931636e-02  0 
 1.997128e-03  -1.931392e-02  0 
 2.456895e-03  -1.931196e-02  0 
 2.915245e-03  -1.931086e-02  0 
 3.372901e-03  -1.931073e-02  0 
 3.830724e-03  -1.931156e-02  0 
 4.289391e-03  -1.931323e-02  0 
 4.749176e-03  -1.931542e-02  0 
 1.533138e-03  -1.977971e-02  0 
 1.994558e-03  -1.977722e-02  0 
 2.454881e-03  -1.977518e-02  0 
 2.914280e-03  -1.977392e-02  0 
 3.373190e-03  -1.977362e-02  0 
 3.832151e-03  -1.977426e-02  0 
 4.291599e-03  -1.977563e-02  0 
 4.751697e-03  -1.977744e-02  0 
 1.531749e-03  -2.024188e-02  0 
 1.992942e-03  -2.023973e-02  0 
 2.453553e-03  -2.023788e-02  0 
 2.913582e-03  -2.023666e-02  0 
 3.373269e-03  -2.023628e-02  0 
 3.832938e-03  -2.023672e-02  0 
 4.292926e-03  -2.023779e-02  0 
 4.753459e-03  -2.023928e-02  0 
 1.531076e-03  -2.070327e-02  0 
 1.992079e-03  -2.070153e-02  0 
 2.452756e-03  -2.069982e-02  0 
 2.913128e-03  -2.069865e-02  0 
 3.373255e-03  -2.069823e-02  0 
 3.833329e-03  -2.069861e-02  0 
 4.293648e-03  -2.069966e-02  0 
 4.754606e-03  -2.070112e-02  0 
VECTORS displacement_ITER2 FLOAT
 1.147910e-03  -1.324805e-02  0 
 4.131960e-03  -1.326419e-02  0 
 1.080108e-03  -1.640675e-02  0 
 4.198309e-03  -1.640518e-02  0 
 1.461699e-03  -1.327287e-02  0 
 1.796250e-03  -1.328277e-02  0 
 2.133914e-03  -1.328731e-02  0 
 2.472663e-03  -1.329034e-02  0 
 2.810975e-03  -1.329239e-02  0 
 3.148075e-03  -1.329315e-02  0 
 3.483754e-03  -1.329181e-02  0 
 3.816790e-03  -1.328555e-02  0 
 1.116191e-03  -1.361301e-02  0 
 1.104265e-03  -1.396715e-02  0 
 1.096878e-03  -1.431696e-02  0 
 1.091573e-03  -1.466585e-02  0 
 1.087834e-03  -1.501485e-02  0 
 1.085186e-03  -1.536372e-02  0 
 1.083513e-03  -1.571204e-02  0 
 1.081747e-03  -1.605946e-02  0 
 4.159210e-03  -1.362247e-02  0 
 4.170366e-03  -1.397375e-02  0 
 4.177974e-03  -1.432173e-02  0 
 4.183374e-03  -1.466790e-02  0 
 4.187891e-03  -1.501396e-02  0 
 4.191970e-03  -1.536067e-02  0 
 4.195775e-03  -1.570839e-02  0 
 4.197784e-03  -1.605712e-02  0 
 1.428388e-03  -1.640437e-02  0 
 1.775469e-03  -1.640147e-02  0 
 2.121698e-03  -1.639894e-02  0 
 2.467290e-03  -1.639725e-02  0 
 2.812534e-03  -1.639670e-02  0 
 3.157811e-03  -1.639744e-02  0 
 3.503631e-03  -1.639944e-02  0 
 3.850565e-03  -1.640237e-02  0 
 1.463133e-03  -1.361194e-02  0 
 1.797269e-03  -1.362095e-02  0 
 2.134460e-03  -1.362664e-02  0 
 2.472778e-03  -1.362978e-02  0 
 2.810934e-03  -1.363109e-02  0 
 3.148104e-03  -1.363066e-02  0 
 3.483616e-03  -1.362783e-02  0 
 3.816030e-03  -1.362140e-02  0 
 1.452913e-03  -1.396452e-02  0 
 1.795496e-03  -1.396508e-02  0 
 2.134175e-03  -1.396852e-02  0 
 2.472667e-03  -1.397095e-02  0 
 2.810917e-03  -1.397183e-02  0 
 3.148546e-03  -1.397125e-02  0 
 3.485545e-03  -1.396970e-02  0 
 3.825320e-03  -1.397042e-02  0 
 1.445142e-03  -1.431482e-02  0 
 1.790354e-03  -1.431349e-02  0 
 2.132231e-03  -1.431365e-02  0 
 2.472064e-03  -1.431456e-02  0 
 2.811215e-03  -1.431505e-02  0 
 3.150269e-03  -1.431514e-02  0 
 3.490419e-03  -1.431594e-02  0 
 3.832919e-03  -1.431828e-02  0 
 1.439734e-03  -1.466402e-02  0 
 1.785664e-03  -1.466220e-02  0 
 2.129272e-03  -1.466099e-02  0 
 2.470978e-03  -1.466056e-02  0 
 2.811763e-03  -1.466068e-02  0 
 3.152782e-03  -1.466137e-02  0 
 3.494946e-03  -1.466288e-02  0 
 3.838616e-03  -1.466525e-02  0 
 1.435856e-03  -1.501284e-02  0 
 1.782054e-03  -1.501078e-02  0 
 2.126589e-03  -1.500908e-02  0 
 2.469775e-03  -1.500809e-02  0 
 2.812257e-03  -1.500795e-02  0 
 3.154896e-03  -1.500865e-02  0 
 3.498358e-03  -1.501004e-02  0 
 3.842787e-03  -1.501189e-02  0 
 1.433028e-03  -1.536138e-02  0 
 1.779393e-03  -1.535910e-02  0 
 2.124573e-03  -1.535728e-02  0 
 2.468794e-03  -1.535616e-02  0 
 2.812496e-03  -1.535586e-02  0 
 3.156261e-03  -1.535637e-02  0 
 3.500609e-03  -1.535746e-02  0 
 3.845871e-03  -1.535887e-02  0 
 1.430885e-03  -1.570937e-02  0 
 1.777526e-03  -1.570703e-02  0 
 2.123218e-03  -1.570520e-02  0 
 2.468102e-03  -1.570403e-02  0 
 2.812544e-03  -1.570365e-02  0 
 3.157010e-03  -1.570406e-02  0 
 3.501991e-03  -1.570510e-02  0 
 3.847987e-03  -1.570656e-02  0 
 1.429355e-03  -1.605684e-02  0 
 1.776335e-03  -1.605451e-02  0 
 2.122357e-03  -1.605252e-02  0 
 2.467644e-03  -1.605119e-02  0 
 2.812528e-03  -1.605076e-02  0 
 3.157434e-03  -1.605126e-02  0 
 3.502884e-03  -1.605260e-02  0 
 3.849456e-03  -1.605465e-02  0 
VECTORS displacement_ITER3 FLOAT
 9.103876e-04  -1.184968e-02  0 
 3.427091e-03  -1.186967e-02  0 
 8.505881e-04  -1.453665e-02  0 
 3.490746e-03  -1.453465e-02  0 
 1.178095e-03  -1.187749e-02  0 
 1.460223e-03  -1.188714e-02  0 
 1.744066e-03  -1.189215e-02  0 
 2.029573e-03  -1.189549e-02  0 
 2.315525e-03  -1.189762e-02  0 
 2.600496e-03  -1.189846e-02  0 
 2.883512e-03  -1.189733e-02  0 
 3.163789e-03  -1.189160e-02  0 
 8.814885e-04  -1.216657e-02  0 
 8.713180e-04  -1.246898e-02  0 
 8.657069e-04  -1.276618e-02  0 
 8.612345e-04  -1.306174e-02  0 
 8.573136e-04  -1.335680e-02  0 
 8.541927e-04  -1.365174e-02  0 
 8.521136e-04  -1.394692e-02  0 
 8.508592e-04  -1.424217e-02  0 
 3.454440e-03  -1.217611e-02  0 
 3.465712e-03  -1.247459e-02  0 
 3.472461e-03  -1.276962e-02  0 
 3.477209e-03  -1.306364e-02  0 
 3.481320e-03  -1.335740e-02  0 
 3.484777e-03  -1.365105e-02  0 
 3.487728e-03  -1.394501e-02  0 
 3.489464e-03  -1.423960e-02  0 
 1.144948e-03  -1.453433e-02  0 
 1.439081e-03  -1.453161e-02  0 
 1.732397e-03  -1.452925e-02  0 
 2.025098e-03  -1.452768e-02  0 
 2.317456e-03  -1.452714e-02  0 
 2.609781e-03  -1.452772e-02  0 
 2.902442e-03  -1.452937e-02  0 
 3.195883e-03  -1.453187e-02  0 
 1.178306e-03  -1.216520e-02  0 
 1.460570e-03  -1.217361e-02  0 
 1.744904e-03  -1.217911e-02  0 
 2.030203e-03  -1.218249e-02  0 
 2.315663e-03  -1.218404e-02  0 
 2.600353e-03  -1.218369e-02  0 
 2.883412e-03  -1.218091e-02  0 
 3.163373e-03  -1.217462e-02  0 
 1.168056e-03  -1.246608e-02  0 
 1.458391e-03  -1.246591e-02  0 
 1.744489e-03  -1.246888e-02  0 
 2.030229e-03  -1.247124e-02  0 
 2.315733e-03  -1.247227e-02  0 
 2.600727e-03  -1.247184e-02  0 
 2.885217e-03  -1.247038e-02  0 
 3.172667e-03  -1.247120e-02  0 
 1.160653e-03  -1.276373e-02  0 
 1.453074e-03  -1.276185e-02  0 
 1.742346e-03  -1.276160e-02  0 
 2.029553e-03  -1.276237e-02  0 
 2.316020e-03  -1.276293e-02  0 
 2.602387e-03  -1.276318e-02  0 
 2.889918e-03  -1.276416e-02  0 
 3.179910e-03  -1.276656e-02  0 
 1.155517e-03  -1.305955e-02  0 
 1.448388e-03  -1.305754e-02  0 
 1.739307e-03  -1.305619e-02  0 
 2.028403e-03  -1.305571e-02  0 
 2.316530e-03  -1.305592e-02  0 
 2.604831e-03  -1.305676e-02  0 
 2.894241e-03  -1.305847e-02  0 
 3.185127e-03  -1.306095e-02  0 
 1.151735e-03  -1.335475e-02  0 
 1.444923e-03  -1.335286e-02  0 
 1.736715e-03  -1.335132e-02  0 
 2.027231e-03  -1.335042e-02  0 
 2.317024e-03  -1.335039e-02  0 
 2.606902e-03  -1.335124e-02  0 
 2.897498e-03  -1.335284e-02  0 
 3.189004e-03  -1.335496e-02  0 
 1.149005e-03  -1.364985e-02  0 
 1.442528e-03  -1.364803e-02  0 
 1.734899e-03  -1.364650e-02  0 
 2.026358e-03  -1.364553e-02  0 
 2.317308e-03  -1.364536e-02  0 
 2.608266e-03  -1.364599e-02  0 
 2.899698e-03  -1.364727e-02  0 
 3.191889e-03  -1.364897e-02  0 
 1.147150e-03  -1.394493e-02  0 
 1.440944e-03  -1.394300e-02  0 
 1.733736e-03  -1.394141e-02  0 
 2.025785e-03  -1.394039e-02  0 
 2.317420e-03  -1.394012e-02  0 
 2.609033e-03  -1.394060e-02  0 
 2.901044e-03  -1.394170e-02  0 
 3.193819e-03  -1.394321e-02  0 
 1.145909e-03  -1.423982e-02  0 
 1.439892e-03  -1.423758e-02  0 
 1.732994e-03  -1.423575e-02  0 
 2.025411e-03  -1.423456e-02  0 
 2.317449e-03  -1.423418e-02  0 
 2.609454e-03  -1.423465e-02  0 
 2.901826e-03  -1.423587e-02  0 
 3.195047e-03  -1.423761e-02  0 
VECTORS displacement_ITER4 FLOAT
 8.136488e-04  -1.143048e-02  0 
 3.166991e-03  -1.145006e-02  0 
 7.509113e-04  -1.395642e-02  0 
 3.230930e-03  -1.395281e-02  0 
 1.061992e-03  -1.145850e-02  0 
 1.325078e-03  -1.146770e-02  0 
 1.591061e-03  -1.147269e-02  0 
 1.858905e-03  -1.147568e-02  0 
 2.127257e-03  -1.147738e-02  0 
 2.394996e-03  -1.147783e-02  0 
 2.660669e-03  -1.147662e-02  0 
 2.922596e-03  -1.147175e-02  0 
 7.839547e-04  -1.172870e-02  0 
 7.733275e-04  -1.201263e-02  0 
 7.674711e-04  -1.229255e-02  0 
 7.628271e-04  -1.257056e-02  0 
 7.590116e-04  -1.284752e-02  0 
 7.559635e-04  -1.312411e-02  0 
 7.536634e-04  -1.340082e-02  0 
 7.520515e-04  -1.367811e-02  0 
 3.195028e-03  -1.173849e-02  0 
 3.206916e-03  -1.201789e-02  0 
 3.213518e-03  -1.229524e-02  0 
 3.218340e-03  -1.257193e-02  0 
 3.222161e-03  -1.284818e-02  0 
 3.225163e-03  -1.312406e-02  0 
 3.227572e-03  -1.339989e-02  0 
 3.229325e-03  -1.367594e-02  0 
 1.028723e-03  -1.395326e-02  0 
 1.305010e-03  -1.395030e-02  0 
 1.580377e-03  -1.394794e-02  0 
 1.855156e-03  -1.394642e-02  0 
 2.129616e-03  -1.394589e-02  0 
 2.404024e-03  -1.394641e-02  0 
 2.678688e-03  -1.394791e-02  0 
 2.954002e-03  -1.395020e-02  0 
 1.062151e-03  -1.172726e-02  0 
 1.325943e-03  -1.173590e-02  0 
 1.592174e-03  -1.174149e-02  0 
 1.859614e-03  -1.174477e-02  0 
 2.127443e-03  -1.174616e-02  0 
 2.394672e-03  -1.174563e-02  0 
 2.660258e-03  -1.174269e-02  0 
 2.922338e-03  -1.173631e-02  0 
 1.051950e-03  -1.201006e-02  0 
 1.324069e-03  -1.201006e-02  0 
 1.592028e-03  -1.201316e-02  0 
 1.859823e-03  -1.201558e-02  0 
 2.127570e-03  -1.201658e-02  0 
 2.394929e-03  -1.201603e-02  0 
 2.661795e-03  -1.201437e-02  0 
 2.931580e-03  -1.201494e-02  0 
 1.044555e-03  -1.228992e-02  0 
 1.318874e-03  -1.228805e-02  0 
 1.590067e-03  -1.228788e-02  0 
 1.859299e-03  -1.228873e-02  0 
 2.127909e-03  -1.228933e-02  0 
 2.396499e-03  -1.228953e-02  0 
 2.666306e-03  -1.229036e-02  0 
 2.938610e-03  -1.229251e-02  0 
 1.039281e-03  -1.256803e-02  0 
 1.314174e-03  -1.256585e-02  0 
 1.587099e-03  -1.256450e-02  0 
 1.858245e-03  -1.256409e-02  0 
 2.128471e-03  -1.256436e-02  0 
 2.398910e-03  -1.256524e-02  0 
 2.670501e-03  -1.256691e-02  0 
 2.943663e-03  -1.256930e-02  0 
 1.035364e-03  -1.284528e-02  0 
 1.310621e-03  -1.284324e-02  0 
 1.584517e-03  -1.284168e-02  0 
 1.857136e-03  -1.284085e-02  0 
 2.129028e-03  -1.284089e-02  0 
 2.401007e-03  -1.284182e-02  0 
 2.673724e-03  -1.284350e-02  0 
 2.947443e-03  -1.284571e-02  0 
 1.032557e-03  -1.312219e-02  0 
 1.308185e-03  -1.312040e-02  0 
 1.582721e-03  -1.311893e-02  0 
 1.856317e-03  -1.311803e-02  0 
 2.129379e-03  -1.311792e-02  0 
 2.402439e-03  -1.311864e-02  0 
 2.675965e-03  -1.312003e-02  0 
 2.950213e-03  -1.312190e-02  0 
 1.030707e-03  -1.339909e-02  0 
 1.306680e-03  -1.339740e-02  0 
 1.581623e-03  -1.339593e-02  0 
 1.855795e-03  -1.339497e-02  0 
 2.129546e-03  -1.339474e-02  0 
 2.403266e-03  -1.339527e-02  0 
 2.677352e-03  -1.339642e-02  0 
 2.952090e-03  -1.339800e-02  0 
 1.029594e-03  -1.367616e-02  0 
 1.305772e-03  -1.367413e-02  0 
 1.580945e-03  -1.367237e-02  0 
 1.855454e-03  -1.367121e-02  0 
 2.129605e-03  -1.367085e-02  0 
 2.403711e-03  -1.367132e-02  0 
 2.678120e-03  -1.367250e-02  0 
 2.953262e-03  -1.367410e-02  0 
VECTORS displacement_ITER5 FLOAT
 6.882309e-04  -1.130369e-02  0 
 3.000576e-03  -1.132191e-02  0 
 6.284995e-04  -1.378531e-02  0 
 3.063820e-03  -1.378380e-02  0 
 9.329409e-04  -1.133234e-02  0 
 1.191887e-03  -1.134241e-02  0 
 1.453862e-03  -1.134776e-02  0 
 1.716879e-03  -1.135060e-02  0 
 1.979774e-03  -1.135186e-02  0 
 2.242019e-03  -1.135175e-02  0 
 2.502598e-03  -1.134984e-02  0 
 2.759953e-03  -1.134425e-02  0 
 6.594535e-04  -1.159889e-02  0 
 6.491992e-04  -1.187746e-02  0 
 6.435711e-04  -1.215226e-02  0 
 6.392829e-04  -1.242511e-02  0 
 6.359383e-04  -1.269721e-02  0 
 6.332872e-04  -1.296915e-02  0 
 6.311518e-04  -1.324109e-02  0 
 6.296301e-04  -1.351319e-02  0 
 3.028176e-03  -1.160670e-02  0 
 3.039588e-03  -1.188144e-02  0 
 3.046634e-03  -1.215441e-02  0 
 3.052059e-03  -1.242652e-02  0 
 3.056078e-03  -1.269819e-02  0 
 3.058824e-03  -1.296962e-02  0 
 3.060748e-03  -1.324087e-02  0 
 3.062268e-03  -1.351193e-02  0 
 9.008123e-04  -1.378287e-02  0 
 1.172019e-03  -1.378027e-02  0 
 1.442414e-03  -1.377817e-02  0 
 1.712294e-03  -1.377690e-02  0 
 1.981933e-03  -1.377660e-02  0 
 2.251579e-03  -1.377731e-02  0 
 2.521481e-03  -1.377891e-02  0 
 2.791928e-03  -1.378120e-02  0 
 9.333668e-04  -1.159706e-02  0 
 1.192869e-03  -1.160577e-02  0 
 1.454503e-03  -1.161135e-02  0 
 1.717036e-03  -1.161434e-02  0 
 1.979697e-03  -1.161534e-02  0 
 2.241735e-03  -1.161447e-02  0 
 2.502343e-03  -1.161125e-02  0 
 2.759789e-03  -1.160467e-02  0 
 9.231913e-04  -1.187506e-02  0 
 1.190817e-03  -1.187501e-02  0 
 1.454061e-03  -1.187795e-02  0 
 1.716942e-03  -1.188011e-02  0 
 1.979687e-03  -1.188082e-02  0 
 2.242073e-03  -1.188005e-02  0 
 2.504099e-03  -1.187824e-02  0 
 2.769181e-03  -1.187872e-02  0 
 9.159616e-04  -1.214984e-02  0 
 1.185554e-03  -1.214802e-02  0 
 1.451941e-03  -1.214772e-02  0 
 1.716276e-03  -1.214838e-02  0 
 1.979969e-03  -1.214878e-02  0 
 2.243702e-03  -1.214882e-02  0 
 2.508755e-03  -1.214953e-02  0 
 2.776367e-03  -1.215157e-02  0 
 9.109180e-04  -1.242294e-02  0 
 1.180932e-03  -1.242086e-02  0 
 1.448939e-03  -1.241944e-02  0 
 1.715171e-03  -1.241891e-02  0 
 1.980517e-03  -1.241906e-02  0 
 2.246145e-03  -1.241985e-02  0 
 2.513027e-03  -1.242145e-02  0 
 2.781653e-03  -1.242379e-02  0 
 9.072900e-04  -1.269526e-02  0 
 1.177502e-03  -1.269331e-02  0 
 1.446388e-03  -1.269172e-02  0 
 1.714066e-03  -1.269082e-02  0 
 1.981092e-03  -1.269083e-02  0 
 2.248281e-03  -1.269176e-02  0 
 2.516312e-03  -1.269347e-02  0 
 2.785534e-03  -1.269573e-02  0 
 9.046928e-04  -1.296728e-02  0 
 1.175154e-03  -1.296550e-02  0 
 1.444629e-03  -1.296402e-02  0 
 1.713281e-03  -1.296314e-02  0 
 1.981492e-03  -1.296307e-02  0 
 2.249781e-03  -1.296387e-02  0 
 2.518616e-03  -1.296540e-02  0 
 2.788265e-03  -1.296743e-02  0 
 9.028957e-04  -1.323921e-02  0 
 1.173657e-03  -1.323748e-02  0 
 1.443558e-03  -1.323606e-02  0 
 1.712807e-03  -1.323520e-02  0 
 1.981728e-03  -1.323508e-02  0 
 2.250692e-03  -1.323575e-02  0 
 2.520066e-03  -1.323707e-02  0 
 2.790091e-03  -1.323884e-02  0 
 9.016718e-04  -1.351107e-02  0 
 1.172736e-03  -1.350914e-02  0 
 1.442919e-03  -1.350754e-02  0 
 1.712525e-03  -1.350656e-02  0 
 1.981856e-03  -1.350637e-02  0 
 2.251212e-03  -1.350700e-02  0 
 2.520887e-03  -1.350833e-02  0 
 2.791216e-03  -1.351005e-02  0 
VECTORS displacement_ITER6 FLOAT
 6.637199e-04  -1.121602e-02  0 
 2.946863e-03  -1.123461e-02  0 
 6.035766e-04  -1.366736e-02  0 
 3.008182e-03  -1.366540e-02  0 
 9.048634e-04  -1.124503e-02  0 
 1.160317e-03  -1.125499e-02  0 
 1.418560e-03  -1.126007e-02  0 
 1.677808e-03  -1.126294e-02  0 
 1.937267e-03  -1.126427e-02  0 
 2.196433e-03  -1.126415e-02  0 
 2.454155e-03  -1.126215e-02  0 
 2.708495e-03  -1.125652e-02  0 
 6.351910e-04  -1.150777e-02  0 
 6.251276e-04  -1.178278e-02  0 
 6.191211e-04  -1.205429e-02  0 
 6.146173e-04  -1.232387e-02  0 
 6.111843e-04  -1.259275e-02  0 
 6.085516e-04  -1.286129e-02  0 
 6.065028e-04  -1.312969e-02  0 
 6.049458e-04  -1.339824e-02  0 
 2.973721e-03  -1.151637e-02  0 
 2.984637e-03  -1.178765e-02  0 
 2.991524e-03  -1.205715e-02  0 
 2.996762e-03  -1.232559e-02  0 
 3.000623e-03  -1.259375e-02  0 
 3.003394e-03  -1.286180e-02  0 
 3.005366e-03  -1.312965e-02  0 
 3.006888e-03  -1.339727e-02  0 
 8.728052e-04  -1.366475e-02  0 
 1.140603e-03  -1.366214e-02  0 
 1.407600e-03  -1.366006e-02  0 
 1.674089e-03  -1.365878e-02  0 
 1.940324e-03  -1.365847e-02  0 
 2.206550e-03  -1.365916e-02  0 
 2.473022e-03  -1.366074e-02  0 
 2.740024e-03  -1.366297e-02  0 
 9.054173e-04  -1.150605e-02  0 
 1.161222e-03  -1.151475e-02  0 
 1.419259e-03  -1.152028e-02  0 
 1.678267e-03  -1.152331e-02  0 
 1.937519e-03  -1.152445e-02  0 
 2.196332e-03  -1.152371e-02  0 
 2.453860e-03  -1.152057e-02  0 
 2.708380e-03  -1.151420e-02  0 
 8.952644e-04  -1.178047e-02  0 
 1.159252e-03  -1.178048e-02  0 
 1.418948e-03  -1.178349e-02  0 
 1.678373e-03  -1.178575e-02  0 
 1.937745e-03  -1.178660e-02  0 
 2.196849e-03  -1.178598e-02  0 
 2.455700e-03  -1.178434e-02  0 
 2.717614e-03  -1.178493e-02  0 
 8.880352e-04  -1.205181e-02  0 
 1.154074e-03  -1.205008e-02  0 
 1.416964e-03  -1.204988e-02  0 
 1.677865e-03  -1.205065e-02  0 
 1.938188e-03  -1.205119e-02  0 
 2.198605e-03  -1.205138e-02  0 
 2.460369e-03  -1.205220e-02  0 
 2.724657e-03  -1.205427e-02  0 
 8.829184e-04  -1.232164e-02  0 
 1.149499e-03  -1.231957e-02  0 
 1.414057e-03  -1.231823e-02  0 
 1.676874e-03  -1.231780e-02  0 
 1.938839e-03  -1.231807e-02  0 
 2.201105e-03  -1.231896e-02  0 
 2.464616e-03  -1.232063e-02  0 
 2.729839e-03  -1.232298e-02  0 
 8.792261e-04  -1.259069e-02  0 
 1.146063e-03  -1.258870e-02  0 
 1.411553e-03  -1.258714e-02  0 
 1.675835e-03  -1.258632e-02  0 
 1.939468e-03  -1.258641e-02  0 
 2.203257e-03  -1.258740e-02  0 
 2.467866e-03  -1.258915e-02  0 
 2.733622e-03  -1.259139e-02  0 
 8.765864e-04  -1.285936e-02  0 
 1.143693e-03  -1.285755e-02  0 
 1.409807e-03  -1.285608e-02  0 
 1.675077e-03  -1.285524e-02  0 
 1.939889e-03  -1.285522e-02  0 
 2.204757e-03  -1.285605e-02  0 
 2.470140e-03  -1.285759e-02  0 
 2.736308e-03  -1.285961e-02  0 
 8.747825e-04  -1.312784e-02  0 
 1.142194e-03  -1.312614e-02  0 
 1.408739e-03  -1.312474e-02  0 
 1.674609e-03  -1.312389e-02  0 
 1.940129e-03  -1.312379e-02  0 
 2.205667e-03  -1.312447e-02  0 
 2.471586e-03  -1.312580e-02  0 
 2.738146e-03  -1.312758e-02  0 
 8.736121e-04  -1.339627e-02  0 
 1.141301e-03  -1.339441e-02  0 
 1.408102e-03  -1.339283e-02  0 
 1.674323e-03  -1.339185e-02  0 
 1.940253e-03  -1.339166e-02  0 
 2.206186e-03  -1.339228e-02  0 
 2.472425e-03  -1.339361e-02  0 
 2.739290e-03  -1.339535e-02  0 
VECTORS displacement_ITER7 FLOAT
 6.246736e-04  -1.118273e-02  0 
 2.888874e-03  -1.120065e-02  0 
 5.650656e-04  -1.361471e-02  0 
 2.949749e-03  -1.361322e-02  0 
 8.639120e-04  -1.121194e-02  0 
 1.117161e-03  -1.122214e-02  0 
 1.373067e-03  -1.122739e-02  0 
 1.630090e-03  -1.123048e-02  0 
 1.887396e-03  -1.123184e-02  0 
 2.144345e-03  -1.123151e-02  0 
 2.399872e-03  -1.122917e-02  0 
 2.652034e-03  -1.122301e-02  0 
 5.962794e-04  -1.147266e-02  0 
 5.862851e-04  -1.174550e-02  0 
 5.800562e-04  -1.201478e-02  0 
 5.754255e-04  -1.228229e-02  0 
 5.719408e-04  -1.254913e-02  0 
 5.693976e-04  -1.281553e-02  0 
 5.675970e-04  -1.308169e-02  0 
 5.662793e-04  -1.334787e-02  0 
 2.915656e-03  -1.148115e-02  0 
 2.926333e-03  -1.175052e-02  0 
 2.933127e-03  -1.201786e-02  0 
 2.938177e-03  -1.228413e-02  0 
 2.942001e-03  -1.255017e-02  0 
 2.944880e-03  -1.281606e-02  0 
 2.946959e-03  -1.308172e-02  0 
 2.948516e-03  -1.334724e-02  0 
 8.318068e-04  -1.361214e-02  0 
 1.097278e-03  -1.360966e-02  0 
 1.362061e-03  -1.360768e-02  0 
 1.626383e-03  -1.360645e-02  0 
 1.890465e-03  -1.360618e-02  0 
 2.154542e-03  -1.360690e-02  0 
 2.418876e-03  -1.360852e-02  0 
 2.683758e-03  -1.361078e-02  0 
 8.644105e-04  -1.147094e-02  0 
 1.118036e-03  -1.147968e-02  0 
 1.373843e-03  -1.148532e-02  0 
 1.630608e-03  -1.148844e-02  0 
 1.887598e-03  -1.148959e-02  0 
 2.144164e-03  -1.148875e-02  0 
 2.399488e-03  -1.148544e-02  0 
 2.651981e-03  -1.147897e-02  0 
 8.541659e-04  -1.174319e-02  0 
 1.116009e-03  -1.174323e-02  0 
 1.373521e-03  -1.174629e-02  0 
 1.630712e-03  -1.174859e-02  0 
 1.887828e-03  -1.174945e-02  0 
 2.144694e-03  -1.174882e-02  0 
 2.401391e-03  -1.174716e-02  0 
 2.661292e-03  -1.174778e-02  0 
 8.468837e-04  -1.201235e-02  0 
 1.110786e-03  -1.201067e-02  0 
 1.371506e-03  -1.201049e-02  0 
 1.630198e-03  -1.201128e-02  0 
 1.888295e-03  -1.201184e-02  0 
 2.146510e-03  -1.201205e-02  0 
 2.406127e-03  -1.201292e-02  0 
 2.668318e-03  -1.201502e-02  0 
 8.417153e-04  -1.228006e-02  0 
 1.106184e-03  -1.227801e-02  0 
 1.368578e-03  -1.227669e-02  0 
 1.629204e-03  -1.227627e-02  0 
 1.888974e-03  -1.227655e-02  0 
 2.149059e-03  -1.227748e-02  0 
 2.410408e-03  -1.227919e-02  0 
 2.673467e-03  -1.228156e-02  0 
 8.379932e-04  -1.254704e-02  0 
 1.102726e-03  -1.254503e-02  0 
 1.366057e-03  -1.254346e-02  0 
 1.628160e-03  -1.254264e-02  0 
 1.889616e-03  -1.254274e-02  0 
 2.151235e-03  -1.254375e-02  0 
 2.413676e-03  -1.254552e-02  0 
 2.677243e-03  -1.254777e-02  0 
 8.353680e-04  -1.281360e-02  0 
 1.100340e-03  -1.281175e-02  0 
 1.364290e-03  -1.281026e-02  0 
 1.627391e-03  -1.280940e-02  0 
 1.890036e-03  -1.280939e-02  0 
 2.152740e-03  -1.281023e-02  0 
 2.415960e-03  -1.281179e-02  0 
 2.679965e-03  -1.281381e-02  0 
 8.336268e-04  -1.307989e-02  0 
 1.098838e-03  -1.307817e-02  0 
 1.363202e-03  -1.307675e-02  0 
 1.626906e-03  -1.307589e-02  0 
 1.890267e-03  -1.307580e-02  0 
 2.153649e-03  -1.307650e-02  0 
 2.417415e-03  -1.307784e-02  0 
 2.681837e-03  -1.307964e-02  0 
 8.325528e-04  -1.334604e-02  0 
 1.097952e-03  -1.334420e-02  0 
 1.362553e-03  -1.334264e-02  0 
 1.626612e-03  -1.334168e-02  0 
 1.890388e-03  -1.334151e-02  0 
 2.154170e-03  -1.334216e-02  0 
 2.418266e-03  -1.334351e-02  0 
 2.683002e-03  -1.334528e-02  0 
VECTORS displacement_ITER8 FLOAT
 6.059190e-04  -1.116311e-02  0 
 2.853562e-03  -1.118295e-02  0 
 5.469451e-04  -1.357868e-02  0 
 2.914581e-03  -1.357699e-02  0 
 8.437696e-04  -1.119267e-02  0 
 1.095341e-03  -1.120280e-02  0 
 1.349553e-03  -1.120810e-02  0 
 1.604890e-03  -1.121126e-02  0 
 1.860322e-03  -1.121271e-02  0 
 2.115173e-03  -1.121257e-02  0 
 2.368535e-03  -1.121058e-02  0 
 2.618635e-03  -1.120476e-02  0 
 5.777327e-04  -1.145164e-02  0 
 5.678677e-04  -1.172282e-02  0 
 5.619072e-04  -1.199029e-02  0 
 5.575884e-04  -1.225596e-02  0 
 5.543191e-04  -1.252081e-02  0 
 5.518821e-04  -1.278517e-02  0 
 5.500159e-04  -1.304927e-02  0 
 5.484368e-04  -1.331342e-02  0 
 2.880263e-03  -1.146074e-02  0 
 2.890953e-03  -1.172804e-02  0 
 2.897821e-03  -1.199331e-02  0 
 2.902939e-03  -1.225767e-02  0 
 2.906861e-03  -1.252172e-02  0 
 2.909774e-03  -1.278555e-02  0 
 2.911806e-03  -1.304920e-02  0 
 2.913328e-03  -1.331283e-02  0 
 8.121451e-04  -1.357595e-02  0 
 1.075707e-03  -1.357341e-02  0 
 1.338527e-03  -1.357142e-02  0 
 1.600892e-03  -1.357021e-02  0 
 1.863029e-03  -1.356994e-02  0 
 2.125166e-03  -1.357065e-02  0 
 2.387554e-03  -1.357224e-02  0 
 2.650484e-03  -1.357450e-02  0 
 8.442959e-04  -1.144993e-02  0 
 1.096238e-03  -1.145870e-02  0 
 1.350331e-03  -1.146436e-02  0 
 1.605312e-03  -1.146750e-02  0 
 1.860430e-03  -1.146868e-02  0 
 2.115027e-03  -1.146794e-02  0 
 2.368313e-03  -1.146482e-02  0 
 2.618762e-03  -1.145858e-02  0 
 8.341281e-04  -1.172051e-02  0 
 1.094255e-03  -1.172053e-02  0 
 1.349989e-03  -1.172358e-02  0 
 1.605357e-03  -1.172585e-02  0 
 1.860598e-03  -1.172671e-02  0 
 2.115535e-03  -1.172612e-02  0 
 2.370241e-03  -1.172454e-02  0 
 2.628060e-03  -1.172523e-02  0 
 8.269642e-04  -1.198790e-02  0 
 1.089064e-03  -1.198617e-02  0 
 1.347955e-03  -1.198595e-02  0 
 1.604793e-03  -1.198669e-02  0 
 1.861010e-03  -1.198722e-02  0 
 2.117304e-03  -1.198744e-02  0 
 2.374939e-03  -1.198831e-02  0 
 2.635084e-03  -1.199045e-02  0 
 8.219235e-04  -1.225373e-02  0 
 1.084491e-03  -1.225163e-02  0 
 1.345007e-03  -1.225025e-02  0 
 1.603756e-03  -1.224978e-02  0 
 1.861635e-03  -1.225003e-02  0 
 2.119801e-03  -1.225093e-02  0 
 2.379191e-03  -1.225262e-02  0 
 2.640251e-03  -1.225501e-02  0 
 8.182989e-04  -1.251872e-02  0 
 1.081058e-03  -1.251668e-02  0 
 1.342472e-03  -1.251508e-02  0 
 1.602680e-03  -1.251422e-02  0 
 1.862233e-03  -1.251428e-02  0 
 2.121935e-03  -1.251526e-02  0 
 2.382441e-03  -1.251701e-02  0 