# vtk DataFile Version 3.1
this is an vtk file created by FEMAC
ASCII
DATASET UNSTRUCTURED_GRID
POINTS 12 FLOAT
7.500000 0.000000 0.000000
8.000000 0.000000 0.000000
7.500000 0.200000 0.000000
7.500000 0.400000 0.000000
7.500000 0.600000 0.000000
7.500000 0.800000 0.000000
7.500000 1.000000 0.000000
8.000000 0.200000 0.000000
8.000000 0.400000 0.000000
8.000000 0.600000 0.000000
8.000000 0.800000 0.000000
8.000000 1.000000 0.000000
CELLS 5 25 
4 0 1 7 2
4 2 7 8 3
4 3 8 9 4
4 4  9 10  5
4 5 10 11  6
CELL_TYPES 5
9 9 9 9 9 
POINT_DATA 12
VECTORS displacement_ITER1 FLOAT
 -5.668126e-03  -6.029942e-02  0 
 -5.674509e-03  -6.599419e-02  0 
 -3.394786e-03  -6.029946e-02  0 
 -1.118047e-03  -6.029850e-02  0 
 1.160278e-03  -6.029850e-02  0 
 3.437017e-03  -6.029946e-02  0 
 5.710357e-03  -6.029942e-02  0 
 -3.395566e-03  -6.599368e-02  0 
 -1.117217e-03  -6.599411e-02  0 
 1.159448e-03  -6.599411e-02  0 
 3.437797e-03  -6.599368e-02  0 
 5.716740e-03  -6.599419e-02  0 
VECTORS displacement_ITER2 FLOAT
 -5.331875e-03  -5.809939e-02  0 
 -5.334223e-03  -6.344896e-02  0 
 -3.192456e-03  -5.809656e-02  0 
 -1.053053e-03  -5.809606e-02  0 
 1.088534e-03  -5.809606e-02  0 
 3.227937e-03  -5.809656e-02  0 
 5.367356e-03  -5.809939e-02  0 
 -3.193795e-03  -6.344905e-02  0 
 -1.052027e-03  -6.344921e-02  0 
 1.087508e-03  -6.344921e-02  0 
 3.229276e-03  -6.344905e-02  0 
 5.369704e-03  -6.344896e-02  0 
VECTORS displacement_ITER3 FLOAT
 -5.325220e-03  -5.800815e-02  0 
 -5.326491e-03  -6.334818e-02  0 
 -3.189573e-03  -5.800825e-02  0 
 -1.055784e-03  -5.800760e-02  0 
 1.080073e-03  -5.800760e-02  0 
 3.213861e-03  -5.800825e-02  0 
 5.349509e-03  -5.800815e-02  0 
 -3.191065e-03  -6.334679e-02  0 
 -1.054804e-03  -6.334700e-02  0 
 1.079093e-03  -6.334700e-02  0 
 3.215353e-03  -6.334679e-02  0 
 5.350779e-03  -6.334818e-02  0 
VECTORS displacement_ITER4 FLOAT
 -5.324075e-03  -5.799603e-02  0 
 -5.325497e-03  -6.333463e-02  0 
 -3.189123e-03  -5.799613e-02  0 
 -1.055905e-03  -5.799547e-02  0 
 1.079583e-03  -5.799547e-02  0 
 3.212801e-03  -5.799613e-02  0 
 5.347753e-03  -5.799603e-02  0 
 -3.190591e-03  -6.333328e-02  0 
 -1.054870e-03  -6.333349e-02  0 
 1.078548e-03  -6.333349e-02  0 
 3.214270e-03  -6.333328e-02  0 
 5.349175e-03  -6.333463e-02  0 
VECTORS displacement_ITER5 FLOAT
 -5.324989e-03  -5.799696e-02  0 
 -5.326411e-03  -6.333586e-02  0 
 -3.189921e-03  -5.799706e-02  0 
 -1.056587e-03  -5.799640e-02  0 
 1.079017e-03  -5.799640e-02  0 
 3.212351e-03  -5.799706e-02  0 
 5.347419e-03  -5.799696e-02  0 
 -3.191389e-03  -6.333450e-02  0 
 -1.055552e-03  -6.333471e-02  0 
 1.077982e-03  -6.333471e-02  0 
 3.213820e-03  -6.333450e-02  0 
 5.348841e-03  -6.333586e-02  0 
VECTORS displacement_ITER6 FLOAT
 -5.325311e-03  -5.799715e-02  0 
 -5.326733e-03  -6.333607e-02  0 
 -3.190233e-03  -5.799725e-02  0 
 -1.056888e-03  -5.799659e-02  0 
 1.078727e-03  -5.799659e-02  0 
 3.212072e-03  -5.799725e-02  0 
 5.347151e-03  -5.799715e-02  0 
 -3.191701e-03  -6.333472e-02  0 
 -1.055853e-03  -6.333493e-02  0 
 1.077692e-03  -6.333493e-02  0 
 3.213540e-03  -6.333472e-02  0 
 5.348573e-03  -6.333607e-02  0 
VECTORS displacement_ITER7 FLOAT
 -5.325220e-03  -5.799717e-02  0 
 -5.326642e-03  -6.333610e-02  0 
 -3.190140e-03  -5.799727e-02  0 
 -1.056793e-03  -5.799661e-02  0 
 1.078823e-03  -5.799661e-02  0 
 3.212170e-03  -5.799727e-02  0 
 5.347250e-03  -5.799717e-02  0 
 -3.191608e-03  -6.333474e-02  0 
 -1.055758e-03  -6.333495e-02  0 
 1.077788e-03  -6.333495e-02  0 
 3.213638e-03  -6.333474e-02  0 
 5.348672e-03  -6.333610e-02  0 
VECTORS displacement_ITER8 FLOAT
 -5.325243e-03  -5.799717e-02  0 
 -5.326665e-03  -6.333609e-02  0 
 -3.190162e-03  -5.799726e-02  0 
 -1.056816e-03  -5.799660e-02  0 
 1.078800e-03  -5.799660e-02  0 
 3.212146e-03  -5.799726e-02  0 
 5.347226e-03  -5.799717e-02  0 
 -3.191631e-03  -6.333474e-02  0 
 -1.055781e-03  -6.333495e-02  0 
 1.077765e-03  -6.333495e-02  0 
 3.213615e-03  -6.333474e-02  0 
 5.348648e-03  -6.333609e-02  0 
VECTORS displacement_ITER9 FLOAT
 -5.325243e-03  -5.799717e-02  0 
 -5.326664e-03  -6.333609e-02  0 
 -3.190162e-03  -5.799726e-02  0 
 -1.056815e-03  -5.799660e-02  0 
 1.078801e-03  -5.799660e-02  0 
 3.212147e-03  -5.799726e-02  0 
 5.347226e-03  -5.799717e-02  0 
 -3.191630e-03  -6.333474e-02  0 
 -1.055780e-03  -6.333495e-02  0 
 1.077766e-03  -6.333495e-02  0 
 3.213615e-03  -6.333474e-02  0 
 5.348649e-03  -6.333609e-02  0 
VECTORS displacement_ITER10 FLOAT
 -9.842504e-01  4.669952e-01  0 
 -8.416479e-01  -1.237079e-01  0 
 -5.897518e-01  4.981039e-01  0 
 -3.479655e-01  4.819374e-01  0 
 -3.955309e-01  4.782749e-01  0 
 -1.590091e-01  4.908989e-01  0 
 2.068588e-01  4.736786e-01  0 
 -6.398941e-01  -8.644917e-02  0 
 -4.277229e-01  -6.918505e-02  0 
 -3.195472e-01  -6.103685e-02  0 
 -1.142353e-01  -7.546406e-02  0 
 8.574292e-02  -1.126933e-01  0 
VECTORS displacement_ITER11 FLOAT
 -45477256388949  2.546528e+13  0 
 -1.573806e+13  -2.823965e+12  0 
 -4.694067e+12  3.923358e+13  0 
 7.507314e+12  3.358554e+13  0 
 -8.117863e+12  3.524546e+13  0 
 5.159862e+12  4.051895e+13  0 
 3.996163e+13  3.233953e+13  0 
 -1.179999e+13  4.984408e+11  0 
 1.361225e+12  4.352739e+12  0 
 -8.593100e+11  4.040664e+12  0 
 1.274261e+13  4.981902e+11  0 
 2.289576e+13  -4.256776e+12  0 
VECTORS displacement_ITER12 FLOAT
 9.491066e+28  4.134519e+29  0 
 1.154014e+29  4.689964e+29  0 
 8.074913e+28  4.008943e+29  0 
 4.966078e+28  3.970368e+29  0 
 -4.595246e+26  3.890495e+29  0 
 -3.339788e+28  3.919807e+29  0 
 -4.466184e+28  4.014064e+29  0 
 7.933407e+28  4.774000e+29  0 
 4.616408e+28  4.794802e+29  0 
 2.387231e+27  4.797951e+29  0 
 -3.503734e+28  4.777465e+29  0 
 -8.104038e+28  4.701652e+29  0 
VECTORS displacement_ITER13 FLOAT
 1.203097e+43  1.525635e+44  0 
 4.371516e+42  1.182218e+44  0 
 1.312772e+43  1.388025e+44  0 
 1.138613e+43  1.341286e+44  0 
 -9.243231e+41  1.286157e+44  0 
 -5.574056e+42  1.333452e+44  0 
 -2.074019e+43  1.353421e+44  0 
 1.059343e+43  1.313164e+44  0 
 1.242170e+43  1.339227e+44  0 
 -2.109937e+38  1.366143e+44  0 
 -1.611099e+42  1.341006e+44  0 
 3.937209e+42  1.271291e+44  0 
VECTORS displacement_ITER14 FLOAT
 2.203351e+58  -2.176997e+59  0 
 5.269228e+58  -2.089276e+59  0 
 -5.060373e+58  -2.252911e+59  0 
 -2.587727e+58  -2.129053e+59  0 
 -6.333979e+58  -1.646455e+59  0 
 7.991708e+57  -1.823504e+59  0 
 -3.846593e+58  -1.430665e+59  0 
 -5.620687e+57  -2.227862e+59  0 
 -2.105248e+58  -2.308028e+59  0 
 -3.509855e+58  -2.793856e+59  0 
 -1.472212e+58  -2.725631e+59  0 
 2.506595e+58  -2.809522e+59  0 
VECTORS displacement_ITER15 FLOAT
 -3.511533e+74  -3.792191e+74  0 
 -2.763797e+74  -1.064796e+75  0 
 -1.259140e+74  -5.699396e+74  0 
 -3.310627e+73  -5.411639e+74  0 
 1.958623e+71  -6.365800e+74  0 
 -2.464650e+72  -6.329098e+74  0 
 -7.111040e+73  -5.129807e+74  0 
 -1.337971e+74  -8.942713e+74  0 
 1.440474e+73  -8.989493e+74  0 
 3.322826e+73  -8.187623e+74  0 
 1.387651e+74  -8.251855e+74  0 
 4.499596e+74  -9.698847e+74  0 
VECTORS displacement_ITER16 FLOAT
 -3.089933e+88  -2.879716e+90  0 
 7.953746e+89  -5.961931e+89  0 
 -5.070566e+89  -1.910290e+90  0 
 -7.866221e+89  -1.903771e+90  0 
 -4.881074e+89  -1.020047e+90  0 
 -7.536402e+89  -9.736674e+89  0 
 -4.848439e+89  -1.077169e+90  0 
 -2.727367e+89  -1.000694e+90  0 
 -6.854822e+89  -9.877815e+89  0 
 -8.933063e+89  -8.596343e+89  0 
 -8.803562e+89  -8.422684e+89  0 
 -1.639857e+90  -8.030399e+89  0 
VECTORS displacement_ITER17 FLOAT
 -3.089933e+88  -2.879716e+90  0 
 7.953746e+89  -5.961931e+89  0 
 -5.070566e+89  -1.910290e+90  0 
 -7.866221e+89  -1.903771e+90  0 
 -4.881074e+89  -1.020047e+90  0 
 -7.536402e+89  -9.736674e+89  0 
 -4.848439e+89  -1.077169e+90  0 
 -2.727367e+89  -1.000694e+90  0 
 -6.854822e+89  -9.877815e+89  0 
 -8.933063e+89  -8.596343e+89  0 
 -8.803562e+89  -8.422684e+89  0 
 -1.639857e+90  -8.030399e+89  0 
VECTORS displacement_ITER18 FLOAT
 -3.089933e+88  -2.879716e+90  0 
 7.953746e+89  -5.961931e+89  0 
 -5.070566e+89  -1.910290e+90  0 
 -7.866221e+89  -1.903771e+90  0 
 -4.881074e+89  -1.020047e+90  0 
 -7.536402e+89  -9.736674e+89  0 
 -4.848439e+89  -1.077169e+90  0 
 -2.727367e+89  -1.000694e+90  0 
 -6.854822e+89  -9.877815e+89  0 
 -8.933063e+89  -8.596343e+89  0 
 -8.803562e+89  -8.422684e+89  0 
 -1.639857e+90  -8.030399e+89  0 
VECTORS displacement_ITER19 FLOAT
 -3.089933e+88  -2.879716e+90  0 
 7.953746e+89  -5.961931e+89  0 
 -5.070566e+89  -1.910290e+90  0 
 -7.866221e+89  -1.903771e+90  0 
 -4.881074e+89  -1.020047e+90  0 
 -7.536402e+89  -9.736674e+89  0 
 -4.848439e+89  -1.077169e+90  0 
 -2.727367e+89  -1.000694e+90  0 
 -6.854822e+89  -9.877815e+89  0 
 -8.933063e+89  -8.596343e+89  0 
 -8.803562e+89  -8.422684e+89  0 
 -1.639857e+90  -8.030399e+89  0 
VECTORS displacement_ITER20 FLOAT
 -3.089933e+88  -2.879716e+90  0 
 7.953746e+89  -5.961931e+89  0 
 -5.070566e+89  -1.910290e+90  0 
 -7.866221e+89  -1.903771e+90  0 
 -4.881074e+89  -1.020047e+90  0 
 -7.536402e+89  -9.736674e+89  0 
 -4.848439e+89  -1.077169e+90  0 
 -2.727367e+89  -1.000694e+90  0 
 -6.854822e+89  -9.877815e+89  0 
 -8.933063e+89  -8.596343e+89  0 
 -8.803562e+89  -8.422684e+89  0 
 -1.639857e+90  -8.030399e+89  0 
VECTORS displacement_ITER21 FLOAT
 -3.089933e+88  -2.879716e+90  0 
 7.953746e+89  -5.961931e+89  0 
 -5.070566e+89  -1.910290e+90  0 
 -7.866221e+89  -1.903771e+90  0 
 -4.881074e+89  -1.020047e+90  0 
 -7.536402e+89  -9.736674e+89  0 
 -4.848439e+89  -1.077169e+90  0 
 -2.727367e+89  -1.000694e+90  0 
 -6.854822e+89  -9.877815e+89  0 
 -8.933063e+89  -8.596343e+89  0 
 -8.803562e+89  -8.422684e+89  0 
 -1.639857e+90  -8.030399e+89  0 
VECTORS displacement_ITER22 FLOAT
 -3.089933e+88  -2.879716e+90  0 
 7.953746e+89  -5.961931e+89  0 
 -5.070566e+89  -1.910290e+90  0 
 -7.866221e+89  -1.903771e+90  0 
 -4.881074e+89  -1.020047e+90  0 
 -7.536402e+89  -9.736674e+89  0 
 -4.848439e+89  -1.077169e+90  0 
 -2.727367e+89  -1.000694e+90  0 
 -6.854822e+89  -9.877815e+89  0 
 -8.933063e+89  -8.596343e+89  0 
 -8.803562e+89  -8.422684e+89  0 
 -1.639857e+90  -8.030399e+89  0 
VECTORS displacement_ITER23 FLOAT
 -3.089933e+88  -2.879716e+90  0 
 7.953746e+89  -5.961931e+89  0 
 -5.070566e+89  -1.910290e+90  0 
 -7.866221e+89  -1.903771e+90  0 
 -4.881074e+89  -1.020047e+90  0 
 -7.536402e+89  -9.736674e+89  0 
 -4.848439e+89  -1.077169e+90  0 
 -2.727367e+89  -1.000694e+90  0 
 -6.854822e+89  -9.877815e+89  0 
 -8.933063e+89  -8.596343e+89  0 
 -8.803562e+89  -8.422684e+89  0 
 -1.639857e+90  -8.030399e+89  0 
VECTORS displacement_ITER24 FLOAT
 -3.089933e+88  -2.879716e+90  0 
 7.953746e+89  -5.961931e+89  0 
 -5.070566e+89  -1.910290e+90  0 
 -7.866221e+89  -1.903771e+90  0 
 -4.881074e+89  -1.020047e+90  0 
 -7.536402e+89  -9.736674e+89  0 
 -4.848439e+89  -1.077169e+90  0 
 -2.727367e+89  -1.000694e+90  0 
 -6.854822e+89  -9.877815e+89  0 
 -8.933063e+89  -8.596343e+89  0 
 -8.803562e+89  -8.422684e+89  0 
 -1.639857e+90  -8.030399e+89  0 
VECTORS displacement_ITER25 FLOAT
 -3.089933e+88  -2.879716e+90  0 
 7.953746e+89  -5.961931e+89  0 
 -5.070566e+89  -1.910290e+90  0 
 -7.866221e+89  -1.903771e+90  0 
 -4.881074e+89  -1.020047e+90  0 
 -7.536402e+89  -9.736674e+89  0 
 -4.848439e+89  -1.077169e+90  0 
 -2.727367e+89  -1.000694e+90  0 
 -6.854822e+89  -9.877815e+89  0 
 -8.933063e+89  -8.596343e+89  0 
 -8.803562e+89  -8.422684e+89  0 
 -1.639857e+90  -8.030399e+89  0 
VECTORS displacement_ITER26 FLOAT
 -3.089933e+88  -2.879716e+90  0 
 7.953746e+89  -5.961931e+89  0 
 -5.070566e+89  -1.910290e+90  0 
 -7.866221e+89  -1.903771e+90  0 
 -4.881074e+89  -1.020047e+90  0 
 -7.536402e+89  -9.736674e+89  0 
 -4.848439e+89  -1.077169e+90  0 
 -2.727367e+89  -1.000694e+90  0 
 -6.854822e+89  -9.877815e+89  0 
 -8.933063e+89  -8.596343e+89  0 
 -8.803562e+89  -8.422684e+89  0 
 -1.639857e+90  -8.030399e+89  0 
VECTORS displacement_ITER27 FLOAT
 -3.089933e+88  -2.879716e+90  0 
 7.953746e+89  -5.961931e+89  0 
 -5.070566e+89  -1.910290e+90  0 
 -7.866221e+89  -1.903771e+90  0 
 -4.881074e+89  -1.020047e+90  0 
 -7.536402e+89  -9.736674e+89  0 
 -4.848439e+89  -1.077169e+90  0 
 -2.727367e+89  -1.000694e+90  0 
 -6.854822e+89  -9.877815e+89  0 
 -8.933063e+89  -8.596343e+89  0 
 -8.803562e+89  -8.422684e+89  0 
 -1.639857e+90  -8.030399e+89  0 
VECTORS displacement_ITER28 FLOAT
 -3.089933e+88  -2.879716e+90  0 
 7.953746e+89  -5.961931e+89  0 
 -5.070566e+89  -1.910290e+90  0 
 -7.866221e+89  -1.903771e+90  0 
 -4.881074e+89  -1.020047e+90  0 
 -7.536402e+89  -9.736674e+89  0 
 -4.848439e+89  -1.077169e+90  0 
 -2.727367e+89  -1.000694e+90  0 
 -6.854822e+89  -9.877815e+89  0 
 -8.933063e+89  -8.596343e+89  0 
 -8.803562e+89  -8.422684e+89  0 
 -1.639857e+90  -8.030399e+89  0 
VECTORS displacement_ITER29 FLOAT
 -3.089933e+88  -2.879716e+90  0 
 7.953746e+89  -5.961931e+89  0 
 -5.070566e+89  -1.910290e+90  0 
 -7.866221e+89  -1.903771e+90  0 
 -4.881074e+89  -1.020047e+90  0 
 -7.536402e+89  -9.736674e+89  0 
 -4.848439e+89  -1.077169e+90  0 
 -2.727367e+89  -1.000694e+90  0 
 -6.854822e+89  -9.877815e+89  0 
 -8.933063e+89  -8.596343e+89  0 
 -8.803562e+89  -8.422684e+89  0 
 -1.639857e+90  -8.030399e+89  0 
VECTORS displacement_ITER30 FLOAT
 -3.089933e+88  -2.879716e+90  0 
 7.953746e+89  -5.961931e+89  0 
 -5.070566e+89  -1.910290e+90  0 
 -7.866221e+89  -1.903771e+90  0 
 -4.881074e+89  -1.020047e+90  0 
 -7.536402e+89  -9.736674e+89  0 
 -4.848439e+89  -1.077169e+90  0 
 -2.727367e+89  -1.000694e+90  0 
 -6.854822e+89  -9.877815e+89  0 
 -8.933063e+89  -8.596343e+89  0 
 -8.803562e+89  -8.422684e+89  0 
 -1.639857e+90  -8.030399e+89  0 
VECTORS displacement_ITER31 FLOAT
 -3.089933e+88  -2.879716e+90  0 
 7.953746e+89  -5.961931e+89  0 
 -5.070566e+89  -1.910290e+90  0 
 -7.866221e+89  -1.903771e+90  0 
 -4.881074e+89  -1.020047e+90  0 
 -7.536402e+89  -9.736674e+89  0 
 -4.848439e+89  -1.077169e+90  0 
 -2.727367e+89  -1.000694e+90  0 
 -6.854822e+89  -9.877815e+89  0 
 -8.933063e+89  -8.596343e+89  0 
 -8.803562e+89  -8.422684e+89  0 
 -1.639857e+90  -8.030399e+89  0 
VECTORS displacement_ITER32 FLOAT
 -3.089933e+88  -2.879716e+90  0 
 7.953746e+89  -5.961931e+89  0 
 -5.070566e+89  -1.910290e+90  0 
 -7.866221e+89  -1.903771e+90  0 
 -4.881074e+89  -1.020047e+90  0 
 -7.536402e+89  -9.736674e+89  0 
 -4.848439e+89  -1.077169e+90  0 
 -2.727367e+89  -1.000694e+90  0 
 -6.854822e+89  -9.877815e+89  0 
 -8.933063e+89  -8.596343e+89  0 
 -8.803562e+89  -8.422684e+89  0 
 -1.639857e+90  -8.030399e+89  0 
VECTORS displacement_ITER33 FLOAT
 -3.089933e+88  -2.879716e+90  0 
 7.953746e+89  -5.961931e+89  0 
 -5.070566e+89  -1.910290e+90  0 
 -7.866221e+89  -1.903771e+90  0 
 -4.881074e+89  -1.020047e+90  0 
 -7.536402e+89  -9.736674e+89  0 
 -4.848439e+89  -1.077169e+90  0 
 -2.727367e+89  -1.000694e+90  0 
 -6.854822e+89  -9.877815e+89  0 
 -8.933063e+89  -8.596343e+89  0 
 -8.803562e+89  -8.422684e+89  0 
 -1.639857e+90  -8.030399e+89  0 
VECTORS displacement_ITER34 FLOAT
 -3.089933e+88  -2.879716e+90  0 
 7.953746e+89  -5.961931e+89  0 
 -5.070566e+89  -1.910290e+90  0 
 -7.866221e+89  -1.903771e+90  0 
 -4.881074e+89  -1.020047e+90  0 
 -7.536402e+89  -9.736674e+89  0 
 -4.848439e+89  -1.077169e+90  0 
 -2.727367e+89  -1.000694e+90  0 
 -6.854822e+89  -9.877815e+89  0 
 -8.933063e+89  -8.596343e+89  0 
 -8.803562e+89  -8.422684e+89  0 
 -1.639857e+90  -8.030399e+89  0 
VECTORS displacement_ITER35 FLOAT
 -3.089933e+88  -2.879716e+90  0 
 7.953746e+89  -5.961931e+89  0 
 -5.070566e+89  -1.910290e+90  0 
 -7.866221e+89  -1.903771e+90  0 
 -4.881074e+89  -1.020047e+90  0 
 -7.536402e+89  -9.736674e+89  0 
 -4.848439e+89  -1.077169e+90  0 
 -2.727367e+89  -1.000694e+90  0 
 -6.854822e+89  -9.877815e+89  0 
 -8.933063e+89  -8.596343e+89  0 
 -8.803562e+89  -8.422684e+89  0 
 -1.639857e+90  -8.030399e+89  0 
VECTORS displacement_ITER36 FLOAT
 -3.089933e+88  -2.879716e+90  0 
 7.953746e+89  -5.961931e+89  0 
 -5.070566e+89  -1.910290e+90  0 
 -7.866221e+89  -1.903771e+90  0 
 -4.881074e+89  -1.020047e+90  0 
 -7.536402e+89  -9.736674e+89  0 
 -4.848439e+89  -1.077169e+90  0 
 -2.727367e+89  -1.000694e+90  0 
 -6.854822e+89  -9.877815e+89  0 
 -8.933063e+89  -8.596343e+89  0 
 -8.803562e+89  -8.422684e+89  0 
 -1.639857e+90  -8.030399e+89  0 
VECTORS displacement_ITER37 FLOAT
 -3.089933e+88  -2.879716e+90  0 
 7.953746e+89  -5.961931e+89  0 
 -5.070566e+89  -1.910290e+90  0 
 -7.866221e+89  -1.903771e+90  0 
 -4.881074e+89  -1.020047e+90  0 
 -7.536402e+89  -9.736674e+89  0 
 -4.848439e+89  -1.077169e+90  0 
 -2.727367e+89  -1.000694e+90  0 
 -6.854822e+89  -9.877815e+89  0 
 -8.933063e+89  -8.596343e+89  0 
 -8.803562e+89  -8.422684e+89  0 
 -1.639857e+90  -8.030399e+89  0 
VECTORS displacement_ITER38 FLOAT
 -3.089933e+88  -2.879716e+90  0 
 7.953746e+89  -5.961931e+89  0 
 -5.070566e+89  -1.910290e+90  0 
 -7.866221e+89  -1.903771e+90  0 
 -4.881074e+89  -1.020047e+90  0 
 -7.536402e+89  -9.736674e+89  0 
 -4.848439e+89  -1.077169e+90  0 
 -2.727367e+89  -1.000694e+90  0 
 -6.854822e+89  -9.877815e+89  0 
 -8.933063e+89  -8.596343e+89  0 
 -8.803562e+89  -8.422684e+89  0 
 -1.639857e+90  -8.030399e+89  0 
VECTORS displacement_ITER39 FLOAT
 -3.089933e+88  -2.879716e+90  0 
 7.953746e+89  -5.961931e+89  0 
 -5.070566e+89  -1.910290e+90  0 
 -7.866221e+89  -1.903771e+90  0 
 -4.881074e+89  -1.020047e+90  0 
 -7.536402e+89  -9.736674e+89  0 
 -4.848439e+89  -1.077169e+90  0 
 -2.727367e+89  -1.000694e+90  0 
 -6.854822e+89  -9.877815e+89  0 
 -8.933063e+89  -8.596343e+89  0 
 -8.803562e+89  -8.422684e+89  0 
 -1.639857e+90  -8.030399e+89  0 
VECTORS displacement_ITER40 FLOAT
 -3.089933e+88  -2.879716e+90  0 
 7.953746e+89  -5.961931e+89  0 
 -5.070566e+89  -1.910290e+90  0 
 -7.866221e+89  -1.903771e+90  0 
 -4.881074e+89  -1.020047e+90  0 
 -7.536402e+89  -9.736674e+89  0 
 -4.848439e+89  -1.077169e+90  0 
 -2.727367e+89  -1.000694e+90  0 
 -6.854822e+89  -9.877815e+89  0 
 -8.933063e+89  -8.596343e+89  0 
 -8.803562e+89  -8.422684e+89  0 
 -1.639857e+90  -8.030399e+89  0 
VECTORS displacement_ITER41 FLOAT
 -3.089933e+88  -2.879716e+90  0 
 7.953746e+89  -5.961931e+89  0 
 -5.070566e+89  -1.910290e+90  0 
 -7.866221e+89  -1.903771e+90  0 
 -4.881074e+89  -1.020047e+90  0 
 -7.536402e+89  -9.736674e+89  0 
 -4.848439e+89  -1.077169e+90  0 
 -2.727367e+89  -1.000694e+90  0 
 -6.854822e+89  -9.877815e+89  0 
 -8.933063e+89  -8.596343e+89  0 
 -8.803562e+89  -8.422684e+89  0 
 -1.639857e+90  -8.030399e+89  0 
VECTORS displacement_ITER42 FLOAT
 -3.089933e+88  -2.879716e+90  0 
 7.953746e+89  -5.961931e+89  0 
 -5.070566e+89  -1.910290e+90  0 
 -7.866221e+89  -1.903771e+90  0 
 -4.881074e+89  -1.020047e+90  0 
 -7.536402e+89  -9.736674e+89  0 
 -4.848439e+89  -1.077169e+90  0 
 -2.727367e+89  -1.000694e+90  0 
 -6.854822e+89  -9.877815e+89  0 
 -8.933063e+89  -8.596343e+89  0 
 -8.803562e+89  -8.422684e+89  0 
 -1.639857e+90  -8.030399e+89  0 
VECTORS displacement_ITER43 FLOAT
 -3.089933e+88  -2.879716e+90  0 
 7.953746e+89  -5.961931e+89  0 
 -5.070566e+89  -1.910290e+90  0 
 -7.866221e+89  -1.903771e+90  0 
 -4.881074e+89  -1.020047e+90  0 
 -7.536402e+89  -9.736674e+89  0 
 -4.848439e+89  -1.077169e+90  0 
 -2.727367e+89  -1.000694e+90  0 
 -6.854822e+89  -9.877815e+89  0 
 -8.933063e+89  -8.596343e+89  0 
 -8.803562e+89  -8.422684e+89  0 
 -1.639857e+90  -8.030399e+89  0 
VECTORS displacement_ITER44 FLOAT
 -3.089933e+88  -2.879716e+90  0 
 7.953746e+89  -5.961931e+89  0 
 -5.070566e+89  -1.910290e+90  0 
 -7.866221e+89  -1.903771e+90  0 
 -4.881074e+89  -1.020047e+90  0 
 -7.536402e+89  -9.736674e+89  0 
 -4.848439e+89  -1.077169e+90  0 
 -2.727367e+89  -1.000694e+90  0 
 -6.854822e+89  -9.877815e+89  0 
 -8.933063e+89  -8.596343e+89  0 
 -8.803562e+89  -8.422684e+89  0 
 -1.639857e+90  -8.030399e+89  0 
VECTORS displacement_ITER45 FLOAT
 -3.089933e+88  -2.879716e+90  0 
 7.953746e+89  -5.961931e+89  0 
 -5.070566e+89  -1.910290e+90  0 
 -7.866221e+89  -1.903771e+90  0 
 -4.881074e+89  -1.020047e+90  0 
 -7.536402e+89  -9.736674e+89  0 
 -4.848439e+89  -1.077169e+90  0 
 -2.727367e+89  -1.000694e+90  0 
 -6.854822e+89  -9.877815e+89  0 
 -8.933063e+89  -8.596343e+89  0 
 -8.803562e+89  -8.422684e+89  0 
 -1.639857e+90  -8.030399e+89  0 
VECTORS displacement_ITER46 FLOAT
 -3.089933e+88  -2.879716e+90  0 
 7.953746e+89  -5.961931e+89  0 
 -5.070566e+89  -1.910290e+90  0 
 -7.866221e+89  -1.903771e+90  0 
 -4.881074e+89  -1.020047e+90  0 
 -7.536402e+89  -9.736674e+89  0 
 -4.848439e+89  -1.077169e+90  0 
 -2.727367e+89  -1.000694e+90  0 
 -6.854822e+89  -9.877815e+89  0 
 -8.933063e+89  -8.596343e+89  0 
 -8.803562e+89  -8.422684e+89  0 
 -1.639857e+90  -8.030399e+89  0 
VECTORS displacement_ITER47 FLOAT
 -3.089933e+88  -2.879716e+90  0 
 7.953746e+89  -5.961931e+89  0 
 -5.070566e+89  -1.910290e+90  0 
 -7.866221e+89  -1.903771e+90  0 
 -4.881074e+89  -1.020047e+90  0 
 -7.536402e+89  -9.736674e+89  0 
 -4.848439e+89  -1.077169e+90  0 
 -2.727367e+89  -1.000694e+90  0 
 -6.854822e+89  -9.877815e+89  0 
 -8.933063e+89  -8.596343e+89  0 
 -8.803562e+89  -8.422684e+89  0 
 -1.639857e+90  -8.030399e+89  0 
VECTORS displacement_ITER48 FLOAT
 -3.089933e+88  -2.879716e+90  0 
 7.953746e+89  -5.961931e+89  0 
 -5.070566e+89  -1.910290e+90  0 
 -7.866221e+89  -1.903771e+90  0 
 -4.881074e+89  -1.020047e+90  0 
 -7.536402e+89  -9.736674e+89  0 
 -4.848439e+89  -1.077169e+90  0 
 -2.727367e+89  -1.000694e+90  0 
 -6.854822e+89  -9.877815e+89  0 
 -8.933063e+89  -8.596343e+89  0 
 -8.803562e+89  -8.422684e+89  0 
 -1.639857e+90  -8.030399e+89  0 
VECTORS displacement_ITER49 FLOAT
 -3.089933e+88  -2.879716e+90  0 
 7.953746e+89  -5.961931e+89  0 
 -5.070566e+89  -1.910290e+90  0 
 -7.866221e+89  -1.903771e+90  0 
 -4.881074e+89  -1.020047e+90  0 
 -7.536402e+89  -9.736674e+89  0 
 -4.848439e+89  -1.077169e+90  0 
 -2.727367e+89  -1.000694e+90  0 
 -6.854822e+89  -9.877815e+89  0 
 -8.933063e+89  -8.596343e+89  0 
 -8.803562e+89  -8.422684e+89  0 
 -1.639857e+90  -8.030399e+89  0 
VECTORS displacement_ITER50 FLOAT
 -3.089933e+88  -2.879716e+90  0 
 7.953746e+89  -5.961931e+89  0 
 -5.070566e+89  -1.910290e+90  0 
 -7.866221e+89  -1.903771e+90  0 
 -4.881074e+89  -1.020047e+90  0 
 -7.536402e+89  -9.736674e+89  0 
 -4.848439e+89  -1.077169e+90  0 
 -2.727367e+89  -1.000694e+90  0 
 -6.854822e+89  -9.877815e+89  0 
 -8.933063e+89  -8.596343e+89  0 
 -8.803562e+89  -8.422684e+89  0 
 -1.639857e+90  -8.030399e+89  0 
VECTORS displacement_ITER51 FLOAT
 -3.089933e+88  -2.879716e+90  0 
 7.953746e+89  -5.961931e+89  0 
 -5.070566e+89  -1.910290e+90  0 
 -7.866221e+89  -1.903771e+90  0 
 -4.881074e+89  -1.020047e+90  0 
 -7.536402e+89  -9.736674e+89  0 
 -4.848439e+89  -1.077169e+90  0 
 -2.727367e+89  -1.000694e+90  0 
 -6.854822e+89  -9.877815e+89  0 
 -8.933063e+89  -8.596343e+89  0 
 -8.803562e+89  -8.422684e+89  0 
 -1.639857e+90  -8.030399e+89  0 
VECTORS displacement_ITER52 FLOAT
 -3.089933e+88  -2.879716e+90  0 
 7.953746e+89  -5.961931e+89  0 
 -5.070566e+89  -1.910290e+90  0 
 -7.866221e+89  -1.903771e+90  0 
 -4.881074e+89  -1.020047e+90  0 
 -7.536402e+89  -9.736674e+89  0 
 -4.848439e+89  -1.077169e+90  0 
 -2.727367e+89  -1.000694e+90  0 
 -6.854822e+89  -9.877815e+89  0 
 -8.933063e+89  -8.596343e+89  0 
 -8.803562e+89  -8.422684e+89  0 
 -1.639857e+90  -8.030399e+89  0 
VECTORS displacement_ITER53 FLOAT
 -3.089933e+88  -2.879716e+90  0 
 7.953746e+89  -5.961931e+89  0 
 -5.070566e+89  -1.910290e+90  0 
 -7.866221e+89  -1.903771e+90  0 
 -4.881074e+89  -1.020047e+90  0 
 -7.536402e+89  -9.736674e+89  0 
 -4.848439e+89  -1.077169e+90  0 
 -2.727367e+89  -1.000694e+90  0 
 -6.854822e+89  -9.877815e+89  0 
 -8.933063e+89  -8.596343e+89  0 
 -8.803562e+89  -8.422684e+89  0 
 -1.639857e+90  -8.030399e+89  0 
VECTORS displacement_ITER54 FLOAT
 -3.089933e+88  -2.879716e+90  0 
 7.953746e+89  -5.961931e+89  0 
 -5.070566e+89  -1.910290e+90  0 
 -7.866221e+89  -1.903771e+90  0 
 -4.881074e+89  -1.020047e+90  0 
 -7.536402e+89  -9.736674e+89  0 
 -4.848439e+89  -1.077169e+90  0 
 -2.727367e+89  -1.000694e+90  0 
 -6.854822e+89  -9.877815e+89  0 
 -8.933063e+89  -8.596343e+89  0 
 -8.803562e+89  -8.422684e+89  0 
 -1.639857e+90  -8.030399e+89  0 
VECTORS displacement_ITER55 FLOAT
 -3.089933e+88  -2.879716e+90  0 
 7.953746e+89  -5.961931e+89  0 
 -5.070566e+89  -1.910290e+90  0 
 -7.866221e+89  -1.903771e+90  0 
 -4.881074e+89  -1.020047e+90  0 
 -7.536402e+89  -9.736674e+89  0 
 -4.848439e+89  -1.077169e+90  0 
 -2.727367e+89  -1.000694e+90  0 
 -6.854822e+89  -9.877815e+89  0 
 -8.933063e+89  -8.596343e+89  0 
 -8.803562e+89  -8.422684e+89  0 
 -1.639857e+90  -8.030399e+89  0 
VECTORS displacement_ITER56 FLOAT
 -3.089933e+88  -2.879716e+90  0 
 7.953746e+89  -5.961931e+89  0 
 -5.070566e+89  -1.910290e+90  0 
 -7.866221e+89  -1.903771e+90  0 
 -4.881074e+89  -1.020047e+90  0 
 -7.536402e+89  -9.736674e+89  0 
 -4.848439e+89  -1.077169e+90  0 
 -2.727367e+89  -1.000694e+90  0 
 -6.854822e+89  -9.877815e+89  0 
 -8.933063e+89  -8.596343e+89  0 
 -8.803562e+89  -8.422684e+89  0 
 -1.639857e+90  -8.030399e+89  0 
VECTORS displacement_ITER57 FLOAT
 -3.089933e+88  -2.879716e+90  0 
 7.953746e+89  -5.961931e+89  0 
 -5.070566e+89  -1.910290e+90  0 
 -7.866221e+89  -1.903771e+90  0 
 -4.881074e+89  -1.020047e+90  0 
 -7.536402e+89  -9.736674e+89  0 
 -4.848439e+89  -1.077169e+90  0 
 -2.727367e+89  -1.000694e+90  0 
 -6.854822e+89  -9.877815e+89  0 
 -8.933063e+89  -8.596343e+89  0 
 -8.803562e+89  -8.422684e+89  0 
 -1.639857e+90  -8.030399e+89  0 
VECTORS displacement_ITER58 FLOAT
 -3.089933e+88  -2.879716e+90  0 
 7.953746e+89  -5.961931e+89  0 
 -5.070566e+89  -1.910290e+90  0 
 -7.866221e+89  -1.903771e+90  0 
 -4.881074e+89  -1.020047e+90  0 
 -7.536402e+89  -9.736674e+89  0 
 -4.848439e+89  -1.077169e+90  0 
 -2.727367e+89  -1.000694e+90  0 
 -6.854822e+89  -9.877815e+89  0 
 -8.933063e+89  -8.596343e+89  0 
 -8.803562e+89  -8.422684e+89  0 
 -1.639857e+90  -8.030399e+89  0 
VECTORS displacement_ITER59 FLOAT
 -3.089933e+88  -2.879716e+90  0 
 7.953746e+89  -5.961931e+89  0 
 -5.070566e+89  -1.910290e+90  0 
 -7.866221e+89  -1.903771e+90  0 
 -4.881074e+89  -1.020047e+90  0 
 -7.536402e+89  -9.736674e+89  0 
 -4.848439e+89  -1.077169e+90  0 
 -2.727367e+89  -1.000694e+90  0 
 -6.854822e+89  -9.877815e+89  0 
 -8.933063e+89  -8.596343e+89  0 
 -8.803562e+89  -8.422684e+89  0 
 -1.639857e+90  -8.030399e+89  0 
VECTORS displacement_ITER60 FLOAT
 -3.089933e+88  -2.879716e+90  0 
 7.953746e+89  -5.961931e+89  0 
 -5.070566e+89  -1.910290e+90  0 
 -7.866221e+89  -1.903771e+90  0 
 -4.881074e+89  -1.020047e+90  0 
 -7.536402e+89  -9.736674e+89  0 
 -4.848439e+89  -1.077169e+90  0 
 -2.727367e+89  -1.000694e+90  0 
 -6.854822e+89  -9.877815e+89  0 
 -8.933063e+89  -8.596343e+89  0 
 -8.803562e+89  -8.422684e+89  0 
 -1.639857e+90  -8.030399e+89  0 
VECTORS displacement_ITER61 FLOAT
 -3.089933e+88  -2.879716e+90  0 
 7.953746e+89  -5.961931e+89  0 
 -5.070566e+89  -1.910290e+90  0 
 -7.866221e+89  -1.903771e+90  0 
 -4.881074e+89  -1.020047e+90  0 
 -7.536402e+89  -9.736674e+89  0 
 -4.848439e+89  -1.077169e+90  0 
 -2.727367e+89  -1.000694e+90  0 
 -6.854822e+89  -9.877815e+89  0 
 -8.933063e+89  -8.596343e+89  0 
 -8.803562e+89  -8.422684e+89  0 
 -1.639857e+90  -8.030399e+89  0 
VECTORS displacement_ITER62 FLOAT
 -3.089933e+88  -2.879716e+90  0 
 7.953746e+89  -5.961931e+89  0 
 -5.070566e+89  -1.910290e+90  0 
 -7.866221e+89  -1.903771e+90  0 
 -4.881074e+89  -1.020047e+90  0 
 -7.536402e+89  -9.736674e+89  0 
 -4.848439e+89  -1.077169e+90  0 
 -2.727367e+89  -1.000694e+90  0 
 -6.854822e+89  -9.877815e+89  0 
 -8.933063e+89  -8.596343e+89  0 
 -8.803562e+89  -8.422684e+89  0 
 -1.639857e+90  -8.030399e+89  0 
VECTORS displacement_ITER63 FLOAT
 -3.089933e+88  -2.879716e+90  0 
 7.953746e+89  -5.961931e+89  0 
 -5.070566e+89  -1.910290e+90  0 
 -7.866221e+89  -1.903771e+90  0 
 -4.881074e+89  -1.020047e+90  0 
 -7.536402e+89  -9.736674e+89  0 
 -4.848439e+89  -1.077169e+90  0 
 -2.727367e+89  -1.000694e+90  0 
 -6.854822e+89  -9.877815e+89  0 
 -8.933063e+89  -8.596343e+89  0 
 -8.803562e+89  -8.422684e+89  0 
 -1.639857e+90  -8.030399e+89  0 
VECTORS displacement_ITER64 FLOAT
 -3.089933e+88  -2.879716e+90  0 
 7.953746e+89  -5.961931e+89  0 
 -5.070566e+89  -1.910290e+90  0 
 -7.866221e+89  -1.903771e+90  0 
 -4.881074e+89  -1.020047e+90  0 
 -7.536402e+89  -9.736674e+89  0 
 -4.848439e+89  -1.077169e+90  0 
 -2.727367e+89  -1.000694e+90  0 
 -6.854822e+89  -9.877815e+89  0 
 -8.933063e+89  -8.596343e+89  0 
 -8.803562e+89  -8.422684e+89  0 
 -1.639857e+90  -8.030399e+89  0 
VECTORS displacement_ITER65 FLOAT
 -3.089933e+88  -2.879716e+90  0 
 7.953746e+89  -5.961931e+89  0 
 -5.070566e+89  -1.910290e+90  0 
 -7.866221e+89  -1.903771e+90  0 
 -4.881074e+89  -1.020047e+90  0 
 -7.536402e+89  -9.736674e+89  0 
 -4.848439e+89  -1.077169e+90  0 
 -2.727367e+89  -1.000694e+90  0 
 -6.854822e+89  -9.877815e+89  0 
 -8.933063e+89  -8.596343e+89  0 
 -8.803562e+89  -8.422684e+89  0 
 -1.639857e+90  -8.030399e+89  0 
VECTORS displacement_ITER66 FLOAT
 -3.089933e+88  -2.879716e+90  0 
 7.953746e+89  -5.961931e+89  0 
 -5.070566e+89  -1.910290e+90  0 
 -7.866221e+89  -1.903771e+90  0 
 -4.881074e+89  -1.020047e+90  0 
 -7.536402e+89  -9.736674e+89  0 
 -4.848439e+89  -1.077169e+90  0 
 -2.727367e+89  -1.000694e+90  0 
 -6.854822e+89  -9.877815e+89  0 
 -8.933063e+89  -8.596343e+89  0 
 -8.803562e+89  -8.422684e+89  0 
 -1.639857e+90  -8.030399e+89  0 
VECTORS displacement_ITER67 FLOAT
 -3.089933e+88  -2.879716e+90  0 
 7.953746e+89  -5.961931e+89  0 
 -5.070566e+89  -1.910290e+90  0 
 -7.866221e+89  -1.903771e+90  0 
 -4.881074e+89  -1.020047e+90  0 
 -7.536402e+89  -9.736674e+89  0 
 -4.848439e+89  -1.077169e+90  0 
 -2.727367e+89  -1.000694e+90  0 
 -6.854822e+89  -9.877815e+89  0 
 -8.933063e+89  -8.596343e+89  0 
 -8.803562e+89  -8.422684e+89  0 
 -1.639857e+90  -8.030399e+89  0 