# vtk DataFile Version 3.1
this is an vtk file created by FEMAC
ASCII
DATASET UNSTRUCTURED_GRID
POINTS 102 FLOAT
0.000000 0.000000 0.000000
0.500000 0.000000 0.000000
1.000000 0.000000 0.000000
1.500000 0.000000 0.000000
2.000000 0.000000 0.000000
2.500000 0.000000 0.000000
3.000000 0.000000 0.000000
3.500000 0.000000 0.000000
4.000000 0.000000 0.000000
4.500000 0.000000 0.000000
5.000000 0.000000 0.000000
5.500000 0.000000 0.000000
6.000000 0.000000 0.000000
6.500000 0.000000 0.000000
7.000000 0.000000 0.000000
7.500000 0.000000 0.000000
8.000000 0.000000 0.000000
0.000000 0.200000 0.000000
0.500000 0.200000 0.000000
0.000000 0.400000 0.000000
0.500000 0.400000 0.000000
0.000000 0.600000 0.000000
0.500000 0.600000 0.000000
0.000000 0.800000 0.000000
0.500000 0.800000 0.000000
0.000000 1.000000 0.000000
0.500000 1.000000 0.000000
1.000000 0.200000 0.000000
1.000000 0.400000 0.000000
1.000000 0.600000 0.000000
1.000000 0.800000 0.000000
1.000000 1.000000 0.000000
1.500000 0.200000 0.000000
1.500000 0.400000 0.000000
1.500000 0.600000 0.000000
1.500000 0.800000 0.000000
1.500000 1.000000 0.000000
2.000000 0.200000 0.000000
2.000000 0.400000 0.000000
2.000000 0.600000 0.000000
2.000000 0.800000 0.000000
2.000000 1.000000 0.000000
2.500000 0.200000 0.000000
2.500000 0.400000 0.000000
2.500000 0.600000 0.000000
2.500000 0.800000 0.000000
2.500000 1.000000 0.000000
3.000000 0.200000 0.000000
3.000000 0.400000 0.000000
3.000000 0.600000 0.000000
3.000000 0.800000 0.000000
3.000000 1.000000 0.000000
3.500000 0.200000 0.000000
3.500000 0.400000 0.000000
3.500000 0.600000 0.000000
3.500000 0.800000 0.000000
3.500000 1.000000 0.000000
4.000000 0.200000 0.000000
4.000000 0.400000 0.000000
4.000000 0.600000 0.000000
4.000000 0.800000 0.000000
4.000000 1.000000 0.000000
4.500000 0.200000 0.000000
4.500000 0.400000 0.000000
4.500000 0.600000 0.000000
4.500000 0.800000 0.000000
4.500000 1.000000 0.000000
5.000000 0.200000 0.000000
5.000000 0.400000 0.000000
5.000000 0.600000 0.000000
5.000000 0.800000 0.000000
5.000000 1.000000 0.000000
5.500000 0.200000 0.000000
5.500000 0.400000 0.000000
5.500000 0.600000 0.000000
5.500000 0.800000 0.000000
5.500000 1.000000 0.000000
6.000000 0.200000 0.000000
6.000000 0.400000 0.000000
6.000000 0.600000 0.000000
6.000000 0.800000 0.000000
6.000000 1.000000 0.000000
6.500000 0.200000 0.000000
6.500000 0.400000 0.000000
6.500000 0.600000 0.000000
6.500000 0.800000 0.000000
6.500000 1.000000 0.000000
7.000000 0.200000 0.000000
7.000000 0.400000 0.000000
7.000000 0.600000 0.000000
7.000000 0.800000 0.000000
7.000000 1.000000 0.000000
7.500000 0.200000 0.000000
7.500000 0.400000 0.000000
7.500000 0.600000 0.000000
7.500000 0.800000 0.000000
7.500000 1.000000 0.000000
8.000000 0.200000 0.000000
8.000000 0.400000 0.000000
8.000000 0.600000 0.000000
8.000000 0.800000 0.000000
8.000000 1.000000 0.000000
CELLS 80 400 
4 0  1 18 17
4 17 18 20 19
4 19 20 22 21
4 21 22 24 23
4 23 24 26 25
4 1  2 27 18
4 18 27 28 20
4 20 28 29 22
4 22 29 30 24
4 24 30 31 26
4 2  3 32 27
4 27 32 33 28
4 28 33 34 29
4 29 34 35 30
4 30 35 36 31
4 3  4 37 32
4 32 37 38 33
4 33 38 39 34
4 34 39 40 35
4 35 40 41 36
4 4  5 42 37
4 37 42 43 38
4 38 43 44 39
4 39 44 45 40
4 40 45 46 41
4 5  6 47 42
4 42 47 48 43
4 43 48 49 44
4 44 49 50 45
4 45 50 51 46
4 6  7 52 47
4 47 52 53 48
4 48 53 54 49
4 49 54 55 50
4 50 55 56 51
4 7  8 57 52
4 52 57 58 53
4 53 58 59 54
4 54 59 60 55
4 55 60 61 56
4 8  9 62 57
4 57 62 63 58
4 58 63 64 59
4 59 64 65 60
4 60 65 66 61
4 9 10 67 62
4 62 67 68 63
4 63 68 69 64
4 64 69 70 65
4 65 70 71 66
4 10 11 72 67
4 67 72 73 68
4 68 73 74 69
4 69 74 75 70
4 70 75 76 71
4 11 12 77 72
4 72 77 78 73
4 73 78 79 74
4 74 79 80 75
4 75 80 81 76
4 12 13 82 77
4 77 82 83 78
4 78 83 84 79
4 79 84 85 80
4 80 85 86 81
4 13 14 87 82
4 82 87 88 83
4 83 88 89 84
4 84 89 90 85
4 85 90 91 86
4 14 15 92 87
4 87 92 93 88
4 88 93 94 89
4 89 94 95 90
4 90 95 96 91
4 15 16 97 92
4 92 97 98 93
4 93 98 99 94
4 94  99 100  95
4 95 100 101  96
CELL_TYPES 80
9 9 9 9 9 9 9 9 9 9 9 9 9 9 9 9 9 9 9 9 9 9 9 9 9 9 9 9 9 9 9 9 9 9 9 9 9 9 9 9 9 9 9 9 9 9 9 9 9 9 9 9 9 9 9 9 9 9 9 9 9 9 9 9 9 9 9 9 9 9 9 9 9 9 9 9 9 9 9 9 
POINT_DATA 102
SCALARS CONDID_1 FLOAT
LOOKUP_TABLE default
 1 
 0 
 0 
 0 
 0 
 0 
 0 
 0 
 0 
 0 
 0 
 0 
 0 
 0 
 0 
 0 
 0 
 0 
 0 
 0 
 0 
 0 
 0 
 0 
 0 
 0 
 0 
 0 
 0 
 0 
 0 
 0 
 0 
 0 
 0 
 0 
 0 
 0 
 0 
 0 
 0 
 0 
 0 
 0 
 0 
 0 
 0 
 0 
 0 
 0 
 0 
 0 
 0 
 0 
 0 
 0 
 0 
 0 
 0 
 0 
 0 
 0 
 0 
 0 
 0 
 0 
 0 
 0 
 0 
 0 
 0 
 0 
 0 
 0 
 0 
 0 
 0 
 0 
 0 
 0 
 0 
 0 
 0 
 0 
 0 
 0 
 0 
 0 
 0 
 0 
 0 
 0 
 0 
 0 
 0 
 0 
 0 
 0 
 0 
 0 
 0 
 0 
SCALARS CONDID_2 FLOAT
LOOKUP_TABLE default
 1 
 0 
 0 
 0 
 0 
 0 
 0 
 0 
 0 
 0 
 0 
 0 
 0 
 0 
 0 
 0 
 0 
 1 
 0 
 1 
 0 
 1 
 0 
 1 
 0 
 1 
 0 
 0 
 0 
 0 
 0 
 0 
 0 
 0 
 0 
 0 
 0 
 0 
 0 
 0 
 0 
 0 
 0 
 0 
 0 
 0 
 0 
 0 
 0 
 0 
 0 
 0 
 0 
 0 
 0 
 0 
 0 
 0 
 0 
 0 
 0 
 0 
 0 
 0 
 0 
 0 
 0 
 0 
 0 
 0 
 0 
 0 
 0 
 0 
 0 
 0 
 0 
 0 
 0 
 0 
 0 
 0 
 0 
 0 
 0 
 0 
 0 
 0 
 0 
 0 
 0 
 0 
 0 
 0 
 0 
 0 
 0 
 0 
 0 
 0 
 0 
 0 
SCALARS CONDID_3 FLOAT
LOOKUP_TABLE default
 1 
 1 
 1 
 1 
 1 
 1 
 1 
 1 
 1 
 1 
 1 
 1 
 1 
 1 
 1 
 1 
 1 
 1 
 1 
 1 
 1 
 1 
 1 
 1 
 1 
 1 
 1 
 1 
 1 
 1 
 1 
 1 
 1 
 1 
 1 
 1 
 1 
 1 
 1 
 1 
 1 
 1 
 1 
 1 
 1 
 1 
 1 
 1 
 1 
 1 
 1 
 1 
 1 
 1 
 1 
 1 
 1 
 1 
 1 
 1 
 1 
 1 
 1 
 1 
 1 
 1 
 1 
 1 
 1 
 1 
 1 
 1 
 1 
 1 
 1 
 1 
 1 
 1 
 1 
 1 
 1 
 1 
 1 
 1 
 1 
 1 
 1 
 1 
 1 
 1 
 1 
 1 
 1 
 1 
 1 
 1 
 1 
 1 
 1 
 1 
 1 
 1 
VECTORS displacement FLOAT
 0  0  0 
 -4.136931e-04  1.410035e-04  0 
 -2.886260e-03  -1.797933e-03  0 
 -3.105483e-03  -4.981775e-03  0 
 -4.826105e-03  -8.852617e-03  0 
 -4.990177e-03  -1.401039e-02  0 
 -6.169645e-03  -1.946718e-02  0 
 -6.282293e-03  -2.591766e-02  0 
 -7.045178e-03  -3.248210e-02  0 
 -7.115782e-03  -3.975038e-02  0 
 -7.554395e-03  -4.701811e-02  0 
 -7.592750e-03  -5.474100e-02  0 
 -7.794541e-03  -6.239999e-02  0 
 -7.810508e-03  -7.031385e-02  0 
 -7.864199e-03  -7.814601e-02  0 
 -7.867506e-03  -8.609020e-02  0 
 -7.843963e-03  -9.397958e-02  0 
 0  5.083532e-05  0 
 -6.395799e-04  1.895829e-04  0 
 0  4.312826e-04  0 
 -6.128113e-05  2.247627e-04  0 
 0  4.336460e-04  0 
 1.362912e-04  2.009947e-04  0 
 0  -3.638124e-04  0 
 7.150484e-04  1.240940e-04  0 
 0  -4.308695e-04  0 
 2.997435e-04  6.701653e-05  0 
 -1.411448e-03  -1.745314e-03  0 
 -5.103834e-04  -1.664537e-03  0 
 6.070581e-04  -1.667238e-03  0 
 1.483705e-03  -1.733374e-03  0 
 2.966195e-03  -1.786619e-03  0 
 -2.033967e-03  -4.931358e-03  0 
 -6.388087e-04  -4.866579e-03  0 
 7.246619e-04  -4.864886e-03  0 
 2.115683e-03  -4.930625e-03  0 
 3.188513e-03  -4.981836e-03  0 
 -2.615059e-03  -8.811588e-03  0 
 -9.392223e-04  -8.769124e-03  0 
 1.022231e-03  -8.768511e-03  0 
 2.699582e-03  -8.810006e-03  0 
 4.911077e-03  -8.851000e-03  0 
 -3.076547e-03  -1.397449e-02  0 
 -1.011662e-03  -1.392885e-02  0 
 1.095243e-03  -1.392913e-02  0 
 3.160375e-03  -1.397468e-02  0 
 5.074937e-03  -1.401051e-02  0 
 -3.488511e-03  -1.943837e-02  0 
 -1.213178e-03  -1.940966e-02  0 
 1.296967e-03  -1.940971e-02  0 
 3.572143e-03  -1.943851e-02  0 
 6.253237e-03  -1.946733e-02  0 
 -3.804433e-03  -2.589359e-02  0 
 -1.260117e-03  -2.586270e-02  0 
 1.343842e-03  -2.586268e-02  0 
 3.888132e-03  -2.589358e-02  0 
 6.365910e-03  -2.591765e-02  0 
 -4.074953e-03  -3.246357e-02  0 
 -1.388549e-03  -3.244590e-02  0 
 1.472253e-03  -3.244590e-02  0 
 4.158672e-03  -3.246356e-02  0 
 7.128900e-03  -3.248209e-02  0 
 -4.272501e-03  -3.973566e-02  0 
 -1.416978e-03  -3.971644e-02  0 
 1.500688e-03  -3.971644e-02  0 
 4.356214e-03  -3.973566e-02  0 
 7.199502e-03  -3.975038e-02  0 
 -4.431406e-03  -4.700760e-02  0 
 -1.488754e-03  -4.699842e-02  0 
 1.572466e-03  -4.699842e-02  0 
 4.515116e-03  -4.700760e-02  0 
 7.638106e-03  -4.701811e-02  0 
 -4.538247e-03  -5.473331e-02  0 
 -1.503475e-03  -5.472302e-02  0 
 1.587186e-03  -5.472302e-02  0 
 4.621958e-03  -5.473331e-02  0 
 7.676460e-03  -5.474100e-02  0 
 -4.615278e-03  -6.239519e-02  0 
 -1.533999e-03  -6.239181e-02  0 
 1.617710e-03  -6.239181e-02  0 
 4.698990e-03  -6.239519e-02  0 
 7.878252e-03  -6.239999e-02  0 
 -4.659217e-03  -7.031089e-02  0 
 -1.539519e-03  -7.030686e-02  0 
 1.623231e-03  -7.030686e-02  0 
 4.742928e-03  -7.031089e-02  0 
 7.894219e-03  -7.031385e-02  0 
 -4.684108e-03  -7.814459e-02  0 
 -1.544493e-03  -7.814421e-02  0 
 1.628204e-03  -7.814421e-02  0 
 4.767820e-03  -7.814459e-02  0 
 7.947910e-03  -7.814601e-02  0 
 -4.692473e-03  -8.608983e-02  0 
 -1.546172e-03  -8.608896e-02  0 
 1.629884e-03  -8.608896e-02  0 
 4.776184e-03  -8.608983e-02  0 
 7.951217e-03  -8.609020e-02  0 
 -4.695191e-03  -9.396459e-02  0 
 -1.543219e-03  -9.396496e-02  0 
 1.626931e-03  -9.396496e-02  0 
 4.778902e-03  -9.396459e-02  0 
 7.927674e-03  -9.397958e-02  0 
CELL_DATA 80
SCALARS MATID_1 FLOAT
LOOKUP_TABLE default
 1 
 0 
 1 
 0 
 1 
 0 
 1 
 0 
 1 
 0 
 1 
 0 
 1 
 0 
 1 
 0 
 1 
 0 
 1 
 0 
 1 
 0 
 1 
 0 
 1 
 0 
 1 
 0 
 1 
 0 
 1 
 0 
 1 
 0 
 1 
 0 
 1 
 0 
 1 
 0 
 1 
 0 
 1 
 0 
 1 
 0 
 1 
 0 
 1 
 0 
 1 
 0 
 1 
 0 
 1 
 0 
 1 
 0 
 1 
 0 
 1 
 0 
 1 
 0 
 1 
 0 
 1 
 0 
 1 
 0 
 1 
 0 
 1 
 0 
 1 
 0 
 1 
 0 
 1 
 0 
SCALARS MATID_2 FLOAT
LOOKUP_TABLE default
 0 
 1 
 0 
 1 
 0 
 1 
 0 
 1 
 0 
 1 
 0 
 1 
 0 
 1 
 0 
 1 
 0 
 1 
 0 
 1 
 0 
 1 
 0 
 1 
 0 
 1 
 0 
 1 
 0 
 1 
 0 
 1 
 0 
 1 
 0 
 1 
 0 
 1 
 0 
 1 
 0 
 1 
 0 
 1 
 0 
 1 
 0 
 1 
 0 
 1 
 0 
 1 
 0 
 1 
 0 
 1 
 0 
 1 
 0 
 1 
 0 
 1 
 0 
 1 
 0 
 1 
 0 
 1 
 0 
 1 
 0 
 1 
 0 
 1 
 0 
 1 
 0 
 1 
 0 
 1 
SCALARS SUB_ID FLOAT
LOOKUP_TABLE default
 1 
 1 
 1 
 1 
 1 
 2 
 2 
 2 
 2 
 2 
 3 
 3 
 3 
 3 
 3 
 4 
 4 
 4 
 4 
 4 
 5 
 5 
 5 
 5 
 5 
 6 
 6 
 6 
 6 
 6 
 7 
 7 
 7 
 7 
 7 
 8 
 8 
 8 
 8 
 8 
 9 
 9 
 9 
 9 
 9 
 10 
 10 
 10 
 10 
 10 
 11 
 11 
 11 
 11 
 11 
 12 
 12 
 12 
 12 
 12 
 13 
 13 
 13 
 13 
 13 
 14 
 14 
 14 
 14 
 14 
 15 
 15 
 15 
 15 
 15 
 16 
 16 
 16 
 16 
 16 
VECTORS SubCenter_Diff FLOAT
 -3.750000e+00  0  0 
 -3.750000e+00  0  0 
 -3.750000e+00  0  0 
 -3.750000e+00  0  0 
 -3.750000e+00  0  0 
 -3.250000e+00  0  0 
 -3.250000e+00  0  0 
 -3.250000e+00  0  0 
 -3.250000e+00  0  0 
 -3.250000e+00  0  0 
 -2.750000e+00  0  0 
 -2.750000e+00  0  0 
 -2.750000e+00  0  0 
 -2.750000e+00  0  0 
 -2.750000e+00  0  0 
 -2.250000e+00  0  0 
 -2.250000e+00  0  0 
 -2.250000e+00  0  0 
 -2.250000e+00  0  0 
 -2.250000e+00  0  0 
 -1.750000e+00  0  0 
 -1.750000e+00  0  0 
 -1.750000e+00  0  0 
 -1.750000e+00  0  0 
 -1.750000e+00  0  0 
 -1.250000e+00  0  0 
 -1.250000e+00  0  0 
 -1.250000e+00  0  0 
 -1.250000e+00  0  0 
 -1.250000e+00  0  0 
 -7.500000e-01  0  0 
 -7.500000e-01  0  0 
 -7.500000e-01  0  0 
 -7.500000e-01  0  0 
 -7.500000e-01  0  0 
 -2.500000e-01  0  0 
 -2.500000e-01  0  0 
 -2.500000e-01  0  0 
 -2.500000e-01  0  0 
 -2.500000e-01  0  0 
 2.500000e-01  0  0 
 2.500000e-01  0  0 
 2.500000e-01  0  0 
 2.500000e-01  0  0 
 2.500000e-01  0  0 
 7.500000e-01  0  0 
 7.500000e-01  0  0 
 7.500000e-01  0  0 
 7.500000e-01  0  0 
 7.500000e-01  0  0 
 1.250000e+00  0  0 
 1.250000e+00  0  0 
 1.250000e+00  0  0 
 1.250000e+00  0  0 
 1.250000e+00  0  0 
 1.750000e+00  0  0 
 1.750000e+00  0  0 
 1.750000e+00  0  0 
 1.750000e+00  0  0 
 1.750000e+00  0  0 
 2.250000e+00  0  0 
 2.250000e+00  0  0 
 2.250000e+00  0  0 
 2.250000e+00  0  0 
 2.250000e+00  0  0 
 2.750000e+00  0  0 
 2.750000e+00  0  0 
 2.750000e+00  0  0 
 2.750000e+00  0  0 
 2.750000e+00  0  0 
 3.250000e+00  0  0 
 3.250000e+00  0  0 
 3.250000e+00  0  0 
 3.250000e+00  0  0 
 3.250000e+00  0  0 
 3.750000e+00  0  0 
 3.750000e+00  0  0 
 3.750000e+00  0  0 
 3.750000e+00  0  0 
 3.750000e+00  0  0 
