# vtk DataFile Version 3.1
this is an vtk file created by FEMAC
ASCII
DATASET UNSTRUCTURED_GRID
POINTS 12 FLOAT
5.500000 0.000000 0.000000
6.000000 0.000000 0.000000
5.500000 0.200000 0.000000
5.500000 0.400000 0.000000
5.500000 0.600000 0.000000
5.500000 0.800000 0.000000
5.500000 1.000000 0.000000
6.000000 0.200000 0.000000
6.000000 0.400000 0.000000
6.000000 0.600000 0.000000
6.000000 0.800000 0.000000
6.000000 1.000000 0.000000
CELLS 5 25 
4 0 1 7 2
4 2 7 8 3
4 3 8 9 4
4 4  9 10  5
4 5 10 11  6
CELL_TYPES 5
9 9 9 9 9 
POINT_DATA 12
VECTORS displacement_ITER1 FLOAT
 -5.397346e-03  -3.781066e-02  0 
 -5.594734e-03  -4.329954e-02  0 
 -3.279338e-03  -3.778844e-02  0 
 -1.081021e-03  -3.778199e-02  0 
 1.123252e-03  -3.778199e-02  0 
 3.321569e-03  -3.778844e-02  0 
 5.439577e-03  -3.781066e-02  0 
 -3.322387e-03  -4.332123e-02  0 
 -1.099856e-03  -4.332622e-02  0 
 1.142087e-03  -4.332622e-02  0 
 3.364618e-03  -4.332123e-02  0 
 5.636965e-03  -4.329954e-02  0 
VECTORS displacement_ITER2 FLOAT
 -5.130893e-03  -3.688065e-02  0 
 -5.266885e-03  -4.210744e-02  0 
 -3.086786e-03  -3.687760e-02  0 
 -1.014202e-03  -3.687496e-02  0 
 1.049683e-03  -3.687496e-02  0 
 3.122267e-03  -3.687760e-02  0 
 5.166374e-03  -3.688065e-02  0 
 -3.138645e-03  -4.210368e-02  0 
 -1.038219e-03  -4.210619e-02  0 
 1.073700e-03  -4.210619e-02  0 
 3.174126e-03  -4.210368e-02  0 
 5.302366e-03  -4.210744e-02  0 
VECTORS displacement_ITER3 FLOAT
 -5.127609e-03  -3.683088e-02  0 
 -5.261625e-03  -4.204951e-02  0 
 -3.085828e-03  -3.683221e-02  0 
 -1.017055e-03  -3.682950e-02  0 
 1.041343e-03  -3.682950e-02  0 
 3.110116e-03  -3.683221e-02  0 
 5.151898e-03  -3.683088e-02  0 
 -3.137983e-03  -4.204858e-02  0 
 -1.041576e-03  -4.205066e-02  0 
 1.065864e-03  -4.205066e-02  0 
 3.162272e-03  -4.204858e-02  0 
 5.285914e-03  -4.204951e-02  0 
VECTORS displacement_ITER4 FLOAT
 -5.126987e-03  -3.682419e-02  0 
 -5.260743e-03  -4.204096e-02  0 
 -3.085370e-03  -3.682463e-02  0 
 -1.016722e-03  -3.682201e-02  0 
 1.040400e-03  -3.682201e-02  0 
 3.109048e-03  -3.682463e-02  0 
 5.150666e-03  -3.682419e-02  0 
 -3.137574e-03  -4.204040e-02  0 
 -1.041563e-03  -4.204240e-02  0 
 1.065241e-03  -4.204240e-02  0 
 3.161252e-03  -4.204040e-02  0 
 5.284421e-03  -4.204096e-02  0 
VECTORS displacement_ITER5 FLOAT
 -5.127896e-03  -3.682392e-02  0 
 -5.261653e-03  -4.204101e-02  0 
 -3.086167e-03  -3.682440e-02  0 
 -1.017407e-03  -3.682177e-02  0 
 1.039831e-03  -3.682176e-02  0 
 3.108597e-03  -3.682439e-02  0 
 5.150343e-03  -3.682391e-02  0 
 -3.138371e-03  -4.204045e-02  0 
 -1.042241e-03  -4.204246e-02  0 
 1.064666e-03  -4.204247e-02  0 
 3.160802e-03  -4.204046e-02  0 
 5.284086e-03  -4.204102e-02  0 
VECTORS displacement_ITER6 FLOAT
 -5.128227e-03  -3.682400e-02  0 
 -5.261977e-03  -4.204113e-02  0 
 -3.086479e-03  -3.682448e-02  0 
 -1.017705e-03  -3.682185e-02  0 
 1.039544e-03  -3.682185e-02  0 
 3.108318e-03  -3.682448e-02  0 
 5.150066e-03  -3.682400e-02  0 
 -3.138683e-03  -4.204056e-02  0 
 -1.042540e-03  -4.204257e-02  0 
 1.064378e-03  -4.204257e-02  0 
 3.160522e-03  -4.204056e-02  0 
 5.283816e-03  -4.204112e-02  0 
VECTORS displacement_ITER7 FLOAT
 -5.128136e-03  -3.682400e-02  0 
 -5.261886e-03  -4.204113e-02  0 
 -3.086386e-03  -3.682448e-02  0 
 -1.017610e-03  -3.682185e-02  0 
 1.039640e-03  -3.682185e-02  0 
 3.108416e-03  -3.682448e-02  0 
 5.150165e-03  -3.682400e-02  0 
 -3.138590e-03  -4.204057e-02  0 
 -1.042445e-03  -4.204258e-02  0 
 1.064475e-03  -4.204258e-02  0 
 3.160620e-03  -4.204057e-02  0 
 5.283916e-03  -4.204113e-02  0 
VECTORS displacement_ITER8 FLOAT
 -5.128158e-03  -3.682400e-02  0 
 -5.261908e-03  -4.204113e-02  0 
 -3.086409e-03  -3.682448e-02  0 
 -1.017633e-03  -3.682185e-02  0 
 1.039617e-03  -3.682185e-02  0 
 3.108392e-03  -3.682448e-02  0 
 5.150142e-03  -3.682400e-02  0 
 -3.138613e-03  -4.204057e-02  0 
 -1.042468e-03  -4.204258e-02  0 
 1.064451e-03  -4.204258e-02  0 
 3.160597e-03  -4.204057e-02  0 
 5.283892e-03  -4.204113e-02  0 
VECTORS displacement_ITER9 FLOAT
 -5.128158e-03  -3.682400e-02  0 
 -5.261908e-03  -4.204113e-02  0 
 -3.086408e-03  -3.682448e-02  0 
 -1.017633e-03  -3.682185e-02  0 
 1.039617e-03  -3.682185e-02  0 
 3.108393e-03  -3.682448e-02  0 
 5.150142e-03  -3.682400e-02  0 
 -3.138613e-03  -4.204057e-02  0 
 -1.042467e-03  -4.204258e-02  0 
 1.064452e-03  -4.204258e-02  0 
 3.160597e-03  -4.204057e-02  0 
 5.283892e-03  -4.204113e-02  0 
VECTORS displacement_ITER10 FLOAT
 -3.751844e-01  1.599755e+00  0 
 -5.526135e-01  1.672215e+00  0 
 -3.717679e-01  1.763809e+00  0 
 -3.331321e-01  1.762375e+00  0 
 -3.323535e-01  1.755045e+00  0 
 -2.949012e-01  1.754803e+00  0 
 -2.858498e-01  1.583950e+00  0 
 -4.901924e-01  1.566948e+00  0 
 -3.682794e-01  1.563078e+00  0 
 -3.611404e-01  1.568833e+00  0 
 -2.474542e-01  1.572646e+00  0 
 -2.113338e-01  1.682171e+00  0 
VECTORS displacement_ITER11 FLOAT
 3.199133e+13  1.584289e+14  0 
 -1.711794e+13  1.098779e+14  0 
 1.789666e+13  1.001373e+14  0 
 9.249879e+12  9.646300e+13  0 
 1.456479e+12  9.461038e+13  0 
 -1.181007e+13  9.829691e+13  0 
 -2.425217e+13  1.513823e+14  0 
 2.109540e+12  1.098813e+14  0 
 8.196376e+12  1.108416e+14  0 
 -7.003308e+12  1.195877e+14  0 
 -3.541840e+12  1.186985e+14  0 
 3.031148e+12  1.266329e+14  0 
VECTORS displacement_ITER12 FLOAT
 4.697408e+28  1.746702e+29  0 
 8.723906e+28  2.080178e+29  0 
 4.679081e+28  1.718395e+29  0 
 3.031532e+28  1.721799e+29  0 
 8.605708e+27  1.536868e+29  0 
 -1.315614e+28  1.522128e+29  0 
 -5.016240e+28  1.548884e+29  0 
 4.239390e+28  2.105671e+29  0 
 3.378581e+28  2.063238e+29  0 
 9.252997e+27  2.095647e+29  0 
 -1.086082e+28  2.111491e+29  0 
 -5.380277e+28  2.094684e+29  0 
VECTORS displacement_ITER13 FLOAT
 2.571452e+43  1.140381e+44  0 
 2.288740e+43  1.385194e+44  0 
 2.268880e+43  1.041409e+44  0 
 1.945092e+43  1.007642e+44  0 
 1.518652e+43  8.935516e+43  0 
 7.911152e+42  8.784171e+43  0 
 -9.706549e+42  6.336031e+43  0 
 1.459726e+43  1.060262e+44  0 
 9.730916e+42  1.084414e+44  0 
 9.914027e+42  1.011337e+44  0 
 3.123085e+42  1.021566e+44  0 
 -1.417169e+43  1.283361e+44  0 
VECTORS displacement_ITER14 FLOAT
 1.266732e+58  -4.352602e+58  0 
 2.727039e+58  -1.233273e+58  0 
 7.698044e+57  -4.854412e+58  0 
 5.455897e+57  -5.030314e+58  0 
 -1.979753e+58  -2.018486e+58  0 
 1.219520e+58  -1.646698e+58  0 
 3.524035e+58  1.929637e+58  0 
 -6.010504e+57  -4.395341e+58  0 
 -1.766035e+58  -4.118507e+58  0 
 -2.293317e+58  -9.689264e+58  0 
 8.930806e+57  -1.001361e+59  0 
 6.400076e+58  -1.371847e+59  0 
VECTORS displacement_ITER15 FLOAT
 -1.688810e+74  -2.576679e+74  0 
 -1.088599e+74  -2.914341e+74  0 
 -8.848345e+73  -3.013184e+74  0 
 -6.700557e+73  -2.988065e+74  0 
 -8.771179e+72  -3.353020e+74  0 
 -1.593080e+73  -3.340113e+74  0 
 -2.364322e+73  -2.751204e+74  0 
 -8.725913e+73  -4.029810e+74  0 
 -3.660878e+73  -3.944367e+74  0 
 -1.890918e+73  -3.520933e+74  0 
 3.626507e+72  -3.589066e+74  0 
 3.129231e+73  -2.887070e+74  0 
VECTORS displacement_ITER16 FLOAT
 -1.690770e+89  -1.760977e+89  0 
 -1.665997e+90  -7.129704e+89  0 
 -5.486603e+89  -5.652282e+88  0 
 -4.071943e+89  -1.039220e+89  0 
 -4.613969e+89  -1.049252e+89  0 
 -3.897104e+89  -8.844655e+88  0 
 -1.273631e+89  6.402096e+88  0 
 -7.949872e+89  -7.167907e+89  0 
 -4.858069e+89  -6.740574e+89  0 
 -5.535531e+89  -4.059211e+89  0 
 -4.208734e+89  -4.523495e+89  0 
 -4.307777e+89  -3.231152e+89  0 
VECTORS displacement_ITER17 FLOAT
 -1.690770e+89  -1.760977e+89  0 
 -1.665997e+90  -7.129704e+89  0 
 -5.486603e+89  -5.652282e+88  0 
 -4.071943e+89  -1.039220e+89  0 
 -4.613969e+89  -1.049252e+89  0 
 -3.897104e+89  -8.844655e+88  0 
 -1.273631e+89  6.402096e+88  0 
 -7.949872e+89  -7.167907e+89  0 
 -4.858069e+89  -6.740574e+89  0 
 -5.535531e+89  -4.059211e+89  0 
 -4.208734e+89  -4.523495e+89  0 
 -4.307777e+89  -3.231152e+89  0 
VECTORS displacement_ITER18 FLOAT
 -1.690770e+89  -1.760977e+89  0 
 -1.665997e+90  -7.129704e+89  0 
 -5.486603e+89  -5.652282e+88  0 
 -4.071943e+89  -1.039220e+89  0 
 -4.613969e+89  -1.049252e+89  0 
 -3.897104e+89  -8.844655e+88  0 
 -1.273631e+89  6.402096e+88  0 
 -7.949872e+89  -7.167907e+89  0 
 -4.858069e+89  -6.740574e+89  0 
 -5.535531e+89  -4.059211e+89  0 
 -4.208734e+89  -4.523495e+89  0 
 -4.307777e+89  -3.231152e+89  0 
VECTORS displacement_ITER19 FLOAT
 -1.690770e+89  -1.760977e+89  0 
 -1.665997e+90  -7.129704e+89  0 
 -5.486603e+89  -5.652282e+88  0 
 -4.071943e+89  -1.039220e+89  0 
 -4.613969e+89  -1.049252e+89  0 
 -3.897104e+89  -8.844655e+88  0 
 -1.273631e+89  6.402096e+88  0 
 -7.949872e+89  -7.167907e+89  0 
 -4.858069e+89  -6.740574e+89  0 
 -5.535531e+89  -4.059211e+89  0 
 -4.208734e+89  -4.523495e+89  0 
 -4.307777e+89  -3.231152e+89  0 
VECTORS displacement_ITER20 FLOAT
 -1.690770e+89  -1.760977e+89  0 
 -1.665997e+90  -7.129704e+89  0 
 -5.486603e+89  -5.652282e+88  0 
 -4.071943e+89  -1.039220e+89  0 
 -4.613969e+89  -1.049252e+89  0 
 -3.897104e+89  -8.844655e+88  0 
 -1.273631e+89  6.402096e+88  0 
 -7.949872e+89  -7.167907e+89  0 
 -4.858069e+89  -6.740574e+89  0 
 -5.535531e+89  -4.059211e+89  0 
 -4.208734e+89  -4.523495e+89  0 
 -4.307777e+89  -3.231152e+89  0 
VECTORS displacement_ITER21 FLOAT
 -1.690770e+89  -1.760977e+89  0 
 -1.665997e+90  -7.129704e+89  0 
 -5.486603e+89  -5.652282e+88  0 
 -4.071943e+89  -1.039220e+89  0 
 -4.613969e+89  -1.049252e+89  0 
 -3.897104e+89  -8.844655e+88  0 
 -1.273631e+89  6.402096e+88  0 
 -7.949872e+89  -7.167907e+89  0 
 -4.858069e+89  -6.740574e+89  0 
 -5.535531e+89  -4.059211e+89  0 
 -4.208734e+89  -4.523495e+89  0 
 -4.307777e+89  -3.231152e+89  0 
VECTORS displacement_ITER22 FLOAT
 -1.690770e+89  -1.760977e+89  0 
 -1.665997e+90  -7.129704e+89  0 
 -5.486603e+89  -5.652282e+88  0 
 -4.071943e+89  -1.039220e+89  0 
 -4.613969e+89  -1.049252e+89  0 
 -3.897104e+89  -8.844655e+88  0 
 -1.273631e+89  6.402096e+88  0 
 -7.949872e+89  -7.167907e+89  0 
 -4.858069e+89  -6.740574e+89  0 
 -5.535531e+89  -4.059211e+89  0 
 -4.208734e+89  -4.523495e+89  0 
 -4.307777e+89  -3.231152e+89  0 
VECTORS displacement_ITER23 FLOAT
 -1.690770e+89  -1.760977e+89  0 
 -1.665997e+90  -7.129704e+89  0 
 -5.486603e+89  -5.652282e+88  0 
 -4.071943e+89  -1.039220e+89  0 
 -4.613969e+89  -1.049252e+89  0 
 -3.897104e+89  -8.844655e+88  0 
 -1.273631e+89  6.402096e+88  0 
 -7.949872e+89  -7.167907e+89  0 
 -4.858069e+89  -6.740574e+89  0 
 -5.535531e+89  -4.059211e+89  0 
 -4.208734e+89  -4.523495e+89  0 
 -4.307777e+89  -3.231152e+89  0 
VECTORS displacement_ITER24 FLOAT
 -1.690770e+89  -1.760977e+89  0 
 -1.665997e+90  -7.129704e+89  0 
 -5.486603e+89  -5.652282e+88  0 
 -4.071943e+89  -1.039220e+89  0 
 -4.613969e+89  -1.049252e+89  0 
 -3.897104e+89  -8.844655e+88  0 
 -1.273631e+89  6.402096e+88  0 
 -7.949872e+89  -7.167907e+89  0 
 -4.858069e+89  -6.740574e+89  0 
 -5.535531e+89  -4.059211e+89  0 
 -4.208734e+89  -4.523495e+89  0 
 -4.307777e+89  -3.231152e+89  0 
VECTORS displacement_ITER25 FLOAT
 -1.690770e+89  -1.760977e+89  0 
 -1.665997e+90  -7.129704e+89  0 
 -5.486603e+89  -5.652282e+88  0 
 -4.071943e+89  -1.039220e+89  0 
 -4.613969e+89  -1.049252e+89  0 
 -3.897104e+89  -8.844655e+88  0 
 -1.273631e+89  6.402096e+88  0 
 -7.949872e+89  -7.167907e+89  0 
 -4.858069e+89  -6.740574e+89  0 
 -5.535531e+89  -4.059211e+89  0 
 -4.208734e+89  -4.523495e+89  0 
 -4.307777e+89  -3.231152e+89  0 
VECTORS displacement_ITER26 FLOAT
 -1.690770e+89  -1.760977e+89  0 
 -1.665997e+90  -7.129704e+89  0 
 -5.486603e+89  -5.652282e+88  0 
 -4.071943e+89  -1.039220e+89  0 
 -4.613969e+89  -1.049252e+89  0 
 -3.897104e+89  -8.844655e+88  0 
 -1.273631e+89  6.402096e+88  0 
 -7.949872e+89  -7.167907e+89  0 
 -4.858069e+89  -6.740574e+89  0 
 -5.535531e+89  -4.059211e+89  0 
 -4.208734e+89  -4.523495e+89  0 
 -4.307777e+89  -3.231152e+89  0 
VECTORS displacement_ITER27 FLOAT
 -1.690770e+89  -1.760977e+89  0 
 -1.665997e+90  -7.129704e+89  0 
 -5.486603e+89  -5.652282e+88  0 
 -4.071943e+89  -1.039220e+89  0 
 -4.613969e+89  -1.049252e+89  0 
 -3.897104e+89  -8.844655e+88  0 
 -1.273631e+89  6.402096e+88  0 
 -7.949872e+89  -7.167907e+89  0 
 -4.858069e+89  -6.740574e+89  0 
 -5.535531e+89  -4.059211e+89  0 
 -4.208734e+89  -4.523495e+89  0 
 -4.307777e+89  -3.231152e+89  0 
VECTORS displacement_ITER28 FLOAT
 -1.690770e+89  -1.760977e+89  0 
 -1.665997e+90  -7.129704e+89  0 
 -5.486603e+89  -5.652282e+88  0 
 -4.071943e+89  -1.039220e+89  0 
 -4.613969e+89  -1.049252e+89  0 
 -3.897104e+89  -8.844655e+88  0 
 -1.273631e+89  6.402096e+88  0 
 -7.949872e+89  -7.167907e+89  0 
 -4.858069e+89  -6.740574e+89  0 
 -5.535531e+89  -4.059211e+89  0 
 -4.208734e+89  -4.523495e+89  0 
 -4.307777e+89  -3.231152e+89  0 
VECTORS displacement_ITER29 FLOAT
 -1.690770e+89  -1.760977e+89  0 
 -1.665997e+90  -7.129704e+89  0 
 -5.486603e+89  -5.652282e+88  0 
 -4.071943e+89  -1.039220e+89  0 
 -4.613969e+89  -1.049252e+89  0 
 -3.897104e+89  -8.844655e+88  0 
 -1.273631e+89  6.402096e+88  0 
 -7.949872e+89  -7.167907e+89  0 
 -4.858069e+89  -6.740574e+89  0 
 -5.535531e+89  -4.059211e+89  0 
 -4.208734e+89  -4.523495e+89  0 
 -4.307777e+89  -3.231152e+89  0 
VECTORS displacement_ITER30 FLOAT
 -1.690770e+89  -1.760977e+89  0 
 -1.665997e+90  -7.129704e+89  0 
 -5.486603e+89  -5.652282e+88  0 
 -4.071943e+89  -1.039220e+89  0 
 -4.613969e+89  -1.049252e+89  0 
 -3.897104e+89  -8.844655e+88  0 
 -1.273631e+89  6.402096e+88  0 
 -7.949872e+89  -7.167907e+89  0 
 -4.858069e+89  -6.740574e+89  0 
 -5.535531e+89  -4.059211e+89  0 
 -4.208734e+89  -4.523495e+89  0 
 -4.307777e+89  -3.231152e+89  0 
VECTORS displacement_ITER31 FLOAT
 -1.690770e+89  -1.760977e+89  0 
 -1.665997e+90  -7.129704e+89  0 
 -5.486603e+89  -5.652282e+88  0 
 -4.071943e+89  -1.039220e+89  0 
 -4.613969e+89  -1.049252e+89  0 
 -3.897104e+89  -8.844655e+88  0 
 -1.273631e+89  6.402096e+88  0 
 -7.949872e+89  -7.167907e+89  0 
 -4.858069e+89  -6.740574e+89  0 
 -5.535531e+89  -4.059211e+89  0 
 -4.208734e+89  -4.523495e+89  0 
 -4.307777e+89  -3.231152e+89  0 
VECTORS displacement_ITER32 FLOAT
 -1.690770e+89  -1.760977e+89  0 
 -1.665997e+90  -7.129704e+89  0 
 -5.486603e+89  -5.652282e+88  0 
 -4.071943e+89  -1.039220e+89  0 
 -4.613969e+89  -1.049252e+89  0 
 -3.897104e+89  -8.844655e+88  0 
 -1.273631e+89  6.402096e+88  0 
 -7.949872e+89  -7.167907e+89  0 
 -4.858069e+89  -6.740574e+89  0 
 -5.535531e+89  -4.059211e+89  0 
 -4.208734e+89  -4.523495e+89  0 
 -4.307777e+89  -3.231152e+89  0 
VECTORS displacement_ITER33 FLOAT
 -1.690770e+89  -1.760977e+89  0 
 -1.665997e+90  -7.129704e+89  0 
 -5.486603e+89  -5.652282e+88  0 
 -4.071943e+89  -1.039220e+89  0 
 -4.613969e+89  -1.049252e+89  0 
 -3.897104e+89  -8.844655e+88  0 
 -1.273631e+89  6.402096e+88  0 
 -7.949872e+89  -7.167907e+89  0 
 -4.858069e+89  -6.740574e+89  0 
 -5.535531e+89  -4.059211e+89  0 
 -4.208734e+89  -4.523495e+89  0 
 -4.307777e+89  -3.231152e+89  0 
VECTORS displacement_ITER34 FLOAT
 -1.690770e+89  -1.760977e+89  0 
 -1.665997e+90  -7.129704e+89  0 
 -5.486603e+89  -5.652282e+88  0 
 -4.071943e+89  -1.039220e+89  0 
 -4.613969e+89  -1.049252e+89  0 
 -3.897104e+89  -8.844655e+88  0 
 -1.273631e+89  6.402096e+88  0 
 -7.949872e+89  -7.167907e+89  0 
 -4.858069e+89  -6.740574e+89  0 
 -5.535531e+89  -4.059211e+89  0 
 -4.208734e+89  -4.523495e+89  0 
 -4.307777e+89  -3.231152e+89  0 
VECTORS displacement_ITER35 FLOAT
 -1.690770e+89  -1.760977e+89  0 
 -1.665997e+90  -7.129704e+89  0 
 -5.486603e+89  -5.652282e+88  0 
 -4.071943e+89  -1.039220e+89  0 
 -4.613969e+89  -1.049252e+89  0 
 -3.897104e+89  -8.844655e+88  0 
 -1.273631e+89  6.402096e+88  0 
 -7.949872e+89  -7.167907e+89  0 
 -4.858069e+89  -6.740574e+89  0 
 -5.535531e+89  -4.059211e+89  0 
 -4.208734e+89  -4.523495e+89  0 
 -4.307777e+89  -3.231152e+89  0 
VECTORS displacement_ITER36 FLOAT
 -1.690770e+89  -1.760977e+89  0 
 -1.665997e+90  -7.129704e+89  0 
 -5.486603e+89  -5.652282e+88  0 
 -4.071943e+89  -1.039220e+89  0 
 -4.613969e+89  -1.049252e+89  0 
 -3.897104e+89  -8.844655e+88  0 
 -1.273631e+89  6.402096e+88  0 
 -7.949872e+89  -7.167907e+89  0 
 -4.858069e+89  -6.740574e+89  0 
 -5.535531e+89  -4.059211e+89  0 
 -4.208734e+89  -4.523495e+89  0 
 -4.307777e+89  -3.231152e+89  0 
VECTORS displacement_ITER37 FLOAT
 -1.690770e+89  -1.760977e+89  0 
 -1.665997e+90  -7.129704e+89  0 
 -5.486603e+89  -5.652282e+88  0 
 -4.071943e+89  -1.039220e+89  0 
 -4.613969e+89  -1.049252e+89  0 
 -3.897104e+89  -8.844655e+88  0 
 -1.273631e+89  6.402096e+88  0 
 -7.949872e+89  -7.167907e+89  0 
 -4.858069e+89  -6.740574e+89  0 
 -5.535531e+89  -4.059211e+89  0 
 -4.208734e+89  -4.523495e+89  0 
 -4.307777e+89  -3.231152e+89  0 
VECTORS displacement_ITER38 FLOAT
 -1.690770e+89  -1.760977e+89  0 
 -1.665997e+90  -7.129704e+89  0 
 -5.486603e+89  -5.652282e+88  0 
 -4.071943e+89  -1.039220e+89  0 
 -4.613969e+89  -1.049252e+89  0 
 -3.897104e+89  -8.844655e+88  0 
 -1.273631e+89  6.402096e+88  0 
 -7.949872e+89  -7.167907e+89  0 
 -4.858069e+89  -6.740574e+89  0 
 -5.535531e+89  -4.059211e+89  0 
 -4.208734e+89  -4.523495e+89  0 
 -4.307777e+89  -3.231152e+89  0 
VECTORS displacement_ITER39 FLOAT
 -1.690770e+89  -1.760977e+89  0 
 -1.665997e+90  -7.129704e+89  0 
 -5.486603e+89  -5.652282e+88  0 
 -4.071943e+89  -1.039220e+89  0 
 -4.613969e+89  -1.049252e+89  0 
 -3.897104e+89  -8.844655e+88  0 
 -1.273631e+89  6.402096e+88  0 
 -7.949872e+89  -7.167907e+89  0 
 -4.858069e+89  -6.740574e+89  0 
 -5.535531e+89  -4.059211e+89  0 
 -4.208734e+89  -4.523495e+89  0 
 -4.307777e+89  -3.231152e+89  0 
VECTORS displacement_ITER40 FLOAT
 -1.690770e+89  -1.760977e+89  0 
 -1.665997e+90  -7.129704e+89  0 
 -5.486603e+89  -5.652282e+88  0 
 -4.071943e+89  -1.039220e+89  0 
 -4.613969e+89  -1.049252e+89  0 
 -3.897104e+89  -8.844655e+88  0 
 -1.273631e+89  6.402096e+88  0 
 -7.949872e+89  -7.167907e+89  0 
 -4.858069e+89  -6.740574e+89  0 
 -5.535531e+89  -4.059211e+89  0 
 -4.208734e+89  -4.523495e+89  0 
 -4.307777e+89  -3.231152e+89  0 
VECTORS displacement_ITER41 FLOAT
 -1.690770e+89  -1.760977e+89  0 
 -1.665997e+90  -7.129704e+89  0 
 -5.486603e+89  -5.652282e+88  0 
 -4.071943e+89  -1.039220e+89  0 
 -4.613969e+89  -1.049252e+89  0 
 -3.897104e+89  -8.844655e+88  0 
 -1.273631e+89  6.402096e+88  0 
 -7.949872e+89  -7.167907e+89  0 
 -4.858069e+89  -6.740574e+89  0 
 -5.535531e+89  -4.059211e+89  0 
 -4.208734e+89  -4.523495e+89  0 
 -4.307777e+89  -3.231152e+89  0 
VECTORS displacement_ITER42 FLOAT
 -1.690770e+89  -1.760977e+89  0 
 -1.665997e+90  -7.129704e+89  0 
 -5.486603e+89  -5.652282e+88  0 
 -4.071943e+89  -1.039220e+89  0 
 -4.613969e+89  -1.049252e+89  0 
 -3.897104e+89  -8.844655e+88  0 
 -1.273631e+89  6.402096e+88  0 
 -7.949872e+89  -7.167907e+89  0 
 -4.858069e+89  -6.740574e+89  0 
 -5.535531e+89  -4.059211e+89  0 
 -4.208734e+89  -4.523495e+89  0 
 -4.307777e+89  -3.231152e+89  0 
VECTORS displacement_ITER43 FLOAT
 -1.690770e+89  -1.760977e+89  0 
 -1.665997e+90  -7.129704e+89  0 
 -5.486603e+89  -5.652282e+88  0 
 -4.071943e+89  -1.039220e+89  0 
 -4.613969e+89  -1.049252e+89  0 
 -3.897104e+89  -8.844655e+88  0 
 -1.273631e+89  6.402096e+88  0 
 -7.949872e+89  -7.167907e+89  0 
 -4.858069e+89  -6.740574e+89  0 
 -5.535531e+89  -4.059211e+89  0 
 -4.208734e+89  -4.523495e+89  0 
 -4.307777e+89  -3.231152e+89  0 
VECTORS displacement_ITER44 FLOAT
 -1.690770e+89  -1.760977e+89  0 
 -1.665997e+90  -7.129704e+89  0 
 -5.486603e+89  -5.652282e+88  0 
 -4.071943e+89  -1.039220e+89  0 
 -4.613969e+89  -1.049252e+89  0 
 -3.897104e+89  -8.844655e+88  0 
 -1.273631e+89  6.402096e+88  0 
 -7.949872e+89  -7.167907e+89  0 
 -4.858069e+89  -6.740574e+89  0 
 -5.535531e+89  -4.059211e+89  0 
 -4.208734e+89  -4.523495e+89  0 
 -4.307777e+89  -3.231152e+89  0 
VECTORS displacement_ITER45 FLOAT
 -1.690770e+89  -1.760977e+89  0 
 -1.665997e+90  -7.129704e+89  0 
 -5.486603e+89  -5.652282e+88  0 
 -4.071943e+89  -1.039220e+89  0 
 -4.613969e+89  -1.049252e+89  0 
 -3.897104e+89  -8.844655e+88  0 
 -1.273631e+89  6.402096e+88  0 
 -7.949872e+89  -7.167907e+89  0 
 -4.858069e+89  -6.740574e+89  0 
 -5.535531e+89  -4.059211e+89  0 
 -4.208734e+89  -4.523495e+89  0 
 -4.307777e+89  -3.231152e+89  0 
VECTORS displacement_ITER46 FLOAT
 -1.690770e+89  -1.760977e+89  0 
 -1.665997e+90  -7.129704e+89  0 
 -5.486603e+89  -5.652282e+88  0 
 -4.071943e+89  -1.039220e+89  0 
 -4.613969e+89  -1.049252e+89  0 
 -3.897104e+89  -8.844655e+88  0 
 -1.273631e+89  6.402096e+88  0 
 -7.949872e+89  -7.167907e+89  0 
 -4.858069e+89  -6.740574e+89  0 
 -5.535531e+89  -4.059211e+89  0 
 -4.208734e+89  -4.523495e+89  0 
 -4.307777e+89  -3.231152e+89  0 
VECTORS displacement_ITER47 FLOAT
 -1.690770e+89  -1.760977e+89  0 
 -1.665997e+90  -7.129704e+89  0 
 -5.486603e+89  -5.652282e+88  0 
 -4.071943e+89  -1.039220e+89  0 
 -4.613969e+89  -1.049252e+89  0 
 -3.897104e+89  -8.844655e+88  0 
 -1.273631e+89  6.402096e+88  0 
 -7.949872e+89  -7.167907e+89  0 
 -4.858069e+89  -6.740574e+89  0 
 -5.535531e+89  -4.059211e+89  0 
 -4.208734e+89  -4.523495e+89  0 
 -4.307777e+89  -3.231152e+89  0 
VECTORS displacement_ITER48 FLOAT
 -1.690770e+89  -1.760977e+89  0 
 -1.665997e+90  -7.129704e+89  0 
 -5.486603e+89  -5.652282e+88  0 
 -4.071943e+89  -1.039220e+89  0 
 -4.613969e+89  -1.049252e+89  0 
 -3.897104e+89  -8.844655e+88  0 
 -1.273631e+89  6.402096e+88  0 
 -7.949872e+89  -7.167907e+89  0 
 -4.858069e+89  -6.740574e+89  0 
 -5.535531e+89  -4.059211e+89  0 
 -4.208734e+89  -4.523495e+89  0 
 -4.307777e+89  -3.231152e+89  0 
VECTORS displacement_ITER49 FLOAT
 -1.690770e+89  -1.760977e+89  0 
 -1.665997e+90  -7.129704e+89  0 
 -5.486603e+89  -5.652282e+88  0 
 -4.071943e+89  -1.039220e+89  0 
 -4.613969e+89  -1.049252e+89  0 
 -3.897104e+89  -8.844655e+88  0 
 -1.273631e+89  6.402096e+88  0 
 -7.949872e+89  -7.167907e+89  0 
 -4.858069e+89  -6.740574e+89  0 
 -5.535531e+89  -4.059211e+89  0 
 -4.208734e+89  -4.523495e+89  0 
 -4.307777e+89  -3.231152e+89  0 
VECTORS displacement_ITER50 FLOAT
 -1.690770e+89  -1.760977e+89  0 
 -1.665997e+90  -7.129704e+89  0 
 -5.486603e+89  -5.652282e+88  0 
 -4.071943e+89  -1.039220e+89  0 
 -4.613969e+89  -1.049252e+89  0 
 -3.897104e+89  -8.844655e+88  0 
 -1.273631e+89  6.402096e+88  0 
 -7.949872e+89  -7.167907e+89  0 
 -4.858069e+89  -6.740574e+89  0 
 -5.535531e+89  -4.059211e+89  0 
 -4.208734e+89  -4.523495e+89  0 
 -4.307777e+89  -3.231152e+89  0 
VECTORS displacement_ITER51 FLOAT
 -1.690770e+89  -1.760977e+89  0 
 -1.665997e+90  -7.129704e+89  0 
 -5.486603e+89  -5.652282e+88  0 
 -4.071943e+89  -1.039220e+89  0 
 -4.613969e+89  -1.049252e+89  0 
 -3.897104e+89  -8.844655e+88  0 
 -1.273631e+89  6.402096e+88  0 
 -7.949872e+89  -7.167907e+89  0 
 -4.858069e+89  -6.740574e+89  0 
 -5.535531e+89  -4.059211e+89  0 
 -4.208734e+89  -4.523495e+89  0 
 -4.307777e+89  -3.231152e+89  0 
VECTORS displacement_ITER52 FLOAT
 -1.690770e+89  -1.760977e+89  0 
 -1.665997e+90  -7.129704e+89  0 
 -5.486603e+89  -5.652282e+88  0 
 -4.071943e+89  -1.039220e+89  0 
 -4.613969e+89  -1.049252e+89  0 
 -3.897104e+89  -8.844655e+88  0 
 -1.273631e+89  6.402096e+88  0 
 -7.949872e+89  -7.167907e+89  0 
 -4.858069e+89  -6.740574e+89  0 
 -5.535531e+89  -4.059211e+89  0 
 -4.208734e+89  -4.523495e+89  0 
 -4.307777e+89  -3.231152e+89  0 
VECTORS displacement_ITER53 FLOAT
 -1.690770e+89  -1.760977e+89  0 
 -1.665997e+90  -7.129704e+89  0 
 -5.486603e+89  -5.652282e+88  0 
 -4.071943e+89  -1.039220e+89  0 
 -4.613969e+89  -1.049252e+89  0 
 -3.897104e+89  -8.844655e+88  0 
 -1.273631e+89  6.402096e+88  0 
 -7.949872e+89  -7.167907e+89  0 
 -4.858069e+89  -6.740574e+89  0 
 -5.535531e+89  -4.059211e+89  0 
 -4.208734e+89  -4.523495e+89  0 
 -4.307777e+89  -3.231152e+89  0 
VECTORS displacement_ITER54 FLOAT
 -1.690770e+89  -1.760977e+89  0 
 -1.665997e+90  -7.129704e+89  0 
 -5.486603e+89  -5.652282e+88  0 
 -4.071943e+89  -1.039220e+89  0 
 -4.613969e+89  -1.049252e+89  0 
 -3.897104e+89  -8.844655e+88  0 
 -1.273631e+89  6.402096e+88  0 
 -7.949872e+89  -7.167907e+89  0 
 -4.858069e+89  -6.740574e+89  0 
 -5.535531e+89  -4.059211e+89  0 
 -4.208734e+89  -4.523495e+89  0 
 -4.307777e+89  -3.231152e+89  0 
VECTORS displacement_ITER55 FLOAT
 -1.690770e+89  -1.760977e+89  0 
 -1.665997e+90  -7.129704e+89  0 
 -5.486603e+89  -5.652282e+88  0 
 -4.071943e+89  -1.039220e+89  0 
 -4.613969e+89  -1.049252e+89  0 
 -3.897104e+89  -8.844655e+88  0 
 -1.273631e+89  6.402096e+88  0 
 -7.949872e+89  -7.167907e+89  0 
 -4.858069e+89  -6.740574e+89  0 
 -5.535531e+89  -4.059211e+89  0 
 -4.208734e+89  -4.523495e+89  0 
 -4.307777e+89  -3.231152e+89  0 
VECTORS displacement_ITER56 FLOAT
 -1.690770e+89  -1.760977e+89  0 
 -1.665997e+90  -7.129704e+89  0 
 -5.486603e+89  -5.652282e+88  0 
 -4.071943e+89  -1.039220e+89  0 
 -4.613969e+89  -1.049252e+89  0 
 -3.897104e+89  -8.844655e+88  0 
 -1.273631e+89  6.402096e+88  0 
 -7.949872e+89  -7.167907e+89  0 
 -4.858069e+89  -6.740574e+89  0 
 -5.535531e+89  -4.059211e+89  0 
 -4.208734e+89  -4.523495e+89  0 
 -4.307777e+89  -3.231152e+89  0 
VECTORS displacement_ITER57 FLOAT
 -1.690770e+89  -1.760977e+89  0 
 -1.665997e+90  -7.129704e+89  0 
 -5.486603e+89  -5.652282e+88  0 
 -4.071943e+89  -1.039220e+89  0 
 -4.613969e+89  -1.049252e+89  0 
 -3.897104e+89  -8.844655e+88  0 
 -1.273631e+89  6.402096e+88  0 
 -7.949872e+89  -7.167907e+89  0 
 -4.858069e+89  -6.740574e+89  0 
 -5.535531e+89  -4.059211e+89  0 
 -4.208734e+89  -4.523495e+89  0 
 -4.307777e+89  -3.231152e+89  0 
VECTORS displacement_ITER58 FLOAT
 -1.690770e+89  -1.760977e+89  0 
 -1.665997e+90  -7.129704e+89  0 
 -5.486603e+89  -5.652282e+88  0 
 -4.071943e+89  -1.039220e+89  0 
 -4.613969e+89  -1.049252e+89  0 
 -3.897104e+89  -8.844655e+88  0 
 -1.273631e+89  6.402096e+88  0 
 -7.949872e+89  -7.167907e+89  0 
 -4.858069e+89  -6.740574e+89  0 
 -5.535531e+89  -4.059211e+89  0 
 -4.208734e+89  -4.523495e+89  0 
 -4.307777e+89  -3.231152e+89  0 
VECTORS displacement_ITER59 FLOAT
 -1.690770e+89  -1.760977e+89  0 
 -1.665997e+90  -7.129704e+89  0 
 -5.486603e+89  -5.652282e+88  0 
 -4.071943e+89  -1.039220e+89  0 
 -4.613969e+89  -1.049252e+89  0 
 -3.897104e+89  -8.844655e+88  0 
 -1.273631e+89  6.402096e+88  0 
 -7.949872e+89  -7.167907e+89  0 
 -4.858069e+89  -6.740574e+89  0 
 -5.535531e+89  -4.059211e+89  0 
 -4.208734e+89  -4.523495e+89  0 
 -4.307777e+89  -3.231152e+89  0 
VECTORS displacement_ITER60 FLOAT
 -1.690770e+89  -1.760977e+89  0 
 -1.665997e+90  -7.129704e+89  0 
 -5.486603e+89  -5.652282e+88  0 
 -4.071943e+89  -1.039220e+89  0 
 -4.613969e+89  -1.049252e+89  0 
 -3.897104e+89  -8.844655e+88  0 
 -1.273631e+89  6.402096e+88  0 
 -7.949872e+89  -7.167907e+89  0 
 -4.858069e+89  -6.740574e+89  0 
 -5.535531e+89  -4.059211e+89  0 
 -4.208734e+89  -4.523495e+89  0 
 -4.307777e+89  -3.231152e+89  0 
VECTORS displacement_ITER61 FLOAT
 -1.690770e+89  -1.760977e+89  0 
 -1.665997e+90  -7.129704e+89  0 
 -5.486603e+89  -5.652282e+88  0 
 -4.071943e+89  -1.039220e+89  0 
 -4.613969e+89  -1.049252e+89  0 
 -3.897104e+89  -8.844655e+88  0 
 -1.273631e+89  6.402096e+88  0 
 -7.949872e+89  -7.167907e+89  0 
 -4.858069e+89  -6.740574e+89  0 
 -5.535531e+89  -4.059211e+89  0 
 -4.208734e+89  -4.523495e+89  0 
 -4.307777e+89  -3.231152e+89  0 
VECTORS displacement_ITER62 FLOAT
 -1.690770e+89  -1.760977e+89  0 
 -1.665997e+90  -7.129704e+89  0 
 -5.486603e+89  -5.652282e+88  0 
 -4.071943e+89  -1.039220e+89  0 
 -4.613969e+89  -1.049252e+89  0 
 -3.897104e+89  -8.844655e+88  0 
 -1.273631e+89  6.402096e+88  0 
 -7.949872e+89  -7.167907e+89  0 
 -4.858069e+89  -6.740574e+89  0 
 -5.535531e+89  -4.059211e+89  0 
 -4.208734e+89  -4.523495e+89  0 
 -4.307777e+89  -3.231152e+89  0 
VECTORS displacement_ITER63 FLOAT
 -1.690770e+89  -1.760977e+89  0 
 -1.665997e+90  -7.129704e+89  0 
 -5.486603e+89  -5.652282e+88  0 
 -4.071943e+89  -1.039220e+89  0 
 -4.613969e+89  -1.049252e+89  0 
 -3.897104e+89  -8.844655e+88  0 
 -1.273631e+89  6.402096e+88  0 
 -7.949872e+89  -7.167907e+89  0 
 -4.858069e+89  -6.740574e+89  0 
 -5.535531e+89  -4.059211e+89  0 
 -4.208734e+89  -4.523495e+89  0 
 -4.307777e+89  -3.231152e+89  0 
VECTORS displacement_ITER64 FLOAT
 -1.690770e+89  -1.760977e+89  0 
 -1.665997e+90  -7.129704e+89  0 
 -5.486603e+89  -5.652282e+88  0 
 -4.071943e+89  -1.039220e+89  0 
 -4.613969e+89  -1.049252e+89  0 
 -3.897104e+89  -8.844655e+88  0 
 -1.273631e+89  6.402096e+88  0 
 -7.949872e+89  -7.167907e+89  0 
 -4.858069e+89  -6.740574e+89  0 
 -5.535531e+89  -4.059211e+89  0 
 -4.208734e+89  -4.523495e+89  0 
 -4.307777e+89  -3.231152e+89  0 
VECTORS displacement_ITER65 FLOAT
 -1.690770e+89  -1.760977e+89  0 
 -1.665997e+90  -7.129704e+89  0 
 -5.486603e+89  -5.652282e+88  0 
 -4.071943e+89  -1.039220e+89  0 
 -4.613969e+89  -1.049252e+89  0 
 -3.897104e+89  -8.844655e+88  0 
 -1.273631e+89  6.402096e+88  0 
 -7.949872e+89  -7.167907e+89  0 
 -4.858069e+89  -6.740574e+89  0 
 -5.535531e+89  -4.059211e+89  0 
 -4.208734e+89  -4.523495e+89  0 
 -4.307777e+89  -3.231152e+89  0 
VECTORS displacement_ITER66 FLOAT
 -1.690770e+89  -1.760977e+89  0 
 -1.665997e+90  -7.129704e+89  0 
 -5.486603e+89  -5.652282e+88  0 
 -4.071943e+89  -1.039220e+89  0 
 -4.613969e+89  -1.049252e+89  0 
 -3.897104e+89  -8.844655e+88  0 
 -1.273631e+89  6.402096e+88  0 
 -7.949872e+89  -7.167907e+89  0 
 -4.858069e+89  -6.740574e+89  0 
 -5.535531e+89  -4.059211e+89  0 
 -4.208734e+89  -4.523495e+89  0 
 -4.307777e+89  -3.231152e+89  0 
VECTORS displacement_ITER67 FLOAT
 -1.690770e+89  -1.760977e+89  0 
 -1.665997e+90  -7.129704e+89  0 
 -5.486603e+89  -5.652282e+88  0 
 -4.071943e+89  -1.039220e+89  0 
 -4.613969e+89  -1.049252e+89  0 
 -3.897104e+89  -8.844655e+88  0 
 -1.273631e+89  6.402096e+88  0 
 -7.949872e+89  -7.167907e+89  0 
 -4.858069e+89  -6.740574e+89  0 
 -5.535531e+89  -4.059211e+89  0 
 -4.208734e+89  -4.523495e+89  0 
 -4.307777e+89  -3.231152e+89  0 
VECTORS displacement_ITER68 FLOAT