# vtk DataFile Version 3.1
this is an vtk file created by FEMAC
ASCII
DATASET UNSTRUCTURED_GRID
POINTS 102 FLOAT
0.000000 0.000000 0.000000
0.500000 0.000000 0.000000
1.000000 0.000000 0.000000
1.500000 0.000000 0.000000
2.000000 0.000000 0.000000
2.500000 0.000000 0.000000
3.000000 0.000000 0.000000
3.500000 0.000000 0.000000
4.000000 0.000000 0.000000
4.500000 0.000000 0.000000
5.000000 0.000000 0.000000
5.500000 0.000000 0.000000
6.000000 0.000000 0.000000
6.500000 0.000000 0.000000
7.000000 0.000000 0.000000
7.500000 0.000000 0.000000
8.000000 0.000000 0.000000
0.000000 0.200000 0.000000
0.500000 0.200000 0.000000
0.000000 0.400000 0.000000
0.500000 0.400000 0.000000
0.000000 0.600000 0.000000
0.500000 0.600000 0.000000
0.000000 0.800000 0.000000
0.500000 0.800000 0.000000
0.000000 1.000000 0.000000
0.500000 1.000000 0.000000
1.000000 0.200000 0.000000
1.000000 0.400000 0.000000
1.000000 0.600000 0.000000
1.000000 0.800000 0.000000
1.000000 1.000000 0.000000
1.500000 0.200000 0.000000
1.500000 0.400000 0.000000
1.500000 0.600000 0.000000
1.500000 0.800000 0.000000
1.500000 1.000000 0.000000
2.000000 0.200000 0.000000
2.000000 0.400000 0.000000
2.000000 0.600000 0.000000
2.000000 0.800000 0.000000
2.000000 1.000000 0.000000
2.500000 0.200000 0.000000
2.500000 0.400000 0.000000
2.500000 0.600000 0.000000
2.500000 0.800000 0.000000
2.500000 1.000000 0.000000
3.000000 0.200000 0.000000
3.000000 0.400000 0.000000
3.000000 0.600000 0.000000
3.000000 0.800000 0.000000
3.000000 1.000000 0.000000
3.500000 0.200000 0.000000
3.500000 0.400000 0.000000
3.500000 0.600000 0.000000
3.500000 0.800000 0.000000
3.500000 1.000000 0.000000
4.000000 0.200000 0.000000
4.000000 0.400000 0.000000
4.000000 0.600000 0.000000
4.000000 0.800000 0.000000
4.000000 1.000000 0.000000
4.500000 0.200000 0.000000
4.500000 0.400000 0.000000
4.500000 0.600000 0.000000
4.500000 0.800000 0.000000
4.500000 1.000000 0.000000
5.000000 0.200000 0.000000
5.000000 0.400000 0.000000
5.000000 0.600000 0.000000
5.000000 0.800000 0.000000
5.000000 1.000000 0.000000
5.500000 0.200000 0.000000
5.500000 0.400000 0.000000
5.500000 0.600000 0.000000
5.500000 0.800000 0.000000
5.500000 1.000000 0.000000
6.000000 0.200000 0.000000
6.000000 0.400000 0.000000
6.000000 0.600000 0.000000
6.000000 0.800000 0.000000
6.000000 1.000000 0.000000
6.500000 0.200000 0.000000
6.500000 0.400000 0.000000
6.500000 0.600000 0.000000
6.500000 0.800000 0.000000
6.500000 1.000000 0.000000
7.000000 0.200000 0.000000
7.000000 0.400000 0.000000
7.000000 0.600000 0.000000
7.000000 0.800000 0.000000
7.000000 1.000000 0.000000
7.500000 0.200000 0.000000
7.500000 0.400000 0.000000
7.500000 0.600000 0.000000
7.500000 0.800000 0.000000
7.500000 1.000000 0.000000
8.000000 0.200000 0.000000
8.000000 0.400000 0.000000
8.000000 0.600000 0.000000
8.000000 0.800000 0.000000
8.000000 1.000000 0.000000
CELLS 80 400 
4 0  1 18 17
4 17 18 20 19
4 19 20 22 21
4 21 22 24 23
4 23 24 26 25
4 1  2 27 18
4 18 27 28 20
4 20 28 29 22
4 22 29 30 24
4 24 30 31 26
4 2  3 32 27
4 27 32 33 28
4 28 33 34 29
4 29 34 35 30
4 30 35 36 31
4 3  4 37 32
4 32 37 38 33
4 33 38 39 34
4 34 39 40 35
4 35 40 41 36
4 4  5 42 37
4 37 42 43 38
4 38 43 44 39
4 39 44 45 40
4 40 45 46 41
4 5  6 47 42
4 42 47 48 43
4 43 48 49 44
4 44 49 50 45
4 45 50 51 46
4 6  7 52 47
4 47 52 53 48
4 48 53 54 49
4 49 54 55 50
4 50 55 56 51
4 7  8 57 52
4 52 57 58 53
4 53 58 59 54
4 54 59 60 55
4 55 60 61 56
4 8  9 62 57
4 57 62 63 58
4 58 63 64 59
4 59 64 65 60
4 60 65 66 61
4 9 10 67 62
4 62 67 68 63
4 63 68 69 64
4 64 69 70 65
4 65 70 71 66
4 10 11 72 67
4 67 72 73 68
4 68 73 74 69
4 69 74 75 70
4 70 75 76 71
4 11 12 77 72
4 72 77 78 73
4 73 78 79 74
4 74 79 80 75
4 75 80 81 76
4 12 13 82 77
4 77 82 83 78
4 78 83 84 79
4 79 84 85 80
4 80 85 86 81
4 13 14 87 82
4 82 87 88 83
4 83 88 89 84
4 84 89 90 85
4 85 90 91 86
4 14 15 92 87
4 87 92 93 88
4 88 93 94 89
4 89 94 95 90
4 90 95 96 91
4 15 16 97 92
4 92 97 98 93
4 93 98 99 94
4 94  99 100  95
4 95 100 101  96
CELL_TYPES 80
9 9 9 9 9 9 9 9 9 9 9 9 9 9 9 9 9 9 9 9 9 9 9 9 9 9 9 9 9 9 9 9 9 9 9 9 9 9 9 9 9 9 9 9 9 9 9 9 9 9 9 9 9 9 9 9 9 9 9 9 9 9 9 9 9 9 9 9 9 9 9 9 9 9 9 9 9 9 9 9 
POINT_DATA 102
SCALARS CONDID_1 FLOAT
LOOKUP_TABLE default
 1 
 0 
 0 
 0 
 0 
 0 
 0 
 0 
 0 
 0 
 0 
 0 
 0 
 0 
 0 
 0 
 0 
 0 
 0 
 0 
 0 
 0 
 0 
 0 
 0 
 0 
 0 
 0 
 0 
 0 
 0 
 0 
 0 
 0 
 0 
 0 
 0 
 0 
 0 
 0 
 0 
 0 
 0 
 0 
 0 
 0 
 0 
 0 
 0 
 0 
 0 
 0 
 0 
 0 
 0 
 0 
 0 
 0 
 0 
 0 
 0 
 0 
 0 
 0 
 0 
 0 
 0 
 0 
 0 
 0 
 0 
 0 
 0 
 0 
 0 
 0 
 0 
 0 
 0 
 0 
 0 
 0 
 0 
 0 
 0 
 0 
 0 
 0 
 0 
 0 
 0 
 0 
 0 
 0 
 0 
 0 
 0 
 0 
 0 
 0 
 0 
 0 
SCALARS CONDID_2 FLOAT
LOOKUP_TABLE default
 1 
 0 
 0 
 0 
 0 
 0 
 0 
 0 
 0 
 0 
 0 
 0 
 0 
 0 
 0 
 0 
 0 
 1 
 0 
 1 
 0 
 1 
 0 
 1 
 0 
 1 
 0 
 0 
 0 
 0 
 0 
 0 
 0 
 0 
 0 
 0 
 0 
 0 
 0 
 0 
 0 
 0 
 0 
 0 
 0 
 0 
 0 
 0 
 0 
 0 
 0 
 0 
 0 
 0 
 0 
 0 
 0 
 0 
 0 
 0 
 0 
 0 
 0 
 0 
 0 
 0 
 0 
 0 
 0 
 0 
 0 
 0 
 0 
 0 
 0 
 0 
 0 
 0 
 0 
 0 
 0 
 0 
 0 
 0 
 0 
 0 
 0 
 0 
 0 
 0 
 0 
 0 
 0 
 0 
 0 
 0 
 0 
 0 
 0 
 0 
 0 
 0 
SCALARS CONDID_3 FLOAT
LOOKUP_TABLE default
 1 
 1 
 1 
 1 
 1 
 1 
 1 
 1 
 1 
 1 
 1 
 1 
 1 
 1 
 1 
 1 
 1 
 1 
 1 
 1 
 1 
 1 
 1 
 1 
 1 
 1 
 1 
 1 
 1 
 1 
 1 
 1 
 1 
 1 
 1 
 1 
 1 
 1 
 1 
 1 
 1 
 1 
 1 
 1 
 1 
 1 
 1 
 1 
 1 
 1 
 1 
 1 
 1 
 1 
 1 
 1 
 1 
 1 
 1 
 1 
 1 
 1 
 1 
 1 
 1 
 1 
 1 
 1 
 1 
 1 
 1 
 1 
 1 
 1 
 1 
 1 
 1 
 1 
 1 
 1 
 1 
 1 
 1 
 1 
 1 
 1 
 1 
 1 
 1 
 1 
 1 
 1 
 1 
 1 
 1 
 1 
 1 
 1 
 1 
 1 
 1 
 1 
VECTORS displacement FLOAT
 0  0  0 
 -6.603040e-08  2.099676e-07  0 
 -1.372704e-07  8.205157e-08  0 
 9.951921e-08  7.879504e-08  0 
 -8.006406e-08  9.404730e-08  0 
 7.638777e-08  1.023479e-07  0 
 -6.464032e-08  9.268305e-08  0 
 5.772182e-08  1.010068e-07  0 
 -4.695195e-08  9.088153e-08  0 
 4.041137e-08  9.970922e-08  0 
 -2.947057e-08  8.959554e-08  0 
 2.292680e-08  9.843748e-08  0 
 -1.201487e-08  8.807994e-08  0 
 5.931176e-09  9.777345e-08  0 
 4.153698e-09  9.241405e-08  0 
 -2.756067e-09  8.709037e-08  0 
 4.759702e-08  5.146576e-07  0 
 0  -2.745788e-07  0 
 -2.815987e-08  1.197334e-07  0 
 0  -1.626085e-06  0 
 3.138706e-07  -2.133164e-08  0 
 0  -1.680480e-06  0 
 -5.300890e-08  -1.268695e-07  0 
 0  -2.019657e-06  0 
 2.822735e-07  -1.394417e-07  0 
 0  -2.026249e-06  0 
 -4.624612e-07  -1.952298e-08  0 
 -2.493075e-08  -8.515465e-08  0 
 1.085041e-09  -9.663961e-08  0 
 8.693657e-08  -9.907680e-08  0 
 -9.791006e-09  7.564661e-09  0 
 9.748684e-08  1.687196e-07  0 
 2.350401e-08  -2.533708e-08  0 
 1.707610e-08  -7.507746e-08  0 
 -2.025332e-08  -6.026453e-08  0 
 -3.993406e-08  -1.631752e-09  0 
 -9.342821e-08  1.060510e-07  0 
 -3.239655e-08  -2.853758e-08  0 
 -5.939772e-09  -7.936257e-08  0 
 7.855044e-10  -7.647674e-08  0 
 4.009322e-08  -2.802329e-08  0 
 9.103792e-08  9.581762e-08  0 
 2.692827e-08  -1.826560e-08  0 
 1.369971e-09  -7.067621e-08  0 
 -6.553510e-09  -7.199835e-08  0 
 -3.093141e-08  -2.040818e-08  0 
 -8.071736e-08  1.015357e-07  0 
 -2.807299e-08  -2.528500e-08  0 
 1.924052e-09  -7.804815e-08  0 
 2.320610e-09  -7.797384e-08  0 
 3.169492e-08  -2.641149e-08  0 
 7.029000e-08  9.250016e-08  0 
 1.971713e-08  -1.840491e-08  0 
 -2.026724e-10  -7.170986e-08  0 
 -3.148835e-09  -7.124437e-08  0 
 -2.352480e-08  -1.872385e-08  0 
 -6.407891e-08  1.016114e-07  0 
 -2.029333e-08  -2.452638e-08  0 
 3.919735e-09  -7.800906e-08  0 
 -3.734554e-10  -7.763682e-08  0 
 2.421180e-08  -2.481514e-08  0 
 5.300347e-08  9.157061e-08  0 
 1.202907e-08  -1.723935e-08  0 
 -2.666670e-09  -7.148682e-08  0 
 -9.267872e-10  -7.113990e-08  0 
 -1.594872e-08  -1.761873e-08  0 
 -4.641453e-08  1.003108e-07  0 
 -1.266249e-08  -2.331441e-08  0 
 6.257466e-09  -7.782171e-08  0 
 -2.685522e-09  -7.747044e-08  0 
 1.656872e-08  -2.370485e-08  0 
 3.550866e-08  9.018061e-08  0 
 4.361283e-09  -1.611620e-08  0 
 -4.958248e-09  -7.132448e-08  0 
 1.376978e-09  -7.097632e-08  0 
 -8.263786e-09  -1.650720e-08  0 
 -2.895930e-08  9.902198e-08  0 
 -4.859410e-09  -2.203257e-08  0 
 8.216710e-09  -7.756676e-08  0 
 -4.629353e-09  -7.723434e-08  0 
 8.764160e-09  -2.243554e-08  0 
 1.803904e-08  8.865403e-08  0 
 -4.539183e-09  -1.491827e-08  0 
 -6.092286e-09  -7.186701e-08  0 
 2.600620e-09  -7.148839e-08  0 
 5.947488e-10  -1.531954e-08  0 
 -1.201135e-08  9.835500e-08  0 
 6.409333e-09  -2.444028e-08  0 
 6.112659e-09  -7.978711e-08  0 
 -2.530586e-09  -7.935024e-08  0 
 -2.362767e-09  -2.458010e-08  0 
 1.733932e-09  9.320843e-08  0 
 -3.173646e-08  3.499219e-09  0 
 7.746291e-09  -8.050866e-08  0 
 -1.214800e-08  -8.000365e-08  0 
 2.812528e-08  3.876834e-09  0 
 -2.747320e-09  8.858115e-08  0 
 -4.006676e-08  -2.588024e-07  0 
 5.188439e-08  -2.615967e-07  0 
 -5.227565e-08  -2.634451e-07  0 
 4.117620e-08  -2.615928e-07  0 
 -3.479894e-08  5.082441e-07  0 
CELL_DATA 80
SCALARS MATID_1 FLOAT
LOOKUP_TABLE default
 1 
 0 
 1 
 0 
 1 
 0 
 1 
 0 
 1 
 0 
 1 
 0 
 1 
 0 
 1 
 0 
 1 
 0 
 1 
 0 
 1 
 0 
 1 
 0 
 1 
 0 
 1 
 0 
 1 
 0 
 1 
 0 
 1 
 0 
 1 
 0 
 1 
 0 
 1 
 0 
 1 
 0 
 1 
 0 
 1 
 0 
 1 
 0 
 1 
 0 
 1 
 0 
 1 
 0 
 1 
 0 
 1 
 0 
 1 
 0 
 1 
 0 
 1 
 0 
 1 
 0 
 1 
 0 
 1 
 0 
 1 
 0 
 1 
 0 
 1 
 0 
 1 
 0 
 1 
 0 
SCALARS MATID_2 FLOAT
LOOKUP_TABLE default
 0 
 1 
 0 
 1 
 0 
 1 
 0 
 1 
 0 
 1 
 0 
 1 
 0 
 1 
 0 
 1 
 0 
 1 
 0 
 1 
 0 
 1 
 0 
 1 
 0 
 1 
 0 
 1 
 0 
 1 
 0 
 1 
 0 
 1 
 0 
 1 
 0 
 1 
 0 
 1 
 0 
 1 
 0 
 1 
 0 
 1 
 0 
 1 
 0 
 1 
 0 
 1 
 0 
 1 
 0 
 1 
 0 
 1 
 0 
 1 
 0 
 1 
 0 
 1 
 0 
 1 
 0 
 1 
 0 
 1 
 0 
 1 
 0 
 1 
 0 
 1 
 0 
 1 
 0 
 1 
SCALARS SUB_ID FLOAT
LOOKUP_TABLE default
 1 
 1 
 1 
 1 
 1 
 2 
 2 
 2 
 2 
 2 
 3 
 3 
 3 
 3 
 3 
 4 
 4 
 4 
 4 
 4 
 5 
 5 
 5 
 5 
 5 
 6 
 6 
 6 
 6 
 6 
 7 
 7 
 7 
 7 
 7 
 8 
 8 
 8 
 8 
 8 
 9 
 9 
 9 
 9 
 9 
 10 
 10 
 10 
 10 
 10 
 11 
 11 
 11 
 11 
 11 
 12 
 12 
 12 
 12 
 12 
 13 
 13 
 13 
 13 
 13 
 14 
 14 
 14 
 14 
 14 
 15 
 15 
 15 
 15 
 15 
 16 
 16 
 16 
 16 
 16 
VECTORS SubCenter_Diff FLOAT
 -3.750000e+00  0  0 
 -3.750000e+00  0  0 
 -3.750000e+00  0  0 
 -3.750000e+00  0  0 
 -3.750000e+00  0  0 
 -3.250000e+00  0  0 
 -3.250000e+00  0  0 
 -3.250000e+00  0  0 
 -3.250000e+00  0  0 
 -3.250000e+00  0  0 
 -2.750000e+00  0  0 
 -2.750000e+00  0  0 
 -2.750000e+00  0  0 
 -2.750000e+00  0  0 
 -2.750000e+00  0  0 
 -2.250000e+00  0  0 
 -2.250000e+00  0  0 
 -2.250000e+00  0  0 
 -2.250000e+00  0  0 
 -2.250000e+00  0  0 
 -1.750000e+00  0  0 
 -1.750000e+00  0  0 
 -1.750000e+00  0  0 
 -1.750000e+00  0  0 
 -1.750000e+00  0  0 
 -1.250000e+00  0  0 
 -1.250000e+00  0  0 
 -1.250000e+00  0  0 
 -1.250000e+00  0  0 
 -1.250000e+00  0  0 
 -7.500000e-01  0  0 
 -7.500000e-01  0  0 
 -7.500000e-01  0  0 
 -7.500000e-01  0  0 
 -7.500000e-01  0  0 
 -2.500000e-01  0  0 
 -2.500000e-01  0  0 
 -2.500000e-01  0  0 
 -2.500000e-01  0  0 
 -2.500000e-01  0  0 
 2.500000e-01  0  0 
 2.500000e-01  0  0 
 2.500000e-01  0  0 
 2.500000e-01  0  0 
 2.500000e-01  0  0 
 7.500000e-01  0  0 
 7.500000e-01  0  0 
 7.500000e-01  0  0 
 7.500000e-01  0  0 
 7.500000e-01  0  0 
 1.250000e+00  0  0 
 1.250000e+00  0  0 
 1.250000e+00  0  0 
 1.250000e+00  0  0 
 1.250000e+00  0  0 
 1.750000e+00  0  0 
 1.750000e+00  0  0 
 1.750000e+00  0  0 
 1.750000e+00  0  0 
 1.750000e+00  0  0 
 2.250000e+00  0  0 
 2.250000e+00  0  0 
 2.250000e+00  0  0 
 2.250000e+00  0  0 
 2.250000e+00  0  0 
 2.750000e+00  0  0 
 2.750000e+00  0  0 
 2.750000e+00  0  0 
 2.750000e+00  0  0 
 2.750000e+00  0  0 
 3.250000e+00  0  0 
 3.250000e+00  0  0 
 3.250000e+00  0  0 
 3.250000e+00  0  0 
 3.250000e+00  0  0 
 3.750000e+00  0  0 
 3.750000e+00  0  0 
 3.750000e+00  0  0 
 3.750000e+00  0  0 
 3.750000e+00  0  0 
