# vtk DataFile Version 3.1
this is an vtk file created by FEMAC
ASCII
DATASET UNSTRUCTURED_GRID
POINTS 12 FLOAT
6.500000 0.000000 0.000000
7.000000 0.000000 0.000000
6.500000 0.200000 0.000000
6.500000 0.400000 0.000000
6.500000 0.600000 0.000000
6.500000 0.800000 0.000000
6.500000 1.000000 0.000000
7.000000 0.200000 0.000000
7.000000 0.400000 0.000000
7.000000 0.600000 0.000000
7.000000 0.800000 0.000000
7.000000 1.000000 0.000000
CELLS 5 25 
4 0 1 7 2
4 2 7 8 3
4 3 8 9 4
4 4  9 10  5
4 5 10 11  6
CELL_TYPES 5
9 9 9 9 9 
POINT_DATA 12
VECTORS displacement_ITER1 FLOAT
 -5.599478e-03  -4.894960e-02  0 
 -5.668684e-03  -5.459905e-02  0 
 -3.370987e-03  -4.894185e-02  0 
 -1.110336e-03  -4.893885e-02  0 
 1.152567e-03  -4.893885e-02  0 
 3.413218e-03  -4.894185e-02  0 
 5.641709e-03  -4.894960e-02  0 
 -3.383664e-03  -5.460708e-02  0 
 -1.115154e-03  -5.460898e-02  0 
 1.157385e-03  -5.460898e-02  0 
 3.425895e-03  -5.460708e-02  0 
 5.710915e-03  -5.459905e-02  0 
VECTORS displacement_ITER2 FLOAT
 -5.284873e-03  -4.741639e-02  0 
 -5.329171e-03  -5.274380e-02  0 
 -3.169588e-03  -4.741268e-02  0 
 -1.044344e-03  -4.741113e-02  0 
 1.079825e-03  -4.741113e-02  0 
 3.205069e-03  -4.741268e-02  0 
 5.320354e-03  -4.741639e-02  0 
 -3.185825e-03  -5.274336e-02  0 
 -1.050900e-03  -5.274466e-02  0 
 1.086382e-03  -5.274466e-02  0 
 3.221306e-03  -5.274336e-02  0 
 5.364652e-03  -5.274380e-02  0 
VECTORS displacement_ITER3 FLOAT
 -5.280669e-03  -4.734685e-02  0 
 -5.321571e-03  -5.266657e-02  0 
 -3.167459e-03  -4.734759e-02  0 
 -1.047264e-03  -4.734596e-02  0 
 1.071552e-03  -4.734596e-02  0 
 3.191747e-03  -4.734759e-02  0 
 5.304958e-03  -4.734685e-02  0 
 -3.184176e-03  -5.266618e-02  0 
 -1.053926e-03  -5.266718e-02  0 
 1.078215e-03  -5.266718e-02  0 
 3.208465e-03  -5.266618e-02  0 
 5.345859e-03  -5.266657e-02  0 
VECTORS displacement_ITER4 FLOAT
 -5.279864e-03  -4.733756e-02  0 
 -5.320473e-03  -5.265577e-02  0 
 -3.166919e-03  -4.733782e-02  0 
 -1.047108e-03  -4.733621e-02  0 
 1.070787e-03  -4.733621e-02  0 
 3.190598e-03  -4.733782e-02  0 
 5.303543e-03  -4.733756e-02  0 
 -3.183680e-03  -5.265541e-02  0 
 -1.053828e-03  -5.265639e-02  0 
 1.077507e-03  -5.265639e-02  0 
 3.207359e-03  -5.265541e-02  0 
 5.344151e-03  -5.265577e-02  0 
VECTORS displacement_ITER5 FLOAT
 -5.280778e-03  -4.733791e-02  0 
 -5.321388e-03  -5.265641e-02  0 
 -3.167718e-03  -4.733817e-02  0 
 -1.047791e-03  -4.733657e-02  0 
 1.070223e-03  -4.733657e-02  0 
 3.190148e-03  -4.733817e-02  0 
 5.303205e-03  -4.733792e-02  0 
 -3.184478e-03  -5.265605e-02  0 
 -1.054510e-03  -5.265703e-02  0 
 1.076942e-03  -5.265703e-02  0 
 3.206909e-03  -5.265605e-02  0 
 5.343817e-03  -5.265641e-02  0 
VECTORS displacement_ITER6 FLOAT
 -5.281099e-03  -4.733805e-02  0 
 -5.321710e-03  -5.265657e-02  0 
 -3.168030e-03  -4.733830e-02  0 
 -1.048093e-03  -4.733670e-02  0 
 1.069932e-03  -4.733670e-02  0 
 3.189869e-03  -4.733830e-02  0 
 5.302938e-03  -4.733805e-02  0 
 -3.184790e-03  -5.265621e-02  0 
 -1.054811e-03  -5.265720e-02  0 
 1.076651e-03  -5.265720e-02  0 
 3.206629e-03  -5.265621e-02  0 
 5.343549e-03  -5.265657e-02  0 
VECTORS displacement_ITER7 FLOAT
 -5.281008e-03  -4.733806e-02  0 
 -5.321618e-03  -5.265659e-02  0 
 -3.167937e-03  -4.733831e-02  0 
 -1.047998e-03  -4.733671e-02  0 
 1.070028e-03  -4.733671e-02  0 
 3.189967e-03  -4.733831e-02  0 
 5.303038e-03  -4.733806e-02  0 
 -3.184697e-03  -5.265623e-02  0 
 -1.054717e-03  -5.265721e-02  0 
 1.076747e-03  -5.265721e-02  0 
 3.206727e-03  -5.265623e-02  0 
 5.343648e-03  -5.265659e-02  0 
VECTORS displacement_ITER8 FLOAT
 -5.281030e-03  -4.733806e-02  0 
 -5.321641e-03  -5.265659e-02  0 
 -3.167959e-03  -4.733831e-02  0 
 -1.048021e-03  -4.733671e-02  0 
 1.070005e-03  -4.733671e-02  0 
 3.189943e-03  -4.733831e-02  0 
 5.303014e-03  -4.733806e-02  0 
 -3.184720e-03  -5.265623e-02  0 
 -1.054740e-03  -5.265721e-02  0 
 1.076724e-03  -5.265721e-02  0 
 3.206704e-03  -5.265623e-02  0 
 5.343625e-03  -5.265659e-02  0 
VECTORS displacement_ITER9 FLOAT
 -5.281030e-03  -4.733806e-02  0 
 -5.321640e-03  -5.265659e-02  0 
 -3.167959e-03  -4.733831e-02  0 
 -1.048021e-03  -4.733671e-02  0 
 1.070005e-03  -4.733671e-02  0 
 3.189943e-03  -4.733831e-02  0 
 5.303014e-03  -4.733806e-02  0 
 -3.184720e-03  -5.265623e-02  0 
 -1.054740e-03  -5.265721e-02  0 
 1.076724e-03  -5.265721e-02  0 
 3.206704e-03  -5.265623e-02  0 
 5.343625e-03  -5.265659e-02  0 
VECTORS displacement_ITER10 FLOAT
 -5.876157e-01  1.365669e+00  0 
 -8.198174e-01  1.012273e+00  0 
 -5.887171e-01  1.363322e+00  0 
 -4.436138e-01  1.363561e+00  0 
 -3.174294e-01  1.362027e+00  0 
 -1.758868e-01  1.365745e+00  0 
 -1.895095e-01  1.367379e+00  0 
 -6.812506e-01  1.046059e+00  0 
 -5.625900e-01  1.041743e+00  0 
 -2.027820e-01  1.044652e+00  0 
 -8.478278e-02  1.048551e+00  0 
 6.689715e-02  1.015601e+00  0 
VECTORS displacement_ITER11 FLOAT
 -3.924097e+13  1.009816e+14  0 
 -1.894211e+13  8.113038e+13  0 
 -1.251410e+13  1.062131e+14  0 
 -9.120440e+12  1.147626e+14  0 
 2.460756e+12  1.067673e+14  0 
 3.969190e+12  9.930523e+13  0 
 1.561184e+13  8.175449e+13  0 
 -3.048055e+13  6.812567e+13  0 
 5.360572e+12  6.018123e+13  0 
 -7.538843e+12  6.399589e+13  0 
 2.013704e+13  7.135068e+13  0 
 1.225133e+13  8.873876e+13  0 
VECTORS displacement_ITER12 FLOAT
 1.011271e+29  2.393299e+29  0 
 1.035954e+29  3.607472e+29  0 
 5.622580e+28  2.545664e+29  0 
 2.835700e+28  2.537284e+29  0 
 5.299544e+27  2.550686e+29  0 
 -1.783413e+28  2.589473e+29  0 
 -3.007586e+28  2.416422e+29  0 
 6.816086e+28  3.273308e+29  0 
 3.695580e+28  3.282157e+29  0 
 3.622451e+27  3.168155e+29  0 
 -2.050653e+28  3.136239e+29  0 
 -4.284631e+28  3.389456e+29  0 
VECTORS displacement_ITER13 FLOAT
 1.289355e+43  1.403956e+44  0 
 1.644711e+43  1.198420e+44  0 
 2.394580e+43  1.294274e+44  0 
 2.254072e+43  1.249151e+44  0 
 9.662055e+42  1.189800e+44  0 
 -4.707226e+42  1.186170e+44  0 
 -1.936478e+43  1.379957e+44  0 
 2.420667e+43  1.303713e+44  0 
 2.032532e+43  1.334987e+44  0 
 -1.113406e+42  1.481064e+44  0 
 -7.440576e+42  1.478022e+44  0 
 -1.835099e+43  1.397224e+44  0 
VECTORS displacement_ITER14 FLOAT
 -8.362890e+58  -5.365854e+58  0 
 -1.125703e+59  -1.752727e+59  0 
 -1.499360e+58  -2.155428e+58  0 
 4.103870e+58  -2.448605e+58  0 
 5.658447e+58  -1.053167e+59  0 
 2.543779e+58  -1.044210e+59  0 
 -7.070212e+58  -2.511175e+59  0 
 -2.268554e+58  -1.568619e+59  0 
 2.840312e+58  -1.556913e+59  0 
 2.309368e+58  -4.219461e+58  0 
 -2.801194e+57  -4.621960e+58  0 
 -6.089092e+58  3.382968e+58  0 
VECTORS displacement_ITER15 FLOAT
 -1.533868e+74  -3.413594e+74  0 
 -3.628999e+74  -7.292514e+74  0 
 -1.529360e+74  -3.773105e+74  0 
 -4.349294e+72  -4.029336e+74  0 
 -3.879048e+73  -4.314221e+74  0 
 -3.085258e+73  -4.270359e+74  0 
 3.144945e+73  -5.152100e+74  0 
 -1.436736e+74  -7.148062e+74  0 
 -5.521658e+73  -6.885900e+74  0 
 -4.503240e+73  -4.864905e+74  0 
 -3.022900e+73  -4.844982e+74  0 
 -2.098627e+74  -3.107396e+74  0 
VECTORS displacement_ITER16 FLOAT
 -8.194348e+89  -1.625114e+90  0 
 -3.303496e+89  -1.104983e+90  0 
 -1.403409e+90  -1.186122e+90  0 
 -1.221202e+90  -1.044600e+90  0 
 -8.570088e+89  -5.005700e+89  0 
 -5.698967e+89  -5.060351e+89  0 
 1.956401e+89  -8.629210e+89  0 
 -8.831855e+89  -1.047386e+90  0 
 -1.111529e+90  -1.196888e+90  0 
 -6.179432e+89  -1.479068e+90  0 
 -1.316651e+89  -1.393167e+90  0 
 -7.530684e+89  -9.287447e+89  0 
VECTORS displacement_ITER17 FLOAT
 -8.194348e+89  -1.625114e+90  0 
 -3.303496e+89  -1.104983e+90  0 
 -1.403409e+90  -1.186122e+90  0 
 -1.221202e+90  -1.044600e+90  0 
 -8.570088e+89  -5.005700e+89  0 
 -5.698967e+89  -5.060351e+89  0 
 1.956401e+89  -8.629210e+89  0 
 -8.831855e+89  -1.047386e+90  0 
 -1.111529e+90  -1.196888e+90  0 
 -6.179432e+89  -1.479068e+90  0 
 -1.316651e+89  -1.393167e+90  0 
 -7.530684e+89  -9.287447e+89  0 
VECTORS displacement_ITER18 FLOAT
 -8.194348e+89  -1.625114e+90  0 
 -3.303496e+89  -1.104983e+90  0 
 -1.403409e+90  -1.186122e+90  0 
 -1.221202e+90  -1.044600e+90  0 
 -8.570088e+89  -5.005700e+89  0 
 -5.698967e+89  -5.060351e+89  0 
 1.956401e+89  -8.629210e+89  0 
 -8.831855e+89  -1.047386e+90  0 
 -1.111529e+90  -1.196888e+90  0 
 -6.179432e+89  -1.479068e+90  0 
 -1.316651e+89  -1.393167e+90  0 
 -7.530684e+89  -9.287447e+89  0 
VECTORS displacement_ITER19 FLOAT
 -8.194348e+89  -1.625114e+90  0 
 -3.303496e+89  -1.104983e+90  0 
 -1.403409e+90  -1.186122e+90  0 
 -1.221202e+90  -1.044600e+90  0 
 -8.570088e+89  -5.005700e+89  0 
 -5.698967e+89  -5.060351e+89  0 
 1.956401e+89  -8.629210e+89  0 
 -8.831855e+89  -1.047386e+90  0 
 -1.111529e+90  -1.196888e+90  0 
 -6.179432e+89  -1.479068e+90  0 
 -1.316651e+89  -1.393167e+90  0 
 -7.530684e+89  -9.287447e+89  0 
VECTORS displacement_ITER20 FLOAT
 -8.194348e+89  -1.625114e+90  0 
 -3.303496e+89  -1.104983e+90  0 
 -1.403409e+90  -1.186122e+90  0 
 -1.221202e+90  -1.044600e+90  0 
 -8.570088e+89  -5.005700e+89  0 
 -5.698967e+89  -5.060351e+89  0 
 1.956401e+89  -8.629210e+89  0 
 -8.831855e+89  -1.047386e+90  0 
 -1.111529e+90  -1.196888e+90  0 
 -6.179432e+89  -1.479068e+90  0 
 -1.316651e+89  -1.393167e+90  0 
 -7.530684e+89  -9.287447e+89  0 
VECTORS displacement_ITER21 FLOAT
 -8.194348e+89  -1.625114e+90  0 
 -3.303496e+89  -1.104983e+90  0 
 -1.403409e+90  -1.186122e+90  0 
 -1.221202e+90  -1.044600e+90  0 
 -8.570088e+89  -5.005700e+89  0 
 -5.698967e+89  -5.060351e+89  0 
 1.956401e+89  -8.629210e+89  0 
 -8.831855e+89  -1.047386e+90  0 
 -1.111529e+90  -1.196888e+90  0 
 -6.179432e+89  -1.479068e+90  0 
 -1.316651e+89  -1.393167e+90  0 
 -7.530684e+89  -9.287447e+89  0 
VECTORS displacement_ITER22 FLOAT
 -8.194348e+89  -1.625114e+90  0 
 -3.303496e+89  -1.104983e+90  0 
 -1.403409e+90  -1.186122e+90  0 
 -1.221202e+90  -1.044600e+90  0 
 -8.570088e+89  -5.005700e+89  0 
 -5.698967e+89  -5.060351e+89  0 
 1.956401e+89  -8.629210e+89  0 
 -8.831855e+89  -1.047386e+90  0 
 -1.111529e+90  -1.196888e+90  0 
 -6.179432e+89  -1.479068e+90  0 
 -1.316651e+89  -1.393167e+90  0 
 -7.530684e+89  -9.287447e+89  0 
VECTORS displacement_ITER23 FLOAT
 -8.194348e+89  -1.625114e+90  0 
 -3.303496e+89  -1.104983e+90  0 
 -1.403409e+90  -1.186122e+90  0 
 -1.221202e+90  -1.044600e+90  0 
 -8.570088e+89  -5.005700e+89  0 
 -5.698967e+89  -5.060351e+89  0 
 1.956401e+89  -8.629210e+89  0 
 -8.831855e+89  -1.047386e+90  0 
 -1.111529e+90  -1.196888e+90  0 
 -6.179432e+89  -1.479068e+90  0 
 -1.316651e+89  -1.393167e+90  0 
 -7.530684e+89  -9.287447e+89  0 
VECTORS displacement_ITER24 FLOAT
 -8.194348e+89  -1.625114e+90  0 
 -3.303496e+89  -1.104983e+90  0 
 -1.403409e+90  -1.186122e+90  0 
 -1.221202e+90  -1.044600e+90  0 
 -8.570088e+89  -5.005700e+89  0 
 -5.698967e+89  -5.060351e+89  0 
 1.956401e+89  -8.629210e+89  0 
 -8.831855e+89  -1.047386e+90  0 
 -1.111529e+90  -1.196888e+90  0 
 -6.179432e+89  -1.479068e+90  0 
 -1.316651e+89  -1.393167e+90  0 
 -7.530684e+89  -9.287447e+89  0 
VECTORS displacement_ITER25 FLOAT
 -8.194348e+89  -1.625114e+90  0 
 -3.303496e+89  -1.104983e+90  0 
 -1.403409e+90  -1.186122e+90  0 
 -1.221202e+90  -1.044600e+90  0 
 -8.570088e+89  -5.005700e+89  0 
 -5.698967e+89  -5.060351e+89  0 
 1.956401e+89  -8.629210e+89  0 
 -8.831855e+89  -1.047386e+90  0 
 -1.111529e+90  -1.196888e+90  0 
 -6.179432e+89  -1.479068e+90  0 
 -1.316651e+89  -1.393167e+90  0 
 -7.530684e+89  -9.287447e+89  0 
VECTORS displacement_ITER26 FLOAT
 -8.194348e+89  -1.625114e+90  0 
 -3.303496e+89  -1.104983e+90  0 
 -1.403409e+90  -1.186122e+90  0 
 -1.221202e+90  -1.044600e+90  0 
 -8.570088e+89  -5.005700e+89  0 
 -5.698967e+89  -5.060351e+89  0 
 1.956401e+89  -8.629210e+89  0 
 -8.831855e+89  -1.047386e+90  0 
 -1.111529e+90  -1.196888e+90  0 
 -6.179432e+89  -1.479068e+90  0 
 -1.316651e+89  -1.393167e+90  0 
 -7.530684e+89  -9.287447e+89  0 
VECTORS displacement_ITER27 FLOAT
 -8.194348e+89  -1.625114e+90  0 
 -3.303496e+89  -1.104983e+90  0 
 -1.403409e+90  -1.186122e+90  0 
 -1.221202e+90  -1.044600e+90  0 
 -8.570088e+89  -5.005700e+89  0 
 -5.698967e+89  -5.060351e+89  0 
 1.956401e+89  -8.629210e+89  0 
 -8.831855e+89  -1.047386e+90  0 
 -1.111529e+90  -1.196888e+90  0 
 -6.179432e+89  -1.479068e+90  0 
 -1.316651e+89  -1.393167e+90  0 
 -7.530684e+89  -9.287447e+89  0 
VECTORS displacement_ITER28 FLOAT
 -8.194348e+89  -1.625114e+90  0 
 -3.303496e+89  -1.104983e+90  0 
 -1.403409e+90  -1.186122e+90  0 
 -1.221202e+90  -1.044600e+90  0 
 -8.570088e+89  -5.005700e+89  0 
 -5.698967e+89  -5.060351e+89  0 
 1.956401e+89  -8.629210e+89  0 
 -8.831855e+89  -1.047386e+90  0 
 -1.111529e+90  -1.196888e+90  0 
 -6.179432e+89  -1.479068e+90  0 
 -1.316651e+89  -1.393167e+90  0 
 -7.530684e+89  -9.287447e+89  0 
VECTORS displacement_ITER29 FLOAT
 -8.194348e+89  -1.625114e+90  0 
 -3.303496e+89  -1.104983e+90  0 
 -1.403409e+90  -1.186122e+90  0 
 -1.221202e+90  -1.044600e+90  0 
 -8.570088e+89  -5.005700e+89  0 
 -5.698967e+89  -5.060351e+89  0 
 1.956401e+89  -8.629210e+89  0 
 -8.831855e+89  -1.047386e+90  0 
 -1.111529e+90  -1.196888e+90  0 
 -6.179432e+89  -1.479068e+90  0 
 -1.316651e+89  -1.393167e+90  0 
 -7.530684e+89  -9.287447e+89  0 
VECTORS displacement_ITER30 FLOAT
 -8.194348e+89  -1.625114e+90  0 
 -3.303496e+89  -1.104983e+90  0 
 -1.403409e+90  -1.186122e+90  0 
 -1.221202e+90  -1.044600e+90  0 
 -8.570088e+89  -5.005700e+89  0 
 -5.698967e+89  -5.060351e+89  0 
 1.956401e+89  -8.629210e+89  0 
 -8.831855e+89  -1.047386e+90  0 
 -1.111529e+90  -1.196888e+90  0 
 -6.179432e+89  -1.479068e+90  0 
 -1.316651e+89  -1.393167e+90  0 
 -7.530684e+89  -9.287447e+89  0 
VECTORS displacement_ITER31 FLOAT
 -8.194348e+89  -1.625114e+90  0 
 -3.303496e+89  -1.104983e+90  0 
 -1.403409e+90  -1.186122e+90  0 
 -1.221202e+90  -1.044600e+90  0 
 -8.570088e+89  -5.005700e+89  0 
 -5.698967e+89  -5.060351e+89  0 
 1.956401e+89  -8.629210e+89  0 
 -8.831855e+89  -1.047386e+90  0 
 -1.111529e+90  -1.196888e+90  0 
 -6.179432e+89  -1.479068e+90  0 
 -1.316651e+89  -1.393167e+90  0 
 -7.530684e+89  -9.287447e+89  0 
VECTORS displacement_ITER32 FLOAT
 -8.194348e+89  -1.625114e+90  0 
 -3.303496e+89  -1.104983e+90  0 
 -1.403409e+90  -1.186122e+90  0 
 -1.221202e+90  -1.044600e+90  0 
 -8.570088e+89  -5.005700e+89  0 
 -5.698967e+89  -5.060351e+89  0 
 1.956401e+89  -8.629210e+89  0 
 -8.831855e+89  -1.047386e+90  0 
 -1.111529e+90  -1.196888e+90  0 
 -6.179432e+89  -1.479068e+90  0 
 -1.316651e+89  -1.393167e+90  0 
 -7.530684e+89  -9.287447e+89  0 
VECTORS displacement_ITER33 FLOAT
 -8.194348e+89  -1.625114e+90  0 
 -3.303496e+89  -1.104983e+90  0 
 -1.403409e+90  -1.186122e+90  0 
 -1.221202e+90  -1.044600e+90  0 
 -8.570088e+89  -5.005700e+89  0 
 -5.698967e+89  -5.060351e+89  0 
 1.956401e+89  -8.629210e+89  0 
 -8.831855e+89  -1.047386e+90  0 
 -1.111529e+90  -1.196888e+90  0 
 -6.179432e+89  -1.479068e+90  0 
 -1.316651e+89  -1.393167e+90  0 
 -7.530684e+89  -9.287447e+89  0 
VECTORS displacement_ITER34 FLOAT
 -8.194348e+89  -1.625114e+90  0 
 -3.303496e+89  -1.104983e+90  0 
 -1.403409e+90  -1.186122e+90  0 
 -1.221202e+90  -1.044600e+90  0 
 -8.570088e+89  -5.005700e+89  0 
 -5.698967e+89  -5.060351e+89  0 
 1.956401e+89  -8.629210e+89  0 
 -8.831855e+89  -1.047386e+90  0 
 -1.111529e+90  -1.196888e+90  0 
 -6.179432e+89  -1.479068e+90  0 
 -1.316651e+89  -1.393167e+90  0 
 -7.530684e+89  -9.287447e+89  0 
VECTORS displacement_ITER35 FLOAT
 -8.194348e+89  -1.625114e+90  0 
 -3.303496e+89  -1.104983e+90  0 
 -1.403409e+90  -1.186122e+90  0 
 -1.221202e+90  -1.044600e+90  0 
 -8.570088e+89  -5.005700e+89  0 
 -5.698967e+89  -5.060351e+89  0 
 1.956401e+89  -8.629210e+89  0 
 -8.831855e+89  -1.047386e+90  0 
 -1.111529e+90  -1.196888e+90  0 
 -6.179432e+89  -1.479068e+90  0 
 -1.316651e+89  -1.393167e+90  0 
 -7.530684e+89  -9.287447e+89  0 
VECTORS displacement_ITER36 FLOAT
 -8.194348e+89  -1.625114e+90  0 
 -3.303496e+89  -1.104983e+90  0 
 -1.403409e+90  -1.186122e+90  0 
 -1.221202e+90  -1.044600e+90  0 
 -8.570088e+89  -5.005700e+89  0 
 -5.698967e+89  -5.060351e+89  0 
 1.956401e+89  -8.629210e+89  0 
 -8.831855e+89  -1.047386e+90  0 
 -1.111529e+90  -1.196888e+90  0 
 -6.179432e+89  -1.479068e+90  0 
 -1.316651e+89  -1.393167e+90  0 
 -7.530684e+89  -9.287447e+89  0 
VECTORS displacement_ITER37 FLOAT
 -8.194348e+89  -1.625114e+90  0 
 -3.303496e+89  -1.104983e+90  0 
 -1.403409e+90  -1.186122e+90  0 
 -1.221202e+90  -1.044600e+90  0 
 -8.570088e+89  -5.005700e+89  0 
 -5.698967e+89  -5.060351e+89  0 
 1.956401e+89  -8.629210e+89  0 
 -8.831855e+89  -1.047386e+90  0 
 -1.111529e+90  -1.196888e+90  0 
 -6.179432e+89  -1.479068e+90  0 
 -1.316651e+89  -1.393167e+90  0 
 -7.530684e+89  -9.287447e+89  0 
VECTORS displacement_ITER38 FLOAT
 -8.194348e+89  -1.625114e+90  0 
 -3.303496e+89  -1.104983e+90  0 
 -1.403409e+90  -1.186122e+90  0 
 -1.221202e+90  -1.044600e+90  0 
 -8.570088e+89  -5.005700e+89  0 
 -5.698967e+89  -5.060351e+89  0 
 1.956401e+89  -8.629210e+89  0 
 -8.831855e+89  -1.047386e+90  0 
 -1.111529e+90  -1.196888e+90  0 
 -6.179432e+89  -1.479068e+90  0 
 -1.316651e+89  -1.393167e+90  0 
 -7.530684e+89  -9.287447e+89  0 
VECTORS displacement_ITER39 FLOAT
 -8.194348e+89  -1.625114e+90  0 
 -3.303496e+89  -1.104983e+90  0 
 -1.403409e+90  -1.186122e+90  0 
 -1.221202e+90  -1.044600e+90  0 
 -8.570088e+89  -5.005700e+89  0 
 -5.698967e+89  -5.060351e+89  0 
 1.956401e+89  -8.629210e+89  0 
 -8.831855e+89  -1.047386e+90  0 
 -1.111529e+90  -1.196888e+90  0 
 -6.179432e+89  -1.479068e+90  0 
 -1.316651e+89  -1.393167e+90  0 
 -7.530684e+89  -9.287447e+89  0 
VECTORS displacement_ITER40 FLOAT
 -8.194348e+89  -1.625114e+90  0 
 -3.303496e+89  -1.104983e+90  0 
 -1.403409e+90  -1.186122e+90  0 
 -1.221202e+90  -1.044600e+90  0 
 -8.570088e+89  -5.005700e+89  0 
 -5.698967e+89  -5.060351e+89  0 
 1.956401e+89  -8.629210e+89  0 
 -8.831855e+89  -1.047386e+90  0 
 -1.111529e+90  -1.196888e+90  0 
 -6.179432e+89  -1.479068e+90  0 
 -1.316651e+89  -1.393167e+90  0 
 -7.530684e+89  -9.287447e+89  0 
VECTORS displacement_ITER41 FLOAT
 -8.194348e+89  -1.625114e+90  0 
 -3.303496e+89  -1.104983e+90  0 
 -1.403409e+90  -1.186122e+90  0 
 -1.221202e+90  -1.044600e+90  0 
 -8.570088e+89  -5.005700e+89  0 
 -5.698967e+89  -5.060351e+89  0 
 1.956401e+89  -8.629210e+89  0 
 -8.831855e+89  -1.047386e+90  0 
 -1.111529e+90  -1.196888e+90  0 
 -6.179432e+89  -1.479068e+90  0 
 -1.316651e+89  -1.393167e+90  0 
 -7.530684e+89  -9.287447e+89  0 
VECTORS displacement_ITER42 FLOAT
 -8.194348e+89  -1.625114e+90  0 
 -3.303496e+89  -1.104983e+90  0 
 -1.403409e+90  -1.186122e+90  0 
 -1.221202e+90  -1.044600e+90  0 
 -8.570088e+89  -5.005700e+89  0 
 -5.698967e+89  -5.060351e+89  0 
 1.956401e+89  -8.629210e+89  0 
 -8.831855e+89  -1.047386e+90  0 
 -1.111529e+90  -1.196888e+90  0 
 -6.179432e+89  -1.479068e+90  0 
 -1.316651e+89  -1.393167e+90  0 
 -7.530684e+89  -9.287447e+89  0 
VECTORS displacement_ITER43 FLOAT
 -8.194348e+89  -1.625114e+90  0 
 -3.303496e+89  -1.104983e+90  0 
 -1.403409e+90  -1.186122e+90  0 
 -1.221202e+90  -1.044600e+90  0 
 -8.570088e+89  -5.005700e+89  0 
 -5.698967e+89  -5.060351e+89  0 
 1.956401e+89  -8.629210e+89  0 
 -8.831855e+89  -1.047386e+90  0 
 -1.111529e+90  -1.196888e+90  0 
 -6.179432e+89  -1.479068e+90  0 
 -1.316651e+89  -1.393167e+90  0 
 -7.530684e+89  -9.287447e+89  0 
VECTORS displacement_ITER44 FLOAT
 -8.194348e+89  -1.625114e+90  0 
 -3.303496e+89  -1.104983e+90  0 
 -1.403409e+90  -1.186122e+90  0 
 -1.221202e+90  -1.044600e+90  0 
 -8.570088e+89  -5.005700e+89  0 
 -5.698967e+89  -5.060351e+89  0 
 1.956401e+89  -8.629210e+89  0 
 -8.831855e+89  -1.047386e+90  0 
 -1.111529e+90  -1.196888e+90  0 
 -6.179432e+89  -1.479068e+90  0 
 -1.316651e+89  -1.393167e+90  0 
 -7.530684e+89  -9.287447e+89  0 
VECTORS displacement_ITER45 FLOAT
 -8.194348e+89  -1.625114e+90  0 
 -3.303496e+89  -1.104983e+90  0 
 -1.403409e+90  -1.186122e+90  0 
 -1.221202e+90  -1.044600e+90  0 
 -8.570088e+89  -5.005700e+89  0 
 -5.698967e+89  -5.060351e+89  0 
 1.956401e+89  -8.629210e+89  0 
 -8.831855e+89  -1.047386e+90  0 
 -1.111529e+90  -1.196888e+90  0 
 -6.179432e+89  -1.479068e+90  0 
 -1.316651e+89  -1.393167e+90  0 
 -7.530684e+89  -9.287447e+89  0 
VECTORS displacement_ITER46 FLOAT
 -8.194348e+89  -1.625114e+90  0 
 -3.303496e+89  -1.104983e+90  0 
 -1.403409e+90  -1.186122e+90  0 
 -1.221202e+90  -1.044600e+90  0 
 -8.570088e+89  -5.005700e+89  0 
 -5.698967e+89  -5.060351e+89  0 
 1.956401e+89  -8.629210e+89  0 
 -8.831855e+89  -1.047386e+90  0 
 -1.111529e+90  -1.196888e+90  0 
 -6.179432e+89  -1.479068e+90  0 
 -1.316651e+89  -1.393167e+90  0 
 -7.530684e+89  -9.287447e+89  0 
VECTORS displacement_ITER47 FLOAT
 -8.194348e+89  -1.625114e+90  0 
 -3.303496e+89  -1.104983e+90  0 
 -1.403409e+90  -1.186122e+90  0 
 -1.221202e+90  -1.044600e+90  0 
 -8.570088e+89  -5.005700e+89  0 
 -5.698967e+89  -5.060351e+89  0 
 1.956401e+89  -8.629210e+89  0 
 -8.831855e+89  -1.047386e+90  0 
 -1.111529e+90  -1.196888e+90  0 
 -6.179432e+89  -1.479068e+90  0 
 -1.316651e+89  -1.393167e+90  0 
 -7.530684e+89  -9.287447e+89  0 
VECTORS displacement_ITER48 FLOAT
 -8.194348e+89  -1.625114e+90  0 
 -3.303496e+89  -1.104983e+90  0 
 -1.403409e+90  -1.186122e+90  0 
 -1.221202e+90  -1.044600e+90  0 
 -8.570088e+89  -5.005700e+89  0 
 -5.698967e+89  -5.060351e+89  0 
 1.956401e+89  -8.629210e+89  0 
 -8.831855e+89  -1.047386e+90  0 
 -1.111529e+90  -1.196888e+90  0 
 -6.179432e+89  -1.479068e+90  0 
 -1.316651e+89  -1.393167e+90  0 
 -7.530684e+89  -9.287447e+89  0 
VECTORS displacement_ITER49 FLOAT
 -8.194348e+89  -1.625114e+90  0 
 -3.303496e+89  -1.104983e+90  0 
 -1.403409e+90  -1.186122e+90  0 
 -1.221202e+90  -1.044600e+90  0 
 -8.570088e+89  -5.005700e+89  0 
 -5.698967e+89  -5.060351e+89  0 
 1.956401e+89  -8.629210e+89  0 
 -8.831855e+89  -1.047386e+90  0 
 -1.111529e+90  -1.196888e+90  0 
 -6.179432e+89  -1.479068e+90  0 
 -1.316651e+89  -1.393167e+90  0 
 -7.530684e+89  -9.287447e+89  0 
VECTORS displacement_ITER50 FLOAT
 -8.194348e+89  -1.625114e+90  0 
 -3.303496e+89  -1.104983e+90  0 
 -1.403409e+90  -1.186122e+90  0 
 -1.221202e+90  -1.044600e+90  0 
 -8.570088e+89  -5.005700e+89  0 
 -5.698967e+89  -5.060351e+89  0 
 1.956401e+89  -8.629210e+89  0 
 -8.831855e+89  -1.047386e+90  0 
 -1.111529e+90  -1.196888e+90  0 
 -6.179432e+89  -1.479068e+90  0 
 -1.316651e+89  -1.393167e+90  0 
 -7.530684e+89  -9.287447e+89  0 
VECTORS displacement_ITER51 FLOAT
 -8.194348e+89  -1.625114e+90  0 
 -3.303496e+89  -1.104983e+90  0 
 -1.403409e+90  -1.186122e+90  0 
 -1.221202e+90  -1.044600e+90  0 
 -8.570088e+89  -5.005700e+89  0 
 -5.698967e+89  -5.060351e+89  0 
 1.956401e+89  -8.629210e+89  0 
 -8.831855e+89  -1.047386e+90  0 
 -1.111529e+90  -1.196888e+90  0 
 -6.179432e+89  -1.479068e+90  0 
 -1.316651e+89  -1.393167e+90  0 
 -7.530684e+89  -9.287447e+89  0 
VECTORS displacement_ITER52 FLOAT
 -8.194348e+89  -1.625114e+90  0 
 -3.303496e+89  -1.104983e+90  0 
 -1.403409e+90  -1.186122e+90  0 
 -1.221202e+90  -1.044600e+90  0 
 -8.570088e+89  -5.005700e+89  0 
 -5.698967e+89  -5.060351e+89  0 
 1.956401e+89  -8.629210e+89  0 
 -8.831855e+89  -1.047386e+90  0 
 -1.111529e+90  -1.196888e+90  0 
 -6.179432e+89  -1.479068e+90  0 
 -1.316651e+89  -1.393167e+90  0 
 -7.530684e+89  -9.287447e+89  0 
VECTORS displacement_ITER53 FLOAT
 -8.194348e+89  -1.625114e+90  0 
 -3.303496e+89  -1.104983e+90  0 
 -1.403409e+90  -1.186122e+90  0 
 -1.221202e+90  -1.044600e+90  0 
 -8.570088e+89  -5.005700e+89  0 
 -5.698967e+89  -5.060351e+89  0 
 1.956401e+89  -8.629210e+89  0 
 -8.831855e+89  -1.047386e+90  0 
 -1.111529e+90  -1.196888e+90  0 
 -6.179432e+89  -1.479068e+90  0 
 -1.316651e+89  -1.393167e+90  0 
 -7.530684e+89  -9.287447e+89  0 
VECTORS displacement_ITER54 FLOAT
 -8.194348e+89  -1.625114e+90  0 
 -3.303496e+89  -1.104983e+90  0 
 -1.403409e+90  -1.186122e+90  0 
 -1.221202e+90  -1.044600e+90  0 
 -8.570088e+89  -5.005700e+89  0 
 -5.698967e+89  -5.060351e+89  0 
 1.956401e+89  -8.629210e+89  0 
 -8.831855e+89  -1.047386e+90  0 
 -1.111529e+90  -1.196888e+90  0 
 -6.179432e+89  -1.479068e+90  0 
 -1.316651e+89  -1.393167e+90  0 
 -7.530684e+89  -9.287447e+89  0 
VECTORS displacement_ITER55 FLOAT
 -8.194348e+89  -1.625114e+90  0 
 -3.303496e+89  -1.104983e+90  0 
 -1.403409e+90  -1.186122e+90  0 
 -1.221202e+90  -1.044600e+90  0 
 -8.570088e+89  -5.005700e+89  0 
 -5.698967e+89  -5.060351e+89  0 
 1.956401e+89  -8.629210e+89  0 
 -8.831855e+89  -1.047386e+90  0 
 -1.111529e+90  -1.196888e+90  0 
 -6.179432e+89  -1.479068e+90  0 
 -1.316651e+89  -1.393167e+90  0 
 -7.530684e+89  -9.287447e+89  0 
VECTORS displacement_ITER56 FLOAT
 -8.194348e+89  -1.625114e+90  0 
 -3.303496e+89  -1.104983e+90  0 
 -1.403409e+90  -1.186122e+90  0 
 -1.221202e+90  -1.044600e+90  0 
 -8.570088e+89  -5.005700e+89  0 
 -5.698967e+89  -5.060351e+89  0 
 1.956401e+89  -8.629210e+89  0 
 -8.831855e+89  -1.047386e+90  0 
 -1.111529e+90  -1.196888e+90  0 
 -6.179432e+89  -1.479068e+90  0 
 -1.316651e+89  -1.393167e+90  0 
 -7.530684e+89  -9.287447e+89  0 
VECTORS displacement_ITER57 FLOAT
 -8.194348e+89  -1.625114e+90  0 
 -3.303496e+89  -1.104983e+90  0 
 -1.403409e+90  -1.186122e+90  0 
 -1.221202e+90  -1.044600e+90  0 
 -8.570088e+89  -5.005700e+89  0 
 -5.698967e+89  -5.060351e+89  0 
 1.956401e+89  -8.629210e+89  0 
 -8.831855e+89  -1.047386e+90  0 
 -1.111529e+90  -1.196888e+90  0 
 -6.179432e+89  -1.479068e+90  0 
 -1.316651e+89  -1.393167e+90  0 
 -7.530684e+89  -9.287447e+89  0 
VECTORS displacement_ITER58 FLOAT
 -8.194348e+89  -1.625114e+90  0 
 -3.303496e+89  -1.104983e+90  0 
 -1.403409e+90  -1.186122e+90  0 
 -1.221202e+90  -1.044600e+90  0 
 -8.570088e+89  -5.005700e+89  0 
 -5.698967e+89  -5.060351e+89  0 
 1.956401e+89  -8.629210e+89  0 
 -8.831855e+89  -1.047386e+90  0 
 -1.111529e+90  -1.196888e+90  0 
 -6.179432e+89  -1.479068e+90  0 
 -1.316651e+89  -1.393167e+90  0 
 -7.530684e+89  -9.287447e+89  0 
VECTORS displacement_ITER59 FLOAT
 -8.194348e+89  -1.625114e+90  0 
 -3.303496e+89  -1.104983e+90  0 
 -1.403409e+90  -1.186122e+90  0 
 -1.221202e+90  -1.044600e+90  0 
 -8.570088e+89  -5.005700e+89  0 
 -5.698967e+89  -5.060351e+89  0 
 1.956401e+89  -8.629210e+89  0 
 -8.831855e+89  -1.047386e+90  0 
 -1.111529e+90  -1.196888e+90  0 
 -6.179432e+89  -1.479068e+90  0 
 -1.316651e+89  -1.393167e+90  0 
 -7.530684e+89  -9.287447e+89  0 
VECTORS displacement_ITER60 FLOAT
 -8.194348e+89  -1.625114e+90  0 
 -3.303496e+89  -1.104983e+90  0 
 -1.403409e+90  -1.186122e+90  0 
 -1.221202e+90  -1.044600e+90  0 
 -8.570088e+89  -5.005700e+89  0 
 -5.698967e+89  -5.060351e+89  0 
 1.956401e+89  -8.629210e+89  0 
 -8.831855e+89  -1.047386e+90  0 
 -1.111529e+90  -1.196888e+90  0 
 -6.179432e+89  -1.479068e+90  0 
 -1.316651e+89  -1.393167e+90  0 
 -7.530684e+89  -9.287447e+89  0 
VECTORS displacement_ITER61 FLOAT
 -8.194348e+89  -1.625114e+90  0 
 -3.303496e+89  -1.104983e+90  0 
 -1.403409e+90  -1.186122e+90  0 
 -1.221202e+90  -1.044600e+90  0 
 -8.570088e+89  -5.005700e+89  0 
 -5.698967e+89  -5.060351e+89  0 
 1.956401e+89  -8.629210e+89  0 
 -8.831855e+89  -1.047386e+90  0 
 -1.111529e+90  -1.196888e+90  0 
 -6.179432e+89  -1.479068e+90  0 
 -1.316651e+89  -1.393167e+90  0 
 -7.530684e+89  -9.287447e+89  0 
VECTORS displacement_ITER62 FLOAT
 -8.194348e+89  -1.625114e+90  0 
 -3.303496e+89  -1.104983e+90  0 
 -1.403409e+90  -1.186122e+90  0 
 -1.221202e+90  -1.044600e+90  0 
 -8.570088e+89  -5.005700e+89  0 
 -5.698967e+89  -5.060351e+89  0 
 1.956401e+89  -8.629210e+89  0 
 -8.831855e+89  -1.047386e+90  0 
 -1.111529e+90  -1.196888e+90  0 
 -6.179432e+89  -1.479068e+90  0 
 -1.316651e+89  -1.393167e+90  0 
 -7.530684e+89  -9.287447e+89  0 
VECTORS displacement_ITER63 FLOAT
 -8.194348e+89  -1.625114e+90  0 
 -3.303496e+89  -1.104983e+90  0 
 -1.403409e+90  -1.186122e+90  0 
 -1.221202e+90  -1.044600e+90  0 
 -8.570088e+89  -5.005700e+89  0 
 -5.698967e+89  -5.060351e+89  0 
 1.956401e+89  -8.629210e+89  0 
 -8.831855e+89  -1.047386e+90  0 
 -1.111529e+90  -1.196888e+90  0 
 -6.179432e+89  -1.479068e+90  0 
 -1.316651e+89  -1.393167e+90  0 
 -7.530684e+89  -9.287447e+89  0 
VECTORS displacement_ITER64 FLOAT
 -8.194348e+89  -1.625114e+90  0 
 -3.303496e+89  -1.104983e+90  0 
 -1.403409e+90  -1.186122e+90  0 
 -1.221202e+90  -1.044600e+90  0 
 -8.570088e+89  -5.005700e+89  0 
 -5.698967e+89  -5.060351e+89  0 
 1.956401e+89  -8.629210e+89  0 
 -8.831855e+89  -1.047386e+90  0 
 -1.111529e+90  -1.196888e+90  0 
 -6.179432e+89  -1.479068e+90  0 
 -1.316651e+89  -1.393167e+90  0 
 -7.530684e+89  -9.287447e+89  0 
VECTORS displacement_ITER65 FLOAT
 -8.194348e+89  -1.625114e+90  0 
 -3.303496e+89  -1.104983e+90  0 
 -1.403409e+90  -1.186122e+90  0 
 -1.221202e+90  -1.044600e+90  0 
 -8.570088e+89  -5.005700e+89  0 
 -5.698967e+89  -5.060351e+89  0 
 1.956401e+89  -8.629210e+89  0 
 -8.831855e+89  -1.047386e+90  0 
 -1.111529e+90  -1.196888e+90  0 
 -6.179432e+89  -1.479068e+90  0 
 -1.316651e+89  -1.393167e+90  0 
 -7.530684e+89  -9.287447e+89  0 
VECTORS displacement_ITER66 FLOAT
 -8.194348e+89  -1.625114e+90  0 
 -3.303496e+89  -1.104983e+90  0 
 -1.403409e+90  -1.186122e+90  0 
 -1.221202e+90  -1.044600e+90  0 
 -8.570088e+89  -5.005700e+89  0 
 -5.698967e+89  -5.060351e+89  0 
 1.956401e+89  -8.629210e+89  0 
 -8.831855e+89  -1.047386e+90  0 
 -1.111529e+90  -1.196888e+90  0 
 -6.179432e+89  -1.479068e+90  0 
 -1.316651e+89  -1.393167e+90  0 
 -7.530684e+89  -9.287447e+89  0 
VECTORS displacement_ITER67 FLOAT
 -8.194348e+89  -1.625114e+90  0 
 -3.303496e+89  -1.104983e+90  0 
 -1.403409e+90  -1.186122e+90  0 
 -1.221202e+90  -1.044600e+90  0 
 -8.570088e+89  -5.005700e+89  0 
 -5.698967e+89  -5.060351e+89  0 
 1.956401e+89  -8.629210e+89  0 
 -8.831855e+89  -1.047386e+90  0 
 -1.111529e+90  -1.196888e+90  0 
 -6.179432e+89  -1.479068e+90  0 
 -1.316651e+89  -1.393167e+90  0 
 -7.530684e+89  -9.287447e+89  0 
VECTORS displacement_ITER68 FLOAT