# vtk DataFile Version 3.1
this is an vtk file created by FEMAC
ASCII
DATASET UNSTRUCTURED_GRID
POINTS 12 FLOAT
2.500000 0.000000 0.000000
3.000000 0.000000 0.000000
2.500000 0.200000 0.000000
2.500000 0.400000 0.000000
2.500000 0.600000 0.000000
2.500000 0.800000 0.000000
2.500000 1.000000 0.000000
3.000000 0.200000 0.000000
3.000000 0.400000 0.000000
3.000000 0.600000 0.000000
3.000000 0.800000 0.000000
3.000000 1.000000 0.000000
CELLS 5 25 
4 0 1 7 2
4 2 7 8 3
4 3 8 9 4
4 4  9 10  5
4 5 10 11  6
CELL_TYPES 5
9 9 9 9 9 
POINT_DATA 12
VECTORS displacement_ITER1 FLOAT
 -3.384865e-03  -9.405524e-03  0 
 -4.252642e-03  -1.308644e-02  0 
 -2.194681e-03  -9.307220e-03  0 
 -7.209711e-04  -9.285819e-03  0 
 7.632021e-04  -9.285819e-03  0 
 2.236912e-03  -9.307220e-03  0 
 3.427096e-03  -9.405524e-03  0 
 -2.455003e-03  -1.317883e-02  0 
 -8.423191e-04  -1.319771e-02  0 
 8.845501e-04  -1.319771e-02  0 
 2.497234e-03  -1.317883e-02  0 
 4.294873e-03  -1.308644e-02  0 
VECTORS displacement_ITER2 FLOAT
 -3.361904e-03  -9.433481e-03  0 
 -4.094729e-03  -1.321020e-02  0 
 -2.090966e-03  -9.435179e-03  0 
 -6.646493e-04  -9.428686e-03  0 
 7.001304e-04  -9.428686e-03  0 
 2.126447e-03  -9.435179e-03  0 
 3.397385e-03  -9.433481e-03  0 
 -2.370819e-03  -1.320176e-02  0 
 -8.017675e-04  -1.320807e-02  0 
 8.372486e-04  -1.320807e-02  0 
 2.406300e-03  -1.320176e-02  0 
 4.130210e-03  -1.321020e-02  0 
VECTORS displacement_ITER3 FLOAT
 -3.357008e-03  -9.439342e-03  0 
 -4.092526e-03  -1.319922e-02  0 
 -2.091828e-03  -9.437617e-03  0 
 -6.672373e-04  -9.431545e-03  0 
 6.907855e-04  -9.430722e-03  0 
 2.116098e-03  -9.436632e-03  0 
 3.383872e-03  -9.437592e-03  0 
 -2.371439e-03  -1.319898e-02  0 
 -8.052541e-04  -1.320420e-02  0 
 8.289033e-04  -1.320481e-02  0 
 2.395791e-03  -1.319976e-02  0 
 4.117386e-03  -1.320060e-02  0 
VECTORS displacement_ITER4 FLOAT
 -3.361249e-03  -9.431095e-03  0 
 -4.094267e-03  -1.320175e-02  0 
 -2.090761e-03  -9.435908e-03  0 
 -6.643502e-04  -9.430147e-03  0 
 6.903316e-04  -9.432583e-03  0 
 2.114659e-03  -9.438608e-03  0 
 3.381114e-03  -9.435575e-03  0 
 -2.370708e-03  -1.319965e-02  0 
 -8.045786e-04  -1.320469e-02  0 
 8.305806e-04  -1.320218e-02  0 
 2.394552e-03  -1.319685e-02  0 
 4.114498e-03  -1.319683e-02  0 
VECTORS displacement_ITER5 FLOAT
 -3.360824e-03  -9.434357e-03  0 
 -4.093416e-03  -1.319852e-02  0 
 -2.091572e-03  -9.435715e-03  0 
 -6.656553e-04  -9.429930e-03  0 
 6.877589e-04  -9.429694e-03  0 
 2.113919e-03  -9.435329e-03  0 
 3.383461e-03  -9.433684e-03  0 
 -2.371659e-03  -1.319730e-02  0 
 -8.068497e-04  -1.320239e-02  0 
 8.290351e-04  -1.320248e-02  0 
 2.393936e-03  -1.319737e-02  0 
 4.115925e-03  -1.319870e-02  0 
VECTORS displacement_ITER6 FLOAT
 -3.361318e-03  -9.434242e-03  0 
 -4.093763e-03  -1.319857e-02  0 
 -2.091833e-03  -9.435374e-03  0 
 -6.657573e-04  -9.429658e-03  0 
 6.875289e-04  -9.429622e-03  0 
 2.113687e-03  -9.435310e-03  0 
 3.383196e-03  -9.434130e-03  0 
 -2.371929e-03  -1.319731e-02  0 
 -8.070194e-04  -1.320241e-02  0 
 8.288496e-04  -1.320239e-02  0 
 2.393726e-03  -1.319731e-02  0 
 4.115620e-03  -1.319855e-02  0 
VECTORS displacement_ITER7 FLOAT
 -3.361221e-03  -9.434153e-03  0 
 -4.093681e-03  -1.319855e-02  0 
 -2.091736e-03  -9.435337e-03  0 
 -6.656442e-04  -9.429625e-03  0 
 6.876454e-04  -9.429613e-03  0 
 2.113789e-03  -9.435306e-03  0 
 3.383299e-03  -9.434152e-03  0 
 -2.371814e-03  -1.319728e-02  0 
 -8.069217e-04  -1.320237e-02  0 
 8.289499e-04  -1.320239e-02  0 
 2.393845e-03  -1.319730e-02  0 
 4.115712e-03  -1.319854e-02  0 
VECTORS displacement_ITER8 FLOAT
 -3.361220e-03  -9.434173e-03  0 
 -4.093711e-03  -1.319853e-02  0 
 -2.091762e-03  -9.435323e-03  0 
 -6.656639e-04  -9.429609e-03  0 
 6.876251e-04  -9.429637e-03  0 
 2.113762e-03  -9.435326e-03  0 
 3.383300e-03  -9.434142e-03  0 
 -2.371840e-03  -1.319728e-02  0 
 -8.069395e-04  -1.320238e-02  0 
 8.289318e-04  -1.320239e-02  0 
 2.393819e-03  -1.319730e-02  0 
 4.115681e-03  -1.319856e-02  0 
VECTORS displacement_ITER9 FLOAT
 -3.361220e-03  -9.434173e-03  0 
 -4.093710e-03  -1.319854e-02  0 
 -2.091762e-03  -9.435323e-03  0 
 -6.656639e-04  -9.429609e-03  0 
 6.876251e-04  -9.429637e-03  0 
 2.113762e-03  -9.435327e-03  0 
 3.383300e-03  -9.434142e-03  0 
 -2.371840e-03  -1.319728e-02  0 
 -8.069395e-04  -1.320238e-02  0 
 8.289318e-04  -1.320239e-02  0 
 2.393819e-03  -1.319730e-02  0 
 4.115681e-03  -1.319856e-02  0 
VECTORS displacement_ITER10 FLOAT
 1.033283e-01  8.901121e-01  0 
 3.323196e-02  9.282058e-01  0 
 5.358321e-02  7.918911e-01  0 
 -2.897957e-02  7.924593e-01  0 
 -1.337123e-01  7.574633e-01  0 
 -2.553958e-01  7.541699e-01  0 
 -3.639152e-01  8.235264e-01  0 
 3.504112e-02  1.001275e+00  0 
 -4.442442e-02  1.000713e+00  0 
 -1.537776e-01  1.047776e+00  0 
 -2.673805e-01  1.057452e+00  0 
 -3.367346e-01  1.026977e+00  0 
VECTORS displacement_ITER11 FLOAT
 3.170290e+13  -1.845117e+13  0 
 1.018416e+13  -3.802902e+13  0 
 1.075359e+13  -3.251352e+13  0 
 6.082447e+12  -2.768136e+13  0 
 1.785505e+12  -1.257148e+13  0 
 1.040754e+13  -1.436000e+13  0 
 4.541852e+13  3.151150e+12  0 
 1.311972e+13  -1.599116e+13  0 
 9.772140e+12  -1.690984e+13  0 
 -2.073959e+12  -3.006875e+13  0 
 7.852811e+12  -3.129974e+13  0 
 1.513618e+13  -6.973547e+13  0 
VECTORS displacement_ITER12 FLOAT
 1.171823e+28  -9.632582e+27  0 
 1.706186e+27  -2.037108e+28  0 
 1.046635e+28  6.328181e+26  0 
 1.427721e+28  -6.973966e+26  0 
 2.508955e+27  -1.969884e+28  0 
 -2.526388e+27  -1.523035e+28  0 
 -8.235609e+27  -3.372527e+28  0 
 1.471548e+28  -6.086902e+27  0 
 1.461734e+28  -5.748945e+27  0 
 2.601328e+27  -4.783304e+27  0 
 -4.558407e+27  -7.236833e+27  0 
 -1.681522e+28  3.668730e+27  0 
VECTORS displacement_ITER13 FLOAT
 2.892209e+43  -1.214241e+43  0 
 3.543291e+43  -5.799525e+42  0 
 1.828599e+43  -1.422093e+43  0 
 8.096419e+42  -8.004873e+42  0 
 6.890008e+42  -5.318384e+42  0 
 1.414824e+42  -4.324333e+42  0 
 5.428787e+42  1.009276e+43  0 
 2.636344e+43  1.839019e+43  0 
 1.348059e+43  1.358419e+43  0 
 1.593666e+43  1.168209e+43  0 
 9.463762e+42  1.052656e+43  0 
 -3.393464e+42  -2.544913e+43  0 
VECTORS displacement_ITER14 FLOAT
 2.273170e+56  -1.429618e+58  0 
 -1.660794e+58  -8.647030e+57  0 
 5.367911e+57  3.143344e+58  0 
 1.108140e+58  2.390044e+58  0 
 2.181602e+58  -2.475598e+58  0 
 9.597995e+57  -2.212038e+58  0 
 8.321003e+56  -2.992921e+58  0 
 1.025329e+58  -5.508531e+56  0 
 2.130532e+58  1.147652e+58  0 
 1.581215e+58  7.967203e+57  0 
 3.492279e+57  7.140404e+56  0 
 -1.825872e+58  4.764827e+58  0 
VECTORS displacement_ITER15 FLOAT
 2.810409e+73  -8.735669e+73  0 
 -5.772337e+73  -2.060297e+74  0 
 1.622759e+73  -9.674113e+73  0 
 4.873350e+73  -1.058262e+74  0 
 5.200533e+73  -1.853752e+74  0 
 2.008112e+73  -1.702315e+74  0 
 -9.638315e+73  -2.440929e+74  0 
 1.172514e+73  -1.715069e+74  0 
 4.735059e+73  -1.756636e+74  0 
 1.175523e+73  -7.179899e+73  0 
 -3.512298e+73  -7.315096e+73  0 
 -3.021106e+73  -1.654547e+73  0 
VECTORS displacement_ITER16 FLOAT
 6.962094e+88  8.309500e+89  0 
 -5.906419e+89  5.621469e+88  0 
 -1.582418e+89  6.441666e+89  0 
 4.488521e+88  6.218577e+89  0 
 -1.303192e+89  -6.054177e+88  0 
 -3.546984e+89  5.768733e+88  0 
 -3.127204e+88  1.546768e+89  0 
 -1.023387e+89  3.375885e+89  0 
 1.435034e+88  3.525987e+89  0 
 7.247931e+88  7.245546e+89  0 
 -2.023011e+89  5.748568e+89  0 
 -5.046317e+89  1.185071e+90  0 
VECTORS displacement_ITER17 FLOAT
 6.962094e+88  8.309500e+89  0 
 -5.906419e+89  5.621469e+88  0 
 -1.582418e+89  6.441666e+89  0 
 4.488521e+88  6.218577e+89  0 
 -1.303192e+89  -6.054177e+88  0 
 -3.546984e+89  5.768733e+88  0 
 -3.127204e+88  1.546768e+89  0 
 -1.023387e+89  3.375885e+89  0 
 1.435034e+88  3.525987e+89  0 
 7.247931e+88  7.245546e+89  0 
 -2.023011e+89  5.748568e+89  0 
 -5.046317e+89  1.185071e+90  0 
VECTORS displacement_ITER18 FLOAT
 6.962094e+88  8.309500e+89  0 
 -5.906419e+89  5.621469e+88  0 
 -1.582418e+89  6.441666e+89  0 
 4.488521e+88  6.218577e+89  0 
 -1.303192e+89  -6.054177e+88  0 
 -3.546984e+89  5.768733e+88  0 
 -3.127204e+88  1.546768e+89  0 
 -1.023387e+89  3.375885e+89  0 
 1.435034e+88  3.525987e+89  0 
 7.247931e+88  7.245546e+89  0 
 -2.023011e+89  5.748568e+89  0 
 -5.046317e+89  1.185071e+90  0 
VECTORS displacement_ITER19 FLOAT
 6.962094e+88  8.309500e+89  0 
 -5.906419e+89  5.621469e+88  0 
 -1.582418e+89  6.441666e+89  0 
 4.488521e+88  6.218577e+89  0 
 -1.303192e+89  -6.054177e+88  0 
 -3.546984e+89  5.768733e+88  0 
 -3.127204e+88  1.546768e+89  0 
 -1.023387e+89  3.375885e+89  0 
 1.435034e+88  3.525987e+89  0 
 7.247931e+88  7.245546e+89  0 
 -2.023011e+89  5.748568e+89  0 
 -5.046317e+89  1.185071e+90  0 
VECTORS displacement_ITER20 FLOAT
 6.962094e+88  8.309500e+89  0 
 -5.906419e+89  5.621469e+88  0 
 -1.582418e+89  6.441666e+89  0 
 4.488521e+88  6.218577e+89  0 
 -1.303192e+89  -6.054177e+88  0 
 -3.546984e+89  5.768733e+88  0 
 -3.127204e+88  1.546768e+89  0 
 -1.023387e+89  3.375885e+89  0 
 1.435034e+88  3.525987e+89  0 
 7.247931e+88  7.245546e+89  0 
 -2.023011e+89  5.748568e+89  0 
 -5.046317e+89  1.185071e+90  0 
VECTORS displacement_ITER21 FLOAT
 6.962094e+88  8.309500e+89  0 
 -5.906419e+89  5.621469e+88  0 
 -1.582418e+89  6.441666e+89  0 
 4.488521e+88  6.218577e+89  0 
 -1.303192e+89  -6.054177e+88  0 
 -3.546984e+89  5.768733e+88  0 
 -3.127204e+88  1.546768e+89  0 
 -1.023387e+89  3.375885e+89  0 
 1.435034e+88  3.525987e+89  0 
 7.247931e+88  7.245546e+89  0 
 -2.023011e+89  5.748568e+89  0 
 -5.046317e+89  1.185071e+90  0 
VECTORS displacement_ITER22 FLOAT
 6.962094e+88  8.309500e+89  0 
 -5.906419e+89  5.621469e+88  0 
 -1.582418e+89  6.441666e+89  0 
 4.488521e+88  6.218577e+89  0 
 -1.303192e+89  -6.054177e+88  0 
 -3.546984e+89  5.768733e+88  0 
 -3.127204e+88  1.546768e+89  0 
 -1.023387e+89  3.375885e+89  0 
 1.435034e+88  3.525987e+89  0 
 7.247931e+88  7.245546e+89  0 
 -2.023011e+89  5.748568e+89  0 
 -5.046317e+89  1.185071e+90  0 
VECTORS displacement_ITER23 FLOAT
 6.962094e+88  8.309500e+89  0 
 -5.906419e+89  5.621469e+88  0 
 -1.582418e+89  6.441666e+89  0 
 4.488521e+88  6.218577e+89  0 
 -1.303192e+89  -6.054177e+88  0 
 -3.546984e+89  5.768733e+88  0 
 -3.127204e+88  1.546768e+89  0 
 -1.023387e+89  3.375885e+89  0 
 1.435034e+88  3.525987e+89  0 
 7.247931e+88  7.245546e+89  0 
 -2.023011e+89  5.748568e+89  0 
 -5.046317e+89  1.185071e+90  0 
VECTORS displacement_ITER24 FLOAT
 6.962094e+88  8.309500e+89  0 
 -5.906419e+89  5.621469e+88  0 
 -1.582418e+89  6.441666e+89  0 
 4.488521e+88  6.218577e+89  0 
 -1.303192e+89  -6.054177e+88  0 
 -3.546984e+89  5.768733e+88  0 
 -3.127204e+88  1.546768e+89  0 
 -1.023387e+89  3.375885e+89  0 
 1.435034e+88  3.525987e+89  0 
 7.247931e+88  7.245546e+89  0 
 -2.023011e+89  5.748568e+89  0 
 -5.046317e+89  1.185071e+90  0 
VECTORS displacement_ITER25 FLOAT
 6.962094e+88  8.309500e+89  0 
 -5.906419e+89  5.621469e+88  0 
 -1.582418e+89  6.441666e+89  0 
 4.488521e+88  6.218577e+89  0 
 -1.303192e+89  -6.054177e+88  0 
 -3.546984e+89  5.768733e+88  0 
 -3.127204e+88  1.546768e+89  0 
 -1.023387e+89  3.375885e+89  0 
 1.435034e+88  3.525987e+89  0 
 7.247931e+88  7.245546e+89  0 
 -2.023011e+89  5.748568e+89  0 
 -5.046317e+89  1.185071e+90  0 
VECTORS displacement_ITER26 FLOAT
 6.962094e+88  8.309500e+89  0 
 -5.906419e+89  5.621469e+88  0 
 -1.582418e+89  6.441666e+89  0 
 4.488521e+88  6.218577e+89  0 
 -1.303192e+89  -6.054177e+88  0 
 -3.546984e+89  5.768733e+88  0 
 -3.127204e+88  1.546768e+89  0 
 -1.023387e+89  3.375885e+89  0 
 1.435034e+88  3.525987e+89  0 
 7.247931e+88  7.245546e+89  0 
 -2.023011e+89  5.748568e+89  0 
 -5.046317e+89  1.185071e+90  0 
VECTORS displacement_ITER27 FLOAT
 6.962094e+88  8.309500e+89  0 
 -5.906419e+89  5.621469e+88  0 
 -1.582418e+89  6.441666e+89  0 
 4.488521e+88  6.218577e+89  0 
 -1.303192e+89  -6.054177e+88  0 
 -3.546984e+89  5.768733e+88  0 
 -3.127204e+88  1.546768e+89  0 
 -1.023387e+89  3.375885e+89  0 
 1.435034e+88  3.525987e+89  0 
 7.247931e+88  7.245546e+89  0 
 -2.023011e+89  5.748568e+89  0 
 -5.046317e+89  1.185071e+90  0 
VECTORS displacement_ITER28 FLOAT
 6.962094e+88  8.309500e+89  0 
 -5.906419e+89  5.621469e+88  0 
 -1.582418e+89  6.441666e+89  0 
 4.488521e+88  6.218577e+89  0 
 -1.303192e+89  -6.054177e+88  0 
 -3.546984e+89  5.768733e+88  0 
 -3.127204e+88  1.546768e+89  0 
 -1.023387e+89  3.375885e+89  0 
 1.435034e+88  3.525987e+89  0 
 7.247931e+88  7.245546e+89  0 
 -2.023011e+89  5.748568e+89  0 
 -5.046317e+89  1.185071e+90  0 
VECTORS displacement_ITER29 FLOAT
 6.962094e+88  8.309500e+89  0 
 -5.906419e+89  5.621469e+88  0 
 -1.582418e+89  6.441666e+89  0 
 4.488521e+88  6.218577e+89  0 
 -1.303192e+89  -6.054177e+88  0 
 -3.546984e+89  5.768733e+88  0 
 -3.127204e+88  1.546768e+89  0 
 -1.023387e+89  3.375885e+89  0 
 1.435034e+88  3.525987e+89  0 
 7.247931e+88  7.245546e+89  0 
 -2.023011e+89  5.748568e+89  0 
 -5.046317e+89  1.185071e+90  0 
VECTORS displacement_ITER30 FLOAT
 6.962094e+88  8.309500e+89  0 
 -5.906419e+89  5.621469e+88  0 
 -1.582418e+89  6.441666e+89  0 
 4.488521e+88  6.218577e+89  0 
 -1.303192e+89  -6.054177e+88  0 
 -3.546984e+89  5.768733e+88  0 
 -3.127204e+88  1.546768e+89  0 
 -1.023387e+89  3.375885e+89  0 
 1.435034e+88  3.525987e+89  0 
 7.247931e+88  7.245546e+89  0 
 -2.023011e+89  5.748568e+89  0 
 -5.046317e+89  1.185071e+90  0 
VECTORS displacement_ITER31 FLOAT
 6.962094e+88  8.309500e+89  0 
 -5.906419e+89  5.621469e+88  0 
 -1.582418e+89  6.441666e+89  0 
 4.488521e+88  6.218577e+89  0 
 -1.303192e+89  -6.054177e+88  0 
 -3.546984e+89  5.768733e+88  0 
 -3.127204e+88  1.546768e+89  0 
 -1.023387e+89  3.375885e+89  0 
 1.435034e+88  3.525987e+89  0 
 7.247931e+88  7.245546e+89  0 
 -2.023011e+89  5.748568e+89  0 
 -5.046317e+89  1.185071e+90  0 
VECTORS displacement_ITER32 FLOAT
 6.962094e+88  8.309500e+89  0 
 -5.906419e+89  5.621469e+88  0 
 -1.582418e+89  6.441666e+89  0 
 4.488521e+88  6.218577e+89  0 
 -1.303192e+89  -6.054177e+88  0 
 -3.546984e+89  5.768733e+88  0 
 -3.127204e+88  1.546768e+89  0 
 -1.023387e+89  3.375885e+89  0 
 1.435034e+88  3.525987e+89  0 
 7.247931e+88  7.245546e+89  0 
 -2.023011e+89  5.748568e+89  0 
 -5.046317e+89  1.185071e+90  0 
VECTORS displacement_ITER33 FLOAT
 6.962094e+88  8.309500e+89  0 
 -5.906419e+89  5.621469e+88  0 
 -1.582418e+89  6.441666e+89  0 
 4.488521e+88  6.218577e+89  0 
 -1.303192e+89  -6.054177e+88  0 
 -3.546984e+89  5.768733e+88  0 
 -3.127204e+88  1.546768e+89  0 
 -1.023387e+89  3.375885e+89  0 
 1.435034e+88  3.525987e+89  0 
 7.247931e+88  7.245546e+89  0 
 -2.023011e+89  5.748568e+89  0 
 -5.046317e+89  1.185071e+90  0 
VECTORS displacement_ITER34 FLOAT
 6.962094e+88  8.309500e+89  0 
 -5.906419e+89  5.621469e+88  0 
 -1.582418e+89  6.441666e+89  0 
 4.488521e+88  6.218577e+89  0 
 -1.303192e+89  -6.054177e+88  0 
 -3.546984e+89  5.768733e+88  0 
 -3.127204e+88  1.546768e+89  0 
 -1.023387e+89  3.375885e+89  0 
 1.435034e+88  3.525987e+89  0 
 7.247931e+88  7.245546e+89  0 
 -2.023011e+89  5.748568e+89  0 
 -5.046317e+89  1.185071e+90  0 
VECTORS displacement_ITER35 FLOAT
 6.962094e+88  8.309500e+89  0 
 -5.906419e+89  5.621469e+88  0 
 -1.582418e+89  6.441666e+89  0 
 4.488521e+88  6.218577e+89  0 
 -1.303192e+89  -6.054177e+88  0 
 -3.546984e+89  5.768733e+88  0 
 -3.127204e+88  1.546768e+89  0 
 -1.023387e+89  3.375885e+89  0 
 1.435034e+88  3.525987e+89  0 
 7.247931e+88  7.245546e+89  0 
 -2.023011e+89  5.748568e+89  0 
 -5.046317e+89  1.185071e+90  0 
VECTORS displacement_ITER36 FLOAT
 6.962094e+88  8.309500e+89  0 
 -5.906419e+89  5.621469e+88  0 
 -1.582418e+89  6.441666e+89  0 
 4.488521e+88  6.218577e+89  0 
 -1.303192e+89  -6.054177e+88  0 
 -3.546984e+89  5.768733e+88  0 
 -3.127204e+88  1.546768e+89  0 
 -1.023387e+89  3.375885e+89  0 
 1.435034e+88  3.525987e+89  0 
 7.247931e+88  7.245546e+89  0 
 -2.023011e+89  5.748568e+89  0 
 -5.046317e+89  1.185071e+90  0 
VECTORS displacement_ITER37 FLOAT
 6.962094e+88  8.309500e+89  0 
 -5.906419e+89  5.621469e+88  0 
 -1.582418e+89  6.441666e+89  0 
 4.488521e+88  6.218577e+89  0 
 -1.303192e+89  -6.054177e+88  0 
 -3.546984e+89  5.768733e+88  0 
 -3.127204e+88  1.546768e+89  0 
 -1.023387e+89  3.375885e+89  0 
 1.435034e+88  3.525987e+89  0 
 7.247931e+88  7.245546e+89  0 
 -2.023011e+89  5.748568e+89  0 
 -5.046317e+89  1.185071e+90  0 
VECTORS displacement_ITER38 FLOAT
 6.962094e+88  8.309500e+89  0 
 -5.906419e+89  5.621469e+88  0 
 -1.582418e+89  6.441666e+89  0 
 4.488521e+88  6.218577e+89  0 
 -1.303192e+89  -6.054177e+88  0 
 -3.546984e+89  5.768733e+88  0 
 -3.127204e+88  1.546768e+89  0 
 -1.023387e+89  3.375885e+89  0 
 1.435034e+88  3.525987e+89  0 
 7.247931e+88  7.245546e+89  0 
 -2.023011e+89  5.748568e+89  0 
 -5.046317e+89  1.185071e+90  0 
VECTORS displacement_ITER39 FLOAT
 6.962094e+88  8.309500e+89  0 
 -5.906419e+89  5.621469e+88  0 
 -1.582418e+89  6.441666e+89  0 
 4.488521e+88  6.218577e+89  0 
 -1.303192e+89  -6.054177e+88  0 
 -3.546984e+89  5.768733e+88  0 
 -3.127204e+88  1.546768e+89  0 
 -1.023387e+89  3.375885e+89  0 
 1.435034e+88  3.525987e+89  0 
 7.247931e+88  7.245546e+89  0 
 -2.023011e+89  5.748568e+89  0 
 -5.046317e+89  1.185071e+90  0 
VECTORS displacement_ITER40 FLOAT
 6.962094e+88  8.309500e+89  0 
 -5.906419e+89  5.621469e+88  0 
 -1.582418e+89  6.441666e+89  0 
 4.488521e+88  6.218577e+89  0 
 -1.303192e+89  -6.054177e+88  0 
 -3.546984e+89  5.768733e+88  0 
 -3.127204e+88  1.546768e+89  0 
 -1.023387e+89  3.375885e+89  0 
 1.435034e+88  3.525987e+89  0 
 7.247931e+88  7.245546e+89  0 
 -2.023011e+89  5.748568e+89  0 
 -5.046317e+89  1.185071e+90  0 
VECTORS displacement_ITER41 FLOAT
 6.962094e+88  8.309500e+89  0 
 -5.906419e+89  5.621469e+88  0 
 -1.582418e+89  6.441666e+89  0 
 4.488521e+88  6.218577e+89  0 
 -1.303192e+89  -6.054177e+88  0 
 -3.546984e+89  5.768733e+88  0 
 -3.127204e+88  1.546768e+89  0 
 -1.023387e+89  3.375885e+89  0 
 1.435034e+88  3.525987e+89  0 
 7.247931e+88  7.245546e+89  0 
 -2.023011e+89  5.748568e+89  0 
 -5.046317e+89  1.185071e+90  0 
VECTORS displacement_ITER42 FLOAT
 6.962094e+88  8.309500e+89  0 
 -5.906419e+89  5.621469e+88  0 
 -1.582418e+89  6.441666e+89  0 
 4.488521e+88  6.218577e+89  0 
 -1.303192e+89  -6.054177e+88  0 
 -3.546984e+89  5.768733e+88  0 
 -3.127204e+88  1.546768e+89  0 
 -1.023387e+89  3.375885e+89  0 
 1.435034e+88  3.525987e+89  0 
 7.247931e+88  7.245546e+89  0 
 -2.023011e+89  5.748568e+89  0 
 -5.046317e+89  1.185071e+90  0 
VECTORS displacement_ITER43 FLOAT
 6.962094e+88  8.309500e+89  0 
 -5.906419e+89  5.621469e+88  0 
 -1.582418e+89  6.441666e+89  0 
 4.488521e+88  6.218577e+89  0 
 -1.303192e+89  -6.054177e+88  0 
 -3.546984e+89  5.768733e+88  0 
 -3.127204e+88  1.546768e+89  0 
 -1.023387e+89  3.375885e+89  0 
 1.435034e+88  3.525987e+89  0 
 7.247931e+88  7.245546e+89  0 
 -2.023011e+89  5.748568e+89  0 
 -5.046317e+89  1.185071e+90  0 
VECTORS displacement_ITER44 FLOAT
 6.962094e+88  8.309500e+89  0 
 -5.906419e+89  5.621469e+88  0 
 -1.582418e+89  6.441666e+89  0 
 4.488521e+88  6.218577e+89  0 
 -1.303192e+89  -6.054177e+88  0 
 -3.546984e+89  5.768733e+88  0 
 -3.127204e+88  1.546768e+89  0 
 -1.023387e+89  3.375885e+89  0 
 1.435034e+88  3.525987e+89  0 
 7.247931e+88  7.245546e+89  0 
 -2.023011e+89  5.748568e+89  0 
 -5.046317e+89  1.185071e+90  0 
VECTORS displacement_ITER45 FLOAT
 6.962094e+88  8.309500e+89  0 
 -5.906419e+89  5.621469e+88  0 
 -1.582418e+89  6.441666e+89  0 
 4.488521e+88  6.218577e+89  0 
 -1.303192e+89  -6.054177e+88  0 
 -3.546984e+89  5.768733e+88  0 
 -3.127204e+88  1.546768e+89  0 
 -1.023387e+89  3.375885e+89  0 
 1.435034e+88  3.525987e+89  0 
 7.247931e+88  7.245546e+89  0 
 -2.023011e+89  5.748568e+89  0 
 -5.046317e+89  1.185071e+90  0 
VECTORS displacement_ITER46 FLOAT
 6.962094e+88  8.309500e+89  0 
 -5.906419e+89  5.621469e+88  0 
 -1.582418e+89  6.441666e+89  0 
 4.488521e+88  6.218577e+89  0 
 -1.303192e+89  -6.054177e+88  0 
 -3.546984e+89  5.768733e+88  0 
 -3.127204e+88  1.546768e+89  0 
 -1.023387e+89  3.375885e+89  0 
 1.435034e+88  3.525987e+89  0 
 7.247931e+88  7.245546e+89  0 
 -2.023011e+89  5.748568e+89  0 
 -5.046317e+89  1.185071e+90  0 
VECTORS displacement_ITER47 FLOAT
 6.962094e+88  8.309500e+89  0 
 -5.906419e+89  5.621469e+88  0 
 -1.582418e+89  6.441666e+89  0 
 4.488521e+88  6.218577e+89  0 
 -1.303192e+89  -6.054177e+88  0 
 -3.546984e+89  5.768733e+88  0 
 -3.127204e+88  1.546768e+89  0 
 -1.023387e+89  3.375885e+89  0 
 1.435034e+88  3.525987e+89  0 
 7.247931e+88  7.245546e+89  0 
 -2.023011e+89  5.748568e+89  0 
 -5.046317e+89  1.185071e+90  0 
VECTORS displacement_ITER48 FLOAT
 6.962094e+88  8.309500e+89  0 
 -5.906419e+89  5.621469e+88  0 
 -1.582418e+89  6.441666e+89  0 
 4.488521e+88  6.218577e+89  0 
 -1.303192e+89  -6.054177e+88  0 
 -3.546984e+89  5.768733e+88  0 
 -3.127204e+88  1.546768e+89  0 
 -1.023387e+89  3.375885e+89  0 
 1.435034e+88  3.525987e+89  0 
 7.247931e+88  7.245546e+89  0 
 -2.023011e+89  5.748568e+89  0 
 -5.046317e+89  1.185071e+90  0 
VECTORS displacement_ITER49 FLOAT
 6.962094e+88  8.309500e+89  0 
 -5.906419e+89  5.621469e+88  0 
 -1.582418e+89  6.441666e+89  0 
 4.488521e+88  6.218577e+89  0 
 -1.303192e+89  -6.054177e+88  0 
 -3.546984e+89  5.768733e+88  0 
 -3.127204e+88  1.546768e+89  0 
 -1.023387e+89  3.375885e+89  0 
 1.435034e+88  3.525987e+89  0 
 7.247931e+88  7.245546e+89  0 
 -2.023011e+89  5.748568e+89  0 
 -5.046317e+89  1.185071e+90  0 
VECTORS displacement_ITER50 FLOAT
 6.962094e+88  8.309500e+89  0 
 -5.906419e+89  5.621469e+88  0 
 -1.582418e+89  6.441666e+89  0 
 4.488521e+88  6.218577e+89  0 
 -1.303192e+89  -6.054177e+88  0 
 -3.546984e+89  5.768733e+88  0 
 -3.127204e+88  1.546768e+89  0 
 -1.023387e+89  3.375885e+89  0 
 1.435034e+88  3.525987e+89  0 
 7.247931e+88  7.245546e+89  0 
 -2.023011e+89  5.748568e+89  0 
 -5.046317e+89  1.185071e+90  0 
VECTORS displacement_ITER51 FLOAT
 6.962094e+88  8.309500e+89  0 
 -5.906419e+89  5.621469e+88  0 
 -1.582418e+89  6.441666e+89  0 
 4.488521e+88  6.218577e+89  0 
 -1.303192e+89  -6.054177e+88  0 
 -3.546984e+89  5.768733e+88  0 
 -3.127204e+88  1.546768e+89  0 
 -1.023387e+89  3.375885e+89  0 
 1.435034e+88  3.525987e+89  0 
 7.247931e+88  7.245546e+89  0 
 -2.023011e+89  5.748568e+89  0 
 -5.046317e+89  1.185071e+90  0 
VECTORS displacement_ITER52 FLOAT
 6.962094e+88  8.309500e+89  0 
 -5.906419e+89  5.621469e+88  0 
 -1.582418e+89  6.441666e+89  0 
 4.488521e+88  6.218577e+89  0 
 -1.303192e+89  -6.054177e+88  0 
 -3.546984e+89  5.768733e+88  0 
 -3.127204e+88  1.546768e+89  0 
 -1.023387e+89  3.375885e+89  0 
 1.435034e+88  3.525987e+89  0 
 7.247931e+88  7.245546e+89  0 
 -2.023011e+89  5.748568e+89  0 
 -5.046317e+89  1.185071e+90  0 
VECTORS displacement_ITER53 FLOAT
 6.962094e+88  8.309500e+89  0 
 -5.906419e+89  5.621469e+88  0 
 -1.582418e+89  6.441666e+89  0 
 4.488521e+88  6.218577e+89  0 
 -1.303192e+89  -6.054177e+88  0 
 -3.546984e+89  5.768733e+88  0 
 -3.127204e+88  1.546768e+89  0 
 -1.023387e+89  3.375885e+89  0 
 1.435034e+88  3.525987e+89  0 
 7.247931e+88  7.245546e+89  0 
 -2.023011e+89  5.748568e+89  0 
 -5.046317e+89  1.185071e+90  0 
VECTORS displacement_ITER54 FLOAT
 6.962094e+88  8.309500e+89  0 
 -5.906419e+89  5.621469e+88  0 
 -1.582418e+89  6.441666e+89  0 
 4.488521e+88  6.218577e+89  0 
 -1.303192e+89  -6.054177e+88  0 
 -3.546984e+89  5.768733e+88  0 
 -3.127204e+88  1.546768e+89  0 
 -1.023387e+89  3.375885e+89  0 
 1.435034e+88  3.525987e+89  0 
 7.247931e+88  7.245546e+89  0 
 -2.023011e+89  5.748568e+89  0 
 -5.046317e+89  1.185071e+90  0 
VECTORS displacement_ITER55 FLOAT
 6.962094e+88  8.309500e+89  0 
 -5.906419e+89  5.621469e+88  0 
 -1.582418e+89  6.441666e+89  0 
 4.488521e+88  6.218577e+89  0 
 -1.303192e+89  -6.054177e+88  0 
 -3.546984e+89  5.768733e+88  0 
 -3.127204e+88  1.546768e+89  0 
 -1.023387e+89  3.375885e+89  0 
 1.435034e+88  3.525987e+89  0 
 7.247931e+88  7.245546e+89  0 
 -2.023011e+89  5.748568e+89  0 
 -5.046317e+89  1.185071e+90  0 
VECTORS displacement_ITER56 FLOAT
 6.962094e+88  8.309500e+89  0 
 -5.906419e+89  5.621469e+88  0 
 -1.582418e+89  6.441666e+89  0 
 4.488521e+88  6.218577e+89  0 
 -1.303192e+89  -6.054177e+88  0 
 -3.546984e+89  5.768733e+88  0 
 -3.127204e+88  1.546768e+89  0 
 -1.023387e+89  3.375885e+89  0 
 1.435034e+88  3.525987e+89  0 
 7.247931e+88  7.245546e+89  0 
 -2.023011e+89  5.748568e+89  0 
 -5.046317e+89  1.185071e+90  0 
VECTORS displacement_ITER57 FLOAT
 6.962094e+88  8.309500e+89  0 
 -5.906419e+89  5.621469e+88  0 
 -1.582418e+89  6.441666e+89  0 
 4.488521e+88  6.218577e+89  0 
 -1.303192e+89  -6.054177e+88  0 
 -3.546984e+89  5.768733e+88  0 
 -3.127204e+88  1.546768e+89  0 
 -1.023387e+89  3.375885e+89  0 
 1.435034e+88  3.525987e+89  0 
 7.247931e+88  7.245546e+89  0 
 -2.023011e+89  5.748568e+89  0 
 -5.046317e+89  1.185071e+90  0 
VECTORS displacement_ITER58 FLOAT
 6.962094e+88  8.309500e+89  0 
 -5.906419e+89  5.621469e+88  0 
 -1.582418e+89  6.441666e+89  0 
 4.488521e+88  6.218577e+89  0 
 -1.303192e+89  -6.054177e+88  0 
 -3.546984e+89  5.768733e+88  0 
 -3.127204e+88  1.546768e+89  0 
 -1.023387e+89  3.375885e+89  0 
 1.435034e+88  3.525987e+89  0 
 7.247931e+88  7.245546e+89  0 
 -2.023011e+89  5.748568e+89  0 
 -5.046317e+89  1.185071e+90  0 
VECTORS displacement_ITER59 FLOAT
 6.962094e+88  8.309500e+89  0 
 -5.906419e+89  5.621469e+88  0 
 -1.582418e+89  6.441666e+89  0 
 4.488521e+88  6.218577e+89  0 
 -1.303192e+89  -6.054177e+88  0 
 -3.546984e+89  5.768733e+88  0 
 -3.127204e+88  1.546768e+89  0 
 -1.023387e+89  3.375885e+89  0 
 1.435034e+88  3.525987e+89  0 
 7.247931e+88  7.245546e+89  0 
 -2.023011e+89  5.748568e+89  0 
 -5.046317e+89  1.185071e+90  0 
VECTORS displacement_ITER60 FLOAT
 6.962094e+88  8.309500e+89  0 
 -5.906419e+89  5.621469e+88  0 
 -1.582418e+89  6.441666e+89  0 
 4.488521e+88  6.218577e+89  0 
 -1.303192e+89  -6.054177e+88  0 
 -3.546984e+89  5.768733e+88  0 
 -3.127204e+88  1.546768e+89  0 
 -1.023387e+89  3.375885e+89  0 
 1.435034e+88  3.525987e+89  0 
 7.247931e+88  7.245546e+89  0 
 -2.023011e+89  5.748568e+89  0 
 -5.046317e+89  1.185071e+90  0 
VECTORS displacement_ITER61 FLOAT
 6.962094e+88  8.309500e+89  0 
 -5.906419e+89  5.621469e+88  0 
 -1.582418e+89  6.441666e+89  0 
 4.488521e+88  6.218577e+89  0 
 -1.303192e+89  -6.054177e+88  0 
 -3.546984e+89  5.768733e+88  0 
 -3.127204e+88  1.546768e+89  0 
 -1.023387e+89  3.375885e+89  0 
 1.435034e+88  3.525987e+89  0 
 7.247931e+88  7.245546e+89  0 
 -2.023011e+89  5.748568e+89  0 
 -5.046317e+89  1.185071e+90  0 
VECTORS displacement_ITER62 FLOAT
 6.962094e+88  8.309500e+89  0 
 -5.906419e+89  5.621469e+88  0 
 -1.582418e+89  6.441666e+89  0 
 4.488521e+88  6.218577e+89  0 
 -1.303192e+89  -6.054177e+88  0 
 -3.546984e+89  5.768733e+88  0 
 -3.127204e+88  1.546768e+89  0 
 -1.023387e+89  3.375885e+89  0 
 1.435034e+88  3.525987e+89  0 
 7.247931e+88  7.245546e+89  0 
 -2.023011e+89  5.748568e+89  0 
 -5.046317e+89  1.185071e+90  0 
VECTORS displacement_ITER63 FLOAT
 6.962094e+88  8.309500e+89  0 
 -5.906419e+89  5.621469e+88  0 
 -1.582418e+89  6.441666e+89  0 
 4.488521e+88  6.218577e+89  0 
 -1.303192e+89  -6.054177e+88  0 
 -3.546984e+89  5.768733e+88  0 
 -3.127204e+88  1.546768e+89  0 
 -1.023387e+89  3.375885e+89  0 
 1.435034e+88  3.525987e+89  0 
 7.247931e+88  7.245546e+89  0 
 -2.023011e+89  5.748568e+89  0 
 -5.046317e+89  1.185071e+90  0 
VECTORS displacement_ITER64 FLOAT
 6.962094e+88  8.309500e+89  0 
 -5.906419e+89  5.621469e+88  0 
 -1.582418e+89  6.441666e+89  0 
 4.488521e+88  6.218577e+89  0 
 -1.303192e+89  -6.054177e+88  0 
 -3.546984e+89  5.768733e+88  0 
 -3.127204e+88  1.546768e+89  0 
 -1.023387e+89  3.375885e+89  0 
 1.435034e+88  3.525987e+89  0 
 7.247931e+88  7.245546e+89  0 
 -2.023011e+89  5.748568e+89  0 
 -5.046317e+89  1.185071e+90  0 
VECTORS displacement_ITER65 FLOAT
 6.962094e+88  8.309500e+89  0 
 -5.906419e+89  5.621469e+88  0 
 -1.582418e+89  6.441666e+89  0 
 4.488521e+88  6.218577e+89  0 
 -1.303192e+89  -6.054177e+88  0 
 -3.546984e+89  5.768733e+88  0 
 -3.127204e+88  1.546768e+89  0 
 -1.023387e+89  3.375885e+89  0 
 1.435034e+88  3.525987e+89  0 
 7.247931e+88  7.245546e+89  0 
 -2.023011e+89  5.748568e+89  0 
 -5.046317e+89  1.185071e+90  0 
VECTORS displacement_ITER66 FLOAT
 6.962094e+88  8.309500e+89  0 
 -5.906419e+89  5.621469e+88  0 
 -1.582418e+89  6.441666e+89  0 
 4.488521e+88  6.218577e+89  0 
 -1.303192e+89  -6.054177e+88  0 
 -3.546984e+89  5.768733e+88  0 
 -3.127204e+88  1.546768e+89  0 
 -1.023387e+89  3.375885e+89  0 
 1.435034e+88  3.525987e+89  0 
 7.247931e+88  7.245546e+89  0 
 -2.023011e+89  5.748568e+89  0 
 -5.046317e+89  1.185071e+90  0 
VECTORS displacement_ITER67 FLOAT
 6.962094e+88  8.309500e+89  0 
 -5.906419e+89  5.621469e+88  0 
 -1.582418e+89  6.441666e+89  0 
 4.488521e+88  6.218577e+89  0 
 -1.303192e+89  -6.054177e+88  0 
 -3.546984e+89  5.768733e+88  0 
 -3.127204e+88  1.546768e+89  0 
 -1.023387e+89  3.375885e+89  0 
 1.435034e+88  3.525987e+89  0 
 7.247931e+88  7.245546e+89  0 
 -2.023011e+89  5.748568e+89  0 
 -5.046317e+89  1.185071e+90  0 
VECTORS displacement_ITER68 FLOAT
 6.962094e+88  8.309500e+89  0 
 -5.906419e+89  5.621469e+88  0 
 -1.582418e+89  6.441666e+89  0 
 4.488521e+88  6.218577e+89  0 
 -1.303192e+89  -6.054177e+88  0 
 -3.546984e+89  5.768733e+88  0 
 -3.127204e+88  1.546768e+89  0 
 -1.023387e+89  3.375885e+89  0 
 1.435034e+88  3.525987e+89  0 
 7.247931e+88  7.245546e+89  0 
 -2.023011e+89  5.748568e+89  0 
 -5.046317e+89  1.185071e+90  0 
VECTORS displacement_ITER69 FLOAT
 6.962094e+88  8.309500e+89  0 
 -5.906419e+89  5.621469e+88  0 
 -1.582418e+89  6.441666e+89  0 
 4.488521e+88  6.218577e+89  0 
 -1.303192e+89  -6.054177e+88  0 
 -3.546984e+89  5.768733e+88  0 
 -3.127204e+88  1.546768e+89  0 
 -1.023387e+89  3.375885e+89  0 
 1.435034e+88  3.525987e+89  0 