# vtk DataFile Version 3.1
this is an vtk file created by FEMAC
ASCII
DATASET UNSTRUCTURED_GRID
POINTS 12 FLOAT
1.000000 0.000000 0.000000
1.500000 0.000000 0.000000
1.000000 0.200000 0.000000
1.000000 0.400000 0.000000
1.000000 0.600000 0.000000
1.000000 0.800000 0.000000
1.000000 1.000000 0.000000
1.500000 0.200000 0.000000
1.500000 0.400000 0.000000
1.500000 0.600000 0.000000
1.500000 0.800000 0.000000
1.500000 1.000000 0.000000
CELLS 5 25 
4 0 1 7 2
4 2 7 8 3
4 3 8 9 4
4 4  9 10  5
4 5 10 11  6
CELL_TYPES 5
9 9 9 9 9 
POINT_DATA 12
VECTORS displacement_ITER1 FLOAT
 -1.803532e-03  -1.407553e-03  0 
 -2.088796e-03  -3.312865e-03  0 
 -9.653171e-04  -1.395752e-03  0 
 -3.533116e-04  -1.301345e-03  0 
 4.049797e-04  -1.304274e-03  0 
 1.001437e-03  -1.385765e-03  0 
 1.842239e-03  -1.397822e-03  0 
 -1.392938e-03  -3.325445e-03  0 
 -4.169780e-04  -3.424726e-03  0 
 4.630134e-04  -3.422696e-03  0 
 1.432718e-03  -3.320744e-03  0 
 2.129673e-03  -3.307947e-03  0 
VECTORS displacement_ITER2 FLOAT
 -1.824042e-03  -1.400736e-03  0 
 -2.104480e-03  -3.420515e-03  0 
 -9.381479e-04  -1.393795e-03  0 
 -3.352941e-04  -1.389486e-03  0 
 3.885198e-04  -1.390044e-03  0 
 9.765664e-04  -1.371035e-03  0 
 1.870873e-03  -1.376139e-03  0 
 -1.371756e-03  -3.423702e-03  0 
 -4.043841e-04  -3.418539e-03  0 
 4.479665e-04  -3.416787e-03  0 
 1.415197e-03  -3.428286e-03  0 
 2.156394e-03  -3.424952e-03  0 
VECTORS displacement_ITER3 FLOAT
 -1.836660e-03  -1.399530e-03  0 
 -2.117024e-03  -3.441500e-03  0 
 -9.431695e-04  -1.397253e-03  0 
 -3.484743e-04  -1.395079e-03  0 
 3.826721e-04  -1.396135e-03  0 
 9.582279e-04  -1.394974e-03  0 
 1.851410e-03  -1.395977e-03  0 
 -1.379833e-03  -3.441307e-03  0 
 -4.162245e-04  -3.436242e-03  0 
 4.417248e-04  -3.434089e-03  0 
 1.400040e-03  -3.436518e-03  0 
 2.135678e-03  -3.436111e-03  0 
VECTORS displacement_ITER4 FLOAT
 -1.833030e-03  -1.405632e-03  0 
 -2.113146e-03  -3.440690e-03  0 
 -9.424951e-04  -1.404654e-03  0 
 -3.503181e-04  -1.395757e-03  0 
 3.791214e-04  -1.396476e-03  0 
 9.592338e-04  -1.392212e-03  0 
 1.856938e-03  -1.392303e-03  0 
 -1.378880e-03  -3.441415e-03  0 
 -4.199676e-04  -3.436055e-03  0 
 4.406336e-04  -3.435605e-03  0 
 1.401181e-03  -3.443413e-03  0 
 2.139886e-03  -3.442932e-03  0 
VECTORS displacement_ITER5 FLOAT
 -1.833732e-03  -1.403625e-03  0 
 -2.114225e-03  -3.441030e-03  0 
 -9.422565e-04  -1.402874e-03  0 
 -3.499937e-04  -1.395908e-03  0 
 3.787532e-04  -1.396361e-03  0 
 9.595873e-04  -1.394095e-03  0 
 1.856156e-03  -1.393813e-03  0 
 -1.379175e-03  -3.441568e-03  0 
 -4.187768e-04  -3.434641e-03  0 
 4.408911e-04  -3.433976e-03  0 
 1.401254e-03  -3.442079e-03  0 
 2.138736e-03  -3.441772e-03  0 
VECTORS displacement_ITER6 FLOAT
 -1.834020e-03  -1.403552e-03  0 
 -2.114591e-03  -3.441269e-03  0 
 -9.424748e-04  -1.402817e-03  0 
 -3.501434e-04  -1.395736e-03  0 
 3.785253e-04  -1.396139e-03  0 
 9.595409e-04  -1.393721e-03  0 
 1.855826e-03  -1.393389e-03  0 
 -1.379411e-03  -3.441739e-03  0 
 -4.188309e-04  -3.434381e-03  0 
 4.408357e-04  -3.433829e-03  0 
 1.401100e-03  -3.440916e-03  0 
 2.138328e-03  -3.440705e-03  0 
VECTORS displacement_ITER7 FLOAT
 -1.833981e-03  -1.403598e-03  0 
 -2.114544e-03  -3.441174e-03  0 
 -9.424490e-04  -1.402846e-03  0 
 -3.501051e-04  -1.395750e-03  0 
 3.785391e-04  -1.396162e-03  0 
 9.595688e-04  -1.393682e-03  0 
 1.855876e-03  -1.393326e-03  0 
 -1.379459e-03  -3.441668e-03  0 
 -4.187276e-04  -3.434349e-03  0 
 4.409176e-04  -3.433800e-03  0 
 1.401053e-03  -3.440997e-03  0 
 2.138385e-03  -3.440810e-03  0 
VECTORS displacement_ITER8 FLOAT
 -1.833983e-03  -1.403601e-03  0 
 -2.114545e-03  -3.441175e-03  0 
 -9.424508e-04  -1.402846e-03  0 
 -3.501089e-04  -1.395750e-03  0 
 3.785375e-04  -1.396158e-03  0 
 9.595679e-04  -1.393679e-03  0 
 1.855874e-03  -1.393320e-03  0 
 -1.379461e-03  -3.441672e-03  0 
 -4.187316e-04  -3.434351e-03  0 
 4.409173e-04  -3.433807e-03  0 
 1.401051e-03  -3.440989e-03  0 
 2.138383e-03  -3.440804e-03  0 
VECTORS displacement_ITER9 FLOAT
 -1.833983e-03  -1.403601e-03  0 
 -2.114545e-03  -3.441175e-03  0 
 -9.424508e-04  -1.402846e-03  0 
 -3.501089e-04  -1.395750e-03  0 
 3.785375e-04  -1.396158e-03  0 
 9.595679e-04  -1.393679e-03  0 
 1.855874e-03  -1.393320e-03  0 
 -1.379461e-03  -3.441672e-03  0 
 -4.187316e-04  -3.434351e-03  0 
 4.409172e-04  -3.433807e-03  0 
 1.401051e-03  -3.440989e-03  0 
 2.138383e-03  -3.440804e-03  0 
VECTORS displacement_ITER10 FLOAT
 1.335231e-01  1.224298e-01  0 
 1.380708e-01  3.236909e-01  0 
 5.325956e-02  1.220809e-01  0 
 -2.604449e-02  1.351348e-01  0 
 -9.712712e-02  1.406445e-01  0 
 -1.357475e-01  1.920630e-01  0 
 -2.028569e-01  1.949101e-01  0 
 5.759870e-02  3.275269e-01  0 
 -4.759962e-02  3.355610e-01  0 
 -1.185070e-01  3.335286e-01  0 
 -1.970926e-01  3.359004e-01  0 
 -2.363857e-01  3.323909e-01  0 
VECTORS displacement_ITER11 FLOAT
 1.574944e+13  -2.329836e+13  0 
 1.641971e+13  9.150178e+12  0 
 2.441663e+12  -2.498160e+13  0 
 -5.472065e+12  -1.978839e+11  0 
 4.589746e+12  1.415527e+12  0 
 1.314756e+13  -3.674247e+12  0 
 1.823744e+13  -2.964073e+12  0 
 3.404011e+12  7.072923e+12  0 
 -4.370467e+11  -2.737059e+13  0 
 9.190217e+12  -3.042517e+13  0 
 1.957502e+13  -1.428376e+13  0 
 2.224842e+13  -1.338591e+13  0 
VECTORS displacement_ITER12 FLOAT
 -4.129067e+28  2.312619e+28  0 
 -3.930650e+28  -6.959830e+28  0 
 -4.599315e+27  2.328856e+28  0 
 2.727863e+28  -2.329227e+28  0 
 2.464339e+28  -2.961665e+28  0 
 -2.383313e+27  -5.423887e+28  0 
 -3.330277e+28  -5.652676e+28  0 
 -2.283425e+27  -6.663341e+28  0 
 2.628671e+28  -2.446152e+28  0 
 2.513196e+28  -1.678353e+28  0 
 -2.953964e+27  1.878761e+28  0 
 -3.105477e+28  1.891391e+28  0 
VECTORS displacement_ITER13 FLOAT
 -4.488395e+42  -1.148517e+43  0 
 -8.207052e+41  -4.083779e+42  0 
 -8.269841e+42  -9.615083e+42  0 
 -6.465912e+42  9.211554e+42  0 
 6.911366e+42  1.104188e+43  0 
 8.031291e+42  -9.013423e+42  0 
 2.676920e+42  -9.227285e+42  0 
 -2.737262e+42  -5.032014e+42  0 
 -9.140762e+42  -2.385001e+43  0 
 6.904225e+42  -2.564426e+43  0 
 5.624329e+42  3.622334e+42  0 
 1.428441e+42  3.288280e+42  0 
VECTORS displacement_ITER14 FLOAT
 2.983672e+57  -1.252170e+58  0 
 3.319113e+57  -1.310950e+57  0 
 -3.103374e+56  -1.254380e+58  0 
 -5.345727e+57  1.445072e+57  0 
 1.217743e+57  -9.209493e+56  0 
 1.161135e+58  -1.768180e+58  0 
 1.951650e+58  -1.871020e+58  0 
 -2.468239e+57  -3.403455e+56  0 
 6.999422e+56  -1.257480e+58  0 
 5.023297e+57  -1.152767e+58  0 
 1.535439e+58  -3.653673e+58  0 
 1.979966e+58  -3.696617e+58  0 
VECTORS displacement_ITER15 FLOAT
 -3.500514e+71  -6.898602e+73  0 
 -4.022880e+72  -1.023089e+74  0 
 1.302299e+73  -6.300264e+73  0 
 2.023836e+73  -1.038070e+74  0 
 5.986770e+72  -1.096751e+74  0 
 2.382497e+73  -1.225423e+74  0 
 7.141482e+73  -1.233558e+74  0 
 7.433801e+72  -1.058228e+74  0 
 8.007454e+72  -9.522577e+73  0 
 7.713065e+72  -9.223767e+73  0 
 2.417180e+73  -2.152596e+74  0 
 5.098930e+73  -2.228801e+74  0 
VECTORS displacement_ITER16 FLOAT
 -5.349976e+89  6.708354e+88  0 
 -5.816763e+89  -4.840693e+89  0 
 -3.037109e+89  3.172245e+88  0 
 -1.070077e+89  4.978156e+89  0 
 2.556323e+89  4.202893e+89  0 
 6.083123e+88  -1.688868e+89  0 
 -1.809211e+89  -2.100778e+89  0 
 -4.523748e+89  -4.018060e+89  0 
 -5.880007e+88  -2.747761e+89  0 
 1.207549e+89  -1.993513e+89  0 
 4.127776e+88  3.895732e+89  0 
 -2.236889e+89  4.252956e+89  0 
VECTORS displacement_ITER17 FLOAT
 -5.349976e+89  6.708354e+88  0 
 -5.816763e+89  -4.840693e+89  0 
 -3.037109e+89  3.172245e+88  0 
 -1.070077e+89  4.978156e+89  0 
 2.556323e+89  4.202893e+89  0 
 6.083123e+88  -1.688868e+89  0 
 -1.809211e+89  -2.100778e+89  0 
 -4.523748e+89  -4.018060e+89  0 
 -5.880007e+88  -2.747761e+89  0 
 1.207549e+89  -1.993513e+89  0 
 4.127776e+88  3.895732e+89  0 
 -2.236889e+89  4.252956e+89  0 
VECTORS displacement_ITER18 FLOAT
 -5.349976e+89  6.708354e+88  0 
 -5.816763e+89  -4.840693e+89  0 
 -3.037109e+89  3.172245e+88  0 
 -1.070077e+89  4.978156e+89  0 
 2.556323e+89  4.202893e+89  0 
 6.083123e+88  -1.688868e+89  0 
 -1.809211e+89  -2.100778e+89  0 
 -4.523748e+89  -4.018060e+89  0 
 -5.880007e+88  -2.747761e+89  0 
 1.207549e+89  -1.993513e+89  0 
 4.127776e+88  3.895732e+89  0 
 -2.236889e+89  4.252956e+89  0 
VECTORS displacement_ITER19 FLOAT
 -5.349976e+89  6.708354e+88  0 
 -5.816763e+89  -4.840693e+89  0 
 -3.037109e+89  3.172245e+88  0 
 -1.070077e+89  4.978156e+89  0 
 2.556323e+89  4.202893e+89  0 
 6.083123e+88  -1.688868e+89  0 
 -1.809211e+89  -2.100778e+89  0 
 -4.523748e+89  -4.018060e+89  0 
 -5.880007e+88  -2.747761e+89  0 
 1.207549e+89  -1.993513e+89  0 
 4.127776e+88  3.895732e+89  0 
 -2.236889e+89  4.252956e+89  0 
VECTORS displacement_ITER20 FLOAT
 -5.349976e+89  6.708354e+88  0 
 -5.816763e+89  -4.840693e+89  0 
 -3.037109e+89  3.172245e+88  0 
 -1.070077e+89  4.978156e+89  0 
 2.556323e+89  4.202893e+89  0 
 6.083123e+88  -1.688868e+89  0 
 -1.809211e+89  -2.100778e+89  0 
 -4.523748e+89  -4.018060e+89  0 
 -5.880007e+88  -2.747761e+89  0 
 1.207549e+89  -1.993513e+89  0 
 4.127776e+88  3.895732e+89  0 
 -2.236889e+89  4.252956e+89  0 
VECTORS displacement_ITER21 FLOAT
 -5.349976e+89  6.708354e+88  0 
 -5.816763e+89  -4.840693e+89  0 
 -3.037109e+89  3.172245e+88  0 
 -1.070077e+89  4.978156e+89  0 
 2.556323e+89  4.202893e+89  0 
 6.083123e+88  -1.688868e+89  0 
 -1.809211e+89  -2.100778e+89  0 
 -4.523748e+89  -4.018060e+89  0 
 -5.880007e+88  -2.747761e+89  0 
 1.207549e+89  -1.993513e+89  0 
 4.127776e+88  3.895732e+89  0 
 -2.236889e+89  4.252956e+89  0 
VECTORS displacement_ITER22 FLOAT
 -5.349976e+89  6.708354e+88  0 
 -5.816763e+89  -4.840693e+89  0 
 -3.037109e+89  3.172245e+88  0 
 -1.070077e+89  4.978156e+89  0 
 2.556323e+89  4.202893e+89  0 
 6.083123e+88  -1.688868e+89  0 
 -1.809211e+89  -2.100778e+89  0 
 -4.523748e+89  -4.018060e+89  0 
 -5.880007e+88  -2.747761e+89  0 
 1.207549e+89  -1.993513e+89  0 
 4.127776e+88  3.895732e+89  0 
 -2.236889e+89  4.252956e+89  0 
VECTORS displacement_ITER23 FLOAT
 -5.349976e+89  6.708354e+88  0 
 -5.816763e+89  -4.840693e+89  0 
 -3.037109e+89  3.172245e+88  0 
 -1.070077e+89  4.978156e+89  0 
 2.556323e+89  4.202893e+89  0 
 6.083123e+88  -1.688868e+89  0 
 -1.809211e+89  -2.100778e+89  0 
 -4.523748e+89  -4.018060e+89  0 
 -5.880007e+88  -2.747761e+89  0 
 1.207549e+89  -1.993513e+89  0 
 4.127776e+88  3.895732e+89  0 
 -2.236889e+89  4.252956e+89  0 
VECTORS displacement_ITER24 FLOAT
 -5.349976e+89  6.708354e+88  0 
 -5.816763e+89  -4.840693e+89  0 
 -3.037109e+89  3.172245e+88  0 
 -1.070077e+89  4.978156e+89  0 
 2.556323e+89  4.202893e+89  0 
 6.083123e+88  -1.688868e+89  0 
 -1.809211e+89  -2.100778e+89  0 
 -4.523748e+89  -4.018060e+89  0 
 -5.880007e+88  -2.747761e+89  0 
 1.207549e+89  -1.993513e+89  0 
 4.127776e+88  3.895732e+89  0 
 -2.236889e+89  4.252956e+89  0 
VECTORS displacement_ITER25 FLOAT
 -5.349976e+89  6.708354e+88  0 
 -5.816763e+89  -4.840693e+89  0 
 -3.037109e+89  3.172245e+88  0 
 -1.070077e+89  4.978156e+89  0 
 2.556323e+89  4.202893e+89  0 
 6.083123e+88  -1.688868e+89  0 
 -1.809211e+89  -2.100778e+89  0 
 -4.523748e+89  -4.018060e+89  0 
 -5.880007e+88  -2.747761e+89  0 
 1.207549e+89  -1.993513e+89  0 
 4.127776e+88  3.895732e+89  0 
 -2.236889e+89  4.252956e+89  0 
VECTORS displacement_ITER26 FLOAT
 -5.349976e+89  6.708354e+88  0 
 -5.816763e+89  -4.840693e+89  0 
 -3.037109e+89  3.172245e+88  0 
 -1.070077e+89  4.978156e+89  0 
 2.556323e+89  4.202893e+89  0 
 6.083123e+88  -1.688868e+89  0 
 -1.809211e+89  -2.100778e+89  0 
 -4.523748e+89  -4.018060e+89  0 
 -5.880007e+88  -2.747761e+89  0 
 1.207549e+89  -1.993513e+89  0 
 4.127776e+88  3.895732e+89  0 
 -2.236889e+89  4.252956e+89  0 
VECTORS displacement_ITER27 FLOAT
 -5.349976e+89  6.708354e+88  0 
 -5.816763e+89  -4.840693e+89  0 
 -3.037109e+89  3.172245e+88  0 
 -1.070077e+89  4.978156e+89  0 
 2.556323e+89  4.202893e+89  0 
 6.083123e+88  -1.688868e+89  0 
 -1.809211e+89  -2.100778e+89  0 
 -4.523748e+89  -4.018060e+89  0 
 -5.880007e+88  -2.747761e+89  0 
 1.207549e+89  -1.993513e+89  0 
 4.127776e+88  3.895732e+89  0 
 -2.236889e+89  4.252956e+89  0 
VECTORS displacement_ITER28 FLOAT
 -5.349976e+89  6.708354e+88  0 
 -5.816763e+89  -4.840693e+89  0 
 -3.037109e+89  3.172245e+88  0 
 -1.070077e+89  4.978156e+89  0 
 2.556323e+89  4.202893e+89  0 
 6.083123e+88  -1.688868e+89  0 
 -1.809211e+89  -2.100778e+89  0 
 -4.523748e+89  -4.018060e+89  0 
 -5.880007e+88  -2.747761e+89  0 
 1.207549e+89  -1.993513e+89  0 
 4.127776e+88  3.895732e+89  0 
 -2.236889e+89  4.252956e+89  0 
VECTORS displacement_ITER29 FLOAT
 -5.349976e+89  6.708354e+88  0 
 -5.816763e+89  -4.840693e+89  0 
 -3.037109e+89  3.172245e+88  0 
 -1.070077e+89  4.978156e+89  0 
 2.556323e+89  4.202893e+89  0 
 6.083123e+88  -1.688868e+89  0 
 -1.809211e+89  -2.100778e+89  0 
 -4.523748e+89  -4.018060e+89  0 
 -5.880007e+88  -2.747761e+89  0 
 1.207549e+89  -1.993513e+89  0 
 4.127776e+88  3.895732e+89  0 
 -2.236889e+89  4.252956e+89  0 
VECTORS displacement_ITER30 FLOAT
 -5.349976e+89  6.708354e+88  0 
 -5.816763e+89  -4.840693e+89  0 
 -3.037109e+89  3.172245e+88  0 
 -1.070077e+89  4.978156e+89  0 
 2.556323e+89  4.202893e+89  0 
 6.083123e+88  -1.688868e+89  0 
 -1.809211e+89  -2.100778e+89  0 
 -4.523748e+89  -4.018060e+89  0 
 -5.880007e+88  -2.747761e+89  0 
 1.207549e+89  -1.993513e+89  0 
 4.127776e+88  3.895732e+89  0 
 -2.236889e+89  4.252956e+89  0 
VECTORS displacement_ITER31 FLOAT
 -5.349976e+89  6.708354e+88  0 
 -5.816763e+89  -4.840693e+89  0 
 -3.037109e+89  3.172245e+88  0 
 -1.070077e+89  4.978156e+89  0 
 2.556323e+89  4.202893e+89  0 
 6.083123e+88  -1.688868e+89  0 
 -1.809211e+89  -2.100778e+89  0 
 -4.523748e+89  -4.018060e+89  0 
 -5.880007e+88  -2.747761e+89  0 
 1.207549e+89  -1.993513e+89  0 
 4.127776e+88  3.895732e+89  0 
 -2.236889e+89  4.252956e+89  0 
VECTORS displacement_ITER32 FLOAT
 -5.349976e+89  6.708354e+88  0 
 -5.816763e+89  -4.840693e+89  0 
 -3.037109e+89  3.172245e+88  0 
 -1.070077e+89  4.978156e+89  0 
 2.556323e+89  4.202893e+89  0 
 6.083123e+88  -1.688868e+89  0 
 -1.809211e+89  -2.100778e+89  0 
 -4.523748e+89  -4.018060e+89  0 
 -5.880007e+88  -2.747761e+89  0 
 1.207549e+89  -1.993513e+89  0 
 4.127776e+88  3.895732e+89  0 
 -2.236889e+89  4.252956e+89  0 
VECTORS displacement_ITER33 FLOAT
 -5.349976e+89  6.708354e+88  0 
 -5.816763e+89  -4.840693e+89  0 
 -3.037109e+89  3.172245e+88  0 
 -1.070077e+89  4.978156e+89  0 
 2.556323e+89  4.202893e+89  0 
 6.083123e+88  -1.688868e+89  0 
 -1.809211e+89  -2.100778e+89  0 
 -4.523748e+89  -4.018060e+89  0 
 -5.880007e+88  -2.747761e+89  0 
 1.207549e+89  -1.993513e+89  0 
 4.127776e+88  3.895732e+89  0 
 -2.236889e+89  4.252956e+89  0 
VECTORS displacement_ITER34 FLOAT
 -5.349976e+89  6.708354e+88  0 
 -5.816763e+89  -4.840693e+89  0 
 -3.037109e+89  3.172245e+88  0 
 -1.070077e+89  4.978156e+89  0 
 2.556323e+89  4.202893e+89  0 
 6.083123e+88  -1.688868e+89  0 
 -1.809211e+89  -2.100778e+89  0 
 -4.523748e+89  -4.018060e+89  0 
 -5.880007e+88  -2.747761e+89  0 
 1.207549e+89  -1.993513e+89  0 
 4.127776e+88  3.895732e+89  0 
 -2.236889e+89  4.252956e+89  0 
VECTORS displacement_ITER35 FLOAT
 -5.349976e+89  6.708354e+88  0 
 -5.816763e+89  -4.840693e+89  0 
 -3.037109e+89  3.172245e+88  0 
 -1.070077e+89  4.978156e+89  0 
 2.556323e+89  4.202893e+89  0 
 6.083123e+88  -1.688868e+89  0 
 -1.809211e+89  -2.100778e+89  0 
 -4.523748e+89  -4.018060e+89  0 
 -5.880007e+88  -2.747761e+89  0 
 1.207549e+89  -1.993513e+89  0 
 4.127776e+88  3.895732e+89  0 
 -2.236889e+89  4.252956e+89  0 
VECTORS displacement_ITER36 FLOAT
 -5.349976e+89  6.708354e+88  0 
 -5.816763e+89  -4.840693e+89  0 
 -3.037109e+89  3.172245e+88  0 
 -1.070077e+89  4.978156e+89  0 
 2.556323e+89  4.202893e+89  0 
 6.083123e+88  -1.688868e+89  0 
 -1.809211e+89  -2.100778e+89  0 
 -4.523748e+89  -4.018060e+89  0 
 -5.880007e+88  -2.747761e+89  0 
 1.207549e+89  -1.993513e+89  0 
 4.127776e+88  3.895732e+89  0 
 -2.236889e+89  4.252956e+89  0 
VECTORS displacement_ITER37 FLOAT
 -5.349976e+89  6.708354e+88  0 
 -5.816763e+89  -4.840693e+89  0 
 -3.037109e+89  3.172245e+88  0 
 -1.070077e+89  4.978156e+89  0 
 2.556323e+89  4.202893e+89  0 
 6.083123e+88  -1.688868e+89  0 
 -1.809211e+89  -2.100778e+89  0 
 -4.523748e+89  -4.018060e+89  0 
 -5.880007e+88  -2.747761e+89  0 
 1.207549e+89  -1.993513e+89  0 
 4.127776e+88  3.895732e+89  0 
 -2.236889e+89  4.252956e+89  0 
VECTORS displacement_ITER38 FLOAT
 -5.349976e+89  6.708354e+88  0 
 -5.816763e+89  -4.840693e+89  0 
 -3.037109e+89  3.172245e+88  0 
 -1.070077e+89  4.978156e+89  0 
 2.556323e+89  4.202893e+89  0 
 6.083123e+88  -1.688868e+89  0 
 -1.809211e+89  -2.100778e+89  0 
 -4.523748e+89  -4.018060e+89  0 
 -5.880007e+88  -2.747761e+89  0 
 1.207549e+89  -1.993513e+89  0 
 4.127776e+88  3.895732e+89  0 
 -2.236889e+89  4.252956e+89  0 
VECTORS displacement_ITER39 FLOAT
 -5.349976e+89  6.708354e+88  0 
 -5.816763e+89  -4.840693e+89  0 
 -3.037109e+89  3.172245e+88  0 
 -1.070077e+89  4.978156e+89  0 
 2.556323e+89  4.202893e+89  0 
 6.083123e+88  -1.688868e+89  0 
 -1.809211e+89  -2.100778e+89  0 
 -4.523748e+89  -4.018060e+89  0 
 -5.880007e+88  -2.747761e+89  0 
 1.207549e+89  -1.993513e+89  0 
 4.127776e+88  3.895732e+89  0 
 -2.236889e+89  4.252956e+89  0 
VECTORS displacement_ITER40 FLOAT
 -5.349976e+89  6.708354e+88  0 
 -5.816763e+89  -4.840693e+89  0 
 -3.037109e+89  3.172245e+88  0 
 -1.070077e+89  4.978156e+89  0 
 2.556323e+89  4.202893e+89  0 
 6.083123e+88  -1.688868e+89  0 
 -1.809211e+89  -2.100778e+89  0 
 -4.523748e+89  -4.018060e+89  0 
 -5.880007e+88  -2.747761e+89  0 
 1.207549e+89  -1.993513e+89  0 
 4.127776e+88  3.895732e+89  0 
 -2.236889e+89  4.252956e+89  0 
VECTORS displacement_ITER41 FLOAT
 -5.349976e+89  6.708354e+88  0 
 -5.816763e+89  -4.840693e+89  0 
 -3.037109e+89  3.172245e+88  0 
 -1.070077e+89  4.978156e+89  0 
 2.556323e+89  4.202893e+89  0 
 6.083123e+88  -1.688868e+89  0 
 -1.809211e+89  -2.100778e+89  0 
 -4.523748e+89  -4.018060e+89  0 
 -5.880007e+88  -2.747761e+89  0 
 1.207549e+89  -1.993513e+89  0 
 4.127776e+88  3.895732e+89  0 
 -2.236889e+89  4.252956e+89  0 
VECTORS displacement_ITER42 FLOAT
 -5.349976e+89  6.708354e+88  0 
 -5.816763e+89  -4.840693e+89  0 
 -3.037109e+89  3.172245e+88  0 
 -1.070077e+89  4.978156e+89  0 
 2.556323e+89  4.202893e+89  0 
 6.083123e+88  -1.688868e+89  0 
 -1.809211e+89  -2.100778e+89  0 
 -4.523748e+89  -4.018060e+89  0 
 -5.880007e+88  -2.747761e+89  0 
 1.207549e+89  -1.993513e+89  0 
 4.127776e+88  3.895732e+89  0 
 -2.236889e+89  4.252956e+89  0 
VECTORS displacement_ITER43 FLOAT
 -5.349976e+89  6.708354e+88  0 
 -5.816763e+89  -4.840693e+89  0 
 -3.037109e+89  3.172245e+88  0 
 -1.070077e+89  4.978156e+89  0 
 2.556323e+89  4.202893e+89  0 
 6.083123e+88  -1.688868e+89  0 
 -1.809211e+89  -2.100778e+89  0 
 -4.523748e+89  -4.018060e+89  0 
 -5.880007e+88  -2.747761e+89  0 
 1.207549e+89  -1.993513e+89  0 
 4.127776e+88  3.895732e+89  0 
 -2.236889e+89  4.252956e+89  0 
VECTORS displacement_ITER44 FLOAT
 -5.349976e+89  6.708354e+88  0 
 -5.816763e+89  -4.840693e+89  0 
 -3.037109e+89  3.172245e+88  0 
 -1.070077e+89  4.978156e+89  0 
 2.556323e+89  4.202893e+89  0 
 6.083123e+88  -1.688868e+89  0 
 -1.809211e+89  -2.100778e+89  0 
 -4.523748e+89  -4.018060e+89  0 
 -5.880007e+88  -2.747761e+89  0 
 1.207549e+89  -1.993513e+89  0 
 4.127776e+88  3.895732e+89  0 
 -2.236889e+89  4.252956e+89  0 
VECTORS displacement_ITER45 FLOAT
 -5.349976e+89  6.708354e+88  0 
 -5.816763e+89  -4.840693e+89  0 
 -3.037109e+89  3.172245e+88  0 
 -1.070077e+89  4.978156e+89  0 
 2.556323e+89  4.202893e+89  0 
 6.083123e+88  -1.688868e+89  0 
 -1.809211e+89  -2.100778e+89  0 
 -4.523748e+89  -4.018060e+89  0 
 -5.880007e+88  -2.747761e+89  0 
 1.207549e+89  -1.993513e+89  0 
 4.127776e+88  3.895732e+89  0 
 -2.236889e+89  4.252956e+89  0 
VECTORS displacement_ITER46 FLOAT
 -5.349976e+89  6.708354e+88  0 
 -5.816763e+89  -4.840693e+89  0 
 -3.037109e+89  3.172245e+88  0 
 -1.070077e+89  4.978156e+89  0 
 2.556323e+89  4.202893e+89  0 
 6.083123e+88  -1.688868e+89  0 
 -1.809211e+89  -2.100778e+89  0 
 -4.523748e+89  -4.018060e+89  0 
 -5.880007e+88  -2.747761e+89  0 
 1.207549e+89  -1.993513e+89  0 
 4.127776e+88  3.895732e+89  0 
 -2.236889e+89  4.252956e+89  0 
VECTORS displacement_ITER47 FLOAT
 -5.349976e+89  6.708354e+88  0 
 -5.816763e+89  -4.840693e+89  0 
 -3.037109e+89  3.172245e+88  0 
 -1.070077e+89  4.978156e+89  0 
 2.556323e+89  4.202893e+89  0 
 6.083123e+88  -1.688868e+89  0 
 -1.809211e+89  -2.100778e+89  0 
 -4.523748e+89  -4.018060e+89  0 
 -5.880007e+88  -2.747761e+89  0 
 1.207549e+89  -1.993513e+89  0 
 4.127776e+88  3.895732e+89  0 
 -2.236889e+89  4.252956e+89  0 
VECTORS displacement_ITER48 FLOAT
 -5.349976e+89  6.708354e+88  0 
 -5.816763e+89  -4.840693e+89  0 
 -3.037109e+89  3.172245e+88  0 
 -1.070077e+89  4.978156e+89  0 
 2.556323e+89  4.202893e+89  0 
 6.083123e+88  -1.688868e+89  0 
 -1.809211e+89  -2.100778e+89  0 
 -4.523748e+89  -4.018060e+89  0 
 -5.880007e+88  -2.747761e+89  0 
 1.207549e+89  -1.993513e+89  0 
 4.127776e+88  3.895732e+89  0 
 -2.236889e+89  4.252956e+89  0 
VECTORS displacement_ITER49 FLOAT
 -5.349976e+89  6.708354e+88  0 
 -5.816763e+89  -4.840693e+89  0 
 -3.037109e+89  3.172245e+88  0 
 -1.070077e+89  4.978156e+89  0 
 2.556323e+89  4.202893e+89  0 
 6.083123e+88  -1.688868e+89  0 
 -1.809211e+89  -2.100778e+89  0 
 -4.523748e+89  -4.018060e+89  0 
 -5.880007e+88  -2.747761e+89  0 
 1.207549e+89  -1.993513e+89  0 
 4.127776e+88  3.895732e+89  0 
 -2.236889e+89  4.252956e+89  0 
VECTORS displacement_ITER50 FLOAT
 -5.349976e+89  6.708354e+88  0 
 -5.816763e+89  -4.840693e+89  0 
 -3.037109e+89  3.172245e+88  0 
 -1.070077e+89  4.978156e+89  0 
 2.556323e+89  4.202893e+89  0 
 6.083123e+88  -1.688868e+89  0 
 -1.809211e+89  -2.100778e+89  0 
 -4.523748e+89  -4.018060e+89  0 
 -5.880007e+88  -2.747761e+89  0 
 1.207549e+89  -1.993513e+89  0 
 4.127776e+88  3.895732e+89  0 
 -2.236889e+89  4.252956e+89  0 
VECTORS displacement_ITER51 FLOAT
 -5.349976e+89  6.708354e+88  0 
 -5.816763e+89  -4.840693e+89  0 
 -3.037109e+89  3.172245e+88  0 
 -1.070077e+89  4.978156e+89  0 
 2.556323e+89  4.202893e+89  0 
 6.083123e+88  -1.688868e+89  0 
 -1.809211e+89  -2.100778e+89  0 
 -4.523748e+89  -4.018060e+89  0 
 -5.880007e+88  -2.747761e+89  0 
 1.207549e+89  -1.993513e+89  0 
 4.127776e+88  3.895732e+89  0 
 -2.236889e+89  4.252956e+89  0 
VECTORS displacement_ITER52 FLOAT
 -5.349976e+89  6.708354e+88  0 
 -5.816763e+89  -4.840693e+89  0 
 -3.037109e+89  3.172245e+88  0 
 -1.070077e+89  4.978156e+89  0 
 2.556323e+89  4.202893e+89  0 
 6.083123e+88  -1.688868e+89  0 
 -1.809211e+89  -2.100778e+89  0 
 -4.523748e+89  -4.018060e+89  0 
 -5.880007e+88  -2.747761e+89  0 
 1.207549e+89  -1.993513e+89  0 
 4.127776e+88  3.895732e+89  0 
 -2.236889e+89  4.252956e+89  0 
VECTORS displacement_ITER53 FLOAT
 -5.349976e+89  6.708354e+88  0 
 -5.816763e+89  -4.840693e+89  0 
 -3.037109e+89  3.172245e+88  0 
 -1.070077e+89  4.978156e+89  0 
 2.556323e+89  4.202893e+89  0 
 6.083123e+88  -1.688868e+89  0 
 -1.809211e+89  -2.100778e+89  0 
 -4.523748e+89  -4.018060e+89  0 
 -5.880007e+88  -2.747761e+89  0 
 1.207549e+89  -1.993513e+89  0 
 4.127776e+88  3.895732e+89  0 
 -2.236889e+89  4.252956e+89  0 
VECTORS displacement_ITER54 FLOAT
 -5.349976e+89  6.708354e+88  0 
 -5.816763e+89  -4.840693e+89  0 
 -3.037109e+89  3.172245e+88  0 
 -1.070077e+89  4.978156e+89  0 
 2.556323e+89  4.202893e+89  0 
 6.083123e+88  -1.688868e+89  0 
 -1.809211e+89  -2.100778e+89  0 
 -4.523748e+89  -4.018060e+89  0 
 -5.880007e+88  -2.747761e+89  0 
 1.207549e+89  -1.993513e+89  0 
 4.127776e+88  3.895732e+89  0 
 -2.236889e+89  4.252956e+89  0 
VECTORS displacement_ITER55 FLOAT
 -5.349976e+89  6.708354e+88  0 
 -5.816763e+89  -4.840693e+89  0 
 -3.037109e+89  3.172245e+88  0 
 -1.070077e+89  4.978156e+89  0 
 2.556323e+89  4.202893e+89  0 
 6.083123e+88  -1.688868e+89  0 
 -1.809211e+89  -2.100778e+89  0 
 -4.523748e+89  -4.018060e+89  0 
 -5.880007e+88  -2.747761e+89  0 
 1.207549e+89  -1.993513e+89  0 
 4.127776e+88  3.895732e+89  0 
 -2.236889e+89  4.252956e+89  0 
VECTORS displacement_ITER56 FLOAT
 -5.349976e+89  6.708354e+88  0 
 -5.816763e+89  -4.840693e+89  0 
 -3.037109e+89  3.172245e+88  0 
 -1.070077e+89  4.978156e+89  0 
 2.556323e+89  4.202893e+89  0 
 6.083123e+88  -1.688868e+89  0 
 -1.809211e+89  -2.100778e+89  0 
 -4.523748e+89  -4.018060e+89  0 
 -5.880007e+88  -2.747761e+89  0 
 1.207549e+89  -1.993513e+89  0 
 4.127776e+88  3.895732e+89  0 
 -2.236889e+89  4.252956e+89  0 
VECTORS displacement_ITER57 FLOAT
 -5.349976e+89  6.708354e+88  0 
 -5.816763e+89  -4.840693e+89  0 
 -3.037109e+89  3.172245e+88  0 
 -1.070077e+89  4.978156e+89  0 
 2.556323e+89  4.202893e+89  0 
 6.083123e+88  -1.688868e+89  0 
 -1.809211e+89  -2.100778e+89  0 
 -4.523748e+89  -4.018060e+89  0 
 -5.880007e+88  -2.747761e+89  0 
 1.207549e+89  -1.993513e+89  0 
 4.127776e+88  3.895732e+89  0 
 -2.236889e+89  4.252956e+89  0 
VECTORS displacement_ITER58 FLOAT
 -5.349976e+89  6.708354e+88  0 
 -5.816763e+89  -4.840693e+89  0 
 -3.037109e+89  3.172245e+88  0 
 -1.070077e+89  4.978156e+89  0 
 2.556323e+89  4.202893e+89  0 
 6.083123e+88  -1.688868e+89  0 
 -1.809211e+89  -2.100778e+89  0 
 -4.523748e+89  -4.018060e+89  0 
 -5.880007e+88  -2.747761e+89  0 
 1.207549e+89  -1.993513e+89  0 
 4.127776e+88  3.895732e+89  0 
 -2.236889e+89  4.252956e+89  0 
VECTORS displacement_ITER59 FLOAT
 -5.349976e+89  6.708354e+88  0 
 -5.816763e+89  -4.840693e+89  0 
 -3.037109e+89  3.172245e+88  0 
 -1.070077e+89  4.978156e+89  0 
 2.556323e+89  4.202893e+89  0 
 6.083123e+88  -1.688868e+89  0 
 -1.809211e+89  -2.100778e+89  0 
 -4.523748e+89  -4.018060e+89  0 
 -5.880007e+88  -2.747761e+89  0 
 1.207549e+89  -1.993513e+89  0 
 4.127776e+88  3.895732e+89  0 
 -2.236889e+89  4.252956e+89  0 
VECTORS displacement_ITER60 FLOAT
 -5.349976e+89  6.708354e+88  0 
 -5.816763e+89  -4.840693e+89  0 
 -3.037109e+89  3.172245e+88  0 
 -1.070077e+89  4.978156e+89  0 
 2.556323e+89  4.202893e+89  0 
 6.083123e+88  -1.688868e+89  0 
 -1.809211e+89  -2.100778e+89  0 
 -4.523748e+89  -4.018060e+89  0 
 -5.880007e+88  -2.747761e+89  0 
 1.207549e+89  -1.993513e+89  0 
 4.127776e+88  3.895732e+89  0 
 -2.236889e+89  4.252956e+89  0 
VECTORS displacement_ITER61 FLOAT
 -5.349976e+89  6.708354e+88  0 
 -5.816763e+89  -4.840693e+89  0 
 -3.037109e+89  3.172245e+88  0 
 -1.070077e+89  4.978156e+89  0 
 2.556323e+89  4.202893e+89  0 
 6.083123e+88  -1.688868e+89  0 
 -1.809211e+89  -2.100778e+89  0 
 -4.523748e+89  -4.018060e+89  0 
 -5.880007e+88  -2.747761e+89  0 
 1.207549e+89  -1.993513e+89  0 
 4.127776e+88  3.895732e+89  0 
 -2.236889e+89  4.252956e+89  0 
VECTORS displacement_ITER62 FLOAT
 -5.349976e+89  6.708354e+88  0 
 -5.816763e+89  -4.840693e+89  0 
 -3.037109e+89  3.172245e+88  0 
 -1.070077e+89  4.978156e+89  0 
 2.556323e+89  4.202893e+89  0 
 6.083123e+88  -1.688868e+89  0 
 -1.809211e+89  -2.100778e+89  0 
 -4.523748e+89  -4.018060e+89  0 
 -5.880007e+88  -2.747761e+89  0 
 1.207549e+89  -1.993513e+89  0 
 4.127776e+88  3.895732e+89  0 
 -2.236889e+89  4.252956e+89  0 
VECTORS displacement_ITER63 FLOAT
 -5.349976e+89  6.708354e+88  0 
 -5.816763e+89  -4.840693e+89  0 
 -3.037109e+89  3.172245e+88  0 
 -1.070077e+89  4.978156e+89  0 
 2.556323e+89  4.202893e+89  0 
 6.083123e+88  -1.688868e+89  0 
 -1.809211e+89  -2.100778e+89  0 
 -4.523748e+89  -4.018060e+89  0 
 -5.880007e+88  -2.747761e+89  0 
 1.207549e+89  -1.993513e+89  0 
 4.127776e+88  3.895732e+89  0 
 -2.236889e+89  4.252956e+89  0 
VECTORS displacement_ITER64 FLOAT
 -5.349976e+89  6.708354e+88  0 
 -5.816763e+89  -4.840693e+89  0 
 -3.037109e+89  3.172245e+88  0 
 -1.070077e+89  4.978156e+89  0 
 2.556323e+89  4.202893e+89  0 
 6.083123e+88  -1.688868e+89  0 
 -1.809211e+89  -2.100778e+89  0 
 -4.523748e+89  -4.018060e+89  0 
 -5.880007e+88  -2.747761e+89  0 
 1.207549e+89  -1.993513e+89  0 
 4.127776e+88  3.895732e+89  0 
 -2.236889e+89  4.252956e+89  0 
VECTORS displacement_ITER65 FLOAT
 -5.349976e+89  6.708354e+88  0 
 -5.816763e+89  -4.840693e+89  0 
 -3.037109e+89  3.172245e+88  0 
 -1.070077e+89  4.978156e+89  0 
 2.556323e+89  4.202893e+89  0 
 6.083123e+88  -1.688868e+89  0 
 -1.809211e+89  -2.100778e+89  0 
 -4.523748e+89  -4.018060e+89  0 
 -5.880007e+88  -2.747761e+89  0 
 1.207549e+89  -1.993513e+89  0 
 4.127776e+88  3.895732e+89  0 
 -2.236889e+89  4.252956e+89  0 
VECTORS displacement_ITER66 FLOAT
 -5.349976e+89  6.708354e+88  0 
 -5.816763e+89  -4.840693e+89  0 
 -3.037109e+89  3.172245e+88  0 
 -1.070077e+89  4.978156e+89  0 
 2.556323e+89  4.202893e+89  0 
 6.083123e+88  -1.688868e+89  0 
 -1.809211e+89  -2.100778e+89  0 
 -4.523748e+89  -4.018060e+89  0 
 -5.880007e+88  -2.747761e+89  0 
 1.207549e+89  -1.993513e+89  0 
 4.127776e+88  3.895732e+89  0 
 -2.236889e+89  4.252956e+89  0 
VECTORS displacement_ITER67 FLOAT
 -5.349976e+89  6.708354e+88  0 
 -5.816763e+89  -4.840693e+89  0 
 -3.037109e+89  3.172245e+88  0 
 -1.070077e+89  4.978156e+89  0 
 2.556323e+89  4.202893e+89  0 
 6.083123e+88  -1.688868e+89  0 
 -1.809211e+89  -2.100778e+89  0 
 -4.523748e+89  -4.018060e+89  0 
 -5.880007e+88  -2.747761e+89  0 
 1.207549e+89  -1.993513e+89  0 
 4.127776e+88  3.895732e+89  0 
 -2.236889e+89  4.252956e+89  0 
VECTORS displacement_ITER68 FLOAT
 -5.349976e+89  6.708354e+88  0 
 -5.816763e+89  -4.840693e+89  0 
 -3.037109e+89  3.172245e+88  0 
 -1.070077e+89  4.978156e+89  0 
 2.556323e+89  4.202893e+89  0 
 6.083123e+88  -1.688868e+89  0 
 -1.809211e+89  -2.100778e+89  0 
 -4.523748e+89  -4.018060e+89  0 
 -5.880007e+88  -2.747761e+89  0 
 1.207549e+89  -1.993513e+89  0 
 4.127776e+88  3.895732e+89  0 
 -2.236889e+89  4.252956e+89  0 
VECTORS displacement_ITER69 FLOAT