# vtk DataFile Version 3.1
this is an vtk file created by FEMAC
ASCII
DATASET UNSTRUCTURED_GRID
POINTS 102 FLOAT
0.000000 0.000000 0.000000
0.500000 0.000000 0.000000
1.000000 0.000000 0.000000
1.500000 0.000000 0.000000
2.000000 0.000000 0.000000
2.500000 0.000000 0.000000
3.000000 0.000000 0.000000
3.500000 0.000000 0.000000
4.000000 0.000000 0.000000
4.500000 0.000000 0.000000
5.000000 0.000000 0.000000
5.500000 0.000000 0.000000
6.000000 0.000000 0.000000
6.500000 0.000000 0.000000
7.000000 0.000000 0.000000
7.500000 0.000000 0.000000
8.000000 0.000000 0.000000
0.000000 0.200000 0.000000
0.500000 0.200000 0.000000
0.000000 0.400000 0.000000
0.500000 0.400000 0.000000
0.000000 0.600000 0.000000
0.500000 0.600000 0.000000
0.000000 0.800000 0.000000
0.500000 0.800000 0.000000
0.000000 1.000000 0.000000
0.500000 1.000000 0.000000
1.000000 0.200000 0.000000
1.000000 0.400000 0.000000
1.000000 0.600000 0.000000
1.000000 0.800000 0.000000
1.000000 1.000000 0.000000
1.500000 0.200000 0.000000
1.500000 0.400000 0.000000
1.500000 0.600000 0.000000
1.500000 0.800000 0.000000
1.500000 1.000000 0.000000
2.000000 0.200000 0.000000
2.000000 0.400000 0.000000
2.000000 0.600000 0.000000
2.000000 0.800000 0.000000
2.000000 1.000000 0.000000
2.500000 0.200000 0.000000
2.500000 0.400000 0.000000
2.500000 0.600000 0.000000
2.500000 0.800000 0.000000
2.500000 1.000000 0.000000
3.000000 0.200000 0.000000
3.000000 0.400000 0.000000
3.000000 0.600000 0.000000
3.000000 0.800000 0.000000
3.000000 1.000000 0.000000
3.500000 0.200000 0.000000
3.500000 0.400000 0.000000
3.500000 0.600000 0.000000
3.500000 0.800000 0.000000
3.500000 1.000000 0.000000
4.000000 0.200000 0.000000
4.000000 0.400000 0.000000
4.000000 0.600000 0.000000
4.000000 0.800000 0.000000
4.000000 1.000000 0.000000
4.500000 0.200000 0.000000
4.500000 0.400000 0.000000
4.500000 0.600000 0.000000
4.500000 0.800000 0.000000
4.500000 1.000000 0.000000
5.000000 0.200000 0.000000
5.000000 0.400000 0.000000
5.000000 0.600000 0.000000
5.000000 0.800000 0.000000
5.000000 1.000000 0.000000
5.500000 0.200000 0.000000
5.500000 0.400000 0.000000
5.500000 0.600000 0.000000
5.500000 0.800000 0.000000
5.500000 1.000000 0.000000
6.000000 0.200000 0.000000
6.000000 0.400000 0.000000
6.000000 0.600000 0.000000
6.000000 0.800000 0.000000
6.000000 1.000000 0.000000
6.500000 0.200000 0.000000
6.500000 0.400000 0.000000
6.500000 0.600000 0.000000
6.500000 0.800000 0.000000
6.500000 1.000000 0.000000
7.000000 0.200000 0.000000
7.000000 0.400000 0.000000
7.000000 0.600000 0.000000
7.000000 0.800000 0.000000
7.000000 1.000000 0.000000
7.500000 0.200000 0.000000
7.500000 0.400000 0.000000
7.500000 0.600000 0.000000
7.500000 0.800000 0.000000
7.500000 1.000000 0.000000
8.000000 0.200000 0.000000
8.000000 0.400000 0.000000
8.000000 0.600000 0.000000
8.000000 0.800000 0.000000
8.000000 1.000000 0.000000
CELLS 80 400 
4 0  1 18 17
4 17 18 20 19
4 19 20 22 21
4 21 22 24 23
4 23 24 26 25
4 1  2 27 18
4 18 27 28 20
4 20 28 29 22
4 22 29 30 24
4 24 30 31 26
4 2  3 32 27
4 27 32 33 28
4 28 33 34 29
4 29 34 35 30
4 30 35 36 31
4 3  4 37 32
4 32 37 38 33
4 33 38 39 34
4 34 39 40 35
4 35 40 41 36
4 4  5 42 37
4 37 42 43 38
4 38 43 44 39
4 39 44 45 40
4 40 45 46 41
4 5  6 47 42
4 42 47 48 43
4 43 48 49 44
4 44 49 50 45
4 45 50 51 46
4 6  7 52 47
4 47 52 53 48
4 48 53 54 49
4 49 54 55 50
4 50 55 56 51
4 7  8 57 52
4 52 57 58 53
4 53 58 59 54
4 54 59 60 55
4 55 60 61 56
4 8  9 62 57
4 57 62 63 58
4 58 63 64 59
4 59 64 65 60
4 60 65 66 61
4 9 10 67 62
4 62 67 68 63
4 63 68 69 64
4 64 69 70 65
4 65 70 71 66
4 10 11 72 67
4 67 72 73 68
4 68 73 74 69
4 69 74 75 70
4 70 75 76 71
4 11 12 77 72
4 72 77 78 73
4 73 78 79 74
4 74 79 80 75
4 75 80 81 76
4 12 13 82 77
4 77 82 83 78
4 78 83 84 79
4 79 84 85 80
4 80 85 86 81
4 13 14 87 82
4 82 87 88 83
4 83 88 89 84
4 84 89 90 85
4 85 90 91 86
4 14 15 92 87
4 87 92 93 88
4 88 93 94 89
4 89 94 95 90
4 90 95 96 91
4 15 16 97 92
4 92 97 98 93
4 93 98 99 94
4 94  99 100  95
4 95 100 101  96
CELL_TYPES 80
9 9 9 9 9 9 9 9 9 9 9 9 9 9 9 9 9 9 9 9 9 9 9 9 9 9 9 9 9 9 9 9 9 9 9 9 9 9 9 9 9 9 9 9 9 9 9 9 9 9 9 9 9 9 9 9 9 9 9 9 9 9 9 9 9 9 9 9 9 9 9 9 9 9 9 9 9 9 9 9 
POINT_DATA 102
SCALARS CONDID_1 FLOAT
LOOKUP_TABLE default
 1 
 0 
 0 
 0 
 0 
 0 
 0 
 0 
 0 
 0 
 0 
 0 
 0 
 0 
 0 
 0 
 0 
 0 
 0 
 0 
 0 
 0 
 0 
 0 
 0 
 0 
 0 
 0 
 0 
 0 
 0 
 0 
 0 
 0 
 0 
 0 
 0 
 0 
 0 
 0 
 0 
 0 
 0 
 0 
 0 
 0 
 0 
 0 
 0 
 0 
 0 
 0 
 0 
 0 
 0 
 0 
 0 
 0 
 0 
 0 
 0 
 0 
 0 
 0 
 0 
 0 
 0 
 0 
 0 
 0 
 0 
 0 
 0 
 0 
 0 
 0 
 0 
 0 
 0 
 0 
 0 
 0 
 0 
 0 
 0 
 0 
 0 
 0 
 0 
 0 
 0 
 0 
 0 
 0 
 0 
 0 
 0 
 0 
 0 
 0 
 0 
 0 
SCALARS CONDID_2 FLOAT
LOOKUP_TABLE default
 1 
 0 
 0 
 0 
 0 
 0 
 0 
 0 
 0 
 0 
 0 
 0 
 0 
 0 
 0 
 0 
 0 
 1 
 0 
 1 
 0 
 1 
 0 
 1 
 0 
 1 
 0 
 0 
 0 
 0 
 0 
 0 
 0 
 0 
 0 
 0 
 0 
 0 
 0 
 0 
 0 
 0 
 0 
 0 
 0 
 0 
 0 
 0 
 0 
 0 
 0 
 0 
 0 
 0 
 0 
 0 
 0 
 0 
 0 
 0 
 0 
 0 
 0 
 0 
 0 
 0 
 0 
 0 
 0 
 0 
 0 
 0 
 0 
 0 
 0 
 0 
 0 
 0 
 0 
 0 
 0 
 0 
 0 
 0 
 0 
 0 
 0 
 0 
 0 
 0 
 0 
 0 
 0 
 0 
 0 
 0 
 0 
 0 
 0 
 0 
 0 
 0 
SCALARS CONDID_3 FLOAT
LOOKUP_TABLE default
 1 
 1 
 1 
 1 
 1 
 1 
 1 
 1 
 1 
 1 
 1 
 1 
 1 
 1 
 1 
 1 
 1 
 1 
 1 
 1 
 1 
 1 
 1 
 1 
 1 
 1 
 1 
 1 
 1 
 1 
 1 
 1 
 1 
 1 
 1 
 1 
 1 
 1 
 1 
 1 
 1 
 1 
 1 
 1 
 1 
 1 
 1 
 1 
 1 
 1 
 1 
 1 
 1 
 1 
 1 
 1 
 1 
 1 
 1 
 1 
 1 
 1 
 1 
 1 
 1 
 1 
 1 
 1 
 1 
 1 
 1 
 1 
 1 
 1 
 1 
 1 
 1 
 1 
 1 
 1 
 1 
 1 
 1 
 1 
 1 
 1 
 1 
 1 
 1 
 1 
 1 
 1 
 1 
 1 
 1 
 1 
 1 
 1 
 1 
 1 
 1 
 1 
VECTORS displacement FLOAT
 0  0  0 
 -7.180370e-05  -4.372957e-05  0 
 -7.850864e-05  -1.207231e-04  0 
 -1.321615e-04  -2.311355e-04  0 
 -1.373155e-04  -3.672591e-04  0 
 -1.764184e-04  -5.288478e-04  0 
 -1.800419e-04  -7.084486e-04  0 
 -2.067383e-04  -9.059156e-04  0 
 -2.091138e-04  -1.115162e-03  0 
 -2.257823e-04  -1.336065e-03  0 
 -2.271712e-04  -1.563815e-03  0 
 -2.361701e-04  -1.798317e-03  0 
 -2.368357e-04  -2.036045e-03  0 
 -2.405250e-04  -2.276933e-03  0 
 -2.407303e-04  -2.518738e-03  0 
 -2.414691e-04  -2.761422e-03  0 
 -2.414792e-04  -3.004025e-03  0 
 0  2.193591e-06  0 
 -4.226328e-05  -4.259709e-05  0 
 0  2.191026e-06  0 
 -1.311686e-05  -4.223550e-05  0 
 0  -2.693925e-08  0 
 1.579133e-05  -4.249105e-05  0 
 0  -5.121706e-06  0 
 4.458525e-05  -4.323652e-05  0 
 0  -1.465326e-05  0 
 7.323959e-05  -4.431466e-05  0 
 -4.647659e-05  -1.196311e-04  0 
 -1.456854e-05  -1.189136e-04  0 
 1.712665e-05  -1.187443e-04  0 
 4.870350e-05  -1.191857e-04  0 
 8.048343e-05  -1.202928e-04  0 
 -7.871311e-05  -2.301891e-04  0 
 -2.548293e-05  -2.297648e-04  0 
 2.768495e-05  -2.297419e-04  0 
 8.094951e-05  -2.301341e-04  0 
 1.344551e-04  -2.310667e-04  0 
 -8.189306e-05  -3.664837e-04  0 
 -2.654687e-05  -3.660313e-04  0 
 2.875611e-05  -3.660439e-04  0 
 8.412519e-05  -3.665136e-04  0 
 1.395769e-04  -3.672929e-04  0 
 -1.052764e-04  -5.281727e-04  0 
 -3.432471e-05  -5.278913e-04  0 
 3.656184e-05  -5.278931e-04  0 
 1.075111e-04  -5.281774e-04  0 
 1.786484e-04  -5.288535e-04  0 
 -1.075238e-04  -7.079099e-04  0 
 -3.507910e-05  -7.075782e-04  0 
 3.731594e-05  -7.075773e-04  0 
 1.097587e-04  -7.079075e-04  0 
 1.822744e-04  -7.084459e-04  0 
 -1.234969e-04  -9.054608e-04  0 
 -4.040383e-05  -9.052781e-04  0 
 4.263835e-05  -9.052780e-04  0 
 1.257316e-04  -9.054604e-04  0 
 2.089734e-04  -9.059151e-04  0 
 -1.249751e-04  -1.114818e-03  0 
 -4.090016e-05  -1.114597e-03  0 
 4.313470e-05  -1.114597e-03  0 
 1.272098e-04  -1.114818e-03  0 
 2.113487e-04  -1.115162e-03  0 
 -1.349480e-04  -1.335787e-03  0 
 -4.422489e-05  -1.335683e-03  0 
 4.645963e-05  -1.335683e-03  0 
 1.371827e-04  -1.335788e-03  0 
 2.280170e-04  -1.336065e-03  0 
 -1.358189e-04  -1.563622e-03  0 
 -4.451768e-05  -1.563487e-03  0 
 4.675241e-05  -1.563487e-03  0 
 1.380536e-04  -1.563622e-03  0 
 2.294059e-04  -1.563814e-03  0 
 -1.412035e-04  -1.798173e-03  0 
 -4.631405e-05  -1.798124e-03  0 
 4.854877e-05  -1.798124e-03  0 
 1.434382e-04  -1.798173e-03  0 
 2.384048e-04  -1.798317e-03  0 
 -1.416290e-04  -2.035959e-03  0 
 -4.645757e-05  -2.035890e-03  0 
 4.869229e-05  -2.035890e-03  0 
 1.438637e-04  -2.035959e-03  0 
 2.390704e-04  -2.036045e-03  0 
 -1.438372e-04  -2.276879e-03  0 
 -4.719575e-05  -2.276864e-03  0 
 4.943047e-05  -2.276864e-03  0 
 1.460719e-04  -2.276879e-03  0 
 2.427597e-04  -2.276933e-03  0 
 -1.439792e-04  -2.518716e-03  0 
 -4.724431e-05  -2.518690e-03  0 
 4.947902e-05  -2.518690e-03  0 
 1.462139e-04  -2.518716e-03  0 
 2.429650e-04  -2.518738e-03  0 
 -1.444231e-04  -2.761413e-03  0 
 -4.739465e-05  -2.761412e-03  0 
 4.962936e-05  -2.761412e-03  0 
 1.466578e-04  -2.761413e-03  0 
 2.437038e-04  -2.761422e-03  0 
 -1.444413e-04  -3.004024e-03  0 
 -4.740136e-05  -3.004019e-03  0 
 4.963608e-05  -3.004019e-03  0 
 1.466760e-04  -3.004024e-03  0 
 2.437139e-04  -3.004025e-03  0 
CELL_DATA 80
SCALARS MATID_1 FLOAT
LOOKUP_TABLE default
 0 
 0 
 0 
 0 
 0 
 1 
 1 
 1 
 1 
 1 
 0 
 0 
 0 
 0 
 0 
 1 
 1 
 1 
 1 
 1 
 0 
 0 
 0 
 0 
 0 
 1 
 1 
 1 
 1 
 1 
 0 
 0 
 0 
 0 
 0 
 1 
 1 
 1 
 1 
 1 
 0 
 0 
 0 
 0 
 0 
 1 
 1 
 1 
 1 
 1 
 0 
 0 
 0 
 0 
 0 
 1 
 1 
 1 
 1 
 1 
 0 
 0 
 0 
 0 
 0 
 1 
 1 
 1 
 1 
 1 
 0 
 0 
 0 
 0 
 0 
 1 
 1 
 1 
 1 
 1 
SCALARS MATID_2 FLOAT
LOOKUP_TABLE default
 1 
 1 
 1 
 1 
 1 
 0 
 0 
 0 
 0 
 0 
 1 
 1 
 1 
 1 
 1 
 0 
 0 
 0 
 0 
 0 
 1 
 1 
 1 
 1 
 1 
 0 
 0 
 0 
 0 
 0 
 1 
 1 
 1 
 1 
 1 
 0 
 0 
 0 
 0 
 0 
 1 
 1 
 1 
 1 
 1 
 0 
 0 
 0 
 0 
 0 
 1 
 1 
 1 
 1 
 1 
 0 
 0 
 0 
 0 
 0 
 1 
 1 
 1 
 1 
 1 
 0 
 0 
 0 
 0 
 0 
 1 
 1 
 1 
 1 
 1 
 0 
 0 
 0 
 0 
 0 
SCALARS SUB_ID FLOAT
LOOKUP_TABLE default
 1 
 1 
 1 
 1 
 1 
 2 
 2 
 2 
 2 
 2 
 3 
 3 
 3 
 3 
 3 
 4 
 4 
 4 
 4 
 4 
 5 
 5 
 5 
 5 
 5 
 6 
 6 
 6 
 6 
 6 
 7 
 7 
 7 
 7 
 7 
 8 
 8 
 8 
 8 
 8 
 9 
 9 
 9 
 9 
 9 
 10 
 10 
 10 
 10 
 10 
 11 
 11 
 11 
 11 
 11 
 12 
 12 
 12 
 12 
 12 
 13 
 13 
 13 
 13 
 13 
 14 
 14 
 14 
 14 
 14 
 15 
 15 
 15 
 15 
 15 
 16 
 16 
 16 
 16 
 16 
VECTORS SubCenter_Diff FLOAT
 -3.750000e+00  0  0 
 -3.750000e+00  0  0 
 -3.750000e+00  0  0 
 -3.750000e+00  0  0 
 -3.750000e+00  0  0 
 -3.250000e+00  0  0 
 -3.250000e+00  0  0 
 -3.250000e+00  0  0 
 -3.250000e+00  0  0 
 -3.250000e+00  0  0 
 -2.750000e+00  0  0 
 -2.750000e+00  0  0 
 -2.750000e+00  0  0 
 -2.750000e+00  0  0 
 -2.750000e+00  0  0 
 -2.250000e+00  0  0 
 -2.250000e+00  0  0 
 -2.250000e+00  0  0 
 -2.250000e+00  0  0 
 -2.250000e+00  0  0 
 -1.750000e+00  0  0 
 -1.750000e+00  0  0 
 -1.750000e+00  0  0 
 -1.750000e+00  0  0 
 -1.750000e+00  0  0 
 -1.250000e+00  0  0 
 -1.250000e+00  0  0 
 -1.250000e+00  0  0 
 -1.250000e+00  0  0 
 -1.250000e+00  0  0 
 -7.500000e-01  0  0 
 -7.500000e-01  0  0 
 -7.500000e-01  0  0 
 -7.500000e-01  0  0 
 -7.500000e-01  0  0 
 -2.500000e-01  0  0 
 -2.500000e-01  0  0 
 -2.500000e-01  0  0 
 -2.500000e-01  0  0 
 -2.500000e-01  0  0 
 2.500000e-01  0  0 
 2.500000e-01  0  0 
 2.500000e-01  0  0 
 2.500000e-01  0  0 
 2.500000e-01  0  0 
 7.500000e-01  0  0 
 7.500000e-01  0  0 
 7.500000e-01  0  0 
 7.500000e-01  0  0 
 7.500000e-01  0  0 
 1.250000e+00  0  0 
 1.250000e+00  0  0 
 1.250000e+00  0  0 
 1.250000e+00  0  0 
 1.250000e+00  0  0 
 1.750000e+00  0  0 
 1.750000e+00  0  0 
 1.750000e+00  0  0 
 1.750000e+00  0  0 
 1.750000e+00  0  0 
 2.250000e+00  0  0 
 2.250000e+00  0  0 
 2.250000e+00  0  0 
 2.250000e+00  0  0 
 2.250000e+00  0  0 
 2.750000e+00  0  0 
 2.750000e+00  0  0 
 2.750000e+00  0  0 
 2.750000e+00  0  0 
 2.750000e+00  0  0 
 3.250000e+00  0  0 
 3.250000e+00  0  0 
 3.250000e+00  0  0 
 3.250000e+00  0  0 
 3.250000e+00  0  0 
 3.750000e+00  0  0 
 3.750000e+00  0  0 
 3.750000e+00  0  0 
 3.750000e+00  0  0 
 3.750000e+00  0  0 
