# vtk DataFile Version 3.1
this is an vtk file created by FEMAC
ASCII
DATASET UNSTRUCTURED_GRID
POINTS 105 FLOAT
5.500000 0.000000 0.000000
6.000000 0.000000 0.000000
5.500000 0.200000 0.000000
5.500000 0.400000 0.000000
5.500000 0.600000 0.000000
5.500000 0.800000 0.000000
5.500000 1.000000 0.000000
6.000000 0.200000 0.000000
6.000000 0.400000 0.000000
6.000000 0.600000 0.000000
6.000000 0.800000 0.000000
6.000000 1.000000 0.000000
5.625000 0.000000 0.000000
5.750000 0.000000 0.000000
5.875000 0.000000 0.000000
5.500000 0.050000 0.000000
5.500000 0.100000 0.000000
5.500000 0.150000 0.000000
5.500000 0.250000 0.000000
5.500000 0.300000 0.000000
5.500000 0.350000 0.000000
5.500000 0.450000 0.000000
5.500000 0.500000 0.000000
5.500000 0.550000 0.000000
5.500000 0.650000 0.000000
5.500000 0.700000 0.000000
5.500000 0.750000 0.000000
5.500000 0.850000 0.000000
5.500000 0.900000 0.000000
5.500000 0.950000 0.000000
5.625000 0.200000 0.000000
5.750000 0.200000 0.000000
5.875000 0.200000 0.000000
6.000000 0.050000 0.000000
6.000000 0.100000 0.000000
6.000000 0.150000 0.000000
5.625000 0.400000 0.000000
5.750000 0.400000 0.000000
5.875000 0.400000 0.000000
6.000000 0.250000 0.000000
6.000000 0.300000 0.000000
6.000000 0.350000 0.000000
5.625000 0.600000 0.000000
5.750000 0.600000 0.000000
5.875000 0.600000 0.000000
6.000000 0.450000 0.000000
6.000000 0.500000 0.000000
6.000000 0.550000 0.000000
5.625000 0.800000 0.000000
5.750000 0.800000 0.000000
5.875000 0.800000 0.000000
6.000000 0.650000 0.000000
6.000000 0.700000 0.000000
6.000000 0.750000 0.000000
5.625000 1.000000 0.000000
5.750000 1.000000 0.000000
5.875000 1.000000 0.000000
6.000000 0.850000 0.000000
6.000000 0.900000 0.000000
6.000000 0.950000 0.000000
5.625000 0.050000 0.000000
5.625000 0.100000 0.000000
5.625000 0.150000 0.000000
5.750000 0.050000 0.000000
5.750000 0.100000 0.000000
5.750000 0.150000 0.000000
5.875000 0.050000 0.000000
5.875000 0.100000 0.000000
5.875000 0.150000 0.000000
5.625000 0.250000 0.000000
5.625000 0.300000 0.000000
5.625000 0.350000 0.000000
5.750000 0.250000 0.000000
5.750000 0.300000 0.000000
5.750000 0.350000 0.000000
5.875000 0.250000 0.000000
5.875000 0.300000 0.000000
5.875000 0.350000 0.000000
5.625000 0.450000 0.000000
5.625000 0.500000 0.000000
5.625000 0.550000 0.000000
5.750000 0.450000 0.000000
5.750000 0.500000 0.000000
5.750000 0.550000 0.000000
5.875000 0.450000 0.000000
5.875000 0.500000 0.000000
5.875000 0.550000 0.000000
5.625000 0.650000 0.000000
5.625000 0.700000 0.000000
5.625000 0.750000 0.000000
5.750000 0.650000 0.000000
5.750000 0.700000 0.000000
5.750000 0.750000 0.000000
5.875000 0.650000 0.000000
5.875000 0.700000 0.000000
5.875000 0.750000 0.000000
5.625000 0.850000 0.000000
5.625000 0.900000 0.000000
5.625000 0.950000 0.000000
5.750000 0.850000 0.000000
5.750000 0.900000 0.000000
5.750000 0.950000 0.000000
5.875000 0.850000 0.000000
5.875000 0.900000 0.000000
5.875000 0.950000 0.000000
CELLS 80 400 
4 0 12 60 15
4 15 60 61 16
4 16 61 62 17
4 17 62 30  2
4 12 13 63 60
4 60 63 64 61
4 61 64 65 62
4 62 65 31 30
4 13 14 66 63
4 63 66 67 64
4 64 67 68 65
4 65 68 32 31
4 14  1 33 66
4 66 33 34 67
4 67 34 35 68
4 68 35  7 32
4 2 30 69 18
4 18 69 70 19
4 19 70 71 20
4 20 71 36  3
4 30 31 72 69
4 69 72 73 70
4 70 73 74 71
4 71 74 37 36
4 31 32 75 72
4 72 75 76 73
4 73 76 77 74
4 74 77 38 37
4 32  7 39 75
4 75 39 40 76
4 76 40 41 77
4 77 41  8 38
4 3 36 78 21
4 21 78 79 22
4 22 79 80 23
4 23 80 42  4
4 36 37 81 78
4 78 81 82 79
4 79 82 83 80
4 80 83 43 42
4 37 38 84 81
4 81 84 85 82
4 82 85 86 83
4 83 86 44 43
4 38  8 45 84
4 84 45 46 85
4 85 46 47 86
4 86 47  9 44
4 4 42 87 24
4 24 87 88 25
4 25 88 89 26
4 26 89 48  5
4 42 43 90 87
4 87 90 91 88
4 88 91 92 89
4 89 92 49 48
4 43 44 93 90
4 90 93 94 91
4 91 94 95 92
4 92 95 50 49
4 44  9 51 93
4 93 51 52 94
4 94 52 53 95
4 95 53 10 50
4 5 48 96 27
4 27 96 97 28
4 28 97 98 29
4 29 98 54  6
4 48 49 99 96
4 96  99 100  97
4 97 100 101  98
4 98 101  55  54
4 49  50 102  99
4 99 102 103 100
4 100 103 104 101
4 101 104  56  55
4 50  10  57 102
4 102  57  58 103
4 103  58  59 104
4 104  59  11  56
CELL_TYPES 80
9 9 9 9 9 9 9 9 9 9 9 9 9 9 9 9 9 9 9 9 9 9 9 9 9 9 9 9 9 9 9 9 9 9 9 9 9 9 9 9 9 9 9 9 9 9 9 9 9 9 9 9 9 9 9 9 9 9 9 9 9 9 9 9 9 9 9 9 9 9 9 9 9 9 9 9 9 9 9 9 
POINT_DATA 105
VECTORS displacement_ITER1 FLOAT
 2.723047e-07  1.259090e-06  0 
 -3.801022e-06  1.686123e-06  0 
 -1.744704e-07  1.632491e-06  0 
 -1.253292e-07  1.626935e-06  0 
 -1.224104e-07  -1.628792e-06  0 
 -1.717229e-07  -1.634560e-06  0 
 2.696205e-07  -1.260955e-06  0 
 -2.793348e-07  1.973262e-06  0 
 5.130815e-08  1.465537e-06  0 
 5.474459e-08  -1.467222e-06  0 
 -2.764633e-07  -1.980755e-06  0 
 -3.835893e-06  -1.659189e-06  0 
 3.856103e-07  1.490338e-06  0 
 -1.461515e-07  2.197143e-06  0 
 -1.420945e-06  2.182865e-06  0 
 4.013073e-07  9.022553e-07  0 
 -1.401908e-07  4.818875e-07  0 
 -7.716909e-07  9.241846e-07  0 
 -1.581403e-07  1.621600e-06  0 
 -1.524401e-07  1.612405e-06  0 
 -1.433750e-07  1.615382e-06  0 
 4.959489e-07  9.197626e-07  0 
 6.224934e-07  2.542863e-09  0 
 4.985394e-07  -9.160065e-07  0 
 -1.407288e-07  -1.617465e-06  0 
 -1.497709e-07  -1.614735e-06  0 
 -1.552651e-07  -1.623811e-06  0 
 -7.690130e-07  -9.329026e-07  0 
 -1.441696e-07  -4.910079e-07  0 
 3.939477e-07  -9.073556e-07  0 
 -1.230044e-07  1.624310e-06  0 
 -8.311816e-08  1.715892e-06  0 
 -8.609163e-08  1.827612e-06  0 
 -3.335301e-06  1.335530e-06  0 
 -1.879639e-06  9.686094e-07  0 
 -2.964806e-07  1.477183e-06  0 
 -1.712961e-07  1.583040e-06  0 
 -2.127816e-07  1.689658e-06  0 
 -9.246041e-08  1.795682e-06  0 
 -2.131446e-07  1.913842e-06  0 
 -1.392355e-07  1.829445e-06  0 
 -4.425752e-08  1.667295e-06  0 
 -1.686762e-07  -1.585013e-06  0 
 -2.103308e-07  -1.691642e-06  0 
 -9.033679e-08  -1.798685e-06  0 
 2.406817e-06  -2.490774e-07  0 
 3.365418e-06  -8.713468e-09  0 
 2.411934e-06  2.391584e-07  0 
 -1.203808e-07  -1.626561e-06  0 
 -8.069345e-08  -1.717809e-06  0 
 -8.231404e-08  -1.829364e-06  0 
 -4.343486e-08  -1.670223e-06  0 
 -1.374694e-07  -1.830005e-06  0 
 -2.087052e-07  -1.916768e-06  0 
 3.837118e-07  -1.496263e-06  0 
 -1.462891e-07  -2.203673e-06  0 
 -1.432074e-06  -2.188612e-06  0 
 -2.621859e-07  -1.473902e-06  0 
 -1.873730e-06  -9.477859e-07  0 
 -3.355011e-06  -1.316054e-06  0 
 1.116507e-07  1.598790e-06  0 
 -5.703585e-08  1.742724e-06  0 
 -1.062176e-07  1.664187e-06  0 
 -2.653037e-07  2.141498e-06  0 
 -2.882635e-07  2.024271e-06  0 
 -2.195212e-07  1.930190e-06  0 
 -1.171295e-06  2.278488e-06  0 
 -8.470363e-07  2.343956e-06  0 
 -5.258127e-07  2.080345e-06  0 
 -1.350699e-07  1.628888e-06  0 
 -1.472695e-07  1.624373e-06  0 
 -1.623896e-07  1.608373e-06  0 
 -1.136917e-07  1.709354e-06  0 
 -1.389965e-07  1.709700e-06  0 
 -1.627752e-07  1.706629e-06  0 
 -1.357777e-07  1.824478e-06  0 
 -1.526978e-07  1.801815e-06  0 
 -1.440728e-07  1.786022e-06  0 
 -1.446681e-07  7.347721e-07  0 
 -8.150256e-08  -8.282539e-10  0 
 -1.430153e-07  -7.366227e-07  0 
 -2.019485e-07  8.267375e-07  0 
 -2.606830e-07  -1.187800e-09  0 
 -2.009120e-07  -8.288563e-07  0 
 1.689380e-07  1.237551e-06  0 
 3.702386e-07  -1.022203e-09  0 
 1.706066e-07  -1.240659e-06  0 
 -1.596758e-07  -1.610344e-06  0 
 -1.445666e-07  -1.626403e-06  0 
 -1.324922e-07  -1.631049e-06  0 
 -1.602678e-07  -1.708766e-06  0 
 -1.363674e-07  -1.711773e-06  0 
 -1.108591e-07  -1.711259e-06  0 
 -1.413035e-07  -1.788381e-06  0 
 -1.500463e-07  -1.804345e-06  0 
 -1.335409e-07  -1.826889e-06  0 
 -1.055792e-07  -1.666514e-06  0 
 -5.757873e-08  -1.746015e-06  0 
 1.103557e-07  -1.603568e-06  0 
 -2.183099e-07  -1.933818e-06  0 
 -2.887769e-07  -2.028627e-06  0 
 -2.661121e-07  -2.147788e-06  0 
 -5.259978e-07  -2.082508e-06  0 
 -8.465435e-07  -2.350987e-06  0 
 -1.175672e-06  -2.283540e-06  0 
VECTORS displacement_ITER2 FLOAT
 7.769120e-07  1.068038e-06  0 
 -1.085699e-05  -1.491247e-06  0 
 3.376085e-07  1.377197e-06  0 
 2.286106e-07  1.257175e-06  0 
 2.272074e-07  -1.250095e-06  0 
 3.340018e-07  -1.370166e-06  0 
 7.787944e-07  -1.066375e-06  0 
 -7.915598e-07  1.732392e-07  0 
 1.765898e-06  -3.638871e-07  0 
 1.769245e-06  3.825569e-07  0 
 -7.964609e-07  -1.525789e-07  0 
 -1.081538e-05  1.494447e-06  0 
 1.489819e-07  1.959022e-06  0 
 -1.293071e-06  2.168131e-06  0 
 -4.582917e-06  1.973672e-06  0 
 3.096632e-07  1.467847e-06  0 
 8.098490e-07  1.806372e-06  0 
 1.196766e-06  1.169855e-06  0 
 3.122391e-07  1.390382e-06  0 
 2.825124e-07  1.378312e-06  0 
 2.536622e-07  1.329160e-06  0 
 -1.143426e-06  -3.569987e-07  0 
 -1.793187e-06  -4.092547e-09  0 
 -1.149493e-06  3.541336e-07  0 
 2.521517e-07  -1.321927e-06  0 
 2.802988e-07  -1.370820e-06  0 
 3.091079e-07  -1.383132e-06  0 
 1.191709e-06  -1.155117e-06  0 
 8.141821e-07  -1.789781e-06  0 
 3.182699e-07  -1.459773e-06  0 
 3.241391e-07  1.530741e-06  0 
 8.208489e-08  1.506650e-06  0 
 -2.982273e-07  1.062361e-06  0 
 -8.245106e-06  -8.835501e-07  0 
 -6.674393e-06  -2.528164e-07  0 
 -4.650510e-06  -7.564824e-07  0 
 2.268117e-07  1.475728e-06  0 
 4.919414e-07  1.470218e-06  0 
 1.013505e-06  1.112291e-06  0 
 -1.526014e-07  3.852684e-08  0 
 3.396378e-07  -6.143899e-08  0 
 9.059569e-07  -1.448836e-07  0 
 2.260405e-07  -1.467215e-06  0 
 4.919990e-07  -1.459786e-06  0 
 1.015280e-06  -1.098694e-06  0 
 4.936094e-06  8.584509e-07  0 
 4.980157e-06  1.182782e-08  0 
 4.930267e-06  -8.402230e-07  0 
 3.207335e-07  -1.521883e-06  0 
 7.859417e-08  -1.496245e-06  0 
 -3.033475e-07  -1.048640e-06  0 
 9.090102e-07  1.630410e-07  0 
 3.390514e-07  7.681729e-08  0 
 -1.582652e-07  -2.034216e-08  0 
 1.454773e-07  -1.947391e-06  0 
 -1.306390e-06  -2.150163e-06  0 
 -4.590344e-06  -1.938416e-06  0 
 -4.688687e-06  8.110317e-07  0 
 -6.699285e-06  2.740480e-07  0 
 -8.236599e-06  8.933929e-07  0 
 8.265479e-08  1.822892e-06  0 
 4.426273e-08  1.671991e-06  0 
 6.556172e-08  1.784838e-06  0 
 -1.230540e-06  2.208313e-06  0 
 -9.428801e-07  2.167405e-06  0 
 -5.049386e-07  1.827147e-06  0 
 -3.935947e-06  1.780375e-06  0 
 -2.815412e-06  1.563829e-06  0 
 -1.449755e-06  1.647909e-06  0 
 2.955357e-07  1.516698e-06  0 
 2.912926e-07  1.499621e-06  0 
 2.772220e-07  1.482023e-06  0 
 1.953969e-07  1.499944e-06  0 
 3.083371e-07  1.500994e-06  0 
 4.150484e-07  1.496124e-06  0 
 -1.670907e-08  1.057533e-06  0 
 3.286337e-07  1.042178e-06  0 
 6.842938e-07  1.054912e-06  0 
 8.917000e-08  1.016113e-06  0 
 -3.625493e-08  4.533024e-09  0 
 8.851251e-08  -1.007631e-06  0 
 6.352887e-07  7.363927e-07  0 
 6.908048e-07  5.791691e-09  0 
 6.353645e-07  -7.253558e-07  0 
 1.330667e-06  5.453570e-07  0 
 1.601759e-06  6.426576e-09  0 
 1.332391e-06  -5.309016e-07  0 
 2.757285e-07  -1.473448e-06  0 
 2.891891e-07  -1.490991e-06  0 
 2.928677e-07  -1.507950e-06  0 
 4.143127e-07  -1.485594e-06  0 
 3.065877e-07  -1.490446e-06  0 
 1.925326e-07  -1.489457e-06  0 
 6.839801e-07  -1.041580e-06  0 
 3.271433e-07  -1.028554e-06  0 
 -1.907085e-08  -1.043934e-06  0 
 6.340447e-08  -1.776685e-06  0 
 4.198686e-08  -1.663794e-06  0 
 8.003870e-08  -1.812808e-06  0 
 -5.083207e-07  -1.813185e-06  0 
 -9.466777e-07  -2.152403e-06  0 
 -1.238341e-06  -2.190967e-06  0 
 -1.454124e-06  -1.633959e-06  0 
 -2.824324e-06  -1.535058e-06  0 
 -3.943937e-06  -1.746878e-06  0 
VECTORS displacement_ITER3 FLOAT
 6.116248e-07  1.271001e-06  0 
 -9.189142e-06  -1.245829e-06  0 
 2.597078e-07  1.006158e-06  0 
 8.195508e-08  8.033843e-07  0 
 8.142322e-08  -8.075723e-07  0 
 2.623352e-07  -1.010046e-06  0 
 6.115148e-07  -1.273464e-06  0 
 -1.053816e-06  -4.387206e-07  0 
 1.844464e-06  -6.457474e-07  0 
 1.841376e-06  6.319686e-07  0 
 -1.053725e-06  4.231417e-07  0 
 -9.180307e-06  1.263104e-06  0 
 1.032805e-07  1.399514e-06  0 
 -1.410878e-06  1.762270e-06  0 
 -4.390777e-06  1.012637e-06  0 
 8.088162e-07  9.884502e-07  0 
 3.803587e-07  8.453428e-07  0 
 2.947176e-07  1.274532e-06  0 
 2.280742e-07  1.007257e-06  0 
 1.960460e-07  9.806061e-07  0 
 1.497904e-07  9.195236e-07  0 
 -2.370344e-07  1.094769e-06  0 
 3.599157e-07  4.001919e-09  0 
 -2.304472e-07  -1.093204e-06  0 
 1.497879e-07  -9.236987e-07  0 
 1.969250e-07  -9.847922e-07  0 
 2.298648e-07  -1.011245e-06  0 
 3.017971e-07  -1.283749e-06  0 
 3.807346e-07  -8.584600e-07  0 
 8.044626e-07  -9.955459e-07  0 
 2.400693e-07  1.155472e-06  0 
 -4.590235e-09  1.149178e-06  0 
 -4.559661e-07  6.748920e-07  0 
 -7.750064e-06  -1.468796e-06  0 
 -5.831769e-06  -1.365206e-06  0 
 -4.072768e-06  -5.586643e-07  0 
 1.258992e-07  1.126345e-06  0 
 4.197105e-07  1.108446e-06  0 
 9.375255e-07  6.993957e-07  0 
 -3.525052e-07  -5.223774e-07  0 
 2.876588e-07  -5.543570e-07  0 
 9.346358e-07  -6.261287e-07  0 
 1.249567e-07  -1.132389e-06  0 
 4.182079e-07  -1.117028e-06  0 
 9.355638e-07  -7.100134e-07  0 
 1.911311e-06  9.239129e-07  0 
 2.219546e-06  -4.129747e-09  0 
 1.906950e-06  -9.315229e-07  0 
 2.425765e-07  -1.161651e-06  0 
 -2.073684e-09  -1.157318e-06  0 
 -4.531797e-07  -6.867701e-07  0 
 9.321998e-07  6.139422e-07  0 
 2.876820e-07  5.417639e-07  0 
 -3.514201e-07  5.070812e-07  0 
 1.068224e-07  -1.405823e-06  0 
 -1.395081e-06  -1.770916e-06  0 
 -4.367118e-06  -1.037820e-06  0 
 -4.057920e-06  4.940955e-07  0 
 -5.775906e-06  1.329877e-06  0 
 -7.704259e-06  1.473494e-06  0 
 -6.844976e-08  1.484939e-06  0 
 -5.535109e-08  1.502644e-06  0 
 2.932173e-08  1.301623e-06  0 
 -1.273183e-06  1.707664e-06  0 
 -9.634771e-07  1.603976e-06  0 
 -5.463294e-07  1.440124e-06  0 
 -3.642260e-06  1.084756e-06  0 
 -2.651786e-06  1.098603e-06  0 
 -1.447847e-06  9.396790e-07  0 
 2.117747e-07  1.145094e-06  0 
 2.016842e-07  1.131569e-06  0 
 1.840697e-07  1.119657e-06  0 
 1.015926e-07  1.142688e-06  0 
 2.188846e-07  1.141471e-06  0 
 3.260253e-07  1.129734e-06  0 
 -1.223075e-07  6.736869e-07  0 
 2.463639e-07  6.619159e-07  0 
 6.272874e-07  6.849238e-07  0 
 2.490259e-07  4.327898e-07  0 
 1.894676e-07  -3.721104e-09  0 
 2.483345e-07  -4.388166e-07  0 
 5.252221e-07  5.903984e-07  0 
 6.300994e-07  -4.276842e-09  0 
 5.244333e-07  -5.991208e-07  0 
 1.204709e-06  1.206908e-07  0 
 1.102895e-06  -5.461010e-09  0 
 1.203757e-06  -1.318381e-07  0 
 1.840052e-07  -1.125757e-06  0 
 2.024395e-07  -1.137669e-06  0 
 2.133968e-07  -1.151220e-06  0 
 3.253883e-07  -1.138259e-06  0 
 2.193163e-07  -1.149952e-06  0 
 1.030857e-07  -1.151037e-06  0 
 6.263434e-07  -6.959187e-07  0 
 2.459362e-07  -6.731791e-07  0 
 -1.215823e-07  -6.851278e-07  0 
 3.226023e-08  -1.306840e-06  0 
 -5.144629e-08  -1.506713e-06  0 
 -6.424407e-08  -1.490260e-06  0 
 -5.414874e-07  -1.448616e-06  0 
 -9.565475e-07  -1.612271e-06  0 
 -1.262621e-06  -1.715949e-06  0 
 -1.435235e-06  -9.434758e-07  0 
 -2.632911e-06  -1.110447e-06  0 
 -3.619302e-06  -1.106901e-06  0 
VECTORS displacement_ITER4 FLOAT
 6.516916e-07  7.950881e-07  0 
 -7.514408e-06  -6.756881e-07  0 
 4.068123e-07  6.655247e-07  0 
 -1.183282e-07  3.893101e-07  0 
 -1.135929e-07  -3.879391e-07  0 
 4.062087e-07  -6.645861e-07  0 
 6.512409e-07  -7.916248e-07  0 
 -1.120069e-06  -2.387252e-07  0 
 1.763575e-06  -2.887678e-07  0 
 1.772932e-06  3.054622e-07  0 
 -1.119043e-06  2.575074e-07  0 
 -7.519628e-06  6.497124e-07  0 
 1.712240e-07  1.375789e-06  0 
 -9.933939e-07  1.549632e-06  0 
 -3.439655e-06  1.182234e-06  0 
 4.182146e-07  9.842282e-07  0 
 5.143931e-07  1.095699e-06  0 
 4.509332e-07  9.768169e-07  0 
 3.001504e-07  6.584788e-07  0 
 1.905926e-07  6.183833e-07  0 
 6.336535e-08  5.362611e-07  0 
 -5.512035e-07  3.186169e-08  0 
 -1.055519e-06  3.923937e-10  0 
 -5.519065e-07  -2.787696e-08  0 
 6.696457e-08  -5.349839e-07  0 
 1.928229e-07  -6.172282e-07  0 
 3.009937e-07  -6.574775e-07  0 
 4.445148e-07  -9.742509e-07  0 
 5.102517e-07  -1.088630e-06  0 
 4.184234e-07  -9.786769e-07  0 
 3.792908e-07  1.000153e-06  0 
 1.127297e-07  1.185636e-06  0 
 -3.965933e-07  8.790536e-07  0 
 -6.279047e-06  -5.611155e-07  0 
 -5.172326e-06  -4.314760e-07  0 
 -3.514182e-06  -1.216432e-07  0 
 -5.982104e-08  9.849562e-07  0 
 2.646635e-07  1.154217e-06  0 
 8.055969e-07  8.735157e-07  0 
 -3.776133e-07  -2.770124e-07  0 
 2.463228e-07  -2.884566e-07  0 
 8.993633e-07  -3.208513e-07  0 
 -5.474440e-08  -9.803898e-07  0 
 2.703790e-07  -1.145817e-06  0 
 8.121973e-07  -8.618628e-07  0 
 1.996270e-06  -4.952115e-07  0 
 2.839500e-06  -8.329847e-09  0 
 2.012188e-06  4.892206e-07  0 
 3.787839e-07  -9.956564e-07  0 
 1.120085e-07  -1.177646e-06  0 
 -3.975678e-07  -8.655456e-07  0 
 9.055945e-07  3.367781e-07  0 
 2.490115e-07  3.059209e-07  0 
 -3.755460e-07  2.961834e-07  0 
 1.652929e-07  -1.373093e-06  0 
 -1.013334e-06  -1.541927e-06  0 
 -3.469797e-06  -1.147133e-06  0 
 -3.517944e-06  1.885729e-07  0 
 -5.231480e-06  4.904391e-07  0 
 -6.340180e-06  5.628915e-07  0 
 8.889043e-08  1.314782e-06  0 
 8.857714e-08  1.246718e-06  0 
 2.213083e-07  1.160519e-06  0 
 -9.003564e-07  1.553500e-06  0 
 -6.663918e-07  1.493269e-06  0 
 -3.274863e-07  1.362475e-06  0 
 -2.938379e-06  1.153067e-06  0 
 -2.150162e-06  1.153527e-06  0 
 -1.270322e-06  1.086891e-06  0 
 2.748797e-07  9.903870e-07  0 
 1.869019e-07  9.785190e-07  0 
 8.608735e-08  9.710972e-07  0 
 1.455151e-07  1.183609e-06  0 
 1.920926e-07  1.183188e-06  0 
 2.325849e-07  1.171839e-06  0 
 -1.096301e-07  8.690312e-07  0 
 2.214032e-07  8.571040e-07  0 
 5.515543e-07  8.749952e-07  0 
 -1.696894e-07  5.655832e-07  0 
 -1.570573e-07  3.039340e-09  0 
 -1.667048e-07  -5.607951e-07  0 
 3.364756e-07  5.677812e-07  0 
 3.816218e-07  4.194955e-09  0 
 3.392101e-07  -5.590408e-07  0 
 1.204955e-06  5.079719e-07  0 
 1.207171e-06  6.421732e-09  0 
 1.208879e-06  -4.963222e-07  0 
 8.979363e-08  -9.665350e-07  0 
 1.892404e-07  -9.739978e-07  0 
 2.757747e-07  -9.858994e-07  0 
 2.369150e-07  -1.163533e-06  0 
 1.948096e-07  -1.174955e-06  0 
 1.465997e-07  -1.175475e-06  0 
 5.567443e-07  -8.628109e-07  0 
 2.251854e-07  -8.444876e-07  0 
 -1.081640e-07  -8.559999e-07  0 
 2.188046e-07  -1.156484e-06  0 
 8.373073e-08  -1.244456e-06  0 
 8.253195e-08  -1.312460e-06  0 
 -3.317757e-07  -1.354431e-06  0 
 -6.738456e-07  -1.484331e-06  0 
 -9.125759e-07  -1.545433e-06  0 
 -1.283243e-06  -1.079715e-06  0 
 -2.170244e-06  -1.142360e-06  0 
 -2.964429e-06  -1.125664e-06  0 
VECTORS displacement_ITER5 FLOAT
 5.643344e-07  1.369413e-06  0 
 -9.864539e-06  -6.653354e-07  0 
 1.310706e-07  1.383931e-06  0 
 -1.939026e-07  1.068804e-06  0 
 -2.105476e-07  -1.069024e-06  0 
 1.276265e-07  -1.382782e-06  0 
 5.607189e-07  -1.385732e-06  0 
 -1.533522e-06  -8.033001e-09  0 
 1.815980e-06  1.572985e-08  0 
 1.790166e-06  -5.093004e-08  0 
 -1.540801e-06  -3.364974e-08  0 
 -9.871756e-06  7.504914e-07  0 
 1.609844e-07  1.747512e-06  0 
 -1.387231e-06  2.299659e-06  0 
 -4.558274e-06  1.769833e-06  0 
 6.155757e-07  1.119446e-06  0 
 2.473202e-07  8.884362e-07  0 
 -1.529359e-07  9.771649e-07  0 
 9.161715e-08  1.370387e-06  0 
 3.563265e-08  1.320903e-06  0 
 -4.495755e-08  1.220173e-06  0 
 1.475154e-07  7.846001e-07  0 
 3.782753e-07  -9.376778e-09  0 
 1.372179e-07  -8.011493e-07  0 
 -5.859555e-08  -1.220063e-06  0 
 2.534205e-08  -1.320473e-06  0 
 8.471239e-08  -1.369569e-06  0 
 -1.409129e-07  -9.725550e-07  0 
 2.638049e-07  -8.952757e-07  0 
 6.237398e-07  -1.134164e-06  0 
 1.405368e-07  1.581189e-06  0 
 -1.018457e-07  1.700665e-06  0 
 -6.340900e-07  1.329197e-06  0 
 -8.219678e-06  -7.419273e-07  0 
 -6.132567e-06  -6.604372e-07  0 
 -3.662143e-06  -3.999274e-07  0 
 -1.289710e-07  1.561312e-06  0 
 1.860476e-07  1.648173e-06  0 
 7.661787e-07  1.285695e-06  0 
 -5.805157e-07  -3.437198e-08  0 
 1.360442e-07  -4.743114e-08  0 
 8.704245e-07  -4.129044e-08  0 
 -1.458622e-07  -1.569394e-06  0 
 1.681141e-07  -1.665048e-06  0 
 7.462246e-07  -1.309940e-06  0 
 2.625028e-06  1.095712e-07  0 
 2.041791e-06  4.088642e-08  0 
 2.576832e-06  -6.708072e-08  0 
 1.370552e-07  -1.588865e-06  0 
 -1.048830e-07  -1.716665e-06  0 
 -6.363103e-07  -1.357834e-06  0 
 8.521145e-07  6.782847e-09  0 
 1.249026e-07  9.219037e-09  0 
 -5.899869e-07  -7.427282e-09  0 
 1.745337e-07  -1.747499e-06  0 
 -1.344747e-06  -2.315473e-06  0 
 -4.498175e-06  -1.850899e-06  0 
 -3.648400e-06  2.604642e-07  0 
 -6.008406e-06  5.333997e-07  0 
 -8.081763e-06  7.489152e-07  0 
 -6.071346e-08  1.815985e-06  0 
 -1.149420e-07  1.861074e-06  0 
 -3.363007e-08  1.768017e-06  0 
 -1.331522e-06  2.258070e-06  0 
 -1.068830e-06  2.153627e-06  0 
 -6.425411e-07  1.976656e-06  0 
 -3.843263e-06  1.796508e-06  0 
 -2.871073e-06  1.778398e-06  0 
 -1.792247e-06  1.634309e-06  0 
 7.798595e-08  1.575655e-06  0 
 3.322461e-08  1.564288e-06  0 
 -2.684003e-08  1.555845e-06  0 
 -3.823166e-08  1.696575e-06  0 
 4.166683e-08  1.693143e-06  0 
 1.196356e-07  1.674164e-06  0 
 -3.113059e-07  1.309710e-06  0 
 8.506621e-08  1.286725e-06  0 
 4.719262e-07  1.293781e-06  0 
 -1.037242e-07  6.857528e-07  0 
 -8.352232e-08  -5.062672e-09  0 
 -1.131924e-07  -6.946474e-07  0 
 3.067746e-07  8.497592e-07  0 
 3.057061e-07  -8.436274e-09  0 
 2.983020e-07  -8.673221e-07  0 
 1.043803e-06  5.829337e-07  0 
 1.304266e-06  -1.318110e-08  0 
 1.031164e-06  -6.055616e-07  0 
 -4.049518e-08  -1.563829e-06  0 
 2.286099e-08  -1.572083e-06  0 
 7.106685e-08  -1.583311e-06  0 
 1.048447e-07  -1.690827e-06  0 
 3.056618e-08  -1.709635e-06  0 
 -4.545211e-08  -1.712849e-06  0 
 4.551157e-07  -1.319320e-06  0 
 7.175035e-08  -1.313413e-06  0 
 -3.193466e-07  -1.337458e-06  0 
 -3.057963e-08  -1.776266e-06  0 
 -1.050657e-07  -1.864942e-06  0 
 -4.683946e-08  -1.816781e-06  0 
 -6.368142e-07  -1.992805e-06  0 
 -1.056591e-06  -2.172426e-06  0 
 -1.307818e-06  -2.275418e-06  0 
 -1.768911e-06  -1.649559e-06  0 
 -2.829093e-06  -1.800512e-06  0 
 -3.791484e-06  -1.855917e-06  0 
VECTORS displacement_ITER6 FLOAT
 7.243029e-07  1.028995e-06  0 
 -9.684833e-06  -7.167610e-08  0 
 4.326670e-07  9.246778e-07  0 
 -3.379423e-07  5.517585e-07  0 
 -3.144883e-07  -5.537544e-07  0 
 4.417259e-07  -9.284919e-07  0 
 7.302176e-07  -1.005144e-06  0 
 -1.551368e-06  6.595513e-08  0 
 1.969413e-06  1.692145e-07  0 
 2.002304e-06  -1.318048e-07  0 
 -1.540250e-06  -2.281522e-08  0 
 -9.679128e-06  -6.887912e-09  0 
 3.478087e-07  1.733421e-06  0 
 -9.934372e-07  2.193294e-06  0 
 -4.031333e-06  2.130462e-06  0 
 4.726641e-07  1.134505e-06  0 
 5.073915e-07  1.263608e-06  0 
 6.750130e-07  9.940534e-07  0 
 2.856226e-07  9.091274e-07  0 
 1.249709e-07  8.516062e-07  0 
 -6.921840e-08  7.320465e-07  0 
 -7.307098e-07  -2.283936e-08  0 
 -8.613589e-07  1.909895e-08  0 
 -7.085122e-07  4.842408e-08  0 
 -4.919541e-08  -7.345187e-07  0 
 1.413840e-07  -8.544979e-07  0 
 2.983914e-07  -9.124849e-07  0 
 6.668624e-07  -1.012073e-06  0 
 4.830377e-07  -1.270534e-06  0 
 4.526697e-07  -1.120579e-06  0 
 4.192886e-07  1.396042e-06  0 
 1.031560e-07  1.730897e-06  0 
 -5.410022e-07  1.471490e-06  0 
 -7.884245e-06  8.648204e-08  0 
 -6.113176e-06  3.362562e-07  0 
 -4.168214e-06  9.622403e-08  0 
 -2.595611e-07  1.381454e-06  0 
 1.366819e-07  1.678893e-06  0 
 8.048015e-07  1.423106e-06  0 
 -5.404760e-07  3.357521e-08  0 
 2.163520e-07  6.708717e-08  0 
 9.784472e-07  9.683404e-08  0 
 -2.361981e-07  -1.374887e-06  0 
 1.610023e-07  -1.663125e-06  0 
 8.319781e-07  -1.398681e-06  0 
 3.029456e-06  1.055733e-07  0 
 2.975424e-06  -4.858046e-08  0 
 3.089968e-06  -1.558282e-07  0 
 4.280847e-07  -1.390175e-06  0 
 1.113958e-07  -1.715818e-06  0 
 -5.337990e-07  -1.443224e-06  0 
 1.003540e-06  -5.969467e-08  0 
 2.345420e-07  -2.742412e-08  0 
 -5.260770e-07  9.092610e-09  0 
 3.316282e-07  -1.740674e-06  0 
 -1.034675e-06  -2.178273e-06  0 
 -4.087820e-06  -2.051439e-06  0 
 -4.186087e-06  4.101126e-08  0 
 -6.227638e-06  -2.170093e-07  0 
 -8.015934e-06  -8.830596e-08  0 
 1.941664e-07  1.693766e-06  0 
 1.674290e-07  1.608623e-06  0 
 2.205272e-07  1.578911e-06  0 
 -1.003165e-06  2.189653e-06  0 
 -7.946815e-07  2.144176e-06  0 
 -4.130145e-07  1.963231e-06  0 
 -3.542481e-06  2.065635e-06  0 
 -2.717423e-06  1.919135e-06  0 
 -1.656012e-06  1.814297e-06  0 
 2.565598e-07  1.386700e-06  0 
 1.143891e-07  1.373829e-06  0 
 -4.520968e-08  1.367571e-06  0 
 1.000113e-07  1.727699e-06  0 
 1.160948e-07  1.724846e-06  0 
 1.308532e-07  1.705251e-06  0 
 -2.238593e-07  1.451403e-06  0 
 1.642443e-07  1.422122e-06  0 
 5.360988e-07  1.431200e-06  0 
 -3.795733e-07  7.505096e-07  0 
 -4.431426e-07  3.778024e-09  0 
 -3.667105e-07  -7.425357e-07  0 
 2.197207e-07  8.544486e-07  0 
 2.449117e-07  8.075706e-09  0 
 2.312831e-07  -8.377449e-07  0 
 1.138560e-06  7.131563e-07  0 
 1.351242e-06  1.391372e-08  0 
 1.154651e-06  -6.904435e-07  0 
 -2.527864e-08  -1.361202e-06  0 
 1.307452e-07  -1.367747e-06  0 
 2.691729e-07  -1.380823e-06  0 
 1.518154e-07  -1.689661e-06  0 
 1.330940e-07  -1.709379e-06  0 
 1.127248e-07  -1.712393e-06  0 
 5.593431e-07  -1.405598e-06  0 
 1.831613e-07  -1.395435e-06  0 
 -2.104065e-07  -1.423830e-06  0 
 2.199910e-07  -1.571306e-06  0 
 1.577844e-07  -1.605823e-06  0 
 1.793230e-07  -1.697900e-06  0 
 -4.146524e-07  -1.947971e-06  0 
 -8.034503e-07  -2.126890e-06  0 
 -1.024723e-06  -2.173111e-06  0 
 -1.673807e-06  -1.798638e-06  0 
 -2.756018e-06  -1.895245e-06  0 
 -3.590216e-06  -2.007989e-06  0 
VECTORS displacement_ITER7 FLOAT
 7.164381e-07  1.127031e-06  0 
 -9.637480e-06  3.184947e-07  0 
 4.558335e-07  9.829520e-07  0 
 -3.531879e-07  5.645560e-07  0 
 -3.948566e-07  -5.590171e-07  0 
 4.346810e-07  -9.743484e-07  0 
 7.053151e-07  -1.171942e-06  0 
 -1.673817e-06  6.116264e-08  0 
 2.114396e-06  2.078459e-07  0 
 2.061754e-06  -2.551937e-07  0 
 -1.697653e-06  -1.161108e-07  0 
 -9.650092e-06  -2.097488e-07  0 
 4.500243e-07  1.706262e-06  0 
 -9.598074e-07  2.292353e-06  0 
 -4.011197e-06  2.191027e-06  0 
 6.616892e-07  1.072892e-06  0 
 4.823658e-07  9.799252e-07  0 
 4.222565e-07  1.111041e-06  0 
 3.060906e-07  9.608185e-07  0 
 1.382131e-07  8.925612e-07  0 
 -6.907417e-08  7.652471e-07  0 
 -4.854981e-07  3.453175e-07  0 
 -3.875915e-07  -3.942662e-08  0 
 -5.313348e-07  -3.954968e-07  0 
 -1.055942e-07  -7.589152e-07  0 
 1.068101e-07  -8.855090e-07  0 
 2.797435e-07  -9.530187e-07  0 
 4.277513e-07  -1.065645e-06  0 
 5.286010e-07  -9.501091e-07  0 
 7.071562e-07  -1.091425e-06  0 
 4.488256e-07  1.467337e-06  0 
 1.235931e-07  1.834069e-06  0 
 -5.701319e-07  1.569343e-06  0 
 -7.986495e-06  2.901554e-07  0 
 -6.089134e-06  2.455150e-07  0 
 -4.142384e-06  3.580172e-07  0 
 -2.737310e-07  1.456206e-06  0 
 1.427948e-07  1.778856e-06  0 
 8.530935e-07  1.515981e-06  0 
 -5.953562e-07  2.768681e-08  0 
 2.427196e-07  7.347314e-08  0 
 1.051416e-06  1.025093e-07  0 
 -3.144214e-07  -1.462813e-06  0 
 1.015208e-07  -1.797616e-06  0 
 8.079718e-07  -1.546117e-06  0 
 2.913744e-06  2.714714e-07  0 
 3.471073e-06  7.748283e-08  0 
 2.816909e-06  -1.915086e-07  0 
 4.283575e-07  -1.472491e-06  0 
 1.038148e-07  -1.852011e-06  0 
 -5.888303e-07  -1.604782e-06  0 
 1.009076e-06  -1.497416e-07  0 
 2.092998e-07  -1.240738e-07  0 
 -6.237992e-07  -8.198784e-08  0 
 4.751140e-07  -1.684570e-06  0 
 -9.045770e-07  -2.310456e-06  0 
 -3.937157e-06  -2.299409e-06  0 
 -4.126785e-06  -5.490705e-07  0 
 -5.931467e-06  -4.108271e-07  0 
 -7.807405e-06  -2.857000e-07  0 
 2.357065e-07  1.721828e-06  0 
 1.877474e-07  1.722990e-06  0 
 2.606858e-07  1.608944e-06  0 
 -9.762745e-07  2.274472e-06  0 
 -7.762387e-07  2.204783e-06  0 
 -3.998871e-07  2.070746e-06  0 
 -3.545215e-06  2.164757e-06  0 
 -2.739083e-06  2.071755e-06  0 
 -1.686498e-06  1.858430e-06  0 
 2.776083e-07  1.459930e-06  0 
 1.260433e-07  1.447751e-06  0 
 -4.386260e-08  1.440361e-06  0 
 1.136073e-07  1.830630e-06  0 
 1.278198e-07  1.828251e-06  0 
 1.391201e-07  1.807058e-06  0 
 -2.318248e-07  1.550399e-06  0 
 1.763938e-07  1.518473e-06  0 
 5.741176e-07  1.529566e-06  0 
 -3.540383e-07  6.884697e-07  0 
 -4.164567e-07  -3.449718e-09  0 
 -3.763879e-07  -6.973971e-07  0 
 1.900780e-07  8.948588e-07  0 
 2.214725e-07  -9.462725e-09  0 
 1.704107e-07  -9.148102e-07  0 
 1.243148e-06  7.624709e-07  0 
 1.283088e-06  -1.824652e-08  0 
 1.217498e-06  -7.896809e-07  0 
 -7.988566e-08  -1.446540e-06  0 
 9.496221e-08  -1.453383e-06  0 
 2.517493e-07  -1.465159e-06  0 
 1.021720e-07  -1.825598e-06  0 
 9.613081e-08  -1.846649e-06  0 
 8.770939e-08  -1.848843e-06  0 
 5.341971e-07  -1.561337e-06  0 
 1.422609e-07  -1.551746e-06  0 
 -2.587125e-07  -1.584907e-06  0 
 2.573327e-07  -1.618314e-06  0 
 2.002879e-07  -1.724630e-06  0 
 2.572962e-07  -1.708124e-06  0 
 -4.047567e-07  -2.089090e-06  0 
 -7.700690e-07  -2.225517e-06  0 
 -9.507887e-07  -2.294236e-06  0 
 -1.668774e-06  -1.876237e-06  0 
 -2.692081e-06  -2.102349e-06  0 
 -3.483841e-06  -2.243731e-06  0 
VECTORS displacement_ITER8 FLOAT
 7.141428e-07  1.152391e-06  0 
 -9.885822e-06  2.676395e-07  0 
 4.863619e-07  1.072803e-06  0 
 -4.252084e-07  6.149788e-07  0 
 -3.445497e-07  -6.273115e-07  0 
 5.324410e-07  -1.090981e-06  0 
 7.369443e-07  -1.063032e-06  0 
 -1.782905e-06  3.488035e-07  0 
 2.181575e-06  4.649010e-07  0 
 2.278877e-06  -3.903548e-07  0 
 -1.732409e-06  -2.614646e-07  0 
 -9.870526e-06  -4.564131e-07  0 
 5.364214e-07  1.853774e-06  0 
 -8.842701e-07  2.501153e-06  0 
 -4.043369e-06  2.467585e-06  0 
 6.120969e-07  1.165252e-06  0 
 5.794289e-07  1.115164e-06  0 
 4.291523e-07  1.082722e-06  0 
 3.183817e-07  1.046741e-06  0 
 1.250934e-07  9.716360e-07  0 
 -1.071933e-07  8.337739e-07  0 
 -4.981244e-07  3.534661e-07  0 
 -5.765118e-07  8.079394e-08  0 
 -4.033289e-07  -2.522946e-07  0 
 -3.541884e-08  -8.476024e-07  0 
 1.882555e-07  -9.868520e-07  0 
 3.731392e-07  -1.063339e-06  0 
 4.278732e-07  -1.184645e-06  0 
 4.862951e-07  -1.191826e-06  0 
 5.138733e-07  -1.136177e-06  0 
 4.925292e-07  1.621022e-06  0 
 1.592538e-07  2.067601e-06  0 
 -5.688190e-07  1.863356e-06  0 
 -7.954367e-06  3.290989e-07  0 
 -6.129150e-06  3.942826e-07  0 
 -4.061212e-06  5.531198e-07  0 