# vtk DataFile Version 3.1
this is an vtk file created by FEMAC
ASCII
DATASET UNSTRUCTURED_GRID
POINTS 105 FLOAT
2.000000 0.000000 0.000000
2.500000 0.000000 0.000000
2.000000 0.200000 0.000000
2.000000 0.400000 0.000000
2.000000 0.600000 0.000000
2.000000 0.800000 0.000000
2.000000 1.000000 0.000000
2.500000 0.200000 0.000000
2.500000 0.400000 0.000000
2.500000 0.600000 0.000000
2.500000 0.800000 0.000000
2.500000 1.000000 0.000000
2.125000 0.000000 0.000000
2.250000 0.000000 0.000000
2.375000 0.000000 0.000000
2.000000 0.050000 0.000000
2.000000 0.100000 0.000000
2.000000 0.150000 0.000000
2.000000 0.250000 0.000000
2.000000 0.300000 0.000000
2.000000 0.350000 0.000000
2.000000 0.450000 0.000000
2.000000 0.500000 0.000000
2.000000 0.550000 0.000000
2.000000 0.650000 0.000000
2.000000 0.700000 0.000000
2.000000 0.750000 0.000000
2.000000 0.850000 0.000000
2.000000 0.900000 0.000000
2.000000 0.950000 0.000000
2.125000 0.200000 0.000000
2.250000 0.200000 0.000000
2.375000 0.200000 0.000000
2.500000 0.050000 0.000000
2.500000 0.100000 0.000000
2.500000 0.150000 0.000000
2.125000 0.400000 0.000000
2.250000 0.400000 0.000000
2.375000 0.400000 0.000000
2.500000 0.250000 0.000000
2.500000 0.300000 0.000000
2.500000 0.350000 0.000000
2.125000 0.600000 0.000000
2.250000 0.600000 0.000000
2.375000 0.600000 0.000000
2.500000 0.450000 0.000000
2.500000 0.500000 0.000000
2.500000 0.550000 0.000000
2.125000 0.800000 0.000000
2.250000 0.800000 0.000000
2.375000 0.800000 0.000000
2.500000 0.650000 0.000000
2.500000 0.700000 0.000000
2.500000 0.750000 0.000000
2.125000 1.000000 0.000000
2.250000 1.000000 0.000000
2.375000 1.000000 0.000000
2.500000 0.850000 0.000000
2.500000 0.900000 0.000000
2.500000 0.950000 0.000000
2.125000 0.050000 0.000000
2.125000 0.100000 0.000000
2.125000 0.150000 0.000000
2.250000 0.050000 0.000000
2.250000 0.100000 0.000000
2.250000 0.150000 0.000000
2.375000 0.050000 0.000000
2.375000 0.100000 0.000000
2.375000 0.150000 0.000000
2.125000 0.250000 0.000000
2.125000 0.300000 0.000000
2.125000 0.350000 0.000000
2.250000 0.250000 0.000000
2.250000 0.300000 0.000000
2.250000 0.350000 0.000000
2.375000 0.250000 0.000000
2.375000 0.300000 0.000000
2.375000 0.350000 0.000000
2.125000 0.450000 0.000000
2.125000 0.500000 0.000000
2.125000 0.550000 0.000000
2.250000 0.450000 0.000000
2.250000 0.500000 0.000000
2.250000 0.550000 0.000000
2.375000 0.450000 0.000000
2.375000 0.500000 0.000000
2.375000 0.550000 0.000000
2.125000 0.650000 0.000000
2.125000 0.700000 0.000000
2.125000 0.750000 0.000000
2.250000 0.650000 0.000000
2.250000 0.700000 0.000000
2.250000 0.750000 0.000000
2.375000 0.650000 0.000000
2.375000 0.700000 0.000000
2.375000 0.750000 0.000000
2.125000 0.850000 0.000000
2.125000 0.900000 0.000000
2.125000 0.950000 0.000000
2.250000 0.850000 0.000000
2.250000 0.900000 0.000000
2.250000 0.950000 0.000000
2.375000 0.850000 0.000000
2.375000 0.900000 0.000000
2.375000 0.950000 0.000000
CELLS 80 400 
4 0 12 60 15
4 15 60 61 16
4 16 61 62 17
4 17 62 30  2
4 12 13 63 60
4 60 63 64 61
4 61 64 65 62
4 62 65 31 30
4 13 14 66 63
4 63 66 67 64
4 64 67 68 65
4 65 68 32 31
4 14  1 33 66
4 66 33 34 67
4 67 34 35 68
4 68 35  7 32
4 2 30 69 18
4 18 69 70 19
4 19 70 71 20
4 20 71 36  3
4 30 31 72 69
4 69 72 73 70
4 70 73 74 71
4 71 74 37 36
4 31 32 75 72
4 72 75 76 73
4 73 76 77 74
4 74 77 38 37
4 32  7 39 75
4 75 39 40 76
4 76 40 41 77
4 77 41  8 38
4 3 36 78 21
4 21 78 79 22
4 22 79 80 23
4 23 80 42  4
4 36 37 81 78
4 78 81 82 79
4 79 82 83 80
4 80 83 43 42
4 37 38 84 81
4 81 84 85 82
4 82 85 86 83
4 83 86 44 43
4 38  8 45 84
4 84 45 46 85
4 85 46 47 86
4 86 47  9 44
4 4 42 87 24
4 24 87 88 25
4 25 88 89 26
4 26 89 48  5
4 42 43 90 87
4 87 90 91 88
4 88 91 92 89
4 89 92 49 48
4 43 44 93 90
4 90 93 94 91
4 91 94 95 92
4 92 95 50 49
4 44  9 51 93
4 93 51 52 94
4 94 52 53 95
4 95 53 10 50
4 5 48 96 27
4 27 96 97 28
4 28 97 98 29
4 29 98 54  6
4 48 49 99 96
4 96  99 100  97
4 97 100 101  98
4 98 101  55  54
4 49  50 102  99
4 99 102 103 100
4 100 103 104 101
4 101 104  56  55
4 50  10  57 102
4 102  57  58 103
4 103  58  59 104
4 104  59  11  56
CELL_TYPES 80
9 9 9 9 9 9 9 9 9 9 9 9 9 9 9 9 9 9 9 9 9 9 9 9 9 9 9 9 9 9 9 9 9 9 9 9 9 9 9 9 9 9 9 9 9 9 9 9 9 9 9 9 9 9 9 9 9 9 9 9 9 9 9 9 9 9 9 9 9 9 9 9 9 9 9 9 9 9 9 9 
POINT_DATA 105
VECTORS displacement_ITER1 FLOAT
 1.124217e-14  1.528410e-14  0 
 1.103803e-14  2.476147e-14  0 
 7.597419e-15  1.531682e-14  0 
 3.530821e-15  1.536723e-14  0 
 -5.398720e-16  1.537188e-14  0 
 -4.603034e-15  1.538804e-14  0 
 -8.272672e-15  1.536020e-14  0 
 7.091739e-15  2.479312e-14  0 
 3.275806e-15  2.491425e-14  0 
 -3.373726e-16  2.491889e-14  0 
 -4.156183e-15  2.486333e-14  0 
 -8.076799e-15  2.483658e-14  0 
 1.118248e-14  1.759749e-14  0 
 1.113624e-14  1.994048e-14  0 
 1.109206e-14  2.233546e-14  0 
 1.031876e-14  1.528625e-14  0 
 9.397341e-15  1.529330e-14  0 
 8.486251e-15  1.530495e-14  0 
 7.229474e-15  1.529373e-14  0 
 6.317055e-15  1.519449e-14  0 
 5.057008e-15  1.517303e-14  0 
 2.503219e-15  1.537699e-14  0 
 1.491899e-15  1.538193e-14  0 
 4.822110e-16  1.537954e-14  0 
 -1.983128e-15  1.520243e-14  0 
 -3.220410e-15  1.523518e-14  0 
 -4.153947e-15  1.534460e-14  0 
 -5.501349e-15  1.537815e-14  0 
 -6.418598e-15  1.536818e-14  0 
 -7.344749e-15  1.536208e-14  0 
 7.470697e-15  1.758714e-14  0 
 7.344052e-15  1.994035e-14  0 
 7.218889e-15  2.232522e-14  0 
 1.006515e-14  2.476365e-14  0 
 9.089729e-15  2.477076e-14  0 
 8.102809e-15  2.478231e-14  0 
 3.459855e-15  1.787643e-14  0 
 3.390758e-15  2.029044e-14  0 
 3.328009e-15  2.264095e-14  0 
 5.543357e-15  2.476965e-14  0 
 4.497826e-15  2.468801e-14  0 
 3.769611e-15  2.469219e-14  0 
 -4.831376e-16  1.787545e-14  0 
 -4.260634e-16  2.029085e-14  0 
 -3.753371e-16  2.263996e-14  0 
 2.380340e-15  2.492402e-14  0 
 1.472795e-15  2.492865e-14  0 
 5.636197e-16  2.492657e-14  0 
 -4.491831e-15  1.767267e-14  0 
 -4.379086e-15  2.002791e-14  0 
 -4.267825e-15  2.241025e-14  0 
 -9.140031e-16  2.472147e-14  0 
 -1.665655e-15  2.472810e-14  0 
 -2.689161e-15  2.481950e-14  0 
 -8.215174e-15  1.768224e-14  0 
 -8.170874e-15  2.002858e-14  0 
 -8.128631e-15  2.241972e-14  0 
 -5.157584e-15  2.485451e-14  0 
 -6.138139e-15  2.484464e-14  0 
 -7.108619e-15  2.483848e-14  0 
 1.025261e-14  1.759711e-14  0 
 9.323475e-15  1.759542e-14  0 
 8.396836e-15  1.759165e-14  0 
 1.018855e-14  1.993981e-14  0 
 9.240624e-15  1.993837e-14  0 
 8.292529e-15  1.993796e-14  0 
 1.012621e-14  2.233505e-14  0 
 9.159047e-15  2.233321e-14  0 
 8.189019e-15  2.232931e-14  0 
 6.526131e-15  1.760871e-14  0 
 5.564766e-15  1.774251e-14  0 
 4.521346e-15  1.786426e-14  0 
 6.359094e-15  2.004024e-14  0 
 5.370756e-15  2.012216e-14  0 
 4.381769e-15  2.020290e-14  0 
 6.195264e-15  2.235997e-14  0 
 5.188302e-15  2.249645e-14  0 
 4.253200e-15  2.262073e-14  0 
 2.474284e-15  1.787378e-14  0 
 1.487966e-15  1.787223e-14  0 
 5.019912e-16  1.787319e-14  0 
 2.436830e-15  2.029244e-14  0 
 1.482346e-15  2.029295e-14  0 
 5.278637e-16  2.029243e-14  0 
 2.402845e-15  2.263895e-14  0 
 1.476728e-15  2.263789e-14  0 
 5.502671e-16  2.263836e-14  0 
 -1.537738e-15  1.787701e-14  0 
 -2.574898e-15  1.778393e-14  0 
 -3.540909e-15  1.767907e-14  0 
 -1.417028e-15  2.022456e-14  0 
 -2.405979e-15  2.016457e-14  0 
 -3.394219e-15  2.010428e-14  0 
 -1.307459e-15  2.263326e-14  0 
 -2.248586e-15  2.253762e-14  0 
 -3.250848e-15  2.243003e-14  0 
 -5.421006e-15  1.767684e-14  0 
 -6.350806e-15  1.768029e-14  0 
 -7.282753e-15  1.768187e-14  0 
 -5.327463e-15  2.002609e-14  0 
 -6.275459e-15  2.002664e-14  0 
 -7.223284e-15  2.002798e-14  0 
 -5.234715e-15  2.241400e-14  0 
 -6.201383e-15  2.241758e-14  0 
 -7.165532e-15  2.241931e-14  0 
VECTORS displacement_ITER2 FLOAT
 -1.783503e-14  -2.758871e-14  0 
 -1.787167e-14  -4.413524e-14  0 
 -1.109501e-14  -2.755100e-14  0 
 -4.513411e-15  -2.688474e-14  0 
 2.014176e-15  -2.688637e-14  0 
 8.590557e-15  -2.750385e-14  0 
 1.532656e-14  -2.754221e-14  0 
 -1.136567e-14  -4.410713e-14  0 
 -4.689225e-15  -4.368295e-14  0 
 2.182701e-15  -4.368453e-14  0 
 8.862557e-15  -4.405708e-14  0 
 1.537027e-14  -4.408584e-14  0 
 -1.783663e-14  -3.175488e-14  0 
 -1.785184e-14  -3.590081e-14  0 
 -1.786647e-14  -4.002789e-14  0 
 -1.615800e-14  -2.758712e-14  0 
 -1.448068e-14  -2.758147e-14  0 
 -1.279593e-14  -2.757011e-14  0 
 -9.307793e-15  -2.732700e-14  0 
 -7.630385e-15  -2.702458e-14  0 
 -5.977854e-15  -2.683931e-14  0 
 -2.889466e-15  -2.688428e-14  0 
 -1.250871e-15  -2.688370e-14  0 
 3.882790e-16  -2.688520e-14  0 
 3.437189e-15  -2.686804e-14  0 
 5.064350e-15  -2.701583e-14  0 
 6.760338e-15  -2.727376e-14  0 
 1.028949e-14  -2.752280e-14  0 
 1.197309e-14  -2.753450e-14  0 
 1.364978e-14  -2.754049e-14  0 
 -1.117889e-14  -3.175217e-14  0 
 -1.123306e-14  -3.589323e-14  0 
 -1.128563e-14  -4.002752e-14  0 
 -1.623601e-14  -4.413413e-14  0 
 -1.460202e-14  -4.412994e-14  0 
 -1.297583e-14  -4.412135e-14  0 
 -4.577537e-15  -3.102121e-14  0 
 -4.612455e-15  -3.521285e-14  0 
 -4.642553e-15  -3.942625e-14  0 
 -9.838947e-15  -4.397862e-14  0 
 -8.195069e-15  -4.375863e-14  0 
 -6.525106e-15  -4.362646e-14  0 
 2.074527e-15  -3.102116e-14  0 
 2.109568e-15  -3.521160e-14  0 
 2.139797e-15  -3.942618e-14  0 
 -2.965065e-15  -4.368226e-14  0 
 -1.252004e-15  -4.368184e-14  0 
 4.605037e-16  -4.368315e-14  0 
 8.672511e-15  -3.170526e-14  0 
 8.729290e-15  -3.584676e-14  0 
 8.784484e-15  -3.997917e-14  0 
 4.060057e-15  -4.365422e-14  0 
 5.754881e-15  -4.374804e-14  0 
 7.379934e-15  -4.392279e-14  0 
 1.533036e-14  -3.170767e-14  0 
 1.534691e-14  -3.585313e-14  0 
 1.536290e-14  -3.997924e-14  0 
 1.047415e-14  -4.407115e-14  0 
 1.210088e-14  -4.408007e-14  0 
 1.373498e-14  -4.408459e-14  0 
 -1.617433e-14  -3.175434e-14  0 
 -1.450929e-14  -3.175331e-14  0 
 -1.284311e-14  -3.175253e-14  0 
 -1.619714e-14  -3.590094e-14  0 
 -1.454249e-14  -3.590049e-14  0 
 -1.288771e-14  -3.589811e-14  0 
 -1.621994e-14  -4.002767e-14  0 
 -1.457544e-14  -4.002742e-14  0 
 -1.293180e-14  -4.002751e-14  0 
 -9.531299e-15  -3.155548e-14  0 
 -7.864442e-15  -3.137343e-14  0 
 -6.211419e-15  -3.119556e-14  0 
 -9.586411e-15  -3.572543e-14  0 
 -7.934600e-15  -3.555209e-14  0 
 -6.276746e-15  -3.537872e-14  0 
 -9.640946e-15  -3.986307e-14  0 
 -7.998593e-15  -3.971412e-14  0 
 -6.332694e-15  -3.956884e-14  0 
 -2.911287e-15  -3.102008e-14  0 
 -1.250818e-15  -3.102066e-14  0 
 4.093848e-16  -3.102024e-14  0 
 -2.931836e-15  -3.520854e-14  0 
 -1.251440e-15  -3.520629e-14  0 
 4.289543e-16  -3.520781e-14  0 
 -2.949311e-15  -3.942541e-14  0 
 -1.252061e-15  -3.942583e-14  0 
 4.454539e-16  -3.942556e-14  0 
 3.703470e-15  -3.117543e-14  0 
 5.351670e-15  -3.135033e-14  0 
 7.020421e-15  -3.152912e-14  0 
 3.773751e-15  -3.536737e-14  0 
 5.431404e-15  -3.552763e-14  0 
 7.082980e-15  -3.568831e-14  0 
 3.834677e-15  -3.954829e-14  0 
 5.505079e-15  -3.969024e-14  0 
 7.144905e-15  -3.983563e-14  0 
 1.033740e-14  -3.170534e-14  0 
 1.200357e-14  -3.170605e-14  0 
 1.366834e-14  -3.170711e-14  0 
 1.038366e-14  -3.585121e-14  0 
 1.203814e-14  -3.585315e-14  0 
 1.369250e-14  -3.585334e-14  0 
 1.042940e-14  -3.997887e-14  0 
 1.207247e-14  -3.997872e-14  0 
 1.371665e-14  -3.997899e-14  0 
VECTORS displacement_ITER3 FLOAT
 1.942542e-15  2.350072e-15  0 
 1.887830e-15  3.914732e-15  0 
 1.461417e-15  2.372771e-15  0 
 7.120374e-16  2.674715e-15  0 
 -1.054690e-16  2.674386e-15  0 
 -8.560314e-16  2.329595e-15  0 
 -1.349876e-15  2.306992e-15  0 
 1.120074e-15  3.934137e-15  0 
 5.154763e-16  4.215727e-15  0 
 6.115440e-17  4.215371e-15  0 
 -5.413680e-16  3.889151e-15  0 
 -1.294937e-15  3.869813e-15  0 
 1.924911e-15  2.692302e-15  0 
 1.914767e-15  3.062605e-15  0 
 1.904678e-15  3.474935e-15  0 
 1.805143e-15  2.350301e-15  0 
 1.673600e-15  2.352485e-15  0 
 1.554749e-15  2.359141e-15  0 
 1.475527e-15  2.435254e-15  0 
 1.321899e-15  2.598645e-15  0 
 1.094417e-15  2.711890e-15  0 
 4.984519e-16  2.673381e-15  0 
 3.006799e-16  2.673886e-15  0 
 1.040358e-16  2.673452e-15  0 
 -4.758267e-16  2.682641e-15  0 
 -7.025345e-16  2.563635e-15  0 
 -8.589758e-16  2.400308e-15  0 
 -9.549033e-16  2.316104e-15  0 
 -1.077070e-15  2.309497e-15  0 
 -1.210851e-15  2.307264e-15  0 
 1.358042e-15  2.684311e-15  0 
 1.287740e-15  3.069357e-15  0 
 1.219065e-15  3.467942e-15  0 
 1.712124e-15  3.915093e-15  0 
 1.530846e-15  3.917356e-15  0 
 1.337528e-15  3.923299e-15  0 
 6.459775e-16  3.134498e-15  0 
 6.026742e-16  3.532795e-15  0 
 5.645949e-16  3.898374e-15  0 
 7.990924e-16  3.979904e-15  0 
 6.258166e-16  4.132959e-15  0 
 5.056042e-16  4.243556e-15  0 
 -4.872045e-17  3.132713e-15  0 
 -1.106486e-17  3.532413e-15  0 
 2.136362e-17  3.896571e-15  0 
 4.092693e-16  4.215667e-15  0 
 2.909248e-16  4.216366e-15  0 
 1.714534e-16  4.215723e-15  0 
 -7.600279e-16  2.648676e-15  0 
 -6.956886e-16  3.034930e-15  0 
 -6.329663e-16  3.431396e-15  0 
 5.901119e-17  4.213480e-15  0 
 -6.147551e-17  4.096528e-15  0 
 -2.311134e-16  3.943435e-15  0 
 -1.333533e-15  2.655158e-15  0 
 -1.321982e-15  3.028010e-15  0 
 -1.310477e-15  3.436867e-15  0 
 -7.528985e-16  3.878433e-15  0 
 -9.425661e-16  3.872526e-15  0 
 -1.121185e-15  3.870210e-15  0 
 1.784280e-15  2.691674e-15  0 
 1.643476e-15  2.689771e-15  0 
 1.502792e-15  2.686789e-15  0 
 1.758187e-15  3.062672e-15  0 
 1.601566e-15  3.063208e-15  0 
 1.444817e-15  3.065346e-15  0 
 1.732387e-15  3.474336e-15  0 
 1.560090e-15  3.472539e-15  0 
 1.387537e-15  3.469801e-15  0 
 1.196315e-15  2.804359e-15  0 
 1.034208e-15  2.921827e-15  0 
 8.500516e-16  3.033884e-15  0 
 1.116084e-15  3.185038e-15  0 
 9.441862e-16  3.303956e-15  0 
 7.732221e-16  3.421617e-15  0 
 1.039866e-15  3.586485e-15  0 
 8.629444e-16  3.696855e-15  0 
 7.052539e-16  3.801683e-15  0 
 4.750087e-16  3.134626e-15  0 
 2.988779e-16  3.133297e-15  0 
 1.227685e-16  3.133514e-15  0 
 4.493979e-16  3.535695e-15  0 
 2.958022e-16  3.537140e-15  0 
 1.422080e-16  3.535487e-15  0 
 4.270031e-16  3.898591e-15  0 
 2.927262e-16  3.897558e-15  0 
 1.584285e-16  3.897468e-15  0 
 -2.507926e-16  3.023401e-15  0 
 -4.352298e-16  2.901727e-15  0 
 -5.982023e-16  2.775816e-15  0 
 -1.815644e-16  3.411654e-15  0 
 -3.524550e-16  3.285823e-15  0 
 -5.242044e-16  3.158731e-15  0 
 -1.211756e-16  3.790994e-15  0 
 -2.783677e-16  3.676361e-15  0 
 -4.542578e-16  3.557227e-15  0 
 -9.061147e-16  2.650696e-15  0 
 -1.048452e-15  2.653131e-15  0 
 -1.190949e-15  2.654664e-15  0 
 -8.525797e-16  3.030842e-15  0 
 -1.009148e-15  3.028654e-15  0 
 -1.165584e-15  3.028077e-15  0 
 -7.997467e-16  3.432794e-15  0 
 -9.702721e-16  3.434985e-15  0 
 -1.140518e-15  3.436408e-15  0 
VECTORS displacement_ITER4 FLOAT
 -3.740992e-16  -7.621026e-16  0 
 -4.108163e-16  -1.310068e-15  0 
 3.428747e-18  -7.505165e-16  0 
 6.430758e-17  -6.738059e-16  0 
 4.920400e-17  -6.728195e-16  0 
 1.097700e-16  -7.369323e-16  0 
 4.698139e-16  -7.465933e-16  0 
 -3.496811e-16  -1.297833e-15  0 
 -1.218972e-16  -1.110426e-15  0 
 2.057960e-16  -1.109368e-15  0 
 4.323324e-16  -1.280138e-15  0 
 5.077837e-16  -1.290414e-15  0 
 -3.930393e-16  -9.584660e-16  0 
 -3.936613e-16  -1.122461e-15  0 
 -3.946452e-16  -1.232121e-15  0 
 -3.010945e-16  -7.621194e-16  0 
 -2.201601e-16  -7.611081e-16  0 
 -1.244551e-16  -7.575714e-16  0 
 1.828553e-16  -7.962954e-16  0 
 2.208368e-16  -7.274413e-16  0 
 1.777720e-16  -6.543534e-16  0 
 5.201497e-17  -6.779453e-16  0 
 5.431168e-17  -6.778417e-16  0 
 5.763311e-17  -6.770364e-16  0 
 -4.889769e-17  -6.492617e-16  0 
 -8.129318e-17  -7.188751e-16  0 
 -4.967560e-17  -7.861976e-16  0 
 2.309941e-16  -7.436199e-16  0 
 3.225009e-16  -7.464072e-16  0 
 4.001236e-16  -7.468263e-16  0 
 -1.048456e-16  -9.719883e-16  0 
 -1.762379e-16  -1.116282e-15  0 
 -2.461494e-16  -1.242745e-15  0 
 -3.762081e-16  -1.309714e-15  0 
 -3.484520e-16  -1.307928e-15  0 
 -3.342414e-16  -1.303908e-15  0 
 3.729623e-18  -7.100600e-16  0 
 -3.918656e-17  -8.033766e-16  0 
 -7.710536e-17  -9.345898e-16  0 
 -4.158711e-16  -1.307851e-15  0 
 -3.703888e-16  -1.208471e-15  0 
 -2.711629e-16  -1.112037e-15  0 
 1.007772e-16  -7.109026e-16  0 
 1.379025e-16  -8.031482e-16  0 
 1.700240e-16  -9.354058e-16  0 
 -3.318015e-17  -1.112177e-15  0 
 4.440044e-17  -1.111502e-15  0 
 1.209546e-16  -1.111233e-15  0 
 2.094619e-16  -9.489890e-16  0 
 2.742075e-16  -1.090735e-15  0 
 3.374802e-16  -1.217691e-15  0 
 3.396956e-16  -1.105944e-15  0 
 4.285225e-16  -1.197892e-15  0 
 4.804549e-16  -1.294344e-15  0 
 4.887664e-16  -9.361181e-16  0 
 4.899777e-16  -1.096682e-15  0 
 4.915657e-16  -1.207703e-15  0 
 4.228046e-16  -1.285844e-15  0 
 4.403743e-16  -1.289108e-15  0 
 4.707036e-16  -1.290294e-15  0 
 -3.181728e-16  -9.597267e-16  0 
 -2.447571e-16  -9.632852e-16  0 
 -1.716767e-16  -9.685037e-16  0 
 -3.390476e-16  -1.122326e-15  0 
 -2.844683e-16  -1.121757e-15  0 
 -2.301592e-16  -1.119573e-15  0 
 -3.596479e-16  -1.233150e-15  0 
 -3.237681e-16  -1.236069e-15  0 
 -2.878441e-16  -1.240365e-15  0 
 -5.263058e-17  -8.988031e-16  0 
 -1.646704e-17  -8.297299e-16  0 
 3.405971e-18  -7.671311e-16  0 
 -1.376100e-16  -1.037287e-15  0 
 -1.021551e-16  -9.559730e-16  0 
 -6.916422e-17  -8.765612e-16  0 
 -2.171698e-16  -1.153869e-15  0 
 -1.797433e-16  -1.074995e-15  0 
 -1.347087e-16  -1.003258e-15  0 
 3.042324e-17  -7.097061e-16  0 
 5.237598e-17  -7.109038e-16  0 
 7.441948e-17  -7.103528e-16  0 
 5.237533e-18  -8.014790e-16  0 
 4.935982e-17  -8.002072e-16  0 
 9.348116e-17  -8.013773e-16  0 
 -1.679394e-17  -9.340717e-16  0 
 4.634256e-17  -9.349254e-16  0 
 1.093851e-16  -9.347046e-16  0 
 1.041184e-16  -7.640803e-16  0 
 1.245710e-16  -8.197638e-16  0 
 1.597619e-16  -8.807739e-16  0 
 1.678459e-16  -8.707260e-16  0 
 2.006828e-16  -9.439179e-16  0 
 2.359264e-16  -1.018865e-15  0 
 2.246413e-16  -9.995766e-16  0 
 2.688378e-16  -1.063858e-15  0 
 3.065925e-16  -1.134340e-15  0 
 2.742458e-16  -9.456607e-16  0 
 3.449052e-16  -9.407651e-16  0 
 4.160394e-16  -9.373518e-16  0 
 3.277211e-16  -1.093813e-15  0 
 3.816136e-16  -1.095883e-15  0 
 4.357805e-16  -1.096505e-15  0 
 3.803830e-16  -1.215454e-15  0 
 4.179193e-16  -1.211474e-15  0 
 4.552469e-16  -1.208698e-15  0 
VECTORS displacement_ITER5 FLOAT
 -8.168493e-15  -1.412845e-14  0 
 -8.157730e-15  -2.276549e-14  0 
 -4.539552e-15  -1.411746e-14  0 
 -1.211400e-15  -1.407769e-14  0 
 2.039664e-15  -1.407603e-14  0 
 5.371288e-15  -1.405281e-14  0 
 8.986132e-15  -1.406100e-14  0 
 -4.873929e-15  -2.275448e-14  0 
 -1.382191e-15  -2.264569e-14  0 
 2.185763e-15  -2.264409e-14  0 
 5.677505e-15  -2.269377e-14  0 
 8.978702e-15  -2.270201e-14  0 
 -8.174092e-15  -1.635165e-14  0 
 -8.163422e-15  -1.853942e-14  0 
 -8.153244e-15  -2.066984e-14  0 
 -7.281347e-15  -1.412723e-14  0 
 -6.388427e-15  -1.412383e-14  0 
 -5.481887e-15  -1.411950e-14  0 
 -3.644300e-15  -1.416945e-14  0 
 -2.798121e-15  -1.412712e-14  0 
 -2.014021e-15  -1.406682e-14  0 
 -4.060842e-16  -1.408498e-14  0 
 4.120269e-16  -1.408535e-14  0 
 1.231005e-15  -1.408361e-14  0 
 2.848779e-15  -1.403547e-14  0 
 3.646648e-15  -1.408067e-14  0 
 4.489288e-15  -1.411559e-14  0 
 6.308057e-15  -1.405446e-14  0 
 7.211402e-15  -1.405766e-14  0 
 8.101853e-15  -1.406012e-14  0 
 -4.644768e-15  -1.636437e-14  0 
 -4.709909e-15  -1.853397e-14  0 
 -4.773801e-15  -2.068025e-14  0 
 -7.318439e-15  -2.276418e-14  0 
 -6.484365e-15  -2.276063e-14  0 
 -5.662866e-15  -2.275621e-14  0 
 -1.267934e-15  -1.615483e-14  0 
 -1.306813e-15  -1.828062e-14  0 
 -1.341238e-15  -2.044389e-14  0 
 -4.045398e-15  -2.277256e-14  0 
 -3.181410e-15  -2.271539e-14  0 
 -2.268407e-15  -2.264882e-14  0 
 2.088557e-15  -1.615473e-14  0 
 2.122777e-15  -1.827981e-14  0 
 2.152524e-15  -2.044383e-14  0 
 -4.843143e-16  -2.264971e-14  0 
 4.038953e-16  -2.264931e-14  0 
 1.291235e-15  -2.264837e-14  0 
 5.468100e-15  -1.629353e-14  0 
 5.527600e-15  -1.846306e-14  0 
 5.585867e-15  -2.061135e-14  0 
 3.066059e-15  -2.261934e-14  0 
 3.966674e-15  -2.267219e-14  0 
 4.836360e-15  -2.272232e-14  0 
 8.993128e-15  -1.628066e-14  0 
 8.982701e-15  -1.846785e-14  0 
 8.972797e-15  -2.060084e-14  0 
 6.472896e-15  -2.269515e-14  0 
 7.298356e-15  -2.269845e-14  0 
 8.135792e-15  -2.270107e-14  0 
 -7.289510e-15  -1.635281e-14  0 
 -6.405473e-15  -1.635629e-14  0 
 -5.521236e-15  -1.636182e-14  0 
 -7.299841e-15  -1.853944e-14  0 
 -6.436287e-15  -1.853911e-14  0 
 -5.572974e-15  -1.853678e-14  0 
 -7.310256e-15  -2.067082e-14  0 
 -6.466939e-15  -2.067377e-14  0 
 -5.623898e-15  -2.067847e-14  0 
 -3.778509e-15  -1.629915e-14  0 
 -2.933921e-15  -1.624780e-14  0 
 -2.090700e-15  -1.620414e-14  0 
 -3.856368e-15  -1.846928e-14  0 
 -3.004484e-15  -1.840279e-14  0 
 -2.154823e-15  -1.833833e-14  0 
 -3.930046e-15  -2.060663e-14  0 
 -3.071059e-15  -2.054774e-14  0 
 -2.214227e-15  -2.049756e-14  0 
 -4.262926e-16  -1.615355e-14  0 
 4.104125e-16  -1.615444e-14  0 
 1.247212e-15  -1.615374e-14  0 
 -4.493411e-16  -1.827924e-14  0 
 4.079750e-16  -1.827790e-14  0 
 1.265295e-15  -1.827881e-14  0 
 -4.692804e-16  -2.044283e-14  0 
 4.055283e-16  -2.044349e-14  0 
 1.280249e-15  -2.044304e-14  0 
 2.914235e-15  -1.618825e-14  0 
 3.758738e-15  -1.621294e-14  0 
 4.603960e-15  -1.624454e-14  0 
 2.971083e-15  -1.832051e-14  0 
 3.821095e-15  -1.836770e-14  0 
 4.673495e-15  -1.841663e-14  0 
 3.023218e-15  -2.048214e-14  0 
 3.879645e-15  -2.051377e-14  0 
 4.738758e-15  -2.055357e-14  0 
 6.343641e-15  -1.629081e-14  0 
 7.226481e-15  -1.628539e-14  0 
 8.109327e-15  -1.628187e-14  0 
 6.391066e-15  -1.846542e-14  0 
 7.254773e-15  -1.846747e-14  0 
 8.118726e-15  -1.846782e-14  0 
 6.437666e-15  -2.060942e-14  0 
 7.282921e-15  -2.060484e-14  0 
 8.128216e-15  -2.060186e-14  0 
VECTORS displacement_ITER6 FLOAT
 3.637196e-16  1.289098e-15  0 
 3.832303e-16  1.970437e-15  0 
 2.829317e-16  1.306772e-15  0 
 -1.136354e-16  1.344732e-15  0 
 -5.832236e-16  1.344477e-15  0 
 -9.778718e-16  1.308184e-15  0 
 -1.064104e-15  1.290617e-15  0 
 -7.707395e-17  1.986484e-15  0 
 -2.954953e-16  2.029490e-15  0 
 -4.141377e-16  2.028999e-15  0 
 -6.305283e-16  1.978812e-15  0 
 -1.078136e-15  1.962739e-15  0 
 3.625423e-16  1.390824e-15  0 
 3.734359e-16  1.531348e-15  0 
 3.842844e-16  1.731640e-15  0 
 3.259683e-16  1.291668e-15  0 
 2.913355e-16  1.298367e-15  0 
 2.690573e-16  1.306156e-15  0 
 2.442420e-16  1.283773e-15  0 
 1.678956e-16  1.302860e-15  0 
 1.137671e-17  1.337952e-15  0 
 -2.380072e-16  1.337314e-15  0 
 -3.499455e-16  1.336855e-15  0 
 -4.612512e-16  1.337665e-15  0 
 -7.272167e-16  1.342104e-15  0 
 -8.826131e-16  1.308740e-15  0 
 -9.551006e-16  1.288957e-15  0 
 -9.668858e-16  1.307106e-15  0 
 -9.904920e-16  1.299578e-15  0 
 -1.025775e-15  1.293113e-15  0 
 1.727639e-16  1.380153e-15  0 
 1.000930e-16  1.535328e-15  0 
 2.859415e-17  1.721972e-15  0 
 2.850079e-16  1.972792e-15  0 
 1.834558e-16  1.978936e-15  0 
 6.995190e-17  1.986092e-15  0 
 -1.740905e-16  1.588263e-15  0 
 -2.159429e-16  1.778197e-15  0 
 -2.529586e-16  1.925279e-15  0 
 -1.892663e-16  1.976979e-15  0 
 -2.637784e-16  1.989216e-15  0 
 -2.623195e-16  2.014739e-15  0 
 -5.274880e-16  1.587883e-15  0 
 -4.872810e-16  1.778396e-15  0 
 -4.518872e-16  1.924832e-15  0 
 -3.198363e-16  2.025576e-15  0 
 -3.532920e-16  2.025827e-15  0 
 -3.873877e-16  2.025812e-15  0 
 -8.719727e-16  1.383231e-15  0 
 -8.013707e-16  1.536919e-15  0 
 -7.319100e-16  1.720484e-15  0 
 -4.270092e-16  2.015517e-15  0 
 -4.254827e-16  1.989392e-15  0 
 -5.019724e-16  1.974780e-15  0 
 -1.061845e-15  1.393471e-15  0 
 -1.071038e-15  1.533137e-15  0 
 -1.080177e-15  1.729664e-15  0 
 -7.728134e-16  1.977885e-15  0 
 -8.832434e-16  1.970937e-15  0 
 -9.822420e-16  1.965002e-15  0 
 3.158281e-16  1.390007e-15  0 
 2.698497e-16  1.387150e-15  0 
 2.250450e-16  1.381913e-15  0 
 3.052712e-16  1.531046e-15  0 
 2.370460e-16  1.530857e-15  0 
 1.686422e-16  1.532905e-15  0 
 2.946705e-16  1.730871e-15  0 
 2.044148e-16  1.728226e-15  0 
 1.130728e-16  1.723428e-15  0 
 1.092237e-16  1.441717e-15  0 
 2.384607e-17  1.497255e-15  0 
 -6.378359e-17  1.543893e-15  0 
 2.157837e-17  1.599368e-15  0 
 -5.696585e-17  1.662416e-15  0 
 -1.365792e-16  1.723246e-15  0 
 -6.306801e-17  1.782939e-15  0 
 -1.354834e-16  1.839466e-15  0 
 -2.044827e-16  1.885751e-15  0 
 -2.597938e-16  1.589568e-15  0 
 -3.505014e-16  1.588549e-15  0 
 -4.412369e-16  1.589137e-15  0 
 -2.837201e-16  1.779406e-15  0 
 -3.516179e-16  1.780632e-15  0 
 -4.195112e-16  1.779593e-15  0 
 -3.041776e-16  1.926131e-15  0 
 -3.527430e-16  1.925301e-15  0 
 -4.012664e-16  1.925657e-15  0 
 -6.373651e-16  1.545521e-15  0 
 -7.256521e-16  1.498286e-15  0 
 -8.090702e-16  1.442397e-15  0 
 -5.664770e-16  1.723140e-15  0 
 -6.457610e-16  1.662797e-15  0 
 -7.236620e-16  1.600478e-15  0 
 -5.004457e-16  1.886297e-15  0 
 -5.678364e-16  1.838213e-15  0 
 -6.412360e-16  1.780041e-15  0 
 -9.239376e-16  1.385018e-15  0 
 -9.688745e-16  1.389983e-15  0 
 -1.015002e-15  1.392691e-15  0 
 -8.689994e-16  1.534547e-15  0 
 -9.364898e-16  1.532635e-15  0 
 -1.003792e-15  1.532841e-15  0 
 -8.149059e-16  1.721950e-15  0 
 -9.042703e-16  1.726464e-15  0 
 -9.925552e-16  1.728948e-15  0 
VECTORS displacement_ITER7 FLOAT
 -6.746641e-15  -1.140216e-14  0 
 -6.695464e-15  -1.823811e-14  0 
 -3.811712e-15  -1.137742e-14  0 
 -1.149983e-15  -1.125733e-14  0 
 1.427908e-15  -1.125757e-14  0 
 4.079230e-15  -1.146302e-14  0 
 6.989207e-15  -1.148868e-14  0 
 -4.155029e-15  -1.821718e-14  0 
 -1.331865e-15  -1.818501e-14  0 
 1.591983e-15  -1.818487e-14  0 
 4.403771e-15  -1.826557e-14  0 
 6.939598e-15  -1.828714e-14  0 
 -6.735115e-15  -1.317972e-14  0 
 -6.719984e-15  -1.491666e-14  0 
 -6.704815e-15  -1.659755e-14  0 
 -6.027068e-15  -1.139898e-14  0 
 -5.306321e-15  -1.139008e-14  0 
 -4.574339e-15  -1.137816e-14  0 
 -3.154301e-15  -1.131578e-14  0 
 -2.462507e-15  -1.127272e-14  0 
 -1.812386e-15  -1.125681e-14  0 
 -5.119022e-16  -1.126386e-14  0 
 1.370663e-16  -1.126395e-14  0 
 7.869242e-16  -1.126351e-14  0 
 2.092826e-15  -1.127380e-14  0 
 2.741559e-15  -1.131958e-14  0 
 3.426293e-15  -1.138834e-14  0 
 4.833870e-15  -1.146445e-14  0 
 5.559317e-15  -1.147638e-14  0 
 6.274558e-15  -1.148540e-14  0 
 -3.916620e-15  -1.318558e-14  0 
 -3.985608e-15  -1.491339e-14  0 
 -4.053780e-15  -1.660413e-14  0 
 -6.046067e-15  -1.823535e-14  0 
 -5.398535e-15  -1.822762e-14  0 
 -4.762193e-15  -1.821734e-14  0 
 -1.212297e-15  -1.292018e-14  0 
 -1.252374e-15  -1.463512e-14  0 
 -1.287962e-15  -1.638859e-14  0 
 -3.464896e-15  -1.818118e-14  0 
 -2.782517e-15  -1.817279e-14  0 
 -2.052793e-15  -1.818244e-14  0 
 1.484367e-15  -1.292181e-14  0 
 1.521282e-15  -1.463591e-14  0 
 1.553817e-15  -1.638990e-14  0 
 -5.959241e-16  -1.818787e-14  0 
 1.319740e-16  -1.818716e-14  0 
 8.589672e-16  -1.818732e-14  0 
 4.179350e-15  -1.325557e-14  0 
 4.243880e-15  -1.497232e-14  0 
 4.307604e-15  -1.665561e-14  0 
 2.311174e-15  -1.818714e-14  0 
 3.037588e-15  -1.819624e-14  0 
 3.719572e-15  -1.822176e-14  0 
 6.976490e-15  -1.325131e-14  0 
 6.963298e-15  -1.497614e-14  0 
 6.950028e-15  -1.665042e-14  0 
 5.011579e-15  -1.826633e-14  0 
 5.646964e-15  -1.827655e-14  0 
 6.292677e-15  -1.828433e-14  0 
 -6.031274e-15  -1.318002e-14  0 
 -5.325458e-15  -1.318168e-14  0 
 -4.617908e-15  -1.318564e-14  0 
 -6.036353e-15  -1.491712e-14  0 
 -5.352753e-15  -1.491751e-14  0 
 -4.669189e-15  -1.491553e-14  0 
 -6.041693e-15  -1.659795e-14  0 
 -5.380075e-15  -1.659981e-14  0 
 -4.719909e-15  -1.660386e-14  0 
 -3.223309e-15  -1.310728e-14  0 
 -2.544951e-15  -1.304062e-14  0 
 -1.868549e-15  -1.297888e-14  0 
 -3.305239e-15  -1.484038e-14  0 
 -2.622492e-15  -1.476737e-14  0 
 -1.938900e-15  -1.469832e-14  0 
 -3.385767e-15  -1.653911e-14  0 
 -2.699855e-15  -1.648169e-14  0 
 -2.004383e-15  -1.643086e-14  0 
 -5.355818e-16  -1.291875e-14  0 
 1.361617e-16  -1.291982e-14  0 
 8.079477e-16  -1.291977e-14  0 
 -5.589215e-16  -1.463379e-14  0 
 1.344977e-16  -1.463277e-14  0 
 8.278966e-16  -1.463417e-14  0 
 -5.788316e-16  -1.638790e-14  0 
 1.328431e-16  -1.638882e-14  0 
 8.444534e-16  -1.638877e-14  0 
 2.141339e-15  -1.299911e-14  0 
 2.816662e-15  -1.307660e-14  0 
 3.491406e-15  -1.315956e-14  0 
 2.206518e-15  -1.471429e-14  0 
 2.887859e-15  -1.479831e-14  0 
 3.567578e-15  -1.488549e-14  0 
 2.267285e-15  -1.644581e-14  0 
 2.959482e-15  -1.650811e-14  0 
 3.642237e-15  -1.657760e-14  0 
 4.875547e-15  -1.325606e-14  0 
 5.577829e-15  -1.325272e-14  0 
 6.278312e-15  -1.325147e-14  0 
 4.923742e-15  -1.497478e-14  0 
 5.603559e-15  -1.497690e-14  0 
 6.283412e-15  -1.497659e-14  0 
 4.971313e-15  -1.665567e-14  0 
 5.629292e-15  -1.665218e-14  0 
 6.288747e-15  -1.665069e-14  0 
VECTORS displacement_ITER8 FLOAT
 -1.070064e-15  -1.669772e-15  0 
 -1.033591e-15  -2.730907e-15  0 
 -4.406596e-16  -1.649067e-15  0 
 -1.263330e-16  -1.608075e-15  0 
 1.112239e-16  -1.606801e-15  0 
 4.301258e-16  -1.638677e-15  0 
 1.054215e-15  -1.658756e-15  0 
 -8.113743e-16  -2.711601e-15  0 
 -3.127965e-16  -2.701386e-15  0 
 2.829287e-16  -2.700383e-15  0 
 7.839550e-16  -2.711823e-15  0 
 1.020177e-15  -2.730475e-15  0 
 -1.065579e-15  -2.008693e-15  0 
 -1.051870e-15  -2.304939e-15  0 
 -1.038018e-15  -2.539232e-15  0 
 -9.292852e-16  -1.667288e-15  0 
 -7.853158e-16  -1.659648e-15  0 
 -6.279342e-16  -1.648325e-15  0 
 -3.422701e-16  -1.629098e-15  0 
 -2.422632e-16  -1.634495e-15  0 
 -1.849143e-16  -1.642975e-15  0 
 -7.297564e-17  -1.612680e-15  0 
 -9.229837e-18  -1.612109e-15  0 
 5.534688e-17  -1.611653e-15  0 
 1.710989e-16  -1.630191e-15  0 
 2.270694e-16  -1.623465e-15  0 
 3.281400e-16  -1.619956e-15  0 
 6.146913e-16  -1.638083e-15  0 
 7.705830e-16  -1.648927e-15  0 
 9.139133e-16  -1.656310e-15  0 
 -5.516833e-16  -2.016817e-15  0 
 -6.277969e-16  -2.301909e-15  0 
 -7.032282e-16  -2.547370e-15  0 