# vtk DataFile Version 3.1
this is an vtk file created by FEMAC
ASCII
DATASET UNSTRUCTURED_GRID
POINTS 105 FLOAT
6.500000 0.000000 0.000000
7.000000 0.000000 0.000000
6.500000 0.200000 0.000000
6.500000 0.400000 0.000000
6.500000 0.600000 0.000000
6.500000 0.800000 0.000000
6.500000 1.000000 0.000000
7.000000 0.200000 0.000000
7.000000 0.400000 0.000000
7.000000 0.600000 0.000000
7.000000 0.800000 0.000000
7.000000 1.000000 0.000000
6.625000 0.000000 0.000000
6.750000 0.000000 0.000000
6.875000 0.000000 0.000000
6.500000 0.050000 0.000000
6.500000 0.100000 0.000000
6.500000 0.150000 0.000000
6.500000 0.250000 0.000000
6.500000 0.300000 0.000000
6.500000 0.350000 0.000000
6.500000 0.450000 0.000000
6.500000 0.500000 0.000000
6.500000 0.550000 0.000000
6.500000 0.650000 0.000000
6.500000 0.700000 0.000000
6.500000 0.750000 0.000000
6.500000 0.850000 0.000000
6.500000 0.900000 0.000000
6.500000 0.950000 0.000000
6.625000 0.200000 0.000000
6.750000 0.200000 0.000000
6.875000 0.200000 0.000000
7.000000 0.050000 0.000000
7.000000 0.100000 0.000000
7.000000 0.150000 0.000000
6.625000 0.400000 0.000000
6.750000 0.400000 0.000000
6.875000 0.400000 0.000000
7.000000 0.250000 0.000000
7.000000 0.300000 0.000000
7.000000 0.350000 0.000000
6.625000 0.600000 0.000000
6.750000 0.600000 0.000000
6.875000 0.600000 0.000000
7.000000 0.450000 0.000000
7.000000 0.500000 0.000000
7.000000 0.550000 0.000000
6.625000 0.800000 0.000000
6.750000 0.800000 0.000000
6.875000 0.800000 0.000000
7.000000 0.650000 0.000000
7.000000 0.700000 0.000000
7.000000 0.750000 0.000000
6.625000 1.000000 0.000000
6.750000 1.000000 0.000000
6.875000 1.000000 0.000000
7.000000 0.850000 0.000000
7.000000 0.900000 0.000000
7.000000 0.950000 0.000000
6.625000 0.050000 0.000000
6.625000 0.100000 0.000000
6.625000 0.150000 0.000000
6.750000 0.050000 0.000000
6.750000 0.100000 0.000000
6.750000 0.150000 0.000000
6.875000 0.050000 0.000000
6.875000 0.100000 0.000000
6.875000 0.150000 0.000000
6.625000 0.250000 0.000000
6.625000 0.300000 0.000000
6.625000 0.350000 0.000000
6.750000 0.250000 0.000000
6.750000 0.300000 0.000000
6.750000 0.350000 0.000000
6.875000 0.250000 0.000000
6.875000 0.300000 0.000000
6.875000 0.350000 0.000000
6.625000 0.450000 0.000000
6.625000 0.500000 0.000000
6.625000 0.550000 0.000000
6.750000 0.450000 0.000000
6.750000 0.500000 0.000000
6.750000 0.550000 0.000000
6.875000 0.450000 0.000000
6.875000 0.500000 0.000000
6.875000 0.550000 0.000000
6.625000 0.650000 0.000000
6.625000 0.700000 0.000000
6.625000 0.750000 0.000000
6.750000 0.650000 0.000000
6.750000 0.700000 0.000000
6.750000 0.750000 0.000000
6.875000 0.650000 0.000000
6.875000 0.700000 0.000000
6.875000 0.750000 0.000000
6.625000 0.850000 0.000000
6.625000 0.900000 0.000000
6.625000 0.950000 0.000000
6.750000 0.850000 0.000000
6.750000 0.900000 0.000000
6.750000 0.950000 0.000000
6.875000 0.850000 0.000000
6.875000 0.900000 0.000000
6.875000 0.950000 0.000000
CELLS 80 400 
4 0 12 60 15
4 15 60 61 16
4 16 61 62 17
4 17 62 30  2
4 12 13 63 60
4 60 63 64 61
4 61 64 65 62
4 62 65 31 30
4 13 14 66 63
4 63 66 67 64
4 64 67 68 65
4 65 68 32 31
4 14  1 33 66
4 66 33 34 67
4 67 34 35 68
4 68 35  7 32
4 2 30 69 18
4 18 69 70 19
4 19 70 71 20
4 20 71 36  3
4 30 31 72 69
4 69 72 73 70
4 70 73 74 71
4 71 74 37 36
4 31 32 75 72
4 72 75 76 73
4 73 76 77 74
4 74 77 38 37
4 32  7 39 75
4 75 39 40 76
4 76 40 41 77
4 77 41  8 38
4 3 36 78 21
4 21 78 79 22
4 22 79 80 23
4 23 80 42  4
4 36 37 81 78
4 78 81 82 79
4 79 82 83 80
4 80 83 43 42
4 37 38 84 81
4 81 84 85 82
4 82 85 86 83
4 83 86 44 43
4 38  8 45 84
4 84 45 46 85
4 85 46 47 86
4 86 47  9 44
4 4 42 87 24
4 24 87 88 25
4 25 88 89 26
4 26 89 48  5
4 42 43 90 87
4 87 90 91 88
4 88 91 92 89
4 89 92 49 48
4 43 44 93 90
4 90 93 94 91
4 91 94 95 92
4 92 95 50 49
4 44  9 51 93
4 93 51 52 94
4 94 52 53 95
4 95 53 10 50
4 5 48 96 27
4 27 96 97 28
4 28 97 98 29
4 29 98 54  6
4 48 49 99 96
4 96  99 100  97
4 97 100 101  98
4 98 101  55  54
4 49  50 102  99
4 99 102 103 100
4 100 103 104 101
4 101 104  56  55
4 50  10  57 102
4 102  57  58 103
4 103  58  59 104
4 104  59  11  56
CELL_TYPES 80
9 9 9 9 9 9 9 9 9 9 9 9 9 9 9 9 9 9 9 9 9 9 9 9 9 9 9 9 9 9 9 9 9 9 9 9 9 9 9 9 9 9 9 9 9 9 9 9 9 9 9 9 9 9 9 9 9 9 9 9 9 9 9 9 9 9 9 9 9 9 9 9 9 9 9 9 9 9 9 9 
POINT_DATA 105
VECTORS displacement_ITER1 FLOAT
 -2.007699e-06  -1.420070e-05  0 
 -9.884908e-05  -8.401999e-05  0 
 -4.741861e-07  -1.631342e-05  0 
 7.872671e-06  -1.693060e-05  0 
 8.083397e-06  1.685529e-05  0 
 -3.504880e-07  1.622995e-05  0 
 -1.993541e-06  1.435812e-05  0 
 -2.238808e-06  -5.941890e-05  0 
 1.147771e-05  -4.596937e-05  0 
 1.170875e-05  4.610480e-05  0 
 -2.110888e-06  5.956915e-05  0 
 -9.898283e-05  8.385412e-05  0 
 -1.819256e-05  -1.151895e-05  0 
 -3.206113e-05  -2.535762e-05  0 
 -5.802509e-05  -4.216460e-05  0 
 -8.454540e-06  -6.001069e-06  0 
 1.376000e-06  3.850883e-06  0 
 1.375383e-05  -4.925519e-06  0 
 1.573873e-06  -1.602561e-05  0 
 3.920760e-06  -1.593785e-05  0 
 6.121446e-06  -1.626098e-05  0 
 -8.857063e-06  -1.180245e-05  0 
 -1.219846e-05  2.305357e-07  0 
 -8.561855e-06  1.208860e-05  0 
 6.308461e-06  1.618648e-05  0 
 4.085488e-06  1.586066e-05  0 
 1.717603e-06  1.594567e-05  0 
 1.375784e-05  4.631747e-06  0 
 1.135448e-06  -4.101066e-06  0 
 -8.712108e-06  6.031693e-06  0 
 -1.761909e-06  -2.170256e-05  0 
 -3.989354e-06  -3.036215e-05  0 
 -5.792696e-06  -4.243129e-05  0 
 -7.491224e-05  -7.962882e-05  0 
 -6.119864e-05  -7.553553e-05  0 
 -4.469749e-05  -7.985067e-05  0 
 9.531990e-06  -2.127968e-05  0 
 1.235621e-05  -3.052781e-05  0 
 1.238779e-05  -4.219037e-05  0 
 2.188755e-06  -5.729970e-05  0 
 6.190865e-06  -5.439975e-05  0 
 9.296499e-06  -5.075218e-05  0 
 9.733623e-06  2.126202e-05  0 
 1.255307e-05  3.055374e-05  0 
 1.259938e-05  4.226086e-05  0 
 -3.330718e-05  5.464658e-07  0 
 -5.285122e-05  -2.512907e-07  0 
 -3.294260e-05  -8.999228e-07  0 
 -1.643356e-06  2.167568e-05  0 
 -3.871416e-06  3.038695e-05  0 
 -5.675839e-06  4.251572e-05  0 
 9.501386e-06  5.088677e-05  0 
 6.358424e-06  5.453781e-05  0 
 2.341364e-06  5.745055e-05  0 
 -1.830226e-05  1.136474e-05  0 
 -3.224004e-05  2.537939e-05  0 
 -5.827205e-05  4.245733e-05  0 
 -4.478173e-05  8.043871e-05  0 
 -6.170427e-05  7.606543e-05  0 
 -7.539675e-05  7.975472e-05  0 
 -1.361428e-05  -1.423396e-05  0 
 -9.794485e-06  -1.839191e-05  0 
 -6.662428e-06  -1.847667e-05  0 
 -2.561434e-05  -2.477722e-05  0 
 -1.839128e-05  -2.467991e-05  0 
 -1.149382e-05  -2.789668e-05  0 
 -4.715656e-05  -4.331619e-05  0 
 -3.296212e-05  -4.349486e-05  0 
 -1.645121e-05  -3.915226e-05  0 
 1.006899e-06  -2.192637e-05  0 
 3.913244e-06  -2.195196e-05  0 
 6.866247e-06  -2.172758e-05  0 
 5.679363e-08  -3.046952e-05  0 
 4.058034e-06  -3.070804e-05  0 
 7.984712e-06  -3.080795e-05  0 
 2.619906e-07  -4.255293e-05  0 
 5.141106e-06  -4.224688e-05  0 
 9.212290e-06  -4.192628e-05  0 
 1.081285e-05  -8.818916e-06  0 
 9.823470e-06  -1.331781e-08  0 
 1.092081e-05  8.809733e-06  0 
 1.480901e-05  -1.494884e-05  0 
 1.712562e-05  1.461143e-08  0 
 1.490555e-05  1.497545e-05  0 
 9.622904e-06  -2.866385e-05  0 
 6.316556e-06  3.887891e-08  0 
 9.734186e-06  2.873375e-05  0 
 7.048371e-06  2.170626e-05  0 
 4.075523e-06  2.192794e-05  0 
 1.147988e-06  2.190018e-05  0 
 8.166790e-06  3.083391e-05  0 
 4.220198e-06  3.073355e-05  0 
 1.976126e-07  3.049485e-05  0 
 9.401738e-06  4.200097e-05  0 
 5.310946e-06  4.232634e-05  0 
 4.054615e-07  4.263473e-05  0 
 -6.629718e-06  1.847287e-05  0 
 -9.836461e-06  1.835977e-05  0 
 -1.370310e-05  1.411775e-05  0 
 -1.143931e-05  2.792063e-05  0 
 -1.838916e-05  2.470072e-05  0 
 -2.568442e-05  2.480029e-05  0 
 -1.645236e-05  3.919305e-05  0 
 -3.307420e-05  4.359509e-05  0 
 -4.736473e-05  4.353675e-05  0 
VECTORS displacement_ITER2 FLOAT
 -6.252586e-06  -5.486668e-06  0 
 -2.987359e-05  -2.463459e-05  0 
 -8.389645e-06  -1.433734e-05  0 
 -2.031197e-06  -1.360858e-05  0 
 -2.369374e-06  1.367432e-05  0 
 -8.629510e-06  1.442857e-05  0 
 -6.318862e-06  5.138425e-06  0 
 1.157149e-06  -3.479783e-05  0 
 -1.450339e-05  -1.573961e-05  0 
 -1.484766e-05  1.560454e-05  0 
 9.109506e-07  3.463730e-05  0 
 -2.986581e-05  2.503091e-05  0 
 -8.960703e-06  -2.037356e-05  0 
 -9.689890e-06  -1.863621e-05  0 
 -1.129099e-05  -1.788506e-05  0 
 4.180597e-06  -1.449882e-05  0 
 -6.744947e-06  -2.300793e-05  0 
 -1.717055e-05  -1.125168e-05  0 
 -6.776484e-06  -1.430356e-05  0 
 -4.908463e-06  -1.419675e-05  0 
 -3.187727e-06  -1.391619e-05  0 
 1.394048e-05  1.058015e-05  0 
 2.365876e-05  -3.977158e-07  0 
 1.344276e-05  -1.103132e-05  0 
 -3.499284e-06  1.398782e-05  0 
 -5.194329e-06  1.427391e-05  0 
 -7.039504e-06  1.438798e-05  0 
 -1.722884e-05  1.181731e-05  0 
 -6.317101e-06  2.348696e-05  0 
 4.678143e-06  1.445330e-05  0 
 -9.161437e-06  -1.958567e-05  0 
 -8.103168e-06  -2.481200e-05  0 
 -6.246073e-06  -2.843826e-05  0 
 -1.920497e-05  -2.718615e-05  0 
 -2.322363e-06  -2.486568e-05  0 
 1.670006e-07  -1.430100e-05  0 
 -2.940070e-07  -1.891634e-05  0 
 -7.806931e-07  -2.527277e-05  0 
 -5.888044e-06  -3.008936e-05  0 
 -1.099297e-06  -3.053092e-05  0 
 -2.735281e-06  -2.653390e-05  0 
 -6.274830e-06  -2.207869e-05  0 
 -6.142596e-07  1.892585e-05  0 
 -1.090347e-06  2.523995e-05  0 
 -6.213155e-06  3.001375e-05  0 
 -6.264536e-05  -2.856458e-05  0 
 -5.681063e-05  4.311028e-07  0 
 -6.321442e-05  2.898245e-05  0 
 -9.392296e-06  1.960956e-05  0 
 -8.333580e-06  2.477954e-05  0 
 -6.479222e-06  2.834631e-05  0 
 -6.594796e-06  2.193895e-05  0 
 -3.024862e-06  2.639123e-05  0 
 -1.367812e-06  3.037881e-05  0 
 -8.795935e-06  2.066298e-05  0 
 -9.484070e-06  1.861346e-05  0 
 -1.102210e-05  1.746711e-05  0 
 5.219512e-08  1.346684e-05  0 
 -1.708592e-06  2.410689e-05  0 
 -1.844988e-05  2.718711e-05  0 
 -9.332578e-06  -1.755862e-05  0 
 -8.909939e-06  -1.498934e-05  0 
 -8.229619e-06  -1.908677e-05  0 
 -1.024472e-05  -1.974975e-05  0 
 -1.003123e-05  -2.138400e-05  0 
 -9.287527e-06  -2.174464e-05  0 
 -1.007360e-05  -1.758132e-05  0 
 -9.040752e-06  -2.012560e-05  0 
 -7.558367e-06  -2.710766e-05  0 
 -6.972287e-06  -1.956837e-05  0 
 -4.955177e-06  -1.940162e-05  0 
 -2.763163e-06  -1.912613e-05  0 
 -6.612990e-06  -2.494155e-05  0 
 -4.930462e-06  -2.536898e-05  0 
 -3.168864e-06  -2.560933e-05  0 
 -4.167009e-06  -2.898430e-05  0 
 -3.944541e-06  -2.885062e-05  0 
 -4.692181e-06  -2.902757e-05  0 
 3.452695e-06  -1.374086e-05  0 
 5.579973e-06  1.964115e-08  0 
 3.283680e-06  1.373417e-05  0 
 -8.893582e-07  -1.286433e-05  0 
 -9.241101e-07  -1.560904e-08  0 
 -1.038128e-06  1.282876e-05  0 
 -7.188455e-06  -1.368576e-05  0 
 -1.122130e-05  -6.185753e-08  0 
 -7.358297e-06  1.363134e-05  0 
 -3.064348e-06  1.913998e-05  0 
 -5.235502e-06  1.942030e-05  0 
 -7.229165e-06  1.959063e-05  0 
 -3.465388e-06  2.557640e-05  0 
 -5.207891e-06  2.533599e-05  0 
 -6.867908e-06  2.490868e-05  0 
 -4.996459e-06  2.894744e-05  0 
 -4.228502e-06  2.876497e-05  0 
 -4.427002e-06  2.889467e-05  0 
 -8.313523e-06  1.906339e-05  0 
 -8.865679e-06  1.502774e-05  0 
 -9.212462e-06  1.775825e-05  0 
 -9.427111e-06  2.171637e-05  0 
 -1.010051e-05  2.135354e-05  0 
 -1.020303e-05  1.972561e-05  0 
 -7.602908e-06  2.708922e-05  0 
 -8.937469e-06  2.004800e-05  0 
 -9.873838e-06  1.727927e-05  0 
VECTORS displacement_ITER3 FLOAT
 -6.667142e-06  -1.998426e-05  0 
 -3.523286e-05  -1.086584e-05  0 
 -2.116102e-06  -1.801260e-05  0 
 9.406235e-08  -1.666203e-05  0 
 5.396350e-07  1.657609e-05  0 
 -1.768779e-06  1.789662e-05  0 
 -6.494161e-06  2.053387e-05  0 
 1.286147e-05  -1.976987e-05  0 
 -1.966727e-05  -1.664993e-06  0 
 -1.921208e-05  1.777628e-06  0 
 1.321487e-05  1.991392e-05  0 
 -3.508990e-05  1.023899e-05  0 
 -8.597480e-06  -1.319319e-05  0 
 -1.679021e-06  -1.676710e-05  0 
 -3.391728e-06  -8.649754e-06  0 
 -1.575575e-05  -1.107525e-05  0 
 -6.589201e-06  -3.177233e-06  0 
 -8.787745e-07  -1.225317e-05  0 
 -1.665316e-06  -1.802482e-05  0 
 -9.665466e-07  -1.783945e-05  0 
 -2.732144e-07  -1.747658e-05  0 
 9.695877e-07  -1.868430e-05  0 
 -1.044788e-05  5.610224e-07  0 
 1.618352e-06  1.931955e-05  0 
 1.425960e-07  1.738315e-05  0 
 -5.756780e-07  1.774056e-05  0 
 -1.296140e-06  1.791854e-05  0 
 -7.264510e-07  1.144388e-05  0 
 -7.166265e-06  2.450333e-06  0 
 -1.645715e-05  1.114026e-05  0 
 -2.978296e-06  -2.049726e-05  0 
 -1.293863e-06  -2.269450e-05  0 
 2.756971e-06  -2.141778e-05  0 
 -2.176238e-05  -1.160619e-05  0 
 -6.007703e-06  -1.810418e-05  0 
 1.751850e-05  -2.206790e-05  0 
 1.141851e-06  -2.007388e-05  0 
 -3.717454e-07  -2.313498e-05  0 
 -7.027807e-06  -2.318818e-05  0 
 6.995953e-06  -1.518549e-05  0 
 1.027001e-06  -1.154020e-05  0 
 -6.624977e-06  -6.889251e-06  0 
 1.565018e-06  2.004674e-05  0 
 3.724198e-08  2.314647e-05  0 
 -6.600108e-06  2.323765e-05  0 
 -4.581328e-05  -9.641203e-06  0 
 -6.297429e-05  -6.084830e-07  0 
 -4.510341e-05  8.989817e-06  0 
 -2.645063e-06  2.044963e-05  0 
 -9.632404e-07  2.270549e-05  0 
 3.091555e-06  2.149124e-05  0 
 -6.202252e-06  7.008111e-06  0 
 1.423272e-06  1.166379e-05  0 
 7.367805e-06  1.531721e-05  0 
 -8.796333e-06  1.274696e-05  0 
 -1.922681e-06  1.677007e-05  0 
 -3.699881e-06  9.209601e-06  0 
 1.772526e-05  2.307814e-05  0 
 -6.749331e-06  1.909939e-05  0 
 -2.271779e-05  1.158282e-05  0 
 -6.267466e-06  -1.609684e-05  0 
 -5.446385e-06  -1.927572e-05  0 
 -3.857175e-06  -1.891854e-05  0 
 -2.536535e-06  -1.643304e-05  0 
 -3.127003e-06  -1.730311e-05  0 
 -2.627259e-06  -1.963055e-05  0 
 -5.186907e-06  -9.509932e-06  0 
 -3.060876e-06  -1.082382e-05  0 
 -1.757853e-06  -1.530697e-05  0 
 -1.949852e-06  -2.053880e-05  0 
 -1.132991e-06  -2.042889e-05  0 
 -1.726677e-07  -2.018895e-05  0 
 -1.261593e-06  -2.283494e-05  0 
 -1.220141e-06  -2.327729e-05  0 
 -1.083232e-06  -2.346750e-05  0 
 2.150995e-06  -2.204100e-05  0 
 -2.357493e-07  -2.191276e-05  0 
 -3.650462e-06  -2.228105e-05  0 
 -4.240635e-07  -7.772775e-06  0 
 7.594704e-07  -3.158739e-08  0 
 -1.949982e-07  7.771766e-06  0 
 -8.315510e-07  -1.203242e-05  0 
 -1.597476e-06  5.208461e-09  0 
 -6.360110e-07  1.204595e-05  0 
 -1.296194e-05  -1.189534e-05  0 
 -1.262575e-05  5.005301e-08  0 
 -1.273111e-05  1.191581e-05  0 
 2.319930e-07  2.015575e-05  0 
 -7.494177e-07  2.038877e-05  0 
 -1.589786e-06  2.049348e-05  0 
 -6.850086e-07  2.347890e-05  0 
 -8.399146e-07  2.328879e-05  0 
 -9.048319e-07  2.284630e-05  0 
 -3.242024e-06  2.233739e-05  0 
 1.509669e-07  2.197672e-05  0 
 2.514168e-06  2.211122e-05  0 
 -3.725001e-06  1.893803e-05  0 
 -5.482584e-06  1.921653e-05  0 
 -6.403443e-06  1.579321e-05  0 
 -2.410744e-06  1.963896e-05  0 
 -2.997773e-06  1.731682e-05  0 
 -2.553478e-06  1.643980e-05  0 
 -1.658626e-06  1.530046e-05  0 
 -3.149717e-06  1.088920e-05  0 
 -5.395153e-06  9.889733e-06  0 
VECTORS displacement_ITER4 FLOAT
 -1.051491e-05  -9.549307e-06  0 
 -2.577416e-05  -1.246276e-05  0 
 -7.851039e-06  -1.151753e-05  0 
 2.134489e-06  -8.816593e-06  0 
 1.606868e-06  8.887131e-06  0 
 -8.264904e-06  1.162546e-05  0 
 -1.070588e-05  8.853107e-06  0 
 1.260767e-05  -2.261017e-05  0 
 -2.328149e-05  -6.970383e-06  0 
 -2.381518e-05  6.820809e-06  0 
 1.218873e-05  2.242304e-05  0 
 -2.591216e-05  1.320083e-05  0 
 -6.778695e-06  -2.109055e-05  0 
 -2.473347e-07  -1.783271e-05  0 
 3.943125e-06  -5.409982e-06  0 
 -3.313011e-06  -1.543461e-05  0 
 -7.489228e-06  -2.086672e-05  0 
 -1.122902e-05  -1.797792e-05  0 
 -5.567884e-06  -1.143624e-05  0 
 -3.095567e-06  -1.103732e-05  0 
 -5.714271e-07  -1.028393e-05  0 
 1.283690e-05  6.430240e-07  0 
 2.188820e-05  -6.519556e-07  0 
 1.208351e-05  -1.412063e-06  0 
 -1.063934e-06  1.036347e-05  0 
 -3.559988e-06  1.112448e-05  0 
 -6.006612e-06  1.153187e-05  0 
 -1.143942e-05  1.891222e-05  0 
 -6.807975e-06  2.175245e-05  0 
 -2.444254e-06  1.534420e-05  0 
 -8.248619e-06  -1.860942e-05  0 
 -5.432144e-06  -2.443433e-05  0 
 6.078145e-08  -2.539580e-05  0 
 -3.609160e-06  -9.623166e-06  0 
 1.000390e-05  -6.041175e-06  0 
 1.503824e-05  -1.552899e-05  0 
 2.786512e-06  -1.821031e-05  0 
 -5.294965e-09  -2.483648e-05  0 
 -7.888235e-06  -2.680959e-05  0 
 5.293656e-06  -1.870016e-05  0 
 -1.318185e-06  -1.516321e-05  0 
 -9.519418e-06  -1.107222e-05  0 
 2.287440e-06  1.821488e-05  0 
 -4.874527e-07  2.479821e-05  0 
 -8.390955e-06  2.672861e-05  0 
 -3.543540e-05  -7.929674e-06  0 
 -4.477259e-05  6.508549e-07  0 
 -3.623293e-05  8.658472e-06  0 
 -8.646074e-06  1.863821e-05  0 
 -5.826571e-06  2.439644e-05  0 
 -3.384077e-07  2.528882e-05  0 
 -1.001715e-05  1.091427e-05  0 
 -1.787943e-06  1.499870e-05  0 
 4.851471e-06  1.852698e-05  0 
 -6.535784e-06  2.160153e-05  0 
 2.321636e-08  1.780534e-05  0 
 4.276102e-06  4.755387e-06  0 
 1.479240e-05  1.438546e-05  0 
 1.081469e-05  4.882093e-06  0 
 -2.517816e-06  9.617555e-06  0 
 -6.687277e-06  -1.940442e-05  0 
 -6.799489e-06  -1.779046e-05  0 
 -7.687418e-06  -1.819146e-05  0 
 -3.196667e-06  -1.816965e-05  0 
 -5.062222e-06  -1.898259e-05  0 
 -5.599307e-06  -2.104341e-05  0 
 3.977896e-08  -7.753305e-06  0 
 -9.477647e-07  -1.359392e-05  0 
 -9.391651e-07  -1.891796e-05  0 
 -5.559012e-06  -1.853813e-05  0 
 -3.098825e-06  -1.836635e-05  0 
 -4.183787e-07  -1.816278e-05  0 
 -4.278600e-06  -2.460975e-05  0 
 -3.082210e-06  -2.503003e-05  0 
 -1.766384e-06  -2.517127e-05  0 
 -1.642807e-07  -2.592728e-05  0 
 -2.285997e-06  -2.583936e-05  0 
 -5.324358e-06  -2.618548e-05  0 
 5.628946e-06  -1.109728e-05  0 
 6.049045e-06  2.177724e-08  0 
 5.360352e-06  1.107408e-05  0 
 -2.889495e-07  -1.253037e-05  0 
 -9.180250e-07  -1.899218e-08  0 
 -5.210068e-07  1.249094e-05  0 
 -1.287035e-05  -1.288563e-05  0 
 -1.322329e-05  -6.386269e-08  0 
 -1.313961e-05  1.283300e-05  0 
 -8.972096e-07  1.817444e-05  0 
 -3.553695e-06  1.838597e-05  0 
 -5.987272e-06  1.856412e-05  0 
 -2.236601e-06  2.513305e-05  0 
 -3.532468e-06  2.499175e-05  0 
 -4.702507e-06  2.457155e-05  0 
 -5.806165e-06  2.609696e-05  0 
 -2.743340e-06  2.574253e-05  0 
 -5.951731e-07  2.582364e-05  0 
 -7.845177e-06  1.814358e-05  0 
 -6.756756e-06  1.782423e-05  0 
 -6.524333e-06  1.973815e-05  0 
 -5.858083e-06  2.100996e-05  0 
 -5.220161e-06  1.894562e-05  0 
 -3.187977e-06  1.813750e-05  0 
 -1.070811e-06  1.889938e-05  0 
 -8.578273e-07  1.350507e-05  0 
 2.664893e-07  7.314307e-06  0 
VECTORS displacement_ITER5 FLOAT
 -1.008723e-05  -2.233841e-05  0 
 -5.433557e-06  -6.231825e-06  0 
 -2.385619e-06  -1.983947e-05  0 
 4.187516e-06  -1.650147e-05  0 
 5.281790e-06  1.635671e-05  0 
 -1.506467e-06  1.961855e-05  0 
 -9.687335e-06  2.380328e-05  0 
 2.369053e-05  -1.554613e-05  0 
 -2.722136e-05  -2.273964e-06  0 
 -2.611766e-05  2.540725e-06  0 
 2.457666e-05  1.589050e-05  0 
 -5.117086e-06  4.708035e-06  0 
 -8.363687e-06  -1.929741e-05  0 
 3.127031e-06  -2.291766e-05  0 
 1.046455e-05  -1.615127e-05  0 
 -1.634740e-05  -1.536549e-05  0 
 -9.208288e-06  -8.010229e-06  0 
 1.047560e-06  -1.172521e-05  0 
 -1.206482e-06  -1.982622e-05  0 
 3.423891e-07  -1.933469e-05  0 
 2.054854e-06  -1.823697e-05  0 
 -8.513332e-07  -1.520789e-05  0 
 -5.899527e-06  1.349785e-06  0 
 7.089629e-07  1.681249e-05  0 
 3.081955e-06  1.807485e-05  0 
 1.315756e-06  1.915679e-05  0 
 -2.815733e-07  1.963069e-05  0 
 1.516987e-06  9.745898e-06  0 
 -1.063583e-05  6.096143e-06  0 
 -1.820629e-05  1.553097e-05  0 
 -3.138379e-06  -2.467058e-05  0 
 4.103411e-08  -2.862479e-05  0 
 7.584308e-06  -2.629953e-05  0 
 1.010657e-06  -1.415899e-05  0 
 1.976880e-05  -2.524354e-05  0 
 3.119644e-05  -2.286018e-05  0 
 4.377572e-06  -2.435301e-05  0 
 8.809253e-07  -2.876094e-05  0 
 -8.591295e-06  -2.728122e-05  0 
 1.160274e-05  -1.176812e-05  0 
 1.807370e-06  -8.696812e-06  0 
 -9.782765e-06  -5.439891e-06  0 
 5.413752e-06  2.433451e-05  0 
 1.881643e-06  2.882065e-05  0 
 -7.549590e-06  2.741922e-05  0 
 -4.724399e-05  6.464778e-07  0 
 -4.776559e-05  -1.344268e-06  0 
 -4.562914e-05  -2.191021e-06  0 
 -2.295467e-06  2.460123e-05  0 
 8.765167e-07  2.868397e-05  0 
 8.429939e-06  2.649073e-05  0 
 -8.747431e-06  5.724755e-06  0 
 2.788127e-06  8.996076e-06  0 
 1.253387e-05  1.208527e-05  0 
 -8.873108e-06  1.820189e-05  0 
 2.592541e-06  2.295865e-05  0 
 9.815236e-06  1.746872e-05  0 
 3.172368e-05  2.515725e-05  0 
 1.815384e-05  2.756805e-05  0 
 -1.196959e-06  1.415176e-05  0 
 -6.068394e-06  -2.148119e-05  0 
 -4.897801e-06  -2.430514e-05  0 
 -4.208002e-06  -2.449710e-05  0 
 2.328796e-06  -2.303151e-05  0 
 1.113166e-06  -2.377876e-05  0 
 9.728181e-08  -2.557497e-05  0 
 7.548455e-06  -1.520871e-05  0 
 6.908863e-06  -1.574176e-05  0 
 7.678143e-06  -2.089957e-05  0 
 -1.282253e-06  -2.467709e-05  0 
 2.582707e-07  -2.454973e-05  0 
 2.039040e-06  -2.437075e-05  0 
 1.937335e-07  -2.879493e-05  0 
 2.332064e-07  -2.916304e-05  0 
 3.172181e-07  -2.917607e-05  0 
 5.295560e-06  -2.663891e-05  0 
 8.009606e-07  -2.641076e-05  0 
 -4.350288e-06  -2.674920e-05  0 
 4.189765e-06  -1.014284e-05  0 
 4.262669e-06  -4.846689e-08  0 
 4.747100e-06  1.018117e-05  0 
 -1.136326e-07  -1.491177e-05  0 
 1.490319e-07  2.991984e-08  0 
 3.685576e-07  1.497305e-05  0 
 -1.471525e-05  -1.400797e-05  0 
 -1.816334e-05  1.121353e-07  0 
 -1.415535e-05  1.408788e-05  0 
 3.037300e-06  2.433733e-05  0 
 1.211431e-06  2.449990e-05  0 
 -3.797742e-07  2.461391e-05  0 
 1.297295e-06  2.923576e-05  0 
 1.176017e-06  2.922275e-05  0 
 1.086318e-06  2.885454e-05  0 
 -3.347405e-06  2.690245e-05  0 
 1.758101e-06  2.658109e-05  0 
 6.201782e-06  2.682319e-05  0 
 -3.867525e-06  2.458794e-05  0 
 -4.979585e-06  2.423082e-05  0 
 -6.402220e-06  2.076655e-05  0 
 6.531438e-07  2.562698e-05  0 
 1.462674e-06  2.383579e-05  0 
 2.333718e-06  2.308115e-05  0 
 7.978762e-06  2.091266e-05  0 
 6.754603e-06  1.590236e-05  0 
 7.119394e-06  1.608299e-05  0 
VECTORS displacement_ITER6 FLOAT
 -1.165088e-05  -1.363558e-05  0 
 -6.649400e-06  -1.815119e-05  0 
 -8.528898e-06  -1.160642e-05  0 
 5.978364e-06  -6.992721e-06  0 
 5.113916e-06  7.106862e-06  0 
 -9.231130e-06  1.178005e-05  0 
 -1.196692e-05  1.245962e-05  0 
 2.153186e-05  -1.993656e-05  0 
 -2.899050e-05  -8.531945e-06  0 
 -2.985957e-05  8.340598e-06  0 
 2.082632e-05  1.968559e-05  0 
 -6.926271e-06  1.932217e-05  0 
 -8.960867e-06  -2.228130e-05  0 
 -4.919600e-07  -2.256220e-05  0 
 8.623391e-06  -1.418949e-05  0 
 -7.170741e-06  -1.591725e-05  0 
 -7.827616e-06  -1.916389e-05  0 
 -1.050631e-05  -1.561858e-05  0 
 -5.454299e-06  -1.142951e-05  0 
 -2.099787e-06  -1.072225e-05  0 
 1.597617e-06  -9.287046e-06  0 
 1.200050e-05  -2.612830e-07  0 
 1.473679e-05  -1.064799e-06  0 
 1.077126e-05  -1.000178e-06  0 
 7.840430e-07  9.414722e-06  0 
 -2.872219e-06  1.086165e-05  0 
 -6.190585e-06  1.158311e-05  0 
 -1.090092e-05  1.721186e-05  0 
 -6.690857e-06  2.071873e-05  0 
 -5.666504e-06  1.579741e-05  0 
 -8.908217e-06  -2.108333e-05  0 
 -4.904530e-06  -2.908226e-05  0 
 3.624104e-06  -2.980309e-05  0 
 9.845266e-06  -1.648252e-05  0 
 1.880801e-05  -1.758942e-05  0 
 2.206433e-05  -2.090248e-05  0 
 5.949476e-06  -2.085970e-05  0 
 1.496981e-06  -2.923283e-05  0 
 -8.758623e-06  -3.057228e-05  0 
 9.121189e-06  -1.636705e-05  0 
 -6.955639e-07  -1.376262e-05  0 
 -1.190066e-05  -1.083876e-05  0 
 5.131430e-06  2.087863e-05  0 
 7.076703e-07  2.919488e-05  0 
 -9.579240e-06  3.047745e-05  0 
 -3.913039e-05  -6.157270e-06  0 
 -3.738639e-05  1.053948e-06  0 
 -4.038087e-05  7.373918e-06  0 
 -9.581489e-06  2.114258e-05  0 
 -5.571378e-06  2.904449e-05  0 
 2.949464e-06  2.966676e-05  0 
 -1.271796e-05  1.063347e-05  0 
 -1.471116e-06  1.354611e-05  0 
 8.381641e-06  1.613663e-05  0 
 -8.553121e-06  2.316456e-05  0 
 -8.768629e-08  2.253306e-05  0 
 9.098374e-06  1.318236e-05  0 
 2.164296e-05  1.914098e-05  0 
 2.003359e-05  1.582401e-05  0 
 1.151231e-05  1.650532e-05  0 
 -8.079213e-06  -2.164150e-05  0 
 -8.175731e-06  -2.054488e-05  0 
 -8.507143e-06  -2.092552e-05  0 
 -2.065742e-06  -2.264018e-05  0 
 -3.446694e-06  -2.360740e-05  0 
 -4.495906e-06  -2.575679e-05  0 
 5.377978e-06  -1.602800e-05  0 
 4.960432e-06  -1.950024e-05  0 
 5.030334e-06  -2.371991e-05  0 
 -5.303544e-06  -2.101795e-05  0 
 -1.989714e-06  -2.084835e-05  0 
 1.612261e-06  -2.071129e-05  0 
 -3.357343e-06  -2.926788e-05  0 
 -1.902466e-06  -2.964966e-05  0 
 -3.834166e-07  -2.964317e-05  0 
 2.214466e-06  -3.017966e-05  0 
 -1.431092e-06  -2.991784e-05  0 
 -5.690700e-06  -3.025110e-05  0 
 8.535161e-06  -1.130130e-05  0 
 9.376278e-06  4.085796e-08  0 
 8.094854e-06  1.127515e-05  0 
 9.839284e-07  -1.502733e-05  0 
 6.282512e-07  -1.909575e-08  0 
 6.037351e-07  1.498867e-05  0 
 -1.371555e-05  -1.412850e-05  0 
 -1.647260e-05  -8.004387e-08  0 
 -1.415796e-05  1.407967e-05  0 
 8.223960e-07  2.074191e-05  0 
 -2.746051e-06  2.089199e-05  0 
 -6.021835e-06  2.107215e-05  0 
 -1.158393e-06  2.960522e-05  0 
 -2.649966e-06  2.961170e-05  0 
 -4.067299e-06  2.922994e-05  0 
 -6.482748e-06  3.014440e-05  0 
 -2.189321e-06  2.979777e-05  0 
 1.494517e-06  3.004873e-05  0 
 -8.779798e-06  2.085601e-05  0 
 -8.112724e-06  2.060311e-05  0 
 -7.816174e-06  2.221507e-05  0 
 -4.944765e-06  2.572225e-05  0 
 -3.734612e-06  2.357067e-05  0 
 -2.083642e-06  2.260717e-05  0 
 4.776214e-06  2.372051e-05  0 
 5.056758e-06  1.938033e-05  0 
 5.685343e-06  1.535814e-05  0 
VECTORS displacement_ITER7 FLOAT
 -1.090232e-05  -1.438203e-05  0 
 -9.581143e-06  -1.918487e-05  0 
 -8.042169e-06  -1.265550e-05  0 
 6.037663e-06  -7.266834e-06  0 
 7.017143e-06  7.135447e-06  0 
 -7.231829e-06  1.245620e-05  0 
 -1.054272e-05  1.573114e-05  0 
 2.446215e-05  -1.728728e-05  0 
 -3.098494e-05  -6.851000e-06  0 
 -3.000451e-05  7.028961e-06  0 
 2.527406e-05  1.753292e-05  0 
 -9.242476e-06  1.785617e-05  0 
 -9.862107e-06  -2.032087e-05  0 
 -1.241228e-06  -2.190621e-05  0 
 5.700988e-06  -1.593466e-05  0 
 -9.477298e-06  -1.424299e-05  0 
 -7.507316e-06  -1.339228e-05  0 
 -6.789252e-06  -1.394833e-05  0 
 -5.220087e-06  -1.238146e-05  0 
 -2.022920e-06  -1.150879e-05  0 
 1.606113e-06  -9.882595e-06  0 
 7.186685e-06  -3.193305e-06  0 
 7.062767e-06  1.203902e-06  0 
 8.581866e-06  4.612467e-06  0 
 2.531834e-06  9.735574e-06  0 
 -1.140347e-06  1.134876e-05  0 
 -4.375006e-06  1.220515e-05  0 
 -6.311025e-06  1.210849e-05  0 
 -8.805007e-06  1.157544e-05  0 
 -1.121886e-05  1.436049e-05  0 
 -8.552082e-06  -2.161483e-05  0 
 -4.430165e-06  -2.949061e-05  0 
 4.902540e-06  -2.958328e-05  0 
 3.485986e-06  -2.017507e-05  0 
 1.498747e-05  -2.146072e-05  0 
 2.359390e-05  -2.178164e-05  0 
 5.955709e-06  -2.149765e-05  0 
 1.218015e-06  -2.965955e-05  0 
 -9.661382e-06  -3.021754e-05  0 
 1.045952e-05  -1.374740e-05  0 
 -6.734443e-07  -1.138483e-05  0 
 -1.282143e-05  -8.685036e-06  0 
 6.882518e-06  2.146491e-05  0 
 2.111607e-06  2.968288e-05  0 
 -8.734013e-06  3.029669e-05  0 
 -4.274247e-05  -3.332357e-06  0 
 -4.905671e-05  -1.190500e-06  0 
 -4.133738e-05  1.950290e-06  0 
 -7.775499e-06  2.153634e-05  0 
 -3.661423e-06  2.951384e-05  0 
 5.679825e-06  2.970864e-05  0 
 -1.189504e-05  8.878487e-06  0 
 2.102314e-07  1.159153e-05  0 
 1.130589e-05  1.396995e-05  0 
 -1.032284e-05  1.929364e-05  0 
 -1.668802e-06  2.192567e-05  0 
 5.217601e-06  1.702079e-05  0 
 2.408676e-05  2.369713e-05  0 
 1.366062e-05  2.337275e-05  0 
 1.686441e-06  2.010684e-05  0 
 -8.461382e-06  -2.046258e-05  0 
 -8.195377e-06  -2.084916e-05  0 
 -8.403281e-06  -2.088906e-05  0 
 -2.278909e-06  -2.212332e-05  0 
 -3.357787e-06  -2.319728e-05  0 
 -4.194351e-06  -2.581115e-05  0 
 4.046577e-06  -1.665095e-05  0 
 4.855603e-06  -1.900796e-05  0 
 5.661010e-06  -2.304170e-05  0 
 -5.075476e-06  -2.159684e-05  0 
 -1.881207e-06  -2.145187e-05  0 
 1.634108e-06  -2.132038e-05  0 
 -3.006456e-06  -2.968839e-05  0 
 -1.751760e-06  -3.008969e-05  0 
 -4.439697e-07  -3.007657e-05  0 
 2.963783e-06  -2.993953e-05  0 
 -1.284254e-06  -2.961519e-05  0 
 -6.155135e-06  -2.994613e-05  0 
 8.072545e-06  -1.039616e-05  0 
 9.182201e-06  -5.282721e-08  0 
 8.570832e-06  1.041465e-05  0 
 1.150658e-06  -1.516815e-05  0 
 1.047302e-06  1.156741e-08  0 
 1.581178e-06  1.519169e-05  0 
 -1.578012e-05  -1.510963e-05  0 
 -1.707163e-05  7.687145e-08  0 
 -1.528169e-05  1.513713e-05  0 
 2.532373e-06  2.127453e-05  0 
 -1.017433e-06  2.139123e-05  0 
 -4.251265e-06  2.152422e-05  0 
 4.366808e-07  3.009987e-05  0 
 -8.987484e-07  3.011300e-05  0 
 -2.192445e-06  2.971169e-05  0 
 -5.256256e-06  3.003856e-05  0 
 -4.199126e-07  2.972243e-05  0 
 3.788632e-06  3.005891e-05  0 
 -8.084339e-06  2.095888e-05  0 
 -8.258209e-06  2.077814e-05  0 
 -8.752726e-06  1.979641e-05  0 
 -3.669262e-06  2.583266e-05  0 
 -3.011804e-06  2.321952e-05  0 
 -2.233748e-06  2.214386e-05  0 
 5.973308e-06  2.301534e-05  0 
 4.781130e-06  1.911729e-05  0 
 3.739393e-06  1.736783e-05  0 
VECTORS displacement_ITER8 FLOAT
 -9.628707e-06  -1.433781e-05  0 
 -9.886985e-06  -1.962868e-05  0 
 -7.518706e-06  -1.192318e-05  0 
 7.668831e-06  -6.001764e-06  0 
 6.189824e-06  6.201413e-06  0 
 -8.748370e-06  1.222505e-05  0 
 -1.018357e-05  1.228418e-05  0 
 2.629067e-05  -1.834867e-05  0 
 -3.052521e-05  -8.367997e-06  0 
 -3.200389e-05  8.115292e-06  0 
 2.506099e-05  1.799443e-05  0 
 -1.043476e-05  2.162502e-05  0 
 -1.082160e-05  -1.884952e-05  0 
 -2.389658e-06  -2.187588e-05  0 
 4.350277e-06  -1.743316e-05  0 
 -9.917727e-06  -1.335102e-05  0 
 -8.901115e-06  -1.118267e-05  0 
 -6.764363e-06  -1.070352e-05  0 
 -4.563399e-06  -1.158745e-05  0 
 -1.115088e-06  -1.062137e-05  0 
 2.803287e-06  -8.837258e-06  0 
 8.169046e-06  -4.422438e-06  0 
 7.188909e-06  -1.820422e-06  0 
 6.060901e-06  2.273127e-06  0 
 1.404422e-06  9.060279e-06  0 
 -2.450655e-06  1.086406e-05  0 
 -5.843610e-06  1.185442e-05  0 
 -7.499849e-06  1.349656e-05  0 
 -6.936380e-06  1.395384e-05  0 
 -7.272996e-06  1.317497e-05  0 
 -8.223225e-06  -2.145485e-05  0 
 -4.053021e-06  -3.017543e-05  0 