# vtk DataFile Version 3.1
this is an vtk file created by FEMAC
ASCII
DATASET UNSTRUCTURED_GRID
POINTS 105 FLOAT
1.000000 0.000000 0.000000
1.500000 0.000000 0.000000
1.000000 0.200000 0.000000
1.000000 0.400000 0.000000
1.000000 0.600000 0.000000
1.000000 0.800000 0.000000
1.000000 1.000000 0.000000
1.500000 0.200000 0.000000
1.500000 0.400000 0.000000
1.500000 0.600000 0.000000
1.500000 0.800000 0.000000
1.500000 1.000000 0.000000
1.125000 0.000000 0.000000
1.250000 0.000000 0.000000
1.375000 0.000000 0.000000
1.000000 0.050000 0.000000
1.000000 0.100000 0.000000
1.000000 0.150000 0.000000
1.000000 0.250000 0.000000
1.000000 0.300000 0.000000
1.000000 0.350000 0.000000
1.000000 0.450000 0.000000
1.000000 0.500000 0.000000
1.000000 0.550000 0.000000
1.000000 0.650000 0.000000
1.000000 0.700000 0.000000
1.000000 0.750000 0.000000
1.000000 0.850000 0.000000
1.000000 0.900000 0.000000
1.000000 0.950000 0.000000
1.125000 0.200000 0.000000
1.250000 0.200000 0.000000
1.375000 0.200000 0.000000
1.500000 0.050000 0.000000
1.500000 0.100000 0.000000
1.500000 0.150000 0.000000
1.125000 0.400000 0.000000
1.250000 0.400000 0.000000
1.375000 0.400000 0.000000
1.500000 0.250000 0.000000
1.500000 0.300000 0.000000
1.500000 0.350000 0.000000
1.125000 0.600000 0.000000
1.250000 0.600000 0.000000
1.375000 0.600000 0.000000
1.500000 0.450000 0.000000
1.500000 0.500000 0.000000
1.500000 0.550000 0.000000
1.125000 0.800000 0.000000
1.250000 0.800000 0.000000
1.375000 0.800000 0.000000
1.500000 0.650000 0.000000
1.500000 0.700000 0.000000
1.500000 0.750000 0.000000
1.125000 1.000000 0.000000
1.250000 1.000000 0.000000
1.375000 1.000000 0.000000
1.500000 0.850000 0.000000
1.500000 0.900000 0.000000
1.500000 0.950000 0.000000
1.125000 0.050000 0.000000
1.125000 0.100000 0.000000
1.125000 0.150000 0.000000
1.250000 0.050000 0.000000
1.250000 0.100000 0.000000
1.250000 0.150000 0.000000
1.375000 0.050000 0.000000
1.375000 0.100000 0.000000
1.375000 0.150000 0.000000
1.125000 0.250000 0.000000
1.125000 0.300000 0.000000
1.125000 0.350000 0.000000
1.250000 0.250000 0.000000
1.250000 0.300000 0.000000
1.250000 0.350000 0.000000
1.375000 0.250000 0.000000
1.375000 0.300000 0.000000
1.375000 0.350000 0.000000
1.125000 0.450000 0.000000
1.125000 0.500000 0.000000
1.125000 0.550000 0.000000
1.250000 0.450000 0.000000
1.250000 0.500000 0.000000
1.250000 0.550000 0.000000
1.375000 0.450000 0.000000
1.375000 0.500000 0.000000
1.375000 0.550000 0.000000
1.125000 0.650000 0.000000
1.125000 0.700000 0.000000
1.125000 0.750000 0.000000
1.250000 0.650000 0.000000
1.250000 0.700000 0.000000
1.250000 0.750000 0.000000
1.375000 0.650000 0.000000
1.375000 0.700000 0.000000
1.375000 0.750000 0.000000
1.125000 0.850000 0.000000
1.125000 0.900000 0.000000
1.125000 0.950000 0.000000
1.250000 0.850000 0.000000
1.250000 0.900000 0.000000
1.250000 0.950000 0.000000
1.375000 0.850000 0.000000
1.375000 0.900000 0.000000
1.375000 0.950000 0.000000
CELLS 80 400 
4 0 12 60 15
4 15 60 61 16
4 16 61 62 17
4 17 62 30  2
4 12 13 63 60
4 60 63 64 61
4 61 64 65 62
4 62 65 31 30
4 13 14 66 63
4 63 66 67 64
4 64 67 68 65
4 65 68 32 31
4 14  1 33 66
4 66 33 34 67
4 67 34 35 68
4 68 35  7 32
4 2 30 69 18
4 18 69 70 19
4 19 70 71 20
4 20 71 36  3
4 30 31 72 69
4 69 72 73 70
4 70 73 74 71
4 71 74 37 36
4 31 32 75 72
4 72 75 76 73
4 73 76 77 74
4 74 77 38 37
4 32  7 39 75
4 75 39 40 76
4 76 40 41 77
4 77 41  8 38
4 3 36 78 21
4 21 78 79 22
4 22 79 80 23
4 23 80 42  4
4 36 37 81 78
4 78 81 82 79
4 79 82 83 80
4 80 83 43 42
4 37 38 84 81
4 81 84 85 82
4 82 85 86 83
4 83 86 44 43
4 38  8 45 84
4 84 45 46 85
4 85 46 47 86
4 86 47  9 44
4 4 42 87 24
4 24 87 88 25
4 25 88 89 26
4 26 89 48  5
4 42 43 90 87
4 87 90 91 88
4 88 91 92 89
4 89 92 49 48
4 43 44 93 90
4 90 93 94 91
4 91 94 95 92
4 92 95 50 49
4 44  9 51 93
4 93 51 52 94
4 94 52 53 95
4 95 53 10 50
4 5 48 96 27
4 27 96 97 28
4 28 97 98 29
4 29 98 54  6
4 48 49 99 96
4 96  99 100  97
4 97 100 101  98
4 98 101  55  54
4 49  50 102  99
4 99 102 103 100
4 100 103 104 101
4 101 104  56  55
4 50  10  57 102
4 102  57  58 103
4 103  58  59 104
4 104  59  11  56
CELL_TYPES 80
9 9 9 9 9 9 9 9 9 9 9 9 9 9 9 9 9 9 9 9 9 9 9 9 9 9 9 9 9 9 9 9 9 9 9 9 9 9 9 9 9 9 9 9 9 9 9 9 9 9 9 9 9 9 9 9 9 9 9 9 9 9 9 9 9 9 9 9 9 9 9 9 9 9 9 9 9 9 9 9 
POINT_DATA 105
VECTORS displacement_ITER1 FLOAT
 3.191735e-12  3.098763e-13  0 
 3.444452e-12  6.513021e-12  0 
 6.807246e-13  3.547201e-13  0 
 -1.854842e-12  1.277934e-13  0 
 -1.892769e-12  4.187751e-13  0 
 6.098479e-13  1.774090e-13  0 
 3.044266e-12  2.237556e-13  0 
 1.108180e-12  6.377704e-12  0 
 -2.494676e-12  2.242885e-13  0 
 -2.515797e-12  4.709150e-13  0 
 1.030186e-12  -5.676212e-12  0 
 3.295042e-12  -5.806046e-12  0 
 3.246503e-12  1.848486e-12  0 
 3.329667e-12  3.411790e-12  0 
 3.396705e-12  4.986814e-12  0 
 2.575543e-12  3.077247e-13  0 
 1.956427e-12  3.068326e-13  0 
 1.329887e-12  3.193454e-13  0 
 -2.810871e-13  1.466453e-12  0 
 1.269992e-13  2.005988e-12  0 
 2.996959e-13  6.578700e-13  0 
 -1.946819e-12  1.978781e-13  0 
 -1.979611e-12  2.739412e-13  0 
 -1.965339e-12  3.496170e-13  0 
 1.781605e-13  -7.466893e-14  0 
 5.940048e-14  -1.340984e-12  0 
 -2.767747e-13  -8.749973e-13  0 
 1.239179e-12  2.133846e-13  0 
 1.846623e-12  2.263947e-13  0 
 2.446877e-12  2.258850e-13  0 
 7.627747e-13  1.842810e-12  0 
 8.001741e-13  3.366602e-12  0 
 9.048537e-13  4.977704e-12  0 
 2.786719e-12  6.555949e-12  0 
 2.216894e-12  6.600606e-12  0 
 1.693479e-12  6.537097e-12  0 
 -1.957634e-12  3.467861e-13  0 
 -2.113840e-12  3.728636e-13  0 
 -2.318968e-12  4.262335e-13  0 
 1.049313e-12  6.326388e-12  0 
 -1.358737e-12  6.022151e-12  0 
 -3.809280e-12  3.139105e-12  0 
 -1.992368e-12  2.472331e-13  0 
 -2.143163e-12  2.600060e-13  0 
 -2.345240e-12  2.424286e-13  0 
 -2.461873e-12  3.032715e-13  0 
 -2.450994e-12  3.478920e-13  0 
 -2.475443e-12  3.953459e-13  0 
 6.898914e-13  -1.261515e-12  0 
 7.241845e-13  -2.741758e-12  0 
 8.269786e-13  -4.310117e-12  0 
 -3.958855e-12  -2.341343e-12  0 
 -1.406422e-12  -5.356192e-12  0 
 1.059809e-12  -5.535432e-12  0 
 3.100163e-12  -1.268379e-12  0 
 3.184961e-12  -2.787233e-12  0 
 3.253448e-12  -4.321418e-12  0 
 1.598292e-12  -5.829615e-12  0 
 2.107070e-12  -5.889727e-12  0 
 2.662797e-12  -5.845047e-12  0 
 2.625161e-12  1.849641e-12  0 
 1.998613e-12  1.851544e-12  0 
 1.371731e-12  1.850527e-12  0 
 2.696911e-12  3.408623e-12  0 
 2.069510e-12  3.400561e-12  0 
 1.442955e-12  3.389082e-12  0 
 2.787219e-12  4.984720e-12  0 
 2.155913e-12  4.979579e-12  0 
 1.516231e-12  4.972448e-12  0 
 -4.751082e-14  1.367705e-12  0 
 -7.366599e-13  8.914042e-13  0 
 -1.453807e-12  8.445118e-13  0 
 -1.587224e-13  2.559368e-12  0 
 -9.676694e-13  1.888189e-12  0 
 -1.612049e-12  1.047189e-12  0 
 -1.784350e-13  3.772699e-12  0 
 -1.076986e-12  2.368853e-12  0 
 -1.695920e-12  1.558986e-12  0 
 -2.010472e-12  3.162573e-13  0 
 -2.036517e-12  2.965854e-13  0 
 -2.027701e-12  2.771084e-13  0 
 -2.137992e-12  3.554133e-13  0 
 -2.148803e-12  3.166547e-13  0 
 -2.152873e-12  2.779141e-13  0 
 -2.294152e-12  3.676792e-13  0 
 -2.292933e-12  3.338524e-13  0 
 -2.306716e-12  2.997368e-13  0 
 -1.497089e-12  -2.510564e-13  0 
 -7.911331e-13  -3.193352e-13  0 
 -1.135057e-13  -7.848196e-13  0 
 -1.651470e-12  -4.164422e-13  0 
 -1.018327e-12  -1.265365e-12  0 
 -2.239509e-13  -1.931748e-12  0 
 -1.720475e-12  -8.971231e-13  0 
 -1.132451e-12  -1.664568e-12  0 
 -2.526637e-13  -3.110007e-12  0 
 1.280218e-12  -1.269892e-12  0 
 1.888694e-12  -1.271172e-12  0 
 2.496996e-12  -1.269477e-12  0 
 1.349723e-12  -2.764212e-12  0 
 1.959129e-12  -2.776135e-12  0 
 2.569573e-12  -2.784134e-12  0 
 1.423113e-12  -4.305871e-12  0 
 2.045688e-12  -4.313255e-12  0 
 2.658972e-12  -4.319313e-12  0 
VECTORS displacement_ITER2 FLOAT
 1.095086e-12  1.942369e-12  0 
 1.019725e-12  5.430719e-12  0 
 4.933963e-14  1.990420e-12  0 
 1.826571e-12  1.518263e-13  0 
 1.914143e-12  -2.548617e-13  0 
 1.731238e-13  -2.100825e-12  0 
 1.429422e-12  -2.056136e-12  0 
 -4.402367e-14  5.527823e-12  0 
 1.854465e-12  1.040068e-12  0 
 1.946316e-12  -1.550079e-12  0 
 1.028274e-13  -6.122841e-12  0 
 1.350263e-12  -6.014302e-12  0 
 1.158003e-12  2.699731e-12  0 
 1.195222e-12  3.525840e-12  0 
 1.168696e-12  4.420280e-12  0 
 8.103637e-13  1.953208e-12  0 
 5.161634e-13  1.974332e-12  0 
 2.425040e-13  1.984874e-12  0 
 1.909549e-12  -8.076752e-13  0 
 -9.084737e-13  -2.816938e-12  0 
 -2.390377e-12  7.047574e-13  0 
 1.864102e-12  6.297079e-14  0 
 1.885298e-12  -5.278278e-14  0 
 1.907067e-12  -1.676977e-13  0 
 -2.059220e-12  -9.260940e-13  0 
 -7.526151e-13  2.312096e-12  0 
 1.816528e-12  5.123325e-13  0 
 4.210508e-13  -2.096564e-12  0 
 7.473035e-13  -2.087236e-12  0 
 1.093334e-12  -2.066932e-12  0 
 -4.329301e-14  2.620681e-12  0 
 -1.625916e-13  3.487079e-12  0 
 -2.908797e-13  4.478536e-12  0 
 7.361305e-13  5.324316e-12  0 
 2.837526e-13  5.207080e-12  0 
 -1.192729e-13  5.332535e-12  0 
 1.718273e-12  -9.365710e-14  0 
 1.813169e-12  -2.004383e-13  0 
 2.187363e-12  -8.029544e-14  0 
 -4.092215e-13  4.211230e-12  0 
 5.495999e-12  2.065144e-12  0 
 9.249983e-12  5.614221e-12  0 
 1.800613e-12  -1.206308e-13  0 
 1.887206e-12  -1.068005e-13  0 
 2.269421e-12  -3.197551e-13  0 
 2.073443e-12  4.074760e-13  0 
 2.142265e-12  -2.503443e-13  0 
 2.121964e-12  -9.159853e-13  0 
 8.623674e-14  -2.866002e-12  0 
 -2.472204e-14  -3.851657e-12  0 
 -1.520577e-13  -4.961219e-12  0 
 9.650476e-12  -6.136375e-12  0 
 5.649899e-12  -2.253652e-12  0 
 -4.485838e-13  -4.770036e-12  0 
 1.490183e-12  -2.941596e-12  0 
 1.523585e-12  -3.892269e-12  0 
 1.489566e-12  -4.900912e-12  0 
 7.331110e-14  -5.934172e-12  0 
 5.136331e-13  -5.812491e-12  0 
 1.002937e-12  -5.920738e-12  0 
 8.405408e-13  2.694243e-12  0 
 5.362744e-13  2.678397e-12  0 
 2.472008e-13  2.655111e-12  0 
 8.641452e-13  3.527940e-12  0 
 5.236985e-13  3.523826e-12  0 
 1.716981e-13  3.501347e-12  0 
 7.749561e-13  4.430286e-12  0 
 4.603699e-13  4.458342e-12  0 
 1.577467e-13  4.490720e-12  0 
 -4.412583e-14  2.154614e-12  0 
 3.793108e-13  1.930381e-12  0 
 1.118891e-12  2.039695e-13  0 
 2.082156e-13  2.729814e-12  0 
 6.351381e-13  1.484001e-12  0 
 1.249865e-12  1.008111e-12  0 
 1.167390e-12  4.067176e-12  0 
 1.530914e-12  3.609383e-12  0 
 1.203196e-12  6.659387e-13  0 
 1.818426e-12  -8.935476e-14  0 
 1.871523e-12  -1.056951e-13  0 
 1.859185e-12  -1.228075e-13  0 
 1.861581e-12  -2.100848e-13  0 
 1.872011e-12  -1.535538e-13  0 
 1.899964e-12  -9.722480e-14  0 
 1.889261e-12  -7.117080e-14  0 
 1.827674e-12  -2.009103e-13  0 
 1.929207e-12  -3.292318e-13  0 
 1.209993e-12  -4.403310e-13  0 
 4.863954e-13  -2.113489e-12  0 
 8.213320e-14  -2.388653e-12  0 
 1.332920e-12  -1.330159e-12  0 
 7.352987e-13  -1.814337e-12  0 
 3.323756e-13  -3.083480e-12  0 
 1.287083e-12  -1.068661e-12  0 
 1.650541e-12  -4.121578e-12  0 
 1.300730e-12  -4.515671e-12  0 
 4.277656e-13  -2.898763e-12  0 
 7.674550e-13  -2.921129e-12  0 
 1.122225e-12  -2.936331e-12  0 
 3.562603e-13  -3.866322e-12  0 
 7.557764e-13  -3.888896e-12  0 
 1.143603e-12  -3.893896e-12  0 
 3.425834e-13  -4.973735e-12  0 
 6.932862e-13  -4.940708e-12  0 
 1.056112e-12  -4.910905e-12  0 
VECTORS displacement_ITER3 FLOAT
 -1.849258e-13  -1.364623e-12  0 
 -5.117672e-13  -2.887451e-12  0 
 5.311108e-14  -1.487305e-12  0 
 3.562269e-13  -1.196732e-13  0 
 3.278644e-13  -2.248611e-13  0 
 7.211036e-14  1.232451e-12  0 
 -3.187375e-13  1.108727e-12  0 
 3.706165e-13  -2.722470e-12  0 
 7.994448e-13  9.957651e-13  0 
 7.206416e-13  -1.154863e-12  0 
 3.710504e-13  2.835217e-12  0 
 -6.445696e-13  2.979787e-12  0 
 -2.318875e-13  -1.568148e-12  0 
 -3.305366e-13  -1.844129e-12  0 
 -4.595118e-13  -2.288112e-12  0 
 -1.145155e-13  -1.374947e-12  0 
 -3.283968e-14  -1.395468e-12  0 
 3.249538e-14  -1.420501e-12  0 
 -1.558342e-12  -7.893912e-13  0 
 7.826470e-13  6.990460e-13  0 
 1.525293e-12  -1.501550e-12  0 
 3.059737e-13  -1.638700e-13  0 
 2.924071e-13  -1.721143e-13  0 
 2.925079e-13  -1.806673e-13  0 
 1.323855e-12  1.246225e-12  0 
 6.985893e-13  -6.834768e-13  0 
 -1.411755e-12  6.980749e-13  0 
 1.142458e-14  1.165267e-12  0 
 -9.229741e-14  1.140051e-12  0 
 -2.116512e-13  1.119227e-12  0 
 1.121090e-13  -1.528356e-12  0 
 2.441162e-13  -1.814098e-12  0 
 3.894937e-13  -2.301839e-12  0 
 -3.395597e-13  -2.843070e-12  0 
 -1.412275e-14  -2.833537e-12  0 
 2.568859e-13  -2.945252e-12  0 
 3.139195e-13  -1.540557e-13  0 
 2.728121e-13  -1.808373e-13  0 
 3.981783e-13  -3.697561e-13  0 
 1.746136e-12  -9.459362e-13  0 
 -8.703554e-14  1.584406e-13  0 
 8.159313e-13  -3.108865e-12  0 
 2.869384e-13  -1.516023e-13  0 
 2.482952e-13  -9.714945e-14  0 
 3.528582e-13  1.228813e-13  0 
 2.102272e-13  1.526834e-13  0 
 -4.266041e-14  -9.121078e-14  0 
 1.719386e-13  -3.289272e-13  0 
 1.262916e-13  1.367918e-12  0 
 2.559200e-13  1.741043e-12  0 
 4.058409e-13  2.323084e-12  0 
 4.757361e-13  2.791224e-12  0 
 -2.756431e-13  -5.894110e-13  0 
 1.765146e-12  7.635097e-13  0 
 -3.655797e-13  1.406015e-12  0 
 -4.628552e-13  1.776152e-12  0 
 -5.839262e-13  2.306391e-12  0 
 2.294112e-13  3.065064e-12  0 
 -6.407695e-14  2.954283e-12  0 
 -4.196144e-13  2.947139e-12  0 
 -1.360739e-13  -1.566432e-12  0 
 -4.393699e-14  -1.562599e-12  0 
 4.304379e-14  -1.553151e-12  0 
 -1.928523e-13  -1.844065e-12  0 
 -4.447657e-14  -1.838521e-12  0 
 9.712147e-14  -1.830191e-12  0 
 -2.342138e-13  -2.287487e-12  0 
 -5.177109e-14  -2.282843e-12  0 
 1.571628e-13  -2.263076e-12  0 
 4.370027e-13  -1.298808e-12  0 
 2.870671e-13  -1.377646e-12  0 
 2.888054e-13  -3.129169e-13  0 
 3.367247e-13  -1.467039e-12  0 
 3.792923e-13  -9.071064e-13  0 
 3.394457e-13  -8.004888e-13  0 
 2.526075e-13  -1.860957e-12  0 
 4.095360e-13  -1.520108e-12  0 
 3.287225e-13  -1.040235e-13  0 
 3.207267e-13  -1.396705e-13  0 
 3.213176e-13  -1.543694e-13  0 
 3.076040e-13  -1.680770e-13  0 
 3.257397e-13  -1.904878e-13  0 
 3.214730e-13  -1.399206e-13  0 
 3.115903e-13  -8.910817e-14  0 
 2.790186e-13  -1.737027e-13  0 
 2.615235e-13  -1.210371e-13  0 
 2.572048e-13  -6.931516e-14  0 
 2.735259e-13  6.580208e-14  0 
 2.816787e-13  1.112906e-12  0 
 4.357377e-13  1.094694e-12  0 
 3.344894e-13  5.739585e-13  0 
 3.850092e-13  7.372983e-13  0 
 3.440090e-13  1.346624e-12  0 
 2.904972e-13  -8.751421e-14  0 
 3.830892e-13  1.432853e-12  0 
 2.523161e-13  1.820856e-12  0 
 2.112313e-14  1.392217e-12  0 
 -1.026961e-13  1.401183e-12  0 
 -2.321464e-13  1.404560e-12  0 
 7.369103e-14  1.758421e-12  0 
 -1.036394e-13  1.768176e-12  0 
 -2.878271e-13  1.775267e-12  0 
 1.354282e-13  2.285196e-12  0 
 -1.120643e-13  2.303380e-12  0 
 -3.305789e-13  2.306429e-12  0 
VECTORS displacement_ITER4 FLOAT
 2.005843e-13  -1.015816e-12  0 
 2.771623e-13  -1.394573e-13  0 
 -2.377845e-13  -1.049842e-12  0 
 -7.249656e-13  2.452478e-14  0 
 -7.506644e-13  1.436171e-14  0 
 -2.822626e-13  9.798136e-13  0 
 2.654903e-13  9.498517e-13  0 
 -1.654515e-13  -1.643890e-13  0 
 -6.099730e-13  6.821571e-13  0 
 -5.984659e-13  -5.454564e-13  0 
 -1.826051e-13  -1.576604e-13  0 
 3.461770e-13  -1.775962e-13  0 
 2.020142e-13  -7.881785e-13  0 
 2.101185e-13  -5.716389e-13  0 
 2.410202e-13  -3.612004e-13  0 
 1.114505e-13  -1.015490e-12  0 
 1.447416e-14  -1.021958e-12  0 
 -8.977542e-14  -1.036443e-12  0 
 -2.048350e-13  -2.510813e-13  0 
 -3.593539e-13  -3.352598e-13  0 
 -6.915615e-14  -2.264489e-13  0 
 -7.320722e-13  -2.385889e-15  0 
 -7.421345e-13  1.990883e-14  0 
 -7.459417e-13  4.194660e-14  0 
 -2.923945e-14  2.757634e-13  0 
 -2.873320e-13  2.311061e-13  0 
 -2.472189e-13  7.956170e-14  0 
 -1.053310e-13  9.668958e-13  0 
 2.695213e-14  9.538344e-13  0 
 1.509381e-13  9.489024e-13  0 
 -1.659601e-13  -7.611933e-13  0 
 -1.290966e-13  -5.676180e-13  0 
 -1.109065e-13  -3.864423e-13  0 
 2.008248e-13  -1.545574e-13  0 
 8.979251e-14  -1.363363e-13  0 
 5.463147e-14  -9.634320e-14  0 
 -7.443630e-13  2.676113e-14  0 
 -7.982776e-13  2.210881e-14  0 
 -7.685069e-13  4.456405e-15  0 
 -4.843991e-13  -7.581245e-13  0 
 -1.327461e-12  -1.814168e-13  0 
 -3.708712e-12  -7.598906e-13  0 
 -7.689349e-13  3.951919e-14  0 
 -8.261067e-13  7.848639e-14  0 
 -7.848314e-13  1.340797e-13  0 
 -9.845875e-13  4.670944e-13  0 
 -9.270502e-13  8.151817e-14  0 
 -9.752197e-13  -3.106461e-13  0 
 -2.051877e-13  6.279901e-13  0 
 -1.700694e-13  3.706054e-13  0 
 -1.521516e-13  1.133849e-13  0 
 -3.473475e-12  8.032143e-13  0 
 -1.109921e-12  1.404473e-13  0 
 -3.790076e-13  6.473550e-13  0 
 2.684305e-13  6.541396e-13  0 
 2.759888e-13  3.681693e-13  0 
 2.988200e-13  9.755121e-14  0 
 4.692286e-14  -2.450776e-13  0 
 8.873102e-14  -2.062271e-13  0 
 2.229134e-13  -1.715831e-13  0 
 1.116781e-13  -7.871740e-13  0 
 2.149409e-14  -7.818383e-13  0 
 -7.503300e-14  -7.723458e-13  0 
 1.239971e-13  -5.721180e-13  0 
 3.282226e-14  -5.731277e-13  0 
 -4.699738e-14  -5.689519e-13  0 
 1.530016e-13  -3.593593e-13  0 
 7.185153e-14  -3.641363e-13  0 
 -4.026777e-14  -3.863609e-13  0 
 -3.208883e-13  -6.434080e-13  0 
 -4.065273e-13  -4.023729e-13  0 
 -6.473346e-13  -1.542138e-13  0 
 -3.218101e-13  -4.414034e-13  0 
 -4.588416e-13  -2.074330e-13  0 
 -6.824804e-13  -1.491911e-13  0 
 -4.984415e-13  -3.816095e-13  0 
 -7.265573e-13  -5.301723e-13  0 
 -3.076591e-13  3.251654e-14  0 
 -7.532095e-13  3.769659e-14  0 
 -7.621909e-13  3.425615e-14  0 
 -7.658299e-13  3.004781e-14  0 
 -7.880168e-13  2.619341e-14  0 
 -7.805587e-13  5.132509e-14  0 
 -8.006722e-13  7.626948e-14  0 
 -8.381871e-13  3.965576e-14  0 
 -9.154083e-13  6.856201e-14  0 
 -8.477889e-13  9.712994e-14  0 
 -6.760596e-13  1.479478e-13  0 
 -4.425831e-13  3.743335e-13  0 
 -3.574222e-13  5.788396e-13  0 
 -7.275644e-13  1.766800e-13  0 
 -5.165829e-13  1.567233e-13  0 
 -3.741486e-13  3.161395e-13  0 
 -3.305549e-13  1.648914e-14  0 
 -7.386238e-13  4.570153e-13  0 
 -5.233622e-13  1.863077e-13  0 
 -8.964586e-14  6.384349e-13  0 
 3.309338e-14  6.474798e-13  0 
 1.503461e-13  6.529262e-13  0 
 -6.028985e-14  3.697407e-13  0 
 4.564579e-14  3.723604e-13  0 
 1.627388e-13  3.696103e-13  0 
 -5.463475e-14  1.158305e-13  0 
 8.645290e-14  9.621988e-14  0 
 1.929526e-13  9.415970e-14  0 
VECTORS displacement_ITER5 FLOAT
 7.174150e-12  9.906689e-13  0 
 7.948304e-12  1.441704e-11  0 
 1.782312e-12  1.109347e-12  0 
 -4.107198e-12  3.055300e-13  0 
 -4.129012e-12  9.724520e-13  0 
 1.649383e-12  3.658984e-13  0 
 6.612170e-12  4.789700e-13  0 
 2.747973e-12  1.408522e-11  0 
 -5.489363e-12  8.133177e-13  0 
 -5.561897e-12  5.744028e-13  0 
 2.531380e-12  -1.163582e-11  0 
 7.384828e-12  -1.197521e-11  0 
 7.320216e-12  4.268923e-12  0 
 7.549396e-12  7.619684e-12  0 
 7.772650e-12  1.104701e-11  0 
 5.861432e-12  9.835689e-13  0 
 4.542581e-12  9.801516e-13  0 
 3.195359e-12  1.007620e-12  0 
 2.625739e-13  3.700476e-12  0 
 8.002522e-13  4.612694e-12  0 
 9.344555e-13  1.896544e-12  0 
 -4.308066e-12  4.831150e-13  0 
 -4.387218e-12  6.390852e-13  0 
 -4.315918e-12  7.953865e-13  0 
 6.132160e-13  -6.366303e-13  0 
 4.479911e-13  -2.874364e-12  0 
 2.752422e-13  -1.902678e-12  0 
 2.951078e-12  4.694584e-13  0 
 4.188513e-12  4.948528e-13  0 
 5.401078e-12  4.880165e-13  0 
 2.009436e-12  4.259047e-12  0 
 2.087010e-12  7.515506e-12  0 
 2.290280e-12  1.103054e-11  0 
 6.509015e-12  1.451401e-11  0 
 5.239478e-12  1.458472e-11  0 
 3.991182e-12  1.448610e-11  0 
 -4.373296e-12  7.840688e-13  0 
 -4.780529e-12  7.706196e-13  0 
 -5.220440e-12  8.073489e-13  0 
 2.136633e-12  1.368006e-11  0 
 -2.862961e-12  1.209316e-11  0 
 -7.919468e-12  8.375049e-12  0 
 -4.394458e-12  5.331198e-13  0 
 -4.785987e-12  5.581471e-13  0 
 -5.242670e-12  5.200934e-13  0 
 -5.612534e-12  7.593594e-13  0 
 -5.780149e-12  6.635666e-13  0 
 -5.665031e-12  5.939463e-13  0 
 1.861445e-12  -2.523288e-12  0 
 1.935474e-12  -5.530070e-12  0 
 2.130972e-12  -8.773377e-12  0 
 -8.673286e-12  -6.423059e-12  0 
 -3.481314e-12  -1.030053e-11  0 
 1.798798e-12  -1.145387e-11  0 
 6.756783e-12  -2.533265e-12  0 
 6.991950e-12  -5.619953e-12  0 
 7.239985e-12  -8.814284e-12  0 
 3.711698e-12  -1.198330e-11  0 
 4.913785e-12  -1.207556e-11  0 
 6.102127e-12  -1.204226e-11  0 
 5.991683e-12  4.272084e-12  0 
 4.647754e-12  4.278380e-12  0 
 3.304055e-12  4.279881e-12  0 
 6.184057e-12  7.613971e-12  0 
 4.828840e-12  7.596489e-12  0 
 3.473749e-12  7.569761e-12  0 
 6.429656e-12  1.103777e-11  0 
 5.042208e-12  1.102493e-11  0 
 3.649565e-12  1.100274e-11  0 
 8.720732e-14  3.129064e-12  0 
 -1.433568e-12  2.161760e-12  0 
 -3.121882e-12  1.915016e-12  0 
 -9.736647e-14  5.752651e-12  0 
 -2.046281e-12  4.138433e-12  0 
 -3.573971e-12  2.348209e-12  0 
 -1.318243e-13  8.356683e-12  0 
 -2.071474e-12  5.540007e-12  0 
 -3.616183e-12  3.179457e-12  0 
 -4.479984e-12  7.059082e-13  0 
 -4.516539e-12  6.555636e-13  0 
 -4.489570e-12  6.070052e-13  0 
 -4.795905e-12  7.352164e-13  0 
 -4.807931e-12  6.626451e-13  0 
 -4.801548e-12  5.907101e-13  0 
 -5.216250e-12  7.110572e-13  0 
 -5.198572e-12  6.637085e-13  0 
 -5.222601e-12  6.158627e-13  0 
 -3.171629e-12  -4.365750e-13  0 
 -1.509468e-12  -6.747029e-13  0 
 -3.452800e-14  -1.549467e-12  0 
 -3.578700e-12  -8.568082e-13  0 
 -2.066233e-12  -2.489957e-12  0 
 -1.805763e-13  -3.922628e-12  0 
 -3.651703e-12  -1.676875e-12  0 
 -2.207251e-12  -3.660122e-12  0 
 -2.922629e-13  -6.291601e-12  0 
 3.055378e-12  -2.543773e-12  0 
 4.295986e-12  -2.541516e-12  0 
 5.535002e-12  -2.535864e-12  0 
 3.218231e-12  -5.579268e-12  0 
 4.473327e-12  -5.603368e-12  0 
 5.729412e-12  -5.616559e-12  0 
 3.394255e-12  -8.753062e-12  0 
 4.682249e-12  -8.781039e-12  0 
 5.971897e-12  -8.801862e-12  0 
VECTORS displacement_ITER6 FLOAT
 5.095258e-12  3.056011e-12  0 
 5.467116e-12  1.401994e-11  0 
 1.135108e-12  3.182545e-12  0 
 2.342356e-16  4.355893e-13  0 
 -4.366297e-15  3.001363e-13  0 
 1.149357e-12  -2.680926e-12  0 
 5.464360e-12  -2.549212e-12  0 
 1.594565e-12  1.389619e-11  0 
 -9.182850e-13  2.109436e-12  0 
 -8.286746e-13  -1.436302e-12  0 
 1.688556e-12  -1.420456e-11  0 
 5.828143e-12  -1.429362e-11  0 
 5.254736e-12  5.614923e-12  0 
 5.427832e-12  8.290761e-12  0 
 5.527822e-12  1.108849e-11  0 
 4.094741e-12  3.067209e-12  0 
 3.073452e-12  3.092552e-12  0 
 2.061066e-12  3.119730e-12  0 
 2.490799e-12  1.418512e-13  0 
 -1.151893e-12  -1.619423e-12  0 
 -3.252592e-12  1.939290e-12  0 
 -9.010419e-14  4.246696e-13  0 
 -1.197251e-13  3.686469e-13  0 
 -9.466962e-14  3.118325e-13  0 
 -2.977879e-12  -1.212930e-12  0 
 -9.038427e-13  1.827263e-12  0 
 2.327997e-12  5.481832e-14  0 
 2.168164e-12  -2.620245e-12  0 
 3.272546e-12  -2.591795e-12  0 
 4.381782e-12  -2.562646e-12  0 
 1.139172e-12  5.502151e-12  0 
 1.040380e-12  8.196357e-12  0 
 1.014901e-12  1.116859e-11  0 
 4.386186e-12  1.393804e-11  0 
 3.199898e-12  1.383048e-11  0 
 2.071273e-12  1.387628e-11  0 
 -3.124186e-13  4.417412e-13  0 
 -4.241183e-13  3.585300e-13  0 
 -2.020447e-13  6.252027e-13  0 
 6.763352e-13  1.240403e-11  0 
 4.921944e-12  9.291711e-12  0 
 7.733882e-12  1.165183e-11  0 
 -3.132565e-13  2.868608e-13  0 
 -4.323310e-13  3.817314e-13  0 
 -1.790017e-13  1.290695e-13  0 
 -6.552587e-13  1.297090e-12  0 
 -6.344964e-13  3.703774e-13  0 
 -6.000314e-13  -5.839835e-13  0 
 1.168036e-12  -5.216235e-12  0 
 1.073572e-12  -8.113288e-12  0 
 1.051833e-12  -1.130741e-11  0 
 8.389178e-12  -1.123667e-11  0 
 5.464791e-12  -8.691344e-12  0 
 9.149468e-13  -1.229837e-11  0 
 5.625803e-12  -5.327997e-12  0 
 5.792901e-12  -8.222818e-12  0 
 5.866216e-12  -1.120954e-11  0 
 2.213718e-12  -1.422122e-11  0 
 3.372152e-12  -1.417893e-11  0 
 4.618133e-12  -1.424407e-11  0 
 4.204747e-12  5.609736e-12  0 
 3.163238e-12  5.592129e-12  0 
 2.141252e-12  5.560752e-12  0 
 4.344358e-12  8.290547e-12  0 
 3.255144e-12  8.279184e-12  0 
 2.147090e-12  8.239137e-12  0 
 4.376147e-12  1.109651e-11  0 
 3.294169e-12  1.112228e-11  0 
 2.236412e-12  1.116311e-11  0 
 2.939731e-14  4.452208e-12  0 
 -3.837101e-13  3.623223e-12  0 
 -3.466768e-13  1.263872e-12  0 
 3.065304e-13  6.398220e-12  0 
 -2.502370e-13  4.061022e-12  0 
 -3.630497e-13  2.610832e-12  0 
 1.502466e-12  9.366388e-12  0 
 9.104663e-13  7.473746e-12  0 
 -6.081054e-13  2.732663e-12  0 
 -2.625352e-13  4.098160e-13  0 
 -2.408220e-13  3.672848e-13  0 
 -2.638733e-13  3.229693e-13  0 
 -3.998410e-13  3.330967e-13  0 
 -4.177017e-13  3.722452e-13  0 
 -4.005147e-13  4.106004e-13  0 
 -6.243297e-13  5.769605e-13  0 
 -7.216818e-13  3.749444e-13  0 
 -6.171108e-13  1.746748e-13  0 
 -3.432483e-13  -7.027934e-13  0 
 -3.798190e-13  -3.069842e-12  0 
 5.891651e-14  -4.013046e-12  0 
 -3.964089e-13  -2.035016e-12  0 
 -2.869496e-13  -3.651092e-12  0 
 3.034507e-13  -6.160871e-12  0 
 -5.730142e-13  -2.147982e-12  0 
 9.785659e-13  -7.229909e-12  0 
 1.551142e-12  -9.310424e-12  0 
 2.252740e-12  -5.275063e-12  0 
 3.359187e-12  -5.306694e-12  0 
 4.487177e-12  -5.323463e-12  0 
 2.264345e-12  -8.160691e-12  0 
 3.454098e-12  -8.204230e-12  0 
 4.624382e-12  -8.220206e-12  0 
 2.354015e-12  -1.129874e-11  0 
 3.497886e-12  -1.125248e-11  0 
 4.658542e-12  -1.122004e-11  0 
VECTORS displacement_ITER7 FLOAT
 4.631751e-12  -3.483515e-13  0 
 4.490904e-12  7.360695e-12  0 
 1.128299e-12  -4.285399e-13  0 
 -5.835666e-13  -1.516034e-14  0 
 -4.881129e-13  -7.836391e-14  0 
 1.288291e-12  7.402179e-13  0 
 4.490979e-12  6.479768e-13  0 
 2.315144e-12  7.438095e-12  0 
 -9.887109e-13  2.434607e-12  0 
 -1.031723e-12  -2.852413e-12  0 
 2.383860e-12  -6.446002e-12  0 
 4.348905e-12  -6.401626e-12  0 
 4.676860e-12  1.772383e-12  0 
 4.659664e-12  3.832879e-12  0 
 4.556238e-12  5.674008e-12  0 
 3.780917e-12  -3.574280e-13  0 
 2.927595e-12  -3.724789e-13  0 
 2.047992e-12  -3.803987e-13  0 
 -1.327255e-12  -2.795959e-13  0 
 5.991843e-13  9.925467e-13  0 
 3.776530e-13  -1.233151e-12  0 
 -7.604129e-13  -5.486118e-14  0 
 -7.771951e-13  -4.965833e-14  0 
 -7.096154e-13  -4.241045e-14  0 
 3.000913e-13  1.087406e-12  0 
 4.219805e-13  -6.210396e-13  0 
 -1.121661e-12  8.593297e-13  0 
 2.128042e-12  6.943196e-13  0 
 2.927160e-12  6.834306e-13  0 
 3.705491e-12  6.609633e-13  0 
 1.312731e-12  1.767873e-12  0 
 1.510440e-12  3.793319e-12  0 
 1.807171e-12  5.719193e-12  0 
 3.751853e-12  7.368720e-12  0 
 3.183066e-12  7.339161e-12  0 
 2.693915e-12  7.167843e-12  0 
 -9.388570e-13  -2.672626e-14  0 
 -1.172882e-12  -2.044991e-13  0 
 -9.618416e-13  -3.610579e-13  0 
 3.718261e-12  9.189908e-12  0 
 2.507310e-12  9.412187e-12  0 
 3.726463e-12  3.205312e-12  0 
 -8.526875e-13  -1.686875e-13  0 
 -1.081992e-12  -1.060180e-13  0 
 -9.120670e-13  -6.978698e-14  0 
 -1.600479e-12  6.885522e-13  0 
 -1.848421e-12  -2.553654e-13  0 
 -1.635138e-12  -1.168757e-12  0 
 1.454975e-12  -1.281672e-12  0 
 1.656221e-12  -3.135942e-12  0 
 1.951620e-12  -4.856732e-12  0 
 3.068970e-12  -3.330053e-12  0 
 1.848119e-12  -9.386532e-12  0 
 3.387841e-12  -8.832996e-12  0 
 4.530566e-12  -1.284491e-12  0 
 4.517749e-12  -3.154299e-12  0 
 4.444266e-12  -4.837437e-12  0 
 2.741136e-12  -6.123666e-12  0 
 3.224549e-12  -6.289522e-12  0 
 3.742243e-12  -6.374106e-12  0 
 3.835749e-12  1.772785e-12  0 
 2.993205e-12  1.770542e-12  0 
 2.154117e-12  1.766850e-12  0 
 3.875408e-12  3.831170e-12  0 
 3.100704e-12  3.828167e-12  0 
 2.306513e-12  3.808459e-12  0 
 3.879480e-12  5.684791e-12  0 
 3.183140e-12  5.711153e-12  0 
 2.518414e-12  5.770674e-12  0 
 6.901758e-13  1.153609e-12  0 
 -2.642753e-13  2.906657e-13  0 
 -6.591199e-13  5.346961e-13  0 
 5.832444e-13  2.744008e-12  0 
 -1.593892e-13  1.820342e-12  0 
 -7.074267e-13  5.853703e-13  0 
 1.298577e-12  4.660545e-12  0 
 4.676467e-13  3.059234e-12  0 
 -9.353479e-13  2.036757e-12  0 
 -8.850584e-13  -3.955700e-14  0 
 -8.504381e-13  -1.010509e-13  0 
 -8.410519e-13  -1.603285e-13  0 
 -1.059073e-12  -2.441723e-13  0 
 -1.045246e-12  -1.585383e-13  0 
 -1.017707e-12  -7.205792e-14  0 
 -1.375484e-12  -1.294853e-13  0 
 -1.450067e-12  -2.127621e-13  0 
 -1.345160e-12  -2.965640e-13  0 
 -5.574011e-13  -4.898507e-13  0 
 -1.335871e-13  -1.691376e-13  0 
 8.166180e-13  -8.938408e-13  0 
 -5.594343e-13  -6.555511e-13  0 
 2.503248e-14  -1.637212e-12  0 
 7.559771e-13  -2.318023e-12  0 
 -8.791354e-13  -2.195019e-12  0 
 5.140778e-13  -2.820040e-12  0 
 1.396668e-12  -4.056574e-12  0 
 2.229345e-12  -1.278622e-12  0 
 2.997934e-12  -1.281142e-12  0 
 3.766738e-12  -1.284057e-12  0 
 2.377793e-12  -3.144351e-12  0 
 3.101795e-12  -3.158845e-12  0 
 3.807204e-12  -3.155827e-12  0 
 2.591704e-12  -4.913752e-12  0 
 3.178834e-12  -4.862297e-12  0 
 3.808152e-12  -4.844208e-12  0 
VECTORS displacement_ITER8 FLOAT
 6.025581e-12  -8.473677e-13  0 
 6.328896e-12  1.053032e-11  0 
 1.087360e-12  -8.999168e-13  0 
 -2.480807e-12  5.105963e-13  0 
 -2.735107e-12  6.073293e-13  0 
 7.611695e-13  1.355004e-12  0 
 6.032692e-12  1.325157e-12  0 
 2.358991e-12  1.040079e-11  0 
 -3.359910e-12  3.951716e-12  0 
 -3.420184e-12  -1.788511e-12  0 
 2.190026e-12  -1.066054e-11  0 
 6.336190e-12  -1.075374e-11  0 
 6.116942e-12  2.092324e-12  0 
 6.215124e-12  4.996139e-12  0 
 6.296463e-12  7.799220e-12  0 
 4.845417e-12  -8.536844e-13  0 
 3.649213e-12  -8.738303e-13  0 
 2.428250e-12  -8.938582e-13  0 
 -1.812416e-13  8.459565e-13  0 
 -4.794714e-13  9.781041e-13  0 
 -1.144676e-13  2.876134e-13  0 
 -2.755502e-12  4.741059e-13  0 
 -2.893417e-12  5.648278e-13  0 
 -2.887969e-12  6.509607e-13  0 
 -2.865672e-13  1.068856e-12  0 
 -2.797340e-13  -2.014176e-13  0 
 -3.661181e-13  -6.731972e-13  0 
 2.191271e-12  1.343544e-12  0 
 3.505715e-12  1.329497e-12  0 
 4.785975e-12  1.323792e-12  0 
 1.416617e-12  2.115533e-12  0 
 1.631565e-12  4.942878e-12  0 
 1.917686e-12  7.763633e-12  0 
 5.253577e-12  1.050954e-11  0 
 4.215035e-12  1.048287e-11  0 
 3.391446e-12  1.044880e-11  0 
 -2.917745e-12  7.900172e-13  0 
 -3.301321e-12  8.098738e-13  0 
 -3.276029e-12  8.905906e-13  0 