# vtk DataFile Version 3.1
this is an vtk file created by FEMAC
ASCII
DATASET UNSTRUCTURED_GRID
POINTS 105 FLOAT
5.500000 0.000000 0.000000
6.000000 0.000000 0.000000
5.500000 0.200000 0.000000
5.500000 0.400000 0.000000
5.500000 0.600000 0.000000
5.500000 0.800000 0.000000
5.500000 1.000000 0.000000
6.000000 0.200000 0.000000
6.000000 0.400000 0.000000
6.000000 0.600000 0.000000
6.000000 0.800000 0.000000
6.000000 1.000000 0.000000
5.625000 0.000000 0.000000
5.750000 0.000000 0.000000
5.875000 0.000000 0.000000
5.500000 0.050000 0.000000
5.500000 0.100000 0.000000
5.500000 0.150000 0.000000
5.500000 0.250000 0.000000
5.500000 0.300000 0.000000
5.500000 0.350000 0.000000
5.500000 0.450000 0.000000
5.500000 0.500000 0.000000
5.500000 0.550000 0.000000
5.500000 0.650000 0.000000
5.500000 0.700000 0.000000
5.500000 0.750000 0.000000
5.500000 0.850000 0.000000
5.500000 0.900000 0.000000
5.500000 0.950000 0.000000
5.625000 0.200000 0.000000
5.750000 0.200000 0.000000
5.875000 0.200000 0.000000
6.000000 0.050000 0.000000
6.000000 0.100000 0.000000
6.000000 0.150000 0.000000
5.625000 0.400000 0.000000
5.750000 0.400000 0.000000
5.875000 0.400000 0.000000
6.000000 0.250000 0.000000
6.000000 0.300000 0.000000
6.000000 0.350000 0.000000
5.625000 0.600000 0.000000
5.750000 0.600000 0.000000
5.875000 0.600000 0.000000
6.000000 0.450000 0.000000
6.000000 0.500000 0.000000
6.000000 0.550000 0.000000
5.625000 0.800000 0.000000
5.750000 0.800000 0.000000
5.875000 0.800000 0.000000
6.000000 0.650000 0.000000
6.000000 0.700000 0.000000
6.000000 0.750000 0.000000
5.625000 1.000000 0.000000
5.750000 1.000000 0.000000
5.875000 1.000000 0.000000
6.000000 0.850000 0.000000
6.000000 0.900000 0.000000
6.000000 0.950000 0.000000
5.625000 0.050000 0.000000
5.625000 0.100000 0.000000
5.625000 0.150000 0.000000
5.750000 0.050000 0.000000
5.750000 0.100000 0.000000
5.750000 0.150000 0.000000
5.875000 0.050000 0.000000
5.875000 0.100000 0.000000
5.875000 0.150000 0.000000
5.625000 0.250000 0.000000
5.625000 0.300000 0.000000
5.625000 0.350000 0.000000
5.750000 0.250000 0.000000
5.750000 0.300000 0.000000
5.750000 0.350000 0.000000
5.875000 0.250000 0.000000
5.875000 0.300000 0.000000
5.875000 0.350000 0.000000
5.625000 0.450000 0.000000
5.625000 0.500000 0.000000
5.625000 0.550000 0.000000
5.750000 0.450000 0.000000
5.750000 0.500000 0.000000
5.750000 0.550000 0.000000
5.875000 0.450000 0.000000
5.875000 0.500000 0.000000
5.875000 0.550000 0.000000
5.625000 0.650000 0.000000
5.625000 0.700000 0.000000
5.625000 0.750000 0.000000
5.750000 0.650000 0.000000
5.750000 0.700000 0.000000
5.750000 0.750000 0.000000
5.875000 0.650000 0.000000
5.875000 0.700000 0.000000
5.875000 0.750000 0.000000
5.625000 0.850000 0.000000
5.625000 0.900000 0.000000
5.625000 0.950000 0.000000
5.750000 0.850000 0.000000
5.750000 0.900000 0.000000
5.750000 0.950000 0.000000
5.875000 0.850000 0.000000
5.875000 0.900000 0.000000
5.875000 0.950000 0.000000
CELLS 80 400 
4 0 12 60 15
4 15 60 61 16
4 16 61 62 17
4 17 62 30  2
4 12 13 63 60
4 60 63 64 61
4 61 64 65 62
4 62 65 31 30
4 13 14 66 63
4 63 66 67 64
4 64 67 68 65
4 65 68 32 31
4 14  1 33 66
4 66 33 34 67
4 67 34 35 68
4 68 35  7 32
4 2 30 69 18
4 18 69 70 19
4 19 70 71 20
4 20 71 36  3
4 30 31 72 69
4 69 72 73 70
4 70 73 74 71
4 71 74 37 36
4 31 32 75 72
4 72 75 76 73
4 73 76 77 74
4 74 77 38 37
4 32  7 39 75
4 75 39 40 76
4 76 40 41 77
4 77 41  8 38
4 3 36 78 21
4 21 78 79 22
4 22 79 80 23
4 23 80 42  4
4 36 37 81 78
4 78 81 82 79
4 79 82 83 80
4 80 83 43 42
4 37 38 84 81
4 81 84 85 82
4 82 85 86 83
4 83 86 44 43
4 38  8 45 84
4 84 45 46 85
4 85 46 47 86
4 86 47  9 44
4 4 42 87 24
4 24 87 88 25
4 25 88 89 26
4 26 89 48  5
4 42 43 90 87
4 87 90 91 88
4 88 91 92 89
4 89 92 49 48
4 43 44 93 90
4 90 93 94 91
4 91 94 95 92
4 92 95 50 49
4 44  9 51 93
4 93 51 52 94
4 94 52 53 95
4 95 53 10 50
4 5 48 96 27
4 27 96 97 28
4 28 97 98 29
4 29 98 54  6
4 48 49 99 96
4 96  99 100  97
4 97 100 101  98
4 98 101  55  54
4 49  50 102  99
4 99 102 103 100
4 100 103 104 101
4 101 104  56  55
4 50  10  57 102
4 102  57  58 103
4 103  58  59 104
4 104  59  11  56
CELL_TYPES 80
9 9 9 9 9 9 9 9 9 9 9 9 9 9 9 9 9 9 9 9 9 9 9 9 9 9 9 9 9 9 9 9 9 9 9 9 9 9 9 9 9 9 9 9 9 9 9 9 9 9 9 9 9 9 9 9 9 9 9 9 9 9 9 9 9 9 9 9 9 9 9 9 9 9 9 9 9 9 9 9 
POINT_DATA 105
VECTORS displacement_ITER1 FLOAT
 2.407708e-14  1.158907e-13  0 
 2.105261e-14  1.341202e-13  0 
 1.529239e-14  1.160316e-13  0 
 7.823768e-15  1.160629e-13  0 
 3.249570e-16  1.160310e-13  0 
 -7.135334e-15  1.160070e-13  0 
 -1.582640e-14  1.157675e-13  0 
 1.502257e-14  1.343507e-13  0 
 7.797363e-15  1.343840e-13  0 
 3.031130e-16  1.343524e-13  0 
 -6.930705e-15  1.343265e-13  0 
 -1.305449e-14  1.339970e-13  0 
 2.320082e-14  1.208147e-13  0 
 2.248419e-14  1.255414e-13  0 
 2.180270e-14  1.299394e-13  0 
 2.207959e-14  1.158648e-13  0 
 1.996752e-14  1.158192e-13  0 
 1.771836e-14  1.158279e-13  0 
 1.340353e-14  1.160440e-13  0 
 1.153489e-14  1.160549e-13  0 
 9.676898e-15  1.160613e-13  0 
 6.019071e-15  1.160020e-13  0 
 4.126957e-15  1.159700e-13  0 
 2.212019e-15  1.159790e-13  0 
 -1.532163e-15  1.160307e-13  0 
 -3.390139e-15  1.160263e-13  0 
 -5.255044e-15  1.160176e-13  0 
 -9.450998e-15  1.157863e-13  0 
 -1.166074e-14  1.157412e-13  0 
 -1.377969e-14  1.157549e-13  0 
 1.522256e-14  1.207117e-13  0 
 1.514465e-14  1.253114e-13  0 
 1.507337e-14  1.298634e-13  0 
 1.940146e-14  1.341013e-13  0 
 1.782641e-14  1.340748e-13  0 
 1.635701e-14  1.341119e-13  0 
 7.814498e-15  1.206950e-13  0 
 7.818298e-15  1.252984e-13  0 
 7.818326e-15  1.298488e-13  0 
 1.323586e-14  1.343637e-13  0 
 1.143275e-14  1.343750e-13  0 
 9.619115e-15  1.343821e-13  0 
 3.205762e-16  1.206651e-13  0 
 3.063022e-16  1.252656e-13  0 
 2.958011e-16  1.298191e-13  0 
 5.854005e-15  1.343179e-13  0 
 3.997695e-15  1.342838e-13  0 
 2.164185e-15  1.342951e-13  0 
 -7.082143e-15  1.206757e-13  0 
 -7.020196e-15  1.252753e-13  0 
 -6.964893e-15  1.298275e-13  0 
 -1.514721e-15  1.343519e-13  0 
 -3.328441e-15  1.343468e-13  0 
 -5.135360e-15  1.343377e-13  0 
 -1.501805e-14  1.207608e-13  0 
 -1.435994e-14  1.254840e-13  0 
 -1.373687e-14  1.298857e-13  0 
 -8.375707e-15  1.340708e-13  0 
 -9.884991e-15  1.339971e-13  0 
 -1.145267e-14  1.339915e-13  0 
 2.123574e-14  1.208232e-13  0 
 1.923405e-14  1.208371e-13  0 
 1.720517e-14  1.208287e-13  0 
 2.065643e-14  1.255344e-13  0 
 1.882389e-14  1.255019e-13  0 
 1.698722e-14  1.254200e-13  0 
 2.011277e-14  1.299471e-13  0 
 1.844504e-14  1.299618e-13  0 
 1.678747e-14  1.299607e-13  0 
 1.336643e-14  1.207056e-13  0 
 1.151332e-14  1.207003e-13  0 
 9.663607e-15  1.206968e-13  0 
 1.331377e-14  1.253081e-13  0 
 1.148212e-14  1.253035e-13  0 
 9.650149e-15  1.252999e-13  0 
 1.326510e-14  1.298583e-13  0 
 1.145191e-14  1.298540e-13  0 
 9.634928e-15  1.298507e-13  0 
 5.943985e-15  1.206740e-13  0 
 4.072903e-15  1.206689e-13  0 
 2.196690e-15  1.206667e-13  0 
 5.940643e-15  1.252776e-13  0 
 4.062318e-15  1.252645e-13  0 
 2.183985e-15  1.252606e-13  0 
 5.933740e-15  1.298324e-13  0 
 4.051735e-15  1.298286e-13  0 
 2.174842e-15  1.298252e-13  0 
 -1.527832e-15  1.206656e-13  0 
 -3.376709e-15  1.206675e-13  0 
 -5.228090e-15  1.206711e-13  0 
 -1.525586e-15  1.252665e-13  0 
 -3.357595e-15  1.252690e-13  0 
 -5.189282e-15  1.252725e-13  0 
 -1.521575e-15  1.298197e-13  0 
 -3.339467e-15  1.298214e-13  0 
 -5.154460e-15  1.298240e-13  0 
 -9.044349e-15  1.207696e-13  0 
 -1.105416e-14  1.207766e-13  0 
 -1.305049e-14  1.207666e-13  0 
 -8.862800e-15  1.253714e-13  0 
 -1.069952e-14  1.254455e-13  0 
 -1.253210e-14  1.254768e-13  0 
 -8.699526e-15  1.299017e-13  0 
 -1.037619e-14  1.299015e-13  0 
 -1.204942e-14  1.298907e-13  0 
VECTORS displacement_ITER2 FLOAT
 -3.631545e-14  -2.020960e-13  0 
 -3.591075e-14  -2.346076e-13  0 
 -2.309180e-14  -2.024820e-13  0 
 -1.003056e-14  -2.024771e-13  0 
 3.070879e-15  -2.024750e-13  0 
 1.612710e-14  -2.024860e-13  0 
 2.912497e-14  -2.021775e-13  0 
 -2.325568e-14  -2.353193e-13  0 
 -1.006415e-14  -2.353205e-13  0 
 3.095556e-15  -2.353182e-13  0 
 1.629202e-14  -2.353231e-13  0 
 2.917314e-14  -2.346893e-13  0 
 -3.633074e-14  -2.106075e-13  0 
 -3.627040e-14  -2.188921e-13  0 
 -3.611922e-14  -2.270172e-13  0 
 -3.287058e-14  -2.021103e-13  0 
 -2.948444e-14  -2.021630e-13  0 
 -2.617919e-14  -2.022815e-13  0 
 -1.984126e-14  -2.024804e-13  0 
 -1.657757e-14  -2.024784e-13  0 
 -1.330646e-14  -2.024772e-13  0 
 -6.772967e-15  -2.025374e-13  0 
 -3.513981e-15  -2.025291e-13  0 
 -2.319976e-16  -2.025045e-13  0 
 6.344131e-15  -2.024761e-13  0 
 9.613763e-15  -2.024787e-13  0 
 1.287667e-14  -2.024826e-13  0 
 1.915058e-14  -2.023750e-13  0 
 2.238003e-14  -2.022690e-13  0 
 2.571209e-14  -2.022014e-13  0 
 -2.313749e-14  -2.106456e-13  0 
 -2.317868e-14  -2.188505e-13  0 
 -2.321829e-14  -2.270670e-13  0 
 -3.299515e-14  -2.346645e-13  0 
 -2.993308e-14  -2.348152e-13  0 
 -2.672376e-14  -2.350400e-13  0 
 -1.004207e-14  -2.106563e-13  0 
 -1.004167e-14  -2.188518e-13  0 
 -1.004377e-14  -2.270802e-13  0 
 -1.994413e-14  -2.353187e-13  0 
 -1.664384e-14  -2.353178e-13  0 
 -1.335081e-14  -2.353181e-13  0 
 3.078502e-15  -2.106539e-13  0 
 3.077540e-15  -2.188495e-13  0 
 3.079075e-15  -2.270778e-13  0 
 -6.775160e-15  -2.354488e-13  0 
 -3.450226e-15  -2.354651e-13  0 
 -1.481916e-16  -2.354159e-13  0 
 1.617064e-14  -2.106438e-13  0 
 1.621448e-14  -2.188457e-13  0 
 1.625673e-14  -2.270651e-13  0 
 6.384847e-15  -2.353168e-13  0 
 9.679319e-15  -2.353180e-13  0 
 1.298036e-14  -2.353207e-13  0 
 2.925063e-14  -2.106078e-13  0 
 2.930614e-14  -2.188515e-13  0 
 2.927098e-14  -2.270175e-13  0 
 1.982321e-14  -2.351334e-13  0 
 2.310876e-14  -2.349215e-13  0 
 2.622544e-14  -2.347559e-13  0 
 -3.298781e-14  -2.106079e-13  0 
 -2.966797e-14  -2.106115e-13  0 
 -2.638919e-14  -2.106181e-13  0 
 -3.298633e-14  -2.188872e-13  0 
 -2.971319e-14  -2.188728e-13  0 
 -2.644630e-14  -2.188595e-13  0 
 -3.294625e-14  -2.270105e-13  0 
 -2.975579e-14  -2.270051e-13  0 
 -2.650891e-14  -2.270163e-13  0 
 -1.986305e-14  -2.106490e-13  0 
 -1.658960e-14  -2.106526e-13  0 
 -1.331545e-14  -2.106552e-13  0 
 -1.989470e-14  -2.188501e-13  0 
 -1.661057e-14  -2.188508e-13  0 
 -1.332623e-14  -2.188515e-13  0 
 -1.992512e-14  -2.270712e-13  0 
 -1.663172e-14  -2.270755e-13  0 
 -1.333878e-14  -2.270788e-13  0 
 -6.761763e-15  -2.106553e-13  0 
 -3.486221e-15  -2.106632e-13  0 
 -2.068626e-16  -2.106635e-13  0 
 -6.761451e-15  -2.188590e-13  0 
 -3.482057e-15  -2.188582e-13  0 
 -2.026666e-16  -2.188563e-13  0 
 -6.766929e-15  -2.270797e-13  0 
 -3.477904e-15  -2.270871e-13  0 
 -1.927051e-16  -2.270878e-13  0 
 6.352359e-15  -2.106528e-13  0 
 9.626121e-15  -2.106506e-13  0 
 1.289847e-14  -2.106473e-13  0 
 6.362083e-15  -2.188489e-13  0 
 9.646403e-15  -2.188475e-13  0 
 1.293051e-14  -2.188460e-13  0 
 6.373580e-15  -2.270763e-13  0 
 9.666868e-15  -2.270733e-13  0 
 1.296135e-14  -2.270694e-13  0 
 1.940307e-14  -2.106023e-13  0 
 2.265043e-14  -2.106006e-13  0 
 2.593804e-14  -2.106047e-13  0 
 1.948209e-14  -2.188393e-13  0 
 2.274899e-14  -2.188395e-13  0 
 2.602211e-14  -2.188481e-13  0 
 1.956664e-14  -2.270005e-13  0 
 2.284488e-14  -2.269941e-13  0 
 2.606758e-14  -2.270072e-13  0 
VECTORS displacement_ITER3 FLOAT
 4.224168e-15  1.851934e-14  0 
 3.169504e-15  2.131993e-14  0 
 2.617645e-15  1.858678e-14  0 
 1.414790e-15  1.859683e-14  0 
 2.249705e-16  1.864066e-14  0 
 -9.764179e-16  1.863455e-14  0 
 -2.365955e-15  1.874502e-14  0 
 2.436326e-15  2.138439e-14  0 
 1.378009e-15  2.139251e-14  0 
 2.387277e-16  2.143633e-14  0 
 -8.209938e-16  2.143217e-14  0 
 -1.771062e-15  2.154542e-14  0 
 3.865391e-15  1.941321e-14  0 
 3.650729e-15  2.012131e-14  0 
 3.459405e-15  2.080420e-14  0 
 3.805080e-15  1.855440e-14  0 
 3.435411e-15  1.862512e-14  0 
 3.082496e-15  1.866294e-14  0 
 2.299704e-15  1.858990e-14  0 
 1.997173e-15  1.859372e-14  0 
 1.703129e-15  1.859616e-14  0 
 1.118450e-15  1.857182e-14  0 
 8.222416e-16  1.858580e-14  0 
 5.262512e-16  1.860516e-14  0 
 -6.656190e-17  1.864051e-14  0 
 -3.611938e-16  1.863909e-14  0 
 -6.623493e-16  1.863651e-14  0 
 -1.437990e-15  1.875075e-14  0 
 -1.760735e-15  1.877513e-14  0 
 -2.062602e-15  1.875785e-14  0 
 2.564628e-15  1.933919e-14  0 
 2.519232e-15  2.004543e-14  0 
 2.477450e-15  2.073303e-14  0 
 3.015675e-15  2.135486e-14  0 
 2.808658e-15  2.142548e-14  0 
 2.573587e-15  2.146202e-14  0 
 1.401968e-15  1.932854e-14  0 
 1.402122e-15  2.004302e-14  0 
 1.399514e-15  2.072329e-14  0 
 2.186784e-15  2.138788e-14  0 
 1.924794e-15  2.139155e-14  0 
 1.654918e-15  2.139347e-14  0 
 2.294727e-16  1.937191e-14  0 
 2.261347e-16  2.008421e-14  0 
 2.255518e-16  2.076666e-14  0 
 1.086254e-15  2.134752e-14  0 
 8.058863e-16  2.135584e-14  0 
 5.254189e-16  2.138077e-14  0 
 -9.305751e-16  1.938203e-14  0 
 -8.909758e-16  2.008733e-14  0 
 -8.550016e-16  2.077588e-14  0 
 -3.497437e-17  2.143781e-14  0 
 -3.042586e-16  2.143691e-14  0 
 -5.676224e-16  2.143449e-14  0 
 -2.138323e-15  1.944711e-14  0 
 -2.022475e-15  2.012783e-14  0 
 -1.929868e-15  2.083804e-14  0 
 -9.625870e-16  2.154961e-14  0 
 -1.226958e-15  2.157505e-14  0 
 -1.501455e-15  2.155804e-14  0 
 3.550411e-15  1.940425e-14  0 
 3.220330e-15  1.938494e-14  0 
 2.887288e-15  1.936457e-14  0 
 3.371413e-15  2.011926e-14  0 
 3.089383e-15  2.010833e-14  0 
 2.805309e-15  2.008292e-14  0 
 3.211915e-15  2.079517e-14  0 
 2.972306e-15  2.077533e-14  0 
 2.730935e-15  2.075497e-14  0 
 2.274484e-15  1.933594e-14  0 
 1.983313e-15  1.933215e-14  0 
 1.693033e-15  1.932952e-14  0 
 2.240204e-15  2.004489e-14  0 
 1.960879e-15  2.004394e-14  0 
 1.681454e-15  2.004320e-14  0 
 2.208107e-15  2.073007e-14  0 
 1.938562e-15  2.072670e-14  0 
 1.668116e-15  2.072410e-14  0 
 1.111188e-15  1.933575e-14  0 
 8.154904e-16  1.934170e-14  0 
 5.202978e-16  1.935588e-14  0 
 1.108325e-15  2.004565e-14  0 
 8.141289e-16  2.005562e-14  0 
 5.199312e-16  2.006686e-14  0 
 1.102490e-15  2.073263e-14  0 
 8.127485e-16  2.073908e-14  0 
 5.225070e-16  2.075279e-14  0 
 -6.051030e-17  1.937306e-14  0 
 -3.503606e-16  1.937544e-14  0 
 -6.409773e-16  1.937889e-14  0 
 -5.319851e-17  2.008491e-14  0 
 -3.326242e-16  2.008598e-14  0 
 -6.119503e-16  2.008698e-14  0 
 -4.412932e-17  2.076765e-14  0 
 -3.150020e-16  2.076999e-14  0 
 -5.850981e-16  2.077303e-14  0 
 -1.247929e-15  1.941187e-14  0 
 -1.561680e-15  1.942893e-14  0 
 -1.858604e-15  1.944197e-14  0 
 -1.177063e-15  2.011049e-14  0 
 -1.461111e-15  2.012418e-14  0 
 -1.743156e-15  2.012772e-14  0 
 -1.113693e-15  2.080227e-14  0 
 -1.374498e-15  2.081939e-14  0 
 -1.647201e-15  2.083288e-14  0 
VECTORS displacement_ITER4 FLOAT
 -9.835404e-07  -1.270565e-06  0 
 2.726515e-06  -6.676755e-06  0 
 -1.745228e-07  -1.157995e-06  0 
 7.004924e-07  -1.123243e-06  0 
 7.004924e-07  1.123242e-06  0 
 -1.745228e-07  1.157995e-06  0 
 -9.835404e-07  1.270565e-06  0 
 2.788637e-07  -2.920837e-06  0 
 1.790020e-07  -2.678242e-06  0 
 1.790020e-07  2.678242e-06  0 
 2.788637e-07  2.920837e-06  0 
 2.726515e-06  6.676755e-06  0 
 -9.526423e-07  -1.891738e-06  0 
 -6.748989e-07  -2.656590e-06  0 
 1.846406e-07  -3.643197e-06  0 
 -7.533116e-07  -1.273312e-06  0 
 -5.409928e-07  -1.271868e-06  0 
 -3.517292e-07  -1.240551e-06  0 
 4.605804e-08  -1.154113e-06  0 
 2.652923e-07  -1.147129e-06  0 
 4.831407e-07  -1.136436e-06  0 
 8.547952e-07  -5.659039e-07  0 
 9.086362e-07  -7.066941e-15  0 
 8.547952e-07  5.659038e-07  0 
 4.831407e-07  1.136436e-06  0 
 2.652923e-07  1.147129e-06  0 
 4.605804e-08  1.154113e-06  0 
 -3.517292e-07  1.240551e-06  0 
 -5.409928e-07  1.271868e-06  0 
 -7.533116e-07  1.273312e-06  0 
 -1.648715e-07  -1.713411e-06  0 
 -1.088748e-07  -2.253979e-06  0 
 2.313579e-08  -2.715558e-06  0 
 4.051706e-06  -6.117243e-06  0 
 3.663973e-06  -4.900706e-06  0 
 2.201777e-06  -3.711925e-06  0 
 6.898022e-07  -1.665417e-06  0 
 6.239445e-07  -2.188768e-06  0 
 4.357505e-07  -2.599307e-06  0 
 1.948010e-07  -2.884698e-06  0 
 1.886388e-07  -2.838574e-06  0 
 2.012110e-07  -2.767351e-06  0 
 6.898022e-07  1.665417e-06  0 
 6.239445e-07  2.188768e-06  0 
 4.357505e-07  2.599307e-06  0 
 -1.374730e-06  -9.954471e-07  0 
 -1.889858e-06  -8.708419e-15  0 
 -1.374730e-06  9.954471e-07  0 
 -1.648715e-07  1.713411e-06  0 
 -1.088748e-07  2.253979e-06  0 
 2.313579e-08  2.715558e-06  0 
 2.012110e-07  2.767351e-06  0 
 1.886388e-07  2.838574e-06  0 
 1.948010e-07  2.884698e-06  0 
 -9.526423e-07  1.891738e-06  0 
 -6.748989e-07  2.656590e-06  0 
 1.846406e-07  3.643197e-06  0 
 2.201777e-06  3.711925e-06  0 
 3.663973e-06  4.900706e-06  0 
 4.051706e-06  6.117243e-06  0 
 -6.938052e-07  -1.883310e-06  0 
 -4.773088e-07  -1.851468e-06  0 
 -3.051054e-07  -1.796108e-06  0 
 -4.032803e-07  -2.642536e-06  0 
 -2.006341e-07  -2.599859e-06  0 
 -7.596900e-08  -2.483560e-06  0 
 6.838534e-07  -3.728779e-06  0 
 8.694573e-07  -3.766301e-06  0 
 6.022302e-07  -3.471653e-06  0 
 5.148690e-08  -1.708762e-06  0 
 2.637642e-07  -1.699212e-06  0 
 4.759945e-07  -1.684300e-06  0 
 8.048382e-08  -2.245677e-06  0 
 2.598951e-07  -2.233956e-06  0 
 4.361539e-07  -2.215194e-06  0 
 1.487041e-07  -2.684603e-06  0 
 2.484757e-07  -2.645342e-06  0 
 3.418038e-07  -2.616177e-06  0 
 8.363995e-07  -8.349767e-07  0 
 8.771386e-07  -7.463715e-15  0 
 8.363995e-07  8.349767e-07  0 
 7.321444e-07  -1.083658e-06  0 
 7.965540e-07  -7.865651e-15  0 
 7.321444e-07  1.083658e-06  0 
 3.758340e-07  -1.479362e-06  0 
 2.862480e-07  -8.290265e-15  0 
 3.758340e-07  1.479362e-06  0 
 4.759945e-07  1.684300e-06  0 
 2.637642e-07  1.699212e-06  0 
 5.148690e-08  1.708762e-06  0 
 4.361539e-07  2.215194e-06  0 
 2.598951e-07  2.233956e-06  0 
 8.048382e-08  2.245677e-06  0 
 3.418038e-07  2.616177e-06  0 
 2.484757e-07  2.645342e-06  0 
 1.487041e-07  2.684603e-06  0 
 -3.051054e-07  1.796108e-06  0 
 -4.773088e-07  1.851468e-06  0 
 -6.938052e-07  1.883310e-06  0 
 -7.596900e-08  2.483560e-06  0 
 -2.006341e-07  2.599859e-06  0 
 -4.032803e-07  2.642536e-06  0 
 6.022302e-07  3.471653e-06  0 
 8.694573e-07  3.766301e-06  0 
 6.838534e-07  3.728779e-06  0 
VECTORS displacement_ITER5 FLOAT
 1.075779e-05  -1.070482e-05  0 
 4.493220e-05  3.495237e-05  0 
 1.211872e-06  -9.790847e-06  0 
 -7.539118e-06  -9.476079e-06  0 
 -7.539118e-06  9.476078e-06  0 
 1.211872e-06  9.790846e-06  0 
 1.075779e-05  1.070482e-05  0 
 1.618112e-06  1.373887e-05  0 
 -8.496095e-06  1.310124e-05  0 
 -8.496095e-06  -1.310124e-05  0 
 1.618112e-06  -1.373887e-05  0 
 4.493220e-05  -3.495237e-05  0 
 1.146628e-05  -6.056490e-06  0 
 1.516720e-05  -1.428670e-06  0 
 2.639314e-05  7.497529e-06  0 
 8.830944e-06  -1.076371e-05  0 
 6.554924e-06  -1.079798e-05  0 
 3.965644e-06  -1.054598e-05  0 
 -9.995155e-07  -9.751895e-06  0 
 -3.201959e-06  -9.686273e-06  0 
 -5.385771e-06  -9.591591e-06  0 
 -9.202459e-06  -4.736079e-06  0 
 -9.754867e-06  -1.029319e-13  0 
 -9.202459e-06  4.736079e-06  0 
 -5.385771e-06  9.591591e-06  0 
 -3.201959e-06  9.686273e-06  0 
 -9.995155e-07  9.751894e-06  0 
 3.965644e-06  1.054598e-05  0 
 6.554924e-06  1.079798e-05  0 
 8.830944e-06  1.076371e-05  0 
 1.234507e-06  -4.314741e-06  0 
 1.393247e-06  1.247551e-06  0 
 1.591784e-06  7.259871e-06  0 
 2.933559e-05  3.330608e-05  0 
 1.698622e-05  2.894202e-05  0 
 7.531659e-06  2.246900e-05  0 
 -7.583912e-06  -4.153213e-06  0 
 -7.808964e-06  1.273268e-06  0 
 -8.181145e-06  6.996706e-06  0 
 -9.892057e-07  1.356656e-05  0 
 -3.502939e-06  1.340085e-05  0 
 -5.984720e-06  1.324912e-05  0 
 -7.583912e-06  4.153213e-06  0 
 -7.808964e-06  -1.273268e-06  0 
 -8.181145e-06  -6.996706e-06  0 
 -1.214412e-05  6.858670e-06  0 
 -1.330002e-05  -1.192086e-13  0 
 -1.214412e-05  -6.858671e-06  0 
 1.234507e-06  4.314741e-06  0 
 1.393247e-06  -1.247551e-06  0 
 1.591784e-06  -7.259871e-06  0 
 -5.984720e-06  -1.324912e-05  0 
 -3.502939e-06  -1.340085e-05  0 
 -9.892057e-07  -1.356656e-05  0 
 1.146628e-05  6.056490e-06  0 
 1.516720e-05  1.428670e-06  0 
 2.639314e-05  -7.497529e-06  0 
 7.531659e-06  -2.246900e-05  0 
 1.698622e-05  -2.894202e-05  0 
 2.933559e-05  -3.330608e-05  0 
 9.461106e-06  -5.959953e-06  0 
 7.061511e-06  -5.647172e-06  0 
 4.280326e-06  -5.092075e-06  0 
 1.252190e-05  -1.295936e-06  0 
 9.084928e-06  -7.860800e-07  0 
 5.290225e-06  1.325269e-07  0 
 1.961610e-05  7.669474e-06  0 
 1.246488e-05  7.794960e-06  0 
 6.215991e-06  7.554202e-06  0 
 -9.872027e-07  -4.287412e-06  0 
 -3.213238e-06  -4.248870e-06  0 
 -5.419011e-06  -4.202965e-06  0 
 -9.444077e-07  1.273844e-06  0 
 -3.268262e-06  1.285915e-06  0 
 -5.561308e-06  1.284274e-06  0 
 -9.182823e-07  7.228323e-06  0 
 -3.375514e-06  7.173990e-06  0 
 -5.793809e-06  7.092927e-06  0 
 -9.241221e-06  -2.076383e-06  0 
 -9.803571e-06  -1.070254e-13  0 
 -9.241221e-06  2.076382e-06  0 
 -9.519154e-06  6.559129e-07  0 
 -1.005600e-05  -1.110887e-13  0 
 -9.519154e-06  -6.559131e-07  0 
 -1.006604e-05  3.304779e-06  0 
 -1.077845e-05  -1.151661e-13  0 
 -1.006604e-05  -3.304779e-06  0 
 -5.419011e-06  4.202965e-06  0 
 -3.213238e-06  4.248870e-06  0 
 -9.872027e-07  4.287412e-06  0 
 -5.561308e-06  -1.284274e-06  0 
 -3.268262e-06  -1.285915e-06  0 
 -9.444077e-07  -1.273844e-06  0 
 -5.793809e-06  -7.092928e-06  0 
 -3.375514e-06  -7.173990e-06  0 
 -9.182822e-07  -7.228323e-06  0 
 4.280326e-06  5.092075e-06  0 
 7.061511e-06  5.647172e-06  0 
 9.461106e-06  5.959953e-06  0 
 5.290225e-06  -1.325272e-07  0 
 9.084928e-06  7.860797e-07  0 
 1.252190e-05  1.295936e-06  0 
 6.215991e-06  -7.554202e-06  0 
 1.246488e-05  -7.794960e-06  0 
 1.961610e-05  -7.669474e-06  0 
VECTORS displacement_ITER6 FLOAT
 -1.622977e-05  2.621777e-05  0 
 -9.168957e-06  1.843011e-05  0 
 2.109436e-06  1.399784e-05  0 
 4.746683e-06  1.355610e-05  0 
 4.746683e-06  -1.355610e-05  0 
 2.109436e-06  -1.399784e-05  0 
 -1.622977e-05  -2.621777e-05  0 
 7.485895e-07  7.091858e-06  0 
 5.949163e-06  5.920042e-06  0 
 5.949163e-06  -5.920042e-06  0 
 7.485895e-07  -7.091858e-06  0 
 -9.168957e-06  -1.843011e-05  0 
 -8.298682e-06  1.351823e-05  0 
 -3.181419e-06  1.057331e-05  0 
 -2.992038e-06  1.124401e-05  0 
 -9.220622e-06  2.541586e-05  0 
 -3.979953e-06  2.317936e-05  0 
 -6.497301e-08  1.951125e-05  0 
 2.764130e-06  1.385672e-05  0 
 3.410449e-06  1.373881e-05  0 
 4.064653e-06  1.363929e-05  0 
 7.214525e-06  7.595845e-06  0 
 8.110377e-06  6.626679e-15  0 
 7.214525e-06  -7.595845e-06  0 
 4.064653e-06  -1.363929e-05  0 
 3.410449e-06  -1.373881e-05  0 
 2.764130e-06  -1.385672e-05  0 
 -6.497301e-08  -1.951125e-05  0 
 -3.979953e-06  -2.317936e-05  0 
 -9.220622e-06  -2.541586e-05  0 
 2.040510e-06  1.220213e-05  0 
 2.013783e-06  1.061386e-05  0 
 1.738242e-06  9.154808e-06  0 
 -1.247175e-05  1.683380e-05  0 
 -1.043235e-05  1.345120e-05  0 
 -5.312812e-06  1.014815e-05  0 
 4.673782e-06  1.180267e-05  0 
 4.615824e-06  1.037924e-05  0 
 5.120366e-06  8.829666e-06  0 
 2.215760e-06  6.940946e-06  0 
 3.451904e-06  6.708921e-06  0 
 4.639421e-06  6.361016e-06  0 
 4.673782e-06  -1.180267e-05  0 
 4.615824e-06  -1.037924e-05  0 
 5.120366e-06  -8.829666e-06  0 
 1.445813e-05  5.337173e-07  0 
 1.752990e-05  6.958213e-15  0 
 1.445813e-05  -5.337173e-07  0 
 2.040510e-06  -1.220213e-05  0 
 2.013783e-06  -1.061386e-05  0 
 1.738242e-06  -9.154808e-06  0 
 4.639421e-06  -6.361016e-06  0 
 3.451904e-06  -6.708921e-06  0 
 2.215760e-06  -6.940946e-06  0 
 -8.298682e-06  -1.351823e-05  0 
 -3.181419e-06  -1.057331e-05  0 
 -2.992038e-06  -1.124401e-05  0 
 -5.312812e-06  -1.014815e-05  0 
 -1.043235e-05  -1.345120e-05  0 
 -1.247175e-05  -1.683380e-05  0 
 -5.364958e-06  1.353830e-05  0 
 -2.279364e-06  1.336343e-05  0 
 3.314016e-07  1.283342e-05  0 
 -2.569683e-06  1.058417e-05  0 
 -1.426423e-06  1.069150e-05  0 
 7.929548e-08  1.081032e-05  0 
 -3.613344e-06  1.153217e-05  0 
 -3.216473e-06  1.170940e-05  0 
 -1.362408e-06  1.093377e-05  0 
 2.729895e-06  1.216262e-05  0 
 3.385817e-06  1.208119e-05  0 
 4.025419e-06  1.195979e-05  0 
 2.670102e-06  1.060178e-05  0 
 3.350416e-06  1.057076e-05  0 
 4.024511e-06  1.049846e-05  0 
 2.458942e-06  9.067791e-06  0 
 3.308663e-06  8.944143e-06  0 
 4.205123e-06  8.854464e-06  0 
 5.333402e-06  5.624309e-06  0 
 5.699242e-06  6.696568e-15  0 
 5.333402e-06  -5.624309e-06  0 
 5.205754e-06  5.154669e-06  0 
 5.205307e-06  6.786978e-15  0 
 5.205754e-06  -5.154669e-06  0 
 6.513082e-06  5.415828e-06  0 
 7.347171e-06  6.866682e-15  0 
 6.513082e-06  -5.415828e-06  0 
 4.025419e-06  -1.195979e-05  0 
 3.385817e-06  -1.208119e-05  0 
 2.729895e-06  -1.216262e-05  0 
 4.024511e-06  -1.049846e-05  0 
 3.350416e-06  -1.057076e-05  0 
 2.670102e-06  -1.060178e-05  0 
 4.205123e-06  -8.854464e-06  0 
 3.308663e-06  -8.944143e-06  0 
 2.458942e-06  -9.067791e-06  0 
 3.314016e-07  -1.283342e-05  0 
 -2.279364e-06  -1.336343e-05  0 
 -5.364958e-06  -1.353830e-05  0 
 7.929548e-08  -1.081032e-05  0 
 -1.426423e-06  -1.069150e-05  0 
 -2.569683e-06  -1.058417e-05  0 
 -1.362408e-06  -1.093377e-05  0 
 -3.216473e-06  -1.170940e-05  0 
 -3.613344e-06  -1.153217e-05  0 
VECTORS displacement_ITER7 FLOAT
 6.914097e-06  -2.824749e-05  0 
 -1.538108e-04  -1.638809e-04  0 
 -1.035972e-05  1.061474e-05  0 
 1.382188e-05  1.058430e-05  0 
 1.382188e-05  -1.058430e-05  0 
 -1.035972e-05  -1.061474e-05  0 
 6.914097e-06  2.824749e-05  0 
 -9.525434e-06  -5.200487e-05  0 
 1.543433e-05  -4.963712e-05  0 
 1.543433e-05  4.963712e-05  0 
 -9.525434e-06  5.200487e-05  0 
 -1.538108e-04  1.638809e-04  0 
 -1.814307e-05  -2.026011e-07  0 
 -4.579893e-05  -7.036084e-06  0 
 -9.098199e-05  -3.879463e-05  0 
 -1.194700e-05  -2.388034e-05  0 
 -2.004325e-05  -1.348735e-05  0 
 -1.928958e-05  -1.081963e-06  0 
 -4.185858e-06  1.075115e-05  0 
 1.892491e-06  1.077255e-05  0 
 7.896994e-06  1.070496e-05  0 
 1.771471e-05  4.399595e-06  0 
 1.870016e-05  -8.133091e-14  0 
 1.771471e-05  -4.399595e-06  0 
 7.896994e-06  -1.070496e-05  0 
 1.892491e-06  -1.077256e-05  0 
 -4.185858e-06  -1.075115e-05  0 
 -1.928958e-05  1.081963e-06  0 
 -2.004325e-05  1.348735e-05  0 
 -1.194700e-05  2.388034e-05  0 
 -1.000649e-05  -4.042338e-06  0 
 -1.020965e-05  -1.886584e-05  0 
 -1.031078e-05  -3.531210e-05  0 
 -8.276246e-05  -1.523130e-04  0 
 -3.837252e-05  -1.243728e-04  0 
 -1.476541e-05  -8.950406e-05  0 
 1.382843e-05  -3.891053e-06  0 
 1.441071e-05  -1.853536e-05  0 
 1.513539e-05  -3.376355e-05  0 
 -3.440671e-06  -5.136196e-05  0 
 2.727566e-06  -5.075634e-05  0 
 9.001730e-06  -5.016346e-05  0 
 1.382843e-05  3.891053e-06  0 
 1.441071e-05  1.853536e-05  0 
 1.513539e-05  3.376355e-05  0 
 2.241273e-05  -2.473320e-05  0 
 2.415390e-05  -9.390441e-14  0 
 2.241273e-05  2.473320e-05  0 
 -1.000649e-05  4.042338e-06  0 
 -1.020965e-05  1.886584e-05  0 
 -1.031078e-05  3.531210e-05  0 
 9.001730e-06  5.016346e-05  0 
 2.727566e-06  5.075634e-05  0 
 -3.440671e-06  5.136196e-05  0 
 -1.814307e-05  2.026009e-07  0 
 -4.579893e-05  7.036084e-06  0 
 -9.098199e-05  3.879463e-05  0 
 -1.476541e-05  8.950406e-05  0 
 -3.837252e-05  1.243728e-04  0 
 -8.276246e-05  1.523130e-04  0 
 -2.023190e-05  -1.075798e-06  0 
 -2.074688e-05  -2.621084e-06  0 
 -1.736298e-05  -3.745676e-06  0 
 -3.858195e-05  -7.689327e-06  0 
 -2.948450e-05  -1.027223e-05  0 
 -1.966191e-05  -1.446150e-05  0 
 -6.419848e-05  -4.046923e-05  0 
 -3.841351e-05  -4.223251e-05  0 
 -1.999075e-05  -4.058470e-05  0 
 -4.056800e-06  -4.010219e-06  0 
 1.976428e-06  -3.973723e-06  0 
 7.965431e-06  -3.936481e-06  0 
 -3.929304e-06  -1.893661e-05  0 
 2.277607e-06  -1.889127e-05  0 
 8.394394e-06  -1.874213e-05  0 
 -3.720329e-06  -3.501782e-05  0 
 2.640808e-06  -3.464160e-05  0 
 8.905382e-06  -3.421837e-05  0 
 1.820279e-05  -1.742948e-06  0 
 1.963947e-05  -8.445151e-14  0 
 1.820279e-05  1.742947e-06  0 
 1.894344e-05  -9.312728e-06  0 
 2.043216e-05  -8.758521e-14  0 
 1.894344e-05  9.312728e-06  0 
 1.977480e-05  -1.674661e-05  0 
 2.148236e-05  -9.072440e-14  0 
 1.977480e-05  1.674661e-05  0 
 7.965431e-06  3.936481e-06  0 
 1.976428e-06  3.973722e-06  0 
 -4.056800e-06  4.010219e-06  0 
 8.394394e-06  1.874213e-05  0 
 2.277607e-06  1.889127e-05  0 
 -3.929304e-06  1.893661e-05  0 
 8.905382e-06  3.421837e-05  0 
 2.640809e-06  3.464160e-05  0 
 -3.720329e-06  3.501782e-05  0 
 -1.736298e-05  3.745676e-06  0 
 -2.074688e-05  2.621084e-06  0 
 -2.023190e-05  1.075798e-06  0 
 -1.966191e-05  1.446150e-05  0 
 -2.948450e-05  1.027223e-05  0 
 -3.858195e-05  7.689327e-06  0 
 -1.999075e-05  4.058470e-05  0 
 -3.841351e-05  4.223251e-05  0 
 -6.419848e-05  4.046923e-05  0 
VECTORS displacement_ITER8 FLOAT
 6.950212e-05  -6.657065e-05  0 
 8.515433e-05  9.629566e-05  0 
 -8.127890e-07  -3.996225e-05  0 
 -3.447622e-05  -3.874268e-05  0 
 -3.447622e-05  3.874268e-05  0 
 -8.127890e-07  3.996225e-05  0 
 6.950212e-05  6.657065e-05  0 
 -2.206053e-06  4.336254e-05  0 
 -3.296347e-05  4.149401e-05  0 
 -3.296347e-05  -4.149401e-05  0 
 -2.206053e-06  -4.336254e-05  0 
 8.515433e-05  -9.629566e-05  0 
 5.278340e-05  -2.358881e-05  0 
 4.534766e-05  9.939467e-07  0 
 5.852548e-05  2.761620e-05  0 
 4.873965e-05  -6.555253e-05  0 
 2.997378e-05  -6.195758e-05  0 
 1.260863e-05  -5.415986e-05  0 
 -9.301510e-06  -3.959654e-05  0 
 -1.772929e-05  -3.927879e-05  0 
 -2.610986e-05  -3.899733e-05  0 
 -4.639662e-05  -2.213561e-05  0 
 -5.082158e-05  -1.429755e-14  0 
 -4.639662e-05  2.213561e-05  0 
 -2.610986e-05  3.899733e-05  0 
 -1.772929e-05  3.927879e-05  0 
 -9.301510e-06  3.959654e-05  0 
 1.260863e-05  5.415986e-05  0 
 2.997378e-05  6.195758e-05  0 
 4.873965e-05  6.555253e-05  0 
 -7.282348e-07  -1.847170e-05  0 
 -1.026658e-06  2.468799e-06  0 
 -1.504805e-06  2.304707e-05  0 
 4.810653e-05  9.132804e-05  0 
 2.176810e-05  7.858744e-05  0 
 5.001626e-06  6.152851e-05  0 
 -3.429957e-05  -1.775152e-05  0 
 -3.383887e-05  2.411578e-06  0 