# vtk DataFile Version 3.1
this is an vtk file created by FEMAC
ASCII
DATASET UNSTRUCTURED_GRID
POINTS 105 FLOAT
6.000000 0.000000 0.000000
6.500000 0.000000 0.000000
6.000000 0.200000 0.000000
6.000000 0.400000 0.000000
6.000000 0.600000 0.000000
6.000000 0.800000 0.000000
6.000000 1.000000 0.000000
6.500000 0.200000 0.000000
6.500000 0.400000 0.000000
6.500000 0.600000 0.000000
6.500000 0.800000 0.000000
6.500000 1.000000 0.000000
6.125000 0.000000 0.000000
6.250000 0.000000 0.000000
6.375000 0.000000 0.000000
6.000000 0.050000 0.000000
6.000000 0.100000 0.000000
6.000000 0.150000 0.000000
6.000000 0.250000 0.000000
6.000000 0.300000 0.000000
6.000000 0.350000 0.000000
6.000000 0.450000 0.000000
6.000000 0.500000 0.000000
6.000000 0.550000 0.000000
6.000000 0.650000 0.000000
6.000000 0.700000 0.000000
6.000000 0.750000 0.000000
6.000000 0.850000 0.000000
6.000000 0.900000 0.000000
6.000000 0.950000 0.000000
6.125000 0.200000 0.000000
6.250000 0.200000 0.000000
6.375000 0.200000 0.000000
6.500000 0.050000 0.000000
6.500000 0.100000 0.000000
6.500000 0.150000 0.000000
6.125000 0.400000 0.000000
6.250000 0.400000 0.000000
6.375000 0.400000 0.000000
6.500000 0.250000 0.000000
6.500000 0.300000 0.000000
6.500000 0.350000 0.000000
6.125000 0.600000 0.000000
6.250000 0.600000 0.000000
6.375000 0.600000 0.000000
6.500000 0.450000 0.000000
6.500000 0.500000 0.000000
6.500000 0.550000 0.000000
6.125000 0.800000 0.000000
6.250000 0.800000 0.000000
6.375000 0.800000 0.000000
6.500000 0.650000 0.000000
6.500000 0.700000 0.000000
6.500000 0.750000 0.000000
6.125000 1.000000 0.000000
6.250000 1.000000 0.000000
6.375000 1.000000 0.000000
6.500000 0.850000 0.000000
6.500000 0.900000 0.000000
6.500000 0.950000 0.000000
6.125000 0.050000 0.000000
6.125000 0.100000 0.000000
6.125000 0.150000 0.000000
6.250000 0.050000 0.000000
6.250000 0.100000 0.000000
6.250000 0.150000 0.000000
6.375000 0.050000 0.000000
6.375000 0.100000 0.000000
6.375000 0.150000 0.000000
6.125000 0.250000 0.000000
6.125000 0.300000 0.000000
6.125000 0.350000 0.000000
6.250000 0.250000 0.000000
6.250000 0.300000 0.000000
6.250000 0.350000 0.000000
6.375000 0.250000 0.000000
6.375000 0.300000 0.000000
6.375000 0.350000 0.000000
6.125000 0.450000 0.000000
6.125000 0.500000 0.000000
6.125000 0.550000 0.000000
6.250000 0.450000 0.000000
6.250000 0.500000 0.000000
6.250000 0.550000 0.000000
6.375000 0.450000 0.000000
6.375000 0.500000 0.000000
6.375000 0.550000 0.000000
6.125000 0.650000 0.000000
6.125000 0.700000 0.000000
6.125000 0.750000 0.000000
6.250000 0.650000 0.000000
6.250000 0.700000 0.000000
6.250000 0.750000 0.000000
6.375000 0.650000 0.000000
6.375000 0.700000 0.000000
6.375000 0.750000 0.000000
6.125000 0.850000 0.000000
6.125000 0.900000 0.000000
6.125000 0.950000 0.000000
6.250000 0.850000 0.000000
6.250000 0.900000 0.000000
6.250000 0.950000 0.000000
6.375000 0.850000 0.000000
6.375000 0.900000 0.000000
6.375000 0.950000 0.000000
CELLS 80 400 
4 0 12 60 15
4 15 60 61 16
4 16 61 62 17
4 17 62 30  2
4 12 13 63 60
4 60 63 64 61
4 61 64 65 62
4 62 65 31 30
4 13 14 66 63
4 63 66 67 64
4 64 67 68 65
4 65 68 32 31
4 14  1 33 66
4 66 33 34 67
4 67 34 35 68
4 68 35  7 32
4 2 30 69 18
4 18 69 70 19
4 19 70 71 20
4 20 71 36  3
4 30 31 72 69
4 69 72 73 70
4 70 73 74 71
4 71 74 37 36
4 31 32 75 72
4 72 75 76 73
4 73 76 77 74
4 74 77 38 37
4 32  7 39 75
4 75 39 40 76
4 76 40 41 77
4 77 41  8 38
4 3 36 78 21
4 21 78 79 22
4 22 79 80 23
4 23 80 42  4
4 36 37 81 78
4 78 81 82 79
4 79 82 83 80
4 80 83 43 42
4 37 38 84 81
4 81 84 85 82
4 82 85 86 83
4 83 86 44 43
4 38  8 45 84
4 84 45 46 85
4 85 46 47 86
4 86 47  9 44
4 4 42 87 24
4 24 87 88 25
4 25 88 89 26
4 26 89 48  5
4 42 43 90 87
4 87 90 91 88
4 88 91 92 89
4 89 92 49 48
4 43 44 93 90
4 90 93 94 91
4 91 94 95 92
4 92 95 50 49
4 44  9 51 93
4 93 51 52 94
4 94 52 53 95
4 95 53 10 50
4 5 48 96 27
4 27 96 97 28
4 28 97 98 29
4 29 98 54  6
4 48 49 99 96
4 96  99 100  97
4 97 100 101  98
4 98 101  55  54
4 49  50 102  99
4 99 102 103 100
4 100 103 104 101
4 101 104  56  55
4 50  10  57 102
4 102  57  58 103
4 103  58  59 104
4 104  59  11  56
CELL_TYPES 80
9 9 9 9 9 9 9 9 9 9 9 9 9 9 9 9 9 9 9 9 9 9 9 9 9 9 9 9 9 9 9 9 9 9 9 9 9 9 9 9 9 9 9 9 9 9 9 9 9 9 9 9 9 9 9 9 9 9 9 9 9 9 9 9 9 9 9 9 9 9 9 9 9 9 9 9 9 9 9 9 
POINT_DATA 105
VECTORS displacement_ITER1 FLOAT
 2.314861e-14  1.344051e-13  0 
 2.309545e-14  1.529158e-13  0 
 1.578694e-14  1.344156e-13  0 
 8.200243e-15  1.344309e-13  0 
 6.875958e-16  1.344355e-13  0 
 -6.895984e-15  1.344865e-13  0 
 -1.428300e-14  1.344808e-13  0 
 1.563940e-14  1.529253e-13  0 
 8.116848e-15  1.530118e-13  0 
 7.184836e-16  1.530165e-13  0 
 -6.807285e-15  1.529962e-13  0 
 -1.423807e-14  1.529916e-13  0 
 2.313111e-14  1.390158e-13  0 
 2.311817e-14  1.436354e-13  0 
 2.310729e-14  1.482705e-13  0 
 2.130510e-14  1.344057e-13  0 
 1.946192e-14  1.344078e-13  0 
 1.762142e-14  1.344115e-13  0 
 1.410136e-14  1.344198e-13  0 
 1.224403e-14  1.343948e-13  0 
 1.027273e-14  1.343850e-13  0 
 6.316728e-15  1.344340e-13  0 
 4.440342e-15  1.344363e-13  0 
 2.565587e-15  1.344366e-13  0 
 -1.301915e-15  1.344145e-13  0 
 -3.249935e-15  1.344352e-13  0 
 -5.129141e-15  1.344702e-13  0 
 -8.740044e-15  1.344843e-13  0 
 -1.058684e-14  1.344823e-13  0 
 -1.243486e-14  1.344812e-13  0 
 1.574976e-14  1.390130e-13  0 
 1.571266e-14  1.436356e-13  0 
 1.567703e-14  1.482678e-13  0 
 2.123600e-14  1.529164e-13  0 
 1.937568e-14  1.529186e-13  0 
 1.751152e-14  1.529221e-13  0 
 8.170031e-15  1.391119e-13  0 
 8.145988e-15  1.437600e-13  0 
 8.128295e-15  1.483934e-13  0 
 1.360208e-14  1.529291e-13  0 
 1.169490e-14  1.529218e-13  0 
 9.871220e-15  1.529379e-13  0 
 7.035752e-16  1.391110e-13  0 
 7.155953e-16  1.437604e-13  0 
 7.212659e-16  1.483924e-13  0 
 6.270505e-15  1.530150e-13  0 
 4.421243e-15  1.530170e-13  0 
 2.570348e-15  1.530176e-13  0 
 -6.874318e-15  1.390985e-13  0 
 -6.851117e-15  1.437234e-13  0 
 -6.829401e-15  1.483532e-13  0 
 -1.118903e-15  1.529674e-13  0 
 -2.965845e-15  1.529623e-13  0 
 -4.851158e-15  1.529796e-13  0 
 -1.426767e-14  1.391005e-13  0 
 -1.425668e-14  1.437237e-13  0 
 -1.424774e-14  1.483552e-13  0 
 -8.669844e-15  1.529950e-13  0 
 -1.052772e-14  1.529932e-13  0 
 -1.238325e-14  1.529920e-13  0 
 2.128533e-14  1.390158e-13  0 
 1.943966e-14  1.390154e-13  0 
 1.759460e-14  1.390144e-13  0 
 2.126715e-14  1.436352e-13  0 
 1.941589e-14  1.436348e-13  0 
 1.756446e-14  1.436348e-13  0 
 2.125068e-14  1.482704e-13  0 
 1.939339e-14  1.482698e-13  0 
 1.753512e-14  1.482687e-13  0 
 1.387450e-14  1.390205e-13  0 
 1.199444e-14  1.390645e-13  0 
 1.008625e-14  1.391056e-13  0 
 1.382438e-14  1.436704e-13  0 
 1.193270e-14  1.437001e-13  0 
 1.004036e-14  1.437291e-13  0 
 1.377747e-14  1.482885e-13  0 
 1.188255e-14  1.483353e-13  0 
 1.000551e-14  1.483789e-13  0 
 6.303633e-15  1.391109e-13  0 
 4.436410e-15  1.391101e-13  0 
 2.569531e-15  1.391103e-13  0 
 6.288668e-15  1.437607e-13  0 
 4.430792e-15  1.437608e-13  0 
 2.572916e-15  1.437606e-13  0 
 6.277173e-15  1.483930e-13  0 
 4.425174e-15  1.483927e-13  0 
 2.572832e-15  1.483925e-13  0 
 -1.205712e-15  1.391182e-13  0 
 -3.107787e-15  1.391059e-13  0 
 -4.992500e-15  1.390908e-13  0 
 -1.178788e-15  1.437508e-13  0 
 -3.071134e-15  1.437426e-13  0 
 -4.962824e-15  1.437346e-13  0 
 -1.162881e-15  1.483916e-13  0 
 -3.046061e-15  1.483767e-13  0 
 -4.936368e-15  1.483589e-13  0 
 -8.722308e-15  1.390995e-13  0 
 -1.057064e-14  1.391001e-13  0 
 -1.241925e-14  1.391004e-13  0 
 -8.702937e-15  1.437231e-13  0 
 -1.055437e-14  1.437233e-13  0 
 -1.240564e-14  1.437236e-13  0 
 -8.684358e-15  1.483539e-13  0 
 -1.053938e-14  1.483546e-13  0 
 -1.239376e-14  1.483551e-13  0 
VECTORS displacement_ITER2 FLOAT
 -3.748112e-14  -2.354052e-13  0 
 -3.749328e-14  -2.690360e-13  0 
 -2.399095e-14  -2.353921e-13  0 
 -1.054181e-14  -2.351218e-13  0 
 2.944046e-15  -2.351234e-13  0 
 1.638886e-14  -2.353436e-13  0 
 2.987611e-14  -2.353574e-13  0 
 -2.407002e-14  -2.690325e-13  0 
 -1.059354e-14  -2.690054e-13  0 
 2.988504e-15  -2.690070e-13  0 
 1.646922e-14  -2.689840e-13  0 
 2.989541e-14  -2.689882e-13  0 
 -3.748111e-14  -2.438218e-13  0 
 -3.748569e-14  -2.522324e-13  0 
 -3.748970e-14  -2.606370e-13  0 
 -3.411080e-14  -2.354047e-13  0 
 -3.074063e-14  -2.354027e-13  0 
 -2.736826e-14  -2.353988e-13  0 
 -2.059466e-14  -2.353070e-13  0 
 -1.722756e-14  -2.351896e-13  0 
 -1.385789e-14  -2.351110e-13  0 
 -7.173858e-15  -2.351218e-13  0 
 -3.800140e-15  -2.351218e-13  0 
 -4.258687e-16  -2.351227e-13  0 
 6.218597e-15  -2.351394e-13  0 
 9.563275e-15  -2.351800e-13  0 
 1.294892e-14  -2.352525e-13  0 
 1.976447e-14  -2.353502e-13  0 
 2.313596e-14  -2.353544e-13  0 
 2.650574e-14  -2.353567e-13  0 
 -2.401696e-14  -2.438206e-13  0 
 -2.403320e-14  -2.522301e-13  0 
 -2.404785e-14  -2.606381e-13  0 
 -3.413407e-14  -2.690359e-13  0 
 -3.077607e-14  -2.690355e-13  0 
 -2.742062e-14  -2.690343e-13  0 
 -1.056683e-14  -2.435724e-13  0 
 -1.057881e-14  -2.520431e-13  0 
 -1.058597e-14  -2.605202e-13  0 
 -2.073539e-14  -2.690427e-13  0 
 -1.736539e-14  -2.690083e-13  0 
 -1.399460e-14  -2.689834e-13  0 
 2.965297e-15  -2.435724e-13  0 
 2.977402e-15  -2.520419e-13  0 
 2.984689e-15  -2.605201e-13  0 
 -7.196302e-15  -2.690052e-13  0 
 -3.801265e-15  -2.690054e-13  0 
 -4.067830e-16  -2.690061e-13  0 
 1.641292e-14  -2.437730e-13  0 
 1.643176e-14  -2.521837e-13  0 
 1.644900e-14  -2.605905e-13  0 
 6.431043e-15  -2.690116e-13  0 
 9.826610e-15  -2.689987e-13  0 
 1.317832e-14  -2.689883e-13  0 
 2.987830e-14  -2.437740e-13  0 
 2.988424e-14  -2.521848e-13  0 
 2.988962e-14  -2.605891e-13  0 
 1.982153e-14  -2.689857e-13  0 
 2.317785e-14  -2.689872e-13  0 
 2.653623e-14  -2.689880e-13  0 
 -3.411579e-14  -2.438216e-13  0 
 -3.074956e-14  -2.438212e-13  0 
 -2.738301e-14  -2.438208e-13  0 
 -3.412256e-14  -2.522324e-13  0 
 -3.075949e-14  -2.522323e-13  0 
 -2.739629e-14  -2.522315e-13  0 
 -3.412933e-14  -2.606371e-13  0 
 -3.076916e-14  -2.606374e-13  0 
 -2.740906e-14  -2.606379e-13  0 
 -2.066281e-14  -2.437532e-13  0 
 -1.729712e-14  -2.436927e-13  0 
 -1.393059e-14  -2.436338e-13  0 
 -2.067813e-14  -2.521843e-13  0 
 -1.731792e-14  -2.521364e-13  0 
 -1.395157e-14  -2.520884e-13  0 
 -2.069303e-14  -2.606031e-13  0 
 -1.733247e-14  -2.605758e-13  0 
 -1.396335e-14  -2.605496e-13  0 
 -7.182275e-15  -2.435720e-13  0 
 -3.800083e-15  -2.435723e-13  0 
 -4.181576e-16  -2.435722e-13  0 
 -7.189645e-15  -2.520419e-13  0 
 -3.800703e-15  -2.520410e-13  0 
 -4.117617e-16  -2.520411e-13  0 
 -7.193944e-15  -2.605201e-13  0 
 -3.801323e-15  -2.605202e-13  0 
 -4.084356e-16  -2.605203e-13  0 
 6.324219e-15  -2.436135e-13  0 
 9.686051e-15  -2.436692e-13  0 
 1.305398e-14  -2.437263e-13  0 
 6.350159e-15  -2.520771e-13  0 
 9.716492e-15  -2.521120e-13  0 
 1.307670e-14  -2.521473e-13  0 
 6.366871e-15  -2.605293e-13  0 
 9.740704e-15  -2.605523e-13  0 
 1.309895e-14  -2.605763e-13  0 
 1.977992e-14  -2.437729e-13  0 
 2.314675e-14  -2.437733e-13  0 
 2.651299e-14  -2.437737e-13  0 
 1.979484e-14  -2.521847e-13  0 
 2.315804e-14  -2.521850e-13  0 
 2.652112e-14  -2.521849e-13  0 
 1.980926e-14  -2.605900e-13  0 
 2.316909e-14  -2.605895e-13  0 
 2.652924e-14  -2.605892e-13  0 
VECTORS displacement_ITER3 FLOAT
 2.512219e-05  -1.663191e-05  0 
 2.509294e-05  4.597885e-05  0 
 4.706704e-07  -1.648031e-05  0 
 -1.422820e-05  -2.483492e-07  0 
 -1.422820e-05  2.483492e-07  0 
 4.706704e-07  1.648031e-05  0 
 2.512219e-05  1.663191e-05  0 
 8.100444e-07  4.558575e-05  0 
 -1.453340e-05  1.177815e-06  0 
 -1.453340e-05  -1.177815e-06  0 
 8.100444e-07  -4.558575e-05  0 
 2.509294e-05  -4.597885e-05  0 
 2.517436e-05  -1.194907e-06  0 
 2.533162e-05  1.434822e-05  0 
 2.545918e-05  3.014642e-05  0 
 1.894855e-05  -1.662549e-05  0 
 1.277278e-05  -1.660061e-05  0 
 6.609158e-06  -1.655120e-05  0 
 -5.388829e-06  -1.305236e-05  0 
 -9.916092e-06  -9.193105e-06  0 
 -1.292019e-05  -4.920476e-06  0 
 -1.430475e-05  -1.249985e-07  0 
 -1.433056e-05  2.152689e-14  0 
 -1.430475e-05  1.249986e-07  0 
 -1.292019e-05  4.920476e-06  0 
 -9.916092e-06  9.193105e-06  0 
 -5.388829e-06  1.305236e-05  0 
 6.609158e-06  1.655120e-05  0 
 1.277278e-05  1.660061e-05  0 
 1.894855e-05  1.662549e-05  0 
 4.382062e-07  -1.189540e-06  0 
 3.238172e-07  1.418309e-05  0 
 2.773054e-07  2.989331e-05  0 
 1.897250e-05  4.595119e-05  0 
 1.282094e-05  4.586597e-05  0 
 6.734427e-06  4.573013e-05  0 
 -1.425095e-05  -2.322998e-08  0 
 -1.429372e-05  1.551828e-07  0 
 -1.428069e-05  4.716282e-07  0 
 -4.191470e-06  3.998596e-05  0 
 -9.085157e-06  3.073070e-05  0 
 -1.285885e-05  1.799860e-05  0 
 -1.425095e-05  2.323002e-08  0 
 -1.429372e-05  -1.551827e-07  0 
 -1.428069e-05  -4.716282e-07  0 
 -1.448526e-05  5.664886e-07  0 
 -1.447457e-05  2.428568e-14  0 
 -1.448526e-05  -5.664885e-07  0 
 4.382062e-07  1.189540e-06  0 
 3.238172e-07  -1.418309e-05  0 
 2.773054e-07  -2.989331e-05  0 
 -1.285885e-05  -1.799860e-05  0 
 -9.085157e-06  -3.073070e-05  0 
 -4.191470e-06  -3.998596e-05  0 
 2.517436e-05  1.194907e-06  0 
 2.533162e-05  -1.434822e-05  0 
 2.545918e-05  -3.014642e-05  0 
 6.734427e-06  -4.573013e-05  0 
 1.282094e-05  -4.586597e-05  0 
 1.897250e-05  -4.595119e-05  0 
 1.897972e-05  -1.195437e-06  0 
 1.277953e-05  -1.196206e-06  0 
 6.592536e-06  -1.194726e-06  0 
 1.907039e-05  1.434487e-05  0 
 1.280940e-05  1.432197e-05  0 
 6.555522e-06  1.426401e-05  0 
 1.911613e-05  3.012877e-05  0 
 1.284634e-05  3.008459e-05  0 
 6.592925e-06  3.001738e-05  0 
 -5.471791e-06  -9.157299e-07  0 
 -9.949110e-06  -6.249626e-07  0 
 -1.290713e-05  -3.393651e-07  0 
 -5.643340e-06  1.073872e-05  0 
 -1.002830e-05  7.190384e-06  0 
 -1.287903e-05  3.715142e-06  0 
 -5.134918e-06  2.287400e-05  0 
 -9.911447e-06  1.566696e-05  0 
 -1.326996e-05  8.047883e-06  0 
 -1.431767e-05  -1.279619e-08  0 
 -1.433773e-05  2.224011e-14  0 
 -1.431767e-05  1.279624e-08  0 
 -1.436415e-05  6.963547e-08  0 
 -1.439688e-05  2.293267e-14  0 
 -1.436415e-05  -6.963542e-08  0 
 -1.447310e-05  2.708986e-07  0 
 -1.452410e-05  2.361257e-14  0 
 -1.447310e-05  -2.708985e-07  0 
 -1.290713e-05  3.393651e-07  0 
 -9.949110e-06  6.249627e-07  0 
 -5.471791e-06  9.157299e-07  0 
 -1.287903e-05  -3.715142e-06  0 
 -1.002830e-05  -7.190384e-06  0 
 -5.643340e-06  -1.073872e-05  0 
 -1.326996e-05  -8.047883e-06  0 
 -9.911447e-06  -1.566696e-05  0 
 -5.134918e-06  -2.287400e-05  0 
 6.592536e-06  1.194726e-06  0 
 1.277953e-05  1.196206e-06  0 
 1.897972e-05  1.195437e-06  0 
 6.555522e-06  -1.426401e-05  0 
 1.280940e-05  -1.432196e-05  0 
 1.907039e-05  -1.434487e-05  0 
 6.592925e-06  -3.001738e-05  0 
 1.284634e-05  -3.008459e-05  0 
 1.911613e-05  -3.012877e-05  0 
VECTORS displacement_ITER4 FLOAT
 -2.772117e-06  2.859141e-05  0 
 -3.966344e-06  3.909481e-05  0 
 -6.020820e-06  2.880310e-05  0 
 9.111827e-06  6.150849e-07  0 
 9.111827e-06  -6.150849e-07  0 
 -6.020820e-06  -2.880310e-05  0 
 -2.772117e-06  -2.859141e-05  0 
 -5.690236e-06  3.849219e-05  0 
 1.017453e-05  2.260982e-06  0 
 1.017453e-05  -2.260982e-06  0 
 -5.690236e-06  -3.849219e-05  0 
 -3.966344e-06  -3.909481e-05  0 
 -2.541329e-06  3.079266e-05  0 
 -2.284562e-06  3.338266e-05  0 
 -2.549969e-06  3.637563e-05  0 
 -3.646854e-06  2.860091e-05  0 
 -4.503415e-06  2.863604e-05  0 
 -5.307782e-06  2.870379e-05  0 
 -1.571722e-06  2.893023e-05  0 
 4.077835e-06  2.311619e-05  0 
 8.322831e-06  1.313389e-05  0 
 9.117157e-06  3.125817e-07  0 
 9.119777e-06  -8.763259e-15  0 
 9.117157e-06  -3.125817e-07  0 
 8.322831e-06  -1.313389e-05  0 
 4.077835e-06  -2.311619e-05  0 
 -1.571722e-06  -2.893023e-05  0 
 -5.307782e-06  -2.870379e-05  0 
 -4.503415e-06  -2.863604e-05  0 
 -3.646854e-06  -2.860091e-05  0 
 -6.055671e-06  3.046893e-05  0 
 -6.500332e-06  3.299645e-05  0 
 -6.681271e-06  3.620670e-05  0 
 -4.671123e-06  3.906512e-05  0 
 -5.334932e-06  3.895262e-05  0 
 -5.758390e-06  3.874005e-05  0 
 8.927703e-06  5.009685e-07  0 
 9.011815e-06  3.230751e-07  0 
 9.815533e-06  4.552182e-07  0 
 2.852027e-06  3.067630e-05  0 
 1.162159e-05  2.437010e-05  0 
 1.547364e-05  1.711538e-05  0 
 8.927703e-06  -5.009685e-07  0 
 9.011815e-06  -3.230751e-07  0 
 9.815533e-06  -4.552182e-07  0 
 1.025111e-05  1.066058e-06  0 
 1.027485e-05  -1.065989e-14  0 
 1.025111e-05  -1.066058e-06  0 
 -6.055671e-06  -3.046893e-05  0 
 -6.500332e-06  -3.299645e-05  0 
 -6.681271e-06  -3.620670e-05  0 
 1.547364e-05  -1.711538e-05  0 
 1.162159e-05  -2.437010e-05  0 
 2.852027e-06  -3.067630e-05  0 
 -2.541329e-06  -3.079266e-05  0 
 -2.284562e-06  -3.338266e-05  0 
 -2.549969e-06  -3.637563e-05  0 
 -5.758390e-06  -3.874005e-05  0 
 -5.334932e-06  -3.895262e-05  0 
 -4.671123e-06  -3.906512e-05  0 
 -3.482747e-06  3.077828e-05  0 
 -4.411624e-06  3.072847e-05  0 
 -5.286169e-06  3.063153e-05  0 
 -3.380131e-06  3.337215e-05  0 
 -4.424812e-06  3.331525e-05  0 
 -5.454566e-06  3.317999e-05  0 
 -3.691870e-06  3.636030e-05  0 
 -4.676401e-06  3.633378e-05  0 
 -5.613572e-06  3.630683e-05  0 
 -2.851104e-06  2.307870e-05  0 
 1.365151e-06  1.609916e-05  0 
 5.399400e-06  8.695665e-06  0 
 -2.949927e-06  2.504157e-05  0 
 6.613664e-07  1.677703e-05  0 
 4.853978e-06  8.738883e-06  0 
 -1.506635e-06  2.860020e-05  0 
 2.474672e-06  1.934727e-05  0 
 5.462681e-06  8.896663e-06  0 
 9.032046e-06  2.615911e-07  0 
 9.074414e-06  -9.213327e-15  0 
 9.032046e-06  -2.615911e-07  0 
 9.152595e-06  1.251204e-07  0 
 9.171451e-06  -9.684702e-15  0 
 9.152595e-06  -1.251204e-07  0 
 9.478968e-06  3.251208e-07  0 
 9.397166e-06  -1.016895e-14  0 
 9.478968e-06  -3.251208e-07  0 
 5.399400e-06  -8.695665e-06  0 
 1.365151e-06  -1.609916e-05  0 
 -2.851104e-06  -2.307870e-05  0 
 4.853978e-06  -8.738883e-06  0 
 6.613664e-07  -1.677703e-05  0 
 -2.949927e-06  -2.504157e-05  0 
 5.462681e-06  -8.896663e-06  0 
 2.474672e-06  -1.934727e-05  0 
 -1.506635e-06  -2.860020e-05  0 
 -5.286169e-06  -3.063153e-05  0 
 -4.411624e-06  -3.072847e-05  0 
 -3.482747e-06  -3.077828e-05  0 
 -5.454566e-06  -3.317999e-05  0 
 -4.424812e-06  -3.331525e-05  0 
 -3.380131e-06  -3.337215e-05  0 
 -5.613572e-06  -3.630683e-05  0 
 -4.676401e-06  -3.633378e-05  0 
 -3.691870e-06  -3.636030e-05  0 
VECTORS displacement_ITER5 FLOAT
 -1.005301e-04  8.336099e-05  0 
 -1.009317e-04  -1.667157e-04  0 
 -1.219876e-06  8.301898e-05  0 
 7.016824e-05  1.394493e-06  0 
 7.016824e-05  -1.394493e-06  0 
 -1.219876e-06  -8.301898e-05  0 
 -1.005301e-04  -8.336099e-05  0 
 -2.248491e-06  -1.644833e-04  0 
 7.246595e-05  -1.103555e-06  0 
 7.246595e-05  1.103555e-06  0 
 -2.248491e-06  1.644833e-04  0 
 -1.009317e-04  1.667157e-04  0 
 -1.003204e-04  2.162942e-05  0 
 -1.008619e-04  -4.019653e-05  0 
 -1.018813e-04  -1.032300e-04  0 
 -7.571499e-05  8.335546e-05  0 
 -5.090045e-05  8.331570e-05  0 
 -2.607674e-05  8.320603e-05  0 
 2.755029e-05  6.802435e-05  0 
 4.951823e-05  4.854521e-05  0 
 6.403037e-05  2.625064e-05  0 
 7.050490e-05  7.098667e-07  0 
 7.061364e-05  -1.193605e-13  0 
 7.050490e-05  -7.098670e-07  0 
 6.403037e-05  -2.625064e-05  0 
 4.951823e-05  -4.854521e-05  0 
 2.755029e-05  -6.802435e-05  0 
 -2.607674e-05  -8.320603e-05  0 
 -5.090045e-05  -8.331570e-05  0 
 -7.571499e-05  -8.335546e-05  0 
 -1.342423e-06  2.137691e-05  0 
 -1.196654e-06  -3.978584e-05  0 
 -1.074960e-06  -1.018501e-04  0 
 -7.669971e-05  -1.665450e-04  0 
 -5.199441e-05  -1.660709e-04  0 
 -2.713539e-05  -1.653642e-04  0 
 7.010562e-05  3.661365e-07  0 
 7.033505e-05  -5.575426e-07  0 
 7.122753e-05  -1.664163e-06  0 
 2.768764e-05  -1.392617e-04  0 
 5.590085e-05  -1.007015e-04  0 
 7.379242e-05  -5.292872e-05  0 
 7.010562e-05  -3.661368e-07  0 
 7.033505e-05  5.575423e-07  0 
 7.122753e-05  1.664163e-06  0 
 7.209618e-05  -6.649705e-07  0 
 7.199237e-05  -1.360098e-13  0 
 7.209618e-05  6.649702e-07  0 
 -1.342423e-06  -2.137691e-05  0 
 -1.196654e-06  3.978584e-05  0 
 -1.074960e-06  1.018501e-04  0 
 7.379242e-05  5.292872e-05  0 
 5.590085e-05  1.007015e-04  0 
 2.768764e-05  1.392617e-04  0 
 -1.003204e-04  -2.162943e-05  0 
 -1.008619e-04  4.019653e-05  0 
 -1.018813e-04  1.032300e-04  0 
 -2.713539e-05  1.653642e-04  0 
 -5.199441e-05  1.660709e-04  0 
 -7.669971e-05  1.665450e-04  0 
 -7.561591e-05  2.162441e-05  0 
 -5.083344e-05  2.159212e-05  0 
 -2.604560e-05  2.151261e-05  0 
 -7.592143e-05  -4.020089e-05  0 
 -5.093524e-05  -4.016012e-05  0 
 -2.600708e-05  -4.001870e-05  0 
 -7.641038e-05  -1.031079e-04  0 
 -5.125439e-05  -1.027961e-04  0 
 -2.618158e-05  -1.023656e-04  0 
 2.543702e-05  1.618755e-05  0 
 4.690299e-05  1.139806e-05  0 
 6.189488e-05  6.175562e-06  0 
 2.594268e-05  -3.004261e-05  0 
 4.661711e-05  -2.021080e-05  0 
 6.155081e-05  -1.032229e-05  0 
 2.616699e-05  -7.612000e-05  0 
 4.844409e-05  -5.185596e-05  0 
 6.345491e-05  -2.773810e-05  0 
 7.047364e-05  2.001934e-07  0 
 7.060496e-05  -1.234980e-13  0 
 7.047364e-05  -2.001937e-07  0 
 7.077317e-05  -3.156068e-07  0 
 7.090669e-05  -1.276575e-13  0 
 7.077317e-05  3.156066e-07  0 
 7.138291e-05  -7.914384e-07  0 
 7.143445e-05  -1.318299e-13  0 
 7.138291e-05  7.914381e-07  0 
 6.189488e-05  -6.175562e-06  0 
 4.690299e-05  -1.139806e-05  0 
 2.543702e-05  -1.618755e-05  0 
 6.155081e-05  1.032229e-05  0 
 4.661711e-05  2.021080e-05  0 
 2.594268e-05  3.004261e-05  0 
 6.345491e-05  2.773810e-05  0 
 4.844409e-05  5.185596e-05  0 
 2.616699e-05  7.612000e-05  0 
 -2.604560e-05  -2.151261e-05  0 
 -5.083344e-05  -2.159213e-05  0 
 -7.561591e-05  -2.162441e-05  0 
 -2.600708e-05  4.001870e-05  0 
 -5.093524e-05  4.016012e-05  0 
 -7.592143e-05  4.020089e-05  0 
 -2.618158e-05  1.023656e-04  0 
 -5.125439e-05  1.027961e-04  0 
 -7.641038e-05  1.031079e-04  0 
VECTORS displacement_ITER6 FLOAT
 7.938489e-05  -9.443626e-05  0 
 7.787712e-05  8.347254e-05  0 
 8.270722e-06  -9.441294e-05  0 
 -4.529101e-05  -9.463812e-07  0 
 -4.529101e-05  9.463812e-07  0 
 8.270722e-06  9.441294e-05  0 
 7.938489e-05  9.443626e-05  0 
 7.082057e-06  8.338253e-05  0 
 -4.239916e-05  2.008409e-06  0 
 -4.239916e-05  -2.008409e-06  0 
 7.082057e-06  -8.338253e-05  0 
 7.787712e-05  -8.347254e-05  0 
 7.894213e-05  -4.974438e-05  0 
 7.842921e-05  -5.305213e-06  0 
 7.820263e-05  3.904882e-05  0 
 6.154824e-05  -9.442084e-05  0 
 4.370907e-05  -9.438049e-05  0 
 2.592589e-05  -9.434851e-05  0 
 -1.523993e-05  -8.877014e-05  0 
 -3.790754e-05  -6.682269e-05  0 
 -4.996970e-05  -3.466675e-05  0 
 -4.507580e-05  -4.457086e-07  0 
 -4.502558e-05  6.957984e-15  0 
 -4.507580e-05  4.457086e-07  0 
 -4.996970e-05  3.466675e-05  0 
 -3.790754e-05  6.682269e-05  0 
 -1.523993e-05  8.877014e-05  0 
 2.592589e-05  9.434851e-05  0 
 4.370907e-05  9.438049e-05  0 
 6.154824e-05  9.442084e-05  0 
 7.491068e-06  -4.930445e-05  0 
 7.424248e-06  -5.200579e-06  0 
 7.155235e-06  3.855852e-05  0 
 6.031806e-05  8.340435e-05  0 
 4.263713e-05  8.325939e-05  0 
 2.486856e-05  8.317512e-05  0 
 -4.431531e-05  -9.400358e-07  0 
 -4.349835e-05  -1.017913e-07  0 
 -4.304662e-05  4.892940e-07  0 
 -1.529662e-05  7.437227e-05  0 
 -3.348754e-05  5.349465e-05  0 
 -4.203802e-05  2.630051e-05  0 
 -4.431531e-05  9.400358e-07  0 
 -4.349835e-05  1.017913e-07  0 
 -4.304662e-05  -4.892940e-07  0 
 -4.303884e-05  8.562379e-07  0 
 -4.323332e-05  7.063885e-15  0 
 -4.303884e-05  -8.562379e-07  0 
 7.491068e-06  4.930445e-05  0 
 7.424248e-06  5.200579e-06  0 
 7.155235e-06  -3.855852e-05  0 
 -4.203802e-05  -2.630051e-05  0 
 -3.348754e-05  -5.349465e-05  0 
 -1.529662e-05  -7.437227e-05  0 
 7.894213e-05  4.974438e-05  0 
 7.842921e-05  5.305213e-06  0 
 7.820263e-05  -3.904882e-05  0 
 2.486856e-05  -8.317512e-05  0 
 4.263713e-05  -8.325939e-05  0 
 6.031806e-05  -8.340435e-05  0 
 6.110753e-05  -4.973170e-05  0 
 4.328934e-05  -4.968449e-05  0 
 2.545344e-05  -4.956830e-05  0 
 6.067339e-05  -5.298107e-06  0 
 4.287748e-05  -5.278178e-06  0 
 2.508630e-05  -5.247192e-06  0 
 6.041041e-05  3.902691e-05  0 
 4.266389e-05  3.896064e-05  0 
 2.494045e-05  3.883370e-05  0 
 -1.208544e-05  -3.644199e-05  0 
 -2.860754e-05  -2.556312e-05  0 
 -3.938505e-05  -1.466615e-05  0 
 -1.192849e-05  -3.843620e-06  0 
 -2.643838e-05  -2.540645e-06  0 
 -3.720837e-05  -1.298704e-06  0 
 -1.191840e-05  2.877683e-05  0 
 -2.764803e-05  2.046171e-05  0 
 -3.813486e-05  1.177851e-05  0 
 -4.446270e-05  -4.689089e-07  0 
 -4.449614e-05  7.011641e-15  0 
 -4.446270e-05  4.689089e-07  0 
 -4.379181e-05  -8.341597e-08  0 
 -4.389271e-05  7.041776e-15  0 
 -4.379181e-05  8.341598e-08  0 
 -4.333002e-05  2.906640e-07  0 
 -4.342589e-05  7.057057e-15  0 
 -4.333002e-05  -2.906639e-07  0 
 -3.938505e-05  1.466615e-05  0 
 -2.860754e-05  2.556312e-05  0 
 -1.208544e-05  3.644199e-05  0 
 -3.720837e-05  1.298704e-06  0 
 -2.643838e-05  2.540645e-06  0 
 -1.192849e-05  3.843620e-06  0 
 -3.813486e-05  -1.177851e-05  0 
 -2.764803e-05  -2.046171e-05  0 
 -1.191840e-05  -2.877683e-05  0 
 2.545344e-05  4.956830e-05  0 
 4.328934e-05  4.968449e-05  0 
 6.110753e-05  4.973170e-05  0 
 2.508630e-05  5.247192e-06  0 
 4.287748e-05  5.278178e-06  0 
 6.067339e-05  5.298107e-06  0 
 2.494045e-05  -3.883370e-05  0 
 4.266389e-05  -3.896064e-05  0 
 6.041041e-05  -3.902691e-05  0 
VECTORS displacement_ITER7 FLOAT
 -1.256137e-04  1.356855e-04  0 
 -1.277844e-04  -9.422796e-05  0 
 -3.419621e-05  1.345927e-04  0 
 4.192239e-05  2.356470e-06  0 
 4.192239e-05  -2.356470e-06  0 
 -3.419621e-05  -1.345927e-04  0 
 -1.256137e-04  -1.356855e-04  0 
 -3.577470e-05  -9.461129e-05  0 
 4.546825e-05  -1.512490e-06  0 
 4.546825e-05  1.512489e-06  0 
 -3.577470e-05  9.461129e-05  0 
 -1.277844e-04  9.422796e-05  0 
 -1.263035e-04  7.763981e-05  0 
 -1.261615e-04  1.986790e-05  0 
 -1.263692e-04  -3.710946e-05  0 
 -1.029196e-04  1.356021e-04  0 
 -8.001405e-05  1.353659e-04  0 
 -5.706745e-05  1.350132e-04  0 
 -6.743718e-06  1.198095e-04  0 
 2.133139e-05  8.941297e-05  0 
 3.887887e-05  4.712349e-05  0 
 4.222906e-05  1.158322e-06  0 
 4.233803e-05  -9.381468e-14  0 
 4.222906e-05  -1.158322e-06  0 
 3.887887e-05  -4.712349e-05  0 
 2.133139e-05  -8.941297e-05  0 
 -6.743718e-06  -1.198095e-04  0 
 -5.706745e-05  -1.350132e-04  0 
 -8.001405e-05  -1.353659e-04  0 
 -1.029196e-04  -1.356022e-04  0 
 -3.371431e-05  7.683236e-05  0 
 -3.414952e-05  1.973975e-05  0 
 -3.460553e-05  -3.721571e-05  0 
 -1.042778e-04  -9.432147e-05  0 
 -8.108562e-05  -9.451506e-05  0 
 -5.819377e-05  -9.466916e-05  0 
 4.197831e-05  1.205849e-06  0 
 4.231295e-05  2.766446e-07  0 
 4.324514e-05  -1.020301e-06  0 
 -7.929801e-06  -9.069374e-05  0 
 1.989260e-05  -7.282715e-05  0 
 3.980189e-05  -4.353139e-05  0 
 4.197831e-05  -1.205849e-06  0 
 4.231295e-05  -2.766448e-07  0 
 4.324514e-05  1.020301e-06  0 
 4.476197e-05  -7.943847e-07  0 
 4.462364e-05  -1.065911e-13  0 
 4.476197e-05  7.943845e-07  0 
 -3.371431e-05  -7.683236e-05  0 
 -3.414952e-05  -1.973975e-05  0 
 -3.460553e-05  3.721571e-05  0 
 3.980189e-05  4.353139e-05  0 
 1.989260e-05  7.282715e-05  0 
 -7.929801e-06  9.069374e-05  0 
 -1.263035e-04  -7.763981e-05  0 
 -1.261615e-04  -1.986790e-05  0 
 -1.263692e-04  3.710946e-05  0 
 -5.819377e-05  9.466916e-05  0 
 -8.108562e-05  9.451505e-05  0 
 -1.042778e-04  9.432147e-05  0 
 -1.030546e-04  7.758158e-05  0 
 -7.994254e-05  7.742842e-05  0 
 -5.686153e-05  7.719011e-05  0 
 -1.031934e-04  1.988105e-05  0 
 -8.017228e-05  1.988180e-05  0 
 -5.712424e-05  1.983340e-05  0 
 -1.036388e-04  -3.715353e-05  0 
 -8.072645e-05  -3.724306e-05  0 
 -5.772985e-05  -3.729356e-05  0 
 -6.665720e-06  5.788127e-05  0 
 1.623738e-05  3.990414e-05  0 
 3.285291e-05  2.185118e-05  0 
 -6.429547e-06  1.507151e-05  0 
 1.520250e-05  1.029884e-05  0 
 3.146793e-05  5.183585e-06  0 
 -7.612560e-06  -2.835872e-05  0 
 1.598963e-05  -1.996379e-05  0 
 3.366332e-05  -1.077109e-05  0 
 4.235999e-05  6.335980e-07  0 
 4.248206e-05  -9.697997e-14  0 
 4.235999e-05  -6.335982e-07  0 
 4.278675e-05  1.297322e-07  0 
 4.296127e-05  -1.001704e-13  0 
 4.278675e-05  -1.297324e-07  0 
 4.375201e-05  -5.582023e-07  0 
 4.387083e-05  -1.033762e-13  0 
 4.375201e-05  5.582021e-07  0 
 3.285291e-05  -2.185118e-05  0 
 1.623738e-05  -3.990414e-05  0 
 -6.665720e-06  -5.788127e-05  0 
 3.146793e-05  -5.183586e-06  0 
 1.520250e-05  -1.029884e-05  0 
 -6.429547e-06  -1.507151e-05  0 
 3.366332e-05  1.077109e-05  0 
 1.598963e-05  1.996379e-05  0 
 -7.612560e-06  2.835872e-05  0 
 -5.686153e-05  -7.719011e-05  0 
 -7.994254e-05  -7.742842e-05  0 
 -1.030546e-04  -7.758158e-05  0 
 -5.712424e-05  -1.983340e-05  0 
 -8.017228e-05  -1.988180e-05  0 
 -1.031934e-04  -1.988105e-05  0 
 -5.772985e-05  3.729356e-05  0 
 -8.072645e-05  3.724306e-05  0 
 -1.036388e-04  3.715353e-05  0 
VECTORS displacement_ITER8 FLOAT
 -2.114124e-05  -3.413011e-07  0 
 -2.235990e-05  -4.068742e-05  0 
 -4.217105e-06  -1.277845e-07  0 
 1.687190e-05  2.079577e-07  0 
 1.687190e-05  -2.079577e-07  0 
 -4.217105e-06  1.277845e-07  0 
 -2.114124e-05  3.413011e-07  0 
 -6.498331e-06  -4.077451e-05  0 
 2.070777e-05  -1.468152e-06  0 
 2.070777e-05  1.468152e-06  0 
 -6.498331e-06  4.077451e-05  0 
 -2.235990e-05  4.068742e-05  0 
 -2.091358e-05  -1.031908e-05  0 
 -2.128228e-05  -2.029059e-05  0 
 -2.173311e-05  -3.040404e-05  0 
 -1.689918e-05  -3.087368e-07  0 
 -1.270473e-05  -2.290038e-07  0 
 -8.494030e-06  -1.430669e-07  0 
 1.942483e-06  4.014073e-06  0 
 1.058519e-05  4.005027e-06  0 
 1.574142e-05  6.089705e-07  0 
 1.730519e-05  9.393633e-08  0 
 1.744214e-05  -1.705877e-14  0 
 1.730519e-05  -9.393636e-08  0 
 1.574142e-05  -6.089705e-07  0 
 1.058519e-05  -4.005027e-06  0 
 1.942483e-06  -4.014073e-06  0 
 -8.494030e-06  1.430669e-07  0 
 -1.270473e-05  2.290037e-07  0 
 -1.689918e-05  3.087368e-07  0 
 -4.755520e-06  -1.011784e-05  0 
 -4.932716e-06  -2.002403e-05  0 
 -5.213405e-06  -3.048290e-05  0 
 -1.802375e-05  -4.071319e-05  0 