# vtk DataFile Version 3.1
this is an vtk file created by FEMAC
ASCII
DATASET UNSTRUCTURED_GRID
POINTS 105 FLOAT
3.000000 0.000000 0.000000
3.500000 0.000000 0.000000
3.000000 0.200000 0.000000
3.000000 0.400000 0.000000
3.000000 0.600000 0.000000
3.000000 0.800000 0.000000
3.000000 1.000000 0.000000
3.500000 0.200000 0.000000
3.500000 0.400000 0.000000
3.500000 0.600000 0.000000
3.500000 0.800000 0.000000
3.500000 1.000000 0.000000
3.125000 0.000000 0.000000
3.250000 0.000000 0.000000
3.375000 0.000000 0.000000
3.000000 0.050000 0.000000
3.000000 0.100000 0.000000
3.000000 0.150000 0.000000
3.000000 0.250000 0.000000
3.000000 0.300000 0.000000
3.000000 0.350000 0.000000
3.000000 0.450000 0.000000
3.000000 0.500000 0.000000
3.000000 0.550000 0.000000
3.000000 0.650000 0.000000
3.000000 0.700000 0.000000
3.000000 0.750000 0.000000
3.000000 0.850000 0.000000
3.000000 0.900000 0.000000
3.000000 0.950000 0.000000
3.125000 0.200000 0.000000
3.250000 0.200000 0.000000
3.375000 0.200000 0.000000
3.500000 0.050000 0.000000
3.500000 0.100000 0.000000
3.500000 0.150000 0.000000
3.125000 0.400000 0.000000
3.250000 0.400000 0.000000
3.375000 0.400000 0.000000
3.500000 0.250000 0.000000
3.500000 0.300000 0.000000
3.500000 0.350000 0.000000
3.125000 0.600000 0.000000
3.250000 0.600000 0.000000
3.375000 0.600000 0.000000
3.500000 0.450000 0.000000
3.500000 0.500000 0.000000
3.500000 0.550000 0.000000
3.125000 0.800000 0.000000
3.250000 0.800000 0.000000
3.375000 0.800000 0.000000
3.500000 0.650000 0.000000
3.500000 0.700000 0.000000
3.500000 0.750000 0.000000
3.125000 1.000000 0.000000
3.250000 1.000000 0.000000
3.375000 1.000000 0.000000
3.500000 0.850000 0.000000
3.500000 0.900000 0.000000
3.500000 0.950000 0.000000
3.125000 0.050000 0.000000
3.125000 0.100000 0.000000
3.125000 0.150000 0.000000
3.250000 0.050000 0.000000
3.250000 0.100000 0.000000
3.250000 0.150000 0.000000
3.375000 0.050000 0.000000
3.375000 0.100000 0.000000
3.375000 0.150000 0.000000
3.125000 0.250000 0.000000
3.125000 0.300000 0.000000
3.125000 0.350000 0.000000
3.250000 0.250000 0.000000
3.250000 0.300000 0.000000
3.250000 0.350000 0.000000
3.375000 0.250000 0.000000
3.375000 0.300000 0.000000
3.375000 0.350000 0.000000
3.125000 0.450000 0.000000
3.125000 0.500000 0.000000
3.125000 0.550000 0.000000
3.250000 0.450000 0.000000
3.250000 0.500000 0.000000
3.250000 0.550000 0.000000
3.375000 0.450000 0.000000
3.375000 0.500000 0.000000
3.375000 0.550000 0.000000
3.125000 0.650000 0.000000
3.125000 0.700000 0.000000
3.125000 0.750000 0.000000
3.250000 0.650000 0.000000
3.250000 0.700000 0.000000
3.250000 0.750000 0.000000
3.375000 0.650000 0.000000
3.375000 0.700000 0.000000
3.375000 0.750000 0.000000
3.125000 0.850000 0.000000
3.125000 0.900000 0.000000
3.125000 0.950000 0.000000
3.250000 0.850000 0.000000
3.250000 0.900000 0.000000
3.250000 0.950000 0.000000
3.375000 0.850000 0.000000
3.375000 0.900000 0.000000
3.375000 0.950000 0.000000
CELLS 80 400 
4 0 12 60 15
4 15 60 61 16
4 16 61 62 17
4 17 62 30  2
4 12 13 63 60
4 60 63 64 61
4 61 64 65 62
4 62 65 31 30
4 13 14 66 63
4 63 66 67 64
4 64 67 68 65
4 65 68 32 31
4 14  1 33 66
4 66 33 34 67
4 67 34 35 68
4 68 35  7 32
4 2 30 69 18
4 18 69 70 19
4 19 70 71 20
4 20 71 36  3
4 30 31 72 69
4 69 72 73 70
4 70 73 74 71
4 71 74 37 36
4 31 32 75 72
4 72 75 76 73
4 73 76 77 74
4 74 77 38 37
4 32  7 39 75
4 75 39 40 76
4 76 40 41 77
4 77 41  8 38
4 3 36 78 21
4 21 78 79 22
4 22 79 80 23
4 23 80 42  4
4 36 37 81 78
4 78 81 82 79
4 79 82 83 80
4 80 83 43 42
4 37 38 84 81
4 81 84 85 82
4 82 85 86 83
4 83 86 44 43
4 38  8 45 84
4 84 45 46 85
4 85 46 47 86
4 86 47  9 44
4 4 42 87 24
4 24 87 88 25
4 25 88 89 26
4 26 89 48  5
4 42 43 90 87
4 87 90 91 88
4 88 91 92 89
4 89 92 49 48
4 43 44 93 90
4 90 93 94 91
4 91 94 95 92
4 92 95 50 49
4 44  9 51 93
4 93 51 52 94
4 94 52 53 95
4 95 53 10 50
4 5 48 96 27
4 27 96 97 28
4 28 97 98 29
4 29 98 54  6
4 48 49 99 96
4 96  99 100  97
4 97 100 101  98
4 98 101  55  54
4 49  50 102  99
4 99 102 103 100
4 100 103 104 101
4 101 104  56  55
4 50  10  57 102
4 102  57  58 103
4 103  58  59 104
4 104  59  11  56
CELL_TYPES 80
9 9 9 9 9 9 9 9 9 9 9 9 9 9 9 9 9 9 9 9 9 9 9 9 9 9 9 9 9 9 9 9 9 9 9 9 9 9 9 9 9 9 9 9 9 9 9 9 9 9 9 9 9 9 9 9 9 9 9 9 9 9 9 9 9 9 9 9 9 9 9 9 9 9 9 9 9 9 9 9 
POINT_DATA 105
VECTORS displacement_ITER1 FLOAT
 1.557761e-14  3.670382e-14  0 
 1.541124e-14  4.979827e-14  0 
 1.046016e-14  3.673102e-14  0 
 4.970109e-15  3.677254e-14  0 
 -5.046657e-16  3.677720e-14  0 
 -5.991563e-15  3.680208e-14  0 
 -1.113423e-14  3.677978e-14  0 
 1.004402e-14  4.982437e-14  0 
 4.757977e-15  4.993695e-14  0 
 -3.450362e-16  4.994161e-14  0 
 -5.634281e-15  4.989511e-14  0 
 -1.097609e-14  4.987389e-14  0 
 1.552850e-14  3.993123e-14  0 
 1.549058e-14  4.318306e-14  0 
 1.545472e-14  4.647775e-14  0 
 1.428835e-14  3.670560e-14  0 
 1.300056e-14  3.671141e-14  0 
 1.172129e-14  3.672107e-14  0 
 9.627269e-15  3.671484e-14  0 
 8.342794e-15  3.663402e-14  0 
 6.768909e-15  3.661538e-14  0 
 3.592626e-15  3.678066e-14  0 
 2.229142e-15  3.678494e-14  0 
 8.672908e-16  3.678322e-14  0 
 -2.220474e-15  3.664494e-14  0 
 -3.770928e-15  3.667458e-14  0 
 -5.077355e-15  3.676537e-14  0 
 -7.262248e-15  3.679411e-14  0 
 -8.547806e-15  3.678615e-14  0 
 -9.840341e-15  3.678128e-14  0 
 1.035583e-14  3.992278e-14  0 
 1.025156e-14  4.318302e-14  0 
 1.014879e-14  4.646939e-14  0 
 1.408085e-14  4.980006e-14  0 
 1.274833e-14  4.980594e-14  0 
 1.140622e-14  4.981548e-14  0 
 4.909326e-15  4.016447e-14  0 
 4.851482e-15  4.347672e-14  0 
 4.799988e-15  4.673768e-14  0 
 8.237551e-15  4.980785e-14  0 
 6.840432e-15  4.974472e-14  0 
 5.702735e-15  4.975184e-14  0 
 -4.581169e-16  4.016349e-14  0 
 -4.122962e-16  4.347713e-14  0 
 -3.728223e-16  4.673670e-14  0 
 3.488903e-15  4.994509e-14  0 
 2.210046e-15  4.994906e-14  0 
 9.295571e-16  4.994764e-14  0 
 -5.902771e-15  4.000834e-14  0 
 -5.812414e-15  4.327078e-14  0 
 -5.723542e-15  4.655477e-14  0 
 -1.372669e-15  4.978134e-14  0 
 -2.533978e-15  4.978522e-14  0 
 -3.909085e-15  4.985814e-14  0 
 -1.108727e-14  4.001602e-14  0 
 -1.105129e-14  4.327136e-14  0 
 -1.101738e-14  4.656236e-14  0 
 -6.986892e-15  4.988820e-14  0 
 -8.322669e-15  4.988035e-14  0 
 -9.650346e-15  4.987541e-14  0 
 1.423376e-14  3.993094e-14  0 
 1.293963e-14  3.992958e-14  0 
 1.164751e-14  3.992650e-14  0 
 1.418118e-14  4.318251e-14  0 
 1.287155e-14  4.318133e-14  0 
 1.156175e-14  4.318102e-14  0 
 1.413031e-14  4.647741e-14  0 
 1.280474e-14  4.647590e-14  0 
 1.147678e-14  4.647270e-14  0 
 9.042749e-15  3.994077e-14  0 
 7.715883e-15  4.005218e-14  0 
 6.320399e-15  4.015379e-14  0 
 8.904928e-15  4.326664e-14  0 
 7.554884e-15  4.333550e-14  0 
 6.204206e-15  4.340332e-14  0 
 8.770279e-15  4.650062e-14  0 
 7.405508e-15  4.661472e-14  0 
 6.099023e-15  4.671889e-14  0 
 3.567651e-15  4.016222e-14  0 
 2.225211e-15  4.016086e-14  0 
 8.831149e-16  4.016163e-14  0 
 3.535816e-15  4.347838e-14  0 
 2.219594e-15  4.347880e-14  0 
 9.033711e-16  4.347837e-14  0 
 3.507450e-15  4.673609e-14  0 
 2.213976e-15  4.673521e-14  0 
 9.201590e-16  4.673550e-14  0 
 -1.862254e-15  4.016646e-14  0 
 -3.251640e-15  4.009363e-14  0 
 -4.583141e-15  4.001124e-14  0 
 -1.765039e-15  4.342505e-14  0 
 -3.115735e-15  4.337801e-14  0 
 -4.465779e-15  4.333082e-14  0 
 -1.678843e-15  4.673152e-14  0 
 -2.991419e-15  4.665607e-14  0 
 -4.351596e-15  4.657096e-14  0 
 -7.197560e-15  4.001173e-14  0 
 -8.492909e-15  4.001448e-14  0 
 -9.789934e-15  4.001573e-14  0 
 -7.122565e-15  4.326935e-14  0 
 -8.432331e-15  4.326980e-14  0 
 -9.741930e-15  4.327088e-14  0 
 -7.048358e-15  4.655775e-14  0 
 -8.373031e-15  4.656062e-14  0 
 -9.695644e-15  4.656203e-14  0 
VECTORS displacement_ITER2 FLOAT
 -2.476000e-14  -6.437961e-14  0 
 -2.479049e-14  -8.721091e-14  0 
 -1.552697e-14  -6.434805e-14  0 
 -6.423225e-15  -6.378126e-14  0 
 2.649135e-15  -6.378290e-14  0 
 1.174806e-14  -6.430092e-14  0 
 2.097710e-14  -6.433315e-14  0 
 -1.574975e-14  -8.718893e-14  0 
 -6.568023e-15  -8.686385e-14  0 
 2.786665e-15  -8.686544e-14  0 
 1.197211e-14  -8.713915e-14  0 
 2.101474e-14  -8.716177e-14  0 
 -2.476120e-14  -7.011184e-14  0 
 -2.477374e-14  -7.582736e-14  0 
 -2.478571e-14  -8.152723e-14  0 
 -2.245826e-14  -6.437829e-14  0 
 -2.015640e-14  -6.437357e-14  0 
 -1.784833e-14  -6.436407e-14  0 
 -1.313560e-14  -6.415899e-14  0 
 -1.083498e-14  -6.390309e-14  0 
 -8.551895e-15  -6.374447e-14  0 
 -4.161978e-15  -6.378092e-14  0 
 -1.888303e-15  -6.378050e-14  0 
 3.859280e-16  -6.378184e-14  0 
 4.736072e-15  -6.377308e-14  0 
 6.994716e-15  -6.389417e-14  0 
 9.313451e-15  -6.410571e-14  0 
 1.406746e-14  -6.431680e-14  0 
 1.637436e-14  -6.432663e-14  0 
 1.867561e-14  -6.433169e-14  0 
 -1.559636e-14  -7.010949e-14  0 
 -1.564106e-14  -7.582112e-14  0 
 -1.568416e-14  -8.152722e-14  0 
 -2.252258e-14  -8.721006e-14  0 
 -2.025624e-14  -8.720680e-14  0 
 -1.799637e-14  -8.720007e-14  0 
 -6.477567e-15  -6.949953e-14  0 
 -6.506752e-15  -7.526418e-14  0 
 -6.531121e-15  -8.104676e-14  0 
 -1.356982e-14  -8.709494e-14  0 
 -1.129348e-14  -8.692143e-14  0 
 -8.996389e-15  -8.681608e-14  0 
 2.699706e-15  -6.949948e-14  0 
 2.729025e-15  -7.526293e-14  0 
 2.753522e-15  -8.104669e-14  0 
 -4.224289e-15  -8.686328e-14  0 
 -1.889425e-15  -8.686302e-14  0 
 4.448851e-16  -8.686417e-14  0 
 1.181551e-14  -7.006264e-14  0 
 1.186280e-14  -7.577474e-14  0 
 1.190850e-14  -8.147904e-14  0 
 5.256494e-15  -8.684398e-14  0 
 7.578209e-15  -8.691108e-14  0 
 9.836017e-15  -8.703946e-14  0 
 2.098051e-14  -7.006468e-14  0 
 2.099442e-14  -7.577978e-14  0 
 2.100775e-14  -8.147874e-14  0 
 1.422020e-14  -8.715013e-14  0 
 1.648068e-14  -8.715719e-14  0 
 1.874713e-14  -8.716078e-14  0 
 -2.247178e-14  -7.011138e-14  0 
 -2.018006e-14  -7.011049e-14  0 
 -1.788742e-14  -7.010981e-14  0 
 -2.249057e-14  -7.582746e-14  0 
 -2.020744e-14  -7.582708e-14  0 
 -1.792419e-14  -7.582512e-14  0 
 -2.250936e-14  -8.152710e-14  0 
 -2.023457e-14  -8.152699e-14  0 
 -1.796046e-14  -8.152717e-14  0 
 -1.332084e-14  -6.994520e-14  0 
 -1.102786e-14  -6.979356e-14  0 
 -8.745198e-15  -6.964556e-14  0 
 -1.336595e-14  -7.568383e-14  0 
 -1.108575e-14  -7.554190e-14  0 
 -8.799435e-15  -7.539988e-14  0 
 -1.341065e-14  -8.139519e-14  0 
 -1.113736e-14  -8.127655e-14  0 
 -8.844441e-15  -8.116101e-14  0 
 -4.180442e-15  -6.949858e-14  0 
 -1.888242e-15  -6.949909e-14  0 
 4.036901e-16  -6.949875e-14  0 
 -4.197695e-15  -7.526064e-14  0 
 -1.888862e-15  -7.525874e-14  0 
 4.199705e-16  -7.525990e-14  0 
 -4.211879e-15  -8.104610e-14  0 
 -1.889481e-15  -8.104645e-14  0 
 4.331813e-16  -8.104625e-14  0 
 4.962559e-15  -6.962548e-14  0 
 7.240336e-15  -6.977051e-14  0 
 9.535448e-15  -6.991885e-14  0 
 5.021665e-15  -7.538855e-14  0 
 7.307883e-15  -7.551749e-14  0 
 9.587920e-15  -7.564680e-14  0 
 5.071610e-15  -8.114055e-14  0 
 7.369146e-15  -8.125279e-14  0 
 9.639983e-15  -8.136785e-14  0 
 1.410725e-14  -7.006267e-14  0 
 1.639989e-14  -7.006329e-14  0 
 1.869136e-14  -7.006420e-14  0 
 1.414566e-14  -7.577832e-14  0 
 1.642865e-14  -7.577984e-14  0 
 1.871151e-14  -7.577996e-14  0 
 1.418358e-14  -8.147870e-14  0 
 1.645715e-14  -8.147845e-14  0 
 1.873166e-14  -8.147858e-14  0 
VECTORS displacement_ITER3 FLOAT
 2.655263e-15  5.905213e-15  0 
 2.609914e-15  8.039630e-15  0 
 1.921559e-15  5.924180e-15  0 
 9.573553e-16  6.168905e-15  0 
 -5.536308e-17  6.168590e-15  0 
 -1.020157e-15  5.882158e-15  0 
 -1.766021e-15  5.863269e-15  0 
 1.638862e-15  8.055317e-15  0 
 7.933779e-16  8.279460e-15  0 
 7.867821e-17  8.279100e-15  0 
 -7.642318e-16  8.009756e-15  0 
 -1.720296e-15  7.994147e-15  0 
 2.640496e-15  6.398089e-15  0 
 2.632162e-15  6.914345e-15  0 
 2.623889e-15  7.465599e-15  0 
 2.457640e-15  5.905387e-15  0 
 2.264829e-15  5.907195e-15  0 
 2.082649e-15  5.912750e-15  0 
 1.851742e-15  5.975898e-15  0 
 1.639116e-15  6.109747e-15  0 
 1.363882e-15  6.201869e-15  0 
 6.960945e-16  6.167711e-15  0 
 4.483863e-16  6.168132e-15  0 
 2.018073e-16  6.167790e-15  0 
 -4.501595e-16  6.172972e-15  0 
 -7.238863e-16  6.075490e-15  0 
 -9.396387e-16  5.941968e-15  0 
 -1.186594e-15  5.870857e-15  0 
 -1.371977e-15  5.865350e-15  0 
 -1.566900e-15  5.863493e-15  0 
 1.835759e-15  6.391329e-15  0 
 1.777234e-15  6.919827e-15  0 
 1.720342e-15  7.459819e-15  0 
 2.380484e-15  8.039946e-15  0 
 2.146474e-15  8.041832e-15  0 
 1.902605e-15  8.046671e-15  0 
 9.008514e-16  6.758541e-15  0 
 8.642889e-16  7.296204e-15  0 
 8.329537e-16  7.807182e-15  0 
 1.288270e-15  8.090407e-15  0 
 1.058907e-15  8.213748e-15  0 
 8.737903e-16  8.303073e-15  0 
 -8.175058e-18  6.756766e-15  0 
 2.274367e-17  7.295825e-15  0 
 4.842399e-17  7.805378e-15  0 
 6.209417e-16  8.279531e-15  0 
 4.386320e-16  8.280136e-15  0 
 2.551962e-16  8.279584e-15  0 
 -9.417405e-16  6.356442e-15  0 
 -8.892072e-16  6.885757e-15  0 
 -8.382998e-16  7.423194e-15  0 
 -1.370571e-17  8.272811e-15  0 
 -1.992959e-16  8.177122e-15  0 
 -4.250628e-16  8.053522e-15  0 
 -1.752488e-15  6.361720e-15  0 
 -1.742718e-15  6.880106e-15  0 
 -1.733008e-15  7.427451e-15  0 
 -1.021850e-15  8.001240e-15  0 
 -1.261853e-15  7.996442e-15  0 
 -1.493048e-15  7.994507e-15  0 
 2.440222e-15  6.397566e-15  0 
 2.239787e-15  6.395966e-15  0 
 2.039427e-15  6.393456e-15  0 
 2.418608e-15  6.914395e-15  0 
 2.205008e-15  6.914821e-15  0 
 1.991288e-15  6.916556e-15  0 
 2.397285e-15  7.465101e-15  0 
 2.170677e-15  7.463608e-15  0 
 1.943829e-15  7.461337e-15  0 
 1.615536e-15  6.488877e-15  0 
 1.395440e-15  6.585150e-15  0 
 1.156454e-15  6.676810e-15  0 
 1.548629e-15  7.013871e-15  0 
 1.319710e-15  7.110445e-15  0 
 1.091825e-15  7.206027e-15  0 
 1.485561e-15  7.555793e-15  0 
 1.252927e-15  7.645020e-15  0 
 1.035869e-15  7.729472e-15  0 
 6.759317e-16  6.758567e-15  0 
 4.465868e-16  6.757350e-15  0 
 2.172645e-16  6.757458e-15  0 
 6.540607e-16  7.298561e-15  0 
 4.435121e-16  7.299722e-15  0 
 2.329653e-16  7.298355e-15  0 
 6.354035e-16  7.807297e-15  0 
 4.404357e-16  7.806376e-15  0 
 2.454481e-16  7.806174e-15  0 
 -2.616491e-16  6.666517e-15  0 
 -5.009223e-16  6.565421e-15  0 
 -7.215819e-16  6.460910e-15  0 
 -2.046815e-16  7.196152e-15  0 
 -4.323459e-16  7.092490e-15  0 
 -6.609876e-16  6.987810e-15  0 
 -1.563445e-16  7.718727e-15  0 
 -3.727833e-16  7.624417e-15  0 
 -6.041844e-16  7.526476e-15  0 
 -1.146594e-15  6.358123e-15  0 
 -1.348447e-15  6.360097e-15  0 
 -1.550418e-15  6.361329e-15  0 
 -1.102908e-15  6.882409e-15  0 
 -1.316277e-15  6.880625e-15  0 
 -1.529520e-15  6.880158e-15  0 
 -1.059906e-15  7.424248e-15  0 
 -1.284545e-15  7.425970e-15  0 
 -1.508911e-15  7.427088e-15  0 
VECTORS displacement_ITER4 FLOAT
 -6.287695e-16  -1.771097e-15  0 
 -6.591054e-16  -2.595910e-15  0 
 -1.674548e-16  -1.761286e-15  0 
 1.930528e-17  -1.704876e-15  0 
 1.451024e-16  -1.703896e-15  0 
 3.312736e-16  -1.748358e-15  0 
 7.747618e-16  -1.756298e-15  0 
 -4.603713e-16  -2.585433e-15  0 
 -1.365766e-16  -2.417866e-15  0 
 2.713492e-16  -2.416804e-15  0 
 5.935330e-16  -2.567963e-15  0 
 8.065385e-16  -2.576484e-15  0 
 -6.445730e-16  -2.026512e-15  0 
 -6.451536e-16  -2.255014e-15  0 
 -6.460913e-16  -2.438601e-15  0 
 -5.312084e-16  -1.771119e-15  0 
 -4.270742e-16  -1.770260e-15  0 
 -3.106003e-16  -1.767270e-15  0 
 2.135676e-17  -1.800533e-15  0 
 8.764807e-17  -1.745861e-15  0 
 8.468793e-17  -1.687394e-15  0 
 4.324857e-17  -1.708431e-15  0 
 7.975154e-17  -1.708300e-15  0 
 1.172809e-16  -1.707522e-15  0 
 9.459831e-17  -1.682657e-15  0 
 1.026097e-16  -1.737614e-15  0 
 1.624229e-16  -1.790869e-15  0 
 4.677316e-16  -1.753998e-15  0 
 5.799019e-16  -1.756257e-15  0 
 6.805882e-16  -1.756531e-15  0 
 -2.575150e-16  -2.037849e-15  0 
 -3.169805e-16  -2.249925e-15  0 
 -3.749673e-16  -2.447061e-15  0 
 -5.937084e-16  -2.595553e-15  0 
 -5.338000e-16  -2.593923e-15  0 
 -4.849257e-16  -2.590452e-15  0 
 -3.275856e-17  -1.822402e-15  0 
 -6.903373e-17  -1.988299e-15  0 
 -1.002998e-16  -2.185129e-15  0 
 -4.803692e-16  -2.588997e-15  0 
 -4.086369e-16  -2.503926e-15  0 
 -2.923918e-16  -2.421887e-15  0 
 1.881338e-16  -1.823254e-15  0 
 2.186129e-16  -1.988076e-15  0 
 2.440785e-16  -2.185946e-15  0 
 -2.881975e-17  -2.419040e-15  0 
 6.983279e-17  -2.418341e-15  0 
 1.674594e-16  -2.418095e-15  0 
 4.127501e-16  -2.015349e-15  0 
 4.655250e-16  -2.224714e-15  0 
 5.168219e-16  -2.422251e-15  0 
 4.117982e-16  -2.415741e-15  0 
 5.171204e-16  -2.493050e-15  0 
 5.946259e-16  -2.575442e-15  0 
 7.906247e-16  -2.004654e-15  0 
 7.918544e-16  -2.229575e-15  0 
 7.934384e-16  -2.414434e-15  0 
 6.239865e-16  -2.572605e-15  0 
 6.762204e-16  -2.575320e-15  0 
 7.386562e-16  -2.576345e-15  0 
 -5.454754e-16  -2.027560e-15  0 
 -4.475820e-16  -2.030532e-15  0 
 -3.499742e-16  -2.034895e-15  0 
 -5.628531e-16  -2.254911e-15  0 
 -4.805886e-16  -2.254454e-15  0 
 -3.985892e-16  -2.252656e-15  0 
 -5.799526e-16  -2.439418e-15  0 
 -5.131774e-16  -2.441748e-15  0 
 -4.464261e-16  -2.445197e-15  0 
 -1.795303e-16  -1.978187e-15  0 
 -1.151045e-16  -1.920927e-15  0 
 -6.557157e-17  -1.869066e-15  0 
 -2.505808e-16  -2.183801e-15  0 
 -1.874480e-16  -2.115889e-15  0 
 -1.266889e-16  -2.049498e-15  0 
 -3.163848e-16  -2.371683e-15  0 
 -2.515107e-16  -2.304446e-15  0 
 -1.809911e-16  -2.243373e-15  0 
 2.457761e-17  -1.822150e-15  0 
 7.781220e-17  -1.823224e-15  0 
 1.311378e-16  -1.822803e-15  0 
 3.032282e-18  -1.986715e-15  0 
 7.479326e-17  -1.985660e-15  0 
 1.465517e-16  -1.986616e-15  0 
 -1.535673e-17  -2.184707e-15  0 
 7.177510e-17  -2.185433e-15  0 
 1.588126e-16  -2.185339e-15  0 
 2.239533e-16  -1.866128e-15  0 
 2.739054e-16  -1.911262e-15  0 
 3.373439e-16  -1.960563e-15  0 
 2.761691e-16  -2.043772e-15  0 
 3.367357e-16  -2.104002e-15  0 
 3.995526e-16  -2.165656e-15  0 
 3.216663e-16  -2.239789e-15  0 
 3.912643e-16  -2.293545e-15  0 
 4.564800e-16  -2.352343e-15  0 
 5.030849e-16  -2.012545e-15  0 
 5.982032e-16  -2.008497e-15  0 
 6.937483e-16  -2.005672e-15  0 
 5.466742e-16  -2.227234e-15  0 
 6.282099e-16  -2.228920e-15  0 
 7.100139e-16  -2.229430e-15  0 
 5.894704e-16  -2.420537e-15  0 
 6.578052e-16  -2.417408e-15  0 
 7.260081e-16  -2.415223e-15  0 
VECTORS displacement_ITER5 FLOAT
 -1.111096e-14  -3.307974e-14  0 
 -1.110314e-14  -4.486054e-14  0 
 -6.253328e-15  -3.307022e-14  0 
 -1.653093e-15  -3.303582e-14  0 
 2.882054e-15  -3.303414e-14  0 
 7.484338e-15  -3.300631e-14  0 
 1.232696e-14  -3.301310e-14  0 
 -6.533107e-15  -4.485099e-14  0 
 -1.797129e-15  -4.474690e-14  0 
 3.001246e-15  -4.474526e-14  0 
 7.735862e-15  -4.478941e-14  0 
 1.232279e-14  -4.479619e-14  0 
 -1.111586e-14  -3.607809e-14  0 
 -1.110737e-14  -3.904691e-14  0 
 -1.109937e-14  -4.196818e-14  0 
 -9.913345e-15  -3.307871e-14  0 
 -8.710894e-15  -3.307581e-14  0 
 -7.497029e-15  -3.307209e-14  0 
 -5.043968e-15  -3.311422e-14  0 
 -3.881918e-15  -3.307937e-14  0 
 -2.772988e-15  -3.302868e-14  0 
 -5.259158e-16  -3.304198e-14  0 
 6.123633e-16  -3.304221e-14  0 
 1.751512e-15  -3.304060e-14  0 
 4.007851e-15  -3.299795e-14  0 
 5.130187e-15  -3.303353e-14  0 
 6.288501e-15  -3.306097e-14  0 
 8.722303e-15  -3.300782e-14  0 
 9.932737e-15  -3.301044e-14  0 
 1.113240e-14  -3.301242e-14  0 
 -6.341545e-15  -3.608874e-14  0 
 -6.396331e-15  -3.904236e-14  0 
 -6.449880e-15  -4.197653e-14  0 
 -9.945622e-15  -4.485942e-14  0 
 -8.792295e-15  -4.485638e-14  0 
 -7.649315e-15  -4.485257e-14  0 
 -1.702018e-15  -3.590901e-14  0 
 -1.735152e-15  -3.882383e-14  0 
 -1.763811e-15  -4.176963e-14  0 
 -5.389932e-15  -4.486145e-14  0 
 -4.213275e-15  -4.481191e-14  0 
 -2.994156e-15  -4.475450e-14  0 
 2.923251e-15  -3.590893e-14  0 
 2.951681e-15  -3.882303e-14  0 
 2.975633e-15  -4.176956e-14  0 
 -5.924937e-16  -4.474981e-14  0 
 6.041681e-16  -4.474926e-14  0 
 1.799960e-15  -4.474845e-14  0 
 7.564143e-15  -3.601817e-14  0 
 7.613254e-15  -3.897126e-14  0 
 7.661127e-15  -4.190707e-14  0 
 4.191920e-15  -4.472444e-14  0 
 5.397972e-15  -4.476754e-14  0 
 6.579030e-15  -4.481010e-14  0 
 1.233336e-14  -3.600737e-14  0 
 1.232521e-14  -3.897515e-14  0 
 1.231754e-14  -4.189861e-14  0 
 8.858386e-15  -4.479062e-14  0 
 1.000521e-14  -4.479331e-14  0 
 1.116175e-14  -4.479542e-14  0 
 -9.920444e-15  -3.607905e-14  0 
 -8.725455e-15  -3.608196e-14  0 
 -7.530279e-15  -3.608657e-14  0 
 -9.929410e-15  -3.904694e-14  0 
 -8.751477e-15  -3.904666e-14  0 
 -7.573780e-15  -3.904473e-14  0 
 -9.938456e-15  -4.196896e-14  0 
 -8.777340e-15  -4.197133e-14  0 
 -7.616490e-15  -4.197513e-14  0 
 -5.162461e-15  -3.603372e-14  0 
 -4.001592e-15  -3.598929e-14  0 
 -2.843234e-15  -3.595118e-14  0 
 -5.228216e-15  -3.898652e-14  0 
 -4.061849e-15  -3.892933e-14  0 
 -2.897630e-15  -3.887378e-14  0 
 -5.289939e-15  -4.191307e-14  0 
 -4.117960e-15  -4.186087e-14  0 
 -2.947518e-15  -4.181616e-14  0 
 -5.435078e-16  -3.590794e-14  0 
 6.107211e-16  -3.590871e-14  0 
 1.765044e-15  -3.590813e-14  0 
 -5.633640e-16  -3.882264e-14  0 
 6.082629e-16  -3.882150e-14  0 
 1.779890e-15  -3.882222e-14  0 
 -5.801010e-16  -4.176877e-14  0 
 6.058054e-16  -4.176930e-14  0 
 1.791620e-15  -4.176897e-14  0 
 4.067115e-15  -3.593532e-14  0 
 5.226381e-15  -3.595461e-14  0 
 6.387529e-15  -3.597939e-14  0 
 4.114173e-15  -3.885594e-14  0 
 5.278465e-15  -3.889414e-14  0 
 6.444960e-15  -3.893374e-14  0 
 4.156729e-15  -4.180062e-14  0 
 5.326369e-15  -4.182671e-14  0 
 6.498293e-15  -4.185957e-14  0 
 8.751749e-15  -3.601583e-14  0 
 9.945326e-15  -3.601132e-14  0 
 1.113894e-14  -3.600838e-14  0 
 8.790928e-15  -3.897319e-14  0 
 9.968850e-15  -3.897484e-14  0 
 1.114701e-14  -3.897512e-14  0 
 8.829305e-15  -4.190551e-14  0 
 9.992222e-15  -4.190183e-14  0 
 1.115518e-14  -4.189943e-14  0 
VECTORS displacement_ITER6 FLOAT
 3.007137e-16  2.847349e-15  0 
 3.166249e-16  3.640817e-15  0 
 1.424037e-16  2.862119e-15  0 
 -2.838817e-16  2.892197e-15  0 
 -7.701920e-16  2.891723e-15  0 
 -1.197213e-15  2.854211e-15  0 
 -1.365285e-15  2.839360e-15  0 
 -1.561120e-16  3.654042e-15  0 
 -4.356505e-16  3.694157e-15  0 
 -6.313803e-16  3.693708e-15  0 
 -9.113673e-16  3.647627e-15  0 
 -1.375462e-15  3.634394e-15  0 
 2.996144e-16  2.988880e-15  0 
 3.085733e-16  3.162546e-15  0 
 3.174989e-16  3.385722e-15  0 
 2.464782e-16  2.849477e-15  0 
 1.949133e-16  2.855048e-15  0 
 1.536545e-16  2.861524e-15  0 
 8.662890e-17  2.841968e-15  0 
 -2.280903e-18  2.859363e-15  0 
 -1.550727e-16  2.889261e-15  0 
 -4.116174e-16  2.885704e-15  0 
 -5.285819e-16  2.885246e-15  0 
 -6.449027e-16  2.885953e-15  0 
 -9.190753e-16  2.889732e-15  0 
 -1.071357e-15  2.859385e-15  0 
 -1.156596e-15  2.839417e-15  0 
 -1.212336e-15  2.853074e-15  0 
 -1.256015e-15  2.846774e-15  0 
 -1.309425e-15  2.841410e-15  0 
 5.074088e-17  2.979958e-15  0 
 -9.599070e-18  3.165874e-15  0 
 -6.879202e-17  3.377803e-15  0 
 2.123618e-16  3.642728e-15  0 
 1.053332e-16  3.647735e-15  0 
 -1.161562e-17  3.653617e-15  0 
 -3.359672e-16  3.152992e-15  0 
 -3.711562e-16  3.368410e-15  0 
 -4.015113e-16  3.548624e-15  0 
 -2.740717e-16  3.648001e-15  0 
 -3.592798e-16  3.659592e-15  0 
 -3.827450e-16  3.681346e-15  0 
 -7.229437e-16  3.152507e-15  0 
 -6.894149e-16  3.368564e-15  0 
 -6.607207e-16  3.548154e-15  0 
 -4.800904e-16  3.691220e-15  0 
 -5.319807e-16  3.691529e-15  0 
 -5.845141e-16  3.691476e-15  0 
 -1.109702e-15  2.976432e-15  0 
 -1.051485e-15  3.163634e-15  0 
 -9.944188e-16  3.375085e-15  0 
 -6.647999e-16  3.682382e-15  0 
 -6.888047e-16  3.660427e-15  0 
 -7.775073e-16  3.646745e-15  0 
 -1.363146e-15  2.984873e-15  0 
 -1.370288e-15  3.160465e-15  0 
 -1.377399e-15  3.382506e-15  0 
 -1.052157e-15  3.646690e-15  0 
 -1.167032e-15  3.641024e-15  0 
 -1.272545e-15  3.636232e-15  0 
 2.380237e-16  2.988194e-15  0 
 1.770256e-16  2.985802e-15  0 
 1.169904e-16  2.981443e-15  0 
 2.292004e-16  3.162300e-15  0 
 1.497670e-16  3.162153e-15  0 
 7.015604e-17  3.163853e-15  0 
 2.203526e-16  3.385092e-15  0 
 1.226817e-16  3.382922e-15  0 
 2.413170e-17  3.378991e-15  0 
 -2.667414e-17  3.031297e-15  0 
 -1.219136e-16  3.077092e-15  0 
 -2.194730e-16  3.115603e-15  0 
 -9.928071e-17  3.219212e-15  0 
 -1.891816e-16  3.271812e-15  0 
 -2.802018e-16  3.322619e-15  0 
 -1.690794e-16  3.429146e-15  0 
 -2.540731e-16  3.476682e-15  0 
 -3.362365e-16  3.515528e-15  0 
 -4.303492e-16  3.154085e-15  0 
 -5.291417e-16  3.153158e-15  0 
 -6.279712e-16  3.153592e-15  0 
 -4.506572e-16  3.369425e-15  0 
 -5.302835e-16  3.370451e-15  0 
 -6.099115e-16  3.369590e-15  0 
 -4.674900e-16  3.549284e-15  0 
 -5.314238e-16  3.548571e-15  0 
 -5.953214e-16  3.548801e-15  0 
 -8.391689e-16  3.115551e-15  0 
 -9.380097e-16  3.074622e-15  0 
 -1.032109e-15  3.026858e-15  0 
 -7.804419e-16  3.321478e-15  0 
 -8.715707e-16  3.270256e-15  0 
 -9.616097e-16  3.217413e-15  0 
 -7.263715e-16  3.515677e-15  0 
 -8.075169e-16  3.474690e-15  0 
 -8.940275e-16  3.425321e-15  0 
 -1.176754e-15  2.977927e-15  0 
 -1.238029e-15  2.982013e-15  0 
 -1.300278e-15  2.984239e-15  0 
 -1.131399e-15  3.161643e-15  0 
 -1.211170e-15  3.160062e-15  0 
 -1.290759e-15  3.160224e-15  0 
 -1.086869e-15  3.376272e-15  0 
 -1.184478e-15  3.379916e-15  0 
 -1.281209e-15  3.381923e-15  0 
VECTORS displacement_ITER7 FLOAT
 -9.096545e-15  -2.654282e-14  0 
 -9.056413e-15  -3.578898e-14  0 
 -5.229937e-15  -2.652193e-14  0 
 -1.588415e-15  -2.640893e-14  0 
 1.990190e-15  -2.640893e-14  0 
 5.632970e-15  -2.658188e-14  0 
 9.491136e-15  -2.660348e-14  0 
 -5.519402e-15  -3.577207e-14  0 
 -1.742203e-15  -3.576772e-14  0 
 2.126054e-15  -3.576779e-14  0 
 5.903613e-15  -3.583684e-14  0 
 9.452945e-15  -3.585446e-14  0 
 -9.087603e-15  -2.891189e-14  0 
 -9.075420e-15  -3.124701e-14  0 
 -9.063160e-15  -3.353488e-14  0 
 -8.141863e-15  -2.654015e-14  0 
 -7.186128e-15  -2.653267e-14  0 
 -6.220889e-15  -2.652267e-14  0 
 -4.322662e-15  -2.646963e-14  0 
 -3.391561e-15  -2.643073e-14  0 
 -2.494268e-15  -2.641325e-14  0 
 -6.995010e-16  -2.641456e-14  0 
 1.989683e-16  -2.641458e-14  0 
 1.098338e-15  -2.641408e-14  0 
 2.897721e-15  -2.642204e-14  0 
 3.796295e-15  -2.646175e-14  0 
 4.725327e-15  -2.652028e-14  0 
 6.620166e-15  -2.658325e-14  0 
 7.583016e-15  -2.659323e-14  0 
 8.537303e-15  -2.660076e-14  0 
 -5.318428e-15  -2.891688e-14  0 
 -5.376904e-15  -3.124431e-14  0 
 -5.434577e-15  -3.354072e-14  0 
 -8.160064e-15  -3.578677e-14  0 
 -7.265402e-15  -3.578052e-14  0 
 -6.380226e-15  -3.577218e-14  0 
 -1.642417e-15  -2.869008e-14  0 
 -1.676701e-15  -3.101588e-14  0 
 -1.706547e-15  -3.337399e-14  0 
 -4.597627e-15  -3.574859e-14  0 
 -3.673285e-15  -3.574896e-14  0 
 -2.705667e-15  -3.576328e-14  0 
 2.038334e-15  -2.869148e-14  0 
 2.069497e-15  -3.101660e-14  0 
 2.096219e-15  -3.337542e-14  0 
 -7.708382e-16  -3.576981e-14  0 
 1.938261e-16  -3.576915e-14  0 
 1.157597e-15  -3.576936e-14  0 
 5.716540e-15  -2.897182e-14  0 
 5.770564e-15  -3.129862e-14  0 
 5.823779e-15  -3.359801e-14  0 
 3.087328e-15  -3.577358e-14  0 
 4.054302e-15  -3.578285e-14  0 
 4.981758e-15  -3.580312e-14  0 
 9.481251e-15  -2.896822e-14  0 
 9.470986e-15  -3.130182e-14  0 
 9.460649e-15  -3.359360e-14  0 
 6.769253e-15  -3.583757e-14  0 
 7.657725e-15  -3.584587e-14  0 
 8.554788e-15  -3.585218e-14  0 
 -8.145957e-15  -2.891215e-14  0 
 -7.202677e-15  -2.891357e-14  0 
 -6.257945e-15  -2.891690e-14  0 
 -8.150757e-15  -3.124738e-14  0 
 -7.226129e-15  -3.124771e-14  0 
 -6.301532e-15  -3.124608e-14  0 
 -8.155799e-15  -3.353525e-14  0 
 -7.249592e-15  -3.353688e-14  0 
 -6.344549e-15  -3.354035e-14  0 
 -4.386060e-15  -2.885056e-14  0 
 -3.465211e-15  -2.879348e-14  0 
 -2.545929e-15  -2.874043e-14  0 
 -4.455555e-15  -3.118425e-14  0 
 -3.531336e-15  -3.112431e-14  0 
 -2.605711e-15  -3.106767e-14  0 
 -4.523747e-15  -3.349029e-14  0 
 -3.597348e-15  -3.344484e-14  0 
 -2.661041e-15  -3.340510e-14  0 
 -7.200058e-16  -2.868884e-14  0 
 1.980691e-16  -2.868979e-14  0 
 1.116197e-15  -2.868975e-14  0 
 -7.401480e-16  -3.101479e-14  0 
 1.963951e-16  -3.101396e-14  0 
 1.132939e-15  -3.101514e-14  0 
 -7.568804e-16  -3.337358e-14  0 
 1.947225e-16  -3.337445e-14  0 
 1.146275e-15  -3.337450e-14  0 
 2.943720e-15  -2.875648e-14  0 
 3.864264e-15  -2.882180e-14  0 
 4.785040e-15  -2.889164e-14  0 
 2.998545e-15  -3.108245e-14  0 
 3.924331e-15  -3.115289e-14  0 
 4.848828e-15  -3.122586e-14  0 
 3.048940e-15  -3.342178e-14  0 
 3.984260e-15  -3.347431e-14  0 
 4.911239e-15  -3.353313e-14  0 
 6.655180e-15  -2.897218e-14  0 
 7.598849e-15  -2.896939e-14  0 
 8.541016e-15  -2.896835e-14  0 
 6.695664e-15  -3.130069e-14  0 
 7.620736e-15  -3.130245e-14  0 
 8.545845e-15  -3.130219e-14  0 
 6.735570e-15  -3.359800e-14  0 
 7.642643e-15  -3.359509e-14  0 
 8.550915e-15  -3.359384e-14  0 
VECTORS displacement_ITER8 FLOAT
 -1.575025e-15  -4.018521e-15  0 
 -1.545327e-15  -5.586346e-15  0 
 -7.766766e-16  -4.001075e-15  0 
 -2.444992e-16  -3.964233e-15  0 
 2.224096e-16  -3.963198e-15  0 
 7.541210e-16  -3.997861e-15  0 
 1.540980e-15  -4.014741e-15  0 
 -1.086779e-15  -5.570306e-15  0 
 -4.013514e-16  -5.556856e-15  0 
 3.643720e-16  -5.555736e-15  0 
 1.047372e-15  -5.562685e-15  0 
 1.513989e-15  -5.578079e-15  0 
 -1.571459e-15  -4.471879e-15  0 
 -1.560222e-15  -4.889672e-15  0 
 -1.548846e-15  -5.255796e-15  0 
 -1.389326e-15  -4.016424e-15  0 
 -1.200950e-15  -4.010015e-15  0 
 -1.001302e-15  -4.000555e-15  0 
 -6.253574e-16  -3.983652e-15  0 
 -4.750301e-16  -3.986578e-15  0 
 -3.590492e-16  -3.992740e-15  0 
 -1.331694e-16  -3.968423e-15  0 
 -1.273301e-17  -3.967979e-15  0 
 1.085382e-16  -3.967498e-15  0 
 3.372970e-16  -3.982635e-15  0 
 4.509895e-16  -3.980577e-15  0 
 6.013060e-16  -3.981219e-15  0 
 9.745959e-16  -3.997515e-15  0 
 1.171193e-15  -4.006564e-15  0 
 1.357323e-15  -4.012717e-15  0 
 -8.697235e-16  -4.478679e-15  0 
 -9.334457e-16  -4.887089e-15  0 
 -9.964884e-16  -5.262588e-15  0 