# vtk DataFile Version 3.1
this is an vtk file created by FEMAC
ASCII
DATASET UNSTRUCTURED_GRID
POINTS 105 FLOAT
5.000000 0.000000 0.000000
5.500000 0.000000 0.000000
5.000000 0.200000 0.000000
5.000000 0.400000 0.000000
5.000000 0.600000 0.000000
5.000000 0.800000 0.000000
5.000000 1.000000 0.000000
5.500000 0.200000 0.000000
5.500000 0.400000 0.000000
5.500000 0.600000 0.000000
5.500000 0.800000 0.000000
5.500000 1.000000 0.000000
5.125000 0.000000 0.000000
5.250000 0.000000 0.000000
5.375000 0.000000 0.000000
5.000000 0.050000 0.000000
5.000000 0.100000 0.000000
5.000000 0.150000 0.000000
5.000000 0.250000 0.000000
5.000000 0.300000 0.000000
5.000000 0.350000 0.000000
5.000000 0.450000 0.000000
5.000000 0.500000 0.000000
5.000000 0.550000 0.000000
5.000000 0.650000 0.000000
5.000000 0.700000 0.000000
5.000000 0.750000 0.000000
5.000000 0.850000 0.000000
5.000000 0.900000 0.000000
5.000000 0.950000 0.000000
5.125000 0.200000 0.000000
5.250000 0.200000 0.000000
5.375000 0.200000 0.000000
5.500000 0.050000 0.000000
5.500000 0.100000 0.000000
5.500000 0.150000 0.000000
5.125000 0.400000 0.000000
5.250000 0.400000 0.000000
5.375000 0.400000 0.000000
5.500000 0.250000 0.000000
5.500000 0.300000 0.000000
5.500000 0.350000 0.000000
5.125000 0.600000 0.000000
5.250000 0.600000 0.000000
5.375000 0.600000 0.000000
5.500000 0.450000 0.000000
5.500000 0.500000 0.000000
5.500000 0.550000 0.000000
5.125000 0.800000 0.000000
5.250000 0.800000 0.000000
5.375000 0.800000 0.000000
5.500000 0.650000 0.000000
5.500000 0.700000 0.000000
5.500000 0.750000 0.000000
5.125000 1.000000 0.000000
5.250000 1.000000 0.000000
5.375000 1.000000 0.000000
5.500000 0.850000 0.000000
5.500000 0.900000 0.000000
5.500000 0.950000 0.000000
5.125000 0.050000 0.000000
5.125000 0.100000 0.000000
5.125000 0.150000 0.000000
5.250000 0.050000 0.000000
5.250000 0.100000 0.000000
5.250000 0.150000 0.000000
5.375000 0.050000 0.000000
5.375000 0.100000 0.000000
5.375000 0.150000 0.000000
5.125000 0.250000 0.000000
5.125000 0.300000 0.000000
5.125000 0.350000 0.000000
5.250000 0.250000 0.000000
5.250000 0.300000 0.000000
5.250000 0.350000 0.000000
5.375000 0.250000 0.000000
5.375000 0.300000 0.000000
5.375000 0.350000 0.000000
5.125000 0.450000 0.000000
5.125000 0.500000 0.000000
5.125000 0.550000 0.000000
5.250000 0.450000 0.000000
5.250000 0.500000 0.000000
5.250000 0.550000 0.000000
5.375000 0.450000 0.000000
5.375000 0.500000 0.000000
5.375000 0.550000 0.000000
5.125000 0.650000 0.000000
5.125000 0.700000 0.000000
5.125000 0.750000 0.000000
5.250000 0.650000 0.000000
5.250000 0.700000 0.000000
5.250000 0.750000 0.000000
5.375000 0.650000 0.000000
5.375000 0.700000 0.000000
5.375000 0.750000 0.000000
5.125000 0.850000 0.000000
5.125000 0.900000 0.000000
5.125000 0.950000 0.000000
5.250000 0.850000 0.000000
5.250000 0.900000 0.000000
5.250000 0.950000 0.000000
5.375000 0.850000 0.000000
5.375000 0.900000 0.000000
5.375000 0.950000 0.000000
CELLS 80 400 
4 0 12 60 15
4 15 60 61 16
4 16 61 62 17
4 17 62 30  2
4 12 13 63 60
4 60 63 64 61
4 61 64 65 62
4 62 65 31 30
4 13 14 66 63
4 63 66 67 64
4 64 67 68 65
4 65 68 32 31
4 14  1 33 66
4 66 33 34 67
4 67 34 35 68
4 68 35  7 32
4 2 30 69 18
4 18 69 70 19
4 19 70 71 20
4 20 71 36  3
4 30 31 72 69
4 69 72 73 70
4 70 73 74 71
4 71 74 37 36
4 31 32 75 72
4 72 75 76 73
4 73 76 77 74
4 74 77 38 37
4 32  7 39 75
4 75 39 40 76
4 76 40 41 77
4 77 41  8 38
4 3 36 78 21
4 21 78 79 22
4 22 79 80 23
4 23 80 42  4
4 36 37 81 78
4 78 81 82 79
4 79 82 83 80
4 80 83 43 42
4 37 38 84 81
4 81 84 85 82
4 82 85 86 83
4 83 86 44 43
4 38  8 45 84
4 84 45 46 85
4 85 46 47 86
4 86 47  9 44
4 4 42 87 24
4 24 87 88 25
4 25 88 89 26
4 26 89 48  5
4 42 43 90 87
4 87 90 91 88
4 88 91 92 89
4 89 92 49 48
4 43 44 93 90
4 90 93 94 91
4 91 94 95 92
4 92 95 50 49
4 44  9 51 93
4 93 51 52 94
4 94 52 53 95
4 95 53 10 50
4 5 48 96 27
4 27 96 97 28
4 28 97 98 29
4 29 98 54  6
4 48 49 99 96
4 96  99 100  97
4 97 100 101  98
4 98 101  55  54
4 49  50 102  99
4 99 102 103 100
4 100 103 104 101
4 101 104  56  55
4 50  10  57 102
4 102  57  58 103
4 103  58  59 104
4 104  59  11  56
CELL_TYPES 80
9 9 9 9 9 9 9 9 9 9 9 9 9 9 9 9 9 9 9 9 9 9 9 9 9 9 9 9 9 9 9 9 9 9 9 9 9 9 9 9 9 9 9 9 9 9 9 9 9 9 9 9 9 9 9 9 9 9 9 9 9 9 9 9 9 9 9 9 9 9 9 9 9 9 9 9 9 9 9 9 
POINT_DATA 105
VECTORS displacement_ITER1 FLOAT
 4.321331e-07  -4.551810e-08  0 
 4.764071e-07  7.935203e-07  0 
 9.372370e-08  -3.829440e-08  0 
 -3.003873e-07  -2.149199e-08  0 
 -2.984112e-07  2.324036e-08  0 
 8.997922e-08  4.448170e-08  0 
 4.338788e-07  5.133306e-08  0 
 1.468286e-07  7.771183e-07  0 
 -3.950410e-07  -3.334241e-08  0 
 -3.932423e-07  2.655332e-08  0 
 1.433709e-07  -7.831434e-07  0 
 4.778537e-07  -7.993305e-07  0 
 4.394569e-07  1.607514e-07  0 
 4.520926e-07  3.703843e-07  0 
 4.648563e-07  5.834703e-07  0 
 3.492881e-07  -4.590664e-08  0 
 2.661022e-07  -4.603458e-08  0 
 1.817451e-07  -4.398851e-08  0 
 -3.319060e-08  1.215750e-07  0 
 1.465563e-09  1.865912e-07  0 
 -1.433817e-09  2.419214e-08  0 
 -3.115995e-07  -1.088725e-08  0 
 -3.144413e-07  8.458066e-10  0 
 -3.106489e-07  1.257042e-08  0 
 1.134854e-08  -2.867275e-08  0 
 1.019256e-09  -2.073494e-07  0 
 -4.907735e-08  -1.277561e-07  0 
 1.795283e-07  4.998989e-08  0 
 2.652594e-07  5.194136e-08  0 
 3.497354e-07  5.173843e-08  0 
 1.059235e-07  1.605339e-07  0 
 1.108275e-07  3.646979e-07  0 
 1.238331e-07  5.813850e-07  0 
 3.860069e-07  7.987013e-07  0 
 3.062453e-07  8.048203e-07  0 
 2.318679e-07  7.970970e-07  0 
 -3.141316e-07  5.693510e-09  0 
 -3.360777e-07  6.458391e-09  0 
 -3.683802e-07  1.075021e-08  0 
 1.241593e-07  7.623674e-07  0 
 -2.506831e-07  7.532018e-07  0 
 -6.277953e-07  3.473286e-07  0 
 -3.124060e-07  -6.439331e-09  0 
 -3.346781e-07  -8.960668e-09  0 
 -3.666590e-07  -1.507524e-08  0 
 -3.869677e-07  -1.530636e-08  0 
 -3.832965e-07  -3.378888e-09  0 
 -3.861012e-07  8.525698e-09  0 
 1.025021e-07  -1.581817e-07  0 
 1.079357e-07  -3.649584e-07  0 
 1.206942e-07  -5.841010e-07  0 
 -6.175273e-07  -3.467981e-07  0 
 -2.495961e-07  -7.402844e-07  0 
 1.113278e-07  -7.586586e-07  0 
 4.410204e-07  -1.580820e-07  0 
 4.534745e-07  -3.705970e-07  0 
 4.662573e-07  -5.864499e-07  0 
 2.297657e-07  -8.029398e-07  0 
 3.054505e-07  -8.106119e-07  0 
 3.864111e-07  -8.044929e-07  0 
 3.561326e-07  1.609596e-07  0 
 2.719053e-07  1.613688e-07  0 
 1.875676e-07  1.614782e-07  0 
 3.668545e-07  3.699582e-07  0 
 2.821050e-07  3.689161e-07  0 
 1.975249e-07  3.674557e-07  0 
 3.814854e-07  5.832091e-07  0 
 2.951625e-07  5.822902e-07  0 
 2.074576e-07  5.810011e-07  0 
 -1.619925e-08  1.059583e-07  0 
 -1.218452e-07  5.725795e-08  0 
 -2.323323e-07  6.179964e-08  0 
 -3.316553e-08  2.665092e-07  0 
 -1.556146e-07  1.888366e-07  0 
 -2.559488e-07  8.540486e-08  0 
 -4.379442e-08  4.271236e-07  0 
 -1.785622e-07  2.404493e-07  0 
 -2.686162e-07  1.529245e-07  0 
 -3.203611e-07  1.881879e-09  0 
 -3.226107e-07  -3.186833e-10  0 
 -3.195068e-07  -2.543253e-09  0 
 -3.387758e-07  4.352722e-09  0 
 -3.389344e-07  -1.261189e-09  0 
 -3.380235e-07  -6.871709e-09  0 
 -3.615202e-07  1.989584e-09  0 
 -3.595118e-07  -2.224779e-09  0 
 -3.606784e-07  -6.401915e-09  0 
 -2.320710e-07  -6.261537e-08  0 
 -1.226722e-07  -5.367218e-08  0 
 -1.795798e-08  -1.045473e-07  0 
 -2.560101e-07  -8.723851e-08  0 
 -1.565699e-07  -1.902977e-07  0 
 -3.498767e-08  -2.671847e-07  0 
 -2.681478e-07  -1.562186e-07  0 
 -1.794231e-07  -2.458633e-07  0 
 -4.531259e-08  -4.303144e-07  0 
 1.854554e-07  -1.589588e-07  0 
 2.710401e-07  -1.587544e-07  0 
 3.564899e-07  -1.582991e-07  0 
 1.955663e-07  -3.677065e-07  0 
 2.812320e-07  -3.691515e-07  0 
 3.671126e-07  -3.701782e-07  0 
 2.054777e-07  -5.838365e-07  0 
 2.943011e-07  -5.852001e-07  0 
 3.817448e-07  -5.861707e-07  0 
VECTORS displacement_ITER2 FLOAT
 6.735671e-07  1.864165e-07  0 
 7.276158e-07  1.594188e-06  0 
 1.459846e-07  2.003438e-07  0 
 -1.437521e-07  -7.591664e-09  0 
 -1.478473e-07  4.298641e-09  0 
 1.503850e-07  -2.068596e-07  0 
 6.702837e-07  -1.926375e-07  0 
 2.073325e-07  1.586269e-06  0 
 -2.770869e-07  1.232458e-07  0 
 -2.805820e-07  -1.094514e-07  0 
 2.116380e-07  -1.575540e-06  0 
 7.245037e-07  -1.583625e-06  0 
 6.909107e-07  5.209445e-07  0 
 7.121794e-07  8.665590e-07  0 
 7.278923e-07  1.224769e-06  0 
 5.416934e-07  1.874293e-07  0 
 4.076824e-07  1.898046e-07  0 
 2.742317e-07  1.930396e-07  0 
 1.743012e-07  7.760962e-08  0 
 -8.107906e-08  -3.515084e-08  0 
 -2.246680e-07  1.409082e-07  0 
 -1.593406e-07  -3.478968e-09  0 
 -1.651090e-07  -1.596057e-09  0 
 -1.612924e-07  2.676826e-10  0 
 -2.455132e-07  -1.319398e-07  0 
 -8.191753e-08  6.650285e-08  0 
 1.969335e-07  -6.842103e-08  0 
 2.765610e-07  -1.994660e-07  0 
 4.080972e-07  -1.961387e-07  0 
 5.402710e-07  -1.936793e-07  0 
 1.525420e-07  5.119624e-07  0 
 1.476424e-07  8.554790e-07  0 
 1.500229e-07  1.228386e-06  0 
 5.876284e-07  1.587598e-06  0 
 4.391011e-07  1.579554e-06  0 
 3.006808e-07  1.585376e-06  0 
 -1.781863e-07  1.037435e-08  0 
 -1.990005e-07  6.337576e-09  0 
 -1.976362e-07  3.443867e-08  0 
 9.630067e-08  1.439728e-06  0 
 3.551481e-07  1.130440e-06  0 
 3.874821e-07  1.116587e-06  0 
 -1.817542e-07  -8.566387e-09  0 
 -2.019372e-07  -7.887900e-10  0 
 -2.009664e-07  -2.516633e-08  0 
 -2.428894e-07  6.947109e-08  0 
 -2.348733e-07  6.983188e-09  0 
 -2.445329e-07  -5.555176e-08  0 
 1.565183e-07  -5.133472e-07  0 
 1.509351e-07  -8.531466e-07  0 
 1.537581e-07  -1.222507e-06  0 
 3.716853e-07  -1.114282e-06  0 
 3.545533e-07  -1.147335e-06  0 
 1.152194e-07  -1.442317e-06  0 
 6.879085e-07  -5.227268e-07  0 
 7.093902e-07  -8.642908e-07  0 
 7.249736e-07  -1.218528e-06  0 
 3.029495e-07  -1.574870e-06  0 
 4.394121e-07  -1.569155e-06  0 
 5.861534e-07  -1.577119e-06  0 
 5.544985e-07  5.205585e-07  0 
 4.185562e-07  5.192996e-07  0 
 2.841598e-07  5.169254e-07  0 
 5.722106e-07  8.663701e-07  0 
 4.315247e-07  8.647322e-07  0 
 2.896289e-07  8.604034e-07  0 
 5.819981e-07  1.225446e-06  0 
 4.421946e-07  1.227518e-06  0 
 3.025664e-07  1.229584e-06  0 
 6.711127e-10  3.923926e-07  0 
 -8.514064e-08  2.977893e-07  0 
 -1.418239e-07  1.112363e-07  0 
 1.061460e-08  6.515639e-07  0 
 -9.761262e-08  4.139036e-07  0 
 -1.568528e-07  2.388260e-07  0 
 1.119038e-07  9.990366e-07  0 
 -1.906858e-08  7.432188e-07  0 
 -1.858218e-07  2.846621e-07  0 
 -1.783025e-07  5.683891e-09  0 
 -1.787216e-07  8.075968e-10  0 
 -1.800792e-07  -4.017605e-09  0 
 -1.997586e-07  2.833534e-09  0 
 -2.023753e-07  2.789753e-09  0 
 -2.013044e-07  2.741875e-09  0 
 -2.291085e-07  2.529989e-08  0 
 -2.374260e-07  4.721887e-09  0 
 -2.307748e-07  -1.590993e-08  0 
 -1.432418e-07  -1.093702e-07  0 
 -8.490506e-08  -3.017157e-07  0 
 2.016102e-09  -3.925136e-07  0 
 -1.578726e-07  -2.342252e-07  0 
 -9.744333e-08  -4.098748e-07  0 
 1.215062e-08  -6.486215e-07  0 
 -1.873171e-07  -2.770335e-07  0 
 -1.880650e-08  -7.327097e-07  0 
 1.132835e-07  -9.924503e-07  0 
 2.863228e-07  -5.185057e-07  0 
 4.189687e-07  -5.210078e-07  0 
 5.531908e-07  -5.223274e-07  0 
 2.915880e-07  -8.580884e-07  0 
 4.319385e-07  -8.624374e-07  0 
 5.710141e-07  -8.640940e-07  0 
 3.046118e-07  -1.223539e-06  0 
 4.426037e-07  -1.221353e-06  0 
 5.807598e-07  -1.219220e-06  0 
VECTORS displacement_ITER3 FLOAT
 5.810811e-07  1.104512e-07  0 
 5.975914e-07  1.097235e-06  0 
 1.697586e-07  1.095895e-07  0 
 -6.963068e-08  1.283094e-09  0 
 -6.722853e-08  7.917018e-11  0 
 1.697930e-07  -1.086194e-07  0 
 5.835761e-07  -1.095570e-07  0 
 2.849389e-07  1.099243e-06  0 
 -1.708516e-07  2.227873e-07  0 
 -1.687518e-07  -2.315685e-07  0 
 2.849331e-07  -1.104156e-06  0 
 6.001011e-07  -1.102011e-06  0 
 5.931807e-07  3.644040e-07  0 
 6.027596e-07  6.201540e-07  0 
 6.018348e-07  8.652149e-07  0 
 4.799071e-07  1.100135e-07  0 
 3.780879e-07  1.097314e-07  0 
 2.744737e-07  1.103134e-07  0 
 3.947786e-08  2.973803e-08  0 
 2.984666e-08  4.584752e-08  0 
 -5.446429e-08  -5.891799e-09  0 
 -9.057563e-08  -1.014071e-10  0 
 -9.601620e-08  6.727694e-10  0 
 -8.943480e-08  1.467846e-09  0 
 -4.521036e-08  2.129463e-10  0 
 3.138877e-08  -5.793171e-08  0 
 3.342846e-08  -3.325671e-08  0 
 2.751656e-07  -1.092867e-07  0 
 3.793581e-07  -1.087587e-07  0 
 4.817761e-07  -1.090894e-07  0 
 1.863167e-07  3.598841e-07  0 
 1.991229e-07  6.128657e-07  0 
 2.248089e-07  8.687116e-07  0 
 4.991655e-07  1.099607e-06  0 
 4.174476e-07  1.097299e-06  0 
 3.422601e-07  1.085343e-06  0 
 -1.131079e-07  9.186459e-09  0 
 -1.408453e-07  -3.686040e-09  0 
 -1.315020e-07  -5.053389e-09  0 
 3.788012e-07  1.094727e-06  0 
 4.132756e-07  9.561510e-07  0 
 5.066437e-07  6.088389e-07  0 
 -1.109747e-07  -1.075958e-08  0 
 -1.390068e-07  -2.209918e-10  0 
 -1.295329e-07  -1.139858e-09  0 
 -2.024562e-07  7.995408e-08  0 
 -2.196652e-07  -4.501890e-09  0 
 -2.015364e-07  -8.886412e-08  0 
 1.864250e-07  -3.605330e-07  0 
 1.994290e-07  -6.147963e-07  0 
 2.249405e-07  -8.718813e-07  0 
 5.131831e-07  -6.110596e-07  0 
 4.119808e-07  -9.517387e-07  0 
 3.724806e-07  -1.097691e-06  0 
 5.956043e-07  -3.649438e-07  0 
 6.051468e-07  -6.220552e-07  0 
 6.042838e-07  -8.684845e-07  0 
 3.428827e-07  -1.090085e-06  0 
 4.187899e-07  -1.101940e-06  0 
 5.011562e-07  -1.104320e-06  0 
 4.908734e-07  3.643139e-07  0 
 3.884540e-07  3.636177e-07  0 
 2.868808e-07  3.621618e-07  0 
 5.022103e-07  6.198107e-07  0 
 4.027281e-07  6.187130e-07  0 
 3.013557e-07  6.157920e-07  0 
 5.089756e-07  8.659302e-07  0 
 4.145919e-07  8.683619e-07  0 
 3.227659e-07  8.726470e-07  0 
 7.967726e-08  2.642570e-07  0 
 -1.947474e-08  1.636243e-07  0 
 -7.363731e-08  8.920065e-08  0 
 8.135544e-08  4.576378e-07  0 
 -1.823205e-08  2.964308e-07  0 
 -8.418313e-08  1.445207e-07  0 
 1.692360e-07  7.079812e-07  0 
 6.664622e-08  4.994477e-07  0 
 -1.052243e-07  2.397679e-07  0 
 -1.097793e-07  6.188967e-09  0 
 -1.079933e-07  -7.440974e-10  0 
 -1.087098e-07  -7.705234e-09  0 
 -1.335710e-07  -7.911788e-09  0 
 -1.343198e-07  -1.958474e-09  0 
 -1.326238e-07  3.995606e-09  0 
 -1.722003e-07  9.196843e-09  0 
 -1.797520e-07  -3.135673e-09  0 
 -1.711870e-07  -1.544422e-08  0 
 -7.207879e-08  -9.057295e-08  0 
 -1.829768e-08  -1.633907e-07  0 
 8.055415e-08  -2.655156e-07  0 
 -8.264908e-08  -1.478877e-07  0 
 -1.687562e-08  -2.993315e-07  0 
 8.233077e-08  -4.600535e-07  0 
 -1.039575e-07  -2.453365e-07  0 
 6.760752e-08  -5.053642e-07  0 
 1.698323e-07  -7.113112e-07  0 
 2.875900e-07  -3.627626e-07  0 
 3.897546e-07  -3.641736e-07  0 
 4.927428e-07  -3.648570e-07  0 
 3.021211e-07  -6.177124e-07  0 
 4.040242e-07  -6.206297e-07  0 
 5.040570e-07  -6.217172e-07  0 
 3.235144e-07  -8.758699e-07  0 
 4.158925e-07  -8.716159e-07  0 
 5.108322e-07  -8.691965e-07  0 
VECTORS displacement_ITER4 FLOAT
 4.936305e-07  -1.476976e-08  0 
 5.013755e-07  8.690507e-07  0 
 1.047150e-07  -2.050775e-08  0 
 -9.459156e-08  4.407528e-09  0 
 -9.555933e-08  -3.833161e-09  0 
 1.040407e-07  2.038659e-08  0 
 4.920129e-07  1.471219e-08  0 
 2.316410e-07  8.673343e-07  0 
 -1.776499e-07  2.736997e-07  0 
 -1.785793e-07  -2.687496e-07  0 
 2.309727e-07  -8.651379e-07  0 
 4.997470e-07  -8.669303e-07  0 
 5.022105e-07  2.190188e-07  0 
 5.072458e-07  4.487645e-07  0 
 5.065730e-07  6.638257e-07  0 
 4.006679e-07  -1.500857e-08  0 
 3.058886e-07  -1.604790e-08  0 
 2.086182e-07  -1.779275e-08  0 
 -1.369496e-08  -1.776628e-08  0 
 -3.829644e-08  -1.021370e-08  0 
 -6.490359e-08  -2.579874e-08  0 
 -1.147447e-07  -1.625137e-09  0 
 -1.206992e-07  2.842059e-10  0 
 -1.152070e-07  2.198986e-09  0 
 -6.782505e-08  2.844286e-08  0 
 -3.856270e-08  1.436656e-08  0 
 -1.311087e-08  1.942546e-08  0 
 2.076777e-07  1.764422e-08  0 
 3.047646e-07  1.591719e-08  0 
 3.993210e-07  1.492618e-08  0 
 1.305253e-07  2.184884e-07  0 
 1.494892e-07  4.431490e-07  0 
 1.759597e-07  6.666314e-07  0 
 4.232485e-07  8.643915e-07  0 
 3.459394e-07  8.586657e-07  0 
 2.829058e-07  8.572808e-07  0 
 -1.383365e-07  8.296672e-09  0 
 -1.672047e-07  -4.828130e-09  0 
 -1.516019e-07  -3.355906e-09  0 
 2.629893e-07  8.782377e-07  0 
 2.140978e-07  8.087214e-07  0 
 7.320909e-08  4.363705e-07  0 
 -1.391979e-07  -6.583651e-09  0 
 -1.680096e-07  7.532182e-09  0 
 -1.524849e-07  7.075428e-09  0 
 -2.348319e-07  1.236723e-07  0 
 -2.405503e-07  2.497672e-09  0 
 -2.352209e-07  -1.187401e-07  0 
 1.298529e-07  -2.179641e-07  0 
 1.487525e-07  -4.420955e-07  0 
 1.752658e-07  -6.650590e-07  0 
 7.042563e-08  -4.344285e-07  0 
 2.145881e-07  -8.081202e-07  0 
 2.640395e-07  -8.749977e-07  0 
 5.006236e-07  -2.185275e-07  0 
 5.056712e-07  -4.477342e-07  0 
 5.049927e-07  -6.622689e-07  0 
 2.820596e-07  -8.551449e-07  0 
 3.448013e-07  -8.566012e-07  0 
 4.218155e-07  -8.623014e-07  0 
 4.088029e-07  2.189748e-07  0 
 3.156067e-07  2.189079e-07  0 
 2.223871e-07  2.189399e-07  0 
 4.184018e-07  4.486856e-07  0 
 3.292365e-07  4.479812e-07  0 
 2.394789e-07  4.457475e-07  0 
 4.234923e-07  6.648549e-07  0 
 3.432120e-07  6.670760e-07  0 
 2.622332e-07  6.692958e-07  0 
 3.412071e-08  1.528821e-07  0 
 -4.996216e-08  9.142629e-08  0 
 -1.066936e-07  5.028049e-08  0 
 4.163257e-08  3.285941e-07  0 
 -4.396679e-08  2.179624e-07  0 
 -1.147865e-07  9.985209e-08  0 
 1.034473e-07  5.332974e-07  0 
 -3.440752e-09  3.588113e-07  0 
 -9.741699e-08  2.069560e-07  0 
 -1.348030e-07  7.302157e-09  0 
 -1.338171e-07  8.476649e-10  0 
 -1.352389e-07  -5.601261e-09  0 
 -1.597631e-07  -7.594992e-09  0 
 -1.597121e-07  1.354824e-09  0 
 -1.601744e-07  1.030174e-08  0 
 -1.984063e-07  1.194385e-08  0 
 -2.144560e-07  1.883078e-09  0 
 -1.988586e-07  -8.183057e-09  0 
 -1.074954e-07  -4.887581e-08  0 
 -5.088375e-08  -9.057788e-08  0 
 3.343915e-08  -1.518952e-07  0 
 -1.156629e-07  -9.756931e-08  0 
 -4.485095e-08  -2.161020e-07  0 
 4.073108e-08  -3.271039e-07  0 
 -9.802016e-08  -2.035185e-07  0 
 -4.188909e-09  -3.557341e-07  0 
 1.027841e-07  -5.315173e-07  0 
 2.214781e-07  -2.184361e-07  0 
 3.144547e-07  -2.184178e-07  0 
 4.074256e-07  -2.184854e-07  0 
 2.385469e-07  -4.446991e-07  0 
 3.280920e-07  -4.469375e-07  0 
 4.170399e-07  -4.476504e-07  0 
 2.612945e-07  -6.677288e-07  0 
 3.420638e-07  -6.655140e-07  0 
 4.221386e-07  -6.632977e-07  0 
VECTORS displacement_ITER5 FLOAT
 6.210740e-07  4.501034e-09  0 
 6.497799e-07  1.142234e-06  0 
 1.195747e-07  2.720762e-09  0 
 -2.038362e-07  -4.050042e-09  0 
 -2.027740e-07  2.410246e-09  0 
 1.194083e-07  -1.673785e-09  0 
 6.240197e-07  -3.570927e-09  0 
 2.821089e-07  1.127105e-06  0 
 -3.022248e-07  2.992101e-07  0 
 -3.007897e-07  -3.058654e-07  0 
 2.822600e-07  -1.133319e-06  0 
 6.526296e-07  -1.148154e-06  0 
 6.324500e-07  3.019506e-07  0 
 6.430654e-07  5.963975e-07  0 
 6.479172e-07  8.770691e-07  0 
 5.020869e-07  3.657387e-09  0 
 3.814966e-07  1.966166e-09  0 
 2.564090e-07  4.295393e-10  0 
 6.561381e-08  1.102907e-07  0 
 8.444695e-09  7.085428e-08  0 
 -3.102414e-08  1.826351e-08  0 
 -2.279754e-07  -5.826023e-09  0 
 -2.372411e-07  -8.459314e-10  0 
 -2.274657e-07  4.128664e-09  0 
 -2.548698e-08  -2.189223e-08  0 
 9.429559e-09  -7.995341e-08  0 
 6.168967e-08  -1.143388e-07  0 
 2.570679e-07  6.424135e-10  0 
 3.828534e-07  -8.900977e-10  0 
 5.041815e-07  -2.678524e-09  0 
 1.584742e-07  3.020701e-07  0 
 1.804829e-07  5.878693e-07  0 
 2.122190e-07  8.790232e-07  0 
 5.402968e-07  1.144622e-06  0 
 4.431481e-07  1.143736e-06  0 
 3.571912e-07  1.138580e-06  0 
 -2.547919e-07  1.013786e-08  0 
 -2.965722e-07  -6.552036e-09  0 
 -2.914918e-07  -1.393793e-08  0 
 2.435993e-07  9.727995e-07  0 
 1.602453e-07  8.068801e-07  0 
 -1.646617e-07  6.663318e-07  0 
 -2.538991e-07  -1.304064e-08  0 
 -2.957701e-07  2.699726e-09  0 
 -2.904169e-07  9.036658e-09  0 
 -3.914417e-07  1.326281e-07  0 
 -4.161901e-07  -3.251348e-09  0 
 -3.907883e-07  -1.391153e-07  0 
 1.583662e-07  -3.030519e-07  0 
 1.805565e-07  -5.905452e-07  0 
 2.122169e-07  -8.834060e-07  0 
 -1.588699e-07  -6.700016e-07  0 
 1.607808e-07  -8.079762e-07  0 
 2.409770e-07  -9.783970e-07  0 
 6.352925e-07  -3.028599e-07  0 
 6.458361e-07  -5.990752e-07  0 
 6.506025e-07  -8.813640e-07  0 
 3.578059e-07  -1.144716e-06  0 
 4.444271e-07  -1.149704e-06  0 
 5.423679e-07  -1.150533e-06  0 
 5.133774e-07  3.021493e-07  0 
 3.937608e-07  3.026586e-07  0 
 2.741315e-07  3.033419e-07  0 
 5.275470e-07  5.960592e-07  0 
 4.125468e-07  5.946895e-07  0 
 2.971916e-07  5.918560e-07  0 
 5.407967e-07  8.774615e-07  0 
 4.326884e-07  8.790317e-07  0 
 3.239897e-07  8.798285e-07  0 
 1.596812e-08  2.009179e-07  0 
 -8.659626e-08  1.379413e-07  0 
 -1.880765e-07  8.072378e-08  0 
 2.586842e-08  4.375367e-07  0 
 -1.095311e-07  2.848069e-07  0 
 -2.179205e-07  1.370506e-07  0 
 8.714708e-08  6.878286e-07  0 
 -5.187566e-08  4.645880e-07  0 
 -1.625909e-07  2.162042e-07  0 
 -2.535696e-07  6.936799e-09  0 
 -2.524004e-07  -1.430057e-09  0 
 -2.531232e-07  -9.805470e-09  0 
 -2.868116e-07  -1.002258e-08  0 
 -2.861621e-07  -1.926357e-09  0 
 -2.863840e-07  6.172259e-09  0 
 -3.389651e-07  3.411076e-09  0 
 -3.537352e-07  -2.489731e-09  0 
 -3.384275e-07  -8.381259e-09  0 
 -1.875050e-07  -8.350725e-08  0 
 -8.611601e-08  -1.389870e-07  0 
 1.618700e-08  -2.023812e-07  0 
 -2.174232e-07  -1.405597e-07  0 
 -1.092341e-07  -2.881046e-07  0 
 2.611863e-08  -4.405434e-07  0 
 -1.621839e-07  -2.211886e-07  0 
 -5.138364e-08  -4.701476e-07  0 
 8.745005e-08  -6.921812e-07  0 
 2.747721e-07  -3.042744e-07  0 
 3.951593e-07  -3.035704e-07  0 
 5.155153e-07  -3.030553e-07  0 
 2.979084e-07  -5.945366e-07  0 
 4.139450e-07  -5.973723e-07  0 
 5.296316e-07  -5.987398e-07  0 
 3.247363e-07  -8.842034e-07  0 
 4.341092e-07  -8.833787e-07  0 
 5.428559e-07  -8.817726e-07  0 
VECTORS displacement_ITER6 FLOAT
 5.984210e-07  1.870921e-08  0 
 6.263647e-07  1.101368e-06  0 
 1.179822e-07  1.646996e-08  0 
 -1.683041e-07  8.229880e-10  0 
 -1.685032e-07  5.128865e-11  0 
 1.185427e-07  -1.670344e-08  0 
 5.962863e-07  -1.891444e-08  0 
 2.920772e-07  1.084578e-06  0 
 -2.740258e-07  3.544613e-07  0 
 -2.745958e-07  -3.529357e-07  0 
 2.921505e-07  -1.078451e-06  0 
 6.242307e-07  -1.095551e-06  0 
 6.101330e-07  3.031948e-07  0 
 6.196966e-07  5.826072e-07  0 
 6.251598e-07  8.469980e-07  0 
 4.853052e-07  1.832899e-08  0 
 3.695271e-07  1.695982e-08  0 
 2.484587e-07  1.457595e-08  0 
 8.045220e-08  -5.173308e-10  0 
 -4.512421e-08  -1.426124e-08  0 
 -1.080538e-07  4.070496e-08  0 
 -1.925108e-07  -2.322929e-09  0 
 -2.012028e-07  4.824916e-10  0 
 -1.926021e-07  3.258011e-09  0 
 -1.115982e-07  -3.920153e-08  0 
 -4.716058e-08  2.008282e-08  0 
 8.349353e-08  3.830134e-09  0 
 2.483403e-07  -1.485823e-08  0 
 3.687729e-07  -1.725520e-08  0 
 4.839011e-07  -1.857230e-08  0 
 1.584978e-07  3.022418e-07  0 
 1.818578e-07  5.747378e-07  0 
 2.140682e-07  8.525661e-07  0 
 5.276520e-07  1.098301e-06  0 
 4.318770e-07  1.091401e-06  0 
 3.452869e-07  1.088170e-06  0 
 -2.244287e-07  1.123043e-08  0 
 -2.668218e-07  -7.761250e-09  0 
 -2.515120e-07  -7.408822e-09  0 
 2.116128e-07  1.057089e-06  0 
 1.115938e-07  8.908083e-07  0 
 -3.158815e-08  7.963619e-07  0 
 -2.244997e-07  -1.010423e-08  0 
 -2.667557e-07  8.804691e-09  0 
 -2.516489e-07  8.346086e-09  0 
 -3.601451e-07  1.677911e-07  0 
 -3.847418e-07  5.445498e-10  0 
 -3.604744e-07  -1.665683e-07  0 
 1.590264e-07  -3.008051e-07  0 
 1.823001e-07  -5.717526e-07  0 
 2.145414e-07  -8.479029e-07  0 
 -3.592874e-08  -7.937805e-07  0 
 1.094560e-07  -8.889663e-07  0 
 2.118704e-07  -1.051991e-06  0 
 6.080490e-07  -3.017672e-07  0 
 6.176523e-07  -5.795559e-07  0 
 6.232638e-07  -8.425251e-07  0 
 3.451142e-07  -1.081942e-06  0 
 4.312953e-07  -1.085306e-06  0 
 5.264135e-07  -1.092400e-06  0 
 4.963858e-07  3.032695e-07  0 
 3.824720e-07  3.035316e-07  0 
 2.687961e-07  3.040277e-07  0 
 5.110512e-07  5.825374e-07  0 
 4.022193e-07  5.816516e-07  0 
 2.923698e-07  5.786368e-07  0 
 5.224057e-07  8.476745e-07  0 
 4.218470e-07  8.498532e-07  0 
 3.222333e-07  8.525787e-07  0 
 1.461123e-08  2.139567e-07  0 
 -8.591422e-08  1.456621e-07  0 
 -1.698605e-07  6.439030e-08  0 
 3.926740e-08  4.314962e-07  0 
 -8.828961e-08  2.744219e-07  0 
 -1.887276e-07  1.360223e-07  0 
 1.114945e-07  6.726055e-07  0 
 -1.430182e-08  4.887338e-07  0 
 -1.542472e-07  2.298297e-07  0 
 -2.213405e-07  8.608227e-09  0 
 -2.197130e-07  5.387145e-10  0 
 -2.213657e-07  -7.516176e-09  0 
 -2.563001e-07  -1.036729e-08  0 
 -2.560431e-07  5.150504e-10  0 
 -2.562962e-07  1.139776e-08  0 
 -3.115205e-07  9.801130e-09  0 
 -3.303539e-07  4.921239e-10  0 
 -3.115628e-07  -8.824485e-09  0 
 -1.697425e-07  -6.275866e-08  0 
 -8.555404e-08  -1.450419e-07  0 
 1.483329e-08  -2.128503e-07  0 
 -1.882951e-07  -1.345507e-07  0 
 -8.769861e-08  -2.723820e-07  0 
 3.982679e-08  -4.289512e-07  0 
 -1.539819e-07  -2.280193e-07  0 
 -1.418287e-08  -4.852999e-07  0 
 1.116966e-07  -6.687379e-07  0 
 2.686768e-07  -3.026025e-07  0 
 3.816901e-07  -3.021071e-07  0 
 4.949417e-07  -3.018429e-07  0 
 2.921933e-07  -5.756275e-07  0 
 4.014200e-07  -5.786241e-07  0 
 5.096356e-07  -5.794937e-07  0 
 3.220273e-07  -8.479553e-07  0 
 4.210101e-07  -8.452873e-07  0 
 5.209965e-07  -8.431718e-07  0 
VECTORS displacement_ITER7 FLOAT
 6.362633e-07  3.958884e-09  0 
 6.623371e-07  1.064577e-06  0 
 1.465437e-07  -5.111168e-10  0 
 -1.787801e-07  -1.167606e-09  0 
 -1.798383e-07  8.357024e-10  0 
 1.453283e-07  -2.576331e-10  0 
 6.382857e-07  -4.684061e-09  0 
 3.543224e-07  1.040590e-06  0 
 -3.023004e-07  3.998933e-07  0 
 -3.021438e-07  -3.955641e-07  0 
 3.541866e-07  -1.048882e-06  0 
 6.643064e-07  -1.072396e-06  0 
 6.472798e-07  2.904113e-07  0 
 6.549648e-07  5.679904e-07  0 
 6.583916e-07  8.230928e-07  0 
 5.216967e-07  3.048809e-09  0 
 4.046873e-07  7.218514e-10  0 
 2.812544e-07  -1.384477e-09  0 
 3.447236e-08  -1.174236e-08  0 
 3.445223e-09  2.257457e-08  0 
 -8.337744e-08  -3.869223e-09  0 
 -2.090148e-07  -3.906305e-09  0 
 -2.182708e-07  -2.256156e-10  0 
 -2.095394e-07  3.505889e-09  0 
 -8.194978e-08  5.328534e-09  0 
 6.551848e-09  -2.532009e-08  0 
 3.341314e-08  7.453840e-09  0 
 2.808344e-07  6.914072e-10  0 
 4.050388e-07  -1.389945e-09  0 
 5.228496e-07  -3.742302e-09  0 
 1.939256e-07  2.903359e-07  0 
 2.246123e-07  5.607877e-07  0 
 2.672091e-07  8.300852e-07  0 
 5.645062e-07  1.062914e-06  0 
 4.761152e-07  1.057819e-06  0 
 4.013566e-07  1.044610e-06  0 
 -2.437299e-07  1.252888e-08  0 
 -2.928926e-07  -8.531341e-09  0 
 -2.783154e-07  -1.283051e-08  0 
 2.982332e-07  1.021933e-06  0 
 1.430357e-07  9.585644e-07  0 
 3.898289e-08  7.211519e-07  0 
 -2.448571e-07  -1.160460e-08  0 
 -2.941292e-07  1.102307e-08  0 
 -2.791659e-07  1.693653e-08  0 
 -4.051348e-07  1.822153e-07  0 
 -4.349330e-07  2.686787e-09  0 
 -4.049147e-07  -1.771853e-07  0 
 1.927372e-07  -2.930110e-07  0 
 2.234266e-07  -5.654329e-07  0 
 2.661100e-07  -8.370110e-07  0 
 4.437261e-08  -7.224670e-07  0 
 1.484436e-07  -9.629666e-07  0 
 3.026626e-07  -1.029316e-06  0 
 6.492962e-07  -2.931616e-07  0 
 6.569372e-07  -5.728172e-07  0 
 6.599957e-07  -8.295828e-07  0 
 4.011799e-07  -1.053319e-06  0 
 4.760648e-07  -1.066379e-06  0 
 5.651286e-07  -1.070993e-06  0 
 5.334095e-07  2.906103e-07  0 
 4.190435e-07  2.911328e-07  0 
 3.047846e-07  2.917522e-07  0 
 5.482632e-07  5.678726e-07  0 
 4.417176e-07  5.671887e-07  0 
 3.338892e-07  5.643730e-07  0 
 5.611175e-07  8.239842e-07  0 
 4.642592e-07  8.262116e-07  0 
 3.687093e-07  8.304688e-07  0 
 4.697134e-08  1.993359e-07  0 
 -8.076013e-08  1.195942e-07  0 
 -1.724318e-07  6.801569e-08  0 
 6.550485e-08  4.166347e-07  0 
 -7.737078e-08  2.682514e-07  0 
 -1.950599e-07  1.223668e-07  0 
 1.502963e-07  6.618578e-07  0 
 8.712459e-09  4.643089e-07  0 
 -1.684547e-07  2.428290e-07  0 
 -2.405159e-07  9.680544e-09  0 
 -2.392658e-07  4.930457e-10  0 
 -2.410998e-07  -8.716272e-09  0 
 -2.807598e-07  -1.150331e-08  0 
 -2.807234e-07  1.270890e-09  0 
 -2.813334e-07  1.403982e-08  0 
 -3.448461e-07  1.075035e-08  0 
 -3.652166e-07  2.026655e-09  0 
 -3.453308e-07  -6.691523e-09  0 
 -1.735788e-07  -6.875134e-08  0 
 -8.206876e-08  -1.202119e-07  0 
 4.586960e-08  -2.004041e-07  0 
 -1.967742e-07  -1.215952e-07  0 
 -7.934796e-08  -2.693705e-07  0 
 6.381288e-08  -4.196255e-07  0 
 -1.696276e-07  -2.413159e-07  0 
 8.057450e-09  -4.661869e-07  0 
 1.494397e-07  -6.665456e-07  0 
 3.043632e-07  -2.944567e-07  0 
 4.194299e-07  -2.938652e-07  0 
 5.346159e-07  -2.933590e-07  0 
 3.335358e-07  -5.690819e-07  0 
 4.421428e-07  -5.719439e-07  0 
 5.494435e-07  -5.726751e-07  0 
 3.684194e-07  -8.372783e-07  0 
 4.647555e-07  -8.328928e-07  0 
 5.622784e-07  -8.305340e-07  0 
VECTORS displacement_ITER8 FLOAT
 6.965830e-07  3.910751e-09  0 
 7.302043e-07  1.146703e-06  0 
 1.611171e-07  2.289328e-10  0 
 -2.076889e-07  -3.242276e-09  0 
 -2.042641e-07  2.774990e-09  0 
 1.638130e-07  2.312241e-09  0 
 6.944093e-07  -1.589501e-09  0 
 4.041078e-07  1.114548e-06  0 
 -3.611023e-07  4.226587e-07  0 
 -3.601571e-07  -4.382743e-07  0 
 4.045297e-07  -1.100937e-06  0 
 7.281164e-07  -1.133900e-06  0 
 7.083777e-07  3.149172e-07  0 
 7.169638e-07  6.137277e-07  0 
 7.227855e-07  8.865205e-07  0 
 5.721018e-07  3.030261e-09  0 
 4.443105e-07  5.871677e-10  0 
 3.098851e-07  -1.571517e-09  0 
 4.794854e-08  3.188775e-08  0 
 -4.358422e-09  3.082673e-08  0 
 -8.237282e-08  7.438726e-09  0 
 -2.420673e-07  -6.183599e-09  0 
 -2.521646e-07  -1.398576e-10  0 
 -2.403670e-07  5.833211e-09  0 
 -8.073575e-08  -1.421453e-08  0 
 -9.652948e-09  -3.251817e-08  0 
 4.641010e-08  -2.516085e-08  0 
 3.114110e-07  3.957431e-09  0 
 4.446706e-07  1.710007e-09  0 
 5.712273e-07  -7.325633e-10  0 
 2.180378e-07  3.154170e-07  0 
 2.545036e-07  6.055914e-07  0 
 3.037047e-07  8.950376e-07  0 
 6.257184e-07  1.143662e-06  0 
 5.285409e-07  1.135791e-06  0 
 4.517937e-07  1.123770e-06  0 
 -2.833479e-07  1.138721e-08  0 
 -3.408489e-07  -1.522000e-08  0 