# vtk DataFile Version 3.1
this is an vtk file created by FEMAC
ASCII
DATASET UNSTRUCTURED_GRID
POINTS 105 FLOAT
0.500000 0.000000 0.000000
1.000000 0.000000 0.000000
0.500000 0.200000 0.000000
0.500000 0.400000 0.000000
0.500000 0.600000 0.000000
0.500000 0.800000 0.000000
0.500000 1.000000 0.000000
1.000000 0.200000 0.000000
1.000000 0.400000 0.000000
1.000000 0.600000 0.000000
1.000000 0.800000 0.000000
1.000000 1.000000 0.000000
0.625000 0.000000 0.000000
0.750000 0.000000 0.000000
0.875000 0.000000 0.000000
0.500000 0.050000 0.000000
0.500000 0.100000 0.000000
0.500000 0.150000 0.000000
0.500000 0.250000 0.000000
0.500000 0.300000 0.000000
0.500000 0.350000 0.000000
0.500000 0.450000 0.000000
0.500000 0.500000 0.000000
0.500000 0.550000 0.000000
0.500000 0.650000 0.000000
0.500000 0.700000 0.000000
0.500000 0.750000 0.000000
0.500000 0.850000 0.000000
0.500000 0.900000 0.000000
0.500000 0.950000 0.000000
0.625000 0.200000 0.000000
0.750000 0.200000 0.000000
0.875000 0.200000 0.000000
1.000000 0.050000 0.000000
1.000000 0.100000 0.000000
1.000000 0.150000 0.000000
0.625000 0.400000 0.000000
0.750000 0.400000 0.000000
0.875000 0.400000 0.000000
1.000000 0.250000 0.000000
1.000000 0.300000 0.000000
1.000000 0.350000 0.000000
0.625000 0.600000 0.000000
0.750000 0.600000 0.000000
0.875000 0.600000 0.000000
1.000000 0.450000 0.000000
1.000000 0.500000 0.000000
1.000000 0.550000 0.000000
0.625000 0.800000 0.000000
0.750000 0.800000 0.000000
0.875000 0.800000 0.000000
1.000000 0.650000 0.000000
1.000000 0.700000 0.000000
1.000000 0.750000 0.000000
0.625000 1.000000 0.000000
0.750000 1.000000 0.000000
0.875000 1.000000 0.000000
1.000000 0.850000 0.000000
1.000000 0.900000 0.000000
1.000000 0.950000 0.000000
0.625000 0.050000 0.000000
0.625000 0.100000 0.000000
0.625000 0.150000 0.000000
0.750000 0.050000 0.000000
0.750000 0.100000 0.000000
0.750000 0.150000 0.000000
0.875000 0.050000 0.000000
0.875000 0.100000 0.000000
0.875000 0.150000 0.000000
0.625000 0.250000 0.000000
0.625000 0.300000 0.000000
0.625000 0.350000 0.000000
0.750000 0.250000 0.000000
0.750000 0.300000 0.000000
0.750000 0.350000 0.000000
0.875000 0.250000 0.000000
0.875000 0.300000 0.000000
0.875000 0.350000 0.000000
0.625000 0.450000 0.000000
0.625000 0.500000 0.000000
0.625000 0.550000 0.000000
0.750000 0.450000 0.000000
0.750000 0.500000 0.000000
0.750000 0.550000 0.000000
0.875000 0.450000 0.000000
0.875000 0.500000 0.000000
0.875000 0.550000 0.000000
0.625000 0.650000 0.000000
0.625000 0.700000 0.000000
0.625000 0.750000 0.000000
0.750000 0.650000 0.000000
0.750000 0.700000 0.000000
0.750000 0.750000 0.000000
0.875000 0.650000 0.000000
0.875000 0.700000 0.000000
0.875000 0.750000 0.000000
0.625000 0.850000 0.000000
0.625000 0.900000 0.000000
0.625000 0.950000 0.000000
0.750000 0.850000 0.000000
0.750000 0.900000 0.000000
0.750000 0.950000 0.000000
0.875000 0.850000 0.000000
0.875000 0.900000 0.000000
0.875000 0.950000 0.000000
CELLS 80 400 
4 0 12 60 15
4 15 60 61 16
4 16 61 62 17
4 17 62 30  2
4 12 13 63 60
4 60 63 64 61
4 61 64 65 62
4 62 65 31 30
4 13 14 66 63
4 63 66 67 64
4 64 67 68 65
4 65 68 32 31
4 14  1 33 66
4 66 33 34 67
4 67 34 35 68
4 68 35  7 32
4 2 30 69 18
4 18 69 70 19
4 19 70 71 20
4 20 71 36  3
4 30 31 72 69
4 69 72 73 70
4 70 73 74 71
4 71 74 37 36
4 31 32 75 72
4 72 75 76 73
4 73 76 77 74
4 74 77 38 37
4 32  7 39 75
4 75 39 40 76
4 76 40 41 77
4 77 41  8 38
4 3 36 78 21
4 21 78 79 22
4 22 79 80 23
4 23 80 42  4
4 36 37 81 78
4 78 81 82 79
4 79 82 83 80
4 80 83 43 42
4 37 38 84 81
4 81 84 85 82
4 82 85 86 83
4 83 86 44 43
4 38  8 45 84
4 84 45 46 85
4 85 46 47 86
4 86 47  9 44
4 4 42 87 24
4 24 87 88 25
4 25 88 89 26
4 26 89 48  5
4 42 43 90 87
4 87 90 91 88
4 88 91 92 89
4 89 92 49 48
4 43 44 93 90
4 90 93 94 91
4 91 94 95 92
4 92 95 50 49
4 44  9 51 93
4 93 51 52 94
4 94 52 53 95
4 95 53 10 50
4 5 48 96 27
4 27 96 97 28
4 28 97 98 29
4 29 98 54  6
4 48 49 99 96
4 96  99 100  97
4 97 100 101  98
4 98 101  55  54
4 49  50 102  99
4 99 102 103 100
4 100 103 104 101
4 101 104  56  55
4 50  10  57 102
4 102  57  58 103
4 103  58  59 104
4 104  59  11  56
CELL_TYPES 80
9 9 9 9 9 9 9 9 9 9 9 9 9 9 9 9 9 9 9 9 9 9 9 9 9 9 9 9 9 9 9 9 9 9 9 9 9 9 9 9 9 9 9 9 9 9 9 9 9 9 9 9 9 9 9 9 9 9 9 9 9 9 9 9 9 9 9 9 9 9 9 9 9 9 9 9 9 9 9 9 
POINT_DATA 105
VECTORS displacement_ITER1 FLOAT
 8.520862e-15  -5.182777e-16  0 
 -2.581246e-15  1.689923e-15  0 
 2.437354e-15  2.338499e-16  0 
 1.003032e-15  3.385589e-16  0 
 -1.789993e-16  2.212544e-16  0 
 -1.657778e-15  1.183546e-16  0 
 -7.846246e-15  -8.589236e-16  0 
 1.517095e-15  2.656896e-15  0 
 9.710078e-16  2.771010e-15  0 
 -1.967190e-16  2.783733e-15  0 
 -8.034051e-16  2.678372e-15  0 
 3.143700e-15  1.619101e-15  0 
 5.492041e-15  1.527415e-15  0 
 2.925560e-15  2.722738e-15  0 
 3.680338e-16  2.684602e-15  0 
 7.577650e-15  -5.910896e-16  0 
 6.303908e-15  -6.998712e-16  0 
 4.622430e-15  -5.876299e-16  0 
 2.009194e-15  2.772463e-16  0 
 1.644986e-15  3.143543e-16  0 
 1.315421e-15  3.352844e-16  0 
 8.622763e-16  8.337701e-17  0 
 4.708347e-16  -3.292526e-17  0 
 5.355714e-17  1.765567e-17  0 
 -5.084054e-16  2.179553e-16  0 
 -8.511576e-16  1.977184e-16  0 
 -1.224909e-15  1.614966e-16  0 
 -3.752127e-15  -7.717073e-16  0 
 -5.434447e-15  -9.589384e-16  0 
 -6.772131e-15  -9.083482e-16  0 
 2.224236e-15  1.187413e-15  0 
 1.963798e-15  1.878953e-15  0 
 1.709987e-15  2.391807e-15  0 
 -2.049278e-15  1.634402e-15  0 
 -1.250000e-15  1.570753e-15  0 
 -8.953959e-17  1.749275e-15  0 
 9.708623e-16  1.134681e-15  0 
 9.944340e-16  1.834225e-15  0 
 1.014086e-15  2.343582e-15  0 
 1.447799e-15  2.702945e-15  0 
 1.318614e-15  2.742234e-15  0 
 1.154989e-15  2.765676e-15  0 
 -1.603685e-16  1.052019e-15  0 
 -1.950486e-16  1.781561e-15  0 
 -2.258992e-16  2.326332e-15  0 
 5.360347e-16  2.561447e-15  0 
 3.410796e-16  2.481291e-15  0 
 1.656814e-16  2.560801e-15  0 
 -1.462807e-15  1.096550e-15  0 
 -1.218117e-15  1.822820e-15  0 
 -9.798119e-16  2.369015e-15  0 
 -3.895863e-16  2.780273e-15  0 
 -5.662815e-16  2.759271e-15  0 
 -7.123576e-16  2.722498e-15  0 
 -4.814555e-15  1.408716e-15  0 
 -2.256841e-15  2.655245e-15  0 
 2.588131e-16  2.652204e-15  0 
 6.778079e-16  1.758501e-15  0 
 1.782761e-15  1.545511e-15  0 
 2.574758e-15  1.577211e-15  0 
 4.738896e-15  1.554442e-15  0 
 3.879274e-15  1.600367e-15  0 
 2.958276e-15  1.575083e-15  0 
 2.690428e-15  2.695439e-15  0 
 2.452998e-15  2.573223e-15  0 
 2.211884e-15  2.273372e-15  0 
 6.669535e-16  2.710404e-15  0 
 1.058108e-15  2.759189e-15  0 
 1.487259e-15  2.748625e-15  0 
 1.895083e-15  1.167923e-15  0 
 1.578991e-15  1.151244e-15  0 
 1.274706e-15  1.140209e-15  0 
 1.722348e-15  1.866832e-15  0 
 1.480043e-15  1.851154e-15  0 
 1.237227e-15  1.839190e-15  0 
 1.553942e-15  2.373732e-15  0 
 1.382356e-15  2.358752e-15  0 
 1.198197e-15  2.348618e-15  0 
 6.984919e-16  1.079280e-15  0 
 4.170462e-16  1.058398e-15  0 
 1.272371e-16  1.045594e-15  0 
 7.021822e-16  1.772869e-15  0 
 4.062088e-16  1.742298e-15  0 
 1.069859e-16  1.745953e-15  0 
 7.037189e-16  2.310071e-15  0 
 3.952604e-16  2.307428e-15  0 
 8.865657e-17  2.309076e-15  0 
 -4.767349e-16  1.055625e-15  0 
 -7.935611e-16  1.064456e-15  0 
 -1.121572e-15  1.078903e-15  0 
 -4.510242e-16  1.785759e-15  0 
 -7.071863e-16  1.796545e-15  0 
 -9.630207e-16  1.811150e-15  0 
 -4.236823e-16  2.330205e-15  0 
 -6.218349e-16  2.338907e-15  0 
 -8.084093e-16  2.352349e-15  0 
 -2.196882e-15  1.454710e-15  0 
 -3.129227e-15  1.474529e-15  0 
 -4.021188e-15  1.432167e-15  0 
 -1.486284e-15  2.208541e-15  0 
 -1.748112e-15  2.504165e-15  0 
 -2.005223e-15  2.627371e-15  0 
 -7.945443e-16  2.706224e-15  0 
 -4.005146e-16  2.718006e-15  0 
 -2.947990e-17  2.674764e-15  0 
VECTORS displacement_ITER2 FLOAT
 -6.040162e-15  1.505553e-15  0 
 -3.819026e-15  -3.119634e-15  0 
 -2.872627e-15  -6.630264e-16  0 
 -1.178123e-15  -6.688511e-16  0 
 5.844811e-16  -7.135931e-16  0 
 2.266677e-15  -7.218669e-16  0 
 5.112554e-15  1.296952e-15  0 
 -3.428211e-15  -5.470599e-15  0 
 -1.300725e-15  -5.467218e-15  0 
 6.961264e-16  -5.492488e-15  0 
 2.822352e-15  -5.503061e-15  0 
 3.521299e-15  -3.295003e-15  0 
 -5.575800e-15  -1.562978e-15  0 
 -5.061335e-15  -3.111651e-15  0 
 -4.480760e-15  -3.991793e-15  0 
 -4.498400e-15  1.359069e-15  0 
 -3.371203e-15  9.455927e-16  0 
 -2.685915e-15  2.646409e-16  0 
 -2.497241e-15  -6.643659e-16  0 
 -2.079930e-15  -6.624332e-16  0 
 -1.637973e-15  -6.630031e-16  0 
 -7.266363e-16  -1.000627e-15  0 
 -3.427032e-16  -1.068054e-15  0 
 7.058772e-17  -9.842696e-16  0 
 1.040393e-15  -7.108832e-16  0 
 1.479049e-15  -7.136799e-16  0 
 1.893504e-15  -7.192594e-16  0 
 2.004250e-15  7.367795e-17  0 
 2.588892e-15  7.218740e-16  0 
 3.637061e-15  1.142711e-15  0 
 -3.018527e-15  -1.720421e-15  0 
 -3.156273e-15  -2.905669e-15  0 
 -3.292814e-15  -4.124656e-15  0 
 -4.555983e-15  -3.300920e-15  0 
 -4.813994e-15  -3.789568e-15  0 
 -4.572129e-15  -4.535476e-15  0 
 -1.229744e-15  -1.763165e-15  0 
 -1.234239e-15  -2.910148e-15  0 
 -1.242135e-15  -4.167538e-15  0 
 -2.849400e-15  -5.468554e-15  0 
 -2.310349e-15  -5.464187e-15  0 
 -1.795826e-15  -5.462724e-15  0 
 6.332551e-16  -1.804061e-15  0 
 6.368380e-16  -2.944057e-15  0 
 6.423257e-16  -4.195737e-15  0 
 -8.400182e-16  -5.805405e-15  0 
 -2.753762e-16  -5.882489e-15  0 
 2.700132e-16  -5.790716e-15  0 
 2.407805e-15  -1.763065e-15  0 
 2.548920e-15  -2.937501e-15  0 
 2.689102e-15  -4.154521e-15  0 
 1.192541e-15  -5.488919e-15  0 
 1.706925e-15  -5.491979e-15  0 
 2.245038e-15  -5.498523e-15  0 
 4.794317e-15  -1.616915e-15  0 
 4.439894e-15  -3.095703e-15  0 
 4.021490e-15  -4.022672e-15  0 
 4.034988e-15  -4.684203e-15  0 
 4.367072e-15  -3.971084e-15  0 
 4.189547e-15  -3.481112e-15  0 
 -4.743449e-15  -1.549543e-15  0 
 -3.990528e-15  -1.544185e-15  0 
 -3.429627e-15  -1.577243e-15  0 
 -4.574362e-15  -3.091116e-15  0 
 -4.096564e-15  -3.027829e-15  0 
 -3.625885e-15  -2.960960e-15  0 
 -4.377038e-15  -3.970128e-15  0 
 -4.200343e-15  -3.949415e-15  0 
 -3.823457e-15  -3.973576e-15  0 
 -2.568335e-15  -1.733656e-15  0 
 -2.121682e-15  -1.747755e-15  0 
 -1.673429e-15  -1.758423e-15  0 
 -2.675887e-15  -2.904077e-15  0 
 -2.195384e-15  -2.906321e-15  0 
 -1.714947e-15  -2.908919e-15  0 
 -2.781419e-15  -4.138335e-15  0 
 -2.268476e-15  -4.152097e-15  0 
 -1.757664e-15  -4.162637e-15  0 
 -7.476320e-16  -1.784567e-15  0 
 -3.034337e-16  -1.815933e-15  0 
 1.457159e-16  -1.816862e-15  0 
 -7.655775e-16  -2.942209e-15  0 
 -2.973677e-16  -2.950216e-15  0 
 1.696814e-16  -2.957608e-15  0 
 -7.871703e-16  -4.185436e-15  0 
 -2.954979e-16  -4.209367e-15  0 
 1.929421e-16  -4.207221e-15  0 
 1.075246e-15  -1.799523e-15  0 
 1.520731e-15  -1.789621e-15  0 
 1.963490e-15  -1.776258e-15  0 
 1.114932e-15  -2.942905e-15  0 
 1.592947e-15  -2.939791e-15  0 
 2.070994e-15  -2.936697e-15  0 
 1.155639e-15  -4.191275e-15  0 
 1.664917e-15  -4.181404e-15  0 
 2.177100e-15  -4.168162e-15  0 
 2.793826e-15  -1.607563e-15  0 
 3.309890e-15  -1.583492e-15  0 
 4.011918e-15  -1.599351e-15  0 
 3.016049e-15  -2.972874e-15  0 
 3.483695e-15  -3.022249e-15  0 
 3.957645e-15  -3.077262e-15  0 
 3.239799e-15  -3.989618e-15  0 
 3.655231e-15  -3.970460e-15  0 
 3.875188e-15  -3.998061e-15  0 
VECTORS displacement_ITER3 FLOAT
 1.840766e-15  -6.514569e-17  0 
 -8.486302e-16  1.833875e-16  0 
 6.388213e-16  -1.406127e-16  0 
 2.489986e-16  -1.357468e-16  0 
 -8.720152e-17  -1.056707e-16  0 
 -4.746835e-16  -1.141865e-16  0 
 -1.419849e-15  1.848808e-16  0 
 5.950382e-17  2.086938e-16  0 
 1.382027e-16  2.315083e-16  0 
 1.189308e-18  2.635884e-16  0 
 7.887843e-17  2.449295e-16  0 
 7.483462e-16  4.351294e-16  0 
 9.361549e-16  3.734725e-16  0 
 4.669880e-16  4.066109e-16  0 
 4.349759e-19  5.045068e-16  0 
 1.490388e-15  4.551198e-17  0 
 1.291045e-15  2.505150e-16  0 
 1.156882e-15  2.916705e-16  0 
 4.902755e-16  -1.382933e-16  0 
 3.869406e-16  -1.324290e-16  0 
 3.089841e-16  -1.306171e-16  0 
 1.544364e-16  -3.090160e-16  0 
 6.688620e-17  -3.182360e-16  0 
 -1.244278e-17  -2.750944e-16  0 
 -1.491437e-16  -1.022858e-16  0 
 -2.274050e-16  -1.049052e-16  0 
 -3.295682e-16  -1.112000e-16  0 
 -1.002477e-15  3.558170e-16  0 
 -1.109549e-15  3.936067e-16  0 
 -1.222987e-15  2.631465e-16  0 
 4.791690e-16  1.001187e-16  0 
 3.408083e-16  2.138933e-16  0 
 2.051691e-16  2.740812e-16  0 
 -5.607938e-16  2.932208e-16  0 
 -4.309199e-16  5.039560e-16  0 
 -3.711727e-16  5.713763e-16  0 
 2.000608e-16  6.456185e-17  0 
 1.987098e-16  2.069819e-16  0 
 1.935875e-16  2.408700e-16  0 
 1.290049e-16  2.172973e-16  0 
 1.556913e-16  2.276162e-16  0 
 1.568903e-16  2.332711e-16  0 
 -4.480779e-17  9.160974e-17  0 
 -4.579380e-17  2.346012e-16  0 
 -4.491209e-17  2.727229e-16  0 
 9.464435e-17  9.900145e-17  0 
 6.116457e-17  9.613174e-17  0 
 2.992804e-17  1.243722e-16  0 
 -3.243503e-16  1.269083e-16  0 
 -1.912090e-16  2.422720e-16  0 
 -6.047890e-17  3.051967e-16  0 
 -1.407121e-17  2.660847e-16  0 
 -1.227175e-17  2.615516e-16  0 
 1.300833e-17  2.524506e-16  0 
 -6.807658e-16  3.824133e-16  0 
 -3.219376e-16  3.938560e-16  0 
 4.047593e-17  5.261402e-16  0 
 5.167019e-16  6.538279e-16  0 
 5.459368e-16  6.608650e-16  0 
 6.005658e-16  5.163934e-16  0 
 8.633500e-16  3.400804e-16  0 
 7.467303e-16  2.638575e-16  0 
 6.111490e-16  1.808900e-16  0 
 4.393719e-16  4.027254e-16  0 
 4.100376e-16  3.774269e-16  0 
 3.769632e-16  3.142029e-16  0 
 2.255102e-17  4.743319e-16  0 
 8.141737e-17  4.076367e-16  0 
 1.517095e-16  3.397340e-16  0 
 4.130863e-16  9.006087e-17  0 
 3.426376e-16  7.730830e-17  0 
 2.736794e-16  6.785211e-17  0 
 3.055684e-16  2.127697e-16  0 
 2.701311e-16  2.103550e-16  0 
 2.343223e-16  2.080832e-16  0 
 2.012919e-16  2.642422e-16  0 
 1.989658e-16  2.527372e-16  0 
 1.941464e-16  2.441043e-16  0 
 1.514369e-16  5.960465e-17  0 
 7.529220e-17  4.784377e-17  0 
 1.732890e-18  6.857485e-17  0 
 1.375970e-16  1.897522e-16  0 
 7.693358e-17  1.962061e-16  0 
 1.549841e-17  2.042380e-16  0 
 1.233883e-16  2.406362e-16  0 
 7.397765e-17  2.350012e-16  0 
 2.489988e-17  2.560536e-16  0 
 -1.174740e-16  9.530354e-17  0 
 -1.864490e-16  1.044163e-16  0 
 -2.572230e-16  1.167209e-16  0 
 -8.244365e-17  2.360893e-16  0 
 -1.190192e-16  2.387566e-16  0 
 -1.552272e-16  2.413503e-16  0 
 -4.687362e-17  2.759179e-16  0 
 -5.250459e-17  2.841681e-16  0 
 -5.571605e-17  2.953458e-16  0 
 -4.524593e-16  2.142755e-16  0 
 -5.682025e-16  2.904066e-16  0 
 -6.476693e-16  3.553887e-16  0 
 -2.272899e-16  3.260738e-16  0 
 -2.608550e-16  3.757197e-16  0 
 -2.916125e-16  3.921867e-16  0 
 -1.105975e-17  3.780109e-16  0 
 3.903368e-17  4.423556e-16  0 
 5.942076e-17  5.011371e-16  0 
VECTORS displacement_ITER4 FLOAT
 2.013896e-15  -7.984138e-16  0 
 -2.343673e-15  -1.194909e-15  0 
 2.304129e-16  2.066888e-16  0 
 8.433125e-17  2.056875e-16  0 
 -3.696403e-17  1.913069e-16  0 
 -1.875458e-16  1.863158e-16  0 
 -1.951013e-15  -8.283025e-16  0 
 -2.798731e-16  1.429341e-17  0 
 -1.334929e-17  3.749971e-17  0 
 3.581394e-17  4.454795e-17  0 
 2.919894e-16  2.436345e-17  0 
 2.293841e-15  -1.177700e-15  0 
 6.725234e-16  5.435228e-16  0 
 -1.378363e-16  5.917200e-16  0 
 -9.779990e-16  4.025758e-16  0 
 1.083399e-15  -5.894588e-16  0 
 5.548440e-16  -1.163276e-16  0 
 3.478434e-16  3.223851e-16  0 
 1.472204e-16  2.055719e-16  0 
 1.057448e-16  2.104374e-16  0 
 8.668543e-17  2.117546e-16  0 
 5.827200e-18  1.921645e-16  0 
 2.511459e-17  2.137312e-16  0 
 3.911631e-17  1.857950e-16  0 
 -4.294185e-17  1.950060e-16  0 
 -6.405537e-17  1.926388e-16  0 
 -1.061618e-16  1.869419e-16  0 
 -2.976382e-16  3.056650e-16  0 
 -4.894483e-16  -1.329099e-16  0 
 -1.013960e-15  -6.148001e-16  0 
 7.964895e-17  2.820433e-16  0 
 -3.294543e-17  2.588026e-16  0 
 -1.430232e-16  1.869554e-16  0 
 -1.301512e-15  -9.726933e-16  0 
 -6.923023e-16  -4.614011e-16  0 
 -4.318721e-16  3.673178e-17  0 
 4.142600e-17  2.566064e-16  0 
 4.028169e-17  2.541063e-16  0 
 3.543039e-17  1.641869e-16  0 
 -1.667602e-16  2.182887e-17  0 
 -9.384739e-17  3.254817e-17  0 
 -4.408341e-17  3.882783e-17  0 
 -5.385509e-19  2.443643e-16  0 
 -3.041222e-18  2.476122e-16  0 
 -3.550427e-18  1.663858e-16  0 
 3.639023e-17  8.244531e-17  0 
 -1.824682e-18  1.263960e-16  0 
 -3.196117e-17  8.636604e-17  0 
 -4.741421e-17  2.679186e-16  0 
 5.893218e-17  2.521180e-16  0 
 1.629663e-16  1.869413e-16  0 
 6.803287e-17  4.611116e-17  0 
 1.161893e-16  4.087133e-17  0 
 1.853185e-16  3.130324e-17  0 
 -6.366762e-16  5.245623e-16  0 
 1.471526e-16  5.763210e-16  0 
 9.570329e-16  4.054276e-16  0 
 4.253218e-16  6.392735e-17  0 
 6.551568e-16  -4.300283e-16  0 
 1.253543e-15  -9.502093e-16  0 
 4.718583e-16  4.957620e-16  0 
 2.611508e-16  3.958022e-16  0 
 1.390233e-16  2.935321e-16  0 
 -1.117271e-16  5.748262e-16  0 
 -8.332951e-17  5.091591e-16  0 
 -5.666516e-17  4.063189e-16  0 
 -7.025801e-16  3.558908e-16  0 
 -4.223561e-16  2.625735e-16  0 
 -2.417195e-16  1.768465e-16  0 
 7.634436e-17  2.765968e-16  0 
 6.614805e-17  2.662463e-16  0 
 5.619779e-17  2.584343e-16  0 
 -1.432744e-17  2.570389e-16  0 
 4.127660e-18  2.561560e-16  0 
 2.212349e-17  2.551401e-16  0 
 -1.014036e-16  1.815983e-16  0 
 -5.613471e-17  1.726730e-16  0 
 -1.238781e-17  1.659067e-16  0 
 3.868096e-17  2.457537e-16  0 
 2.115265e-17  2.289283e-16  0 
 4.367293e-18  2.397154e-16  0 
 3.010837e-17  2.325997e-16  0 
 1.990468e-17  2.300982e-16  0 
 8.759183e-18  2.293708e-16  0 
 2.349067e-17  1.630670e-16  0 
 1.578551e-17  1.539614e-16  0 
 8.184451e-18  1.657614e-16  0 
 -1.655427e-17  2.461513e-16  0 
 -2.852286e-17  2.531597e-16  0 
 -4.095352e-17  2.626383e-16  0 
 1.213891e-17  2.485576e-16  0 
 2.736881e-17  2.495989e-16  0 
 4.304211e-17  2.504818e-16  0 
 4.103064e-17  1.677520e-16  0 
 8.198852e-17  1.737386e-16  0 
 1.242504e-16  1.819268e-16  0 
 -1.043475e-16  2.744077e-16  0 
 -2.254687e-16  3.744258e-16  0 
 -4.354896e-16  4.758711e-16  0 
 7.885674e-17  3.953286e-16  0 
 1.013674e-16  4.957044e-16  0 
 1.254339e-16  5.597600e-16  0 
 2.513779e-16  1.733841e-16  0 
 4.219847e-16  2.598659e-16  0 
 6.908969e-16  3.570705e-16  0 
VECTORS displacement_ITER5 FLOAT
 -1.176988e-15  -4.805185e-16  0 
 -3.581533e-15  -3.066558e-15  0 
 -1.138913e-15  1.991853e-16  0 
 -3.041571e-16  1.826838e-16  0 
 5.379581e-16  1.294407e-16  0 
 1.364328e-15  1.360061e-16  0 
 1.142099e-15  -7.887095e-16  0 
 -1.554782e-15  -2.319943e-15  0 
 -4.051668e-16  -2.309579e-15  0 
 6.146530e-16  -2.333382e-15  0 
 1.751248e-15  -2.343682e-15  0 
 3.958746e-15  -3.302964e-15  0 
 -1.919094e-15  -2.351507e-16  0 
 -2.375376e-15  -7.913135e-16  0 
 -2.843658e-15  -1.520057e-15  0 
 -1.524261e-15  -3.813373e-16  0 
 -1.650711e-15  -1.165485e-16  0 
 -1.580901e-15  2.360159e-16  0 
 -9.708806e-16  1.899354e-16  0 
 -7.668017e-16  1.911057e-16  0 
 -5.436951e-16  1.907057e-16  0 
 -1.645306e-16  2.910790e-16  0 
 1.245462e-16  3.219629e-16  0 
 4.014455e-16  2.516045e-16  0 
 7.734276e-16  1.342941e-16  0 
 9.935980e-16  1.330058e-16  0 
 1.195896e-15  1.300880e-16  0 
 1.814672e-15  1.261215e-16  0 
 1.867202e-15  -3.058186e-16  0 
 1.653307e-15  -6.533376e-16  0 
 -1.271837e-15  -3.521580e-16  0 
 -1.352611e-15  -9.662294e-16  0 
 -1.432724e-15  -1.607192e-15  0 
 -2.726544e-15  -2.966175e-15  0 
 -2.088473e-15  -2.694442e-15  0 
 -1.645672e-15  -2.326056e-15  0 
 -3.450882e-16  -3.691462e-16  0 
 -3.495968e-16  -9.649224e-16  0 
 -3.578824e-16  -1.624088e-15  0 
 -1.225026e-15  -2.319166e-15  0 
 -9.315433e-16  -2.311608e-15  0 
 -6.586998e-16  -2.306778e-15  0 
 5.734515e-16  -4.178062e-16  0 
 5.737537e-16  -1.004995e-15  0 
 5.761997e-16  -1.654214e-15  0 
 -9.264731e-17  -2.171738e-15  0 
 9.495723e-17  -2.121275e-15  0 
 2.913573e-16  -2.188123e-15  0 
 1.486605e-15  -4.038225e-16  0 
 1.562154e-15  -1.006826e-15  0 
 1.637164e-15  -1.640730e-15  0 
 8.689431e-16  -2.331120e-15  0 
 1.139483e-15  -2.335423e-15  0 
 1.428561e-15  -2.342451e-15  0 
 2.020666e-15  -2.778674e-16  0 
 2.563075e-15  -7.987115e-16  0 
 3.106661e-15  -1.539475e-15  0 
 1.818255e-15  -2.383595e-15  0 
 2.256981e-15  -2.821315e-15  0 
 2.963914e-15  -3.168566e-15  0 
 -1.808018e-15  -2.560193e-16  0 
 -1.690957e-15  -3.046143e-16  0 
 -1.486241e-15  -3.811091e-16  0 
 -2.118914e-15  -8.049000e-16  0 
 -1.861776e-15  -8.488614e-16  0 
 -1.606806e-15  -8.914984e-16  0 
 -2.435497e-15  -1.538338e-15  0 
 -2.035887e-15  -1.579605e-15  0 
 -1.724231e-15  -1.644291e-15  0 
 -1.030700e-15  -3.536009e-16  0 
 -7.995353e-16  -3.619215e-16  0 
 -5.696292e-16  -3.685476e-16  0 
 -1.101988e-15  -9.665803e-16  0 
 -8.511101e-16  -9.649878e-16  0 
 -6.004927e-16  -9.642252e-16  0 
 -1.170175e-15  -1.609578e-15  0 
 -9.009085e-16  -1.617193e-15  0 
 -6.316890e-16  -1.623244e-15  0 
 -1.124821e-16  -3.839888e-16  0 
 1.165256e-16  -4.021815e-16  0 
 3.451896e-16  -4.053778e-16  0 
 -1.176968e-16  -9.881082e-16  0 
 1.135921e-16  -9.997078e-16  0 
 3.440870e-16  -1.008535e-15  0 
 -1.215302e-16  -1.627674e-15  0 
 1.094823e-16  -1.638306e-15  0 
 3.400304e-16  -1.640749e-15  0 
 7.955607e-16  -4.175771e-16  0 
 1.022406e-15  -4.120992e-16  0 
 1.250190e-15  -4.049522e-16  0 
 8.208459e-16  -1.004802e-15  0 
 1.067837e-15  -1.005745e-15  0 
 1.315080e-15  -1.007302e-15  0 
 8.462127e-16  -1.653993e-15  0 
 1.112033e-15  -1.649070e-15  0 
 1.377740e-15  -1.642529e-15  0 
 1.697668e-15  -4.444083e-16  0 
 1.878899e-15  -3.655819e-16  0 
 1.954905e-15  -3.054789e-16  0 
 1.810520e-15  -9.198831e-16  0 
 2.059495e-15  -8.655132e-16  0 
 2.311157e-15  -8.143040e-16  0 
 1.920196e-15  -1.687403e-15  0 
 2.241982e-15  -1.618387e-15  0 
 2.667270e-15  -1.564653e-15  0 
VECTORS displacement_ITER6 FLOAT
 9.799726e-16  3.335403e-18  0 
 -7.141636e-16  1.652136e-16  0 
 2.795178e-16  1.047334e-16  0 
 2.396440e-17  9.644219e-17  0 
 -1.907011e-16  1.090923e-16  0 
 -4.425977e-16  1.075322e-16  0 
 -1.204251e-15  5.501786e-18  0 
 -1.832361e-16  2.470780e-16  0 
 -7.558019e-17  2.658235e-16  0 
 -1.013772e-16  2.724691e-16  0 
 1.080212e-17  2.532870e-16  0 
 5.928723e-16  1.697461e-16  0 
 5.090125e-16  2.636632e-16  0 
 1.005067e-16  3.981420e-16  0 
 -2.966260e-16  3.220110e-16  0 
 8.361966e-16  -4.765427e-17  0 
 6.036302e-16  -1.063969e-16  0 
 2.779379e-16  -3.638196e-18  0 
 1.709705e-16  9.760220e-17  0 
 1.018444e-16  1.023836e-16  0 
 5.399874e-17  1.046140e-16  0 
 -8.218146e-17  2.119093e-16  0 
 -9.824843e-17  2.375081e-16  0 
 -1.131805e-16  2.120707e-16  0 
 -2.201118e-16  1.141510e-16  0 
 -2.673920e-16  1.101259e-16  0 
 -3.356880e-16  1.035232e-16  0 
 -4.710864e-16  9.401088e-18  0 
 -8.056613e-16  -9.479378e-17  0 
 -1.050302e-15  -4.261846e-17  0 
 1.378919e-16  2.399110e-16  0 
 4.229983e-17  2.967692e-16  0 
 -5.276957e-17  3.160972e-16  0 
 -6.381220e-16  1.108252e-16  0 
 -4.590925e-16  4.467244e-17  0 
 -1.755750e-16  1.382817e-16  0 
 -1.790780e-17  2.212998e-16  0 
 -1.917561e-17  2.963551e-16  0 
 -2.499752e-17  2.958416e-16  0 
 -1.091620e-16  2.500970e-16  0 
 -7.529726e-17  2.612572e-16  0 
 -6.467130e-17  2.687469e-16  0 
 -1.506967e-16  2.280152e-16  0 
 -1.496596e-16  3.034088e-16  0 
 -1.460074e-16  3.038915e-16  0 
 -5.007935e-17  3.781031e-16  0 
 -8.021433e-17  4.068800e-16  0 
 -1.113997e-16  3.832354e-16  0 
 -3.065287e-16  2.473280e-16  0 
 -2.115362e-16  3.051350e-16  0 
 -1.169272e-16  3.236551e-16  0 
 -1.086711e-16  2.746700e-16  0 
 -9.649252e-17  2.674721e-16  0 
 -6.228799e-17  2.566478e-16  0 
 -6.980167e-16  2.815476e-16  0 
 -2.705168e-16  4.172915e-16  0 
 1.439197e-16  3.398614e-16  0 
 2.898830e-17  1.513058e-16  0 
 3.163082e-16  5.637545e-17  0 
 5.078296e-16  1.178613e-16  0 
 4.141479e-16  2.771503e-16  0 
 3.099326e-16  2.961932e-16  0 
 2.351618e-16  2.640919e-16  0 
 8.873159e-17  3.901440e-16  0 
 7.534876e-17  3.659185e-16  0 
 5.915659e-17  3.444597e-16  0 
 -2.307039e-16  3.378800e-16  0 
 -1.593869e-16  3.624806e-16  0 
 -1.150973e-16  3.376217e-16  0 
 1.068944e-16  2.376802e-16  0 
 6.719088e-17  2.286181e-16  0 
 2.733306e-17  2.216124e-16  0 
 2.659233e-17  2.960126e-16  0 
 1.127170e-17  2.968157e-16  0 
 -4.168540e-18  2.970849e-16  0 
 -5.052519e-17  3.124634e-16  0 
 -4.285336e-17  3.036749e-16  0 
 -3.634044e-17  2.967974e-16  0 
 -5.396084e-17  2.207785e-16  0 
 -8.574737e-17  2.223944e-16  0 
 -1.155164e-16  2.234603e-16  0 
 -5.190242e-17  2.828482e-16  0 
 -8.468773e-17  2.790733e-16  0 
 -1.173312e-16  2.864731e-16  0 
 -5.088162e-17  3.019748e-16  0 
 -8.496893e-17  3.065661e-16  0 
 -1.203293e-16  3.044925e-16  0 
 -1.947029e-16  2.289349e-16  0 
 -2.341437e-16  2.357368e-16  0 
 -2.740471e-16  2.445407e-16  0 
 -1.650125e-16  3.042492e-16  0 
 -1.805440e-16  3.044842e-16  0 
 -1.959088e-16  3.042051e-16  0 
 -1.350296e-16  3.049574e-16  0 
 -1.281980e-16  3.114306e-16  0 
 -1.200462e-16  3.198886e-16  0 
 -4.083178e-16  2.766609e-16  0 
 -4.899903e-16  3.114468e-16  0 
 -5.992516e-16  2.945184e-16  0 
 -2.286725e-16  3.579822e-16  0 
 -2.452565e-16  3.831238e-16  0 
 -2.587295e-16  4.087870e-16  0 
 -5.123515e-17  3.501579e-16  0 
 -3.720002e-19  3.776961e-16  0 
 7.471482e-17  3.551990e-16  0 
VECTORS displacement_ITER7 FLOAT
 -2.644012e-15  8.072528e-16  0 
 -1.278998e-15  -1.200463e-15  0 
 -9.527982e-16  -2.593148e-16  0 
 -3.007112e-16  -2.711680e-16  0 
 3.742790e-16  -2.330169e-16  0 
 1.029546e-15  -2.265936e-16  0 
 2.946551e-15  1.077663e-15  0 
 -1.389383e-15  -2.317148e-15  0 
 -4.261481e-16  -2.301507e-15  0 
 4.895629e-16  -2.261509e-15  0 
 1.451367e-15  -2.272838e-15  0 
 1.082482e-15  -9.193904e-16  0 
 -2.201176e-15  -7.696526e-16  0 
 -1.988915e-15  -1.356187e-15  0 
 -1.764160e-15  -1.795413e-15  0 
 -1.765218e-15  6.276731e-16  0 
 -1.235105e-15  2.188698e-16  0 
 -1.078876e-15  -1.816939e-16  0 
 -8.350775e-16  -2.701009e-16  0 
 -6.789375e-16  -2.660747e-16  0 
 -4.995462e-16  -2.630147e-16  0 
 -1.039003e-16  -2.280598e-16  0 
 3.396377e-17  -2.514793e-16  0 
 1.725941e-16  -2.186654e-16  0 
 5.735028e-16  -2.270826e-16  0 
 7.530784e-16  -2.310187e-16  0 
 9.100536e-16  -2.356894e-16  0 
 1.143532e-15  -7.177781e-17  0 
 1.323046e-15  3.983789e-16  0 
 1.927159e-15  8.706322e-16  0 
 -1.086361e-15  -6.882612e-16  0 
 -1.175047e-15  -1.189939e-15  0 
 -1.264159e-15  -1.710861e-15  0 
 -1.786454e-15  -1.381394e-15  0 
 -1.931590e-15  -1.795170e-15  0 
 -1.691276e-15  -2.207510e-15  0 
 -3.487903e-16  -7.099157e-16  0 
 -3.565306e-16  -1.187021e-15  0 
 -3.689065e-16  -1.735187e-15  0 
 -1.099808e-15  -2.317852e-15  0 
 -8.505817e-16  -2.307123e-15  0 
 -6.266093e-16  -2.298548e-15  0 
 4.203712e-16  -6.763319e-16  0 
 4.279864e-16  -1.151996e-15  0 
 4.384701e-16  -1.696549e-15  0 
 -2.391502e-16  -2.279731e-15  0 
 3.261729e-17  -2.302993e-15  0 
 3.052443e-16  -2.263498e-15  0 
 1.157013e-15  -6.530662e-16  0 
 1.242962e-15  -1.153980e-15  0 
 1.329415e-15  -1.671656e-15  0 
 6.923291e-16  -2.258515e-15  0 
 9.166757e-16  -2.265722e-15  0 
 1.164668e-15  -2.274773e-15  0 
 2.373163e-15  -7.348982e-16  0 
 2.051790e-15  -1.356173e-15  0 
 1.712881e-15  -1.758360e-15  0 
 1.757548e-15  -2.088150e-15  0 
 1.961978e-15  -1.605561e-15  0 
 1.736157e-15  -1.127588e-15  0 
 -1.838468e-15  -7.360316e-16  0 
 -1.502922e-15  -6.726263e-16  0 
 -1.246255e-15  -6.389441e-16  0 
 -1.783781e-15  -1.344631e-15  0 
 -1.579944e-15  -1.306046e-15  0 
 -1.377370e-15  -1.250195e-15  0 
 -1.722225e-15  -1.760732e-15  0 
 -1.656138e-15  -1.695600e-15  0 
 -1.509084e-15  -1.661265e-15  0 
 -8.938373e-16  -6.912481e-16  0 
 -7.103335e-16  -7.010805e-16  0 
 -5.269396e-16  -7.089768e-16  0 
 -9.709620e-16  -1.188832e-15  0 
 -7.663399e-16  -1.187310e-15  0 
 -5.616815e-16  -1.186718e-15  0 
 -1.045477e-15  -1.715549e-15  0 
 -8.207176e-16  -1.725464e-15  0 
 -5.972070e-16  -1.733480e-15  0 
 -1.599494e-16  -7.031766e-16  0 
 3.643330e-17  -6.828986e-16  0 
 2.320127e-16  -6.850255e-16  0 
 -1.600605e-16  -1.188632e-15  0 
 3.578876e-17  -1.187926e-15  0 
 2.318058e-16  -1.171134e-15  0 
 -1.634281e-16  -1.721723e-15  0 
 3.449502e-17  -1.699126e-15  0 
 2.324530e-16  -1.702076e-15  0 
 5.991379e-16  -6.745946e-16  0 
 7.825265e-16  -6.666165e-16  0 
 9.656285e-16  -6.567877e-16  0 
 6.320445e-16  -1.151341e-15  0 
 8.358140e-16  -1.151435e-15  0 
 1.039591e-15  -1.152653e-15  0 
 6.653928e-16  -1.694408e-15  0 
 8.880551e-16  -1.686470e-15  0 
 1.111861e-15  -1.676626e-15  0 
 1.317513e-15  -5.948135e-16  0 
 1.594947e-15  -6.263885e-16  0 
 1.968386e-15  -6.963589e-16  0 
 1.443453e-15  -1.227832e-15  0 
 1.644375e-15  -1.296852e-15  0 
 1.847212e-15  -1.342895e-15  0 
 1.568818e-15  -1.614224e-15  0 
 1.691538e-15  -1.647189e-15  0 
 1.715657e-15  -1.718875e-15  0 
VECTORS displacement_ITER8 FLOAT
 -1.046816e-16  4.439520e-16  0 
 -5.306677e-16  5.207474e-17  0 
 5.613797e-17  -2.687912e-17  0 
 5.310905e-18  -2.632706e-17  0 
 -1.135649e-17  -1.708421e-17  0 
 -4.862643e-17  -2.508182e-17  0 
 1.190996e-16  4.832526e-16  0 
 -4.122451e-16  -3.798149e-16  0 
 -1.133174e-16  -3.502288e-16  0 
 9.589098e-17  -3.656982e-16  0 
 4.043841e-16  -3.945526e-16  0 
 5.302025e-16  4.491339e-17  0 
 -1.657917e-16  -4.049161e-17  0 
 -3.203132e-16  -1.123068e-16  0 
 -4.775678e-16  -2.177804e-16  0 
 1.916412e-16  3.558445e-16  0 
 3.242619e-16  1.364219e-16  0 
 2.322582e-16  -1.269266e-16  0 
 -5.270352e-18  -3.337483e-17  0 
 -2.530877e-17  -2.536998e-17  0 
 -1.965510e-17  -1.949011e-17  0 
 5.796331e-17  4.445538e-20  0 
 -4.952481e-18  -3.586355e-17  0 
 -6.436431e-17  -4.226588e-18  0 
 1.663845e-17  -1.253634e-17  0 
 2.501215e-17  -1.971851e-17  0 
 8.432692e-18  -2.901862e-17  0 
 -2.262547e-16  -1.111832e-16  0 
 -3.288321e-16  1.577858e-16  0 
 -1.951214e-16  3.892207e-16  0 
 -8.551374e-17  -1.211439e-17  0 
 -1.830930e-16  -8.248486e-17  0 
 -2.802174e-16  -1.830854e-16  0 
 -7.419472e-16  -2.582390e-17  0 
 -8.032785e-16  -2.226926e-16  0 
 -6.507079e-16  -4.654924e-16  0 