# vtk DataFile Version 3.1
this is an vtk file created by FEMAC
ASCII
DATASET UNSTRUCTURED_GRID
POINTS 105 FLOAT
3.500000 0.000000 0.000000
4.000000 0.000000 0.000000
3.500000 0.200000 0.000000
3.500000 0.400000 0.000000
3.500000 0.600000 0.000000
3.500000 0.800000 0.000000
3.500000 1.000000 0.000000
4.000000 0.200000 0.000000
4.000000 0.400000 0.000000
4.000000 0.600000 0.000000
4.000000 0.800000 0.000000
4.000000 1.000000 0.000000
3.625000 0.000000 0.000000
3.750000 0.000000 0.000000
3.875000 0.000000 0.000000
3.500000 0.050000 0.000000
3.500000 0.100000 0.000000
3.500000 0.150000 0.000000
3.500000 0.250000 0.000000
3.500000 0.300000 0.000000
3.500000 0.350000 0.000000
3.500000 0.450000 0.000000
3.500000 0.500000 0.000000
3.500000 0.550000 0.000000
3.500000 0.650000 0.000000
3.500000 0.700000 0.000000
3.500000 0.750000 0.000000
3.500000 0.850000 0.000000
3.500000 0.900000 0.000000
3.500000 0.950000 0.000000
3.625000 0.200000 0.000000
3.750000 0.200000 0.000000
3.875000 0.200000 0.000000
4.000000 0.050000 0.000000
4.000000 0.100000 0.000000
4.000000 0.150000 0.000000
3.625000 0.400000 0.000000
3.750000 0.400000 0.000000
3.875000 0.400000 0.000000
4.000000 0.250000 0.000000
4.000000 0.300000 0.000000
4.000000 0.350000 0.000000
3.625000 0.600000 0.000000
3.750000 0.600000 0.000000
3.875000 0.600000 0.000000
4.000000 0.450000 0.000000
4.000000 0.500000 0.000000
4.000000 0.550000 0.000000
3.625000 0.800000 0.000000
3.750000 0.800000 0.000000
3.875000 0.800000 0.000000
4.000000 0.650000 0.000000
4.000000 0.700000 0.000000
4.000000 0.750000 0.000000
3.625000 1.000000 0.000000
3.750000 1.000000 0.000000
3.875000 1.000000 0.000000
4.000000 0.850000 0.000000
4.000000 0.900000 0.000000
4.000000 0.950000 0.000000
3.625000 0.050000 0.000000
3.625000 0.100000 0.000000
3.625000 0.150000 0.000000
3.750000 0.050000 0.000000
3.750000 0.100000 0.000000
3.750000 0.150000 0.000000
3.875000 0.050000 0.000000
3.875000 0.100000 0.000000
3.875000 0.150000 0.000000
3.625000 0.250000 0.000000
3.625000 0.300000 0.000000
3.625000 0.350000 0.000000
3.750000 0.250000 0.000000
3.750000 0.300000 0.000000
3.750000 0.350000 0.000000
3.875000 0.250000 0.000000
3.875000 0.300000 0.000000
3.875000 0.350000 0.000000
3.625000 0.450000 0.000000
3.625000 0.500000 0.000000
3.625000 0.550000 0.000000
3.750000 0.450000 0.000000
3.750000 0.500000 0.000000
3.750000 0.550000 0.000000
3.875000 0.450000 0.000000
3.875000 0.500000 0.000000
3.875000 0.550000 0.000000
3.625000 0.650000 0.000000
3.625000 0.700000 0.000000
3.625000 0.750000 0.000000
3.750000 0.650000 0.000000
3.750000 0.700000 0.000000
3.750000 0.750000 0.000000
3.875000 0.650000 0.000000
3.875000 0.700000 0.000000
3.875000 0.750000 0.000000
3.625000 0.850000 0.000000
3.625000 0.900000 0.000000
3.625000 0.950000 0.000000
3.750000 0.850000 0.000000
3.750000 0.900000 0.000000
3.750000 0.950000 0.000000
3.875000 0.850000 0.000000
3.875000 0.900000 0.000000
3.875000 0.950000 0.000000
CELLS 80 400 
4 0 12 60 15
4 15 60 61 16
4 16 61 62 17
4 17 62 30  2
4 12 13 63 60
4 60 63 64 61
4 61 64 65 62
4 62 65 31 30
4 13 14 66 63
4 63 66 67 64
4 64 67 68 65
4 65 68 32 31
4 14  1 33 66
4 66 33 34 67
4 67 34 35 68
4 68 35  7 32
4 2 30 69 18
4 18 69 70 19
4 19 70 71 20
4 20 71 36  3
4 30 31 72 69
4 69 72 73 70
4 70 73 74 71
4 71 74 37 36
4 31 32 75 72
4 72 75 76 73
4 73 76 77 74
4 74 77 38 37
4 32  7 39 75
4 75 39 40 76
4 76 40 41 77
4 77 41  8 38
4 3 36 78 21
4 21 78 79 22
4 22 79 80 23
4 23 80 42  4
4 36 37 81 78
4 78 81 82 79
4 79 82 83 80
4 80 83 43 42
4 37 38 84 81
4 81 84 85 82
4 82 85 86 83
4 83 86 44 43
4 38  8 45 84
4 84 45 46 85
4 85 46 47 86
4 86 47  9 44
4 4 42 87 24
4 24 87 88 25
4 25 88 89 26
4 26 89 48  5
4 42 43 90 87
4 87 90 91 88
4 88 91 92 89
4 89 92 49 48
4 43 44 93 90
4 90 93 94 91
4 91 94 95 92
4 92 95 50 49
4 44  9 51 93
4 93 51 52 94
4 94 52 53 95
4 95 53 10 50
4 5 48 96 27
4 27 96 97 28
4 28 97 98 29
4 29 98 54  6
4 48 49 99 96
4 96  99 100  97
4 97 100 101  98
4 98 101  55  54
4 49  50 102  99
4 99 102 103 100
4 100 103 104 101
4 101 104  56  55
4 50  10  57 102
4 102  57  58 103
4 103  58  59 104
4 104  59  11  56
CELL_TYPES 80
9 9 9 9 9 9 9 9 9 9 9 9 9 9 9 9 9 9 9 9 9 9 9 9 9 9 9 9 9 9 9 9 9 9 9 9 9 9 9 9 9 9 9 9 9 9 9 9 9 9 9 9 9 9 9 9 9 9 9 9 9 9 9 9 9 9 9 9 9 9 9 9 9 9 9 9 9 9 9 9 
POINT_DATA 105
VECTORS displacement_ITER1 FLOAT
 2.062922e-14  4.981914e-14  0 
 1.433118e-14  6.443862e-14  0 
 1.178152e-14  5.025243e-14  0 
 5.627873e-15  5.031565e-14  0 
 -4.280032e-16  5.028437e-14  0 
 -6.572828e-15  5.022848e-14  0 
 -1.532490e-14  4.969773e-14  0 
 1.125186e-14  6.496107e-14  0 
 5.600041e-15  6.502629e-14  0 
 -4.483915e-16  6.499419e-14  0 
 -6.108361e-15  6.493626e-14  0 
 -9.280722e-15  6.431482e-14  0 
 1.887199e-14  5.432209e-14  0 
 1.739931e-14  5.833145e-14  0 
 1.596183e-14  6.164151e-14  0 
 1.875478e-14  4.977867e-14  0 
 1.669058e-14  4.971816e-14  0 
 1.438691e-14  4.978256e-14  0 
 1.020239e-14  5.027796e-14  0 
 8.660865e-15  5.029998e-14  0 
 7.139521e-15  5.031276e-14  0 
 4.215325e-15  5.019231e-14  0 
 2.652479e-15  5.013733e-14  0 
 1.066844e-15  5.016959e-14  0 
 -1.943521e-15  5.028284e-14  0 
 -3.464720e-15  5.027207e-14  0 
 -5.002391e-15  5.025227e-14  0 
 -9.067536e-15  4.974203e-14  0 
 -1.133149e-14  4.964147e-14  0 
 -1.340220e-14  4.967040e-14  0 
 1.165486e-14  5.412970e-14  0 
 1.150386e-14  5.785328e-14  0 
 1.135952e-14  6.147615e-14  0 
 1.327852e-14  6.440516e-14  0 
 1.237777e-14  6.436347e-14  0 
 1.168534e-14  6.445629e-14  0 
 5.609845e-15  5.409934e-14  0 
 5.621691e-15  5.782760e-14  0 
 5.629765e-15  6.144796e-14  0 
 9.877509e-15  6.498722e-14  0 
 8.469382e-15  6.500961e-14  0 
 7.041187e-15  6.502316e-14  0 
 -4.236179e-16  5.406979e-14  0 
 -4.459304e-16  5.779476e-14  0 
 -4.644719e-16  6.141800e-14  0 
 3.986671e-15  6.489751e-14  0 
 2.523225e-15  6.484009e-14  0 
 1.082583e-15  6.487437e-14  0 
 -6.462788e-15  5.409404e-14  0 
 -6.327764e-15  5.781722e-14  0 
 -6.199392e-15  6.144005e-14  0 
 -1.885507e-15  6.499241e-14  0 
 -3.313667e-15  6.498087e-14  0 
 -4.725496e-15  6.496068e-14  0 
 -1.363645e-14  5.426850e-14  0 
 -1.222269e-14  5.827396e-14  0 
 -1.084366e-14  6.158743e-14  0 
 -6.652148e-15  6.441456e-14  0 
 -7.384601e-15  6.428494e-14  0 
 -8.277330e-15  6.429453e-14  0 
 1.710821e-14  5.433756e-14  0 
 1.528017e-14  5.436455e-14  0 
 1.341428e-14  5.435166e-14  0 
 1.593258e-14  5.831618e-14  0 
 1.446106e-14  5.824722e-14  0 
 1.298542e-14  5.807706e-14  0 
 1.479267e-14  6.165626e-14  0 
 1.367330e-14  6.168418e-14  0 
 1.257469e-14  6.167850e-14  0 
 1.013454e-14  5.411837e-14  0 
 8.621488e-15  5.410875e-14  0 
 7.115320e-15  5.410251e-14  0 
 1.003403e-14  5.784639e-14  0 
 8.563426e-15  5.783736e-14  0 
 7.092497e-15  5.783044e-14  0 
 9.937507e-15  6.146584e-14  0 
 8.506348e-15  6.145720e-14  0 
 7.067911e-15  6.145114e-14  0 
 4.104959e-15  5.407027e-14  0 
 2.598421e-15  5.406447e-14  0 
 1.086779e-15  5.406316e-14  0 
 4.105085e-15  5.779256e-14  0 
 2.587839e-15  5.777444e-14  0 
 1.070613e-15  5.777559e-14  0 
 4.101646e-15  6.142332e-14  0 
 2.577257e-15  6.141871e-14  0 
 1.058017e-15  6.141600e-14  0 
 -1.928271e-15  5.407164e-14  0 
 -3.433480e-15  5.407630e-14  0 
 -4.944679e-15  5.408423e-14  0 
 -1.916654e-15  5.779705e-14  0 
 -3.387499e-15  5.780290e-14  0 
 -4.858019e-15  5.781085e-14  0 
 -1.903274e-15  6.141985e-14  0 
 -3.342504e-15  6.142433e-14  0 
 -4.775346e-15  6.143127e-14  0 
 -8.201619e-15  5.429289e-14  0 
 -1.004814e-14  5.430447e-14  0 
 -1.187046e-14  5.428134e-14  0 
 -7.809148e-15  5.802849e-14  0 
 -9.284656e-15  5.819075e-14  0 
 -1.075602e-14  5.825859e-14  0 
 -7.434964e-15  6.161915e-14  0 
 -8.552423e-15  6.162355e-14  0 
 -9.677212e-15  6.159958e-14  0 
VECTORS displacement_ITER2 FLOAT
 -2.816596e-14  -8.639162e-14  0 
 -2.711267e-14  -1.117051e-13  0 
 -1.741897e-14  -8.742285e-14  0 
 -7.299016e-15  -8.741631e-14  0 
 2.888898e-15  -8.741537e-14  0 
 1.300294e-14  -8.742807e-14  0 
 2.352178e-14  -8.647600e-14  0 
 -1.773900e-14  -1.130606e-13  0 
 -7.365786e-15  -1.130601e-13  0 
 2.946760e-15  -1.130569e-13  0 
 1.332403e-14  -1.130635e-13  0 
 2.292181e-14  -1.117849e-13  0 
 -2.801181e-14  -9.367002e-14  0 
 -2.779604e-14  -1.002474e-13  0 
 -2.748987e-14  -1.064802e-13  0 
 -2.510981e-14  -8.645463e-14  0 
 -2.224189e-14  -8.663990e-14  0 
 -1.959361e-14  -8.696372e-14  0 
 -1.491696e-14  -8.742065e-14  0 
 -1.239045e-14  -8.741720e-14  0 
 -9.849685e-15  -8.741541e-14  0 
 -4.756337e-15  -8.756131e-14  0 
 -2.238882e-15  -8.757482e-14  0 
 3.013516e-16  -8.752915e-14  0 
 5.436696e-15  -8.741544e-14  0 
 7.975780e-15  -8.741871e-14  0 
 1.050129e-14  -8.742398e-14  0 
 1.511343e-14  -8.705885e-14  0 
 1.768541e-14  -8.674784e-14  0 
 2.049903e-14  -8.654824e-14  0 
 -1.750379e-14  -9.374462e-14  0 
 -1.758391e-14  -1.001446e-13  0 
 -1.766245e-14  -1.065663e-13  0 
 -2.524778e-14  -1.118106e-13  0 
 -2.310667e-14  -1.120937e-13  0 
 -2.067958e-14  -1.125233e-13  0 
 -7.325478e-15  -9.376712e-14  0 
 -7.326730e-15  -1.001472e-13  0 
 -7.330473e-15  -1.065912e-13  0 
 -1.511880e-14  -1.130594e-13  0 
 -1.252123e-14  -1.130571e-13  0 
 -9.937780e-15  -1.130567e-13  0 
 2.911468e-15  -9.376534e-14  0 
 2.912143e-15  -1.001450e-13  0 
 2.915322e-15  -1.065884e-13  0 
 -4.801766e-15  -1.132726e-13  0 
 -2.175255e-15  -1.133102e-13  0 
 4.281291e-16  -1.132392e-13  0 
 1.308564e-14  -9.374342e-14  0 
 1.316842e-14  -1.001399e-13  0 
 1.324959e-14  -1.065640e-13  0 
 5.521157e-15  -1.130545e-13  0 
 8.105847e-15  -1.130563e-13  0 
 1.070393e-14  -1.130604e-13  0 
 2.347887e-14  -9.367104e-14  0 
 2.337928e-14  -1.002069e-13  0 
 2.318896e-14  -1.064800e-13  0 
 1.632754e-14  -1.126152e-13  0 
 1.883011e-14  -1.121983e-13  0 
 2.102577e-14  -1.119002e-13  0 
 -2.528533e-14  -9.366483e-14  0 
 -2.260344e-14  -9.366309e-14  0 
 -2.001878e-14  -9.367577e-14  0 
 -2.523191e-14  -1.002365e-13  0 
 -2.267866e-14  -1.002035e-13  0 
 -2.013164e-14  -1.001706e-13  0 
 -2.514006e-14  -1.064678e-13  0 
 -2.275130e-14  -1.064571e-13  0 
 -2.025005e-14  -1.064743e-13  0 
 -1.495830e-14  -9.375188e-14  0 
 -1.241430e-14  -9.375928e-14  0 
 -9.868942e-15  -9.376468e-14  0 
 -1.501988e-14  -1.001438e-13  0 
 -1.245571e-14  -1.001451e-13  0 
 -9.891330e-15  -1.001466e-13  0 
 -1.508025e-14  -1.065743e-13  0 
 -1.249730e-14  -1.065824e-13  0 
 -9.915487e-15  -1.065885e-13  0 
 -4.760803e-15  -9.377057e-14  0 
 -2.211316e-15  -9.378245e-14  0 
 3.419241e-16  -9.377897e-14  0 
 -4.766517e-15  -1.001608e-13  0 
 -2.207182e-15  -1.001601e-13  0 
 3.520960e-16  -1.001581e-13  0 
 -4.777985e-15  -1.065948e-13  0 
 -2.203029e-15  -1.066061e-13  0 
 3.680750e-16  -1.066027e-13  0 
 5.455190e-15  -9.376289e-14  0 
 7.999949e-15  -9.375781e-14  0 
 1.054263e-14  -9.375072e-14  0 
 5.476521e-15  -1.001441e-13  0 
 8.040674e-15  -1.001419e-13  0 
 1.060462e-14  -1.001398e-13  0 
 5.499627e-15  -1.065856e-13  0 
 8.081579e-15  -1.065798e-13  0 
 1.066538e-14  -1.065720e-13  0 
 1.558108e-14  -9.366066e-14  0 
 1.813398e-14  -9.365298e-14  0 
 2.078312e-14  -9.366242e-14  0 
 1.571583e-14  -1.001505e-13  0 
 1.826250e-14  -1.001703e-13  0 
 2.081545e-14  -1.001974e-13  0 
 1.585616e-14  -1.064579e-13  0 
 1.838849e-14  -1.064454e-13  0 
 2.080902e-14  -1.064640e-13  0 
VECTORS displacement_ITER3 FLOAT
 3.845165e-15  8.058331e-15  0 
 2.100799e-15  1.043242e-14  0 
 2.144040e-15  8.103536e-15  0 
 1.045692e-15  8.119013e-15  0 
 9.286486e-19  8.163756e-15  0 
 -1.095172e-15  8.152271e-15  0 
 -2.577754e-15  8.285511e-15  0 
 1.803342e-15  1.047361e-14  0 
 9.826289e-16  1.048712e-14  0 
 4.096400e-17  1.052974e-14  0 
 -7.803327e-16  1.052015e-14  0 
 -1.292016e-15  1.065498e-14  0 
 3.260389e-15  8.933617e-15  0 
 2.926579e-15  9.523639e-15  0 
 2.616273e-15  1.011095e-14  0 
 3.391700e-15  8.122420e-15  0 
 3.028270e-15  8.247210e-15  0 
 2.697524e-15  8.295321e-15  0 
 1.838423e-15  8.108661e-15  0 
 1.560316e-15  8.115048e-15  0 
 1.297659e-15  8.118831e-15  0 
 7.847089e-16  8.057504e-15  0 
 5.257126e-16  8.068084e-15  0 
 2.668922e-16  8.091272e-15  0 
 -2.540324e-16  8.164114e-15  0 
 -5.170642e-16  8.161365e-15  0 
 -7.935876e-16  8.156222e-15  0 
 -1.645377e-15  8.384360e-15  0 
 -1.945448e-15  8.399073e-15  0 
 -2.239949e-15  8.327581e-15  0 
 2.049118e-15  8.792805e-15  0 
 1.965963e-15  9.399749e-15  0 
 1.886422e-15  9.972894e-15  0 
 2.066186e-15  1.049630e-14  0 
 1.938244e-15  1.062077e-14  0 
 1.766671e-15  1.066710e-14  0 
 1.019846e-15  8.772731e-15  0 
 1.019867e-15  9.395271e-15  0 
 1.017133e-15  9.953696e-15  0 
 1.627035e-15  1.047910e-14  0 
 1.426130e-15  1.048532e-14  0 
 1.210381e-15  1.048858e-14  0 
 1.844422e-17  8.816513e-15  0 
 1.522046e-17  9.436347e-15  0 
 1.475735e-17  9.996407e-15  0 
 7.410318e-16  1.040514e-14  0 
 5.091846e-16  1.040950e-14  0 
 2.771550e-16  1.043776e-14  0 
 -1.007365e-15  8.836097e-15  0 
 -9.299938e-16  9.441527e-15  0 
 -8.562635e-16  1.001506e-14  0 
 -1.833900e-16  1.053171e-14  0 
 -3.983274e-16  1.052946e-14  0 
 -6.004028e-16  1.052447e-14  0 
 -2.124183e-15  8.968240e-15  0 
 -1.889363e-15  9.530105e-15  0 
 -1.677228e-15  1.014395e-14  0 
 -7.476896e-16  1.075295e-14  0 
 -9.484873e-16  1.076796e-14  0 
 -1.142506e-15  1.069664e-14  0 
 2.978264e-15  8.916158e-15  0 
 2.669977e-15  8.877723e-15  0 
 2.353432e-15  8.837439e-15  0 
 2.689994e-15  9.520801e-15  0 
 2.450683e-15  9.503919e-15  0 
 2.209325e-15  9.462723e-15  0 
 2.421302e-15  1.009346e-14  0 
 2.245229e-15  1.005450e-14  0 
 2.072724e-15  1.001421e-14  0 
 1.792799e-15  8.786752e-15  0 
 1.534742e-15  8.779687e-15  0 
 1.278205e-15  8.774643e-15  0 
 1.729688e-15  9.398961e-15  0 
 1.493115e-15  9.397289e-15  0 
 1.256444e-15  9.395817e-15  0 
 1.668752e-15  9.967125e-15  0 
 1.451607e-15  9.960467e-15  0 
 1.232930e-15  9.955451e-15  0 
 7.747218e-16  8.777127e-15  0 
 5.188232e-16  8.779155e-15  0 
 2.634753e-16  8.797491e-15  0 
 7.688252e-16  9.391091e-15  0 
 5.174408e-16  9.400698e-15  0 
 2.661002e-16  9.412246e-15  0 
 7.599804e-16  9.959970e-15  0 
 5.160384e-16  9.962226e-15  0 
 2.716931e-16  9.979812e-15  0 
 -2.386269e-16  8.818610e-15  0 
 -4.945252e-16  8.823398e-15  0 
 -7.518170e-16  8.830143e-15  0 
 -2.211420e-16  9.437411e-15  0 
 -4.575948e-16  9.439214e-15  0 
 -6.939464e-16  9.440929e-15  0 
 -2.018959e-16  9.998335e-15  0 
 -4.207837e-16  1.000308e-14  0 
 -6.382593e-16  1.000940e-14  0 
 -1.306070e-15  8.885283e-15  0 
 -1.602956e-15  8.922188e-15  0 
 -1.877794e-15  8.954488e-15  0 
 -1.173019e-15  9.490200e-15  0 
 -1.414037e-15  9.519717e-15  0 
 -1.653016e-15  9.529197e-15  0 
 -1.047509e-15  1.006069e-14  0 
 -1.238932e-15  1.009773e-14  0 
 -1.447684e-15  1.013036e-14  0 
VECTORS displacement_ITER4 FLOAT
 4.911212e-16  -2.910778e-15  0 
 -2.039759e-15  -3.931624e-15  0 
 -2.422620e-16  -2.384340e-15  0 
 -3.176236e-17  -2.370374e-15  0 
 2.212440e-16  -2.368995e-15  0 
 4.311251e-16  -2.380367e-15  0 
 -2.906568e-16  -2.940367e-15  0 
 -5.472493e-16  -3.251500e-15  0 
 -8.812164e-17  -3.238060e-15  0 
 2.500558e-16  -3.232624e-15  0 
 7.064643e-16  -3.243280e-15  0 
 2.178933e-15  -3.952696e-15  0 
 -2.716429e-16  -2.385435e-15  0 
 -7.548199e-16  -2.533023e-15  0 
 -1.253059e-15  -2.832094e-15  0 
 8.275475e-17  -2.806865e-15  0 
 -1.300236e-16  -2.566958e-15  0 
 -1.944124e-16  -2.335723e-15  0 
 -2.193073e-16  -2.380695e-15  0 
 -1.698963e-16  -2.374478e-15  0 
 -1.061271e-16  -2.370552e-15  0 
 1.668323e-17  -2.355979e-15  0 
 1.090658e-16  -2.338885e-15  0 
 1.913699e-16  -2.357353e-15  0 
 2.915197e-16  -2.369056e-15  0 
 3.541196e-16  -2.372036e-15  0 
 4.044634e-16  -2.377194e-15  0 
 4.022022e-16  -2.329826e-15  0 
 3.572315e-16  -2.568788e-15  0 
 1.426822e-16  -2.826933e-15  0 
 -3.336382e-16  -2.519219e-15  0 
 -4.032999e-16  -2.723757e-15  0 
 -4.686440e-16  -2.958479e-15  0 
 -1.373656e-15  -3.806916e-15  0 
 -9.493131e-16  -3.519464e-15  0 
 -7.202601e-16  -3.239184e-15  0 
 -5.431827e-17  -2.535168e-15  0 
 -5.445113e-17  -2.727286e-15  0 
 -5.722008e-17  -2.971957e-15  0 
 -4.054006e-16  -3.246758e-15  0 
 -2.867648e-16  -3.240374e-15  0 
 -1.816716e-16  -3.236791e-15  0 
 2.350513e-16  -2.531523e-15  0 
 2.301373e-16  -2.724110e-15  0 
 2.278734e-16  -2.966302e-15  0 
 1.415011e-17  -3.215404e-15  0 
 6.725698e-17  -3.191569e-15  0 
 1.300637e-16  -3.214687e-15  0 
 5.140149e-16  -2.517891e-15  0 
 5.773316e-16  -2.720947e-15  0 
 6.363141e-16  -2.955066e-15  0 
 3.468545e-16  -3.231193e-15  0 
 4.523023e-16  -3.233786e-15  0 
 5.691721e-16  -3.239058e-15  0 
 4.617426e-16  -2.383547e-15  0 
 9.264257e-16  -2.534905e-15  0 
 1.405310e-15  -2.827800e-15  0 
 8.579058e-16  -3.227376e-15  0 
 1.066686e-15  -3.514718e-15  0 
 1.492023e-15  -3.819058e-15  0 
 -3.114536e-16  -2.408167e-15  0 
 -3.597483e-16  -2.455984e-15  0 
 -3.651684e-16  -2.507097e-15  0 
 -6.679741e-16  -2.542511e-15  0 
 -5.791579e-16  -2.579415e-15  0 
 -4.898364e-16  -2.638700e-15  0 
 -1.018591e-15  -2.858450e-15  0 
 -7.821396e-16  -2.911606e-15  0 
 -6.018785e-16  -2.961020e-15  0 
 -2.614925e-16  -2.523175e-15  0 
 -1.924952e-16  -2.529275e-15  0 
 -1.225253e-16  -2.533727e-15  0 
 -3.156199e-16  -2.724826e-15  0 
 -2.284057e-16  -2.725726e-15  0 
 -1.414285e-16  -2.726651e-15  0 
 -3.673024e-16  -2.961731e-15  0 
 -2.641757e-16  -2.966955e-15  0 
 -1.620666e-16  -2.970967e-15  0 
 2.110647e-17  -2.539377e-15  0 
 9.204631e-17  -2.544048e-15  0 
 1.623235e-16  -2.535560e-15  0 
 1.691671e-17  -2.738668e-15  0 
 8.804493e-17  -2.738990e-15  0 
 1.590729e-16  -2.737127e-15  0 
 1.144806e-17  -2.972365e-15  0 
 8.406963e-17  -2.976293e-15  0 
 1.571484e-16  -2.967578e-15  0 
 3.034148e-16  -2.530401e-15  0 
 3.730984e-16  -2.526709e-15  0 
 4.420697e-16  -2.521386e-15  0 
 3.167087e-16  -2.723466e-15  0 
 4.032732e-16  -2.722633e-15  0 
 4.900692e-16  -2.721902e-15  0 
 3.317496e-16  -2.965603e-15  0 
 4.333151e-16  -2.962325e-15  0 
 5.356282e-16  -2.957864e-15  0 
 5.515924e-16  -2.511371e-15  0 
 5.495771e-16  -2.460687e-15  0 
 5.020934e-16  -2.408737e-15  0 
 6.632273e-16  -2.638723e-15  0 
 7.518991e-16  -2.580465e-15  0 
 8.401090e-16  -2.544174e-15  0 
 7.624192e-16  -2.962930e-15  0 
 9.377028e-16  -2.913511e-15  0 
 1.171577e-15  -2.856404e-15  0 
VECTORS displacement_ITER5 FLOAT
 -1.154005e-14  -4.510012e-14  0 
 -1.302220e-14  -5.815293e-14  0 
 -6.941887e-15  -4.474940e-14  0 
 -1.855632e-15  -4.473991e-14  0 
 3.285468e-15  -4.476715e-14  0 
 8.371752e-15  -4.477622e-14  0 
 1.280040e-14  -4.531419e-14  0 
 -7.200988e-15  -5.774301e-14  0 
 -1.912892e-15  -5.773689e-14  0 
 3.315009e-15  -5.776614e-14  0 
 8.604655e-15  -5.777188e-14  0 
 1.459876e-14  -5.837133e-14  0 
 -1.198025e-14  -4.788193e-14  0 
 -1.227474e-14  -5.107305e-14  0 
 -1.257360e-14  -5.438125e-14  0 
 -1.054679e-14  -4.505487e-14  0 
 -9.455976e-15  -4.492565e-14  0 
 -8.282894e-15  -4.473962e-14  0 
 -5.697896e-15  -4.474912e-14  0 
 -4.429531e-15  -4.474389e-14  0 
 -3.148107e-15  -4.473993e-14  0 
 -5.966230e-16  -4.466526e-14  0 
 7.294718e-16  -4.464699e-14  0 
 2.042935e-15  -4.468829e-14  0 
 4.574131e-15  -4.476757e-14  0 
 5.854615e-15  -4.477090e-14  0 
 7.124037e-15  -4.477554e-14  0 
 9.728859e-15  -4.480157e-14  0 
 1.089971e-14  -4.504713e-14  0 
 1.193121e-14  -4.524032e-14  0 
 -7.025147e-15  -4.793721e-14  0 
 -7.078737e-15  -5.117864e-14  0 
 -7.128817e-15  -5.443894e-14  0 
 -1.138146e-14  -5.809834e-14  0 
 -9.855666e-15  -5.794943e-14  0 
 -8.433859e-15  -5.774576e-14  0 
 -1.876886e-15  -4.794927e-14  0 
 -1.878765e-15  -5.117928e-14  0 
 -1.882951e-15  -5.444966e-14  0 
 -5.853704e-15  -5.774196e-14  0 
 -4.527968e-15  -5.773730e-14  0 
 -3.214572e-15  -5.773459e-14  0 
 3.298552e-15  -4.797430e-14  0 
 3.294729e-15  -5.120534e-14  0 
 3.293210e-15  -5.447570e-14  0 
 -5.774408e-16  -5.766190e-14  0 
 6.861659e-16  -5.764016e-14  0 
 1.962604e-15  -5.768608e-14  0 
 8.446793e-15  -4.796545e-14  0 
 8.495524e-15  -5.120542e-14  0 
 8.540716e-15  -5.446824e-14  0 
 4.620888e-15  -5.776426e-14  0 
 5.935633e-15  -5.776635e-14  0 
 7.260720e-15  -5.777042e-14  0 
 1.333680e-14  -4.790180e-14  0 
 1.369255e-14  -5.107504e-14  0 
 1.405339e-14  -5.440249e-14  0 
 9.819883e-15  -5.781051e-14  0 
 1.124592e-14  -5.807487e-14  0 
 1.283349e-14  -5.828785e-14  0 
 -1.076537e-14  -4.789016e-14  0 
 -9.549698e-15  -4.791046e-14  0 
 -8.291480e-15  -4.794785e-14  0 
 -1.097609e-14  -5.108079e-14  0 
 -9.676732e-15  -5.110596e-14  0 
 -8.377195e-15  -5.113260e-14  0 
 -1.118212e-14  -5.439133e-14  0 
 -9.794921e-15  -5.441493e-14  0 
 -8.455919e-15  -5.445334e-14  0 
 -5.734324e-15  -4.793921e-14  0 
 -4.448187e-15  -4.794434e-14  0 
 -3.161626e-15  -4.794828e-14  0 
 -5.778476e-15  -5.117896e-14  0 
 -4.478487e-15  -5.117863e-14  0 
 -3.178624e-15  -5.117874e-14  0 
 -5.820670e-15  -5.444070e-14  0 
 -4.508963e-15  -5.444536e-14  0 
 -3.197486e-15  -5.444909e-14  0 
 -5.830999e-16  -4.795758e-14  0 
 7.127132e-16  -4.796502e-14  0 
 2.007810e-15  -4.796694e-14  0 
 -5.853793e-16  -5.119469e-14  0 
 7.078844e-16  -5.120296e-14  0 
 2.001193e-15  -5.120808e-14  0 
 -5.894021e-16  -5.445575e-14  0 
 7.030301e-16  -5.446364e-14  0 
 1.996296e-15  -5.446556e-14  0 
 4.583546e-15  -4.797389e-14  0 
 5.870024e-15  -4.797099e-14  0 
 7.156302e-15  -4.796686e-14  0 
 4.594787e-15  -5.120514e-14  0 
 5.894854e-15  -5.120531e-14  0 
 7.195050e-15  -5.120581e-14  0 
 4.607901e-15  -5.447572e-14  0 
 5.919864e-15  -5.447303e-14  0 
 7.231833e-15  -5.446940e-14  0 
 9.716584e-15  -4.798527e-14  0 
 1.096234e-14  -4.794596e-14  0 
 1.215169e-14  -4.791586e-14  0 
 9.794244e-15  -5.115058e-14  0 
 1.109409e-14  -5.111488e-14  0 
 1.239372e-14  -5.108419e-14  0 
 9.865013e-15  -5.449199e-14  0 
 1.121690e-14  -5.445149e-14  0 
 1.263106e-14  -5.441831e-14  0 
VECTORS displacement_ITER6 FLOAT
 7.662913e-16  3.639712e-15  0 
 -2.750749e-16  4.482332e-15  0 
 3.050523e-17  3.706008e-15  0 
 -4.222488e-16  3.720969e-15  0 
 -8.111313e-16  3.731692e-15  0 
 -1.267684e-15  3.716714e-15  0 
 -2.028460e-15  3.667173e-15  0 
 -2.493022e-16  4.527134e-15  0 
 -4.764784e-16  4.536847e-15  0 
 -7.707608e-16  4.548638e-15  0 
 -9.950635e-16  4.539004e-15  0 
 -9.477680e-16  4.512464e-15  0 
 4.778154e-16  3.987633e-15  0 
 2.207218e-16  4.258107e-15  0 
 -2.205393e-17  4.398515e-15  0 
 6.111710e-16  3.612373e-15  0 
 4.047779e-16  3.584303e-15  0 
 1.414868e-16  3.646862e-15  0 
 -1.124303e-16  3.707544e-15  0 
 -2.290715e-16  3.714964e-15  0 
 -3.315309e-16  3.720659e-15  0 
 -5.416110e-16  3.793565e-15  0 
 -6.241451e-16  3.811013e-15  0 
 -7.066649e-16  3.797656e-15  0 
 -9.051440e-16  3.730839e-15  0 
 -1.009030e-15  3.725546e-15  0 
 -1.125931e-15  3.718532e-15  0 
 -1.405959e-15  3.664286e-15  0 
 -1.672217e-15  3.607795e-15  0 
 -1.878305e-15  3.638703e-15  0 
 -5.714620e-17  3.982656e-15  0 
 -1.174093e-16  4.197278e-15  0 
 -1.739288e-16  4.387903e-15  0 
 -2.983120e-16  4.453179e-15  0 
 -2.655235e-16  4.418798e-15  0 
 -1.766597e-16  4.472278e-15  0 
 -4.431693e-16  3.970112e-15  0 
 -4.428349e-16  4.196241e-15  0 
 -4.450225e-16  4.375919e-15  0 
 -2.785179e-16  4.529083e-15  0 
 -3.311509e-16  4.535412e-15  0 
 -3.973844e-16  4.539356e-15  0 
 -7.951864e-16  3.982635e-15  0 
 -7.974907e-16  4.208905e-15  0 
 -7.972680e-16  4.388979e-15  0 
 -5.267064e-16  4.601444e-15  0 
 -6.160357e-16  4.619186e-15  0 
 -7.054187e-16  4.606069e-15  0 
 -1.183379e-15  3.994879e-15  0 
 -1.123358e-15  4.210834e-15  0 
 -1.067099e-15  4.400675e-15  0 
 -8.467912e-16  4.550629e-15  0 
 -9.118184e-16  4.547103e-15  0 
 -9.644091e-16  4.541213e-15  0 
 -1.726482e-15  4.005877e-15  0 
 -1.462333e-15  4.276008e-15  0 
 -1.212739e-15  4.417408e-15  0 
 -1.042603e-15  4.491546e-15  0 
 -9.501860e-16  4.444346e-15  0 
 -9.172683e-16  4.482244e-15  0 
 3.433009e-16  3.995984e-15  0 
 2.031208e-16  4.008682e-15  0 
 7.763553e-17  3.994190e-15  0 
 1.381220e-16  4.253488e-15  0 
 5.384933e-17  4.239502e-15  0 
 -3.150812e-17  4.226132e-15  0 
 -5.647270e-17  4.406864e-15  0 
 -8.837442e-17  4.418978e-15  0 
 -1.360732e-16  4.402578e-15  0 
 -1.506055e-16  3.980371e-15  0 
 -2.482115e-16  3.974957e-15  0 
 -3.448136e-16  3.970925e-15  0 
 -1.985679e-16  4.196862e-15  0 
 -2.799491e-16  4.196922e-15  0 
 -3.613978e-16  4.196688e-15  0 
 -2.444117e-16  4.385607e-15  0 
 -3.119126e-16  4.380432e-15  0 
 -3.801279e-16  4.376377e-15  0 
 -5.340962e-16  3.972629e-15  0 
 -6.194013e-16  3.976685e-15  0 
 -7.036797e-16  3.977990e-15  0 
 -5.312770e-16  4.189392e-15  0 
 -6.201089e-16  4.188871e-15  0 
 -7.089663e-16  4.195929e-15  0 
 -5.312395e-16  4.380905e-15  0 
 -6.208075e-16  4.384944e-15  0 
 -7.114658e-16  4.386531e-15  0 
 -8.935008e-16  3.983607e-15  0 
 -9.906292e-16  3.987331e-15  0 
 -1.088843e-15  3.992472e-15  0 
 -8.790369e-16  4.209528e-15  0 
 -9.605967e-16  4.210086e-15  0 
 -1.042090e-15  4.210304e-15  0 
 -8.624177e-16  4.389601e-15  0 
 -9.303297e-16  4.393356e-15  0 
 -9.974547e-16  4.398258e-15  0 
 -1.321199e-15  4.011346e-15  0 
 -1.451206e-15  4.026538e-15  0 
 -1.592558e-15  4.014273e-15  0 
 -1.209499e-15  4.242022e-15  0 
 -1.295065e-15  4.257207e-15  0 
 -1.379537e-15  4.271379e-15  0 
 -1.102170e-15  4.420419e-15  0 
 -1.146085e-15  4.437796e-15  0 
 -1.177525e-15  4.425913e-15  0 
VECTORS displacement_ITER7 FLOAT
 -1.017489e-14  -3.555403e-14  0 
 -9.812315e-15  -4.570641e-14  0 
 -5.798580e-15  -3.600614e-14  0 
 -1.801154e-15  -3.598813e-14  0 
 2.268427e-15  -3.595134e-14  0 
 6.266427e-15  -3.596484e-14  0 
 1.086973e-14  -3.530958e-14  0 
 -6.076409e-15  -4.628543e-14  0 
 -1.870078e-15  -4.627550e-14  0 
 2.322834e-15  -4.624179e-14  0 
 6.531018e-15  -4.624729e-14  0 
 1.004416e-14  -4.546753e-14  0 
 -1.005427e-14  -3.855511e-14  0 
 -1.003883e-14  -4.113591e-14  0 
 -9.994313e-15  -4.368443e-14  0 
 -8.859131e-15  -3.563716e-14  0 
 -7.707920e-15  -3.582313e-14  0 
 -6.743424e-15  -3.599694e-14  0 
 -4.830543e-15  -3.600528e-14  0 
 -3.835617e-15  -3.599680e-14  0 
 -2.824882e-15  -3.598939e-14  0 
 -7.625475e-16  -3.595481e-14  0 
 2.329676e-16  -3.596001e-14  0 
 1.228435e-15  -3.594036e-14  0 
 3.289702e-15  -3.595232e-14  0 
 4.299790e-15  -3.595829e-14  0 
 5.295654e-15  -3.596511e-14  0 
 7.208077e-15  -3.588862e-14  0 
 8.205046e-15  -3.565534e-14  0 
 9.429198e-15  -3.541598e-14  0 
 -5.884780e-15  -3.850713e-14  0 
 -5.944333e-15  -4.107087e-14  0 
 -6.000948e-15  -4.365143e-14  0 
 -9.142586e-15  -4.580477e-14  0 
 -8.273724e-15  -4.602832e-14  0 
 -7.191234e-15  -4.624542e-14  0 
 -1.825808e-15  -3.852132e-14  0 
 -1.829060e-15  -4.107074e-14  0 
 -1.834574e-15  -4.366630e-14  0 
 -4.995323e-15  -4.628486e-14  0 
 -3.938707e-15  -4.627808e-14  0 
 -2.897302e-15  -4.627309e-14  0 
 2.287687e-15  -3.848435e-14  0 
 2.289065e-15  -4.103544e-14  0 
 2.292702e-15  -4.363085e-14  0 
 -8.463603e-16  -4.626171e-14  0 
 2.266988e-16  -4.627423e-14  0 
 1.299958e-15  -4.624877e-14  0 
 6.348647e-15  -3.846974e-14  0 
 6.405592e-15  -4.103516e-14  0 
 6.459586e-15  -4.361564e-14  0 
 3.353121e-15  -4.623912e-14  0 
 4.395789e-15  -4.624270e-14  0 
 5.452088e-15  -4.624784e-14  0 
 1.062010e-14  -3.852075e-14  0 
 1.050160e-14  -4.113457e-14  0 
 1.035466e-14  -4.365197e-14  0 
 7.648688e-15  -4.614106e-14  0 
 8.700387e-15  -4.586504e-14  0 
 9.498409e-15  -4.558855e-14  0 
 -8.973178e-15  -3.853823e-14  0 
 -7.906150e-15  -3.850505e-14  0 
 -6.874824e-15  -3.848480e-14  0 
 -9.012015e-15  -4.113077e-14  0 
 -7.988689e-15  -4.111424e-14  0 
 -6.967070e-15  -4.109241e-14  0 
 -9.039770e-15  -4.366550e-14  0 
 -8.071299e-15  -4.363046e-14  0 
 -7.060272e-15  -4.361475e-14  0 
 -4.867322e-15  -3.850982e-14  0 
 -3.853923e-15  -3.851564e-14  0 
 -2.839148e-15  -3.852012e-14  0 
 -4.915520e-15  -4.107049e-14  0 
 -3.886752e-15  -4.107027e-14  0 
 -2.857914e-15  -4.107050e-14  0 
 -4.962066e-15  -4.365455e-14  0 
 -3.920024e-15  -4.366057e-14  0 
 -2.878936e-15  -4.366538e-14  0 
 -8.007274e-16  -3.851239e-14  0 
 2.315779e-16  -3.849624e-14  0 
 1.263411e-15  -3.849351e-14  0 
 -7.994028e-16  -4.106969e-14  0 
 2.298494e-16  -4.106604e-14  0 
 1.259177e-15  -4.105185e-14  0 
 -8.013984e-16  -4.365639e-14  0 
 2.281181e-16  -4.364031e-14  0 
 1.258265e-15  -4.363828e-14  0 
 3.301708e-15  -3.848278e-14  0 
 4.316769e-15  -3.847837e-14  0 
 5.330641e-15  -3.847263e-14  0 
 3.318225e-15  -4.103485e-14  0 
 4.347375e-15  -4.103434e-14  0 
 5.376459e-15  -4.103453e-14  0 
 3.337003e-15  -4.362959e-14  0 
 4.378426e-15  -4.362487e-14  0 
 5.420617e-15  -4.361895e-14  0 
 7.343742e-15  -3.844173e-14  0 
 8.396693e-15  -3.846122e-14  0 
 9.499850e-15  -3.849987e-14  0 
 7.428707e-15  -4.107012e-14  0 
 8.450741e-15  -4.110425e-14  0 
 9.474478e-15  -4.112776e-14  0 
 7.514701e-15  -4.357339e-14  0 
 8.504843e-15  -4.358838e-14  0 
 9.438032e-15  -4.362903e-14  0 
VECTORS displacement_ITER8 FLOAT
 -1.107538e-08  5.179081e-09  0 
 -2.477383e-08  -4.226736e-08  0 
 -1.352488e-09  4.365806e-09  0 
 7.641169e-09  4.222509e-09  0 
 7.641170e-09  -4.222520e-09  0 
 -1.352486e-09  -4.365817e-09  0 
 -1.107537e-08  -5.179092e-09  0 
 -3.589418e-10  -1.817708e-08  0 
 6.833388e-09  -1.700117e-08  0 
 6.833388e-09  1.700116e-08  0 
 -3.589393e-10  1.817706e-08  0 
 -2.477382e-08  4.226734e-08  0 
 -1.136534e-08  -4.706808e-10  0 
 -1.315108e-08  -6.179078e-09  0 
 -1.871406e-08  -1.551120e-08  0 
 -8.756731e-09  5.172603e-09  0 
 -6.347583e-09  5.097903e-09  0 
 -3.854841e-09  4.858747e-09  0 
 9.165974e-10  4.344885e-09  0 
 3.177869e-09  4.313900e-09  0 
 5.421916e-09  4.272073e-09  0 
 9.299703e-09  2.112318e-09  0 
 9.859510e-09  -5.596720e-15  0 
 9.299703e-09  -2.112329e-09  0 
 5.421917e-09  -4.272084e-09  0 
 3.177870e-09  -4.313911e-09  0 
 9.165990e-10  -4.344897e-09  0 
 -3.854839e-09  -4.858759e-09  0 
 -6.347581e-09  -5.097914e-09  0 
 -8.756729e-09  -5.172614e-09  0 
 -1.353850e-09  -1.299341e-09  0 
 -1.312572e-09  -6.986905e-09  0 
 -1.079646e-09  -1.276453e-08  0 