# vtk DataFile Version 3.1
this is an vtk file created by FEMAC
ASCII
DATASET UNSTRUCTURED_GRID
POINTS 105 FLOAT
6.000000 0.000000 0.000000
6.500000 0.000000 0.000000
6.000000 0.200000 0.000000
6.000000 0.400000 0.000000
6.000000 0.600000 0.000000
6.000000 0.800000 0.000000
6.000000 1.000000 0.000000
6.500000 0.200000 0.000000
6.500000 0.400000 0.000000
6.500000 0.600000 0.000000
6.500000 0.800000 0.000000
6.500000 1.000000 0.000000
6.125000 0.000000 0.000000
6.250000 0.000000 0.000000
6.375000 0.000000 0.000000
6.000000 0.050000 0.000000
6.000000 0.100000 0.000000
6.000000 0.150000 0.000000
6.000000 0.250000 0.000000
6.000000 0.300000 0.000000
6.000000 0.350000 0.000000
6.000000 0.450000 0.000000
6.000000 0.500000 0.000000
6.000000 0.550000 0.000000
6.000000 0.650000 0.000000
6.000000 0.700000 0.000000
6.000000 0.750000 0.000000
6.000000 0.850000 0.000000
6.000000 0.900000 0.000000
6.000000 0.950000 0.000000
6.125000 0.200000 0.000000
6.250000 0.200000 0.000000
6.375000 0.200000 0.000000
6.500000 0.050000 0.000000
6.500000 0.100000 0.000000
6.500000 0.150000 0.000000
6.125000 0.400000 0.000000
6.250000 0.400000 0.000000
6.375000 0.400000 0.000000
6.500000 0.250000 0.000000
6.500000 0.300000 0.000000
6.500000 0.350000 0.000000
6.125000 0.600000 0.000000
6.250000 0.600000 0.000000
6.375000 0.600000 0.000000
6.500000 0.450000 0.000000
6.500000 0.500000 0.000000
6.500000 0.550000 0.000000
6.125000 0.800000 0.000000
6.250000 0.800000 0.000000
6.375000 0.800000 0.000000
6.500000 0.650000 0.000000
6.500000 0.700000 0.000000
6.500000 0.750000 0.000000
6.125000 1.000000 0.000000
6.250000 1.000000 0.000000
6.375000 1.000000 0.000000
6.500000 0.850000 0.000000
6.500000 0.900000 0.000000
6.500000 0.950000 0.000000
6.125000 0.050000 0.000000
6.125000 0.100000 0.000000
6.125000 0.150000 0.000000
6.250000 0.050000 0.000000
6.250000 0.100000 0.000000
6.250000 0.150000 0.000000
6.375000 0.050000 0.000000
6.375000 0.100000 0.000000
6.375000 0.150000 0.000000
6.125000 0.250000 0.000000
6.125000 0.300000 0.000000
6.125000 0.350000 0.000000
6.250000 0.250000 0.000000
6.250000 0.300000 0.000000
6.250000 0.350000 0.000000
6.375000 0.250000 0.000000
6.375000 0.300000 0.000000
6.375000 0.350000 0.000000
6.125000 0.450000 0.000000
6.125000 0.500000 0.000000
6.125000 0.550000 0.000000
6.250000 0.450000 0.000000
6.250000 0.500000 0.000000
6.250000 0.550000 0.000000
6.375000 0.450000 0.000000
6.375000 0.500000 0.000000
6.375000 0.550000 0.000000
6.125000 0.650000 0.000000
6.125000 0.700000 0.000000
6.125000 0.750000 0.000000
6.250000 0.650000 0.000000
6.250000 0.700000 0.000000
6.250000 0.750000 0.000000
6.375000 0.650000 0.000000
6.375000 0.700000 0.000000
6.375000 0.750000 0.000000
6.125000 0.850000 0.000000
6.125000 0.900000 0.000000
6.125000 0.950000 0.000000
6.250000 0.850000 0.000000
6.250000 0.900000 0.000000
6.250000 0.950000 0.000000
6.375000 0.850000 0.000000
6.375000 0.900000 0.000000
6.375000 0.950000 0.000000
CELLS 80 400 
4 0 12 60 15
4 15 60 61 16
4 16 61 62 17
4 17 62 30  2
4 12 13 63 60
4 60 63 64 61
4 61 64 65 62
4 62 65 31 30
4 13 14 66 63
4 63 66 67 64
4 64 67 68 65
4 65 68 32 31
4 14  1 33 66
4 66 33 34 67
4 67 34 35 68
4 68 35  7 32
4 2 30 69 18
4 18 69 70 19
4 19 70 71 20
4 20 71 36  3
4 30 31 72 69
4 69 72 73 70
4 70 73 74 71
4 71 74 37 36
4 31 32 75 72
4 72 75 76 73
4 73 76 77 74
4 74 77 38 37
4 32  7 39 75
4 75 39 40 76
4 76 40 41 77
4 77 41  8 38
4 3 36 78 21
4 21 78 79 22
4 22 79 80 23
4 23 80 42  4
4 36 37 81 78
4 78 81 82 79
4 79 82 83 80
4 80 83 43 42
4 37 38 84 81
4 81 84 85 82
4 82 85 86 83
4 83 86 44 43
4 38  8 45 84
4 84 45 46 85
4 85 46 47 86
4 86 47  9 44
4 4 42 87 24
4 24 87 88 25
4 25 88 89 26
4 26 89 48  5
4 42 43 90 87
4 87 90 91 88
4 88 91 92 89
4 89 92 49 48
4 43 44 93 90
4 90 93 94 91
4 91 94 95 92
4 92 95 50 49
4 44  9 51 93
4 93 51 52 94
4 94 52 53 95
4 95 53 10 50
4 5 48 96 27
4 27 96 97 28
4 28 97 98 29
4 29 98 54  6
4 48 49 99 96
4 96  99 100  97
4 97 100 101  98
4 98 101  55  54
4 49  50 102  99
4 99 102 103 100
4 100 103 104 101
4 101 104  56  55
4 50  10  57 102
4 102  57  58 103
4 103  58  59 104
4 104  59  11  56
CELL_TYPES 80
9 9 9 9 9 9 9 9 9 9 9 9 9 9 9 9 9 9 9 9 9 9 9 9 9 9 9 9 9 9 9 9 9 9 9 9 9 9 9 9 9 9 9 9 9 9 9 9 9 9 9 9 9 9 9 9 9 9 9 9 9 9 9 9 9 9 9 9 9 9 9 9 9 9 9 9 9 9 9 9 
POINT_DATA 105
VECTORS displacement_ITER1 FLOAT
 -5.236870e-06  1.542379e-06  0 
 -6.410231e-06  -5.888479e-06  0 
 -2.116856e-06  1.431958e-06  0 
 5.255270e-06  4.346388e-07  0 
 5.257340e-06  -4.649403e-07  0 
 -2.144455e-06  -1.351770e-06  0 
 -5.214488e-06  -1.466691e-06  0 
 -2.966356e-06  -5.584560e-06  0 
 7.366578e-06  1.127464e-06  0 
 7.344342e-06  -1.120554e-06  0 
 -2.991304e-06  5.557338e-06  0 
 -6.390960e-06  5.858599e-06  0 
 -5.353283e-06  -2.545829e-07  0 
 -5.601119e-06  -2.073755e-06  0 
 -5.950713e-06  -3.969939e-06  0 
 -4.507545e-06  1.550350e-06  0 
 -3.764422e-06  1.557290e-06  0 
 -2.984713e-06  1.528177e-06  0 
 -1.047333e-07  -1.427707e-06  0 
 -5.402391e-07  -2.438446e-06  0 
 -9.768784e-08  -5.625389e-08  0 
 5.480641e-06  2.221805e-07  0 
 5.544454e-06  -1.541942e-08  0 
 5.481425e-06  -2.529666e-07  0 
 1.298218e-08  4.347882e-08  0 
 -5.039619e-07  2.255694e-06  0 
 -2.459051e-07  1.349605e-06  0 
 -2.998848e-06  -1.450284e-06  0 
 -3.765680e-06  -1.480700e-06  0 
 -4.496793e-06  -1.474284e-06  0 
 -2.403287e-06  -2.908541e-07  0 
 -2.552735e-06  -2.027166e-06  0 
 -2.790728e-06  -3.912031e-06  0 
 -5.464868e-06  -6.008423e-06  0 
 -4.732309e-06  -6.157236e-06  0 
 -4.047140e-06  -6.006018e-06  0 
 5.545283e-06  -8.892199e-08  0 
 6.009712e-06  -1.132459e-07  0 
 6.774416e-06  -1.331885e-07  0 
 -1.544135e-06  -4.283991e-06  0 
 4.765595e-06  -5.007947e-06  0 
 1.138733e-05  -1.392548e-06  0 
 5.545848e-06  5.559716e-08  0 
 6.004479e-06  8.283002e-08  0 
 6.760484e-06  1.115252e-07  0 
 7.229063e-06  4.687971e-07  0 
 7.157094e-06  -1.551272e-09  0 
 7.216997e-06  -4.693299e-07  0 
 -2.428397e-06  3.347118e-07  0 
 -2.572037e-06  2.047451e-06  0 
 -2.809533e-06  3.911563e-06  0 
 1.129862e-05  1.340081e-06  0 
 4.703892e-06  4.981073e-06  0 
 -1.585033e-06  4.264941e-06  0 
 -5.332508e-06  3.017152e-07  0 
 -5.582206e-06  2.095215e-06  0 
 -5.930604e-06  3.966561e-06  0 
 -4.058084e-06  5.981008e-06  0 
 -4.729849e-06  6.131970e-06  0 
 -5.452370e-06  5.979730e-06  0 
 -4.626117e-06  -2.613908e-07  0 
 -3.877401e-06  -2.780293e-07  0 
 -3.119019e-06  -2.931080e-07  0 
 -4.841745e-06  -2.066481e-06  0 
 -4.086585e-06  -2.054261e-06  0 
 -3.339456e-06  -2.049211e-06  0 
 -5.209065e-06  -3.961831e-06  0 
 -4.381102e-06  -3.933368e-06  0 
 -3.518456e-06  -3.893495e-06  0 
 -3.839748e-07  8.802814e-08  0 
 1.536591e-06  2.710336e-07  0 
 3.692966e-06  -3.867811e-07  0 
 -1.152761e-07  -1.362722e-06  0 
 2.138753e-06  -1.081919e-06  0 
 4.192967e-06  -3.893625e-07  0 
 3.657060e-07  -2.568686e-06  0 
 2.723129e-06  -8.291006e-07  0 
 4.352084e-06  -8.370218e-07  0 
 5.672817e-06  -3.713917e-08  0 
 5.726382e-06  -1.655088e-08  0 
 5.672960e-06  4.068238e-09  0 
 6.072815e-06  -1.043521e-07  0 
 6.076776e-06  -1.544987e-08  0 
 6.069863e-06  7.338632e-08  0 
 6.569360e-06  -3.444416e-09  0 
 6.519746e-06  -1.006225e-08  0 
 6.563218e-06  -1.679816e-08  0 
 3.688120e-06  3.560544e-07  0 
 1.525772e-06  -2.376749e-07  0 
 -3.936897e-07  -5.445413e-08  0 
 4.176497e-06  3.775062e-07  0 
 2.118212e-06  1.076200e-06  0 
 -1.361462e-07  1.374339e-06  0 
 4.334353e-06  8.266363e-07  0 
 2.697597e-06  8.224249e-07  0 
 3.396606e-07  2.564298e-06  0 
 -3.131706e-06  3.387922e-07  0 
 -3.878675e-06  3.246253e-07  0 
 -4.616315e-06  3.083803e-07  0 
 -3.350265e-06  2.069594e-06  0 
 -4.087621e-06  2.075112e-06  0 
 -4.832682e-06  2.087743e-06  0 
 -3.528319e-06  3.892247e-06  0 
 -4.381932e-06  3.931066e-06  0 
 -5.199966e-06  3.958861e-06  0 
VECTORS displacement_ITER2 FLOAT
 -8.205177e-06  -2.934617e-06  0 
 -9.515452e-06  -1.588941e-05  0 
 -3.237754e-06  -3.170536e-06  0 
 2.727927e-06  2.833704e-07  0 
 2.683757e-06  -2.911052e-07  0 
 -3.230905e-06  3.139636e-06  0 
 -8.203427e-06  2.906617e-06  0 
 -4.776128e-06  -1.548949e-05  0 
 6.282814e-06  -1.471314e-07  0 
 6.273999e-06  2.898700e-07  0 
 -4.771214e-06  1.544390e-05  0 
 -9.507555e-06  1.584725e-05  0 
 -8.467246e-06  -5.986121e-06  0 
 -8.835021e-06  -9.101517e-06  0 
 -9.266380e-06  -1.238115e-05  0 
 -7.002885e-06  -2.946376e-06  0 
 -5.755035e-06  -2.974629e-06  0 
 -4.487198e-06  -3.024658e-06  0 
 -3.107250e-06  -1.530193e-06  0 
 7.868625e-07  -3.267892e-07  0 
 2.767233e-06  -2.650927e-06  0 
 3.059836e-06  1.223963e-07  0 
 3.155853e-06  -3.271806e-09  0 
 3.038745e-06  -1.292365e-07  0 
 2.590251e-06  2.702866e-06  0 
 7.276280e-07  5.649759e-07  0 
 -2.963975e-06  1.614022e-06  0 
 -4.482577e-06  2.994407e-06  0 
 -5.751923e-06  2.945837e-06  0 
 -7.000505e-06  2.918142e-06  0 
 -3.553578e-06  -5.895500e-06  0 
 -3.653343e-06  -8.974003e-06  0 
 -3.867921e-06  -1.244913e-05  0 
 -8.301102e-06  -1.575877e-05  0 
 -6.828021e-06  -1.560149e-05  0 
 -5.455661e-06  -1.569320e-05  0 
 3.455177e-06  -1.241886e-07  0 
 3.980213e-06  -1.069665e-08  0 
 4.468363e-06  -4.596657e-07  0 
 -2.243083e-06  -1.464712e-05  0 
 -2.270673e-06  -1.117536e-05  0 
 -7.984370e-07  -1.165521e-05  0 
 3.416358e-06  1.704310e-07  0 
 3.949203e-06  9.914569e-08  0 
 4.446577e-06  5.842051e-07  0 
 5.241389e-06  -2.528327e-07  0 
 4.970687e-06  7.712489e-08  0 
 5.239886e-06  4.026168e-07  0 
 -3.550598e-06  5.870643e-06  0 
 -3.657812e-06  8.942990e-06  0 
 -3.873150e-06  1.240552e-05  0 
 -7.049008e-07  1.172793e-05  0 
 -2.218268e-06  1.121035e-05  0 
 -2.186798e-06  1.459822e-05  0 
 -8.462603e-06  5.958029e-06  0 
 -8.827573e-06  9.068075e-06  0 
 -9.261124e-06  1.234192e-05  0 
 -5.454787e-06  1.564126e-05  0 
 -6.831455e-06  1.555034e-05  0 
 -8.302905e-06  1.571335e-05  0 
 -7.221847e-06  -5.983794e-06  0 
 -5.973906e-06  -5.977061e-06  0 
 -4.737204e-06  -5.958879e-06  0 
 -7.570248e-06  -9.103020e-06  0 
 -6.279150e-06  -9.088991e-06  0 
 -4.973590e-06  -9.040766e-06  0 
 -7.879721e-06  -1.238382e-05  0 
 -6.598624e-06  -1.239666e-05  0 
 -5.314375e-06  -1.240919e-05  0 
 -1.040011e-06  -4.513447e-06  0 
 6.524931e-07  -3.369183e-06  0 
 2.134632e-06  -1.092851e-06  0 
 -1.280066e-06  -6.747797e-06  0 
 8.421231e-07  -4.193613e-06  0 
 2.469212e-06  -2.439589e-06  0 
 -2.159815e-06  -9.776336e-06  0 
 3.028387e-07  -7.230708e-06  0 
 3.194068e-06  -2.574730e-06  0 
 3.472506e-06  -4.285367e-08  0 
 3.478825e-06  2.265732e-08  0 
 3.453070e-06  8.837603e-08  0 
 4.031104e-06  7.463729e-09  0 
 4.055122e-06  4.471270e-08  0 
 4.015746e-06  8.183982e-08  0 
 4.729409e-06  -2.157847e-07  0 
 4.777057e-06  6.232500e-08  0 
 4.717581e-06  3.403554e-07  0 
 2.098547e-06  1.131082e-06  0 
 6.251182e-07  3.344169e-06  0 
 -1.065317e-06  4.505696e-06  0 
 2.441529e-06  2.490801e-06  0 
 8.149350e-07  4.224388e-06  0 
 -1.296908e-06  6.739382e-06  0 
 3.167170e-06  2.657364e-06  0 
 2.939011e-07  7.257388e-06  0 
 -2.169220e-06  9.772128e-06  0 
 -4.734786e-06  5.932481e-06  0 
 -5.971106e-06  5.949508e-06  0 
 -7.218209e-06  5.955802e-06  0 
 -4.973790e-06  9.009089e-06  0 
 -6.276667e-06  9.056649e-06  0 
 -7.565532e-06  9.069932e-06  0 
 -5.315880e-06  1.236685e-05  0 
 -6.596093e-06  1.235556e-05  0 
 -7.874608e-06  1.234399e-05  0 
VECTORS displacement_ITER3 FLOAT
 -8.678381e-06  -2.044371e-06  0 
 -9.121580e-06  -1.437393e-05  0 
 -3.012351e-06  -2.115059e-06  0 
 2.266637e-06  1.998476e-07  0 
 2.313502e-06  -2.034641e-07  0 
 -2.973151e-06  2.123712e-06  0 
 -8.668168e-06  2.050112e-06  0 
 -5.724984e-06  -1.413271e-05  0 
 5.454973e-06  -1.580887e-06  0 
 5.481574e-06  1.373579e-06  0 
 -5.700777e-06  1.420553e-05  0 
 -9.111590e-06  1.444367e-05  0 
 -8.830650e-06  -5.418768e-06  0 
 -8.970966e-06  -8.695131e-06  0 
 -9.005007e-06  -1.168043e-05  0 
 -7.318879e-06  -2.035252e-06  0 
 -5.938173e-06  -2.031320e-06  0 
 -4.506465e-06  -2.059256e-06  0 
 -5.790608e-07  -1.151156e-06  0 
 -1.882655e-07  -1.091906e-06  0 
 1.557002e-06  8.882945e-09  0 
 2.742751e-06  1.145760e-07  0 
 2.877204e-06  -1.650936e-09  0 
 2.765973e-06  -1.180267e-07  0 
 1.643043e-06  -1.147864e-07  0 
 -2.083989e-07  9.849816e-07  0 
 -6.133811e-07  1.178384e-06  0 
 -4.474134e-06  2.067424e-06  0 
 -5.913507e-06  2.038071e-06  0 
 -7.301575e-06  2.041157e-06  0 
 -3.507153e-06  -5.365533e-06  0 
 -3.864201e-06  -8.572865e-06  0 
 -4.461487e-06  -1.179213e-05  0 
 -7.860443e-06  -1.447271e-05  0 
 -6.954075e-06  -1.450210e-05  0 
 -6.167930e-06  -1.422399e-05  0 
 3.144044e-06  -1.966977e-07  0 
 3.723649e-06  -8.691171e-08  0 
 4.106991e-06  -2.288283e-07  0 
 -6.131578e-06  -1.301571e-05  0 
 -5.142875e-06  -1.098513e-05  0 
 -4.370019e-06  -7.010224e-06  0 
 3.188456e-06  1.366475e-07  0 
 3.766639e-06  -2.711403e-08  0 
 4.145569e-06  5.994453e-08  0 
 5.164504e-06  -4.916236e-07  0 
 5.275314e-06  -1.125825e-07  0 
 5.174170e-06  2.734041e-07  0 
 -3.469179e-06  5.388324e-06  0 
 -3.823578e-06  8.614274e-06  0 
 -4.422603e-06  1.185807e-05  0 
 -4.418227e-06  6.948185e-06  0 
 -5.219748e-06  1.095969e-05  0 
 -6.210049e-06  1.303113e-05  0 
 -8.821222e-06  5.443413e-06  0 
 -8.961584e-06  8.740027e-06  0 
 -8.990543e-06  1.174067e-05  0 
 -6.141067e-06  1.430725e-05  0 
 -6.922622e-06  1.458552e-05  0 
 -7.833286e-06  1.454781e-05  0 
 -7.490480e-06  -5.421349e-06  0 
 -6.141992e-06  -5.419873e-06  0 
 -4.804463e-06  -5.406150e-06  0 
 -7.706005e-06  -8.687726e-06  0 
 -6.459051e-06  -8.669002e-06  0 
 -5.179635e-06  -8.624692e-06  0 
 -7.921418e-06  -1.168906e-05  0 
 -6.767268e-06  -1.172378e-05  0 
 -5.647399e-06  -1.179965e-05  0 
 -1.468702e-06  -3.854702e-06  0 
 5.110441e-07  -2.375031e-06  0 
 1.869515e-06  -1.306968e-06  0 
 -1.528412e-06  -6.319237e-06  0 
 5.579467e-07  -4.086493e-06  0 
 2.195856e-06  -2.056499e-06  0 
 -2.678230e-06  -9.311161e-06  0 
 -4.369680e-07  -6.299596e-06  0 
 2.697632e-06  -2.872015e-06  0 
 3.149061e-06  -1.320011e-07  0 
 3.166225e-06  -3.008222e-08  0 
 3.171494e-06  7.192600e-08  0 
 3.711592e-06  -3.764607e-08  0 
 3.753949e-06  -5.752310e-08  0 
 3.732699e-06  -7.726029e-08  0 
 4.489404e-06  -2.899622e-07  0 
 4.520361e-06  -8.440828e-08  0 
 4.509979e-06  1.211138e-07  0 
 1.912090e-06  1.279725e-06  0 
 5.551562e-07  2.368823e-06  0 
 -1.426295e-06  3.839544e-06  0 
 2.248353e-06  1.982500e-06  0 
 6.172310e-07  4.049314e-06  0 
 -1.476186e-06  6.325694e-06  0 
 2.737864e-06  2.750118e-06  0 
 -4.060227e-07  6.251368e-06  0 
 -2.639516e-06  9.329176e-06  0 
 -4.772563e-06  5.429883e-06  0 
 -6.117073e-06  5.444388e-06  0 
 -7.473185e-06  5.446041e-06  0 
 -5.147902e-06  8.667264e-06  0 
 -6.434767e-06  8.712401e-06  0 
 -7.688815e-06  8.732123e-06  0 
 -5.615687e-06  1.186388e-05  0 
 -6.743938e-06  1.178648e-05  0 
 -7.904523e-06  1.175006e-05  0 
VECTORS displacement_ITER4 FLOAT
 -8.403384e-06  -1.828727e-07  0 
 -8.580611e-06  -1.319224e-05  0 
 -2.173998e-06  -1.792571e-07  0 
 2.348573e-06  1.377446e-07  0 
 2.303142e-06  -1.106986e-07  0 
 -2.225555e-06  1.845979e-07  0 
 -8.400504e-06  1.904536e-07  0 
 -5.220038e-06  -1.304620e-05  0 
 5.508697e-06  -2.249933e-06  0 
 5.485358e-06  2.482148e-06  0 
 -5.253398e-06  1.292661e-05  0 
 -8.577877e-06  1.307759e-05  0 
 -8.511358e-06  -3.821561e-06  0 
 -8.575824e-06  -7.253354e-06  0 
 -8.608547e-06  -1.032739e-05  0 
 -6.938614e-06  -1.778594e-07  0 
 -5.439956e-06  -1.629443e-07  0 
 -3.878981e-06  -1.534639e-07  0 
 2.635433e-07  -3.430677e-07  0 
 9.418510e-07  -5.773875e-07  0 
 1.401530e-06  -6.061623e-09  0 
 2.817384e-06  1.386844e-07  0 
 2.937410e-06  1.307100e-08  0 
 2.794553e-06  -1.123060e-07  0 
 1.366570e-06  1.082921e-07  0 
 9.853042e-07  6.059186e-07  0 
 2.340593e-07  2.892101e-07  0 
 -3.917114e-06  1.590124e-07  0 
 -5.463790e-06  1.692397e-07  0 
 -6.948732e-06  1.851055e-07  0 
 -2.827367e-06  -3.818837e-06  0 
 -3.306163e-06  -7.148515e-06  0 
 -3.933311e-06  -1.041039e-05  0 
 -7.572925e-06  -1.307863e-05  0 
 -6.489972e-06  -1.292951e-05  0 
 -5.635645e-06  -1.288233e-05  0 
 3.300522e-06  -1.067308e-07  0 
 3.903575e-06  1.008175e-07  0 
 4.149182e-06  -1.115704e-07  0 
 -4.174105e-06  -1.457732e-05  0 
 -1.780529e-06  -1.335390e-05  0 
 1.290270e-06  -6.975405e-06  0 
 3.256963e-06  1.868871e-07  0 
 3.858796e-06  3.478309e-08  0 
 4.109238e-06  3.051768e-07  0 
 5.345898e-06  -9.073454e-07  0 
 5.156642e-06  1.256200e-07  0 
 5.338315e-06  1.151466e-06  0 
 -2.877282e-06  3.793140e-06  0 
 -3.357537e-06  7.089776e-06  0 
 -3.983032e-06  1.031191e-05  0 
 1.336427e-06  7.055802e-06  0 
 -1.672638e-06  1.336195e-05  0 
 -4.095751e-06  1.455972e-05  0 
 -8.507544e-06  3.794535e-06  0 
 -8.572207e-06  7.190440e-06  0 
 -8.611111e-06  1.023479e-05  0 
 -5.666302e-06  1.275082e-05  0 
 -6.521566e-06  1.279724e-05  0 
 -7.595341e-06  1.295709e-05  0 
 -7.080532e-06  -3.822149e-06  0 
 -5.648046e-06  -3.826154e-06  0 
 -4.216151e-06  -3.835001e-06  0 
 -7.280237e-06  -7.254607e-06  0 
 -5.969807e-06  -7.245361e-06  0 
 -4.641645e-06  -7.199473e-06  0 
 -7.424625e-06  -1.034316e-05  0 
 -6.309619e-06  -1.038150e-05  0 
 -5.192751e-06  -1.043835e-05  0 
 -8.342813e-07  -2.640821e-06  0 
 9.163513e-07  -1.506073e-06  0 
 2.284494e-06  -7.680396e-07  0 
 -1.037054e-06  -5.189788e-06  0 
 8.511426e-07  -3.354069e-06  0 
 2.491272e-06  -1.541028e-06  0 
 -2.027542e-06  -7.999961e-06  0 
 5.439100e-07  -5.319263e-06  0 
 2.861776e-06  -2.988714e-06  0 
 3.256069e-06  -6.682639e-08  0 
 3.248403e-06  4.053895e-08  0 
 3.233923e-06  1.476199e-07  0 
 3.863596e-06  1.358051e-07  0 
 3.868246e-06  6.840372e-08  0 
 3.841803e-06  8.026846e-10  0 
 4.662355e-06  -1.576189e-07  0 
 4.807252e-06  9.688127e-08  0 
 4.641153e-06  3.513034e-07  0 
 2.239189e-06  8.039499e-07  0 
 8.630788e-07  1.533166e-06  0 
 -8.821680e-07  2.659800e-06  0 
 2.431125e-06  1.629131e-06  0 
 7.828369e-07  3.391227e-06  0 
 -1.101098e-06  5.177787e-06  0 
 2.820421e-06  3.121949e-06  0 
 5.038902e-07  5.368491e-06  0 
 -2.072921e-06  7.957901e-06  0 
 -4.253553e-06  3.808593e-06  0 
 -5.672234e-06  3.799158e-06  0 
 -7.090903e-06  3.795044e-06  0 
 -4.678387e-06  7.139326e-06  0 
 -5.993219e-06  7.184229e-06  0 
 -7.290590e-06  7.192305e-06  0 
 -5.229505e-06  1.034145e-05  0 
 -6.331766e-06  1.028625e-05  0 
 -7.434449e-06  1.024971e-05  0 
VECTORS displacement_ITER5 FLOAT
 -1.027449e-05  -7.069355e-07  0 
 -1.061091e-05  -1.762052e-05  0 
 -2.311170e-06  -7.194252e-07  0 
 3.072697e-06  5.059167e-08  0 
 3.149226e-06  -1.511039e-07  0 
 -2.209295e-06  7.385255e-07  0 
 -1.026690e-05  7.205167e-07  0 
 -5.770466e-06  -1.748863e-05  0 
 6.018537e-06  -3.715033e-06  0 
 6.054176e-06  3.260838e-06  0 
 -5.709272e-06  1.771599e-05  0 
 -1.060304e-05  1.783824e-05  0 
 -1.042871e-05  -5.357865e-06  0 
 -1.055397e-05  -9.844598e-06  0 
 -1.056387e-05  -1.393593e-05  0 
 -8.404081e-06  -6.968164e-07  0 
 -6.499853e-06  -6.754356e-07  0 
 -4.506244e-06  -6.581270e-07  0 
 -1.690644e-06  -1.476869e-06  0 
 3.722020e-08  -1.517800e-07  0 
 1.443961e-06  -9.096091e-08  0 
 3.606698e-06  6.806988e-08  0 
 3.809113e-06  -4.953216e-08  0 
 3.645583e-06  -1.674773e-07  0 
 1.464419e-06  -1.252170e-07  0 
 -7.342347e-08  1.192286e-07  0 
 -1.644489e-06  1.610440e-06  0 
 -4.428009e-06  6.763502e-07  0 
 -6.446471e-06  6.921805e-07  0 
 -8.374649e-06  7.113946e-07  0 
 -3.124915e-06  -5.350026e-06  0 
 -3.621585e-06  -9.692417e-06  0 
 -4.304011e-06  -1.399512e-05  0 
 -9.016321e-06  -1.769072e-05  0 
 -7.709981e-06  -1.770765e-05  0 
 -6.652083e-06  -1.758891e-05  0 
 4.128985e-06  -2.904153e-07  0 
 4.867931e-06  -1.097226e-07  0 
 5.104430e-06  -1.535525e-07  0 
 -4.371192e-06  -1.362441e-05  0 
 -4.768238e-06  -1.078670e-05  0 
 -5.508274e-07  -9.817355e-06  0 
 4.203508e-06  1.015471e-07  0 
 4.947563e-06  -1.768940e-07  0 
 5.174045e-06  -2.380739e-07  0 
 6.711474e-06  -1.660713e-06  0 
 6.931120e-06  -2.471493e-07  0 
 6.720945e-06  1.181008e-06  0 
 -3.027604e-06  5.420696e-06  0 
 -3.521263e-06  9.819544e-06  0 
 -4.207505e-06  1.419282e-05  0 
 -6.937282e-07  9.632707e-06  0 
 -5.013530e-06  1.074121e-05  0 
 -4.540458e-06  1.363988e-05  0 
 -1.042332e-05  5.431523e-06  0 
 -1.054809e-05  9.980675e-06  0 
 -1.054478e-05  1.412100e-05  0 
 -6.590711e-06  1.784183e-05  0 
 -7.640728e-06  1.796299e-05  0 
 -8.960373e-06  1.792319e-05  0 
 -8.586820e-06  -5.361850e-06  0 
 -6.738318e-06  -5.371793e-06  0 
 -4.895020e-06  -5.383264e-06  0 
 -8.825826e-06  -9.836433e-06  0 
 -7.108593e-06  -9.807938e-06  0 
 -5.378315e-06  -9.752949e-06  0 
 -9.058011e-06  -1.394766e-05  0 
 -7.509109e-06  -1.398986e-05  0 
 -5.941074e-06  -1.402763e-05  0 
 -6.703729e-07  -3.600425e-06  0 
 1.131292e-06  -2.587468e-06  0 
 2.841714e-06  -1.352051e-06  0 
 -9.389397e-07  -7.185360e-06  0 
 1.444133e-06  -4.619994e-06  0 
 3.336149e-06  -2.419650e-06  0 
 -2.277263e-06  -1.108661e-05  0 
 3.415811e-07  -7.566065e-06  0 
 2.862334e-06  -3.195750e-06  0 
 4.119980e-06  -2.377084e-07  0 
 4.130887e-06  -9.570346e-08  0 
 4.157992e-06  4.707881e-08  0 
 4.791723e-06  -5.331710e-08  0 
 4.819039e-06  -1.445855e-07  0 
 4.830079e-06  -2.354598e-07  0 
 5.744375e-06  -3.521858e-07  0 
 5.926008e-06  -1.956654e-07  0 
 5.781808e-06  -3.905443e-08  0 
 2.919104e-06  1.264453e-06  0 
 1.222378e-06  2.525433e-06  0 
 -5.828478e-07  3.569438e-06  0 
 3.444365e-06  2.233582e-06  0 
 1.570250e-06  4.542402e-06  0 
 -8.193546e-07  7.212234e-06  0 
 2.933992e-06  2.926235e-06  0 
 4.085233e-07  7.466738e-06  0 
 -2.195469e-06  1.116982e-05  0 
 -4.818536e-06  5.455660e-06  0 
 -6.684411e-06  5.445408e-06  0 
 -8.556691e-06  5.435671e-06  0 
 -5.303541e-06  9.883066e-06  0 
 -7.056503e-06  9.940187e-06  0 
 -8.795862e-06  9.971185e-06  0 
 -5.866330e-06  1.422190e-05  0 
 -7.459703e-06  1.418053e-05  0 
 -9.029229e-06  1.413453e-05  0 
VECTORS displacement_ITER6 FLOAT
 -9.533267e-06  -1.320038e-07  0 
 -9.846214e-06  -1.480135e-05  0 
 -2.317572e-06  -7.807773e-08  0 
 2.631791e-06  8.731482e-08  0 
 2.569833e-06  -2.785888e-09  0 
 -2.397424e-06  6.498429e-08  0 
 -9.539778e-06  1.233852e-07  0 
 -6.077714e-06  -1.466282e-05  0 
 5.753553e-06  -4.199084e-06  0 
 5.730722e-06  4.554787e-06  0 
 -6.126220e-06  1.448796e-05  0 
 -9.853169e-06  1.463403e-05  0 
 -9.689587e-06  -4.266511e-06  0 
 -9.791560e-06  -8.179738e-06  0 
 -9.837819e-06  -1.166134e-05  0 
 -7.874870e-06  -1.224226e-07  0 
 -6.171631e-06  -9.151364e-08  0 
 -4.354547e-06  -4.616889e-08  0 
 -1.163629e-06  1.143407e-07  0 
 4.878539e-07  8.335882e-09  0 
 1.344320e-06  -4.103274e-07  0 
 3.149846e-06  1.353061e-07  0 
 3.312684e-06  4.223013e-08  0 
 3.118342e-06  -5.089898e-08  0 
 1.310313e-06  5.683801e-07  0 
 5.337395e-07  3.654365e-08  0 
 -1.196473e-06  -1.956610e-07  0 
 -4.415850e-06  3.342984e-08  0 
 -6.213597e-06  8.006579e-08  0 
 -7.898063e-06  1.128222e-07  0 
 -3.220699e-06  -4.279817e-06  0 
 -3.811271e-06  -8.052690e-06  0 
 -4.560087e-06  -1.174268e-05  0 
 -8.675363e-06  -1.474403e-05  0 
 -7.538622e-06  -1.462130e-05  0 
 -6.571362e-06  -1.459276e-05  0 
 3.794618e-06  -1.060833e-07  0 
 4.600630e-06  2.245730e-07  0 
 4.722957e-06  1.567225e-07  0 
 -4.480646e-06  -1.473597e-05  0 
 -1.607549e-06  -1.264790e-05  0 
 1.244636e-06  -9.800190e-06  0 
 3.735288e-06  2.624650e-07  0 
 4.539238e-06  8.279203e-09  0 
 4.671838e-06  1.560066e-07  0 
 6.468006e-06  -1.827346e-06  0 
 6.635256e-06  1.939361e-07  0 
 6.462869e-06  2.203426e-06  0 
 -3.297042e-06  4.226517e-06  0 
 -3.890227e-06  7.955328e-06  0 
 -4.636089e-06  1.159030e-05  0 
 1.392725e-06  9.950212e-06  0 
 -1.406688e-06  1.271955e-05  0 
 -4.345298e-06  1.473818e-05  0 
 -9.694266e-06  4.210909e-06  0 
 -9.796814e-06  8.075323e-06  0 
 -9.853775e-06  1.151889e-05  0 
 -6.619729e-06  1.439701e-05  0 
 -7.593768e-06  1.442349e-05  0 
 -8.720607e-06  1.456467e-05  0 
 -8.059979e-06  -4.269397e-06  0 
 -6.425019e-06  -4.280847e-06  0 
 -4.791246e-06  -4.301661e-06  0 
 -8.312420e-06  -8.179005e-06  0 
 -6.826774e-06  -8.163612e-06  0 
 -5.323827e-06  -8.111623e-06  0 
 -8.528086e-06  -1.167393e-05  0 
 -7.254220e-06  -1.171543e-05  0 
 -5.983377e-06  -1.176305e-05  0 
 -8.080838e-07  -2.905995e-06  0 
 1.036243e-06  -1.795316e-06  0 
 2.626742e-06  -7.723841e-07  0 
 -1.275768e-06  -5.891000e-06  0 
 1.027873e-06  -3.677252e-06  0 
 2.951972e-06  -1.697236e-06  0 
 -2.382014e-06  -9.045372e-06  0 
 1.106696e-07  -6.323948e-06  0 
 2.817563e-06  -3.053178e-06  0 
 3.724580e-06  -6.252965e-08  0 
 3.694159e-06  7.911369e-08  0 
 3.694440e-06  2.201674e-07  0 
 4.472190e-06  2.591946e-07  0 
 4.462304e-06  1.174558e-07  0 
 4.442665e-06  -2.459028e-08  0 
 5.523349e-06  -3.807827e-08  0 
 5.752924e-06  1.560895e-07  0 
 5.495683e-06  3.503005e-07  0 
 2.561009e-06  8.533386e-07  0 
 9.626746e-07  1.845675e-06  0 
 -8.824369e-07  2.928884e-06  0 
 2.868884e-06  1.847828e-06  0 
 9.294256e-07  3.743566e-06  0 
 -1.368135e-06  5.872882e-06  0 
 2.763986e-06  3.271449e-06  0 
 6.413036e-08  6.401214e-06  0 
 -2.445394e-06  8.983753e-06  0 
 -4.851402e-06  4.247025e-06  0 
 -6.467599e-06  4.225226e-06  0 
 -8.084056e-06  4.213657e-06  0 
 -5.382801e-06  8.011940e-06  0 
 -6.868086e-06  8.062288e-06  0 
 -8.336493e-06  8.075665e-06  0 
 -6.042597e-06  1.161339e-05  0 
 -7.293543e-06  1.156854e-05  0 
 -8.551261e-06  1.153005e-05  0 
VECTORS displacement_ITER7 FLOAT
 -9.592052e-06  8.872470e-08  0 
 -9.884303e-06  -1.384201e-05  0 
 -2.419397e-06  1.854568e-07  0 
 2.765948e-06  -2.395220e-08  0 
 2.833731e-06  -9.236234e-08  0 
 -2.326863e-06  -1.659544e-07  0 
 -9.578010e-06  -7.419209e-08  0 
 -6.593659e-06  -1.354402e-05  0 
 5.971060e-06  -5.290124e-06  0 
 5.993859e-06  4.879770e-06  0 
 -6.538305e-06  1.373244e-05  0 
 -9.869319e-06  1.402170e-05  0 
 -9.735661e-06  -3.953052e-06  0 
 -9.809752e-06  -7.727961e-06  0 
 -9.832362e-06  -1.098218e-05  0 
 -7.965527e-06  1.053661e-07  0 
 -6.289877e-06  1.524216e-07  0 
 -4.482889e-06  2.030533e-07  0 
 -6.814839e-07  2.601928e-07  0 
 -2.204156e-08  -1.115957e-07  0 
 1.330799e-06  8.187578e-08  0 
 3.359611e-06  3.255253e-08  0 
 3.550756e-06  -5.838167e-08  0 
 3.394383e-06  -1.490015e-07  0 
 1.358863e-06  -2.782269e-07  0 
 -8.528104e-08  6.649656e-08  0 
 -6.385274e-07  -1.553491e-07  0 
 -4.410543e-06  -1.834475e-07  0 
 -6.238712e-06  -1.342528e-07  0 
 -7.934367e-06  -8.957220e-08  0 
 -3.429905e-06  -3.986086e-06  0 
 -4.110512e-06  -7.612164e-06  0 
 -4.970968e-06  -1.108826e-05  0 
 -8.767028e-06  -1.381035e-05  0 
 -7.759782e-06  -1.373722e-05  0 
 -6.960420e-06  -1.359318e-05  0 
 4.021701e-06  -2.902152e-07  0 
 4.906362e-06  1.893510e-09  0 
 5.012999e-06  -5.332876e-08  0 
 -5.130166e-06  -1.281896e-05  0 
 -2.095379e-06  -1.173928e-05  0 
 8.640818e-07  -8.861331e-06  0 
 4.086171e-06  9.601535e-08  0 
 4.973334e-06  -2.795405e-07  0 
 5.068078e-06  -3.117337e-07  0 
 7.053314e-06  -2.505732e-06  0 
 7.357686e-06  -2.233270e-07  0 
 7.057548e-06  2.072531e-06  0 
 -3.342206e-06  4.048390e-06  0 
 -4.020151e-06  7.720649e-06  0 
 -4.884099e-06  1.125545e-05  0 
 6.742462e-07  8.688377e-06  0 
 -2.341768e-06  1.163240e-05  0 
 -5.287002e-06  1.279492e-05  0 
 -9.723906e-06  4.017714e-06  0 
 -9.797061e-06  7.844662e-06  0 
 -9.807174e-06  1.113814e-05  0 
 -6.903786e-06  1.380573e-05  0 
 -7.693244e-06  1.395242e-05  0 
 -8.709727e-06  1.400418e-05  0 
 -8.150604e-06  -3.958368e-06  0 
 -6.556589e-06  -3.975343e-06  0 
 -4.959921e-06  -4.000891e-06  0 
 -8.399530e-06  -7.726285e-06  0 
 -6.988142e-06  -7.714282e-06  0 
 -5.559743e-06  -7.667933e-06  0 
 -8.636424e-06  -1.099637e-05  0 
 -7.448754e-06  -1.103221e-05  0 
 -6.265833e-06  -1.109268e-05  0 
 -1.047347e-06  -2.634823e-06  0 
 1.052803e-06  -1.556985e-06  0 
 2.668789e-06  -8.892190e-07  0 
 -1.463301e-06  -5.583668e-06  0 
 9.602236e-07  -3.579460e-06  0 
 3.075238e-06  -1.668691e-06  0 
 -2.680610e-06  -8.660584e-06  0 
 -1.303288e-07  -5.961577e-06  0 
 2.762119e-06  -3.151501e-06  0 
 3.972879e-06  -2.495193e-07  0 
 3.972660e-06  -9.824430e-08  0 
 4.005610e-06  5.374551e-08  0 
 4.777034e-06  3.492471e-08  0 
 4.793656e-06  -1.400177e-07  0 
 4.809162e-06  -3.145936e-07  0 
 5.935914e-06  -3.408070e-07  0 
 6.219600e-06  -1.822036e-07  0 
 5.965841e-06  -2.368549e-08  0 
 2.739240e-06  7.873473e-07  0 
 1.133008e-06  1.490949e-06  0 
 -9.653480e-07  2.604292e-06  0 
 3.166953e-06  1.487268e-06  0 
 1.070022e-06  3.496295e-06  0 
 -1.359689e-06  5.599514e-06  0 
 2.818436e-06  2.891634e-06  0 
 -8.266456e-08  5.868006e-06  0 
 -2.611618e-06  8.725102e-06  0 
 -4.889207e-06  4.064649e-06  0 
 -6.504372e-06  4.040164e-06  0 
 -8.118040e-06  4.023236e-06  0 
 -5.490525e-06  7.779118e-06  0 
 -6.937459e-06  7.827365e-06  0 
 -8.366922e-06  7.841729e-06  0 
 -6.196340e-06  1.125682e-05  0 
 -7.400368e-06  1.119322e-05  0 
 -8.604842e-06  1.115395e-05  0 
VECTORS displacement_ITER8 FLOAT
 -9.544850e-06  -2.533301e-08  0 
 -9.883762e-06  -1.344115e-05  0 
 -2.365749e-06  6.267063e-08  0 
 2.910057e-06  1.333364e-07  0 
 2.805761e-06  4.549860e-08  0 
 -2.509701e-06  -9.017169e-08  0 
 -9.566656e-06  5.528355e-09  0 
 -7.017998e-06  -1.299864e-05  0 
 6.314769e-06  -5.243766e-06  0 
 6.279279e-06  5.872794e-06  0 
 -7.104541e-06  1.271050e-05  0 
 -9.907392e-06  1.316619e-05  0 
 -9.685492e-06  -4.012458e-06  0 
 -9.748235e-06  -7.681935e-06  0 
 -9.775062e-06  -1.076200e-05  0 
 -7.940134e-06  -7.346077e-09  0 
 -6.274134e-06  4.291561e-08  0 
 -4.467430e-06  9.564783e-08  0 
 -9.076516e-07  -2.665420e-07  0 
 1.729892e-08  -4.744217e-08  0 
 1.279458e-06  7.584471e-08  0 
 3.514048e-06  1.914233e-07  0 
 3.683538e-06  9.014630e-08  0 
 3.460435e-06  -1.193009e-08  0 
 1.223975e-06  2.197056e-07  0 
 1.041191e-07  1.140035e-07  0 
 -9.927053e-07  1.147276e-07  0 
 -4.579821e-06  -1.237830e-07  0 
 -6.353131e-06  -6.899353e-08  0 
 -7.988122e-06  -1.461885e-08  0 
 -3.503773e-06  -4.053434e-06  0 
 -4.257024e-06  -7.558688e-06  0 