# vtk DataFile Version 3.1
this is an vtk file created by FEMAC
ASCII
DATASET UNSTRUCTURED_GRID
POINTS 105 FLOAT
2.500000 0.000000 0.000000
3.000000 0.000000 0.000000
2.500000 0.200000 0.000000
2.500000 0.400000 0.000000
2.500000 0.600000 0.000000
2.500000 0.800000 0.000000
2.500000 1.000000 0.000000
3.000000 0.200000 0.000000
3.000000 0.400000 0.000000
3.000000 0.600000 0.000000
3.000000 0.800000 0.000000
3.000000 1.000000 0.000000
2.625000 0.000000 0.000000
2.750000 0.000000 0.000000
2.875000 0.000000 0.000000
2.500000 0.050000 0.000000
2.500000 0.100000 0.000000
2.500000 0.150000 0.000000
2.500000 0.250000 0.000000
2.500000 0.300000 0.000000
2.500000 0.350000 0.000000
2.500000 0.450000 0.000000
2.500000 0.500000 0.000000
2.500000 0.550000 0.000000
2.500000 0.650000 0.000000
2.500000 0.700000 0.000000
2.500000 0.750000 0.000000
2.500000 0.850000 0.000000
2.500000 0.900000 0.000000
2.500000 0.950000 0.000000
2.625000 0.200000 0.000000
2.750000 0.200000 0.000000
2.875000 0.200000 0.000000
3.000000 0.050000 0.000000
3.000000 0.100000 0.000000
3.000000 0.150000 0.000000
2.625000 0.400000 0.000000
2.750000 0.400000 0.000000
2.875000 0.400000 0.000000
3.000000 0.250000 0.000000
3.000000 0.300000 0.000000
3.000000 0.350000 0.000000
2.625000 0.600000 0.000000
2.750000 0.600000 0.000000
2.875000 0.600000 0.000000
3.000000 0.450000 0.000000
3.000000 0.500000 0.000000
3.000000 0.550000 0.000000
2.625000 0.800000 0.000000
2.750000 0.800000 0.000000
2.875000 0.800000 0.000000
3.000000 0.650000 0.000000
3.000000 0.700000 0.000000
3.000000 0.750000 0.000000
2.625000 1.000000 0.000000
2.750000 1.000000 0.000000
2.875000 1.000000 0.000000
3.000000 0.850000 0.000000
3.000000 0.900000 0.000000
3.000000 0.950000 0.000000
2.625000 0.050000 0.000000
2.625000 0.100000 0.000000
2.625000 0.150000 0.000000
2.750000 0.050000 0.000000
2.750000 0.100000 0.000000
2.750000 0.150000 0.000000
2.875000 0.050000 0.000000
2.875000 0.100000 0.000000
2.875000 0.150000 0.000000
2.625000 0.250000 0.000000
2.625000 0.300000 0.000000
2.625000 0.350000 0.000000
2.750000 0.250000 0.000000
2.750000 0.300000 0.000000
2.750000 0.350000 0.000000
2.875000 0.250000 0.000000
2.875000 0.300000 0.000000
2.875000 0.350000 0.000000
2.625000 0.450000 0.000000
2.625000 0.500000 0.000000
2.625000 0.550000 0.000000
2.750000 0.450000 0.000000
2.750000 0.500000 0.000000
2.750000 0.550000 0.000000
2.875000 0.450000 0.000000
2.875000 0.500000 0.000000
2.875000 0.550000 0.000000
2.625000 0.650000 0.000000
2.625000 0.700000 0.000000
2.625000 0.750000 0.000000
2.750000 0.650000 0.000000
2.750000 0.700000 0.000000
2.750000 0.750000 0.000000
2.875000 0.650000 0.000000
2.875000 0.700000 0.000000
2.875000 0.750000 0.000000
2.625000 0.850000 0.000000
2.625000 0.900000 0.000000
2.625000 0.950000 0.000000
2.750000 0.850000 0.000000
2.750000 0.900000 0.000000
2.750000 0.950000 0.000000
2.875000 0.850000 0.000000
2.875000 0.900000 0.000000
2.875000 0.950000 0.000000
CELLS 80 400 
4 0 12 60 15
4 15 60 61 16
4 16 61 62 17
4 17 62 30  2
4 12 13 63 60
4 60 63 64 61
4 61 64 65 62
4 62 65 31 30
4 13 14 66 63
4 63 66 67 64
4 64 67 68 65
4 65 68 32 31
4 14  1 33 66
4 66 33 34 67
4 67 34 35 68
4 68 35  7 32
4 2 30 69 18
4 18 69 70 19
4 19 70 71 20
4 20 71 36  3
4 30 31 72 69
4 69 72 73 70
4 70 73 74 71
4 71 74 37 36
4 31 32 75 72
4 72 75 76 73
4 73 76 77 74
4 74 77 38 37
4 32  7 39 75
4 75 39 40 76
4 76 40 41 77
4 77 41  8 38
4 3 36 78 21
4 21 78 79 22
4 22 79 80 23
4 23 80 42  4
4 36 37 81 78
4 78 81 82 79
4 79 82 83 80
4 80 83 43 42
4 37 38 84 81
4 81 84 85 82
4 82 85 86 83
4 83 86 44 43
4 38  8 45 84
4 84 45 46 85
4 85 46 47 86
4 86 47  9 44
4 4 42 87 24
4 24 87 88 25
4 25 88 89 26
4 26 89 48  5
4 42 43 90 87
4 87 90 91 88
4 88 91 92 89
4 89 92 49 48
4 43 44 93 90
4 90 93 94 91
4 91 94 95 92
4 92 95 50 49
4 44  9 51 93
4 93 51 52 94
4 94 52 53 95
4 95 53 10 50
4 5 48 96 27
4 27 96 97 28
4 28 97 98 29
4 29 98 54  6
4 48 49 99 96
4 96  99 100  97
4 97 100 101  98
4 98 101  55  54
4 49  50 102  99
4 99 102 103 100
4 100 103 104 101
4 101 104  56  55
4 50  10  57 102
4 102  57  58 103
4 103  58  59 104
4 104  59  11  56
CELL_TYPES 80
9 9 9 9 9 9 9 9 9 9 9 9 9 9 9 9 9 9 9 9 9 9 9 9 9 9 9 9 9 9 9 9 9 9 9 9 9 9 9 9 9 9 9 9 9 9 9 9 9 9 9 9 9 9 9 9 9 9 9 9 9 9 9 9 9 9 9 9 9 9 9 9 9 9 9 9 9 9 9 9 
POINT_DATA 105
VECTORS displacement_ITER1 FLOAT
 -2.674199e-11  -1.867563e-10  0 
 9.303241e-10  1.261482e-11  0 
 4.084763e-11  -2.592298e-10  0 
 -1.684540e-11  -2.562853e-10  0 
 -1.716622e-11  2.581897e-10  0 
 4.075416e-11  2.611445e-10  0 
 -2.685275e-11  1.888325e-10  0 
 5.459688e-11  -1.588371e-10  0 
 -4.818966e-11  -9.890277e-11  0 
 -4.824498e-11  1.010476e-10  0 
 5.415193e-11  1.609675e-10  0 
 9.318933e-10  -7.153217e-12  0 
 -4.362396e-12  -2.211697e-10  0 
 1.346286e-10  -3.046757e-10  0 
 4.316890e-10  -2.255517e-10  0 
 -4.316279e-11  -1.339880e-10  0 
 3.777362e-11  -7.256745e-11  0 
 1.318880e-10  -1.425653e-10  0 
 2.552007e-11  -2.577482e-10  0 
 1.175761e-11  -2.561882e-10  0 
 -2.176925e-12  -2.558577e-10  0 
 -1.031467e-10  -1.412025e-10  0 
 -1.225076e-10  7.240852e-14  0 
 -1.040984e-10  1.423528e-10  0 
 -2.421812e-12  2.577687e-10  0 
 1.155533e-11  2.581093e-10  0 
 2.535301e-11  2.596619e-10  0 
 1.318177e-10  1.438782e-10  0 
 3.786155e-11  7.386149e-11  0 
 -4.409429e-11  1.354057e-10  0 
 3.375968e-11  -2.264235e-10  0 
 3.009186e-11  -2.059501e-10  0 
 3.214742e-11  -1.824064e-10  0 
 7.766093e-10  7.079325e-11  0 
 4.629950e-10  1.313250e-10  0 
 1.218833e-10  2.011643e-11  0 
 -1.184227e-11  -2.205097e-10  0 
 -9.407614e-12  -2.018654e-10  0 
 -2.890636e-11  -1.792802e-10  0 
 3.129594e-11  -1.536965e-10  0 
 4.785670e-12  -1.463437e-10  0 
 -2.424984e-11  -1.246210e-10  0 
 -1.211783e-11  2.222865e-10  0 
 -9.617873e-12  2.035905e-10  0 
 -2.899918e-11  1.811067e-10  0 
 -3.511737e-10  7.450303e-11  0 
 -4.755089e-10  2.817767e-12  0 
 -3.522087e-10  -7.076838e-11  0 
 3.362382e-11  2.282190e-10  0 
 2.991481e-11  2.076878e-10  0 
 3.180709e-11  1.841359e-10  0 
 -2.421291e-11  1.266346e-10  0 
 4.606742e-12  1.481038e-10  0 
 3.082642e-11  1.556308e-10  0 
 -4.784606e-12  2.228220e-10  0 
 1.350712e-10  3.070041e-10  0 
 4.335040e-10  2.258633e-10  0 
 1.195129e-10  -2.076484e-11  0 
 4.648650e-10  -1.335905e-10  0 
 7.820171e-10  -6.994294e-11  0 
 3.187022e-11  -2.366778e-10  0 
 4.990306e-11  -2.562680e-10  0 
 4.655735e-11  -2.407654e-10  0 
 1.322190e-10  -2.951790e-10  0 
 1.118027e-10  -2.727776e-10  0 
 7.672877e-11  -2.494064e-10  0 
 3.432082e-10  -2.429595e-10  0 
 2.386320e-10  -2.609296e-10  0 
 1.376257e-10  -2.266048e-10  0 
 2.236660e-11  -2.269301e-10  0 
 1.076327e-11  -2.261901e-10  0 
 -3.344033e-13  -2.239236e-10  0 
 1.986052e-11  -2.044967e-10  0 
 8.865889e-12  -2.042048e-10  0 
 -2.187615e-12  -2.038163e-10  0 
 2.178259e-11  -1.822361e-10  0 
 8.937259e-12  -1.793743e-10  0 
 -6.621495e-12  -1.777502e-10  0 
 -2.504913e-11  -1.028163e-10  0 
 -3.616998e-11  9.744859e-13  0 
 -2.519369e-11  1.045707e-10  0 
 -2.125685e-11  -9.813793e-11  0 
 -1.745354e-11  9.068169e-13  0 
 -2.133286e-11  9.991292e-11  0 
 -7.204573e-11  -1.315142e-10  0 
 -1.003897e-10  8.941446e-13  0 
 -7.217286e-11  1.335651e-10  0 
 -5.777353e-13  2.257066e-10  0 
 1.055837e-11  2.279788e-10  0 
 2.220250e-11  2.287258e-10  0 
 -2.391473e-12  2.055484e-10  0 
 8.654227e-12  2.059398e-10  0 
 1.964555e-11  2.062294e-10  0 
 -6.831852e-12  1.795499e-10  0 
 8.709110e-12  1.811686e-10  0 
 2.155467e-11  1.839970e-10  0 
 4.647923e-11  2.426310e-10  0 
 4.970052e-11  2.582004e-10  0 
 3.177556e-11  2.385757e-10  0 
 7.672198e-11  2.513556e-10  0 
 1.119324e-10  2.746894e-10  0 
 1.324133e-10  2.972277e-10  0 
 1.380528e-10  2.286654e-10  0 
 2.394816e-10  2.634419e-10  0 
 3.444180e-10  2.445443e-10  0 
VECTORS displacement_ITER2 FLOAT
 -7.923074e-11  -2.079793e-11  0 
 1.616864e-09  6.357114e-10  0 
 -5.187743e-11  -1.833599e-11  0 
 -7.362348e-11  8.393153e-13  0 
 -7.193477e-11  -4.556299e-12  0 
 -5.113004e-11  1.455227e-11  0 
 -7.866517e-11  1.699016e-11  0 
 1.153267e-10  3.703581e-10  0 
 -3.004104e-10  3.680760e-10  0 
 -2.982384e-10  -3.699633e-10  0 
 1.164640e-10  -3.719637e-10  0 
 1.610806e-09  -6.457627e-10  0 
 6.635483e-11  -1.017021e-10  0 
 2.759167e-10  -4.072675e-11  0 
 7.251317e-10  8.709724e-12  0 
 -1.186723e-11  -1.166007e-10  0 
 -1.554969e-10  -2.035622e-10  0 
 -2.754186e-10  -4.770189e-11  0 
 -5.727961e-11  -2.257459e-11  0 
 -6.376363e-11  -2.190955e-11  0 
 -6.963878e-11  -1.316676e-11  0 
 2.376118e-10  1.791181e-10  0 
 3.686201e-10  4.408743e-13  0 
 2.403044e-10  -1.805031e-10  0 
 -6.820990e-11  9.406116e-12  0 
 -6.254324e-11  1.809461e-11  0 
 -5.625896e-11  1.877599e-11  0 
 -2.756520e-10  4.439276e-11  0 
 -1.558412e-10  2.011037e-10  0 
 -1.057869e-11  1.139878e-10  0 
 -4.156651e-11  -1.511753e-11  0 
 5.896173e-12  3.436076e-11  0 
 6.899367e-11  1.593368e-10  0 
 1.151093e-09  4.768587e-10  0 
 1.007829e-09  2.964543e-10  0 
 8.364184e-10  4.451688e-10  0 
 -8.293476e-11  -1.237544e-11  0 
 -1.363102e-10  3.729597e-11  0 
 -2.049348e-10  1.483720e-10  0 
 3.248050e-12  3.798295e-10  0 
 -7.762020e-11  3.831579e-10  0 
 -1.646457e-10  3.666399e-10  0 
 -8.125118e-11  9.219365e-12  0 
 -1.345862e-10  -3.988543e-11  0 
 -2.031608e-10  -1.505802e-10  0 
 -5.115254e-10  -6.905431e-11  0 
 -4.213566e-10  -7.518717e-12  0 
 -5.071895e-10  5.924517e-11  0 
 -4.078793e-11  1.189550e-11  0 
 6.661670e-12  -3.700130e-11  0 
 6.993859e-11  -1.612495e-10  0 
 -1.632862e-10  -3.681953e-10  0 
 -7.623028e-11  -3.841361e-10  0 
 4.882633e-12  -3.811255e-10  0 
 6.665484e-11  9.832492e-11  0 
 2.738454e-10  3.666170e-11  0 
 7.192088e-10  -7.422214e-12  0 
 8.402401e-10  -4.412113e-10  0 
 1.001217e-09  -2.879597e-10  0 
 1.135469e-09  -4.771760e-10  0 
 3.941967e-11  -7.004576e-11  0 
 2.154191e-11  -3.323965e-11  0 
 8.853772e-12  -6.036029e-11  0 
 2.450783e-10  -5.326570e-11  0 
 1.830062e-10  -5.773261e-11  0 
 1.039769e-10  -4.328854e-12  0 
 6.272299e-10  5.831371e-11  0 
 4.530864e-10  1.162394e-10  0 
 2.320464e-10  7.885064e-11  0 
 -5.105137e-11  -1.201358e-11  0 
 -6.477840e-11  -9.951861e-12  0 
 -7.735679e-11  -9.571852e-12  0 
 -3.094416e-11  3.484143e-11  0 
 -6.705004e-11  3.527117e-11  0 
 -1.019897e-10  3.578335e-11  0 
 -1.833871e-13  1.612300e-10  0 
 -7.423910e-11  1.605858e-10  0 
 -1.454109e-10  1.565906e-10  0 
 -6.443394e-11  -6.154541e-11  0 
 -3.860658e-11  -1.687026e-12  0 
 -6.355045e-11  5.853666e-11  0 
 -1.669536e-10  1.756029e-11  0 
 -1.859800e-10  -1.301032e-12  0 
 -1.661739e-10  -2.014559e-11  0 
 -2.354297e-10  1.109171e-10  0 
 -2.554494e-10  -1.077400e-12  0 
 -2.341395e-10  -1.135664e-10  0 
 -7.588176e-11  6.398919e-12  0 
 -6.353804e-11  6.761738e-12  0 
 -5.005595e-11  8.799896e-12  0 
 -1.004788e-10  -3.839759e-11  0 
 -6.574144e-11  -3.790189e-11  0 
 -2.986472e-11  -3.747288e-11  0 
 -1.436714e-10  -1.587036e-10  0 
 -7.279931e-11  -1.626385e-10  0 
 8.997634e-13  -1.631900e-10  0 
 9.218495e-12  5.703817e-11  0 
 2.169507e-11  2.949226e-11  0 
 3.929930e-11  6.628620e-11  0 
 1.039391e-10  1.118381e-12  0 
 1.823946e-10  5.465213e-11  0 
 2.438986e-10  4.976885e-11  0 
 2.306927e-10  -8.158441e-11  0 
 4.500847e-10  -1.202738e-10  0 
 6.230990e-10  -5.980157e-11  0 
VECTORS displacement_ITER3 FLOAT
 -4.407541e-11  -5.534386e-11  0 
 6.468456e-10  -3.192878e-11  0 
 -2.509657e-11  3.703159e-11  0 
 4.028828e-11  5.743155e-11  0 
 3.744738e-11  -5.500860e-11  0 
 -2.645946e-11  -3.442008e-11  0 
 -4.510470e-11  5.551841e-11  0 
 6.818530e-11  8.397979e-11  0 
 -8.567636e-11  1.418919e-11  0 
 -8.928051e-11  -1.546785e-11  0 
 6.667566e-11  -8.552768e-11  0 
 6.502176e-10  3.965151e-11  0 
 -1.732901e-12  -4.574891e-11  0 
 9.797037e-11  -8.004919e-11  0 
 3.088228e-10  -1.482890e-11  0 
 -7.028600e-11  -1.277684e-11  0 
 1.674429e-11  -1.346786e-11  0 
 8.323022e-12  -1.133874e-10  0 
 -1.015390e-11  3.786304e-11  0 
 3.103715e-12  4.064876e-11  0 
 1.899384e-11  4.563001e-11  0 
 -1.282555e-11  -1.908244e-10  0 
 -1.742800e-10  -1.744090e-12  0 
 -1.607454e-11  1.894662e-10  0 
 1.654535e-11  -4.313732e-11  0 
 1.006448e-12  -3.807881e-11  0 
 -1.190780e-11  -3.526908e-11  0 
 9.310565e-12  1.170879e-10  0 
 1.840505e-11  1.517240e-11  0 
 -6.933405e-11  1.324235e-11  0 
 -1.854285e-11  1.554155e-13  0 
 4.900048e-13  -2.202942e-11  0 
 3.729333e-11  -6.794721e-12  0 
 6.570153e-10  7.699300e-11  0 
 4.523981e-10  1.545579e-10  0 
 2.900589e-10  4.590041e-12  0 
 2.744397e-11  -6.055218e-13  0 
 1.955827e-12  -1.525158e-11  0 
 -2.355167e-11  -5.828250e-13  0 
 2.989441e-11  7.382893e-11  0 
 -1.417515e-11  5.597361e-11  0 
 -4.818207e-11  4.745491e-11  0 
 2.467290e-11  2.175863e-12  0 
 -8.794838e-13  1.595692e-11  0 
 -2.666243e-11  4.804507e-13  0 
 3.694440e-10  -1.648223e-10  0 
 4.079911e-10  8.106413e-12  0 
 3.623034e-10  1.752111e-10  0 
 -1.988095e-11  1.507091e-12  0 
 -8.115507e-13  2.276701e-11  0 
 3.596910e-11  6.371489e-12  0 
 -5.084129e-11  -4.891858e-11  0 
 -1.648178e-11  -5.778635e-11  0 
 2.777160e-11  -7.549827e-11  0 
 -1.202199e-12  4.831977e-11  0 
 1.007197e-10  8.165746e-11  0 
 3.143443e-10  1.084720e-11  0 
 2.887823e-10  -1.146932e-11  0 
 4.602952e-10  -1.647039e-10  0 
 6.712966e-10  -7.676025e-11  0 
 1.604630e-11  -5.938242e-11  0 
 7.754300e-12  -5.459444e-11  0 
 -5.244396e-12  -5.559558e-12  0 
 8.556062e-11  -6.833990e-11  0 
 6.494564e-11  -5.442997e-11  0 
 3.897367e-11  -5.107635e-11  0 
 2.614001e-10  -4.579793e-11  0 
 2.007073e-10  -6.740936e-11  0 
 1.127536e-10  -2.302728e-11  0 
 -7.231303e-12  1.265276e-12  0 
 3.581554e-12  2.000466e-12  0 
 1.415279e-11  1.780847e-12  0 
 2.516672e-12  -2.092688e-11  0 
 2.428802e-12  -1.892835e-11  0 
 3.354168e-12  -1.611747e-11  0 
 1.350211e-11  -5.460508e-12  0 
 -4.139687e-12  -4.885199e-12  0 
 -1.928411e-11  -6.855395e-12  0 
 -2.689399e-13  4.870990e-11  0 
 8.217152e-13  7.931592e-13  0 
 -1.783746e-12  -4.731339e-11  0 
 5.556552e-12  -1.554921e-11  0 
 -6.975252e-12  3.287462e-13  0 
 4.215470e-12  1.617612e-11  0 
 -7.268700e-12  5.956061e-11  0 
 4.732409e-11  -1.493161e-13  0 
 -9.198213e-12  -5.934659e-11  0 
 1.170267e-11  -1.839955e-13  0 
 1.488865e-12  -3.720958e-13  0 
 -8.944613e-12  3.912917e-13  0 
 8.437453e-13  1.684403e-11  0 
 2.787620e-13  1.966177e-11  0 
 7.662583e-13  2.165850e-11  0 
 -2.206714e-11  6.633094e-12  0 
 -6.431230e-12  4.575696e-12  0 
 1.174427e-11  5.067833e-12  0 
 -5.750113e-12  7.003943e-12  0 
 8.099697e-12  5.669486e-11  0 
 1.666700e-11  6.185567e-11  0 
 3.869213e-11  5.219394e-11  0 
 6.532332e-11  5.533797e-11  0 
 8.693362e-11  6.962010e-11  0 
 1.137525e-10  2.341236e-11  0 
 2.036822e-10  6.858185e-11  0 
 2.653848e-10  4.402791e-11  0 
VECTORS displacement_ITER4 FLOAT
 -3.106131e-11  -3.748006e-11  0 
 4.936400e-10  -8.959707e-11  0 
 -2.032237e-11  -1.755513e-11  0 
 3.565429e-11  5.225741e-12  0 
 3.921610e-11  -7.111217e-12  0 
 -1.833380e-11  1.540930e-11  0 
 -2.992743e-11  3.943793e-11  0 
 7.810587e-11  1.456617e-11  0 
 -6.856584e-11  -3.172353e-11  0 
 -6.439966e-11  3.372494e-11  0 
 8.018805e-11  -1.226028e-11  0 
 4.927901e-10  8.195184e-11  0 
 -2.564718e-11  -6.368757e-11  0 
 1.341235e-11  -1.005408e-10  0 
 1.388652e-10  -1.707349e-10  0 
 -2.699163e-11  -4.974984e-11  0 
 -3.847605e-11  -2.885720e-11  0 
 2.356384e-11  -1.270428e-11  0 
 -9.117281e-12  -1.627163e-11  0 
 2.312227e-12  -1.249354e-11  0 
 1.538499e-11  -5.784939e-12  0 
 1.262532e-11  5.961272e-11  0 
 1.284736e-10  3.115976e-12  0 
 1.691524e-11  -5.609543e-11  0 
 1.853456e-11  3.834025e-12  0 
 5.076297e-12  1.047272e-11  0 
 -6.727685e-12  1.418961e-11  0 
 2.296389e-11  7.744154e-12  0 
 -4.177390e-11  2.568365e-11  0 
 -2.986758e-11  4.988068e-11  0 
 -1.702900e-11  -4.742576e-11  0 
 -1.524766e-12  -7.157733e-11  0 
 3.298722e-11  -6.672673e-11  0 
 3.699508e-10  -1.348147e-10  0 
 3.183775e-10  -1.579796e-10  0 
 1.905763e-10  -1.292298e-10  0 
 2.791919e-11  -4.826998e-11  0 
 6.255026e-12  -6.836599e-11  0 
 -2.177767e-11  -5.660800e-11  0 
 3.019363e-11  4.409540e-12  0 
 -4.225469e-12  -2.747865e-12  0 
 -3.669370e-11  -1.217376e-11  0 
 3.135600e-11  4.730698e-11  0 
 9.691579e-12  6.825146e-11  0 
 -1.802382e-11  5.734625e-11  0 
 -9.925094e-11  2.507368e-10  0 
 -2.625524e-10  -7.416570e-12  0 
 -9.058235e-11  -2.591021e-10  0 
 -1.509805e-11  4.633673e-11  0 
 3.824111e-13  7.143932e-11  0 
 3.487603e-11  6.775532e-11  0 
 -3.324018e-11  1.426526e-11  0 
 -1.266962e-12  4.998966e-12  0 
 3.276301e-11  -2.123446e-12  0 
 -2.687722e-11  6.073511e-11  0 
 1.028207e-11  1.000093e-10  0 
 1.339952e-10  1.761332e-10  0 
 1.909112e-10  1.391252e-10  0 
 3.093554e-10  1.683589e-10  0 
 3.574064e-10  1.343000e-10  0 
 -1.754317e-11  -5.966490e-11  0 
 -9.323216e-12  -6.451769e-11  0 
 -1.946336e-11  -5.996659e-11  0 
 2.989742e-11  -1.030492e-10  0 
 3.254745e-11  -9.659744e-11  0 
 2.029998e-11  -8.708875e-11  0 
 1.461411e-10  -1.525752e-10  0 
 1.187773e-10  -1.300491e-10  0 
 9.225478e-11  -9.861033e-11  0 
 -6.573942e-12  -4.713795e-11  0 
 3.410024e-12  -4.686497e-11  0 
 1.436102e-11  -4.705030e-11  0 
 2.263916e-12  -7.138761e-11  0 
 4.076468e-12  -7.031095e-11  0 
 5.631443e-12  -6.882083e-11  0 
 1.671367e-11  -6.295351e-11  0 
 9.216092e-14  -6.144122e-11  0 
 -1.385385e-11  -6.088706e-11  0 
 5.016701e-11  -3.716419e-11  0 
 3.625833e-11  -4.883905e-13  0 
 5.206027e-11  3.638596e-11  0 
 7.144042e-12  -2.668951e-11  0 
 1.411254e-11  -6.212343e-14  0 
 8.789723e-12  2.668205e-11  0 
 -6.583752e-11  -8.150287e-11  0 
 -7.315946e-11  6.958130e-13  0 
 -6.382235e-11  8.198789e-11  0 
 1.746059e-11  4.604549e-11  0 
 6.143045e-12  4.581410e-11  0 
 -4.233559e-12  4.605417e-11  0 
 8.763433e-12  6.869512e-11  0 
 6.838505e-12  7.018371e-11  0 
 4.611497e-12  7.125940e-11  0 
 -1.050190e-11  6.172494e-11  0 
 2.982329e-12  6.236504e-11  0 
 1.910617e-11  6.394658e-11  0 
 -1.878593e-11  5.925965e-11  0 
 -9.832977e-12  6.308788e-11  0 
 -1.864492e-11  5.723218e-11  0 
 2.110372e-11  8.678502e-11  0 
 3.256711e-11  9.646064e-11  0 
 2.864661e-11  1.027085e-10  0 
 9.168873e-11  9.866373e-11  0 
 1.161460e-10  1.302907e-10  0 
 1.424254e-10  1.559273e-10  0 
VECTORS displacement_ITER5 FLOAT
 -8.045516e-11  -3.088015e-10  0 
 1.923638e-09  -2.417644e-10  0 
 2.676630e-11  -4.084630e-10  0 
 3.893206e-11  -3.867782e-10  0 
 3.041571e-11  3.943515e-10  0 
 2.148103e-11  4.166085e-10  0 
 -8.374256e-11  3.072036e-10  0 
 1.266360e-10  -3.851284e-10  0 
 -9.458546e-11  -3.402681e-10  0 
 -1.038869e-10  3.410210e-10  0 
 1.206992e-10  3.850813e-10  0 
 1.927112e-09  2.650688e-10  0 
 -6.154401e-11  -4.449383e-10  0 
 1.771591e-10  -6.320937e-10  0 
 7.837293e-10  -5.758159e-10  0 
 -5.473138e-11  -2.473626e-10  0 
 5.851448e-11  -2.035686e-10  0 
 1.393851e-10  -2.567746e-10  0 
 2.592556e-11  -4.047767e-10  0 
 2.803707e-11  -3.996798e-10  0 
 3.175815e-11  -3.930719e-10  0 
 -1.201983e-10  -2.486293e-10  0 
 -2.328302e-10  -6.806646e-12  0 
 -1.318193e-10  2.430648e-10  0 
 2.412916e-11  4.007945e-10  0 
 2.118891e-11  4.075585e-10  0 
 1.981220e-11  4.127745e-10  0 
 1.389752e-10  2.723373e-10  0 
 6.679977e-11  2.161189e-10  0 
 -4.791493e-11  2.503320e-10  0 
 1.683791e-11  -4.178791e-10  0 
 2.125318e-11  -4.442886e-10  0 
 4.845699e-11  -4.470200e-10  0 
 1.637795e-09  -1.103229e-10  0 
 1.005732e-09  2.113205e-11  0 
 3.102372e-10  -9.342146e-11  0 
 4.061588e-11  -4.077594e-10  0 
 3.076423e-11  -4.308398e-10  0 
 -1.844182e-11  -4.326135e-10  0 
 5.752103e-11  -3.831142e-10  0 
 7.566867e-12  -3.792054e-10  0 
 -4.460699e-11  -3.628141e-10  0 
 3.245941e-11  4.134390e-10  0 
 2.274531e-11  4.349359e-10  0 
 -2.693791e-11  4.352924e-10  0 
 -5.252876e-10  -1.839045e-10  0 
 -3.971988e-10  1.877772e-11  0 
 -5.437193e-10  2.055972e-10  0 
 1.165677e-11  4.238934e-10  0 
 1.607280e-11  4.484528e-10  0 
 4.309699e-11  4.489955e-10  0 
 -5.256038e-11  3.632654e-10  0 
 3.447608e-13  3.791240e-10  0 
 5.073987e-11  3.830295e-10  0 
 -5.920035e-11  4.560182e-10  0 
 1.842409e-10  6.376656e-10  0 
 7.961077e-10  5.660281e-10  0 
 3.060786e-10  7.142361e-11  0 
 1.027705e-09  -4.474435e-11  0 
 1.670213e-09  1.131423e-10  0 
 9.204210e-12  -4.614530e-10  0 
 4.195492e-11  -4.704386e-10  0 
 4.330403e-11  -4.489696e-10  0 
 1.935179e-10  -6.151860e-10  0 
 1.702523e-10  -5.790166e-10  0 
 1.101309e-10  -5.299259e-10  0 
 6.531541e-10  -6.095375e-10  0 
 4.730366e-10  -6.295590e-10  0 
 2.757000e-10  -5.561839e-10  0 
 2.265336e-11  -4.180459e-10  0 
 2.757376e-11  -4.161536e-10  0 
 3.372635e-11  -4.126274e-10  0 
 2.399921e-11  -4.415860e-10  0 
 2.490722e-11  -4.395589e-10  0 
 2.538227e-11  -4.361882e-10  0 
 3.757537e-11  -4.439388e-10  0 
 1.937715e-11  -4.377138e-10  0 
 1.223695e-12  -4.337520e-10  0 
 2.441734e-11  -1.771885e-10  0 
 1.693648e-11  3.069990e-12  0 
 1.999899e-11  1.824286e-10  0 
 1.773606e-11  -2.199116e-10  0 
 2.836151e-11  2.111215e-12  0 
 1.392899e-11  2.238656e-10  0 
 -3.486298e-11  -2.253251e-10  0 
 -1.086156e-10  5.953568e-13  0 
 -3.950934e-11  2.288465e-10  0 
 2.622841e-11  4.184143e-10  0 
 2.080218e-11  4.220566e-10  0 
 1.666435e-11  4.240383e-10  0 
 1.789736e-11  4.403077e-10  0 
 1.808669e-11  4.436873e-10  0 
 1.794898e-11  4.457209e-10  0 
 -6.677416e-12  4.362145e-10  0 
 1.227069e-11  4.399861e-10  0 
 3.136716e-11  4.460273e-10  0 
 4.129993e-11  4.541823e-10  0 
 4.252510e-11  4.772793e-10  0 
 1.143352e-11  4.712673e-10  0 
 1.075720e-10  5.346124e-10  0 
 1.696865e-10  5.834492e-10  0 
 1.959394e-10  6.200940e-10  0 
 2.766730e-10  5.606578e-10  0 
 4.790098e-10  6.334176e-10  0 
 6.622809e-10  6.055754e-10  0 
VECTORS displacement_ITER6 FLOAT
 -1.204075e-10  -1.836086e-10  0 
 2.281798e-09  2.815148e-10  0 
 -6.298912e-11  -2.012163e-10  0 
 -2.997710e-11  -1.628992e-10  0 
 -2.200110e-11  1.585575e-10  0 
 -5.756729e-11  1.963506e-10  0 
 -1.174203e-10  1.880091e-10  0 
 1.915915e-10  1.096471e-10  0 
 -3.486672e-10  1.317212e-10  0 
 -3.398458e-10  -1.304448e-10  0 
 1.974329e-10  -1.076652e-10  0 
 2.278164e-09  -2.991596e-10  0 
 -2.706083e-11  -2.928518e-10  0 
 2.453567e-10  -3.610859e-10  0 
 8.910838e-10  -3.953106e-10  0 
 -8.151848e-11  -2.215652e-10  0 
 -1.476961e-10  -2.517983e-10  0 
 -2.205268e-10  -1.506500e-10  0 
 -5.781321e-11  -2.023973e-10  0 
 -5.155517e-11  -1.975195e-10  0 
 -4.265006e-11  -1.831993e-10  0 
 2.077791e-10  9.598618e-11  0 
 2.878070e-10  7.692390e-12  0 
 2.187822e-10  -8.842364e-11  0 
 -3.539297e-11  1.787123e-10  0 
 -4.491754e-11  1.928835e-10  0 
 -5.175468e-11  1.976602e-10  0 
 -2.193072e-10  1.372062e-10  0 
 -1.557985e-10  2.407127e-10  0 
 -8.973180e-11  2.207810e-10  0 
 -5.810653e-11  -2.308396e-10  0 
 -5.458032e-12  -2.259333e-10  0 
 8.355820e-11  -1.277141e-10  0 
 1.681491e-09  1.466737e-10  0 
 1.323880e-09  -7.411741e-12  0 
 9.737383e-10  1.639553e-10  0 
 -3.722493e-11  -2.242163e-10  0 
 -9.979247e-11  -2.173101e-10  0 
 -2.030771e-10  -1.283819e-10  0 
 3.994616e-11  1.226046e-10  0 
 -7.137466e-11  1.247919e-10  0 
 -1.860357e-10  1.193463e-10  0 
 -2.955922e-11  2.213780e-10  0 
 -9.222860e-11  2.157455e-10  0 
 -1.950735e-10  1.279804e-10  0 
 -9.018705e-10  -7.491916e-11  0 
 -9.347503e-10  -1.507897e-11  0 
 -8.870489e-10  5.738312e-11  0 
 -5.284815e-11  2.276699e-10  0 
 -2.481148e-13  2.243126e-10  0 
 8.891625e-11  1.279333e-10  0 
 -1.784551e-10  -1.178022e-10  0 
 -6.441312e-11  -1.227916e-10  0 
 4.654806e-11  -1.206232e-10  0 
 -2.966686e-11  2.842171e-10  0 
 2.392784e-10  3.582118e-10  0 
 8.803531e-10  4.058221e-10  0 
 9.783350e-10  -1.432349e-10  0 
 1.305090e-09  3.088327e-11  0 
 1.652617e-09  -1.469583e-10  0 
 -1.148591e-11  -2.787070e-10  0 
 -7.118839e-12  -2.600618e-10  0 
 -6.748240e-12  -2.783191e-10  0 
 2.501588e-10  -3.673404e-10  0 
 2.017380e-10  -3.610870e-10  0 
 1.151056e-10  -2.944225e-10  0 
 7.930466e-10  -3.449214e-10  0 
 5.922463e-10  -2.657322e-10  0 
 3.212185e-10  -2.573118e-10  0 
 -5.272886e-11  -2.283875e-10  0 
 -5.184722e-11  -2.256544e-10  0 
 -4.881785e-11  -2.235890e-10  0 
 -2.907815e-11  -2.244727e-10  0 
 -5.417908e-11  -2.235962e-10  0 
 -7.862997e-11  -2.215581e-10  0 
 1.514052e-11  -1.239395e-10  0 
 -6.254533e-11  -1.197444e-10  0 
 -1.382559e-10  -1.214440e-10  0 
 -1.473432e-11  -1.573112e-10  0 
 1.577246e-11  -1.675820e-12  0 
 -1.061659e-11  1.549270e-10  0 
 -1.247670e-10  -1.076261e-10  0 
 -1.342926e-10  -7.802532e-13  0 
 -1.211695e-10  1.061552e-10  0 
 -2.674930e-10  -7.240822e-11  0 
 -3.132981e-10  2.351211e-13  0 
 -2.629377e-10  7.130144e-11  0 
 -4.167349e-11  2.206521e-10  0 
 -4.528951e-11  2.226088e-10  0 
 -4.680689e-11  2.252510e-10  0 
 -7.149484e-11  2.199726e-10  0 
 -4.758679e-11  2.220005e-10  0 
 -2.312951e-11  2.228719e-10  0 
 -1.307338e-10  1.212340e-10  0 
 -5.570205e-11  1.197092e-10  0 
 2.121574e-11  1.240694e-10  0 
 -4.649824e-12  2.759710e-10  0 
 -7.673015e-12  2.561932e-10  0 
 -1.361189e-11  2.716064e-10  0 
 1.178575e-10  2.923054e-10  0 
 2.026581e-10  3.591825e-10  0 
 2.483053e-10  3.649853e-10  0 
 3.209077e-10  2.554697e-10  0 
 5.874197e-10  2.641474e-10  0 
 7.853368e-10  3.504116e-10  0 
VECTORS displacement_ITER7 FLOAT
 -1.231388e-10  -1.848809e-10  0 
 1.853274e-09  -1.466634e-11  0 
 -7.770302e-11  -1.240116e-10  0 
 3.997428e-11  -7.196392e-11  0 
 2.967563e-11  7.590615e-11  0 
 -8.507615e-11  1.286819e-10  0 
 -1.270096e-10  1.752834e-10  0 
 1.922595e-10  7.896818e-12  0 
 -3.017815e-10  -1.752584e-11  0 
 -3.127850e-10  1.513092e-11  0 
 1.846084e-10  -1.113897e-11  0 
 1.853252e-09  3.395237e-11  0 
 -5.883604e-11  -2.715062e-10  0 
 1.933568e-10  -3.718707e-10  0 
 7.720685e-10  -3.190590e-10  0 
 -1.221425e-10  -1.700384e-10  0 
 -6.884616e-11  -1.696245e-10  0 
 -8.205071e-11  -2.457255e-10  0 
 -5.282412e-11  -1.218539e-10  0 
 -2.770315e-11  -1.138863e-10  0 
 2.026518e-12  -9.924932e-11  0 
 8.994559e-11  -1.711498e-10  0 
 -5.410673e-12  -1.071342e-11  0 
 7.609437e-11  1.594011e-10  0 
 -7.434165e-12  1.033723e-10  0 
 -3.644253e-11  1.181870e-10  0 
 -6.089164e-11  1.263192e-10  0 
 -8.416840e-11  2.638364e-10  0 
 -5.701361e-11  1.851513e-10  0 
 -1.082543e-10  1.697457e-10  0 
 -7.189446e-11  -1.977765e-10  0 
 -2.327273e-11  -2.449584e-10  0 
 7.093456e-11  -1.987966e-10  0 
 1.573717e-09  6.012953e-11  0 
 1.142280e-09  1.172905e-10  0 
 7.453376e-10  -3.741035e-11  0 
 2.665381e-11  -1.941867e-10  0 
 -3.473736e-11  -2.336476e-10  0 
 -1.307613e-10  -1.928496e-10  0 
 6.322666e-11  1.068262e-11  0 
 -5.207892e-11  -1.783536e-14  0 
 -1.590698e-10  -1.291449e-13  0 
 1.683461e-11  1.964268e-10  0 
 -4.435041e-11  2.345297e-10  0 
 -1.409045e-10  1.924318e-10  0 
 -2.017233e-10  -2.046924e-10  0 
 -3.322669e-10  1.628454e-11  0 
 -2.193142e-10  2.244057e-10  0 
 -7.899577e-11  2.004558e-10  0 
 -3.031057e-11  2.458803e-10  0 
 6.380188e-11  1.977053e-10  0 
 -1.688618e-10  -2.481040e-12  0 
 -6.107250e-11  -2.945229e-12  0 
 5.481021e-11  -1.377568e-11  0 
 -5.466170e-11  2.823049e-10  0 
 2.001818e-10  3.735788e-10  0 
 7.822627e-10  3.058992e-10  0 
 7.407239e-10  1.328771e-11  0 
 1.162713e-09  -1.435932e-10  0 
 1.603102e-09  -5.869911e-11  0 
 -2.011248e-11  -2.762806e-10  0 
 -1.689705e-11  -2.693800e-10  0 
 -3.426147e-11  -2.242677e-10  0 
 1.881136e-10  -3.626544e-10  0 
 1.469443e-10  -3.404012e-10  0 
 7.804597e-11  -3.089680e-10  0 
 6.691278e-10  -3.336310e-10  0 
 4.985052e-10  -3.335468e-10  0 
 2.741767e-10  -2.682792e-10  0 
 -4.804613e-11  -1.957584e-10  0 
 -2.699930e-11  -1.933549e-10  0 
 -4.360205e-12  -1.916565e-10  0 
 -2.442410e-11  -2.432189e-10  0 
 -2.905383e-11  -2.415443e-10  0 
 -3.216427e-11  -2.378142e-10  0 
 1.762157e-11  -1.963953e-10  0 
 -3.800351e-11  -1.926327e-10  0 
 -9.274730e-11  -1.953617e-10  0 
 1.704984e-11  -7.180537e-11  0 
 2.532245e-11  1.403592e-12  0 
 1.173490e-11  7.348593e-11  0 
 -4.207333e-11  -1.217960e-10  0 
 -6.158331e-11  4.269040e-13  0 
 -4.668827e-11  1.226046e-10  0 
 -1.734471e-10  -5.842214e-11  0 
 -1.338489e-10  -6.346419e-13  0 
 -1.790546e-10  5.864446e-11  0 
 -1.360614e-11  1.940268e-10  0 
 -3.559358e-11  1.958713e-10  0 
 -5.592585e-11  1.983918e-10  0 
 -4.133733e-11  2.387116e-10  0 
 -3.762640e-11  2.424463e-10  0 
 -3.227164e-11  2.441249e-10  0 
 -1.022979e-10  1.947348e-10  0 
 -4.682148e-11  1.918052e-10  0 
 9.628618e-12  1.953948e-10  0 
 -3.702760e-11  2.256042e-10  0 
 -1.587337e-11  2.725643e-10  0 
 -1.703532e-11  2.843307e-10  0 
 7.393874e-11  3.102201e-10  0 
 1.449531e-10  3.413975e-10  0 
 1.896056e-10  3.640348e-10  0 
 2.732768e-10  2.693611e-10  0 
 5.027347e-10  3.338664e-10  0 
 6.763795e-10  3.256957e-10  0 
VECTORS displacement_ITER8 FLOAT
 -1.148694e-10  -2.357105e-10  0 
 1.969866e-09  3.949179e-11  0 
 -4.912490e-11  -2.512260e-10  0 
 3.346467e-11  -1.849797e-10  0 
 4.973184e-11  1.822109e-10  0 
 -3.693981e-11  2.472967e-10  0 
 -1.089976e-10  2.561168e-10  0 
 2.659902e-10  -2.195299e-11  0 
 -3.455804e-10  -3.684595e-11  0 
 -3.284493e-10  4.301747e-11  0 
 2.783239e-10  2.943082e-11  0 
 1.974020e-09  -6.438554e-11  0 
 -5.498976e-11  -3.432136e-10  0 
 2.239167e-10  -4.590175e-10  0 
 8.328312e-10  -4.191805e-10  0 
 -1.114543e-10  -2.189452e-10  0 
 -7.248777e-11  -1.732800e-10  0 
 5.253398e-11  -2.071117e-10  0 
 -3.645024e-11  -2.474187e-10  0 
 -2.063398e-11  -2.364704e-10  0 
 -5.799272e-13  -2.172189e-10  0 
 -2.634996e-11  -8.462552e-11  0 
 8.078193e-11  1.884902e-11  0 
 -4.334299e-12  1.072881e-10  0 
 1.450609e-11  2.141868e-10  0 
 -6.578349e-12  2.331910e-10  0 
 -2.333949e-11  2.438529e-10  0 
 5.722165e-11  1.792632e-10  0 
 -9.288427e-11  1.481625e-10  0 
 -1.367693e-10  2.217991e-10  0 
 -4.924748e-11  -2.997727e-10  0 
 -2.037196e-12  -3.350680e-10  0 
 1.029425e-10  -2.740316e-10  0 
 1.592634e-09  2.731518e-11  0 
 1.227522e-09  3.195781e-11  0 
 7.096644e-10  -4.978307e-11  0 