# vtk DataFile Version 3.1
this is an vtk file created by FEMAC
ASCII
DATASET UNSTRUCTURED_GRID
POINTS 105 FLOAT
4.000000 0.000000 0.000000
4.500000 0.000000 0.000000
4.000000 0.200000 0.000000
4.000000 0.400000 0.000000
4.000000 0.600000 0.000000
4.000000 0.800000 0.000000
4.000000 1.000000 0.000000
4.500000 0.200000 0.000000
4.500000 0.400000 0.000000
4.500000 0.600000 0.000000
4.500000 0.800000 0.000000
4.500000 1.000000 0.000000
4.125000 0.000000 0.000000
4.250000 0.000000 0.000000
4.375000 0.000000 0.000000
4.000000 0.050000 0.000000
4.000000 0.100000 0.000000
4.000000 0.150000 0.000000
4.000000 0.250000 0.000000
4.000000 0.300000 0.000000
4.000000 0.350000 0.000000
4.000000 0.450000 0.000000
4.000000 0.500000 0.000000
4.000000 0.550000 0.000000
4.000000 0.650000 0.000000
4.000000 0.700000 0.000000
4.000000 0.750000 0.000000
4.000000 0.850000 0.000000
4.000000 0.900000 0.000000
4.000000 0.950000 0.000000
4.125000 0.200000 0.000000
4.250000 0.200000 0.000000
4.375000 0.200000 0.000000
4.500000 0.050000 0.000000
4.500000 0.100000 0.000000
4.500000 0.150000 0.000000
4.125000 0.400000 0.000000
4.250000 0.400000 0.000000
4.375000 0.400000 0.000000
4.500000 0.250000 0.000000
4.500000 0.300000 0.000000
4.500000 0.350000 0.000000
4.125000 0.600000 0.000000
4.250000 0.600000 0.000000
4.375000 0.600000 0.000000
4.500000 0.450000 0.000000
4.500000 0.500000 0.000000
4.500000 0.550000 0.000000
4.125000 0.800000 0.000000
4.250000 0.800000 0.000000
4.375000 0.800000 0.000000
4.500000 0.650000 0.000000
4.500000 0.700000 0.000000
4.500000 0.750000 0.000000
4.125000 1.000000 0.000000
4.250000 1.000000 0.000000
4.375000 1.000000 0.000000
4.500000 0.850000 0.000000
4.500000 0.900000 0.000000
4.500000 0.950000 0.000000
4.125000 0.050000 0.000000
4.125000 0.100000 0.000000
4.125000 0.150000 0.000000
4.250000 0.050000 0.000000
4.250000 0.100000 0.000000
4.250000 0.150000 0.000000
4.375000 0.050000 0.000000
4.375000 0.100000 0.000000
4.375000 0.150000 0.000000
4.125000 0.250000 0.000000
4.125000 0.300000 0.000000
4.125000 0.350000 0.000000
4.250000 0.250000 0.000000
4.250000 0.300000 0.000000
4.250000 0.350000 0.000000
4.375000 0.250000 0.000000
4.375000 0.300000 0.000000
4.375000 0.350000 0.000000
4.125000 0.450000 0.000000
4.125000 0.500000 0.000000
4.125000 0.550000 0.000000
4.250000 0.450000 0.000000
4.250000 0.500000 0.000000
4.250000 0.550000 0.000000
4.375000 0.450000 0.000000
4.375000 0.500000 0.000000
4.375000 0.550000 0.000000
4.125000 0.650000 0.000000
4.125000 0.700000 0.000000
4.125000 0.750000 0.000000
4.250000 0.650000 0.000000
4.250000 0.700000 0.000000
4.250000 0.750000 0.000000
4.375000 0.650000 0.000000
4.375000 0.700000 0.000000
4.375000 0.750000 0.000000
4.125000 0.850000 0.000000
4.125000 0.900000 0.000000
4.125000 0.950000 0.000000
4.250000 0.850000 0.000000
4.250000 0.900000 0.000000
4.250000 0.950000 0.000000
4.375000 0.850000 0.000000
4.375000 0.900000 0.000000
4.375000 0.950000 0.000000
CELLS 80 400 
4 0 12 60 15
4 15 60 61 16
4 16 61 62 17
4 17 62 30  2
4 12 13 63 60
4 60 63 64 61
4 61 64 65 62
4 62 65 31 30
4 13 14 66 63
4 63 66 67 64
4 64 67 68 65
4 65 68 32 31
4 14  1 33 66
4 66 33 34 67
4 67 34 35 68
4 68 35  7 32
4 2 30 69 18
4 18 69 70 19
4 19 70 71 20
4 20 71 36  3
4 30 31 72 69
4 69 72 73 70
4 70 73 74 71
4 71 74 37 36
4 31 32 75 72
4 72 75 76 73
4 73 76 77 74
4 74 77 38 37
4 32  7 39 75
4 75 39 40 76
4 76 40 41 77
4 77 41  8 38
4 3 36 78 21
4 21 78 79 22
4 22 79 80 23
4 23 80 42  4
4 36 37 81 78
4 78 81 82 79
4 79 82 83 80
4 80 83 43 42
4 37 38 84 81
4 81 84 85 82
4 82 85 86 83
4 83 86 44 43
4 38  8 45 84
4 84 45 46 85
4 85 46 47 86
4 86 47  9 44
4 4 42 87 24
4 24 87 88 25
4 25 88 89 26
4 26 89 48  5
4 42 43 90 87
4 87 90 91 88
4 88 91 92 89
4 89 92 49 48
4 43 44 93 90
4 90 93 94 91
4 91 94 95 92
4 92 95 50 49
4 44  9 51 93
4 93 51 52 94
4 94 52 53 95
4 95 53 10 50
4 5 48 96 27
4 27 96 97 28
4 28 97 98 29
4 29 98 54  6
4 48 49 99 96
4 96  99 100  97
4 97 100 101  98
4 98 101  55  54
4 49  50 102  99
4 99 102 103 100
4 100 103 104 101
4 101 104  56  55
4 50  10  57 102
4 102  57  58 103
4 103  58  59 104
4 104  59  11  56
CELL_TYPES 80
9 9 9 9 9 9 9 9 9 9 9 9 9 9 9 9 9 9 9 9 9 9 9 9 9 9 9 9 9 9 9 9 9 9 9 9 9 9 9 9 9 9 9 9 9 9 9 9 9 9 9 9 9 9 9 9 9 9 9 9 9 9 9 9 9 9 9 9 9 9 9 9 9 9 9 9 9 9 9 9 
POINT_DATA 105
VECTORS displacement_ITER1 FLOAT
 1.900690e-14  6.490508e-14  0 
 1.887825e-14  8.071048e-14  0 
 1.277914e-14  6.492672e-14  0 
 6.227912e-15  6.495945e-14  0 
 -2.884493e-16  6.496410e-14  0 
 -6.836543e-15  6.499761e-14  0 
 -1.308969e-14  6.498086e-14  0 
 1.245254e-14  8.073104e-14  0 
 6.058723e-15  8.083519e-14  0 
 -1.717508e-16  8.083983e-14  0 
 -6.568799e-15  8.080209e-14  0 
 -1.296927e-14  8.078643e-14  0 
 1.896831e-14  6.881999e-14  0 
 1.893872e-14  7.275413e-14  0 
 1.891118e-14  7.672198e-14  0 
 1.744232e-14  6.490648e-14  0 
 1.587887e-14  6.491105e-14  0 
 1.432194e-14  6.491869e-14  0 
 1.157122e-14  6.491725e-14  0 
 1.000515e-14  6.485515e-14  0 
 8.208515e-15  6.483948e-14  0 
 4.591182e-15  6.496592e-14  0 
 2.966155e-15  6.496954e-14  0 
 1.342760e-15  6.496848e-14  0 
 -2.186076e-15  6.486892e-14  0 
 -3.959638e-15  6.489567e-14  0 
 -5.547244e-15  6.496777e-14  0 
 -8.388935e-15  6.499156e-14  0 
 -9.952162e-15  6.498561e-14  0 
 -1.152046e-14  6.498198e-14  0 
 1.269720e-14  6.881343e-14  0 
 1.261532e-14  7.275418e-14  0 
 1.253494e-14  7.671551e-14  0 
 1.728094e-14  8.071189e-14  0 
 1.568194e-14  8.071654e-14  0 
 1.407528e-14  8.072407e-14  0 
 6.177328e-15  6.900753e-14  0 
 6.130761e-15  7.299149e-14  0 
 6.090546e-15  7.693640e-14  0 
 1.047874e-14  8.072129e-14  0 
 8.821021e-15  8.067688e-14  0 
 7.364187e-15  8.068711e-14  0 
 -2.520920e-16  6.900655e-14  0 
 -2.175437e-16  7.299190e-14  0 
 -1.893439e-16  7.693543e-14  0 
 4.506640e-15  8.084167e-14  0 
 2.947062e-15  8.084498e-14  0 
 1.385852e-15  8.084422e-14  0 
 -6.770118e-15  6.889893e-14  0 
 -6.702156e-15  7.284201e-14  0 
 -6.635677e-15  7.680110e-14  0 
 -1.559914e-15  8.071662e-14  0 
 -3.040106e-15  8.071760e-14  0 
 -4.676319e-15  8.077197e-14  0 
 -1.305327e-14  6.890473e-14  0 
 -1.302562e-14  7.284250e-14  0 
 -1.300002e-14  7.680680e-14  0 
 -8.181976e-15  8.079711e-14  0 
 -9.782380e-15  8.079126e-14  0 
 -1.137658e-14  8.078757e-14  0 
 1.739935e-14  6.881978e-14  0 
 1.583081e-14  6.881874e-14  0 
 1.426382e-14  6.881637e-14  0 
 1.735823e-14  7.275370e-14  0 
 1.577750e-14  7.275278e-14  0 
 1.419660e-14  7.275257e-14  0 
 1.731882e-14  7.672172e-14  0 
 1.572546e-14  7.672054e-14  0 
 1.413018e-14  7.671803e-14  0 
 1.110614e-14  6.882793e-14  0 
 9.504307e-15  6.891684e-14  0 
 7.847321e-15  6.899826e-14  0 
 1.099758e-14  7.282152e-14  0 
 9.376418e-15  7.287734e-14  0 
 7.754623e-15  7.293226e-14  0 
 1.089219e-14  7.674330e-14  0 
 9.260170e-15  7.683498e-14  0 
 7.672886e-15  7.691899e-14  0 
 4.570169e-15  6.900569e-14  0 
 2.962225e-15  6.900452e-14  0 
 1.354625e-15  6.900510e-14  0 
 4.543963e-15  7.299283e-14  0 
 2.956609e-15  7.299315e-14  0 
 1.369255e-15  7.299282e-14  0 
 4.521226e-15  7.693522e-14  0 
 2.950993e-15  7.693454e-14  0 
 1.380416e-15  7.693463e-14  0 
 -1.915177e-15  6.901095e-14  0 
 -3.566008e-15  6.895825e-14  0 
 -5.172544e-15  6.889832e-14  0 
 -1.841408e-15  7.295399e-14  0 
 -3.463221e-15  7.291989e-14  0 
 -5.084394e-15  7.288576e-14  0 
 -1.778626e-15  7.693170e-14  0 
 -3.372033e-15  7.687641e-14  0 
 -4.999412e-15  7.681374e-14  0 
 -8.339903e-15  6.890153e-14  0 
 -9.910173e-15  6.890358e-14  0 
 -1.148165e-14  6.890451e-14  0 
 -8.283452e-15  7.284097e-14  0 
 -9.864365e-15  7.284132e-14  0 
 -1.144511e-14  7.284214e-14  0 
 -8.227793e-15  7.680329e-14  0 
 -9.819833e-15  7.680546e-14  0 
 -1.141029e-14  7.680654e-14  0 
VECTORS displacement_ITER2 FLOAT
 -3.034237e-14  -1.130694e-13  0 
 -3.036677e-14  -1.408423e-13  0 
 -1.915355e-14  -1.130440e-13  0 
 -8.064638e-15  -1.125757e-13  0 
 3.015761e-15  -1.125773e-13  0 
 1.410016e-14  -1.129961e-13  0 
 2.528550e-14  -1.130222e-13  0 
 -1.932844e-14  -1.408265e-13  0 
 -8.178367e-15  -1.406007e-13  0 
 3.122259e-15  -1.406024e-13  0 
 1.427631e-14  -1.407773e-13  0 
 2.531703e-14  -1.407938e-13  0 
 -3.034317e-14  -1.200318e-13  0 
 -3.035307e-14  -1.269812e-13  0 
 -3.036240e-14  -1.339181e-13  0 
 -2.755027e-14  -1.130683e-13  0 
 -2.475809e-14  -1.130645e-13  0 
 -2.196110e-14  -1.130569e-13  0 
 -1.629331e-14  -1.128896e-13  0 
 -1.350319e-14  -1.126796e-13  0 
 -1.072317e-14  -1.125476e-13  0 
 -5.300263e-15  -1.125755e-13  0 
 -2.525691e-15  -1.125752e-13  0 
 2.494369e-16  -1.125764e-13  0 
 5.632992e-15  -1.125761e-13  0 
 8.387562e-15  -1.126703e-13  0 
 1.119652e-14  -1.128355e-13  0 
 1.690586e-14  -1.130089e-13  0 
 1.970185e-14  -1.130169e-13  0 
 2.249348e-14  -1.130210e-13  0 
 -1.920851e-14  -1.200299e-13  0 
 -1.924371e-14  -1.269763e-13  0 
 -1.927732e-14  -1.339184e-13  0 
 -2.760093e-14  -1.408417e-13  0 
 -2.483649e-14  -1.408394e-13  0 
 -2.207723e-14  -1.408346e-13  0 
 -8.109191e-15  -1.195403e-13  0 
 -8.132627e-15  -1.265425e-13  0 
 -8.151241e-15  -1.335588e-13  0 
 -1.662895e-14  -1.407673e-13  0 
 -1.385416e-14  -1.406400e-13  0 
 -1.106490e-14  -1.405615e-13  0 
 3.056565e-15  -1.195403e-13  0 
 3.080137e-15  -1.265413e-13  0 
 3.098894e-15  -1.335587e-13  0 
 -5.349259e-15  -1.406003e-13  0 
 -2.526800e-15  -1.406002e-13  0 
 2.951035e-16  -1.406012e-13  0 
 1.415316e-14  -1.199826e-13  0 
 1.419095e-14  -1.269298e-13  0 
 1.422716e-14  -1.338705e-13  0 
 6.050578e-15  -1.405897e-13  0 
 8.864698e-15  -1.406299e-13  0 
 1.162073e-14  -1.407122e-13  0 
 2.528849e-14  -1.199843e-13  0 
 2.529975e-14  -1.269335e-13  0 
 2.531044e-14  -1.338698e-13  0 
 1.702669e-14  -1.407852e-13  0 
 1.978666e-14  -1.407904e-13  0 
 2.255135e-14  -1.407930e-13  0 
 -2.756093e-14  -1.200315e-13  0 
 -2.477687e-14  -1.200307e-13  0 
 -2.199207e-14  -1.200301e-13  0 
 -2.757573e-14  -1.269812e-13  0 
 -2.479843e-14  -1.269809e-13  0 
 -2.202101e-14  -1.269794e-13  0 
 -2.759051e-14  -1.339180e-13  0 
 -2.481975e-14  -1.339181e-13  0 
 -2.204945e-14  -1.339183e-13  0 
 -1.643929e-14  -1.198978e-13  0 
 -1.365453e-14  -1.197766e-13  0 
 -1.087647e-14  -1.196582e-13  0 
 -1.647443e-14  -1.268694e-13  0 
 -1.370006e-14  -1.267588e-13  0 
 -1.091952e-14  -1.266481e-13  0 
 -1.650921e-14  -1.338187e-13  0 
 -1.373922e-14  -1.337306e-13  0 
 -1.095344e-14  -1.336448e-13  0 
 -5.315374e-15  -1.195396e-13  0 
 -2.525628e-15  -1.195400e-13  0 
 2.638510e-16  -1.195397e-13  0 
 -5.329323e-15  -1.265397e-13  0 
 -2.526243e-15  -1.265382e-13  0 
 2.768365e-16  -1.265390e-13  0 
 -5.340204e-15  -1.335583e-13  0 
 -2.526860e-15  -1.335586e-13  0 
 2.867510e-16  -1.335585e-13  0 
 5.818957e-15  -1.196380e-13  0 
 8.592373e-15  -1.197533e-13  0 
 1.137922e-14  -1.198712e-13  0 
 5.867023e-15  -1.266368e-13  0 
 8.647490e-15  -1.267344e-13  0 
 1.142180e-14  -1.268323e-13  0 
 5.905906e-15  -1.336243e-13  0 
 8.696355e-15  -1.337069e-13  0 
 1.146398e-14  -1.337916e-13  0 
 1.693753e-14  -1.199826e-13  0 
 1.972246e-14  -1.199831e-13  0 
 2.250641e-14  -1.199839e-13  0 
 1.696811e-14  -1.269325e-13  0 
 1.974539e-14  -1.269336e-13  0 
 2.252255e-14  -1.269337e-13  0 
 1.699819e-14  -1.338701e-13  0 
 1.976808e-14  -1.338698e-13  0 
 2.253868e-14  -1.338697e-13  0 
VECTORS displacement_ITER3 FLOAT
 3.190274e-15  1.051040e-14  0 
 3.154202e-15  1.303604e-14  0 
 2.275406e-15  1.052564e-14  0 
 1.167536e-15  1.071299e-14  0 
 3.079025e-17  1.071268e-14  0 
 -1.077917e-15  1.048334e-14  0 
 -2.005375e-15  1.046819e-14  0 
 2.051369e-15  1.304798e-14  0 
 1.036227e-15  1.321526e-14  0 
 1.322123e-16  1.321489e-14  0 
 -8.806656e-16  1.300325e-14  0 
 -1.968961e-15  1.299136e-14  0 
 3.178348e-15  1.110933e-14  0 
 3.171804e-15  1.172692e-14  0 
 3.165311e-15  1.237244e-14  0 
 2.950239e-15  1.051054e-14  0 
 2.714073e-15  1.051196e-14  0 
 2.486307e-15  1.051641e-14  0 
 2.138474e-15  1.056657e-14  0 
 1.885350e-15  1.067099e-14  0 
 1.580286e-15  1.074186e-14  0 
 8.764080e-16  1.071193e-14  0 
 5.965620e-16  1.071226e-14  0 
 3.178445e-16  1.071201e-14  0 
 -3.696073e-16  1.071273e-14  0 
 -6.744883e-16  1.063644e-14  0 
 -9.303112e-16  1.053253e-14  0 
 -1.294310e-15  1.047424e-14  0 
 -1.525355e-15  1.046984e-14  0 
 -1.763776e-15  1.046837e-14  0 
 2.207105e-15  1.110378e-14  0 
 2.160387e-15  1.173114e-14  0 
 2.115309e-15  1.236790e-14  0 
 2.888884e-15  1.303631e-14  0 
 2.620051e-15  1.303780e-14  0 
 2.343494e-15  1.304154e-14  0 
 1.120608e-15  1.138797e-14  0 
 1.090815e-15  1.202053e-14  0 
 1.066252e-15  1.263247e-14  0 
 1.689902e-15  1.307258e-14  0 
 1.421956e-15  1.316647e-14  0 
 1.189141e-15  1.323455e-14  0 
 6.843080e-17  1.138620e-14  0 
 9.257961e-17  1.202015e-14  0 
 1.115054e-16  1.263068e-14  0 
 8.153343e-16  1.321546e-14  0 
 5.868223e-16  1.321597e-14  0 
 3.571840e-16  1.321551e-14  0 
 -1.017035e-15  1.106889e-14  0 
 -9.763041e-16  1.169732e-14  0 
 -9.372027e-16  1.233179e-14  0 
 -3.230461e-17  1.320458e-14  0 
 -2.656410e-16  1.313046e-14  0 
 -5.301630e-16  1.303641e-14  0 
 -1.994712e-15  1.107294e-14  0 
 -1.986740e-15  1.169293e-14  0 
 -1.978821e-15  1.233483e-14  0 
 -1.166801e-15  1.299693e-14  0 
 -1.439630e-15  1.299323e-14  0 
 -1.705731e-15  1.299167e-14  0 
 2.936285e-15  1.110891e-14  0 
 2.694048e-15  1.110761e-14  0 
 2.451877e-15  1.110557e-14  0 
 2.919128e-15  1.172695e-14  0 
 2.666409e-15  1.172727e-14  0 
 2.413563e-15  1.172860e-14  0 
 2.902267e-15  1.237205e-14  0 
 2.639208e-15  1.237087e-14  0 
 2.375942e-15  1.236906e-14  0 
 1.946295e-15  1.117884e-14  0 
 1.685868e-15  1.125381e-14  0 
 1.409912e-15  1.132511e-14  0 
 1.892659e-15  1.180355e-14  0 
 1.624562e-15  1.187784e-14  0 
 1.357545e-15  1.195133e-14  0 
 1.842763e-15  1.244138e-14  0 
 1.572314e-15  1.250942e-14  0 
 1.313730e-15  1.257361e-14  0 
 8.595313e-16  1.138790e-14  0 
 5.947650e-16  1.138679e-14  0 
 3.300210e-16  1.138679e-14  0 
 8.414162e-16  1.202234e-14  0 
 5.916956e-16  1.202322e-14  0 
 3.419767e-16  1.202214e-14  0 
 8.265113e-16  1.263248e-14  0 
 5.886233e-16  1.263168e-14  0 
 3.507162e-16  1.263137e-14  0 
 -2.189212e-16  1.131489e-14  0 
 -4.950112e-16  1.123416e-14  0 
 -7.562134e-16  1.115082e-14  0 
 -1.740530e-16  1.194151e-14  0 
 -4.409524e-16  1.186000e-14  0 
 -7.088269e-16  1.177770e-14  0 
 -1.378425e-16  1.256304e-14  0 
 -3.958453e-16  1.248909e-14  0 
 -6.651982e-16  1.241244e-14  0 
 -1.263088e-15  1.107023e-14  0 
 -1.506865e-15  1.107173e-14  0 
 -1.750738e-15  1.107265e-14  0 
 -1.229234e-15  1.169471e-14  0 
 -1.481835e-15  1.169332e-14  0 
 -1.734308e-15  1.169297e-14  0 
 -1.196072e-15  1.233250e-14  0 
 -1.457240e-15  1.233376e-14  0 
 -1.718174e-15  1.233457e-14  0 
VECTORS displacement_ITER4 FLOAT
 -9.415776e-16  -3.363927e-15  0 
 -9.656320e-16  -4.523143e-15  0 
 -3.734245e-16  -3.355878e-15  0 
 -3.802996e-17  -3.318600e-15  0 
 2.524161e-16  -3.317581e-15  0 
 5.879296e-16  -3.341669e-15  0 
 1.139207e-15  -3.347825e-15  0 
 -6.061422e-16  -4.514471e-15  0 
 -1.634628e-16  -4.367095e-15  0 
 3.482795e-16  -4.366063e-15  0 
 7.899925e-16  -4.498054e-15  0 
 1.164635e-15  -4.504835e-15  0 
 -9.542535e-16  -3.692742e-15  0 
 -9.548256e-16  -4.000120e-15  0 
 -9.557598e-16  -4.272051e-15  0 
 -8.137107e-16  -3.363937e-15  0 
 -6.806040e-16  -3.363238e-15  0 
 -5.377022e-16  -3.360797e-15  0 
 -1.707395e-16  -3.388426e-15  0 
 -6.927482e-17  -3.347746e-15  0 
 -2.697765e-17  -3.303642e-15  0 
 2.810093e-17  -3.321567e-15  0 
 1.047499e-16  -3.321401e-15  0 
 1.824249e-16  -3.320643e-15  0 
 2.570069e-16  -3.298586e-15  0 
 3.093170e-16  -3.338935e-15  0 
 4.044092e-16  -3.377715e-15  0 
 7.457129e-16  -3.346243e-15  0 
 8.845783e-16  -3.347953e-15  0 
 1.014457e-15  -3.348060e-15  0 
 -4.453782e-16  -3.701908e-15  0 
 -4.928868e-16  -3.996111e-15  0 
 -5.389096e-16  -4.278318e-15  0 
 -8.636963e-16  -4.522794e-15  0 
 -7.658274e-16  -4.521345e-15  0 
 -6.765230e-16  -4.518417e-15  0 
 -8.153364e-17  -3.532245e-15  0 
 -1.111215e-16  -3.785514e-15  0 
 -1.357052e-16  -4.062717e-15  0 
 -5.729002e-16  -4.511295e-15  0 
 -4.701228e-16  -4.440532e-15  0 
 -3.317737e-16  -4.373234e-15  0 
 2.869305e-16  -3.533086e-15  0 
 3.107276e-16  -3.785289e-15  0 
 3.295288e-16  -4.063538e-15  0 
 -3.076237e-17  -4.367695e-15  0 
 9.485379e-17  -4.366972e-15  0 
 2.194455e-16  -4.366762e-15  0 
 6.512454e-16  -3.678733e-15  0 
 6.920722e-16  -3.970836e-15  0 
 7.314179e-16  -4.254037e-15  0 
 5.015396e-16  -4.367437e-15  0 
 6.292863e-16  -4.430236e-15  0 
 7.380283e-16  -4.498708e-15  0 
 1.151919e-15  -3.670217e-15  0 
 1.153121e-15  -3.974609e-15  0 
 1.154688e-15  -4.248402e-15  0 
 8.664554e-16  -4.501641e-15  0 
 9.593239e-16  -4.503827e-15  0 
 1.059983e-15  -4.504703e-15  0 
 -8.251815e-16  -3.693581e-15  0 
 -6.970720e-16  -3.695962e-15  0 
 -5.691751e-16  -3.699477e-15  0 
 -8.390825e-16  -4.000048e-15  0 
 -7.233740e-16  -3.999702e-15  0 
 -6.079364e-16  -3.998284e-15  0 
 -8.527043e-16  -4.272651e-15  0 
 -7.492671e-16  -4.274384e-15  0 
 -6.459055e-16  -4.276983e-15  0 
 -3.358141e-16  -3.655619e-15  0 
 -2.377113e-16  -3.610032e-15  0 
 -1.526146e-16  -3.568670e-15  0 
 -3.930624e-16  -3.942789e-15  0 
 -2.965075e-16  -3.888193e-15  0 
 -2.022588e-16  -3.834810e-15  0 
 -4.451277e-16  -4.216495e-15  0 
 -3.469439e-16  -4.161033e-15  0 
 -2.451744e-16  -4.110565e-15  0 
 1.237164e-17  -3.532086e-15  0 
 1.028163e-16  -3.533029e-15  0 
 1.933532e-16  -3.532730e-15  0 
 -5.506028e-18  -3.784242e-15  0 
 9.980546e-17  -3.783400e-15  0 
 2.051163e-16  -3.784142e-15  0 
 -2.023501e-17  -4.062393e-15  0 
 9.679264e-17  -4.062995e-15  0 
 2.137275e-16  -4.063029e-15  0 
 3.609465e-16  -3.565491e-15  0 
 4.467628e-16  -3.599905e-15  0 
 5.440561e-16  -3.637495e-15  0 
 4.018472e-16  -3.829070e-15  0 
 4.960050e-16  -3.876288e-15  0 
 5.924410e-16  -3.924582e-15  0 
 4.359881e-16  -4.107080e-15  0 
 5.369643e-16  -4.150389e-15  0 
 6.356443e-16  -4.197555e-15  0 
 7.731744e-16  -3.676451e-15  0 
 8.988183e-16  -3.673252e-15  0 
 1.024827e-15  -3.671020e-15  0 
 8.069019e-16  -3.972797e-15  0 
 9.221171e-16  -3.974102e-15  0 
 1.037603e-15  -3.974498e-15  0 
 8.398320e-16  -4.252849e-15  0 
 9.450074e-16  -4.250565e-15  0 
 1.050100e-15  -4.248971e-15  0 
VECTORS displacement_ITER5 FLOAT
 -1.330240e-14  -5.794233e-14  0 
 -1.329769e-14  -7.211638e-14  0 
 -7.516276e-15  -5.793428e-14  0 
 -1.945273e-15  -5.790507e-14  0 
 3.573872e-15  -5.790338e-14  0 
 9.146882e-15  -5.787066e-14  0 
 1.491745e-14  -5.787596e-14  0 
 -7.741492e-15  -7.210834e-14  0 
 -2.062332e-15  -7.200878e-14  0 
 3.666181e-15  -7.200713e-14  0 
 9.343840e-15  -7.204558e-14  0 
 1.491630e-14  -7.205091e-14  0 
 -1.330664e-14  -6.152817e-14  0 
 -1.330037e-14  -6.509040e-14  0 
 -1.329460e-14  -6.861491e-14  0 
 -1.186936e-14  -5.794149e-14  0 
 -1.043246e-14  -5.793910e-14  0 
 -8.986410e-15  -5.793599e-14  0 
 -6.069350e-15  -5.797032e-14  0 
 -4.664990e-15  -5.794325e-14  0 
 -3.307954e-15  -5.790218e-14  0 
 -5.712355e-16  -5.791012e-14  0 
 8.121951e-16  -5.791020e-14  0 
 2.196493e-15  -5.790874e-14  0 
 4.943156e-15  -5.787151e-14  0 
 6.313006e-15  -5.789776e-14  0 
 7.712724e-15  -5.791750e-14  0 
 1.061109e-14  -5.787202e-14  0 
 1.205360e-14  -5.787403e-14  0 
 1.348757e-14  -5.787548e-14  0 
 -7.587615e-15  -6.153677e-14  0 
 -7.632030e-15  -6.508674e-14  0 
 -7.675202e-15  -6.862118e-14  0 
 -1.189697e-14  -7.211547e-14  0 
 -1.049942e-14  -7.211297e-14  0 
 -9.109995e-15  -7.210976e-14  0 
 -1.986503e-15  -6.138678e-14  0 
 -2.013819e-15  -6.490302e-14  0 
 -2.036667e-15  -6.844370e-14  0 
 -6.357140e-15  -7.211068e-14  0 
 -4.944390e-15  -7.206881e-14  0 
 -3.494961e-15  -7.202069e-14  0 
 3.607429e-15  -6.138669e-14  0 
 3.630051e-15  -6.490221e-14  0 
 3.648212e-15  -6.844361e-14  0 
 -6.260061e-16  -7.201056e-14  0 
 8.040319e-16  -7.200986e-14  0 
 2.233202e-15  -7.200920e-14  0 
 9.209753e-15  -6.146615e-14  0 
 9.248502e-15  -6.501525e-14  0 
 9.286014e-15  -6.855099e-14  0 
 5.092664e-15  -7.199029e-14  0 
 6.529444e-15  -7.202366e-14  0 
 7.946403e-15  -7.205847e-14  0 
 1.492315e-14  -6.145741e-14  0 
 1.491719e-14  -6.501824e-14  0 
 1.491173e-14  -6.854457e-14  0 
 1.071845e-14  -7.204664e-14  0 
 1.211155e-14  -7.204875e-14  0 
 1.351221e-14  -7.205035e-14  0 
 -1.187546e-14  -6.152894e-14  0 
 -1.044458e-14  -6.153127e-14  0 
 -9.013516e-15  -6.153499e-14  0 
 -1.188309e-14  -6.509043e-14  0 
 -1.046582e-14  -6.509022e-14  0 
 -9.048804e-15  -6.508867e-14  0 
 -1.189080e-14  -6.861549e-14  0 
 -1.048692e-14  -6.861727e-14  0 
 -9.083289e-15  -6.862017e-14  0 
 -6.170780e-15  -6.149202e-14  0 
 -4.769318e-15  -6.145442e-14  0 
 -3.370807e-15  -6.142176e-14  0 
 -6.224630e-15  -6.503971e-14  0 
 -4.819004e-15  -6.499182e-14  0 
 -3.415531e-15  -6.494524e-14  0 
 -6.274457e-15  -6.856792e-14  0 
 -4.864502e-15  -6.852248e-14  0 
 -3.455729e-15  -6.848317e-14  0 
 -5.861582e-16  -6.138590e-14  0 
 8.105624e-16  -6.138655e-14  0 
 2.207377e-15  -6.138609e-14  0 
 -6.027711e-16  -6.490201e-14  0 
 8.081156e-16  -6.490106e-14  0 
 2.219003e-15  -6.490159e-14  0 
 -6.162730e-16  -6.844303e-14  0 
 8.056665e-16  -6.844344e-14  0 
 2.227513e-15  -6.844322e-14  0 
 4.994318e-15  -6.140586e-14  0 
 6.393794e-15  -6.141959e-14  0 
 7.795597e-15  -6.143759e-14  0 
 5.031788e-15  -6.492730e-14  0 
 6.435317e-15  -6.495645e-14  0 
 7.841006e-15  -6.498664e-14  0 
 5.064750e-15  -6.846736e-14  0 
 6.472648e-15  -6.848793e-14  0 
 7.882475e-15  -6.851386e-14  0 
 1.063440e-14  -6.146419e-14  0 
 1.206373e-14  -6.146058e-14  0 
 1.349309e-14  -6.145822e-14  0 
 1.066536e-14  -6.501675e-14  0 
 1.208247e-14  -6.501801e-14  0 
 1.349982e-14  -6.501823e-14  0 
 1.069552e-14  -6.854981e-14  0 
 1.210106e-14  -6.854702e-14  0 
 1.350662e-14  -6.854520e-14  0 
VECTORS displacement_ITER6 FLOAT
 6.124391e-17  4.545510e-15  0 
 7.344946e-17  5.277895e-15  0 
 -1.051312e-16  4.557455e-15  0 
 -4.915438e-16  4.584562e-15  0 
 -9.228362e-16  4.584120e-15  0 
 -1.309347e-15  4.550349e-15  0 
 -1.485112e-15  4.538354e-15  0 
 -3.422660e-16  5.288230e-15  0 
 -6.129852e-16  5.324699e-15  0 
 -8.142379e-16  5.324245e-15  0 
 -1.084908e-15  5.281678e-15  0 
 -1.491652e-15  5.271269e-15  0 
 6.027705e-17  4.683575e-15  0 
 6.724908e-17  4.847128e-15  0 
 7.418925e-17  5.049857e-15  0 
 7.904366e-18  4.547204e-15  0 
 -4.329225e-17  4.551634e-15  0 
 -8.625278e-17  4.556839e-15  0 
 -1.619786e-16  4.541007e-15  0 
 -2.440219e-16  4.557525e-15  0 
 -3.771326e-16  4.583423e-15  0 
 -6.046738e-16  4.579056e-15  0 
 -7.087188e-16  4.578655e-15  0 
 -8.121242e-16  4.579312e-15  0 
 -1.056681e-15  4.584173e-15  0 
 -1.189608e-15  4.557921e-15  0 
 -1.268872e-15  4.538989e-15  0 
 -1.332057e-15  4.549191e-15  0 
 -1.377317e-15  4.544172e-15  0 
 -1.430263e-15  4.539955e-15  0 
 -1.784890e-16  4.676413e-15  0 
 -2.264826e-16  4.849832e-15  0 
 -2.733215e-16  5.043717e-15  0 
 -1.949780e-17  5.279349e-15  0 
 -1.146654e-16  5.283193e-15  0 
 -2.176977e-16  5.287796e-15  0 
 -5.351582e-16  4.817839e-15  0 
 -5.636309e-16  5.013979e-15  0 
 -5.872758e-16  5.182569e-15  0 
 -4.469167e-16  5.285750e-15  0 
 -5.267423e-16  5.296177e-15  0 
 -5.578874e-16  5.314000e-15  0 
 -8.839932e-16  4.817367e-15  0 
 -8.571638e-16  5.014137e-15  0 
 -8.351575e-16  5.182102e-15  0 
 -6.596390e-16  5.322741e-15  0 
 -7.120794e-16  5.323106e-15  0 
 -7.651607e-16  5.322995e-15  0 
 -1.240221e-15  4.673438e-15  0 
 -1.194347e-15  4.847872e-15  0 
 -1.149623e-15  5.041023e-15  0 
 -8.496280e-16  5.314933e-15  0 
 -8.807129e-16  5.297007e-15  0 
 -9.640627e-16  5.284199e-15  0 
 -1.483122e-15  4.680112e-15  0 
 -1.488304e-15  4.845336e-15  0 
 -1.493450e-15  5.046687e-15  0 
 -1.205739e-15  5.280718e-15  0 
 -1.306627e-15  5.276306e-15  0 
 -1.400150e-15  5.272643e-15  0 
 1.101535e-18  4.683025e-15  0 
 -5.760304e-17  4.681111e-15  0 
 -1.155463e-16  4.677621e-15  0 
 -6.011297e-18  4.846939e-15  0 
 -7.933337e-17  4.846836e-15  0 
 -1.528364e-16  4.848202e-15  0 
 -1.315306e-17  5.049367e-15  0 
 -1.008953e-16  5.047680e-15  0 
 -1.893054e-16  5.044623e-15  0 
 -2.522383e-16  4.718279e-15  0 
 -3.404124e-16  4.755237e-15  0 
 -4.300879e-16  4.786639e-15  0 
 -3.100892e-16  4.892984e-15  0 
 -3.938966e-16  4.935622e-15  0 
 -4.788088e-16  4.976825e-15  0 
 -3.651123e-16  5.085483e-15  0 
 -4.449869e-16  5.124098e-15  0 
 -5.227948e-16  5.155696e-15  0 
 -6.203136e-16  4.818748e-15  0 
 -7.092687e-16  4.817948e-15  0 
 -7.982597e-16  4.818265e-15  0 
 -6.369518e-16  5.014811e-15  0 
 -7.103968e-16  5.015648e-15  0 
 -7.838417e-16  5.014977e-15  0 
 -6.501224e-16  5.183041e-15  0 
 -7.115271e-16  5.182450e-15  0 
 -7.728949e-16  5.182559e-15  0 
 -9.887924e-16  4.786763e-15  0 
 -1.079593e-15  4.753180e-15  0 
 -1.166307e-15  4.714308e-15  0 
 -9.419818e-16  4.975757e-15  0 
 -1.026880e-15  4.934187e-15  0 
 -1.110720e-15  4.891394e-15  0 
 -8.998627e-16  5.155917e-15  0 
 -9.766110e-16  5.122137e-15  0 
 -1.057865e-15  5.081686e-15  0 
 -1.303845e-15  4.674657e-15  0 
 -1.362929e-15  4.677870e-15  0 
 -1.422777e-15  4.679617e-15  0 
 -1.268048e-15  4.846273e-15  0 
 -1.341607e-15  4.845029e-15  0 
 -1.414985e-15  4.845148e-15  0 
 -1.233075e-15  5.041936e-15  0 
 -1.320453e-15  5.044716e-15  0 
 -1.407165e-15  5.046248e-15  0 
VECTORS displacement_ITER7 FLOAT
 4.905966e-08  -5.840400e-08  0 
 5.208645e-08  3.575531e-08  0 
 1.094562e-08  -5.836895e-08  0 
 -3.866147e-08  -1.392578e-09  0 
 -3.866146e-08  1.392486e-09  0 
 1.094564e-08  5.836886e-08  0 
 4.905968e-08  5.840390e-08  0 
 1.210359e-08  3.636677e-08  0 
 -4.273208e-08  7.530593e-10  0 
 -4.273208e-08  -7.531738e-10  0 
 1.210361e-08  -3.636689e-08  0 
 5.208647e-08  -3.575543e-08  0 
 4.908530e-08  -3.483989e-08  0 
 4.937258e-08  -1.145212e-08  0 
 5.023934e-08  1.187646e-08  0 
 3.961310e-08  -5.840970e-08  0 
 3.013736e-08  -5.841887e-08  0 
 2.059586e-08  -5.841465e-08  0 
 -3.757692e-09  -5.239952e-08  0 
 -1.845321e-08  -4.081372e-08  0 
 -3.087054e-08  -2.390951e-08  0 
 -3.903246e-08  -7.195278e-10  0 
 -3.915260e-08  -4.609974e-14  0 
 -3.903246e-08  7.194356e-10  0 
 -3.087053e-08  2.390941e-08  0 
 -1.845320e-08  4.081362e-08  0 
 -3.757681e-09  5.239942e-08  0 
 2.059588e-08  5.841456e-08  0 
 3.013737e-08  5.841878e-08  0 
 3.961312e-08  5.840961e-08  0 
 1.118014e-08  -3.451180e-08  0 
 1.162564e-08  -1.136039e-08  0 
 1.194634e-08  1.186900e-08  0 
 4.208952e-08  3.578873e-08  0 
 3.216588e-08  3.589477e-08  0 
 2.220379e-08  3.608134e-08  0 
 -3.890805e-08  -5.288867e-10  0 
 -3.960863e-08  -1.132230e-10  0 
 -4.094480e-08  4.188486e-10  0 
 -6.500926e-09  4.256441e-08  0 
 -2.809419e-08  3.729595e-08  0 
 -4.328053e-08  2.206477e-08  0 
 -3.890805e-08  5.287890e-10  0 
 -3.960863e-08  1.131198e-10  0 
 -4.094480e-08  -4.189574e-10  0 
 -4.274193e-08  3.284864e-10  0 
 -4.276100e-08  -5.722884e-14  0 
 -4.274193e-08  -3.286008e-10  0 
 1.118015e-08  3.451170e-08  0 
 1.162565e-08  1.136028e-08  0 
 1.194635e-08  -1.186911e-08  0 
 -4.328052e-08  -2.206489e-08  0 
 -2.809418e-08  -3.729606e-08  0 
 -6.500914e-09  -4.256452e-08  0 
 4.908532e-08  3.483979e-08  0 
 4.937260e-08  1.145201e-08  0 
 5.023937e-08  -1.187656e-08  0 
 2.220380e-08  -3.608145e-08  0 
 3.216590e-08  -3.589488e-08  0 
 4.208954e-08  -3.578885e-08  0 
 3.967242e-08  -3.482662e-08  0 
 3.021705e-08  -3.477805e-08  0 
 2.071942e-08  -3.467575e-08  0 
 3.999923e-08  -1.145342e-08  0 
 3.055703e-08  -1.144480e-08  0 
 2.107643e-08  -1.141427e-08  0 
 4.081793e-08  1.189623e-08  0 
 3.125544e-08  1.192853e-08  0 
 2.162053e-08  1.193088e-08  0 
 -4.243568e-09  -2.666441e-08  0 
 -1.849587e-08  -1.846780e-08  0 
 -3.038940e-08  -9.652869e-09  0 
 -4.756867e-09  -8.721654e-09  0 
 -1.855747e-08  -5.952659e-09  0 
 -3.023794e-08  -3.171861e-09  0 
 -4.756295e-09  8.701148e-09  0 
 -2.014522e-08  6.450563e-09  0 
 -3.231538e-08  4.367830e-09  0 
 -3.921547e-08  -2.799940e-10  0 
 -3.932260e-08  -4.883010e-14  0 
 -3.921547e-08  2.798963e-10  0 
 -3.990157e-08  -4.277022e-11  0 
 -4.000267e-08  -5.160132e-14  0 
 -3.990157e-08  4.266701e-11  0 
 -4.116968e-08  2.277739e-10  0 
 -4.123154e-08  -5.440203e-14  0 
 -4.116968e-08  -2.278827e-10  0 
 -3.038939e-08  9.652771e-09  0 
 -1.849586e-08  1.846770e-08  0 
 -4.243557e-09  2.666431e-08  0 
 -3.023794e-08  3.171758e-09  0 
 -1.855746e-08  5.952555e-09  0 
 -4.756856e-09  8.721550e-09  0 
 -3.231537e-08  -4.367939e-09  0 
 -2.014521e-08  -6.450672e-09  0 
 -4.756283e-09  -8.701257e-09  0 
 2.071943e-08  3.467566e-08  0 
 3.021707e-08  3.477795e-08  0 
 3.967244e-08  3.482652e-08  0 
 2.107644e-08  1.141417e-08  0 
 3.055705e-08  1.144469e-08  0 
 3.999925e-08  1.145331e-08  0 
 2.162054e-08  -1.193099e-08  0 
 3.125545e-08  -1.192864e-08  0 
 4.081795e-08  -1.189634e-08  0 
VECTORS displacement_ITER8 FLOAT
 3.841058e-07  -1.937164e-07  0 
 3.805338e-07  8.122331e-07  0 
 -1.008081e-08  -1.909448e-07  0 
 -2.056687e-07  -2.457281e-09  0 
 -2.056687e-07  2.457267e-09  0 
 -1.008081e-08  1.909447e-07  0 
 3.841058e-07  1.937164e-07  0 
 -4.221416e-09  8.033549e-07  0 
 -2.083061e-07  2.134892e-08  0 
 -2.083061e-07  -2.134894e-08  0 
 -4.221413e-09  -8.033550e-07  0 
 3.805338e-07  -8.122332e-07  0 
 3.852399e-07  5.322416e-08  0 
 3.883496e-07  3.026207e-07  0 
 3.900877e-07  5.574088e-07  0 
 2.852797e-07  -1.936025e-07  0 
 1.864632e-07  -1.931571e-07  0 
 8.792570e-08  -1.922593e-07  0 
 -9.369892e-08  -1.356950e-07  0 
 -1.513862e-07  -8.768798e-08  0 
 -1.874814e-07  -4.438978e-08  0 
 -2.068817e-07  -1.235111e-09  0 
 -2.072838e-07  -7.323847e-15  0 
 -2.068817e-07  1.235096e-09  0 
 -1.874814e-07  4.438976e-08  0 
 -1.513862e-07  8.768796e-08  0 
 -9.369892e-08  1.356950e-07  0 
 8.792570e-08  1.922593e-07  0 
 1.864632e-07  1.931571e-07  0 
 2.852797e-07  1.936025e-07  0 
 -1.045254e-08  5.262785e-08  0 
 -1.321035e-08  2.992049e-07  0 
 -1.437301e-08  5.524891e-07  0 
 2.835374e-07  8.116181e-07  0 