# vtk DataFile Version 3.1
this is an vtk file created by FEMAC
ASCII
DATASET UNSTRUCTURED_GRID
POINTS 105 FLOAT
0.000000 0.000000 0.000000
0.500000 0.000000 0.000000
0.000000 0.200000 0.000000
0.500000 0.200000 0.000000
0.000000 0.400000 0.000000
0.500000 0.400000 0.000000
0.000000 0.600000 0.000000
0.500000 0.600000 0.000000
0.000000 0.800000 0.000000
0.500000 0.800000 0.000000
0.000000 1.000000 0.000000
0.500000 1.000000 0.000000
0.125000 0.000000 0.000000
0.250000 0.000000 0.000000
0.375000 0.000000 0.000000
0.125000 0.200000 0.000000
0.250000 0.200000 0.000000
0.375000 0.200000 0.000000
0.000000 0.050000 0.000000
0.000000 0.100000 0.000000
0.000000 0.150000 0.000000
0.500000 0.050000 0.000000
0.500000 0.100000 0.000000
0.500000 0.150000 0.000000
0.125000 0.400000 0.000000
0.250000 0.400000 0.000000
0.375000 0.400000 0.000000
0.000000 0.250000 0.000000
0.000000 0.300000 0.000000
0.000000 0.350000 0.000000
0.500000 0.250000 0.000000
0.500000 0.300000 0.000000
0.500000 0.350000 0.000000
0.125000 0.600000 0.000000
0.250000 0.600000 0.000000
0.375000 0.600000 0.000000
0.000000 0.450000 0.000000
0.000000 0.500000 0.000000
0.000000 0.550000 0.000000
0.500000 0.450000 0.000000
0.500000 0.500000 0.000000
0.500000 0.550000 0.000000
0.125000 0.800000 0.000000
0.250000 0.800000 0.000000
0.375000 0.800000 0.000000
0.000000 0.650000 0.000000
0.000000 0.700000 0.000000
0.000000 0.750000 0.000000
0.500000 0.650000 0.000000
0.500000 0.700000 0.000000
0.500000 0.750000 0.000000
0.125000 1.000000 0.000000
0.250000 1.000000 0.000000
0.375000 1.000000 0.000000
0.000000 0.850000 0.000000
0.000000 0.900000 0.000000
0.000000 0.950000 0.000000
0.500000 0.850000 0.000000
0.500000 0.900000 0.000000
0.500000 0.950000 0.000000
0.125000 0.050000 0.000000
0.125000 0.100000 0.000000
0.125000 0.150000 0.000000
0.250000 0.050000 0.000000
0.250000 0.100000 0.000000
0.250000 0.150000 0.000000
0.375000 0.050000 0.000000
0.375000 0.100000 0.000000
0.375000 0.150000 0.000000
0.125000 0.250000 0.000000
0.125000 0.300000 0.000000
0.125000 0.350000 0.000000
0.250000 0.250000 0.000000
0.250000 0.300000 0.000000
0.250000 0.350000 0.000000
0.375000 0.250000 0.000000
0.375000 0.300000 0.000000
0.375000 0.350000 0.000000
0.125000 0.450000 0.000000
0.125000 0.500000 0.000000
0.125000 0.550000 0.000000
0.250000 0.450000 0.000000
0.250000 0.500000 0.000000
0.250000 0.550000 0.000000
0.375000 0.450000 0.000000
0.375000 0.500000 0.000000
0.375000 0.550000 0.000000
0.125000 0.650000 0.000000
0.125000 0.700000 0.000000
0.125000 0.750000 0.000000
0.250000 0.650000 0.000000
0.250000 0.700000 0.000000
0.250000 0.750000 0.000000
0.375000 0.650000 0.000000
0.375000 0.700000 0.000000
0.375000 0.750000 0.000000
0.125000 0.850000 0.000000
0.125000 0.900000 0.000000
0.125000 0.950000 0.000000
0.250000 0.850000 0.000000
0.250000 0.900000 0.000000
0.250000 0.950000 0.000000
0.375000 0.850000 0.000000
0.375000 0.900000 0.000000
0.375000 0.950000 0.000000
CELLS 80 400 
4 0 12 60 18
4 18 60 61 19
4 19 61 62 20
4 20 62 15  2
4 12 13 63 60
4 60 63 64 61
4 61 64 65 62
4 62 65 16 15
4 13 14 66 63
4 63 66 67 64
4 64 67 68 65
4 65 68 17 16
4 14  1 21 66
4 66 21 22 67
4 67 22 23 68
4 68 23  3 17
4 2 15 69 27
4 27 69 70 28
4 28 70 71 29
4 29 71 24  4
4 15 16 72 69
4 69 72 73 70
4 70 73 74 71
4 71 74 25 24
4 16 17 75 72
4 72 75 76 73
4 73 76 77 74
4 74 77 26 25
4 17  3 30 75
4 75 30 31 76
4 76 31 32 77
4 77 32  5 26
4 4 24 78 36
4 36 78 79 37
4 37 79 80 38
4 38 80 33  6
4 24 25 81 78
4 78 81 82 79
4 79 82 83 80
4 80 83 34 33
4 25 26 84 81
4 81 84 85 82
4 82 85 86 83
4 83 86 35 34
4 26  5 39 84
4 84 39 40 85
4 85 40 41 86
4 86 41  7 35
4 6 33 87 45
4 45 87 88 46
4 46 88 89 47
4 47 89 42  8
4 33 34 90 87
4 87 90 91 88
4 88 91 92 89
4 89 92 43 42
4 34 35 93 90
4 90 93 94 91
4 91 94 95 92
4 92 95 44 43
4 35  7 48 93
4 93 48 49 94
4 94 49 50 95
4 95 50  9 44
4 8 42 96 54
4 54 96 97 55
4 55 97 98 56
4 56 98 51 10
4 42 43 99 96
4 96  99 100  97
4 97 100 101  98
4 98 101  52  51
4 43  44 102  99
4 99 102 103 100
4 100 103 104 101
4 101 104  53  52
4 44   9  57 102
4 102  57  58 103
4 103  58  59 104
4 104  59  11  53
CELL_TYPES 80
9 9 9 9 9 9 9 9 9 9 9 9 9 9 9 9 9 9 9 9 9 9 9 9 9 9 9 9 9 9 9 9 9 9 9 9 9 9 9 9 9 9 9 9 9 9 9 9 9 9 9 9 9 9 9 9 9 9 9 9 9 9 9 9 9 9 9 9 9 9 9 9 9 9 9 9 9 9 9 9 
POINT_DATA 105
VECTORS displacement_ITER1 FLOAT
 0  0  0 
 -4.303229e-16  -1.569585e-16  0 
 0  -3.407215e-17  0 
 -5.021650e-16  -1.244800e-16  0 
 0  1.802518e-17  0 
 -2.384858e-16  -4.723812e-16  0 
 0  1.476422e-17  0 
 2.025414e-16  -4.726308e-16  0 
 0  -3.602214e-16  0 
 5.039092e-16  -2.449081e-16  0 
 0  -3.653488e-16  0 
 3.473017e-16  -2.736099e-16  0 
 -1.524851e-16  -6.049551e-17  0 
 -2.619492e-16  -1.150808e-16  0 
 -3.495099e-16  -1.478544e-16  0 
 -8.213387e-17  -5.897740e-17  0 
 -1.894636e-16  -1.158220e-16  0 
 -3.351556e-16  -1.690966e-16  0 
 0  -1.905097e-17  0 
 0  -2.875015e-17  0 
 0  -3.303788e-17  0 
 -4.299497e-16  -1.544240e-16  0 
 -4.334490e-16  -1.464551e-16  0 
 -4.523675e-16  -1.343150e-16  0 
 -4.439620e-17  -5.745796e-18  0 
 -9.866388e-17  -8.289931e-17  0 
 -1.682147e-16  -2.262850e-16  0 
 0  -2.790663e-17  0 
 0  -1.556544e-17  0 
 0  4.737415e-19  0 
 -1.234143e-15  -3.157193e-16  0 
 -1.283459e-15  -5.533485e-16  0 
 -9.132380e-16  -6.605178e-16  0 
 3.780426e-17  -8.800441e-18  0 
 8.485839e-17  -8.588836e-17  0 
 1.450253e-16  -2.304896e-16  0 
 0  1.824449e-17  0 
 0  1.781170e-17  0 
 0  1.664615e-17  0 
 -1.187325e-16  -4.622336e-16  0 
 -1.513338e-17  -4.581585e-16  0 
 8.717227e-17  -4.622331e-16  0 
 1.048528e-16  -3.608196e-16  0 
 2.179555e-16  -3.592265e-16  0 
 3.539549e-16  -3.446417e-16  0 
 0  -7.412926e-17  0 
 0  -1.671304e-16  0 
 0  -2.628819e-16  0 
 8.177249e-16  -6.993507e-16  0 
 1.180724e-15  -6.294219e-16  0 
 1.158822e-15  -4.219380e-16  0 
 1.016529e-16  -3.665724e-16  0 
 1.915423e-16  -3.603341e-16  0 
 2.691825e-16  -3.275148e-16  0 
 0  -3.624777e-16  0 
 0  -3.641300e-16  0 
 0  -3.650728e-16  0 
 4.370910e-16  -2.535002e-16  0 
 3.971264e-16  -2.643254e-16  0 
 3.704408e-16  -2.713606e-16  0 
 -1.288048e-16  -5.776518e-17  0 
 -1.127069e-16  -5.840432e-17  0 
 -9.821317e-17  -5.890902e-17  0 
 -2.453468e-16  -1.157247e-16  0 
 -2.292153e-16  -1.160351e-16  0 
 -2.117222e-16  -1.164225e-16  0 
 -3.426034e-16  -1.488916e-16  0 
 -3.387813e-16  -1.531091e-16  0 
 -3.378070e-16  -1.608873e-16  0 
 -7.779156e-17  -4.950556e-17  0 
 -7.300479e-17  -3.667657e-17  0 
 -5.921480e-17  -2.185076e-17  0 
 -1.816328e-16  -1.007683e-16  0 
 -1.542198e-16  -9.622070e-17  0 
 -1.382566e-16  -9.233520e-17  0 
 -3.707642e-16  -2.433103e-16  0 
 -3.787214e-16  -1.847538e-16  0 
 -2.802700e-16  -1.393015e-16  0 
 -2.426417e-17  -5.517606e-18  0 
 -3.397475e-18  -5.796101e-18  0 
 1.752949e-17  -6.992206e-18  0 
 -5.425248e-17  -8.273239e-17  0 
 -7.332784e-18  -8.330947e-17  0 
 3.981926e-17  -8.428904e-17  0 
 -8.996110e-17  -2.312950e-16  0 
 -1.160157e-17  -2.341921e-16  0 
 6.664632e-17  -2.335618e-16  0 
 6.379578e-17  -9.266720e-17  0 
 8.613583e-17  -1.796756e-16  0 
 9.743302e-17  -2.693379e-16  0 
 1.418772e-16  -1.529308e-16  0 
 1.721379e-16  -2.165119e-16  0 
 2.069073e-16  -2.824567e-16  0 
 2.700699e-16  -1.943188e-16  0 
 3.778833e-16  -2.770533e-16  0 
 3.834907e-16  -3.712845e-16  0 
 1.044896e-16  -3.630419e-16  0 
 1.034702e-16  -3.650404e-16  0 
 1.021946e-16  -3.662237e-16  0 
 2.149880e-16  -3.610655e-16  0 
 2.081558e-16  -3.612525e-16  0 
 1.995731e-16  -3.606500e-16  0 
 3.319953e-16  -3.381565e-16  0 
 3.087321e-16  -3.317838e-16  0 
 2.879926e-16  -3.284113e-16  0 
VECTORS displacement_ITER2 FLOAT
 0  0  0 
 -2.134332e-16  -2.984745e-16  0 
 0  -1.090232e-17  0 
 -1.756254e-16  -2.664703e-16  0 
 0  2.150561e-16  0 
 -5.579679e-17  2.865633e-16  0 
 0  2.141909e-16  0 
 6.571146e-17  2.816252e-16  0 
 0  -1.096880e-16  0 
 2.056125e-16  -2.251276e-16  0 
 0  -1.140868e-16  0 
 1.776748e-16  -2.596144e-16  0 
 -9.127112e-17  -4.421984e-17  0 
 -1.588934e-16  -1.229352e-16  0 
 -2.020838e-16  -2.169639e-16  0 
 -2.940072e-18  -4.042296e-17  0 
 -2.180025e-17  -1.175008e-16  0 
 -7.075385e-17  -2.198661e-16  0 
 0  -7.420403e-18  0 
 0  -1.085166e-17  0 
 0  -1.172346e-17  0 
 -1.918163e-16  -2.971319e-16  0 
 -1.726018e-16  -2.923192e-16  0 
 -1.639033e-16  -2.827161e-16  0 
 2.100571e-17  2.294143e-16  0 
 2.868054e-17  2.640664e-16  0 
 8.211368e-18  2.996398e-16  0 
 0  4.483657e-17  0 
 0  1.021032e-16  0 
 0  1.593493e-16  0 
 -2.572403e-16  -1.115683e-16  0 
 -2.419859e-16  2.027753e-16  0 
 -2.409593e-16  3.915556e-16  0 
 -1.710810e-17  2.286894e-16  0 
 -2.136345e-17  2.641205e-16  0 
 2.864316e-18  2.995713e-16  0 
 0  2.161385e-16  0 
 0  2.164178e-16  0 
 0  2.157079e-16  0 
 -1.784093e-17  2.847307e-16  0 
 5.179173e-18  2.838861e-16  0 
 2.811921e-17  2.820780e-16  0 
 2.138416e-17  -1.256759e-16  0 
 5.167975e-17  -1.684220e-16  0 
 1.054587e-16  -2.255891e-16  0 
 0  1.391160e-16  0 
 0  5.934447e-17  0 
 0  -2.394722e-17  0 
 3.186786e-16  3.634559e-16  0 
 3.486466e-16  2.215509e-16  0 
 3.380433e-16  -4.781034e-17  0 
 6.827900e-17  -1.308677e-16  0 
 1.258436e-16  -1.735292e-16  0 
 1.650101e-16  -2.234600e-16  0 
 0  -1.116956e-16  0 
 0  -1.131142e-16  0 
 0  -1.138781e-16  0 
 1.793420e-16  -2.423537e-16  0 
 1.719831e-16  -2.527995e-16  0 
 1.739777e-16  -2.580975e-16  0 
 -6.629846e-17  -4.295862e-17  0 
 -4.489507e-17  -4.260169e-17  0 
 -2.432377e-17  -4.173975e-17  0 
 -1.245228e-16  -1.230198e-16  0 
 -9.147980e-17  -1.222473e-16  0 
 -5.796715e-17  -1.204239e-16  0 
 -1.668768e-16  -2.169138e-16  0 
 -1.359284e-16  -2.174613e-16  0 
 -1.057687e-16  -2.188599e-16  0 
 1.098369e-17  2.714496e-17  0 
 1.963811e-17  9.525247e-17  0 
 2.278015e-17  1.629606e-16  0 
 4.240976e-19  -2.366897e-17  0 
 1.625656e-17  7.465028e-17  0 
 2.659881e-17  1.720988e-16  0 
 -3.552811e-17  -6.577684e-17  0 
 -2.554178e-17  5.462464e-17  0 
 -1.389260e-17  1.726214e-16  0 
 1.109404e-17  2.306276e-16  0 
 1.980095e-18  2.309646e-16  0 
 -7.172431e-18  2.302801e-16  0 
 1.509444e-17  2.664901e-16  0 
 3.642339e-18  2.677594e-16  0 
 -7.731320e-18  2.666531e-16  0 
 2.722960e-18  2.998807e-16  0 
 4.445669e-18  2.988128e-16  0 
 6.646190e-18  2.995772e-16  0 
 -1.283229e-17  1.452720e-16  0 
 -4.780876e-18  5.783370e-17  0 
 6.425479e-18  -3.273151e-17  0 
 -8.855143e-18  1.604314e-16  0 
 7.479149e-18  5.182508e-17  0 
 2.894649e-17  -5.917143e-17  0 
 4.228551e-17  1.808667e-16  0 
 6.721374e-17  5.050825e-17  0 
 7.672784e-17  -8.087765e-17  0 
 3.325886e-17  -1.277695e-16  0 
 4.467218e-17  -1.295403e-16  0 
 5.608484e-17  -1.305621e-16  0 
 7.209274e-17  -1.715220e-16  0 
 9.003929e-17  -1.731700e-16  0 
 1.073420e-16  -1.735677e-16  0 
 1.215681e-16  -2.245189e-16  0 
 1.340663e-16  -2.234789e-16  0 
 1.476466e-16  -2.233092e-16  0 
VECTORS displacement_ITER3 FLOAT
 0  0  0 
 -2.170457e-16  -1.621019e-16  0 
 0  -1.401505e-17  0 
 -2.653741e-16  -1.462506e-16  0 
 0  1.599383e-16  0 
 -1.041082e-16  1.013700e-16  0 
 0  1.582189e-16  0 
 9.065645e-17  9.707753e-17  0 
 0  -1.763362e-16  0 
 2.641403e-16  -2.165445e-16  0 
 0  -1.806174e-16  0 
 1.798011e-16  -2.356224e-16  0 
 -8.777888e-17  -3.846207e-17  0 
 -1.498087e-16  -9.181035e-17  0 
 -1.884303e-16  -1.375371e-16  0 
 -2.593295e-17  -3.508957e-17  0 
 -6.754297e-17  -8.655089e-17  0 
 -1.361273e-16  -1.512908e-16  0 
 0  -8.760725e-18  0 
 0  -1.303573e-17  0 
 0  -1.446512e-17  0 
 -2.066744e-16  -1.620737e-16  0 
 -2.048322e-16  -1.606763e-16  0 
 -2.194385e-16  -1.560377e-16  0 
 3.101699e-18  1.648313e-16  0 
 -5.429292e-18  1.719865e-16  0 
 -3.703792e-17  1.644180e-16  0 
 0  2.928911e-17  0 
 0  7.376657e-17  0 
 0  1.177488e-16  0 
 -4.087573e-16  -1.316018e-16  0 
 -3.926688e-16  5.017230e-17  0 
 -3.239808e-16  1.758804e-16  0 
 -5.234964e-18  1.632325e-16  0 
 9.207976e-19  1.707454e-16  0 
 3.021780e-17  1.623784e-16  0 
 0  1.607038e-16  0 
 0  1.607448e-16  0 
 0  1.598486e-16  0 
 -4.655779e-17  9.751915e-17  0 
 -5.162264e-18  9.651553e-17  0 
 3.558450e-17  9.558754e-17  0 
 3.589528e-17  -1.867357e-16  0 
 7.989378e-17  -2.128497e-16  0 
 1.446617e-16  -2.478142e-16  0 
 0  7.988553e-17  0 
 0  -2.629458e-18  0 
 0  -8.840942e-17  0 
 3.190047e-16  1.441333e-16  0 
 3.884246e-16  1.392071e-17  0 
 4.017954e-16  -1.740568e-16  0 
 6.528465e-17  -1.921602e-16  0 
 1.191507e-16  -2.186713e-16  0 
 1.541755e-16  -2.368673e-16  0 
 0  -1.783662e-16  0 
 0  -1.797376e-16  0 
 0  -1.804284e-16  0 
 2.123796e-16  -2.280109e-16  0 
 1.892268e-16  -2.335721e-16  0 
 1.808454e-16  -2.354234e-16  0 
 -6.892079e-17  -3.702457e-17  0 
 -5.412023e-17  -3.672124e-17  0 
 -4.043985e-17  -3.606135e-17  0 
 -1.298682e-16  -9.176420e-17  0 
 -1.109125e-16  -9.081350e-17  0 
 -9.057133e-17  -8.900128e-17  0 
 -1.763662e-16  -1.387606e-16  0 
 -1.655965e-16  -1.425287e-16  0 
 -1.546422e-16  -1.478586e-16  0 
 -1.583133e-17  1.582109e-17  0 
 -7.605256e-18  6.653674e-17  0 
 -1.337860e-18  1.165246e-16  0 
 -5.057128e-17  -2.172975e-17  0 
 -3.495723e-17  4.561268e-17  0 
 -1.976828e-17  1.111598e-16  0 
 -1.189950e-16  -5.659510e-17  0 
 -1.044395e-16  2.116422e-17  0 
 -7.773207e-17  9.441721e-17  0 
 6.320127e-19  1.656424e-16  0 
 -1.054924e-18  1.656656e-16  0 
 -2.764548e-18  1.648599e-16  0 
 -4.763678e-18  1.735653e-16  0 
 -2.384368e-18  1.743233e-16  0 
 1.318310e-19  1.730238e-16  0 
 -2.389617e-17  1.640813e-16  0 
 -4.109162e-18  1.623598e-16  0 
 1.589062e-17  1.627242e-16  0 
 3.818285e-18  8.035983e-17  0 
 1.381292e-17  -6.124858e-18  0 
 2.453679e-17  -9.525434e-17  0 
 2.266410e-17  7.918524e-17  0 
 4.295429e-17  -1.711147e-17  0 
 6.213942e-17  -1.159714e-16  0 
 7.822422e-17  6.940042e-17  0 
 1.113967e-16  -2.995040e-17  0 
 1.282313e-16  -1.321410e-16  0 
 4.323417e-17  -1.888214e-16  0 
 5.015801e-17  -1.906766e-16  0 
 5.728053e-17  -1.918237e-16  0 
 9.199157e-17  -2.159004e-16  0 
 1.016572e-16  -2.178405e-16  0 
 1.098767e-16  -2.185311e-16  0 
 1.516406e-16  -2.450383e-16  0 
 1.520465e-16  -2.407545e-16  0 
 1.524777e-16  -2.378277e-16  0 
VECTORS displacement_ITER4 FLOAT
 0  0  0 
 -1.719375e-16  -4.650148e-17  0 
 0  -1.274390e-17  0 
 -2.878666e-16  -4.349754e-17  0 
 0  1.488867e-16  0 
 -1.177064e-16  1.834026e-17  0 
 0  1.476923e-16  0 
 1.040693e-16  1.483254e-17  0 
 0  -1.341083e-16  0 
 2.853518e-16  -6.821761e-17  0 
 0  -1.376261e-16  0 
 1.333478e-16  -7.285174e-17  0 
 -7.082673e-17  -2.885307e-17  0 
 -1.177439e-16  -5.871755e-17  0 
 -1.434626e-16  -6.597514e-17  0 
 -3.449773e-17  -2.561294e-17  0 
 -8.280005e-17  -5.354031e-17  0 
 -1.532617e-16  -8.478165e-17  0 
 0  -7.942345e-18  0 
 0  -1.187036e-17  0 
 0  -1.317455e-17  0 
 -1.738627e-16  -4.660285e-17  0 
 -1.865758e-16  -4.626080e-17  0 
 -2.178272e-16  -4.515374e-17  0 
 -6.643265e-18  1.474387e-16  0 
 -2.281496e-17  1.367358e-16  0 
 -5.601866e-17  1.025626e-16  0 
 0  2.787196e-17  0 
 0  6.926589e-17  0 
 0  1.099320e-16  0 
 -3.978818e-16  -1.073251e-16  0 
 -3.792839e-16  -2.478724e-17  0 
 -2.792213e-16  5.697460e-17  0 
 4.379403e-18  1.463524e-16  0 
 1.796948e-17  1.359359e-16  0 
 4.856877e-17  1.012612e-16  0 
 0  1.496134e-16  0 
 0  1.497456e-16  0 
 0  1.490254e-16  0 
 -5.427233e-17  1.095477e-17  0 
 -5.540711e-18  9.354389e-18  0 
 4.270757e-17  9.687497e-18  0 
 4.443842e-17  -1.360455e-16  0 
 9.527515e-17  -1.375092e-16  0 
 1.615292e-16  -1.373025e-16  0 
 0  8.279291e-17  0 
 0  1.371794e-17  0 
 0  -5.889723e-17  0 
 2.632238e-16  5.372968e-17  0 
 3.551703e-16  -3.276800e-17  0 
 3.798729e-16  -1.229037e-16  0 
 4.767321e-17  -1.408501e-16  0 
 8.497283e-17  -1.430039e-16  0 
 1.061773e-16  -1.204096e-16  0 
 0  -1.358414e-16  0 
 0  -1.369724e-16  0 
 0  -1.374863e-16  0 
 2.091760e-16  -7.163906e-17  0 
 1.689942e-16  -7.302026e-17  0 
 1.460494e-16  -7.309810e-17  0 
 -5.854148e-17  -2.751144e-17  0 
 -5.000180e-17  -2.711379e-17  0 
 -4.264340e-17  -2.648594e-17  0 
 -1.100390e-16  -5.859817e-17  0 
 -1.030036e-16  -5.759095e-17  0 
 -9.397446e-17  -5.563981e-17  0 
 -1.488725e-16  -6.789739e-17  0 
 -1.541376e-16  -7.343028e-17  0 
 -1.588186e-16  -8.093418e-17  0 
 -2.849269e-17  1.889887e-17  0 
 -2.154004e-17  6.290023e-17  0 
 -1.445669e-17  1.060641e-16  0 
 -7.162688e-17  -4.881939e-18  0 
 -5.991002e-17  4.503267e-17  0 
 -4.284415e-17  9.296302e-17  0 
 -1.500623e-16  -2.498365e-17  0 
 -1.303671e-16  2.315493e-17  0 
 -1.023174e-16  6.430903e-17  0 
 -4.263523e-18  1.481473e-16  0 
 -1.136615e-18  1.481640e-16  0 
 1.974541e-18  1.476150e-16  0 
 -1.318070e-17  1.377937e-16  0 
 -2.538035e-18  1.385083e-16  0 
 8.234355e-18  1.374752e-16  0 
 -3.330015e-17  1.028970e-16  0 
 -4.288513e-18  1.014155e-16  0 
 2.485930e-17  1.018947e-16  0 
 1.695585e-17  8.067755e-17  0 
 2.775617e-17  1.128529e-17  0 
 3.728028e-17  -6.099088e-17  0 
 4.568314e-17  7.230549e-17  0 
 6.836075e-17  3.757319e-18  0 
 8.343276e-17  -6.741058e-17  0 
 1.008853e-16  4.782852e-17  0 
 1.342359e-16  -5.176530e-18  0 
 1.567493e-16  -6.420588e-17  0 
 4.513987e-17  -1.377891e-16  0 
 4.547419e-17  -1.394115e-16  0 
 4.615871e-17  -1.405211e-16  0 
 9.496936e-17  -1.400260e-16  0 
 9.279108e-17  -1.420048e-16  0 
 8.855033e-17  -1.427798e-16  0 
 1.550175e-16  -1.337845e-16  0 
 1.393365e-16  -1.270967e-16  0 
 1.230667e-16  -1.221711e-16  0 
VECTORS displacement_ITER5 FLOAT
 0  0  0 
 -9.619096e-17  3.659931e-17  0 
 0  -7.740234e-18  0 
 -2.641759e-16  3.624082e-17  0 
 0  1.807451e-16  0 
 -1.059819e-16  6.591231e-17  0 
 0  1.804545e-16  0 
 9.604848e-17  6.293094e-17  0 
 0  -5.298785e-17  0 
 2.624856e-16  8.046299e-17  0 
 0  -5.594608e-17  0 
 6.296129e-17  8.022486e-17  0 
 -4.722911e-17  -1.744559e-17  0 
 -7.516280e-17  -2.872839e-17  0 
 -8.447738e-17  -1.131750e-17  0 
 -3.173464e-17  -1.391364e-17  0 
 -7.485495e-17  -2.364489e-17  0 
 -1.361141e-16  -2.835517e-17  0 
 0  -5.394622e-18  0 
 0  -7.969978e-18  0 
 0  -8.518849e-18  0 
 -1.129470e-16  3.789228e-17  0 
 -1.381474e-16  4.070466e-17  0 
 -1.800932e-16  4.192700e-17  0 
 -6.116197e-18  1.792887e-16  0 
 -2.074700e-17  1.691442e-16  0 
 -4.932850e-17  1.367907e-16  0 
 0  4.097398e-17  0 
 0  8.933756e-17  0 
 0  1.361871e-16  0 
 -2.739065e-16  -8.138734e-18  0 
 -2.579967e-16  3.338304e-17  0 
 -1.634988e-16  8.798761e-17  0 
 4.556059e-18  1.790860e-16  0 
 1.727785e-17  1.692092e-16  0 
 4.406187e-17  1.367210e-16  0 
 0  1.816215e-16  0 
 0  1.819770e-16  0 
 0  1.814865e-16  0 
 -4.890421e-17  5.409104e-17  0 
 -4.219356e-18  5.171197e-17  0 
 4.021996e-17  5.331651e-17  0 
 4.058325e-17  -4.964397e-17  0 
 8.673737e-17  -3.560988e-17  0 
 1.449297e-16  -1.108108e-17  0 
 0  1.282341e-16  0 
 0  7.153683e-17  0 
 0  1.089660e-17  0 
 1.512984e-16  1.131928e-16  0 
 2.358098e-16  6.414738e-17  0 
 2.603310e-16  2.502797e-17  0 
 2.737324e-17  -5.381398e-17  0 
 4.554646e-17  -4.045533e-17  0 
 5.025573e-17  5.401876e-18  0 
 0  -5.447311e-17  0 
 0  -5.545133e-17  0 
 0  -5.584334e-17  0 
 1.727746e-16  8.421027e-17  0 
 1.227657e-16  8.317660e-17  0 
 8.863390e-17  8.114022e-17  0 
 -4.094702e-17  -1.640601e-17  0 
 -3.746685e-17  -1.577494e-17  0 
 -3.498198e-17  -1.498438e-17  0 
 -7.618737e-17  -2.865192e-17  0 
 -7.765446e-17  -2.778830e-17  0 
 -7.690548e-17  -2.560289e-17  0 
 -1.000606e-16  -1.316329e-17  0 
 -1.162246e-16  -1.858001e-17  0 
 -1.323123e-16  -2.614492e-17  0 
 -2.784241e-17  3.658251e-17  0 
 -2.156465e-17  8.600883e-17  0 
 -1.484038e-17  1.338664e-16  0 
 -6.677511e-17  2.654126e-17  0 
 -5.886689e-17  7.687800e-17  0 
 -4.116455e-17  1.252605e-16  0 
 -1.378709e-16  2.840174e-17  0 
 -1.138596e-16  6.965049e-17  0 
 -9.403013e-17  1.011413e-16  0 
 -3.833883e-18  1.801256e-16  0 
 -7.866810e-19  1.802699e-16  0 
 2.242724e-18  1.800259e-16  0 
 -1.148192e-17  1.700551e-16  0 
 -1.798956e-18  1.709794e-16  0 
 7.989496e-18  1.701862e-16  0 
 -2.959035e-17  1.384968e-16  0 
 -3.148526e-18  1.375063e-16  0 
 2.341240e-17  1.380940e-16  0 
 1.749145e-17  1.275094e-16  0 
 2.741278e-17  7.181152e-17  0 
 3.586480e-17  1.263717e-17  0 
 4.462576e-17  1.234524e-16  0 
 6.747938e-17  7.203818e-17  0 
 7.824811e-17  1.824464e-17  0 
 9.395185e-17  1.020938e-16  0 
 1.179011e-16  7.748402e-17  0 
 1.441855e-16  4.309996e-17  0 
 3.720380e-17  -5.110970e-17  0 
 3.340727e-17  -5.245150e-17  0 
 3.002017e-17  -5.349009e-17  0 
 7.830689e-17  -3.764102e-17  0 
 6.878896e-17  -3.965171e-17  0 
 5.700654e-17  -4.030342e-17  0 
 1.297402e-16  -8.645670e-18  0 
 1.034683e-16  -1.514903e-18  0 
 7.698458e-17  3.604571e-18  0 
VECTORS displacement_ITER6 FLOAT
 0  0  0 
 -9.868584e-17  5.145121e-17  0 
 0  -9.689349e-18  0 
 -2.919953e-16  5.677810e-17  0 
 0  1.702905e-16  0 
 -1.144184e-16  2.681792e-17  0 
 0  1.692387e-16  0 
 1.158353e-16  2.141703e-17  0 
 0  -1.142952e-16  0 
 3.013960e-16  3.959610e-17  0 
 0  -1.180117e-16  0 
 7.318479e-17  3.053289e-17  0 
 -5.062714e-17  -1.900235e-17  0 
 -7.990325e-17  -2.764086e-17  0 
 -9.077303e-17  -5.001389e-18  0 
 -3.681830e-17  -1.557188e-17  0 
 -8.671826e-17  -2.349565e-17  0 
 -1.570192e-16  -2.037062e-17  0 
 0  -6.485184e-18  0 
 0  -9.606139e-18  0 
 0  -1.037245e-17  0 
 -1.245036e-16  5.429519e-17  0 
 -1.558563e-16  6.076326e-17  0 
 -2.026321e-16  6.543900e-17  0 
 -7.261901e-18  1.674684e-16  0 
 -2.383382e-17  1.527431e-16  0 
 -5.493961e-17  1.110570e-16  0 
 0  3.718255e-17  0 
 0  8.358773e-17  0 
 0  1.282903e-16  0 
 -3.185506e-16  2.761077e-17  0 
 -3.077334e-16  1.536207e-17  0 
 -1.870311e-16  2.483167e-17  0 
 8.350144e-18  1.664950e-16  0 
 2.562758e-17  1.521717e-16  0 
 5.792963e-17  1.106012e-16  0 
 0  1.710693e-16  0 
 0  1.712731e-16  0 
 0  1.705507e-16  0 
 -5.112070e-17  1.435026e-17  0 
 7.305597e-19  1.168703e-17  0 
 5.260972e-17  1.234393e-17  0 
 4.765577e-17  -1.108939e-16  0 
 1.023883e-16  -9.617874e-17  0 
 1.725975e-16  -6.573691e-17  0 
 0  1.047545e-16  0 
 0  3.550958e-17  0 
 0  -3.775778e-17  0 
 2.093208e-16  1.951576e-17  0 
 3.329543e-16  2.237464e-18  0 
 3.444309e-16  1.003709e-17  0 
 3.324647e-17  -1.157030e-16  0 
 5.605494e-17  -1.004933e-16  0 
 6.467599e-17  -5.132746e-17  0 
 0  -1.160785e-16  0 
 0  -1.173296e-16  0 
 0  -1.178688e-16  0 
 2.048764e-16  4.527563e-17  0 
 1.495224e-16  3.976939e-17  0 
 1.088351e-16  3.329560e-17  0 
 -4.452640e-17  -1.780408e-17  0 
 -4.159876e-17  -1.724467e-17  0 
 -3.969268e-17  -1.659887e-17  0 
 -8.279678e-17  -2.774890e-17  0 
 -8.601273e-17  -2.717157e-17  0 
 -8.701411e-17  -2.514774e-17  0 
 -1.083806e-16  -6.536569e-18  0 
 -1.280517e-16  -1.144052e-17  0 
 -1.486654e-16  -1.891672e-17  0 
 -3.280861e-17  3.275693e-17  0 
 -2.610217e-17  7.994581e-17  0 
 -1.787987e-17  1.251276e-16  0 
 -7.844268e-17  2.427160e-17  0 
 -6.816063e-17  6.988292e-17  0 
 -4.843654e-17  1.133576e-16  0 
 -1.618886e-16  2.178422e-17  0 
 -1.380937e-16  6.270844e-17  0 
 -1.109245e-16  9.138873e-17  0 
 -3.779667e-18  1.682156e-16  0 
 5.532422e-19  1.681942e-16  0 
 4.855380e-18  1.677237e-16  0 
 -1.170103e-17  1.534417e-16  0 
 9.034247e-19  1.542231e-16  0 
 1.358257e-17  1.532922e-16  0 
 -3.042244e-17  1.127359e-16  0 
 7.781580e-19  1.116041e-16  0 
 3.222892e-17  1.121225e-16  0 
 2.286797e-17  1.031226e-16  0 
 3.415894e-17  3.530282e-17  0 
 4.283269e-17  -3.629196e-17  0 
 5.676094e-17  9.561830e-17  0 
 8.083708e-17  3.423791e-17  0 
 9.394499e-17  -2.966709e-17  0 
 1.205671e-16  7.911992e-17  0 
 1.533167e-16  3.885405e-17  0 
 1.780416e-16  -1.373085e-17  0 
 4.416013e-17  -1.126622e-16  0 
 4.004878e-17  -1.141676e-16  0 
 3.625410e-17  -1.153294e-16  0 
 9.280641e-17  -9.823017e-17  0 
 8.198001e-17  -1.002087e-16  0 
 6.885850e-17  -1.005373e-16  0 
 1.529811e-16  -6.410007e-17  0 
 1.222555e-16  -5.715501e-17  0 
 9.260066e-17  -5.272391e-17  0 
VECTORS displacement_ITER7 FLOAT
 0  0  0 
 -6.078216e-17  5.120660e-17  0 
 0  -5.396527e-18  0 
 -2.562709e-16  6.232886e-17  0 
 0  2.045501e-16  0 
 -9.210261e-17  1.518862e-16  0 
 0  2.036266e-16  0 
 8.650291e-17  1.472850e-16  0 
 0  -8.913980e-17  0 
 2.497395e-16  1.763210e-17  0 
 0  -9.307024e-17  0 
 4.429377e-17  1.500305e-18  0 
 -4.061806e-17  -1.429844e-17  0 
 -6.349227e-17  -2.153755e-17  0 
 -6.863363e-17  -2.543297e-18  0 
 -2.910762e-17  -1.049471e-17  0 
 -7.024245e-17  -1.747198e-17  0 
 -1.317814e-16  -1.124873e-17  0 
 0  -4.411379e-18  0 
 0  -6.358511e-18  0 
 0  -6.431362e-18  0 
 -9.215241e-17  5.468046e-17  0 
 -1.264635e-16  6.334465e-17  0 
 -1.742378e-16  7.208583e-17  0 
 1.684630e-18  2.081531e-16  0 
 -6.587570e-18  2.124468e-16  0 
 -3.209209e-17  2.004556e-16  0 
 0  5.085482e-17  0 
 0  1.053519e-16  0 
 0  1.568986e-16  0 
 -1.946199e-16  1.227014e-16  0 
 -1.734715e-16  1.546764e-16  0 
 -1.181460e-16  1.608860e-16  0 
 -2.796410e-18  2.072725e-16  0 
 4.189238e-18  2.117602e-16  0 
 2.890408e-17  1.997262e-16  0 
 0  2.054339e-16  0 
 0  2.056945e-16  0 
 0  2.049760e-16  0 
 -4.295746e-17  1.396723e-16  0 
 -2.613808e-18  1.372931e-16  0 
 3.753833e-17  1.380260e-16  0 
 3.286139e-17  -8.942176e-17  0 
 7.377208e-17  -8.540126e-17  0 
 1.322479e-16  -6.738575e-17  0 
 0  1.369540e-16  0 
 0  6.541151e-17  0 
 0  -1.023263e-17  0 
 1.091193e-16  1.549993e-16  0 
 1.636092e-16  1.312674e-16  0 
 1.856141e-16  8.259288e-17  0 
 2.981376e-17  -9.425466e-17  0 
 4.925844e-17  -8.965143e-17  0 
 5.354239e-17  -6.021434e-17  0 
 0  -9.097815e-17  0 
 0  -9.232564e-17  0 
 0  -9.291688e-17  0 
 1.669018e-16  2.422938e-17  0 
 1.171668e-16  1.428186e-17  0 
 7.976519e-17  5.116256e-18  0 
 -3.580243e-17  -1.336527e-17  0 
 -3.339038e-17  -1.266925e-17  0 
 -3.173070e-17  -1.182961e-17  0 
 -6.603241e-17  -2.169380e-17  0 
 -6.900921e-17  -2.122591e-17  0 
 -7.013861e-17  -1.910530e-17  0 
 -8.395198e-17  -3.421850e-18  0 
 -1.026693e-16  -6.714343e-18  0 
 -1.227147e-16  -1.232871e-17  0 
 -2.292303e-17  4.835758e-17  0 
 -1.535161e-17  1.049440e-16  0 
 -7.455343e-18  1.585474e-16  0 
 -5.944426e-17  4.413746e-17  0 
 -4.752832e-17  1.043666e-16  0 
 -2.834864e-17  1.610658e-16  0 
 -1.269347e-16  5.690205e-17  0 
 -1.048139e-16  1.108077e-16  0 
 -7.995086e-17  1.567853e-16  0 
 1.331163e-19  2.090371e-16  0 
 -5.444346e-19  2.090806e-16  0 
 -1.246594e-18  2.085884e-16  0 
 -4.201945e-18  2.133604e-16  0 
 -1.194582e-18  2.141779e-16  0 
 1.866191e-18  2.131193e-16  0 
 -2.050823e-17  2.026925e-16  0 
 -2.081894e-18  2.018054e-16  0 
 1.652440e-17  2.019954e-16  0 
 8.189224e-18  1.392965e-16  0 
 1.749442e-17  6.661131e-17  0 
 2.618347e-17  -9.868076e-18  0 
 2.869004e-17  1.437286e-16  0 
 5.016997e-17  6.999367e-17  0 
 6.293634e-17  -7.122574e-18  0 
 7.849628e-17  1.397923e-16  0 
 1.034954e-16  8.149978e-17  0 
 1.269202e-16  1.526590e-17  0 
 3.231832e-17  -9.130954e-17  0 
 3.105536e-17  -9.276753e-17  0 
 3.004954e-17  -9.388586e-17  0 
 6.918959e-17  -8.740789e-17  0 
 6.360081e-17  -8.951102e-17  0 
 5.618964e-17  -8.978455e-17  0 
 1.184231e-16  -6.844403e-17  0 
 9.455397e-17  -6.352851e-17  0 
 7.227612e-17  -6.086900e-17  0 
VECTORS displacement_ITER8 FLOAT
 0  0  0 
 -8.520637e-17  6.355530e-17  0 
 0  -8.547782e-18  0 
 -2.909243e-16  7.018715e-17  0 
 0  1.819929e-16  0 
 -1.084378e-16  6.000670e-17  0 
 0  1.810525e-16  0 
 1.071411e-16  5.563658e-17  0 
 0  -1.024993e-16  0 
 2.937625e-16  5.236053e-17  0 
 0  -1.063044e-16  0 
 5.984680e-17  4.196577e-17  0 
 -4.786664e-17  -1.714903e-17  0 
 -7.527295e-17  -2.334045e-17  0 
 -8.420289e-17  1.589613e-18  0 
 -3.677947e-17  -1.360449e-17  0 
 -8.677471e-17  -1.955620e-17  0 
 -1.579830e-16  -9.827187e-18  0 
 0  -5.978754e-18  0 
 0  -8.786405e-18  0 
 0  -9.333046e-18  0 
 -1.164322e-16  6.628385e-17  0 
 -1.527851e-16  7.362583e-17  0 
 -2.052613e-16  8.180143e-17  0 
 -5.403173e-18  1.806416e-16  0 
 -1.998809e-17  1.705338e-16  0 
 -4.960855e-17  1.360671e-16  0 
 0  4.173097e-17  0 
 0  9.112289e-17  0 
 0  1.381730e-16  0 
 -2.653551e-16  7.640127e-17  0 
 -2.308343e-16  5.350926e-17  0 
 -1.653158e-16  3.212935e-17  0 
 5.550765e-18  1.797601e-16  0 
 1.994095e-17  1.699308e-16  0 
 4.960300e-17  1.356695e-16  0 
 0  1.828062e-16  0 
 0  1.830333e-16  0 
 0  1.823448e-16  0 
 -5.083813e-17  4.969366e-17  0 
 -8.648187e-19  4.766332e-17  0 
 4.903844e-17  4.801831e-17  0 
 4.544974e-17  -9.921320e-17  0 
 9.847311e-17  -8.497113e-17  0 
 1.679171e-16  -5.136791e-17  0 
 0  1.169763e-16  0 
 0  4.788423e-17  0 
 0  -2.559745e-17  0 
 1.642619e-16  2.940839e-17  0 
 2.348202e-16  4.284977e-17  0 
 2.676715e-16  5.815662e-17  0 
 3.124820e-17  -1.039784e-16  0 
 5.223882e-17  -8.889113e-17  0 
 5.883068e-17  -4.103643e-17  0 
 0  -1.042831e-16  0 
 0  -1.055879e-16  0 
 0  -1.061557e-16  0 
 2.024217e-16  6.129638e-17  0 
 1.433327e-16  5.227853e-17  0 
 9.933362e-17  4.472074e-17  0 
 -4.265925e-17  -1.602242e-17  0 
 -4.043371e-17  -1.545845e-17  0 
 -3.912596e-17  -1.478679e-17  0 
 -7.913940e-17  -2.347008e-17  0 
 -8.342269e-17  -2.291889e-17  0 
 -8.574274e-17  -2.090240e-17  0 
 -1.029767e-16  4.004205e-19  0 
 -1.242844e-16  -3.727996e-18  0 
 -1.464646e-16  -1.034764e-17  0 
 -3.189698e-17  3.847476e-17  0 
 -2.499237e-17  8.855873e-17  0 
 -1.618055e-17  1.363501e-16  0 
 -7.811981e-17  3.229509e-17  0 
 -6.536614e-17  8.270910e-17  0 
 -4.598400e-17  1.288348e-16  0 
 -1.592153e-16  3.653044e-17  0 
 -1.386351e-16  7.691290e-17  0 
 -1.020185e-16  1.116925e-16  0 
 -3.084901e-18  1.814312e-16  0 
 6.921218e-20  1.814580e-16  0 
 3.209185e-18  1.809851e-16  0 
 -1.029896e-17  1.712324e-16  0 
 -1.816645e-20  1.719104e-16  0 
 1.030250e-17  1.710312e-16  0 
 -2.795862e-17  1.378789e-16  0 
 -4.925678e-19  1.371072e-16  0 
 2.719670e-17  1.374033e-16  0 
 1.978293e-17  1.165185e-16  0 
 3.117066e-17  4.836033e-17  0 
 3.989812e-17  -2.363341e-17  0 
 5.130304e-17  1.126682e-16  0 
 7.492995e-17  5.038352e-17  0 
 8.961278e-17  -1.643912e-17  0 
 1.075698e-16  9.932243e-17  0 
 1.462214e-16  5.495922e-17  0 
 1.693261e-16  5.176943e-18  0 