# vtk DataFile Version 3.1
this is an vtk file created by FEMAC
ASCII
DATASET UNSTRUCTURED_GRID
POINTS 105 FLOAT
1.500000 0.000000 0.000000
2.000000 0.000000 0.000000
1.500000 0.200000 0.000000
1.500000 0.400000 0.000000
1.500000 0.600000 0.000000
1.500000 0.800000 0.000000
1.500000 1.000000 0.000000
2.000000 0.200000 0.000000
2.000000 0.400000 0.000000
2.000000 0.600000 0.000000
2.000000 0.800000 0.000000
2.000000 1.000000 0.000000
1.625000 0.000000 0.000000
1.750000 0.000000 0.000000
1.875000 0.000000 0.000000
1.500000 0.050000 0.000000
1.500000 0.100000 0.000000
1.500000 0.150000 0.000000
1.500000 0.250000 0.000000
1.500000 0.300000 0.000000
1.500000 0.350000 0.000000
1.500000 0.450000 0.000000
1.500000 0.500000 0.000000
1.500000 0.550000 0.000000
1.500000 0.650000 0.000000
1.500000 0.700000 0.000000
1.500000 0.750000 0.000000
1.500000 0.850000 0.000000
1.500000 0.900000 0.000000
1.500000 0.950000 0.000000
1.625000 0.200000 0.000000
1.750000 0.200000 0.000000
1.875000 0.200000 0.000000
2.000000 0.050000 0.000000
2.000000 0.100000 0.000000
2.000000 0.150000 0.000000
1.625000 0.400000 0.000000
1.750000 0.400000 0.000000
1.875000 0.400000 0.000000
2.000000 0.250000 0.000000
2.000000 0.300000 0.000000
2.000000 0.350000 0.000000
1.625000 0.600000 0.000000
1.750000 0.600000 0.000000
1.875000 0.600000 0.000000
2.000000 0.450000 0.000000
2.000000 0.500000 0.000000
2.000000 0.550000 0.000000
1.625000 0.800000 0.000000
1.750000 0.800000 0.000000
1.875000 0.800000 0.000000
2.000000 0.650000 0.000000
2.000000 0.700000 0.000000
2.000000 0.750000 0.000000
1.625000 1.000000 0.000000
1.750000 1.000000 0.000000
1.875000 1.000000 0.000000
2.000000 0.850000 0.000000
2.000000 0.900000 0.000000
2.000000 0.950000 0.000000
1.625000 0.050000 0.000000
1.625000 0.100000 0.000000
1.625000 0.150000 0.000000
1.750000 0.050000 0.000000
1.750000 0.100000 0.000000
1.750000 0.150000 0.000000
1.875000 0.050000 0.000000
1.875000 0.100000 0.000000
1.875000 0.150000 0.000000
1.625000 0.250000 0.000000
1.625000 0.300000 0.000000
1.625000 0.350000 0.000000
1.750000 0.250000 0.000000
1.750000 0.300000 0.000000
1.750000 0.350000 0.000000
1.875000 0.250000 0.000000
1.875000 0.300000 0.000000
1.875000 0.350000 0.000000
1.625000 0.450000 0.000000
1.625000 0.500000 0.000000
1.625000 0.550000 0.000000
1.750000 0.450000 0.000000
1.750000 0.500000 0.000000
1.750000 0.550000 0.000000
1.875000 0.450000 0.000000
1.875000 0.500000 0.000000
1.875000 0.550000 0.000000
1.625000 0.650000 0.000000
1.625000 0.700000 0.000000
1.625000 0.750000 0.000000
1.750000 0.650000 0.000000
1.750000 0.700000 0.000000
1.750000 0.750000 0.000000
1.875000 0.650000 0.000000
1.875000 0.700000 0.000000
1.875000 0.750000 0.000000
1.625000 0.850000 0.000000
1.625000 0.900000 0.000000
1.625000 0.950000 0.000000
1.750000 0.850000 0.000000
1.750000 0.900000 0.000000
1.750000 0.950000 0.000000
1.875000 0.850000 0.000000
1.875000 0.900000 0.000000
1.875000 0.950000 0.000000
CELLS 80 400 
4 0 12 60 15
4 15 60 61 16
4 16 61 62 17
4 17 62 30  2
4 12 13 63 60
4 60 63 64 61
4 61 64 65 62
4 62 65 31 30
4 13 14 66 63
4 63 66 67 64
4 64 67 68 65
4 65 68 32 31
4 14  1 33 66
4 66 33 34 67
4 67 34 35 68
4 68 35  7 32
4 2 30 69 18
4 18 69 70 19
4 19 70 71 20
4 20 71 36  3
4 30 31 72 69
4 69 72 73 70
4 70 73 74 71
4 71 74 37 36
4 31 32 75 72
4 72 75 76 73
4 73 76 77 74
4 74 77 38 37
4 32  7 39 75
4 75 39 40 76
4 76 40 41 77
4 77 41  8 38
4 3 36 78 21
4 21 78 79 22
4 22 79 80 23
4 23 80 42  4
4 36 37 81 78
4 78 81 82 79
4 79 82 83 80
4 80 83 43 42
4 37 38 84 81
4 81 84 85 82
4 82 85 86 83
4 83 86 44 43
4 38  8 45 84
4 84 45 46 85
4 85 46 47 86
4 86 47  9 44
4 4 42 87 24
4 24 87 88 25
4 25 88 89 26
4 26 89 48  5
4 42 43 90 87
4 87 90 91 88
4 88 91 92 89
4 89 92 49 48
4 43 44 93 90
4 90 93 94 91
4 91 94 95 92
4 92 95 50 49
4 44  9 51 93
4 93 51 52 94
4 94 52 53 95
4 95 53 10 50
4 5 48 96 27
4 27 96 97 28
4 28 97 98 29
4 29 98 54  6
4 48 49 99 96
4 96  99 100  97
4 97 100 101  98
4 98 101  55  54
4 49  50 102  99
4 99 102 103 100
4 100 103 104 101
4 101 104  56  55
4 50  10  57 102
4 102  57  58 103
4 103  58  59 104
4 104  59  11  56
CELL_TYPES 80
9 9 9 9 9 9 9 9 9 9 9 9 9 9 9 9 9 9 9 9 9 9 9 9 9 9 9 9 9 9 9 9 9 9 9 9 9 9 9 9 9 9 9 9 9 9 9 9 9 9 9 9 9 9 9 9 9 9 9 9 9 9 9 9 9 9 9 9 9 9 9 9 9 9 9 9 9 9 9 9 
POINT_DATA 105
VECTORS displacement_ITER1 FLOAT
 1.415424e-12  1.010330e-11  0 
 -4.794974e-11  -5.037578e-13  0 
 -2.085019e-12  1.364481e-11  0 
 8.896714e-13  1.348984e-11  0 
 9.265383e-13  -1.274363e-11  0 
 -2.118843e-12  -1.289991e-11  0 
 1.423933e-12  -9.118693e-12  0 
 -2.828131e-12  8.361110e-12  0 
 2.526024e-12  5.324972e-12  0 
 2.586774e-12  -4.367386e-12  0 
 -2.848544e-12  -7.398210e-12  0 
 -4.818452e-11  1.191325e-12  0 
 3.088531e-13  1.158503e-11  0 
 -6.831429e-12  1.597181e-11  0 
 -2.209909e-11  1.203667e-11  0 
 2.460775e-12  7.177211e-12  0 
 -1.822555e-12  3.967675e-12  0 
 -6.666980e-12  7.544463e-12  0 
 -1.292287e-12  1.356760e-11  0 
 -5.835123e-13  1.348913e-11  0 
 1.335288e-13  1.346956e-11  0 
 5.222324e-12  7.605795e-12  0 
 6.240630e-12  4.558738e-13  0 
 5.353169e-12  -6.883895e-12  0 
 1.568835e-13  -1.272910e-11  0 
 -5.816780e-13  -1.274785e-11  0 
 -1.310883e-12  -1.282802e-11  0 
 -6.652761e-12  -6.992321e-12  0 
 -2.022321e-12  -3.520947e-12  0 
 2.033969e-12  -6.516735e-12  0 
 -1.724103e-12  1.195007e-11  0 
 -1.548626e-12  1.087958e-11  0 
 -1.671632e-12  9.635169e-12  0 
 -3.974440e-11  -3.390906e-12  0 
 -2.362521e-11  -6.046108e-12  0 
 -6.484323e-12  -4.034286e-13  0 
 6.380480e-13  1.165197e-11  0 
 5.281123e-13  1.067123e-11  0 
 1.531559e-12  9.472159e-12  0 
 -1.595837e-12  8.092973e-12  0 
 -2.260145e-13  7.709857e-12  0 
 1.267730e-12  6.622586e-12  0 
 6.808089e-13  -1.086375e-11  0 
 5.749251e-13  -9.832122e-12  0 
 1.591626e-12  -8.581443e-12  0 
 1.792502e-11  -3.392813e-12  0 
 2.434165e-11  2.422807e-13  0 
 1.820128e-11  4.106808e-12  0 
 -1.759917e-12  -1.116673e-11  0 
 -1.588282e-12  -1.004138e-11  0 
 -1.705943e-12  -8.730906e-12  0 
 1.319673e-12  -5.674315e-12  0 
 -2.080953e-13  -6.773279e-12  0 
 -1.610410e-12  -7.140313e-12  0 
 2.201189e-14  -1.103031e-11  0 
 -7.242098e-12  -1.514105e-11  0 
 -2.267590e-11  -1.072277e-11  0 
 -6.437607e-12  2.109166e-12  0 
 -2.426539e-11  7.884590e-12  0 
 -4.066777e-11  4.588238e-12  0 
 -1.565843e-12  1.244532e-11  0 
 -2.489383e-12  1.347361e-11  0 
 -2.364364e-12  1.269377e-11  0 
 -6.756951e-12  1.546880e-11  0 
 -5.732180e-12  1.433049e-11  0 
 -3.935725e-12  1.311931e-11  0 
 -1.756746e-11  1.290204e-11  0 
 -1.222876e-11  1.368858e-11  0 
 -7.047295e-12  1.190032e-11  0 
 -1.134676e-12  1.197687e-11  0 
 -5.328149e-13  1.193960e-11  0 
 4.323169e-14  1.182508e-11  0 
 -1.012344e-12  1.080557e-11  0 
 -4.368124e-13  1.079051e-11  0 
 1.422979e-13  1.077047e-11  0 
 -1.121424e-12  9.623120e-12  0 
 -4.399750e-13  9.476451e-12  0 
 3.786582e-13  9.392739e-12  0 
 1.335523e-12  5.673410e-12  0 
 1.910969e-12  3.773029e-13  0 
 1.351137e-12  -4.872536e-12  0 
 1.162205e-12  5.428329e-12  0 
 9.843267e-13  4.216724e-13  0 
 1.183055e-12  -4.586771e-12  0 
 3.763347e-12  7.105692e-12  0 
 5.224268e-12  4.647172e-13  0 
 3.787929e-12  -6.220402e-12  0 
 6.595087e-14  -1.103615e-11  0 
 -5.292324e-13  -1.115194e-11  0 
 -1.150838e-12  -1.119051e-11  0 
 1.711117e-13  -9.931368e-12  0 
 -4.292943e-13  -9.950796e-12  0 
 -1.027646e-12  -9.966275e-12  0 
 4.110957e-13  -8.499605e-12  0 
 -4.267976e-13  -8.580055e-12  0 
 -1.127955e-12  -8.723934e-12  0 
 -2.472253e-12  -1.192606e-11  0 
 -2.669074e-12  -1.271785e-11  0 
 -1.780645e-12  -1.178578e-11  0 
 -4.042239e-12  -1.228334e-11  0 
 -5.900312e-12  -1.349325e-11  0 
 -7.023794e-12  -1.463897e-11  0 
 -7.228791e-12  -1.101400e-11  0 
 -1.254342e-11  -1.274950e-11  0 
 -1.800225e-11  -1.173956e-11  0 
VECTORS displacement_ITER2 FLOAT
 3.615776e-12  -3.284782e-12  0 
 -6.897209e-11  -3.424467e-11  0 
 3.578683e-12  -4.151713e-12  0 
 3.893728e-12  -5.131678e-12  0 
 3.543076e-12  4.642668e-12  0 
 3.472151e-12  3.690480e-12  0 
 3.589151e-12  1.757275e-12  0 
 -4.984027e-12  -2.353593e-11  0 
 1.533291e-11  -2.225767e-11  0 
 1.489962e-11  2.109811e-11  0 
 -5.124127e-12  2.232878e-11  0 
 -6.850303e-11  3.445688e-11  0 
 -4.050727e-12  1.161835e-12  0 
 -1.278309e-11  -4.129057e-12  0 
 -3.133077e-11  -5.983081e-12  0 
 -9.226027e-13  3.383348e-12  0 
 8.594558e-12  9.535268e-12  0 
 1.702974e-11  -1.199153e-13  0 
 3.635835e-12  -3.902734e-12  0 
 3.785351e-12  -3.917362e-12  0 
 3.899294e-12  -4.376213e-12  0 
 -1.422018e-11  -1.269047e-11  0 
 -2.176738e-11  -6.529779e-13  0 
 -1.469248e-11  1.186213e-11  0 
 3.605239e-12  3.896490e-12  0 
 3.558184e-12  3.438377e-12  0 
 3.473093e-12  3.436487e-12  0 
 1.695811e-11  2.330477e-13  0 
 9.283558e-12  -9.206551e-12  0 
 3.333503e-13  -3.961611e-12  0 
 2.892214e-12  -3.865093e-12  0 
 3.066619e-13  -6.261747e-12  0 
 -2.989882e-12  -1.261783e-11  0 
 -4.790890e-11  -2.510497e-11  0 
 -4.603189e-11  -1.558521e-11  0 
 -4.202092e-11  -2.548255e-11  0 
 4.477246e-12  -3.907683e-12  0 
 7.353354e-12  -6.340020e-12  0 
 1.063879e-11  -1.195727e-11  0 
 5.445267e-13  -2.390821e-11  0 
 4.409602e-12  -2.390852e-11  0 
 8.559394e-12  -2.264908e-11  0 
 4.129454e-12  3.268871e-12  0 
 6.999720e-12  5.547472e-12  0 
 1.024227e-11  1.100490e-11  0 
 2.101042e-11  4.381358e-12  0 
 1.362200e-11  1.413405e-13  0 
 2.012545e-11  -4.785031e-12  0 
 2.798686e-12  3.244508e-12  0 
 2.208296e-13  5.472852e-12  0 
 -3.083758e-12  1.162569e-11  0 
 8.178445e-12  2.150483e-11  0 
 4.137866e-12  2.279189e-11  0 
 3.736435e-13  2.274290e-11  0 
 -3.387803e-12  -1.184015e-12  0 
 -1.174820e-11  3.358407e-12  0 
 -2.985686e-11  3.825603e-12  0 
 -4.214655e-11  2.218950e-11  0 
 -4.400173e-11  1.200979e-11  0 
 -4.512528e-11  2.374747e-11  0 
 -1.844213e-12  -9.874579e-13  0 
 -4.859887e-13  -3.440961e-12  0 
 2.991872e-13  -1.729823e-12  0 
 -1.093428e-11  -3.253142e-12  0 
 -7.839249e-12  -2.620033e-12  0 
 -4.170349e-12  -5.023017e-12  0 
 -2.758960e-11  -8.828492e-12  0 
 -2.003389e-11  -1.185976e-11  0 
 -9.957870e-12  -9.109070e-12  0 
 3.246565e-12  -4.041167e-12  0 
 3.818818e-12  -4.138485e-12  0 
 4.337721e-12  -4.119124e-12  0 
 2.133291e-12  -6.262255e-12  0 
 3.906332e-12  -6.280426e-12  0 
 5.613400e-12  -6.298673e-12  0 
 5.585546e-13  -1.270883e-11  0 
 4.298801e-12  -1.261633e-11  0 
 7.832343e-12  -1.236731e-11  0 
 3.196855e-12  9.255273e-13  0 
 1.556789e-12  -2.971110e-13  0 
 3.012284e-12  -1.598700e-12  0 
 8.713233e-12  -3.310783e-12  0 
 9.740070e-12  -3.993459e-13  0 
 8.545460e-12  2.506542e-12  0 
 1.138591e-11  -8.980745e-12  0 
 1.185969e-11  -5.302710e-13  0 
 1.119095e-11  8.045880e-12  0 
 4.050889e-12  3.483256e-12  0 
 3.593054e-12  3.509128e-12  0 
 3.084926e-12  3.416292e-12  0 
 5.314336e-12  5.505695e-12  0 
 3.673138e-12  5.486623e-12  0 
 1.972608e-12  5.470053e-12  0 
 7.515614e-12  1.140805e-11  0 
 4.045310e-12  1.164459e-11  0 
 3.718690e-13  1.172761e-11  0 
 4.667487e-13  1.099357e-12  0 
 -7.157468e-14  2.828972e-12  0 
 -1.315446e-12  6.810894e-13  0 
 -4.032581e-12  4.237166e-12  0 
 -7.522875e-12  1.822691e-12  0 
 -1.033493e-11  2.478741e-12  0 
 -9.562438e-12  8.235436e-12  0 
 -1.922205e-11  1.086069e-11  0 
 -2.645449e-11  7.125404e-12  0 
VECTORS displacement_ITER3 FLOAT
 1.187546e-12  1.599222e-12  0 
 -5.789253e-12  1.041998e-11  0 
 7.854542e-13  -4.334512e-12  0 
 -3.748668e-12  -5.098451e-12  0 
 -3.067821e-12  4.897027e-12  0 
 1.220742e-12  4.078727e-12  0 
 1.428935e-12  -5.246356e-13  0 
 -1.790188e-12  -7.509698e-15  0 
 -4.139543e-13  4.198481e-12  0 
 3.135310e-13  -3.845570e-12  0 
 -1.309878e-12  4.327011e-13  0 
 -5.907556e-12  -1.177725e-11  0 
 1.348581e-12  -7.789042e-13  0 
 1.148165e-13  1.701372e-12  0 
 -2.689238e-12  3.796987e-13  0 
 3.859709e-12  -1.855409e-12  0 
 -2.234823e-12  -2.979031e-12  0 
 -3.114635e-12  3.932860e-12  0 
 -2.817189e-13  -4.412221e-12  0 
 -1.258586e-12  -4.528874e-12  0 
 -2.369074e-12  -4.665356e-12  0 
 2.562576e-12  1.186872e-11  0 
 1.309773e-11  6.095009e-13  0 
 3.301571e-12  -1.107595e-11  0 
 -1.752973e-12  4.458832e-12  0 
 -7.047274e-13  4.313680e-12  0 
 2.117838e-13  4.179393e-12  0 
 -3.000683e-12  -5.078298e-12  0 
 -3.179324e-12  1.796872e-12  0 
 2.591125e-12  2.010054e-12  0 
 5.214655e-13  -1.870151e-12  0 
 1.274013e-13  3.227801e-13  0 
 -9.566334e-13  1.592091e-12  0 
 -1.252883e-11  3.658480e-12  0 
 -6.116836e-12  -1.267472e-12  0 
 -3.482310e-12  7.718379e-12  0 
 -3.129888e-12  -1.739953e-12  0 
 -2.475134e-12  2.077263e-14  0 
 -2.233480e-12  1.100281e-12  0 
 -1.515024e-12  6.966394e-13  0 
 -5.748676e-13  1.748482e-12  0 
 -2.790614e-13  2.181733e-12  0 
 -2.480538e-12  1.687770e-12  0 
 -1.838400e-12  4.877625e-14  0 
 -1.559424e-12  -9.090856e-13  0 
 -3.004302e-11  8.651505e-12  0 
 -3.159929e-11  -7.251395e-13  0 
 -2.901868e-11  -9.358407e-12  0 
 9.380852e-13  1.789862e-12  0 
 5.439105e-13  -2.564583e-13  0 
 -5.285503e-13  -1.356754e-12  0 
 3.929939e-13  -1.830850e-12  0 
 1.175141e-14  -1.408510e-12  0 
 -1.005414e-12  -3.157214e-13  0 
 8.806061e-13  1.428636e-14  0 
 -6.915444e-13  -1.675787e-12  0 
 -3.868150e-12  1.066649e-12  0 
 -3.191644e-12  -5.152278e-12  0 
 -8.142772e-12  4.076690e-12  0 
 -1.526615e-11  -3.390095e-12  0 
 2.263318e-13  3.464795e-13  0 
 4.436104e-13  5.810945e-13  0 
 7.714719e-13  -2.255216e-12  0 
 5.664903e-14  9.876869e-13  0 
 -2.699666e-14  3.636372e-13  0 
 -1.087510e-13  1.050729e-12  0 
 -2.364836e-12  2.343373e-12  0 
 -2.470766e-12  3.741070e-12  0 
 -1.724588e-12  1.025933e-12  0 
 -3.749193e-13  -1.892147e-12  0 
 -1.301179e-12  -1.895512e-12  0 
 -2.191270e-12  -1.857435e-12  0 
 -6.368861e-13  2.817626e-13  0 
 -1.283497e-12  1.795795e-13  0 
 -1.964239e-12  3.466705e-14  0 
 -7.895064e-13  1.538745e-12  0 
 -1.029290e-12  1.514480e-12  0 
 -1.389856e-12  1.567934e-12  0 
 -1.433638e-12  -4.157582e-12  0 
 -1.114170e-12  -2.302395e-14  0 
 -1.072710e-12  4.131793e-12  0 
 -3.102264e-12  4.744907e-13  0 
 -2.565325e-12  3.207311e-14  0 
 -2.794142e-12  -3.945873e-13  0 
 -3.787704e-12  -2.418410e-12  0 
 -7.082887e-12  1.321168e-13  0 
 -3.428917e-12  2.576307e-12  0 
 -1.593243e-12  1.796088e-12  0 
 -7.579172e-13  1.824268e-12  0 
 1.088687e-13  1.813701e-12  0 
 -1.367375e-12  3.564319e-14  0 
 -7.397337e-13  -1.090164e-13  0 
 -1.554269e-13  -2.124771e-13  0 
 -7.737798e-13  -1.367508e-12  0 
 -4.648800e-13  -1.299359e-12  0 
 -2.819904e-13  -1.311983e-12  0 
 8.517760e-13  2.245142e-12  0 
 2.163012e-13  -6.736593e-13  0 
 -1.559277e-13  -8.443892e-13  0 
 5.871849e-14  -9.960899e-13  0 
 -4.414446e-14  -2.924899e-13  0 
 -2.656071e-13  -9.448800e-13  0 
 -1.836475e-12  -9.515522e-13  0 
 -3.038280e-12  -3.545255e-12  0 
 -3.246405e-12  -1.369825e-12  0 
VECTORS displacement_ITER4 FLOAT
 4.537244e-13  2.654203e-13  0 
 -4.645075e-12  8.269555e-12  0 
 6.575642e-13  6.187616e-13  0 
 -1.583439e-12  -2.084707e-13  0 
 -2.389401e-12  1.707796e-13  0 
 6.776069e-14  -5.948944e-13  0 
 1.306875e-13  -1.487614e-12  0 
 -2.112789e-12  2.076020e-12  0 
 6.259863e-13  3.811810e-12  0 
 -2.082324e-13  -4.294141e-12  0 
 -2.734622e-12  -2.638177e-12  0 
 -4.703585e-12  -7.054526e-12  0 
 1.565281e-12  1.606874e-12  0 
 2.459442e-12  3.089230e-12  0 
 2.159713e-12  7.558559e-12  0 
 -1.062072e-13  1.072314e-12  0 
 7.559795e-13  -4.939073e-14  0 
 -2.861216e-12  -1.124885e-12  0 
 2.240737e-13  5.265925e-13  0 
 -2.478875e-13  3.653784e-13  0 
 -7.674961e-13  1.299317e-13  0 
 1.162185e-12  -5.192238e-12  0 
 -6.526330e-12  -9.489088e-13  0 
 1.441774e-13  3.874367e-12  0 
 -1.513934e-12  -1.551589e-13  0 
 -9.390316e-13  -3.767242e-13  0 
 -4.150812e-13  -5.235232e-13  0 
 -3.030535e-12  2.449151e-12  0 
 1.933246e-12  1.228590e-12  0 
 1.251964e-12  -1.422446e-12  0 
 6.168511e-13  1.712095e-12  0 
 3.717464e-13  3.005303e-12  0 
 -5.260162e-13  3.778534e-12  0 
 -2.050719e-12  1.050838e-11  0 
 -3.130811e-12  1.103772e-11  0 
 2.615756e-13  8.889602e-12  0 
 -1.410684e-12  1.768788e-12  0 
 -9.756710e-13  2.955807e-12  0 
 -3.459104e-13  3.282674e-12  0 
 -9.037650e-13  2.589858e-12  0 
 -2.411883e-13  2.803427e-12  0 
 4.028136e-13  3.132167e-12  0 
 -2.177947e-12  -1.932906e-12  0 
 -1.722223e-12  -3.218157e-12  0 
 -1.125148e-12  -3.638249e-12  0 
 6.096385e-12  -1.575883e-11  0 
 1.537485e-11  8.702988e-13  0 
 4.949120e-12  1.669799e-11  0 
 5.222990e-14  -1.840216e-12  0 
 -1.892478e-13  -3.264622e-12  0 
 -1.099754e-12  -4.183175e-12  0 
 -3.691636e-13  -3.625259e-12  0 
 -9.515448e-13  -3.309961e-12  0 
 -1.562153e-12  -3.122674e-12  0 
 2.040049e-12  -9.360517e-13  0 
 3.154461e-12  -3.297136e-12  0 
 3.120231e-12  -9.119947e-12  0 
 -1.139390e-13  -1.149626e-11  0 
 -1.292696e-12  -1.378556e-11  0 
 4.543516e-13  -1.083758e-11  0 
 1.288902e-12  1.358655e-12  0 
 7.485113e-13  1.752287e-12  0 
 1.153063e-12  1.910958e-12  0 
 1.384801e-12  3.277716e-12  0 
 6.262424e-13  3.111910e-12  0 
 4.028579e-13  3.094022e-12  0 
 5.056286e-13  6.685440e-12  0 
 -9.995086e-14  5.808760e-12  0 
 -1.448831e-12  4.531781e-12  0 
 1.589185e-13  1.731337e-12  0 
 -3.138189e-13  1.739430e-12  0 
 -8.337002e-13  1.750447e-12  0 
 -4.705895e-14  3.015565e-12  0 
 -3.860342e-13  2.988076e-12  0 
 -6.945648e-13  2.951367e-12  0 
 -4.381172e-13  3.615245e-12  0 
 -3.050820e-13  3.553733e-12  0 
 -2.702254e-13  3.483517e-12  0 
 -2.948770e-12  1.752455e-12  0 
 -2.173819e-12  -7.525961e-14  0 
 -3.365302e-12  -1.948321e-12  0 
 -1.341728e-12  9.111288e-13  0 
 -2.130635e-12  -1.298654e-13  0 
 -1.703630e-12  -1.178101e-12  0 
 1.797683e-12  5.365802e-12  0 
 2.548269e-12  -1.984001e-13  0 
 1.368695e-12  -5.676311e-12  0 
 -1.558338e-12  -1.904169e-12  0 
 -9.908011e-13  -1.881692e-12  0 
 -4.654138e-13  -1.863629e-12  0 
 -1.410886e-12  -3.213614e-12  0 
 -1.059239e-12  -3.250090e-12  0 
 -6.670054e-13  -3.276752e-12  0 
 -1.007427e-12  -3.851604e-12  0 
 -9.964894e-13  -3.936765e-12  0 
 -1.077040e-12  -4.011520e-12  0 
 9.774773e-13  -2.148347e-12  0 
 9.106817e-13  -1.822058e-12  0 
 1.650313e-12  -9.486511e-13  0 
 9.135968e-14  -3.334060e-12  0 
 5.045666e-13  -3.369040e-12  0 
 1.582805e-12  -3.509997e-12  0 
 -1.489486e-12  -4.767279e-12  0 
 3.058851e-13  -6.173311e-12  0 
 1.198474e-12  -7.792050e-12  0 
VECTORS displacement_ITER5 FLOAT
 2.906739e-12  2.112811e-11  0 
 -1.011707e-10  1.066536e-11  0 
 -3.528930e-12  2.757841e-11  0 
 -9.083704e-13  2.696984e-11  0 
 9.796636e-13  -2.505256e-11  0 
 -2.312814e-12  -2.580056e-11  0 
 3.326583e-12  -1.609691e-11  0 
 -6.085400e-12  2.463362e-11  0 
 3.269085e-12  1.981238e-11  0 
 5.288268e-12  -1.632849e-11  0 
 -4.793816e-12  -2.097567e-11  0 
 -1.016367e-10  -1.149446e-11  0 
 2.895090e-12  2.563867e-11  0 
 -1.064997e-11  3.691518e-11  0 
 -4.320588e-11  3.157385e-11  0 
 4.140073e-12  1.510864e-11  0 
 -4.304625e-12  1.002198e-11  0 
 -1.112441e-11  1.472218e-11  0 
 -2.688956e-12  2.737444e-11  0 
 -2.063824e-12  2.716921e-11  0 
 -1.485446e-12  2.699029e-11  0 
 9.540526e-12  1.899267e-11  0 
 1.885774e-11  3.344520e-12  0 
 1.220898e-11  -1.428048e-11  0 
 2.263834e-13  -2.511558e-11  0 
 -5.293822e-13  -2.532011e-11  0 
 -1.320941e-12  -2.556183e-11  0 
 -1.064651e-11  -1.624931e-11  0 
 -7.372457e-12  -1.144712e-11  0 
 6.921748e-14  -1.272547e-11  0 
 -2.688008e-12  2.617500e-11  0 
 -2.283757e-12  2.628022e-11  0 
 -2.697186e-12  2.606574e-11  0 
 -8.538421e-11  2.475170e-12  0 
 -4.878463e-11  -4.700798e-12  0 
 -1.081064e-11  3.899575e-12  0 
 -1.314268e-12  2.557788e-11  0 
 -1.540965e-12  2.563757e-11  0 
 5.006730e-13  2.543829e-11  0 
 -3.297461e-12  2.419295e-11  0 
 -1.124221e-12  2.358283e-11  0 
 1.258150e-12  2.200202e-11  0 
 4.968967e-13  -2.326327e-11  0 
 2.332148e-13  -2.297025e-11  0 
 2.380400e-12  -2.242498e-11  0 
 3.160636e-11  1.174287e-11  0 
 2.532966e-11  -1.341338e-12  0 
 3.487960e-11  -1.205737e-11  0 
 -1.535189e-12  -2.395272e-11  0 
 -1.152744e-12  -2.362129e-11  0 
 -1.534663e-12  -2.291359e-11  0 
 3.080776e-12  -1.850935e-11  0 
 4.765114e-13  -2.007383e-11  0 
 -1.884159e-12  -2.060431e-11  0 
 1.156050e-12  -2.557890e-11  0 
 -1.298133e-11  -3.435723e-11  0 
 -4.635297e-11  -2.527842e-11  0 
 -1.000678e-11  5.387807e-12  0 
 -5.397920e-11  1.439939e-11  0 
 -9.252921e-11  9.499758e-13  0 
 -1.418317e-12  2.734564e-11  0 
 -3.456597e-12  2.881033e-11  0 
 -3.939535e-12  2.774846e-11  0 
 -1.145377e-11  3.577342e-11  0 
 -1.013362e-11  3.362280e-11  0 
 -6.878348e-12  3.100487e-11  0 
 -3.490555e-11  3.384101e-11  0 
 -2.481634e-11  3.532774e-11  0 
 -1.435775e-11  3.146306e-11  0 
 -2.354221e-12  2.622782e-11  0 
 -1.988407e-12  2.614354e-11  0 
 -1.676119e-12  2.592668e-11  0 
 -2.081273e-12  2.612376e-11  0 
 -1.808377e-12  2.605267e-11  0 
 -1.501236e-12  2.592471e-11  0 
 -2.411068e-12  2.598591e-11  0 
 -1.673958e-12  2.563298e-11  0 
 -7.971443e-13  2.538110e-11  0 
 6.675438e-13  1.171689e-11  0 
 1.525057e-12  1.084291e-12  0 
 1.635426e-12  -9.285899e-12  0 
 -1.677007e-13  1.385028e-11  0 
 -3.995748e-13  1.338753e-12  0 
 6.846160e-13  -1.117013e-11  0 
 1.735990e-12  1.400662e-11  0 
 6.579756e-12  1.604561e-12  0 
 2.750320e-12  -1.110170e-11  0 
 -1.222314e-14  -2.363394e-11  0 
 -4.819427e-13  -2.388060e-11  0 
 -1.017135e-12  -2.398981e-11  0 
 1.559635e-13  -2.325857e-11  0 
 -3.037629e-13  -2.338606e-11  0 
 -7.550796e-13  -2.345950e-11  0 
 9.191260e-13  -2.233246e-11  0 
 -1.184822e-13  -2.254369e-11  0 
 -1.033599e-12  -2.286151e-11  0 
 -3.824192e-12  -2.529116e-11  0 
 -4.240467e-12  -2.671471e-11  0 
 -2.736966e-12  -2.648793e-11  0 
 -6.439712e-12  -2.838324e-11  0 
 -1.024173e-11  -3.096592e-11  0 
 -1.244311e-11  -3.317280e-11  0 
 -1.464419e-11  -2.873697e-11  0 
 -2.631937e-11  -3.223461e-11  0 
 -3.724424e-11  -2.879103e-11  0 
VECTORS displacement_ITER6 FLOAT
 6.547386e-12  6.444297e-12  0 
 -1.283758e-10  -2.910184e-11  0 
 3.919574e-12  9.125851e-12  0 
 4.926836e-12  7.340647e-12  0 
 2.991903e-12  -6.941214e-12  0 
 2.623957e-12  -8.583785e-12  0 
 6.027930e-12  -9.425374e-12  0 
 -9.330437e-12  -1.553207e-11  0 
 2.219045e-11  -1.737513e-11  0 
 2.011780e-11  1.629813e-11  0 
 -1.068609e-11  1.426747e-11  0 
 -1.283241e-10  3.251004e-11  0 
 -1.785229e-12  1.418647e-11  0 
 -1.805208e-11  1.372938e-11  0 
 -5.417056e-11  1.200551e-11  0 
 1.909367e-12  1.138794e-11  0 
 8.825439e-12  1.609655e-11  0 
 1.673212e-11  8.188031e-12  0 
 4.251196e-12  9.283828e-12  0 
 4.570535e-12  9.099732e-12  0 
 4.790992e-12  8.381634e-12  0 
 -1.386401e-11  -1.001976e-11  0 
 -2.119890e-11  -2.185455e-12  0 
 -1.644614e-11  7.571992e-12  0 
 3.030278e-12  -7.951065e-12  0 
 2.973546e-12  -8.645985e-12  0 
 2.808729e-12  -8.788809e-12  0 
 1.616245e-11  -4.728117e-12  0 
 1.161085e-11  -1.263604e-11  0 
 5.710044e-12  -1.171854e-11  0 
 3.491428e-12  9.202734e-12  0 
 3.123083e-13  6.777162e-12  0 
 -4.453782e-12  -1.028334e-12  0 
 -9.490588e-11  -2.037871e-11  0 
 -7.777708e-11  -1.150952e-11  0 
 -5.967636e-11  -2.342571e-11  0 
 5.277710e-12  8.818736e-12  0 
 8.910202e-12  6.439891e-12  0 
 1.461634e-11  -5.186718e-13  0 
 -7.471588e-13  -1.648990e-11  0 
 5.633272e-12  -1.677178e-11  0 
 1.232699e-11  -1.638020e-11  0 
 3.428877e-12  -8.803959e-12  0 
 7.099998e-12  -6.746570e-12  0 
 1.270007e-11  -1.086366e-13  0 
 5.369335e-11  4.980459e-12  0 
 5.368976e-11  2.431107e-12  0 
 5.044558e-11  -2.504018e-12  0 
 2.257689e-12  -9.100134e-12  0 
 -9.038082e-13  -7.075347e-12  0 
 -5.687045e-12  2.713689e-13  0 
 1.045254e-11  1.529112e-11  0 
 3.978621e-12  1.566807e-11  0 
 -2.221118e-12  1.530216e-11  0 
 -3.798086e-13  -1.212588e-11  0 
 -1.609900e-11  -1.397189e-11  0 
 -5.155669e-11  -1.562403e-11  0 
 -6.039235e-11  1.712082e-11  0 
 -7.295926e-11  4.961993e-12  0 
 -8.845899e-11  1.982595e-11  0 
 -1.371126e-12  1.252964e-11  0 
 -8.120342e-13  1.048104e-11  0 
 -3.478820e-13  1.204976e-11  0 
 -1.675162e-11  1.436303e-11  0 
 -1.278234e-11  1.435475e-11  0 
 -7.141419e-12  1.033092e-11  0 
 -4.751518e-11  8.948054e-12  0 
 -3.497889e-11  4.894168e-12  0 
 -1.806217e-11  6.292150e-12  0 
 3.910761e-12  9.027376e-12  0 
 4.610850e-12  8.862169e-12  0 
 5.197303e-12  8.751730e-12  0 
 2.532969e-12  6.706528e-12  0 
 4.766973e-12  6.686797e-12  0 
 6.936002e-12  6.632800e-12  0 
 1.419773e-13  -1.169647e-12  0 
 5.223512e-12  -1.311574e-12  0 
 1.020907e-11  -1.122191e-12  0 
 3.726567e-12  7.806869e-12  0 
 1.198027e-12  6.783642e-14  0 
 2.722812e-12  -7.906536e-12  0 
 1.044141e-11  3.045887e-12  0 
 1.110197e-11  -1.552708e-13  0 
 9.572713e-12  -3.369795e-12  0 
 1.792953e-11  -7.382522e-13  0 
 1.976770e-11  -4.255581e-13  0 
 1.690329e-11  2.155531e-13  0 
 3.484057e-12  -8.712385e-12  0 
 3.043976e-12  -8.792857e-12  0 
 2.501967e-12  -8.935428e-12  0 
 5.231752e-12  -6.938821e-12  0 
 3.204425e-12  -6.992582e-12  0 
 1.137385e-12  -7.009687e-12  0 
 8.444784e-12  4.615871e-13  0 
 3.610712e-12  6.101143e-13  0 
 -1.300612e-12  4.351977e-13  0 
 -5.997353e-13  -1.219695e-11  0 
 -2.160489e-13  -1.036858e-11  0 
 -3.003866e-13  -1.124412e-11  0 
 -7.709414e-12  -1.061285e-11  0 
 -1.286355e-11  -1.466908e-11  0 
 -1.604006e-11  -1.463471e-11  0 
 -1.794302e-11  -6.611028e-12  0 
 -3.374336e-11  -5.541502e-12  0 
 -4.555606e-11  -1.142057e-11  0 
VECTORS displacement_ITER7 FLOAT
 6.680385e-12  1.079042e-11  0 
 -9.451938e-11  7.148900e-13  0 
 2.991664e-12  4.338991e-12  0 
 -3.882471e-12  2.018992e-12  0 
 -1.276782e-12  -1.988795e-12  0 
 4.899730e-12  -4.496653e-12  0 
 7.614498e-12  -6.711086e-12  0 
 -9.793126e-12  -5.478692e-13  0 
 1.282298e-11  1.753501e-12  0 
 1.553731e-11  -2.477010e-13  0 
 -7.818091e-12  2.291473e-12  0 
 -9.405712e-11  -4.362831e-12  0 
 3.117536e-12  1.246494e-11  0 
 -9.928826e-12  1.845181e-11  0 
 -3.948624e-11  1.587871e-11  0 
 8.900783e-12  8.429565e-12  0 
 4.316585e-12  6.881445e-12  0 
 3.363477e-12  1.299869e-11  0 
 1.451602e-12  4.288060e-12  0 
 -3.133554e-14  3.952628e-12  0 
 -1.741119e-12  3.331581e-12  0 
 -5.811248e-12  1.451490e-11  0 
 3.134240e-12  3.197249e-12  0 
 -2.360586e-12  -1.040747e-11  0 
 6.661413e-13  -3.337370e-12  0 
 2.200200e-12  -3.996161e-12  0 
 3.518607e-12  -4.379631e-12  0 
 4.147365e-12  -1.705328e-11  0 
 8.142633e-13  -1.079094e-11  0 
 4.432082e-12  -7.437083e-12  0 
 2.575427e-12  8.649607e-12  0 
 1.223104e-13  1.133301e-11  0 
 -4.499629e-12  9.352978e-12  0 
 -8.080108e-11  -3.551132e-12  0 
 -5.817937e-11  -5.568528e-12  0 
 -4.003494e-11  5.901570e-12  0 
 -2.966813e-12  8.521275e-12  0 
 1.648935e-13  1.067284e-11  0 
 4.573256e-12  8.924225e-12  0 
 -4.071429e-12  -5.235331e-13  0 
 1.443914e-12  2.806391e-13  0 
 6.337521e-12  3.715483e-13  0 
 -4.906596e-13  -8.075681e-12  0 
 2.572381e-12  -9.916881e-12  0 
 7.096774e-12  -7.866840e-12  0 
 -4.652999e-12  1.236877e-11  0 
 3.495964e-12  -3.039675e-12  0 
 -6.255459e-13  -1.549725e-11  0 
 4.404887e-12  -8.320125e-12  0 
 1.936000e-12  -1.058575e-11  0 
 -2.666276e-12  -8.138209e-12  0 
 8.826762e-12  1.162031e-12  0 
 3.717756e-12  1.296264e-12  0 
 -1.966487e-12  2.185915e-12  0 
 1.679417e-12  -1.459363e-11  0 
 -1.183866e-11  -1.776846e-11  0 
 -4.196822e-11  -1.141848e-11  0 
 -3.906521e-11  1.544294e-12  0 
 -6.339887e-11  1.312881e-11  0 
 -8.767155e-11  4.249609e-12  0 
 8.724097e-13  1.321413e-11  0 
 5.897923e-13  1.328234e-11  0 
 1.224940e-12  1.008860e-11  0 
 -9.905978e-12  1.778815e-11  0 
 -8.003565e-12  1.642787e-11  0 
 -4.771983e-12  1.492498e-11  0 
 -3.412364e-11  1.684195e-11  0 
 -2.560648e-11  1.677797e-11  0 
 -1.419980e-11  1.261871e-11  0 
 1.200170e-12  8.529003e-12  0 
 -3.529618e-14  8.417018e-12  0 
 -1.309286e-12  8.355949e-12  0 
 1.899704e-14  1.122505e-11  0 
 1.066118e-13  1.109728e-11  0 
 1.108635e-13  1.087120e-11  0 
 -1.894042e-12  9.224495e-12  0 
 6.118499e-13  9.042831e-12  0 
 3.051112e-12  9.184703e-12  0 
 -1.423382e-12  2.176909e-12  0 
 -1.200106e-12  1.646415e-13  0 
 -7.855875e-14  -1.606329e-12  0 
 7.799896e-13  5.919978e-12  0 
 2.452665e-12  3.750058e-13  0 
 1.939414e-12  -5.147108e-12  0 
 6.442646e-12  1.582733e-12  0 
 3.375474e-12  6.425703e-13  0 
 7.813468e-12  -6.721915e-13  0 
 1.029916e-12  -7.945342e-12  0 
 2.151296e-12  -8.044696e-12  0 
 3.219193e-12  -8.187192e-12  0 
 2.422567e-12  -1.011614e-11  0 
 2.278733e-12  -1.034314e-11  0 
 2.019903e-12  -1.047327e-11  0 
 5.432045e-12  -8.083865e-12  0 
 2.838867e-12  -7.892674e-12  0 
 1.549447e-13  -8.033886e-12  0 
 1.838592e-12  -9.412494e-12  0 
 1.488163e-13  -1.299665e-11  0 
 -1.721159e-13  -1.443671e-11  0 
 -3.714363e-12  -1.419803e-11  0 
 -7.505724e-12  -1.566997e-11  0 
 -1.034679e-11  -1.707055e-11  0 
 -1.390897e-11  -1.192256e-11  0 
 -2.660976e-11  -1.566557e-11  0 
 -3.592525e-11  -1.364742e-11  0 
VECTORS displacement_ITER8 FLOAT
 6.745279e-12  1.166082e-11  0 
 -1.020020e-10  5.606472e-12  0 
 3.158911e-12  1.459884e-11  0 
 -1.072853e-12  1.131782e-11  0 
 -5.230130e-12  -1.016826e-11  0 
 -5.607649e-14  -1.315219e-11  0 
 5.253947e-12  -1.651685e-11  0 
 -1.194846e-11  3.994193e-12  0 
 1.700678e-11  5.431225e-12  0 
 1.269778e-11  -6.212305e-12  0 
 -1.522370e-11  -5.141902e-12  0 
 -1.033006e-10  1.462141e-12  0 
 2.857312e-12  2.046609e-11  0 
 -1.080652e-11  2.614540e-11  0 
 -4.206013e-11  2.449583e-11  0 
 3.817739e-12  1.208395e-11  0 
 1.750991e-12  1.146234e-11  0 
 -5.107977e-12  1.350967e-11  0 
 2.477212e-12  1.437150e-11  0 
 1.652135e-12  1.380927e-11  0 
 6.576934e-13  1.286670e-11  0 
 5.089510e-12  1.731893e-12  0 
 -5.787927e-12  -4.573866e-12  0 
 -5.598933e-13  -7.139150e-12  0 
 -3.221964e-12  -1.165059e-11  0 
 -1.989548e-12  -1.252977e-11  0 
 -9.473268e-13  -1.302340e-11  0 
 -6.559189e-12  -5.553085e-12  0 
 7.253235e-12  -4.000221e-12  0 
 1.066685e-11  -1.231522e-11  0 
 3.095136e-12  1.700333e-11  0 
 9.048418e-13  1.894624e-11  0 
 -4.163231e-12  1.633363e-11  0 
 -8.546185e-11  4.801174e-12  0 