# vtk DataFile Version 3.1
this is an vtk file created by FEMAC
ASCII
DATASET UNSTRUCTURED_GRID
POINTS 105 FLOAT
4.000000 0.000000 0.000000
4.500000 0.000000 0.000000
4.000000 0.200000 0.000000
4.000000 0.400000 0.000000
4.000000 0.600000 0.000000
4.000000 0.800000 0.000000
4.000000 1.000000 0.000000
4.500000 0.200000 0.000000
4.500000 0.400000 0.000000
4.500000 0.600000 0.000000
4.500000 0.800000 0.000000
4.500000 1.000000 0.000000
4.125000 0.000000 0.000000
4.250000 0.000000 0.000000
4.375000 0.000000 0.000000
4.000000 0.050000 0.000000
4.000000 0.100000 0.000000
4.000000 0.150000 0.000000
4.000000 0.250000 0.000000
4.000000 0.300000 0.000000
4.000000 0.350000 0.000000
4.000000 0.450000 0.000000
4.000000 0.500000 0.000000
4.000000 0.550000 0.000000
4.000000 0.650000 0.000000
4.000000 0.700000 0.000000
4.000000 0.750000 0.000000
4.000000 0.850000 0.000000
4.000000 0.900000 0.000000
4.000000 0.950000 0.000000
4.125000 0.200000 0.000000
4.250000 0.200000 0.000000
4.375000 0.200000 0.000000
4.500000 0.050000 0.000000
4.500000 0.100000 0.000000
4.500000 0.150000 0.000000
4.125000 0.400000 0.000000
4.250000 0.400000 0.000000
4.375000 0.400000 0.000000
4.500000 0.250000 0.000000
4.500000 0.300000 0.000000
4.500000 0.350000 0.000000
4.125000 0.600000 0.000000
4.250000 0.600000 0.000000
4.375000 0.600000 0.000000
4.500000 0.450000 0.000000
4.500000 0.500000 0.000000
4.500000 0.550000 0.000000
4.125000 0.800000 0.000000
4.250000 0.800000 0.000000
4.375000 0.800000 0.000000
4.500000 0.650000 0.000000
4.500000 0.700000 0.000000
4.500000 0.750000 0.000000
4.125000 1.000000 0.000000
4.250000 1.000000 0.000000
4.375000 1.000000 0.000000
4.500000 0.850000 0.000000
4.500000 0.900000 0.000000
4.500000 0.950000 0.000000
4.125000 0.050000 0.000000
4.125000 0.100000 0.000000
4.125000 0.150000 0.000000
4.250000 0.050000 0.000000
4.250000 0.100000 0.000000
4.250000 0.150000 0.000000
4.375000 0.050000 0.000000
4.375000 0.100000 0.000000
4.375000 0.150000 0.000000
4.125000 0.250000 0.000000
4.125000 0.300000 0.000000
4.125000 0.350000 0.000000
4.250000 0.250000 0.000000
4.250000 0.300000 0.000000
4.250000 0.350000 0.000000
4.375000 0.250000 0.000000
4.375000 0.300000 0.000000
4.375000 0.350000 0.000000
4.125000 0.450000 0.000000
4.125000 0.500000 0.000000
4.125000 0.550000 0.000000
4.250000 0.450000 0.000000
4.250000 0.500000 0.000000
4.250000 0.550000 0.000000
4.375000 0.450000 0.000000
4.375000 0.500000 0.000000
4.375000 0.550000 0.000000
4.125000 0.650000 0.000000
4.125000 0.700000 0.000000
4.125000 0.750000 0.000000
4.250000 0.650000 0.000000
4.250000 0.700000 0.000000
4.250000 0.750000 0.000000
4.375000 0.650000 0.000000
4.375000 0.700000 0.000000
4.375000 0.750000 0.000000
4.125000 0.850000 0.000000
4.125000 0.900000 0.000000
4.125000 0.950000 0.000000
4.250000 0.850000 0.000000
4.250000 0.900000 0.000000
4.250000 0.950000 0.000000
4.375000 0.850000 0.000000
4.375000 0.900000 0.000000
4.375000 0.950000 0.000000
CELLS 80 400 
4 0 12 60 15
4 15 60 61 16
4 16 61 62 17
4 17 62 30  2
4 12 13 63 60
4 60 63 64 61
4 61 64 65 62
4 62 65 31 30
4 13 14 66 63
4 63 66 67 64
4 64 67 68 65
4 65 68 32 31
4 14  1 33 66
4 66 33 34 67
4 67 34 35 68
4 68 35  7 32
4 2 30 69 18
4 18 69 70 19
4 19 70 71 20
4 20 71 36  3
4 30 31 72 69
4 69 72 73 70
4 70 73 74 71
4 71 74 37 36
4 31 32 75 72
4 72 75 76 73
4 73 76 77 74
4 74 77 38 37
4 32  7 39 75
4 75 39 40 76
4 76 40 41 77
4 77 41  8 38
4 3 36 78 21
4 21 78 79 22
4 22 79 80 23
4 23 80 42  4
4 36 37 81 78
4 78 81 82 79
4 79 82 83 80
4 80 83 43 42
4 37 38 84 81
4 81 84 85 82
4 82 85 86 83
4 83 86 44 43
4 38  8 45 84
4 84 45 46 85
4 85 46 47 86
4 86 47  9 44
4 4 42 87 24
4 24 87 88 25
4 25 88 89 26
4 26 89 48  5
4 42 43 90 87
4 87 90 91 88
4 88 91 92 89
4 89 92 49 48
4 43 44 93 90
4 90 93 94 91
4 91 94 95 92
4 92 95 50 49
4 44  9 51 93
4 93 51 52 94
4 94 52 53 95
4 95 53 10 50
4 5 48 96 27
4 27 96 97 28
4 28 97 98 29
4 29 98 54  6
4 48 49 99 96
4 96  99 100  97
4 97 100 101  98
4 98 101  55  54
4 49  50 102  99
4 99 102 103 100
4 100 103 104 101
4 101 104  56  55
4 50  10  57 102
4 102  57  58 103
4 103  58  59 104
4 104  59  11  56
CELL_TYPES 80
9 9 9 9 9 9 9 9 9 9 9 9 9 9 9 9 9 9 9 9 9 9 9 9 9 9 9 9 9 9 9 9 9 9 9 9 9 9 9 9 9 9 9 9 9 9 9 9 9 9 9 9 9 9 9 9 9 9 9 9 9 9 9 9 9 9 9 9 9 9 9 9 9 9 9 9 9 9 9 9 
POINT_DATA 105
VECTORS displacement_ITER1 FLOAT
 -2.258107e-08  4.056327e-10  0 
 -2.462757e-08  -4.337986e-08  0 
 -4.848273e-09  5.911038e-11  0 
 1.440456e-08  1.141722e-09  0 
 1.444383e-08  -1.091298e-09  0 
 -4.879010e-09  4.057585e-12  0 
 -2.252835e-08  -3.486635e-10  0 
 -7.918596e-09  -4.238878e-08  0 
 1.923289e-08  1.196953e-09  0 
 1.926283e-08  -1.293656e-09  0 
 -7.926001e-09  4.228614e-08  0 
 -2.458828e-08  4.327998e-08  0 
 -2.298132e-08  -1.042411e-08  0 
 -2.361665e-08  -2.143605e-08  0 
 -2.417643e-08  -3.255975e-08  0 
 -1.823717e-08  4.263494e-10  0 
 -1.387508e-08  4.372567e-10  0 
 -9.455177e-09  3.387250e-10  0 
 2.172711e-09  -8.449117e-09  0 
 -7.706918e-10  -1.236393e-08  0 
 -1.776551e-09  -2.475323e-09  0 
 1.503554e-08  6.093968e-10  0 
 1.522095e-08  2.405072e-11  0 
 1.505383e-08  -5.607294e-10  0 
 -1.534803e-09  2.394482e-09  0 
 -7.399699e-10  1.202457e-08  0 
 1.957410e-09  8.321039e-09  0 
 -9.462952e-09  -2.786071e-10  0 
 -1.386247e-08  -3.787317e-10  0 
 -1.820415e-08  -3.689122e-10  0 
 -5.476083e-09  -1.039819e-08  0 
 -5.758823e-09  -2.111749e-08  0 
 -6.521633e-09  -3.247130e-08  0 
 -1.994393e-08  -4.368613e-08  0 
 -1.589638e-08  -4.403846e-08  0 
 -1.219107e-08  -4.356747e-08  0 
 1.515617e-08  -3.564625e-10  0 
 1.632292e-08  -4.294091e-10  0 
 1.792672e-08  -6.847960e-10  0 
 -7.468366e-09  -4.129133e-08  0 
 1.123830e-08  -3.989275e-08  0 
 3.009460e-08  -1.865086e-08  0 
 1.518907e-08  3.573191e-10  0 
 1.634720e-08  3.989105e-10  0 
 1.795454e-08  6.250275e-10  0 
 1.895844e-08  4.380131e-10  0 
 1.883264e-08  -4.909123e-11  0 
 1.897327e-08  -5.355973e-10  0 
 -5.501895e-09  1.040293e-08  0 
 -5.774805e-09  2.108291e-08  0 
 -6.535987e-09  3.240036e-08  0 
 3.029541e-08  1.866684e-08  0 
 1.129923e-08  4.003539e-08  0 
 -7.582225e-09  4.129115e-08  0 
 -2.293124e-08  1.043285e-08  0 
 -2.357092e-08  2.140104e-08  0 
 -2.413561e-08  3.248846e-08  0 
 -1.218799e-08  4.346044e-08  0 
 -1.588385e-08  4.393220e-08  0 
 -1.991797e-08  4.358459e-08  0 
 -1.860600e-08  -1.043436e-08  0 
 -1.418736e-08  -1.045264e-08  0 
 -9.762905e-09  -1.045143e-08  0 
 -1.915040e-08  -2.141217e-08  0 
 -1.472032e-08  -2.135450e-08  0 
 -1.030034e-08  -2.127456e-08  0 
 -1.986539e-08  -3.254578e-08  0 
 -1.538779e-08  -3.249925e-08  0 
 -1.083750e-08  -3.243748e-08  0 
 5.630510e-10  -7.103695e-09  0 
 5.755722e-09  -3.876183e-09  0 
 1.122040e-08  -3.814360e-09  0 
 1.412867e-09  -1.548733e-08  0 
 7.508912e-09  -1.093999e-08  0 
 1.243364e-08  -5.026055e-09  0 
 1.795392e-09  -2.393319e-08  0 
 8.465569e-09  -1.378393e-08  0 
 1.299830e-08  -8.578835e-09  0 
 1.550273e-08  -1.364945e-10  0 
 1.564600e-08  1.739334e-12  0 
 1.551899e-08  1.392732e-10  0 
 1.646391e-08  -3.074336e-10  0 
 1.649431e-08  -1.534430e-11  0 
 1.647699e-08  2.767698e-10  0 
 1.764123e-08  -2.518941e-10  0 
 1.757793e-08  -3.058845e-11  0 
 1.765504e-08  1.910847e-10  0 
 1.123651e-08  3.804499e-09  0 
 5.763012e-09  3.923416e-09  0 
 5.600707e-10  7.107428e-09  0 
 1.244463e-08  4.998765e-09  0 
 7.511506e-09  1.090799e-08  0 
 1.408231e-09  1.545714e-08  0 
 1.301203e-08  8.522865e-09  0 
 8.474277e-09  1.369501e-08  0 
 1.799843e-09  2.386771e-08  0 
 -9.768817e-09  1.045845e-08  0 
 -1.417422e-08  1.046070e-08  0 
 -1.857444e-08  1.044291e-08  0 
 -1.030222e-08  2.123958e-08  0 
 -1.470683e-08  2.131957e-08  0 
 -1.912088e-08  2.137722e-08  0 
 -1.083734e-08  3.236655e-08  0 
 -1.537290e-08  3.242817e-08  0 
 -1.983713e-08  3.247446e-08  0 
VECTORS displacement_ITER2 FLOAT
 -3.134376e-08  -1.174789e-08  0 
 -3.291473e-08  -8.211228e-08  0 
 -5.258331e-09  -1.240674e-08  0 
 3.021041e-09  -1.886506e-10  0 
 2.937070e-09  9.097759e-11  0 
 -5.199229e-09  1.232798e-08  0 
 -3.142573e-08  1.167350e-08  0 
 -7.748743e-09  -8.190154e-08  0 
 7.792359e-09  -7.132689e-09  0 
 7.716585e-09  7.384047e-09  0 
 -7.698986e-09  8.213511e-08  0 
 -3.299591e-08  8.233937e-08  0 
 -3.214950e-08  -2.848271e-08  0 
 -3.302032e-08  -4.581393e-08  0 
 -3.342957e-08  -6.370966e-08  0 
 -2.476808e-08  -1.181028e-08  0 
 -1.809288e-08  -1.195031e-08  0 
 -1.148941e-08  -1.210703e-08  0 
 -9.526857e-09  -2.759553e-09  0 
 5.606608e-09  5.635414e-09  0 
 1.388072e-08  -7.190685e-09  0 
 3.519176e-09  -1.856303e-10  0 
 3.679246e-09  -4.739655e-11  0 
 3.479090e-09  9.016658e-11  0 
 1.343738e-08  7.318931e-09  0 
 5.519304e-09  -5.047036e-09  0 
 -9.159960e-09  2.987470e-09  0 
 -1.146835e-08  1.202914e-08  0 
 -1.810665e-08  1.187410e-08  0 
 -2.481617e-08  1.173548e-08  0 
 -5.293358e-09  -2.794423e-08  0 
 -4.820082e-09  -4.523544e-08  0 
 -4.706743e-09  -6.400946e-08  0 
 -2.604888e-08  -8.168844e-08  0 
 -1.862048e-08  -8.118456e-08  0 
 -1.178740e-08  -8.162042e-08  0 
 4.494888e-09  -4.281907e-10  0 
 5.063577e-09  -6.977586e-11  0 
 4.193903e-09  -1.446221e-09  0 
 -3.915556e-09  -7.414969e-08  0 
 -2.363111e-08  -5.751690e-08  0 
 -3.005543e-08  -5.896307e-08  0 
 4.420765e-09  4.371413e-10  0 
 5.003703e-09  1.556530e-10  0 
 4.126965e-09  1.605598e-09  0 
 6.003975e-09  -3.722170e-09  0 
 5.527803e-09  1.268403e-10  0 
 5.969214e-09  3.975162e-09  0 
 -5.242325e-09  2.795809e-08  0 
 -4.780530e-09  4.531866e-08  0 
 -4.661243e-09  6.416173e-08  0 
 -3.034882e-08  5.898092e-08  0 
 -2.366891e-08  5.726193e-08  0 
 -3.699211e-09  7.415742e-08  0 
 -3.222728e-08  2.849035e-08  0 
 -3.309435e-08  4.589785e-08  0 
 -3.350228e-08  6.386418e-08  0 
 -1.177330e-08  8.185762e-08  0 
 -1.863298e-08  8.142004e-08  0 
 -2.609185e-08  8.191789e-08  0 
 -2.532062e-08  -2.845534e-08  0 
 -1.854126e-08  -2.836851e-08  0 
 -1.185914e-08  -2.821730e-08  0 
 -2.602827e-08  -4.580694e-08  0 
 -1.900189e-08  -4.572322e-08  0 
 -1.190245e-08  -4.549020e-08  0 
 -2.614990e-08  -6.375877e-08  0 
 -1.925293e-08  -6.390805e-08  0 
 -1.238125e-08  -6.406723e-08  0 
 9.731129e-10  -2.167370e-08  0 
 3.654829e-09  -1.687906e-08  0 
 4.453158e-09  -5.745703e-09  0 
 1.996235e-10  -3.458624e-08  0 
 3.710052e-09  -2.176184e-08  0 
 4.766932e-09  -1.267220e-08  0 
 -5.751030e-09  -5.250374e-08  0 
 -1.076298e-09  -3.953017e-08  0 
 5.914320e-09  -1.461696e-08  0 
 4.307240e-09  -2.334972e-10  0 
 4.212048e-09  2.294624e-12  0 
 4.270546e-09  2.392220e-10  0 
 4.997325e-09  1.154467e-10  0 
 5.071673e-09  4.294335e-11  0 
 4.965800e-09  -2.943595e-11  0 
 5.998517e-09  -1.038682e-09  0 
 6.439695e-09  8.138094e-11  0 
 5.964581e-09  1.200318e-09  0 
 4.410298e-09  5.779106e-09  0 
 3.633325e-09  1.681305e-08  0 
 9.726864e-10  2.168667e-08  0 
 4.736040e-09  1.275171e-08  0 
 3.699438e-09  2.184986e-08  0 
 2.083728e-10  3.466698e-08  0 
 5.872980e-09  1.476329e-08  0 
 -1.092533e-09  3.972395e-08  0 
 -5.735405e-09  5.264915e-08  0 
 -1.184106e-08  2.822818e-08  0 
 -1.855559e-08  2.837745e-08  0 
 -2.536675e-08  2.846328e-08  0 
 -1.188874e-08  4.557364e-08  0 
 -1.901658e-08  4.580660e-08  0 
 -2.607253e-08  4.589061e-08  0 
 -1.236573e-08  6.422103e-08  0 
 -1.926887e-08  6.406304e-08  0 
 -2.619565e-08  6.391375e-08  0 
VECTORS displacement_ITER3 FLOAT
 -2.793940e-08  -1.315366e-09  0 
 -2.760246e-08  -5.439482e-08  0 
 -5.930669e-09  -1.105710e-09  0 
 2.729461e-09  -2.630886e-10  0 
 2.770352e-09  2.967895e-10  0 
 -5.944873e-09  1.126479e-09  0 
 -2.786957e-08  1.335041e-09  0 
 -1.046593e-08  -5.515182e-08  0 
 4.811233e-09  -1.287636e-08  0 
 4.852339e-09  1.274005e-08  0 
 -1.047093e-08  5.498275e-08  0 
 -2.753017e-08  5.422865e-08  0 
 -2.836559e-08  -1.499999e-08  0 
 -2.857643e-08  -2.875322e-08  0 
 -2.820229e-08  -4.191227e-08  0 
 -2.246764e-08  -1.283649e-09  0 
 -1.701156e-08  -1.249464e-09  0 
 -1.149501e-08  -1.244305e-09  0 
 1.619673e-09  1.204479e-09  0 
 -9.153439e-10  -1.582776e-09  0 
 1.802776e-09  2.953699e-09  0 
 3.589982e-09  -6.249280e-11  0 
 3.833249e-09  1.696459e-11  0 
 3.609466e-09  9.642377e-11  0 
 2.008646e-09  -3.031405e-09  0 
 -8.628725e-10  1.295705e-09  0 
 1.466016e-09  -1.318663e-09  0 
 -1.148664e-08  1.266013e-09  0 
 -1.698258e-08  1.270208e-09  0 
 -2.241854e-08  1.303505e-09  0 
 -6.464540e-09  -1.481688e-08  0 
 -6.985039e-09  -2.844300e-08  0 
 -7.996967e-09  -4.201693e-08  0 
 -2.243081e-08  -5.444994e-08  0 
 -1.802616e-08  -5.421832e-08  0 
 -1.378146e-08  -5.368844e-08  0 
 4.395792e-09  -4.201939e-10  0 
 5.356877e-09  9.384120e-11  0 
 4.204626e-09  3.061051e-10  0 
 -1.617483e-08  -5.906630e-08  0 
 -1.809242e-08  -5.312937e-08  0 
 -2.579561e-08  -3.101254e-08  0 
 4.431684e-09  4.033314e-10  0 
 5.386052e-09  -1.482559e-10  0 
 4.237817e-09  -3.957019e-10  0 
 7.218709e-09  -4.654583e-09  0 
 8.410676e-09  -6.911095e-11  0 
 7.236006e-09  4.517521e-09  0 
 -6.475059e-09  1.478429e-08  0 
 -6.991053e-09  2.836583e-08  0 
 -8.005501e-09  4.189407e-08  0 
 -2.564456e-08  3.099617e-08  0 
 -1.807354e-08  5.324203e-08  0 
 -1.625952e-08  5.902991e-08  0 
 -2.829739e-08  1.496980e-08  0 
 -2.850969e-08  2.867509e-08  0 
 -2.813751e-08  4.179030e-08  0 
 -1.376868e-08  5.351543e-08  0 
 -1.799952e-08  5.404367e-08  0 
 -2.238723e-08  5.427997e-08  0 
 -2.286833e-08  -1.499186e-08  0 
 -1.736871e-08  -1.495126e-08  0 
 -1.191250e-08  -1.488853e-08  0 
 -2.318222e-08  -2.874220e-08  0 
 -1.784492e-08  -2.870029e-08  0 
 -1.240643e-08  -2.855862e-08  0 
 -2.319010e-08  -4.195032e-08  0 
 -1.813847e-08  -4.208498e-08  0 
 -1.326842e-08  -4.232483e-08  0 
 -2.299876e-09  -1.079525e-08  0 
 1.876678e-09  -6.210170e-09  0 
 3.595969e-09  -4.053662e-09  0 
 -2.141935e-09  -2.133531e-08  0 
 1.658172e-09  -1.400215e-08  0 
 3.799955e-09  -6.648005e-09  0 
 -6.484548e-09  -3.459498e-08  0 
 -2.418664e-09  -2.477197e-08  0 
 4.839647e-09  -1.293032e-08  0 
 4.226685e-09  -3.237759e-10  0 
 4.146495e-09  -7.482457e-12  0 
 4.244573e-09  3.082626e-10  0 
 4.952949e-09  3.248852e-10  0 
 5.017451e-09  -2.703546e-11  0 
 4.968237e-09  -3.790984e-10  0 
 6.349907e-09  -6.173854e-10  0 
 6.760613e-09  -4.572236e-11  0 
 6.367224e-09  5.265186e-10  0 
 3.619591e-09  4.021778e-09  0 
 1.890797e-09  6.220033e-09  0 
 -2.291854e-09  1.076525e-08  0 
 3.816961e-09  6.590650e-09  0 
 1.668100e-09  1.393467e-08  0 
 -2.137384e-09  2.126459e-08  0 
 4.863664e-09  1.283860e-08  0 
 -2.403137e-09  2.464940e-08  0 
 -6.485395e-09  3.448770e-08  0 
 -1.190325e-08  1.485695e-08  0 
 -1.733959e-08  1.492057e-08  0 
 -2.281954e-08  1.496160e-08  0 
 -1.239513e-08  2.848126e-08  0 
 -1.781546e-08  2.862277e-08  0 
 -2.313437e-08  2.866432e-08  0 
 -1.325813e-08  4.220140e-08  0 
 -1.810844e-08  4.196179e-08  0 
 -2.314092e-08  4.182791e-08  0 
VECTORS displacement_ITER4 FLOAT
 -2.234806e-08  2.750277e-09  0 
 -2.290281e-08  -4.046802e-08  0 
 -4.071192e-09  3.088786e-09  0 
 4.453210e-09  -3.880152e-10  0 
 4.443256e-09  3.732751e-10  0 
 -4.070390e-09  -3.074011e-09  0 
 -2.241557e-08  -2.735382e-09  0 
 -8.336555e-09  -4.081674e-08  0 
 6.103954e-09  -1.461543e-08  0 
 6.077614e-09  1.465008e-08  0 
 -8.350281e-09  4.098767e-08  0 
 -2.297021e-08  4.063455e-08  0 
 -2.278179e-08  -8.354955e-09  0 
 -2.307851e-08  -1.945550e-08  0 
 -2.309439e-08  -3.010458e-08  0 
 -1.795729e-08  2.751711e-09  0 
 -1.348034e-08  2.793249e-09  0 
 -8.910194e-09  2.899368e-09  0 
 -1.341870e-10  2.487275e-09  0 
 1.568087e-09  2.670104e-09  0 
 2.881671e-09  2.306577e-09  0 
 5.159815e-09  1.319694e-11  0 
 5.370570e-09  -7.145669e-12  0 
 5.155787e-09  -2.755231e-11  0 
 2.788253e-09  -2.287428e-09  0 
 1.514288e-09  -2.534162e-09  0 
 -9.287722e-11  -2.385701e-09  0 
 -8.927225e-09  -2.884960e-09  0 
 -1.351377e-08  -2.779091e-09  0 
 -1.800761e-08  -2.737157e-09  0 
 -5.000147e-09  -8.339537e-09  0 
 -5.637923e-09  -1.922566e-08  0 
 -6.519172e-09  -3.009849e-08  0 
 -1.885147e-08  -4.027750e-08  0 
 -1.490629e-08  -4.010509e-08  0 
 -1.165878e-08  -4.012047e-08  0 
 6.119228e-09  -2.856303e-10  0 
 7.290370e-09  3.590539e-10  0 
 6.054353e-09  5.856672e-10  0 
 -9.904354e-09  -3.906836e-08  0 
 -1.052473e-08  -3.648323e-08  0 
 -4.336323e-09  -2.066713e-08  0 
 6.111203e-09  2.842382e-10  0 
 7.284857e-09  -3.541394e-10  0 
 6.042263e-09  -5.748802e-10  0 
 1.004233e-08  -6.586817e-09  0 
 1.045011e-08  1.531726e-11  0 
 1.003097e-08  6.617554e-09  0 
 -5.000858e-09  8.396713e-09  0 
 -5.639850e-09  1.932259e-08  0 
 -6.521399e-09  3.023921e-08  0 
 -4.496638e-09  2.066948e-08  0 
 -1.062013e-08  3.647301e-08  0 
 -9.928002e-09  3.916117e-08  0 
 -2.284918e-08  8.411866e-09  0 
 -2.314509e-08  1.955483e-08  0 
 -2.315600e-08  3.024082e-08  0 
 -1.168041e-08  4.030107e-08  0 
 -1.493467e-08  4.028696e-08  0 
 -1.889314e-08  4.045042e-08  0 
 -1.831478e-08  -8.351920e-09  0 
 -1.386425e-08  -8.347462e-09  0 
 -9.411398e-09  -8.349221e-09  0 
 -1.872933e-08  -1.944699e-08  0 
 -1.436905e-08  -1.940831e-08  0 
 -1.000068e-08  -1.931588e-08  0 
 -1.894720e-08  -3.015601e-08  0 
 -1.490334e-08  -3.024828e-08  0 
 -1.078495e-08  -3.030434e-08  0 
 -8.112679e-10  -5.684334e-09  0 
 2.638534e-09  -3.537158e-09  0 
 5.079046e-09  -1.963954e-09  0 
 -1.025212e-09  -1.432831e-08  0 
 2.553477e-09  -9.532768e-09  0 
 5.404024e-09  -4.310690e-09  0 
 -3.883325e-09  -2.463404e-08  0 
 4.787426e-10  -1.663192e-08  0 
 3.886430e-09  -9.467806e-09  0 
 5.932008e-09  -2.839862e-10  0 
 5.858080e-09  -1.434360e-12  0 
 5.928060e-09  2.815594e-10  0 
 6.843689e-09  4.975602e-10  0 
 6.799681e-09  2.025489e-12  0 
 6.840331e-09  -4.933307e-10  0 
 8.402011e-09  -3.401292e-10  0 
 9.270596e-09  6.014044e-12  0 
 8.395596e-09  3.519872e-10  0 
 5.072360e-09  1.988646e-09  0 
 2.632944e-09  3.553142e-09  0 
 -8.155612e-10  5.720946e-09  0 
 5.404344e-09  4.337559e-09  0 
 2.557022e-09  9.584490e-09  0 
 -1.024701e-09  1.440372e-08  0 
 3.878685e-09  9.507221e-09  0 
 4.661181e-10  1.671851e-08  0 
 -3.890473e-09  2.474383e-08  0 
 -9.428359e-09  8.406219e-09  0 
 -1.389802e-08  8.404504e-09  0 
 -1.836540e-08  8.408913e-09  0 
 -1.001901e-08  1.941362e-08  0 
 -1.440324e-08  1.950657e-08  0 
 -1.877930e-08  1.954593e-08  0 
 -1.080304e-08  3.044368e-08  0 
 -1.493841e-08  3.038622e-08  0 
 -1.899774e-08  3.029272e-08  0 
VECTORS displacement_ITER5 FLOAT
 -3.476866e-08  1.627440e-09  0 
 -3.762759e-08  -6.182737e-08  0 
 -7.906825e-09  1.656732e-09  0 
 1.452199e-08  5.556716e-10  0 
 1.453012e-08  -4.914124e-10  0 
 -7.961472e-09  -1.666690e-09  0 
 -3.462946e-08  -1.637553e-09  0 
 -1.496892e-08  -6.072143e-08  0 
 1.950680e-08  -1.465888e-08  0 
 1.956181e-08  1.467608e-08  0 
 -1.497982e-08  6.027565e-08  0 
 -3.749271e-08  6.139405e-08  0 
 -3.550795e-08  -1.438485e-08  0 
 -3.638912e-08  -3.050130e-08  0 
 -3.713642e-08  -4.639016e-08  0 
 -2.836269e-08  1.683209e-09  0 
 -2.189327e-08  1.781164e-09  0 
 -1.520274e-08  1.829601e-09  0 
 -2.812133e-09  -7.096493e-09  0 
 -1.894846e-09  -8.191091e-09  0 
 -1.044078e-09  -2.249917e-09  0 
 1.572690e-08  4.186284e-10  0 
 1.621851e-08  3.090717e-11  0 
 1.572897e-08  -3.564706e-10  0 
 -7.951576e-10  2.248988e-09  0 
 -1.760157e-09  7.834836e-09  0 
 -2.990612e-09  6.822395e-09  0 
 -1.520683e-08  -1.839327e-09  0 
 -2.184988e-08  -1.790011e-09  0 
 -2.827136e-08  -1.692694e-09  0 
 -9.702713e-09  -1.442911e-08  0 
 -1.064873e-08  -3.006974e-08  0 
 -1.209008e-08  -4.635379e-08  0 
 -3.131536e-08  -6.197790e-08  0 
 -2.553370e-08  -6.198517e-08  0 
 -2.018699e-08  -6.178953e-08  0 
 1.690451e-08  -5.981357e-10  0 
 1.925641e-08  1.848271e-10  0 
 1.939264e-08  6.148849e-10  0 
 -1.377298e-08  -5.452925e-08  0 
 1.257058e-10  -4.720685e-08  0 
 2.218252e-08  -3.429135e-08  0 
 1.690766e-08  6.481101e-10  0 
 1.925157e-08  -1.277690e-10  0 
 1.940698e-08  -5.487548e-10  0 
 2.453357e-08  -6.802782e-09  0 
 2.597592e-08  2.163815e-11  0 
 2.456051e-08  6.839644e-09  0 
 -9.750602e-09  1.429969e-08  0 
 -1.069184e-08  2.983103e-08  0 
 -1.213235e-08  4.599513e-08  0 
 2.260300e-08  3.431009e-08  0 
 4.017582e-10  4.728452e-08  0 
 -1.371430e-08  5.434921e-08  0 
 -3.536993e-08  1.425651e-08  0 
 -3.625444e-08  3.025543e-08  0 
 -3.701557e-08  4.604304e-08  0 
 -2.017555e-08  6.131959e-08  0 
 -2.550549e-08  6.151535e-08  0 
 -3.124951e-08  6.153057e-08  0 
 -2.905229e-08  -1.439793e-08  0 
 -2.254280e-08  -1.443352e-08  0 
 -1.601576e-08  -1.447572e-08  0 
 -2.995948e-08  -3.048471e-08  0 
 -2.354852e-08  -3.041622e-08  0 
 -1.714405e-08  -3.029103e-08  0 
 -3.094402e-08  -4.638771e-08  0 
 -2.469885e-08  -4.640664e-08  0 
 -1.839596e-08  -4.633978e-08  0 
 -1.147302e-09  -9.490832e-09  0 
 5.437295e-09  -6.061787e-09  0 
 1.224448e-08  -4.375993e-09  0 
 -1.217976e-09  -2.236295e-08  0 
 7.171292e-09  -1.496323e-08  0 
 1.408338e-08  -6.940058e-09  0 
 -2.911549e-09  -3.561363e-08  0 
 5.242312e-09  -2.321078e-08  0 
 1.133672e-08  -1.202670e-08  0 
 1.700384e-08  -3.813972e-10  0 
 1.699821e-08  2.715653e-11  0 
 1.700494e-08  4.344732e-10  0 
 1.879590e-08  3.565340e-10  0 
 1.876423e-08  2.969415e-11  0 
 1.879558e-08  -2.975354e-10  0 
 2.159276e-08  -1.518614e-10  0 
 2.233117e-08  3.115131e-11  0 
 2.159928e-08  2.147271e-10  0 
 1.223411e-08  4.345349e-09  0 
 5.416442e-09  6.060755e-09  0 
 -1.175014e-09  9.429319e-09  0 
 1.405095e-08  6.926245e-09  0 
 7.120777e-09  1.486955e-08  0 
 -1.264758e-09  2.219474e-08  0 
 1.133616e-08  1.200637e-08  0 
 5.248610e-09  2.303335e-08  0 
 -2.930584e-09  3.534549e-08  0 
 -1.601840e-08  1.434692e-08  0 
 -2.249879e-08  1.430465e-08  0 
 -2.896134e-08  1.426933e-08  0 
 -1.714239e-08  3.004982e-08  0 
 -2.350315e-08  3.017347e-08  0 
 -2.987038e-08  3.023994e-08  0 
 -1.839441e-08  4.598418e-08  0 
 -2.465072e-08  4.605418e-08  0 
 -3.085427e-08  4.603887e-08  0 
VECTORS displacement_ITER6 FLOAT
 -3.183064e-08  -4.393015e-09  0 
 -3.441696e-08  -6.250602e-08  0 
 -7.446085e-09  -4.454088e-09  0 
 8.748503e-09  6.142201e-13  0 
 8.767220e-09  -8.245260e-11  0 
 -7.374552e-09  4.481661e-09  0 
 -3.192373e-08  4.417573e-09  0 
 -1.508415e-08  -6.121114e-08  0 
 1.426747e-08  -1.820825e-08  0 
 1.424019e-08  1.804931e-08  0 
 -1.505306e-08  6.161398e-08  0 
 -3.450945e-08  6.289679e-08  0 
 -3.264216e-08  -1.905483e-08  0 
 -3.345864e-08  -3.377258e-08  0 
 -3.408934e-08  -4.820103e-08  0 
 -2.604738e-08  -4.392052e-09  0 
 -2.009689e-08  -4.365452e-09  0 
 -1.392421e-08  -4.296713e-09  0 
 -6.949311e-09  -1.066899e-09  0 
 2.356642e-09  1.548308e-09  0 
 7.732405e-09  -4.175942e-09  0 
 9.879433e-09  7.036644e-11  0 
 1.028796e-08  -3.994704e-11  0 
 9.889884e-09  -1.506889e-10  0 
 7.558507e-09  4.100089e-09  0 
 2.216456e-09  -1.305255e-09  0 
 -6.806162e-09  1.306213e-09  0 
 -1.389512e-08  4.322874e-09  0 
 -2.010907e-08  4.390531e-09  0 
 -2.610018e-08  4.416733e-09  0 
 -9.162156e-09  -1.890050e-08  0 
 -9.985829e-09  -3.332845e-08  0 
 -1.130460e-08  -4.852006e-08  0 
 -2.878789e-08  -6.237953e-08  0 
 -2.329674e-08  -6.207491e-08  0 
 -1.821470e-08  -6.192936e-08  0 
 1.150539e-08  -6.165822e-10  0 
 1.366411e-08  3.363376e-10  0 
 1.282099e-08  1.655874e-10  0 
 -1.130495e-08  -5.632836e-08  0 
 -9.584510e-09  -4.538419e-08  0 
 -3.189067e-09  -4.584162e-08  0 
 1.152640e-08  5.171281e-10  0 
 1.369301e-08  -4.715691e-10  0 
 1.283320e-08  -3.409370e-10  0 
 1.845868e-08  -8.934127e-09  0 
 1.976970e-08  -9.796335e-11  0 
 1.844060e-08  8.750164e-09  0 
 -9.096695e-09  1.902605e-08  0 
 -9.921887e-09  3.354856e-08  0 
 -1.124115e-08  4.884764e-08  0 
 -3.533637e-09  4.581693e-08  0 
 -9.861698e-09  4.532754e-08  0 
 -1.140427e-08  5.646500e-08  0 
 -3.273537e-08  1.918094e-08  0 
 -3.354993e-08  3.400071e-08  0 
 -3.416787e-08  4.851660e-08  0 
 -1.819982e-08  6.235504e-08  0 
 -2.329241e-08  6.249984e-08  0 
 -2.881593e-08  6.278310e-08  0 
 -2.671981e-08  -1.905611e-08  0 
 -2.079421e-08  -1.905443e-08  0 
 -1.489127e-08  -1.903984e-08  0 
 -2.763855e-08  -3.376539e-08  0 
 -2.180918e-08  -3.371219e-08  0 
 -1.592654e-08  -3.355529e-08  0 
 -2.838769e-08  -4.822812e-08  0 
 -2.279697e-08  -4.832080e-08  0 
 -1.726053e-08  -4.843326e-08  0 
 -1.202431e-09  -1.381756e-08  0 
 4.186095e-09  -9.944046e-09  0 
 8.481601e-09  -3.929483e-09  0 
 -2.436237e-09  -2.522247e-08  0 
 4.366927e-09  -1.597493e-08  0 
 9.582851e-09  -8.322833e-09  0 
 -6.376242e-09  -3.860080e-08  0 
 -5.681399e-11  -2.837401e-08  0 
 7.666344e-09  -1.221104e-08  0 
 1.137451e-08  -4.485400e-10  0 
 1.129506e-08  -5.166115e-11  0 
 1.138573e-08  3.463516e-10  0 
 1.314129e-08  4.669341e-10  0 
 1.314144e-08  -6.882350e-11  0 
 1.315363e-08  -6.042215e-10  0 
 1.598498e-08  -5.929638e-10  0 
 1.696969e-08  -8.627651e-11  0 
 1.599310e-08  4.199821e-10  0 
 8.513091e-09  3.924043e-09  0 
 4.230043e-09  9.927409e-09  0 
 -1.156278e-09  1.385834e-08  0 
 9.640950e-09  8.273920e-09  0 
 4.444281e-09  1.602018e-08  0 
 -2.364106e-09  2.535748e-08  0 
 7.688554e-09  1.213505e-08  0 
 -4.365796e-11  2.847550e-08  0 
 -6.336574e-09  3.882838e-08  0 
 -1.486381e-08  1.916583e-08  0 
 -2.080635e-08  1.918082e-08  0 
 -2.677232e-08  1.918239e-08  0 
 -1.590218e-08  3.377811e-08  0 
 -2.182291e-08  3.393690e-08  0 
 -2.769020e-08  3.399234e-08  0 
 -1.723579e-08  4.875798e-08  0 
 -2.281337e-08  4.864231e-08  0 
 -2.844023e-08  4.854568e-08  0 
VECTORS displacement_ITER7 FLOAT
 -3.507438e-08  -8.156359e-10  0 
 -3.645672e-08  -5.997591e-08  0 
 -8.344062e-09  -6.245137e-10  0 
 9.668204e-09  2.033268e-10  0 
 9.597005e-09  -8.884868e-11  0 
 -8.451692e-09  5.763544e-10  0 
 -3.500041e-08  7.733793e-10  0 
 -1.894761e-08  -5.857615e-08  0 
 1.598041e-08  -2.067093e-08  0 
 1.597431e-08  2.109751e-08  0 
 -1.899814e-08  5.811745e-08  0 
 -3.638553e-08  5.952996e-08  0 
 -3.566836e-08  -1.662019e-08  0 
 -3.608690e-08  -3.202454e-08  0 
 -3.625164e-08  -4.630243e-08  0 
 -2.874717e-08  -7.614683e-10  0 
 -2.231164e-08  -6.470769e-10  0 
 -1.558044e-08  -5.769783e-10  0 
 -2.281615e-10  -3.268511e-11  0 
 -7.389058e-11  -2.715811e-09  0 
 4.377305e-09  6.351016e-10  0 
 1.123940e-08  2.609456e-10  0 
 1.167150e-08  5.636049e-11  0 
 1.120262e-08  -1.476269e-10  0 
 4.451752e-09  -4.427870e-10  0 
 7.918173e-11  2.597571e-09  0 
 -3.285140e-10  -2.133728e-10  0 
 -1.564166e-08  5.303227e-10  0 
 -2.232664e-08  6.022886e-10  0 
 -2.871694e-08  7.184866e-10  0 
 -1.058616e-08  -1.657007e-08  0 
 -1.209469e-08  -3.163433e-08  0 
 -1.430023e-08  -4.675006e-08  0 
 -3.087714e-08  -5.988598e-08  0 
 -2.585683e-08  -5.958311e-08  0 
 -2.150536e-08  -5.872149e-08  0 
 1.299627e-08  -5.542741e-10  0 
 1.550893e-08  6.199352e-10  0 
 1.463600e-08  8.817191e-10  0 
 -1.750469e-08  -6.095132e-08  0 
 -8.488116e-09  -5.713049e-08  0 
 -4.456730e-09  -3.986840e-08  0 
 1.292571e-08  7.489597e-10  0 
 1.543091e-08  -3.283231e-10  0 
 1.457809e-08  -4.868400e-10  0 
 2.104880e-08  -9.027145e-09  0 
 2.267054e-08  2.424618e-10  0 
 2.105670e-08  9.491291e-09  0 
 -1.068712e-08  1.641692e-08  0 
 -1.219731e-08  3.137375e-08  0 
 -1.439887e-08  4.636328e-08  0 
 -4.087895e-09  3.995239e-08  0 
 -8.070600e-09  5.715856e-08  0 
 -1.727625e-08  6.082043e-08  0 
 -3.559241e-08  1.646411e-08  0 
 -3.601258e-08  3.175225e-08  0 
 -3.619567e-08  4.593306e-08  0 
 -2.154643e-08  5.822833e-08  0 
 -2.589486e-08  5.908884e-08  0 
 -3.088260e-08  5.942157e-08  0 
 -2.937424e-08  -1.662843e-08  0 
 -2.305075e-08  -1.664228e-08  0 
 -1.673797e-08  -1.665169e-08  0 
 -3.014375e-08  -3.201953e-08  0 
 -2.421491e-08  -3.199001e-08  0 
 -1.819557e-08  -3.183584e-08  0 
 -3.077782e-08  -4.635192e-08  0 
 -2.532110e-08  -4.647711e-08  0 
 -1.999081e-08  -4.675793e-08  0 
 -2.764982e-09  -1.150480e-08  0 
 4.377933e-09  -6.632616e-09  0 
 9.219301e-09  -3.975488e-09  0 
 -3.476413e-09  -2.349655e-08  0 
 4.142816e-09  -1.516225e-08  0 
 1.034713e-08  -6.785380e-09  0 
 -8.164962e-09  -3.719381e-08  0 
 -4.388175e-10  -2.608612e-08  0 
 9.496574e-09  -1.385349e-08  0 
 1.281314e-08  -3.806447e-10  0 
 1.271801e-08  9.949445e-11  0 
 1.277691e-08  5.782672e-10  0 
 1.484206e-08  7.971027e-10  0 
 1.482673e-08  1.474913e-10  0 
 1.480559e-08  -5.025625e-10  0 
 1.813381e-08  -3.472940e-10  0 
 1.912416e-08  1.964491e-10  0 
 1.810097e-08  7.404156e-10  0 
 9.140851e-09  4.035693e-09  0 
 4.285682e-09  6.669831e-09  0 
 -2.855130e-09  1.148099e-08  0 
 1.023223e-08  6.940618e-09  0 
 4.004243e-09  1.517515e-08  0 
 -3.602267e-09  2.336906e-08  0 
 9.435696e-09  1.409492e-08  0 
 -4.824558e-10  2.607025e-08  0 
 -8.234485e-09  3.695463e-08  0 
 -1.679739e-08  1.649685e-08  0 
 -2.306624e-08  1.648617e-08  0 
 -2.934446e-08  1.647215e-08  0 
 -1.825186e-08  3.157120e-08  0 
 -2.422814e-08  3.172258e-08  0 
 -3.011446e-08  3.174891e-08  0 
 -2.004695e-08  4.637595e-08  0 
 -2.533088e-08  4.609994e-08  0 
 -3.074777e-08  4.598001e-08  0 
VECTORS displacement_ITER8 FLOAT
 -4.188897e-08  4.214052e-10  0 
 -4.367842e-08  -7.236589e-08  0 
 -8.879872e-09  5.381647e-10  0 
 1.335252e-08  2.208112e-10  0 
 1.351431e-08  -4.148470e-10  0 
 -8.700835e-09  -4.221441e-10  0 
 -4.193151e-08  -3.189382e-10  0 
 -2.166968e-08  -7.062543e-08  0 
 2.158131e-08  -2.355656e-08  0 
 2.163247e-08  2.265952e-08  0 
 -2.157856e-08  7.123760e-08  0 
 -4.371810e-08  7.296232e-08  0 
 -4.254147e-08  -1.903193e-08  0 
 -4.304607e-08  -3.788696e-08  0 
 -4.336384e-08  -5.542660e-08  0 
 -3.410437e-08  4.617427e-10  0 
 -2.614887e-08  5.727996e-10  0 
 -1.787664e-08  6.571659e-10  0 
 -1.260617e-09  -2.824450e-09  0 
 1.529193e-09  -2.936790e-09  0 
 4.965295e-09  -1.774117e-10  0 
 1.531527e-08  3.307185e-10  0 
 1.594342e-08  -9.639332e-11  0 
 1.539771e-08  -5.237782e-10  0 
 5.036265e-09  -2.494136e-10  0 
 1.315258e-09  2.846422e-09  0 
 -1.240190e-09  3.133565e-09  0 
 -1.775351e-08  -5.437932e-10  0 
 -2.608337e-08  -4.638539e-10  0 
 -3.409488e-08  -3.573796e-10  0 
 -1.179067e-08  -1.902767e-08  0 
 -1.365490e-08  -3.740735e-08  0 
 -1.625478e-08  -5.582856e-08  0 