# vtk DataFile Version 3.1
this is an vtk file created by FEMAC
ASCII
DATASET UNSTRUCTURED_GRID
POINTS 105 FLOAT
7.500000 0.000000 0.000000
8.000000 0.000000 0.000000
7.500000 0.200000 0.000000
7.500000 0.400000 0.000000
7.500000 0.600000 0.000000
7.500000 0.800000 0.000000
7.500000 1.000000 0.000000
8.000000 0.200000 0.000000
8.000000 0.400000 0.000000
8.000000 0.600000 0.000000
8.000000 0.800000 0.000000
8.000000 1.000000 0.000000
7.625000 0.000000 0.000000
7.750000 0.000000 0.000000
7.875000 0.000000 0.000000
7.500000 0.050000 0.000000
7.500000 0.100000 0.000000
7.500000 0.150000 0.000000
7.500000 0.250000 0.000000
7.500000 0.300000 0.000000
7.500000 0.350000 0.000000
7.500000 0.450000 0.000000
7.500000 0.500000 0.000000
7.500000 0.550000 0.000000
7.500000 0.650000 0.000000
7.500000 0.700000 0.000000
7.500000 0.750000 0.000000
7.500000 0.850000 0.000000
7.500000 0.900000 0.000000
7.500000 0.950000 0.000000
7.625000 0.200000 0.000000
7.750000 0.200000 0.000000
7.875000 0.200000 0.000000
8.000000 0.050000 0.000000
8.000000 0.100000 0.000000
8.000000 0.150000 0.000000
7.625000 0.400000 0.000000
7.750000 0.400000 0.000000
7.875000 0.400000 0.000000
8.000000 0.250000 0.000000
8.000000 0.300000 0.000000
8.000000 0.350000 0.000000
7.625000 0.600000 0.000000
7.750000 0.600000 0.000000
7.875000 0.600000 0.000000
8.000000 0.450000 0.000000
8.000000 0.500000 0.000000
8.000000 0.550000 0.000000
7.625000 0.800000 0.000000
7.750000 0.800000 0.000000
7.875000 0.800000 0.000000
8.000000 0.650000 0.000000
8.000000 0.700000 0.000000
8.000000 0.750000 0.000000
7.625000 1.000000 0.000000
7.750000 1.000000 0.000000
7.875000 1.000000 0.000000
8.000000 0.850000 0.000000
8.000000 0.900000 0.000000
8.000000 0.950000 0.000000
7.625000 0.050000 0.000000
7.625000 0.100000 0.000000
7.625000 0.150000 0.000000
7.750000 0.050000 0.000000
7.750000 0.100000 0.000000
7.750000 0.150000 0.000000
7.875000 0.050000 0.000000
7.875000 0.100000 0.000000
7.875000 0.150000 0.000000
7.625000 0.250000 0.000000
7.625000 0.300000 0.000000
7.625000 0.350000 0.000000
7.750000 0.250000 0.000000
7.750000 0.300000 0.000000
7.750000 0.350000 0.000000
7.875000 0.250000 0.000000
7.875000 0.300000 0.000000
7.875000 0.350000 0.000000
7.625000 0.450000 0.000000
7.625000 0.500000 0.000000
7.625000 0.550000 0.000000
7.750000 0.450000 0.000000
7.750000 0.500000 0.000000
7.750000 0.550000 0.000000
7.875000 0.450000 0.000000
7.875000 0.500000 0.000000
7.875000 0.550000 0.000000
7.625000 0.650000 0.000000
7.625000 0.700000 0.000000
7.625000 0.750000 0.000000
7.750000 0.650000 0.000000
7.750000 0.700000 0.000000
7.750000 0.750000 0.000000
7.875000 0.650000 0.000000
7.875000 0.700000 0.000000
7.875000 0.750000 0.000000
7.625000 0.850000 0.000000
7.625000 0.900000 0.000000
7.625000 0.950000 0.000000
7.750000 0.850000 0.000000
7.750000 0.900000 0.000000
7.750000 0.950000 0.000000
7.875000 0.850000 0.000000
7.875000 0.900000 0.000000
7.875000 0.950000 0.000000
CELLS 80 400 
4 0 12 60 15
4 15 60 61 16
4 16 61 62 17
4 17 62 30  2
4 12 13 63 60
4 60 63 64 61
4 61 64 65 62
4 62 65 31 30
4 13 14 66 63
4 63 66 67 64
4 64 67 68 65
4 65 68 32 31
4 14  1 33 66
4 66 33 34 67
4 67 34 35 68
4 68 35  7 32
4 2 30 69 18
4 18 69 70 19
4 19 70 71 20
4 20 71 36  3
4 30 31 72 69
4 69 72 73 70
4 70 73 74 71
4 71 74 37 36
4 31 32 75 72
4 72 75 76 73
4 73 76 77 74
4 74 77 38 37
4 32  7 39 75
4 75 39 40 76
4 76 40 41 77
4 77 41  8 38
4 3 36 78 21
4 21 78 79 22
4 22 79 80 23
4 23 80 42  4
4 36 37 81 78
4 78 81 82 79
4 79 82 83 80
4 80 83 43 42
4 37 38 84 81
4 81 84 85 82
4 82 85 86 83
4 83 86 44 43
4 38  8 45 84
4 84 45 46 85
4 85 46 47 86
4 86 47  9 44
4 4 42 87 24
4 24 87 88 25
4 25 88 89 26
4 26 89 48  5
4 42 43 90 87
4 87 90 91 88
4 88 91 92 89
4 89 92 49 48
4 43 44 93 90
4 90 93 94 91
4 91 94 95 92
4 92 95 50 49
4 44  9 51 93
4 93 51 52 94
4 94 52 53 95
4 95 53 10 50
4 5 48 96 27
4 27 96 97 28
4 28 97 98 29
4 29 98 54  6
4 48 49 99 96
4 96  99 100  97
4 97 100 101  98
4 98 101  55  54
4 49  50 102  99
4 99 102 103 100
4 100 103 104 101
4 101 104  56  55
4 50  10  57 102
4 102  57  58 103
4 103  58  59 104
4 104  59  11  56
CELL_TYPES 80
9 9 9 9 9 9 9 9 9 9 9 9 9 9 9 9 9 9 9 9 9 9 9 9 9 9 9 9 9 9 9 9 9 9 9 9 9 9 9 9 9 9 9 9 9 9 9 9 9 9 9 9 9 9 9 9 9 9 9 9 9 9 9 9 9 9 9 9 9 9 9 9 9 9 9 9 9 9 9 9 
POINT_DATA 105
VECTORS displacement_ITER1 FLOAT
 -4.500721e-04  3.120153e-04  0 
 6.717447e-03  3.566415e-03  0 
 4.922152e-04  -1.266046e-03  0 
 -6.389557e-04  -1.235993e-03  0 
 -6.389557e-04  1.235993e-03  0 
 4.922152e-04  1.266046e-03  0 
 -4.500721e-04  -3.120153e-04  0 
 9.071995e-04  2.441397e-03  0 
 -1.206349e-03  2.392573e-03  0 
 -1.206349e-03  -2.392573e-03  0 
 9.071995e-04  -2.441397e-03  0 
 6.717447e-03  -3.566415e-03  0 
 9.150921e-04  -7.188792e-04  0 
 2.420805e-03  -2.793775e-04  0 
 4.334817e-03  1.150227e-03  0 
 2.478042e-04  1.752964e-04  0 
 6.004092e-04  -1.715603e-04  0 
 6.854495e-04  -6.511513e-04  0 
 2.055479e-04  -1.276715e-03  0 
 -8.269365e-05  -1.275005e-03  0 
 -3.666990e-04  -1.260377e-03  0 
 -5.715614e-04  -5.070851e-04  0 
 -5.329209e-04  1.908500e-13  0 
 -5.715614e-04  5.070851e-04  0 
 -3.666990e-04  1.260377e-03  0 
 -8.269365e-05  1.275005e-03  0 
 2.055479e-04  1.276715e-03  0 
 6.854495e-04  6.511513e-04  0 
 6.004092e-04  1.715603e-04  0 
 2.478042e-04  -1.752964e-04  0 
 5.039901e-04  -5.800916e-04  0 
 6.093334e-04  1.886365e-04  0 
 7.828009e-04  1.176449e-03  0 
 5.627580e-03  3.584422e-03  0 
 4.369904e-03  3.571807e-03  0 
 2.817562e-03  3.328066e-03  0 
 -6.750360e-04  -5.695152e-04  0 
 -8.048765e-04  1.899270e-04  0 
 -1.019610e-03  1.129026e-03  0 
 3.690241e-04  2.409542e-03  0 
 -1.333332e-04  2.389472e-03  0 
 -6.425763e-04  2.388218e-03  0 
 -6.750360e-04  5.695152e-04  0 
 -8.048765e-04  -1.899270e-04  0 
 -1.019610e-03  -1.129026e-03  0 
 -3.755805e-03  1.675685e-03  0 
 -4.602695e-03  2.094021e-13  0 
 -3.755805e-03  -1.675685e-03  0 
 5.039901e-04  5.800916e-04  0 
 6.093334e-04  -1.886365e-04  0 
 7.828009e-04  -1.176449e-03  0 
 -6.425763e-04  -2.388218e-03  0 
 -1.333332e-04  -2.389472e-03  0 
 3.690241e-04  -2.409542e-03  0 
 9.150921e-04  7.188792e-04  0 
 2.420805e-03  2.793775e-04  0 
 4.334817e-03  -1.150227e-03  0 
 2.817562e-03  -3.328066e-03  0 
 4.369904e-03  -3.571807e-03  0 
 5.627580e-03  -3.584422e-03  0 
 9.722608e-04  -6.935083e-04  0 
 9.723067e-04  -6.509395e-04  0 
 8.249178e-04  -6.250951e-04  0 
 2.014760e-03  -2.605919e-04  0 
 1.570703e-03  -1.804535e-04  0 
 1.117468e-03  -1.013419e-05  0 
 3.491295e-03  1.121437e-03  0 
 2.555792e-03  1.045120e-03  0 
 1.582431e-03  9.856676e-04  0 
 2.118363e-04  -5.788295e-04  0 
 -8.965291e-05  -5.768488e-04  0 
 -3.885100e-04  -5.731043e-04  0 
 2.549107e-04  1.924778e-04  0 
 -1.059064e-04  1.934831e-04  0 
 -4.625985e-04  1.913783e-04  0 
 3.256876e-04  1.183252e-03  0 
 -1.242858e-04  1.178832e-03  0 
 -5.725261e-04  1.158638e-03  0 
 -8.839099e-04  -3.280723e-04  0 
 -9.499568e-04  1.954896e-13  0 
 -8.839099e-04  3.280723e-04  0 
 -1.082031e-03  1.175615e-04  0 
 -1.140527e-03  2.001292e-13  0 
 -1.082031e-03  -1.175615e-04  0 
 -1.506644e-03  3.098364e-04  0 
 -1.764186e-03  2.047544e-13  0 
 -1.506644e-03  -3.098364e-04  0 
 -3.885100e-04  5.731043e-04  0 
 -8.965291e-05  5.768488e-04  0 
 2.118363e-04  5.788295e-04  0 
 -4.625985e-04  -1.913783e-04  0 
 -1.059064e-04  -1.934831e-04  0 
 2.549107e-04  -1.924778e-04  0 
 -5.725261e-04  -1.158638e-03  0 
 -1.242858e-04  -1.178832e-03  0 
 3.256876e-04  -1.183252e-03  0 
 8.249178e-04  6.250951e-04  0 
 9.723067e-04  6.509395e-04  0 
 9.722608e-04  6.935083e-04  0 
 1.117468e-03  1.013419e-05  0 
 1.570703e-03  1.804535e-04  0 
 2.014760e-03  2.605919e-04  0 
 1.582431e-03  -9.856676e-04  0 
 2.555792e-03  -1.045120e-03  0 
 3.491295e-03  -1.121437e-03  0 
VECTORS displacement_ITER2 FLOAT
 -2.754817e-04  -3.330105e-04  0 
 6.258821e-03  3.213104e-03  0 
 2.942627e-04  -7.481364e-04  0 
 -4.029158e-04  -7.077108e-04  0 
 -4.029158e-04  7.077108e-04  0 
 2.942627e-04  7.481364e-04  0 
 -2.754817e-04  3.330105e-04  0 
 7.782845e-04  2.093267e-03  0 
 -1.039687e-03  2.052726e-03  0 
 -1.039687e-03  -2.052726e-03  0 
 7.782845e-04  -2.093267e-03  0 
 6.258821e-03  -3.213104e-03  0 
 6.759686e-04  -4.650011e-04  0 
 1.982758e-03  -1.821824e-04  0 
 3.876325e-03  1.011672e-03  0 
 -2.123483e-04  -2.954314e-04  0 
 -9.406872e-05  -2.484747e-04  0 
 9.921003e-05  -3.322189e-04  0 
 1.193326e-04  -7.607576e-04  0 
 -6.290652e-05  -7.585591e-04  0 
 -2.413008e-04  -7.398649e-04  0 
 -4.991023e-06  -1.758266e-04  0 
 1.342830e-04  -3.383251e-13  0 
 -4.991023e-06  1.758266e-04  0 
 -2.413008e-04  7.398649e-04  0 
 -6.290652e-05  7.585591e-04  0 
 1.193326e-04  7.607576e-04  0 
 9.921003e-05  3.322189e-04  0 
 -9.406872e-05  2.484747e-04  0 
 -2.123483e-04  2.954314e-04  0 
 3.252256e-04  -3.293383e-04  0 
 4.610608e-04  2.207501e-04  0 
 6.502820e-04  1.014518e-03  0 
 5.254023e-03  3.231210e-03  0 
 4.081194e-03  3.219053e-03  0 
 2.610869e-03  2.977522e-03  0 
 -4.577961e-04  -3.202668e-04  0 
 -6.192776e-04  2.204754e-04  0 
 -8.494043e-04  9.701140e-04  0 
 3.144334e-04  2.061797e-03  0 
 -1.134545e-04  2.043135e-03  0 
 -5.487087e-04  2.044573e-03  0 
 -4.577961e-04  3.202668e-04  0 
 -6.192776e-04  -2.204754e-04  0 
 -8.494043e-04  -9.701140e-04  0 
 -3.532387e-03  1.504497e-03  0 
 -4.360677e-03  -3.731590e-13  0 
 -3.532387e-03  -1.504497e-03  0 
 3.252256e-04  3.293383e-04  0 
 4.610608e-04  -2.207501e-04  0 
 6.502820e-04  -1.014518e-03  0 
 -5.487087e-04  -2.044573e-03  0 
 -1.134545e-04  -2.043135e-03  0 
 3.144334e-04  -2.061797e-03  0 
 6.759686e-04  4.650011e-04  0 
 1.982758e-03  1.821824e-04  0 
 3.876325e-03  -1.011672e-03  0 
 2.610869e-03  -2.977522e-03  0 
 4.081194e-03  -3.219053e-03  0 
 5.254023e-03  -3.231210e-03  0 
 6.627717e-04  -4.742525e-04  0 
 6.182362e-04  -4.869552e-04  0 
 5.260670e-04  -4.707157e-04  0 
 1.670458e-03  -1.678681e-04  0 
 1.296347e-03  -1.046576e-04  0 
 8.977741e-04  4.450501e-05  0 
 3.119947e-03  9.829360e-04  0 
 2.269101e-03  9.051636e-04  0 
 1.376772e-03  8.373766e-04  0 
 1.320603e-04  -3.239466e-04  0 
 -7.147954e-05  -3.203434e-04  0 
 -2.720124e-04  -3.182182e-04  0 
 1.891718e-04  2.241226e-04  0 
 -8.675693e-05  2.248849e-04  0 
 -3.586756e-04  2.221132e-04  0 
 2.690047e-04  1.021111e-03  0 
 -1.045125e-04  1.016990e-03  0 
 -4.767904e-04  9.979998e-04  0 
 -5.762852e-04  -2.330707e-04  0 
 -5.979869e-04  -3.470082e-13  0 
 -5.762852e-04  2.330707e-04  0 
 -8.308409e-04  1.351405e-04  0 
 -8.728358e-04  -3.557193e-13  0 
 -8.308409e-04  -1.351405e-04  0 
 -1.277985e-03  2.302335e-04  0 
 -1.514473e-03  -3.644525e-13  0 
 -1.277985e-03  -2.302335e-04  0 
 -2.720124e-04  3.182182e-04  0 
 -7.147954e-05  3.203434e-04  0 
 1.320603e-04  3.239466e-04  0 
 -3.586756e-04  -2.221132e-04  0 
 -8.675693e-05  -2.248849e-04  0 
 1.891718e-04  -2.241226e-04  0 
 -4.767904e-04  -9.979998e-04  0 
 -1.045125e-04  -1.016990e-03  0 
 2.690047e-04  -1.021111e-03  0 
 5.260670e-04  4.707157e-04  0 
 6.182362e-04  4.869552e-04  0 
 6.627717e-04  4.742525e-04  0 
 8.977741e-04  -4.450501e-05  0 
 1.296347e-03  1.046575e-04  0 
 1.670458e-03  1.678681e-04  0 
 1.376772e-03  -8.373766e-04  0 
 2.269101e-03  -9.051636e-04  0 
 3.119947e-03  -9.829360e-04  0 
VECTORS displacement_ITER3 FLOAT
 3.153760e-05  -6.885135e-04  0 
 6.028394e-03  3.158704e-03  0 
 1.286143e-04  -5.480800e-04  0 
 -4.298117e-04  -4.998724e-04  0 
 -4.298117e-04  4.998724e-04  0 
 1.286143e-04  5.480800e-04  0 
 3.153760e-05  6.885135e-04  0 
 6.388219e-04  2.023443e-03  0 
 -1.088815e-03  1.983659e-03  0 
 -1.088815e-03  -1.983659e-03  0 
 6.388219e-04  -2.023443e-03  0 
 6.028394e-03  -3.158704e-03  0 
 6.892498e-04  -3.779537e-04  0 
 1.810225e-03  -8.485271e-05  0 
 3.652176e-03  1.029618e-03  0 
 -1.851775e-04  -6.104846e-04  0 
 -2.484544e-04  -4.523606e-04  0 
 -1.468977e-04  -3.595369e-04  0 
 -1.166567e-05  -5.599116e-04  0 
 -1.606490e-04  -5.567134e-04  0 
 -3.050757e-04  -5.360230e-04  0 
 5.033470e-06  -1.168736e-04  0 
 1.278927e-04  2.974189e-14  0 
 5.033470e-06  1.168736e-04  0 
 -3.050757e-04  5.360230e-04  0 
 -1.606490e-04  5.567134e-04  0 
 -1.166567e-05  5.599116e-04  0 
 -1.468977e-04  3.595369e-04  0 
 -2.484544e-04  4.523606e-04  0 
 -1.851775e-04  6.104846e-04  0 
 1.667390e-04  -2.143537e-04  0 
 3.145916e-04  2.680504e-04  0 
 5.094381e-04  1.001687e-03  0 
 5.050470e-03  3.176978e-03  0 
 3.902120e-03  3.163896e-03  0 
 2.452782e-03  2.918002e-03  0 
 -4.909117e-04  -2.058516e-04  0 
 -6.624936e-04  2.658477e-04  0 
 -8.973586e-04  9.565640e-04  0 
 1.975835e-04  1.991687e-03  0 
 -2.075394e-04  1.973005e-03  0 
 -6.201264e-04  1.974788e-03  0 
 -4.909117e-04  2.058516e-04  0 
 -6.624936e-04  -2.658477e-04  0 
 -8.973586e-04  -9.565640e-04  0 
 -3.564126e-03  1.469553e-03  0 
 -4.386471e-03  3.234329e-14  0 
 -3.564126e-03  -1.469553e-03  0 
 1.667390e-04  2.143537e-04  0 
 3.145916e-04  -2.680504e-04  0 
 5.094381e-04  -1.001687e-03  0 
 -6.201264e-04  -1.974788e-03  0 
 -2.075394e-04  -1.973005e-03  0 
 1.975835e-04  -1.991687e-03  0 
 6.892498e-04  3.779537e-04  0 
 1.810225e-03  8.485271e-05  0 
 3.652176e-03  -1.029618e-03  0 
 2.452782e-03  -2.918002e-03  0 
 3.902120e-03  -3.163896e-03  0 
 5.050470e-03  -3.176978e-03  0 
 6.038580e-04  -3.912150e-04  0 
 4.896752e-04  -4.058744e-04  0 
 3.648627e-04  -3.820271e-04  0 
 1.516207e-03  -7.360278e-05  0 
 1.147338e-03  -2.135030e-05  0 
 7.480549e-04  1.114078e-04  0 
 2.924601e-03  9.994767e-04  0 
 2.096681e-03  9.167805e-04  0 
 1.222284e-03  8.389136e-04  0 
 4.609373e-06  -2.071819e-04  0 
 -1.680177e-04  -2.028816e-04  0 
 -3.373297e-04  -2.014009e-04  0 
 6.783359e-05  2.708135e-04  0 
 -1.818389e-04  2.711437e-04  0 
 -4.273380e-04  2.678155e-04  0 
 1.513394e-04  1.007896e-03  0 
 -1.987765e-04  1.003446e-03  0 
 -5.477211e-04  9.843927e-04  0 
 -5.913658e-04  -1.673856e-04  0 
 -6.050680e-04  3.041851e-14  0 
 -5.913658e-04  1.673856e-04  0 
 -8.530468e-04  1.569806e-04  0 
 -8.877735e-04  3.106149e-14  0 
 -8.530468e-04  -1.569806e-04  0 
 -1.307767e-03  2.234991e-04  0 
 -1.538267e-03  3.168504e-14  0 
 -1.307767e-03  -2.234991e-04  0 
 -3.373297e-04  2.014009e-04  0 
 -1.680177e-04  2.028816e-04  0 
 4.609373e-06  2.071819e-04  0 
 -4.273380e-04  -2.678155e-04  0 
 -1.818389e-04  -2.711437e-04  0 
 6.783359e-05  -2.708135e-04  0 
 -5.477211e-04  -9.843927e-04  0 
 -1.987765e-04  -1.003446e-03  0 
 1.513394e-04  -1.007896e-03  0 
 3.648627e-04  3.820271e-04  0 
 4.896752e-04  4.058744e-04  0 
 6.038580e-04  3.912150e-04  0 
 7.480549e-04  -1.114078e-04  0 
 1.147338e-03  2.135030e-05  0 
 1.516207e-03  7.360278e-05  0 
 1.222284e-03  -8.389136e-04  0 
 2.096681e-03  -9.167805e-04  0 
 2.924601e-03  -9.994767e-04  0 
VECTORS displacement_ITER4 FLOAT
 1.103196e-04  -6.440597e-04  0 
 5.989969e-03  3.123385e-03  0 
 1.236174e-04  -4.271058e-04  0 
 -3.404354e-04  -3.680631e-04  0 
 -3.404354e-04  3.680631e-04  0 
 1.236174e-04  4.271058e-04  0 
 1.103196e-04  6.440597e-04  0 
 6.527974e-04  1.977222e-03  0 
 -1.018358e-03  1.938035e-03  0 
 -1.018358e-03  -1.938035e-03  0 
 6.527974e-04  -1.977222e-03  0 
 5.989969e-03  -3.123385e-03  0 
 7.547908e-04  -3.713482e-04  0 
 1.811335e-03  -4.677157e-05  0 
 3.618511e-03  1.035736e-03  0 
 -5.324643e-05  -6.097354e-04  0 
 -1.384925e-04  -5.286959e-04  0 
 -1.293972e-04  -4.342807e-04  0 
 6.244748e-06  -4.374057e-04  0 
 -1.208500e-04  -4.325463e-04  0 
 -2.423144e-04  -4.091766e-04  0 
 4.472952e-05  -1.451420e-04  0 
 1.163087e-04  -1.523340e-14  0 
 4.472952e-05  1.451420e-04  0 
 -2.423144e-04  4.091766e-04  0 
 -1.208500e-04  4.325463e-04  0 
 6.244748e-06  4.374057e-04  0 
 -1.293972e-04  4.342807e-04  0 
 -1.384925e-04  5.286959e-04  0 
 -5.324643e-05  6.097354e-04  0 
 1.696703e-04  -1.451971e-04  0 
 3.244759e-04  2.950655e-04  0 
 5.225249e-04  9.909458e-04  0 
 5.027525e-03  3.141854e-03  0 
 3.892877e-03  3.128183e-03  0 
 2.455527e-03  2.878778e-03  0 
 -4.101886e-04  -1.378949e-04  0 
 -5.887256e-04  2.916525e-04  0 
 -8.261951e-04  9.456593e-04  0 
 2.256488e-04  1.945290e-03  0 
 -1.652354e-04  1.926628e-03  0 
 -5.636129e-04  1.928664e-03  0 
 -4.101886e-04  1.378949e-04  0 
 -5.887256e-04  -2.916525e-04  0 
 -8.261951e-04  -9.456593e-04  0 
 -3.482932e-03  1.446537e-03  0 
 -4.301334e-03  -1.765724e-14  0 
 -3.482932e-03  -1.446537e-03  0 
 1.696703e-04  1.451971e-04  0 
 3.244759e-04  -2.950655e-04  0 
 5.225249e-04  -9.909458e-04  0 
 -5.636129e-04  -1.928664e-03  0 
 -1.652354e-04  -1.926628e-03  0 
 2.256488e-04  -1.945290e-03  0 
 7.547908e-04  3.713482e-04  0 
 1.811335e-03  4.677157e-05  0 
 3.618511e-03  -1.035736e-03  0 
 2.455527e-03  -2.878778e-03  0 
 3.892877e-03  -3.128183e-03  0 
 5.027525e-03  -3.141854e-03  0 
 6.548406e-04  -3.707947e-04  0 
 5.222132e-04  -3.547399e-04  0 
 3.766439e-04  -3.064709e-04  0 
 1.515796e-03  -3.605184e-05  0 
 1.147154e-03  1.433776e-05  0 
 7.530688e-04  1.428006e-04  0 
 2.906437e-03  1.004164e-03  0 
 2.090318e-03  9.175483e-04  0 
 1.225499e-03  8.345525e-04  0 
 2.613569e-05  -1.372663e-04  0 
 -1.272104e-04  -1.325825e-04  0 
 -2.767792e-04  -1.315963e-04  0 
 9.345142e-05  2.974179e-04  0 
 -1.399653e-04  2.973440e-04  0 
 -3.691526e-04  2.936478e-04  0 
 1.789652e-04  9.970281e-04  0 
 -1.565217e-04  9.924773e-04  0 
 -4.909297e-04  9.734511e-04  0 
 -5.085491e-04  -1.103148e-04  0 
 -5.248220e-04  -1.581061e-14  0 
 -5.085491e-04  1.103148e-04  0 
 -7.658172e-04  1.677395e-04  0 
 -7.934807e-04  -1.641670e-14  0 
 -7.658172e-04  -1.677395e-04  0 
 -1.225178e-03  2.181158e-04  0 
 -1.452588e-03  -1.705505e-14  0 
 -1.225178e-03  -2.181158e-04  0 
 -2.767792e-04  1.315963e-04  0 
 -1.272104e-04  1.325825e-04  0 
 2.613569e-05  1.372663e-04  0 
 -3.691526e-04  -2.936478e-04  0 
 -1.399653e-04  -2.973440e-04  0 
 9.345142e-05  -2.974179e-04  0 
 -4.909297e-04  -9.734511e-04  0 
 -1.565217e-04  -9.924773e-04  0 
 1.789652e-04  -9.970281e-04  0 
 3.766439e-04  3.064709e-04  0 
 5.222132e-04  3.547399e-04  0 
 6.548406e-04  3.707947e-04  0 
 7.530688e-04  -1.428006e-04  0 
 1.147154e-03  -1.433776e-05  0 
 1.515796e-03  3.605184e-05  0 
 1.225499e-03  -8.345525e-04  0 
 2.090318e-03  -9.175483e-04  0 
 2.906437e-03  -1.004164e-03  0 
VECTORS displacement_ITER5 FLOAT
 -3.361598e-05  -3.652290e-04  0 
 5.988799e-03  3.078238e-03  0 
 1.521009e-04  -3.324658e-04  0 
 -2.237105e-04  -2.589780e-04  0 
 -2.237105e-04  2.589780e-04  0 
 1.521009e-04  3.324658e-04  0 
 -3.361598e-05  3.652290e-04  0 
 6.981977e-04  1.926245e-03  0 
 -9.223349e-04  1.888120e-03  0 
 -9.223349e-04  -1.888120e-03  0 
 6.981977e-04  -1.926245e-03  0 
 5.988799e-03  -3.078238e-03  0 
 7.612881e-04  -3.945654e-04  0 
 1.832882e-03  -4.548530e-05  0 
 3.620487e-03  1.023058e-03  0 
 3.211642e-05  -4.090804e-04  0 
 3.118407e-05  -4.897085e-04  0 
 -1.797424e-05  -4.949741e-04  0 
 5.550179e-05  -3.407910e-04  0 
 -5.174787e-05  -3.335827e-04  0 
 -1.519077e-04  -3.065216e-04  0 
 6.289551e-05  -2.032930e-04  0 
 7.645684e-05  -1.699761e-13  0 
 6.289551e-05  2.032930e-04  0 
 -1.519077e-04  3.065216e-04  0 
 -5.174787e-05  3.335827e-04  0 
 5.550179e-05  3.407910e-04  0 
 -1.797424e-05  4.949741e-04  0 
 3.118407e-05  4.897085e-04  0 
 3.211642e-05  4.090804e-04  0 
 2.074920e-04  -9.353321e-05  0 
 3.668341e-04  3.094651e-04  0 
 5.672161e-04  9.716247e-04  0 
 5.039085e-03  3.096883e-03  0 
 3.915921e-03  3.082994e-03  0 
 2.489677e-03  2.831287e-03  0 
 -3.054284e-04  -8.839472e-05  0 
 -4.902717e-04  3.052465e-04  0 
 -7.296216e-04  9.268204e-04  0 
 2.836670e-04  1.894272e-03  0 
 -9.446001e-05  1.875765e-03  0 
 -4.800880e-04  1.878169e-03  0 
 -3.054284e-04  8.839472e-05  0 
 -4.902717e-04  -3.052465e-04  0 
 -7.296216e-04  -9.268204e-04  0 
 -3.377444e-03  1.421471e-03  0 
 -4.192189e-03  -1.871015e-13  0 
 -3.377444e-03  -1.421471e-03  0 
 2.074920e-04  9.353321e-05  0 
 3.668341e-04  -3.094651e-04  0 
 5.672161e-04  -9.716247e-04  0 
 -4.800880e-04  -1.878169e-03  0 
 -9.446001e-05  -1.875765e-03  0 
 2.836670e-04  -1.894272e-03  0 
 7.612881e-04  3.945654e-04  0 
 1.832882e-03  4.548530e-05  0 
 3.620487e-03  -1.023058e-03  0 
 2.489677e-03  -2.831287e-03  0 
 3.915921e-03  -3.082994e-03  0 
 5.039085e-03  -3.096883e-03  0 
 6.864447e-04  -3.738600e-04  0 
 5.720465e-04  -3.149938e-04  0 
 4.196407e-04  -2.325982e-04  0 
 1.530421e-03  -3.346134e-05  0 
 1.164378e-03  2.101153e-05  0 
 7.841353e-04  1.520961e-04  0 
 2.919765e-03  9.902291e-04  0 
 2.113397e-03  9.007368e-04  0 
 1.257946e-03  8.162554e-04  0 
 7.938662e-05  -8.550032e-05  0 
 -5.726952e-05  -8.067835e-05  0 
 -1.894844e-04  -8.026591e-05  0 
 1.499551e-04  3.115554e-04  0 
 -6.918673e-05  3.110649e-04  0 
 -2.841733e-04  3.070775e-04  0 
 2.367054e-04  9.777630e-04  0 
 -8.569624e-05  9.733213e-04  0 
 -4.071685e-04  9.544762e-04  0 
 -4.055872e-04  -5.602851e-05  0 
 -4.306183e-04  -1.742347e-13  0 
 -4.055872e-04  5.602851e-05  0 
 -6.556162e-04  1.718706e-04  0 
 -6.752009e-04  -1.785147e-13  0 
 -6.556162e-04  -1.718706e-04  0 
 -1.118403e-03  2.087397e-04  0 
 -1.343536e-03  -1.828216e-13  0 
 -1.118403e-03  -2.087397e-04  0 
 -1.894844e-04  8.026591e-05  0 
 -5.726952e-05  8.067835e-05  0 
 7.938662e-05  8.550032e-05  0 
 -2.841733e-04  -3.070775e-04  0 
 -6.918673e-05  -3.110649e-04  0 
 1.499551e-04  -3.115554e-04  0 
 -4.071685e-04  -9.544762e-04  0 
 -8.569624e-05  -9.733213e-04  0 
 2.367054e-04  -9.777630e-04  0 
 4.196407e-04  2.325982e-04  0 
 5.720465e-04  3.149938e-04  0 
 6.864447e-04  3.738600e-04  0 
 7.841353e-04  -1.520961e-04  0 
 1.164378e-03  -2.101153e-05  0 
 1.530421e-03  3.346134e-05  0 
 1.257946e-03  -8.162554e-04  0 
 2.113397e-03  -9.007368e-04  0 
 2.919765e-03  -9.902291e-04  0 
VECTORS displacement_ITER6 FLOAT
 -2.132693e-04  -2.178721e-04  0 
 5.915686e-03  3.053091e-03  0 
 9.601183e-05  -2.947883e-04  0 
 -2.400454e-04  -2.119297e-04  0 
 -2.400454e-04  2.119297e-04  0 
 9.601183e-05  2.947883e-04  0 
 -2.132693e-04  2.178721e-04  0 
 6.481432e-04  1.901368e-03  0 
 -9.492755e-04  1.863908e-03  0 
 -9.492755e-04  -1.863908e-03  0 
 6.481432e-04  -1.901368e-03  0 
 5.915686e-03  -3.053091e-03  0 
 6.617618e-04  -3.920399e-04  0 
 1.760409e-03  -5.138736e-05  0 
 3.547839e-03  1.011542e-03  0 
 -4.740800e-05  -2.797407e-04  0 
 2.016763e-05  -4.075067e-04  0 
 -3.206963e-06  -4.756563e-04  0 
 8.013612e-06  -3.018046e-04  0 
 -9.088092e-05  -2.929162e-04  0 
 -1.815873e-04  -2.633679e-04  0 
 -3.196729e-05  -2.183496e-04  0 
 -2.926891e-05  6.685645e-15  0 
 -3.196729e-05  2.183496e-04  0 
 -1.815873e-04  2.633679e-04  0 
 -9.088092e-05  2.929162e-04  0 
 8.013612e-06  3.018046e-04  0 
 -3.206963e-06  4.756563e-04  0 
 2.016763e-05  4.075067e-04  0 
 -4.740800e-05  2.797407e-04  0 
 1.557504e-04  -7.204744e-05  0 
 3.157322e-04  3.142624e-04  0 
 5.169323e-04  9.611648e-04  0 
 4.971750e-03  3.071738e-03  0 
 3.853988e-03  3.057946e-03  0 
 2.433566e-03  2.806018e-03  0 
 -3.293418e-04  -6.882555e-05  0 
 -5.165075e-04  3.097233e-04  0 
 -7.563873e-04  9.167885e-04  0 
 2.393825e-04  1.869439e-03  0 
 -1.329334e-04  1.851050e-03  0 
 -5.127422e-04  1.853664e-03  0 
 -3.293418e-04  6.882555e-05  0 
 -5.165075e-04  -3.097233e-04  0 
 -7.563873e-04  -9.167885e-04  0 
 -3.400163e-03  1.409376e-03  0 
 -4.213203e-03  6.340092e-15  0 
 -3.400163e-03  -1.409376e-03  0 
 1.557504e-04  7.204744e-05  0 
 3.157322e-04  -3.142624e-04  0 
 5.169323e-04  -9.611648e-04  0 
 -5.127422e-04  -1.853664e-03  0 
 -1.329334e-04  -1.851050e-03  0 
 2.393825e-04  -1.869439e-03  0 
 6.617618e-04  3.920399e-04  0 
 1.760409e-03  5.138736e-05  0 
 3.547839e-03  -1.011542e-03  0 
 2.433566e-03  -2.806018e-03  0 
 3.853988e-03  -3.057946e-03  0 
 4.971750e-03  -3.071738e-03  0 
 6.089699e-04  -3.676232e-04  0 
 5.131466e-04  -2.991200e-04  0 
 3.621424e-04  -2.012331e-04  0 
 1.458327e-03  -3.796818e-05  0 
 1.096203e-03  2.023702e-05  0 
 7.254548e-04  1.529468e-04  0 
 2.851717e-03  9.784378e-04  0 
 2.050642e-03  8.883649e-04  0 
 1.200685e-03  8.047065e-04  0 
 3.375526e-05  -6.439827e-05  0 
 -9.590455e-05  -5.974174e-05  0 
 -2.206465e-04  -5.977517e-05  0 
 1.053627e-04  3.163136e-04  0 
 -1.074686e-04  3.155846e-04  0 
 -3.162823e-04  3.114541e-04  0 
 1.923468e-04  9.673771e-04  0 
 -1.241097e-04  9.630696e-04  0 
 -4.397304e-04  9.443581e-04  0 
 -4.283112e-04  -3.342682e-05  0 
 -4.618647e-04  6.607840e-15  0 
 -4.283112e-04  3.342682e-05  0 
 -6.772006e-04  1.730935e-04  0 
 -6.922508e-04  6.525205e-15  0 
 -6.772006e-04  -1.730935e-04  0 
 -1.140531e-03  2.036773e-04  0 
 -1.364861e-03  6.419442e-15  0 
 -1.140531e-03  -2.036773e-04  0 
 -2.206465e-04  5.977517e-05  0 
 -9.590455e-05  5.974174e-05  0 
 3.375526e-05  6.439827e-05  0 
 -3.162823e-04  -3.114541e-04  0 
 -1.074686e-04  -3.155846e-04  0 
 1.053627e-04  -3.163136e-04  0 
 -4.397304e-04  -9.443581e-04  0 
 -1.241097e-04  -9.630696e-04  0 
 1.923468e-04  -9.673771e-04  0 
 3.621424e-04  2.012331e-04  0 
 5.131466e-04  2.991200e-04  0 
 6.089699e-04  3.676232e-04  0 
 7.254548e-04  -1.529468e-04  0 
 1.096203e-03  -2.023702e-05  0 
 1.458327e-03  3.796818e-05  0 
 1.200685e-03  -8.047065e-04  0 
 2.050642e-03  -8.883649e-04  0 
 2.851717e-03  -9.784378e-04  0 
VECTORS displacement_ITER7 FLOAT
 -1.729220e-04  -2.743192e-04  0 
 5.861125e-03  3.041829e-03  0 
 6.498153e-05  -2.527587e-04  0 
 -2.395082e-04  -1.581009e-04  0 
 -2.395082e-04  1.581009e-04  0 
 6.498153e-05  2.527587e-04  0 
 -1.729220e-04  2.743192e-04  0 
 6.186043e-04  1.891408e-03  0 
 -9.573290e-04  1.854188e-03  0 
 -9.573290e-04  -1.854188e-03  0 
 6.186043e-04  -1.891408e-03  0 
 5.861125e-03  -3.041829e-03  0 
 6.193837e-04  -3.236605e-04  0 
 1.702170e-03  -2.714089e-05  0 
 3.493167e-03  1.015776e-03  0 
 -1.078550e-04  -2.778879e-04  0 
 -2.613783e-05  -2.993558e-04  0 
 5.492418e-05  -3.537527e-04  0 
 -1.784845e-05  -2.577560e-04  0 
 -1.112765e-04  -2.464086e-04  0 
 -1.947007e-04  -2.136074e-04  0 
 -1.460933e-04  -1.662980e-04  0 
 -1.082799e-04  -1.324818e-13  0 
 -1.460933e-04  1.662980e-04  0 
 -1.947007e-04  2.136074e-04  0 
 -1.112765e-04  2.464086e-04  0 
 -1.784845e-05  2.577560e-04  0 
 5.492418e-05  3.537527e-04  0 
 -2.613783e-05  2.993558e-04  0 
 -1.078550e-04  2.778879e-04  0 
 1.266659e-04  -3.935661e-05  0 
 2.854297e-04  3.318371e-04  0 
 4.873132e-04  9.646839e-04  0 
 4.923743e-03  3.060315e-03  0 
 3.812095e-03  3.046668e-03  0 
 2.398046e-03  2.795111e-03  0 
 -3.369358e-04  -3.934080e-05  0 
 -5.245125e-04  3.265089e-04  0 
 -7.644064e-04  9.202991e-04  0 
 2.152271e-04  1.859507e-03  0 
 -1.517171e-04  1.841133e-03  0 
 -5.261313e-04  1.843824e-03  0 
 -3.369358e-04  3.934080e-05  0 
 -5.245125e-04  -3.265089e-04  0 
 -7.644064e-04  -9.202991e-04  0 
 -3.404391e-03  1.404604e-03  0 
 -4.215867e-03  -1.456263e-13  0 
 -3.404391e-03  -1.404604e-03  0 
 1.266659e-04  3.935661e-05  0 
 2.854297e-04  -3.318371e-04  0 
 4.873132e-04  -9.646839e-04  0 
 -5.261313e-04  -1.843824e-03  0 
 -1.517171e-04  -1.841133e-03  0 
 2.152271e-04  -1.859507e-03  0 
 6.193837e-04  3.236605e-04  0 
 1.702170e-03  2.714089e-05  0 
 3.493167e-03  -1.015776e-03  0 
 2.398046e-03  -2.795111e-03  0 
 3.812095e-03  -3.046668e-03  0 
 4.923743e-03  -3.060315e-03  0 
 5.684644e-04  -3.144867e-04  0 
 4.734033e-04  -2.730439e-04  0 
 3.166759e-04  -1.751142e-04  0 
 1.413483e-03  -1.281398e-05  0 
 1.057564e-03  4.643239e-05  0 
 6.919274e-04  1.742039e-04  0 
 2.802960e-03  9.829634e-04  0 
 2.009309e-03  8.929525e-04  0 
 1.165764e-03  8.094806e-04  0 
 9.079827e-06  -3.258253e-05  0 
 -1.151273e-04  -2.846807e-05  0 
 -2.337237e-04  -2.933032e-05  0 
 8.113394e-05  3.338650e-04  0 
 -1.260974e-04  3.327601e-04  0 
 -3.295560e-04  3.283573e-04  0 
 1.681289e-04  9.708662e-04  0 
 -1.428589e-04  9.666261e-04  0 
 -4.530839e-04  9.479228e-04  0 
 -4.268276e-04  -1.616295e-05  0 
 -4.732287e-04  -1.357638e-13  0 
 -4.268276e-04  1.616295e-05  0 
 -6.823119e-04  1.816744e-04  0 
 -6.927167e-04  -1.390423e-13  0 
 -6.823119e-04  -1.816744e-04  0 
 -1.144259e-03  2.052553e-04  0 
 -1.367967e-03  -1.423493e-13  0 
 -1.144259e-03  -2.052553e-04  0 
 -2.337237e-04  2.933032e-05  0 
 -1.151273e-04  2.846807e-05  0 
 9.079827e-06  3.258253e-05  0 
 -3.295560e-04  -3.283573e-04  0 
 -1.260974e-04  -3.327601e-04  0 
 8.113394e-05  -3.338650e-04  0 
 -4.530839e-04  -9.479228e-04  0 
 -1.428589e-04  -9.666261e-04  0 
 1.681289e-04  -9.708662e-04  0 
 3.166759e-04  1.751142e-04  0 
 4.734033e-04  2.730439e-04  0 
 5.684644e-04  3.144867e-04  0 
 6.919274e-04  -1.742039e-04  0 
 1.057564e-03  -4.643239e-05  0 
 1.413483e-03  1.281398e-05  0 
 1.165764e-03  -8.094806e-04  0 
 2.009309e-03  -8.929525e-04  0 
 2.802960e-03  -9.829634e-04  0 
VECTORS displacement_ITER8 FLOAT
 -4.866047e-05  -3.253402e-04  0 
 5.897696e-03  3.040022e-03  0 
 1.129937e-04  -2.314554e-04  0 
 -1.775619e-04  -1.305355e-04  0 
 -1.775619e-04  1.305355e-04  0 
 1.129937e-04  2.314554e-04  0 
 -4.866047e-05  3.253402e-04  0 
 6.670943e-04  1.889907e-03  0 
 -8.991116e-04  1.852692e-03  0 
 -8.991116e-04  -1.852692e-03  0 
 6.670943e-04  -1.889907e-03  0 
 5.897696e-03  -3.040022e-03  0 
 6.762488e-04  -2.838112e-04  0 
 1.738566e-03  -7.703527e-06  0 
 3.529652e-03  1.022138e-03  0 
 -5.174397e-05  -2.999686e-04  0 
 1.445913e-05  -2.609404e-04  0 
 1.346975e-04  -2.826487e-04  0 
 3.219487e-05  -2.352300e-04  0 
 -5.905199e-05  -2.224765e-04  0 
 -1.393163e-04  -1.878068e-04  0 
 -1.337003e-04  -1.194820e-04  0 
 -7.409006e-05  -2.661642e-14  0 
 -1.337003e-04  1.194820e-04  0 
 -1.393163e-04  1.878068e-04  0 
 -5.905199e-05  2.224765e-04  0 
 3.219487e-05  2.352300e-04  0 
 1.346975e-04  2.826487e-04  0 
 1.445913e-05  2.609404e-04  0 
 -5.174397e-05  2.999686e-04  0 
 1.753827e-04  -2.145195e-05  0 
 3.335236e-04  3.428993e-04  0 
 5.357655e-04  9.693191e-04  0 
 4.963564e-03  3.058450e-03  0 
 3.855036e-03  3.044858e-03  0 
 2.443966e-03  2.793493e-03  0 