# vtk DataFile Version 3.1
this is an vtk file created by FEMAC
ASCII
DATASET UNSTRUCTURED_GRID
POINTS 105 FLOAT
7.000000 0.000000 0.000000
7.500000 0.000000 0.000000
7.000000 0.200000 0.000000
7.000000 0.400000 0.000000
7.000000 0.600000 0.000000
7.000000 0.800000 0.000000
7.000000 1.000000 0.000000
7.500000 0.200000 0.000000
7.500000 0.400000 0.000000
7.500000 0.600000 0.000000
7.500000 0.800000 0.000000
7.500000 1.000000 0.000000
7.125000 0.000000 0.000000
7.250000 0.000000 0.000000
7.375000 0.000000 0.000000
7.000000 0.050000 0.000000
7.000000 0.100000 0.000000
7.000000 0.150000 0.000000
7.000000 0.250000 0.000000
7.000000 0.300000 0.000000
7.000000 0.350000 0.000000
7.000000 0.450000 0.000000
7.000000 0.500000 0.000000
7.000000 0.550000 0.000000
7.000000 0.650000 0.000000
7.000000 0.700000 0.000000
7.000000 0.750000 0.000000
7.000000 0.850000 0.000000
7.000000 0.900000 0.000000
7.000000 0.950000 0.000000
7.125000 0.200000 0.000000
7.250000 0.200000 0.000000
7.375000 0.200000 0.000000
7.500000 0.050000 0.000000
7.500000 0.100000 0.000000
7.500000 0.150000 0.000000
7.125000 0.400000 0.000000
7.250000 0.400000 0.000000
7.375000 0.400000 0.000000
7.500000 0.250000 0.000000
7.500000 0.300000 0.000000
7.500000 0.350000 0.000000
7.125000 0.600000 0.000000
7.250000 0.600000 0.000000
7.375000 0.600000 0.000000
7.500000 0.450000 0.000000
7.500000 0.500000 0.000000
7.500000 0.550000 0.000000
7.125000 0.800000 0.000000
7.250000 0.800000 0.000000
7.375000 0.800000 0.000000
7.500000 0.650000 0.000000
7.500000 0.700000 0.000000
7.500000 0.750000 0.000000
7.125000 1.000000 0.000000
7.250000 1.000000 0.000000
7.375000 1.000000 0.000000
7.500000 0.850000 0.000000
7.500000 0.900000 0.000000
7.500000 0.950000 0.000000
7.125000 0.050000 0.000000
7.125000 0.100000 0.000000
7.125000 0.150000 0.000000
7.250000 0.050000 0.000000
7.250000 0.100000 0.000000
7.250000 0.150000 0.000000
7.375000 0.050000 0.000000
7.375000 0.100000 0.000000
7.375000 0.150000 0.000000
7.125000 0.250000 0.000000
7.125000 0.300000 0.000000
7.125000 0.350000 0.000000
7.250000 0.250000 0.000000
7.250000 0.300000 0.000000
7.250000 0.350000 0.000000
7.375000 0.250000 0.000000
7.375000 0.300000 0.000000
7.375000 0.350000 0.000000
7.125000 0.450000 0.000000
7.125000 0.500000 0.000000
7.125000 0.550000 0.000000
7.250000 0.450000 0.000000
7.250000 0.500000 0.000000
7.250000 0.550000 0.000000
7.375000 0.450000 0.000000
7.375000 0.500000 0.000000
7.375000 0.550000 0.000000
7.125000 0.650000 0.000000
7.125000 0.700000 0.000000
7.125000 0.750000 0.000000
7.250000 0.650000 0.000000
7.250000 0.700000 0.000000
7.250000 0.750000 0.000000
7.375000 0.650000 0.000000
7.375000 0.700000 0.000000
7.375000 0.750000 0.000000
7.125000 0.850000 0.000000
7.125000 0.900000 0.000000
7.125000 0.950000 0.000000
7.250000 0.850000 0.000000
7.250000 0.900000 0.000000
7.250000 0.950000 0.000000
7.375000 0.850000 0.000000
7.375000 0.900000 0.000000
7.375000 0.950000 0.000000
CELLS 80 400 
4 0 12 60 15
4 15 60 61 16
4 16 61 62 17
4 17 62 30  2
4 12 13 63 60
4 60 63 64 61
4 61 64 65 62
4 62 65 31 30
4 13 14 66 63
4 63 66 67 64
4 64 67 68 65
4 65 68 32 31
4 14  1 33 66
4 66 33 34 67
4 67 34 35 68
4 68 35  7 32
4 2 30 69 18
4 18 69 70 19
4 19 70 71 20
4 20 71 36  3
4 30 31 72 69
4 69 72 73 70
4 70 73 74 71
4 71 74 37 36
4 31 32 75 72
4 72 75 76 73
4 73 76 77 74
4 74 77 38 37
4 32  7 39 75
4 75 39 40 76
4 76 40 41 77
4 77 41  8 38
4 3 36 78 21
4 21 78 79 22
4 22 79 80 23
4 23 80 42  4
4 36 37 81 78
4 78 81 82 79
4 79 82 83 80
4 80 83 43 42
4 37 38 84 81
4 81 84 85 82
4 82 85 86 83
4 83 86 44 43
4 38  8 45 84
4 84 45 46 85
4 85 46 47 86
4 86 47  9 44
4 4 42 87 24
4 24 87 88 25
4 25 88 89 26
4 26 89 48  5
4 42 43 90 87
4 87 90 91 88
4 88 91 92 89
4 89 92 49 48
4 43 44 93 90
4 90 93 94 91
4 91 94 95 92
4 92 95 50 49
4 44  9 51 93
4 93 51 52 94
4 94 52 53 95
4 95 53 10 50
4 5 48 96 27
4 27 96 97 28
4 28 97 98 29
4 29 98 54  6
4 48 49 99 96
4 96  99 100  97
4 97 100 101  98
4 98 101  55  54
4 49  50 102  99
4 99 102 103 100
4 100 103 104 101
4 101 104  56  55
4 50  10  57 102
4 102  57  58 103
4 103  58  59 104
4 104  59  11  56
CELL_TYPES 80
9 9 9 9 9 9 9 9 9 9 9 9 9 9 9 9 9 9 9 9 9 9 9 9 9 9 9 9 9 9 9 9 9 9 9 9 9 9 9 9 9 9 9 9 9 9 9 9 9 9 9 9 9 9 9 9 9 9 9 9 9 9 9 9 9 9 9 9 9 9 9 9 9 9 9 9 9 9 9 9 
POINT_DATA 105
VECTORS displacement_ITER1 FLOAT
 -5.567544e-04  2.759493e-04  0 
 -5.447852e-04  -1.209691e-03  0 
 2.475288e-05  2.716941e-04  0 
 2.771605e-04  2.296877e-06  0 
 2.771605e-04  -2.296876e-06  0 
 2.475288e-05  -2.716941e-04  0 
 -5.567544e-04  -2.759493e-04  0 
 1.870295e-05  -1.196569e-03  0 
 2.717740e-04  -3.189470e-05  0 
 2.717740e-04  3.189470e-05  0 
 1.870295e-05  1.196569e-03  0 
 -5.447852e-04  1.209691e-03  0 
 -5.581689e-04  -8.926177e-05  0 
 -5.616728e-04  -4.581505e-04  0 
 -5.621854e-04  -8.345461e-04  0 
 -4.107777e-04  2.757434e-04  0 
 -2.648429e-04  2.749921e-04  0 
 -1.194899e-04  2.735814e-04  0 
 1.431665e-04  1.935895e-04  0 
 2.229567e-04  1.226846e-04  0 
 2.665465e-04  5.843913e-05  0 
 2.780788e-04  1.090368e-06  0 
 2.784061e-04  1.721648e-13  0 
 2.780788e-04  -1.090367e-06  0 
 2.665465e-04  -5.843913e-05  0 
 2.229567e-04  -1.226846e-04  0 
 1.431665e-04  -1.935895e-04  0 
 -1.194899e-04  -2.735814e-04  0 
 -2.648429e-04  -2.749921e-04  0 
 -4.107777e-04  -2.757434e-04  0 
 2.650782e-05  -8.824741e-05  0 
 3.132914e-05  -4.530133e-04  0 
 3.369773e-05  -8.271683e-04  0 
 -4.025845e-04  -1.208765e-03  0 
 -2.591624e-04  -1.205940e-03  0 
 -1.176707e-04  -1.201455e-03  0 
 2.769583e-04  -1.199160e-06  0 
 2.757371e-04  -4.903882e-06  0 
 2.706117e-04  -1.229124e-05  0 
 9.820466e-05  -1.014604e-03  0 
 1.644240e-04  -7.651768e-04  0 
 2.208866e-04  -4.482421e-04  0 
 2.769583e-04  1.199160e-06  0 
 2.757371e-04  4.903882e-06  0 
 2.706117e-04  1.229124e-05  0 
 2.702601e-04  -1.546100e-05  0 
 2.698683e-04  1.906912e-13  0 
 2.702601e-04  1.546100e-05  0 
 2.650782e-05  8.824741e-05  0 
 3.132914e-05  4.530133e-04  0 
 3.369773e-05  8.271683e-04  0 
 2.208866e-04  4.482421e-04  0 
 1.644240e-04  7.651768e-04  0 
 9.820466e-05  1.014604e-03  0 
 -5.581689e-04  8.926177e-05  0 
 -5.616728e-04  4.581505e-04  0 
 -5.621854e-04  8.345461e-04  0 
 -1.176707e-04  1.201455e-03  0 
 -2.591624e-04  1.205940e-03  0 
 -4.025845e-04  1.208765e-03  0 
 -4.114674e-04  -8.919864e-05  0 
 -2.647578e-04  -8.900252e-05  0 
 -1.185812e-04  -8.868220e-05  0 
 -4.129241e-04  -4.580569e-04  0 
 -2.644305e-04  -4.573561e-04  0 
 -1.162774e-04  -4.555542e-04  0 
 -4.113023e-04  -8.339629e-04  0 
 -2.630570e-04  -8.325634e-04  0 
 -1.155373e-04  -8.305985e-04  0 
 1.438560e-04  -6.823560e-05  0 
 2.237492e-04  -4.750201e-05  0 
 2.678494e-04  -2.443919e-05  0 
 1.469788e-04  -3.433904e-04  0 
 2.257832e-04  -2.302859e-04  0 
 2.675141e-04  -1.193334e-04  0 
 1.318818e-04  -6.344943e-04  0 
 2.166927e-04  -4.330186e-04  0 
 2.717186e-04  -2.187309e-04  0 
 2.778120e-04  -6.194627e-07  0 
 2.780153e-04  1.768076e-13  0 
 2.778120e-04  6.194631e-07  0 
 2.767539e-04  -2.167618e-06  0 
 2.773550e-04  1.814408e-13  0 
 2.767539e-04  2.167618e-06  0 
 2.754833e-04  -7.118249e-06  0 
 2.767627e-04  1.860668e-13  0 
 2.754833e-04  7.118249e-06  0 
 2.678494e-04  2.443919e-05  0 
 2.237492e-04  4.750201e-05  0 
 1.438560e-04  6.823560e-05  0 
 2.675141e-04  1.193334e-04  0 
 2.257832e-04  2.302859e-04  0 
 1.469788e-04  3.433904e-04  0 
 2.717186e-04  2.187309e-04  0 
 2.166927e-04  4.330186e-04  0 
 1.318818e-04  6.344943e-04  0 
 -1.185812e-04  8.868221e-05  0 
 -2.647578e-04  8.900252e-05  0 
 -4.114674e-04  8.919864e-05  0 
 -1.162774e-04  4.555542e-04  0 
 -2.644305e-04  4.573561e-04  0 
 -4.129241e-04  4.580569e-04  0 
 -1.155373e-04  8.305985e-04  0 
 -2.630570e-04  8.325634e-04  0 
 -4.113023e-04  8.339629e-04  0 
VECTORS displacement_ITER2 FLOAT
 2.231004e-04  -5.849797e-04  0 
 2.394218e-04  -2.511886e-04  0 
 7.771004e-05  -5.875042e-04  0 
 -2.681301e-04  -1.130053e-05  0 
 -2.681301e-04  1.130053e-05  0 
 7.771004e-05  5.875042e-04  0 
 2.231004e-04  5.849797e-04  0 
 7.209298e-05  -2.530292e-04  0 
 -2.856369e-04  -3.985034e-05  0 
 -2.856369e-04  3.985034e-05  0 
 7.209298e-05  2.530292e-04  0 
 2.394218e-04  2.511886e-04  0 
 2.186496e-04  -4.977625e-04  0 
 2.158600e-04  -4.163542e-04  0 
 2.227010e-04  -3.367555e-04  0 
 1.877707e-04  -5.851100e-04  0 
 1.521462e-04  -5.855618e-04  0 
 1.156870e-04  -5.863626e-04  0 
 -4.854356e-05  -5.559341e-04  0 
 -1.715436e-04  -4.263824e-04  0 
 -2.535427e-04  -2.350153e-04  0 
 -2.686425e-04  -5.740894e-06  0 
 -2.688112e-04  -3.035786e-13  0 
 -2.686425e-04  5.740893e-06  0 
 -2.535427e-04  2.350153e-04  0 
 -1.715436e-04  4.263824e-04  0 
 -4.854356e-05  5.559341e-04  0 
 1.156870e-04  5.863626e-04  0 
 1.521462e-04  5.855618e-04  0 
 1.877707e-04  5.851100e-04  0 
 7.866257e-05  -4.922006e-04  0 
 8.467306e-05  -4.111274e-04  0 
 8.649620e-05  -3.387961e-04  0 
 2.042467e-04  -2.515134e-04  0 
 1.662081e-04  -2.519630e-04  0 
 1.234161e-04  -2.520607e-04  0 
 -2.649322e-04  -8.074029e-06  0 
 -2.659893e-04  -3.409184e-06  0 
 -2.800342e-04  -4.221538e-06  0 
 -1.227911e-04  -2.361774e-04  0 
 -3.019792e-04  -2.419467e-04  0 
 -3.796905e-04  -2.166917e-04  0 
 -2.649322e-04  8.074029e-06  0 
 -2.659893e-04  3.409184e-06  0 
 -2.800342e-04  4.221537e-06  0 
 -2.862010e-04  -1.821777e-05  0 
 -2.863063e-04  -3.382570e-13  0 
 -2.862010e-04  1.821777e-05  0 
 7.866257e-05  4.922006e-04  0 
 8.467306e-05  4.111274e-04  0 
 8.649620e-05  3.387961e-04  0 
 -3.796905e-04  2.166917e-04  0 
 -3.019792e-04  2.419467e-04  0 
 -1.227911e-04  2.361774e-04  0 
 2.186496e-04  4.977625e-04  0 
 2.158600e-04  4.163542e-04  0 
 2.227010e-04  3.367555e-04  0 
 1.234161e-04  2.520607e-04  0 
 1.662081e-04  2.519630e-04  0 
 2.042467e-04  2.515134e-04  0 
 1.847158e-04  -4.975237e-04  0 
 1.503872e-04  -4.966594e-04  0 
 1.151950e-04  -4.949808e-04  0 
 1.835308e-04  -4.161295e-04  0 
 1.503282e-04  -4.152485e-04  0 
 1.172292e-04  -4.133923e-04  0 
 1.889221e-04  -3.370384e-04  0 
 1.540364e-04  -3.379147e-04  0 
 1.189440e-04  -3.390887e-04  0 
 -1.762127e-05  -3.713558e-04  0 
 -1.176951e-04  -2.599040e-04  0 
 -2.013017e-04  -1.411854e-04  0 
 -1.597411e-05  -3.123065e-04  0 
 -1.050554e-04  -2.085714e-04  0 
 -1.923202e-04  -1.092325e-04  0 
 -4.404478e-05  -2.813050e-04  0 
 -1.387409e-04  -1.918613e-04  0 
 -2.022677e-04  -8.025260e-05  0 
 -2.670849e-04  -4.229840e-06  0 
 -2.679687e-04  -3.122353e-13  0 
 -2.670849e-04  4.229839e-06  0 
 -2.689200e-04  -9.638959e-07  0 
 -2.693300e-04  -3.209044e-13  0 
 -2.689200e-04  9.638953e-07  0 
 -2.736768e-04  -4.097681e-06  0 
 -2.721737e-04  -3.295803e-13  0 
 -2.736768e-04  4.097680e-06  0 
 -2.013017e-04  1.411854e-04  0 
 -1.176951e-04  2.599040e-04  0 
 -1.762127e-05  3.713558e-04  0 
 -1.923202e-04  1.092325e-04  0 
 -1.050554e-04  2.085714e-04  0 
 -1.597411e-05  3.123065e-04  0 
 -2.022677e-04  8.025260e-05  0 
 -1.387409e-04  1.918613e-04  0 
 -4.404478e-05  2.813050e-04  0 
 1.151950e-04  4.949808e-04  0 
 1.503872e-04  4.966594e-04  0 
 1.847158e-04  4.975237e-04  0 
 1.172292e-04  4.133923e-04  0 
 1.503282e-04  4.152485e-04  0 
 1.835308e-04  4.161295e-04  0 
 1.189440e-04  3.390887e-04  0 
 1.540364e-04  3.379147e-04  0 
 1.889221e-04  3.370384e-04  0 
VECTORS displacement_ITER3 FLOAT
 -2.405367e-04  1.278521e-05  0 
 -2.214919e-04  -5.743243e-04  0 
 -1.821844e-05  9.017444e-06  0 
 -5.570637e-05  -4.141967e-06  0 
 -5.570637e-05  4.141967e-06  0 
 -1.821844e-05  -9.017444e-06  0 
 -2.405367e-04  -1.278521e-05  0 
 -1.870881e-05  -5.830427e-04  0 
 -8.557287e-05  -5.921436e-05  0 
 -8.557287e-05  5.921437e-05  0 
 -1.870881e-05  5.830427e-04  0 
 -2.214919e-04  5.743243e-04  0 
 -2.447530e-04  -1.335105e-04  0 
 -2.441374e-04  -2.840308e-04  0 
 -2.349345e-04  -4.323067e-04  0 
 -1.838265e-04  1.245007e-05  0 
 -1.270699e-04  1.147538e-05  0 
 -7.141444e-05  1.013900e-05  0 
 -2.356816e-05  1.029854e-05  0 
 -1.536653e-05  6.548867e-06  0 
 -2.168551e-05  -5.821988e-06  0 
 -5.722838e-05  -2.314587e-06  0 
 -5.759156e-05  2.710360e-14  0 
 -5.722838e-05  2.314587e-06  0 
 -2.168551e-05  5.821988e-06  0 
 -1.536653e-05  -6.548867e-06  0 
 -2.356816e-05  -1.029854e-05  0 
 -7.141444e-05  -1.013900e-05  0 
 -1.270699e-04  -1.147538e-05  0 
 -1.838265e-04  -1.245007e-05  0 
 -1.186004e-05  -1.311318e-04  0 
 -6.603910e-06  -2.802554e-04  0 
 -4.620584e-06  -4.345787e-04  0 
 -1.631811e-04  -5.747438e-04  0 
 -1.086135e-04  -5.757337e-04  0 
 -5.907241e-05  -5.775483e-04  0 
 -5.720554e-05  -1.618750e-06  0 
 -6.161686e-05  -1.214634e-06  0 
 -7.826980e-05  -5.386915e-06  0 
 -9.851385e-05  -5.767741e-04  0 
 -1.792116e-04  -5.161498e-04  0 
 -2.033119e-04  -3.718505e-04  0 
 -5.720554e-05  1.618750e-06  0 
 -6.161686e-05  1.214634e-06  0 
 -7.826980e-05  5.386915e-06  0 
 -8.112079e-05  -2.623542e-05  0 
 -7.960250e-05  2.976731e-14  0 
 -8.112079e-05  2.623542e-05  0 
 -1.186004e-05  1.311318e-04  0 
 -6.603910e-06  2.802554e-04  0 
 -4.620584e-06  4.345787e-04  0 
 -2.033119e-04  3.718505e-04  0 
 -1.792116e-04  5.161498e-04  0 
 -9.851385e-05  5.767741e-04  0 
 -2.447530e-04  1.335105e-04  0 
 -2.441374e-04  2.840308e-04  0 
 -2.349345e-04  4.323067e-04  0 
 -5.907241e-05  5.775483e-04  0 
 -1.086135e-04  5.757337e-04  0 
 -1.631811e-04  5.747438e-04  0 
 -1.853923e-04  -1.334186e-04  0 
 -1.268804e-04  -1.329794e-04  0 
 -6.920087e-05  -1.321577e-04  0 
 -1.844036e-04  -2.838031e-04  0 
 -1.253113e-04  -2.830723e-04  0 
 -6.591787e-05  -2.816690e-04  0 
 -1.779308e-04  -4.328305e-04  0 
 -1.213180e-04  -4.342193e-04  0 
 -6.468301e-05  -4.357288e-04  0 
 -4.474219e-07  -1.018389e-04  0 
 -6.335698e-06  -7.249836e-05  0 
 -2.519290e-05  -3.617322e-05  0 
 1.102469e-06  -2.136782e-04  0 
 -4.843551e-06  -1.419031e-04  0 
 -2.886797e-05  -7.516933e-05  0 
 -3.242423e-05  -3.564680e-04  0 
 -3.549735e-05  -2.504520e-04  0 
 -3.204681e-05  -1.160271e-04  0 
 -5.840347e-05  -1.003806e-06  0 
 -5.911243e-05  2.778235e-14  0 
 -5.840347e-05  1.003806e-06  0 
 -6.309563e-05  4.985064e-07  0 
 -6.285961e-05  2.844993e-14  0 
 -6.309563e-05  -4.985063e-07  0 
 -6.857333e-05  -5.451661e-06  0 
 -6.610481e-05  2.911040e-14  0 
 -6.857333e-05  5.451661e-06  0 
 -2.519290e-05  3.617322e-05  0 
 -6.335698e-06  7.249836e-05  0 
 -4.474219e-07  1.018389e-04  0 
 -2.886797e-05  7.516933e-05  0 
 -4.843551e-06  1.419031e-04  0 
 1.102469e-06  2.136782e-04  0 
 -3.204681e-05  1.160271e-04  0 
 -3.549735e-05  2.504520e-04  0 
 -3.242423e-05  3.564680e-04  0 
 -6.920087e-05  1.321577e-04  0 
 -1.268804e-04  1.329794e-04  0 
 -1.853923e-04  1.334186e-04  0 
 -6.591787e-05  2.816690e-04  0 
 -1.253113e-04  2.830723e-04  0 
 -1.844036e-04  2.838031e-04  0 
 -6.468301e-05  4.357288e-04  0 
 -1.213180e-04  4.342193e-04  0 
 -1.779308e-04  4.328305e-04  0 
VECTORS displacement_ITER4 FLOAT
 -2.052966e-04  -9.212253e-09  0 
 -1.797681e-04  -5.677245e-04  0 
 1.436763e-05  1.530301e-06  0 
 2.925250e-05  -6.836751e-06  0 
 2.925250e-05  6.836751e-06  0 
 1.436763e-05  -1.530301e-06  0 
 -2.052966e-04  9.212227e-09  0 
 2.113199e-05  -5.805935e-04  0 
 -1.657768e-05  -7.471262e-05  0 
 -1.657768e-05  7.471262e-05  0 
 2.113199e-05  5.805935e-04  0 
 -1.797681e-04  5.677245e-04  0 
 -2.046629e-04  -1.410495e-04  0 
 -2.028501e-04  -2.857317e-04  0 
 -1.935170e-04  -4.295024e-04  0 
 -1.485427e-04  -1.600169e-08  0 
 -9.253410e-05  -1.944343e-08  0 
 -3.784695e-05  2.711445e-07  0 
 3.256216e-05  4.897719e-05  0 
 7.359744e-05  4.799539e-05  0 
 8.382972e-05  1.507953e-05  0 
 2.681829e-05  -3.671629e-06  0 
 2.624135e-05  -1.284267e-14  0 
 2.681829e-05  3.671629e-06  0 
 8.382972e-05  -1.507953e-05  0 
 7.359744e-05  -4.799539e-05  0 
 3.256216e-05  -4.897719e-05  0 
 -3.784695e-05  -2.711445e-07  0 
 -9.253410e-05  1.944340e-08  0 
 -1.485427e-04  1.600166e-08  0 
 2.160284e-05  -1.378863e-04  0 
 2.717032e-05  -2.824000e-04  0 
 3.069727e-05  -4.304247e-04  0 
 -1.239823e-04  -5.676544e-04  0 
 -7.092700e-05  -5.679602e-04  0 
 -2.134013e-05  -5.704913e-04  0 
 2.468319e-05  -9.980470e-07  0 
 1.751324e-05  -7.240435e-07  0 
 -2.625230e-06  -3.067283e-06  0 
 -3.578786e-05  -5.987909e-04  0 
 -1.079152e-04  -5.319377e-04  0 
 -1.429415e-04  -3.713659e-04  0 
 2.468319e-05  9.980470e-07  0 
 1.751324e-05  7.240434e-07  0 
 -2.625230e-06  3.067283e-06  0 
 -3.681771e-06  -3.197135e-05  0 
 2.385340e-07  -1.519725e-14  0 
 -3.681771e-06  3.197135e-05  0 
 2.160284e-05  1.378863e-04  0 
 2.717032e-05  2.824000e-04  0 
 3.069727e-05  4.304247e-04  0 
 -1.429415e-04  3.713659e-04  0 
 -1.079152e-04  5.319377e-04  0 
 -3.578786e-05  5.987909e-04  0 
 -2.046629e-04  1.410495e-04  0 
 -2.028501e-04  2.857317e-04  0 
 -1.935170e-04  4.295024e-04  0 
 -2.134013e-05  5.704913e-04  0 
 -7.092700e-05  5.679602e-04  0 
 -1.239823e-04  5.676544e-04  0 
 -1.477626e-04  -1.407824e-04  0 
 -9.109183e-05  -1.399732e-04  0 
 -3.488165e-05  -1.388642e-04  0 
 -1.451136e-04  -2.855736e-04  0 
 -8.785277e-05  -2.849638e-04  0 
 -3.014871e-05  -2.836385e-04  0 
 -1.379087e-04  -4.299800e-04  0 
 -8.287955e-05  -4.312339e-04  0 
 -2.793944e-05  -4.324924e-04  0 
 4.564583e-05  -1.092603e-04  0 
 5.527149e-05  -7.473971e-05  0 
 4.784898e-05  -3.325236e-05  0 
 4.544472e-05  -2.158330e-04  0 
 4.970242e-05  -1.433128e-04  0 
 3.817274e-05  -7.550471e-05  0 
 1.213740e-05  -3.541670e-04  0 
 2.134713e-05  -2.541536e-04  0 
 3.596147e-05  -1.223610e-04  0 
 2.304592e-05  -8.758012e-07  0 
 2.210575e-05  -1.341765e-14  0 
 2.304592e-05  8.758012e-07  0 
 1.576945e-05  1.167228e-06  0 
 1.601861e-05  -1.400434e-14  0 
 1.576945e-05  -1.167228e-06  0 
 8.859557e-06  -4.947632e-06  0 
 1.195111e-05  -1.459850e-14  0 
 8.859557e-06  4.947632e-06  0 
 4.784898e-05  3.325236e-05  0 
 5.527149e-05  7.473971e-05  0 
 4.564583e-05  1.092603e-04  0 
 3.817274e-05  7.550471e-05  0 
 4.970242e-05  1.433128e-04  0 
 4.544472e-05  2.158330e-04  0 
 3.596147e-05  1.223610e-04  0 
 2.134713e-05  2.541536e-04  0 
 1.213740e-05  3.541670e-04  0 
 -3.488165e-05  1.388642e-04  0 
 -9.109183e-05  1.399732e-04  0 
 -1.477626e-04  1.407824e-04  0 
 -3.014871e-05  2.836385e-04  0 
 -8.785277e-05  2.849638e-04  0 
 -1.451136e-04  2.855736e-04  0 
 -2.793944e-05  4.324924e-04  0 
 -8.287955e-05  4.312339e-04  0 
 -1.379087e-04  4.299800e-04  0 
VECTORS displacement_ITER5 FLOAT
 -5.824769e-05  -2.677436e-05  0 
 -2.832969e-05  -3.885217e-04  0 
 7.647112e-05  -2.322800e-05  0 
 2.538323e-05  -8.789101e-06  0 
 2.538323e-05  8.789101e-06  0 
 7.647112e-05  2.322800e-05  0 
 -5.824769e-05  2.677436e-05  0 
 9.415925e-05  -4.026597e-04  0 
 -3.960850e-05  -8.945445e-05  0 
 -3.960850e-05  8.945445e-05  0 
 9.415925e-05  4.026597e-04  0 
 -2.832969e-05  3.885217e-04  0 
 -5.752987e-05  -1.155819e-04  0 
 -5.502809e-05  -2.084466e-04  0 
 -4.513683e-05  -3.013633e-04  0 
 -2.246211e-05  -2.673365e-05  0 
 1.242855e-05  -2.652684e-05  0 
 4.585416e-05  -2.569719e-05  0 
 7.452312e-05  3.389006e-05  0 
 9.016883e-05  3.775109e-05  0 
 8.555263e-05  1.535258e-05  0 
 2.154766e-05  -4.523185e-06  0 
 2.057579e-05  -1.529076e-13  0 
 2.154766e-05  4.523184e-06  0 
 8.555263e-05  -1.535258e-05  0 
 9.016883e-05  -3.775109e-05  0 
 7.452312e-05  -3.389006e-05  0 
 4.585416e-05  2.569719e-05  0 
 1.242855e-05  2.652684e-05  0 
 -2.246211e-05  2.673365e-05  0 
 8.592597e-05  -1.126773e-04  0 
 9.186066e-05  -2.065386e-04  0 
 9.633461e-05  -3.005262e-04  0 
 4.337585e-06  -3.877402e-04  0 
 3.606765e-05  -3.867619e-04  0 
 6.661348e-05  -3.890509e-04  0 
 1.872790e-05  -5.633874e-07  0 
 1.039588e-05  6.352801e-07  0 
 -1.427027e-05  2.794856e-06  0 
 2.669442e-05  -4.228922e-04  0 
 -8.386709e-05  -3.761584e-04  0 
 -1.647213e-04  -2.642439e-04  0 
 1.872790e-05  5.633870e-07  0 
 1.039588e-05  -6.352804e-07  0 
 -1.427027e-05  -2.794856e-06  0 
 -1.453065e-05  -3.734583e-05  0 
 -7.488700e-06  -1.699352e-13  0 
 -1.453065e-05  3.734583e-05  0 
 8.592597e-05  1.126773e-04  0 
 9.186066e-05  2.065386e-04  0 
 9.633461e-05  3.005262e-04  0 
 -1.647213e-04  2.642439e-04  0 
 -8.386709e-05  3.761584e-04  0 
 2.669442e-05  4.228922e-04  0 
 -5.752987e-05  1.155819e-04  0 
 -5.502809e-05  2.084466e-04  0 
 -4.513683e-05  3.013633e-04  0 
 6.661348e-05  3.890509e-04  0 
 3.606765e-05  3.867619e-04  0 
 4.337585e-06  3.877402e-04  0 
 -2.149919e-05  -1.152992e-04  0 
 1.425852e-05  -1.144757e-04  0 
 4.967528e-05  -1.134056e-04  0 
 -1.793072e-05  -2.083837e-04  0 
 1.868581e-05  -2.080341e-04  0 
 5.559282e-05  -2.071408e-04  0 
 -9.426955e-06  -3.016583e-04  0 
 2.513787e-05  -3.024630e-04  0 
 5.923268e-05  -3.032180e-04  0 
 8.374851e-05  -9.007743e-05  0 
 7.448899e-05  -6.072819e-05  0 
 5.240321e-05  -2.751077e-05  0 
 8.387671e-05  -1.590215e-04  0 
 6.760903e-05  -1.055666e-04  0 
 4.158538e-05  -5.493643e-05  0 
 5.393765e-05  -2.553075e-04  0 
 3.917539e-05  -1.893977e-04  0 
 3.390851e-05  -9.197859e-05  0 
 1.667485e-05  -8.104895e-07  0 
 1.548624e-05  -1.571490e-13  0 
 1.667485e-05  8.104892e-07  0 
 7.314100e-06  2.292038e-06  0 
 7.215112e-06  -1.614039e-13  0 
 7.314100e-06  -2.292038e-06  0 
 -1.647406e-06  -2.574534e-06  0 
 2.054979e-06  -1.656667e-13  0 
 -1.647406e-06  2.574534e-06  0 
 5.240321e-05  2.751077e-05  0 
 7.448899e-05  6.072819e-05  0 
 8.374851e-05  9.007743e-05  0 
 4.158538e-05  5.493643e-05  0 
 6.760903e-05  1.055666e-04  0 
 8.387671e-05  1.590215e-04  0 
 3.390851e-05  9.197859e-05  0 
 3.917539e-05  1.893977e-04  0 
 5.393765e-05  2.553075e-04  0 
 4.967528e-05  1.134056e-04  0 
 1.425852e-05  1.144757e-04  0 
 -2.149919e-05  1.152992e-04  0 
 5.559282e-05  2.071408e-04  0 
 1.868581e-05  2.080341e-04  0 
 -1.793072e-05  2.083837e-04  0 
 5.923268e-05  3.032180e-04  0 
 2.513787e-05  3.024630e-04  0 
 -9.426955e-06  3.016583e-04  0 
VECTORS displacement_ITER6 FLOAT
 -3.831124e-05  -5.051543e-05  0 
 -8.150407e-06  -2.567226e-04  0 
 3.057935e-05  -4.759098e-05  0 
 -8.753401e-05  -1.014054e-05  0 
 -8.753401e-05  1.014054e-05  0 
 3.057935e-05  4.759098e-05  0 
 -3.831124e-05  5.051543e-05  0 
 5.543150e-05  -2.707854e-04  0 
 -1.647125e-04  -9.719498e-05  0 
 -1.647125e-04  9.719498e-05  0 
 5.543150e-05  2.707854e-04  0 
 -8.150407e-06  2.567226e-04  0 
 -3.924061e-05  -9.987369e-05  0 
 -3.654626e-05  -1.539252e-04  0 
 -2.639097e-05  -2.083280e-04  0 
 -1.942081e-05  -5.061817e-05  0 
 -1.033889e-06  -5.072838e-05  0 
 1.610012e-05  -5.017404e-05  0 
 8.008963e-06  -1.040008e-05  0 
 -1.192588e-05  -3.502168e-06  0 
 -3.554535e-05  -1.726377e-06  0 
 -9.226995e-05  -5.028505e-06  0 
 -9.350037e-05  6.945984e-15  0 
 -9.226995e-05  5.028505e-06  0 
 -3.554535e-05  1.726377e-06  0 
 -1.192588e-05  3.502168e-06  0 
 8.008963e-06  1.040008e-05  0 
 1.610012e-05  5.017404e-05  0 
 -1.033889e-06  5.072838e-05  0 
 -1.942081e-05  5.061817e-05  0 
 4.105878e-05  -9.779543e-05  0 
 4.743440e-05  -1.527603e-04  0 
 5.268400e-05  -2.065577e-04  0 
 8.075264e-06  -2.558992e-04  0 
 2.384368e-05  -2.548446e-04  0 
 3.930955e-05  -2.569863e-04  0 
 -9.530106e-05  -6.444836e-07  0 
 -1.037825e-04  1.482737e-06  0 
 -1.310991e-04  6.836732e-06  0 
 -2.719533e-05  -2.788747e-04  0 
 -1.636235e-04  -2.488214e-04  0 
 -2.694382e-04  -1.763040e-04  0 
 -9.530106e-05  6.444836e-07  0 
 -1.037825e-04  -1.482737e-06  0 
 -1.310991e-04  -6.836732e-06  0 
 -1.311660e-04  -4.090085e-05  0 
 -1.223609e-04  6.710791e-15  0 
 -1.311660e-04  4.090085e-05  0 
 4.105878e-05  9.779543e-05  0 
 4.743440e-05  1.527603e-04  0 
 5.268400e-05  2.065577e-04  0 
 -2.694382e-04  1.763040e-04  0 
 -1.636235e-04  2.488214e-04  0 
 -2.719533e-05  2.788747e-04  0 
 -3.924061e-05  9.987369e-05  0 
 -3.654626e-05  1.539252e-04  0 
 -2.639097e-05  2.083280e-04  0 
 3.930955e-05  2.569863e-04  0 
 2.384368e-05  2.548446e-04  0 
 8.075264e-06  2.558992e-04  0 
 -1.876921e-05  -9.968105e-05  0 
 1.131729e-06  -9.907717e-05  0 
 2.062941e-05  -9.824791e-05  0 
 -1.498413e-05  -1.538735e-04  0 
 6.026103e-06  -1.536125e-04  0 
 2.708811e-05  -1.529998e-04  0 
 -5.961882e-06  -2.085174e-04  0 
 1.322186e-05  -2.090155e-04  0 
 3.191060e-05  -2.093474e-04  0 
 1.473496e-05  -7.784846e-05  0 
 -1.455469e-05  -5.298963e-05  0 
 -5.169932e-05  -2.709505e-05  0 
 1.568929e-05  -1.187881e-04  0 
 -1.969425e-05  -7.930742e-05  0 
 -6.051993e-05  -4.027489e-05  0 
 -9.687282e-06  -1.824718e-04  0 
 -4.761027e-05  -1.388395e-04  0 
 -7.440826e-05  -6.821970e-05  0 
 -9.755873e-05  -9.397354e-07  0 
 -9.886380e-05  6.903801e-15  0 
 -9.755873e-05  9.397354e-07  0 
 -1.078973e-04  2.930073e-06  0 
 -1.083486e-04  6.847211e-15  0 
 -1.078973e-04  -2.930073e-06  0 
 -1.181892e-04  -6.547560e-07  0 
 -1.140234e-04  6.781874e-15  0 
 -1.181892e-04  6.547560e-07  0 
 -5.169932e-05  2.709505e-05  0 
 -1.455469e-05  5.298963e-05  0 
 1.473496e-05  7.784846e-05  0 
 -6.051993e-05  4.027489e-05  0 
 -1.969425e-05  7.930742e-05  0 
 1.568929e-05  1.187881e-04  0 
 -7.440826e-05  6.821970e-05  0 
 -4.761027e-05  1.388395e-04  0 
 -9.687282e-06  1.824718e-04  0 
 2.062941e-05  9.824791e-05  0 
 1.131729e-06  9.907717e-05  0 
 -1.876921e-05  9.968105e-05  0 
 2.708811e-05  1.529998e-04  0 
 6.026103e-06  1.536125e-04  0 
 -1.498413e-05  1.538735e-04  0 
 3.191060e-05  2.093474e-04  0 
 1.322186e-05  2.090155e-04  0 
 -5.961882e-06  2.085174e-04  0 
VECTORS displacement_ITER7 FLOAT
 -7.643454e-05  -1.956450e-05  0 
 -5.045272e-05  -2.445033e-04  0 
 -3.091487e-06  -1.646127e-05  0 
 -1.183125e-04  -1.072810e-05  0 
 -1.183125e-04  1.072810e-05  0 
 -3.091487e-06  1.646127e-05  0 
 -7.643454e-05  1.956450e-05  0 
 3.068815e-05  -2.593293e-04  0 
 -2.098326e-04  -1.078464e-04  0 
 -2.098326e-04  1.078464e-04  0 
 3.068815e-05  2.593293e-04  0 
 -5.045272e-05  2.445033e-04  0 
 -7.795369e-05  -7.199291e-05  0 
 -7.578875e-05  -1.301736e-04  0 
 -6.662761e-05  -1.899496e-04  0 
 -5.683910e-05  -1.972296e-05  0 
 -3.753115e-05  -1.993829e-05  0 
 -1.927302e-05  -1.942681e-05  0 
 -2.013323e-05  -1.915653e-05  0 
 -5.825011e-05  -2.000361e-05  0 
 -8.830399e-05  -4.974327e-06  0 
 -1.244357e-04  -5.090123e-06  0 
 -1.259992e-04  -1.194504e-13  0 
 -1.244357e-04  5.090123e-06  0 
 -8.830399e-05  4.974327e-06  0 
 -5.825011e-05  2.000361e-05  0 
 -2.013323e-05  1.915653e-05  0 
 -1.927302e-05  1.942681e-05  0 
 -3.753115e-05  1.993829e-05  0 
 -5.683910e-05  1.972296e-05  0 
 8.114808e-06  -7.095986e-05  0 
 1.542411e-05  -1.290949e-04  0 
 2.284739e-05  -1.873390e-04  0 
 -3.023564e-05  -2.445193e-04  0 
 -1.149499e-05  -2.452134e-04  0 
 6.629582e-06  -2.481924e-04  0 
 -1.286708e-04  -3.744983e-07  0 
 -1.372016e-04  1.924242e-06  0 
 -1.664218e-04  9.668820e-06  0 
 -4.298694e-05  -2.460341e-04  0 
 -1.554481e-04  -2.119628e-04  0 
 -2.449849e-04  -1.333008e-04  0 
 -1.286708e-04  3.744981e-07  0 
 -1.372016e-04  -1.924242e-06  0 
 -1.664218e-04  -9.668820e-06  0 
 -1.651649e-04  -4.772300e-05  0 
 -1.545864e-04  -1.325038e-13  0 
 -1.651649e-04  4.772300e-05  0 
 8.114808e-06  7.095986e-05  0 
 1.542411e-05  1.290949e-04  0 
 2.284739e-05  1.873390e-04  0 
 -2.449849e-04  1.333008e-04  0 
 -1.554481e-04  2.119628e-04  0 
 -4.298694e-05  2.460341e-04  0 
 -7.795369e-05  7.199291e-05  0 
 -7.578875e-05  1.301736e-04  0 
 -6.662761e-05  1.899496e-04  0 
 6.629582e-06  2.481924e-04  0 
 -1.149499e-05  2.452134e-04  0 
 -3.023564e-05  2.445193e-04  0 
 -5.601524e-05  -7.187677e-05  0 
 -3.470642e-05  -7.148370e-05  0 
 -1.375484e-05  -7.093314e-05  0 
 -5.222646e-05  -1.300552e-04  0 
 -2.926369e-05  -1.297148e-04  0 
 -6.537727e-06  -1.292692e-04  0 
 -4.403914e-05  -1.901177e-04  0 
 -2.207079e-05  -1.903849e-04  0 
 1.095316e-08  -1.900504e-04  0 
 -1.903640e-05  -5.608201e-05  0 
 -4.898600e-05  -3.897825e-05  0 
 -8.572220e-05  -2.389469e-05  0 
 -1.638711e-05  -1.016548e-04  0 
 -5.216858e-05  -6.953659e-05  0 
 -9.217082e-05  -3.336164e-05  0 
 -3.258698e-05  -1.632828e-04  0 
 -7.406903e-05  -1.224121e-04  0 
 -1.131763e-04  -6.672998e-05  0 
 -1.306447e-04  -8.471885e-07  0 
 -1.319118e-04  -1.226955e-13  0 
 -1.306447e-04  8.471882e-07  0 
 -1.419575e-04  3.292921e-06  0 
 -1.427475e-04  -1.259562e-13  0 
 -1.419575e-04  -3.292921e-06  0 
 -1.531541e-04  1.035748e-06  0 
 -1.480759e-04  -1.292268e-13  0 
 -1.531541e-04  -1.035748e-06  0 
 -8.572220e-05  2.389469e-05  0 
 -4.898600e-05  3.897825e-05  0 
 -1.903640e-05  5.608201e-05  0 
 -9.217082e-05  3.336164e-05  0 
 -5.216858e-05  6.953659e-05  0 
 -1.638711e-05  1.016548e-04  0 
 -1.131763e-04  6.672998e-05  0 
 -7.406903e-05  1.224121e-04  0 
 -3.258698e-05  1.632828e-04  0 
 -1.375484e-05  7.093314e-05  0 
 -3.470642e-05  7.148370e-05  0 
 -5.601524e-05  7.187677e-05  0 
 -6.537727e-06  1.292692e-04  0 
 -2.926369e-05  1.297148e-04  0 
 -5.222646e-05  1.300552e-04  0 
 1.095318e-08  1.900504e-04  0 
 -2.207079e-05  1.903849e-04  0 
 -4.403914e-05  1.901177e-04  0 
VECTORS displacement_ITER8 FLOAT
 -4.144503e-05  -5.033867e-06  0 
 -1.819536e-05  -2.612117e-04  0 
 4.295501e-05  -1.090160e-06  0 
 -5.230829e-05  -1.075585e-05  0 
 -5.230829e-05  1.075585e-05  0 
 4.295501e-05  1.090160e-06  0 
 -4.144503e-05  5.033867e-06  0 
 8.200102e-05  -2.760613e-04  0 
 -1.511182e-04  -1.133256e-04  0 
 -1.511182e-04  1.133256e-04  0 
 8.200102e-05  2.760613e-04  0 
 -1.819536e-05  2.612117e-04  0 
 -4.249513e-05  -6.388622e-05  0 
 -4.089778e-05  -1.291684e-04  0 
 -3.269810e-05  -1.973310e-04  0 
 -1.894897e-05  -5.121841e-06  0 
 3.096315e-06  -5.150856e-06  0 
 2.398924e-05  -4.394420e-06  0 
 3.065612e-05  -1.513050e-05  0 
 -4.881140e-06  -1.687461e-05  0 
 -3.182318e-05  -2.323775e-06  0 
 -5.939319e-05  -5.081985e-06  0 
 -6.115864e-05  -2.327143e-14  0 
 -5.939319e-05  5.081985e-06  0 
 -3.182318e-05  2.323775e-06  0 
 -4.881140e-06  1.687461e-05  0 
 3.065612e-05  1.513050e-05  0 
 2.398924e-05  4.394420e-06  0 
 3.096315e-06  5.150856e-06  0 
 -1.894897e-05  5.121841e-06  0 
 5.479676e-05  -6.297153e-05  0 
 6.286455e-05  -1.280425e-04  0 
 7.170176e-05  -1.944648e-04  0 