# vtk DataFile Version 3.1
this is an vtk file created by FEMAC
ASCII
DATASET UNSTRUCTURED_GRID
POINTS 105 FLOAT
2.500000 0.000000 0.000000
3.000000 0.000000 0.000000
2.500000 0.200000 0.000000
2.500000 0.400000 0.000000
2.500000 0.600000 0.000000
2.500000 0.800000 0.000000
2.500000 1.000000 0.000000
3.000000 0.200000 0.000000
3.000000 0.400000 0.000000
3.000000 0.600000 0.000000
3.000000 0.800000 0.000000
3.000000 1.000000 0.000000
2.625000 0.000000 0.000000
2.750000 0.000000 0.000000
2.875000 0.000000 0.000000
2.500000 0.050000 0.000000
2.500000 0.100000 0.000000
2.500000 0.150000 0.000000
2.500000 0.250000 0.000000
2.500000 0.300000 0.000000
2.500000 0.350000 0.000000
2.500000 0.450000 0.000000
2.500000 0.500000 0.000000
2.500000 0.550000 0.000000
2.500000 0.650000 0.000000
2.500000 0.700000 0.000000
2.500000 0.750000 0.000000
2.500000 0.850000 0.000000
2.500000 0.900000 0.000000
2.500000 0.950000 0.000000
2.625000 0.200000 0.000000
2.750000 0.200000 0.000000
2.875000 0.200000 0.000000
3.000000 0.050000 0.000000
3.000000 0.100000 0.000000
3.000000 0.150000 0.000000
2.625000 0.400000 0.000000
2.750000 0.400000 0.000000
2.875000 0.400000 0.000000
3.000000 0.250000 0.000000
3.000000 0.300000 0.000000
3.000000 0.350000 0.000000
2.625000 0.600000 0.000000
2.750000 0.600000 0.000000
2.875000 0.600000 0.000000
3.000000 0.450000 0.000000
3.000000 0.500000 0.000000
3.000000 0.550000 0.000000
2.625000 0.800000 0.000000
2.750000 0.800000 0.000000
2.875000 0.800000 0.000000
3.000000 0.650000 0.000000
3.000000 0.700000 0.000000
3.000000 0.750000 0.000000
2.625000 1.000000 0.000000
2.750000 1.000000 0.000000
2.875000 1.000000 0.000000
3.000000 0.850000 0.000000
3.000000 0.900000 0.000000
3.000000 0.950000 0.000000
2.625000 0.050000 0.000000
2.625000 0.100000 0.000000
2.625000 0.150000 0.000000
2.750000 0.050000 0.000000
2.750000 0.100000 0.000000
2.750000 0.150000 0.000000
2.875000 0.050000 0.000000
2.875000 0.100000 0.000000
2.875000 0.150000 0.000000
2.625000 0.250000 0.000000
2.625000 0.300000 0.000000
2.625000 0.350000 0.000000
2.750000 0.250000 0.000000
2.750000 0.300000 0.000000
2.750000 0.350000 0.000000
2.875000 0.250000 0.000000
2.875000 0.300000 0.000000
2.875000 0.350000 0.000000
2.625000 0.450000 0.000000
2.625000 0.500000 0.000000
2.625000 0.550000 0.000000
2.750000 0.450000 0.000000
2.750000 0.500000 0.000000
2.750000 0.550000 0.000000
2.875000 0.450000 0.000000
2.875000 0.500000 0.000000
2.875000 0.550000 0.000000
2.625000 0.650000 0.000000
2.625000 0.700000 0.000000
2.625000 0.750000 0.000000
2.750000 0.650000 0.000000
2.750000 0.700000 0.000000
2.750000 0.750000 0.000000
2.875000 0.650000 0.000000
2.875000 0.700000 0.000000
2.875000 0.750000 0.000000
2.625000 0.850000 0.000000
2.625000 0.900000 0.000000
2.625000 0.950000 0.000000
2.750000 0.850000 0.000000
2.750000 0.900000 0.000000
2.750000 0.950000 0.000000
2.875000 0.850000 0.000000
2.875000 0.900000 0.000000
2.875000 0.950000 0.000000
CELLS 80 400 
4 0 12 60 15
4 15 60 61 16
4 16 61 62 17
4 17 62 30  2
4 12 13 63 60
4 60 63 64 61
4 61 64 65 62
4 62 65 31 30
4 13 14 66 63
4 63 66 67 64
4 64 67 68 65
4 65 68 32 31
4 14  1 33 66
4 66 33 34 67
4 67 34 35 68
4 68 35  7 32
4 2 30 69 18
4 18 69 70 19
4 19 70 71 20
4 20 71 36  3
4 30 31 72 69
4 69 72 73 70
4 70 73 74 71
4 71 74 37 36
4 31 32 75 72
4 72 75 76 73
4 73 76 77 74
4 74 77 38 37
4 32  7 39 75
4 75 39 40 76
4 76 40 41 77
4 77 41  8 38
4 3 36 78 21
4 21 78 79 22
4 22 79 80 23
4 23 80 42  4
4 36 37 81 78
4 78 81 82 79
4 79 82 83 80
4 80 83 43 42
4 37 38 84 81
4 81 84 85 82
4 82 85 86 83
4 83 86 44 43
4 38  8 45 84
4 84 45 46 85
4 85 46 47 86
4 86 47  9 44
4 4 42 87 24
4 24 87 88 25
4 25 88 89 26
4 26 89 48  5
4 42 43 90 87
4 87 90 91 88
4 88 91 92 89
4 89 92 49 48
4 43 44 93 90
4 90 93 94 91
4 91 94 95 92
4 92 95 50 49
4 44  9 51 93
4 93 51 52 94
4 94 52 53 95
4 95 53 10 50
4 5 48 96 27
4 27 96 97 28
4 28 97 98 29
4 29 98 54  6
4 48 49 99 96
4 96  99 100  97
4 97 100 101  98
4 98 101  55  54
4 49  50 102  99
4 99 102 103 100
4 100 103 104 101
4 101 104  56  55
4 50  10  57 102
4 102  57  58 103
4 103  58  59 104
4 104  59  11  56
CELL_TYPES 80
9 9 9 9 9 9 9 9 9 9 9 9 9 9 9 9 9 9 9 9 9 9 9 9 9 9 9 9 9 9 9 9 9 9 9 9 9 9 9 9 9 9 9 9 9 9 9 9 9 9 9 9 9 9 9 9 9 9 9 9 9 9 9 9 9 9 9 9 9 9 9 9 9 9 9 9 9 9 9 9 
POINT_DATA 105
VECTORS displacement_ITER1 FLOAT
 1.754579e-14  2.469124e-14  0 
 9.612918e-15  3.614760e-14  0 
 9.210822e-15  2.527022e-14  0 
 4.258198e-15  2.534941e-14  0 
 -5.326110e-16  2.531835e-14  0 
 -5.476269e-15  2.524649e-14  0 
 -1.371576e-14  2.457004e-14  0 
 8.551245e-15  3.681486e-14  0 
 4.229619e-15  3.689602e-14  0 
 -5.523040e-16  3.686367e-14  0 
 -4.881859e-15  3.678976e-14  0 
 -6.035337e-15  3.602268e-14  0 
 1.534850e-14  2.864342e-14  0 
 1.349813e-14  3.195435e-14  0 
 1.168291e-14  3.438063e-14  0 
 1.586903e-14  2.464353e-14  0 
 1.396519e-14  2.457542e-14  0 
 1.177001e-14  2.466734e-14  0 
 7.922446e-15  2.530233e-14  0 
 6.680347e-15  2.532991e-14  0 
 5.463215e-15  2.534589e-14  0 
 3.177501e-15  2.519485e-14  0 
 1.915284e-15  2.512834e-14  0 
 6.302665e-16  2.517227e-14  0 
 -1.741464e-15  2.531619e-14  0 
 -2.958415e-15  2.530222e-14  0 
 -4.196615e-15  2.527686e-14  0 
 -7.925019e-15  2.462720e-14  0 
 -1.007930e-14  2.449865e-14  0 
 -1.199145e-14  2.453506e-14  0 
 9.055743e-15  2.840639e-14  0 
 8.868208e-15  3.135218e-14  0 
 8.687320e-15  3.417082e-14  0 
 8.993847e-15  3.610627e-14  0 
 8.567415e-15  3.605676e-14  0 
 8.398017e-15  3.617746e-14  0 
 4.235778e-15  2.836921e-14  0 
 4.251643e-15  3.132017e-14  0 
 4.263735e-15  3.413582e-14  0 
 7.518940e-15  3.684758e-14  0 
 6.444177e-15  3.687553e-14  0 
 5.344588e-15  3.689227e-14  0 
 -5.238510e-16  2.833977e-14  0 
 -5.501946e-16  3.128732e-14  0 
 -5.727650e-16  3.410573e-14  0 
 2.917226e-15  3.673583e-14  0 
 1.786054e-15  3.666682e-14  0 
 6.777162e-16  3.671259e-14  0 
 -5.337800e-15  2.837085e-14  0 
 -5.166226e-15  3.131613e-14  0 
 -5.001302e-15  3.413460e-14  0 
 -1.663187e-15  3.686126e-14  0 
 -2.762696e-15  3.684652e-14  0 
 -3.841096e-15  3.682077e-14  0 
 -1.158718e-14  2.858986e-14  0 
 -9.795337e-15  3.189694e-14  0 
 -8.038445e-15  3.432665e-14  0 
 -4.838698e-15  3.613507e-14  0 
 -5.046902e-15  3.597789e-14  0 
 -5.467086e-15  3.599513e-14  0 
 1.382139e-14  2.866239e-14  0 
 1.221611e-14  2.869595e-14  0 
 1.056772e-14  2.868084e-14  0 
 1.234775e-14  3.193494e-14  0 
 1.119268e-14  3.184775e-14  0 
 1.003335e-14  3.163355e-14  0 
 1.091011e-14  3.439916e-14  0 
 1.020035e-14  3.443370e-14  0 
 9.517290e-15  3.442561e-14  0 
 7.839216e-15  2.839244e-14  0 
 6.632072e-15  2.838066e-14  0 
 5.433556e-15  2.837303e-14  0 
 7.714778e-15  3.134353e-14  0 
 6.560574e-15  3.133228e-14  0 
 5.406047e-15  3.132368e-14  0 
 7.594323e-15  3.415789e-14  0 
 6.490058e-15  3.414711e-14  0 
 5.376771e-15  3.413965e-14  0 
 3.049624e-15  2.833610e-14  0 
 1.861240e-15  2.832992e-14  0 
 6.677791e-16  2.832903e-14  0 
 3.051464e-15  3.127802e-14  0 
 1.850660e-15  3.125736e-14  0 
 6.498861e-16  3.126106e-14  0 
 3.049744e-15  3.410708e-14  0 
 1.840077e-15  3.410202e-14  0 
 6.355597e-16  3.409969e-14  0 
 -1.720763e-15  2.834227e-14  0 
 -2.918276e-15  2.834833e-14  0 
 -4.123522e-15  2.835842e-14  0 
 -1.704468e-15  3.129029e-14  0 
 -2.858862e-15  3.129782e-14  0 
 -4.012931e-15  3.130801e-14  0 
 -1.686407e-15  3.410824e-14  0 
 -2.800434e-15  3.411411e-14  0 
 -3.906330e-15  3.412320e-14  0 
 -6.829028e-15  2.862212e-14  0 
 -8.458326e-15  2.863606e-14  0 
 -1.005761e-14  2.860639e-14  0 
 -6.331193e-15  3.158503e-14  0 
 -7.490211e-15  3.179136e-14  0 
 -8.645171e-15  3.187743e-14  0 
 -5.851485e-15  3.436623e-14  0 
 -6.553518e-15  3.437286e-14  0 
 -7.268196e-15  3.434231e-14  0 
VECTORS displacement_ITER2 FLOAT
 -2.207622e-14  -4.303258e-14  0 
 -2.070025e-14  -6.273229e-14  0 
 -1.337454e-14  -4.438538e-14  0 
 -5.530794e-15  -4.437797e-14  0 
 2.395162e-15  -4.437685e-14  0 
 1.023298e-14  -4.439042e-14  0 
 1.870802e-14  -4.311562e-14  0 
 -1.377263e-14  -6.440952e-14  0 
 -5.614131e-15  -6.440812e-14  0 
 2.469599e-15  -6.440467e-14  0 
 1.063213e-14  -6.441213e-14  0 
 1.778431e-14  -6.281223e-14  0 
 -2.183814e-14  -4.918993e-14  0 
 -2.154515e-14  -5.441000e-14  0 
 -2.116178e-14  -5.919336e-14  0 
 -1.941636e-14  -4.311987e-14  0 
 -1.700970e-14  -4.337105e-14  0 
 -1.489112e-14  -4.379731e-14  0 
 -1.144821e-14  -4.438284e-14  0 
 -9.491678e-15  -4.437869e-14  0 
 -7.517453e-15  -4.437659e-14  0 
 -3.547147e-15  -4.456515e-14  0 
 -1.601782e-15  -4.458938e-14  0 
 3.664098e-16  -4.453278e-14  0 
 4.378944e-15  -4.437645e-14  0 
 6.351478e-15  -4.438002e-14  0 
 8.307008e-15  -4.438598e-14  0 
 1.168529e-14  -4.389171e-14  0 
 1.372885e-14  -4.347840e-14  0 
 1.607995e-14  -4.321256e-14  0 
 -1.347894e-14  -4.928274e-14  0 
 -1.357853e-14  -5.427678e-14  0 
 -1.367653e-14  -5.929763e-14  0 
 -1.956246e-14  -6.286223e-14  0 
 -1.808160e-14  -6.321111e-14  0 
 -1.624886e-14  -6.374299e-14  0 
 -5.564722e-15  -4.931113e-14  0 
 -5.566784e-15  -5.428008e-14  0 
 -5.571338e-15  -5.932846e-14  0 
 -1.169951e-14  -6.440798e-14  0 
 -9.654700e-15  -6.440501e-14  0 
 -7.627400e-15  -6.440432e-14  0 
 2.425194e-15  -4.930917e-14  0 
 2.426693e-15  -5.427766e-14  0 
 2.430698e-15  -5.932536e-14  0 
 -3.613758e-15  -6.466283e-14  0 
 -1.537882e-15  -6.471098e-14  0 
 5.148694e-16  -6.462925e-14  0 
 1.033526e-14  -4.928136e-14  0 
 1.043750e-14  -5.427188e-14  0 
 1.053812e-14  -5.929505e-14  0 
 4.485276e-15  -6.440182e-14  0 
 6.513778e-15  -6.440396e-14  0 
 8.559114e-15  -6.440873e-14  0 
 1.858007e-14  -4.919093e-14  0 
 1.840297e-14  -5.436934e-14  0 
 1.813521e-14  -5.919270e-14  0 
 1.317069e-14  -6.383478e-14  0 
 1.508048e-14  -6.331555e-14  0 
 1.661410e-14  -6.295163e-14  0 
 -1.962150e-14  -4.918190e-14  0 
 -1.746012e-14  -4.917755e-14  0 
 -1.542414e-14  -4.919323e-14  0 
 -1.954242e-14  -5.439613e-14  0 
 -1.755050e-14  -5.435390e-14  0 
 -1.556490e-14  -5.431124e-14  0 
 -1.942468e-14  -5.917807e-14  0 
 -1.763844e-14  -5.916473e-14  0 
 -1.571102e-14  -5.918503e-14  0 
 -1.149931e-14  -4.929191e-14  0 
 -9.521416e-15  -4.930121e-14  0 
 -7.541843e-15  -4.930804e-14  0 
 -1.157586e-14  -5.427572e-14  0 
 -9.573045e-15  -5.427745e-14  0 
 -7.570024e-15  -5.427933e-14  0 
 -1.165119e-14  -5.930755e-14  0 
 -9.624853e-15  -5.931749e-14  0 
 -7.599981e-15  -5.932508e-14  0 
 -3.559213e-15  -4.931665e-14  0 
 -1.574095e-15  -4.933045e-14  0 
 4.148017e-16  -4.932499e-14  0 
 -3.567918e-15  -5.429681e-14  0 
 -1.569929e-15  -5.429610e-14  0 
 4.280011e-16  -5.429400e-14  0 
 -3.582373e-15  -5.933410e-14  0 
 -1.565748e-15  -5.934726e-14  0 
 4.469904e-16  -5.934190e-14  0 
 4.402572e-15  -4.930606e-14  0 
 6.381545e-15  -4.929956e-14  0 
 8.358116e-15  -4.929057e-14  0 
 4.429702e-15  -5.427659e-14  0 
 6.432487e-15  -5.427404e-14  0 
 8.435063e-15  -5.427151e-14  0 
 4.458610e-15  -5.932194e-14  0 
 6.483611e-15  -5.931466e-14  0 
 8.510792e-15  -5.930502e-14  0 
 1.226107e-14  -4.917800e-14  0 
 1.426515e-14  -4.916717e-14  0 
 1.639426e-14  -4.917928e-14  0 
 1.242354e-14  -5.429092e-14  0 
 1.440896e-14  -5.432052e-14  0 
 1.640047e-14  -5.435692e-14  0 
 1.259174e-14  -5.916839e-14  0 
 1.454989e-14  -5.915288e-14  0 
 1.636828e-14  -5.917400e-14  0 
VECTORS displacement_ITER3 FLOAT
 3.390619e-15  3.958295e-15  0 
 1.300398e-15  5.853501e-15  0 
 1.747524e-15  3.992766e-15  0 
 8.078927e-16  4.010988e-15  0 
 -5.769105e-17  4.056251e-15  0 
 -9.947904e-16  4.042046e-15  0 
 -2.416553e-15  4.187633e-15  0 
 1.327141e-15  5.882793e-15  0 
 7.317241e-16  5.899007e-15  0 
 -4.523712e-18  5.941550e-15  0 
 -6.002763e-16  5.929238e-15  0 
 -7.859711e-16  6.074550e-15  0 
 2.692140e-15  4.758200e-15  0 
 2.298370e-15  5.222677e-15  0 
 1.928391e-15  5.695457e-15  0 
 2.946329e-15  4.036916e-15  0 
 2.612004e-15  4.189025e-15  0 
 2.319546e-15  4.242096e-15  0 
 1.474660e-15  3.998909e-15  0 
 1.235387e-15  4.006591e-15  0 
 1.015064e-15  4.011052e-15  0 
 5.910274e-16  3.931288e-15  0 
 3.773167e-16  3.940123e-15  0 
 1.638100e-16  3.965397e-15  0 
 -2.677876e-16  4.056852e-15  0 
 -4.884238e-16  4.053432e-15  0 
 -7.260464e-16  4.047005e-15  0 
 -1.563338e-15  4.332347e-15  0 
 -1.823879e-15  4.342078e-15  0 
 -2.090152e-15  4.243882e-15  0 
 1.631644e-15  4.583953e-15  0 
 1.529594e-15  5.074677e-15  0 
 1.431153e-15  5.524003e-15  0 
 1.351233e-15  5.931786e-15  0 
 1.290727e-15  6.083256e-15  0 
 1.175628e-15  6.134338e-15  0 
 7.755522e-16  4.559161e-15  0 
 7.755278e-16  5.069162e-15  0 
 7.727466e-16  5.500081e-15  0 
 1.214061e-15  5.889286e-15  0 
 1.070316e-15  5.896790e-15  0 
 9.082748e-16  5.900717e-15  0 
 -3.368015e-17  4.603280e-15  0 
 -3.683634e-17  5.110412e-15  0 
 -3.722802e-17  5.542832e-15  0 
 5.421216e-16  5.798610e-15  0 
 3.610981e-16  5.801205e-15  0 
 1.799624e-16  5.831247e-15  0 
 -8.860256e-16  4.627594e-15  0 
 -7.897693e-16  5.116632e-15  0 
 -6.971652e-16  5.566200e-15  0 
 -1.775991e-16  5.943764e-15  0 
 -3.387991e-16  5.940844e-15  0 
 -4.836411e-16  5.934567e-15  0 
 -1.851047e-15  4.792950e-15  0 
 -1.556761e-15  5.229278e-15  0 
 -1.284934e-15  5.728662e-15  0 
 -4.536904e-16  6.219853e-15  0 
 -5.964586e-16  6.229612e-15  0 
 -7.239581e-16  6.130904e-15  0 
 2.452952e-15  4.736518e-15  0 
 2.182158e-15  4.688414e-15  0 
 1.900196e-15  4.638234e-15  0 
 2.109762e-15  5.219387e-15  0 
 1.918458e-15  5.199571e-15  0 
 1.724998e-15  5.150458e-15  0 
 1.786469e-15  5.673830e-15  0 
 1.668470e-15  5.625235e-15  0 
 1.557423e-15  5.574977e-15  0 
 1.418856e-15  4.576490e-15  0 
 1.203976e-15  4.567784e-15  0 
 9.909316e-16  4.561536e-15  0 
 1.341325e-15  5.073763e-15  0 
 1.152759e-15  5.071729e-15  0 
 9.640971e-16  5.069893e-15  0 
 1.265967e-15  5.516822e-15  0 
 1.101659e-15  5.508524e-15  0 
 9.354995e-16  5.502304e-15  0 
 5.799221e-16  4.562192e-15  0 
 3.705574e-16  4.562291e-15  0 
 1.617943e-16  4.582693e-15  0 
 5.725332e-16  5.061635e-15  0 
 3.692128e-16  5.071120e-15  0 
 1.659534e-16  5.082879e-15  0 
 5.621960e-16  5.504926e-15  0 
 3.678491e-16  5.505153e-15  0 
 1.730662e-16  5.524763e-15  0 
 -2.477015e-16  4.605846e-15  0 
 -4.600377e-16  4.611841e-15  0 
 -6.740811e-16  4.620228e-15  0 
 -2.251294e-16  5.111663e-15  0 
 -4.135130e-16  5.113832e-15  0 
 -6.017945e-16  5.115908e-15  0 
 -2.007945e-16  5.545228e-15  0 
 -3.671058e-16  5.551178e-15  0 
 -5.316922e-16  5.559138e-15  0 
 -1.148691e-15  4.686391e-15  0 
 -1.410919e-15  4.733349e-15  0 
 -1.647630e-15  4.775170e-15  0 
 -9.847024e-16  5.178089e-15  0 
 -1.177524e-15  5.215476e-15  0 
 -1.368492e-15  5.227915e-15  0 
 -8.281498e-16  5.621411e-15  0 
 -9.582942e-16  5.668431e-15  0 
 -1.108411e-15  5.710763e-15  0 
VECTORS displacement_ITER4 FLOAT
 1.089009e-15  -1.755745e-15  0 
 -2.076000e-15  -2.471233e-15  0 
 -4.942394e-17  -1.056972e-15  0 
 9.401072e-18  -1.040090e-15  0 
 1.299569e-16  -1.039206e-15  0 
 1.876161e-16  -1.053506e-15  0 
 -9.391548e-16  -1.786173e-15  0 
 -4.235569e-16  -1.618661e-15  0 
 -5.718978e-17  -1.602318e-15  0 
 1.689610e-16  -1.596007e-15  0 
 5.321282e-16  -1.609544e-15  0 
 2.164466e-15  -2.491270e-15  0 
 1.305298e-16  -9.312515e-16  0 
 -4.743583e-16  -9.831065e-16  0 
 -1.094222e-15  -1.225307e-15  0 
 5.024147e-16  -1.619755e-15  0 
 1.744183e-16  -1.306051e-15  0 
 4.687680e-17  -1.003871e-15  0 
 -7.077193e-17  -1.052423e-15  0 
 -5.999248e-17  -1.044829e-15  0 
 -3.173979e-17  -1.040120e-15  0 
 1.758032e-17  -1.019011e-15  0 
 8.400060e-17  -9.961210e-16  0 
 1.402827e-16  -1.020627e-15  0 
 1.668668e-16  -1.039131e-15  0 
 1.937999e-16  -1.042893e-15  0 
 2.053642e-16  -1.049424e-15  0 
 1.101093e-16  -9.984974e-16  0 
 2.533255e-18  -1.308860e-15  0 
 -3.285046e-16  -1.640558e-15  0 
 -1.602744e-16  -1.097302e-15  0 
 -2.450551e-16  -1.221863e-15  0 
 -3.255200e-16  -1.383848e-15  0 
 -1.293298e-15  -2.314262e-15  0 
 -8.143828e-16  -1.953070e-15  0 
 -5.842408e-16  -1.601743e-15  0 
 -1.850604e-17  -1.116383e-15  0 
 -1.838761e-17  -1.226122e-15  0 
 -2.090603e-17  -1.400440e-15  0 
 -2.985527e-16  -1.613010e-15  0 
 -2.023862e-16  -1.605264e-15  0 
 -1.228504e-16  -1.600902e-15  0 
 1.491023e-16  -1.112897e-15  0 
 1.439418e-16  -1.222769e-15  0 
 1.414368e-16  -1.394260e-15  0 
 2.438141e-17  -1.572740e-15  0 
 4.233797e-17  -1.542650e-15  0 
 7.007456e-17  -1.571581e-15  0 
 2.899663e-16  -1.096147e-15  0 
 3.684009e-16  -1.218872e-15  0 
 4.424929e-16  -1.379894e-15  0 
 2.377697e-16  -1.594429e-15  0 
 3.175076e-16  -1.597794e-15  0 
 4.117814e-16  -1.604427e-15  0 
 8.144281e-18  -9.298619e-16  0 
 5.946058e-16  -9.847660e-16  0 
 1.195114e-15  -1.220260e-15  0 
 6.700578e-16  -1.588974e-15  0 
 8.811873e-16  -1.947595e-15  0 
 1.360248e-15  -2.325586e-15  0 
 2.374773e-17  -9.608529e-16  0 
 -9.195442e-17  -1.022601e-15  0 
 -1.505170e-16  -1.086431e-15  0 
 -4.180628e-16  -9.950915e-16  0 
 -3.597588e-16  -1.041513e-15  0 
 -3.010332e-16  -1.115734e-15  0 
 -8.537706e-16  -1.258524e-15  0 
 -6.112030e-16  -1.325585e-15  0 
 -4.387830e-16  -1.387715e-15  0 
 -1.220061e-16  -1.102005e-15  0 
 -8.752225e-17  -1.109350e-15  0 
 -5.188666e-17  -1.114710e-15  0 
 -1.879201e-16  -1.223174e-15  0 
 -1.312504e-16  -1.224234e-15  0 
 -7.481816e-17  -1.225341e-15  0 
 -2.513880e-16  -1.387844e-15  0 
 -1.748430e-16  -1.394304e-15  0 
 -9.949518e-17  -1.399221e-15  0 
 2.683735e-17  -1.121112e-15  0 
 6.703612e-17  -1.127378e-15  0 
 1.065575e-16  -1.117385e-15  0 
 2.246670e-17  -1.240344e-15  0 
 6.304592e-17  -1.240863e-15  0 
 1.034966e-16  -1.238714e-15  0 
 1.681498e-17  -1.401185e-15  0 
 5.909508e-17  -1.406566e-15  0 
 1.017503e-16  -1.396148e-15  0 
 1.825044e-16  -1.111543e-15  0 
 2.177172e-16  -1.106946e-15  0 
 2.520404e-16  -1.100385e-15  0 
 1.998312e-16  -1.221977e-15  0 
 2.557117e-16  -1.220959e-15  0 
 3.118225e-16  -1.220070e-15  0 
 2.189068e-16  -1.393326e-15  0 
 2.935768e-16  -1.389139e-15  0 
 3.691682e-16  -1.383435e-15  0 
 2.862147e-16  -1.091005e-15  0 
 2.307464e-16  -1.027547e-15  0 
 1.159193e-16  -9.618242e-16  0 
 4.235691e-16  -1.115567e-15  0 
 4.815873e-16  -1.042404e-15  0 
 5.389900e-16  -9.965490e-16  0 
 5.486263e-16  -1.389032e-15  0 
 7.156221e-16  -1.326780e-15  0 
 9.557217e-16  -1.255759e-15  0 
VECTORS displacement_ITER5 FLOAT
 -8.797813e-15  -2.309971e-14  0 
 -1.062594e-14  -3.338336e-14  0 
 -5.454194e-15  -2.262966e-14  0 
 -1.496980e-15  -2.261888e-14  0 
 2.526939e-15  -2.264570e-14  0 
 6.484492e-15  -2.265603e-14  0 
 9.660667e-15  -2.331317e-14  0 
 -5.766987e-15  -3.285491e-14  0 
 -1.564585e-15  -3.284757e-14  0 
 2.566738e-15  -3.287718e-14  0 
 6.771141e-15  -3.288416e-14  0 
 1.180428e-14  -3.360197e-14  0 
 -9.343898e-15  -2.504627e-14  0 
 -9.706388e-15  -2.753079e-14  0 
 -1.007285e-14  -3.016148e-14  0 
 -8.175685e-15  -2.303821e-14  0 
 -7.419067e-15  -2.286595e-14  0 
 -6.547326e-15  -2.262327e-14  0 
 -4.498054e-15  -2.262943e-14  0 
 -3.512608e-15  -2.262325e-14  0 
 -2.511468e-15  -2.261866e-14  0 
 -5.271680e-16  -2.252186e-14  0 
 5.293250e-16  -2.249477e-14  0 
 1.573301e-15  -2.254461e-14  0 
 3.537673e-15  -2.264587e-14  0 
 4.537938e-15  -2.264983e-14  0 
 5.524500e-15  -2.265540e-14  0 
 7.593769e-15  -2.268457e-14  0 
 8.464152e-15  -2.298689e-14  0 
 9.161169e-15  -2.322271e-14  0 
 -5.554086e-15  -2.511364e-14  0 
 -5.617915e-15  -2.766101e-14  0 
 -5.678234e-15  -3.023123e-14  0 
 -9.168841e-15  -3.331236e-14  0 
 -7.862593e-15  -3.312073e-14  0 
 -6.694248e-15  -3.286055e-14  0 
 -1.523201e-15  -2.512767e-14  0 
 -1.525262e-15  -2.766145e-14  0 
 -1.529635e-15  -3.024393e-14  0 
 -4.685595e-15  -3.285393e-14  0 
 -3.630595e-15  -3.284835e-14  0 
 -2.590574e-15  -3.284502e-14  0 
 2.544971e-15  -2.515247e-14  0 
 2.541329e-15  -2.768745e-14  0 
 2.539990e-15  -3.027009e-14  0 
 -4.935142e-16  -3.275042e-14  0 
 4.861286e-16  -3.272006e-14  0 
 1.478803e-15  -3.277487e-14  0 
 6.576140e-15  -2.514164e-14  0 
 6.635120e-15  -2.768774e-14  0 
 6.690556e-15  -3.026066e-14  0 
 3.597057e-15  -3.287505e-14  0 
 4.638514e-15  -3.287776e-14  0 
 5.692953e-15  -3.288276e-14  0 
 1.030152e-14  -2.506617e-14  0 
 1.072510e-14  -2.753274e-14  0 
 1.115377e-14  -3.018295e-14  0 
 7.679926e-15  -3.292600e-14  0 
 8.854034e-15  -3.324724e-14  0 
 1.022230e-14  -3.350269e-14  0 
 -8.429512e-15  -2.505759e-14  0 
 -7.512587e-15  -2.508455e-14  0 
 -6.539252e-15  -2.513113e-14  0 
 -8.684584e-15  -2.754050e-14  0 
 -7.662066e-15  -2.757201e-14  0 
 -6.639467e-15  -2.760474e-14  0 
 -8.934610e-15  -3.017466e-14  0 
 -7.802708e-15  -3.020487e-14  0 
 -6.732566e-15  -3.025250e-14  0 
 -4.541670e-15  -2.511586e-14  0 
 -3.534994e-15  -2.512195e-14  0 
 -2.527914e-15  -2.512661e-14  0 
 -4.594485e-15  -2.766135e-14  0 
 -3.571325e-15  -2.766082e-14  0 
 -2.548292e-15  -2.766084e-14  0 
 -4.645339e-15  -3.023321e-14  0 
 -3.607844e-15  -3.023882e-14  0 
 -2.570547e-15  -3.024328e-14  0 
 -5.067349e-16  -2.513547e-14  0 
 5.127129e-16  -2.514345e-14  0 
 1.531476e-15  -2.514474e-14  0 
 -5.086297e-16  -2.767871e-14  0 
 5.078985e-16  -2.768728e-14  0 
 1.524493e-15  -2.769207e-14  0 
 -5.122951e-16  -3.024961e-14  0 
 5.030383e-16  -3.025812e-14  0 
 1.519194e-15  -3.025948e-14  0 
 3.550014e-15  -2.515198e-14  0 
 4.557086e-15  -2.514836e-14  0 
 5.563985e-15  -2.514328e-14  0 
 3.564636e-15  -2.768718e-14  0 
 4.587952e-15  -2.768745e-14  0 
 5.611396e-15  -2.768815e-14  0 
 3.581131e-15  -3.027005e-14  0 
 4.619001e-15  -3.026664e-14  0 
 5.656849e-15  -3.026205e-14  0 
 7.565024e-15  -2.516840e-14  0 
 8.525973e-15  -2.511988e-14  0 
 9.416975e-15  -2.508330e-14  0 
 7.657090e-15  -2.762268e-14  0 
 8.680218e-15  -2.758095e-14  0 
 9.703022e-15  -2.754387e-14  0 
 7.742399e-15  -3.029127e-14  0 
 8.825404e-15  -3.024144e-14  0 
 9.984589e-15  -3.020174e-14  0 
VECTORS displacement_ITER6 FLOAT
 1.042818e-15  1.959933e-15  0 
 -2.467167e-16  2.773930e-15  0 
 2.252757e-16  2.042862e-15  0 
 -2.423902e-16  2.060784e-15  0 
 -6.307853e-16  2.070941e-15  0 
 -1.102593e-15  2.052981e-15  0 
 -1.944092e-15  1.986317e-15  0 
 -1.175952e-16  2.835873e-15  0 
 -3.074743e-16  2.848509e-15  0 
 -5.796485e-16  2.860653e-15  0 
 -7.668513e-16  2.848088e-15  0 
 -6.166539e-16  2.805400e-15  0 
 6.907282e-16  2.333328e-15  0 
 3.726726e-16  2.613906e-15  0 
 6.903645e-17  2.729874e-15  0 
 8.746938e-16  1.924667e-15  0 
 6.417719e-16  1.886792e-15  0 
 3.361796e-16  1.963562e-15  0 
 7.216654e-17  2.044807e-15  0 
 -4.899019e-17  2.053843e-15  0 
 -1.528868e-16  2.060664e-15  0 
 -3.655774e-16  2.151693e-15  0 
 -4.442356e-16  2.173130e-15  0 
 -5.226948e-16  2.155597e-15  0 
 -7.236950e-16  2.070259e-15  0 
 -8.291169e-16  2.063838e-15  0 
 -9.506376e-16  2.055217e-15  0 
 -1.241234e-15  1.980306e-15  0 
 -1.548833e-15  1.909353e-15  0 
 -1.782052e-15  1.950313e-15  0 
 1.191665e-16  2.328191e-15  0 
 4.578607e-17  2.538618e-15  0 
 -2.384364e-17  2.719333e-15  0 
 -2.518589e-16  2.737039e-15  0 
 -1.863309e-16  2.692872e-15  0 
 -5.079158e-17  2.760915e-15  0 
 -2.687341e-16  2.312985e-15  0 
 -2.683720e-16  2.537284e-15  0 
 -2.705425e-16  2.704711e-15  0 
 -1.311089e-16  2.838229e-15  0 
 -1.735917e-16  2.846146e-15  0 
 -2.327726e-16  2.851210e-15  0 
 -6.094242e-16  2.325180e-15  0 
 -6.117528e-16  2.549861e-15  0 
 -6.115607e-16  2.717924e-15  0 
 -3.482174e-16  2.931742e-15  0 
 -4.358965e-16  2.953719e-15  0 
 -5.235150e-16  2.936486e-15  0 
 -9.998878e-16  2.340056e-15  0 
 -9.267390e-16  2.552085e-15  0 
 -8.573570e-16  2.732267e-15  0 
 -6.513202e-16  2.862829e-15  0 
 -7.093683e-16  2.858188e-15  0 
 -7.518923e-16  2.850699e-15  0 
 -1.579948e-15  2.350733e-15  0 
 -1.254966e-15  2.631624e-15  0 
 -9.445545e-16  2.748973e-15  0 
 -8.095918e-16  2.780551e-15  0 
 -6.692711e-16  2.718882e-15  0 
 -6.040347e-16  2.766921e-15  0 
 5.463605e-16  2.343947e-15  0 
 3.952419e-16  2.360402e-15  0 
 2.629078e-16  2.342849e-15  0 
 2.928974e-16  2.608195e-15  0 
 2.114895e-16  2.590810e-15  0 
 1.288911e-16  2.574231e-15  0 
 5.028632e-17  2.740514e-15  0 
 3.475522e-17  2.756427e-15  0 
 -3.297151e-19  2.736976e-15  0 
 2.587977e-17  2.325433e-15  0 
 -7.237452e-17  2.318848e-15  0 
 -1.694170e-16  2.313936e-15  0 
 -3.255496e-17  2.538086e-15  0 
 -1.111177e-16  2.538156e-15  0 
 -1.897511e-16  2.537852e-15  0 
 -8.886289e-17  2.716571e-15  0 
 -1.500992e-16  2.710238e-15  0 
 -2.122449e-16  2.705304e-15  0 
 -3.576296e-16  2.315603e-15  0 
 -4.392715e-16  2.320095e-15  0 
 -5.199103e-16  2.320755e-15  0 
 -3.539603e-16  2.528199e-15  0 
 -4.399634e-16  2.526699e-15  0 
 -5.260088e-16  2.534697e-15  0 
 -3.531018e-16  2.709907e-15  0 
 -4.406649e-16  2.714514e-15  0 
 -5.293747e-16  2.715611e-15  0 
 -7.087933e-16  2.326288e-15  0 
 -8.064604e-16  2.330883e-15  0 
 -9.054154e-16  2.337182e-15  0 
 -6.905779e-16  2.550605e-15  0 
 -7.694170e-16  2.551235e-15  0 
 -8.481911e-16  2.551441e-15  0 
 -6.702093e-16  2.718683e-15  0 
 -7.321358e-16  2.723314e-15  0 
 -7.930761e-16  2.729382e-15  0 
 -1.146572e-15  2.359469e-15  0 
 -1.283661e-15  2.377639e-15  0 
 -1.435808e-15  2.361427e-15  0 
 -1.010176e-15  2.589976e-15  0 
 -1.093001e-15  2.608298e-15  0 
 -1.174857e-15  2.625886e-15  0 
 -8.779891e-16  2.755072e-15  0 
 -9.096456e-16  2.775600e-15  0 
 -9.247376e-16  2.759853e-15  0 
VECTORS displacement_ITER7 FLOAT
 -8.291735e-15  -1.784258e-14  0 
 -7.617816e-15  -2.588746e-14  0 
 -4.576359e-15  -1.848025e-14  0 
 -1.441402e-15  -1.846041e-14  0 
 1.772195e-15  -1.842238e-14  0 
 4.909439e-15  -1.843768e-14  0 
 8.860366e-15  -1.759417e-14  0 
 -4.909915e-15  -2.665465e-14  0 
 -1.525204e-15  -2.664301e-14  0 
 1.841576e-15  -2.661156e-14  0 
 5.229691e-15  -2.661889e-14  0 
 7.718391e-15  -2.565285e-14  0 
 -8.073075e-15  -2.050619e-14  0 
 -8.002174e-15  -2.257776e-14  0 
 -7.901188e-15  -2.458337e-14  0 
 -7.067520e-15  -1.795398e-14  0 
 -6.062061e-15  -1.820550e-14  0 
 -5.303519e-15  -1.844677e-14  0 
 -3.830300e-15  -1.847979e-14  0 
 -3.051973e-15  -1.847001e-14  0 
 -2.254621e-15  -1.846146e-14  0 
 -6.114121e-16  -1.842383e-14  0 
 1.637834e-16  -1.843284e-14  0 
 9.395879e-16  -1.840842e-14  0 
 2.583352e-15  -1.842316e-14  0 
 3.380464e-15  -1.843027e-14  0 
 4.160142e-15  -1.843837e-14  0 
 5.633615e-15  -1.833601e-14  0 
 6.427646e-15  -1.803459e-14  0 
 7.507568e-15  -1.772883e-14  0 
 -4.679354e-15  -2.044282e-14  0 
 -4.750043e-15  -2.247943e-14  0 
 -4.817780e-15  -2.453475e-14  0 
 -7.280273e-15  -2.601441e-14  0 
 -6.687076e-15  -2.630428e-14  0 
 -5.821863e-15  -2.658939e-14  0 
 -1.472301e-15  -2.046015e-14  0 
 -1.476680e-15  -2.247891e-14  0 
 -1.483356e-15  -2.455278e-14  0 
 -4.027953e-15  -2.665451e-14  0 
 -3.175720e-15  -2.664647e-14  0 
 -2.341933e-15  -2.664036e-14  0 
 1.797782e-15  -2.042292e-14  0 
 1.800367e-15  -2.244421e-14  0 
 1.805175e-15  -2.451874e-14  0 
 -7.140626e-16  -2.662655e-14  0 
 1.584287e-16  -2.664382e-14  0 
 1.031250e-15  -2.661475e-14  0 
 5.008322e-15  -2.040517e-14  0 
 5.076376e-15  -2.244434e-14  0 
 5.141484e-15  -2.450041e-14  0 
 2.661759e-15  -2.660869e-14  0 
 3.497169e-15  -2.661341e-14  0 
 4.349444e-15  -2.661985e-14  0 
 8.507933e-15  -2.047217e-14  0 
 8.332212e-15  -2.257750e-14  0 
 8.128878e-15  -2.455253e-14  0 
 6.143790e-15  -2.648816e-14  0 
 6.980492e-15  -2.614444e-14  0 
 7.502792e-15  -2.580212e-14  0 
 -7.172295e-15  -2.048410e-14  0 
 -6.289495e-15  -2.044091e-14  0 
 -5.455416e-15  -2.041479e-14  0 
 -7.185827e-15  -2.257046e-14  0 
 -6.373022e-15  -2.254662e-14  0 
 -5.562119e-15  -2.251363e-14  0 
 -7.187565e-15  -2.455909e-14  0 
 -6.456642e-15  -2.451393e-14  0 
 -5.669553e-15  -2.449236e-14  0 
 -3.874089e-15  -2.044608e-14  0 
 -3.073875e-15  -2.045319e-14  0 
 -2.272119e-15  -2.045869e-14  0 
 -3.931710e-15  -2.247880e-14  0 
 -3.113421e-15  -2.247839e-14  0 
 -2.295062e-15  -2.247862e-14  0 
 -3.987668e-15  -2.453844e-14  0 
 -3.153424e-15  -2.454575e-14  0 
 -2.320285e-15  -2.455159e-14  0 
 -6.589605e-16  -2.045071e-14  0 
 1.631249e-16  -2.043268e-14  0 
 9.848659e-16  -2.043184e-14  0 
 -6.574251e-16  -2.247931e-14  0 
 1.615176e-16  -2.247697e-14  0 
 9.806194e-16  -2.246176e-14  0 
 -6.592856e-16  -2.454282e-14  0 
 1.597979e-16  -2.452522e-14  0 
 9.795743e-16  -2.452543e-14  0 
 2.598658e-15  -2.042108e-14  0 
 3.401074e-15  -2.041565e-14  0 
 4.202143e-15  -2.040864e-14  0 
 2.619392e-15  -2.244356e-14  0 
 3.438412e-15  -2.244307e-14  0 
 4.257368e-15  -2.244345e-14  0 
 2.642372e-15  -2.451722e-14  0 
 3.476195e-15  -2.451149e-14  0 
 4.310946e-15  -2.450429e-14  0 
 5.790484e-15  -2.037163e-14  0 
 6.646970e-15  -2.039711e-14  0 
 7.567262e-15  -2.044599e-14  0 
 5.889502e-15  -2.249218e-14  0 
 6.701611e-15  -2.253763e-14  0 
 7.515230e-15  -2.256849e-14  0 
 5.989787e-15  -2.445261e-14  0 
 6.756228e-15  -2.447358e-14  0 
 7.452748e-15  -2.452436e-14  0 
VECTORS displacement_ITER8 FLOAT
 -1.097727e-15  -2.459270e-15  0 
 -1.489787e-15  -3.757049e-15  0 
 -6.033312e-16  -2.768387e-15  0 
 -2.297157e-16  -2.740917e-15  0 
 2.134019e-16  -2.745786e-15  0 
 5.851736e-16  -2.771454e-15  0 
 1.076914e-15  -2.461846e-15  0 
 -9.570879e-16  -4.074127e-15  0 
 -3.101471e-16  -4.053187e-15  0 
 2.779019e-16  -4.056429e-15  0 
 9.255339e-16  -4.075598e-15  0 
 1.458831e-15  -3.757826e-15  0 
 -1.167807e-15  -3.029084e-15  0 
 -1.304986e-15  -3.337587e-15  0 
 -1.434914e-15  -3.681017e-15  0 
 -7.967806e-16  -2.515043e-15  0 
 -6.036817e-16  -2.654614e-15  0 
 -5.671869e-16  -2.825650e-15  0 
 -5.502458e-16  -2.765478e-15  0 
 -4.625859e-16  -2.753220e-15  0 
 -3.540919e-16  -2.742862e-15  0 
 -7.397278e-17  -2.729310e-15  0 
 -8.472616e-18  -2.753878e-15  0 
 5.872096e-17  -2.735718e-15  0 
 3.347902e-16  -2.747795e-15  0 
 4.419678e-16  -2.757270e-15  0 
 5.299425e-16  -2.768639e-15  0 
 5.503611e-16  -2.825977e-15  0 
 5.839657e-16  -2.660834e-15  0 
 7.738250e-16  -2.519426e-15  0 
 -7.126537e-16  -3.002910e-15  0 
 -7.888207e-16  -3.319996e-15  0 
 -8.609722e-16  -3.661721e-15  0 