# vtk DataFile Version 3.1
this is an vtk file created by FEMAC
ASCII
DATASET UNSTRUCTURED_GRID
POINTS 105 FLOAT
0.000000 0.000000 0.000000
0.500000 0.000000 0.000000
0.000000 0.200000 0.000000
0.500000 0.200000 0.000000
0.000000 0.400000 0.000000
0.500000 0.400000 0.000000
0.000000 0.600000 0.000000
0.500000 0.600000 0.000000
0.000000 0.800000 0.000000
0.500000 0.800000 0.000000
0.000000 1.000000 0.000000
0.500000 1.000000 0.000000
0.125000 0.000000 0.000000
0.250000 0.000000 0.000000
0.375000 0.000000 0.000000
0.125000 0.200000 0.000000
0.250000 0.200000 0.000000
0.375000 0.200000 0.000000
0.000000 0.050000 0.000000
0.000000 0.100000 0.000000
0.000000 0.150000 0.000000
0.500000 0.050000 0.000000
0.500000 0.100000 0.000000
0.500000 0.150000 0.000000
0.125000 0.400000 0.000000
0.250000 0.400000 0.000000
0.375000 0.400000 0.000000
0.000000 0.250000 0.000000
0.000000 0.300000 0.000000
0.000000 0.350000 0.000000
0.500000 0.250000 0.000000
0.500000 0.300000 0.000000
0.500000 0.350000 0.000000
0.125000 0.600000 0.000000
0.250000 0.600000 0.000000
0.375000 0.600000 0.000000
0.000000 0.450000 0.000000
0.000000 0.500000 0.000000
0.000000 0.550000 0.000000
0.500000 0.450000 0.000000
0.500000 0.500000 0.000000
0.500000 0.550000 0.000000
0.125000 0.800000 0.000000
0.250000 0.800000 0.000000
0.375000 0.800000 0.000000
0.000000 0.650000 0.000000
0.000000 0.700000 0.000000
0.000000 0.750000 0.000000
0.500000 0.650000 0.000000
0.500000 0.700000 0.000000
0.500000 0.750000 0.000000
0.125000 1.000000 0.000000
0.250000 1.000000 0.000000
0.375000 1.000000 0.000000
0.000000 0.850000 0.000000
0.000000 0.900000 0.000000
0.000000 0.950000 0.000000
0.500000 0.850000 0.000000
0.500000 0.900000 0.000000
0.500000 0.950000 0.000000
0.125000 0.050000 0.000000
0.125000 0.100000 0.000000
0.125000 0.150000 0.000000
0.250000 0.050000 0.000000
0.250000 0.100000 0.000000
0.250000 0.150000 0.000000
0.375000 0.050000 0.000000
0.375000 0.100000 0.000000
0.375000 0.150000 0.000000
0.125000 0.250000 0.000000
0.125000 0.300000 0.000000
0.125000 0.350000 0.000000
0.250000 0.250000 0.000000
0.250000 0.300000 0.000000
0.250000 0.350000 0.000000
0.375000 0.250000 0.000000
0.375000 0.300000 0.000000
0.375000 0.350000 0.000000
0.125000 0.450000 0.000000
0.125000 0.500000 0.000000
0.125000 0.550000 0.000000
0.250000 0.450000 0.000000
0.250000 0.500000 0.000000
0.250000 0.550000 0.000000
0.375000 0.450000 0.000000
0.375000 0.500000 0.000000
0.375000 0.550000 0.000000
0.125000 0.650000 0.000000
0.125000 0.700000 0.000000
0.125000 0.750000 0.000000
0.250000 0.650000 0.000000
0.250000 0.700000 0.000000
0.250000 0.750000 0.000000
0.375000 0.650000 0.000000
0.375000 0.700000 0.000000
0.375000 0.750000 0.000000
0.125000 0.850000 0.000000
0.125000 0.900000 0.000000
0.125000 0.950000 0.000000
0.250000 0.850000 0.000000
0.250000 0.900000 0.000000
0.250000 0.950000 0.000000
0.375000 0.850000 0.000000
0.375000 0.900000 0.000000
0.375000 0.950000 0.000000
CELLS 80 400 
4 0 12 60 18
4 18 60 61 19
4 19 61 62 20
4 20 62 15  2
4 12 13 63 60
4 60 63 64 61
4 61 64 65 62
4 62 65 16 15
4 13 14 66 63
4 63 66 67 64
4 64 67 68 65
4 65 68 17 16
4 14  1 21 66
4 66 21 22 67
4 67 22 23 68
4 68 23  3 17
4 2 15 69 27
4 27 69 70 28
4 28 70 71 29
4 29 71 24  4
4 15 16 72 69
4 69 72 73 70
4 70 73 74 71
4 71 74 25 24
4 16 17 75 72
4 72 75 76 73
4 73 76 77 74
4 74 77 26 25
4 17  3 30 75
4 75 30 31 76
4 76 31 32 77
4 77 32  5 26
4 4 24 78 36
4 36 78 79 37
4 37 79 80 38
4 38 80 33  6
4 24 25 81 78
4 78 81 82 79
4 79 82 83 80
4 80 83 34 33
4 25 26 84 81
4 81 84 85 82
4 82 85 86 83
4 83 86 35 34
4 26  5 39 84
4 84 39 40 85
4 85 40 41 86
4 86 41  7 35
4 6 33 87 45
4 45 87 88 46
4 46 88 89 47
4 47 89 42  8
4 33 34 90 87
4 87 90 91 88
4 88 91 92 89
4 89 92 43 42
4 34 35 93 90
4 90 93 94 91
4 91 94 95 92
4 92 95 44 43
4 35  7 48 93
4 93 48 49 94
4 94 49 50 95
4 95 50  9 44
4 8 42 96 54
4 54 96 97 55
4 55 97 98 56
4 56 98 51 10
4 42 43 99 96
4 96  99 100  97
4 97 100 101  98
4 98 101  52  51
4 43  44 102  99
4 99 102 103 100
4 100 103 104 101
4 101 104  53  52
4 44   9  57 102
4 102  57  58 103
4 103  58  59 104
4 104  59  11  53
CELL_TYPES 80
9 9 9 9 9 9 9 9 9 9 9 9 9 9 9 9 9 9 9 9 9 9 9 9 9 9 9 9 9 9 9 9 9 9 9 9 9 9 9 9 9 9 9 9 9 9 9 9 9 9 9 9 9 9 9 9 9 9 9 9 9 9 9 9 9 9 9 9 9 9 9 9 9 9 9 9 9 9 9 9 
POINT_DATA 105
VECTORS displacement_ITER1 FLOAT
 0  0  0 
 -8.002969e-14  -1.691747e-13  0 
 0  2.041759e-15  0 
 -4.671518e-15  -1.766633e-13  0 
 0  2.027083e-13  0 
 6.508024e-14  1.827197e-13  0 
 0  2.075847e-13  0 
 9.421429e-14  1.529513e-13  0 
 0  3.723069e-13  0 
 2.548790e-14  6.042947e-13  0 
 0  3.740489e-13  0 
 -1.045790e-13  6.020144e-13  0 
 -3.232607e-14  -1.478897e-14  0 
 -5.944797e-14  -5.643532e-14  0 
 -7.459477e-14  -1.131149e-13  0 
 1.141291e-14  -1.224592e-14  0 
 1.885519e-14  -5.252271e-14  0 
 1.761784e-14  -1.127722e-13  0 
 0  7.601379e-17  0 
 0  3.869438e-16  0 
 0  1.048429e-15  0 
 -5.551175e-14  -1.712902e-13  0 
 -3.614940e-14  -1.749128e-13  0 
 -2.045216e-14  -1.760724e-13  0 
 1.613718e-14  2.009424e-13  0 
 3.043888e-14  1.937369e-13  0 
 4.722448e-14  1.803295e-13  0 
 0  4.894501e-14  0 
 0  9.817146e-14  0 
 0  1.496954e-13  0 
 -4.946617e-14  -1.013282e-13  0 
 2.000938e-14  -4.778075e-14  0 
 6.029347e-14  6.421361e-14  0 
 2.223362e-14  2.059179e-13  0 
 4.407411e-14  2.015908e-13  0 
 7.161261e-14  1.938905e-13  0 
 0  2.040143e-13  0 
 0  2.052618e-13  0 
 0  2.064682e-13  0 
 6.609341e-14  1.754822e-13  0 
 7.036408e-14  1.687326e-13  0 
 7.934369e-14  1.613945e-13  0 
 1.669868e-14  3.895562e-13  0 
 2.984268e-14  4.394178e-13  0 
 3.528608e-14  5.159655e-13  0 
 0  2.517961e-13  0 
 0  2.935700e-13  0 
 0  3.342782e-13  0 
 1.227879e-13  5.230364e-13  0 
 4.247846e-14  5.287893e-13  0 
 8.869984e-14  5.939686e-13  0 
 -3.702499e-14  3.917291e-13  0 
 -6.975398e-14  4.425810e-13  0 
 -9.246362e-14  5.174136e-13  0 
 0  3.731185e-13  0 
 0  3.736832e-13  0 
 0  3.739706e-13  0 
 -6.508125e-15  6.058146e-13  0 
 -3.612159e-14  6.062895e-13  0 
 -6.824815e-14  6.037578e-13  0 
 -2.097194e-14  -1.467792e-14  0 
 -1.009146e-14  -1.423001e-14  0 
 5.749193e-16  -1.338629e-14  0 
 -3.935071e-14  -5.614534e-14  0 
 -2.027808e-14  -5.531153e-14  0 
 -1.060614e-15  -5.398746e-14  0 
 -5.277000e-14  -1.133411e-13  0 
 -3.066377e-14  -1.138351e-13  0 
 -7.594616e-15  -1.140671e-13  0 
 1.540587e-14  3.809400e-14  0 
 1.720005e-14  9.073563e-14  0 
 1.777272e-14  1.446626e-13  0 
 2.700731e-14  8.558321e-15  0 
 3.243066e-14  6.845555e-14  0 
 3.170997e-14  1.318302e-13  0 
 3.267254e-14  -3.788065e-14  0 
 3.418408e-14  4.687817e-14  0 
 4.409729e-14  1.140533e-13  0 
 1.769990e-14  2.023419e-13  0 
 1.936432e-14  2.035492e-13  0 
 2.076523e-14  2.046534e-13  0 
 3.486794e-14  1.953602e-13  0 
 3.862861e-14  1.978098e-13  0 
 4.205083e-14  2.002446e-13  0 
 5.018855e-14  1.835979e-13  0 
 5.512862e-14  1.859747e-13  0 
 6.211420e-14  1.889629e-13  0 
 2.536736e-14  2.534907e-13  0 
 2.599711e-14  3.015808e-13  0 
 2.328146e-14  3.458107e-13  0 
 5.168756e-14  2.647611e-13  0 
 5.116771e-14  3.171337e-13  0 
 4.497713e-14  3.800474e-13  0 
 7.478870e-14  2.554933e-13  0 
 6.591581e-14  3.727239e-13  0 
 3.613881e-14  4.461523e-13  0 
 3.318950e-15  3.905600e-13  0 
 -9.916554e-15  3.912876e-13  0 
 -2.328253e-14  3.916454e-13  0 
 4.686375e-15  4.407014e-13  0 
 -1.979066e-14  4.417188e-13  0 
 -4.430649e-14  4.423608e-13  0 
 2.441777e-15  5.171124e-13  0 
 -2.956853e-14  5.174188e-13  0 
 -6.100979e-14  5.174338e-13  0 
VECTORS displacement_ITER2 FLOAT
 0  0  0 
 5.008623e-14  4.349891e-14  0 
 0  1.318445e-16  0 
 1.193496e-14  4.345694e-14  0 
 0  7.514991e-16  0 
 -1.023355e-14  2.246300e-14  0 
 0  3.001738e-15  0 
 -8.970592e-14  1.591708e-13  0 
 0  7.982799e-14  0 
 -2.060021e-14  -3.268264e-14  0 
 0  8.055373e-14  0 
 8.072425e-14  -3.297342e-14  0 
 1.313170e-14  3.099647e-15  0 
 2.679709e-14  1.395691e-14  0 
 3.748693e-14  3.021483e-14  0 
 2.659219e-15  3.260727e-15  0 
 4.857833e-15  1.310575e-14  0 
 9.389976e-15  2.812114e-14  0 
 0  -3.037922e-17  0 
 0  -4.426404e-17  0 
 0  6.171095e-17  0 
 3.616341e-14  4.956876e-14  0 
 3.309908e-14  5.803385e-14  0 
 3.153919e-14  5.447230e-14  0 
 -7.927484e-15  5.145710e-15  0 
 -1.412701e-14  2.286202e-14  0 
 -3.297309e-14  3.898683e-14  0 
 0  2.922221e-16  0 
 0  1.305869e-15  0 
 0  4.950513e-16  0 
 3.532824e-14  -6.663853e-14  0 
 -1.004284e-13  -8.248917e-14  0 
 -2.069193e-13  -1.659054e-13  0 
 -2.157259e-14  6.212011e-15  0 
 -4.560403e-14  1.479284e-14  0 
 -9.175579e-14  4.851400e-14  0 
 0  9.679341e-16  0 
 0  1.586181e-15  0 
 0  2.323021e-15  0 
 -4.660862e-14  5.253624e-14  0 
 -6.829784e-14  8.991832e-14  0 
 -8.216856e-14  1.279327e-13  0 
 -3.047139e-15  7.326821e-14  0 
 -6.616904e-15  5.241999e-14  0 
 -1.008969e-14  1.956034e-14  0 
 0  2.357370e-14  0 
 0  4.409800e-14  0 
 0  6.261630e-14  0 
 -3.980331e-13  -1.619786e-13  0 
 -1.549317e-13  2.880876e-14  0 
 -2.577646e-13  -4.919692e-14  0 
 1.926268e-14  7.407871e-14  0 
 4.043722e-14  5.256375e-14  0 
 6.158990e-14  1.418906e-14  0 
 0  8.022788e-14  0 
 0  8.048131e-14  0 
 0  8.055234e-14  0 
 1.859474e-14  -3.826107e-14  0 
 3.845431e-14  -4.262279e-14  0 
 5.650409e-14  -3.732920e-14  0 
 1.049906e-14  3.214833e-15  0 
 7.811412e-15  3.370036e-15  0 
 5.122301e-15  3.290573e-15  0 
 2.066810e-14  1.358199e-14  0 
 1.543465e-14  1.304672e-14  0 
 1.063677e-14  1.314202e-14  0 
 3.287451e-14  3.007831e-14  0 
 2.436510e-14  2.937331e-14  0 
 1.442420e-14  2.816142e-14  0 
 9.081605e-16  5.045273e-15  0 
 -2.158052e-15  4.034490e-15  0 
 -4.350153e-15  6.379332e-15  0 
 3.957580e-16  1.278082e-14  0 
 -2.653468e-15  2.188744e-14  0 
 -1.124510e-14  1.567755e-14  0 
 -3.188003e-14  5.879985e-15  0 
 -2.741444e-14  -1.482867e-14  0 
 -1.182028e-15  3.625990e-14  0 
 -1.217935e-14  5.163475e-15  0 
 -1.630059e-14  5.402629e-15  0 
 -1.907570e-14  5.862309e-15  0 
 -2.351989e-14  2.192266e-14  0 
 -3.124968e-14  1.833820e-14  0 
 -4.005713e-14  1.494244e-14  0 
 -2.904163e-14  3.936333e-14  0 
 -3.885714e-14  4.605834e-14  0 
 -5.853282e-14  5.138568e-14  0 
 -1.863394e-14  2.630798e-14  0 
 -1.763835e-14  4.218175e-14  0 
 -1.112971e-14  5.894181e-14  0 
 -5.291863e-14  2.344124e-14  0 
 -3.543700e-14  4.490834e-14  0 
 -2.834740e-14  4.901817e-14  0 
 -5.874810e-14  7.475876e-14  0 
 -9.422326e-14  2.302856e-14  0 
 -3.109491e-14  3.541856e-14  0 
 2.516645e-15  7.347450e-14  0 
 8.209742e-15  7.367960e-14  0 
 1.383103e-14  7.395077e-14  0 
 4.969825e-15  5.280337e-14  0 
 1.621258e-14  5.304674e-14  0 
 2.803464e-14  5.277934e-14  0 
 5.384960e-15  1.817040e-14  0 
 2.544802e-14  1.622138e-14  0 
 4.475939e-14  1.471358e-14  0 
VECTORS displacement_ITER3 FLOAT
 0  0  0 
 2.127451e-14  7.768341e-14  0 
 0  -8.408667e-16  0 
 -1.068105e-14  7.768716e-14  0 
 0  -9.410411e-14  0 
 -3.041126e-14  -1.112395e-13  0 
 0  -9.710345e-14  0 
 -4.343648e-14  -1.731706e-14  0 
 0  -1.991405e-13  0 
 -3.597606e-14  -3.352021e-13  0 
 0  -2.000932e-13  0 
 4.700374e-14  -3.424848e-13  0 
 1.066050e-14  6.203188e-15  0 
 1.917467e-14  2.309759e-14  0 
 2.464499e-14  4.840485e-14  0 
 -7.443954e-15  5.242450e-15  0 
 -1.348196e-14  2.155178e-14  0 
 -1.814850e-14  4.896461e-14  0 
 0  -4.480088e-18  0 
 0  -1.036008e-16  0 
 0  -3.865718e-16  0 
 1.713793e-14  7.381696e-14  0 
 2.986131e-15  7.066349e-14  0 
 -1.067600e-14  7.750839e-14  0 
 9.050560e-16  -9.223524e-14  0 
 4.460839e-15  -8.502967e-14  0 
 1.858170e-15  -6.022510e-14  0 
 0  -2.056379e-14  0 
 0  -4.337402e-14  0 
 0  -6.783488e-14  0 
 5.876755e-14  1.977595e-14  0 
 -3.273554e-14  1.598466e-14  0 
 3.963323e-14  5.091839e-14  0 
 -6.228501e-15  -9.441024e-14  0 
 -8.954070e-15  -8.843525e-14  0 
 -1.574021e-14  -9.283795e-14  0 
 0  -9.474412e-14  0 
 0  -9.556088e-14  0 
 0  -9.640978e-14  0 
 2.349387e-15  -6.790215e-14  0 
 1.462687e-14  -6.510782e-14  0 
 -4.954595e-15  -6.132775e-14  0 
 -1.458475e-14  -2.094655e-13  0 
 -2.769804e-14  -2.389903e-13  0 
 -3.747712e-14  -2.885907e-13  0 
 0  -1.255118e-13  0 
 0  -1.521024e-13  0 
 0  -1.772250e-13  0 
 5.429439e-14  -2.880144e-13  0 
 -3.019960e-14  -2.841244e-13  0 
 2.699997e-14  -2.602895e-13  0 
 1.745637e-14  -2.106954e-13  0 
 3.241881e-14  -2.409565e-13  0 
 4.270218e-14  -2.866417e-13  0 
 0  -1.996284e-13  0 
 0  -1.999111e-13  0 
 0  -2.000669e-13  0 
 -2.178948e-14  -3.460557e-13  0 
 -2.699536e-16  -3.419314e-13  0 
 2.525294e-14  -3.413776e-13  0 
 5.926716e-15  6.079274e-15  0 
 1.447658e-15  5.835910e-15  0 
 -2.964275e-15  5.567503e-15  0 
 1.110854e-14  2.324336e-14  0 
 2.750388e-15  2.318810e-14  0 
 -5.548498e-15  2.256687e-14  0 
 1.249909e-14  4.841899e-14  0 
 3.914138e-15  4.851769e-14  0 
 -5.010331e-15  4.829274e-14  0 
 -6.426710e-15  -1.634902e-14  0 
 -3.124002e-15  -3.876590e-14  0 
 -2.282126e-15  -6.452194e-14  0 
 -9.528770e-15  -1.645595e-15  0 
 -1.151549e-14  -2.883451e-14  0 
 1.139691e-15  -5.370327e-14  0 
 -2.002816e-14  2.147154e-14  0 
 9.249963e-15  -1.143353e-14  0 
 -1.493797e-14  -5.503078e-14  0 
 -4.492875e-16  -9.308796e-14  0 
 -2.471181e-15  -9.328458e-14  0 
 -3.982969e-15  -9.348631e-14  0 
 -1.772781e-15  -8.440448e-14  0 
 -5.141005e-15  -8.653316e-14  0 
 -8.543294e-15  -8.881511e-14  0 
 -7.408332e-16  -7.165952e-14  0 
 -6.089961e-15  -7.601009e-14  0 
 -8.828841e-15  -8.063500e-14  0 
 -1.203132e-14  -1.265489e-13  0 
 -1.346677e-14  -1.569688e-13  0 
 -1.606936e-14  -1.836013e-13  0 
 -1.643717e-14  -1.311740e-13  0 
 -3.235795e-14  -1.661087e-13  0 
 -2.888016e-14  -2.045535e-13  0 
 -4.214859e-14  -1.187301e-13  0 
 -9.486129e-15  -1.922036e-13  0 
 -3.271703e-14  -2.512642e-13  0 
 -6.698550e-15  -2.099263e-13  0 
 1.255935e-15  -2.103838e-13  0 
 9.221163e-15  -2.106096e-13  0 
 -1.242790e-14  -2.402709e-13  0 
 2.307895e-15  -2.406973e-13  0 
 1.729825e-14  -2.409410e-13  0 
 -1.656159e-14  -2.865221e-13  0 
 3.315207e-15  -2.869085e-13  0 
 2.217587e-14  -2.867516e-13  0 
VECTORS displacement_ITER4 FLOAT
 0  0  0 
 -1.416607e-14  -3.810674e-15  0 
 0  -2.859746e-16  0 
 -5.046272e-15  9.320869e-16  0 
 0  -1.464297e-14  0 
 -2.022816e-14  -1.173617e-13  0 
 0  -1.499285e-14  0 
 4.496426e-14  -9.270909e-14  0 
 0  -3.979798e-14  0 
 1.407386e-14  3.095341e-14  0 
 0  -3.999838e-14  0 
 -3.894048e-14  3.003349e-14  0 
 -2.306393e-15  4.765276e-16  0 
 -5.457388e-15  1.438293e-15  0 
 -1.043591e-14  5.701266e-16  0 
 -3.394743e-15  3.174393e-17  0 
 -5.960809e-15  9.701833e-16  0 
 -7.182545e-15  1.189144e-15  0 
 0  -3.263590e-17  0 
 0  -7.725866e-17  0 
 0  -1.794312e-16  0 
 -1.498547e-14  -1.937742e-15  0 
 -1.125440e-14  -1.218589e-15  0 
 -9.720808e-15  -4.000982e-15  0 
 -2.688110e-15  -1.981013e-14  0 
 -5.768388e-15  -3.526251e-14  0 
 -1.154023e-14  -6.234537e-14  0 
 0  -4.756957e-15  0 
 0  -9.103456e-15  0 
 0  -1.186109e-14  0 
 -5.690509e-14  6.747513e-14  0 
 5.057915e-14  2.944818e-14  0 
 4.916363e-14  4.068778e-14  0 
 1.424390e-14  -2.010757e-14  0 
 2.922851e-14  -3.691296e-14  0 
 4.417792e-14  -6.484784e-14  0 
 0  -1.465507e-14  0 
 0  -1.473764e-14  0 
 0  -1.484100e-14  0 
 1.262048e-14  -1.198141e-13  0 
 2.075659e-14  -1.055547e-13  0 
 4.290682e-14  -9.148098e-14  0 
 4.410241e-15  -3.530015e-14  0 
 8.579455e-15  -2.173336e-14  0 
 1.251261e-14  4.975345e-16  0 
 0  -2.252429e-14  0 
 0  -2.966407e-14  0 
 0  -3.530193e-14  0 
 2.107870e-13  8.859542e-14  0 
 6.403093e-14  -4.925720e-14  0 
 1.228100e-13  -2.014571e-14  0 
 -1.050585e-14  -3.540666e-14  0 
 -2.124938e-14  -2.105165e-14  0 
 -3.062311e-14  1.999324e-15  0 
 0  -3.989753e-14  0 
 0  -3.996631e-14  0 
 0  -3.998471e-14  0 
 -4.046573e-15  3.580026e-14  0 
 -1.260278e-14  3.400366e-14  0 
 -2.547079e-14  3.084910e-14  0 
 -2.602282e-15  4.721494e-16  0 
 -2.892692e-15  3.722894e-16  0 
 -3.089853e-15  2.438676e-16  0 
 -5.644166e-15  1.380640e-15  0 
 -5.453993e-15  1.302024e-15  0 
 -5.719827e-15  1.013307e-15  0 
 -8.884723e-15  5.592345e-16  0 
 -8.585451e-15  8.815714e-16  0 
 -7.293901e-15  1.941363e-15  0 
 -4.881762e-15  -6.434357e-15  0 
 -5.162653e-15  -1.079529e-14  0 
 -4.114542e-15  -1.667319e-14  0 
 -1.094472e-14  -9.917272e-15  0 
 -1.055983e-14  -2.373466e-14  0 
 -9.736459e-15  -2.564509e-14  0 
 7.570321e-15  -6.656826e-15  0 
 -1.662450e-14  -8.924371e-15  0 
 -2.394073e-14  -5.371836e-14  0 
 1.397709e-15  -1.991988e-14  0 
 5.741046e-15  -1.992069e-14  0 
 9.867620e-15  -1.998009e-14  0 
 2.653893e-15  -3.550630e-14  0 
 1.071303e-14  -3.600810e-14  0 
 2.052607e-14  -3.652314e-14  0 
 2.702095e-15  -6.298140e-14  0 
 2.022725e-14  -6.514054e-14  0 
 3.034062e-14  -6.631797e-14  0 
 1.407799e-14  -2.657839e-14  0 
 1.363083e-14  -2.999826e-14  0 
 9.778036e-15  -3.329982e-14  0 
 3.422172e-14  -3.099113e-14  0 
 2.540513e-14  -3.286541e-14  0 
 2.046519e-14  -2.740528e-14  0 
 2.252605e-14  -6.873857e-14  0 
 4.517031e-14  -2.419083e-14  0 
 2.035449e-14  -1.368187e-14  0 
 7.260605e-16  -3.530324e-14  0 
 -3.029415e-15  -3.530918e-14  0 
 -6.746715e-15  -3.538399e-14  0 
 1.185412e-15  -2.162156e-14  0 
 -5.950617e-15  -2.153650e-14  0 
 -1.356039e-14  -2.120013e-14  0 
 2.017592e-15  7.803421e-16  0 
 -1.023975e-14  1.854473e-15  0 
 -2.061510e-14  2.081557e-15  0 
VECTORS displacement_ITER5 FLOAT
 0  0  0 
 -2.255867e-13  -4.693529e-13  0 
 0  5.402608e-15  0 
 -1.076899e-14  -4.881792e-13  0 
 0  5.250999e-13  0 
 1.881443e-13  5.226137e-13  0 
 0  5.370243e-13  0 
 2.405439e-13  4.447522e-13  0 
 0  9.257945e-13  0 
 5.763700e-14  1.498406e-12  0 
 0  9.299414e-13  0 
 -2.728272e-13  1.501268e-12  0 
 -8.909160e-14  -4.076905e-14  0 
 -1.643252e-13  -1.560592e-13  0 
 -2.068948e-13  -3.134619e-13  0 
 3.194000e-14  -3.398715e-14  0 
 5.330060e-14  -1.451985e-13  0 
 5.100823e-14  -3.136193e-13  0 
 0  2.287581e-16  0 
 0  1.058493e-15  0 
 0  2.778689e-15  0 
 -1.538556e-13  -4.775462e-13  0 
 -1.003518e-13  -4.886555e-13  0 
 -5.347405e-14  -4.905582e-13  0 
 5.068874e-14  5.241534e-13  0 
 9.629076e-14  5.168434e-13  0 
 1.464436e-13  5.001452e-13  0 
 0  1.280507e-13  0 
 0  2.561399e-13  0 
 0  3.889873e-13  0 
 -1.127980e-13  -2.913071e-13  0 
 8.536751e-14  -1.053573e-13  0 
 2.162068e-13  1.193118e-13  0 
 5.458194e-14  5.367179e-13  0 
 1.094550e-13  5.366869e-13  0 
 1.814271e-13  5.325699e-13  0 
 0  5.283556e-13  0 
 0  5.314483e-13  0 
 0  5.343878e-13  0 
 1.863560e-13  5.062437e-13  0 
 2.032650e-13  4.897880e-13  0 
 2.113081e-13  4.692807e-13  0 
 3.830310e-14  9.683696e-13  0 
 6.833273e-14  1.091236e-12  0 
 8.026349e-14  1.281528e-12  0 
 0  6.420725e-13  0 
 0  7.410118e-13  0 
 0  8.370190e-13  0 
 2.831535e-13  1.376046e-12  0 
 1.868786e-13  1.366432e-12  0 
 1.849679e-13  1.491250e-12  0 
 -9.403237e-14  9.733643e-13  0 
 -1.781556e-13  1.098168e-12  0 
 -2.402964e-13  1.285443e-12  0 
 0  9.277318e-13  0 
 0  9.290668e-13  0 
 0  9.297565e-13  0 
 -2.102654e-14  1.505047e-12  0 
 -1.027251e-13  1.505802e-12  0 
 -1.851403e-13  1.503952e-12  0 
 -5.772659e-14  -4.049702e-14  0 
 -2.756382e-14  -3.929888e-14  0 
 1.978095e-15  -3.699573e-14  0 
 -1.084360e-13  -1.552228e-13  0 
 -5.562156e-14  -1.529100e-13  0 
 -2.150198e-15  -1.493448e-13  0 
 -1.466042e-13  -3.139230e-13  0 
 -8.400351e-14  -3.153413e-13  0 
 -1.958052e-14  -3.162548e-13  0 
 4.583426e-14  9.947323e-14  0 
 5.247768e-14  2.373302e-13  0 
 5.483669e-14  3.785500e-13  0 
 7.993768e-14  1.880451e-14  0 
 9.937672e-14  1.826961e-13  0 
 1.006283e-13  3.501069e-13  0 
 9.840155e-14  -1.027440e-13  0 
 1.043939e-13  1.209294e-13  0 
 1.306819e-13  3.239381e-13  0 
 5.188255e-14  5.278646e-13  0 
 5.322499e-14  5.309286e-13  0 
 5.391697e-14  5.336137e-13  0 
 1.017625e-13  5.208584e-13  0 
 1.062907e-13  5.273085e-13  0 
 1.095048e-13  5.336756e-13  0 
 1.470760e-13  5.089810e-13  0 
 1.507444e-13  5.138569e-13  0 
 1.636337e-13  5.200001e-13  0 
 6.127994e-14  6.495215e-13  0 
 6.105459e-14  7.625026e-13  0 
 5.485202e-14  8.656737e-13  0 
 1.229483e-13  6.829981e-13  0 
 1.245496e-13  8.055074e-13  0 
 1.036179e-13  9.542641e-13  0 
 1.946764e-13  6.762567e-13  0 
 1.446393e-13  9.509354e-13  0 
 9.162657e-14  1.117369e-12  0 
 5.290197e-15  9.706164e-13  0 
 -2.737132e-14  9.722974e-13  0 
 -6.028688e-14  9.731441e-13  0 
 6.202417e-15  1.094497e-12  0 
 -5.454390e-14  1.096682e-12  0 
 -1.153438e-13  1.097866e-12  0 
 -1.776765e-15  1.283163e-12  0 
 -8.067439e-14  1.284439e-12  0 
 -1.596658e-13  1.285024e-12  0 
VECTORS displacement_ITER6 FLOAT
 0  0  0 
 -3.795901e-14  -1.557017e-13  0 
 0  2.910998e-15  0 
 1.499522e-16  -1.627621e-13  0 
 0  2.580956e-13  0 
 1.023122e-13  2.731198e-13  0 
 0  2.680741e-13  0 
 4.733625e-15  4.360575e-13  0 
 0  6.306528e-13  0 
 -7.484223e-15  7.776940e-13  0 
 0  6.344271e-13  0 
 -3.089824e-14  7.793633e-13  0 
 -2.465369e-14  -1.456011e-14  0 
 -4.170712e-14  -5.212404e-14  0 
 -4.832095e-14  -1.016021e-13  0 
 1.652595e-14  -1.100094e-14  0 
 2.701365e-14  -4.858305e-14  0 
 2.949824e-14  -1.043486e-13  0 
 0  7.180251e-17  0 
 0  4.646774e-16  0 
 0  1.508445e-15  0 
 -2.857764e-14  -1.484529e-13  0 
 -7.940096e-15  -1.388390e-13  0 
 1.236145e-14  -1.440271e-13  0 
 1.304945e-14  2.618665e-13  0 
 2.716438e-14  2.782560e-13  0 
 2.813614e-14  2.826378e-13  0 
 0  6.317394e-14  0 
 0  1.275390e-13  0 
 0  1.911970e-13  0 
 -4.363020e-15  -2.462947e-13  0 
 -1.017609e-13  -2.069060e-13  0 
 -2.281170e-13  -2.391436e-13  0 
 1.748480e-15  2.700951e-13  0 
 -1.935194e-15  2.759259e-13  0 
 -3.503429e-14  3.194536e-13  0 
 0  2.600556e-13  0 
 0  2.626720e-13  0 
 0  2.654629e-13  0 
 3.720216e-14  3.045517e-13  0 
 8.453868e-15  3.512542e-13  0 
 -8.077035e-15  4.008842e-13  0 
 1.767151e-14  6.450858e-13  0 
 2.945832e-14  6.839583e-13  0 
 2.883414e-14  7.436455e-13  0 
 0  3.641020e-13  0 
 0  4.575506e-13  0 
 0  5.468487e-13  0 
 -5.311707e-13  4.342086e-13  0 
 -1.806725e-13  7.845745e-13  0 
 -3.431739e-13  7.313948e-13  0 
 -2.443701e-14  6.497168e-13  0 
 -3.926018e-14  6.889548e-13  0 
 -3.894814e-14  7.343378e-13  0 
 0  6.325058e-13  0 
 0  6.337259e-13  0 
 0  6.342843e-13  0 
 1.368841e-14  7.774707e-13  0 
 3.699640e-15  7.745047e-13  0 
 -1.278646e-14  7.770916e-13  0 
 -1.388162e-14  -1.423269e-14  0 
 -3.768466e-15  -1.337907e-14  0 
 6.069727e-15  -1.242066e-14  0 
 -2.492669e-14  -5.239524e-14  0 
 -8.065156e-15  -5.231330e-14  0 
 9.831672e-15  -5.042857e-14  0 
 -2.623261e-14  -1.019924e-13  0 
 -1.022711e-14  -1.034671e-13  0 
 3.996422e-15  -1.059690e-13  0 
 2.087811e-14  5.662460e-14  0 
 1.971904e-14  1.215119e-13  0 
 1.900310e-14  1.934786e-13  0 
 3.407524e-14  2.913346e-14  0 
 4.161414e-14  1.212140e-13  0 
 2.934820e-14  1.892462e-13  0 
 -9.872668e-15  -4.290943e-14  0 
 1.864614e-15  2.851470e-14  0 
 7.057556e-14  2.030397e-13  0 
 8.985379e-15  2.636998e-13  0 
 5.212166e-15  2.655299e-13  0 
 3.220446e-15  2.676997e-13  0 
 1.933065e-14  2.785298e-13  0 
 1.281644e-14  2.763215e-13  0 
 3.583112e-15  2.744402e-13  0 
 3.769553e-14  2.892129e-13  0 
 2.724199e-14  3.035061e-13  0 
 6.085685e-15  3.162239e-13  0 
 1.013360e-14  3.710967e-13  0 
 1.040866e-14  4.659215e-13  0 
 1.596853e-14  5.573843e-13  0 
 -7.989630e-15  3.799948e-13  0 
 2.086120e-14  4.928715e-13  0 
 1.787385e-14  5.918115e-13  0 
 2.729224e-14  4.546934e-13  0 
 -6.735538e-14  5.349090e-13  0 
 2.368362e-15  6.661238e-13  0 
 7.248211e-15  6.469101e-13  0 
 -2.833740e-15  6.484236e-13  0 
 -1.322806e-14  6.494143e-13  0 
 1.115185e-14  6.866255e-13  0 
 -6.175382e-15  6.883959e-13  0 
 -2.234605e-14  6.888965e-13  0 
 6.957468e-15  7.415740e-13  0 
 -7.011834e-15  7.379866e-13  0 
 -2.187805e-14  7.353142e-13  0 
VECTORS displacement_ITER7 FLOAT
 0  0  0 
 -3.527344e-14  -6.541962e-14  0 
 0  1.904153e-15  0 
 -2.914830e-14  -7.597722e-14  0 
 0  1.448511e-13  0 
 5.742562e-14  1.274612e-13  0 
 0  1.487069e-13  0 
 -5.714051e-15  3.791591e-13  0 
 0  2.627649e-13  0 
 -6.058578e-14  2.307579e-13  0 
 0  2.641729e-13  0 
 7.881793e-15  2.180039e-13  0 
 -1.777601e-14  -8.134679e-15  0 
 -3.029361e-14  -2.949314e-14  0 
 -3.213466e-14  -5.048407e-14  0 
 5.035597e-15  -5.508943e-15  0 
 5.748509e-15  -2.676051e-14  0 
 -3.028375e-15  -5.317502e-14  0 
 0  1.011061e-16  0 
 0  4.139280e-16  0 
 0  1.070628e-15  0 
 -2.001041e-14  -6.896504e-14  0 
 -1.959655e-14  -7.239705e-14  0 
 -2.705906e-14  -6.552728e-14  0 
 2.376467e-14  1.519562e-13  0 
 5.003065e-14  1.768065e-13  0 
 5.457185e-14  2.209206e-13  0 
 0  4.070258e-14  0 
 0  7.737557e-14  0 
 0  1.116383e-13  0 
 5.994790e-14  -1.843997e-13  0 
 -1.415732e-13  -1.359612e-13  0 
 -6.479580e-14  5.422790e-14  0 
 1.171907e-15  1.558120e-13  0 
 5.722648e-15  1.736897e-13  0 
 -7.817332e-15  1.980402e-13  0 
 0  1.458671e-13  0 
 0  1.468291e-13  0 
 0  1.477547e-13  0 
 7.015930e-14  2.229876e-13  0 
 6.991002e-14  2.556856e-13  0 
 4.094206e-14  2.870353e-13  0 
 -8.592024e-15  2.617568e-13  0 
 -2.010424e-14  2.575930e-13  0 
 -3.608822e-14  2.422579e-13  0 
 0  1.772346e-13  0 
 0  2.056347e-13  0 
 0  2.336413e-13  0 
 -8.301920e-14  1.079955e-13  0 
 -1.656117e-13  3.149453e-13  0 
 -4.304649e-14  3.581427e-13  0 
 -3.771537e-15  2.633361e-13  0 
 -4.194046e-15  2.580774e-13  0 
 -5.070990e-16  2.428799e-13  0 
 0  2.633884e-13  0 
 0  2.639374e-13  0 
 0  2.641192e-13  0 
 -3.937841e-14  2.049197e-13  0 
 -2.368942e-14  2.094461e-13  0 
 -7.177647e-15  2.151316e-13  0 
 -1.176973e-14  -8.047272e-15  0 
 -6.150833e-15  -7.565227e-15  0 
 -7.350212e-16  -6.732813e-15  0 
 -2.114969e-14  -2.912924e-14  0 
 -1.309490e-14  -2.842123e-14  0 
 -4.193082e-15  -2.728257e-14  0 
 -2.730635e-14  -5.126871e-14  0 
 -1.965098e-14  -5.310853e-14  0 
 -1.176374e-14  -5.582588e-14  0 
 1.308981e-14  3.699814e-14  0 
 2.064570e-14  7.786817e-14  0 
 2.270805e-14  1.171787e-13  0 
 2.507720e-14  2.821033e-14  0 
 2.944885e-14  8.244817e-14  0 
 4.487158e-14  1.304224e-13  0 
 -2.374730e-14  -7.700519e-15  0 
 4.487153e-14  4.748143e-14  0 
 5.270172e-14  1.222544e-13  0 
 1.798879e-14  1.524915e-13  0 
 1.142371e-14  1.540134e-13  0 
 6.715410e-15  1.554787e-13  0 
 3.429613e-14  1.793860e-13  0 
 2.415736e-14  1.754969e-13  0 
 1.211967e-14  1.714606e-13  0 
 5.721869e-14  2.066794e-13  0 
 4.367842e-14  2.108937e-13  0 
 2.630403e-14  2.142764e-13  0 
 -4.030238e-15  1.811524e-13  0 
 -5.817915e-15  2.070683e-13  0 
 -9.486780e-15  2.352443e-13  0 
 -6.802144e-15  1.903888e-13  0 
 -2.376361e-14  2.162397e-13  0 
 -1.863539e-14  2.350312e-13  0 
 -2.324468e-14  2.532208e-13  0 
 -6.895707e-15  2.303456e-13  0 
 -4.988078e-14  2.344769e-13  0 
 -7.618145e-15  2.624978e-13  0 
 -6.135818e-15  2.628234e-13  0 
 -4.838368e-15  2.632156e-13  0 
 -1.616220e-14  2.573321e-13  0 
 -1.278151e-14  2.582137e-13  0 
 -8.436584e-15  2.581485e-13  0 
 -2.936930e-14  2.465910e-13  0 
 -1.799223e-14  2.442395e-13  0 
 -8.583425e-15  2.432617e-13  0 
VECTORS displacement_ITER8 FLOAT
 0  0  0 
 -1.137162e-13  -1.891849e-13  0 
 0  2.581408e-15  0 
 -3.685661e-14  -1.904730e-13  0 
 0  2.541025e-13  0 
 5.488439e-14  -4.971491e-14  0 
 0  2.621783e-13  0 
 1.798961e-13  1.692849e-13  0 
 0  5.428794e-13  0 
 1.086562e-14  9.309114e-13  0 
 0  5.461228e-13  0 
 -1.789374e-13  9.140414e-13  0 
 -4.295923e-14  -1.612750e-14  0 
 -7.982812e-14  -6.055848e-14  0 
 -1.053814e-13  -1.224673e-13  0 
 4.379942e-15  -1.322109e-14  0 
 4.006089e-15  -5.718747e-14  0 
 -6.030847e-15  -1.206476e-13  0 
 0  6.202456e-17  0 
 0  4.569297e-16  0 
 0  1.328121e-15  0 
 -9.384748e-14  -1.855909e-13  0 
 -6.992216e-14  -1.820242e-13  0 
 -5.415209e-14  -1.868558e-13  0 
 1.697497e-14  2.415104e-13  0 
 3.508880e-14  2.061325e-13  0 
 3.822021e-14  1.451462e-13  0 
 0  6.100956e-14  0 
 0  1.216506e-13  0 
 0  1.869547e-13  0 
 -1.411504e-13  -6.343957e-14  0 
 2.011237e-14  -8.885693e-14  0 
 7.260586e-14  1.133776e-13  0 
 5.780070e-14  2.494654e-13  0 
 1.163829e-13  2.072792e-13  0 
 1.580217e-13  1.420849e-13  0 
 0  2.561350e-13  0 
 0  2.581557e-13  0 
 0  2.602016e-13  0 
 1.300329e-13  2.442484e-15  0 
 1.482678e-13  5.345778e-14  0 
 1.860170e-13  1.082144e-13  0 
 2.643754e-14  5.723464e-13  0 
 4.516516e-14  6.570288e-13  0 
 4.830516e-14  7.849926e-13  0 
 0  3.321599e-13  0 
 0  4.010587e-13  0 
 0  4.718955e-13  0 
 3.856565e-13  7.437074e-13  0 
 1.445671e-14  6.536595e-13  0 
 2.026090e-13  8.471226e-13  0 
 -6.577278e-14  5.767958e-13  0 
 -1.224918e-13  6.644486e-13  0 
 -1.568968e-13  7.854260e-13  0 
 0  5.444061e-13  0 
 0  5.454783e-13  0 
 0  5.460006e-13  0 
 -3.645517e-14  9.310054e-13  0 
 -6.783740e-14  9.277859e-13  0 
 -1.166736e-13  9.186465e-13  0 
 -3.067266e-14  -1.591912e-14  0 
 -1.903089e-14  -1.538971e-14  0 
 -7.483801e-15  -1.449557e-14  0 
 -5.867104e-14  -6.051311e-14  0 
 -3.779612e-14  -5.988014e-14  0 
 -1.714803e-14  -5.865276e-14  0 
 -7.919458e-14  -1.227772e-13  0 
 -5.678585e-14  -1.234076e-13  0 
 -3.275237e-14  -1.225613e-13  0 
 7.472731e-15  4.563890e-14  0 
 1.116620e-14  1.101992e-13  0 
 1.474850e-14  1.730767e-13  0 
 8.218278e-15  6.090139e-15  0 
 1.542311e-14  6.317528e-14  0 
 2.322827e-14  1.426114e-13  0 
 1.805895e-14  -5.432525e-14  0 
 4.653868e-15  4.119438e-14  0 
 1.193352e-14  5.369675e-14  0 
 2.662116e-14  2.429826e-13  0 
 3.639404e-14  2.453140e-13  0 
 4.699185e-14  2.476965e-13  0 
 5.272895e-14  2.085104e-13  0 
 7.224753e-14  2.065985e-13  0 
 9.364589e-14  2.047480e-13  0 
 8.192359e-14  1.381000e-13  0 
 1.212951e-13  1.406200e-13  0 
 1.418226e-13  1.450108e-13  0 
 5.985942e-14  3.256210e-13  0 
 5.825892e-14  4.086685e-13  0 
 4.543468e-14  4.898054e-13  0 
 1.267618e-13  3.247217e-13  0 
 1.027893e-13  4.237466e-13  0 
 8.570093e-14  5.419527e-13  0 
 1.135870e-13  2.711341e-13  0 
 1.437564e-13  5.029397e-13  0 
 5.841247e-14  6.438222e-13  0 
 3.526662e-15  5.744011e-13  0 
 -1.906383e-14  5.758885e-13  0 
 -4.196530e-14  5.766116e-13  0 
 2.473886e-15  6.593684e-13  0 
 -3.855174e-14  6.617696e-13  0 