# vtk DataFile Version 3.1
this is an vtk file created by FEMAC
ASCII
DATASET UNSTRUCTURED_GRID
POINTS 105 FLOAT
4.500000 0.000000 0.000000
5.000000 0.000000 0.000000
4.500000 0.200000 0.000000
4.500000 0.400000 0.000000
4.500000 0.600000 0.000000
4.500000 0.800000 0.000000
4.500000 1.000000 0.000000
5.000000 0.200000 0.000000
5.000000 0.400000 0.000000
5.000000 0.600000 0.000000
5.000000 0.800000 0.000000
5.000000 1.000000 0.000000
4.625000 0.000000 0.000000
4.750000 0.000000 0.000000
4.875000 0.000000 0.000000
4.500000 0.050000 0.000000
4.500000 0.100000 0.000000
4.500000 0.150000 0.000000
4.500000 0.250000 0.000000
4.500000 0.300000 0.000000
4.500000 0.350000 0.000000
4.500000 0.450000 0.000000
4.500000 0.500000 0.000000
4.500000 0.550000 0.000000
4.500000 0.650000 0.000000
4.500000 0.700000 0.000000
4.500000 0.750000 0.000000
4.500000 0.850000 0.000000
4.500000 0.900000 0.000000
4.500000 0.950000 0.000000
4.625000 0.200000 0.000000
4.750000 0.200000 0.000000
4.875000 0.200000 0.000000
5.000000 0.050000 0.000000
5.000000 0.100000 0.000000
5.000000 0.150000 0.000000
4.625000 0.400000 0.000000
4.750000 0.400000 0.000000
4.875000 0.400000 0.000000
5.000000 0.250000 0.000000
5.000000 0.300000 0.000000
5.000000 0.350000 0.000000
4.625000 0.600000 0.000000
4.750000 0.600000 0.000000
4.875000 0.600000 0.000000
5.000000 0.450000 0.000000
5.000000 0.500000 0.000000
5.000000 0.550000 0.000000
4.625000 0.800000 0.000000
4.750000 0.800000 0.000000
4.875000 0.800000 0.000000
5.000000 0.650000 0.000000
5.000000 0.700000 0.000000
5.000000 0.750000 0.000000
4.625000 1.000000 0.000000
4.750000 1.000000 0.000000
4.875000 1.000000 0.000000
5.000000 0.850000 0.000000
5.000000 0.900000 0.000000
5.000000 0.950000 0.000000
4.625000 0.050000 0.000000
4.625000 0.100000 0.000000
4.625000 0.150000 0.000000
4.750000 0.050000 0.000000
4.750000 0.100000 0.000000
4.750000 0.150000 0.000000
4.875000 0.050000 0.000000
4.875000 0.100000 0.000000
4.875000 0.150000 0.000000
4.625000 0.250000 0.000000
4.625000 0.300000 0.000000
4.625000 0.350000 0.000000
4.750000 0.250000 0.000000
4.750000 0.300000 0.000000
4.750000 0.350000 0.000000
4.875000 0.250000 0.000000
4.875000 0.300000 0.000000
4.875000 0.350000 0.000000
4.625000 0.450000 0.000000
4.625000 0.500000 0.000000
4.625000 0.550000 0.000000
4.750000 0.450000 0.000000
4.750000 0.500000 0.000000
4.750000 0.550000 0.000000
4.875000 0.450000 0.000000
4.875000 0.500000 0.000000
4.875000 0.550000 0.000000
4.625000 0.650000 0.000000
4.625000 0.700000 0.000000
4.625000 0.750000 0.000000
4.750000 0.650000 0.000000
4.750000 0.700000 0.000000
4.750000 0.750000 0.000000
4.875000 0.650000 0.000000
4.875000 0.700000 0.000000
4.875000 0.750000 0.000000
4.625000 0.850000 0.000000
4.625000 0.900000 0.000000
4.625000 0.950000 0.000000
4.750000 0.850000 0.000000
4.750000 0.900000 0.000000
4.750000 0.950000 0.000000
4.875000 0.850000 0.000000
4.875000 0.900000 0.000000
4.875000 0.950000 0.000000
CELLS 80 400 
4 0 12 60 15
4 15 60 61 16
4 16 61 62 17
4 17 62 30  2
4 12 13 63 60
4 60 63 64 61
4 61 64 65 62
4 62 65 31 30
4 13 14 66 63
4 63 66 67 64
4 64 67 68 65
4 65 68 32 31
4 14  1 33 66
4 66 33 34 67
4 67 34 35 68
4 68 35  7 32
4 2 30 69 18
4 18 69 70 19
4 19 70 71 20
4 20 71 36  3
4 30 31 72 69
4 69 72 73 70
4 70 73 74 71
4 71 74 37 36
4 31 32 75 72
4 72 75 76 73
4 73 76 77 74
4 74 77 38 37
4 32  7 39 75
4 75 39 40 76
4 76 40 41 77
4 77 41  8 38
4 3 36 78 21
4 21 78 79 22
4 22 79 80 23
4 23 80 42  4
4 36 37 81 78
4 78 81 82 79
4 79 82 83 80
4 80 83 43 42
4 37 38 84 81
4 81 84 85 82
4 82 85 86 83
4 83 86 44 43
4 38  8 45 84
4 84 45 46 85
4 85 46 47 86
4 86 47  9 44
4 4 42 87 24
4 24 87 88 25
4 25 88 89 26
4 26 89 48  5
4 42 43 90 87
4 87 90 91 88
4 88 91 92 89
4 89 92 49 48
4 43 44 93 90
4 90 93 94 91
4 91 94 95 92
4 92 95 50 49
4 44  9 51 93
4 93 51 52 94
4 94 52 53 95
4 95 53 10 50
4 5 48 96 27
4 27 96 97 28
4 28 97 98 29
4 29 98 54  6
4 48 49 99 96
4 96  99 100  97
4 97 100 101  98
4 98 101  55  54
4 49  50 102  99
4 99 102 103 100
4 100 103 104 101
4 101 104  56  55
4 50  10  57 102
4 102  57  58 103
4 103  58  59 104
4 104  59  11  56
CELL_TYPES 80
9 9 9 9 9 9 9 9 9 9 9 9 9 9 9 9 9 9 9 9 9 9 9 9 9 9 9 9 9 9 9 9 9 9 9 9 9 9 9 9 9 9 9 9 9 9 9 9 9 9 9 9 9 9 9 9 9 9 9 9 9 9 9 9 9 9 9 9 9 9 9 9 9 9 9 9 9 9 9 9 
POINT_DATA 105
VECTORS displacement_ITER1 FLOAT
 2.280536e-14  8.082363e-14  0 
 1.814503e-14  9.770055e-14  0 
 1.380867e-14  8.110998e-14  0 
 6.816379e-15  8.115722e-14  0 
 -1.420911e-16  8.112560e-14  0 
 -7.125806e-15  8.108566e-14  0 
 -1.602862e-14  8.070048e-14  0 
 1.340893e-14  9.807675e-14  0 
 6.789255e-15  9.812600e-14  0 
 -1.632077e-16  9.809411e-14  0 
 -6.791252e-15  9.805215e-14  0 
 -1.162107e-14  9.757721e-14  0 
 2.148920e-14  8.564941e-14  0 
 2.039463e-14  9.013084e-14  0 
 1.933512e-14  9.409794e-14  0 
 2.082497e-14  8.079018e-14  0 
 1.869161e-14  8.073673e-14  0 
 1.636946e-14  8.077314e-14  0 
 1.202939e-14  8.112892e-14  0 
 1.027901e-14  8.114538e-14  0 
 8.544053e-15  8.115495e-14  0 
 5.162462e-15  8.106512e-14  0 
 3.389674e-15  8.102157e-14  0 
 1.594128e-15  8.104221e-14  0 
 -1.873699e-15  8.112469e-14  0 
 -3.608578e-15  8.111712e-14  0 
 -5.355145e-15  8.110287e-14  0 
 -9.576351e-15  8.073210e-14  0 
 -1.185812e-14  8.065908e-14  0 
 -1.399884e-14  8.068041e-14  0 
 1.371043e-14  8.550188e-14  0 
 1.359597e-14  8.977676e-14  0 
 1.348817e-14  9.397738e-14  0 
 1.674725e-14  9.767421e-14  0 
 1.546455e-14  9.763991e-14  0 
 1.433832e-14  9.770497e-14  0 
 6.802726e-15  8.547832e-14  0 
 6.810548e-15  8.975742e-14  0 
 6.814597e-15  9.395602e-14  0 
 1.178311e-14  9.809631e-14  0 
 1.013220e-14  9.811315e-14  0 
 8.465995e-15  9.812349e-14  0 
 -1.420899e-16  8.544857e-14  0 
 -1.603829e-16  8.972452e-14  0 
 -1.749057e-16  9.392613e-14  0 
 4.965543e-15  9.802854e-14  0 
 3.260417e-15  9.798274e-14  0 
 1.578073e-15  9.800547e-14  0 
 -7.044187e-15  8.546600e-14  0 
 -6.945702e-15  8.974065e-14  0 
 -6.853858e-15  9.394137e-14  0 
 -1.835973e-15  9.809296e-14  0 
 -3.502195e-15  9.808462e-14  0 
 -5.156852e-15  9.806999e-14  0 
 -1.478022e-14  8.559571e-14  0 
 -1.374423e-14  9.007329e-14  0 
 -1.274337e-14  9.404412e-14  0 
 -7.830873e-15  9.766357e-14  0 
 -8.996892e-15  9.756210e-14  0 
 -1.027291e-14  9.756430e-14  0 
 1.957949e-14  8.566147e-14  0 
 1.761940e-14  8.568204e-14  0 
 1.562680e-14  8.567141e-14  0 
 1.870207e-14  9.011964e-14  0 
 1.700476e-14  9.006892e-14  0 
 1.530331e-14  8.994289e-14  0 
 1.786036e-14  9.410926e-14  0 
 1.642142e-14  9.413066e-14  0 
 1.499808e-14  9.412723e-14  0 
 1.197692e-14  8.549316e-14  0 
 1.024854e-14  8.548570e-14  0 
 8.525310e-15  8.548084e-14  0 
 1.190033e-14  8.977162e-14  0 
 1.020391e-14  8.976483e-14  0 
 8.507168e-15  8.975959e-14  0 
 1.182773e-14  9.396969e-14  0 
 1.016026e-14  9.396322e-14  0 
 8.487263e-15  9.395854e-14  0 
 5.069744e-15  8.545328e-14  0 
 3.335654e-15  8.544783e-14  0 
 1.596441e-15  8.544606e-14  0 
 5.068134e-15  8.972946e-14  0 
 3.325070e-15  8.971387e-14  0 
 1.582010e-15  8.971247e-14  0 
 5.062963e-15  9.393547e-14  0 
 3.314476e-15  9.393127e-14  0 
 1.571136e-15  9.392819e-14  0 
 -1.863908e-15  8.544977e-14  0 
 -3.586238e-15  8.545304e-14  0 
 -5.312819e-15  8.545882e-14  0 
 -1.856977e-15  8.972614e-14  0 
 -3.553692e-15  8.973031e-14  0 
 -5.250083e-15  8.973603e-14  0 
 -1.848280e-15  9.392734e-14  0 
 -3.522129e-15  9.393042e-14  0 
 -5.191334e-15  9.393521e-14  0 
 -8.939972e-15  8.561231e-14  0 
 -1.091353e-14  8.562164e-14  0 
 -1.286807e-14  8.560507e-14  0 
 -8.653023e-15  8.989428e-14  0 
 -1.035442e-14  9.001244e-14  0 
 -1.205172e-14  9.006202e-14  0 
 -8.384248e-15  9.406805e-14  0 
 -9.826689e-15  9.407011e-14  0 
 -1.127102e-14  9.405269e-14  0 
VECTORS displacement_ITER2 FLOAT
 -3.291186e-14  -1.403077e-13  0 
 -3.218173e-14  -1.698904e-13  0 
 -2.065805e-14  -1.410169e-13  0 
 -8.799322e-15  -1.410112e-13  0 
 3.113800e-15  -1.410090e-13  0 
 1.496766e-14  -1.410208e-13  0 
 2.699398e-14  -1.403913e-13  0 
 -2.090000e-14  -1.709247e-13  0 
 -8.849510e-15  -1.709251e-13  0 
 3.155084e-15  -1.709231e-13  0 
 1.521065e-14  -1.709289e-13  0 
 2.671913e-14  -1.699729e-13  0 
 -3.284180e-14  -1.483712e-13  0 
 -3.270387e-14  -1.559694e-13  0 
 -3.247523e-14  -1.633161e-13  0 
 -2.959298e-14  -1.403468e-13  0 
 -2.639970e-14  -1.404662e-13  0 
 -2.335616e-14  -1.406873e-13  0 
 -1.771475e-14  -1.410150e-13  0 
 -1.475261e-14  -1.410123e-13  0 
 -1.177965e-14  -1.410108e-13  0 
 -5.832204e-15  -1.411137e-13  0 
 -2.876893e-15  -1.411161e-13  0 
 1.014190e-16  -1.410808e-13  0 
 6.091507e-15  -1.410095e-13  0 
 9.063044e-15  -1.410125e-13  0 
 1.202445e-14  -1.410171e-13  0 
 1.760221e-14  -1.407805e-13  0 
 2.057081e-14  -1.405728e-13  0 
 2.370912e-14  -1.404395e-13  0 
 -2.072331e-14  -1.484272e-13  0 
 -2.078396e-14  -1.558972e-13  0 
 -2.084303e-14  -1.633839e-13  0 
 -2.972559e-14  -1.699720e-13  0 
 -2.705627e-14  -1.701893e-13  0 
 -2.417084e-14  -1.705164e-13  0 
 -8.818314e-15  -1.484438e-13  0 
 -8.818739e-15  -1.558991e-13  0 
 -8.821664e-15  -1.634030e-13  0 
 -1.786710e-14  -1.709239e-13  0 
 -1.485115e-14  -1.709223e-13  0 
 -1.184587e-14  -1.709222e-13  0 
 3.128900e-15  -1.484414e-13  0 
 3.128763e-15  -1.558969e-13  0 
 3.131121e-15  -1.634007e-13  0 
 -5.855951e-15  -1.710957e-13  0 
 -2.813130e-15  -1.711228e-13  0 
 2.066717e-16  -1.710630e-13  0 
 1.503079e-14  -1.484253e-13  0 
 1.509409e-14  -1.558925e-13  0 
 1.515579e-14  -1.633822e-13  0 
 6.154097e-15  -1.709212e-13  0 
 9.160856e-15  -1.709227e-13  0 
 1.217760e-14  -1.709261e-13  0 
 2.703583e-14  -1.483711e-13  0 
 2.701416e-14  -1.559287e-13  0 
 2.690148e-14  -1.633164e-13  0 
 1.854518e-14  -1.706101e-13  0 
 2.150701e-14  -1.702956e-13  0 
 2.422977e-14  -1.700638e-13  0 
 -2.974026e-14  -1.483686e-13  0 
 -2.667226e-14  -1.483693e-13  0 
 -2.367359e-14  -1.483790e-13  0 
 -2.971278e-14  -1.559615e-13  0 
 -2.673259e-14  -1.559379e-13  0 
 -2.375863e-14  -1.559147e-13  0 
 -2.964669e-14  -1.633064e-13  0 
 -2.679023e-14  -1.632982e-13  0 
 -2.384919e-14  -1.633125e-13  0 
 -1.774631e-14  -1.484325e-13  0 
 -1.477055e-14  -1.484380e-13  0 
 -1.179377e-14  -1.484420e-13  0 
 -1.779292e-14  -1.558966e-13  0 
 -1.480174e-14  -1.558976e-13  0 
 -1.181035e-14  -1.558987e-13  0 
 -1.783832e-14  -1.633900e-13  0 
 -1.483312e-14  -1.633961e-13  0 
 -1.182871e-14  -1.634009e-13  0 
 -5.828760e-15  -1.484449e-13  0 
 -2.849156e-15  -1.484547e-13  0 
 1.342656e-16  -1.484530e-13  0 
 -5.831464e-15  -1.559096e-13  0 
 -2.845000e-15  -1.559088e-13  0 
 1.414678e-16  -1.559069e-13  0 
 -5.839937e-15  -1.634046e-13  0 
 -2.840854e-15  -1.634140e-13  0 
 1.544409e-16  -1.634128e-13  0 
 6.104871e-15  -1.484396e-13  0 
 9.081314e-15  -1.484359e-13  0 
 1.205601e-14  -1.484307e-13  0 
 6.120401e-15  -1.558962e-13  0 
 9.111817e-15  -1.558944e-13  0 
 1.210302e-14  -1.558926e-13  0 
 6.137703e-15  -1.633986e-13  0 
 9.142500e-15  -1.633942e-13  0 
 1.214882e-14  -1.633883e-13  0 
 1.796199e-14  -1.483633e-13  0 
 2.092912e-14  -1.483584e-13  0 
 2.396478e-14  -1.483651e-13  0 
 1.806874e-14  -1.558945e-13  0 
 2.104276e-14  -1.559045e-13  0 
 2.402294e-14  -1.559223e-13  0 
 1.818128e-14  -1.632968e-13  0 
 2.115368e-14  -1.632874e-13  0 
 2.404265e-14  -1.633033e-13  0 
VECTORS displacement_ITER3 FLOAT
 4.122729e-15  1.303079e-14  0 
 2.724156e-15  1.570620e-14  0 
 2.434097e-15  1.308636e-14  0 
 1.248015e-15  1.309913e-14  0 
 9.515486e-17  1.314344e-14  0 
 -1.089114e-15  1.313466e-14  0 
 -2.560899e-15  1.325630e-14  0 
 2.173086e-15  1.575895e-14  0 
 1.198088e-15  1.576974e-14  0 
 1.220865e-16  1.581312e-14  0 
 -8.539945e-16  1.580625e-14  0 
 -1.620697e-15  1.593059e-14  0 
 3.651787e-15  1.393648e-14  0 
 3.377411e-15  1.460815e-14  0 
 3.126403e-15  1.526510e-14  0 
 3.679181e-15  1.307991e-14  0 
 3.302887e-15  1.317746e-14  0 
 2.952121e-15  1.322030e-14  0 
 2.113441e-15  1.309048e-14  0 
 1.814254e-15  1.309559e-14  0 
 1.527028e-15  1.309870e-14  0 
 9.603972e-16  1.305584e-14  0 
 6.739542e-16  1.306804e-14  0 
 3.877178e-16  1.308936e-14  0 
 -1.869716e-16  1.314355e-14  0 
 -4.746860e-16  1.314147e-14  0 
 -7.723971e-16  1.313760e-14  0 
 -1.603430e-15  1.330897e-14  0 
 -1.922878e-15  1.332793e-14  0 
 -2.231912e-15  1.328350e-14  0 
 2.360130e-15  1.382938e-14  0 
 2.295854e-15  1.450816e-14  0 
 2.235197e-15  1.516071e-14  0 
 2.620166e-15  1.575542e-14  0 
 2.444596e-15  1.585276e-14  0 
 2.232779e-15  1.589436e-14  0 
 1.228670e-15  1.381402e-14  0 
 1.228758e-15  1.450472e-14  0 
 1.226090e-15  1.514625e-14  0 
 1.951294e-15  1.576343e-14  0 
 1.710960e-15  1.576837e-14  0 
 1.459288e-15  1.577096e-14  0 
 1.061720e-16  1.385764e-14  0 
 1.029009e-16  1.454592e-14  0 
 1.023870e-16  1.518939e-14  0 
 9.226643e-16  1.570626e-14  0 
 6.576705e-16  1.571275e-14  0 
 3.924212e-16  1.573932e-14  0 
 -1.022273e-15  1.387250e-14  0 
 -9.638021e-16  1.455007e-14  0 
 -9.089544e-16  1.520333e-14  0 
 -1.358396e-16  1.581485e-14  0 
 -3.868432e-16  1.581327e-14  0 
 -6.284438e-16  1.580957e-14  0 
 -2.220232e-15  1.397107e-14  0 
 -2.044717e-15  1.461469e-14  0 
 -1.892526e-15  1.529885e-14  0 
 -9.173653e-16  1.598139e-14  0 
 -1.158330e-15  1.600181e-14  0 
 -1.402248e-15  1.595774e-14  0 
 3.344140e-15  1.392351e-14  0 
 3.016283e-15  1.389480e-14  0 
 2.682554e-15  1.386443e-14  0 
 3.110580e-15  1.460561e-14  0 
 2.841017e-15  1.459165e-14  0 
 2.569449e-15  1.455840e-14  0 
 2.896519e-15  1.525199e-14  0 
 2.679724e-15  1.522273e-14  0 
 2.463897e-15  1.519234e-14  0 
 2.078025e-15  1.382473e-14  0 
 1.794537e-15  1.381931e-14  0 
 1.512257e-15  1.381546e-14  0 
 2.029331e-15  1.450750e-14  0 
 1.762509e-15  1.450619e-14  0 
 1.495587e-15  1.450508e-14  0 
 1.982812e-15  1.515635e-14  0 
 1.730596e-15  1.515134e-14  0 
 1.477160e-15  1.514753e-14  0 
 9.518520e-16  1.381982e-14  0 
 6.671544e-16  1.382383e-14  0 
 3.829760e-16  1.384010e-14  0 
 9.474551e-16  1.450396e-14  0 
 6.657826e-16  1.451377e-14  0 
 3.841302e-16  1.452518e-14  0 
 9.401291e-16  1.515410e-14  0 
 6.644105e-16  1.515844e-14  0 
 3.882362e-16  1.517413e-14  0 
 -1.762370e-16  1.385927e-14  0 
 -4.579916e-16  1.386285e-14  0 
 -7.408272e-16  1.386795e-14  0 
 -1.638314e-16  1.454680e-14  0 
 -4.306557e-16  1.454824e-14  0 
 -6.973786e-16  1.454959e-14  0 
 -1.496691e-16  1.519085e-14  0 
 -4.034377e-16  1.519439e-14  0 
 -6.561142e-16  1.519908e-14  0 
 -1.339098e-15  1.391189e-14  0 
 -1.653488e-15  1.393910e-14  0 
 -1.948010e-15  1.396179e-14  0 
 -1.237287e-15  1.458601e-14  0 
 -1.508652e-15  1.460759e-14  0 
 -1.778098e-15  1.461413e-14  0 
 -1.142756e-15  1.523940e-14  0 
 -1.377886e-15  1.526643e-14  0 
 -1.627415e-15  1.528946e-14  0 
VECTORS displacement_ITER4 FLOAT
 -1.644039e-16  -4.708451e-15  0 
 -2.060107e-15  -6.091200e-15  0 
 -4.704200e-16  -4.354206e-15  0 
 -8.517221e-17  -4.343089e-15  0 
 3.238929e-16  -4.340208e-15  0 
 7.097260e-16  -4.348654e-15  0 
 4.184279e-16  -4.734627e-15  0 
 -7.062604e-16  -5.584520e-15  0 
 -1.313104e-16  -5.574023e-15  0 
 3.425144e-16  -5.569937e-15  0 
 9.158723e-16  -5.577751e-15  0 
 2.252572e-15  -6.114586e-15  0 
 -7.315691e-16  -4.496700e-15  0 
 -1.093346e-15  -4.754230e-15  0 
 -1.469716e-15  -5.124657e-15  0 
 -3.880037e-16  -4.636668e-15  0 
 -4.808766e-16  -4.470072e-15  0 
 -4.755274e-16  -4.310393e-15  0 
 -3.974417e-16  -4.351447e-15  0 
 -3.036116e-16  -4.346576e-15  0 
 -1.985350e-16  -4.343419e-15  0 
 9.098008e-18  -4.335181e-15  0 
 1.334103e-16  -4.323838e-15  0 
 2.477345e-16  -4.335809e-15  0 
 4.334565e-16  -4.340410e-15  0 
 5.376555e-16  -4.342603e-15  0 
 6.327216e-16  -4.346386e-15  0 
 7.349922e-16  -4.302110e-15  0 
 7.608541e-16  -4.469745e-15  0 
 6.656008e-16  -4.653616e-15  0 
 -5.423202e-16  -4.597996e-15  0 
 -5.968787e-16  -4.896953e-15  0 
 -6.471176e-16  -5.218853e-15  0 
 -1.506433e-15  -5.998543e-15  0 
 -1.130058e-15  -5.784944e-15  0 
 -8.983594e-16  -5.576315e-15  0 
 -1.023786e-16  -4.610819e-15  0 
 -1.027527e-16  -4.899750e-15  0 
 -1.057615e-16  -5.229222e-15  0 
 -5.418154e-16  -5.580682e-15  0 
 -3.949553e-16  -5.575675e-15  0 
 -2.585175e-16  -5.572885e-15  0 
 3.323512e-16  -4.606415e-15  0 
 3.276964e-16  -4.896542e-15  0 
 3.256877e-16  -5.224245e-15  0 
 -2.138484e-18  -5.558469e-15  0 
 9.185486e-17  -5.540900e-15  0 
 1.956088e-16  -5.558428e-15  0 
 7.731516e-16  -4.595887e-15  0 
 8.213482e-16  -4.894107e-15  0 
 8.652214e-16  -5.216140e-15  0 
 4.732514e-16  -5.568668e-15  0 
 6.103087e-16  -5.570495e-15  0 
 7.557106e-16  -5.574414e-15  0 
 9.744481e-16  -4.493740e-15  0 
 1.317303e-15  -4.756111e-15  0 
 1.674408e-15  -5.121258e-15  0 
 1.087190e-15  -5.566669e-15  0 
 1.300078e-15  -5.782579e-15  0 
 1.676630e-15  -6.013069e-15  0 
 -6.989042e-16  -4.512420e-15  0 
 -6.738985e-16  -4.546362e-15  0 
 -6.208054e-16  -4.584590e-15  0 
 -9.702173e-16  -4.761300e-15  0 
 -8.451858e-16  -4.788632e-15  0 
 -7.196353e-16  -4.832969e-15  0 
 -1.235432e-15  -5.144079e-15  0 
 -9.998925e-16  -5.183366e-15  0 
 -8.058407e-16  -5.220054e-15  0 
 -4.305348e-16  -4.601213e-15  0 
 -3.212623e-16  -4.606075e-15  0 
 -2.111873e-16  -4.609616e-15  0 
 -4.728805e-16  -4.897777e-15  0 
 -3.493478e-16  -4.898519e-15  0 
 -2.260511e-16  -4.899263e-15  0 
 -5.127863e-16  -5.221367e-15  0 
 -3.773001e-16  -5.225355e-15  0 
 -2.426539e-16  -5.228463e-15  0 
 8.995458e-18  -4.614369e-15  0 
 1.165079e-16  -4.617288e-15  0 
 2.234497e-16  -4.610189e-15  0 
 4.969438e-18  -4.908238e-15  0 
 1.125301e-16  -4.908306e-15  0 
 2.200617e-16  -4.906680e-15  0 
 -3.135342e-19  -5.229316e-15  0 
 1.085767e-16  -5.231879e-15  0 
 2.179775e-16  -5.224880e-15  0 
 4.416140e-16  -4.605520e-15  0 
 5.517025e-16  -4.602731e-15  0 
 6.612539e-16  -4.598644e-15  0 
 4.508799e-16  -4.896045e-15  0 
 5.740578e-16  -4.895392e-15  0 
 6.974711e-16  -4.894818e-15  0 
 4.618860e-16  -5.223783e-15  0 
 5.962787e-16  -5.221415e-15  0 
 7.312402e-16  -5.218197e-15  0 
 8.582044e-16  -4.588054e-15  0 
 9.151695e-16  -4.549881e-15  0 
 9.418118e-16  -4.511849e-15  0 
 9.439082e-16  -4.832944e-15  0 
 1.069366e-15  -4.789667e-15  0 
 1.194213e-15  -4.762942e-15  0 
 1.017345e-15  -5.222683e-15  0 
 1.206813e-15  -5.186175e-15  0 
 1.440605e-15  -5.143002e-15  0 
VECTORS displacement_ITER5 FLOAT
 -1.353099e-14  -7.226137e-14  0 
 -1.466688e-14  -8.733264e-14  0 
 -7.979306e-15  -7.202957e-14  0 
 -2.064191e-15  -7.202131e-14  0 
 3.894040e-15  -7.204942e-14  0 
 9.808610e-15  -7.205726e-14  0 
 1.518960e-14  -7.247674e-14  0 
 -8.184700e-15  -8.704105e-14  0 
 -2.111152e-15  -8.703619e-14  0 
 3.913310e-15  -8.706475e-14  0 
 9.987742e-15  -8.706927e-14  0 
 1.664205e-14  -8.754929e-14  0 
 -1.386582e-14  -7.569023e-14  0 
 -1.409243e-14  -7.940052e-14  0 
 -1.432346e-14  -8.319848e-14  0 
 -1.224182e-14  -7.223187e-14  0 
 -1.089186e-14  -7.214487e-14  0 
 -9.491714e-15  -7.201648e-14  0 
 -6.522574e-15  -7.202922e-14  0 
 -5.046304e-15  -7.202490e-14  0 
 -3.559619e-15  -7.202157e-14  0 
 -5.912064e-16  -7.196924e-14  0 
 9.295597e-16  -7.196011e-14  0 
 2.437578e-15  -7.199279e-14  0 
 5.385504e-15  -7.205009e-14  0 
 6.871091e-15  -7.205279e-14  0 
 8.348277e-15  -7.205650e-14  0 
 1.133809e-14  -7.207961e-14  0 
 1.273584e-14  -7.226836e-14  0 
 1.402462e-14  -7.241863e-14  0 
 -8.045944e-15  -7.573354e-14  0 
 -8.089302e-15  -7.948144e-14  0 
 -8.129145e-15  -8.324422e-14  0 
 -1.291803e-14  -8.729371e-14  0 
 -1.124734e-14  -8.718722e-14  0 
 -9.649135e-15  -8.704055e-14  0 
 -2.080480e-15  -7.574365e-14  0 
 -2.082180e-15  -7.948230e-14  0 
 -2.086177e-15  -8.325297e-14  0 
 -6.646602e-15  -8.703993e-14  0 
 -5.125184e-15  -8.703620e-14  0 
 -3.613467e-15  -8.703413e-14  0 
 3.902159e-15  -7.576918e-14  0 
 3.898164e-15  -7.950848e-14  0 
 3.896478e-15  -8.327876e-14  0 
 -5.859473e-16  -8.698334e-14  0 
 8.865115e-16  -8.697010e-14  0 
 2.371652e-15  -8.700714e-14  0 
 9.867023e-15  -7.576230e-14  0 
 9.905501e-15  -7.950835e-14  0 
 9.940455e-15  -8.327326e-14  0 
 5.419659e-15  -8.706312e-14  0 
 6.932546e-15  -8.706459e-14  0 
 8.453169e-15  -8.706774e-14  0 
 1.562101e-14  -7.571058e-14  0 
 1.590917e-14  -7.940260e-14  0 
 1.620203e-14  -8.321957e-14  0 
 1.143478e-14  -8.710472e-14  0 
 1.303803e-14  -8.731198e-14  0 
 1.476899e-14  -8.748202e-14  0 
 -1.242553e-14  -7.569544e-14  0 
 -1.098612e-14  -7.570928e-14  0 
 -9.518325e-15  -7.573724e-14  0 
 -1.259201e-14  -7.940630e-14  0 
 -1.109087e-14  -7.942505e-14  0 
 -9.589548e-15  -7.944565e-14  0 
 -1.275375e-14  -8.320559e-14  0 
 -1.118669e-14  -8.322270e-14  0 
 -9.653694e-15  -8.325180e-14  0 
 -6.551759e-15  -7.573532e-14  0 
 -5.061213e-15  -7.573951e-14  0 
 -3.570212e-15  -7.574272e-14  0 
 -6.587251e-15  -7.948173e-14  0 
 -5.085473e-15  -7.948161e-14  0 
 -3.583823e-15  -7.948181e-14  0 
 -6.620787e-15  -8.324576e-14  0 
 -5.109917e-15  -8.324947e-14  0 
 -3.599301e-15  -8.325247e-14  0 
 -5.843314e-16  -7.575255e-14  0 
 9.127957e-16  -7.575951e-14  0 
 2.409179e-15  -7.576214e-14  0 
 -5.870279e-16  -7.949586e-14  0 
 9.079677e-16  -7.950385e-14  0 
 2.402975e-15  -7.950932e-14  0 
 -5.914187e-16  -8.325941e-14  0 
 9.031538e-16  -8.326669e-14  0 
 2.398496e-15  -8.326915e-14  0 
 5.391998e-15  -7.576884e-14  0 
 6.882772e-15  -7.576667e-14  0 
 8.373313e-15  -7.576349e-14  0 
 5.399861e-15  -7.950835e-14  0 
 6.901563e-15  -7.950843e-14  0 
 8.403395e-15  -7.950872e-14  0 
 5.409591e-15  -8.327885e-14  0 
 6.920535e-15  -8.327689e-14  0 
 8.431508e-15  -8.327420e-14  0 
 1.134273e-14  -7.577527e-14  0 
 1.279781e-14  -7.574511e-14  0 
 1.421085e-14  -7.572159e-14  0 
 1.140583e-14  -7.946372e-14  0 
 1.290736e-14  -7.943409e-14  0 
 1.440858e-14  -7.940977e-14  0 
 1.146217e-14  -8.329007e-14  0 
 1.300779e-14  -8.325893e-14  0 
 1.460188e-14  -8.323237e-14  0 
VECTORS displacement_ITER6 FLOAT
 1.142074e-07  -1.421498e-08  0 
 1.438909e-07  5.020574e-07  0 
 1.517900e-08  -1.001368e-08  0 
 -7.929100e-08  -9.611262e-09  0 
 -7.929100e-08  9.611273e-09  0 
 1.517899e-08  1.001369e-08  0 
 1.142074e-07  1.421499e-08  0 
 -3.336058e-09  2.170307e-07  0 
 -6.077555e-08  2.017758e-07  0 
 -6.077555e-08  -2.017758e-07  0 
 -3.336058e-09  -2.170307e-07  0 
 1.438909e-07  -5.020573e-07  0 
 1.159146e-07  4.674965e-08  0 
 1.244472e-07  1.114549e-07  0 
 1.511574e-07  2.112617e-07  0 
 8.974710e-08  -1.409902e-08  0 
 6.494114e-08  -1.351166e-08  0 
 3.996342e-08  -1.223575e-08  0 
 -8.651461e-09  -9.927940e-09  0 
 -3.238656e-08  -9.828899e-09  0 
 -5.594732e-08  -9.723876e-09  0 
 -9.655246e-08  -4.717487e-09  0 
 -1.024186e-07  5.414616e-15  0 
 -9.655246e-08  4.717498e-09  0 
 -5.594732e-08  9.723887e-09  0 
 -3.238657e-08  9.828910e-09  0 
 -8.651462e-09  9.927951e-09  0 
 3.996342e-08  1.223576e-08  0 
 6.494114e-08  1.351167e-08  0 
 8.974710e-08  1.409903e-08  0 
 1.497173e-08  4.958944e-08  0 
 1.336092e-08  1.090424e-07  0 
 8.437804e-09  1.674540e-07  0 
 -1.838803e-09  4.698767e-07  0 
 -5.762554e-08  3.945268e-07  0 
 -5.171147e-08  3.057711e-07  0 
 -7.916032e-08  4.845895e-08  0 
 -7.750189e-08  1.062976e-07  0 
 -7.102805e-08  1.607826e-07  0 
 -1.567190e-08  2.142845e-07  0 
 -3.089718e-08  2.111568e-07  0 
 -4.664164e-08  2.069257e-07  0 
 -7.916032e-08  -4.845894e-08  0 
 -7.750189e-08  -1.062976e-07  0 
 -7.102805e-08  -1.607826e-07  0 
 -1.070089e-08  8.740695e-08  0 
 5.863202e-09  6.071752e-15  0 
 -1.070089e-08  -8.740694e-08  0 
 1.497173e-08  -4.958943e-08  0 
 1.336092e-08  -1.090424e-07  0 
 8.437803e-09  -1.674540e-07  0 
 -4.664164e-08  -2.069257e-07  0 
 -3.089718e-08  -2.111567e-07  0 
 -1.567190e-08  -2.142845e-07  0 
 1.159146e-07  -4.674964e-08  0 
 1.244472e-07  -1.114549e-07  0 
 1.511574e-07  -2.112616e-07  0 
 -5.171147e-08  -3.057711e-07  0 
 -5.762554e-08  -3.945268e-07  0 
 -1.838804e-09  -4.698767e-07  0 
 9.091016e-08  4.692417e-08  0 
 6.552008e-08  4.739768e-08  0 
 4.013053e-08  4.838679e-08  0 
 9.537803e-08  1.116214e-07  0 
 6.488797e-08  1.126513e-07  0 
 3.595018e-08  1.127501e-07  0 
 8.859244e-08  2.154622e-07  0 
 3.767158e-08  2.168634e-07  0 
 1.151280e-08  2.020647e-07  0 
 -8.794481e-09  4.955647e-08  0 
 -3.238549e-08  4.937190e-08  0 
 -5.585490e-08  4.898905e-08  0 
 -9.850728e-09  1.088347e-07  0 
 -3.252928e-08  1.083987e-07  0 
 -5.488245e-08  1.075587e-07  0 
 -1.288751e-08  1.659100e-07  0 
 -3.268314e-08  1.638395e-07  0 
 -5.193199e-08  1.620708e-07  0 
 -9.619230e-08  2.433796e-08  0 
 -1.015614e-07  5.554572e-15  0 
 -9.619230e-08  -2.433795e-08  0 
 -9.307926e-08  5.279134e-08  0 
 -9.937682e-08  5.727628e-15  0 
 -9.307926e-08  -5.279133e-08  0 
 -7.984493e-08  8.744434e-08  0 
 -8.004190e-08  5.887194e-15  0 
 -7.984493e-08  -8.744433e-08  0 
 -5.585491e-08  -4.898904e-08  0 
 -3.238549e-08  -4.937189e-08  0 
 -8.794482e-09  -4.955646e-08  0 
 -5.488245e-08  -1.075587e-07  0 
 -3.252928e-08  -1.083987e-07  0 
 -9.850728e-09  -1.088347e-07  0 
 -5.193199e-08  -1.620707e-07  0 
 -3.268314e-08  -1.638395e-07  0 
 -1.288751e-08  -1.659100e-07  0 
 4.013052e-08  -4.838678e-08  0 
 6.552007e-08  -4.739767e-08  0 
 9.091016e-08  -4.692415e-08  0 
 3.595017e-08  -1.127500e-07  0 
 6.488796e-08  -1.126513e-07  0 
 9.537802e-08  -1.116214e-07  0 
 1.151280e-08  -2.020647e-07  0 
 3.767158e-08  -2.168634e-07  0 
 8.859244e-08  -2.154622e-07  0 
VECTORS displacement_ITER7 FLOAT
 -1.276284e-06  1.518144e-06  0 
 -4.825659e-06  -2.982148e-06  0 
 -8.571890e-08  1.245031e-06  0 
 8.010731e-07  1.204966e-06  0 
 8.010731e-07  -1.204966e-06  0 
 -8.571889e-08  -1.245031e-06  0 
 -1.276284e-06  -1.518144e-06  0 
 -1.682079e-07  -1.167189e-06  0 
 9.408532e-07  -1.129562e-06  0 
 9.408532e-07  1.129562e-06  0 
 -1.682078e-07  1.167189e-06  0 
 -4.825659e-06  2.982148e-06  0 
 -1.239271e-06  8.921805e-07  0 
 -1.558186e-06  4.148277e-07  0 
 -2.737524e-06  -4.394242e-07  0 
 -9.901044e-07  1.512145e-06  0 
 -6.944785e-07  1.482414e-06  0 
 -3.861733e-07  1.402591e-06  0 
 1.382166e-07  1.238932e-06  0 
 3.612281e-07  1.230254e-06  0 
 5.825171e-07  1.218643e-06  0 
 9.952964e-07  6.129728e-07  0 
 1.060693e-06  -5.736511e-14  0 
 9.952964e-07  -6.129729e-07  0 
 5.825171e-07  -1.218643e-06  0 
 3.612281e-07  -1.230254e-06  0 
 1.382166e-07  -1.238933e-06  0 
 -3.861733e-07  -1.402591e-06  0 
 -6.944784e-07  -1.482414e-06  0 
 -9.901043e-07  -1.512145e-06  0 
 -8.959830e-08  6.883652e-07  0 
 -1.090793e-07  1.247650e-07  0 
 -1.396885e-07  -4.870159e-07  0 
 -3.352985e-06  -2.865321e-06  0 
 -2.051782e-06  -2.529984e-06  0 
 -9.479872e-07  -1.976324e-06  0 
 8.052845e-07  6.641265e-07  0 
 8.308619e-07  1.158320e-07  0 
 8.848844e-07  -4.701660e-07  0 
 1.222038e-07  -1.153488e-06  0 
 3.961334e-07  -1.141958e-06  0 
 6.652489e-07  -1.134543e-06  0 
 8.052845e-07  -6.641266e-07  0 
 8.308619e-07  -1.158322e-07  0 
 8.848844e-07  4.701658e-07  0 
 1.500867e-06  -6.437362e-07  0 
 1.684038e-06  -6.912503e-14  0 
 1.500867e-06  6.437361e-07  0 
 -8.959829e-08  -6.883653e-07  0 
 -1.090793e-07  -1.247652e-07  0 
 -1.396885e-07  4.870157e-07  0 
 6.652489e-07  1.134543e-06  0 
 3.961335e-07  1.141957e-06  0 
 1.222038e-07  1.153488e-06  0 
 -1.239271e-06  -8.921806e-07  0 
 -1.558186e-06  -4.148278e-07  0 
 -2.737524e-06  4.394240e-07  0 
 -9.479872e-07  1.976324e-06  0 
 -2.051782e-06  2.529984e-06  0 
 -3.352985e-06  2.865321e-06  0 
 -1.005701e-06  8.824457e-07  0 
 -7.280537e-07  8.470248e-07  0 
 -4.166090e-07  7.806550e-07  0 
 -1.292578e-06  4.008556e-07  0 
 -9.359875e-07  3.486365e-07  0 
 -5.344353e-07  2.515474e-07  0 
 -2.080539e-06  -4.484144e-07  0 
 -1.356308e-06  -4.560952e-07  0 
 -6.815345e-07  -4.558758e-07  0 
 1.361774e-07  6.847943e-07  0 
 3.621315e-07  6.792764e-07  0 
 5.857887e-07  6.722221e-07  0 
 1.294740e-07  1.215293e-07  0 
 3.674197e-07  1.193173e-07  0 
 6.022843e-07  1.175987e-07  0 
 1.205171e-07  -4.864720e-07  0 
 3.783311e-07  -4.844936e-07  0 
 6.331064e-07  -4.788282e-07  0 
 9.762504e-07  3.286096e-07  0 
 1.036511e-06  -6.027312e-14  0 
 9.762504e-07  -3.286097e-07  0 
 1.008323e-06  5.498555e-08  0 
 1.060164e-06  -6.320413e-14  0 
 1.008323e-06  -5.498568e-08  0 
 1.098905e-06  -1.936538e-07  0 
 1.187027e-06  -6.614018e-14  0 
 1.098905e-06  1.936537e-07  0 
 5.857887e-07  -6.722222e-07  0 
 3.621315e-07  -6.792765e-07  0 
 1.361774e-07  -6.847944e-07  0 
 6.022843e-07  -1.175988e-07  0 
 3.674197e-07  -1.193174e-07  0 
 1.294740e-07  -1.215294e-07  0 
 6.331064e-07  4.788280e-07  0 
 3.783311e-07  4.844935e-07  0 
 1.205171e-07  4.864718e-07  0 
 -4.166089e-07  -7.806551e-07  0 
 -7.280537e-07  -8.470249e-07  0 
 -1.005701e-06  -8.824458e-07  0 
 -5.344353e-07  -2.515475e-07  0 
 -9.359874e-07  -3.486366e-07  0 
 -1.292578e-06  -4.008558e-07  0 
 -6.815344e-07  4.558756e-07  0 
 -1.356308e-06  4.560951e-07  0 
 -2.080538e-06  4.484142e-07  0 
VECTORS displacement_ITER8 FLOAT
 3.962857e-07  -1.988922e-06  0 
 -1.745087e-06  -6.310576e-06  0 
 -3.389586e-07  -8.472095e-07  0 
 3.418299e-07  -8.198409e-07  0 
 3.418299e-07  8.198408e-07  0 
 -3.389586e-07  8.472094e-07  0 
 3.962857e-07  1.988922e-06  0 
 -1.114682e-07  -2.496546e-06  0 
 1.491914e-07  -2.282765e-06  0 
 1.491914e-07  2.282765e-06  0 
 -1.114682e-07  2.496546e-06  0 
 -1.745087e-06  6.310576e-06  0 
 -3.824095e-07  -1.302740e-06  0 
 -1.045791e-06  -1.604704e-06  0 
 -1.655166e-06  -2.627193e-06  0 
 -7.085024e-08  -1.900709e-06  0 
 -3.288760e-07  -1.668744e-06  0 
 -4.260815e-07  -1.321558e-06  0 
 -1.658192e-07  -8.364834e-07  0 
 6.522832e-09  -8.286980e-07  0 
 1.763880e-07  -8.232908e-07  0 
 3.114579e-07  -4.795250e-07  0 
 2.946901e-07  -9.441818e-15  0 
 3.114579e-07  4.795249e-07  0 
 1.763880e-07  8.232908e-07  0 
 6.522834e-09  8.286980e-07  0 
 -1.658192e-07  8.364834e-07  0 
 -4.260815e-07  1.321558e-06  0 
 -3.288760e-07  1.668744e-06  0 
 -7.085024e-08  1.900709e-06  0 
 -3.299244e-07  -1.261786e-06  0 
 -3.204440e-07  -1.693492e-06  0 
 -2.698898e-07  -2.144519e-06  0 
 1.625080e-07  -5.860829e-06  0 