# vtk DataFile Version 3.1
this is an vtk file created by FEMAC
ASCII
DATASET UNSTRUCTURED_GRID
POINTS 105 FLOAT
2.000000 0.000000 0.000000
2.500000 0.000000 0.000000
2.000000 0.200000 0.000000
2.000000 0.400000 0.000000
2.000000 0.600000 0.000000
2.000000 0.800000 0.000000
2.000000 1.000000 0.000000
2.500000 0.200000 0.000000
2.500000 0.400000 0.000000
2.500000 0.600000 0.000000
2.500000 0.800000 0.000000
2.500000 1.000000 0.000000
2.125000 0.000000 0.000000
2.250000 0.000000 0.000000
2.375000 0.000000 0.000000
2.000000 0.050000 0.000000
2.000000 0.100000 0.000000
2.000000 0.150000 0.000000
2.000000 0.250000 0.000000
2.000000 0.300000 0.000000
2.000000 0.350000 0.000000
2.000000 0.450000 0.000000
2.000000 0.500000 0.000000
2.000000 0.550000 0.000000
2.000000 0.650000 0.000000
2.000000 0.700000 0.000000
2.000000 0.750000 0.000000
2.000000 0.850000 0.000000
2.000000 0.900000 0.000000
2.000000 0.950000 0.000000
2.125000 0.200000 0.000000
2.250000 0.200000 0.000000
2.375000 0.200000 0.000000
2.500000 0.050000 0.000000
2.500000 0.100000 0.000000
2.500000 0.150000 0.000000
2.125000 0.400000 0.000000
2.250000 0.400000 0.000000
2.375000 0.400000 0.000000
2.500000 0.250000 0.000000
2.500000 0.300000 0.000000
2.500000 0.350000 0.000000
2.125000 0.600000 0.000000
2.250000 0.600000 0.000000
2.375000 0.600000 0.000000
2.500000 0.450000 0.000000
2.500000 0.500000 0.000000
2.500000 0.550000 0.000000
2.125000 0.800000 0.000000
2.250000 0.800000 0.000000
2.375000 0.800000 0.000000
2.500000 0.650000 0.000000
2.500000 0.700000 0.000000
2.500000 0.750000 0.000000
2.125000 1.000000 0.000000
2.250000 1.000000 0.000000
2.375000 1.000000 0.000000
2.500000 0.850000 0.000000
2.500000 0.900000 0.000000
2.500000 0.950000 0.000000
2.125000 0.050000 0.000000
2.125000 0.100000 0.000000
2.125000 0.150000 0.000000
2.250000 0.050000 0.000000
2.250000 0.100000 0.000000
2.250000 0.150000 0.000000
2.375000 0.050000 0.000000
2.375000 0.100000 0.000000
2.375000 0.150000 0.000000
2.125000 0.250000 0.000000
2.125000 0.300000 0.000000
2.125000 0.350000 0.000000
2.250000 0.250000 0.000000
2.250000 0.300000 0.000000
2.250000 0.350000 0.000000
2.375000 0.250000 0.000000
2.375000 0.300000 0.000000
2.375000 0.350000 0.000000
2.125000 0.450000 0.000000
2.125000 0.500000 0.000000
2.125000 0.550000 0.000000
2.250000 0.450000 0.000000
2.250000 0.500000 0.000000
2.250000 0.550000 0.000000
2.375000 0.450000 0.000000
2.375000 0.500000 0.000000
2.375000 0.550000 0.000000
2.125000 0.650000 0.000000
2.125000 0.700000 0.000000
2.125000 0.750000 0.000000
2.250000 0.650000 0.000000
2.250000 0.700000 0.000000
2.250000 0.750000 0.000000
2.375000 0.650000 0.000000
2.375000 0.700000 0.000000
2.375000 0.750000 0.000000
2.125000 0.850000 0.000000
2.125000 0.900000 0.000000
2.125000 0.950000 0.000000
2.250000 0.850000 0.000000
2.250000 0.900000 0.000000
2.250000 0.950000 0.000000
2.375000 0.850000 0.000000
2.375000 0.900000 0.000000
2.375000 0.950000 0.000000
CELLS 80 400 
4 0 12 60 15
4 15 60 61 16
4 16 61 62 17
4 17 62 30  2
4 12 13 63 60
4 60 63 64 61
4 61 64 65 62
4 62 65 31 30
4 13 14 66 63
4 63 66 67 64
4 64 67 68 65
4 65 68 32 31
4 14  1 33 66
4 66 33 34 67
4 67 34 35 68
4 68 35  7 32
4 2 30 69 18
4 18 69 70 19
4 19 70 71 20
4 20 71 36  3
4 30 31 72 69
4 69 72 73 70
4 70 73 74 71
4 71 74 37 36
4 31 32 75 72
4 72 75 76 73
4 73 76 77 74
4 74 77 38 37
4 32  7 39 75
4 75 39 40 76
4 76 40 41 77
4 77 41  8 38
4 3 36 78 21
4 21 78 79 22
4 22 79 80 23
4 23 80 42  4
4 36 37 81 78
4 78 81 82 79
4 79 82 83 80
4 80 83 43 42
4 37 38 84 81
4 81 84 85 82
4 82 85 86 83
4 83 86 44 43
4 38  8 45 84
4 84 45 46 85
4 85 46 47 86
4 86 47  9 44
4 4 42 87 24
4 24 87 88 25
4 25 88 89 26
4 26 89 48  5
4 42 43 90 87
4 87 90 91 88
4 88 91 92 89
4 89 92 49 48
4 43 44 93 90
4 90 93 94 91
4 91 94 95 92
4 92 95 50 49
4 44  9 51 93
4 93 51 52 94
4 94 52 53 95
4 95 53 10 50
4 5 48 96 27
4 27 96 97 28
4 28 97 98 29
4 29 98 54  6
4 48 49 99 96
4 96  99 100  97
4 97 100 101  98
4 98 101  55  54
4 49  50 102  99
4 99 102 103 100
4 100 103 104 101
4 101 104  56  55
4 50  10  57 102
4 102  57  58 103
4 103  58  59 104
4 104  59  11  56
CELL_TYPES 80
9 9 9 9 9 9 9 9 9 9 9 9 9 9 9 9 9 9 9 9 9 9 9 9 9 9 9 9 9 9 9 9 9 9 9 9 9 9 9 9 9 9 9 9 9 9 9 9 9 9 9 9 9 9 9 9 9 9 9 9 9 9 9 9 9 9 9 9 9 9 9 9 9 9 9 9 9 9 9 9 
POINT_DATA 105
VECTORS displacement_ITER1 FLOAT
 -6.112335e-11  3.493726e-13  0 
 -6.618338e-11  -1.199440e-10  0 
 -1.256800e-11  -5.780477e-13  0 
 3.783261e-11  3.360179e-12  0 
 3.763764e-11  -2.378283e-12  0 
 -1.263644e-11  1.309071e-12  0 
 -6.166944e-11  3.874143e-13  0 
 -2.076098e-11  -1.172955e-10  0 
 5.023533e-11  3.458543e-12  0 
 5.006719e-11  -1.633274e-12  0 
 -2.085409e-11  1.191133e-10  0 
 -6.672142e-11  1.217751e-10  0 
 -6.220882e-11  -2.940492e-11  0 
 -6.387268e-11  -5.968000e-11  0 
 -6.524433e-11  -9.024547e-11  0 
 -4.920214e-11  3.983560e-13  0 
 -3.723611e-11  4.132383e-13  0 
 -2.512697e-11  1.497033e-13  0 
 5.398207e-12  -2.199961e-11  0 
 -1.596036e-12  -3.146313e-11  0 
 -3.695958e-12  -6.024760e-12  0 
 3.940355e-11  1.997405e-12  0 
 3.981676e-11  4.994206e-13  0 
 3.930593e-11  -1.004267e-12  0 
 -4.715549e-12  7.483932e-12  0 
 -1.820755e-12  3.371485e-11  0 
 5.973253e-12  2.331797e-11  0 
 -2.532176e-11  5.713442e-13  0 
 -3.754187e-11  3.079529e-13  0 
 -4.962156e-11  3.313015e-13  0 
 -1.414455e-11  -2.928326e-11  0 
 -1.481927e-11  -5.879822e-11  0 
 -1.684459e-11  -9.004158e-11  0 
 -5.345997e-11  -1.207108e-10  0 
 -4.234556e-11  -1.215886e-10  0 
 -3.219442e-11  -1.203520e-10  0 
 3.978461e-11  -3.524891e-13  0 
 4.277961e-11  -3.936809e-13  0 
 4.681124e-11  -9.996715e-13  0 
 -2.090055e-11  -1.152048e-10  0 
 2.804541e-11  -1.110454e-10  0 
 7.759305e-11  -5.291576e-11  0 
 3.960596e-11  1.586392e-12  0 
 4.262858e-11  1.819801e-12  0 
 4.664728e-11  2.612339e-12  0 
 4.945242e-11  1.860740e-12  0 
 4.907149e-11  9.244823e-13  0 
 4.938108e-11  -2.706051e-14  0 
 -1.422466e-11  3.031401e-11  0 
 -1.492238e-11  6.009218e-11  0 
 -1.693679e-11  9.159383e-11  0 
 7.677935e-11  5.419745e-11  0 
 2.789039e-11  1.116083e-10  0 
 -2.025164e-11  1.165067e-10  0 
 -6.274127e-11  3.042397e-11  0 
 -6.439940e-11  6.097277e-11  0 
 -6.576923e-11  9.180401e-11  0 
 -3.239525e-11  1.221893e-10  0 
 -4.266540e-11  1.234236e-10  0 
 -5.386904e-11  1.225484e-10  0 
 -5.018474e-11  -2.942816e-11  0 
 -3.805454e-11  -2.946449e-11  0 
 -2.591847e-11  -2.944386e-11  0 
 -5.160739e-11  -5.961775e-11  0 
 -3.943923e-11  -5.946189e-11  0 
 -2.729133e-11  -5.923389e-11  0 
 -5.339116e-11  -9.021115e-11  0 
 -4.114386e-11  -9.009872e-11  0 
 -2.871365e-11  -8.995560e-11  0 
 1.902735e-12  -2.002045e-11  0 
 1.553637e-11  -1.104444e-11  0 
 2.972373e-11  -1.005343e-11  0 
 4.133706e-12  -4.304056e-11  0 
 2.011252e-11  -3.003502e-11  0 
 3.283209e-11  -1.353296e-11  0 
 4.720909e-12  -6.652340e-11  0 
 2.225895e-11  -3.847843e-11  0 
 3.434032e-11  -2.319972e-11  0 
 4.061150e-11  2.333352e-13  0 
 4.091382e-11  6.128374e-13  0 
 4.052431e-11  9.944059e-13  0 
 4.308297e-11  -5.007994e-14  0 
 4.311032e-11  7.131324e-13  0 
 4.300441e-11  1.476492e-12  0 
 4.613375e-11  1.505794e-13  0 
 4.594029e-11  8.099239e-13  0 
 4.604928e-11  1.468229e-12  0 
 2.959665e-11  1.126773e-11  0 
 1.540839e-11  1.201699e-11  0 
 1.782949e-12  2.112326e-11  0 
 3.271425e-11  1.492058e-11  0 
 1.999764e-11  3.139343e-11  0 
 4.019412e-12  4.436048e-11  0 
 3.422005e-11  2.477052e-11  0 
 2.215581e-11  4.018659e-11  0 
 4.592136e-12  6.806447e-11  0 
 -2.611249e-11  3.046905e-11  0 
 -3.836419e-11  3.048559e-11  0 
 -5.060815e-11  3.044780e-11  0 
 -2.749492e-11  6.052805e-11  0 
 -3.974922e-11  6.075485e-11  0 
 -5.202471e-11  6.091035e-11  0 
 -2.891539e-11  9.150908e-11  0 
 -4.145242e-11  9.165756e-11  0 
 -5.381262e-11  9.177001e-11  0 
VECTORS displacement_ITER2 FLOAT
 -4.497044e-11  -3.829529e-11  0 
 -4.528767e-11  -1.518981e-10  0 
 -5.698894e-12  -3.944955e-11  0 
 -2.198161e-11  -3.282576e-12  0 
 -2.140906e-11  2.096407e-12  0 
 -5.591434e-12  3.907647e-11  0 
 -4.344483e-11  3.788906e-11  0 
 -7.126213e-12  -1.529530e-10  0 
 -1.811495e-11  -2.529049e-11  0 
 -1.757429e-11  2.169985e-11  0 
 -7.041685e-12  1.491490e-10  0 
 -4.377218e-11  1.481143e-10  0 
 -4.651939e-11  -6.457210e-11  0 
 -4.776515e-11  -9.225189e-11  0 
 -4.767357e-11  -1.212135e-10  0 
 -3.481447e-11  -3.850449e-11  0 
 -2.441870e-11  -3.890141e-11  0 
 -1.435790e-11  -3.914826e-11  0 
 -3.125536e-11  3.727737e-12  0 
 1.561091e-11  3.451497e-11  0 
 3.904877e-11  -1.894271e-11  0 
 -2.158074e-11  -2.187062e-12  0 
 -2.127464e-11  -6.120977e-13  0 
 -2.129766e-11  9.776978e-13  0 
 4.171054e-11  1.647923e-11  0 
 1.613723e-11  -3.912453e-11  0 
 -3.287632e-11  -5.844937e-12  0 
 -1.388031e-11  3.879608e-11  0 
 -2.361205e-11  3.854675e-11  0 
 -3.366776e-11  3.811948e-11  0 
 -4.567205e-12  -6.307809e-11  0 
 -2.696108e-12  -9.119351e-11  0 
 -9.941386e-13  -1.222480e-10  0 
 -3.475394e-11  -1.503337e-10  0 
 -2.189571e-11  -1.484953e-10  0 
 -1.023366e-11  -1.504085e-10  0 
 -1.917302e-11  -1.532706e-12  0 
 -1.973167e-11  -7.266290e-13  0 
 -2.544707e-11  -4.349998e-12  0 
 2.282137e-12  -1.268750e-10  0 
 -9.469817e-11  -8.029955e-11  0 
 -1.510536e-10  -1.302196e-10  0 
 -1.867933e-11  -3.554399e-13  0 
 -1.931342e-11  -1.687892e-12  0 
 -2.496888e-11  1.412937e-12  0 
 -2.193278e-11  -1.388939e-11  0 
 -2.276127e-11  -1.816383e-12  0 
 -2.169950e-11  1.028353e-11  0 
 -4.444101e-12  6.179626e-11  0 
 -2.518151e-12  8.909858e-11  0 
 -8.639335e-13  1.193566e-10  0 
 -1.487746e-10  1.281172e-10  0 
 -9.418861e-11  8.038678e-11  0 
 5.742148e-13  1.249096e-10  0 
 -4.502473e-11  6.332187e-11  0 
 -4.627173e-11  9.016367e-11  0 
 -4.617262e-11  1.182788e-10  0 
 -9.760677e-12  1.465978e-10  0 
 -2.106077e-11  1.446845e-10  0 
 -3.360004e-11  1.465294e-10  0 
 -3.570469e-11  -6.447692e-11  0 
 -2.511389e-11  -6.419601e-11  0 
 -1.480551e-11  -6.375809e-11  0 
 -3.663904e-11  -9.226590e-11  0 
 -2.538595e-11  -9.212329e-11  0 
 -1.391868e-11  -9.162102e-11  0 
 -3.560789e-11  -1.213809e-10  0 
 -2.480257e-11  -1.218915e-10  0 
 -1.417649e-11  -1.224518e-10  0 
 8.563990e-13  -5.100776e-11  0 
 -2.303814e-12  -4.270741e-11  0 
 -1.116561e-11  -1.069769e-11  0 
 -3.076113e-12  -7.126410e-11  0 
 -5.450533e-12  -4.307215e-11  0 
 -1.252924e-11  -2.820380e-11  0 
 -2.100752e-11  -1.058314e-10  0 
 -2.160980e-11  -8.817947e-11  0 
 -1.111779e-11  -2.627425e-11  0 
 -2.020468e-11  -1.373928e-12  0 
 -2.057144e-11  -9.331703e-13  0 
 -1.996103e-11  -4.986670e-13  0 
 -2.009449e-11  -4.212790e-13  0 
 -1.979441e-11  -1.207274e-12  0 
 -1.987597e-11  -1.993734e-12  0 
 -1.955612e-11  -4.141236e-12  0 
 -1.796164e-11  -1.480364e-12  0 
 -1.931012e-11  1.186182e-12  0 
 -1.083230e-11  8.871016e-12  0 
 -2.006618e-12  4.153850e-11  0 
 1.095541e-12  4.951859e-11  0 
 -1.224468e-11  2.587314e-11  0 
 -5.206982e-12  4.081300e-11  0 
 -2.846138e-12  6.910341e-11  0 
 -1.075953e-11  2.345293e-11  0 
 -2.135112e-11  8.491772e-11  0 
 -2.077197e-11  1.029640e-10  0 
 -1.433478e-11  6.249253e-11  0 
 -2.429251e-11  6.294117e-11  0 
 -3.453936e-11  6.322580e-11  0 
 -1.342946e-11  8.952815e-11  0 
 -2.456764e-11  9.003268e-11  0 
 -3.548565e-11  9.017689e-11  0 
 -1.370347e-11  1.195427e-10  0 
 -2.398642e-11  1.189668e-10  0 
 -3.444282e-11  1.184497e-10  0 
VECTORS displacement_ITER3 FLOAT
 -1.544924e-11  1.210024e-11  0 
 -1.021106e-11  4.331862e-15  0 
 -5.202643e-12  1.398265e-11  0 
 -7.023991e-12  -1.044134e-12  0 
 -7.496023e-12  1.549396e-12  0 
 -5.308436e-12  -1.432243e-11  0 
 -1.641998e-11  -1.240875e-11  0 
 -1.289521e-11  -2.783864e-12  0 
 -1.175328e-11  -2.495620e-11  0 
 -1.207566e-11  2.728979e-11  0 
 -1.289762e-11  4.615026e-12  0 
 -1.119159e-11  1.831140e-12  0 
 -1.516222e-11  6.380889e-12  0 
 -1.391688e-11  1.553986e-12  0 
 -1.172761e-11  -5.207427e-13  0 
 -1.302034e-11  1.226744e-11  0 
 -1.078077e-11  1.256811e-11  0 
 -8.287364e-12  1.290491e-11  0 
 1.893742e-11  1.137989e-11  0 
 -1.041118e-11  -7.479048e-12  0 
 -1.615633e-11  1.989500e-11  0 
 -5.915798e-12  -1.304842e-13  0 
 -5.754771e-12  2.699350e-13  0 
 -6.148453e-12  6.568945e-13  0 
 -1.807877e-11  -1.855587e-11  0 
 -1.095661e-11  1.020176e-11  0 
 1.987182e-11  -1.033687e-11  0 
 -8.614310e-12  -1.326719e-11  0 
 -1.129746e-11  -1.293080e-11  0 
 -1.374321e-11  -1.259635e-11  0 
 -6.267077e-12  6.064053e-12  0 
 -8.346313e-12  1.363100e-12  0 
 -1.106972e-11  -5.142823e-13  0 
 -9.633864e-12  -4.761890e-13  0 
 -1.142992e-11  -2.082060e-13  0 
 -1.259845e-11  1.586087e-12  0 
 -5.097655e-12  2.093439e-13  0 
 -4.040513e-12  1.505713e-12  0 
 -7.042524e-12  4.590851e-12  0 
 -3.681606e-11  -3.248028e-11  0 
 -1.849083e-11  -4.318603e-11  0 
 -4.078296e-11  1.486414e-11  0 
 -5.490248e-12  8.560899e-13  0 
 -4.370913e-12  -2.248764e-14  0 
 -7.392838e-12  -2.695226e-12  0 
 -2.237202e-12  -6.426274e-12  0 
 1.777438e-12  1.194101e-12  0 
 -2.377676e-12  8.793361e-12  0 
 -6.364556e-12  -5.842026e-12  0 
 -8.477937e-12  -6.275881e-13  0 
 -1.116244e-11  1.731603e-12  0 
 -4.222950e-11  -1.374180e-11  0 
 -1.876345e-11  4.233871e-11  0 
 -3.552509e-11  3.278285e-11  0 
 -1.610808e-11  -6.178720e-12  0 
 -1.487391e-11  -8.366343e-13  0 
 -1.271070e-11  1.790349e-12  0 
 -1.290701e-11  2.290194e-13  0 
 -1.198029e-11  2.046726e-12  0 
 -1.041075e-11  2.317414e-12  0 
 -1.304529e-11  6.370958e-12  0 
 -1.088616e-11  6.369844e-12  0 
 -8.702543e-12  6.319460e-12  0 
 -1.246076e-11  1.552161e-12  0 
 -1.118225e-11  1.497287e-12  0 
 -9.718105e-12  1.494923e-12  0 
 -1.169742e-11  -5.645011e-13  0 
 -1.117695e-11  -7.580976e-13  0 
 -1.119099e-11  -1.250649e-12  0 
 -8.304061e-12  6.110424e-12  0 
 -4.202359e-12  1.047044e-11  0 
 -4.373570e-12  -2.037605e-13  0 
 -7.299901e-12  2.041225e-12  0 
 -6.290087e-12  5.399171e-13  0 
 -5.260643e-12  4.366736e-12  0 
 -1.040182e-11  -1.624002e-12  0 
 -1.050451e-11  3.079874e-13  0 
 -4.166169e-12  -8.847579e-12  0 
 -5.655604e-12  6.251504e-14  0 
 -5.972174e-12  5.256500e-13  0 
 -5.850492e-12  9.929805e-13  0 
 -5.294726e-12  1.801680e-12  0 
 -5.377240e-12  7.441375e-13  0 
 -5.465941e-12  -3.142263e-13  0 
 -3.660999e-12  1.149618e-12  0 
 -3.247707e-12  9.560886e-13  0 
 -3.839040e-12  7.576636e-13  0 
 -4.684935e-12  1.130393e-12  0 
 -4.481748e-12  -1.009105e-11  0 
 -8.512075e-12  -5.653221e-12  0 
 -5.502359e-12  -3.070644e-12  0 
 -6.496425e-12  5.658291e-13  0 
 -7.490640e-12  -1.134656e-12  0 
 -4.465326e-12  1.045125e-11  0 
 -1.071870e-11  1.461725e-12  0 
 -1.056427e-11  2.997091e-12  0 
 -9.017957e-12  -6.108824e-12  0 
 -1.142207e-11  -6.166011e-12  0 
 -1.379395e-11  -6.169169e-12  0 
 -1.004327e-11  -7.662709e-13  0 
 -1.171267e-11  -7.729676e-13  0 
 -1.320324e-11  -8.323042e-13  0 
 -1.149483e-11  2.488219e-12  0 
 -1.170473e-11  2.009099e-12  0 
 -1.245094e-11  1.827949e-12  0 
VECTORS displacement_ITER4 FLOAT
 -1.773057e-11  1.742117e-11  0 
 -1.802254e-11  -2.613825e-11  0 
 2.086912e-12  1.830330e-11  0 
 1.089522e-11  -1.105753e-12  0 
 1.116351e-11  1.774665e-13  0 
 2.350265e-12  -1.833540e-11  0 
 -1.727733e-11  -1.747263e-11  0 
 -2.010853e-12  -2.639584e-11  0 
 8.344683e-12  -2.177028e-11  0 
 8.470533e-12  1.980922e-11  0 
 -1.880270e-12  2.581737e-11  0 
 -1.756286e-11  2.552214e-11  0 
 -1.790660e-11  5.908452e-12  0 
 -1.793612e-11  -5.338764e-12  0 
 -1.794981e-11  -1.587360e-11  0 
 -1.318593e-11  1.742310e-11  0 
 -8.480193e-12  1.755986e-11  0 
 -3.615709e-12  1.788062e-11  0 
 5.599669e-12  5.560789e-12  0 
 5.487992e-12  6.025557e-12  0 
 1.687243e-12  6.823082e-12  0 
 1.137234e-11  -2.563420e-13  0 
 1.157984e-11  -4.788761e-13  0 
 1.150966e-11  -6.913675e-13  0 
 2.430966e-12  -7.939623e-12  0 
 5.861510e-12  -7.172464e-12  0 
 5.689162e-12  -6.052572e-12  0 
 -3.310520e-12  -1.788638e-11  0 
 -8.152626e-12  -1.756343e-11  0 
 -1.281662e-11  -1.745624e-11  0 
 4.728021e-13  5.508177e-12  0 
 -5.476913e-13  -5.239882e-12  0 
 -1.423427e-12  -1.558705e-11  0 
 -1.403799e-11  -2.581266e-11  0 
 -9.817888e-12  -2.598250e-11  0 
 -7.202868e-12  -2.651133e-11  0 
 1.216588e-11  -6.695625e-13  0 
 1.351669e-11  -1.957902e-14  0 
 1.155737e-11  7.167052e-13  0 
 -1.262410e-12  -1.772712e-11  0 
 8.761998e-12  -2.474261e-11  0 
 4.313172e-11  -1.655661e-12  0 
 1.239114e-11  -5.641988e-13  0 
 1.372907e-11  -1.472923e-12  0 
 1.175845e-11  -2.487325e-12  0 
 1.714247e-11  -1.170521e-11  0 
 1.699702e-11  -1.033760e-12  0 
 1.718689e-11  9.669784e-12  0 
 7.063952e-13  -5.667781e-12  0 
 -3.036766e-13  4.941905e-12  0 
 -1.192941e-12  1.519744e-11  0 
 4.323643e-11  4.808160e-13  0 
 8.556699e-12  2.454759e-11  0 
 -1.943178e-12  1.753726e-11  0 
 -1.747279e-11  -6.065259e-12  0 
 -1.748786e-11  5.067297e-12  0 
 -1.747119e-11  1.544404e-11  0 
 -6.928819e-12  2.596434e-11  0 
 -9.439747e-12  2.541485e-11  0 
 -1.359769e-11  2.521504e-11  0 
 -1.331638e-11  5.896901e-12  0 
 -8.752206e-12  5.828033e-12  0 
 -4.097977e-12  5.687135e-12  0 
 -1.356537e-11  -5.323968e-12  0 
 -9.131350e-12  -5.284366e-12  0 
 -4.841827e-12  -5.274955e-12  0 
 -1.384408e-11  -1.595317e-11  0 
 -9.871189e-12  -1.598734e-11  0 
 -5.431802e-12  -1.577558e-11  0 
 4.319942e-12  5.662669e-12  0 
 7.226881e-12  3.861118e-12  0 
 1.112648e-11  5.354325e-13  0 
 4.325498e-12  -3.678660e-12  0 
 7.635266e-12  -3.777659e-12  0 
 1.168483e-11  -6.739597e-13  0 
 4.473863e-12  -1.208673e-11  0 
 9.444006e-12  -4.263412e-12  0 
 5.026198e-12  -7.761056e-12  0 
 1.205453e-11  -8.677735e-13  0 
 1.206908e-11  -6.169367e-13  0 
 1.216695e-11  -3.655980e-13  0 
 1.291720e-11  4.395825e-14  0 
 1.274073e-11  -7.502025e-13  0 
 1.302278e-11  -1.543549e-12  0 
 1.441354e-11  -6.954747e-13  0 
 1.613382e-11  -8.864455e-13  0 
 1.451995e-11  -1.074930e-12  0 
 1.137308e-11  -1.501272e-12  0 
 7.499404e-12  -4.503989e-12  0 
 4.577878e-12  -6.112743e-12  0 
 1.191563e-11  -5.257625e-13  0 
 7.892449e-12  2.887732e-12  0 
 4.585492e-12  3.094096e-12  0 
 5.252358e-12  6.371657e-12  0 
 9.624563e-12  3.144689e-12  0 
 4.688774e-12  1.137948e-11  0 
 -3.808859e-12  -5.843420e-12  0 
 -8.405284e-12  -5.982527e-12  0 
 -1.291873e-11  -6.052394e-12  0 
 -4.551820e-12  4.986709e-12  0 
 -8.790911e-12  5.002837e-12  0 
 -1.317121e-11  5.049290e-12  0 
 -5.154450e-12  1.537385e-11  0 
 -9.537479e-12  1.557451e-11  0 
 -1.344471e-11  1.552816e-11  0 
VECTORS displacement_ITER5 FLOAT
 -1.206832e-10  6.917781e-12  0 
 -1.333247e-10  -2.285440e-10  0 
 -2.605459e-11  5.288529e-12  0 
 7.185685e-11  7.063325e-12  0 
 7.094284e-11  -2.585683e-12  0 
 -2.697457e-11  -3.089356e-12  0 
 -1.225735e-10  -4.666149e-12  0 
 -4.194798e-11  -2.238324e-10  0 
 9.207502e-11  -9.666043e-12  0 
 9.154737e-11  1.780383e-11  0 
 -4.257885e-11  2.285685e-10  0 
 -1.352190e-10  2.333630e-10  0 
 -1.231336e-10  -5.049946e-11  0 
 -1.269177e-10  -1.091141e-10  0 
 -1.307439e-10  -1.690728e-10  0 
 -9.767297e-11  7.068213e-12  0 
 -7.458889e-11  7.188642e-12  0 
 -5.098582e-11  6.844685e-12  0 
 -4.359508e-12  -3.645736e-11  0 
 -6.499841e-12  -4.862718e-11  0 
 -6.159191e-12  -1.275663e-11  0 
 7.492356e-11  4.636533e-12  0 
 7.604850e-11  2.286514e-12  0 
 7.445428e-11  -9.667305e-14  0 
 -9.094168e-12  1.829435e-11  0 
 -7.508963e-12  5.497580e-11  0 
 -4.079431e-12  4.002735e-11  0 
 -5.214290e-11  -4.719173e-12  0 
 -7.592014e-11  -5.065932e-12  0 
 -9.922705e-11  -4.869232e-12  0 
 -3.012047e-11  -5.042741e-11  0 
 -3.151494e-11  -1.074772e-10  0 
 -3.475209e-11  -1.685550e-10  0 
 -1.088137e-10  -2.295858e-10  0 
 -8.619536e-11  -2.302049e-10  0 
 -6.398774e-11  -2.290772e-10  0 
 7.663073e-11  7.256543e-13  0 
 8.340882e-11  1.937022e-12  0 
 8.907798e-11  2.198244e-12  0 
 -3.104077e-11  -2.164062e-10  0 
 4.991248e-11  -1.933213e-10  0 
 1.383335e-10  -1.295525e-10  0 
 7.583799e-11  4.835457e-12  0 
 8.268288e-11  4.525979e-12  0 
 8.837662e-11  5.191219e-12  0 
 9.782676e-11  -2.736173e-12  0 
 1.007144e-10  4.207401e-12  0 
 9.763442e-11  1.105000e-11  0 
 -3.097709e-11  5.325630e-11  0 
 -3.241769e-11  1.109289e-10  0 
 -3.560743e-11  1.725187e-10  0 
 1.372996e-10  1.351544e-10  0 
 5.027663e-11  1.961091e-10  0 
 -2.881588e-11  2.201378e-10  0 
 -1.249668e-10  5.331057e-11  0 
 -1.287808e-10  1.125018e-10  0 
 -1.326813e-10  1.731370e-10  0 
 -6.505362e-11  2.337290e-10  0 
 -8.767316e-11  2.348776e-10  0 
 -1.105406e-10  2.343574e-10  0 
 -9.987587e-11  -5.054762e-11  0 
 -7.635806e-11  -5.065667e-11  0 
 -5.282945e-11  -5.072999e-11  0 
 -1.030861e-10  -1.090411e-10  0 
 -7.935292e-11  -1.087793e-10  0 
 -5.564329e-11  -1.083277e-10  0 
 -1.070184e-10  -1.689417e-10  0 
 -8.289745e-11  -1.687385e-10  0 
 -5.867056e-11  -1.683259e-10  0 
 2.857965e-12  -3.310762e-11  0 
 2.827197e-11  -1.965322e-11  0 
 5.646391e-11  -1.584999e-11  0 
 5.348963e-12  -7.911256e-11  0 
 3.789326e-11  -5.300237e-11  0 
 6.360825e-11  -2.380227e-11  0 
 5.239722e-12  -1.253123e-10  0 
 3.785654e-11  -7.824394e-11  0 
 6.197453e-11  -3.965502e-11  0 
 7.788509e-11  1.856227e-12  0 
 7.810274e-11  2.776643e-12  0 
 7.749296e-11  3.697795e-12  0 
 8.308736e-11  2.534226e-12  0 
 8.299728e-11  3.240275e-12  0 
 8.272287e-11  3.944884e-12  0 
 9.046536e-11  2.919700e-12  0 
 9.063748e-11  3.702845e-12  0 
 9.009537e-11  4.479251e-12  0 
 5.567103e-11  2.071614e-11  0 
 2.736072e-11  2.352618e-11  0 
 1.957677e-12  3.674342e-11  0 
 6.282478e-11  2.951837e-11  0 
 3.699957e-11  5.794522e-11  0 
 4.423469e-12  8.327543e-11  0 
 6.124753e-11  4.613248e-11  0 
 3.723947e-11  8.415964e-11  0 
 4.429894e-12  1.299991e-10  0 
 -5.394447e-11  5.354579e-11  0 
 -7.773790e-11  5.346358e-11  0 
 -1.015020e-10  5.335639e-11  0 
 -5.676725e-11  1.117574e-10  0 
 -8.071816e-11  1.121925e-10  0 
 -1.046995e-10  1.124371e-10  0 
 -5.977138e-11  1.723192e-10  0 
 -8.424369e-11  1.727643e-10  0 
 -1.086450e-10  1.729947e-10  0 
VECTORS displacement_ITER6 FLOAT
 -1.072472e-10  -3.733618e-11  0 
 -1.167567e-10  -2.598118e-10  0 
 -2.378283e-11  -3.931575e-11  0 
 1.804141e-11  -9.506246e-13  0 
 1.893431e-11  -9.752527e-13  0 
 -2.310614e-11  3.973433e-11  0 
 -1.056154e-10  3.768275e-11  0 
 -3.572370e-11  -2.572199e-10  0 
 3.561896e-11  -4.017638e-11  0 
 3.613988e-11  3.476105e-11  0 
 -3.537132e-11  2.550459e-10  0 
 -1.151093e-10  2.575967e-10  0 
 -1.103515e-10  -9.012856e-11  0 
 -1.139258e-10  -1.448702e-10  0 
 -1.164007e-10  -2.014558e-10  0 
 -8.653856e-11  -3.750274e-11  0 
 -6.536974e-11  -3.784579e-11  0 
 -4.411451e-11  -3.819882e-11  0 
 -3.715762e-11  -4.093241e-12  0 
 1.447257e-11  1.730609e-11  0 
 4.500001e-11  -2.598401e-11  0 
 2.047020e-11  -1.212308e-12  0 
 2.144189e-11  -1.004945e-12  0 
 2.092730e-11  -7.646567e-13  0 
 4.775196e-11  2.292627e-11  0 
 1.509987e-11  -2.124790e-11  0 
 -3.781468e-11  3.084109e-12  0 
 -4.320410e-11  3.867219e-11  0 
 -6.428368e-11  3.831653e-11  0 
 -8.523133e-11  3.789842e-11  0 
 -2.530233e-11  -8.851981e-11  0 
 -2.454844e-11  -1.430800e-10  0 
 -2.520585e-11  -2.025681e-10  0 
 -9.399720e-11  -2.590700e-10  0 
 -7.076881e-11  -2.579055e-10  0 
 -4.871959e-11  -2.581881e-10  0 
 2.441248e-11  -3.077843e-12  0 
 2.839858e-11  -1.658788e-12  0 
 2.550301e-11  -5.491624e-12  0 
 -1.850740e-11  -2.279309e-10  0 
 -6.636148e-11  -1.736743e-10  0 
 -8.998246e-11  -2.005718e-10  0 
 2.516374e-11  1.193052e-13  0 
 2.907908e-11  -2.147769e-12  0 
 2.616879e-11  8.161626e-13  0 
 3.665258e-11  -2.210596e-11  0 
 3.811074e-11  -2.831838e-12  0 
 3.683920e-11  1.654057e-11  0 
 -2.469045e-11  8.829236e-11  0 
 -2.388841e-11  1.422407e-10  0 
 -2.460712e-11  2.012205e-10  0 
 -8.897236e-11  1.976925e-10  0 
 -6.698206e-11  1.735518e-10  0 
 -2.080109e-11  2.266952e-10  0 
 -1.087710e-10  8.992442e-11  0 
 -1.123130e-10  1.440958e-10  0 
 -1.147044e-10  1.999985e-10  0 
 -4.792328e-11  2.561340e-10  0 
 -6.954800e-11  2.558413e-10  0 
 -9.249329e-11  2.569020e-10  0 
 -8.876961e-11  -9.006954e-11  0 
 -6.727607e-11  -8.985339e-11  0 
 -4.606150e-11  -8.942952e-11  0 
 -9.177025e-11  -1.448326e-10  0 
 -6.957079e-11  -1.445810e-10  0 
 -4.709906e-11  -1.438896e-10  0 
 -9.346889e-11  -2.015690e-10  0 
 -7.126774e-11  -2.019498e-10  0 
 -4.934357e-11  -2.024804e-10  0 
 -4.500276e-13  -6.887669e-11  0 
 1.269194e-11  -5.333513e-11  0 
 1.970384e-11  -1.862514e-11  0 
 -4.131836e-12  -1.099899e-10  0 
 1.296529e-11  -6.927031e-11  0 
 2.184697e-11  -4.088747e-11  0 
 -2.260960e-11  -1.663492e-10  0 
 -5.933487e-12  -1.279315e-10  0 
 2.333326e-11  -4.752465e-11  0 
 2.414638e-11  -2.383578e-12  0 
 2.406384e-11  -1.475976e-12  0 
 2.451944e-11  -5.699413e-13  0 
 2.781561e-11  -1.139611e-12  0 
 2.821589e-11  -1.911728e-12  0 
 2.815812e-11  -2.681725e-12  0 
 3.360762e-11  -5.351504e-12  0 
 3.585506e-11  -2.347855e-12  0 
 3.395923e-11  6.620458e-13  0 
 2.038828e-11  1.637423e-11  0 
 1.343735e-11  5.207873e-11  0 
 2.281833e-13  6.781951e-11  0 
 2.252985e-11  3.781733e-11  0 
 1.370407e-11  6.695691e-11  0 
 -3.397910e-12  1.084470e-10  0 
 2.394864e-11  4.371037e-11  0 
 -5.457272e-12  1.246600e-10  0 
 -2.204137e-11  1.643116e-10  0 
 -4.519009e-11  8.921941e-11  0 
 -6.614351e-11  8.965309e-11  0 
 -8.739467e-11  8.986801e-11  0 
 -4.622280e-11  1.430724e-10  0 
 -6.845415e-11  1.437795e-10  0 
 -9.040507e-11  1.440488e-10  0 
 -4.849204e-11  2.010979e-10  0 
 -7.016869e-11  2.005357e-10  0 
 -9.209268e-11  2.001266e-10  0 
VECTORS displacement_ITER7 FLOAT
 -9.863691e-11  -1.769644e-12  0 
 -1.007345e-10  -1.621588e-10  0 
 -2.830666e-11  -8.348188e-13  0 
 1.740012e-11  1.312304e-12  0 
 1.655420e-11  1.390100e-12  0 
 -2.910471e-11  7.984990e-13  0 
 -9.954850e-11  1.807279e-12  0 
 -5.249083e-11  -1.611552e-10  0 
 3.238899e-11  -5.101321e-11  0 
 3.207869e-11  5.690957e-11  0 
 -5.285219e-11  1.617338e-10  0 
 -1.016607e-10  1.628272e-10  0 
 -1.003042e-10  -4.428501e-11  0 
 -1.012620e-10  -8.616842e-11  0 
 -1.010101e-10  -1.250691e-10  0 
 -8.162924e-11  -1.614203e-12  0 
 -6.448083e-11  -1.357605e-12  0 
 -4.677540e-11  -1.297423e-12  0 
 8.600955e-12  5.606816e-12  0 
 -6.642930e-12  -1.081451e-11  0 
 4.624042e-12  1.148523e-11  0 
 2.148336e-11  1.649714e-12  0 
 2.229743e-11  1.399624e-12  0 
 2.104313e-11  1.112077e-12  0 
 2.637551e-12  -8.068556e-12  0 
 -7.173751e-12  1.390470e-11  0 
 8.417764e-12  -4.855346e-12  0 
 -4.757985e-11  1.197262e-12  0 
 -6.524428e-11  1.259154e-12  0 
 -8.240845e-11  1.600144e-12  0 
 -3.243748e-11  -4.397471e-11  0 
 -3.600461e-11  -8.525203e-11  0 
 -4.169406e-11  -1.259828e-10  0 
 -8.541459e-11  -1.619592e-10  0 
 -7.224275e-11  -1.610220e-10  0 
 -6.060413e-11  -1.582013e-10  0 
 2.567061e-11  1.284381e-13  0 
 3.142262e-11  3.277521e-12  0 
 2.841894e-11  4.671363e-12  0 
 -6.719294e-11  -1.846099e-10  0 
 -4.593956e-11  -1.809257e-10  0 
 -5.966466e-11  -9.012553e-11  0 
 2.496260e-11  3.529034e-12  0 
 3.075756e-11  1.202705e-12  0 
 2.782560e-11  6.702836e-13  0 
 4.388308e-11  -1.822291e-11  0 
 4.803027e-11  3.115419e-12  0 
 4.380057e-11  2.432929e-11  0 
 -3.313319e-11  4.406129e-11  0 
 -3.673629e-11  8.547843e-11  0 
 -4.237984e-11  1.262007e-10  0 
 -5.933383e-11  9.344163e-11  0 
 -4.445125e-11  1.818509e-10  0 
 -6.508125e-11  1.854241e-10  0 
 -1.011612e-10  4.436095e-11  0 
 -1.021589e-10  8.630215e-11  0 
 -1.020226e-10  1.254115e-10  0 
 -6.125484e-11  1.585918e-10  0 
 -7.318083e-11  1.614267e-10  0 
 -8.647605e-11  1.625302e-10  0 
 -8.331621e-11  -4.428803e-11  0 
 -6.626886e-11  -4.424271e-11  0 
 -4.928649e-11  -4.413416e-11  0 
 -8.507598e-11  -8.615077e-11  0 
 -6.898868e-11  -8.608503e-11  0 
 -5.256305e-11  -8.567560e-11  0 
 -8.619456e-11  -1.252326e-10  0 
 -7.133784e-11  -1.256416e-10  0 
 -5.701647e-11  -1.265863e-10  0 
 -1.434284e-11  -3.065926e-11  0 
 6.293672e-12  -1.410403e-11  0 
 1.711991e-11  -1.053661e-11  0 
 -1.410126e-11  -6.257000e-11  0 
 4.460814e-12  -4.063238e-11  0 
 1.885299e-11  -1.608330e-11  0 
 -2.841647e-11  -1.021812e-10  0 
 -8.539874e-12  -7.000039e-11  0 
 2.221622e-11  -4.068184e-11  0 
 2.492942e-11  5.470033e-13  0 
 2.451855e-11  1.831852e-12  0 
 2.457700e-11  3.114371e-12  0 
 2.953904e-11  3.938981e-12  0 
 2.948865e-11  2.253414e-12  0 
 2.921046e-11  5.637763e-13  0 
 3.737874e-11  8.474208e-13  0 
 3.943261e-11  2.676008e-12  0 
 3.706186e-11  4.500601e-12  0 
 1.638902e-11  1.320064e-11  0 
 5.468806e-12  1.580219e-11  0 
 -1.509546e-11  3.180180e-11  0 
 1.808321e-11  1.950608e-11  0 
 3.598077e-12  4.296541e-11  0 
 -1.494044e-11  6.381522e-11  0 
 2.163046e-11  4.479279e-11  0 
 -9.015205e-12  7.289251e-11  0 
 -2.900804e-11  1.034925e-10  0 
 -5.004490e-11  4.420766e-11  0 
 -6.708842e-11  4.430974e-11  0 
 -8.417475e-11  4.435919e-11  0 
 -5.331764e-11  8.587046e-11  0 
 -6.978806e-11  8.625799e-11  0 
 -8.592776e-11  8.629818e-11  0 
 -5.775171e-11  1.268409e-10  0 
 -7.211361e-11  1.259291e-10  0 
 -8.704881e-11  1.255567e-10  0 
VECTORS displacement_ITER8 FLOAT
 -1.176987e-10  1.042132e-11  0 
 -1.227892e-10  -2.014087e-10  0 
 -2.350815e-11  1.126417e-11  0 
 4.143840e-11  -6.820234e-13  0 
 4.239365e-11  -2.203821e-12  0 
 -2.223847e-11  -9.979772e-12  0 
 -1.173482e-10  -9.239621e-12  0 
 -5.452578e-11  -1.977556e-10  0 
 6.122201e-11  -6.396707e-11  0 
 6.135486e-11  5.762431e-11  0 
 -5.397604e-11  2.006786e-10  0 
 -1.224176e-10  2.041712e-10  0 
 -1.195810e-10  -4.546946e-11  0 
 -1.211954e-10  -1.002444e-10  0 
 -1.220692e-10  -1.518483e-10  0 
 -9.533490e-11  1.053674e-11  0 
 -7.254496e-11  1.087323e-11  0 
 -4.913452e-11  1.118688e-11  0 
 3.172405e-12  -1.290107e-11  0 
 4.885682e-12  -1.209763e-11  0 
 6.761552e-12  4.103653e-12  0 
 4.653117e-11  -9.020001e-15  0 
 4.827967e-11  -1.510238e-12  0 
 4.704407e-11  -2.960804e-12  0 
 7.908526e-12  -7.221774e-12  0 
 5.129117e-12  1.148477e-11  0 
 4.669622e-12  1.446273e-11  0 
 -4.814332e-11  -9.807508e-12  0 
 -7.188309e-11  -9.500143e-12  0 
 -9.491349e-11  -9.282548e-12  0 
 -3.067144e-11  -4.567859e-11  0 
 -3.544713e-11  -9.895273e-11  0 