# vtk DataFile Version 3.1
this is an vtk file created by FEMAC
ASCII
DATASET UNSTRUCTURED_GRID
POINTS 105 FLOAT
1.000000 0.000000 0.000000
1.500000 0.000000 0.000000
1.000000 0.200000 0.000000
1.000000 0.400000 0.000000
1.000000 0.600000 0.000000
1.000000 0.800000 0.000000
1.000000 1.000000 0.000000
1.500000 0.200000 0.000000
1.500000 0.400000 0.000000
1.500000 0.600000 0.000000
1.500000 0.800000 0.000000
1.500000 1.000000 0.000000
1.125000 0.000000 0.000000
1.250000 0.000000 0.000000
1.375000 0.000000 0.000000
1.000000 0.050000 0.000000
1.000000 0.100000 0.000000
1.000000 0.150000 0.000000
1.000000 0.250000 0.000000
1.000000 0.300000 0.000000
1.000000 0.350000 0.000000
1.000000 0.450000 0.000000
1.000000 0.500000 0.000000
1.000000 0.550000 0.000000
1.000000 0.650000 0.000000
1.000000 0.700000 0.000000
1.000000 0.750000 0.000000
1.000000 0.850000 0.000000
1.000000 0.900000 0.000000
1.000000 0.950000 0.000000
1.125000 0.200000 0.000000
1.250000 0.200000 0.000000
1.375000 0.200000 0.000000
1.500000 0.050000 0.000000
1.500000 0.100000 0.000000
1.500000 0.150000 0.000000
1.125000 0.400000 0.000000
1.250000 0.400000 0.000000
1.375000 0.400000 0.000000
1.500000 0.250000 0.000000
1.500000 0.300000 0.000000
1.500000 0.350000 0.000000
1.125000 0.600000 0.000000
1.250000 0.600000 0.000000
1.375000 0.600000 0.000000
1.500000 0.450000 0.000000
1.500000 0.500000 0.000000
1.500000 0.550000 0.000000
1.125000 0.800000 0.000000
1.250000 0.800000 0.000000
1.375000 0.800000 0.000000
1.500000 0.650000 0.000000
1.500000 0.700000 0.000000
1.500000 0.750000 0.000000
1.125000 1.000000 0.000000
1.250000 1.000000 0.000000
1.375000 1.000000 0.000000
1.500000 0.850000 0.000000
1.500000 0.900000 0.000000
1.500000 0.950000 0.000000
1.125000 0.050000 0.000000
1.125000 0.100000 0.000000
1.125000 0.150000 0.000000
1.250000 0.050000 0.000000
1.250000 0.100000 0.000000
1.250000 0.150000 0.000000
1.375000 0.050000 0.000000
1.375000 0.100000 0.000000
1.375000 0.150000 0.000000
1.125000 0.250000 0.000000
1.125000 0.300000 0.000000
1.125000 0.350000 0.000000
1.250000 0.250000 0.000000
1.250000 0.300000 0.000000
1.250000 0.350000 0.000000
1.375000 0.250000 0.000000
1.375000 0.300000 0.000000
1.375000 0.350000 0.000000
1.125000 0.450000 0.000000
1.125000 0.500000 0.000000
1.125000 0.550000 0.000000
1.250000 0.450000 0.000000
1.250000 0.500000 0.000000
1.250000 0.550000 0.000000
1.375000 0.450000 0.000000
1.375000 0.500000 0.000000
1.375000 0.550000 0.000000
1.125000 0.650000 0.000000
1.125000 0.700000 0.000000
1.125000 0.750000 0.000000
1.250000 0.650000 0.000000
1.250000 0.700000 0.000000
1.250000 0.750000 0.000000
1.375000 0.650000 0.000000
1.375000 0.700000 0.000000
1.375000 0.750000 0.000000
1.125000 0.850000 0.000000
1.125000 0.900000 0.000000
1.125000 0.950000 0.000000
1.250000 0.850000 0.000000
1.250000 0.900000 0.000000
1.250000 0.950000 0.000000
1.375000 0.850000 0.000000
1.375000 0.900000 0.000000
1.375000 0.950000 0.000000
CELLS 80 400 
4 0 12 60 15
4 15 60 61 16
4 16 61 62 17
4 17 62 30  2
4 12 13 63 60
4 60 63 64 61
4 61 64 65 62
4 62 65 31 30
4 13 14 66 63
4 63 66 67 64
4 64 67 68 65
4 65 68 32 31
4 14  1 33 66
4 66 33 34 67
4 67 34 35 68
4 68 35  7 32
4 2 30 69 18
4 18 69 70 19
4 19 70 71 20
4 20 71 36  3
4 30 31 72 69
4 69 72 73 70
4 70 73 74 71
4 71 74 37 36
4 31 32 75 72
4 72 75 76 73
4 73 76 77 74
4 74 77 38 37
4 32  7 39 75
4 75 39 40 76
4 76 40 41 77
4 77 41  8 38
4 3 36 78 21
4 21 78 79 22
4 22 79 80 23
4 23 80 42  4
4 36 37 81 78
4 78 81 82 79
4 79 82 83 80
4 80 83 43 42
4 37 38 84 81
4 81 84 85 82
4 82 85 86 83
4 83 86 44 43
4 38  8 45 84
4 84 45 46 85
4 85 46 47 86
4 86 47  9 44
4 4 42 87 24
4 24 87 88 25
4 25 88 89 26
4 26 89 48  5
4 42 43 90 87
4 87 90 91 88
4 88 91 92 89
4 89 92 49 48
4 43 44 93 90
4 90 93 94 91
4 91 94 95 92
4 92 95 50 49
4 44  9 51 93
4 93 51 52 94
4 94 52 53 95
4 95 53 10 50
4 5 48 96 27
4 27 96 97 28
4 28 97 98 29
4 29 98 54  6
4 48 49 99 96
4 96  99 100  97
4 97 100 101  98
4 98 101  55  54
4 49  50 102  99
4 99 102 103 100
4 100 103 104 101
4 101 104  56  55
4 50  10  57 102
4 102  57  58 103
4 103  58  59 104
4 104  59  11  56
CELL_TYPES 80
9 9 9 9 9 9 9 9 9 9 9 9 9 9 9 9 9 9 9 9 9 9 9 9 9 9 9 9 9 9 9 9 9 9 9 9 9 9 9 9 9 9 9 9 9 9 9 9 9 9 9 9 9 9 9 9 9 9 9 9 9 9 9 9 9 9 9 9 9 9 9 9 9 9 9 9 9 9 9 9 
POINT_DATA 105
VECTORS displacement_ITER1 FLOAT
 6.000142e-15  2.458631e-15  0 
 5.758272e-15  7.411621e-15  0 
 4.191032e-15  2.496901e-15  0 
 1.910769e-15  2.555657e-15  0 
 -3.935383e-16  2.560305e-15  0 
 -2.670968e-15  2.567521e-15  0 
 -4.505834e-15  2.534143e-15  0 
 3.595830e-15  7.448806e-15  0 
 1.612847e-15  7.579439e-15  0 
 -1.481394e-16  7.584100e-15  0 
 -2.134624e-15  7.520539e-15  0 
 -4.272186e-15  7.488236e-15  0 
 5.929921e-15  3.631170e-15  0 
 5.875345e-15  4.838512e-15  0 
 5.822828e-15  6.106951e-15  0 
 5.533387e-15  2.461166e-15  0 
 5.068971e-15  2.469446e-15  0 
 4.616866e-15  2.483115e-15  0 
 4.379271e-15  2.467020e-15  0 
 3.929934e-15  2.348990e-15  0 
 3.073893e-15  2.324392e-15  0 
 1.323613e-15  2.567063e-15  0 
 7.550364e-16  2.572661e-15  0 
 1.880922e-16  2.569612e-15  0 
 -1.473852e-15  2.353786e-15  0 
 -2.306410e-15  2.389325e-15  0 
 -2.777790e-15  2.517192e-15  0 
 -3.106495e-15  2.555722e-15  0 
 -3.564988e-15  2.543737e-15  0 
 -4.034319e-15  2.536404e-15  0 
 4.041940e-15  3.618948e-15  0 
 3.892913e-15  4.838296e-15  0 
 3.745373e-15  6.094836e-15  0 
 5.233612e-15  7.414176e-15  0 
 4.706054e-15  7.422524e-15  0 
 4.165039e-15  7.436083e-15  0 
 1.829609e-15  3.955706e-15  0 
 1.749247e-15  5.245019e-15  0 
 1.675236e-15  6.458599e-15  0 
 2.396698e-15  7.418683e-15  0 
 1.792579e-15  7.318674e-15  0 
 1.565171e-15  7.320045e-15  0 
 -3.266185e-16  3.954723e-15  0 
 -2.582797e-16  5.245433e-15  0 
 -1.962907e-16  6.457625e-15  0 
 1.181573e-15  7.590856e-15  0 
 7.359337e-16  7.596155e-15  0 
 2.886625e-16  7.593413e-15  0 
 -2.537395e-15  3.704410e-15  0 
 -2.402269e-15  4.926311e-15  0 
 -2.268624e-15  6.180841e-15  0 
 -1.833060e-16  7.349709e-15  0 
 -4.343042e-16  7.359481e-15  0 
 -1.015875e-15  7.469851e-15  0 
 -4.437773e-15  3.715868e-15  0 
 -4.385141e-15  4.927067e-15  0 
 -4.334570e-15  6.192197e-15  0 
 -2.694358e-15  7.509795e-15  0 
 -3.229187e-15  7.497917e-15  0 
 -3.752051e-15  7.490517e-15  0 
 5.455616e-15  3.630726e-15  0 
 4.982231e-15  3.628706e-15  0 
 4.511795e-15  3.624239e-15  0 
 5.380095e-15  4.837722e-15  0 
 4.884608e-15  4.836014e-15  0 
 4.388952e-15  4.835519e-15  0 
 5.306289e-15  6.106464e-15  0 
 4.788258e-15  6.104299e-15  0 
 4.266901e-15  6.099705e-15  0 
 3.556699e-15  3.643966e-15  0 
 3.051578e-15  3.800228e-15  0 
 2.450943e-15  3.942166e-15  0 
 3.360413e-15  4.954522e-15  0 
 2.824477e-15  5.049547e-15  0 
 2.287898e-15  5.143245e-15  0 
 3.167290e-15  6.133202e-15  0 
 2.609035e-15  6.292226e-15  0 
 2.135876e-15  6.436828e-15  0 
 1.290721e-15  3.952652e-15  0 
 7.511040e-16  3.950905e-15  0 
 2.118299e-16  3.952060e-15  0 
 1.247644e-15  5.247342e-15  0 
 7.454845e-16  5.247945e-15  0 
 2.433249e-16  5.247333e-15  0 
 1.208037e-15  6.456200e-15  0 
 7.398655e-16  6.454948e-15  0 
 2.713498e-16  6.455612e-15  0 
 -9.410302e-16  3.954806e-15  0 
 -1.535650e-15  3.841610e-15  0 
 -2.045490e-15  3.714354e-15  0 
 -7.969633e-16  5.165049e-15  0 
 -1.333631e-15  5.092176e-15  0 
 -1.869636e-15  5.018901e-15  0 
 -6.639035e-16  6.449645e-15  0 
 -1.143145e-15  6.333974e-15  0 
 -1.697032e-15  6.203995e-15  0 
 -3.010499e-15  3.709367e-15  0 
 -3.484303e-15  3.713509e-15  0 
 -3.960720e-15  3.715424e-15  0 
 -2.898417e-15  4.924106e-15  0 
 -3.394184e-15  4.924746e-15  0 
 -3.889781e-15  4.926351e-15  0 
 -2.787129e-15  6.185384e-15  0 
 -3.305341e-15  6.189654e-15  0 
 -3.820559e-15  6.191712e-15  0 
VECTORS displacement_ITER2 FLOAT
 -9.562144e-15  -5.397218e-15  0 
 -9.604528e-15  -1.429774e-14  0 
 -5.858988e-15  -5.353082e-15  0 
 -2.337586e-15  -4.570337e-15  0 
 1.108452e-15  -4.571067e-15  0 
 4.627376e-15  -5.271886e-15  0 
 8.340682e-15  -5.316208e-15  0 
 -6.177593e-15  -1.426357e-14  0 
 -2.544795e-15  -1.374218e-14  0 
 1.307809e-15  -1.374373e-14  0 
 4.947191e-15  -1.421737e-14  0 
 8.390875e-15  -1.425234e-14  0 
 -9.563750e-15  -7.657017e-15  0 
 -9.581570e-15  -9.892953e-15  0 
 -9.598899e-15  -1.210696e-14  0 
 -8.645776e-15  -5.395362e-15  0 
 -7.729050e-15  -5.388725e-15  0 
 -6.803538e-15  -5.375401e-15  0 
 -4.809561e-15  -5.090857e-15  0 
 -3.890717e-15  -4.738077e-15  0 
 -3.002305e-15  -4.521641e-15  0 
 -1.485122e-15  -4.569516e-15  0 
 -6.157893e-16  -4.568556e-15  0 
 2.540893e-16  -4.569991e-15  0 
 1.733483e-15  -4.538753e-15  0 
 2.596644e-15  -4.709273e-15  0 
 3.533865e-15  -5.010022e-15  0 
 5.573339e-15  -5.293864e-15  0 
 6.501304e-15  -5.307362e-15  0 
 7.420974e-15  -5.314245e-15  0 
 -5.957563e-15  -7.653810e-15  0 
 -6.021167e-15  -9.883958e-15  0 
 -6.083121e-15  -1.210619e-14  0 
 -8.737212e-15  -1.429637e-14  0 
 -7.871657e-15  -1.429128e-14  0 
 -7.015237e-15  -1.428085e-14  0 
 -2.411621e-15  -6.789282e-15  0 
 -2.452446e-15  -9.072442e-15  0 
 -2.488329e-15  -1.138127e-14  0 
 -5.438764e-15  -1.410130e-14  0 
 -4.563846e-15  -1.383572e-14  0 
 -3.653604e-15  -1.367714e-14  0 
 1.178576e-15  -6.788889e-15  0 
 1.219235e-15  -9.071031e-15  0 
 1.255145e-15  -1.138112e-14  0 
 -1.574348e-15  -1.374138e-14  0 
 -6.172274e-16  -1.374080e-14  0 
 3.393334e-16  -1.374225e-14  0 
 4.723575e-15  -7.582303e-15  0 
 4.789886e-15  -9.822605e-15  0 
 4.854633e-15  -1.205243e-14  0 
 2.457960e-15  -1.370485e-14  0 
 3.392810e-15  -1.382564e-14  0 
 4.250789e-15  -1.404723e-14  0 
 8.345223e-15  -7.584970e-15  0 
 8.364479e-15  -9.830227e-15  0 
 8.383097e-15  -1.205284e-14  0 
 5.789963e-15  -1.423456e-14  0 
 6.650725e-15  -1.424537e-14  0 
 7.520130e-15  -1.425083e-14  0 
 -8.664734e-15  -7.656383e-15  0 
 -7.762465e-15  -7.655176e-15  0 
 -6.858852e-15  -7.654269e-15  0 
 -8.691478e-15  -9.893106e-15  0 
 -7.801424e-15  -9.892576e-15  0 
 -6.911240e-15  -9.889755e-15  0 
 -8.718296e-15  -1.210666e-14  0 
 -7.840179e-15  -1.210626e-14  0 
 -6.963105e-15  -1.210624e-14  0 
 -5.072993e-15  -7.421737e-15  0 
 -4.166784e-15  -7.206128e-15  0 
 -3.278069e-15  -6.995109e-15  0 
 -5.138179e-15  -9.683756e-15  0 
 -4.249662e-15  -9.477094e-15  0 
 -3.354441e-15  -9.270465e-15  0 
 -5.202776e-15  -1.190877e-14  0 
 -4.325784e-15  -1.172872e-14  0 
 -3.421566e-15  -1.155288e-14  0 
 -1.510474e-15  -6.787901e-15  0 
 -6.159154e-16  -6.788456e-15  0 
 2.784083e-16  -6.787867e-15  0 
 -1.534413e-15  -9.067331e-15  0 
 -6.166089e-16  -9.064688e-15  0 
 3.012026e-16  -9.066525e-15  0 
 -1.555234e-15  -1.138022e-14  0 
 -6.172735e-16  -1.138069e-14  0 
 3.209486e-16  -1.138033e-14  0 
 2.039185e-15  -6.968584e-15  0 
 2.923632e-15  -7.170151e-15  0 
 3.832975e-15  -7.376493e-15  0 
 2.120472e-15  -9.255171e-15  0 
 3.015658e-15  -9.445067e-15  0 
 3.905144e-15  -9.635358e-15  0 
 2.192542e-15  -1.153081e-14  0 
 3.101644e-15  -1.170190e-14  0 
 3.977085e-15  -1.187714e-14  0 
 5.629370e-15  -7.582377e-15  0 
 6.536757e-15  -7.583154e-15  0 
 7.442588e-15  -7.584333e-15  0 
 5.683484e-15  -9.827895e-15  0 
 6.577207e-15  -9.830219e-15  0 
 7.470816e-15  -9.830466e-15  0 
 5.737099e-15  -1.205216e-14  0 
 6.617375e-15  -1.205209e-14  0 
 7.498975e-15  -1.205251e-14  0 
VECTORS displacement_ITER3 FLOAT
 1.035503e-15  2.196515e-16  0 
 9.719410e-16  1.000988e-15  0 
 8.927055e-16  2.459683e-16  0 
 4.431947e-16  5.867187e-16  0 
 -1.083534e-16  5.861512e-16  0 
 -5.864232e-16  1.604338e-16  0 
 -7.722939e-16  1.336857e-16  0 
 4.927582e-16  1.024152e-15  0 
 2.130171e-16  1.379323e-15  0 
 9.066289e-17  1.379562e-15  0 
 -2.128662e-16  1.011521e-15  0 
 -7.077729e-16  9.885108e-16  0 
 1.015179e-15  3.576515e-16  0 
 1.003458e-15  5.285803e-16  0 
 9.916502e-16  7.486973e-16  0 
 9.796961e-16  2.199032e-16  0 
 9.308118e-16  2.224257e-16  0 
 8.968182e-16  2.301531e-16  0 
 1.015508e-15  3.175204e-16  0 
 9.426779e-16  5.063248e-16  0 
 7.856729e-16  6.347498e-16  0 
 2.949290e-16  5.852823e-16  0 
 1.647902e-16  5.858332e-16  0 
 3.579730e-17  5.852107e-16  0 
 -4.379338e-16  5.911786e-16  0 
 -6.016227e-16  4.439799e-16  0 
 -6.879329e-16  2.456700e-16  0 
 -6.037764e-16  1.445688e-16  0 
 -6.486642e-16  1.367223e-16  0 
 -7.074484e-16  1.340261e-16  0 
 7.718219e-16  3.482867e-16  0 
 6.897114e-16  5.365909e-16  0 
 6.092838e-16  7.405764e-16  0 
 8.712638e-16  1.001390e-15  0 
 7.640392e-16  1.004034e-15  0 
 6.426071e-16  1.011096e-15  0 
 3.670495e-16  8.723734e-16  0 
 3.166463e-16  1.086475e-15  0 
 2.717145e-16  1.261791e-15  0 
 2.245908e-16  1.083027e-15  0 
 1.277217e-16  1.269366e-15  0 
 9.466426e-17  1.406033e-15  0 
 -4.208037e-17  8.701833e-16  0 
 2.207246e-18  1.086012e-15  0 
 4.132232e-17  1.260207e-15  0 
 1.910054e-16  1.379271e-15  0 
 1.545446e-16  1.380211e-15  0 
 1.169075e-16  1.379635e-15  0 
 -4.727035e-16  2.892629e-16  0 
 -3.965245e-16  4.973988e-16  0 
 -3.220109e-16  7.176978e-16  0 
 1.948371e-16  1.386965e-15  0 
 1.556490e-16  1.253345e-15  0 
 5.464672e-17  1.074307e-15  0 
 -7.531289e-16  2.967868e-16  0 
 -7.395759e-16  4.891804e-16  0 
 -7.261779e-16  7.244521e-16  0 
 -3.643212e-16  9.986289e-16  0 
 -4.895508e-16  9.916372e-16  0 
 -6.016020e-16  9.889538e-16  0 
 9.556075e-16  3.569120e-16  0 
 8.958456e-16  3.546720e-16  0 
 8.362289e-16  3.511742e-16  0 
 9.251950e-16  5.286641e-16  0 
 8.469054e-16  5.293099e-16  0 
 7.684837e-16  5.318478e-16  0 
 8.949881e-16  7.480021e-16  0 
 7.983293e-16  7.459125e-16  0 
 7.014003e-16  7.427332e-16  0 
 6.909761e-16  4.883634e-16  0 
 6.090481e-16  6.249036e-16  0 
 4.999232e-16  7.553403e-16  0 
 5.974250e-16  6.737301e-16  0 
 5.038012e-16  8.148249e-16  0 
 4.105306e-16  9.544091e-16  0 
 5.077248e-16  8.835249e-16  0 
 4.084358e-16  1.016938e-15  0 
 3.303716e-16  1.144071e-15  0 
 2.678668e-16  8.724865e-16  0 
 1.627675e-16  8.709474e-16  0 
 5.766994e-17  8.711847e-16  0 
 2.382798e-16  1.089914e-15  0 
 1.595264e-16  1.091620e-15  0 
 8.072741e-17  1.089654e-15  0 
 2.120322e-16  1.262169e-15  0 
 1.563586e-16  1.261085e-15  0 
 1.006153e-16  1.261161e-15  0 
 -1.765429e-16  7.383621e-16  0 
 -2.914904e-16  5.930397e-16  0 
 -3.821985e-16  4.424688e-16  0 
 -9.539454e-17  9.432510e-16  0 
 -1.942718e-16  7.942791e-16  0 
 -2.950738e-16  6.438584e-16  0 
 -2.267042e-17  1.137308e-15  0 
 -1.058266e-16  1.003685e-15  0 
 -2.118667e-16  8.646356e-16  0 
 -5.460230e-16  2.915660e-16  0 
 -6.148937e-16  2.944177e-16  0 
 -6.839346e-16  2.962146e-16  0 
 -4.826007e-16  4.925482e-16  0 
 -5.683575e-16  4.899467e-16  0 
 -6.539945e-16  4.892593e-16  0 
 -4.199154e-16  7.194749e-16  0 
 -5.223106e-16  7.221539e-16  0 
 -6.243902e-16  7.238898e-16  0 
VECTORS displacement_ITER4 FLOAT
 -1.735124e-16  -2.187556e-16  0 
 -2.159093e-16  -5.363550e-16  0 
 1.392651e-16  -2.053869e-16  0 
 9.692824e-17  -1.054131e-16  0 
 -3.652540e-17  -1.043499e-16  0 
 -7.487481e-17  -1.932656e-16  0 
 2.288757e-16  -2.051840e-16  0 
 -2.739740e-16  -5.223633e-16  0 
 -1.214237e-16  -3.256923e-16  0 
 1.505689e-16  -3.247865e-16  0 
 3.084815e-16  -5.275997e-16  0 
 2.733491e-16  -5.396338e-16  0 
 -1.954434e-16  -3.679167e-16  0 
 -1.958495e-16  -4.791267e-16  0 
 -1.966643e-16  -5.263686e-16  0 
 -1.203929e-16  -2.187844e-16  0 
 -5.789555e-17  -2.176207e-16  0 
 2.186579e-17  -2.135252e-16  0 
 3.164547e-16  -2.567291e-16  0 
 3.305492e-16  -1.724640e-16  0 
 2.554333e-16  -8.382127e-17  0 
 5.388528e-17  -1.099149e-16  0 
 2.762440e-17  -1.097798e-16  0 
 2.460865e-18  -1.090128e-16  0 
 -1.801004e-16  -8.009223e-17  0 
 -2.453595e-16  -1.642831e-16  0 
 -2.360665e-16  -2.463973e-16  0 
 3.800564e-17  -2.012784e-16  0 
 1.157487e-16  -2.047721e-16  0 
 1.768875e-16  -2.054184e-16  0 
 1.278115e-17  -3.836645e-16  0 
 -7.059208e-17  -4.719032e-16  0 
 -1.524520e-16  -5.392159e-16  0 
 -2.075096e-16  -5.360157e-16  0 
 -2.073030e-16  -5.340810e-16  0 
 -2.231544e-16  -5.295181e-16  0 
 2.698918e-17  -7.472234e-17  0 
 -2.302512e-17  -1.105978e-16  0 
 -6.786740e-17  -1.913795e-16  0 
 -3.819939e-16  -5.390044e-16  0 
 -3.594878e-16  -4.278766e-16  0 
 -2.706599e-16  -3.206278e-16  0 
 2.389683e-17  -7.568826e-17  0 
 6.780888e-17  -1.105198e-16  0 
 1.064628e-16  -1.925246e-16  0 
 -4.552113e-17  -3.280736e-16  0 
 1.714007e-17  -3.274538e-16  0 
 7.872223e-17  -3.271885e-16  0 
 4.332276e-17  -3.674577e-16  0 
 1.201238e-16  -4.581549e-16  0 
 1.952988e-16  -5.313602e-16  0 
 2.817723e-16  -3.238502e-16  0 
 3.622200e-16  -4.346606e-16  0 
 3.948406e-16  -5.481349e-16  0 
 2.507742e-16  -3.524417e-16  0 
 2.521296e-16  -4.652770e-16  0 
 2.539158e-16  -5.192983e-16  0 
 2.656376e-16  -5.343526e-16  0 
 2.553469e-16  -5.381668e-16  0 
 2.603056e-16  -5.395114e-16  0 
 -1.400749e-16  -3.693966e-16  0 
 -8.642551e-17  -3.735604e-16  0 
 -3.316047e-17  -3.796457e-16  0 
 -1.642789e-16  -4.789610e-16  0 
 -1.327377e-16  -4.782863e-16  0 
 -1.014734e-16  -4.757347e-16  0 
 -1.882266e-16  -5.276093e-16  0 
 -1.786477e-16  -5.311246e-16  0 
 -1.689543e-16  -5.362817e-16  0 
 4.416795e-17  -2.969749e-16  0 
 5.787305e-17  -2.160450e-16  0 
 5.314547e-17  -1.425145e-16  0 
 -5.481699e-17  -3.808022e-16  0 
 -4.197284e-17  -2.868318e-16  0 
 -3.110314e-17  -1.950784e-16  0 
 -1.484010e-16  -4.386178e-16  0 
 -1.332767e-16  -3.494850e-16  0 
 -1.085665e-16  -2.686110e-16  0 
 2.897381e-17  -7.432960e-17  0 
 2.556504e-17  -7.569211e-17  0 
 2.224803e-17  -7.503455e-17  0 
 -1.729030e-19  -1.083977e-16  0 
 2.236493e-17  -1.069462e-16  0 
 4.491580e-17  -1.083799e-16  0 
 -2.607645e-17  -1.908338e-16  0 
 1.918518e-17  -1.918929e-16  0 
 6.434543e-17  -1.916327e-16  0 
 9.488480e-19  -1.407220e-16  0 
 -2.200131e-18  -2.092368e-16  0 
 1.231457e-17  -2.841950e-16  0 
 7.645786e-17  -1.923032e-16  0 
 8.836554e-17  -2.807333e-16  0 
 1.025110e-16  -3.712561e-16  0 
 1.444419e-16  -2.698871e-16  0 
 1.694645e-16  -3.472487e-16  0 
 1.871209e-16  -4.318469e-16  0 
 8.928299e-17  -3.635965e-16  0 
 1.421593e-16  -3.578553e-16  0 
 1.955841e-16  -3.538686e-16  0 
 1.526738e-16  -4.618457e-16  0 
 1.856381e-16  -4.643308e-16  0 
 2.188694e-16  -4.650729e-16  0 
 2.152652e-16  -5.286526e-16  0 
 2.287431e-16  -5.238475e-16  0 
 2.419496e-16  -5.204989e-16  0 
VECTORS displacement_ITER5 FLOAT
 -4.464091e-15  -2.607835e-15  0 
 -4.449289e-15  -7.316890e-15  0 
 -2.376705e-15  -2.595072e-15  0 
 -6.268183e-16  -2.530040e-15  0 
 1.037386e-15  -2.528137e-15  0 
 2.807336e-15  -2.499438e-15  0 
 4.905627e-15  -2.509401e-15  0 
 -2.765692e-15  -7.304325e-15  0 
 -8.271755e-16  -7.204485e-15  0 
 1.211096e-15  -7.203082e-15  0 
 3.169036e-15  -7.275434e-15  0 
 4.895332e-15  -7.285062e-15  0 
 -4.469977e-15  -3.859971e-15  0 
 -4.456898e-15  -5.070666e-15  0 
 -4.444340e-15  -6.214158e-15  0 
 -3.965704e-15  -2.606399e-15  0 
 -3.460494e-15  -2.602423e-15  0 
 -2.939468e-15  -2.597380e-15  0 
 -1.871130e-15  -2.651194e-15  0 
 -1.419044e-15  -2.595894e-15  0 
 -1.033489e-15  -2.520021e-15  0 
 -2.193116e-16  -2.538069e-15  0 
 2.029819e-16  -2.538458e-15  0 
 6.262407e-16  -2.536629e-15  0 
 1.448416e-15  -2.480919e-15  0 
 1.849673e-15  -2.530704e-15  0 
 2.304747e-15  -2.569830e-15  0 
 3.371002e-15  -2.501493e-15  0 
 3.895236e-15  -2.505401e-15  0 
 4.403995e-15  -2.508379e-15  0 
 -2.499058e-15  -3.874653e-15  0 
 -2.574577e-15  -5.064310e-15  0 
 -2.648801e-15  -6.226638e-15  0 
 -4.006786e-15  -7.315400e-15  0 
 -3.570422e-15  -7.311323e-15  0 
 -3.148900e-15  -7.306274e-15  0 
 -6.923274e-16  -3.622430e-15  0 
 -7.376255e-16  -4.771723e-15  0 
 -7.782337e-16  -5.965163e-15  0 
 -2.331642e-15  -7.330863e-15  0 
 -1.858889e-15  -7.269311e-15  0 
 -1.328053e-15  -7.197790e-15  0 
 1.094637e-15  -3.622161e-15  0 
 1.135039e-15  -4.770901e-15  0 
 1.170468e-15  -5.965447e-15  0 
 -3.107763e-16  -7.209670e-15  0 
 1.941788e-16  -7.209460e-15  0 
 6.982185e-16  -7.208419e-15  0 
 2.921565e-15  -3.788797e-15  0 
 2.991668e-15  -4.993679e-15  0 
 3.060314e-15  -6.173534e-15  0 
 1.703641e-15  -7.180732e-15  0 
 2.227519e-15  -7.248864e-15  0 
 2.712688e-15  -7.310784e-15  0 
 4.913231e-15  -3.773659e-15  0 
 4.900536e-15  -4.999411e-15  0 
 4.888530e-15  -6.161065e-15  0 
 3.564917e-15  -7.276932e-15  0 
 3.996762e-15  -7.280825e-15  0 
 4.442833e-15  -7.283939e-15  0 
 -3.974614e-15  -3.861320e-15  0 
 -3.479896e-15  -3.865367e-15  0 
 -2.984933e-15  -3.871765e-15  0 
 -3.986119e-15  -5.070690e-15  0 
 -3.515363e-15  -5.070290e-15  0 
 -3.044854e-15  -5.067570e-15  0 
 -3.997721e-15  -6.215326e-15  0 
 -3.550669e-15  -6.218850e-15  0 
 -3.103896e-15  -6.224449e-15  0 
 -2.023623e-15  -3.796227e-15  0 
 -1.572124e-15  -3.734965e-15  0 
 -1.121140e-15  -3.682507e-15  0 
 -2.113824e-15  -4.989782e-15  0 
 -1.653927e-15  -4.912923e-15  0 
 -1.195333e-15  -4.838347e-15  0 
 -2.199650e-15  -6.144090e-15  0 
 -1.731412e-15  -6.079317e-15  0 
 -1.265038e-15  -6.024686e-15  0 
 -2.427111e-16  -3.620955e-15  0 
 2.012709e-16  -3.621935e-15  0 
 6.453466e-16  -3.621069e-15  0 
 -2.694240e-16  -4.770112e-15  0 
 1.986209e-16  -4.768567e-15  0 
 6.667033e-16  -4.769683e-15  0 
 -2.928920e-16  -5.963975e-15  0 
 1.959753e-16  -5.964824e-15  0 
 6.847639e-16  -5.964354e-15  0 
 1.527862e-15  -3.661754e-15  0 
 1.983504e-15  -3.692165e-15  0 
 2.441362e-15  -3.730678e-15  0 
 1.595204e-15  -4.820595e-15  0 
 2.058056e-15  -4.877887e-15  0 
 2.523480e-15  -4.937271e-15  0 
 1.656851e-15  -6.013919e-15  0 
 2.126406e-15  -6.053619e-15  0 
 2.600987e-15  -6.102697e-15  0 
 3.412776e-15  -3.785601e-15  0 
 3.912564e-15  -3.779209e-15  0 
 4.412373e-15  -3.775066e-15  0 
 3.468532e-15  -4.996512e-15  0 
 3.945696e-15  -4.998960e-15  0 
 4.423111e-15  -4.999382e-15  0 
 3.523478e-15  -6.171276e-15  0 
 3.978752e-15  -6.165820e-15  0 
 4.434063e-15  -6.162276e-15  0 
VECTORS displacement_ITER6 FLOAT
 2.333846e-16  2.490275e-16  0 
 2.574771e-16  6.140802e-16  0 
 3.124665e-16  2.696621e-16  0 
 2.981852e-17  3.011824e-16  0 
 -3.553077e-16  3.001392e-16  0 
 -6.545456e-16  2.442864e-16  0 
 -5.984711e-16  2.235532e-16  0 
 -1.089767e-16  6.330534e-16  0 
 -1.854119e-16  6.902653e-16  0 
 -1.548045e-16  6.901985e-16  0 
 -2.447063e-16  6.425305e-16  0 
 -6.161550e-16  6.236829e-16  0 
 2.324693e-16  2.596672e-16  0 
 2.456403e-16  3.159363e-16  0 
 2.586042e-16  4.424259e-16  0 
 2.325957e-16  2.520551e-16  0 
 2.355362e-16  2.599183e-16  0 
 2.528674e-16  2.690288e-16  0 
 3.157104e-16  2.430345e-16  0 
 2.730903e-16  2.612341e-16  0 
 1.360141e-16  2.973785e-16  0 
 -7.456054e-17  2.929061e-16  0 
 -1.644417e-16  2.922926e-16  0 
 -2.536143e-16  2.928522e-16  0 
 -4.837414e-16  2.887445e-16  0 
 -6.251753e-16  2.471035e-16  0 
 -6.700493e-16  2.234800e-16  0 
 -6.019467e-16  2.430326e-16  0 
 -5.902081e-16  2.340952e-16  0 
 -5.925818e-16  2.264591e-16  0 
 1.838457e-16  2.471412e-16  0 
 9.876866e-17  3.205444e-16  0 
 1.496063e-17  4.310779e-16  0 
 1.855904e-16  6.168705e-16  0 
 1.099160e-16  6.241669e-16  0 
 2.018940e-17  6.326287e-16  0 
 -4.081817e-17  4.841088e-16  0 
 -9.017785e-17  6.037427e-16  0 
 -1.342403e-16  6.726582e-16  0 
 -1.947610e-16  6.211573e-16  0 
 -2.368308e-16  6.368560e-16  0 
 -1.900510e-16  6.703555e-16  0 
 -2.903658e-16  4.833739e-16  0 
 -2.429951e-16  6.039204e-16  0 
 -2.008587e-16  6.722817e-16  0 
 -1.714820e-16  6.854912e-16  0 
 -1.684399e-16  6.858053e-16  0 
 -1.661043e-16  6.859396e-16  0 
 -5.295692e-16  2.343725e-16  0 
 -4.463844e-16  3.174325e-16  0 
 -3.645324e-16  4.357856e-16  0 
 -1.315958e-16  6.764819e-16  0 
 -8.666446e-17  6.486766e-16  0 
 -1.380216e-16  6.346074e-16  0 
 -5.961227e-16  2.464819e-16  0 
 -6.073353e-16  3.129552e-16  0 
 -6.184181e-16  4.467139e-16  0 
 -3.736504e-16  6.416445e-16  0 
 -4.646866e-16  6.334256e-16  0 
 -5.422119e-16  6.263790e-16  0 
 2.211369e-16  2.587055e-16  0 
 2.106690e-16  2.553565e-16  0 
 2.016130e-16  2.492194e-16  0 
 2.090871e-16  3.155773e-16  0 
 1.724919e-16  3.153418e-16  0 
 1.357102e-16  3.177250e-16  0 
 1.968900e-16  4.415293e-16  0 
 1.344074e-16  4.384218e-16  0 
 7.064797e-17  4.327780e-16  0 
 1.557477e-16  3.170703e-16  0 
 1.019294e-16  3.808418e-16  0 
 4.395009e-17  4.341803e-16  0 
 5.285408e-17  3.951437e-16  0 
 6.224863e-18  4.686090e-16  0 
 -4.179891e-17  5.395901e-16  0 
 -4.679643e-17  5.031631e-16  0 
 -8.598316e-17  5.700625e-16  0 
 -1.219103e-16  6.249750e-16  0 
 -1.001169e-16  4.854689e-16  0 
 -1.651638e-16  4.841977e-16  0 
 -2.302934e-16  4.848242e-16  0 
 -1.282570e-16  6.051670e-16  0 
 -1.665316e-16  6.065915e-16  0 
 -2.048397e-16  6.053473e-16  0 
 -1.526481e-16  6.737326e-16  0 
 -1.678203e-16  6.728059e-16  0 
 -1.829774e-16  6.732963e-16  0 
 -3.771322e-16  4.317500e-16  0 
 -4.398991e-16  3.736469e-16  0 
 -4.966204e-16  3.055766e-16  0 
 -2.937678e-16  5.382482e-16  0 
 -3.449030e-16  4.667143e-16  0 
 -3.955792e-16  3.927822e-16  0 
 -2.153054e-16  6.276035e-16  0 
 -2.534548e-16  5.720479e-16  0 
 -2.979416e-16  5.048547e-16  0 
 -5.515158e-16  2.364565e-16  0 
 -5.651796e-16  2.423496e-16  0 
 -5.802142e-16  2.455683e-16  0 
 -4.868630e-16  3.146315e-16  0 
 -5.271728e-16  3.123561e-16  0 
 -5.672838e-16  3.125992e-16  0 
 -4.231219e-16  4.375237e-16  0 
 -4.893345e-16  4.429117e-16  0 
 -5.542701e-16  4.458658e-16  0 
VECTORS displacement_ITER7 FLOAT
 -3.722701e-15  -2.127265e-15  0 
 -3.659733e-15  -5.861622e-15  0 
 -1.995269e-15  -2.098642e-15  0 
 -5.803414e-16  -1.955931e-15  0 
 7.284091e-16  -1.956692e-15  0 
 2.135223e-15  -2.178122e-15  0 
 3.848026e-15  -2.207920e-15  0 
 -2.392301e-15  -5.836786e-15  0 
 -7.939414e-16  -5.791886e-15  0 
 9.226613e-16  -5.791922e-15  0 
 2.514624e-15  -5.904068e-15  0 
 3.786918e-15  -5.929804e-15  0 
 -3.708253e-15  -3.140634e-15  0 
 -3.689927e-15  -4.106620e-15  0 
 -3.671687e-15  -5.007586e-15  0 
 -3.307260e-15  -2.123543e-15  0 
 -2.890465e-15  -2.113170e-15  0 
 -2.460657e-15  -2.099342e-15  0 
 -1.653697e-15  -2.027024e-15  0 
 -1.271100e-15  -1.975877e-15  0 
 -9.324943e-16  -1.955335e-15  0 
 -2.605286e-16  -1.963237e-15  0 
 7.203624e-17  -1.963356e-15  0 
 4.055155e-16  -1.963080e-15  0 
 1.079504e-15  -1.970743e-15  0 
 1.416799e-15  -2.018477e-15  0 
 1.794611e-15  -2.094020e-15  0 
 2.595402e-15  -2.179546e-15  0 
 3.021328e-15  -2.193523e-15  0 
 3.434981e-15  -2.204110e-15  0 
 -2.116700e-15  -3.147334e-15  0 
 -2.196226e-15  -4.102759e-15  0 
 -2.274869e-15  -5.014972e-15  0 
 -3.326434e-15  -5.858348e-15  0 
 -2.995119e-15  -5.849162e-15  0 
 -2.676759e-15  -5.836973e-15  0 
 -6.528611e-16  -2.833933e-15  0 
 -6.995933e-16  -3.772888e-15  0 
 -7.414223e-16  -4.757051e-15  0 
 -2.003141e-15  -5.791485e-15  0 
 -1.630341e-15  -5.777584e-15  0 
 -1.205653e-15  -5.786268e-15  0 
 7.944148e-16  -2.835565e-15  0 
 8.378405e-16  -3.773706e-15  0 
 8.763452e-16  -4.758586e-15  0 
 -3.590217e-16  -5.795591e-15  0 
 6.640565e-17  -5.794913e-15  0 
 4.908727e-16  -5.795128e-15  0 
 2.252301e-15  -3.217725e-15  0 
 2.327570e-15  -4.168196e-15  0 
 2.401877e-15  -5.079166e-15  0 
 1.332817e-15  -5.797150e-15  0 
 1.756920e-15  -5.811122e-15  0 
 2.128566e-15  -5.846230e-15  0 
 3.832495e-15  -3.212555e-15  0 
 3.816268e-15  -4.172655e-15  0 
 3.800070e-15  -5.073328e-15  0 
 2.802008e-15  -5.904932e-15  0 
 3.121835e-15  -5.917161e-15  0 
 3.453736e-15  -5.926454e-15  0 
 -3.311298e-15  -3.140975e-15  0 
 -2.912008e-15  -3.142892e-15  0 
 -2.510695e-15  -3.147470e-15  0 
 -3.316470e-15  -4.107151e-15  0 
 -2.943035e-15  -4.107608e-15  0 
 -2.569641e-15  -4.105271e-15  0 
 -3.321986e-15  -5.008024e-15  0 
 -2.974124e-15  -5.010122e-15  0 
 -2.627977e-15  -5.014764e-15  0 
 -1.730736e-15  -3.054890e-15  0 
 -1.362062e-15  -2.976642e-15  0 
 -9.959768e-16  -2.904068e-15  0 
 -1.825333e-15  -4.016571e-15  0 
 -1.451901e-15  -3.930076e-15  0 
 -1.077295e-15  -3.848025e-15  0 
 -1.918271e-15  -4.936958e-15  0 
 -1.540918e-15  -4.869199e-15  0 
 -1.153556e-15  -4.809001e-15  0 
 -2.880458e-16  -2.832280e-15  0 
 7.099680e-17  -2.833501e-15  0 
 4.300558e-16  -2.833354e-15  0 
 -3.151970e-16  -3.771284e-15  0 
 6.914215e-17  -3.770036e-15  0 
 4.534641e-16  -3.771658e-15  0 
 -3.386271e-16  -4.756144e-15  0 
 6.734483e-17  -4.757203e-15  0 
 4.732646e-16  -4.757134e-15  0 
 1.138004e-15  -2.924023e-15  0 
 1.503349e-15  -3.012789e-15  0 
 1.869728e-15  -3.107596e-15  0 
 1.214216e-15  -3.865679e-15  0 
 1.587284e-15  -3.964192e-15  0 
 1.958826e-15  -4.066501e-15  0 
 1.285796e-15  -4.826982e-15  0 
 1.670373e-15  -4.902076e-15  0 
 2.046324e-15  -4.985172e-15  0 
 2.643701e-15  -3.218271e-15  0 
 3.042253e-15  -3.214267e-15  0 
 3.438734e-15  -3.212741e-15  0 
 2.699718e-15  -4.171056e-15  0 
 3.071855e-15  -4.173563e-15  0 
 3.444044e-15  -4.173186e-15  0 
 2.755069e-15  -5.079356e-15  0 
 3.101492e-15  -5.075306e-15  0 
 3.449678e-15  -5.073615e-15  0 
VECTORS displacement_ITER8 FLOAT
 -5.702892e-16  -3.153908e-16  0 
 -5.264029e-16  -8.758439e-16  0 
 -1.069834e-16  -2.915930e-16  0 
 -2.575620e-18  -2.487019e-16  0 
 4.013992e-19  -2.480339e-16  0 
 1.070625e-16  -2.779074e-16  0 
 5.676649e-16  -3.013746e-16  0 
 -5.380466e-16  -8.532494e-16  0 
 -2.225009e-16  -8.419364e-16  0 
 2.043077e-16  -8.409042e-16  0 
 5.223974e-16  -8.555221e-16  0 
 5.263234e-16  -8.775442e-16  0 
 -5.645984e-16  -5.415047e-16  0 
 -5.481928e-16  -7.177178e-16  0 
 -5.317723e-16  -8.216203e-16  0 
 -4.737531e-16  -3.124822e-16  0 
 -3.735036e-16  -3.036009e-16  0 
 -2.576225e-16  -2.904944e-16  0 
 -5.743864e-17  -2.713928e-16  0 
 -8.187509e-18  -2.797017e-16  0 
 -5.523131e-18  -2.895071e-16  0 
 -8.811043e-18  -2.538291e-16  0 
 -2.799967e-18  -2.532297e-16  0 
 4.036585e-18  -2.530050e-16  0 
 1.186145e-18  -2.742946e-16  0 
 1.942772e-18  -2.647457e-16  0 
 5.326571e-17  -2.584899e-16  0 
 2.558159e-16  -2.769647e-16  0 
 3.709199e-16  -2.897567e-16  0 
 4.709977e-16  -2.985081e-16  0 
 -2.359434e-16  -5.509973e-16  0 
 -3.244397e-16  -7.142278e-16  0 
 -4.122104e-16  -8.310460e-16  0 