# vtk DataFile Version 3.1
this is an vtk file created by FEMAC
ASCII
DATASET UNSTRUCTURED_GRID
POINTS 105 FLOAT
3.500000 0.000000 0.000000
4.000000 0.000000 0.000000
3.500000 0.200000 0.000000
3.500000 0.400000 0.000000
3.500000 0.600000 0.000000
3.500000 0.800000 0.000000
3.500000 1.000000 0.000000
4.000000 0.200000 0.000000
4.000000 0.400000 0.000000
4.000000 0.600000 0.000000
4.000000 0.800000 0.000000
4.000000 1.000000 0.000000
3.625000 0.000000 0.000000
3.750000 0.000000 0.000000
3.875000 0.000000 0.000000
3.500000 0.050000 0.000000
3.500000 0.100000 0.000000
3.500000 0.150000 0.000000
3.500000 0.250000 0.000000
3.500000 0.300000 0.000000
3.500000 0.350000 0.000000
3.500000 0.450000 0.000000
3.500000 0.500000 0.000000
3.500000 0.550000 0.000000
3.500000 0.650000 0.000000
3.500000 0.700000 0.000000
3.500000 0.750000 0.000000
3.500000 0.850000 0.000000
3.500000 0.900000 0.000000
3.500000 0.950000 0.000000
3.625000 0.200000 0.000000
3.750000 0.200000 0.000000
3.875000 0.200000 0.000000
4.000000 0.050000 0.000000
4.000000 0.100000 0.000000
4.000000 0.150000 0.000000
3.625000 0.400000 0.000000
3.750000 0.400000 0.000000
3.875000 0.400000 0.000000
4.000000 0.250000 0.000000
4.000000 0.300000 0.000000
4.000000 0.350000 0.000000
3.625000 0.600000 0.000000
3.750000 0.600000 0.000000
3.875000 0.600000 0.000000
4.000000 0.450000 0.000000
4.000000 0.500000 0.000000
4.000000 0.550000 0.000000
3.625000 0.800000 0.000000
3.750000 0.800000 0.000000
3.875000 0.800000 0.000000
4.000000 0.650000 0.000000
4.000000 0.700000 0.000000
4.000000 0.750000 0.000000
3.625000 1.000000 0.000000
3.750000 1.000000 0.000000
3.875000 1.000000 0.000000
4.000000 0.850000 0.000000
4.000000 0.900000 0.000000
4.000000 0.950000 0.000000
3.625000 0.050000 0.000000
3.625000 0.100000 0.000000
3.625000 0.150000 0.000000
3.750000 0.050000 0.000000
3.750000 0.100000 0.000000
3.750000 0.150000 0.000000
3.875000 0.050000 0.000000
3.875000 0.100000 0.000000
3.875000 0.150000 0.000000
3.625000 0.250000 0.000000
3.625000 0.300000 0.000000
3.625000 0.350000 0.000000
3.750000 0.250000 0.000000
3.750000 0.300000 0.000000
3.750000 0.350000 0.000000
3.875000 0.250000 0.000000
3.875000 0.300000 0.000000
3.875000 0.350000 0.000000
3.625000 0.450000 0.000000
3.625000 0.500000 0.000000
3.625000 0.550000 0.000000
3.750000 0.450000 0.000000
3.750000 0.500000 0.000000
3.750000 0.550000 0.000000
3.875000 0.450000 0.000000
3.875000 0.500000 0.000000
3.875000 0.550000 0.000000
3.625000 0.650000 0.000000
3.625000 0.700000 0.000000
3.625000 0.750000 0.000000
3.750000 0.650000 0.000000
3.750000 0.700000 0.000000
3.750000 0.750000 0.000000
3.875000 0.650000 0.000000
3.875000 0.700000 0.000000
3.875000 0.750000 0.000000
3.625000 0.850000 0.000000
3.625000 0.900000 0.000000
3.625000 0.950000 0.000000
3.750000 0.850000 0.000000
3.750000 0.900000 0.000000
3.750000 0.950000 0.000000
3.875000 0.850000 0.000000
3.875000 0.900000 0.000000
3.875000 0.950000 0.000000
CELLS 80 400 
4 0 12 60 15
4 15 60 61 16
4 16 61 62 17
4 17 62 30  2
4 12 13 63 60
4 60 63 64 61
4 61 64 65 62
4 62 65 31 30
4 13 14 66 63
4 63 66 67 64
4 64 67 68 65
4 65 68 32 31
4 14  1 33 66
4 66 33 34 67
4 67 34 35 68
4 68 35  7 32
4 2 30 69 18
4 18 69 70 19
4 19 70 71 20
4 20 71 36  3
4 30 31 72 69
4 69 72 73 70
4 70 73 74 71
4 71 74 37 36
4 31 32 75 72
4 72 75 76 73
4 73 76 77 74
4 74 77 38 37
4 32  7 39 75
4 75 39 40 76
4 76 40 41 77
4 77 41  8 38
4 3 36 78 21
4 21 78 79 22
4 22 79 80 23
4 23 80 42  4
4 36 37 81 78
4 78 81 82 79
4 79 82 83 80
4 80 83 43 42
4 37 38 84 81
4 81 84 85 82
4 82 85 86 83
4 83 86 44 43
4 38  8 45 84
4 84 45 46 85
4 85 46 47 86
4 86 47  9 44
4 4 42 87 24
4 24 87 88 25
4 25 88 89 26
4 26 89 48  5
4 42 43 90 87
4 87 90 91 88
4 88 91 92 89
4 89 92 49 48
4 43 44 93 90
4 90 93 94 91
4 91 94 95 92
4 92 95 50 49
4 44  9 51 93
4 93 51 52 94
4 94 52 53 95
4 95 53 10 50
4 5 48 96 27
4 27 96 97 28
4 28 97 98 29
4 29 98 54  6
4 48 49 99 96
4 96  99 100  97
4 97 100 101  98
4 98 101  55  54
4 49  50 102  99
4 99 102 103 100
4 100 103 104 101
4 101 104  56  55
4 50  10  57 102
4 102  57  58 103
4 103  58  59 104
4 104  59  11  56
CELL_TYPES 80
9 9 9 9 9 9 9 9 9 9 9 9 9 9 9 9 9 9 9 9 9 9 9 9 9 9 9 9 9 9 9 9 9 9 9 9 9 9 9 9 9 9 9 9 9 9 9 9 9 9 9 9 9 9 9 9 9 9 9 9 9 9 9 9 9 9 9 9 9 9 9 9 9 9 9 9 9 9 9 9 
POINT_DATA 105
VECTORS displacement_ITER1 FLOAT
 5.245443e-10  3.677808e-09  0 
 -1.757244e-08  1.446891e-10  0 
 -7.896815e-10  5.058095e-09  0 
 2.844562e-10  5.005120e-09  0 
 2.870713e-10  -4.999776e-09  0 
 -7.815503e-10  -5.053257e-09  0 
 5.351000e-10  -3.652489e-09  0 
 -1.042945e-09  3.292003e-09  0 
 8.697116e-10  2.104359e-09  0 
 8.680876e-10  -2.119724e-09  0 
 -1.034253e-09  -3.311310e-09  0 
 -1.759031e-08  -1.311857e-10  0 
 1.568681e-10  4.308472e-09  0 
 -2.479853e-09  5.978709e-09  0 
 -8.116633e-09  4.504780e-09  0 
 8.870373e-10  2.615325e-09  0 
 -7.240988e-10  1.385336e-09  0 
 -2.589876e-09  2.767188e-09  0 
 -5.035056e-10  5.028854e-09  0 
 -2.486124e-10  4.998955e-09  0 
 1.010137e-11  4.994073e-09  0 
 2.016932e-09  2.791268e-09  0 
 2.411890e-09  8.093087e-12  0 
 2.024628e-09  -2.784547e-09  0 
 1.413631e-11  -4.988745e-09  0 
 -2.433874e-10  -4.993600e-09  0 
 -4.969555e-10  -5.023766e-09  0 
 -2.580853e-09  -2.786183e-09  0 
 -7.380511e-10  -1.404198e-09  0 
 8.668578e-10  -2.605146e-09  0 
 -6.488416e-10  4.449688e-09  0 
 -5.696064e-10  4.089982e-09  0 
 -6.015196e-10  3.684267e-09  0 
 -1.473713e-08  -1.040705e-09  0 
 -8.742554e-09  -2.248820e-09  0 
 -2.196307e-09  -9.040102e-11  0 
 1.837335e-10  4.334463e-09  0 
 1.266136e-10  4.010789e-09  0 
 4.989964e-10  3.621446e-09  0 
 -6.120871e-10  3.188650e-09  0 
 -1.189697e-10  3.038805e-09  0 
 4.235998e-10  2.612001e-09  0 
 1.856826e-10  -4.332670e-09  0 
 1.275720e-10  -4.012772e-09  0 
 4.978447e-10  -3.628855e-09  0 
 6.819291e-09  -1.381533e-09  0 
 9.267499e-09  -1.212556e-11  0 
 6.824092e-09  1.365260e-09  0 
 -6.411841e-10  -4.448201e-09  0 
 -5.619872e-10  -4.091774e-09  0 
 -5.919398e-10  -3.691138e-09  0 
 4.210758e-10  -2.625353e-09  0 
 -1.159713e-10  -3.048468e-09  0 
 -6.031551e-10  -3.202603e-09  0 
 1.596718e-10  -4.317941e-09  0 
 -2.465522e-09  -5.985934e-09  0 
 -8.102624e-09  -4.525592e-09  0 
 -2.165429e-09  6.410974e-11  0 
 -8.698278e-09  2.229133e-09  0 
 -1.473042e-08  1.044295e-09  0 
 -5.619308e-10  4.622093e-09  0 
 -9.228805e-10  5.017117e-09  0 
 -8.738865e-10  4.716543e-09  0 
 -2.455920e-09  5.791203e-09  0 
 -2.090514e-09  5.358964e-09  0 
 -1.440300e-09  4.920585e-09  0 
 -6.454687e-09  4.855620e-09  0 
 -4.489551e-09  5.208697e-09  0 
 -2.601335e-09  4.529650e-09  0 
 -4.408772e-10  4.460198e-09  0 
 -2.292807e-10  4.446097e-09  0 
 -2.736523e-11  4.401778e-09  0 
 -3.887258e-10  4.062223e-09  0 
 -1.929331e-10  4.056978e-09  0 
 4.289301e-12  4.049444e-09  0 
 -4.247964e-10  3.680863e-09  0 
 -1.970492e-10  3.624702e-09  0 
 8.515219e-11  3.591855e-09  0 
 4.343683e-10  2.021545e-09  0 
 6.510172e-10  -1.793900e-13  0 
 4.351843e-10  -2.019590e-09  0 
 3.425361e-10  1.958968e-09  0 
 2.607528e-10  -1.528204e-12  0 
 3.428519e-10  -1.961812e-09  0 
 1.333053e-09  2.647034e-09  0 
 1.882746e-09  -3.548624e-12  0 
 1.332269e-09  -2.655734e-09  0 
 -2.396496e-11  -4.399951e-09  0 
 -2.243819e-10  -4.444311e-09  0 
 -4.345603e-10  -4.458563e-09  0 
 6.769684e-12  -4.051573e-09  0 
 -1.885282e-10  -4.059119e-09  0 
 -3.823732e-10  -4.064137e-09  0 
 8.743311e-11  -3.599046e-09  0 
 -1.932409e-10  -3.632148e-09  0 
 -4.194091e-10  -3.688168e-09  0 
 -8.696915e-10  -4.712670e-09  0 
 -9.204476e-10  -5.014407e-09  0 
 -5.588753e-10  -4.627412e-09  0 
 -1.432311e-09  -4.924536e-09  0 
 -2.080993e-09  -5.364784e-09  0 
 -2.445084e-09  -5.797691e-09  0 
 -2.589234e-09  -4.536620e-09  0 
 -4.476944e-09  -5.221381e-09  0 
 -6.438184e-09  -4.875211e-09  0 
VECTORS displacement_ITER2 FLOAT
 1.576957e-09  1.509091e-09  0 
 -3.487100e-08  -1.144975e-08  0 
 7.385811e-10  1.938316e-09  0 
 1.486067e-09  1.564588e-09  0 
 1.476102e-09  -1.572090e-09  0 
 7.211541e-10  -1.945434e-09  0 
 1.562721e-09  -1.544619e-09  0 
 -2.442770e-09  -5.755094e-09  0 
 5.864675e-09  -6.160701e-09  0 
 5.856420e-09  6.175383e-09  0 
 -2.457661e-09  5.770327e-09  0 
 -3.483650e-08  1.144966e-08  0 
 -1.185768e-09  3.232019e-09  0 
 -5.809489e-09  2.585855e-09  0 
 -1.571995e-08  1.238669e-09  0 
 4.100876e-10  2.988982e-09  0 
 2.613799e-09  4.245782e-09  0 
 4.294710e-09  1.770996e-09  0 
 9.301913e-10  2.005913e-09  0 
 1.131284e-09  1.983187e-09  0 
 1.322678e-09  1.819962e-09  0 
 -3.726054e-09  -2.480972e-09  0 
 -6.031283e-09  -1.842761e-11  0 
 -3.743663e-09  2.461009e-09  0 
 1.310806e-09  -1.827579e-09  0 
 1.117996e-09  -1.991073e-09  0 
 9.152307e-10  -2.013475e-09  0 
 4.268093e-09  -1.733494e-09  0 
 2.633923e-09  -4.199428e-09  0 
 4.466236e-10  -2.992905e-09  0 
 5.962079e-10  1.685087e-09  0 
 -2.543873e-10  6.624072e-10  0 
 -1.430065e-09  -1.765170e-09  0 
 -2.556298e-08  -8.885158e-09  0 
 -2.119673e-08  -6.018763e-09  0 
 -1.604955e-08  -8.190762e-09  0 
 1.617486e-09  1.597378e-09  0 
 2.580442e-09  5.876679e-10  0 
 3.974206e-09  -1.579079e-09  0 
 -2.390522e-10  -5.978100e-09  0 
 1.414921e-09  -6.099931e-09  0 
 3.202617e-09  -5.952519e-09  0 
 1.608106e-09  -1.600653e-09  0 
 2.571576e-09  -5.868433e-10  0 
 3.967132e-09  1.585605e-09  0 
 1.173923e-08  8.095009e-10  0 
 1.086707e-08  4.162256e-11  0 
 1.172556e-08  -7.515098e-10  0 
 5.799048e-10  -1.687522e-09  0 
 -2.697099e-10  -6.615474e-10  0 
 -1.446486e-09  1.771105e-09  0 
 3.199007e-09  5.963356e-09  0 
 1.404391e-09  6.103637e-09  0 
 -2.579952e-10  5.987696e-09  0 
 -1.187198e-09  -3.213755e-09  0 
 -5.838246e-09  -2.576292e-09  0 
 -1.575681e-08  -1.192481e-09  0 
 -1.608904e-08  8.279078e-09  0 
 -2.126218e-08  6.084155e-09  0 
 -2.558420e-08  8.899827e-09  0 
 -8.977203e-10  2.732835e-09  0 
 -6.718486e-10  2.168435e-09  0 
 -4.122666e-10  2.590055e-09  0 
 -5.227655e-09  2.765392e-09  0 
 -3.973230e-09  2.722494e-09  0 
 -2.323659e-09  1.612625e-09  0 
 -1.344414e-08  4.302159e-10  0 
 -9.667829e-09  -5.124433e-10  0 
 -5.041411e-09  -1.567541e-11  0 
 8.362118e-10  1.631621e-09  0 
 1.155530e-09  1.589004e-09  0 
 1.449973e-09  1.567369e-09  0 
 4.808787e-10  6.454903e-10  0 
 1.207191e-09  6.379599e-10  0 
 1.912407e-09  6.277812e-10  0 
 -1.043076e-10  -1.799144e-09  0 
 1.332292e-09  -1.806209e-09  0 
 2.737412e-09  -1.742556e-09  0 
 1.355340e-09  1.770542e-09  0 
 9.510311e-10  -4.640521e-13  0 
 1.350493e-09  -1.774727e-09  0 
 3.225393e-09  2.885350e-10  0 
 3.556959e-09  6.146115e-13  0 
 3.221502e-09  -2.869895e-10  0 
 4.812007e-09  -1.216335e-09  0 
 5.375110e-09  4.605998e-12  0 
 4.805229e-09  1.226388e-09  0 
 1.438906e-09  -1.570602e-09  0 
 1.142645e-09  -1.592091e-09  0 
 8.215428e-10  -1.634400e-09  0 
 1.902072e-09  -6.266170e-10  0 
 1.194892e-09  -6.365904e-10  0 
 4.666333e-10  -6.443084e-10  0 
 2.726180e-09  1.748385e-09  0 
 1.320360e-09  1.812140e-09  0 
 -1.165390e-10  1.804830e-09  0 
 -4.219507e-10  -2.595752e-09  0 
 -6.785880e-10  -2.173440e-09  0 
 -9.027325e-10  -2.723288e-09  0 
 -2.338864e-09  -1.607504e-09  0 
 -3.990117e-09  -2.714354e-09  0 
 -5.249253e-09  -2.756484e-09  0 
 -5.061519e-09  2.221068e-11  0 
 -9.693845e-09  5.372554e-10  0 
 -1.347671e-08  -3.879121e-10  0 
VECTORS displacement_ITER3 FLOAT
 1.472013e-09  2.105025e-09  0 
 -2.455839e-08  -1.918215e-09  0 
 5.718028e-10  6.750786e-10  0 
 -4.117241e-10  1.871808e-10  0 
 -3.984419e-10  -1.853496e-10  0 
 5.870208e-10  -6.737935e-10  0 
 1.479776e-09  -2.076124e-09  0 
 -2.136473e-09  -2.318808e-09  0 
 3.298792e-09  -1.325329e-09  0 
 3.313025e-09  1.324339e-09  0 
 -2.125668e-09  2.317361e-09  0 
 -2.453569e-08  1.908298e-09  0 
 -1.544779e-10  2.578459e-09  0 
 -3.709326e-09  3.373172e-09  0 
 -1.131057e-08  1.681168e-09  0 
 1.651627e-09  1.570810e-09  0 
 3.818481e-10  1.764948e-09  0 
 7.266955e-10  3.142680e-09  0 
 3.547764e-10  6.753389e-10  0 
 1.687499e-10  6.133335e-10  0 
 -6.784366e-11  4.755830e-10  0 
 -6.675175e-10  3.337636e-09  0 
 1.750496e-09  1.725350e-11  0 
 -6.488148e-10  -3.314857e-09  0 
 -5.424335e-11  -4.737712e-10  0 
 1.825779e-10  -6.113717e-10  0 
 3.689601e-10  -6.736095e-10  0 
 7.499371e-10  -3.171099e-09  0 
 3.668854e-10  -1.804503e-09  0 
 1.620010e-09  -1.571489e-09  0 
 4.281671e-10  1.287100e-09  0 
 -1.586230e-10  1.439250e-09  0 
 -1.186899e-09  4.896476e-10  0 
 -2.187434e-08  -3.432140e-09  0 
 -1.591800e-08  -4.324670e-09  0 
 -1.043032e-08  -1.922182e-09  0 
 -1.471901e-10  1.254957e-09  0 
 5.948900e-10  1.273187e-09  0 
 1.529548e-09  4.048627e-10  0 
 -7.397959e-10  -2.218434e-09  0 
 5.990152e-10  -1.953545e-09  0 
 1.792049e-09  -1.814006e-09  0 
 -1.348117e-10  -1.254148e-09  0 
 6.070138e-10  -1.273781e-09  0 
 1.542315e-09  -4.066877e-10  0 
 -2.538567e-09  3.278747e-09  0 
 -3.113822e-09  -4.479566e-11  0 
 -2.511313e-09  -3.341967e-09  0 
 4.425116e-10  -1.287034e-09  0 
 -1.452153e-10  -1.439646e-09  0 
 -1.174518e-09  -4.910313e-10  0 
 1.802253e-09  1.814614e-09  0 
 6.106400e-10  1.957141e-09  0 
 -7.256230e-10  2.219078e-09  0 
 -1.558233e-10  -2.592030e-09  0 
 -3.686280e-09  -3.372245e-09  0 
 -1.126416e-08  -1.710194e-09  0 
 -1.042213e-08  1.840108e-09  0 
 -1.586665e-08  4.256303e-09  0 
 -2.181409e-08  3.406486e-09  0 
 -5.415230e-10  2.737889e-09  0 
 -4.057981e-10  2.541690e-09  0 
 -1.113024e-10  1.691868e-09  0 
 -3.348898e-09  3.175142e-09  0 
 -2.587739e-09  2.836946e-09  0 
 -1.571575e-09  2.389470e-09  0 
 -9.593737e-09  2.090743e-09  0 
 -7.155226e-09  2.280601e-09  0 
 -3.929232e-09  1.468146e-09  0 
 2.826608e-10  1.251994e-09  0 
 1.696821e-10  1.223314e-09  0 
 5.325027e-11  1.213702e-09  0 
 7.358358e-12  1.409479e-09  0 
 2.120805e-10  1.368269e-09  0 
 3.924663e-10  1.309370e-09  0 
 -3.736051e-10  4.521326e-10  0 
 3.707374e-10  4.277299e-10  0 
 1.068279e-09  4.742479e-10  0 
 3.040525e-10  -3.414678e-11  0 
 1.826260e-10  -5.793310e-15  0 
 3.106525e-10  3.556004e-11  0 
 7.063375e-10  7.773027e-10  0 
 1.002545e-09  -7.652357e-14  0 
 7.119851e-10  -7.777204e-10  0 
 1.571488e-09  -8.875680e-10  0 
 7.779809e-10  -1.521910e-12  0 
 1.580781e-09  8.836837e-10  0 
 6.616519e-11  -1.213032e-09  0 
 1.831440e-10  -1.222845e-09  0 
 2.966589e-10  -1.251743e-09  0 
 4.050371e-10  -1.310140e-09  0 
 2.250634e-10  -1.369099e-09  0 
 2.067237e-11  -1.410177e-09  0 
 1.081683e-09  -4.754479e-10  0 
 3.833373e-10  -4.287981e-10  0 
 -3.619784e-10  -4.530620e-10  0 
 -1.024015e-10  -1.688368e-09  0 
 -3.996620e-10  -2.536304e-09  0 
 -5.381902e-10  -2.743403e-09  0 
 -1.557398e-09  -2.389894e-09  0 
 -2.571965e-09  -2.838226e-09  0 
 -3.329317e-09  -3.175190e-09  0 
 -3.909035e-09  -1.466648e-09  0 
 -7.126431e-09  -2.289615e-09  0 
 -9.557866e-09  -2.114214e-09  0 
VECTORS displacement_ITER4 FLOAT
 1.470345e-09  1.584561e-09  0 
 -2.021052e-08  8.135724e-10  0 
 7.552833e-10  8.137104e-10  0 
 -8.954724e-10  2.170360e-10  0 
 -9.079006e-10  -2.152167e-10  0 
 7.395780e-10  -8.111074e-10  0 
 1.462124e-09  -1.612694e-09  0 
 -2.333030e-09  -5.275927e-10  0 
 2.723854e-09  4.745290e-10  0 
 2.711419e-09  -4.652879e-10  0 
 -2.344982e-09  5.371142e-10  0 
 -2.026794e-08  -7.910643e-10  0 
 6.884509e-10  2.680523e-09  0 
 -1.442753e-09  3.737120e-09  0 
 -7.096745e-09  4.930821e-09  0 
 1.152346e-09  1.940832e-09  0 
 1.346227e-09  1.855648e-09  0 
 5.598543e-10  1.514144e-09  0 
 4.000115e-10  7.989637e-10  0 
 5.128180e-11  7.097224e-10  0 
 -3.402632e-10  5.281838e-10  0 
 -1.285032e-09  -5.099253e-10  0 
 -3.123052e-09  -1.689491e-11  0 
 -1.305214e-09  4.901422e-10  0 
 -3.533171e-10  -5.262300e-10  0 
 3.751753e-11  -7.077201e-10  0 
 3.854602e-10  -7.967019e-10  0 
 5.421238e-10  -1.480925e-09  0 
 1.363921e-09  -1.814985e-09  0 
 1.186754e-09  -1.940448e-09  0 
 6.345588e-10  1.785421e-09  0 
 6.897970e-11  2.422562e-09  0 
 -1.033843e-09  2.032202e-09  0 
 -1.575607e-08  1.802801e-09  0 
 -1.277569e-08  2.673469e-09  0 
 -8.528229e-09  2.402288e-09  0 
 -6.674813e-10  1.769870e-09  0 
 6.400565e-11  2.294384e-09  0 
 1.051719e-09  1.828256e-09  0 
 -8.395529e-10  -3.557549e-10  0 
 3.132060e-10  -1.707584e-10  0 
 1.420502e-09  4.420202e-11  0 
 -6.789855e-10  -1.766063e-09  0 
 5.315330e-11  -2.288104e-09  0 
 1.040509e-09  -1.819595e-09  0 
 2.911275e-09  -3.279016e-09  0 
 5.819191e-09  3.161142e-11  0 
 2.876742e-09  3.317977e-09  0 
 6.197496e-10  -1.780970e-09  0 
 5.484194e-11  -2.416439e-09  0 
 -1.046827e-09  -2.024228e-09  0 
 1.409790e-09  -3.551162e-11  0 
 3.019514e-10  1.777388e-10  0 
 -8.521720e-10  3.634918e-10  0 
 6.905454e-10  -2.662685e-09  0 
 -1.462170e-09  -3.737619e-09  0 
 -7.145065e-09  -4.909182e-09  0 
 -8.527161e-09  -2.355309e-09  0 
 -1.282215e-08  -2.605005e-09  0 
 -1.582418e-08  -1.760279e-09  0 
 4.058034e-10  2.559416e-09  0 
 2.452009e-10  2.492381e-09  0 
 4.741464e-10  2.242450e-09  0 
 -1.725764e-09  3.763245e-09  0 
 -1.526776e-09  3.554205e-09  0 
 -9.052063e-10  3.099015e-09  0 
 -6.642338e-09  4.531084e-09  0 
 -5.113367e-09  3.928978e-09  0 
 -3.259814e-09  3.145020e-09  0 
 3.199511e-10  1.762315e-09  0 
 3.390867e-11  1.741920e-09  0 
 -2.738220e-10  1.736783e-09  0 
 2.964690e-11  2.408360e-09  0 
 3.827639e-11  2.374388e-09  0 
 4.358395e-11  2.325015e-09  0 
 -4.370056e-10  1.945121e-09  0 
 1.693570e-10  1.903049e-09  0 
 7.089672e-10  1.908208e-09  0 
 -1.065889e-09  1.081607e-09  0 
 -8.988715e-10  2.535612e-12  0 
 -1.071974e-09  -1.078354e-09  0 
 1.064398e-10  1.045261e-09  0 
 7.874927e-11  3.338707e-12  0 
 1.012716e-10  -1.039172e-09  0 
 1.978523e-09  1.602914e-09  0 
 2.013602e-09  2.258655e-12  0 
 1.973521e-09  -1.593714e-09  0 
 -2.862236e-10  -1.732812e-09  0 
 2.062614e-11  -1.737755e-09  0 
 3.058239e-10  -1.757980e-09  0 
 3.174103e-11  -2.318642e-09  0 
 2.558881e-11  -2.367995e-09  0 
 1.618190e-11  -2.402065e-09  0 
 6.969019e-10  -1.899963e-09  0 
 1.570803e-10  -1.894951e-09  0 
 -4.492722e-10  -1.937128e-09  0 
 4.647898e-10  -2.242365e-09  0 
 2.402039e-10  -2.493765e-09  0 
 4.030712e-10  -2.549571e-09  0 
 -9.206027e-10  -3.095510e-09  0 
 -1.544600e-09  -3.550403e-09  0 
 -1.744613e-09  -3.762046e-09  0 
 -3.280672e-09  -3.137878e-09  0 
 -5.139778e-09  -3.922971e-09  0 
 -6.679563e-09  -4.515349e-09  0 
VECTORS displacement_ITER5 FLOAT
 1.522275e-09  4.910507e-09  0 
 -3.363052e-08  4.156451e-09  0 
 1.446948e-10  5.900245e-09  0 
 -8.507965e-10  5.253106e-09  0 
 -8.237349e-10  -5.252609e-09  0 
 1.789207e-10  -5.901475e-09  0 
 1.547722e-09  -4.841091e-09  0 
 -2.824635e-09  5.117693e-09  0 
 2.819800e-09  5.043699e-09  0 
 2.845204e-09  -5.064977e-09  0 
 -2.793845e-09  -5.138044e-09  0 
 -3.355673e-08  -4.205620e-09  0 
 1.266338e-09  7.095406e-09  0 
 -2.835038e-09  1.020955e-08  0 
 -1.336122e-08  9.660037e-09  0 
 1.188324e-09  3.985902e-09  0 
 -5.294810e-10  3.299779e-09  0 
 -1.882447e-09  4.029713e-09  0 
 -1.017145e-11  5.830832e-09  0 
 -2.147322e-10  5.707357e-09  0 
 -4.702638e-10  5.508134e-09  0 
 1.752087e-09  3.557664e-09  0 
 3.212560e-09  3.929936e-11  0 
 1.796830e-09  -3.515124e-09  0 
 -4.417212e-10  -5.507885e-09  0 
 -1.847459e-10  -5.707159e-09  0 
 2.161626e-11  -5.831247e-09  0 
 -1.843999e-09  -4.105080e-09  0 
 -5.723318e-10  -3.386404e-09  0 
 1.112830e-09  -3.978488e-09  0 
 2.476717e-10  6.498517e-09  0 
 -5.686227e-11  7.238775e-09  0 
 -9.711445e-10  7.174920e-09  0 
 -2.850627e-08  2.176026e-09  0 
 -1.836558e-08  2.828738e-10  0 
 -6.832630e-09  2.127036e-09  0 
 -7.809802e-10  6.362735e-09  0 
 -3.208952e-10  6.999176e-09  0 
 8.327608e-10  6.901802e-09  0 
 -1.095452e-09  5.169614e-09  0 
 1.645280e-10  5.194515e-09  0 
 1.433030e-09  5.100282e-09  0 
 -7.558397e-10  -6.366579e-09  0 
 -2.973667e-10  -7.008343e-09  0 
 8.555022e-10  -6.917671e-09  0 
 8.316434e-09  2.648253e-09  0 
 6.005898e-09  -6.251970e-11  0 
 8.372989e-09  -2.720915e-09  0 
 2.801530e-10  -6.503876e-09  0 
 -2.558862e-11  -7.248024e-09  0 
 -9.408444e-10  -7.188517e-09  0 
 1.454956e-09  -5.120172e-09  0 
 1.894235e-10  -5.208788e-09  0 
 -1.064494e-09  -5.185209e-09  0 
 1.261491e-09  -7.136323e-09  0 
 -2.803046e-09  -1.021171e-08  0 
 -1.328666e-08  -9.696937e-09  0 
 -6.826402e-09  -2.185209e-09  0 
 -1.830552e-08  -3.932303e-10  0 
 -2.842386e-08  -2.253848e-09  0 
 1.344282e-10  7.343420e-09  0 
 -3.295583e-10  7.463829e-09  0 
 -2.179707e-10  7.040726e-09  0 
 -3.144958e-09  9.950408e-09  0 
 -2.748440e-09  9.372681e-09  0 
 -1.661450e-09  8.613853e-09  0 
 -1.135346e-08  1.012617e-08  0 
 -8.321235e-09  1.031028e-08  0 
 -4.988963e-09  8.941970e-09  0 
 1.823956e-12  6.495004e-09  0 
 -2.205615e-10  6.460348e-09  0 
 -4.730050e-10  6.411156e-09  0 
 -1.452192e-10  7.199557e-09  0 
 -1.860848e-10  7.160706e-09  0 
 -2.243423e-10  7.090228e-09  0 
 -5.764075e-10  7.099842e-09  0 
 -5.107438e-11  7.002258e-09  0 
 4.432050e-10  6.957294e-09  0 
 -6.619220e-10  2.746243e-09  0 
 -5.406508e-10  -3.961282e-12  0 
 -6.486650e-10  -2.748538e-09  0 
 -1.479633e-10  3.589327e-09  0 
 -3.366376e-10  -5.188731e-12  0 
 -1.369988e-10  -3.598815e-09  0 
 1.180259e-09  3.524800e-09  0 
 2.278098e-09  -4.803931e-12  0 
 1.192129e-09  -3.543475e-09  0 
 -4.459297e-10  -6.415326e-09  0 
 -1.915144e-10  -6.464958e-09  0 
 3.272622e-11  -6.500047e-09  0 
 -1.985391e-10  -7.099663e-09  0 
 -1.581829e-10  -7.170298e-09  0 
 -1.153575e-10  -7.209036e-09  0 
 4.693621e-10  -6.972095e-09  0 
 -2.349373e-11  -7.016636e-09  0 
 -5.484254e-10  -7.113781e-09  0 
 -1.993009e-10  -7.037496e-09  0 
 -3.210515e-10  -7.460142e-09  0 
 1.384554e-10  -7.366643e-09  0 
 -1.630248e-09  -8.620344e-09  0 
 -2.714390e-09  -9.381703e-09  0 
 -3.111367e-09  -9.955350e-09  0 
 -4.952362e-09  -8.960751e-09  0 
 -8.279923e-09  -1.032530e-08  0 
 -1.129601e-08  -1.015494e-08  0 
VECTORS displacement_ITER6 FLOAT
 1.886361e-09  3.229787e-09  0 
 -3.634584e-08  -2.144711e-09  0 
 1.235222e-09  3.406261e-09  0 
 -3.422254e-11  2.516254e-09  0 
 -6.022550e-11  -2.513887e-09  0 
 1.208112e-09  -3.402445e-09  0 
 1.867813e-09  -3.278834e-09  0 
 -3.709619e-09  -6.559860e-10  0 
 5.882447e-09  -6.624920e-10  0 
 5.852666e-09  6.671444e-10  0 
 -3.734452e-09  6.559207e-10  0 
 -3.640472e-08  2.222019e-09  0 
 9.318119e-10  5.109687e-09  0 
 -3.333786e-09  6.743558e-09  0 
 -1.378810e-08  7.598043e-09  0 
 1.365554e-09  3.585887e-09  0 
 2.005583e-09  3.794315e-09  0 
 2.723256e-09  2.430638e-09  0 
 1.010902e-09  3.386169e-09  0 
 7.536173e-10  3.255347e-09  0 
 4.248704e-10  2.952773e-09  0 
 -2.582305e-09  -1.117274e-09  0 
 -3.521963e-09  -3.000076e-11  0 
 -2.617974e-09  1.083960e-09  0 
 3.987988e-10  -2.950176e-09  0 
 7.275807e-10  -3.252674e-09  0 
 9.846001e-10  -3.383041e-09  0 
 2.693898e-09  -2.372383e-09  0 
 2.039479e-09  -3.727761e-09  0 
 1.420994e-09  -3.588373e-09  0 
 1.183582e-09  4.256585e-09  0 
 3.002605e-10  4.668281e-09  0 
 -1.374212e-09  3.442727e-09  0 
 -2.721727e-08  -5.172457e-10  0 
 -2.097710e-08  1.340079e-09  0 
 -1.451040e-08  -1.011619e-09  0 
 1.169898e-10  4.171963e-09  0 
 1.209863e-09  4.509431e-09  0 
 3.057650e-09  3.356092e-09  0 
 -9.484717e-10  -7.825760e-10  0 
 1.072913e-09  -7.483532e-10  0 
 3.125144e-09  -6.403902e-10  0 
 9.208996e-11  -4.169100e-09  0 
 1.185318e-09  -4.505871e-09  0 
 3.032579e-09  -3.350775e-09  0 
 1.396409e-08  6.839561e-10  0 
 1.449490e-08  6.017301e-11  0 
 1.392336e-08  -6.036945e-10  0 
 1.157833e-09  -4.252412e-09  0 
 2.758073e-10  -4.664280e-09  0 
 -1.397157e-09  -3.440378e-09  0 
 3.101083e-09  6.440887e-10  0 
 1.049735e-09  7.465502e-10  0 
 -9.751145e-10  7.801651e-10  0 
 9.399579e-10  -5.076921e-09  0 
 -3.342778e-09  -6.745384e-09  0 
 -1.382323e-08  -7.597196e-09  0 
 -1.451055e-08  1.017869e-09  0 
 -2.096736e-08  -1.300938e-09  0 
 -2.723175e-08  5.824963e-10  0 
 5.025757e-10  4.963100e-09  0 
 3.741104e-10  4.758023e-09  0 
 4.246179e-10  4.954857e-09  0 
 -3.562882e-09  6.803414e-09  0 
 -2.922582e-09  6.662213e-09  0 
 -1.586664e-09  5.719841e-09  0 
 -1.237190e-08  6.922712e-09  0 
 -9.326010e-09  5.771553e-09  0 
 -5.297907e-09  5.373823e-09  0 
 9.289435e-10  4.225724e-09  0 
 7.401922e-10  4.183246e-09  0 
 5.060615e-10  4.152474e-09  0 
 5.090444e-10  4.647378e-09  0 
 7.622345e-10  4.631846e-09  0 
 1.009186e-09  4.585783e-09  0 
 -3.196788e-10  3.367107e-09  0 
 9.110061e-10  3.283206e-09  0 
 2.097282e-09  3.302944e-09  0 
 -2.708332e-10  2.619631e-09  0 
 -6.393978e-10  2.490533e-12  0 
 -2.841306e-10  -2.618431e-09  0 
 1.560795e-09  2.240640e-09  0 
 1.653906e-09  1.640172e-12  0 
 1.549316e-09  -2.236971e-09  0 
 4.169023e-09  1.920083e-09  0 
 5.014198e-09  2.773127e-12  0 
 4.152443e-09  -1.911935e-09  0 
 4.808564e-10  -4.149325e-09  0 
 7.146794e-10  -4.179705e-09  0 
 9.032210e-10  -4.221798e-09  0 
 9.842269e-10  -4.581950e-09  0 
 7.371805e-10  -4.627790e-09  0 
 4.840720e-10  -4.643272e-09  0 
 2.071030e-09  -3.298855e-09  0 
 8.852207e-10  -3.279885e-09  0 
 -3.435128e-10  -3.364479e-09  0 
 4.110856e-10  -4.956562e-09  0 
 3.695097e-10  -4.759157e-09  0 
 5.038034e-10  -4.943782e-09  0 
 -1.608138e-09  -5.718011e-09  0 
 -2.943193e-09  -6.659853e-09  0 
 -3.580109e-09  -6.803499e-09  0 
 -5.315611e-09  -5.363574e-09  0 
 -9.343398e-09  -5.764405e-09  0 
 -1.239518e-08  -6.919656e-09  0 
VECTORS displacement_ITER7 FLOAT
 2.038216e-09  3.366421e-09  0 
 -3.357754e-08  3.746888e-11  0 
 1.351676e-09  2.835583e-09  0 
 -6.378715e-10  1.744046e-09  0 
 -5.992502e-10  -1.750737e-09  0 
 1.381416e-09  -2.844906e-09  0 
 2.057019e-09  -3.309703e-09  0 
 -4.031285e-09  -1.312552e-10  0 
 5.921759e-09  2.247586e-10  0 
 5.969847e-09  -2.068879e-10  0 
 -4.001962e-09  1.571897e-10  0 
 -3.351023e-08  -1.578927e-10  0 
 1.071473e-09  5.114591e-09  0 
 -3.537328e-09  6.955123e-09  0 
 -1.397737e-08  6.155381e-09  0 
 1.916458e-09  3.160917e-09  0 
 1.196823e-09  3.062911e-09  0 
 1.435067e-09  3.947997e-09  0 
 9.704974e-10  2.778203e-09  0 
 5.596121e-10  2.604894e-09  0 
 5.119980e-11  2.287314e-09  0 
 -1.459728e-09  2.151527e-09  0 
 -3.030948e-10  3.608549e-11  0 
 -1.415445e-09  -2.107497e-09  0 
 8.744716e-11  -2.294614e-09  0 
 5.934740e-10  -2.612707e-09  0 
 1.002142e-09  -2.786705e-09  0 
 1.455535e-09  -4.011352e-09  0 
 1.152056e-09  -3.128106e-09  0 
 1.853999e-09  -3.152771e-09  0 
 1.297250e-09  4.054581e-09  0 
 3.973081e-10  4.881811e-09  0 
 -1.420156e-09  3.959730e-09  0 
 -2.799789e-08  -8.980048e-10  0 
 -2.037246e-08  -1.712557e-09  0 
 -1.323586e-08  -1.124027e-10  0 
 -4.186487e-10  3.999661e-09  0 
 7.320771e-10  4.696565e-09  0 
 2.627453e-09  3.836699e-09  0 
 -1.305010e-09  -2.129988e-10  0 
 9.577588e-10  -5.553772e-11  0 
 3.101696e-09  -3.638780e-11  0 
 -3.811813e-10  -4.001125e-09  0 
 7.698189e-10  -4.692574e-09  0 
 2.667696e-09  -3.828421e-09  0 
 6.738680e-09  2.609158e-09  0 
 8.914275e-09  -8.016333e-11  0 
 6.813018e-09  -2.716848e-09  0 
 1.325696e-09  -4.057631e-09  0 
 4.243492e-10  -4.878614e-09  0 
 -1.395290e-09  -3.946197e-09  0 
 3.140370e-09  5.443540e-11  0 
 9.901843e-10  7.946543e-11  0 
 -1.272735e-09  2.401251e-10  0 
 1.053149e-09  -5.150701e-09  0 
 -3.559065e-09  -6.944290e-09  0 
 -1.398503e-08  -6.100422e-09  0 
 -1.325111e-08  2.051773e-10  0 
 -2.046292e-08  1.763886e-09  0 
 -2.806721e-08  8.366040e-10  0 
 3.825954e-10  5.176331e-09  0 
 2.969533e-10  5.094968e-09  0 
 5.704413e-10  4.533473e-09  0 
 -3.478851e-09  6.833319e-09  0 
 -2.733362e-09  6.503578e-09  0 
 -1.447753e-09  5.930317e-09  0 
 -1.217139e-08  6.282136e-09  0 
 -9.154085e-09  6.143692e-09  0 
 -5.176705e-09  5.200729e-09  0 
 8.905814e-10  4.025735e-09  0 
 5.373192e-10  3.984232e-09  0 
 1.416975e-10  3.954740e-09  0 
 4.474579e-10  4.856825e-09  0 
 5.619624e-10  4.837710e-09  0 
 6.575365e-10  4.775793e-09  0 
 -4.093491e-10  3.911283e-09  0 
 7.178774e-10  3.828235e-09  0 
 1.824618e-09  3.867862e-09  0 
 -3.966015e-10  1.732346e-09  0 
 -6.000525e-10  -9.783756e-13  0 
 -3.762715e-10  -1.731584e-09  0 
 9.024573e-10  2.414647e-09  0 
 1.159089e-09  2.336508e-12  0 
 9.204593e-10  -2.410284e-09  0 
 3.595246e-09  1.558290e-09  0 
 3.274366e-09  4.481733e-12  0 
 3.619966e-09  -1.552365e-09  0 
 1.771838e-10  -3.956596e-09  0 
 5.706598e-10  -3.986620e-09  0 
 9.215694e-10  -4.028579e-09  0 
 6.934631e-10  -4.772114e-09  0 
 5.953184e-10  -4.834270e-09  0 
 4.778759e-10  -4.853551e-09  0 
 1.863016e-09  -3.857778e-09  0 
 7.531674e-10  -3.816737e-09  0 
 -3.792684e-10  -3.898542e-09  0 
 5.820440e-10  -4.530286e-09  0 
 2.944615e-10  -5.094637e-09  0 
 3.713705e-10  -5.198176e-09  0 
 -1.429828e-09  -5.923980e-09  0 
 -2.721107e-09  -6.495876e-09  0 
 -3.478760e-09  -6.823681e-09  0 
 -5.172732e-09  -5.201587e-09  0 
 -9.164463e-09  -6.133433e-09  0 
 -1.218378e-08  -6.242609e-09  0 
VECTORS displacement_ITER8 FLOAT
 2.286596e-09  4.352397e-09  0 
 -3.815133e-08  -8.581497e-10  0 
 9.962709e-10  4.537607e-09  0 
 -8.135826e-10  3.248807e-09  0 
 -8.875063e-10  -3.229746e-09  0 
 9.497027e-10  -4.513317e-09  0 
 2.260405e-09  -4.436550e-09  0 
 -5.296043e-09  3.735566e-10  0 
 6.738581e-09  5.984116e-10  0 
 6.643835e-09  -6.540546e-10  0 
 -5.344777e-09  -4.465134e-10  0 
 -3.825324e-08  1.098035e-09  0 
 1.096798e-09  6.525336e-09  0 
 -4.378269e-09  8.683569e-09  0 
 -1.624409e-08  7.852632e-09  0 
 2.131517e-09  4.155331e-09  0 
 1.611666e-09  3.585199e-09  0 
 1.255816e-10  4.049585e-09  0 
 7.049876e-10  4.468070e-09  0 
 3.470752e-10  4.257051e-09  0 
 -1.043281e-10  3.875025e-09  0 
 -5.924666e-10  1.729596e-09  0 
 -1.740501e-09  -6.377463e-11  0 
 -6.722300e-10  -1.809383e-09  0 
 -1.711988e-10  -3.854597e-09  0 
 2.870768e-10  -4.235351e-09  0 
 6.516632e-10  -4.445123e-09  0 
 1.124834e-10  -3.945720e-09  0 
 1.691850e-09  -3.491918e-09  0 
 2.230072e-09  -4.170646e-09  0 
 1.006668e-09  5.630565e-09  0 
 3.882029e-11  6.412221e-09  0 
 -2.046272e-09  5.258226e-09  0 
 -3.098039e-08  -7.286490e-10  0 
 -2.373677e-08  -8.590594e-10  0 