# vtk DataFile Version 3.1
this is an vtk file created by FEMAC
ASCII
DATASET UNSTRUCTURED_GRID
POINTS 105 FLOAT
7.000000 0.000000 0.000000
7.500000 0.000000 0.000000
7.000000 0.200000 0.000000
7.000000 0.400000 0.000000
7.000000 0.600000 0.000000
7.000000 0.800000 0.000000
7.000000 1.000000 0.000000
7.500000 0.200000 0.000000
7.500000 0.400000 0.000000
7.500000 0.600000 0.000000
7.500000 0.800000 0.000000
7.500000 1.000000 0.000000
7.125000 0.000000 0.000000
7.250000 0.000000 0.000000
7.375000 0.000000 0.000000
7.000000 0.050000 0.000000
7.000000 0.100000 0.000000
7.000000 0.150000 0.000000
7.000000 0.250000 0.000000
7.000000 0.300000 0.000000
7.000000 0.350000 0.000000
7.000000 0.450000 0.000000
7.000000 0.500000 0.000000
7.000000 0.550000 0.000000
7.000000 0.650000 0.000000
7.000000 0.700000 0.000000
7.000000 0.750000 0.000000
7.000000 0.850000 0.000000
7.000000 0.900000 0.000000
7.000000 0.950000 0.000000
7.125000 0.200000 0.000000
7.250000 0.200000 0.000000
7.375000 0.200000 0.000000
7.500000 0.050000 0.000000
7.500000 0.100000 0.000000
7.500000 0.150000 0.000000
7.125000 0.400000 0.000000
7.250000 0.400000 0.000000
7.375000 0.400000 0.000000
7.500000 0.250000 0.000000
7.500000 0.300000 0.000000
7.500000 0.350000 0.000000
7.125000 0.600000 0.000000
7.250000 0.600000 0.000000
7.375000 0.600000 0.000000
7.500000 0.450000 0.000000
7.500000 0.500000 0.000000
7.500000 0.550000 0.000000
7.125000 0.800000 0.000000
7.250000 0.800000 0.000000
7.375000 0.800000 0.000000
7.500000 0.650000 0.000000
7.500000 0.700000 0.000000
7.500000 0.750000 0.000000
7.125000 1.000000 0.000000
7.250000 1.000000 0.000000
7.375000 1.000000 0.000000
7.500000 0.850000 0.000000
7.500000 0.900000 0.000000
7.500000 0.950000 0.000000
7.125000 0.050000 0.000000
7.125000 0.100000 0.000000
7.125000 0.150000 0.000000
7.250000 0.050000 0.000000
7.250000 0.100000 0.000000
7.250000 0.150000 0.000000
7.375000 0.050000 0.000000
7.375000 0.100000 0.000000
7.375000 0.150000 0.000000
7.125000 0.250000 0.000000
7.125000 0.300000 0.000000
7.125000 0.350000 0.000000
7.250000 0.250000 0.000000
7.250000 0.300000 0.000000
7.250000 0.350000 0.000000
7.375000 0.250000 0.000000
7.375000 0.300000 0.000000
7.375000 0.350000 0.000000
7.125000 0.450000 0.000000
7.125000 0.500000 0.000000
7.125000 0.550000 0.000000
7.250000 0.450000 0.000000
7.250000 0.500000 0.000000
7.250000 0.550000 0.000000
7.375000 0.450000 0.000000
7.375000 0.500000 0.000000
7.375000 0.550000 0.000000
7.125000 0.650000 0.000000
7.125000 0.700000 0.000000
7.125000 0.750000 0.000000
7.250000 0.650000 0.000000
7.250000 0.700000 0.000000
7.250000 0.750000 0.000000
7.375000 0.650000 0.000000
7.375000 0.700000 0.000000
7.375000 0.750000 0.000000
7.125000 0.850000 0.000000
7.125000 0.900000 0.000000
7.125000 0.950000 0.000000
7.250000 0.850000 0.000000
7.250000 0.900000 0.000000
7.250000 0.950000 0.000000
7.375000 0.850000 0.000000
7.375000 0.900000 0.000000
7.375000 0.950000 0.000000
CELLS 80 400 
4 0 12 60 15
4 15 60 61 16
4 16 61 62 17
4 17 62 30  2
4 12 13 63 60
4 60 63 64 61
4 61 64 65 62
4 62 65 31 30
4 13 14 66 63
4 63 66 67 64
4 64 67 68 65
4 65 68 32 31
4 14  1 33 66
4 66 33 34 67
4 67 34 35 68
4 68 35  7 32
4 2 30 69 18
4 18 69 70 19
4 19 70 71 20
4 20 71 36  3
4 30 31 72 69
4 69 72 73 70
4 70 73 74 71
4 71 74 37 36
4 31 32 75 72
4 72 75 76 73
4 73 76 77 74
4 74 77 38 37
4 32  7 39 75
4 75 39 40 76
4 76 40 41 77
4 77 41  8 38
4 3 36 78 21
4 21 78 79 22
4 22 79 80 23
4 23 80 42  4
4 36 37 81 78
4 78 81 82 79
4 79 82 83 80
4 80 83 43 42
4 37 38 84 81
4 81 84 85 82
4 82 85 86 83
4 83 86 44 43
4 38  8 45 84
4 84 45 46 85
4 85 46 47 86
4 86 47  9 44
4 4 42 87 24
4 24 87 88 25
4 25 88 89 26
4 26 89 48  5
4 42 43 90 87
4 87 90 91 88
4 88 91 92 89
4 89 92 49 48
4 43 44 93 90
4 90 93 94 91
4 91 94 95 92
4 92 95 50 49
4 44  9 51 93
4 93 51 52 94
4 94 52 53 95
4 95 53 10 50
4 5 48 96 27
4 27 96 97 28
4 28 97 98 29
4 29 98 54  6
4 48 49 99 96
4 96  99 100  97
4 97 100 101  98
4 98 101  55  54
4 49  50 102  99
4 99 102 103 100
4 100 103 104 101
4 101 104  56  55
4 50  10  57 102
4 102  57  58 103
4 103  58  59 104
4 104  59  11  56
CELL_TYPES 80
9 9 9 9 9 9 9 9 9 9 9 9 9 9 9 9 9 9 9 9 9 9 9 9 9 9 9 9 9 9 9 9 9 9 9 9 9 9 9 9 9 9 9 9 9 9 9 9 9 9 9 9 9 9 9 9 9 9 9 9 9 9 9 9 9 9 9 9 9 9 9 9 9 9 9 9 9 9 9 9 
POINT_DATA 105
VECTORS displacement_ITER1 FLOAT
 -1.063227e-04  -6.565275e-05  0 
 -7.615131e-05  -4.152953e-04  0 
 2.534866e-05  -6.458178e-05  0 
 -5.710171e-05  -9.405985e-06  0 
 -5.716545e-05  9.561439e-06  0 
 2.524922e-05  6.464827e-05  0 
 -1.065361e-04  6.571861e-05  0 
 2.880728e-05  -4.253810e-04  0 
 -1.044790e-04  -7.387232e-05  0 
 -1.045794e-04  7.434579e-05  0 
 2.872092e-05  4.257779e-04  0 
 -7.635770e-05  4.156829e-04  0 
 -1.072972e-04  -1.535859e-04  0 
 -1.046378e-04  -2.447215e-04  0 
 -9.363734e-05  -3.336679e-04  0 
 -7.173992e-05  -6.584935e-05  0 
 -3.758769e-05  -6.617937e-05  0 
 -4.679993e-06  -6.596559e-05  0 
 9.897760e-06  -1.698569e-05  0 
 1.423347e-05  -3.777735e-06  0 
 6.482289e-06  -1.243863e-05  0 
 -6.011173e-05  -4.912022e-06  0 
 -6.080503e-05  8.218987e-08  0 
 -6.014506e-05  5.075706e-06  0 
 6.206131e-06  1.283435e-05  0 
 1.454023e-05  4.068648e-06  0 
 9.777547e-06  1.677074e-05  0 
 -4.799690e-06  6.602439e-05  0 
 -3.773211e-05  6.623647e-05  0 
 -7.191809e-05  6.591049e-05  0 
 3.292616e-05  -1.505047e-04  0 
 3.773358e-05  -2.421156e-04  0 
 3.975485e-05  -3.348568e-04  0 
 -4.489581e-05  -4.150015e-04  0 
 -1.590510e-05  -4.136186e-04  0 
 1.167542e-05  -4.142918e-04  0 
 -6.078251e-05  -1.306356e-06  0 
 -6.776290e-05  -7.533667e-08  0 
 -8.923724e-05  2.870444e-07  0 
 -4.143467e-05  -4.593683e-04  0 
 -1.744753e-04  -3.662856e-04  0 
 -3.044935e-04  -2.884154e-04  0 
 -6.083253e-05  1.534826e-06  0 
 -6.781403e-05  3.574969e-07  0 
 -8.931068e-05  6.621470e-08  0 
 -9.182859e-05  -2.769393e-05  0 
 -8.471160e-05  2.275994e-07  0 
 -9.187461e-05  2.815867e-05  0 
 3.284171e-05  1.506406e-04  0 
 3.765078e-05  2.423400e-04  0 
 3.967384e-05  3.351621e-04  0 
 -3.045822e-04  2.887749e-04  0 
 -1.748828e-04  3.664390e-04  0 
 -4.159044e-05  4.593946e-04  0 
 -1.075099e-04  1.537265e-04  0 
 -1.048528e-04  2.449438e-04  0 
 -9.385013e-05  3.339734e-04  0 
 1.156250e-05  4.146811e-04  0 
 -1.604684e-05  4.140023e-04  0 
 -4.507592e-05  4.153843e-04  0 
 -7.164236e-05  -1.533460e-04  0 
 -3.655784e-05  -1.525782e-04  0 
 -2.061651e-06  -1.515015e-04  0 
 -6.873427e-05  -2.446440e-04  0 
 -3.344098e-05  -2.442350e-04  0 
 2.373184e-06  -2.430920e-04  0 
 -6.006636e-05  -3.339817e-04  0 
 -2.747950e-05  -3.351279e-04  0 
 4.060784e-06  -3.367226e-04  0 
 2.479817e-05  -1.178957e-04  0 
 6.829495e-06  -8.217142e-05  0 
 -2.316389e-05  -3.839043e-05  0 
 2.306665e-05  -1.864922e-04  0 
 2.103494e-06  -1.204258e-04  0 
 -3.140215e-05  -6.486149e-05  0 
 -1.186253e-05  -2.784714e-04  0 
 -3.289186e-05  -2.149020e-04  0 
 -3.115639e-05  -9.437212e-05  0 
 -6.306273e-05  -1.085003e-06  0 
 -6.432286e-05  1.132175e-07  0 
 -6.308751e-05  1.311355e-06  0 
 -7.043067e-05  1.749285e-06  0 
 -7.020040e-05  1.414641e-07  0 
 -7.045796e-05  -1.466218e-06  0 
 -7.775897e-05  -3.774416e-06  0 
 -7.573752e-05  1.795074e-07  0 
 -7.779505e-05  4.130812e-06  0 
 -2.315556e-05  3.853988e-05  0 
 6.760776e-06  8.231901e-05  0 
 2.478629e-05  1.181387e-04  0 
 -3.146195e-05  6.514405e-05  0 
 2.038332e-06  1.206940e-04  0 
 2.298377e-05  1.867128e-04  0 
 -3.129724e-05  9.466755e-05  0 
 -3.298186e-05  2.152077e-04  0 
 -1.195702e-05  2.788298e-04  0 
 -2.179233e-06  1.516394e-04  0 
 -3.670835e-05  1.527179e-04  0 
 -7.182442e-05  1.534868e-04  0 
 2.257267e-06  2.433149e-04  0 
 -3.358985e-05  2.444577e-04  0 
 -6.891633e-05  2.448664e-04  0 
 3.945088e-06  3.370295e-04  0 
 -2.762800e-05  3.354342e-04  0 
 -6.024526e-05  3.342878e-04  0 
VECTORS displacement_ITER2 FLOAT
 -5.577006e-05  -1.914833e-06  0 
 -2.580574e-05  -2.639061e-04  0 
 3.904483e-05  3.172077e-06  0 
 -5.275565e-05  -1.170397e-05  0 
 -5.272876e-05  1.149479e-05  0 
 3.908250e-05  -3.171125e-06  0 
 -5.565013e-05  1.911439e-06  0 
 6.356853e-05  -2.798689e-04  0 
 -1.359526e-04  -1.052319e-04  0 
 -1.359718e-04  1.050181e-04  0 
 6.359452e-05  2.796439e-04  0 
 -2.567849e-05  2.636681e-04  0 
 -5.605242e-05  -6.617517e-05  0 
 -5.289416e-05  -1.348541e-04  0 
 -4.238212e-05  -2.028378e-04  0 
 -3.072346e-05  -1.898868e-06  0 
 -6.363062e-06  -1.741134e-06  0 
 1.710237e-05  -7.815773e-07  0 
 3.702299e-05  3.625844e-06  0 
 5.203538e-07  -3.047850e-06  0 
 -2.579907e-05  1.081706e-05  0 
 -5.866096e-05  -5.275963e-06  0 
 -6.035353e-05  -1.125098e-07  0 
 -5.864435e-05  5.057770e-06  0 
 -2.549027e-05  -1.102065e-05  0 
 5.787852e-07  2.760938e-06  0 
 3.710414e-05  -3.690996e-06  0 
 1.715759e-05  7.923849e-07  0 
 -6.295288e-06  1.750882e-06  0 
 -3.063522e-05  1.899464e-06  0 
 4.854593e-05  -6.513833e-05  0 
 5.382609e-05  -1.338210e-04  0 
 5.865147e-05  -2.004571e-04  0 
 -2.531022e-06  -2.638624e-04  0 
 1.847586e-05  -2.647671e-04  0 
 3.726199e-05  -2.664892e-04  0 
 -6.215493e-05  -1.016729e-07  0 
 -7.040822e-05  1.736359e-06  0 
 -9.802323e-05  7.679405e-06  0 
 -4.970082e-06  -2.868978e-04  0 
 -1.010739e-04  -2.843162e-04  0 
 -1.616766e-04  -1.441698e-04  0 
 -6.214385e-05  -1.356573e-07  0 
 -7.041111e-05  -1.972690e-06  0 
 -9.803033e-05  -7.908605e-06  0 
 -9.544739e-05  -4.658535e-05  0 
 -8.897172e-05  -1.077571e-07  0 
 -9.545483e-05  4.637192e-05  0 
 4.857241e-05  6.508791e-05  0 
 5.385224e-05  1.337065e-04  0 
 5.867901e-05  2.002813e-04  0 
 -1.614770e-04  1.438264e-04  0 
 -1.008177e-04  2.840513e-04  0 
 -4.880594e-06  2.867687e-04  0 
 -5.593515e-05  6.612073e-05  0 
 -5.277193e-05  1.347434e-04  0 
 -4.225802e-05  2.026654e-04  0 
 3.730770e-05  2.662574e-04  0 
 1.854631e-05  2.645318e-04  0 
 -2.430283e-06  2.636241e-04  0 
 -2.969403e-05  -6.602133e-05  0 
 -3.790201e-06  -6.554839e-05  0 
 2.184604e-05  -6.496849e-05  0 
 -2.551301e-05  -1.347372e-04  0 
 1.257051e-06  -1.344269e-04  0 
 2.789232e-05  -1.339468e-04  0 
 -1.704663e-05  -2.031209e-04  0 
 7.828320e-06  -2.035505e-04  0 
 3.293955e-05  -2.036192e-04  0 
 2.837666e-05  -5.089489e-05  0 
 7.203286e-06  -3.309291e-05  0 
 -2.316381e-05  -2.175149e-05  0 
 3.143616e-05  -1.035638e-04  0 
 1.854865e-06  -7.204558e-05  0 
 -3.149056e-05  -3.314447e-05  0 
 1.079279e-05  -1.749956e-04  0 
 -1.658600e-05  -1.240332e-04  0 
 -4.852865e-05  -7.521966e-05  0 
 -6.433169e-05  -8.734466e-07  0 
 -6.553413e-05  -1.178262e-07  0 
 -6.432760e-05  6.371888e-07  0 
 -7.453101e-05  3.156851e-06  0 
 -7.525453e-05  -1.188173e-07  0 
 -7.453149e-05  -3.394129e-06  0 
 -8.479190e-05  -2.500516e-07  0 
 -7.924471e-05  -1.147002e-07  0 
 -8.479629e-05  2.028060e-08  0 
 -2.316989e-05  2.155779e-05  0 
 7.244338e-06  3.298261e-05  0 
 2.838927e-05  5.079188e-05  0 
 -3.149185e-05  3.293911e-05  0 
 1.846977e-06  7.187064e-05  0 
 3.144889e-05  1.034303e-04  0 
 -4.852863e-05  7.503284e-05  0 
 -1.655854e-05  1.238233e-04  0 
 1.083584e-05  1.747667e-04  0 
 2.189615e-05  6.491691e-05  0 
 -3.714907e-06  6.549600e-05  0 
 -2.959596e-05  6.596780e-05  0 
 2.794337e-05  1.338332e-04  0 
 1.331678e-06  1.343143e-04  0 
 -2.541478e-05  1.346258e-04  0 
 3.298948e-05  2.034455e-04  0 
 7.902281e-06  2.033780e-04  0 
 -1.694822e-05  2.029489e-04  0 
VECTORS displacement_ITER3 FLOAT
 -3.375788e-05  -4.438053e-06  0 
 -1.288567e-05  -2.503022e-04  0 
 4.383382e-05  -1.425768e-07  0 
 -4.880176e-05  -1.166982e-05  0 
 -4.881857e-05  1.191009e-05  0 
 4.381661e-05  7.619061e-08  0 
 -3.384788e-05  4.377258e-06  0 
 8.550586e-05  -2.630608e-04  0 
 -1.504699e-04  -1.163297e-04  0 
 -1.504794e-04  1.165818e-04  0 
 8.549430e-05  2.631778e-04  0 
 -1.296205e-05  2.504197e-04  0 
 -3.517460e-05  -5.917766e-05  0 
 -3.434687e-05  -1.210500e-04  0 
 -2.717720e-05  -1.871307e-04  0 
 -1.277274e-05  -4.511845e-06  0 
 7.686693e-06  -4.369529e-06  0 
 2.664198e-05  -3.341801e-06  0 
 8.121735e-06  -9.313219e-06  0 
 -6.791458e-06  3.395692e-06  0 
 -2.492286e-05  -2.231157e-06  0 
 -5.705668e-05  -5.746947e-06  0 
 -5.880903e-05  1.299327e-07  0 
 -5.706888e-05  5.998497e-06  0 
 -2.506875e-05  2.397581e-06  0 
 -6.942113e-06  -3.203364e-06  0 
 8.102245e-06  9.410347e-06  0 
 2.661109e-05  3.263599e-06  0 
 7.648902e-06  4.290757e-06  0 
 -1.282787e-05  4.444591e-06  0 
 5.619928e-05  -5.799807e-05  0 
 6.502188e-05  -1.200809e-04  0 
 7.468600e-05  -1.845280e-04  0 
 1.044976e-05  -2.500064e-04  0 
 3.400579e-05  -2.508437e-04  0 
 5.655633e-05  -2.561064e-04  0 
 -6.181911e-05  2.978630e-07  0 
 -7.063355e-05  2.530961e-06  0 
 -1.009373e-04  1.118315e-05  0 
 1.252302e-05  -2.176057e-04  0 
 -9.522110e-05  -1.923091e-04  0 
 -1.399212e-04  -1.543759e-04  0 
 -6.181942e-05  -4.529214e-08  0 
 -7.062968e-05  -2.287775e-06  0 
 -1.009400e-04  -1.094243e-05  0 
 -9.800856e-05  -5.416015e-05  0 
 -8.525334e-05  1.253532e-07  0 
 -9.801187e-05  5.441075e-05  0 
 5.619588e-05  5.797673e-05  0 
 6.501448e-05  1.201153e-04  0 
 7.467351e-05  1.846069e-04  0 
 -1.399732e-04  1.547123e-04  0 
 -9.534411e-05  1.924741e-04  0 
 1.246590e-05  2.176379e-04  0 
 -3.525678e-05  5.916073e-05  0 
 -3.443160e-05  1.210799e-04  0 
 -2.725774e-05  1.872082e-04  0 
 5.652684e-05  2.562257e-04  0 
 3.395945e-05  2.509617e-04  0 
 1.038865e-05  2.501242e-04  0 
 -1.214153e-05  -5.899886e-05  0 
 1.043103e-05  -5.851763e-05  0 
 3.287770e-05  -5.792097e-05  0 
 -8.782538e-06  -1.209605e-04  0 
 1.633302e-05  -1.206375e-04  0 
 4.102550e-05  -1.203447e-04  0 
 -1.406381e-06  -1.872682e-04  0 
 2.342321e-05  -1.874356e-04  0 
 4.888702e-05  -1.864793e-04  0 
 3.546189e-05  -4.542959e-05  0 
 7.554174e-06  -3.663348e-05  0 
 -2.320247e-05  -2.061142e-05  0 
 3.803364e-05  -9.562406e-05  0 
 7.195864e-06  -6.570391e-05  0 
 -2.836514e-05  -3.218884e-05  0 
 2.487662e-05  -1.623475e-04  0 
 -1.564136e-05  -1.184876e-04  0 
 -5.970716e-05  -6.022690e-05  0 
 -6.361928e-05  -3.808489e-07  0 
 -6.501636e-05  1.258523e-07  0 
 -6.361820e-05  6.329760e-07  0 
 -7.561500e-05  3.725023e-06  0 
 -7.653223e-05  1.222702e-07  0 
 -7.561400e-05  -3.480753e-06  0 
 -8.694517e-05  2.278225e-06  0 
 -8.116768e-05  1.212869e-07  0 
 -8.694645e-05  -2.036144e-06  0 
 -2.320876e-05  2.081080e-05  0 
 7.545417e-06  3.673572e-05  0 
 3.544898e-05  4.546280e-05  0 
 -2.835520e-05  3.237967e-05  0 
 7.207448e-06  6.584318e-05  0 
 3.803660e-05  9.570751e-05  0 
 -5.972467e-05  6.040155e-05  0 
 -1.566413e-05  1.186499e-04  0 
 2.485795e-05  1.624916e-04  0 
 3.285321e-05  5.790035e-05  0 
 1.038376e-05  5.849814e-05  0 
 -1.220889e-05  5.898094e-05  0 
 4.099827e-05  1.203777e-04  0 
 1.628701e-05  1.206694e-04  0 
 -8.847368e-06  1.209911e-04  0 
 4.885864e-05  1.865569e-04  0 
 2.337768e-05  1.875131e-04  0 
 -1.469507e-06  1.873456e-04  0 
VECTORS displacement_ITER4 FLOAT
 -1.818607e-05  -1.053552e-05  0 
 1.795137e-09  -2.174303e-04  0 
 3.939027e-05  -6.464683e-06  0 
 -4.554205e-05  -1.113125e-05  0 
 -4.554425e-05  1.081231e-05  0 
 3.939357e-05  6.513442e-06  0 
 -1.810603e-05  1.057828e-05  0 
 8.879808e-05  -2.270791e-04  0 
 -1.551044e-04  -1.178926e-04  0 
 -1.551415e-04  1.177063e-04  0 
 8.878468e-05  2.269031e-04  0 
 8.263526e-08  2.172509e-04  0 
 -1.973382e-05  -5.376601e-05  0 
 -1.926360e-05  -1.050570e-04  0 
 -1.291271e-05  -1.620904e-04  0 
 -2.014439e-06  -1.063047e-05  0 
 1.369857e-05  -1.066274e-05  0 
 2.796995e-05  -9.699372e-06  0 
 1.025913e-05  2.586663e-06  0 
 -5.552884e-07  4.692782e-07  0 
 -2.048335e-05  -6.862407e-06  0 
 -5.524117e-05  -6.124887e-06  0 
 -5.760518e-05  -1.701032e-07  0 
 -5.523805e-05  5.792617e-06  0 
 -2.035361e-05  6.692152e-06  0 
 -3.311102e-07  -6.362368e-07  0 
 1.034894e-05  -2.721621e-06  0 
 2.798671e-05  9.762145e-06  0 
 1.372264e-05  1.072747e-05  0 
 -1.971996e-06  1.068207e-05  0 
 5.420372e-05  -5.239945e-05  0 
 6.460187e-05  -1.044557e-04  0 
 7.533462e-05  -1.599973e-04  0 
 2.120007e-05  -2.179886e-04  0 
 4.116347e-05  -2.190771e-04  0 
 6.321801e-05  -2.223401e-04  0 
 -6.129387e-05  4.130846e-07  0 
 -7.094915e-05  2.502876e-06  0 
 -1.024317e-04  1.110671e-05  0 
 8.354677e-06  -2.180813e-04  0 
 -5.707702e-05  -1.886891e-04  0 
 -1.203649e-04  -1.628290e-04  0 
 -6.131571e-05  -7.195956e-07  0 
 -7.098044e-05  -2.769881e-06  0 
 -1.024640e-04  -1.133301e-05  0 
 -1.012355e-04  -5.653505e-05  0 
 -8.604498e-05  -9.210859e-08  0 
 -1.012535e-04  5.634995e-05  0 
 5.419002e-05  5.240237e-05  0 
 6.458704e-05  1.043933e-04  0 
 7.532191e-05  1.598762e-04  0 
 -1.203699e-04  1.625975e-04  0 
 -5.700567e-05  1.885246e-04  0 
 8.378220e-06  2.179644e-04  0 
 -1.965978e-05  5.376313e-05  0 
 -1.918254e-05  1.049989e-04  0 
 -1.283174e-05  1.619711e-04  0 
 6.322783e-05  2.221633e-04  0 
 4.119623e-05  2.188984e-04  0 
 2.125619e-05  2.178092e-04  0 
 -1.129320e-06  -5.360542e-05  0 
 1.705063e-05  -5.307854e-05  0 
 3.505661e-05  -5.236415e-05  0 
 2.398440e-06  -1.049760e-04  0 
 2.347199e-05  -1.047841e-04  0 
 4.432246e-05  -1.046704e-04  0 
 9.468546e-06  -1.620852e-04  0 
 3.152152e-05  -1.620058e-04  0 
 5.332957e-05  -1.612709e-04  0 
 3.362149e-05  -4.433755e-05  0 
 7.053391e-06  -3.321504e-05  0 
 -2.339434e-05  -1.816408e-05  0 
 3.525569e-05  -8.491412e-05  0 
 4.507237e-06  -5.874465e-05  0 
 -3.050357e-05  -2.846015e-05  0 
 2.834492e-05  -1.396202e-04  0 
 -1.832904e-05  -1.075782e-04  0 
 -5.998838e-05  -5.703444e-05  0 
 -6.274560e-05  -2.267762e-07  0 
 -6.410643e-05  -1.529955e-07  0 
 -6.275803e-05  -7.931628e-08  0 
 -7.598999e-05  3.466673e-06  0 
 -7.687049e-05  -1.341542e-07  0 
 -7.600477e-05  -3.734770e-06  0 
 -8.826958e-05  2.532418e-06  0 
 -8.268427e-05  -1.137890e-07  0 
 -8.828633e-05  -2.759596e-06  0 
 -2.340447e-05  1.791059e-05  0 
 7.043591e-06  3.306830e-05  0 
 3.361760e-05  4.428998e-05  0 
 -3.054675e-05  2.824642e-05  0 
 4.462209e-06  5.858155e-05  0 
 3.522105e-05  8.480218e-05  0 
 -6.001694e-05  5.685256e-05  0 
 -1.835999e-05  1.074075e-04  0 
 2.832173e-05  1.394599e-04  0 
 3.506584e-05  5.236563e-05  0 
 1.708525e-05  5.307830e-05  0 
 -1.071876e-06  5.360335e-05  0 
 4.433257e-05  1.046093e-04  0 
 2.350552e-05  1.047241e-04  0 
 2.455120e-06  1.049173e-04  0 
 5.333910e-05  1.611505e-04  0 
 3.155447e-05  1.618862e-04  0 
 9.525535e-06  1.619659e-04  0 
VECTORS displacement_ITER5 FLOAT
 -9.558906e-06  -8.068060e-06  0 
 6.474981e-06  -2.069715e-04  0 
 3.968476e-05  -4.885270e-06  0 
 -3.502101e-05  -9.165765e-06  0 
 -3.500616e-05  9.780603e-06  0 
 3.969081e-05  4.775382e-06  0 
 -9.670716e-06  7.968139e-06  0 
 9.743646e-05  -2.128186e-04  0 
 -1.519503e-04  -1.172709e-04  0 
 -1.518883e-04  1.176057e-04  0 
 9.748629e-05  2.130847e-04  0 
 6.359471e-06  2.072434e-04  0 
 -1.084245e-05  -4.727127e-05  0 
 -1.059215e-05  -9.521403e-05  0 
 -5.123816e-06  -1.504380e-04  0 
 5.228080e-06  -8.057660e-06  0 
 1.918734e-05  -8.042512e-06  0 
 3.129372e-05  -7.642316e-06  0 
 2.112075e-05  -5.241353e-06  0 
 -6.035496e-06  -9.731730e-06  0 
 -1.849917e-05  -2.170483e-06  0 
 -4.541757e-05  -5.355238e-06  0 
 -4.833750e-05  3.288318e-07  0 
 -4.541868e-05  5.997350e-06  0 
 -1.874790e-05  2.475176e-06  0 
 -6.416472e-06  9.978629e-06  0 
 2.088213e-05  5.428153e-06  0 
 3.128319e-05  7.503176e-06  0 
 1.917146e-05  7.899062e-06  0 
 5.184531e-06  7.940052e-06  0 
 5.737349e-05  -4.563870e-05  0 
 6.937593e-05  -9.500133e-05  0 
 8.157684e-05  -1.488736e-04  0 
 2.828227e-05  -2.069903e-04  0 
 4.967441e-05  -2.082570e-04  0 
 7.205320e-05  -2.095557e-04  0 
 -5.353098e-05  1.004990e-06  0 
 -6.426146e-05  2.776342e-06  0 
 -9.686392e-05  1.162634e-05  0 
 2.620302e-05  -2.141517e-04  0 
 -4.946401e-05  -2.024914e-04  0 
 -1.221528e-04  -1.730580e-04  0 
 -5.347886e-05  -4.275686e-07  0 
 -6.419520e-05  -2.286015e-06  0 
 -9.680173e-05  -1.121858e-05  0 
 -9.712005e-05  -5.608316e-05  0 
 -8.187820e-05  1.659318e-07  0 
 -9.708934e-05  5.641679e-05  0 
 5.741648e-05  4.559654e-05  0 
 6.942409e-05  9.507241e-05  0 
 8.162249e-05  1.490455e-04  0 
 -1.221530e-04  1.735175e-04  0 
 -4.960383e-05  2.028030e-04  0 
 2.619767e-05  2.142956e-04  0 
 -1.094228e-05  4.724237e-05  0 
 -1.070751e-05  9.527612e-05  0 
 -5.239982e-06  1.506062e-04  0 
 7.206202e-05  2.098239e-04  0 
 4.964214e-05  2.085286e-04  0 
 2.820845e-05  2.072624e-04  0 
 6.215401e-06  -4.709819e-05  0 
 2.296052e-05  -4.651255e-05  0 
 3.954607e-05  -4.564566e-05  0 
 9.999942e-06  -9.515979e-05  0 
 3.005615e-05  -9.510962e-05  0 
 4.991592e-05  -9.511970e-05  0 
 1.716610e-05  -1.504765e-04  0 
 3.895197e-05  -1.502239e-04  0 
 6.043706e-05  -1.498094e-04  0 
 3.533548e-05  -3.878372e-05  0 
 1.159902e-05  -2.897370e-05  0 
 -1.857825e-05  -1.872532e-05  0 
 4.058340e-05  -7.815464e-05  0 
 9.753937e-06  -5.453408e-05  0 
 -2.467077e-05  -2.586764e-05  0 
 3.123430e-05  -1.338241e-04  0 
 -1.328087e-05  -1.043428e-04  0 
 -5.234656e-05  -5.589476e-05  0 
 -5.450678e-05  5.076244e-07  0 
 -5.570926e-05  2.882899e-07  0 
 -5.447781e-05  6.899749e-08  0 
 -6.926817e-05  3.722661e-06  0 
 -7.011863e-05  2.464447e-07  0 
 -6.923675e-05  -3.230106e-06  0 
 -8.298832e-05  3.014237e-06  0 
 -7.739631e-05  2.050712e-07  0 
 -8.295637e-05  -2.605009e-06  0 
 -1.854010e-05  1.918947e-05  0 
 1.162159e-05  2.923752e-05  0 
 3.536581e-05  3.885152e-05  0 
 -2.458162e-05  2.625310e-05  0 
 9.853681e-06  5.481348e-05  0 
 4.066426e-05  7.832733e-05  0 
 -5.228665e-05  5.620942e-05  0 
 -1.321755e-05  1.046327e-04  0 
 3.128421e-05  1.340924e-04  0 
 3.955147e-05  4.560713e-05  0 
 2.292331e-05  4.647782e-05  0 
 6.140459e-06  4.706748e-05  0 
 4.992099e-05  9.518787e-05  0 
 3.002152e-05  9.517574e-05  0 
 9.926217e-06  9.522328e-05  0 
 6.044467e-05  1.499794e-04  0 
 3.891914e-05  1.503923e-04  0 
 1.709169e-05  1.506445e-04  0 
VECTORS displacement_ITER6 FLOAT
 -8.578823e-06  -1.490393e-05  0 
 5.456931e-06  -2.093790e-04  0 
 3.474432e-05  -1.250395e-05  0 
 -3.402745e-05  -8.880027e-06  0 
 -3.404334e-05  8.429455e-06  0 
 3.472462e-05  1.259448e-05  0 
 -8.531420e-06  1.498770e-05  0 
 9.836579e-05  -2.140677e-04  0 
 -1.549739e-04  -1.169910e-04  0 
 -1.550296e-04  1.167849e-04  0 
 9.831531e-05  2.139296e-04  0 
 5.504372e-06  2.092388e-04  0 
 -1.000452e-05  -5.158634e-05  0 
 -1.014018e-05  -9.747960e-05  0 
 -5.377204e-06  -1.519019e-04  0 
 4.988445e-06  -1.508017e-05  0 
 1.793391e-05  -1.537836e-05  0 
 2.864506e-05  -1.518153e-05  0 
 1.510319e-05  -8.816478e-06  0 
 -1.475084e-06  -8.047462e-06  0 
 -1.462671e-05  -7.705157e-06  0 
 -4.508586e-05  -5.586921e-06  0 
 -4.818963e-05  -2.420662e-07  0 
 -4.508755e-05  5.115080e-06  0 
 -1.444268e-05  7.483700e-06  0 
 -1.224548e-06  7.884935e-06  0 
 1.529259e-05  8.706753e-06  0 
 2.863188e-05  1.529491e-05  0 
 1.791889e-05  1.549487e-05  0 
 4.988987e-06  1.517707e-05  0 
 5.438558e-05  -4.962164e-05  0 
 6.768485e-05  -9.735195e-05  0 
 8.105337e-05  -1.504396e-04  0 
 2.788195e-05  -2.093815e-04  0 
 5.002794e-05  -2.101514e-04  0 
 7.253419e-05  -2.112779e-04  0 
 -5.407771e-05  6.418829e-07  0 
 -6.538012e-05  2.169710e-06  0 
 -9.856073e-05  1.138402e-05  0 
 3.347769e-05  -2.176569e-04  0 
 -5.218122e-05  -2.097397e-04  0 
 -1.276053e-04  -1.738214e-04  0 
 -5.412321e-05  -1.057831e-06  0 
 -6.543707e-05  -2.511425e-06  0 
 -9.861532e-05  -1.165412e-05  0 
 -9.965689e-05  -5.586132e-05  0 
 -8.475971e-05  -1.013526e-07  0 
 -9.968463e-05  5.565742e-05  0 
 5.433733e-05  4.967554e-05  0 
 6.763273e-05  9.733325e-05  0 
 8.100383e-05  1.503587e-04  0 
 -1.276248e-04  1.735261e-04  0 
 -5.210640e-05  2.095691e-04  0 
 3.345983e-05  2.176143e-04  0 
 -9.966517e-06  5.162952e-05  0 
 -1.009044e-05  9.746756e-05  0 
 -5.327727e-06  1.518237e-04  0 
 7.250834e-05  2.111384e-04  0 
 5.002662e-05  2.100111e-04  0 
 2.790497e-05  2.092412e-04  0 
 6.144856e-06  -5.138840e-05  0 
 2.188022e-05  -5.073109e-05  0 
 3.743943e-05  -4.972538e-05  0 
 9.834714e-06  -9.743420e-05  0 
 2.935028e-05  -9.737810e-05  0 
 4.869224e-05  -9.743786e-05  0 
 1.696246e-05  -1.519165e-04  0 
 3.868820e-05  -1.517428e-04  0 
 6.014149e-05  -1.513100e-04  0 
 3.342373e-05  -4.302908e-05  0 
 9.592736e-06  -3.311678e-05  0 
 -1.942848e-05  -1.922621e-05  0 
 3.903297e-05  -8.029990e-05  0 
 7.939737e-06  -5.616155e-05  0 
 -2.634676e-05  -2.745314e-05  0 
 2.889732e-05  -1.362858e-04  0 
 -1.377064e-05  -1.065659e-04  0 
 -5.283243e-05  -5.774331e-05  0 
 -5.477397e-05  1.679125e-07  0 
 -5.594464e-05  -2.075624e-07  0 
 -5.479893e-05  -5.831721e-07  0 
 -7.039837e-05  3.187425e-06  0 
 -7.127438e-05  -1.718714e-07  0 
 -7.042551e-05  -3.530852e-06  0 
 -8.500260e-05  2.713830e-06  0 
 -7.943595e-05  -1.360910e-07  0 
 -8.503063e-05  -2.985365e-06  0 
 -1.946883e-05  1.890036e-05  0 
 9.568307e-06  3.293804e-05  0 
 3.338338e-05  4.299575e-05  0 
 -2.642156e-05  2.719183e-05  0 
 7.853732e-06  5.598298e-05  0 
 3.896023e-05  8.020371e-05  0 
 -5.288698e-05  5.754649e-05  0 
 -1.382863e-05  1.063907e-04  0 
 2.884550e-05  1.361311e-04  0 
 3.741417e-05  4.977624e-05  0 
 2.188179e-05  5.077895e-05  0 
 6.169519e-06  5.143308e-05  0 
 4.866731e-05  9.742138e-05  0 
 2.934991e-05  9.736311e-05  0 
 9.858434e-06  9.742112e-05  0 
 6.011531e-05  1.512305e-04  0 
 3.868679e-05  1.516644e-04  0 
 1.698642e-05  1.518383e-04  0 
VECTORS displacement_ITER7 FLOAT
 -1.031581e-05  -1.852606e-05  0 
 2.311913e-06  -2.128243e-04  0 
 2.970437e-05  -1.668474e-05  0 
 -3.333244e-05  -7.830148e-06  0 
 -3.330634e-05  8.294039e-06  0 
 2.975040e-05  1.654714e-05  0 
 -1.032542e-05  1.839716e-05  0 
 9.807954e-05  -2.178207e-04  0 
 -1.565411e-04  -1.162171e-04  0 
 -1.564733e-04  1.163740e-04  0 
 9.816163e-05  2.178911e-04  0 
 2.300455e-06  2.129005e-04  0 
 -1.189023e-05  -5.406383e-05  0 
 -1.247893e-05  -9.937127e-05  0 
 -8.141071e-06  -1.541688e-04  0 
 2.858006e-06  -1.871938e-05  0 
 1.521630e-05  -1.920018e-05  0 
 2.499941e-05  -1.925194e-05  0 
 9.900271e-06  -1.188988e-05  0 
 1.062729e-06  -9.245502e-06  0 
 -1.412881e-05  -1.106393e-05  0 
 -4.455882e-05  -4.913727e-06  0 
 -4.751786e-05  2.503138e-07  0 
 -4.455305e-05  5.400709e-06  0 
 -1.430942e-05  1.128515e-05  0 
 8.016799e-07  9.385489e-06  0 
 9.723975e-06  1.196944e-05  0 
 2.504283e-05  1.908961e-05  0 
 1.526630e-05  1.903479e-05  0 
 2.895172e-06  1.857600e-05  0 
 5.099248e-05  -5.183829e-05  0 
 6.528099e-05  -9.924949e-05  0 
 7.946113e-05  -1.525689e-04  0 
 2.560653e-05  -2.130637e-04  0 
 4.795300e-05  -2.133199e-04  0 
 7.101398e-05  -2.148776e-04  0 
 -5.425432e-05  1.034422e-06  0 
 -6.597480e-05  2.388793e-06  0 
 -9.953946e-05  1.160680e-05  0 
 3.095552e-05  -2.224980e-04  0 
 -5.467446e-05  -2.114078e-04  0 
 -1.278306e-04  -1.718642e-04  0 
 -5.419589e-05  -6.198220e-07  0 
 -6.590462e-05  -2.065965e-06  0 
 -9.947310e-05  -1.137142e-05  0 
 -1.011678e-04  -5.540373e-05  0 
 -8.636003e-05  7.693004e-08  0 
 -1.011343e-04  5.555856e-05  0 
 5.107071e-05  5.173097e-05  0 
 6.536349e-05  9.921173e-05  0 
 7.954041e-05  1.525892e-04  0 
 -1.278342e-04  1.721374e-04  0 
 -5.479089e-05  2.115258e-04  0 
 3.095998e-05  2.224687e-04  0 
 -1.188986e-05  5.396825e-05  0 
 -1.249149e-05  9.932567e-05  0 
 -8.153648e-06  1.541854e-04  0 
 7.107304e-05  2.149509e-04  0 
 4.798910e-05  2.133950e-04  0 
 2.561904e-05  2.131397e-04  0 
 3.867853e-06  -5.384554e-05  0 
 1.922222e-05  -5.311364e-05  0 
 3.437596e-05  -5.199468e-05  0 
 7.457726e-06  -9.932587e-05  0 
 2.693580e-05  -9.923404e-05  0 
 4.628157e-05  -9.932573e-05  0 
 1.447604e-05  -1.541520e-04  0 
 3.656700e-05  -1.540938e-04  0 
 5.831245e-05  -1.535019e-04  0 
 3.131224e-05  -4.553532e-05  0 
 7.394189e-06  -3.517122e-05  0 
 -2.019967e-05  -1.923799e-05  0 
 3.698555e-05  -8.185544e-05  0 
 6.349851e-06  -5.731401e-05  0 
 -2.750180e-05  -2.818133e-05  0 
 2.794341e-05  -1.378699e-04  0 
 -1.435608e-05  -1.076323e-04  0 
 -5.396182e-05  -5.849088e-05  0 
 -5.473849e-05  6.209928e-07  0 
 -5.588010e-05  2.069161e-07  0 
 -5.470683e-05  -2.070271e-07  0 
 -7.095358e-05  3.439861e-06  0 
 -7.178811e-05  1.625635e-07  0 
 -7.091998e-05  -3.115115e-06  0 
 -8.609727e-05  2.980034e-06  0 
 -8.051751e-05  1.188157e-07  0 
 -8.606321e-05  -2.743065e-06  0 
 -2.014274e-05  1.955066e-05  0 
 7.441352e-06  3.532340e-05  0 
 3.137670e-05  4.552574e-05  0 
 -2.740751e-05  2.841528e-05  0 
 6.460636e-06  5.745470e-05  0 
 3.708651e-05  8.190455e-05  0 
 -5.389367e-05  5.863898e-05  0 
 -1.428213e-05  1.077618e-04  0 
 2.801705e-05  1.379774e-04  0 
 3.443294e-05  5.189062e-05  0 
 1.925388e-05  5.301293e-05  0 
 3.878532e-06  5.374831e-05  0 
 4.633827e-05  9.928543e-05  0 
 2.696976e-05  9.919189e-05  0 
 7.469456e-06  9.928147e-05  0 
 5.837091e-05  1.535202e-04  0 
 3.660245e-05  1.541108e-04  0 
 1.448760e-05  1.541685e-04  0 
VECTORS displacement_ITER8 FLOAT
 -1.267077e-05  -1.848842e-05  0 
 -5.022186e-07  -2.179290e-04  0 
 2.743028e-05  -1.680768e-05  0 
 -3.094639e-05  -7.959361e-06  0 
 -3.099230e-05  7.278827e-06  0 
 2.733765e-05  1.703220e-05  0 
 -1.268662e-05  1.870045e-05  0 
 9.900456e-05  -2.235458e-04  0 
 -1.556654e-04  -1.160692e-04  0 
 -1.557720e-04  1.158815e-04  0 
 9.886092e-05  2.234808e-04  0 
 -5.178091e-07  2.178570e-04  0 
 -1.432244e-05  -5.467944e-05  0 
 -1.516800e-05  -1.009955e-04  0 
 -1.100084e-05  -1.573254e-04  0 
 7.970123e-07  -1.871860e-05  0 
 1.331994e-05  -1.930752e-05  0 
 2.308534e-05  -1.946023e-05  0 
 1.273289e-05  -1.445469e-05  0 
 -1.188534e-06  -1.290371e-05  0 
 -1.366805e-05  -7.914190e-06  0 
 -4.234643e-05  -5.275720e-06  0 
 -4.542867e-05  -3.678399e-07  0 
 -4.235848e-05  4.560392e-06  0 
 -1.340887e-05  7.608514e-06  0 
 -7.987991e-07  1.270517e-05  0 
 1.297061e-05  1.434198e-05  0 
 2.299477e-05  1.972182e-05  0 
 1.321798e-05  1.957383e-05  0 
 7.128698e-07  1.895226e-05  0 
 4.984033e-05  -5.234646e-05  0 
 6.464968e-05  -1.008496e-04  0 
 7.938627e-05  -1.555373e-04  0 
 2.351278e-05  -2.179249e-04  0 