# vtk DataFile Version 3.1
this is an vtk file created by FEMAC
ASCII
DATASET UNSTRUCTURED_GRID
POINTS 105 FLOAT
1.500000 0.000000 0.000000
2.000000 0.000000 0.000000
1.500000 0.200000 0.000000
1.500000 0.400000 0.000000
1.500000 0.600000 0.000000
1.500000 0.800000 0.000000
1.500000 1.000000 0.000000
2.000000 0.200000 0.000000
2.000000 0.400000 0.000000
2.000000 0.600000 0.000000
2.000000 0.800000 0.000000
2.000000 1.000000 0.000000
1.625000 0.000000 0.000000
1.750000 0.000000 0.000000
1.875000 0.000000 0.000000
1.500000 0.050000 0.000000
1.500000 0.100000 0.000000
1.500000 0.150000 0.000000
1.500000 0.250000 0.000000
1.500000 0.300000 0.000000
1.500000 0.350000 0.000000
1.500000 0.450000 0.000000
1.500000 0.500000 0.000000
1.500000 0.550000 0.000000
1.500000 0.650000 0.000000
1.500000 0.700000 0.000000
1.500000 0.750000 0.000000
1.500000 0.850000 0.000000
1.500000 0.900000 0.000000
1.500000 0.950000 0.000000
1.625000 0.200000 0.000000
1.750000 0.200000 0.000000
1.875000 0.200000 0.000000
2.000000 0.050000 0.000000
2.000000 0.100000 0.000000
2.000000 0.150000 0.000000
1.625000 0.400000 0.000000
1.750000 0.400000 0.000000
1.875000 0.400000 0.000000
2.000000 0.250000 0.000000
2.000000 0.300000 0.000000
2.000000 0.350000 0.000000
1.625000 0.600000 0.000000
1.750000 0.600000 0.000000
1.875000 0.600000 0.000000
2.000000 0.450000 0.000000
2.000000 0.500000 0.000000
2.000000 0.550000 0.000000
1.625000 0.800000 0.000000
1.750000 0.800000 0.000000
1.875000 0.800000 0.000000
2.000000 0.650000 0.000000
2.000000 0.700000 0.000000
2.000000 0.750000 0.000000
1.625000 1.000000 0.000000
1.750000 1.000000 0.000000
1.875000 1.000000 0.000000
2.000000 0.850000 0.000000
2.000000 0.900000 0.000000
2.000000 0.950000 0.000000
1.625000 0.050000 0.000000
1.625000 0.100000 0.000000
1.625000 0.150000 0.000000
1.750000 0.050000 0.000000
1.750000 0.100000 0.000000
1.750000 0.150000 0.000000
1.875000 0.050000 0.000000
1.875000 0.100000 0.000000
1.875000 0.150000 0.000000
1.625000 0.250000 0.000000
1.625000 0.300000 0.000000
1.625000 0.350000 0.000000
1.750000 0.250000 0.000000
1.750000 0.300000 0.000000
1.750000 0.350000 0.000000
1.875000 0.250000 0.000000
1.875000 0.300000 0.000000
1.875000 0.350000 0.000000
1.625000 0.450000 0.000000
1.625000 0.500000 0.000000
1.625000 0.550000 0.000000
1.750000 0.450000 0.000000
1.750000 0.500000 0.000000
1.750000 0.550000 0.000000
1.875000 0.450000 0.000000
1.875000 0.500000 0.000000
1.875000 0.550000 0.000000
1.625000 0.650000 0.000000
1.625000 0.700000 0.000000
1.625000 0.750000 0.000000
1.750000 0.650000 0.000000
1.750000 0.700000 0.000000
1.750000 0.750000 0.000000
1.875000 0.650000 0.000000
1.875000 0.700000 0.000000
1.875000 0.750000 0.000000
1.625000 0.850000 0.000000
1.625000 0.900000 0.000000
1.625000 0.950000 0.000000
1.750000 0.850000 0.000000
1.750000 0.900000 0.000000
1.750000 0.950000 0.000000
1.875000 0.850000 0.000000
1.875000 0.900000 0.000000
1.875000 0.950000 0.000000
CELLS 80 400 
4 0 12 60 15
4 15 60 61 16
4 16 61 62 17
4 17 62 30  2
4 12 13 63 60
4 60 63 64 61
4 61 64 65 62
4 62 65 31 30
4 13 14 66 63
4 63 66 67 64
4 64 67 68 65
4 65 68 32 31
4 14  1 33 66
4 66 33 34 67
4 67 34 35 68
4 68 35  7 32
4 2 30 69 18
4 18 69 70 19
4 19 70 71 20
4 20 71 36  3
4 30 31 72 69
4 69 72 73 70
4 70 73 74 71
4 71 74 37 36
4 31 32 75 72
4 72 75 76 73
4 73 76 77 74
4 74 77 38 37
4 32  7 39 75
4 75 39 40 76
4 76 40 41 77
4 77 41  8 38
4 3 36 78 21
4 21 78 79 22
4 22 79 80 23
4 23 80 42  4
4 36 37 81 78
4 78 81 82 79
4 79 82 83 80
4 80 83 43 42
4 37 38 84 81
4 81 84 85 82
4 82 85 86 83
4 83 86 44 43
4 38  8 45 84
4 84 45 46 85
4 85 46 47 86
4 86 47  9 44
4 4 42 87 24
4 24 87 88 25
4 25 88 89 26
4 26 89 48  5
4 42 43 90 87
4 87 90 91 88
4 88 91 92 89
4 89 92 49 48
4 43 44 93 90
4 90 93 94 91
4 91 94 95 92
4 92 95 50 49
4 44  9 51 93
4 93 51 52 94
4 94 52 53 95
4 95 53 10 50
4 5 48 96 27
4 27 96 97 28
4 28 97 98 29
4 29 98 54  6
4 48 49 99 96
4 96  99 100  97
4 97 100 101  98
4 98 101  55  54
4 49  50 102  99
4 99 102 103 100
4 100 103 104 101
4 101 104  56  55
4 50  10  57 102
4 102  57  58 103
4 103  58  59 104
4 104  59  11  56
CELL_TYPES 80
9 9 9 9 9 9 9 9 9 9 9 9 9 9 9 9 9 9 9 9 9 9 9 9 9 9 9 9 9 9 9 9 9 9 9 9 9 9 9 9 9 9 9 9 9 9 9 9 9 9 9 9 9 9 9 9 9 9 9 9 9 9 9 9 9 9 9 9 9 9 9 9 9 9 9 9 9 9 9 9 
POINT_DATA 105
VECTORS displacement_ITER1 FLOAT
 1.355530e-14  7.252788e-15  0 
 3.984822e-15  1.463462e-14  0 
 6.096528e-15  7.976711e-15  0 
 2.707864e-15  8.071841e-15  0 
 -4.554601e-16  8.039648e-15  0 
 -3.835998e-15  7.951784e-15  0 
 -1.120193e-14  7.128786e-15  0 
 5.307006e-15  1.544988e-14  0 
 2.678569e-15  1.554703e-14  0 
 -4.744276e-16  1.551569e-14  0 
 -3.111669e-15  1.542586e-14  0 
 -1.884675e-15  1.451278e-14  0 
 1.091845e-14  1.042649e-14  0 
 8.690050e-15  1.281237e-14  0 
 6.496605e-15  1.412840e-14  0 
 1.216837e-14  7.197238e-15  0 
 1.051382e-14  7.121221e-15  0 
 8.518513e-15  7.241158e-15  0 
 5.189623e-15  8.015400e-15  0 
 4.337714e-15  8.048524e-15  0 
 3.515516e-15  8.067704e-15  0 
 2.049802e-15  7.885757e-15  0 
 1.178787e-15  7.807382e-15  0 
 2.848948e-16  7.862561e-15  0 
 -1.267158e-15  8.036857e-15  0 
 -2.089388e-15  8.019677e-15  0 
 -2.937629e-15  7.988752e-15  0 
 -6.147961e-15  7.199140e-15  0 
 -8.103775e-15  7.042716e-15  0 
 -9.765302e-15  7.086642e-15  0 
 5.913009e-15  1.014492e-14  0 
 5.688938e-15  1.208607e-14  0 
 5.471520e-15  1.387361e-14  0 
 3.894183e-15  1.458685e-14  0 
 4.029734e-15  1.453028e-14  0 
 4.477143e-15  1.467893e-14  0 
 2.681064e-15  1.010090e-14  0 
 2.700954e-15  1.204771e-14  0 
 2.717069e-15  1.383180e-14  0 
 4.707519e-15  1.548919e-14  0 
 4.056871e-15  1.552270e-14  0 
 3.376623e-15  1.554265e-14  0 
 -4.423160e-16  1.007087e-14  0 
 -4.726798e-16  1.201480e-14  0 
 -4.992726e-16  1.380220e-14  0 
 1.757659e-15  1.535578e-14  0 
 1.049486e-15  1.527539e-14  0 
 3.640843e-16  1.533297e-14  0 
 -3.669132e-15  1.010874e-14  0 
 -3.461022e-15  1.204995e-14  0 
 -3.259561e-15  1.383789e-14  0 
 -1.168608e-15  1.551267e-14  0 
 -1.848977e-15  1.549473e-14  0 
 -2.503500e-15  1.546344e-14  0 
 -8.632643e-15  1.037238e-14  0 
 -6.462727e-15  1.275483e-14  0 
 -4.327992e-15  1.407478e-14  0 
 -2.391877e-15  1.463850e-14  0 
 -1.985627e-15  1.445344e-14  0 
 -1.842367e-15  1.447803e-14  0 
 9.718476e-15  1.044920e-14  0 
 8.427012e-15  1.048943e-14  0 
 7.086690e-15  1.047187e-14  0 
 7.946884e-15  1.278889e-14  0 
 7.198893e-15  1.268341e-14  0 
 6.446918e-15  1.242508e-14  0 
 6.210706e-15  1.415010e-14  0 
 6.002407e-15  1.419113e-14  0 
 5.825214e-15  1.418090e-14  0 
 5.091020e-15  1.012834e-14  0 
 4.280526e-15  1.011441e-14  0 
 3.480407e-15  1.010538e-14  0 
 4.942655e-15  1.207566e-14  0 
 4.195597e-15  1.206217e-14  0 
 3.448214e-15  1.205190e-14  0 
 4.798277e-15  1.385807e-14  0 
 4.111650e-15  1.384513e-14  0 
 3.414256e-15  1.383628e-14  0 
 1.904333e-15  1.006357e-14  0 
 1.124758e-15  1.005685e-14  0 
 3.400572e-16  1.005620e-14  0 
 1.907907e-15  1.199844e-14  0 
 1.114183e-15  1.197523e-14  0 
 3.204293e-16  1.198145e-14  0 
 1.907911e-15  1.379910e-14  0 
 1.103579e-15  1.379377e-14  0 
 3.043709e-16  1.379196e-14  0 
 -1.241008e-15  1.007402e-14  0 
 -2.040343e-15  1.008145e-14  0 
 -2.849159e-15  1.009369e-14  0 
 -1.220028e-15  1.201845e-14  0 
 -1.967499e-15  1.202765e-14  0 
 -2.714648e-15  1.204007e-14  0 
 -1.197281e-15  1.380536e-14  0 
 -1.895637e-15  1.381262e-14  0 
 -2.584115e-15  1.382387e-14  0 
 -4.822482e-15  1.041251e-14  0 
 -6.143871e-15  1.042866e-14  0 
 -7.430103e-15  1.039238e-14  0 
 -4.219136e-15  1.237646e-14  0 
 -4.971315e-15  1.262691e-14  0 
 -5.719412e-15  1.273124e-14  0 
 -3.634008e-15  1.412197e-14  0 
 -3.830269e-15  1.413095e-14  0 
 -4.044458e-15  1.409391e-14  0 
VECTORS displacement_ITER2 FLOAT
 -1.464379e-14  -1.291537e-14  0 
 -1.294417e-14  -2.565574e-14  0 
 -8.525021e-15  -1.458877e-14  0 
 -3.494756e-15  -1.458047e-14  0 
 1.632727e-15  -1.457770e-14  0 
 6.658347e-15  -1.459210e-14  0 
 1.255266e-14  -1.299508e-14  0 
 -9.001223e-15  -2.765605e-14  0 
 -3.594706e-15  -2.765385e-14  0 
 1.723755e-15  -2.765185e-14  0 
 7.135620e-15  -2.766015e-14  0 
 1.130408e-14  -2.573746e-14  0 
 -1.432192e-14  -1.761495e-14  0 
 -1.395173e-14  -2.114203e-14  0 
 -1.349047e-14  -2.413978e-14  0 
 -1.251492e-14  -1.302667e-14  0 
 -1.070423e-14  -1.334345e-14  0 
 -9.249550e-15  -1.387175e-14  0 
 -7.308706e-15  -1.458589e-14  0 
 -6.056439e-15  -1.458104e-14  0 
 -4.783109e-15  -1.457863e-14  0 
 -2.204457e-15  -1.480940e-14  0 
 -9.653228e-16  -1.484379e-14  0 
 2.969050e-16  -1.477620e-14  0 
 2.918509e-15  -1.457683e-14  0 
 4.190474e-15  -1.458069e-14  0 
 5.442043e-15  -1.458734e-14  0 
 7.319503e-15  -1.396424e-14  0 
 8.697901e-15  -1.344842e-14  0 
 1.045478e-14  -1.311624e-14  0 
 -8.649019e-15  -1.772594e-14  0 
 -8.768069e-15  -2.097825e-14  0 
 -8.885517e-15  -2.426242e-14  0 
 -1.266734e-14  -2.580994e-14  0 
 -1.198488e-14  -2.622565e-14  0 
 -1.087680e-14  -2.686034e-14  0 
 -3.536162e-15  -1.776020e-14  0 
 -3.539038e-15  -2.098222e-14  0 
 -3.544424e-15  -2.429916e-14  0 
 -7.609456e-15  -2.765420e-14  0 
 -6.251739e-15  -2.765055e-14  0 
 -4.914928e-15  -2.764957e-14  0 
 1.670240e-15  -1.775738e-14  0 
 1.672565e-15  -2.097968e-14  0 
 1.677379e-15  -2.429669e-14  0 
 -2.292576e-15  -2.795121e-14  0 
 -9.015655e-16  -2.801054e-14  0 
 4.665532e-16  -2.791853e-14  0 
 6.780196e-15  -1.772367e-14  0 
 6.901885e-15  -2.097323e-14  0 
 7.021987e-15  -2.426050e-14  0 
 3.046704e-15  -2.764853e-14  0 
 4.385061e-15  -2.765097e-14  0 
 5.743620e-15  -2.765642e-14  0 
 1.234053e-14  -1.761492e-14  0 
 1.208584e-14  -2.110138e-14  0 
 1.174011e-14  -2.413995e-14  0 
 9.075053e-15  -2.695361e-14  0 
 1.025873e-14  -2.633136e-14  0 
 1.099480e-14  -2.590096e-14  0 
 -1.274960e-14  -1.760415e-14  0 
 -1.124306e-14  -1.759720e-14  0 
 -9.890142e-15  -1.761590e-14  0 
 -1.264461e-14  -2.112510e-14  0 
 -1.134854e-14  -2.107365e-14  0 
 -1.005862e-14  -2.102120e-14  0 
 -1.250110e-14  -2.412181e-14  0 
 -1.145122e-14  -2.410563e-14  0 
 -1.023293e-14  -2.412894e-14  0 
 -7.369564e-15  -1.773701e-14  0 
 -6.092100e-15  -1.774821e-14  0 
 -4.812618e-15  -1.775645e-14  0 
 -7.461079e-15  -2.097696e-14  0 
 -6.153946e-15  -2.097903e-14  0 
 -4.846604e-15  -2.098131e-14  0 
 -7.551376e-15  -2.427425e-14  0 
 -6.215976e-15  -2.428609e-14  0 
 -4.882370e-15  -2.429511e-14  0 
 -2.224059e-15  -1.776760e-14  0 
 -9.374501e-16  -1.778319e-14  0 
 3.530025e-16  -1.777554e-14  0 
 -2.235756e-15  -2.100209e-14  0 
 -9.332706e-16  -2.100137e-14  0 
 3.692242e-16  -2.099922e-14  0 
 -2.253264e-15  -2.430712e-14  0 
 -9.291470e-16  -2.432238e-14  0 
 3.912026e-16  -2.431517e-14  0 
 2.947265e-15  -1.775360e-14  0 
 4.226456e-15  -1.774567e-14  0 
 5.502910e-15  -1.773478e-14  0 
 2.980202e-15  -2.097845e-14  0 
 4.287618e-15  -2.097550e-14  0 
 5.594823e-15  -2.097263e-14  0 
 3.014915e-15  -2.429262e-14  0 
 4.348964e-15  -2.428392e-14  0 
 5.685534e-15  -2.427237e-14  0 
 8.002066e-15  -1.759956e-14  0 
 9.323813e-15  -1.758569e-14  0 
 1.079833e-14  -1.760053e-14  0 
 8.192513e-15  -2.100081e-14  0 
 9.482520e-15  -2.104022e-14  0 
 1.077867e-14  -2.108588e-14  0 
 8.388680e-15  -2.411308e-14  0 
 9.638342e-15  -2.409470e-14  0 
 1.072047e-14  -2.411857e-14  0 
VECTORS displacement_ITER3 FLOAT
 2.758525e-15  1.086184e-15  0 
 3.208672e-16  2.323084e-15  0 
 1.244713e-15  1.109454e-15  0 
 5.348539e-16  1.130395e-15  0 
 -8.039291e-17  1.176032e-15  0 
 -7.871436e-16  1.159129e-15  0 
 -2.077781e-15  1.315659e-15  0 
 7.445164e-16  2.341555e-15  0 
 4.456189e-16  2.360453e-15  0 
 -1.398649e-17  2.402542e-15  0 
 -3.129307e-16  2.387548e-15  0 
 -1.057273e-16  2.546508e-15  0 
 1.946378e-15  1.765940e-15  0 
 1.492437e-15  2.060386e-15  0 
 1.062402e-15  2.374048e-15  0 
 2.341653e-15  1.179419e-15  0 
 2.054157e-15  1.358542e-15  0 
 1.817232e-15  1.416543e-15  0 
 1.022324e-15  1.116606e-15  0 
 8.396837e-16  1.125576e-15  0 
 6.794274e-16  1.130705e-15  0 
 3.796736e-16  1.032468e-15  0 
 2.290481e-16  1.039687e-15  0 
 7.891496e-17  1.066778e-15  0 
 -2.277742e-16  1.176883e-15  0 
 -3.882121e-16  1.172794e-15  0 
 -5.690689e-16  1.165087e-15  0 
 -1.354451e-15  1.507329e-15  0 
 -1.560174e-15  1.511755e-15  0 
 -1.778606e-15  1.386436e-15  0 
 1.107810e-15  1.558121e-15  0 
 9.868479e-16  1.888138e-15  0 
 8.695296e-16  2.169156e-15  0 
 4.765920e-16  2.415736e-15  0 
 4.992875e-16  2.593900e-15  0 
 4.631774e-16  2.650464e-15  0 
 4.960234e-16  1.528586e-15  0 
 4.959800e-16  1.881586e-15  0 
 4.931555e-16  2.140510e-15  0 
 7.125059e-16  2.349043e-15  0 
 6.437096e-16  2.357824e-15  0 
 5.531742e-16  2.362417e-15  0 
 -4.982830e-17  1.572784e-15  0 
 -5.288745e-17  1.922706e-15  0 
 -5.321135e-17  2.182974e-15  0 
 3.256311e-16  2.241549e-15  0 
 2.131442e-16  2.242221e-15  0 
 1.005762e-16  2.273928e-15  0 
 -6.574393e-16  1.601809e-15  0 
 -5.423334e-16  1.929949e-15  0 
 -4.308425e-16  2.211081e-15  0 
 -1.180081e-16  2.405007e-15  0 
 -2.076188e-16  2.401425e-15  0 
 -2.774532e-16  2.393873e-15  0 
 -1.399495e-15  1.800501e-15  0 
 -1.045919e-15  2.066269e-15  0 
 -7.156286e-16  2.406761e-15  0 
 -3.484558e-17  2.736320e-15  0 
 -1.004595e-16  2.742164e-15  0 
 -1.466675e-16  2.617351e-15  0 
 1.767873e-15  1.740011e-15  0 
 1.552420e-15  1.682333e-15  0 
 1.322883e-15  1.622161e-15  0 
 1.369708e-15  2.056708e-15  0 
 1.244098e-15  2.033825e-15  0 
 1.116533e-15  1.976753e-15  0 
 9.912633e-16  2.348162e-15  0 
 9.500178e-16  2.290198e-15  0 
 9.174831e-16  2.229903e-15  0 
 9.563472e-16  1.549241e-15  0 
 8.024182e-16  1.538886e-15  0 
 6.506528e-16  1.531431e-15  0 
 8.643827e-16  1.887097e-15  0 
 7.416150e-16  1.884702e-15  0 
 6.187492e-16  1.882501e-15  0 
 7.745983e-16  2.160571e-15  0 
 6.809211e-16  2.150632e-15  0 
 5.850716e-16  2.143204e-15  0 
 3.676778e-16  1.530208e-15  0 
 2.226518e-16  1.528253e-15  0 
 7.825173e-17  1.550704e-15  0 
 3.588269e-16  1.870626e-15  0 
 2.213727e-16  1.879929e-15  0 
 8.399417e-17  1.891810e-15  0 
 3.469744e-16  2.143810e-15  0 
 2.200065e-16  2.141930e-15  0 
 9.264900e-17  2.163524e-15  0 
 -2.029921e-16  1.575820e-15  0 
 -3.539439e-16  1.583019e-15  0 
 -5.069256e-16  1.593041e-15  0 
 -1.753081e-16  1.924140e-15  0 
 -2.978160e-16  1.926670e-15  0 
 -4.202256e-16  1.929104e-15  0 
 -1.458712e-16  2.185840e-15  0 
 -2.418072e-16  2.192997e-15  0 
 -3.356909e-16  2.202604e-15  0 
 -8.664866e-16  1.670169e-15  0 
 -1.075710e-15  1.727109e-15  0 
 -1.257043e-15  1.778455e-15  0 
 -6.714862e-16  2.003994e-15  0 
 -7.984990e-16  2.049196e-15  0 
 -9.236332e-16  2.064586e-15  0 
 -4.837047e-16  2.276113e-15  0 
 -5.353841e-16  2.332859e-15  0 
 -6.093165e-16  2.384532e-15  0 
VECTORS displacement_ITER4 FLOAT
 1.634650e-15  -1.136882e-15  0 
 -2.168453e-15  -1.591334e-15  0 
 1.081504e-16  -2.586065e-16  0 
 3.666615e-17  -2.384465e-16  0 
 4.839137e-17  -2.275090e-16  0 
 -2.003043e-17  -2.443188e-16  0 
 -1.521820e-15  -1.142665e-15  0 
 -3.349497e-16  -5.668892e-16  0 
 -4.037011e-17  -5.477262e-16  0 
 9.741984e-17  -5.437154e-16  0 
 3.939986e-16  -5.601691e-16  0 
 2.211012e-15  -1.614344e-15  0 
 4.791975e-16  -2.000087e-17  0 
 -2.490631e-16  1.214480e-17  0 
 -9.913789e-16  -1.865831e-16  0 
 8.720507e-16  -9.680230e-16  0 
 4.320023e-16  -5.788780e-16  0 
 2.464019e-16  -2.032773e-16  0 
 4.784899e-17  -2.530824e-16  0 
 2.533723e-17  -2.440373e-16  0 
 2.336184e-17  -2.384532e-16  0 
 1.092938e-17  -2.077039e-16  0 
 5.771251e-17  -1.765325e-16  0 
 9.393074e-17  -2.049059e-16  0 
 5.848858e-17  -2.271640e-16  0 
 5.627915e-17  -2.316000e-16  0 
 3.565409e-17  -2.394126e-16  0 
 -1.384253e-16  -1.823653e-16  0 
 -3.042041e-16  -5.623781e-16  0 
 -7.432086e-16  -9.660735e-16  0 
 -2.198481e-17  -2.174602e-16  0 
 -1.218238e-16  -2.750223e-16  0 
 -2.173782e-16  -3.772759e-16  0 
 -1.264238e-15  -1.403002e-15  0 
 -7.260524e-16  -9.686661e-16  0 
 -4.853494e-16  -5.455199e-16  0 
 3.224738e-18  -2.395371e-16  0 
 3.521766e-18  -2.799626e-16  0 
 1.260893e-18  -3.969831e-16  0 
 -2.215076e-16  -5.603587e-16  0 
 -1.426051e-16  -5.512620e-16  0 
 -8.337868e-17  -5.461427e-16  0 
 7.275581e-17  -2.287369e-16  0 
 6.726893e-17  -2.724894e-16  0 
 6.450907e-17  -3.899187e-16  0 
 2.590332e-17  -5.119473e-16  0 
 1.435245e-17  -4.763285e-16  0 
 1.279932e-17  -5.118657e-16  0 
 1.020281e-16  -2.087230e-16  0 
 1.956193e-16  -2.678266e-16  0 
 2.848340e-16  -3.724139e-16  0 
 1.448374e-16  -5.420054e-16  0 
 2.055727e-16  -5.461539e-16  0 
 2.838924e-16  -5.541558e-16  0 
 -3.804033e-16  -9.512099e-18  0 
 3.265191e-16  1.405042e-17  0 
 1.047720e-15  -1.811408e-16  0 
 5.245716e-16  -5.352512e-16  0 
 7.462770e-16  -9.649869e-16  0 
 1.283439e-15  -1.416477e-15  0 
 3.093464e-16  -5.652859e-17  0 
 1.305943e-16  -1.321604e-16  0 
 2.367231e-17  -2.085220e-16  0 
 -2.181795e-16  -2.399474e-18  0 
 -1.855334e-16  -5.855071e-17  0 
 -1.522836e-16  -1.477593e-16  0 
 -7.396347e-16  -2.264476e-16  0 
 -4.852944e-16  -3.070776e-16  0 
 -3.162717e-16  -3.822537e-16  0 
 -1.237488e-17  -2.228811e-16  0 
 -7.159410e-18  -2.314300e-16  0 
 -5.895537e-19  -2.376596e-16  0 
 -9.002634e-17  -2.765759e-16  0 
 -5.868953e-17  -2.777857e-16  0 
 -2.758232e-17  -2.790598e-16  0 
 -1.652741e-16  -3.820124e-16  0 
 -1.100959e-16  -3.897132e-16  0 
 -5.629571e-17  -3.955353e-16  0 
 2.404005e-17  -2.430500e-16  0 
 3.932686e-17  -2.489579e-16  0 
 5.405640e-17  -2.354044e-16  0 
 1.926725e-17  -2.960445e-16  0 
 3.502843e-17  -2.957624e-16  0 
 5.100755e-17  -2.923639e-16  0 
 1.340960e-17  -3.979884e-16  0 
 3.108065e-17  -4.047524e-16  0 
 4.945233e-17  -3.925177e-16  0 
 7.778584e-17  -2.271179e-16  0 
 8.514382e-17  -2.215744e-16  0 
 9.144017e-17  -2.137317e-16  0 
 9.912671e-17  -2.715282e-16  0 
 1.309745e-16  -2.703160e-16  0 
 1.630593e-16  -2.692658e-16  0 
 1.222434e-16  -3.887435e-16  0 
 1.766712e-16  -3.836442e-16  0 
 2.322127e-16  -3.766974e-16  0 
 6.320926e-17  -2.042427e-16  0 
 -3.817149e-17  -1.275395e-16  0 
 -2.130333e-16  -4.810573e-17  0 
 2.267940e-16  -1.435693e-16  0 
 2.610311e-16  -5.560456e-17  0 
 2.946275e-16  -1.909587e-19  0 
 3.778147e-16  -3.829443e-16  0 
 5.428203e-16  -3.082051e-16  0 
 7.960800e-16  -2.235779e-16  0 
VECTORS displacement_ITER5 FLOAT
 -5.326101e-15  -7.747022e-15  0 
 -7.487516e-15  -1.453335e-14  0 
 -3.516619e-15  -7.166464e-15  0 
 -9.833460e-16  -7.154374e-15  0 
 1.623204e-15  -7.190285e-15  0 
 4.146587e-15  -7.201841e-15  0 
 5.749329e-15  -7.985984e-15  0 
 -3.882849e-15  -1.388431e-14  0 
 -1.061784e-15  -1.387556e-14  0 
 1.672751e-15  -1.389270e-14  0 
 4.487420e-15  -1.390071e-14  0 
 8.250981e-15  -1.473633e-14  0 
 -5.968476e-15  -8.683018e-15  0 
 -6.394600e-15  -1.027647e-14  0 
 -6.828853e-15  -1.204546e-14  0 
 -5.141833e-15  -7.670280e-15  0 
 -4.790410e-15  -7.457184e-15  0 
 -4.289867e-15  -7.160079e-15  0 
 -2.922015e-15  -7.166319e-15  0 
 -2.293249e-15  -7.159204e-15  0 
 -1.646173e-15  -7.153962e-15  0 
 -3.746467e-16  -7.036408e-15  0 
 3.387424e-16  -7.003507e-15  0 
 1.037309e-15  -7.065066e-15  0 
 2.279674e-15  -7.190167e-15  0 
 2.923354e-15  -7.194726e-15  0 
 3.550771e-15  -7.201240e-15  0 
 4.931930e-15  -7.236609e-15  0 
 5.420427e-15  -7.598912e-15  0 
 5.700904e-15  -7.879406e-15  0 
 -3.632938e-15  -8.762071e-15  0 
 -3.706905e-15  -1.043062e-14  0 
 -3.777401e-15  -1.212585e-14  0 
 -6.288508e-15  -1.444722e-14  0 
 -5.273321e-15  -1.421285e-14  0 
 -4.427922e-15  -1.389433e-14  0 
 -1.014851e-15  -8.778176e-15  0 
 -1.017311e-15  -1.043080e-14  0 
 -1.021898e-15  -1.214038e-14  0 
 -3.141200e-15  -1.388336e-14  0 
 -2.430895e-15  -1.387681e-14  0 
 -1.738146e-15  -1.387281e-14  0 
 1.645923e-15  -8.805878e-15  0 
 1.642214e-15  -1.045448e-14  0 
 1.640987e-15  -1.215923e-14  0 
 -3.287211e-16  -1.375309e-14  0 
 2.922545e-16  -1.371063e-14  0 
 9.252818e-16  -1.377089e-14  0 
 4.255096e-15  -8.793159e-15  0 
 4.324412e-15  -1.045496e-14  0 
 4.390135e-15  -1.214769e-14  0 
 2.351329e-15  -1.389027e-14  0 
 3.043426e-15  -1.389355e-14  0 
 3.751081e-15  -1.389942e-14  0 
 6.504005e-15  -8.705720e-15  0 
 7.000544e-15  -1.027417e-14  0 
 7.497503e-15  -1.205752e-14  0 
 5.012162e-15  -1.394458e-14  0 
 5.858759e-15  -1.432248e-14  0 
 6.928554e-15  -1.462088e-14  0 
 -5.427079e-15  -8.697120e-15  0 
 -4.880457e-15  -8.730481e-15  0 
 -4.264333e-15  -8.786436e-15  0 
 -5.723410e-15  -1.028828e-14  0 
 -5.051188e-15  -1.032611e-14  0 
 -4.378487e-15  -1.036449e-14  0 
 -6.016958e-15  -1.206117e-14  0 
 -5.213532e-15  -1.209744e-14  0 
 -4.486060e-15  -1.215436e-14  0 
 -2.972789e-15  -8.764533e-15  0 
 -2.319421e-15  -8.771587e-15  0 
 -1.665671e-15  -8.776996e-15  0 
 -3.034215e-15  -1.043097e-14  0 
 -2.361806e-15  -1.043023e-14  0 
 -1.689538e-15  -1.043015e-14  0 
 -3.093724e-15  -1.212804e-14  0 
 -2.404374e-15  -1.213457e-14  0 
 -1.715217e-15  -1.213972e-14  0 
 -3.496058e-16  -8.786579e-15  0 
 3.188977e-16  -8.795594e-15  0 
 9.857822e-16  -8.796704e-15  0 
 -3.516341e-16  -1.044935e-14  0 
 3.133465e-16  -1.045766e-14  0 
 9.779596e-16  -1.046158e-14  0 
 -3.549638e-16  -1.214374e-14  0 
 3.085376e-16  -1.215111e-14  0 
 9.722572e-16  -1.215009e-14  0 
 2.294772e-15  -8.805365e-15  0 
 2.946211e-15  -8.801041e-15  0 
 3.597485e-15  -8.795017e-15  0 
 2.312661e-15  -1.045415e-14  0 
 2.983078e-15  -1.045449e-14  0 
 3.653607e-15  -1.045540e-14  0 
 2.332495e-15  -1.215906e-14  0 
 3.020149e-15  -1.215488e-14  0 
 3.707750e-15  -1.214931e-14  0 
 4.885411e-15  -8.826816e-15  0 
 5.483849e-15  -8.768774e-15  0 
 5.998209e-15  -8.725663e-15  0 
 4.992504e-15  -1.037924e-14  0 
 5.662015e-15  -1.033114e-14  0 
 6.331322e-15  -1.028739e-14  0 
 5.092802e-15  -1.218494e-14  0 
 5.829725e-15  -1.212572e-14  0 
 6.657774e-15  -1.207944e-14  0 
VECTORS displacement_ITER6 FLOAT
 1.136321e-15  6.059815e-16  0 
 -3.887364e-16  1.221436e-15  0 
 3.114072e-16  7.030637e-16  0 
 -1.007586e-16  7.240841e-16  0 
 -4.165926e-16  7.354847e-16  0 
 -8.306800e-16  7.145977e-16  0 
 -1.687086e-15  6.266174e-16  0 
 -9.448251e-17  1.293161e-15  0 
 -1.770016e-16  1.308573e-15  0 
 -3.550642e-16  1.314408e-15  0 
 -4.315668e-16  1.298811e-15  0 
 -9.886183e-17  1.232300e-15  0 
 7.239133e-16  9.577627e-16  0 
 3.470030e-16  1.204883e-15  0 
 -1.476656e-17  1.253343e-15  0 
 9.759834e-16  5.622712e-16  0 
 7.331226e-16  5.137572e-16  0 
 4.047466e-16  6.044835e-16  0 
 1.657206e-16  7.054574e-16  0 
 5.760489e-17  7.161257e-16  0 
 -3.014756e-17  7.240992e-16  0 
 -2.099852e-16  8.341086e-16  0 
 -2.663136e-16  8.602898e-16  0 
 -3.223069e-16  8.390835e-16  0 
 -4.901446e-16  7.350075e-16  0 
 -5.788882e-16  7.274651e-16  0 
 -6.867104e-16  7.172420e-16  0 
 -9.496947e-16  6.205889e-16  0 
 -1.282867e-15  5.332971e-16  0 
 -1.528651e-15  5.826085e-16  0 
 1.869450e-16  9.532289e-16  0 
 1.005257e-16  1.115694e-15  0 
 1.783986e-17  1.242902e-15  0 
 -3.637528e-16  1.175247e-15  0 
 -2.489517e-16  1.119828e-15  0 
 -4.766366e-17  1.200913e-15  0 
 -1.327049e-16  9.353454e-16  0 
 -1.324310e-16  1.114051e-15  0 
 -1.346512e-16  1.225548e-15  0 
 -7.471502e-17  1.295856e-15  0 
 -8.959189e-17  1.305325e-15  0 
 -1.241856e-16  1.311477e-15  0 
 -3.899559e-16  9.473658e-16  0 
 -3.924708e-16  1.124613e-15  0 
 -3.924318e-16  1.234674e-15  0 
 -1.911885e-16  1.409142e-15  0 
 -2.597217e-16  1.433340e-15  0 
 -3.275070e-16  1.410072e-15  0 
 -7.094340e-16  9.648592e-16  0 
 -6.230944e-16  1.127104e-15  0 
 -5.405368e-16  1.251590e-15  0 
 -4.040392e-16  1.316757e-15  0 
 -4.366600e-16  1.310976e-15  0 
 -4.507225e-16  1.301863e-15  0 
 -1.255989e-15  9.757459e-16  0 
 -8.665647e-16  1.222182e-15  0 
 -4.922481e-16  1.267574e-15  0 
 -4.515891e-16  1.208772e-15  0 
 -2.426914e-16  1.130159e-15  0 
 -1.263640e-16  1.186254e-15  0 
 5.873253e-16  9.709608e-16  0 
 4.436492e-16  9.914176e-16  0 
 3.219416e-16  9.707536e-16  0 
 2.874019e-16  1.197926e-15  0 
 2.260061e-16  1.177172e-15  0 
 1.635840e-16  1.157783e-15  0 
 -1.264384e-18  1.266787e-15  0 
 1.579779e-17  1.286815e-15  0 
 9.419668e-18  1.263825e-15  0 
 1.113487e-16  9.499949e-16  0 
 2.998235e-17  9.422424e-16  0 
 -4.996052e-17  9.364455e-16  0 
 4.248374e-17  1.115054e-15  0 
 -1.578341e-17  1.115132e-15  0 
 -7.411454e-17  1.114749e-15  0 
 -2.430265e-17  1.239661e-15  0 
 -6.179993e-17  1.232145e-15  0 
 -1.004128e-16  1.226310e-15  0 
 -2.017868e-16  9.381000e-16  0 
 -2.618508e-16  9.430524e-16  0 
 -3.207478e-16  9.431258e-16  0 
 -1.974671e-16  1.102243e-15  0 
 -2.627077e-16  1.099278e-15  0 
 -3.278426e-16  1.107720e-15  0 
 -1.959617e-16  1.229757e-15  0 
 -2.636803e-16  1.233967e-15  0 
 -3.322129e-16  1.233637e-15  0 
 -4.720821e-16  9.486011e-16  0 
 -5.519687e-16  9.540647e-16  0 
 -6.333614e-16  9.615222e-16  0 
 -4.502061e-16  1.125465e-15  0 
 -5.079551e-16  1.126152e-15  0 
 -5.656375e-16  1.126343e-15  0 
 -4.261453e-16  1.235545e-15  0 
 -4.636891e-16  1.241037e-15  0 
 -5.000358e-16  1.248252e-15  0 
 -8.470678e-16  9.873075e-16  0 
 -9.732734e-16  1.008901e-15  0 
 -1.118762e-15  9.889558e-16  0 
 -6.855194e-16  1.172087e-15  0 
 -7.471326e-16  1.193903e-15  0 
 -8.078400e-16  1.215202e-15  0 
 -5.282136e-16  1.277071e-15  0 
 -5.288697e-16  1.300439e-15  0 
 -5.076476e-16  1.280752e-15  0 
VECTORS displacement_ITER7 FLOAT
 -5.739261e-15  -5.338237e-15  0 
 -4.782739e-15  -1.062553e-14  0 
 -2.958346e-15  -6.147503e-15  0 
 -9.465814e-16  -6.125455e-15  0 
 1.149082e-15  -6.082738e-15  0 
 3.160954e-15  -6.099768e-15  0 
 6.204000e-15  -5.056332e-15  0 
 -3.347122e-15  -1.156341e-14  0 
 -1.045488e-15  -1.154971e-14  0 
 1.233076e-15  -1.151126e-14  0 
 3.537645e-15  -1.152003e-14  0 
 4.718115e-15  -1.035042e-14  0 
 -5.428528e-15  -7.487241e-15  0 
 -5.308040e-15  -8.883440e-15  0 
 -5.157790e-15  -1.018487e-14  0 
 -4.678823e-15  -5.476094e-15  0 
 -3.890343e-15  -5.789596e-15  0 
 -3.402965e-15  -6.093742e-15  0 
 -2.499424e-15  -6.147312e-15  0 
 -2.002926e-15  -6.136141e-15  0 
 -1.484173e-15  -6.126372e-15  0 
 -3.905351e-16  -6.084389e-15  0 
 9.944134e-17  -6.095838e-15  0 
 5.902474e-16  -6.065530e-15  0 
 1.684014e-15  -6.083320e-15  0 
 2.201989e-15  -6.091553e-15  0 
 2.699395e-15  -6.100924e-15  0 
 3.601382e-15  -5.969336e-15  0 
 4.126123e-15  -5.595607e-15  0 
 4.998360e-15  -5.220773e-15  0 
 -3.077815e-15  -7.408262e-15  0 
 -3.159517e-15  -8.754264e-15  0 
 -3.238290e-15  -1.012095e-14  0 
 -4.832667e-15  -1.077863e-14  0 
 -4.574147e-15  -1.112941e-14  0 
 -3.987137e-15  -1.147745e-14  0 
 -9.839857e-16  -7.428638e-15  0 
 -9.895511e-16  -8.753289e-15  0 
 -9.973617e-16  -1.014198e-14  0 
 -2.729601e-15  -1.156362e-14  0 
 -2.147179e-15  -1.155424e-14  0 
 -1.586347e-15  -1.154694e-14  0 
 1.180756e-15  -7.385724e-15  0 
 1.184431e-15  -8.712333e-15  0 
 1.190363e-15  -1.010122e-14  0 
 -5.127573e-16  -1.152822e-14  0 
 9.347422e-17  -1.154816e-14  0 
 7.002240e-16  -1.151312e-14  0 
 3.276834e-15  -7.364709e-15  0 
 3.356144e-15  -8.712818e-15  0 
 3.432480e-15  -1.007957e-14  0 
 1.777221e-15  -1.150810e-14  0 
 2.339542e-15  -1.151387e-14  0 
 2.921907e-15  -1.152151e-14  0 
 5.744690e-15  -7.447569e-15  0 
 5.507119e-15  -8.881772e-15  0 
 5.240130e-15  -1.014799e-14  0 
 4.182834e-15  -1.135933e-14  0 
 4.736235e-15  -1.094277e-14  0 
 4.909819e-15  -1.053029e-14  0 
 -4.776259e-15  -7.460099e-15  0 
 -4.144890e-15  -7.407158e-15  0 
 -3.574815e-15  -7.375208e-15  0 
 -4.767657e-15  -8.874199e-15  0 
 -4.230806e-15  -8.843657e-15  0 
 -3.695670e-15  -8.800276e-15  0 
 -4.747170e-15  -1.015555e-14  0 
 -4.316376e-15  -1.010073e-14  0 
 -3.817676e-15  -1.007348e-14  0 
 -2.550112e-15  -7.412089e-15  0 
 -2.028393e-15  -7.420443e-15  0 
 -1.504956e-15  -7.426938e-15  0 
 -2.617028e-15  -8.753383e-15  0 
 -2.074589e-15  -8.752783e-15  0 
 -1.532079e-15  -8.752976e-15  0 
 -2.682333e-15  -1.012519e-14  0 
 -2.121254e-15  -1.013373e-14  0 
 -1.561458e-15  -1.014056e-14  0 
 -4.475870e-16  -7.417262e-15  0 
 9.884696e-17  -7.396035e-15  0 
 6.449653e-16  -7.395794e-15  0 
 -4.459737e-16  -8.753441e-15  0 
 9.726451e-17  -8.750696e-15  0 
 6.405403e-16  -8.732742e-15  0 
 -4.477788e-16  -1.013004e-14  0 
 9.539169e-17  -1.010883e-14  0 
 6.393129e-16  -1.010918e-14  0 
 1.702485e-15  -7.383587e-15  0 
 2.226243e-15  -7.377108e-15  0 
 2.748469e-15  -7.368787e-15  0 
 1.727390e-15  -8.711594e-15  0 
 2.270339e-15  -8.711086e-15  0 
 2.813218e-15  -8.711651e-15  0 
 1.754590e-15  -1.009940e-14  0 
 2.314912e-15  -1.009259e-14  0 
 2.876318e-15  -1.008407e-14  0 
 3.779510e-15  -7.325043e-15  0 
 4.374391e-15  -7.356430e-15  0 
 5.047584e-15  -7.415762e-15  0 
 3.892855e-15  -8.774343e-15  0 
 4.428685e-15  -8.831836e-15  0 
 4.966043e-15  -8.870511e-15  0 
 4.007505e-15  -1.002562e-14  0 
 4.482388e-15  -1.005264e-14  0 
 4.873453e-15  -1.011412e-14  0 
VECTORS displacement_ITER8 FLOAT
 -5.679724e-16  -5.567934e-16  0 
 -1.012288e-15  -1.356825e-15  0 
 -2.681434e-16  -9.243365e-16  0 
 -1.173970e-16  -8.921698e-16  0 
 1.140237e-16  -8.976414e-16  0 
 2.617657e-16  -9.279386e-16  0 
 5.606859e-16  -5.570483e-16  0 
 -6.837472e-16  -1.732353e-15  0 
 -2.114347e-16  -1.706966e-15  0 
 1.914815e-16  -1.710753e-15  0 
 6.646247e-16  -1.734243e-15  0 
 9.872207e-16  -1.353986e-15  0 
 -6.427800e-16  -1.051205e-15  0 
 -8.011102e-16  -1.231902e-15  0 
 -9.523388e-16  -1.453675e-15  0 
 -2.822609e-16  -6.231040e-16  0 
 -1.247945e-16  -7.909174e-16  0 
 -1.534142e-16  -9.963571e-16  0 
 -2.777434e-16  -9.208230e-16  0 
 -2.469007e-16  -9.063838e-16  0 
 -1.915941e-16  -8.942512e-16  0 
 -5.988186e-18  -8.782803e-16  0 
 -2.461809e-18  -9.070468e-16  0 
 2.958355e-18  -8.840203e-16  0 
 1.848645e-16  -8.998131e-16  0 
 2.385591e-16  -9.110561e-16  0 
 2.695263e-16  -9.245852e-16  0 
 1.486996e-16  -9.959965e-16  0 
 1.166457e-16  -7.951334e-16  0 
 2.715948e-16  -6.254662e-16  0 
 -3.953879e-16  -1.018728e-15  0 
 -4.843964e-16  -1.209230e-15  0 
 -5.694223e-16  -1.428669e-15  0 