# vtk DataFile Version 3.1
this is an vtk file created by FEMAC
ASCII
DATASET UNSTRUCTURED_GRID
POINTS 105 FLOAT
6.500000 0.000000 0.000000
7.000000 0.000000 0.000000
6.500000 0.200000 0.000000
6.500000 0.400000 0.000000
6.500000 0.600000 0.000000
6.500000 0.800000 0.000000
6.500000 1.000000 0.000000
7.000000 0.200000 0.000000
7.000000 0.400000 0.000000
7.000000 0.600000 0.000000
7.000000 0.800000 0.000000
7.000000 1.000000 0.000000
6.625000 0.000000 0.000000
6.750000 0.000000 0.000000
6.875000 0.000000 0.000000
6.500000 0.050000 0.000000
6.500000 0.100000 0.000000
6.500000 0.150000 0.000000
6.500000 0.250000 0.000000
6.500000 0.300000 0.000000
6.500000 0.350000 0.000000
6.500000 0.450000 0.000000
6.500000 0.500000 0.000000
6.500000 0.550000 0.000000
6.500000 0.650000 0.000000
6.500000 0.700000 0.000000
6.500000 0.750000 0.000000
6.500000 0.850000 0.000000
6.500000 0.900000 0.000000
6.500000 0.950000 0.000000
6.625000 0.200000 0.000000
6.750000 0.200000 0.000000
6.875000 0.200000 0.000000
7.000000 0.050000 0.000000
7.000000 0.100000 0.000000
7.000000 0.150000 0.000000
6.625000 0.400000 0.000000
6.750000 0.400000 0.000000
6.875000 0.400000 0.000000
7.000000 0.250000 0.000000
7.000000 0.300000 0.000000
7.000000 0.350000 0.000000
6.625000 0.600000 0.000000
6.750000 0.600000 0.000000
6.875000 0.600000 0.000000
7.000000 0.450000 0.000000
7.000000 0.500000 0.000000
7.000000 0.550000 0.000000
6.625000 0.800000 0.000000
6.750000 0.800000 0.000000
6.875000 0.800000 0.000000
7.000000 0.650000 0.000000
7.000000 0.700000 0.000000
7.000000 0.750000 0.000000
6.625000 1.000000 0.000000
6.750000 1.000000 0.000000
6.875000 1.000000 0.000000
7.000000 0.850000 0.000000
7.000000 0.900000 0.000000
7.000000 0.950000 0.000000
6.625000 0.050000 0.000000
6.625000 0.100000 0.000000
6.625000 0.150000 0.000000
6.750000 0.050000 0.000000
6.750000 0.100000 0.000000
6.750000 0.150000 0.000000
6.875000 0.050000 0.000000
6.875000 0.100000 0.000000
6.875000 0.150000 0.000000
6.625000 0.250000 0.000000
6.625000 0.300000 0.000000
6.625000 0.350000 0.000000
6.750000 0.250000 0.000000
6.750000 0.300000 0.000000
6.750000 0.350000 0.000000
6.875000 0.250000 0.000000
6.875000 0.300000 0.000000
6.875000 0.350000 0.000000
6.625000 0.450000 0.000000
6.625000 0.500000 0.000000
6.625000 0.550000 0.000000
6.750000 0.450000 0.000000
6.750000 0.500000 0.000000
6.750000 0.550000 0.000000
6.875000 0.450000 0.000000
6.875000 0.500000 0.000000
6.875000 0.550000 0.000000
6.625000 0.650000 0.000000
6.625000 0.700000 0.000000
6.625000 0.750000 0.000000
6.750000 0.650000 0.000000
6.750000 0.700000 0.000000
6.750000 0.750000 0.000000
6.875000 0.650000 0.000000
6.875000 0.700000 0.000000
6.875000 0.750000 0.000000
6.625000 0.850000 0.000000
6.625000 0.900000 0.000000
6.625000 0.950000 0.000000
6.750000 0.850000 0.000000
6.750000 0.900000 0.000000
6.750000 0.950000 0.000000
6.875000 0.850000 0.000000
6.875000 0.900000 0.000000
6.875000 0.950000 0.000000
CELLS 80 400 
4 0 12 60 15
4 15 60 61 16
4 16 61 62 17
4 17 62 30  2
4 12 13 63 60
4 60 63 64 61
4 61 64 65 62
4 62 65 31 30
4 13 14 66 63
4 63 66 67 64
4 64 67 68 65
4 65 68 32 31
4 14  1 33 66
4 66 33 34 67
4 67 34 35 68
4 68 35  7 32
4 2 30 69 18
4 18 69 70 19
4 19 70 71 20
4 20 71 36  3
4 30 31 72 69
4 69 72 73 70
4 70 73 74 71
4 71 74 37 36
4 31 32 75 72
4 72 75 76 73
4 73 76 77 74
4 74 77 38 37
4 32  7 39 75
4 75 39 40 76
4 76 40 41 77
4 77 41  8 38
4 3 36 78 21
4 21 78 79 22
4 22 79 80 23
4 23 80 42  4
4 36 37 81 78
4 78 81 82 79
4 79 82 83 80
4 80 83 43 42
4 37 38 84 81
4 81 84 85 82
4 82 85 86 83
4 83 86 44 43
4 38  8 45 84
4 84 45 46 85
4 85 46 47 86
4 86 47  9 44
4 4 42 87 24
4 24 87 88 25
4 25 88 89 26
4 26 89 48  5
4 42 43 90 87
4 87 90 91 88
4 88 91 92 89
4 89 92 49 48
4 43 44 93 90
4 90 93 94 91
4 91 94 95 92
4 92 95 50 49
4 44  9 51 93
4 93 51 52 94
4 94 52 53 95
4 95 53 10 50
4 5 48 96 27
4 27 96 97 28
4 28 97 98 29
4 29 98 54  6
4 48 49 99 96
4 96  99 100  97
4 97 100 101  98
4 98 101  55  54
4 49  50 102  99
4 99 102 103 100
4 100 103 104 101
4 101 104  56  55
4 50  10  57 102
4 102  57  58 103
4 103  58  59 104
4 104  59  11  56
CELL_TYPES 80
9 9 9 9 9 9 9 9 9 9 9 9 9 9 9 9 9 9 9 9 9 9 9 9 9 9 9 9 9 9 9 9 9 9 9 9 9 9 9 9 9 9 9 9 9 9 9 9 9 9 9 9 9 9 9 9 9 9 9 9 9 9 9 9 9 9 9 9 9 9 9 9 9 9 9 9 9 9 9 9 
POINT_DATA 105
VECTORS displacement_ITER1 FLOAT
 2.444232e-14  1.532108e-13  0 
 2.305460e-14  1.718865e-13  0 
 1.623257e-14  1.532052e-13  0 
 8.649779e-15  1.532205e-13  0 
 9.729619e-16  1.531888e-13  0 
 -6.601341e-15  1.531808e-13  0 
 -1.471769e-14  1.530873e-13  0 
 1.609268e-14  1.719712e-13  0 
 8.624099e-15  1.719886e-13  0 
 9.503960e-16  1.719568e-13  0 
 -6.526641e-15  1.719468e-13  0 
 -1.358202e-14  1.717631e-13  0 
 2.400669e-14  1.580054e-13  0 
 2.366812e-14  1.627513e-13  0 
 2.336452e-14  1.673536e-13  0 
 2.251935e-14  1.531921e-13  0 
 2.051949e-14  1.531538e-13  0 
 1.843343e-14  1.531344e-13  0 
 1.432468e-14  1.532110e-13  0 
 1.242831e-14  1.532164e-13  0 
 1.053783e-14  1.532195e-13  0 
 6.784899e-15  1.531910e-13  0 
 4.863965e-15  1.531706e-13  0 
 2.920213e-15  1.531680e-13  0 
 -9.190361e-16  1.531892e-13  0 
 -2.809463e-15  1.531880e-13  0 
 -4.702057e-15  1.531849e-13  0 
 -8.691650e-15  1.530931e-13  0 
 -1.073800e-14  1.530758e-13  0 
 -1.274512e-14  1.530820e-13  0 
 1.619118e-14  1.579471e-13  0 
 1.614980e-14  1.626454e-13  0 
 1.611506e-14  1.673223e-13  0 
 2.124011e-14  1.718750e-13  0 
 1.946381e-14  1.718561e-13  0 
 1.774198e-14  1.718654e-13  0 
 8.644895e-15  1.579372e-13  0 
 8.644672e-15  1.626387e-13  0 
 8.640677e-15  1.673145e-13  0 
 1.423562e-14  1.719776e-13  0 
 1.237085e-14  1.719834e-13  0 
 1.050032e-14  1.719873e-13  0 
 9.641982e-16  1.579074e-13  0 
 9.539469e-16  1.626058e-13  0 
 9.474663e-16  1.672847e-13  0 
 6.651541e-15  1.719538e-13  0 
 4.734670e-15  1.719312e-13  0 
 2.840550e-15  1.719308e-13  0 
 -6.576574e-15  1.579112e-13  0 
 -6.551164e-15  1.626093e-13  0 
 -6.532401e-15  1.672863e-13  0 
 -9.218704e-16  1.719569e-13  0 
 -2.792444e-15  1.719550e-13  0 
 -4.660980e-15  1.719515e-13  0 
 -1.434963e-14  1.579517e-13  0 
 -1.406946e-14  1.626939e-13  0 
 -1.382426e-14  1.672998e-13  0 
 -8.286439e-15  1.718241e-13  0 
 -1.004804e-14  1.717780e-13  0 
 -1.181688e-14  1.717649e-13  0 
 2.207685e-14  1.580103e-13  0 
 2.012416e-14  1.580177e-13  0 
 1.814957e-14  1.580117e-13  0 
 2.179563e-14  1.627483e-13  0 
 1.991839e-14  1.627341e-13  0 
 1.803705e-14  1.626963e-13  0 
 2.155006e-14  1.673578e-13  0 
 1.974401e-14  1.673659e-13  0 
 1.794277e-14  1.673671e-13  0 
 1.430296e-14  1.579437e-13  0 
 1.241565e-14  1.579405e-13  0 
 1.052999e-14  1.579384e-13  0 
 1.427423e-14  1.626438e-13  0 
 1.239788e-14  1.626414e-13  0 
 1.052122e-14  1.626395e-13  0 
 1.424948e-14  1.673198e-13  0 
 1.238110e-14  1.673176e-13  0 
 1.051068e-14  1.673158e-13  0 
 6.727393e-15  1.579203e-13  0 
 4.809897e-15  1.579156e-13  0 
 2.887274e-15  1.579131e-13  0 
 6.722318e-15  1.626250e-13  0 
 4.799308e-15  1.626145e-13  0 
 2.876296e-15  1.626080e-13  0 
 6.713689e-15  1.673022e-13  0 
 4.788717e-15  1.672988e-13  0 
 2.868884e-15  1.672949e-13  0 
 -9.201574e-16  1.579073e-13  0 
 -2.804939e-15  1.579078e-13  0 
 -4.690480e-15  1.579093e-13  0 
 -9.225952e-16  1.626061e-13  0 
 -2.799259e-15  1.626069e-13  0 
 -4.675598e-15  1.626082e-13  0 
 -9.232691e-16  1.672846e-13  0 
 -2.794563e-15  1.672849e-13  0 
 -4.664703e-15  1.672854e-13  0 
 -8.514472e-15  1.579526e-13  0 
 -1.046998e-14  1.579573e-13  0 
 -1.241727e-14  1.579539e-13  0 
 -8.438410e-15  1.626477e-13  0 
 -1.031976e-14  1.626777e-13  0 
 -1.219698e-14  1.626908e-13  0 
 -8.380585e-15  1.673080e-13  0 
 -1.020087e-14  1.673055e-13  0 
 -1.201235e-14  1.673013e-13  0 
VECTORS displacement_ITER2 FLOAT
 -2.433295e-05  5.981739e-05  0 
 -1.922183e-04  -1.110387e-05  0 
 -1.446217e-06  5.285496e-05  0 
 1.617185e-05  5.121121e-05  0 
 1.617185e-05  -5.121121e-05  0 
 -1.446217e-06  -5.285496e-05  0 
 -2.433295e-05  -5.981739e-05  0 
 -9.490943e-06  -3.362575e-06  0 
 2.699245e-05  -4.641888e-06  0 
 2.699245e-05  4.641887e-06  0 
 -9.490943e-06  3.362575e-06  0 
 -1.922183e-04  1.110387e-05  0 
 -2.655682e-05  5.074492e-05  0 
 -4.269391e-05  4.541207e-05  0 
 -9.278463e-05  2.930545e-05  0 
 -1.991865e-05  5.986375e-05  0 
 -1.457916e-05  5.947291e-05  0 
 -8.203469e-06  5.747533e-05  0 
 3.003976e-06  5.264831e-05  0 
 7.455252e-06  5.230771e-05  0 
 1.186465e-05  5.181257e-05  0 
 1.961846e-05  2.573047e-05  0 
 2.073252e-05  -2.691260e-13  0 
 1.961846e-05  -2.573047e-05  0 
 1.186465e-05  -5.181257e-05  0 
 7.455253e-06  -5.230771e-05  0 
 3.003976e-06  -5.264831e-05  0 
 -8.203469e-06  -5.747533e-05  0 
 -1.457916e-05  -5.947291e-05  0 
 -1.991865e-05  -5.986375e-05  0 
 -1.722735e-06  4.187580e-05  0 
 -3.097059e-06  3.037594e-05  0 
 -5.703845e-06  1.624250e-05  0 
 -1.640392e-04  -1.574876e-05  0 
 -1.168047e-04  -2.281606e-05  0 
 -6.057834e-05  -2.119277e-05  0 
 1.653394e-05  4.055710e-05  0 
 1.828319e-05  2.926629e-05  0 
 2.230417e-05  1.526904e-05  0 
 8.953705e-07  -3.282020e-06  0 
 9.737369e-06  -3.395627e-06  0 
 1.810964e-05  -3.912257e-06  0 
 1.653394e-05  -4.055710e-05  0 
 1.828319e-05  -2.926629e-05  0 
 2.230417e-05  -1.526904e-05  0 
 6.211350e-05  -8.732231e-06  0 
 7.377903e-05  -3.036423e-13  0 
 6.211350e-05  8.732230e-06  0 
 -1.722735e-06  -4.187580e-05  0 
 -3.097059e-06  -3.037594e-05  0 
 -5.703845e-06  -1.624250e-05  0 
 1.810964e-05  3.912256e-06  0 
 9.737369e-06  3.395626e-06  0 
 8.953705e-07  3.282019e-06  0 
 -2.655682e-05  -5.074492e-05  0 
 -4.269391e-05  -4.541207e-05  0 
 -9.278463e-05  -2.930545e-05  0 
 -6.057834e-05  2.119277e-05  0 
 -1.168047e-04  2.281606e-05  0 
 -1.640392e-04  1.574876e-05  0 
 -2.300065e-05  5.030285e-05  0 
 -1.750142e-05  4.873784e-05  0 
 -1.019785e-05  4.592394e-05  0 
 -3.736223e-05  4.474621e-05  0 
 -2.841978e-05  4.242800e-05  0 
 -1.717762e-05  3.763551e-05  0 
 -7.783391e-05  3.042429e-05  0 
 -5.667438e-05  3.116816e-05  0 
 -3.103049e-05  2.752038e-05  0 
 2.863365e-06  4.170493e-05  0 
 7.516925e-06  4.141978e-05  0 
 1.210382e-05  4.102782e-05  0 
 2.276814e-06  3.015497e-05  0 
 7.755774e-06  2.992317e-05  0 
 1.317956e-05  2.963224e-05  0 
 1.208008e-06  1.585156e-05  0 
 8.307838e-06  1.541972e-05  0 
 1.536175e-05  1.522934e-05  0 
 2.016516e-05  2.030981e-05  0 
 2.153309e-05  -2.777189e-13  0 
 2.016516e-05  -2.030981e-05  0 
 2.265943e-05  1.439751e-05  0 
 2.358568e-05  -2.863211e-13  0 
 2.265943e-05  -1.439751e-05  0 
 2.972370e-05  1.098492e-05  0 
 3.348915e-05  -2.949397e-13  0 
 2.972370e-05  -1.098492e-05  0 
 1.210382e-05  -4.102782e-05  0 
 7.516925e-06  -4.141978e-05  0 
 2.863365e-06  -4.170493e-05  0 
 1.317956e-05  -2.963224e-05  0 
 7.755774e-06  -2.992317e-05  0 
 2.276814e-06  -3.015497e-05  0 
 1.536175e-05  -1.522934e-05  0 
 8.307838e-06  -1.541972e-05  0 
 1.208008e-06  -1.585156e-05  0 
 -1.019785e-05  -4.592394e-05  0 
 -1.750142e-05  -4.873784e-05  0 
 -2.300065e-05  -5.030285e-05  0 
 -1.717762e-05  -3.763551e-05  0 
 -2.841978e-05  -4.242800e-05  0 
 -3.736223e-05  -4.474621e-05  0 
 -3.103049e-05  -2.752038e-05  0 
 -5.667438e-05  -3.116816e-05  0 
 -7.783391e-05  -3.042429e-05  0 
VECTORS displacement_ITER3 FLOAT
 -7.674804e-05  4.431868e-05  0 
 -5.512284e-04  -5.017398e-04  0 
 -2.307924e-05  7.801089e-05  0 
 7.827089e-05  7.555946e-05  0 
 7.827089e-05  -7.555946e-05  0 
 -2.307924e-05  -7.801089e-05  0 
 -7.674804e-05  -4.431868e-05  0 
 -2.399482e-05  -1.958667e-04  0 
 8.690840e-05  -1.838334e-04  0 
 8.690840e-05  1.838334e-04  0 
 -2.399482e-05  1.958667e-04  0 
 -5.512284e-04  5.017398e-04  0 
 -1.152690e-04  3.326679e-05  0 
 -1.823026e-04  -1.390659e-05  0 
 -3.294458e-04  -1.292204e-04  0 
 -7.879459e-05  4.823320e-05  0 
 -6.934968e-05  5.730769e-05  0 
 -5.056777e-05  6.776643e-05  0 
 2.577440e-06  7.801463e-05  0 
 2.814823e-05  7.759371e-05  0 
 5.345312e-05  7.673633e-05  0 
 9.079136e-05  3.498754e-05  0 
 9.467539e-05  2.426174e-14  0 
 9.079136e-05  -3.498754e-05  0 
 5.345312e-05  -7.673633e-05  0 
 2.814823e-05  -7.759371e-05  0 
 2.577440e-06  -7.801463e-05  0 
 -5.056777e-05  -6.776643e-05  0 
 -6.934968e-05  -5.730769e-05  0 
 -7.879459e-05  -4.823320e-05  0 
 -2.312070e-05  1.513454e-05  0 
 -2.510883e-05  -4.957002e-05  0 
 -2.683027e-05  -1.205783e-04  0 
 -3.417078e-04  -4.761747e-04  0 
 -1.889970e-04  -4.106850e-04  0 
 -8.226984e-05  -3.180076e-04  0 
 7.912649e-05  1.440201e-05  0 
 8.229183e-05  -4.920160e-05  0 
 8.553632e-05  -1.163111e-04  0 
 4.304267e-06  -1.931209e-04  0 
 3.207453e-05  -1.902265e-04  0 
 5.953431e-05  -1.871595e-04  0 
 7.912649e-05  -1.440201e-05  0 
 8.229183e-05  4.920160e-05  0 
 8.553632e-05  1.163111e-04  0 
 1.062909e-04  -8.836987e-05  0 
 1.113376e-04  2.699868e-14  0 
 1.062909e-04  8.836987e-05  0 
 -2.312070e-05  -1.513454e-05  0 
 -2.510883e-05  4.957002e-05  0 
 -2.683027e-05  1.205783e-04  0 
 5.953431e-05  1.871595e-04  0 
 3.207453e-05  1.902265e-04  0 
 4.304267e-06  1.931209e-04  0 
 -1.152690e-04  -3.326679e-05  0 
 -1.823026e-04  1.390659e-05  0 
 -3.294458e-04  1.292204e-04  0 
 -8.226984e-05  3.180076e-04  0 
 -1.889970e-04  4.106850e-04  0 
 -3.417078e-04  4.761747e-04  0 
 -1.008441e-04  3.187841e-05  0 
 -8.177604e-05  2.832044e-05  0 
 -5.586048e-05  2.293796e-05  0 
 -1.510324e-04  -1.570257e-05  0 
 -1.113845e-04  -2.278836e-05  0 
 -6.831126e-05  -3.534948e-05  0 
 -2.409966e-04  -1.322268e-04  0 
 -1.507713e-04  -1.343196e-04  0 
 -7.642526e-05  -1.290688e-04  0 
 2.539631e-06  1.492044e-05  0 
 2.838218e-05  1.470342e-05  0 
 5.402785e-05  1.452157e-05  0 
 2.180943e-06  -4.988532e-05  0 
 2.922973e-05  -4.995942e-05  0 
 5.591444e-05  -4.971989e-05  0 
 2.535379e-06  -1.199354e-04  0 
 3.079160e-05  -1.188797e-04  0 
 5.838824e-05  -1.175883e-04  0 
 9.779989e-05  8.150550e-06  0 
 1.036680e-04  2.497588e-14  0 
 9.779989e-05  -8.150550e-06  0 
 1.019160e-04  -2.475439e-05  0 
 1.086625e-04  2.567045e-14  0 
 1.019160e-04  2.475439e-05  0 
 1.048574e-04  -5.879970e-05  0 
 1.111993e-04  2.635168e-14  0 
 1.048574e-04  5.879970e-05  0 
 5.402785e-05  -1.452157e-05  0 
 2.838218e-05  -1.470342e-05  0 
 2.539631e-06  -1.492044e-05  0 
 5.591444e-05  4.971989e-05  0 
 2.922973e-05  4.995942e-05  0 
 2.180943e-06  4.988532e-05  0 
 5.838824e-05  1.175883e-04  0 
 3.079160e-05  1.188797e-04  0 
 2.535379e-06  1.199354e-04  0 
 -5.586048e-05  -2.293796e-05  0 
 -8.177604e-05  -2.832044e-05  0 
 -1.008441e-04  -3.187841e-05  0 
 -6.831126e-05  3.534949e-05  0 
 -1.113845e-04  2.278836e-05  0 
 -1.510324e-04  1.570257e-05  0 
 -7.642526e-05  1.290688e-04  0 
 -1.507713e-04  1.343196e-04  0 
 -2.409966e-04  1.322268e-04  0 
VECTORS displacement_ITER4 FLOAT
 2.776200e-04  -2.999798e-04  0 
 2.424492e-04  2.458764e-04  0 
 -9.643209e-06  -1.812099e-04  0 
 -1.227732e-04  -1.759578e-04  0 
 -1.227732e-04  1.759578e-04  0 
 -9.643209e-06  1.812099e-04  0 
 2.776200e-04  2.999798e-04  0 
 -9.523521e-06  8.904140e-05  0 
 -1.210366e-04  9.437173e-05  0 
 -1.210366e-04  -9.437173e-05  0 
 -9.523521e-06  -8.904140e-05  0 
 2.424492e-04  -2.458764e-04  0 
 1.926490e-04  -1.263931e-04  0 
 1.425615e-04  -3.908581e-05  0 
 1.674096e-04  3.873538e-05  0 
 1.921984e-04  -2.950805e-04  0 
 1.163014e-04  -2.785584e-04  0 
 4.653884e-05  -2.442089e-04  0 
 -3.814413e-05  -1.793934e-04  0 
 -6.626909e-05  -1.779186e-04  0 
 -9.435093e-05  -1.767862e-04  0 
 -1.748899e-04  -9.953585e-05  0 
 -1.929977e-04  -1.070857e-14  0 
 -1.748899e-04  9.953585e-05  0 
 -9.435093e-05  1.767862e-04  0 
 -6.626909e-05  1.779186e-04  0 
 -3.814413e-05  1.793934e-04  0 
 4.653884e-05  2.442089e-04  0 
 1.163014e-04  2.785584e-04  0 
 1.921984e-04  2.950805e-04  0 
 -9.686898e-06  -1.086154e-04  0 
 -1.160491e-05  -3.994639e-05  0 
 -1.303232e-05  2.546878e-05  0 
 1.297178e-04  2.280525e-04  0 
 5.075064e-05  1.838495e-04  0 
 3.567970e-06  1.299559e-04  0 
 -1.209916e-04  -1.047787e-04  0 
 -1.178482e-04  -3.969788e-05  0 
 -1.186038e-04  2.309176e-05  0 
 -3.704208e-05  8.909538e-05  0 
 -6.454800e-05  9.006384e-05  0 
 -9.237974e-05  9.179798e-05  0 
 -1.209916e-04  1.047787e-04  0 
 -1.178482e-04  3.969788e-05  0 
 -1.186038e-04  -2.309176e-05  0 
 -1.988227e-04  7.068385e-05  0 
 -2.276099e-04  -1.286193e-14  0 
 -1.988227e-04  -7.068385e-05  0 
 -9.686898e-06  1.086154e-04  0 
 -1.160491e-05  3.994639e-05  0 
 -1.303232e-05  -2.546878e-05  0 
 -9.237974e-05  -9.179799e-05  0 
 -6.454800e-05  -9.006384e-05  0 
 -3.704208e-05  -8.909538e-05  0 
 1.926490e-04  1.263931e-04  0 
 1.425615e-04  3.908581e-05  0 
 1.674096e-04  -3.873538e-05  0 
 3.567970e-06  -1.299559e-04  0 
 5.075064e-05  -1.838495e-04  0 
 1.297178e-04  -2.280525e-04  0 
 1.405744e-04  -1.255773e-04  0 
 8.553394e-05  -1.217020e-04  0 
 3.339926e-05  -1.143356e-04  0 
 1.112873e-04  -3.887845e-05  0 
 7.219820e-05  -3.851833e-05  0 
 2.987123e-05  -3.931977e-05  0 
 1.162734e-04  4.070169e-05  0 
 6.495652e-05  4.260386e-05  0 
 2.238011e-05  3.953598e-05  0 
 -3.809725e-05  -1.082885e-04  0 
 -6.593328e-05  -1.075163e-04  0 
 -9.344572e-05  -1.063392e-04  0 
 -3.871252e-05  -4.003281e-05  0 
 -6.565459e-05  -4.016503e-05  0 
 -9.223422e-05  -4.010305e-05  0 
 -3.865686e-05  2.499761e-05  0 
 -6.494663e-05  2.465484e-05  0 
 -9.161936e-05  2.415190e-05  0 
 -1.438141e-04  -4.810459e-05  0 
 -1.533996e-04  -1.122846e-14  0 
 -1.438141e-04  4.810459e-05  0 
 -1.380338e-04  -1.971163e-05  0 
 -1.428077e-04  -1.175708e-14  0 
 -1.380338e-04  1.971163e-05  0 
 -1.444221e-04  3.244486e-06  0 
 -1.561595e-04  -1.230031e-14  0 
 -1.444221e-04  -3.244486e-06  0 
 -9.344572e-05  1.063392e-04  0 
 -6.593328e-05  1.075163e-04  0 
 -3.809725e-05  1.082885e-04  0 
 -9.223422e-05  4.010305e-05  0 
 -6.565459e-05  4.016503e-05  0 
 -3.871252e-05  4.003281e-05  0 
 -9.161936e-05  -2.415190e-05  0 
 -6.494663e-05  -2.465484e-05  0 
 -3.865686e-05  -2.499761e-05  0 
 3.339926e-05  1.143356e-04  0 
 8.553394e-05  1.217020e-04  0 
 1.405744e-04  1.255773e-04  0 
 2.987123e-05  3.931977e-05  0 
 7.219820e-05  3.851833e-05  0 
 1.112873e-04  3.887845e-05  0 
 2.238011e-05  -3.953598e-05  0 
 6.495652e-05  -4.260386e-05  0 
 1.162734e-04  -4.070169e-05  0 
VECTORS displacement_ITER5 FLOAT
 -2.210784e-04  2.629825e-04  0 
 1.106059e-04  7.724083e-05  0 
 3.084840e-05  3.697131e-05  0 
 6.355401e-05  3.316878e-05  0 
 6.355401e-05  -3.316878e-05  0 
 3.084840e-05  -3.697132e-05  0 
 -2.210784e-04  -2.629825e-04  0 
 3.170478e-05  -6.392542e-05  0 
 5.864530e-05  -5.012996e-05  0 
 5.864530e-05  5.012996e-05  0 
 3.170478e-05  6.392542e-05  0 
 1.106059e-04  -7.724083e-05  0 
 -1.066006e-04  1.709899e-05  0 
 -2.582445e-05  -3.783685e-05  0 
 3.645059e-05  -4.394999e-05  0 
 -7.724825e-05  2.376084e-04  0 
 7.558851e-06  1.767674e-04  0 
 4.288762e-05  1.037139e-04  0 
 3.875461e-05  3.612882e-05  0 
 4.720380e-05  3.533983e-05  0 
 5.561546e-05  3.438242e-05  0 
 6.010775e-05  1.823356e-05  0 
 6.145135e-05  -1.360069e-13  0 
 6.010775e-05  -1.823356e-05  0 
 5.561546e-05  -3.438242e-05  0 
 4.720380e-05  -3.533983e-05  0 
 3.875461e-05  -3.612882e-05  0 
 4.288762e-05  -1.037139e-04  0 
 7.558851e-06  -1.767674e-04  0 
 -7.724825e-05  -2.376084e-04  0 
 2.825950e-05  1.405395e-05  0 
 2.659465e-05  -1.148371e-05  0 
 2.614816e-05  -3.646884e-05  0 
 3.389778e-05  5.798858e-05  0 
 -3.863059e-06  1.269883e-05  0 
 -5.867943e-06  -3.697067e-05  0 
 6.515146e-05  1.275038e-05  0 
 6.617505e-05  -1.184061e-05  0 
 6.323882e-05  -3.703612e-05  0 
 3.939745e-05  -6.210113e-05  0 
 4.719841e-05  -5.924542e-05  0 
 5.401094e-05  -5.537653e-05  0 
 6.515146e-05  -1.275038e-05  0 
 6.617505e-05  1.184061e-05  0 
 6.323882e-05  3.703612e-05  0 
 2.821708e-06  -8.120796e-06  0 
 -1.408774e-05  -1.528560e-13  0 
 2.821708e-06  8.120795e-06  0 
 2.825950e-05  -1.405395e-05  0 
 2.659465e-05  1.148371e-05  0 
 2.614816e-05  3.646884e-05  0 
 5.401094e-05  5.537653e-05  0 
 4.719841e-05  5.924542e-05  0 
 3.939745e-05  6.210113e-05  0 
 -1.066006e-04  -1.709899e-05  0 
 -2.582445e-05  3.783685e-05  0 
 3.645059e-05  4.394999e-05  0 
 -5.867943e-06  3.697067e-05  0 
 -3.863059e-06  -1.269883e-05  0 
 3.389778e-05  -5.798858e-05  0 
 -5.758580e-05  2.116536e-05  0 
 -1.211239e-05  2.660519e-05  0 
 1.646400e-05  2.582288e-05  0 
 -1.404989e-05  -3.607113e-05  0 
 -5.414854e-07  -2.976968e-05  0 
 1.318500e-05  -2.108146e-05  0 
 2.127068e-05  -4.061628e-05  0 
 1.102588e-05  -3.462790e-05  0 
 1.426953e-05  -3.070074e-05  0 
 3.776623e-05  1.346835e-05  0 
 4.697367e-05  1.300553e-05  0 
 5.614146e-05  1.277394e-05  0 
 3.651651e-05  -1.140576e-05  0 
 4.631965e-05  -1.168173e-05  0 
 5.600803e-05  -1.193624e-05  0 
 3.702920e-05  -3.675406e-05  0 
 4.663414e-05  -3.656327e-05  0 
 5.533878e-05  -3.647703e-05  0 
 7.161085e-05  6.638130e-06  0 
 7.288164e-05  -1.402226e-13  0 
 7.161085e-05  -6.638130e-06  0 
 7.248070e-05  -5.584686e-06  0 
 7.597614e-05  -1.444321e-13  0 
 7.248070e-05  5.584686e-06  0 
 6.397533e-05  -2.576075e-05  0 
 6.082275e-05  -1.486507e-13  0 
 6.397533e-05  2.576075e-05  0 
 5.614146e-05  -1.277394e-05  0 
 4.697367e-05  -1.300553e-05  0 
 3.776623e-05  -1.346835e-05  0 
 5.600803e-05  1.193624e-05  0 
 4.631965e-05  1.168173e-05  0 
 3.651651e-05  1.140576e-05  0 
 5.533878e-05  3.647703e-05  0 
 4.663414e-05  3.656327e-05  0 
 3.702920e-05  3.675406e-05  0 
 1.646400e-05  -2.582288e-05  0 
 -1.211239e-05  -2.660519e-05  0 
 -5.758580e-05  -2.116536e-05  0 
 1.318500e-05  2.108146e-05  0 
 -5.414853e-07  2.976968e-05  0 
 -1.404989e-05  3.607112e-05  0 
 1.426953e-05  3.070074e-05  0 
 1.102588e-05  3.462789e-05  0 
 2.127068e-05  4.061628e-05  0 
VECTORS displacement_ITER6 FLOAT
 1.210458e-05  -5.663514e-05  0 
 -9.538786e-05  -1.013352e-04  0 
 -5.129732e-06  -2.707679e-05  0 
 8.512823e-06  -2.636621e-05  0 
 8.512823e-06  2.636621e-05  0 
 -5.129732e-06  2.707679e-05  0 
 1.210458e-05  5.663514e-05  0 
 1.957686e-06  -6.914064e-05  0 
 1.907776e-06  -5.284589e-05  0 
 1.907776e-06  5.284589e-05  0 
 1.957686e-06  6.914064e-05  0 
 -9.538786e-05  1.013352e-04  0 
 -9.251611e-06  -3.047780e-05  0 
 -2.585171e-05  -3.633579e-05  0 
 -4.981792e-05  -5.013660e-05  0 
 -6.395246e-06  -5.022415e-05  0 
 -1.177345e-05  -3.681561e-05  0 
 -7.019802e-06  -2.692028e-05  0 
 -1.555933e-06  -2.675669e-05  0 
 2.097829e-06  -2.648778e-05  0 
 5.536390e-06  -2.633402e-05  0 
 1.108302e-05  -6.883999e-06  0 
 1.489120e-05  7.063264e-15  0 
 1.108302e-05  6.883999e-06  0 
 5.536390e-06  2.633402e-05  0 
 2.097829e-06  2.648778e-05  0 
 -1.555933e-06  2.675669e-05  0 
 -7.019802e-06  2.692028e-05  0 
 -1.177345e-05  3.681561e-05  0 
 -6.395246e-06  5.022415e-05  0 
 -5.439617e-06  -3.557678e-05  0 
 -5.716812e-06  -4.521698e-05  0 
 -5.093427e-06  -5.595099e-05  0 
 -6.064696e-05  -9.823274e-05  0 
 -3.528843e-05  -9.062766e-05  0 
 -1.885810e-05  -8.165666e-05  0 
 9.661266e-06  -3.449381e-05  0 
 1.052868e-05  -4.513368e-05  0 
 7.633026e-06  -5.593656e-05  0 
 2.966387e-06  -6.601419e-05  0 
 4.397569e-06  -6.251894e-05  0 
 4.608087e-06  -5.837566e-05  0 
 9.661266e-06  3.449381e-05  0 
 1.052868e-05  4.513368e-05  0 
 7.633026e-06  5.593656e-05  0 
 -5.193061e-05  -2.050535e-05  0 
 -6.365688e-05  6.967252e-15  0 
 -5.193061e-05  2.050535e-05  0 
 -5.439617e-06  3.557678e-05  0 
 -5.716812e-06  4.521698e-05  0 
 -5.093427e-06  5.595099e-05  0 
 4.608087e-06  5.837566e-05  0 
 4.397569e-06  6.251894e-05  0 
 2.966387e-06  6.601419e-05  0 
 -9.251611e-06  3.047780e-05  0 
 -2.585171e-05  3.633579e-05  0 
 -4.981792e-05  5.013660e-05  0 
 -1.885810e-05  8.165666e-05  0 
 -3.528843e-05  9.062766e-05  0 
 -6.064696e-05  9.823274e-05  0 
 -1.092397e-05  -3.195068e-05  0 
 -1.181054e-05  -3.466741e-05  0 
 -1.010898e-05  -3.596895e-05  0 
 -2.155080e-05  -3.661999e-05  0 
 -1.666997e-05  -3.806842e-05  0 
 -1.164053e-05  -4.134985e-05  0 
 -3.866340e-05  -5.111004e-05  0 
 -2.549181e-05  -5.292472e-05  0 
 -1.277226e-05  -5.382977e-05  0 
 -1.768106e-06  -3.557611e-05  0 
 1.983005e-06  -3.537045e-05  0 
 5.848898e-06  -3.498092e-05  0 
 -1.806840e-06  -4.535114e-05  0 
 2.139617e-06  -4.561882e-05  0 
 6.077482e-06  -4.563410e-05  0 
 -9.278564e-08  -5.613845e-05  0 
 3.267139e-06  -5.575473e-05  0 
 5.722241e-06  -5.551660e-05  0 
 1.318784e-05  -1.850344e-05  0 
 1.412601e-05  7.039082e-15  0 
 1.318784e-05  1.850344e-05  0 
 1.255451e-05  -2.241146e-05  0 
 1.411262e-05  7.019256e-15  0 
 1.255451e-05  2.241146e-05  0 
 5.157681e-06  -3.261047e-05  0 
 1.260868e-06  6.991927e-15  0 
 5.157681e-06  3.261047e-05  0 
 5.848898e-06  3.498092e-05  0 
 1.983005e-06  3.537045e-05  0 
 -1.768106e-06  3.557611e-05  0 
 6.077482e-06  4.563410e-05  0 
 2.139617e-06  4.561882e-05  0 
 -1.806840e-06  4.535114e-05  0 
 5.722241e-06  5.551660e-05  0 
 3.267139e-06  5.575473e-05  0 
 -9.278564e-08  5.613845e-05  0 
 -1.010898e-05  3.596895e-05  0 
 -1.181054e-05  3.466741e-05  0 
 -1.092397e-05  3.195068e-05  0 
 -1.164053e-05  4.134985e-05  0 
 -1.666997e-05  3.806842e-05  0 
 -2.155080e-05  3.661999e-05  0 
 -1.277226e-05  5.382977e-05  0 
 -2.549181e-05  5.292472e-05  0 
 -3.866340e-05  5.111004e-05  0 
VECTORS displacement_ITER7 FLOAT
 8.764765e-05  -1.301147e-04  0 
 -1.590737e-04  -1.196161e-04  0 
 -4.187550e-05  -2.960201e-05  0 
 -4.309462e-05  -2.854846e-05  0 
 -4.309462e-05  2.854846e-05  0 
 -4.187550e-05  2.960201e-05  0 
 8.764765e-05  1.301147e-04  0 
 -2.961037e-05  -3.130464e-05  0 
 -5.544132e-05  -1.443179e-05  0 
 -5.544132e-05  1.443179e-05  0 
 -2.961037e-05  3.130464e-05  0 
 -1.590737e-04  1.196161e-04  0 
 8.970988e-06  -2.001115e-05  0 
 -3.638081e-05  -7.920958e-06  0 
 -7.877596e-05  -1.425600e-05  0 
 1.624364e-05  -1.157521e-04  0 
 -2.697323e-05  -8.231404e-05  0 
 -4.372084e-05  -4.686516e-05  0 
 -4.220858e-05  -2.924474e-05  0 
 -4.224258e-05  -2.895038e-05  0 
 -4.239436e-05  -2.873344e-05  0 
 -4.291965e-05  -8.587419e-06  0 
 -4.254297e-05  -1.065962e-13  0 
 -4.291965e-05  8.587419e-06  0 
 -4.239436e-05  2.873344e-05  0 
 -4.224258e-05  2.895038e-05  0 
 -4.220858e-05  2.924474e-05  0 
 -4.372084e-05  4.686516e-05  0 
 -2.697323e-05  8.231404e-05  0 
 1.624364e-05  1.157521e-04  0 
 -4.286076e-05  -3.020861e-05  0 
 -4.167675e-05  -3.125186e-05  0 
 -3.869226e-05  -3.128136e-05  0 
 -8.355181e-05  -1.065665e-04  0 
 -3.764272e-05  -7.567060e-05  0 
 -2.347999e-05  -4.296799e-05  0 
 -4.089241e-05  -2.910020e-05  0 
 -4.085389e-05  -3.158646e-05  0 
 -4.591741e-05  -3.228551e-05  0 
 -3.485204e-05  -2.725368e-05  0 
 -3.918322e-05  -2.368721e-05  0 
 -4.509168e-05  -1.969631e-05  0 
 -4.089241e-05  2.910020e-05  0 
 -4.085389e-05  3.158646e-05  0 
 -4.591741e-05  3.228551e-05  0 
 -1.032216e-04  -1.777865e-05  0 
 -1.089118e-04  -1.195173e-13  0 
 -1.032216e-04  1.777865e-05  0 
 -4.286076e-05  3.020861e-05  0 
 -4.167675e-05  3.125186e-05  0 
 -3.869226e-05  3.128136e-05  0 
 -4.509168e-05  1.969631e-05  0 
 -3.918322e-05  2.368721e-05  0 
 -3.485204e-05  2.725368e-05  0 
 8.970988e-06  2.001115e-05  0 
 -3.638081e-05  7.920958e-06  0 
 -7.877596e-05  1.425600e-05  0 
 -2.347999e-05  4.296799e-05  0 
 -3.764272e-05  7.567060e-05  0 
 -8.355181e-05  1.065665e-04  0 
 -9.791093e-06  -2.280026e-05  0 
 -2.811973e-05  -2.807377e-05  0 
 -3.903320e-05  -3.194711e-05  0 
 -3.756200e-05  -9.200261e-06  0 
 -3.904564e-05  -1.391127e-05  0 
 -4.048076e-05  -2.141364e-05  0 
 -6.317953e-05  -1.755583e-05  0 
 -4.766331e-05  -2.459194e-05  0 
 -3.937818e-05  -3.104926e-05  0 
 -4.239116e-05  -3.011970e-05  0 
 -4.205031e-05  -2.989345e-05  0 
 -4.157426e-05  -2.950630e-05  0 
 -4.171560e-05  -3.149534e-05  0 
 -4.169432e-05  -3.187802e-05  0 
 -4.160078e-05  -3.198725e-05  0 
 -3.865458e-05  -3.160539e-05  0 
 -4.046035e-05  -3.133884e-05  0 
 -4.311535e-05  -3.145947e-05  0 
 -4.050536e-05  -1.556471e-05  0 
 -3.998578e-05  -1.098098e-13  0 
 -4.050536e-05  1.556471e-05  0 
 -4.192964e-05  -1.599840e-05  0 
 -4.202222e-05  -1.130339e-13  0 
 -4.192964e-05  1.599840e-05  0 
 -5.029425e-05  -1.698668e-05  0 
 -5.382651e-05  -1.162633e-13  0 
 -5.029425e-05  1.698668e-05  0 
 -4.157426e-05  2.950630e-05  0 
 -4.205031e-05  2.989345e-05  0 
 -4.239116e-05  3.011969e-05  0 
 -4.160078e-05  3.198725e-05  0 
 -4.169432e-05  3.187802e-05  0 
 -4.171560e-05  3.149534e-05  0 
 -4.311535e-05  3.145947e-05  0 
 -4.046035e-05  3.133884e-05  0 
 -3.865458e-05  3.160539e-05  0 
 -3.903320e-05  3.194711e-05  0 
 -2.811973e-05  2.807377e-05  0 
 -9.791093e-06  2.280026e-05  0 
 -4.048076e-05  2.141364e-05  0 
 -3.904564e-05  1.391127e-05  0 
 -3.756200e-05  9.200260e-06  0 
 -3.937818e-05  3.104926e-05  0 
 -4.766331e-05  2.459194e-05  0 
 -6.317953e-05  1.755583e-05  0 
VECTORS displacement_ITER8 FLOAT
 3.037892e-05  -4.600942e-05  0 
 -3.895765e-05  -3.562139e-05  0 
 -6.795162e-06  -1.752644e-05  0 
 -5.087409e-06  -1.643822e-05  0 
 -5.087409e-06  1.643822e-05  0 
 -6.795162e-06  1.752644e-05  0 
 3.037892e-05  4.600942e-05  0 
 8.926292e-06  -1.724292e-05  0 
 -2.416811e-05  -6.914215e-07  0 
 -2.416811e-05  6.914214e-07  0 
 8.926292e-06  1.724292e-05  0 
 -3.895765e-05  3.562139e-05  0 
 6.651699e-06  -1.453398e-05  0 
 1.113971e-06  -1.162692e-05  0 
 -4.068161e-06  -4.888268e-06  0 
 7.516201e-06  -4.104537e-05  0 
 -6.791668e-06  -2.937558e-05  0 
 -1.183275e-05  -1.683820e-05  0 
 -6.387504e-06  -1.751983e-05  0 
 -5.758612e-06  -1.734812e-05  0 
 -5.217747e-06  -1.700312e-05  0 
 3.657894e-06  -1.868304e-06  0 
 5.203943e-06  -2.011209e-14  0 
 3.657894e-06  1.868304e-06  0 
 -5.217747e-06  1.700312e-05  0 
 -5.758612e-06  1.734812e-05  0 
 -6.387504e-06  1.751983e-05  0 
 -1.183275e-05  1.683820e-05  0 
 -6.791668e-06  2.937558e-05  0 
 7.516201e-06  4.104537e-05  0 
 -7.609687e-06  -2.017842e-05  0 
 -5.482635e-06  -2.210996e-05  0 
 -1.216126e-06  -2.043020e-05  0 
 -7.171128e-06  -3.130456e-05  0 
 1.476870e-05  -2.058567e-05  0 
 2.039041e-05  -9.132322e-06  0 