# vtk DataFile Version 3.1
this is an vtk file created by FEMAC
ASCII
DATASET UNSTRUCTURED_GRID
POINTS 105 FLOAT
0.500000 0.000000 0.000000
1.000000 0.000000 0.000000
0.500000 0.200000 0.000000
0.500000 0.400000 0.000000
0.500000 0.600000 0.000000
0.500000 0.800000 0.000000
0.500000 1.000000 0.000000
1.000000 0.200000 0.000000
1.000000 0.400000 0.000000
1.000000 0.600000 0.000000
1.000000 0.800000 0.000000
1.000000 1.000000 0.000000
0.625000 0.000000 0.000000
0.750000 0.000000 0.000000
0.875000 0.000000 0.000000
0.500000 0.050000 0.000000
0.500000 0.100000 0.000000
0.500000 0.150000 0.000000
0.500000 0.250000 0.000000
0.500000 0.300000 0.000000
0.500000 0.350000 0.000000
0.500000 0.450000 0.000000
0.500000 0.500000 0.000000
0.500000 0.550000 0.000000
0.500000 0.650000 0.000000
0.500000 0.700000 0.000000
0.500000 0.750000 0.000000
0.500000 0.850000 0.000000
0.500000 0.900000 0.000000
0.500000 0.950000 0.000000
0.625000 0.200000 0.000000
0.750000 0.200000 0.000000
0.875000 0.200000 0.000000
1.000000 0.050000 0.000000
1.000000 0.100000 0.000000
1.000000 0.150000 0.000000
0.625000 0.400000 0.000000
0.750000 0.400000 0.000000
0.875000 0.400000 0.000000
1.000000 0.250000 0.000000
1.000000 0.300000 0.000000
1.000000 0.350000 0.000000
0.625000 0.600000 0.000000
0.750000 0.600000 0.000000
0.875000 0.600000 0.000000
1.000000 0.450000 0.000000
1.000000 0.500000 0.000000
1.000000 0.550000 0.000000
0.625000 0.800000 0.000000
0.750000 0.800000 0.000000
0.875000 0.800000 0.000000
1.000000 0.650000 0.000000
1.000000 0.700000 0.000000
1.000000 0.750000 0.000000
0.625000 1.000000 0.000000
0.750000 1.000000 0.000000
0.875000 1.000000 0.000000
1.000000 0.850000 0.000000
1.000000 0.900000 0.000000
1.000000 0.950000 0.000000
0.625000 0.050000 0.000000
0.625000 0.100000 0.000000
0.625000 0.150000 0.000000
0.750000 0.050000 0.000000
0.750000 0.100000 0.000000
0.750000 0.150000 0.000000
0.875000 0.050000 0.000000
0.875000 0.100000 0.000000
0.875000 0.150000 0.000000
0.625000 0.250000 0.000000
0.625000 0.300000 0.000000
0.625000 0.350000 0.000000
0.750000 0.250000 0.000000
0.750000 0.300000 0.000000
0.750000 0.350000 0.000000
0.875000 0.250000 0.000000
0.875000 0.300000 0.000000
0.875000 0.350000 0.000000
0.625000 0.450000 0.000000
0.625000 0.500000 0.000000
0.625000 0.550000 0.000000
0.750000 0.450000 0.000000
0.750000 0.500000 0.000000
0.750000 0.550000 0.000000
0.875000 0.450000 0.000000
0.875000 0.500000 0.000000
0.875000 0.550000 0.000000
0.625000 0.650000 0.000000
0.625000 0.700000 0.000000
0.625000 0.750000 0.000000
0.750000 0.650000 0.000000
0.750000 0.700000 0.000000
0.750000 0.750000 0.000000
0.875000 0.650000 0.000000
0.875000 0.700000 0.000000
0.875000 0.750000 0.000000
0.625000 0.850000 0.000000
0.625000 0.900000 0.000000
0.625000 0.950000 0.000000
0.750000 0.850000 0.000000
0.750000 0.900000 0.000000
0.750000 0.950000 0.000000
0.875000 0.850000 0.000000
0.875000 0.900000 0.000000
0.875000 0.950000 0.000000
CELLS 80 400 
4 0 12 60 15
4 15 60 61 16
4 16 61 62 17
4 17 62 30  2
4 12 13 63 60
4 60 63 64 61
4 61 64 65 62
4 62 65 31 30
4 13 14 66 63
4 63 66 67 64
4 64 67 68 65
4 65 68 32 31
4 14  1 33 66
4 66 33 34 67
4 67 34 35 68
4 68 35  7 32
4 2 30 69 18
4 18 69 70 19
4 19 70 71 20
4 20 71 36  3
4 30 31 72 69
4 69 72 73 70
4 70 73 74 71
4 71 74 37 36
4 31 32 75 72
4 72 75 76 73
4 73 76 77 74
4 74 77 38 37
4 32  7 39 75
4 75 39 40 76
4 76 40 41 77
4 77 41  8 38
4 3 36 78 21
4 21 78 79 22
4 22 79 80 23
4 23 80 42  4
4 36 37 81 78
4 78 81 82 79
4 79 82 83 80
4 80 83 43 42
4 37 38 84 81
4 81 84 85 82
4 82 85 86 83
4 83 86 44 43
4 38  8 45 84
4 84 45 46 85
4 85 46 47 86
4 86 47  9 44
4 4 42 87 24
4 24 87 88 25
4 25 88 89 26
4 26 89 48  5
4 42 43 90 87
4 87 90 91 88
4 88 91 92 89
4 89 92 49 48
4 43 44 93 90
4 90 93 94 91
4 91 94 95 92
4 92 95 50 49
4 44  9 51 93
4 93 51 52 94
4 94 52 53 95
4 95 53 10 50
4 5 48 96 27
4 27 96 97 28
4 28 97 98 29
4 29 98 54  6
4 48 49 99 96
4 96  99 100  97
4 97 100 101  98
4 98 101  55  54
4 49  50 102  99
4 99 102 103 100
4 100 103 104 101
4 101 104  56  55
4 50  10  57 102
4 102  57  58 103
4 103  58  59 104
4 104  59  11  56
CELL_TYPES 80
9 9 9 9 9 9 9 9 9 9 9 9 9 9 9 9 9 9 9 9 9 9 9 9 9 9 9 9 9 9 9 9 9 9 9 9 9 9 9 9 9 9 9 9 9 9 9 9 9 9 9 9 9 9 9 9 9 9 9 9 9 9 9 9 9 9 9 9 9 9 9 9 9 9 9 9 9 9 9 9 
POINT_DATA 105
VECTORS displacement_ITER1 FLOAT
 4.931212e-14  -2.812257e-13  0 
 2.518673e-12  3.926208e-13  0 
 1.811305e-13  -3.734841e-13  0 
 -2.717447e-14  -4.014943e-13  0 
 -5.764604e-14  8.280001e-13  0 
 7.952019e-14  8.068128e-13  0 
 1.449911e-13  6.437051e-13  0 
 2.125342e-13  -3.755601e-14  0 
 -1.030804e-13  1.146927e-13  0 
 -1.363894e-13  4.469520e-13  0 
 1.257418e-13  5.988717e-13  0 
 2.395528e-12  1.607071e-13  0 
 8.274114e-14  -2.643894e-13  0 
 4.338064e-13  -4.610994e-13  0 
 1.205119e-12  -2.616205e-13  0 
 -5.783344e-14  -1.394763e-13  0 
 9.504117e-14  5.113111e-14  0 
 3.190489e-13  -5.991162e-14  0 
 1.315253e-13  -3.826156e-13  0 
 8.367888e-14  -3.878312e-13  0 
 3.365168e-14  -3.940935e-13  0 
 -3.956732e-13  -1.538076e-13  0 
 -4.902156e-13  2.409094e-13  0 
 -3.889171e-13  6.200604e-13  0 
 -1.522557e-14  8.133157e-13  0 
 1.693083e-14  8.104141e-13  0 
 4.450713e-14  8.083925e-13  0 
 2.933390e-13  5.600436e-13  0 
 1.670686e-13  4.122457e-13  0 
 6.590725e-14  5.351752e-13  0 
 1.505050e-13  -2.860431e-13  0 
 1.423969e-13  -2.130336e-13  0 
 1.513570e-13  -1.295881e-13  0 
 2.090766e-12  5.157392e-13  0 
 1.301754e-12  6.426514e-13  0 
 4.470076e-13  3.856688e-13  0 
 -2.963682e-15  -2.675249e-13  0 
 7.000231e-15  -2.021321e-13  0 
 -4.841506e-14  -1.234290e-13  0 
 1.396556e-13  -2.548832e-14  0 
 5.909083e-14  -7.750329e-15  0 
 -2.820947e-14  4.797828e-14  0 
 -3.721641e-14  7.298327e-13  0 
 -2.904360e-14  6.982382e-13  0 
 -8.291112e-14  6.508936e-13  0 
 -9.303232e-13  5.093440e-13  0 
 -1.257760e-12  2.795196e-13  0 
 -9.411740e-13  5.312818e-14  0 
 6.003908e-14  7.470628e-13  0 
 5.510849e-14  7.074397e-13  0 
 6.441613e-14  6.566922e-13  0 
 -7.408832e-14  5.126599e-13  0 
 -1.121279e-15  5.668470e-13  0 
 6.496950e-14  5.856407e-13  0 
 3.820602e-14  7.069105e-13  0 
 3.200210e-13  9.323056e-13  0 
 1.069481e-12  7.808499e-13  0 
 3.441998e-13  1.793408e-13  0 
 1.187501e-12  -8.406379e-14  0 
 1.972997e-12  3.546003e-14  0 
 1.556306e-13  -3.042784e-13  0 
 1.892967e-13  -3.592402e-13  0 
 1.856033e-13  -3.351441e-13  0 
 4.265623e-13  -4.396138e-13  0 
 3.695910e-13  -3.866869e-13  0 
 2.701411e-13  -3.239711e-13  0 
 9.766009e-13  -2.979328e-13  0 
 7.017880e-13  -3.327131e-13  0 
 4.312947e-13  -2.474308e-13  0 
 1.164733e-13  -2.851370e-13  0 
 7.774009e-14  -2.832332e-13  0 
 3.781261e-14  -2.771916e-13  0 
 1.070217e-13  -2.093192e-13  0 
 6.999717e-14  -2.077174e-13  0 
 3.303013e-14  -2.064807e-13  0 
 1.136713e-13  -1.286761e-13  0 
 6.989158e-14  -1.215531e-13  0 
 1.949152e-14  -1.181948e-13  0 
 -6.187976e-14  1.668092e-14  0 
 -1.098209e-13  2.302636e-13  0 
 -7.848448e-14  4.454289e-13  0 
 -3.522918e-14  2.790142e-14  0 
 -3.240601e-14  2.476369e-13  0 
 -5.333011e-14  4.675866e-13  0 
 -1.712318e-13  -3.972195e-14  0 
 -2.567945e-13  2.650395e-13  0 
 -1.892228e-13  5.682316e-13  0 
 -1.118173e-14  7.408629e-13  0 
 1.320825e-14  7.463577e-13  0 
 3.826095e-14  7.480256e-13  0 
 -1.579111e-14  7.022716e-13  0 
 8.410052e-15  7.032613e-13  0 
 3.249367e-14  7.040868e-13  0 
 -2.841583e-14  6.456555e-13  0 
 9.158161e-15  6.489855e-13  0 
 4.021040e-14  6.559925e-13  0 
 1.198468e-13  7.646872e-13  0 
 1.466263e-13  7.856693e-13  0 
 1.192016e-13  7.403231e-13  0 
 1.833206e-13  8.063851e-13  0 
 2.766460e-13  8.612541e-13  0 
 3.251738e-13  9.112945e-13  0 
 3.359981e-13  7.690950e-13  0 
 5.957316e-13  8.533061e-13  0 
 8.572359e-13  8.183550e-13  0 
VECTORS displacement_ITER2 FLOAT
 -2.968876e-13  3.712369e-13  0 
 2.671620e-12  1.571425e-12  0 
 -3.091345e-13  3.296793e-13  0 
 -2.210092e-13  4.182717e-13  0 
 -1.282564e-13  -3.416670e-13  0 
 -1.015394e-13  -2.640646e-13  0 
 -4.179528e-13  -1.804957e-13  0 
 1.120367e-13  1.113651e-12  0 
 -7.620084e-13  9.853871e-13  0 
 -6.729601e-13  -1.155348e-12  0 
 2.962323e-13  -1.281670e-12  0 
 2.940683e-12  -1.750718e-12  0 
 1.717174e-13  -6.549624e-14  0 
 4.794556e-13  3.016724e-13  0 
 1.157413e-12  3.564229e-13  0 
 1.424461e-13  -4.208819e-14  0 
 -2.638079e-13  -5.550780e-13  0 
 -8.243600e-13  -1.923045e-13  0 
 -2.878587e-13  3.302324e-13  0 
 -2.739795e-13  3.407130e-13  0 
 -2.554293e-13  3.704050e-13  0 
 1.143372e-12  9.393845e-13  0 
 1.710379e-12  -2.674678e-14  0 
 1.124352e-12  -9.391720e-13  0 
 -1.321816e-13  -2.814841e-13  0 
 -1.231316e-13  -2.606644e-13  0 
 -1.027460e-13  -2.540291e-13  0 
 -7.181589e-13  -1.097302e-13  0 
 -4.940596e-13  2.982525e-13  0 
 -2.133878e-13  6.909881e-14  0 
 -2.564046e-13  2.829617e-13  0 
 -1.266234e-13  3.591628e-13  0 
 3.276970e-14  6.255154e-13  0 
 1.744340e-12  1.112218e-12  0 
 1.825941e-12  5.946757e-13  0 
 1.861362e-12  1.106702e-12  0 
 -2.522624e-13  2.778250e-13  0 
 -3.995213e-13  3.599151e-13  0 
 -5.378677e-13  5.907681e-13  0 
 -1.350918e-13  1.132084e-12  0 
 -2.870010e-13  1.128420e-12  0 
 -4.509244e-13  1.036241e-12  0 
 -1.610620e-13  -2.652682e-13  0 
 -3.069664e-13  -4.090797e-13  0 
 -4.486482e-13  -6.980208e-13  0 
 -5.916663e-13  -5.540741e-13  0 
 -4.447803e-14  -1.019481e-13  0 
 -5.569258e-13  3.492322e-13  0 
 -6.311457e-14  -2.709198e-13  0 
 5.899600e-14  -4.055034e-13  0 
 2.178349e-13  -7.312014e-13  0 
 -3.414049e-13  -1.203323e-12  0 
 -1.506878e-13  -1.290346e-12  0 
 2.901365e-14  -1.296932e-12  0 
 1.635852e-13  -1.948529e-14  0 
 6.490636e-13  -3.102902e-13  0 
 1.423318e-12  -4.365680e-13  0 
 2.067649e-12  -1.290080e-12  0 
 2.053659e-12  -7.693680e-13  0 
 1.980941e-12  -1.280751e-12  0 
 5.089387e-14  6.281882e-14  0 
 -3.509738e-14  2.452887e-13  0 
 -1.124849e-13  2.155275e-13  0 
 3.702261e-13  2.590196e-13  0 
 2.188556e-13  2.205797e-13  0 
 6.392208e-14  3.208439e-13  0 
 1.028930e-12  4.966587e-13  0 
 7.269512e-13  6.507601e-13  0 
 2.974855e-13  4.944328e-13  0 
 -2.591352e-13  2.908289e-13  0 
 -2.671762e-13  2.957417e-13  0 
 -2.701861e-13  2.930899e-13  0 
 -1.976863e-13  3.577605e-13  0 
 -2.650717e-13  3.575969e-13  0 
 -3.287373e-13  3.583706e-13  0 
 -1.211075e-13  6.291894e-13  0 
 -2.851968e-13  6.215432e-13  0 
 -4.357249e-13  6.082576e-13  0 
 -1.140438e-13  -8.767280e-14  0 
 2.524598e-14  9.879212e-15  0 
 -6.712880e-14  9.812195e-14  0 
 -4.404142e-13  1.657334e-13  0 
 -4.891942e-13  -2.450698e-14  0 
 -3.941487e-13  -2.139201e-13  0 
 -5.049906e-13  4.728829e-13  0 
 -4.680454e-13  -5.760919e-14  0 
 -4.565778e-13  -5.832535e-13  0 
 -1.518166e-13  -2.828165e-13  0 
 -1.209569e-13  -2.843435e-13  0 
 -8.903950e-14  -2.801240e-13  0 
 -2.126386e-13  -4.070999e-13  0 
 -1.254227e-13  -4.060815e-13  0 
 -3.430022e-14  -4.049756e-13  0 
 -3.211291e-13  -7.151236e-13  0 
 -1.474866e-13  -7.281662e-13  0 
 3.908478e-14  -7.352752e-13  0 
 9.978014e-15  -1.500207e-13  0 
 2.032682e-14  -2.040781e-13  0 
 6.746385e-14  -1.018374e-13  0 
 2.418191e-13  -3.497585e-13  0 
 3.986211e-13  -2.393668e-13  0 
 5.463338e-13  -2.706173e-13  0 
 4.925657e-13  -5.886384e-13  0 
 9.363708e-13  -7.405845e-13  0 
 1.261752e-12  -5.820057e-13  0 
VECTORS displacement_ITER3 FLOAT
 9.829405e-14  -2.019809e-13  0 
 -1.049732e-12  -1.069819e-12  0 
 4.402434e-14  1.522866e-13  0 
 2.934042e-13  1.849656e-13  0 
 2.274484e-13  -4.912023e-13  0 
 -3.696793e-14  -4.554045e-13  0 
 -5.096461e-15  -2.060375e-13  0 
 5.493794e-14  -3.047804e-13  0 
 2.762010e-13  -5.309999e-13  0 
 2.118086e-13  2.720361e-13  0 
 -1.575510e-14  3.961489e-14  0 
 -1.149302e-12  8.839151e-13  0 
 -1.584107e-13  1.691174e-13  0 
 -2.435044e-13  -7.544273e-14  0 
 -4.596293e-13  -1.040710e-13  0 
 -2.716955e-13  1.047241e-13  0 
 5.395222e-14  4.000120e-13  0 
 3.424780e-13  5.872557e-14  0 
 9.479717e-14  1.625387e-13  0 
 1.535709e-13  1.689319e-13  0 
 2.143088e-13  1.745130e-13  0 
 -3.069147e-13  -1.090435e-12  0 
 -1.111644e-12  -1.887938e-13  0 
 -3.259948e-13  6.978126e-13  0 
 1.452188e-13  -4.744942e-13  0 
 8.283133e-14  -4.668370e-13  0 
 2.109956e-14  -4.625238e-13  0 
 1.589580e-13  3.957835e-14  0 
 2.221414e-13  -2.250267e-13  0 
 -4.993569e-15  -2.796525e-13  0 
 4.808826e-14  3.593433e-14  0 
 3.495675e-14  -1.087519e-13  0 
 4.942774e-14  -2.530165e-13  0 
 -3.828402e-13  -6.799999e-13  0 
 -4.498238e-13  -3.542384e-13  0 
 -3.285865e-13  -8.067195e-13  0 
 2.577940e-13  1.925987e-14  0 
 2.565410e-13  -9.738925e-14  0 
 2.931648e-13  -2.189615e-13  0 
 1.211628e-13  -3.516501e-13  0 
 1.249751e-13  -4.122224e-13  0 
 1.688508e-13  -4.218296e-13  0 
 1.986967e-13  -3.079522e-13  0 
 1.976665e-13  -1.796253e-13  0 
 2.329920e-13  -4.789290e-14  0 
 1.900691e-12  -3.501553e-13  0 
 1.842432e-12  -6.406920e-14  0 
 1.844331e-12  1.918330e-13  0 
 -3.151141e-14  -3.179928e-13  0 
 -3.807746e-14  -1.677533e-13  0 
 -2.155950e-14  -1.643521e-14  0 
 1.062807e-13  1.603745e-13  0 
 5.891577e-14  1.454459e-13  0 
 4.974824e-14  8.541704e-14  0 
 -4.469960e-14  -2.370211e-13  0 
 -2.154222e-13  -2.042693e-13  0 
 -5.163045e-13  -1.959622e-13  0 
 -3.621903e-13  5.321855e-13  0 
 -4.646482e-13  9.905953e-14  0 
 -4.080390e-13  4.671871e-13  0 
 -7.897364e-14  7.183363e-14  0 
 -5.650148e-14  -2.505101e-14  0 
 -3.551829e-14  7.337047e-14  0 
 -1.876195e-13  -3.904780e-14  0 
 -1.162485e-13  -1.671532e-14  0 
 -3.996565e-14  -9.477193e-14  0 
 -3.720517e-13  -2.158088e-13  0 
 -2.104193e-13  -3.050028e-13  0 
 -6.020339e-14  -1.643699e-13  0 
 9.942587e-14  3.195565e-14  0 
 1.537546e-13  2.887279e-14  0 
 2.075009e-13  2.438903e-14  0 
 9.865920e-14  -1.068599e-13  0 
 1.546550e-13  -1.023886e-13  0 
 2.105062e-13  -9.597750e-14  0 
 8.419558e-14  -2.512457e-13  0 
 1.462047e-13  -2.493452e-13  0 
 2.121810e-13  -2.495072e-13  0 
 1.223219e-13  1.914917e-13  0 
 8.197057e-14  -1.519355e-13  0 
 8.566585e-14  -4.823094e-13  0 
 3.090768e-13  -1.435615e-13  0 
 2.926947e-13  -1.381508e-13  0 
 2.801043e-13  -1.349035e-13  0 
 3.758154e-13  -7.147806e-14  0 
 5.474626e-13  -1.313947e-13  0 
 3.406386e-13  -1.924502e-13  0 
 1.425132e-13  -3.135317e-13  0 
 8.424214e-14  -3.169120e-13  0 
 2.529442e-14  -3.175178e-13  0 
 1.471739e-13  -1.805462e-13  0 
 8.693872e-14  -1.737686e-13  0 
 2.739103e-14  -1.690794e-13  0 
 1.474690e-13  -1.838105e-14  0 
 7.909948e-14  -1.924103e-14  0 
 1.578398e-14  -1.818917e-14  0 
 -6.068402e-14  -3.610880e-13  0 
 -4.373161e-14  -2.355901e-13  0 
 -2.241376e-14  -2.113023e-13  0 
 -1.001717e-13  -1.795358e-13  0 
 -1.634884e-13  -2.495237e-13  0 
 -2.078242e-13  -2.347415e-13  0 
 -1.183041e-13  -1.025512e-13  0 
 -2.557011e-13  2.871683e-14  0 
 -4.171729e-13  -7.514764e-14  0 
VECTORS displacement_ITER4 FLOAT
 5.283964e-15  9.273554e-14  0 
 -4.308793e-13  -6.070261e-13  0 
 -6.613437e-14  -4.410969e-14  0 
 2.638485e-14  -2.372871e-14  0 
 9.878172e-14  -1.285728e-14  0 
 -6.078287e-15  6.570786e-16  0 
 1.159790e-13  7.678049e-14  0 
 -8.199429e-15  -2.696424e-13  0 
 3.250386e-14  -3.096787e-13  0 
 1.065950e-13  2.935096e-13  0 
 4.930508e-14  2.615417e-13  0 
 -3.559254e-13  4.622828e-13  0 
 -9.821177e-14  -9.238358e-14  0 
 -2.711765e-13  -1.245415e-13  0 
 -4.539656e-13  -4.030891e-13  0 
 1.431689e-13  -3.855122e-14  0 
 5.034905e-15  -1.039731e-13  0 
 1.654731e-14  3.814671e-14  0 
 -4.434779e-14  -4.208885e-14  0 
 -2.449809e-14  -3.717590e-14  0 
 -5.338417e-16  -3.211861e-14  0 
 -2.449472e-13  4.430274e-13  0 
 3.328524e-13  1.352377e-13  0 
 -1.276607e-13  -2.526703e-13  0 
 6.402805e-14  -1.471585e-14  0 
 3.812429e-14  -6.379383e-15  0 
 1.196362e-14  -2.400412e-15  0 
 1.804157e-13  -2.175321e-13  0 
 -7.035751e-14  -1.890688e-13  0 
 -3.470369e-14  1.228006e-14  0 
 -7.018881e-14  -9.660604e-14  0 
 -7.615063e-14  -1.684572e-13  0 
 -6.414077e-14  -2.520185e-13  0 
 -4.419250e-13  -7.209732e-13  0 
 -2.883348e-13  -7.185390e-13  0 
 -3.843240e-13  -5.685446e-13  0 
 3.188212e-14  -9.433360e-14  0 
 3.694853e-14  -1.703769e-13  0 
 2.943203e-14  -2.296124e-13  0 
 -2.436407e-14  -2.908741e-13  0 
 -1.201937e-14  -2.905929e-13  0 
 -6.353973e-15  -2.991321e-13  0 
 9.939826e-14  6.137155e-14  0 
 1.019897e-13  1.416016e-13  0 
 9.739794e-14  2.046778e-13  0 
 -5.450834e-13  8.139251e-13  0 
 -9.748283e-13  -1.164296e-13  0 
 -4.388181e-13  -9.746997e-13  0 
 -1.432287e-14  5.662622e-14  0 
 -2.161513e-14  1.388959e-13  0 
 -1.050194e-14  2.316986e-13  0 
 6.078674e-14  2.842788e-13  0 
 5.023032e-14  2.793491e-13  0 
 3.596045e-14  2.821490e-13  0 
 -1.389397e-13  -6.442449e-14  0 
 -2.989989e-13  1.033694e-13  0 
 -4.510814e-13  4.318985e-13  0 
 -3.891970e-13  6.426909e-13  0 
 -3.689761e-13  7.439669e-13  0 
 -5.043081e-13  6.341775e-13  0 
 -1.000188e-13  -5.368779e-14  0 
 -7.879568e-14  -4.111006e-14  0 
 -8.632336e-14  -8.636704e-14  0 
 -2.098846e-13  -1.396910e-13  0 
 -1.482017e-13  -1.429363e-13  0 
 -1.117950e-13  -1.501831e-13  0 
 -3.232171e-13  -3.603332e-13  0 
 -2.279035e-13  -3.246847e-13  0 
 -7.754084e-14  -2.723550e-13  0 
 -4.659583e-14  -9.715870e-14  0 
 -2.122759e-14  -9.744636e-14  0 
 4.703528e-15  -9.641296e-14  0 
 -4.544356e-14  -1.699851e-13  0 
 -1.708578e-14  -1.695655e-13  0 
 9.529586e-15  -1.694474e-13  0 
 -3.692829e-14  -2.446856e-13  0 
 -1.578303e-14  -2.419329e-13  0 
 8.809020e-15  -2.364627e-13  0 
 1.371812e-13  -1.215813e-13  0 
 8.247429e-14  -1.321217e-14  0 
 1.792802e-13  9.576260e-14  0 
 6.536328e-14  -6.154093e-14  0 
 1.296793e-13  -1.478941e-14  0 
 9.655322e-14  3.314210e-14  0 
 -6.778581e-14  -3.531857e-13  0 
 -1.392854e-13  -1.093235e-14  0 
 -2.962839e-14  3.245134e-13  0 
 7.023838e-14  6.334835e-14  0 
 4.037836e-14  6.141075e-14  0 
 1.304828e-14  5.933948e-14  0 
 7.353438e-14  1.402229e-13  0 
 4.494700e-14  1.401821e-13  0 
 1.306643e-14  1.401816e-13  0 
 7.473636e-14  2.130599e-13  0 
 4.703434e-14  2.199760e-13  0 
 2.159224e-14  2.239589e-13  0 
 -6.872899e-14  5.064846e-14  0 
 -7.636554e-14  2.329917e-14  0 
 -1.150522e-13  -4.603770e-14  0 
 -7.141314e-14  1.229001e-13  0 
 -1.177535e-13  1.066782e-13  0 
 -1.981241e-13  1.117936e-13  0 
 -4.879217e-14  2.370003e-13  0 
 -2.219766e-13  3.070504e-13  0 
 -3.246648e-13  3.733075e-13  0 
VECTORS displacement_ITER5 FLOAT
 1.746411e-13  -8.741330e-13  0 
 6.436830e-12  6.469661e-13  0 
 5.398091e-13  -9.415315e-13  0 
 1.220543e-13  -1.022746e-12  0 
 -1.719868e-13  2.136232e-12  0 
 9.647797e-14  2.087825e-12  0 
 3.185167e-13  1.398439e-12  0 
 5.963345e-13  -4.612936e-13  0 
 -4.572810e-14  -9.204254e-14  0 
 -3.421951e-13  1.504179e-12  0 
 1.929855e-13  1.854524e-12  0 
 5.889374e-12  1.075759e-12  0 
 8.872106e-14  -6.342483e-13  0 
 9.720124e-13  -1.340062e-12  0 
 2.976268e-12  -9.398935e-13  0 
 -2.979419e-13  -3.279333e-13  0 
 2.240407e-13  3.071621e-13  0 
 8.329571e-13  3.482874e-15  0 
 4.383796e-13  -9.653379e-13  0 
 3.437884e-13  -9.805835e-13  0 
 2.453254e-13  -9.968307e-13  0 
 -8.472932e-13  -7.373400e-13  0 
 -1.702531e-12  3.159591e-13  0 
 -1.155290e-12  1.555287e-12  0 
 -8.041464e-14  2.095947e-12  0 
 -2.240280e-14  2.088899e-12  0 
 2.872421e-14  2.087208e-12  0 
 5.866444e-13  1.616373e-12  0 
 6.562093e-13  1.341764e-12  0 
 4.756045e-13  1.301113e-12  0 
 4.499785e-13  -7.895301e-13  0 
 4.139816e-13  -6.904181e-13  0 
 4.195741e-13  -5.857551e-13  0 
 5.324886e-12  1.034392e-12  0 
 3.156288e-12  1.346143e-12  0 
 9.864020e-13  8.074672e-13  0 
 1.786965e-13  -7.458800e-13  0 
 2.180483e-13  -6.532584e-13  0 
 9.588934e-14  -5.611237e-13  0 
 4.263493e-13  -4.253275e-13  0 
 2.711777e-13  -3.799041e-13  0 
 1.021807e-13  -2.590083e-13  0 
 -1.098755e-13  1.931122e-12  0 
 -6.589876e-14  1.918801e-12  0 
 -1.890363e-13  1.901889e-12  0 
 -2.016044e-12  2.557836e-13  0 
 -1.861217e-12  9.642146e-13  0 
 -2.326119e-12  1.490604e-12  0 
 4.385638e-14  1.983335e-12  0 
 1.715742e-14  1.951836e-12  0 
 2.498626e-14  1.913869e-12  0 
 -2.135262e-13  1.667114e-12  0 
 -7.087659e-14  1.777018e-12  0 
 5.047482e-14  1.817664e-12  0 
 6.956096e-14  1.996994e-12  0 
 7.188419e-13  2.512253e-12  0 
 2.599315e-12  2.095907e-12  0 
 6.615727e-13  3.371026e-13  0 
 3.047807e-12  -1.093760e-13  0 
 5.177381e-12  5.081681e-13  0 
 3.267471e-13  -7.890650e-13  0 
 4.392103e-13  -9.696370e-13  0 
 4.999234e-13  -9.156782e-13  0 
 1.017652e-12  -1.271842e-12  0 
 9.200372e-13  -1.140462e-12  0 
 7.006424e-13  -9.807075e-13  0 
 2.422445e-12  -1.049570e-12  0 
 1.774710e-12  -1.114564e-12  0 
 1.112780e-12  -8.999248e-13  0 
 3.951088e-13  -7.880913e-13  0 
 3.276224e-13  -7.840956e-13  0 
 2.562217e-13  -7.704567e-13  0 
 3.615000e-13  -6.805088e-13  0 
 3.061589e-13  -6.752388e-13  0 
 2.491301e-13  -6.687703e-13  0 
 3.734118e-13  -5.831397e-13  0 
 3.019839e-13  -5.623758e-13  0 
 2.171898e-13  -5.494064e-13  0 
 -5.147461e-14  6.991150e-14  0 
 -1.685227e-13  5.979822e-13  0 
 -2.037609e-13  1.104092e-12  0 
 7.607089e-14  -3.365001e-14  0 
 4.179556e-14  6.320257e-13  0 
 -6.243277e-14  1.298898e-12  0 
 -4.930325e-14  1.020701e-14  0 
 -3.806298e-13  6.679918e-13  0 
 -2.025803e-13  1.342862e-12  0 
 -6.592802e-14  1.962645e-12  0 
 -2.769127e-14  1.979233e-12  0 
 1.109858e-14  1.985158e-12  0 
 -6.694179e-14  1.933590e-12  0 
 -3.869574e-14  1.939552e-12  0 
 -1.001061e-14  1.943066e-12  0 
 -9.916697e-14  1.886497e-12  0 
 -4.261199e-14  1.895747e-12  0 
 3.868645e-15  1.913383e-12  0 
 2.539129e-13  1.999885e-12  0 
 3.311653e-13  2.034095e-12  0 
 2.768362e-13  2.028437e-12  0 
 3.478759e-13  2.198683e-12  0 
 5.782001e-13  2.344854e-12  0 
 7.062468e-13  2.456529e-12  0 
 7.674968e-13  2.248751e-12  0 
 1.458557e-12  2.415555e-12  0 
 2.091980e-12  2.257112e-12  0 
VECTORS displacement_ITER6 FLOAT
 -3.956383e-13  2.961797e-13  0 
 6.688336e-12  2.391438e-12  0 
 -3.257877e-13  -7.032714e-16  0 
 -4.483878e-13  1.008877e-13  0 
 -1.762080e-13  5.929558e-13  0 
 -7.735199e-15  6.776035e-13  0 
 -3.910939e-13  7.380249e-13  0 
 3.778610e-13  1.519579e-12  0 
 -1.369364e-12  1.589552e-12  0 
 -1.099661e-12  -1.017432e-12  0 
 6.770177e-13  -9.272666e-13  0 
 7.045747e-12  -2.158369e-12  0 
 3.295939e-13  -4.877572e-13  0 
 1.144096e-12  -1.304822e-13  0 
 2.958019e-12  1.339856e-13  0 
 2.569003e-13  -2.154796e-13  0 
 -1.779844e-13  -8.732589e-13  0 
 -9.295202e-13  -5.117711e-13  0 
 -3.535989e-13  -9.983799e-15  0 
 -3.890485e-13  5.674954e-16  0 
 -4.204140e-13  3.903802e-14  0 
 1.207890e-12  1.407884e-12  0 
 1.927499e-12  4.979699e-13  0 
 1.443227e-12  -5.372668e-13  0 
 -1.353762e-13  6.636946e-13  0 
 -9.612981e-14  6.884862e-13  0 
 -4.221656e-14  6.957861e-13  0 
 -7.355880e-13  3.644603e-13  0 
 -6.808033e-13  7.496686e-13  0 
 -4.703461e-13  7.953215e-13  0 
 -2.902003e-13  2.663340e-14  0 
 -1.046744e-13  2.115531e-13  0 
 1.543793e-13  6.973817e-13  0 
 4.941683e-12  1.907669e-12  0 
 4.171862e-12  1.400674e-12  0 
 3.338769e-12  2.065217e-12  0 
 -4.459553e-13  4.784166e-14  0 
 -6.493458e-13  2.235732e-13  0 
 -9.484062e-13  6.449528e-13  0 
 -8.931498e-14  1.583682e-12  0 
 -4.285766e-13  1.601285e-12  0 
 -7.903699e-13  1.551935e-12  0 
 -1.901095e-13  6.168522e-13  0 
 -3.986503e-13  4.059550e-13  0 
 -6.937816e-13  -4.812558e-14  0 
 -2.631109e-12  -3.478828e-13  0 
 -2.408637e-12  1.589298e-14  0 
 -2.336932e-12  5.648959e-13  0 
 1.562662e-14  6.271119e-13  0 
 1.899514e-13  4.191228e-13  0 
 4.463338e-13  -8.812104e-14  0 
 -5.212061e-13  -9.758184e-13  0 
 -1.515934e-13  -1.013356e-12  0 
 2.030326e-13  -9.914504e-13  0 
 1.347692e-13  7.693701e-13  0 
 1.149684e-12  7.971095e-13  0 
 3.109605e-12  6.684501e-13  0 
 3.543603e-12  -1.206621e-12  0 
 4.097422e-12  -6.060504e-13  0 
 4.861202e-12  -1.462630e-12  0 
 2.308246e-13  -3.268588e-13  0 
 1.303732e-13  -8.699655e-14  0 
 1.040516e-15  -1.003277e-13  0 
 9.661000e-13  -1.718980e-13  0 
 6.722870e-13  -1.815005e-13  0 
 3.328539e-13  3.564960e-14  0 
 2.564495e-12  2.953378e-13  0 
 1.849619e-12  4.886316e-13  0 
 8.785482e-13  3.361510e-13  0 
 -3.302250e-13  3.945770e-14  0 
 -3.842318e-13  5.025839e-14  0 
 -4.312318e-13  5.599325e-14  0 
 -2.481708e-13  2.138580e-13  0 
 -3.885608e-13  2.134533e-13  0 
 -5.228032e-13  2.147576e-13  0 
 -1.162573e-13  7.006543e-13  0 
 -4.138219e-13  7.012724e-13  0 
 -7.036399e-13  6.844534e-13  0 
 -2.743996e-13  -1.162117e-13  0 
 -3.703179e-14  3.268774e-13  0 
 -1.404989e-13  7.864419e-13  0 
 -7.110204e-13  2.758418e-13  0 
 -7.522243e-13  3.152554e-13  0 
 -5.889178e-13  3.543186e-13  0 
 -1.057648e-12  5.929710e-13  0 
 -1.049627e-12  3.005021e-13  0 
 -9.176341e-13  -7.901458e-15  0 
 -1.601035e-13  6.044357e-13  0 
 -9.823409e-14  6.091705e-13  0 
 -3.458525e-14  6.161840e-13  0 
 -2.572430e-13  4.148648e-13  0 
 -1.111111e-13  4.158474e-13  0 
 3.958553e-14  4.160976e-13  0 
 -4.351700e-13  -8.376145e-14  0 
 -1.352402e-13  -9.700962e-14  0 
 1.686960e-13  -9.319272e-14  0 
 1.489435e-13  8.175396e-13  0 
 1.259003e-13  7.290912e-13  0 
 1.299957e-13  7.444873e-13  0 
 5.720499e-13  6.088681e-13  0 
 8.737598e-13  8.307953e-13  0 
 1.090547e-12  8.306475e-13  0 
 1.092548e-12  2.497233e-13  0 
 2.004252e-12  1.400974e-13  0 
 2.703309e-12  4.439693e-13  0 
VECTORS displacement_ITER7 FLOAT
 -4.717681e-14  -4.572657e-13  0 
 3.581224e-12  1.097266e-13  0 
 5.164337e-14  1.085330e-13  0 
 3.641198e-13  2.083454e-13  0 
 9.059355e-14  -2.068790e-14  0 
 -1.993552e-13  9.847062e-14  0 
 -2.600695e-13  1.891675e-13  0 
 5.596116e-13  2.505253e-13  0 
 -3.191022e-13  5.348048e-14  0 
 -6.156319e-13  7.885339e-14  0 
 3.220412e-13  -1.486106e-13  0 
 3.377262e-12  5.613944e-13  0 
 -1.152297e-13  -6.827887e-14  0 
 4.254286e-13  -4.878999e-13  0 
 1.584086e-12  -3.829261e-13  0 
 -5.512124e-13  -9.966333e-14  0 
 -2.278625e-13  3.302386e-13  0 
 2.035496e-13  -1.567321e-14  0 
 1.117371e-13  1.122184e-13  0 
 1.837360e-13  1.253374e-13  0 
 2.597362e-13  1.529654e-13  0 
 2.747212e-13  -1.196446e-12  0 
 -6.287857e-13  -2.455397e-13  0 
 -4.637512e-14  9.164961e-13  0 
 -5.254505e-15  5.050475e-14  0 
 -7.105617e-14  8.153152e-14  0 
 -1.360875e-13  9.488883e-14  0 
 -1.345446e-13  9.984734e-13  0 
 2.211281e-13  7.279474e-13  0 
 8.741574e-14  3.574207e-13  0 
 5.751226e-14  -8.007864e-14  0 
 1.498860e-13  -2.208302e-13  0 
 3.472657e-13  -1.651081e-13  0 
 3.139140e-12  3.571333e-13  0 
 2.250750e-12  4.250370e-13  0 
 1.709481e-12  -3.268962e-13  0 
 3.168712e-13  -9.148367e-14  0 
 1.855978e-13  -1.915711e-13  0 
 2.595041e-14  -1.323723e-13  0 
 3.492360e-13  2.285669e-13  0 
 1.071129e-13  1.708462e-13  0 
 -8.639134e-14  1.680501e-13  0 
 5.609978e-14  2.754836e-13  0 
 -7.243087e-14  3.659383e-13  0 
 -2.459487e-13  2.954910e-13  0 
 1.369313e-12  -1.890313e-13  0 
 7.520636e-13  4.839286e-13  0 
 9.506393e-13  8.640678e-13  0 
 -1.814799e-13  2.823745e-13  0 
 -7.795381e-14  3.974620e-13  0 
 1.233270e-13  3.101398e-13  0 
 -3.587453e-13  -3.978780e-14  0 
 -1.482125e-13  -5.548847e-14  0 
 1.004804e-13  -1.223637e-13  0 
 1.104142e-13  7.018505e-13  0 
 5.969158e-13  6.543365e-13  0 
 1.687268e-12  2.454138e-13  0 
 1.651349e-12  -3.487560e-14  0 
 2.679788e-12  -6.946143e-13  0 
 3.616186e-12  -3.520070e-14  0 
 1.303353e-14  -1.772949e-13  0 
 4.750854e-14  -2.956279e-13  0 
 3.919159e-14  -1.506348e-13  0 
 4.660755e-13  -4.467942e-13  0 
 4.207841e-13  -3.806996e-13  0 
 3.179847e-13  -3.547322e-13  0 
 1.372745e-12  -4.457308e-13  0 
 1.070970e-12  -4.528275e-13  0 
 6.662845e-13  -2.277214e-13  0 
 1.233998e-13  -7.878470e-14  0 
 1.813091e-13  -7.769287e-14  0 
 2.417471e-13  -7.988634e-14  0 
 1.686468e-13  -2.152827e-13  0 
 1.753143e-13  -2.084641e-13  0 
 1.846701e-13  -1.972694e-13  0 
 2.401199e-13  -1.595218e-13  0 
 1.519811e-13  -1.518346e-13  0 
 6.609094e-14  -1.586061e-13  0 
 1.318094e-13  2.217417e-13  0 
 6.807883e-14  8.784236e-14  0 
 -1.656777e-14  -5.655521e-14  0 
 1.427534e-13  -8.132370e-14  0 
 2.309678e-14  8.665692e-14  0 
 1.832624e-14  2.519703e-13  0 
 -7.106331e-14  1.500814e-13  0 
 1.265739e-13  7.345326e-14  0 
 -2.227018e-13  2.741810e-14  0 
 -1.597998e-14  2.653285e-13  0 
 -7.082576e-14  2.682940e-13  0 
 -1.227238e-13  2.753507e-13  0 
 -7.138817e-14  3.727968e-13  0 
 -7.493118e-14  3.847242e-13  0 
 -7.211294e-14  3.922509e-13  0 
 -1.992640e-13  3.159846e-13  0 
 -1.033109e-13  3.038040e-13  0 
 -4.462977e-16  3.067687e-13  0 
 -4.008178e-14  3.134684e-13  0 
 8.229245e-14  5.133601e-13  0 
 1.455571e-13  6.546287e-13  0 
 1.605891e-13  5.313291e-13  0 
 3.197583e-13  5.648077e-13  0 
 4.666624e-13  6.205901e-13  0 
 5.775432e-13  4.271394e-13  0 
 1.096573e-12  5.933704e-13  0 
 1.452723e-12  4.097477e-13  0 
VECTORS displacement_ITER8 FLOAT
 -1.394252e-13  2.675176e-14  0 
 4.564808e-12  -4.093612e-13  0 
 -1.496183e-13  -3.952511e-13  0 
 -5.793505e-14  -2.801355e-13  0 
 4.062238e-13  7.662204e-13  0 
 1.513078e-13  8.470166e-13  0 
 1.919258e-13  1.283787e-12  0 
 4.659676e-13  7.855656e-14  0 
 -7.660349e-13  -1.894572e-14  0 
 -2.826053e-13  8.322832e-13  0 
 7.798880e-13  7.834764e-13  0 
 4.753485e-12  2.424590e-13  0 
 1.654703e-14  -7.384607e-13  0 
 5.284477e-13  -8.834635e-13  0 
 1.901681e-12  -7.872084e-13  0 
 3.096282e-13  -2.254473e-13  0 
 2.089811e-13  -4.954998e-13  0 
 1.858105e-13  -4.121180e-13  0 
 -1.354538e-13  -3.953166e-13  0 
 -1.204397e-13  -3.762388e-13  0 
 -9.628433e-14  -3.430236e-13  0 
 -8.301278e-13  5.878920e-13  0 
 1.909515e-13  9.609415e-13  0 
 -1.489636e-13  8.561512e-13  0 
 3.124628e-13  8.035362e-13  0 
 2.509413e-13  8.398984e-13  0 
 1.908033e-13  8.504999e-13  0 
 5.461490e-13  2.427340e-13  0 
 -3.133157e-13  1.565352e-13  0 
 -4.577469e-13  8.785932e-13  0 
 -1.676209e-13  -4.819129e-13  0 
 -8.968243e-14  -5.608368e-13  0 
 1.202405e-13  -4.660491e-13  0 
 4.164197e-12  -2.313765e-13  0 
 3.230025e-12  2.393786e-13  0 
 1.312507e-12  1.322139e-13  0 
 -4.605135e-14  -4.543654e-13  0 