# vtk DataFile Version 3.1
this is an vtk file created by FEMAC
ASCII
DATASET UNSTRUCTURED_GRID
POINTS 105 FLOAT
7.500000 0.000000 0.000000
8.000000 0.000000 0.000000
7.500000 0.200000 0.000000
7.500000 0.400000 0.000000
7.500000 0.600000 0.000000
7.500000 0.800000 0.000000
7.500000 1.000000 0.000000
8.000000 0.200000 0.000000
8.000000 0.400000 0.000000
8.000000 0.600000 0.000000
8.000000 0.800000 0.000000
8.000000 1.000000 0.000000
7.625000 0.000000 0.000000
7.750000 0.000000 0.000000
7.875000 0.000000 0.000000
7.500000 0.050000 0.000000
7.500000 0.100000 0.000000
7.500000 0.150000 0.000000
7.500000 0.250000 0.000000
7.500000 0.300000 0.000000
7.500000 0.350000 0.000000
7.500000 0.450000 0.000000
7.500000 0.500000 0.000000
7.500000 0.550000 0.000000
7.500000 0.650000 0.000000
7.500000 0.700000 0.000000
7.500000 0.750000 0.000000
7.500000 0.850000 0.000000
7.500000 0.900000 0.000000
7.500000 0.950000 0.000000
7.625000 0.200000 0.000000
7.750000 0.200000 0.000000
7.875000 0.200000 0.000000
8.000000 0.050000 0.000000
8.000000 0.100000 0.000000
8.000000 0.150000 0.000000
7.625000 0.400000 0.000000
7.750000 0.400000 0.000000
7.875000 0.400000 0.000000
8.000000 0.250000 0.000000
8.000000 0.300000 0.000000
8.000000 0.350000 0.000000
7.625000 0.600000 0.000000
7.750000 0.600000 0.000000
7.875000 0.600000 0.000000
8.000000 0.450000 0.000000
8.000000 0.500000 0.000000
8.000000 0.550000 0.000000
7.625000 0.800000 0.000000
7.750000 0.800000 0.000000
7.875000 0.800000 0.000000
8.000000 0.650000 0.000000
8.000000 0.700000 0.000000
8.000000 0.750000 0.000000
7.625000 1.000000 0.000000
7.750000 1.000000 0.000000
7.875000 1.000000 0.000000
8.000000 0.850000 0.000000
8.000000 0.900000 0.000000
8.000000 0.950000 0.000000
7.625000 0.050000 0.000000
7.625000 0.100000 0.000000
7.625000 0.150000 0.000000
7.750000 0.050000 0.000000
7.750000 0.100000 0.000000
7.750000 0.150000 0.000000
7.875000 0.050000 0.000000
7.875000 0.100000 0.000000
7.875000 0.150000 0.000000
7.625000 0.250000 0.000000
7.625000 0.300000 0.000000
7.625000 0.350000 0.000000
7.750000 0.250000 0.000000
7.750000 0.300000 0.000000
7.750000 0.350000 0.000000
7.875000 0.250000 0.000000
7.875000 0.300000 0.000000
7.875000 0.350000 0.000000
7.625000 0.450000 0.000000
7.625000 0.500000 0.000000
7.625000 0.550000 0.000000
7.750000 0.450000 0.000000
7.750000 0.500000 0.000000
7.750000 0.550000 0.000000
7.875000 0.450000 0.000000
7.875000 0.500000 0.000000
7.875000 0.550000 0.000000
7.625000 0.650000 0.000000
7.625000 0.700000 0.000000
7.625000 0.750000 0.000000
7.750000 0.650000 0.000000
7.750000 0.700000 0.000000
7.750000 0.750000 0.000000
7.875000 0.650000 0.000000
7.875000 0.700000 0.000000
7.875000 0.750000 0.000000
7.625000 0.850000 0.000000
7.625000 0.900000 0.000000
7.625000 0.950000 0.000000
7.750000 0.850000 0.000000
7.750000 0.900000 0.000000
7.750000 0.950000 0.000000
7.875000 0.850000 0.000000
7.875000 0.900000 0.000000
7.875000 0.950000 0.000000
CELLS 80 400 
4 0 12 60 15
4 15 60 61 16
4 16 61 62 17
4 17 62 30  2
4 12 13 63 60
4 60 63 64 61
4 61 64 65 62
4 62 65 31 30
4 13 14 66 63
4 63 66 67 64
4 64 67 68 65
4 65 68 32 31
4 14  1 33 66
4 66 33 34 67
4 67 34 35 68
4 68 35  7 32
4 2 30 69 18
4 18 69 70 19
4 19 70 71 20
4 20 71 36  3
4 30 31 72 69
4 69 72 73 70
4 70 73 74 71
4 71 74 37 36
4 31 32 75 72
4 72 75 76 73
4 73 76 77 74
4 74 77 38 37
4 32  7 39 75
4 75 39 40 76
4 76 40 41 77
4 77 41  8 38
4 3 36 78 21
4 21 78 79 22
4 22 79 80 23
4 23 80 42  4
4 36 37 81 78
4 78 81 82 79
4 79 82 83 80
4 80 83 43 42
4 37 38 84 81
4 81 84 85 82
4 82 85 86 83
4 83 86 44 43
4 38  8 45 84
4 84 45 46 85
4 85 46 47 86
4 86 47  9 44
4 4 42 87 24
4 24 87 88 25
4 25 88 89 26
4 26 89 48  5
4 42 43 90 87
4 87 90 91 88
4 88 91 92 89
4 89 92 49 48
4 43 44 93 90
4 90 93 94 91
4 91 94 95 92
4 92 95 50 49
4 44  9 51 93
4 93 51 52 94
4 94 52 53 95
4 95 53 10 50
4 5 48 96 27
4 27 96 97 28
4 28 97 98 29
4 29 98 54  6
4 48 49 99 96
4 96  99 100  97
4 97 100 101  98
4 98 101  55  54
4 49  50 102  99
4 99 102 103 100
4 100 103 104 101
4 101 104  56  55
4 50  10  57 102
4 102  57  58 103
4 103  58  59 104
4 104  59  11  56
CELL_TYPES 80
9 9 9 9 9 9 9 9 9 9 9 9 9 9 9 9 9 9 9 9 9 9 9 9 9 9 9 9 9 9 9 9 9 9 9 9 9 9 9 9 9 9 9 9 9 9 9 9 9 9 9 9 9 9 9 9 9 9 9 9 9 9 9 9 9 9 9 9 9 9 9 9 9 9 9 9 9 9 9 9 
POINT_DATA 105
VECTORS displacement_ITER1 FLOAT
 -1.365284e-04  -4.064589e-04  0 
 6.015357e-03  3.104144e-03  0 
 1.502589e-04  -4.374016e-04  0 
 -3.097052e-04  -3.794245e-04  0 
 -3.095756e-04  3.796508e-04  0 
 1.502168e-04  4.376149e-04  0 
 -1.368233e-04  4.066892e-04  0 
 6.792341e-04  1.962398e-03  0 
 -9.904328e-04  1.923829e-03  0 
 -9.903699e-04  -1.923313e-03  0 
 6.792154e-04  -1.961877e-03  0 
 6.015232e-03  -3.103611e-03  0 
 6.908793e-04  -4.125898e-04  0 
 1.824327e-03  -8.508771e-05  0 
 3.642460e-03  1.013112e-03  0 
 -1.060152e-04  -4.096361e-04  0 
 -7.950686e-05  -4.685222e-04  0 
 -1.383151e-04  -4.816860e-04  0 
 3.388796e-05  -4.478203e-04  0 
 -9.171275e-05  -4.443451e-04  0 
 -2.109445e-04  -4.209177e-04  0 
 6.545249e-05  -3.354484e-04  0 
 -6.558087e-05  4.314791e-07  0 
 6.565663e-05  3.359498e-04  0 
 -2.108683e-04  4.211511e-04  0 
 -9.166911e-05  4.445822e-04  0 
 3.389011e-05  4.480528e-04  0 
 -1.386812e-04  4.819375e-04  0 
 -7.996185e-05  4.690717e-04  0 
 -1.060732e-04  4.101745e-04  0 
 1.965162e-04  -1.579081e-04  0 
 3.515682e-04  2.815955e-04  0 
 5.490361e-04  9.769157e-04  0 
 5.051962e-03  3.122910e-03  0 
 3.917031e-03  3.109451e-03  0 
 2.480332e-03  2.861048e-03  0 
 -3.812285e-04  -1.506671e-04  0 
 -5.611763e-04  2.792241e-04  0 
 -7.981741e-04  9.323405e-04  0 
 2.524544e-04  1.930586e-03  0 
 -1.380414e-04  1.912082e-03  0 
 -5.360148e-04  1.914266e-03  0 
 -3.811266e-04  1.510048e-04  0 
 -5.610977e-04  -2.788163e-04  0 
 -7.981076e-04  -9.318736e-04  0 
 -3.454627e-03  1.439410e-03  0 
 -4.272785e-03  2.201316e-07  0 
 -3.454589e-03  -1.438952e-03  0 
 1.964745e-04  1.582443e-04  0 
 3.515413e-04  -2.811861e-04  0 
 5.490157e-04  -9.764477e-04  0 
 -5.359710e-04  -1.913748e-03  0 
 -1.380179e-04  -1.911563e-03  0 
 2.524568e-04  -1.930065e-03  0 
 6.907572e-04  4.130493e-04  0 
 1.824189e-03  8.547201e-05  0 
 3.642330e-03  -1.012640e-03  0 
 2.480289e-03  -2.860521e-03  0 
 3.916959e-03  -3.108918e-03  0 
 5.051862e-03  -3.122375e-03  0 
 6.294385e-04  -4.049440e-04  0 
 5.267565e-04  -3.599971e-04  0 
 4.088621e-04  -2.993071e-04  0 
 1.520988e-03  -7.153891e-05  0 
 1.156315e-03  -1.763622e-05  0 
 7.702907e-04  1.186662e-04  0 
 2.928579e-03  9.810437e-04  0 
 2.111507e-03  8.954553e-04  0 
 1.248167e-03  8.154764e-04  0 
 5.389546e-05  -1.500919e-04  0 
 -9.885235e-05  -1.453051e-04  0 
 -2.483269e-04  -1.442923e-04  0 
 1.207416e-04  2.840936e-04  0 
 -1.124435e-04  2.842269e-04  0 
 -3.414243e-04  2.808011e-04  0 
 2.058829e-04  9.831842e-04  0 
 -1.292699e-04  9.788239e-04  0 
 -4.633681e-04  9.600062e-04  0 
 -5.128058e-04  -7.473504e-05  0 
 -5.161497e-04  1.490208e-07  0 
 -5.127327e-04  7.508997e-05  0 
 -7.343728e-04  1.566381e-04  0 
 -7.625811e-04  2.005864e-07  0 
 -7.343387e-04  -1.562444e-04  0 
 -1.197296e-03  2.121429e-04  0 
 -1.424736e-03  2.277695e-07  0 
 -1.197259e-03  -2.116823e-04  0 
 -2.482584e-04  1.446255e-04  0 
 -9.881984e-05  1.456355e-04  0 
 5.389340e-05  1.504228e-04  0 
 -3.413704e-04  -2.803924e-04  0 
 -1.124163e-04  -2.838176e-04  0 
 1.207407e-04  -2.836838e-04  0 
 -4.633224e-04  -9.595391e-04  0 
 -1.292459e-04  -9.783562e-04  0 
 2.058848e-04  -9.827163e-04  0 
 4.087610e-04  2.996975e-04  0 
 5.266342e-04  3.603295e-04  0 
 6.292630e-04  4.053034e-04  0 
 7.702339e-04  -1.182621e-04  0 
 1.156224e-03  1.805409e-05  0 
 1.520874e-03  7.194862e-05  0 
 1.248118e-03  -8.150063e-04  0 
 2.111432e-03  -8.949884e-04  0 
 2.928478e-03  -9.805766e-04  0 
VECTORS displacement_ITER2 FLOAT
 -1.057636e-04  -3.325692e-04  0 
 5.901705e-03  3.053591e-03  0 
 9.810056e-05  -2.624158e-04  0 
 -2.206796e-04  -1.680975e-04  0 
 -2.206298e-04  1.678228e-04  0 
 9.817308e-05  2.621486e-04  0 
 -1.056961e-04  3.323928e-04  0 
 6.493861e-04  1.899565e-03  0 
 -9.326148e-04  1.862048e-03  0 
 -9.325825e-04  -1.862410e-03  0 
 6.494615e-04  -1.899927e-03  0 
 5.901831e-03  -3.053961e-03  0 
 6.721040e-04  -3.325513e-04  0 
 1.749377e-03  -3.024139e-05  0 
 3.535468e-03  1.021948e-03  0 
 -8.112642e-05  -3.235906e-04  0 
 9.840079e-06  -3.102268e-04  0 
 1.321460e-04  -4.235543e-04  0 
 1.204141e-05  -2.672172e-04  0 
 -8.403136e-05  -2.552512e-04  0 
 -1.711217e-04  -2.238838e-04  0 
 -8.833084e-05  -1.117806e-04  0 
 9.266255e-05  -9.230087e-08  0 
 -8.831474e-05  1.115189e-04  0 
 -1.710768e-04  2.236141e-04  0 
 -8.398069e-05  2.549847e-04  0 
 1.210401e-05  2.669496e-04  0 
 1.323370e-04  4.233879e-04  0 
 1.004552e-05  3.100048e-04  0 
 -8.108332e-05  3.234143e-04  0 
 1.580605e-04  -4.319198e-05  0 
 3.162675e-04  3.323795e-04  0 
 5.180619e-04  9.690180e-04  0 
 4.962377e-03  3.071844e-03  0 
 3.847851e-03  3.057943e-03  0 
 2.431141e-03  2.805043e-03  0 
 -3.130622e-04  -4.258966e-05  0 
 -4.998163e-04  3.267985e-04  0 
 -7.397872e-04  9.244635e-04  0 
 2.444654e-04  1.867602e-03  0 
 -1.240129e-04  1.849171e-03  0 
 -4.999510e-04  1.851786e-03  0 
 -3.130251e-04  4.230672e-05  0 
 -4.997821e-04  -3.271077e-04  0 
 -7.397543e-04  -9.247982e-04  0 
 -3.380937e-03  1.408574e-03  0 
 -4.192762e-03  -1.848172e-07  0 
 -3.380920e-03  -1.408941e-03  0 
 1.581317e-04  4.290492e-05  0 
 3.163407e-04  -3.326882e-04  0 
 5.181369e-04  -9.693523e-04  0 
 -4.999079e-04  -1.852148e-03  0 
 -1.239591e-04  -1.849532e-03  0 
 2.445300e-04  -1.867963e-03  0 
 6.722515e-04  3.323251e-04  0 
 1.749524e-03  2.994879e-05  0 
 3.535598e-03  -1.022288e-03  0 
 2.431229e-03  -2.805408e-03  0 
 3.847952e-03  -3.058311e-03  0 
 4.962491e-03  -3.072214e-03  0 
 6.178089e-04  -3.279623e-04  0 
 5.189385e-04  -2.970004e-04  0 
 3.478516e-04  -1.782520e-04  0 
 1.457063e-03  -1.492454e-05  0 
 1.094770e-03  4.804228e-05  0 
 7.261070e-04  1.729929e-04  0 
 2.841955e-03  9.891022e-04  0 
 2.045903e-03  8.981066e-04  0 
 1.199300e-03  8.147533e-04  0 
 3.850783e-05  -3.624453e-05  0 
 -8.779070e-05  -3.210854e-05  0 
 -2.083423e-04  -3.250743e-05  0 
 1.103429e-04  3.344113e-04  0 
 -9.849532e-05  3.333213e-04  0 
 -3.034623e-04  3.287591e-04  0 
 1.973511e-04  9.751727e-04  0 
 -1.151513e-04  9.708667e-04  0 
 -4.268988e-04  9.521183e-04  0 
 -3.858479e-04  -3.910899e-05  0 
 -4.471179e-04  -1.465979e-07  0 
 -3.858214e-04  3.882870e-05  0 
 -6.613843e-04  1.846988e-04  0 
 -6.703067e-04  -1.549470e-07  0 
 -6.613690e-04  -1.850102e-04  0 
 -1.120419e-03  2.068353e-04  0 
 -1.344750e-03  -1.679674e-07  0 
 -1.120402e-03  -2.071706e-04  0 
 -2.082958e-04  3.222267e-05  0 
 -8.773588e-05  3.182176e-05  0 
 3.857067e-05  3.595736e-05  0 
 -3.034178e-04  -3.290680e-04  0 
 -9.844095e-05  -3.336300e-04  0 
 1.104067e-04  -3.347201e-04  0 
 -4.268554e-04  -9.524530e-04  0 
 -1.150974e-04  -9.712012e-04  0 
 1.974155e-04  -9.755070e-04  0 
 3.479317e-04  1.779716e-04  0 
 5.190348e-04  2.967721e-04  0 
 6.179444e-04  3.277391e-04  0 
 7.261902e-04  -1.732933e-04  0 
 1.094871e-03  -4.834543e-05  0 
 1.457184e-03  1.462779e-05  0 
 1.199388e-03  -8.150896e-04  0 
 2.046005e-03  -8.984430e-04  0 
 2.842071e-03  -9.894411e-04  0 
VECTORS displacement_ITER3 FLOAT
 -4.836960e-05  -2.545700e-04  0 
 5.893667e-03  3.041860e-03  0 
 1.145161e-04  -2.218029e-04  0 
 -1.724967e-04  -1.178102e-04  0 
 -1.724854e-04  1.179781e-04  0 
 1.144924e-04  2.219777e-04  0 
 -4.852028e-05  2.547460e-04  0 
 6.677600e-04  1.892082e-03  0 
 -8.947829e-04  1.854824e-03  0 
 -8.947814e-04  -1.854587e-03  0 
 6.677381e-04  -1.891844e-03  0 
 5.893622e-03  -3.041621e-03  0 
 6.857839e-04  -2.862897e-04  0 
 1.736169e-03  7.489924e-06  0 
 3.524850e-03  1.027754e-03  0 
 1.322581e-05  -2.848051e-04  0 
 1.000060e-05  -2.969449e-04  0 
 9.867275e-05  -2.215653e-04  0 
 3.389866e-05  -2.255679e-04  0 
 -5.678907e-05  -2.120869e-04  0 
 -1.365048e-04  -1.755405e-04  0 
 -1.468146e-04  -8.502079e-05  0 
 -9.900077e-05  7.031744e-08  0 
 -1.468279e-04  8.519725e-05  0 
 -1.365044e-04  1.757074e-04  0 
 -5.679701e-05  2.122585e-04  0 
 3.388266e-05  2.257432e-04  0 
 9.867418e-05  2.216983e-04  0 
 9.974761e-06  2.971166e-04  0 
 1.311806e-05  2.849726e-04  0 
 1.764497e-04  -1.240533e-05  0 
 3.342217e-04  3.498381e-04  0 
 5.364450e-04  9.738516e-04  0 
 4.960524e-03  3.060319e-03  0 
 3.853845e-03  3.046821e-03  0 
 2.443978e-03  2.795970e-03  0 
 -2.746943e-04  -1.433319e-05  0 
 -4.620968e-04  3.435162e-04  0 
 -7.018921e-04  9.291708e-04  0 
 2.677546e-04  1.860181e-03  0 
 -9.583778e-05  1.841779e-03  0 
 -4.669073e-04  1.844466e-03  0 
 -2.746882e-04  1.452392e-05  0 
 -4.620937e-04  -3.433081e-04  0 
 -7.018902e-04  -9.289476e-04  0 
 -3.339403e-03  1.405004e-03  0 
 -4.150068e-03  1.139554e-07  0 
 -3.339401e-03  -1.404773e-03  0 
 1.764275e-04  1.259617e-05  0 
 3.341988e-04  -3.496303e-04  0 
 5.364229e-04  -9.736280e-04  0 
 -4.669115e-04  -1.844228e-03  0 
 -9.584784e-05  -1.841541e-03  0 
 2.677386e-04  -1.859942e-03  0 
 6.857156e-04  2.865050e-04  0 
 1.736122e-03  -7.271214e-06  0 
 3.524804e-03  -1.027528e-03  0 
 2.443950e-03  -2.795731e-03  0 
 3.853810e-03  -3.046582e-03  0 
 4.960484e-03  -3.060080e-03  0 
 6.214757e-04  -2.666751e-04  0 
 5.232933e-04  -2.236058e-04  0 
 3.629634e-04  -1.592414e-04  0 
 1.455692e-03  1.774426e-05  0 
 1.105440e-03  7.154813e-05  0 
 7.418343e-04  2.001386e-04  0 
 2.840927e-03  9.954842e-04  0 
 2.051764e-03  9.057139e-04  0 
 1.211978e-03  8.201627e-04  0 
 6.125931e-05  -6.113393e-06  0 
 -5.997795e-05  -2.289485e-06  0 
 -1.748107e-04  -3.886115e-06  0 
 1.335924e-04  3.517478e-04  0 
 -7.020345e-05  3.502769e-04  0 
 -2.704167e-04  3.456137e-04  0 
 2.206318e-04  9.799545e-04  0 
 -8.697491e-05  9.756841e-04  0 
 -3.938550e-04  9.568951e-04  0 
 -3.567269e-04  -8.315223e-06  0 
 -4.032846e-04  9.757906e-08  0 
 -3.567226e-04  8.501668e-06  0 
 -6.177750e-04  1.906344e-04  0 
 -6.272064e-04  1.026532e-07  0 
 -6.177732e-04  -1.904267e-04  0 
 -1.079268e-03  2.096887e-04  0 
 -1.302176e-03  1.111544e-07  0 
 -1.079266e-03  -2.094664e-04  0 
 -1.748121e-04  4.077331e-06  0 
 -5.998722e-05  2.480240e-06  0 
 6.124332e-05  6.303990e-06  0 
 -2.704198e-04  -3.454057e-04  0 
 -7.021284e-05  -3.500690e-04  0 
 1.335764e-04  -3.515400e-04  0 
 -3.938590e-04  -9.566718e-04  0 
 -8.698485e-05  -9.754607e-04  0 
 2.206158e-04  -9.797309e-04  0 
 3.629243e-04  1.594438e-04  0 
 5.232389e-04  2.238125e-04  0 
 6.214165e-04  2.668915e-04  0 
 7.418018e-04  -1.999259e-04  0 
 1.105400e-03  -7.133178e-05  0 
 1.455646e-03  -1.752716e-05  0 
 1.211949e-03  -8.199378e-04  0 
 2.051729e-03  -9.054882e-04  0 
 2.840887e-03  -9.952580e-04  0 
VECTORS displacement_ITER4 FLOAT
 -2.195983e-05  -2.539339e-04  0 
 5.882911e-03  3.033987e-03  0 
 1.074236e-04  -2.189228e-04  0 
 -1.674403e-04  -1.079309e-04  0 
 -1.674186e-04  1.077428e-04  0 
 1.074484e-04  2.187337e-04  0 
 -2.190363e-05  2.537757e-04  0 
 6.640149e-04  1.885954e-03  0 
 -8.946372e-04  1.848925e-03  0 
 -8.946239e-04  -1.849141e-03  0 
 6.640420e-04  -1.886170e-03  0 
 5.882950e-03  -3.034203e-03  0 
 6.751759e-04  -2.574942e-04  0 
 1.723565e-03  9.209862e-06  0 
 3.513693e-03  1.025160e-03  0 
 9.911275e-06  -2.360068e-04  0 
 6.939810e-05  -2.408398e-04  0 
 8.123046e-05  -2.215377e-04  0 
 2.881770e-05  -2.198885e-04  0 
 -6.051025e-05  -2.048560e-04  0 
 -1.366019e-04  -1.662916e-04  0 
 -1.080772e-04  -3.877196e-05  0 
 -1.125796e-04  -1.001149e-07  0 
 -1.080802e-04  3.859436e-05  0 
 -1.365814e-04  1.661032e-04  0 
 -6.049063e-05  2.046664e-04  0 
 2.883949e-05  2.196986e-04  0 
 8.123328e-05  2.213407e-04  0 
 6.942404e-05  2.406962e-04  0 
 9.981604e-06  2.358617e-04  0 
 1.718488e-04  -9.611479e-06  0 
 3.300184e-04  3.491660e-04  0 
 5.325882e-04  9.701990e-04  0 
 4.951697e-03  3.052814e-03  0 
 3.846796e-03  3.039383e-03  0 
 2.438606e-03  2.788885e-03  0 
 -2.730660e-04  -1.277456e-05  0 
 -4.617514e-04  3.421703e-04  0 
 -7.017365e-04  9.256224e-04  0 
 2.649800e-04  1.854078e-03  0 
 -9.763098e-05  1.835723e-03  0 
 -4.677176e-04  1.838492e-03  0 
 -2.730500e-04  1.258236e-05  0 
 -4.617369e-04  -3.423698e-04  0 
 -7.017230e-04  -9.258298e-04  0 
 -3.338366e-03  1.401836e-03  0 
 -4.149058e-03  -1.104336e-07  0 
 -3.338359e-03  -1.402056e-03  0 
 1.718731e-04  9.417985e-06  0 
 3.300446e-04  -3.493651e-04  0 
 5.326152e-04  -9.704063e-04  0 
 -4.677008e-04  -1.838708e-03  0 
 -9.761074e-05  -1.835939e-03  0 
 2.650037e-04  -1.854294e-03  0 
 6.752351e-04  2.573134e-04  0 
 1.723608e-03  -9.415792e-06  0 
 3.513732e-03  -1.025370e-03  0 
 2.438636e-03  -2.789102e-03  0 
 3.846829e-03  -3.039599e-03  0 
 4.951733e-03  -3.053030e-03  0 
 6.215185e-04  -2.522998e-04  0 
 5.166735e-04  -2.117593e-04  0 
 3.705294e-04  -1.413378e-04  0 
 1.446657e-03  2.268413e-05  0 
 1.100384e-03  7.531819e-05  0 
 7.355253e-04  2.002236e-04  0 
 2.831768e-03  9.921531e-04  0 
 2.044663e-03  9.026815e-04  0 
 1.207210e-03  8.173875e-04  0 
 5.730462e-05  -3.920341e-06  0 
 -6.222162e-05  -2.260289e-07  0 
 -1.751418e-04  -2.221580e-06  0 
 1.307141e-04  3.509315e-04  0 
 -7.195673e-05  3.491511e-04  0 
 -2.710523e-04  3.443470e-04  0 
 2.178352e-04  9.763112e-04  0 
 -8.872208e-05  9.720809e-04  0 
 -3.946318e-04  9.533065e-04  0 
 -3.544479e-04  -1.220821e-05  0 
 -3.828804e-04  -9.432792e-08  0 
 -3.544384e-04  1.201336e-05  0 
 -6.149851e-04  1.894164e-04  0 
 -6.277958e-04  -1.005784e-07  0 
 -6.149779e-04  -1.896159e-04  0 
 -1.078738e-03  2.079962e-04  0 
 -1.300608e-03  -1.039646e-07  0 
 -1.078731e-03  -2.082042e-04  0 
 -1.751231e-04  2.029241e-06  0 
 -6.220056e-05  3.329272e-08  0 
 5.732733e-05  3.727101e-06  0 
 -2.710348e-04  -3.445464e-04  0 
 -7.193629e-05  -3.493504e-04  0 
 1.307374e-04  -3.511307e-04  0 
 -3.946149e-04  -9.535139e-04  0 
 -8.870183e-05  -9.722882e-04  0 
 2.178587e-04  -9.765185e-04  0 
 3.705582e-04  1.411509e-04  0 
 5.167067e-04  2.115638e-04  0 
 6.215596e-04  2.521117e-04  0 
 7.355556e-04  -2.004252e-04  0 
 1.100419e-03  -7.551907e-05  0 
 1.446696e-03  -2.288791e-05  0 
 1.207241e-03  -8.175956e-04  0 
 2.044697e-03  -9.028909e-04  0 
 2.831805e-03  -9.923627e-04  0 
VECTORS displacement_ITER5 FLOAT
 -3.141443e-07  -2.162203e-04  0 
 5.883727e-03  3.024512e-03  0 
 1.092648e-04  -2.231195e-04  0 
 -1.572429e-04  -1.097852e-04  0 
 -1.572512e-04  1.100907e-04  0 
 1.092288e-04  2.234291e-04  0 
 -3.969718e-07  2.164900e-04  0 
 6.693473e-04  1.879184e-03  0 
 -8.887332e-04  1.842446e-03  0 
 -8.887419e-04  -1.842078e-03  0 
 6.693149e-04  -1.878816e-03  0 
 5.883670e-03  -3.024143e-03  0 
 6.695796e-04  -2.459782e-04  0 
 1.718686e-03  8.885990e-06  0 
 3.513519e-03  1.017618e-03  0 
 3.152990e-05  -2.223477e-04  0 
 5.782595e-05  -2.032107e-04  0 
 7.535806e-05  -2.208845e-04  0 
 3.194144e-05  -2.224519e-04  0 
 -5.524842e-05  -2.061607e-04  0 
 -1.288542e-04  -1.675264e-04  0 
 -9.828619e-05  -4.424619e-05  0 
 -9.491452e-05  1.718794e-07  0 
 -9.825141e-05  4.453296e-05  0 
 -1.288676e-04  1.678305e-04  0 
 -5.526638e-05  2.064676e-04  0 
 3.191419e-05  2.227622e-04  0 
 7.534567e-05  2.212157e-04  0 
 5.780194e-05  2.034616e-04  0 
 3.146370e-05  2.226002e-04  0 
 1.760152e-04  -1.407744e-05  0 
 3.350308e-04  3.433594e-04  0 
 5.378942e-04  9.638311e-04  0 
 4.953533e-03  3.043133e-03  0 
 3.849902e-03  3.030160e-03  0 
 2.442970e-03  2.780522e-03  0 
 -2.656670e-04  -1.769549e-05  0 
 -4.555581e-04  3.362242e-04  0 
 -6.958170e-04  9.194238e-04  0 
 2.704770e-04  1.847361e-03  0 
 -9.198862e-05  1.829072e-03  0 
 -4.619406e-04  1.831927e-03  0 
 -2.656738e-04  1.801784e-05  0 
 -4.555665e-04  -3.358854e-04  0 
 -6.958257e-04  -9.190704e-04  0 
 -3.332389e-03  1.398750e-03  0 
 -4.143024e-03  1.830047e-07  0 
 -3.332393e-03  -1.398384e-03  0 
 1.759836e-04  1.440161e-05  0 
 3.349984e-04  -3.430213e-04  0 
 5.378618e-04  -9.634777e-04  0 
 -4.619552e-04  -1.831558e-03  0 
 -9.200908e-05  -1.828704e-03  0 
 2.704505e-04  -1.846993e-03  0 
 6.695047e-04  2.462911e-04  0 
 1.718625e-03  -8.542977e-06  0 
 3.513462e-03  -1.017264e-03  0 
 2.442932e-03  -2.780153e-03  0 
 3.849857e-03  -3.029791e-03  0 
 4.953482e-03  -3.042764e-03  0 
 6.195661e-04  -2.351908e-04  0 
 5.231270e-04  -2.057374e-04  0 
 3.771261e-04  -1.377490e-04  0 
 1.446721e-03  2.015894e-05  0 
 1.102982e-03  7.353881e-05  0 
 7.399880e-04  1.964853e-04  0 
 2.832857e-03  9.853205e-04  0 
 2.047492e-03  8.958844e-04  0 
 1.211567e-03  8.109809e-04  0 
 6.192540e-05  -8.820202e-06  0 
 -5.670668e-05  -5.341736e-06  0 
 -1.685755e-04  -7.313115e-06  0 
 1.361037e-04  3.450717e-04  0 
 -6.626789e-05  3.432012e-04  0 
 -2.650974e-04  3.383701e-04  0 
 2.233157e-04  9.699521e-04  0 
 -8.305959e-05  9.657612e-04  0 
 -3.888188e-04  9.470365e-04  0 
 -3.457044e-04  -1.418192e-05  0 
 -3.758476e-04  1.540142e-07  0 
 -3.457112e-04  1.450653e-05  0 
 -6.085245e-04  1.866064e-04  0 
 -6.207489e-04  1.700914e-07  0 
 -6.085290e-04  -1.862696e-04  0 
 -1.072621e-03  2.049840e-04  0 
 -1.294532e-03  1.763588e-07  0 
 -1.072625e-03  -2.046304e-04  0 
 -1.685894e-04  7.636059e-06  0 
 -5.672771e-05  5.665164e-06  0 
 6.189884e-05  9.143989e-06  0 
 -2.651118e-04  -3.380314e-04  0 
 -6.628820e-05  -3.428627e-04  0 
 1.360773e-04  -3.447334e-04  0 
 -3.888333e-04  -9.466831e-04  0 
 -8.308000e-05  -9.654078e-04  0 
 2.232894e-04  -9.695987e-04  0 
 3.770908e-04  1.380607e-04  0 
 5.230847e-04  2.060619e-04  0 
 6.195094e-04  2.355097e-04  0 
 7.399485e-04  -1.961449e-04  0 
 1.102935e-03  -7.320006e-05  0 
 1.446667e-03  -1.981759e-05  0 
 1.211528e-03  -8.106270e-04  0 
 2.047446e-03  -8.955294e-04  0 
 2.832806e-03  -9.849656e-04  0 
VECTORS displacement_ITER6 FLOAT
 7.750572e-06  -2.060167e-04  0 
 5.881882e-03  3.018815e-03  0 
 1.072887e-04  -2.255454e-04  0 
 -1.548028e-04  -1.124755e-04  0 
 -1.548082e-04  1.123114e-04  0 
 1.072798e-04  2.253767e-04  0 
 7.798128e-06  2.058653e-04  0 
 6.694621e-04  1.874887e-03  0 
 -8.885313e-04  1.838298e-03  0 
 -8.885368e-04  -1.838458e-03  0 
 6.694536e-04  -1.875047e-03  0 
 5.881870e-03  -3.018975e-03  0 
 6.637991e-04  -2.412099e-04  0 
 1.714241e-03  6.659805e-06  0 
 3.511178e-03  1.012947e-03  0 
 3.597754e-05  -2.124253e-04  0 
 4.485823e-05  -2.041861e-04  0 
 6.926350e-05  -2.161484e-04  0 
 3.093218e-05  -2.244698e-04  0 
 -5.494817e-05  -2.079912e-04  0 
 -1.274611e-04  -1.697477e-04  0 
 -1.037100e-04  -5.607056e-05  0 
 -8.841939e-05  -1.049830e-07  0 
 -1.037386e-04  5.589056e-05  0 
 -1.274677e-04  1.695839e-04  0 
 -5.495683e-05  2.078244e-04  0 
 3.092389e-05  2.243000e-04  0 
 6.923503e-05  2.159903e-04  0 
 4.484453e-05  2.040404e-04  0 
 3.600212e-05  2.122804e-04  0 
 1.753523e-04  -1.762926e-05  0 
 3.349770e-04  3.392271e-04  0 
 5.380066e-04  9.596088e-04  0 
 4.952132e-03  3.037457e-03  0 
 3.849055e-03  3.024639e-03  0 
 2.442709e-03  2.775488e-03  0 
 -2.647011e-04  -2.131217e-05  0 
 -4.551505e-04  3.321715e-04  0 
 -6.955921e-04  9.152908e-04  0 
 2.706280e-04  1.843092e-03  0 
 -9.181395e-05  1.824833e-03  0 
 -4.617499e-04  1.827730e-03  0 
 -2.647081e-04  2.114733e-05  0 
 -4.551563e-04  -3.323353e-04  0 
 -6.955976e-04  -9.154526e-04  0 
 -3.332210e-03  1.396561e-03  0 
 -4.142772e-03  -7.850879e-08  0 
 -3.332213e-03  -1.396718e-03  0 
 1.753428e-04  1.746378e-05  0 
 3.349686e-04  -3.393905e-04  0 
 5.379982e-04  -9.597707e-04  0 
 -4.617562e-04  -1.827890e-03  0 
 -9.182098e-05  -1.824993e-03  0 
 2.706202e-04  -1.843252e-03  0 
 6.638043e-04  2.410364e-04  0 
 1.714231e-03  -6.830279e-06  0 
 3.511166e-03  -1.013110e-03  0 
 2.442700e-03  -2.775648e-03  0 
 3.849045e-03  -3.024799e-03  0 
 4.952121e-03  -3.037618e-03  0 
 6.163821e-04  -2.309897e-04  0 
 5.231899e-04  -2.023848e-04  0 
 3.757513e-04  -1.400391e-04  0 
 1.444145e-03  1.782153e-05  0 
 1.101692e-03  7.076411e-05  0 
 7.399889e-04  1.937403e-04  0 
 2.831107e-03  9.807239e-04  0 
 2.046487e-03  8.914681e-04  0 
 1.211159e-03  8.065869e-04  0 
 6.164998e-05  -1.251611e-05  0 
 -5.650360e-05  -9.105921e-06  0 
 -1.678815e-04  -1.102590e-05  0 
 1.361704e-04  3.409350e-04  0 
 -6.607993e-05  3.390687e-04  0 
 -2.648026e-04  3.342694e-04  0 
 2.234548e-04  9.657316e-04  0 
 -8.288405e-05  9.615593e-04  0 
 -3.886090e-04  9.428633e-04  0 
 -3.441160e-04  -1.478510e-05  0 
 -3.782760e-04  -7.960569e-08  0 
 -3.441185e-04  1.461906e-05  0 
 -6.082550e-04  1.845054e-04  0 
 -6.195054e-04  -8.206723e-08  0 
 -6.082577e-04  -1.846682e-04  0 
 -1.072250e-03  2.027317e-04  0 
 -1.294335e-03  -8.067311e-08  0 
 -1.072253e-03  -2.028935e-04  0 
 -1.678883e-04  1.086092e-05  0 
 -5.651044e-05  8.940889e-06  0 
 6.164184e-05  1.235101e-05  0 
 -2.648091e-04  -3.344331e-04  0 
 -6.608723e-05  -3.392323e-04  0 
 1.361626e-04  -3.410984e-04  0 
 -3.886154e-04  -9.430251e-04  0 
 -8.289114e-05  -9.617211e-04  0 
 2.234470e-04  -9.658935e-04  0 
 3.757453e-04  1.398722e-04  0 
 5.231876e-04  2.022119e-04  0 
 6.163831e-04  2.308149e-04  0 
 7.399817e-04  -1.939069e-04  0 
 1.101685e-03  -7.093223e-05  0 
 1.444137e-03  -1.799104e-05  0 
 1.211150e-03  -8.067497e-04  0 
 2.046478e-03  -8.916317e-04  0 
 2.831096e-03  -9.808877e-04  0 
VECTORS displacement_ITER7 FLOAT
 8.667609e-06  -2.121728e-04  0 
 5.878309e-03  3.015761e-03  0 
 1.023976e-04  -2.259313e-04  0 
 -1.564442e-04  -1.137638e-04  0 
 -1.564352e-04  1.138819e-04  0 
 1.024204e-04  2.260534e-04  0 
 8.660454e-06  2.122458e-04  0 
 6.664499e-04  1.872113e-03  0 
 -8.913784e-04  1.835603e-03  0 
 -8.913680e-04  -1.835519e-03  0 
 6.664742e-04  -1.872027e-03  0 
 5.878346e-03  -3.015674e-03  0 
 6.583284e-04  -2.394381e-04  0 
 1.710789e-03  3.139289e-06  0 
 3.507619e-03  1.010583e-03  0 
 2.601121e-05  -2.037463e-04  0 
 4.687813e-05  -2.145400e-04  0 
 6.958671e-05  -2.183172e-04  0 
 2.729857e-05  -2.249065e-04  0 
 -5.776703e-05  -2.087271e-04  0 
 -1.297392e-04  -1.707873e-04  0 
 -1.033036e-04  -5.633674e-05  0 
 -8.214430e-05  7.104019e-08  0 
 -1.032699e-04  5.645780e-05  0 
 -1.297245e-04  1.709044e-04  0 
 -5.774705e-05  2.088469e-04  0 
 2.732002e-05  2.250290e-04  0 
 6.963277e-05  2.184209e-04  0 
 4.690466e-05  2.146226e-04  0 
 2.601395e-05  2.038170e-04  0 
 1.717069e-04  -1.973163e-05  0 
 3.317977e-04  3.367128e-04  0 
 5.349716e-04  9.569423e-04  0 
 4.948766e-03  3.034560e-03  0 
 3.845790e-03  3.021708e-03  0 
 2.439589e-03  2.772611e-03  0 
 -2.669897e-04  -2.326362e-05  0 
 -4.577850e-04  3.297365e-04  0 
 -6.984094e-04  9.126777e-04  0 
 2.676608e-04  1.840324e-03  0 
 -9.473595e-05  1.822080e-03  0 
 -4.646313e-04  1.825003e-03  0 
 -2.669779e-04  2.337381e-05  0 
 -4.577744e-04  -3.296338e-04  0 
 -6.983990e-04  -9.125840e-04  0 
 -3.335017e-03  1.395265e-03  0 
 -4.145549e-03  4.131301e-08  0 
 -3.335011e-03  -1.395182e-03  0 
 1.717327e-04  1.984346e-05  0 
 3.318221e-04  -3.366106e-04  0 
 5.349958e-04  -9.568485e-04  0 
 -4.646174e-04  -1.824918e-03  0 
 -9.471855e-05  -1.821995e-03  0 
 2.676817e-04  -1.840239e-03  0 
 6.583397e-04  2.395427e-04  0 
 1.710821e-03  -3.031363e-06  0 
 3.507655e-03  -1.010487e-03  0 
 2.439617e-03  -2.772525e-03  0 
 3.845820e-03  -3.021621e-03  0 
 4.948800e-03  -3.034473e-03  0 
 6.146785e-04  -2.343542e-04  0 
 5.196354e-04  -2.029473e-04  0 
 3.714685e-04  -1.419411e-04  0 
 1.440322e-03  1.579357e-05  0 
 1.098278e-03  6.839095e-05  0 
 7.368749e-04  1.915001e-04  0 
 2.827653e-03  9.779874e-04  0 
 2.043166e-03  8.888106e-04  0 
 1.207962e-03  8.039026e-04  0 
 5.832922e-05  -1.460330e-05  0 
 -5.940988e-05  -1.112331e-05  0 
 -1.704127e-04  -1.301305e-05  0 
 1.331010e-04  3.384189e-04  0 
 -6.901504e-05  3.365605e-04  0 
 -2.675890e-04  3.317997e-04  0 
 2.204713e-04  9.630666e-04  0 
 -8.580810e-05  9.589034e-04  0 
 -3.914734e-04  9.402220e-04  0 
 -3.455220e-04  -1.623615e-05  0 
 -3.803944e-04  5.188754e-08  0 
 -3.455191e-04  1.634672e-05  0 
 -6.108463e-04  1.834479e-04  0 
 -6.219047e-04  5.161337e-08  0 
 -6.108409e-04  -1.833462e-04  0 
 -1.074968e-03  2.014706e-04  0 
 -1.297047e-03  4.667851e-08  0 
 -1.074963e-03  -2.013768e-04  0 
 -1.703984e-04  1.312378e-05  0 
 -5.939280e-05  1.123444e-05  0 
 5.835044e-05  1.471485e-05  0 
 -2.675750e-04  -3.316971e-04  0 
 -6.899745e-05  -3.364581e-04  0 
 1.331220e-04  -3.383167e-04  0 
 -3.914594e-04  -9.401282e-04  0 
 -8.579064e-05  -9.588096e-04  0 
 2.204922e-04  -9.629728e-04  0 
 3.714936e-04  1.420497e-04  0 
 5.196609e-04  2.030565e-04  0 
 6.146990e-04  2.344616e-04  0 
 7.369011e-04  -1.913960e-04  0 
 1.098305e-03  -6.828577e-05  0 
 1.440350e-03  -1.568674e-05  0 
 1.207989e-03  -8.038075e-04  0 
 2.043195e-03  -8.887144e-04  0 
 2.827685e-03  -9.778908e-04  0 
VECTORS displacement_ITER8 FLOAT
 4.344620e-06  -2.117353e-04  0 
 5.876633e-03  3.013852e-03  0 
 9.932015e-05  -2.258609e-04  0 
 -1.573503e-04  -1.148923e-04  0 
 -1.573770e-04  1.147656e-04  0 
 9.925655e-05  2.257287e-04  0 
 4.328052e-06  2.116597e-04  0 
 6.647862e-04  1.870028e-03  0 
 -8.929222e-04  1.833561e-03  0 
 -8.929489e-04  -1.833596e-03  0 
 6.647210e-04  -1.870063e-03  0 
 5.876530e-03  -3.013890e-03  0 
 6.574066e-04  -2.449204e-04  0 
 1.709822e-03  1.088010e-06  0 
 3.506019e-03  1.008731e-03  0 
 2.213461e-05  -2.135265e-04  0 
 4.548359e-05  -2.196591e-04  0 
 7.125301e-05  -2.210899e-04  0 
 2.538671e-05  -2.252065e-04  0 
 -5.919422e-05  -2.094678e-04  0 
 -1.308885e-04  -1.716780e-04  0 
 -1.001253e-04  -5.535408e-05  0 
 -8.589470e-05  -8.687877e-08  0 
 -1.001774e-04  5.522822e-05  0 
 -1.309265e-04  1.715527e-04  0 
 -5.924432e-05  2.093382e-04  0 
 2.533001e-05  2.250728e-04  0 
 7.115632e-05  2.209687e-04  0 
 4.541154e-05  2.195875e-04  0 
 2.209577e-05  2.134580e-04  0 
 1.695825e-04  -2.142940e-05  0 
 3.300087e-04  3.348054e-04  0 
 5.332848e-04  9.549312e-04  0 
 4.947114e-03  3.032624e-03  0 
 3.844159e-03  3.019799e-03  0 
 2.437925e-03  2.770618e-03  0 
 -2.681457e-04  -2.466561e-05  0 