# vtk DataFile Version 3.1
this is an vtk file created by FEMAC
ASCII
DATASET UNSTRUCTURED_GRID
POINTS 105 FLOAT
5.000000 0.000000 0.000000
5.500000 0.000000 0.000000
5.000000 0.200000 0.000000
5.000000 0.400000 0.000000
5.000000 0.600000 0.000000
5.000000 0.800000 0.000000
5.000000 1.000000 0.000000
5.500000 0.200000 0.000000
5.500000 0.400000 0.000000
5.500000 0.600000 0.000000
5.500000 0.800000 0.000000
5.500000 1.000000 0.000000
5.125000 0.000000 0.000000
5.250000 0.000000 0.000000
5.375000 0.000000 0.000000
5.000000 0.050000 0.000000
5.000000 0.100000 0.000000
5.000000 0.150000 0.000000
5.000000 0.250000 0.000000
5.000000 0.300000 0.000000
5.000000 0.350000 0.000000
5.000000 0.450000 0.000000
5.000000 0.500000 0.000000
5.000000 0.550000 0.000000
5.000000 0.650000 0.000000
5.000000 0.700000 0.000000
5.000000 0.750000 0.000000
5.000000 0.850000 0.000000
5.000000 0.900000 0.000000
5.000000 0.950000 0.000000
5.125000 0.200000 0.000000
5.250000 0.200000 0.000000
5.375000 0.200000 0.000000
5.500000 0.050000 0.000000
5.500000 0.100000 0.000000
5.500000 0.150000 0.000000
5.125000 0.400000 0.000000
5.250000 0.400000 0.000000
5.375000 0.400000 0.000000
5.500000 0.250000 0.000000
5.500000 0.300000 0.000000
5.500000 0.350000 0.000000
5.125000 0.600000 0.000000
5.250000 0.600000 0.000000
5.375000 0.600000 0.000000
5.500000 0.450000 0.000000
5.500000 0.500000 0.000000
5.500000 0.550000 0.000000
5.125000 0.800000 0.000000
5.250000 0.800000 0.000000
5.375000 0.800000 0.000000
5.500000 0.650000 0.000000
5.500000 0.700000 0.000000
5.500000 0.750000 0.000000
5.125000 1.000000 0.000000
5.250000 1.000000 0.000000
5.375000 1.000000 0.000000
5.500000 0.850000 0.000000
5.500000 0.900000 0.000000
5.500000 0.950000 0.000000
5.125000 0.050000 0.000000
5.125000 0.100000 0.000000
5.125000 0.150000 0.000000
5.250000 0.050000 0.000000
5.250000 0.100000 0.000000
5.250000 0.150000 0.000000
5.375000 0.050000 0.000000
5.375000 0.100000 0.000000
5.375000 0.150000 0.000000
5.125000 0.250000 0.000000
5.125000 0.300000 0.000000
5.125000 0.350000 0.000000
5.250000 0.250000 0.000000
5.250000 0.300000 0.000000
5.250000 0.350000 0.000000
5.375000 0.250000 0.000000
5.375000 0.300000 0.000000
5.375000 0.350000 0.000000
5.125000 0.450000 0.000000
5.125000 0.500000 0.000000
5.125000 0.550000 0.000000
5.250000 0.450000 0.000000
5.250000 0.500000 0.000000
5.250000 0.550000 0.000000
5.375000 0.450000 0.000000
5.375000 0.500000 0.000000
5.375000 0.550000 0.000000
5.125000 0.650000 0.000000
5.125000 0.700000 0.000000
5.125000 0.750000 0.000000
5.250000 0.650000 0.000000
5.250000 0.700000 0.000000
5.250000 0.750000 0.000000
5.375000 0.650000 0.000000
5.375000 0.700000 0.000000
5.375000 0.750000 0.000000
5.125000 0.850000 0.000000
5.125000 0.900000 0.000000
5.125000 0.950000 0.000000
5.250000 0.850000 0.000000
5.250000 0.900000 0.000000
5.250000 0.950000 0.000000
5.375000 0.850000 0.000000
5.375000 0.900000 0.000000
5.375000 0.950000 0.000000
CELLS 80 400 
4 0 12 60 15
4 15 60 61 16
4 16 61 62 17
4 17 62 30  2
4 12 13 63 60
4 60 63 64 61
4 61 64 65 62
4 62 65 31 30
4 13 14 66 63
4 63 66 67 64
4 64 67 68 65
4 65 68 32 31
4 14  1 33 66
4 66 33 34 67
4 67 34 35 68
4 68 35  7 32
4 2 30 69 18
4 18 69 70 19
4 19 70 71 20
4 20 71 36  3
4 30 31 72 69
4 69 72 73 70
4 70 73 74 71
4 71 74 37 36
4 31 32 75 72
4 72 75 76 73
4 73 76 77 74
4 74 77 38 37
4 32  7 39 75
4 75 39 40 76
4 76 40 41 77
4 77 41  8 38
4 3 36 78 21
4 21 78 79 22
4 22 79 80 23
4 23 80 42  4
4 36 37 81 78
4 78 81 82 79
4 79 82 83 80
4 80 83 43 42
4 37 38 84 81
4 81 84 85 82
4 82 85 86 83
4 83 86 44 43
4 38  8 45 84
4 84 45 46 85
4 85 46 47 86
4 86 47  9 44
4 4 42 87 24
4 24 87 88 25
4 25 88 89 26
4 26 89 48  5
4 42 43 90 87
4 87 90 91 88
4 88 91 92 89
4 89 92 49 48
4 43 44 93 90
4 90 93 94 91
4 91 94 95 92
4 92 95 50 49
4 44  9 51 93
4 93 51 52 94
4 94 52 53 95
4 95 53 10 50
4 5 48 96 27
4 27 96 97 28
4 28 97 98 29
4 29 98 54  6
4 48 49 99 96
4 96  99 100  97
4 97 100 101  98
4 98 101  55  54
4 49  50 102  99
4 99 102 103 100
4 100 103 104 101
4 101 104  56  55
4 50  10  57 102
4 102  57  58 103
4 103  58  59 104
4 104  59  11  56
CELL_TYPES 80
9 9 9 9 9 9 9 9 9 9 9 9 9 9 9 9 9 9 9 9 9 9 9 9 9 9 9 9 9 9 9 9 9 9 9 9 9 9 9 9 9 9 9 9 9 9 9 9 9 9 9 9 9 9 9 9 9 9 9 9 9 9 9 9 9 9 9 9 9 9 9 9 9 9 9 9 9 9 9 9 
POINT_DATA 105
VECTORS displacement_ITER1 FLOAT
 2.153074e-14  9.807588e-14  0 
 2.143983e-14  1.156870e-13  0 
 1.455482e-14  9.809198e-14  0 
 7.304622e-15  9.811603e-14  0 
 1.089228e-16  9.812069e-14  0 
 -7.138071e-15  9.816308e-14  0 
 -1.413925e-14  9.815186e-14  0 
 1.431773e-14  1.157020e-13  0 
 7.178336e-15  1.157974e-13  0 
 1.827064e-16  1.158020e-13  0 
 -6.959833e-15  1.157730e-13  0 
 -1.405659e-14  1.157628e-13  0 
 2.150270e-14  1.024520e-13  0 
 2.148143e-14  1.068421e-13  0 
 2.146222e-14  1.112568e-13  0 
 1.978140e-14  9.807690e-14  0 
 1.803277e-14  9.808024e-14  0 
 1.628875e-14  9.808587e-14  0 
 1.306260e-14  9.808941e-14  0 
 1.130593e-14  9.804584e-14  0 
 9.376488e-15  9.803309e-14  0 
 5.499202e-15  9.812086e-14  0 
 3.703196e-15  9.812382e-14  0 
 1.908823e-15  9.812342e-14  0 
 -1.879830e-15  9.806257e-14  0 
 -3.786116e-15  9.808629e-14  0 
 -5.564993e-15  9.813998e-14  0 
 -8.881571e-15  9.815895e-14  0 
 -1.063186e-14  9.815500e-14  0 
 -1.238528e-14  9.815260e-14  0 
 1.449525e-14  1.024473e-13  0 
 1.443576e-14  1.068422e-13  0 
 1.437776e-14  1.112522e-13  0 
 1.966616e-14  1.156880e-13  0 
 1.789119e-14  1.156914e-13  0 
 1.611047e-14  1.156969e-13  0 
 7.264227e-15  1.025939e-13  0 
 7.228923e-15  1.070231e-13  0 
 7.199971e-15  1.114255e-13  0 
 1.226707e-14  1.156990e-13  0 
 1.043918e-14  1.156733e-13  0 
 8.753568e-15  1.156865e-13  0 
 1.350917e-16  1.025929e-13  0 
 1.583726e-16  1.070235e-13  0 
 1.753031e-16  1.114246e-13  0 
 5.433821e-15  1.158022e-13  0 
 3.684098e-15  1.158049e-13  0 
 1.932744e-15  1.158048e-13  0 
 -7.094026e-15  1.025329e-13  0 
 -7.048435e-15  1.069301e-13  0 
 -7.004331e-15  1.113378e-13  0 
 -1.475507e-15  1.157159e-13  0 
 -3.184250e-15  1.157137e-13  0 
 -4.990112e-15  1.157495e-13  0 
 -1.411338e-14  1.025368e-13  0 
 -1.409406e-14  1.069305e-13  0 
 -1.407680e-14  1.113416e-13  0 
 -8.742986e-15  1.157699e-13  0 
 -1.051740e-14  1.157661e-13  0 
 -1.228755e-14  1.157636e-13  0 
 1.975002e-14  1.024518e-13  0 
 1.799762e-14  1.024511e-13  0 
 1.624629e-14  1.024494e-13  0 
 1.972037e-14  1.068418e-13  0 
 1.795907e-14  1.068411e-13  0 
 1.619761e-14  1.068410e-13  0 
 1.969243e-14  1.112566e-13  0 
 1.792180e-14  1.112558e-13  0 
 1.614972e-14  1.112539e-13  0 
 1.271682e-14  1.024583e-13  0 
 1.093051e-14  1.025248e-13  0 
 9.102650e-15  1.025860e-13  0 
 1.263744e-14  1.068933e-13  0 
 1.083572e-14  1.069361e-13  0 
 9.033345e-15  1.069780e-13  0 
 1.256129e-14  1.112765e-13  0 
 1.075255e-14  1.113457e-13  0 
 8.975066e-15  1.114096e-13  0 
 5.482148e-15  1.025924e-13  0 
 3.699265e-15  1.025914e-13  0 
 1.916726e-15  1.025918e-13  0 
 5.461564e-15  1.070241e-13  0 
 3.693648e-15  1.070243e-13  0 
 1.925732e-15  1.070241e-13  0 
 5.444448e-15  1.114248e-13  0 
 3.688030e-15  1.114243e-13  0 
 1.931268e-15  1.114242e-13  0 
 -1.696419e-15  1.025988e-13  0 
 -3.518151e-15  1.025663e-13  0 
 -5.309033e-15  1.025288e-13  0 
 -1.646046e-15  1.069998e-13  0 
 -3.448413e-15  1.069786e-13  0 
 -5.250130e-15  1.069576e-13  0 
 -1.606693e-15  1.114223e-13  0 
 -3.390284e-15  1.113872e-13  0 
 -5.194426e-15  1.113469e-13  0 
 -8.848187e-15  1.025347e-13  0 
 -1.060276e-14  1.025361e-13  0 
 -1.235808e-14  1.025367e-13  0 
 -8.810272e-15  1.069295e-13  0 
 -1.057173e-14  1.069297e-13  0 
 -1.233301e-14  1.069303e-13  0 
 -8.773149e-15  1.113392e-13  0 
 -1.054196e-14  1.113407e-13  0 
 -1.230966e-14  1.113414e-13  0 
VECTORS displacement_ITER2 FLOAT
 -3.458290e-14  -1.709725e-13  0 
 -3.460117e-14  -2.023457e-13  0 
 -2.197486e-14  -1.709532e-13  0 
 -9.437353e-15  -1.705839e-13  0 
 3.114190e-15  -1.705855e-13  0 
 1.564713e-14  -1.709050e-13  0 
 2.825180e-14  -1.709249e-13  0 
 -2.210187e-14  -2.023360e-13  0 
 -9.520078e-15  -2.022093e-13  0 
 3.189661e-15  -2.022109e-13  0 
 1.577538e-14  -2.022867e-13  0 
 2.827720e-14  -2.022970e-13  0 
 -3.458328e-14  -1.788298e-13  0 
 -3.459052e-14  -1.866776e-13  0 
 -3.459719e-14  -1.945162e-13  0 
 -3.143453e-14  -1.709717e-13  0 
 -2.828625e-14  -1.709688e-13  0 
 -2.513444e-14  -1.709630e-13  0 
 -1.877958e-14  -1.708334e-13  0 
 -1.563331e-14  -1.706698e-13  0 
 -1.249178e-14  -1.705646e-13  0 
 -6.304083e-15  -1.705838e-13  0 
 -3.162836e-15  -1.705837e-13  0 
 -2.103176e-17  -1.705847e-13  0 
 6.127371e-15  -1.705929e-13  0 
 9.243975e-15  -1.706605e-13  0 
 1.240799e-14  -1.707792e-13  0 
 1.880488e-14  -1.709147e-13  0 
 2.195570e-14  -1.709208e-13  0 
 2.510352e-14  -1.709240e-13  0 
 -2.201536e-14  -1.788282e-13  0 
 -2.204108e-14  -1.866740e-13  0 
 -2.206520e-14  -1.945169e-13  0 
 -3.147151e-14  -2.023453e-13  0 
 -2.834316e-14  -2.023439e-13  0 
 -2.521868e-14  -2.023409e-13  0 
 -9.472138e-15  -1.784593e-13  0 
 -9.489842e-15  -1.863635e-13  0 
 -9.502727e-15  -1.942779e-13  0 
 -1.901720e-14  -2.023115e-13  0 
 -1.587797e-14  -2.022304e-13  0 
 -1.273105e-14  -2.021786e-13  0 
 3.145218e-15  -1.784593e-13  0 
 3.163053e-15  -1.863623e-13  0 
 3.176073e-15  -1.942779e-13  0 
 -6.339802e-15  -2.022089e-13  0 
 -3.163953e-15  -2.022090e-13  0 
 1.134076e-17  -2.022099e-13  0 
 1.568566e-14  -1.787807e-13  0 
 1.571398e-14  -1.866274e-13  0 
 1.574071e-14  -1.944688e-13  0 
 6.442116e-15  -2.022068e-13  0 
 9.614231e-15  -2.022204e-13  0 
 1.273517e-14  -2.022563e-13  0 
 2.825440e-14  -1.787820e-13  0 
 2.826299e-14  -1.866298e-13  0 
 2.827102e-14  -1.944678e-13  0 
 1.889383e-14  -2.022915e-13  0 
 2.201907e-14  -2.022948e-13  0 
 2.514769e-14  -2.022966e-13  0 
 -3.144237e-14  -1.788295e-13  0 
 -2.830009e-14  -1.788289e-13  0 
 -2.515729e-14  -1.788284e-13  0 
 -3.145315e-14  -1.866777e-13  0 
 -2.831584e-14  -1.866774e-13  0 
 -2.517840e-14  -1.866763e-13  0 
 -3.146393e-14  -1.945162e-13  0 
 -2.833133e-14  -1.945164e-13  0 
 -2.519900e-14  -1.945168e-13  0 
 -1.888647e-14  -1.787285e-13  0 
 -1.574421e-14  -1.786376e-13  0 
 -1.260472e-14  -1.785489e-13  0 
 -1.891177e-14  -1.865977e-13  0 
 -1.577735e-14  -1.865184e-13  0 
 -1.263679e-14  -1.864390e-13  0 
 -1.893662e-14  -1.944495e-13  0 
 -1.580416e-14  -1.943918e-13  0 
 -1.265959e-14  -1.943357e-13  0 
 -6.315847e-15  -1.784587e-13  0 
 -3.162776e-15  -1.784591e-13  0 
 -9.970067e-18  -1.784589e-13  0 
 -6.326506e-15  -1.863615e-13  0 
 -3.163393e-15  -1.863603e-13  0 
 -2.808768e-19  -1.863608e-13  0 
 -6.334096e-15  -1.942776e-13  0 
 -3.164012e-15  -1.942779e-13  0 
 6.337835e-18  -1.942778e-13  0 
 6.272951e-15  -1.785287e-13  0 
 9.407661e-15  -1.786141e-13  0 
 1.255218e-14  -1.787016e-13  0 
 6.309958e-15  -1.864276e-13  0 
 9.450449e-15  -1.864939e-13  0 
 1.258479e-14  -1.865604e-13  0 
 6.337784e-15  -1.943152e-13  0 
 9.486987e-15  -1.943680e-13  0 
 1.261701e-14  -1.944223e-13  0 
 1.882844e-14  -1.787806e-13  0 
 2.197141e-14  -1.787811e-13  0 
 2.511360e-14  -1.787817e-13  0 
 1.885119e-14  -1.866292e-13  0 
 2.198853e-14  -1.866299e-13  0 
 2.512574e-14  -1.866299e-13  0 
 1.887344e-14  -1.944684e-13  0 
 2.200539e-14  -1.944680e-13  0 
 2.513787e-14  -1.944678e-13  0 
VECTORS displacement_ITER3 FLOAT
 3.547494e-15  1.581110e-14  0 
 3.520720e-15  1.854988e-14  0 
 2.522694e-15  1.582259e-14  0 
 1.342463e-15  1.595192e-14  0 
 1.525891e-16  1.595158e-14  0 
 -1.029187e-15  1.577895e-14  0 
 -2.067627e-15  1.576752e-14  0 
 2.357309e-15  1.855810e-14  0 
 1.243743e-15  1.866844e-14  0 
 2.214093e-16  1.866810e-14  0 
 -8.906398e-16  1.851460e-14  0 
 -2.040517e-15  1.850644e-14  0 
 3.538432e-15  1.647153e-14  0 
 3.533688e-15  1.714593e-14  0 
 3.528997e-15  1.784123e-14  0 
 3.282901e-15  1.581118e-14  0 
 3.021135e-15  1.581223e-14  0 
 2.765628e-15  1.581557e-14  0 
 2.336635e-15  1.585284e-14  0 
 2.061762e-15  1.592749e-14  0 
 1.743479e-15  1.597677e-14  0 
 1.039177e-15  1.595098e-14  0 
 7.449220e-16  1.595122e-14  0 
 4.517959e-16  1.595105e-14  0 
 -2.362198e-16  1.594732e-14  0 
 -5.536823e-16  1.589202e-14  0 
 -8.326397e-16  1.581748e-14  0 
 -1.277889e-15  1.577205e-14  0 
 -1.536946e-15  1.576875e-14  0 
 -1.801182e-15  1.576765e-14  0 
 2.471928e-15  1.646720e-14  0 
 2.437007e-15  1.714888e-14  0 
 2.403724e-15  1.783790e-14  0 
 3.237388e-15  1.855010e-14  0 
 2.951482e-15  1.855123e-14  0 
 2.660026e-15  1.855386e-14  0 
 1.305073e-15  1.666792e-14  0 
 1.282028e-15  1.735102e-14  0 
 1.264209e-15  1.801955e-14  0 
 2.002491e-15  1.857206e-14  0 
 1.714081e-15  1.863670e-14  0 
 1.450835e-15  1.868353e-14  0 
 1.806777e-16  1.666613e-14  0 
 1.980796e-16  1.735064e-14  0 
 2.102574e-16  1.801776e-14  0 
 9.921417e-16  1.866878e-14  0 
 7.351815e-16  1.866921e-14  0 
 4.770939e-16  1.866884e-14  0 
 -9.858488e-16  1.643162e-14  0 
 -9.569098e-16  1.711501e-14  0 
 -9.296028e-16  1.780239e-14  0 
 2.353237e-18  1.865383e-14  0 
 -2.611563e-16  1.860120e-14  0 
 -5.459214e-16  1.853693e-14  0 
 -2.059821e-15  1.643444e-14  0 
 -2.053646e-15  1.711189e-14  0 
 -2.047524e-15  1.780420e-14  0 
 -1.187595e-15  1.851048e-14  0 
 -1.475545e-15  1.850789e-14  0 
 -1.758986e-15  1.850671e-14  0 
 3.272380e-15  1.647121e-14  0 
 3.006162e-15  1.647022e-14  0 
 2.739981e-15  1.646864e-14  0 
 3.259696e-15  1.714595e-14  0 
 2.985660e-15  1.714615e-14  0 
 2.711500e-15  1.714709e-14  0 
 3.247301e-15  1.784093e-14  0 
 2.965599e-15  1.784006e-14  0 
 2.683708e-15  1.783872e-14  0 
 2.188456e-15  1.651957e-14  0 
 1.905371e-15  1.657325e-14  0 
 1.610443e-15  1.662413e-14  0 
 2.147956e-15  1.719961e-14  0 
 1.858539e-15  1.725153e-14  0 
 1.570135e-15  1.730285e-14  0 
 2.111267e-15  1.788888e-14  0 
 1.820717e-15  1.793566e-14  0 
 1.538523e-15  1.797956e-14  0 
 1.025580e-15  1.666774e-14  0 
 7.431254e-16  1.666674e-14  0 
 4.606921e-16  1.666662e-14  0 
 1.011202e-15  1.735229e-14  0 
 7.400539e-16  1.735289e-14  0 
 4.689064e-16  1.735209e-14  0 
 1.000037e-15  1.801946e-14  0 
 7.369809e-16  1.801876e-14  0 
 4.739044e-16  1.801835e-14  0 
 -1.227318e-16  1.661365e-14  0 
 -4.180988e-16  1.655327e-14  0 
 -7.019739e-16  1.649109e-14  0 
 -9.003168e-17  1.729303e-14  0 
 -3.784329e-16  1.723364e-14  0 
 -6.678569e-16  1.717371e-14  0 
 -6.593869e-17  1.796918e-14  0 
 -3.477295e-16  1.791571e-14  0 
 -6.374677e-16  1.786038e-14  0 
 -1.255440e-15  1.643261e-14  0 
 -1.523482e-15  1.643364e-14  0 
 -1.791603e-15  1.643425e-14  0 
 -1.231415e-15  1.711314e-14  0 
 -1.505591e-15  1.711216e-14  0 
 -1.779640e-15  1.711191e-14  0 
 -1.208085e-15  1.780276e-14  0 
 -1.488138e-15  1.780354e-14  0 
 -1.767969e-15  1.780405e-14  0 
VECTORS displacement_ITER4 FLOAT
 -1.312980e-15  -5.656872e-15  0 
 -1.330713e-15  -7.209131e-15  0 
 -6.145259e-16  -5.650594e-15  0 
 -1.068360e-16  -5.632572e-15  0 
 3.715570e-16  -5.631556e-15  0 
 8.797309e-16  -5.635362e-15  0 
 1.561843e-15  -5.639745e-15  0 
 -7.870653e-16  -7.202207e-15  0 
 -2.019042e-16  -7.075064e-15  0 
 4.370567e-16  -7.074043e-15  0 
 1.021500e-15  -7.186288e-15  0 
 1.580965e-15  -7.191295e-15  0 
 -1.322498e-15  -6.073776e-15  0 
 -1.323045e-15  -6.474678e-15  0 
 -1.323957e-15  -6.849578e-15  0 
 -1.148907e-15  -5.656887e-15  0 
 -9.809967e-16  -5.656351e-15  0 
 -8.057623e-16  -5.654451e-15  0 
 -3.918194e-16  -5.676451e-15  0 
 -2.488630e-16  -5.649773e-15  0 
 -1.560787e-16  -5.620072e-15  0 
 7.290467e-18  -5.634960e-15  0 
 1.299154e-16  -5.634767e-15  0 
 2.535666e-16  -5.634035e-15  0 
 4.362526e-16  -5.614536e-15  0 
 5.398833e-16  -5.640268e-15  0 
 6.757085e-16  -5.664879e-15  0 
 1.064587e-15  -5.638872e-15  0 
 1.235902e-15  -5.640027e-15  0 
 1.400766e-15  -5.639972e-15  0 
 -6.683390e-16  -6.080758e-15  0 
 -7.039037e-16  -6.471755e-15  0 
 -7.379807e-16  -6.853673e-15  0 
 -1.186319e-15  -7.208770e-15  0 
 -1.044678e-15  -7.207463e-15  0 
 -9.091048e-16  -7.205085e-15  0 
 -1.418271e-16  -5.956923e-15  0 
 -1.647549e-16  -6.312179e-15  0 
 -1.826816e-16  -6.684393e-15  0 
 -6.949946e-16  -7.192462e-15  0 
 -5.550354e-16  -7.135786e-15  0 
 -3.890505e-16  -7.083261e-15  0 
 3.975537e-16  -5.957753e-15  0 
 4.146970e-16  -6.311950e-15  0 
 4.268400e-16  -6.685218e-15  0 
 -3.841620e-17  -7.075085e-15  0 
 1.200224e-16  -7.074340e-15  0 
 2.774359e-16  -7.074159e-15  0 
 9.248642e-16  -6.056913e-15  0 
 9.537412e-16  -6.446189e-15  0 
 9.811352e-16  -6.829479e-15  0 
 6.089648e-16  -7.077731e-15  0 
 7.646121e-16  -7.125989e-15  0 
 9.112041e-16  -7.180314e-15  0 
 1.571417e-15  -6.050576e-15  0 
 1.572605e-15  -6.448875e-15  0 
 1.574157e-15  -6.826032e-15  0 
 1.149822e-15  -7.188817e-15  0 
 1.289160e-15  -7.190448e-15  0 
 1.433729e-15  -7.191157e-15  0 
 -1.157592e-15  -6.074399e-15  0 
 -9.933945e-16  -6.076187e-15  0 
 -8.293524e-16  -6.078853e-15  0 
 -1.168002e-15  -6.474638e-15  0 
 -1.012994e-15  -6.474403e-15  0 
 -8.582543e-16  -6.473368e-15  0 
 -1.178139e-15  -6.849969e-15  0 
 -1.032180e-15  -6.851117e-15  0 
 -8.863623e-16  -6.852864e-15  0 
 -5.212629e-16  -6.047888e-15  0 
 -3.836505e-16  -6.013934e-15  0 
 -2.569815e-16  -5.983056e-15  0 
 -5.647757e-16  -6.431233e-15  0 
 -4.288769e-16  -6.389951e-15  0 
 -2.952819e-16  -6.349581e-15  0 
 -6.030858e-16  -6.805380e-15  0 
 -4.657781e-16  -6.761735e-15  0 
 -3.267816e-16  -6.721847e-15  0 
 -5.508710e-18  -5.956859e-15  0 
 1.279827e-16  -5.957673e-15  0 
 2.615662e-16  -5.957499e-15  0 
 -1.974067e-17  -6.311218e-15  0 
 1.249715e-16  -6.310589e-15  0 
 2.696836e-16  -6.311116e-15  0 
 -3.082079e-17  -6.684168e-15  0 
 1.219588e-16  -6.684644e-15  0 
 2.746464e-16  -6.684806e-15  0 
 5.157301e-16  -5.979746e-15  0 
 6.430437e-16  -6.003446e-15  0 
 7.801288e-16  -6.029213e-15  0 
 5.452153e-16  -6.343750e-15  0 
 6.787996e-16  -6.377919e-15  0 
 8.146592e-16  -6.412818e-15  0 
 5.679842e-16  -6.718378e-15  0 
 7.062503e-16  -6.751071e-15  0 
 8.440544e-16  -6.786509e-15  0 
 1.084160e-15  -6.055153e-15  0 
 1.246101e-15  -6.052809e-15  0 
 1.408339e-15  -6.051169e-15  0 
 1.108024e-15  -6.447590e-15  0 
 1.262692e-15  -6.448509e-15  0 
 1.417631e-15  -6.448794e-15  0 
 1.131087e-15  -6.828814e-15  0 
 1.278874e-15  -6.827389e-15  0 
 1.426649e-15  -6.826391e-15  0 
VECTORS displacement_ITER5 FLOAT
 -9.959692e-07  8.402219e-07  0 
 -1.016324e-06  -1.445891e-06  0 
 -8.860408e-08  8.360324e-07  0 
 6.399478e-07  1.617673e-08  0 
 6.399478e-07  -1.617691e-08  0 
 -8.860406e-08  -8.360326e-07  0 
 -9.959692e-07  -8.402221e-07  0 
 -1.055127e-07  -1.439928e-06  0 
 6.762863e-07  -3.590347e-08  0 
 6.762863e-07  3.590327e-08  0 
 -1.055127e-07  1.439928e-06  0 
 -1.016324e-06  1.445891e-06  0 
 -9.975057e-07  2.741370e-07  0 
 -1.003602e-06  -2.934793e-07  0 
 -1.012968e-06  -8.673202e-07  0 
 -7.694196e-07  8.400945e-07  0 
 -5.426109e-07  8.395109e-07  0 
 -3.156598e-07  8.381959e-07  0 
 1.664419e-07  7.051871e-07  0 
 3.867659e-07  5.239388e-07  0 
 5.515615e-07  2.948327e-07  0 
 6.445277e-07  8.271715e-09  0 
 6.460375e-07  -8.718802e-14  0 
 6.445277e-07  -8.271889e-09  0 
 5.515615e-07  -2.948328e-07  0 
 3.867659e-07  -5.239390e-07  0 
 1.664419e-07  -7.051873e-07  0 
 -3.156598e-07  -8.381961e-07  0 
 -5.426109e-07  -8.395111e-07  0 
 -7.694196e-07  -8.400947e-07  0 
 -8.939525e-08  2.717085e-07  0 
 -8.952634e-08  -2.898222e-07  0 
 -9.055293e-08  -8.606820e-07  0 
 -7.873186e-07  -1.445404e-06  0 
 -5.580151e-07  -1.443927e-06  0 
 -3.301360e-07  -1.441693e-06  0 
 6.422599e-07  4.293577e-09  0 
 6.482601e-07  -3.248756e-09  0 
 6.572419e-07  -1.519518e-08  0 
 1.544229e-07  -1.337448e-06  0 
 4.324002e-07  -1.059856e-06  0 
 6.365377e-07  -6.222876e-07  0 
 6.422599e-07  -4.293759e-09  0 
 6.482601e-07  3.248566e-09  0 
 6.572419e-07  1.519498e-08  0 
 6.751020e-07  -1.703344e-08  0 
 6.749569e-07  -1.029293e-13  0 
 6.751020e-07  1.703323e-08  0 
 -8.939523e-08  -2.717087e-07  0 
 -8.952632e-08  2.898220e-07  0 
 -9.055292e-08  8.606818e-07  0 
 6.365378e-07  6.222874e-07  0 
 4.324002e-07  1.059856e-06  0 
 1.544229e-07  1.337448e-06  0 
 -9.975057e-07  -2.741372e-07  0 
 -1.003602e-06  2.934791e-07  0 
 -1.012968e-06  8.673200e-07  0 
 -3.301360e-07  1.441693e-06  0 
 -5.580151e-07  1.443926e-06  0 
 -7.873186e-07  1.445404e-06  0 
 -7.706445e-07  2.740582e-07  0 
 -5.433426e-07  2.737393e-07  0 
 -3.160892e-07  2.729872e-07  0 
 -7.752838e-07  -2.933831e-07  0 
 -5.464915e-07  -2.928472e-07  0 
 -3.176164e-07  -2.915522e-07  0 
 -7.821854e-07  -8.669990e-07  0 
 -5.523249e-07  -8.660746e-07  0 
 -3.223853e-07  -8.643422e-07  0 
 1.719902e-07  2.098399e-07  0 
 3.879227e-07  1.450939e-07  0 
 5.478653e-07  7.616902e-08  0 
 1.800351e-07  -2.186010e-07  0 
 3.904132e-07  -1.455827e-07  0 
 5.460774e-07  -7.454893e-08  0 
 1.668008e-07  -6.559269e-07  0 
 3.984488e-07  -4.526858e-07  0 
 5.707429e-07  -2.398929e-07  0 
 6.461408e-07  2.285791e-09  0 
 6.474101e-07  -9.108645e-14  0 
 6.461408e-07  -2.285973e-09  0 
 6.521363e-07  -1.514125e-09  0 
 6.536934e-07  -9.501493e-14  0 
 6.521363e-07  1.513935e-09  0 
 6.638178e-07  -8.638837e-09  0 
 6.655766e-07  -9.896416e-14  0 
 6.638178e-07  8.638639e-09  0 
 5.478653e-07  -7.616920e-08  0 
 3.879227e-07  -1.450941e-07  0 
 1.719902e-07  -2.098401e-07  0 
 5.460774e-07  7.454874e-08  0 
 3.904132e-07  1.455825e-07  0 
 1.800351e-07  2.186008e-07  0 
 5.707429e-07  2.398927e-07  0 
 3.984488e-07  4.526856e-07  0 
 1.668008e-07  6.559267e-07  0 
 -3.160892e-07  -2.729874e-07  0 
 -5.433426e-07  -2.737395e-07  0 
 -7.706445e-07  -2.740584e-07  0 
 -3.176164e-07  2.915520e-07  0 
 -5.464915e-07  2.928470e-07  0 
 -7.752838e-07  2.933830e-07  0 
 -3.223853e-07  8.643420e-07  0 
 -5.523249e-07  8.660744e-07  0 
 -7.821854e-07  8.669988e-07  0 
VECTORS displacement_ITER6 FLOAT
 -2.561908e-06  5.080224e-07  0 
 -2.496440e-06  -6.761134e-06  0 
 2.612580e-07  4.828243e-07  0 
 1.148340e-06  -1.880559e-09  0 
 1.148340e-06  1.880571e-09  0 
 2.612580e-07  -4.828243e-07  0 
 -2.561908e-06  -5.080224e-07  0 
 2.142659e-07  -6.678396e-06  0 
 1.128691e-06  -2.067231e-07  0 
 1.128691e-06  2.067231e-07  0 
 2.142659e-07  6.678396e-06  0 
 -2.496440e-06  6.761134e-06  0 
 -2.575612e-06  -1.265385e-06  0 
 -2.603772e-06  -3.066775e-06  0 
 -2.607439e-06  -4.918028e-06  0 
 -1.852307e-06  5.069501e-07  0 
 -1.143321e-06  5.028384e-07  0 
 -4.378342e-07  4.946780e-07  0 
 7.131471e-07  9.602676e-08  0 
 9.445630e-07  -7.182224e-08  0 
 1.060605e-06  -8.311363e-08  0 
 1.155893e-06  -1.085298e-09  0 
 1.158379e-06  6.059038e-15  0 
 1.155893e-06  1.085310e-09  0 
 1.060605e-06  8.311365e-08  0 
 9.445630e-07  7.182225e-08  0 
 7.131471e-07  -9.602675e-08  0 
 -4.378342e-07  -4.946780e-07  0 
 -1.143321e-06  -5.028383e-07  0 
 -1.852307e-06  -5.069501e-07  0 
 2.653158e-07  -1.252012e-06  0 
 2.977574e-07  -3.032113e-06  0 
 3.117223e-07  -4.877555e-06  0 
 -1.806681e-06  -6.755709e-06  0 
 -1.111402e-06  -6.738636e-06  0 
 -4.308014e-07  -6.710524e-06  0 
 1.157981e-06  -2.019032e-08  0 
 1.157299e-06  -3.228841e-08  0 
 1.121504e-06  -7.059144e-08  0 
 4.052285e-07  -5.611843e-06  0 
 5.400215e-07  -4.265861e-06  0 
 7.493498e-07  -2.574628e-06  0 
 1.157981e-06  2.019034e-08  0 
 1.157299e-06  3.228842e-08  0 
 1.121504e-06  7.059145e-08  0 
 1.119209e-06  -9.958762e-08  0 
 1.116613e-06  6.562726e-15  0 
 1.119209e-06  9.958763e-08  0 
 2.653158e-07  1.252012e-06  0 
 2.977574e-07  3.032113e-06  0 
 3.117223e-07  4.877555e-06  0 
 7.493498e-07  2.574628e-06  0 
 5.400215e-07  4.265861e-06  0 
 4.052285e-07  5.611843e-06  0 
 -2.575612e-06  1.265385e-06  0 
 -2.603772e-06  3.066775e-06  0 
 -2.607439e-06  4.918028e-06  0 
 -4.308014e-07  6.710524e-06  0 
 -1.111402e-06  6.738636e-06  0 
 -1.806681e-06  6.755709e-06  0 
 -1.861647e-06  -1.264702e-06  0 
 -1.147411e-06  -1.262507e-06  0 
 -4.368763e-07  -1.258518e-06  0 
 -1.875227e-06  -3.066089e-06  0 
 -1.148928e-06  -3.061306e-06  0 
 -4.246101e-07  -3.049177e-06  0 
 -1.865559e-06  -4.914693e-06  0 
 -1.140326e-06  -4.906919e-06  0 
 -4.197533e-07  -4.896380e-06  0 
 7.580003e-07  -9.498759e-07  0 
 1.047991e-06  -6.621103e-07  0 
 1.178347e-06  -3.555732e-07  0 
 7.778934e-07  -2.298089e-06  0 
 1.083680e-06  -1.540313e-06  0 
 1.199009e-06  -7.984708e-07  0 
 6.729673e-07  -3.759138e-06  0 
 9.992290e-07  -2.559090e-06  0 
 1.209099e-06  -1.270819e-06  0 
 1.160381e-06  -1.045497e-08  0 
 1.160706e-06  6.225012e-15  0 
 1.160381e-06  1.045498e-08  0 
 1.158827e-06  -1.402787e-08  0 
 1.161272e-06  6.358386e-15  0 
 1.158827e-06  1.402789e-08  0 
 1.153174e-06  -4.225681e-08  0 
 1.161331e-06  6.469119e-15  0 
 1.153174e-06  4.225682e-08  0 
 1.178347e-06  3.555732e-07  0 
 1.047991e-06  6.621103e-07  0 
 7.580003e-07  9.498759e-07  0 
 1.199009e-06  7.984708e-07  0 
 1.083680e-06  1.540313e-06  0 
 7.778934e-07  2.298089e-06  0 
 1.209099e-06  1.270819e-06  0 
 9.992290e-07  2.559090e-06  0 
 6.729673e-07  3.759138e-06  0 
 -4.368763e-07  1.258518e-06  0 
 -1.147411e-06  1.262507e-06  0 
 -1.861647e-06  1.264702e-06  0 
 -4.246101e-07  3.049177e-06  0 
 -1.148928e-06  3.061306e-06  0 
 -1.875227e-06  3.066089e-06  0 
 -4.197533e-07  4.896380e-06  0 
 -1.140326e-06  4.906919e-06  0 
 -1.865559e-06  4.914693e-06  0 
VECTORS displacement_ITER7 FLOAT
 2.295659e-05  -1.863948e-05  0 
 2.300528e-05  3.756603e-05  0 
 6.904571e-07  -1.854359e-05  0 
 -1.466014e-05  -2.937559e-07  0 
 -1.466014e-05  2.937558e-07  0 
 6.904571e-07  1.854359e-05  0 
 2.295659e-05  1.863948e-05  0 
 9.133896e-07  3.717544e-05  0 
 -1.502768e-05  5.740022e-07  0 
 -1.502768e-05  -5.740024e-07  0 
 9.133896e-07  -3.717544e-05  0 
 2.300528e-05  -3.756603e-05  0 
 2.294253e-05  -4.747208e-06  0 
 2.305097e-05  9.183194e-06  0 
 2.322112e-05  2.333754e-05  0 
 1.738819e-05  -1.863611e-05  0 
 1.181803e-05  -1.862148e-05  0 
 6.251134e-06  -1.858999e-05  0 
 -5.441432e-06  -1.536437e-05  0 
 -1.029855e-05  -1.105209e-05  0 
 -1.348407e-05  -5.953635e-06  0 
 -1.472567e-05  -1.483256e-07  0 
 -1.474765e-05  -6.900343e-14  0 
 -1.472567e-05  1.483255e-07  0 
 -1.348407e-05  5.953635e-06  0 
 -1.029855e-05  1.105209e-05  0 
 -5.441432e-06  1.536437e-05  0 
 6.251134e-06  1.858999e-05  0 
 1.181803e-05  1.862148e-05  0 
 1.738819e-05  1.863611e-05  0 
 6.776711e-07  -4.698819e-06  0 
 6.273963e-07  9.083995e-06  0 
 5.964717e-07  2.307807e-05  0 
 1.752123e-05  3.753545e-05  0 
 1.196869e-05  3.744888e-05  0 
 6.416908e-06  3.732017e-05  0 
 -1.464093e-05  -8.229962e-08  0 
 -1.467393e-05  1.132181e-07  0 
 -1.478527e-05  3.720059e-07  0 
 -5.108379e-06  3.217962e-05  0 
 -1.082779e-05  2.395403e-05  0 
 -1.463118e-05  1.319705e-05  0 
 -1.464093e-05  8.229948e-08  0 
 -1.467393e-05  -1.132182e-07  0 
 -1.478527e-05  -3.720061e-07  0 
 -1.498093e-05  2.893776e-07  0 
 -1.496938e-05  -8.125274e-14  0 
 -1.498093e-05  -2.893777e-07  0 
 6.776711e-07  4.698819e-06  0 
 6.273963e-07  -9.083995e-06  0 
 5.964717e-07  -2.307807e-05  0 
 -1.463118e-05  -1.319705e-05  0 
 -1.082779e-05  -2.395403e-05  0 
 -5.108379e-06  -3.217962e-05  0 
 2.294253e-05  4.747208e-06  0 
 2.305097e-05  -9.183194e-06  0 
 2.322112e-05  -2.333754e-05  0 
 6.416908e-06  -3.732017e-05  0 
 1.196869e-05  -3.744888e-05  0 
 1.752123e-05  -3.753545e-05  0 
 1.737855e-05  -4.746130e-06  0 
 1.180384e-05  -4.740338e-06  0 
 6.232077e-06  -4.725722e-06  0 
 1.743982e-05  9.182744e-06  0 
 1.182143e-05  9.170956e-06  0 
 6.211989e-06  9.136316e-06  0 
 1.751851e-05  2.331693e-05  0 
 1.187670e-05  2.326408e-05  0 
 6.249778e-06  2.318766e-05  0 
 -5.156606e-06  -3.550581e-06  0 
 -9.792061e-06  -2.483742e-06  0 
 -1.298268e-05  -1.356976e-06  0 
 -5.278851e-06  6.868695e-06  0 
 -9.736828e-06  4.609480e-06  0 
 -1.288025e-05  2.366534e-06  0 
 -5.136725e-06  1.742058e-05  0 
 -9.965944e-06  1.192201e-05  0 
 -1.328750e-05  6.298349e-06  0 
 -1.471521e-05  -4.389078e-08  0 
 -1.473997e-05  -7.202534e-14  0 
 -1.471521e-05  4.389064e-08  0 
 -1.476073e-05  5.794653e-08  0 
 -1.479133e-05  -7.507998e-14  0 
 -1.476073e-05  -5.794668e-08  0 
 -1.487666e-05  1.938808e-07  0 
 -1.490259e-05  -7.815734e-14  0 
 -1.487666e-05  -1.938810e-07  0 
 -1.298268e-05  1.356976e-06  0 
 -9.792061e-06  2.483742e-06  0 
 -5.156606e-06  3.550581e-06  0 
 -1.288025e-05  -2.366534e-06  0 
 -9.736828e-06  -4.609480e-06  0 
 -5.278851e-06  -6.868695e-06  0 
 -1.328750e-05  -6.298349e-06  0 
 -9.965944e-06  -1.192201e-05  0 
 -5.136725e-06  -1.742058e-05  0 
 6.232077e-06  4.725722e-06  0 
 1.180384e-05  4.740338e-06  0 
 1.737855e-05  4.746129e-06  0 
 6.211989e-06  -9.136316e-06  0 
 1.182143e-05  -9.170956e-06  0 
 1.743982e-05  -9.182744e-06  0 
 6.249778e-06  -2.318766e-05  0 
 1.187670e-05  -2.326408e-05  0 
 1.751851e-05  -2.331693e-05  0 
VECTORS displacement_ITER8 FLOAT
 -6.886173e-06  1.402446e-05  0 
 -6.952745e-06  2.674828e-06  0 
 -2.157725e-06  1.405822e-05  0 
 4.777890e-06  1.966185e-07  0 
 4.777890e-06  -1.966185e-07  0 
 -2.157725e-06  -1.405822e-05  0 
 -6.886173e-06  -1.402446e-05  0 
 -1.954248e-06  2.519326e-06  0 
 4.643021e-06  2.906894e-07  0 
 4.643021e-06  -2.906894e-07  0 
 -1.954248e-06  -2.519326e-06  0 
 -6.952745e-06  -2.674828e-06  0 
 -6.809459e-06  1.105672e-05  0 
 -6.689881e-06  8.194868e-06  0 
 -6.688804e-06  5.457507e-06  0 
 -5.711437e-06  1.402385e-05  0 
 -4.530680e-06  1.402467e-05  0 
 -3.345588e-06  1.403292e-05  0 
 5.324753e-07  1.372304e-05  0 
 3.513545e-06  1.062563e-05  0 
 5.264467e-06  5.704592e-06  0 
 4.748319e-06  9.589082e-08  0 
 4.740886e-06  -1.168651e-14  0 
 4.748319e-06  -9.589084e-08  0 
 5.264467e-06  -5.704592e-06  0 
 3.513545e-06  -1.062563e-05  0 
 5.324753e-07  -1.372304e-05  0 
 -3.345588e-06  -1.403292e-05  0 
 -4.530680e-06  -1.402467e-05  0 
 -5.711437e-06  -1.402385e-05  0 
 -2.076551e-06  1.094840e-05  0 
 -2.161406e-06  8.097890e-06  0 
 -2.174677e-06  5.440291e-06  0 
 -5.756172e-06  2.670773e-06  0 
 -4.552672e-06  2.650513e-06  0 
 -3.300062e-06  2.601546e-06  0 