# vtk DataFile Version 3.1
this is an vtk file created by FEMAC
ASCII
DATASET UNSTRUCTURED_GRID
POINTS 105 FLOAT
4.500000 0.000000 0.000000
5.000000 0.000000 0.000000
4.500000 0.200000 0.000000
4.500000 0.400000 0.000000
4.500000 0.600000 0.000000
4.500000 0.800000 0.000000
4.500000 1.000000 0.000000
5.000000 0.200000 0.000000
5.000000 0.400000 0.000000
5.000000 0.600000 0.000000
5.000000 0.800000 0.000000
5.000000 1.000000 0.000000
4.625000 0.000000 0.000000
4.750000 0.000000 0.000000
4.875000 0.000000 0.000000
4.500000 0.050000 0.000000
4.500000 0.100000 0.000000
4.500000 0.150000 0.000000
4.500000 0.250000 0.000000
4.500000 0.300000 0.000000
4.500000 0.350000 0.000000
4.500000 0.450000 0.000000
4.500000 0.500000 0.000000
4.500000 0.550000 0.000000
4.500000 0.650000 0.000000
4.500000 0.700000 0.000000
4.500000 0.750000 0.000000
4.500000 0.850000 0.000000
4.500000 0.900000 0.000000
4.500000 0.950000 0.000000
4.625000 0.200000 0.000000
4.750000 0.200000 0.000000
4.875000 0.200000 0.000000
5.000000 0.050000 0.000000
5.000000 0.100000 0.000000
5.000000 0.150000 0.000000
4.625000 0.400000 0.000000
4.750000 0.400000 0.000000
4.875000 0.400000 0.000000
5.000000 0.250000 0.000000
5.000000 0.300000 0.000000
5.000000 0.350000 0.000000
4.625000 0.600000 0.000000
4.750000 0.600000 0.000000
4.875000 0.600000 0.000000
5.000000 0.450000 0.000000
5.000000 0.500000 0.000000
5.000000 0.550000 0.000000
4.625000 0.800000 0.000000
4.750000 0.800000 0.000000
4.875000 0.800000 0.000000
5.000000 0.650000 0.000000
5.000000 0.700000 0.000000
5.000000 0.750000 0.000000
4.625000 1.000000 0.000000
4.750000 1.000000 0.000000
4.875000 1.000000 0.000000
5.000000 0.850000 0.000000
5.000000 0.900000 0.000000
5.000000 0.950000 0.000000
4.625000 0.050000 0.000000
4.625000 0.100000 0.000000
4.625000 0.150000 0.000000
4.750000 0.050000 0.000000
4.750000 0.100000 0.000000
4.750000 0.150000 0.000000
4.875000 0.050000 0.000000
4.875000 0.100000 0.000000
4.875000 0.150000 0.000000
4.625000 0.250000 0.000000
4.625000 0.300000 0.000000
4.625000 0.350000 0.000000
4.750000 0.250000 0.000000
4.750000 0.300000 0.000000
4.750000 0.350000 0.000000
4.875000 0.250000 0.000000
4.875000 0.300000 0.000000
4.875000 0.350000 0.000000
4.625000 0.450000 0.000000
4.625000 0.500000 0.000000
4.625000 0.550000 0.000000
4.750000 0.450000 0.000000
4.750000 0.500000 0.000000
4.750000 0.550000 0.000000
4.875000 0.450000 0.000000
4.875000 0.500000 0.000000
4.875000 0.550000 0.000000
4.625000 0.650000 0.000000
4.625000 0.700000 0.000000
4.625000 0.750000 0.000000
4.750000 0.650000 0.000000
4.750000 0.700000 0.000000
4.750000 0.750000 0.000000
4.875000 0.650000 0.000000
4.875000 0.700000 0.000000
4.875000 0.750000 0.000000
4.625000 0.850000 0.000000
4.625000 0.900000 0.000000
4.625000 0.950000 0.000000
4.750000 0.850000 0.000000
4.750000 0.900000 0.000000
4.750000 0.950000 0.000000
4.875000 0.850000 0.000000
4.875000 0.900000 0.000000
4.875000 0.950000 0.000000
CELLS 80 400 
4 0 12 60 15
4 15 60 61 16
4 16 61 62 17
4 17 62 30  2
4 12 13 63 60
4 60 63 64 61
4 61 64 65 62
4 62 65 31 30
4 13 14 66 63
4 63 66 67 64
4 64 67 68 65
4 65 68 32 31
4 14  1 33 66
4 66 33 34 67
4 67 34 35 68
4 68 35  7 32
4 2 30 69 18
4 18 69 70 19
4 19 70 71 20
4 20 71 36  3
4 30 31 72 69
4 69 72 73 70
4 70 73 74 71
4 71 74 37 36
4 31 32 75 72
4 72 75 76 73
4 73 76 77 74
4 74 77 38 37
4 32  7 39 75
4 75 39 40 76
4 76 40 41 77
4 77 41  8 38
4 3 36 78 21
4 21 78 79 22
4 22 79 80 23
4 23 80 42  4
4 36 37 81 78
4 78 81 82 79
4 79 82 83 80
4 80 83 43 42
4 37 38 84 81
4 81 84 85 82
4 82 85 86 83
4 83 86 44 43
4 38  8 45 84
4 84 45 46 85
4 85 46 47 86
4 86 47  9 44
4 4 42 87 24
4 24 87 88 25
4 25 88 89 26
4 26 89 48  5
4 42 43 90 87
4 87 90 91 88
4 88 91 92 89
4 89 92 49 48
4 43 44 93 90
4 90 93 94 91
4 91 94 95 92
4 92 95 50 49
4 44  9 51 93
4 93 51 52 94
4 94 52 53 95
4 95 53 10 50
4 5 48 96 27
4 27 96 97 28
4 28 97 98 29
4 29 98 54  6
4 48 49 99 96
4 96  99 100  97
4 97 100 101  98
4 98 101  55  54
4 49  50 102  99
4 99 102 103 100
4 100 103 104 101
4 101 104  56  55
4 50  10  57 102
4 102  57  58 103
4 103  58  59 104
4 104  59  11  56
CELL_TYPES 80
9 9 9 9 9 9 9 9 9 9 9 9 9 9 9 9 9 9 9 9 9 9 9 9 9 9 9 9 9 9 9 9 9 9 9 9 9 9 9 9 9 9 9 9 9 9 9 9 9 9 9 9 9 9 9 9 9 9 9 9 9 9 9 9 9 9 9 9 9 9 9 9 9 9 9 9 9 9 9 9 
POINT_DATA 105
VECTORS displacement_ITER1 FLOAT
 -8.635152e-09  -6.979055e-08  0 
 2.969292e-07  -2.191540e-08  0 
 1.454060e-08  -9.501168e-08  0 
 -4.251977e-09  -9.421201e-08  0 
 -4.263135e-09  9.412106e-08  0 
 1.442426e-08  9.492338e-08  0 
 -8.622579e-09  6.952002e-08  0 
 1.838033e-08  -6.993449e-08  0 
 -1.354171e-08  -4.571130e-08  0 
 -1.360607e-08  4.562233e-08  0 
 1.837629e-08  6.960509e-08  0 
 2.925594e-07  2.406884e-08  0 
 -5.504478e-09  -7.963160e-08  0 
 3.910960e-08  -1.123089e-07  0 
 1.351718e-07  -8.864061e-08  0 
 -1.707983e-08  -4.866169e-08  0 
 1.401946e-08  -2.410760e-08  0 
 5.036926e-08  -5.103258e-08  0 
 9.514001e-09  -9.442448e-08  0 
 5.113888e-09  -9.387141e-08  0 
 6.163665e-10  -9.386019e-08  0 
 -3.946712e-08  -5.310896e-08  0 
 -4.739185e-08  4.600725e-12  0 
 -3.946590e-08  5.308386e-08  0 
 5.755682e-10  9.376603e-08  0 
 5.048481e-09  9.377516e-08  0 
 9.426379e-09  9.433229e-08  0 
 5.028448e-08  5.121182e-08  0 
 1.420028e-08  2.423847e-08  0 
 -1.690006e-08  4.850214e-08  0 
 1.172168e-08  -8.443140e-08  0 
 9.792750e-09  -7.903570e-08  0 
 9.809330e-09  -7.364159e-08  0 
 2.529384e-07  1.830057e-09  0 
 1.465495e-07  2.593574e-08  0 
 3.021494e-08  -1.275561e-08  0 
 -2.089101e-09  -8.227880e-08  0 
 -4.338197e-10  -7.766223e-08  0 
 -6.978771e-09  -7.241547e-08  0 
 1.121361e-08  -6.737949e-08  0 
 3.185149e-09  -6.384900e-08  0 
 -5.844221e-09  -5.560981e-08  0 
 -2.106611e-09  8.224513e-08  0 
 -4.540140e-10  7.769191e-08  0 
 -7.066266e-09  7.243111e-08  0 
 -1.296075e-07  2.688609e-08  0 
 -1.782381e-07  -8.343822e-10  0 
 -1.297622e-07  -2.719678e-08  0 
 1.161836e-08  8.439247e-08  0 
 9.694328e-09  7.906039e-08  0 
 9.827355e-09  7.368443e-08  0 
 -6.091407e-09  5.559093e-08  0 
 3.134522e-09  6.409141e-08  0 
 1.138445e-08  6.735563e-08  0 
 -5.445389e-09  7.955473e-08  0 
 3.905364e-08  1.118412e-07  0 
 1.340503e-07  8.772027e-08  0 
 3.068191e-08  1.290033e-08  0 
 1.459879e-07  -2.589012e-08  0 
 2.511725e-07  -2.103882e-10  0 
 8.242870e-09  -8.593786e-08  0 
 1.535524e-08  -9.402030e-08  0 
 1.493035e-08  -8.858181e-08  0 
 3.983648e-08  -1.087261e-07  0 
 3.459012e-08  -1.008682e-07  0 
 2.414926e-08  -9.361533e-08  0 
 1.074768e-07  -9.558015e-08  0 
 7.509602e-08  -1.021812e-07  0 
 4.425619e-08  -8.880536e-08  0 
 8.262744e-09  -8.466861e-08  0 
 4.765017e-09  -8.442117e-08  0 
 1.451335e-09  -8.358264e-08  0 
 7.091460e-09  -7.855763e-08  0 
 4.143876e-09  -7.852051e-08  0 
 1.149661e-09  -7.840804e-08  0 
 7.768914e-09  -7.361094e-08  0 
 4.447680e-09  -7.252749e-08  0 
 -2.932279e-11  -7.184022e-08  0 
 -6.584780e-09  -3.809784e-08  0 
 -1.079827e-08  -1.539759e-11  0 
 -6.581206e-09  3.806270e-08  0 
 -3.996707e-09  -3.791579e-08  0 
 -2.106907e-09  -8.890652e-12  0 
 -4.031311e-09  3.794269e-08  0 
 -2.288763e-08  -5.316073e-08  0 
 -3.351616e-08  1.695732e-11  0 
 -2.280608e-08  5.300089e-08  0 
 1.414341e-09  8.355236e-08  0 
 4.705000e-09  8.439168e-08  0 
 8.177188e-09  8.463410e-08  0 
 1.099627e-09  7.842593e-08  0 
 4.088231e-09  7.853698e-08  0 
 7.034578e-09  7.858146e-08  0 
 -4.179361e-11  7.188039e-08  0 
 4.397853e-09  7.254184e-08  0 
 7.676009e-09  7.363368e-08  0 
 1.482484e-08  8.843226e-08  0 
 1.529538e-08  9.385907e-08  0 
 8.253680e-09  8.583609e-08  0 
 2.396220e-08  9.343851e-08  0 
 3.429730e-08  1.004967e-07  0 
 3.958299e-08  1.082797e-07  0 
 4.398785e-08  8.859120e-08  0 
 7.468065e-08  1.018445e-07  0 
 1.066458e-07  9.481815e-08  0 
VECTORS displacement_ITER2 FLOAT
 -3.869224e-08  -4.991697e-08  0 
 7.290842e-07  1.703027e-07  0 
 -1.298276e-08  -6.471264e-08  0 
 -2.224116e-08  -5.762709e-08  0 
 -2.218088e-08  5.783236e-08  0 
 -1.285053e-08  6.490365e-08  0 
 -3.846597e-08  5.047007e-08  0 
 4.984382e-08  6.203559e-08  0 
 -1.092444e-07  7.834785e-08  0 
 -1.091139e-07  -7.809098e-08  0 
 4.998017e-08  -6.164338e-08  0 
 7.342017e-07  -1.717627e-07  0 
 1.285307e-08  -9.375525e-08  0 
 1.097424e-07  -9.410549e-08  0 
 3.220992e-07  -6.976409e-08  0 
 -1.337346e-08  -7.535473e-08  0 
 -4.791249e-08  -9.657858e-08  0 
 -7.332885e-08  -5.464202e-08  0 
 -1.540718e-08  -6.579275e-08  0 
 -1.788650e-08  -6.521348e-08  0 
 -2.025641e-08  -6.221545e-08  0 
 6.866516e-08  3.115811e-08  0 
 1.101744e-07  2.411277e-12  0 
 6.859242e-08  -3.106584e-08  0 
 -2.017245e-08  6.242485e-08  0 
 -1.778512e-08  6.542587e-08  0 
 -1.529114e-08  6.599503e-08  0 
 -7.322583e-08  5.443480e-08  0 
 -4.825167e-08  9.638519e-08  0 
 -1.374973e-08  7.565179e-08  0 
 -1.105918e-08  -6.342720e-08  0 
 4.493669e-09  -4.910632e-08  0 
 2.705292e-08  -8.348725e-09  0 
 5.510103e-07  1.292630e-07  0 
 4.445581e-07  8.658326e-08  0 
 3.145008e-07  1.231984e-07  0 
 -2.399721e-08  -6.089189e-08  0 
 -4.160864e-08  -4.697021e-08  0 
 -7.035882e-08  -1.098412e-08  0 
 8.186162e-09  6.712377e-08  0 
 -2.380843e-08  7.036391e-08  0 
 -5.864974e-08  7.077242e-08  0 
 -2.393387e-08  6.105600e-08  0 
 -4.155185e-08  4.706835e-08  0 
 -7.022912e-08  1.109044e-08  0 
 -2.563774e-07  -2.253411e-08  0 
 -2.518512e-07  1.771265e-09  0 
 -2.569048e-07  2.463310e-08  0 
 -1.092729e-08  6.359610e-08  0 
 4.640122e-09  4.920864e-08  0 
 2.710277e-08  8.467105e-09  0 
 -5.823113e-08  -7.069745e-08  0 
 -2.367048e-08  -7.063579e-08  0 
 7.979119e-09  -6.702912e-08  0 
 1.252799e-08  9.366383e-08  0 
 1.088448e-07  9.488831e-08  0 
 3.217960e-07  7.265779e-08  0 
 3.132612e-07  -1.195929e-07  0 
 4.432144e-07  -8.353409e-08  0 
 5.515044e-07  -1.292134e-07  0 
 1.244028e-08  -8.500448e-08  0 
 1.143711e-08  -7.500390e-08  0 
 7.696963e-09  -8.153534e-08  0 
 1.008931e-07  -9.675070e-08  0 
 7.778686e-08  -9.408009e-08  0 
 4.585427e-08  -7.102441e-08  0 
 2.756743e-07  -5.654098e-08  0 
 1.985893e-07  -4.127768e-08  0 
 1.042586e-07  -4.742810e-08  0 
 -1.398699e-08  -6.245249e-08  0 
 -1.841403e-08  -6.152873e-08  0 
 -2.233840e-08  -6.080406e-08  0 
 -7.549785e-09  -4.862436e-08  0 
 -1.954772e-08  -4.842093e-08  0 
 -3.117286e-08  -4.809245e-08  0 
 3.859538e-09  -7.659195e-09  0 
 -2.179263e-08  -7.032642e-09  0 
 -4.723291e-08  -7.900818e-09  0 
 -1.846231e-08  -4.798446e-08  0 
 -1.133070e-08  8.545754e-11  0 
 -1.843441e-08  4.814343e-08  0 
 -5.311544e-08  -2.318057e-08  0 
 -5.823958e-08  6.834498e-11  0 
 -5.306725e-08  2.328805e-08  0 
 -8.874197e-08  -1.614707e-09  0 
 -1.023509e-07  8.657832e-11  0 
 -8.880683e-08  1.911219e-09  0 
 -2.225905e-08  6.096396e-08  0 
 -1.831458e-08  6.168580e-08  0 
 -1.386684e-08  6.261478e-08  0 
 -3.107678e-08  4.820688e-08  0 
 -1.944519e-08  4.854265e-08  0 
 -7.447196e-09  4.873763e-08  0 
 -4.719732e-08  7.977749e-09  0 
 -2.168718e-08  7.132008e-09  0 
 4.046031e-09  7.755175e-09  0 
 7.739810e-09  8.176747e-08  0 
 1.133849e-08  7.519842e-08  0 
 1.221417e-08  8.501030e-08  0 
 4.599702e-08  7.144251e-08  0 
 7.790489e-08  9.470246e-08  0 
 1.006460e-07  9.750074e-08  0 
 1.043832e-07  4.783577e-08  0 
 1.983972e-07  4.259776e-08  0 
 2.755140e-07  5.895249e-08  0 
VECTORS displacement_ITER3 FLOAT
 -4.159246e-08  -6.314517e-08  0 
 6.361430e-07  5.884166e-08  0 
 -1.445454e-08  -3.964068e-08  0 
 6.164407e-09  -2.877465e-08  0 
 5.966292e-09  2.856986e-08  0 
 -1.465035e-08  3.946467e-08  0 
 -4.174894e-08  6.270689e-08  0 
 5.519537e-08  3.311237e-08  0 
 -8.844705e-08  2.419461e-08  0 
 -8.858490e-08  -2.425532e-08  0 
 5.478157e-08  -3.326697e-08  0 
 6.368588e-07  -5.798216e-08  0 
 -3.878768e-09  -8.095342e-08  0 
 8.549412e-08  -1.050544e-07  0 
 2.804290e-07  -7.589217e-08  0 
 -4.343788e-08  -5.378624e-08  0 
 -2.157107e-08  -5.621983e-08  0 
 -2.651642e-08  -7.736584e-08  0 
 -9.868366e-09  -3.986396e-08  0 
 -5.755851e-09  -3.851585e-08  0 
 -7.380485e-10  -3.520649e-08  0 
 2.712604e-08  -6.322721e-08  0 
 -1.035026e-08  -9.508644e-11  0 
 2.712613e-08  6.296867e-08  0 
 -9.396909e-10  3.500491e-08  0 
 -5.956264e-09  3.831792e-08  0 
 -1.006700e-08  3.967609e-08  0 
 -2.659913e-08  7.765614e-08  0 
 -2.120076e-08  5.662810e-08  0 
 -4.291072e-08  5.371229e-08  0 
 -1.171940e-08  -5.388848e-08  0 
 2.907327e-09  -5.709024e-08  0 
 2.846082e-08  -3.311991e-08  0 
 5.331738e-07  7.273748e-08  0 
 3.940363e-07  6.897200e-08  0 
 2.676641e-07  2.572649e-08  0 
 1.343083e-09  -5.232653e-08  0 
 -1.658515e-08  -5.333232e-08  0 
 -4.271135e-08  -3.214262e-08  0 
 1.852014e-08  3.361747e-08  0 
 -1.452691e-08  3.064013e-08  0 
 -4.602548e-08  2.954074e-08  0 
 1.144885e-09  5.212447e-08  0 
 -1.677500e-08  5.313612e-08  0 
 -4.287240e-08  3.197684e-08  0 
 -4.161496e-08  -6.875411e-08  0 
 -4.158410e-08  -1.179301e-09  0 
 -4.065328e-08  6.670968e-08  0 
 -1.191472e-08  5.369504e-08  0 
 2.688826e-09  5.691121e-08  0 
 2.819022e-08  3.292602e-08  0 
 -4.635859e-08  -2.949801e-08  0 
 -1.481485e-08  -3.054055e-08  0 
 1.829622e-08  -3.368337e-08  0 
 -3.512253e-09  8.132653e-08  0 
 8.670788e-08  1.048633e-07  0 
 2.825789e-07  7.371506e-08  0 
 2.678535e-07  -3.109619e-08  0 
 3.977673e-07  -7.312659e-08  0 
 5.368789e-07  -7.380256e-08  0 
 6.258091e-09  -8.360610e-08  0 
 5.720276e-09  -7.995835e-08  0 
 1.018896e-09  -6.516899e-08  0 
 8.022558e-08  -1.016235e-07  0 
 6.296156e-08  -9.414451e-08  0 
 3.781873e-08  -8.051725e-08  0 
 2.384256e-07  -7.919462e-08  0 
 1.761102e-07  -7.618925e-08  0 
 9.602726e-08  -5.948585e-08  0 
 -8.344341e-09  -5.304978e-08  0 
 -5.961599e-09  -5.225219e-08  0 
 -3.363446e-09  -5.175321e-08  0 
 -1.679533e-09  -5.643714e-08  0 
 -7.042447e-09  -5.568835e-08  0 
 -1.187118e-08  -5.448368e-08  0 
 9.081793e-09  -3.227773e-08  0 
 -1.021950e-08  -3.151007e-08  0 
 -2.889922e-08  -3.252173e-08  0 
 -5.445376e-09  -1.713224e-08  0 
 -1.746740e-09  -1.148706e-10  0 
 -5.559254e-09  1.693135e-08  0 
 -2.072135e-08  -2.913944e-08  0 
 -2.670851e-08  -8.777692e-11  0 
 -2.081425e-08  2.895002e-08  0 
 -5.068985e-08  1.450205e-09  0 
 -4.069934e-08  -8.551775e-11  0 
 -5.077209e-08  -1.601918e-09  0 
 -3.562805e-09  5.155284e-08  0 
 -6.162310e-09  5.205570e-08  0 
 -8.544061e-09  5.285583e-08  0 
 -1.207534e-08  5.428293e-08  0 
 -7.252641e-09  5.548634e-08  0 
 -1.892839e-09  5.624373e-08  0 
 -2.907366e-08  3.236361e-08  0 
 -1.046366e-08  3.135313e-08  0 
 8.782516e-09  3.211451e-08  0 
 1.016101e-09  6.505341e-08  0 
 5.915149e-09  7.994822e-08  0 
 6.572448e-09  8.383641e-08  0 
 3.782391e-08  8.030951e-08  0 
 6.319432e-08  9.396858e-08  0 
 8.085541e-08  1.014346e-07  0 
 9.649926e-08  5.963415e-08  0 
 1.772455e-07  7.556389e-08  0 
 2.401550e-07  7.755092e-08  0 
VECTORS displacement_ITER4 FLOAT
 -3.277918e-08  -3.952093e-08  0 
 4.622795e-07  8.936392e-09  0 
 -2.105921e-08  -2.342392e-08  0 
 1.185563e-08  -9.052668e-09  0 
 1.228641e-08  9.189241e-09  0 
 -2.074120e-08  2.351734e-08  0 
 -3.265685e-08  4.020110e-08  0 
 5.472899e-08  2.086005e-08  0 
 -8.008241e-08  6.203538e-09  0 
 -7.962305e-08  -5.892064e-09  0 
 5.518614e-08  -2.043013e-08  0 
 4.613332e-07  -1.024790e-08  0 
 -1.237305e-08  -6.417465e-08  0 
 4.461877e-08  -8.314489e-08  0 
 1.816560e-07  -8.852835e-08  0 
 -2.608046e-08  -4.614685e-08  0 
 -2.833261e-08  -4.669823e-08  0 
 -1.749351e-08  -4.312274e-08  0 
 -1.411344e-08  -2.308541e-08  0 
 -7.217689e-09  -2.099490e-08  0 
 6.887739e-10  -1.664762e-08  0 
 2.605018e-08  1.849841e-09  0 
 5.539075e-08  3.245242e-10  0 
 2.633884e-08  -1.290605e-09  0 
 1.094436e-09  1.677486e-08  0 
 -6.841192e-09  2.111197e-08  0 
 -1.376651e-08  2.319075e-08  0 
 -1.741735e-08  4.249664e-08  0 
 -2.894866e-08  4.606610e-08  0 
 -2.684697e-08  4.630002e-08  0 
 -1.859987e-08  -4.335945e-08  0 
 -4.730831e-09  -5.509414e-08  0 
 2.193168e-08  -4.126120e-08  0 
 3.722181e-07  -2.274218e-09  0 
 2.989217e-07  -1.320548e-08  0 
 1.976100e-07  -2.256719e-08  0 
 7.350935e-09  -4.280926e-08  0 
 -1.016065e-08  -5.251879e-08  0 
 -3.568230e-08  -3.858490e-08  0 
 1.781363e-08  1.896320e-08  0 
 -1.250691e-08  1.612935e-08  0 
 -4.250378e-08  1.353411e-08  0 
 7.774237e-09  4.300645e-08  0 
 -9.737977e-09  5.278244e-08  0 
 -3.526048e-08  3.889099e-08  0 
 -7.880357e-08  4.320495e-08  0 
 -1.299146e-07  2.197817e-10  0 
 -7.892581e-08  -4.313717e-08  0 
 -1.829227e-08  4.353777e-08  0 
 -4.418813e-09  5.534662e-08  0 
 2.229115e-08  4.161035e-08  0 
 -4.202767e-08  -1.323226e-08  0 
 -1.208205e-08  -1.583229e-08  0 
 1.823746e-08  -1.860360e-08  0 
 -1.276167e-08  6.374548e-08  0 
 4.359966e-08  8.326061e-08  0 
 1.797682e-07  9.042122e-08  0 
 1.983774e-07  2.650584e-08  0 
 2.957324e-07  1.727781e-08  0 
 3.681730e-07  2.935525e-09  0 
 -6.473062e-09  -6.191892e-08  0 
 -5.087901e-09  -5.967274e-08  0 
 -1.187265e-08  -5.302290e-08  0 
 4.577201e-08  -8.315849e-08  0 
 3.706578e-08  -7.848487e-08  0 
 1.991345e-08  -6.926056e-08  0 
 1.627518e-07  -8.353331e-08  0 
 1.219139e-07  -7.599667e-08  0 
 7.410215e-08  -6.186781e-08  0 
 -1.237803e-08  -4.280788e-08  0 
 -6.918958e-09  -4.224761e-08  0 
 -9.092713e-10  -4.200900e-08  0 
 -5.449673e-09  -5.481068e-08  0 
 -7.161604e-09  -5.427880e-08  0 
 -8.626588e-09  -5.331529e-08  0 
 6.437735e-09  -3.985599e-08  0 
 -9.784284e-09  -3.911059e-08  0 
 -2.503111e-08  -3.971357e-08  0 
 1.387015e-08  -2.421590e-08  0 
 1.186938e-08  1.136314e-10  0 
 1.410396e-08  2.443040e-08  0 
 -1.245352e-08  -2.496432e-08  0 
 -1.354335e-08  1.360058e-10  0 
 -1.224179e-08  2.521339e-08  0 
 -5.535470e-08  -2.668735e-08  0 
 -5.440601e-08  8.798427e-11  0 
 -5.509803e-08  2.699528e-08  0 
 -5.099682e-10  4.220269e-08  0 
 -6.546565e-09  4.243560e-08  0 
 -1.203629e-08  4.298990e-08  0 
 -8.221085e-09  5.358033e-08  0 
 -6.780427e-09  5.454236e-08  0 
 -5.099286e-09  5.506948e-08  0 
 -2.461825e-08  4.002216e-08  0 
 -9.368958e-09  3.943304e-08  0 
 6.837729e-09  4.019362e-08  0 
 -1.182502e-08  5.318587e-08  0 
 -5.287846e-09  5.969912e-08  0 
 -6.823264e-09  6.166067e-08  0 
 1.997061e-08  6.946606e-08  0 
 3.689117e-08  7.870095e-08  0 
 4.527303e-08  8.330325e-08  0 
 7.366829e-08  6.191886e-08  0 
 1.209831e-07  7.625610e-08  0 
 1.612923e-07  8.485489e-08  0 
VECTORS displacement_ITER5 FLOAT
 -2.798849e-08  -7.643107e-08  0 
 5.994082e-07  -1.576527e-08  0 
 -7.361160e-09  -8.583954e-08  0 
 1.418712e-08  -6.973692e-08  0 
 1.297965e-08  6.957211e-08  0 
 -8.208774e-09  8.577812e-08  0 
 -2.832039e-08  7.470083e-08  0 
 6.776517e-08  -4.196791e-08  0 
 -7.593657e-08  -4.802345e-08  0 
 -7.728514e-08  4.702522e-08  0 
 6.679708e-08  4.074705e-08  0 
 5.993042e-07  1.857590e-08  0 
 -1.608228e-08  -1.104311e-07  0 
 6.213618e-08  -1.545294e-07  0 
 2.492882e-07  -1.399728e-07  0 
 -2.314798e-08  -6.442899e-08  0 
 -1.056656e-09  -5.428605e-08  0 
 2.088833e-08  -5.847138e-08  0 
 -4.136191e-09  -8.464881e-08  0 
 -6.947985e-11  -8.190486e-08  0 
 5.303060e-09  -7.693655e-08  0 
 -2.028802e-08  -4.730899e-08  0 
 -3.648734e-08  -1.128543e-09  0 
 -2.143102e-08  4.564648e-08  0 
 4.184264e-09  7.679333e-08  0 
 -1.096277e-09  8.178365e-08  0 
 -5.071953e-09  8.455596e-08  0 
 2.067051e-08  6.021886e-08  0 
 5.927719e-10  5.585060e-08  0 
 -2.121329e-08  6.394764e-08  0 
 -8.272580e-09  -9.825249e-08  0 
 1.513491e-09  -1.099001e-07  0 
 2.532632e-08  -1.000853e-07  0 
 4.959081e-07  3.411682e-09  0 
 3.402296e-07  1.681186e-08  0 
 1.589335e-07  -5.639273e-09  0 
 1.127145e-08  -9.673896e-08  0 
 -2.281803e-09  -1.061552e-07  0 
 -2.866010e-08  -9.575065e-08  0 
 2.471006e-08  -4.303976e-08  0 
 -6.598709e-09  -4.381702e-08  0 
 -3.823831e-08  -4.465097e-08  0 
 1.009901e-08  9.636844e-08  0 
 -3.450383e-09  1.055911e-07  0 
 -2.990474e-08  9.499129e-08  0 
 -1.387280e-07  -2.130944e-08  0 
 -1.005995e-07  6.934169e-10  0 
 -1.399886e-07  2.285816e-08  0 
 -9.087195e-09  9.793072e-08  0 
 7.029119e-10  1.093436e-07  0 
 2.448391e-08  9.923133e-08  0 
 -3.953089e-08  4.363856e-08  0 
 -7.715379e-09  4.286685e-08  0 
 2.374026e-08  4.197331e-08  0 
 -1.520391e-08  1.113741e-07  0 
 6.400735e-08  1.540793e-07  0 
 2.522800e-07  1.358713e-07  0 
 1.577153e-07  -8.047123e-10  0 
 3.450246e-07  -2.479623e-08  0 
 5.026313e-07  -4.643010e-09  0 
 -8.936362e-11  -1.135190e-07  0 
 5.374059e-09  -1.148356e-07  0 
 1.188646e-09  -1.089051e-07  0 
 6.441317e-08  -1.512308e-07  0 
 5.402743e-08  -1.429841e-07  0 
 3.186764e-08  -1.306038e-07  0 
 2.121008e-07  -1.441135e-07  0 
 1.564138e-07  -1.436859e-07  0 
 9.610960e-08  -1.256772e-07  0 
 -3.719033e-09  -9.806401e-08  0 
 1.939424e-10  -9.744626e-08  0 
 4.840772e-09  -9.684341e-08  0 
 1.109692e-09  -1.094309e-07  0 
 -2.402073e-10  -1.088933e-07  0 
 -1.580038e-09  -1.076476e-07  0 
 1.269359e-08  -9.863464e-08  0 
 -2.990782e-09  -9.714635e-08  0 
 -1.779693e-08  -9.688619e-08  0 
 1.032561e-08  -4.259022e-08  0 
 8.041699e-09  -2.007765e-10  0 
 9.684193e-09  4.216241e-08  0 
 -7.216669e-09  -5.473439e-08  0 
 -5.593095e-09  -3.033325e-10  0 
 -7.800261e-09  5.417976e-08  0 
 -3.921290e-08  -4.754390e-08  0 
 -5.671563e-08  -2.877450e-10  0 
 -3.990779e-08  4.675948e-08  0 
 3.744504e-09  9.648566e-08  0 
 -8.180775e-10  9.710477e-08  0 
 -4.638190e-09  9.773601e-08  0 
 -2.688670e-09  1.070796e-07  0 
 -1.264255e-09  1.083251e-07  0 
 1.898933e-10  1.088672e-07  0 
 -1.894339e-08  9.611748e-08  0 
 -4.064893e-09  9.633999e-08  0 
 1.170233e-08  9.779895e-08  0 
 9.913304e-10  1.084839e-07  0 
 5.748214e-09  1.147140e-07  0 
 6.477140e-10  1.140764e-07  0 
 3.156413e-08  1.300836e-07  0 
 5.413486e-08  1.423308e-07  0 
 6.519282e-08  1.507005e-07  0 
 9.650369e-08  1.250653e-07  0 
 1.577899e-07  1.429162e-07  0 
 2.142518e-07  1.412246e-07  0 
VECTORS displacement_ITER6 FLOAT
 -3.235635e-08  -5.495740e-08  0 
 6.006855e-07  1.686093e-08  0 
 -2.193973e-08  -5.560947e-08  0 
 8.866458e-09  -3.619218e-08  0 
 1.006795e-08  3.620549e-08  0 
 -2.111074e-08  5.552928e-08  0 
 -3.196837e-08  5.659746e-08  0 
 7.656896e-08  9.791251e-09  0 
 -1.061495e-07  2.646627e-09  0 
 -1.048740e-07  -1.783441e-09  0 
 7.745598e-08  -8.820389e-09  0 
 6.005218e-07  -1.858087e-08  0 
 -1.625687e-08  -8.982823e-08  0 
 5.890025e-08  -1.185581e-07  0 
 2.371716e-07  -1.245530e-07  0 
 -2.223228e-08  -5.891109e-08  0 
 -2.675192e-08  -6.240134e-08  0 
 -3.662103e-08  -4.369087e-08  0 
 -1.656798e-08  -5.476512e-08  0 
 -1.042141e-08  -5.177446e-08  0 
 -2.580534e-09  -4.545734e-08  0 
 3.488106e-08  1.106786e-08  0 
 4.443953e-08  1.339848e-09  0 
 3.633298e-08  -9.314912e-09  0 
 -1.478023e-09  4.545079e-08  0 
 -9.413136e-09  5.174986e-08  0 
 -1.565032e-08  5.471569e-08  0 
 -3.639916e-08  4.188937e-08  0 
 -2.836607e-08  6.083371e-08  0 
 -2.410351e-08  5.935703e-08  0 
 -2.129618e-08  -7.441140e-08  0 
 -5.120942e-09  -8.660624e-08  0 
 2.753496e-08  -6.806415e-08  0 
 4.700414e-07  2.170414e-09  0 
 3.590100e-07  -1.456503e-08  0 
 2.392682e-07  1.824079e-08  0 
 5.164491e-09  -7.348680e-08  0 
 -1.539698e-08  -8.369025e-08  0 
 -4.981837e-08  -6.537534e-08  0 
 2.304349e-08  1.073933e-08  0 
 -1.623064e-08  8.584746e-09  0 
 -5.563114e-08  5.914264e-09  0 
 6.315500e-09  7.371819e-08  0 
 -1.426653e-08  8.410057e-08  0 
 -4.861190e-08  6.597873e-08  0 
 -2.059410e-07  -3.776427e-09  0 
 -2.048514e-07  -1.221924e-09  0 
 -2.040784e-07  2.604848e-09  0 
 -2.049959e-08  7.459289e-08  0 
 -4.324726e-09  8.701491e-08  0 
 2.835027e-08  6.873502e-08  0 
 -5.441969e-08  -5.045221e-09  0 
 -1.513795e-08  -7.762843e-09  0 
 2.396141e-08  -9.853881e-09  0 
 -1.699604e-08  8.888415e-08  0 
 5.757526e-08  1.188712e-07  0 
 2.351249e-07  1.274563e-07  0 
 2.397695e-07  -1.355738e-08  0 
 3.559931e-07  1.998563e-08  0 
 4.654179e-07  -9.013964e-10  0 
 -7.763413e-09  -8.804249e-08  0 
 -6.097094e-09  -8.446740e-08  0 
 -8.457482e-09  -8.549603e-08  0 
 6.126660e-08  -1.187979e-07  0 
 4.969844e-08  -1.161754e-07  0 
 2.674763e-08  -1.027570e-07  0 
 2.116427e-07  -1.173874e-07  0 
 1.616563e-07  -1.033973e-07  0 
 9.572154e-08  -9.626868e-08  0 
 -1.506762e-08  -7.395502e-08  0 
 -9.919852e-09  -7.326216e-08  0 
 -3.833381e-09  -7.287020e-08  0 
 -7.103177e-09  -8.631009e-08  0 
 -1.009127e-08  -8.603826e-08  0 
 -1.303463e-08  -8.504505e-08  0 
 8.950199e-09  -6.668342e-08  0 
 -1.300913e-08  -6.507425e-08  0 
 -3.387055e-08  -6.541608e-08  0 
 1.163271e-08  -4.205906e-08  0 
 1.668837e-08  1.015640e-10  0 
 1.225961e-08  4.234699e-08  0 
 -2.052979e-08  -4.189295e-08  0 
 -2.133024e-08  2.074941e-10  0 
 -1.998152e-08  4.232059e-08  0 
 -6.825603e-08  -3.534525e-08  0 
 -8.208160e-08  3.574791e-10  0 
 -6.761606e-08  3.589203e-08  0 
 -2.758191e-09  7.308693e-08  0 
 -8.928583e-09  7.346161e-08  0 
 -1.416785e-08  7.414137e-08  0 
 -1.196168e-08  8.545769e-08  0 
 -9.097640e-09  8.645325e-08  0 
 -6.207241e-09  8.672389e-08  0 
 -3.276363e-08  6.603112e-08  0 
 -1.198854e-08  6.571167e-08  0 
 9.893637e-09  6.733833e-08  0 
 -8.234981e-09  8.581065e-08  0 
 -6.378499e-09  8.452999e-08  0 
 -8.348312e-09  8.745529e-08  0 
 2.712009e-08  1.031313e-07  0 
 4.974918e-08  1.166059e-07  0 
 6.076777e-08  1.191794e-07  0 
 9.568680e-08  9.677332e-08  0 
 1.607587e-07  1.041039e-07  0 
 2.102148e-07  1.194060e-07  0 
VECTORS displacement_ITER7 FLOAT
 -3.904330e-08  -6.465263e-08  0 
 6.250117e-07  -9.417602e-09  0 
 -2.343682e-08  -5.625285e-08  0 
 1.806638e-08  -3.430497e-08  0 
 1.648561e-08  3.438358e-08  0 
 -2.460530e-08  5.644632e-08  0 
 -3.949518e-08  6.259730e-08  0 
 8.559017e-08  -2.584535e-09  0 
 -1.106850e-07  -1.201193e-08  0 
 -1.122415e-07  1.126626e-08  0 
 8.439542e-08  1.755896e-09  0 
 6.258725e-07  1.043597e-08  0 
 -2.316702e-08  -9.804120e-08  0 
 6.134041e-08  -1.354990e-07  0 
 2.537407e-07  -1.311190e-07  0 
 -3.677005e-08  -6.122980e-08  0 
 -2.602974e-08  -5.682749e-08  0 
 -2.754570e-08  -6.711936e-08  0 
 -1.570100e-08  -5.507597e-08  0 
 -7.137383e-09  -5.152759e-08  0 
 3.484888e-09  -4.492515e-08  0 
 3.218840e-08  -2.863686e-08  0 
 1.863046e-08  -1.987973e-09  0 
 2.996801e-08  2.619978e-08  0 
 2.022579e-09  4.502909e-08  0 
 -8.496250e-09  5.165368e-08  0 
 -1.696282e-08  5.523096e-08  0 
 -2.797585e-08  6.972093e-08  0 
 -2.393326e-08  5.919770e-08  0 
 -3.421843e-08  6.083917e-08  0 
 -2.278163e-08  -8.126934e-08  0 
 -5.287633e-09  -9.942438e-08  0 
 3.096654e-08  -8.364560e-08  0 
 5.117669e-07  -3.061255e-09  0 
 3.758022e-07  2.511136e-09  0 
 2.503069e-07  -1.162370e-08  0 
 1.357790e-08  -8.044241e-08  0 
 -8.980055e-09  -9.589585e-08  0 
 -4.627686e-08  -8.039068e-08  0 
 2.965658e-08  -1.275902e-09  0 
 -1.447163e-08  -4.653660e-09  0 
 -5.622338e-08  -6.424172e-09  0 
 1.208115e-08  8.027874e-08  0 
 -1.042558e-08  9.556669e-08  0 
 -4.779416e-08  7.987513e-08  0 
 -1.508587e-07  -3.051378e-08  0 
 -1.892412e-07  1.806120e-09  0 
 -1.533838e-07  3.193203e-08  0 
 -2.390328e-08  8.117666e-08  0 
 -6.412075e-09  9.908902e-08  0 
 2.980230e-08  8.308615e-08  0 
 -5.771910e-08  5.637991e-09  0 
 -1.590518e-08  3.914011e-09  0 
 2.837533e-08  5.346791e-10  0 
 -2.233936e-08  9.939848e-08  0 
 6.243957e-08  1.353391e-07  0 
 2.555197e-07  1.287129e-07  0 
 2.494944e-07  7.361709e-09  0 
 3.783800e-07  -7.187602e-09  0 
 5.159716e-07  1.517080e-09  0 
 -9.980652e-09  -9.900584e-08  0 
 -7.027132e-09  -9.839009e-08  0 
 -1.050015e-08  -9.057367e-08  0 
 6.306509e-08  -1.338940e-07  0 
 5.097211e-08  -1.285781e-07  0 
 2.791727e-08  -1.178738e-07  0 
 2.236746e-07  -1.301863e-07  0 
 1.710529e-07  -1.234305e-07  0 
 1.005072e-07  -1.067740e-07  0 
 -1.414322e-08  -8.078374e-08  0 
 -6.573072e-09  -8.006045e-08  0 
 1.908207e-09  -7.960066e-08  0 
 -5.422306e-09  -9.902773e-08  0 
 -6.859855e-09  -9.868955e-08  0 
 -8.105781e-09  -9.745399e-08  0 
 1.198700e-08  -8.248256e-08  0 
 -9.913842e-09  -8.063398e-08  0 
 -3.113591e-08  -8.112107e-08  0 
 1.556598e-08  -3.760813e-08  0 
 1.894956e-08  -3.035276e-11  0 
 1.475799e-08  3.736914e-08  0 
 -1.253774e-08  -4.878560e-08  0 
 -1.614551e-08  -1.564530e-10  0 
 -1.323130e-08  4.843414e-08  0 
 -6.677033e-08  -3.830749e-08  0 
 -6.666743e-08  -3.829090e-10  0 
 -6.755628e-08  3.791391e-08  0 
 4.887754e-10  7.945825e-08  0 
 -7.904197e-09  7.994139e-08  0 
 -1.537732e-08  8.068289e-08  0 
 -9.500401e-09  9.712183e-08  0 
 -8.180821e-09  9.835445e-08  0 
 -6.647726e-09  9.869138e-08  0 
 -3.256190e-08  8.059653e-08  0 
 -1.124808e-08  8.009135e-08  0 
 1.072363e-08  8.192634e-08  0 
 -1.088742e-08  9.028735e-08  0 
 -6.790046e-09  9.839556e-08  0 
 -9.374375e-09  9.987681e-08  0 
 2.726263e-08  1.176039e-07  0 
 5.068905e-08  1.283231e-07  0 
 6.335082e-08  1.336779e-07  0 
 1.002275e-07  1.064072e-07  0 
 1.716181e-07  1.228335e-07  0 
 2.248400e-07  1.285439e-07  0 
VECTORS displacement_ITER8 FLOAT
 -4.476774e-08  -7.381422e-08  0 
 6.899135e-07  -6.266338e-09  0 
 -2.441924e-08  -7.589074e-08  0 
 1.901284e-08  -5.101975e-08  0 
 2.135574e-08  5.083115e-08  0 
 -2.251809e-08  7.553752e-08  0 
 -4.405623e-08  7.694113e-08  0 
 9.814450e-08  -1.583155e-08  0 
 -1.256814e-07  -2.285369e-08  0 
 -1.235530e-07  2.332074e-08  0 
 1.000403e-07  1.628068e-08  0 
 6.881280e-07  6.265321e-09  0 
 -2.630571e-08  -1.206931e-07  0 
 6.951715e-08  -1.614499e-07  0 
 2.841248e-07  -1.546374e-07  0 
 -3.655764e-08  -7.453202e-08  0 
 -3.138132e-08  -7.142826e-08  0 
 -1.689986e-08  -7.661032e-08  0 
 -1.671513e-08  -7.451467e-08  0 
 -7.687270e-09  -7.041047e-08  0 
 3.327362e-09  -6.296005e-08  0 
 2.081313e-08  -2.639877e-08  0 
 3.463549e-08  3.179144e-09  0 
 2.438829e-08  3.017824e-08  0 
 5.526697e-09  6.273518e-08  0 
 -5.597890e-09  7.015411e-08  0 
 -1.472306e-08  7.421884e-08  0 
 -1.595044e-08  7.228550e-08  0 
 -3.458275e-08  6.729869e-08  0 
 -4.066670e-08  7.488204e-08  0 
 -2.450787e-08  -1.022210e-07  0 
 -5.733344e-09  -1.224196e-07  0 
 3.459167e-08  -1.055713e-07  0 
 5.595653e-07  -7.446105e-09  0 