# vtk DataFile Version 3.1
this is an vtk file created by FEMAC
ASCII
DATASET UNSTRUCTURED_GRID
POINTS 105 FLOAT
3.000000 0.000000 0.000000
3.500000 0.000000 0.000000
3.000000 0.200000 0.000000
3.000000 0.400000 0.000000
3.000000 0.600000 0.000000
3.000000 0.800000 0.000000
3.000000 1.000000 0.000000
3.500000 0.200000 0.000000
3.500000 0.400000 0.000000
3.500000 0.600000 0.000000
3.500000 0.800000 0.000000
3.500000 1.000000 0.000000
3.125000 0.000000 0.000000
3.250000 0.000000 0.000000
3.375000 0.000000 0.000000
3.000000 0.050000 0.000000
3.000000 0.100000 0.000000
3.000000 0.150000 0.000000
3.000000 0.250000 0.000000
3.000000 0.300000 0.000000
3.000000 0.350000 0.000000
3.000000 0.450000 0.000000
3.000000 0.500000 0.000000
3.000000 0.550000 0.000000
3.000000 0.650000 0.000000
3.000000 0.700000 0.000000
3.000000 0.750000 0.000000
3.000000 0.850000 0.000000
3.000000 0.900000 0.000000
3.000000 0.950000 0.000000
3.125000 0.200000 0.000000
3.250000 0.200000 0.000000
3.375000 0.200000 0.000000
3.500000 0.050000 0.000000
3.500000 0.100000 0.000000
3.500000 0.150000 0.000000
3.125000 0.400000 0.000000
3.250000 0.400000 0.000000
3.375000 0.400000 0.000000
3.500000 0.250000 0.000000
3.500000 0.300000 0.000000
3.500000 0.350000 0.000000
3.125000 0.600000 0.000000
3.250000 0.600000 0.000000
3.375000 0.600000 0.000000
3.500000 0.450000 0.000000
3.500000 0.500000 0.000000
3.500000 0.550000 0.000000
3.125000 0.800000 0.000000
3.250000 0.800000 0.000000
3.375000 0.800000 0.000000
3.500000 0.650000 0.000000
3.500000 0.700000 0.000000
3.500000 0.750000 0.000000
3.125000 1.000000 0.000000
3.250000 1.000000 0.000000
3.375000 1.000000 0.000000
3.500000 0.850000 0.000000
3.500000 0.900000 0.000000
3.500000 0.950000 0.000000
3.125000 0.050000 0.000000
3.125000 0.100000 0.000000
3.125000 0.150000 0.000000
3.250000 0.050000 0.000000
3.250000 0.100000 0.000000
3.250000 0.150000 0.000000
3.375000 0.050000 0.000000
3.375000 0.100000 0.000000
3.375000 0.150000 0.000000
3.125000 0.250000 0.000000
3.125000 0.300000 0.000000
3.125000 0.350000 0.000000
3.250000 0.250000 0.000000
3.250000 0.300000 0.000000
3.250000 0.350000 0.000000
3.375000 0.250000 0.000000
3.375000 0.300000 0.000000
3.375000 0.350000 0.000000
3.125000 0.450000 0.000000
3.125000 0.500000 0.000000
3.125000 0.550000 0.000000
3.250000 0.450000 0.000000
3.250000 0.500000 0.000000
3.250000 0.550000 0.000000
3.375000 0.450000 0.000000
3.375000 0.500000 0.000000
3.375000 0.550000 0.000000
3.125000 0.650000 0.000000
3.125000 0.700000 0.000000
3.125000 0.750000 0.000000
3.250000 0.650000 0.000000
3.250000 0.700000 0.000000
3.250000 0.750000 0.000000
3.375000 0.650000 0.000000
3.375000 0.700000 0.000000
3.375000 0.750000 0.000000
3.125000 0.850000 0.000000
3.125000 0.900000 0.000000
3.125000 0.950000 0.000000
3.250000 0.850000 0.000000
3.250000 0.900000 0.000000
3.250000 0.950000 0.000000
3.375000 0.850000 0.000000
3.375000 0.900000 0.000000
3.375000 0.950000 0.000000
CELLS 80 400 
4 0 12 60 15
4 15 60 61 16
4 16 61 62 17
4 17 62 30  2
4 12 13 63 60
4 60 63 64 61
4 61 64 65 62
4 62 65 31 30
4 13 14 66 63
4 63 66 67 64
4 64 67 68 65
4 65 68 32 31
4 14  1 33 66
4 66 33 34 67
4 67 34 35 68
4 68 35  7 32
4 2 30 69 18
4 18 69 70 19
4 19 70 71 20
4 20 71 36  3
4 30 31 72 69
4 69 72 73 70
4 70 73 74 71
4 71 74 37 36
4 31 32 75 72
4 72 75 76 73
4 73 76 77 74
4 74 77 38 37
4 32  7 39 75
4 75 39 40 76
4 76 40 41 77
4 77 41  8 38
4 3 36 78 21
4 21 78 79 22
4 22 79 80 23
4 23 80 42  4
4 36 37 81 78
4 78 81 82 79
4 79 82 83 80
4 80 83 43 42
4 37 38 84 81
4 81 84 85 82
4 82 85 86 83
4 83 86 44 43
4 38  8 45 84
4 84 45 46 85
4 85 46 47 86
4 86 47  9 44
4 4 42 87 24
4 24 87 88 25
4 25 88 89 26
4 26 89 48  5
4 42 43 90 87
4 87 90 91 88
4 88 91 92 89
4 89 92 49 48
4 43 44 93 90
4 90 93 94 91
4 91 94 95 92
4 92 95 50 49
4 44  9 51 93
4 93 51 52 94
4 94 52 53 95
4 95 53 10 50
4 5 48 96 27
4 27 96 97 28
4 28 97 98 29
4 29 98 54  6
4 48 49 99 96
4 96  99 100  97
4 97 100 101  98
4 98 101  55  54
4 49  50 102  99
4 99 102 103 100
4 100 103 104 101
4 101 104  56  55
4 50  10  57 102
4 102  57  58 103
4 103  58  59 104
4 104  59  11  56
CELL_TYPES 80
9 9 9 9 9 9 9 9 9 9 9 9 9 9 9 9 9 9 9 9 9 9 9 9 9 9 9 9 9 9 9 9 9 9 9 9 9 9 9 9 9 9 9 9 9 9 9 9 9 9 9 9 9 9 9 9 9 9 9 9 9 9 9 9 9 9 9 9 9 9 9 9 9 9 9 9 9 9 9 9 
POINT_DATA 105
VECTORS displacement_ITER1 FLOAT
 1.198219e-09  -9.744643e-12  0 
 1.298702e-09  2.345968e-09  0 
 2.460743e-10  8.282193e-12  0 
 -7.422630e-10  -5.851146e-11  0 
 -7.441124e-10  5.463940e-11  0 
 2.496584e-10  -8.644502e-12  0 
 1.197593e-09  9.523395e-12  0 
 4.063356e-10  2.294373e-09  0 
 -9.863371e-10  -5.229104e-11  0 
 -9.883085e-10  5.518090e-11  0 
 4.090567e-10  -2.285913e-09  0 
 1.298376e-09  -2.337621e-09  0 
 1.219177e-09  5.731974e-10  0 
 1.251696e-09  1.165994e-09  0 
 1.278967e-09  1.764341e-09  0 
 9.645502e-10  -1.072904e-11  0 
 7.299976e-10  -1.121009e-11  0 
 4.926282e-10  -6.094506e-12  0 
 -1.195224e-10  4.418905e-10  0 
 3.168050e-11  6.460335e-10  0 
 8.762052e-11  1.317844e-10  0 
 -7.745832e-10  -3.152432e-11  0 
 -7.840683e-10  -1.888897e-12  0 
 -7.754217e-10  2.773818e-11  0 
 7.515592e-11  -1.288208e-10  0 
 2.940847e-11  -6.274000e-10  0 
 -1.073348e-10  -4.328913e-10  0 
 4.950840e-10  5.869102e-12  0 
 7.313509e-10  1.105827e-11  0 
 9.648595e-10  1.057431e-11  0 
 2.775002e-10  5.712633e-10  0 
 2.913762e-10  1.148892e-09  0 
 3.308588e-10  1.760055e-09  0 
 1.048700e-09  2.361369e-09  0 
 8.311306e-10  2.378916e-09  0 
 6.319294e-10  2.354629e-09  0 
 -7.808651e-10  1.807850e-11  0 
 -8.402863e-10  2.153802e-11  0 
 -9.200751e-10  3.537130e-11  0 
 3.977553e-10  2.242580e-09  0 
 -5.580560e-10  2.154907e-09  0 
 -1.525874e-09  1.028224e-09  0 
 -7.823210e-10  -1.958546e-11  0 
 -8.412409e-10  -2.180138e-11  0 
 -9.214217e-10  -3.450218e-11  0 
 -9.727149e-10  -1.905266e-11  0 
 -9.666138e-10  1.356080e-12  0 
 -9.737228e-10  2.194943e-11  0 
 2.807822e-10  -5.688062e-10  0 
 2.942906e-10  -1.144404e-09  0 
 3.338181e-10  -1.753482e-09  0 
 -1.539493e-09  -1.030209e-09  0 
 -5.627241e-10  -2.165141e-09  0 
 4.019876e-10  -2.242114e-09  0 
 1.218621e-09  -5.709039e-10  0 
 1.251294e-09  -1.161403e-09  0 
 1.278775e-09  -1.757780e-09  0 
 6.339041e-10  -2.345773e-09  0 
 8.326170e-10  -2.370054e-09  0 
 1.049533e-09  -2.352876e-09  0 
 9.836831e-10  5.736722e-10  0 
 7.460512e-10  5.744828e-10  0 
 5.082235e-10  5.742236e-10  0 
 1.011512e-09  1.164764e-09  0 
 7.732504e-10  1.161717e-09  0 
 5.354416e-10  1.157337e-09  0 
 1.046979e-09  1.763655e-09  0 
 8.068958e-10  1.761401e-09  0 
 5.632230e-10  1.758432e-09  0 
 -3.644900e-11  3.934976e-10  0 
 -3.039587e-10  2.173678e-10  0 
 -5.831406e-10  2.054365e-10  0 
 -8.015664e-11  8.439109e-10  0 
 -3.940193e-10  5.940222e-10  0 
 -6.445622e-10  2.742249e-10  0 
 -9.402537e-11  1.302501e-09  0 
 -4.381419e-10  7.587731e-10  0 
 -6.735521e-10  4.649781e-10  0 
 -7.984369e-10  6.550774e-12  0 
 -8.056314e-10  -8.390222e-13  0 
 -7.991546e-10  -8.185944e-12  0 
 -8.472463e-10  1.488732e-11  0 
 -8.488077e-10  -1.434847e-13  0 
 -8.477898e-10  -1.516127e-11  0 
 -9.070938e-10  1.296075e-11  0 
 -9.042192e-10  4.795072e-13  0 
 -9.077562e-10  -1.205446e-11  0 
 -5.834520e-10  -2.050821e-10  0 
 -3.033092e-10  -2.192624e-10  0 
 -3.488841e-11  -3.922245e-10  0 
 -6.443177e-10  -2.734683e-10  0 
 -3.928133e-10  -5.918684e-10  0 
 -7.831080e-11  -8.406558e-10  0 
 -6.738819e-10  -4.633874e-10  0 
 -4.380222e-10  -7.535740e-10  0 
 -9.236572e-11  -1.297402e-09  0 
 5.105255e-10  -5.718503e-10  0 
 7.474080e-10  -5.721536e-10  0 
 9.840997e-10  -5.713749e-10  0 
 5.375895e-10  -1.152808e-09  0 
 7.745764e-10  -1.157174e-09  0 
 1.011985e-09  -1.160194e-09  0 
 5.653778e-10  -1.751854e-09  0 
 8.081745e-10  -1.754802e-09  0 
 1.047443e-09  -1.757064e-09  0 
VECTORS displacement_ITER2 FLOAT
 1.214630e-09  7.228698e-10  0 
 1.258747e-09  3.532214e-09  0 
 2.035686e-10  7.509255e-10  0 
 1.586158e-10  3.566911e-11  0 
 1.622759e-10  -2.487961e-11  0 
 1.947826e-10  -7.484012e-10  0 
 1.213579e-09  -7.204898e-10  0 
 2.865824e-10  3.533445e-09  0 
 -4.160958e-12  4.163923e-10  0 
 -6.192992e-13  -4.199680e-10  0 
 2.788434e-10  -3.547232e-09  0 
 1.257579e-09  -3.545896e-09  0 
 1.251406e-09  1.383121e-09  0 
 1.286435e-09  2.073001e-09  0 
 1.295295e-09  2.788950e-09  0 
 9.572680e-10  7.265123e-10  0 
 6.948929e-10  7.341135e-10  0 
 4.374871e-10  7.405260e-10  0 
 5.873758e-10  5.954993e-11  0 
 -2.720629e-10  -4.870066e-10  0 
 -7.280297e-10  3.744162e-10  0 
 1.433171e-10  2.446705e-11  0 
 1.377863e-10  5.318426e-12  0 
 1.449980e-10  -1.381805e-11  0 
 -6.999451e-10  -3.786112e-10  0 
 -2.667979e-10  4.481129e-10  0 
 5.599773e-10  -7.748613e-11  0 
 4.308039e-10  -7.381826e-10  0 
 6.902618e-10  -7.319142e-10  0 
 9.545703e-10  -7.242583e-10  0 
 1.935098e-10  1.354142e-09  0 
 1.631091e-10  2.047728e-09  0 
 1.460492e-10  2.807468e-09  0 
 9.890595e-10  3.507500e-09  0 
 6.853639e-10  3.478430e-09  0 
 4.101466e-10  3.506143e-09  0 
 9.266875e-11  2.039753e-11  0 
 8.286968e-11  -3.995447e-13  0 
 1.598904e-10  6.578405e-11  0 
 1.194125e-10  3.067419e-09  0 
 1.575283e-09  2.197721e-09  0 
 2.283153e-09  2.743387e-09  0 
 9.582190e-11  -1.458274e-11  0 
 8.494460e-11  3.412300e-12  0 
 1.625854e-10  -6.515387e-11  0 
 7.697412e-11  2.164692e-10  0 
 9.822002e-11  -1.468327e-12  0 
 7.877336e-11  -2.197434e-10  0 
 1.854023e-10  -1.356680e-09  0 
 1.556720e-10  -2.053821e-09  0 
 1.382292e-10  -2.817303e-09  0 
 2.308468e-09  -2.734926e-09  0 
 1.580818e-09  -2.168155e-09  0 
 1.030327e-10  -3.058028e-09  0 
 1.250202e-09  -1.385279e-09  0 
 1.285003e-09  -2.079281e-09  0 
 1.293710e-09  -2.798984e-09  0 
 4.042443e-10  -3.520690e-09  0 
 6.804941e-10  -3.493126e-09  0 
 9.855913e-10  -3.521558e-09  0 
 9.807398e-10  1.381510e-09  0 
 7.135828e-10  1.376481e-09  0 
 4.517052e-10  1.368094e-09  0 
 1.008449e-09  2.072874e-09  0 
 7.285904e-10  2.069251e-09  0 
 4.447645e-10  2.058462e-09  0 
 1.002032e-09  2.791864e-09  0 
 7.299481e-10  2.800662e-09  0 
 4.599938e-10  2.810296e-09  0 
 -1.584094e-11  1.067900e-09  0 
 -4.997885e-11  8.616204e-10  0 
 1.730580e-11  2.519159e-10  0 
 4.322767e-11  1.578281e-09  0 
 -2.110714e-11  9.717199e-10  0 
 2.190459e-11  5.926464e-10  0 
 3.724986e-10  2.355380e-09  0 
 2.640926e-10  1.850580e-09  0 
 -1.788805e-11  6.103734e-10  0 
 1.091472e-10  1.375191e-11  0 
 1.166678e-10  3.087516e-12  0 
 1.106825e-10  -7.668866e-12  0 
 8.963389e-11  -8.162820e-12  0 
 8.622174e-11  1.530633e-12  0 
 9.081218e-11  1.120590e-11  0 
 5.719861e-11  5.404425e-11  0 
 3.141669e-11  1.904291e-13  0 
 5.849485e-11  -5.356941e-11  0 
 1.777347e-11  -2.502242e-10  0 
 -5.168710e-11  -8.547717e-10  0 
 -1.972810e-11  -1.067918e-09  0 
 2.113739e-11  -5.915611e-10  0 
 -2.418327e-11  -9.734192e-10  0 
 3.840913e-11  -1.581951e-09  0 
 -1.744195e-11  -6.106790e-10  0 
 2.628772e-10  -1.858224e-09  0 
 3.679137e-10  -2.362728e-09  0 
 4.453480e-10  -1.370466e-09  0 
 7.089251e-10  -1.378736e-09  0 
 9.777723e-10  -1.383688e-09  0 
 4.386681e-10  -2.064620e-09  0 
 7.239807e-10  -2.075437e-09  0 
 1.005411e-09  -2.079118e-09  0 
 4.537212e-10  -2.820233e-09  0 
 7.254204e-10  -2.810695e-09  0 
 9.991235e-10  -2.801918e-09  0 
VECTORS displacement_ITER3 FLOAT
 8.448344e-10  -7.552259e-11  0 
 7.709705e-10  1.416175e-09  0 
 1.738297e-10  -1.002695e-10  0 
 3.699680e-11  1.881196e-11  0 
 3.541516e-11  -2.709388e-11  0 
 1.804839e-10  9.804810e-11  0 
 8.459843e-10  7.331163e-11  0 
 3.643751e-10  1.462852e-09  0 
 4.462639e-11  5.884058e-10  0 
 4.228187e-11  -5.898969e-10  0 
 3.704923e-10  -1.452832e-09  0 
 7.720716e-10  -1.406575e-09  0 
 8.514084e-10  3.360679e-10  0 
 8.417631e-10  7.397299e-10  0 
 8.069265e-10  1.099680e-09  0 
 6.787566e-10  -7.801143e-11  0 
 5.151629e-10  -8.192197e-11  0 
 3.479081e-10  -8.555091e-11  0 
 -2.635414e-10  -1.349075e-10  0 
 1.073030e-10  1.345547e-10  0 
 1.205913e-10  -2.531374e-10  0 
 4.366202e-12  3.418963e-12  0 
 -4.180575e-12  -4.188879e-12  0 
 3.687076e-12  -1.176879e-11  0 
 1.048455e-10  2.540018e-10  0 
 1.051755e-10  -1.125604e-10  0 
 -2.459489e-10  1.452467e-10  0 
 3.530330e-10  8.342094e-11  0 
 5.188122e-10  7.989321e-11  0 
 6.810232e-10  7.587838e-11  0 
 1.964268e-10  3.344296e-10  0 
 2.297226e-10  7.335343e-10  0 
 2.807932e-10  1.103306e-09  0 
 6.349792e-10  1.420546e-09  0 
 5.382923e-10  1.410008e-09  0 
 4.401636e-10  1.380858e-09  0 
 -2.275652e-11  1.038037e-11  0 
 -5.417525e-11  -1.337128e-11  0 
 1.107943e-11  -4.492023e-11  0 
 7.513130e-10  1.873264e-09  0 
 6.442156e-10  1.813787e-09  0 
 1.095088e-09  6.610383e-10  0 
 -2.414199e-11  -1.645208e-11  0 
 -5.499188e-11  8.432355e-12  0 
 9.714787e-12  4.088819e-11  0 
 -1.078522e-10  1.949483e-10  0 
 -1.775696e-10  -1.040618e-12  0 
 -1.090331e-10  -1.968469e-10  0 
 2.025757e-10  -3.331535e-10  0 
 2.355304e-10  -7.296390e-10  0 
 2.869701e-10  -1.096595e-09  0 
 1.079683e-09  -6.685428e-10  0 
 6.402071e-10  -1.834903e-09  0 
 7.654611e-10  -1.881835e-09  0 
 8.526024e-10  -3.350443e-10  0 
 8.430677e-10  -7.356606e-10  0 
 8.083228e-10  -1.092750e-09  0 
 4.447995e-10  -1.370482e-09  0 
 5.421874e-10  -1.399490e-09  0 
 6.378380e-10  -1.410537e-09  0 
 6.880529e-10  3.358952e-10  0 
 5.243818e-10  3.347432e-10  0 
 3.616263e-10  3.335861e-10  0 
 6.882165e-10  7.395657e-10  0 
 5.377435e-10  7.391332e-10  0 
 3.828453e-10  7.354157e-10  0 
 6.770205e-10  1.101160e-09  0 
 5.427111e-10  1.106803e-09  0 
 4.184940e-10  1.118141e-09  0 
 1.256624e-10  2.313522e-10  0 
 -5.891054e-12  6.455570e-11  0 
 -2.846251e-11  1.094550e-10  0 
 1.139068e-10  5.422059e-10  0 
 2.634492e-11  3.655584e-10  0 
 -2.066385e-11  1.357375e-10  0 
 2.570544e-10  9.193600e-10  0 
 1.713301e-10  6.496611e-10  0 
 -5.722489e-11  4.337791e-10  0 
 -1.309821e-11  9.431262e-12  0 
 -8.651504e-12  -3.141649e-12  0 
 -1.377776e-11  -1.565112e-11  0 
 -3.219237e-11  -2.215213e-11  0 
 -3.393226e-11  -2.498084e-12  0 
 -3.268789e-11  1.716588e-11  0 
 -7.930001e-11  1.185646e-11  0 
 -9.525174e-11  -1.938708e-12  0 
 -7.995617e-11  -1.577121e-11  0 
 -2.792244e-11  -1.123850e-10  0 
 -3.773374e-12  -6.994068e-11  0 
 1.292448e-10  -2.322083e-10  0 
 -1.933252e-11  -1.385685e-10  0 
 2.927866e-11  -3.659540e-10  0 
 1.181316e-10  -5.405775e-10  0 
 -5.707783e-11  -4.363020e-10  0 
 1.731405e-10  -6.461200e-10  0 
 2.606212e-10  -9.147577e-10  0 
 3.665476e-10  -3.323982e-10  0 
 5.280876e-10  -3.336413e-10  0 
 6.905366e-10  -3.348474e-10  0 
 3.876407e-10  -7.314768e-10  0 
 5.414249e-10  -7.351525e-10  0 
 6.907261e-10  -7.355273e-10  0 
 4.234641e-10  -1.111289e-09  0 
 5.463385e-10  -1.099886e-09  0 
 6.794087e-10  -1.094233e-09  0 
VECTORS displacement_ITER4 FLOAT
 8.158448e-10  -3.069969e-10  0 
 8.204520e-10  1.504521e-09  0 
 4.736278e-11  -3.239476e-10  0 
 -2.568978e-10  2.033358e-11  0 
 -2.576460e-10  -1.523913e-11  0 
 4.356404e-11  3.243052e-10  0 
 8.145065e-10  3.074251e-10  0 
 1.827036e-10  1.525453e-09  0 
 -2.420011e-10  5.998825e-10  0 
 -2.418554e-10  -5.916551e-10  0 
 1.798649e-10  -1.529917e-09  0 
 8.189488e-10  -1.508739e-09  0 
 8.272129e-10  1.585239e-10  0 
 8.330241e-10  6.221213e-10  0 
 8.299648e-10  1.067855e-09  0 
 6.315359e-10  -3.069758e-10  0 
 4.438071e-10  -3.091745e-10  0 
 2.527093e-10  -3.148274e-10  0 
 -9.024507e-11  -1.652681e-10  0 
 -1.322867e-10  -1.770733e-10  0 
 -1.423546e-10  -1.723420e-10  0 
 -2.766578e-10  8.981528e-13  0 
 -2.829258e-10  2.635210e-12  0 
 -2.771286e-10  4.310506e-12  0 
 -1.399653e-10  1.744502e-10  0 
 -1.331936e-10  1.715719e-10  0 
 -9.738303e-11  1.613789e-10  0 
 2.496195e-10  3.150804e-10  0 
 4.414317e-10  3.094002e-10  0 
 6.297836e-10  3.073242e-10  0 
 8.309416e-11  1.615815e-10  0 
 1.058478e-10  6.143871e-10  0 
 1.318691e-10  1.064570e-09  0 
 6.504633e-10  1.495424e-09  0 
 4.798342e-10  1.491004e-09  0 
 3.417703e-10  1.498474e-09  0 
 -3.057116e-10  1.003709e-11  0 
 -3.429925e-10  -1.198691e-11  0 
 -2.835604e-10  -2.486262e-11  0 
 2.168448e-10  1.426035e-09  0 
 1.547504e-10  1.414961e-09  0 
 -3.308093e-10  6.970534e-10  0 
 -3.064157e-10  -4.164199e-12  0 
 -3.438441e-10  1.889410e-11  0 
 -2.840796e-10  3.290920e-11  0 
 -4.311906e-10  2.830284e-10  0 
 -4.422042e-10  4.397534e-12  0 
 -4.310200e-10  -2.744334e-10  0 
 7.960489e-11  -1.627267e-10  0 
 1.024781e-10  -6.166601e-10  0 
 1.284987e-10  -1.068160e-09  0 
 -3.223510e-10  -6.898388e-10  0 
 1.603900e-10  -1.403786e-09  0 
 2.136304e-10  -1.422324e-09  0 
 8.259074e-10  -1.595870e-10  0 
 8.316072e-10  -6.245790e-10  0 
 8.282861e-10  -1.071380e-09  0 
 3.391986e-10  -1.503384e-09  0 
 4.771788e-10  -1.496066e-09  0 
 6.479792e-10  -1.499996e-09  0 
 6.404388e-10  1.584737e-10  0 
 4.544861e-10  1.588257e-10  0 
 2.678868e-10  1.601147e-10  0 
 6.511904e-10  6.217749e-10  0 
 4.684657e-10  6.202819e-10  0 
 2.866981e-10  6.172720e-10  0 
 6.553949e-10  1.070084e-09  0 
 4.855950e-10  1.073288e-09  0 
 3.099682e-10  1.073330e-09  0 
 -6.710142e-11  8.918518e-11  0 
 -1.849670e-10  5.430117e-11  0 
 -2.800176e-10  4.768883e-11  0 
 -6.609536e-11  4.574228e-10  0 
 -1.879660e-10  3.168225e-10  0 
 -2.916375e-10  1.339262e-10  0 
 1.496894e-11  8.659131e-10  0 
 -1.493968e-10  5.513471e-10  0 
 -1.891852e-10  3.613280e-10  0 
 -2.992831e-10  1.233537e-11  0 
 -2.969608e-10  2.982739e-12  0 
 -2.996285e-10  -6.400839e-12  0 
 -3.252322e-10  -1.690967e-11  0 
 -3.223414e-10  3.480345e-12  0 
 -3.256203e-10  2.386325e-11  0 
 -3.730725e-10  1.292005e-11  0 
 -4.117686e-10  4.002494e-12  0 
 -3.733680e-10  -4.907664e-12  0 
 -2.815408e-10  -4.410131e-11  0 
 -1.872987e-10  -5.118447e-11  0 
 -6.993390e-11  -8.832620e-11  0 
 -2.935442e-10  -1.293447e-10  0 
 -1.905709e-10  -3.144736e-10  0 
 -6.911441e-11  -4.574442e-10  0 
 -1.902089e-10  -3.553423e-10  0 
 -1.509956e-10  -5.501555e-10  0 
 1.280293e-11  -8.670551e-10  0 
 2.649123e-10  -1.612406e-10  0 
 4.520284e-10  -1.599292e-10  0 
 6.385246e-10  -1.595523e-10  0 
 2.838014e-10  -6.196000e-10  0 
 4.660432e-10  -6.226520e-10  0 
 6.492506e-10  -6.242002e-10  0 
 3.070480e-10  -1.076933e-09  0 
 4.832199e-10  -1.076869e-09  0 
 6.534962e-10  -1.073630e-09  0 
VECTORS displacement_ITER5 FLOAT
 2.077491e-09  -1.023819e-10  0 
 2.295256e-09  3.800985e-09  0 
 4.912628e-10  -8.764168e-11  0 
 -1.059033e-09  -6.451556e-11  0 
 -1.059183e-09  5.288826e-11  0 
 5.010820e-10  8.994677e-11  0 
 2.081387e-09  1.046155e-10  0 
 7.965880e-10  3.735968e-09  0 
 -1.371849e-09  5.407076e-10  0 
 -1.373577e-09  -5.518758e-10  0 
 8.043867e-10  -3.722191e-09  0 
 2.299358e-09  -3.787697e-09  0 
 2.123391e-09  8.542235e-10  0 
 2.188123e-09  1.829903e-09  0 
 2.251197e-09  2.820372e-09  0 
 1.694655e-09  -1.051789e-10  0 
 1.309565e-09  -1.089193e-10  0 
 9.140700e-10  -1.070675e-10  0 
 1.749140e-10  5.313318e-10  0 
 1.483824e-10  6.909101e-10  0 
 1.274914e-10  2.128924e-10  0 
 -1.120735e-09  -3.816556e-11  0 
 -1.146387e-09  -5.946196e-12  0 
 -1.120571e-09  2.642541e-11  0 
 1.139751e-10  -2.146878e-10  0 
 1.474610e-10  -6.663865e-10  0 
 1.967468e-10  -5.152386e-10  0 
 9.221863e-10  1.097474e-10  0 
 1.315908e-09  1.116777e-10  0 
 1.699504e-09  1.076693e-10  0 
 5.727103e-10  8.545188e-10  0 
 6.069826e-10  1.804031e-09  0 
 6.695852e-10  2.810294e-09  0 
 1.891147e-09  3.815372e-09  0 
 1.520296e-09  3.822514e-09  0 
 1.162625e-09  3.806946e-09  0 
 -1.166024e-09  3.025921e-11  0 
 -1.294602e-09  1.287030e-12  0 
 -1.348901e-09  -1.300842e-11  0 
 6.195829e-10  3.454025e-09  0 
 -4.208738e-10  3.021972e-09  0 
 -1.764537e-09  2.193090e-09  0 
 -1.166077e-09  -4.123250e-11  0 
 -1.294023e-09  -1.286042e-11  0 
 -1.349109e-09  5.093613e-13  0 
 -1.578756e-09  2.517704e-10  0 
 -1.648394e-09  -6.206024e-12  0 
 -1.579831e-09  -2.636122e-10  0 
 5.816890e-10  -8.484425e-10  0 
 6.155448e-10  -1.795452e-09  0 
 6.782833e-10  -2.798709e-09  0 
 -1.787837e-09  -2.206350e-09  0 
 -4.315778e-10  -3.047720e-09  0 
 6.269830e-10  -3.461011e-09  0 
 2.127239e-09  -8.484281e-10  0 
 2.192258e-09  -1.820901e-09  0 
 2.255851e-09  -2.808911e-09  0 
 1.169563e-09  -3.792010e-09  0 
 1.527282e-09  -3.807347e-09  0 
 1.897599e-09  -3.801353e-09  0 
 1.735828e-09  8.550076e-10  0 
 1.344202e-09  8.569809e-10  0 
 9.519360e-10  8.587656e-10  0 
 1.792933e-09  1.828710e-09  0 
 1.399174e-09  1.824376e-09  0 
 1.006078e-09  1.817054e-09  0 
 1.860345e-09  2.818953e-09  0 
 1.463699e-09  2.816916e-09  0 
 1.064230e-09  2.810062e-09  0 
 2.724511e-11  5.685034e-10  0 
 -3.887024e-10  3.574434e-10  0 
 -8.457985e-10  2.800856e-10  0 
 5.357636e-12  1.341857e-09  0 
 -5.330005e-10  9.043284e-10  0 
 -9.637610e-10  4.284099e-10  0 
 5.527671e-11  2.141150e-09  0 
 -4.712657e-10  1.390210e-09  0 
 -8.765344e-10  7.082390e-10  0 
 -1.182727e-09  1.393805e-11  0 
 -1.186364e-09  -5.634472e-12  0 
 -1.182754e-09  -2.512910e-11  0 
 -1.279584e-09  -8.974951e-12  0 
 -1.279228e-09  -5.843876e-12  0 
 -1.279408e-09  -2.686527e-12  0 
 -1.424998e-09  4.179340e-12  0 
 -1.449557e-09  -6.175901e-12  0 
 -1.425019e-09  -1.659392e-11  0 
 -8.436349e-10  -2.850604e-10  0 
 -3.842959e-10  -3.630383e-10  0 
 3.330560e-11  -5.674460e-10  0 
 -9.604686e-10  -4.350942e-10  0 
 -5.275494e-10  -9.057486e-10  0 
 1.214528e-11  -1.338239e-09  0 
 -8.750364e-10  -7.166175e-10  0 
 -4.686236e-10  -1.388219e-09  0 
 6.099203e-11  -2.134879e-09  0 
 9.596805e-10  -8.527904e-10  0 
 1.350746e-09  -8.510747e-10  0 
 1.741107e-09  -8.491831e-10  0 
 1.013608e-09  -1.808339e-09  0 
 1.405627e-09  -1.815578e-09  0 
 1.798266e-09  -1.819783e-09  0 
 1.071871e-09  -2.798463e-09  0 
 1.470032e-09  -2.805323e-09  0 
 1.865550e-09  -2.807428e-09  0 
VECTORS displacement_ITER6 FLOAT
 1.877485e-09  4.672261e-10  0 
 2.065677e-09  4.048605e-09  0 
 4.780625e-10  4.876657e-10  0 
 -4.449795e-10  5.065809e-13  0 
 -4.445722e-10  1.084391e-11  0 
 4.699747e-10  -4.870509e-10  0 
 1.874162e-09  -4.665551e-10  0 
 7.830287e-10  3.985122e-09  0 
 -7.693106e-10  8.483295e-10  0 
 -7.676715e-10  -8.392986e-10  0 
 7.764594e-10  -3.993694e-09  0 
 2.062279e-09  -4.056716e-09  0 
 1.932532e-09  1.332480e-09  0 
 1.994616e-09  2.221653e-09  0 
 2.043519e-09  3.126392e-09  0 
 1.538053e-09  4.688268e-10  0 
 1.189295e-09  4.715404e-10  0 
 8.333211e-10  4.731998e-10  0 
 5.799274e-10  6.878370e-11  0 
 -1.556181e-10  -1.944167e-10  0 
 -6.057979e-10  3.546338e-10  0 
 -4.967186e-10  2.986771e-12  0 
 -5.148883e-10  5.799775e-12  0 
 -4.966658e-10  8.487533e-12  0 
 -5.927560e-10  -3.520114e-10  0 
 -1.549383e-10  1.742550e-10  0 
 5.601550e-10  -7.971013e-11  0 
 8.266148e-10  -4.728915e-10  0 
 1.184043e-09  -4.713255e-10  0 
 1.534012e-09  -4.683630e-10  0 
 5.375405e-10  1.313560e-09  0 
 5.511966e-10  2.193297e-09  0 
 5.930348e-10  3.143560e-09  0 
 1.702033e-09  4.039918e-09  0 
 1.339778e-09  4.023913e-09  0 
 1.000133e-09  4.022391e-09  0 
 -5.797025e-10  3.588265e-11  0 
 -6.812552e-10  -8.367739e-12  0 
 -6.381744e-10  2.388626e-11  0 
 5.590438e-10  3.558481e-09  0 
 8.470915e-10  2.799864e-09  0 
 8.250343e-10  3.015749e-09  0 
 -5.792444e-10  -2.550144e-11  0 
 -6.813168e-10  1.868860e-11  0 
 -6.376636e-10  -1.333312e-11  0 
 -9.040161e-10  4.289289e-10  0 
 -9.537491e-10  4.988473e-12  0 
 -9.030683e-10  -4.193573e-10  0 
 5.301879e-10  -1.315990e-09  0 
 5.442274e-10  -2.197623e-09  0 
 5.858552e-10  -3.150163e-09  0 
 8.411641e-10  -3.002671e-09  0 
 8.514766e-10  -2.776891e-09  0 
 5.493839e-10  -3.549362e-09  0 
 1.929226e-09  -1.334633e-09  0 
 1.991057e-09  -2.226297e-09  0 
 2.039627e-09  -3.132973e-09  0 
 9.943577e-10  -4.031741e-09  0 
 1.334005e-09  -4.033422e-09  0 
 1.696821e-09  -4.048598e-09  0 
 1.579654e-09  1.332054e-09  0 
 1.227313e-09  1.330160e-09  0 
 8.779725e-10  1.325767e-09  0 
 1.636859e-09  2.220983e-09  0 
 1.278413e-09  2.217078e-09  0 
 9.163950e-10  2.206876e-09  0 
 1.679967e-09  3.128023e-09  0 
 1.324964e-09  3.133294e-09  0 
 9.727968e-10  3.139635e-09  0 
 7.150114e-11  9.946004e-10  0 
 -2.201325e-10  7.466502e-10  0 
 -4.282533e-10  2.691562e-10  0 
 1.343235e-10  1.671138e-09  0 
 -2.340255e-10  1.052709e-09  0 
 -4.833354e-10  5.819327e-10  0 
 3.964388e-10  2.542537e-09  0 
 5.638793e-11  1.900327e-09  0 
 -4.430452e-10  7.467775e-10  0 
 -5.732314e-10  2.453427e-11  0 
 -5.687953e-10  5.303688e-12  0 
 -5.730126e-10  -1.398559e-11  0 
 -6.595375e-10  -1.654132e-11  0 
 -6.611112e-10  5.204814e-12  0 
 -6.594785e-10  2.693053e-11  0 
 -7.971662e-10  4.414423e-11  0 
 -8.439160e-10  5.210275e-12  0 
 -7.969694e-10  -3.367512e-11  0 
 -4.298201e-10  -2.633954e-10  0 
 -2.235243e-10  -7.396693e-10  0 
 6.680853e-11  -9.933451e-10  0 
 -4.856260e-10  -5.750674e-10  0 
 -2.381035e-10  -1.049870e-09  0 
 1.289750e-10  -1.671812e-09  0 
 -4.441633e-10  -7.393674e-10  0 
 5.408485e-11  -1.900163e-09  0 
 3.916477e-10  -2.545235e-09  0 
 8.716003e-10  -1.328099e-09  0 
 1.221880e-09  -1.332415e-09  0 
 1.575212e-09  -1.334237e-09  0 
 9.101948e-10  -2.211297e-09  0 
 1.273049e-09  -2.221566e-09  0 
 1.632375e-09  -2.225571e-09  0 
 9.664853e-10  -3.146294e-09  0 
 1.319706e-09  -3.139961e-09  0 
 1.675598e-09  -3.134639e-09  0 
VECTORS displacement_ITER7 FLOAT
 1.861274e-09  8.723815e-11  0 
 1.931352e-09  3.105985e-09  0 
 5.159885e-10  7.384903e-11  0 
 -4.178266e-10  -1.068223e-11  0 
 -4.169869e-10  7.927708e-13  0 
 5.217364e-10  -7.278186e-11  0 
 1.863722e-09  -8.632276e-11  0 
 1.035548e-09  3.044593e-09  0 
 -7.546591e-10  1.055779e-09  0 
 -7.556005e-10  -1.067926e-09  0 
 1.039603e-09  -3.037465e-09  0 
 1.933839e-09  -3.099545e-09  0 
 1.894581e-09  8.896518e-10  0 
 1.917722e-09  1.676086e-09  0 
 1.924393e-09  2.406516e-09  0 
 1.540022e-09  8.413874e-11  0 
 1.214329e-09  7.842633e-11  0 
 8.757003e-10  7.629624e-11  0 
 -6.821339e-11  -8.733101e-12  0 
 6.790916e-11  2.156798e-10  0 
 -1.598284e-10  -7.696968e-11  0 
 -5.021384e-10  -1.366077e-11  0 
 -5.240140e-10  -5.137247e-12  0 
 -5.015817e-10  3.521062e-12  0 
 -1.644303e-10  7.205960e-11  0 
 6.906933e-11  -2.063291e-10  0 
 -5.559832e-11  1.555521e-11  0 
 8.804449e-10  -7.493793e-11  0 
 1.217968e-09  -7.699364e-11  0 
 1.542804e-09  -8.302301e-11  0 
 6.161798e-10  8.853990e-10  0 
 6.911655e-10  1.657067e-09  0 
 8.056402e-10  2.428574e-09  0 
 1.645091e-09  3.101635e-09  0 
 1.392007e-09  3.084321e-09  0 
 1.170328e-09  3.034787e-09  0 
 -5.897380e-10  2.894241e-11  0 
 -7.154980e-10  -2.868053e-11  0 
 -6.687532e-10  -4.188226e-11  0 
 1.141093e-09  3.294739e-09  0 
 6.755929e-10  3.137609e-09  0 
 6.387673e-10  1.878081e-09  0 
 -5.891479e-10  -3.949733e-11  0 
 -7.146850e-10  1.720796e-11  0 
 -6.684370e-10  2.925729e-11  0 
 -9.951736e-10  4.447055e-10  0 
 -1.078418e-09  -6.567315e-12  0 
 -9.957738e-10  -4.574936e-10  0 
 6.212785e-10  -8.823025e-10  0 
 6.960679e-10  -1.652731e-09  0 
 8.106211e-10  -2.422530e-09  0 
 6.280664e-10  -1.889862e-09  0 
 6.707740e-10  -3.150903e-09  0 
 1.145215e-09  -3.297608e-09  0 
 1.896920e-09  -8.867336e-10  0 
 1.920302e-09  -1.671394e-09  0 
 1.927397e-09  -2.400690e-09  0 
 1.174219e-09  -3.026999e-09  0 
 1.396277e-09  -3.076452e-09  0 
 1.649101e-09  -3.094613e-09  0 
 1.574355e-09  8.899351e-10  0 
 1.252592e-09  8.899355e-10  0 
 9.314664e-10  8.890837e-10  0 
 1.613950e-09  1.675858e-09  0 
 1.311347e-09  1.674603e-09  0 
 1.003257e-09  1.666943e-09  0 
 1.644745e-09  2.409142e-09  0 
 1.365503e-09  2.415891e-09  0 
 1.094752e-09  2.431658e-09  0 
 2.315657e-10  6.232933e-10  0 
 -1.618648e-10  3.324295e-10  0 
 -3.980664e-10  2.194581e-10  0 
 2.497264e-10  1.228175e-09  0 
 -1.351822e-10  8.016411e-10  0 
 -4.481947e-10  3.497349e-10  0 
 5.019116e-10  1.946653e-09  0 
 1.047744e-10  1.352080e-09  0 
 -4.487103e-10  7.589117e-10  0 
 -5.800747e-10  1.975572e-11  0 
 -5.757940e-10  -5.347980e-12  0 
 -5.797852e-10  -3.040617e-11  0 
 -6.820397e-10  -3.901996e-11  0 
 -6.830287e-10  -5.788135e-12  0 
 -6.816895e-10  2.746122e-11  0 
 -8.493713e-10  2.525799e-11  0 
 -8.973804e-10  -6.280350e-12  0 
 -8.491682e-10  -3.783205e-11  0 
 -3.962043e-10  -2.256814e-10  0 
 -1.587340e-10  -3.376933e-10  0 
 2.353116e-10  -6.240095e-10  0 
 -4.459002e-10  -3.573708e-10  0 
 -1.317980e-10  -8.051057e-10  0 
 2.538750e-10  -1.227700e-09  0 
 -4.472897e-10  -7.673696e-10  0 
 1.069192e-10  -1.354180e-09  0 
 5.052817e-10  -1.944924e-09  0 
 9.359328e-10  -8.860305e-10  0 
 1.256450e-09  -8.869312e-10  0 
 1.577535e-09  -8.869841e-10  0 
 1.007606e-09  -1.662502e-09  0 
 1.315129e-09  -1.670079e-09  0 
 1.617153e-09  -1.671226e-09  0 
 1.099136e-09  -2.425615e-09  0 
 1.369171e-09  -2.409913e-09  0 
 1.647870e-09  -2.403266e-09  0 
VECTORS displacement_ITER8 FLOAT
 2.252230e-09  -7.749982e-11  0 
 2.333846e-09  3.933273e-09  0 
 4.419678e-10  -8.712297e-11  0 
 -7.505815e-10  -1.126219e-11  0 
 -7.545730e-10  2.285712e-11  0 
 4.378190e-10  8.481397e-11  0 
 2.249694e-09  7.557149e-11  0 
 1.106383e-09  3.846375e-09  0 
 -1.167668e-09  1.201029e-09  0 
 -1.168375e-09  -1.175632e-09  0 
 1.104911e-09  -3.850417e-09  0 
 2.331302e-09  -3.936323e-09  0 
 2.285866e-09  9.934895e-10  0 
 2.310909e-09  2.034338e-09  0 
 2.322240e-09  3.003553e-09  0 
 1.823879e-09  -7.952839e-11  0 
 1.386408e-09  -8.530643e-11  0 
 9.343741e-10  -9.015282e-11  0 
 -3.755396e-11  2.325916e-10  0 
 -1.163303e-10  2.131180e-10  0 
 -2.221450e-10  -4.660350e-11  0 
 -8.513722e-10  -1.975169e-11  0 
 -8.825993e-10  6.122323e-12  0 
 -8.535137e-10  3.177051e-11  0 
 -2.312856e-10  5.947062e-11  0 
 -1.201732e-10  -2.040056e-10  0 
 -4.142226e-11  -2.331310e-10  0 
 9.308132e-10  8.747706e-11  0 
 1.383633e-09  8.263142e-11  0 
 1.821557e-09  7.732608e-11  0 
 5.908702e-10  9.947370e-10  0 
 6.886303e-10  2.007838e-09  0 
 8.265663e-10  3.022260e-09  0 
 1.955700e-09  3.927027e-09  0 
 1.607243e-09  3.910429e-09  0 
 1.333938e-09  3.872534e-09  0 
 -9.538080e-10  4.751372e-11  0 
 -1.111643e-09  -1.255667e-11  0 
 -1.082216e-09  -2.438833e-11  0 