# vtk DataFile Version 3.1
this is an vtk file created by FEMAC
ASCII
DATASET UNSTRUCTURED_GRID
POINTS 102 FLOAT
0.000000 4.000000 0.000000
0.111111 4.000000 0.000000
0.222222 4.000000 0.000000
0.333333 4.000000 0.000000
0.444444 4.000000 0.000000
0.555556 4.000000 0.000000
0.666667 4.000000 0.000000
0.000000 3.333333 0.000000
0.000000 3.444444 0.000000
0.000000 3.555556 0.000000
0.000000 3.666667 0.000000
0.000000 3.777778 0.000000
0.000000 3.888889 0.000000
0.000000 4.111111 0.000000
0.000000 4.222222 0.000000
0.000000 4.333333 0.000000
0.000000 4.444444 0.000000
0.000000 4.555556 0.000000
0.000000 4.666667 0.000000
0.000000 4.777778 0.000000
0.111111 3.333333 0.000000
0.111111 3.444444 0.000000
0.111111 3.555556 0.000000
0.111111 3.666667 0.000000
0.111111 3.777778 0.000000
0.111111 3.888889 0.000000
0.222222 3.333333 0.000000
0.222222 3.444444 0.000000
0.222222 3.555556 0.000000
0.222222 3.666667 0.000000
0.222222 3.777778 0.000000
0.222222 3.888889 0.000000
0.333333 3.333333 0.000000
0.333333 3.444444 0.000000
0.333333 3.555556 0.000000
0.333333 3.666667 0.000000
0.333333 3.777778 0.000000
0.333333 3.888889 0.000000
0.444444 3.333333 0.000000
0.444444 3.444444 0.000000
0.444444 3.555556 0.000000
0.444444 3.666667 0.000000
0.444444 3.777778 0.000000
0.444444 3.888889 0.000000
0.555556 3.333333 0.000000
0.555556 3.444444 0.000000
0.555556 3.555556 0.000000
0.555556 3.666667 0.000000
0.555556 3.777778 0.000000
0.555556 3.888889 0.000000
0.666667 3.333333 0.000000
0.666667 3.444444 0.000000
0.666667 3.555556 0.000000
0.666667 3.666667 0.000000
0.666667 3.777778 0.000000
0.666667 3.888889 0.000000
0.111111 4.111111 0.000000
0.111111 4.222222 0.000000
0.111111 4.333333 0.000000
0.111111 4.444444 0.000000
0.111111 4.555556 0.000000
0.111111 4.666667 0.000000
0.111111 4.777778 0.000000
0.222222 4.111111 0.000000
0.222222 4.222222 0.000000
0.222222 4.333333 0.000000
0.222222 4.444444 0.000000
0.222222 4.555556 0.000000
0.222222 4.666667 0.000000
0.222222 4.777778 0.000000
0.333333 4.111111 0.000000
0.333333 4.222222 0.000000
0.333333 4.333333 0.000000
0.333333 4.444444 0.000000
0.333333 4.555556 0.000000
0.333333 4.666667 0.000000
0.333333 4.777778 0.000000
0.444444 4.111111 0.000000
0.444444 4.222222 0.000000
0.444444 4.333333 0.000000
0.444444 4.444444 0.000000
0.444444 4.555556 0.000000
0.444444 4.666667 0.000000
0.444444 4.777778 0.000000
0.555556 4.111111 0.000000
0.555556 4.222222 0.000000
0.555556 4.333333 0.000000
0.555556 4.444444 0.000000
0.555556 4.555556 0.000000
0.555556 4.666667 0.000000
0.555556 4.777778 0.000000
0.666667 4.111111 0.000000
0.666667 4.222222 0.000000
0.666667 4.333333 0.000000
0.666667 4.444444 0.000000
0.666667 4.555556 0.000000
0.666667 4.666667 0.000000
0.666667 4.777778 0.000000
0.777778 4.333333 0.000000
0.777778 4.444444 0.000000
0.777778 4.555556 0.000000
0.777778 4.666667 0.000000
CELLS 81 405 
4 7 20 21  8
4 8 21 22  9
4 9 22 23 10
4 10 23 24 11
4 11 24 25 12
4 12 25  1  0
4 20 26 27 21
4 21 27 28 22
4 22 28 29 23
4 23 29 30 24
4 24 30 31 25
4 25 31  2  1
4 26 32 33 27
4 27 33 34 28
4 28 34 35 29
4 29 35 36 30
4 30 36 37 31
4 31 37  3  2
4 32 38 39 33
4 33 39 40 34
4 34 40 41 35
4 35 41 42 36
4 36 42 43 37
4 37 43  4  3
4 38 44 45 39
4 39 45 46 40
4 40 46 47 41
4 41 47 48 42
4 42 48 49 43
4 43 49  5  4
4 44 50 51 45
4 45 51 52 46
4 46 52 53 47
4 47 53 54 48
4 48 54 55 49
4 49 55  6  5
4 0  1 56 13
4 13 56 57 14
4 14 57 58 15
4 15 58 59 16
4 16 59 60 17
4 17 60 61 18
4 18 61 62 19
4 1  2 63 56
4 56 63 64 57
4 57 64 65 58
4 58 65 66 59
4 59 66 67 60
4 60 67 68 61
4 61 68 69 62
4 2  3 70 63
4 63 70 71 64
4 64 71 72 65
4 65 72 73 66
4 66 73 74 67
4 67 74 75 68
4 68 75 76 69
4 3  4 77 70
4 70 77 78 71
4 71 78 79 72
4 72 79 80 73
4 73 80 81 74
4 74 81 82 75
4 75 82 83 76
4 4  5 84 77
4 77 84 85 78
4 78 85 86 79
4 79 86 87 80
4 80 87 88 81
4 81 88 89 82
4 82 89 90 83
4 5  6 91 84
4 84 91 92 85
4 85 92 93 86
4 86 93 94 87
4 87 94 95 88
4 88 95 96 89
4 89 96 97 90
4 93 98 99 94
4 94  99 100  95
4 95 100 101  96
CELL_TYPES 81
9 9 9 9 9 9 9 9 9 9 9 9 9 9 9 9 9 9 9 9 9 9 9 9 9 9 9 9 9 9 9 9 9 9 9 9 9 9 9 9 9 9 9 9 9 9 9 9 9 9 9 9 9 9 9 9 9 9 9 9 9 9 9 9 9 9 9 9 9 9 9 9 9 9 9 9 9 9 9 9 9 
POINT_DATA 102
VECTORS displacement_ITER1 FLOAT
 0  0  0 
 -9.654175e-04  -6.484930e-04  0 
 -1.592462e-03  -1.482228e-03  0 
 -1.992693e-03  -2.522231e-03  0 
 -2.173711e-03  -3.736529e-03  0 
 -2.147026e-03  -5.146539e-03  0 
 -1.819642e-03  -6.906835e-03  0 
 -4.433219e-21  -8.897777e-21  0 
 0  0  0 
 0  0  0 
 0  0  0 
 0  0  0 
 0  0  0 
 0  0  0 
 0  0  0 
 0  0  0 
 0  0  0 
 0  0  0 
 0  0  0 
 -2.748119e-19  -5.848769e-20  0 
 -2.245294e-03  -2.282979e-03  0 
 -5.405519e-04  -1.951711e-03  0 
 -9.980810e-05  -1.943547e-03  0 
 -1.879097e-05  -1.883633e-03  0 
 -8.960161e-05  -1.720060e-03  0 
 -2.888613e-04  -1.398720e-03  0 
 -2.507126e-03  -4.613874e-03  0 
 -8.172412e-04  -4.231839e-03  0 
 -1.705128e-04  -3.812949e-03  0 
 -1.284088e-04  -3.471157e-03  0 
 -3.569601e-04  -3.061924e-03  0 
 -8.230863e-04  -2.422372e-03  0 
 -1.617282e-03  -6.348886e-03  0 
 -6.177700e-04  -5.905362e-03  0 
 -2.306864e-04  -5.231130e-03  0 
 -2.980430e-04  -4.634219e-03  0 
 -6.812493e-04  -4.093193e-03  0 
 -1.266636e-03  -3.420164e-03  0 
 -8.137341e-05  -7.118608e-03  0 
 -1.521416e-04  -6.670807e-03  0 
 -2.104628e-04  -5.887546e-03  0 
 -3.361603e-04  -5.227745e-03  0 
 -7.834839e-04  -4.822883e-03  0 
 -1.486851e-03  -4.399915e-03  0 
 1.735401e-03  -6.585919e-03  0 
 2.958149e-04  -6.393505e-03  0 
 -1.314013e-04  -5.857380e-03  0 
 -9.811105e-05  -5.328655e-03  0 
 -3.044788e-04  -5.023001e-03  0 
 -1.271982e-03  -5.211243e-03  0 
 3.240610e-03  -4.369969e-03  0 
 6.908173e-04  -5.225279e-03  0 
 6.523540e-05  -5.661900e-03  0 
 2.994059e-04  -5.396148e-03  0 
 5.331167e-04  -4.742260e-03  0 
 2.379921e-04  -4.707210e-03  0 
 -4.084442e-04  -4.825164e-04  0 
 -9.185798e-05  -4.679688e-04  0 
 1.591926e-04  -4.793547e-04  0 
 3.826298e-04  -4.895527e-04  0 
 6.028315e-04  -4.997517e-04  0 
 8.580490e-04  -5.402959e-04  0 
 1.331324e-03  -7.436885e-04  0 
 -7.773754e-04  -1.353920e-03  0 
 -1.550560e-04  -1.293604e-03  0 
 3.343909e-04  -1.283019e-03  0 
 7.677225e-04  -1.279302e-03  0 
 1.199259e-03  -1.289110e-03  0 
 1.703520e-03  -1.354782e-03  0 
 2.290768e-03  -1.449147e-03  0 
 -9.839900e-04  -2.448038e-03  0 
 -1.593141e-04  -2.407162e-03  0 
 5.218423e-04  -2.372842e-03  0 
 1.127828e-03  -2.331341e-03  0 
 1.743730e-03  -2.299904e-03  0 
 2.408818e-03  -2.308474e-03  0 
 3.132946e-03  -2.341455e-03  0 
 -1.001818e-03  -3.734067e-03  0 
 -5.340266e-05  -3.733159e-03  0 
 7.185163e-04  -3.676682e-03  0 
 1.425008e-03  -3.577908e-03  0 
 2.175282e-03  -3.483947e-03  0 
 3.024873e-03  -3.422922e-03  0 
 3.931870e-03  -3.477610e-03  0 
 -7.760765e-04  -5.190041e-03  0 
 1.713053e-04  -5.197949e-03  0 
 8.931374e-04  -5.077621e-03  0 
 1.637363e-03  -4.939208e-03  0 
 2.490006e-03  -4.822848e-03  0 
 3.510894e-03  -4.748421e-03  0 
 4.839609e-03  -4.790662e-03  0 
 -3.556626e-04  -6.843375e-03  0 
 4.984266e-04  -6.511769e-03  0 
 9.973778e-04  -6.472832e-03  0 
 1.788425e-03  -6.343829e-03  0 
 2.697161e-03  -6.275749e-03  0 
 3.813760e-03  -6.196434e-03  0 
 5.595231e-03  -6.519546e-03  0 
 1.050495e-03  -7.783882e-03  0 
 1.988078e-03  -7.640745e-03  0 
 2.833993e-03  -7.805221e-03  0 
 4.147326e-03  -7.999947e-03  0 
VECTORS displacement_ITER2 FLOAT
 0  0  0 
 -8.667586e-04  -6.015444e-04  0 
 -1.416072e-03  -1.389950e-03  0 
 -1.749847e-03  -2.380771e-03  0 
 -1.876452e-03  -3.548510e-03  0 
 -1.805090e-03  -4.930342e-03  0 
 -1.405734e-03  -6.776130e-03  0 
 3.842031e-22  -6.140518e-21  0 
 0  0  0 
 0  0  0 
 0  0  0 
 0  0  0 
 0  0  0 
 0  0  0 
 0  0  0 
 0  0  0 
 0  0  0 
 0  0  0 
 0  0  0 
 -1.481782e-19  5.136695e-21  0 
 -1.683738e-03  -2.201927e-03  0 
 -2.578577e-04  -2.019361e-03  0 
 6.681314e-05  -2.024393e-03  0 
 1.036587e-04  -1.939923e-03  0 
 2.119737e-05  -1.742698e-03  0 
 -1.824376e-04  -1.386906e-03  0 
 -1.470023e-03  -4.406256e-03  0 
 -2.619136e-04  -4.237579e-03  0 
 1.312814e-04  -3.910582e-03  0 
 7.850454e-05  -3.569258e-03  0 
 -1.740859e-04  -3.105244e-03  0 
 -6.439904e-04  -2.392420e-03  0 
 -2.305003e-04  -5.944652e-03  0 
 1.483907e-04  -5.810823e-03  0 
 1.850113e-04  -5.353994e-03  0 
 -5.436082e-05  -4.811585e-03  0 
 -4.896135e-04  -4.177674e-03  0 
 -1.058036e-03  -3.373435e-03  0 
 1.440628e-03  -6.521427e-03  0 
 8.231480e-04  -6.520373e-03  0 
 3.347707e-04  -6.123768e-03  0 
 -1.620527e-04  -5.573967e-03  0 
 -7.225637e-04  -5.016021e-03  0 
 -1.319261e-03  -4.369114e-03  0 
 2.943080e-03  -6.308030e-03  0 
 1.625573e-03  -6.427854e-03  0 
 5.613219e-04  -6.196015e-03  0 
 -1.178273e-04  -5.854937e-03  0 
 -6.395269e-04  -5.549842e-03  0 
 -1.301081e-03  -5.352007e-03  0 
 4.296186e-03  -5.603522e-03  0 
 2.262597e-03  -5.475929e-03  0 
 9.197464e-04  -5.608481e-03  0 
 1.548009e-04  -5.907791e-03  0 
 -2.608544e-04  -5.822001e-03  0 
 -5.480569e-04  -5.915459e-03  0 
 -3.439623e-04  -4.563288e-04  0 
 -4.569092e-05  -4.516554e-04  0 
 1.883692e-04  -4.714297e-04  0 
 3.927091e-04  -4.895654e-04  0 
 5.901667e-04  -5.063780e-04  0 
 8.169577e-04  -5.494383e-04  0 
 1.244539e-03  -7.374156e-04  0 
 -6.432149e-04  -1.281873e-03  0 
 -5.538593e-05  -1.239344e-03  0 
 4.010743e-04  -1.242726e-03  0 
 7.958449e-04  -1.250922e-03  0 
 1.181128e-03  -1.270010e-03  0 
 1.628653e-03  -1.340286e-03  0 
 2.148983e-03  -1.438561e-03  0 
 -7.852946e-04  -2.324573e-03  0 
 -2.437266e-06  -2.300510e-03  0 
 6.314043e-04  -2.278528e-03  0 
 1.180751e-03  -2.246574e-03  0 
 1.728983e-03  -2.226433e-03  0 
 2.317814e-03  -2.246473e-03  0 
 2.961999e-03  -2.296456e-03  0 
 -7.420492e-04  -3.560076e-03  0 
 1.587052e-04  -3.567801e-03  0 
 8.683653e-04  -3.508771e-03  0 
 1.507091e-03  -3.410532e-03  0 
 2.177762e-03  -3.326653e-03  0 
 2.927545e-03  -3.285450e-03  0 
 3.733442e-03  -3.353118e-03  0 
 -4.527079e-04  -4.982020e-03  0 
 4.202869e-04  -4.960626e-03  0 
 1.073320e-03  -4.817641e-03  0 
 1.749318e-03  -4.671099e-03  0 
 2.520088e-03  -4.552275e-03  0 
 3.425359e-03  -4.485823e-03  0 
 4.563874e-03  -4.531631e-03  0 
 -1.035278e-05  -6.567030e-03  0 
 7.572338e-04  -6.175501e-03  0 
 1.200930e-03  -6.116224e-03  0 
 1.929988e-03  -5.964113e-03  0 
 2.753685e-03  -5.881884e-03  0 
 3.763751e-03  -5.776725e-03  0 
 5.214366e-03  -5.957947e-03  0 
 1.187774e-03  -7.422390e-03  0 
 2.141567e-03  -7.165463e-03  0 
 2.938122e-03  -7.260341e-03  0 
 4.136090e-03  -7.490316e-03  0 
VECTORS displacement_ITER3 FLOAT
 0  0  0 
 -9.269423e-04  -6.274024e-04  0 
 -1.531968e-03  -1.447411e-03  0 
 -1.923620e-03  -2.484767e-03  0 
 -2.112776e-03  -3.720566e-03  0 
 -2.103553e-03  -5.185771e-03  0 
 -1.795874e-03  -7.061014e-03  0 
 8.357020e-22  -4.566859e-21  0 
 0  0  0 
 0  0  0 
 0  0  0 
 0  0  0 
 0  0  0 
 0  0  0 
 0  0  0 
 0  0  0 
 0  0  0 
 0  0  0 
 0  0  0 
 -1.098623e-19  2.936752e-20  0 
 -1.434460e-03  -2.304444e-03  0 
 -1.438236e-04  -2.187111e-03  0 
 9.559133e-05  -2.180909e-03  0 
 8.731476e-05  -2.062360e-03  0 
 -1.457746e-05  -1.829269e-03  0 
 -2.267861e-04  -1.442266e-03  0 
 -9.334821e-04  -4.541266e-03  0 
 -5.079653e-05  -4.470627e-03  0 
 1.484935e-04  -4.153503e-03  0 
 4.145662e-06  -3.778312e-03  0 
 -2.806979e-04  -3.262411e-03  0 
 -7.584776e-04  -2.494644e-03  0 
 5.387465e-04  -5.994070e-03  0 
 4.106704e-04  -6.021142e-03  0 
 1.530355e-04  -5.641598e-03  0 
 -2.256495e-04  -5.101770e-03  0 
 -7.044748e-04  -4.408934e-03  0 
 -1.265624e-03  -3.529824e-03  0 
 2.311127e-03  -6.402390e-03  0 
 1.090420e-03  -6.658021e-03  0 
 2.410362e-04  -6.464976e-03  0 
 -4.830859e-04  -5.987488e-03  0 
 -1.114275e-03  -5.356007e-03  0 
 -1.654273e-03  -4.600511e-03  0 
 3.659383e-03  -6.085497e-03  0 
 1.902099e-03  -6.574720e-03  0 
 4.249253e-04  -6.629409e-03  0 
 -6.516935e-04  -6.422481e-03  0 
 -1.357022e-03  -6.108927e-03  0 
 -1.836000e-03  -5.730609e-03  0 
 4.619444e-03  -5.871356e-03  0 
 2.541193e-03  -5.894177e-03  0 
 6.940114e-04  -6.075703e-03  0 
 -6.287577e-04  -6.514358e-03  0 
 -1.353637e-03  -6.713863e-03  0 
 -1.571533e-03  -6.910556e-03  0 
 -3.806351e-04  -4.685035e-04  0 
 -6.500849e-05  -4.585834e-04  0 
 1.862454e-04  -4.758226e-04  0 
 4.087583e-04  -4.917893e-04  0 
 6.253812e-04  -5.057244e-04  0 
 8.707691e-04  -5.457581e-04  0 
 1.307638e-03  -7.323449e-04  0 
 -7.207488e-04  -1.325289e-03  0 
 -9.600184e-05  -1.275131e-03  0 
 3.956691e-04  -1.276197e-03  0 
 8.259150e-04  -1.282901e-03  0 
 1.247740e-03  -1.297107e-03  0 
 1.733184e-03  -1.358255e-03  0 
 2.295063e-03  -1.452439e-03  0 
 -9.016794e-04  -2.414395e-03  0 
 -6.228411e-05  -2.384905e-03  0 
 6.257491e-04  -2.365085e-03  0 
 1.225855e-03  -2.335752e-03  0 
 1.821899e-03  -2.310350e-03  0 
 2.464698e-03  -2.316439e-03  0 
 3.182378e-03  -2.356013e-03  0 
 -8.974634e-04  -3.714463e-03  0 
 8.755627e-05  -3.719180e-03  0 
 8.740873e-04  -3.673363e-03  0 
 1.571250e-03  -3.582189e-03  0 
 2.289849e-03  -3.488676e-03  0 
 3.096590e-03  -3.429637e-03  0 
 3.994623e-03  -3.475544e-03  0 
 -6.589490e-04  -5.224051e-03  0 
 3.588654e-04  -5.209701e-03  0 
 1.114591e-03  -5.086178e-03  0 
 1.832392e-03  -4.938915e-03  0 
 2.633487e-03  -4.795665e-03  0 
 3.596510e-03  -4.705871e-03  0 
 4.812110e-03  -4.733251e-03  0 
 -2.234284e-04  -6.956708e-03  0 
 7.012883e-04  -6.624940e-03  0 
 1.315723e-03  -6.483675e-03  0 
 2.010634e-03  -6.300154e-03  0 
 2.844059e-03  -6.193086e-03  0 
 3.923333e-03  -6.080225e-03  0 
 5.431020e-03  -6.211270e-03  0 
 1.507117e-03  -7.599353e-03  0 
 2.203034e-03  -7.506883e-03  0 
 2.984267e-03  -7.630438e-03  0 
 4.235122e-03  -7.839256e-03  0 
VECTORS displacement_ITER4 FLOAT
 0  0  0 
 -8.478877e-04  -5.905603e-04  0 
 -1.381507e-03  -1.361373e-03  0 
 -1.699502e-03  -2.324760e-03  0 
 -1.805705e-03  -3.448719e-03  0 
 -1.701259e-03  -4.739523e-03  0 
 -1.317694e-03  -6.280238e-03  0 
 -9.854162e-21  -8.213038e-21  0 
 0  0  0 
 0  0  0 
 0  0  0 
 0  0  0 
 0  0  0 
 0  0  0 
 0  0  0 
 0  0  0 
 0  0  0 
 0  0  0 
 0  0  0 
 -1.631843e-19  -1.351436e-21  0 
 -1.323472e-03  -2.116576e-03  0 
 -1.091575e-04  -1.994002e-03  0 
 1.504672e-04  -2.007850e-03  0 
 1.571525e-04  -1.925762e-03  0 
 5.623300e-05  -1.729461e-03  0 
 -1.589588e-04  -1.374625e-03  0 
 -9.699838e-04  -4.202674e-03  0 
 1.701535e-05  -4.107167e-03  0 
 2.968579e-04  -3.833384e-03  0 
 1.846550e-04  -3.511642e-03  0 
 -1.034009e-04  -3.058094e-03  0 
 -5.958670e-04  -2.355564e-03  0 
 2.764332e-04  -5.682226e-03  0 
 5.083890e-04  -5.617676e-03  0 
 4.171162e-04  -5.208845e-03  0 
 9.878713e-05  -4.691821e-03  0 
 -3.787488e-04  -4.080800e-03  0 
 -9.805543e-04  -3.298462e-03  0 
 1.966676e-03  -6.290255e-03  0 
 1.203343e-03  -6.312975e-03  0 
 5.803513e-04  -5.920506e-03  0 
 2.573456e-05  -5.401434e-03  0 
 -5.701583e-04  -4.865488e-03  0 
 -1.207864e-03  -4.235780e-03  0 
 3.719545e-03  -5.908984e-03  0 
 1.919136e-03  -6.153009e-03  0 
 7.860485e-04  -5.983780e-03  0 
 9.504350e-05  -5.677165e-03  0 
 -4.790267e-04  -5.355259e-03  0 
 -1.164172e-03  -5.124947e-03  0 
 5.242530e-03  -4.519500e-03  0 
 2.507503e-03  -5.218534e-03  0 
 1.075197e-03  -5.631425e-03  0 
 3.292494e-04  -5.731939e-03  0 
 -1.267170e-04  -5.580225e-03  0 
 -4.917030e-04  -5.607481e-03  0 
 -3.369784e-04  -4.484835e-04  0 
 -4.726981e-05  -4.429724e-04  0 
 1.794288e-04  -4.604517e-04  0 
 3.766089e-04  -4.761455e-04  0 
 5.636088e-04  -4.904042e-04  0 
 7.672494e-04  -5.262600e-04  0 
 1.116810e-03  -6.749797e-04  0 
 -6.301744e-04  -1.255848e-03  0 
 -6.119885e-05  -1.211858e-03  0 
 3.804688e-04  -1.211323e-03  0 
 7.621140e-04  -1.214534e-03  0 
 1.128329e-03  -1.223991e-03  0 
 1.534741e-03  -1.273412e-03  0 
 1.984848e-03  -1.352306e-03  0 
 -7.694985e-04  -2.270430e-03  0 
 -1.644872e-05  -2.244160e-03  0 
 5.978093e-04  -2.220508e-03  0 
 1.131191e-03  -2.185409e-03  0 
 1.653344e-03  -2.152256e-03  0 
 2.204407e-03  -2.149761e-03  0 
 2.804613e-03  -2.189908e-03  0 
 -7.305514e-04  -3.461417e-03  0 
 1.334982e-04  -3.471991e-03  0 
 8.293353e-04  -3.428734e-03  0 
 1.448705e-03  -3.333587e-03  0 
 2.086780e-03  -3.232875e-03  0 
 2.797111e-03  -3.169013e-03  0 
 3.579869e-03  -3.211158e-03  0 
 -4.660967e-04  -4.802650e-03  0 
 4.051938e-04  -4.835428e-03  0 
 1.050839e-03  -4.736982e-03  0 
 1.684167e-03  -4.590186e-03  0 
 2.407830e-03  -4.440148e-03  0 
 3.275143e-03  -4.339104e-03  0 
 4.357565e-03  -4.357226e-03  0 
 1.859843e-05  -6.328401e-03  0 
 7.861357e-04  -6.106567e-03  0 
 1.217982e-03  -6.041270e-03  0 
 1.840225e-03  -5.873267e-03  0 
 2.597227e-03  -5.749904e-03  0 
 3.589989e-03  -5.607776e-03  0 
 4.933986e-03  -5.670316e-03  0 
 1.328642e-03  -7.182509e-03  0 
 2.010527e-03  -7.044994e-03  0 
 2.687267e-03  -7.111070e-03  0 
 3.871318e-03  -7.259980e-03  0 
VECTORS displacement_ITER5 FLOAT
 0  0  0 
 -7.630417e-04  -5.469440e-04  0 
 -1.228527e-03  -1.267990e-03  0 
 -1.483172e-03  -2.166824e-03  0 
 -1.524530e-03  -3.204247e-03  0 
 -1.348695e-03  -4.372287e-03  0 
 -8.904228e-04  -5.710892e-03  0 
 -1.115243e-20  -8.094754e-21  0 
 0  0  0 
 0  0  0 
 0  0  0 
 0  0  0 
 0  0  0 
 0  0  0 
 0  0  0 
 0  0  0 
 0  0  0 
 0  0  0 
 0  0  0 
 -1.412490e-19  1.044169e-20  0 
 -9.322328e-04  -1.805029e-03  0 
 -8.394224e-06  -1.752219e-03  0 
 1.972650e-04  -1.793342e-03  0 
 2.048044e-04  -1.754650e-03  0 
 1.154644e-04  -1.609142e-03  0 
 -9.041717e-05  -1.298513e-03  0 
 -5.707320e-04  -3.544123e-03  0 
 1.887531e-04  -3.539811e-03  0 
 4.239777e-04  -3.389099e-03  0 
 3.354582e-04  -3.185028e-03  0 
 6.922306e-05  -2.839416e-03  0 
 -4.222825e-04  -2.220744e-03  0 
 4.261398e-04  -4.832029e-03  0 
 6.800009e-04  -4.849742e-03  0 
 6.656164e-04  -4.599190e-03  0 
 4.188393e-04  -4.251299e-03  0 
 -3.273574e-05  -3.789216e-03  0 
 -6.703380e-04  -3.109237e-03  0 
 1.723448e-03  -5.527536e-03  0 
 1.320874e-03  -5.567855e-03  0 
 9.664035e-04  -5.288303e-03  0 
 5.771895e-04  -4.919438e-03  0 
 1.130781e-05  -4.527638e-03  0 
 -7.271495e-04  -3.989056e-03  0 
 3.062569e-03  -5.549251e-03  0 
 1.941266e-03  -5.683341e-03  0 
 1.316102e-03  -5.518422e-03  0 
 9.179243e-04  -5.255885e-03  0 
 4.039142e-04  -4.980382e-03  0 
 -4.735238e-04  -4.793318e-03  0 
 4.177394e-03  -4.773614e-03  0 
 2.449679e-03  -5.301670e-03  0 
 1.740462e-03  -5.559890e-03  0 
 1.432961e-03  -5.488862e-03  0 
 1.081053e-03  -5.184104e-03  0 
 4.731403e-04  -5.017057e-03  0 
 -2.881080e-04  -4.217382e-04  0 
 -2.047523e-05  -4.204689e-04  0 
 1.864386e-04  -4.387559e-04  0 
 3.634449e-04  -4.549771e-04  0 
 5.273238e-04  -4.702508e-04  0 
 6.999936e-04  -5.035871e-04  0 
 9.864281e-04  -6.245585e-04  0 
 -5.307279e-04  -1.178009e-03  0 
 -7.914190e-06  -1.141066e-03  0 
 3.938993e-04  -1.140637e-03  0 
 7.369136e-04  -1.142564e-03  0 
 1.059666e-03  -1.150768e-03  0 
 1.407001e-03  -1.195188e-03  0 
 1.780580e-03  -1.269242e-03  0 
 -6.271676e-04  -2.125960e-03  0 
 5.805785e-05  -2.103254e-03  0 
 6.140826e-04  -2.076846e-03  0 
 1.094859e-03  -2.038116e-03  0 
 1.560066e-03  -2.002919e-03  0 
 2.042310e-03  -2.001336e-03  0 
 2.558164e-03  -2.051451e-03  0 
 -5.536523e-04  -3.229988e-03  0 
 2.177824e-04  -3.241708e-03  0 
 8.421436e-04  -3.194902e-03  0 
 1.402962e-03  -3.095930e-03  0 
 1.980954e-03  -2.993860e-03  0 
 2.617189e-03  -2.933460e-03  0 
 3.307510e-03  -2.979583e-03  0 
 -2.633754e-04  -4.449520e-03  0 
 4.882996e-04  -4.497713e-03  0 
 1.053981e-03  -4.407918e-03  0 
 1.630091e-03  -4.260330e-03  0 
 2.298042e-03  -4.105696e-03  0 
 3.090034e-03  -3.999300e-03  0 
 4.057076e-03  -4.011419e-03  0 
 2.377804e-04  -5.805113e-03  0 
 8.855272e-04  -5.643372e-03  0 
 1.200167e-03  -5.633468e-03  0 
 1.778542e-03  -5.467434e-03  0 
 2.482464e-03  -5.328446e-03  0 
 3.411222e-03  -5.161282e-03  0 
 4.607640e-03  -5.165546e-03  0 
 1.237366e-03  -6.799521e-03  0 
 1.933692e-03  -6.593479e-03  0 
 2.555995e-03  -6.611246e-03  0 
 3.689090e-03  -6.728273e-03  0 
VECTORS displacement_ITER6 FLOAT
 0  0  0 
 -7.954962e-04  -5.558352e-04  0 
 -1.300863e-03  -1.296387e-03  0 
 -1.604136e-03  -2.235193e-03  0 
 -1.704442e-03  -3.342589e-03  0 
 -1.592305e-03  -4.617568e-03  0 
 -1.186394e-03  -6.104408e-03  0 
 -6.489832e-21  -5.830575e-21  0 
 0  0  0 
 0  0  0 
 0  0  0 
 0  0  0 
 0  0  0 
 0  0  0 
 0  0  0 
 0  0  0 
 0  0  0 
 0  0  0 
 0  0  0 
 -9.770438e-20  2.900429e-20  0 
 -5.741764e-04  -1.653567e-03  0 
 5.291599e-05  -1.688253e-03  0 
 1.730112e-04  -1.748955e-03  0 
 1.665024e-04  -1.733203e-03  0 
 8.697327e-05  -1.613617e-03  0 
 -1.114717e-04  -1.317951e-03  0 
 -1.061457e-04  -3.141863e-03  0 
 2.829465e-04  -3.283262e-03  0 
 3.888293e-04  -3.258952e-03  0 
 2.906977e-04  -3.155750e-03  0 
 4.065655e-05  -2.878615e-03  0 
 -4.539193e-04  -2.282029e-03  0 
 7.625791e-04  -4.215346e-03  0 
 7.419287e-04  -4.441626e-03  0 
 6.592885e-04  -4.430643e-03  0 
 4.198625e-04  -4.275159e-03  0 
 -2.906756e-05  -3.913971e-03  0 
 -7.022580e-04  -3.246925e-03  0 
 1.689321e-03  -4.886606e-03  0 
 1.321145e-03  -5.189530e-03  0 
 1.052668e-03  -5.243593e-03  0 
 6.699944e-04  -5.109442e-03  0 
 6.381518e-05  -4.809919e-03  0 
 -7.539206e-04  -4.249640e-03  0 
 2.332676e-03  -5.417539e-03  0 
 1.942662e-03  -5.718734e-03  0 
 1.564653e-03  -5.798559e-03  0 
 1.123289e-03  -5.716287e-03  0 
 4.911487e-04  -5.521684e-03  0 
 -5.017475e-04  -5.250008e-03  0 
 2.716853e-03  -6.187494e-03  0 
 2.460101e-03  -6.192968e-03  0 
 2.162473e-03  -6.201242e-03  0 
 1.805675e-03  -6.225954e-03  0 
 1.245233e-03  -6.098083e-03  0 
 3.526435e-04  -5.864555e-03  0 
 -3.063192e-04  -4.215651e-04  0 
 -2.347517e-05  -4.160434e-04  0 
 1.993209e-04  -4.324497e-04  0 
 3.924313e-04  -4.474800e-04  0 
 5.722425e-04  -4.614751e-04  0 
 7.594596e-04  -4.936837e-04  0 
 1.048371e-03  -6.128844e-04  0 
 -5.721002e-04  -1.195585e-03  0 
 -1.574367e-05  -1.153102e-03  0 
 4.189873e-04  -1.150544e-03  0 
 7.938376e-04  -1.150787e-03  0 
 1.147926e-03  -1.155821e-03  0 
 1.526327e-03  -1.196055e-03  0 
 1.935839e-03  -1.274949e-03  0 
 -6.935438e-04  -2.181627e-03  0 
 4.630711e-05  -2.153450e-03  0 
 6.525721e-04  -2.125470e-03  0 
 1.179353e-03  -2.084898e-03  0 
 1.688841e-03  -2.045187e-03  0 
 2.220417e-03  -2.038420e-03  0 
 2.801268e-03  -2.093179e-03  0 
 -6.467484e-04  -3.350439e-03  0 
 2.055174e-04  -3.352988e-03  0 
 8.977072e-04  -3.303529e-03  0 
 1.515368e-03  -3.202152e-03  0 
 2.145061e-03  -3.091689e-03  0 
 2.840208e-03  -3.022157e-03  0 
 3.611119e-03  -3.061024e-03  0 
 -3.900478e-04  -4.673686e-03  0 
 4.776333e-04  -4.693192e-03  0 
 1.136761e-03  -4.596020e-03  0 
 1.768531e-03  -4.439479e-03  0 
 2.483083e-03  -4.264968e-03  0 
 3.341100e-03  -4.142744e-03  0 
 4.383023e-03  -4.142041e-03  0 
 6.831773e-05  -6.162291e-03  0 
 8.598160e-04  -5.985234e-03  0 
 1.335342e-03  -5.904898e-03  0 
 1.925742e-03  -5.703638e-03  0 
 2.671403e-03  -5.542998e-03  0 
 3.680408e-03  -5.373989e-03  0 
 4.954272e-03  -5.350119e-03  0 
 1.475099e-03  -6.994009e-03  0 
 2.070174e-03  -6.847294e-03  0 
 2.744710e-03  -6.878519e-03  0 
 3.935385e-03  -6.978507e-03  0 
VECTORS displacement_ITER7 FLOAT
 0  0  0 
 -7.673206e-04  -5.425037e-04  0 
 -1.248675e-03  -1.268290e-03  0 
 -1.528164e-03  -2.187591e-03  0 
 -1.602293e-03  -3.268596e-03  0 
 -1.456542e-03  -4.502175e-03  0 
 -1.010737e-03  -5.921765e-03  0 
 -8.054335e-21  -5.610531e-21  0 
 0  0  0 
 0  0  0 
 0  0  0 
 0  0  0 
 0  0  0 
 0  0  0 
 0  0  0 
 0  0  0 
 0  0  0 
 0  0  0 
 0  0  0 
 -9.014271e-20  2.621107e-20  0 
 -3.365333e-04  -1.502456e-03  0 
 1.050850e-04  -1.581171e-03  0 
 1.877357e-04  -1.657016e-03  0 
 1.790265e-04  -1.662516e-03  0 
 1.050242e-04  -1.566572e-03  0 
 -8.892117e-05  -1.290811e-03  0 
 1.339650e-04  -2.808680e-03  0 
 3.705167e-04  -3.012297e-03  0 
 4.349458e-04  -3.063545e-03  0 
 3.417078e-04  -3.022780e-03  0 
 1.010450e-04  -2.796260e-03  0 
 -3.924898e-04  -2.236209e-03  0 
 8.630600e-04  -3.781195e-03  0 
 8.284189e-04  -4.074790e-03  0 
 7.590080e-04  -4.167602e-03  0 
 5.385538e-04  -4.104730e-03  0 
 9.786369e-05  -3.811591e-03  0 
 -5.888638e-04  -3.186573e-03  0 
 1.593684e-03  -4.494372e-03  0 
 1.391165e-03  -4.842773e-03  0 
 1.217547e-03  -4.987749e-03  0 
 8.780060e-04  -4.943871e-03  0 
 2.749240e-04  -4.707669e-03  0 
 -5.780740e-04  -4.177220e-03  0 
 2.066125e-03  -5.222219e-03  0 
 2.002953e-03  -5.507891e-03  0 
 1.804708e-03  -5.627723e-03  0 
 1.436950e-03  -5.600530e-03  0 
 7.919291e-04  -5.445291e-03  0 
 -2.639182e-04  -5.164418e-03  0 
 2.366803e-03  -6.271842e-03  0 
 2.534732e-03  -6.198715e-03  0 
 2.497270e-03  -6.173119e-03  0 
 2.242983e-03  -6.197231e-03  0 
 1.641053e-03  -6.040849e-03  0 
 6.193722e-04  -5.780993e-03  0 
 -2.891345e-04  -4.141519e-04  0 
 -1.343574e-05  -4.103554e-04  0 
 2.025189e-04  -4.270637e-04  0 
 3.881249e-04  -4.420119e-04  0 
 5.585694e-04  -4.557971e-04  0 
 7.319594e-04  -4.853914e-04  0 
 9.867172e-04  -5.866295e-04  0 
 -5.365295e-04  -1.173223e-03  0 
 4.479251e-06  -1.133300e-03  0 
 4.250236e-04  -1.130236e-03  0 
 7.852545e-04  -1.128702e-03  0 
 1.121777e-03  -1.131300e-03  0 
 1.474334e-03  -1.166998e-03  0 
 1.851709e-03  -1.244483e-03  0 
 -6.411842e-04  -2.139323e-03  0 
 7.513682e-05  -2.112232e-03  0 
 6.597035e-04  -2.081926e-03  0 
 1.166056e-03  -2.037384e-03  0 
 1.653228e-03  -1.993782e-03  0 
 2.158622e-03  -1.986275e-03  0 
 2.709973e-03  -2.049805e-03  0 
 -5.792511e-04  -3.281260e-03  0 
 2.393979e-04  -3.283339e-03  0 
 9.031025e-04  -3.230289e-03  0 
 1.496812e-03  -3.124219e-03  0 
 2.103955e-03  -3.009298e-03  0 
 2.774697e-03  -2.939591e-03  0 
 3.515989e-03  -2.982226e-03  0 
 -3.099391e-04  -4.566658e-03  0 
 5.124317e-04  -4.586445e-03  0 
 1.138454e-03  -4.489866e-03  0 
 1.743164e-03  -4.329281e-03  0 
 2.436477e-03  -4.149949e-03  0 
 3.273451e-03  -4.022741e-03  0 
 4.278468e-03  -4.016845e-03  0 
 1.627192e-04  -5.990082e-03  0 
 8.933748e-04  -5.843484e-03  0 
 1.332692e-03  -5.760241e-03  0 
 1.891015e-03  -5.564087e-03  0 
 2.616747e-03  -5.397454e-03  0 
 3.613315e-03  -5.226096e-03  0 
 4.850073e-03  -5.176620e-03  0 
 1.413670e-03  -6.885273e-03  0 
 2.007966e-03  -6.694000e-03  0 
 2.680091e-03  -6.699661e-03  0 
 3.854967e-03  -6.796799e-03  0 
VECTORS displacement_ITER8 FLOAT
 0  0  0 
 -7.624712e-04  -5.423561e-04  0 
 -1.236179e-03  -1.266499e-03  0 
 -1.504944e-03  -2.180434e-03  0 
 -1.563626e-03  -3.249764e-03  0 
 -1.393409e-03  -4.455331e-03  0 
 -9.219897e-04  -5.801694e-03  0 
 -9.415593e-21  -5.649360e-21  0 
 0  0  0 
 0  0  0 
 0  0  0 
 0  0  0 
 0  0  0 
 0  0  0 
 0  0  0 
 0  0  0 
 0  0  0 
 0  0  0 
 0  0  0 
 -1.005519e-19  6.325962e-21  0 
 -2.220073e-04  -1.407451e-03  0 
 1.110054e-04  -1.502379e-03  0 
 1.830949e-04  -1.591673e-03  0 
 1.795033e-04  -1.617558e-03  0 
 1.097572e-04  -1.541531e-03  0 
 -8.331748e-05  -1.281105e-03  0 
 1.807421e-04  -2.601771e-03  0 
 3.768396e-04  -2.833241e-03  0 
 4.461240e-04  -2.938205e-03  0 
 3.656494e-04  -2.942888e-03  0 
 1.292864e-04  -2.752821e-03  0 
 -3.687351e-04  -2.219655e-03  0 
 7.654187e-04  -3.543490e-03  0 
 8.284216e-04  -3.862691e-03  0 
 8.078640e-04  -4.012654e-03  0 
 6.071636e-04  -4.002908e-03  0 
 1.675403e-04  -3.755090e-03  0 
 -5.356456e-04  -3.163325e-03  0 
 1.389710e-03  -4.333742e-03  0 
 1.395328e-03  -4.676583e-03  0 
 1.308730e-03  -4.838675e-03  0 
 1.007653e-03  -4.833855e-03  0 
 4.036341e-04  -4.641759e-03  0 
 -4.849814e-04  -4.142326e-03  0 
 1.940873e-03  -5.133374e-03  0 
 2.017951e-03  -5.397632e-03  0 
 1.939477e-03  -5.505232e-03  0 
 1.648565e-03  -5.498057e-03  0 
 9.947492e-04  -5.365716e-03  0 
 -1.259072e-04  -5.098984e-03  0 
 2.497756e-03  -5.989772e-03  0 
 2.598639e-03  -6.086348e-03  0 
 2.699968e-03  -6.139995e-03  0 
 2.547406e-03  -6.118477e-03  0 
 1.925793e-03  -5.906322e-03  0 
 7.938892e-04  -5.636810e-03  0 
 -2.858257e-04  -4.156289e-04  0 
 -1.271845e-05  -4.125686e-04  0 
 2.001435e-04  -4.293067e-04  0 
 3.823042e-04  -4.439454e-04  0 
 5.486606e-04  -4.570745e-04  0 
 7.162362e-04  -4.839286e-04  0 
 9.537715e-04  -5.720712e-04  0 
 -5.286929e-04  -1.173446e-03  0 
 6.052698e-06  -1.134006e-03  0 
 4.199221e-04  -1.130281e-03  0 
 7.733990e-04  -1.127728e-03  0 
 1.102104e-03  -1.128940e-03  0 
 1.443277e-03  -1.161640e-03  0 
 1.810410e-03  -1.238892e-03  0 
 -6.280059e-04  -2.134455e-03  0 
 7.686969e-05  -2.107054e-03  0 
 6.510914e-04  -2.075496e-03  0 
 1.148372e-03  -2.029789e-03  0 
 1.625778e-03  -1.985128e-03  0 
 2.120629e-03  -1.978495e-03  0 
 2.663524e-03  -2.048948e-03  0 
 -5.607964e-04  -3.264951e-03  0 
 2.397789e-04  -3.266600e-03  0 
 8.908871e-04  -3.214083e-03  0 
 1.474098e-03  -3.108396e-03  0 
 2.070974e-03  -2.992570e-03  0 
 2.731138e-03  -2.923560e-03  0 
 3.460018e-03  -2.968073e-03  0 
 -2.890140e-04  -4.526784e-03  0 
 5.117787e-04  -4.553286e-03  0 
 1.124892e-03  -4.463694e-03  0 
 1.715788e-03  -4.304265e-03  0 
 2.396151e-03  -4.123345e-03  0 
 3.221963e-03  -3.991263e-03  0 
 4.205867e-03  -3.978701e-03  0 
 1.959737e-04  -5.908769e-03  0 
 8.947215e-04  -5.805097e-03  0 
 1.320079e-03  -5.722339e-03  0 
 1.857050e-03  -5.529320e-03  0 
 2.566562e-03  -5.357860e-03  0 
 3.550491e-03  -5.185720e-03  0 
 4.775560e-03  -5.119659e-03  0 
 1.377107e-03  -6.868174e-03  0 
 1.952437e-03  -6.658510e-03  0 
 2.615898e-03  -6.637630e-03  0 
 3.752073e-03  -6.708148e-03  0 
VECTORS displacement_ITER9 FLOAT
 0  0  0 
 -7.841721e-04  -5.534962e-04  0 
 -1.275896e-03  -1.292042e-03  0 
 -1.561420e-03  -2.226183e-03  0 
 -1.635806e-03  -3.323296e-03  0 
 -1.475822e-03  -4.560106e-03  0 
 -1.010265e-03  -5.923336e-03  0 
 -7.524436e-21  -4.453254e-21  0 
 0  0  0 
 0  0  0 
 0  0  0 
 0  0  0 
 0  0  0 
 0  0  0 
 0  0  0 
 0  0  0 
 0  0  0 
 0  0  0 
 0  0  0 
 -8.843538e-20  -6.560173e-22  0 
 -1.137987e-04  -1.377577e-03  0 
 1.219835e-04  -1.494829e-03  0 
 1.695568e-04  -1.589427e-03  0 
 1.619429e-04  -1.621756e-03  0 