# vtk DataFile Version 3.1
this is an vtk file created by FEMAC
ASCII
DATASET UNSTRUCTURED_GRID
POINTS 102 FLOAT
5.000000 3.000000 0.000000
6.000000 3.000000 0.000000
5.000000 2.666667 0.000000
5.000000 2.777778 0.000000
5.000000 2.888889 0.000000
5.111111 3.000000 0.000000
5.222222 3.000000 0.000000
5.333333 3.000000 0.000000
5.444444 3.000000 0.000000
5.555556 3.000000 0.000000
5.666667 3.000000 0.000000
5.777778 3.000000 0.000000
5.888889 3.000000 0.000000
6.000000 2.666667 0.000000
6.000000 2.777778 0.000000
6.000000 2.888889 0.000000
6.000000 3.111111 0.000000
6.000000 3.222222 0.000000
6.000000 3.333333 0.000000
6.000000 3.444444 0.000000
6.000000 3.555556 0.000000
6.000000 3.666667 0.000000
6.000000 3.777778 0.000000
6.000000 3.888889 0.000000
5.111111 2.666667 0.000000
5.111111 2.777778 0.000000
5.111111 2.888889 0.000000
5.222222 2.666667 0.000000
5.222222 2.777778 0.000000
5.222222 2.888889 0.000000
5.333333 2.666667 0.000000
5.333333 2.777778 0.000000
5.333333 2.888889 0.000000
5.444444 2.666667 0.000000
5.444444 2.777778 0.000000
5.444444 2.888889 0.000000
5.555556 2.666667 0.000000
5.555556 2.777778 0.000000
5.555556 2.888889 0.000000
5.666667 2.666667 0.000000
5.666667 2.777778 0.000000
5.666667 2.888889 0.000000
5.777778 2.666667 0.000000
5.777778 2.777778 0.000000
5.777778 2.888889 0.000000
5.888889 2.666667 0.000000
5.888889 2.777778 0.000000
5.888889 2.888889 0.000000
5.111111 3.111111 0.000000
5.111111 3.222222 0.000000
5.111111 3.333333 0.000000
5.222222 3.111111 0.000000
5.222222 3.222222 0.000000
5.222222 3.333333 0.000000
5.333333 3.111111 0.000000
5.333333 3.222222 0.000000
5.333333 3.333333 0.000000
5.333333 3.444444 0.000000
5.333333 3.555556 0.000000
5.333333 3.666667 0.000000
5.333333 3.777778 0.000000
5.333333 3.888889 0.000000
5.444444 3.111111 0.000000
5.444444 3.222222 0.000000
5.444444 3.333333 0.000000
5.444444 3.444444 0.000000
5.444444 3.555556 0.000000
5.444444 3.666667 0.000000
5.444444 3.777778 0.000000
5.444444 3.888889 0.000000
5.555556 3.111111 0.000000
5.555556 3.222222 0.000000
5.555556 3.333333 0.000000
5.555556 3.444444 0.000000
5.555556 3.555556 0.000000
5.555556 3.666667 0.000000
5.555556 3.777778 0.000000
5.555556 3.888889 0.000000
5.666667 3.111111 0.000000
5.666667 3.222222 0.000000
5.666667 3.333333 0.000000
5.666667 3.444444 0.000000
5.666667 3.555556 0.000000
5.666667 3.666667 0.000000
5.666667 3.777778 0.000000
5.666667 3.888889 0.000000
5.777778 3.111111 0.000000
5.777778 3.222222 0.000000
5.777778 3.333333 0.000000
5.777778 3.444444 0.000000
5.777778 3.555556 0.000000
5.777778 3.666667 0.000000
5.777778 3.777778 0.000000
5.777778 3.888889 0.000000
5.888889 3.111111 0.000000
5.888889 3.222222 0.000000
5.888889 3.333333 0.000000
5.888889 3.444444 0.000000
5.888889 3.555556 0.000000
5.888889 3.666667 0.000000
5.888889 3.777778 0.000000
5.888889 3.888889 0.000000
CELLS 81 405 
4 2 24 25  3
4 3 25 26  4
4 4 26  5  0
4 24 27 28 25
4 25 28 29 26
4 26 29  6  5
4 27 30 31 28
4 28 31 32 29
4 29 32  7  6
4 30 33 34 31
4 31 34 35 32
4 32 35  8  7
4 33 36 37 34
4 34 37 38 35
4 35 38  9  8
4 36 39 40 37
4 37 40 41 38
4 38 41 10  9
4 39 42 43 40
4 40 43 44 41
4 41 44 11 10
4 42 45 46 43
4 43 46 47 44
4 44 47 12 11
4 45 13 14 46
4 46 14 15 47
4 47 15  1 12
4 5  6 51 48
4 48 51 52 49
4 49 52 53 50
4 6  7 54 51
4 51 54 55 52
4 52 55 56 53
4 7  8 62 54
4 54 62 63 55
4 55 63 64 56
4 56 64 65 57
4 57 65 66 58
4 58 66 67 59
4 59 67 68 60
4 60 68 69 61
4 8  9 70 62
4 62 70 71 63
4 63 71 72 64
4 64 72 73 65
4 65 73 74 66
4 66 74 75 67
4 67 75 76 68
4 68 76 77 69
4 9 10 78 70
4 70 78 79 71
4 71 79 80 72
4 72 80 81 73
4 73 81 82 74
4 74 82 83 75
4 75 83 84 76
4 76 84 85 77
4 10 11 86 78
4 78 86 87 79
4 79 87 88 80
4 80 88 89 81
4 81 89 90 82
4 82 90 91 83
4 83 91 92 84
4 84 92 93 85
4 11 12 94 86
4 86 94 95 87
4 87 95 96 88
4 88 96 97 89
4 89 97 98 90
4 90 98 99 91
4 91  99 100  92
4 92 100 101  93
4 12  1 16 94
4 94 16 17 95
4 95 17 18 96
4 96 18 19 97
4 97 19 20 98
4 98 20 21 99
4 99  21  22 100
4 100  22  23 101
CELL_TYPES 81
9 9 9 9 9 9 9 9 9 9 9 9 9 9 9 9 9 9 9 9 9 9 9 9 9 9 9 9 9 9 9 9 9 9 9 9 9 9 9 9 9 9 9 9 9 9 9 9 9 9 9 9 9 9 9 9 9 9 9 9 9 9 9 9 9 9 9 9 9 9 9 9 9 9 9 9 9 9 9 9 9 
POINT_DATA 102
VECTORS displacement_ITER1 FLOAT
 7.853152e-03  -1.359198e-01  0 
 5.790691e-03  -1.636145e-01  0 
 4.716144e-04  -1.328499e-01  0 
 1.740271e-03  -1.346988e-01  0 
 5.567070e-03  -1.356187e-01  0 
 6.137920e-03  -1.396379e-01  0 
 6.013555e-03  -1.425756e-01  0 
 5.934183e-03  -1.455744e-01  0 
 5.881314e-03  -1.485866e-01  0 
 5.846165e-03  -1.515989e-01  0 
 5.823787e-03  -1.546080e-01  0 
 5.809932e-03  -1.576128e-01  0 
 5.799959e-03  -1.606133e-01  0 
 -3.205433e-03  -1.681580e-01  0 
 -2.006955e-04  -1.663434e-01  0 
 2.604524e-03  -1.649723e-01  0 
 8.791793e-03  -1.635968e-01  0 
 1.178503e-02  -1.635805e-01  0 
 1.477362e-02  -1.635692e-01  0 
 1.775875e-02  -1.635660e-01  0 
 2.074235e-02  -1.635737e-01  0 
 2.372835e-02  -1.635963e-01  0 
 2.672703e-02  -1.636414e-01  0 
 2.979238e-02  -1.637228e-01  0 
 -1.827581e-03  -1.388447e-01  0 
 2.185098e-03  -1.388564e-01  0 
 4.688983e-03  -1.394357e-01  0 
 -2.064801e-03  -1.434665e-01  0 
 1.480493e-03  -1.431613e-01  0 
 4.184094e-03  -1.427782e-01  0 
 -2.110236e-03  -1.472426e-01  0 
 1.010137e-03  -1.468051e-01  0 
 3.747802e-03  -1.461780e-01  0 
 -2.205423e-03  -1.506864e-01  0 
 7.502600e-04  -1.501601e-01  0 
 3.477190e-03  -1.494227e-01  0 
 -2.334604e-03  -1.540388e-01  0 
 5.803159e-04  -1.534122e-01  0 
 3.321573e-03  -1.525813e-01  0 
 -2.494888e-03  -1.573853e-01  0 
 4.387596e-04  -1.566467e-01  0 
 3.220662e-03  -1.557113e-01  0 
 -2.697037e-03  -1.607697e-01  0 
 2.934070e-04  -1.599049e-01  0 
 3.129222e-03  -1.588441e-01  0 
 -2.944396e-03  -1.642143e-01  0 
 1.362498e-04  -1.632384e-01  0 
 2.955197e-03  -1.619421e-01  0 
 8.987337e-03  -1.396131e-01  0 
 1.193545e-02  -1.395776e-01  0 
 1.493421e-02  -1.395339e-01  0 
 8.962935e-03  -1.425574e-01  0 
 1.192180e-02  -1.425452e-01  0 
 1.491818e-02  -1.425115e-01  0 
 8.918975e-03  -1.455548e-01  0 
 1.189184e-02  -1.455392e-01  0 
 1.487584e-02  -1.455003e-01  0 
 1.775991e-02  -1.455427e-01  0 
 2.067562e-02  -1.455638e-01  0 
 2.362645e-02  -1.455757e-01  0 
 2.660550e-02  -1.455867e-01  0 
 2.963933e-02  -1.456206e-01  0 
 8.876787e-03  -1.485668e-01  0 
 1.185631e-02  -1.485496e-01  0 
 1.482524e-02  -1.485351e-01  0 
 1.777527e-02  -1.485292e-01  0 
 2.071201e-02  -1.485499e-01  0 
 2.366875e-02  -1.485727e-01  0 
 2.665095e-02  -1.485961e-01  0 
 2.962968e-02  -1.485984e-01  0 
 8.843762e-03  -1.515803e-01  0 
 1.182835e-02  -1.515636e-01  0 
 1.480231e-02  -1.515510e-01  0 
 1.776930e-02  -1.515466e-01  0 
 2.073271e-02  -1.515540e-01  0 
 2.370019e-02  -1.515719e-01  0 
 2.667506e-02  -1.515873e-01  0 
 2.965813e-02  -1.516010e-01  0 
 8.820819e-03  -1.545910e-01  0 
 1.180852e-02  -1.545758e-01  0 
 1.478871e-02  -1.545656e-01  0 
 1.776427e-02  -1.545623e-01  0 
 2.073883e-02  -1.545662e-01  0 
 2.371569e-02  -1.545749e-01  0 
 2.669767e-02  -1.545872e-01  0 
 2.968535e-02  -1.546015e-01  0 
 8.806030e-03  -1.575970e-01  0 
 1.179626e-02  -1.575837e-01  0 
 1.478053e-02  -1.575753e-01  0 
 1.776050e-02  -1.575731e-01  0 
 2.073903e-02  -1.575770e-01  0 
 2.372120e-02  -1.575847e-01  0 
 2.671363e-02  -1.575931e-01  0 
 2.971240e-02  -1.576067e-01  0 
 8.797251e-03  -1.605985e-01  0 
 1.178950e-02  -1.605857e-01  0 
 1.477618e-02  -1.605771e-01  0 
 1.775873e-02  -1.605753e-01  0 
 2.073937e-02  -1.605816e-01  0 
 2.372251e-02  -1.605959e-01  0 
 2.671956e-02  -1.606129e-01  0 
 2.974591e-02  -1.606254e-01  0 
VECTORS displacement_ITER2 FLOAT
 7.615861e-03  -1.243183e-01  0 
 8.018919e-03  -1.527958e-01  0 
 -1.321385e-03  -1.245541e-01  0 
 2.716944e-03  -1.251204e-01  0 
 6.575637e-03  -1.242078e-01  0 
 8.327688e-03  -1.289389e-01  0 
 8.188504e-03  -1.319468e-01  0 
 8.118264e-03  -1.349604e-01  0 
 8.084096e-03  -1.379621e-01  0 
 8.066752e-03  -1.409456e-01  0 
 8.055269e-03  -1.439139e-01  0 
 8.044717e-03  -1.468735e-01  0 
 8.032671e-03  -1.498309e-01  0 
 -2.695891e-03  -1.583556e-01  0 
 1.099944e-03  -1.564730e-01  0 
 4.422354e-03  -1.547717e-01  0 
 1.098370e-02  -1.527680e-01  0 
 1.393452e-02  -1.527401e-01  0 
 1.687756e-02  -1.527147e-01  0 
 1.981347e-02  -1.526941e-01  0 
 2.274229e-02  -1.526804e-01  0 
 2.566430e-02  -1.526751e-01  0 
 2.858132e-02  -1.526801e-01  0 
 3.151711e-02  -1.526996e-01  0 
 -1.404868e-03  -1.297750e-01  0 
 2.468124e-03  -1.292244e-01  0 
 5.582737e-03  -1.287607e-01  0 
 -1.216990e-03  -1.336738e-01  0 
 2.237347e-03  -1.331626e-01  0 
 5.492930e-03  -1.325663e-01  0 
 -1.052804e-03  -1.372322e-01  0 
 2.204653e-03  -1.366646e-01  0 
 5.314624e-03  -1.358776e-01  0 
 -9.698640e-04  -1.405894e-01  0 
 2.153353e-03  -1.399085e-01  0 
 5.198243e-03  -1.390149e-01  0 
 -1.024978e-03  -1.438284e-01  0 
 2.067196e-03  -1.430486e-01  0 
 5.120492e-03  -1.420814e-01  0 
 -1.233572e-03  -1.470602e-01  0 
 1.932347e-03  -1.461807e-01  0 
 5.058767e-03  -1.451366e-01  0 
 -1.617127e-03  -1.503999e-01  0 
 1.738631e-03  -1.494057e-01  0 
 4.997206e-03  -1.482422e-01  0 
 -2.157565e-03  -1.539767e-01  0 
 1.496682e-03  -1.528928e-01  0 
 4.850420e-03  -1.514230e-01  0 
 1.122442e-02  -1.289353e-01  0 
 1.414689e-02  -1.289189e-01  0 
 1.712299e-02  -1.288896e-01  0 
 1.116430e-02  -1.319224e-01  0 
 1.411121e-02  -1.319183e-01  0 
 1.709978e-02  -1.318932e-01  0 
 1.110645e-02  -1.349407e-01  0 
 1.406879e-02  -1.349339e-01  0 
 1.701789e-02  -1.349359e-01  0 
 1.983472e-02  -1.350213e-01  0 
 2.268508e-02  -1.350536e-01  0 
 2.556080e-02  -1.350626e-01  0 
 2.846843e-02  -1.350532e-01  0 
 3.144551e-02  -1.350543e-01  0 
 1.106548e-02  -1.379447e-01  0 
 1.402697e-02  -1.379321e-01  0 
 1.696049e-02  -1.379263e-01  0 
 1.985095e-02  -1.379337e-01  0 
 2.271463e-02  -1.379662e-01  0 
 2.559571e-02  -1.379926e-01  0 
 2.850564e-02  -1.380172e-01  0 
 3.143229e-02  -1.380267e-01  0 
 1.103631e-02  -1.409282e-01  0 
 1.399172e-02  -1.409103e-01  0 
 1.692632e-02  -1.408962e-01  0 
 1.983902e-02  -1.408929e-01  0 
 2.273485e-02  -1.409058e-01  0 
 2.562877e-02  -1.409328e-01  0 
 2.853291e-02  -1.409611e-01  0 
 3.145223e-02  -1.409896e-01  0 
 1.101547e-02  -1.438960e-01  0 
 1.396678e-02  -1.438770e-01  0 
 1.690498e-02  -1.438613e-01  0 
 1.982929e-02  -1.438537e-01  0 
 2.274257e-02  -1.438582e-01  0 
 2.564995e-02  -1.438746e-01  0 
 2.855752e-02  -1.439000e-01  0 
 3.146824e-02  -1.439286e-01  0 
 1.100106e-02  -1.468551e-01  0 
 1.395140e-02  -1.468364e-01  0 
 1.689216e-02  -1.468199e-01  0 
 1.982284e-02  -1.468094e-01  0 
 2.274476e-02  -1.468077e-01  0 
 2.566083e-02  -1.468152e-01  0 
 2.857376e-02  -1.468300e-01  0 
 3.148057e-02  -1.468504e-01  0 
 1.099135e-02  -1.498112e-01  0 
 1.394219e-02  -1.497907e-01  0 
 1.688425e-02  -1.497712e-01  0 
 1.981816e-02  -1.497566e-01  0 
 2.274438e-02  -1.497494e-01  0 
 2.566402e-02  -1.497500e-01  0 
 2.858044e-02  -1.497553e-01  0 
 3.149341e-02  -1.497622e-01  0 
VECTORS displacement_ITER3 FLOAT
 8.475264e-03  -1.175263e-01  0 
 9.508683e-03  -1.437151e-01  0 
 -3.601627e-04  -1.177984e-01  0 
 2.642764e-03  -1.184676e-01  0 
 6.682046e-03  -1.176156e-01  0 
 9.903787e-03  -1.217609e-01  0 
 9.707921e-03  -1.245446e-01  0 
 9.619032e-03  -1.273268e-01  0 
 9.579208e-03  -1.300922e-01  0 
 9.561112e-03  -1.328359e-01  0 
 9.549841e-03  -1.355615e-01  0 
 9.538762e-03  -1.382771e-01  0 
 9.525085e-03  -1.409909e-01  0 
 -2.112011e-03  -1.501398e-01  0 
 2.300563e-03  -1.481163e-01  0 
 5.864257e-03  -1.461175e-01  0 
 1.223198e-02  -1.436815e-01  0 
 1.493652e-02  -1.436479e-01  0 
 1.763039e-02  -1.436178e-01  0 
 2.031516e-02  -1.435944e-01  0 
 2.299210e-02  -1.435810e-01  0 
 2.566308e-02  -1.435793e-01  0 
 2.833185e-02  -1.435907e-01  0 
 3.102418e-02  -1.436178e-01  0 
 -2.835083e-04  -1.216259e-01  0 
 3.103099e-03  -1.216419e-01  0 
 6.285208e-03  -1.215430e-01  0 
 -4.698869e-05  -1.251267e-01  0 
 3.311559e-03  -1.250909e-01  0 
 6.637946e-03  -1.249654e-01  0 
 1.737221e-04  -1.285718e-01  0 
 3.495832e-03  -1.283858e-01  0 
 6.671157e-03  -1.279769e-01  0 
 3.017331e-04  -1.318939e-01  0 
 3.531878e-03  -1.314940e-01  0 
 6.643094e-03  -1.308901e-01  0 
 2.466604e-04  -1.350973e-01  0 
 3.464335e-03  -1.345125e-01  0 
 6.595122e-03  -1.337597e-01  0 
 -2.518725e-05  -1.382935e-01  0 
 3.304872e-03  -1.375318e-01  0 
 6.541003e-03  -1.366345e-01  0 
 -5.549221e-04  -1.416388e-01  0 
 3.057043e-03  -1.406880e-01  0 
 6.488067e-03  -1.395942e-01  0 
 -1.328632e-03  -1.453440e-01  0 
 2.748632e-03  -1.442390e-01  0 
 6.353609e-03  -1.427044e-01  0 
 1.253509e-02  -1.217587e-01  0 
 1.516665e-02  -1.217703e-01  0 
 1.784619e-02  -1.217794e-01  0 
 1.244751e-02  -1.245166e-01  0 
 1.513008e-02  -1.245252e-01  0 
 1.785255e-02  -1.245168e-01  0 
 1.237143e-02  -1.273068e-01  0 
 1.508517e-02  -1.273083e-01  0 
 1.777344e-02  -1.273411e-01  0 
 2.034171e-02  -1.274462e-01  0 
 2.293560e-02  -1.274874e-01  0 
 2.554962e-02  -1.274947e-01  0 
 2.818388e-02  -1.274813e-01  0 
 3.087943e-02  -1.274787e-01  0 
 1.232300e-02  -1.300767e-01  0 
 1.504191e-02  -1.300700e-01  0 
 1.772543e-02  -1.300750e-01  0 
 2.035934e-02  -1.300940e-01  0 
 2.296377e-02  -1.301309e-01  0 
 2.558200e-02  -1.301563e-01  0 
 2.822639e-02  -1.301769e-01  0 
 3.088828e-02  -1.301852e-01  0 
 1.229074e-02  -1.328206e-01  0 
 1.500298e-02  -1.328053e-01  0 
 1.768894e-02  -1.327947e-01  0 
 2.034674e-02  -1.327949e-01  0 
 2.298355e-02  -1.328097e-01  0 
 2.561714e-02  -1.328363e-01  0 
 2.826217e-02  -1.328644e-01  0 
 3.092838e-02  -1.328963e-01  0 
 1.226782e-02  -1.355447e-01  0 
 1.497440e-02  -1.355262e-01  0 
 1.766371e-02  -1.355107e-01  0 
 2.033460e-02  -1.355032e-01  0 
 2.299141e-02  -1.355078e-01  0 
 2.564211e-02  -1.355248e-01  0 
 2.829586e-02  -1.355523e-01  0 
 3.095721e-02  -1.355851e-01  0 
 1.225182e-02  -1.382583e-01  0 
 1.495639e-02  -1.382388e-01  0 
 1.764793e-02  -1.382209e-01  0 
 2.032614e-02  -1.382093e-01  0 
 2.299381e-02  -1.382074e-01  0 
 2.565625e-02  -1.382161e-01  0 
 2.831866e-02  -1.382334e-01  0 
 3.097868e-02  -1.382578e-01  0 
 1.224092e-02  -1.409691e-01  0 
 1.494559e-02  -1.409459e-01  0 
 1.763827e-02  -1.409238e-01  0 
 2.032037e-02  -1.409074e-01  0 
 2.299373e-02  -1.409002e-01  0 
 2.566136e-02  -1.409029e-01  0 
 2.832879e-02  -1.409118e-01  0 
 3.099817e-02  -1.409221e-01  0 
VECTORS displacement_ITER4 FLOAT
 8.277819e-03  -1.149082e-01  0 
 7.908790e-03  -1.384768e-01  0 
 -1.659418e-03  -1.153412e-01  0 
 2.544641e-03  -1.142597e-01  0 
 5.048749e-03  -1.142320e-01  0 
 8.239405e-03  -1.178007e-01  0 
 8.076701e-03  -1.204404e-01  0 
 8.004682e-03  -1.230716e-01  0 
 7.974997e-03  -1.256782e-01  0 
 7.962517e-03  -1.282587e-01  0 
 7.953569e-03  -1.308188e-01  0 
 7.942528e-03  -1.333682e-01  0 
 7.927349e-03  -1.359163e-01  0 
 -3.449132e-03  -1.457780e-01  0 
 8.559031e-04  -1.434515e-01  0 
 4.308778e-03  -1.411875e-01  0 
 1.046862e-02  -1.384388e-01  0 
 1.300767e-02  -1.384007e-01  0 
 1.553523e-02  -1.383658e-01  0 
 1.805302e-02  -1.383376e-01  0 
 2.056264e-02  -1.383203e-01  0 
 2.306667e-02  -1.383169e-01  0 
 2.557010e-02  -1.383306e-01  0 
 2.810172e-02  -1.383665e-01  0 
 -1.103446e-03  -1.186465e-01  0 
 2.163019e-03  -1.183760e-01  0 
 5.478190e-03  -1.180141e-01  0 
 -8.010310e-04  -1.220211e-01  0 
 2.353693e-03  -1.217073e-01  0 
 5.404509e-03  -1.211827e-01  0 
 -6.076287e-04  -1.252597e-01  0 
 2.427728e-03  -1.247441e-01  0 
 5.326409e-03  -1.240057e-01  0 
 -5.869729e-04  -1.283395e-01  0 
 2.387088e-03  -1.276280e-01  0 
 5.257643e-03  -1.267344e-01  0 
 -7.467403e-04  -1.313333e-01  0 
 2.257638e-03  -1.304494e-01  0 
 5.184242e-03  -1.294258e-01  0 
 -1.106925e-03  -1.343347e-01  0 
 2.040344e-03  -1.332863e-01  0 
 5.106909e-03  -1.321280e-01  0 
 -1.721176e-03  -1.374931e-01  0 
 1.736363e-03  -1.362715e-01  0 
 5.031734e-03  -1.349238e-01  0 
 -2.587541e-03  -1.410323e-01  0 
 1.373853e-03  -1.396873e-01  0 
 4.866731e-03  -1.378825e-01  0 
 1.076071e-02  -1.177851e-01  0 
 1.325720e-02  -1.178014e-01  0 
 1.579420e-02  -1.178143e-01  0 
 1.067249e-02  -1.204141e-01  0 
 1.321534e-02  -1.204183e-01  0 
 1.578638e-02  -1.204120e-01  0 
 1.060309e-02  -1.230517e-01  0 
 1.316569e-02  -1.230506e-01  0 
 1.570018e-02  -1.230789e-01  0 
 1.811011e-02  -1.231775e-01  0 
 2.054233e-02  -1.232148e-01  0 
 2.298502e-02  -1.232253e-01  0 
 2.543669e-02  -1.232231e-01  0 
 2.792689e-02  -1.232364e-01  0 
 1.055892e-02  -1.256618e-01  0 
 1.312003e-02  -1.256521e-01  0 
 1.564525e-02  -1.256519e-01  0 
 1.811905e-02  -1.256652e-01  0 
 2.056056e-02  -1.256965e-01  0 
 2.301048e-02  -1.257174e-01  0 
 2.547723e-02  -1.257343e-01  0 
 2.794994e-02  -1.257405e-01  0 
 1.052879e-02  -1.282417e-01  0 
 1.307931e-02  -1.282233e-01  0 
 1.560380e-02  -1.282081e-01  0 
 1.809918e-02  -1.282025e-01  0 
 2.057133e-02  -1.282105e-01  0 
 2.303658e-02  -1.282290e-01  0 
 2.550876e-02  -1.282483e-01  0 
 2.800030e-02  -1.282729e-01  0 
 1.050654e-02  -1.307998e-01  0 
 1.304927e-02  -1.307783e-01  0 
 1.557482e-02  -1.307586e-01  0 
 1.808107e-02  -1.307456e-01  0 
 2.057155e-02  -1.307434e-01  0 
 2.305402e-02  -1.307524e-01  0 
 2.553880e-02  -1.307719e-01  0 
 2.803359e-02  -1.307979e-01  0 
 1.049027e-02  -1.333469e-01  0 
 1.302998e-02  -1.333243e-01  0 
 1.555626e-02  -1.333024e-01  0 
 1.806829e-02  -1.332857e-01  0 
 2.056863e-02  -1.332781e-01  0 
 2.306311e-02  -1.332810e-01  0 
 2.555881e-02  -1.332930e-01  0 
 2.805576e-02  -1.333134e-01  0 
 1.047859e-02  -1.358915e-01  0 
 1.301801e-02  -1.358649e-01  0 
 1.554464e-02  -1.358385e-01  0 
 1.805986e-02  -1.358175e-01  0 
 2.056562e-02  -1.358058e-01  0 
 2.306564e-02  -1.358053e-01  0 
 2.556693e-02  -1.358128e-01  0 
 2.807485e-02  -1.358227e-01  0 
VECTORS displacement_ITER5 FLOAT
 7.182794e-03  -1.145738e-01  0 
 6.013759e-03  -1.380105e-01  0 
 -2.170979e-03  -1.138313e-01  0 
 1.101268e-03  -1.130436e-01  0 
 3.068209e-03  -1.138363e-01  0 
 6.293360e-03  -1.166330e-01  0 
 6.153146e-03  -1.193561e-01  0 
 6.093109e-03  -1.220717e-01  0 
 6.068475e-03  -1.247640e-01  0 
 6.058403e-03  -1.274333e-01  0 
 6.051459e-03  -1.300842e-01  0 
 6.042540e-03  -1.327245e-01  0 
 6.029719e-03  -1.353625e-01  0 
 -4.699406e-03  -1.441746e-01  0 
 -8.098968e-04  -1.422510e-01  0 
 2.506095e-03  -1.403365e-01  0 
 8.661239e-03  -1.379775e-01  0 
 1.129095e-02  -1.379440e-01  0 
 1.391047e-02  -1.379129e-01  0 
 1.652124e-02  -1.378878e-01  0 
 1.912493e-02  -1.378728e-01  0 
 2.172444e-02  -1.378716e-01  0 
 2.432517e-02  -1.378876e-01  0 
 2.695633e-02  -1.379273e-01  0 
 -2.223543e-03  -1.170087e-01  0 
 8.450609e-04  -1.170067e-01  0 
 3.907396e-03  -1.170203e-01  0 
 -2.179039e-03  -1.204801e-01  0 
 8.990935e-04  -1.203241e-01  0 
 3.705119e-03  -1.199350e-01  0 
 -2.188961e-03  -1.238053e-01  0 
 8.027096e-04  -1.234032e-01  0 
 3.574439e-03  -1.228137e-01  0 
 -2.328250e-03  -1.270021e-01  0 
 6.638939e-04  -1.264037e-01  0 
 3.469667e-03  -1.256503e-01  0 
 -2.559715e-03  -1.301440e-01  0 
 4.840538e-04  -1.293663e-01  0 
 3.369533e-03  -1.284603e-01  0 
 -2.896984e-03  -1.332713e-01  0 
 2.544036e-04  -1.323278e-01  0 
 3.269097e-03  -1.312697e-01  0 
 -3.391453e-03  -1.364739e-01  0 
 -3.085126e-05  -1.353716e-01  0 
 3.169631e-03  -1.341339e-01  0 
 -4.054126e-03  -1.399013e-01  0 
 -3.596129e-04  -1.387051e-01  0 
 2.996289e-03  -1.371017e-01  0 
 8.917965e-03  -1.166108e-01  0 
 1.150234e-02  -1.166435e-01  0 
 1.411073e-02  -1.166765e-01  0 
 8.836903e-03  -1.193350e-01  0 
 1.146992e-02  -1.193412e-01  0 
 1.411382e-02  -1.193455e-01  0 
 8.776381e-03  -1.220552e-01  0 
 1.142697e-02  -1.220546e-01  0 
 1.405133e-02  -1.220821e-01  0 
 1.658457e-02  -1.221614e-01  0 
 1.912772e-02  -1.221930e-01  0 
 2.167221e-02  -1.222032e-01  0 
 2.421374e-02  -1.222077e-01  0 
 2.677516e-02  -1.222310e-01  0 
 8.738470e-03  -1.247502e-01  0 
 1.138858e-02  -1.247421e-01  0 
 1.400850e-02  -1.247431e-01  0 
 1.658625e-02  -1.247544e-01  0 
 1.913614e-02  -1.247779e-01  0 
 2.168797e-02  -1.247930e-01  0 
 2.424800e-02  -1.248056e-01  0 
 2.680518e-02  -1.248110e-01  0 
 8.713037e-03  -1.274187e-01  0 
 1.135407e-02  -1.274031e-01  0 
 1.397288e-02  -1.273901e-01  0 
 1.656651e-02  -1.273843e-01  0 
 1.913961e-02  -1.273884e-01  0 
 2.170493e-02  -1.274001e-01  0 
 2.427324e-02  -1.274124e-01  0 
 2.685785e-02  -1.274313e-01  0 
 8.694202e-03  -1.300675e-01  0 
 1.132804e-02  -1.300488e-01  0 
 1.394684e-02  -1.300313e-01  0 
 1.654852e-02  -1.300188e-01  0 
 1.913603e-02  -1.300144e-01  0 
 2.171616e-02  -1.300188e-01  0 
 2.429829e-02  -1.300324e-01  0 
 2.689056e-02  -1.300530e-01  0 
 8.680203e-03  -1.327056e-01  0 
 1.131094e-02  -1.326856e-01  0 
 1.392974e-02  -1.326660e-01  0 
 1.653571e-02  -1.326504e-01  0 
 1.913120e-02  -1.326423e-01  0 
 2.172195e-02  -1.326430e-01  0 
 2.431522e-02  -1.326519e-01  0 
 2.691140e-02  -1.326689e-01  0 
 8.669998e-03  -1.353407e-01  0 
 1.130018e-02  -1.353170e-01  0 
 1.391899e-02  -1.352935e-01  0 
 1.652748e-02  -1.352745e-01  0 
 1.912760e-02  -1.352639e-01  0 
 2.172327e-02  -1.352635e-01  0 
 2.432183e-02  -1.352709e-01  0 
 2.692991e-02  -1.352803e-01  0 
VECTORS displacement_ITER6 FLOAT
 5.090492e-03  -1.134897e-01  0 
 4.291673e-03  -1.380345e-01  0 
 -4.402214e-03  -1.129361e-01  0 
 -1.218420e-03  -1.127596e-01  0 
 1.665052e-03  -1.130435e-01  0 
 4.578606e-03  -1.161811e-01  0 
 4.471047e-03  -1.189661e-01  0 
 4.414228e-03  -1.217214e-01  0 
 4.377115e-03  -1.244570e-01  0 
 4.351223e-03  -1.271803e-01  0 
 4.332066e-03  -1.298953e-01  0 
 4.316911e-03  -1.326057e-01  0 
 4.303787e-03  -1.353160e-01  0 
 -4.971962e-03  -1.409395e-01  0 
 -2.086079e-03  -1.404150e-01  0 
 9.370316e-04  -1.395180e-01  0 
 7.010150e-03  -1.380109e-01  0 
 9.715407e-03  -1.379875e-01  0 
 1.241406e-02  -1.379683e-01  0 
 1.510880e-02  -1.379563e-01  0 
 1.780211e-02  -1.379537e-01  0 
 2.049612e-02  -1.379608e-01  0 
 2.319211e-02  -1.379762e-01  0 
 2.589895e-02  -1.380001e-01  0 
 -4.483074e-03  -1.172092e-01  0 
 -1.063367e-03  -1.168402e-01  0 
 2.042195e-03  -1.166306e-01  0 
 -4.189997e-03  -1.208832e-01  0 
 -1.036446e-03  -1.204009e-01  0 
 1.909140e-03  -1.197345e-01  0 
 -4.024431e-03  -1.241339e-01  0 
 -1.085677e-03  -1.235063e-01  0 
 1.763016e-03  -1.226817e-01  0 
 -4.030582e-03  -1.271312e-01  0 
 -1.170905e-03  -1.264100e-01  0 
 1.647551e-03  -1.255080e-01  0 
 -4.135453e-03  -1.299922e-01  0 
 -1.290311e-03  -1.292140e-01  0 
 1.547131e-03  -1.282705e-01  0 
 -4.300800e-03  -1.327648e-01  0 
 -1.440642e-03  -1.319637e-01  0 
 1.449846e-03  -1.310015e-01  0 
 -4.523155e-03  -1.354910e-01  0 
 -1.624353e-03  -1.346997e-01  0 
 1.350383e-03  -1.337293e-01  0 
 -4.779274e-03  -1.382035e-01  0 
 -1.856900e-03  -1.375051e-01  0 
 1.225114e-03  -1.365007e-01  0 
 7.293309e-03  -1.161707e-01  0 
 9.924346e-03  -1.162272e-01  0 
 1.254355e-02  -1.162842e-01  0 
 7.209573e-03  -1.189432e-01  0 
 9.893061e-03  -1.189429e-01  0 
 1.255234e-02  -1.189553e-01  0 
 7.144073e-03  -1.216983e-01  0 
 9.845510e-03  -1.216841e-01  0 
 1.252022e-02  -1.216901e-01  0 
 1.516066e-02  -1.217126e-01  0 
 1.780206e-02  -1.217142e-01  0 
 2.044001e-02  -1.217066e-01  0 
 2.307498e-02  -1.217021e-01  0 
 2.572408e-02  -1.217170e-01  0 
 7.098675e-03  -1.244362e-01  0 
 9.804152e-03  -1.244184e-01  0 
 1.248858e-02  -1.244076e-01  0 
 1.515038e-02  -1.244039e-01  0 
 1.779961e-02  -1.244049e-01  0 
 2.045002e-02  -1.244043e-01  0 
 2.310845e-02  -1.244073e-01  0 
 2.577284e-02  -1.244132e-01  0 
 7.066399e-03  -1.271613e-01  0 
 9.770520e-03  -1.271422e-01  0 
 1.246002e-02  -1.271259e-01  0 
 1.513479e-02  -1.271154e-01  0 
 1.779971e-02  -1.271119e-01  0 
 2.046379e-02  -1.271154e-01  0 
 2.313533e-02  -1.271243e-01  0 
 2.582967e-02  -1.271444e-01  0 
 7.043081e-03  -1.298777e-01  0 
 9.746279e-03  -1.298596e-01  0 
 1.243936e-02  -1.298435e-01  0 
 1.512266e-02  -1.298321e-01  0 
 1.779975e-02  -1.298280e-01  0 
 2.047658e-02  -1.298328e-01  0 
 2.316095e-02  -1.298481e-01  0 
 2.585947e-02  -1.298716e-01  0 
 7.027054e-03  -1.325893e-01  0 
 9.730840e-03  -1.325729e-01  0 
 1.242647e-02  -1.325579e-01  0 
 1.511522e-02  -1.325474e-01  0 
 1.780036e-02  -1.325442e-01  0 
 2.048664e-02  -1.325499e-01  0 
 2.317852e-02  -1.325644e-01  0 
 2.587532e-02  -1.325858e-01  0 
 7.017041e-03  -1.352997e-01  0 
 9.721927e-03  -1.352826e-01  0 
 1.241911e-02  -1.352671e-01  0 
 1.511125e-02  -1.352567e-01  0 
 1.780132e-02  -1.352542e-01  0 
 2.049242e-02  -1.352603e-01  0 
 2.318738e-02  -1.352731e-01  0 
 2.588634e-02  -1.352876e-01  0 
VECTORS displacement_ITER7 FLOAT
 5.304632e-03  -1.123953e-01  0 
 4.772547e-03  -1.374048e-01  0 
 -2.966372e-03  -1.113480e-01  0 
 -7.404068e-04  -1.123713e-01  0 
 2.948729e-03  -1.124274e-01  0 
 5.073653e-03  -1.155379e-01  0 
 4.974503e-03  -1.183237e-01  0 
 4.917094e-03  -1.210697e-01  0 
 4.873420e-03  -1.237993e-01  0 
 4.840364e-03  -1.265230e-01  0 
 4.816191e-03  -1.292434e-01  0 
 4.798505e-03  -1.319615e-01  0 
 4.784609e-03  -1.346796e-01  0 
 -4.136584e-03  -1.405718e-01  0 
 -1.431789e-03  -1.398614e-01  0 
 1.479668e-03  -1.388885e-01  0 
 7.497652e-03  -1.373819e-01  0 
 1.021017e-02  -1.373602e-01  0 
 1.291677e-02  -1.373437e-01  0 
 1.562052e-02  -1.373351e-01  0 
 1.832403e-02  -1.373353e-01  0 
 2.102898e-02  -1.373434e-01  0 
 2.373532e-02  -1.373567e-01  0 
 2.644497e-02  -1.373738e-01  0 
 -3.417463e-03  -1.160659e-01  0 
 -8.891457e-05  -1.159033e-01  0 
 2.646878e-03  -1.158694e-01  0 
 -3.248648e-03  -1.198388e-01  0 
 -1.894836e-04  -1.194515e-01  0 
 2.585244e-03  -1.189297e-01  0 
 -3.219345e-03  -1.231854e-01  0 
 -3.047517e-04  -1.226327e-01  0 
 2.437642e-03  -1.219115e-01  0 
 -3.311923e-03  -1.263281e-01  0 
 -4.354241e-04  -1.256400e-01  0 
 2.304565e-03  -1.247885e-01  0 
 -3.456382e-03  -1.293424e-01  0 
 -5.862007e-04  -1.285545e-01  0 
 2.183828e-03  -1.276066e-01  0 
 -3.620163e-03  -1.322557e-01  0 
 -7.530210e-04  -1.314046e-01  0 
 2.066228e-03  -1.303895e-01  0 
 -3.802565e-03  -1.350880e-01  0 
 -9.423314e-04  -1.342123e-01  0 
 1.944515e-03  -1.331533e-01  0 
 -3.995112e-03  -1.378439e-01  0 
 -1.175725e-03  -1.370366e-01  0 
 1.789224e-03  -1.359262e-01  0 
 7.792271e-03  -1.155373e-01  0 
 1.040564e-02  -1.156112e-01  0 
 1.298645e-02  -1.156877e-01  0 
 7.706687e-03  -1.183017e-01  0 
 1.037792e-02  -1.183021e-01  0 
 1.300823e-02  -1.183214e-01  0 
 7.638243e-03  -1.210454e-01  0 
 1.033108e-02  -1.210276e-01  0 
 1.299640e-02  -1.210294e-01  0 
 1.565859e-02  -1.210302e-01  0 
 1.831544e-02  -1.210236e-01  0 
 2.096805e-02  -1.210118e-01  0 
 2.361977e-02  -1.210064e-01  0 
 2.628872e-02  -1.210199e-01  0 
 7.590126e-03  -1.237770e-01  0 
 1.029136e-02  -1.237572e-01  0 
 1.297548e-02  -1.237448e-01  0 
 1.564632e-02  -1.237386e-01  0 
 1.831194e-02  -1.237331e-01  0 
 2.097846e-02  -1.237297e-01  0 
 2.365400e-02  -1.237331e-01  0 
 2.634080e-02  -1.237438e-01  0 
 7.555889e-03  -1.265028e-01  0 
 1.026042e-02  -1.264837e-01  0 
 1.295321e-02  -1.264683e-01  0 
 1.563571e-02  -1.264585e-01  0 
 1.831319e-02  -1.264547e-01  0 
 2.099301e-02  -1.264575e-01  0 
 2.368170e-02  -1.264678e-01  0 
 2.639212e-02  -1.264895e-01  0 
 7.531393e-03  -1.292250e-01  0 
 1.023836e-02  -1.292076e-01  0 
 1.293677e-02  -1.291931e-01  0 
 1.562813e-02  -1.291837e-01  0 
 1.831640e-02  -1.291814e-01  0 
 2.100701e-02  -1.291876e-01  0 
 2.370602e-02  -1.292036e-01  0 
 2.641786e-02  -1.292271e-01  0 
 7.514694e-03  -1.319447e-01  0 
 1.022423e-02  -1.319290e-01  0 
 1.292660e-02  -1.319159e-01  0 
 1.562393e-02  -1.319077e-01  0 
 1.831978e-02  -1.319068e-01  0 
 2.101821e-02  -1.319143e-01  0 
 2.372226e-02  -1.319296e-01  0 
 2.643072e-02  -1.319505e-01  0 
 7.504412e-03  -1.346633e-01  0 
 1.021606e-02  -1.346473e-01  0 
 1.292080e-02  -1.346338e-01  0 
 1.562186e-02  -1.346261e-01  0 
 1.832239e-02  -1.346258e-01  0 
 2.102498e-02  -1.346333e-01  0 
 2.373074e-02  -1.346464e-01  0 
 2.643837e-02  -1.346607e-01  0 
VECTORS displacement_ITER8 FLOAT
 5.336794e-03  -1.119955e-01  0 
 5.059504e-03  -1.364049e-01  0 
 -2.958268e-03  -1.111926e-01  0 
 -5.403678e-04  -1.119913e-01  0 
 3.020513e-03  -1.119396e-01  0 
 5.427707e-03  -1.152655e-01  0 
 5.317045e-03  -1.179503e-01  0 
 5.246073e-03  -1.205938e-01  0 
 5.188715e-03  -1.232259e-01  0 
 5.144325e-03  -1.258580e-01  0 
 5.112354e-03  -1.284914e-01  0 
 5.090070e-03  -1.311254e-01  0 
 5.073534e-03  -1.337608e-01  0 
 -4.350840e-03  -1.402656e-01  0 
 -1.341317e-03  -1.393622e-01  0 
 1.699503e-03  -1.381646e-01  0 
 7.703047e-03  -1.363786e-01  0 
 1.033116e-02  -1.363543e-01  0 
 1.295187e-02  -1.363368e-01  0 
 1.556884e-02  -1.363288e-01  0 
 1.818521e-02  -1.363311e-01  0 
 2.080348e-02  -1.363431e-01  0 
 2.342548e-02  -1.363635e-01  0 
 2.605714e-02  -1.363924e-01  0 
 -3.209033e-03  -1.154924e-01  0 
 4.297894e-06  -1.154224e-01  0 
 2.801870e-03  -1.154148e-01  0 
 -3.070084e-03  -1.191292e-01  0 
 -7.538023e-06  -1.188557e-01  0 
 2.831520e-03  -1.184705e-01  0 
 -3.055485e-03  -1.224590e-01  0 
 -7.112567e-05  -1.219946e-01  0 
 2.722546e-03  -1.213679e-01  0 
 -3.148763e-03  -1.256050e-01  0 
 -1.933944e-04  -1.249674e-01  0 
 2.597083e-03  -1.241697e-01  0 
 -3.307354e-03  -1.286168e-01  0 
 -3.545388e-04  -1.278471e-01  0 
 2.470319e-03  -1.269211e-01  0 
 -3.510218e-03  -1.315363e-01  0 
 -5.430984e-04  -1.306700e-01  0 
 2.344869e-03  -1.296466e-01  0 
 -3.766839e-03  -1.344079e-01  0 
 -7.647674e-04  -1.334784e-01  0 
 2.219463e-03  -1.323723e-01  0 
 -4.074596e-03  -1.372708e-01  0 
 -1.038842e-03  -1.363718e-01  0 
 2.058641e-03  -1.351422e-01  0 
 8.045510e-03  -1.152664e-01  0 
 1.054203e-02  -1.153488e-01  0 
 1.299836e-02  -1.154331e-01  0 
 7.947553e-03  -1.179249e-01  0 
 1.051193e-02  -1.179229e-01  0 
 1.302615e-02  -1.179442e-01  0 
 7.867906e-03  -1.205657e-01  0 
 1.045957e-02  -1.205435e-01  0 