# vtk DataFile Version 3.1
this is an vtk file created by FEMAC
ASCII
DATASET UNSTRUCTURED_GRID
POINTS 105 FLOAT
5.000000 5.000000 0.000000
4.222222 5.000000 0.000000
4.333333 5.000000 0.000000
4.444444 5.000000 0.000000
4.555556 5.000000 0.000000
4.666667 5.000000 0.000000
4.777778 5.000000 0.000000
4.888889 5.000000 0.000000
5.000000 4.222222 0.000000
5.000000 4.333333 0.000000
5.000000 4.444444 0.000000
5.000000 4.555556 0.000000
5.000000 4.666667 0.000000
5.000000 4.777778 0.000000
5.000000 4.888889 0.000000
5.000000 5.111111 0.000000
5.000000 5.222222 0.000000
5.000000 5.333333 0.000000
5.000000 5.444444 0.000000
5.000000 5.555556 0.000000
5.000000 5.666667 0.000000
5.000000 5.777778 0.000000
5.111111 5.000000 0.000000
4.333333 4.777778 0.000000
4.333333 4.888889 0.000000
4.444444 4.444444 0.000000
4.444444 4.555556 0.000000
4.444444 4.666667 0.000000
4.444444 4.777778 0.000000
4.444444 4.888889 0.000000
4.555556 4.222222 0.000000
4.555556 4.333333 0.000000
4.555556 4.444444 0.000000
4.555556 4.555556 0.000000
4.555556 4.666667 0.000000
4.555556 4.777778 0.000000
4.555556 4.888889 0.000000
4.666667 4.222222 0.000000
4.666667 4.333333 0.000000
4.666667 4.444444 0.000000
4.666667 4.555556 0.000000
4.666667 4.666667 0.000000
4.666667 4.777778 0.000000
4.666667 4.888889 0.000000
4.777778 4.222222 0.000000
4.777778 4.333333 0.000000
4.777778 4.444444 0.000000
4.777778 4.555556 0.000000
4.777778 4.666667 0.000000
4.777778 4.777778 0.000000
4.777778 4.888889 0.000000
4.888889 4.222222 0.000000
4.888889 4.333333 0.000000
4.888889 4.444444 0.000000
4.888889 4.555556 0.000000
4.888889 4.666667 0.000000
4.888889 4.777778 0.000000
4.888889 4.888889 0.000000
4.111111 5.222222 0.000000
4.111111 5.333333 0.000000
4.111111 5.444444 0.000000
4.222222 5.111111 0.000000
4.222222 5.222222 0.000000
4.222222 5.333333 0.000000
4.222222 5.444444 0.000000
4.333333 5.111111 0.000000
4.333333 5.222222 0.000000
4.333333 5.333333 0.000000
4.333333 5.444444 0.000000
4.333333 5.555556 0.000000
4.444444 5.111111 0.000000
4.444444 5.222222 0.000000
4.444444 5.333333 0.000000
4.444444 5.444444 0.000000
4.444444 5.555556 0.000000
4.555556 5.111111 0.000000
4.555556 5.222222 0.000000
4.555556 5.333333 0.000000
4.555556 5.444444 0.000000
4.555556 5.555556 0.000000
4.555556 5.666667 0.000000
4.666667 5.111111 0.000000
4.666667 5.222222 0.000000
4.666667 5.333333 0.000000
4.666667 5.444444 0.000000
4.666667 5.555556 0.000000
4.666667 5.666667 0.000000
4.777778 5.111111 0.000000
4.777778 5.222222 0.000000
4.777778 5.333333 0.000000
4.777778 5.444444 0.000000
4.777778 5.555556 0.000000
4.777778 5.666667 0.000000
4.777778 5.777778 0.000000
4.888889 5.111111 0.000000
4.888889 5.222222 0.000000
4.888889 5.333333 0.000000
4.888889 5.444444 0.000000
4.888889 5.555556 0.000000
4.888889 5.666667 0.000000
4.888889 5.777778 0.000000
5.111111 5.111111 0.000000
5.111111 5.222222 0.000000
5.111111 5.333333 0.000000
5.111111 5.444444 0.000000
CELLS 81 405 
4 23 28 29 24
4 24 29  3  2
4 25 32 33 26
4 26 33 34 27
4 27 34 35 28
4 28 35 36 29
4 29 36  4  3
4 30 37 38 31
4 31 38 39 32
4 32 39 40 33
4 33 40 41 34
4 34 41 42 35
4 35 42 43 36
4 36 43  5  4
4 37 44 45 38
4 38 45 46 39
4 39 46 47 40
4 40 47 48 41
4 41 48 49 42
4 42 49 50 43
4 43 50  6  5
4 44 51 52 45
4 45 52 53 46
4 46 53 54 47
4 47 54 55 48
4 48 55 56 49
4 49 56 57 50
4 50 57  7  6
4 51  8  9 52
4 52  9 10 53
4 53 10 11 54
4 54 11 12 55
4 55 12 13 56
4 56 13 14 57
4 57 14  0  7
4 58 62 63 59
4 59 63 64 60
4 1  2 65 61
4 61 65 66 62
4 62 66 67 63
4 63 67 68 64
4 2  3 70 65
4 65 70 71 66
4 66 71 72 67
4 67 72 73 68
4 68 73 74 69
4 3  4 75 70
4 70 75 76 71
4 71 76 77 72
4 72 77 78 73
4 73 78 79 74
4 4  5 81 75
4 75 81 82 76
4 76 82 83 77
4 77 83 84 78
4 78 84 85 79
4 79 85 86 80
4 5  6 87 81
4 81 87 88 82
4 82 88 89 83
4 83 89 90 84
4 84 90 91 85
4 85 91 92 86
4 6  7 94 87
4 87 94 95 88
4 88 95 96 89
4 89 96 97 90
4 90 97 98 91
4 91 98 99 92
4 92  99 100  93
4 7  0 15 94
4 94 15 16 95
4 95 16 17 96
4 96 17 18 97
4 97 18 19 98
4 98 19 20 99
4 99  20  21 100
4 0  22 101  15
4 15 101 102  16
4 16 102 103  17
4 17 103 104  18
CELL_TYPES 81
9 9 9 9 9 9 9 9 9 9 9 9 9 9 9 9 9 9 9 9 9 9 9 9 9 9 9 9 9 9 9 9 9 9 9 9 9 9 9 9 9 9 9 9 9 9 9 9 9 9 9 9 9 9 9 9 9 9 9 9 9 9 9 9 9 9 9 9 9 9 9 9 9 9 9 9 9 9 9 9 9 
POINT_DATA 105
VECTORS displacement_ITER1 FLOAT
 6.194378e-02  -1.378475e-01  0 
 5.976929e-02  -1.119148e-01  0 
 6.146712e-02  -1.148286e-01  0 
 6.153193e-02  -1.185351e-01  0 
 6.156855e-02  -1.222438e-01  0 
 6.161711e-02  -1.259395e-01  0 
 6.170565e-02  -1.296638e-01  0 
 6.184363e-02  -1.335070e-01  0 
 3.681982e-02  -1.362401e-01  0 
 4.014488e-02  -1.363283e-01  0 
 4.355865e-02  -1.364749e-01  0 
 4.704458e-02  -1.366389e-01  0 
 5.059968e-02  -1.368268e-01  0 
 5.422116e-02  -1.370509e-01  0 
 5.793944e-02  -1.373514e-01  0 
 6.659633e-02  -1.383564e-01  0 
 7.084980e-02  -1.386748e-01  0 
 7.489904e-02  -1.388571e-01  0 
 7.888470e-02  -1.390009e-01  0 
 8.490135e-02  -1.371573e-01  0 
 8.886951e-02  -1.388178e-01  0 
 8.860399e-02  -1.389298e-01  0 
 6.196759e-02  -1.429062e-01  0 
 5.395451e-02  -1.146588e-01  0 
 5.777290e-02  -1.147735e-01  0 
 4.329170e-02  -1.184029e-01  0 
 4.696882e-02  -1.185280e-01  0 
 5.051281e-02  -1.185454e-01  0 
 5.407507e-02  -1.184930e-01  0 
 5.781583e-02  -1.185108e-01  0 
 3.671162e-02  -1.225597e-01  0 
 4.011887e-02  -1.223690e-01  0 
 4.340910e-02  -1.222203e-01  0 
 4.698447e-02  -1.222071e-01  0 
 5.054597e-02  -1.221922e-01  0 
 5.416822e-02  -1.222063e-01  0 
 5.785857e-02  -1.222248e-01  0 
 3.668718e-02  -1.259971e-01  0 
 4.004183e-02  -1.259102e-01  0 
 4.348070e-02  -1.258741e-01  0 
 4.698654e-02  -1.258749e-01  0 
 5.056142e-02  -1.258822e-01  0 
 5.420220e-02  -1.258970e-01  0 
 5.790071e-02  -1.259149e-01  0 
 3.667518e-02  -1.294315e-01  0 
 4.006759e-02  -1.294412e-01  0 
 4.350000e-02  -1.294609e-01  0 
 4.699619e-02  -1.295014e-01  0 
 5.055794e-02  -1.295586e-01  0 
 5.419329e-02  -1.296123e-01  0 
 5.792395e-02  -1.296355e-01  0 
 3.675292e-02  -1.328805e-01  0 
 4.010333e-02  -1.329234e-01  0 
 4.352202e-02  -1.329916e-01  0 
 4.701194e-02  -1.330897e-01  0 
 5.056540e-02  -1.332093e-01  0 
 5.418494e-02  -1.333444e-01  0 
 5.790138e-02  -1.334704e-01  0 
 6.784163e-02  -1.213902e-01  0 
 6.648877e-02  -1.215219e-01  0 
 6.671506e-02  -1.225367e-01  0 
 6.383192e-02  -1.145314e-01  0 
 6.726754e-02  -1.185805e-01  0 
 6.794320e-02  -1.205344e-01  0 
 6.815597e-02  -1.219244e-01  0 
 6.472469e-02  -1.176638e-01  0 
 6.758260e-02  -1.195279e-01  0 
 6.937650e-02  -1.210644e-01  0 
 7.143041e-02  -1.224274e-01  0 
 7.492730e-02  -1.232815e-01  0 
 6.520467e-02  -1.202485e-01  0 
 6.813690e-02  -1.217867e-01  0 
 7.075916e-02  -1.231617e-01  0 
 7.339113e-02  -1.245531e-01  0 
 7.576014e-02  -1.256818e-01  0 
 6.544677e-02  -1.234494e-01  0 
 6.885851e-02  -1.246150e-01  0 
 7.197483e-02  -1.258132e-01  0 
 7.491451e-02  -1.269462e-01  0 
 7.805236e-02  -1.280007e-01  0 
 8.168292e-02  -1.287378e-01  0 
 6.568833e-02  -1.269132e-01  0 
 6.950617e-02  -1.278138e-01  0 
 7.306090e-02  -1.287236e-01  0 
 7.638766e-02  -1.297202e-01  0 
 7.960665e-02  -1.307283e-01  0 
 8.237902e-02  -1.315404e-01  0 
 6.595744e-02  -1.305500e-01  0 
 7.003784e-02  -1.312871e-01  0 
 7.400705e-02  -1.318487e-01  0 
 7.775079e-02  -1.324813e-01  0 
 8.107391e-02  -1.332865e-01  0 
 8.432385e-02  -1.341621e-01  0 
 8.798175e-02  -1.346887e-01  0 
 6.628034e-02  -1.343624e-01  0 
 7.048855e-02  -1.349590e-01  0 
 7.454164e-02  -1.353157e-01  0 
 7.891037e-02  -1.351983e-01  0 
 8.286344e-02  -1.356887e-01  0 
 8.596723e-02  -1.367998e-01  0 
 8.845320e-02  -1.377849e-01  0 
 6.665893e-02  -1.428295e-01  0 
 7.087470e-02  -1.428371e-01  0 
 7.491111e-02  -1.428624e-01  0 
 7.884162e-02  -1.428690e-01  0 
VECTORS displacement_ITER2 FLOAT
 6.093936e-02  -1.272393e-01  0 
 5.859768e-02  -1.048920e-01  0 
 6.014720e-02  -1.075981e-01  0 
 6.035893e-02  -1.106073e-01  0 
 6.051957e-02  -1.137357e-01  0 
 6.065909e-02  -1.169049e-01  0 
 6.078535e-02  -1.201356e-01  0 
 6.090783e-02  -1.234760e-01  0 
 3.900334e-02  -1.261351e-01  0 
 4.200965e-02  -1.261629e-01  0 
 4.505980e-02  -1.262092e-01  0 
 4.815492e-02  -1.262713e-01  0 
 5.126241e-02  -1.263700e-01  0 
 5.438318e-02  -1.265278e-01  0 
 5.755169e-02  -1.267869e-01  0 
 6.537974e-02  -1.276791e-01  0 
 6.975713e-02  -1.278093e-01  0 
 7.437426e-02  -1.277923e-01  0 
 7.920162e-02  -1.277854e-01  0 
 8.219269e-02  -1.275705e-01  0 
 8.749874e-02  -1.297708e-01  0 
 8.868920e-02  -1.311626e-01  0 
 6.092622e-02  -1.320881e-01  0 
 5.406043e-02  -1.074251e-01  0 
 5.718695e-02  -1.074829e-01  0 
 4.501568e-02  -1.104486e-01  0 
 4.811736e-02  -1.105168e-01  0 
 5.116989e-02  -1.104968e-01  0 
 5.420206e-02  -1.105165e-01  0 
 5.727958e-02  -1.105713e-01  0 
 3.891795e-02  -1.136217e-01  0 
 4.208222e-02  -1.135794e-01  0 
 4.508866e-02  -1.136001e-01  0 
 4.812249e-02  -1.136463e-01  0 
 5.118388e-02  -1.136584e-01  0 
 5.427530e-02  -1.136698e-01  0 
 5.738555e-02  -1.136939e-01  0 
 3.892907e-02  -1.168503e-01  0 
 4.201770e-02  -1.168073e-01  0 
 4.508637e-02  -1.167910e-01  0 
 4.813194e-02  -1.168111e-01  0 
 5.119782e-02  -1.168386e-01  0 
 5.430971e-02  -1.168556e-01  0 
 5.746834e-02  -1.168721e-01  0 
 3.893516e-02  -1.199856e-01  0 
 4.200209e-02  -1.199732e-01  0 
 4.506591e-02  -1.199665e-01  0 
 4.813000e-02  -1.199865e-01  0 
 5.120457e-02  -1.200331e-01  0 
 5.431814e-02  -1.200841e-01  0 
 5.751665e-02  -1.201073e-01  0 
 3.897988e-02  -1.230851e-01  0 
 4.200226e-02  -1.230902e-01  0 
 4.505867e-02  -1.231033e-01  0 
 4.813471e-02  -1.231431e-01  0 
 5.122244e-02  -1.232192e-01  0 
 5.433113e-02  -1.233288e-01  0 
 5.750759e-02  -1.234460e-01  0 
 6.090430e-02  -1.013194e-01  0 
 6.548783e-02  -1.020269e-01  0 
 6.970537e-02  -1.025820e-01  0 
 6.116373e-02  -1.057653e-01  0 
 6.293887e-02  -1.059983e-01  0 
 6.661818e-02  -1.064178e-01  0 
 7.028872e-02  -1.066967e-01  0 
 6.198203e-02  -1.084069e-01  0 
 6.459925e-02  -1.092011e-01  0 
 6.776167e-02  -1.099702e-01  0 
 7.133637e-02  -1.105640e-01  0 
 7.494345e-02  -1.110374e-01  0 
 6.298661e-02  -1.113172e-01  0 
 6.585149e-02  -1.122485e-01  0 
 6.903333e-02  -1.131452e-01  0 
 7.241491e-02  -1.138958e-01  0 
 7.565100e-02  -1.144348e-01  0 
 6.370163e-02  -1.144018e-01  0 
 6.693806e-02  -1.152553e-01  0 
 7.024107e-02  -1.161647e-01  0 
 7.359259e-02  -1.169913e-01  0 
 7.711422e-02  -1.177805e-01  0 
 8.091709e-02  -1.183766e-01  0 
 6.427824e-02  -1.175287e-01  0 
 6.788423e-02  -1.182754e-01  0 
 7.142369e-02  -1.191145e-01  0 
 7.490817e-02  -1.200121e-01  0 
 7.838641e-02  -1.208744e-01  0 
 8.157373e-02  -1.215925e-01  0 
 6.475761e-02  -1.207249e-01  0 
 6.873250e-02  -1.213238e-01  0 
 7.258889e-02  -1.220020e-01  0 
 7.625610e-02  -1.228014e-01  0 
 7.969086e-02  -1.236731e-01  0 
 8.318072e-02  -1.245418e-01  0 
 8.728412e-02  -1.251083e-01  0 
 6.513971e-02  -1.240826e-01  0 
 6.940628e-02  -1.244832e-01  0 
 7.365502e-02  -1.248117e-01  0 
 7.764542e-02  -1.253677e-01  0 
 8.123103e-02  -1.261473e-01  0 
 8.457862e-02  -1.273209e-01  0 
 8.799565e-02  -1.286014e-01  0 
 6.543608e-02  -1.321042e-01  0 
 6.975135e-02  -1.323026e-01  0 
 7.441677e-02  -1.325804e-01  0 
 7.927304e-02  -1.327132e-01  0 
VECTORS displacement_ITER3 FLOAT
 5.786418e-02  -1.201293e-01  0 
 5.554744e-02  -1.007437e-01  0 
 5.685213e-02  -1.033415e-01  0 
 5.707457e-02  -1.059191e-01  0 
 5.725479e-02  -1.085415e-01  0 
 5.741518e-02  -1.111984e-01  0 
 5.757675e-02  -1.139127e-01  0 
 5.775369e-02  -1.167596e-01  0 
 3.930748e-02  -1.190286e-01  0 
 4.184713e-02  -1.189954e-01  0 
 4.440542e-02  -1.190071e-01  0 
 4.697464e-02  -1.190543e-01  0 
 4.955108e-02  -1.191444e-01  0 
 5.216451e-02  -1.193053e-01  0 
 5.486806e-02  -1.195988e-01  0 
 6.204881e-02  -1.206539e-01  0 
 6.594174e-02  -1.209218e-01  0 
 6.984165e-02  -1.210335e-01  0 
 7.380538e-02  -1.211054e-01  0 
 7.796616e-02  -1.211441e-01  0 
 8.076505e-02  -1.226338e-01  0 
 8.278837e-02  -1.233777e-01  0 
 5.791555e-02  -1.247152e-01  0 
 5.178926e-02  -1.032039e-01  0 
 5.437002e-02  -1.033051e-01  0 
 4.453390e-02  -1.057554e-01  0 
 4.701311e-02  -1.058067e-01  0 
 4.947225e-02  -1.058591e-01  0 
 5.191502e-02  -1.058418e-01  0 
 5.449742e-02  -1.058709e-01  0 
 3.934517e-02  -1.083717e-01  0 
 4.202250e-02  -1.083899e-01  0 
 4.450756e-02  -1.084215e-01  0 
 4.701259e-02  -1.084354e-01  0 
 4.950534e-02  -1.084425e-01  0 
 5.203680e-02  -1.084671e-01  0 
 5.462704e-02  -1.084987e-01  0 
 3.933410e-02  -1.111706e-01  0 
 4.193851e-02  -1.111182e-01  0 
 4.448138e-02  -1.110928e-01  0 
 4.699288e-02  -1.110981e-01  0 
 4.952400e-02  -1.111127e-01  0 
 5.210278e-02  -1.111315e-01  0 
 5.473950e-02  -1.111566e-01  0 
 3.932774e-02  -1.138390e-01  0 
 4.189204e-02  -1.137987e-01  0 
 4.443875e-02  -1.137682e-01  0 
 4.697577e-02  -1.137732e-01  0 
 4.952445e-02  -1.138094e-01  0 
 5.211956e-02  -1.138540e-01  0 
 5.481134e-02  -1.138760e-01  0 
 3.933946e-02  -1.164622e-01  0 
 4.186501e-02  -1.164208e-01  0 
 4.441219e-02  -1.164076e-01  0 
 4.696650e-02  -1.164324e-01  0 
 4.953043e-02  -1.164982e-01  0 
 5.212610e-02  -1.166026e-01  0 
 5.481285e-02  -1.167216e-01  0 
 5.382657e-02  -9.559535e-02  0 
 6.013376e-02  -9.683033e-02  0 
 6.557363e-02  -9.753021e-02  0 
 5.651965e-02  -1.020690e-01  0 
 5.717967e-02  -1.019081e-01  0 
 6.150646e-02  -1.021887e-01  0 
 6.586374e-02  -1.024308e-01  0 
 5.780675e-02  -1.038938e-01  0 
 5.974033e-02  -1.049060e-01  0 
 6.285367e-02  -1.058466e-01  0 
 6.654960e-02  -1.064325e-01  0 
 6.989910e-02  -1.069197e-01  0 
 5.904317e-02  -1.065272e-01  0 
 6.145812e-02  -1.075549e-01  0 
 6.435432e-02  -1.086057e-01  0 
 6.755854e-02  -1.093858e-01  0 
 7.059119e-02  -1.099197e-01  0 
 5.989941e-02  -1.092121e-01  0 
 6.272951e-02  -1.101430e-01  0 
 6.570238e-02  -1.111349e-01  0 
 6.877347e-02  -1.119950e-01  0 
 7.201483e-02  -1.127408e-01  0 
 7.559877e-02  -1.132258e-01  0 
 6.055917e-02  -1.118898e-01  0 
 6.376361e-02  -1.127215e-01  0 
 6.695045e-02  -1.136206e-01  0 
 7.011098e-02  -1.145241e-01  0 
 7.329640e-02  -1.153496e-01  0 
 7.620588e-02  -1.160464e-01  0 
 6.111378e-02  -1.146233e-01  0 
 6.466252e-02  -1.153493e-01  0 
 6.813619e-02  -1.160727e-01  0 
 7.144799e-02  -1.168658e-01  0 
 7.457590e-02  -1.176745e-01  0 
 7.777155e-02  -1.184062e-01  0 
 8.157889e-02  -1.187266e-01  0 
 6.161802e-02  -1.175157e-01  0 
 6.542050e-02  -1.180860e-01  0 
 6.913737e-02  -1.185258e-01  0 
 7.279018e-02  -1.189616e-01  0 
 7.607147e-02  -1.197845e-01  0 
 7.908663e-02  -1.207699e-01  0 
 8.194050e-02  -1.215426e-01  0 
 6.211666e-02  -1.246967e-01  0 
 6.596381e-02  -1.248161e-01  0 
 6.988514e-02  -1.250096e-01  0 
 7.383682e-02  -1.250942e-01  0 
VECTORS displacement_ITER4 FLOAT
 5.460237e-02  -1.164071e-01  0 
 5.288178e-02  -9.623968e-02  0 
 5.351998e-02  -9.874610e-02  0 
 5.380620e-02  -1.014494e-01  0 
 5.400552e-02  -1.042326e-01  0 
 5.416822e-02  -1.070500e-01  0 
 5.432201e-02  -1.099232e-01  0 
 5.448875e-02  -1.129186e-01  0 
 3.503610e-02  -1.153589e-01  0 
 3.770463e-02  -1.153215e-01  0 
 4.039894e-02  -1.153249e-01  0 
 4.310656e-02  -1.153709e-01  0 
 4.583426e-02  -1.154674e-01  0 
 4.859664e-02  -1.156343e-01  0 
 5.144827e-02  -1.159133e-01  0 
 5.862824e-02  -1.169106e-01  0 
 6.234047e-02  -1.171670e-01  0 
 6.601731e-02  -1.172791e-01  0 
 6.972017e-02  -1.173736e-01  0 
 7.446382e-02  -1.173891e-01  0 
 7.717864e-02  -1.178142e-01  0 
 8.016272e-02  -1.198957e-01  0 
 5.467408e-02  -1.208109e-01  0 
 4.820408e-02  -9.855365e-02  0 
 5.092985e-02  -9.865841e-02  0 
 4.052340e-02  -1.013683e-01  0 
 4.317372e-02  -1.013918e-01  0 
 4.578909e-02  -1.013918e-01  0 
 4.837432e-02  -1.013605e-01  0 
 5.107974e-02  -1.013942e-01  0 
 3.500890e-02  -1.042350e-01  0 
 3.783452e-02  -1.042089e-01  0 
 4.051193e-02  -1.042031e-01  0 
 4.315426e-02  -1.041790e-01  0 
 4.580083e-02  -1.041562e-01  0 
 4.848503e-02  -1.041588e-01  0 
 5.122293e-02  -1.041846e-01  0 
 3.503457e-02  -1.071169e-01  0 
 3.776722e-02  -1.070669e-01  0 
 4.046075e-02  -1.070178e-01  0 
 4.312543e-02  -1.069943e-01  0 
 4.580887e-02  -1.069878e-01  0 
 4.854276e-02  -1.069913e-01  0 
 5.133511e-02  -1.070094e-01  0 
 3.505309e-02  -1.099018e-01  0 
 3.773661e-02  -1.098631e-01  0 
 4.041894e-02  -1.098263e-01  0 
 4.310273e-02  -1.098172e-01  0 
 4.580401e-02  -1.098387e-01  0 
 4.855571e-02  -1.098720e-01  0 
 5.140351e-02  -1.098889e-01  0 
 3.506792e-02  -1.126508e-01  0 
 3.772070e-02  -1.126108e-01  0 
 4.040015e-02  -1.125958e-01  0 
 4.309491e-02  -1.126157e-01  0 
 4.580770e-02  -1.126764e-01  0 
 4.855921e-02  -1.127748e-01  0 
 5.140449e-02  -1.128839e-01  0 
 5.612417e-02  -9.731803e-02  0 
 5.796619e-02  -9.746312e-02  0 
 5.985408e-02  -9.780745e-02  0 
 5.482837e-02  -9.785992e-02  0 
 5.688219e-02  -9.900169e-02  0 
 5.893129e-02  -9.954382e-02  0 
 6.088976e-02  -9.992502e-02  0 
 5.569733e-02  -9.994579e-02  0 
 5.782929e-02  -1.009547e-01  0 
 6.004446e-02  -1.017292e-01  0 
 6.256616e-02  -1.023874e-01  0 
 6.571914e-02  -1.028411e-01  0 
 5.633644e-02  -1.023700e-01  0 
 5.877892e-02  -1.032898e-01  0 
 6.129168e-02  -1.041827e-01  0 
 6.399140e-02  -1.050220e-01  0 
 6.665346e-02  -1.057000e-01  0 
 5.686791e-02  -1.050150e-01  0 
 5.967990e-02  -1.058553e-01  0 
 6.249294e-02  -1.067368e-01  0 
 6.533894e-02  -1.075887e-01  0 
 6.837954e-02  -1.084538e-01  0 
 7.193392e-02  -1.090486e-01  0 
 5.734933e-02  -1.077804e-01  0 
 6.051098e-02  -1.085418e-01  0 
 6.362510e-02  -1.093399e-01  0 
 6.670700e-02  -1.101906e-01  0 
 6.982635e-02  -1.110428e-01  0 
 7.267918e-02  -1.118272e-01  0 
 5.780067e-02  -1.106504e-01  0 
 6.125958e-02  -1.113357e-01  0 
 6.467181e-02  -1.119651e-01  0 
 6.799127e-02  -1.126423e-01  0 
 7.114621e-02  -1.134010e-01  0 
 7.439896e-02  -1.141454e-01  0 
 7.837294e-02  -1.144695e-01  0 
 5.824246e-02  -1.136768e-01  0 
 6.190122e-02  -1.142322e-01  0 
 6.547797e-02  -1.146367e-01  0 
 6.913526e-02  -1.149240e-01  0 
 7.263772e-02  -1.155577e-01  0 
 7.574198e-02  -1.165460e-01  0 
 7.873562e-02  -1.171556e-01  0 
 5.868674e-02  -1.207830e-01  0 
 6.235834e-02  -1.208714e-01  0 
 6.603279e-02  -1.209852e-01  0 
 6.972801e-02  -1.210320e-01  0 
VECTORS displacement_ITER5 FLOAT
 5.420182e-02  -1.146904e-01  0 
 5.246610e-02  -9.370932e-02  0 
 5.308721e-02  -9.622379e-02  0 
 5.341292e-02  -9.908514e-02  0 
 5.362127e-02  -1.020078e-01  0 
 5.378250e-02  -1.049547e-01  0 
 5.393433e-02  -1.079513e-01  0 
 5.409955e-02  -1.110712e-01  0 
 3.393687e-02  -1.135504e-01  0 
 3.671122e-02  -1.135175e-01  0 
 3.947748e-02  -1.135331e-01  0 
 4.226357e-02  -1.135893e-01  0 
 4.509262e-02  -1.137032e-01  0 
 4.797035e-02  -1.138912e-01  0 
 5.093747e-02  -1.141852e-01  0 
 5.857051e-02  -1.152195e-01  0 
 6.257621e-02  -1.155342e-01  0 
 6.641553e-02  -1.157014e-01  0 
 7.018070e-02  -1.158099e-01  0 
 7.373503e-02  -1.158408e-01  0 
 7.824619e-02  -1.151714e-01  0 
 8.151244e-02  -1.164201e-01  0 
 5.422653e-02  -1.194786e-01  0 
 4.754651e-02  -9.603625e-02  0 
 5.037897e-02  -9.614528e-02  0 
 3.960954e-02  -9.910212e-02  0 
 4.235577e-02  -9.910196e-02  0 
 4.505841e-02  -9.907913e-02  0 
 4.773436e-02  -9.901051e-02  0 
 5.055088e-02  -9.902570e-02  0 
 3.395355e-02  -1.021745e-01  0 
 3.681781e-02  -1.021117e-01  0 
 3.958220e-02  -1.020631e-01  0 
 4.232130e-02  -1.020013e-01  0 
 4.506155e-02  -1.019526e-01  0 
 4.784805e-02  -1.019395e-01  0 
 5.070563e-02  -1.019593e-01  0 
 3.397000e-02  -1.050773e-01  0 
 3.675473e-02  -1.050270e-01  0 
 3.952358e-02  -1.049658e-01  0 
 4.228092e-02  -1.049236e-01  0 
 4.506557e-02  -1.049014e-01  0 
 4.790924e-02  -1.048969e-01  0 
 5.082199e-02  -1.049134e-01  0 
 3.398085e-02  -1.079336e-01  0 
 3.672856e-02  -1.078937e-01  0 
 3.948520e-02  -1.078583e-01  0 
 4.225740e-02  -1.078471e-01  0 
 4.505939e-02  -1.078649e-01  0 
 4.792232e-02  -1.078975e-01  0 
 5.089047e-02  -1.079157e-01  0 
 3.398248e-02  -1.107625e-01  0 
 3.671451e-02  -1.107221e-01  0 
 3.947296e-02  -1.107162e-01  0 
 4.225245e-02  -1.107424e-01  0 
 4.506357e-02  -1.108087e-01  0 
 4.792670e-02  -1.109156e-01  0 
 5.089004e-02  -1.110340e-01  0 
 5.746770e-02  -9.555340e-02  0 
 5.919510e-02  -9.621860e-02  0 
 6.079484e-02  -9.724208e-02  0 
 5.504123e-02  -9.490897e-02  0 
 5.793744e-02  -9.674287e-02  0 
 6.009055e-02  -9.786807e-02  0 
 6.199941e-02  -9.865105e-02  0 
 5.588427e-02  -9.766677e-02  0 
 5.864099e-02  -9.884624e-02  0 
 6.112180e-02  -9.988275e-02  0 
 6.371422e-02  -1.009297e-01  0 
 6.659533e-02  -1.018469e-01  0 
 5.647400e-02  -1.002188e-01  0 
 5.938758e-02  -1.012807e-01  0 
 6.223997e-02  -1.022913e-01  0 
 6.506177e-02  -1.032845e-01  0 
 6.763398e-02  -1.041354e-01  0 
 5.694021e-02  -1.029543e-01  0 
 6.014923e-02  -1.038871e-01  0 
 6.327836e-02  -1.047946e-01  0 
 6.630775e-02  -1.056487e-01  0 
 6.935352e-02  -1.065651e-01  0 
 7.263148e-02  -1.072513e-01  0 
 5.735698e-02  -1.058073e-01  0 
 6.084540e-02  -1.066292e-01  0 
 6.423689e-02  -1.073961e-01  0 
 6.754389e-02  -1.081300e-01  0 
 7.076374e-02  -1.088280e-01  0 
 7.343230e-02  -1.095596e-01  0 
 5.775864e-02  -1.087647e-01  0 
 6.149152e-02  -1.094962e-01  0 
 6.509622e-02  -1.101173e-01  0 
 6.861471e-02  -1.106051e-01  0 
 7.196548e-02  -1.110085e-01  0 
 7.528363e-02  -1.113058e-01  0 
 7.956240e-02  -1.110916e-01  0 
 5.817685e-02  -1.118811e-01  0 
 6.208943e-02  -1.124790e-01  0 
 6.582897e-02  -1.129027e-01  0 
 6.944330e-02  -1.131898e-01  0 
 7.313647e-02  -1.132668e-01  0 
 7.664789e-02  -1.136483e-01  0 
 7.993836e-02  -1.140191e-01  0 
 5.863303e-02  -1.194256e-01  0 
 6.261526e-02  -1.194807e-01  0 
 6.641116e-02  -1.195054e-01  0 
 7.019171e-02  -1.195172e-01  0 
VECTORS displacement_ITER6 FLOAT
 5.351796e-02  -1.139624e-01  0 
 5.172717e-02  -9.341775e-02  0 
 5.226615e-02  -9.593511e-02  0 
 5.265093e-02  -9.868083e-02  0 
 5.290865e-02  -1.015166e-01  0 
 5.310329e-02  -1.043993e-01  0 
 5.326923e-02  -1.073434e-01  0 
 5.343297e-02  -1.104096e-01  0 
 3.355662e-02  -1.129390e-01  0 
 3.632567e-02  -1.129002e-01  0 
 3.906367e-02  -1.128968e-01  0 
 4.182293e-02  -1.129332e-01  0 
 4.460225e-02  -1.130225e-01  0 
 4.742737e-02  -1.131787e-01  0 
 5.034320e-02  -1.134549e-01  0 
 5.788920e-02  -1.144778e-01  0 
 6.196490e-02  -1.147595e-01  0 
 6.596122e-02  -1.148917e-01  0 
 6.993133e-02  -1.149609e-01  0 
 7.317239e-02  -1.152065e-01  0 
 7.769294e-02  -1.150899e-01  0 
 8.125827e-02  -1.154017e-01  0 
 5.354570e-02  -1.187394e-01  0 
 4.703330e-02  -9.576373e-02  0 
 4.969666e-02  -9.584670e-02  0 
 3.927721e-02  -9.868227e-02  0 
 4.194285e-02  -9.865883e-02  0 
 4.458812e-02  -9.863064e-02  0 
 4.720462e-02  -9.858833e-02  0 
 4.989742e-02  -9.861121e-02  0 
 3.361177e-02  -1.016097e-01  0 
 3.645250e-02  -1.015800e-01  0 
 3.921746e-02  -1.015534e-01  0 
 4.189939e-02  -1.014986e-01  0 
 4.458593e-02  -1.014552e-01  0 
 4.730399e-02  -1.014388e-01  0 
 5.007626e-02  -1.014591e-01  0 
 3.361563e-02  -1.045060e-01  0 
 3.639457e-02  -1.044681e-01  0 
 3.913715e-02  -1.044129e-01  0 
 4.185415e-02  -1.043703e-01  0 
 4.458367e-02  -1.043477e-01  0 
 4.736280e-02  -1.043400e-01  0 
 5.020659e-02  -1.043547e-01  0 
 3.361943e-02  -1.073581e-01  0 
 3.635643e-02  -1.073113e-01  0 
 3.908892e-02  -1.072706e-01  0 
 4.182366e-02  -1.072530e-01  0 
 4.457610e-02  -1.072634e-01  0 
 4.737898e-02  -1.072913e-01  0 
 5.028321e-02  -1.073076e-01  0 
 3.360884e-02  -1.101695e-01  0 
 3.633135e-02  -1.101192e-01  0 
 3.906870e-02  -1.101019e-01  0 
 4.181347e-02  -1.101141e-01  0 
 4.457971e-02  -1.101658e-01  0 
 4.738788e-02  -1.102591e-01  0 
 5.028653e-02  -1.103736e-01  0 
 5.439927e-02  -9.252820e-02  0 
 5.800632e-02  -9.356342e-02  0 
 6.098909e-02  -9.456954e-02  0 
 5.361622e-02  -9.448949e-02  0 
 5.594113e-02  -9.561896e-02  0 
 5.902625e-02  -9.654810e-02  0 
 6.196158e-02  -9.721173e-02  0 
 5.466225e-02  -9.700672e-02  0 
 5.730700e-02  -9.814849e-02  0 
 6.017584e-02  -9.918603e-02  0 
 6.324144e-02  -1.001441e-01  0 
 6.621116e-02  -1.010257e-01  0 
 5.548086e-02  -9.965912e-02  0 
 5.839954e-02  -1.006995e-01  0 
 6.141808e-02  -1.017187e-01  0 
 6.447118e-02  -1.026372e-01  0 
 6.726660e-02  -1.034176e-01  0 
 5.611291e-02  -1.023962e-01  0 
 5.932625e-02  -1.033232e-01  0 
 6.254091e-02  -1.042209e-01  0 
 6.570909e-02  -1.050298e-01  0 
 6.887897e-02  -1.058490e-01  0 
 7.222987e-02  -1.064451e-01  0 
 5.663039e-02  -1.052085e-01  0 
 6.012239e-02  -1.060253e-01  0 
 6.355559e-02  -1.067930e-01  0 
 6.694106e-02  -1.074908e-01  0 
 7.027036e-02  -1.081135e-01  0 
 7.309779e-02  -1.087726e-01  0 
 5.708469e-02  -1.081114e-01  0 
 6.084193e-02  -1.088228e-01  0 
 6.447409e-02  -1.094581e-01  0 
 6.801759e-02  -1.099661e-01  0 
 7.146017e-02  -1.103220e-01  0 
 7.489986e-02  -1.105092e-01  0 
 7.929321e-02  -1.101858e-01  0 
 5.751449e-02  -1.111764e-01  0 
 6.148151e-02  -1.117371e-01  0 
 6.530554e-02  -1.121457e-01  0 
 6.892598e-02  -1.125222e-01  0 
 7.255331e-02  -1.126840e-01  0 
 7.624694e-02  -1.129223e-01  0 
 7.982336e-02  -1.132382e-01  0 
 5.795187e-02  -1.187162e-01  0 
 6.200262e-02  -1.188203e-01  0 
 6.596307e-02  -1.188961e-01  0 
 6.998284e-02  -1.189470e-01  0 
VECTORS displacement_ITER7 FLOAT
 5.371907e-02  -1.132602e-01  0 
 5.205237e-02  -9.277602e-02  0 
 5.239368e-02  -9.542207e-02  0 
 5.278616e-02  -9.811998e-02  0 
 5.306319e-02  -1.009061e-01  0 
 5.327507e-02  -1.037543e-01  0 
 5.345308e-02  -1.066736e-01  0 
 5.362442e-02  -1.097198e-01  0 
 3.384722e-02  -1.123022e-01  0 
 3.659890e-02  -1.122334e-01  0 
 3.933894e-02  -1.122017e-01  0 
 4.209809e-02  -1.122259e-01  0 
 4.486478e-02  -1.123124e-01  0 
 4.766169e-02  -1.124758e-01  0 
 5.054545e-02  -1.127549e-01  0 
 5.803977e-02  -1.137748e-01  0 
 6.209302e-02  -1.140347e-01  0 
 6.612051e-02  -1.141546e-01  0 
 7.015933e-02  -1.142346e-01  0 
 7.408954e-02  -1.145388e-01  0 
 7.766330e-02  -1.143728e-01  0 
 8.132449e-02  -1.148073e-01  0 
 5.376492e-02  -1.179809e-01  0 
 4.730004e-02  -9.526857e-02  0 
 4.986712e-02  -9.534120e-02  0 
 3.960423e-02  -9.806019e-02  0 
 4.222804e-02  -9.803518e-02  0 
 4.484526e-02  -9.802917e-02  0 
 4.744248e-02  -9.801159e-02  0 
 5.008417e-02  -9.804131e-02  0 
 3.393986e-02  -1.009240e-01  0 
 3.675892e-02  -1.009222e-01  0 
 3.951695e-02  -1.009023e-01  0 
 4.218533e-02  -1.008580e-01  0 
 4.485011e-02  -1.008274e-01  0 
 4.753764e-02  -1.008188e-01  0 
 5.027201e-02  -1.008436e-01  0 
 3.391926e-02  -1.038299e-01  0 
 3.670240e-02  -1.037969e-01  0 
 3.943441e-02  -1.037517e-01  0 
 4.213724e-02  -1.037146e-01  0 
 4.484505e-02  -1.036954e-01  0 
 4.759633e-02  -1.036901e-01  0 
 5.040907e-02  -1.037067e-01  0 
 3.390962e-02  -1.066958e-01  0 
 3.665704e-02  -1.066429e-01  0 
 3.938423e-02  -1.065995e-01  0 
 4.210281e-02  -1.065812e-01  0 
 4.483375e-02  -1.065918e-01  0 
 4.761210e-02  -1.066197e-01  0 
 5.049100e-02  -1.066361e-01  0 
 3.389324e-02  -1.095166e-01  0 
 3.662407e-02  -1.094547e-01  0 
 3.935634e-02  -1.094208e-01  0 
 4.208939e-02  -1.094248e-01  0 
 4.483631e-02  -1.094765e-01  0 
 4.761988e-02  -1.095717e-01  0 
 5.049650e-02  -1.096845e-01  0 
 5.492906e-02  -9.299877e-02  0 
 5.789887e-02  -9.369258e-02  0 
 6.051973e-02  -9.433388e-02  0 
 5.385356e-02  -9.420365e-02  0 
 5.618426e-02  -9.541515e-02  0 
 5.890589e-02  -9.622100e-02  0 
 6.153631e-02  -9.682026e-02  0 
 5.490132e-02  -9.650578e-02  0 
 5.740747e-02  -9.764565e-02  0 
 6.008809e-02  -9.861423e-02  0 
 6.297777e-02  -9.947425e-02  0 
 6.604901e-02  -1.002111e-01  0 
 5.562667e-02  -9.908480e-02  0 
 5.847055e-02  -1.000726e-01  0 
 6.136459e-02  -1.010546e-01  0 
 6.434390e-02  -1.019597e-01  0 
 6.717175e-02  -1.027477e-01  0 
 5.623748e-02  -1.017637e-01  0 
 5.939717e-02  -1.026550e-01  0 
 6.254927e-02  -1.035421e-01  0 
 6.567925e-02  -1.043737e-01  0 
 6.886492e-02  -1.052040e-01  0 
 7.231150e-02  -1.058178e-01  0 
 5.676386e-02  -1.045401e-01  0 
 6.022488e-02  -1.053338e-01  0 
 6.363269e-02  -1.061068e-01  0 
 6.699617e-02  -1.068504e-01  0 
 7.032947e-02  -1.075500e-01  0 
 7.330862e-02  -1.082352e-01  0 
 5.723242e-02  -1.074235e-01  0 
 6.097485e-02  -1.081181e-01  0 
 6.462227e-02  -1.087463e-01  0 
 6.818052e-02  -1.093116e-01  0 
 7.163057e-02  -1.098023e-01  0 
 7.507019e-02  -1.101969e-01  0 
 7.901264e-02  -1.102153e-01  0 
 5.767076e-02  -1.104790e-01  0 
 6.162757e-02  -1.110258e-01  0 
 6.547734e-02  -1.114244e-01  0 
 6.921875e-02  -1.117838e-01  0 
 7.289369e-02  -1.121159e-01  0 
 7.645191e-02  -1.124774e-01  0 
 7.976234e-02  -1.127111e-01  0 
 5.809746e-02  -1.179729e-01  0 
 6.212187e-02  -1.180944e-01  0 
 6.613549e-02  -1.182091e-01  0 
 7.020752e-02  -1.182834e-01  0 
VECTORS displacement_ITER8 FLOAT
 5.342102e-02  -1.132894e-01  0 
 5.173320e-02  -9.270784e-02  0 
 5.204121e-02  -9.535367e-02  0 
 5.243217e-02  -9.806025e-02  0 
 5.271209e-02  -1.008520e-01  0 
 5.292727e-02  -1.037098e-01  0 
 5.311144e-02  -1.066416e-01  0 
 5.329801e-02  -1.097072e-01  0 
 3.341045e-02  -1.122882e-01  0 
 3.618241e-02  -1.122231e-01  0 
 3.893566e-02  -1.122046e-01  0 
 4.167893e-02  -1.122297e-01  0 
 4.445004e-02  -1.123087e-01  0 
 4.727318e-02  -1.124759e-01  0 
 5.019309e-02  -1.127708e-01  0 
 5.765076e-02  -1.138083e-01  0 
 6.154142e-02  -1.140932e-01  0 
 6.533067e-02  -1.142442e-01  0 
 6.910085e-02  -1.143461e-01  0 
 7.322838e-02  -1.144860e-01  0 
 7.679370e-02  -1.142846e-01  0 
 8.069189e-02  -1.147304e-01  0 
 5.349402e-02  -1.179040e-01  0 
 4.695705e-02  -9.521539e-02  0 
 4.950268e-02  -9.527504e-02  0 
 3.917434e-02  -9.799258e-02  0 
 4.182202e-02  -9.796645e-02  0 
 4.445866e-02  -9.795910e-02  0 
 4.708247e-02  -9.794951e-02  0 
 4.972541e-02  -9.797926e-02  0 
 3.350333e-02  -1.008979e-01  0 
 3.631999e-02  -1.008861e-01  0 
 3.908414e-02  -1.008529e-01  0 
 4.177770e-02  -1.008080e-01  0 
 4.446414e-02  -1.007770e-01  0 