# vtk DataFile Version 3.1
this is an vtk file created by FEMAC
ASCII
DATASET UNSTRUCTURED_GRID
POINTS 101 FLOAT
4.000000 4.000000 0.000000
3.444444 4.000000 0.000000
3.555556 4.000000 0.000000
3.666667 4.000000 0.000000
3.777778 4.000000 0.000000
3.888889 4.000000 0.000000
4.000000 3.333333 0.000000
4.000000 3.444444 0.000000
4.000000 3.555556 0.000000
4.000000 3.666667 0.000000
4.000000 3.777778 0.000000
4.000000 3.888889 0.000000
4.000000 4.111111 0.000000
4.000000 4.222222 0.000000
4.111111 4.000000 0.000000
4.222222 4.000000 0.000000
4.333333 4.000000 0.000000
4.444444 4.000000 0.000000
4.555556 4.000000 0.000000
3.444444 3.333333 0.000000
3.444444 3.444444 0.000000
3.444444 3.555556 0.000000
3.444444 3.666667 0.000000
3.444444 3.777778 0.000000
3.444444 3.888889 0.000000
3.555556 3.333333 0.000000
3.555556 3.444444 0.000000
3.555556 3.555556 0.000000
3.555556 3.666667 0.000000
3.555556 3.777778 0.000000
3.555556 3.888889 0.000000
3.666667 3.333333 0.000000
3.666667 3.444444 0.000000
3.666667 3.555556 0.000000
3.666667 3.666667 0.000000
3.666667 3.777778 0.000000
3.666667 3.888889 0.000000
3.777778 3.333333 0.000000
3.777778 3.444444 0.000000
3.777778 3.555556 0.000000
3.777778 3.666667 0.000000
3.777778 3.777778 0.000000
3.777778 3.888889 0.000000
3.888889 3.333333 0.000000
3.888889 3.444444 0.000000
3.888889 3.555556 0.000000
3.888889 3.666667 0.000000
3.888889 3.777778 0.000000
3.888889 3.888889 0.000000
3.444444 4.111111 0.000000
3.444444 4.222222 0.000000
3.555556 4.111111 0.000000
3.555556 4.222222 0.000000
3.666667 4.111111 0.000000
3.666667 4.222222 0.000000
3.777778 4.111111 0.000000
3.777778 4.222222 0.000000
3.888889 4.111111 0.000000
3.888889 4.222222 0.000000
4.111111 3.333333 0.000000
4.111111 3.444444 0.000000
4.111111 3.555556 0.000000
4.111111 3.666667 0.000000
4.111111 3.777778 0.000000
4.111111 3.888889 0.000000
4.222222 3.333333 0.000000
4.222222 3.444444 0.000000
4.222222 3.555556 0.000000
4.222222 3.666667 0.000000
4.222222 3.777778 0.000000
4.222222 3.888889 0.000000
4.333333 3.222222 0.000000
4.333333 3.333333 0.000000
4.333333 3.444444 0.000000
4.333333 3.555556 0.000000
4.333333 3.666667 0.000000
4.333333 3.777778 0.000000
4.333333 3.888889 0.000000
4.444444 3.222222 0.000000
4.444444 3.333333 0.000000
4.444444 3.444444 0.000000
4.444444 3.555556 0.000000
4.444444 3.666667 0.000000
4.444444 3.777778 0.000000
4.444444 3.888889 0.000000
4.555556 3.333333 0.000000
4.555556 3.444444 0.000000
4.555556 3.555556 0.000000
4.555556 3.666667 0.000000
4.555556 3.777778 0.000000
4.555556 3.888889 0.000000
4.111111 4.111111 0.000000
4.111111 4.222222 0.000000
4.222222 4.111111 0.000000
4.222222 4.222222 0.000000
4.333333 4.111111 0.000000
4.333333 4.222222 0.000000
4.444444 4.111111 0.000000
4.444444 4.222222 0.000000
4.555556 4.111111 0.000000
4.555556 4.222222 0.000000
CELLS 81 405 
4 19 25 26 20
4 20 26 27 21
4 21 27 28 22
4 22 28 29 23
4 23 29 30 24
4 24 30  2  1
4 25 31 32 26
4 26 32 33 27
4 27 33 34 28
4 28 34 35 29
4 29 35 36 30
4 30 36  3  2
4 31 37 38 32
4 32 38 39 33
4 33 39 40 34
4 34 40 41 35
4 35 41 42 36
4 36 42  4  3
4 37 43 44 38
4 38 44 45 39
4 39 45 46 40
4 40 46 47 41
4 41 47 48 42
4 42 48  5  4
4 43  6  7 44
4 44  7  8 45
4 45  8  9 46
4 46  9 10 47
4 47 10 11 48
4 48 11  0  5
4 1  2 51 49
4 49 51 52 50
4 2  3 53 51
4 51 53 54 52
4 3  4 55 53
4 53 55 56 54
4 4  5 57 55
4 55 57 58 56
4 5  0 12 57
4 57 12 13 58
4 6 59 60  7
4 7 60 61  8
4 8 61 62  9
4 9 62 63 10
4 10 63 64 11
4 11 64 14  0
4 59 65 66 60
4 60 66 67 61
4 61 67 68 62
4 62 68 69 63
4 63 69 70 64
4 64 70 15 14
4 65 72 73 66
4 66 73 74 67
4 67 74 75 68
4 68 75 76 69
4 69 76 77 70
4 70 77 16 15
4 71 78 79 72
4 72 79 80 73
4 73 80 81 74
4 74 81 82 75
4 75 82 83 76
4 76 83 84 77
4 77 84 17 16
4 79 85 86 80
4 80 86 87 81
4 81 87 88 82
4 82 88 89 83
4 83 89 90 84
4 84 90 18 17
4 0 14 91 12
4 12 91 92 13
4 14 15 93 91
4 91 93 94 92
4 15 16 95 93
4 93 95 96 94
4 16 17 97 95
4 95 97 98 96
4 17 18 99 97
4 97  99 100  98
CELL_TYPES 81
9 9 9 9 9 9 9 9 9 9 9 9 9 9 9 9 9 9 9 9 9 9 9 9 9 9 9 9 9 9 9 9 9 9 9 9 9 9 9 9 9 9 9 9 9 9 9 9 9 9 9 9 9 9 9 9 9 9 9 9 9 9 9 9 9 9 9 9 9 9 9 9 9 9 9 9 9 9 9 9 9 
POINT_DATA 101
VECTORS displacement_ITER1 FLOAT
 2.929571e-02  -1.058506e-01  0 
 2.798595e-02  -8.757914e-02  0 
 2.877418e-02  -9.071223e-02  0 
 2.910473e-02  -9.401653e-02  0 
 2.928323e-02  -9.740196e-02  0 
 2.945205e-02  -1.010098e-01  0 
 1.283992e-02  -1.025255e-01  0 
 1.493877e-02  -1.025466e-01  0 
 1.737511e-02  -1.027942e-01  0 
 2.003491e-02  -1.031430e-01  0 
 2.285004e-02  -1.036360e-01  0 
 2.585477e-02  -1.043980e-01  0 
 3.370395e-02  -1.072713e-01  0 
 3.761411e-02  -1.080328e-01  0 
 2.912356e-02  -1.116458e-01  0 
 2.931251e-02  -1.161348e-01  0 
 2.953762e-02  -1.201429e-01  0 
 2.961642e-02  -1.238390e-01  0 
 2.938324e-02  -1.273893e-01  0 
 1.143250e-02  -8.771446e-02  0 
 1.471569e-02  -8.800341e-02  0 
 1.730743e-02  -8.857845e-02  0 
 2.010972e-02  -8.816940e-02  0 
 2.272735e-02  -8.744286e-02  0 
 2.563615e-02  -8.765998e-02  0 
 1.156035e-02  -9.123552e-02  0 
 1.467205e-02  -9.128075e-02  0 
 1.738113e-02  -9.123022e-02  0 
 1.993920e-02  -9.109364e-02  0 
 2.279450e-02  -9.089665e-02  0 
 2.572296e-02  -9.068079e-02  0 
 1.193618e-02  -9.432908e-02  0 
 1.468001e-02  -9.439070e-02  0 
 1.732624e-02  -9.429046e-02  0 
 1.996763e-02  -9.419494e-02  0 
 2.278025e-02  -9.409401e-02  0 
 2.584059e-02  -9.400964e-02  0 
 1.223785e-02  -9.742902e-02  0 
 1.480097e-02  -9.737547e-02  0 
 1.730988e-02  -9.730588e-02  0 
 1.993494e-02  -9.730042e-02  0 
 2.274040e-02  -9.736048e-02  0 
 2.587548e-02  -9.737377e-02  0 
 1.270230e-02  -1.001897e-01  0 
 1.487862e-02  -1.001250e-01  0 
 1.731905e-02  -1.001376e-01  0 
 1.994505e-02  -1.002981e-01  0 
 2.273541e-02  -1.005889e-01  0 
 2.574095e-02  -1.009527e-01  0 
 3.231921e-02  -8.476105e-02  0 
 3.796204e-02  -8.296408e-02  0 
 3.243124e-02  -9.022760e-02  0 
 3.794767e-02  -8.992827e-02  0 
 3.298341e-02  -9.447502e-02  0 
 3.786748e-02  -9.477730e-02  0 
 3.329964e-02  -9.838313e-02  0 
 3.786979e-02  -9.894528e-02  0 
 3.347424e-02  -1.025820e-01  0 
 3.816269e-02  -1.033939e-01  0 
 1.286121e-02  -1.062471e-01  0 
 1.561335e-02  -1.070626e-01  0 
 1.814773e-02  -1.078129e-01  0 
 2.067265e-02  -1.084668e-01  0 
 2.341096e-02  -1.092683e-01  0 
 2.635765e-02  -1.103433e-01  0 
 1.386669e-02  -1.104717e-01  0 
 1.681904e-02  -1.116558e-01  0 
 1.899938e-02  -1.122563e-01  0 
 2.144354e-02  -1.131155e-01  0 
 2.405482e-02  -1.141098e-01  0 
 2.675285e-02  -1.151266e-01  0 
 2.369643e-02  -1.182253e-01  0 
 1.654887e-02  -1.154082e-01  0 
 1.760018e-02  -1.152090e-01  0 
 1.991710e-02  -1.160517e-01  0 
 2.231269e-02  -1.170967e-01  0 
 2.469223e-02  -1.182129e-01  0 
 2.709393e-02  -1.192550e-01  0 
 2.366882e-02  -1.103631e-01  0 
 1.704868e-02  -1.156663e-01  0 
 1.876627e-02  -1.180026e-01  0 
 2.097780e-02  -1.193505e-01  0 
 2.323431e-02  -1.204261e-01  0 
 2.549831e-02  -1.216032e-01  0 
 2.747423e-02  -1.228955e-01  0 
 1.596736e-02  -1.214334e-01  0 
 2.018500e-02  -1.210709e-01  0 
 2.198110e-02  -1.220408e-01  0 
 2.419347e-02  -1.233140e-01  0 
 2.644947e-02  -1.243875e-01  0 
 2.831339e-02  -1.254797e-01  0 
 3.375771e-02  -1.116590e-01  0 
 3.779887e-02  -1.119410e-01  0 
 3.350158e-02  -1.161679e-01  0 
 3.768366e-02  -1.161887e-01  0 
 3.337750e-02  -1.202217e-01  0 
 3.720777e-02  -1.202796e-01  0 
 3.332564e-02  -1.238321e-01  0 
 3.682596e-02  -1.239321e-01  0 
 3.334063e-02  -1.275481e-01  0 
 3.666190e-02  -1.269501e-01  0 
VECTORS displacement_ITER2 FLOAT
 3.387475e-02  -9.480596e-02  0 
 3.347203e-02  -7.699999e-02  0 
 3.383128e-02  -8.025906e-02  0 
 3.393940e-02  -8.352622e-02  0 
 3.400045e-02  -8.681259e-02  0 
 3.408741e-02  -9.028107e-02  0 
 1.716558e-02  -9.188235e-02  0 
 1.960481e-02  -9.190699e-02  0 
 2.217510e-02  -9.211361e-02  0 
 2.488256e-02  -9.242871e-02  0 
 2.769595e-02  -9.286645e-02  0 
 3.063708e-02  -9.352687e-02  0 
 3.699213e-02  -9.611163e-02  0 
 3.961056e-02  -9.692158e-02  0 
 3.361582e-02  -9.921399e-02  0 
 3.360640e-02  -1.025768e-01  0 
 3.361607e-02  -1.057345e-01  0 
 3.365162e-02  -1.087758e-01  0 
 3.369251e-02  -1.115932e-01  0 
 1.685179e-02  -7.769233e-02  0 
 1.972578e-02  -7.769393e-02  0 
 2.215627e-02  -7.808460e-02  0 
 2.488043e-02  -7.765439e-02  0 
 2.747223e-02  -7.689002e-02  0 
 3.061326e-02  -7.703165e-02  0 
 1.680558e-02  -8.084417e-02  0 
 1.961768e-02  -8.078146e-02  0 
 2.219973e-02  -8.067230e-02  0 
 2.472111e-02  -8.052255e-02  0 
 2.760163e-02  -8.037450e-02  0 
 3.066618e-02  -8.024135e-02  0 
 1.693508e-02  -8.375980e-02  0 
 1.953791e-02  -8.371727e-02  0 
 2.212635e-02  -8.362372e-02  0 
 2.477590e-02  -8.358012e-02  0 
 2.762558e-02  -8.355388e-02  0 
 3.071043e-02  -8.352269e-02  0 
 1.701131e-02  -8.662216e-02  0 
 1.954997e-02  -8.658206e-02  0 
 2.210927e-02  -8.657265e-02  0 
 2.477569e-02  -8.663359e-02  0 
 2.759722e-02  -8.674437e-02  0 
 3.069279e-02  -8.678779e-02  0 
 1.717078e-02  -8.933107e-02  0 
 1.957375e-02  -8.932927e-02  0 
 2.212620e-02  -8.940598e-02  0 
 2.480141e-02  -8.959367e-02  0 
 2.759570e-02  -8.988436e-02  0 
 3.054290e-02  -9.022955e-02  0 
 3.584857e-02  -7.964329e-02  0 
 3.740304e-02  -8.232931e-02  0 
 3.649343e-02  -8.192221e-02  0 
 3.847628e-02  -8.309936e-02  0 
 3.666791e-02  -8.491386e-02  0 
 3.985299e-02  -8.619755e-02  0 
 3.691762e-02  -8.856502e-02  0 
 4.048017e-02  -9.015886e-02  0 
 3.714902e-02  -9.237613e-02  0 
 4.050415e-02  -9.407342e-02  0 
 1.493023e-02  -9.453788e-02  0 
 1.828588e-02  -9.493904e-02  0 
 2.162035e-02  -9.561748e-02  0 
 2.486394e-02  -9.644468e-02  0 
 2.798074e-02  -9.731156e-02  0 
 3.101652e-02  -9.826457e-02  0 
 1.301457e-02  -9.778703e-02  0 
 1.738148e-02  -9.855202e-02  0 
 2.156968e-02  -9.961116e-02  0 
 2.523280e-02  -1.006019e-01  0 
 2.847322e-02  -1.014873e-01  0 
 3.131170e-02  -1.021769e-01  0 
 5.614092e-03  -1.010506e-01  0 
 1.123353e-02  -1.017542e-01  0 
 1.716343e-02  -1.031431e-01  0 
 2.188585e-02  -1.040914e-01  0 
 2.579839e-02  -1.048153e-01  0 
 2.898725e-02  -1.053831e-01  0 
 3.156395e-02  -1.057213e-01  0 
 4.993971e-03  -1.055535e-01  0 
 1.100850e-02  -1.080808e-01  0 
 1.725805e-02  -1.086782e-01  0 
 2.231656e-02  -1.089593e-01  0 
 2.634242e-02  -1.089890e-01  0 
 2.955706e-02  -1.089648e-01  0 
 3.187256e-02  -1.089860e-01  0 
 1.019839e-02  -1.157764e-01  0 
 1.739515e-02  -1.149044e-01  0 
 2.251163e-02  -1.139221e-01  0 
 2.669605e-02  -1.131090e-01  0 
 3.005470e-02  -1.122635e-01  0 
 3.250194e-02  -1.115201e-01  0 
 3.704956e-02  -9.920332e-02  0 
 3.983787e-02  -9.946314e-02  0 
 3.680430e-02  -1.025370e-01  0 
 3.993770e-02  -1.024988e-01  0 
 3.667935e-02  -1.057382e-01  0 
 3.976217e-02  -1.057211e-01  0 
 3.661340e-02  -1.087602e-01  0 
 3.949011e-02  -1.087747e-01  0 
 3.656105e-02  -1.117430e-01  0 
 3.936657e-02  -1.115396e-01  0 
VECTORS displacement_ITER3 FLOAT
 3.198793e-02  -9.027627e-02  0 
 3.150472e-02  -7.135556e-02  0 
 3.192454e-02  -7.469264e-02  0 
 3.211450e-02  -7.815435e-02  0 
 3.222955e-02  -8.169716e-02  0 
 3.230426e-02  -8.545784e-02  0 
 1.335194e-02  -8.777586e-02  0 
 1.634242e-02  -8.767384e-02  0 
 1.932645e-02  -8.775347e-02  0 
 2.235537e-02  -8.796541e-02  0 
 2.543305e-02  -8.833240e-02  0 
 2.860207e-02  -8.896218e-02  0 
 3.541773e-02  -9.157952e-02  0 
 3.853505e-02  -9.222901e-02  0 
 3.166375e-02  -9.513225e-02  0 
 3.176072e-02  -9.887124e-02  0 
 3.195886e-02  -1.022078e-01  0 
 3.216494e-02  -1.051974e-01  0 
 3.232776e-02  -1.078621e-01  0 
 1.334076e-02  -7.135422e-02  0 
 1.636238e-02  -7.137238e-02  0 
 1.928618e-02  -7.162955e-02  0 
 2.226490e-02  -7.145770e-02  0 
 2.528430e-02  -7.121474e-02  0 
 2.848230e-02  -7.126148e-02  0 
 1.320077e-02  -7.474964e-02  0 
 1.633174e-02  -7.477691e-02  0 
 1.929469e-02  -7.477227e-02  0 
 2.224315e-02  -7.474848e-02  0 
 2.536643e-02  -7.469750e-02  0 
 2.859754e-02  -7.464969e-02  0 
 1.328764e-02  -7.811116e-02  0 
 1.629048e-02  -7.811860e-02  0 
 1.926477e-02  -7.811117e-02  0 
 2.226054e-02  -7.812904e-02  0 
 2.538287e-02  -7.813569e-02  0 
 2.868062e-02  -7.812880e-02  0 
 1.332138e-02  -8.142695e-02  0 
 1.630203e-02  -8.140433e-02  0 
 1.926064e-02  -8.143024e-02  0 
 2.225385e-02  -8.151329e-02  0 
 2.534101e-02  -8.163129e-02  0 
 2.867169e-02  -8.167302e-02  0 
 1.339098e-02  -8.462617e-02  0 
 1.632331e-02  -8.460349e-02  0 
 1.928439e-02  -8.465354e-02  0 
 2.228151e-02  -8.480908e-02  0 
 2.533741e-02  -8.507563e-02  0 
 2.850689e-02  -8.541928e-02  0 
 3.207747e-02  -7.530302e-02  0 
 3.101163e-02  -7.803704e-02  0 
 3.338084e-02  -7.641000e-02  0 
 3.404264e-02  -7.812188e-02  0 
 3.411880e-02  -7.937771e-02  0 
 3.656714e-02  -8.079666e-02  0 
 3.473295e-02  -8.312009e-02  0 
 3.772953e-02  -8.452649e-02  0 
 3.522119e-02  -8.711634e-02  0 
 3.829837e-02  -8.854442e-02  0 
 1.250660e-02  -9.363935e-02  0 
 1.681735e-02  -9.337312e-02  0 
 2.004793e-02  -9.338071e-02  0 
 2.298972e-02  -9.341274e-02  0 
 2.598682e-02  -9.369413e-02  0 
 2.904030e-02  -9.431544e-02  0 
 1.342859e-02  -9.930796e-02  0 
 1.754919e-02  -9.910277e-02  0 
 2.047156e-02  -9.837185e-02  0 
 2.339981e-02  -9.810651e-02  0 
 2.638463e-02  -9.820266e-02  0 
 2.926406e-02  -9.849359e-02  0 
 2.096799e-02  -1.085567e-01  0 
 1.617858e-02  -1.050121e-01  0 
 1.785442e-02  -1.032143e-01  0 
 2.060994e-02  -1.024074e-01  0 
 2.360261e-02  -1.020576e-01  0 
 2.661118e-02  -1.020024e-01  0 
 2.944076e-02  -1.020801e-01  0 
 1.963418e-02  -1.043089e-01  0 
 1.728961e-02  -1.050052e-01  0 
 1.832177e-02  -1.055915e-01  0 
 2.075645e-02  -1.055249e-01  0 
 2.375509e-02  -1.054001e-01  0 
 2.683702e-02  -1.053214e-01  0 
 2.965869e-02  -1.052745e-01  0 
 1.824454e-02  -1.060990e-01  0 
 1.911286e-02  -1.071770e-01  0 
 2.112578e-02  -1.080581e-01  0 
 2.401763e-02  -1.084772e-01  0 
 2.709385e-02  -1.083649e-01  0 
 2.998564e-02  -1.080730e-01  0 
 3.547091e-02  -9.513328e-02  0 
 3.871359e-02  -9.541918e-02  0 
 3.522485e-02  -9.888487e-02  0 
 3.862676e-02  -9.890130e-02  0 
 3.508932e-02  -1.022520e-01  0 
 3.817600e-02  -1.022143e-01  0 
 3.500318e-02  -1.052057e-01  0 
 3.771786e-02  -1.051911e-01  0 
 3.492501e-02  -1.079221e-01  0 
 3.748254e-02  -1.077399e-01  0 
VECTORS displacement_ITER4 FLOAT
 2.920759e-02  -8.765997e-02  0 
 2.853605e-02  -7.073483e-02  0 
 2.889542e-02  -7.362398e-02  0 
 2.911499e-02  -7.662552e-02  0 
 2.928518e-02  -7.973665e-02  0 
 2.943028e-02  -8.310842e-02  0 
 1.293170e-02  -8.483649e-02  0 
 1.542168e-02  -8.481695e-02  0 
 1.799224e-02  -8.493320e-02  0 
 2.061814e-02  -8.516897e-02  0 
 2.329625e-02  -8.556852e-02  0 
 2.608610e-02  -8.625576e-02  0 
 3.230847e-02  -8.906102e-02  0 
 3.500380e-02  -8.979947e-02  0 
 2.896896e-02  -9.218217e-02  0 
 2.909058e-02  -9.547896e-02  0 
 2.924406e-02  -9.840328e-02  0 
 2.937098e-02  -1.010707e-01  0 
 2.942633e-02  -1.035527e-01  0 
 1.295369e-02  -7.060404e-02  0 
 1.556194e-02  -7.061783e-02  0 
 1.800367e-02  -7.082629e-02  0 
 2.053730e-02  -7.074679e-02  0 
 2.309739e-02  -7.059106e-02  0 
 2.584334e-02  -7.064154e-02  0 
 1.282156e-02  -7.360570e-02  0 
 1.547958e-02  -7.360110e-02  0 
 1.801756e-02  -7.360160e-02  0 
 2.054053e-02  -7.360059e-02  0 
 2.321554e-02  -7.358198e-02  0 
 2.600997e-02  -7.357306e-02  0 
 1.280251e-02  -7.655095e-02  0 
 1.541726e-02  -7.654081e-02  0 
 1.797484e-02  -7.653586e-02  0 
 2.055027e-02  -7.655967e-02  0 
 2.325011e-02  -7.657879e-02  0 
 2.611966e-02  -7.658677e-02  0 
 1.281861e-02  -7.946343e-02  0 
 1.540384e-02  -7.942793e-02  0 
 1.795083e-02  -7.944508e-02  0 
 2.052992e-02  -7.953117e-02  0 
 2.320665e-02  -7.965446e-02  0 
 2.613266e-02  -7.969991e-02  0 
 1.290817e-02  -8.222845e-02  0 
 1.540761e-02  -8.219993e-02  0 
 1.795565e-02  -8.225202e-02  0 
 2.054604e-02  -8.241945e-02  0 
 2.319677e-02  -8.270224e-02  0 
 2.598155e-02  -8.305808e-02  0 
 3.003992e-02  -7.153957e-02  0 
 3.175930e-02  -7.205745e-02  0 
 3.071759e-02  -7.443684e-02  0 
 3.305328e-02  -7.532484e-02  0 
 3.130538e-02  -7.771677e-02  0 
 3.411779e-02  -7.881167e-02  0 
 3.177225e-02  -8.120600e-02  0 
 3.480572e-02  -8.248685e-02  0 
 3.215957e-02  -8.494360e-02  0 
 3.523258e-02  -8.636224e-02  0 
 1.258837e-02  -8.850908e-02  0 
 1.550387e-02  -8.888844e-02  0 
 1.828972e-02  -8.926871e-02  0 
 2.107583e-02  -8.974548e-02  0 
 2.384856e-02  -9.035302e-02  0 
 2.662749e-02  -9.119861e-02  0 
 1.286808e-02  -9.237925e-02  0 
 1.579808e-02  -9.285707e-02  0 
 1.879952e-02  -9.342722e-02  0 
 2.166088e-02  -9.396245e-02  0 
 2.442121e-02  -9.450948e-02  0 
 2.697942e-02  -9.503151e-02  0 
 7.785437e-03  -9.401955e-02  0 
 1.313853e-02  -9.580270e-02  0 
 1.640642e-02  -9.684503e-02  0 
 1.939834e-02  -9.739724e-02  0 
 2.222600e-02  -9.779754e-02  0 
 2.486130e-02  -9.811483e-02  0 
 2.723049e-02  -9.831805e-02  0 
 8.302653e-03  -1.005180e-01  0 
 1.360543e-02  -1.007282e-01  0 
 1.700065e-02  -1.008786e-01  0 
 1.993727e-02  -1.011338e-01  0 
 2.267958e-02  -1.012778e-01  0 
 2.520997e-02  -1.013126e-01  0 
 2.743427e-02  -1.012633e-01  0 
 1.432146e-02  -1.046135e-01  0 
 1.733533e-02  -1.047699e-01  0 
 2.033794e-02  -1.045998e-01  0 
 2.298743e-02  -1.044793e-01  0 
 2.546421e-02  -1.042077e-01  0 
 2.766685e-02  -1.038466e-01  0 
 3.237403e-02  -9.219762e-02  0 
 3.515626e-02  -9.250701e-02  0 
 3.213347e-02  -9.548736e-02  0 
 3.508011e-02  -9.549310e-02  0 
 3.201395e-02  -9.843013e-02  0 
 3.474375e-02  -9.840968e-02  0 
 3.194984e-02  -1.010737e-01  0 
 3.442169e-02  -1.010547e-01  0 
 3.191881e-02  -1.035880e-01  0 
 3.430249e-02  -1.034656e-01  0 
VECTORS displacement_ITER5 FLOAT
 2.889261e-02  -8.516593e-02  0 
 2.835288e-02  -6.829756e-02  0 
 2.873190e-02  -7.119195e-02  0 
 2.894208e-02  -7.418709e-02  0 
 2.908508e-02  -7.729817e-02  0 
 2.918925e-02  -8.065992e-02  0 
 1.288257e-02  -8.227776e-02  0 
 1.530908e-02  -8.233250e-02  0 
 1.785465e-02  -8.247693e-02  0 
 2.046335e-02  -8.271577e-02  0 
 2.312008e-02  -8.310542e-02  0 
 2.587434e-02  -8.377429e-02  0 
 3.220960e-02  -8.655262e-02  0 
 3.520426e-02  -8.726463e-02  0 
 2.857984e-02  -8.996336e-02  0 
 2.866435e-02  -9.358023e-02  0 
 2.879337e-02  -9.683588e-02  0 
 2.888377e-02  -9.985212e-02  0 
 2.886201e-02  -1.027185e-01  0 
 1.291703e-02  -6.829285e-02  0 
 1.553826e-02  -6.831892e-02  0 
 1.792335e-02  -6.851113e-02  0 
 2.045219e-02  -6.838492e-02  0 
 2.298722e-02  -6.813023e-02  0 
 2.573756e-02  -6.825743e-02  0 
 1.280027e-02  -7.133337e-02  0 
 1.542564e-02  -7.128213e-02  0 
 1.792831e-02  -7.125131e-02  0 
 2.041646e-02  -7.121884e-02  0 
 2.308919e-02  -7.118110e-02  0 
 2.586956e-02  -7.114228e-02  0 
 1.275708e-02  -7.423784e-02  0 
 1.533772e-02  -7.419451e-02  0 
 1.786383e-02  -7.416006e-02  0 
 2.041501e-02  -7.416631e-02  0 
 2.309716e-02  -7.417018e-02  0 
 2.595424e-02  -7.416253e-02  0 
 1.275536e-02  -7.710785e-02  0 
 1.530401e-02  -7.704281e-02  0 
 1.782294e-02  -7.704079e-02  0 
 2.038239e-02  -7.711677e-02  0 
 2.303891e-02  -7.723494e-02  0 
 2.594515e-02  -7.727363e-02  0 
 1.285051e-02  -7.979007e-02  0 
 1.529161e-02  -7.976250e-02  0 
 1.781804e-02  -7.981662e-02  0 
 2.039288e-02  -7.998319e-02  0 
 2.302397e-02  -8.026309e-02  0 
 2.577483e-02  -8.061983e-02  0 
 2.870298e-02  -7.016285e-02  0 
 2.821037e-02  -7.134017e-02  0 
 2.975660e-02  -7.199852e-02  0 
 3.074168e-02  -7.306135e-02  0 
 3.059574e-02  -7.492788e-02  0 
 3.271982e-02  -7.592872e-02  0 
 3.127727e-02  -7.828855e-02  0 
 3.394104e-02  -7.927764e-02  0 
 3.178684e-02  -8.207373e-02  0 
 3.494192e-02  -8.313020e-02  0 
 1.206629e-02  -8.719027e-02  0 
 1.538457e-02  -8.728685e-02  0 
 1.815391e-02  -8.752660e-02  0 
 2.082871e-02  -8.781064e-02  0 
 2.353424e-02  -8.826450e-02  0 
 2.627212e-02  -8.900973e-02  0 
 1.237606e-02  -9.207040e-02  0 
 1.562394e-02  -9.224502e-02  0 
 1.841599e-02  -9.225070e-02  0 
 2.114486e-02  -9.242910e-02  0 
 2.386366e-02  -9.274175e-02  0 
 2.645542e-02  -9.313243e-02  0 
 1.217089e-02  -9.706336e-02  0 
 1.340238e-02  -9.675196e-02  0 
 1.584790e-02  -9.652797e-02  0 
 1.860084e-02  -9.650983e-02  0 
 2.131955e-02  -9.656324e-02  0 
 2.397477e-02  -9.663938e-02  0 
 2.650404e-02  -9.671529e-02  0 
 1.266158e-02  -9.915156e-02  0 
 1.373564e-02  -9.983320e-02  0 
 1.617928e-02  -1.001825e-01  0 
 1.877382e-02  -1.002615e-01  0 
 2.135605e-02  -1.002153e-01  0 
 2.391315e-02  -1.001260e-01  0 
 2.643669e-02  -9.997852e-02  0 
 1.370267e-02  -1.037258e-01  0 
 1.654296e-02  -1.035558e-01  0 
 1.890120e-02  -1.034954e-01  0 
 2.130541e-02  -1.034154e-01  0 
 2.375792e-02  -1.032457e-01  0 
 2.620984e-02  -1.030318e-01  0 
 3.227780e-02  -8.997469e-02  0 
 3.535713e-02  -9.029344e-02  0 
 3.202748e-02  -9.358813e-02  0 
 3.529522e-02  -9.360150e-02  0 
 3.190391e-02  -9.686624e-02  0 
 3.497336e-02  -9.687436e-02  0 
 3.184324e-02  -9.985453e-02  0 
 3.468487e-02  -9.986140e-02  0 
 3.183561e-02  -1.027780e-01  0 
 3.457035e-02  -1.025890e-01  0 
VECTORS displacement_ITER6 FLOAT
 2.791027e-02  -8.473615e-02  0 
 2.748233e-02  -6.770030e-02  0 
 2.780074e-02  -7.067720e-02  0 
 2.799777e-02  -7.370271e-02  0 
 2.813695e-02  -7.683971e-02  0 
 2.822904e-02  -8.022633e-02  0 
 1.163264e-02  -8.200305e-02  0 
 1.415406e-02  -8.200759e-02  0 
 1.676532e-02  -8.211358e-02  0 
 1.942068e-02  -8.232884e-02  0 
 2.211406e-02  -8.270251e-02  0 
 2.489440e-02  -8.335739e-02  0 
 3.095825e-02  -8.612096e-02  0 
 3.370662e-02  -8.683931e-02  0 
 2.756806e-02  -8.927361e-02  0 
 2.760111e-02  -9.267510e-02  0 
 2.765583e-02  -9.579872e-02  0 
 2.770032e-02  -9.876922e-02  0 
 2.771128e-02  -1.016183e-01  0 
 1.176137e-02  -6.769683e-02  0 
 1.435416e-02  -6.769062e-02  0 
 1.681705e-02  -6.778916e-02  0 
 1.936516e-02  -6.774342e-02  0 
 2.196524e-02  -6.760654e-02  0 
 2.471541e-02  -6.767633e-02  0 
 1.165104e-02  -7.071364e-02  0 
 1.426169e-02  -7.067393e-02  0 
 1.681415e-02  -7.065804e-02  0 
 1.937282e-02  -7.064511e-02  0 
 2.206885e-02  -7.063067e-02  0 
 2.488165e-02  -7.062098e-02  0 
 1.156057e-02  -7.368202e-02  0 
 1.419299e-02  -7.363884e-02  0 
 1.676714e-02  -7.362518e-02  0 
 1.936788e-02  -7.364520e-02  0 
 2.208980e-02  -7.366161e-02  0 
 2.497924e-02  -7.366970e-02  0 
 1.154561e-02  -7.661640e-02  0 
 1.415863e-02  -7.655592e-02  0 
 1.673640e-02  -7.656114e-02  0 
 1.934113e-02  -7.664396e-02  0 
 2.203489e-02  -7.676778e-02  0 
 2.497037e-02  -7.681199e-02  0 
 1.160525e-02  -7.939785e-02  0 
 1.414644e-02  -7.935435e-02  0 
 1.673395e-02  -7.939739e-02  0 
 1.935420e-02  -7.955552e-02  0 
 2.202078e-02  -7.983040e-02  0 
 2.479700e-02  -8.018630e-02  0 
 2.888964e-02  -6.866025e-02  0 
 3.026719e-02  -6.940409e-02  0 
 2.951845e-02  -7.151605e-02  0 
 3.153282e-02  -7.245615e-02  0 
 3.008930e-02  -7.468794e-02  0 
 3.255967e-02  -7.572848e-02  0 
 3.053474e-02  -7.804797e-02  0 
 3.331325e-02  -7.908683e-02  0 
 3.081238e-02  -8.179842e-02  0 
 3.394173e-02  -8.283211e-02  0 
 1.137599e-02  -8.638816e-02  0 
 1.423934e-02  -8.654244e-02  0 
 1.696238e-02  -8.677044e-02  0 
 1.970438e-02  -8.710134e-02  0 
 2.247300e-02  -8.759945e-02  0 
 2.525092e-02  -8.835400e-02  0 
 1.163920e-02  -9.057113e-02  0 
 1.440769e-02  -9.082604e-02  0 
 1.721704e-02  -9.108724e-02  0 
 2.003379e-02  -9.144612e-02  0 
 2.280876e-02  -9.186897e-02  0 
 2.541337e-02  -9.229240e-02  0 
 9.671842e-03  -9.394509e-02  0 
 1.196769e-02  -9.439027e-02  0 
 1.462723e-02  -9.472945e-02  0 
 1.750805e-02  -9.509091e-02  0 
 2.032165e-02  -9.538303e-02  0 
 2.299986e-02  -9.560819e-02  0 
 2.547372e-02  -9.574511e-02  0 
 1.029011e-02  -9.668314e-02  0 
 1.199359e-02  -9.785521e-02  0 
 1.495498e-02  -9.851027e-02  0 
 1.779968e-02  -9.883619e-02  0 
 2.051018e-02  -9.895328e-02  0 
 2.310116e-02  -9.896558e-02  0 
 2.549242e-02  -9.891194e-02  0 
 1.148871e-02  -1.027598e-01  0 
 1.523375e-02  -1.023617e-01  0 
 1.796092e-02  -1.022995e-01  0 
 2.057612e-02  -1.022190e-01  0 
 2.313223e-02  -1.020423e-01  0 
 2.552059e-02  -1.017719e-01  0 
 3.103216e-02  -8.928492e-02  0 
 3.385311e-02  -8.961891e-02  0 
 3.078946e-02  -9.266853e-02  0 
 3.384700e-02  -9.268095e-02  0 
 3.067441e-02  -9.580349e-02  0 
 3.364607e-02  -9.580280e-02  0 
 3.061314e-02  -9.876389e-02  0 
 3.346029e-02  -9.874250e-02  0 
 3.059211e-02  -1.016697e-01  0 
 3.339823e-02  -1.016105e-01  0 
VECTORS displacement_ITER7 FLOAT
 2.834820e-02  -8.433016e-02  0 
 2.801795e-02  -6.715244e-02  0 
 2.826123e-02  -7.016992e-02  0 
 2.844033e-02  -7.322088e-02  0 
 2.858099e-02  -7.638355e-02  0 
 2.867238e-02  -7.980071e-02  0 
 1.168082e-02  -8.174499e-02  0 
 1.434488e-02  -8.169722e-02  0 
 1.704230e-02  -8.176621e-02  0 
 1.975591e-02  -8.196016e-02  0 
 2.249401e-02  -8.231952e-02  0 
 2.530974e-02  -8.296282e-02  0 
 3.129618e-02  -8.570319e-02  0 
 3.396748e-02  -8.639509e-02  0 
 2.800159e-02  -8.876587e-02  0 
 2.802857e-02  -9.208533e-02  0 
 2.806999e-02  -9.515348e-02  0 
 2.811558e-02  -9.808938e-02  0 
 2.817553e-02  -1.009164e-01  0 
 1.194485e-02  -6.705676e-02  0 
 1.450510e-02  -6.702336e-02  0 
 1.704518e-02  -6.705500e-02  0 
 1.962989e-02  -6.707582e-02  0 
 2.230310e-02  -6.706220e-02  0 
 2.509715e-02  -6.708870e-02  0 
 1.182020e-02  -7.004801e-02  0 
 1.443656e-02  -7.003032e-02  0 
 1.704406e-02  -7.003831e-02  0 
 1.968275e-02  -7.005568e-02  0 
 2.242317e-02  -7.007545e-02  0 
 2.528936e-02  -7.010813e-02  0 
 1.170071e-02  -7.308230e-02  0 
 1.438617e-02  -7.305036e-02  0 
 1.702008e-02  -7.306710e-02  0 
 1.968453e-02  -7.311318e-02  0 
 2.246198e-02  -7.315259e-02  0 
 2.539331e-02  -7.317948e-02  0 
 1.166703e-02  -7.608221e-02  0 
 1.435333e-02  -7.603891e-02  0 
 1.700516e-02  -7.606615e-02  0 
 1.967004e-02  -7.616694e-02  0 
 2.241289e-02  -7.630212e-02  0 
 2.538544e-02  -7.635273e-02  0 
 1.167485e-02  -7.897527e-02  0 
 1.434417e-02  -7.893102e-02  0 
 1.701173e-02  -7.897597e-02  0 
 1.969003e-02  -7.913351e-02  0 
 2.240153e-02  -7.940667e-02  0 
 2.521280e-02  -7.976074e-02  0 
 2.898470e-02  -6.888803e-02  0 
 2.976092e-02  -7.010532e-02  0 
 2.972609e-02  -7.136039e-02  0 
 3.129839e-02  -7.265358e-02  0 
 3.031482e-02  -7.445918e-02  0 
 3.252191e-02  -7.578145e-02  0 
 3.079883e-02  -7.780639e-02  0 
 3.332647e-02  -7.909862e-02  0 
 3.115308e-02  -8.146663e-02  0 
 3.392806e-02  -8.271792e-02  0 
 1.158517e-02  -8.623751e-02  0 
 1.454777e-02  -8.633243e-02  0 
 1.733923e-02  -8.650035e-02  0 
 2.013214e-02  -8.678651e-02  0 
 2.292702e-02  -8.723594e-02  0 
 2.571416e-02  -8.793270e-02  0 
 1.206030e-02  -9.044984e-02  0 
 1.483826e-02  -9.063868e-02  0 
 1.770548e-02  -9.086911e-02  0 
 2.053619e-02  -9.115658e-02  0 
 2.331017e-02  -9.149818e-02  0 
 2.589287e-02  -9.182684e-02  0 
 8.977091e-03  -9.298974e-02  0 
 1.255822e-02  -9.405933e-02  0 
 1.527546e-02  -9.458318e-02  0 
 1.809816e-02  -9.488219e-02  0 
 2.088148e-02  -9.508056e-02  0 
 2.353933e-02  -9.521256e-02  0 
 2.596819e-02  -9.524050e-02  0 
 9.707048e-03  -9.756288e-02  0 
 1.293496e-02  -9.797207e-02  0 
 1.574590e-02  -9.834838e-02  0 
 1.845585e-02  -9.856728e-02  0 
 2.113021e-02  -9.862360e-02  0 
 2.368769e-02  -9.854644e-02  0 
 2.601948e-02  -9.837599e-02  0 
 1.319058e-02  -1.019726e-01  0 
 1.605610e-02  -1.019598e-01  0 
 1.871421e-02  -1.019851e-01  0 
 2.127312e-02  -1.018838e-01  0 
 2.377561e-02  -1.016237e-01  0 
 2.610768e-02  -1.012289e-01  0 
 3.137427e-02  -8.878041e-02  0 
 3.410949e-02  -8.912575e-02  0 
 3.114745e-02  -9.207912e-02  0 
 3.411344e-02  -9.210378e-02  0 
 3.104234e-02  -9.514646e-02  0 
 3.395451e-02  -9.512798e-02  0 
 3.097985e-02  -9.808241e-02  0 
 3.380986e-02  -9.803411e-02  0 
 3.094425e-02  -1.009289e-01  0 
 3.375579e-02  -1.009606e-01  0 
VECTORS displacement_ITER8 FLOAT
 2.800464e-02  -8.435321e-02  0 
 2.760980e-02  -6.727143e-02  0 
 2.787002e-02  -7.025340e-02  0 
 2.806317e-02  -7.328459e-02  0 
 2.821315e-02  -7.643385e-02  0 
 2.831257e-02  -7.983912e-02  0 
 1.135166e-02  -8.178381e-02  0 
 1.401564e-02  -8.174240e-02  0 
 1.670665e-02  -8.181051e-02  0 
 1.941302e-02  -8.200180e-02  0 
 2.214506e-02  -8.235785e-02  0 
 2.495776e-02  -8.299712e-02  0 
 3.098578e-02  -8.571332e-02  0 
 3.368970e-02  -8.639088e-02  0 
 2.767604e-02  -8.879836e-02  0 
 2.771368e-02  -9.213251e-02  0 
 2.776097e-02  -9.521825e-02  0 
 2.780604e-02  -9.818022e-02  0 
 2.786091e-02  -1.010502e-01  0 
 1.162103e-02  -6.714905e-02  0 
 1.418627e-02  -6.711990e-02  0 
 1.673249e-02  -6.713873e-02  0 
 1.930503e-02  -6.715621e-02  0 
 2.196476e-02  -6.716343e-02  0 
 2.472724e-02  -6.719909e-02  0 
 1.150034e-02  -7.014530e-02  0 
 1.411854e-02  -7.012200e-02  0 
 1.672128e-02  -7.012243e-02  0 
 1.935566e-02  -7.013517e-02  0 
 2.208254e-02  -7.015393e-02  0 
 2.492529e-02  -7.018867e-02  0 
 1.139503e-02  -7.317292e-02  0 
 1.406569e-02  -7.313390e-02  0 
 1.669264e-02  -7.314274e-02  0 
 1.935065e-02  -7.318236e-02  0 
 2.211776e-02  -7.321669e-02  0 
 2.503330e-02  -7.324149e-02  0 
 1.135916e-02  -7.615741e-02  0 
 1.402931e-02  -7.610682e-02  0 
 1.667295e-02  -7.612956e-02  0 
 1.933150e-02  -7.622514e-02  0 
 2.206691e-02  -7.635462e-02  0 
 2.502947e-02  -7.640230e-02  0 
 1.135528e-02  -7.902980e-02  0 
 1.401579e-02  -7.898385e-02  0 
 1.667714e-02  -7.902831e-02  0 
 1.934875e-02  -7.918259e-02  0 
 2.205412e-02  -7.945075e-02  0 
 2.486151e-02  -7.979896e-02  0 
 2.859431e-02  -6.880574e-02  0 
 2.957239e-02  -6.988499e-02  0 
 2.933917e-02  -7.140540e-02  0 
 3.102274e-02  -7.267981e-02  0 
 2.994933e-02  -7.452791e-02  0 
 3.217300e-02  -7.584891e-02  0 
 3.044556e-02  -7.785123e-02  0 
 3.295033e-02  -7.913627e-02  0 
 3.081492e-02  -8.148089e-02  0 
 3.356998e-02  -8.271010e-02  0 
 1.128930e-02  -8.629969e-02  0 
 1.420235e-02  -8.639464e-02  0 
 1.696442e-02  -8.654860e-02  0 
 1.973562e-02  -8.681065e-02  0 
 2.252752e-02  -8.724231e-02  0 
 2.533314e-02  -8.793723e-02  0 
 1.174007e-02  -9.052047e-02  0 
 1.447001e-02  -9.069846e-02  0 