# vtk DataFile Version 3.1
this is an vtk file created by FEMAC
ASCII
DATASET UNSTRUCTURED_GRID
POINTS 102 FLOAT
2.000000 1.000000 0.000000
1.666667 1.000000 0.000000
1.777778 1.000000 0.000000
1.888889 1.000000 0.000000
2.000000 0.555556 0.000000
2.000000 0.666667 0.000000
2.000000 0.777778 0.000000
2.000000 0.888889 0.000000
2.000000 1.111111 0.000000
2.000000 1.222222 0.000000
2.000000 1.333333 0.000000
2.000000 1.444444 0.000000
2.111111 1.000000 0.000000
2.222222 1.000000 0.000000
2.333333 1.000000 0.000000
2.444444 1.000000 0.000000
2.555556 1.000000 0.000000
2.666667 1.000000 0.000000
2.777778 1.000000 0.000000
1.666667 0.777778 0.000000
1.666667 0.888889 0.000000
1.777778 0.666667 0.000000
1.777778 0.777778 0.000000
1.777778 0.888889 0.000000
1.888889 0.555556 0.000000
1.888889 0.666667 0.000000
1.888889 0.777778 0.000000
1.888889 0.888889 0.000000
1.666667 1.111111 0.000000
1.666667 1.222222 0.000000
1.666667 1.333333 0.000000
1.666667 1.444444 0.000000
1.666667 1.555556 0.000000
1.777778 1.111111 0.000000
1.777778 1.222222 0.000000
1.777778 1.333333 0.000000
1.777778 1.444444 0.000000
1.777778 1.555556 0.000000
1.888889 1.111111 0.000000
1.888889 1.222222 0.000000
1.888889 1.333333 0.000000
1.888889 1.444444 0.000000
2.111111 0.555556 0.000000
2.111111 0.666667 0.000000
2.111111 0.777778 0.000000
2.111111 0.888889 0.000000
2.222222 0.555556 0.000000
2.222222 0.666667 0.000000
2.222222 0.777778 0.000000
2.222222 0.888889 0.000000
2.333333 0.444444 0.000000
2.333333 0.555556 0.000000
2.333333 0.666667 0.000000
2.333333 0.777778 0.000000
2.333333 0.888889 0.000000
2.444444 0.444444 0.000000
2.444444 0.555556 0.000000
2.444444 0.666667 0.000000
2.444444 0.777778 0.000000
2.444444 0.888889 0.000000
2.555556 0.444444 0.000000
2.555556 0.555556 0.000000
2.555556 0.666667 0.000000
2.555556 0.777778 0.000000
2.555556 0.888889 0.000000
2.666667 0.444444 0.000000
2.666667 0.555556 0.000000
2.666667 0.666667 0.000000
2.666667 0.777778 0.000000
2.666667 0.888889 0.000000
2.777778 0.555556 0.000000
2.777778 0.666667 0.000000
2.777778 0.777778 0.000000
2.777778 0.888889 0.000000
2.111111 1.111111 0.000000
2.111111 1.222222 0.000000
2.111111 1.333333 0.000000
2.111111 1.444444 0.000000
2.222222 1.111111 0.000000
2.222222 1.222222 0.000000
2.222222 1.333333 0.000000
2.222222 1.444444 0.000000
2.333333 1.111111 0.000000
2.333333 1.222222 0.000000
2.333333 1.333333 0.000000
2.333333 1.444444 0.000000
2.444444 1.111111 0.000000
2.444444 1.222222 0.000000
2.444444 1.333333 0.000000
2.444444 1.444444 0.000000
2.555556 1.111111 0.000000
2.555556 1.222222 0.000000
2.555556 1.333333 0.000000
2.555556 1.444444 0.000000
2.666667 1.111111 0.000000
2.666667 1.222222 0.000000
2.666667 1.333333 0.000000
2.666667 1.444444 0.000000
2.777778 1.111111 0.000000
2.777778 1.222222 0.000000
2.777778 1.333333 0.000000
2.777778 1.444444 0.000000
CELLS 81 405 
4 19 22 23 20
4 20 23  2  1
4 21 25 26 22
4 22 26 27 23
4 23 27  3  2
4 24  4  5 25
4 25  5  6 26
4 26  6  7 27
4 27  7  0  3
4 1  2 33 28
4 28 33 34 29
4 29 34 35 30
4 30 35 36 31
4 31 36 37 32
4 2  3 38 33
4 33 38 39 34
4 34 39 40 35
4 35 40 41 36
4 3  0  8 38
4 38  8  9 39
4 39  9 10 40
4 40 10 11 41
4 4 42 43  5
4 5 43 44  6
4 6 44 45  7
4 7 45 12  0
4 42 46 47 43
4 43 47 48 44
4 44 48 49 45
4 45 49 13 12
4 46 51 52 47
4 47 52 53 48
4 48 53 54 49
4 49 54 14 13
4 50 55 56 51
4 51 56 57 52
4 52 57 58 53
4 53 58 59 54
4 54 59 15 14
4 55 60 61 56
4 56 61 62 57
4 57 62 63 58
4 58 63 64 59
4 59 64 16 15
4 60 65 66 61
4 61 66 67 62
4 62 67 68 63
4 63 68 69 64
4 64 69 17 16
4 66 70 71 67
4 67 71 72 68
4 68 72 73 69
4 69 73 18 17
4 0 12 74  8
4 8 74 75  9
4 9 75 76 10
4 10 76 77 11
4 12 13 78 74
4 74 78 79 75
4 75 79 80 76
4 76 80 81 77
4 13 14 82 78
4 78 82 83 79
4 79 83 84 80
4 80 84 85 81
4 14 15 86 82
4 82 86 87 83
4 83 87 88 84
4 84 88 89 85
4 15 16 90 86
4 86 90 91 87
4 87 91 92 88
4 88 92 93 89
4 16 17 94 90
4 90 94 95 91
4 91 95 96 92
4 92 96 97 93
4 17 18 98 94
4 94 98 99 95
4 95  99 100  96
4 96 100 101  97
CELL_TYPES 81
9 9 9 9 9 9 9 9 9 9 9 9 9 9 9 9 9 9 9 9 9 9 9 9 9 9 9 9 9 9 9 9 9 9 9 9 9 9 9 9 9 9 9 9 9 9 9 9 9 9 9 9 9 9 9 9 9 9 9 9 9 9 9 9 9 9 9 9 9 9 9 9 9 9 9 9 9 9 9 9 9 
POINT_DATA 102
VECTORS displacement_ITER1 FLOAT
 -2.646043e-02  -3.095175e-02  0 
 -2.206950e-02  -1.894389e-02  0 
 -2.311300e-02  -2.185948e-02  0 
 -2.443081e-02  -2.535968e-02  0 
 -5.281619e-02  -3.426854e-02  0 
 -4.721558e-02  -3.392435e-02  0 
 -4.141561e-02  -3.338728e-02  0 
 -3.511524e-02  -3.240002e-02  0 
 -2.044084e-02  -2.942947e-02  0 
 -1.694552e-02  -2.823610e-02  0 
 -1.417527e-02  -2.744658e-02  0 
 -1.185423e-02  -2.694261e-02  0 
 -2.848551e-02  -3.917619e-02  0 
 -2.984678e-02  -4.532229e-02  0 
 -3.084636e-02  -5.092315e-02  0 
 -3.169069e-02  -5.623977e-02  0 
 -3.246466e-02  -6.134788e-02  0 
 -3.322245e-02  -6.627481e-02  0 
 -3.403553e-02  -7.100357e-02  0 
 -2.058705e-02  -2.308267e-02  0 
 -2.191920e-02  -2.057384e-02  0 
 -3.472152e-02  -2.507127e-02  0 
 -2.848769e-02  -2.410832e-02  0 
 -2.600685e-02  -2.214563e-02  0 
 -4.516108e-02  -3.127459e-02  0 
 -4.160207e-02  -2.895434e-02  0 
 -3.562044e-02  -2.784682e-02  0 
 -3.013153e-02  -2.621121e-02  0 
 -1.935450e-02  -1.868517e-02  0 
 -1.646791e-02  -1.893890e-02  0 
 -1.381955e-02  -1.925891e-02  0 
 -1.181760e-02  -1.976721e-02  0 
 -1.013954e-02  -2.014612e-02  0 
 -1.983262e-02  -2.174078e-02  0 
 -1.665830e-02  -2.185458e-02  0 
 -1.395648e-02  -2.196563e-02  0 
 -1.177120e-02  -2.196797e-02  0 
 -1.031802e-02  -2.187403e-02  0 
 -2.021976e-02  -2.516752e-02  0 
 -1.674736e-02  -2.501940e-02  0 
 -1.405132e-02  -2.474469e-02  0 
 -1.172266e-02  -2.459163e-02  0 
 -5.288671e-02  -3.976745e-02  0 
 -4.730728e-02  -3.969422e-02  0 
 -4.156835e-02  -3.950383e-02  0 
 -3.533120e-02  -3.937783e-02  0 
 -5.292251e-02  -4.560070e-02  0 
 -4.726269e-02  -4.557239e-02  0 
 -4.162852e-02  -4.554656e-02  0 
 -3.574901e-02  -4.552924e-02  0 
 -5.717184e-02  -5.177575e-02  0 
 -5.255150e-02  -5.136207e-02  0 
 -4.728570e-02  -5.125545e-02  0 
 -4.183269e-02  -5.120730e-02  0 
 -3.632074e-02  -5.112540e-02  0 
 -5.730351e-02  -5.645260e-02  0 
 -5.241196e-02  -5.651837e-02  0 
 -4.734937e-02  -5.655483e-02  0 
 -4.214451e-02  -5.653362e-02  0 
 -3.690306e-02  -5.643202e-02  0 
 -5.712798e-02  -6.140644e-02  0 
 -5.232907e-02  -6.149111e-02  0 
 -4.744070e-02  -6.158362e-02  0 
 -4.246686e-02  -6.161061e-02  0 
 -3.746514e-02  -6.152936e-02  0 
 -5.682490e-02  -6.599057e-02  0 
 -5.226237e-02  -6.626310e-02  0 
 -4.754125e-02  -6.644938e-02  0 
 -4.277220e-02  -6.650257e-02  0 
 -3.800878e-02  -6.644459e-02  0 
 -5.235029e-02  -7.118406e-02  0 
 -4.766266e-02  -7.123245e-02  0 
 -4.307850e-02  -7.122530e-02  0 
 -3.852899e-02  -7.116372e-02  0 
 -2.365534e-02  -3.741302e-02  0 
 -1.951318e-02  -3.578246e-02  0 
 -1.586198e-02  -3.457460e-02  0 
 -1.168309e-02  -3.392591e-02  0 
 -2.595468e-02  -4.442289e-02  0 
 -2.191236e-02  -4.320975e-02  0 
 -1.778181e-02  -4.213030e-02  0 
 -1.324785e-02  -4.121327e-02  0 
 -2.753248e-02  -5.065775e-02  0 
 -2.391334e-02  -5.006189e-02  0 
 -1.999816e-02  -4.923824e-02  0 
 -1.573254e-02  -4.822967e-02  0 
 -2.870582e-02  -5.633564e-02  0 
 -2.563342e-02  -5.617735e-02  0 
 -2.237471e-02  -5.563569e-02  0 
 -1.872526e-02  -5.462699e-02  0 
 -2.965823e-02  -6.146969e-02  0 
 -2.711722e-02  -6.146219e-02  0 
 -2.483970e-02  -6.113158e-02  0 
 -2.234864e-02  -6.012377e-02  0 
 -3.063200e-02  -6.618710e-02  0 
 -2.832093e-02  -6.576791e-02  0 
 -2.734004e-02  -6.517061e-02  0 
 -2.681726e-02  -6.411368e-02  0 
 -3.195813e-02  -7.176903e-02  0 
 -3.015592e-02  -6.894671e-02  0 
 -2.938160e-02  -6.673278e-02  0 
 -3.281836e-02  -6.466853e-02  0 
VECTORS displacement_ITER2 FLOAT
 -2.616092e-02  -3.027579e-02  0 
 -2.155795e-02  -1.907541e-02  0 
 -2.263549e-02  -2.174905e-02  0 
 -2.401090e-02  -2.496172e-02  0 
 -4.810836e-02  -3.370721e-02  0 
 -4.377157e-02  -3.331565e-02  0 
 -3.910204e-02  -3.272772e-02  0 
 -3.387062e-02  -3.170534e-02  0 
 -2.027687e-02  -2.878013e-02  0 
 -1.701107e-02  -2.757591e-02  0 
 -1.452616e-02  -2.675174e-02  0 
 -1.258865e-02  -2.622393e-02  0 
 -2.830522e-02  -3.740754e-02  0 
 -2.970734e-02  -4.242482e-02  0 
 -3.071751e-02  -4.689388e-02  0 
 -3.157566e-02  -5.108475e-02  0 
 -3.239620e-02  -5.505644e-02  0 
 -3.325067e-02  -5.879494e-02  0 
 -3.418514e-02  -6.217480e-02  0 
 -2.824838e-02  -1.889951e-02  0 
 -2.426634e-02  -1.846633e-02  0 
 -3.841097e-02  -2.480101e-02  0 
 -3.213197e-02  -2.347791e-02  0 
 -2.690242e-02  -2.226173e-02  0 
 -4.502453e-02  -3.187492e-02  0 
 -4.101695e-02  -3.012568e-02  0 
 -3.577111e-02  -2.844394e-02  0 
 -3.005902e-02  -2.663245e-02  0 
 -1.912189e-02  -1.887941e-02  0 
 -1.653954e-02  -1.909575e-02  0 
 -1.423903e-02  -1.948974e-02  0 
 -1.241905e-02  -1.987935e-02  0 
 -1.075730e-02  -2.018792e-02  0 
 -1.963260e-02  -2.161245e-02  0 
 -1.674270e-02  -2.174186e-02  0 
 -1.432151e-02  -2.188721e-02  0 
 -1.236936e-02  -2.201760e-02  0 
 -1.075375e-02  -2.211786e-02  0 
 -2.005334e-02  -2.475406e-02  0 
 -1.681972e-02  -2.462704e-02  0 
 -1.439160e-02  -2.438665e-02  0 
 -1.237202e-02  -2.420240e-02  0 
 -4.826395e-02  -3.800075e-02  0 
 -4.383913e-02  -3.790632e-02  0 
 -3.924021e-02  -3.771948e-02  0 
 -3.407361e-02  -3.761426e-02  0 
 -4.824284e-02  -4.261435e-02  0 
 -4.380029e-02  -4.260708e-02  0 
 -3.927720e-02  -4.262167e-02  0 
 -3.449915e-02  -4.263003e-02  0 
 -5.166031e-02  -4.733463e-02  0 
 -4.797501e-02  -4.715014e-02  0 
 -4.379496e-02  -4.713335e-02  0 
 -3.946332e-02  -4.714689e-02  0 
 -3.507168e-02  -4.709212e-02  0 
 -5.170401e-02  -5.113283e-02  0 
 -4.781735e-02  -5.124656e-02  0 
 -4.383614e-02  -5.133307e-02  0 
 -3.975515e-02  -5.135303e-02  0 
 -3.565516e-02  -5.127568e-02  0 
 -5.153509e-02  -5.513388e-02  0 
 -4.773122e-02  -5.519126e-02  0 
 -4.390935e-02  -5.527802e-02  0 
 -4.005960e-02  -5.531647e-02  0 
 -3.622594e-02  -5.524622e-02  0 
 -5.128885e-02  -5.878120e-02  0 
 -4.767273e-02  -5.892436e-02  0 
 -4.399198e-02  -5.906086e-02  0 
 -4.034724e-02  -5.908031e-02  0 
 -3.678903e-02  -5.898559e-02  0 
 -4.778775e-02  -6.284588e-02  0 
 -4.409834e-02  -6.279251e-02  0 
 -4.065566e-02  -6.260896e-02  0 
 -3.735460e-02  -6.245274e-02  0 
 -2.352267e-02  -3.551513e-02  0 
 -1.957381e-02  -3.377406e-02  0 
 -1.619407e-02  -3.242225e-02  0 
 -1.232724e-02  -3.150782e-02  0 
 -2.588459e-02  -4.133539e-02  0 
 -2.200536e-02  -3.991248e-02  0 
 -1.813820e-02  -3.862957e-02  0 
 -1.391502e-02  -3.749850e-02  0 
 -2.754488e-02  -4.640173e-02  0 
 -2.405227e-02  -4.551482e-02  0 
 -2.033244e-02  -4.445346e-02  0 
 -1.638502e-02  -4.324796e-02  0 
 -2.888126e-02  -5.098257e-02  0 
 -2.586702e-02  -5.046525e-02  0 
 -2.259936e-02  -4.960011e-02  0 
 -1.922724e-02  -4.840379e-02  0 
 -3.013604e-02  -5.515761e-02  0 
 -2.760311e-02  -5.484610e-02  0 
 -2.489306e-02  -5.411738e-02  0 
 -2.205261e-02  -5.293356e-02  0 
 -3.153319e-02  -5.904118e-02  0 
 -2.925525e-02  -5.874916e-02  0 
 -2.725134e-02  -5.806565e-02  0 
 -2.491892e-02  -5.698961e-02  0 
 -3.350461e-02  -6.382936e-02  0 
 -3.127730e-02  -6.202841e-02  0 
 -2.932120e-02  -6.105668e-02  0 
 -2.866307e-02  -6.012151e-02  0 
VECTORS displacement_ITER3 FLOAT
 -2.588565e-02  -3.007915e-02  0 
 -2.127922e-02  -1.910462e-02  0 
 -2.233116e-02  -2.175111e-02  0 
 -2.370879e-02  -2.488570e-02  0 
 -4.588182e-02  -3.340905e-02  0 
 -4.202042e-02  -3.304657e-02  0 
 -3.785425e-02  -3.246278e-02  0 
 -3.311617e-02  -3.145374e-02  0 
 -2.004164e-02  -2.864872e-02  0 
 -1.680814e-02  -2.748083e-02  0 
 -1.435515e-02  -2.667699e-02  0 
 -1.245093e-02  -2.616122e-02  0 
 -2.806061e-02  -3.665185e-02  0 
 -2.946793e-02  -4.114771e-02  0 
 -3.047570e-02  -4.510567e-02  0 
 -3.132643e-02  -4.879486e-02  0 
 -3.213647e-02  -5.227636e-02  0 
 -3.298313e-02  -5.553913e-02  0 
 -3.393370e-02  -5.845774e-02  0 
 -2.821357e-02  -1.900164e-02  0 
 -2.401333e-02  -1.877164e-02  0 
 -3.692599e-02  -2.510036e-02  0 
 -3.161994e-02  -2.348748e-02  0 
 -2.649040e-02  -2.239501e-02  0 
 -4.305144e-02  -3.199114e-02  0 
 -3.925934e-02  -3.035256e-02  0 
 -3.476686e-02  -2.845452e-02  0 
 -2.947510e-02  -2.664109e-02  0 
 -1.884878e-02  -1.893822e-02  0 
 -1.634070e-02  -1.911319e-02  0 
 -1.409150e-02  -1.949991e-02  0 
 -1.221015e-02  -1.983830e-02  0 
 -1.047957e-02  -2.010250e-02  0 
 -1.938900e-02  -2.160082e-02  0 
 -1.655135e-02  -2.172497e-02  0 
 -1.416038e-02  -2.188644e-02  0 
 -1.220798e-02  -2.204956e-02  0 
 -1.047375e-02  -2.220230e-02  0 
 -1.982410e-02  -2.467751e-02  0 
 -1.662448e-02  -2.457058e-02  0 
 -1.422068e-02  -2.435577e-02  0 
 -1.224537e-02  -2.419359e-02  0 
 -4.603081e-02  -3.726986e-02  0 
 -4.209403e-02  -3.714228e-02  0 
 -3.799262e-02  -3.695239e-02  0 
 -3.331592e-02  -3.685953e-02  0 
 -4.598641e-02  -4.133153e-02  0 
 -4.206964e-02  -4.132710e-02  0 
 -3.803503e-02  -4.134399e-02  0 
 -3.375308e-02  -4.135337e-02  0 
 -4.896527e-02  -4.542100e-02  0 
 -4.574389e-02  -4.531601e-02  0 
 -4.206138e-02  -4.532917e-02  0 
 -3.822669e-02  -4.535591e-02  0 
 -3.433007e-02  -4.530356e-02  0 
 -4.898224e-02  -4.879878e-02  0 
 -4.558889e-02  -4.892123e-02  0 
 -4.210437e-02  -4.902523e-02  0 
 -3.851967e-02  -4.905691e-02  0 
 -3.491317e-02  -4.898428e-02  0 
 -4.883175e-02  -5.231394e-02  0 
 -4.551675e-02  -5.238432e-02  0 
 -4.218446e-02  -5.248154e-02  0 
 -3.882775e-02  -5.252942e-02  0 
 -3.548274e-02  -5.246405e-02  0 
 -4.860274e-02  -5.549029e-02  0 
 -4.547936e-02  -5.564879e-02  0 
 -4.227482e-02  -5.578223e-02  0 
 -3.912015e-02  -5.581347e-02  0 
 -3.604776e-02  -5.572918e-02  0 
 -4.559326e-02  -5.906703e-02  0 
 -4.237681e-02  -5.901899e-02  0 
 -3.942333e-02  -5.886863e-02  0 
 -3.661631e-02  -5.873530e-02  0 
 -2.330638e-02  -3.477658e-02  0 
 -1.946455e-02  -3.300654e-02  0 
 -1.631234e-02  -3.152342e-02  0 
 -1.321593e-02  -3.011620e-02  0 
 -2.572716e-02  -3.999459e-02  0 
 -2.204778e-02  -3.841048e-02  0 
 -1.859318e-02  -3.680850e-02  0 
 -1.500804e-02  -3.529257e-02  0 
 -2.747487e-02  -4.447189e-02  0 
 -2.425903e-02  -4.332952e-02  0 
 -2.091908e-02  -4.194585e-02  0 
 -1.741231e-02  -4.045437e-02  0 
 -2.890153e-02  -4.850696e-02  0 
 -2.618766e-02  -4.771443e-02  0 
 -2.320626e-02  -4.656597e-02  0 
 -2.005524e-02  -4.518058e-02  0 
 -3.024076e-02  -5.217825e-02  0 
 -2.803199e-02  -5.160252e-02  0 
 -2.547461e-02  -5.066781e-02  0 
 -2.259729e-02  -4.944479e-02  0 
 -3.176940e-02  -5.551507e-02  0 
 -2.987223e-02  -5.497011e-02  0 
 -2.771157e-02  -5.437819e-02  0 
 -2.509056e-02  -5.344644e-02  0 
 -3.417515e-02  -5.889939e-02  0 
 -3.177709e-02  -5.798621e-02  0 
 -2.961967e-02  -5.739331e-02  0 
 -2.828700e-02  -5.681734e-02  0 
VECTORS displacement_ITER4 FLOAT
 -2.573206e-02  -3.016664e-02  0 
 -2.119605e-02  -1.933955e-02  0 
 -2.220017e-02  -2.196690e-02  0 
 -2.356578e-02  -2.504558e-02  0 
 -4.596343e-02  -3.344713e-02  0 
 -4.199355e-02  -3.309739e-02  0 
 -3.777371e-02  -3.251645e-02  0 
 -3.298891e-02  -3.151761e-02  0 
 -1.995104e-02  -2.876430e-02  0 
 -1.675383e-02  -2.761832e-02  0 
 -1.432255e-02  -2.682729e-02  0 
 -1.241905e-02  -2.630809e-02  0 
 -2.789644e-02  -3.675868e-02  0 
 -2.929392e-02  -4.130266e-02  0 
 -3.028897e-02  -4.531716e-02  0 
 -3.111724e-02  -4.907119e-02  0 
 -3.189045e-02  -5.263398e-02  0 
 -3.268812e-02  -5.600814e-02  0 
 -3.360483e-02  -5.910961e-02  0 
 -2.670090e-02  -1.920502e-02  0 
 -2.355786e-02  -1.896211e-02  0 
 -3.533733e-02  -2.411528e-02  0 
 -3.052460e-02  -2.295135e-02  0 
 -2.601805e-02  -2.224615e-02  0 
 -4.229596e-02  -3.078333e-02  0 
 -3.846291e-02  -2.950709e-02  0 
 -3.410259e-02  -2.796370e-02  0 
 -2.905123e-02  -2.643601e-02  0 
 -1.873943e-02  -1.919495e-02  0 
 -1.628223e-02  -1.934283e-02  0 
 -1.406177e-02  -1.969196e-02  0 
 -1.215765e-02  -1.999509e-02  0 
 -1.041071e-02  -2.023103e-02  0 
 -1.929989e-02  -2.181010e-02  0 
 -1.649875e-02  -2.191945e-02  0 
 -1.413237e-02  -2.207728e-02  0 
 -1.218658e-02  -2.224047e-02  0 
 -1.042277e-02  -2.240381e-02  0 
 -1.973722e-02  -2.484063e-02  0 
 -1.657278e-02  -2.473654e-02  0 
 -1.418704e-02  -2.452491e-02  0 
 -1.223820e-02  -2.437453e-02  0 
 -4.608967e-02  -3.743048e-02  0 
 -4.208582e-02  -3.726620e-02  0 
 -3.792155e-02  -3.706099e-02  0 
 -3.319199e-02  -3.696603e-02  0 
 -4.604858e-02  -4.151790e-02  0 
 -4.207857e-02  -4.149915e-02  0 
 -3.797584e-02  -4.150455e-02  0 
 -3.363276e-02  -4.150772e-02  0 
 -4.913211e-02  -4.558984e-02  0 
 -4.581703e-02  -4.551893e-02  0 
 -4.207553e-02  -4.554322e-02  0 
 -3.817292e-02  -4.556781e-02  0 
 -3.420667e-02  -4.551285e-02  0 
 -4.913262e-02  -4.908627e-02  0 
 -4.567610e-02  -4.919159e-02  0 
 -4.212463e-02  -4.929378e-02  0 
 -3.846609e-02  -4.932733e-02  0 
 -3.477964e-02  -4.925598e-02  0 
 -4.898756e-02  -5.263177e-02  0 
 -4.562202e-02  -5.271344e-02  0 
 -4.221483e-02  -5.281891e-02  0 
 -3.877452e-02  -5.287519e-02  0 
 -3.533434e-02  -5.281437e-02  0 
 -4.875145e-02  -5.582525e-02  0 
 -4.559845e-02  -5.604327e-02  0 
 -4.230759e-02  -5.619672e-02  0 
 -3.906496e-02  -5.625313e-02  0 
 -3.588438e-02  -5.619209e-02  0 
 -4.569338e-02  -5.951119e-02  0 
 -4.239481e-02  -5.949371e-02  0 
 -3.934403e-02  -5.942606e-02  0 
 -3.643273e-02  -5.934333e-02  0 
 -2.324622e-02  -3.494840e-02  0 
 -1.952325e-02  -3.320568e-02  0 
 -1.654695e-02  -3.169972e-02  0 
 -1.387308e-02  -3.012572e-02  0 
 -2.569322e-02  -4.017988e-02  0 
 -2.222815e-02  -3.857048e-02  0 
 -1.910283e-02  -3.684958e-02  0 
 -1.598510e-02  -3.516622e-02  0 
 -2.747372e-02  -4.464725e-02  0 
 -2.457146e-02  -4.340557e-02  0 
 -2.164435e-02  -4.184572e-02  0 
 -1.860919e-02  -4.015868e-02  0 
 -2.892221e-02  -4.864732e-02  0 
 -2.662602e-02  -4.767436e-02  0 
 -2.416065e-02  -4.629193e-02  0 
 -2.147955e-02  -4.466451e-02  0 
 -3.026769e-02  -5.222884e-02  0 
 -2.861256e-02  -5.132371e-02  0 
 -2.671922e-02  -5.008775e-02  0 
 -2.441698e-02  -4.860865e-02  0 
 -3.184888e-02  -5.533594e-02  0 
 -3.071331e-02  -5.413620e-02  0 
 -2.923291e-02  -5.323329e-02  0 
 -2.749843e-02  -5.205643e-02  0 
 -3.454330e-02  -5.746791e-02  0 
 -3.285371e-02  -5.651963e-02  0 
 -3.138840e-02  -5.536794e-02  0 
 -3.139568e-02  -5.416732e-02  0 
VECTORS displacement_ITER5 FLOAT
 -2.551066e-02  -2.989603e-02  0 
 -2.117340e-02  -1.950981e-02  0 
 -2.210578e-02  -2.202929e-02  0 
 -2.342315e-02  -2.497260e-02  0 
 -4.551748e-02  -3.315468e-02  0 
 -4.157338e-02  -3.277532e-02  0 
 -3.738521e-02  -3.218146e-02  0 
 -3.263890e-02  -3.120299e-02  0 
 -1.995672e-02  -2.854427e-02  0 
 -1.688554e-02  -2.744611e-02  0 
 -1.453655e-02  -2.669340e-02  0 
 -1.266558e-02  -2.619605e-02  0 
 -2.759062e-02  -3.639031e-02  0 
 -2.892360e-02  -4.091357e-02  0 
 -2.985593e-02  -4.493661e-02  0 
 -3.061582e-02  -4.872696e-02  0 
 -3.131307e-02  -5.236140e-02  0 
 -3.202903e-02  -5.585580e-02  0 
 -3.288253e-02  -5.917931e-02  0 
 -2.516857e-02  -1.992790e-02  0 
 -2.297756e-02  -1.943585e-02  0 
 -3.352438e-02  -2.398936e-02  0 
 -2.933883e-02  -2.297062e-02  0 
 -2.554146e-02  -2.222043e-02  0 
 -4.113151e-02  -2.986694e-02  0 
 -3.751981e-02  -2.871575e-02  0 
 -3.332723e-02  -2.750021e-02  0 
 -2.860529e-02  -2.614599e-02  0 
 -1.875786e-02  -1.936302e-02  0 
 -1.641061e-02  -1.947810e-02  0 
 -1.427192e-02  -1.975828e-02  0 
 -1.243629e-02  -2.004207e-02  0 
 -1.078206e-02  -2.028233e-02  0 
 -1.932529e-02  -2.186855e-02  0 
 -1.663262e-02  -2.194995e-02  0 
 -1.435282e-02  -2.208587e-02  0 
 -1.247292e-02  -2.222585e-02  0 
 -1.081808e-02  -2.236232e-02  0 
 -1.975096e-02  -2.477405e-02  0 
 -1.671043e-02  -2.466777e-02  0 
 -1.440601e-02  -2.445531e-02  0 
 -1.251705e-02  -2.431498e-02  0 
 -4.563553e-02  -3.709101e-02  0 
 -4.168548e-02  -3.690742e-02  0 
 -3.753975e-02  -3.668978e-02  0 
 -3.283757e-02  -3.659022e-02  0 
 -4.564799e-02  -4.113398e-02  0 
 -4.170154e-02  -4.109794e-02  0 
 -3.759922e-02  -4.110253e-02  0 
 -3.325732e-02  -4.110675e-02  0 
 -4.897143e-02  -4.512833e-02  0 
 -4.549714e-02  -4.510272e-02  0 
 -4.172156e-02  -4.513618e-02  0 
 -3.779155e-02  -4.516555e-02  0 
 -3.379824e-02  -4.511769e-02  0 
 -4.894796e-02  -4.874278e-02  0 
 -4.541329e-02  -4.883190e-02  0 
 -4.179262e-02  -4.892635e-02  0 
 -3.807794e-02  -4.896190e-02  0 
 -3.433456e-02  -4.889670e-02  0 
 -4.883195e-02  -5.231415e-02  0 
 -4.538880e-02  -5.241022e-02  0 
 -4.190106e-02  -5.252241e-02  0 
 -3.838377e-02  -5.258223e-02  0 
 -3.485465e-02  -5.252659e-02  0 
 -4.863794e-02  -5.558544e-02  0 
 -4.537289e-02  -5.581610e-02  0 
 -4.199900e-02  -5.597924e-02  0 
 -3.867052e-02  -5.605893e-02  0 
 -3.537674e-02  -5.602541e-02  0 
 -4.542890e-02  -5.930380e-02  0 
 -4.207298e-02  -5.933280e-02  0 
 -3.891842e-02  -5.935269e-02  0 
 -3.589402e-02  -5.933977e-02  0 
 -2.312327e-02  -3.469040e-02  0 
 -1.955855e-02  -3.308320e-02  0 
 -1.674129e-02  -3.173720e-02  0 
 -1.426173e-02  -3.036055e-02  0 
 -2.542584e-02  -3.988535e-02  0 
 -2.210173e-02  -3.842755e-02  0 
 -1.916856e-02  -3.689363e-02  0 
 -1.636635e-02  -3.541708e-02  0 
 -2.705553e-02  -4.432493e-02  0 
 -2.425477e-02  -4.320579e-02  0 
 -2.152488e-02  -4.179633e-02  0 
 -1.882268e-02  -4.028299e-02  0 
 -2.833345e-02  -4.830110e-02  0 
 -2.609185e-02  -4.740521e-02  0 
 -2.381538e-02  -4.613190e-02  0 
 -2.141923e-02  -4.463045e-02  0 
 -2.946917e-02  -5.186442e-02  0 
 -2.780709e-02  -5.097200e-02  0 
 -2.611019e-02  -4.980089e-02  0 
 -2.412020e-02  -4.839654e-02  0 
 -3.075844e-02  -5.495794e-02  0 
 -2.958230e-02  -5.366966e-02  0 
 -2.832122e-02  -5.270326e-02  0 
 -2.704722e-02  -5.153662e-02  0 
 -3.288608e-02  -5.692570e-02  0 
 -3.140283e-02  -5.586499e-02  0 
 -3.021143e-02  -5.443487e-02  0 
 -3.068895e-02  -5.302044e-02  0 
VECTORS displacement_ITER6 FLOAT
 -2.572011e-02  -2.878936e-02  0 
 -2.126478e-02  -1.869232e-02  0 
 -2.226009e-02  -2.104621e-02  0 
 -2.361217e-02  -2.391080e-02  0 
 -4.502083e-02  -3.227653e-02  0 
 -4.135324e-02  -3.180479e-02  0 
 -3.734571e-02  -3.114329e-02  0 
 -3.274039e-02  -3.012400e-02  0 
 -2.021608e-02  -2.741651e-02  0 
 -1.721325e-02  -2.631356e-02  0 
 -1.492185e-02  -2.556377e-02  0 
 -1.308309e-02  -2.506347e-02  0 
 -2.780927e-02  -3.517823e-02  0 
 -2.913066e-02  -3.957084e-02  0 
 -3.003374e-02  -4.347099e-02  0 
 -3.076288e-02  -4.715698e-02  0 
 -3.144269e-02  -5.070517e-02  0 
 -3.216310e-02  -5.412269e-02  0 
 -3.303926e-02  -5.734922e-02  0 
 -2.694068e-02  -1.859756e-02  0 
 -2.378701e-02  -1.828963e-02  0 
 -3.375927e-02  -2.370749e-02  0 
 -3.025421e-02  -2.230970e-02  0 
 -2.603373e-02  -2.145772e-02  0 
 -4.133033e-02  -2.861696e-02  0 
 -3.756954e-02  -2.773411e-02  0 
 -3.363389e-02  -2.667395e-02  0 
 -2.893089e-02  -2.531450e-02  0 
 -1.903313e-02  -1.849237e-02  0 
 -1.674359e-02  -1.855611e-02  0 
 -1.466279e-02  -1.880099e-02  0 
 -1.289566e-02  -1.905177e-02  0 
 -1.129639e-02  -1.930155e-02  0 
 -1.958441e-02  -2.088099e-02  0 
 -1.696873e-02  -2.095252e-02  0 
 -1.474064e-02  -2.106155e-02  0 
 -1.290421e-02  -2.119560e-02  0 
 -1.127207e-02  -2.134165e-02  0 
 -2.000778e-02  -2.370763e-02  0 
 -1.704033e-02  -2.359797e-02  0 
 -1.479009e-02  -2.337427e-02  0 
 -1.292807e-02  -2.320283e-02  0 
 -4.519263e-02  -3.591917e-02  0 
 -4.147933e-02  -3.571880e-02  0 
 -3.750806e-02  -3.548388e-02  0 
 -3.293706e-02  -3.537747e-02  0 
 -4.525531e-02  -3.974901e-02  0 
 -4.152011e-02  -3.970643e-02  0 
 -3.756104e-02  -3.973354e-02  0 
 -3.334249e-02  -3.975458e-02  0 
 -4.878353e-02  -4.347627e-02  0 
 -4.524439e-02  -4.352670e-02  0 
 -4.155624e-02  -4.360026e-02  0 
 -3.774146e-02  -4.366532e-02  0 
 -3.386302e-02  -4.363938e-02  0 
 -4.873886e-02  -4.709191e-02  0 
 -4.521308e-02  -4.719994e-02  0 
 -4.164091e-02  -4.731214e-02  0 
 -3.801914e-02  -4.736778e-02  0 
 -3.438205e-02  -4.731664e-02  0 
 -4.865979e-02  -5.062824e-02  0 
 -4.519884e-02  -5.074090e-02  0 
 -4.175447e-02  -5.085883e-02  0 
 -3.832572e-02  -5.091622e-02  0 
 -3.489512e-02  -5.086474e-02  0 
 -4.859206e-02  -5.404308e-02  0 
 -4.516623e-02  -5.413655e-02  0 
 -4.185572e-02  -5.424980e-02  0 
 -3.861710e-02  -5.432000e-02  0 
 -3.541907e-02  -5.428749e-02  0 
 -4.512759e-02  -5.741686e-02  0 
 -4.192167e-02  -5.749954e-02  0 
 -3.885428e-02  -5.752039e-02  0 
 -3.594721e-02  -5.752101e-02  0 
 -2.338460e-02  -3.351638e-02  0 
 -1.985173e-02  -3.201819e-02  0 
 -1.703910e-02  -3.089915e-02  0 
 -1.424710e-02  -3.003196e-02  0 
 -2.561351e-02  -3.864112e-02  0 
 -2.223670e-02  -3.738414e-02  0 
 -1.920443e-02  -3.622155e-02  0 
 -1.636184e-02  -3.520276e-02  0 
 -2.714060e-02  -4.300206e-02  0 
 -2.418544e-02  -4.210292e-02  0 
 -2.134014e-02  -4.100521e-02  0 
 -1.873818e-02  -3.983484e-02  0 
 -2.834485e-02  -4.692106e-02  0 
 -2.585637e-02  -4.621555e-02  0 
 -2.338138e-02  -4.514834e-02  0 
 -2.108737e-02  -4.386219e-02  0 
 -2.945462e-02  -5.051601e-02  0 
 -2.743446e-02  -4.985925e-02  0 
 -2.538327e-02  -4.879402e-02  0 
 -2.329465e-02  -4.741864e-02  0 
 -3.065682e-02  -5.384293e-02  0 
 -2.900105e-02  -5.307788e-02  0 
 -2.741962e-02  -5.203321e-02  0 
 -2.554212e-02  -5.073712e-02  0 
 -3.224532e-02  -5.724731e-02  0 
 -3.081005e-02  -5.580106e-02  0 
 -2.932985e-02  -5.460209e-02  0 
 -2.842757e-02  -5.341023e-02  0 
VECTORS displacement_ITER7 FLOAT
 -2.553428e-02  -2.791891e-02  0 
 -2.106969e-02  -1.793733e-02  0 
 -2.205825e-02  -2.023728e-02  0 
 -2.342145e-02  -2.305811e-02  0 
 -4.502298e-02  -3.146965e-02  0 
 -4.132216e-02  -3.098299e-02  0 
 -3.727237e-02  -3.030346e-02  0 
 -3.261475e-02  -2.927020e-02  0 
 -2.005905e-02  -2.653037e-02  0 
 -1.708733e-02  -2.542176e-02  0 
 -1.481601e-02  -2.466898e-02  0 
 -1.297218e-02  -2.415800e-02  0 
 -2.762171e-02  -3.438029e-02  0 
 -2.893719e-02  -3.883289e-02  0 
 -2.982758e-02  -4.279590e-02  0 
 -3.053963e-02  -4.655318e-02  0 
 -3.119971e-02  -5.018589e-02  0 
 -3.189975e-02  -5.370803e-02  0 
 -3.276657e-02  -5.707937e-02  0 
 -2.590081e-02  -1.935196e-02  0 
 -2.334019e-02  -1.844010e-02  0 
 -3.267596e-02  -2.426922e-02  0 
 -2.963895e-02  -2.238542e-02  0 
 -2.579968e-02  -2.102132e-02  0 
 -4.064858e-02  -2.857414e-02  0 
 -3.718510e-02  -2.734689e-02  0 
 -3.339402e-02  -2.612176e-02  0 
 -2.879646e-02  -2.460659e-02  0 
 -1.885953e-02  -1.772211e-02  0 
 -1.661018e-02  -1.775147e-02  0 
 -1.455581e-02  -1.795732e-02  0 
 -1.279815e-02  -1.819088e-02  0 
 -1.122033e-02  -1.844160e-02  0 
 -1.942454e-02  -2.006013e-02  0 
 -1.684006e-02  -2.011185e-02  0 
 -1.463295e-02  -2.020169e-02  0 
 -1.281105e-02  -2.031320e-02  0 
 -1.121053e-02  -2.044431e-02  0 
 -1.984935e-02  -2.285046e-02  0 
 -1.691303e-02  -2.273065e-02  0 
 -1.468197e-02  -2.249174e-02  0 
 -1.283341e-02  -2.230730e-02  0 
 -4.520025e-02  -3.514116e-02  0 
 -4.145731e-02  -3.493192e-02  0 
 -3.743837e-02  -3.469020e-02  0 
 -3.281152e-02  -3.457922e-02  0 
 -4.528800e-02  -3.900701e-02  0 
 -4.150683e-02  -3.896281e-02  0 
 -3.749196e-02  -3.899086e-02  0 
 -3.321138e-02  -3.901391e-02  0 
 -4.893265e-02  -4.279142e-02  0 
 -4.530867e-02  -4.284382e-02  0 
 -4.155402e-02  -4.291570e-02  0 
 -3.767250e-02  -4.298340e-02  0 
 -3.372521e-02  -4.296043e-02  0 
 -4.889763e-02  -4.647594e-02  0 
 -4.530087e-02  -4.658736e-02  0 
 -4.165107e-02  -4.670201e-02  0 
 -3.795284e-02  -4.675916e-02  0 
 -3.423785e-02  -4.670916e-02  0 
 -4.884599e-02  -5.008248e-02  0 
 -4.529907e-02  -5.020798e-02  0 
 -4.177448e-02  -5.033382e-02  0 
 -3.826620e-02  -5.039324e-02  0 
 -3.474725e-02  -5.034204e-02  0 
 -4.881473e-02  -5.361662e-02  0 
 -4.527565e-02  -5.370083e-02  0 
 -4.188378e-02  -5.381053e-02  0 
 -3.856610e-02  -5.389120e-02  0 
 -3.527233e-02  -5.386911e-02  0 
 -4.521663e-02  -5.701927e-02  0 
 -4.194798e-02  -5.712613e-02  0 
 -3.879963e-02  -5.719054e-02  0 
 -3.580360e-02  -5.722655e-02  0 
 -2.321504e-02  -3.273473e-02  0 
 -1.968804e-02  -3.129697e-02  0 
 -1.686067e-02  -3.030509e-02  0 
 -1.390890e-02  -2.972282e-02  0 
 -2.538883e-02  -3.795362e-02  0 
 -2.196470e-02  -3.681724e-02  0 
 -1.885198e-02  -3.586862e-02  0 
 -1.593315e-02  -3.512895e-02  0 
 -2.683033e-02  -4.239902e-02  0 
 -2.376942e-02  -4.165066e-02  0 
 -2.082899e-02  -4.076164e-02  0 
 -1.818554e-02  -3.983470e-02  0 
 -2.793105e-02  -4.638948e-02  0 
 -2.528766e-02  -4.583326e-02  0 
 -2.271173e-02  -4.495676e-02  0 
 -2.037318e-02  -4.387484e-02  0 
 -2.892111e-02  -5.005122e-02  0 
 -2.668627e-02  -4.952445e-02  0 
 -2.453951e-02  -4.862001e-02  0 
 -2.245254e-02  -4.739740e-02  0 
 -2.994988e-02  -5.346504e-02  0 
 -2.803477e-02  -5.280994e-02  0 
 -2.641047e-02  -5.177975e-02  0 
 -2.460773e-02  -5.058008e-02  0 
 -3.112875e-02  -5.714979e-02  0 
 -2.973554e-02  -5.547219e-02  0 
 -2.822039e-02  -5.419277e-02  0 
 -2.724732e-02  -5.300237e-02  0 
VECTORS displacement_ITER8 FLOAT
 -2.515844e-02  -2.783841e-02  0 
 -2.064970e-02  -1.784584e-02  0 
 -2.163508e-02  -2.014659e-02  0 
 -2.301554e-02  -2.296122e-02  0 
 -4.470620e-02  -3.138180e-02  0 
 -4.097224e-02  -3.091294e-02  0 
 -3.692391e-02  -3.023796e-02  0 
 -3.226744e-02  -2.919883e-02  0 
 -1.965025e-02  -2.644088e-02  0 
 -1.667485e-02  -2.532481e-02  0 
 -1.440107e-02  -2.457016e-02  0 
 -1.254293e-02  -2.405691e-02  0 
 -2.727665e-02  -3.431203e-02  0 
 -2.861295e-02  -3.875609e-02  0 
 -2.951971e-02  -4.270295e-02  0 
 -3.024440e-02  -4.643853e-02  0 
 -3.091410e-02  -5.004535e-02  0 
 -3.162489e-02  -5.353660e-02  0 
 -3.251077e-02  -5.685328e-02  0 
 -2.637689e-02  -1.811557e-02  0 
 -2.333298e-02  -1.761914e-02  0 
 -3.304675e-02  -2.305185e-02  0 
 -2.965735e-02  -2.163839e-02  0 
 -2.552575e-02  -2.066614e-02  0 
 -4.084692e-02  -2.770396e-02  0 
 -3.708595e-02  -2.682287e-02  0 
 -3.313285e-02  -2.579591e-02  0 
 -2.842327e-02  -2.442340e-02  0 
 -1.842669e-02  -1.764354e-02  0 
 -1.618635e-02  -1.765701e-02  0 
 -1.413577e-02  -1.785411e-02  0 
 -1.236549e-02  -1.807829e-02  0 
 -1.080151e-02  -1.832306e-02  0 
 -1.900564e-02  -1.996470e-02  0 
 -1.642230e-02  -2.001150e-02  0 
 -1.421341e-02  -2.009565e-02  0 