# vtk DataFile Version 3.1
this is an vtk file created by FEMAC
ASCII
DATASET UNSTRUCTURED_GRID
POINTS 104 FLOAT
5.000000 3.000000 0.000000
5.000000 4.000000 0.000000
4.555556 3.000000 0.000000
4.666667 3.000000 0.000000
4.777778 3.000000 0.000000
4.888889 3.000000 0.000000
5.000000 2.666667 0.000000
5.000000 2.777778 0.000000
5.000000 2.888889 0.000000
4.555556 4.000000 0.000000
4.666667 4.000000 0.000000
4.777778 4.000000 0.000000
4.888889 4.000000 0.000000
5.000000 3.111111 0.000000
5.000000 3.222222 0.000000
5.000000 3.333333 0.000000
5.000000 3.444444 0.000000
5.000000 3.555556 0.000000
5.000000 3.666667 0.000000
5.000000 3.777778 0.000000
5.000000 3.888889 0.000000
5.000000 4.111111 0.000000
5.000000 4.222222 0.000000
5.111111 3.000000 0.000000
5.111111 4.000000 0.000000
5.222222 4.000000 0.000000
5.333333 4.000000 0.000000
4.555556 2.666667 0.000000
4.555556 2.777778 0.000000
4.555556 2.888889 0.000000
4.666667 2.666667 0.000000
4.666667 2.777778 0.000000
4.666667 2.888889 0.000000
4.777778 2.666667 0.000000
4.777778 2.777778 0.000000
4.777778 2.888889 0.000000
4.888889 2.666667 0.000000
4.888889 2.777778 0.000000
4.888889 2.888889 0.000000
4.444444 3.111111 0.000000
4.444444 3.222222 0.000000
4.444444 3.333333 0.000000
4.555556 3.111111 0.000000
4.555556 3.222222 0.000000
4.555556 3.333333 0.000000
4.555556 3.444444 0.000000
4.555556 3.555556 0.000000
4.555556 3.666667 0.000000
4.555556 3.777778 0.000000
4.555556 3.888889 0.000000
4.666667 3.111111 0.000000
4.666667 3.222222 0.000000
4.666667 3.333333 0.000000
4.666667 3.444444 0.000000
4.666667 3.555556 0.000000
4.666667 3.666667 0.000000
4.666667 3.777778 0.000000
4.666667 3.888889 0.000000
4.777778 3.111111 0.000000
4.777778 3.222222 0.000000
4.777778 3.333333 0.000000
4.777778 3.444444 0.000000
4.777778 3.555556 0.000000
4.777778 3.666667 0.000000
4.777778 3.777778 0.000000
4.777778 3.888889 0.000000
4.888889 3.111111 0.000000
4.888889 3.222222 0.000000
4.888889 3.333333 0.000000
4.888889 3.444444 0.000000
4.888889 3.555556 0.000000
4.888889 3.666667 0.000000
4.888889 3.777778 0.000000
4.888889 3.888889 0.000000
4.555556 4.111111 0.000000
4.555556 4.222222 0.000000
4.666667 4.111111 0.000000
4.666667 4.222222 0.000000
4.777778 4.111111 0.000000
4.777778 4.222222 0.000000
4.888889 4.111111 0.000000
4.888889 4.222222 0.000000
5.111111 3.111111 0.000000
5.111111 3.222222 0.000000
5.111111 3.333333 0.000000
5.111111 3.444444 0.000000
5.111111 3.555556 0.000000
5.111111 3.666667 0.000000
5.111111 3.777778 0.000000
5.111111 3.888889 0.000000
5.222222 3.333333 0.000000
5.222222 3.444444 0.000000
5.222222 3.555556 0.000000
5.222222 3.666667 0.000000
5.222222 3.777778 0.000000
5.222222 3.888889 0.000000
5.333333 3.333333 0.000000
5.333333 3.444444 0.000000
5.333333 3.555556 0.000000
5.333333 3.666667 0.000000
5.333333 3.777778 0.000000
5.333333 3.888889 0.000000
5.111111 4.111111 0.000000
5.111111 4.222222 0.000000
CELLS 81 405 
4 27 30 31 28
4 28 31 32 29
4 29 32  3  2
4 30 33 34 31
4 31 34 35 32
4 32 35  4  3
4 33 36 37 34
4 34 37 38 35
4 35 38  5  4
4 36  6  7 37
4 37  7  8 38
4 38  8  0  5
4 39 42 43 40
4 40 43 44 41
4 2  3 50 42
4 42 50 51 43
4 43 51 52 44
4 44 52 53 45
4 45 53 54 46
4 46 54 55 47
4 47 55 56 48
4 48 56 57 49
4 49 57 10  9
4 3  4 58 50
4 50 58 59 51
4 51 59 60 52
4 52 60 61 53
4 53 61 62 54
4 54 62 63 55
4 55 63 64 56
4 56 64 65 57
4 57 65 11 10
4 4  5 66 58
4 58 66 67 59
4 59 67 68 60
4 60 68 69 61
4 61 69 70 62
4 62 70 71 63
4 63 71 72 64
4 64 72 73 65
4 65 73 12 11
4 5  0 13 66
4 66 13 14 67
4 67 14 15 68
4 68 15 16 69
4 69 16 17 70
4 70 17 18 71
4 71 18 19 72
4 72 19 20 73
4 73 20  1 12
4 9 10 76 74
4 74 76 77 75
4 10 11 78 76
4 76 78 79 77
4 11 12 80 78
4 78 80 81 79
4 12  1 21 80
4 80 21 22 81
4 0 23 82 13
4 13 82 83 14
4 14 83 84 15
4 15 84 85 16
4 16 85 86 17
4 17 86 87 18
4 18 87 88 19
4 19 88 89 20
4 20 89 24  1
4 84 90 91 85
4 85 91 92 86
4 86 92 93 87
4 87 93 94 88
4 88 94 95 89
4 89 95 25 24
4 90 96 97 91
4 91 97 98 92
4 92 98 99 93
4 93  99 100  94
4 94 100 101  95
4 95 101  26  25
4 1  24 102  21
4 21 102 103  22
CELL_TYPES 81
9 9 9 9 9 9 9 9 9 9 9 9 9 9 9 9 9 9 9 9 9 9 9 9 9 9 9 9 9 9 9 9 9 9 9 9 9 9 9 9 9 9 9 9 9 9 9 9 9 9 9 9 9 9 9 9 9 9 9 9 9 9 9 9 9 9 9 9 9 9 9 9 9 9 9 9 9 9 9 9 9 
POINT_DATA 104
VECTORS displacement_ITER1 FLOAT
 9.536940e-03  -1.357021e-01  0 
 3.201692e-02  -1.365246e-01  0 
 9.480353e-03  -1.215903e-01  0 
 9.574067e-03  -1.249882e-01  0 
 9.633311e-03  -1.284188e-01  0 
 9.651833e-03  -1.319077e-01  0 
 -3.310225e-04  -1.350566e-01  0 
 2.911819e-03  -1.351391e-01  0 
 6.188424e-03  -1.353114e-01  0 
 3.229582e-02  -1.255880e-01  0 
 3.182811e-02  -1.278057e-01  0 
 3.166267e-02  -1.306648e-01  0 
 3.171302e-02  -1.336039e-01  0 
 1.141046e-02  -1.361588e-01  0 
 1.319501e-02  -1.363757e-01  0 
 1.542002e-02  -1.362619e-01  0 
 1.822909e-02  -1.361997e-01  0 
 2.121084e-02  -1.363040e-01  0 
 2.411584e-02  -1.364475e-01  0 
 2.691432e-02  -1.365557e-01  0 
 2.960832e-02  -1.366071e-01  0 
 3.453743e-02  -1.364156e-01  0 
 3.728083e-02  -1.364277e-01  0 
 9.362137e-03  -1.380915e-01  0 
 3.235628e-02  -1.393124e-01  0 
 3.250999e-02  -1.421628e-01  0 
 3.259975e-02  -1.450741e-01  0 
 -3.559401e-04  -1.215003e-01  0 
 2.849013e-03  -1.215519e-01  0 
 6.140650e-03  -1.215617e-01  0 
 -3.499866e-04  -1.249165e-01  0 
 2.900897e-03  -1.249430e-01  0 
 6.207402e-03  -1.249688e-01  0 
 -3.825520e-04  -1.283720e-01  0 
 2.902126e-03  -1.283909e-01  0 
 6.226565e-03  -1.284038e-01  0 
 -3.605081e-04  -1.317737e-01  0 
 2.891608e-03  -1.318136e-01  0 
 6.175304e-03  -1.318990e-01  0 
 8.431088e-03  -1.132748e-01  0 
 1.420865e-02  -1.150130e-01  0 
 1.992124e-02  -1.151008e-01  0 
 1.055797e-02  -1.211098e-01  0 
 1.439889e-02  -1.215551e-01  0 
 1.829644e-02  -1.224963e-01  0 
 1.868307e-02  -1.245399e-01  0 
 2.030287e-02  -1.251646e-01  0 
 2.246557e-02  -1.251298e-01  0 
 2.518015e-02  -1.249660e-01  0 
 2.847373e-02  -1.248869e-01  0 
 1.148501e-02  -1.255745e-01  0 
 1.439962e-02  -1.262625e-01  0 
 1.726835e-02  -1.265470e-01  0 
 1.929167e-02  -1.268919e-01  0 
 2.091358e-02  -1.276030e-01  0 
 2.308562e-02  -1.280140e-01  0 
 2.577960e-02  -1.282399e-01  0 
 2.891950e-02  -1.283418e-01  0 
 1.177632e-02  -1.292820e-01  0 
 1.422066e-02  -1.298493e-01  0 
 1.670299e-02  -1.300325e-01  0 
 1.906383e-02  -1.301173e-01  0 
 2.129496e-02  -1.303916e-01  0 
 2.363470e-02  -1.308217e-01  0 
 2.626236e-02  -1.311392e-01  0 
 2.898501e-02  -1.311138e-01  0 
 1.172304e-02  -1.327887e-01  0 
 1.386857e-02  -1.331862e-01  0 
 1.619449e-02  -1.332414e-01  0 
 1.869962e-02  -1.332232e-01  0 
 2.131642e-02  -1.333544e-01  0 
 2.396242e-02  -1.336201e-01  0 
 2.660033e-02  -1.338418e-01  0 
 2.919000e-02  -1.338701e-01  0 
 3.441101e-02  -1.250793e-01  0 
 3.699952e-02  -1.250584e-01  0 
 3.445211e-02  -1.278002e-01  0 
 3.714558e-02  -1.277657e-01  0 
 3.449480e-02  -1.306589e-01  0 
 3.730242e-02  -1.306872e-01  0 
 3.455334e-02  -1.336228e-01  0 
 3.730689e-02  -1.335946e-01  0 
 1.149539e-02  -1.380370e-01  0 
 1.328214e-02  -1.383075e-01  0 
 1.535198e-02  -1.388993e-01  0 
 1.828059e-02  -1.391296e-01  0 
 2.126229e-02  -1.392499e-01  0 
 2.414954e-02  -1.393144e-01  0 
 2.692859e-02  -1.393317e-01  0 
 2.961553e-02  -1.392915e-01  0 
 1.507616e-02  -1.422416e-01  0 
 1.833403e-02  -1.421915e-01  0 
 2.132556e-02  -1.422136e-01  0 
 2.417923e-02  -1.421931e-01  0 
 2.693482e-02  -1.421596e-01  0 
 2.968225e-02  -1.421438e-01  0 
 1.490383e-02  -1.456844e-01  0 
 1.829406e-02  -1.454384e-01  0 
 2.134889e-02  -1.451993e-01  0 
 2.419753e-02  -1.450492e-01  0 
 2.696954e-02  -1.449737e-01  0 
 2.971140e-02  -1.449974e-01  0 
 3.311846e-02  -1.409499e-01  0 
 3.670199e-02  -1.422719e-01  0 
VECTORS displacement_ITER2 FLOAT
 8.833684e-03  -1.255303e-01  0 
 3.284096e-02  -1.267138e-01  0 
 8.857799e-03  -1.101790e-01  0 
 8.948197e-03  -1.138909e-01  0 
 8.999731e-03  -1.176177e-01  0 
 9.005367e-03  -1.214105e-01  0 
 -1.841456e-03  -1.248319e-01  0 
 1.687153e-03  -1.249056e-01  0 
 5.246734e-03  -1.251007e-01  0 
 3.233251e-02  -1.132079e-01  0 
 3.229514e-02  -1.165421e-01  0 
 3.235153e-02  -1.199968e-01  0 
 3.250956e-02  -1.234047e-01  0 
 1.144046e-02  -1.260077e-01  0 
 1.398080e-02  -1.262611e-01  0 
 1.664157e-02  -1.263317e-01  0 
 1.948647e-02  -1.264055e-01  0 
 2.234417e-02  -1.265203e-01  0 
 2.513578e-02  -1.266316e-01  0 
 2.785460e-02  -1.267134e-01  0 
 3.049017e-02  -1.267624e-01  0 
 3.579609e-02  -1.266406e-01  0 
 3.898359e-02  -1.266256e-01  0 
 8.560620e-03  -1.287572e-01  0 
 3.317525e-02  -1.294022e-01  0 
 3.332860e-02  -1.321757e-01  0 
 3.342285e-02  -1.350114e-01  0 
 -1.782909e-03  -1.101733e-01  0 
 1.663911e-03  -1.102046e-01  0 
 5.225630e-03  -1.101757e-01  0 
 -1.807647e-03  -1.138249e-01  0 
 1.695534e-03  -1.138482e-01  0 
 5.280597e-03  -1.138717e-01  0 
 -1.878646e-03  -1.175413e-01  0 
 1.684486e-03  -1.175754e-01  0 
 5.294717e-03  -1.176003e-01  0 
 -1.879511e-03  -1.212346e-01  0 
 1.671179e-03  -1.212941e-01  0 
 5.229704e-03  -1.213992e-01  0 
 8.552336e-03  -1.026585e-01  0 
 1.469787e-02  -1.046022e-01  0 
 2.065188e-02  -1.052859e-01  0 
 1.060273e-02  -1.101050e-01  0 
 1.489076e-02  -1.110082e-01  0 
 1.915413e-02  -1.120913e-01  0 
 2.013165e-02  -1.142811e-01  0 
 2.179261e-02  -1.150878e-01  0 
 2.365600e-02  -1.151694e-01  0 
 2.586588e-02  -1.148067e-01  0 
 2.859507e-02  -1.140324e-01  0 
 1.151338e-02  -1.147576e-01  0 
 1.489288e-02  -1.156993e-01  0 
 1.813555e-02  -1.162367e-01  0 
 2.046102e-02  -1.167019e-01  0 
 2.216193e-02  -1.173944e-01  0 
 2.410860e-02  -1.176967e-01  0 
 2.638106e-02  -1.176688e-01  0 
 2.913811e-02  -1.173703e-01  0 
 1.179483e-02  -1.186529e-01  0 
 1.473744e-02  -1.194138e-01  0 
 1.757041e-02  -1.197837e-01  0 
 2.012533e-02  -1.199722e-01  0 
 2.237491e-02  -1.202154e-01  0 
 2.454824e-02  -1.205092e-01  0 
 2.691030e-02  -1.206628e-01  0 
 2.950275e-02  -1.205365e-01  0 
 1.175882e-02  -1.223638e-01  0 
 1.446021e-02  -1.228917e-01  0 
 1.714219e-02  -1.231201e-01  0 
 1.979050e-02  -1.232160e-01  0 
 2.237373e-02  -1.233368e-01  0 
 2.488934e-02  -1.235155e-01  0 
 2.739168e-02  -1.236718e-01  0 
 2.991401e-02  -1.236923e-01  0 
 3.573583e-02  -1.130108e-01  0 
 3.907840e-02  -1.130638e-01  0 
 3.571096e-02  -1.165374e-01  0 
 3.912441e-02  -1.164827e-01  0 
 3.574346e-02  -1.200084e-01  0 
 3.912491e-02  -1.200002e-01  0 
 3.580786e-02  -1.234264e-01  0 
 3.903418e-02  -1.233830e-01  0 
 1.150617e-02  -1.286680e-01  0 
 1.403465e-02  -1.288458e-01  0 
 1.663720e-02  -1.291546e-01  0 
 1.952181e-02  -1.292777e-01  0 
 2.237858e-02  -1.293561e-01  0 
 2.515957e-02  -1.294046e-01  0 
 2.786672e-02  -1.294177e-01  0 
 3.049944e-02  -1.293816e-01  0 
 1.653171e-02  -1.322382e-01  0 
 1.954451e-02  -1.322076e-01  0 
 2.241004e-02  -1.322089e-01  0 
 2.517621e-02  -1.321939e-01  0 
 2.787075e-02  -1.321705e-01  0 
 3.056551e-02  -1.321586e-01  0 
 1.645245e-02  -1.353528e-01  0 
 1.952437e-02  -1.352155e-01  0 
 2.241981e-02  -1.350728e-01  0 
 2.518898e-02  -1.349737e-01  0 
 2.790037e-02  -1.349316e-01  0 
 3.059809e-02  -1.349533e-01  0 
 3.483564e-02  -1.305198e-01  0 
 3.767007e-02  -1.310269e-01  0 
VECTORS displacement_ITER3 FLOAT
 8.630748e-03  -1.176408e-01  0 
 3.404595e-02  -1.186883e-01  0 
 8.952165e-03  -1.052101e-01  0 
 9.005742e-03  -1.082455e-01  0 
 8.996539e-03  -1.112618e-01  0 
 8.928645e-03  -1.143237e-01  0 
 2.668330e-04  -1.170253e-01  0 
 3.115331e-03  -1.170785e-01  0 
 5.928789e-03  -1.172356e-01  0 
 3.345319e-02  -1.066747e-01  0 
 3.353643e-02  -1.097079e-01  0 
 3.361954e-02  -1.127072e-01  0 
 3.374981e-02  -1.156810e-01  0 
 1.187520e-02  -1.181036e-01  0 
 1.507742e-02  -1.183855e-01  0 
 1.806650e-02  -1.186040e-01  0 
 2.088947e-02  -1.187589e-01  0 
 2.362026e-02  -1.188434e-01  0 
 2.631845e-02  -1.188836e-01  0 
 2.899152e-02  -1.188890e-01  0 
 3.162081e-02  -1.188583e-01  0 
 3.663488e-02  -1.184954e-01  0 
 3.940834e-02  -1.184093e-01  0 
 8.217018e-03  -1.216069e-01  0 
 3.435160e-02  -1.215246e-01  0 
 3.450828e-02  -1.243276e-01  0 
 3.464678e-02  -1.271936e-01  0 
 2.790901e-04  -1.051904e-01  0 
 3.054861e-03  -1.051965e-01  0 
 5.952649e-03  -1.051793e-01  0 
 2.901209e-04  -1.081584e-01  0 
 3.096008e-03  -1.081886e-01  0 
 6.004892e-03  -1.082192e-01  0 
 2.560250e-04  -1.111679e-01  0 
 3.094357e-03  -1.112148e-01  0 
 5.996855e-03  -1.112516e-01  0 
 2.561435e-04  -1.141333e-01  0 
 3.091945e-03  -1.141990e-01  0 
 5.909788e-03  -1.143217e-01  0 
 1.404457e-02  -1.113048e-01  0 
 1.303318e-02  -1.104059e-01  0 
 1.273951e-02  -1.102286e-01  0 
 1.261529e-02  -1.088322e-01  0 
 1.323113e-02  -1.097027e-01  0 
 1.433875e-02  -1.098601e-01  0 
 1.807665e-02  -1.088816e-01  0 
 2.141374e-02  -1.088036e-01  0 
 2.451846e-02  -1.085765e-01  0 
 2.747556e-02  -1.082524e-01  0 
 3.036346e-02  -1.076003e-01  0 
 1.204753e-02  -1.097141e-01  0 
 1.383165e-02  -1.106958e-01  0 
 1.577001e-02  -1.114985e-01  0 
 1.853031e-02  -1.119235e-01  0 
 2.174560e-02  -1.117658e-01  0 
 2.476771e-02  -1.115328e-01  0 
 2.767225e-02  -1.111369e-01  0 
 3.055784e-02  -1.105537e-01  0 
 1.191966e-02  -1.121568e-01  0 
 1.441157e-02  -1.129008e-01  0 
 1.682272e-02  -1.136504e-01  0 
 1.941950e-02  -1.141953e-01  0 
 2.224003e-02  -1.143781e-01  0 
 2.512407e-02  -1.142460e-01  0 
 2.794030e-02  -1.139484e-01  0 
 3.074957e-02  -1.134589e-01  0 
 1.193402e-02  -1.150000e-01  0 
 1.481749e-02  -1.155494e-01  0 
 1.755825e-02  -1.160585e-01  0 
 2.023517e-02  -1.164666e-01  0 
 2.292720e-02  -1.166838e-01  0 
 2.564815e-02  -1.166946e-01  0 
 2.836104e-02  -1.165473e-01  0 
 3.103722e-02  -1.162595e-01  0 
 3.659269e-02  -1.066109e-01  0 
 3.956126e-02  -1.066240e-01  0 
 3.654997e-02  -1.096987e-01  0 
 3.953299e-02  -1.096411e-01  0 
 3.657760e-02  -1.127147e-01  0 
 3.950324e-02  -1.126911e-01  0 
 3.665236e-02  -1.156884e-01  0 
 3.943048e-02  -1.156098e-01  0 
 1.192618e-02  -1.214653e-01  0 
 1.510517e-02  -1.215067e-01  0 
 1.811034e-02  -1.215186e-01  0 
 2.090819e-02  -1.215383e-01  0 
 2.363813e-02  -1.215668e-01  0 
 2.632798e-02  -1.215798e-01  0 
 2.899399e-02  -1.215609e-01  0 
 3.162770e-02  -1.215013e-01  0 
 1.812490e-02  -1.243395e-01  0 
 2.090830e-02  -1.243268e-01  0 
 2.364710e-02  -1.243131e-01  0 
 2.633716e-02  -1.243024e-01  0 
 2.900488e-02  -1.242908e-01  0 
 3.171777e-02  -1.242951e-01  0 
 1.812170e-02  -1.271593e-01  0 
 2.090796e-02  -1.271158e-01  0 
 2.365538e-02  -1.270609e-01  0 
 2.635532e-02  -1.270294e-01  0 
 2.905198e-02  -1.270483e-01  0 
 3.177543e-02  -1.271135e-01  0 
 3.603644e-02  -1.219721e-01  0 
 3.895156e-02  -1.223189e-01  0 
VECTORS displacement_ITER4 FLOAT
 7.927007e-03  -1.148484e-01  0 
 2.990656e-02  -1.154390e-01  0 
 8.346322e-03  -1.009434e-01  0 
 8.367690e-03  -1.043616e-01  0 
 8.344916e-03  -1.077834e-01  0 
 8.250310e-03  -1.112331e-01  0 
 -1.523987e-03  -1.143469e-01  0 
 1.679625e-03  -1.144029e-01  0 
 4.894550e-03  -1.145185e-01  0 
 2.942524e-02  -1.044499e-01  0 
 2.942099e-02  -1.071389e-01  0 
 2.947550e-02  -1.098928e-01  0 
 2.959992e-02  -1.126402e-01  0 
 1.045951e-02  -1.152364e-01  0 
 1.304930e-02  -1.154267e-01  0 
 1.557988e-02  -1.155449e-01  0 
 1.806554e-02  -1.156270e-01  0 
 2.051331e-02  -1.156717e-01  0 
 2.294423e-02  -1.156865e-01  0 
 2.535829e-02  -1.156753e-01  0 
 2.773198e-02  -1.156325e-01  0 
 3.225797e-02  -1.152313e-01  0 
 3.480721e-02  -1.151606e-01  0 
 7.552675e-03  -1.180278e-01  0 
 3.021896e-02  -1.180595e-01  0 
 3.038423e-02  -1.206214e-01  0 
 3.053319e-02  -1.232520e-01  0 
 -1.617735e-03  -1.008414e-01  0 
 1.642411e-03  -1.009025e-01  0 
 4.963297e-03  -1.009231e-01  0 
 -1.581874e-03  -1.042971e-01  0 
 1.679551e-03  -1.043302e-01  0 
 4.992273e-03  -1.043529e-01  0 
 -1.576684e-03  -1.077385e-01  0 
 1.671440e-03  -1.077680e-01  0 
 4.963677e-03  -1.077854e-01  0 
 -1.548017e-03  -1.110940e-01  0 
 1.667191e-03  -1.111364e-01  0 
 4.873465e-03  -1.112368e-01  0 
 8.782466e-03  -9.741994e-02  0 
 1.209993e-02  -9.811789e-02  0 
 1.504596e-02  -9.880456e-02  0 
 9.722187e-03  -1.016972e-01  0 
 1.241143e-02  -1.023801e-01  0 
 1.512805e-02  -1.030316e-01  0 
 1.723654e-02  -1.041032e-01  0 
 1.952459e-02  -1.046923e-01  0 
 2.193397e-02  -1.049199e-01  0 
 2.435404e-02  -1.049741e-01  0 
 2.680519e-02  -1.047729e-01  0 
 1.041816e-02  -1.051334e-01  0 
 1.278144e-02  -1.059432e-01  0 
 1.532209e-02  -1.065468e-01  0 
 1.770757e-02  -1.070549e-01  0 
 1.994704e-02  -1.075272e-01  0 
 2.225463e-02  -1.077794e-01  0 
 2.461342e-02  -1.078014e-01  0 
 2.702205e-02  -1.076245e-01  0 
 1.066836e-02  -1.085211e-01  0 
 1.307107e-02  -1.091821e-01  0 
 1.550619e-02  -1.096962e-01  0 
 1.791401e-02  -1.100626e-01  0 
 2.024558e-02  -1.103377e-01  0 
 2.253858e-02  -1.105138e-01  0 
 2.484898e-02  -1.105319e-01  0 
 2.716544e-02  -1.103402e-01  0 
 1.068831e-02  -1.118632e-01  0 
 1.316322e-02  -1.123323e-01  0 
 1.561564e-02  -1.126794e-01  0 
 1.803546e-02  -1.129182e-01  0 
 2.041807e-02  -1.130715e-01  0 
 2.276348e-02  -1.131529e-01  0 
 2.508158e-02  -1.131459e-01  0 
 2.736591e-02  -1.130076e-01  0 
 3.213615e-02  -1.043562e-01  0 
 3.487425e-02  -1.043218e-01  0 
 3.214329e-02  -1.071405e-01  0 
 3.485753e-02  -1.071070e-01  0 
 3.218836e-02  -1.099053e-01  0 
 3.485650e-02  -1.098922e-01  0 
 3.227080e-02  -1.126513e-01  0 
 3.480984e-02  -1.125754e-01  0 
 1.049707e-02  -1.179318e-01  0 
 1.306525e-02  -1.180167e-01  0 
 1.560000e-02  -1.180764e-01  0 
 1.807544e-02  -1.181041e-01  0 
 2.051997e-02  -1.181232e-01  0 
 2.294345e-02  -1.181240e-01  0 
 2.535374e-02  -1.180953e-01  0 
 2.773690e-02  -1.180299e-01  0 
 1.559252e-02  -1.206029e-01  0 
 1.807614e-02  -1.205971e-01  0 
 2.052395e-02  -1.205929e-01  0 
 2.294549e-02  -1.205858e-01  0 
 2.536160e-02  -1.205756e-01  0 
 2.783293e-02  -1.205838e-01  0 
 1.557598e-02  -1.231369e-01  0 
 1.807175e-02  -1.230997e-01  0 
 2.052921e-02  -1.230659e-01  0 
 2.296044e-02  -1.230572e-01  0 
 2.540880e-02  -1.230912e-01  0 
 2.789810e-02  -1.231655e-01  0 
 3.212474e-02  -1.186502e-01  0 
 3.551607e-02  -1.192696e-01  0 
VECTORS displacement_ITER5 FLOAT
 6.319943e-03  -1.138106e-01  0 
 2.886911e-02  -1.141039e-01  0 
 6.761801e-03  -1.014772e-01  0 
 6.765528e-03  -1.045198e-01  0 
 6.729268e-03  -1.075583e-01  0 
 6.629948e-03  -1.106139e-01  0 
 -1.982756e-03  -1.133225e-01  0 
 8.263978e-04  -1.134010e-01  0 
 3.666333e-03  -1.135074e-01  0 
 2.865243e-02  -1.030332e-01  0 
 2.853582e-02  -1.055950e-01  0 
 2.852837e-02  -1.083776e-01  0 
 2.860525e-02  -1.111913e-01  0 
 8.925708e-03  -1.141705e-01  0 
 1.156627e-02  -1.143443e-01  0 
 1.411425e-02  -1.144497e-01  0 
 1.660238e-02  -1.145004e-01  0 
 1.907404e-02  -1.145016e-01  0 
 2.155814e-02  -1.144686e-01  0 
 2.405488e-02  -1.144119e-01  0 
 2.653971e-02  -1.143289e-01  0 
 3.134280e-02  -1.138778e-01  0 
 3.399482e-02  -1.138191e-01  0 
 5.984739e-03  -1.170107e-01  0 
 2.915189e-02  -1.168687e-01  0 
 2.929146e-02  -1.195420e-01  0 
 2.943696e-02  -1.222923e-01  0 
 -2.142966e-03  -1.013810e-01  0 
 7.700889e-04  -1.014347e-01  0 
 3.739254e-03  -1.014576e-01  0 
 -2.090136e-03  -1.044701e-01  0 
 8.132004e-04  -1.044995e-01  0 
 3.761730e-03  -1.045170e-01  0 
 -2.061466e-03  -1.075293e-01  0 
 8.113886e-04  -1.075530e-01  0 
 3.728960e-03  -1.075646e-01  0 
 -2.015187e-03  -1.104843e-01  0 
 8.112376e-04  -1.105241e-01  0 
 3.642804e-03  -1.106188e-01  0 
 7.740021e-03  -9.814438e-02  0 
 1.066728e-02  -9.849796e-02  0 
 1.328457e-02  -9.878418e-02  0 
 8.353057e-03  -1.019652e-01  0 
 1.089346e-02  -1.022278e-01  0 
 1.358589e-02  -1.024429e-01  0 
 1.615983e-02  -1.029016e-01  0 
 1.892870e-02  -1.032332e-01  0 
 2.171931e-02  -1.034377e-01  0 
 2.435575e-02  -1.035562e-01  0 
 2.674926e-02  -1.035033e-01  0 
 8.823582e-03  -1.050331e-01  0 
 1.117175e-02  -1.055437e-01  0 
 1.377727e-02  -1.059028e-01  0 
 1.643208e-02  -1.061990e-01  0 
 1.906922e-02  -1.064481e-01  0 
 2.169276e-02  -1.065437e-01  0 
 2.420288e-02  -1.064528e-01  0 
 2.647932e-02  -1.061282e-01  0 
 9.020434e-03  -1.081016e-01  0 
 1.144284e-02  -1.085934e-01  0 
 1.397241e-02  -1.089816e-01  0 
 1.655612e-02  -1.092355e-01  0 
 1.912059e-02  -1.093687e-01  0 
 2.162707e-02  -1.093667e-01  0 
 2.403975e-02  -1.091936e-01  0 
 2.633096e-02  -1.088536e-01  0 
 9.064762e-03  -1.111203e-01  0 
 1.158196e-02  -1.115199e-01  0 
 1.410271e-02  -1.118149e-01  0 
 1.661488e-02  -1.119909e-01  0 
 1.910886e-02  -1.120482e-01  0 
 2.156725e-02  -1.119965e-01  0 
 2.397792e-02  -1.118437e-01  0 
 2.633124e-02  -1.115915e-01  0 
 3.120388e-02  -1.028307e-01  0 
 3.397641e-02  -1.027639e-01  0 
 3.123384e-02  -1.056031e-01  0 
 3.395222e-02  -1.055835e-01  0 
 3.128309e-02  -1.083835e-01  0 
 3.397715e-02  -1.083782e-01  0 
 3.135656e-02  -1.111962e-01  0 
 3.397712e-02  -1.111192e-01  0 
 8.956217e-03  -1.169224e-01  0 
 1.157595e-02  -1.169704e-01  0 
 1.412942e-02  -1.169792e-01  0 
 1.660242e-02  -1.169897e-01  0 
 1.906860e-02  -1.169904e-01  0 
 2.154529e-02  -1.169717e-01  0 
 2.404040e-02  -1.169256e-01  0 
 2.653669e-02  -1.168488e-01  0 
 1.412818e-02  -1.194890e-01  0 
 1.659851e-02  -1.194943e-01  0 
 1.906471e-02  -1.194980e-01  0 
 2.154054e-02  -1.194993e-01  0 
 2.404454e-02  -1.194968e-01  0 
 2.662687e-02  -1.195100e-01  0 
 1.412278e-02  -1.220012e-01  0 
 1.659583e-02  -1.219973e-01  0 
 1.906868e-02  -1.220072e-01  0 
 2.155389e-02  -1.220418e-01  0 
 2.409066e-02  -1.221091e-01  0 
 2.669139e-02  -1.222024e-01  0 
 3.137581e-02  -1.176041e-01  0 
 3.522773e-02  -1.183994e-01  0 
VECTORS displacement_ITER6 FLOAT
 4.858273e-03  -1.133064e-01  0 
 2.814804e-02  -1.133252e-01  0 
 5.277734e-03  -9.975915e-02  0 
 5.267078e-03  -1.031314e-01  0 
 5.227262e-03  -1.064705e-01  0 
 5.136210e-03  -1.098208e-01  0 
 -4.413202e-03  -1.128572e-01  0 
 -1.279940e-03  -1.129218e-01  0 
 1.866308e-03  -1.130249e-01  0 
 2.778230e-02  -1.016444e-01  0 
 2.775139e-02  -1.044658e-01  0 
 2.778512e-02  -1.073837e-01  0 
 2.788076e-02  -1.103093e-01  0 
 7.229552e-03  -1.136082e-01  0 
 9.718206e-03  -1.137053e-01  0 
 1.227759e-02  -1.137244e-01  0 
 1.490805e-02  -1.137229e-01  0 
 1.757187e-02  -1.137083e-01  0 
 2.025409e-02  -1.136735e-01  0 
 2.294728e-02  -1.136227e-01  0 
 2.562394e-02  -1.135475e-01  0 
 3.072989e-02  -1.130978e-01  0 
 3.347306e-02  -1.130239e-01  0 
 4.569640e-03  -1.161976e-01  0 
 2.842395e-02  -1.162828e-01  0 
 2.856215e-02  -1.191419e-01  0 
 2.869571e-02  -1.220505e-01  0 
 -4.544633e-03  -9.970433e-02  0 
 -1.359205e-03  -9.974411e-02  0 
 1.912521e-03  -9.975162e-02  0 
 -4.507525e-03  -1.030717e-01  0 
 -1.310921e-03  -1.030969e-01  0 
 1.945472e-03  -1.031221e-01  0 
 -4.492920e-03  -1.064176e-01  0 
 -1.305533e-03  -1.064491e-01  0 
 1.923886e-03  -1.064706e-01  0 
 -4.450795e-03  -1.096842e-01  0 
 -1.299540e-03  -1.097311e-01  0 
 1.847730e-03  -1.098227e-01  0 
 9.227696e-03  -9.751083e-02  0 
 1.098173e-02  -9.779018e-02  0 
 1.270099e-02  -9.843828e-02  0 
 8.475200e-03  -1.002529e-01  0 
 1.077719e-02  -1.008760e-01  0 
 1.305554e-02  -1.012358e-01  0 
 1.531559e-02  -1.018538e-01  0 
 1.776743e-02  -1.021405e-01  0 
 2.032192e-02  -1.022876e-01  0 
 2.284569e-02  -1.022738e-01  0 
 2.533504e-02  -1.020877e-01  0 
 8.012392e-03  -1.038036e-01  0 
 1.059997e-02  -1.042011e-01  0 
 1.303363e-02  -1.046138e-01  0 
 1.544734e-02  -1.049452e-01  0 
 1.786731e-02  -1.052073e-01  0 
 2.035645e-02  -1.052971e-01  0 
 2.285476e-02  -1.052183e-01  0 
 2.532521e-02  -1.049548e-01  0 
 7.819667e-03  -1.071327e-01  0 
 1.038632e-02  -1.075395e-01  0 
 1.290347e-02  -1.078048e-01  0 
 1.538191e-02  -1.080091e-01  0 
 1.785924e-02  -1.081404e-01  0 
 2.034681e-02  -1.081759e-01  0 
 2.284248e-02  -1.080762e-01  0 
 2.532215e-02  -1.078186e-01  0 
 7.622513e-03  -1.104030e-01  0 
 1.012628e-02  -1.107001e-01  0 
 1.265264e-02  -1.108524e-01  0 
 1.519424e-02  -1.109355e-01  0 
 1.774701e-02  -1.109761e-01  0 
 2.030556e-02  -1.109612e-01  0 
 2.286013e-02  -1.108708e-01  0 
 2.539624e-02  -1.106776e-01  0 
 3.061063e-02  -1.015348e-01  0 
 3.353019e-02  -1.014887e-01  0 
 3.062690e-02  -1.044722e-01  0 
 3.349966e-02  -1.044560e-01  0 
 3.067172e-02  -1.073919e-01  0 
 3.349933e-02  -1.073773e-01  0 
 3.074378e-02  -1.103148e-01  0 
 3.348091e-02  -1.102312e-01  0 
 7.248564e-03  -1.161501e-01  0 
 9.722568e-03  -1.162557e-01  0 
 1.227680e-02  -1.163445e-01  0 
 1.490915e-02  -1.163847e-01  0 
 1.756483e-02  -1.163908e-01  0 
 2.024146e-02  -1.163731e-01  0 
 2.293557e-02  -1.163302e-01  0 
 2.562409e-02  -1.162590e-01  0 
 1.225727e-02  -1.190569e-01  0 
 1.491094e-02  -1.190718e-01  0 
 1.756172e-02  -1.190905e-01  0 
 2.023697e-02  -1.190980e-01  0 
 2.294442e-02  -1.190957e-01  0 
 2.571928e-02  -1.191089e-01  0 
 1.225025e-02  -1.217560e-01  0 
 1.490388e-02  -1.217706e-01  0 
 1.756573e-02  -1.218010e-01  0 
 2.025026e-02  -1.218500e-01  0 
 2.299163e-02  -1.219129e-01  0 
 2.578927e-02  -1.219827e-01  0 
 3.066762e-02  -1.163815e-01  0 
 3.354954e-02  -1.165130e-01  0 
VECTORS displacement_ITER7 FLOAT
 5.699373e-03  -1.126759e-01  0 
 2.862697e-02  -1.126921e-01  0 
 6.082339e-03  -9.962261e-02  0 
 6.075163e-03  -1.028538e-01  0 
 6.042527e-03  -1.060643e-01  0 
 5.959752e-03  -1.092915e-01  0 
 -3.240056e-03  -1.122251e-01  0 
 -2.140583e-04  -1.122748e-01  0 
 2.799454e-03  -1.123825e-01  0 
 2.811754e-02  -1.009271e-01  0 
 2.818222e-02  -1.038807e-01  0 
 2.825461e-02  -1.067911e-01  0 
 2.836163e-02  -1.096949e-01  0 
 8.048515e-03  -1.129715e-01  0 
 1.051985e-02  -1.130633e-01  0 
 1.305137e-02  -1.130920e-01  0 
 1.563320e-02  -1.130997e-01  0 
 1.824138e-02  -1.130867e-01  0 
 2.087008e-02  -1.130500e-01  0 
 2.351351e-02  -1.129963e-01  0 
 2.614454e-02  -1.129173e-01  0 
 3.119202e-02  -1.124577e-01  0 
 3.391125e-02  -1.123631e-01  0 
 5.423524e-03  -1.155328e-01  0 
 2.890074e-02  -1.156057e-01  0 
 2.903166e-02  -1.184201e-01  0 
 2.914619e-02  -1.212665e-01  0 
 -3.351630e-03  -9.955383e-02  0 
 -2.879945e-04  -9.959249e-02  0 
 2.854606e-03  -9.960829e-02  0 
 -3.313026e-03  -1.027972e-01  0 
 -2.417707e-04  -1.028214e-01  0 
 2.887705e-03  -1.028452e-01  0 
 -3.299693e-03  -1.060160e-01  0 
 -2.396528e-04  -1.060467e-01  0 
 2.865390e-03  -1.060656e-01  0 
 -3.268658e-03  -1.091618e-01  0 
 -2.362493e-04  -1.092075e-01  0 
 2.788384e-03  -1.092961e-01  0 
 8.832818e-03  -9.744567e-02  0 
 1.051700e-02  -9.774702e-02  0 
 1.190856e-02  -9.855506e-02  0 
 8.527746e-03  -1.001354e-01  0 
 1.061307e-02  -1.006950e-01  0 
 1.265924e-02  -1.009865e-01  0 
 1.522980e-02  -1.013230e-01  0 
 1.780236e-02  -1.014971e-01  0 
 2.044461e-02  -1.015777e-01  0 
 2.303043e-02  -1.015269e-01  0 
 2.556222e-02  -1.013180e-01  0 
 8.424893e-03  -1.034265e-01  0 
 1.071421e-02  -1.038263e-01  0 
 1.302607e-02  -1.042291e-01  0 
 1.547054e-02  -1.045256e-01  0 
 1.800682e-02  -1.046806e-01  0 
 2.057251e-02  -1.047027e-01  0 
 2.312952e-02  -1.045837e-01  0 
 2.566771e-02  -1.043209e-01  0 
 8.394243e-03  -1.066221e-01  0 
 1.077659e-02  -1.070198e-01  0 
 1.318765e-02  -1.073184e-01  0 
 1.563798e-02  -1.075364e-01  0 
 1.814134e-02  -1.076471e-01  0 
 2.067528e-02  -1.076407e-01  0 
 2.321424e-02  -1.075135e-01  0 
 2.574507e-02  -1.072430e-01  0 
 8.318006e-03  -1.098017e-01  0 
 1.073555e-02  -1.100968e-01  0 
 1.319469e-02  -1.102786e-01  0 
 1.569076e-02  -1.103910e-01  0 
 1.821934e-02  -1.104406e-01  0 
 2.077042e-02  -1.104171e-01  0 
 2.332669e-02  -1.103120e-01  0 
 2.586560e-02  -1.101009e-01  0 
 3.109331e-02  -1.009309e-01  0 
 3.401292e-02  -1.009024e-01  0 
 3.109418e-02  -1.038827e-01  0 
 3.397491e-02  -1.038660e-01  0 
 3.113314e-02  -1.068007e-01  0 
 3.395738e-02  -1.067769e-01  0 
 3.120743e-02  -1.096985e-01  0 
 3.392352e-02  -1.096101e-01  0 
 8.064416e-03  -1.154920e-01  0 
 1.052303e-02  -1.155957e-01  0 
 1.305825e-02  -1.156694e-01  0 
 1.563630e-02  -1.157088e-01  0 
 1.823527e-02  -1.157147e-01  0 
 2.085863e-02  -1.156975e-01  0 
 2.350274e-02  -1.156554e-01  0 
 2.614394e-02  -1.155843e-01  0 
 1.305429e-02  -1.183179e-01  0 
 1.563868e-02  -1.183391e-01  0 
 1.823204e-02  -1.183609e-01  0 
 2.085589e-02  -1.183718e-01  0 
 2.351417e-02  -1.183721e-01  0 
 2.623869e-02  -1.183873e-01  0 
 1.306068e-02  -1.209404e-01  0 
 1.563419e-02  -1.209752e-01  0 
 1.823754e-02  -1.210206e-01  0 
 2.087139e-02  -1.210773e-01  0 
 2.356319e-02  -1.211418e-01  0 
 2.630961e-02  -1.212085e-01  0 
 3.105658e-02  -1.158398e-01  0 
 3.391063e-02  -1.160237e-01  0 
VECTORS displacement_ITER8 FLOAT
 5.450790e-03  -1.121764e-01  0 
 2.824479e-02  -1.124372e-01  0 
 5.840555e-03  -9.918832e-02  0 
 5.840856e-03  -1.023923e-01  0 
 5.811069e-03  -1.055838e-01  0 
 5.726530e-03  -1.087973e-01  0 
 -3.428032e-03  -1.117109e-01  0 
 -4.096639e-04  -1.117568e-01  0 
 2.583836e-03  -1.118681e-01  0 
 2.775228e-02  -1.010133e-01  0 
 2.781093e-02  -1.038663e-01  0 
 2.787734e-02  -1.066894e-01  0 
 2.797873e-02  -1.095153e-01  0 
 7.903195e-03  -1.124875e-01  0 
 1.048743e-02  -1.125975e-01  0 
 1.308537e-02  -1.126727e-01  0 
 1.566524e-02  -1.127285e-01  0 
 1.822804e-02  -1.127511e-01  0 
 2.078862e-02  -1.127460e-01  0 
 2.334415e-02  -1.127184e-01  0 
 2.587292e-02  -1.126561e-01  0 
 3.073127e-02  -1.122058e-01  0 
 3.338547e-02  -1.121164e-01  0 
 5.153263e-03  -1.151624e-01  0 
 2.852030e-02  -1.152447e-01  0 
 2.864793e-02  -1.179565e-01  0 
 2.874109e-02  -1.206751e-01  0 
 -3.512559e-03  -9.911769e-02  0 
 -4.719896e-04  -9.915251e-02  0 
 2.645032e-03  -9.916997e-02  0 
 -3.475645e-03  -1.023354e-01  0 
 -4.303995e-04  -1.023603e-01  0 
 2.675844e-03  -1.023829e-01  0 
 -3.464885e-03  -1.055299e-01  0 
 -4.325887e-04  -1.055636e-01  0 
 2.651028e-03  -1.055844e-01  0 
 -3.445045e-03  -1.086560e-01  0 
 -4.310355e-04  -1.087053e-01  0 
 2.570685e-03  -1.088010e-01  0 
 8.384344e-03  -9.723584e-02  0 
 1.024687e-02  -9.757275e-02  0 
 1.189605e-02  -9.827599e-02  0 