# vtk DataFile Version 3.1
this is an vtk file created by FEMAC
ASCII
DATASET UNSTRUCTURED_GRID
POINTS 101 FLOAT
2.000000 4.000000 0.000000
1.444444 4.000000 0.000000
1.555556 4.000000 0.000000
1.666667 4.000000 0.000000
1.777778 4.000000 0.000000
1.888889 4.000000 0.000000
2.000000 3.333333 0.000000
2.000000 3.444444 0.000000
2.000000 3.555556 0.000000
2.000000 3.666667 0.000000
2.000000 3.777778 0.000000
2.000000 3.888889 0.000000
2.000000 4.111111 0.000000
2.111111 4.000000 0.000000
2.222222 4.000000 0.000000
2.333333 4.000000 0.000000
2.444444 4.000000 0.000000
2.555556 4.000000 0.000000
2.666667 4.000000 0.000000
2.777778 4.000000 0.000000
1.444444 3.333333 0.000000
1.444444 3.444444 0.000000
1.444444 3.555556 0.000000
1.444444 3.666667 0.000000
1.444444 3.777778 0.000000
1.444444 3.888889 0.000000
1.555556 3.333333 0.000000
1.555556 3.444444 0.000000
1.555556 3.555556 0.000000
1.555556 3.666667 0.000000
1.555556 3.777778 0.000000
1.555556 3.888889 0.000000
1.666667 3.333333 0.000000
1.666667 3.444444 0.000000
1.666667 3.555556 0.000000
1.666667 3.666667 0.000000
1.666667 3.777778 0.000000
1.666667 3.888889 0.000000
1.777778 3.333333 0.000000
1.777778 3.444444 0.000000
1.777778 3.555556 0.000000
1.777778 3.666667 0.000000
1.777778 3.777778 0.000000
1.777778 3.888889 0.000000
1.888889 3.333333 0.000000
1.888889 3.444444 0.000000
1.888889 3.555556 0.000000
1.888889 3.666667 0.000000
1.888889 3.777778 0.000000
1.888889 3.888889 0.000000
1.444444 4.111111 0.000000
1.555556 4.111111 0.000000
1.666667 4.111111 0.000000
1.777778 4.111111 0.000000
1.888889 4.111111 0.000000
2.111111 3.333333 0.000000
2.111111 3.444444 0.000000
2.111111 3.555556 0.000000
2.111111 3.666667 0.000000
2.111111 3.777778 0.000000
2.111111 3.888889 0.000000
2.222222 3.333333 0.000000
2.222222 3.444444 0.000000
2.222222 3.555556 0.000000
2.222222 3.666667 0.000000
2.222222 3.777778 0.000000
2.222222 3.888889 0.000000
2.333333 3.333333 0.000000
2.333333 3.444444 0.000000
2.333333 3.555556 0.000000
2.333333 3.666667 0.000000
2.333333 3.777778 0.000000
2.333333 3.888889 0.000000
2.444444 3.333333 0.000000
2.444444 3.444444 0.000000
2.444444 3.555556 0.000000
2.444444 3.666667 0.000000
2.444444 3.777778 0.000000
2.444444 3.888889 0.000000
2.555556 3.333333 0.000000
2.555556 3.444444 0.000000
2.555556 3.555556 0.000000
2.555556 3.666667 0.000000
2.555556 3.777778 0.000000
2.555556 3.888889 0.000000
2.666667 3.333333 0.000000
2.666667 3.444444 0.000000
2.666667 3.555556 0.000000
2.666667 3.666667 0.000000
2.666667 3.777778 0.000000
2.666667 3.888889 0.000000
2.777778 3.333333 0.000000
2.777778 3.444444 0.000000
2.777778 3.555556 0.000000
2.777778 3.666667 0.000000
2.777778 3.777778 0.000000
2.777778 3.888889 0.000000
2.111111 4.111111 0.000000
2.222222 4.111111 0.000000
2.333333 4.111111 0.000000
2.444444 4.111111 0.000000
CELLS 81 405 
4 20 26 27 21
4 21 27 28 22
4 22 28 29 23
4 23 29 30 24
4 24 30 31 25
4 25 31  2  1
4 26 32 33 27
4 27 33 34 28
4 28 34 35 29
4 29 35 36 30
4 30 36 37 31
4 31 37  3  2
4 32 38 39 33
4 33 39 40 34
4 34 40 41 35
4 35 41 42 36
4 36 42 43 37
4 37 43  4  3
4 38 44 45 39
4 39 45 46 40
4 40 46 47 41
4 41 47 48 42
4 42 48 49 43
4 43 49  5  4
4 44  6  7 45
4 45  7  8 46
4 46  8  9 47
4 47  9 10 48
4 48 10 11 49
4 49 11  0  5
4 1  2 51 50
4 2  3 52 51
4 3  4 53 52
4 4  5 54 53
4 5  0 12 54
4 6 55 56  7
4 7 56 57  8
4 8 57 58  9
4 9 58 59 10
4 10 59 60 11
4 11 60 13  0
4 55 61 62 56
4 56 62 63 57
4 57 63 64 58
4 58 64 65 59
4 59 65 66 60
4 60 66 14 13
4 61 67 68 62
4 62 68 69 63
4 63 69 70 64
4 64 70 71 65
4 65 71 72 66
4 66 72 15 14
4 67 73 74 68
4 68 74 75 69
4 69 75 76 70
4 70 76 77 71
4 71 77 78 72
4 72 78 16 15
4 73 79 80 74
4 74 80 81 75
4 75 81 82 76
4 76 82 83 77
4 77 83 84 78
4 78 84 17 16
4 79 85 86 80
4 80 86 87 81
4 81 87 88 82
4 82 88 89 83
4 83 89 90 84
4 84 90 18 17
4 85 91 92 86
4 86 92 93 87
4 87 93 94 88
4 88 94 95 89
4 89 95 96 90
4 90 96 19 18
4 0 13 97 12
4 13 14 98 97
4 14 15 99 98
4 15  16 100  99
CELL_TYPES 81
9 9 9 9 9 9 9 9 9 9 9 9 9 9 9 9 9 9 9 9 9 9 9 9 9 9 9 9 9 9 9 9 9 9 9 9 9 9 9 9 9 9 9 9 9 9 9 9 9 9 9 9 9 9 9 9 9 9 9 9 9 9 9 9 9 9 9 9 9 9 9 9 9 9 9 9 9 9 9 9 9 
POINT_DATA 101
VECTORS displacement_ITER1 FLOAT
 1.584419e-02  -3.752208e-02  0 
 1.220064e-02  -1.905345e-02  0 
 1.280722e-02  -2.169599e-02  0 
 1.335695e-02  -2.440301e-02  0 
 1.405027e-02  -2.736576e-02  0 
 1.500061e-02  -3.100808e-02  0 
 3.436820e-04  -3.005783e-02  0 
 1.668603e-03  -3.067791e-02  0 
 3.529742e-03  -3.134926e-02  0 
 5.691488e-03  -3.211747e-02  0 
 8.117570e-03  -3.315269e-02  0 
 1.105552e-02  -3.475192e-02  0 
 2.422196e-02  -4.018434e-02  0 
 1.683352e-02  -4.711353e-02  0 
 1.809277e-02  -5.226533e-02  0 
 1.880192e-02  -5.504300e-02  0 
 1.886928e-02  -5.726665e-02  0 
 1.879338e-02  -6.105206e-02  0 
 2.054513e-02  -6.396562e-02  0 
 1.990097e-02  -6.791663e-02  0 
 -6.243671e-04  -1.904308e-02  0 
 1.196154e-03  -1.919144e-02  0 
 3.198688e-03  -1.910247e-02  0 
 5.216926e-03  -1.908953e-02  0 
 7.398625e-03  -1.897993e-02  0 
 9.760492e-03  -1.892128e-02  0 
 -7.429118e-04  -2.167858e-02  0 
 1.275873e-03  -2.162944e-02  0 
 3.295892e-03  -2.167695e-02  0 
 5.405665e-03  -2.161636e-02  0 
 7.693823e-03  -2.156472e-02  0 
 1.018832e-02  -2.157609e-02  0 
 -7.565549e-04  -2.406519e-02  0 
 1.409875e-03  -2.429634e-02  0 
 3.356207e-03  -2.429920e-02  0 
 5.461174e-03  -2.429234e-02  0 
 7.871639e-03  -2.427037e-02  0 
 1.056321e-02  -2.428737e-02  0 
 -2.140081e-04  -2.697717e-02  0 
 1.502323e-03  -2.681935e-02  0 
 3.351907e-03  -2.684435e-02  0 
 5.443653e-03  -2.700858e-02  0 
 7.874963e-03  -2.718995e-02  0 
 1.081895e-02  -2.723514e-02  0 
 1.666596e-04  -2.883726e-02  0 
 1.534110e-03  -2.892238e-02  0 
 3.379107e-03  -2.919147e-02  0 
 5.489341e-03  -2.965392e-02  0 
 7.876272e-03  -3.025640e-02  0 
 1.080093e-02  -3.084232e-02  0 
 4.040257e-03  -3.066230e-02  0 
 1.103438e-02  -2.189352e-02  0 
 1.327818e-02  -2.449839e-02  0 
 1.508085e-02  -2.841953e-02  0 
 1.821221e-02  -3.264779e-02  0 
 -3.737895e-03  -4.143272e-02  0 
 2.287832e-03  -3.946313e-02  0 
 5.350676e-03  -3.959968e-02  0 
 8.005806e-03  -4.033375e-02  0 
 1.071287e-02  -4.161217e-02  0 
 1.376176e-02  -4.382865e-02  0 
 -3.012777e-03  -5.018922e-02  0 
 2.681924e-03  -4.876341e-02  0 
 6.903599e-03  -4.793818e-02  0 
 1.008078e-02  -4.807043e-02  0 
 1.302759e-02  -4.885043e-02  0 
 1.588736e-02  -5.024630e-02  0 
 -2.384476e-04  -5.707696e-02  0 
 4.380580e-03  -5.639373e-02  0 
 8.329688e-03  -5.555938e-02  0 
 1.159401e-02  -5.496179e-02  0 
 1.443161e-02  -5.477724e-02  0 
 1.700461e-02  -5.485504e-02  0 
 3.776858e-03  -6.250865e-02  0 
 7.111908e-03  -6.250274e-02  0 
 9.916821e-03  -6.176076e-02  0 
 1.244469e-02  -6.059097e-02  0 
 1.493421e-02  -5.949063e-02  0 
 1.713074e-02  -5.858930e-02  0 
 9.144413e-03  -6.658433e-02  0 
 1.057690e-02  -6.713437e-02  0 
 1.131837e-02  -6.617628e-02  0 
 1.270627e-02  -6.476888e-02  0 
 1.475614e-02  -6.328394e-02  0 
 1.709447e-02  -6.181027e-02  0 
 1.742596e-02  -6.868145e-02  0 
 1.379529e-02  -6.912351e-02  0 
 1.232122e-02  -6.842190e-02  0 
 1.263509e-02  -6.767408e-02  0 
 1.423666e-02  -6.658968e-02  0 
 1.688855e-02  -6.531892e-02  0 
 2.407187e-02  -6.625244e-02  0 
 1.629052e-02  -6.736340e-02  0 
 1.342056e-02  -6.888505e-02  0 
 1.263779e-02  -6.943558e-02  0 
 1.373182e-02  -6.985227e-02  0 
 1.678758e-02  -6.964593e-02  0 
 2.359667e-02  -4.712267e-02  0 
 2.179670e-02  -5.225018e-02  0 
 2.109176e-02  -5.515017e-02  0 
 2.095814e-02  -5.678881e-02  0 
VECTORS displacement_ITER2 FLOAT
 1.755926e-02  -3.596032e-02  0 
 1.446555e-02  -1.612648e-02  0 
 1.504263e-02  -1.916039e-02  0 
 1.553488e-02  -2.217023e-02  0 
 1.614429e-02  -2.539700e-02  0 
 1.695826e-02  -2.927194e-02  0 
 5.609324e-04  -2.910215e-02  0 
 2.563711e-03  -2.941497e-02  0 
 4.789138e-03  -2.987279e-02  0 
 7.190843e-03  -3.053058e-02  0 
 9.794741e-03  -3.152160e-02  0 
 1.285333e-02  -3.311127e-02  0 
 2.321824e-02  -3.878036e-02  0 
 1.826698e-02  -4.313008e-02  0 
 1.929083e-02  -4.600023e-02  0 
 1.984005e-02  -4.674231e-02  0 
 1.989688e-02  -4.691840e-02  0 
 2.010228e-02  -4.817555e-02  0 
 2.300683e-02  -5.481233e-02  0 
 2.503913e-02  -5.431273e-02  0 
 6.273538e-04  -1.647223e-02  0 
 2.319665e-03  -1.655493e-02  0 
 4.337471e-03  -1.645159e-02  0 
 6.582446e-03  -1.630588e-02  0 
 8.974690e-03  -1.613923e-02  0 
 1.162055e-02  -1.602833e-02  0 
 3.953086e-04  -1.907325e-02  0 
 2.363315e-03  -1.903255e-02  0 
 4.464051e-03  -1.910560e-02  0 
 6.752164e-03  -1.907189e-02  0 
 9.286846e-03  -1.901577e-02  0 
 1.207122e-02  -1.903450e-02  0 
 1.309378e-04  -2.160292e-02  0 
 2.423912e-03  -2.181843e-02  0 
 4.555710e-03  -2.190709e-02  0 
 6.857824e-03  -2.198012e-02  0 
 9.490886e-03  -2.201198e-02  0 
 1.244458e-02  -2.205410e-02  0 
 3.126373e-04  -2.473686e-02  0 
 2.460363e-03  -2.462657e-02  0 
 4.594406e-03  -2.472160e-02  0 
 6.901337e-03  -2.495319e-02  0 
 9.521310e-03  -2.519391e-02  0 
 1.266792e-02  -2.527218e-02  0 
 5.331610e-04  -2.713102e-02  0 
 2.460964e-03  -2.716511e-02  0 
 4.652189e-03  -2.740037e-02  0 
 6.987033e-03  -2.785114e-02  0 
 9.547090e-03  -2.847126e-02  0 
 1.259848e-02  -2.910765e-02  0 
 1.341497e-02  -2.602370e-02  0 
 1.703001e-02  -2.010961e-02  0 
 1.838356e-02  -2.275316e-02  0 
 1.961404e-02  -2.665265e-02  0 
 2.152099e-02  -3.116013e-02  0 
 1.494345e-03  -3.701636e-02  0 
 4.855809e-03  -3.617619e-02  0 
 7.285041e-03  -3.629823e-02  0 
 9.754098e-03  -3.687521e-02  0 
 1.242034e-02  -3.801714e-02  0 
 1.542680e-02  -4.008952e-02  0 
 4.280717e-03  -4.260606e-02  0 
 6.869280e-03  -4.224500e-02  0 
 9.477409e-03  -4.203951e-02  0 
 1.203697e-02  -4.231245e-02  0 
 1.473976e-02  -4.306344e-02  0 
 1.739589e-02  -4.431231e-02  0 
 7.512565e-03  -4.673740e-02  0 
 9.228450e-03  -4.692803e-02  0 
 1.138980e-02  -4.686082e-02  0 
 1.376050e-02  -4.676363e-02  0 
 1.622584e-02  -4.674945e-02  0 
 1.849590e-02  -4.678399e-02  0 
 1.081538e-02  -4.990969e-02  0 
 1.172960e-02  -5.056756e-02  0 
 1.306793e-02  -5.065147e-02  0 
 1.481886e-02  -5.022223e-02  0 
 1.683415e-02  -4.952712e-02  0 
 1.878818e-02  -4.848456e-02  0 
 1.432903e-02  -5.231249e-02  0 
 1.425471e-02  -5.333763e-02  0 
 1.433364e-02  -5.343645e-02  0 
 1.521399e-02  -5.288916e-02  0 
 1.686922e-02  -5.179857e-02  0 
 1.863756e-02  -5.049076e-02  0 
 1.892575e-02  -5.370381e-02  0 
 1.644851e-02  -5.473276e-02  0 
 1.522399e-02  -5.510247e-02  0 
 1.510367e-02  -5.503249e-02  0 
 1.639881e-02  -5.427334e-02  0 
 1.935904e-02  -5.315094e-02  0 
 2.175434e-02  -5.362146e-02  0 
 1.828530e-02  -5.438627e-02  0 
 1.605289e-02  -5.556073e-02  0 
 1.489386e-02  -5.640571e-02  0 
 1.579476e-02  -5.749260e-02  0 
 1.988324e-02  -5.810153e-02  0 
 2.261707e-02  -4.308498e-02  0 
 2.083782e-02  -4.595201e-02  0 
 2.014562e-02  -4.680669e-02  0 
 1.990538e-02  -4.652016e-02  0 
VECTORS displacement_ITER3 FLOAT
 1.664329e-02  -3.394647e-02  0 
 1.300085e-02  -1.760811e-02  0 
 1.367028e-02  -1.996981e-02  0 
 1.426135e-02  -2.235778e-02  0 
 1.494348e-02  -2.496490e-02  0 
 1.583243e-02  -2.817148e-02  0 
 2.094116e-03  -2.833271e-02  0 
 3.901470e-03  -2.838030e-02  0 
 5.724128e-03  -2.864579e-02  0 
 7.654650e-03  -2.916409e-02  0 
 9.773811e-03  -3.003022e-02  0 
 1.235621e-02  -3.145889e-02  0 
 2.272108e-02  -3.633674e-02  0 
 1.754252e-02  -4.123429e-02  0 
 1.862448e-02  -4.508069e-02  0 
 1.925834e-02  -4.741475e-02  0 
 1.943420e-02  -4.941639e-02  0 
 1.994719e-02  -5.159649e-02  0 
 2.118737e-02  -5.515532e-02  0 
 2.156269e-02  -5.662080e-02  0 
 2.611796e-03  -1.776091e-02  0 
 3.899740e-03  -1.779322e-02  0 
 5.436013e-03  -1.766888e-02  0 
 7.061496e-03  -1.761568e-02  0 
 8.858251e-03  -1.752771e-02  0 
 1.085289e-02  -1.749318e-02  0 
 2.423224e-03  -1.982086e-02  0 
 3.893908e-03  -1.977652e-02  0 
 5.504560e-03  -1.981013e-02  0 
 7.264300e-03  -1.978244e-02  0 
 9.209021e-03  -1.976767e-02  0 
 1.135922e-02  -1.981639e-02  0 
 2.140854e-03  -2.188359e-02  0 
 3.894199e-03  -2.200819e-02  0 
 5.562644e-03  -2.207592e-02  0 
 7.373368e-03  -2.213068e-02  0 
 9.452641e-03  -2.215692e-02  0 
 1.179651e-02  -2.221331e-02  0 
 2.116287e-03  -2.440345e-02  0 
 3.882182e-03  -2.431056e-02  0 
 5.587365e-03  -2.438803e-02  0 
 7.418689e-03  -2.457084e-02  0 
 9.524644e-03  -2.475471e-02  0 
 1.209572e-02  -2.481945e-02  0 
 2.195038e-03  -2.648573e-02  0 
 3.852295e-03  -2.645547e-02  0 
 5.629011e-03  -2.661337e-02  0 
 7.489004e-03  -2.696856e-02  0 
 9.557861e-03  -2.748188e-02  0 
 1.212008e-02  -2.800314e-02  0 
 1.259373e-02  -2.330536e-02  0 
 1.487244e-02  -2.131554e-02  0 
 1.615122e-02  -2.385709e-02  0 
 1.760551e-02  -2.708606e-02  0 
 1.979576e-02  -3.093134e-02  0 
 3.656195e-03  -3.294253e-02  0 
 5.485478e-03  -3.341494e-02  0 
 7.418160e-03  -3.404264e-02  0 
 9.511360e-03  -3.493985e-02  0 
 1.185568e-02  -3.627504e-02  0 
 1.464197e-02  -3.836289e-02  0 
 5.724878e-03  -3.695438e-02  0 
 7.379956e-03  -3.793372e-02  0 
 9.334172e-03  -3.892085e-02  0 
 1.150734e-02  -4.006144e-02  0 
 1.391623e-02  -4.147722e-02  0 
 1.645718e-02  -4.318135e-02  0 
 7.984391e-03  -4.056630e-02  0 
 9.514839e-03  -4.197941e-02  0 
 1.135529e-02  -4.325609e-02  0 
 1.339148e-02  -4.444529e-02  0 
 1.555327e-02  -4.559386e-02  0 
 1.763532e-02  -4.665525e-02  0 
 1.029885e-02  -4.402120e-02  0 
 1.177208e-02  -4.570900e-02  0 
 1.332222e-02  -4.706863e-02  0 
 1.498471e-02  -4.809981e-02  0 
 1.673523e-02  -4.889523e-02  0 
 1.837371e-02  -4.937957e-02  0 
 1.283738e-02  -4.745322e-02  0 
 1.404597e-02  -4.919504e-02  0 
 1.501715e-02  -5.033292e-02  0 
 1.623021e-02  -5.112880e-02  0 
 1.762586e-02  -5.167598e-02  0 
 1.891944e-02  -5.190765e-02  0 
 1.647867e-02  -5.034142e-02  0 
 1.599930e-02  -5.204853e-02  0 
 1.630274e-02  -5.295430e-02  0 
 1.720158e-02  -5.373309e-02  0 
 1.840879e-02  -5.423101e-02  0 
 1.972214e-02  -5.452093e-02  0 
 1.820447e-02  -5.358868e-02  0 
 1.731759e-02  -5.374447e-02  0 
 1.735307e-02  -5.512201e-02  0 
 1.806599e-02  -5.609662e-02  0 
 1.917313e-02  -5.685540e-02  0 
 2.076764e-02  -5.729439e-02  0 
 2.247838e-02  -4.132568e-02  0 
 2.155367e-02  -4.516568e-02  0 
 2.133481e-02  -4.750268e-02  0 
 2.141523e-02  -4.921272e-02  0 
VECTORS displacement_ITER4 FLOAT
 1.598005e-02  -3.252648e-02  0 
 1.176120e-02  -1.836825e-02  0 
 1.250961e-02  -2.025864e-02  0 
 1.319724e-02  -2.221704e-02  0 
 1.396576e-02  -2.441036e-02  0 
 1.495658e-02  -2.720349e-02  0 
 2.787975e-03  -2.764286e-02  0 
 4.592491e-03  -2.745269e-02  0 
 6.171295e-03  -2.755899e-02  0 
 7.781647e-03  -2.798453e-02  0 
 9.570053e-03  -2.879378e-02  0 
 1.184960e-02  -3.017367e-02  0 
 2.207705e-02  -3.475728e-02  0 
 1.708980e-02  -3.962731e-02  0 
 1.825990e-02  -4.364445e-02  0 
 1.897857e-02  -4.650229e-02  0 
 1.930096e-02  -4.919246e-02  0 
 1.905641e-02  -5.194262e-02  0 
 1.959612e-02  -5.438838e-02  0 
 2.020617e-02  -5.591229e-02  0 
 3.974929e-03  -1.854570e-02  0 
 4.876850e-03  -1.846658e-02  0 
 6.009748e-03  -1.828704e-02  0 
 7.172285e-03  -1.826515e-02  0 
 8.549199e-03  -1.822402e-02  0 
 1.009151e-02  -1.824441e-02  0 
 3.756334e-03  -2.012021e-02  0 
 4.796627e-03  -2.004892e-02  0 
 6.019549e-03  -2.003135e-02  0 
 7.398315e-03  -2.000241e-02  0 
 8.936908e-03  -2.001521e-02  0 
 1.065390e-02  -2.008530e-02  0 
 3.389632e-03  -2.181900e-02  0 
 4.706891e-03  -2.183769e-02  0 
 6.041652e-03  -2.190130e-02  0 
 7.512764e-03  -2.195670e-02  0 
 9.217355e-03  -2.198476e-02  0 
 1.115287e-02  -2.205121e-02  0 
 3.095831e-03  -2.380585e-02  0 
 4.631614e-03  -2.376744e-02  0 
 6.057890e-03  -2.386703e-02  0 
 7.565738e-03  -2.403927e-02  0 
 9.324119e-03  -2.419459e-02  0 
 1.152073e-02  -2.424944e-02  0 
 3.016205e-03  -2.571660e-02  0 
 4.579752e-03  -2.567634e-02  0 
 6.099154e-03  -2.580396e-02  0 
 7.634127e-03  -2.611113e-02  0 
 9.365910e-03  -2.657036e-02  0 
 1.161569e-02  -2.702826e-02  0 
 1.252895e-02  -1.978965e-02  0 
 1.356174e-02  -2.132186e-02  0 
 1.457789e-02  -2.370464e-02  0 
 1.614593e-02  -2.643227e-02  0 
 1.857538e-02  -2.987605e-02  0 
 4.767321e-03  -3.095256e-02  0 
 5.837853e-03  -3.177240e-02  0 
 7.462377e-03  -3.244097e-02  0 
 9.309064e-03  -3.336510e-02  0 
 1.145814e-02  -3.472821e-02  0 
 1.413343e-02  -3.681383e-02  0 
 6.645634e-03  -3.406395e-02  0 
 7.614346e-03  -3.545167e-02  0 
 9.154596e-03  -3.679200e-02  0 
 1.110449e-02  -3.820656e-02  0 
 1.339350e-02  -3.984622e-02  0 
 1.593066e-02  -4.170328e-02  0 
 8.415971e-03  -3.712997e-02  0 
 9.545260e-03  -3.890933e-02  0 
 1.112500e-02  -4.067926e-02  0 
 1.299476e-02  -4.241372e-02  0 
 1.503736e-02  -4.406538e-02  0 
 1.712903e-02  -4.548078e-02  0 
 9.992518e-03  -4.035703e-02  0 
 1.149994e-02  -4.233116e-02  0 
 1.317000e-02  -4.425246e-02  0 
 1.484357e-02  -4.600738e-02  0 
 1.644690e-02  -4.753772e-02  0 
 1.789422e-02  -4.869741e-02  0 
 1.137786e-02  -4.401430e-02  0 
 1.341288e-02  -4.592727e-02  0 
 1.510481e-02  -4.760506e-02  0 
 1.657906e-02  -4.907474e-02  0 
 1.777902e-02  -5.038544e-02  0 
 1.863873e-02  -5.141888e-02  0 
 1.307444e-02  -4.824819e-02  0 
 1.507772e-02  -4.970531e-02  0 
 1.672806e-02  -5.075257e-02  0 
 1.812778e-02  -5.173913e-02  0 
 1.916809e-02  -5.265753e-02  0 
 1.959119e-02  -5.359921e-02  0 
 1.338279e-02  -5.414232e-02  0 
 1.615955e-02  -5.332132e-02  0 
 1.796936e-02  -5.372809e-02  0 
 1.940918e-02  -5.414133e-02  0 
 2.051924e-02  -5.456287e-02  0 
 2.107810e-02  -5.499432e-02  0 
 2.201839e-02  -3.979958e-02  0 
 2.158118e-02  -4.380541e-02  0 
 2.168674e-02  -4.661134e-02  0 
 2.200555e-02  -4.909931e-02  0 
VECTORS displacement_ITER5 FLOAT
 1.651091e-02  -3.208893e-02  0 
 1.224347e-02  -1.761612e-02  0 
 1.297521e-02  -1.954358e-02  0 
 1.367011e-02  -2.155663e-02  0 
 1.444699e-02  -2.381031e-02  0 
 1.545199e-02  -2.667107e-02  0 
 2.898829e-03  -2.710508e-02  0 
 4.738816e-03  -2.694819e-02  0 
 6.378869e-03  -2.707204e-02  0 
 8.052245e-03  -2.751022e-02  0 
 9.909508e-03  -2.832917e-02  0 
 1.226600e-02  -2.972060e-02  0 
 2.228954e-02  -3.436908e-02  0 
 1.764089e-02  -3.887017e-02  0 
 1.878729e-02  -4.260416e-02  0 
 1.951874e-02  -4.526625e-02  0 
 1.997647e-02  -4.765068e-02  0 
 2.017348e-02  -4.987993e-02  0 
 2.046713e-02  -5.234816e-02  0 
 2.098823e-02  -5.439586e-02  0 
 4.118081e-03  -1.787046e-02  0 
 5.128744e-03  -1.775105e-02  0 
 6.278137e-03  -1.756975e-02  0 
 7.478864e-03  -1.750159e-02  0 
 8.905725e-03  -1.745356e-02  0 
 1.050534e-02  -1.748482e-02  0 
 3.919911e-03  -1.954735e-02  0 
 5.006486e-03  -1.941837e-02  0 
 6.269699e-03  -1.935024e-02  0 
 7.693592e-03  -1.930311e-02  0 
 9.293066e-03  -1.930644e-02  0 
 1.107082e-02  -1.937549e-02  0 
 3.548785e-03  -2.128175e-02  0 
 4.876290e-03  -2.123673e-02  0 
 6.265234e-03  -2.127036e-02  0 
 7.798561e-03  -2.131067e-02  0 
 9.567288e-03  -2.133184e-02  0 
 1.156569e-02  -2.139259e-02  0 
 3.204357e-03  -2.321004e-02  0 
 4.779807e-03  -2.318110e-02  0 
 6.267011e-03  -2.328073e-02  0 
 7.841179e-03  -2.344849e-02  0 
 9.668253e-03  -2.359870e-02  0 
 1.193425e-02  -2.364983e-02  0 
 3.091204e-03  -2.514308e-02  0 
 4.727509e-03  -2.512386e-02  0 
 6.304669e-03  -2.526396e-02  0 
 7.904605e-03  -2.557715e-02  0 
 9.705674e-03  -2.603829e-02  0 
 1.203200e-02  -2.649458e-02  0 
 1.269907e-02  -1.743841e-02  0 
 1.423935e-02  -2.036694e-02  0 
 1.541084e-02  -2.292373e-02  0 
 1.686874e-02  -2.558576e-02  0 
 1.911309e-02  -2.903377e-02  0 
 4.594475e-03  -3.012034e-02  0 
 5.750654e-03  -3.095834e-02  0 
 7.491053e-03  -3.161572e-02  0 
 9.452853e-03  -3.252915e-02  0 
 1.171533e-02  -3.390165e-02  0 
 1.451754e-02  -3.601693e-02  0 
 6.038091e-03  -3.317632e-02  0 
 7.232534e-03  -3.445556e-02  0 
 8.958220e-03  -3.571051e-02  0 
 1.109775e-02  -3.706240e-02  0 
 1.357631e-02  -3.869780e-02  0 
 1.628809e-02  -4.061140e-02  0 
 7.304949e-03  -3.632697e-02  0 
 8.766860e-03  -3.785067e-02  0 
 1.061856e-02  -3.941934e-02  0 
 1.278685e-02  -4.102461e-02  0 
 1.515608e-02  -4.263136e-02  0 
 1.751091e-02  -4.410735e-02  0 
 8.371929e-03  -3.964493e-02  0 
 1.021461e-02  -4.123098e-02  0 
 1.225060e-02  -4.286187e-02  0 
 1.438507e-02  -4.447409e-02  0 
 1.647614e-02  -4.592789e-02  0 
 1.838330e-02  -4.703243e-02  0 
 9.215402e-03  -4.322622e-02  0 
 1.148348e-02  -4.465437e-02  0 
 1.375277e-02  -4.614930e-02  0 
 1.587764e-02  -4.755648e-02  0 
 1.768852e-02  -4.878742e-02  0 
 1.911393e-02  -4.965719e-02  0 
 1.004979e-02  -4.672190e-02  0 
 1.257979e-02  -4.823876e-02  0 
 1.507749e-02  -4.943172e-02  0 
 1.724888e-02  -5.043685e-02  0 
 1.895685e-02  -5.127054e-02  0 
 1.996359e-02  -5.201026e-02  0 
 9.780782e-03  -5.188381e-02  0 
 1.349237e-02  -5.214806e-02  0 
 1.614975e-02  -5.286131e-02  0 
 1.841911e-02  -5.326288e-02  0 
 2.022524e-02  -5.356741e-02  0 
 2.132502e-02  -5.375247e-02  0 
 2.225303e-02  -3.903104e-02  0 
 2.187568e-02  -4.276313e-02  0 
 2.200275e-02  -4.535887e-02  0 
 2.228227e-02  -4.765715e-02  0 
VECTORS displacement_ITER6 FLOAT
 1.715274e-02  -3.118654e-02  0 
 1.307367e-02  -1.665694e-02  0 
 1.375232e-02  -1.857996e-02  0 
 1.441129e-02  -2.061664e-02  0 
 1.515796e-02  -2.289605e-02  0 
 1.613344e-02  -2.577203e-02  0 
 3.673009e-03  -2.600800e-02  0 
 5.438507e-03  -2.592974e-02  0 
 7.043464e-03  -2.611709e-02  0 
 8.713255e-03  -2.659505e-02  0 
 1.058107e-02  -2.742898e-02  0 
 1.294270e-02  -2.881825e-02  0 
 2.242398e-02  -3.349895e-02  0 
 1.820636e-02  -3.758200e-02  0 
 1.925159e-02  -4.120333e-02  0 
 1.993016e-02  -4.403537e-02  0 
 2.041014e-02  -4.666619e-02  0 
 2.120076e-02  -4.926346e-02  0 
 2.142011e-02  -5.058447e-02  0 
 2.066207e-02  -5.418245e-02  0 
 4.659114e-03  -1.695660e-02  0 
 5.752879e-03  -1.679730e-02  0 
 6.924126e-03  -1.662411e-02  0 
 8.174684e-03  -1.649054e-02  0 
 9.644693e-03  -1.642852e-02  0 
 1.129250e-02  -1.647887e-02  0 
 4.501233e-03  -1.868925e-02  0 
 5.646079e-03  -1.854654e-02  0 
 6.926338e-03  -1.843762e-02  0 
 8.372520e-03  -1.836648e-02  0 
 1.001525e-02  -1.835251e-02  0 
 1.183369e-02  -1.841997e-02  0 
 4.232284e-03  -2.049022e-02  0 
 5.530185e-03  -2.038851e-02  0 
 6.917821e-03  -2.038308e-02  0 
 8.468645e-03  -2.040216e-02  0 
 1.026548e-02  -2.041299e-02  0 
 1.229027e-02  -2.046276e-02  0 
 3.959207e-03  -2.232770e-02  0 
 5.445005e-03  -2.229437e-02  0 
 6.915598e-03  -2.238302e-02  0 
 8.500974e-03  -2.254464e-02  0 
 1.034718e-02  -2.269230e-02  0 
 1.263059e-02  -2.274022e-02  0 
 3.858630e-03  -2.415391e-02  0 
 5.409858e-03  -2.416660e-02  0 
 6.956896e-03  -2.433575e-02  0 
 8.560936e-03  -2.466510e-02  0 
 1.037711e-02  -2.513454e-02  0 
 1.271136e-02  -2.559725e-02  0 
 8.850522e-03  -1.999444e-02  0 
 1.306825e-02  -1.981008e-02  0 
 1.524838e-02  -2.243202e-02  0 
 1.688712e-02  -2.509862e-02  0 
 1.911551e-02  -2.849399e-02  0 
 4.649952e-03  -2.963429e-02  0 
 6.250295e-03  -3.018124e-02  0 
 8.091950e-03  -3.076087e-02  0 
 1.008822e-02  -3.163350e-02  0 
 1.236177e-02  -3.295015e-02  0 
 1.515911e-02  -3.495623e-02  0 
 5.786375e-03  -3.312416e-02  0 
 7.433927e-03  -3.404367e-02  0 
 9.407979e-03  -3.503741e-02  0 
 1.164408e-02  -3.623208e-02  0 
 1.413838e-02  -3.773781e-02  0 
 1.681149e-02  -3.948056e-02  0 
 6.882081e-03  -3.653871e-02  0 
 8.745376e-03  -3.767972e-02  0 
 1.087855e-02  -3.893005e-02  0 
 1.320443e-02  -4.028353e-02  0 
 1.562467e-02  -4.169623e-02  0 
 1.794711e-02  -4.302310e-02  0 
 7.839834e-03  -3.996631e-02  0 
 1.005311e-02  -4.118319e-02  0 
 1.236504e-02  -4.249048e-02  0 
 1.466429e-02  -4.382067e-02  0 
 1.687811e-02  -4.503505e-02  0 
 1.885476e-02  -4.601944e-02  0 
 8.611179e-03  -4.358286e-02  0 
 1.126758e-02  -4.466344e-02  0 
 1.377523e-02  -4.579100e-02  0 
 1.606999e-02  -4.693242e-02  0 
 1.800449e-02  -4.799365e-02  0 
 1.970594e-02  -4.866230e-02  0 
 9.420889e-03  -4.731982e-02  0 
 1.228231e-02  -4.818145e-02  0 
 1.503919e-02  -4.895903e-02  0 
 1.746570e-02  -4.973169e-02  0 
 1.928277e-02  -5.048399e-02  0 
 2.028207e-02  -5.121814e-02  0 
 9.771275e-03  -5.145161e-02  0 
 1.307429e-02  -5.176060e-02  0 
 1.611848e-02  -5.225109e-02  0 
 1.875237e-02  -5.240839e-02  0 
 2.066477e-02  -5.246655e-02  0 
 2.146269e-02  -5.258982e-02  0 
 2.252938e-02  -3.775150e-02  0 
 2.239623e-02  -4.137396e-02  0 
 2.264601e-02  -4.412046e-02  0 
 2.296419e-02  -4.672603e-02  0 
VECTORS displacement_ITER7 FLOAT
 1.716361e-02  -3.156749e-02  0 
 1.322876e-02  -1.634269e-02  0 
 1.389218e-02  -1.843846e-02  0 
 1.452181e-02  -2.060909e-02  0 
 1.524086e-02  -2.300728e-02  0 
 1.619083e-02  -2.600334e-02  0 
 3.554143e-03  -2.595333e-02  0 
 5.163433e-03  -2.600612e-02  0 
 6.763755e-03  -2.629565e-02  0 
 8.490577e-03  -2.684062e-02  0 
 1.044159e-02  -2.771678e-02  0 
 1.289000e-02  -2.913882e-02  0 
 2.186497e-02  -3.396221e-02  0 
 1.814550e-02  -3.753167e-02  0 
 1.911030e-02  -4.084502e-02  0 
 1.972775e-02  -4.355552e-02  0 
 2.017136e-02  -4.616141e-02  0 
 2.101915e-02  -4.856114e-02  0 
 2.126450e-02  -5.014697e-02  0 
 2.078130e-02  -5.332928e-02  0 
 4.023542e-03  -1.671302e-02  0 
 5.316847e-03  -1.661163e-02  0 
 6.624171e-03  -1.645327e-02  0 
 7.985032e-03  -1.629533e-02  0 
 9.543076e-03  -1.618830e-02  0 
 1.129914e-02  -1.619589e-02  0 
 3.929395e-03  -1.866036e-02  0 
 5.245472e-03  -1.851470e-02  0 
 6.632842e-03  -1.838948e-02  0 
 8.164986e-03  -1.828677e-02  0 
 9.899916e-03  -1.824088e-02  0 
 1.183133e-02  -1.828753e-02  0 
 3.781084e-03  -2.059246e-02  0 
 5.168995e-03  -2.048663e-02  0 
 6.623947e-03  -2.044219e-02  0 
 8.248122e-03  -2.042974e-02  0 
 1.013659e-02  -2.042111e-02  0 
 1.227447e-02  -2.046152e-02  0 
 3.666490e-03  -2.250758e-02  0 
 5.118415e-03  -2.244871e-02  0 
 6.617815e-03  -2.251065e-02  0 
 8.268984e-03  -2.265817e-02  0 
 1.020432e-02  -2.280579e-02  0 
 1.259505e-02  -2.285491e-02  0 
 3.648107e-03  -2.427377e-02  0 
 5.109857e-03  -2.430423e-02  0 
 6.659870e-03  -2.449292e-02  0 
 8.326802e-03  -2.484533e-02  0 
 1.023004e-02  -2.533856e-02  0 
 1.265512e-02  -2.582608e-02  0 
 1.082740e-02  -1.837165e-02  0 
 1.393130e-02  -1.972788e-02  0 
 1.579712e-02  -2.250328e-02  0 
 1.736341e-02  -2.530196e-02  0 
 1.940591e-02  -2.891639e-02  0 
 4.616478e-03  -2.974758e-02  0 
 6.232697e-03  -3.031163e-02  0 
 8.054364e-03  -3.094789e-02  0 
 1.005905e-02  -3.184890e-02  0 
 1.235745e-02  -3.315175e-02  0 
 1.517516e-02  -3.508767e-02  0 
 5.862025e-03  -3.343135e-02  0 
 7.566876e-03  -3.427588e-02  0 
 9.539054e-03  -3.523571e-02  0 
 1.174788e-02  -3.639588e-02  0 
 1.419865e-02  -3.782319e-02  0 
 1.679555e-02  -3.940173e-02  0 
 7.087666e-03  -3.694789e-02  0 
 8.990511e-03  -3.797950e-02  0 
 1.111860e-02  -3.913671e-02  0 
 1.338544e-02  -4.038708e-02  0 
 1.570491e-02  -4.165707e-02  0 
 1.788621e-02  -4.279599e-02  0 
 8.184517e-03  -4.039538e-02  0 
 1.041964e-02  -4.150590e-02  0 
 1.269033e-02  -4.268512e-02  0 
 1.488422e-02  -4.384982e-02  0 
 1.695982e-02  -4.488570e-02  0 
 1.879632e-02  -4.567117e-02  0 
 9.146253e-03  -4.400135e-02  0 
 1.179314e-02  -4.499518e-02  0 
 1.415872e-02  -4.592305e-02  0 
 1.630535e-02  -4.685753e-02  0 
 1.810386e-02  -4.773482e-02  0 
 1.964158e-02  -4.824324e-02  0 
 1.032893e-02  -4.783396e-02  0 
 1.291700e-02  -4.841707e-02  0 
 1.543268e-02  -4.893340e-02  0 
 1.772513e-02  -4.952648e-02  0 
 1.941650e-02  -5.012768e-02  0 
 2.030432e-02  -5.070151e-02  0 
 1.125620e-02  -5.137712e-02  0 
 1.369854e-02  -5.160760e-02  0 
 1.653879e-02  -5.202309e-02  0 
 1.908065e-02  -5.209313e-02  0 
 2.086383e-02  -5.200288e-02  0 
 2.152696e-02  -5.202403e-02  0 
 2.205331e-02  -3.770384e-02  0 
 2.205437e-02  -4.101489e-02  0 
 2.238598e-02  -4.363865e-02  0 
 2.273819e-02  -4.623291e-02  0 
VECTORS displacement_ITER8 FLOAT
 1.669549e-02  -3.203884e-02  0 
 1.280316e-02  -1.677250e-02  0 
 1.346435e-02  -1.889966e-02  0 
 1.408262e-02  -2.106561e-02  0 
 1.479137e-02  -2.344899e-02  0 
 1.573556e-02  -2.643862e-02  0 
 3.543025e-03  -2.608897e-02  0 
 4.942432e-03  -2.623221e-02  0 
 6.439601e-03  -2.659281e-02  0 
 8.107355e-03  -2.718709e-02  0 
 1.002081e-02  -2.809861e-02  0 
 1.244104e-02  -2.955383e-02  0 
 2.098478e-02  -3.450693e-02  0 
 1.765217e-02  -3.765747e-02  0 
 1.857560e-02  -4.062666e-02  0 
 1.915527e-02  -4.305659e-02  0 
 1.957368e-02  -4.541326e-02  0 
 1.977026e-02  -4.769315e-02  0 
 2.014006e-02  -5.013354e-02  0 
 2.082859e-02  -5.218097e-02  0 
 3.639548e-03  -1.720127e-02  0 
 4.976782e-03  -1.714105e-02  0 
 6.285018e-03  -1.698376e-02  0 
 7.613228e-03  -1.681991e-02  0 
 9.133015e-03  -1.668518e-02  0 
 1.086271e-02  -1.666183e-02  0 
 3.590965e-03  -1.919394e-02  0 
 4.930049e-03  -1.904975e-02  0 
 6.295587e-03  -1.891403e-02  0 
 7.789055e-03  -1.878885e-02  0 
 9.486702e-03  -1.872239e-02  0 
 1.139752e-02  -1.875399e-02  0 
 3.532298e-03  -2.111768e-02  0 
 4.885265e-03  -2.101617e-02  0 
 6.287775e-03  -2.094535e-02  0 
 7.864623e-03  -2.090996e-02  0 
 9.719302e-03  -2.088663e-02  0 
 1.184042e-02  -2.092108e-02  0 
 3.535917e-03  -2.299970e-02  0 
 4.861433e-03  -2.292201e-02  0 
 6.280137e-03  -2.296563e-02  0 
 7.878252e-03  -2.310310e-02  0 
 9.779966e-03  -2.324990e-02  0 
 1.215360e-02  -2.329903e-02  0 
 3.572705e-03  -2.462912e-02  0 
 4.871898e-03  -2.467004e-02  0 
 6.323403e-03  -2.487245e-02  0 
 7.935027e-03  -2.524217e-02  0 
 9.803107e-03  -2.575376e-02  0 
 1.220252e-02  -2.625903e-02  0 
 1.352912e-02  -1.614716e-02  0 
 1.471297e-02  -1.999746e-02  0 
 1.596103e-02  -2.276046e-02  0 
 1.739627e-02  -2.552903e-02  0 
 1.928575e-02  -2.921737e-02  0 
 4.566693e-03  -3.029708e-02  0 
 6.127550e-03  -3.067505e-02  0 
 7.815118e-03  -3.124360e-02  0 
 9.728239e-03  -3.209477e-02  0 
 1.197176e-02  -3.335410e-02  0 
 1.475131e-02  -3.525557e-02  0 
 5.871332e-03  -3.407305e-02  0 
 7.407387e-03  -3.470129e-02  0 
 9.252834e-03  -3.548479e-02  0 
 1.136437e-02  -3.652016e-02  0 
 1.376532e-02  -3.783424e-02  0 
 1.632805e-02  -3.930092e-02  0 