# vtk DataFile Version 3.1
this is an vtk file created by FEMAC
ASCII
DATASET UNSTRUCTURED_GRID
POINTS 102 FLOAT
0.000000 0.000000 0.000000
1.000000 0.000000 0.000000
0.111111 0.000000 0.000000
0.222222 0.000000 0.000000
0.333333 0.000000 0.000000
0.444444 0.000000 0.000000
0.555556 0.000000 0.000000
0.666667 0.000000 0.000000
0.777778 0.000000 0.000000
0.888889 0.000000 0.000000
1.111111 0.000000 0.000000
1.222222 0.000000 0.000000
1.333333 0.000000 0.000000
0.000000 0.111111 0.000000
0.000000 0.222222 0.000000
0.000000 0.333333 0.000000
0.000000 0.444444 0.000000
0.000000 0.555556 0.000000
0.000000 0.666667 0.000000
1.000000 0.111111 0.000000
1.000000 0.222222 0.000000
1.000000 0.333333 0.000000
1.000000 0.444444 0.000000
1.000000 0.555556 0.000000
1.000000 0.666667 0.000000
1.000000 0.777778 0.000000
0.111111 0.111111 0.000000
0.111111 0.222222 0.000000
0.111111 0.333333 0.000000
0.111111 0.444444 0.000000
0.111111 0.555556 0.000000
0.111111 0.666667 0.000000
0.222222 0.111111 0.000000
0.222222 0.222222 0.000000
0.222222 0.333333 0.000000
0.222222 0.444444 0.000000
0.222222 0.555556 0.000000
0.222222 0.666667 0.000000
0.333333 0.111111 0.000000
0.333333 0.222222 0.000000
0.333333 0.333333 0.000000
0.333333 0.444444 0.000000
0.333333 0.555556 0.000000
0.333333 0.666667 0.000000
0.444444 0.111111 0.000000
0.444444 0.222222 0.000000
0.444444 0.333333 0.000000
0.444444 0.444444 0.000000
0.444444 0.555556 0.000000
0.444444 0.666667 0.000000
0.555556 0.111111 0.000000
0.555556 0.222222 0.000000
0.555556 0.333333 0.000000
0.555556 0.444444 0.000000
0.555556 0.555556 0.000000
0.555556 0.666667 0.000000
0.555556 0.777778 0.000000
0.666667 0.111111 0.000000
0.666667 0.222222 0.000000
0.666667 0.333333 0.000000
0.666667 0.444444 0.000000
0.666667 0.555556 0.000000
0.666667 0.666667 0.000000
0.666667 0.777778 0.000000
0.777778 0.111111 0.000000
0.777778 0.222222 0.000000
0.777778 0.333333 0.000000
0.777778 0.444444 0.000000
0.777778 0.555556 0.000000
0.777778 0.666667 0.000000
0.777778 0.777778 0.000000
0.888889 0.111111 0.000000
0.888889 0.222222 0.000000
0.888889 0.333333 0.000000
0.888889 0.444444 0.000000
0.888889 0.555556 0.000000
0.888889 0.666667 0.000000
0.888889 0.777778 0.000000
1.111111 0.111111 0.000000
1.111111 0.222222 0.000000
1.111111 0.333333 0.000000
1.111111 0.444444 0.000000
1.111111 0.555556 0.000000
1.111111 0.666667 0.000000
1.111111 0.777778 0.000000
1.111111 0.888889 0.000000
1.222222 0.111111 0.000000
1.222222 0.222222 0.000000
1.222222 0.333333 0.000000
1.222222 0.444444 0.000000
1.222222 0.555556 0.000000
1.222222 0.666667 0.000000
1.222222 0.777778 0.000000
1.222222 0.888889 0.000000
1.333333 0.111111 0.000000
1.333333 0.222222 0.000000
1.333333 0.333333 0.000000
1.333333 0.444444 0.000000
1.333333 0.555556 0.000000
1.333333 0.666667 0.000000
1.333333 0.777778 0.000000
1.333333 0.888889 0.000000
CELLS 81 405 
4 0  2 26 13
4 13 26 27 14
4 14 27 28 15
4 15 28 29 16
4 16 29 30 17
4 17 30 31 18
4 2  3 32 26
4 26 32 33 27
4 27 33 34 28
4 28 34 35 29
4 29 35 36 30
4 30 36 37 31
4 3  4 38 32
4 32 38 39 33
4 33 39 40 34
4 34 40 41 35
4 35 41 42 36
4 36 42 43 37
4 4  5 44 38
4 38 44 45 39
4 39 45 46 40
4 40 46 47 41
4 41 47 48 42
4 42 48 49 43
4 5  6 50 44
4 44 50 51 45
4 45 51 52 46
4 46 52 53 47
4 47 53 54 48
4 48 54 55 49
4 6  7 57 50
4 50 57 58 51
4 51 58 59 52
4 52 59 60 53
4 53 60 61 54
4 54 61 62 55
4 55 62 63 56
4 7  8 64 57
4 57 64 65 58
4 58 65 66 59
4 59 66 67 60
4 60 67 68 61
4 61 68 69 62
4 62 69 70 63
4 8  9 71 64
4 64 71 72 65
4 65 72 73 66
4 66 73 74 67
4 67 74 75 68
4 68 75 76 69
4 69 76 77 70
4 9  1 19 71
4 71 19 20 72
4 72 20 21 73
4 73 21 22 74
4 74 22 23 75
4 75 23 24 76
4 76 24 25 77
4 1 10 78 19
4 19 78 79 20
4 20 79 80 21
4 21 80 81 22
4 22 81 82 23
4 23 82 83 24
4 24 83 84 25
4 10 11 86 78
4 78 86 87 79
4 79 87 88 80
4 80 88 89 81
4 81 89 90 82
4 82 90 91 83
4 83 91 92 84
4 84 92 93 85
4 11 12 94 86
4 86 94 95 87
4 87 95 96 88
4 88 96 97 89
4 89 97 98 90
4 90 98 99 91
4 91  99 100  92
4 92 100 101  93
CELL_TYPES 81
9 9 9 9 9 9 9 9 9 9 9 9 9 9 9 9 9 9 9 9 9 9 9 9 9 9 9 9 9 9 9 9 9 9 9 9 9 9 9 9 9 9 9 9 9 9 9 9 9 9 9 9 9 9 9 9 9 9 9 9 9 9 9 9 9 9 9 9 9 9 9 9 9 9 9 9 9 9 9 9 9 
POINT_DATA 102
VECTORS displacement_ITER1 FLOAT
 0  0  0 
 -3.349243e-03  -4.606108e-03  0 
 -1.181299e-03  -7.378094e-04  0 
 -1.882420e-03  -1.409728e-03  0 
 -2.338247e-03  -2.027308e-03  0 
 -2.629066e-03  -2.574770e-03  0 
 -2.809511e-03  -3.046658e-03  0 
 -2.932014e-03  -3.449079e-03  0 
 -3.044519e-03  -3.805730e-03  0 
 -3.182593e-03  -4.161353e-03  0 
 -1.587015e-02  -1.099898e-02  0 
 -2.632457e-02  -1.670589e-02  0 
 -3.844546e-02  -2.674390e-02  0 
 0  0  0 
 0  0  0 
 0  0  0 
 0  0  0 
 0  0  0 
 -1.280969e-21  -4.855180e-19  0 
 -2.903637e-03  -4.506861e-03  0 
 -2.561189e-03  -4.389365e-03  0 
 -2.307097e-03  -4.260501e-03  0 
 -2.162953e-03  -4.130184e-03  0 
 -2.179410e-03  -3.999457e-03  0 
 -2.504473e-03  -3.862888e-03  0 
 -3.483647e-03  -3.882989e-03  0 
 -6.961748e-04  -5.429467e-04  0 
 -5.257606e-04  -5.160313e-04  0 
 -4.220819e-04  -5.092313e-04  0 
 -3.146888e-04  -4.830822e-04  0 
 -1.386711e-04  -4.279359e-04  0 
 2.647365e-04  -4.012053e-04  0 
 -1.350865e-03  -1.257627e-03  0 
 -1.031804e-03  -1.166995e-03  0 
 -8.464147e-04  -1.149409e-03  0 
 -6.723541e-04  -1.147133e-03  0 
 -3.897593e-04  -1.137108e-03  0 
 1.352142e-04  -1.093435e-03  0 
 -1.834765e-03  -1.921651e-03  0 
 -1.480105e-03  -1.850021e-03  0 
 -1.239165e-03  -1.843102e-03  0 
 -1.040669e-03  -1.893466e-03  0 
 -7.672131e-04  -1.939822e-03  0 
 -3.009187e-04  -1.911654e-03  0 
 -2.173911e-03  -2.508421e-03  0 
 -1.825091e-03  -2.470342e-03  0 
 -1.570392e-03  -2.494647e-03  0 
 -1.381643e-03  -2.586351e-03  0 
 -1.226730e-03  -2.716352e-03  0 
 -9.538321e-04  -2.715660e-03  0 
 -2.405434e-03  -3.005977e-03  0 
 -2.073369e-03  -2.992869e-03  0 
 -1.826554e-03  -3.038564e-03  0 
 -1.673788e-03  -3.146706e-03  0 
 -1.618929e-03  -3.286547e-03  0 
 -1.838635e-03  -3.404463e-03  0 
 -1.795190e-03  -3.330302e-03  0 
 -2.567179e-03  -3.419414e-03  0 
 -2.246990e-03  -3.414245e-03  0 
 -2.010014e-03  -3.457827e-03  0 
 -1.895348e-03  -3.557541e-03  0 
 -1.941003e-03  -3.689608e-03  0 
 -2.073488e-03  -3.856225e-03  0 
 -1.928885e-03  -4.058061e-03  0 
 -2.691800e-03  -3.774622e-03  0 
 -2.369753e-03  -3.760250e-03  0 
 -2.132597e-03  -3.773430e-03  0 
 -2.028328e-03  -3.835169e-03  0 
 -2.089659e-03  -3.991584e-03  0 
 -2.282482e-03  -4.280093e-03  0 
 -2.482270e-03  -4.576903e-03  0 
 -2.798642e-03  -4.120108e-03  0 
 -2.465263e-03  -4.073366e-03  0 
 -2.220307e-03  -4.027739e-03  0 
 -2.092663e-03  -4.013710e-03  0 
 -2.125667e-03  -4.082017e-03  0 
 -2.425862e-03  -4.291636e-03  0 
 -3.122887e-03  -4.573506e-03  0 
 -1.131742e-02  -8.553128e-03  0 
 -9.091118e-03  -7.979749e-03  0 
 -8.007357e-03  -7.627005e-03  0 
 -7.691642e-03  -7.065634e-03  0 
 -7.706892e-03  -6.486090e-03  0 
 -7.874525e-03  -6.064363e-03  0 
 -8.818760e-03  -6.739733e-03  0 
 -1.568140e-02  -1.059966e-02  0 
 -1.952294e-02  -1.444156e-02  0 
 -1.538899e-02  -1.294113e-02  0 
 -1.408659e-02  -1.120485e-02  0 
 -1.362458e-02  -9.679381e-03  0 
 -1.348827e-02  -8.599152e-03  0 
 -1.339290e-02  -7.919073e-03  0 
 -1.308507e-02  -6.974665e-03  0 
 -1.185586e-02  -5.665367e-03  0 
 -2.558438e-02  -2.228542e-02  0 
 -2.214656e-02  -1.756195e-02  0 
 -2.087011e-02  -1.426592e-02  0 
 -2.020921e-02  -1.181441e-02  0 
 -1.946254e-02  -1.006666e-02  0 
 -1.878368e-02  -9.770160e-03  0 
 -1.765875e-02  -1.056940e-02  0 
 -9.910968e-03  -1.436571e-02  0 
VECTORS displacement_ITER2 FLOAT
 0  0  0 
 -3.166908e-03  -4.243007e-03  0 
 -1.157289e-03  -7.283440e-04  0 
 -1.834176e-03  -1.383980e-03  0 
 -2.265919e-03  -1.975079e-03  0 
 -2.534288e-03  -2.486464e-03  0 
 -2.694733e-03  -2.914542e-03  0 
 -2.799516e-03  -3.267546e-03  0 
 -2.895527e-03  -3.570453e-03  0 
 -3.016923e-03  -3.867399e-03  0 
 -1.469213e-02  -9.955756e-03  0 
 -2.463603e-02  -1.534290e-02  0 
 -3.609085e-02  -2.552172e-02  0 
 0  0  0 
 0  0  0 
 0  0  0 
 0  0  0 
 0  0  0 
 -3.745411e-20  -5.131791e-19  0 
 -2.789756e-03  -4.152866e-03  0 
 -2.505170e-03  -4.045687e-03  0 
 -2.303348e-03  -3.927410e-03  0 
 -2.206663e-03  -3.805946e-03  0 
 -2.269073e-03  -3.674637e-03  0 
 -2.653087e-03  -3.509235e-03  0 
 -3.758674e-03  -3.436341e-03  0 
 -6.838564e-04  -5.393883e-04  0 
 -5.238332e-04  -5.154199e-04  0 
 -4.315404e-04  -5.108619e-04  0 
 -3.380169e-04  -4.861470e-04  0 
 -1.804710e-04  -4.285156e-04  0 
 1.888318e-04  -3.831330e-04  0 
 -1.323871e-03  -1.238056e-03  0 
 -1.025943e-03  -1.151501e-03  0 
 -8.628645e-04  -1.135996e-03  0 
 -7.163890e-04  -1.134206e-03  0 
 -4.719932e-04  -1.119697e-03  0 
 3.234495e-06  -1.064548e-03  0 
 -1.793320e-03  -1.875312e-03  0 
 -1.469484e-03  -1.807357e-03  0 
 -1.261193e-03  -1.801432e-03  0 
 -1.099904e-03  -1.849336e-03  0 
 -8.757842e-04  -1.894505e-03  0 
 -4.710258e-04  -1.865073e-03  0 
 -2.118513e-03  -2.425422e-03  0 
 -1.809009e-03  -2.390534e-03  0 
 -1.595947e-03  -2.415672e-03  0 
 -1.452508e-03  -2.504746e-03  0 
 -1.344633e-03  -2.627197e-03  0 
 -1.144703e-03  -2.637136e-03  0 
 -2.336703e-03  -2.878502e-03  0 
 -2.050521e-03  -2.868124e-03  0 
 -1.851764e-03  -2.915206e-03  0 
 -1.751290e-03  -3.024060e-03  0 
 -1.753032e-03  -3.159962e-03  0 
 -2.013089e-03  -3.242659e-03  0 
 -2.009729e-03  -3.160262e-03  0 
 -2.485820e-03  -3.241996e-03  0 
 -2.216257e-03  -3.239134e-03  0 
 -2.030591e-03  -3.284338e-03  0 
 -1.970531e-03  -3.387630e-03  0 
 -2.077573e-03  -3.529822e-03  0 
 -2.272523e-03  -3.722386e-03  0 
 -2.180697e-03  -3.973998e-03  0 
 -2.598600e-03  -3.543271e-03  0 
 -2.330910e-03  -3.531282e-03  0 
 -2.145917e-03  -3.546760e-03  0 
 -2.092729e-03  -3.613467e-03  0 
 -2.206866e-03  -3.785088e-03  0 
 -2.463575e-03  -4.111838e-03  0 
 -2.753931e-03  -4.472264e-03  0 
 -2.694724e-03  -3.830326e-03  0 
 -2.418419e-03  -3.787983e-03  0 
 -2.225464e-03  -3.747591e-03  0 
 -2.145099e-03  -3.739345e-03  0 
 -2.222954e-03  -3.814442e-03  0 
 -2.579972e-03  -4.034872e-03  0 
 -3.392015e-03  -4.348615e-03  0 
 -1.044659e-02  -7.667092e-03  0 
 -8.296247e-03  -7.144713e-03  0 
 -7.283354e-03  -6.893102e-03  0 
 -7.052076e-03  -6.530270e-03  0 
 -7.229678e-03  -6.152190e-03  0 
 -7.651164e-03  -5.861245e-03  0 
 -8.758683e-03  -6.478605e-03  0 
 -1.541994e-02  -9.697990e-03  0 
 -1.797027e-02  -1.312182e-02  0 
 -1.388418e-02  -1.153223e-02  0 
 -1.244243e-02  -1.001158e-02  0 
 -1.205886e-02  -8.840914e-03  0 
 -1.221671e-02  -8.101343e-03  0 
 -1.258800e-02  -7.702044e-03  0 
 -1.285642e-02  -7.040934e-03  0 
 -1.194675e-02  -6.304080e-03  0 
 -2.401276e-02  -2.047405e-02  0 
 -1.990700e-02  -1.584973e-02  0 
 -1.810241e-02  -1.265307e-02  0 
 -1.740138e-02  -1.053082e-02  0 
 -1.718735e-02  -9.265103e-03  0 
 -1.733829e-02  -9.123467e-03  0 
 -1.675326e-02  -1.044917e-02  0 
 -1.117196e-02  -1.376028e-02  0 
VECTORS displacement_ITER3 FLOAT
 0  0  0 
 -3.248019e-03  -4.286542e-03  0 
 -1.183723e-03  -7.435877e-04  0 
 -1.876963e-03  -1.409872e-03  0 
 -2.321008e-03  -2.008100e-03  0 
 -2.599345e-03  -2.523899e-03  0 
 -2.767755e-03  -2.954685e-03  0 
 -2.878226e-03  -3.309492e-03  0 
 -2.977316e-03  -3.613630e-03  0 
 -3.099290e-03  -3.911160e-03  0 
 -1.449497e-02  -1.002690e-02  0 
 -2.391422e-02  -1.531397e-02  0 
 -3.443867e-02  -2.512680e-02  0 
 0  0  0 
 0  0  0 
 0  0  0 
 0  0  0 
 0  0  0 
 -5.492931e-20  -5.113700e-19  0 
 -2.871895e-03  -4.197198e-03  0 
 -2.590374e-03  -4.090774e-03  0 
 -2.392857e-03  -3.974802e-03  0 
 -2.300135e-03  -3.858713e-03  0 
 -2.363335e-03  -3.736941e-03  0 
 -2.739901e-03  -3.582371e-03  0 
 -3.831525e-03  -3.500064e-03  0 
 -7.020816e-04  -5.500798e-04  0 
 -5.408892e-04  -5.253929e-04  0 
 -4.500203e-04  -5.212954e-04  0 
 -3.611795e-04  -4.978908e-04  0 
 -2.146382e-04  -4.411644e-04  0 
 1.269215e-04  -3.874103e-04  0 
 -1.359890e-03  -1.259908e-03  0 
 -1.059693e-03  -1.170266e-03  0 
 -8.988156e-04  -1.152848e-03  0 
 -7.600690e-04  -1.149002e-03  0 
 -5.348254e-04  -1.130812e-03  0 
 -9.873445e-05  -1.069777e-03  0 
 -1.844083e-03  -1.904814e-03  0 
 -1.519276e-03  -1.833119e-03  0 
 -1.314418e-03  -1.822965e-03  0 
 -1.162101e-03  -1.864740e-03  0 
 -9.560093e-04  -1.902734e-03  0 
 -5.851571e-04  -1.870474e-03  0 
 -2.181293e-03  -2.459880e-03  0 
 -1.872573e-03  -2.421397e-03  0 
 -1.664438e-03  -2.442105e-03  0 
 -1.530424e-03  -2.525358e-03  0 
 -1.433467e-03  -2.639617e-03  0 
 -1.246823e-03  -2.649514e-03  0 
 -2.408789e-03  -2.916339e-03  0 
 -2.124554e-03  -2.903155e-03  0 
 -1.931097e-03  -2.947278e-03  0 
 -1.839035e-03  -3.054224e-03  0 
 -1.849587e-03  -3.190778e-03  0 
 -2.097034e-03  -3.271394e-03  0 
 -2.158404e-03  -3.239367e-03  0 
 -2.564339e-03  -3.282498e-03  0 
 -2.297137e-03  -3.278100e-03  0 
 -2.115975e-03  -3.322394e-03  0 
 -2.061738e-03  -3.427260e-03  0 
 -2.174849e-03  -3.577154e-03  0 
 -2.382945e-03  -3.782498e-03  0 
 -2.330055e-03  -4.050318e-03  0 
 -2.680675e-03  -3.585949e-03  0 
 -2.415385e-03  -3.573833e-03  0 
 -2.234087e-03  -3.590269e-03  0 
 -2.184625e-03  -3.659941e-03  0 
 -2.303121e-03  -3.837130e-03  0 
 -2.571383e-03  -4.176195e-03  0 
 -2.887954e-03  -4.570939e-03  0 
 -2.777809e-03  -3.874354e-03  0 
 -2.503978e-03  -3.832942e-03  0 
 -2.314732e-03  -3.794701e-03  0 
 -2.238113e-03  -3.790164e-03  0 
 -2.318092e-03  -3.870344e-03  0 
 -2.672988e-03  -4.099510e-03  0 
 -3.485957e-03  -4.441711e-03  0 
 -1.033639e-02  -7.824108e-03  0 
 -8.346095e-03  -7.328188e-03  0 
 -7.460382e-03  -7.100625e-03  0 
 -7.285977e-03  -6.826832e-03  0 
 -7.509268e-03  -6.551571e-03  0 
 -8.018231e-03  -6.297013e-03  0 
 -9.338470e-03  -6.627282e-03  0 
 -1.480891e-02  -8.619220e-03  0 
 -1.763033e-02  -1.320754e-02  0 
 -1.394772e-02  -1.158869e-02  0 
 -1.262734e-02  -1.024002e-02  0 
 -1.230771e-02  -9.326586e-03  0 
 -1.257218e-02  -8.807807e-03  0 
 -1.314269e-02  -8.527984e-03  0 
 -1.359879e-02  -8.073011e-03  0 
 -1.258518e-02  -7.877070e-03  0 
 -2.368866e-02  -1.982157e-02  0 
 -1.991211e-02  -1.562253e-02  0 
 -1.812610e-02  -1.287937e-02  0 
 -1.744982e-02  -1.119639e-02  0 
 -1.747238e-02  -1.029454e-02  0 
 -1.793131e-02  -1.033588e-02  0 
 -1.734854e-02  -1.203576e-02  0 
 -1.315659e-02  -1.487103e-02  0 
VECTORS displacement_ITER4 FLOAT
 0  0  0 
 -3.363769e-03  -4.429433e-03  0 
 -1.213137e-03  -7.597739e-04  0 
 -1.926658e-03  -1.440061e-03  0 
 -2.387326e-03  -2.051895e-03  0 
 -2.679903e-03  -2.581529e-03  0 
 -2.860262e-03  -3.026913e-03  0 
 -2.980123e-03  -3.397372e-03  0 
 -3.085911e-03  -3.718272e-03  0 
 -3.212280e-03  -4.033752e-03  0 
 -1.460552e-02  -1.040774e-02  0 
 -2.364028e-02  -1.587186e-02  0 
 -3.320817e-02  -2.533128e-02  0 
 0  0  0 
 0  0  0 
 0  0  0 
 0  0  0 
 0  0  0 
 -6.727493e-20  -4.874462e-19  0 
 -2.967740e-03  -4.338879e-03  0 
 -2.670723e-03  -4.231303e-03  0 
 -2.460332e-03  -4.115663e-03  0 
 -2.355881e-03  -4.002743e-03  0 
 -2.406015e-03  -3.888927e-03  0 
 -2.760538e-03  -3.748709e-03  0 
 -3.807963e-03  -3.675118e-03  0 
 -7.210031e-04  -5.609116e-04  0 
 -5.561312e-04  -5.353318e-04  0 
 -4.641137e-04  -5.321920e-04  0 
 -3.773263e-04  -5.116264e-04  0 
 -2.387628e-04  -4.593080e-04  0 
 8.223545e-05  -4.057063e-04  0 
 -1.397719e-03  -1.285143e-03  0 
 -1.089801e-03  -1.192180e-03  0 
 -9.253195e-04  -1.173572e-03  0 
 -7.880693e-04  -1.170160e-03  0 
 -5.746357e-04  -1.153860e-03  0 
 -1.698294e-04  -1.095907e-03  0 
 -1.898041e-03  -1.944143e-03  0 
 -1.563873e-03  -1.868451e-03  0 
 -1.353307e-03  -1.854667e-03  0 
 -1.199847e-03  -1.892448e-03  0 
 -1.001488e-03  -1.927841e-03  0 
 -6.550297e-04  -1.899281e-03  0 
 -2.248898e-03  -2.513628e-03  0 
 -1.929976e-03  -2.471264e-03  0 
 -1.714868e-03  -2.487791e-03  0 
 -1.577119e-03  -2.565958e-03  0 
 -1.477154e-03  -2.673566e-03  0 
 -1.293137e-03  -2.687585e-03  0 
 -2.487502e-03  -2.985426e-03  0 
 -2.192159e-03  -2.969166e-03  0 
 -1.990224e-03  -3.010316e-03  0 
 -1.891501e-03  -3.115032e-03  0 
 -1.893946e-03  -3.251127e-03  0 
 -2.108455e-03  -3.329693e-03  0 
 -2.167416e-03  -3.317926e-03  0 
 -2.651366e-03  -3.368155e-03  0 
 -2.371801e-03  -3.361997e-03  0 
 -2.180146e-03  -3.405380e-03  0 
 -2.115851e-03  -3.511370e-03  0 
 -2.216688e-03  -3.667356e-03  0 
 -2.414355e-03  -3.881618e-03  0 
 -2.371508e-03  -4.152113e-03  0 
 -2.773129e-03  -3.689314e-03  0 
 -2.493991e-03  -3.676825e-03  0 
 -2.300495e-03  -3.694197e-03  0 
 -2.238851e-03  -3.766649e-03  0 
 -2.344664e-03  -3.947898e-03  0 
 -2.605242e-03  -4.292987e-03  0 
 -2.930073e-03  -4.706490e-03  0 
 -2.872997e-03  -3.996369e-03  0 
 -2.584036e-03  -3.955232e-03  0 
 -2.381877e-03  -3.918494e-03  0 
 -2.293339e-03  -3.917043e-03  0 
 -2.360870e-03  -4.001178e-03  0 
 -2.698850e-03  -4.235585e-03  0 
 -3.490514e-03  -4.599195e-03  0 
 -1.035221e-02  -8.243687e-03  0 
 -8.428738e-03  -7.750604e-03  0 
 -7.613631e-03  -7.511411e-03  0 
 -7.475952e-03  -7.253275e-03  0 
 -7.725515e-03  -7.004774e-03  0 
 -8.271967e-03  -6.761928e-03  0 
 -9.612665e-03  -6.923229e-03  0 
 -1.376128e-02  -8.035020e-03  0 
 -1.752991e-02  -1.381823e-02  0 
 -1.407605e-02  -1.213528e-02  0 
 -1.285387e-02  -1.081929e-02  0 
 -1.260787e-02  -9.971262e-03  0 
 -1.294032e-02  -9.507855e-03  0 
 -1.358851e-02  -9.274843e-03  0 
 -1.412287e-02  -8.993705e-03  0 
 -1.333844e-02  -9.088541e-03  0 
 -2.358337e-02  -2.019540e-02  0 
 -2.006806e-02  -1.618976e-02  0 
 -1.838206e-02  -1.356475e-02  0 
 -1.780439e-02  -1.199610e-02  0 
 -1.796447e-02  -1.121622e-02  0 
 -1.849882e-02  -1.133834e-02  0 
 -1.804029e-02  -1.304544e-02  0 
 -1.483958e-02  -1.561139e-02  0 
VECTORS displacement_ITER5 FLOAT
 0  0  0 
 -3.447814e-03  -4.563679e-03  0 
 -1.232448e-03  -7.698889e-04  0 
 -1.960393e-03  -1.459794e-03  0 
 -2.433849e-03  -2.082425e-03  0 
 -2.738046e-03  -2.624624e-03  0 
 -2.928439e-03  -3.084673e-03  0 
 -3.056073e-03  -3.471919e-03  0 
 -3.166912e-03  -3.811442e-03  0 
 -3.295746e-03  -4.146883e-03  0 
 -1.454641e-02  -1.066346e-02  0 
 -2.311116e-02  -1.611347e-02  0 
 -3.172313e-02  -2.455274e-02  0 
 0  0  0 
 0  0  0 
 0  0  0 
 0  0  0 
 0  0  0 
 -6.094617e-20  -4.441856e-19  0 
 -3.031036e-03  -4.473159e-03  0 
 -2.715351e-03  -4.366152e-03  0 
 -2.486630e-03  -4.253310e-03  0 
 -2.363208e-03  -4.146850e-03  0 
 -2.392421e-03  -4.045656e-03  0 
 -2.714904e-03  -3.929256e-03  0 
 -3.693484e-03  -3.884353e-03  0 
 -7.331411e-04  -5.674059e-04  0 
 -5.652071e-04  -5.414699e-04  0 
 -4.722628e-04  -5.401026e-04  0 
 -3.880961e-04  -5.240922e-04  0 
 -2.589689e-04  -4.793525e-04  0 
 3.953200e-05  -4.313045e-04  0 
 -1.422223e-03  -1.301313e-03  0 
 -1.107393e-03  -1.206180e-03  0 
 -9.390050e-04  -1.187434e-03  0 
 -8.032458e-04  -1.186601e-03  0 
 -6.030103e-04  -1.176272e-03  0 
 -2.343639e-04  -1.127509e-03  0 
 -1.933593e-03  -1.971229e-03  0 
 -1.590135e-03  -1.892479e-03  0 
 -1.372730e-03  -1.875755e-03  0 
 -1.216504e-03  -1.910483e-03  0 
 -1.026473e-03  -1.946225e-03  0 
 -7.091993e-04  -1.925994e-03  0 
 -2.294269e-03  -2.553576e-03  0 
 -1.964381e-03  -2.507971e-03  0 
 -1.740394e-03  -2.520462e-03  0 
 -1.595911e-03  -2.592923e-03  0 
 -1.489375e-03  -2.692806e-03  0 
 -1.311971e-03  -2.715120e-03  0 
 -2.541049e-03  -3.040618e-03  0 
 -2.233158e-03  -3.021764e-03  0 
 -2.020343e-03  -3.059927e-03  0 
 -1.911131e-03  -3.161470e-03  0 
 -1.899516e-03  -3.294605e-03  0 
 -2.067377e-03  -3.366625e-03  0 
 -2.061265e-03  -3.344807e-03  0 
 -2.710844e-03  -3.440991e-03  0 
 -2.416935e-03  -3.433567e-03  0 
 -2.211939e-03  -3.476384e-03  0 
 -2.133130e-03  -3.583560e-03  0 
 -2.213933e-03  -3.745659e-03  0 
 -2.386730e-03  -3.968993e-03  0 
 -2.334306e-03  -4.234710e-03  0 
 -2.835979e-03  -3.781721e-03  0 
 -2.540554e-03  -3.769460e-03  0 
 -2.331360e-03  -3.788762e-03  0 
 -2.252306e-03  -3.865656e-03  0 
 -2.337414e-03  -4.052946e-03  0 
 -2.579728e-03  -4.403915e-03  0 
 -2.906060e-03  -4.830634e-03  0 
 -2.936879e-03  -4.109490e-03  0 
 -2.629955e-03  -4.069500e-03  0 
 -2.410446e-03  -4.035931e-03  0 
 -2.303952e-03  -4.040330e-03  0 
 -2.351891e-03  -4.131856e-03  0 
 -2.664397e-03  -4.373832e-03  0 
 -3.420989e-03  -4.761366e-03  0 
 -1.030591e-02  -8.536875e-03  0 
 -8.452362e-03  -7.995686e-03  0 
 -7.617195e-03  -7.693763e-03  0 
 -7.381756e-03  -7.390097e-03  0 
 -7.501246e-03  -7.121959e-03  0 
 -7.921616e-03  -6.909610e-03  0 
 -8.972233e-03  -7.121510e-03  0 
 -1.293041e-02  -8.398157e-03  0 
 -1.741374e-02  -1.411194e-02  0 
 -1.415993e-02  -1.242708e-02  0 
 -1.289220e-02  -1.111727e-02  0 
 -1.246826e-02  -1.023452e-02  0 
 -1.254643e-02  -9.706442e-03  0 
 -1.292724e-02  -9.435647e-03  0 
 -1.338734e-02  -9.179930e-03  0 
 -1.308194e-02  -9.280024e-03  0 
 -2.341593e-02  -2.014606e-02  0 
 -2.018458e-02  -1.654647e-02  0 
 -1.846504e-02  -1.410782e-02  0 
 -1.768426e-02  -1.255591e-02  0 
 -1.749045e-02  -1.168280e-02  0 
 -1.765317e-02  -1.157359e-02  0 
 -1.722195e-02  -1.271770e-02  0 
 -1.484484e-02  -1.470245e-02  0 
VECTORS displacement_ITER6 FLOAT
 0  0  0 
 -3.328699e-03  -4.263827e-03  0 
 -1.181689e-03  -7.382940e-04  0 
 -1.877893e-03  -1.393930e-03  0 
 -2.331190e-03  -1.979403e-03  0 
 -2.624509e-03  -2.483737e-03  0 
 -2.810937e-03  -2.907298e-03  0 
 -2.938484e-03  -3.260890e-03  0 
 -3.050110e-03  -3.569793e-03  0 
 -3.178542e-03  -3.876443e-03  0 
 -1.423618e-02  -1.023805e-02  0 
 -2.254488e-02  -1.543827e-02  0 
 -3.068850e-02  -2.257734e-02  0 
 0  0  0 
 0  0  0 
 0  0  0 
 0  0  0 
 0  0  0 
 -4.926749e-20  -3.702318e-19  0 
 -2.941490e-03  -4.174890e-03  0 
 -2.653137e-03  -4.070902e-03  0 
 -2.447825e-03  -3.963221e-03  0 
 -2.342722e-03  -3.864134e-03  0 
 -2.382407e-03  -3.774428e-03  0 
 -2.691659e-03  -3.677971e-03  0 
 -3.593160e-03  -3.640460e-03  0 
 -7.064597e-04  -5.445377e-04  0 
 -5.503622e-04  -5.207184e-04  0 
 -4.683854e-04  -5.222328e-04  0 
 -3.999580e-04  -5.125127e-04  0 
 -2.992283e-04  -4.770426e-04  0 
 -6.242236e-05  -4.279980e-04  0 
 -1.370386e-03  -1.242026e-03  0 
 -1.077429e-03  -1.150703e-03  0 
 -9.276767e-04  -1.133378e-03  0 
 -8.175477e-04  -1.134946e-03  0 
 -6.649322e-04  -1.128231e-03  0 
 -3.855819e-04  -1.085250e-03  0 
 -1.864472e-03  -1.872119e-03  0 
 -1.547937e-03  -1.794877e-03  0 
 -1.354935e-03  -1.775663e-03  0 
 -1.227715e-03  -1.803764e-03  0 
 -1.086256e-03  -1.835570e-03  0 
 -8.532124e-04  -1.822377e-03  0 
 -2.215034e-03  -2.414221e-03  0 
 -1.914734e-03  -2.367619e-03  0 
 -1.718406e-03  -2.374395e-03  0 
 -1.602877e-03  -2.435448e-03  0 
 -1.527355e-03  -2.519673e-03  0 
 -1.406182e-03  -2.550868e-03  0 
 -2.456956e-03  -2.863257e-03  0 
 -2.179517e-03  -2.842156e-03  0 
 -1.994972e-03  -2.874123e-03  0 
 -1.911882e-03  -2.966032e-03  0 
 -1.921460e-03  -3.088434e-03  0 
 -2.067051e-03  -3.146614e-03  0 
 -2.034947e-03  -3.113795e-03  0 
 -2.624811e-03  -3.229479e-03  0 
 -2.360862e-03  -3.220128e-03  0 
 -2.182799e-03  -3.258686e-03  0 
 -2.125403e-03  -3.360479e-03  0 
 -2.217628e-03  -3.521565e-03  0 
 -2.397861e-03  -3.747100e-03  0 
 -2.384902e-03  -4.000512e-03  0 
 -2.748942e-03  -3.539894e-03  0 
 -2.482379e-03  -3.527062e-03  0 
 -2.298475e-03  -3.545306e-03  0 
 -2.237591e-03  -3.620781e-03  0 
 -2.332049e-03  -3.804077e-03  0 
 -2.585195e-03  -4.147420e-03  0 
 -2.952435e-03  -4.578458e-03  0 
 -2.848732e-03  -3.839548e-03  0 
 -2.569680e-03  -3.800709e-03  0 
 -2.374376e-03  -3.769284e-03  0 
 -2.286513e-03  -3.776023e-03  0 
 -2.345397e-03  -3.866499e-03  0 
 -2.653284e-03  -4.100352e-03  0 
 -3.386209e-03  -4.498820e-03  0 
 -1.016136e-02  -8.114604e-03  0 
 -8.395329e-03  -7.496250e-03  0 
 -7.523874e-03  -7.142500e-03  0 
 -7.188095e-03  -6.808275e-03  0 
 -7.186093e-03  -6.533047e-03  0 
 -7.493375e-03  -6.371258e-03  0 
 -8.185600e-03  -6.654676e-03  0 
 -1.174269e-02  -8.153644e-03  0 
 -1.734613e-02  -1.340664e-02  0 
 -1.417988e-02  -1.173889e-02  0 
 -1.278455e-02  -1.044726e-02  0 
 -1.215328e-02  -9.528408e-03  0 
 -1.196220e-02  -8.938224e-03  0 
 -1.207204e-02  -8.641050e-03  0 
 -1.253324e-02  -8.421738e-03  0 
 -1.317115e-02  -8.395299e-03  0 
 -2.347242e-02  -1.907809e-02  0 
 -2.024660e-02  -1.584655e-02  0 
 -1.836719e-02  -1.349304e-02  0 
 -1.731663e-02  -1.191675e-02  0 
 -1.673043e-02  -1.095165e-02  0 
 -1.652921e-02  -1.056396e-02  0 
 -1.641803e-02  -1.083352e-02  0 
 -1.512886e-02  -1.219168e-02  0 
VECTORS displacement_ITER7 FLOAT
 0  0  0 
 -3.327126e-03  -4.226339e-03  0 
 -1.170228e-03  -7.296044e-04  0 
 -1.861443e-03  -1.376008e-03  0 
 -2.314078e-03  -1.952701e-03  0 
 -2.609953e-03  -2.449804e-03  0 
 -2.800765e-03  -2.868505e-03  0 
 -2.932869e-03  -3.219964e-03  0 
 -3.047777e-03  -3.529115e-03  0 
 -3.177481e-03  -3.837368e-03  0 
 -1.406272e-02  -1.018053e-02  0 
 -2.202011e-02  -1.513682e-02  0 
 -2.959581e-02  -2.117446e-02  0 
 0  0  0 
 0  0  0 
 0  0  0 
 0  0  0 
 0  0  0 
 -3.834524e-20  -3.173170e-19  0 
 -2.938939e-03  -4.137992e-03  0 
 -2.649701e-03  -4.035201e-03  0 
 -2.441879e-03  -3.930427e-03  0 
 -2.331792e-03  -3.836540e-03  0 
 -2.362153e-03  -3.756397e-03  0 
 -2.646437e-03  -3.678075e-03  0 
 -3.478896e-03  -3.653875e-03  0 
 -7.012777e-04  -5.374121e-04  0 
 -5.478396e-04  -5.138050e-04  0 
 -4.688068e-04  -5.165945e-04  0 
 -4.065372e-04  -5.105946e-04  0 
 -3.201950e-04  -4.815559e-04  0 
 -1.195182e-04  -4.346855e-04  0 
 -1.361162e-03  -1.224716e-03  0 
 -1.072544e-03  -1.133424e-03  0 
 -9.267249e-04  -1.115735e-03  0 
 -8.250937e-04  -1.117959e-03  0 
 -6.945267e-04  -1.113291e-03  0 
 -4.645272e-04  -1.075081e-03  0 
 -1.854049e-03  -1.844992e-03  0 
 -1.542152e-03  -1.766543e-03  0 
 -1.353543e-03  -1.744346e-03  0 
 -1.233710e-03  -1.767223e-03  0 
 -1.110734e-03  -1.795346e-03  0 
 -9.172729e-04  -1.786304e-03  0 
 -2.205806e-03  -2.379087e-03  0 
 -1.909771e-03  -2.330323e-03  0 
 -1.717643e-03  -2.332707e-03  0 
 -1.607190e-03  -2.386402e-03  0 
 -1.536096e-03  -2.460670e-03  0 
 -1.429735e-03  -2.497158e-03  0 
 -2.450209e-03  -2.823002e-03  0 
 -2.176023e-03  -2.799665e-03  0 
 -1.994345e-03  -2.827846e-03  0 
 -1.912754e-03  -2.914998e-03  0 
 -1.918978e-03  -3.033556e-03  0 
 -2.026307e-03  -3.088103e-03  0 
 -1.966520e-03  -3.060157e-03  0 
 -2.620569e-03  -3.187377e-03  0 
 -2.358375e-03  -3.176615e-03  0 
 -2.180991e-03  -3.213376e-03  0 
 -2.120819e-03  -3.314128e-03  0 
 -2.202874e-03  -3.478707e-03  0 
 -2.371150e-03  -3.709159e-03  0 
 -2.373313e-03  -3.953250e-03  0 
 -2.746311e-03  -3.498671e-03  0 
 -2.479976e-03  -3.485652e-03  0 
 -2.294876e-03  -3.504375e-03  0 
 -2.228747e-03  -3.581254e-03  0 
 -2.313048e-03  -3.764771e-03  0 
 -2.559060e-03  -4.105399e-03  0 
 -2.941061e-03  -4.542979e-03  0 
 -2.846565e-03  -3.800584e-03  0 
 -2.566716e-03  -3.762572e-03  0 
 -2.369285e-03  -3.733173e-03  0 
 -2.276707e-03  -3.742868e-03  0 
 -2.327119e-03  -3.834900e-03  0 
 -2.616986e-03  -4.066965e-03  0 
 -3.317932e-03  -4.479226e-03  0 
 -1.013255e-02  -8.079825e-03  0 
 -8.484298e-03  -7.406683e-03  0 
 -7.609001e-03  -7.004111e-03  0 
 -7.178409e-03  -6.652924e-03  0 
 -7.051201e-03  -6.383777e-03  0 
 -7.254916e-03  -6.242808e-03  0 
 -7.817660e-03  -6.462747e-03  0 
 -1.114309e-02  -7.862940e-03  0 
 -1.736169e-02  -1.314578e-02  0 
 -1.443972e-02  -1.150642e-02  0 
 -1.299026e-02  -1.028154e-02  0 
 -1.215882e-02  -9.402836e-03  0 
 -1.171920e-02  -8.807287e-03  0 
 -1.162354e-02  -8.474464e-03  0 
 -1.205319e-02  -8.256078e-03  0 
 -1.302640e-02  -8.268013e-03  0 
 -2.356947e-02  -1.821416e-02  0 
 -2.061828e-02  -1.548859e-02  0 
 -1.865225e-02  -1.346805e-02  0 
 -1.733488e-02  -1.204317e-02  0 
 -1.641124e-02  -1.106607e-02  0 
 -1.591801e-02  -1.049061e-02  0 
 -1.578046e-02  -1.035149e-02  0 
 -1.527973e-02  -1.113445e-02  0 
VECTORS displacement_ITER8 FLOAT
 0  0  0 
 -3.303031e-03  -4.119998e-03  0 
 -1.150773e-03  -7.162289e-04  0 
 -1.831356e-03  -1.347850e-03  0 
 -2.278964e-03  -1.908965e-03  0 
 -2.574139e-03  -2.390966e-03  0 
 -2.767181e-03  -2.796155e-03  0 
 -2.902750e-03  -3.136386e-03  0 
 -3.020820e-03  -3.436572e-03  0 
 -3.152525e-03  -3.737465e-03  0 
 -1.402296e-02  -1.011177e-02  0 
 -2.183573e-02  -1.503026e-02  0 
 -2.904432e-02  -2.060790e-02  0 
 0  0  0 
 0  0  0 
 0  0  0 
 0  0  0 
 0  0  0 
 -3.912031e-20  -2.713607e-19  0 
 -2.921488e-03  -4.031544e-03  0 
 -2.639561e-03  -3.929250e-03  0 
 -2.438367e-03  -3.825953e-03  0 
 -2.333453e-03  -3.734525e-03  0 
 -2.365328e-03  -3.659275e-03  0 
 -2.637096e-03  -3.590837e-03  0 
 -3.419769e-03  -3.566195e-03  0 
 -6.920046e-04  -5.270046e-04  0 
 -5.433513e-04  -5.036576e-04  0 
 -4.687570e-04  -5.070694e-04  0 
 -4.135269e-04  -5.032936e-04  0 
 -3.418633e-04  -4.780564e-04  0 
 -1.794364e-04  -4.292092e-04  0 
 -1.343883e-03  -1.198384e-03  0 
 -1.064041e-03  -1.107645e-03  0 
 -9.257102e-04  -1.089153e-03  0 
 -8.352907e-04  -1.090233e-03  0 
 -7.283551e-04  -1.083688e-03  0 
 -5.468355e-04  -1.044655e-03  0 
 -1.832479e-03  -1.801801e-03  0 
 -1.531239e-03  -1.722715e-03  0 
 -1.352509e-03  -1.697582e-03  0 
 -1.245229e-03  -1.714494e-03  0 
 -1.144155e-03  -1.736271e-03  0 
 -9.896419e-04  -1.726385e-03  0 
 -2.183133e-03  -2.319739e-03  0 
 -1.898436e-03  -2.269261e-03  0 
 -1.717230e-03  -2.267500e-03  0 
 -1.618637e-03  -2.314123e-03  0 
 -1.559345e-03  -2.379027e-03  0 
 -1.470999e-03  -2.416943e-03  0 
 -2.428491e-03  -2.749591e-03  0 
 -2.165281e-03  -2.724240e-03  0 
 -1.993863e-03  -2.748711e-03  0 
 -1.921373e-03  -2.831218e-03  0 
 -1.933064e-03  -2.946685e-03  0 
 -2.018472e-03  -3.001504e-03  0 
 -1.960027e-03  -2.985593e-03  0 
 -2.600582e-03  -3.102749e-03  0 
 -2.348261e-03  -3.090518e-03  0 
 -2.179426e-03  -3.125103e-03  0 
 -2.124670e-03  -3.223981e-03  0 
 -2.206249e-03  -3.390434e-03  0 
 -2.375294e-03  -3.623424e-03  0 
 -2.405062e-03  -3.858496e-03  0 
 -2.727840e-03  -3.405471e-03  0 
 -2.470076e-03  -3.391952e-03  0 
 -2.292110e-03  -3.410258e-03  0 
 -2.229564e-03  -3.486678e-03  0 
 -2.313665e-03  -3.667528e-03  0 
 -2.563152e-03  -4.002406e-03  0 
 -2.967969e-03  -4.443561e-03  0 