# vtk DataFile Version 3.1
this is an vtk file created by FEMAC
ASCII
DATASET UNSTRUCTURED_GRID
POINTS 101 FLOAT
0.000000 3.000000 0.000000
1.000000 3.000000 0.000000
0.111111 3.000000 0.000000
0.222222 3.000000 0.000000
0.333333 3.000000 0.000000
0.444444 3.000000 0.000000
0.555556 3.000000 0.000000
0.666667 3.000000 0.000000
0.777778 3.000000 0.000000
0.888889 3.000000 0.000000
0.000000 2.444444 0.000000
0.000000 2.555556 0.000000
0.000000 2.666667 0.000000
0.000000 2.777778 0.000000
0.000000 2.888889 0.000000
1.000000 2.333333 0.000000
1.000000 2.444444 0.000000
1.000000 2.555556 0.000000
1.000000 2.666667 0.000000
1.000000 2.777778 0.000000
1.000000 2.888889 0.000000
0.000000 3.111111 0.000000
0.000000 3.222222 0.000000
0.000000 3.333333 0.000000
1.000000 3.111111 0.000000
1.000000 3.222222 0.000000
1.000000 3.333333 0.000000
1.111111 3.000000 0.000000
0.111111 2.444444 0.000000
0.111111 2.555556 0.000000
0.111111 2.666667 0.000000
0.111111 2.777778 0.000000
0.111111 2.888889 0.000000
0.222222 2.444444 0.000000
0.222222 2.555556 0.000000
0.222222 2.666667 0.000000
0.222222 2.777778 0.000000
0.222222 2.888889 0.000000
0.333333 2.444444 0.000000
0.333333 2.555556 0.000000
0.333333 2.666667 0.000000
0.333333 2.777778 0.000000
0.333333 2.888889 0.000000
0.444444 2.444444 0.000000
0.444444 2.555556 0.000000
0.444444 2.666667 0.000000
0.444444 2.777778 0.000000
0.444444 2.888889 0.000000
0.555556 2.444444 0.000000
0.555556 2.555556 0.000000
0.555556 2.666667 0.000000
0.555556 2.777778 0.000000
0.555556 2.888889 0.000000
0.666667 2.444444 0.000000
0.666667 2.555556 0.000000
0.666667 2.666667 0.000000
0.666667 2.777778 0.000000
0.666667 2.888889 0.000000
0.777778 2.444444 0.000000
0.777778 2.555556 0.000000
0.777778 2.666667 0.000000
0.777778 2.777778 0.000000
0.777778 2.888889 0.000000
0.888889 2.444444 0.000000
0.888889 2.555556 0.000000
0.888889 2.666667 0.000000
0.888889 2.777778 0.000000
0.888889 2.888889 0.000000
0.111111 3.111111 0.000000
0.111111 3.222222 0.000000
0.111111 3.333333 0.000000
0.222222 3.111111 0.000000
0.222222 3.222222 0.000000
0.222222 3.333333 0.000000
0.333333 3.111111 0.000000
0.333333 3.222222 0.000000
0.333333 3.333333 0.000000
0.444444 3.111111 0.000000
0.444444 3.222222 0.000000
0.444444 3.333333 0.000000
0.555556 3.111111 0.000000
0.555556 3.222222 0.000000
0.555556 3.333333 0.000000
0.666667 3.111111 0.000000
0.666667 3.222222 0.000000
0.666667 3.333333 0.000000
0.777778 3.111111 0.000000
0.777778 3.222222 0.000000
0.777778 3.333333 0.000000
0.888889 3.111111 0.000000
0.888889 3.222222 0.000000
0.888889 3.333333 0.000000
1.111111 2.333333 0.000000
1.111111 2.444444 0.000000
1.111111 2.555556 0.000000
1.111111 2.666667 0.000000
1.111111 2.777778 0.000000
1.111111 2.888889 0.000000
1.111111 3.111111 0.000000
1.111111 3.222222 0.000000
1.111111 3.333333 0.000000
CELLS 81 405 
4 10 28 29 11
4 11 29 30 12
4 12 30 31 13
4 13 31 32 14
4 14 32  2  0
4 28 33 34 29
4 29 34 35 30
4 30 35 36 31
4 31 36 37 32
4 32 37  3  2
4 33 38 39 34
4 34 39 40 35
4 35 40 41 36
4 36 41 42 37
4 37 42  4  3
4 38 43 44 39
4 39 44 45 40
4 40 45 46 41
4 41 46 47 42
4 42 47  5  4
4 43 48 49 44
4 44 49 50 45
4 45 50 51 46
4 46 51 52 47
4 47 52  6  5
4 48 53 54 49
4 49 54 55 50
4 50 55 56 51
4 51 56 57 52
4 52 57  7  6
4 53 58 59 54
4 54 59 60 55
4 55 60 61 56
4 56 61 62 57
4 57 62  8  7
4 58 63 64 59
4 59 64 65 60
4 60 65 66 61
4 61 66 67 62
4 62 67  9  8
4 63 16 17 64
4 64 17 18 65
4 65 18 19 66
4 66 19 20 67
4 67 20  1  9
4 0  2 68 21
4 21 68 69 22
4 22 69 70 23
4 2  3 71 68
4 68 71 72 69
4 69 72 73 70
4 3  4 74 71
4 71 74 75 72
4 72 75 76 73
4 4  5 77 74
4 74 77 78 75
4 75 78 79 76
4 5  6 80 77
4 77 80 81 78
4 78 81 82 79
4 6  7 83 80
4 80 83 84 81
4 81 84 85 82
4 7  8 86 83
4 83 86 87 84
4 84 87 88 85
4 8  9 89 86
4 86 89 90 87
4 87 90 91 88
4 9  1 24 89
4 89 24 25 90
4 90 25 26 91
4 15 92 93 16
4 16 93 94 17
4 17 94 95 18
4 18 95 96 19
4 19 96 97 20
4 20 97 27  1
4 1 27 98 24
4 24 98 99 25
4 25  99 100  26
CELL_TYPES 81
9 9 9 9 9 9 9 9 9 9 9 9 9 9 9 9 9 9 9 9 9 9 9 9 9 9 9 9 9 9 9 9 9 9 9 9 9 9 9 9 9 9 9 9 9 9 9 9 9 9 9 9 9 9 9 9 9 9 9 9 9 9 9 9 9 9 9 9 9 9 9 9 9 9 9 9 9 9 9 9 9 
POINT_DATA 101
VECTORS displacement_ITER1 FLOAT
 0  0  0 
 -1.924110e-03  -8.709241e-03  0 
 9.749900e-04  -6.846217e-04  0 
 1.536238e-03  -1.524138e-03  0 
 1.807958e-03  -2.489255e-03  0 
 1.820248e-03  -3.500327e-03  0 
 1.609655e-03  -4.485265e-03  0 
 1.227936e-03  -5.405801e-03  0 
 7.079335e-04  -6.292630e-03  0 
 -6.782544e-05  -7.232640e-03  0 
 -5.107752e-20  -3.703497e-20  0 
 0  0  0 
 0  0  0 
 0  0  0 
 0  0  0 
 -1.196956e-03  -6.821685e-03  0 
 4.533901e-04  -5.563978e-03  0 
 -1.773509e-04  -5.914995e-03  0 
 -3.850968e-04  -6.386565e-03  0 
 -4.309845e-04  -6.818286e-03  0 
 -6.134477e-04  -7.331776e-03  0 
 0  0  0 
 0  0  0 
 4.433219e-21  8.897777e-21  0 
 -1.292246e-03  -1.077492e-02  0 
 -9.192428e-04  -1.168088e-02  0 
 -4.987355e-04  -1.228875e-02  0 
 -4.368516e-03  -1.354063e-02  0 
 -1.155833e-03  -7.128381e-04  0 
 -4.947562e-04  -5.343639e-04  0 
 -1.589220e-04  -5.206765e-04  0 
 1.093608e-04  -5.199215e-04  0 
 4.119252e-04  -5.312484e-04  0 
 -1.811002e-03  -1.608577e-03  0 
 -9.201391e-04  -1.485635e-03  0 
 -2.992838e-04  -1.406599e-03  0 
 1.990887e-04  -1.385035e-03  0 
 7.666543e-04  -1.424769e-03  0 
 -2.092493e-03  -2.651048e-03  0 
 -1.141246e-03  -2.593384e-03  0 
 -4.094211e-04  -2.514699e-03  0 
 2.379123e-04  -2.462201e-03  0 
 9.382257e-04  -2.457454e-03  0 
 -2.036136e-03  -3.733243e-03  0 
 -1.175122e-03  -3.740025e-03  0 
 -4.756656e-04  -3.674053e-03  0 
 1.905725e-04  -3.593474e-03  0 
 9.280945e-04  -3.535034e-03  0 
 -1.682036e-03  -4.725955e-03  0 
 -1.060294e-03  -4.792614e-03  0 
 -5.240012e-04  -4.752734e-03  0 
 5.330519e-05  -4.666074e-03  0 
 7.527836e-04  -4.572302e-03  0 
 -1.105837e-03  -5.492167e-03  0 
 -8.393027e-04  -5.609515e-03  0 
 -5.671010e-04  -5.635386e-03  0 
 -1.714588e-04  -5.608033e-03  0 
 4.293878e-04  -5.524891e-03  0 
 -4.344466e-04  -5.921685e-03  0 
 -5.746382e-04  -6.073003e-03  0 
 -5.656084e-04  -6.198453e-03  0 
 -4.373990e-04  -6.372219e-03  0 
 -3.763674e-05  -6.408980e-03  0 
 1.414633e-04  -5.932853e-03  0 
 -3.415983e-04  -6.151168e-03  0 
 -5.012662e-04  -6.402094e-03  0 
 -5.142039e-04  -6.770840e-03  0 
 -6.366185e-04  -7.301461e-03  0 
 7.665822e-04  -8.945048e-04  0 
 9.885451e-04  -8.794714e-04  0 
 1.753637e-03  -1.010840e-03  0 
 1.416535e-03  -1.760561e-03  0 
 1.774305e-03  -1.828289e-03  0 
 2.530603e-03  -1.690755e-03  0 
 1.765089e-03  -2.716866e-03  0 
 2.132130e-03  -2.685479e-03  0 
 2.826685e-03  -2.320735e-03  0 
 1.776517e-03  -3.715369e-03  0 
 2.111210e-03  -3.644612e-03  0 
 2.823541e-03  -3.184916e-03  0 
 1.510458e-03  -4.773620e-03  0 
 1.883077e-03  -4.772655e-03  0 
 2.611093e-03  -4.524006e-03  0 
 1.023060e-03  -5.943281e-03  0 
 1.524435e-03  -6.145659e-03  0 
 2.703811e-03  -6.276731e-03  0 
 3.527524e-04  -7.256332e-03  0 
 9.807507e-04  -7.874046e-03  0 
 2.738775e-03  -8.311629e-03  0 
 -4.696257e-04  -8.674176e-03  0 
 1.978868e-04  -9.900883e-03  0 
 1.729885e-03  -1.040174e-02  0 
 -7.423586e-03  -1.797962e-02  0 
 -1.337813e-04  -1.338287e-02  0 
 1.573374e-04  -1.048424e-02  0 
 -7.871688e-04  -1.001593e-02  0 
 -1.419101e-03  -9.948149e-03  0 
 -1.316864e-03  -1.002819e-02  0 
 -1.108450e-03  -1.148922e-02  0 
 -7.882440e-04  -1.212273e-02  0 
 -2.137143e-04  -1.298548e-02  0 
VECTORS displacement_ITER2 FLOAT
 0  0  0 
 -9.789577e-04  -8.827224e-03  0 
 9.346251e-04  -6.401654e-04  0 
 1.495174e-03  -1.412494e-03  0 
 1.804687e-03  -2.303594e-03  0 
 1.892185e-03  -3.251867e-03  0 
 1.788117e-03  -4.201516e-03  0 
 1.534703e-03  -5.125065e-03  0 
 1.160202e-03  -6.057369e-03  0 
 5.686217e-04  -7.097634e-03  0 
 -4.602607e-20  -3.329356e-20  0 
 0  0  0 
 0  0  0 
 0  0  0 
 0  0  0 
 -1.223862e-03  -6.678693e-03  0 
 9.099353e-05  -5.754425e-03  0 
 -2.557255e-04  -6.042011e-03  0 
 -2.797085e-04  -6.450121e-03  0 
 -1.760009e-04  -6.867909e-03  0 
 -1.610023e-04  -7.422143e-03  0 
 0  0  0 
 0  0  0 
 -3.842031e-22  6.140518e-21  0 
 5.258136e-04  -1.091659e-02  0 
 1.393073e-03  -1.197148e-02  0 
 1.944391e-03  -1.243015e-02  0 
 -3.132779e-03  -1.416940e-02  0 
 -9.518763e-04  -6.275924e-04  0 
 -3.978706e-04  -4.842863e-04  0 
 -1.061239e-04  -4.716857e-04  0 
 1.359633e-04  -4.712379e-04  0 
 4.143723e-04  -4.870015e-04  0 
 -1.490711e-03  -1.428731e-03  0 
 -7.427066e-04  -1.332179e-03  0 
 -1.999709e-04  -1.268361e-03  0 
 2.554249e-04  -1.255816e-03  0 
 7.838434e-04  -1.304484e-03  0 
 -1.740935e-03  -2.375768e-03  0 
 -9.274882e-04  -2.332081e-03  0 
 -2.733909e-04  -2.272779e-03  0 
 3.293378e-04  -2.239661e-03  0 
 9.911881e-04  -2.253015e-03  0 
 -1.735546e-03  -3.384274e-03  0 
 -9.699967e-04  -3.392141e-03  0 
 -3.187454e-04  -3.345834e-03  0 
 3.229842e-04  -3.290867e-03  0 
 1.038316e-03  -3.258598e-03  0 
 -1.501201e-03  -4.347882e-03  0 
 -9.013481e-04  -4.404611e-03  0 
 -3.606280e-04  -4.380950e-03  0 
 2.303607e-04  -4.319754e-03  0 
 9.382163e-04  -4.254814e-03  0 
 -1.087557e-03  -5.148619e-03  0 
 -7.506176e-04  -5.248401e-03  0 
 -4.090516e-04  -5.282676e-03  0 
 5.028094e-05  -5.270450e-03  0 
 7.021148e-04  -5.209529e-03  0 
 -5.857399e-04  -5.685449e-03  0 
 -5.601898e-04  -5.815103e-03  0 
 -4.234105e-04  -5.938816e-03  0 
 -1.809560e-04  -6.106050e-03  0 
 3.267757e-04  -6.143816e-03  0 
 -1.450015e-04  -5.879227e-03  0 
 -3.852450e-04  -6.063639e-03  0 
 -3.776091e-04  -6.296849e-03  0 
 -2.535857e-04  -6.648064e-03  0 
 -1.932107e-04  -7.145645e-03  0 
 5.868142e-04  -1.011332e-03  0 
 7.180821e-04  -1.089976e-03  0 
 1.425907e-03  -1.231985e-03  0 
 1.169560e-03  -1.900978e-03  0 
 1.314563e-03  -2.185095e-03  0 
 1.859516e-03  -2.175347e-03  0 
 1.548586e-03  -2.821205e-03  0 
 1.619089e-03  -3.102624e-03  0 
 1.925083e-03  -3.007669e-03  0 
 1.663399e-03  -3.763507e-03  0 
 1.727995e-03  -4.007675e-03  0 
 1.912428e-03  -3.970082e-03  0 
 1.587663e-03  -4.764578e-03  0 
 1.704913e-03  -5.125033e-03  0 
 2.204882e-03  -5.187638e-03  0 
 1.390702e-03  -5.878047e-03  0 
 1.766634e-03  -6.487171e-03  0 
 2.603624e-03  -7.286303e-03  0 
 1.108024e-03  -7.152026e-03  0 
 1.795688e-03  -8.113866e-03  0 
 3.205225e-03  -8.942183e-03  0 
 7.478666e-04  -8.615110e-03  0 
 1.713423e-03  -1.002482e-02  0 
 3.083378e-03  -1.094394e-02  0 
 -7.121350e-03  -1.683085e-02  0 
 -6.745169e-04  -1.276284e-02  0 
 -4.994524e-04  -1.040269e-02  0 
 -1.313427e-03  -9.857179e-03  0 
 -1.701427e-03  -9.956979e-03  0 
 -1.443350e-03  -1.023859e-02  0 
 8.000471e-04  -1.237714e-02  0 
 1.536016e-03  -1.276371e-02  0 
 2.146512e-03  -1.336167e-02  0 
VECTORS displacement_ITER3 FLOAT
 0  0  0 
 -3.562456e-04  -7.934146e-03  0 
 8.241308e-04  -5.586154e-04  0 
 1.328243e-03  -1.214924e-03  0 
 1.629503e-03  -1.966845e-03  0 
 1.756594e-03  -2.772664e-03  0 
 1.733123e-03  -3.595320e-03  0 
 1.587822e-03  -4.418842e-03  0 
 1.336823e-03  -5.276917e-03  0 
 8.976790e-04  -6.260878e-03  0 
 -3.743415e-20  -2.722824e-20  0 
 0  0  0 
 0  0  0 
 0  0  0 
 0  0  0 
 -1.125615e-03  -5.964794e-03  0 
 -1.298005e-04  -5.314328e-03  0 
 -2.214635e-04  -5.502435e-03  0 
 -1.135137e-04  -5.800058e-03  0 
 6.282708e-05  -6.145143e-03  0 
 1.651052e-04  -6.653718e-03  0 
 0  0  0 
 0  0  0 
 -8.357020e-22  4.566859e-21  0 
 1.171414e-03  -9.707108e-03  0 
 2.274572e-03  -1.059801e-02  0 
 3.047266e-03  -1.098863e-02  0 
 -2.067127e-03  -1.255301e-02  0 
 -6.696918e-04  -5.090080e-04  0 
 -2.642154e-04  -4.140679e-04  0 
 -4.280352e-05  -4.041886e-04  0 
 1.504129e-04  -4.029270e-04  0 
 3.812443e-04  -4.193749e-04  0 
 -1.034263e-03  -1.166297e-03  0 
 -4.936302e-04  -1.106049e-03  0 
 -8.091866e-05  -1.062355e-03  0 
 2.864734e-04  -1.058403e-03  0 
 7.288660e-04  -1.110007e-03  0 
 -1.212392e-03  -1.948095e-03  0 
 -6.173535e-04  -1.924413e-03  0 
 -1.103487e-04  -1.889438e-03  0 
 3.838519e-04  -1.877376e-03  0 
 9.426205e-04  -1.905704e-03  0 
 -1.234485e-03  -2.795783e-03  0 
 -6.532428e-04  -2.807199e-03  0 
 -1.296608e-04  -2.785900e-03  0 
 4.110019e-04  -2.761192e-03  0 
 1.025538e-03  -2.755798e-03  0 
 -1.113889e-03  -3.632112e-03  0 
 -6.229466e-04  -3.678165e-03  0 
 -1.594185e-04  -3.676605e-03  0 
 3.609674e-04  -3.648382e-03  0 
 9.869125e-04  -3.616342e-03  0 
 -8.734382e-04  -4.368283e-03  0 
 -5.398862e-04  -4.445831e-03  0 
 -2.044125e-04  -4.491666e-03  0 
 2.308770e-04  -4.501686e-03  0 
 8.316008e-04  -4.468854e-03  0 
 -5.642920e-04  -4.925245e-03  0 
 -4.244116e-04  -5.022577e-03  0 
 -2.243719e-04  -5.137531e-03  0 
 4.838190e-05  -5.293015e-03  0 
 5.498004e-04  -5.334668e-03  0 
 -2.823629e-04  -5.238279e-03  0 
 -3.104901e-04  -5.366709e-03  0 
 -1.912131e-04  -5.556770e-03  0 
 -7.835189e-06  -5.859590e-03  0 
 1.263982e-04  -6.292820e-03  0 
 3.237518e-04  -1.077488e-03  0 
 3.613707e-04  -1.206697e-03  0 
 9.628202e-04  -1.293606e-03  0 
 7.167319e-04  -1.958039e-03  0 
 6.340463e-04  -2.378106e-03  0 
 9.782319e-04  -2.387756e-03  0 
 9.675306e-04  -2.849290e-03  0 
 6.967098e-04  -3.381278e-03  0 
 7.129211e-04  -3.417335e-03  0 
 1.038370e-03  -3.765432e-03  0 
 6.541629e-04  -4.402510e-03  0 
 4.728059e-04  -4.641075e-03  0 
 1.068621e-03  -4.693987e-03  0 
 5.832619e-04  -5.671877e-03  0 
 6.364078e-04  -6.192412e-03  0 
 1.147119e-03  -5.625934e-03  0 
 9.107407e-04  -6.947336e-03  0 
 7.873185e-04  -8.740213e-03  0 
 1.254452e-03  -6.587318e-03  0 
 1.436330e-03  -8.080302e-03  0 
 1.706517e-03  -9.648817e-03  0 
 1.236457e-03  -7.710791e-03  0 
 2.007036e-03  -9.149932e-03  0 
 2.228524e-03  -1.055835e-02  0 
 -4.410537e-03  -1.262633e-02  0 
 -4.679128e-04  -1.024691e-02  0 
 -2.364738e-04  -8.860749e-03  0 
 -7.245291e-04  -8.457132e-03  0 
 -8.920097e-04  -8.643927e-03  0 
 -7.387859e-04  -8.971949e-03  0 
 1.416729e-03  -1.133416e-02  0 
 2.368525e-03  -1.164155e-02  0 
 3.207381e-03  -1.201200e-02  0 
VECTORS displacement_ITER4 FLOAT
 0  0  0 
 2.098759e-04  -7.743792e-03  0 
 7.861237e-04  -5.146151e-04  0 
 1.283523e-03  -1.108085e-03  0 
 1.605974e-03  -1.789610e-03  0 
 1.780532e-03  -2.530881e-03  0 
 1.825511e-03  -3.307010e-03  0 
 1.761575e-03  -4.109195e-03  0 
 1.600109e-03  -4.971137e-03  0 
 1.270981e-03  -5.984432e-03  0 
 -3.157488e-20  -2.465877e-20  0 
 0  0  0 
 0  0  0 
 0  0  0 
 0  0  0 
 -1.123856e-03  -5.725744e-03  0 
 -3.024815e-04  -5.279646e-03  0 
 -2.036855e-04  -5.408030e-03  0 
 1.723711e-05  -5.648921e-03  0 
 2.743930e-04  -5.968555e-03  0 
 4.756705e-04  -6.479299e-03  0 
 0  0  0 
 0  0  0 
 9.854162e-21  8.213038e-21  0 
 1.390893e-03  -9.279551e-03  0 
 2.611738e-03  -9.982580e-03  0 
 3.732934e-03  -1.027382e-02  0 
 -1.143552e-03  -1.138614e-02  0 
 -5.048172e-04  -4.432355e-04  0 
 -1.820867e-04  -3.749842e-04  0 
 3.067132e-06  -3.652648e-04  0 
 1.730064e-04  -3.626426e-04  0 
 3.816895e-04  -3.799073e-04  0 
 -7.702647e-04  -1.026302e-03  0 
 -3.417381e-04  -9.843216e-04  0 
 4.929882e-06  -9.498964e-04  0 
 3.320700e-04  -9.492580e-04  0 
 7.366945e-04  -1.002604e-03  0 
 -9.100473e-04  -1.727119e-03  0 
 -4.291973e-04  -1.711597e-03  0 
 6.893211e-06  -1.687612e-03  0 
 4.548231e-04  -1.685418e-03  0 
 9.725502e-04  -1.721351e-03  0 
 -9.524598e-04  -2.501321e-03  0 
 -4.621438e-04  -2.511684e-03  0 
 6.530200e-06  -2.501793e-03  0 
 5.109801e-04  -2.492044e-03  0 
 1.092529e-03  -2.500535e-03  0 
 -9.032245e-04  -3.288051e-03  0 
 -4.565019e-04  -3.326176e-03  0 
 -1.430017e-05  -3.335504e-03  0 
 4.930596e-04  -3.324471e-03  0 
 1.103517e-03  -3.310000e-03  0 
 -7.700459e-04  -4.015251e-03  0 
 -4.160461e-04  -4.080440e-03  0 
 -5.690863e-05  -4.133863e-03  0 
 3.972331e-04  -4.156656e-03  0 
 1.006696e-03  -4.139376e-03  0 
 -5.811074e-04  -4.616822e-03  0 
 -3.471494e-04  -4.698512e-03  0 
 -7.969478e-05  -4.813618e-03  0 
 2.456882e-04  -4.966263e-03  0 
 7.880590e-04  -5.010841e-03  0 
 -4.013586e-04  -5.036899e-03  0 
 -2.692571e-04  -5.138805e-03  0 
 -5.205306e-05  -5.311630e-03  0 
 2.016450e-04  -5.596658e-03  0 
 4.242180e-04  -6.003633e-03  0 
 4.320263e-04  -9.151979e-04  0 
 5.012464e-04  -1.024788e-03  0 
 1.004368e-03  -1.129764e-03  0 
 9.121137e-04  -1.664720e-03  0 
 9.437780e-04  -1.982916e-03  0 
 1.272006e-03  -1.997381e-03  0 
 1.258984e-03  -2.429145e-03  0 
 1.198390e-03  -2.786229e-03  0 
 1.329108e-03  -2.758776e-03  0 
 1.448473e-03  -3.213391e-03  0 
 1.325059e-03  -3.622213e-03  0 
 1.366532e-03  -3.659286e-03  0 
 1.562505e-03  -4.032191e-03  0 
 1.450334e-03  -4.608607e-03  0 
 1.547956e-03  -4.898776e-03  0 
 1.649711e-03  -4.921601e-03  0 
 1.785231e-03  -5.690503e-03  0 
 2.106732e-03  -6.715521e-03  0 
 1.692811e-03  -5.943352e-03  0 
 2.209119e-03  -6.879278e-03  0 
 3.019366e-03  -7.835986e-03  0 
 1.606496e-03  -7.213296e-03  0 
 2.546832e-03  -8.239836e-03  0 
 3.435928e-03  -8.971990e-03  0 
 -3.741920e-03  -1.102626e-02  0 
 -6.530801e-04  -9.328769e-03  0 
 -2.019346e-04  -8.551821e-03  0 
 -3.076080e-04  -8.260106e-03  0 
 -1.150263e-04  -8.574845e-03  0 
 4.712677e-05  -8.853577e-03  0 
 1.632050e-03  -1.085400e-02  0 
 2.656007e-03  -1.130089e-02  0 
 3.854037e-03  -1.160966e-02  0 
VECTORS displacement_ITER5 FLOAT
 0  0  0 
 5.395165e-04  -7.913793e-03  0 
 7.730641e-04  -4.954769e-04  0 
 1.274137e-03  -1.058420e-03  0 
 1.617933e-03  -1.707048e-03  0 
 1.830952e-03  -2.423627e-03  0 
 1.927013e-03  -3.192936e-03  0 
 1.919294e-03  -4.012054e-03  0 
 1.812845e-03  -4.916314e-03  0 
 1.538671e-03  -6.000593e-03  0 
 -2.340557e-20  -2.046000e-20  0 
 0  0  0 
 0  0  0 
 0  0  0 
 0  0  0 
 -1.187680e-03  -5.713502e-03  0 
 -5.245358e-04  -5.459783e-03  0 
 -2.539811e-04  -5.539374e-03  0 
 6.969090e-05  -5.737617e-03  0 
 3.958799e-04  -6.046531e-03  0 
 6.668401e-04  -6.582592e-03  0 
 0  0  0 
 0  0  0 
 1.115243e-20  8.094754e-21  0 
 1.271160e-03  -9.385740e-03  0 
 2.353984e-03  -1.000660e-02  0 
 3.525852e-03  -1.026396e-02  0 
 -6.524573e-04  -1.085052e-02  0 
 -3.793374e-04  -4.063124e-04  0 
 -1.227284e-04  -3.587380e-04  0 
 3.533735e-05  -3.478578e-04  0 
 1.904139e-04  -3.431308e-04  0 
 3.873311e-04  -3.609619e-04  0 
 -5.725288e-04  -9.458667e-04  0 
 -2.346402e-04  -9.188182e-04  0 
 6.333259e-05  -8.913391e-04  0 
 3.660576e-04  -8.932413e-04  0 
 7.524460e-04  -9.493921e-04  0 
 -6.935939e-04  -1.600491e-03  0 
 -3.025658e-04  -1.593060e-03  0 
 8.354620e-05  -1.579439e-03  0 
 5.059313e-04  -1.586583e-03  0 
 1.006825e-03  -1.630480e-03  0 
 -7.677766e-04  -2.338862e-03  0 
 -3.440764e-04  -2.351385e-03  0 
 9.021964e-05  -2.354143e-03  0 
 5.797773e-04  -2.359009e-03  0 
 1.153832e-03  -2.380538e-03  0 
 -7.913682e-04  -3.112813e-03  0 
 -3.694309e-04  -3.149234e-03  0 
 6.693781e-05  -3.172820e-03  0 
 5.790473e-04  -3.179357e-03  0 
 1.197916e-03  -3.180592e-03  0 
 -7.567466e-04  -3.861414e-03  0 
 -3.724975e-04  -3.922730e-03  0 
 1.636726e-05  -3.990783e-03  0 
 4.987889e-04  -4.030255e-03  0 
 1.136014e-03  -4.027211e-03  0 
 -6.722327e-04  -4.526340e-03  0 
 -3.466303e-04  -4.601777e-03  0 
 -1.496248e-05  -4.727775e-03  0 
 3.583525e-04  -4.891800e-03  0 
 9.483903e-04  -4.944010e-03  0 
 -5.787059e-04  -5.057750e-03  0 
 -2.996408e-04  -5.143221e-03  0 
 6.883543e-06  -5.311195e-03  0 
 3.194759e-04  -5.598568e-03  0 
 6.031768e-04  -6.012148e-03  0 
 4.248720e-04  -9.105094e-04  0 
 4.799067e-04  -1.054622e-03  0 
 9.363197e-04  -1.194698e-03  0 
 9.290711e-04  -1.636208e-03  0 
 9.513042e-04  -2.007055e-03  0 
 1.238538e-03  -2.116573e-03  0 
 1.326766e-03  -2.363385e-03  0 
 1.283591e-03  -2.774118e-03  0 
 1.394538e-03  -2.862033e-03  0 
 1.577971e-03  -3.105199e-03  0 
 1.499230e-03  -3.532306e-03  0 
 1.539417e-03  -3.636287e-03  0 
 1.726552e-03  -3.895094e-03  0 
 1.677396e-03  -4.394978e-03  0 
 1.756584e-03  -4.627405e-03  0 
 1.800625e-03  -4.785539e-03  0 
 1.936215e-03  -5.389031e-03  0 
 2.222818e-03  -6.013623e-03  0 
 1.792567e-03  -5.848285e-03  0 
 2.215991e-03  -6.599776e-03  0 
 2.991518e-03  -7.289469e-03  0 
 1.639189e-03  -7.215066e-03  0 
 2.427980e-03  -8.101138e-03  0 
 3.368658e-03  -8.703077e-03  0 
 -3.627394e-03  -1.043931e-02  0 
 -1.033720e-03  -9.078124e-03  0 
 -4.720992e-04  -8.660819e-03  0 
 -1.935946e-04  -8.505820e-03  0 
 2.741852e-04  -8.906102e-03  0 
 6.369493e-04  -9.210891e-03  0 
 1.506010e-03  -1.071548e-02  0 
 2.389285e-03  -1.131156e-02  0 
 3.629608e-03  -1.165266e-02  0 
VECTORS displacement_ITER6 FLOAT
 0  0  0 
 5.033852e-04  -8.104861e-03  0 
 7.565143e-04  -4.855841e-04  0 
 1.250160e-03  -1.034199e-03  0 
 1.596483e-03  -1.668126e-03  0 
 1.821835e-03  -2.376123e-03  0 
 1.936659e-03  -3.149217e-03  0 
 1.947558e-03  -3.988566e-03  0 
 1.851150e-03  -4.931407e-03  0 
 1.567646e-03  -6.073919e-03  0 
 -1.787650e-20  -1.735965e-20  0 
 0  0  0 
 0  0  0 
 0  0  0 
 0  0  0 
 -1.281932e-03  -5.749982e-03  0 
 -7.366434e-04  -5.588006e-03  0 
 -3.543912e-04  -5.643824e-03  0 
 2.791652e-05  -5.817097e-03  0 
 3.790415e-04  -6.121605e-03  0 
 6.563455e-04  -6.681577e-03  0 
 0  0  0 
 0  0  0 
 6.489832e-21  5.830575e-21  0 
 8.943877e-04  -9.591070e-03  0 
 1.880146e-03  -1.012452e-02  0 
 3.199441e-03  -1.033833e-02  0 
 -6.807621e-04  -1.073540e-02  0 
 -2.995373e-04  -3.879510e-04  0 
 -9.227330e-05  -3.546615e-04  0 
 4.624616e-05  -3.423191e-04  0 
 1.913198e-04  -3.352951e-04  0 
 3.812159e-04  -3.524375e-04  0 
 -4.539308e-04  -9.027197e-04  0 
 -1.827399e-04  -8.864015e-04  0 
 8.015488e-05  -8.638804e-04  0 
 3.663429e-04  -8.669462e-04  0 
 7.419590e-04  -9.239512e-04  0 
 -5.755894e-04  -1.530797e-03  0 
 -2.494526e-04  -1.530151e-03  0 
 1.004772e-04  -1.524811e-03  0 
 5.052711e-04  -1.538469e-03  0 
 9.965502e-04  -1.587061e-03  0 
 -6.843321e-04  -2.249667e-03  0 
 -3.089240e-04  -2.266393e-03  0 
 9.919245e-05  -2.280149e-03  0 
 5.776162e-04  -2.295851e-03  0 
 1.148074e-03  -2.325671e-03  0 
 -7.672548e-04  -3.018608e-03  0 
 -3.660210e-04  -3.058675e-03  0 
 6.149781e-05  -3.096319e-03  0 
 5.736957e-04  -3.117000e-03  0 
 1.198644e-03  -3.128391e-03  0 
 -8.053410e-04  -3.782727e-03  0 
 -4.061691e-04  -3.847944e-03  0 
 -5.677398e-06  -3.933589e-03  0 
 4.878973e-04  -3.989817e-03  0 
 1.141020e-03  -3.996860e-03  0 
 -7.944563e-04  -4.488016e-03  0 
 -4.130864e-04  -4.566316e-03  0 
 -4.912573e-05  -4.709413e-03  0 
 3.399368e-04  -4.893611e-03  0 
 9.495985e-04  -4.955724e-03  0 
 -7.595882e-04  -5.089741e-03  0 
 -3.881691e-04  -5.169274e-03  0 
 -3.190213e-05  -5.342980e-03  0 
 2.999864e-04  -5.645088e-03  0 
 5.864959e-04  -6.085336e-03  0 
 2.937337e-04  -1.023251e-03  0 
 2.934038e-04  -1.233315e-03  0 
 7.243678e-04  -1.394918e-03  0 
 7.333123e-04  -1.805325e-03  0 
 6.308780e-04  -2.333887e-03  0 
 8.435738e-04  -2.568777e-03  0 
 1.105910e-03  -2.568705e-03  0 
 8.977187e-04  -3.213097e-03  0 
 8.763463e-04  -3.526435e-03  0 
 1.349260e-03  -3.346105e-03  0 
 1.100508e-03  -4.032758e-03  0 
 9.597009e-04  -4.432474e-03  0 
 1.508715e-03  -4.165408e-03  0 
 1.231820e-03  -4.969201e-03  0 
 1.228809e-03  -5.416927e-03  0 
 1.614312e-03  -5.055204e-03  0 
 1.469183e-03  -5.977198e-03  0 
 1.381131e-03  -6.898874e-03  0 
 1.644854e-03  -6.068236e-03  0 
 1.742808e-03  -7.067508e-03  0 
 2.004659e-03  -7.991392e-03  0 
 1.456561e-03  -7.388328e-03  0 
 2.020847e-03  -8.328092e-03  0 
 2.463839e-03  -9.264292e-03  0 
 -3.254720e-03  -9.809563e-03  0 
 -1.202064e-03  -8.928091e-03  0 
 -5.748780e-04  -8.814339e-03  0 
 -1.841294e-04  -8.803160e-03  0 
 3.109496e-04  -9.215427e-03  0 
 5.888466e-04  -9.533653e-03  0 
 1.092467e-03  -1.073414e-02  0 
 1.912825e-03  -1.146045e-02  0 
 3.291676e-03  -1.190657e-02  0 
VECTORS displacement_ITER7 FLOAT
 0  0  0 
 3.780439e-04  -8.020674e-03  0 
 7.221063e-04  -4.617466e-04  0 
 1.196381e-03  -9.811780e-04  0 
 1.535085e-03  -1.583695e-03  0 
 1.763053e-03  -2.264182e-03  0 
 1.886751e-03  -3.019538e-03  0 
 1.906045e-03  -3.854224e-03  0 
 1.809396e-03  -4.805051e-03  0 
 1.506655e-03  -5.963819e-03  0 
 -1.197899e-20  -1.351666e-20  0 
 0  0  0 
 0  0  0 
 0  0  0 
 0  0  0 
 -1.331862e-03  -5.571655e-03  0 
 -8.993203e-04  -5.541485e-03  0 
 -4.350616e-04  -5.573666e-03  0 
 -1.997442e-05  -5.717389e-03  0 
 3.341441e-04  -6.005260e-03  0 
 5.948714e-04  -6.563737e-03  0 
 0  0  0 
 0  0  0 
 8.054335e-21  5.610531e-21  0 
 8.338846e-04  -9.527703e-03  0 
 1.933270e-03  -1.003537e-02  0 
 3.409977e-03  -1.025425e-02  0 
 -8.529599e-04  -1.082138e-02  0 
 -2.185528e-04  -3.620803e-04  0 
 -6.185403e-05  -3.426221e-04  0 
 5.540800e-05  -3.288836e-04  0 
 1.877366e-04  -3.192572e-04  0 
 3.663873e-04  -3.344031e-04  0 
 -3.342760e-04  -8.426935e-04  0 
 -1.304122e-04  -8.360212e-04  0 
 9.368620e-05  -8.177764e-04  0 
 3.573317e-04  -8.203575e-04  0 
 7.134280e-04  -8.746930e-04  0 
 -4.535222e-04  -1.432386e-03  0 
 -1.945212e-04  -1.436987e-03  0 
 1.128202e-04  -1.437868e-03  0 
 4.904623e-04  -1.454887e-03  0 
 9.601379e-04  -1.503641e-03  0 
 -5.897409e-04  -2.116254e-03  0 
 -2.689048e-04  -2.135262e-03  0 
 1.029558e-04  -2.156780e-03  0 
 5.571449e-04  -2.179224e-03  0 
 1.108878e-03  -2.212316e-03  0 
 -7.217478e-04  -2.860310e-03  0 
 -3.531065e-04  -2.901596e-03  0 
 5.139741e-05  -2.949163e-03  0 
 5.469827e-04  -2.979528e-03  0 
 1.159326e-03  -2.996210e-03  0 
 -8.211870e-04  -3.615708e-03  0 
 -4.252416e-04  -3.681834e-03  0 
 -3.077593e-05  -3.779778e-03  0 
 4.543450e-04  -3.847961e-03  0 
 1.100661e-03  -3.860920e-03  0 
 -8.740014e-04  -4.333506e-03  0 
 -4.611312e-04  -4.411569e-03  0 
 -8.516206e-05  -4.565376e-03  0 
 2.997502e-04  -4.762361e-03  0 
 9.029074e-04  -4.830235e-03  0 
 -8.919038e-04  -4.975492e-03  0 
 -4.567545e-04  -5.047319e-03  0 
 -7.350799e-05  -5.220446e-03  0 
 2.577021e-04  -5.526144e-03  0 
 5.252128e-04  -5.978667e-03  0 
 2.669595e-04  -1.007888e-03  0 
 2.473971e-04  -1.242256e-03  0 
 6.083464e-04  -1.419367e-03  0 
 7.047384e-04  -1.755646e-03  0 
 5.805208e-04  -2.313182e-03  0 
 7.266143e-04  -2.607845e-03  0 
 1.099312e-03  -2.470729e-03  0 
 8.940849e-04  -3.142290e-03  0 
 8.274408e-04  -3.536443e-03  0 
 1.379997e-03  -3.194138e-03  0 
 1.173820e-03  -3.880470e-03  0 
 1.011997e-03  -4.341552e-03  0 
 1.564236e-03  -3.969143e-03  0 
 1.380384e-03  -4.705116e-03  0 
 1.391364e-03  -5.143701e-03  0 
 1.664932e-03  -4.838634e-03  0 
 1.625425e-03  -5.639245e-03  0 
 1.654743e-03  -6.372133e-03  0 
 1.660499e-03  -5.863992e-03  0 
 1.865419e-03  -6.735781e-03  0 
 2.279685e-03  -7.513138e-03  0 
 1.427897e-03  -7.227792e-03  0 
 2.097760e-03  -8.101790e-03  0 
 2.767307e-03  -8.919975e-03  0 
 -3.298463e-03  -9.783847e-03  0 
 -1.365160e-03  -8.991077e-03  0 
 -8.085852e-04  -8.951726e-03  0 
 -3.726658e-04  -9.006018e-03  0 
 5.951616e-05  -9.375142e-03  0 
 3.352979e-04  -9.725611e-03  0 
 9.961418e-04  -1.076733e-02  0 
 1.974477e-03  -1.150832e-02  0 
 3.524444e-03  -1.199284e-02  0 
VECTORS displacement_ITER8 FLOAT
 0  0  0 
 2.436060e-04  -7.848965e-03  0 
 6.958638e-04  -4.428187e-04  0 
 1.155165e-03  -9.403617e-04  0 
 1.486393e-03  -1.519654e-03  0 
 1.712548e-03  -2.178934e-03  0 
 1.837023e-03  -2.918075e-03  0 
 1.855101e-03  -3.742542e-03  0 
 1.749715e-03  -4.686792e-03  0 
 1.423244e-03  -5.834934e-03  0 
 -9.591709e-21  -1.093100e-20  0 
 0  0  0 
 0  0  0 
 0  0  0 
 0  0  0 
 -1.350788e-03  -5.441252e-03  0 
 -9.855566e-04  -5.471276e-03  0 
 -4.796134e-04  -5.484004e-03  0 
 -5.105856e-05  -5.603062e-03  0 
 2.976911e-04  -5.869875e-03  0 
 5.357171e-04  -6.408393e-03  0 
 0  0  0 
 0  0  0 
 9.415593e-21  5.649360e-21  0 
 8.371768e-04  -9.323311e-03  0 
 2.122644e-03  -9.788785e-03  0 
 3.790609e-03  -1.001109e-02  0 
 -1.022194e-03  -1.082676e-02  0 
 -1.679959e-04  -3.420670e-04  0 
 -4.479953e-05  -3.316539e-04  0 
 5.930042e-05  -3.175101e-04  0 
 1.835636e-04  -3.065380e-04  0 
 3.545581e-04  -3.202634e-04  0 
 -2.652273e-04  -7.989967e-04  0 
 -1.012399e-04  -7.981041e-04  0 
 9.901256e-05  -7.833489e-04  0 
 3.480167e-04  -7.857565e-04  0 
 6.903644e-04  -8.376193e-04  0 
 -3.866704e-04  -1.363788e-03  0 
 -1.649048e-04  -1.371008e-03  0 
 1.165889e-04  -1.375724e-03  0 
 4.758836e-04  -1.394375e-03  0 
 9.296765e-04  -1.441976e-03  0 
 -5.389509e-04  -2.024312e-03  0 
 -2.481638e-04  -2.044067e-03  0 
 1.010362e-04  -2.069445e-03  0 
 5.375437e-04  -2.094898e-03  0 
 1.074005e-03  -2.128357e-03  0 
 -6.960558e-04  -2.749408e-03  0 
 -3.467955e-04  -2.790745e-03  0 
 4.139405e-05  -2.842817e-03  0 
 5.222855e-04  -2.877556e-03  0 
 1.121308e-03  -2.895685e-03  0 
 -8.262022e-04  -3.493971e-03  0 
 -4.351576e-04  -3.559202e-03  0 
 -4.854191e-05  -3.662126e-03  0 
 4.249748e-04  -3.735735e-03  0 
 1.058772e-03  -3.750765e-03  0 
 -9.122094e-04  -4.212953e-03  0 
 -4.858788e-04  -4.287685e-03  0 
 -1.080055e-04  -4.443765e-03  0 
 2.673088e-04  -4.644894e-03  0 
 8.546692e-04  -4.714896e-03  0 
 -9.597243e-04  -4.872474e-03  0 
 -4.930634e-04  -4.934533e-03  0 
 -9.941553e-05  -5.101163e-03  0 
 2.247440e-04  -5.401649e-03  0 
 4.688789e-04  -5.854255e-03  0 
 2.869532e-04  -9.596288e-04  0 
 2.671495e-04  -1.202334e-03  0 
 5.606410e-04  -1.396028e-03  0 
 7.513964e-04  -1.658543e-03  0 
 6.530526e-04  -2.203993e-03  0 
 7.657329e-04  -2.539809e-03  0 
 1.186171e-03  -2.318594e-03  0 
 1.056867e-03  -2.958084e-03  0 
 1.014781e-03  -3.393101e-03  0 
 1.519439e-03  -2.981050e-03  0 
 1.442711e-03  -3.605743e-03  0 
 1.360235e-03  -4.069593e-03  0 
 1.735803e-03  -3.705341e-03  0 
 1.767329e-03  -4.295114e-03  0 
 1.860239e-03  -4.700293e-03  0 
 1.827455e-03  -4.554091e-03  0 
 2.041689e-03  -5.147327e-03  0 
 2.411657e-03  -5.644327e-03  0 
 1.770675e-03  -5.598558e-03  0 
 2.246175e-03  -6.264694e-03  0 
 3.029169e-03  -6.815131e-03  0 
 1.476571e-03  -6.995175e-03  0 
 2.361999e-03  -7.750028e-03  0 
 3.453549e-03  -8.304865e-03  0 
 -3.219185e-03  -9.602273e-03  0 
 -1.444580e-03  -8.931825e-03  0 
 -9.234462e-04  -8.936145e-03  0 
 -4.387546e-04  -9.026314e-03  0 
 -4.373784e-05  -9.347343e-03  0 
 2.276873e-04  -9.708095e-03  0 