# vtk DataFile Version 3.1
this is an vtk file created by FEMAC
ASCII
DATASET UNSTRUCTURED_GRID
POINTS 102 FLOAT
2.000000 3.000000 0.000000
2.000000 2.111111 0.000000
2.000000 2.222222 0.000000
2.000000 2.333333 0.000000
2.000000 2.444444 0.000000
2.000000 2.555556 0.000000
2.000000 2.666667 0.000000
2.000000 2.777778 0.000000
2.000000 2.888889 0.000000
2.000000 3.111111 0.000000
2.000000 3.222222 0.000000
2.000000 3.333333 0.000000
2.666667 2.000000 0.000000
2.777778 2.000000 0.000000
2.111111 3.000000 0.000000
2.222222 3.000000 0.000000
2.333333 3.000000 0.000000
2.444444 3.000000 0.000000
2.555556 3.000000 0.000000
2.666667 3.000000 0.000000
1.888889 2.111111 0.000000
1.888889 2.222222 0.000000
1.888889 2.333333 0.000000
1.888889 2.444444 0.000000
1.888889 2.555556 0.000000
1.888889 2.666667 0.000000
1.888889 2.777778 0.000000
1.888889 2.888889 0.000000
2.111111 2.111111 0.000000
2.111111 2.222222 0.000000
2.111111 2.333333 0.000000
2.111111 2.444444 0.000000
2.111111 2.555556 0.000000
2.111111 2.666667 0.000000
2.111111 2.777778 0.000000
2.111111 2.888889 0.000000
2.222222 2.111111 0.000000
2.222222 2.222222 0.000000
2.222222 2.333333 0.000000
2.222222 2.444444 0.000000
2.222222 2.555556 0.000000
2.222222 2.666667 0.000000
2.222222 2.777778 0.000000
2.222222 2.888889 0.000000
2.333333 2.111111 0.000000
2.333333 2.222222 0.000000
2.333333 2.333333 0.000000
2.333333 2.444444 0.000000
2.333333 2.555556 0.000000
2.333333 2.666667 0.000000
2.333333 2.777778 0.000000
2.333333 2.888889 0.000000
2.444444 2.111111 0.000000
2.444444 2.222222 0.000000
2.444444 2.333333 0.000000
2.444444 2.444444 0.000000
2.444444 2.555556 0.000000
2.444444 2.666667 0.000000
2.444444 2.777778 0.000000
2.444444 2.888889 0.000000
2.555556 2.111111 0.000000
2.555556 2.222222 0.000000
2.555556 2.333333 0.000000
2.555556 2.444444 0.000000
2.555556 2.555556 0.000000
2.555556 2.666667 0.000000
2.555556 2.777778 0.000000
2.555556 2.888889 0.000000
2.666667 2.111111 0.000000
2.666667 2.222222 0.000000
2.666667 2.333333 0.000000
2.666667 2.444444 0.000000
2.666667 2.555556 0.000000
2.666667 2.666667 0.000000
2.666667 2.777778 0.000000
2.666667 2.888889 0.000000
2.777778 2.111111 0.000000
2.777778 2.222222 0.000000
2.777778 2.333333 0.000000
2.777778 2.444444 0.000000
2.777778 2.555556 0.000000
2.777778 2.666667 0.000000
2.777778 2.777778 0.000000
2.777778 2.888889 0.000000
2.111111 3.111111 0.000000
2.111111 3.222222 0.000000
2.111111 3.333333 0.000000
2.222222 3.111111 0.000000
2.222222 3.222222 0.000000
2.222222 3.333333 0.000000
2.333333 3.111111 0.000000
2.333333 3.222222 0.000000
2.333333 3.333333 0.000000
2.444444 3.111111 0.000000
2.444444 3.222222 0.000000
2.444444 3.333333 0.000000
2.555556 3.111111 0.000000
2.555556 3.222222 0.000000
2.555556 3.333333 0.000000
2.666667 3.111111 0.000000
2.666667 3.222222 0.000000
2.666667 3.333333 0.000000
CELLS 81 405 
4 20  1  2 21
4 21  2  3 22
4 22  3  4 23
4 23  4  5 24
4 24  5  6 25
4 25  6  7 26
4 26  7  8 27
4 1 28 29  2
4 2 29 30  3
4 3 30 31  4
4 4 31 32  5
4 5 32 33  6
4 6 33 34  7
4 7 34 35  8
4 8 35 14  0
4 28 36 37 29
4 29 37 38 30
4 30 38 39 31
4 31 39 40 32
4 32 40 41 33
4 33 41 42 34
4 34 42 43 35
4 35 43 15 14
4 36 44 45 37
4 37 45 46 38
4 38 46 47 39
4 39 47 48 40
4 40 48 49 41
4 41 49 50 42
4 42 50 51 43
4 43 51 16 15
4 44 52 53 45
4 45 53 54 46
4 46 54 55 47
4 47 55 56 48
4 48 56 57 49
4 49 57 58 50
4 50 58 59 51
4 51 59 17 16
4 52 60 61 53
4 53 61 62 54
4 54 62 63 55
4 55 63 64 56
4 56 64 65 57
4 57 65 66 58
4 58 66 67 59
4 59 67 18 17
4 60 68 69 61
4 61 69 70 62
4 62 70 71 63
4 63 71 72 64
4 64 72 73 65
4 65 73 74 66
4 66 74 75 67
4 67 75 19 18
4 12 13 76 68
4 68 76 77 69
4 69 77 78 70
4 70 78 79 71
4 71 79 80 72
4 72 80 81 73
4 73 81 82 74
4 74 82 83 75
4 0 14 84  9
4 9 84 85 10
4 10 85 86 11
4 14 15 87 84
4 84 87 88 85
4 85 88 89 86
4 15 16 90 87
4 87 90 91 88
4 88 91 92 89
4 16 17 93 90
4 90 93 94 91
4 91 94 95 92
4 17 18 96 93
4 93 96 97 94
4 94 97 98 95
4 18 19 99 96
4 96  99 100  97
4 97 100 101  98
CELL_TYPES 81
9 9 9 9 9 9 9 9 9 9 9 9 9 9 9 9 9 9 9 9 9 9 9 9 9 9 9 9 9 9 9 9 9 9 9 9 9 9 9 9 9 9 9 9 9 9 9 9 9 9 9 9 9 9 9 9 9 9 9 9 9 9 9 9 9 9 9 9 9 9 9 9 9 9 9 9 9 9 9 9 9 
POINT_DATA 102
VECTORS displacement_ITER1 FLOAT
 2.659096e-03  -4.459873e-02  0 
 -9.222184e-03  -4.453726e-02  0 
 -7.546368e-03  -4.497801e-02  0 
 -5.881715e-03  -4.521970e-02  0 
 -4.214843e-03  -4.535829e-02  0 
 -2.551706e-03  -4.541552e-02  0 
 -9.091042e-04  -4.540501e-02  0 
 6.648794e-04  -4.533956e-02  0 
 2.033148e-03  -4.514822e-02  0 
 -7.901364e-03  -3.879444e-02  0 
 -7.872633e-03  -3.695343e-02  0 
 -8.245861e-03  -3.614358e-02  0 
 -1.122814e-02  -5.710462e-02  0 
 -1.138697e-02  -5.898673e-02  0 
 3.775224e-03  -4.668970e-02  0 
 4.309037e-03  -4.877233e-02  0 
 4.631511e-03  -5.088599e-02  0 
 4.829225e-03  -5.303595e-02  0 
 4.917651e-03  -5.524570e-02  0 
 4.878327e-03  -5.765653e-02  0 
 -1.429129e-02  -3.220100e-02  0 
 -6.052449e-03  -3.745217e-02  0 
 -3.662633e-03  -3.840195e-02  0 
 -2.678171e-03  -3.870505e-02  0 
 -1.227819e-03  -3.921288e-02  0 
 -1.802848e-04  -3.961862e-02  0 
 1.059536e-03  -3.970047e-02  0 
 4.959118e-03  -3.862075e-02  0 
 -9.166404e-03  -4.649562e-02  0 
 -7.495215e-03  -4.676788e-02  0 
 -5.853963e-03  -4.698902e-02  0 
 -4.209929e-03  -4.711859e-02  0 
 -2.567313e-03  -4.715846e-02  0 
 -9.406889e-04  -4.710853e-02  0 
 6.264887e-04  -4.695240e-02  0 
 2.059472e-03  -4.668174e-02  0 
 -9.197987e-03  -4.847365e-02  0 
 -7.496565e-03  -4.868792e-02  0 
 -5.845087e-03  -4.886085e-02  0 
 -4.218214e-03  -4.896880e-02  0 
 -2.595066e-03  -4.899466e-02  0 
 -9.732420e-04  -4.893364e-02  0 
 6.494270e-04  -4.880631e-02  0 
 2.377453e-03  -4.873686e-02  0 
 -9.234728e-03  -5.052053e-02  0 
 -7.511602e-03  -5.068965e-02  0 
 -5.857022e-03  -5.082092e-02  0 
 -4.237780e-03  -5.090710e-02  0 
 -2.623131e-03  -5.093645e-02  0 
 -9.786887e-04  -5.091073e-02  0 
 7.503305e-04  -5.086774e-02  0 
 2.615900e-03  -5.085466e-02  0 
 -9.255159e-03  -5.263683e-02  0 
 -7.531020e-03  -5.274383e-02  0 
 -5.873313e-03  -5.283806e-02  0 
 -4.257434e-03  -5.291315e-02  0 
 -2.637829e-03  -5.296907e-02  0 
 -9.671659e-04  -5.300372e-02  0 
 8.134046e-04  -5.301923e-02  0 
 2.747535e-03  -5.302188e-02  0 
 -9.310541e-03  -5.479537e-02  0 
 -7.548810e-03  -5.483080e-02  0 
 -5.890320e-03  -5.487215e-02  0 
 -4.259346e-03  -5.495185e-02  0 
 -2.634444e-03  -5.504854e-02  0 
 -9.611181e-04  -5.514369e-02  0 
 8.130163e-04  -5.522665e-02  0 
 2.754219e-03  -5.525977e-02  0 
 -9.305572e-03  -5.697921e-02  0 
 -7.612425e-03  -5.687931e-02  0 
 -5.889931e-03  -5.690004e-02  0 
 -4.232159e-03  -5.698279e-02  0 
 -2.605723e-03  -5.711292e-02  0 
 -9.607785e-04  -5.727936e-02  0 
 7.851803e-04  -5.743305e-02  0 
 2.622674e-03  -5.755462e-02  0 
 -9.547794e-03  -5.897835e-02  0 
 -7.663182e-03  -5.893489e-02  0 
 -5.864862e-03  -5.890741e-02  0 
 -4.179648e-03  -5.896077e-02  0 
 -2.545651e-03  -5.910346e-02  0 
 -9.227109e-04  -5.933024e-02  0 
 7.472330e-04  -5.965387e-02  0 
 2.646772e-03  -5.990424e-02  0 
 -1.564047e-03  -4.293582e-02  0 
 -3.161514e-03  -4.110381e-02  0 
 -2.232499e-03  -3.964557e-02  0 
 1.500172e-03  -4.594499e-02  0 
 7.782159e-04  -4.439651e-02  0 
 2.050973e-03  -4.336116e-02  0 
 3.385725e-03  -4.884340e-02  0 
 3.680624e-03  -4.768528e-02  0 
 5.427584e-03  -4.697673e-02  0 
 4.703301e-03  -5.175812e-02  0 
 5.906338e-03  -5.108124e-02  0 
 8.225951e-03  -5.076806e-02  0 
 5.781197e-03  -5.477410e-02  0 
 7.750274e-03  -5.479410e-02  0 
 1.085107e-02  -5.490410e-02  0 
 7.014436e-03  -5.799123e-02  0 
 9.482783e-03  -5.879550e-02  0 
 1.360745e-02  -6.030167e-02  0 
VECTORS displacement_ITER2 FLOAT
 4.742813e-03  -3.249049e-02  0 
 -1.025846e-02  -3.186967e-02  0 
 -8.084399e-03  -3.257775e-02  0 
 -5.858982e-03  -3.294076e-02  0 
 -3.621482e-03  -3.316133e-02  0 
 -1.404014e-03  -3.329420e-02  0 
 7.560539e-04  -3.336588e-02  0 
 2.767851e-03  -3.338709e-02  0 
 4.429733e-03  -3.327803e-02  0 
 5.454222e-06  -3.167493e-02  0 
 8.369806e-05  -3.026877e-02  0 
 4.241218e-04  -2.934229e-02  0 
 -1.389255e-02  -4.886365e-02  0 
 -1.408688e-02  -5.167846e-02  0 
 6.624892e-03  -3.513547e-02  0 
 7.504236e-03  -3.778727e-02  0 
 8.050449e-03  -4.050103e-02  0 
 8.424529e-03  -4.325779e-02  0 
 8.668617e-03  -4.606784e-02  0 
 8.800084e-03  -4.897808e-02  0 
 -1.266575e-02  -2.806001e-02  0 
 -6.879322e-03  -2.849287e-02  0 
 -3.939344e-03  -2.825402e-02  0 
 -2.234414e-03  -2.849249e-02  0 
 -3.110478e-04  -2.913971e-02  0 
 1.152702e-03  -2.974902e-02  0 
 2.642254e-03  -3.080105e-02  0 
 2.404135e-03  -3.272588e-02  0 
 -1.023659e-02  -3.451572e-02  0 
 -7.996916e-03  -3.493442e-02  0 
 -5.804779e-03  -3.526765e-02  0 
 -3.597759e-03  -3.546523e-02  0 
 -1.401487e-03  -3.555174e-02  0 
 7.415055e-04  -3.553157e-02  0 
 2.753302e-03  -3.537448e-02  0 
 4.480332e-03  -3.502677e-02  0 
 -1.043373e-02  -3.737316e-02  0 
 -8.051845e-03  -3.755815e-02  0 
 -5.808774e-03  -3.775014e-02  0 
 -3.607178e-03  -3.788356e-02  0 
 -1.422824e-03  -3.792303e-02  0 
 7.253038e-04  -3.785813e-02  0 
 2.818459e-03  -3.770900e-02  0 
 5.022406e-03  -3.766623e-02  0 
 -1.063952e-02  -4.027445e-02  0 
 -8.200961e-03  -4.030926e-02  0 
 -5.892192e-03  -4.037463e-02  0 
 -3.655108e-03  -4.043588e-02  0 
 -1.449121e-03  -4.044805e-02  0 
 7.578131e-04  -4.040376e-02  0 
 3.032544e-03  -4.036447e-02  0 
 5.452714e-03  -4.039586e-02  0 
 -1.081762e-02  -4.312118e-02  0 
 -8.373601e-03  -4.308543e-02  0 
 -6.006427e-03  -4.309042e-02  0 
 -3.718878e-03  -4.311210e-02  0 
 -1.463754e-03  -4.312708e-02  0 
 8.250733e-04  -4.313096e-02  0 
 3.216642e-03  -4.314235e-02  0 
 5.749783e-03  -4.318269e-02  0 
 -1.101701e-02  -4.591264e-02  0 
 -8.512721e-03  -4.587181e-02  0 
 -6.101474e-03  -4.585337e-02  0 
 -3.763029e-03  -4.586897e-02  0 
 -1.463408e-03  -4.590874e-02  0 
 8.723289e-04  -4.595673e-02  0 
 3.317669e-03  -4.600098e-02  0 
 5.917203e-03  -4.603164e-02  0 
 -1.114001e-02  -4.874489e-02  0 
 -8.625017e-03  -4.867287e-02  0 
 -6.149963e-03  -4.863944e-02  0 
 -3.769808e-03  -4.864914e-02  0 
 -1.441688e-03  -4.870916e-02  0 
 8.924053e-04  -4.881774e-02  0 
 3.338831e-03  -4.891792e-02  0 
 5.933246e-03  -4.896041e-02  0 
 -1.137946e-02  -5.165756e-02  0 
 -8.714415e-03  -5.154531e-02  0 
 -6.168882e-03  -5.142768e-02  0 
 -3.741381e-03  -5.139386e-02  0 
 -1.402009e-03  -5.145224e-02  0 
 9.477500e-04  -5.160935e-02  0 
 3.316943e-03  -5.189171e-02  0 
 6.050158e-03  -5.217829e-02  0 
 3.554160e-03  -3.429073e-02  0 
 2.495943e-03  -3.372346e-02  0 
 2.919614e-03  -3.262119e-02  0 
 5.428062e-03  -3.720187e-02  0 
 4.586336e-03  -3.679639e-02  0 
 5.161092e-03  -3.627465e-02  0 
 6.561732e-03  -4.028394e-02  0 
 6.059586e-03  -4.018544e-02  0 
 6.827490e-03  -4.002014e-02  0 
 7.353097e-03  -4.339108e-02  0 
 6.955315e-03  -4.358637e-02  0 
 7.652408e-03  -4.367733e-02  0 
 8.012925e-03  -4.615768e-02  0 
 7.271393e-03  -4.660621e-02  0 
 7.677116e-03  -4.689883e-02  0 
 8.213917e-03  -4.792081e-02  0 
 7.675603e-03  -4.824325e-02  0 
 6.760241e-03  -4.998500e-02  0 
VECTORS displacement_ITER3 FLOAT
 3.005952e-03  -2.769518e-02  0 
 -1.035868e-02  -2.693829e-02  0 
 -8.466831e-03  -2.780198e-02  0 
 -6.441572e-03  -2.823869e-02  0 
 -4.370558e-03  -2.850079e-02  0 
 -2.305624e-03  -2.865798e-02  0 
 -2.933174e-04  -2.874191e-02  0 
 1.563396e-03  -2.876429e-02  0 
 3.055137e-03  -2.865136e-02  0 
 1.489663e-03  -2.808735e-02  0 
 2.043608e-03  -2.750457e-02  0 
 3.023236e-03  -2.682789e-02  0 
 -1.478177e-02  -4.361707e-02  0 
 -1.508995e-02  -4.681094e-02  0 
 5.136059e-03  -3.034197e-02  0 
 6.102871e-03  -3.292184e-02  0 
 6.692348e-03  -3.555210e-02  0 
 7.086047e-03  -3.821945e-02  0 
 7.333763e-03  -4.093984e-02  0 
 7.474127e-03  -4.380503e-02  0 
 -9.442134e-03  -2.832725e-02  0 
 -7.588076e-03  -2.586101e-02  0 
 -5.161479e-03  -2.497010e-02  0 
 -3.470579e-03  -2.508875e-02  0 
 -1.712756e-03  -2.559772e-02  0 
 -3.605823e-04  -2.610454e-02  0 
 8.726395e-04  -2.717107e-02  0 
 -1.008777e-03  -2.958731e-02  0 
 -1.037470e-02  -2.941912e-02  0 
 -8.355915e-03  -2.996415e-02  0 
 -6.364508e-03  -3.039071e-02  0 
 -4.330547e-03  -3.064483e-02  0 
 -2.291476e-03  -3.076398e-02  0 
 -3.005905e-04  -3.075740e-02  0 
 1.555503e-03  -3.059401e-02  0 
 3.093507e-03  -3.020306e-02  0 
 -1.071392e-02  -3.231136e-02  0 
 -8.439323e-03  -3.250454e-02  0 
 -6.363093e-03  -3.274624e-02  0 
 -4.327349e-03  -3.292943e-02  0 
 -2.300512e-03  -3.300402e-02  0 
 -3.061769e-04  -3.295563e-02  0 
 1.632003e-03  -3.280520e-02  0 
 3.706351e-03  -3.277369e-02  0 
 -1.105115e-02  -3.525212e-02  0 
 -8.669859e-03  -3.522668e-02  0 
 -6.471683e-03  -3.529085e-02  0 
 -4.372247e-03  -3.538207e-02  0 
 -2.314676e-03  -3.542534e-02  0 
 -2.586104e-04  -3.540047e-02  0 
 1.877058e-03  -3.537548e-02  0 
 4.182578e-03  -3.542498e-02  0 
 -1.133403e-02  -3.806114e-02  0 
 -8.925555e-03  -3.796478e-02  0 
 -6.621111e-03  -3.795499e-02  0 
 -4.437003e-03  -3.799138e-02  0 
 -2.318634e-03  -3.802641e-02  0 
 -1.763243e-04  -3.804791e-02  0 
 2.079915e-03  -3.807440e-02  0 
 4.500858e-03  -3.812875e-02  0 
 -1.160666e-02  -4.075707e-02  0 
 -9.112196e-03  -4.069925e-02  0 
 -6.726559e-03  -4.068567e-02  0 
 -4.478242e-03  -4.069886e-02  0 
 -2.311239e-03  -4.073956e-02  0 
 -1.244506e-04  -4.079616e-02  0 
 2.180516e-03  -4.085297e-02  0 
 4.664353e-03  -4.089470e-02  0 
 -1.180751e-02  -4.351972e-02  0 
 -9.195516e-03  -4.349792e-02  0 
 -6.761143e-03  -4.344960e-02  0 
 -4.481389e-03  -4.342313e-02  0 
 -2.290136e-03  -4.345521e-02  0 
 -1.079211e-04  -4.356193e-02  0 
 2.185902e-03  -4.368046e-02  0 
 4.648704e-03  -4.373548e-02  0 
 -1.198820e-02  -4.663919e-02  0 
 -9.239608e-03  -4.639806e-02  0 
 -6.759956e-03  -4.620184e-02  0 
 -4.476475e-03  -4.608033e-02  0 
 -2.253823e-03  -4.607968e-02  0 
 -6.702840e-05  -4.621543e-02  0 
 2.176002e-03  -4.654773e-02  0 
 4.710866e-03  -4.687642e-02  0 
 3.601477e-03  -3.085634e-02  0 
 3.505957e-03  -3.126660e-02  0 
 4.756848e-03  -3.158093e-02  0 
 5.129699e-03  -3.370309e-02  0 
 5.170809e-03  -3.466014e-02  0 
 6.169615e-03  -3.553956e-02  0 
 6.247418e-03  -3.664074e-02  0 
 6.573712e-03  -3.788065e-02  0 
 7.584450e-03  -3.912994e-02  0 
 7.067119e-03  -3.963794e-02  0 
 7.732098e-03  -4.110161e-02  0 
 8.969203e-03  -4.259518e-02  0 
 7.798194e-03  -4.264035e-02  0 
 8.605756e-03  -4.454158e-02  0 
 1.031980e-02  -4.609882e-02  0 
 8.511208e-03  -4.564585e-02  0 
 9.631620e-03  -4.766748e-02  0 
 1.124335e-02  -5.090061e-02  0 
VECTORS displacement_ITER4 FLOAT
 2.432447e-03  -2.618697e-02  0 
 -1.067747e-02  -2.552871e-02  0 
 -8.922985e-03  -2.639302e-02  0 
 -6.960525e-03  -2.681401e-02  0 
 -4.912074e-03  -2.706171e-02  0 
 -2.847620e-03  -2.720722e-02  0 
 -8.248268e-04  -2.728238e-02  0 
 1.046650e-03  -2.729863e-02  0 
 2.552586e-03  -2.718597e-02  0 
 3.031135e-03  -2.575787e-02  0 
 3.691738e-03  -2.535170e-02  0 
 5.025699e-03  -2.489179e-02  0 
 -1.587183e-02  -4.233548e-02  0 
 -1.620143e-02  -4.580565e-02  0 
 4.654088e-03  -2.888290e-02  0 
 5.651650e-03  -3.150685e-02  0 
 6.254848e-03  -3.417463e-02  0 
 6.655012e-03  -3.687145e-02  0 
 6.907056e-03  -3.961047e-02  0 
 7.068469e-03  -4.247516e-02  0 
 -9.150525e-03  -2.713123e-02  0 
 -8.277168e-03  -2.474970e-02  0 
 -6.311682e-03  -2.404498e-02  0 
 -4.482422e-03  -2.415951e-02  0 
 -2.688052e-03  -2.450297e-02  0 
 -1.229735e-03  -2.478772e-02  0 
 3.356708e-05  -2.547524e-02  0 
 -1.604977e-03  -2.734508e-02  0 
 -1.072026e-02  -2.789499e-02  0 
 -8.816943e-03  -2.848039e-02  0 
 -6.881557e-03  -2.892784e-02  0 
 -4.867893e-03  -2.919145e-02  0 
 -2.828581e-03  -2.931503e-02  0 
 -8.271624e-04  -2.930968e-02  0 
 1.042969e-03  -2.914365e-02  0 
 2.583762e-03  -2.873724e-02  0 
 -1.117211e-02  -3.081657e-02  0 
 -8.925338e-03  -3.100262e-02  0 
 -6.881838e-03  -3.126655e-02  0 
 -4.857973e-03  -3.147126e-02  0 
 -2.827884e-03  -3.156159e-02  0 
 -8.229795e-04  -3.152260e-02  0 
 1.126755e-03  -3.137503e-02  0 
 3.220101e-03  -3.134889e-02  0 
 -1.161948e-02  -3.380899e-02  0 
 -9.213412e-03  -3.375673e-02  0 
 -7.005149e-03  -3.382689e-02  0 
 -4.898331e-03  -3.393894e-02  0 
 -2.830006e-03  -3.400172e-02  0 
 -7.611846e-04  -3.399008e-02  0 
 1.389739e-03  -3.397562e-02  0 
 3.716043e-03  -3.403654e-02  0 
 -1.199807e-02  -3.666475e-02  0 
 -9.528901e-03  -3.654486e-02  0 
 -7.177245e-03  -3.653601e-02  0 
 -4.961507e-03  -3.658796e-02  0 
 -2.823372e-03  -3.663835e-02  0 
 -6.641852e-04  -3.666991e-02  0 
 1.610150e-03  -3.670437e-02  0 
 4.049643e-03  -3.676939e-02  0 
 -1.234877e-02  -3.941228e-02  0 
 -9.761938e-03  -3.934226e-02  0 
 -7.296302e-03  -3.933577e-02  0 
 -5.001727e-03  -3.935530e-02  0 
 -2.810060e-03  -3.940078e-02  0 
 -6.062457e-04  -3.945870e-02  0 
 1.720090e-03  -3.951176e-02  0 
 4.226502e-03  -3.955421e-02  0 
 -1.263693e-02  -4.225363e-02  0 
 -9.858047e-03  -4.224322e-02  0 
 -7.333107e-03  -4.218699e-02  0 
 -5.004421e-03  -4.214763e-02  0 
 -2.788773e-03  -4.216850e-02  0 
 -5.947806e-04  -4.226727e-02  0 
 1.715392e-03  -4.237614e-02  0 
 4.217011e-03  -4.240839e-02  0 
 -1.283073e-02  -4.558512e-02  0 
 -9.905333e-03  -4.528046e-02  0 
 -7.334524e-03  -4.502924e-02  0 
 -5.000925e-03  -4.486767e-02  0 
 -2.761808e-03  -4.483502e-02  0 
 -5.631411e-04  -4.495016e-02  0 
 1.685717e-03  -4.528441e-02  0 
 4.263255e-03  -4.562445e-02  0 
 3.911736e-03  -2.952381e-02  0 
 4.580176e-03  -2.983710e-02  0 
 6.453536e-03  -3.042535e-02  0 
 5.069021e-03  -3.269871e-02  0 
 5.664561e-03  -3.393616e-02  0 
 7.205067e-03  -3.509313e-02  0 
 5.989206e-03  -3.584074e-02  0 
 6.686332e-03  -3.749882e-02  0 
 8.034244e-03  -3.909894e-02  0 
 6.586788e-03  -3.904054e-02  0 
 7.513365e-03  -4.098653e-02  0 
 9.117876e-03  -4.284238e-02  0 
 7.075278e-03  -4.232026e-02  0 
 7.980380e-03  -4.495513e-02  0 
 1.031986e-02  -4.686314e-02  0 
 7.593317e-03  -4.574403e-02  0 
 8.682330e-03  -4.886826e-02  0 
 1.059940e-02  -5.295740e-02  0 
VECTORS displacement_ITER5 FLOAT
 3.225180e-03  -2.731080e-02  0 
 -1.087964e-02  -2.679319e-02  0 
 -9.175702e-03  -2.755768e-02  0 
 -7.143949e-03  -2.791404e-02  0 
 -4.964678e-03  -2.811947e-02  0 
 -2.741721e-03  -2.824114e-02  0 
 -5.480900e-04  -2.830656e-02  0 
 1.499837e-03  -2.832654e-02  0 
 3.176882e-03  -2.823213e-02  0 
 2.902224e-03  -2.518684e-02  0 
 3.606538e-03  -2.503714e-02  0 
 5.375444e-03  -2.486636e-02  0 
 -1.644298e-02  -4.443615e-02  0 
 -1.680427e-02  -4.783883e-02  0 
 5.417504e-03  -3.008225e-02  0 
 6.421827e-03  -3.285352e-02  0 
 7.035969e-03  -3.567811e-02  0 
 7.448502e-03  -3.853610e-02  0 
 7.708585e-03  -4.144538e-02  0 
 7.853319e-03  -4.446586e-02  0 
 -4.878919e-03  -2.922936e-02  0 
 -7.915456e-03  -2.612345e-02  0 
 -6.393527e-03  -2.511873e-02  0 
 -4.449558e-03  -2.518185e-02  0 
 -2.573810e-03  -2.544919e-02  0 
 -9.162806e-04  -2.554890e-02  0 
 5.901261e-04  -2.590766e-02  0 
 2.262744e-04  -2.698632e-02  0 
 -1.099599e-02  -2.908426e-02  0 
 -9.097417e-03  -2.968331e-02  0 
 -7.075086e-03  -3.013078e-02  0 
 -4.925600e-03  -3.039045e-02  0 
 -2.724614e-03  -3.050989e-02  0 
 -5.495993e-04  -3.050355e-02  0 
 1.497387e-03  -3.034147e-02  0 
 3.213418e-03  -2.994609e-02  0 
 -1.158275e-02  -3.211016e-02  0 
 -9.234805e-03  -3.229630e-02  0 
 -7.078982e-03  -3.258812e-02  0 
 -4.913476e-03  -3.281304e-02  0 
 -2.721966e-03  -3.291384e-02  0 
 -5.445954e-04  -3.287918e-02  0 
 1.580427e-03  -3.273256e-02  0 
 3.838217e-03  -3.270034e-02  0 
 -1.214490e-02  -3.525304e-02  0 
 -9.570292e-03  -3.520737e-02  0 
 -7.210149e-03  -3.530189e-02  0 
 -4.952539e-03  -3.543850e-02  0 
 -2.723166e-03  -3.551648e-02  0 
 -4.841609e-04  -3.551015e-02  0 
 1.838946e-03  -3.549209e-02  0 
 4.333946e-03  -3.554515e-02  0 
 -1.260316e-02  -3.829765e-02  0 
 -9.924087e-03  -3.818969e-02  0 
 -7.399095e-03  -3.819563e-02  0 
 -5.022253e-03  -3.826370e-02  0 
 -2.720996e-03  -3.832750e-02  0 
 -3.931279e-04  -3.836259e-02  0 
 2.054777e-03  -3.839018e-02  0 
 4.669391e-03  -3.844408e-02  0 
 -1.298057e-02  -4.126459e-02  0 
 -1.018346e-02  -4.119722e-02  0 
 -7.540775e-03  -4.119086e-02  0 
 -5.074986e-03  -4.122171e-02  0 
 -2.717304e-03  -4.127855e-02  0 
 -3.472642e-04  -4.133856e-02  0 
 2.153572e-03  -4.138105e-02  0 
 4.845102e-03  -4.140526e-02  0 
 -1.324513e-02  -4.431068e-02  0 
 -1.030647e-02  -4.428465e-02  0 
 -7.594929e-03  -4.423977e-02  0 
 -5.087766e-03  -4.421489e-02  0 
 -2.707055e-03  -4.424481e-02  0 
 -3.539777e-04  -4.434544e-02  0 
 2.125280e-03  -4.444599e-02  0 
 4.828837e-03  -4.446342e-02  0 
 -1.341605e-02  -4.769307e-02  0 
 -1.034864e-02  -4.749252e-02  0 
 -7.595849e-03  -4.728996e-02  0 
 -5.088463e-03  -4.714233e-02  0 
 -2.692062e-03  -4.711024e-02  0 
 -3.433324e-04  -4.722340e-02  0 
 2.061317e-03  -4.756108e-02  0 
 4.829160e-03  -4.789478e-02  0 
 4.196132e-03  -3.020595e-02  0 
 5.005984e-03  -3.034630e-02  0 
 7.357286e-03  -3.107268e-02  0 
 5.638891e-03  -3.378429e-02  0 
 6.214282e-03  -3.496226e-02  0 
 7.944491e-03  -3.603666e-02  0 
 6.793641e-03  -3.699659e-02  0 
 7.151162e-03  -3.849644e-02  0 
 8.103994e-03  -3.981521e-02  0 
 7.655446e-03  -3.979857e-02  0 
 7.755080e-03  -4.121081e-02  0 
 7.982288e-03  -4.248996e-02  0 
 8.264407e-03  -4.208542e-02  0 
 8.019150e-03  -4.296703e-02  0 
 7.499156e-03  -4.397600e-02  0 
 8.119387e-03  -4.362392e-02  0 
 8.153492e-03  -4.331289e-02  0 
 6.629405e-03  -4.402851e-02  0 
VECTORS displacement_ITER6 FLOAT
 2.454210e-03  -2.716150e-02  0 
 -1.060389e-02  -2.729204e-02  0 
 -9.188619e-03  -2.789588e-02  0 
 -7.367078e-03  -2.813908e-02  0 
 -5.352325e-03  -2.826425e-02  0 
 -3.264057e-03  -2.832224e-02  0 
 -1.184903e-03  -2.833242e-02  0 
 7.691017e-04  -2.830032e-02  0 
 2.386934e-03  -2.815283e-02  0 
 1.736738e-03  -2.570291e-02  0 
 2.688809e-03  -2.588731e-02  0 
 4.477394e-03  -2.618630e-02  0 
 -1.620461e-02  -4.371327e-02  0 
 -1.649271e-02  -4.683086e-02  0 
 4.572227e-03  -2.995054e-02  0 
 5.522265e-03  -3.264424e-02  0 
 6.101983e-03  -3.536346e-02  0 
 6.494870e-03  -3.810579e-02  0 
 6.747613e-03  -4.089900e-02  0 
 6.892378e-03  -4.381769e-02  0 
 -7.354689e-03  -2.589375e-02  0 
 -8.032757e-03  -2.534637e-02  0 
 -6.924233e-03  -2.518587e-02  0 
 -5.225251e-03  -2.525585e-02  0 
 -3.473913e-03  -2.533688e-02  0 
 -1.886381e-03  -2.526846e-02  0 
 -4.788962e-04  -2.525195e-02  0 
 -2.044523e-04  -2.548888e-02  0 
 -1.072722e-02  -2.920382e-02  0 
 -9.139279e-03  -2.977242e-02  0 
 -7.317839e-03  -3.017006e-02  0 
 -5.324848e-03  -3.038521e-02  0 
 -3.255097e-03  -3.046648e-02  0 
 -1.192625e-03  -3.042722e-02  0 
 7.610031e-04  -3.023890e-02  0 
 2.408945e-03  -2.982616e-02  0 
 -1.141278e-02  -3.198760e-02  0 
 -9.290209e-03  -3.214885e-02  0 
 -7.325408e-03  -3.243971e-02  0 
 -5.312656e-03  -3.265480e-02  0 
 -3.250914e-03  -3.274151e-02  0 
 -1.185481e-03  -3.269383e-02  0 
 8.441404e-04  -3.253858e-02  0 
 3.020472e-03  -3.250143e-02  0 
 -1.205879e-02  -3.491707e-02  0 
 -9.650798e-03  -3.487976e-02  0 
 -7.452381e-03  -3.498765e-02  0 
 -5.343851e-03  -3.513306e-02  0 
 -3.244473e-03  -3.521327e-02  0 
 -1.119174e-03  -3.520719e-02  0 
 1.102352e-03  -3.518894e-02  0 
 3.500961e-03  -3.523893e-02  0 
 -1.256988e-02  -3.780870e-02  0 
 -1.001924e-02  -3.772182e-02  0 
 -7.641840e-03  -3.774247e-02  0 
 -5.407762e-03  -3.782180e-02  0 
 -3.235051e-03  -3.789449e-02  0 
 -1.022838e-03  -3.793553e-02  0 
 1.316475e-03  -3.796646e-02  0 
 3.824886e-03  -3.801914e-02  0 
 -1.296192e-02  -4.067511e-02  0 
 -1.028970e-02  -4.061096e-02  0 
 -7.791189e-03  -4.061085e-02  0 
 -5.462113e-03  -4.065437e-02  0 
 -3.230247e-03  -4.072144e-02  0 
 -9.755266e-04  -4.078637e-02  0 
 1.414573e-03  -4.083129e-02  0 
 3.993684e-03  -4.085910e-02  0 
 -1.321430e-02  -4.360289e-02  0 
 -1.042847e-02  -4.356441e-02  0 
 -7.853309e-03  -4.353569e-02  0 
 -5.480971e-03  -4.353063e-02  0 
 -3.227554e-03  -4.357352e-02  0 
 -9.900818e-04  -4.367481e-02  0 
 1.383587e-03  -4.376862e-02  0 
 3.983013e-03  -4.379039e-02  0 
 -1.336953e-02  -4.674560e-02  0 
 -1.045858e-02  -4.661935e-02  0 
 -7.853428e-03  -4.646018e-02  0 
 -5.482246e-03  -4.634539e-02  0 
 -3.229415e-03  -4.633337e-02  0 
 -9.991981e-04  -4.645095e-02  0 
 1.293811e-03  -4.676221e-02  0 
 3.955851e-03  -4.704137e-02  0 
 3.547952e-03  -3.013045e-02  0 
 4.327226e-03  -3.046718e-02  0 
 6.165525e-03  -3.105645e-02  0 
 5.082486e-03  -3.335308e-02  0 
 5.688317e-03  -3.430239e-02  0 
 7.124710e-03  -3.518133e-02  0 
 6.221713e-03  -3.631093e-02  0 
 6.826916e-03  -3.745076e-02  0 
 7.901357e-03  -3.852196e-02  0 
 7.082860e-03  -3.903720e-02  0 
 7.705149e-03  -4.013444e-02  0 
 8.497529e-03  -4.120832e-02  0 
 7.732561e-03  -4.149893e-02  0 
 8.330665e-03  -4.227058e-02  0 
 8.761947e-03  -4.313254e-02  0 
 7.909696e-03  -4.368405e-02  0 
 8.731826e-03  -4.356742e-02  0 
 8.588201e-03  -4.396703e-02  0 
VECTORS displacement_ITER7 FLOAT
 2.195201e-03  -2.695784e-02  0 
 -1.036168e-02  -2.751183e-02  0 
 -9.162269e-03  -2.798004e-02  0 
 -7.451046e-03  -2.813365e-02  0 
 -5.498074e-03  -2.819931e-02  0 
 -3.450673e-03  -2.821873e-02  0 
 -1.402961e-03  -2.820251e-02  0 
 5.248650e-04  -2.815011e-02  0 
 2.120332e-03  -2.798065e-02  0 
 1.151051e-03  -2.558842e-02  0 
 2.079571e-03  -2.557940e-02  0 
 3.617068e-03  -2.580386e-02  0 
 -1.606836e-02  -4.338178e-02  0 
 -1.635890e-02  -4.628704e-02  0 
 4.291277e-03  -2.976017e-02  0 
 5.228000e-03  -3.243242e-02  0 
 5.802852e-03  -3.512369e-02  0 
 6.197150e-03  -3.783743e-02  0 
 6.455325e-03  -4.060471e-02  0 
 6.599988e-03  -4.349615e-02  0 
 -4.575836e-03  -2.751477e-02  0 
 -7.522637e-03  -2.608274e-02  0 
 -6.636772e-03  -2.554425e-02  0 
 -5.070800e-03  -2.545765e-02  0 
 -3.398541e-03  -2.544519e-02  0 
 -1.850029e-03  -2.531891e-02  0 
 -4.687816e-04  -2.520433e-02  0 
 2.023256e-04  -2.517540e-02  0 
 -1.053855e-02  -2.914145e-02  0 
 -9.139753e-03  -2.969958e-02  0 
 -7.417519e-03  -3.007148e-02  0 
 -5.482005e-03  -3.026137e-02  0 
 -3.450298e-03  -3.032121e-02  0 
 -1.417525e-03  -3.026472e-02  0 
 5.104646e-04  -3.006254e-02  0 
 2.138453e-03  -2.964052e-02  0 
 -1.133118e-02  -3.180448e-02  0 
 -9.309506e-03  -3.195081e-02  0 
 -7.428482e-03  -3.225037e-02  0 
 -5.470600e-03  -3.246695e-02  0 
 -3.447490e-03  -3.254904e-02  0 
 -1.412082e-03  -3.249475e-02  0 
 5.927397e-04  -3.233403e-02  0 
 2.748202e-03  -3.229364e-02  0 
 -1.206215e-02  -3.464512e-02  0 
 -9.702157e-03  -3.461099e-02  0 
 -7.556721e-03  -3.473195e-02  0 
 -5.497494e-03  -3.488868e-02  0 
 -3.436927e-03  -3.497381e-02  0 
 -1.342313e-03  -3.496942e-02  0 
 8.532777e-04  -3.495182e-02  0 
 3.227678e-03  -3.500125e-02  0 
 -1.262819e-02  -3.748758e-02  0 
 -1.009242e-02  -3.741535e-02  0 
 -7.753040e-03  -3.744662e-02  0 
 -5.560490e-03  -3.753389e-02  0 
 -3.423011e-03  -3.761311e-02  0 
 -1.239890e-03  -3.765892e-02  0 
 1.072333e-03  -3.769421e-02  0 
 3.553861e-03  -3.774985e-02  0 
 -1.303265e-02  -4.034163e-02  0 
 -1.037575e-02  -4.028480e-02  0 
 -7.914958e-03  -4.028605e-02  0 
 -5.620718e-03  -4.033532e-02  0 
 -3.418119e-03  -4.040727e-02  0 
 -1.187558e-03  -4.047457e-02  0 
 1.179084e-03  -4.052244e-02  0 
 3.729484e-03  -4.055840e-02  0 
 -1.326066e-02  -4.325030e-02  0 
 -1.052920e-02  -4.320316e-02  0 
 -7.989604e-03  -4.318428e-02  0 
 -5.648669e-03  -4.319039e-02  0 
 -3.422178e-03  -4.323888e-02  0 
 -1.203699e-03  -4.333718e-02  0 
 1.155341e-03  -4.342429e-02  0 
 3.740082e-03  -4.345182e-02  0 
 -1.338650e-02  -4.625478e-02  0 
 -1.055264e-02  -4.620296e-02  0 
 -7.992588e-03  -4.608439e-02  0 
 -5.656980e-03  -4.599104e-02  0 
 -3.435678e-03  -4.598972e-02  0 
 -1.226824e-03  -4.610584e-02  0 
 1.054497e-03  -4.638827e-02  0 
 3.693146e-03  -4.661487e-02  0 
 3.190671e-03  -2.977780e-02  0 
 3.830542e-03  -3.004909e-02  0 
 5.491802e-03  -3.060507e-02  0 
 4.823826e-03  -3.291705e-02  0 
 5.421489e-03  -3.372749e-02  0 
 6.746185e-03  -3.455128e-02  0 
 6.031508e-03  -3.584910e-02  0 
 6.793734e-03  -3.682229e-02  0 
 7.982244e-03  -3.783001e-02  0 
 6.943235e-03  -3.865474e-02  0 
 7.943573e-03  -3.965681e-02  0 
 9.187603e-03  -4.072685e-02  0 
 7.664397e-03  -4.138533e-02  0 
 8.897336e-03  -4.230841e-02  0 
 1.017565e-02  -4.324644e-02  0 
 8.172325e-03  -4.420625e-02  0 
 9.616244e-03  -4.461794e-02  0 
 1.073882e-02  -4.527513e-02  0 
VECTORS displacement_ITER8 FLOAT
 2.244361e-03  -2.712957e-02  0 
 -9.970665e-03  -2.785103e-02  0 
 -8.839534e-03  -2.825367e-02  0 
 -7.180250e-03  -2.836960e-02  0 
 -5.272596e-03  -2.841493e-02  0 
 -3.265460e-03  -2.842217e-02  0 
 -1.255280e-03  -2.839846e-02  0 
 6.370130e-04  -2.834135e-02  0 
 2.197207e-03  -2.816590e-02  0 
 1.210863e-03  -2.657733e-02  0 
 2.142795e-03  -2.657251e-02  0 
 3.411245e-03  -2.675867e-02  0 
 -1.591641e-02  -4.331491e-02  0 
 -1.620097e-02  -4.635112e-02  0 
 4.336235e-03  -2.991608e-02  0 
 5.263175e-03  -3.255207e-02  0 
 5.829767e-03  -3.520113e-02  0 
 6.218226e-03  -3.786888e-02  0 
 6.471704e-03  -4.058716e-02  0 
 6.602171e-03  -4.340216e-02  0 
 -7.044726e-03  -2.528341e-02  0 
 -7.382376e-03  -2.548036e-02  0 
 -6.428777e-03  -2.553578e-02  0 
 -4.924734e-03  -2.555037e-02  0 
 -3.252153e-03  -2.553058e-02  0 
 -1.665962e-03  -2.537726e-02  0 
 -2.287783e-04  -2.514523e-02  0 
 1.123037e-03  -2.473476e-02  0 
 -1.012122e-02  -2.934593e-02  0 
 -8.822565e-03  -2.990319e-02  0 
 -7.153173e-03  -3.025703e-02  0 
 -5.259752e-03  -3.043314e-02  0 
 -3.266518e-03  -3.048491e-02  0 
 -1.270780e-03  -3.042387e-02  0 
 6.203751e-04  -3.021866e-02  0 
 2.212298e-03  -2.979463e-02  0 
 -1.094418e-02  -3.194432e-02  0 
 -8.989396e-03  -3.207769e-02  0 
 -7.164388e-03  -3.237691e-02  0 
 -5.248050e-03  -3.259025e-02  0 
 -3.262290e-03  -3.266957e-02  0 
 -1.264050e-03  -3.261386e-02  0 
 7.029251e-04  -3.245285e-02  0 
 2.821163e-03  -3.241352e-02  0 
 -1.169966e-02  -3.471444e-02  0 
 -9.390684e-03  -3.467948e-02  0 