# vtk DataFile Version 3.1
this is an vtk file created by FEMAC
ASCII
DATASET UNSTRUCTURED_GRID
POINTS 101 FLOAT
1.000000 4.000000 0.000000
0.666667 4.000000 0.000000
0.777778 4.000000 0.000000
0.888889 4.000000 0.000000
1.000000 3.333333 0.000000
1.000000 3.444444 0.000000
1.000000 3.555556 0.000000
1.000000 3.666667 0.000000
1.000000 3.777778 0.000000
1.000000 3.888889 0.000000
1.000000 4.111111 0.000000
1.000000 4.222222 0.000000
1.000000 4.333333 0.000000
1.000000 4.444444 0.000000
1.000000 4.555556 0.000000
1.000000 4.666667 0.000000
1.111111 4.000000 0.000000
1.222222 4.000000 0.000000
1.333333 4.000000 0.000000
1.444444 4.000000 0.000000
0.666667 3.333333 0.000000
0.666667 3.444444 0.000000
0.666667 3.555556 0.000000
0.666667 3.666667 0.000000
0.666667 3.777778 0.000000
0.666667 3.888889 0.000000
0.777778 3.333333 0.000000
0.777778 3.444444 0.000000
0.777778 3.555556 0.000000
0.777778 3.666667 0.000000
0.777778 3.777778 0.000000
0.777778 3.888889 0.000000
0.888889 3.333333 0.000000
0.888889 3.444444 0.000000
0.888889 3.555556 0.000000
0.888889 3.666667 0.000000
0.888889 3.777778 0.000000
0.888889 3.888889 0.000000
0.666667 4.111111 0.000000
0.666667 4.222222 0.000000
0.666667 4.333333 0.000000
0.777778 4.111111 0.000000
0.777778 4.222222 0.000000
0.777778 4.333333 0.000000
0.777778 4.444444 0.000000
0.777778 4.555556 0.000000
0.777778 4.666667 0.000000
0.888889 4.111111 0.000000
0.888889 4.222222 0.000000
0.888889 4.333333 0.000000
0.888889 4.444444 0.000000
0.888889 4.555556 0.000000
0.888889 4.666667 0.000000
1.111111 3.333333 0.000000
1.111111 3.444444 0.000000
1.111111 3.555556 0.000000
1.111111 3.666667 0.000000
1.111111 3.777778 0.000000
1.111111 3.888889 0.000000
1.222222 3.333333 0.000000
1.222222 3.444444 0.000000
1.222222 3.555556 0.000000
1.222222 3.666667 0.000000
1.222222 3.777778 0.000000
1.222222 3.888889 0.000000
1.333333 3.333333 0.000000
1.333333 3.444444 0.000000
1.333333 3.555556 0.000000
1.333333 3.666667 0.000000
1.333333 3.777778 0.000000
1.333333 3.888889 0.000000
1.444444 3.333333 0.000000
1.444444 3.444444 0.000000
1.444444 3.555556 0.000000
1.444444 3.666667 0.000000
1.444444 3.777778 0.000000
1.444444 3.888889 0.000000
1.111111 4.111111 0.000000
1.111111 4.222222 0.000000
1.111111 4.333333 0.000000
1.111111 4.444444 0.000000
1.111111 4.555556 0.000000
1.111111 4.666667 0.000000
1.222222 4.111111 0.000000
1.222222 4.222222 0.000000
1.222222 4.333333 0.000000
1.222222 4.444444 0.000000
1.222222 4.555556 0.000000
1.222222 4.666667 0.000000
1.333333 4.111111 0.000000
1.333333 4.222222 0.000000
1.333333 4.333333 0.000000
1.333333 4.444444 0.000000
1.333333 4.555556 0.000000
1.333333 4.666667 0.000000
1.444444 4.111111 0.000000
1.444444 4.222222 0.000000
1.444444 4.333333 0.000000
1.444444 4.444444 0.000000
1.444444 4.555556 0.000000
1.444444 4.666667 0.000000
CELLS 81 405 
4 20 26 27 21
4 21 27 28 22
4 22 28 29 23
4 23 29 30 24
4 24 30 31 25
4 25 31  2  1
4 26 32 33 27
4 27 33 34 28
4 28 34 35 29
4 29 35 36 30
4 30 36 37 31
4 31 37  3  2
4 32  4  5 33
4 33  5  6 34
4 34  6  7 35
4 35  7  8 36
4 36  8  9 37
4 37  9  0  3
4 1  2 41 38
4 38 41 42 39
4 39 42 43 40
4 2  3 47 41
4 41 47 48 42
4 42 48 49 43
4 43 49 50 44
4 44 50 51 45
4 45 51 52 46
4 3  0 10 47
4 47 10 11 48
4 48 11 12 49
4 49 12 13 50
4 50 13 14 51
4 51 14 15 52
4 4 53 54  5
4 5 54 55  6
4 6 55 56  7
4 7 56 57  8
4 8 57 58  9
4 9 58 16  0
4 53 59 60 54
4 54 60 61 55
4 55 61 62 56
4 56 62 63 57
4 57 63 64 58
4 58 64 17 16
4 59 65 66 60
4 60 66 67 61
4 61 67 68 62
4 62 68 69 63
4 63 69 70 64
4 64 70 18 17
4 65 71 72 66
4 66 72 73 67
4 67 73 74 68
4 68 74 75 69
4 69 75 76 70
4 70 76 19 18
4 0 16 77 10
4 10 77 78 11
4 11 78 79 12
4 12 79 80 13
4 13 80 81 14
4 14 81 82 15
4 16 17 83 77
4 77 83 84 78
4 78 84 85 79
4 79 85 86 80
4 80 86 87 81
4 81 87 88 82
4 17 18 89 83
4 83 89 90 84
4 84 90 91 85
4 85 91 92 86
4 86 92 93 87
4 87 93 94 88
4 18 19 95 89
4 89 95 96 90
4 90 96 97 91
4 91 97 98 92
4 92 98 99 93
4 93  99 100  94
CELL_TYPES 81
9 9 9 9 9 9 9 9 9 9 9 9 9 9 9 9 9 9 9 9 9 9 9 9 9 9 9 9 9 9 9 9 9 9 9 9 9 9 9 9 9 9 9 9 9 9 9 9 9 9 9 9 9 9 9 9 9 9 9 9 9 9 9 9 9 9 9 9 9 9 9 9 9 9 9 9 9 9 9 9 9 
POINT_DATA 101
VECTORS displacement_ITER1 FLOAT
 3.899721e-03  -1.105941e-02  0 
 -2.263266e-03  -6.179975e-03  0 
 -1.350582e-03  -8.094722e-03  0 
 3.133714e-04  -9.687973e-03  0 
 -4.311303e-04  -1.101380e-02  0 
 1.546919e-03  -1.157969e-02  0 
 3.317321e-03  -1.202381e-02  0 
 4.754467e-03  -1.226232e-02  0 
 5.844588e-03  -1.238681e-02  0 
 6.268013e-03  -1.235351e-02  0 
 9.962238e-04  -9.722485e-03  0 
 7.783357e-04  -9.580145e-03  0 
 1.090958e-03  -9.655594e-03  0 
 1.769540e-03  -1.004599e-02  0 
 2.950775e-03  -1.079350e-02  0 
 4.626995e-03  -1.173973e-02  0 
 7.490703e-03  -1.295730e-02  0 
 9.160050e-03  -1.503072e-02  0 
 1.023265e-02  -1.724643e-02  0 
 1.105821e-02  -1.973308e-02  0 
 -1.512630e-03  -8.182329e-03  0 
 1.373867e-05  -8.522524e-03  0 
 1.117688e-03  -9.316248e-03  0 
 1.274816e-03  -1.036782e-02  0 
 2.300368e-04  -1.110871e-02  0 
 -1.698656e-03  -1.006602e-02  0 
 -7.454391e-04  -9.024474e-03  0 
 4.606174e-04  -9.590144e-03  0 
 1.636840e-03  -9.954254e-03  0 
 2.101274e-03  -1.017712e-02  0 
 1.457319e-03  -1.007206e-02  0 
 -7.949561e-05  -9.522052e-03  0 
 -2.963325e-04  -9.769724e-03  0 
 9.641881e-04  -1.036012e-02  0 
 2.286078e-03  -1.070531e-02  0 
 3.142997e-03  -1.074611e-02  0 
 3.279303e-03  -1.058883e-02  0 
 2.554129e-03  -1.036881e-02  0 
 -7.105499e-04  -6.495927e-03  0 
 3.393517e-04  -6.776192e-03  0 
 1.595858e-03  -6.393828e-03  0 
 2.635178e-05  -8.318005e-03  0 
 7.549830e-04  -8.297091e-03  0 
 1.266386e-03  -8.125580e-03  0 
 1.476105e-03  -7.883338e-03  0 
 2.621131e-03  -7.310718e-03  0 
 4.467253e-03  -6.955562e-03  0 
 9.580917e-04  -9.890715e-03  0 
 8.225264e-04  -9.263603e-03  0 
 1.094617e-03  -8.976572e-03  0 
 1.618537e-03  -8.958293e-03  0 
 2.683939e-03  -9.188156e-03  0 
 4.592806e-03  -9.503119e-03  0 
 -3.594010e-04  -1.319479e-02  0 
 1.707179e-03  -1.360698e-02  0 
 3.361456e-03  -1.369934e-02  0 
 4.768908e-03  -1.364169e-02  0 
 5.858429e-03  -1.337327e-02  0 
 6.334246e-03  -1.274192e-02  0 
 -3.194742e-04  -1.619623e-02  0 
 1.644245e-03  -1.573849e-02  0 
 3.312975e-03  -1.552391e-02  0 
 4.748654e-03  -1.527720e-02  0 
 5.963080e-03  -1.493452e-02  0 
 7.319371e-03  -1.480952e-02  0 
 -2.833253e-04  -1.801865e-02  0 
 1.482856e-03  -1.784462e-02  0 
 3.257738e-03  -1.751463e-02  0 
 4.824231e-03  -1.721210e-02  0 
 6.339592e-03  -1.703561e-02  0 
 8.096052e-03  -1.705315e-02  0 
 -4.249088e-04  -2.020673e-02  0 
 1.496798e-03  -1.997199e-02  0 
 3.228547e-03  -1.969077e-02  0 
 5.003518e-03  -1.928861e-02  0 
 6.729402e-03  -1.918256e-02  0 
 8.673599e-03  -1.941091e-02  0 
 4.396147e-03  -1.323111e-02  0 
 3.429595e-03  -1.375786e-02  0 
 3.447180e-03  -1.435181e-02  0 
 4.279657e-03  -1.498853e-02  0 
 5.933782e-03  -1.592583e-02  0 
 8.641935e-03  -1.771557e-02  0 
 7.374715e-03  -1.557112e-02  0 
 6.319158e-03  -1.687174e-02  0 
 5.889834e-03  -1.829330e-02  0 
 6.421432e-03  -1.962172e-02  0 
 8.690008e-03  -2.093429e-02  0 
 1.178751e-02  -2.247092e-02  0 
 1.016265e-02  -1.773981e-02  0 
 9.384150e-03  -1.928244e-02  0 
 8.482429e-03  -2.087191e-02  0 
 8.556400e-03  -2.365469e-02  0 
 1.066695e-02  -2.658443e-02  0 
 1.642273e-02  -2.903253e-02  0 
 1.376916e-02  -2.021281e-02  0 
 1.160259e-02  -1.976975e-02  0 
 1.097811e-02  -2.194049e-02  0 
 1.188057e-02  -2.547201e-02  0 
 1.359741e-02  -3.331600e-02  0 
 2.122636e-02  -4.171923e-02  0 
VECTORS displacement_ITER2 FLOAT
 5.001889e-03  -1.082174e-02  0 
 -1.601005e-03  -5.881994e-03  0 
 -5.071059e-04  -7.934264e-03  0 
 1.269095e-03  -9.453463e-03  0 
 2.829130e-03  -1.179708e-02  0 
 4.038163e-03  -1.196887e-02  0 
 5.466582e-03  -1.218439e-02  0 
 6.671581e-03  -1.232528e-02  0 
 7.524890e-03  -1.238817e-02  0 
 7.691188e-03  -1.228117e-02  0 
 1.844073e-03  -9.321652e-03  0 
 1.429872e-03  -9.094054e-03  0 
 1.519401e-03  -9.086837e-03  0 
 1.929417e-03  -9.418948e-03  0 
 2.842800e-03  -1.017611e-02  0 
 4.547778e-03  -1.123105e-02  0 
 8.720497e-03  -1.265194e-02  0 
 1.042564e-02  -1.455847e-02  0 
 1.151498e-02  -1.658297e-02  0 
 1.233053e-02  -1.882317e-02  0 
 -1.893965e-03  -2.734160e-03  0 
 1.445042e-03  -5.361149e-03  0 
 3.172658e-03  -7.352449e-03  0 
 3.752522e-03  -8.665191e-03  0 
 2.940606e-03  -9.702305e-03  0 
 6.628300e-04  -9.267141e-03  0 
 -2.524189e-04  -7.012082e-03  0 
 2.384025e-03  -7.936615e-03  0 
 3.950609e-03  -8.782240e-03  0 
 4.471276e-03  -9.289793e-03  0 
 3.791316e-03  -9.314842e-03  0 
 1.765308e-03  -8.872061e-03  0 
 1.224201e-03  -9.268109e-03  0 
 3.222689e-03  -1.017383e-02  0 
 4.609519e-03  -1.039508e-02  0 
 5.338609e-03  -1.039766e-02  0 
 5.257530e-03  -1.020337e-02  0 
 4.188651e-03  -9.962919e-03  0 
 5.442343e-05  -6.417711e-03  0 
 9.795779e-04  -6.830879e-03  0 
 1.996009e-03  -6.479196e-03  0 
 8.340203e-04  -8.178298e-03  0 
 1.416406e-03  -8.167958e-03  0 
 1.728381e-03  -8.000577e-03  0 
 1.661563e-03  -7.817354e-03  0 
 2.493671e-03  -7.210108e-03  0 
 4.075399e-03  -6.752799e-03  0 
 1.808154e-03  -9.661834e-03  0 
 1.488371e-03  -8.974837e-03  0 
 1.544204e-03  -8.648789e-03  0 
 1.795188e-03  -8.592302e-03  0 
 2.586285e-03  -8.768433e-03  0 
 4.266770e-03  -9.007991e-03  0 
 2.645067e-03  -1.309133e-02  0 
 4.156207e-03  -1.347066e-02  0 
 5.507623e-03  -1.356667e-02  0 
 6.674920e-03  -1.346762e-02  0 
 7.523742e-03  -1.314064e-02  0 
 7.744559e-03  -1.244255e-02  0 
 2.387681e-03  -1.552374e-02  0 
 4.138886e-03  -1.524567e-02  0 
 5.509126e-03  -1.510128e-02  0 
 6.670163e-03  -1.485542e-02  0 
 7.633152e-03  -1.447978e-02  0 
 8.771436e-03  -1.433866e-02  0 
 2.309748e-03  -1.747109e-02  0 
 3.996000e-03  -1.718335e-02  0 
 5.501378e-03  -1.685498e-02  0 
 6.762734e-03  -1.654651e-02  0 
 8.034041e-03  -1.636298e-02  0 
 9.585823e-03  -1.638698e-02  0 
 2.142174e-03  -1.958513e-02  0 
 3.951113e-03  -1.923169e-02  0 
 5.509000e-03  -1.874191e-02  0 
 6.931962e-03  -1.838277e-02  0 
 8.453768e-03  -1.831991e-02  0 
 1.020225e-02  -1.854652e-02  0 
 5.591196e-03  -1.243770e-02  0 
 4.442187e-03  -1.263021e-02  0 
 4.168383e-03  -1.300949e-02  0 
 4.599534e-03  -1.357596e-02  0 
 5.796070e-03  -1.446509e-02  0 
 7.928208e-03  -1.577082e-02  0 
 8.677471e-03  -1.435653e-02  0 
 7.481601e-03  -1.497891e-02  0 
 6.860542e-03  -1.591923e-02  0 
 7.000057e-03  -1.707769e-02  0 
 8.387608e-03  -1.832326e-02  0 
 1.059023e-02  -1.976274e-02  0 
 1.129178e-02  -1.595791e-02  0 
 1.037311e-02  -1.642406e-02  0 
 9.670225e-03  -1.748109e-02  0 
 9.487852e-03  -1.963442e-02  0 
 1.048757e-02  -2.215855e-02  0 
 1.428480e-02  -2.452854e-02  0 
 1.386606e-02  -1.678780e-02  0 
 1.277630e-02  -1.636321e-02  0 
 1.232787e-02  -1.789064e-02  0 
 1.274479e-02  -1.997418e-02  0 
 1.340013e-02  -2.568636e-02  0 
 1.832004e-02  -3.315854e-02  0 
VECTORS displacement_ITER3 FLOAT
 5.668338e-03  -1.141382e-02  0 
 -6.274055e-04  -7.572875e-03  0 
 2.894047e-04  -9.071631e-03  0 
 1.968895e-03  -1.029454e-02  0 
 3.667750e-03  -1.256165e-02  0 
 4.954306e-03  -1.271065e-02  0 
 6.330065e-03  -1.288087e-02  0 
 7.471340e-03  -1.297225e-02  0 
 8.271774e-03  -1.300602e-02  0 
 8.390436e-03  -1.288516e-02  0 
 2.250417e-03  -9.916436e-03  0 
 1.575973e-03  -9.753137e-03  0 
 1.492898e-03  -9.864848e-03  0 
 1.835761e-03  -1.028813e-02  0 
 2.706020e-03  -1.102632e-02  0 
 4.134356e-03  -1.193753e-02  0 
 9.372605e-03  -1.321584e-02  0 
 1.107179e-02  -1.507593e-02  0 
 1.216972e-02  -1.703759e-02  0 
 1.303801e-02  -1.919266e-02  0 
 -1.288707e-03  2.175306e-03  0 
 2.626175e-03  -2.059880e-03  0 
 4.840537e-03  -5.329960e-03  0 
 5.697117e-03  -7.624008e-03  0 
 4.933586e-03  -9.410216e-03  0 
 2.445015e-03  -9.828791e-03  0 
 2.866697e-05  -4.466836e-03  0 
 3.733407e-03  -6.080261e-03  0 
 5.640990e-03  -7.692496e-03  0 
 6.264720e-03  -8.807764e-03  0 
 5.546101e-03  -9.354397e-03  0 
 3.263272e-03  -9.434789e-03  0 
 1.736688e-03  -8.601177e-03  0 
 4.396152e-03  -9.837595e-03  0 
 6.019883e-03  -1.026892e-02  0 
 6.761852e-03  -1.049261e-02  0 
 6.606523e-03  -1.049832e-02  0 
 5.348727e-03  -1.045027e-02  0 
 4.800421e-04  -7.905644e-03  0 
 1.095759e-03  -8.174248e-03  0 
 1.761820e-03  -7.861555e-03  0 
 1.243941e-03  -9.306571e-03  0 
 1.524578e-03  -9.272749e-03  0 
 1.572326e-03  -9.055567e-03  0 
 1.545961e-03  -8.744009e-03  0 
 2.388005e-03  -8.229073e-03  0 
 3.929935e-03  -7.899040e-03  0 
 2.216057e-03  -1.050799e-02  0 
 1.607666e-03  -9.842453e-03  0 
 1.472275e-03  -9.549897e-03  0 
 1.678709e-03  -9.537449e-03  0 
 2.464213e-03  -9.745261e-03  0 
 4.011493e-03  -1.004443e-02  0 
 3.540185e-03  -1.394162e-02  0 
 5.044993e-03  -1.419352e-02  0 
 6.339193e-03  -1.419873e-02  0 
 7.456122e-03  -1.405371e-02  0 
 8.261512e-03  -1.370628e-02  0 
 8.440008e-03  -1.300455e-02  0 
 3.487827e-03  -1.611807e-02  0 
 4.997281e-03  -1.583595e-02  0 
 6.307255e-03  -1.564640e-02  0 
 7.436367e-03  -1.536802e-02  0 
 8.374002e-03  -1.498395e-02  0 
 9.473820e-03  -1.484873e-02  0 
 3.389393e-03  -1.778082e-02  0 
 4.872719e-03  -1.759686e-02  0 
 6.275814e-03  -1.729452e-02  0 
 7.527524e-03  -1.699011e-02  0 
 8.793558e-03  -1.680676e-02  0 
 1.031140e-02  -1.683061e-02  0 
 3.191449e-03  -1.980947e-02  0 
 4.825252e-03  -1.947949e-02  0 
 6.249864e-03  -1.914023e-02  0 
 7.718147e-03  -1.879730e-02  0 
 9.229717e-03  -1.871534e-02  0 
 1.096059e-02  -1.891107e-02  0 
 5.732612e-03  -1.319095e-02  0 
 4.295005e-03  -1.337923e-02  0 
 3.886982e-03  -1.367907e-02  0 
 4.276779e-03  -1.413662e-02  0 
 5.413966e-03  -1.484409e-02  0 
 7.300041e-03  -1.584123e-02  0 
 8.503916e-03  -1.520300e-02  0 
 6.811675e-03  -1.584795e-02  0 
 6.053583e-03  -1.662000e-02  0 
 6.313497e-03  -1.753498e-02  0 
 7.766890e-03  -1.851320e-02  0 
 9.977510e-03  -1.965438e-02  0 
 1.060562e-02  -1.688988e-02  0 
 8.968752e-03  -1.740314e-02  0 
 8.166946e-03  -1.855110e-02  0 
 8.285500e-03  -2.043779e-02  0 
 9.719651e-03  -2.243183e-02  0 
 1.333103e-02  -2.426187e-02  0 
 1.202910e-02  -1.753111e-02  0 
 1.063871e-02  -1.777300e-02  0 
 1.027346e-02  -1.966552e-02  0 
 1.081546e-02  -2.210546e-02  0 
 1.206007e-02  -2.664110e-02  0 
 1.697869e-02  -3.195876e-02  0 
VECTORS displacement_ITER4 FLOAT
 5.245323e-03  -1.008765e-02  0 
 -1.001908e-03  -6.351817e-03  0 
 -1.305786e-04  -7.705799e-03  0 
 1.528664e-03  -8.949923e-03  0 
 4.116234e-03  -1.125570e-02  0 
 5.304088e-03  -1.138455e-02  0 
 6.525302e-03  -1.152682e-02  0 
 7.519968e-03  -1.160094e-02  0 
 8.178629e-03  -1.163792e-02  0 
 8.147595e-03  -1.153474e-02  0 
 1.845166e-03  -8.615817e-03  0 
 1.236331e-03  -8.476395e-03  0 
 1.251713e-03  -8.583524e-03  0 
 1.681875e-03  -8.932776e-03  0 
 2.536689e-03  -9.513978e-03  0 
 3.704829e-03  -1.022177e-02  0 
 8.977509e-03  -1.171181e-02  0 
 1.069899e-02  -1.341721e-02  0 
 1.181921e-02  -1.521656e-02  0 
 1.273861e-02  -1.718423e-02  0 
 -2.669862e-04  -2.251709e-03  0 
 3.045907e-03  -4.504614e-03  0 
 4.724989e-03  -6.656927e-03  0 
 5.043233e-03  -8.398127e-03  0 
 3.948916e-03  -9.621861e-03  0 
 1.515172e-03  -9.383213e-03  0 
 1.255781e-03  -6.445228e-03  0 
 3.897437e-03  -7.445114e-03  0 
 5.392848e-03  -8.258926e-03  0 
 5.720112e-03  -8.833416e-03  0 
 4.780348e-03  -9.004758e-03  0 
 2.517106e-03  -8.682760e-03  0 
 2.834803e-03  -9.085160e-03  0 
 4.602041e-03  -9.705743e-03  0 
 5.861003e-03  -9.863648e-03  0 
 6.415281e-03  -9.836499e-03  0 
 6.114508e-03  -9.656038e-03  0 
 4.775372e-03  -9.431811e-03  0 
 3.024629e-05  -6.530444e-03  0 
 7.239777e-04  -6.679391e-03  0 
 1.509079e-03  -6.334873e-03  0 
 8.124060e-04  -7.930603e-03  0 
 1.164039e-03  -7.867560e-03  0 
 1.332299e-03  -7.609330e-03  0 
 1.423818e-03  -7.296515e-03  0 
 2.275116e-03  -6.909909e-03  0 
 3.681900e-03  -6.710063e-03  0 
 1.807112e-03  -9.161384e-03  0 
 1.261120e-03  -8.494386e-03  0 
 1.234199e-03  -8.187930e-03  0 
 1.548260e-03  -8.156464e-03  0 
 2.332626e-03  -8.348908e-03  0 
 3.688091e-03  -8.638131e-03  0 
 4.020284e-03  -1.252257e-02  0 
 5.381112e-03  -1.270922e-02  0 
 6.528935e-03  -1.267955e-02  0 
 7.510363e-03  -1.252659e-02  0 
 8.178373e-03  -1.218347e-02  0 
 8.207416e-03  -1.149105e-02  0 
 4.098198e-03  -1.435917e-02  0 
 5.324251e-03  -1.414128e-02  0 
 6.496761e-03  -1.395828e-02  0 
 7.501059e-03  -1.367830e-02  0 
 8.309006e-03  -1.330009e-02  0 
 9.261223e-03  -1.317673e-02  0 
 3.896467e-03  -1.583912e-02  0 
 5.218728e-03  -1.572174e-02  0 
 6.465841e-03  -1.544632e-02  0 
 7.607948e-03  -1.514683e-02  0 
 8.758520e-03  -1.496467e-02  0 
 1.013274e-02  -1.499307e-02  0 
 3.606180e-03  -1.788738e-02  0 
 5.135490e-03  -1.748616e-02  0 
 6.413378e-03  -1.718992e-02  0 
 7.819405e-03  -1.683559e-02  0 
 9.218159e-03  -1.672376e-02  0 
 1.082265e-02  -1.689048e-02  0 
 5.102277e-03  -1.199489e-02  0 
 3.697406e-03  -1.231342e-02  0 
 3.476102e-03  -1.267005e-02  0 
 4.141080e-03  -1.316082e-02  0 
 5.623615e-03  -1.397787e-02  0 
 8.353135e-03  -1.558248e-02  0 
 7.711705e-03  -1.410187e-02  0 
 5.996081e-03  -1.513746e-02  0 
 5.536769e-03  -1.618248e-02  0 
 6.352964e-03  -1.732729e-02  0 
 8.626900e-03  -1.869305e-02  0 
 1.185624e-02  -2.038467e-02  0 
 9.655330e-03  -1.600271e-02  0 
 8.050531e-03  -1.726654e-02  0 
 7.610153e-03  -1.903205e-02  0 
 8.513450e-03  -2.137236e-02  0 
 1.107539e-02  -2.371809e-02  0 
 1.573403e-02  -2.587389e-02  0 
 1.084115e-02  -1.736215e-02  0 
 9.707347e-03  -1.847813e-02  0 
 9.817797e-03  -2.130722e-02  0 
 1.110880e-02  -2.470517e-02  0 
 1.358811e-02  -2.944072e-02  0 
 1.974611e-02  -3.438972e-02  0 
VECTORS displacement_ITER5 FLOAT
 5.038938e-03  -9.055917e-03  0 
 -1.287319e-03  -5.222364e-03  0 
 -3.756003e-04  -6.645141e-03  0 
 1.306589e-03  -7.944431e-03  0 
 3.515610e-03  -9.964710e-03  0 
 4.793148e-03  -1.010343e-02  0 
 6.086924e-03  -1.026035e-02  0 
 7.165672e-03  -1.036933e-02  0 
 7.901009e-03  -1.045227e-02  0 
 7.930851e-03  -1.040768e-02  0 
 1.684751e-03  -7.678678e-03  0 
 1.179298e-03  -7.587597e-03  0 
 1.306189e-03  -7.702397e-03  0 
 1.815908e-03  -8.017677e-03  0 
 2.682723e-03  -8.541348e-03  0 
 3.833325e-03  -9.210873e-03  0 
 8.787783e-03  -1.062135e-02  0 
 1.052726e-02  -1.235913e-02  0 
 1.164209e-02  -1.420125e-02  0 
 1.253209e-02  -1.617414e-02  0 
 2.095629e-03  -4.957064e-03  0 
 3.322569e-03  -5.972119e-03  0 
 3.942775e-03  -7.031228e-03  0 
 3.789312e-03  -7.980169e-03  0 
 2.690429e-03  -8.629073e-03  0 
 6.267951e-04  -8.132801e-03  0 
 2.793605e-03  -6.831164e-03  0 
 3.908863e-03  -7.401138e-03  0 
 4.618914e-03  -7.839876e-03  0 
 4.676314e-03  -8.127530e-03  0 
 3.808505e-03  -8.135348e-03  0 
 1.877056e-03  -7.735612e-03  0 
 3.343223e-03  -8.314577e-03  0 
 4.375145e-03  -8.687481e-03  0 
 5.258699e-03  -8.836800e-03  0 
 5.709337e-03  -8.834570e-03  0 
 5.486790e-03  -8.690864e-03  0 
 4.310906e-03  -8.486930e-03  0 
 -1.423581e-04  -5.395980e-03  0 
 6.457478e-04  -5.510302e-03  0 
 1.560336e-03  -5.129718e-03  0 
 6.396401e-04  -6.866098e-03  0 
 1.088167e-03  -6.792432e-03  0 
 1.388930e-03  -6.534058e-03  0 
 1.573738e-03  -6.288762e-03  0 
 2.439159e-03  -5.989171e-03  0 
 3.776958e-03  -5.859694e-03  0 
 1.635991e-03  -8.158096e-03  0 
 1.193765e-03  -7.508585e-03  0 
 1.289338e-03  -7.218592e-03  0 
 1.695270e-03  -7.195172e-03  0 
 2.497470e-03  -7.389605e-03  0 
 3.782499e-03  -7.666794e-03  0 
 3.448610e-03  -1.130168e-02  0 
 4.862584e-03  -1.149158e-02  0 
 6.102324e-03  -1.149023e-02  0 
 7.171255e-03  -1.137041e-02  0 
 7.914705e-03  -1.105985e-02  0 
 8.000933e-03  -1.039467e-02  0 
 3.516331e-03  -1.312134e-02  0 
 4.819295e-03  -1.299155e-02  0 
 6.085657e-03  -1.285007e-02  0 
 7.175543e-03  -1.259437e-02  0 
 8.052223e-03  -1.223239e-02  0 
 9.050804e-03  -1.211609e-02  0 
 3.262381e-03  -1.479488e-02  0 
 4.728069e-03  -1.468537e-02  0 
 6.067967e-03  -1.443213e-02  0 
 7.289001e-03  -1.413770e-02  0 
 8.507573e-03  -1.395305e-02  0 
 9.925503e-03  -1.397939e-02  0 
 2.938789e-03  -1.704595e-02  0 
 4.616906e-03  -1.662074e-02  0 
 6.017322e-03  -1.627164e-02  0 
 7.496309e-03  -1.591740e-02  0 
 8.967329e-03  -1.577737e-02  0 
 1.061767e-02  -1.590445e-02  0 
 5.102973e-03  -1.096919e-02  0 
 3.878987e-03  -1.141487e-02  0 
 3.799581e-03  -1.194398e-02  0 
 4.488152e-03  -1.263078e-02  0 
 5.921359e-03  -1.362870e-02  0 
 8.882120e-03  -1.549112e-02  0 
 7.882401e-03  -1.312369e-02  0 
 6.542733e-03  -1.435585e-02  0 
 6.359834e-03  -1.564174e-02  0 
 7.193735e-03  -1.704921e-02  0 
 9.229003e-03  -1.877744e-02  0 
 1.225927e-02  -2.078243e-02  0 
 1.010353e-02  -1.522712e-02  0 
 9.133612e-03  -1.689107e-02  0 
 9.011283e-03  -1.878518e-02  0 
 9.981899e-03  -2.112311e-02  0 
 1.204157e-02  -2.351913e-02  0 
 1.542673e-02  -2.576726e-02  0 
 1.207946e-02  -1.743746e-02  0 
 1.140606e-02  -1.872231e-02  0 
 1.176031e-02  -2.160950e-02  0 
 1.291622e-02  -2.444979e-02  0 
 1.474767e-02  -2.803782e-02  0 
 1.858654e-02  -3.186684e-02  0 
VECTORS displacement_ITER6 FLOAT
 5.447530e-03  -9.684774e-03  0 
 -8.681264e-04  -6.144046e-03  0 
 3.038871e-05  -7.513657e-03  0 
 1.709584e-03  -8.719933e-03  0 
 3.070304e-03  -1.033134e-02  0 
 4.550775e-03  -1.050663e-02  0 
 5.997018e-03  -1.070373e-02  0 
 7.225433e-03  -1.086102e-02  0 
 8.095667e-03  -1.098655e-02  0 
 8.248001e-03  -1.098128e-02  0 
 1.982340e-03  -8.367060e-03  0 
 1.399678e-03  -8.337216e-03  0 
 1.482193e-03  -8.534346e-03  0 
 1.986173e-03  -8.942060e-03  0 
 2.885997e-03  -9.554860e-03  0 
 4.127511e-03  -1.032425e-02  0 
 9.204482e-03  -1.130467e-02  0 
 1.094555e-02  -1.315419e-02  0 
 1.203305e-02  -1.511297e-02  0 
 1.284857e-02  -1.715765e-02  0 
 2.808296e-03  -3.610844e-03  0 
 3.187486e-03  -5.170385e-03  0 
 3.465339e-03  -6.299761e-03  0 
 3.363015e-03  -7.134832e-03  0 
 2.579523e-03  -7.787227e-03  0 
 9.226610e-04  -7.812252e-03  0 
 2.908034e-03  -5.764374e-03  0 
 3.840729e-03  -6.497239e-03  0 
 4.357401e-03  -7.262862e-03  0 
 4.466756e-03  -7.793754e-03  0 
 3.888271e-03  -8.075938e-03  0 
 2.300469e-03  -8.087433e-03  0 
 3.009590e-03  -7.655142e-03  0 
 4.251845e-03  -8.317824e-03  0 
 5.180848e-03  -8.683806e-03  0 
 5.726369e-03  -8.925099e-03  0 
 5.704574e-03  -9.012966e-03  0 
 4.717040e-03  -9.010117e-03  0 
 2.020997e-04  -6.349886e-03  0 
 8.556287e-04  -6.470573e-03  0 
 1.589774e-03  -6.116968e-03  0 
 9.523542e-04  -7.731161e-03  0 
 1.287731e-03  -7.656488e-03  0 
 1.483194e-03  -7.405273e-03  0 
 1.718397e-03  -7.159042e-03  0 
 2.630872e-03  -6.890009e-03  0 
 4.032369e-03  -6.789336e-03  0 
 1.928699e-03  -8.938242e-03  0 
 1.394733e-03  -8.312225e-03  0 
 1.434718e-03  -8.072145e-03  0 
 1.841797e-03  -8.106457e-03  0 
 2.690769e-03  -8.344782e-03  0 
 4.044299e-03  -8.661132e-03  0 
 3.078248e-03  -1.183142e-02  0 
 4.621888e-03  -1.205203e-02  0 
 6.028056e-03  -1.209309e-02  0 
 7.241699e-03  -1.200874e-02  0 
 8.115103e-03  -1.172498e-02  0 
 8.319625e-03  -1.107695e-02  0 
 3.129313e-03  -1.374684e-02  0 
 4.615680e-03  -1.371239e-02  0 
 6.028494e-03  -1.361448e-02  0 
 7.251961e-03  -1.338024e-02  0 
 8.249652e-03  -1.303000e-02  0 
 9.357731e-03  -1.291570e-02  0 
 2.894529e-03  -1.571750e-02  0 
 4.556379e-03  -1.559152e-02  0 
 6.026455e-03  -1.535443e-02  0 
 7.364475e-03  -1.506948e-02  0 
 8.697706e-03  -1.488388e-02  0 
 1.021787e-02  -1.490438e-02  0 
 2.683912e-03  -1.809425e-02  0 
 4.441147e-03  -1.771065e-02  0 
 5.998945e-03  -1.732649e-02  0 
 7.564105e-03  -1.699993e-02  0 
 9.144092e-03  -1.684884e-02  0 
 1.088690e-02  -1.693805e-02  0 
 5.625744e-03  -1.154112e-02  0 
 4.405876e-03  -1.197447e-02  0 
 4.268009e-03  -1.254311e-02  0 
 4.785329e-03  -1.329716e-02  0 
 5.905677e-03  -1.426669e-02  0 
 8.141895e-03  -1.566809e-02  0 
 8.542004e-03  -1.367184e-02  0 
 7.302630e-03  -1.474239e-02  0 
 7.081893e-03  -1.588675e-02  0 
 7.632282e-03  -1.716054e-02  0 
 8.921687e-03  -1.870623e-02  0 
 1.096841e-02  -2.036872e-02  0 
 1.089900e-02  -1.576124e-02  0 
 1.003934e-02  -1.715098e-02  0 
 9.879356e-03  -1.868557e-02  0 
 1.055943e-02  -2.051387e-02  0 
 1.173973e-02  -2.237442e-02  0 
 1.330606e-02  -2.419898e-02  0 
 1.336413e-02  -1.767169e-02  0 
 1.239727e-02  -1.896406e-02  0 
 1.271475e-02  -2.135464e-02  0 
 1.346095e-02  -2.334180e-02  0 
 1.432772e-02  -2.531260e-02  0 
 1.568899e-02  -2.725443e-02  0 
VECTORS displacement_ITER7 FLOAT
 5.392903e-03  -9.325786e-03  0 
 -1.002755e-03  -5.687451e-03  0 
 -7.036094e-05  -7.106470e-03  0 
 1.629888e-03  -8.343936e-03  0 
 3.310609e-03  -9.968814e-03  0 
 4.724028e-03  -1.015478e-02  0 
 6.113198e-03  -1.035266e-02  0 
 7.295882e-03  -1.050628e-02  0 
 8.128889e-03  -1.062607e-02  0 
 8.247612e-03  -1.061998e-02  0 
 1.928764e-03  -8.012030e-03  0 
 1.379440e-03  -7.985495e-03  0 
 1.496807e-03  -8.165104e-03  0 
 2.001735e-03  -8.526892e-03  0 
 2.850704e-03  -9.090918e-03  0 
 4.046887e-03  -9.851145e-03  0 
 9.176982e-03  -1.090890e-02  0 
 1.094176e-02  -1.273870e-02  0 
 1.205562e-02  -1.469693e-02  0 
 1.289183e-02  -1.676811e-02  0 
 3.137553e-03  -4.519881e-03  0 
 3.181921e-03  -5.667974e-03  0 
 3.229620e-03  -6.430712e-03  0 
 3.039086e-03  -6.949793e-03  0 
 2.302725e-03  -7.402883e-03  0 
 7.614549e-04  -7.327543e-03  0 
 3.209315e-03  -6.069156e-03  0 
 3.826343e-03  -6.635329e-03  0 
 4.177816e-03  -7.221126e-03  0 
 4.233467e-03  -7.615095e-03  0 
 3.685901e-03  -7.797723e-03  0 
 2.162586e-03  -7.734757e-03  0 
 3.257770e-03  -7.600917e-03  0 
 4.314218e-03  -8.159669e-03  0 
 5.131753e-03  -8.476936e-03  0 
 5.632390e-03  -8.677537e-03  0 
 5.605193e-03  -8.728746e-03  0 
 4.625117e-03  -8.687190e-03  0 
 1.309725e-04  -5.907379e-03  0 
 8.369934e-04  -6.035432e-03  0 
 1.511039e-03  -5.747043e-03  0 
 8.922422e-04  -7.326287e-03  0 
 1.261988e-03  -7.244188e-03  0 
 1.487157e-03  -6.980903e-03  0 
 1.780888e-03  -6.783791e-03  0 
 2.619823e-03  -6.586586e-03  0 
 3.872602e-03  -6.503605e-03  0 
 1.874369e-03  -8.561282e-03  0 
 1.371413e-03  -7.927327e-03  0 
 1.454066e-03  -7.689011e-03  0 
 1.877087e-03  -7.717573e-03  0 
 2.672337e-03  -7.937464e-03  0 
 3.914774e-03  -8.241255e-03  0 
 3.319100e-03  -1.140963e-02  0 
 4.797917e-03  -1.164032e-02  0 
 6.147220e-03  -1.169354e-02  0 
 7.311588e-03  -1.161272e-02  0 
 8.147823e-03  -1.132857e-02  0 
 8.321160e-03  -1.067817e-02  0 
 3.357717e-03  -1.326627e-02  0 
 4.803904e-03  -1.325224e-02  0 
 6.149660e-03  -1.316813e-02  0 
 7.319440e-03  -1.294532e-02  0 
 8.280445e-03  -1.260221e-02  0 
 9.367116e-03  -1.249313e-02  0 
 3.199727e-03  -1.516521e-02  0 
 4.758388e-03  -1.506345e-02  0 
 6.151420e-03  -1.485504e-02  0 
 7.428784e-03  -1.459861e-02  0 
 8.727545e-03  -1.443705e-02  0 
 1.023683e-02  -1.447630e-02  0 
 3.028716e-03  -1.740577e-02  0 
 4.678059e-03  -1.707960e-02  0 
 6.141359e-03  -1.675537e-02  0 
 7.630778e-03  -1.649387e-02  0 
 9.180844e-03  -1.640358e-02  0 
 1.091562e-02  -1.653052e-02  0 
 5.563178e-03  -1.119149e-02  0 
 4.358037e-03  -1.162917e-02  0 
 4.257813e-03  -1.218395e-02  0 
 4.822876e-03  -1.292953e-02  0 
 5.996793e-03  -1.393460e-02  0 
 8.345957e-03  -1.545987e-02  0 
 8.452964e-03  -1.333513e-02  0 
 7.217327e-03  -1.442822e-02  0 
 7.075591e-03  -1.559560e-02  0 
 7.755152e-03  -1.692157e-02  0 
 9.207089e-03  -1.855595e-02  0 
 1.141434e-02  -2.037898e-02  0 
 1.071615e-02  -1.547927e-02  0 
 9.902366e-03  -1.690474e-02  0 
 9.919952e-03  -1.855260e-02  0 
 1.079323e-02  -2.047323e-02  0 
 1.220800e-02  -2.244210e-02  0 
 1.407249e-02  -2.441048e-02  0 
 1.282986e-02  -1.751635e-02  0 
 1.225895e-02  -1.898361e-02  0 
 1.283385e-02  -2.144475e-02  0 
 1.378716e-02  -2.357114e-02  0 
 1.494862e-02  -2.562860e-02  0 
 1.679275e-02  -2.785699e-02  0 
VECTORS displacement_ITER8 FLOAT
 5.359098e-03  -9.138861e-03  0 
 -1.032169e-03  -5.521366e-03  0 
 -1.044298e-04  -6.894983e-03  0 
 1.589071e-03  -8.127905e-03  0 
 3.798336e-03  -9.896010e-03  0 
 5.133420e-03  -1.009718e-02  0 
 6.413897e-03  -1.028175e-02  0 
 7.495210e-03  -1.040921e-02  0 
 8.240612e-03  -1.050210e-02  0 
 8.282414e-03  -1.047052e-02  0 
 1.886364e-03  -7.790916e-03  0 
 1.331259e-03  -7.751648e-03  0 
 1.448473e-03  -7.914403e-03  0 
 1.937171e-03  -8.235793e-03  0 
 2.727391e-03  -8.742016e-03  0 
 3.814935e-03  -9.452800e-03  0 
 9.153950e-03  -1.069130e-02  0 
 1.092633e-02  -1.246227e-02  0 
 1.205548e-02  -1.436327e-02  0 
 1.291407e-02  -1.638609e-02  0 
 2.057357e-03  -5.172593e-03  0 
 2.824763e-03  -5.972068e-03  0 
 3.083640e-03  -6.609135e-03  0 
 2.933071e-03  -7.062885e-03  0 
 2.220453e-03  -7.427860e-03  0 
 7.372283e-04  -7.249417e-03  0 
 2.686693e-03  -6.683302e-03  0 
 3.551915e-03  -7.116855e-03  0 
 4.096276e-03  -7.480124e-03  0 
 4.203859e-03  -7.736669e-03  0 
 3.658383e-03  -7.822968e-03  0 
 2.135709e-03  -7.654268e-03  0 
 3.258921e-03  -8.029221e-03  0 
 4.326598e-03  -8.463081e-03  0 
 5.180336e-03  -8.665963e-03  0 
 5.687100e-03  -8.749369e-03  0 
 5.629231e-03  -8.709295e-03  0 
 4.608520e-03  -8.581831e-03  0 
 7.562235e-05  -5.709415e-03  0 
 7.888822e-04  -5.814065e-03  0 
 1.393125e-03  -5.569765e-03  0 
 8.435006e-04  -7.112835e-03  0 
 1.209122e-03  -7.019186e-03  0 
 1.426701e-03  -6.735184e-03  0 
 1.752075e-03  -6.549804e-03  0 
 2.522649e-03  -6.413398e-03  0 
 3.641808e-03  -6.361333e-03  0 
 1.834193e-03  -8.342473e-03  0 
 1.321764e-03  -7.695601e-03  0 
 1.408480e-03  -7.448957e-03  0 
 1.827982e-03  -7.466385e-03  0 
 2.566215e-03  -7.669056e-03  0 
 3.685085e-03  -7.965868e-03  0 
 3.828121e-03  -1.127730e-02  0 
 5.205544e-03  -1.148277e-02  0 
 6.442559e-03  -1.151638e-02  0 
 7.505513e-03  -1.141966e-02  0 
 8.255904e-03  -1.112185e-02  0 
 8.354888e-03  -1.046030e-02  0 
 3.896484e-03  -1.300713e-02  0 
 5.207591e-03  -1.297800e-02  0 
 6.437274e-03  -1.288352e-02  0 
 7.509961e-03  -1.265776e-02  0 
 8.390903e-03  -1.231574e-02  0 
 9.411600e-03  -1.221145e-02  0 
 3.793876e-03  -1.470166e-02  0 