# vtk DataFile Version 3.1
this is an vtk file created by FEMAC
ASCII
DATASET UNSTRUCTURED_GRID
POINTS 101 FLOAT
6.000000 0.000000 0.000000
6.000000 1.000000 0.000000
5.111111 0.000000 0.000000
5.222222 0.000000 0.000000
5.333333 0.000000 0.000000
5.444444 0.000000 0.000000
5.555556 0.000000 0.000000
5.666667 0.000000 0.000000
5.777778 0.000000 0.000000
5.888889 0.000000 0.000000
5.222222 1.000000 0.000000
5.333333 1.000000 0.000000
5.444444 1.000000 0.000000
5.555556 1.000000 0.000000
5.666667 1.000000 0.000000
5.777778 1.000000 0.000000
5.888889 1.000000 0.000000
6.000000 0.111111 0.000000
6.000000 0.222222 0.000000
6.000000 0.333333 0.000000
6.000000 0.444444 0.000000
6.000000 0.555556 0.000000
6.000000 0.666667 0.000000
6.000000 0.777778 0.000000
6.000000 0.888889 0.000000
6.000000 1.111111 0.000000
6.000000 1.222222 0.000000
5.111111 0.111111 0.000000
5.111111 0.222222 0.000000
5.111111 0.333333 0.000000
5.111111 0.444444 0.000000
5.222222 0.111111 0.000000
5.222222 0.222222 0.000000
5.222222 0.333333 0.000000
5.222222 0.444444 0.000000
5.222222 0.555556 0.000000
5.222222 0.666667 0.000000
5.222222 0.777778 0.000000
5.222222 0.888889 0.000000
5.333333 0.111111 0.000000
5.333333 0.222222 0.000000
5.333333 0.333333 0.000000
5.333333 0.444444 0.000000
5.333333 0.555556 0.000000
5.333333 0.666667 0.000000
5.333333 0.777778 0.000000
5.333333 0.888889 0.000000
5.444444 0.111111 0.000000
5.444444 0.222222 0.000000
5.444444 0.333333 0.000000
5.444444 0.444444 0.000000
5.444444 0.555556 0.000000
5.444444 0.666667 0.000000
5.444444 0.777778 0.000000
5.444444 0.888889 0.000000
5.555556 0.111111 0.000000
5.555556 0.222222 0.000000
5.555556 0.333333 0.000000
5.555556 0.444444 0.000000
5.555556 0.555556 0.000000
5.555556 0.666667 0.000000
5.555556 0.777778 0.000000
5.555556 0.888889 0.000000
5.666667 0.111111 0.000000
5.666667 0.222222 0.000000
5.666667 0.333333 0.000000
5.666667 0.444444 0.000000
5.666667 0.555556 0.000000
5.666667 0.666667 0.000000
5.666667 0.777778 0.000000
5.666667 0.888889 0.000000
5.777778 0.111111 0.000000
5.777778 0.222222 0.000000
5.777778 0.333333 0.000000
5.777778 0.444444 0.000000
5.777778 0.555556 0.000000
5.777778 0.666667 0.000000
5.777778 0.777778 0.000000
5.777778 0.888889 0.000000
5.888889 0.111111 0.000000
5.888889 0.222222 0.000000
5.888889 0.333333 0.000000
5.888889 0.444444 0.000000
5.888889 0.555556 0.000000
5.888889 0.666667 0.000000
5.888889 0.777778 0.000000
5.888889 0.888889 0.000000
5.222222 1.111111 0.000000
5.222222 1.222222 0.000000
5.333333 1.111111 0.000000
5.333333 1.222222 0.000000
5.444444 1.111111 0.000000
5.444444 1.222222 0.000000
5.555556 1.111111 0.000000
5.555556 1.222222 0.000000
5.666667 1.111111 0.000000
5.666667 1.222222 0.000000
5.777778 1.111111 0.000000
5.777778 1.222222 0.000000
5.888889 1.111111 0.000000
5.888889 1.222222 0.000000
CELLS 81 405 
4 2  3 31 27
4 27 31 32 28
4 28 32 33 29
4 29 33 34 30
4 3  4 39 31
4 31 39 40 32
4 32 40 41 33
4 33 41 42 34
4 34 42 43 35
4 35 43 44 36
4 36 44 45 37
4 37 45 46 38
4 38 46 11 10
4 4  5 47 39
4 39 47 48 40
4 40 48 49 41
4 41 49 50 42
4 42 50 51 43
4 43 51 52 44
4 44 52 53 45
4 45 53 54 46
4 46 54 12 11
4 5  6 55 47
4 47 55 56 48
4 48 56 57 49
4 49 57 58 50
4 50 58 59 51
4 51 59 60 52
4 52 60 61 53
4 53 61 62 54
4 54 62 13 12
4 6  7 63 55
4 55 63 64 56
4 56 64 65 57
4 57 65 66 58
4 58 66 67 59
4 59 67 68 60
4 60 68 69 61
4 61 69 70 62
4 62 70 14 13
4 7  8 71 63
4 63 71 72 64
4 64 72 73 65
4 65 73 74 66
4 66 74 75 67
4 67 75 76 68
4 68 76 77 69
4 69 77 78 70
4 70 78 15 14
4 8  9 79 71
4 71 79 80 72
4 72 80 81 73
4 73 81 82 74
4 74 82 83 75
4 75 83 84 76
4 76 84 85 77
4 77 85 86 78
4 78 86 16 15
4 9  0 17 79
4 79 17 18 80
4 80 18 19 81
4 81 19 20 82
4 82 20 21 83
4 83 21 22 84
4 84 22 23 85
4 85 23 24 86
4 86 24  1 16
4 10 11 89 87
4 87 89 90 88
4 11 12 91 89
4 89 91 92 90
4 12 13 93 91
4 91 93 94 92
4 13 14 95 93
4 93 95 96 94
4 14 15 97 95
4 95 97 98 96
4 15 16 99 97
4 97  99 100  98
4 16  1 25 99
4 99  25  26 100
CELL_TYPES 81
9 9 9 9 9 9 9 9 9 9 9 9 9 9 9 9 9 9 9 9 9 9 9 9 9 9 9 9 9 9 9 9 9 9 9 9 9 9 9 9 9 9 9 9 9 9 9 9 9 9 9 9 9 9 9 9 9 9 9 9 9 9 9 9 9 9 9 9 9 9 9 9 9 9 9 9 9 9 9 9 9 
POINT_DATA 101
VECTORS displacement_ITER1 FLOAT
 -8.248227e-02  -1.785616e-01  0 
 -5.098867e-02  -1.667318e-01  0 
 -8.414732e-02  -1.479723e-01  0 
 -8.424140e-02  -1.518752e-01  0 
 -8.384751e-02  -1.563258e-01  0 
 -8.334825e-02  -1.605304e-01  0 
 -8.293158e-02  -1.644523e-01  0 
 -8.265348e-02  -1.681510e-01  0 
 -8.250952e-02  -1.716983e-01  0 
 -8.246721e-02  -1.751541e-01  0 
 -5.019442e-02  -1.451038e-01  0 
 -5.043148e-02  -1.480870e-01  0 
 -5.065533e-02  -1.510628e-01  0 
 -5.083172e-02  -1.541617e-01  0 
 -5.093998e-02  -1.573307e-01  0 
 -5.098403e-02  -1.604978e-01  0 
 -5.098289e-02  -1.636213e-01  0 
 -7.909061e-02  -1.784207e-01  0 
 -7.571156e-02  -1.779942e-01  0 
 -7.233795e-02  -1.772593e-01  0 
 -6.898205e-02  -1.762192e-01  0 
 -6.564290e-02  -1.749004e-01  0 
 -6.229244e-02  -1.733389e-01  0 
 -5.885872e-02  -1.715580e-01  0 
 -5.520940e-02  -1.695032e-01  0 
 -4.788551e-02  -1.666731e-01  0 
 -4.496163e-02  -1.665708e-01  0 
 -8.050486e-02  -1.474364e-01  0 
 -7.565452e-02  -1.470202e-01  0 
 -7.076634e-02  -1.467696e-01  0 
 -6.569549e-02  -1.462072e-01  0 
 -7.994397e-02  -1.519794e-01  0 
 -7.543904e-02  -1.519104e-01  0 
 -7.079555e-02  -1.516214e-01  0 
 -6.629132e-02  -1.513130e-01  0 
 -6.239742e-02  -1.508733e-01  0 
 -5.850633e-02  -1.501916e-01  0 
 -5.522430e-02  -1.493107e-01  0 
 -5.220179e-02  -1.479119e-01  0 
 -7.953147e-02  -1.563825e-01  0 
 -7.521523e-02  -1.562599e-01  0 
 -7.086270e-02  -1.559069e-01  0 
 -6.664148e-02  -1.552791e-01  0 
 -6.268804e-02  -1.544630e-01  0 
 -5.904936e-02  -1.534164e-01  0 
 -5.577967e-02  -1.520192e-01  0 
 -5.304864e-02  -1.501492e-01  0 
 -7.925430e-02  -1.605401e-01  0 
 -7.512475e-02  -1.602999e-01  0 
 -7.102032e-02  -1.597968e-01  0 
 -6.700810e-02  -1.590083e-01  0 
 -6.318097e-02  -1.579386e-01  0 
 -5.963266e-02  -1.565906e-01  0 
 -5.642278e-02  -1.549443e-01  0 
 -5.347507e-02  -1.530815e-01  0 
 -7.907299e-02  -1.644147e-01  0 
 -7.515265e-02  -1.640922e-01  0 
 -7.124451e-02  -1.634795e-01  0 
 -6.741064e-02  -1.625629e-01  0 
 -6.371209e-02  -1.613363e-01  0 
 -6.020921e-02  -1.598203e-01  0 
 -5.692027e-02  -1.580784e-01  0 
 -5.381206e-02  -1.561804e-01  0 
 -7.898347e-02  -1.680718e-01  0 
 -7.524806e-02  -1.677008e-01  0 
 -7.151255e-02  -1.670236e-01  0 
 -6.782917e-02  -1.660306e-01  0 
 -6.423230e-02  -1.647214e-01  0 
 -6.073557e-02  -1.631227e-01  0 
 -5.734898e-02  -1.613053e-01  0 
 -5.408580e-02  -1.593554e-01  0 
 -7.897201e-02  -1.715877e-01  0 
 -7.538374e-02  -1.711882e-01  0 
 -7.179348e-02  -1.704798e-01  0 
 -6.823753e-02  -1.694566e-01  0 
 -6.472917e-02  -1.681239e-01  0 
 -6.125272e-02  -1.664961e-01  0 
 -5.777306e-02  -1.646053e-01  0 
 -5.432507e-02  -1.625681e-01  0 
 -7.901705e-02  -1.750235e-01  0 
 -7.554164e-02  -1.746076e-01  0 
 -7.206923e-02  -1.738841e-01  0 
 -6.862036e-02  -1.728541e-01  0 
 -6.519900e-02  -1.715295e-01  0 
 -6.177784e-02  -1.699236e-01  0 
 -5.828900e-02  -1.680352e-01  0 
 -5.461447e-02  -1.658425e-01  0 
 -4.740545e-02  -1.452065e-01  0 
 -4.479909e-02  -1.452597e-01  0 
 -4.752305e-02  -1.479955e-01  0 
 -4.469281e-02  -1.479233e-01  0 
 -4.763569e-02  -1.509907e-01  0 
 -4.461680e-02  -1.509890e-01  0 
 -4.771133e-02  -1.541108e-01  0 
 -4.458232e-02  -1.540667e-01  0 
 -4.778688e-02  -1.572854e-01  0 
 -4.466577e-02  -1.572248e-01  0 
 -4.785418e-02  -1.604722e-01  0 
 -4.470041e-02  -1.604556e-01  0 
 -4.787936e-02  -1.636160e-01  0 
 -4.481122e-02  -1.636202e-01  0 
VECTORS displacement_ITER2 FLOAT
 -8.171569e-02  -1.686097e-01  0 
 -4.920268e-02  -1.580363e-01  0 
 -8.115959e-02  -1.366623e-01  0 
 -8.181320e-02  -1.410118e-01  0 
 -8.193916e-02  -1.454410e-01  0 
 -8.189122e-02  -1.496747e-01  0 
 -8.180303e-02  -1.537144e-01  0 
 -8.173400e-02  -1.575890e-01  0 
 -8.169903e-02  -1.613409e-01  0 
 -8.169508e-02  -1.650044e-01  0 
 -4.860296e-02  -1.360426e-01  0 
 -4.880698e-02  -1.391065e-01  0 
 -4.895658e-02  -1.422257e-01  0 
 -4.906295e-02  -1.453958e-01  0 
 -4.913391e-02  -1.485797e-01  0 
 -4.917421e-02  -1.517517e-01  0 
 -4.918886e-02  -1.548977e-01  0 
 -7.813277e-02  -1.684742e-01  0 
 -7.457578e-02  -1.680802e-01  0 
 -7.103560e-02  -1.674268e-01  0 
 -6.752008e-02  -1.665202e-01  0 
 -6.403087e-02  -1.653748e-01  0 
 -6.055142e-02  -1.640072e-01  0 
 -5.702868e-02  -1.624230e-01  0 
 -5.335347e-02  -1.605646e-01  0 
 -4.607001e-02  -1.579935e-01  0 
 -4.302265e-02  -1.579534e-01  0 
 -7.742246e-02  -1.364574e-01  0 
 -7.325022e-02  -1.362349e-01  0 
 -6.922784e-02  -1.357804e-01  0 
 -6.423262e-02  -1.348391e-01  0 
 -7.753351e-02  -1.409162e-01  0 
 -7.344310e-02  -1.407322e-01  0 
 -6.931891e-02  -1.404599e-01  0 
 -6.523116e-02  -1.401440e-01  0 
 -6.218558e-02  -1.397105e-01  0 
 -5.868412e-02  -1.389059e-01  0 
 -5.537671e-02  -1.380796e-01  0 
 -5.194827e-02  -1.370936e-01  0 
 -7.768453e-02  -1.453411e-01  0 
 -7.355721e-02  -1.451016e-01  0 
 -6.951750e-02  -1.447280e-01  0 
 -6.570012e-02  -1.441068e-01  0 
 -6.215430e-02  -1.433761e-01  0 
 -5.873591e-02  -1.425965e-01  0 
 -5.531179e-02  -1.416260e-01  0 
 -5.196346e-02  -1.405072e-01  0 
 -7.777798e-02  -1.495800e-01  0 
 -7.372946e-02  -1.492697e-01  0 
 -6.979766e-02  -1.487503e-01  0 
 -6.600602e-02  -1.480365e-01  0 
 -6.234800e-02  -1.471758e-01  0 
 -5.881802e-02  -1.462020e-01  0 
 -5.539095e-02  -1.450901e-01  0 
 -5.208741e-02  -1.437702e-01  0 
 -7.784851e-02  -1.536097e-01  0 
 -7.392255e-02  -1.532554e-01  0 
 -7.006546e-02  -1.526737e-01  0 
 -6.629266e-02  -1.518879e-01  0 
 -6.260776e-02  -1.509201e-01  0 
 -5.902196e-02  -1.497883e-01  0 
 -5.555863e-02  -1.484954e-01  0 
 -5.223748e-02  -1.470320e-01  0 
 -7.791542e-02  -1.574744e-01  0 
 -7.410086e-02  -1.571053e-01  0 
 -7.032064e-02  -1.564959e-01  0 
 -6.659163e-02  -1.556607e-01  0 
 -6.292015e-02  -1.546086e-01  0 
 -5.931208e-02  -1.533459e-01  0 
 -5.579135e-02  -1.518973e-01  0 
 -5.239276e-02  -1.502997e-01  0 
 -7.798401e-02  -1.612197e-01  0 
 -7.426481e-02  -1.608455e-01  0 
 -7.056532e-02  -1.602225e-01  0 
 -6.690090e-02  -1.593574e-01  0 
 -6.327544e-02  -1.582532e-01  0 
 -5.967961e-02  -1.569065e-01  0 
 -5.609486e-02  -1.553210e-01  0 
 -5.256705e-02  -1.535762e-01  0 
 -7.805726e-02  -1.648781e-01  0 
 -7.442041e-02  -1.644986e-01  0 
 -7.080182e-02  -1.638628e-01  0 
 -6.721146e-02  -1.629780e-01  0 
 -6.365189e-02  -1.618495e-01  0 
 -6.010618e-02  -1.604752e-01  0 
 -5.652556e-02  -1.588367e-01  0 
 -5.281541e-02  -1.568983e-01  0 
 -4.565206e-02  -1.360188e-01  0 
 -4.272451e-02  -1.359856e-01  0 
 -4.574716e-02  -1.390511e-01  0 
 -4.269988e-02  -1.390182e-01  0 
 -4.582463e-02  -1.421825e-01  0 
 -4.271007e-02  -1.421864e-01  0 
 -4.589400e-02  -1.453543e-01  0 
 -4.273427e-02  -1.453059e-01  0 
 -4.596737e-02  -1.485422e-01  0 
 -4.281136e-02  -1.484877e-01  0 
 -4.602346e-02  -1.517241e-01  0 
 -4.288304e-02  -1.517031e-01  0 
 -4.605721e-02  -1.548803e-01  0 
 -4.294391e-02  -1.548569e-01  0 
VECTORS displacement_ITER3 FLOAT
 -8.100199e-02  -1.606217e-01  0 
 -4.889773e-02  -1.511146e-01  0 
 -7.862230e-02  -1.287204e-01  0 
 -8.004382e-02  -1.328849e-01  0 
 -8.059615e-02  -1.372824e-01  0 
 -8.082520e-02  -1.415170e-01  0 
 -8.092213e-02  -1.455783e-01  0 
 -8.095925e-02  -1.494941e-01  0 
 -8.097125e-02  -1.532903e-01  0 
 -8.098027e-02  -1.569895e-01  0 
 -4.843111e-02  -1.287009e-01  0 
 -4.858930e-02  -1.319426e-01  0 
 -4.870992e-02  -1.351270e-01  0 
 -4.878260e-02  -1.383386e-01  0 
 -4.882515e-02  -1.415477e-01  0 
 -4.885943e-02  -1.447416e-01  0 
 -4.888216e-02  -1.479262e-01  0 
 -7.739544e-02  -1.604872e-01  0 
 -7.382491e-02  -1.601032e-01  0 
 -7.028697e-02  -1.594819e-01  0 
 -6.679124e-02  -1.586384e-01  0 
 -6.333986e-02  -1.575910e-01  0 
 -5.991737e-02  -1.563566e-01  0 
 -5.647386e-02  -1.549426e-01  0 
 -5.290465e-02  -1.533047e-01  0 
 -4.571336e-02  -1.510816e-01  0 
 -4.257683e-02  -1.510599e-01  0 
 -7.560154e-02  -1.284636e-01  0 
 -7.185679e-02  -1.282144e-01  0 
 -6.817642e-02  -1.279645e-01  0 
 -6.432237e-02  -1.274016e-01  0 
 -7.597148e-02  -1.327042e-01  0 
 -7.219792e-02  -1.325700e-01  0 
 -6.846415e-02  -1.322692e-01  0 
 -6.484250e-02  -1.318285e-01  0 
 -6.183290e-02  -1.314441e-01  0 
 -5.862344e-02  -1.309019e-01  0 
 -5.550976e-02  -1.302331e-01  0 
 -5.213484e-02  -1.294253e-01  0 
 -7.641904e-02  -1.371066e-01  0 
 -7.250387e-02  -1.368303e-01  0 
 -6.876636e-02  -1.364528e-01  0 
 -6.519187e-02  -1.359119e-01  0 
 -6.179725e-02  -1.352974e-01  0 
 -5.852374e-02  -1.346542e-01  0 
 -5.523307e-02  -1.339120e-01  0 
 -5.186647e-02  -1.330819e-01  0 
 -7.674894e-02  -1.413609e-01  0 
 -7.282626e-02  -1.410203e-01  0 
 -6.906556e-02  -1.405366e-01  0 
 -6.544072e-02  -1.399229e-01  0 
 -6.192508e-02  -1.392003e-01  0 
 -5.850253e-02  -1.383987e-01  0 
 -5.513784e-02  -1.375104e-01  0 
 -5.185063e-02  -1.364452e-01  0 
 -7.697105e-02  -1.454385e-01  0 
 -7.310696e-02  -1.450800e-01  0 
 -6.934752e-02  -1.445450e-01  0 
 -6.568794e-02  -1.438602e-01  0 
 -6.211198e-02  -1.430394e-01  0 
 -5.861284e-02  -1.420922e-01  0 
 -5.520795e-02  -1.410096e-01  0 
 -5.192615e-02  -1.397638e-01  0 
 -7.712245e-02  -1.493650e-01  0 
 -7.333260e-02  -1.490066e-01  0 
 -6.960714e-02  -1.484486e-01  0 
 -6.595199e-02  -1.477116e-01  0 
 -6.236187e-02  -1.468029e-01  0 
 -5.883274e-02  -1.457199e-01  0 
 -5.538211e-02  -1.444699e-01  0 
 -5.204082e-02  -1.430728e-01  0 
 -7.723155e-02  -1.531665e-01  0 
 -7.351642e-02  -1.528097e-01  0 
 -6.984524e-02  -1.522376e-01  0 
 -6.622861e-02  -1.514635e-01  0 
 -6.266578e-02  -1.504912e-01  0 
 -5.914440e-02  -1.493128e-01  0 
 -5.564356e-02  -1.479224e-01  0 
 -5.219503e-02  -1.463781e-01  0 
 -7.731852e-02  -1.568657e-01  0 
 -7.367447e-02  -1.565040e-01  0 
 -7.006814e-02  -1.559133e-01  0 
 -6.650901e-02  -1.551075e-01  0 
 -6.299851e-02  -1.540949e-01  0 
 -5.951989e-02  -1.528732e-01  0 
 -5.602655e-02  -1.514233e-01  0 
 -5.242662e-02  -1.497089e-01  0 
 -4.532579e-02  -1.287783e-01  0 
 -4.242347e-02  -1.288250e-01  0 
 -4.543870e-02  -1.318784e-01  0 
 -4.235440e-02  -1.318369e-01  0 
 -4.552916e-02  -1.350891e-01  0 
 -4.233711e-02  -1.350882e-01  0 
 -4.558053e-02  -1.383158e-01  0 
 -4.239591e-02  -1.383003e-01  0 
 -4.563110e-02  -1.415174e-01  0 
 -4.247288e-02  -1.414750e-01  0 
 -4.567685e-02  -1.447119e-01  0 
 -4.249278e-02  -1.446854e-01  0 
 -4.570248e-02  -1.479078e-01  0 
 -4.253191e-02  -1.478839e-01  0 
VECTORS displacement_ITER4 FLOAT
 -7.864864e-02  -1.556791e-01  0 
 -4.836383e-02  -1.455256e-01  0 
 -7.831874e-02  -1.262170e-01  0 
 -7.882673e-02  -1.303094e-01  0 
 -7.886330e-02  -1.344414e-01  0 
 -7.878657e-02  -1.383376e-01  0 
 -7.870518e-02  -1.420389e-01  0 
 -7.865096e-02  -1.455900e-01  0 
 -7.862658e-02  -1.490290e-01  0 
 -7.862719e-02  -1.523833e-01  0 
 -4.762501e-02  -1.241443e-01  0 
 -4.787486e-02  -1.270381e-01  0 
 -4.806775e-02  -1.300175e-01  0 
 -4.821028e-02  -1.330853e-01  0 
 -4.830025e-02  -1.362037e-01  0 
 -4.834472e-02  -1.393303e-01  0 
 -4.835343e-02  -1.424325e-01  0 
 -7.537583e-02  -1.555444e-01  0 
 -7.212910e-02  -1.551553e-01  0 
 -6.889562e-02  -1.545146e-01  0 
 -6.567669e-02  -1.536315e-01  0 
 -6.246533e-02  -1.525237e-01  0 
 -5.923476e-02  -1.512106e-01  0 
 -5.592077e-02  -1.497005e-01  0 
 -5.240379e-02  -1.479363e-01  0 
 -4.527561e-02  -1.454805e-01  0 
 -4.231386e-02  -1.454210e-01  0 
 -7.474029e-02  -1.260040e-01  0 
 -7.071331e-02  -1.258582e-01  0 
 -6.701138e-02  -1.256426e-01  0 
 -6.284361e-02  -1.250168e-01  0 
 -7.478891e-02  -1.302470e-01  0 
 -7.091906e-02  -1.300728e-01  0 
 -6.712746e-02  -1.297707e-01  0 
 -6.352500e-02  -1.294145e-01  0 
 -6.042412e-02  -1.287435e-01  0 
 -5.700394e-02  -1.278384e-01  0 
 -5.393062e-02  -1.268861e-01  0 
 -5.070027e-02  -1.256385e-01  0 
 -7.490942e-02  -1.343473e-01  0 
 -7.107539e-02  -1.340779e-01  0 
 -6.735752e-02  -1.336418e-01  0 
 -6.383763e-02  -1.329833e-01  0 
 -6.048246e-02  -1.321943e-01  0 
 -5.719764e-02  -1.312396e-01  0 
 -5.397515e-02  -1.300700e-01  0 
 -5.086229e-02  -1.287059e-01  0 
 -7.500220e-02  -1.382362e-01  0 
 -7.126924e-02  -1.378993e-01  0 
 -6.763792e-02  -1.373440e-01  0 
 -6.411944e-02  -1.365918e-01  0 
 -6.070626e-02  -1.356644e-01  0 
 -5.739243e-02  -1.345656e-01  0 
 -5.416944e-02  -1.332733e-01  0 
 -5.105754e-02  -1.317603e-01  0 
 -7.507795e-02  -1.419279e-01  0 
 -7.146805e-02  -1.415607e-01  0 
 -6.791058e-02  -1.409573e-01  0 
 -6.442050e-02  -1.401361e-01  0 
 -6.100173e-02  -1.391091e-01  0 
 -5.766053e-02  -1.378851e-01  0 
 -5.441018e-02  -1.364696e-01  0 
 -5.126140e-02  -1.348670e-01  0 
 -7.515041e-02  -1.454717e-01  0 
 -7.165009e-02  -1.450970e-01  0 
 -6.817462e-02  -1.444752e-01  0 
 -6.473821e-02  -1.436159e-01  0 
 -6.134359e-02  -1.425243e-01  0 
 -5.798819e-02  -1.412057e-01  0 
 -5.468323e-02  -1.396864e-01  0 
 -5.145164e-02  -1.380080e-01  0 
 -7.522400e-02  -1.489062e-01  0 
 -7.181771e-02  -1.485307e-01  0 
 -6.842628e-02  -1.479039e-01  0 
 -6.505981e-02  -1.470302e-01  0 
 -6.171537e-02  -1.459120e-01  0 
 -5.837398e-02  -1.445471e-01  0 
 -5.500532e-02  -1.429410e-01  0 
 -5.164068e-02  -1.411740e-01  0 
 -7.530004e-02  -1.522571e-01  0 
 -7.197495e-02  -1.518799e-01  0 
 -6.866488e-02  -1.512491e-01  0 
 -6.537342e-02  -1.503724e-01  0 
 -6.209489e-02  -1.492564e-01  0 
 -5.880221e-02  -1.479012e-01  0 
 -5.543520e-02  -1.462904e-01  0 
 -5.188818e-02  -1.443910e-01  0 
 -4.487232e-02  -1.241208e-01  0 
 -4.215601e-02  -1.241371e-01  0 
 -4.497122e-02  -1.269713e-01  0 
 -4.210078e-02  -1.269132e-01  0 
 -4.506261e-02  -1.299607e-01  0 
 -4.207469e-02  -1.299619e-01  0 
 -4.512951e-02  -1.330406e-01  0 
 -4.205844e-02  -1.330005e-01  0 
 -4.519111e-02  -1.361664e-01  0 
 -4.209403e-02  -1.361309e-01  0 
 -4.523784e-02  -1.393047e-01  0 
 -4.213115e-02  -1.392873e-01  0 
 -4.526759e-02  -1.424205e-01  0 
 -4.219127e-02  -1.424031e-01  0 
VECTORS displacement_ITER5 FLOAT
 -7.759082e-02  -1.536884e-01  0 
 -4.786668e-02  -1.426345e-01  0 
 -7.899504e-02  -1.226356e-01  0 
 -7.879900e-02  -1.277918e-01  0 
 -7.840009e-02  -1.322449e-01  0 
 -7.806506e-02  -1.362631e-01  0 
 -7.782705e-02  -1.400102e-01  0 
 -7.767434e-02  -1.435803e-01  0 
 -7.759426e-02  -1.470259e-01  0 
 -7.757301e-02  -1.503841e-01  0 
 -4.729102e-02  -1.226891e-01  0 
 -4.747332e-02  -1.254867e-01  0 
 -4.761406e-02  -1.282925e-01  0 
 -4.771834e-02  -1.311373e-01  0 
 -4.778997e-02  -1.340104e-01  0 
 -4.783501e-02  -1.368917e-01  0 
 -4.785245e-02  -1.397625e-01  0 
 -7.430602e-02  -1.535501e-01  0 
 -7.104263e-02  -1.531394e-01  0 
 -6.779574e-02  -1.524439e-01  0 
 -6.457987e-02  -1.514677e-01  0 
 -6.140145e-02  -1.502323e-01  0 
 -5.824520e-02  -1.487674e-01  0 
 -5.505484e-02  -1.470958e-01  0 
 -5.171139e-02  -1.451777e-01  0 
 -4.499817e-02  -1.425915e-01  0 
 -4.223410e-02  -1.425376e-01  0 
 -7.413412e-02  -1.228856e-01  0 
 -6.973538e-02  -1.231566e-01  0 
 -6.582640e-02  -1.234459e-01  0 
 -6.250154e-02  -1.235249e-01  0 
 -7.416097e-02  -1.277955e-01  0 
 -6.988305e-02  -1.276906e-01  0 
 -6.599808e-02  -1.274600e-01  0 
 -6.245952e-02  -1.271086e-01  0 
 -5.878503e-02  -1.264925e-01  0 
 -5.529584e-02  -1.259702e-01  0 
 -5.227180e-02  -1.252986e-01  0 
 -4.948404e-02  -1.243116e-01  0 
 -7.418838e-02  -1.322035e-01  0 
 -7.010123e-02  -1.319066e-01  0 
 -6.624655e-02  -1.314537e-01  0 
 -6.258502e-02  -1.309021e-01  0 
 -5.902645e-02  -1.302403e-01  0 
 -5.564044e-02  -1.293602e-01  0 
 -5.258455e-02  -1.282971e-01  0 
 -4.991217e-02  -1.269787e-01  0 
 -7.416952e-02  -1.361969e-01  0 
 -7.028866e-02  -1.358558e-01  0 
 -6.650293e-02  -1.353071e-01  0 
 -6.284598e-02  -1.346006e-01  0 
 -5.934382e-02  -1.337216e-01  0 
 -5.603525e-02  -1.326370e-01  0 
 -5.297928e-02  -1.313373e-01  0 
 -5.018779e-02  -1.298785e-01  0 
 -7.414478e-02  -1.399275e-01  0 
 -7.043856e-02  -1.395735e-01  0 
 -6.676669e-02  -1.389747e-01  0 
 -6.318236e-02  -1.381527e-01  0 
 -5.972813e-02  -1.371129e-01  0 
 -5.643806e-02  -1.358582e-01  0 
 -5.333571e-02  -1.344160e-01  0 
 -5.043072e-02  -1.328305e-01  0 
 -7.414241e-02  -1.434811e-01  0 
 -7.057989e-02  -1.431143e-01  0 
 -6.703213e-02  -1.424828e-01  0 
 -6.354300e-02  -1.415933e-01  0 
 -6.014428e-02  -1.404529e-01  0 
 -5.685052e-02  -1.390764e-01  0 
 -5.367812e-02  -1.375061e-01  0 
 -5.065312e-02  -1.358019e-01  0 
 -7.417269e-02  -1.469107e-01  0 
 -7.072668e-02  -1.465298e-01  0 
 -6.729237e-02  -1.458759e-01  0 
 -6.390116e-02  -1.449505e-01  0 
 -6.057026e-02  -1.437601e-01  0 
 -5.729447e-02  -1.423122e-01  0 
 -5.405023e-02  -1.406240e-01  0 
 -5.087378e-02  -1.387866e-01  0 
 -7.423166e-02  -1.502564e-01  0 
 -7.088074e-02  -1.498619e-01  0 
 -6.754537e-02  -1.491884e-01  0 
 -6.424544e-02  -1.482402e-01  0 
 -6.099113e-02  -1.470277e-01  0 
 -5.776803e-02  -1.455601e-01  0 
 -5.452407e-02  -1.438317e-01  0 
 -5.115447e-02  -1.418179e-01  0 
 -4.460097e-02  -1.226898e-01  0 
 -4.203706e-02  -1.227644e-01  0 
 -4.470874e-02  -1.254271e-01  0 
 -4.199952e-02  -1.253727e-01  0 
 -4.481013e-02  -1.282445e-01  0 
 -4.200635e-02  -1.282207e-01  0 
 -4.487267e-02  -1.311032e-01  0 
 -4.205576e-02  -1.310833e-01  0 
 -4.492321e-02  -1.339737e-01  0 
 -4.208186e-02  -1.339423e-01  0 
 -4.496624e-02  -1.368626e-01  0 
 -4.208662e-02  -1.368338e-01  0 
 -4.499117e-02  -1.397475e-01  0 
 -4.213880e-02  -1.397337e-01  0 
VECTORS displacement_ITER6 FLOAT
 -7.710603e-02  -1.526757e-01  0 
 -4.746880e-02  -1.417740e-01  0 
 -7.813774e-02  -1.203822e-01  0 
 -7.799543e-02  -1.261054e-01  0 
 -7.769473e-02  -1.306864e-01  0 
 -7.745977e-02  -1.347939e-01  0 
 -7.729150e-02  -1.386326e-01  0 
 -7.717498e-02  -1.422987e-01  0 
 -7.710776e-02  -1.458384e-01  0 
 -7.708848e-02  -1.492856e-01  0 
 -4.711921e-02  -1.224730e-01  0 
 -4.723307e-02  -1.252863e-01  0 
 -4.729903e-02  -1.280658e-01  0 
 -4.733824e-02  -1.308164e-01  0 
 -4.737381e-02  -1.335483e-01  0 
 -4.741454e-02  -1.362783e-01  0 
 -4.744742e-02  -1.390187e-01  0 
 -7.373639e-02  -1.525371e-01  0 
 -7.039264e-02  -1.521260e-01  0 
 -6.707618e-02  -1.514320e-01  0 
 -6.380899e-02  -1.504599e-01  0 
 -6.060676e-02  -1.492307e-01  0 
 -5.746541e-02  -1.477738e-01  0 
 -5.434128e-02  -1.461147e-01  0 
 -5.112605e-02  -1.442262e-01  0 
 -4.471472e-02  -1.417423e-01  0 
 -4.198370e-02  -1.417247e-01  0 
 -7.282074e-02  -1.209266e-01  0 
 -6.864865e-02  -1.213944e-01  0 
 -6.496774e-02  -1.217833e-01  0 
 -6.213718e-02  -1.220753e-01  0 
 -7.315732e-02  -1.260354e-01  0 
 -6.891552e-02  -1.259195e-01  0 
 -6.521160e-02  -1.257278e-01  0 
 -6.183847e-02  -1.253601e-01  0 
 -5.821186e-02  -1.248562e-01  0 
 -5.491966e-02  -1.245615e-01  0 
 -5.192084e-02  -1.240964e-01  0 
 -4.928467e-02  -1.234637e-01  0 
 -7.339634e-02  -1.305994e-01  0 
 -6.929085e-02  -1.302547e-01  0 
 -6.551096e-02  -1.298098e-01  0 
 -6.193272e-02  -1.293449e-01  0 
 -5.843906e-02  -1.288087e-01  0 
 -5.512954e-02  -1.281203e-01  0 
 -5.215248e-02  -1.273300e-01  0 
 -4.953176e-02  -1.263676e-01  0 
 -7.349259e-02  -1.347004e-01  0 
 -6.957788e-02  -1.343409e-01  0 
 -6.579386e-02  -1.338145e-01  0 
 -6.216529e-02  -1.331887e-01  0 
 -5.870212e-02  -1.324444e-01  0 
 -5.543622e-02  -1.315458e-01  0 
 -5.243134e-02  -1.304918e-01  0 
 -4.972206e-02  -1.293231e-01  0 
 -7.353036e-02  -1.385375e-01  0 
 -6.977154e-02  -1.381856e-01  0 
 -6.606921e-02  -1.376187e-01  0 
 -6.247605e-02  -1.368708e-01  0 
 -5.903204e-02  -1.359516e-01  0 
 -5.576822e-02  -1.348607e-01  0 
 -5.271541e-02  -1.336165e-01  0 
 -4.990041e-02  -1.322562e-01  0 
 -7.355804e-02  -1.421962e-01  0 
 -6.992916e-02  -1.418389e-01  0 
 -6.633208e-02  -1.412402e-01  0 
 -6.281253e-02  -1.404144e-01  0 
 -5.940605e-02  -1.393721e-01  0 
 -5.613231e-02  -1.381250e-01  0 
 -5.301423e-02  -1.367064e-01  0 
 -5.008548e-02  -1.351668e-01  0 
 -7.360001e-02  -1.457237e-01  0 
 -7.007925e-02  -1.453527e-01  0 
 -6.658396e-02  -1.447252e-01  0 
 -6.315015e-02  -1.438471e-01  0 
 -5.980228e-02  -1.427269e-01  0 
 -5.654445e-02  -1.413710e-01  0 
 -5.336239e-02  -1.397916e-01  0 
 -5.029573e-02  -1.380679e-01  0 
 -7.366180e-02  -1.491591e-01  0 
 -7.023192e-02  -1.487707e-01  0 
 -6.682929e-02  -1.481123e-01  0 
 -6.348042e-02  -1.471907e-01  0 
 -6.020427e-02  -1.460172e-01  0 
 -5.699749e-02  -1.446012e-01  0 
 -5.382039e-02  -1.429374e-01  0 
 -5.057851e-02  -1.410009e-01  0 
 -4.436236e-02  -1.224524e-01  0 
 -4.173228e-02  -1.225117e-01  0 
 -4.446636e-02  -1.252468e-01  0 
 -4.174540e-02  -1.252192e-01  0 
 -4.455449e-02  -1.280392e-01  0 
 -4.180407e-02  -1.280066e-01  0 
 -4.460754e-02  -1.307959e-01  0 
 -4.192239e-02  -1.307894e-01  0 
 -4.464917e-02  -1.335168e-01  0 
 -4.195265e-02  -1.334853e-01  0 
 -4.468438e-02  -1.362467e-01  0 
 -4.195359e-02  -1.362110e-01  0 
 -4.470537e-02  -1.389948e-01  0 
 -4.196916e-02  -1.389743e-01  0 
VECTORS displacement_ITER7 FLOAT
 -7.631225e-02  -1.510987e-01  0 
 -4.709887e-02  -1.400455e-01  0 
 -7.734361e-02  -1.218885e-01  0 
 -7.706568e-02  -1.265961e-01  0 
 -7.678147e-02  -1.306365e-01  0 
 -7.657276e-02  -1.343729e-01  0 
 -7.642712e-02  -1.379254e-01  0 
 -7.633816e-02  -1.413450e-01  0 
 -7.629652e-02  -1.446651e-01  0 
 -7.629146e-02  -1.479087e-01  0 
 -4.644708e-02  -1.208683e-01  0 
 -4.667827e-02  -1.234342e-01  0 
 -4.682418e-02  -1.261446e-01  0 
 -4.693096e-02  -1.288946e-01  0 
 -4.700857e-02  -1.316708e-01  0 
 -4.705644e-02  -1.344618e-01  0 
 -4.707959e-02  -1.372511e-01  0 
 -7.314353e-02  -1.509634e-01  0 
 -6.999678e-02  -1.505673e-01  0 
 -6.685890e-02  -1.499035e-01  0 
 -6.373470e-02  -1.489720e-01  0 
 -6.062345e-02  -1.477831e-01  0 
 -5.750628e-02  -1.463523e-01  0 
 -5.432664e-02  -1.446857e-01  0 
 -5.096978e-02  -1.427229e-01  0 
 -4.430631e-02  -1.400048e-01  0 
 -4.157516e-02  -1.399665e-01  0 
 -7.265417e-02  -1.220746e-01  0 
 -6.873133e-02  -1.222330e-01  0 
 -6.527367e-02  -1.221421e-01  0 
 -6.157411e-02  -1.218163e-01  0 
 -7.282630e-02  -1.265319e-01  0 
 -6.891349e-02  -1.262906e-01  0 
 -6.528321e-02  -1.260236e-01  0 
 -6.186388e-02  -1.256960e-01  0 
 -5.853488e-02  -1.248993e-01  0 
 -5.506808e-02  -1.240110e-01  0 
 -5.190553e-02  -1.231266e-01  0 
 -4.894221e-02  -1.220577e-01  0 
 -7.290588e-02  -1.305559e-01  0 
 -6.909690e-02  -1.302327e-01  0 
 -6.544877e-02  -1.297583e-01  0 
 -6.199849e-02  -1.291294e-01  0 
 -5.863413e-02  -1.283692e-01  0 
 -5.530028e-02  -1.274084e-01  0 
 -5.212816e-02  -1.262592e-01  0 
 -4.923128e-02  -1.249471e-01  0 
 -7.291548e-02  -1.342868e-01  0 
 -6.926099e-02  -1.339385e-01  0 
 -6.568031e-02  -1.333662e-01  0 
 -6.220225e-02  -1.326191e-01  0 
 -5.882106e-02  -1.317073e-01  0 
 -5.554300e-02  -1.306063e-01  0 
 -5.241086e-02  -1.292961e-01  0 
 -4.949666e-02  -1.277931e-01  0 
 -7.292457e-02  -1.378266e-01  0 
 -6.940638e-02  -1.374644e-01  0 
 -6.591069e-02  -1.368567e-01  0 
 -6.246788e-02  -1.360267e-01  0 
 -5.910043e-02  -1.349857e-01  0 
 -5.583150e-02  -1.337348e-01  0 
 -5.269415e-02  -1.322823e-01  0 
 -4.972142e-02  -1.306563e-01  0 
 -7.295268e-02  -1.412344e-01  0 
 -6.954613e-02  -1.408637e-01  0 
 -6.614425e-02  -1.402354e-01  0 
 -6.277068e-02  -1.393549e-01  0 
 -5.944312e-02  -1.382257e-01  0 
 -5.617364e-02  -1.368536e-01  0 
 -5.298722e-02  -1.352703e-01  0 
 -4.992285e-02  -1.335282e-01  0 
 -7.300210e-02  -1.445450e-01  0 
 -6.969054e-02  -1.441671e-01  0 
 -6.638155e-02  -1.435255e-01  0 
 -6.309120e-02  -1.426184e-01  0 
 -5.982639e-02  -1.414448e-01  0 
 -5.657900e-02  -1.400018e-01  0 
 -5.332947e-02  -1.382975e-01  0 
 -5.012751e-02  -1.364210e-01  0 
 -7.306894e-02  -1.477818e-01  0 
 -6.984074e-02  -1.473972e-01  0 
 -6.662000e-02  -1.467445e-01  0 
 -6.341457e-02  -1.458245e-01  0 
 -6.022607e-02  -1.446385e-01  0 
 -5.703619e-02  -1.431839e-01  0 
 -5.379348e-02  -1.414426e-01  0 
 -5.039882e-02  -1.393800e-01  0 
 -4.395450e-02  -1.207281e-01  0 
 -4.135250e-02  -1.206864e-01  0 
 -4.403869e-02  -1.233951e-01  0 
 -4.139274e-02  -1.233695e-01  0 
 -4.411180e-02  -1.261028e-01  0 
 -4.143734e-02  -1.260914e-01  0 
 -4.417965e-02  -1.288504e-01  0 
 -4.145431e-02  -1.288085e-01  0 
 -4.423671e-02  -1.316353e-01  0 
 -4.146231e-02  -1.316068e-01  0 
 -4.427080e-02  -1.344351e-01  0 
 -4.150526e-02  -1.344168e-01  0 
 -4.429637e-02  -1.372284e-01  0 
 -4.152073e-02  -1.372048e-01  0 
VECTORS displacement_ITER8 FLOAT
 -7.610821e-02  -1.505942e-01  0 
 -4.695379e-02  -1.396813e-01  0 
 -7.666313e-02  -1.213888e-01  0 
 -7.667426e-02  -1.258688e-01  0 
 -7.652639e-02  -1.299162e-01  0 
 -7.636843e-02  -1.337030e-01  0 
 -7.623664e-02  -1.373048e-01  0 
 -7.614555e-02  -1.407647e-01  0 
 -7.609766e-02  -1.441151e-01  0 
 -7.608844e-02  -1.473824e-01  0 
 -4.632071e-02  -1.203540e-01  0 
 -4.653975e-02  -1.229708e-01  0 
 -4.668632e-02  -1.256936e-01  0 
 -4.679157e-02  -1.284593e-01  0 
 -4.686408e-02  -1.312516e-01  0 
 -4.690894e-02  -1.340570e-01  0 
 -4.693398e-02  -1.368644e-01  0 
 -7.291769e-02  -1.504578e-01  0 
 -6.975088e-02  -1.500577e-01  0 
 -6.659892e-02  -1.493872e-01  0 
 -6.347004e-02  -1.484496e-01  0 
 -6.036489e-02  -1.472595e-01  0 
 -5.726421e-02  -1.458368e-01  0 
 -5.411031e-02  -1.441923e-01  0 
 -5.078669e-02  -1.422729e-01  0 
 -4.413769e-02  -1.396434e-01  0 
 -4.136553e-02  -1.396071e-01  0 
 -7.235793e-02  -1.214379e-01  0 
 -6.853703e-02  -1.214728e-01  0 
 -6.500717e-02  -1.213689e-01  0 
 -6.145581e-02  -1.211332e-01  0 
 -7.254155e-02  -1.257873e-01  0 
 -6.868603e-02  -1.255716e-01  0 
 -6.505053e-02  -1.252977e-01  0 
 -6.159340e-02  -1.249408e-01  0 
 -5.816665e-02  -1.242513e-01  0 
 -5.475237e-02  -1.234992e-01  0 
 -5.161271e-02  -1.226761e-01  0 
 -4.872849e-02  -1.216379e-01  0 
 -7.264201e-02  -1.298306e-01  0 
 -6.885058e-02  -1.295308e-01  0 
 -6.520453e-02  -1.290874e-01  0 
 -6.171222e-02  -1.285035e-01  0 
 -5.830675e-02  -1.277832e-01  0 