# vtk DataFile Version 3.1
this is an vtk file created by FEMAC
ASCII
DATASET UNSTRUCTURED_GRID
POINTS 106 FLOAT
3.000000 2.000000 0.000000
2.777778 2.000000 0.000000
2.888889 2.000000 0.000000
3.000000 1.111111 0.000000
3.000000 1.222222 0.000000
3.000000 1.333333 0.000000
3.000000 1.444444 0.000000
3.000000 1.555556 0.000000
3.000000 1.666667 0.000000
3.000000 1.777778 0.000000
3.000000 1.888889 0.000000
3.000000 2.111111 0.000000
3.000000 2.222222 0.000000
3.000000 2.333333 0.000000
3.000000 2.444444 0.000000
3.000000 2.555556 0.000000
3.000000 2.666667 0.000000
3.000000 2.777778 0.000000
3.000000 2.888889 0.000000
3.111111 2.000000 0.000000
3.222222 2.000000 0.000000
3.333333 2.000000 0.000000
2.777778 1.111111 0.000000
2.777778 1.222222 0.000000
2.777778 1.333333 0.000000
2.777778 1.444444 0.000000
2.777778 1.555556 0.000000
2.777778 1.666667 0.000000
2.777778 1.777778 0.000000
2.777778 1.888889 0.000000
2.888889 1.111111 0.000000
2.888889 1.222222 0.000000
2.888889 1.333333 0.000000
2.888889 1.444444 0.000000
2.888889 1.555556 0.000000
2.888889 1.666667 0.000000
2.888889 1.777778 0.000000
2.888889 1.888889 0.000000
2.777778 2.111111 0.000000
2.777778 2.222222 0.000000
2.777778 2.333333 0.000000
2.777778 2.444444 0.000000
2.777778 2.555556 0.000000
2.777778 2.666667 0.000000
2.777778 2.777778 0.000000
2.777778 2.888889 0.000000
2.888889 2.111111 0.000000
2.888889 2.222222 0.000000
2.888889 2.333333 0.000000
2.888889 2.444444 0.000000
2.888889 2.555556 0.000000
2.888889 2.666667 0.000000
2.888889 2.777778 0.000000
2.888889 2.888889 0.000000
3.111111 1.111111 0.000000
3.111111 1.222222 0.000000
3.111111 1.333333 0.000000
3.111111 1.444444 0.000000
3.111111 1.555556 0.000000
3.111111 1.666667 0.000000
3.111111 1.777778 0.000000
3.111111 1.888889 0.000000
3.222222 1.444444 0.000000
3.222222 1.555556 0.000000
3.222222 1.666667 0.000000
3.222222 1.777778 0.000000
3.222222 1.888889 0.000000
3.333333 1.888889 0.000000
3.111111 2.111111 0.000000
3.111111 2.222222 0.000000
3.111111 2.333333 0.000000
3.111111 2.444444 0.000000
3.111111 2.555556 0.000000
3.111111 2.666667 0.000000
3.111111 2.777778 0.000000
3.111111 2.888889 0.000000
3.222222 2.111111 0.000000
3.222222 2.222222 0.000000
3.222222 2.333333 0.000000
3.222222 2.444444 0.000000
3.222222 2.555556 0.000000
3.222222 2.666667 0.000000
3.222222 2.777778 0.000000
3.222222 2.888889 0.000000
3.333333 2.111111 0.000000
3.333333 2.222222 0.000000
3.333333 2.333333 0.000000
3.333333 2.444444 0.000000
3.333333 2.555556 0.000000
3.333333 2.666667 0.000000
3.333333 2.777778 0.000000
3.333333 2.888889 0.000000
3.444444 2.222222 0.000000
3.444444 2.333333 0.000000
3.444444 2.444444 0.000000
3.444444 2.555556 0.000000
3.444444 2.666667 0.000000
3.444444 2.777778 0.000000
3.444444 2.888889 0.000000
3.555556 2.555556 0.000000
3.555556 2.666667 0.000000
3.555556 2.777778 0.000000
3.555556 2.888889 0.000000
3.666667 2.666667 0.000000
3.666667 2.777778 0.000000
3.666667 2.888889 0.000000
CELLS 81 405 
4 22 30 31 23
4 23 31 32 24
4 24 32 33 25
4 25 33 34 26
4 26 34 35 27
4 27 35 36 28
4 28 36 37 29
4 29 37  2  1
4 30  3  4 31
4 31  4  5 32
4 32  5  6 33
4 33  6  7 34
4 34  7  8 35
4 35  8  9 36
4 36  9 10 37
4 37 10  0  2
4 1  2 46 38
4 38 46 47 39
4 39 47 48 40
4 40 48 49 41
4 41 49 50 42
4 42 50 51 43
4 43 51 52 44
4 44 52 53 45
4 2  0 11 46
4 46 11 12 47
4 47 12 13 48
4 48 13 14 49
4 49 14 15 50
4 50 15 16 51
4 51 16 17 52
4 52 17 18 53
4 3 54 55  4
4 4 55 56  5
4 5 56 57  6
4 6 57 58  7
4 7 58 59  8
4 8 59 60  9
4 9 60 61 10
4 10 61 19  0
4 57 62 63 58
4 58 63 64 59
4 59 64 65 60
4 60 65 66 61
4 61 66 20 19
4 66 67 21 20
4 0 19 68 11
4 11 68 69 12
4 12 69 70 13
4 13 70 71 14
4 14 71 72 15
4 15 72 73 16
4 16 73 74 17
4 17 74 75 18
4 19 20 76 68
4 68 76 77 69
4 69 77 78 70
4 70 78 79 71
4 71 79 80 72
4 72 80 81 73
4 73 81 82 74
4 74 82 83 75
4 20 21 84 76
4 76 84 85 77
4 77 85 86 78
4 78 86 87 79
4 79 87 88 80
4 80 88 89 81
4 81 89 90 82
4 82 90 91 83
4 85 92 93 86
4 86 93 94 87
4 87 94 95 88
4 88 95 96 89
4 89 96 97 90
4 90 97 98 91
4 95  99 100  96
4 96 100 101  97
4 97 101 102  98
4 100 103 104 101
4 101 104 105 102
CELL_TYPES 81
9 9 9 9 9 9 9 9 9 9 9 9 9 9 9 9 9 9 9 9 9 9 9 9 9 9 9 9 9 9 9 9 9 9 9 9 9 9 9 9 9 9 9 9 9 9 9 9 9 9 9 9 9 9 9 9 9 9 9 9 9 9 9 9 9 9 9 9 9 9 9 9 9 9 9 9 9 9 9 9 9 
POINT_DATA 106
VECTORS displacement_ITER1 FLOAT
 -1.200137e-02  -6.729757e-02  0 
 -1.154708e-02  -5.886947e-02  0 
 -1.181104e-02  -6.233465e-02  0 
 -3.966789e-02  -7.296344e-02  0 
 -3.686964e-02  -7.283986e-02  0 
 -3.407157e-02  -7.244954e-02  0 
 -3.115767e-02  -7.191319e-02  0 
 -2.799243e-02  -7.133785e-02  0 
 -2.454895e-02  -7.073673e-02  0 
 -2.087662e-02  -7.001446e-02  0 
 -1.688596e-02  -6.901432e-02  0 
 -8.366102e-03  -6.553475e-02  0 
 -5.706644e-03  -6.446387e-02  0 
 -3.465750e-03  -6.377425e-02  0 
 -1.412631e-03  -6.342989e-02  0 
 6.872239e-04  -6.338215e-02  0 
 2.994986e-03  -6.355867e-02  0 
 5.571888e-03  -6.392789e-02  0 
 8.518012e-03  -6.460207e-02  0 
 -1.219066e-02  -7.349927e-02  0 
 -1.256016e-02  -7.801154e-02  0 
 -1.277714e-02  -8.185169e-02  0 
 -2.397878e-02  -7.702667e-02  0 
 -3.078086e-02  -7.161812e-02  0 
 -3.053673e-02  -6.664844e-02  0 
 -2.726926e-02  -6.305491e-02  0 
 -2.560385e-02  -6.217039e-02  0 
 -2.223111e-02  -6.063952e-02  0 
 -1.815984e-02  -5.930439e-02  0 
 -1.400380e-02  -5.851993e-02  0 
 -3.139840e-02  -7.334665e-02  0 
 -3.382333e-02  -7.069838e-02  0 
 -3.269658e-02  -6.948609e-02  0 
 -2.980853e-02  -6.801720e-02  0 
 -2.666423e-02  -6.666778e-02  0 
 -2.340763e-02  -6.586648e-02  0 
 -1.949338e-02  -6.488478e-02  0 
 -1.531826e-02  -6.360870e-02  0 
 -8.212640e-03  -5.888705e-02  0 
 -5.430079e-03  -5.911447e-02  0 
 -3.288003e-03  -5.913730e-02  0 
 -1.306591e-03  -5.893388e-02  0 
 7.452305e-04  -5.861915e-02  0 
 3.023898e-03  -5.827492e-02  0 
 5.646163e-03  -5.793722e-02  0 
 8.456281e-03  -5.782752e-02  0 
 -8.183922e-03  -6.225898e-02  0 
 -5.501291e-03  -6.184636e-02  0 
 -3.332287e-03  -6.148381e-02  0 
 -1.354108e-03  -6.122721e-02  0 
 6.940314e-04  -6.105979e-02  0 
 2.962372e-03  -6.099541e-02  0 
 5.524484e-03  -6.104019e-02  0 
 8.429947e-03  -6.113137e-02  0 
 -3.984925e-02  -7.605740e-02  0 
 -3.695743e-02  -7.573016e-02  0 
 -3.429376e-02  -7.536760e-02  0 
 -3.129713e-02  -7.493112e-02  0 
 -2.810524e-02  -7.468719e-02  0 
 -2.469856e-02  -7.436526e-02  0 
 -2.105375e-02  -7.393148e-02  0 
 -1.701551e-02  -7.354203e-02  0 
 -3.148622e-02  -7.825291e-02  0 
 -2.805253e-02  -7.815284e-02  0 
 -2.476896e-02  -7.799829e-02  0 
 -2.108622e-02  -7.798501e-02  0 
 -1.680977e-02  -7.809796e-02  0 
 -1.649793e-02  -8.189158e-02  0 
 -9.748862e-03  -7.206551e-02  0 
 -7.375588e-03  -7.082460e-02  0 
 -5.260106e-03  -6.995385e-02  0 
 -3.058998e-03  -6.947581e-02  0 
 -6.441350e-04  -6.933295e-02  0 
 2.037447e-03  -6.945205e-02  0 
 5.130857e-03  -6.989576e-02  0 
 9.117246e-03  -7.087286e-02  0 
 -1.058428e-02  -7.689471e-02  0 
 -8.968032e-03  -7.581716e-02  0 
 -7.035469e-03  -7.518684e-02  0 
 -4.760687e-03  -7.507986e-02  0 
 -2.199820e-03  -7.506465e-02  0 
 8.142306e-04  -7.520281e-02  0 
 4.416846e-03  -7.573938e-02  0 
 8.435646e-03  -7.652068e-02  0 
 -1.083827e-02  -7.945134e-02  0 
 -1.065535e-02  -7.924321e-02  0 
 -8.147458e-03  -7.947170e-02  0 
 -6.253544e-03  -8.013164e-02  0 
 -4.057775e-03  -8.042306e-02  0 
 -7.368925e-04  -8.071791e-02  0 
 3.292982e-03  -8.125840e-02  0 
 7.448373e-03  -8.187557e-02  0 
 -1.272338e-02  -8.408018e-02  0 
 -8.683635e-03  -8.315062e-02  0 
 -6.827715e-03  -8.323151e-02  0 
 -6.431529e-03  -8.553403e-02  0 
 -2.563479e-03  -8.633972e-02  0 
 1.903453e-03  -8.683082e-02  0 
 6.607333e-03  -8.740208e-02  0 
 -8.936043e-03  -9.200483e-02  0 
 -5.189090e-03  -9.240029e-02  0 
 6.039625e-04  -9.308591e-02  0 
 6.024993e-03  -9.376510e-02  0 
 -1.062482e-02  -1.029788e-01  0 
 -3.195409e-04  -1.005652e-01  0 
 4.974584e-03  -9.993598e-02  0 
VECTORS displacement_ITER2 FLOAT
 -1.505092e-02  -6.097664e-02  0 
 -1.466910e-02  -5.090761e-02  0 
 -1.487863e-02  -5.516797e-02  0 
 -4.080705e-02  -6.709975e-02  0 
 -3.805132e-02  -6.685956e-02  0 
 -3.532374e-02  -6.649119e-02  0 
 -3.261175e-02  -6.605151e-02  0 
 -2.980545e-02  -6.549162e-02  0 
 -2.675433e-02  -6.481060e-02  0 
 -2.343144e-02  -6.398221e-02  0 
 -1.973800e-02  -6.286744e-02  0 
 -1.069767e-02  -5.902360e-02  0 
 -7.469299e-03  -5.776777e-02  0 
 -4.862634e-03  -5.689216e-02  0 
 -2.668429e-03  -5.640288e-02  0 
 -6.160218e-04  -5.627573e-02  0 
 1.513924e-03  -5.644094e-02  0 
 3.851820e-03  -5.686105e-02  0 
 6.569808e-03  -5.758626e-02  0 
 -1.526737e-02  -6.709907e-02  0 
 -1.569531e-02  -7.136516e-02  0 
 -1.605740e-02  -7.500562e-02  0 
 -2.733557e-02  -6.900340e-02  0 
 -3.197778e-02  -6.508647e-02  0 
 -3.150073e-02  -6.107842e-02  0 
 -2.848487e-02  -5.793666e-02  0 
 -2.697255e-02  -5.709843e-02  0 
 -2.433222e-02  -5.556255e-02  0 
 -2.099407e-02  -5.377639e-02  0 
 -1.734280e-02  -5.204123e-02  0 
 -3.388058e-02  -6.714833e-02  0 
 -3.504444e-02  -6.476953e-02  0 
 -3.375699e-02  -6.369385e-02  0 
 -3.111192e-02  -6.240905e-02  0 
 -2.833818e-02  -6.109003e-02  0 
 -2.559466e-02  -6.010910e-02  0 
 -2.228355e-02  -5.884752e-02  0 
 -1.852809e-02  -5.713418e-02  0 
 -1.055087e-02  -5.099183e-02  0 
 -7.169450e-03  -5.143029e-02  0 
 -4.689476e-03  -5.171966e-02  0 
 -2.607300e-03  -5.176824e-02  0 
 -6.101903e-04  -5.168679e-02  0 
 1.456666e-03  -5.154415e-02  0 
 3.811988e-03  -5.138555e-02  0 
 6.309891e-03  -5.137092e-02  0 
 -1.049586e-02  -5.509857e-02  0 
 -7.227531e-03  -5.467734e-02  0 
 -4.706004e-03  -5.433758e-02  0 
 -2.604749e-03  -5.413753e-02  0 
 -6.188353e-04  -5.404495e-02  0 
 1.459689e-03  -5.407009e-02  0 
 3.761548e-03  -5.421067e-02  0 
 6.369684e-03  -5.445161e-02  0 
 -4.092460e-02  -6.997115e-02  0 
 -3.817213e-02  -6.965238e-02  0 
 -3.548865e-02  -6.927465e-02  0 
 -3.273753e-02  -6.879965e-02  0 
 -2.995009e-02  -6.847767e-02  0 
 -2.694202e-02  -6.808104e-02  0 
 -2.362049e-02  -6.758802e-02  0 
 -1.987839e-02  -6.715300e-02  0 
 -3.288564e-02  -7.173289e-02  0 
 -2.998821e-02  -7.153595e-02  0 
 -2.701277e-02  -7.140158e-02  0 
 -2.368878e-02  -7.136448e-02  0 
 -1.962872e-02  -7.141997e-02  0 
 -1.937683e-02  -7.496629e-02  0 
 -1.199895e-02  -6.532756e-02  0 
 -8.840606e-03  -6.389857e-02  0 
 -6.146639e-03  -6.294706e-02  0 
 -3.716604e-03  -6.244413e-02  0 
 -1.385457e-03  -6.236985e-02  0 
 9.712727e-04  -6.260312e-02  0 
 3.570734e-03  -6.308590e-02  0 
 6.864109e-03  -6.390264e-02  0 
 -1.269097e-02  -7.011146e-02  0 
 -9.879940e-03  -6.904067e-02  0 
 -7.206457e-03  -6.819975e-02  0 
 -4.561285e-03  -6.793223e-02  0 
 -2.084951e-03  -6.799251e-02  0 
 3.511083e-04  -6.830593e-02  0 
 2.980542e-03  -6.885206e-02  0 
 5.952499e-03  -6.940388e-02  0 
 -1.257311e-02  -7.374681e-02  0 
 -1.079596e-02  -7.288205e-02  0 
 -7.739007e-03  -7.271036e-02  0 
 -5.062712e-03  -7.279104e-02  0 
 -2.700411e-03  -7.294818e-02  0 
 -3.215688e-04  -7.331244e-02  0 
 2.021203e-03  -7.379154e-02  0 
 4.394359e-03  -7.413892e-02  0 
 -1.198152e-02  -7.771622e-02  0 
 -7.854189e-03  -7.692930e-02  0 
 -5.085351e-03  -7.650252e-02  0 
 -3.267188e-03  -7.720096e-02  0 
 -9.989505e-04  -7.754421e-02  0 
 8.378867e-04  -7.775270e-02  0 
 2.393276e-03  -7.783168e-02  0 
 -3.885174e-03  -8.147539e-02  0 
 -1.823071e-03  -8.090014e-02  0 
 -5.617117e-04  -8.055332e-02  0 
 4.185609e-04  -8.042726e-02  0 
 -4.507953e-03  -8.397885e-02  0 
 -1.862474e-03  -8.250475e-02  0 
 -7.704997e-04  -8.243213e-02  0 
VECTORS displacement_ITER3 FLOAT
 -1.710972e-02  -5.589303e-02  0 
 -1.685880e-02  -4.579614e-02  0 
 -1.708453e-02  -5.006704e-02  0 
 -3.817994e-02  -6.244842e-02  0 
 -3.642017e-02  -6.206021e-02  0 
 -3.448993e-02  -6.157468e-02  0 
 -3.234509e-02  -6.102581e-02  0 
 -2.993942e-02  -6.041770e-02  0 
 -2.726683e-02  -5.974893e-02  0 
 -2.437143e-02  -5.895122e-02  0 
 -2.117089e-02  -5.785421e-02  0 
 -1.295024e-02  -5.388198e-02  0 
 -9.764965e-03  -5.268291e-02  0 
 -7.101529e-03  -5.189715e-02  0 
 -4.766878e-03  -5.146724e-02  0 
 -2.551431e-03  -5.135941e-02  0 
 -2.689396e-04  -5.153533e-02  0 
 2.194635e-03  -5.195636e-02  0 
 4.849786e-03  -5.266129e-02  0 
 -1.717454e-02  -6.160068e-02  0 
 -1.756315e-02  -6.540906e-02  0 
 -1.784700e-02  -6.858394e-02  0 
 -3.044896e-02  -6.083587e-02  0 
 -3.160983e-02  -5.902916e-02  0 
 -3.048972e-02  -5.683367e-02  0 
 -2.784932e-02  -5.488394e-02  0 
 -2.644448e-02  -5.404022e-02  0 
 -2.395829e-02  -5.247011e-02  0 
 -2.107097e-02  -5.064834e-02  0 
 -1.817466e-02  -4.852942e-02  0 
 -3.460286e-02  -6.159784e-02  0 
 -3.400402e-02  -6.013086e-02  0 
 -3.258400e-02  -5.927860e-02  0 
 -3.043046e-02  -5.821046e-02  0 
 -2.813610e-02  -5.705659e-02  0 
 -2.573727e-02  -5.602687e-02  0 
 -2.292492e-02  -5.457267e-02  0 
 -1.999967e-02  -5.243639e-02  0 
 -1.287848e-02  -4.592355e-02  0 
 -9.534257e-03  -4.630196e-02  0 
 -6.973962e-03  -4.648514e-02  0 
 -4.703373e-03  -4.652226e-02  0 
 -2.562623e-03  -4.648085e-02  0 
 -3.538626e-04  -4.639521e-02  0 
 2.093642e-03  -4.623041e-02  0 
 4.860741e-03  -4.622218e-02  0 
 -1.275360e-02  -5.000369e-02  0 
 -9.556821e-03  -4.957789e-02  0 
 -6.967974e-03  -4.924819e-02  0 
 -4.710708e-03  -4.905691e-02  0 
 -2.558190e-03  -4.898210e-02  0 
 -3.442069e-04  -4.903132e-02  0 
 2.074409e-03  -4.923207e-02  0 
 4.796463e-03  -4.953239e-02  0 
 -3.833555e-02  -6.423390e-02  0 
 -3.654399e-02  -6.392953e-02  0 
 -3.464328e-02  -6.364501e-02  0 
 -3.249412e-02  -6.331121e-02  0 
 -3.008279e-02  -6.301408e-02  0 
 -2.744867e-02  -6.260795e-02  0 
 -2.454687e-02  -6.211039e-02  0 
 -2.130661e-02  -6.164488e-02  0 
 -3.260324e-02  -6.586836e-02  0 
 -3.014019e-02  -6.568661e-02  0 
 -2.749699e-02  -6.556086e-02  0 
 -2.459072e-02  -6.544763e-02  0 
 -2.101517e-02  -6.547735e-02  0 
 -2.071554e-02  -6.846576e-02  0 
 -1.428884e-02  -6.003816e-02  0 
 -1.106448e-02  -5.871681e-02  0 
 -8.142559e-03  -5.784930e-02  0 
 -5.450966e-03  -5.732223e-02  0 
 -2.809389e-03  -5.712714e-02  0 
 -8.493810e-05  -5.719712e-02  0 
 2.928027e-03  -5.751036e-02  0 
 6.938338e-03  -5.823826e-02  0 
 -1.510488e-02  -6.478894e-02  0 
 -1.201358e-02  -6.408313e-02  0 
 -9.050966e-03  -6.330724e-02  0 
 -6.094837e-03  -6.289514e-02  0 
 -3.176881e-03  -6.272533e-02  0 
 -1.494657e-04  -6.276933e-02  0 
 3.244426e-03  -6.310261e-02  0 
 7.142965e-03  -6.354829e-02  0 
 -1.543447e-02  -6.963319e-02  0 
 -1.283368e-02  -6.858069e-02  0 
 -9.625908e-03  -6.823687e-02  0 
 -6.575045e-03  -6.807764e-02  0 
 -3.631069e-03  -6.797118e-02  0 
 -4.775774e-04  -6.799550e-02  0 
 2.979126e-03  -6.816615e-02  0 
 6.663565e-03  -6.836741e-02  0 
 -1.384945e-02  -7.349201e-02  0 
 -9.848659e-03  -7.286898e-02  0 
 -6.812451e-03  -7.252855e-02  0 
 -4.188346e-03  -7.269096e-02  0 
 -1.146453e-03  -7.269968e-02  0 
 2.341210e-03  -7.278744e-02  0 
 6.044661e-03  -7.292614e-02  0 
 -4.262953e-03  -7.614797e-02  0 
 -2.341358e-03  -7.690692e-02  0 
 1.858062e-03  -7.740174e-02  0 
 5.463710e-03  -7.759814e-02  0 
 -4.646353e-03  -8.407032e-02  0 
 1.523591e-03  -8.232908e-02  0 
 4.309054e-03  -8.098362e-02  0 
VECTORS displacement_ITER4 FLOAT
 -1.807256e-02  -5.575320e-02  0 
 -1.777432e-02  -4.604782e-02  0 
 -1.803124e-02  -5.011547e-02  0 
 -3.915305e-02  -6.215858e-02  0 
 -3.726630e-02  -6.171326e-02  0 
 -3.515013e-02  -6.122406e-02  0 
 -3.288852e-02  -6.074189e-02  0 
 -3.049177e-02  -6.021119e-02  0 
 -2.790754e-02  -5.959855e-02  0 
 -2.512563e-02  -5.882625e-02  0 
 -2.203587e-02  -5.772309e-02  0 
 -1.409619e-02  -5.374418e-02  0 
 -1.110242e-02  -5.256259e-02  0 
 -8.617244e-03  -5.180705e-02  0 
 -6.447047e-03  -5.140519e-02  0 
 -4.399976e-03  -5.131755e-02  0 
 -2.305701e-03  -5.151273e-02  0 
 -5.358241e-05  -5.196689e-02  0 
 2.377137e-03  -5.273370e-02  0 
 -1.814336e-02  -6.135765e-02  0 
 -1.849556e-02  -6.512425e-02  0 
 -1.875947e-02  -6.838899e-02  0 
 -3.274513e-02  -5.723647e-02  0 
 -3.249054e-02  -5.684079e-02  0 
 -3.083447e-02  -5.570720e-02  0 
 -2.803214e-02  -5.438267e-02  0 
 -2.665448e-02  -5.374901e-02  0 
 -2.413266e-02  -5.230426e-02  0 
 -2.130286e-02  -5.063482e-02  0 
 -1.861443e-02  -4.869919e-02  0 
 -3.637253e-02  -5.991680e-02  0 
 -3.471547e-02  -5.902434e-02  0 
 -3.296472e-02  -5.851521e-02  0 
 -3.075750e-02  -5.772147e-02  0 
 -2.849514e-02  -5.677953e-02  0 
 -2.613944e-02  -5.587893e-02  0 
 -2.340604e-02  -5.448537e-02  0 
 -2.066027e-02  -5.237551e-02  0 
 -1.403164e-02  -4.618035e-02  0 
 -1.089665e-02  -4.654896e-02  0 
 -8.514575e-03  -4.672923e-02  0 
 -6.410664e-03  -4.678039e-02  0 
 -4.430233e-03  -4.678310e-02  0 
 -2.413231e-03  -4.676077e-02  0 
 -1.778403e-04  -4.664544e-02  0 
 2.394699e-03  -4.664263e-02  0 
 -1.390317e-02  -5.005421e-02  0 
 -1.090664e-02  -4.964281e-02  0 
 -8.497336e-03  -4.932998e-02  0 
 -6.403060e-03  -4.916264e-02  0 
 -4.416630e-03  -4.911870e-02  0 
 -2.392687e-03  -4.920493e-02  0 
 -1.909368e-04  -4.945195e-02  0 
 2.297301e-03  -4.981459e-02  0 
 -3.929353e-02  -6.398328e-02  0 
 -3.739432e-02  -6.373966e-02  0 
 -3.531049e-02  -6.346124e-02  0 
 -3.301988e-02  -6.306662e-02  0 
 -3.062934e-02  -6.275287e-02  0 
 -2.807511e-02  -6.236208e-02  0 
 -2.530548e-02  -6.188357e-02  0 
 -2.218600e-02  -6.141327e-02  0 
 -3.310083e-02  -6.553014e-02  0 
 -3.066768e-02  -6.537162e-02  0 
 -2.811576e-02  -6.521813e-02  0 
 -2.533604e-02  -6.509148e-02  0 
 -2.194921e-02  -6.516336e-02  0 
 -2.179855e-02  -6.834316e-02  0 
 -1.535191e-02  -5.973552e-02  0 
 -1.220341e-02  -5.832208e-02  0 
 -9.320988e-03  -5.737633e-02  0 
 -6.666946e-03  -5.684068e-02  0 
 -4.119375e-03  -5.668781e-02  0 
 -1.565903e-03  -5.680151e-02  0 
 1.201546e-03  -5.710927e-02  0 
 4.801691e-03  -5.771921e-02  0 
 -1.617062e-02  -6.445745e-02  0 
 -1.312270e-02  -6.357787e-02  0 
 -9.979717e-03  -6.263657e-02  0 
 -6.829357e-03  -6.213011e-02  0 
 -3.880133e-03  -6.195274e-02  0 
 -1.036372e-03  -6.200934e-02  0 
 1.992493e-03  -6.226380e-02  0 
 5.473415e-03  -6.253243e-02  0 
 -1.654640e-02  -6.912143e-02  0 
 -1.405576e-02  -6.822995e-02  0 
 -1.044475e-02  -6.772606e-02  0 
 -6.855132e-03  -6.724420e-02  0 
 -3.643071e-03  -6.692826e-02  0 
 -7.076071e-04  -6.683327e-02  0 
 2.205757e-03  -6.686284e-02  0 
 5.300878e-03  -6.683104e-02  0 
 -1.537945e-02  -7.385737e-02  0 
 -1.062387e-02  -7.299501e-02  0 
 -6.996541e-03  -7.227149e-02  0 
 -3.423463e-03  -7.135784e-02  0 
 -6.147474e-04  -7.094758e-02  0 
 2.037098e-03  -7.074549e-02  0 
 4.623398e-03  -7.047797e-02  0 
 -2.926479e-03  -7.445544e-02  0 
 -7.171529e-04  -7.420025e-02  0 
 1.793638e-03  -7.384192e-02  0 
 3.721720e-03  -7.340946e-02  0 
 -9.854962e-04  -7.737492e-02  0 
 1.492577e-03  -7.620067e-02  0 
 2.759584e-03  -7.491730e-02  0 
VECTORS displacement_ITER5 FLOAT
 -1.651830e-02  -5.579920e-02  0 
 -1.622658e-02  -4.668341e-02  0 
 -1.649560e-02  -5.047817e-02  0 
 -3.758009e-02  -6.187145e-02  0 
 -3.588845e-02  -6.135172e-02  0 
 -3.377998e-02  -6.082342e-02  0 
 -3.139092e-02  -6.033909e-02  0 
 -2.883685e-02  -5.985682e-02  0 
 -2.615035e-02  -5.932547e-02  0 
 -2.334600e-02  -5.865100e-02  0 
 -2.031512e-02  -5.764974e-02  0 
 -1.279323e-02  -5.391796e-02  0 
 -9.920144e-03  -5.286943e-02  0 
 -7.423417e-03  -5.225113e-02  0 
 -5.119048e-03  -5.196930e-02  0 
 -2.855468e-03  -5.197409e-02  0 
 -5.092679e-04  -5.224061e-02  0 
 1.996929e-03  -5.276264e-02  0 
 4.665880e-03  -5.362133e-02  0 
 -1.655815e-02  -6.117385e-02  0 
 -1.688810e-02  -6.481646e-02  0 
 -1.712813e-02  -6.797500e-02  0 
 -3.444272e-02  -5.503982e-02  0 
 -3.224607e-02  -5.542913e-02  0 
 -3.003852e-02  -5.504758e-02  0 
 -2.737403e-02  -5.413692e-02  0 
 -2.556699e-02  -5.347002e-02  0 
 -2.279750e-02  -5.215674e-02  0 
 -1.986144e-02  -5.072616e-02  0 
 -1.713379e-02  -4.906937e-02  0 
 -3.640814e-02  -5.907698e-02  0 
 -3.390323e-02  -5.851755e-02  0 
 -3.182636e-02  -5.801144e-02  0 
 -2.954927e-02  -5.733327e-02  0 
 -2.715713e-02  -5.655573e-02  0 
 -2.460754e-02  -5.574957e-02  0 
 -2.178283e-02  -5.449865e-02  0 
 -1.903642e-02  -5.257614e-02  0 
 -1.271888e-02  -4.674529e-02  0 
 -9.732778e-03  -4.696826e-02  0 
 -7.333741e-03  -4.700734e-02  0 
 -5.091558e-03  -4.697121e-02  0 
 -2.892707e-03  -4.694807e-02  0 
 -6.210605e-04  -4.695327e-02  0 
 1.880578e-03  -4.689172e-02  0 
 4.735452e-03  -4.692401e-02  0 
 -1.261642e-02  -5.041091e-02  0 
 -9.751274e-03  -5.000503e-02  0 
 -7.327682e-03  -4.970247e-02  0 
 -5.091830e-03  -4.955277e-02  0 
 -2.883463e-03  -4.954179e-02  0 
 -6.036535e-04  -4.967707e-02  0 
 1.854302e-03  -4.998828e-02  0 
 4.592712e-03  -5.042865e-02  0 
 -3.769490e-02  -6.337175e-02  0 
 -3.600497e-02  -6.327003e-02  0 
 -3.391693e-02  -6.311800e-02  0 
 -3.151510e-02  -6.282101e-02  0 
 -2.895734e-02  -6.252007e-02  0 
 -2.629647e-02  -6.214332e-02  0 
 -2.350419e-02  -6.168300e-02  0 
 -2.045264e-02  -6.123170e-02  0 
 -3.158975e-02  -6.545126e-02  0 
 -2.899620e-02  -6.526692e-02  0 
 -2.633611e-02  -6.504464e-02  0 
 -2.352542e-02  -6.486141e-02  0 
 -2.023237e-02  -6.485843e-02  0 
 -2.009860e-02  -6.794755e-02  0 
 -1.398674e-02  -5.968762e-02  0 
 -1.103951e-02  -5.838398e-02  0 
 -8.263999e-03  -5.754700e-02  0 
 -5.617578e-03  -5.713087e-02  0 
 -3.048085e-03  -5.704188e-02  0 
 -4.990005e-04  -5.714776e-02  0 
 2.113010e-03  -5.732113e-02  0 
 4.814787e-03  -5.731280e-02  0 
 -1.486286e-02  -6.412868e-02  0 
 -1.212349e-02  -6.320045e-02  0 
 -9.102496e-03  -6.240448e-02  0 
 -6.115414e-03  -6.198338e-02  0 
 -3.352545e-03  -6.178884e-02  0 
 -7.796536e-04  -6.167475e-02  0 
 1.707071e-03  -6.153095e-02  0 
 4.269913e-03  -6.128599e-02  0 
 -1.567419e-02  -6.801422e-02  0 
 -1.317108e-02  -6.744012e-02  0 
 -9.782742e-03  -6.697800e-02  0 
 -6.514140e-03  -6.651994e-02  0 
 -3.727485e-03  -6.611635e-02  0 
 -1.303750e-03  -6.571914e-02  0 
 1.021215e-03  -6.533525e-02  0 
 3.362286e-03  -6.492510e-02  0 
 -1.444997e-02  -7.233685e-02  0 
 -1.023575e-02  -7.163784e-02  0 
 -6.975232e-03  -7.084558e-02  0 
 -4.151977e-03  -6.976603e-02  0 
 -2.037106e-03  -6.912705e-02  0 
 1.729411e-04  -6.862863e-02  0 
 2.390434e-03  -6.819191e-02  0 
 -4.156457e-03  -7.183555e-02  0 
 -3.004329e-03  -7.181074e-02  0 
 -5.009126e-04  -7.158926e-02  0 
 1.575547e-03  -7.125272e-02  0 
 -4.634694e-03  -7.585263e-02  0 
 -9.156485e-04  -7.456724e-02  0 
 7.393271e-04  -7.339541e-02  0 
VECTORS displacement_ITER6 FLOAT
 -1.710251e-02  -5.539570e-02  0 
 -1.681355e-02  -4.680319e-02  0 
 -1.708253e-02  -5.034427e-02  0 
 -3.751056e-02  -6.135817e-02  0 
 -3.597041e-02  -6.074650e-02  0 
 -3.386298e-02  -6.014745e-02  0 
 -3.142088e-02  -5.966251e-02  0 
 -2.886978e-02  -5.923414e-02  0 
 -2.626608e-02  -5.875870e-02  0 
 -2.358512e-02  -5.813380e-02  0 
 -2.070264e-02  -5.717615e-02  0 
 -1.358790e-02  -5.360020e-02  0 
 -1.084738e-02  -5.262770e-02  0 
 -8.410433e-03  -5.206153e-02  0 
 -6.128033e-03  -5.178620e-02  0 
 -3.908397e-03  -5.174870e-02  0 
 -1.685234e-03  -5.194170e-02  0 
 5.963184e-04  -5.239864e-02  0 
 3.006077e-03  -5.325095e-02  0 
 -1.712627e-02  -6.051993e-02  0 
 -1.740778e-02  -6.402669e-02  0 
 -1.760702e-02  -6.716600e-02  0 
 -3.215566e-02  -5.721558e-02  0 
 -3.160758e-02  -5.617517e-02  0 
 -3.011339e-02  -5.460901e-02  0 
 -2.776125e-02  -5.274896e-02  0 
 -2.601188e-02  -5.200527e-02  0 
 -2.363626e-02  -5.080625e-02  0 
 -2.105916e-02  -4.952608e-02  0 
 -1.843236e-02  -4.816734e-02  0 
 -3.493072e-02  -5.972152e-02  0 
 -3.372006e-02  -5.835442e-02  0 
 -3.207417e-02  -5.738665e-02  0 
 -2.986072e-02  -5.645078e-02  0 
 -2.747328e-02  -5.553558e-02  0 
 -2.506728e-02  -5.475270e-02  0 
 -2.240996e-02  -5.369740e-02  0 
 -1.962314e-02  -5.217174e-02  0 
 -1.351977e-02  -4.681659e-02  0 
 -1.068142e-02  -4.693811e-02  0 
 -8.322033e-03  -4.690036e-02  0 
 -6.096620e-03  -4.684492e-02  0 
 -3.927487e-03  -4.687069e-02  0 
 -1.774048e-03  -4.697441e-02  0 
 5.094523e-04  -4.703163e-02  0 
 3.040127e-03  -4.711031e-02  0 
 -1.342683e-02  -5.027318e-02  0 
 -1.069629e-02  -4.986838e-02  0 
 -8.323358e-03  -4.956129e-02  0 
 -6.097286e-03  -4.940765e-02  0 
 -3.923566e-03  -4.939973e-02  0 
 -1.759585e-03  -4.954521e-02  0 
 4.716356e-04  -4.986399e-02  0 
 2.886459e-03  -5.031507e-02  0 
 -3.763780e-02  -6.261554e-02  0 
 -3.607791e-02  -6.258092e-02  0 
 -3.402703e-02  -6.248692e-02  0 
 -3.151747e-02  -6.216439e-02  0 
 -2.898046e-02  -6.184520e-02  0 
 -2.639338e-02  -6.147375e-02  0 
 -2.373665e-02  -6.103246e-02  0 
 -2.084286e-02  -6.058655e-02  0 
 -3.155651e-02  -6.470925e-02  0 
 -2.900477e-02  -6.452944e-02  0 
 -2.643127e-02  -6.426185e-02  0 
 -2.374123e-02  -6.404351e-02  0 
 -2.066983e-02  -6.405409e-02  0 
 -2.064830e-02  -6.719343e-02  0 
 -1.450542e-02  -5.905636e-02  0 
 -1.162788e-02  -5.789235e-02  0 
 -8.953867e-03  -5.717440e-02  0 
 -6.424026e-03  -5.682844e-02  0 
 -3.988841e-03  -5.678993e-02  0 
 -1.596839e-03  -5.697947e-02  0 
 8.493859e-04  -5.734590e-02  0 
 3.572160e-03  -5.783360e-02  0 
 -1.502341e-02  -6.326756e-02  0 
 -1.231179e-02  -6.248725e-02  0 
 -9.463681e-03  -6.181733e-02  0 
 -6.657712e-03  -6.148043e-02  0 
 -4.035907e-03  -6.142340e-02  0 
 -1.582829e-03  -6.155919e-02  0 
 8.004305e-04  -6.179176e-02  0 
 3.193363e-03  -6.196410e-02  0 
 -1.512818e-02  -6.673064e-02  0 
 -1.285020e-02  -6.642908e-02  0 
 -9.847925e-03  -6.609370e-02  0 
 -6.787653e-03  -6.574730e-02  0 
 -4.027336e-03  -6.557876e-02  0 
 -1.644160e-03  -6.555453e-02  0 
 4.804443e-04  -6.556453e-02  0 
 2.448041e-03  -6.546517e-02  0 
 -1.338593e-02  -7.049783e-02  0 
 -1.007398e-02  -7.024233e-02  0 
 -6.993034e-03  -6.984512e-02  0 
 -3.950027e-03  -6.913494e-02  0 
 -1.766618e-03  -6.883225e-02  0 
 3.547345e-05  -6.860960e-02  0 
 1.521595e-03  -6.830635e-02  0 
 -3.759278e-03  -7.176423e-02  0 
 -1.858233e-03  -7.130192e-02  0 
 -4.088207e-04  -7.086511e-02  0 
 6.294871e-04  -7.040289e-02  0 
 -1.913126e-03  -7.289717e-02  0 
 -7.546886e-04  -7.246997e-02  0 
 1.327548e-04  -7.188051e-02  0 
VECTORS displacement_ITER7 FLOAT
 -1.664501e-02  -5.440182e-02  0 
 -1.633497e-02  -4.562720e-02  0 
 -1.662428e-02  -4.923038e-02  0 
 -3.688462e-02  -6.044497e-02  0 
 -3.553636e-02  -5.978803e-02  0 
 -3.352240e-02  -5.914217e-02  0 
 -3.107172e-02  -5.862409e-02  0 
 -2.847021e-02  -5.820695e-02  0 
 -2.583511e-02  -5.776366e-02  0 
 -2.314208e-02  -5.716283e-02  0 
 -2.025393e-02  -5.620711e-02  0 
 -1.303633e-02  -5.258508e-02  0 
 -1.017764e-02  -5.161683e-02  0 
 -7.581771e-03  -5.104963e-02  0 
 -5.118000e-03  -5.074757e-02  0 
 -2.731977e-03  -5.065596e-02  0 
 -3.916620e-04  -5.077753e-02  0 
 1.941459e-03  -5.116389e-02  0 
 4.352032e-03  -5.196919e-02  0 
 -1.665968e-02  -5.956809e-02  0 
 -1.694057e-02  -6.309946e-02  0 
 -1.711432e-02  -6.623744e-02  0 
 -2.938777e-02  -6.001521e-02  0 
 -3.071367e-02  -5.761785e-02  0 
 -2.983215e-02  -5.514887e-02  0 
 -2.770639e-02  -5.311457e-02  0 
 -2.583529e-02  -5.194022e-02  0 
 -2.342386e-02  -5.054876e-02  0 
 -2.087300e-02  -4.911422e-02  0 
 -1.821476e-02  -4.749256e-02  0 
 -3.277529e-02  -6.016888e-02  0 
 -3.306032e-02  -5.836389e-02  0 
 -3.179877e-02  -5.718070e-02  0 
 -2.967043e-02  -5.606566e-02  0 
 -2.727945e-02  -5.504698e-02  0 
 -2.481097e-02  -5.413331e-02  0 
 -2.214308e-02  -5.296937e-02  0 
 -1.933920e-02  -5.130949e-02  0 
 -1.296884e-02  -4.560268e-02  0 
 -1.000556e-02  -4.564556e-02  0 
 -7.469145e-03  -4.553610e-02  0 
 -5.056493e-03  -4.544753e-02  0 
 -2.719522e-03  -4.548067e-02  0 
 -4.475300e-04  -4.562346e-02  0 
 1.888176e-03  -4.573782e-02  0 
 4.430773e-03  -4.582351e-02  0 
 -1.287546e-02  -4.914861e-02  0 
 -1.002630e-02  -4.871922e-02  0 
 -7.486160e-03  -4.838036e-02  0 
 -5.071406e-03  -4.819577e-02  0 
 -2.727189e-03  -4.816395e-02  0 
 -4.430616e-04  -4.829253e-02  0 
 1.839179e-03  -4.859664e-02  0 
 4.241881e-03  -4.903373e-02  0 
 -3.702471e-02  -6.146552e-02  0 
 -3.564030e-02  -6.147069e-02  0 
 -3.369561e-02  -6.143479e-02  0 
 -3.116336e-02  -6.115627e-02  0 
 -2.856738e-02  -6.084844e-02  0 
 -2.594456e-02  -6.049554e-02  0 
 -2.328611e-02  -6.007558e-02  0 
 -2.039439e-02  -5.963322e-02  0 
 -3.117839e-02  -6.371914e-02  0 
 -2.856731e-02  -6.356554e-02  0 
 -2.595838e-02  -6.329764e-02  0 
 -2.325969e-02  -6.309030e-02  0 
 -2.023582e-02  -6.313701e-02  0 
 -2.020246e-02  -6.628344e-02  0 
 -1.409517e-02  -5.820556e-02  0 
 -1.118971e-02  -5.707804e-02  0 
 -8.450790e-03  -5.638083e-02  0 
 -5.828684e-03  -5.602430e-02  0 
 -3.294286e-03  -5.593568e-02  0 
 -8.147009e-04  -5.607593e-02  0 
 1.681459e-03  -5.645060e-02  0 
 4.419330e-03  -5.706701e-02  0 
 -1.477036e-02  -6.248327e-02  0 
 -1.209825e-02  -6.174972e-02  0 
 -9.258879e-03  -6.116481e-02  0 
 -6.472393e-03  -6.085224e-02  0 
 -3.808884e-03  -6.076478e-02  0 
 -1.255422e-03  -6.086729e-02  0 
 1.242234e-03  -6.113941e-02  0 
 3.621469e-03  -6.142453e-02  0 
 -1.531426e-02  -6.607961e-02  0 
 -1.279650e-02  -6.574003e-02  0 
 -9.882521e-03  -6.544553e-02  0 
 -6.997552e-03  -6.523060e-02  0 
 -4.300528e-03  -6.509659e-02  0 
 -1.759489e-03  -6.507645e-02  0 
 6.002166e-04  -6.514164e-02  0 
 2.670070e-03  -6.513864e-02  0 
 -1.346397e-02  -6.962810e-02  0 
 -1.031171e-02  -6.944586e-02  0 
 -7.417935e-03  -6.914006e-02  0 
 -4.829706e-03  -6.887903e-02  0 
 -2.300039e-03  -6.873070e-02  0 
 -9.028863e-05  -6.858519e-02  0 
 1.758536e-03  -6.839614e-02  0 
 -5.375361e-03  -7.236551e-02  0 
 -2.857060e-03  -7.188149e-02  0 
 -6.975439e-04  -7.156192e-02  0 
 1.000768e-03  -7.123299e-02  0 
 -3.592093e-03  -7.482827e-02  0 
 -1.094134e-03  -7.425582e-02  0 
 5.776887e-04  -7.374505e-02  0 
VECTORS displacement_ITER8 FLOAT
 -1.666690e-02  -5.453059e-02  0 
 -1.631627e-02  -4.601500e-02  0 
 -1.663073e-02  -4.947962e-02  0 
 -3.636680e-02  -6.062991e-02  0 
 -3.504801e-02  -5.993423e-02  0 
 -3.307139e-02  -5.928519e-02  0 
 -3.069823e-02  -5.876570e-02  0 
 -2.818530e-02  -5.833550e-02  0 
 -2.563011e-02  -5.787893e-02  0 