# vtk DataFile Version 3.1
this is an vtk file created by FEMAC
ASCII
DATASET UNSTRUCTURED_GRID
POINTS 101 FLOAT
5.000000 6.000000 0.000000
6.000000 5.000000 0.000000
6.000000 6.000000 0.000000
5.000000 5.444444 0.000000
5.000000 5.555556 0.000000
5.000000 5.666667 0.000000
5.000000 5.777778 0.000000
5.000000 5.888889 0.000000
5.111111 5.000000 0.000000
5.222222 5.000000 0.000000
5.333333 5.000000 0.000000
5.444444 5.000000 0.000000
5.555556 5.000000 0.000000
5.666667 5.000000 0.000000
5.777778 5.000000 0.000000
5.888889 5.000000 0.000000
6.000000 4.888889 0.000000
5.111111 6.000000 0.000000
5.222222 6.000000 0.000000
5.333333 6.000000 0.000000
5.444444 6.000000 0.000000
5.555556 6.000000 0.000000
5.666667 6.000000 0.000000
5.777778 6.000000 0.000000
5.888889 6.000000 0.000000
6.000000 5.111111 0.000000
6.000000 5.222222 0.000000
6.000000 5.333333 0.000000
6.000000 5.444444 0.000000
6.000000 5.555556 0.000000
6.000000 5.666667 0.000000
6.000000 5.777778 0.000000
6.000000 5.888889 0.000000
5.555556 4.888889 0.000000
5.666667 4.888889 0.000000
5.777778 4.888889 0.000000
5.888889 4.888889 0.000000
5.111111 5.111111 0.000000
5.111111 5.222222 0.000000
5.111111 5.333333 0.000000
5.111111 5.444444 0.000000
5.111111 5.555556 0.000000
5.111111 5.666667 0.000000
5.111111 5.777778 0.000000
5.111111 5.888889 0.000000
5.222222 5.111111 0.000000
5.222222 5.222222 0.000000
5.222222 5.333333 0.000000
5.222222 5.444444 0.000000
5.222222 5.555556 0.000000
5.222222 5.666667 0.000000
5.222222 5.777778 0.000000
5.222222 5.888889 0.000000
5.333333 5.111111 0.000000
5.333333 5.222222 0.000000
5.333333 5.333333 0.000000
5.333333 5.444444 0.000000
5.333333 5.555556 0.000000
5.333333 5.666667 0.000000
5.333333 5.777778 0.000000
5.333333 5.888889 0.000000
5.444444 5.111111 0.000000
5.444444 5.222222 0.000000
5.444444 5.333333 0.000000
5.444444 5.444444 0.000000
5.444444 5.555556 0.000000
5.444444 5.666667 0.000000
5.444444 5.777778 0.000000
5.444444 5.888889 0.000000
5.555556 5.111111 0.000000
5.555556 5.222222 0.000000
5.555556 5.333333 0.000000
5.555556 5.444444 0.000000
5.555556 5.555556 0.000000
5.555556 5.666667 0.000000
5.555556 5.777778 0.000000
5.555556 5.888889 0.000000
5.666667 5.111111 0.000000
5.666667 5.222222 0.000000
5.666667 5.333333 0.000000
5.666667 5.444444 0.000000
5.666667 5.555556 0.000000
5.666667 5.666667 0.000000
5.666667 5.777778 0.000000
5.666667 5.888889 0.000000
5.777778 5.111111 0.000000
5.777778 5.222222 0.000000
5.777778 5.333333 0.000000
5.777778 5.444444 0.000000
5.777778 5.555556 0.000000
5.777778 5.666667 0.000000
5.777778 5.777778 0.000000
5.777778 5.888889 0.000000
5.888889 5.111111 0.000000
5.888889 5.222222 0.000000
5.888889 5.333333 0.000000
5.888889 5.444444 0.000000
5.888889 5.555556 0.000000
5.888889 5.666667 0.000000
5.888889 5.777778 0.000000
5.888889 5.888889 0.000000
CELLS 81 405 
4 33 34 13 12
4 34 35 14 13
4 35 36 15 14
4 36 16  1 15
4 3 40 41  4
4 4 41 42  5
4 5 42 43  6
4 6 43 44  7
4 7 44 17  0
4 8  9 45 37
4 37 45 46 38
4 38 46 47 39
4 39 47 48 40
4 40 48 49 41
4 41 49 50 42
4 42 50 51 43
4 43 51 52 44
4 44 52 18 17
4 9 10 53 45
4 45 53 54 46
4 46 54 55 47
4 47 55 56 48
4 48 56 57 49
4 49 57 58 50
4 50 58 59 51
4 51 59 60 52
4 52 60 19 18
4 10 11 61 53
4 53 61 62 54
4 54 62 63 55
4 55 63 64 56
4 56 64 65 57
4 57 65 66 58
4 58 66 67 59
4 59 67 68 60
4 60 68 20 19
4 11 12 69 61
4 61 69 70 62
4 62 70 71 63
4 63 71 72 64
4 64 72 73 65
4 65 73 74 66
4 66 74 75 67
4 67 75 76 68
4 68 76 21 20
4 12 13 77 69
4 69 77 78 70
4 70 78 79 71
4 71 79 80 72
4 72 80 81 73
4 73 81 82 74
4 74 82 83 75
4 75 83 84 76
4 76 84 22 21
4 13 14 85 77
4 77 85 86 78
4 78 86 87 79
4 79 87 88 80
4 80 88 89 81
4 81 89 90 82
4 82 90 91 83
4 83 91 92 84
4 84 92 23 22
4 14 15 93 85
4 85 93 94 86
4 86 94 95 87
4 87 95 96 88
4 88 96 97 89
4 89 97 98 90
4 90 98 99 91
4 91  99 100  92
4 92 100  24  23
4 15  1 25 93
4 93 25 26 94
4 94 26 27 95
4 95 27 28 96
4 96 28 29 97
4 97 29 30 98
4 98 30 31 99
4 99  31  32 100
4 100  32   2  24
CELL_TYPES 81
9 9 9 9 9 9 9 9 9 9 9 9 9 9 9 9 9 9 9 9 9 9 9 9 9 9 9 9 9 9 9 9 9 9 9 9 9 9 9 9 9 9 9 9 9 9 9 9 9 9 9 9 9 9 9 9 9 9 9 9 9 9 9 9 9 9 9 9 9 9 9 9 9 9 9 9 9 9 9 9 9 
POINT_DATA 101
VECTORS displacement_ITER1 FLOAT
 9.980520e-02  -1.385479e-01  0 
 6.168343e-02  -1.767463e-01  0 
 1.000511e-01  -1.767881e-01  0 
 7.858650e-02  -1.382038e-01  0 
 8.293749e-02  -1.383682e-01  0 
 8.716796e-02  -1.384103e-01  0 
 9.142913e-02  -1.384493e-01  0 
 9.564972e-02  -1.385016e-01  0 
 6.148289e-02  -1.423023e-01  0 
 6.150167e-02  -1.467354e-01  0 
 6.155171e-02  -1.510930e-01  0 
 6.158964e-02  -1.554210e-01  0 
 6.161822e-02  -1.597107e-01  0 
 6.164457e-02  -1.639802e-01  0 
 6.166109e-02  -1.682482e-01  0 
 6.167404e-02  -1.725073e-01  0 
 5.890527e-02  -1.756126e-01  0 
 9.987677e-02  -1.427128e-01  0 
 9.993186e-02  -1.469400e-01  0 
 9.997205e-02  -1.511875e-01  0 
 1.000026e-01  -1.554448e-01  0 
 1.000249e-01  -1.597088e-01  0 
 1.000395e-01  -1.639772e-01  0 
 1.000474e-01  -1.682478e-01  0 
 1.000504e-01  -1.725185e-01  0 
 6.592455e-02  -1.767630e-01  0 
 7.018127e-02  -1.767753e-01  0 
 7.444452e-02  -1.767825e-01  0 
 7.871111e-02  -1.767854e-01  0 
 8.297892e-02  -1.767858e-01  0 
 8.724669e-02  -1.767855e-01  0 
 9.151425e-02  -1.767859e-01  0 
 9.578217e-02  -1.767872e-01  0 
 5.873671e-02  -1.594624e-01  0 
 5.821975e-02  -1.634251e-01  0 
 5.807233e-02  -1.678723e-01  0 
 5.830215e-02  -1.722640e-01  0 
 6.587699e-02  -1.423327e-01  0 
 7.023870e-02  -1.424055e-01  0 
 7.453415e-02  -1.425213e-01  0 
 7.871480e-02  -1.425926e-01  0 
 8.296116e-02  -1.426184e-01  0 
 8.720495e-02  -1.426550e-01  0 
 9.144693e-02  -1.426844e-01  0 
 9.567265e-02  -1.426992e-01  0 
 6.588323e-02  -1.467492e-01  0 
 7.022661e-02  -1.467753e-01  0 
 7.451047e-02  -1.467998e-01  0 
 7.874754e-02  -1.468365e-01  0 
 8.298123e-02  -1.468773e-01  0 
 8.722523e-02  -1.469023e-01  0 
 9.146380e-02  -1.469192e-01  0 
 9.569693e-02  -1.469291e-01  0 
 6.588584e-02  -1.511062e-01  0 
 7.020289e-02  -1.511053e-01  0 
 7.448928e-02  -1.511066e-01  0 
 7.874997e-02  -1.511182e-01  0 
 8.299570e-02  -1.511382e-01  0 
 8.723773e-02  -1.511566e-01  0 
 9.147994e-02  -1.511684e-01  0 
 9.572323e-02  -1.511777e-01  0 
 6.589179e-02  -1.554206e-01  0 
 7.018782e-02  -1.554149e-01  0 
 7.447162e-02  -1.554080e-01  0 
 7.874042e-02  -1.554066e-01  0 
 8.299672e-02  -1.554116e-01  0 
 8.724589e-02  -1.554202e-01  0 
 9.149405e-02  -1.554289e-01  0 
 9.574541e-02  -1.554369e-01  0 
 6.589887e-02  -1.597119e-01  0 
 7.018082e-02  -1.597064e-01  0 
 7.445848e-02  -1.596985e-01  0 
 7.872900e-02  -1.596922e-01  0 
 8.299174e-02  -1.596901e-01  0 
 8.724881e-02  -1.596922e-01  0 
 9.150418e-02  -1.596971e-01  0 
 9.576186e-02  -1.597030e-01  0 
 6.590828e-02  -1.639869e-01  0 
 7.017856e-02  -1.639846e-01  0 
 7.445003e-02  -1.639785e-01  0 
 7.871975e-02  -1.639723e-01  0 
 8.298592e-02  -1.639684e-01  0 
 8.724869e-02  -1.639677e-01  0 
 9.150999e-02  -1.639698e-01  0 
 9.577264e-02  -1.639735e-01  0 
 6.591722e-02  -1.682527e-01  0 
 7.017861e-02  -1.682529e-01  0 
 7.444541e-02  -1.682504e-01  0 
 7.871394e-02  -1.682470e-01  0 
 8.298162e-02  -1.682441e-01  0 
 8.724765e-02  -1.682429e-01  0 
 9.151276e-02  -1.682437e-01  0 
 9.577865e-02  -1.682458e-01  0 
 6.592151e-02  -1.725112e-01  0 
 7.017936e-02  -1.725151e-01  0 
 7.444387e-02  -1.725173e-01  0 
 7.871141e-02  -1.725174e-01  0 
 8.297948e-02  -1.725165e-01  0 
 8.724691e-02  -1.725159e-01  0 
 9.151384e-02  -1.725163e-01  0 
 9.578131e-02  -1.725175e-01  0 
VECTORS displacement_ITER2 FLOAT
 9.909548e-02  -1.288503e-01  0 
 6.257516e-02  -1.654260e-01  0 
 9.934884e-02  -1.654010e-01  0 
 7.908070e-02  -1.288153e-01  0 
 8.298701e-02  -1.287820e-01  0 
 8.700488e-02  -1.287693e-01  0 
 9.107426e-02  -1.287820e-01  0 
 9.510991e-02  -1.288092e-01  0 
 6.238182e-02  -1.323712e-01  0 
 6.244596e-02  -1.366413e-01  0 
 6.252072e-02  -1.408338e-01  0 
 6.256217e-02  -1.449511e-01  0 
 6.256650e-02  -1.490520e-01  0 
 6.257394e-02  -1.531463e-01  0 
 6.257557e-02  -1.572383e-01  0 
 6.257425e-02  -1.613309e-01  0 
 5.820036e-02  -1.647327e-01  0 
 9.915645e-02  -1.328424e-01  0 
 9.920411e-02  -1.368827e-01  0 
 9.924493e-02  -1.409355e-01  0 
 9.928166e-02  -1.449973e-01  0 
 9.931160e-02  -1.490688e-01  0 
 9.933226e-02  -1.531485e-01  0 
 9.934363e-02  -1.572326e-01  0 
 9.934794e-02  -1.613174e-01  0 
 6.666931e-02  -1.654270e-01  0 
 7.076059e-02  -1.654249e-01  0 
 7.484948e-02  -1.654204e-01  0 
 7.893626e-02  -1.654141e-01  0 
 8.302080e-02  -1.654076e-01  0 
 8.710329e-02  -1.654025e-01  0 
 9.118460e-02  -1.654001e-01  0 
 9.526608e-02  -1.654003e-01  0 
 5.925163e-02  -1.490844e-01  0 
 5.858906e-02  -1.525352e-01  0 
 5.828127e-02  -1.566923e-01  0 
 5.824403e-02  -1.608119e-01  0 
 6.668987e-02  -1.323906e-01  0 
 7.089125e-02  -1.325039e-01  0 
 7.491080e-02  -1.325551e-01  0 
 7.901046e-02  -1.326759e-01  0 
 8.301471e-02  -1.327547e-01  0 
 8.704123e-02  -1.327999e-01  0 
 9.108984e-02  -1.328221e-01  0 
 9.513169e-02  -1.328322e-01  0 
 6.667428e-02  -1.366640e-01  0 
 7.083469e-02  -1.366622e-01  0 
 7.493627e-02  -1.366993e-01  0 
 7.900344e-02  -1.367462e-01  0 
 8.304297e-02  -1.367902e-01  0 
 8.707475e-02  -1.368320e-01  0 
 9.111467e-02  -1.368583e-01  0 
 9.515845e-02  -1.368714e-01  0 
 6.666418e-02  -1.408328e-01  0 
 7.080221e-02  -1.408252e-01  0 
 7.491372e-02  -1.408261e-01  0 
 7.899239e-02  -1.408404e-01  0 
 8.304960e-02  -1.408624e-01  0 
 8.709599e-02  -1.408867e-01  0 
 9.114064e-02  -1.409080e-01  0 
 9.519002e-02  -1.409233e-01  0 
 6.666485e-02  -1.449551e-01  0 
 7.078125e-02  -1.449507e-01  0 
 7.488766e-02  -1.449443e-01  0 
 7.897560e-02  -1.449432e-01  0 
 8.304604e-02  -1.449496e-01  0 
 8.710543e-02  -1.449611e-01  0 
 9.116080e-02  -1.449743e-01  0 
 9.521833e-02  -1.449866e-01  0 
 6.666823e-02  -1.490559e-01  0 
 7.077020e-02  -1.490557e-01  0 
 7.486956e-02  -1.490505e-01  0 
 7.895965e-02  -1.490452e-01  0 
 8.303841e-02  -1.490437e-01  0 
 8.710810e-02  -1.490468e-01  0 
 9.117347e-02  -1.490532e-01  0 
 9.523974e-02  -1.490610e-01  0 
 6.666853e-02  -1.531510e-01  0 
 7.076496e-02  -1.531514e-01  0 
 7.485911e-02  -1.531482e-01  0 
 7.894842e-02  -1.531430e-01  0 
 8.303103e-02  -1.531389e-01  0 
 8.710746e-02  -1.531376e-01  0 
 9.118040e-02  -1.531395e-01  0 
 9.525384e-02  -1.531436e-01  0 
 6.666895e-02  -1.572425e-01  0 
 7.076237e-02  -1.572437e-01  0 
 7.485377e-02  -1.572413e-01  0 
 7.894184e-02  -1.572368e-01  0 
 8.302583e-02  -1.572321e-01  0 
 8.710589e-02  -1.572290e-01  0 
 9.118361e-02  -1.572285e-01  0 
 9.526175e-02  -1.572301e-01  0 
 6.666934e-02  -1.613344e-01  0 
 7.076138e-02  -1.613346e-01  0 
 7.485116e-02  -1.613317e-01  0 
 7.893841e-02  -1.613270e-01  0 
 8.302278e-02  -1.613219e-01  0 
 8.710447e-02  -1.613180e-01  0 
 9.118463e-02  -1.613163e-01  0 
 9.526517e-02  -1.613165e-01  0 
VECTORS displacement_ITER3 FLOAT
 9.201029e-02  -1.211047e-01  0 
 5.835955e-02  -1.548088e-01  0 
 9.226151e-02  -1.548480e-01  0 
 7.349552e-02  -1.209624e-01  0 
 7.715237e-02  -1.209815e-01  0 
 8.088779e-02  -1.209978e-01  0 
 8.463101e-02  -1.210324e-01  0 
 8.834473e-02  -1.210626e-01  0 
 5.810359e-02  -1.243671e-01  0 
 5.817450e-02  -1.282996e-01  0 
 5.822990e-02  -1.321629e-01  0 
 5.827335e-02  -1.359658e-01  0 
 5.831213e-02  -1.397571e-01  0 
 5.833005e-02  -1.435269e-01  0 
 5.834250e-02  -1.472953e-01  0 
 5.835129e-02  -1.510589e-01  0 
 5.559281e-02  -1.533985e-01  0 
 9.207501e-02  -1.247765e-01  0 
 9.212722e-02  -1.285005e-01  0 
 9.216981e-02  -1.322420e-01  0 
 9.220474e-02  -1.359951e-01  0 
 9.223117e-02  -1.397580e-01  0 
 9.224842e-02  -1.435279e-01  0 
 9.225748e-02  -1.473013e-01  0 
 9.226080e-02  -1.510752e-01  0 
 6.211076e-02  -1.548243e-01  0 
 6.587281e-02  -1.548355e-01  0 
 6.963916e-02  -1.548424e-01  0 
 7.340802e-02  -1.548454e-01  0 
 7.717801e-02  -1.548459e-01  0 
 8.094822e-02  -1.548456e-01  0 
 8.471852e-02  -1.548459e-01  0 
 8.848944e-02  -1.548471e-01  0 
 5.652567e-02  -1.403268e-01  0 
 5.540916e-02  -1.428247e-01  0 
 5.500404e-02  -1.466876e-01  0 
 5.511942e-02  -1.505016e-01  0 
 6.205921e-02  -1.243816e-01  0 
 6.593263e-02  -1.244546e-01  0 
 6.968817e-02  -1.244946e-01  0 
 7.347598e-02  -1.246048e-01  0 
 7.718667e-02  -1.246782e-01  0 
 8.091349e-02  -1.247250e-01  0 
 8.464773e-02  -1.247495e-01  0 
 8.836896e-02  -1.247643e-01  0 
 6.205570e-02  -1.283123e-01  0 
 6.589956e-02  -1.283121e-01  0 
 6.970227e-02  -1.283410e-01  0 
 7.347117e-02  -1.283776e-01  0 
 7.720960e-02  -1.284169e-01  0 
 8.093758e-02  -1.284533e-01  0 
 8.466726e-02  -1.284761e-01  0 
 8.839645e-02  -1.284884e-01  0 
 6.205935e-02  -1.321618e-01  0 
 6.588254e-02  -1.321589e-01  0 
 6.968427e-02  -1.321591e-01  0 
 7.345848e-02  -1.321681e-01  0 
 7.721147e-02  -1.321835e-01  0 
 8.095135e-02  -1.322019e-01  0 
 8.468713e-02  -1.322182e-01  0 
 8.842560e-02  -1.322307e-01  0 
 6.207200e-02  -1.359749e-01  0 
 6.587238e-02  -1.359706e-01  0 
 6.966460e-02  -1.359637e-01  0 
 7.344197e-02  -1.359596e-01  0 
 7.720415e-02  -1.359612e-01  0 
 8.095550e-02  -1.359675e-01  0 
 8.470216e-02  -1.359764e-01  0 
 8.845043e-02  -1.359858e-01  0 
 6.208515e-02  -1.397616e-01  0 
 6.586824e-02  -1.397602e-01  0 
 6.965081e-02  -1.397538e-01  0 
 7.342697e-02  -1.397466e-01  0 
 7.719452e-02  -1.397423e-01  0 
 8.095467e-02  -1.397421e-01  0 
 8.471109e-02  -1.397457e-01  0 
 8.846842e-02  -1.397514e-01  0 
 6.209597e-02  -1.435350e-01  0 
 6.586810e-02  -1.435367e-01  0 
 6.964286e-02  -1.435332e-01  0 
 7.341643e-02  -1.435275e-01  0 
 7.718631e-02  -1.435226e-01  0 
 8.095212e-02  -1.435202e-01  0 
 8.471558e-02  -1.435209e-01  0 
 8.847978e-02  -1.435239e-01  0 
 6.210365e-02  -1.473025e-01  0 
 6.586936e-02  -1.473059e-01  0 
 6.963919e-02  -1.473057e-01  0 
 7.341051e-02  -1.473032e-01  0 
 7.718102e-02  -1.473001e-01  0 
 8.094982e-02  -1.472980e-01  0 
 8.471752e-02  -1.472977e-01  0 
 8.848593e-02  -1.472993e-01  0 
 6.210779e-02  -1.510655e-01  0 
 6.587073e-02  -1.510713e-01  0 
 6.963832e-02  -1.510746e-01  0 
 7.340820e-02  -1.510753e-01  0 
 7.717860e-02  -1.510745e-01  0 
 8.094857e-02  -1.510735e-01  0 
 8.471823e-02  -1.510734e-01  0 
 8.848859e-02  -1.510743e-01  0 
VECTORS displacement_ITER4 FLOAT
 8.852415e-02  -1.175237e-01  0 
 5.424432e-02  -1.518590e-01  0 
 8.874003e-02  -1.519367e-01  0 
 6.950662e-02  -1.173069e-01  0 
 7.335116e-02  -1.173952e-01  0 
 7.716414e-02  -1.174452e-01  0 
 8.097114e-02  -1.174719e-01  0 
 8.476078e-02  -1.174916e-01  0 
 5.390958e-02  -1.208528e-01  0 
 5.399193e-02  -1.248769e-01  0 
 5.406169e-02  -1.288189e-01  0 
 5.411758e-02  -1.327151e-01  0 
 5.415795e-02  -1.365806e-01  0 
 5.419149e-02  -1.404141e-01  0 
 5.421348e-02  -1.442438e-01  0 
 5.422997e-02  -1.480635e-01  0 
 5.242087e-02  -1.495388e-01  0 
 8.857660e-02  -1.212901e-01  0 
 8.862112e-02  -1.250923e-01  0 
 8.865862e-02  -1.289080e-01  0 
 8.868932e-02  -1.327338e-01  0 
 8.871248e-02  -1.365678e-01  0 
 8.872783e-02  -1.404076e-01  0 
 8.873615e-02  -1.442506e-01  0 
 8.873931e-02  -1.480941e-01  0 
 5.804415e-02  -1.518870e-01  0 
 6.186625e-02  -1.519083e-01  0 
 6.569820e-02  -1.519223e-01  0 
 6.953573e-02  -1.519298e-01  0 
 7.337582e-02  -1.519328e-01  0 
 7.721651e-02  -1.519337e-01  0 
 8.105714e-02  -1.519345e-01  0 
 8.489810e-02  -1.519358e-01  0 
 5.255390e-02  -1.372412e-01  0 
 5.148286e-02  -1.397823e-01  0 
 5.118695e-02  -1.436355e-01  0 
 5.149088e-02  -1.474093e-01  0 
 5.796519e-02  -1.208710e-01  0 
 6.193067e-02  -1.209544e-01  0 
 6.578641e-02  -1.210620e-01  0 
 6.956590e-02  -1.211592e-01  0 
 7.337775e-02  -1.212046e-01  0 
 7.718625e-02  -1.212402e-01  0 
 8.098928e-02  -1.212639e-01  0 
 8.478703e-02  -1.212787e-01  0 
 5.796556e-02  -1.248974e-01  0 
 6.190456e-02  -1.249110e-01  0 
 6.577373e-02  -1.249376e-01  0 
 6.959174e-02  -1.249793e-01  0 
 7.339573e-02  -1.250226e-01  0 
 7.720364e-02  -1.250501e-01  0 
 8.100949e-02  -1.250685e-01  0 
 8.481413e-02  -1.250809e-01  0 
 5.797730e-02  -1.288314e-01  0 
 6.187852e-02  -1.288290e-01  0 
 6.574907e-02  -1.288264e-01  0 
 6.958737e-02  -1.288356e-01  0 
 7.340517e-02  -1.288542e-01  0 
 7.721615e-02  -1.288730e-01  0 
 8.102734e-02  -1.288869e-01  0 
 8.484064e-02  -1.288978e-01  0 
 5.799246e-02  -1.327203e-01  0 
 6.186528e-02  -1.327137e-01  0 
 6.572691e-02  -1.327035e-01  0 
 6.957199e-02  -1.326980e-01  0 
 7.340175e-02  -1.327003e-01  0 
 7.722251e-02  -1.327080e-01  0 
 8.104123e-02  -1.327170e-01  0 
 8.486260e-02  -1.327256e-01  0 
 5.800681e-02  -1.365809e-01  0 
 6.186005e-02  -1.365751e-01  0 
 6.571148e-02  -1.365651e-01  0 
 6.955641e-02  -1.365559e-01  0 
 7.339302e-02  -1.365512e-01  0 
 7.722290e-02  -1.365518e-01  0 
 8.105004e-02  -1.365561e-01  0 
 8.487873e-02  -1.365619e-01  0 
 5.802014e-02  -1.404223e-01  0 
 6.185925e-02  -1.404204e-01  0 
 6.570204e-02  -1.404138e-01  0 
 6.954474e-02  -1.404064e-01  0 
 7.338447e-02  -1.404011e-01  0 
 7.722051e-02  -1.403992e-01  0 
 8.105443e-02  -1.404005e-01  0 
 8.488912e-02  -1.404039e-01  0 
 5.803218e-02  -1.442518e-01  0 
 6.186040e-02  -1.442545e-01  0 
 6.569724e-02  -1.442535e-01  0 
 6.953784e-02  -1.442507e-01  0 
 7.337865e-02  -1.442479e-01  0 
 7.721802e-02  -1.442463e-01  0 
 8.105619e-02  -1.442467e-01  0 
 8.489480e-02  -1.442486e-01  0 
 5.803882e-02  -1.480729e-01  0 
 6.186242e-02  -1.480819e-01  0 
 6.569623e-02  -1.480882e-01  0 
 6.953528e-02  -1.480909e-01  0 
 7.337608e-02  -1.480915e-01  0 
 7.721670e-02  -1.480915e-01  0 
 8.105681e-02  -1.480920e-01  0 
 8.489729e-02  -1.480931e-01  0 
VECTORS displacement_ITER5 FLOAT
 8.970131e-02  -1.160574e-01  0 
 5.481668e-02  -1.509962e-01  0 
 8.996748e-02  -1.510183e-01  0 
 7.038979e-02  -1.157715e-01  0 
 7.433104e-02  -1.158779e-01  0 
 7.819035e-02  -1.159492e-01  0 
 8.205153e-02  -1.159823e-01  0 
 8.589765e-02  -1.160196e-01  0 
 5.460572e-02  -1.194336e-01  0 
 5.465529e-02  -1.234829e-01  0 
 5.470724e-02  -1.274778e-01  0 
 5.474516e-02  -1.314459e-01  0 
 5.476792e-02  -1.353736e-01  0 
 5.478443e-02  -1.392959e-01  0 
 5.479752e-02  -1.432075e-01  0 
 5.480777e-02  -1.471083e-01  0 
 5.201574e-02  -1.492961e-01  0 
 8.976499e-02  -1.198640e-01  0 
 8.982165e-02  -1.237184e-01  0 
 8.986890e-02  -1.275935e-01  0 
 8.990679e-02  -1.314829e-01  0 
 8.993477e-02  -1.353826e-01  0 
 8.995311e-02  -1.392891e-01  0 
 8.996299e-02  -1.431990e-01  0 
 8.996670e-02  -1.471093e-01  0 
 5.870795e-02  -1.510125e-01  0 
 6.261197e-02  -1.510220e-01  0 
 6.652023e-02  -1.510251e-01  0 
 7.042943e-02  -1.510238e-01  0 
 7.433797e-02  -1.510207e-01  0 
 7.824539e-02  -1.510179e-01  0 
 8.215212e-02  -1.510168e-01  0 
 8.605921e-02  -1.510175e-01  0 
 5.099121e-02  -1.348731e-01  0 
 5.108591e-02  -1.390274e-01  0 
 5.122321e-02  -1.428581e-01  0 
 5.146679e-02  -1.465983e-01  0 
 5.866839e-02  -1.194361e-01  0 
 6.266265e-02  -1.194782e-01  0 
 6.663310e-02  -1.196096e-01  0 
 7.046148e-02  -1.197205e-01  0 
 7.434581e-02  -1.197602e-01  0 
 7.821658e-02  -1.197971e-01  0 
 8.207582e-02  -1.198298e-01  0 
 8.592741e-02  -1.198491e-01  0 
 5.866439e-02  -1.234975e-01  0 
 6.266166e-02  -1.235215e-01  0 
 6.660538e-02  -1.235513e-01  0 
 7.049102e-02  -1.235942e-01  0 
 7.435846e-02  -1.236420e-01  0 
 7.823172e-02  -1.236700e-01  0 
 8.209792e-02  -1.236899e-01  0 
 8.595890e-02  -1.237045e-01  0 
 5.867764e-02  -1.274944e-01  0 
 6.264057e-02  -1.274991e-01  0 
 6.657764e-02  -1.275026e-01  0 
 7.048401e-02  -1.275146e-01  0 
 7.436774e-02  -1.275352e-01  0 
 7.824268e-02  -1.275555e-01  0 
 8.211630e-02  -1.275697e-01  0 
 8.599016e-02  -1.275814e-01  0 
 5.868630e-02  -1.314485e-01  0 
 6.262656e-02  -1.314477e-01  0 
 6.655553e-02  -1.314434e-01  0 
 7.046778e-02  -1.314418e-01  0 
 7.436382e-02  -1.314461e-01  0 
 7.824926e-02  -1.314547e-01  0 
 8.213150e-02  -1.314642e-01  0 
 8.601608e-02  -1.314733e-01  0 
 5.869274e-02  -1.353804e-01  0 
 6.261878e-02  -1.353785e-01  0 
 6.653984e-02  -1.353725e-01  0 
 7.045249e-02  -1.353664e-01  0 
 7.435541e-02  -1.353635e-01  0 
 7.825047e-02  -1.353648e-01  0 
 8.214210e-02  -1.353695e-01  0 
 8.603542e-02  -1.353758e-01  0 
 5.869903e-02  -1.392993e-01  0 
 6.261459e-02  -1.392978e-01  0 
 6.652960e-02  -1.392925e-01  0 
 7.044116e-02  -1.392864e-01  0 
 7.434758e-02  -1.392816e-01  0 
 7.824912e-02  -1.392798e-01  0 
 8.214811e-02  -1.392812e-01  0 
 8.604816e-02  -1.392848e-01  0 
 5.870301e-02  -1.432102e-01  0 
 6.261230e-02  -1.432093e-01  0 
 6.652355e-02  -1.432062e-01  0 
 7.043415e-02  -1.432019e-01  0 
 7.434219e-02  -1.431978e-01  0 
 7.824737e-02  -1.431953e-01  0 
 8.215095e-02  -1.431951e-01  0 
 8.605524e-02  -1.431968e-01  0 
 5.870537e-02  -1.471135e-01  0 
 6.261120e-02  -1.471162e-01  0 
 6.652080e-02  -1.471162e-01  0 
 7.043074e-02  -1.471140e-01  0 
 7.433932e-02  -1.471109e-01  0 
 7.824614e-02  -1.471085e-01  0 
 8.215195e-02  -1.471077e-01  0 
 8.605832e-02  -1.471084e-01  0 
VECTORS displacement_ITER6 FLOAT
 8.916646e-02  -1.154145e-01  0 
 5.443253e-02  -1.501973e-01  0 
 8.946010e-02  -1.502056e-01  0 
 7.005827e-02  -1.151990e-01  0 
 7.388478e-02  -1.152433e-01  0 
 7.772602e-02  -1.152920e-01  0 
 8.156942e-02  -1.153319e-01  0 
 8.539177e-02  -1.153744e-01  0 
 5.421267e-02  -1.187208e-01  0 
 5.426973e-02  -1.227661e-01  0 
 5.432267e-02  -1.267617e-01  0 
 5.436430e-02  -1.307002e-01  0 
 5.438926e-02  -1.346185e-01  0 
 5.440244e-02  -1.385314e-01  0 
 5.441456e-02  -1.424315e-01  0 
 5.442439e-02  -1.463199e-01  0 
 5.149080e-02  -1.486444e-01  0 
 8.923472e-02  -1.191921e-01  0 
 8.929666e-02  -1.230226e-01  0 
 8.934881e-02  -1.268768e-01  0 
 8.939123e-02  -1.307471e-01  0 
 8.942300e-02  -1.346297e-01  0 
 8.944389e-02  -1.385205e-01  0 
 8.945508e-02  -1.424156e-01  0 
 8.945925e-02  -1.463112e-01  0 
 5.831313e-02  -1.502116e-01  0 
 6.220516e-02  -1.502188e-01  0 
 6.610056e-02  -1.502193e-01  0 
 6.999597e-02  -1.502158e-01  0 
 7.389007e-02  -1.502107e-01  0 
 7.778266e-02  -1.502064e-01  0 
 8.167444e-02  -1.502044e-01  0 
 8.556661e-02  -1.502048e-01  0 
 5.010595e-02  -1.338339e-01  0 
 5.051869e-02  -1.383836e-01  0 
 5.079003e-02  -1.421550e-01  0 
 5.101622e-02  -1.458315e-01  0 
 5.827794e-02  -1.187276e-01  0 
 6.226090e-02  -1.187708e-01  0 
 6.620590e-02  -1.188898e-01  0 
 7.005677e-02  -1.190171e-01  0 
 7.390611e-02  -1.190773e-01  0 
 7.775187e-02  -1.191224e-01  0 
 8.159369e-02  -1.191553e-01  0 
 8.542265e-02  -1.191758e-01  0 
 5.827124e-02  -1.227819e-01  0 
 6.225525e-02  -1.228019e-01  0 
 6.619161e-02  -1.228371e-01  0 
 7.007123e-02  -1.228833e-01  0 
 7.392236e-02  -1.229332e-01  0 
 7.777154e-02  -1.229686e-01  0 
 8.161611e-02  -1.229922e-01  0 
 8.545605e-02  -1.230076e-01  0 
 5.828213e-02  -1.267685e-01  0 
 6.223569e-02  -1.267728e-01  0 
 6.616379e-02  -1.267778e-01  0 
 7.005883e-02  -1.267906e-01  0 
 7.392790e-02  -1.268114e-01  0 
 7.778409e-02  -1.268334e-01  0 
 8.163675e-02  -1.268501e-01  0 
 8.549009e-02  -1.268634e-01  0 
 5.829131e-02  -1.307099e-01  0 
 6.222161e-02  -1.307098e-01  0 
 6.613983e-02  -1.307058e-01  0 
 7.003960e-02  -1.307038e-01  0 
 7.392106e-02  -1.307076e-01  0 
 7.778972e-02  -1.307160e-01  0 
 8.165343e-02  -1.307262e-01  0 
 8.551899e-02  -1.307364e-01  0 
 5.830049e-02  -1.346270e-01  0 
 6.221382e-02  -1.346271e-01  0 
 6.612274e-02  -1.346212e-01  0 
 7.002225e-02  -1.346144e-01  0 
 7.391065e-02  -1.346105e-01  0 
 7.778983e-02  -1.346111e-01  0 
 8.166455e-02  -1.346154e-01  0 
 8.554053e-02  -1.346221e-01  0 
 5.830666e-02  -1.385338e-01  0 
 6.220976e-02  -1.385325e-01  0 
 6.611170e-02  -1.385272e-01  0 
 7.000962e-02  -1.385202e-01  0 
 7.390152e-02  -1.385144e-01  0 
 7.778768e-02  -1.385116e-01  0 
 8.167069e-02  -1.385124e-01  0 
 8.555459e-02  -1.385159e-01  0 
 5.830938e-02  -1.424330e-01  0 
 6.220692e-02  -1.424311e-01  0 
 6.610513e-02  -1.424271e-01  0 
 7.000184e-02  -1.424217e-01  0 
 7.389531e-02  -1.424164e-01  0 
 7.778538e-02  -1.424128e-01  0 
 8.167352e-02  -1.424118e-01  0 
 8.556237e-02  -1.424133e-01  0 
 5.831103e-02  -1.463243e-01  0 
 6.220509e-02  -1.463254e-01  0 
 6.610180e-02  -1.463238e-01  0 
 6.999787e-02  -1.463200e-01  0 
 7.389190e-02  -1.463154e-01  0 
 7.778376e-02  -1.463117e-01  0 
 8.167443e-02  -1.463101e-01  0 
 8.556571e-02  -1.463103e-01  0 
VECTORS displacement_ITER7 FLOAT
 8.914759e-02  -1.145582e-01  0 
 5.434711e-02  -1.494139e-01  0 
 8.942310e-02  -1.494436e-01  0 
 6.995438e-02  -1.143298e-01  0 
 7.380498e-02  -1.143867e-01  0 
 7.766805e-02  -1.144401e-01  0 
 8.152080e-02  -1.144821e-01  0 
 8.535499e-02  -1.145210e-01  0 
 5.407070e-02  -1.178826e-01  0 
 5.415384e-02  -1.219598e-01  0 
 5.421643e-02  -1.259638e-01  0 
 5.425941e-02  -1.299070e-01  0 
 5.428903e-02  -1.338353e-01  0 
 5.430916e-02  -1.377466e-01  0 
 5.432465e-02  -1.416482e-01  0 
 5.433701e-02  -1.455387e-01  0 
 5.170311e-02  -1.477927e-01  0 
 8.921202e-02  -1.183533e-01  0 
 8.927078e-02  -1.221966e-01  0 
 8.932008e-02  -1.260621e-01  0 
 8.935970e-02  -1.299429e-01  0 
 8.938906e-02  -1.338348e-01  0 
 8.940824e-02  -1.377343e-01  0 
 8.941849e-02  -1.416374e-01  0 
 8.942230e-02  -1.455411e-01  0 
 5.822537e-02  -1.494320e-01  0 
 6.211878e-02  -1.494435e-01  0 
 6.601795e-02  -1.494483e-01  0 
 6.991913e-02  -1.494483e-01  0 
 7.382038e-02  -1.494458e-01  0 
 7.772091e-02  -1.494431e-01  0 
 8.162095e-02  -1.494421e-01  0 
 8.552141e-02  -1.494428e-01  0 
 5.082944e-02  -1.335368e-01  0 
 5.083147e-02  -1.375127e-01  0 
 5.093387e-02  -1.413118e-01  0 
 5.115077e-02  -1.450178e-01  0 
 5.818994e-02  -1.178961e-01  0 
 6.218906e-02  -1.179663e-01  0 
 6.610900e-02  -1.180772e-01  0 
 6.996620e-02  -1.181810e-01  0 
 7.383183e-02  -1.182408e-01  0 
 7.769157e-02  -1.182854e-01  0 
 8.154503e-02  -1.183170e-01  0 
 8.538576e-02  -1.183375e-01  0 
 5.817684e-02  -1.219766e-01  0 
 6.217005e-02  -1.219881e-01  0 
 6.610155e-02  -1.220198e-01  0 
 6.998494e-02  -1.220657e-01  0 
 7.384898e-02  -1.221121e-01  0 
 7.771029e-02  -1.221451e-01  0 
 8.156654e-02  -1.221674e-01  0 
 8.541825e-02  -1.221821e-01  0 
 5.818366e-02  -1.259687e-01  0 
 6.214429e-02  -1.259678e-01  0 
 6.607723e-02  -1.259689e-01  0 
 6.997755e-02  -1.259812e-01  0 
 7.385519e-02  -1.260015e-01  0 
 7.772224e-02  -1.260218e-01  0 
 8.158601e-02  -1.260372e-01  0 
 8.545042e-02  -1.260496e-01  0 
 5.819393e-02  -1.299162e-01  0 
 6.212967e-02  -1.299132e-01  0 
 6.605400e-02  -1.299063e-01  0 
 6.996050e-02  -1.299030e-01  0 
 7.384973e-02  -1.299063e-01  0 
 7.772767e-02  -1.299141e-01  0 
 8.160156e-02  -1.299235e-01  0 
 8.547741e-02  -1.299329e-01  0 
 5.820479e-02  -1.338397e-01  0 
 6.212276e-02  -1.338373e-01  0 
 6.603746e-02  -1.338295e-01  0 
 6.994383e-02  -1.338216e-01  0 
 7.384000e-02  -1.338172e-01  0 
 7.772782e-02  -1.338175e-01  0 
 8.161185e-02  -1.338216e-01  0 
 8.549737e-02  -1.338278e-01  0 
 5.821302e-02  -1.377503e-01  0 
 6.211978e-02  -1.377481e-01  0 
 6.602694e-02  -1.377419e-01  0 
 6.993146e-02  -1.377344e-01  0 
 7.383103e-02  -1.377285e-01  0 
 7.772560e-02  -1.377257e-01  0 
 8.161747e-02  -1.377265e-01  0 
 8.551032e-02  -1.377299e-01  0 
 5.821889e-02  -1.416514e-01  0 
 6.211817e-02  -1.416505e-01  0 
 6.602088e-02  -1.416470e-01  0 
 6.992389e-02  -1.416422e-01  0 
 7.382491e-02  -1.416374e-01  0 
 7.772325e-02  -1.416343e-01  0 
 8.162000e-02  -1.416337e-01  0 
 8.551746e-02  -1.416352e-01  0 
 5.822225e-02  -1.455443e-01  0 
 6.211755e-02  -1.455476e-01  0 
 6.601820e-02  -1.455482e-01  0 
 6.992031e-02  -1.455463e-01  0 
 7.382173e-02  -1.455432e-01  0 
 7.772172e-02  -1.455407e-01  0 
 8.162083e-02  -1.455397e-01  0 
 8.552053e-02  -1.455402e-01  0 
VECTORS displacement_ITER8 FLOAT
 8.834597e-02  -1.144333e-01  0 
 5.349284e-02  -1.493379e-01  0 
 8.860412e-02  -1.493919e-01  0 
 6.905371e-02  -1.141631e-01  0 
 7.296562e-02  -1.142540e-01  0 
 7.683842e-02  -1.143184e-01  0 
 8.069658e-02  -1.143625e-01  0 
 8.453927e-02  -1.143990e-01  0 
 5.316630e-02  -1.177632e-01  0 
 5.326643e-02  -1.218727e-01  0 
 5.333681e-02  -1.258730e-01  0 
 5.338480e-02  -1.298366e-01  0 
 5.342336e-02  -1.337612e-01  0 
 5.344696e-02  -1.376726e-01  0 
 5.346517e-02  -1.415752e-01  0 
 5.348026e-02  -1.454661e-01  0 
 5.113743e-02  -1.474279e-01  0 
 8.840660e-02  -1.182417e-01  0 
 8.846272e-02  -1.220943e-01  0 
 8.850965e-02  -1.259685e-01  0 
 8.854664e-02  -1.298576e-01  0 
 8.857350e-02  -1.337571e-01  0 
 8.859080e-02  -1.376634e-01  0 
 8.859997e-02  -1.415730e-01  0 
 8.860338e-02  -1.454830e-01  0 
 5.736790e-02  -1.493609e-01  0 
 6.126185e-02  -1.493774e-01  0 
 6.516359e-02  -1.493866e-01  0 
 6.906895e-02  -1.493903e-01  0 
 7.297561e-02  -1.493907e-01  0 
 7.688232e-02  -1.493900e-01  0 
 8.078889e-02  -1.493899e-01  0 
 8.469594e-02  -1.493911e-01  0 
 5.024213e-02  -1.334191e-01  0 
 5.017197e-02  -1.373025e-01  0 
 5.023749e-02  -1.411067e-01  0 
 5.047442e-02  -1.448078e-01  0 
 5.731425e-02  -1.177928e-01  0 
 6.131870e-02  -1.178754e-01  0 
 6.525285e-02  -1.179927e-01  0 
 6.910801e-02  -1.180801e-01  0 
 7.298851e-02  -1.181323e-01  0 
 7.686059e-02  -1.181736e-01  0 
 8.072093e-02  -1.182053e-01  0 
 8.456988e-02  -1.182262e-01  0 
 5.730229e-02  -1.218863e-01  0 
 6.130590e-02  -1.219001e-01  0 
 6.524080e-02  -1.219305e-01  0 
 6.912930e-02  -1.219737e-01  0 
 7.300328e-02  -1.220166e-01  0 
 7.687557e-02  -1.220458e-01  0 
 8.074117e-02  -1.220659e-01  0 
 8.460142e-02  -1.220803e-01  0 
 5.731254e-02  -1.258866e-01  0 
 6.127999e-02  -1.258847e-01  0 
 6.521781e-02  -1.258841e-01  0 
 6.912378e-02  -1.258953e-01  0 
 7.300909e-02  -1.259140e-01  0 
 7.688525e-02  -1.259321e-01  0 
 8.075833e-02  -1.259455e-01  0 
 8.463152e-02  -1.259567e-01  0 
 5.732639e-02  -1.298399e-01  0 
 6.126617e-02  -1.298353e-01  0 
 6.519551e-02  -1.298270e-01  0 
 6.910774e-02  -1.298227e-01  0 
 7.300377e-02  -1.298252e-01  0 
 7.688959e-02  -1.298319e-01  0 