# vtk DataFile Version 3.1
this is an vtk file created by FEMAC
ASCII
DATASET UNSTRUCTURED_GRID
POINTS 12 FLOAT
5.500000 0.000000 0.000000
6.000000 0.000000 0.000000
5.500000 0.200000 0.000000
5.500000 0.400000 0.000000
5.500000 0.600000 0.000000
5.500000 0.800000 0.000000
5.500000 1.000000 0.000000
6.000000 0.200000 0.000000
6.000000 0.400000 0.000000
6.000000 0.600000 0.000000
6.000000 0.800000 0.000000
6.000000 1.000000 0.000000
CELLS 5 25 
4 0 1 7 2
4 2 7 8 3
4 3 8 9 4
4 4  9 10  5
4 5 10 11  6
CELL_TYPES 5
9 9 9 9 9 
POINT_DATA 12
VECTORS displacement_ITER1 FLOAT
 -5.680595e-03  -4.007698e-02  0 
 -5.868569e-03  -4.584415e-02  0 
 -3.456945e-03  -4.004271e-02  0 
 -1.136740e-03  -4.003083e-02  0 
 1.207094e-03  -4.003083e-02  0 
 3.527299e-03  -4.004271e-02  0 
 5.750949e-03  -4.007698e-02  0 
 -3.503110e-03  -4.588206e-02  0 
 -1.156853e-03  -4.588627e-02  0 
 1.227207e-03  -4.588627e-02  0 
 3.573464e-03  -4.588206e-02  0 
 5.938923e-03  -4.584415e-02  0 
VECTORS displacement_ITER2 FLOAT
 -5.403873e-03  -3.857092e-02  0 
 -5.553479e-03  -4.409884e-02  0 
 -3.251209e-03  -3.858004e-02  0 
 -1.070056e-03  -3.857385e-02  0 
 1.097938e-03  -3.857385e-02  0 
 3.279091e-03  -3.858004e-02  0 
 5.431755e-03  -3.857092e-02  0 
 -3.303743e-03  -4.408286e-02  0 
 -1.093704e-03  -4.408035e-02  0 
 1.121587e-03  -4.408035e-02  0 
 3.331625e-03  -4.408286e-02  0 
 5.581361e-03  -4.409884e-02  0 
VECTORS displacement_ITER3 FLOAT
 -5.332590e-03  -3.829399e-02  0 
 -5.474856e-03  -4.375372e-02  0 
 -3.200378e-03  -3.830012e-02  0 
 -1.046057e-03  -3.829412e-02  0 
 1.093737e-03  -3.829412e-02  0 
 3.248058e-03  -3.830012e-02  0 
 5.380270e-03  -3.829399e-02  0 
 -3.254345e-03  -4.373773e-02  0 
 -1.070270e-03  -4.373448e-02  0 
 1.117950e-03  -4.373448e-02  0 
 3.302025e-03  -4.373773e-02  0 
 5.522537e-03  -4.375372e-02  0 
VECTORS displacement_ITER4 FLOAT
 -5.311189e-03  -3.819054e-02  0 
 -5.452522e-03  -4.360842e-02  0 
 -3.192658e-03  -3.818513e-02  0 
 -1.046252e-03  -3.817813e-02  0 
 1.091560e-03  -3.817813e-02  0 
 3.237967e-03  -3.818513e-02  0 
 5.356498e-03  -3.819054e-02  0 
 -3.247009e-03  -4.360291e-02  0 
 -1.070384e-03  -4.360022e-02  0 
 1.115692e-03  -4.360022e-02  0 
 3.292317e-03  -4.360291e-02  0 
 5.497830e-03  -4.360842e-02  0 
VECTORS displacement_ITER5 FLOAT
 -5.310896e-03  -3.818016e-02  0 
 -5.452633e-03  -4.359394e-02  0 
 -3.193759e-03  -3.817299e-02  0 
 -1.047637e-03  -3.816574e-02  0 
 1.091013e-03  -3.816574e-02  0 
 3.237135e-03  -3.817299e-02  0 
 5.354272e-03  -3.818016e-02  0 
 -3.248108e-03  -4.359001e-02  0 
 -1.071685e-03  -4.358748e-02  0 
 1.115060e-03  -4.358748e-02  0 
 3.291484e-03  -4.359001e-02  0 
 5.496009e-03  -4.359394e-02  0 
VECTORS displacement_ITER6 FLOAT
 -5.310850e-03  -3.817478e-02  0 
 -5.453131e-03  -4.358885e-02  0 
 -3.193678e-03  -3.816751e-02  0 
 -1.047486e-03  -3.816013e-02  0 
 1.091468e-03  -3.816013e-02  0 
 3.237661e-03  -3.816751e-02  0 
 5.354844e-03  -3.817477e-02  0 
 -3.248000e-03  -4.358476e-02  0 
 -1.071427e-03  -4.358231e-02  0 
 1.115408e-03  -4.358231e-02  0 
 3.291984e-03  -4.358476e-02  0 
 5.497116e-03  -4.358886e-02  0 
VECTORS displacement_ITER7 FLOAT
 -5.310666e-03  -3.817271e-02  0 
 -5.453141e-03  -4.358760e-02  0 
 -3.193339e-03  -3.816583e-02  0 
 -1.047179e-03  -3.815845e-02  0 
 1.091604e-03  -3.815847e-02  0 
 3.237748e-03  -3.816586e-02  0 
 5.355003e-03  -3.817276e-02  0 
 -3.247640e-03  -4.358304e-02  0 
 -1.071060e-03  -4.358059e-02  0 
 1.115486e-03  -4.358057e-02  0 
 3.292046e-03  -4.358302e-02  0 
 5.497530e-03  -4.358756e-02  0 
VECTORS displacement_ITER8 FLOAT
 -5.310455e-03  -3.817204e-02  0 
 -5.453167e-03  -4.358708e-02  0 
 -3.193363e-03  -3.816534e-02  0 
 -1.047278e-03  -3.815798e-02  0 
 1.091392e-03  -3.815789e-02  0 
 3.237544e-03  -3.816523e-02  0 
 5.354894e-03  -3.817184e-02  0 
 -3.247629e-03  -4.358236e-02  0 
 -1.071111e-03  -4.357992e-02  0 
 1.115222e-03  -4.357999e-02  0 
 3.291819e-03  -4.358245e-02  0 
 5.497439e-03  -4.358722e-02  0 
VECTORS displacement_ITER9 FLOAT
 -5.310904e-03  -3.817156e-02  0 
 -5.453505e-03  -4.358726e-02  0 
 -3.193544e-03  -3.816502e-02  0 
 -1.047306e-03  -3.815772e-02  0 
 1.091457e-03  -3.815791e-02  0 
 3.237544e-03  -3.816526e-02  0 
 5.354421e-03  -3.817198e-02  0 
 -3.247795e-03  -4.358248e-02  0 
 -1.071089e-03  -4.358003e-02  0 
 1.115242e-03  -4.357986e-02  0 
 3.291782e-03  -4.358229e-02  0 
 5.497278e-03  -4.358692e-02  0 
VECTORS displacement_ITER10 FLOAT
 -5.310547e-03  -3.817221e-02  0 
 -5.453445e-03  -4.358706e-02  0 
 -3.193755e-03  -3.816541e-02  0 
 -1.047621e-03  -3.815806e-02  0 
 1.091327e-03  -3.815778e-02  0 
 3.237689e-03  -3.816507e-02  0 
 5.355082e-03  -3.817160e-02  0 
 -3.247978e-03  -4.358257e-02  0 
 -1.071366e-03  -4.358016e-02  0 
 1.115071e-03  -4.358042e-02  0 
 3.291923e-03  -4.358287e-02  0 
 5.497772e-03  -4.358759e-02  0 
VECTORS displacement_ITER11 FLOAT
 -5.311208e-03  -3.817179e-02  0 
 -5.454008e-03  -4.358790e-02  0 
 -3.193830e-03  -3.816524e-02  0 
 -1.047415e-03  -3.815794e-02  0 
 1.091659e-03  -3.815820e-02  0 
 3.237858e-03  -3.816553e-02  0 
 5.354782e-03  -3.817233e-02  0 
 -3.248057e-03  -4.358319e-02  0 
 -1.071134e-03  -4.358074e-02  0 
 1.115378e-03  -4.358049e-02  0 
 3.292084e-03  -4.358290e-02  0 
 5.497604e-03  -4.358737e-02  0 
VECTORS displacement_ITER12 FLOAT
 -5.311094e-03  -3.817227e-02  0 
 -5.453826e-03  -4.358777e-02  0 
 -3.193912e-03  -3.816557e-02  0 
 -1.047620e-03  -3.815824e-02  0 
 1.091529e-03  -3.815815e-02  0 
 3.237912e-03  -3.816547e-02  0 
 5.355193e-03  -3.817207e-02  0 
 -3.248146e-03  -4.358322e-02  0 
 -1.071317e-03  -4.358080e-02  0 
 1.115228e-03  -4.358091e-02  0 
 3.292139e-03  -4.358335e-02  0 
 5.498072e-03  -4.358802e-02  0 
VECTORS displacement_ITER13 FLOAT
 -5.311141e-03  -3.817220e-02  0 
 -5.453971e-03  -4.358794e-02  0 
 -3.193909e-03  -3.816554e-02  0 
 -1.047576e-03  -3.815822e-02  0 
 1.091580e-03  -3.815821e-02  0 
 3.237912e-03  -3.816553e-02  0 
 5.355177e-03  -3.817218e-02  0 
 -3.248140e-03  -4.358331e-02  0 
 -1.071266e-03  -4.358088e-02  0 
 1.115270e-03  -4.358088e-02  0 
 3.292147e-03  -4.358331e-02  0 
 5.497943e-03  -4.358793e-02  0 
VECTORS displacement_ITER14 FLOAT
 -5.311156e-03  -3.817213e-02  0 
 -5.453949e-03  -4.358793e-02  0 
 -3.193879e-03  -3.816550e-02  0 
 -1.047549e-03  -3.815818e-02  0 
 1.091596e-03  -3.815822e-02  0 
 3.237885e-03  -3.816555e-02  0 
 5.355088e-03  -3.817224e-02  0 
 -3.248115e-03  -4.358328e-02  0 
 -1.071230e-03  -4.358085e-02  0 
 1.115276e-03  -4.358080e-02  0 
 3.292121e-03  -4.358323e-02  0 
 5.497873e-03  -4.358782e-02  0 
VECTORS displacement_ITER15 FLOAT
 -5.311085e-03  -3.817219e-02  0 
 -5.453866e-03  -4.358782e-02  0 
 -3.193867e-03  -3.816551e-02  0 
 -1.047577e-03  -3.815819e-02  0 
 1.091560e-03  -3.815818e-02  0 
 3.237861e-03  -3.816550e-02  0 
 5.355099e-03  -3.817216e-02  0 
 -3.248104e-03  -4.358321e-02  0 
 -1.071254e-03  -4.358078e-02  0 
 1.115236e-03  -4.358079e-02  0 
 3.292098e-03  -4.358322e-02  0 
 5.497889e-03  -4.358785e-02  0 
VECTORS displacement_ITER16 FLOAT
 -5.311074e-03  -3.817216e-02  0 
 -5.453856e-03  -4.358780e-02  0 
 -3.193853e-03  -3.816550e-02  0 
 -1.047567e-03  -3.815818e-02  0 
 1.091566e-03  -3.815818e-02  0 
 3.237851e-03  -3.816550e-02  0 
 5.355070e-03  -3.817216e-02  0 
 -3.248090e-03  -4.358318e-02  0 
 -1.071240e-03  -4.358075e-02  0 
 1.115239e-03  -4.358075e-02  0 
 3.292088e-03  -4.358318e-02  0 
 5.497852e-03  -4.358780e-02  0 
VECTORS displacement_ITER17 FLOAT
 -5.311071e-03  -3.817216e-02  0 
 -5.453851e-03  -4.358780e-02  0 
 -3.193850e-03  -3.816550e-02  0 
 -1.047567e-03  -3.815818e-02  0 
 1.091566e-03  -3.815818e-02  0 
 3.237850e-03  -3.816550e-02  0 
 5.355069e-03  -3.817216e-02  0 
 -3.248088e-03  -4.358318e-02  0 
 -1.071239e-03  -4.358075e-02  0 
 1.115239e-03  -4.358075e-02  0 
 3.292087e-03  -4.358318e-02  0 
 5.497850e-03  -4.358780e-02  0 
VECTORS displacement_ITER18 FLOAT
 -5.311073e-03  -3.817216e-02  0 
 -5.453856e-03  -4.358780e-02  0 
 -3.193853e-03  -3.816549e-02  0 
 -1.047568e-03  -3.815818e-02  0 
 1.091567e-03  -3.815818e-02  0 
 3.237851e-03  -3.816549e-02  0 
 5.355074e-03  -3.817216e-02  0 
 -3.248090e-03  -4.358318e-02  0 
 -1.071240e-03  -4.358075e-02  0 
 1.115239e-03  -4.358075e-02  0 
 3.292089e-03  -4.358318e-02  0 
 5.497854e-03  -4.358780e-02  0 
VECTORS displacement_ITER19 FLOAT
 -5.311076e-03  -3.817216e-02  0 
 -5.453858e-03  -4.358780e-02  0 
 -3.193854e-03  -3.816550e-02  0 
 -1.047568e-03  -3.815818e-02  0 
 1.091568e-03  -3.815818e-02  0 
 3.237853e-03  -3.816550e-02  0 
 5.355074e-03  -3.817216e-02  0 
 -3.248091e-03  -4.358318e-02  0 
 -1.071240e-03  -4.358075e-02  0 
 1.115240e-03  -4.358075e-02  0 
 3.292090e-03  -4.358318e-02  0 
 5.497857e-03  -4.358780e-02  0 
VECTORS displacement_ITER20 FLOAT
 -5.311076e-03  -3.817216e-02  0 
 -5.453859e-03  -4.358780e-02  0 
 -3.193855e-03  -3.816550e-02  0 
 -1.047569e-03  -3.815818e-02  0 
 1.091568e-03  -3.815818e-02  0 
 3.237854e-03  -3.816550e-02  0 
 5.355075e-03  -3.817216e-02  0 
 -3.248092e-03  -4.358318e-02  0 
 -1.071241e-03  -4.358075e-02  0 
 1.115239e-03  -4.358075e-02  0 
 3.292091e-03  -4.358318e-02  0 
 5.497858e-03  -4.358780e-02  0 
VECTORS displacement_ITER21 FLOAT
 -5.311076e-03  -3.817216e-02  0 
 -5.453859e-03  -4.358780e-02  0 
 -3.193854e-03  -3.816550e-02  0 
 -1.047569e-03  -3.815818e-02  0 
 1.091568e-03  -3.815818e-02  0 
 3.237853e-03  -3.816550e-02  0 
 5.355075e-03  -3.817216e-02  0 
 -3.248091e-03  -4.358318e-02  0 
 -1.071240e-03  -4.358075e-02  0 
 1.115239e-03  -4.358075e-02  0 
 3.292090e-03  -4.358318e-02  0 
 5.497857e-03  -4.358780e-02  0 
VECTORS displacement_ITER22 FLOAT
 -5.311076e-03  -3.817216e-02  0 
 -5.453858e-03  -4.358780e-02  0 
 -3.193854e-03  -3.816550e-02  0 
 -1.047569e-03  -3.815818e-02  0 
 1.091568e-03  -3.815818e-02  0 
 3.237853e-03  -3.816550e-02  0 
 5.355075e-03  -3.817216e-02  0 
 -3.248091e-03  -4.358318e-02  0 
 -1.071240e-03  -4.358075e-02  0 
 1.115239e-03  -4.358075e-02  0 
 3.292090e-03  -4.358318e-02  0 
 5.497857e-03  -4.358780e-02  0 
VECTORS displacement_ITER23 FLOAT
 -5.311076e-03  -3.817216e-02  0 
 -5.453858e-03  -4.358780e-02  0 
 -3.193854e-03  -3.816550e-02  0 
 -1.047569e-03  -3.815818e-02  0 
 1.091568e-03  -3.815818e-02  0 
 3.237853e-03  -3.816550e-02  0 
 5.355075e-03  -3.817216e-02  0 
 -3.248091e-03  -4.358318e-02  0 
 -1.071240e-03  -4.358075e-02  0 
 1.115239e-03  -4.358075e-02  0 
 3.292090e-03  -4.358318e-02  0 
 5.497857e-03  -4.358780e-02  0 
VECTORS displacement_ITER24 FLOAT
 -5.311076e-03  -3.817216e-02  0 
 -5.453858e-03  -4.358780e-02  0 
 -3.193854e-03  -3.816550e-02  0 
 -1.047569e-03  -3.815818e-02  0 
 1.091568e-03  -3.815818e-02  0 
 3.237853e-03  -3.816550e-02  0 
 5.355075e-03  -3.817216e-02  0 
 -3.248091e-03  -4.358318e-02  0 
 -1.071240e-03  -4.358075e-02  0 
 1.115239e-03  -4.358075e-02  0 
 3.292090e-03  -4.358318e-02  0 
 5.497857e-03  -4.358780e-02  0 
VECTORS displacement_ITER25 FLOAT
 -5.311076e-03  -3.817216e-02  0 
 -5.453858e-03  -4.358780e-02  0 
 -3.193854e-03  -3.816550e-02  0 
 -1.047569e-03  -3.815818e-02  0 
 1.091568e-03  -3.815818e-02  0 
 3.237853e-03  -3.816550e-02  0 
 5.355075e-03  -3.817216e-02  0 
 -3.248091e-03  -4.358318e-02  0 
 -1.071240e-03  -4.358075e-02  0 
 1.115239e-03  -4.358075e-02  0 
 3.292090e-03  -4.358318e-02  0 
 5.497857e-03  -4.358780e-02  0 
VECTORS displacement_ITER26 FLOAT
 -5.311076e-03  -3.817216e-02  0 
 -5.453858e-03  -4.358780e-02  0 
 -3.193854e-03  -3.816550e-02  0 
 -1.047569e-03  -3.815818e-02  0 
 1.091568e-03  -3.815818e-02  0 
 3.237853e-03  -3.816550e-02  0 
 5.355075e-03  -3.817216e-02  0 
 -3.248091e-03  -4.358318e-02  0 
 -1.071240e-03  -4.358075e-02  0 
 1.115239e-03  -4.358075e-02  0 
 3.292090e-03  -4.358318e-02  0 
 5.497857e-03  -4.358780e-02  0 
CELL_DATA 5
TENSORS element_stresses FLOAT
 -2.072046e-02  -1.989102e-03  0 
 -1.989102e-03  -3.395047e-03  0 
 0  0  0 

 -7.757865e-02  -2.493924e-02  0 
 -2.493924e-02  1.099700e-03  0 
 0  0  0 

 -4.722223e-10  -2.393238e-03  0 
 -2.393238e-03  9.955997e-09  0 
 0  0  0 

 7.757864e-02  -2.493930e-02  0 
 -2.493930e-02  -1.099681e-03  0 
 0  0  0 

 2.072048e-02  -1.989123e-03  0 
 -1.989123e-03  3.395051e-03  0 
 0  0  0 

TENSORS element_stresses FLOAT
 -2.072046e-02  -1.989102e-03  0 
 -1.989102e-03  -3.395047e-03  0 
 0  0  0 

 -7.757865e-02  -2.493924e-02  0 
 -2.493924e-02  1.099700e-03  0 
 0  0  0 

 -4.722223e-10  -2.393238e-03  0 
 -2.393238e-03  9.955997e-09  0 
 0  0  0 

 7.757864e-02  -2.493930e-02  0 
 -2.493930e-02  -1.099681e-03  0 
 0  0  0 

 2.072048e-02  -1.989123e-03  0 
 -1.989123e-03  3.395051e-03  0 
 0  0  0 

