# vtk DataFile Version 3.1
this is an vtk file created by FEMAC
ASCII
DATASET UNSTRUCTURED_GRID
POINTS 12 FLOAT
0.500000 0.000000 0.000000
1.000000 0.000000 0.000000
0.500000 0.200000 0.000000
0.500000 0.400000 0.000000
0.500000 0.600000 0.000000
0.500000 0.800000 0.000000
0.500000 1.000000 0.000000
1.000000 0.200000 0.000000
1.000000 0.400000 0.000000
1.000000 0.600000 0.000000
1.000000 0.800000 0.000000
1.000000 1.000000 0.000000
CELLS 5 25 
4 0 1 7 2
4 2 7 8 3
4 3 8 9 4
4 4  9 10  5
4 5 10 11  6
CELL_TYPES 5
9 9 9 9 9 
POINT_DATA 12
VECTORS displacement_ITER1 FLOAT
 -5.411428e-04  -3.114859e-05  0 
 -1.897793e-03  -1.401645e-03  0 
 -3.563779e-04  -1.061868e-04  0 
 6.714373e-06  -1.023929e-04  0 
 1.168713e-04  -1.809209e-04  0 
 4.260279e-04  -2.070195e-04  0 
 3.878123e-04  -2.027135e-04  0 
 -8.871255e-04  -1.418188e-03  0 
 -2.670036e-04  -1.367322e-03  0 
 3.921911e-04  -1.313177e-03  0 
 9.512921e-04  -1.353582e-03  0 
 1.920335e-03  -1.301048e-03  0 
VECTORS displacement_ITER2 FLOAT
 -3.968740e-04  -2.705475e-04  0 
 -1.802854e-03  -1.276597e-03  0 
 -3.939418e-04  -1.979172e-04  0 
 -1.015856e-04  -1.807074e-04  0 
 2.563235e-05  -8.632765e-05  0 
 4.042893e-04  -1.072858e-04  0 
 5.116042e-04  -6.833852e-05  0 
 -9.345328e-04  -1.335319e-03  0 
 -3.774900e-04  -1.283484e-03  0 
 3.044527e-04  -1.387069e-03  0 
 9.417831e-04  -1.444992e-03  0 
 1.995151e-03  -1.491049e-03  0 
VECTORS displacement_ITER3 FLOAT
 -4.921243e-04  -1.201498e-04  0 
 -1.935476e-03  -1.478785e-03  0 
 -3.887574e-04  -1.044843e-04  0 
 -2.697188e-05  -9.383523e-05  0 
 1.216093e-04  -1.488493e-04  0 
 4.400118e-04  -1.831506e-04  0 
 3.884165e-04  -2.392023e-04  0 
 -9.305143e-04  -1.421182e-03  0 
 -3.027446e-04  -1.358805e-03  0 
 4.004532e-04  -1.310023e-03  0 
 9.790640e-04  -1.358189e-03  0 
 1.894114e-03  -1.363267e-03  0 
VECTORS displacement_ITER4 FLOAT
 -4.585105e-04  -1.749013e-04  0 
 -1.902145e-03  -1.472031e-03  0 
 -4.047111e-04  -1.306684e-04  0 
 -5.535758e-05  -1.148122e-04  0 
 1.123073e-04  -1.353089e-04  0 
 4.516623e-04  -1.700620e-04  0 
 3.976990e-04  -2.226959e-04  0 
 -9.479075e-04  -1.409962e-03  0 
 -3.310268e-04  -1.352349e-03  0 
 3.915428e-04  -1.343730e-03  0 
 9.901969e-04  -1.393253e-03  0 
 1.941834e-03  -1.444904e-03  0 
VECTORS displacement_ITER5 FLOAT
 -4.471117e-04  -1.931745e-04  0 
 -1.895499e-03  -1.463090e-03  0 
 -4.099493e-04  -1.391130e-04  0 
 -6.345595e-05  -1.224790e-04  0 
 1.076412e-04  -1.320499e-04  0 
 4.525006e-04  -1.668015e-04  0 
 4.041470e-04  -2.160960e-04  0 
 -9.529431e-04  -1.409068e-03  0 
 -3.392939e-04  -1.352312e-03  0 
 3.870363e-04  -1.353511e-03  0 
 9.913296e-04  -1.402455e-03  0 
 1.942216e-03  -1.458082e-03  0 
VECTORS displacement_ITER6 FLOAT
 -4.466415e-04  -1.943964e-04  0 
 -1.890879e-03  -1.463887e-03  0 
 -4.117953e-04  -1.407862e-04  0 
 -6.342550e-05  -1.242074e-04  0 
 1.092083e-04  -1.350838e-04  0 
 4.549519e-04  -1.701270e-04  0 
 4.013949e-04  -2.205086e-04  0 
 -9.548817e-04  -1.413714e-03  0 
 -3.395328e-04  -1.357451e-03  0 
 3.889855e-04  -1.357651e-03  0 
 9.937614e-04  -1.405680e-03  0 
 1.935639e-03  -1.456805e-03  0 
VECTORS displacement_ITER7 FLOAT
 -4.478981e-04  -1.917389e-04  0 
 -1.889080e-03  -1.467748e-03  0 
 -4.115999e-04  -1.417516e-04  0 
 -6.235129e-05  -1.252721e-04  0 
 1.099219e-04  -1.376095e-04  0 
 4.556310e-04  -1.727325e-04  0 
 3.998669e-04  -2.216207e-04  0 
 -9.548127e-04  -1.416206e-03  0 
 -3.386532e-04  -1.360055e-03  0 
 3.899990e-04  -1.359293e-03  0 
 9.943733e-04  -1.407114e-03  0 
 1.933621e-03  -1.458264e-03  0 
VECTORS displacement_ITER8 FLOAT
 -4.477872e-04  -1.910413e-04  0 
 -1.888950e-03  -1.470263e-03  0 
 -4.115018e-04  -1.430944e-04  0 
 -6.224785e-05  -1.266188e-04  0 
 1.094472e-04  -1.386805e-04  0 
 4.554029e-04  -1.738098e-04  0 
 4.002758e-04  -2.203445e-04  0 
 -9.547326e-04  -1.417193e-03  0 
 -3.387210e-04  -1.360996e-03  0 
 3.897674e-04  -1.360483e-03  0 
 9.941390e-04  -1.408327e-03  0 
 1.933289e-03  -1.461212e-03  0 
VECTORS displacement_ITER9 FLOAT
 -4.474251e-04  -1.914039e-04  0 
 -1.889134e-03  -1.470578e-03  0 
 -4.116863e-04  -1.435331e-04  0 
 -6.239549e-05  -1.270244e-04  0 
 1.092207e-04  -1.388162e-04  0 
 4.554077e-04  -1.739918e-04  0 
 4.004883e-04  -2.200407e-04  0 
 -9.549031e-04  -1.417497e-03  0 
 -3.389976e-04  -1.361257e-03  0 
 3.897185e-04  -1.360927e-03  0 
 9.941319e-04  -1.408776e-03  0 
 1.933100e-03  -1.461908e-03  0 
VECTORS displacement_ITER10 FLOAT
 -4.473380e-04  -1.917321e-04  0 
 -1.889134e-03  -1.469944e-03  0 
 -4.118388e-04  -1.432942e-04  0 
 -6.243766e-05  -1.267553e-04  0 
 1.093250e-04  -1.386130e-04  0 
 4.556039e-04  -1.738547e-04  0 
 4.002823e-04  -2.205579e-04  0 
 -9.550651e-04  -1.417423e-03  0 
 -3.391345e-04  -1.361174e-03  0 
 3.899549e-04  -1.360817e-03  0 
 9.943113e-04  -1.408643e-03  0 
 1.932956e-03  -1.461177e-03  0 
VECTORS displacement_ITER11 FLOAT
 -4.473995e-04  -1.917462e-04  0 
 -1.889005e-03  -1.469628e-03  0 
 -4.118135e-04  -1.431170e-04  0 
 -6.240705e-05  -1.265676e-04  0 
 1.093659e-04  -1.384831e-04  0 
 4.556436e-04  -1.737602e-04  0 
 4.001934e-04  -2.207614e-04  0 
 -9.550717e-04  -1.417232e-03  0 
 -3.391673e-04  -1.360985e-03  0 
 3.900837e-04  -1.360628e-03  0 
 9.943590e-04  -1.408438e-03  0 
 1.932870e-03  -1.460840e-03  0 
VECTORS displacement_ITER12 FLOAT
 -4.474561e-04  -1.916636e-04  0 
 -1.888881e-03  -1.469620e-03  0 
 -4.117146e-04  -1.430979e-04  0 
 -6.237374e-05  -1.265484e-04  0 
 1.092957e-04  -1.384341e-04  0 
 4.555526e-04  -1.737239e-04  0 
 4.002747e-04  -2.206357e-04  0 
 -9.550099e-04  -1.417050e-03  0 
 -3.391832e-04  -1.360802e-03  0 
 3.900816e-04  -1.360496e-03  0 
 9.942929e-04  -1.408299e-03  0 
 1.932780e-03  -1.460951e-03  0 
VECTORS displacement_ITER13 FLOAT
 -4.474666e-04  -1.916422e-04  0 
 -1.888859e-03  -1.469658e-03  0 
 -4.116808e-04  -1.431112e-04  0 
 -6.236176e-05  -1.265648e-04  0 
 1.092564e-04  -1.384318e-04  0 
 4.555081e-04  -1.737199e-04  0 
 4.003240e-04  -2.205689e-04  0 
 -9.549874e-04  -1.417016e-03  0 
 -3.391808e-04  -1.360765e-03  0 
 3.900576e-04  -1.360474e-03  0 
 9.942577e-04  -1.408276e-03  0 
 1.932736e-03  -1.461024e-03  0 
VECTORS displacement_ITER14 FLOAT
 -4.474721e-04  -1.916496e-04  0 
 -1.888865e-03  -1.469664e-03  0 
 -4.116711e-04  -1.431008e-04  0 
 -6.234934e-05  -1.265594e-04  0 
 1.092398e-04  -1.384285e-04  0 
 4.554948e-04  -1.737118e-04  0 
 4.003374e-04  -2.205804e-04  0 
 -9.549825e-04  -1.417025e-03  0 
 -3.391659e-04  -1.360770e-03  0 
 3.900438e-04  -1.360471e-03  0 
 9.942458e-04  -1.408275e-03  0 
 1.932704e-03  -1.461010e-03  0 
VECTORS displacement_ITER15 FLOAT
 -4.474687e-04  -1.916624e-04  0 
 -1.888883e-03  -1.469654e-03  0 
 -4.116791e-04  -1.430930e-04  0 
 -6.234992e-05  -1.265532e-04  0 
 1.092441e-04  -1.384262e-04  0 
 4.555057e-04  -1.737077e-04  0 
 4.003272e-04  -2.206050e-04  0 
 -9.549874e-04  -1.417038e-03  0 
 -3.391612e-04  -1.360784e-03  0 
 3.900445e-04  -1.360483e-03  0 
 9.942517e-04  -1.408287e-03  0 
 1.932723e-03  -1.460994e-03  0 
VECTORS displacement_ITER16 FLOAT
 -4.474617e-04  -1.916665e-04  0 
 -1.888910e-03  -1.469661e-03  0 
 -4.116888e-04  -1.430984e-04  0 
 -6.235585e-05  -1.265589e-04  0 
 1.092494e-04  -1.384309e-04  0 
 4.555170e-04  -1.737113e-04  0 
 4.003192e-04  -2.206068e-04  0 
 -9.549911e-04  -1.417052e-03  0 
 -3.391614e-04  -1.360799e-03  0 
 3.900442e-04  -1.360502e-03  0 
 9.942563e-04  -1.408305e-03  0 
 1.932764e-03  -1.461013e-03  0 
VECTORS displacement_ITER17 FLOAT
 -4.474622e-04  -1.916585e-04  0 
 -1.888919e-03  -1.469673e-03  0 
 -4.116898e-04  -1.431028e-04  0 
 -6.235670e-05  -1.265632e-04  0 
 1.092521e-04  -1.384367e-04  0 
 4.555187e-04  -1.737167e-04  0 
 4.003173e-04  -2.206008e-04  0 
 -9.549904e-04  -1.417058e-03  0 
 -3.391597e-04  -1.360805e-03  0 
 3.900440e-04  -1.360506e-03  0 
 9.942560e-04  -1.408309e-03  0 
 1.932775e-03  -1.461022e-03  0 
VECTORS displacement_ITER18 FLOAT
 -4.474613e-04  -1.916582e-04  0 
 -1.888917e-03  -1.469669e-03  0 
 -4.116902e-04  -1.431038e-04  0 
 -6.235856e-05  -1.265637e-04  0 
 1.092535e-04  -1.384366e-04  0 
 4.555180e-04  -1.737168e-04  0 
 4.003183e-04  -2.205988e-04  0 
 -9.549911e-04  -1.417057e-03  0 
 -3.391601e-04  -1.360804e-03  0 
 3.900437e-04  -1.360504e-03  0 
 9.942561e-04  -1.408308e-03  0 
 1.932770e-03  -1.461016e-03  0 
VECTORS displacement_ITER19 FLOAT
 -4.474617e-04  -1.916579e-04  0 
 -1.888914e-03  -1.469668e-03  0 
 -4.116898e-04  -1.431033e-04  0 
 -6.235887e-05  -1.265633e-04  0 
 1.092540e-04  -1.384362e-04  0 
 4.555176e-04  -1.737162e-04  0 
 4.003185e-04  -2.205982e-04  0 
 -9.549910e-04  -1.417056e-03  0 
 -3.391596e-04  -1.360803e-03  0 
 3.900431e-04  -1.360503e-03  0 
 9.942560e-04  -1.408307e-03  0 
 1.932769e-03  -1.461014e-03  0 
VECTORS displacement_ITER20 FLOAT
 -4.474622e-04  -1.916575e-04  0 
 -1.888914e-03  -1.469668e-03  0 
 -4.116895e-04  -1.431029e-04  0 
 -6.235872e-05  -1.265630e-04  0 
 1.092542e-04  -1.384361e-04  0 
 4.555175e-04  -1.737159e-04  0 
 4.003184e-04  -2.205983e-04  0 
 -9.549907e-04  -1.417056e-03  0 
 -3.391589e-04  -1.360803e-03  0 
 3.900428e-04  -1.360503e-03  0 
 9.942559e-04  -1.408307e-03  0 
 1.932769e-03  -1.461014e-03  0 
VECTORS displacement_ITER21 FLOAT
 -4.474620e-04  -1.916579e-04  0 
 -1.888914e-03  -1.469668e-03  0 
 -4.116896e-04  -1.431028e-04  0 
 -6.235879e-05  -1.265629e-04  0 
 1.092543e-04  -1.384360e-04  0 
 4.555175e-04  -1.737158e-04  0 
 4.003184e-04  -2.205985e-04  0 
 -9.549908e-04  -1.417056e-03  0 
 -3.391588e-04  -1.360804e-03  0 
 3.900425e-04  -1.360503e-03  0 
 9.942560e-04  -1.408307e-03  0 
 1.932770e-03  -1.461014e-03  0 
VECTORS displacement_ITER22 FLOAT
 -4.474620e-04  -1.916580e-04  0 
 -1.888914e-03  -1.469668e-03  0 
 -4.116897e-04  -1.431028e-04  0 
 -6.235881e-05  -1.265628e-04  0 
 1.092543e-04  -1.384359e-04  0 
 4.555175e-04  -1.737157e-04  0 
 4.003184e-04  -2.205986e-04  0 
 -9.549909e-04  -1.417056e-03  0 
 -3.391588e-04  -1.360804e-03  0 
 3.900425e-04  -1.360503e-03  0 
 9.942560e-04  -1.408307e-03  0 
 1.932770e-03  -1.461014e-03  0 
VECTORS displacement_ITER23 FLOAT
 -4.474620e-04  -1.916579e-04  0 
 -1.888914e-03  -1.469668e-03  0 
 -4.116897e-04  -1.431028e-04  0 
 -6.235880e-05  -1.265628e-04  0 
 1.092543e-04  -1.384360e-04  0 
 4.555175e-04  -1.737158e-04  0 
 4.003184e-04  -2.205985e-04  0 
 -9.549909e-04  -1.417056e-03  0 
 -3.391587e-04  -1.360804e-03  0 
 3.900424e-04  -1.360503e-03  0 
 9.942560e-04  -1.408307e-03  0 
 1.932770e-03  -1.461014e-03  0 
VECTORS displacement_ITER24 FLOAT
 -4.474620e-04  -1.916579e-04  0 
 -1.888914e-03  -1.469668e-03  0 
 -4.116897e-04  -1.431028e-04  0 
 -6.235880e-05  -1.265628e-04  0 
 1.092543e-04  -1.384360e-04  0 
 4.555175e-04  -1.737158e-04  0 
 4.003184e-04  -2.205985e-04  0 
 -9.549909e-04  -1.417056e-03  0 
 -3.391587e-04  -1.360804e-03  0 
 3.900424e-04  -1.360503e-03  0 
 9.942560e-04  -1.408307e-03  0 
 1.932770e-03  -1.461014e-03  0 
VECTORS displacement_ITER25 FLOAT
 -4.474620e-04  -1.916579e-04  0 
 -1.888914e-03  -1.469668e-03  0 
 -4.116897e-04  -1.431028e-04  0 
 -6.235881e-05  -1.265629e-04  0 
 1.092543e-04  -1.384360e-04  0 
 4.555175e-04  -1.737158e-04  0 
 4.003184e-04  -2.205985e-04  0 
 -9.549909e-04  -1.417056e-03  0 
 -3.391588e-04  -1.360804e-03  0 
 3.900425e-04  -1.360503e-03  0 
 9.942560e-04  -1.408307e-03  0 
 1.932770e-03  -1.461014e-03  0 
VECTORS displacement_ITER26 FLOAT
 -4.474620e-04  -1.916579e-04  0 
 -1.888914e-03  -1.469668e-03  0 
 -4.116897e-04  -1.431028e-04  0 
 -6.235881e-05  -1.265629e-04  0 
 1.092543e-04  -1.384360e-04  0 
 4.555175e-04  -1.737158e-04  0 
 4.003184e-04  -2.205985e-04  0 
 -9.549909e-04  -1.417056e-03  0 
 -3.391588e-04  -1.360804e-03  0 
 3.900425e-04  -1.360503e-03  0 
 9.942560e-04  -1.408307e-03  0 
 1.932770e-03  -1.461014e-03  0 
CELL_DATA 5
TENSORS element_stresses FLOAT
 -2.097668e-01  -9.825005e-03  0 
 -9.825005e-03  -3.763824e-02  0 
 0  0  0 

 -8.412162e-01  -7.329778e-02  0 
 -7.329778e-02  -7.038344e-02  0 
 0  0  0 

 -5.154963e-04  -1.571324e-02  0 
 -1.571324e-02  -3.047728e-03  0 
 0  0  0 

 8.321032e-01  -6.189702e-02  0 
 -6.189702e-02  4.192184e-02  0 
 0  0  0 

 2.193953e-01  -2.051695e-02  0 
 -2.051695e-02  4.092113e-02  0 
 0  0  0 

TENSORS element_stresses FLOAT
 -2.097668e-01  -9.825005e-03  0 
 -9.825005e-03  -3.763824e-02  0 
 0  0  0 

 -8.412162e-01  -7.329778e-02  0 
 -7.329778e-02  -7.038344e-02  0 
 0  0  0 

 -5.154963e-04  -1.571324e-02  0 
 -1.571324e-02  -3.047728e-03  0 
 0  0  0 

 8.321032e-01  -6.189702e-02  0 
 -6.189702e-02  4.192184e-02  0 
 0  0  0 

 2.193953e-01  -2.051695e-02  0 
 -2.051695e-02  4.092113e-02  0 
 0  0  0 

