# vtk DataFile Version 3.1
this is an vtk file created by FEMAC
ASCII
DATASET UNSTRUCTURED_GRID
POINTS 12 FLOAT
1.000000 0.000000 0.000000
1.500000 0.000000 0.000000
1.000000 0.200000 0.000000
1.000000 0.400000 0.000000
1.000000 0.600000 0.000000
1.000000 0.800000 0.000000
1.000000 1.000000 0.000000
1.500000 0.200000 0.000000
1.500000 0.400000 0.000000
1.500000 0.600000 0.000000
1.500000 0.800000 0.000000
1.500000 1.000000 0.000000
CELLS 5 25 
4 0 1 7 2
4 2 7 8 3
4 3 8 9 4
4 4  9 10  5
4 5 10 11  6
CELL_TYPES 5
9 9 9 9 9 
POINT_DATA 12
VECTORS displacement_ITER1 FLOAT
 -1.826056e-03  -1.466017e-03  0 
 -2.122349e-03  -3.483133e-03  0 
 -9.523919e-04  -1.401449e-03  0 
 -3.349904e-04  -1.227333e-03  0 
 4.128920e-04  -1.229396e-03  0 
 1.016231e-03  -1.382785e-03  0 
 1.896212e-03  -1.447983e-03  0 
 -1.372628e-03  -3.435340e-03  0 
 -4.209904e-04  -3.392499e-03  0 
 4.934048e-04  -3.390373e-03  0 
 1.438892e-03  -3.433672e-03  0 
 2.194732e-03  -3.481402e-03  0 
VECTORS displacement_ITER2 FLOAT
 -1.859415e-03  -1.441996e-03  0 
 -2.138351e-03  -3.502475e-03  0 
 -9.506365e-04  -1.380957e-03  0 
 -3.308547e-04  -1.300072e-03  0 
 3.856146e-04  -1.298428e-03  0 
 9.867718e-04  -1.368900e-03  0 
 1.895030e-03  -1.428159e-03  0 
 -1.397815e-03  -3.451709e-03  0 
 -4.255580e-04  -3.386832e-03  0 
 4.701428e-04  -3.385006e-03  0 
 1.436416e-03  -3.447919e-03  0 
 2.177509e-03  -3.498590e-03  0 
VECTORS displacement_ITER3 FLOAT
 -1.883356e-03  -1.439971e-03  0 
 -2.156252e-03  -3.528916e-03  0 
 -9.616671e-04  -1.384501e-03  0 
 -3.386758e-04  -1.328048e-03  0 
 3.810283e-04  -1.329315e-03  0 
 9.897189e-04  -1.375655e-03  0 
 1.917848e-03  -1.432759e-03  0 
 -1.414247e-03  -3.480758e-03  0 
 -4.313024e-04  -3.422655e-03  0 
 4.673359e-04  -3.420765e-03  0 
 1.447026e-03  -3.478603e-03  0 
 2.192257e-03  -3.526472e-03  0 
VECTORS displacement_ITER4 FLOAT
 -1.891154e-03  -1.458305e-03  0 
 -2.159654e-03  -3.555619e-03  0 
 -9.599745e-04  -1.405257e-03  0 
 -3.363148e-04  -1.354055e-03  0 
 3.906487e-04  -1.354402e-03  0 
 1.001161e-03  -1.395196e-03  0 
 1.938128e-03  -1.449014e-03  0 
 -1.415863e-03  -3.510770e-03  0 
 -4.276659e-04  -3.464751e-03  0 
 4.762289e-04  -3.464225e-03  0 
 1.462095e-03  -3.511783e-03  0 
 2.207732e-03  -3.557336e-03  0 
VECTORS displacement_ITER5 FLOAT
 -1.892741e-03  -1.462608e-03  0 
 -2.160404e-03  -3.560417e-03  0 
 -9.602012e-04  -1.409640e-03  0 
 -3.385627e-04  -1.356378e-03  0 
 3.900009e-04  -1.356341e-03  0 
 9.984488e-04  -1.400133e-03  0 
 1.935901e-03  -1.453418e-03  0 
 -1.417549e-03  -3.515133e-03  0 
 -4.304003e-04  -3.471328e-03  0 
 4.749098e-04  -3.470343e-03  0 
 1.460269e-03  -3.515031e-03  0 
 2.205178e-03  -3.560427e-03  0 
VECTORS displacement_ITER6 FLOAT
 -1.890399e-03  -1.466156e-03  0 
 -2.157690e-03  -3.563255e-03  0 
 -9.570440e-04  -1.413346e-03  0 
 -3.391546e-04  -1.356807e-03  0 
 3.905735e-04  -1.356653e-03  0 
 9.956990e-04  -1.404601e-03  0 
 1.933417e-03  -1.457626e-03  0 
 -1.415998e-03  -3.517275e-03  0 
 -4.309379e-04  -3.474731e-03  0 
 4.754679e-04  -3.473827e-03  0 
 1.458991e-03  -3.516386e-03  0 
 2.202319e-03  -3.562475e-03  0 
VECTORS displacement_ITER7 FLOAT
 -1.888930e-03  -1.468559e-03  0 
 -2.156075e-03  -3.565294e-03  0 
 -9.552519e-04  -1.415921e-03  0 
 -3.390538e-04  -1.358613e-03  0 
 3.908793e-04  -1.358421e-03  0 
 9.948211e-04  -1.407157e-03  0 
 1.932982e-03  -1.460009e-03  0 
 -1.414844e-03  -3.519125e-03  0 
 -4.306259e-04  -3.476777e-03  0 
 4.758213e-04  -3.476035e-03  0 
 1.458790e-03  -3.518448e-03  0 
 2.201614e-03  -3.564864e-03  0 
VECTORS displacement_ITER8 FLOAT
 -1.888847e-03  -1.470027e-03  0 
 -2.155881e-03  -3.566933e-03  0 
 -9.549252e-04  -1.417473e-03  0 
 -3.392122e-04  -1.360651e-03  0 
 3.905299e-04  -1.360409e-03  0 
 9.943408e-04  -1.408592e-03  0 
 1.932905e-03  -1.461323e-03  0 
 -1.414806e-03  -3.520729e-03  0 
 -4.306748e-04  -3.478104e-03  0 
 4.754327e-04  -3.477418e-03  0 
 1.458568e-03  -3.520257e-03  0 
 2.201385e-03  -3.566734e-03  0 
VECTORS displacement_ITER9 FLOAT
 -1.889097e-03  -1.470257e-03  0 
 -2.156078e-03  -3.567395e-03  0 
 -9.550013e-04  -1.417691e-03  0 
 -3.392840e-04  -1.361398e-03  0 
 3.902305e-04  -1.361126e-03  0 
 9.941741e-04  -1.408880e-03  0 
 1.932894e-03  -1.461591e-03  0 
 -1.415055e-03  -3.521172e-03  0 
 -4.307148e-04  -3.478257e-03  0 
 4.751311e-04  -3.477593e-03  0 
 1.458536e-03  -3.520658e-03  0 
 2.201305e-03  -3.567156e-03  0 
VECTORS displacement_ITER10 FLOAT
 -1.889163e-03  -1.469897e-03  0 
 -2.156130e-03  -3.566968e-03  0 
 -9.550470e-04  -1.417289e-03  0 
 -3.392080e-04  -1.361204e-03  0 
 3.901356e-04  -1.360919e-03  0 
 9.942437e-04  -1.408567e-03  0 
 1.932927e-03  -1.461303e-03  0 
 -1.415194e-03  -3.520745e-03  0 
 -4.306329e-04  -3.477725e-03  0 
 4.750739e-04  -3.477084e-03  0 
 1.458679e-03  -3.520153e-03  0 
 2.201308e-03  -3.566673e-03  0 
VECTORS displacement_ITER11 FLOAT
 -1.889044e-03  -1.469698e-03  0 
 -2.156002e-03  -3.566461e-03  0 
 -9.550292e-04  -1.417075e-03  0 
 -3.391521e-04  -1.360923e-03  0 
 3.901030e-04  -1.360630e-03  0 
 9.943003e-04  -1.408343e-03  0 
 1.932891e-03  -1.461081e-03  0 
 -1.415206e-03  -3.520255e-03  0 
 -4.305751e-04  -3.477295e-03  0 
 4.750672e-04  -3.476667e-03  0 
 1.458749e-03  -3.519674e-03  0 
 2.201254e-03  -3.566190e-03  0 
VECTORS displacement_ITER12 FLOAT
 -1.888903e-03  -1.469658e-03  0 
 -2.155848e-03  -3.566118e-03  0 
 -9.549988e-04  -1.417039e-03  0 
 -3.391404e-04  -1.360775e-03  0 
 3.900548e-04  -1.360474e-03  0 
 9.942829e-04  -1.408275e-03  0 
 1.932785e-03  -1.460995e-03  0 
 -1.415180e-03  -3.519932e-03  0 
 -4.305623e-04  -3.477041e-03  0 
 4.750324e-04  -3.476421e-03  0 
 1.458716e-03  -3.519379e-03  0 
 2.201135e-03  -3.565882e-03  0 
VECTORS displacement_ITER13 FLOAT
 -1.888876e-03  -1.469654e-03  0 
 -2.155821e-03  -3.566095e-03  0 
 -9.549818e-04  -1.417040e-03  0 
 -3.391422e-04  -1.360771e-03  0 
 3.900354e-04  -1.360469e-03  0 
 9.942505e-04  -1.408284e-03  0 
 1.932738e-03  -1.460995e-03  0 
 -1.415159e-03  -3.519911e-03  0 
 -4.305634e-04  -3.477003e-03  0 
 4.750185e-04  -3.476384e-03  0 
 1.458672e-03  -3.519354e-03  0 
 2.201088e-03  -3.565858e-03  0 
VECTORS displacement_ITER14 FLOAT
 -1.888881e-03  -1.469636e-03  0 
 -2.155833e-03  -3.566155e-03  0 
 -9.549634e-04  -1.417026e-03  0 
 -3.391443e-04  -1.360787e-03  0 
 3.900254e-04  -1.360485e-03  0 
 9.942205e-04  -1.408288e-03  0 
 1.932723e-03  -1.460992e-03  0 
 -1.415132e-03  -3.519964e-03  0 
 -4.305635e-04  -3.477003e-03  0 
 4.750175e-04  -3.476386e-03  0 
 1.458627e-03  -3.519403e-03  0 
 2.201078e-03  -3.565915e-03  0 
VECTORS displacement_ITER15 FLOAT
 -1.888892e-03  -1.469644e-03  0 
 -2.155849e-03  -3.566186e-03  0 
 -9.549697e-04  -1.417034e-03  0 
 -3.391510e-04  -1.360790e-03  0 
 3.900279e-04  -1.360488e-03  0 
 9.942293e-04  -1.408289e-03  0 
 1.932743e-03  -1.460993e-03  0 
 -1.415135e-03  -3.519993e-03  0 
 -4.305678e-04  -3.477027e-03  0 
 4.750222e-04  -3.476410e-03  0 
 1.458629e-03  -3.519441e-03  0 
 2.201101e-03  -3.565957e-03  0 
VECTORS displacement_ITER16 FLOAT
 -1.888910e-03  -1.469668e-03  0 
 -2.155869e-03  -3.566210e-03  0 
 -9.549893e-04  -1.417057e-03  0 
 -3.391586e-04  -1.360797e-03  0 
 3.900374e-04  -1.360495e-03  0 
 9.942536e-04  -1.408305e-03  0 
 1.932768e-03  -1.461010e-03  0 
 -1.415153e-03  -3.520017e-03  0 
 -4.305720e-04  -3.477068e-03  0 
 4.750295e-04  -3.476452e-03  0 
 1.458650e-03  -3.519470e-03  0 
 2.201129e-03  -3.565986e-03  0 
VECTORS displacement_ITER17 FLOAT
 -1.888918e-03  -1.469673e-03  0 
 -2.155877e-03  -3.566221e-03  0 
 -9.549945e-04  -1.417061e-03  0 
 -3.391580e-04  -1.360804e-03  0 
 3.900428e-04  -1.360503e-03  0 
 9.942605e-04  -1.408313e-03  0 
 1.932773e-03  -1.461019e-03  0 
 -1.415159e-03  -3.520028e-03  0 
 -4.305692e-04  -3.477083e-03  0 
 4.750332e-04  -3.476466e-03  0 
 1.458657e-03  -3.519475e-03  0 
 2.201134e-03  -3.565991e-03  0 
VECTORS displacement_ITER18 FLOAT
 -1.888915e-03  -1.469670e-03  0 
 -2.155874e-03  -3.566216e-03  0 
 -9.549923e-04  -1.417058e-03  0 
 -3.391592e-04  -1.360806e-03  0 
 3.900405e-04  -1.360505e-03  0 
 9.942567e-04  -1.408307e-03  0 
 1.932771e-03  -1.461013e-03  0 
 -1.415157e-03  -3.520023e-03  0 
 -4.305690e-04  -3.477079e-03  0 
 4.750298e-04  -3.476462e-03  0 
 1.458653e-03  -3.519474e-03  0 
 2.201133e-03  -3.565989e-03  0 
VECTORS displacement_ITER19 FLOAT
 -1.888915e-03  -1.469668e-03  0 
 -2.155874e-03  -3.566215e-03  0 
 -9.549910e-04  -1.417055e-03  0 
 -3.391582e-04  -1.360804e-03  0 
 3.900420e-04  -1.360503e-03  0 
 9.942559e-04  -1.408307e-03  0 
 1.932769e-03  -1.461014e-03  0 
 -1.415156e-03  -3.520022e-03  0 
 -4.305676e-04  -3.477078e-03  0 
 4.750308e-04  -3.476460e-03  0 
 1.458653e-03  -3.519470e-03  0 
 2.201130e-03  -3.565985e-03  0 
VECTORS displacement_ITER20 FLOAT
 -1.888914e-03  -1.469669e-03  0 
 -2.155873e-03  -3.566214e-03  0 
 -9.549908e-04  -1.417056e-03  0 
 -3.391587e-04  -1.360804e-03  0 
 3.900422e-04  -1.360503e-03  0 
 9.942561e-04  -1.408306e-03  0 
 1.932770e-03  -1.461013e-03  0 
 -1.415156e-03  -3.520021e-03  0 
 -4.305679e-04  -3.477078e-03  0 
 4.750308e-04  -3.476460e-03  0 
 1.458654e-03  -3.519470e-03  0 
 2.201131e-03  -3.565985e-03  0 
VECTORS displacement_ITER21 FLOAT
 -1.888914e-03  -1.469668e-03  0 
 -2.155873e-03  -3.566215e-03  0 
 -9.549909e-04  -1.417056e-03  0 
 -3.391587e-04  -1.360804e-03  0 
 3.900424e-04  -1.360503e-03  0 
 9.942560e-04  -1.408307e-03  0 
 1.932770e-03  -1.461014e-03  0 
 -1.415156e-03  -3.520022e-03  0 
 -4.305678e-04  -3.477078e-03  0 
 4.750308e-04  -3.476461e-03  0 
 1.458654e-03  -3.519471e-03  0 
 2.201131e-03  -3.565985e-03  0 
VECTORS displacement_ITER22 FLOAT
 -1.888914e-03  -1.469668e-03  0 
 -2.155873e-03  -3.566215e-03  0 
 -9.549909e-04  -1.417056e-03  0 
 -3.391588e-04  -1.360804e-03  0 
 3.900424e-04  -1.360503e-03  0 
 9.942560e-04  -1.408307e-03  0 
 1.932770e-03  -1.461014e-03  0 
 -1.415156e-03  -3.520022e-03  0 
 -4.305679e-04  -3.477078e-03  0 
 4.750307e-04  -3.476461e-03  0 
 1.458654e-03  -3.519471e-03  0 
 2.201131e-03  -3.565986e-03  0 
VECTORS displacement_ITER23 FLOAT
 -1.888914e-03  -1.469668e-03  0 
 -2.155873e-03  -3.566215e-03  0 
 -9.549908e-04  -1.417056e-03  0 
 -3.391587e-04  -1.360804e-03  0 
 3.900425e-04  -1.360503e-03  0 
 9.942560e-04  -1.408307e-03  0 
 1.932770e-03  -1.461014e-03  0 
 -1.415156e-03  -3.520022e-03  0 
 -4.305678e-04  -3.477078e-03  0 
 4.750307e-04  -3.476461e-03  0 
 1.458654e-03  -3.519471e-03  0 
 2.201131e-03  -3.565986e-03  0 
VECTORS displacement_ITER24 FLOAT
 -1.888914e-03  -1.469668e-03  0 
 -2.155873e-03  -3.566215e-03  0 
 -9.549908e-04  -1.417056e-03  0 
 -3.391588e-04  -1.360804e-03  0 
 3.900424e-04  -1.360503e-03  0 
 9.942560e-04  -1.408307e-03  0 
 1.932770e-03  -1.461014e-03  0 
 -1.415156e-03  -3.520022e-03  0 
 -4.305678e-04  -3.477078e-03  0 
 4.750307e-04  -3.476461e-03  0 
 1.458654e-03  -3.519471e-03  0 
 2.201131e-03  -3.565986e-03  0 
VECTORS displacement_ITER25 FLOAT
 -1.888914e-03  -1.469668e-03  0 
 -2.155873e-03  -3.566215e-03  0 
 -9.549909e-04  -1.417056e-03  0 
 -3.391588e-04  -1.360804e-03  0 
 3.900425e-04  -1.360503e-03  0 
 9.942560e-04  -1.408307e-03  0 
 1.932770e-03  -1.461014e-03  0 
 -1.415156e-03  -3.520022e-03  0 
 -4.305678e-04  -3.477078e-03  0 
 4.750307e-04  -3.476461e-03  0 
 1.458654e-03  -3.519471e-03  0 
 2.201131e-03  -3.565986e-03  0 
VECTORS displacement_ITER26 FLOAT
 -1.888914e-03  -1.469668e-03  0 
 -2.155873e-03  -3.566215e-03  0 
 -9.549909e-04  -1.417056e-03  0 
 -3.391588e-04  -1.360804e-03  0 
 3.900424e-04  -1.360503e-03  0 
 9.942560e-04  -1.408307e-03  0 
 1.932770e-03  -1.461014e-03  0 
 -1.415156e-03  -3.520022e-03  0 
 -4.305678e-04  -3.477078e-03  0 
 4.750307e-04  -3.476461e-03  0 
 1.458654e-03  -3.519471e-03  0 
 2.201131e-03  -3.565986e-03  0 
CELL_DATA 5
TENSORS element_stresses FLOAT
 -7.176053e-01  -9.931812e-03  0 
 -9.931812e-03  3.173115e-02  0 
 0  0  0 

 -5.243704e-02  -1.678378e-02  0 
 -1.678378e-02  9.068004e-03  0 
 0  0  0 

 -6.298730e-03  -1.117177e-01  0 
 -1.117177e-01  4.068710e-04  0 
 0  0  0 

 5.288739e-02  -1.981005e-02  0 
 -1.981005e-02  -6.837336e-03  0 
 0  0  0 

 7.234536e-01  -1.050670e-02  0 
 -1.050670e-02  -3.101796e-02  0 
 0  0  0 

TENSORS element_stresses FLOAT
 -7.176053e-01  -9.931812e-03  0 
 -9.931812e-03  3.173115e-02  0 
 0  0  0 

 -5.243704e-02  -1.678378e-02  0 
 -1.678378e-02  9.068004e-03  0 
 0  0  0 

 -6.298730e-03  -1.117177e-01  0 
 -1.117177e-01  4.068710e-04  0 
 0  0  0 

 5.288739e-02  -1.981005e-02  0 
 -1.981005e-02  -6.837336e-03  0 
 0  0  0 

 7.234536e-01  -1.050670e-02  0 
 -1.050670e-02  -3.101796e-02  0 
 0  0  0 

