# vtk DataFile Version 3.1
this is an vtk file created by FEMAC
ASCII
DATASET UNSTRUCTURED_GRID
POINTS 12 FLOAT
7.000000 0.000000 0.000000
7.500000 0.000000 0.000000
7.000000 0.200000 0.000000
7.000000 0.400000 0.000000
7.000000 0.600000 0.000000
7.000000 0.800000 0.000000
7.000000 1.000000 0.000000
7.500000 0.200000 0.000000
7.500000 0.400000 0.000000
7.500000 0.600000 0.000000
7.500000 0.800000 0.000000
7.500000 1.000000 0.000000
CELLS 5 25 
4 0 1 7 2
4 2 7 8 3
4 3 8 9 4
4 4  9 10  5
4 5 10 11  6
CELL_TYPES 5
9 9 9 9 9 
POINT_DATA 12
VECTORS displacement_ITER1 FLOAT
 -5.950894e-03  -5.776589e-02  0 
 -5.955002e-03  -6.375657e-02  0 
 -3.553428e-03  -5.776358e-02  0 
 -1.161958e-03  -5.775772e-02  0 
 1.232312e-03  -5.775772e-02  0 
 3.623782e-03  -5.776358e-02  0 
 6.021248e-03  -5.776589e-02  0 
 -3.558863e-03  -6.375634e-02  0 
 -1.165027e-03  -6.376058e-02  0 
 1.235381e-03  -6.376058e-02  0 
 3.629217e-03  -6.375634e-02  0 
 6.025356e-03  -6.375657e-02  0 
VECTORS displacement_ITER2 FLOAT
 -5.612024e-03  -5.529491e-02  0 
 -5.615390e-03  -6.092845e-02  0 
 -3.357741e-03  -5.529405e-02  0 
 -1.110604e-03  -5.529121e-02  0 
 1.138487e-03  -5.529121e-02  0 
 3.385623e-03  -5.529405e-02  0 
 5.639906e-03  -5.529491e-02  0 
 -3.363511e-03  -6.092825e-02  0 
 -1.113260e-03  -6.092771e-02  0 
 1.141142e-03  -6.092771e-02  0 
 3.391393e-03  -6.092825e-02  0 
 5.643272e-03  -6.092845e-02  0 
VECTORS displacement_ITER3 FLOAT
 -5.532728e-03  -5.481204e-02  0 
 -5.536105e-03  -6.037731e-02  0 
 -3.305737e-03  -5.481109e-02  0 
 -1.086397e-03  -5.481009e-02  0 
 1.134077e-03  -5.481009e-02  0 
 3.353417e-03  -5.481109e-02  0 
 5.580408e-03  -5.481204e-02  0 
 -3.311640e-03  -6.037702e-02  0 
 -1.089090e-03  -6.037502e-02  0 
 1.136770e-03  -6.037502e-02  0 
 3.359320e-03  -6.037702e-02  0 
 5.583785e-03  -6.037731e-02  0 
VECTORS displacement_ITER4 FLOAT
 -5.514133e-03  -5.462937e-02  0 
 -5.517652e-03  -6.017510e-02  0 
 -3.294889e-03  -5.462807e-02  0 
 -1.083361e-03  -5.462823e-02  0 
 1.128669e-03  -5.462823e-02  0 
 3.340197e-03  -5.462807e-02  0 
 5.559441e-03  -5.462937e-02  0 
 -3.300808e-03  -6.017476e-02  0 
 -1.086148e-03  -6.017268e-02  0 
 1.131456e-03  -6.017268e-02  0 
 3.346116e-03  -6.017476e-02  0 
 5.562960e-03  -6.017510e-02  0 
VECTORS displacement_ITER5 FLOAT
 -5.514785e-03  -5.461428e-02  0 
 -5.518328e-03  -6.015938e-02  0 
 -3.295809e-03  -5.461294e-02  0 
 -1.084329e-03  -5.461306e-02  0 
 1.127704e-03  -5.461306e-02  0 
 3.339185e-03  -5.461294e-02  0 
 5.558161e-03  -5.461428e-02  0 
 -3.301657e-03  -6.015908e-02  0 
 -1.087092e-03  -6.015756e-02  0 
 1.130468e-03  -6.015756e-02  0 
 3.345033e-03  -6.015908e-02  0 
 5.561703e-03  -6.015938e-02  0 
VECTORS displacement_ITER6 FLOAT
 -5.515240e-03  -5.461010e-02  0 
 -5.518798e-03  -6.015545e-02  0 
 -3.296210e-03  -5.460877e-02  0 
 -1.084334e-03  -5.460861e-02  0 
 1.128317e-03  -5.460861e-02  0 
 3.340193e-03  -5.460877e-02  0 
 5.559223e-03  -5.461010e-02  0 
 -3.301949e-03  -6.015522e-02  0 
 -1.087036e-03  -6.015454e-02  0 
 1.131019e-03  -6.015454e-02  0 
 3.345932e-03  -6.015522e-02  0 
 5.562781e-03  -6.015545e-02  0 
VECTORS displacement_ITER7 FLOAT
 -5.515175e-03  -5.460875e-02  0 
 -5.518745e-03  -6.015413e-02  0 
 -3.296162e-03  -5.460744e-02  0 
 -1.084218e-03  -5.460713e-02  0 
 1.128626e-03  -5.460713e-02  0 
 3.340570e-03  -5.460744e-02  0 
 5.559582e-03  -5.460875e-02  0 
 -3.301872e-03  -6.015390e-02  0 
 -1.086893e-03  -6.015345e-02  0 
 1.131300e-03  -6.015345e-02  0 
 3.346280e-03  -6.015390e-02  0 
 5.563152e-03  -6.015413e-02  0 
VECTORS displacement_ITER8 FLOAT
 -5.515297e-03  -5.460827e-02  0 
 -5.518879e-03  -6.015373e-02  0 
 -3.296260e-03  -5.460695e-02  0 
 -1.084345e-03  -5.460660e-02  0 
 1.128533e-03  -5.460660e-02  0 
 3.340448e-03  -5.460695e-02  0 
 5.559484e-03  -5.460827e-02  0 
 -3.301977e-03  -6.015347e-02  0 
 -1.087010e-03  -6.015294e-02  0 
 1.131198e-03  -6.015294e-02  0 
 3.346165e-03  -6.015347e-02  0 
 5.563066e-03  -6.015373e-02  0 
VECTORS displacement_ITER9 FLOAT
 -5.515565e-03  -5.460860e-02  0 
 -5.519155e-03  -6.015432e-02  0 
 -3.296424e-03  -5.460729e-02  0 
 -1.084479e-03  -5.460693e-02  0 
 1.128461e-03  -5.460693e-02  0 
 3.340406e-03  -5.460729e-02  0 
 5.559547e-03  -5.460860e-02  0 
 -3.302151e-03  -6.015406e-02  0 
 -1.087138e-03  -6.015340e-02  0 
 1.131121e-03  -6.015340e-02  0 
 3.346134e-03  -6.015406e-02  0 
 5.563137e-03  -6.015432e-02  0 
VECTORS displacement_ITER10 FLOAT
 -5.515835e-03  -5.460943e-02  0 
 -5.519427e-03  -6.015548e-02  0 
 -3.296563e-03  -5.460812e-02  0 
 -1.084535e-03  -5.460778e-02  0 
 1.128501e-03  -5.460778e-02  0 
 3.340528e-03  -5.460812e-02  0 
 5.559800e-03  -5.460943e-02  0 
 -3.302295e-03  -6.015521e-02  0 
 -1.087189e-03  -6.015448e-02  0 
 1.131154e-03  -6.015448e-02  0 
 3.346260e-03  -6.015521e-02  0 
 5.563392e-03  -6.015548e-02  0 
VECTORS displacement_ITER11 FLOAT
 -5.516013e-03  -5.461013e-02  0 
 -5.519606e-03  -6.015637e-02  0 
 -3.296662e-03  -5.460882e-02  0 
 -1.084562e-03  -5.460848e-02  0 
 1.128552e-03  -5.460848e-02  0 
 3.340653e-03  -5.460882e-02  0 
 5.560006e-03  -5.461013e-02  0 
 -3.302394e-03  -6.015610e-02  0 
 -1.087209e-03  -6.015536e-02  0 
 1.131200e-03  -6.015536e-02  0 
 3.346385e-03  -6.015610e-02  0 
 5.563598e-03  -6.015637e-02  0 
VECTORS displacement_ITER12 FLOAT
 -5.516119e-03  -5.461060e-02  0 
 -5.519711e-03  -6.015694e-02  0 
 -3.296724e-03  -5.460929e-02  0 
 -1.084571e-03  -5.460895e-02  0 
 1.128600e-03  -5.460895e-02  0 
 3.340752e-03  -5.460929e-02  0 
 5.560144e-03  -5.461060e-02  0 
 -3.302457e-03  -6.015668e-02  0 
 -1.087214e-03  -6.015596e-02  0 
 1.131241e-03  -6.015596e-02  0 
 3.346484e-03  -6.015668e-02  0 
 5.563737e-03  -6.015695e-02  0 
VECTORS displacement_ITER13 FLOAT
 -5.516139e-03  -5.461063e-02  0 
 -5.519732e-03  -6.015697e-02  0 
 -3.296749e-03  -5.460931e-02  0 
 -1.084594e-03  -5.460898e-02  0 
 1.128584e-03  -5.460898e-02  0 
 3.340740e-03  -5.460932e-02  0 
 5.560133e-03  -5.461063e-02  0 
 -3.302482e-03  -6.015671e-02  0 
 -1.087233e-03  -6.015600e-02  0 
 1.131224e-03  -6.015600e-02  0 
 3.346474e-03  -6.015670e-02  0 
 5.563726e-03  -6.015697e-02  0 
VECTORS displacement_ITER14 FLOAT
 -5.516086e-03  -5.461049e-02  0 
 -5.519680e-03  -6.015677e-02  0 
 -3.296713e-03  -5.460917e-02  0 
 -1.084576e-03  -5.460883e-02  0 
 1.128591e-03  -5.460883e-02  0 
 3.340727e-03  -5.460917e-02  0 
 5.560097e-03  -5.461049e-02  0 
 -3.302450e-03  -6.015651e-02  0 
 -1.087213e-03  -6.015581e-02  0 
 1.131227e-03  -6.015581e-02  0 
 3.346463e-03  -6.015651e-02  0 
 5.563691e-03  -6.015678e-02  0 
VECTORS displacement_ITER15 FLOAT
 -5.516063e-03  -5.461038e-02  0 
 -5.519656e-03  -6.015664e-02  0 
 -3.296703e-03  -5.460907e-02  0 
 -1.084582e-03  -5.460873e-02  0 
 1.128572e-03  -5.460873e-02  0 
 3.340693e-03  -5.460907e-02  0 
 5.560054e-03  -5.461038e-02  0 
 -3.302440e-03  -6.015638e-02  0 
 -1.087218e-03  -6.015568e-02  0 
 1.131208e-03  -6.015568e-02  0 
 3.346430e-03  -6.015638e-02  0 
 5.563647e-03  -6.015664e-02  0 
VECTORS displacement_ITER16 FLOAT
 -5.516033e-03  -5.461031e-02  0 
 -5.519626e-03  -6.015655e-02  0 
 -3.296680e-03  -5.460899e-02  0 
 -1.084572e-03  -5.460866e-02  0 
 1.128572e-03  -5.460866e-02  0 
 3.340680e-03  -5.460899e-02  0 
 5.560033e-03  -5.461031e-02  0 
 -3.302417e-03  -6.015628e-02  0 
 -1.087207e-03  -6.015558e-02  0 
 1.131208e-03  -6.015558e-02  0 
 3.346417e-03  -6.015628e-02  0 
 5.563626e-03  -6.015655e-02  0 
VECTORS displacement_ITER17 FLOAT
 -5.516030e-03  -5.461029e-02  0 
 -5.519623e-03  -6.015653e-02  0 
 -3.296679e-03  -5.460898e-02  0 
 -1.084573e-03  -5.460864e-02  0 
 1.128571e-03  -5.460864e-02  0 
 3.340677e-03  -5.460898e-02  0 
 5.560029e-03  -5.461029e-02  0 
 -3.302416e-03  -6.015627e-02  0 
 -1.087208e-03  -6.015556e-02  0 
 1.131206e-03  -6.015556e-02  0 
 3.346414e-03  -6.015627e-02  0 
 5.563622e-03  -6.015653e-02  0 
VECTORS displacement_ITER18 FLOAT
 -5.516035e-03  -5.461031e-02  0 
 -5.519629e-03  -6.015655e-02  0 
 -3.296682e-03  -5.460899e-02  0 
 -1.084573e-03  -5.460865e-02  0 
 1.128572e-03  -5.460865e-02  0 
 3.340681e-03  -5.460899e-02  0 
 5.560034e-03  -5.461031e-02  0 
 -3.302419e-03  -6.015628e-02  0 
 -1.087208e-03  -6.015558e-02  0 
 1.131207e-03  -6.015558e-02  0 
 3.346418e-03  -6.015628e-02  0 
 5.563627e-03  -6.015655e-02  0 
VECTORS displacement_ITER19 FLOAT
 -5.516038e-03  -5.461031e-02  0 
 -5.519631e-03  -6.015656e-02  0 
 -3.296684e-03  -5.460900e-02  0 
 -1.084574e-03  -5.460866e-02  0 
 1.128573e-03  -5.460866e-02  0 
 3.340682e-03  -5.460900e-02  0 
 5.560037e-03  -5.461031e-02  0 
 -3.302421e-03  -6.015629e-02  0 
 -1.087209e-03  -6.015559e-02  0 
 1.131207e-03  -6.015559e-02  0 
 3.346420e-03  -6.015629e-02  0 
 5.563630e-03  -6.015656e-02  0 
VECTORS displacement_ITER20 FLOAT
 -5.516038e-03  -5.461032e-02  0 
 -5.519632e-03  -6.015656e-02  0 
 -3.296684e-03  -5.460900e-02  0 
 -1.084574e-03  -5.460866e-02  0 
 1.128573e-03  -5.460866e-02  0 
 3.340683e-03  -5.460900e-02  0 
 5.560037e-03  -5.461032e-02  0 
 -3.302421e-03  -6.015630e-02  0 
 -1.087209e-03  -6.015559e-02  0 
 1.131208e-03  -6.015559e-02  0 
 3.346420e-03  -6.015630e-02  0 
 5.563631e-03  -6.015656e-02  0 
VECTORS displacement_ITER21 FLOAT
 -5.516038e-03  -5.461032e-02  0 
 -5.519632e-03  -6.015656e-02  0 
 -3.296684e-03  -5.460900e-02  0 
 -1.084574e-03  -5.460866e-02  0 
 1.128573e-03  -5.460866e-02  0 
 3.340683e-03  -5.460900e-02  0 
 5.560037e-03  -5.461032e-02  0 
 -3.302421e-03  -6.015630e-02  0 
 -1.087209e-03  -6.015559e-02  0 
 1.131208e-03  -6.015559e-02  0 
 3.346420e-03  -6.015630e-02  0 
 5.563631e-03  -6.015656e-02  0 
VECTORS displacement_ITER22 FLOAT
 -5.516038e-03  -5.461031e-02  0 
 -5.519631e-03  -6.015656e-02  0 
 -3.296684e-03  -5.460900e-02  0 
 -1.084574e-03  -5.460866e-02  0 
 1.128573e-03  -5.460866e-02  0 
 3.340683e-03  -5.460900e-02  0 
 5.560037e-03  -5.461031e-02  0 
 -3.302421e-03  -6.015629e-02  0 
 -1.087209e-03  -6.015559e-02  0 
 1.131208e-03  -6.015559e-02  0 
 3.346420e-03  -6.015629e-02  0 
 5.563630e-03  -6.015656e-02  0 
VECTORS displacement_ITER23 FLOAT
 -5.516038e-03  -5.461031e-02  0 
 -5.519631e-03  -6.015656e-02  0 
 -3.296684e-03  -5.460900e-02  0 
 -1.084574e-03  -5.460866e-02  0 
 1.128573e-03  -5.460866e-02  0 
 3.340683e-03  -5.460900e-02  0 
 5.560037e-03  -5.461031e-02  0 
 -3.302421e-03  -6.015629e-02  0 
 -1.087209e-03  -6.015559e-02  0 
 1.131208e-03  -6.015559e-02  0 
 3.346420e-03  -6.015629e-02  0 
 5.563630e-03  -6.015656e-02  0 
VECTORS displacement_ITER24 FLOAT
 -5.516038e-03  -5.461031e-02  0 
 -5.519631e-03  -6.015656e-02  0 
 -3.296684e-03  -5.460900e-02  0 
 -1.084574e-03  -5.460866e-02  0 
 1.128573e-03  -5.460866e-02  0 
 3.340683e-03  -5.460900e-02  0 
 5.560037e-03  -5.461031e-02  0 
 -3.302421e-03  -6.015629e-02  0 
 -1.087209e-03  -6.015559e-02  0 
 1.131208e-03  -6.015559e-02  0 
 3.346420e-03  -6.015629e-02  0 
 5.563630e-03  -6.015656e-02  0 
VECTORS displacement_ITER25 FLOAT
 -5.516038e-03  -5.461031e-02  0 
 -5.519631e-03  -6.015656e-02  0 
 -3.296684e-03  -5.460900e-02  0 
 -1.084574e-03  -5.460866e-02  0 
 1.128573e-03  -5.460866e-02  0 
 3.340683e-03  -5.460900e-02  0 
 5.560037e-03  -5.461031e-02  0 
 -3.302421e-03  -6.015629e-02  0 
 -1.087209e-03  -6.015559e-02  0 
 1.131208e-03  -6.015559e-02  0 
 3.346420e-03  -6.015629e-02  0 
 5.563630e-03  -6.015656e-02  0 
VECTORS displacement_ITER26 FLOAT
 -5.516038e-03  -5.461031e-02  0 
 -5.519631e-03  -6.015656e-02  0 
 -3.296684e-03  -5.460900e-02  0 
 -1.084574e-03  -5.460866e-02  0 
 1.128573e-03  -5.460866e-02  0 
 3.340683e-03  -5.460900e-02  0 
 5.560037e-03  -5.461031e-02  0 
 -3.302421e-03  -6.015629e-02  0 
 -1.087209e-03  -6.015559e-02  0 
 1.131208e-03  -6.015559e-02  0 
 3.346420e-03  -6.015629e-02  0 
 5.563630e-03  -6.015656e-02  0 
CELL_DATA 5
TENSORS element_stresses FLOAT
 -8.954295e-03  -1.634251e-03  0 
 -1.634251e-03  1.254729e-03  0 
 0  0  0 

 -8.340029e-04  -1.993472e-03  0 
 -1.993472e-03  1.064287e-05  0 
 0  0  0 

 -8.965486e-10  -1.149455e-02  0 
 -1.149455e-02  -1.497426e-09  0 
 0  0  0 

 8.340028e-04  -1.993472e-03  0 
 -1.993472e-03  -1.064333e-05  0 
 0  0  0 

 8.954296e-03  -1.634251e-03  0 
 -1.634251e-03  -1.254730e-03  0 
 0  0  0 

TENSORS element_stresses FLOAT
 -8.954295e-03  -1.634251e-03  0 
 -1.634251e-03  1.254729e-03  0 
 0  0  0 

 -8.340029e-04  -1.993472e-03  0 
 -1.993472e-03  1.064287e-05  0 
 0  0  0 

 -8.965486e-10  -1.149455e-02  0 
 -1.149455e-02  -1.497426e-09  0 
 0  0  0 

 8.340028e-04  -1.993472e-03  0 
 -1.993472e-03  -1.064333e-05  0 
 0  0  0 

 8.954296e-03  -1.634251e-03  0 
 -1.634251e-03  -1.254730e-03  0 
 0  0  0 

