# vtk DataFile Version 3.1
this is an vtk file created by FEMAC
ASCII
DATASET UNSTRUCTURED_GRID
POINTS 12 FLOAT
4.000000 0.000000 0.000000
4.500000 0.000000 0.000000
4.000000 0.200000 0.000000
4.000000 0.400000 0.000000
4.000000 0.600000 0.000000
4.000000 0.800000 0.000000
4.000000 1.000000 0.000000
4.500000 0.200000 0.000000
4.500000 0.400000 0.000000
4.500000 0.600000 0.000000
4.500000 0.800000 0.000000
4.500000 1.000000 0.000000
CELLS 5 25 
4 0 1 7 2
4 2 7 8 3
4 3 8 9 4
4 4  9 10  5
4 5 10 11  6
CELL_TYPES 5
9 9 9 9 9 
POINT_DATA 12
VECTORS displacement_ITER1 FLOAT
 -5.217696e-03  -2.349397e-02  0 
 -5.309901e-03  -2.880578e-02  0 
 -3.071628e-03  -2.347111e-02  0 
 -1.016434e-03  -2.341541e-02  0 
 1.086788e-03  -2.341541e-02  0 
 3.141982e-03  -2.347111e-02  0 
 5.288050e-03  -2.349397e-02  0 
 -3.201354e-03  -2.879303e-02  0 
 -1.043724e-03  -2.878908e-02  0 
 1.114078e-03  -2.878908e-02  0 
 3.271708e-03  -2.879303e-02  0 
 5.380255e-03  -2.880578e-02  0 
VECTORS displacement_ITER2 FLOAT
 -4.963295e-03  -2.286973e-02  0 
 -5.049287e-03  -2.792146e-02  0 
 -2.918258e-03  -2.285234e-02  0 
 -9.776578e-04  -2.282582e-02  0 
 1.005540e-03  -2.282582e-02  0 
 2.946140e-03  -2.285234e-02  0 
 4.991177e-03  -2.286973e-02  0 
 -3.056853e-03  -2.790635e-02  0 
 -1.005682e-03  -2.788899e-02  0 
 1.033564e-03  -2.788899e-02  0 
 3.084735e-03  -2.790635e-02  0 
 5.077169e-03  -2.792146e-02  0 
VECTORS displacement_ITER3 FLOAT
 -4.901170e-03  -2.276215e-02  0 
 -4.985328e-03  -2.776544e-02  0 
 -2.873535e-03  -2.274516e-02  0 
 -9.552477e-04  -2.273069e-02  0 
 1.002928e-03  -2.273069e-02  0 
 2.921215e-03  -2.274516e-02  0 
 4.948850e-03  -2.276215e-02  0 
 -3.014377e-03  -2.775100e-02  0 
 -9.833319e-04  -2.773131e-02  0 
 1.031012e-03  -2.773131e-02  0 
 3.062057e-03  -2.775100e-02  0 
 5.033008e-03  -2.776544e-02  0 
VECTORS displacement_ITER4 FLOAT
 -4.885593e-03  -2.271485e-02  0 
 -4.968912e-03  -2.770052e-02  0 
 -2.863324e-03  -2.269717e-02  0 
 -9.521277e-04  -2.268826e-02  0 
 9.974184e-04  -2.268826e-02  0 
 2.908637e-03  -2.269715e-02  0 
 4.930917e-03  -2.271484e-02  0 
 -3.005080e-03  -2.768729e-02  0 
 -9.801429e-04  -2.766947e-02  0 
 1.025437e-03  -2.766947e-02  0 
 3.050389e-03  -2.768730e-02  0 
 5.014235e-03  -2.770054e-02  0 
VECTORS displacement_ITER5 FLOAT
 -4.885405e-03  -2.270900e-02  0 
 -4.968681e-03  -2.769183e-02  0 
 -2.864128e-03  -2.269117e-02  0 
 -9.531307e-04  -2.268151e-02  0 
 9.964663e-04  -2.268151e-02  0 
 2.907491e-03  -2.269116e-02  0 
 4.928780e-03  -2.270899e-02  0 
 -3.005903e-03  -2.767881e-02  0 
 -9.810501e-04  -2.766299e-02  0 
 1.024396e-03  -2.766299e-02  0 
 3.049261e-03  -2.767881e-02  0 
 5.012054e-03  -2.769184e-02  0 
VECTORS displacement_ITER6 FLOAT
 -4.884478e-03  -2.270593e-02  0 
 -4.967793e-03  -2.768604e-02  0 
 -2.864339e-03  -2.268806e-02  0 
 -9.531901e-04  -2.267653e-02  0 
 9.973160e-04  -2.267650e-02  0 
 2.908468e-03  -2.268803e-02  0 
 4.928585e-03  -2.270587e-02  0 
 -3.006051e-03  -2.767307e-02  0 
 -9.809582e-04  -2.765984e-02  0 
 1.025060e-03  -2.765984e-02  0 
 3.050165e-03  -2.767308e-02  0 
 5.011907e-03  -2.768605e-02  0 
VECTORS displacement_ITER7 FLOAT
 -4.884014e-03  -2.270480e-02  0 
 -4.967382e-03  -2.768415e-02  0 
 -2.864302e-03  -2.268700e-02  0 
 -9.533358e-04  -2.267481e-02  0 
 9.974606e-04  -2.267484e-02  0 
 2.908467e-03  -2.268702e-02  0 
 4.928224e-03  -2.270485e-02  0 
 -3.005981e-03  -2.767116e-02  0 
 -9.809681e-04  -2.765851e-02  0 
 1.025139e-03  -2.765851e-02  0 
 3.050153e-03  -2.767114e-02  0 
 5.011574e-03  -2.768413e-02  0 
VECTORS displacement_ITER8 FLOAT
 -4.883639e-03  -2.270418e-02  0 
 -4.967030e-03  -2.768358e-02  0 
 -2.863857e-03  -2.268639e-02  0 
 -9.531366e-04  -2.267419e-02  0 
 9.976528e-04  -2.267416e-02  0 
 2.908350e-03  -2.268635e-02  0 
 4.928078e-03  -2.270412e-02  0 
 -3.005557e-03  -2.767054e-02  0 
 -9.807304e-04  -2.765759e-02  0 
 1.025225e-03  -2.765760e-02  0 
 3.050034e-03  -2.767054e-02  0 
 5.011480e-03  -2.768360e-02  0 
VECTORS displacement_ITER9 FLOAT
 -4.883910e-03  -2.270353e-02  0 
 -4.967333e-03  -2.768333e-02  0 
 -2.864024e-03  -2.268576e-02  0 
 -9.534726e-04  -2.267366e-02  0 
 9.973157e-04  -2.267366e-02  0 
 2.907869e-03  -2.268576e-02  0 
 4.927768e-03  -2.270353e-02  0 
 -3.005734e-03  -2.767025e-02  0 
 -9.810050e-04  -2.765693e-02  0 
 1.024835e-03  -2.765692e-02  0 
 3.049573e-03  -2.767023e-02  0 
 5.011197e-03  -2.768330e-02  0 
VECTORS displacement_ITER10 FLOAT
 -4.884003e-03  -2.270301e-02  0 
 -4.967454e-03  -2.768309e-02  0 
 -2.863991e-03  -2.268523e-02  0 
 -9.534552e-04  -2.267320e-02  0 
 9.973992e-04  -2.267320e-02  0 
 2.907937e-03  -2.268523e-02  0 
 4.927962e-03  -2.270302e-02  0 
 -3.005707e-03  -2.767001e-02  0 
 -9.809224e-04  -2.765652e-02  0 
 1.024886e-03  -2.765652e-02  0 
 3.049661e-03  -2.767002e-02  0 
 5.011404e-03  -2.768311e-02  0 
VECTORS displacement_ITER11 FLOAT
 -4.884119e-03  -2.270273e-02  0 
 -4.967576e-03  -2.768294e-02  0 
 -2.864048e-03  -2.268493e-02  0 
 -9.534547e-04  -2.267290e-02  0 
 9.974942e-04  -2.267289e-02  0 
 2.908078e-03  -2.268493e-02  0 
 4.928146e-03  -2.270272e-02  0 
 -3.005777e-03  -2.766986e-02  0 
 -9.808973e-04  -2.765637e-02  0 
 1.024932e-03  -2.765637e-02  0 
 3.049806e-03  -2.766986e-02  0 
 5.011604e-03  -2.768294e-02  0 
VECTORS displacement_ITER12 FLOAT
 -4.884243e-03  -2.270257e-02  0 
 -4.967704e-03  -2.768282e-02  0 
 -2.864159e-03  -2.268477e-02  0 
 -9.535123e-04  -2.267270e-02  0 
 9.975323e-04  -2.267270e-02  0 
 2.908172e-03  -2.268477e-02  0 
 4.928253e-03  -2.270256e-02  0 
 -3.005897e-03  -2.766974e-02  0 
 -9.809223e-04  -2.765632e-02  0 
 1.024934e-03  -2.765632e-02  0 
 3.049908e-03  -2.766974e-02  0 
 5.011719e-03  -2.768281e-02  0 
VECTORS displacement_ITER13 FLOAT
 -4.884257e-03  -2.270257e-02  0 
 -4.967721e-03  -2.768281e-02  0 
 -2.864178e-03  -2.268478e-02  0 
 -9.535321e-04  -2.267270e-02  0 
 9.975385e-04  -2.267270e-02  0 
 2.908182e-03  -2.268477e-02  0 
 4.928263e-03  -2.270257e-02  0 
 -3.005921e-03  -2.766973e-02  0 
 -9.809236e-04  -2.765634e-02  0 
 1.024930e-03  -2.765634e-02  0 
 3.049927e-03  -2.766973e-02  0 
 5.011727e-03  -2.768281e-02  0 
VECTORS displacement_ITER14 FLOAT
 -4.884234e-03  -2.270265e-02  0 
 -4.967698e-03  -2.768286e-02  0 
 -2.864159e-03  -2.268485e-02  0 
 -9.535421e-04  -2.267278e-02  0 
 9.975364e-04  -2.267278e-02  0 
 2.908155e-03  -2.268485e-02  0 
 4.928233e-03  -2.270265e-02  0 
 -3.005912e-03  -2.766979e-02  0 
 -9.809165e-04  -2.765640e-02  0 
 1.024913e-03  -2.765640e-02  0 
 3.049910e-03  -2.766979e-02  0 
 5.011696e-03  -2.768287e-02  0 
VECTORS displacement_ITER15 FLOAT
 -4.884214e-03  -2.270270e-02  0 
 -4.967677e-03  -2.768291e-02  0 
 -2.864138e-03  -2.268491e-02  0 
 -9.535409e-04  -2.267284e-02  0 
 9.975329e-04  -2.267284e-02  0 
 2.908132e-03  -2.268490e-02  0 
 4.928209e-03  -2.270270e-02  0 
 -3.005897e-03  -2.766983e-02  0 
 -9.809095e-04  -2.765644e-02  0 
 1.024901e-03  -2.765644e-02  0 
 3.049891e-03  -2.766983e-02  0 
 5.011673e-03  -2.768291e-02  0 
VECTORS displacement_ITER16 FLOAT
 -4.884195e-03  -2.270274e-02  0 
 -4.967659e-03  -2.768294e-02  0 
 -2.864120e-03  -2.268494e-02  0 
 -9.535358e-04  -2.267289e-02  0 
 9.975340e-04  -2.267289e-02  0 
 2.908121e-03  -2.268494e-02  0 
 4.928197e-03  -2.270274e-02  0 
 -3.005883e-03  -2.766986e-02  0 
 -9.808996e-04  -2.765646e-02  0 
 1.024899e-03  -2.765646e-02  0 
 3.049883e-03  -2.766986e-02  0 
 5.011660e-03  -2.768294e-02  0 
VECTORS displacement_ITER17 FLOAT
 -4.884193e-03  -2.270275e-02  0 
 -4.967657e-03  -2.768294e-02  0 
 -2.864121e-03  -2.268495e-02  0 
 -9.535375e-04  -2.267289e-02  0 
 9.975357e-04  -2.267289e-02  0 
 2.908121e-03  -2.268494e-02  0 
 4.928195e-03  -2.270274e-02  0 
 -3.005884e-03  -2.766986e-02  0 
 -9.808996e-04  -2.765646e-02  0 
 1.024899e-03  -2.765646e-02  0 
 3.049884e-03  -2.766986e-02  0 
 5.011659e-03  -2.768294e-02  0 
VECTORS displacement_ITER18 FLOAT
 -4.884195e-03  -2.270274e-02  0 
 -4.967660e-03  -2.768293e-02  0 
 -2.864123e-03  -2.268494e-02  0 
 -9.535393e-04  -2.267288e-02  0 
 9.975363e-04  -2.267288e-02  0 
 2.908122e-03  -2.268494e-02  0 
 4.928195e-03  -2.270274e-02  0 
 -3.005887e-03  -2.766986e-02  0 
 -9.809005e-04  -2.765646e-02  0 
 1.024898e-03  -2.765646e-02  0 
 3.049885e-03  -2.766985e-02  0 
 5.011660e-03  -2.768293e-02  0 
VECTORS displacement_ITER19 FLOAT
 -4.884196e-03  -2.270273e-02  0 
 -4.967661e-03  -2.768293e-02  0 
 -2.864123e-03  -2.268494e-02  0 
 -9.535391e-04  -2.267287e-02  0 
 9.975369e-04  -2.267287e-02  0 
 2.908123e-03  -2.268493e-02  0 
 4.928197e-03  -2.270273e-02  0 
 -3.005887e-03  -2.766985e-02  0 
 -9.808999e-04  -2.765645e-02  0 
 1.024898e-03  -2.765645e-02  0 
 3.049886e-03  -2.766985e-02  0 
 5.011662e-03  -2.768293e-02  0 
VECTORS displacement_ITER20 FLOAT
 -4.884196e-03  -2.270273e-02  0 
 -4.967662e-03  -2.768293e-02  0 
 -2.864123e-03  -2.268493e-02  0 
 -9.535390e-04  -2.267287e-02  0 
 9.975372e-04  -2.267287e-02  0 
 2.908123e-03  -2.268493e-02  0 
 4.928198e-03  -2.270273e-02  0 
 -3.005887e-03  -2.766985e-02  0 
 -9.808996e-04  -2.765645e-02  0 
 1.024899e-03  -2.765645e-02  0 
 3.049886e-03  -2.766985e-02  0 
 5.011662e-03  -2.768293e-02  0 
VECTORS displacement_ITER21 FLOAT
 -4.884196e-03  -2.270273e-02  0 
 -4.967661e-03  -2.768293e-02  0 
 -2.864123e-03  -2.268493e-02  0 
 -9.535392e-04  -2.267287e-02  0 
 9.975372e-04  -2.267287e-02  0 
 2.908123e-03  -2.268493e-02  0 
 4.928197e-03  -2.270273e-02  0 
 -3.005887e-03  -2.766985e-02  0 
 -9.808997e-04  -2.765645e-02  0 
 1.024898e-03  -2.765645e-02  0 
 3.049886e-03  -2.766985e-02  0 
 5.011662e-03  -2.768293e-02  0 
VECTORS displacement_ITER22 FLOAT
 -4.884196e-03  -2.270273e-02  0 
 -4.967661e-03  -2.768293e-02  0 
 -2.864123e-03  -2.268494e-02  0 
 -9.535392e-04  -2.267287e-02  0 
 9.975372e-04  -2.267287e-02  0 
 2.908123e-03  -2.268493e-02  0 
 4.928197e-03  -2.270273e-02  0 
 -3.005887e-03  -2.766985e-02  0 
 -9.808997e-04  -2.765645e-02  0 
 1.024898e-03  -2.765645e-02  0 
 3.049886e-03  -2.766985e-02  0 
 5.011662e-03  -2.768293e-02  0 
VECTORS displacement_ITER23 FLOAT
 -4.884196e-03  -2.270273e-02  0 
 -4.967661e-03  -2.768293e-02  0 
 -2.864123e-03  -2.268494e-02  0 
 -9.535391e-04  -2.267287e-02  0 
 9.975372e-04  -2.267287e-02  0 
 2.908123e-03  -2.268493e-02  0 
 4.928197e-03  -2.270273e-02  0 
 -3.005887e-03  -2.766985e-02  0 
 -9.808997e-04  -2.765645e-02  0 
 1.024898e-03  -2.765645e-02  0 
 3.049886e-03  -2.766985e-02  0 
 5.011662e-03  -2.768293e-02  0 
VECTORS displacement_ITER24 FLOAT
 -4.884196e-03  -2.270273e-02  0 
 -4.967661e-03  -2.768293e-02  0 
 -2.864123e-03  -2.268494e-02  0 
 -9.535391e-04  -2.267287e-02  0 
 9.975372e-04  -2.267287e-02  0 
 2.908123e-03  -2.268493e-02  0 
 4.928197e-03  -2.270273e-02  0 
 -3.005887e-03  -2.766985e-02  0 
 -9.808997e-04  -2.765645e-02  0 
 1.024898e-03  -2.765645e-02  0 
 3.049886e-03  -2.766985e-02  0 
 5.011662e-03  -2.768293e-02  0 
VECTORS displacement_ITER25 FLOAT
 -4.884196e-03  -2.270273e-02  0 
 -4.967661e-03  -2.768293e-02  0 
 -2.864123e-03  -2.268494e-02  0 
 -9.535391e-04  -2.267287e-02  0 
 9.975372e-04  -2.267287e-02  0 
 2.908123e-03  -2.268493e-02  0 
 4.928197e-03  -2.270273e-02  0 
 -3.005887e-03  -2.766985e-02  0 
 -9.808997e-04  -2.765645e-02  0 
 1.024898e-03  -2.765645e-02  0 
 3.049886e-03  -2.766985e-02  0 
 5.011662e-03  -2.768293e-02  0 
VECTORS displacement_ITER26 FLOAT
 -4.884196e-03  -2.270273e-02  0 
 -4.967661e-03  -2.768293e-02  0 
 -2.864123e-03  -2.268494e-02  0 
 -9.535391e-04  -2.267287e-02  0 
 9.975372e-04  -2.267287e-02  0 
 2.908123e-03  -2.268493e-02  0 
 4.928197e-03  -2.270273e-02  0 
 -3.005887e-03  -2.766985e-02  0 
 -9.808997e-04  -2.765645e-02  0 
 1.024898e-03  -2.765645e-02  0 
 3.049886e-03  -2.766985e-02  0 
 5.011662e-03  -2.768293e-02  0 
CELL_DATA 5
TENSORS element_stresses FLOAT
 -2.220575e-01  -8.072895e-03  0 
 -8.072895e-03  1.057145e-02  0 
 0  0  0 

 -1.648653e-02  -9.966634e-03  0 
 -9.966634e-03  1.419684e-03  0 
 0  0  0 

 1.194224e-06  -5.767103e-02  0 
 -5.767103e-02  1.784666e-06  0 
 0  0  0 

 1.648669e-02  -9.966586e-03  0 
 -9.966586e-03  -1.419112e-03  0 
 0  0  0 

 2.220561e-01  -8.072851e-03  0 
 -8.072851e-03  -1.057109e-02  0 
 0  0  0 

TENSORS element_stresses FLOAT
 -2.220575e-01  -8.072895e-03  0 
 -8.072895e-03  1.057145e-02  0 
 0  0  0 

 -1.648653e-02  -9.966634e-03  0 
 -9.966634e-03  1.419684e-03  0 
 0  0  0 

 1.194224e-06  -5.767103e-02  0 
 -5.767103e-02  1.784666e-06  0 
 0  0  0 

 1.648669e-02  -9.966586e-03  0 
 -9.966586e-03  -1.419112e-03  0 
 0  0  0 

 2.220561e-01  -8.072851e-03  0 
 -8.072851e-03  -1.057109e-02  0 
 0  0  0 

