# vtk DataFile Version 3.1
this is an vtk file created by FEMAC
ASCII
DATASET UNSTRUCTURED_GRID
POINTS 12 FLOAT
1.500000 0.000000 0.000000
2.000000 0.000000 0.000000
1.500000 0.200000 0.000000
1.500000 0.400000 0.000000
1.500000 0.600000 0.000000
1.500000 0.800000 0.000000
1.500000 1.000000 0.000000
2.000000 0.200000 0.000000
2.000000 0.400000 0.000000
2.000000 0.600000 0.000000
2.000000 0.800000 0.000000
2.000000 1.000000 0.000000
CELLS 5 25 
4 0 1 7 2
4 2 7 8 3
4 3 8 9 4
4 4  9 10  5
4 5 10 11  6
CELL_TYPES 5
9 9 9 9 9 
POINT_DATA 12
VECTORS displacement_ITER1 FLOAT
 -2.023184e-03  -3.514641e-03  0 
 -3.404066e-03  -6.145132e-03  0 
 -1.516902e-03  -3.421246e-03  0 
 -4.839604e-04  -3.372323e-03  0 
 5.543142e-04  -3.372323e-03  0 
 1.587256e-03  -3.421246e-03  0 
 2.093538e-03  -3.514641e-03  0 
 -1.874355e-03  -6.252249e-03  0 
 -6.564380e-04  -6.247999e-03  0 
 7.267919e-04  -6.247999e-03  0 
 1.944709e-03  -6.252249e-03  0 
 3.474420e-03  -6.145132e-03  0 
VECTORS displacement_ITER2 FLOAT
 -2.105137e-03  -3.448163e-03  0 
 -3.312077e-03  -6.277715e-03  0 
 -1.425327e-03  -3.479522e-03  0 
 -4.442602e-04  -3.438004e-03  0 
 4.623430e-04  -3.426055e-03  0 
 1.452099e-03  -3.462290e-03  0 
 2.182626e-03  -3.418497e-03  0 
 -1.814978e-03  -6.221803e-03  0 
 -6.294881e-04  -6.198722e-03  0 
 6.471091e-04  -6.208736e-03  0 
 1.844287e-03  -6.235405e-03  0 
 3.348886e-03  -6.298836e-03  0 
VECTORS displacement_ITER3 FLOAT
 -2.183320e-03  -3.454187e-03  0 
 -3.297606e-03  -6.339874e-03  0 
 -1.407766e-03  -3.470656e-03  0 
 -4.112574e-04  -3.433696e-03  0 
 4.867139e-04  -3.467365e-03  0 
 1.457549e-03  -3.509573e-03  0 
 2.162898e-03  -3.522694e-03  0 
 -1.811166e-03  -6.269955e-03  0 
 -6.011574e-04  -6.239070e-03  0 
 6.765801e-04  -6.212743e-03  0 
 1.859718e-03  -6.239584e-03  0 
 3.312222e-03  -6.288695e-03  0 
VECTORS displacement_ITER4 FLOAT
 -2.143121e-03  -3.582347e-03  0 
 -3.248198e-03  -6.292862e-03  0 
 -1.420185e-03  -3.519444e-03  0 
 -4.427078e-04  -3.475802e-03  0 
 4.662203e-04  -3.454454e-03  0 
 1.461866e-03  -3.495609e-03  0 
 2.220802e-03  -3.536828e-03  0 
 -1.829294e-03  -6.269857e-03  0 
 -6.357881e-04  -6.242177e-03  0 
 6.588884e-04  -6.265138e-03  0 
 1.871183e-03  -6.295433e-03  0 
 3.331159e-03  -6.341282e-03  0 
VECTORS displacement_ITER5 FLOAT
 -2.160182e-03  -3.561869e-03  0 
 -3.271721e-03  -6.326534e-03  0 
 -1.419383e-03  -3.510438e-03  0 
 -4.311750e-04  -3.467705e-03  0 
 4.780757e-04  -3.470473e-03  0 
 1.462488e-03  -3.513508e-03  0 
 2.202179e-03  -3.568686e-03  0 
 -1.828400e-03  -6.288106e-03  0 
 -6.245434e-04  -6.259050e-03  0 
 6.708733e-04  -6.255724e-03  0 
 1.872407e-03  -6.284164e-03  0 
 3.306426e-03  -6.317670e-03  0 
VECTORS displacement_ITER6 FLOAT
 -2.158731e-03  -3.560461e-03  0 
 -3.268573e-03  -6.331965e-03  0 
 -1.416741e-03  -3.515303e-03  0 
 -4.299079e-04  -3.472302e-03  0 
 4.771010e-04  -3.474819e-03  0 
 1.460813e-03  -3.517945e-03  0 
 2.199619e-03  -3.567120e-03  0 
 -1.825522e-03  -6.288886e-03  0 
 -6.232209e-04  -6.260281e-03  0 
 6.698029e-04  -6.257794e-03  0 
 1.870224e-03  -6.286295e-03  0 
 3.310161e-03  -6.326308e-03  0 
VECTORS displacement_ITER7 FLOAT
 -2.155046e-03  -3.565593e-03  0 
 -3.265493e-03  -6.329775e-03  0 
 -1.415923e-03  -3.519522e-03  0 
 -4.308117e-04  -3.476403e-03  0 
 4.752283e-04  -3.475640e-03  0 
 1.459704e-03  -3.518676e-03  0 
 2.201529e-03  -3.564710e-03  0 
 -1.824579e-03  -6.288596e-03  0 
 -6.241215e-04  -6.260095e-03  0 
 6.678600e-04  -6.260504e-03  0 
 1.869110e-03  -6.289053e-03  0 
 3.311216e-03  -6.331033e-03  0 
VECTORS displacement_ITER8 FLOAT
 -2.155161e-03  -3.567543e-03  0 
 -3.264740e-03  -6.329418e-03  0 
 -1.415678e-03  -3.520805e-03  0 
 -4.307100e-04  -3.477749e-03  0 
 4.750999e-04  -3.477052e-03  0 
 1.459226e-03  -3.520099e-03  0 
 2.201247e-03  -3.566927e-03  0 
 -1.824419e-03  -6.289768e-03  0 
 -6.240101e-04  -6.261185e-03  0 
 6.676902e-04  -6.261320e-03  0 
 1.868762e-03  -6.289849e-03  0 
 3.309339e-03  -6.329892e-03  0 
VECTORS displacement_ITER9 FLOAT
 -2.155946e-03  -3.567322e-03  0 
 -3.264475e-03  -6.329482e-03  0 
 -1.415449e-03  -3.520973e-03  0 
 -4.305454e-04  -3.477976e-03  0 
 4.751419e-04  -3.477616e-03  0 
 1.458918e-03  -3.520662e-03  0 
 2.201004e-03  -3.567681e-03  0 
 -1.824277e-03  -6.290069e-03  0 
 -6.237904e-04  -6.261437e-03  0 
 6.676693e-04  -6.261227e-03  0 
 1.868523e-03  -6.289768e-03  0 
 3.308488e-03  -6.328976e-03  0 
VECTORS displacement_ITER10 FLOAT
 -2.156108e-03  -3.566681e-03  0 
 -3.264443e-03  -6.329096e-03  0 
 -1.415252e-03  -3.520734e-03  0 
 -4.305672e-04  -3.477764e-03  0 
 4.750248e-04  -3.477233e-03  0 
 1.458696e-03  -3.520258e-03  0 
 2.201309e-03  -3.566678e-03  0 
 -1.824094e-03  -6.289493e-03  0 
 -6.237293e-04  -6.260844e-03  0 
 6.674636e-04  -6.260740e-03  0 
 1.868316e-03  -6.289299e-03  0 
 3.308620e-03  -6.328841e-03  0 
VECTORS displacement_ITER11 FLOAT
 -2.155977e-03  -3.566339e-03  0 
 -3.264562e-03  -6.328574e-03  0 
 -1.415160e-03  -3.520340e-03  0 
 -4.305822e-04  -3.477382e-03  0 
 4.749875e-04  -3.476728e-03  0 
 1.458623e-03  -3.519742e-03  0 
 2.201397e-03  -3.566011e-03  0 
 -1.823980e-03  -6.288941e-03  0 
 -6.236743e-04  -6.260285e-03  0 
 6.673509e-04  -6.260238e-03  0 
 1.868226e-03  -6.288799e-03  0 
 3.308833e-03  -6.328522e-03  0 
VECTORS displacement_ITER12 FLOAT
 -2.155883e-03  -3.566148e-03  0 
 -3.264685e-03  -6.328180e-03  0 
 -1.415116e-03  -3.519948e-03  0 
 -4.305496e-04  -3.477001e-03  0 
 4.750257e-04  -3.476383e-03  0 
 1.458614e-03  -3.519393e-03  0 
 2.201203e-03  -3.565900e-03  0 
 -1.823917e-03  -6.288595e-03  0 
 -6.235835e-04  -6.259936e-03  0 
 6.673286e-04  -6.259832e-03  0 
 1.868194e-03  -6.288389e-03  0 
 3.308920e-03  -6.328018e-03  0 
VECTORS displacement_ITER13 FLOAT
 -2.155865e-03  -3.566123e-03  0 
 -3.264693e-03  -6.328160e-03  0 
 -1.415112e-03  -3.519889e-03  0 
 -4.305397e-04  -3.476947e-03  0 
 4.750306e-04  -3.476348e-03  0 
 1.458614e-03  -3.519358e-03  0 
 2.201108e-03  -3.565939e-03  0 
 -1.823912e-03  -6.288567e-03  0 
 -6.235573e-04  -6.259906e-03  0 
 6.673184e-04  -6.259788e-03  0 
 1.868187e-03  -6.288344e-03  0 
 3.308911e-03  -6.327942e-03  0 
VECTORS displacement_ITER14 FLOAT
 -2.155841e-03  -3.566153e-03  0 
 -3.264668e-03  -6.328257e-03  0 
 -1.415124e-03  -3.519949e-03  0 
 -4.305504e-04  -3.477010e-03  0 
 4.750097e-04  -3.476389e-03  0 
 1.458616e-03  -3.519397e-03  0 
 2.201084e-03  -3.565929e-03  0 
 -1.823925e-03  -6.288632e-03  0 
 -6.235564e-04  -6.259971e-03  0 
 6.672886e-04  -6.259874e-03  0 
 1.868187e-03  -6.288430e-03  0 
 3.308888e-03  -6.328068e-03  0 
VECTORS displacement_ITER15 FLOAT
 -2.155846e-03  -3.566184e-03  0 
 -3.264667e-03  -6.328306e-03  0 
 -1.415140e-03  -3.519990e-03  0 
 -4.305584e-04  -3.477050e-03  0 
 4.750112e-04  -3.476423e-03  0 
 1.458631e-03  -3.519430e-03  0 
 2.201104e-03  -3.565936e-03  0 
 -1.823941e-03  -6.288691e-03  0 
 -6.235606e-04  -6.260031e-03  0 
 6.672873e-04  -6.259938e-03  0 
 1.868202e-03  -6.288494e-03  0 
 3.308886e-03  -6.328131e-03  0 
VECTORS displacement_ITER16 FLOAT
 -2.155873e-03  -3.566211e-03  0 
 -3.264677e-03  -6.328339e-03  0 
 -1.415155e-03  -3.520016e-03  0 
 -4.305624e-04  -3.477074e-03  0 
 4.750277e-04  -3.476456e-03  0 
 1.458653e-03  -3.519465e-03  0 
 2.201125e-03  -3.565980e-03  0 
 -1.823957e-03  -6.288745e-03  0 
 -6.235632e-04  -6.260089e-03  0 
 6.673033e-04  -6.259987e-03  0 
 1.868224e-03  -6.288540e-03  0 
 3.308893e-03  -6.328150e-03  0 
VECTORS displacement_ITER17 FLOAT
 -2.155878e-03  -3.566220e-03  0 
 -3.264680e-03  -6.328357e-03  0 
 -1.415158e-03  -3.520029e-03  0 
 -4.305666e-04  -3.477086e-03  0 
 4.750307e-04  -3.476466e-03  0 
 1.458656e-03  -3.519477e-03  0 
 2.201135e-03  -3.565987e-03  0 
 -1.823961e-03  -6.288756e-03  0 
 -6.235672e-04  -6.260100e-03  0 
 6.673068e-04  -6.260000e-03  0 
 1.868228e-03  -6.288553e-03  0 
 3.308897e-03  -6.328170e-03  0 
VECTORS displacement_ITER18 FLOAT
 -2.155874e-03  -3.566217e-03  0 
 -3.264679e-03  -6.328350e-03  0 
 -1.415158e-03  -3.520025e-03  0 
 -4.305689e-04  -3.477081e-03  0 
 4.750310e-04  -3.476462e-03  0 
 1.458655e-03  -3.519473e-03  0 
 2.201131e-03  -3.565985e-03  0 
 -1.823962e-03  -6.288748e-03  0 
 -6.235691e-04  -6.260092e-03  0 
 6.673069e-04  -6.259994e-03  0 
 1.868227e-03  -6.288546e-03  0 
 3.308896e-03  -6.328166e-03  0 
VECTORS displacement_ITER19 FLOAT
 -2.155873e-03  -3.566215e-03  0 
 -3.264676e-03  -6.328346e-03  0 
 -1.415157e-03  -3.520022e-03  0 
 -4.305684e-04  -3.477078e-03  0 
 4.750311e-04  -3.476460e-03  0 
 1.458654e-03  -3.519471e-03  0 
 2.201130e-03  -3.565985e-03  0 
 -1.823961e-03  -6.288743e-03  0 
 -6.235684e-04  -6.260088e-03  0 
 6.673069e-04  -6.259989e-03  0 
 1.868227e-03  -6.288542e-03  0 
 3.308894e-03  -6.328162e-03  0 
VECTORS displacement_ITER20 FLOAT
 -2.155873e-03  -3.566215e-03  0 
 -3.264675e-03  -6.328346e-03  0 
 -1.415156e-03  -3.520022e-03  0 
 -4.305678e-04  -3.477078e-03  0 
 4.750308e-04  -3.476460e-03  0 
 1.458654e-03  -3.519470e-03  0 
 2.201131e-03  -3.565985e-03  0 
 -1.823960e-03  -6.288743e-03  0 
 -6.235679e-04  -6.260088e-03  0 
 6.673067e-04  -6.259989e-03  0 
 1.868226e-03  -6.288541e-03  0 
 3.308893e-03  -6.328161e-03  0 
VECTORS displacement_ITER21 FLOAT
 -2.155873e-03  -3.566215e-03  0 
 -3.264676e-03  -6.328347e-03  0 
 -1.415156e-03  -3.520022e-03  0 
 -4.305677e-04  -3.477078e-03  0 
 4.750306e-04  -3.476460e-03  0 
 1.458654e-03  -3.519471e-03  0 
 2.201131e-03  -3.565985e-03  0 
 -1.823960e-03  -6.288744e-03  0 
 -6.235678e-04  -6.260089e-03  0 
 6.673065e-04  -6.259990e-03  0 
 1.868226e-03  -6.288542e-03  0 
 3.308893e-03  -6.328162e-03  0 
VECTORS displacement_ITER22 FLOAT
 -2.155873e-03  -3.566215e-03  0 
 -3.264676e-03  -6.328347e-03  0 
 -1.415156e-03  -3.520022e-03  0 
 -4.305678e-04  -3.477078e-03  0 
 4.750306e-04  -3.476461e-03  0 
 1.458654e-03  -3.519471e-03  0 
 2.201131e-03  -3.565986e-03  0 
 -1.823960e-03  -6.288744e-03  0 
 -6.235678e-04  -6.260089e-03  0 
 6.673065e-04  -6.259990e-03  0 
 1.868226e-03  -6.288542e-03  0 
 3.308893e-03  -6.328162e-03  0 
VECTORS displacement_ITER23 FLOAT
 -2.155873e-03  -3.566215e-03  0 
 -3.264676e-03  -6.328347e-03  0 
 -1.415156e-03  -3.520022e-03  0 
 -4.305678e-04  -3.477078e-03  0 
 4.750307e-04  -3.476461e-03  0 
 1.458654e-03  -3.519471e-03  0 
 2.201131e-03  -3.565986e-03  0 
 -1.823960e-03  -6.288744e-03  0 
 -6.235678e-04  -6.260089e-03  0 
 6.673065e-04  -6.259990e-03  0 
 1.868226e-03  -6.288542e-03  0 
 3.308893e-03  -6.328162e-03  0 
VECTORS displacement_ITER24 FLOAT
 -2.155873e-03  -3.566215e-03  0 
 -3.264676e-03  -6.328347e-03  0 
 -1.415156e-03  -3.520022e-03  0 
 -4.305678e-04  -3.477078e-03  0 
 4.750307e-04  -3.476461e-03  0 
 1.458654e-03  -3.519471e-03  0 
 2.201131e-03  -3.565986e-03  0 
 -1.823960e-03  -6.288744e-03  0 
 -6.235678e-04  -6.260089e-03  0 
 6.673065e-04  -6.259990e-03  0 
 1.868226e-03  -6.288542e-03  0 
 3.308893e-03  -6.328162e-03  0 
VECTORS displacement_ITER25 FLOAT
 -2.155873e-03  -3.566215e-03  0 
 -3.264676e-03  -6.328347e-03  0 
 -1.415156e-03  -3.520022e-03  0 
 -4.305678e-04  -3.477078e-03  0 
 4.750307e-04  -3.476461e-03  0 
 1.458654e-03  -3.519471e-03  0 
 2.201131e-03  -3.565986e-03  0 
 -1.823960e-03  -6.288744e-03  0 
 -6.235678e-04  -6.260089e-03  0 
 6.673065e-04  -6.259990e-03  0 
 1.868226e-03  -6.288542e-03  0 
 3.308893e-03  -6.328162e-03  0 
VECTORS displacement_ITER26 FLOAT
 -2.155873e-03  -3.566215e-03  0 
 -3.264676e-03  -6.328347e-03  0 
 -1.415156e-03  -3.520022e-03  0 
 -4.305678e-04  -3.477078e-03  0 
 4.750307e-04  -3.476461e-03  0 
 1.458654e-03  -3.519471e-03  0 
 2.201131e-03  -3.565986e-03  0 
 -1.823960e-03  -6.288744e-03  0 
 -6.235678e-04  -6.260089e-03  0 
 6.673065e-04  -6.259990e-03  0 
 1.868226e-03  -6.288542e-03  0 
 3.308893e-03  -6.328162e-03  0 
CELL_DATA 5
TENSORS element_stresses FLOAT
 -1.596989e-01  -5.943980e-03  0 
 -5.943980e-03  -2.646066e-02  0 
 0  0  0 

 -6.023130e-01  -6.867658e-02  0 
 -6.867658e-02  -1.696180e-03  0 
 0  0  0 

 -2.049724e-05  -5.796703e-03  0 
 -5.796703e-03  1.730780e-04  0 
 0  0  0 

 6.023913e-01  -7.018762e-02  0 
 -7.018762e-02  1.810076e-03  0 
 0  0  0 

 1.596411e-01  -5.645115e-03  0 
 -5.645115e-03  2.635870e-02  0 
 0  0  0 

TENSORS element_stresses FLOAT
 -1.596989e-01  -5.943980e-03  0 
 -5.943980e-03  -2.646066e-02  0 
 0  0  0 

 -6.023130e-01  -6.867658e-02  0 
 -6.867658e-02  -1.696180e-03  0 
 0  0  0 

 -2.049724e-05  -5.796703e-03  0 
 -5.796703e-03  1.730780e-04  0 
 0  0  0 

 6.023913e-01  -7.018762e-02  0 
 -7.018762e-02  1.810076e-03  0 
 0  0  0 

 1.596411e-01  -5.645115e-03  0 
 -5.645115e-03  2.635870e-02  0 
 0  0  0 

