# vtk DataFile Version 3.1
this is an vtk file created by FEMAC
ASCII
DATASET UNSTRUCTURED_GRID
POINTS 12 FLOAT
3.500000 0.000000 0.000000
4.000000 0.000000 0.000000
3.500000 0.200000 0.000000
3.500000 0.400000 0.000000
3.500000 0.600000 0.000000
3.500000 0.800000 0.000000
3.500000 1.000000 0.000000
4.000000 0.200000 0.000000
4.000000 0.400000 0.000000
4.000000 0.600000 0.000000
4.000000 0.800000 0.000000
4.000000 1.000000 0.000000
CELLS 5 25 
4 0 1 7 2
4 2 7 8 3
4 3 8 9 4
4 4  9 10  5
4 5 10 11  6
CELL_TYPES 5
9 9 9 9 9 
POINT_DATA 12
VECTORS displacement_ITER1 FLOAT
 -4.576363e-03  -1.855820e-02  0 
 -5.220449e-03  -2.341133e-02  0 
 -2.897816e-03  -1.849377e-02  0 
 -9.501735e-04  -1.846605e-02  0 
 1.020527e-03  -1.846605e-02  0 
 2.968170e-03  -1.849377e-02  0 
 4.646717e-03  -1.855820e-02  0 
 -3.063003e-03  -2.348325e-02  0 
 -1.028543e-03  -2.348591e-02  0 
 1.098897e-03  -2.348591e-02  0 
 3.133357e-03  -2.348325e-02  0 
 5.290803e-03  -2.341133e-02  0 
VECTORS displacement_ITER2 FLOAT
 -4.434564e-03  -1.808902e-02  0 
 -4.975493e-03  -2.287468e-02  0 
 -2.718150e-03  -1.810411e-02  0 
 -8.811815e-04  -1.808566e-02  0 
 9.090637e-04  -1.808566e-02  0 
 2.746032e-03  -1.810411e-02  0 
 4.462446e-03  -1.808902e-02  0 
 -2.901041e-03  -2.284234e-02  0 
 -9.683161e-04  -2.283087e-02  0 
 9.961983e-04  -2.283087e-02  0 
 2.928923e-03  -2.284234e-02  0 
 5.003375e-03  -2.287468e-02  0 
VECTORS displacement_ITER3 FLOAT
 -4.391302e-03  -1.804014e-02  0 
 -4.908084e-03  -2.277436e-02  0 
 -2.676247e-03  -1.804600e-02  0 
 -8.596338e-04  -1.802741e-02  0 
 9.073139e-04  -1.802741e-02  0 
 2.723927e-03  -1.804600e-02  0 
 4.438983e-03  -1.804014e-02  0 
 -2.864149e-03  -2.273851e-02  0 
 -9.488320e-04  -2.272512e-02  0 
 9.965121e-04  -2.272512e-02  0 
 2.911830e-03  -2.273851e-02  0 
 4.955764e-03  -2.277436e-02  0 
VECTORS displacement_ITER4 FLOAT
 -4.376018e-03  -1.803863e-02  0 
 -4.884943e-03  -2.271696e-02  0 
 -2.673879e-03  -1.801962e-02  0 
 -8.633345e-04  -1.799884e-02  0 
 9.084972e-04  -1.799866e-02  0 
 2.719172e-03  -1.801936e-02  0 
 4.422021e-03  -1.803819e-02  0 
 -2.863993e-03  -2.269777e-02  0 
 -9.531168e-04  -2.268521e-02  0 
 9.982712e-04  -2.268536e-02  0 
 2.909320e-03  -2.269796e-02  0 
 4.930388e-03  -2.271726e-02  0 
VECTORS displacement_ITER5 FLOAT
 -4.376758e-03  -1.803698e-02  0 
 -4.884591e-03  -2.270970e-02  0 
 -2.675167e-03  -1.801470e-02  0 
 -8.647386e-04  -1.799360e-02  0 
 9.087475e-04  -1.799436e-02  0 
 2.718597e-03  -1.801568e-02  0 
 4.417875e-03  -1.803867e-02  0 
 -2.865503e-03  -2.269281e-02  0 
 -9.544209e-04  -2.268045e-02  0 
 9.984379e-04  -2.267984e-02  0 
 2.908848e-03  -2.269205e-02  0 
 4.927302e-03  -2.270848e-02  0 
VECTORS displacement_ITER6 FLOAT
 -4.371902e-03  -1.803768e-02  0 
 -4.882824e-03  -2.270348e-02  0 
 -2.674662e-03  -1.801353e-02  0 
 -8.658175e-04  -1.799185e-02  0 
 9.077739e-04  -1.798946e-02  0 
 2.718440e-03  -1.801065e-02  0 
 4.421497e-03  -1.803254e-02  0 
 -2.864862e-03  -2.268737e-02  0 
 -9.552937e-04  -2.267544e-02  0 
 9.972152e-04  -2.267743e-02  0 
 2.908800e-03  -2.268973e-02  0 
 4.929325e-03  -2.270749e-02  0 
VECTORS displacement_ITER7 FLOAT
 -4.375740e-03  -1.803138e-02  0 
 -4.885219e-03  -2.270655e-02  0 
 -2.673762e-03  -1.800998e-02  0 
 -8.634632e-04  -1.798869e-02  0 
 9.096570e-04  -1.799060e-02  0 
 2.718373e-03  -1.801214e-02  0 
 4.416794e-03  -1.803539e-02  0 
 -2.863997e-03  -2.268803e-02  0 
 -9.527730e-04  -2.267581e-02  0 
 9.989591e-04  -2.267403e-02  0 
 2.908586e-03  -2.268602e-02  0 
 4.926943e-03  -2.270287e-02  0 
VECTORS displacement_ITER8 FLOAT
 -4.372982e-03  -1.803347e-02  0 
 -4.882708e-03  -2.270298e-02  0 
 -2.673778e-03  -1.801120e-02  0 
 -8.649128e-04  -1.798979e-02  0 
 9.079494e-04  -1.798869e-02  0 
 2.717812e-03  -1.800998e-02  0 
 4.418539e-03  -1.803116e-02  0 
 -2.863940e-03  -2.268557e-02  0 
 -9.540858e-04  -2.267354e-02  0 
 9.971186e-04  -2.267475e-02  0 
 2.907940e-03  -2.268693e-02  0 
 4.929123e-03  -2.270561e-02  0 
VECTORS displacement_ITER9 FLOAT
 -4.373368e-03  -1.803157e-02  0 
 -4.884117e-03  -2.270387e-02  0 
 -2.673818e-03  -1.801008e-02  0 
 -8.644402e-04  -1.798876e-02  0 
 9.085221e-04  -1.798879e-02  0 
 2.717796e-03  -1.801011e-02  0 
 4.417478e-03  -1.803168e-02  0 
 -2.863878e-03  -2.268577e-02  0 
 -9.535013e-04  -2.267367e-02  0 
 9.975701e-04  -2.267352e-02  0 
 2.907894e-03  -2.268559e-02  0 
 4.927578e-03  -2.270348e-02  0 
VECTORS displacement_ITER10 FLOAT
 -4.373536e-03  -1.803088e-02  0 
 -4.884122e-03  -2.270330e-02  0 
 -2.673949e-03  -1.800942e-02  0 
 -8.644976e-04  -1.798812e-02  0 
 9.087144e-04  -1.798835e-02  0 
 2.717959e-03  -1.800967e-02  0 
 4.417160e-03  -1.803140e-02  0 
 -2.863990e-03  -2.268537e-02  0 
 -9.534632e-04  -2.267330e-02  0 
 9.976731e-04  -2.267305e-02  0 
 2.908004e-03  -2.268511e-02  0 
 4.927746e-03  -2.270276e-02  0 
VECTORS displacement_ITER11 FLOAT
 -4.373409e-03  -1.803092e-02  0 
 -4.883981e-03  -2.270255e-02  0 
 -2.674067e-03  -1.800919e-02  0 
 -8.647348e-04  -1.798788e-02  0 
 9.086389e-04  -1.798779e-02  0 
 2.718046e-03  -1.800910e-02  0 
 4.417502e-03  -1.803069e-02  0 
 -2.864106e-03  -2.268491e-02  0 
 -9.536397e-04  -2.267286e-02  0 
 9.975389e-04  -2.267296e-02  0 
 2.908084e-03  -2.268502e-02  0 
 4.928200e-03  -2.270282e-02  0 
VECTORS displacement_ITER12 FLOAT
 -4.373565e-03  -1.803060e-02  0 
 -4.884197e-03  -2.270246e-02  0 
 -2.674106e-03  -1.800889e-02  0 
 -8.647548e-04  -1.798759e-02  0 
 9.087086e-04  -1.798753e-02  0 
 2.718102e-03  -1.800884e-02  0 
 4.417637e-03  -1.803046e-02  0 
 -2.864149e-03  -2.268475e-02  0 
 -9.536086e-04  -2.267269e-02  0 
 9.975576e-04  -2.267275e-02  0 
 2.908147e-03  -2.268481e-02  0 
 4.928295e-03  -2.270261e-02  0 
VECTORS displacement_ITER13 FLOAT
 -4.373661e-03  -1.803046e-02  0 
 -4.884284e-03  -2.270259e-02  0 
 -2.674094e-03  -1.800884e-02  0 
 -8.647238e-04  -1.798754e-02  0 
 9.087560e-04  -1.798756e-02  0 
 2.718104e-03  -1.800886e-02  0 
 4.417599e-03  -1.803053e-02  0 
 -2.864141e-03  -2.268478e-02  0 
 -9.535560e-04  -2.267272e-02  0 
 9.975838e-04  -2.267270e-02  0 
 2.908152e-03  -2.268476e-02  0 
 4.928263e-03  -2.270253e-02  0 
VECTORS displacement_ITER14 FLOAT
 -4.373639e-03  -1.803058e-02  0 
 -4.884255e-03  -2.270268e-02  0 
 -2.674080e-03  -1.800894e-02  0 
 -8.647408e-04  -1.798765e-02  0 
 9.087528e-04  -1.798765e-02  0 
 2.718081e-03  -1.800895e-02  0 
 4.417599e-03  -1.803061e-02  0 
 -2.864132e-03  -2.268485e-02  0 
 -9.535478e-04  -2.267279e-02  0 
 9.975556e-04  -2.267277e-02  0 
 2.908134e-03  -2.268484e-02  0 
 4.928235e-03  -2.270264e-02  0 
VECTORS displacement_ITER15 FLOAT
 -4.373609e-03  -1.803070e-02  0 
 -4.884214e-03  -2.270270e-02  0 
 -2.674075e-03  -1.800903e-02  0 
 -8.647554e-04  -1.798773e-02  0 
 9.087460e-04  -1.798771e-02  0 
 2.718069e-03  -1.800901e-02  0 
 4.417607e-03  -1.803067e-02  0 
 -2.864131e-03  -2.268490e-02  0 
 -9.535523e-04  -2.267284e-02  0 
 9.975387e-04  -2.267284e-02  0 
 2.908127e-03  -2.268490e-02  0 
 4.928213e-03  -2.270271e-02  0 
VECTORS displacement_ITER16 FLOAT
 -4.373618e-03  -1.803074e-02  0 
 -4.884192e-03  -2.270274e-02  0 
 -2.674066e-03  -1.800907e-02  0 
 -8.647492e-04  -1.798777e-02  0 
 9.087541e-04  -1.798777e-02  0 
 2.718064e-03  -1.800907e-02  0 
 4.417590e-03  -1.803074e-02  0 
 -2.864125e-03  -2.268495e-02  0 
 -9.535407e-04  -2.267288e-02  0 
 9.975417e-04  -2.267288e-02  0 
 2.908125e-03  -2.268494e-02  0 
 4.928192e-03  -2.270273e-02  0 
VECTORS displacement_ITER17 FLOAT
 -4.373615e-03  -1.803073e-02  0 
 -4.884192e-03  -2.270275e-02  0 
 -2.674062e-03  -1.800908e-02  0 
 -8.647501e-04  -1.798778e-02  0 
 9.087525e-04  -1.798778e-02  0 
 2.718061e-03  -1.800907e-02  0 
 4.417594e-03  -1.803073e-02  0 
 -2.864121e-03  -2.268495e-02  0 
 -9.535391e-04  -2.267288e-02  0 
 9.975374e-04  -2.267288e-02  0 
 2.908121e-03  -2.268494e-02  0 
 4.928194e-03  -2.270275e-02  0 
VECTORS displacement_ITER18 FLOAT
 -4.373613e-03  -1.803073e-02  0 
 -4.884195e-03  -2.270274e-02  0 
 -2.674065e-03  -1.800907e-02  0 
 -8.647519e-04  -1.798777e-02  0 
 9.087534e-04  -1.798777e-02  0 
 2.718063e-03  -1.800907e-02  0 
 4.417594e-03  -1.803073e-02  0 
 -2.864123e-03  -2.268494e-02  0 
 -9.535399e-04  -2.267288e-02  0 
 9.975372e-04  -2.267288e-02  0 
 2.908123e-03  -2.268494e-02  0 
 4.928195e-03  -2.270273e-02  0 
VECTORS displacement_ITER19 FLOAT
 -4.373614e-03  -1.803072e-02  0 
 -4.884196e-03  -2.270274e-02  0 
 -2.674065e-03  -1.800906e-02  0 
 -8.647516e-04  -1.798777e-02  0 
 9.087541e-04  -1.798776e-02  0 
 2.718063e-03  -1.800906e-02  0 
 4.417593e-03  -1.803072e-02  0 
 -2.864123e-03  -2.268494e-02  0 
 -9.535392e-04  -2.267287e-02  0 
 9.975373e-04  -2.267287e-02  0 
 2.908123e-03  -2.268493e-02  0 
 4.928197e-03  -2.270273e-02  0 
VECTORS displacement_ITER20 FLOAT
 -4.373613e-03  -1.803072e-02  0 
 -4.884196e-03  -2.270273e-02  0 
 -2.674065e-03  -1.800906e-02  0 
 -8.647518e-04  -1.798777e-02  0 
 9.087543e-04  -1.798776e-02  0 
 2.718064e-03  -1.800906e-02  0 
 4.417593e-03  -1.803072e-02  0 
 -2.864123e-03  -2.268493e-02  0 
 -9.535391e-04  -2.267287e-02  0 
 9.975372e-04  -2.267287e-02  0 
 2.908123e-03  -2.268493e-02  0 
 4.928198e-03  -2.270273e-02  0 
VECTORS displacement_ITER21 FLOAT
 -4.373612e-03  -1.803072e-02  0 
 -4.884196e-03  -2.270273e-02  0 
 -2.674065e-03  -1.800906e-02  0 
 -8.647520e-04  -1.798777e-02  0 
 9.087543e-04  -1.798776e-02  0 
 2.718064e-03  -1.800906e-02  0 
 4.417593e-03  -1.803072e-02  0 
 -2.864123e-03  -2.268493e-02  0 
 -9.535392e-04  -2.267287e-02  0 
 9.975372e-04  -2.267287e-02  0 
 2.908123e-03  -2.268493e-02  0 
 4.928197e-03  -2.270273e-02  0 
VECTORS displacement_ITER22 FLOAT
 -4.373613e-03  -1.803072e-02  0 
 -4.884196e-03  -2.270273e-02  0 
 -2.674065e-03  -1.800906e-02  0 
 -8.647519e-04  -1.798777e-02  0 
 9.087543e-04  -1.798776e-02  0 
 2.718063e-03  -1.800906e-02  0 
 4.417593e-03  -1.803072e-02  0 
 -2.864123e-03  -2.268494e-02  0 
 -9.535392e-04  -2.267287e-02  0 
 9.975372e-04  -2.267287e-02  0 
 2.908123e-03  -2.268493e-02  0 
 4.928197e-03  -2.270273e-02  0 
VECTORS displacement_ITER23 FLOAT
 -4.373613e-03  -1.803072e-02  0 
 -4.884196e-03  -2.270273e-02  0 
 -2.674065e-03  -1.800906e-02  0 
 -8.647519e-04  -1.798777e-02  0 
 9.087543e-04  -1.798776e-02  0 
 2.718064e-03  -1.800906e-02  0 
 4.417593e-03  -1.803072e-02  0 
 -2.864123e-03  -2.268494e-02  0 
 -9.535391e-04  -2.267287e-02  0 
 9.975372e-04  -2.267287e-02  0 
 2.908123e-03  -2.268493e-02  0 
 4.928197e-03  -2.270273e-02  0 
VECTORS displacement_ITER24 FLOAT
 -4.373613e-03  -1.803072e-02  0 
 -4.884196e-03  -2.270273e-02  0 
 -2.674065e-03  -1.800906e-02  0 
 -8.647518e-04  -1.798777e-02  0 
 9.087543e-04  -1.798776e-02  0 
 2.718064e-03  -1.800906e-02  0 
 4.417593e-03  -1.803072e-02  0 
 -2.864123e-03  -2.268494e-02  0 
 -9.535391e-04  -2.267287e-02  0 
 9.975372e-04  -2.267287e-02  0 
 2.908123e-03  -2.268493e-02  0 
 4.928197e-03  -2.270273e-02  0 
VECTORS displacement_ITER25 FLOAT
 -4.373613e-03  -1.803072e-02  0 
 -4.884196e-03  -2.270273e-02  0 
 -2.674065e-03  -1.800906e-02  0 
 -8.647518e-04  -1.798777e-02  0 
 9.087543e-04  -1.798776e-02  0 
 2.718063e-03  -1.800906e-02  0 
 4.417593e-03  -1.803072e-02  0 
 -2.864123e-03  -2.268494e-02  0 
 -9.535391e-04  -2.267287e-02  0 
 9.975372e-04  -2.267287e-02  0 
 2.908123e-03  -2.268493e-02  0 
 4.928197e-03  -2.270273e-02  0 
VECTORS displacement_ITER26 FLOAT
 -4.373613e-03  -1.803072e-02  0 
 -4.884196e-03  -2.270273e-02  0 
 -2.674065e-03  -1.800906e-02  0 
 -8.647518e-04  -1.798777e-02  0 
 9.087543e-04  -1.798776e-02  0 
 2.718063e-03  -1.800906e-02  0 
 4.417593e-03  -1.803072e-02  0 
 -2.864123e-03  -2.268494e-02  0 
 -9.535391e-04  -2.267287e-02  0 
 9.975372e-04  -2.267287e-02  0 
 2.908123e-03  -2.268493e-02  0 
 4.928197e-03  -2.270273e-02  0 
CELL_DATA 5
TENSORS element_stresses FLOAT
 -7.374175e-02  -3.756505e-03  0 
 -3.756505e-03  -1.225871e-02  0 
 0  0  0 

 -2.789297e-01  -4.710351e-02  0 
 -4.710351e-02  -2.816258e-04  0 
 0  0  0 

 -7.257020e-08  -4.520005e-03  0 
 -4.520005e-03  1.207370e-06  0 
 0  0  0 

 2.789273e-01  -4.711045e-02  0 
 -4.711045e-02  2.826568e-04  0 
 0  0  0 

 7.374416e-02  -3.759530e-03  0 
 -3.759530e-03  1.225921e-02  0 
 0  0  0 

TENSORS element_stresses FLOAT
 -7.374175e-02  -3.756505e-03  0 
 -3.756505e-03  -1.225871e-02  0 
 0  0  0 

 -2.789297e-01  -4.710351e-02  0 
 -4.710351e-02  -2.816258e-04  0 
 0  0  0 

 -7.257020e-08  -4.520005e-03  0 
 -4.520005e-03  1.207370e-06  0 
 0  0  0 

 2.789273e-01  -4.711045e-02  0 
 -4.711045e-02  2.826568e-04  0 
 0  0  0 

 7.374416e-02  -3.759530e-03  0 
 -3.759530e-03  1.225921e-02  0 
 0  0  0 

