# vtk DataFile Version 3.1
this is an vtk file created by FEMAC
ASCII
DATASET UNSTRUCTURED_GRID
POINTS 12 FLOAT
2.500000 0.000000 0.000000
3.000000 0.000000 0.000000
2.500000 0.200000 0.000000
2.500000 0.400000 0.000000
2.500000 0.600000 0.000000
2.500000 0.800000 0.000000
2.500000 1.000000 0.000000
3.000000 0.200000 0.000000
3.000000 0.400000 0.000000
3.000000 0.600000 0.000000
3.000000 0.800000 0.000000
3.000000 1.000000 0.000000
CELLS 5 25 
4 0 1 7 2
4 2 7 8 3
4 3 8 9 4
4 4  9 10  5
4 5 10 11  6
CELL_TYPES 5
9 9 9 9 9 
POINT_DATA 12
VECTORS displacement_ITER1 FLOAT
 -3.519380e-03  -9.861379e-03  0 
 -4.496779e-03  -1.380525e-02  0 
 -2.333175e-03  -9.782319e-03  0 
 -7.597204e-04  -9.744665e-03  0 
 8.300742e-04  -9.744665e-03  0 
 2.403529e-03  -9.782319e-03  0 
 3.589734e-03  -9.861379e-03  0 
 -2.585340e-03  -1.389462e-02  0 
 -8.806627e-04  -1.389450e-02  0 
 9.510166e-04  -1.389450e-02  0 
 2.655694e-03  -1.389462e-02  0 
 4.567133e-03  -1.380525e-02  0 
VECTORS displacement_ITER2 FLOAT
 -3.489406e-03  -9.700276e-03  0 
 -4.316302e-03  -1.369945e-02  0 
 -2.187369e-03  -9.717144e-03  0 
 -6.963490e-04  -9.690134e-03  0 
 7.242312e-04  -9.690134e-03  0 
 2.215251e-03  -9.717144e-03  0 
 3.517288e-03  -9.700276e-03  0 
 -2.465521e-03  -1.365774e-02  0 
 -8.298771e-04  -1.363934e-02  0 
 8.577593e-04  -1.363934e-02  0 
 2.493404e-03  -1.365774e-02  0 
 4.344185e-03  -1.369945e-02  0 
VECTORS displacement_ITER3 FLOAT
 -3.474380e-03  -9.718255e-03  0 
 -4.262796e-03  -1.368864e-02  0 
 -2.155129e-03  -9.723698e-03  0 
 -6.771221e-04  -9.696532e-03  0 
 7.259415e-04  -9.697961e-03  0 
 2.202919e-03  -9.725741e-03  0 
 3.516623e-03  -9.721610e-03  0 
 -2.440945e-03  -1.363951e-02  0 
 -8.138014e-04  -1.361824e-02  0 
 8.626898e-04  -1.361707e-02  0 
 2.488471e-03  -1.363795e-02  0 
 4.309412e-03  -1.368627e-02  0 
VECTORS displacement_ITER4 FLOAT
 -3.457025e-03  -9.766136e-03  0 
 -4.239154e-03  -1.366275e-02  0 
 -2.158010e-03  -9.734995e-03  0 
 -6.862360e-04  -9.704005e-03  0 
 7.263635e-04  -9.697762e-03  0 
 2.202873e-03  -9.727245e-03  0 
 3.519212e-03  -9.752361e-03  0 
 -2.447089e-03  -1.363542e-02  0 
 -8.241683e-04  -1.361566e-02  0 
 8.642541e-04  -1.362062e-02  0 
 2.492503e-03  -1.364147e-02  0 
 4.290143e-03  -1.367275e-02  0 
VECTORS displacement_ITER5 FLOAT
 -3.470795e-03  -9.759350e-03  0 
 -4.244704e-03  -1.366942e-02  0 
 -2.159060e-03  -9.728114e-03  0 
 -6.829535e-04  -9.697755e-03  0 
 7.316956e-04  -9.703806e-03  0 
 2.203065e-03  -9.735057e-03  0 
 3.502928e-03  -9.771893e-03  0 
 -2.448912e-03  -1.364123e-02  0 
 -8.207883e-04  -1.362086e-02  0 
 8.696078e-04  -1.361549e-02  0 
 2.492717e-03  -1.363512e-02  0 
 4.280503e-03  -1.365859e-02  0 
VECTORS displacement_ITER6 FLOAT
 -3.459987e-03  -9.772341e-03  0 
 -4.235375e-03  -1.365706e-02  0 
 -2.158669e-03  -9.734758e-03  0 
 -6.881736e-04  -9.703411e-03  0 
 7.264805e-04  -9.697886e-03  0 
 2.201962e-03  -9.728673e-03  0 
 3.511444e-03  -9.760858e-03  0 
 -2.448546e-03  -1.363362e-02  0 
 -8.256636e-04  -1.361415e-02  0 
 8.640509e-04  -1.361995e-02  0 
 2.491657e-03  -1.364009e-02  0 
 4.289320e-03  -1.366938e-02  0 
VECTORS displacement_ITER7 FLOAT
 -3.462205e-03  -9.765078e-03  0 
 -4.240927e-03  -1.366438e-02  0 
 -2.157305e-03  -9.731947e-03  0 
 -6.847620e-04  -9.700902e-03  0 
 7.294567e-04  -9.700996e-03  0 
 2.201781e-03  -9.732095e-03  0 
 3.506915e-03  -9.765640e-03  0 
 -2.446915e-03  -1.363622e-02  0 
 -8.219549e-04  -1.361642e-02  0 
 8.667003e-04  -1.361595e-02  0 
 2.491428e-03  -1.363563e-02  0 
 4.283538e-03  -1.366291e-02  0 
VECTORS displacement_ITER8 FLOAT
 -3.461767e-03  -9.763620e-03  0 
 -4.240225e-03  -1.366418e-02  0 
 -2.156962e-03  -9.731817e-03  0 
 -6.846476e-04  -9.700809e-03  0 
 7.294735e-04  -9.701453e-03  0 
 2.201350e-03  -9.732501e-03  0 
 3.505052e-03  -9.765106e-03  0 
 -2.446449e-03  -1.363561e-02  0 
 -8.215597e-04  -1.361590e-02  0 
 8.664546e-04  -1.361525e-02  0 
 2.490773e-03  -1.363493e-02  0 
 4.283555e-03  -1.366274e-02  0 
VECTORS displacement_ITER9 FLOAT
 -3.460573e-03  -9.764223e-03  0 
 -4.239393e-03  -1.366226e-02  0 
 -2.157139e-03  -9.731920e-03  0 
 -6.852898e-04  -9.700892e-03  0 
 7.290304e-04  -9.700762e-03  0 
 2.201130e-03  -9.731752e-03  0 
 3.504917e-03  -9.763723e-03  0 
 -2.446537e-03  -1.363458e-02  0 
 -8.220119e-04  -1.361495e-02  0 
 8.658214e-04  -1.361515e-02  0 
 2.490467e-03  -1.363483e-02  0 
 4.283822e-03  -1.366291e-02  0 
VECTORS displacement_ITER10 FLOAT
 -3.460421e-03  -9.763738e-03  0 
 -4.239545e-03  -1.366149e-02  0 
 -2.157257e-03  -9.731223e-03  0 
 -6.853706e-04  -9.700204e-03  0 
 7.291885e-04  -9.700164e-03  0 
 2.201227e-03  -9.731153e-03  0 
 3.504706e-03  -9.763444e-03  0 
 -2.446621e-03  -1.363406e-02  0 
 -8.219661e-04  -1.361445e-02  0 
 8.658492e-04  -1.361455e-02  0 
 2.490546e-03  -1.363419e-02  0 
 4.283593e-03  -1.366181e-02  0 
VECTORS displacement_ITER11 FLOAT
 -3.460595e-03  -9.762948e-03  0 
 -4.239799e-03  -1.366125e-02  0 
 -2.157268e-03  -9.730562e-03  0 
 -6.853136e-04  -9.699553e-03  0 
 7.293542e-04  -9.699683e-03  0 
 2.201321e-03  -9.730672e-03  0 
 3.504624e-03  -9.763135e-03  0 
 -2.446624e-03  -1.363367e-02  0 
 -8.218261e-04  -1.361405e-02  0 
 8.659301e-04  -1.361399e-02  0 
 2.490630e-03  -1.363363e-02  0 
 4.283650e-03  -1.366110e-02  0 
VECTORS displacement_ITER12 FLOAT
 -3.460586e-03  -9.762521e-03  0 
 -4.239929e-03  -1.366095e-02  0 
 -2.157289e-03  -9.730174e-03  0 
 -6.853689e-04  -9.699167e-03  0 
 7.293575e-04  -9.699228e-03  0 
 2.201340e-03  -9.730209e-03  0 
 3.504737e-03  -9.762571e-03  0 
 -2.446631e-03  -1.363327e-02  0 
 -8.218105e-04  -1.361366e-02  0 
 8.658593e-04  -1.361366e-02  0 
 2.490640e-03  -1.363329e-02  0 
 4.283879e-03  -1.366092e-02  0 
VECTORS displacement_ITER13 FLOAT
 -3.460533e-03  -9.762571e-03  0 
 -4.239930e-03  -1.366087e-02  0 
 -2.157310e-03  -9.730154e-03  0 
 -6.854093e-04  -9.699146e-03  0 
 7.293463e-04  -9.699168e-03  0 
 2.201337e-03  -9.730146e-03  0 
 3.504761e-03  -9.762494e-03  0 
 -2.446649e-03  -1.363322e-02  0 
 -8.218263e-04  -1.361362e-02  0 
 8.658215e-04  -1.361365e-02  0 
 2.490637e-03  -1.363328e-02  0 
 4.283920e-03  -1.366095e-02  0 
VECTORS displacement_ITER14 FLOAT
 -3.460526e-03  -9.762725e-03  0 
 -4.239902e-03  -1.366095e-02  0 
 -2.157325e-03  -9.730242e-03  0 
 -6.854216e-04  -9.699235e-03  0 
 7.293723e-04  -9.699285e-03  0 
 2.201343e-03  -9.730264e-03  0 
 3.504708e-03  -9.762684e-03  0 
 -2.446668e-03  -1.363335e-02  0 
 -8.218153e-04  -1.361374e-02  0 
 8.658220e-04  -1.361375e-02  0 
 2.490648e-03  -1.363338e-02  0 
 4.283879e-03  -1.366101e-02  0 
VECTORS displacement_ITER15 FLOAT
 -3.460551e-03  -9.762771e-03  0 
 -4.239888e-03  -1.366106e-02  0 
 -2.157319e-03  -9.730319e-03  0 
 -6.854199e-04  -9.699311e-03  0 
 7.293819e-04  -9.699371e-03  0 
 2.201340e-03  -9.730351e-03  0 
 3.504709e-03  -9.762767e-03  0 
 -2.446667e-03  -1.363343e-02  0 
 -8.218047e-04  -1.361382e-02  0 
 8.658218e-04  -1.361383e-02  0 
 2.490651e-03  -1.363346e-02  0 
 4.283860e-03  -1.366109e-02  0 
VECTORS displacement_ITER16 FLOAT
 -3.460568e-03  -9.762804e-03  0 
 -4.239880e-03  -1.366113e-02  0 
 -2.157312e-03  -9.730385e-03  0 
 -6.854251e-04  -9.699377e-03  0 
 7.293768e-04  -9.699420e-03  0 
 2.201333e-03  -9.730400e-03  0 
 3.504752e-03  -9.762777e-03  0 
 -2.446663e-03  -1.363347e-02  0 
 -8.218053e-04  -1.361387e-02  0 
 8.658119e-04  -1.361389e-02  0 
 2.490649e-03  -1.363351e-02  0 
 4.283855e-03  -1.366117e-02  0 
VECTORS displacement_ITER17 FLOAT
 -3.460574e-03  -9.762826e-03  0 
 -4.239876e-03  -1.366112e-02  0 
 -2.157313e-03  -9.730391e-03  0 
 -6.854256e-04  -9.699383e-03  0 
 7.293810e-04  -9.699430e-03  0 
 2.201336e-03  -9.730410e-03  0 
 3.504755e-03  -9.762802e-03  0 
 -2.446666e-03  -1.363349e-02  0 
 -8.218042e-04  -1.361388e-02  0 
 8.658144e-04  -1.361390e-02  0 
 2.490653e-03  -1.363352e-02  0 
 4.283850e-03  -1.366116e-02  0 
VECTORS displacement_ITER18 FLOAT
 -3.460576e-03  -9.762817e-03  0 
 -4.239878e-03  -1.366112e-02  0 
 -2.157311e-03  -9.730384e-03  0 
 -6.854241e-04  -9.699376e-03  0 
 7.293801e-04  -9.699424e-03  0 
 2.201334e-03  -9.730404e-03  0 
 3.504753e-03  -9.762795e-03  0 
 -2.446664e-03  -1.363348e-02  0 
 -8.218021e-04  -1.361388e-02  0 
 8.658129e-04  -1.361389e-02  0 
 2.490650e-03  -1.363352e-02  0 
 4.283852e-03  -1.366115e-02  0 
VECTORS displacement_ITER19 FLOAT
 -3.460573e-03  -9.762811e-03  0 
 -4.239879e-03  -1.366111e-02  0 
 -2.157310e-03  -9.730378e-03  0 
 -6.854236e-04  -9.699371e-03  0 
 7.293791e-04  -9.699418e-03  0 
 2.201333e-03  -9.730398e-03  0 
 3.504752e-03  -9.762788e-03  0 
 -2.446663e-03  -1.363347e-02  0 
 -8.218015e-04  -1.361387e-02  0 
 8.658118e-04  -1.361388e-02  0 
 2.490649e-03  -1.363351e-02  0 
 4.283853e-03  -1.366115e-02  0 
VECTORS displacement_ITER20 FLOAT
 -3.460572e-03  -9.762810e-03  0 
 -4.239878e-03  -1.366111e-02  0 
 -2.157310e-03  -9.730377e-03  0 
 -6.854234e-04  -9.699370e-03  0 
 7.293791e-04  -9.699417e-03  0 
 2.201333e-03  -9.730397e-03  0 
 3.504750e-03  -9.762787e-03  0 
 -2.446663e-03  -1.363347e-02  0 
 -8.218014e-04  -1.361387e-02  0 
 8.658120e-04  -1.361388e-02  0 
 2.490649e-03  -1.363351e-02  0 
 4.283853e-03  -1.366115e-02  0 
VECTORS displacement_ITER21 FLOAT
 -3.460572e-03  -9.762811e-03  0 
 -4.239878e-03  -1.366111e-02  0 
 -2.157310e-03  -9.730378e-03  0 
 -6.854234e-04  -9.699371e-03  0 
 7.293792e-04  -9.699418e-03  0 
 2.201333e-03  -9.730398e-03  0 
 3.504750e-03  -9.762788e-03  0 
 -2.446663e-03  -1.363347e-02  0 
 -8.218015e-04  -1.361387e-02  0 
 8.658121e-04  -1.361388e-02  0 
 2.490649e-03  -1.363351e-02  0 
 4.283852e-03  -1.366115e-02  0 
VECTORS displacement_ITER22 FLOAT
 -3.460572e-03  -9.762811e-03  0 
 -4.239878e-03  -1.366111e-02  0 
 -2.157310e-03  -9.730379e-03  0 
 -6.854235e-04  -9.699371e-03  0 
 7.293792e-04  -9.699418e-03  0 
 2.201333e-03  -9.730398e-03  0 
 3.504751e-03  -9.762788e-03  0 
 -2.446663e-03  -1.363347e-02  0 
 -8.218016e-04  -1.361387e-02  0 
 8.658122e-04  -1.361388e-02  0 
 2.490649e-03  -1.363351e-02  0 
 4.283853e-03  -1.366115e-02  0 
VECTORS displacement_ITER23 FLOAT
 -3.460572e-03  -9.762811e-03  0 
 -4.239879e-03  -1.366111e-02  0 
 -2.157310e-03  -9.730379e-03  0 
 -6.854235e-04  -9.699371e-03  0 
 7.293792e-04  -9.699418e-03  0 
 2.201333e-03  -9.730398e-03  0 
 3.504751e-03  -9.762788e-03  0 
 -2.446663e-03  -1.363347e-02  0 
 -8.218016e-04  -1.361387e-02  0 
 8.658123e-04  -1.361388e-02  0 
 2.490649e-03  -1.363351e-02  0 
 4.283853e-03  -1.366115e-02  0 
VECTORS displacement_ITER24 FLOAT
 -3.460572e-03  -9.762811e-03  0 
 -4.239879e-03  -1.366111e-02  0 
 -2.157310e-03  -9.730379e-03  0 
 -6.854236e-04  -9.699371e-03  0 
 7.293793e-04  -9.699418e-03  0 
 2.201333e-03  -9.730398e-03  0 
 3.504751e-03  -9.762788e-03  0 
 -2.446663e-03  -1.363347e-02  0 
 -8.218017e-04  -1.361387e-02  0 
 8.658123e-04  -1.361388e-02  0 
 2.490649e-03  -1.363351e-02  0 
 4.283853e-03  -1.366115e-02  0 
VECTORS displacement_ITER25 FLOAT
 -3.460572e-03  -9.762811e-03  0 
 -4.239878e-03  -1.366111e-02  0 
 -2.157310e-03  -9.730379e-03  0 
 -6.854235e-04  -9.699371e-03  0 
 7.293792e-04  -9.699418e-03  0 
 2.201333e-03  -9.730398e-03  0 
 3.504751e-03  -9.762788e-03  0 
 -2.446663e-03  -1.363347e-02  0 
 -8.218017e-04  -1.361387e-02  0 
 8.658123e-04  -1.361388e-02  0 
 2.490649e-03  -1.363351e-02  0 
 4.283853e-03  -1.366115e-02  0 
VECTORS displacement_ITER26 FLOAT
 -3.460572e-03  -9.762811e-03  0 
 -4.239878e-03  -1.366111e-02  0 
 -2.157310e-03  -9.730379e-03  0 
 -6.854235e-04  -9.699371e-03  0 
 7.293792e-04  -9.699418e-03  0 
 2.201333e-03  -9.730398e-03  0 
 3.504751e-03  -9.762788e-03  0 
 -2.446663e-03  -1.363347e-02  0 
 -8.218016e-04  -1.361387e-02  0 
 8.658123e-04  -1.361388e-02  0 
 2.490649e-03  -1.363351e-02  0 
 4.283853e-03  -1.366115e-02  0 
CELL_DATA 5
TENSORS element_stresses FLOAT
 -1.124843e-01  -4.630632e-03  0 
 -4.630632e-03  -1.872804e-02  0 
 0  0  0 

 -4.261244e-01  -5.824894e-02  0 
 -5.824894e-02  -1.312647e-03  0 
 0  0  0 

 1.285611e-06  -5.609221e-03  0 
 -5.609221e-03  -1.403088e-05  0 
 0  0  0 

 4.261462e-01  -5.815199e-02  0 
 -5.815199e-02  1.323250e-03  0 
 0  0  0 

 1.124611e-01  -4.609217e-03  0 
 -4.609217e-03  1.873101e-02  0 
 0  0  0 

TENSORS element_stresses FLOAT
 -1.124843e-01  -4.630632e-03  0 
 -4.630632e-03  -1.872804e-02  0 
 0  0  0 

 -4.261244e-01  -5.824894e-02  0 
 -5.824894e-02  -1.312647e-03  0 
 0  0  0 

 1.285611e-06  -5.609221e-03  0 
 -5.609221e-03  -1.403088e-05  0 
 0  0  0 

 4.261462e-01  -5.815199e-02  0 
 -5.815199e-02  1.323250e-03  0 
 0  0  0 

 1.124611e-01  -4.609217e-03  0 
 -4.609217e-03  1.873101e-02  0 
 0  0  0 

