# vtk DataFile Version 3.1
this is an vtk file created by FEMAC
ASCII
DATASET UNSTRUCTURED_GRID
POINTS 12 FLOAT
3.000000 0.000000 0.000000
3.500000 0.000000 0.000000
3.000000 0.200000 0.000000
3.000000 0.400000 0.000000
3.000000 0.600000 0.000000
3.000000 0.800000 0.000000
3.000000 1.000000 0.000000
3.500000 0.200000 0.000000
3.500000 0.400000 0.000000
3.500000 0.600000 0.000000
3.500000 0.800000 0.000000
3.500000 1.000000 0.000000
CELLS 5 25 
4 0 1 7 2
4 2 7 8 3
4 3 8 9 4
4 4  9 10  5
4 5 10 11  6
CELL_TYPES 5
9 9 9 9 9 
POINT_DATA 12
VECTORS displacement_ITER1 FLOAT
 -4.485558e-03  -1.391483e-02  0 
 -4.633233e-03  -1.852565e-02  0 
 -2.607796e-03  -1.388021e-02  0 
 -8.693997e-04  -1.379934e-02  0 
 9.397536e-04  -1.379934e-02  0 
 2.678150e-03  -1.388021e-02  0 
 4.555912e-03  -1.391483e-02  0 
 -2.815787e-03  -1.850385e-02  0 
 -9.119097e-04  -1.848852e-02  0 
 9.822636e-04  -1.848852e-02  0 
 2.886141e-03  -1.850385e-02  0 
 4.703587e-03  -1.852565e-02  0 
VECTORS displacement_ITER2 FLOAT
 -4.298801e-03  -1.369735e-02  0 
 -4.436783e-03  -1.811898e-02  0 
 -2.490508e-03  -1.366981e-02  0 
 -8.424264e-04  -1.362938e-02  0 
 8.703086e-04  -1.362938e-02  0 
 2.518390e-03  -1.366981e-02  0 
 4.326683e-03  -1.369735e-02  0 
 -2.712728e-03  -1.809432e-02  0 
 -8.863481e-04  -1.806549e-02  0 
 9.142303e-04  -1.806549e-02  0 
 2.740610e-03  -1.809432e-02  0 
 4.464665e-03  -1.811898e-02  0 
VECTORS displacement_ITER3 FLOAT
 -4.252831e-03  -1.367365e-02  0 
 -4.387830e-03  -1.806367e-02  0 
 -2.453973e-03  -1.364685e-02  0 
 -8.225508e-04  -1.362319e-02  0 
 8.703848e-04  -1.362321e-02  0 
 2.501617e-03  -1.364698e-02  0 
 4.300383e-03  -1.367379e-02  0 
 -2.679794e-03  -1.804009e-02  0 
 -8.665933e-04  -1.800991e-02  0 
 9.143941e-04  -1.800989e-02  0 
 2.727469e-03  -1.803997e-02  0 
 4.435394e-03  -1.806356e-02  0 
VECTORS displacement_ITER4 FLOAT
 -4.242686e-03  -1.366496e-02  0 
 -4.376238e-03  -1.804245e-02  0 
 -2.446313e-03  -1.363741e-02  0 
 -8.201055e-04  -1.362185e-02  0 
 8.658111e-04  -1.362184e-02  0 
 2.491756e-03  -1.363755e-02  0 
 4.288026e-03  -1.366507e-02  0 
 -2.673627e-03  -1.802059e-02  0 
 -8.640595e-04  -1.799368e-02  0 
 9.096613e-04  -1.799366e-02  0 
 2.719117e-03  -1.802053e-02  0 
 4.421606e-03  -1.804240e-02  0 
VECTORS displacement_ITER5 FLOAT
 -4.242743e-03  -1.366393e-02  0 
 -4.376231e-03  -1.803818e-02  0 
 -2.447569e-03  -1.363627e-02  0 
 -8.216071e-04  -1.361987e-02  0 
 8.644453e-04  -1.361999e-02  0 
 2.490322e-03  -1.363646e-02  0 
 4.285576e-03  -1.366420e-02  0 
 -2.674917e-03  -1.801660e-02  0 
 -8.653431e-04  -1.799226e-02  0 
 9.082550e-04  -1.799224e-02  0 
 2.717757e-03  -1.801657e-02  0 
 4.419034e-03  -1.803814e-02  0 
VECTORS displacement_ITER6 FLOAT
 -4.240538e-03  -1.366388e-02  0 
 -4.374014e-03  -1.803391e-02  0 
 -2.446879e-03  -1.363611e-02  0 
 -8.208409e-04  -1.361729e-02  0 
 8.661979e-04  -1.361718e-02  0 
 2.492039e-03  -1.363607e-02  0 
 4.285464e-03  -1.366371e-02  0 
 -2.674193e-03  -1.801243e-02  0 
 -8.644704e-04  -1.799140e-02  0 
 9.096477e-04  -1.799142e-02  0 
 2.719335e-03  -1.801252e-02  0 
 4.419024e-03  -1.803402e-02  0 
VECTORS displacement_ITER7 FLOAT
 -4.240283e-03  -1.366353e-02  0 
 -4.373845e-03  -1.803250e-02  0 
 -2.447367e-03  -1.363589e-02  0 
 -8.216918e-04  -1.361618e-02  0 
 8.656665e-04  -1.361620e-02  0 
 2.491299e-03  -1.363603e-02  0 
 4.284247e-03  -1.366368e-02  0 
 -2.674628e-03  -1.801095e-02  0 
 -8.651227e-04  -1.799069e-02  0 
 9.090320e-04  -1.799065e-02  0 
 2.718589e-03  -1.801094e-02  0 
 4.417833e-03  -1.803246e-02  0 
VECTORS displacement_ITER8 FLOAT
 -4.239705e-03  -1.366303e-02  0 
 -4.373352e-03  -1.803199e-02  0 
 -2.446798e-03  -1.363543e-02  0 
 -8.215571e-04  -1.361569e-02  0 
 8.657491e-04  -1.361572e-02  0 
 2.490968e-03  -1.363555e-02  0 
 4.283892e-03  -1.366317e-02  0 
 -2.674056e-03  -1.801039e-02  0 
 -8.648281e-04  -1.798970e-02  0 
 9.090670e-04  -1.798972e-02  0 
 2.718286e-03  -1.801044e-02  0 
 4.417511e-03  -1.803207e-02  0 
VECTORS displacement_ITER9 FLOAT
 -4.239609e-03  -1.366236e-02  0 
 -4.373290e-03  -1.803166e-02  0 
 -2.446540e-03  -1.363474e-02  0 
 -8.215832e-04  -1.361517e-02  0 
 8.656620e-04  -1.361518e-02  0 
 2.490595e-03  -1.363480e-02  0 
 4.283644e-03  -1.366241e-02  0 
 -2.673844e-03  -1.801001e-02  0 
 -8.647997e-04  -1.798880e-02  0 
 9.088595e-04  -1.798880e-02  0 
 2.717915e-03  -1.801003e-02  0 
 4.417329e-03  -1.803168e-02  0 
VECTORS displacement_ITER10 FLOAT
 -4.239703e-03  -1.366166e-02  0 
 -4.373414e-03  -1.803124e-02  0 
 -2.446520e-03  -1.363402e-02  0 
 -8.216678e-04  -1.361455e-02  0 
 8.656302e-04  -1.361456e-02  0 
 2.490474e-03  -1.363406e-02  0 
 4.283643e-03  -1.366169e-02  0 
 -2.673850e-03  -1.800957e-02  0 
 -8.648049e-04  -1.798813e-02  0 
 9.087457e-04  -1.798812e-02  0 
 2.717810e-03  -1.800957e-02  0 
 4.417363e-03  -1.803123e-02  0 
VECTORS displacement_ITER11 FLOAT
 -4.239793e-03  -1.366120e-02  0 
 -4.373522e-03  -1.803083e-02  0 
 -2.446590e-03  -1.363356e-02  0 
 -8.217174e-04  -1.361404e-02  0 
 8.657116e-04  -1.361405e-02  0 
 2.490578e-03  -1.363360e-02  0 
 4.283772e-03  -1.366124e-02  0 
 -2.673931e-03  -1.800918e-02  0 
 -8.647790e-04  -1.798777e-02  0 
 9.087746e-04  -1.798777e-02  0 
 2.717933e-03  -1.800917e-02  0 
 4.417502e-03  -1.803084e-02  0 
VECTORS displacement_ITER12 FLOAT
 -4.239885e-03  -1.366091e-02  0 
 -4.373620e-03  -1.803052e-02  0 
 -2.446691e-03  -1.363328e-02  0 
 -8.217767e-04  -1.361365e-02  0 
 8.657921e-04  -1.361366e-02  0 
 2.490693e-03  -1.363331e-02  0 
 4.283875e-03  -1.366095e-02  0 
 -2.674052e-03  -1.800886e-02  0 
 -8.647818e-04  -1.798758e-02  0 
 9.087964e-04  -1.798758e-02  0 
 2.718065e-03  -1.800886e-02  0 
 4.417613e-03  -1.803052e-02  0 
VECTORS displacement_ITER13 FLOAT
 -4.239905e-03  -1.366089e-02  0 
 -4.373640e-03  -1.803049e-02  0 
 -2.446709e-03  -1.363325e-02  0 
 -8.217974e-04  -1.361361e-02  0 
 8.658036e-04  -1.361362e-02  0 
 2.490698e-03  -1.363329e-02  0 
 4.283883e-03  -1.366092e-02  0 
 -2.674083e-03  -1.800884e-02  0 
 -8.647848e-04  -1.798757e-02  0 
 9.087840e-04  -1.798757e-02  0 
 2.718081e-03  -1.800883e-02  0 
 4.417623e-03  -1.803049e-02  0 
VECTORS displacement_ITER14 FLOAT
 -4.239896e-03  -1.366098e-02  0 
 -4.373631e-03  -1.803060e-02  0 
 -2.446682e-03  -1.363334e-02  0 
 -8.218009e-04  -1.361373e-02  0 
 8.658066e-04  -1.361374e-02  0 
 2.490667e-03  -1.363337e-02  0 
 4.283870e-03  -1.366101e-02  0 
 -2.674075e-03  -1.800894e-02  0 
 -8.647664e-04  -1.798765e-02  0 
 9.087649e-04  -1.798765e-02  0 
 2.718069e-03  -1.800894e-02  0 
 4.417610e-03  -1.803060e-02  0 
VECTORS displacement_ITER15 FLOAT
 -4.239888e-03  -1.366105e-02  0 
 -4.373621e-03  -1.803068e-02  0 
 -2.446666e-03  -1.363342e-02  0 
 -8.217987e-04  -1.361382e-02  0 
 8.658098e-04  -1.361383e-02  0 
 2.490653e-03  -1.363345e-02  0 
 4.283862e-03  -1.366109e-02  0 
 -2.674065e-03  -1.800903e-02  0 
 -8.647544e-04  -1.798772e-02  0 
 9.087590e-04  -1.798772e-02  0 
 2.718063e-03  -1.800902e-02  0 
 4.417601e-03  -1.803068e-02  0 
VECTORS displacement_ITER16 FLOAT
 -4.239883e-03  -1.366111e-02  0 
 -4.373615e-03  -1.803073e-02  0 
 -2.446663e-03  -1.363348e-02  0 
 -8.218009e-04  -1.361388e-02  0 
 8.658110e-04  -1.361389e-02  0 
 2.490648e-03  -1.363352e-02  0 
 4.283854e-03  -1.366115e-02  0 
 -2.674066e-03  -1.800908e-02  0 
 -8.647529e-04  -1.798778e-02  0 
 9.087549e-04  -1.798777e-02  0 
 2.718062e-03  -1.800907e-02  0 
 4.417594e-03  -1.803073e-02  0 
VECTORS displacement_ITER17 FLOAT
 -4.239878e-03  -1.366112e-02  0 
 -4.373612e-03  -1.803073e-02  0 
 -2.446662e-03  -1.363349e-02  0 
 -8.218017e-04  -1.361388e-02  0 
 8.658121e-04  -1.361389e-02  0 
 2.490649e-03  -1.363352e-02  0 
 4.283853e-03  -1.366116e-02  0 
 -2.674066e-03  -1.800908e-02  0 
 -8.647529e-04  -1.798778e-02  0 
 9.087551e-04  -1.798778e-02  0 
 2.718064e-03  -1.800907e-02  0 
 4.417592e-03  -1.803073e-02  0 
VECTORS displacement_ITER18 FLOAT
 -4.239879e-03  -1.366112e-02  0 
 -4.373613e-03  -1.803073e-02  0 
 -2.446663e-03  -1.363348e-02  0 
 -8.218017e-04  -1.361388e-02  0 
 8.658127e-04  -1.361389e-02  0 
 2.490649e-03  -1.363352e-02  0 
 4.283853e-03  -1.366116e-02  0 
 -2.674066e-03  -1.800907e-02  0 
 -8.647520e-04  -1.798777e-02  0 
 9.087550e-04  -1.798777e-02  0 
 2.718064e-03  -1.800907e-02  0 
 4.417593e-03  -1.803073e-02  0 
VECTORS displacement_ITER19 FLOAT
 -4.239879e-03  -1.366111e-02  0 
 -4.373613e-03  -1.803072e-02  0 
 -2.446663e-03  -1.363347e-02  0 
 -8.218019e-04  -1.361387e-02  0 
 8.658122e-04  -1.361388e-02  0 
 2.490649e-03  -1.363351e-02  0 
 4.283853e-03  -1.366115e-02  0 
 -2.674066e-03  -1.800906e-02  0 
 -8.647520e-04  -1.798777e-02  0 
 9.087541e-04  -1.798776e-02  0 
 2.718064e-03  -1.800906e-02  0 
 4.417593e-03  -1.803072e-02  0 
VECTORS displacement_ITER20 FLOAT
 -4.239878e-03  -1.366111e-02  0 
 -4.373613e-03  -1.803072e-02  0 
 -2.446663e-03  -1.363347e-02  0 
 -8.218016e-04  -1.361387e-02  0 
 8.658123e-04  -1.361388e-02  0 
 2.490649e-03  -1.363351e-02  0 
 4.283853e-03  -1.366115e-02  0 
 -2.674065e-03  -1.800906e-02  0 
 -8.647517e-04  -1.798777e-02  0 
 9.087542e-04  -1.798776e-02  0 
 2.718063e-03  -1.800906e-02  0 
 4.417593e-03  -1.803072e-02  0 
VECTORS displacement_ITER21 FLOAT
 -4.239878e-03  -1.366111e-02  0 
 -4.373613e-03  -1.803072e-02  0 
 -2.446663e-03  -1.363347e-02  0 
 -8.218016e-04  -1.361387e-02  0 
 8.658124e-04  -1.361388e-02  0 
 2.490649e-03  -1.363351e-02  0 
 4.283852e-03  -1.366115e-02  0 
 -2.674065e-03  -1.800906e-02  0 
 -8.647517e-04  -1.798777e-02  0 
 9.087542e-04  -1.798776e-02  0 
 2.718063e-03  -1.800906e-02  0 
 4.417593e-03  -1.803072e-02  0 
VECTORS displacement_ITER22 FLOAT
 -4.239878e-03  -1.366111e-02  0 
 -4.373613e-03  -1.803072e-02  0 
 -2.446663e-03  -1.363347e-02  0 
 -8.218017e-04  -1.361387e-02  0 
 8.658123e-04  -1.361388e-02  0 
 2.490649e-03  -1.363351e-02  0 
 4.283853e-03  -1.366115e-02  0 
 -2.674065e-03  -1.800906e-02  0 
 -8.647519e-04  -1.798777e-02  0 
 9.087542e-04  -1.798776e-02  0 
 2.718063e-03  -1.800906e-02  0 
 4.417593e-03  -1.803072e-02  0 
VECTORS displacement_ITER23 FLOAT
 -4.239879e-03  -1.366111e-02  0 
 -4.373613e-03  -1.803072e-02  0 
 -2.446663e-03  -1.363347e-02  0 
 -8.218016e-04  -1.361387e-02  0 
 8.658123e-04  -1.361388e-02  0 
 2.490649e-03  -1.363351e-02  0 
 4.283853e-03  -1.366115e-02  0 
 -2.674065e-03  -1.800906e-02  0 
 -8.647518e-04  -1.798777e-02  0 
 9.087543e-04  -1.798776e-02  0 
 2.718064e-03  -1.800906e-02  0 
 4.417593e-03  -1.803072e-02  0 
VECTORS displacement_ITER24 FLOAT
 -4.239878e-03  -1.366111e-02  0 
 -4.373613e-03  -1.803072e-02  0 
 -2.446663e-03  -1.363347e-02  0 
 -8.218017e-04  -1.361387e-02  0 
 8.658123e-04  -1.361388e-02  0 
 2.490649e-03  -1.363351e-02  0 
 4.283853e-03  -1.366115e-02  0 
 -2.674065e-03  -1.800906e-02  0 
 -8.647519e-04  -1.798777e-02  0 
 9.087542e-04  -1.798776e-02  0 
 2.718064e-03  -1.800906e-02  0 
 4.417593e-03  -1.803072e-02  0 
VECTORS displacement_ITER25 FLOAT
 -4.239879e-03  -1.366111e-02  0 
 -4.373613e-03  -1.803072e-02  0 
 -2.446663e-03  -1.363347e-02  0 
 -8.218016e-04  -1.361387e-02  0 
 8.658123e-04  -1.361388e-02  0 
 2.490649e-03  -1.363351e-02  0 
 4.283853e-03  -1.366115e-02  0 
 -2.674065e-03  -1.800906e-02  0 
 -8.647518e-04  -1.798777e-02  0 
 9.087543e-04  -1.798776e-02  0 
 2.718064e-03  -1.800906e-02  0 
 4.417593e-03  -1.803072e-02  0 
VECTORS displacement_ITER26 FLOAT
 -4.239878e-03  -1.366111e-02  0 
 -4.373613e-03  -1.803072e-02  0 
 -2.446663e-03  -1.363347e-02  0 
 -8.218017e-04  -1.361387e-02  0 
 8.658123e-04  -1.361388e-02  0 
 2.490649e-03  -1.363351e-02  0 
 4.283853e-03  -1.366115e-02  0 
 -2.674065e-03  -1.800906e-02  0 
 -8.647518e-04  -1.798777e-02  0 
 9.087542e-04  -1.798776e-02  0 
 2.718063e-03  -1.800906e-02  0 
 4.417593e-03  -1.803072e-02  0 
CELL_DATA 5
TENSORS element_stresses FLOAT
 -3.562269e-01  -1.022655e-02  0 
 -1.022655e-02  1.636625e-02  0 
 0  0  0 

 -2.633827e-02  -1.261927e-02  0 
 -1.261927e-02  2.323347e-03  0 
 0  0  0 

 -1.461556e-05  -7.306034e-02  0 
 -7.306034e-02  -2.125011e-05  0 
 0  0  0 

 2.633640e-02  -1.262059e-02  0 
 -1.262059e-02  -2.330735e-03  0 
 0  0  0 

 3.562434e-01  -1.022326e-02  0 
 -1.022326e-02  -1.637052e-02  0 
 0  0  0 

TENSORS element_stresses FLOAT
 -3.562269e-01  -1.022655e-02  0 
 -1.022655e-02  1.636625e-02  0 
 0  0  0 

 -2.633827e-02  -1.261927e-02  0 
 -1.261927e-02  2.323347e-03  0 
 0  0  0 

 -1.461556e-05  -7.306034e-02  0 
 -7.306034e-02  -2.125011e-05  0 
 0  0  0 

 2.633640e-02  -1.262059e-02  0 
 -1.262059e-02  -2.330735e-03  0 
 0  0  0 

 3.562434e-01  -1.022326e-02  0 
 -1.022326e-02  -1.637052e-02  0 
 0  0  0 

