# vtk DataFile Version 3.1
this is an vtk file created by FEMAC
ASCII
DATASET UNSTRUCTURED_GRID
POINTS 12 FLOAT
6.500000 0.000000 0.000000
7.000000 0.000000 0.000000
6.500000 0.200000 0.000000
6.500000 0.400000 0.000000
6.500000 0.600000 0.000000
6.500000 0.800000 0.000000
6.500000 1.000000 0.000000
7.000000 0.200000 0.000000
7.000000 0.400000 0.000000
7.000000 0.600000 0.000000
7.000000 0.800000 0.000000
7.000000 1.000000 0.000000
CELLS 5 25 
4 0 1 7 2
4 2 7 8 3
4 3 8 9 4
4 4  9 10  5
4 5 10 11  6
CELL_TYPES 5
9 9 9 9 9 
POINT_DATA 12
VECTORS displacement_ITER1 FLOAT
 -5.881798e-03  -5.182127e-02  0 
 -5.946973e-03  -5.774717e-02  0 
 -3.543805e-03  -5.180251e-02  0 
 -1.163645e-03  -5.179656e-02  0 
 1.233999e-03  -5.179656e-02  0 
 3.614159e-03  -5.180251e-02  0 
 5.952152e-03  -5.182127e-02  0 
 -3.557926e-03  -5.776852e-02  0 
 -1.168073e-03  -5.777149e-02  0 
 1.238426e-03  -5.777149e-02  0 
 3.628280e-03  -5.776852e-02  0 
 6.017327e-03  -5.774717e-02  0 
VECTORS displacement_ITER2 FLOAT
 -5.569469e-03  -4.967414e-02  0 
 -5.613565e-03  -5.529996e-02  0 
 -3.338245e-03  -4.967935e-02  0 
 -1.102370e-03  -4.967681e-02  0 
 1.130252e-03  -4.967681e-02  0 
 3.366127e-03  -4.967935e-02  0 
 5.597352e-03  -4.967414e-02  0 
 -3.355729e-03  -5.529033e-02  0 
 -1.108935e-03  -5.528988e-02  0 
 1.136818e-03  -5.528988e-02  0 
 3.383611e-03  -5.529033e-02  0 
 5.641447e-03  -5.529996e-02  0 
VECTORS displacement_ITER3 FLOAT
 -5.492360e-03  -4.926219e-02  0 
 -5.533856e-03  -5.481687e-02  0 
 -3.286438e-03  -4.926598e-02  0 
 -1.078252e-03  -4.926365e-02  0 
 1.125932e-03  -4.926365e-02  0 
 3.334118e-03  -4.926598e-02  0 
 5.540040e-03  -4.926219e-02  0 
 -3.304343e-03  -5.480858e-02  0 
 -1.084941e-03  -5.480777e-02  0 
 1.132621e-03  -5.480777e-02  0 
 3.352023e-03  -5.480858e-02  0 
 5.581536e-03  -5.481687e-02  0 
VECTORS displacement_ITER4 FLOAT
 -5.471264e-03  -4.910750e-02  0 
 -5.513861e-03  -5.462966e-02  0 
 -3.277497e-03  -4.910551e-02  0 
 -1.077194e-03  -4.910267e-02  0 
 1.122502e-03  -4.910267e-02  0 
 3.322806e-03  -4.910551e-02  0 
 5.516573e-03  -4.910750e-02  0 
 -3.295261e-03  -5.462824e-02  0 
 -1.083605e-03  -5.462776e-02  0 
 1.128913e-03  -5.462776e-02  0 
 3.340570e-03  -5.462824e-02  0 
 5.559169e-03  -5.462966e-02  0 
VECTORS displacement_ITER5 FLOAT
 -5.471441e-03  -4.909377e-02  0 
 -5.514437e-03  -5.461407e-02  0 
 -3.278510e-03  -4.909109e-02  0 
 -1.078400e-03  -4.908809e-02  0 
 1.121776e-03  -4.908809e-02  0 
 3.321886e-03  -4.909109e-02  0 
 5.514817e-03  -4.909377e-02  0 
 -3.296250e-03  -5.461330e-02  0 
 -1.084745e-03  -5.461291e-02  0 
 1.128121e-03  -5.461291e-02  0 
 3.339625e-03  -5.461330e-02  0 
 5.557813e-03  -5.461407e-02  0 
VECTORS displacement_ITER6 FLOAT
 -5.471758e-03  -4.908873e-02  0 
 -5.515103e-03  -5.461006e-02  0 
 -3.278613e-03  -4.908614e-02  0 
 -1.078298e-03  -4.908304e-02  0 
 1.122282e-03  -4.908304e-02  0 
 3.322596e-03  -4.908614e-02  0 
 5.515741e-03  -4.908873e-02  0 
 -3.296352e-03  -5.460888e-02  0 
 -1.084591e-03  -5.460854e-02  0 
 1.128575e-03  -5.460854e-02  0 
 3.340336e-03  -5.460888e-02  0 
 5.559087e-03  -5.461006e-02  0 
VECTORS displacement_ITER7 FLOAT
 -5.471617e-03  -4.908708e-02  0 
 -5.515158e-03  -5.460881e-02  0 
 -3.278429e-03  -4.908458e-02  0 
 -1.078078e-03  -4.908148e-02  0 
 1.122486e-03  -4.908148e-02  0 
 3.322837e-03  -4.908458e-02  0 
 5.516023e-03  -4.908708e-02  0 
 -3.296151e-03  -5.460743e-02  0 
 -1.084337e-03  -5.460709e-02  0 
 1.128745e-03  -5.460709e-02  0 
 3.340559e-03  -5.460743e-02  0 
 5.559565e-03  -5.460881e-02  0 
VECTORS displacement_ITER8 FLOAT
 -5.471617e-03  -4.908653e-02  0 
 -5.515313e-03  -5.460829e-02  0 
 -3.278524e-03  -4.908406e-02  0 
 -1.078165e-03  -4.908098e-02  0 
 1.122350e-03  -4.908097e-02  0 
 3.322712e-03  -4.908405e-02  0 
 5.515817e-03  -4.908652e-02  0 
 -3.296215e-03  -5.460693e-02  0 
 -1.084388e-03  -5.460659e-02  0 
 1.128573e-03  -5.460659e-02  0 
 3.340404e-03  -5.460694e-02  0 
 5.559504e-03  -5.460829e-02  0 
VECTORS displacement_ITER9 FLOAT
 -5.471824e-03  -4.908665e-02  0 
 -5.515587e-03  -5.460862e-02  0 
 -3.278724e-03  -4.908422e-02  0 
 -1.078294e-03  -4.908117e-02  0 
 1.122291e-03  -4.908118e-02  0 
 3.322708e-03  -4.908425e-02  0 
 5.515758e-03  -4.908669e-02  0 
 -3.296394e-03  -5.460729e-02  0 
 -1.084485e-03  -5.460695e-02  0 
 1.128483e-03  -5.460693e-02  0 
 3.340377e-03  -5.460727e-02  0 
 5.559555e-03  -5.460859e-02  0 
VECTORS displacement_ITER10 FLOAT
 -5.471968e-03  -4.908729e-02  0 
 -5.515811e-03  -5.460939e-02  0 
 -3.278900e-03  -4.908486e-02  0 
 -1.078403e-03  -4.908180e-02  0 
 1.122323e-03  -4.908175e-02  0 
 3.322858e-03  -4.908480e-02  0 
 5.516061e-03  -4.908718e-02  0 
 -3.296559e-03  -5.460810e-02  0 
 -1.084573e-03  -5.460776e-02  0 
 1.128492e-03  -5.460780e-02  0 
 3.340522e-03  -5.460815e-02  0 
 5.559825e-03  -5.460948e-02  0 
VECTORS displacement_ITER11 FLOAT
 -5.472322e-03  -4.908764e-02  0 
 -5.516059e-03  -5.461021e-02  0 
 -3.278995e-03  -4.908529e-02  0 
 -1.078377e-03  -4.908224e-02  0 
 1.122461e-03  -4.908234e-02  0 
 3.323003e-03  -4.908540e-02  0 
 5.516102e-03  -4.908785e-02  0 
 -3.296661e-03  -5.460887e-02  0 
 -1.084533e-03  -5.460852e-02  0 
 1.128618e-03  -5.460844e-02  0 
 3.340663e-03  -5.460877e-02  0 
 5.559946e-03  -5.461004e-02  0 
VECTORS displacement_ITER12 FLOAT
 -5.472225e-03  -4.908824e-02  0 
 -5.516035e-03  -5.461048e-02  0 
 -3.279074e-03  -4.908577e-02  0 
 -1.078507e-03  -4.908271e-02  0 
 1.122405e-03  -4.908258e-02  0 
 3.323073e-03  -4.908563e-02  0 
 5.516476e-03  -4.908798e-02  0 
 -3.296740e-03  -5.460922e-02  0 
 -1.084653e-03  -5.460889e-02  0 
 1.128551e-03  -5.460901e-02  0 
 3.340743e-03  -5.460935e-02  0 
 5.560217e-03  -5.461072e-02  0 
VECTORS displacement_ITER13 FLOAT
 -5.472414e-03  -4.908806e-02  0 
 -5.516194e-03  -5.461071e-02  0 
 -3.279067e-03  -4.908568e-02  0 
 -1.078419e-03  -4.908263e-02  0 
 1.122497e-03  -4.908270e-02  0 
 3.323081e-03  -4.908576e-02  0 
 5.516302e-03  -4.908822e-02  0 
 -3.296735e-03  -5.460936e-02  0 
 -1.084561e-03  -5.460902e-02  0 
 1.128639e-03  -5.460894e-02  0 
 3.340750e-03  -5.460927e-02  0 
 5.560076e-03  -5.461055e-02  0 
VECTORS displacement_ITER14 FLOAT
 -5.472293e-03  -4.908809e-02  0 
 -5.516044e-03  -5.461043e-02  0 
 -3.279049e-03  -4.908565e-02  0 
 -1.078475e-03  -4.908259e-02  0 
 1.122422e-03  -4.908255e-02  0 
 3.323039e-03  -4.908560e-02  0 
 5.516336e-03  -4.908799e-02  0 
 -3.296719e-03  -5.460914e-02  0 
 -1.084611e-03  -5.460881e-02  0 
 1.128559e-03  -5.460886e-02  0 
 3.340707e-03  -5.460920e-02  0 
 5.560148e-03  -5.461054e-02  0 
VECTORS displacement_ITER15 FLOAT
 -5.472285e-03  -4.908796e-02  0 
 -5.516077e-03  -5.461040e-02  0 
 -3.279026e-03  -4.908555e-02  0 
 -1.078440e-03  -4.908249e-02  0 
 1.122446e-03  -4.908250e-02  0 
 3.323023e-03  -4.908556e-02  0 
 5.516280e-03  -4.908798e-02  0 
 -3.296694e-03  -5.460908e-02  0 
 -1.084575e-03  -5.460874e-02  0 
 1.128580e-03  -5.460873e-02  0 
 3.340693e-03  -5.460906e-02  0 
 5.560045e-03  -5.461037e-02  0 
VECTORS displacement_ITER16 FLOAT
 -5.472263e-03  -4.908792e-02  0 
 -5.516032e-03  -5.461031e-02  0 
 -3.279011e-03  -4.908550e-02  0 
 -1.078440e-03  -4.908245e-02  0 
 1.122440e-03  -4.908245e-02  0 
 3.323010e-03  -4.908550e-02  0 
 5.516257e-03  -4.908792e-02  0 
 -3.296681e-03  -5.460899e-02  0 
 -1.084573e-03  -5.460866e-02  0 
 1.128573e-03  -5.460866e-02  0 
 3.340680e-03  -5.460899e-02  0 
 5.560033e-03  -5.461031e-02  0 
VECTORS displacement_ITER17 FLOAT
 -5.472256e-03  -4.908791e-02  0 
 -5.516029e-03  -5.461029e-02  0 
 -3.279009e-03  -4.908549e-02  0 
 -1.078441e-03  -4.908244e-02  0 
 1.122439e-03  -4.908244e-02  0 
 3.323008e-03  -4.908549e-02  0 
 5.516258e-03  -4.908791e-02  0 
 -3.296680e-03  -5.460898e-02  0 
 -1.084573e-03  -5.460864e-02  0 
 1.128571e-03  -5.460864e-02  0 
 3.340678e-03  -5.460898e-02  0 
 5.560028e-03  -5.461030e-02  0 
VECTORS displacement_ITER18 FLOAT
 -5.472263e-03  -4.908791e-02  0 
 -5.516035e-03  -5.461031e-02  0 
 -3.279012e-03  -4.908550e-02  0 
 -1.078441e-03  -4.908244e-02  0 
 1.122440e-03  -4.908244e-02  0 
 3.323011e-03  -4.908550e-02  0 
 5.516260e-03  -4.908792e-02  0 
 -3.296682e-03  -5.460899e-02  0 
 -1.084573e-03  -5.460865e-02  0 
 1.128573e-03  -5.460865e-02  0 
 3.340681e-03  -5.460899e-02  0 
 5.560034e-03  -5.461031e-02  0 
VECTORS displacement_ITER19 FLOAT
 -5.472263e-03  -4.908792e-02  0 
 -5.516038e-03  -5.461031e-02  0 
 -3.279014e-03  -4.908550e-02  0 
 -1.078442e-03  -4.908245e-02  0 
 1.122441e-03  -4.908245e-02  0 
 3.323012e-03  -4.908550e-02  0 
 5.516264e-03  -4.908792e-02  0 
 -3.296684e-03  -5.460900e-02  0 
 -1.084574e-03  -5.460866e-02  0 
 1.128573e-03  -5.460866e-02  0 
 3.340682e-03  -5.460900e-02  0 
 5.560037e-03  -5.461031e-02  0 
VECTORS displacement_ITER20 FLOAT
 -5.472265e-03  -4.908792e-02  0 
 -5.516038e-03  -5.461032e-02  0 
 -3.279014e-03  -4.908551e-02  0 
 -1.078442e-03  -4.908245e-02  0 
 1.122441e-03  -4.908245e-02  0 
 3.323013e-03  -4.908551e-02  0 
 5.516264e-03  -4.908792e-02  0 
 -3.296684e-03  -5.460900e-02  0 
 -1.084574e-03  -5.460866e-02  0 
 1.128573e-03  -5.460866e-02  0 
 3.340683e-03  -5.460900e-02  0 
 5.560037e-03  -5.461032e-02  0 
VECTORS displacement_ITER21 FLOAT
 -5.472265e-03  -4.908792e-02  0 
 -5.516038e-03  -5.461032e-02  0 
 -3.279014e-03  -4.908550e-02  0 
 -1.078442e-03  -4.908245e-02  0 
 1.122441e-03  -4.908245e-02  0 
 3.323013e-03  -4.908550e-02  0 
 5.516264e-03  -4.908792e-02  0 
 -3.296684e-03  -5.460900e-02  0 
 -1.084574e-03  -5.460866e-02  0 
 1.128573e-03  -5.460866e-02  0 
 3.340683e-03  -5.460900e-02  0 
 5.560037e-03  -5.461032e-02  0 
VECTORS displacement_ITER22 FLOAT
 -5.472264e-03  -4.908792e-02  0 
 -5.516038e-03  -5.461031e-02  0 
 -3.279014e-03  -4.908550e-02  0 
 -1.078442e-03  -4.908245e-02  0 
 1.122441e-03  -4.908245e-02  0 
 3.323013e-03  -4.908550e-02  0 
 5.516263e-03  -4.908792e-02  0 
 -3.296684e-03  -5.460900e-02  0 
 -1.084574e-03  -5.460866e-02  0 
 1.128573e-03  -5.460866e-02  0 
 3.340683e-03  -5.460900e-02  0 
 5.560037e-03  -5.461031e-02  0 
VECTORS displacement_ITER23 FLOAT
 -5.472264e-03  -4.908792e-02  0 
 -5.516038e-03  -5.461031e-02  0 
 -3.279014e-03  -4.908550e-02  0 
 -1.078442e-03  -4.908245e-02  0 
 1.122441e-03  -4.908245e-02  0 
 3.323013e-03  -4.908550e-02  0 
 5.516263e-03  -4.908792e-02  0 
 -3.296684e-03  -5.460900e-02  0 
 -1.084574e-03  -5.460866e-02  0 
 1.128573e-03  -5.460866e-02  0 
 3.340683e-03  -5.460900e-02  0 
 5.560037e-03  -5.461031e-02  0 
VECTORS displacement_ITER24 FLOAT
 -5.472264e-03  -4.908792e-02  0 
 -5.516038e-03  -5.461031e-02  0 
 -3.279014e-03  -4.908550e-02  0 
 -1.078442e-03  -4.908245e-02  0 
 1.122441e-03  -4.908245e-02  0 
 3.323013e-03  -4.908550e-02  0 
 5.516263e-03  -4.908792e-02  0 
 -3.296684e-03  -5.460900e-02  0 
 -1.084574e-03  -5.460866e-02  0 
 1.128573e-03  -5.460866e-02  0 
 3.340683e-03  -5.460900e-02  0 
 5.560037e-03  -5.461031e-02  0 
VECTORS displacement_ITER25 FLOAT
 -5.472264e-03  -4.908792e-02  0 
 -5.516038e-03  -5.461031e-02  0 
 -3.279014e-03  -4.908550e-02  0 
 -1.078442e-03  -4.908245e-02  0 
 1.122441e-03  -4.908245e-02  0 
 3.323013e-03  -4.908550e-02  0 
 5.516263e-03  -4.908792e-02  0 
 -3.296684e-03  -5.460900e-02  0 
 -1.084574e-03  -5.460866e-02  0 
 1.128573e-03  -5.460866e-02  0 
 3.340683e-03  -5.460900e-02  0 
 5.560037e-03  -5.461031e-02  0 
VECTORS displacement_ITER26 FLOAT
 -5.472264e-03  -4.908792e-02  0 
 -5.516038e-03  -5.461031e-02  0 
 -3.279014e-03  -4.908550e-02  0 
 -1.078442e-03  -4.908245e-02  0 
 1.122441e-03  -4.908245e-02  0 
 3.323013e-03  -4.908550e-02  0 
 5.516263e-03  -4.908792e-02  0 
 -3.296684e-03  -5.460900e-02  0 
 -1.084574e-03  -5.460866e-02  0 
 1.128573e-03  -5.460866e-02  0 
 3.340683e-03  -5.460900e-02  0 
 5.560037e-03  -5.461031e-02  0 
CELL_DATA 5
TENSORS element_stresses FLOAT
 -6.444636e-03  -1.106010e-03  0 
 -1.106010e-03  -1.000984e-03  0 
 0  0  0 

 -2.336027e-02  -1.385164e-02  0 
 -1.385164e-02  1.472326e-03  0 
 0  0  0 

 9.478462e-11  -1.334703e-03  0 
 -1.334703e-03  -7.192806e-10  0 
 0  0  0 

 2.336028e-02  -1.385164e-02  0 
 -1.385164e-02  -1.472327e-03  0 
 0  0  0 

 6.444634e-03  -1.106008e-03  0 
 -1.106008e-03  1.000984e-03  0 
 0  0  0 

TENSORS element_stresses FLOAT
 -6.444636e-03  -1.106010e-03  0 
 -1.106010e-03  -1.000984e-03  0 
 0  0  0 

 -2.336027e-02  -1.385164e-02  0 
 -1.385164e-02  1.472326e-03  0 
 0  0  0 

 9.478462e-11  -1.334703e-03  0 
 -1.334703e-03  -7.192806e-10  0 
 0  0  0 

 2.336028e-02  -1.385164e-02  0 
 -1.385164e-02  -1.472327e-03  0 
 0  0  0 

 6.444634e-03  -1.106008e-03  0 
 -1.106008e-03  1.000984e-03  0 
 0  0  0 

