# vtk DataFile Version 3.1
this is an vtk file created by FEMAC
ASCII
DATASET UNSTRUCTURED_GRID
POINTS 12 FLOAT
4.500000 0.000000 0.000000
5.000000 0.000000 0.000000
4.500000 0.200000 0.000000
4.500000 0.400000 0.000000
4.500000 0.600000 0.000000
4.500000 0.800000 0.000000
4.500000 1.000000 0.000000
5.000000 0.200000 0.000000
5.000000 0.400000 0.000000
5.000000 0.600000 0.000000
5.000000 0.800000 0.000000
5.000000 1.000000 0.000000
CELLS 5 25 
4 0 1 7 2
4 2 7 8 3
4 3 8 9 4
4 4  9 10  5
4 5 10 11  6
CELL_TYPES 5
9 9 9 9 9 
POINT_DATA 12
VECTORS displacement_ITER1 FLOAT
 -5.271109e-03  -2.883534e-02  0 
 -5.652054e-03  -3.427058e-02  0 
 -3.257010e-03  -2.878584e-02  0 
 -1.070715e-03  -2.876671e-02  0 
 1.141069e-03  -2.876671e-02  0 
 3.327364e-03  -2.878584e-02  0 
 5.341463e-03  -2.883534e-02  0 
 -3.353531e-03  -3.432534e-02  0 
 -1.115475e-03  -3.432944e-02  0 
 1.185829e-03  -3.432944e-02  0 
 3.423885e-03  -3.432534e-02  0 
 5.722407e-03  -3.427058e-02  0 
VECTORS displacement_ITER2 FLOAT
 -5.049153e-03  -2.790110e-02  0 
 -5.364319e-03  -3.317277e-02  0 
 -3.058623e-03  -2.791360e-02  0 
 -1.001037e-03  -2.790210e-02  0 
 1.028919e-03  -2.790210e-02  0 
 3.086506e-03  -2.791360e-02  0 
 5.077035e-03  -2.790110e-02  0 
 -3.166309e-03  -3.314901e-02  0 
 -1.051545e-03  -3.314284e-02  0 
 1.079428e-03  -3.314284e-02  0 
 3.194191e-03  -3.314901e-02  0 
 5.392201e-03  -3.317277e-02  0 
VECTORS displacement_ITER3 FLOAT
 -4.988580e-03  -2.774854e-02  0 
 -5.289304e-03  -3.295774e-02  0 
 -3.010805e-03  -2.775531e-02  0 
 -9.777907e-04  -2.774389e-02  0 
 1.025471e-03  -2.774389e-02  0 
 3.058485e-03  -2.775531e-02  0 
 5.036260e-03  -2.774854e-02  0 
 -3.121434e-03  -3.293261e-02  0 
 -1.029496e-03  -3.292516e-02  0 
 1.077176e-03  -3.292516e-02  0 
 3.169115e-03  -3.293261e-02  0 
 5.336985e-03  -3.295774e-02  0 
VECTORS displacement_ITER4 FLOAT
 -4.969013e-03  -2.769752e-02  0 
 -5.265729e-03  -3.285686e-02  0 
 -3.005138e-03  -2.768637e-02  0 
 -9.794926e-04  -2.767341e-02  0 
 1.024801e-03  -2.767341e-02  0 
 3.050447e-03  -2.768637e-02  0 
 5.014322e-03  -2.769752e-02  0 
 -3.116939e-03  -3.284555e-02  0 
 -1.031401e-03  -3.283882e-02  0 
 1.076709e-03  -3.283882e-02  0 
 3.162247e-03  -3.284555e-02  0 
 5.311037e-03  -3.285686e-02  0 
VECTORS displacement_ITER5 FLOAT
 -4.968455e-03  -2.769152e-02  0 
 -5.265363e-03  -3.284511e-02  0 
 -3.006312e-03  -2.767769e-02  0 
 -9.810597e-04  -2.766438e-02  0 
 1.024449e-03  -2.766440e-02  0 
 3.049689e-03  -2.767772e-02  0 
 5.011765e-03  -2.769156e-02  0 
 -3.118183e-03  -3.283588e-02  0 
 -1.032881e-03  -3.282938e-02  0 
 1.076271e-03  -3.282937e-02  0 
 3.161557e-03  -3.283586e-02  0 
 5.308726e-03  -3.284508e-02  0 
VECTORS displacement_ITER6 FLOAT
 -4.967707e-03  -2.768701e-02  0 
 -5.265482e-03  -3.284005e-02  0 
 -3.005983e-03  -2.767293e-02  0 
 -9.809399e-04  -2.765941e-02  0 
 1.024785e-03  -2.765924e-02  0 
 3.049954e-03  -2.767271e-02  0 
 5.012219e-03  -2.768663e-02  0 
 -3.117816e-03  -3.283065e-02  0 
 -1.032604e-03  -3.282429e-02  0 
 1.076447e-03  -3.282442e-02  0 
 3.161808e-03  -3.283082e-02  0 
 5.309606e-03  -3.284032e-02  0 
VECTORS displacement_ITER7 FLOAT
 -4.968105e-03  -2.768429e-02  0 
 -5.265682e-03  -3.283931e-02  0 
 -3.005468e-03  -2.767102e-02  0 
 -9.803319e-04  -2.765758e-02  0 
 1.025087e-03  -2.765799e-02  0 
 3.049910e-03  -2.767153e-02  0 
 5.011442e-03  -2.768520e-02  0 
 -3.117289e-03  -3.282915e-02  0 
 -1.031891e-03  -3.282275e-02  0 
 1.076653e-03  -3.282240e-02  0 
 3.161695e-03  -3.282873e-02  0 
 5.309680e-03  -3.283863e-02  0 
VECTORS displacement_ITER8 FLOAT
 -4.966606e-03  -2.768457e-02  0 
 -5.265072e-03  -3.283785e-02  0 
 -3.005468e-03  -2.767112e-02  0 
 -9.808504e-04  -2.765761e-02  0 
 1.024391e-03  -2.765688e-02  0 
 3.049588e-03  -2.767025e-02  0 
 5.012367e-03  -2.768300e-02  0 
 -3.117206e-03  -3.282783e-02  0 
 -1.032330e-03  -3.282152e-02  0 
 1.075866e-03  -3.282216e-02  0 
 3.161361e-03  -3.282858e-02  0 
 5.310124e-03  -3.283914e-02  0 
VECTORS displacement_ITER9 FLOAT
 -4.967915e-03  -2.768262e-02  0 
 -5.266121e-03  -3.283876e-02  0 
 -3.005562e-03  -2.766992e-02  0 
 -9.803697e-04  -2.765655e-02  0 
 1.024969e-03  -2.765721e-02  0 
 3.049618e-03  -2.767066e-02  0 
 5.010791e-03  -2.768399e-02  0 
 -3.117281e-03  -3.282822e-02  0 
 -1.031771e-03  -3.282182e-02  0 
 1.076372e-03  -3.282120e-02  0 
 3.161331e-03  -3.282751e-02  0 
 5.309125e-03  -3.283746e-02  0 
VECTORS displacement_ITER10 FLOAT
 -4.967254e-03  -2.768337e-02  0 
 -5.265474e-03  -3.283749e-02  0 
 -3.005798e-03  -2.767016e-02  0 
 -9.809618e-04  -2.765674e-02  0 
 1.024598e-03  -2.765644e-02  0 
 3.049720e-03  -2.766983e-02  0 
 5.011564e-03  -2.768273e-02  0 
 -3.117497e-03  -3.282756e-02  0 
 -1.032298e-03  -3.282124e-02  0 
 1.075937e-03  -3.282158e-02  0 
 3.161403e-03  -3.282795e-02  0 
 5.310109e-03  -3.283826e-02  0 
VECTORS displacement_ITER11 FLOAT
 -4.967518e-03  -2.768290e-02  0 
 -5.266071e-03  -3.283788e-02  0 
 -3.005878e-03  -2.766982e-02  0 
 -9.808407e-04  -2.765642e-02  0 
 1.024868e-03  -2.765643e-02  0 
 3.049875e-03  -2.766983e-02  0 
 5.011585e-03  -2.768292e-02  0 
 -3.117558e-03  -3.282777e-02  0 
 -1.032137e-03  -3.282143e-02  0 
 1.076163e-03  -3.282138e-02  0 
 3.161566e-03  -3.282771e-02  0 
 5.309886e-03  -3.283776e-02  0 
VECTORS displacement_ITER12 FLOAT
 -4.967755e-03  -2.768270e-02  0 
 -5.266208e-03  -3.283798e-02  0 
 -3.005923e-03  -2.766968e-02  0 
 -9.808360e-04  -2.765628e-02  0 
 1.024957e-03  -2.765638e-02  0 
 3.049956e-03  -2.766979e-02  0 
 5.011637e-03  -2.768292e-02  0 
 -3.117611e-03  -3.282781e-02  0 
 -1.032097e-03  -3.282147e-02  0 
 1.076218e-03  -3.282136e-02  0 
 3.161645e-03  -3.282770e-02  0 
 5.310055e-03  -3.283774e-02  0 
VECTORS displacement_ITER13 FLOAT
 -4.967704e-03  -2.768284e-02  0 
 -5.266116e-03  -3.283785e-02  0 
 -3.005935e-03  -2.766975e-02  0 
 -9.809098e-04  -2.765635e-02  0 
 1.024891e-03  -2.765633e-02  0 
 3.049937e-03  -2.766973e-02  0 
 5.011739e-03  -2.768278e-02  0 
 -3.117629e-03  -3.282775e-02  0 
 -1.032158e-03  -3.282142e-02  0 
 1.076140e-03  -3.282144e-02  0 
 3.161630e-03  -3.282778e-02  0 
 5.310178e-03  -3.283792e-02  0 
VECTORS displacement_ITER14 FLOAT
 -4.967683e-03  -2.768290e-02  0 
 -5.266090e-03  -3.283789e-02  0 
 -3.005915e-03  -2.766981e-02  0 
 -9.809146e-04  -2.765641e-02  0 
 1.024880e-03  -2.765638e-02  0 
 3.049904e-03  -2.766978e-02  0 
 5.011720e-03  -2.768284e-02  0 
 -3.117613e-03  -3.282777e-02  0 
 -1.032149e-03  -3.282144e-02  0 
 1.076114e-03  -3.282147e-02  0 
 3.161602e-03  -3.282781e-02  0 
 5.310124e-03  -3.283796e-02  0 
VECTORS displacement_ITER15 FLOAT
 -4.967689e-03  -2.768290e-02  0 
 -5.266081e-03  -3.283795e-02  0 
 -3.005896e-03  -2.766983e-02  0 
 -9.808935e-04  -2.765643e-02  0 
 1.024900e-03  -2.765644e-02  0 
 3.049894e-03  -2.766984e-02  0 
 5.011664e-03  -2.768293e-02  0 
 -3.117596e-03  -3.282781e-02  0 
 -1.032121e-03  -3.282147e-02  0 
 1.076128e-03  -3.282146e-02  0 
 3.161594e-03  -3.282780e-02  0 
 5.310066e-03  -3.283792e-02  0 
VECTORS displacement_ITER16 FLOAT
 -4.967655e-03  -2.768294e-02  0 
 -5.266050e-03  -3.283793e-02  0 
 -3.005887e-03  -2.766986e-02  0 
 -9.808986e-04  -2.765646e-02  0 
 1.024895e-03  -2.765646e-02  0 
 3.049885e-03  -2.766986e-02  0 
 5.011661e-03  -2.768294e-02  0 
 -3.117587e-03  -3.282781e-02  0 
 -1.032122e-03  -3.282147e-02  0 
 1.076119e-03  -3.282147e-02  0 
 3.161585e-03  -3.282781e-02  0 
 5.310049e-03  -3.283794e-02  0 
VECTORS displacement_ITER17 FLOAT
 -4.967658e-03  -2.768294e-02  0 
 -5.266049e-03  -3.283794e-02  0 
 -3.005884e-03  -2.766986e-02  0 
 -9.808968e-04  -2.765646e-02  0 
 1.024896e-03  -2.765646e-02  0 
 3.049883e-03  -2.766986e-02  0 
 5.011660e-03  -2.768294e-02  0 
 -3.117585e-03  -3.282781e-02  0 
 -1.032119e-03  -3.282147e-02  0 
 1.076119e-03  -3.282147e-02  0 
 3.161584e-03  -3.282781e-02  0 
 5.310047e-03  -3.283794e-02  0 
VECTORS displacement_ITER18 FLOAT
 -4.967661e-03  -2.768293e-02  0 
 -5.266052e-03  -3.283793e-02  0 
 -3.005886e-03  -2.766986e-02  0 
 -9.808989e-04  -2.765646e-02  0 
 1.024897e-03  -2.765646e-02  0 
 3.049885e-03  -2.766986e-02  0 
 5.011660e-03  -2.768293e-02  0 
 -3.117586e-03  -3.282781e-02  0 
 -1.032120e-03  -3.282147e-02  0 
 1.076118e-03  -3.282147e-02  0 
 3.161585e-03  -3.282781e-02  0 
 5.310052e-03  -3.283793e-02  0 
VECTORS displacement_ITER19 FLOAT
 -4.967661e-03  -2.768293e-02  0 
 -5.266055e-03  -3.283793e-02  0 
 -3.005887e-03  -2.766985e-02  0 
 -9.809000e-04  -2.765645e-02  0 
 1.024898e-03  -2.765645e-02  0 
 3.049886e-03  -2.766985e-02  0 
 5.011662e-03  -2.768293e-02  0 
 -3.117588e-03  -3.282781e-02  0 
 -1.032120e-03  -3.282147e-02  0 
 1.076119e-03  -3.282147e-02  0 
 3.161586e-03  -3.282781e-02  0 
 5.310053e-03  -3.283793e-02  0 
VECTORS displacement_ITER20 FLOAT
 -4.967661e-03  -2.768293e-02  0 
 -5.266055e-03  -3.283793e-02  0 
 -3.005887e-03  -2.766985e-02  0 
 -9.808996e-04  -2.765645e-02  0 
 1.024899e-03  -2.765645e-02  0 
 3.049886e-03  -2.766985e-02  0 
 5.011662e-03  -2.768293e-02  0 
 -3.117588e-03  -3.282781e-02  0 
 -1.032119e-03  -3.282147e-02  0 
 1.076119e-03  -3.282147e-02  0 
 3.161587e-03  -3.282781e-02  0 
 5.310054e-03  -3.283793e-02  0 
VECTORS displacement_ITER21 FLOAT
 -4.967661e-03  -2.768293e-02  0 
 -5.266055e-03  -3.283793e-02  0 
 -3.005887e-03  -2.766985e-02  0 
 -9.808997e-04  -2.765645e-02  0 
 1.024898e-03  -2.765645e-02  0 
 3.049886e-03  -2.766985e-02  0 
 5.011662e-03  -2.768293e-02  0 
 -3.117588e-03  -3.282781e-02  0 
 -1.032119e-03  -3.282147e-02  0 
 1.076119e-03  -3.282147e-02  0 
 3.161586e-03  -3.282781e-02  0 
 5.310054e-03  -3.283793e-02  0 
VECTORS displacement_ITER22 FLOAT
 -4.967661e-03  -2.768293e-02  0 
 -5.266055e-03  -3.283793e-02  0 
 -3.005887e-03  -2.766985e-02  0 
 -9.808997e-04  -2.765645e-02  0 
 1.024898e-03  -2.765645e-02  0 
 3.049886e-03  -2.766985e-02  0 
 5.011662e-03  -2.768293e-02  0 
 -3.117588e-03  -3.282781e-02  0 
 -1.032119e-03  -3.282147e-02  0 
 1.076119e-03  -3.282147e-02  0 
 3.161586e-03  -3.282781e-02  0 
 5.310054e-03  -3.283793e-02  0 
VECTORS displacement_ITER23 FLOAT
 -4.967661e-03  -2.768293e-02  0 
 -5.266055e-03  -3.283793e-02  0 
 -3.005887e-03  -2.766985e-02  0 
 -9.808997e-04  -2.765645e-02  0 
 1.024898e-03  -2.765645e-02  0 
 3.049886e-03  -2.766985e-02  0 
 5.011662e-03  -2.768293e-02  0 
 -3.117588e-03  -3.282781e-02  0 
 -1.032119e-03  -3.282147e-02  0 
 1.076119e-03  -3.282147e-02  0 
 3.161586e-03  -3.282781e-02  0 
 5.310054e-03  -3.283793e-02  0 
VECTORS displacement_ITER24 FLOAT
 -4.967661e-03  -2.768293e-02  0 
 -5.266055e-03  -3.283793e-02  0 
 -3.005887e-03  -2.766985e-02  0 
 -9.808997e-04  -2.765645e-02  0 
 1.024898e-03  -2.765645e-02  0 
 3.049886e-03  -2.766985e-02  0 
 5.011662e-03  -2.768293e-02  0 
 -3.117588e-03  -3.282781e-02  0 
 -1.032119e-03  -3.282147e-02  0 
 1.076118e-03  -3.282147e-02  0 
 3.161586e-03  -3.282781e-02  0 
 5.310054e-03  -3.283793e-02  0 
VECTORS displacement_ITER25 FLOAT
 -4.967661e-03  -2.768293e-02  0 
 -5.266055e-03  -3.283793e-02  0 
 -3.005887e-03  -2.766985e-02  0 
 -9.808997e-04  -2.765645e-02  0 
 1.024898e-03  -2.765645e-02  0 
 3.049886e-03  -2.766985e-02  0 
 5.011662e-03  -2.768293e-02  0 
 -3.117588e-03  -3.282781e-02  0 
 -1.032119e-03  -3.282147e-02  0 
 1.076118e-03  -3.282147e-02  0 
 3.161586e-03  -3.282781e-02  0 
 5.310054e-03  -3.283793e-02  0 
VECTORS displacement_ITER26 FLOAT
 -4.967661e-03  -2.768293e-02  0 
 -5.266055e-03  -3.283793e-02  0 
 -3.005887e-03  -2.766985e-02  0 
 -9.808997e-04  -2.765645e-02  0 
 1.024898e-03  -2.765645e-02  0 
 3.049886e-03  -2.766985e-02  0 
 5.011662e-03  -2.768293e-02  0 
 -3.117588e-03  -3.282781e-02  0 
 -1.032119e-03  -3.282147e-02  0 
 1.076118e-03  -3.282147e-02  0 
 3.161586e-03  -3.282781e-02  0 
 5.310054e-03  -3.283793e-02  0 
CELL_DATA 5
TENSORS element_stresses FLOAT
 -4.315294e-02  -2.873155e-03  0 
 -2.873155e-03  -7.145129e-03  0 
 0  0  0 

 -1.627657e-01  -3.602374e-02  0 
 -3.602374e-02  5.151641e-04  0 
 0  0  0 

 4.395387e-09  -3.457075e-03  0 
 -3.457075e-03  -1.115888e-07  0 
 0  0  0 

 1.627659e-01  -3.602313e-02  0 
 -3.602313e-02  -5.153526e-04  0 
 0  0  0 

 4.315274e-02  -2.872899e-03  0 
 -2.872899e-03  7.145075e-03  0 
 0  0  0 

TENSORS element_stresses FLOAT
 -4.315294e-02  -2.873155e-03  0 
 -2.873155e-03  -7.145129e-03  0 
 0  0  0 

 -1.627657e-01  -3.602374e-02  0 
 -3.602374e-02  5.151641e-04  0 
 0  0  0 

 4.395387e-09  -3.457075e-03  0 
 -3.457075e-03  -1.115888e-07  0 
 0  0  0 

 1.627659e-01  -3.602313e-02  0 
 -3.602313e-02  -5.153526e-04  0 
 0  0  0 

 4.315274e-02  -2.872899e-03  0 
 -2.872899e-03  7.145075e-03  0 
 0  0  0 

