# vtk DataFile Version 3.1
this is an vtk file created by FEMAC
ASCII
DATASET UNSTRUCTURED_GRID
POINTS 12 FLOAT
6.000000 0.000000 0.000000
6.500000 0.000000 0.000000
6.000000 0.200000 0.000000
6.000000 0.400000 0.000000
6.000000 0.600000 0.000000
6.000000 0.800000 0.000000
6.000000 1.000000 0.000000
6.500000 0.200000 0.000000
6.500000 0.400000 0.000000
6.500000 0.600000 0.000000
6.500000 0.800000 0.000000
6.500000 1.000000 0.000000
CELLS 5 25 
4 0 1 7 2
4 2 7 8 3
4 3 8 9 4
4 4  9 10  5
4 5 10 11  6
CELL_TYPES 5
9 9 9 9 9 
POINT_DATA 12
VECTORS displacement_ITER1 FLOAT
 -5.873382e-03  -4.588137e-02  0 
 -5.893803e-03  -5.180613e-02  0 
 -3.498263e-03  -4.587467e-02  0 
 -1.147328e-03  -4.585643e-02  0 
 1.217682e-03  -4.585643e-02  0 
 3.568617e-03  -4.587467e-02  0 
 5.943736e-03  -4.588137e-02  0 
 -3.526704e-03  -5.180415e-02  0 
 -1.154923e-03  -5.181006e-02  0 
 1.225277e-03  -5.181006e-02  0 
 3.597058e-03  -5.180415e-02  0 
 5.964157e-03  -5.180613e-02  0 
VECTORS displacement_ITER2 FLOAT
 -5.549283e-03  -4.409259e-02  0 
 -5.567993e-03  -4.967989e-02  0 
 -3.309445e-03  -4.408855e-02  0 
 -1.097574e-03  -4.408091e-02  0 
 1.125456e-03  -4.408091e-02  0 
 3.337327e-03  -4.408855e-02  0 
 5.577165e-03  -4.409259e-02  0 
 -3.339821e-03  -4.967691e-02  0 
 -1.105025e-03  -4.967350e-02  0 
 1.132907e-03  -4.967350e-02  0 
 3.367703e-03  -4.967691e-02  0 
 5.595875e-03  -4.967989e-02  0 
VECTORS displacement_ITER3 FLOAT
 -5.472071e-03  -4.374572e-02  0 
 -5.490425e-03  -4.926770e-02  0 
 -3.257971e-03  -4.374170e-02  0 
 -1.073318e-03  -4.373850e-02  0 
 1.120998e-03  -4.373850e-02  0 
 3.305651e-03  -4.374170e-02  0 
 5.519751e-03  -4.374572e-02  0 
 -3.288823e-03  -4.926487e-02  0 
 -1.080770e-03  -4.925925e-02  0 
 1.128450e-03  -4.925925e-02  0 
 3.336503e-03  -4.926487e-02  0 
 5.538105e-03  -4.926770e-02  0 
VECTORS displacement_ITER4 FLOAT
 -5.452880e-03  -4.360726e-02  0 
 -5.471179e-03  -4.910862e-02  0 
 -3.246544e-03  -4.360270e-02  0 
 -1.069985e-03  -4.360160e-02  0 
 1.115294e-03  -4.360160e-02  0 
 3.291853e-03  -4.360270e-02  0 
 5.498189e-03  -4.360726e-02  0 
 -3.277551e-03  -4.910616e-02  0 
 -1.077461e-03  -4.910090e-02  0 
 1.122770e-03  -4.910090e-02  0 
 3.322859e-03  -4.910616e-02  0 
 5.516487e-03  -4.910862e-02  0 
VECTORS displacement_ITER5 FLOAT
 -5.453204e-03  -4.359404e-02  0 
 -5.471526e-03  -4.909402e-02  0 
 -3.247405e-03  -4.358940e-02  0 
 -1.070939e-03  -4.358800e-02  0 
 1.114315e-03  -4.358800e-02  0 
 3.290780e-03  -4.358940e-02  0 
 5.496580e-03  -4.359404e-02  0 
 -3.278375e-03  -4.909162e-02  0 
 -1.078382e-03  -4.908732e-02  0 
 1.121757e-03  -4.908732e-02  0 
 3.321751e-03  -4.909162e-02  0 
 5.514902e-03  -4.909402e-02  0 
VECTORS displacement_ITER6 FLOAT
 -5.453330e-03  -4.358913e-02  0 
 -5.471687e-03  -4.908855e-02  0 
 -3.247817e-03  -4.358447e-02  0 
 -1.070985e-03  -4.358232e-02  0 
 1.114968e-03  -4.358232e-02  0 
 3.291800e-03  -4.358447e-02  0 
 5.497314e-03  -4.358913e-02  0 
 -3.278715e-03  -4.908617e-02  0 
 -1.078348e-03  -4.908319e-02  0 
 1.122331e-03  -4.908319e-02  0 
 3.322698e-03  -4.908617e-02  0 
 5.515670e-03  -4.908855e-02  0 
VECTORS displacement_ITER7 FLOAT
 -5.453121e-03  -4.358763e-02  0 
 -5.471493e-03  -4.908686e-02  0 
 -3.247720e-03  -4.358300e-02  0 
 -1.070882e-03  -4.358056e-02  0 
 1.115289e-03  -4.358056e-02  0 
 3.292127e-03  -4.358300e-02  0 
 5.497529e-03  -4.358763e-02  0 
 -3.278595e-03  -4.908447e-02  0 
 -1.078198e-03  -4.908181e-02  0 
 1.122605e-03  -4.908181e-02  0 
 3.323002e-03  -4.908447e-02  0 
 5.515901e-03  -4.908686e-02  0 
VECTORS displacement_ITER8 FLOAT
 -5.453162e-03  -4.358707e-02  0 
 -5.471545e-03  -4.908639e-02  0 
 -3.247728e-03  -4.358246e-02  0 
 -1.071000e-03  -4.357998e-02  0 
 1.115191e-03  -4.357998e-02  0 
 3.291919e-03  -4.358246e-02  0 
 5.497352e-03  -4.358707e-02  0 
 -3.278609e-03  -4.908399e-02  0 
 -1.078286e-03  -4.908117e-02  0 
 1.122476e-03  -4.908117e-02  0 
 3.322800e-03  -4.908399e-02  0 
 5.515736e-03  -4.908639e-02  0 
VECTORS displacement_ITER9 FLOAT
 -5.453392e-03  -4.358703e-02  0 
 -5.471785e-03  -4.908664e-02  0 
 -3.247841e-03  -4.358242e-02  0 
 -1.071135e-03  -4.357997e-02  0 
 1.115104e-03  -4.357997e-02  0 
 3.291812e-03  -4.358242e-02  0 
 5.497364e-03  -4.358703e-02  0 
 -3.278734e-03  -4.908422e-02  0 
 -1.078398e-03  -4.908122e-02  0 
 1.122370e-03  -4.908122e-02  0 
 3.322705e-03  -4.908422e-02  0 
 5.515757e-03  -4.908664e-02  0 
VECTORS displacement_ITER10 FLOAT
 -5.453632e-03  -4.358733e-02  0 
 -5.472031e-03  -4.908726e-02  0 
 -3.247943e-03  -4.358272e-02  0 
 -1.071169e-03  -4.358029e-02  0 
 1.115166e-03  -4.358028e-02  0 
 3.291936e-03  -4.358271e-02  0 
 5.497619e-03  -4.358733e-02  0 
 -3.278848e-03  -4.908484e-02  0 
 -1.078419e-03  -4.908174e-02  0 
 1.122411e-03  -4.908174e-02  0 
 3.322839e-03  -4.908484e-02  0 
 5.516020e-03  -4.908726e-02  0 
VECTORS displacement_ITER11 FLOAT
 -5.453841e-03  -4.358765e-02  0 
 -5.472246e-03  -4.908777e-02  0 
 -3.248082e-03  -4.358303e-02  0 
 -1.071237e-03  -4.358061e-02  0 
 1.115187e-03  -4.358061e-02  0 
 3.292036e-03  -4.358304e-02  0 
 5.497803e-03  -4.358766e-02  0 
 -3.278990e-03  -4.908536e-02  0 
 -1.078467e-03  -4.908225e-02  0 
 1.122423e-03  -4.908225e-02  0 
 3.322946e-03  -4.908535e-02  0 
 5.516206e-03  -4.908777e-02  0 
VECTORS displacement_ITER12 FLOAT
 -5.453928e-03  -4.358791e-02  0 
 -5.472333e-03  -4.908812e-02  0 
 -3.248123e-03  -4.358329e-02  0 
 -1.071219e-03  -4.358086e-02  0 
 1.115273e-03  -4.358085e-02  0 
 3.292174e-03  -4.358328e-02  0 
 5.497973e-03  -4.358790e-02  0 
 -3.279037e-03  -4.908570e-02  0 
 -1.078439e-03  -4.908263e-02  0 
 1.122492e-03  -4.908263e-02  0 
 3.323087e-03  -4.908570e-02  0 
 5.516378e-03  -4.908812e-02  0 
VECTORS displacement_ITER13 FLOAT
 -5.453957e-03  -4.358793e-02  0 
 -5.472362e-03  -4.908814e-02  0 
 -3.248158e-03  -4.358331e-02  0 
 -1.071254e-03  -4.358088e-02  0 
 1.115248e-03  -4.358088e-02  0 
 3.292151e-03  -4.358331e-02  0 
 5.497951e-03  -4.358793e-02  0 
 -3.279073e-03  -4.908572e-02  0 
 -1.078469e-03  -4.908267e-02  0 
 1.122461e-03  -4.908267e-02  0 
 3.323066e-03  -4.908572e-02  0 
 5.516357e-03  -4.908814e-02  0 
VECTORS displacement_ITER14 FLOAT
 -5.453911e-03  -4.358788e-02  0 
 -5.472317e-03  -4.908804e-02  0 
 -3.248130e-03  -4.358326e-02  0 
 -1.071252e-03  -4.358082e-02  0 
 1.115242e-03  -4.358083e-02  0 
 3.292122e-03  -4.358326e-02  0 
 5.497905e-03  -4.358788e-02  0 
 -3.279048e-03  -4.908562e-02  0 
 -1.078457e-03  -4.908257e-02  0 
 1.122451e-03  -4.908257e-02  0 
 3.323041e-03  -4.908562e-02  0 
 5.516310e-03  -4.908804e-02  0 
VECTORS displacement_ITER15 FLOAT
 -5.453877e-03  -4.358783e-02  0 
 -5.472282e-03  -4.908797e-02  0 
 -3.248104e-03  -4.358321e-02  0 
 -1.071242e-03  -4.358078e-02  0 
 1.115242e-03  -4.358078e-02  0 
 3.292104e-03  -4.358321e-02  0 
 5.497876e-03  -4.358783e-02  0 
 -3.279025e-03  -4.908555e-02  0 
 -1.078447e-03  -4.908250e-02  0 
 1.122446e-03  -4.908250e-02  0 
 3.323024e-03  -4.908555e-02  0 
 5.516281e-03  -4.908797e-02  0 
VECTORS displacement_ITER16 FLOAT
 -5.453855e-03  -4.358780e-02  0 
 -5.472261e-03  -4.908792e-02  0 
 -3.248089e-03  -4.358318e-02  0 
 -1.071239e-03  -4.358075e-02  0 
 1.115237e-03  -4.358075e-02  0 
 3.292087e-03  -4.358318e-02  0 
 5.497853e-03  -4.358780e-02  0 
 -3.279011e-03  -4.908550e-02  0 
 -1.078443e-03  -4.908245e-02  0 
 1.122440e-03  -4.908245e-02  0 
 3.323009e-03  -4.908550e-02  0 
 5.516259e-03  -4.908792e-02  0 
VECTORS displacement_ITER17 FLOAT
 -5.453851e-03  -4.358780e-02  0 
 -5.472257e-03  -4.908791e-02  0 
 -3.248087e-03  -4.358318e-02  0 
 -1.071238e-03  -4.358075e-02  0 
 1.115238e-03  -4.358075e-02  0 
 3.292086e-03  -4.358318e-02  0 
 5.497851e-03  -4.358780e-02  0 
 -3.279009e-03  -4.908549e-02  0 
 -1.078441e-03  -4.908244e-02  0 
 1.122440e-03  -4.908244e-02  0 
 3.323008e-03  -4.908549e-02  0 
 5.516257e-03  -4.908791e-02  0 
VECTORS displacement_ITER18 FLOAT
 -5.453856e-03  -4.358780e-02  0 
 -5.472262e-03  -4.908791e-02  0 
 -3.248090e-03  -4.358318e-02  0 
 -1.071240e-03  -4.358075e-02  0 
 1.115238e-03  -4.358075e-02  0 
 3.292089e-03  -4.358318e-02  0 
 5.497854e-03  -4.358780e-02  0 
 -3.279013e-03  -4.908550e-02  0 
 -1.078442e-03  -4.908244e-02  0 
 1.122440e-03  -4.908244e-02  0 
 3.323011e-03  -4.908550e-02  0 
 5.516260e-03  -4.908791e-02  0 
VECTORS displacement_ITER19 FLOAT
 -5.453858e-03  -4.358780e-02  0 
 -5.472264e-03  -4.908792e-02  0 
 -3.248091e-03  -4.358318e-02  0 
 -1.071240e-03  -4.358075e-02  0 
 1.115239e-03  -4.358075e-02  0 
 3.292090e-03  -4.358318e-02  0 
 5.497857e-03  -4.358780e-02  0 
 -3.279014e-03  -4.908550e-02  0 
 -1.078442e-03  -4.908245e-02  0 
 1.122441e-03  -4.908245e-02  0 
 3.323013e-03  -4.908550e-02  0 
 5.516263e-03  -4.908792e-02  0 
VECTORS displacement_ITER20 FLOAT
 -5.453859e-03  -4.358780e-02  0 
 -5.472265e-03  -4.908792e-02  0 
 -3.248092e-03  -4.358318e-02  0 
 -1.071240e-03  -4.358075e-02  0 
 1.115239e-03  -4.358075e-02  0 
 3.292091e-03  -4.358318e-02  0 
 5.497858e-03  -4.358780e-02  0 
 -3.279014e-03  -4.908551e-02  0 
 -1.078442e-03  -4.908245e-02  0 
 1.122441e-03  -4.908245e-02  0 
 3.323013e-03  -4.908551e-02  0 
 5.516264e-03  -4.908792e-02  0 
VECTORS displacement_ITER21 FLOAT
 -5.453859e-03  -4.358780e-02  0 
 -5.472265e-03  -4.908792e-02  0 
 -3.248091e-03  -4.358318e-02  0 
 -1.071240e-03  -4.358075e-02  0 
 1.115239e-03  -4.358075e-02  0 
 3.292090e-03  -4.358318e-02  0 
 5.497858e-03  -4.358780e-02  0 
 -3.279014e-03  -4.908550e-02  0 
 -1.078442e-03  -4.908245e-02  0 
 1.122441e-03  -4.908245e-02  0 
 3.323013e-03  -4.908550e-02  0 
 5.516264e-03  -4.908792e-02  0 
VECTORS displacement_ITER22 FLOAT
 -5.453858e-03  -4.358780e-02  0 
 -5.472264e-03  -4.908792e-02  0 
 -3.248091e-03  -4.358318e-02  0 
 -1.071240e-03  -4.358075e-02  0 
 1.115239e-03  -4.358075e-02  0 
 3.292090e-03  -4.358318e-02  0 
 5.497857e-03  -4.358780e-02  0 
 -3.279014e-03  -4.908550e-02  0 
 -1.078442e-03  -4.908245e-02  0 
 1.122441e-03  -4.908245e-02  0 
 3.323013e-03  -4.908550e-02  0 
 5.516263e-03  -4.908792e-02  0 
VECTORS displacement_ITER23 FLOAT
 -5.453858e-03  -4.358780e-02  0 
 -5.472264e-03  -4.908792e-02  0 
 -3.248091e-03  -4.358318e-02  0 
 -1.071240e-03  -4.358075e-02  0 
 1.115239e-03  -4.358075e-02  0 
 3.292090e-03  -4.358318e-02  0 
 5.497857e-03  -4.358780e-02  0 
 -3.279014e-03  -4.908550e-02  0 
 -1.078442e-03  -4.908245e-02  0 
 1.122441e-03  -4.908245e-02  0 
 3.323013e-03  -4.908550e-02  0 
 5.516263e-03  -4.908792e-02  0 
VECTORS displacement_ITER24 FLOAT
 -5.453858e-03  -4.358780e-02  0 
 -5.472264e-03  -4.908792e-02  0 
 -3.248091e-03  -4.358318e-02  0 
 -1.071240e-03  -4.358075e-02  0 
 1.115239e-03  -4.358075e-02  0 
 3.292090e-03  -4.358318e-02  0 
 5.497857e-03  -4.358780e-02  0 
 -3.279014e-03  -4.908550e-02  0 
 -1.078442e-03  -4.908245e-02  0 
 1.122441e-03  -4.908245e-02  0 
 3.323013e-03  -4.908550e-02  0 
 5.516263e-03  -4.908792e-02  0 
VECTORS displacement_ITER25 FLOAT
 -5.453858e-03  -4.358780e-02  0 
 -5.472264e-03  -4.908792e-02  0 
 -3.248091e-03  -4.358318e-02  0 
 -1.071240e-03  -4.358075e-02  0 
 1.115239e-03  -4.358075e-02  0 
 3.292090e-03  -4.358318e-02  0 
 5.497857e-03  -4.358780e-02  0 
 -3.279014e-03  -4.908550e-02  0 
 -1.078442e-03  -4.908245e-02  0 
 1.122441e-03  -4.908245e-02  0 
 3.323013e-03  -4.908550e-02  0 
 5.516263e-03  -4.908792e-02  0 
VECTORS displacement_ITER26 FLOAT
 -5.453858e-03  -4.358780e-02  0 
 -5.472264e-03  -4.908792e-02  0 
 -3.248091e-03  -4.358318e-02  0 
 -1.071240e-03  -4.358075e-02  0 
 1.115239e-03  -4.358075e-02  0 
 3.292090e-03  -4.358318e-02  0 
 5.497857e-03  -4.358780e-02  0 
 -3.279014e-03  -4.908550e-02  0 
 -1.078442e-03  -4.908245e-02  0 
 1.122441e-03  -4.908245e-02  0 
 3.323013e-03  -4.908550e-02  0 
 5.516263e-03  -4.908792e-02  0 
CELL_DATA 5
TENSORS element_stresses FLOAT
 -4.840766e-02  -3.766406e-03  0 
 -3.766406e-03  3.069295e-03  0 
 0  0  0 

 -3.737469e-03  -4.651080e-03  0 
 -4.651080e-03  2.497815e-04  0 
 0  0  0 

 1.115419e-08  -2.691503e-02  0 
 -2.691503e-02  1.394200e-08  0 
 0  0  0 

 3.737470e-03  -4.651079e-03  0 
 -4.651079e-03  -2.497779e-04  0 
 0  0  0 

 4.840765e-02  -3.766405e-03  0 
 -3.766405e-03  -3.069293e-03  0 
 0  0  0 

TENSORS element_stresses FLOAT
 -4.840766e-02  -3.766406e-03  0 
 -3.766406e-03  3.069295e-03  0 
 0  0  0 

 -3.737469e-03  -4.651080e-03  0 
 -4.651080e-03  2.497815e-04  0 
 0  0  0 

 1.115419e-08  -2.691503e-02  0 
 -2.691503e-02  1.394200e-08  0 
 0  0  0 

 3.737470e-03  -4.651079e-03  0 
 -4.651079e-03  -2.497779e-04  0 
 0  0  0 

 4.840765e-02  -3.766405e-03  0 
 -3.766405e-03  -3.069293e-03  0 
 0  0  0 

