# vtk DataFile Version 3.1
this is an vtk file created by FEMAC
ASCII
DATASET UNSTRUCTURED_GRID
POINTS 12 FLOAT
2.000000 0.000000 0.000000
2.500000 0.000000 0.000000
2.000000 0.200000 0.000000
2.000000 0.400000 0.000000
2.000000 0.600000 0.000000
2.000000 0.800000 0.000000
2.000000 1.000000 0.000000
2.500000 0.200000 0.000000
2.500000 0.400000 0.000000
2.500000 0.600000 0.000000
2.500000 0.800000 0.000000
2.500000 1.000000 0.000000
CELLS 5 25 
4 0 1 7 2
4 2 7 8 3
4 3 8 9 4
4 4  9 10  5
4 5 10 11  6
CELL_TYPES 5
9 9 9 9 9 
POINT_DATA 12
VECTORS displacement_ITER1 FLOAT
 -3.381255e-03  -6.284461e-03  0 
 -3.597451e-03  -9.828662e-03  0 
 -1.915372e-03  -6.235634e-03  0 
 -6.474474e-04  -6.125285e-03  0 
 7.178012e-04  -6.125285e-03  0 
 1.985726e-03  -6.235634e-03  0 
 3.451608e-03  -6.284461e-03  0 
 -2.220044e-03  -9.795350e-03  0 
 -7.087576e-04  -9.764350e-03  0 
 7.791114e-04  -9.764350e-03  0 
 2.290398e-03  -9.795350e-03  0 
 3.667805e-03  -9.828662e-03  0 
VECTORS displacement_ITER2 FLOAT
 -3.291428e-03  -6.287621e-03  0 
 -3.493666e-03  -9.740385e-03  0 
 -1.851574e-03  -6.247636e-03  0 
 -6.392271e-04  -6.187304e-03  0 
 6.655863e-04  -6.187150e-03  0 
 1.879688e-03  -6.245767e-03  0 
 3.320694e-03  -6.285739e-03  0 
 -2.177304e-03  -9.703843e-03  0 
 -7.026863e-04  -9.662030e-03  0 
 7.293091e-04  -9.662157e-03  0 
 2.205149e-03  -9.705089e-03  0 
 3.522845e-03  -9.741605e-03  0 
VECTORS displacement_ITER3 FLOAT
 -3.270413e-03  -6.303305e-03  0 
 -3.468401e-03  -9.751615e-03  0 
 -1.827662e-03  -6.264364e-03  0 
 -6.241849e-04  -6.228135e-03  0 
 6.688571e-04  -6.228310e-03  0 
 1.874268e-03  -6.263296e-03  0 
 3.317726e-03  -6.302511e-03  0 
 -2.158932e-03  -9.716557e-03  0 
 -6.874132e-04  -9.673437e-03  0 
 7.329092e-04  -9.673554e-03  0 
 2.205174e-03  -9.716811e-03  0 
 3.515516e-03  -9.751824e-03  0 
VECTORS displacement_ITER4 FLOAT
 -3.267867e-03  -6.319531e-03  0 
 -3.463407e-03  -9.765214e-03  0 
 -1.821767e-03  -6.279644e-03  0 
 -6.201831e-04  -6.255786e-03  0 
 6.693308e-04  -6.255035e-03  0 
 1.871721e-03  -6.278672e-03  0 
 3.316715e-03  -6.318080e-03  0 
 -2.155576e-03  -9.732460e-03  0 
 -6.834602e-04  -9.693793e-03  0 
 7.323512e-04  -9.693963e-03  0 
 2.204742e-03  -9.732181e-03  0 
 3.512527e-03  -9.764893e-03  0 
VECTORS displacement_ITER5 FLOAT
 -3.270422e-03  -6.323479e-03  0 
 -3.465879e-03  -9.766046e-03  0 
 -1.826193e-03  -6.283962e-03  0 
 -6.247867e-04  -6.258524e-03  0 
 6.656469e-04  -6.258371e-03  0 
 1.868269e-03  -6.283630e-03  0 
 3.312528e-03  -6.323281e-03  0 
 -2.159921e-03  -9.733626e-03  0 
 -6.874462e-04  -9.698779e-03  0 
 7.286340e-04  -9.698790e-03  0 
 2.201526e-03  -9.733243e-03  0 
 3.507965e-03  -9.765492e-03  0 
VECTORS displacement_ITER6 FLOAT
 -3.267231e-03  -6.327989e-03  0 
 -3.462784e-03  -9.764486e-03  0 
 -1.825442e-03  -6.288634e-03  0 
 -6.240742e-04  -6.259570e-03  0 
 6.676586e-04  -6.259502e-03  0 
 1.870044e-03  -6.288181e-03  0 
 3.311917e-03  -6.327653e-03  0 
 -2.158965e-03  -9.732278e-03  0 
 -6.861764e-04  -9.701927e-03  0 
 7.304022e-04  -9.702156e-03  0 
 2.203296e-03  -9.732403e-03  0 
 3.507284e-03  -9.764678e-03  0 
VECTORS displacement_ITER7 FLOAT
 -3.265743e-03  -6.329536e-03  0 
 -3.461341e-03  -9.764250e-03  0 
 -1.824715e-03  -6.290089e-03  0 
 -6.237283e-04  -6.260401e-03  0 
 6.678884e-04  -6.260271e-03  0 
 1.869664e-03  -6.289660e-03  0 
 3.310626e-03  -6.329099e-03  0 
 -2.158258e-03  -9.731890e-03  0 
 -6.858655e-04  -9.702175e-03  0 
 7.303322e-04  -9.702258e-03  0 
 2.202832e-03  -9.731895e-03  0 
 3.506181e-03  -9.764190e-03  0 
VECTORS displacement_ITER8 FLOAT
 -3.265075e-03  -6.329719e-03  0 
 -3.460789e-03  -9.764413e-03  0 
 -1.824121e-03  -6.290180e-03  0 
 -6.235999e-04  -6.261157e-03  0 
 6.674020e-04  -6.261035e-03  0 
 1.868589e-03  -6.289901e-03  0 
 3.309427e-03  -6.329438e-03  0 
 -2.157631e-03  -9.731961e-03  0 
 -6.857149e-04  -9.701379e-03  0 
 7.297718e-04  -9.701427e-03  0 
 2.201743e-03  -9.731874e-03  0 
 3.505119e-03  -9.764252e-03  0 
VECTORS displacement_ITER9 FLOAT
 -3.264740e-03  -6.329486e-03  0 
 -3.460544e-03  -9.764243e-03  0 
 -1.823812e-03  -6.289910e-03  0 
 -6.234943e-04  -6.261338e-03  0 
 6.671747e-04  -6.261234e-03  0 
 1.868092e-03  -6.289698e-03  0 
 3.308918e-03  -6.329294e-03  0 
 -2.157245e-03  -9.731786e-03  0 
 -6.855392e-04  -9.700645e-03  0 
 7.294986e-04  -9.700703e-03  0 
 2.201224e-03  -9.731739e-03  0 
 3.504682e-03  -9.764157e-03  0 
VECTORS displacement_ITER10 FLOAT
 -3.264646e-03  -6.329039e-03  0 
 -3.460496e-03  -9.763677e-03  0 
 -1.823820e-03  -6.289449e-03  0 
 -6.234790e-04  -6.260925e-03  0 
 6.671701e-04  -6.260823e-03  0 
 1.868075e-03  -6.289235e-03  0 
 3.308834e-03  -6.328843e-03  0 
 -2.157186e-03  -9.731233e-03  0 
 -6.854703e-04  -9.700034e-03  0 
 7.294137e-04  -9.700086e-03  0 
 2.201164e-03  -9.731246e-03  0 
 3.504646e-03  -9.763651e-03  0 
VECTORS displacement_ITER11 FLOAT
 -3.264648e-03  -6.328589e-03  0 
 -3.460524e-03  -9.763062e-03  0 
 -1.823927e-03  -6.288988e-03  0 
 -6.235095e-04  -6.260357e-03  0 
 6.672292e-04  -6.260255e-03  0 
 1.868190e-03  -6.288778e-03  0 
 3.308859e-03  -6.328392e-03  0 
 -2.157258e-03  -9.730626e-03  0 
 -6.854612e-04  -9.699557e-03  0 
 7.294093e-04  -9.699603e-03  0 
 2.201256e-03  -9.730657e-03  0 
 3.504700e-03  -9.763048e-03  0 
VECTORS displacement_ITER12 FLOAT
 -3.264651e-03  -6.328210e-03  0 
 -3.460549e-03  -9.762576e-03  0 
 -1.823997e-03  -6.288602e-03  0 
 -6.235348e-04  -6.259895e-03  0 
 6.672881e-04  -6.259797e-03  0 
 1.868275e-03  -6.288411e-03  0 
 3.308876e-03  -6.328035e-03  0 
 -2.157310e-03  -9.730146e-03  0 
 -6.854420e-04  -9.699181e-03  0 
 7.294187e-04  -9.699228e-03  0 
 2.201337e-03  -9.730176e-03  0 
 3.504736e-03  -9.762562e-03  0 
VECTORS displacement_ITER13 FLOAT
 -3.264649e-03  -6.328161e-03  0 
 -3.460551e-03  -9.762547e-03  0 
 -1.823987e-03  -6.288554e-03  0 
 -6.235421e-04  -6.259867e-03  0 
 6.672979e-04  -6.259770e-03  0 
 1.868262e-03  -6.288365e-03  0 
 3.308872e-03  -6.327989e-03  0 
 -2.157302e-03  -9.730119e-03  0 
 -6.854291e-04  -9.699144e-03  0 
 7.294075e-04  -9.699191e-03  0 
 2.201332e-03  -9.730145e-03  0 
 3.504734e-03  -9.762532e-03  0 
VECTORS displacement_ITER14 FLOAT
 -3.264655e-03  -6.328231e-03  0 
 -3.460554e-03  -9.762690e-03  0 
 -1.823952e-03  -6.288629e-03  0 
 -6.235562e-04  -6.259994e-03  0 
 6.672959e-04  -6.259895e-03  0 
 1.868214e-03  -6.288431e-03  0 
 3.308867e-03  -6.328050e-03  0 
 -2.157283e-03  -9.730261e-03  0 
 -6.854217e-04  -9.699242e-03  0 
 7.293784e-04  -9.699288e-03  0 
 2.201302e-03  -9.730284e-03  0 
 3.504729e-03  -9.762671e-03  0 
VECTORS displacement_ITER15 FLOAT
 -3.264664e-03  -6.328292e-03  0 
 -3.460563e-03  -9.762769e-03  0 
 -1.823949e-03  -6.288690e-03  0 
 -6.235649e-04  -6.260056e-03  0 
 6.672999e-04  -6.259957e-03  0 
 1.868208e-03  -6.288488e-03  0 
 3.308877e-03  -6.328107e-03  0 
 -2.157290e-03  -9.730337e-03  0 
 -6.854230e-04  -9.699316e-03  0 
 7.293734e-04  -9.699363e-03  0 
 2.201307e-03  -9.730358e-03  0 
 3.504736e-03  -9.762747e-03  0 
VECTORS displacement_ITER16 FLOAT
 -3.264675e-03  -6.328342e-03  0 
 -3.460573e-03  -9.762810e-03  0 
 -1.823959e-03  -6.288739e-03  0 
 -6.235685e-04  -6.260085e-03  0 
 6.673085e-04  -6.259986e-03  0 
 1.868224e-03  -6.288538e-03  0 
 3.308892e-03  -6.328159e-03  0 
 -2.157307e-03  -9.730377e-03  0 
 -6.854241e-04  -9.699373e-03  0 
 7.293808e-04  -9.699420e-03  0 
 2.201330e-03  -9.730396e-03  0 
 3.504750e-03  -9.762787e-03  0 
VECTORS displacement_ITER17 FLOAT
 -3.264679e-03  -6.328358e-03  0 
 -3.460575e-03  -9.762823e-03  0 
 -1.823963e-03  -6.288754e-03  0 
 -6.235686e-04  -6.260098e-03  0 
 6.673086e-04  -6.259999e-03  0 
 1.868229e-03  -6.288553e-03  0 
 3.308896e-03  -6.328174e-03  0 
 -2.157313e-03  -9.730390e-03  0 
 -6.854241e-04  -9.699387e-03  0 
 7.293805e-04  -9.699433e-03  0 
 2.201336e-03  -9.730410e-03  0 
 3.504754e-03  -9.762800e-03  0 
VECTORS displacement_ITER18 FLOAT
 -3.264678e-03  -6.328351e-03  0 
 -3.460575e-03  -9.762817e-03  0 
 -1.823962e-03  -6.288748e-03  0 
 -6.235684e-04  -6.260093e-03  0 
 6.673065e-04  -6.259994e-03  0 
 1.868227e-03  -6.288545e-03  0 
 3.308896e-03  -6.328166e-03  0 
 -2.157312e-03  -9.730384e-03  0 
 -6.854242e-04  -9.699377e-03  0 
 7.293788e-04  -9.699424e-03  0 
 2.201335e-03  -9.730404e-03  0 
 3.504753e-03  -9.762794e-03  0 
VECTORS displacement_ITER19 FLOAT
 -3.264677e-03  -6.328346e-03  0 
 -3.460573e-03  -9.762811e-03  0 
 -1.823961e-03  -6.288743e-03  0 
 -6.235676e-04  -6.260089e-03  0 
 6.673067e-04  -6.259989e-03  0 
 1.868226e-03  -6.288542e-03  0 
 3.308894e-03  -6.328162e-03  0 
 -2.157311e-03  -9.730379e-03  0 
 -6.854234e-04  -9.699371e-03  0 
 7.293793e-04  -9.699418e-03  0 
 2.201333e-03  -9.730398e-03  0 
 3.504751e-03  -9.762788e-03  0 
VECTORS displacement_ITER20 FLOAT
 -3.264675e-03  -6.328346e-03  0 
 -3.460572e-03  -9.762810e-03  0 
 -1.823960e-03  -6.288743e-03  0 
 -6.235678e-04  -6.260088e-03  0 
 6.673064e-04  -6.259989e-03  0 
 1.868226e-03  -6.288541e-03  0 
 3.308893e-03  -6.328161e-03  0 
 -2.157310e-03  -9.730377e-03  0 
 -6.854236e-04  -9.699370e-03  0 
 7.293791e-04  -9.699417e-03  0 
 2.201333e-03  -9.730397e-03  0 
 3.504750e-03  -9.762787e-03  0 
VECTORS displacement_ITER21 FLOAT
 -3.264676e-03  -6.328347e-03  0 
 -3.460572e-03  -9.762811e-03  0 
 -1.823960e-03  -6.288744e-03  0 
 -6.235677e-04  -6.260088e-03  0 
 6.673065e-04  -6.259989e-03  0 
 1.868226e-03  -6.288542e-03  0 
 3.308893e-03  -6.328162e-03  0 
 -2.157310e-03  -9.730378e-03  0 
 -6.854235e-04  -9.699371e-03  0 
 7.293792e-04  -9.699418e-03  0 
 2.201333e-03  -9.730397e-03  0 
 3.504750e-03  -9.762788e-03  0 
VECTORS displacement_ITER22 FLOAT
 -3.264676e-03  -6.328347e-03  0 
 -3.460572e-03  -9.762811e-03  0 
 -1.823960e-03  -6.288744e-03  0 
 -6.235679e-04  -6.260089e-03  0 
 6.673064e-04  -6.259990e-03  0 
 1.868226e-03  -6.288542e-03  0 
 3.308893e-03  -6.328162e-03  0 
 -2.157310e-03  -9.730379e-03  0 
 -6.854236e-04  -9.699371e-03  0 
 7.293792e-04  -9.699418e-03  0 
 2.201333e-03  -9.730398e-03  0 
 3.504751e-03  -9.762788e-03  0 
VECTORS displacement_ITER23 FLOAT
 -3.264676e-03  -6.328347e-03  0 
 -3.460573e-03  -9.762811e-03  0 
 -1.823960e-03  -6.288744e-03  0 
 -6.235678e-04  -6.260089e-03  0 
 6.673065e-04  -6.259990e-03  0 
 1.868226e-03  -6.288542e-03  0 
 3.308893e-03  -6.328162e-03  0 
 -2.157310e-03  -9.730379e-03  0 
 -6.854235e-04  -9.699371e-03  0 
 7.293793e-04  -9.699418e-03  0 
 2.201333e-03  -9.730398e-03  0 
 3.504751e-03  -9.762788e-03  0 
VECTORS displacement_ITER24 FLOAT
 -3.264676e-03  -6.328347e-03  0 
 -3.460572e-03  -9.762811e-03  0 
 -1.823960e-03  -6.288744e-03  0 
 -6.235678e-04  -6.260089e-03  0 
 6.673065e-04  -6.259990e-03  0 
 1.868226e-03  -6.288542e-03  0 
 3.308893e-03  -6.328162e-03  0 
 -2.157310e-03  -9.730379e-03  0 
 -6.854236e-04  -9.699371e-03  0 
 7.293792e-04  -9.699418e-03  0 
 2.201333e-03  -9.730398e-03  0 
 3.504751e-03  -9.762788e-03  0 
VECTORS displacement_ITER25 FLOAT
 -3.264676e-03  -6.328347e-03  0 
 -3.460572e-03  -9.762811e-03  0 
 -1.823960e-03  -6.288744e-03  0 
 -6.235678e-04  -6.260089e-03  0 
 6.673065e-04  -6.259990e-03  0 
 1.868226e-03  -6.288542e-03  0 
 3.308893e-03  -6.328162e-03  0 
 -2.157310e-03  -9.730379e-03  0 
 -6.854235e-04  -9.699371e-03  0 
 7.293792e-04  -9.699418e-03  0 
 2.201333e-03  -9.730398e-03  0 
 3.504751e-03  -9.762788e-03  0 
VECTORS displacement_ITER26 FLOAT
 -3.264676e-03  -6.328347e-03  0 
 -3.460572e-03  -9.762811e-03  0 
 -1.823960e-03  -6.288744e-03  0 
 -6.235678e-04  -6.260089e-03  0 
 6.673065e-04  -6.259990e-03  0 
 1.868226e-03  -6.288542e-03  0 
 3.308893e-03  -6.328162e-03  0 
 -2.157310e-03  -9.730379e-03  0 
 -6.854235e-04  -9.699371e-03  0 
 7.293792e-04  -9.699418e-03  0 
 2.201333e-03  -9.730398e-03  0 
 3.504751e-03  -9.762788e-03  0 
CELL_DATA 5
TENSORS element_stresses FLOAT
 -5.222196e-01  -1.242661e-02  0 
 -1.242661e-02  2.342302e-02  0 
 0  0  0 

 -3.851196e-02  -1.540146e-02  0 
 -1.540146e-02  3.362017e-03  0 
 0  0  0 

 2.814551e-04  -8.809124e-02  0 
 -8.809124e-02  2.148380e-04  0 
 0  0  0 

 3.851984e-02  -1.531547e-02  0 
 -1.531547e-02  -3.327081e-03  0 
 0  0  0 

 5.219303e-01  -1.251522e-02  0 
 -1.251522e-02  -2.344679e-02  0 
 0  0  0 

TENSORS element_stresses FLOAT
 -5.222196e-01  -1.242661e-02  0 
 -1.242661e-02  2.342302e-02  0 
 0  0  0 

 -3.851196e-02  -1.540146e-02  0 
 -1.540146e-02  3.362017e-03  0 
 0  0  0 

 2.814551e-04  -8.809124e-02  0 
 -8.809124e-02  2.148380e-04  0 
 0  0  0 

 3.851984e-02  -1.531547e-02  0 
 -1.531547e-02  -3.327081e-03  0 
 0  0  0 

 5.219303e-01  -1.251522e-02  0 
 -1.251522e-02  -2.344679e-02  0 
 0  0  0 

