# vtk DataFile Version 3.1
this is an vtk file created by FEMAC
ASCII
DATASET UNSTRUCTURED_GRID
POINTS 12 FLOAT
5.000000 0.000000 0.000000
5.500000 0.000000 0.000000
5.000000 0.200000 0.000000
5.000000 0.400000 0.000000
5.000000 0.600000 0.000000
5.000000 0.800000 0.000000
5.000000 1.000000 0.000000
5.500000 0.200000 0.000000
5.500000 0.400000 0.000000
5.500000 0.600000 0.000000
5.500000 0.800000 0.000000
5.500000 1.000000 0.000000
CELLS 5 25 
4 0 1 7 2
4 2 7 8 3
4 3 8 9 4
4 4  9 10  5
4 5 10 11  6
CELL_TYPES 5
9 9 9 9 9 
POINT_DATA 12
VECTORS displacement_ITER1 FLOAT
 -5.654645e-03  -3.432910e-02  0 
 -5.704432e-03  -4.005322e-02  0 
 -3.353055e-03  -3.431554e-02  0 
 -1.103945e-03  -3.428072e-02  0 
 1.174298e-03  -3.428072e-02  0 
 3.423409e-03  -3.431554e-02  0 
 5.724999e-03  -3.432910e-02  0 
 -3.422931e-03  -4.004708e-02  0 
 -1.119597e-03  -4.005022e-02  0 
 1.189951e-03  -4.005022e-02  0 
 3.493285e-03  -4.004708e-02  0 
 5.774786e-03  -4.005322e-02  0 
VECTORS displacement_ITER2 FLOAT
 -5.356555e-03  -3.316644e-02  0 
 -5.402789e-03  -3.858315e-02  0 
 -3.177099e-03  -3.315689e-02  0 
 -1.057995e-03  -3.314129e-02  0 
 1.085878e-03  -3.314129e-02  0 
 3.204981e-03  -3.315689e-02  0 
 5.384437e-03  -3.316644e-02  0 
 -3.251745e-03  -3.857526e-02  0 
 -1.073862e-03  -3.856639e-02  0 
 1.101744e-03  -3.856639e-02  0 
 3.279627e-03  -3.857526e-02  0 
 5.430671e-03  -3.858315e-02  0 
VECTORS displacement_ITER3 FLOAT
 -5.284581e-03  -3.294732e-02  0 
 -5.329857e-03  -3.830493e-02  0 
 -3.127734e-03  -3.293793e-02  0 
 -1.034213e-03  -3.293025e-02  0 
 1.081893e-03  -3.293025e-02  0 
 3.175415e-03  -3.293793e-02  0 
 5.332261e-03  -3.294732e-02  0 
 -3.203584e-03  -3.829740e-02  0 
 -1.050107e-03  -3.828590e-02  0 
 1.097787e-03  -3.828590e-02  0 
 3.251264e-03  -3.829740e-02  0 
 5.377537e-03  -3.830493e-02  0 
VECTORS displacement_ITER4 FLOAT
 -5.266196e-03  -3.285512e-02  0 
 -5.311094e-03  -3.819266e-02  0 
 -3.116366e-03  -3.284509e-02  0 
 -1.030783e-03  -3.284102e-02  0 
 1.076092e-03  -3.284102e-02  0 
 3.161675e-03  -3.284509e-02  0 
 5.311504e-03  -3.285512e-02  0 
 -3.192680e-03  -3.818589e-02  0 
 -1.046663e-03  -3.817526e-02  0 
 1.091972e-03  -3.817526e-02  0 
 3.237989e-03  -3.818589e-02  0 
 5.356402e-03  -3.819266e-02  0 
VECTORS displacement_ITER5 FLOAT
 -5.266197e-03  -3.284509e-02  0 
 -5.311090e-03  -3.818044e-02  0 
 -3.117164e-03  -3.283493e-02  0 
 -1.031744e-03  -3.283031e-02  0 
 1.075121e-03  -3.283031e-02  0 
 3.160539e-03  -3.283494e-02  0 
 5.309571e-03  -3.284509e-02  0 
 -3.193462e-03  -3.817381e-02  0 
 -1.047565e-03  -3.816465e-02  0 
 1.090942e-03  -3.816465e-02  0 
 3.236837e-03  -3.817380e-02  0 
 5.354464e-03  -3.818044e-02  0 
VECTORS displacement_ITER6 FLOAT
 -5.265859e-03  -3.284052e-02  0 
 -5.310789e-03  -3.817426e-02  0 
 -3.117537e-03  -3.283035e-02  0 
 -1.031845e-03  -3.282439e-02  0 
 1.075834e-03  -3.282439e-02  0 
 3.161523e-03  -3.283035e-02  0 
 5.309843e-03  -3.284052e-02  0 
 -3.193762e-03  -3.816768e-02  0 
 -1.047551e-03  -3.816048e-02  0 
 1.091540e-03  -3.816048e-02  0 
 3.237749e-03  -3.816768e-02  0 
 5.354774e-03  -3.817426e-02  0 
VECTORS displacement_ITER7 FLOAT
 -5.265485e-03  -3.283906e-02  0 
 -5.310443e-03  -3.817234e-02  0 
 -3.117401e-03  -3.282892e-02  0 
 -1.031773e-03  -3.282250e-02  0 
 1.076162e-03  -3.282251e-02  0 
 3.161789e-03  -3.282892e-02  0 
 5.309875e-03  -3.283907e-02  0 
 -3.193605e-03  -3.816573e-02  0 
 -1.047410e-03  -3.815898e-02  0 
 1.091802e-03  -3.815898e-02  0 
 3.237995e-03  -3.816572e-02  0 
 5.354832e-03  -3.817233e-02  0 
VECTORS displacement_ITER8 FLOAT
 -5.265425e-03  -3.283841e-02  0 
 -5.310402e-03  -3.817181e-02  0 
 -3.117293e-03  -3.282828e-02  0 
 -1.031842e-03  -3.282186e-02  0 
 1.076099e-03  -3.282185e-02  0 
 3.161541e-03  -3.282828e-02  0 
 5.309662e-03  -3.283839e-02  0 
 -3.193507e-03  -3.816517e-02  0 
 -1.047440e-03  -3.815818e-02  0 
 1.091685e-03  -3.815818e-02  0 
 3.237753e-03  -3.816517e-02  0 
 5.354644e-03  -3.817182e-02  0 
VECTORS displacement_ITER9 FLOAT
 -5.265663e-03  -3.283801e-02  0 
 -5.310663e-03  -3.817177e-02  0 
 -3.117410e-03  -3.282791e-02  0 
 -1.032049e-03  -3.282155e-02  0 
 1.075920e-03  -3.282156e-02  0 
 3.161292e-03  -3.282792e-02  0 
 5.309565e-03  -3.283804e-02  0 
 -3.193633e-03  -3.816511e-02  0 
 -1.047598e-03  -3.815785e-02  0 
 1.091482e-03  -3.815785e-02  0 
 3.237521e-03  -3.816511e-02  0 
 5.354559e-03  -3.817177e-02  0 
VECTORS displacement_ITER10 FLOAT
 -5.265799e-03  -3.283787e-02  0 
 -5.310808e-03  -3.817193e-02  0 
 -3.117396e-03  -3.282775e-02  0 
 -1.031994e-03  -3.282143e-02  0 
 1.076063e-03  -3.282142e-02  0 
 3.161459e-03  -3.282774e-02  0 
 5.309847e-03  -3.283786e-02  0 
 -3.193635e-03  -3.816526e-02  0 
 -1.047521e-03  -3.815787e-02  0 
 1.091586e-03  -3.815787e-02  0 
 3.237695e-03  -3.816527e-02  0 
 5.354858e-03  -3.817194e-02  0 
VECTORS displacement_ITER11 FLOAT
 -5.266028e-03  -3.283784e-02  0 
 -5.311043e-03  -3.817208e-02  0 
 -3.117568e-03  -3.282772e-02  0 
 -1.032103e-03  -3.282140e-02  0 
 1.076050e-03  -3.282140e-02  0 
 3.161518e-03  -3.282773e-02  0 
 5.309982e-03  -3.283785e-02  0 
 -3.193813e-03  -3.816541e-02  0 
 -1.047607e-03  -3.815803e-02  0 
 1.091548e-03  -3.815802e-02  0 
 3.237761e-03  -3.816541e-02  0 
 5.354999e-03  -3.817207e-02  0 
VECTORS displacement_ITER12 FLOAT
 -5.266129e-03  -3.283787e-02  0 
 -5.311151e-03  -3.817218e-02  0 
 -3.117640e-03  -3.282775e-02  0 
 -1.032119e-03  -3.282140e-02  0 
 1.076115e-03  -3.282141e-02  0 
 3.161641e-03  -3.282775e-02  0 
 5.310135e-03  -3.283788e-02  0 
 -3.193889e-03  -3.816552e-02  0 
 -1.047594e-03  -3.815818e-02  0 
 1.091598e-03  -3.815818e-02  0 
 3.237893e-03  -3.816552e-02  0 
 5.355153e-03  -3.817218e-02  0 
VECTORS displacement_ITER13 FLOAT
 -5.266133e-03  -3.283789e-02  0 
 -5.311153e-03  -3.817219e-02  0 
 -3.117642e-03  -3.282777e-02  0 
 -1.032117e-03  -3.282142e-02  0 
 1.076132e-03  -3.282142e-02  0 
 3.161657e-03  -3.282777e-02  0 
 5.310147e-03  -3.283789e-02  0 
 -3.193896e-03  -3.816553e-02  0 
 -1.047587e-03  -3.815821e-02  0 
 1.091601e-03  -3.815821e-02  0 
 3.237911e-03  -3.816553e-02  0 
 5.355167e-03  -3.817219e-02  0 
VECTORS displacement_ITER14 FLOAT
 -5.266103e-03  -3.283792e-02  0 
 -5.311122e-03  -3.817218e-02  0 
 -3.117623e-03  -3.282779e-02  0 
 -1.032125e-03  -3.282145e-02  0 
 1.076122e-03  -3.282145e-02  0 
 3.161620e-03  -3.282779e-02  0 
 5.310097e-03  -3.283792e-02  0 
 -3.193885e-03  -3.816552e-02  0 
 -1.047585e-03  -3.815821e-02  0 
 1.091579e-03  -3.815821e-02  0 
 3.237879e-03  -3.816552e-02  0 
 5.355118e-03  -3.817218e-02  0 
VECTORS displacement_ITER15 FLOAT
 -5.266073e-03  -3.283793e-02  0 
 -5.311093e-03  -3.817217e-02  0 
 -3.117602e-03  -3.282780e-02  0 
 -1.032122e-03  -3.282147e-02  0 
 1.076118e-03  -3.282147e-02  0 
 3.161598e-03  -3.282780e-02  0 
 5.310069e-03  -3.283793e-02  0 
 -3.193865e-03  -3.816551e-02  0 
 -1.047575e-03  -3.815819e-02  0 
 1.091573e-03  -3.815819e-02  0 
 3.237862e-03  -3.816551e-02  0 
 5.355089e-03  -3.817217e-02  0 
VECTORS displacement_ITER16 FLOAT
 -5.266053e-03  -3.283794e-02  0 
 -5.311073e-03  -3.817216e-02  0 
 -3.117586e-03  -3.282781e-02  0 
 -1.032118e-03  -3.282148e-02  0 
 1.076116e-03  -3.282148e-02  0 
 3.161583e-03  -3.282781e-02  0 
 5.310050e-03  -3.283794e-02  0 
 -3.193852e-03  -3.816550e-02  0 
 -1.047569e-03  -3.815818e-02  0 
 1.091567e-03  -3.815818e-02  0 
 3.237849e-03  -3.816550e-02  0 
 5.355071e-03  -3.817216e-02  0 
VECTORS displacement_ITER17 FLOAT
 -5.266050e-03  -3.283794e-02  0 
 -5.311070e-03  -3.817216e-02  0 
 -3.117584e-03  -3.282781e-02  0 
 -1.032117e-03  -3.282147e-02  0 
 1.076117e-03  -3.282147e-02  0 
 3.161583e-03  -3.282781e-02  0 
 5.310048e-03  -3.283794e-02  0 
 -3.193850e-03  -3.816550e-02  0 
 -1.047568e-03  -3.815818e-02  0 
 1.091567e-03  -3.815818e-02  0 
 3.237849e-03  -3.816550e-02  0 
 5.355069e-03  -3.817216e-02  0 
VECTORS displacement_ITER18 FLOAT
 -5.266053e-03  -3.283793e-02  0 
 -5.311073e-03  -3.817216e-02  0 
 -3.117587e-03  -3.282781e-02  0 
 -1.032119e-03  -3.282147e-02  0 
 1.076118e-03  -3.282147e-02  0 
 3.161586e-03  -3.282781e-02  0 
 5.310051e-03  -3.283793e-02  0 
 -3.193853e-03  -3.816549e-02  0 
 -1.047569e-03  -3.815818e-02  0 
 1.091568e-03  -3.815818e-02  0 
 3.237852e-03  -3.816549e-02  0 
 5.355072e-03  -3.817216e-02  0 
VECTORS displacement_ITER19 FLOAT
 -5.266055e-03  -3.283793e-02  0 
 -5.311076e-03  -3.817216e-02  0 
 -3.117588e-03  -3.282781e-02  0 
 -1.032119e-03  -3.282147e-02  0 
 1.076118e-03  -3.282147e-02  0 
 3.161586e-03  -3.282781e-02  0 
 5.310053e-03  -3.283793e-02  0 
 -3.193854e-03  -3.816550e-02  0 
 -1.047569e-03  -3.815818e-02  0 
 1.091568e-03  -3.815818e-02  0 
 3.237853e-03  -3.816550e-02  0 
 5.355074e-03  -3.817216e-02  0 
VECTORS displacement_ITER20 FLOAT
 -5.266055e-03  -3.283793e-02  0 
 -5.311076e-03  -3.817216e-02  0 
 -3.117588e-03  -3.282781e-02  0 
 -1.032119e-03  -3.282147e-02  0 
 1.076119e-03  -3.282147e-02  0 
 3.161587e-03  -3.282781e-02  0 
 5.310054e-03  -3.283793e-02  0 
 -3.193854e-03  -3.816550e-02  0 
 -1.047569e-03  -3.815818e-02  0 
 1.091568e-03  -3.815818e-02  0 
 3.237853e-03  -3.816550e-02  0 
 5.355075e-03  -3.817216e-02  0 
VECTORS displacement_ITER21 FLOAT
 -5.266055e-03  -3.283793e-02  0 
 -5.311076e-03  -3.817216e-02  0 
 -3.117588e-03  -3.282781e-02  0 
 -1.032119e-03  -3.282147e-02  0 
 1.076118e-03  -3.282147e-02  0 
 3.161587e-03  -3.282781e-02  0 
 5.310054e-03  -3.283793e-02  0 
 -3.193854e-03  -3.816550e-02  0 
 -1.047569e-03  -3.815818e-02  0 
 1.091568e-03  -3.815818e-02  0 
 3.237853e-03  -3.816550e-02  0 
 5.355075e-03  -3.817216e-02  0 
VECTORS displacement_ITER22 FLOAT
 -5.266055e-03  -3.283793e-02  0 
 -5.311076e-03  -3.817216e-02  0 
 -3.117588e-03  -3.282781e-02  0 
 -1.032119e-03  -3.282147e-02  0 
 1.076119e-03  -3.282147e-02  0 
 3.161586e-03  -3.282781e-02  0 
 5.310054e-03  -3.283793e-02  0 
 -3.193854e-03  -3.816550e-02  0 
 -1.047569e-03  -3.815818e-02  0 
 1.091568e-03  -3.815818e-02  0 
 3.237853e-03  -3.816550e-02  0 
 5.355075e-03  -3.817216e-02  0 
VECTORS displacement_ITER23 FLOAT
 -5.266055e-03  -3.283793e-02  0 
 -5.311076e-03  -3.817216e-02  0 
 -3.117588e-03  -3.282781e-02  0 
 -1.032119e-03  -3.282147e-02  0 
 1.076118e-03  -3.282147e-02  0 
 3.161586e-03  -3.282781e-02  0 
 5.310054e-03  -3.283793e-02  0 
 -3.193854e-03  -3.816550e-02  0 
 -1.047569e-03  -3.815818e-02  0 
 1.091568e-03  -3.815818e-02  0 
 3.237853e-03  -3.816550e-02  0 
 5.355075e-03  -3.817216e-02  0 
VECTORS displacement_ITER24 FLOAT
 -5.266055e-03  -3.283793e-02  0 
 -5.311076e-03  -3.817216e-02  0 
 -3.117588e-03  -3.282781e-02  0 
 -1.032119e-03  -3.282147e-02  0 
 1.076118e-03  -3.282147e-02  0 
 3.161586e-03  -3.282781e-02  0 
 5.310054e-03  -3.283793e-02  0 
 -3.193854e-03  -3.816550e-02  0 
 -1.047569e-03  -3.815818e-02  0 
 1.091568e-03  -3.815818e-02  0 
 3.237853e-03  -3.816550e-02  0 
 5.355075e-03  -3.817216e-02  0 
VECTORS displacement_ITER25 FLOAT
 -5.266055e-03  -3.283793e-02  0 
 -5.311076e-03  -3.817216e-02  0 
 -3.117588e-03  -3.282781e-02  0 
 -1.032119e-03  -3.282147e-02  0 
 1.076118e-03  -3.282147e-02  0 
 3.161586e-03  -3.282781e-02  0 
 5.310054e-03  -3.283793e-02  0 
 -3.193854e-03  -3.816550e-02  0 
 -1.047569e-03  -3.815818e-02  0 
 1.091568e-03  -3.815818e-02  0 
 3.237853e-03  -3.816550e-02  0 
 5.355075e-03  -3.817216e-02  0 
VECTORS displacement_ITER26 FLOAT
 -5.266055e-03  -3.283793e-02  0 
 -5.311076e-03  -3.817216e-02  0 
 -3.117588e-03  -3.282781e-02  0 
 -1.032119e-03  -3.282147e-02  0 
 1.076118e-03  -3.282147e-02  0 
 3.161586e-03  -3.282781e-02  0 
 5.310054e-03  -3.283793e-02  0 
 -3.193854e-03  -3.816550e-02  0 
 -1.047569e-03  -3.815818e-02  0 
 1.091568e-03  -3.815818e-02  0 
 3.237853e-03  -3.816550e-02  0 
 5.355075e-03  -3.817216e-02  0 
CELL_DATA 5
TENSORS element_stresses FLOAT
 -1.194458e-01  -5.920151e-03  0 
 -5.920151e-03  6.139546e-03  0 
 0  0  0 

 -8.953096e-03  -7.308739e-03  0 
 -7.308739e-03  7.283716e-04  0 
 0  0  0 

 -1.167345e-07  -4.229220e-02  0 
 -4.229220e-02  -1.524062e-07  0 
 0  0  0 

 8.953083e-03  -7.308749e-03  0 
 -7.308749e-03  -7.284146e-04  0 
 0  0  0 

 1.194459e-01  -5.920162e-03  0 
 -5.920162e-03  -6.139573e-03  0 
 0  0  0 

TENSORS element_stresses FLOAT
 -1.194458e-01  -5.920151e-03  0 
 -5.920151e-03  6.139546e-03  0 
 0  0  0 

 -8.953096e-03  -7.308739e-03  0 
 -7.308739e-03  7.283716e-04  0 
 0  0  0 

 -1.167345e-07  -4.229220e-02  0 
 -4.229220e-02  -1.524062e-07  0 
 0  0  0 

 8.953083e-03  -7.308749e-03  0 
 -7.308749e-03  -7.284146e-04  0 
 0  0  0 

 1.194459e-01  -5.920162e-03  0 
 -5.920162e-03  -6.139573e-03  0 
 0  0  0 

