# vtk DataFile Version 3.1
this is an vtk file created by FEMAC
ASCII
DATASET UNSTRUCTURED_GRID
POINTS 12 FLOAT
7.500000 0.000000 0.000000
8.000000 0.000000 0.000000
7.500000 0.200000 0.000000
7.500000 0.400000 0.000000
7.500000 0.600000 0.000000
7.500000 0.800000 0.000000
7.500000 1.000000 0.000000
8.000000 0.200000 0.000000
8.000000 0.400000 0.000000
8.000000 0.600000 0.000000
8.000000 0.800000 0.000000
8.000000 1.000000 0.000000
CELLS 5 25 
4 0 1 7 2
4 2 7 8 3
4 3 8 9 4
4 4  9 10  5
4 5 10 11  6
CELL_TYPES 5
9 9 9 9 9 
POINT_DATA 12
VECTORS displacement_ITER1 FLOAT
 -5.951937e-03  -6.375895e-02  0 
 -5.963684e-03  -6.975322e-02  0 
 -3.563308e-03  -6.375815e-02  0 
 -1.167021e-03  -6.375639e-02  0 
 1.237375e-03  -6.375639e-02  0 
 3.633662e-03  -6.375815e-02  0 
 6.022291e-03  -6.375895e-02  0 
 -3.563955e-03  -6.975263e-02  0 
 -1.164747e-03  -6.975372e-02  0 
 1.235101e-03  -6.975372e-02  0 
 3.634309e-03  -6.975263e-02  0 
 6.034038e-03  -6.975322e-02  0 
VECTORS displacement_ITER2 FLOAT
 -5.615805e-03  -6.093029e-02  0 
 -5.617180e-03  -6.655975e-02  0 
 -3.363094e-03  -6.092730e-02  0 
 -1.112438e-03  -6.092681e-02  0 
 1.140320e-03  -6.092681e-02  0 
 3.390976e-03  -6.092730e-02  0 
 5.643687e-03  -6.093029e-02  0 
 -3.365182e-03  -6.655948e-02  0 
 -1.111381e-03  -6.655952e-02  0 
 1.139263e-03  -6.655952e-02  0 
 3.393064e-03  -6.655948e-02  0 
 5.645062e-03  -6.655975e-02  0 
VECTORS displacement_ITER3 FLOAT
 -5.536889e-03  -6.037716e-02  0 
 -5.536907e-03  -6.593935e-02  0 
 -3.310632e-03  -6.037627e-02  0 
 -1.088192e-03  -6.037592e-02  0 
 1.135873e-03  -6.037592e-02  0 
 3.358312e-03  -6.037627e-02  0 
 5.584569e-03  -6.037716e-02  0 
 -3.312812e-03  -6.593808e-02  0 
 -1.087210e-03  -6.593802e-02  0 
 1.134890e-03  -6.593802e-02  0 
 3.360492e-03  -6.593808e-02  0 
 5.584587e-03  -6.593935e-02  0 
VECTORS displacement_ITER4 FLOAT
 -5.518033e-03  -6.017377e-02  0 
 -5.518958e-03  -6.571830e-02  0 
 -3.300276e-03  -6.017465e-02  0 
 -1.085836e-03  -6.017413e-02  0 
 1.131144e-03  -6.017413e-02  0 
 3.345585e-03  -6.017465e-02  0 
 5.563342e-03  -6.017377e-02  0 
 -3.302275e-03  -6.571632e-02  0 
 -1.084653e-03  -6.571639e-02  0 
 1.129962e-03  -6.571639e-02  0 
 3.347584e-03  -6.571632e-02  0 
 5.564266e-03  -6.571830e-02  0 
VECTORS displacement_ITER5 FLOAT
 -5.518510e-03  -6.015862e-02  0 
 -5.519974e-03  -6.570230e-02  0 
 -3.301392e-03  -6.015901e-02  0 
 -1.086977e-03  -6.015839e-02  0 
 1.130352e-03  -6.015839e-02  0 
 3.344768e-03  -6.015901e-02  0 
 5.561885e-03  -6.015862e-02  0 
 -3.303351e-03  -6.570056e-02  0 
 -1.085726e-03  -6.570071e-02  0 
 1.129102e-03  -6.570071e-02  0 
 3.346726e-03  -6.570056e-02  0 
 5.563350e-03  -6.570230e-02  0 
VECTORS displacement_ITER6 FLOAT
 -5.518807e-03  -6.015565e-02  0 
 -5.520801e-03  -6.569909e-02  0 
 -3.301927e-03  -6.015514e-02  0 
 -1.087057e-03  -6.015442e-02  0 
 1.131041e-03  -6.015442e-02  0 
 3.345910e-03  -6.015514e-02  0 
 5.562790e-03  -6.015565e-02  0 
 -3.303865e-03  -6.569777e-02  0 
 -1.085757e-03  -6.569798e-02  0 
 1.129741e-03  -6.569798e-02  0 
 3.347849e-03  -6.569777e-02  0 
 5.564785e-03  -6.569909e-02  0 
VECTORS displacement_ITER7 FLOAT
 -5.518740e-03  -6.015448e-02  0 
 -5.520826e-03  -6.569799e-02  0 
 -3.301875e-03  -6.015387e-02  0 
 -1.086907e-03  -6.015313e-02  0 
 1.131315e-03  -6.015313e-02  0 
 3.346282e-03  -6.015387e-02  0 
 5.563148e-03  -6.015448e-02  0 
 -3.303807e-03  -6.569672e-02  0 
 -1.085606e-03  -6.569695e-02  0 
 1.130013e-03  -6.569695e-02  0 
 3.348215e-03  -6.569672e-02  0 
 5.565234e-03  -6.569799e-02  0 
VECTORS displacement_ITER8 FLOAT
 -5.518903e-03  -6.015386e-02  0 
 -5.520935e-03  -6.569771e-02  0 
 -3.301946e-03  -6.015350e-02  0 
 -1.086980e-03  -6.015278e-02  0 
 1.131168e-03  -6.015278e-02  0 
 3.346134e-03  -6.015350e-02  0 
 5.563091e-03  -6.015386e-02  0 
 -3.303871e-03  -6.569633e-02  0 
 -1.085691e-03  -6.569655e-02  0 
 1.129879e-03  -6.569655e-02  0 
 3.348059e-03  -6.569633e-02  0 
 5.565123e-03  -6.569771e-02  0 
VECTORS displacement_ITER9 FLOAT
 -5.519182e-03  -6.015430e-02  0 
 -5.521197e-03  -6.569852e-02  0 
 -3.302120e-03  -6.015410e-02  0 
 -1.087094e-03  -6.015339e-02  0 
 1.131077e-03  -6.015339e-02  0 
 3.346103e-03  -6.015410e-02  0 
 5.563163e-03  -6.015430e-02  0 
 -3.304038e-03  -6.569707e-02  0 
 -1.085809e-03  -6.569728e-02  0 
 1.129793e-03  -6.569728e-02  0 
 3.348021e-03  -6.569707e-02  0 
 5.565180e-03  -6.569852e-02  0 
VECTORS displacement_ITER10 FLOAT
 -5.519430e-03  -6.015543e-02  0 
 -5.521479e-03  -6.569991e-02  0 
 -3.302294e-03  -6.015522e-02  0 
 -1.087163e-03  -6.015452e-02  0 
 1.131123e-03  -6.015452e-02  0 
 3.346257e-03  -6.015522e-02  0 
 5.563403e-03  -6.015542e-02  0 
 -3.304205e-03  -6.569846e-02  0 
 -1.085875e-03  -6.569867e-02  0 
 1.129835e-03  -6.569867e-02  0 
 3.348168e-03  -6.569847e-02  0 
 5.565444e-03  -6.569991e-02  0 
VECTORS displacement_ITER11 FLOAT
 -5.519610e-03  -6.015633e-02  0 
 -5.521669e-03  -6.570097e-02  0 
 -3.302407e-03  -6.015609e-02  0 
 -1.087192e-03  -6.015539e-02  0 
 1.131199e-03  -6.015540e-02  0 
 3.346406e-03  -6.015610e-02  0 
 5.563578e-03  -6.015636e-02  0 
 -3.304317e-03  -6.569955e-02  0 
 -1.085897e-03  -6.569975e-02  0 
 1.129905e-03  -6.569974e-02  0 
 3.348315e-03  -6.569954e-02  0 
 5.565660e-03  -6.570095e-02  0 
VECTORS displacement_ITER12 FLOAT
 -5.519674e-03  -6.015698e-02  0 
 -5.521774e-03  -6.570163e-02  0 
 -3.302483e-03  -6.015669e-02  0 
 -1.087234e-03  -6.015598e-02  0 
 1.131227e-03  -6.015595e-02  0 
 3.346493e-03  -6.015665e-02  0 
 5.563752e-03  -6.015693e-02  0 
 -3.304393e-03  -6.570023e-02  0 
 -1.085935e-03  -6.570043e-02  0 
 1.129927e-03  -6.570045e-02  0 
 3.348405e-03  -6.570025e-02  0 
 5.565803e-03  -6.570166e-02  0 
VECTORS displacement_ITER13 FLOAT
 -5.519754e-03  -6.015695e-02  0 
 -5.521793e-03  -6.570169e-02  0 
 -3.302481e-03  -6.015668e-02  0 
 -1.087217e-03  -6.015598e-02  0 
 1.131244e-03  -6.015601e-02  0 
 3.346490e-03  -6.015671e-02  0 
 5.563694e-03  -6.015700e-02  0 
 -3.304395e-03  -6.570028e-02  0 
 -1.085917e-03  -6.570048e-02  0 
 1.129944e-03  -6.570046e-02  0 
 3.348402e-03  -6.570025e-02  0 
 5.565780e-03  -6.570166e-02  0 
VECTORS displacement_ITER14 FLOAT
 -5.519649e-03  -6.015681e-02  0 
 -5.521721e-03  -6.570143e-02  0 
 -3.302454e-03  -6.015654e-02  0 
 -1.087234e-03  -6.015583e-02  0 
 1.131200e-03  -6.015579e-02  0 
 3.346446e-03  -6.015650e-02  0 
 5.563730e-03  -6.015673e-02  0 
 -3.304368e-03  -6.570002e-02  0 
 -1.085935e-03  -6.570022e-02  0 
 1.129901e-03  -6.570025e-02  0 
 3.348362e-03  -6.570004e-02  0 
 5.565743e-03  -6.570147e-02  0 
VECTORS displacement_ITER15 FLOAT
 -5.519674e-03  -6.015662e-02  0 
 -5.521705e-03  -6.570129e-02  0 
 -3.302430e-03  -6.015637e-02  0 
 -1.087205e-03  -6.015567e-02  0 
 1.131215e-03  -6.015569e-02  0 
 3.346429e-03  -6.015639e-02  0 
 5.563636e-03  -6.015666e-02  0 
 -3.304346e-03  -6.569987e-02  0 
 -1.085906e-03  -6.570007e-02  0 
 1.129916e-03  -6.570006e-02  0 
 3.348344e-03  -6.569986e-02  0 
 5.565691e-03  -6.570127e-02  0 
VECTORS displacement_ITER16 FLOAT
 -5.519620e-03  -6.015656e-02  0 
 -5.521675e-03  -6.570115e-02  0 
 -3.302420e-03  -6.015629e-02  0 
 -1.087211e-03  -6.015558e-02  0 
 1.131203e-03  -6.015557e-02  0 
 3.346417e-03  -6.015628e-02  0 
 5.563631e-03  -6.015654e-02  0 
 -3.304334e-03  -6.569974e-02  0 
 -1.085911e-03  -6.569994e-02  0 
 1.129904e-03  -6.569995e-02  0 
 3.348331e-03  -6.569974e-02  0 
 5.565678e-03  -6.570116e-02  0 
VECTORS displacement_ITER17 FLOAT
 -5.519625e-03  -6.015653e-02  0 
 -5.521674e-03  -6.570114e-02  0 
 -3.302416e-03  -6.015627e-02  0 
 -1.087206e-03  -6.015556e-02  0 
 1.131207e-03  -6.015556e-02  0 
 3.346416e-03  -6.015627e-02  0 
 5.563619e-03  -6.015653e-02  0 
 -3.304330e-03  -6.569972e-02  0 
 -1.085906e-03  -6.569993e-02  0 
 1.129908e-03  -6.569992e-02  0 
 3.348330e-03  -6.569972e-02  0 
 5.565672e-03  -6.570113e-02  0 
VECTORS displacement_ITER18 FLOAT
 -5.519627e-03  -6.015655e-02  0 
 -5.521678e-03  -6.570116e-02  0 
 -3.302419e-03  -6.015628e-02  0 
 -1.087209e-03  -6.015558e-02  0 
 1.131206e-03  -6.015558e-02  0 
 3.346417e-03  -6.015628e-02  0 
 5.563629e-03  -6.015654e-02  0 
 -3.304334e-03  -6.569974e-02  0 
 -1.085909e-03  -6.569995e-02  0 
 1.129906e-03  -6.569995e-02  0 
 3.348332e-03  -6.569974e-02  0 
 5.565677e-03  -6.570116e-02  0 
VECTORS displacement_ITER19 FLOAT
 -5.519633e-03  -6.015655e-02  0 
 -5.521681e-03  -6.570117e-02  0 
 -3.302421e-03  -6.015629e-02  0 
 -1.087208e-03  -6.015559e-02  0 
 1.131208e-03  -6.015559e-02  0 
 3.346420e-03  -6.015629e-02  0 
 5.563629e-03  -6.015656e-02  0 
 -3.304335e-03  -6.569975e-02  0 
 -1.085908e-03  -6.569996e-02  0 
 1.129908e-03  -6.569996e-02  0 
 3.348334e-03  -6.569975e-02  0 
 5.565679e-03  -6.570117e-02  0 
VECTORS displacement_ITER20 FLOAT
 -5.519631e-03  -6.015656e-02  0 
 -5.521682e-03  -6.570117e-02  0 
 -3.302421e-03  -6.015630e-02  0 
 -1.087209e-03  -6.015559e-02  0 
 1.131208e-03  -6.015559e-02  0 
 3.346420e-03  -6.015630e-02  0 
 5.563631e-03  -6.015656e-02  0 
 -3.304336e-03  -6.569976e-02  0 
 -1.085909e-03  -6.569996e-02  0 
 1.129908e-03  -6.569996e-02  0 
 3.348335e-03  -6.569976e-02  0 
 5.565681e-03  -6.570117e-02  0 
VECTORS displacement_ITER21 FLOAT
 -5.519632e-03  -6.015656e-02  0 
 -5.521682e-03  -6.570117e-02  0 
 -3.302421e-03  -6.015630e-02  0 
 -1.087209e-03  -6.015559e-02  0 
 1.131208e-03  -6.015559e-02  0 
 3.346420e-03  -6.015630e-02  0 
 5.563630e-03  -6.015656e-02  0 
 -3.304335e-03  -6.569976e-02  0 
 -1.085909e-03  -6.569996e-02  0 
 1.129908e-03  -6.569996e-02  0 
 3.348334e-03  -6.569976e-02  0 
 5.565680e-03  -6.570117e-02  0 
VECTORS displacement_ITER22 FLOAT
 -5.519631e-03  -6.015656e-02  0 
 -5.521681e-03  -6.570117e-02  0 
 -3.302421e-03  -6.015629e-02  0 
 -1.087209e-03  -6.015559e-02  0 
 1.131208e-03  -6.015559e-02  0 
 3.346420e-03  -6.015629e-02  0 
 5.563630e-03  -6.015656e-02  0 
 -3.304335e-03  -6.569976e-02  0 
 -1.085909e-03  -6.569996e-02  0 
 1.129908e-03  -6.569996e-02  0 
 3.348334e-03  -6.569976e-02  0 
 5.565680e-03  -6.570117e-02  0 
VECTORS displacement_ITER23 FLOAT
 -5.519631e-03  -6.015656e-02  0 
 -5.521681e-03  -6.570117e-02  0 
 -3.302421e-03  -6.015629e-02  0 
 -1.087209e-03  -6.015559e-02  0 
 1.131208e-03  -6.015559e-02  0 
 3.346420e-03  -6.015629e-02  0 
 5.563630e-03  -6.015656e-02  0 
 -3.304335e-03  -6.569976e-02  0 
 -1.085909e-03  -6.569996e-02  0 
 1.129908e-03  -6.569996e-02  0 
 3.348334e-03  -6.569976e-02  0 
 5.565680e-03  -6.570117e-02  0 
VECTORS displacement_ITER24 FLOAT
 -5.519631e-03  -6.015656e-02  0 
 -5.521681e-03  -6.570117e-02  0 
 -3.302421e-03  -6.015629e-02  0 
 -1.087209e-03  -6.015559e-02  0 
 1.131208e-03  -6.015559e-02  0 
 3.346420e-03  -6.015629e-02  0 
 5.563630e-03  -6.015656e-02  0 
 -3.304335e-03  -6.569976e-02  0 
 -1.085909e-03  -6.569996e-02  0 
 1.129908e-03  -6.569996e-02  0 
 3.348334e-03  -6.569976e-02  0 
 5.565680e-03  -6.570117e-02  0 
VECTORS displacement_ITER25 FLOAT
 -5.519631e-03  -6.015656e-02  0 
 -5.521681e-03  -6.570117e-02  0 
 -3.302421e-03  -6.015629e-02  0 
 -1.087209e-03  -6.015559e-02  0 
 1.131208e-03  -6.015559e-02  0 
 3.346420e-03  -6.015629e-02  0 
 5.563630e-03  -6.015656e-02  0 
 -3.304335e-03  -6.569976e-02  0 
 -1.085909e-03  -6.569996e-02  0 
 1.129908e-03  -6.569996e-02  0 
 3.348334e-03  -6.569976e-02  0 
 5.565680e-03  -6.570117e-02  0 
VECTORS displacement_ITER26 FLOAT
 -5.519631e-03  -6.015656e-02  0 
 -5.521681e-03  -6.570117e-02  0 
 -3.302421e-03  -6.015629e-02  0 
 -1.087209e-03  -6.015559e-02  0 
 1.131208e-03  -6.015559e-02  0 
 3.346420e-03  -6.015629e-02  0 
 5.563630e-03  -6.015656e-02  0 
 -3.304335e-03  -6.569976e-02  0 
 -1.085909e-03  -6.569996e-02  0 
 1.129908e-03  -6.569996e-02  0 
 3.348334e-03  -6.569976e-02  0 
 5.565680e-03  -6.570117e-02  0 
CELL_DATA 5
TENSORS element_stresses FLOAT
 -2.972008e-04  -1.295555e-04  0 
 -1.295555e-04  3.307015e-04  0 
 0  0  0 

 -2.624343e-04  -2.873954e-03  0 
 -2.873954e-03  1.173564e-03  0 
 0  0  0 

 3.471001e-11  -2.429811e-04  0 
 -2.429811e-04  1.790355e-10  0 
 0  0  0 

 2.624341e-04  -2.873954e-03  0 
 -2.873954e-03  -1.173564e-03  0 
 0  0  0 

 2.972010e-04  -1.295557e-04  0 
 -1.295557e-04  -3.307014e-04  0 
 0  0  0 

TENSORS element_stresses FLOAT
 -2.972008e-04  -1.295555e-04  0 
 -1.295555e-04  3.307015e-04  0 
 0  0  0 

 -2.624343e-04  -2.873954e-03  0 
 -2.873954e-03  1.173564e-03  0 
 0  0  0 

 3.471001e-11  -2.429811e-04  0 
 -2.429811e-04  1.790355e-10  0 
 0  0  0 

 2.624341e-04  -2.873954e-03  0 
 -2.873954e-03  -1.173564e-03  0 
 0  0  0 

 2.972010e-04  -1.295557e-04  0 
 -1.295557e-04  -3.307014e-04  0 
 0  0  0 

