# vtk DataFile Version 3.1
this is an vtk file created by FEMAC
ASCII
DATASET UNSTRUCTURED_GRID
POINTS 12 FLOAT
0.500000 0.000000 0.000000
1.000000 0.000000 0.000000
0.500000 0.200000 0.000000
0.500000 0.400000 0.000000
0.500000 0.600000 0.000000
0.500000 0.800000 0.000000
0.500000 1.000000 0.000000
1.000000 0.200000 0.000000
1.000000 0.400000 0.000000
1.000000 0.600000 0.000000
1.000000 0.800000 0.000000
1.000000 1.000000 0.000000
CELLS 5 25 
4 0 1 7 2
4 2 7 8 3
4 3 8 9 4
4 4  9 10  5
4 5 10 11  6
CELL_TYPES 5
9 9 9 9 9 
POINT_DATA 12
VECTORS displacement_ITER1 FLOAT
 -7.177372e-05  -4.367341e-05  0 
 -7.849828e-05  -1.206255e-04  0 
 -4.224949e-05  -4.250896e-05  0 
 -1.314945e-05  -4.216014e-05  0 
 1.577633e-05  -4.240296e-05  0 
 4.460229e-05  -4.316399e-05  0 
 7.320073e-05  -4.426231e-05  0 
 -4.651626e-05  -1.194911e-04  0 
 -1.449549e-05  -1.188394e-04  0 
 1.709110e-05  -1.186637e-04  0 
 4.867998e-05  -1.190961e-04  0 
 8.047352e-05  -1.201800e-04  0 
VECTORS displacement_ITER2 FLOAT
 -7.180117e-05  -4.374777e-05  0 
 -7.850530e-05  -1.207442e-04  0 
 -4.226011e-05  -4.261601e-05  0 
 -1.311378e-05  -4.225022e-05  0 
 1.579643e-05  -4.250690e-05  0 
 4.458970e-05  -4.324936e-05  0 
 7.323793e-05  -4.433224e-05  0 
 -4.647740e-05  -1.196512e-04  0 
 -1.456011e-05  -1.189290e-04  0 
 1.712402e-05  -1.187580e-04  0 
 4.870800e-05  -1.191957e-04  0 
 8.048871e-05  -1.203080e-04  0 
VECTORS displacement_ITER3 FLOAT
 -7.180427e-05  -4.372656e-05  0 
 -7.850726e-05  -1.207203e-04  0 
 -4.226185e-05  -4.259424e-05  0 
 -1.311697e-05  -4.223291e-05  0 
 1.579293e-05  -4.248838e-05  0 
 4.458414e-05  -4.323389e-05  0 
 7.323988e-05  -4.431150e-05  0 
 -4.647635e-05  -1.196295e-04  0 
 -1.456815e-05  -1.189106e-04  0 
 1.712626e-05  -1.187400e-04  0 
 4.870422e-05  -1.191826e-04  0 
 8.048283e-05  -1.202893e-04  0 
VECTORS displacement_ITER4 FLOAT
 -7.180379e-05  -4.372808e-05  0 
 -7.850816e-05  -1.207214e-04  0 
 -4.226304e-05  -4.259571e-05  0 
 -1.311717e-05  -4.223425e-05  0 
 1.579160e-05  -4.248978e-05  0 
 4.458467e-05  -4.323508e-05  0 
 7.323915e-05  -4.431370e-05  0 
 -4.647661e-05  -1.196296e-04  0 
 -1.456821e-05  -1.189119e-04  0 
 1.712556e-05  -1.187427e-04  0 
 4.870381e-05  -1.191842e-04  0 
 8.048309e-05  -1.202912e-04  0 
VECTORS displacement_ITER5 FLOAT
 -7.180374e-05  -4.372946e-05  0 
 -7.850861e-05  -1.207230e-04  0 
 -4.226322e-05  -4.259701e-05  0 
 -1.311710e-05  -4.223543e-05  0 
 1.579145e-05  -4.249094e-05  0 
 4.458515e-05  -4.323640e-05  0 
 7.323954e-05  -4.431464e-05  0 
 -4.647665e-05  -1.196310e-04  0 
 -1.456842e-05  -1.189135e-04  0 
 1.712638e-05  -1.187442e-04  0 
 4.870354e-05  -1.191857e-04  0 
 8.048340e-05  -1.202926e-04  0 
VECTORS displacement_ITER6 FLOAT
 -7.180371e-05  -4.372959e-05  0 
 -7.850864e-05  -1.207232e-04  0 
 -4.226328e-05  -4.259712e-05  0 
 -1.311690e-05  -4.223552e-05  0 
 1.579135e-05  -4.249107e-05  0 
 4.458523e-05  -4.323653e-05  0 
 7.323959e-05  -4.431469e-05  0 
 -4.647660e-05  -1.196311e-04  0 
 -1.456852e-05  -1.189136e-04  0 
 1.712661e-05  -1.187443e-04  0 
 4.870351e-05  -1.191858e-04  0 
 8.048342e-05  -1.202928e-04  0 
VECTORS displacement_ITER7 FLOAT
 -7.180370e-05  -4.372956e-05  0 
 -7.850864e-05  -1.207231e-04  0 
 -4.226329e-05  -4.259708e-05  0 
 -1.311685e-05  -4.223549e-05  0 
 1.579133e-05  -4.249105e-05  0 
 4.458524e-05  -4.323651e-05  0 
 7.323959e-05  -4.431465e-05  0 
 -4.647659e-05  -1.196311e-04  0 
 -1.456854e-05  -1.189136e-04  0 
 1.712665e-05  -1.187443e-04  0 
 4.870350e-05  -1.191857e-04  0 
 8.048342e-05  -1.202928e-04  0 
VECTORS displacement_ITER8 FLOAT
 -7.180370e-05  -4.372956e-05  0 
 -7.850864e-05  -1.207231e-04  0 
 -4.226328e-05  -4.259708e-05  0 
 -1.311686e-05  -4.223549e-05  0 
 1.579133e-05  -4.249105e-05  0 
 4.458525e-05  -4.323651e-05  0 
 7.323959e-05  -4.431465e-05  0 
 -4.647659e-05  -1.196311e-04  0 
 -1.456854e-05  -1.189136e-04  0 
 1.712665e-05  -1.187443e-04  0 
 4.870350e-05  -1.191857e-04  0 
 8.048342e-05  -1.202928e-04  0 
VECTORS displacement_ITER9 FLOAT
 -7.180370e-05  -4.372957e-05  0 
 -7.850864e-05  -1.207231e-04  0 
 -4.226328e-05  -4.259709e-05  0 
 -1.311686e-05  -4.223550e-05  0 
 1.579133e-05  -4.249105e-05  0 
 4.458525e-05  -4.323652e-05  0 
 7.323959e-05  -4.431466e-05  0 
 -4.647659e-05  -1.196311e-04  0 
 -1.456854e-05  -1.189136e-04  0 
 1.712665e-05  -1.187443e-04  0 
 4.870350e-05  -1.191857e-04  0 
 8.048343e-05  -1.202928e-04  0 
VECTORS displacement_ITER10 FLOAT
 -7.180370e-05  -4.372957e-05  0 
 -7.850864e-05  -1.207231e-04  0 
 -4.226328e-05  -4.259709e-05  0 
 -1.311686e-05  -4.223550e-05  0 
 1.579133e-05  -4.249105e-05  0 
 4.458525e-05  -4.323652e-05  0 
 7.323959e-05  -4.431466e-05  0 
 -4.647659e-05  -1.196311e-04  0 
 -1.456854e-05  -1.189136e-04  0 
 1.712665e-05  -1.187443e-04  0 
 4.870350e-05  -1.191857e-04  0 
 8.048343e-05  -1.202928e-04  0 
CELL_DATA 5
TENSORS element_stresses FLOAT
 -1.016469e-02  -7.417974e-05  0 
 -7.417974e-05  2.511869e-03  0 
 0  0  0 

 -5.335886e-03  -8.276403e-04  0 
 -8.276403e-04  1.097008e-03  0 
 0  0  0 

 -1.989749e-04  -1.094556e-03  0 
 -1.094556e-03  -2.753591e-04  0 
 0  0  0 

 5.014736e-03  -9.811967e-04  0 
 -9.811967e-04  -1.462750e-03  0 
 0  0  0 

 1.068481e-02  -6.474275e-04  0 
 -6.474275e-04  -2.257600e-03  0 
 0  0  0 

TENSORS element_stresses FLOAT
 -1.016469e-02  -7.417974e-05  0 
 -7.417974e-05  2.511869e-03  0 
 0  0  0 

 -5.335886e-03  -8.276403e-04  0 
 -8.276403e-04  1.097008e-03  0 
 0  0  0 

 -1.989749e-04  -1.094556e-03  0 
 -1.094556e-03  -2.753591e-04  0 
 0  0  0 

 5.014736e-03  -9.811967e-04  0 
 -9.811967e-04  -1.462750e-03  0 
 0  0  0 

 1.068481e-02  -6.474275e-04  0 
 -6.474275e-04  -2.257600e-03  0 
 0  0  0 

