# vtk DataFile Version 3.1
this is an vtk file created by FEMAC
ASCII
DATASET UNSTRUCTURED_GRID
POINTS 12 FLOAT
6.500000 0.000000 0.000000
7.000000 0.000000 0.000000
6.500000 0.200000 0.000000
6.500000 0.400000 0.000000
6.500000 0.600000 0.000000
6.500000 0.800000 0.000000
6.500000 1.000000 0.000000
7.000000 0.200000 0.000000
7.000000 0.400000 0.000000
7.000000 0.600000 0.000000
7.000000 0.800000 0.000000
7.000000 1.000000 0.000000
CELLS 5 25 
4 0 1 7 2
4 2 7 8 3
4 3 8 9 4
4 4  9 10  5
4 5 10 11  6
CELL_TYPES 5
9 9 9 9 9 
POINT_DATA 12
VECTORS displacement_ITER1 FLOAT
 -2.412828e-04  -2.280450e-03  0 
 -2.414964e-04  -2.522987e-03  0 
 -1.443192e-04  -2.280407e-03  0 
 -4.737517e-05  -2.280400e-03  0 
 4.951274e-05  -2.280398e-03  0 
 1.464679e-04  -2.280411e-03  0 
 2.434232e-04  -2.280445e-03  0 
 -1.444477e-04  -2.522961e-03  0 
 -4.743015e-05  -2.522931e-03  0 
 4.957344e-05  -2.522932e-03  0 
 1.465870e-04  -2.522960e-03  0 
 2.436377e-04  -2.522984e-03  0 
VECTORS displacement_ITER2 FLOAT
 -2.405913e-04  -2.277141e-03  0 
 -2.408021e-04  -2.519019e-03  0 
 -1.438768e-04  -2.277086e-03  0 
 -4.721455e-05  -2.277075e-03  0 
 4.945255e-05  -2.277076e-03  0 
 1.461200e-04  -2.277084e-03  0 
 2.428346e-04  -2.277141e-03  0 
 -1.440195e-04  -2.518997e-03  0 
 -4.725392e-05  -2.518971e-03  0 
 4.949891e-05  -2.518972e-03  0 
 1.462576e-04  -2.518997e-03  0 
 2.430414e-04  -2.519019e-03  0 
VECTORS displacement_ITER3 FLOAT
 -2.405333e-04  -2.276953e-03  0 
 -2.407389e-04  -2.518765e-03  0 
 -1.438421e-04  -2.276899e-03  0 
 -4.719960e-05  -2.276884e-03  0 
 4.943206e-05  -2.276883e-03  0 
 1.460754e-04  -2.276898e-03  0 
 2.427666e-04  -2.276953e-03  0 
 -1.439852e-04  -2.518743e-03  0 
 -4.724521e-05  -2.518718e-03  0 
 4.947832e-05  -2.518718e-03  0 
 1.462178e-04  -2.518743e-03  0 
 2.429715e-04  -2.518764e-03  0 
VECTORS displacement_ITER4 FLOAT
 -2.405265e-04  -2.276940e-03  0 
 -2.407317e-04  -2.518746e-03  0 
 -1.438378e-04  -2.276885e-03  0 
 -4.719630e-05  -2.276871e-03  0 
 4.943158e-05  -2.276870e-03  0 
 1.460732e-04  -2.276885e-03  0 
 2.427617e-04  -2.276940e-03  0 
 -1.439803e-04  -2.518724e-03  0 
 -4.724400e-05  -2.518698e-03  0 
 4.947917e-05  -2.518698e-03  0 
 1.462155e-04  -2.518724e-03  0 
 2.429671e-04  -2.518746e-03  0 
VECTORS displacement_ITER5 FLOAT
 -2.405248e-04  -2.276933e-03  0 
 -2.407300e-04  -2.518738e-03  0 
 -1.438369e-04  -2.276879e-03  0 
 -4.719558e-05  -2.276864e-03  0 
 4.943085e-05  -2.276864e-03  0 
 1.460721e-04  -2.276879e-03  0 
 2.427599e-04  -2.276933e-03  0 
 -1.439790e-04  -2.518716e-03  0 
 -4.724408e-05  -2.518690e-03  0 
 4.947924e-05  -2.518690e-03  0 
 1.462143e-04  -2.518716e-03  0 
 2.429653e-04  -2.518738e-03  0 
VECTORS displacement_ITER6 FLOAT
 -2.405247e-04  -2.276933e-03  0 
 -2.407300e-04  -2.518737e-03  0 
 -1.438371e-04  -2.276878e-03  0 
 -4.719579e-05  -2.276864e-03  0 
 4.943024e-05  -2.276864e-03  0 
 1.460715e-04  -2.276878e-03  0 
 2.427592e-04  -2.276933e-03  0 
 -1.439792e-04  -2.518715e-03  0 
 -4.724435e-05  -2.518689e-03  0 
 4.947881e-05  -2.518689e-03  0 
 1.462136e-04  -2.518715e-03  0 
 2.429645e-04  -2.518737e-03  0 
VECTORS displacement_ITER7 FLOAT
 -2.405249e-04  -2.276933e-03  0 
 -2.407303e-04  -2.518738e-03  0 
 -1.438372e-04  -2.276879e-03  0 
 -4.719580e-05  -2.276864e-03  0 
 4.943042e-05  -2.276864e-03  0 
 1.460718e-04  -2.276879e-03  0 
 2.427596e-04  -2.276933e-03  0 
 -1.439792e-04  -2.518716e-03  0 
 -4.724434e-05  -2.518690e-03  0 
 4.947898e-05  -2.518690e-03  0 
 1.462139e-04  -2.518716e-03  0 
 2.429649e-04  -2.518738e-03  0 
VECTORS displacement_ITER8 FLOAT
 -2.405250e-04  -2.276933e-03  0 
 -2.407303e-04  -2.518738e-03  0 
 -1.438372e-04  -2.276879e-03  0 
 -4.719576e-05  -2.276864e-03  0 
 4.943048e-05  -2.276864e-03  0 
 1.460719e-04  -2.276879e-03  0 
 2.427597e-04  -2.276933e-03  0 
 -1.439792e-04  -2.518716e-03  0 
 -4.724431e-05  -2.518690e-03  0 
 4.947903e-05  -2.518690e-03  0 
 1.462140e-04  -2.518716e-03  0 
 2.429650e-04  -2.518738e-03  0 
VECTORS displacement_ITER9 FLOAT
 -2.405250e-04  -2.276933e-03  0 
 -2.407303e-04  -2.518738e-03  0 
 -1.438372e-04  -2.276879e-03  0 
 -4.719575e-05  -2.276864e-03  0 
 4.943048e-05  -2.276864e-03  0 
 1.460719e-04  -2.276879e-03  0 
 2.427597e-04  -2.276933e-03  0 
 -1.439792e-04  -2.518716e-03  0 
 -4.724430e-05  -2.518690e-03  0 
 4.947903e-05  -2.518690e-03  0 
 1.462140e-04  -2.518716e-03  0 
 2.429650e-04  -2.518738e-03  0 
VECTORS displacement_ITER10 FLOAT
 -2.405250e-04  -2.276933e-03  0 
 -2.407303e-04  -2.518738e-03  0 
 -1.438372e-04  -2.276879e-03  0 
 -4.719575e-05  -2.276864e-03  0 
 4.943047e-05  -2.276864e-03  0 
 1.460719e-04  -2.276879e-03  0 
 2.427597e-04  -2.276933e-03  0 
 -1.439792e-04  -2.518716e-03  0 
 -4.724431e-05  -2.518690e-03  0 
 4.947903e-05  -2.518690e-03  0 
 1.462139e-04  -2.518716e-03  0 
 2.429650e-04  -2.518738e-03  0 
CELL_DATA 5
TENSORS element_stresses FLOAT
 -3.185842e-04  -3.464179e-05  0 
 -3.464179e-05  9.592380e-05  0 
 0  0  0 

 -1.763550e-04  -1.710344e-04  0 
 -1.710344e-04  4.754083e-05  0 
 0  0  0 

 -1.456133e-10  -2.136488e-04  0 
 -2.136488e-04  -2.064890e-10  0 
 0  0  0 

 1.763550e-04  -1.710334e-04  0 
 -1.710334e-04  -4.754092e-05  0 
 0  0  0 

 3.185843e-04  -3.464162e-05  0 
 -3.464162e-05  -9.592435e-05  0 
 0  0  0 

TENSORS element_stresses FLOAT
 -3.185842e-04  -3.464179e-05  0 
 -3.464179e-05  9.592380e-05  0 
 0  0  0 

 -1.763550e-04  -1.710344e-04  0 
 -1.710344e-04  4.754083e-05  0 
 0  0  0 

 -1.456133e-10  -2.136488e-04  0 
 -2.136488e-04  -2.064890e-10  0 
 0  0  0 

 1.763550e-04  -1.710334e-04  0 
 -1.710334e-04  -4.754092e-05  0 
 0  0  0 

 3.185843e-04  -3.464162e-05  0 
 -3.464162e-05  -9.592435e-05  0 
 0  0  0 

