# vtk DataFile Version 3.1
this is an vtk file created by FEMAC
ASCII
DATASET UNSTRUCTURED_GRID
POINTS 12 FLOAT
5.000000 0.000000 0.000000
5.500000 0.000000 0.000000
5.000000 0.200000 0.000000
5.000000 0.400000 0.000000
5.000000 0.600000 0.000000
5.000000 0.800000 0.000000
5.000000 1.000000 0.000000
5.500000 0.200000 0.000000
5.500000 0.400000 0.000000
5.500000 0.600000 0.000000
5.500000 0.800000 0.000000
5.500000 1.000000 0.000000
CELLS 5 25 
4 0 1 7 2
4 2 7 8 3
4 3 8 9 4
4 4  9 10  5
4 5 10 11  6
CELL_TYPES 5
9 9 9 9 9 
POINT_DATA 12
VECTORS displacement_ITER1 FLOAT
 -2.276912e-04  -1.565604e-03  0 
 -2.368569e-04  -1.800676e-03  0 
 -1.362576e-04  -1.565477e-03  0 
 -4.471702e-05  -1.565301e-03  0 
 4.673258e-05  -1.565339e-03  0 
 1.384772e-04  -1.565478e-03  0 
 2.298498e-04  -1.565530e-03  0 
 -1.414987e-04  -1.800555e-03  0 
 -4.650665e-05  -1.800470e-03  0 
 4.866490e-05  -1.800492e-03  0 
 1.435643e-04  -1.800614e-03  0 
 2.389504e-04  -1.800633e-03  0 
VECTORS displacement_ITER2 FLOAT
 -2.271721e-04  -1.563866e-03  0 
 -2.362300e-04  -1.798402e-03  0 
 -1.358695e-04  -1.563667e-03  0 
 -4.454695e-05  -1.563525e-03  0 
 4.679386e-05  -1.563540e-03  0 
 1.381794e-04  -1.563685e-03  0 
 2.294119e-04  -1.563806e-03  0 
 -1.412065e-04  -1.798266e-03  0 
 -4.630248e-05  -1.798207e-03  0 
 4.855439e-05  -1.798196e-03  0 
 1.434715e-04  -1.798253e-03  0 
 2.384790e-04  -1.798367e-03  0 
VECTORS displacement_ITER3 FLOAT
 -2.271702e-04  -1.563814e-03  0 
 -2.361797e-04  -1.798321e-03  0 
 -1.358418e-04  -1.563619e-03  0 
 -4.451723e-05  -1.563472e-03  0 
 4.675541e-05  -1.563477e-03  0 
 1.380660e-04  -1.563618e-03  0 
 2.293930e-04  -1.563811e-03  0 
 -1.412063e-04  -1.798172e-03  0 
 -4.632429e-05  -1.798112e-03  0 
 4.853390e-05  -1.798117e-03  0 
 1.434475e-04  -1.798172e-03  0 
 2.384224e-04  -1.798319e-03  0 
VECTORS displacement_ITER4 FLOAT
 -2.271744e-04  -1.563816e-03  0 
 -2.361703e-04  -1.798319e-03  0 
 -1.358197e-04  -1.563624e-03  0 
 -4.452186e-05  -1.563485e-03  0 
 4.675678e-05  -1.563487e-03  0 
 1.380554e-04  -1.563620e-03  0 
 2.294081e-04  -1.563811e-03  0 
 -1.412076e-04  -1.798177e-03  0 
 -4.631451e-05  -1.798125e-03  0 
 4.854536e-05  -1.798125e-03  0 
 1.434433e-04  -1.798172e-03  0 
 2.384070e-04  -1.798317e-03  0 
VECTORS displacement_ITER5 FLOAT
 -2.271702e-04  -1.563814e-03  0 
 -2.361702e-04  -1.798317e-03  0 
 -1.358188e-04  -1.563621e-03  0 
 -4.451720e-05  -1.563488e-03  0 
 4.675076e-05  -1.563488e-03  0 
 1.380554e-04  -1.563622e-03  0 
 2.294057e-04  -1.563814e-03  0 
 -1.412028e-04  -1.798172e-03  0 
 -4.631493e-05  -1.798124e-03  0 
 4.855042e-05  -1.798124e-03  0 
 1.434378e-04  -1.798172e-03  0 
 2.384049e-04  -1.798317e-03  0 
VECTORS displacement_ITER6 FLOAT
 -2.271713e-04  -1.563815e-03  0 
 -2.361698e-04  -1.798317e-03  0 
 -1.358186e-04  -1.563622e-03  0 
 -4.451765e-05  -1.563488e-03  0 
 4.675215e-05  -1.563488e-03  0 
 1.380534e-04  -1.563622e-03  0 
 2.294060e-04  -1.563815e-03  0 
 -1.412035e-04  -1.798173e-03  0 
 -4.631392e-05  -1.798125e-03  0 
 4.854864e-05  -1.798125e-03  0 
 1.434381e-04  -1.798173e-03  0 
 2.384042e-04  -1.798317e-03  0 
VECTORS displacement_ITER7 FLOAT
 -2.271713e-04  -1.563814e-03  0 
 -2.361701e-04  -1.798317e-03  0 
 -1.358189e-04  -1.563622e-03  0 
 -4.451746e-05  -1.563487e-03  0 
 4.675228e-05  -1.563487e-03  0 
 1.380535e-04  -1.563622e-03  0 
 2.294059e-04  -1.563815e-03  0 
 -1.412035e-04  -1.798173e-03  0 
 -4.631412e-05  -1.798124e-03  0 
 4.854870e-05  -1.798124e-03  0 
 1.434383e-04  -1.798173e-03  0 
 2.384048e-04  -1.798317e-03  0 
VECTORS displacement_ITER8 FLOAT
 -2.271713e-04  -1.563815e-03  0 
 -2.361701e-04  -1.798317e-03  0 
 -1.358188e-04  -1.563622e-03  0 
 -4.451771e-05  -1.563487e-03  0 
 4.675242e-05  -1.563487e-03  0 
 1.380536e-04  -1.563622e-03  0 
 2.294060e-04  -1.563814e-03  0 
 -1.412036e-04  -1.798173e-03  0 
 -4.631402e-05  -1.798124e-03  0 
 4.854876e-05  -1.798124e-03  0 
 1.434382e-04  -1.798173e-03  0 
 2.384048e-04  -1.798317e-03  0 
VECTORS displacement_ITER9 FLOAT
 -2.271712e-04  -1.563814e-03  0 
 -2.361701e-04  -1.798317e-03  0 
 -1.358189e-04  -1.563622e-03  0 
 -4.451768e-05  -1.563487e-03  0 
 4.675242e-05  -1.563487e-03  0 
 1.380536e-04  -1.563622e-03  0 
 2.294059e-04  -1.563814e-03  0 
 -1.412035e-04  -1.798173e-03  0 
 -4.631405e-05  -1.798124e-03  0 
 4.854877e-05  -1.798124e-03  0 
 1.434382e-04  -1.798173e-03  0 
 2.384048e-04  -1.798317e-03  0 
VECTORS displacement_ITER10 FLOAT
 -2.271712e-04  -1.563815e-03  0 
 -2.361701e-04  -1.798317e-03  0 
 -1.358189e-04  -1.563622e-03  0 
 -4.451768e-05  -1.563488e-03  0 
 4.675242e-05  -1.563487e-03  0 
 1.380536e-04  -1.563622e-03  0 
 2.294059e-04  -1.563814e-03  0 
 -1.412035e-04  -1.798173e-03  0 
 -4.631405e-05  -1.798124e-03  0 
 4.854877e-05  -1.798124e-03  0 
 1.434382e-04  -1.798173e-03  0 
 2.384048e-04  -1.798317e-03  0 
CELL_DATA 5
TENSORS element_stresses FLOAT
 -1.552835e-03  -2.504489e-04  0 
 -2.504489e-04  -3.815999e-04  0 
 0  0  0 

 -7.740744e-04  -2.854606e-04  0 
 -2.854606e-04  -1.865700e-04  0 
 0  0  0 

 -1.270025e-09  -3.031720e-04  0 
 -3.031720e-04  1.499566e-09  0 
 0  0  0 

 7.740735e-04  -2.854650e-04  0 
 -2.854650e-04  1.865723e-04  0 
 0  0  0 

 1.552837e-03  -2.504536e-04  0 
 -2.504536e-04  3.816013e-04  0 
 0  0  0 

TENSORS element_stresses FLOAT
 -1.552835e-03  -2.504489e-04  0 
 -2.504489e-04  -3.815999e-04  0 
 0  0  0 

 -7.740744e-04  -2.854606e-04  0 
 -2.854606e-04  -1.865700e-04  0 
 0  0  0 

 -1.270025e-09  -3.031720e-04  0 
 -3.031720e-04  1.499566e-09  0 
 0  0  0 

 7.740735e-04  -2.854650e-04  0 
 -2.854650e-04  1.865723e-04  0 
 0  0  0 

 1.552837e-03  -2.504536e-04  0 
 -2.504536e-04  3.816013e-04  0 
 0  0  0 

