# vtk DataFile Version 3.1
this is an vtk file created by FEMAC
ASCII
DATASET UNSTRUCTURED_GRID
POINTS 12 FLOAT
7.500000 0.000000 0.000000
8.000000 0.000000 0.000000
7.500000 0.200000 0.000000
7.500000 0.400000 0.000000
7.500000 0.600000 0.000000
7.500000 0.800000 0.000000
7.500000 1.000000 0.000000
8.000000 0.200000 0.000000
8.000000 0.400000 0.000000
8.000000 0.600000 0.000000
8.000000 0.800000 0.000000
8.000000 1.000000 0.000000
CELLS 5 25 
4 0 1 7 2
4 2 7 8 3
4 3 8 9 4
4 4  9 10  5
4 5 10 11  6
CELL_TYPES 5
9 9 9 9 9 
POINT_DATA 12
VECTORS displacement_ITER1 FLOAT
 -2.422372e-04  -2.766374e-03  0 
 -2.422475e-04  -3.009702e-03  0 
 -1.449017e-04  -2.766365e-03  0 
 -4.758109e-05  -2.766366e-03  0 
 4.972786e-05  -2.766365e-03  0 
 1.470493e-04  -2.766365e-03  0 
 2.443848e-04  -2.766373e-03  0 
 -1.449189e-04  -3.009702e-03  0 
 -4.759036e-05  -3.009695e-03  0 
 4.973763e-05  -3.009696e-03  0 
 1.470658e-04  -3.009702e-03  0 
 2.443948e-04  -3.009703e-03  0 
VECTORS displacement_ITER2 FLOAT
 -2.415393e-04  -2.761770e-03  0 
 -2.415498e-04  -3.004443e-03  0 
 -1.444650e-04  -2.761761e-03  0 
 -4.740930e-05  -2.761758e-03  0 
 4.964401e-05  -2.761760e-03  0 
 1.467001e-04  -2.761762e-03  0 
 2.437753e-04  -2.761771e-03  0 
 -1.444840e-04  -3.004442e-03  0 
 -4.741486e-05  -3.004438e-03  0 
 4.965087e-05  -3.004437e-03  0 
 1.467190e-04  -3.004443e-03  0 
 2.437844e-04  -3.004443e-03  0 
VECTORS displacement_ITER3 FLOAT
 -2.414863e-04  -2.761459e-03  0 
 -2.414965e-04  -3.004080e-03  0 
 -1.444339e-04  -2.761451e-03  0 
 -4.739954e-05  -2.761452e-03  0 
 4.963125e-05  -2.761452e-03  0 
 1.466654e-04  -2.761453e-03  0 
 2.437167e-04  -2.761461e-03  0 
 -1.444516e-04  -3.004079e-03  0 
 -4.740540e-05  -3.004073e-03  0 
 4.963736e-05  -3.004073e-03  0 
 1.466830e-04  -3.004078e-03  0 
 2.437272e-04  -3.004079e-03  0 
VECTORS displacement_ITER4 FLOAT
 -2.414705e-04  -2.761432e-03  0 
 -2.414806e-04  -3.004037e-03  0 
 -1.444238e-04  -2.761423e-03  0 
 -4.739435e-05  -2.761422e-03  0 
 4.963010e-05  -2.761422e-03  0 
 1.466592e-04  -2.761423e-03  0 
 2.437058e-04  -2.761432e-03  0 
 -1.444418e-04  -3.004036e-03  0 
 -4.740133e-05  -3.004031e-03  0 
 4.963686e-05  -3.004031e-03  0 
 1.466774e-04  -3.004036e-03  0 
 2.437160e-04  -3.004037e-03  0 
VECTORS displacement_ITER5 FLOAT
 -2.414679e-04  -2.761422e-03  0 
 -2.414780e-04  -3.004024e-03  0 
 -1.444223e-04  -2.761413e-03  0 
 -4.739407e-05  -2.761412e-03  0 
 4.962950e-05  -2.761412e-03  0 
 1.466577e-04  -2.761413e-03  0 
 2.437034e-04  -2.761422e-03  0 
 -1.444405e-04  -3.004023e-03  0 
 -4.740094e-05  -3.004018e-03  0 
 4.963630e-05  -3.004018e-03  0 
 1.466759e-04  -3.004023e-03  0 
 2.437135e-04  -3.004024e-03  0 
VECTORS displacement_ITER6 FLOAT
 -2.414689e-04  -2.761421e-03  0 
 -2.414790e-04  -3.004023e-03  0 
 -1.444231e-04  -2.761412e-03  0 
 -4.739473e-05  -2.761411e-03  0 
 4.962916e-05  -2.761411e-03  0 
 1.466575e-04  -2.761412e-03  0 
 2.437034e-04  -2.761421e-03  0 
 -1.444412e-04  -3.004023e-03  0 
 -4.740145e-05  -3.004018e-03  0 
 4.963588e-05  -3.004018e-03  0 
 1.466757e-04  -3.004023e-03  0 
 2.437135e-04  -3.004023e-03  0 
VECTORS displacement_ITER7 FLOAT
 -2.414691e-04  -2.761422e-03  0 
 -2.414792e-04  -3.004025e-03  0 
 -1.444232e-04  -2.761413e-03  0 
 -4.739471e-05  -2.761412e-03  0 
 4.962931e-05  -2.761412e-03  0 
 1.466578e-04  -2.761413e-03  0 
 2.437037e-04  -2.761422e-03  0 
 -1.444413e-04  -3.004024e-03  0 
 -4.740142e-05  -3.004019e-03  0 
 4.963602e-05  -3.004019e-03  0 
 1.466759e-04  -3.004024e-03  0 
 2.437138e-04  -3.004025e-03  0 
VECTORS displacement_ITER8 FLOAT
 -2.414691e-04  -2.761422e-03  0 
 -2.414792e-04  -3.004025e-03  0 
 -1.444231e-04  -2.761413e-03  0 
 -4.739465e-05  -2.761412e-03  0 
 4.962936e-05  -2.761412e-03  0 
 1.466578e-04  -2.761413e-03  0 
 2.437038e-04  -2.761422e-03  0 
 -1.444413e-04  -3.004024e-03  0 
 -4.740137e-05  -3.004019e-03  0 
 4.963608e-05  -3.004019e-03  0 
 1.466760e-04  -3.004024e-03  0 
 2.437139e-04  -3.004025e-03  0 
VECTORS displacement_ITER9 FLOAT
 -2.414691e-04  -2.761422e-03  0 
 -2.414792e-04  -3.004025e-03  0 
 -1.444231e-04  -2.761413e-03  0 
 -4.739464e-05  -2.761412e-03  0 
 4.962937e-05  -2.761412e-03  0 
 1.466578e-04  -2.761413e-03  0 
 2.437038e-04  -2.761422e-03  0 
 -1.444412e-04  -3.004024e-03  0 
 -4.740136e-05  -3.004019e-03  0 
 4.963609e-05  -3.004019e-03  0 
 1.466760e-04  -3.004024e-03  0 
 2.437139e-04  -3.004025e-03  0 
VECTORS displacement_ITER10 FLOAT
 -2.414691e-04  -2.761422e-03  0 
 -2.414792e-04  -3.004025e-03  0 
 -1.444231e-04  -2.761413e-03  0 
 -4.739464e-05  -2.761412e-03  0 
 4.962936e-05  -2.761412e-03  0 
 1.466578e-04  -2.761413e-03  0 
 2.437038e-04  -2.761422e-03  0 
 -1.444412e-04  -3.004024e-03  0 
 -4.740136e-05  -3.004019e-03  0 
 4.963608e-05  -3.004019e-03  0 
 1.466760e-04  -3.004024e-03  0 
 2.437139e-04  -3.004025e-03  0 
CELL_DATA 5
TENSORS element_stresses FLOAT
 -2.307084e-05  -2.899317e-06  0 
 -2.899317e-06  1.723100e-05  0 
 0  0  0 

 -2.203837e-05  -3.626482e-05  0 
 -3.626482e-05  9.397931e-06  0 
 0  0  0 

 -2.566791e-10  -4.667097e-05  0 
 -4.667097e-05  4.093135e-10  0 
 0  0  0 

 2.203834e-05  -3.626556e-05  0 
 -3.626556e-05  -9.397681e-06  0 
 0  0  0 

 2.307112e-05  -2.899331e-06  0 
 -2.899331e-06  -1.723144e-05  0 
 0  0  0 

TENSORS element_stresses FLOAT
 -2.307084e-05  -2.899317e-06  0 
 -2.899317e-06  1.723100e-05  0 
 0  0  0 

 -2.203837e-05  -3.626482e-05  0 
 -3.626482e-05  9.397931e-06  0 
 0  0  0 

 -2.566791e-10  -4.667097e-05  0 
 -4.667097e-05  4.093135e-10  0 
 0  0  0 

 2.203834e-05  -3.626556e-05  0 
 -3.626556e-05  -9.397681e-06  0 
 0  0  0 

 2.307112e-05  -2.899331e-06  0 
 -2.899331e-06  -1.723144e-05  0 
 0  0  0 

