# vtk DataFile Version 3.1
this is an vtk file created by FEMAC
ASCII
DATASET UNSTRUCTURED_GRID
POINTS 12 FLOAT
2.000000 0.000000 0.000000
2.500000 0.000000 0.000000
2.000000 0.200000 0.000000
2.000000 0.400000 0.000000
2.000000 0.600000 0.000000
2.000000 0.800000 0.000000
2.000000 1.000000 0.000000
2.500000 0.200000 0.000000
2.500000 0.400000 0.000000
2.500000 0.600000 0.000000
2.500000 0.800000 0.000000
2.500000 1.000000 0.000000
CELLS 5 25 
4 0 1 7 2
4 2 7 8 3
4 3 8 9 4
4 4  9 10  5
4 5 10 11  6
CELL_TYPES 5
9 9 9 9 9 
POINT_DATA 12
VECTORS displacement_ITER1 FLOAT
 -1.371250e-04  -3.671176e-04  0 
 -1.768294e-04  -5.287223e-04  0 
 -8.192378e-05  -3.665331e-04  0 
 -2.716001e-05  -3.658434e-04  0 
 2.906227e-05  -3.657413e-04  0 
 8.410696e-05  -3.665848e-04  0 
 1.395862e-04  -3.672362e-04  0 
 -1.053651e-04  -5.282550e-04  0 
 -3.367973e-05  -5.277535e-04  0 
 3.617564e-05  -5.277285e-04  0 
 1.073280e-04  -5.284346e-04  0 
 1.788216e-04  -5.289742e-04  0 
VECTORS displacement_ITER2 FLOAT
 -1.372841e-04  -3.672419e-04  0 
 -1.764312e-04  -5.287911e-04  0 
 -8.195520e-05  -3.665416e-04  0 
 -2.649589e-05  -3.660791e-04  0 
 2.885294e-05  -3.660374e-04  0 
 8.411324e-05  -3.665201e-04  0 
 1.395426e-04  -3.672401e-04  0 
 -1.051555e-04  -5.282330e-04  0 
 -3.431876e-05  -5.279214e-04  0 
 3.654952e-05  -5.278886e-04  0 
 1.074426e-04  -5.282039e-04  0 
 1.786921e-04  -5.288034e-04  0 
VECTORS displacement_ITER3 FLOAT
 -1.373152e-04  -3.672661e-04  0 
 -1.764235e-04  -5.288440e-04  0 
 -8.190167e-05  -3.664835e-04  0 
 -2.651277e-05  -3.660246e-04  0 
 2.874311e-05  -3.660339e-04  0 
 8.412822e-05  -3.665036e-04  0 
 1.395752e-04  -3.672751e-04  0 
 -1.052640e-04  -5.281702e-04  0 
 -3.434257e-05  -5.278833e-04  0 
 3.658833e-05  -5.278864e-04  0 
 1.074946e-04  -5.281759e-04  0 
 1.786502e-04  -5.288423e-04  0 
VECTORS displacement_ITER4 FLOAT
 -1.373170e-04  -3.672571e-04  0 
 -1.764150e-04  -5.288442e-04  0 
 -8.189191e-05  -3.664805e-04  0 
 -2.654118e-05  -3.660279e-04  0 
 2.875429e-05  -3.660424e-04  0 
 8.412274e-05  -3.665112e-04  0 
 1.395771e-04  -3.672913e-04  0 
 -1.052764e-04  -5.281673e-04  0 
 -3.432627e-05  -5.278872e-04  0 
 3.656473e-05  -5.278916e-04  0 
 1.075117e-04  -5.281746e-04  0 
 1.786470e-04  -5.288521e-04  0 
VECTORS displacement_ITER5 FLOAT
 -1.373162e-04  -3.672587e-04  0 
 -1.764176e-04  -5.288482e-04  0 
 -8.189249e-05  -3.664834e-04  0 
 -2.654719e-05  -3.660316e-04  0 
 2.875638e-05  -3.660446e-04  0 
 8.412502e-05  -3.665141e-04  0 
 1.395773e-04  -3.672937e-04  0 
 -1.052768e-04  -5.281727e-04  0 
 -3.432455e-05  -5.278919e-04  0 
 3.656106e-05  -5.278936e-04  0 
 1.075124e-04  -5.281775e-04  0 
 1.786484e-04  -5.288538e-04  0 
VECTORS displacement_ITER6 FLOAT
 -1.373155e-04  -3.672593e-04  0 
 -1.764186e-04  -5.288483e-04  0 
 -8.189313e-05  -3.664839e-04  0 
 -2.654707e-05  -3.660315e-04  0 
 2.875602e-05  -3.660440e-04  0 
 8.412558e-05  -3.665138e-04  0 
 1.395768e-04  -3.672930e-04  0 
 -1.052765e-04  -5.281731e-04  0 
 -3.432482e-05  -5.278916e-04  0 
 3.656164e-05  -5.278932e-04  0 
 1.075114e-04  -5.281775e-04  0 
 1.786485e-04  -5.288536e-04  0 
VECTORS displacement_ITER7 FLOAT
 -1.373155e-04  -3.672591e-04  0 
 -1.764185e-04  -5.288479e-04  0 
 -8.189311e-05  -3.664838e-04  0 
 -2.654692e-05  -3.660313e-04  0 
 2.875601e-05  -3.660439e-04  0 
 8.412537e-05  -3.665137e-04  0 
 1.395768e-04  -3.672928e-04  0 
 -1.052765e-04  -5.281727e-04  0 
 -3.432468e-05  -5.278913e-04  0 
 3.656177e-05  -5.278931e-04  0 
 1.075112e-04  -5.281774e-04  0 
 1.786484e-04  -5.288535e-04  0 
VECTORS displacement_ITER8 FLOAT
 -1.373155e-04  -3.672591e-04  0 
 -1.764184e-04  -5.288478e-04  0 
 -8.189307e-05  -3.664837e-04  0 
 -2.654685e-05  -3.660313e-04  0 
 2.875608e-05  -3.660440e-04  0 
 8.412522e-05  -3.665136e-04  0 
 1.395769e-04  -3.672928e-04  0 
 -1.052764e-04  -5.281726e-04  0 
 -3.432469e-05  -5.278913e-04  0 
 3.656182e-05  -5.278931e-04  0 
 1.075111e-04  -5.281774e-04  0 
 1.786483e-04  -5.288535e-04  0 
VECTORS displacement_ITER9 FLOAT
 -1.373155e-04  -3.672591e-04  0 
 -1.764184e-04  -5.288478e-04  0 
 -8.189306e-05  -3.664837e-04  0 
 -2.654686e-05  -3.660313e-04  0 
 2.875611e-05  -3.660439e-04  0 
 8.412520e-05  -3.665136e-04  0 
 1.395769e-04  -3.672928e-04  0 
 -1.052764e-04  -5.281726e-04  0 
 -3.432470e-05  -5.278913e-04  0 
 3.656184e-05  -5.278931e-04  0 
 1.075111e-04  -5.281774e-04  0 
 1.786484e-04  -5.288535e-04  0 
VECTORS displacement_ITER10 FLOAT
 -1.373155e-04  -3.672591e-04  0 
 -1.764184e-04  -5.288478e-04  0 
 -8.189306e-05  -3.664837e-04  0 
 -2.654687e-05  -3.660313e-04  0 
 2.875611e-05  -3.660439e-04  0 
 8.412519e-05  -3.665136e-04  0 
 1.395769e-04  -3.672929e-04  0 
 -1.052764e-04  -5.281726e-04  0 
 -3.432471e-05  -5.278913e-04  0 
 3.656184e-05  -5.278931e-04  0 
 1.075111e-04  -5.281774e-04  0 
 1.786484e-04  -5.288535e-04  0 
CELL_DATA 5
TENSORS element_stresses FLOAT
 -6.747071e-03  -5.281833e-04  0 
 -5.281833e-04  -1.661495e-03  0 
 0  0  0 

 -3.363834e-03  -6.003244e-04  0 
 -6.003244e-04  -8.257210e-04  0 
 0  0  0 

 1.876471e-06  -6.334896e-04  0 
 -6.334896e-04  -3.041368e-06  0 
 0  0  0 

 3.365520e-03  -5.936157e-04  0 
 -5.936157e-04  8.211777e-04  0 
 0  0  0 

 6.743508e-03  -5.193869e-04  0 
 -5.193869e-04  1.659219e-03  0 
 0  0  0 

TENSORS element_stresses FLOAT
 -6.747071e-03  -5.281833e-04  0 
 -5.281833e-04  -1.661495e-03  0 
 0  0  0 

 -3.363834e-03  -6.003244e-04  0 
 -6.003244e-04  -8.257210e-04  0 
 0  0  0 

 1.876471e-06  -6.334896e-04  0 
 -6.334896e-04  -3.041368e-06  0 
 0  0  0 

 3.365520e-03  -5.936157e-04  0 
 -5.936157e-04  8.211777e-04  0 
 0  0  0 

 6.743508e-03  -5.193869e-04  0 
 -5.193869e-04  1.659219e-03  0 
 0  0  0 

