# vtk DataFile Version 3.1
this is an vtk file created by FEMAC
ASCII
DATASET UNSTRUCTURED_GRID
POINTS 12 FLOAT
7.000000 0.000000 0.000000
7.500000 0.000000 0.000000
7.000000 0.200000 0.000000
7.000000 0.400000 0.000000
7.000000 0.600000 0.000000
7.000000 0.800000 0.000000
7.000000 1.000000 0.000000
7.500000 0.200000 0.000000
7.500000 0.400000 0.000000
7.500000 0.600000 0.000000
7.500000 0.800000 0.000000
7.500000 1.000000 0.000000
CELLS 5 25 
4 0 1 7 2
4 2 7 8 3
4 3 8 9 4
4 4  9 10  5
4 5 10 11  6
CELL_TYPES 5
9 9 9 9 9 
POINT_DATA 12
VECTORS displacement_ITER1 FLOAT
 -2.414773e-04  -2.522977e-03  0 
 -2.422380e-04  -2.766369e-03  0 
 -1.444602e-04  -2.522959e-03  0 
 -4.749485e-05  -2.522922e-03  0 
 4.964055e-05  -2.522938e-03  0 
 1.466013e-04  -2.522947e-03  0 
 2.436144e-04  -2.523013e-03  0 
 -1.449025e-04  -2.766365e-03  0 
 -4.758014e-05  -2.766372e-03  0 
 4.973073e-05  -2.766369e-03  0 
 1.470479e-04  -2.766365e-03  0 
 2.443840e-04  -2.766368e-03  0 
VECTORS displacement_ITER2 FLOAT
 -2.407878e-04  -2.519022e-03  0 
 -2.415415e-04  -2.761762e-03  0 
 -1.440260e-04  -2.518997e-03  0 
 -4.724538e-05  -2.518971e-03  0 
 4.944648e-05  -2.518962e-03  0 
 1.462916e-04  -2.519006e-03  0 
 2.430436e-04  -2.519016e-03  0 
 -1.444685e-04  -2.761764e-03  0 
 -4.741180e-05  -2.761771e-03  0 
 4.966235e-05  -2.761765e-03  0 
 1.466960e-04  -2.761759e-03  0 
 2.437692e-04  -2.761761e-03  0 
VECTORS displacement_ITER3 FLOAT
 -2.407343e-04  -2.518769e-03  0 
 -2.414892e-04  -2.761470e-03  0 
 -1.439837e-04  -2.518743e-03  0 
 -4.726412e-05  -2.518712e-03  0 
 4.949152e-05  -2.518715e-03  0 
 1.462189e-04  -2.518742e-03  0 
 2.429699e-04  -2.518769e-03  0 
 -1.444333e-04  -2.761453e-03  0 
 -4.738868e-05  -2.761444e-03  0 
 4.962251e-05  -2.761445e-03  0 
 1.466623e-04  -2.761450e-03  0 
 2.437200e-04  -2.761465e-03  0 
VECTORS displacement_ITER4 FLOAT
 -2.407322e-04  -2.518745e-03  0 
 -2.414703e-04  -2.761433e-03  0 
 -1.439786e-04  -2.518723e-03  0 
 -4.724744e-05  -2.518698e-03  0 
 4.948280e-05  -2.518700e-03  0 
 1.462143e-04  -2.518725e-03  0 
 2.429670e-04  -2.518747e-03  0 
 -1.444236e-04  -2.761423e-03  0 
 -4.739476e-05  -2.761422e-03  0 
 4.962947e-05  -2.761422e-03  0 
 1.466599e-04  -2.761424e-03  0 
 2.437057e-04  -2.761432e-03  0 
VECTORS displacement_ITER5 FLOAT
 -2.407306e-04  -2.518737e-03  0 
 -2.414676e-04  -2.761421e-03  0 
 -1.439787e-04  -2.518716e-03  0 
 -4.724318e-05  -2.518691e-03  0 
 4.947898e-05  -2.518691e-03  0 
 1.462138e-04  -2.518716e-03  0 
 2.429654e-04  -2.518738e-03  0 
 -1.444224e-04  -2.761413e-03  0 
 -4.739522e-05  -2.761412e-03  0 
 4.963026e-05  -2.761412e-03  0 
 1.466582e-04  -2.761413e-03  0 
 2.437031e-04  -2.761422e-03  0 
VECTORS displacement_ITER6 FLOAT
 -2.407300e-04  -2.518737e-03  0 
 -2.414690e-04  -2.761421e-03  0 
 -1.439791e-04  -2.518715e-03  0 
 -4.724466e-05  -2.518689e-03  0 
 4.947915e-05  -2.518689e-03  0 
 1.462135e-04  -2.518715e-03  0 
 2.429645e-04  -2.518737e-03  0 
 -1.444231e-04  -2.761412e-03  0 
 -4.739464e-05  -2.761411e-03  0 
 4.962903e-05  -2.761411e-03  0 
 1.466575e-04  -2.761412e-03  0 
 2.437034e-04  -2.761421e-03  0 
VECTORS displacement_ITER7 FLOAT
 -2.407302e-04  -2.518738e-03  0 
 -2.414691e-04  -2.761422e-03  0 
 -1.439793e-04  -2.518716e-03  0 
 -4.724435e-05  -2.518690e-03  0 
 4.947890e-05  -2.518690e-03  0 
 1.462139e-04  -2.518716e-03  0 
 2.429649e-04  -2.518738e-03  0 
 -1.444232e-04  -2.761413e-03  0 
 -4.739463e-05  -2.761412e-03  0 
 4.962930e-05  -2.761412e-03  0 
 1.466577e-04  -2.761413e-03  0 
 2.437037e-04  -2.761422e-03  0 
VECTORS displacement_ITER8 FLOAT
 -2.407303e-04  -2.518738e-03  0 
 -2.414691e-04  -2.761422e-03  0 
 -1.439792e-04  -2.518716e-03  0 
 -4.724431e-05  -2.518690e-03  0 
 4.947900e-05  -2.518690e-03  0 
 1.462140e-04  -2.518716e-03  0 
 2.429650e-04  -2.518738e-03  0 
 -1.444231e-04  -2.761413e-03  0 
 -4.739464e-05  -2.761412e-03  0 
 4.962938e-05  -2.761412e-03  0 
 1.466578e-04  -2.761413e-03  0 
 2.437038e-04  -2.761422e-03  0 
VECTORS displacement_ITER9 FLOAT
 -2.407303e-04  -2.518738e-03  0 
 -2.414691e-04  -2.761422e-03  0 
 -1.439792e-04  -2.518716e-03  0 
 -4.724430e-05  -2.518690e-03  0 
 4.947904e-05  -2.518690e-03  0 
 1.462140e-04  -2.518716e-03  0 
 2.429650e-04  -2.518738e-03  0 
 -1.444231e-04  -2.761413e-03  0 
 -4.739464e-05  -2.761412e-03  0 
 4.962937e-05  -2.761412e-03  0 
 1.466578e-04  -2.761413e-03  0 
 2.437038e-04  -2.761422e-03  0 
VECTORS displacement_ITER10 FLOAT
 -2.407303e-04  -2.518738e-03  0 
 -2.414691e-04  -2.761422e-03  0 
 -1.439792e-04  -2.518716e-03  0 
 -4.724430e-05  -2.518690e-03  0 
 4.947902e-05  -2.518690e-03  0 
 1.462139e-04  -2.518716e-03  0 
 2.429650e-04  -2.518738e-03  0 
 -1.444231e-04  -2.761413e-03  0 
 -4.739465e-05  -2.761412e-03  0 
 4.962936e-05  -2.761412e-03  0 
 1.466578e-04  -2.761413e-03  0 
 2.437038e-04  -2.761422e-03  0 
CELL_DATA 5
TENSORS element_stresses FLOAT
 -1.274180e-04  -6.839626e-05  0 
 -6.839626e-05  -3.049454e-05  0 
 0  0  0 

 -6.305660e-05  -7.774459e-05  0 
 -7.774459e-05  -1.211396e-05  0 
 0  0  0 

 -6.996044e-10  -8.271831e-05  0 
 -8.271831e-05  -7.636722e-10  0 
 0  0  0 

 6.305643e-05  -7.774447e-05  0 
 -7.774447e-05  1.211351e-05  0 
 0  0  0 

 1.274189e-04  -6.839636e-05  0 
 -6.839636e-05  3.049540e-05  0 
 0  0  0 

TENSORS element_stresses FLOAT
 -1.274180e-04  -6.839626e-05  0 
 -6.839626e-05  -3.049454e-05  0 
 0  0  0 

 -6.305660e-05  -7.774459e-05  0 
 -7.774459e-05  -1.211396e-05  0 
 0  0  0 

 -6.996044e-10  -8.271831e-05  0 
 -8.271831e-05  -7.636722e-10  0 
 0  0  0 

 6.305643e-05  -7.774447e-05  0 
 -7.774447e-05  1.211351e-05  0 
 0  0  0 

 1.274189e-04  -6.839636e-05  0 
 -6.839636e-05  3.049540e-05  0 
 0  0  0 

