# vtk DataFile Version 3.1
this is an vtk file created by FEMAC
ASCII
DATASET UNSTRUCTURED_GRID
POINTS 12 FLOAT
2.500000 0.000000 0.000000
3.000000 0.000000 0.000000
2.500000 0.200000 0.000000
2.500000 0.400000 0.000000
2.500000 0.600000 0.000000
2.500000 0.800000 0.000000
2.500000 1.000000 0.000000
3.000000 0.200000 0.000000
3.000000 0.400000 0.000000
3.000000 0.600000 0.000000
3.000000 0.800000 0.000000
3.000000 1.000000 0.000000
CELLS 5 25 
4 0 1 7 2
4 2 7 8 3
4 3 8 9 4
4 4  9 10  5
4 5 10 11  6
CELL_TYPES 5
9 9 9 9 9 
POINT_DATA 12
VECTORS displacement_ITER1 FLOAT
 -1.765329e-04  -5.288889e-04  0 
 -1.802587e-04  -7.085537e-04  0 
 -1.054155e-04  -5.281592e-04  0 
 -3.445404e-05  -5.279170e-04  0 
 3.656862e-05  -5.279222e-04  0 
 1.075842e-04  -5.281475e-04  0 
 1.787007e-04  -5.288332e-04  0 
 -1.076075e-04  -7.080534e-04  0 
 -3.513075e-05  -7.077302e-04  0 
 3.728197e-05  -7.077265e-04  0 
 1.097352e-04  -7.080151e-04  0 
 1.824077e-04  -7.085728e-04  0 
VECTORS displacement_ITER2 FLOAT
 -1.763748e-04  -5.288540e-04  0 
 -1.800285e-04  -7.084396e-04  0 
 -1.052619e-04  -5.281703e-04  0 
 -3.431220e-05  -5.278918e-04  0 
 3.657111e-05  -5.278930e-04  0 
 1.075232e-04  -5.281737e-04  0 
 1.786333e-04  -5.288586e-04  0 
 -1.074930e-04  -7.078855e-04  0 
 -3.505822e-05  -7.075620e-04  0 
 3.731970e-05  -7.075679e-04  0 
 1.097537e-04  -7.078888e-04  0 
 1.822840e-04  -7.084364e-04  0 
VECTORS displacement_ITER3 FLOAT
 -1.764164e-04  -5.288430e-04  0 
 -1.800422e-04  -7.084429e-04  0 
 -1.052771e-04  -5.281681e-04  0 
 -3.432378e-05  -5.278863e-04  0 
 3.655920e-05  -5.278867e-04  0 
 1.075129e-04  -5.281705e-04  0 
 1.786481e-04  -5.288475e-04  0 
 -1.075228e-04  -7.079034e-04  0 
 -3.508014e-05  -7.075723e-04  0 
 3.731684e-05  -7.075718e-04  0 
 1.097576e-04  -7.079015e-04  0 
 1.822755e-04  -7.084409e-04  0 
VECTORS displacement_ITER4 FLOAT
 -1.764165e-04  -5.288450e-04  0 
 -1.800394e-04  -7.084436e-04  0 
 -1.052749e-04  -5.281699e-04  0 
 -3.432357e-05  -5.278883e-04  0 
 3.656180e-05  -5.278897e-04  0 
 1.075111e-04  -5.281741e-04  0 
 1.786479e-04  -5.288501e-04  0 
 -1.075224e-04  -7.079056e-04  0 
 -3.507872e-05  -7.075737e-04  0 
 3.731686e-05  -7.075727e-04  0 
 1.097583e-04  -7.079031e-04  0 
 1.822737e-04  -7.084413e-04  0 
VECTORS displacement_ITER5 FLOAT
 -1.764183e-04  -5.288481e-04  0 
 -1.800415e-04  -7.084487e-04  0 
 -1.052761e-04  -5.281730e-04  0 
 -3.432451e-05  -5.278916e-04  0 
 3.656214e-05  -5.278934e-04  0 
 1.075112e-04  -5.281777e-04  0 
 1.786485e-04  -5.288538e-04  0 
 -1.075237e-04  -7.079101e-04  0 
 -3.507890e-05  -7.075785e-04  0 
 3.731610e-05  -7.075776e-04  0 
 1.097589e-04  -7.079078e-04  0 
 1.822745e-04  -7.084462e-04  0 
VECTORS displacement_ITER6 FLOAT
 -1.764186e-04  -5.288480e-04  0 
 -1.800420e-04  -7.084490e-04  0 
 -1.052765e-04  -5.281729e-04  0 
 -3.432477e-05  -5.278916e-04  0 
 3.656190e-05  -5.278934e-04  0 
 1.075112e-04  -5.281776e-04  0 
 1.786485e-04  -5.288538e-04  0 
 -1.075240e-04  -7.079103e-04  0 
 -3.507914e-05  -7.075786e-04  0 
 3.731591e-05  -7.075777e-04  0 
 1.097588e-04  -7.079079e-04  0 
 1.822745e-04  -7.084464e-04  0 
VECTORS displacement_ITER7 FLOAT
 -1.764185e-04  -5.288478e-04  0 
 -1.800419e-04  -7.084486e-04  0 
 -1.052764e-04  -5.281727e-04  0 
 -3.432475e-05  -5.278913e-04  0 
 3.656184e-05  -5.278932e-04  0 
 1.075111e-04  -5.281774e-04  0 
 1.786484e-04  -5.288535e-04  0 
 -1.075239e-04  -7.079099e-04  0 
 -3.507912e-05  -7.075782e-04  0 
 3.731591e-05  -7.075773e-04  0 
 1.097587e-04  -7.079076e-04  0 
 1.822744e-04  -7.084460e-04  0 
VECTORS displacement_ITER8 FLOAT
 -1.764184e-04  -5.288478e-04  0 
 -1.800418e-04  -7.084486e-04  0 
 -1.052764e-04  -5.281726e-04  0 
 -3.432472e-05  -5.278913e-04  0 
 3.656184e-05  -5.278931e-04  0 
 1.075111e-04  -5.281773e-04  0 
 1.786484e-04  -5.288535e-04  0 
 -1.075238e-04  -7.079099e-04  0 
 -3.507910e-05  -7.075782e-04  0 
 3.731593e-05  -7.075773e-04  0 
 1.097587e-04  -7.079075e-04  0 
 1.822744e-04  -7.084459e-04  0 
VECTORS displacement_ITER9 FLOAT
 -1.764184e-04  -5.288478e-04  0 
 -1.800419e-04  -7.084486e-04  0 
 -1.052764e-04  -5.281726e-04  0 
 -3.432471e-05  -5.278913e-04  0 
 3.656185e-05  -5.278931e-04  0 
 1.075111e-04  -5.281774e-04  0 
 1.786484e-04  -5.288535e-04  0 
 -1.075238e-04  -7.079099e-04  0 
 -3.507909e-05  -7.075782e-04  0 
 3.731593e-05  -7.075773e-04  0 
 1.097587e-04  -7.079075e-04  0 
 1.822744e-04  -7.084459e-04  0 
VECTORS displacement_ITER10 FLOAT
 -1.764184e-04  -5.288478e-04  0 
 -1.800419e-04  -7.084486e-04  0 
 -1.052764e-04  -5.281727e-04  0 
 -3.432471e-05  -5.278913e-04  0 
 3.656185e-05  -5.278931e-04  0 
 1.075111e-04  -5.281774e-04  0 
 1.786484e-04  -5.288535e-04  0 
 -1.075238e-04  -7.079099e-04  0 
 -3.507910e-05  -7.075782e-04  0 
 3.731594e-05  -7.075773e-04  0 
 1.097587e-04  -7.079075e-04  0 
 1.822744e-04  -7.084459e-04  0 
CELL_DATA 5
TENSORS element_stresses FLOAT
 -5.451077e-03  -1.445204e-04  0 
 -1.445204e-04  1.399265e-03  0 
 0  0  0 

 -2.793451e-03  -7.177969e-04  0 
 -7.177969e-04  6.945088e-04  0 
 0  0  0 

 -1.054868e-06  -8.977224e-04  0 
 -8.977224e-04  -2.531435e-06  0 
 0  0  0 

 2.792105e-03  -7.186126e-04  0 
 -7.186126e-04  -6.984800e-04  0 
 0  0  0 

 5.453478e-03  -1.463477e-04  0 
 -1.463477e-04  -1.400274e-03  0 
 0  0  0 

TENSORS element_stresses FLOAT
 -5.451077e-03  -1.445204e-04  0 
 -1.445204e-04  1.399265e-03  0 
 0  0  0 

 -2.793451e-03  -7.177969e-04  0 
 -7.177969e-04  6.945088e-04  0 
 0  0  0 

 -1.054868e-06  -8.977224e-04  0 
 -8.977224e-04  -2.531435e-06  0 
 0  0  0 

 2.792105e-03  -7.186126e-04  0 
 -7.186126e-04  -6.984800e-04  0 
 0  0  0 

 5.453478e-03  -1.463477e-04  0 
 -1.463477e-04  -1.400274e-03  0 
 0  0  0 

