# vtk DataFile Version 3.1
this is an vtk file created by FEMAC
ASCII
DATASET UNSTRUCTURED_GRID
POINTS 12 FLOAT
1.500000 0.000000 0.000000
2.000000 0.000000 0.000000
1.500000 0.200000 0.000000
1.500000 0.400000 0.000000
1.500000 0.600000 0.000000
1.500000 0.800000 0.000000
1.500000 1.000000 0.000000
2.000000 0.200000 0.000000
2.000000 0.400000 0.000000
2.000000 0.600000 0.000000
2.000000 0.800000 0.000000
2.000000 1.000000 0.000000
CELLS 5 25 
4 0 1 7 2
4 2 7 8 3
4 3 8 9 4
4 4  9 10  5
4 5 10 11  6
CELL_TYPES 5
9 9 9 9 9 
POINT_DATA 12
VECTORS displacement_ITER1 FLOAT
 -1.321194e-04  -2.310808e-04  0 
 -1.373753e-04  -3.671492e-04  0 
 -7.877291e-05  -2.300752e-04  0 
 -2.551237e-05  -2.297009e-04  0 
 2.767885e-05  -2.296648e-04  0 
 8.092778e-05  -2.300271e-04  0 
 1.344422e-04  -2.309765e-04  0 
 -8.190063e-05  -3.663696e-04  0 
 -2.653088e-05  -3.659518e-04  0 
 2.869911e-05  -3.659894e-04  0 
 8.410458e-05  -3.664052e-04  0 
 1.395497e-04  -3.671912e-04  0 
VECTORS displacement_ITER2 FLOAT
 -1.321335e-04  -2.311565e-04  0 
 -1.372963e-04  -3.672655e-04  0 
 -7.870824e-05  -2.302046e-04  0 
 -2.545542e-05  -2.297792e-04  0 
 2.769631e-05  -2.297598e-04  0 
 8.095231e-05  -2.301556e-04  0 
 1.344461e-04  -2.310930e-04  0 
 -8.186627e-05  -3.664840e-04  0 
 -2.653887e-05  -3.660370e-04  0 
 2.875928e-05  -3.660533e-04  0 
 8.413526e-05  -3.665173e-04  0 
 1.395806e-04  -3.673031e-04  0 
VECTORS displacement_ITER3 FLOAT
 -1.321598e-04  -2.311292e-04  0 
 -1.373104e-04  -3.672509e-04  0 
 -7.871189e-05  -2.301845e-04  0 
 -2.547730e-05  -2.297596e-04  0 
 2.768543e-05  -2.297364e-04  0 
 8.095013e-05  -2.301304e-04  0 
 1.344550e-04  -2.310630e-04  0 
 -8.188881e-05  -3.664763e-04  0 
 -2.654820e-05  -3.660251e-04  0 
 2.875907e-05  -3.660385e-04  0 
 8.412718e-05  -3.665078e-04  0 
 1.395781e-04  -3.672881e-04  0 
VECTORS displacement_ITER4 FLOAT
 -1.321611e-04  -2.311336e-04  0 
 -1.373143e-04  -3.672566e-04  0 
 -7.871270e-05  -2.301876e-04  0 
 -2.548193e-05  -2.297633e-04  0 
 2.768449e-05  -2.297400e-04  0 
 8.094936e-05  -2.301322e-04  0 
 1.344547e-04  -2.310650e-04  0 
 -8.189237e-05  -3.664814e-04  0 
 -2.654734e-05  -3.660290e-04  0 
 2.875636e-05  -3.660415e-04  0 
 8.412519e-05  -3.665115e-04  0 
 1.395765e-04  -3.672904e-04  0 
VECTORS displacement_ITER5 FLOAT
 -1.321618e-04  -2.311355e-04  0 
 -1.373158e-04  -3.672594e-04  0 
 -7.871321e-05  -2.301892e-04  0 
 -2.548290e-05  -2.297649e-04  0 
 2.768494e-05  -2.297418e-04  0 
 8.094975e-05  -2.301341e-04  0 
 1.344554e-04  -2.310666e-04  0 
 -8.189323e-05  -3.664841e-04  0 
 -2.654690e-05  -3.660316e-04  0 
 2.875622e-05  -3.660441e-04  0 
 8.412535e-05  -3.665138e-04  0 
 1.395772e-04  -3.672930e-04  0 
VECTORS displacement_ITER6 FLOAT
 -1.321616e-04  -2.311356e-04  0 
 -1.373156e-04  -3.672593e-04  0 
 -7.871316e-05  -2.301892e-04  0 
 -2.548295e-05  -2.297649e-04  0 
 2.768493e-05  -2.297420e-04  0 
 8.094960e-05  -2.301342e-04  0 
 1.344551e-04  -2.310668e-04  0 
 -8.189311e-05  -3.664839e-04  0 
 -2.654687e-05  -3.660315e-04  0 
 2.875616e-05  -3.660441e-04  0 
 8.412518e-05  -3.665138e-04  0 
 1.395770e-04  -3.672930e-04  0 
VECTORS displacement_ITER7 FLOAT
 -1.321615e-04  -2.311355e-04  0 
 -1.373156e-04  -3.672591e-04  0 
 -7.871312e-05  -2.301891e-04  0 
 -2.548294e-05  -2.297648e-04  0 
 2.768493e-05  -2.297419e-04  0 
 8.094952e-05  -2.301342e-04  0 
 1.344551e-04  -2.310667e-04  0 
 -8.189306e-05  -3.664837e-04  0 
 -2.654688e-05  -3.660314e-04  0 
 2.875612e-05  -3.660440e-04  0 
 8.412516e-05  -3.665136e-04  0 
 1.395769e-04  -3.672929e-04  0 
VECTORS displacement_ITER8 FLOAT
 -1.321615e-04  -2.311355e-04  0 
 -1.373155e-04  -3.672591e-04  0 
 -7.871311e-05  -2.301891e-04  0 
 -2.548293e-05  -2.297648e-04  0 
 2.768494e-05  -2.297419e-04  0 
 8.094951e-05  -2.301341e-04  0 
 1.344551e-04  -2.310667e-04  0 
 -8.189306e-05  -3.664837e-04  0 
 -2.654688e-05  -3.660313e-04  0 
 2.875611e-05  -3.660439e-04  0 
 8.412519e-05  -3.665136e-04  0 
 1.395769e-04  -3.672929e-04  0 
VECTORS displacement_ITER9 FLOAT
 -1.321615e-04  -2.311355e-04  0 
 -1.373155e-04  -3.672591e-04  0 
 -7.871311e-05  -2.301891e-04  0 
 -2.548292e-05  -2.297648e-04  0 
 2.768495e-05  -2.297419e-04  0 
 8.094951e-05  -2.301341e-04  0 
 1.344551e-04  -2.310667e-04  0 
 -8.189305e-05  -3.664837e-04  0 
 -2.654687e-05  -3.660313e-04  0 
 2.875611e-05  -3.660439e-04  0 
 8.412519e-05  -3.665136e-04  0 
 1.395769e-04  -3.672929e-04  0 
VECTORS displacement_ITER10 FLOAT
 -1.321615e-04  -2.311355e-04  0 
 -1.373155e-04  -3.672591e-04  0 
 -7.871311e-05  -2.301891e-04  0 
 -2.548292e-05  -2.297648e-04  0 
 2.768495e-05  -2.297419e-04  0 
 8.094951e-05  -2.301341e-04  0 
 1.344551e-04  -2.310667e-04  0 
 -8.189306e-05  -3.664837e-04  0 
 -2.654687e-05  -3.660313e-04  0 
 2.875611e-05  -3.660439e-04  0 
 8.412520e-05  -3.665136e-04  0 
 1.395769e-04  -3.672929e-04  0 
CELL_DATA 5
TENSORS element_stresses FLOAT
 -7.739158e-03  -1.853139e-04  0 
 -1.853139e-04  1.982619e-03  0 
 0  0  0 

 -3.941064e-03  -8.616841e-04  0 
 -8.616841e-04  1.009436e-03  0 
 0  0  0 

 1.646334e-05  -1.070346e-03  0 
 -1.070346e-03  3.082375e-05  0 
 0  0  0 

 3.956457e-03  -8.441872e-04  0 
 -8.441872e-04  -9.679523e-04  0 
 0  0  0 

 7.707302e-03  -1.634693e-04  0 
 -1.634693e-04  -1.967225e-03  0 
 0  0  0 

TENSORS element_stresses FLOAT
 -7.739158e-03  -1.853139e-04  0 
 -1.853139e-04  1.982619e-03  0 
 0  0  0 

 -3.941064e-03  -8.616841e-04  0 
 -8.616841e-04  1.009436e-03  0 
 0  0  0 

 1.646334e-05  -1.070346e-03  0 
 -1.070346e-03  3.082375e-05  0 
 0  0  0 

 3.956457e-03  -8.441872e-04  0 
 -8.441872e-04  -9.679523e-04  0 
 0  0  0 

 7.707302e-03  -1.634693e-04  0 
 -1.634693e-04  -1.967225e-03  0 
 0  0  0 

