# vtk DataFile Version 3.1
this is an vtk file created by FEMAC
ASCII
DATASET UNSTRUCTURED_GRID
POINTS 12 FLOAT
4.000000 0.000000 0.000000
4.500000 0.000000 0.000000
4.000000 0.200000 0.000000
4.000000 0.400000 0.000000
4.000000 0.600000 0.000000
4.000000 0.800000 0.000000
4.000000 1.000000 0.000000
4.500000 0.200000 0.000000
4.500000 0.400000 0.000000
4.500000 0.600000 0.000000
4.500000 0.800000 0.000000
4.500000 1.000000 0.000000
CELLS 5 25 
4 0 1 7 2
4 2 7 8 3
4 3 8 9 4
4 4  9 10  5
4 5 10 11  6
CELL_TYPES 5
9 9 9 9 9 
POINT_DATA 12
VECTORS displacement_ITER1 FLOAT
 -2.096104e-04  -1.116003e-03  0 
 -2.264558e-04  -1.337314e-03  0 
 -1.252637e-04  -1.115697e-03  0 
 -4.105195e-05  -1.115110e-03  0 
 4.315004e-05  -1.115079e-03  0 
 1.272803e-04  -1.115689e-03  0 
 2.118133e-04  -1.116294e-03  0 
 -1.352941e-04  -1.337176e-03  0 
 -4.417424e-05  -1.336935e-03  0 
 4.644222e-05  -1.336872e-03  0 
 1.373238e-04  -1.337121e-03  0 
 2.285423e-04  -1.337355e-03  0 
VECTORS displacement_ITER2 FLOAT
 -2.090473e-04  -1.115085e-03  0 
 -2.258479e-04  -1.336041e-03  0 
 -1.250927e-04  -1.114842e-03  0 
 -4.087693e-05  -1.114552e-03  0 
 4.315634e-05  -1.114566e-03  0 
 1.272926e-04  -1.114810e-03  0 
 2.113026e-04  -1.115148e-03  0 
 -1.348787e-04  -1.335801e-03  0 
 -4.418525e-05  -1.335674e-03  0 
 4.640784e-05  -1.335679e-03  0 
 1.371503e-04  -1.335787e-03  0 
 2.281404e-04  -1.336068e-03  0 
VECTORS displacement_ITER3 FLOAT
 -2.091093e-04  -1.115153e-03  0 
 -2.257935e-04  -1.336057e-03  0 
 -1.249696e-04  -1.114816e-03  0 
 -4.092090e-05  -1.114581e-03  0 
 4.313308e-05  -1.114577e-03  0 
 1.272078e-04  -1.114809e-03  0 
 2.113497e-04  -1.115158e-03  0 
 -1.349525e-04  -1.335793e-03  0 
 -4.420754e-05  -1.335671e-03  0 
 4.644430e-05  -1.335669e-03  0 
 1.371735e-04  -1.335779e-03  0 
 2.280200e-04  -1.336053e-03  0 
VECTORS displacement_ITER4 FLOAT
 -2.091117e-04  -1.115158e-03  0 
 -2.257877e-04  -1.336063e-03  0 
 -1.249747e-04  -1.114813e-03  0 
 -4.090291e-05  -1.114588e-03  0 
 4.313491e-05  -1.114589e-03  0 
 1.272088e-04  -1.114810e-03  0 
 2.113500e-04  -1.115162e-03  0 
 -1.349457e-04  -1.335786e-03  0 
 -4.422659e-05  -1.335679e-03  0 
 4.646221e-05  -1.335677e-03  0 
 1.371801e-04  -1.335781e-03  0 
 2.280216e-04  -1.336063e-03  0 
VECTORS displacement_ITER5 FLOAT
 -2.091132e-04  -1.115161e-03  0 
 -2.257821e-04  -1.336064e-03  0 
 -1.249754e-04  -1.114818e-03  0 
 -4.090015e-05  -1.114597e-03  0 
 4.313529e-05  -1.114598e-03  0 
 1.272090e-04  -1.114818e-03  0 
 2.113494e-04  -1.115163e-03  0 
 -1.349477e-04  -1.335787e-03  0 
 -4.422419e-05  -1.335684e-03  0 
 4.646022e-05  -1.335685e-03  0 
 1.371827e-04  -1.335787e-03  0 
 2.280168e-04  -1.336066e-03  0 
VECTORS displacement_ITER6 FLOAT
 -2.091137e-04  -1.115162e-03  0 
 -2.257822e-04  -1.336065e-03  0 
 -1.249755e-04  -1.114819e-03  0 
 -4.090002e-05  -1.114597e-03  0 
 4.313474e-05  -1.114598e-03  0 
 1.272098e-04  -1.114819e-03  0 
 2.113487e-04  -1.115163e-03  0 
 -1.349479e-04  -1.335788e-03  0 
 -4.422526e-05  -1.335684e-03  0 
 4.646016e-05  -1.335684e-03  0 
 1.371825e-04  -1.335788e-03  0 
 2.280168e-04  -1.336066e-03  0 
VECTORS displacement_ITER7 FLOAT
 -2.091138e-04  -1.115162e-03  0 
 -2.257822e-04  -1.336065e-03  0 
 -1.249750e-04  -1.114818e-03  0 
 -4.090024e-05  -1.114597e-03  0 
 4.313469e-05  -1.114597e-03  0 
 1.272097e-04  -1.114818e-03  0 
 2.113487e-04  -1.115162e-03  0 
 -1.349481e-04  -1.335788e-03  0 
 -4.422488e-05  -1.335683e-03  0 
 4.645964e-05  -1.335683e-03  0 
 1.371828e-04  -1.335788e-03  0 
 2.280169e-04  -1.336065e-03  0 
VECTORS displacement_ITER8 FLOAT
 -2.091138e-04  -1.115162e-03  0 
 -2.257823e-04  -1.336065e-03  0 
 -1.249751e-04  -1.114818e-03  0 
 -4.090014e-05  -1.114597e-03  0 
 4.313470e-05  -1.114597e-03  0 
 1.272098e-04  -1.114818e-03  0 
 2.113486e-04  -1.115162e-03  0 
 -1.349480e-04  -1.335787e-03  0 
 -4.422494e-05  -1.335683e-03  0 
 4.645963e-05  -1.335683e-03  0 
 1.371827e-04  -1.335787e-03  0 
 2.280170e-04  -1.336065e-03  0 
VECTORS displacement_ITER9 FLOAT
 -2.091138e-04  -1.115162e-03  0 
 -2.257823e-04  -1.336065e-03  0 
 -1.249751e-04  -1.114818e-03  0 
 -4.090016e-05  -1.114597e-03  0 
 4.313471e-05  -1.114597e-03  0 
 1.272098e-04  -1.114818e-03  0 
 2.113487e-04  -1.115162e-03  0 
 -1.349480e-04  -1.335787e-03  0 
 -4.422488e-05  -1.335683e-03  0 
 4.645962e-05  -1.335683e-03  0 
 1.371827e-04  -1.335787e-03  0 
 2.280170e-04  -1.336065e-03  0 
VECTORS displacement_ITER10 FLOAT
 -2.091138e-04  -1.115162e-03  0 
 -2.257823e-04  -1.336065e-03  0 
 -1.249751e-04  -1.114818e-03  0 
 -4.090016e-05  -1.114597e-03  0 
 4.313470e-05  -1.114597e-03  0 
 1.272098e-04  -1.114818e-03  0 
 2.113487e-04  -1.115162e-03  0 
 -1.349480e-04  -1.335787e-03  0 
 -4.422489e-05  -1.335683e-03  0 
 4.645963e-05  -1.335683e-03  0 
 1.371827e-04  -1.335788e-03  0 
 2.280170e-04  -1.336065e-03  0 
CELL_DATA 5
TENSORS element_stresses FLOAT
 -2.876417e-03  -3.415519e-04  0 
 -3.415519e-04  -7.075786e-04  0 
 0  0  0 

 -1.434419e-03  -3.892907e-04  0 
 -3.892907e-04  -3.488431e-04  0 
 0  0  0 

 1.372312e-08  -4.134172e-04  0 
 -4.134172e-04  -1.700976e-08  0 
 0  0  0 

 1.434429e-03  -3.892447e-04  0 
 -3.892447e-04  3.488125e-04  0 
 0  0  0 

 2.876393e-03  -3.414955e-04  0 
 -3.414955e-04  7.075647e-04  0 
 0  0  0 

TENSORS element_stresses FLOAT
 -2.876417e-03  -3.415519e-04  0 
 -3.415519e-04  -7.075786e-04  0 
 0  0  0 

 -1.434419e-03  -3.892907e-04  0 
 -3.892907e-04  -3.488431e-04  0 
 0  0  0 

 1.372312e-08  -4.134172e-04  0 
 -4.134172e-04  -1.700976e-08  0 
 0  0  0 

 1.434429e-03  -3.892447e-04  0 
 -3.892447e-04  3.488125e-04  0 
 0  0  0 

 2.876393e-03  -3.414955e-04  0 
 -3.414955e-04  7.075647e-04  0 
 0  0  0 

