# vtk DataFile Version 3.1
this is an vtk file created by FEMAC
ASCII
DATASET UNSTRUCTURED_GRID
POINTS 12 FLOAT
3.500000 0.000000 0.000000
4.000000 0.000000 0.000000
3.500000 0.200000 0.000000
3.500000 0.400000 0.000000
3.500000 0.600000 0.000000
3.500000 0.800000 0.000000
3.500000 1.000000 0.000000
4.000000 0.200000 0.000000
4.000000 0.400000 0.000000
4.000000 0.600000 0.000000
4.000000 0.800000 0.000000
4.000000 1.000000 0.000000
CELLS 5 25 
4 0 1 7 2
4 2 7 8 3
4 3 8 9 4
4 4  9 10  5
4 5 10 11  6
CELL_TYPES 5
9 9 9 9 9 
POINT_DATA 12
VECTORS displacement_ITER1 FLOAT
 -2.072367e-04  -9.062365e-04  0 
 -2.096158e-04  -1.115963e-03  0 
 -1.238425e-04  -9.058409e-04  0 
 -4.055819e-05  -9.056553e-04  0 
 4.267901e-05  -9.056487e-04  0 
 1.259554e-04  -9.057880e-04  0 
 2.093564e-04  -9.062861e-04  0 
 -1.252966e-04  -1.115589e-03  0 
 -4.105805e-05  -1.115424e-03  0 
 4.316284e-05  -1.115427e-03  0 
 1.274316e-04  -1.115595e-03  0 
 2.116936e-04  -1.115874e-03  0 
VECTORS displacement_ITER2 FLOAT
 -2.067221e-04  -9.058891e-04  0 
 -2.091196e-04  -1.115144e-03  0 
 -1.234902e-04  -9.054296e-04  0 
 -4.041029e-05  -9.052564e-04  0 
 4.264909e-05  -9.052584e-04  0 
 1.257423e-04  -9.054254e-04  0 
 2.089744e-04  -9.058919e-04  0 
 -1.249595e-04  -1.114787e-03  0 
 -4.089281e-05  -1.114573e-03  0 
 4.313653e-05  -1.114572e-03  0 
 1.272086e-04  -1.114793e-03  0 
 2.113614e-04  -1.115132e-03  0 
VECTORS displacement_ITER3 FLOAT
 -2.067376e-04  -9.059086e-04  0 
 -2.091153e-04  -1.115152e-03  0 
 -1.234980e-04  -9.054532e-04  0 
 -4.040707e-05  -9.052701e-04  0 
 4.263633e-05  -9.052695e-04  0 
 1.257300e-04  -9.054520e-04  0 
 2.089696e-04  -9.059100e-04  0 
 -1.249772e-04  -1.114807e-03  0 
 -4.090047e-05  -1.114588e-03  0 
 4.313289e-05  -1.114589e-03  0 
 1.272073e-04  -1.114808e-03  0 
 2.113436e-04  -1.115149e-03  0 
VECTORS displacement_ITER4 FLOAT
 -2.067377e-04  -9.059105e-04  0 
 -2.091135e-04  -1.115156e-03  0 
 -1.234969e-04  -9.054562e-04  0 
 -4.040372e-05  -9.052727e-04  0 
 4.263843e-05  -9.052725e-04  0 
 1.257319e-04  -9.054553e-04  0 
 2.089737e-04  -9.059105e-04  0 
 -1.249751e-04  -1.114812e-03  0 
 -4.089980e-05  -1.114592e-03  0 
 4.313490e-05  -1.114592e-03  0 
 1.272102e-04  -1.114813e-03  0 
 2.113477e-04  -1.115155e-03  0 
VECTORS displacement_ITER5 FLOAT
 -2.067379e-04  -9.059162e-04  0 
 -2.091137e-04  -1.115162e-03  0 
 -1.234968e-04  -9.054613e-04  0 
 -4.040376e-05  -9.052784e-04  0 
 4.263863e-05  -9.052782e-04  0 
 1.257318e-04  -9.054607e-04  0 
 2.089737e-04  -9.059155e-04  0 
 -1.249749e-04  -1.114818e-03  0 
 -4.090004e-05  -1.114597e-03  0 
 4.313480e-05  -1.114597e-03  0 
 1.272101e-04  -1.114819e-03  0 
 2.113487e-04  -1.115162e-03  0 
VECTORS displacement_ITER6 FLOAT
 -2.067383e-04  -9.059162e-04  0 
 -2.091139e-04  -1.115162e-03  0 
 -1.234969e-04  -9.054614e-04  0 
 -4.040386e-05  -9.052787e-04  0 
 4.263836e-05  -9.052785e-04  0 
 1.257316e-04  -9.054610e-04  0 
 2.089734e-04  -9.059157e-04  0 
 -1.249751e-04  -1.114819e-03  0 
 -4.090019e-05  -1.114597e-03  0 
 4.313467e-05  -1.114597e-03  0 
 1.272098e-04  -1.114819e-03  0 
 2.113487e-04  -1.115163e-03  0 
VECTORS displacement_ITER7 FLOAT
 -2.067383e-04  -9.059157e-04  0 
 -2.091138e-04  -1.115162e-03  0 
 -1.234969e-04  -9.054609e-04  0 
 -4.040385e-05  -9.052782e-04  0 
 4.263833e-05  -9.052780e-04  0 
 1.257316e-04  -9.054605e-04  0 
 2.089734e-04  -9.059152e-04  0 
 -1.249751e-04  -1.114818e-03  0 
 -4.090018e-05  -1.114597e-03  0 
 4.313468e-05  -1.114597e-03  0 
 1.272098e-04  -1.114818e-03  0 
 2.113486e-04  -1.115162e-03  0 
VECTORS displacement_ITER8 FLOAT
 -2.067383e-04  -9.059156e-04  0 
 -2.091138e-04  -1.115162e-03  0 
 -1.234969e-04  -9.054608e-04  0 
 -4.040383e-05  -9.052781e-04  0 
 4.263834e-05  -9.052779e-04  0 
 1.257316e-04  -9.054604e-04  0 
 2.089734e-04  -9.059151e-04  0 
 -1.249751e-04  -1.114818e-03  0 
 -4.090016e-05  -1.114597e-03  0 
 4.313470e-05  -1.114597e-03  0 
 1.272098e-04  -1.114818e-03  0 
 2.113487e-04  -1.115162e-03  0 
VECTORS displacement_ITER9 FLOAT
 -2.067383e-04  -9.059156e-04  0 
 -2.091138e-04  -1.115162e-03  0 
 -1.234969e-04  -9.054608e-04  0 
 -4.040382e-05  -9.052781e-04  0 
 4.263835e-05  -9.052780e-04  0 
 1.257316e-04  -9.054604e-04  0 
 2.089734e-04  -9.059151e-04  0 
 -1.249751e-04  -1.114818e-03  0 
 -4.090016e-05  -1.114597e-03  0 
 4.313471e-05  -1.114597e-03  0 
 1.272098e-04  -1.114818e-03  0 
 2.113487e-04  -1.115162e-03  0 
VECTORS displacement_ITER10 FLOAT
 -2.067383e-04  -9.059156e-04  0 
 -2.091138e-04  -1.115162e-03  0 
 -1.234969e-04  -9.054608e-04  0 
 -4.040382e-05  -9.052781e-04  0 
 4.263835e-05  -9.052780e-04  0 
 1.257316e-04  -9.054604e-04  0 
 2.089734e-04  -9.059151e-04  0 
 -1.249751e-04  -1.114818e-03  0 
 -4.090016e-05  -1.114597e-03  0 
 4.313471e-05  -1.114597e-03  0 
 1.272098e-04  -1.114818e-03  0 
 2.113487e-04  -1.115162e-03  0 
CELL_DATA 5
TENSORS element_stresses FLOAT
 -3.576609e-03  -1.178399e-04  0 
 -1.178399e-04  9.234296e-04  0 
 0  0  0 

 -1.836685e-03  -5.814556e-04  0 
 -5.814556e-04  4.594758e-04  0 
 0  0  0 

 8.645194e-08  -7.266155e-04  0 
 -7.266155e-04  2.139200e-07  0 
 0  0  0 

 1.836790e-03  -5.813928e-04  0 
 -5.813928e-04  -4.591604e-04  0 
 0  0  0 

 3.576417e-03  -1.176961e-04  0 
 -1.176961e-04  -9.233481e-04  0 
 0  0  0 

TENSORS element_stresses FLOAT
 -3.576609e-03  -1.178399e-04  0 
 -1.178399e-04  9.234296e-04  0 
 0  0  0 

 -1.836685e-03  -5.814556e-04  0 
 -5.814556e-04  4.594758e-04  0 
 0  0  0 

 8.645194e-08  -7.266155e-04  0 
 -7.266155e-04  2.139200e-07  0 
 0  0  0 

 1.836790e-03  -5.813928e-04  0 
 -5.813928e-04  -4.591604e-04  0 
 0  0  0 

 3.576417e-03  -1.176961e-04  0 
 -1.176961e-04  -9.233481e-04  0 
 0  0  0 

