# vtk DataFile Version 3.1
this is an vtk file created by FEMAC
ASCII
DATASET UNSTRUCTURED_GRID
POINTS 12 FLOAT
6.000000 0.000000 0.000000
6.500000 0.000000 0.000000
6.000000 0.200000 0.000000
6.000000 0.400000 0.000000
6.000000 0.600000 0.000000
6.000000 0.800000 0.000000
6.000000 1.000000 0.000000
6.500000 0.200000 0.000000
6.500000 0.400000 0.000000
6.500000 0.600000 0.000000
6.500000 0.800000 0.000000
6.500000 1.000000 0.000000
CELLS 5 25 
4 0 1 7 2
4 2 7 8 3
4 3 8 9 4
4 4  9 10  5
4 5 10 11  6
CELL_TYPES 5
9 9 9 9 9 
POINT_DATA 12
VECTORS displacement_ITER1 FLOAT
 -2.373269e-04  -2.038959e-03  0 
 -2.413552e-04  -2.280489e-03  0 
 -1.423047e-04  -2.038915e-03  0 
 -4.652192e-05  -2.038699e-03  0 
 4.862934e-05  -2.038753e-03  0 
 1.444251e-04  -2.038895e-03  0 
 2.394069e-04  -2.039112e-03  0 
 -1.441462e-04  -2.280344e-03  0 
 -4.755159e-05  -2.280396e-03  0 
 4.973247e-05  -2.280398e-03  0 
 1.462276e-04  -2.280343e-03  0 
 2.435195e-04  -2.280540e-03  0 
VECTORS displacement_ITER2 FLOAT
 -2.368630e-04  -2.036186e-03  0 
 -2.406259e-04  -2.277161e-03  0 
 -1.416712e-04  -2.036102e-03  0 
 -4.646204e-05  -2.036032e-03  0 
 4.870561e-05  -2.036020e-03  0 
 1.439195e-04  -2.036093e-03  0 
 2.391380e-04  -2.036158e-03  0 
 -1.438652e-04  -2.277105e-03  0 
 -4.712702e-05  -2.277037e-03  0 
 4.939282e-05  -2.277035e-03  0 
 1.461037e-04  -2.277116e-03  0 
 2.428461e-04  -2.277149e-03  0 
VECTORS displacement_ITER3 FLOAT
 -2.368579e-04  -2.036060e-03  0 
 -2.405296e-04  -2.276950e-03  0 
 -1.416333e-04  -2.035969e-03  0 
 -4.644647e-05  -2.035897e-03  0 
 4.869190e-05  -2.035899e-03  0 
 1.438598e-04  -2.035968e-03  0 
 2.390817e-04  -2.036052e-03  0 
 -1.438505e-04  -2.276897e-03  0 
 -4.719539e-05  -2.276885e-03  0 
 4.943036e-05  -2.276888e-03  0 
 1.460810e-04  -2.276896e-03  0 
 2.427632e-04  -2.276954e-03  0 
VECTORS displacement_ITER4 FLOAT
 -2.368408e-04  -2.036050e-03  0 
 -2.405253e-04  -2.276939e-03  0 
 -1.416292e-04  -2.035963e-03  0 
 -4.645505e-05  -2.035893e-03  0 
 4.869350e-05  -2.035894e-03  0 
 1.438621e-04  -2.035963e-03  0 
 2.390732e-04  -2.036048e-03  0 
 -1.438397e-04  -2.276884e-03  0 
 -4.719387e-05  -2.276870e-03  0 
 4.942814e-05  -2.276871e-03  0 
 1.460743e-04  -2.276886e-03  0 
 2.427623e-04  -2.276941e-03  0 
VECTORS displacement_ITER5 FLOAT
 -2.368356e-04  -2.036044e-03  0 
 -2.405247e-04  -2.276933e-03  0 
 -1.416288e-04  -2.035959e-03  0 
 -4.645765e-05  -2.035890e-03  0 
 4.869311e-05  -2.035890e-03  0 
 1.438634e-04  -2.035959e-03  0 
 2.390707e-04  -2.036045e-03  0 
 -1.438369e-04  -2.276879e-03  0 
 -4.719461e-05  -2.276864e-03  0 
 4.942907e-05  -2.276864e-03  0 
 1.460725e-04  -2.276879e-03  0 
 2.427603e-04  -2.276933e-03  0 
VECTORS displacement_ITER6 FLOAT
 -2.368352e-04  -2.036045e-03  0 
 -2.405248e-04  -2.276933e-03  0 
 -1.416293e-04  -2.035959e-03  0 
 -4.645715e-05  -2.035890e-03  0 
 4.869157e-05  -2.035890e-03  0 
 1.438639e-04  -2.035959e-03  0 
 2.390699e-04  -2.036044e-03  0 
 -1.438370e-04  -2.276878e-03  0 
 -4.719636e-05  -2.276864e-03  0 
 4.943096e-05  -2.276864e-03  0 
 1.460714e-04  -2.276878e-03  0 
 2.427591e-04  -2.276933e-03  0 
VECTORS displacement_ITER7 FLOAT
 -2.368357e-04  -2.036045e-03  0 
 -2.405250e-04  -2.276933e-03  0 
 -1.416290e-04  -2.035959e-03  0 
 -4.645758e-05  -2.035890e-03  0 
 4.869221e-05  -2.035890e-03  0 
 1.438637e-04  -2.035959e-03  0 
 2.390705e-04  -2.036045e-03  0 
 -1.438372e-04  -2.276879e-03  0 
 -4.719568e-05  -2.276864e-03  0 
 4.943041e-05  -2.276864e-03  0 
 1.460719e-04  -2.276879e-03  0 
 2.427595e-04  -2.276933e-03  0 
VECTORS displacement_ITER8 FLOAT
 -2.368357e-04  -2.036045e-03  0 
 -2.405250e-04  -2.276933e-03  0 
 -1.416290e-04  -2.035959e-03  0 
 -4.645760e-05  -2.035890e-03  0 
 4.869232e-05  -2.035890e-03  0 
 1.438637e-04  -2.035959e-03  0 
 2.390704e-04  -2.036045e-03  0 
 -1.438372e-04  -2.276879e-03  0 
 -4.719575e-05  -2.276864e-03  0 
 4.943045e-05  -2.276864e-03  0 
 1.460719e-04  -2.276879e-03  0 
 2.427597e-04  -2.276933e-03  0 
VECTORS displacement_ITER9 FLOAT
 -2.368357e-04  -2.036045e-03  0 
 -2.405250e-04  -2.276933e-03  0 
 -1.416290e-04  -2.035959e-03  0 
 -4.645757e-05  -2.035890e-03  0 
 4.869230e-05  -2.035890e-03  0 
 1.438637e-04  -2.035959e-03  0 
 2.390704e-04  -2.036045e-03  0 
 -1.438372e-04  -2.276879e-03  0 
 -4.719576e-05  -2.276864e-03  0 
 4.943049e-05  -2.276864e-03  0 
 1.460719e-04  -2.276879e-03  0 
 2.427597e-04  -2.276933e-03  0 
VECTORS displacement_ITER10 FLOAT
 -2.368357e-04  -2.036045e-03  0 
 -2.405250e-04  -2.276933e-03  0 
 -1.416290e-04  -2.035959e-03  0 
 -4.645757e-05  -2.035890e-03  0 
 4.869228e-05  -2.035890e-03  0 
 1.438637e-04  -2.035959e-03  0 
 2.390704e-04  -2.036045e-03  0 
 -1.438372e-04  -2.276879e-03  0 
 -4.719575e-05  -2.276864e-03  0 
 4.943047e-05  -2.276864e-03  0 
 1.460719e-04  -2.276879e-03  0 
 2.427597e-04  -2.276933e-03  0 
CELL_DATA 5
TENSORS element_stresses FLOAT
 -6.365188e-04  -1.593746e-04  0 
 -1.593746e-04  -1.559283e-04  0 
 0  0  0 

 -3.169076e-04  -1.816582e-04  0 
 -1.816582e-04  -7.424406e-05  0 
 0  0  0 

 8.236695e-10  -1.929356e-04  0 
 -1.929356e-04  7.515704e-10  0 
 0  0  0 

 3.169077e-04  -1.816573e-04  0 
 -1.816573e-04  7.424383e-05  0 
 0  0  0 

 6.365179e-04  -1.593743e-04  0 
 -1.593743e-04  1.559285e-04  0 
 0  0  0 

TENSORS element_stresses FLOAT
 -6.365188e-04  -1.593746e-04  0 
 -1.593746e-04  -1.559283e-04  0 
 0  0  0 

 -3.169076e-04  -1.816582e-04  0 
 -1.816582e-04  -7.424406e-05  0 
 0  0  0 

 8.236695e-10  -1.929356e-04  0 
 -1.929356e-04  7.515704e-10  0 
 0  0  0 

 3.169077e-04  -1.816573e-04  0 
 -1.816573e-04  7.424383e-05  0 
 0  0  0 

 6.365179e-04  -1.593743e-04  0 
 -1.593743e-04  1.559285e-04  0 
 0  0  0 

