# vtk DataFile Version 3.1
this is an vtk file created by FEMAC
ASCII
DATASET UNSTRUCTURED_GRID
POINTS 12 FLOAT
4.500000 0.000000 0.000000
5.000000 0.000000 0.000000
4.500000 0.200000 0.000000
4.500000 0.400000 0.000000
4.500000 0.600000 0.000000
4.500000 0.800000 0.000000
4.500000 1.000000 0.000000
5.000000 0.200000 0.000000
5.000000 0.400000 0.000000
5.000000 0.600000 0.000000
5.000000 0.800000 0.000000
5.000000 1.000000 0.000000
CELLS 5 25 
4 0 1 7 2
4 2 7 8 3
4 3 8 9 4
4 4  9 10  5
4 5 10 11  6
CELL_TYPES 5
9 9 9 9 9 
POINT_DATA 12
VECTORS displacement_ITER1 FLOAT
 -2.263513e-04  -1.337354e-03  0 
 -2.277760e-04  -1.565623e-03  0 
 -1.353303e-04  -1.337049e-03  0 
 -4.440979e-05  -1.336964e-03  0 
 4.652937e-05  -1.336980e-03  0 
 1.374781e-04  -1.337074e-03  0 
 2.284679e-04  -1.337353e-03  0 
 -1.361912e-04  -1.565435e-03  0 
 -4.465866e-05  -1.565309e-03  0 
 4.681082e-05  -1.565302e-03  0 
 1.383040e-04  -1.565426e-03  0 
 2.299048e-04  -1.565634e-03  0 
VECTORS displacement_ITER2 FLOAT
 -2.258066e-04  -1.336062e-03  0 
 -2.272064e-04  -1.563853e-03  0 
 -1.349626e-04  -1.335776e-03  0 
 -4.422356e-05  -1.335682e-03  0 
 4.649170e-05  -1.335684e-03  0 
 1.372270e-04  -1.335787e-03  0 
 2.280608e-04  -1.336059e-03  0 
 -1.358257e-04  -1.563664e-03  0 
 -4.450302e-05  -1.563528e-03  0 
 4.677389e-05  -1.563525e-03  0 
 1.380835e-04  -1.563656e-03  0 
 2.294742e-04  -1.563863e-03  0 
VECTORS displacement_ITER3 FLOAT
 -2.257865e-04  -1.336057e-03  0 
 -2.271787e-04  -1.563808e-03  0 
 -1.349536e-04  -1.335777e-03  0 
 -4.422994e-05  -1.335675e-03  0 
 4.645837e-05  -1.335676e-03  0 
 1.371822e-04  -1.335780e-03  0 
 2.280138e-04  -1.336057e-03  0 
 -1.358218e-04  -1.563616e-03  0 
 -4.452067e-05  -1.563483e-03  0 
 4.674949e-05  -1.563481e-03  0 
 1.380499e-04  -1.563615e-03  0 
 2.294068e-04  -1.563808e-03  0 
VECTORS displacement_ITER4 FLOAT
 -2.257850e-04  -1.336061e-03  0 
 -2.271746e-04  -1.563814e-03  0 
 -1.349503e-04  -1.335783e-03  0 
 -4.422526e-05  -1.335679e-03  0 
 4.646012e-05  -1.335680e-03  0 
 1.371850e-04  -1.335784e-03  0 
 2.280194e-04  -1.336061e-03  0 
 -1.358205e-04  -1.563621e-03  0 
 -4.451781e-05  -1.563487e-03  0 
 4.675308e-05  -1.563486e-03  0 
 1.380550e-04  -1.563621e-03  0 
 2.294092e-04  -1.563814e-03  0 
VECTORS displacement_ITER5 FLOAT
 -2.257818e-04  -1.336065e-03  0 
 -2.271708e-04  -1.563815e-03  0 
 -1.349476e-04  -1.335788e-03  0 
 -4.422457e-05  -1.335683e-03  0 
 4.645975e-05  -1.335683e-03  0 
 1.371830e-04  -1.335788e-03  0 
 2.280170e-04  -1.336065e-03  0 
 -1.358185e-04  -1.563622e-03  0 
 -4.451736e-05  -1.563487e-03  0 
 4.675284e-05  -1.563487e-03  0 
 1.380535e-04  -1.563622e-03  0 
 2.294060e-04  -1.563815e-03  0 
VECTORS displacement_ITER6 FLOAT
 -2.257822e-04  -1.336066e-03  0 
 -2.271711e-04  -1.563815e-03  0 
 -1.349479e-04  -1.335788e-03  0 
 -4.422484e-05  -1.335684e-03  0 
 4.645953e-05  -1.335684e-03  0 
 1.371827e-04  -1.335788e-03  0 
 2.280169e-04  -1.336066e-03  0 
 -1.358188e-04  -1.563622e-03  0 
 -4.451770e-05  -1.563488e-03  0 
 4.675244e-05  -1.563488e-03  0 
 1.380535e-04  -1.563622e-03  0 
 2.294058e-04  -1.563815e-03  0 
VECTORS displacement_ITER7 FLOAT
 -2.257823e-04  -1.336065e-03  0 
 -2.271712e-04  -1.563815e-03  0 
 -1.349480e-04  -1.335788e-03  0 
 -4.422491e-05  -1.335683e-03  0 
 4.645959e-05  -1.335683e-03  0 
 1.371827e-04  -1.335788e-03  0 
 2.280169e-04  -1.336065e-03  0 
 -1.358189e-04  -1.563622e-03  0 
 -4.451772e-05  -1.563488e-03  0 
 4.675240e-05  -1.563488e-03  0 
 1.380535e-04  -1.563622e-03  0 
 2.294059e-04  -1.563814e-03  0 
VECTORS displacement_ITER8 FLOAT
 -2.257823e-04  -1.336065e-03  0 
 -2.271712e-04  -1.563814e-03  0 
 -1.349480e-04  -1.335787e-03  0 
 -4.422489e-05  -1.335683e-03  0 
 4.645963e-05  -1.335683e-03  0 
 1.371827e-04  -1.335787e-03  0 
 2.280170e-04  -1.336065e-03  0 
 -1.358189e-04  -1.563622e-03  0 
 -4.451769e-05  -1.563487e-03  0 
 4.675241e-05  -1.563487e-03  0 
 1.380536e-04  -1.563622e-03  0 
 2.294059e-04  -1.563814e-03  0 
VECTORS displacement_ITER9 FLOAT
 -2.257823e-04  -1.336065e-03  0 
 -2.271712e-04  -1.563814e-03  0 
 -1.349480e-04  -1.335787e-03  0 
 -4.422489e-05  -1.335683e-03  0 
 4.645963e-05  -1.335683e-03  0 
 1.371827e-04  -1.335788e-03  0 
 2.280170e-04  -1.336065e-03  0 
 -1.358189e-04  -1.563622e-03  0 
 -4.451768e-05  -1.563487e-03  0 
 4.675241e-05  -1.563487e-03  0 
 1.380536e-04  -1.563622e-03  0 
 2.294059e-04  -1.563814e-03  0 
VECTORS displacement_ITER10 FLOAT
 -2.257823e-04  -1.336065e-03  0 
 -2.271712e-04  -1.563815e-03  0 
 -1.349480e-04  -1.335787e-03  0 
 -4.422489e-05  -1.335683e-03  0 
 4.645963e-05  -1.335683e-03  0 
 1.371827e-04  -1.335788e-03  0 
 2.280170e-04  -1.336065e-03  0 
 -1.358189e-04  -1.563622e-03  0 
 -4.451768e-05  -1.563488e-03  0 
 4.675241e-05  -1.563487e-03  0 
 1.380536e-04  -1.563622e-03  0 
 2.294059e-04  -1.563814e-03  0 
CELL_DATA 5
TENSORS element_stresses FLOAT
 -2.095629e-03  -9.005163e-05  0 
 -9.005163e-05  5.472660e-04  0 
 0  0  0 

 -1.082022e-03  -4.446169e-04  0 
 -4.446169e-04  2.720871e-04  0 
 0  0  0 

 -7.422205e-09  -5.556467e-04  0 
 -5.556467e-04  -1.808662e-08  0 
 0  0  0 

 1.082013e-03  -4.446217e-04  0 
 -4.446217e-04  -2.721129e-04  0 
 0  0  0 

 2.095645e-03  -9.006300e-05  0 
 -9.006300e-05  -5.472729e-04  0 
 0  0  0 

TENSORS element_stresses FLOAT
 -2.095629e-03  -9.005163e-05  0 
 -9.005163e-05  5.472660e-04  0 
 0  0  0 

 -1.082022e-03  -4.446169e-04  0 
 -4.446169e-04  2.720871e-04  0 
 0  0  0 

 -7.422205e-09  -5.556467e-04  0 
 -5.556467e-04  -1.808662e-08  0 
 0  0  0 

 1.082013e-03  -4.446217e-04  0 
 -4.446217e-04  -2.721129e-04  0 
 0  0  0 

 2.095645e-03  -9.006300e-05  0 
 -9.006300e-05  -5.472729e-04  0 
 0  0  0 

