# vtk DataFile Version 3.1
this is an vtk file created by FEMAC
ASCII
DATASET UNSTRUCTURED_GRID
POINTS 12 FLOAT
3.000000 0.000000 0.000000
3.500000 0.000000 0.000000
3.000000 0.200000 0.000000
3.000000 0.400000 0.000000
3.000000 0.600000 0.000000
3.000000 0.800000 0.000000
3.000000 1.000000 0.000000
3.500000 0.200000 0.000000
3.500000 0.400000 0.000000
3.500000 0.600000 0.000000
3.500000 0.800000 0.000000
3.500000 1.000000 0.000000
CELLS 5 25 
4 0 1 7 2
4 2 7 8 3
4 3 8 9 4
4 4  9 10  5
4 5 10 11  6
CELL_TYPES 5
9 9 9 9 9 
POINT_DATA 12
VECTORS displacement_ITER1 FLOAT
 -1.798660e-04  -7.085867e-04  0 
 -2.074610e-04  -9.064312e-04  0 
 -1.081560e-04  -7.079022e-04  0 
 -3.517468e-05  -7.074667e-04  0 
 3.718676e-05  -7.075612e-04  0 
 1.102881e-04  -7.083261e-04  0 
 1.821498e-04  -7.088087e-04  0 
 -1.235228e-04  -9.056229e-04  0 
 -4.059307e-05  -9.053831e-04  0 
 4.276016e-05  -9.054623e-04  0 
 1.257405e-04  -9.061254e-04  0 
 2.094297e-04  -9.064307e-04  0 
VECTORS displacement_ITER2 FLOAT
 -1.799484e-04  -7.083840e-04  0 
 -2.067781e-04  -9.058716e-04  0 
 -1.075747e-04  -7.079650e-04  0 
 -3.516481e-05  -7.075865e-04  0 
 3.740086e-05  -7.075439e-04  0 
 1.098372e-04  -7.079237e-04  0 
 1.822275e-04  -7.083771e-04  0 
 -1.234808e-04  -9.054858e-04  0 
 -4.025432e-05  -9.052404e-04  0 
 4.256559e-05  -9.052207e-04  0 
 1.256841e-04  -9.054784e-04  0 
 2.090068e-04  -9.058540e-04  0 
VECTORS displacement_ITER3 FLOAT
 -1.800345e-04  -7.084381e-04  0 
 -2.067472e-04  -9.059022e-04  0 
 -1.075290e-04  -7.079018e-04  0 
 -3.508090e-05  -7.075700e-04  0 
 3.730649e-05  -7.075742e-04  0 
 1.097665e-04  -7.079097e-04  0 
 1.822761e-04  -7.084389e-04  0 
 -1.234955e-04  -9.054542e-04  0 
 -4.039747e-05  -9.052673e-04  0 
 4.264502e-05  -9.052730e-04  0 
 1.257221e-04  -9.054658e-04  0 
 2.089664e-04  -9.059010e-04  0 
VECTORS displacement_ITER4 FLOAT
 -1.800394e-04  -7.084447e-04  0 
 -2.067407e-04  -9.059118e-04  0 
 -1.075228e-04  -7.079018e-04  0 
 -3.507425e-05  -7.075725e-04  0 
 3.730949e-05  -7.075746e-04  0 
 1.097608e-04  -7.079028e-04  0 
 1.822744e-04  -7.084436e-04  0 
 -1.234941e-04  -9.054525e-04  0 
 -4.040548e-05  -9.052725e-04  0 
 4.264406e-05  -9.052736e-04  0 
 1.257302e-04  -9.054560e-04  0 
 2.089719e-04  -9.059114e-04  0 
VECTORS displacement_ITER5 FLOAT
 -1.800418e-04  -7.084489e-04  0 
 -2.067389e-04  -9.059153e-04  0 
 -1.075233e-04  -7.079101e-04  0 
 -3.507912e-05  -7.075786e-04  0 
 3.731668e-05  -7.075775e-04  0 
 1.097585e-04  -7.079075e-04  0 
 1.822745e-04  -7.084463e-04  0 
 -1.234959e-04  -9.054606e-04  0 
 -4.040257e-05  -9.052792e-04  0 
 4.263758e-05  -9.052788e-04  0 
 1.257318e-04  -9.054607e-04  0 
 2.089736e-04  -9.059156e-04  0 
VECTORS displacement_ITER6 FLOAT
 -1.800422e-04  -7.084490e-04  0 
 -2.067384e-04  -9.059159e-04  0 
 -1.075238e-04  -7.079106e-04  0 
 -3.507923e-05  -7.075788e-04  0 
 3.731637e-05  -7.075776e-04  0 
 1.097584e-04  -7.079078e-04  0 
 1.822746e-04  -7.084462e-04  0 
 -1.234967e-04  -9.054614e-04  0 
 -4.040369e-05  -9.052790e-04  0 
 4.263797e-05  -9.052786e-04  0 
 1.257317e-04  -9.054609e-04  0 
 2.089735e-04  -9.059155e-04  0 
VECTORS displacement_ITER7 FLOAT
 -1.800419e-04  -7.084486e-04  0 
 -2.067384e-04  -9.059156e-04  0 
 -1.075238e-04  -7.079100e-04  0 
 -3.507906e-05  -7.075782e-04  0 
 3.731590e-05  -7.075773e-04  0 
 1.097586e-04  -7.079076e-04  0 
 1.822744e-04  -7.084460e-04  0 
 -1.234969e-04  -9.054608e-04  0 
 -4.040391e-05  -9.052782e-04  0 
 4.263838e-05  -9.052780e-04  0 
 1.257316e-04  -9.054605e-04  0 
 2.089734e-04  -9.059152e-04  0 
VECTORS displacement_ITER8 FLOAT
 -1.800418e-04  -7.084486e-04  0 
 -2.067383e-04  -9.059156e-04  0 
 -1.075238e-04  -7.079099e-04  0 
 -3.507912e-05  -7.075782e-04  0 
 3.731592e-05  -7.075772e-04  0 
 1.097587e-04  -7.079075e-04  0 
 1.822744e-04  -7.084459e-04  0 
 -1.234969e-04  -9.054607e-04  0 
 -4.040381e-05  -9.052781e-04  0 
 4.263836e-05  -9.052779e-04  0 
 1.257316e-04  -9.054604e-04  0 
 2.089734e-04  -9.059151e-04  0 
VECTORS displacement_ITER9 FLOAT
 -1.800419e-04  -7.084486e-04  0 
 -2.067383e-04  -9.059156e-04  0 
 -1.075238e-04  -7.079099e-04  0 
 -3.507910e-05  -7.075782e-04  0 
 3.731595e-05  -7.075773e-04  0 
 1.097587e-04  -7.079075e-04  0 
 1.822744e-04  -7.084459e-04  0 
 -1.234969e-04  -9.054608e-04  0 
 -4.040382e-05  -9.052781e-04  0 
 4.263835e-05  -9.052780e-04  0 
 1.257316e-04  -9.054604e-04  0 
 2.089734e-04  -9.059151e-04  0 
VECTORS displacement_ITER10 FLOAT
 -1.800419e-04  -7.084486e-04  0 
 -2.067383e-04  -9.059156e-04  0 
 -1.075238e-04  -7.079099e-04  0 
 -3.507910e-05  -7.075782e-04  0 
 3.731594e-05  -7.075773e-04  0 
 1.097587e-04  -7.079075e-04  0 
 1.822744e-04  -7.084459e-04  0 
 -1.234969e-04  -9.054608e-04  0 
 -4.040383e-05  -9.052781e-04  0 
 4.263835e-05  -9.052780e-04  0 
 1.257316e-04  -9.054604e-04  0 
 2.089734e-04  -9.059151e-04  0 
CELL_DATA 5
TENSORS element_stresses FLOAT
 -4.607078e-03  -4.322423e-04  0 
 -4.322423e-04  -1.133749e-03  0 
 0  0  0 

 -2.298024e-03  -4.927986e-04  0 
 -4.927986e-04  -5.608129e-04  0 
 0  0  0 

 -1.654018e-07  -5.236571e-04  0 
 -5.236571e-04  2.197733e-07  0 
 0  0  0 

 2.297893e-03  -4.933543e-04  0 
 -4.933543e-04  5.611995e-04  0 
 0  0  0 

 4.607375e-03  -4.329477e-04  0 
 -4.329477e-04  1.133926e-03  0 
 0  0  0 

TENSORS element_stresses FLOAT
 -4.607078e-03  -4.322423e-04  0 
 -4.322423e-04  -1.133749e-03  0 
 0  0  0 

 -2.298024e-03  -4.927986e-04  0 
 -4.927986e-04  -5.608129e-04  0 
 0  0  0 

 -1.654018e-07  -5.236571e-04  0 
 -5.236571e-04  2.197733e-07  0 
 0  0  0 

 2.297893e-03  -4.933543e-04  0 
 -4.933543e-04  5.611995e-04  0 
 0  0  0 

 4.607375e-03  -4.329477e-04  0 
 -4.329477e-04  1.133926e-03  0 
 0  0  0 

