# vtk DataFile Version 3.1
this is an vtk file created by FEMAC
ASCII
DATASET UNSTRUCTURED_GRID
POINTS 12 FLOAT
5.500000 0.000000 0.000000
6.000000 0.000000 0.000000
5.500000 0.200000 0.000000
5.500000 0.400000 0.000000
5.500000 0.600000 0.000000
5.500000 0.800000 0.000000
5.500000 1.000000 0.000000
6.000000 0.200000 0.000000
6.000000 0.400000 0.000000
6.000000 0.600000 0.000000
6.000000 0.800000 0.000000
6.000000 1.000000 0.000000
CELLS 5 25 
4 0 1 7 2
4 2 7 8 3
4 3 8 9 4
4 4  9 10  5
4 5 10 11  6
CELL_TYPES 5
9 9 9 9 9 
POINT_DATA 12
VECTORS displacement_ITER1 FLOAT
 -2.367766e-04  -1.800684e-03  0 
 -2.374785e-04  -2.038973e-03  0 
 -1.416169e-04  -1.800537e-03  0 
 -4.648311e-05  -1.800497e-03  0 
 4.858491e-05  -1.800496e-03  0 
 1.437247e-04  -1.800527e-03  0 
 2.388844e-04  -1.800699e-03  0 
 -1.420048e-04  -2.038884e-03  0 
 -4.664324e-05  -2.038820e-03  0 
 4.874737e-05  -2.038817e-03  0 
 1.441116e-04  -2.038892e-03  0 
 2.395754e-04  -2.038947e-03  0 
VECTORS displacement_ITER2 FLOAT
 -2.362131e-04  -1.798393e-03  0 
 -2.368833e-04  -2.036177e-03  0 
 -1.412291e-04  -1.798250e-03  0 
 -4.631499e-05  -1.798204e-03  0 
 4.857169e-05  -1.798204e-03  0 
 1.434804e-04  -1.798248e-03  0 
 2.384711e-04  -1.798394e-03  0 
 -1.416481e-04  -2.036090e-03  0 
 -4.645990e-05  -2.036025e-03  0 
 4.871386e-05  -2.036026e-03  0 
 1.439056e-04  -2.036092e-03  0 
 2.391387e-04  -2.036181e-03  0 
VECTORS displacement_ITER3 FLOAT
 -2.361847e-04  -1.798313e-03  0 
 -2.368474e-04  -2.036053e-03  0 
 -1.412124e-04  -1.798170e-03  0 
 -4.631738e-05  -1.798124e-03  0 
 4.855082e-05  -1.798123e-03  0 
 1.434423e-04  -1.798170e-03  0 
 2.384149e-04  -1.798314e-03  0 
 -1.416371e-04  -2.035969e-03  0 
 -4.646280e-05  -2.035899e-03  0 
 4.869264e-05  -2.035899e-03  0 
 1.438700e-04  -2.035969e-03  0 
 2.390804e-04  -2.036055e-03  0 
VECTORS displacement_ITER4 FLOAT
 -2.361731e-04  -1.798318e-03  0 
 -2.368378e-04  -2.036048e-03  0 
 -1.412051e-04  -1.798174e-03  0 
 -4.631459e-05  -1.798126e-03  0 
 4.854940e-05  -1.798126e-03  0 
 1.434391e-04  -1.798174e-03  0 
 2.384075e-04  -1.798318e-03  0 
 -1.416306e-04  -2.035963e-03  0 
 -4.645855e-05  -2.035894e-03  0 
 4.869256e-05  -2.035894e-03  0 
 1.438655e-04  -2.035963e-03  0 
 2.390727e-04  -2.036049e-03  0 
VECTORS displacement_ITER5 FLOAT
 -2.361699e-04  -1.798317e-03  0 
 -2.368356e-04  -2.036045e-03  0 
 -1.412034e-04  -1.798172e-03  0 
 -4.631377e-05  -1.798124e-03  0 
 4.854886e-05  -1.798124e-03  0 
 1.434384e-04  -1.798172e-03  0 
 2.384050e-04  -1.798317e-03  0 
 -1.416288e-04  -2.035959e-03  0 
 -4.645744e-05  -2.035890e-03  0 
 4.869247e-05  -2.035890e-03  0 
 1.438639e-04  -2.035959e-03  0 
 2.390706e-04  -2.036044e-03  0 
VECTORS displacement_ITER6 FLOAT
 -2.361698e-04  -1.798317e-03  0 
 -2.368354e-04  -2.036045e-03  0 
 -1.412034e-04  -1.798173e-03  0 
 -4.631403e-05  -1.798125e-03  0 
 4.854862e-05  -1.798125e-03  0 
 1.434379e-04  -1.798173e-03  0 
 2.384044e-04  -1.798317e-03  0 
 -1.416288e-04  -2.035959e-03  0 
 -4.645759e-05  -2.035890e-03  0 
 4.869219e-05  -2.035890e-03  0 
 1.438634e-04  -2.035959e-03  0 
 2.390700e-04  -2.036045e-03  0 
VECTORS displacement_ITER7 FLOAT
 -2.361701e-04  -1.798317e-03  0 
 -2.368357e-04  -2.036045e-03  0 
 -1.412035e-04  -1.798173e-03  0 
 -4.631406e-05  -1.798124e-03  0 
 4.854877e-05  -1.798124e-03  0 
 1.434382e-04  -1.798173e-03  0 
 2.384048e-04  -1.798317e-03  0 
 -1.416290e-04  -2.035959e-03  0 
 -4.645757e-05  -2.035890e-03  0 
 4.869228e-05  -2.035890e-03  0 
 1.438637e-04  -2.035959e-03  0 
 2.390704e-04  -2.036045e-03  0 
VECTORS displacement_ITER8 FLOAT
 -2.361701e-04  -1.798317e-03  0 
 -2.368357e-04  -2.036045e-03  0 
 -1.412035e-04  -1.798173e-03  0 
 -4.631407e-05  -1.798124e-03  0 
 4.854877e-05  -1.798124e-03  0 
 1.434382e-04  -1.798173e-03  0 
 2.384048e-04  -1.798317e-03  0 
 -1.416290e-04  -2.035959e-03  0 
 -4.645757e-05  -2.035890e-03  0 
 4.869228e-05  -2.035890e-03  0 
 1.438637e-04  -2.035959e-03  0 
 2.390705e-04  -2.036045e-03  0 
VECTORS displacement_ITER9 FLOAT
 -2.361701e-04  -1.798317e-03  0 
 -2.368357e-04  -2.036045e-03  0 
 -1.412035e-04  -1.798173e-03  0 
 -4.631405e-05  -1.798124e-03  0 
 4.854878e-05  -1.798124e-03  0 
 1.434382e-04  -1.798173e-03  0 
 2.384048e-04  -1.798317e-03  0 
 -1.416290e-04  -2.035959e-03  0 
 -4.645757e-05  -2.035890e-03  0 
 4.869229e-05  -2.035890e-03  0 
 1.438637e-04  -2.035959e-03  0 
 2.390704e-04  -2.036045e-03  0 
VECTORS displacement_ITER10 FLOAT
 -2.361701e-04  -1.798317e-03  0 
 -2.368357e-04  -2.036045e-03  0 
 -1.412035e-04  -1.798173e-03  0 
 -4.631405e-05  -1.798124e-03  0 
 4.854877e-05  -1.798124e-03  0 
 1.434382e-04  -1.798173e-03  0 
 2.384048e-04  -1.798317e-03  0 
 -1.416290e-04  -2.035959e-03  0 
 -4.645757e-05  -2.035890e-03  0 
 4.869229e-05  -2.035890e-03  0 
 1.438637e-04  -2.035959e-03  0 
 2.390704e-04  -2.036045e-03  0 
CELL_DATA 5
TENSORS element_stresses FLOAT
 -1.009661e-03  -6.234870e-05  0 
 -6.234870e-05  2.714472e-04  0 
 0  0  0 

 -5.285580e-04  -3.078136e-04  0 
 -3.078136e-04  1.348068e-04  0 
 0  0  0 

 9.501360e-10  -3.846760e-04  0 
 -3.846760e-04  1.147217e-09  0 
 0  0  0 

 5.285589e-04  -3.078140e-04  0 
 -3.078140e-04  -1.348042e-04  0 
 0  0  0 

 1.009659e-03  -6.234776e-05  0 
 -6.234776e-05  -2.714468e-04  0 
 0  0  0 

TENSORS element_stresses FLOAT
 -1.009661e-03  -6.234870e-05  0 
 -6.234870e-05  2.714472e-04  0 
 0  0  0 

 -5.285580e-04  -3.078136e-04  0 
 -3.078136e-04  1.348068e-04  0 
 0  0  0 

 9.501360e-10  -3.846760e-04  0 
 -3.846760e-04  1.147217e-09  0 
 0  0  0 

 5.285589e-04  -3.078140e-04  0 
 -3.078140e-04  -1.348042e-04  0 
 0  0  0 

 1.009659e-03  -6.234776e-05  0 
 -6.234776e-05  -2.714468e-04  0 
 0  0  0 

