# vtk DataFile Version 3.1
this is an vtk file created by FEMAC
ASCII
DATASET UNSTRUCTURED_GRID
POINTS 12 FLOAT
1.000000 0.000000 0.000000
1.500000 0.000000 0.000000
1.000000 0.200000 0.000000
1.000000 0.400000 0.000000
1.000000 0.600000 0.000000
1.000000 0.800000 0.000000
1.000000 1.000000 0.000000
1.500000 0.200000 0.000000
1.500000 0.400000 0.000000
1.500000 0.600000 0.000000
1.500000 0.800000 0.000000
1.500000 1.000000 0.000000
CELLS 5 25 
4 0 1 7 2
4 2 7 8 3
4 3 8 9 4
4 4  9 10  5
4 5 10 11  6
CELL_TYPES 5
9 9 9 9 9 
POINT_DATA 12
VECTORS displacement_ITER1 FLOAT
 -7.845553e-05  -1.203391e-04  0 
 -1.323570e-04  -2.311312e-04  0 
 -4.614537e-05  -1.198922e-04  0 
 -1.530451e-05  -1.186748e-04  0 
 1.742730e-05  -1.186156e-04  0 
 4.873731e-05  -1.189672e-04  0 
 8.047537e-05  -1.204069e-04  0 
 -7.846965e-05  -2.302376e-04  0 
 -2.541815e-05  -2.295127e-04  0 
 2.747840e-05  -2.295469e-04  0 
 8.102115e-05  -2.302914e-04  0 
 1.343894e-04  -2.308056e-04  0 
VECTORS displacement_ITER2 FLOAT
 -7.851884e-05  -1.207016e-04  0 
 -1.321469e-04  -2.311181e-04  0 
 -4.648367e-05  -1.196192e-04  0 
 -1.456790e-05  -1.189624e-04  0 
 1.718943e-05  -1.187702e-04  0 
 4.869337e-05  -1.192522e-04  0 
 8.046554e-05  -1.202805e-04  0 
 -7.858242e-05  -2.302506e-04  0 
 -2.558793e-05  -2.298186e-04  0 
 2.767933e-05  -2.297624e-04  0 
 8.094745e-05  -2.301333e-04  0 
 1.344880e-04  -2.310657e-04  0 
VECTORS displacement_ITER3 FLOAT
 -7.851470e-05  -1.207213e-04  0 
 -1.321490e-04  -2.311400e-04  0 
 -4.647771e-05  -1.196221e-04  0 
 -1.455193e-05  -1.189102e-04  0 
 1.712539e-05  -1.187473e-04  0 
 4.869994e-05  -1.191766e-04  0 
 8.048056e-05  -1.202949e-04  0 
 -7.870389e-05  -2.301856e-04  0 
 -2.551212e-05  -2.297612e-04  0 
 2.769222e-05  -2.297363e-04  0 
 8.095495e-05  -2.301263e-04  0 
 1.344594e-04  -2.310537e-04  0 
VECTORS displacement_ITER4 FLOAT
 -7.851012e-05  -1.207220e-04  0 
 -1.321587e-04  -2.311362e-04  0 
 -4.647550e-05  -1.196301e-04  0 
 -1.456990e-05  -1.189123e-04  0 
 1.713329e-05  -1.187422e-04  0 
 4.869877e-05  -1.191842e-04  0 
 8.048293e-05  -1.202903e-04  0 
 -7.871279e-05  -2.301862e-04  0 
 -2.548714e-05  -2.297619e-04  0 
 2.768594e-05  -2.297404e-04  0 
 8.095047e-05  -2.301316e-04  0 
 1.344550e-04  -2.310654e-04  0 
VECTORS displacement_ITER5 FLOAT
 -7.850850e-05  -1.207230e-04  0 
 -1.321619e-04  -2.311356e-04  0 
 -4.647651e-05  -1.196309e-04  0 
 -1.456968e-05  -1.189136e-04  0 
 1.712791e-05  -1.187444e-04  0 
 4.870319e-05  -1.191849e-04  0 
 8.048324e-05  -1.202933e-04  0 
 -7.871321e-05  -2.301883e-04  0 
 -2.548287e-05  -2.297645e-04  0 
 2.768519e-05  -2.297422e-04  0 
 8.094945e-05  -2.301344e-04  0 
 1.344555e-04  -2.310669e-04  0 
VECTORS displacement_ITER6 FLOAT
 -7.850860e-05  -1.207232e-04  0 
 -1.321617e-04  -2.311356e-04  0 
 -4.647662e-05  -1.196311e-04  0 
 -1.456869e-05  -1.189137e-04  0 
 1.712681e-05  -1.187444e-04  0 
 4.870347e-05  -1.191856e-04  0 
 8.048340e-05  -1.202928e-04  0 
 -7.871313e-05  -2.301891e-04  0 
 -2.548281e-05  -2.297649e-04  0 
 2.768508e-05  -2.297420e-04  0 
 8.094929e-05  -2.301342e-04  0 
 1.344552e-04  -2.310668e-04  0 
VECTORS displacement_ITER7 FLOAT
 -7.850865e-05  -1.207232e-04  0 
 -1.321616e-04  -2.311355e-04  0 
 -4.647658e-05  -1.196311e-04  0 
 -1.456852e-05  -1.189136e-04  0 
 1.712663e-05  -1.187443e-04  0 
 4.870346e-05  -1.191857e-04  0 
 8.048345e-05  -1.202927e-04  0 
 -7.871312e-05  -2.301892e-04  0 
 -2.548287e-05  -2.297649e-04  0 
 2.768499e-05  -2.297419e-04  0 
 8.094939e-05  -2.301341e-04  0 
 1.344551e-04  -2.310667e-04  0 
VECTORS displacement_ITER8 FLOAT
 -7.850864e-05  -1.207232e-04  0 
 -1.321615e-04  -2.311355e-04  0 
 -4.647658e-05  -1.196311e-04  0 
 -1.456852e-05  -1.189136e-04  0 
 1.712661e-05  -1.187443e-04  0 
 4.870350e-05  -1.191857e-04  0 
 8.048344e-05  -1.202928e-04  0 
 -7.871311e-05  -2.301891e-04  0 
 -2.548292e-05  -2.297648e-04  0 
 2.768495e-05  -2.297419e-04  0 
 8.094948e-05  -2.301341e-04  0 
 1.344551e-04  -2.310667e-04  0 
VECTORS displacement_ITER9 FLOAT
 -7.850864e-05  -1.207231e-04  0 
 -1.321615e-04  -2.311355e-04  0 
 -4.647659e-05  -1.196311e-04  0 
 -1.456853e-05  -1.189136e-04  0 
 1.712664e-05  -1.187443e-04  0 
 4.870350e-05  -1.191857e-04  0 
 8.048343e-05  -1.202928e-04  0 
 -7.871310e-05  -2.301891e-04  0 
 -2.548293e-05  -2.297648e-04  0 
 2.768494e-05  -2.297419e-04  0 
 8.094951e-05  -2.301341e-04  0 
 1.344551e-04  -2.310667e-04  0 
VECTORS displacement_ITER10 FLOAT
 -7.850864e-05  -1.207231e-04  0 
 -1.321615e-04  -2.311355e-04  0 
 -4.647659e-05  -1.196311e-04  0 
 -1.456854e-05  -1.189136e-04  0 
 1.712665e-05  -1.187443e-04  0 
 4.870350e-05  -1.191857e-04  0 
 8.048343e-05  -1.202928e-04  0 
 -7.871311e-05  -2.301891e-04  0 
 -2.548293e-05  -2.297648e-04  0 
 2.768495e-05  -2.297419e-04  0 
 8.094952e-05  -2.301341e-04  0 
 1.344551e-04  -2.310667e-04  0 
CELL_DATA 5
TENSORS element_stresses FLOAT
 -9.270394e-03  -5.591701e-04  0 
 -5.591701e-04  -2.271512e-03  0 
 0  0  0 

 -4.647752e-03  -6.587439e-04  0 
 -6.587439e-04  -1.108872e-03  0 
 0  0  0 

 -2.328608e-05  -7.454722e-04  0 
 -7.454722e-04  4.107593e-05  0 
 0  0  0 

 4.635062e-03  -7.571105e-04  0 
 -7.571105e-04  1.182101e-03  0 
 0  0  0 

 9.306370e-03  -6.545033e-04  0 
 -6.545033e-04  2.282005e-03  0 
 0  0  0 

TENSORS element_stresses FLOAT
 -9.270394e-03  -5.591701e-04  0 
 -5.591701e-04  -2.271512e-03  0 
 0  0  0 

 -4.647752e-03  -6.587439e-04  0 
 -6.587439e-04  -1.108872e-03  0 
 0  0  0 

 -2.328608e-05  -7.454722e-04  0 
 -7.454722e-04  4.107593e-05  0 
 0  0  0 

 4.635062e-03  -7.571105e-04  0 
 -7.571105e-04  1.182101e-03  0 
 0  0  0 

 9.306370e-03  -6.545033e-04  0 
 -6.545033e-04  2.282005e-03  0 
 0  0  0 

