# vtk DataFile Version 3.1
this is an vtk file created by FEMAC
ASCII
DATASET UNSTRUCTURED_GRID
POINTS 12 FLOAT
0.000000 0.000000 0.000000
0.500000 0.000000 0.000000
0.000000 0.200000 0.000000
0.500000 0.200000 0.000000
0.000000 0.400000 0.000000
0.500000 0.400000 0.000000
0.000000 0.600000 0.000000
0.500000 0.600000 0.000000
0.000000 0.800000 0.000000
0.500000 0.800000 0.000000
0.000000 1.000000 0.000000
0.500000 1.000000 0.000000
CELLS 5 25 
4 0 1 3 2
4 2 3 5 4
4 4 5 7 6
4 6 7 9 8
4 8  9 11 10
CELL_TYPES 5
9 9 9 9 9 
POINT_DATA 12
VECTORS displacement_ITER1 FLOAT
 0  0  0 
 -6.515281e-05  -3.258284e-05  0 
 0  4.148141e-06  0 
 -4.508366e-05  -3.517972e-05  0 
 0  6.728150e-06  0 
 -1.549754e-05  -3.804189e-05  0 
 0  4.792497e-06  0 
 1.707067e-05  -3.962022e-05  0 
 0  -2.057322e-06  0 
 4.788726e-05  -4.011796e-05  0 
 0  -1.311630e-05  0 
 7.167379e-05  -3.983245e-05  0 
VECTORS displacement_ITER2 FLOAT
 0  0  0 
 -7.039145e-05  -3.954113e-05  0 
 0  3.516788e-06  0 
 -4.371821e-05  -4.083096e-05  0 
 0  4.192356e-06  0 
 -1.338594e-05  -4.115694e-05  0 
 0  1.559818e-06  0 
 1.714893e-05  -4.120473e-05  0 
 0  -4.813142e-06  0 
 4.616128e-05  -4.109015e-05  0 
 0  -1.562141e-05  0 
 6.999194e-05  -3.993653e-05  0 
VECTORS displacement_ITER3 FLOAT
 0  0  0 
 -7.147475e-05  -4.181518e-05  0 
 0  2.875781e-06  0 
 -4.267499e-05  -4.212627e-05  0 
 0  2.835411e-06  0 
 -1.292217e-05  -4.178562e-05  0 
 0  3.532115e-07  0 
 1.632794e-05  -4.207182e-05  0 
 0  -5.122695e-06  0 
 4.515743e-05  -4.287674e-05  0 
 0  -1.541423e-05  0 
 7.178278e-05  -4.251356e-05  0 
VECTORS displacement_ITER4 FLOAT
 0  0  0 
 -7.164372e-05  -4.265977e-05  0 
 0  2.527457e-06  0 
 -4.231510e-05  -4.235490e-05  0 
 0  2.355659e-06  0 
 -1.292580e-05  -4.192811e-05  0 
 0  -1.621051e-09  0 
 1.598313e-05  -4.238698e-05  0 
 0  -5.139431e-06  0 
 4.481387e-05  -4.356707e-05  0 
 0  -1.508477e-05  0 
 7.278450e-05  -4.391231e-05  0 
VECTORS displacement_ITER5 FLOAT
 0  0  0 
 -7.190581e-05  -4.342761e-05  0 
 0  2.299420e-06  0 
 -4.217777e-05  -4.263423e-05  0 
 0  2.087579e-06  0 
 -1.292142e-05  -4.215088e-05  0 
 0  -2.407326e-07  0 
 1.590646e-05  -4.258228e-05  0 
 0  -5.302437e-06  0 
 4.464809e-05  -4.374959e-05  0 
 0  -1.501911e-05  0 
 7.309056e-05  -4.453579e-05  0 
VECTORS displacement_ITER6 FLOAT
 0  0  0 
 -7.198041e-05  -4.365964e-05  0 
 0  2.232375e-06  0 
 -4.217270e-05  -4.270115e-05  0 
 0  2.050409e-06  0 
 -1.294025e-05  -4.224742e-05  0 
 0  -2.713397e-07  0 
 1.591347e-05  -4.263402e-05  0 
 0  -5.360493e-06  0 
 4.461638e-05  -4.367907e-05  0 
 0  -1.500324e-05  0 
 7.309986e-05  -4.459405e-05  0 
VECTORS displacement_ITER7 FLOAT
 0  0  0 
 -7.192380e-05  -4.368865e-05  0 
 0  2.192971e-06  0 
 -4.219510e-05  -4.263019e-05  0 
 0  2.092798e-06  0 
 -1.300408e-05  -4.228397e-05  0 
 0  -1.991369e-07  0 
 1.589696e-05  -4.264531e-05  0 
 0  -5.323908e-06  0 
 4.460572e-05  -4.353224e-05  0 
 0  -1.490577e-05  0 
 7.314377e-05  -4.455216e-05  0 
VECTORS displacement_ITER8 FLOAT
 0  0  0 
 -7.184857e-05  -4.365586e-05  0 
 0  2.176394e-06  0 
 -4.221384e-05  -4.255282e-05  0 
 0  2.138307e-06  0 
 -1.305660e-05  -4.228342e-05  0 
 0  -1.240691e-07  0 
 1.586637e-05  -4.263278e-05  0 
 0  -5.260631e-06  0 
 4.459826e-05  -4.342406e-05  0 
 0  -1.480660e-05  0 
 7.320116e-05  -4.450391e-05  0 
VECTORS displacement_ITER9 FLOAT
 0  0  0 
 -7.183481e-05  -4.367391e-05  0 
 0  2.173481e-06  0 
 -4.222507e-05  -4.255144e-05  0 
 0  2.153665e-06  0 
 -1.307217e-05  -4.228535e-05  0 
 0  -9.673201e-08  0 
 1.584771e-05  -4.261289e-05  0 
 0  -5.230736e-06  0 
 4.459056e-05  -4.336608e-05  0 
 0  -1.476490e-05  0 
 7.321418e-05  -4.445760e-05  0 
VECTORS displacement_ITER10 FLOAT
 0  0  0 
 -7.184985e-05  -4.372793e-05  0 
 0  2.176189e-06  0 
 -4.223819e-05  -4.258990e-05  0 
 0  2.159355e-06  0 
 -1.307546e-05  -4.229017e-05  0 
 0  -8.513751e-08  0 
 1.583326e-05  -4.258196e-05  0 
 0  -5.211780e-06  0 
 4.458283e-05  -4.331118e-05  0 
 0  -1.474148e-05  0 
 7.320316e-05  -4.439738e-05  0 
VECTORS displacement_ITER11 FLOAT
 0  0  0 
 -7.184743e-05  -4.374798e-05  0 
 0  2.183103e-06  0 
 -4.224948e-05  -4.260901e-05  0 
 0  2.168116e-06  0 
 -1.308229e-05  -4.227903e-05  0 
 0  -6.983726e-08  0 
 1.581877e-05  -4.254825e-05  0 
 0  -5.185743e-06  0 
 4.458082e-05  -4.327574e-05  0 
 0  -1.471454e-05  0 
 7.320536e-05  -4.435820e-05  0 
VECTORS displacement_ITER12 FLOAT
 0  0  0 
 -7.181219e-05  -4.371931e-05  0 
 0  2.191711e-06  0 
 -4.225818e-05  -4.259133e-05  0 
 0  2.184689e-06  0 
 -1.310000e-05  -4.224815e-05  0 
 0  -4.127148e-08  0 
 1.579819e-05  -4.251324e-05  0 
 0  -5.142220e-06  0 
 4.458333e-05  -4.325645e-05  0 
 0  -1.467031e-05  0 
 7.323655e-05  -4.434372e-05  0 
VECTORS displacement_ITER13 FLOAT
 0  0  0 
 -7.180047e-05  -4.371581e-05  0 
 0  2.193278e-06  0 
 -4.226131e-05  -4.258733e-05  0 
 0  2.189534e-06  0 
 -1.310935e-05  -4.223665e-05  0 
 0  -3.067393e-08  0 
 1.579049e-05  -4.250001e-05  0 
 0  -5.126175e-06  0 
 4.458497e-05  -4.324847e-05  0 
 0  -1.465499e-05  0 
 7.324672e-05  -4.433530e-05  0 
VECTORS displacement_ITER14 FLOAT
 0  0  0 
 -7.180878e-05  -4.373495e-05  0 
 0  2.192057e-06  0 
 -4.226329e-05  -4.259933e-05  0 
 0  2.187989e-06  0 
 -1.311192e-05  -4.223963e-05  0 
 0  -3.191084e-08  0 
 1.579291e-05  -4.249654e-05  0 
 0  -5.128805e-06  0 
 4.458578e-05  -4.324034e-05  0 
 0  -1.465931e-05  0 
 7.323622e-05  -4.432153e-05  0 
VECTORS displacement_ITER15 FLOAT
 0  0  0 
 -7.180404e-05  -4.373020e-05  0 
 0  2.192835e-06  0 
 -4.226389e-05  -4.259599e-05  0 
 0  2.190765e-06  0 
 -1.311632e-05  -4.223639e-05  0 
 0  -2.801081e-08  0 
 1.579296e-05  -4.249254e-05  0 
 0  -5.124175e-06  0 
 4.458615e-05  -4.323755e-05  0 
 0  -1.465473e-05  0 
 7.323880e-05  -4.431887e-05  0 
VECTORS displacement_ITER16 FLOAT
 0  0  0 
 -7.180364e-05  -4.372957e-05  0 
 0  2.193480e-06  0 
 -4.226340e-05  -4.259683e-05  0 
 0  2.190900e-06  0 
 -1.311696e-05  -4.223527e-05  0 
 0  -2.750252e-08  0 
 1.579220e-05  -4.249088e-05  0 
 0  -5.122362e-06  0 
 4.458550e-05  -4.323762e-05  0 
 0  -1.465330e-05  0 
 7.324009e-05  -4.431779e-05  0 
VECTORS displacement_ITER17 FLOAT
 0  0  0 
 -7.180419e-05  -4.373007e-05  0 
 0  2.193698e-06  0 
 -4.226343e-05  -4.259765e-05  0 
 0  2.190835e-06  0 
 -1.311672e-05  -4.223536e-05  0 
 0  -2.746368e-08  0 
 1.579195e-05  -4.249078e-05  0 
 0  -5.122307e-06  0 
 4.458555e-05  -4.323710e-05  0 
 0  -1.465392e-05  0 
 7.323900e-05  -4.431551e-05  0 
VECTORS displacement_ITER18 FLOAT
 0  0  0 
 -7.180363e-05  -4.372940e-05  0 
 0  2.193625e-06  0 
 -4.226333e-05  -4.259699e-05  0 
 0  2.191000e-06  0 
 -1.311686e-05  -4.223530e-05  0 
 0  -2.704021e-08  0 
 1.579145e-05  -4.249097e-05  0 
 0  -5.121816e-06  0 
 4.458547e-05  -4.323688e-05  0 
 0  -1.465343e-05  0 
 7.323955e-05  -4.431516e-05  0 
VECTORS displacement_ITER19 FLOAT
 0  0  0 
 -7.180367e-05  -4.372950e-05  0 
 0  2.193574e-06  0 
 -4.226333e-05  -4.259698e-05  0 
 0  2.191044e-06  0 
 -1.311687e-05  -4.223549e-05  0 
 0  -2.696268e-08  0 
 1.579144e-05  -4.249110e-05  0 
 0  -5.121827e-06  0 
 4.458538e-05  -4.323659e-05  0 
 0  -1.465343e-05  0 
 7.323944e-05  -4.431474e-05  0 
VECTORS displacement_ITER20 FLOAT
 0  0  0 
 -7.180377e-05  -4.372962e-05  0 
 0  2.193597e-06  0 
 -4.226329e-05  -4.259715e-05  0 
 0  2.190999e-06  0 
 -1.311682e-05  -4.223551e-05  0 
 0  -2.699633e-08  0 
 1.579139e-05  -4.249107e-05  0 
 0  -5.121779e-06  0 
 4.458526e-05  -4.323658e-05  0 
 0  -1.465337e-05  0 
 7.323950e-05  -4.431466e-05  0 
VECTORS displacement_ITER21 FLOAT
 0  0  0 
 -7.180370e-05  -4.372955e-05  0 
 0  2.193606e-06  0 
 -4.226327e-05  -4.259710e-05  0 
 0  2.191009e-06  0 
 -1.311684e-05  -4.223546e-05  0 
 0  -2.695558e-08  0 
 1.579132e-05  -4.249104e-05  0 
 0  -5.121686e-06  0 
 4.458523e-05  -4.323659e-05  0 
 0  -1.465326e-05  0 
 7.323963e-05  -4.431471e-05  0 
VECTORS displacement_ITER22 FLOAT
 0  0  0 
 -7.180372e-05  -4.372960e-05  0 
 0  2.193587e-06  0 
 -4.226328e-05  -4.259711e-05  0 
 0  2.191012e-06  0 
 -1.311685e-05  -4.223550e-05  0 
 0  -2.695240e-08  0 
 1.579134e-05  -4.249107e-05  0 
 0  -5.121718e-06  0 
 4.458524e-05  -4.323653e-05  0 
 0  -1.465328e-05  0 
 7.323958e-05  -4.431466e-05  0 
VECTORS displacement_ITER23 FLOAT
 0  0  0 
 -7.180371e-05  -4.372958e-05  0 
 0  2.193587e-06  0 
 -4.226328e-05  -4.259709e-05  0 
 0  2.191024e-06  0 
 -1.311686e-05  -4.223550e-05  0 
 0  -2.693984e-08  0 
 1.579134e-05  -4.249106e-05  0 
 0  -5.121713e-06  0 
 4.458525e-05  -4.323651e-05  0 
 0  -1.465327e-05  0 
 7.323958e-05  -4.431465e-05  0 
VECTORS displacement_ITER24 FLOAT
 0  0  0 
 -7.180370e-05  -4.372957e-05  0 
 0  2.193591e-06  0 
 -4.226328e-05  -4.259709e-05  0 
 0  2.191027e-06  0 
 -1.311686e-05  -4.223550e-05  0 
 0  -2.693667e-08  0 
 1.579133e-05  -4.249105e-05  0 
 0  -5.121703e-06  0 
 4.458524e-05  -4.323652e-05  0 
 0  -1.465326e-05  0 
 7.323959e-05  -4.431466e-05  0 
VECTORS displacement_ITER25 FLOAT
 0  0  0 
 -7.180370e-05  -4.372957e-05  0 
 0  2.193591e-06  0 
 -4.226328e-05  -4.259709e-05  0 
 0  2.191026e-06  0 
 -1.311686e-05  -4.223550e-05  0 
 0  -2.693911e-08  0 
 1.579133e-05  -4.249105e-05  0 
 0  -5.121707e-06  0 
 4.458525e-05  -4.323651e-05  0 
 0  -1.465326e-05  0 
 7.323959e-05  -4.431465e-05  0 
CELL_DATA 5
TENSORS element_stresses FLOAT
 -1.226071e-02  -1.128401e-03  0 
 -1.128401e-03  -2.846694e-03  0 
 0  0  0 

 -6.056140e-03  -1.257780e-03  0 
 -1.257780e-03  -1.727084e-03  0 
 0  0  0 

 9.003691e-05  -1.124628e-03  0 
 -1.124628e-03  -5.913688e-04  0 
 0  0  0 

 6.153452e-03  -6.610877e-04  0 
 -6.610877e-04  3.859785e-04  0 
 0  0  0 

 1.207336e-02  2.968964e-04  0 
 2.968964e-04  9.695827e-04  0 
 0  0  0 

TENSORS element_stresses FLOAT
 -1.226071e-02  -1.128401e-03  0 
 -1.128401e-03  -2.846694e-03  0 
 0  0  0 

 -6.056140e-03  -1.257780e-03  0 
 -1.257780e-03  -1.727084e-03  0 
 0  0  0 

 9.003691e-05  -1.124628e-03  0 
 -1.124628e-03  -5.913688e-04  0 
 0  0  0 

 6.153452e-03  -6.610877e-04  0 
 -6.610877e-04  3.859785e-04  0 
 0  0  0 

 1.207336e-02  2.968964e-04  0 
 2.968964e-04  9.695827e-04  0 
 0  0  0 

