# vtk DataFile Version 3.1
this is an vtk file created by FEMAC
ASCII
DATASET UNSTRUCTURED_GRID
POINTS 12 FLOAT
4.000000 0.000000 0.000000
4.500000 0.000000 0.000000
4.000000 0.200000 0.000000
4.000000 0.400000 0.000000
4.000000 0.600000 0.000000
4.000000 0.800000 0.000000
4.000000 1.000000 0.000000
4.500000 0.200000 0.000000
4.500000 0.400000 0.000000
4.500000 0.600000 0.000000
4.500000 0.800000 0.000000
4.500000 1.000000 0.000000
CELLS 5 25 
4 0 1 7 2
4 2 7 8 3
4 3 8 9 4
4 4  9 10  5
4 5 10 11  6
CELL_TYPES 5
9 9 9 9 9 
POINT_DATA 12
VECTORS displacement_ITER1 FLOAT
 -2.118971e-04  -1.118490e-03  0 
 -2.295458e-04  -1.341810e-03  0 
 -1.270612e-04  -1.116883e-03  0 
 -4.153358e-05  -1.115311e-03  0 
 4.460920e-05  -1.115312e-03  0 
 1.301368e-04  -1.116885e-03  0 
 2.149727e-04  -1.118494e-03  0 
 -1.372245e-04  -1.340921e-03  0 
 -4.486837e-05  -1.341356e-03  0 
 4.794509e-05  -1.341357e-03  0 
 1.403012e-04  -1.340923e-03  0 
 2.326225e-04  -1.341814e-03  0 
VECTORS displacement_ITER2 FLOAT
 -2.103105e-04  -1.115649e-03  0 
 -2.275376e-04  -1.338047e-03  0 
 -1.258355e-04  -1.115041e-03  0 
 -4.121665e-05  -1.114369e-03  0 
 4.352597e-05  -1.114369e-03  0 
 1.281449e-04  -1.115042e-03  0 
 2.126198e-04  -1.115649e-03  0 
 -1.357620e-04  -1.337239e-03  0 
 -4.449697e-05  -1.337262e-03  0 
 4.680636e-05  -1.337262e-03  0 
 1.380714e-04  -1.337239e-03  0 
 2.298470e-04  -1.338048e-03  0 
VECTORS displacement_ITER3 FLOAT
 -2.095577e-04  -1.115575e-03  0 
 -2.265461e-04  -1.337549e-03  0 
 -1.252049e-04  -1.115372e-03  0 
 -4.093570e-05  -1.115090e-03  0 
 4.321654e-05  -1.115090e-03  0 
 1.274858e-04  -1.115371e-03  0 
 2.118385e-04  -1.115574e-03  0 
 -1.350533e-04  -1.336853e-03  0 
 -4.420877e-05  -1.336696e-03  0 
 4.648923e-05  -1.336696e-03  0 
 1.373338e-04  -1.336852e-03  0 
 2.288265e-04  -1.337547e-03  0 
VECTORS displacement_ITER4 FLOAT
 -2.093687e-04  -1.115264e-03  0 
 -2.262045e-04  -1.336897e-03  0 
 -1.250802e-04  -1.115067e-03  0 
 -4.082961e-05  -1.114818e-03  0 
 4.326108e-05  -1.114891e-03  0 
 1.274098e-04  -1.115254e-03  0 
 2.115039e-04  -1.115491e-03  0 
 -1.349324e-04  -1.336383e-03  0 
 -4.411667e-05  -1.336270e-03  0 
 4.654110e-05  -1.336222e-03  0 
 1.372632e-04  -1.336259e-03  0 
 2.284129e-04  -1.336751e-03  0 
VECTORS displacement_ITER5 FLOAT
 -2.088703e-04  -1.115511e-03  0 
 -2.257231e-04  -1.335934e-03  0 
 -1.250819e-04  -1.115163e-03  0 
 -4.106976e-05  -1.114638e-03  0 
 4.301981e-05  -1.114431e-03  0 
 1.273429e-04  -1.114624e-03  0 
 2.116992e-04  -1.114845e-03  0 
 -1.349594e-04  -1.335640e-03  0 
 -4.436280e-05  -1.335775e-03  0 
 4.632217e-05  -1.335937e-03  0 
 1.372227e-04  -1.336064e-03  0 
 2.284133e-04  -1.336445e-03  0 
VECTORS displacement_ITER6 FLOAT
 -2.093330e-04  -1.114887e-03  0 
 -2.260684e-04  -1.336371e-03  0 
 -1.250178e-04  -1.114637e-03  0 
 -4.072619e-05  -1.114440e-03  0 
 4.333638e-05  -1.114613e-03  0 
 1.273366e-04  -1.115094e-03  0 
 2.111675e-04  -1.115460e-03  0 
 -1.349251e-04  -1.336023e-03  0 
 -4.403227e-05  -1.335871e-03  0 
 4.664508e-05  -1.335698e-03  0 
 1.372386e-04  -1.335567e-03  0 
 2.279097e-04  -1.335800e-03  0 
VECTORS displacement_ITER7 FLOAT
 -2.090377e-04  -1.115350e-03  0 
 -2.256573e-04  -1.335976e-03  0 
 -1.249904e-04  -1.115010e-03  0 
 -4.095098e-05  -1.114688e-03  0 
 4.305583e-05  -1.114629e-03  0 
 1.272368e-04  -1.114850e-03  0 
 2.114419e-04  -1.115145e-03  0 
 -1.349383e-04  -1.335747e-03  0 
 -4.427394e-05  -1.335756e-03  0 
 4.637183e-05  -1.335858e-03  0 
 1.371784e-04  -1.336016e-03  0 
 2.281966e-04  -1.336327e-03  0 
VECTORS displacement_ITER8 FLOAT
 -2.090269e-04  -1.115377e-03  0 
 -2.256889e-04  -1.336081e-03  0 
 -1.249495e-04  -1.115023e-03  0 
 -4.091652e-05  -1.114750e-03  0 
 4.306249e-05  -1.114693e-03  0 
 1.271927e-04  -1.114870e-03  0 
 2.114401e-04  -1.115175e-03  0 
 -1.349216e-04  -1.335841e-03  0 
 -4.424336e-05  -1.335772e-03  0 
 4.638831e-05  -1.335826e-03  0 
 1.371686e-04  -1.335987e-03  0 
 2.280875e-04  -1.336271e-03  0 
VECTORS displacement_ITER9 FLOAT
 -2.091176e-04  -1.115199e-03  0 
 -2.257857e-04  -1.336159e-03  0 
 -1.249331e-04  -1.114863e-03  0 
 -4.084252e-05  -1.114659e-03  0 
 4.314738e-05  -1.114678e-03  0 
 1.271918e-04  -1.114914e-03  0 
 2.113317e-04  -1.115265e-03  0 
 -1.349154e-04  -1.335889e-03  0 
 -4.416925e-05  -1.335749e-03  0 
 4.647453e-05  -1.335719e-03  0 
 1.371801e-04  -1.335809e-03  0 
 2.279558e-04  -1.336052e-03  0 
VECTORS displacement_ITER10 FLOAT
 -2.091294e-04  -1.115107e-03  0 
 -2.257798e-04  -1.336054e-03  0 
 -1.249409e-04  -1.114762e-03  0 
 -4.085686e-05  -1.114559e-03  0 
 4.316073e-05  -1.114587e-03  0 
 1.271929e-04  -1.114839e-03  0 
 2.113016e-04  -1.115211e-03  0 
 -1.349291e-04  -1.335786e-03  0 
 -4.418133e-05  -1.335661e-03  0 
 4.648601e-05  -1.335633e-03  0 
 1.371825e-04  -1.335709e-03  0 
 2.279475e-04  -1.335950e-03  0 
VECTORS displacement_ITER11 FLOAT
 -2.090877e-04  -1.115138e-03  0 
 -2.257404e-04  -1.335961e-03  0 
 -1.249554e-04  -1.114775e-03  0 
 -4.090763e-05  -1.114544e-03  0 
 4.312765e-05  -1.114536e-03  0 
 1.271926e-04  -1.114758e-03  0 
 2.113436e-04  -1.115117e-03  0 
 -1.349416e-04  -1.335703e-03  0 
 -4.422918e-05  -1.335614e-03  0 
 4.645165e-05  -1.335625e-03  0 
 1.371766e-04  -1.335728e-03  0 
 2.280043e-04  -1.335994e-03  0 
VECTORS displacement_ITER12 FLOAT
 -2.090949e-04  -1.115154e-03  0 
 -2.257627e-04  -1.336020e-03  0 
 -1.249613e-04  -1.114799e-03  0 
 -4.090724e-05  -1.114577e-03  0 
 4.313134e-05  -1.114571e-03  0 
 1.272007e-04  -1.114782e-03  0 
 2.113541e-04  -1.115130e-03  0 
 -1.349390e-04  -1.335747e-03  0 
 -4.422819e-05  -1.335649e-03  0 
 4.645531e-05  -1.335656e-03  0 
 1.371765e-04  -1.335765e-03  0 
 2.280208e-04  -1.336046e-03  0 
VECTORS displacement_ITER13 FLOAT
 -2.091199e-04  -1.115143e-03  0 
 -2.257887e-04  -1.336073e-03  0 
 -1.249680e-04  -1.114800e-03  0 
 -4.089191e-05  -1.114591e-03  0 
 4.314455e-05  -1.114599e-03  0 
 1.272101e-04  -1.114821e-03  0 
 2.113409e-04  -1.115171e-03  0 
 -1.349401e-04  -1.335791e-03  0 
 -4.421650e-05  -1.335681e-03  0 
 4.647045e-05  -1.335674e-03  0 
 1.371817e-04  -1.335775e-03  0 
 2.280134e-04  -1.336052e-03  0 
VECTORS displacement_ITER14 FLOAT
 -2.091134e-04  -1.115166e-03  0 
 -2.257846e-04  -1.336068e-03  0 
 -1.249779e-04  -1.114821e-03  0 
 -4.090138e-05  -1.114599e-03  0 
 4.313241e-05  -1.114598e-03  0 
 1.272114e-04  -1.114817e-03  0 
 2.113539e-04  -1.115161e-03  0 
 -1.349487e-04  -1.335789e-03  0 
 -4.422952e-05  -1.335687e-03  0 
 4.646081e-05  -1.335688e-03  0 
 1.371834e-04  -1.335792e-03  0 
 2.280206e-04  -1.336070e-03  0 
VECTORS displacement_ITER15 FLOAT
 -2.091170e-04  -1.115170e-03  0 
 -2.257842e-04  -1.336077e-03  0 
 -1.249763e-04  -1.114827e-03  0 
 -4.089891e-05  -1.114605e-03  0 
 4.313408e-05  -1.114605e-03  0 
 1.272112e-04  -1.114829e-03  0 
 2.113507e-04  -1.115172e-03  0 
 -1.349495e-04  -1.335799e-03  0 
 -4.422578e-05  -1.335695e-03  0 
 4.646111e-05  -1.335695e-03  0 
 1.371844e-04  -1.335798e-03  0 
 2.280185e-04  -1.336076e-03  0 
VECTORS displacement_ITER16 FLOAT
 -2.091133e-04  -1.115166e-03  0 
 -2.257823e-04  -1.336068e-03  0 
 -1.249762e-04  -1.114822e-03  0 
 -4.090110e-05  -1.114599e-03  0 
 4.313578e-05  -1.114598e-03  0 
 1.272111e-04  -1.114823e-03  0 
 2.113481e-04  -1.115166e-03  0 
 -1.349489e-04  -1.335790e-03  0 
 -4.422463e-05  -1.335687e-03  0 
 4.645929e-05  -1.335687e-03  0 
 1.371836e-04  -1.335790e-03  0 
 2.280179e-04  -1.336068e-03  0 
VECTORS displacement_ITER17 FLOAT
 -2.091142e-04  -1.115162e-03  0 
 -2.257829e-04  -1.336068e-03  0 
 -1.249746e-04  -1.114819e-03  0 
 -4.090007e-05  -1.114598e-03  0 
 4.313486e-05  -1.114598e-03  0 
 1.272092e-04  -1.114819e-03  0 
 2.113490e-04  -1.115162e-03  0 
 -1.349477e-04  -1.335789e-03  0 
 -4.422404e-05  -1.335683e-03  0 
 4.645870e-05  -1.335683e-03  0 
 1.371824e-04  -1.335789e-03  0 
 2.280174e-04  -1.336067e-03  0 
VECTORS displacement_ITER18 FLOAT
 -2.091134e-04  -1.115162e-03  0 
 -2.257818e-04  -1.336064e-03  0 
 -1.249753e-04  -1.114818e-03  0 
 -4.090011e-05  -1.114596e-03  0 
 4.313485e-05  -1.114596e-03  0 
 1.272100e-04  -1.114818e-03  0 
 2.113483e-04  -1.115162e-03  0 
 -1.349482e-04  -1.335787e-03  0 
 -4.422511e-05  -1.335683e-03  0 
 4.645980e-05  -1.335683e-03  0 
 1.371829e-04  -1.335787e-03  0 
 2.280167e-04  -1.336064e-03  0 
VECTORS displacement_ITER19 FLOAT
 -2.091137e-04  -1.115161e-03  0 
 -2.257822e-04  -1.336065e-03  0 
 -1.249752e-04  -1.114818e-03  0 
 -4.089990e-05  -1.114596e-03  0 
 4.313458e-05  -1.114596e-03  0 
 1.272099e-04  -1.114818e-03  0 
 2.113485e-04  -1.115161e-03  0 
 -1.349479e-04  -1.335787e-03  0 
 -4.422496e-05  -1.335683e-03  0 
 4.645967e-05  -1.335683e-03  0 
 1.371826e-04  -1.335787e-03  0 
 2.280170e-04  -1.336065e-03  0 
VECTORS displacement_ITER20 FLOAT
 -2.091138e-04  -1.115162e-03  0 
 -2.257822e-04  -1.336065e-03  0 
 -1.249750e-04  -1.114818e-03  0 
 -4.090011e-05  -1.114597e-03  0 
 4.313474e-05  -1.114597e-03  0 
 1.272098e-04  -1.114818e-03  0 
 2.113487e-04  -1.115162e-03  0 
 -1.349481e-04  -1.335788e-03  0 
 -4.422492e-05  -1.335683e-03  0 
 4.645965e-05  -1.335683e-03  0 
 1.371828e-04  -1.335788e-03  0 
 2.280169e-04  -1.336065e-03  0 
VECTORS displacement_ITER21 FLOAT
 -2.091138e-04  -1.115162e-03  0 
 -2.257822e-04  -1.336065e-03  0 
 -1.249750e-04  -1.114818e-03  0 
 -4.090021e-05  -1.114597e-03  0 
 4.313481e-05  -1.114597e-03  0 
 1.272098e-04  -1.114818e-03  0 
 2.113487e-04  -1.115162e-03  0 
 -1.349480e-04  -1.335788e-03  0 
 -4.422489e-05  -1.335683e-03  0 
 4.645963e-05  -1.335683e-03  0 
 1.371828e-04  -1.335788e-03  0 
 2.280170e-04  -1.336065e-03  0 
VECTORS displacement_ITER22 FLOAT
 -2.091138e-04  -1.115162e-03  0 
 -2.257823e-04  -1.336065e-03  0 
 -1.249751e-04  -1.114818e-03  0 
 -4.090017e-05  -1.114597e-03  0 
 4.313474e-05  -1.114597e-03  0 
 1.272098e-04  -1.114818e-03  0 
 2.113487e-04  -1.115162e-03  0 
 -1.349480e-04  -1.335788e-03  0 
 -4.422491e-05  -1.335683e-03  0 
 4.645964e-05  -1.335683e-03  0 
 1.371827e-04  -1.335788e-03  0 
 2.280170e-04  -1.336065e-03  0 
VECTORS displacement_ITER23 FLOAT
 -2.091138e-04  -1.115162e-03  0 
 -2.257823e-04  -1.336065e-03  0 
 -1.249751e-04  -1.114818e-03  0 
 -4.090015e-05  -1.114597e-03  0 
 4.313471e-05  -1.114597e-03  0 
 1.272098e-04  -1.114818e-03  0 
 2.113487e-04  -1.115162e-03  0 
 -1.349480e-04  -1.335788e-03  0 
 -4.422490e-05  -1.335683e-03  0 
 4.645963e-05  -1.335683e-03  0 
 1.371827e-04  -1.335788e-03  0 
 2.280170e-04  -1.336065e-03  0 
VECTORS displacement_ITER24 FLOAT
 -2.091138e-04  -1.115162e-03  0 
 -2.257823e-04  -1.336065e-03  0 
 -1.249751e-04  -1.114818e-03  0 
 -4.090015e-05  -1.114597e-03  0 
 4.313470e-05  -1.114597e-03  0 
 1.272098e-04  -1.114818e-03  0 
 2.113487e-04  -1.115162e-03  0 
 -1.349480e-04  -1.335787e-03  0 
 -4.422489e-05  -1.335683e-03  0 
 4.645962e-05  -1.335683e-03  0 
 1.371827e-04  -1.335788e-03  0 
 2.280170e-04  -1.336065e-03  0 
VECTORS displacement_ITER25 FLOAT
 -2.091138e-04  -1.115162e-03  0 
 -2.257823e-04  -1.336065e-03  0 
 -1.249751e-04  -1.114818e-03  0 
 -4.090016e-05  -1.114597e-03  0 
 4.313471e-05  -1.114597e-03  0 
 1.272098e-04  -1.114818e-03  0 
 2.113487e-04  -1.115162e-03  0 
 -1.349480e-04  -1.335787e-03  0 
 -4.422489e-05  -1.335683e-03  0 
 4.645962e-05  -1.335683e-03  0 
 1.371827e-04  -1.335788e-03  0 
 2.280170e-04  -1.336065e-03  0 
CELL_DATA 5
TENSORS element_stresses FLOAT
 -2.876417e-03  -3.415502e-04  0 
 -3.415502e-04  -7.075786e-04  0 
 0  0  0 

 -1.434419e-03  -3.892900e-04  0 
 -3.892900e-04  -3.488437e-04  0 
 0  0  0 

 1.332611e-08  -4.134185e-04  0 
 -4.134185e-04  -1.793602e-08  0 
 0  0  0 

 1.434429e-03  -3.892451e-04  0 
 -3.892451e-04  3.488129e-04  0 
 0  0  0 

 2.876393e-03  -3.414962e-04  0 
 -3.414962e-04  7.075647e-04  0 
 0  0  0 

TENSORS element_stresses FLOAT
 -2.876417e-03  -3.415502e-04  0 
 -3.415502e-04  -7.075786e-04  0 
 0  0  0 

 -1.434419e-03  -3.892900e-04  0 
 -3.892900e-04  -3.488437e-04  0 
 0  0  0 

 1.332611e-08  -4.134185e-04  0 
 -4.134185e-04  -1.793602e-08  0 
 0  0  0 

 1.434429e-03  -3.892451e-04  0 
 -3.892451e-04  3.488129e-04  0 
 0  0  0 

 2.876393e-03  -3.414962e-04  0 
 -3.414962e-04  7.075647e-04  0 
 0  0  0 

