# vtk DataFile Version 3.1
this is an vtk file created by FEMAC
ASCII
DATASET UNSTRUCTURED_GRID
POINTS 12 FLOAT
2.000000 0.000000 0.000000
2.500000 0.000000 0.000000
2.000000 0.200000 0.000000
2.000000 0.400000 0.000000
2.000000 0.600000 0.000000
2.000000 0.800000 0.000000
2.000000 1.000000 0.000000
2.500000 0.200000 0.000000
2.500000 0.400000 0.000000
2.500000 0.600000 0.000000
2.500000 0.800000 0.000000
2.500000 1.000000 0.000000
CELLS 5 25 
4 0 1 7 2
4 2 7 8 3
4 3 8 9 4
4 4  9 10  5
4 5 10 11  6
CELL_TYPES 5
9 9 9 9 9 
POINT_DATA 12
VECTORS displacement_ITER1 FLOAT
 -1.373320e-04  -3.619287e-04  0 
 -1.784230e-04  -5.233192e-04  0 
 -8.259188e-05  -3.587663e-04  0 
 -2.677485e-05  -3.562581e-04  0 
 2.984851e-05  -3.562588e-04  0 
 8.566553e-05  -3.587685e-04  0 
 1.404057e-04  -3.619323e-04  0 
 -1.064248e-04  -5.210904e-04  0 
 -3.462768e-05  -5.211190e-04  0 
 3.770243e-05  -5.211197e-04  0 
 1.094996e-04  -5.210926e-04  0 
 1.814978e-04  -5.233228e-04  0 
VECTORS displacement_ITER2 FLOAT
 -1.383040e-04  -3.631183e-04  0 
 -1.780433e-04  -5.273747e-04  0 
 -8.202252e-05  -3.619500e-04  0 
 -2.591969e-05  -3.613854e-04  0 
 2.951346e-05  -3.622874e-04  0 
 8.440088e-05  -3.641646e-04  0 
 1.384694e-04  -3.658065e-04  0 
 -1.053773e-04  -5.255332e-04  0 
 -3.379791e-05  -5.248075e-04  0 
 3.732533e-05  -5.242361e-04  0 
 1.078023e-04  -5.241104e-04  0 
 1.790187e-04  -5.257140e-04  0 
VECTORS displacement_ITER3 FLOAT
 -1.358495e-04  -3.679974e-04  0 
 -1.757464e-04  -5.271811e-04  0 
 -8.195183e-05  -3.669698e-04  0 
 -2.731625e-05  -3.654701e-04  0 
 2.774845e-05  -3.645416e-04  0 
 8.396034e-05  -3.643827e-04  0 
 1.407613e-04  -3.647540e-04  0 
 -1.050899e-04  -5.261133e-04  0 
 -3.510664e-05  -5.264732e-04  0 
 3.556724e-05  -5.273721e-04  0 
 1.071849e-04  -5.285399e-04  0 
 1.802431e-04  -5.301774e-04  0 
VECTORS displacement_ITER4 FLOAT
 -1.374919e-04  -3.663076e-04  0 
 -1.773333e-04  -5.296872e-04  0 
 -8.185785e-05  -3.657572e-04  0 
 -2.604569e-05  -3.654106e-04  0 
 2.923008e-05  -3.658412e-04  0 
 8.427602e-05  -3.668099e-04  0 
 1.389785e-04  -3.676441e-04  0 
 -1.049606e-04  -5.284838e-04  0 
 -3.371055e-05  -5.278259e-04  0 
 3.698159e-05  -5.273018e-04  0 
 1.074197e-04  -5.271195e-04  0 
 1.782341e-04  -5.279100e-04  0 
VECTORS displacement_ITER5 FLOAT
 -1.372919e-04  -3.668610e-04  0 
 -1.767266e-04  -5.289667e-04  0 
 -8.196681e-05  -3.661836e-04  0 
 -2.642726e-05  -3.657137e-04  0 
 2.904693e-05  -3.659386e-04  0 
 8.433641e-05  -3.667570e-04  0 
 1.391606e-04  -3.675987e-04  0 
 -1.051176e-04  -5.281659e-04  0 
 -3.401467e-05  -5.278913e-04  0 
 3.672762e-05  -5.277370e-04  0 
 1.074651e-04  -5.277278e-04  0 
 1.785721e-04  -5.283880e-04  0 
VECTORS displacement_ITER6 FLOAT
 -1.370866e-04  -3.672939e-04  0 
 -1.764035e-04  -5.286229e-04  0 
 -8.197326e-05  -3.665167e-04  0 
 -2.668013e-05  -3.659551e-04  0 
 2.878658e-05  -3.659411e-04  0 
 8.425719e-05  -3.664835e-04  0 
 1.395207e-04  -3.672277e-04  0 
 -1.051996e-04  -5.279779e-04  0 
 -3.426759e-05  -5.278417e-04  0 
 3.647514e-05  -5.279219e-04  0 
 1.074534e-04  -5.281527e-04  0 
 1.788198e-04  -5.288546e-04  0 
VECTORS displacement_ITER7 FLOAT
 -1.371836e-04  -3.673747e-04  0 
 -1.763591e-04  -5.287709e-04  0 
 -8.188701e-05  -3.665982e-04  0 
 -2.666773e-05  -3.661543e-04  0 
 2.868931e-05  -3.660974e-04  0 
 8.414048e-05  -3.664703e-04  0 
 1.397131e-04  -3.671658e-04  0 
 -1.052366e-04  -5.281450e-04  0 
 -3.431605e-05  -5.279074e-04  0 
 3.643590e-05  -5.280030e-04  0 
 1.074728e-04  -5.283668e-04  0 
 1.787980e-04  -5.290750e-04  0 
VECTORS displacement_ITER8 FLOAT
 -1.373527e-04  -3.672898e-04  0 
 -1.764075e-04  -5.289722e-04  0 
 -8.182602e-05  -3.665430e-04  0 
 -2.655689e-05  -3.661982e-04  0 
 2.871862e-05  -3.662102e-04  0 
 8.408963e-05  -3.665996e-04  0 
 1.397002e-04  -3.673278e-04  0 
 -1.052546e-04  -5.283224e-04  0 
 -3.428088e-05  -5.279947e-04  0 
 3.652828e-05  -5.280202e-04  0 
 1.075133e-04  -5.283715e-04  0 
 1.786749e-04  -5.290430e-04  0 
VECTORS displacement_ITER9 FLOAT
 -1.373850e-04  -3.672801e-04  0 
 -1.764116e-04  -5.289701e-04  0 
 -8.183763e-05  -3.665235e-04  0 
 -2.651768e-05  -3.661399e-04  0 
 2.874307e-05  -3.661838e-04  0 
 8.409957e-05  -3.666548e-04  0 
 1.396440e-04  -3.674307e-04  0 
 -1.052756e-04  -5.283200e-04  0 
 -3.429468e-05  -5.280189e-04  0 
 3.659359e-05  -5.280129e-04  0 
 1.075399e-04  -5.282999e-04  0 
 1.786084e-04  -5.289390e-04  0 
VECTORS displacement_ITER10 FLOAT
 -1.373307e-04  -3.673224e-04  0 
 -1.763911e-04  -5.288651e-04  0 
 -8.188127e-05  -3.665348e-04  0 
 -2.652819e-05  -3.660519e-04  0 
 2.873881e-05  -3.660863e-04  0 
 8.412470e-05  -3.666270e-04  0 
 1.396031e-04  -3.674349e-04  0 
 -1.052942e-04  -5.282230e-04  0 
 -3.434450e-05  -5.279892e-04  0 
 3.661590e-05  -5.279821e-04  0 
 1.075466e-04  -5.282134e-04  0 
 1.785912e-04  -5.288422e-04  0 
VECTORS displacement_ITER11 FLOAT
 -1.372852e-04  -3.673176e-04  0 
 -1.763909e-04  -5.288100e-04  0 
 -8.190163e-05  -3.665244e-04  0 
 -2.654148e-05  -3.660090e-04  0 
 2.872546e-05  -3.660249e-04  0 
 8.413273e-05  -3.665622e-04  0 
 1.395915e-04  -3.673623e-04  0 
 -1.052862e-04  -5.281555e-04  0 
 -3.436109e-05  -5.279300e-04  0 
 3.659642e-05  -5.279312e-04  0 
 1.075276e-04  -5.281712e-04  0 
 1.786183e-04  -5.288246e-04  0 
VECTORS displacement_ITER12 FLOAT
 -1.372972e-04  -3.672434e-04  0 
 -1.764170e-04  -5.288444e-04  0 
 -8.188781e-05  -3.664759e-04  0 
 -2.653216e-05  -3.660136e-04  0 
 2.873038e-05  -3.660301e-04  0 
 8.412286e-05  -3.665176e-04  0 
 1.395836e-04  -3.672939e-04  0 
 -1.052607e-04  -5.281590e-04  0 
 -3.432676e-05  -5.278766e-04  0 
 3.656713e-05  -5.278782e-04  0 
 1.075019e-04  -5.281695e-04  0 
 1.786557e-04  -5.288592e-04  0 
VECTORS displacement_ITER13 FLOAT
 -1.373153e-04  -3.672343e-04  0 
 -1.764223e-04  -5.288635e-04  0 
 -8.188212e-05  -3.664681e-04  0 
 -2.653750e-05  -3.660305e-04  0 
 2.874865e-05  -3.660495e-04  0 
 8.411745e-05  -3.665178e-04  0 
 1.395792e-04  -3.672967e-04  0 
 -1.052651e-04  -5.281795e-04  0 
 -3.430950e-05  -5.278799e-04  0 
 3.655541e-05  -5.278800e-04  0 
 1.075051e-04  -5.281811e-04  0 
 1.786566e-04  -5.288669e-04  0 
VECTORS displacement_ITER14 FLOAT
 -1.373115e-04  -3.672662e-04  0 
 -1.764168e-04  -5.288480e-04  0 
 -8.189203e-05  -3.664856e-04  0 
 -2.655464e-05  -3.660351e-04  0 
 2.875944e-05  -3.660481e-04  0 
 8.412063e-05  -3.665173e-04  0 
 1.395798e-04  -3.673046e-04  0 
 -1.052797e-04  -5.281787e-04  0 
 -3.431821e-05  -5.278954e-04  0 
 3.655247e-05  -5.278966e-04  0 
 1.075140e-04  -5.281821e-04  0 
 1.786473e-04  -5.288527e-04  0 
VECTORS displacement_ITER15 FLOAT
 -1.373138e-04  -3.672598e-04  0 
 -1.764196e-04  -5.288480e-04  0 
 -8.189496e-05  -3.664833e-04  0 
 -2.655079e-05  -3.660317e-04  0 
 2.875956e-05  -3.660456e-04  0 
 8.412539e-05  -3.665149e-04  0 
 1.395763e-04  -3.672974e-04  0 
 -1.052767e-04  -5.281748e-04  0 
 -3.432310e-05  -5.278945e-04  0 
 3.655974e-05  -5.278952e-04  0 
 1.075104e-04  -5.281776e-04  0 
 1.786507e-04  -5.288518e-04  0 
VECTORS displacement_ITER16 FLOAT
 -1.373154e-04  -3.672601e-04  0 
 -1.764185e-04  -5.288520e-04  0 
 -8.189371e-05  -3.664858e-04  0 
 -2.654716e-05  -3.660344e-04  0 
 2.875656e-05  -3.660474e-04  0 
 8.412514e-05  -3.665154e-04  0 
 1.395775e-04  -3.672942e-04  0 
 -1.052759e-04  -5.281760e-04  0 
 -3.432617e-05  -5.278941e-04  0 
 3.656272e-05  -5.278955e-04  0 
 1.075100e-04  -5.281797e-04  0 
 1.786502e-04  -5.288567e-04  0 
VECTORS displacement_ITER17 FLOAT
 -1.373153e-04  -3.672597e-04  0 
 -1.764182e-04  -5.288490e-04  0 
 -8.189352e-05  -3.664843e-04  0 
 -2.654711e-05  -3.660321e-04  0 
 2.875680e-05  -3.660447e-04  0 
 8.412516e-05  -3.665138e-04  0 
 1.395767e-04  -3.672933e-04  0 
 -1.052766e-04  -5.281736e-04  0 
 -3.432559e-05  -5.278920e-04  0 
 3.656226e-05  -5.278935e-04  0 
 1.075109e-04  -5.281771e-04  0 
 1.786485e-04  -5.288531e-04  0 
VECTORS displacement_ITER18 FLOAT
 -1.373156e-04  -3.672594e-04  0 
 -1.764179e-04  -5.288483e-04  0 
 -8.189304e-05  -3.664840e-04  0 
 -2.654690e-05  -3.660317e-04  0 
 2.875640e-05  -3.660443e-04  0 
 8.412511e-05  -3.665136e-04  0 
 1.395767e-04  -3.672928e-04  0 
 -1.052766e-04  -5.281730e-04  0 
 -3.432501e-05  -5.278914e-04  0 
 3.656180e-05  -5.278932e-04  0 
 1.075111e-04  -5.281772e-04  0 
 1.786486e-04  -5.288535e-04  0 
VECTORS displacement_ITER19 FLOAT
 -1.373156e-04  -3.672591e-04  0 
 -1.764181e-04  -5.288479e-04  0 
 -8.189307e-05  -3.664837e-04  0 
 -2.654671e-05  -3.660313e-04  0 
 2.875611e-05  -3.660439e-04  0 
 8.412523e-05  -3.665135e-04  0 
 1.395767e-04  -3.672926e-04  0 
 -1.052765e-04  -5.281726e-04  0 
 -3.432495e-05  -5.278912e-04  0 
 3.656189e-05  -5.278929e-04  0 
 1.075111e-04  -5.281770e-04  0 
 1.786484e-04  -5.288532e-04  0 
VECTORS displacement_ITER20 FLOAT
 -1.373156e-04  -3.672591e-04  0 
 -1.764184e-04  -5.288481e-04  0 
 -8.189306e-05  -3.664838e-04  0 
 -2.654674e-05  -3.660315e-04  0 
 2.875607e-05  -3.660441e-04  0 
 8.412523e-05  -3.665136e-04  0 
 1.395768e-04  -3.672927e-04  0 
 -1.052764e-04  -5.281728e-04  0 
 -3.432478e-05  -5.278914e-04  0 
 3.656180e-05  -5.278931e-04  0 
 1.075111e-04  -5.281774e-04  0 
 1.786484e-04  -5.288535e-04  0 
VECTORS displacement_ITER21 FLOAT
 -1.373156e-04  -3.672592e-04  0 
 -1.764184e-04  -5.288479e-04  0 
 -8.189307e-05  -3.664838e-04  0 
 -2.654686e-05  -3.660314e-04  0 
 2.875615e-05  -3.660440e-04  0 
 8.412526e-05  -3.665137e-04  0 
 1.395769e-04  -3.672929e-04  0 
 -1.052764e-04  -5.281727e-04  0 
 -3.432472e-05  -5.278914e-04  0 
 3.656179e-05  -5.278932e-04  0 
 1.075112e-04  -5.281774e-04  0 
 1.786484e-04  -5.288535e-04  0 
VECTORS displacement_ITER22 FLOAT
 -1.373156e-04  -3.672591e-04  0 
 -1.764184e-04  -5.288479e-04  0 
 -8.189306e-05  -3.664838e-04  0 
 -2.654686e-05  -3.660314e-04  0 
 2.875613e-05  -3.660440e-04  0 
 8.412522e-05  -3.665137e-04  0 
 1.395769e-04  -3.672929e-04  0 
 -1.052764e-04  -5.281727e-04  0 
 -3.432470e-05  -5.278914e-04  0 
 3.656181e-05  -5.278932e-04  0 
 1.075111e-04  -5.281774e-04  0 
 1.786484e-04  -5.288535e-04  0 
VECTORS displacement_ITER23 FLOAT
 -1.373155e-04  -3.672591e-04  0 
 -1.764184e-04  -5.288478e-04  0 
 -8.189306e-05  -3.664838e-04  0 
 -2.654686e-05  -3.660313e-04  0 
 2.875611e-05  -3.660439e-04  0 
 8.412521e-05  -3.665136e-04  0 
 1.395769e-04  -3.672928e-04  0 
 -1.052764e-04  -5.281727e-04  0 
 -3.432471e-05  -5.278913e-04  0 
 3.656183e-05  -5.278931e-04  0 
 1.075111e-04  -5.281774e-04  0 
 1.786484e-04  -5.288535e-04  0 
VECTORS displacement_ITER24 FLOAT
 -1.373155e-04  -3.672591e-04  0 
 -1.764184e-04  -5.288478e-04  0 
 -8.189306e-05  -3.664837e-04  0 
 -2.654686e-05  -3.660313e-04  0 
 2.875611e-05  -3.660439e-04  0 
 8.412520e-05  -3.665136e-04  0 
 1.395769e-04  -3.672929e-04  0 
 -1.052764e-04  -5.281727e-04  0 
 -3.432471e-05  -5.278913e-04  0 
 3.656184e-05  -5.278931e-04  0 
 1.075111e-04  -5.281774e-04  0 
 1.786484e-04  -5.288535e-04  0 
VECTORS displacement_ITER25 FLOAT
 -1.373155e-04  -3.672591e-04  0 
 -1.764184e-04  -5.288478e-04  0 
 -8.189306e-05  -3.664837e-04  0 
 -2.654687e-05  -3.660313e-04  0 
 2.875611e-05  -3.660439e-04  0 
 8.412519e-05  -3.665136e-04  0 
 1.395769e-04  -3.672928e-04  0 
 -1.052764e-04  -5.281727e-04  0 
 -3.432471e-05  -5.278913e-04  0 
 3.656184e-05  -5.278931e-04  0 
 1.075111e-04  -5.281774e-04  0 
 1.786484e-04  -5.288535e-04  0 
CELL_DATA 5
TENSORS element_stresses FLOAT
 -6.747071e-03  -5.281827e-04  0 
 -5.281827e-04  -1.661496e-03  0 
 0  0  0 

 -3.363834e-03  -6.003251e-04  0 
 -6.003251e-04  -8.257195e-04  0 
 0  0  0 

 1.876505e-06  -6.334888e-04  0 
 -6.334888e-04  -3.039872e-06  0 
 0  0  0 

 3.365520e-03  -5.936158e-04  0 
 -5.936158e-04  8.211784e-04  0 
 0  0  0 

 6.743509e-03  -5.193877e-04  0 
 -5.193877e-04  1.659220e-03  0 
 0  0  0 

TENSORS element_stresses FLOAT
 -6.747071e-03  -5.281827e-04  0 
 -5.281827e-04  -1.661496e-03  0 
 0  0  0 

 -3.363834e-03  -6.003251e-04  0 
 -6.003251e-04  -8.257195e-04  0 
 0  0  0 

 1.876505e-06  -6.334888e-04  0 
 -6.334888e-04  -3.039872e-06  0 
 0  0  0 

 3.365520e-03  -5.936158e-04  0 
 -5.936158e-04  8.211784e-04  0 
 0  0  0 

 6.743509e-03  -5.193877e-04  0 
 -5.193877e-04  1.659220e-03  0 
 0  0  0 

