# vtk DataFile Version 3.1
this is an vtk file created by FEMAC
ASCII
DATASET UNSTRUCTURED_GRID
POINTS 12 FLOAT
7.500000 0.000000 0.000000
8.000000 0.000000 0.000000
7.500000 0.200000 0.000000
7.500000 0.400000 0.000000
7.500000 0.600000 0.000000
7.500000 0.800000 0.000000
7.500000 1.000000 0.000000
8.000000 0.200000 0.000000
8.000000 0.400000 0.000000
8.000000 0.600000 0.000000
8.000000 0.800000 0.000000
8.000000 1.000000 0.000000
CELLS 5 25 
4 0 1 7 2
4 2 7 8 3
4 3 8 9 4
4 4  9 10  5
4 5 10 11  6
CELL_TYPES 5
9 9 9 9 9 
POINT_DATA 12
VECTORS displacement_ITER1 FLOAT
 -2.457220e-04  -2.793803e-03  0 
 -2.457740e-04  -3.040969e-03  0 
 -1.468673e-04  -2.793719e-03  0 
 -4.793380e-05  -2.793649e-03  0 
 5.101328e-05  -2.793649e-03  0 
 1.499469e-04  -2.793719e-03  0 
 2.488019e-04  -2.793802e-03  0 
 -1.468718e-04  -3.041005e-03  0 
 -4.793964e-05  -3.041039e-03  0 
 5.101906e-05  -3.041039e-03  0 
 1.499513e-04  -3.041005e-03  0 
 2.488539e-04  -3.040970e-03  0 
VECTORS displacement_ITER2 FLOAT
 -2.432755e-04  -2.774189e-03  0 
 -2.433189e-04  -3.018572e-03  0 
 -1.455391e-04  -2.774136e-03  0 
 -4.774696e-05  -2.774095e-03  0 
 5.005638e-05  -2.774095e-03  0 
 1.478486e-04  -2.774136e-03  0 
 2.455851e-04  -2.774189e-03  0 
 -1.455409e-04  -3.018595e-03  0 
 -4.774876e-05  -3.018616e-03  0 
 5.005820e-05  -3.018616e-03  0 
 1.478503e-04  -3.018595e-03  0 
 2.456283e-04  -3.018572e-03  0 
VECTORS displacement_ITER3 FLOAT
 -2.421068e-04  -2.767096e-03  0 
 -2.421435e-04  -3.010319e-03  0 
 -1.448333e-04  -2.767058e-03  0 
 -4.752117e-05  -2.767033e-03  0 
 4.980059e-05  -2.767033e-03  0 
 1.471127e-04  -2.767058e-03  0 
 2.443862e-04  -2.767096e-03  0 
 -1.448360e-04  -3.010334e-03  0 
 -4.752142e-05  -3.010347e-03  0 
 4.980086e-05  -3.010347e-03  0 
 1.471154e-04  -3.010334e-03  0 
 2.444228e-04  -3.010319e-03  0 
VECTORS displacement_ITER4 FLOAT
 -2.417428e-04  -2.764293e-03  0 
 -2.417732e-04  -3.007181e-03  0 
 -1.445979e-04  -2.764261e-03  0 
 -4.742849e-05  -2.764242e-03  0 
 4.974856e-05  -2.764242e-03  0 
 1.469179e-04  -2.764261e-03  0 
 2.440627e-04  -2.764293e-03  0 
 -1.446046e-04  -3.007193e-03  0 
 -4.742966e-05  -3.007201e-03  0 
 4.974976e-05  -3.007201e-03  0 
 1.469246e-04  -3.007193e-03  0 
 2.440931e-04  -3.007181e-03  0 
VECTORS displacement_ITER5 FLOAT
 -2.415671e-04  -2.762450e-03  0 
 -2.415916e-04  -3.005157e-03  0 
 -1.444890e-04  -2.762423e-03  0 
 -4.739955e-05  -2.762409e-03  0 
 4.969552e-05  -2.762409e-03  0 
 1.467849e-04  -2.762423e-03  0 
 2.438629e-04  -2.762450e-03  0 
 -1.444999e-04  -3.005166e-03  0 
 -4.740195e-05  -3.005171e-03  0 
 4.969794e-05  -3.005171e-03  0 
 1.467959e-04  -3.005166e-03  0 
 2.438874e-04  -3.005157e-03  0 
VECTORS displacement_ITER6 FLOAT
 -2.415103e-04  -2.761920e-03  0 
 -2.415314e-04  -3.004564e-03  0 
 -1.444545e-04  -2.761896e-03  0 
 -4.739482e-05  -2.761885e-03  0 
 4.966926e-05  -2.761885e-03  0 
 1.467289e-04  -2.761896e-03  0 
 2.437845e-04  -2.761920e-03  0 
 -1.444675e-04  -3.004571e-03  0 
 -4.739779e-05  -3.004573e-03  0 
 4.967224e-05  -3.004573e-03  0 
 1.467419e-04  -3.004571e-03  0 
 2.438057e-04  -3.004564e-03  0 
VECTORS displacement_ITER7 FLOAT
 -2.414524e-04  -2.761606e-03  0 
 -2.414693e-04  -3.004195e-03  0 
 -1.444159e-04  -2.761588e-03  0 
 -4.738460e-05  -2.761581e-03  0 
 4.964924e-05  -2.761582e-03  0 
 1.466805e-04  -2.761588e-03  0 
 2.437169e-04  -2.761607e-03  0 
 -1.444311e-04  -3.004200e-03  0 
 -4.738823e-05  -3.004199e-03  0 
 4.965288e-05  -3.004199e-03  0 
 1.466957e-04  -3.004200e-03  0 
 2.437339e-04  -3.004195e-03  0 
VECTORS displacement_ITER8 FLOAT
 -2.414193e-04  -2.761405e-03  0 
 -2.414332e-04  -3.003966e-03  0 
 -1.443924e-04  -2.761391e-03  0 
 -4.737721e-05  -2.761388e-03  0 
 4.963865e-05  -2.761388e-03  0 
 1.466539e-04  -2.761391e-03  0 
 2.436809e-04  -2.761406e-03  0 
 -1.444090e-04  -3.003968e-03  0 
 -4.738147e-05  -3.003965e-03  0 
 4.964306e-05  -3.003965e-03  0 
 1.466705e-04  -3.003968e-03  0 
 2.436946e-04  -3.003966e-03  0 
VECTORS displacement_ITER9 FLOAT
 -2.414168e-04  -2.761265e-03  0 
 -2.414284e-04  -3.003823e-03  0 
 -1.443893e-04  -2.761254e-03  0 
 -4.737693e-05  -2.761252e-03  0 
 4.963419e-05  -2.761252e-03  0 
 1.466461e-04  -2.761253e-03  0 
 2.436727e-04  -2.761265e-03  0 
 -1.444068e-04  -3.003824e-03  0 
 -4.738236e-05  -3.003820e-03  0 
 4.963885e-05  -3.003820e-03  0 
 1.466633e-04  -3.003824e-03  0 
 2.436852e-04  -3.003823e-03  0 
VECTORS displacement_ITER10 FLOAT
 -2.414326e-04  -2.761159e-03  0 
 -2.414442e-04  -3.003729e-03  0 
 -1.444015e-04  -2.761150e-03  0 
 -4.738722e-05  -2.761150e-03  0 
 4.962454e-05  -2.761151e-03  0 
 1.466399e-04  -2.761152e-03  0 
 2.436728e-04  -2.761161e-03  0 
 -1.444191e-04  -3.003728e-03  0 
 -4.739235e-05  -3.003724e-03  0 
 4.963135e-05  -3.003724e-03  0 
 1.466580e-04  -3.003729e-03  0 
 2.436823e-04  -3.003730e-03  0 
VECTORS displacement_ITER11 FLOAT
 -2.414458e-04  -2.761192e-03  0 
 -2.414545e-04  -3.003776e-03  0 
 -1.444066e-04  -2.761184e-03  0 
 -4.738606e-05  -2.761183e-03  0 
 4.962951e-05  -2.761182e-03  0 
 1.466492e-04  -2.761183e-03  0 
 2.436866e-04  -2.761190e-03  0 
 -1.444250e-04  -3.003774e-03  0 
 -4.739348e-05  -3.003769e-03  0 
 4.963543e-05  -3.003768e-03  0 
 1.466670e-04  -3.003773e-03  0 
 2.436974e-04  -3.003775e-03  0 
VECTORS displacement_ITER12 FLOAT
 -2.414615e-04  -2.761335e-03  0 
 -2.414717e-04  -3.003934e-03  0 
 -1.444175e-04  -2.761328e-03  0 
 -4.739148e-05  -2.761327e-03  0 
 4.962930e-05  -2.761327e-03  0 
 1.466558e-04  -2.761328e-03  0 
 2.437008e-04  -2.761336e-03  0 
 -1.444355e-04  -3.003933e-03  0 
 -4.739816e-05  -3.003928e-03  0 
 4.963683e-05  -3.003928e-03  0 
 1.466741e-04  -3.003933e-03  0 
 2.437098e-04  -3.003935e-03  0 
VECTORS displacement_ITER13 FLOAT
 -2.414684e-04  -2.761418e-03  0 
 -2.414777e-04  -3.004024e-03  0 
 -1.444207e-04  -2.761410e-03  0 
 -4.739108e-05  -2.761409e-03  0 
 4.963286e-05  -2.761409e-03  0 
 1.466622e-04  -2.761409e-03  0 
 2.437093e-04  -2.761417e-03  0 
 -1.444389e-04  -3.004023e-03  0 
 -4.739848e-05  -3.004017e-03  0 
 4.963975e-05  -3.004017e-03  0 
 1.466802e-04  -3.004022e-03  0 
 2.437193e-04  -3.004024e-03  0 
VECTORS displacement_ITER14 FLOAT
 -2.414740e-04  -2.761445e-03  0 
 -2.414838e-04  -3.004052e-03  0 
 -1.444258e-04  -2.761436e-03  0 
 -4.739546e-05  -2.761435e-03  0 
 4.962983e-05  -2.761435e-03  0 
 1.466602e-04  -2.761436e-03  0 
 2.437084e-04  -2.761445e-03  0 
 -1.444440e-04  -3.004051e-03  0 
 -4.740243e-05  -3.004046e-03  0 
 4.963685e-05  -3.004046e-03  0 
 1.466784e-04  -3.004052e-03  0 
 2.437182e-04  -3.004052e-03  0 
VECTORS displacement_ITER15 FLOAT
 -2.414715e-04  -2.761448e-03  0 
 -2.414814e-04  -3.004053e-03  0 
 -1.444244e-04  -2.761439e-03  0 
 -4.739505e-05  -2.761438e-03  0 
 4.962975e-05  -2.761438e-03  0 
 1.466591e-04  -2.761439e-03  0 
 2.437062e-04  -2.761448e-03  0 
 -1.444426e-04  -3.004052e-03  0 
 -4.740182e-05  -3.004047e-03  0 
 4.963651e-05  -3.004047e-03  0 
 1.466773e-04  -3.004052e-03  0 
 2.437161e-04  -3.004053e-03  0 
VECTORS displacement_ITER16 FLOAT
 -2.414693e-04  -2.761428e-03  0 
 -2.414794e-04  -3.004031e-03  0 
 -1.444232e-04  -2.761419e-03  0 
 -4.739468e-05  -2.761418e-03  0 
 4.962953e-05  -2.761418e-03  0 
 1.466580e-04  -2.761419e-03  0 
 2.437042e-04  -2.761428e-03  0 
 -1.444414e-04  -3.004031e-03  0 
 -4.740133e-05  -3.004026e-03  0 
 4.963620e-05  -3.004026e-03  0 
 1.466762e-04  -3.004031e-03  0 
 2.437143e-04  -3.004031e-03  0 
VECTORS displacement_ITER17 FLOAT
 -2.414689e-04  -2.761423e-03  0 
 -2.414789e-04  -3.004026e-03  0 
 -1.444230e-04  -2.761415e-03  0 
 -4.739465e-05  -2.761413e-03  0 
 4.962934e-05  -2.761413e-03  0 
 1.466577e-04  -2.761415e-03  0 
 2.437035e-04  -2.761423e-03  0 
 -1.444411e-04  -3.004025e-03  0 
 -4.740132e-05  -3.004020e-03  0 
 4.963601e-05  -3.004020e-03  0 
 1.466758e-04  -3.004025e-03  0 
 2.437136e-04  -3.004026e-03  0 
VECTORS displacement_ITER18 FLOAT
 -2.414689e-04  -2.761421e-03  0 
 -2.414790e-04  -3.004024e-03  0 
 -1.444230e-04  -2.761412e-03  0 
 -4.739461e-05  -2.761411e-03  0 
 4.962936e-05  -2.761411e-03  0 
 1.466578e-04  -2.761412e-03  0 
 2.437037e-04  -2.761421e-03  0 
 -1.444411e-04  -3.004023e-03  0 
 -4.740131e-05  -3.004018e-03  0 
 4.963607e-05  -3.004018e-03  0 
 1.466759e-04  -3.004023e-03  0 
 2.437138e-04  -3.004024e-03  0 
VECTORS displacement_ITER19 FLOAT
 -2.414690e-04  -2.761422e-03  0 
 -2.414792e-04  -3.004025e-03  0 
 -1.444231e-04  -2.761413e-03  0 
 -4.739463e-05  -2.761412e-03  0 
 4.962936e-05  -2.761412e-03  0 
 1.466578e-04  -2.761413e-03  0 
 2.437038e-04  -2.761422e-03  0 
 -1.444412e-04  -3.004024e-03  0 
 -4.740136e-05  -3.004019e-03  0 
 4.963608e-05  -3.004019e-03  0 
 1.466760e-04  -3.004024e-03  0 
 2.437139e-04  -3.004025e-03  0 
VECTORS displacement_ITER20 FLOAT
 -2.414691e-04  -2.761422e-03  0 
 -2.414792e-04  -3.004025e-03  0 
 -1.444231e-04  -2.761413e-03  0 
 -4.739463e-05  -2.761412e-03  0 
 4.962936e-05  -2.761412e-03  0 
 1.466578e-04  -2.761413e-03  0 
 2.437038e-04  -2.761422e-03  0 
 -1.444412e-04  -3.004024e-03  0 
 -4.740136e-05  -3.004019e-03  0 
 4.963609e-05  -3.004019e-03  0 
 1.466760e-04  -3.004024e-03  0 
 2.437139e-04  -3.004025e-03  0 
VECTORS displacement_ITER21 FLOAT
 -2.414691e-04  -2.761422e-03  0 
 -2.414792e-04  -3.004025e-03  0 
 -1.444231e-04  -2.761413e-03  0 
 -4.739463e-05  -2.761412e-03  0 
 4.962937e-05  -2.761412e-03  0 
 1.466578e-04  -2.761413e-03  0 
 2.437038e-04  -2.761422e-03  0 
 -1.444412e-04  -3.004024e-03  0 
 -4.740135e-05  -3.004019e-03  0 
 4.963610e-05  -3.004019e-03  0 
 1.466760e-04  -3.004024e-03  0 
 2.437139e-04  -3.004025e-03  0 
VECTORS displacement_ITER22 FLOAT
 -2.414691e-04  -2.761422e-03  0 
 -2.414792e-04  -3.004025e-03  0 
 -1.444231e-04  -2.761413e-03  0 
 -4.739464e-05  -2.761412e-03  0 
 4.962936e-05  -2.761412e-03  0 
 1.466578e-04  -2.761413e-03  0 
 2.437038e-04  -2.761422e-03  0 
 -1.444412e-04  -3.004024e-03  0 
 -4.740136e-05  -3.004019e-03  0 
 4.963608e-05  -3.004019e-03  0 
 1.466760e-04  -3.004024e-03  0 
 2.437139e-04  -3.004025e-03  0 
VECTORS displacement_ITER23 FLOAT
 -2.414691e-04  -2.761422e-03  0 
 -2.414792e-04  -3.004025e-03  0 
 -1.444231e-04  -2.761413e-03  0 
 -4.739465e-05  -2.761412e-03  0 
 4.962936e-05  -2.761412e-03  0 
 1.466578e-04  -2.761413e-03  0 
 2.437038e-04  -2.761422e-03  0 
 -1.444412e-04  -3.004024e-03  0 
 -4.740136e-05  -3.004019e-03  0 
 4.963608e-05  -3.004019e-03  0 
 1.466760e-04  -3.004024e-03  0 
 2.437139e-04  -3.004025e-03  0 
VECTORS displacement_ITER24 FLOAT
 -2.414691e-04  -2.761422e-03  0 
 -2.414792e-04  -3.004025e-03  0 
 -1.444231e-04  -2.761413e-03  0 
 -4.739465e-05  -2.761412e-03  0 
 4.962937e-05  -2.761412e-03  0 
 1.466578e-04  -2.761413e-03  0 
 2.437038e-04  -2.761422e-03  0 
 -1.444413e-04  -3.004024e-03  0 
 -4.740136e-05  -3.004019e-03  0 
 4.963608e-05  -3.004019e-03  0 
 1.466760e-04  -3.004024e-03  0 
 2.437139e-04  -3.004025e-03  0 
VECTORS displacement_ITER25 FLOAT
 -2.414691e-04  -2.761422e-03  0 
 -2.414792e-04  -3.004025e-03  0 
 -1.444231e-04  -2.761413e-03  0 
 -4.739465e-05  -2.761412e-03  0 
 4.962937e-05  -2.761412e-03  0 
 1.466578e-04  -2.761413e-03  0 
 2.437038e-04  -2.761422e-03  0 
 -1.444413e-04  -3.004024e-03  0 
 -4.740137e-05  -3.004019e-03  0 
 4.963608e-05  -3.004019e-03  0 
 1.466760e-04  -3.004024e-03  0 
 2.437139e-04  -3.004025e-03  0 
CELL_DATA 5
TENSORS element_stresses FLOAT
 -2.307101e-05  -2.899533e-06  0 
 -2.899533e-06  1.723115e-05  0 
 0  0  0 

 -2.203808e-05  -3.626525e-05  0 
 -3.626525e-05  9.397265e-06  0 
 0  0  0 

 -2.337330e-11  -4.667031e-05  0 
 -4.667031e-05  -1.068967e-10  0 
 0  0  0 

 2.203806e-05  -3.626523e-05  0 
 -3.626523e-05  -9.397171e-06  0 
 0  0  0 

 2.307105e-05  -2.899682e-06  0 
 -2.899682e-06  -1.723117e-05  0 
 0  0  0 

TENSORS element_stresses FLOAT
 -2.307101e-05  -2.899533e-06  0 
 -2.899533e-06  1.723115e-05  0 
 0  0  0 

 -2.203808e-05  -3.626525e-05  0 
 -3.626525e-05  9.397265e-06  0 
 0  0  0 

 -2.337330e-11  -4.667031e-05  0 
 -4.667031e-05  -1.068967e-10  0 
 0  0  0 

 2.203806e-05  -3.626523e-05  0 
 -3.626523e-05  -9.397171e-06  0 
 0  0  0 

 2.307105e-05  -2.899682e-06  0 
 -2.899682e-06  -1.723117e-05  0 
 0  0  0 

