# vtk DataFile Version 3.1
this is an vtk file created by FEMAC
ASCII
DATASET UNSTRUCTURED_GRID
POINTS 12 FLOAT
5.000000 0.000000 0.000000
5.500000 0.000000 0.000000
5.000000 0.200000 0.000000
5.000000 0.400000 0.000000
5.000000 0.600000 0.000000
5.000000 0.800000 0.000000
5.000000 1.000000 0.000000
5.500000 0.200000 0.000000
5.500000 0.400000 0.000000
5.500000 0.600000 0.000000
5.500000 0.800000 0.000000
5.500000 1.000000 0.000000
CELLS 5 25 
4 0 1 7 2
4 2 7 8 3
4 3 8 9 4
4 4  9 10  5
4 5 10 11  6
CELL_TYPES 5
9 9 9 9 9 
POINT_DATA 12
VECTORS displacement_ITER1 FLOAT
 -2.307593e-04  -1.574472e-03  0 
 -2.403113e-04  -1.812147e-03  0 
 -1.382600e-04  -1.573488e-03  0 
 -4.523597e-05  -1.572312e-03  0 
 4.831257e-05  -1.572313e-03  0 
 1.413367e-04  -1.573490e-03  0 
 2.338359e-04  -1.574475e-03  0 
 -1.437304e-04  -1.811775e-03  0 
 -4.702247e-05  -1.812341e-03  0 
 5.010017e-05  -1.812342e-03  0 
 1.468081e-04  -1.811777e-03  0 
 2.433890e-04  -1.812151e-03  0 
VECTORS displacement_ITER2 FLOAT
 -2.287639e-04  -1.567335e-03  0 
 -2.380728e-04  -1.803607e-03  0 
 -1.368399e-04  -1.567048e-03  0 
 -4.487544e-05  -1.566573e-03  0 
 4.718482e-05  -1.566573e-03  0 
 1.391492e-04  -1.567048e-03  0 
 2.310733e-04  -1.567335e-03  0 
 -1.421896e-04  -1.803131e-03  0 
 -4.664367e-05  -1.803255e-03  0 
 4.895311e-05  -1.803255e-03  0 
 1.444990e-04  -1.803131e-03  0 
 2.403823e-04  -1.803607e-03  0 
VECTORS displacement_ITER3 FLOAT
 -2.278025e-04  -1.565507e-03  0 
 -2.369743e-04  -1.801134e-03  0 
 -1.361151e-04  -1.565487e-03  0 
 -4.457430e-05  -1.565317e-03  0 
 4.685479e-05  -1.565316e-03  0 
 1.383956e-04  -1.565486e-03  0 
 2.300830e-04  -1.565506e-03  0 
 -1.414267e-04  -1.800676e-03  0 
 -4.634528e-05  -1.800604e-03  0 
 4.862540e-05  -1.800604e-03  0 
 1.437068e-04  -1.800675e-03  0 
 2.392544e-04  -1.801133e-03  0 
VECTORS displacement_ITER4 FLOAT
 -2.274422e-04  -1.564666e-03  0 
 -2.365509e-04  -1.799740e-03  0 
 -1.359523e-04  -1.564604e-03  0 
 -4.450986e-05  -1.564402e-03  0 
 4.683114e-05  -1.564402e-03  0 
 1.382736e-04  -1.564603e-03  0 
 2.297633e-04  -1.564665e-03  0 
 -1.412667e-04  -1.799421e-03  0 
 -4.628818e-05  -1.799410e-03  0 
 4.860903e-05  -1.799409e-03  0 
 1.435875e-04  -1.799420e-03  0 
 2.388716e-04  -1.799738e-03  0 
VECTORS displacement_ITER5 FLOAT
 -2.272211e-04  -1.564101e-03  0 
 -2.362940e-04  -1.798680e-03  0 
 -1.359074e-04  -1.563957e-03  0 
 -4.453027e-05  -1.563686e-03  0 
 4.679190e-05  -1.563662e-03  0 
 1.382019e-04  -1.563895e-03  0 
 2.295782e-04  -1.564026e-03  0 
 -1.412365e-04  -1.798492e-03  0 
 -4.631542e-05  -1.798555e-03  0 
 4.857878e-05  -1.798570e-03  0 
 1.435300e-04  -1.798531e-03  0 
 2.386270e-04  -1.798725e-03  0 
VECTORS displacement_ITER6 FLOAT
 -2.273018e-04  -1.563814e-03  0 
 -2.363105e-04  -1.798561e-03  0 
 -1.358705e-04  -1.563675e-03  0 
 -4.444603e-05  -1.563500e-03  0 
 4.684767e-05  -1.563577e-03  0 
 1.381584e-04  -1.563874e-03  0 
 2.293800e-04  -1.564058e-03  0 
 -1.412149e-04  -1.798390e-03  0 
 -4.623899e-05  -1.798380e-03  0 
 4.863606e-05  -1.798321e-03  0 
 1.435019e-04  -1.798237e-03  0 
 2.384448e-04  -1.798376e-03  0 
VECTORS displacement_ITER7 FLOAT
 -2.269714e-04  -1.564181e-03  0 
 -2.360065e-04  -1.798207e-03  0 
 -1.358364e-04  -1.563957e-03  0 
 -4.462995e-05  -1.563654e-03  0 
 4.661278e-05  -1.563499e-03  0 
 1.380680e-04  -1.563549e-03  0 
 2.296343e-04  -1.563673e-03  0 
 -1.412025e-04  -1.798108e-03  0 
 -4.642436e-05  -1.798202e-03  0 
 4.840895e-05  -1.798342e-03  0 
 1.434373e-04  -1.798476e-03  0 
 2.386176e-04  -1.798659e-03  0 
VECTORS displacement_ITER8 FLOAT
 -2.272222e-04  -1.563804e-03  0 
 -2.362414e-04  -1.798525e-03  0 
 -1.357731e-04  -1.563640e-03  0 
 -4.441127e-05  -1.563552e-03  0 
 4.680733e-05  -1.563612e-03  0 
 1.380525e-04  -1.563798e-03  0 
 2.293373e-04  -1.564005e-03  0 
 -1.411572e-04  -1.798362e-03  0 
 -4.620597e-05  -1.798243e-03  0 
 4.860572e-05  -1.798166e-03  0 
 1.434373e-04  -1.798159e-03  0 
 2.383036e-04  -1.798265e-03  0 
VECTORS displacement_ITER9 FLOAT
 -2.271663e-04  -1.563802e-03  0 
 -2.361310e-04  -1.798304e-03  0 
 -1.357760e-04  -1.563612e-03  0 
 -4.447564e-05  -1.563495e-03  0 
 4.675349e-05  -1.563513e-03  0 
 1.380359e-04  -1.563661e-03  0 
 2.293688e-04  -1.563865e-03  0 
 -1.411686e-04  -1.798174e-03  0 
 -4.627145e-05  -1.798115e-03  0 
 4.854766e-05  -1.798111e-03  0 
 1.434246e-04  -1.798164e-03  0 
 2.383823e-04  -1.798292e-03  0 
VECTORS displacement_ITER10 FLOAT
 -2.271005e-04  -1.563803e-03  0 
 -2.360798e-04  -1.798120e-03  0 
 -1.357947e-04  -1.563581e-03  0 
 -4.454157e-05  -1.563416e-03  0 
 4.671224e-05  -1.563384e-03  0 
 1.380279e-04  -1.563496e-03  0 
 2.294227e-04  -1.563691e-03  0 
 -1.411884e-04  -1.798010e-03  0 
 -4.633488e-05  -1.797998e-03  0 
 4.850448e-05  -1.798036e-03  0 
 1.434202e-04  -1.798112e-03  0 
 2.384238e-04  -1.798255e-03  0 
VECTORS displacement_ITER11 FLOAT
 -2.271458e-04  -1.563730e-03  0 
 -2.361490e-04  -1.798187e-03  0 
 -1.357997e-04  -1.563521e-03  0 
 -4.451390e-05  -1.563382e-03  0 
 4.675448e-05  -1.563381e-03  0 
 1.380363e-04  -1.563518e-03  0 
 2.293901e-04  -1.563724e-03  0 
 -1.411906e-04  -1.798054e-03  0 
 -4.630657e-05  -1.798009e-03  0 
 4.854693e-05  -1.798004e-03  0 
 1.434298e-04  -1.798042e-03  0 
 2.383728e-04  -1.798173e-03  0 
VECTORS displacement_ITER12 FLOAT
 -2.271760e-04  -1.563756e-03  0 
 -2.361720e-04  -1.798287e-03  0 
 -1.358019e-04  -1.563563e-03  0 
 -4.450299e-05  -1.563442e-03  0 
 4.676757e-05  -1.563452e-03  0 
 1.380463e-04  -1.563591e-03  0 
 2.293899e-04  -1.563795e-03  0 
 -1.411907e-04  -1.798138e-03  0 
 -4.629829e-05  -1.798081e-03  0 
 4.856207e-05  -1.798070e-03  0 
 1.434360e-04  -1.798110e-03  0 
 2.383860e-04  -1.798248e-03  0 
VECTORS displacement_ITER13 FLOAT
 -2.271586e-04  -1.563826e-03  0 
 -2.361572e-04  -1.798298e-03  0 
 -1.358141e-04  -1.563627e-03  0 
 -4.452496e-05  -1.563488e-03  0 
 4.674651e-05  -1.563479e-03  0 
 1.380514e-04  -1.563603e-03  0 
 2.294201e-04  -1.563795e-03  0 
 -1.412001e-04  -1.798157e-03  0 
 -4.632244e-05  -1.798115e-03  0 
 4.854419e-05  -1.798124e-03  0 
 1.434367e-04  -1.798179e-03  0 
 2.384187e-04  -1.798328e-03  0 
VECTORS displacement_ITER14 FLOAT
 -2.271759e-04  -1.563820e-03  0 
 -2.361746e-04  -1.798326e-03  0 
 -1.358217e-04  -1.563626e-03  0 
 -4.451721e-05  -1.563492e-03  0 
 4.675480e-05  -1.563493e-03  0 
 1.380572e-04  -1.563631e-03  0 
 2.294048e-04  -1.563826e-03  0 
 -1.412053e-04  -1.798183e-03  0 
 -4.631596e-05  -1.798135e-03  0 
 4.855381e-05  -1.798134e-03  0 
 1.434398e-04  -1.798179e-03  0 
 2.384066e-04  -1.798322e-03  0 
VECTORS displacement_ITER15 FLOAT
 -2.271726e-04  -1.563828e-03  0 
 -2.361727e-04  -1.798334e-03  0 
 -1.358207e-04  -1.563636e-03  0 
 -4.451733e-05  -1.563502e-03  0 
 4.675143e-05  -1.563502e-03  0 
 1.380551e-04  -1.563634e-03  0 
 2.294087e-04  -1.563826e-03  0 
 -1.412040e-04  -1.798189e-03  0 
 -4.631530e-05  -1.798139e-03  0 
 4.854914e-05  -1.798139e-03  0 
 1.434388e-04  -1.798190e-03  0 
 2.384079e-04  -1.798334e-03  0 
VECTORS displacement_ITER16 FLOAT
 -2.271717e-04  -1.563818e-03  0 
 -2.361706e-04  -1.798322e-03  0 
 -1.358194e-04  -1.563626e-03  0 
 -4.451718e-05  -1.563492e-03  0 
 4.675242e-05  -1.563492e-03  0 
 1.380542e-04  -1.563626e-03  0 
 2.294068e-04  -1.563818e-03  0 
 -1.412040e-04  -1.798177e-03  0 
 -4.631388e-05  -1.798129e-03  0 
 4.854895e-05  -1.798129e-03  0 
 1.434391e-04  -1.798177e-03  0 
 2.384049e-04  -1.798321e-03  0 
VECTORS displacement_ITER17 FLOAT
 -2.271714e-04  -1.563816e-03  0 
 -2.361697e-04  -1.798318e-03  0 
 -1.358189e-04  -1.563624e-03  0 
 -4.451784e-05  -1.563489e-03  0 
 4.675244e-05  -1.563489e-03  0 
 1.380536e-04  -1.563624e-03  0 
 2.294060e-04  -1.563816e-03  0 
 -1.412039e-04  -1.798174e-03  0 
 -4.631388e-05  -1.798126e-03  0 
 4.854854e-05  -1.798126e-03  0 
 1.434386e-04  -1.798174e-03  0 
 2.384046e-04  -1.798319e-03  0 
VECTORS displacement_ITER18 FLOAT
 -2.271708e-04  -1.563814e-03  0 
 -2.361701e-04  -1.798316e-03  0 
 -1.358190e-04  -1.563621e-03  0 
 -4.451801e-05  -1.563487e-03  0 
 4.675275e-05  -1.563487e-03  0 
 1.380538e-04  -1.563621e-03  0 
 2.294056e-04  -1.563814e-03  0 
 -1.412035e-04  -1.798172e-03  0 
 -4.631377e-05  -1.798124e-03  0 
 4.854860e-05  -1.798124e-03  0 
 1.434383e-04  -1.798172e-03  0 
 2.384048e-04  -1.798316e-03  0 
VECTORS displacement_ITER19 FLOAT
 -2.271712e-04  -1.563814e-03  0 
 -2.361702e-04  -1.798317e-03  0 
 -1.358188e-04  -1.563621e-03  0 
 -4.451768e-05  -1.563487e-03  0 
 4.675237e-05  -1.563487e-03  0 
 1.380535e-04  -1.563621e-03  0 
 2.294060e-04  -1.563814e-03  0 
 -1.412034e-04  -1.798172e-03  0 
 -4.631391e-05  -1.798124e-03  0 
 4.854865e-05  -1.798124e-03  0 
 1.434381e-04  -1.798172e-03  0 
 2.384049e-04  -1.798317e-03  0 
VECTORS displacement_ITER20 FLOAT
 -2.271711e-04  -1.563815e-03  0 
 -2.361700e-04  -1.798317e-03  0 
 -1.358189e-04  -1.563622e-03  0 
 -4.451770e-05  -1.563487e-03  0 
 4.675240e-05  -1.563487e-03  0 
 1.380537e-04  -1.563622e-03  0 
 2.294058e-04  -1.563815e-03  0 
 -1.412036e-04  -1.798173e-03  0 
 -4.631418e-05  -1.798124e-03  0 
 4.854889e-05  -1.798124e-03  0 
 1.434383e-04  -1.798173e-03  0 
 2.384048e-04  -1.798317e-03  0 
VECTORS displacement_ITER21 FLOAT
 -2.271712e-04  -1.563815e-03  0 
 -2.361701e-04  -1.798317e-03  0 
 -1.358188e-04  -1.563622e-03  0 
 -4.451761e-05  -1.563488e-03  0 
 4.675236e-05  -1.563488e-03  0 
 1.380536e-04  -1.563622e-03  0 
 2.294060e-04  -1.563815e-03  0 
 -1.412035e-04  -1.798173e-03  0 
 -4.631407e-05  -1.798124e-03  0 
 4.854881e-05  -1.798124e-03  0 
 1.434382e-04  -1.798173e-03  0 
 2.384048e-04  -1.798317e-03  0 
VECTORS displacement_ITER22 FLOAT
 -2.271712e-04  -1.563815e-03  0 
 -2.361701e-04  -1.798317e-03  0 
 -1.358188e-04  -1.563622e-03  0 
 -4.451768e-05  -1.563488e-03  0 
 4.675241e-05  -1.563488e-03  0 
 1.380536e-04  -1.563622e-03  0 
 2.294060e-04  -1.563815e-03  0 
 -1.412035e-04  -1.798173e-03  0 
 -4.631407e-05  -1.798124e-03  0 
 4.854879e-05  -1.798124e-03  0 
 1.434383e-04  -1.798173e-03  0 
 2.384048e-04  -1.798317e-03  0 
VECTORS displacement_ITER23 FLOAT
 -2.271712e-04  -1.563815e-03  0 
 -2.361701e-04  -1.798317e-03  0 
 -1.358189e-04  -1.563622e-03  0 
 -4.451769e-05  -1.563488e-03  0 
 4.675242e-05  -1.563488e-03  0 
 1.380536e-04  -1.563622e-03  0 
 2.294059e-04  -1.563815e-03  0 
 -1.412035e-04  -1.798173e-03  0 
 -4.631406e-05  -1.798124e-03  0 
 4.854877e-05  -1.798124e-03  0 
 1.434382e-04  -1.798173e-03  0 
 2.384048e-04  -1.798317e-03  0 
VECTORS displacement_ITER24 FLOAT
 -2.271712e-04  -1.563815e-03  0 
 -2.361701e-04  -1.798317e-03  0 
 -1.358189e-04  -1.563622e-03  0 
 -4.451768e-05  -1.563488e-03  0 
 4.675242e-05  -1.563488e-03  0 
 1.380536e-04  -1.563622e-03  0 
 2.294059e-04  -1.563815e-03  0 
 -1.412035e-04  -1.798173e-03  0 
 -4.631405e-05  -1.798124e-03  0 
 4.854877e-05  -1.798124e-03  0 
 1.434382e-04  -1.798173e-03  0 
 2.384048e-04  -1.798317e-03  0 
VECTORS displacement_ITER25 FLOAT
 -2.271712e-04  -1.563815e-03  0 
 -2.361701e-04  -1.798317e-03  0 
 -1.358189e-04  -1.563622e-03  0 
 -4.451768e-05  -1.563487e-03  0 
 4.675241e-05  -1.563487e-03  0 
 1.380536e-04  -1.563622e-03  0 
 2.294059e-04  -1.563814e-03  0 
 -1.412035e-04  -1.798173e-03  0 
 -4.631405e-05  -1.798124e-03  0 
 4.854877e-05  -1.798124e-03  0 
 1.434382e-04  -1.798173e-03  0 
 2.384048e-04  -1.798317e-03  0 
CELL_DATA 5
TENSORS element_stresses FLOAT
 -1.552835e-03  -2.504497e-04  0 
 -2.504497e-04  -3.815992e-04  0 
 0  0  0 

 -7.740738e-04  -2.854606e-04  0 
 -2.854606e-04  -1.865699e-04  0 
 0  0  0 

 -1.113124e-09  -3.031721e-04  0 
 -3.031721e-04  1.675039e-09  0 
 0  0  0 

 7.740730e-04  -2.854645e-04  0 
 -2.854645e-04  1.865725e-04  0 
 0  0  0 

 1.552836e-03  -2.504532e-04  0 
 -2.504532e-04  3.816002e-04  0 
 0  0  0 

TENSORS element_stresses FLOAT
 -1.552835e-03  -2.504497e-04  0 
 -2.504497e-04  -3.815992e-04  0 
 0  0  0 

 -7.740738e-04  -2.854606e-04  0 
 -2.854606e-04  -1.865699e-04  0 
 0  0  0 

 -1.113124e-09  -3.031721e-04  0 
 -3.031721e-04  1.675039e-09  0 
 0  0  0 

 7.740730e-04  -2.854645e-04  0 
 -2.854645e-04  1.865725e-04  0 
 0  0  0 

 1.552836e-03  -2.504532e-04  0 
 -2.504532e-04  3.816002e-04  0 
 0  0  0 

