# vtk DataFile Version 3.1
this is an vtk file created by FEMAC
ASCII
DATASET UNSTRUCTURED_GRID
POINTS 12 FLOAT
7.000000 0.000000 0.000000
7.500000 0.000000 0.000000
7.000000 0.200000 0.000000
7.000000 0.400000 0.000000
7.000000 0.600000 0.000000
7.000000 0.800000 0.000000
7.000000 1.000000 0.000000
7.500000 0.200000 0.000000
7.500000 0.400000 0.000000
7.500000 0.600000 0.000000
7.500000 0.800000 0.000000
7.500000 1.000000 0.000000
CELLS 5 25 
4 0 1 7 2
4 2 7 8 3
4 3 8 9 4
4 4  9 10  5
4 5 10 11  6
CELL_TYPES 5
9 9 9 9 9 
POINT_DATA 12
VECTORS displacement_ITER1 FLOAT
 -2.449412e-04  -2.546634e-03  0 
 -2.457970e-04  -2.793194e-03  0 
 -1.466454e-04  -2.546573e-03  0 
 -4.795848e-05  -2.546189e-03  0 
 5.103706e-05  -2.546190e-03  0 
 1.497240e-04  -2.546575e-03  0 
 2.480198e-04  -2.546637e-03  0 
 -1.467428e-04  -2.793684e-03  0 
 -4.793247e-05  -2.794288e-03  0 
 5.101213e-05  -2.794289e-03  0 
 1.498225e-04  -2.793687e-03  0 
 2.488767e-04  -2.793198e-03  0 
VECTORS displacement_ITER2 FLOAT
 -2.426038e-04  -2.529517e-03  0 
 -2.433921e-04  -2.773950e-03  0 
 -1.451201e-04  -2.529616e-03  0 
 -4.761731e-05  -2.529471e-03  0 
 4.992729e-05  -2.529471e-03  0 
 1.474296e-04  -2.529616e-03  0 
 2.449128e-04  -2.529518e-03  0 
 -1.453649e-04  -2.774121e-03  0 
 -4.768857e-05  -2.774350e-03  0 
 4.999870e-05  -2.774350e-03  0 
 1.476745e-04  -2.774120e-03  0 
 2.457007e-04  -2.773950e-03  0 
VECTORS displacement_ITER3 FLOAT
 -2.414805e-04  -2.523485e-03  0 
 -2.422264e-04  -2.767023e-03  0 
 -1.443306e-04  -2.523634e-03  0 
 -4.732040e-05  -2.523598e-03  0 
 4.960016e-05  -2.523598e-03  0 
 1.466104e-04  -2.523633e-03  0 
 2.437605e-04  -2.523484e-03  0 
 -1.446594e-04  -2.767059e-03  0 
 -4.744518e-05  -2.767106e-03  0 
 4.972468e-05  -2.767106e-03  0 
 1.469389e-04  -2.767058e-03  0 
 2.445056e-04  -2.767022e-03  0 
VECTORS displacement_ITER4 FLOAT
 -2.410832e-04  -2.521119e-03  0 
 -2.418284e-04  -2.764225e-03  0 
 -1.441159e-04  -2.521215e-03  0 
 -4.723738e-05  -2.521152e-03  0 
 4.955761e-05  -2.521152e-03  0 
 1.464364e-04  -2.521214e-03  0 
 2.434039e-04  -2.521117e-03  0 
 -1.444732e-04  -2.764264e-03  0 
 -4.737434e-05  -2.764308e-03  0 
 4.969422e-05  -2.764307e-03  0 
 1.467932e-04  -2.764264e-03  0 
 2.441485e-04  -2.764224e-03  0 
VECTORS displacement_ITER5 FLOAT
 -2.408697e-04  -2.519572e-03  0 
 -2.416165e-04  -2.762371e-03  0 
 -1.440358e-04  -2.519606e-03  0 
 -4.722706e-05  -2.519509e-03  0 
 4.952319e-05  -2.519509e-03  0 
 1.463321e-04  -2.519605e-03  0 
 2.431661e-04  -2.519570e-03  0 
 -1.444166e-04  -2.762428e-03  0 
 -4.736933e-05  -2.762484e-03  0 
 4.966507e-05  -2.762484e-03  0 
 1.467125e-04  -2.762427e-03  0 
 2.439126e-04  -2.762369e-03  0 
VECTORS displacement_ITER6 FLOAT
 -2.408026e-04  -2.519143e-03  0 
 -2.415438e-04  -2.761849e-03  0 
 -1.440053e-04  -2.519153e-03  0 
 -4.722665e-05  -2.519058e-03  0 
 4.950126e-05  -2.519058e-03  0 
 1.462800e-04  -2.519152e-03  0 
 2.430772e-04  -2.519141e-03  0 
 -1.444059e-04  -2.761903e-03  0 
 -4.737258e-05  -2.761949e-03  0 
 4.964681e-05  -2.761949e-03  0 
 1.466803e-04  -2.761903e-03  0 
 2.438183e-04  -2.761848e-03  0 
VECTORS displacement_ITER7 FLOAT
 -2.407369e-04  -2.518912e-03  0 
 -2.414686e-04  -2.761560e-03  0 
 -1.439600e-04  -2.518903e-03  0 
 -4.721870e-05  -2.518829e-03  0 
 4.947852e-05  -2.518826e-03  0 
 1.462245e-04  -2.518894e-03  0 
 2.430100e-04  -2.518901e-03  0 
 -1.443907e-04  -2.761596e-03  0 
 -4.736943e-05  -2.761613e-03  0 
 4.962925e-05  -2.761615e-03  0 
 1.466547e-04  -2.761601e-03  0 
 2.437384e-04  -2.761566e-03  0 
VECTORS displacement_ITER8 FLOAT
 -2.407259e-04  -2.518721e-03  0 
 -2.414435e-04  -2.761407e-03  0 
 -1.439298e-04  -2.518705e-03  0 
 -4.719620e-05  -2.518670e-03  0 
 4.948647e-05  -2.518688e-03  0 
 1.461944e-04  -2.518751e-03  0 
 2.429426e-04  -2.518776e-03  0 
 -1.443806e-04  -2.761419e-03  0 
 -4.734955e-05  -2.761403e-03  0 
 4.963843e-05  -2.761390e-03  0 
 1.466450e-04  -2.761385e-03  0 
 2.436748e-04  -2.761367e-03  0 
VECTORS displacement_ITER9 FLOAT
 -2.406411e-04  -2.518688e-03  0 
 -2.413806e-04  -2.761205e-03  0 
 -1.439347e-04  -2.518649e-03  0 
 -4.725192e-05  -2.518575e-03  0 
 4.943685e-05  -2.518534e-03  0 
 1.461819e-04  -2.518542e-03  0 
 2.430002e-04  -2.518556e-03  0 
 -1.443908e-04  -2.761218e-03  0 
 -4.740257e-05  -2.761235e-03  0 
 4.958887e-05  -2.761268e-03  0 
 1.466385e-04  -2.761304e-03  0 
 2.437165e-04  -2.761311e-03  0 
VECTORS displacement_ITER10 FLOAT
 -2.407626e-04  -2.518434e-03  0 
 -2.414912e-04  -2.761241e-03  0 
 -1.439392e-04  -2.518420e-03  0 
 -4.718233e-05  -2.518426e-03  0 
 4.952279e-05  -2.518478e-03  0 
 1.461942e-04  -2.518557e-03  0 
 2.428723e-04  -2.518606e-03  0 
 -1.443960e-04  -2.761218e-03  0 
 -4.733176e-05  -2.761172e-03  0 
 4.967177e-05  -2.761123e-03  0 
 1.466499e-04  -2.761089e-03  0 
 2.436131e-04  -2.761081e-03  0 
VECTORS displacement_ITER11 FLOAT
 -2.406680e-04  -2.518591e-03  0 
 -2.414032e-04  -2.761141e-03  0 
 -1.439631e-04  -2.518548e-03  0 
 -4.727091e-05  -2.518491e-03  0 
 4.944694e-05  -2.518461e-03  0 
 1.461931e-04  -2.518469e-03  0 
 2.429811e-04  -2.518490e-03  0 
 -1.444166e-04  -2.761139e-03  0 
 -4.742026e-05  -2.761163e-03  0 
 4.959561e-05  -2.761195e-03  0 
 1.466466e-04  -2.761225e-03  0 
 2.437247e-04  -2.761251e-03  0 
VECTORS displacement_ITER12 FLOAT
 -2.407311e-04  -2.518646e-03  0 
 -2.414782e-04  -2.761368e-03  0 
 -1.439671e-04  -2.518622e-03  0 
 -4.722811e-05  -2.518604e-03  0 
 4.949579e-05  -2.518615e-03  0 
 1.462115e-04  -2.518651e-03  0 
 2.429459e-04  -2.518684e-03  0 
 -1.444164e-04  -2.761345e-03  0 
 -4.737895e-05  -2.761330e-03  0 
 4.964705e-05  -2.761315e-03  0 
 1.466618e-04  -2.761305e-03  0 
 2.436802e-04  -2.761317e-03  0 
VECTORS displacement_ITER13 FLOAT
 -2.407208e-04  -2.518745e-03  0 
 -2.414567e-04  -2.761408e-03  0 
 -1.439774e-04  -2.518717e-03  0 
 -4.724978e-05  -2.518688e-03  0 
 4.947506e-05  -2.518682e-03  0 
 1.462155e-04  -2.518703e-03  0 
 2.429736e-04  -2.518725e-03  0 
 -1.444239e-04  -2.761397e-03  0 
 -4.740239e-05  -2.761401e-03  0 
 4.962753e-05  -2.761410e-03  0 
 1.466612e-04  -2.761419e-03  0 
 2.437185e-04  -2.761437e-03  0 
VECTORS displacement_ITER14 FLOAT
 -2.407345e-04  -2.518756e-03  0 
 -2.414745e-04  -2.761448e-03  0 
 -1.439828e-04  -2.518733e-03  0 
 -4.724404e-05  -2.518709e-03  0 
 4.948057e-05  -2.518710e-03  0 
 1.462176e-04  -2.518735e-03  0 
 2.429667e-04  -2.518759e-03  0 
 -1.444262e-04  -2.761437e-03  0 
 -4.739656e-05  -2.761435e-03  0 
 4.963320e-05  -2.761434e-03  0 
 1.466610e-04  -2.761434e-03  0 
 2.437063e-04  -2.761444e-03  0 
VECTORS displacement_ITER15 FLOAT
 -2.407319e-04  -2.518762e-03  0 
 -2.414710e-04  -2.761448e-03  0 
 -1.439815e-04  -2.518739e-03  0 
 -4.724440e-05  -2.518714e-03  0 
 4.947888e-05  -2.518714e-03  0 
 1.462160e-04  -2.518739e-03  0 
 2.429673e-04  -2.518761e-03  0 
 -1.444247e-04  -2.761439e-03  0 
 -4.739574e-05  -2.761437e-03  0 
 4.963012e-05  -2.761437e-03  0 
 1.466595e-04  -2.761439e-03  0 
 2.437060e-04  -2.761448e-03  0 
VECTORS displacement_ITER16 FLOAT
 -2.407305e-04  -2.518743e-03  0 
 -2.414694e-04  -2.761428e-03  0 
 -1.439798e-04  -2.518722e-03  0 
 -4.724415e-05  -2.518696e-03  0 
 4.947917e-05  -2.518696e-03  0 
 1.462147e-04  -2.518722e-03  0 
 2.429653e-04  -2.518744e-03  0 
 -1.444234e-04  -2.761420e-03  0 
 -4.739423e-05  -2.761418e-03  0 
 4.962925e-05  -2.761418e-03  0 
 1.466583e-04  -2.761419e-03  0 
 2.437040e-04  -2.761428e-03  0 
VECTORS displacement_ITER17 FLOAT
 -2.407301e-04  -2.518739e-03  0 
 -2.414688e-04  -2.761423e-03  0 
 -1.439793e-04  -2.518717e-03  0 
 -4.724443e-05  -2.518692e-03  0 
 4.947899e-05  -2.518692e-03  0 
 1.462140e-04  -2.518717e-03  0 
 2.429647e-04  -2.518739e-03  0 
 -1.444231e-04  -2.761414e-03  0 
 -4.739433e-05  -2.761413e-03  0 
 4.962892e-05  -2.761413e-03  0 
 1.466577e-04  -2.761415e-03  0 
 2.437037e-04  -2.761424e-03  0 
VECTORS displacement_ITER18 FLOAT
 -2.407300e-04  -2.518737e-03  0 
 -2.414689e-04  -2.761421e-03  0 
 -1.439792e-04  -2.518715e-03  0 
 -4.724437e-05  -2.518689e-03  0 
 4.947916e-05  -2.518689e-03  0 
 1.462140e-04  -2.518715e-03  0 
 2.429648e-04  -2.518737e-03  0 
 -1.444230e-04  -2.761412e-03  0 
 -4.739448e-05  -2.761411e-03  0 
 4.962927e-05  -2.761411e-03  0 
 1.466578e-04  -2.761412e-03  0 
 2.437037e-04  -2.761421e-03  0 
VECTORS displacement_ITER19 FLOAT
 -2.407302e-04  -2.518738e-03  0 
 -2.414691e-04  -2.761422e-03  0 
 -1.439792e-04  -2.518716e-03  0 
 -4.724433e-05  -2.518690e-03  0 
 4.947908e-05  -2.518690e-03  0 
 1.462139e-04  -2.518716e-03  0 
 2.429650e-04  -2.518738e-03  0 
 -1.444230e-04  -2.761413e-03  0 
 -4.739466e-05  -2.761412e-03  0 
 4.962939e-05  -2.761412e-03  0 
 1.466578e-04  -2.761413e-03  0 
 2.437038e-04  -2.761422e-03  0 
VECTORS displacement_ITER20 FLOAT
 -2.407303e-04  -2.518738e-03  0 
 -2.414691e-04  -2.761422e-03  0 
 -1.439792e-04  -2.518716e-03  0 
 -4.724431e-05  -2.518690e-03  0 
 4.947902e-05  -2.518690e-03  0 
 1.462140e-04  -2.518716e-03  0 
 2.429650e-04  -2.518738e-03  0 
 -1.444231e-04  -2.761413e-03  0 
 -4.739471e-05  -2.761412e-03  0 
 4.962942e-05  -2.761412e-03  0 
 1.466578e-04  -2.761413e-03  0 
 2.437038e-04  -2.761422e-03  0 
VECTORS displacement_ITER21 FLOAT
 -2.407302e-04  -2.518738e-03  0 
 -2.414690e-04  -2.761422e-03  0 
 -1.439792e-04  -2.518716e-03  0 
 -4.724430e-05  -2.518690e-03  0 
 4.947904e-05  -2.518690e-03  0 
 1.462140e-04  -2.518716e-03  0 
 2.429650e-04  -2.518738e-03  0 
 -1.444231e-04  -2.761413e-03  0 
 -4.739467e-05  -2.761412e-03  0 
 4.962941e-05  -2.761412e-03  0 
 1.466578e-04  -2.761414e-03  0 
 2.437038e-04  -2.761422e-03  0 
VECTORS displacement_ITER22 FLOAT
 -2.407302e-04  -2.518738e-03  0 
 -2.414691e-04  -2.761422e-03  0 
 -1.439792e-04  -2.518716e-03  0 
 -4.724431e-05  -2.518690e-03  0 
 4.947903e-05  -2.518690e-03  0 
 1.462139e-04  -2.518716e-03  0 
 2.429650e-04  -2.518738e-03  0 
 -1.444231e-04  -2.761413e-03  0 
 -4.739463e-05  -2.761412e-03  0 
 4.962935e-05  -2.761412e-03  0 
 1.466578e-04  -2.761413e-03  0 
 2.437038e-04  -2.761422e-03  0 
VECTORS displacement_ITER23 FLOAT
 -2.407303e-04  -2.518738e-03  0 
 -2.414691e-04  -2.761422e-03  0 
 -1.439792e-04  -2.518716e-03  0 
 -4.724430e-05  -2.518690e-03  0 
 4.947902e-05  -2.518690e-03  0 
 1.462139e-04  -2.518716e-03  0 
 2.429650e-04  -2.518738e-03  0 
 -1.444231e-04  -2.761413e-03  0 
 -4.739464e-05  -2.761412e-03  0 
 4.962935e-05  -2.761412e-03  0 
 1.466578e-04  -2.761413e-03  0 
 2.437038e-04  -2.761422e-03  0 
VECTORS displacement_ITER24 FLOAT
 -2.407303e-04  -2.518738e-03  0 
 -2.414691e-04  -2.761422e-03  0 
 -1.439792e-04  -2.518716e-03  0 
 -4.724431e-05  -2.518690e-03  0 
 4.947903e-05  -2.518690e-03  0 
 1.462140e-04  -2.518716e-03  0 
 2.429650e-04  -2.518738e-03  0 
 -1.444231e-04  -2.761413e-03  0 
 -4.739465e-05  -2.761412e-03  0 
 4.962937e-05  -2.761412e-03  0 
 1.466578e-04  -2.761413e-03  0 
 2.437038e-04  -2.761422e-03  0 
VECTORS displacement_ITER25 FLOAT
 -2.407303e-04  -2.518738e-03  0 
 -2.414691e-04  -2.761422e-03  0 
 -1.439792e-04  -2.518716e-03  0 
 -4.724430e-05  -2.518690e-03  0 
 4.947902e-05  -2.518690e-03  0 
 1.462139e-04  -2.518716e-03  0 
 2.429650e-04  -2.518738e-03  0 
 -1.444231e-04  -2.761413e-03  0 
 -4.739464e-05  -2.761412e-03  0 
 4.962936e-05  -2.761412e-03  0 
 1.466578e-04  -2.761413e-03  0 
 2.437038e-04  -2.761422e-03  0 
CELL_DATA 5
TENSORS element_stresses FLOAT
 -1.274185e-04  -6.839546e-05  0 
 -6.839546e-05  -3.049504e-05  0 
 0  0  0 

 -6.305648e-05  -7.774486e-05  0 
 -7.774486e-05  -1.211324e-05  0 
 0  0  0 

 -3.607384e-11  -8.271933e-05  0 
 -8.271933e-05  6.734657e-11  0 
 0  0  0 

 6.305640e-05  -7.774501e-05  0 
 -7.774501e-05  1.211320e-05  0 
 0  0  0 

 1.274186e-04  -6.839535e-05  0 
 -6.839535e-05  3.049496e-05  0 
 0  0  0 

TENSORS element_stresses FLOAT
 -1.274185e-04  -6.839546e-05  0 
 -6.839546e-05  -3.049504e-05  0 
 0  0  0 

 -6.305648e-05  -7.774486e-05  0 
 -7.774486e-05  -1.211324e-05  0 
 0  0  0 

 -3.607384e-11  -8.271933e-05  0 
 -8.271933e-05  6.734657e-11  0 
 0  0  0 

 6.305640e-05  -7.774501e-05  0 
 -7.774501e-05  1.211320e-05  0 
 0  0  0 

 1.274186e-04  -6.839535e-05  0 
 -6.839535e-05  3.049496e-05  0 
 0  0  0 

