# vtk DataFile Version 3.1
this is an vtk file created by FEMAC
ASCII
DATASET UNSTRUCTURED_GRID
POINTS 12 FLOAT
0.500000 0.000000 0.000000
1.000000 0.000000 0.000000
0.500000 0.200000 0.000000
0.500000 0.400000 0.000000
0.500000 0.600000 0.000000
0.500000 0.800000 0.000000
0.500000 1.000000 0.000000
1.000000 0.200000 0.000000
1.000000 0.400000 0.000000
1.000000 0.600000 0.000000
1.000000 0.800000 0.000000
1.000000 1.000000 0.000000
CELLS 5 25 
4 0 1 7 2
4 2 7 8 3
4 3 8 9 4
4 4  9 10  5
4 5 10 11  6
CELL_TYPES 5
9 9 9 9 9 
POINT_DATA 12
VECTORS displacement_ITER1 FLOAT
 -6.970208e-05  -3.859821e-05  0 
 -7.618606e-05  -1.133252e-04  0 
 -4.052023e-05  -3.727329e-05  0 
 -1.211721e-05  -3.676121e-05  0 
 1.604752e-05  -3.682718e-05  0 
 4.428519e-05  -3.738935e-05  0 
 7.290453e-05  -3.852584e-05  0 
 -4.483368e-05  -1.125174e-04  0 
 -1.366566e-05  -1.121041e-04  0 
 1.740154e-05  -1.120783e-04  0 
 4.852143e-05  -1.124502e-04  0 
 7.982294e-05  -1.132524e-04  0 
VECTORS displacement_ITER2 FLOAT
 -7.093303e-05  -4.158254e-05  0 
 -7.750552e-05  -1.171261e-04  0 
 -4.174144e-05  -4.025014e-05  0 
 -1.311846e-05  -3.978608e-05  0 
 1.532922e-05  -3.990442e-05  0 
 4.379908e-05  -4.052123e-05  0 
 7.247118e-05  -4.171604e-05  0 
 -4.607705e-05  -1.161557e-04  0 
 -1.467052e-05  -1.155312e-04  0 
 1.666973e-05  -1.154412e-04  0 
 4.804778e-05  -1.159148e-04  0 
 7.954969e-05  -1.168714e-04  0 
VECTORS displacement_ITER3 FLOAT
 -7.133243e-05  -4.308717e-05  0 
 -7.799438e-05  -1.192276e-04  0 
 -4.203735e-05  -4.179601e-05  0 
 -1.317391e-05  -4.136347e-05  0 
 1.553875e-05  -4.150281e-05  0 
 4.422890e-05  -4.213093e-05  0 
 7.297229e-05  -4.330880e-05  0 
 -4.634373e-05  -1.182099e-04  0 
 -1.467016e-05  -1.175313e-04  0 
 1.689909e-05  -1.174555e-04  0 
 4.845610e-05  -1.180036e-04  0 
 8.009047e-05  -1.190407e-04  0 
VECTORS displacement_ITER4 FLOAT
 -7.149255e-05  -4.364316e-05  0 
 -7.818071e-05  -1.200748e-04  0 
 -4.212548e-05  -4.239541e-05  0 
 -1.313476e-05  -4.197443e-05  0 
 1.570031e-05  -4.212551e-05  0 
 4.449209e-05  -4.276354e-05  0 
 7.325728e-05  -4.390709e-05  0 
 -4.639335e-05  -1.190546e-04  0 
 -1.460495e-05  -1.183790e-04  0 
 1.704960e-05  -1.183012e-04  0 
 4.868170e-05  -1.188424e-04  0 
 8.040709e-05  -1.198953e-04  0 
VECTORS displacement_ITER5 FLOAT
 -7.164137e-05  -4.397698e-05  0 
 -7.833887e-05  -1.206021e-04  0 
 -4.222798e-05  -4.276771e-05  0 
 -1.316142e-05  -4.235377e-05  0 
 1.573836e-05  -4.251904e-05  0 
 4.458296e-05  -4.317467e-05  0 
 7.334956e-05  -4.428821e-05  0 
 -4.646388e-05  -1.195786e-04  0 
 -1.461935e-05  -1.189082e-04  0 
 1.707195e-05  -1.188171e-04  0 
 4.873774e-05  -1.193319e-04  0 
 8.053263e-05  -1.203904e-04  0 
VECTORS displacement_ITER6 FLOAT
 -7.169235e-05  -4.402404e-05  0 
 -7.839249e-05  -1.207194e-04  0 
 -4.226145e-05  -4.283316e-05  0 
 -1.317422e-05  -4.242166e-05  0 
 1.573658e-05  -4.259783e-05  0 
 4.458674e-05  -4.326918e-05  0 
 7.334104e-05  -4.436948e-05  0 
 -4.648578e-05  -1.196877e-04  0 
 -1.462987e-05  -1.190167e-04  0 
 1.706572e-05  -1.189153e-04  0 
 4.872730e-05  -1.194148e-04  0 
 8.054187e-05  -1.204808e-04  0 
VECTORS displacement_ITER7 FLOAT
 -7.171464e-05  -4.396048e-05  0 
 -7.841786e-05  -1.207252e-04  0 
 -4.226228e-05  -4.279002e-05  0 
 -1.316036e-05  -4.238179e-05  0 
 1.575012e-05  -4.257460e-05  0 
 4.459114e-05  -4.326950e-05  0 
 7.331948e-05  -4.435614e-05  0 
 -4.647816e-05  -1.196767e-04  0 
 -1.461544e-05  -1.190008e-04  0 
 1.707943e-05  -1.188856e-04  0 
 4.871976e-05  -1.193695e-04  0 
 8.054058e-05  -1.204520e-04  0 
VECTORS displacement_ITER8 FLOAT
 -7.172552e-05  -4.388649e-05  0 
 -7.843070e-05  -1.207065e-04  0 
 -4.225391e-05  -4.273053e-05  0 
 -1.314172e-05  -4.232717e-05  0 
 1.576703e-05  -4.253468e-05  0 
 4.459731e-05  -4.324799e-05  0 
 7.330358e-05  -4.432600e-05  0 
 -4.646604e-05  -1.196430e-04  0 
 -1.459655e-05  -1.189607e-04  0 
 1.709859e-05  -1.188341e-04  0 
 4.871952e-05  -1.193072e-04  0 
 8.053832e-05  -1.204045e-04  0 
VECTORS displacement_ITER9 FLOAT
 -7.174173e-05  -4.385010e-05  0 
 -7.844724e-05  -1.207093e-04  0 
 -4.225598e-05  -4.270176e-05  0 
 -1.313691e-05  -4.230477e-05  0 
 1.577186e-05  -4.252292e-05  0 
 4.459479e-05  -4.324640e-05  0 
 7.328839e-05  -4.432131e-05  0 
 -4.646767e-05  -1.196366e-04  0 
 -1.459123e-05  -1.189486e-04  0 
 1.710535e-05  -1.188137e-04  0 
 4.871488e-05  -1.192796e-04  0 
 8.052905e-05  -1.203852e-04  0 
VECTORS displacement_ITER10 FLOAT
 -7.176675e-05  -4.382157e-05  0 
 -7.847166e-05  -1.207242e-04  0 
 -4.226491e-05  -4.267985e-05  0 
 -1.313825e-05  -4.229219e-05  0 
 1.577138e-05  -4.252221e-05  0 
 4.458635e-05  -4.325459e-05  0 
 7.326793e-05  -4.432811e-05  0 
 -4.647710e-05  -1.196429e-04  0 
 -1.459172e-05  -1.189480e-04  0 
 1.710637e-05  -1.188034e-04  0 
 4.870513e-05  -1.192610e-04  0 
 8.051276e-05  -1.203725e-04  0 
VECTORS displacement_ITER11 FLOAT
 -7.178324e-05  -4.379304e-05  0 
 -7.848715e-05  -1.207279e-04  0 
 -4.226822e-05  -4.265533e-05  0 
 -1.313553e-05  -4.227596e-05  0 
 1.577462e-05  -4.251500e-05  0 
 4.458288e-05  -4.325272e-05  0 
 7.325525e-05  -4.432615e-05  0 
 -4.648096e-05  -1.196414e-04  0 
 -1.458835e-05  -1.189406e-04  0 
 1.710992e-05  -1.187881e-04  0 
 4.870086e-05  -1.192392e-04  0 
 8.050219e-05  -1.203528e-04  0 
VECTORS displacement_ITER12 FLOAT
 -7.178953e-05  -4.375691e-05  0 
 -7.849259e-05  -1.207169e-04  0 
 -4.226273e-05  -4.262175e-05  0 
 -1.312458e-05  -4.224975e-05  0 
 1.578545e-05  -4.249592e-05  0 
 4.458742e-05  -4.323691e-05  0 
 7.325167e-05  -4.431095e-05  0 
 -4.647586e-05  -1.196272e-04  0 
 -1.457700e-05  -1.189207e-04  0 
 1.712044e-05  -1.187615e-04  0 
 4.870493e-05  -1.192077e-04  0 
 8.049937e-05  -1.203209e-04  0 
VECTORS displacement_ITER13 FLOAT
 -7.179483e-05  -4.374160e-05  0 
 -7.849821e-05  -1.207171e-04  0 
 -4.226132e-05  -4.260791e-05  0 
 -1.311953e-05  -4.224060e-05  0 
 1.578998e-05  -4.249095e-05  0 
 4.458838e-05  -4.323370e-05  0 
 7.324837e-05  -4.430883e-05  0 
 -4.647462e-05  -1.196260e-04  0 
 -1.457159e-05  -1.189150e-04  0 
 1.712510e-05  -1.187515e-04  0 
 4.870596e-05  -1.191956e-04  0 
 8.049518e-05  -1.203073e-04  0 
VECTORS displacement_ITER14 FLOAT
 -7.180164e-05  -4.373779e-05  0 
 -7.850577e-05  -1.207241e-04  0 
 -4.226412e-05  -4.260515e-05  0 
 -1.311982e-05  -4.224121e-05  0 
 1.578895e-05  -4.249454e-05  0 
 4.458505e-05  -4.323863e-05  0 
 7.324251e-05  -4.431498e-05  0 
 -4.647745e-05  -1.196325e-04  0 
 -1.457148e-05  -1.189178e-04  0 
 1.712437e-05  -1.187511e-04  0 
 4.870284e-05  -1.191940e-04  0 
 8.048787e-05  -1.203038e-04  0 
VECTORS displacement_ITER15 FLOAT
 -7.180254e-05  -4.373233e-05  0 
 -7.850703e-05  -1.207227e-04  0 
 -4.226325e-05  -4.259986e-05  0 
 -1.311776e-05  -4.223731e-05  0 
 1.579046e-05  -4.249190e-05  0 
 4.458541e-05  -4.323652e-05  0 
 7.324134e-05  -4.431362e-05  0 
 -4.647657e-05  -1.196309e-04  0 
 -1.456939e-05  -1.189146e-04  0 
 1.712581e-05  -1.187465e-04  0 
 4.870337e-05  -1.191888e-04  0 
 8.048590e-05  -1.202972e-04  0 
VECTORS displacement_ITER16 FLOAT
 -7.180328e-05  -4.373083e-05  0 
 -7.850799e-05  -1.207233e-04  0 
 -4.226321e-05  -4.259834e-05  0 
 -1.311709e-05  -4.223647e-05  0 
 1.579108e-05  -4.249163e-05  0 
 4.458555e-05  -4.323653e-05  0 
 7.324073e-05  -4.431417e-05  0 
 -4.647654e-05  -1.196314e-04  0 
 -1.456876e-05  -1.189143e-04  0 
 1.712640e-05  -1.187455e-04  0 
 4.870368e-05  -1.191874e-04  0 
 8.048485e-05  -1.202951e-04  0 
VECTORS displacement_ITER17 FLOAT
 -7.180358e-05  -4.373023e-05  0 
 -7.850843e-05  -1.207233e-04  0 
 -4.226335e-05  -4.259773e-05  0 
 -1.311710e-05  -4.223606e-05  0 
 1.579103e-05  -4.249143e-05  0 
 4.458518e-05  -4.323654e-05  0 
 7.323999e-05  -4.431448e-05  0 
 -4.647667e-05  -1.196313e-04  0 
 -1.456878e-05  -1.189139e-04  0 
 1.712636e-05  -1.187449e-04  0 
 4.870340e-05  -1.191866e-04  0 
 8.048392e-05  -1.202939e-04  0 
VECTORS displacement_ITER18 FLOAT
 -7.180356e-05  -4.372979e-05  0 
 -7.850845e-05  -1.207231e-04  0 
 -4.226323e-05  -4.259729e-05  0 
 -1.311690e-05  -4.223567e-05  0 
 1.579125e-05  -4.249111e-05  0 
 4.458526e-05  -4.323639e-05  0 
 7.323984e-05  -4.431445e-05  0 
 -4.647655e-05  -1.196311e-04  0 
 -1.456859e-05  -1.189136e-04  0 
 1.712656e-05  -1.187444e-04  0 
 4.870351e-05  -1.191860e-04  0 
 8.048372e-05  -1.202932e-04  0 
VECTORS displacement_ITER19 FLOAT
 -7.180362e-05  -4.372965e-05  0 
 -7.850854e-05  -1.207231e-04  0 
 -4.226326e-05  -4.259717e-05  0 
 -1.311689e-05  -4.223555e-05  0 
 1.579127e-05  -4.249105e-05  0 
 4.458522e-05  -4.323643e-05  0 
 7.323967e-05  -4.431454e-05  0 
 -4.647657e-05  -1.196310e-04  0 
 -1.456857e-05  -1.189135e-04  0 
 1.712657e-05  -1.187443e-04  0 
 4.870347e-05  -1.191858e-04  0 
 8.048352e-05  -1.202929e-04  0 
VECTORS displacement_ITER20 FLOAT
 -7.180368e-05  -4.372964e-05  0 
 -7.850862e-05  -1.207231e-04  0 
 -4.226329e-05  -4.259715e-05  0 
 -1.311689e-05  -4.223556e-05  0 
 1.579129e-05  -4.249108e-05  0 
 4.458523e-05  -4.323651e-05  0 
 7.323961e-05  -4.431465e-05  0 
 -4.647659e-05  -1.196311e-04  0 
 -1.456857e-05  -1.189136e-04  0 
 1.712659e-05  -1.187444e-04  0 
 4.870348e-05  -1.191858e-04  0 
 8.048347e-05  -1.202929e-04  0 
VECTORS displacement_ITER21 FLOAT
 -7.180369e-05  -4.372960e-05  0 
 -7.850863e-05  -1.207232e-04  0 
 -4.226328e-05  -4.259711e-05  0 
 -1.311686e-05  -4.223552e-05  0 
 1.579133e-05  -4.249106e-05  0 
 4.458526e-05  -4.323650e-05  0 
 7.323961e-05  -4.431465e-05  0 
 -4.647658e-05  -1.196311e-04  0 
 -1.456854e-05  -1.189136e-04  0 
 1.712664e-05  -1.187443e-04  0 
 4.870351e-05  -1.191858e-04  0 
 8.048347e-05  -1.202928e-04  0 
VECTORS displacement_ITER22 FLOAT
 -7.180370e-05  -4.372959e-05  0 
 -7.850864e-05  -1.207232e-04  0 
 -4.226329e-05  -4.259711e-05  0 
 -1.311687e-05  -4.223551e-05  0 
 1.579133e-05  -4.249106e-05  0 
 4.458525e-05  -4.323652e-05  0 
 7.323959e-05  -4.431467e-05  0 
 -4.647659e-05  -1.196311e-04  0 
 -1.456854e-05  -1.189136e-04  0 
 1.712664e-05  -1.187443e-04  0 
 4.870349e-05  -1.191857e-04  0 
 8.048344e-05  -1.202928e-04  0 
VECTORS displacement_ITER23 FLOAT
 -7.180370e-05  -4.372958e-05  0 
 -7.850864e-05  -1.207231e-04  0 
 -4.226328e-05  -4.259710e-05  0 
 -1.311686e-05  -4.223550e-05  0 
 1.579133e-05  -4.249105e-05  0 
 4.458525e-05  -4.323652e-05  0 
 7.323959e-05  -4.431466e-05  0 
 -4.647659e-05  -1.196311e-04  0 
 -1.456854e-05  -1.189136e-04  0 
 1.712664e-05  -1.187443e-04  0 
 4.870349e-05  -1.191857e-04  0 
 8.048343e-05  -1.202928e-04  0 
VECTORS displacement_ITER24 FLOAT
 -7.180370e-05  -4.372957e-05  0 
 -7.850864e-05  -1.207231e-04  0 
 -4.226328e-05  -4.259709e-05  0 
 -1.311686e-05  -4.223550e-05  0 
 1.579133e-05  -4.249105e-05  0 
 4.458525e-05  -4.323651e-05  0 
 7.323959e-05  -4.431466e-05  0 
 -4.647659e-05  -1.196311e-04  0 
 -1.456854e-05  -1.189136e-04  0 
 1.712665e-05  -1.187443e-04  0 
 4.870350e-05  -1.191857e-04  0 
 8.048343e-05  -1.202928e-04  0 
VECTORS displacement_ITER25 FLOAT
 -7.180370e-05  -4.372957e-05  0 
 -7.850864e-05  -1.207231e-04  0 
 -4.226328e-05  -4.259709e-05  0 
 -1.311686e-05  -4.223550e-05  0 
 1.579133e-05  -4.249105e-05  0 
 4.458525e-05  -4.323652e-05  0 
 7.323959e-05  -4.431466e-05  0 
 -4.647659e-05  -1.196311e-04  0 
 -1.456854e-05  -1.189136e-04  0 
 1.712665e-05  -1.187443e-04  0 
 4.870350e-05  -1.191857e-04  0 
 8.048343e-05  -1.202928e-04  0 
CELL_DATA 5
TENSORS element_stresses FLOAT
 -1.016469e-02  -7.418016e-05  0 
 -7.418016e-05  2.511869e-03  0 
 0  0  0 

 -5.335888e-03  -8.276406e-04  0 
 -8.276406e-04  1.097007e-03  0 
 0  0  0 

 -1.989750e-04  -1.094554e-03  0 
 -1.094554e-03  -2.753604e-04  0 
 0  0  0 

 5.014737e-03  -9.811970e-04  0 
 -9.811970e-04  -1.462750e-03  0 
 0  0  0 

 1.068481e-02  -6.474282e-04  0 
 -6.474282e-04  -2.257600e-03  0 
 0  0  0 

TENSORS element_stresses FLOAT
 -1.016469e-02  -7.418016e-05  0 
 -7.418016e-05  2.511869e-03  0 
 0  0  0 

 -5.335888e-03  -8.276406e-04  0 
 -8.276406e-04  1.097007e-03  0 
 0  0  0 

 -1.989750e-04  -1.094554e-03  0 
 -1.094554e-03  -2.753604e-04  0 
 0  0  0 

 5.014737e-03  -9.811970e-04  0 
 -9.811970e-04  -1.462750e-03  0 
 0  0  0 

 1.068481e-02  -6.474282e-04  0 
 -6.474282e-04  -2.257600e-03  0 
 0  0  0 

