# vtk DataFile Version 3.1
this is an vtk file created by FEMAC
ASCII
DATASET UNSTRUCTURED_GRID
POINTS 12 FLOAT
2.500000 0.000000 0.000000
3.000000 0.000000 0.000000
2.500000 0.200000 0.000000
2.500000 0.400000 0.000000
2.500000 0.600000 0.000000
2.500000 0.800000 0.000000
2.500000 1.000000 0.000000
3.000000 0.200000 0.000000
3.000000 0.400000 0.000000
3.000000 0.600000 0.000000
3.000000 0.800000 0.000000
3.000000 1.000000 0.000000
CELLS 5 25 
4 0 1 7 2
4 2 7 8 3
4 3 8 9 4
4 4  9 10  5
4 5 10 11  6
CELL_TYPES 5
9 9 9 9 9 
POINT_DATA 12
VECTORS displacement_ITER1 FLOAT
 -1.784716e-04  -5.222546e-04  0 
 -1.820386e-04  -7.042864e-04  0 
 -1.064102e-04  -5.217745e-04  0 
 -3.442877e-05  -5.215031e-04  0 
 3.750352e-05  -5.215030e-04  0 
 1.094849e-04  -5.217743e-04  0 
 1.815463e-04  -5.222542e-04  0 
 -1.085221e-04  -7.038879e-04  0 
 -3.513158e-05  -7.037080e-04  0 
 3.820622e-05  -7.037079e-04  0 
 1.115967e-04  -7.038877e-04  0 
 1.851133e-04  -7.042861e-04  0 
VECTORS displacement_ITER2 FLOAT
 -1.771607e-04  -5.257778e-04  0 
 -1.807877e-04  -7.061637e-04  0 
 -1.057721e-04  -5.252007e-04  0 
 -3.447480e-05  -5.249096e-04  0 
 3.678407e-05  -5.249096e-04  0 
 1.080813e-04  -5.252007e-04  0 
 1.794699e-04  -5.257778e-04  0 
 -1.079376e-04  -7.056707e-04  0 
 -3.519700e-05  -7.054218e-04  0 
 3.750626e-05  -7.054218e-04  0 
 1.102468e-04  -7.056707e-04  0 
 1.830970e-04  -7.061637e-04  0 
VECTORS displacement_ITER3 FLOAT
 -1.765452e-04  -5.281737e-04  0 
 -1.801842e-04  -7.079558e-04  0 
 -1.053780e-04  -5.275430e-04  0 
 -3.432251e-05  -5.272389e-04  0 
 3.669144e-05  -5.272304e-04  0 
 1.077305e-04  -5.275219e-04  0 
 1.788761e-04  -5.281491e-04  0 
 -1.075757e-04  -7.074223e-04  0 
 -3.506504e-05  -7.071386e-04  0 
 3.741610e-05  -7.071386e-04  0 
 1.099267e-04  -7.074224e-04  0 
 1.825352e-04  -7.079559e-04  0 
VECTORS displacement_ITER4 FLOAT
 -1.764773e-04  -5.285780e-04  0 
 -1.801302e-04  -7.082611e-04  0 
 -1.053642e-04  -5.279267e-04  0 
 -3.437950e-05  -5.276326e-04  0 
 3.657608e-05  -5.276393e-04  0 
 1.075718e-04  -5.279469e-04  0 
 1.787041e-04  -5.286047e-04  0 
 -1.075777e-04  -7.077192e-04  0 
 -3.511572e-05  -7.074211e-04  0 
 3.731914e-05  -7.074170e-04  0 
 1.097870e-04  -7.077086e-04  0 
 1.823505e-04  -7.082482e-04  0 
VECTORS displacement_ITER5 FLOAT
 -1.763941e-04  -5.286870e-04  0 
 -1.800465e-04  -7.082968e-04  0 
 -1.052777e-04  -5.280166e-04  0 
 -3.431602e-05  -5.277203e-04  0 
 3.661111e-05  -5.277235e-04  0 
 1.075798e-04  -5.280281e-04  0 
 1.787029e-04  -5.287013e-04  0 
 -1.075048e-04  -7.077566e-04  0 
 -3.505286e-05  -7.074569e-04  0 
 3.736339e-05  -7.074606e-04  0 
 1.098091e-04  -7.077662e-04  0 
 1.823401e-04  -7.083090e-04  0 
VECTORS displacement_ITER6 FLOAT
 -1.763957e-04  -5.287784e-04  0 
 -1.800340e-04  -7.083742e-04  0 
 -1.052695e-04  -5.281013e-04  0 
 -3.431101e-05  -5.278051e-04  0 
 3.660551e-05  -5.278047e-04  0 
 1.075636e-04  -5.281028e-04  0 
 1.786847e-04  -5.287794e-04  0 
 -1.075046e-04  -7.078340e-04  0 
 -3.505836e-05  -7.075262e-04  0 
 3.735300e-05  -7.075272e-04  0 
 1.097987e-04  -7.078359e-04  0 
 1.823252e-04  -7.083765e-04  0 
VECTORS displacement_ITER7 FLOAT
 -1.764047e-04  -5.289291e-04  0 
 -1.800299e-04  -7.085191e-04  0 
 -1.052708e-04  -5.282486e-04  0 
 -3.431641e-05  -5.279574e-04  0 
 3.658664e-05  -5.279568e-04  0 
 1.075372e-04  -5.282485e-04  0 
 1.786631e-04  -5.289278e-04  0 
 -1.075145e-04  -7.079798e-04  0 
 -3.507168e-05  -7.076613e-04  0 
 3.733442e-05  -7.076600e-04  0 
 1.097800e-04  -7.079751e-04  0 
 1.822995e-04  -7.085131e-04  0 
VECTORS displacement_ITER8 FLOAT
 -1.764006e-04  -5.290025e-04  0 
 -1.800219e-04  -7.085853e-04  0 
 -1.052643e-04  -5.283214e-04  0 
 -3.431450e-05  -5.280341e-04  0 
 3.657629e-05  -5.280353e-04  0 
 1.075228e-04  -5.283247e-04  0 
 1.786540e-04  -5.290061e-04  0 
 -1.075132e-04  -7.080479e-04  0 
 -3.507108e-05  -7.077235e-04  0 
 3.732956e-05  -7.077231e-04  0 
 1.097718e-04  -7.080456e-04  0 
 1.822820e-04  -7.085825e-04  0 
VECTORS displacement_ITER9 FLOAT
 -1.763976e-04  -5.289734e-04  0 
 -1.800183e-04  -7.085512e-04  0 
 -1.052609e-04  -5.282929e-04  0 
 -3.431336e-05  -5.280065e-04  0 
 3.656975e-05  -5.280090e-04  0 
 1.075146e-04  -5.282986e-04  0 
 1.786475e-04  -5.289803e-04  0 
 -1.075113e-04  -7.080151e-04  0 
 -3.506992e-05  -7.076882e-04  0 
 3.732654e-05  -7.076885e-04  0 
 1.097661e-04  -7.080151e-04  0 
 1.822713e-04  -7.085518e-04  0 
VECTORS displacement_ITER10 FLOAT
 -1.764018e-04  -5.288977e-04  0 
 -1.800217e-04  -7.084756e-04  0 
 -1.052642e-04  -5.282186e-04  0 
 -3.431689e-05  -5.279325e-04  0 
 3.656163e-05  -5.279355e-04  0 
 1.075059e-04  -5.282250e-04  0 
 1.786392e-04  -5.289057e-04  0 
 -1.075149e-04  -7.079399e-04  0 
 -3.507421e-05  -7.076104e-04  0 
 3.731923e-05  -7.076102e-04  0 
 1.097579e-04  -7.079395e-04  0 
 1.822622e-04  -7.084759e-04  0 
VECTORS displacement_ITER11 FLOAT
 -1.764090e-04  -5.288473e-04  0 
 -1.800286e-04  -7.084328e-04  0 
 -1.052699e-04  -5.281699e-04  0 
 -3.432064e-05  -5.278855e-04  0 
 3.655962e-05  -5.278885e-04  0 
 1.075054e-04  -5.281763e-04  0 
 1.786387e-04  -5.288550e-04  0 
 -1.075195e-04  -7.078965e-04  0 
 -3.507793e-05  -7.075653e-04  0 
 3.731568e-05  -7.075642e-04  0 
 1.097559e-04  -7.078944e-04  0 
 1.822633e-04  -7.084309e-04  0 
VECTORS displacement_ITER12 FLOAT
 -1.764129e-04  -5.288392e-04  0 
 -1.800341e-04  -7.084354e-04  0 
 -1.052723e-04  -5.281636e-04  0 
 -3.432069e-05  -5.278822e-04  0 
 3.656529e-05  -5.278851e-04  0 
 1.075134e-04  -5.281701e-04  0 
 1.786475e-04  -5.288468e-04  0 
 -1.075200e-04  -7.078983e-04  0 
 -3.507592e-05  -7.075666e-04  0 
 3.731943e-05  -7.075654e-04  0 
 1.097617e-04  -7.078959e-04  0 
 1.822737e-04  -7.084330e-04  0 
VECTORS displacement_ITER13 FLOAT
 -1.764146e-04  -5.288493e-04  0 
 -1.800374e-04  -7.084486e-04  0 
 -1.052731e-04  -5.281740e-04  0 
 -3.432183e-05  -5.278936e-04  0 
 3.656620e-05  -5.278963e-04  0 
 1.075143e-04  -5.281806e-04  0 
 1.786492e-04  -5.288570e-04  0 
 -1.075201e-04  -7.079111e-04  0 
 -3.507534e-05  -7.075797e-04  0 
 3.731941e-05  -7.075786e-04  0 
 1.097616e-04  -7.079088e-04  0 
 1.822761e-04  -7.084464e-04  0 
VECTORS displacement_ITER14 FLOAT
 -1.764186e-04  -5.288501e-04  0 
 -1.800419e-04  -7.084506e-04  0 
 -1.052763e-04  -5.281746e-04  0 
 -3.432528e-05  -5.278940e-04  0 
 3.656243e-05  -5.278964e-04  0 
 1.075104e-04  -5.281809e-04  0 
 1.786463e-04  -5.288575e-04  0 
 -1.075235e-04  -7.079124e-04  0 
 -3.507860e-05  -7.075808e-04  0 
 3.731533e-05  -7.075796e-04  0 
 1.097576e-04  -7.079094e-04  0 
 1.822736e-04  -7.084475e-04  0 
VECTORS displacement_ITER15 FLOAT
 -1.764198e-04  -5.288483e-04  0 
 -1.800431e-04  -7.084509e-04  0 
 -1.052769e-04  -5.281731e-04  0 
 -3.432478e-05  -5.278921e-04  0 
 3.656251e-05  -5.278943e-04  0 
 1.075119e-04  -5.281789e-04  0 
 1.786486e-04  -5.288552e-04  0 
 -1.075244e-04  -7.079122e-04  0 
 -3.507865e-05  -7.075802e-04  0 
 3.731617e-05  -7.075790e-04  0 
 1.097593e-04  -7.079092e-04  0 
 1.822754e-04  -7.084477e-04  0 
VECTORS displacement_ITER16 FLOAT
 -1.764192e-04  -5.288503e-04  0 
 -1.800425e-04  -7.084524e-04  0 
 -1.052766e-04  -5.281753e-04  0 
 -3.432438e-05  -5.278943e-04  0 
 3.656217e-05  -5.278964e-04  0 
 1.075117e-04  -5.281808e-04  0 
 1.786486e-04  -5.288569e-04  0 
 -1.075240e-04  -7.079137e-04  0 
 -3.507871e-05  -7.075819e-04  0 
 3.731627e-05  -7.075808e-04  0 
 1.097591e-04  -7.079108e-04  0 
 1.822749e-04  -7.084493e-04  0 
VECTORS displacement_ITER17 FLOAT
 -1.764188e-04  -5.288479e-04  0 
 -1.800421e-04  -7.084494e-04  0 
 -1.052764e-04  -5.281728e-04  0 
 -3.432453e-05  -5.278917e-04  0 
 3.656184e-05  -5.278937e-04  0 
 1.075111e-04  -5.281781e-04  0 
 1.786481e-04  -5.288542e-04  0 
 -1.075239e-04  -7.079106e-04  0 
 -3.507902e-05  -7.075787e-04  0 
 3.731610e-05  -7.075777e-04  0 
 1.097586e-04  -7.079078e-04  0 
 1.822742e-04  -7.084462e-04  0 
VECTORS displacement_ITER18 FLOAT
 -1.764185e-04  -5.288477e-04  0 
 -1.800419e-04  -7.084489e-04  0 
 -1.052763e-04  -5.281726e-04  0 
 -3.432450e-05  -5.278914e-04  0 
 3.656192e-05  -5.278933e-04  0 
 1.075111e-04  -5.281776e-04  0 
 1.786482e-04  -5.288538e-04  0 
 -1.075237e-04  -7.079101e-04  0 
 -3.507898e-05  -7.075783e-04  0 
 3.731613e-05  -7.075773e-04  0 
 1.097587e-04  -7.079074e-04  0 
 1.822742e-04  -7.084459e-04  0 
VECTORS displacement_ITER19 FLOAT
 -1.764185e-04  -5.288475e-04  0 
 -1.800419e-04  -7.084485e-04  0 
 -1.052763e-04  -5.281724e-04  0 
 -3.432460e-05  -5.278912e-04  0 
 3.656188e-05  -5.278930e-04  0 
 1.075111e-04  -5.281773e-04  0 
 1.786482e-04  -5.288534e-04  0 
 -1.075237e-04  -7.079098e-04  0 
 -3.507902e-05  -7.075780e-04  0 
 3.731601e-05  -7.075770e-04  0 
 1.097586e-04  -7.079072e-04  0 
 1.822742e-04  -7.084456e-04  0 
VECTORS displacement_ITER20 FLOAT
 -1.764185e-04  -5.288478e-04  0 
 -1.800419e-04  -7.084488e-04  0 
 -1.052764e-04  -5.281727e-04  0 
 -3.432468e-05  -5.278914e-04  0 
 3.656187e-05  -5.278933e-04  0 
 1.075111e-04  -5.281775e-04  0 
 1.786483e-04  -5.288536e-04  0 
 -1.075238e-04  -7.079101e-04  0 
 -3.507906e-05  -7.075783e-04  0 
 3.731596e-05  -7.075774e-04  0 
 1.097587e-04  -7.079076e-04  0 
 1.822743e-04  -7.084460e-04  0 
VECTORS displacement_ITER21 FLOAT
 -1.764184e-04  -5.288478e-04  0 
 -1.800419e-04  -7.084487e-04  0 
 -1.052764e-04  -5.281727e-04  0 
 -3.432469e-05  -5.278914e-04  0 
 3.656188e-05  -5.278932e-04  0 
 1.075111e-04  -5.281775e-04  0 
 1.786484e-04  -5.288536e-04  0 
 -1.075238e-04  -7.079100e-04  0 
 -3.507906e-05  -7.075783e-04  0 
 3.731596e-05  -7.075774e-04  0 
 1.097587e-04  -7.079076e-04  0 
 1.822744e-04  -7.084460e-04  0 
VECTORS displacement_ITER22 FLOAT
 -1.764184e-04  -5.288478e-04  0 
 -1.800419e-04  -7.084487e-04  0 
 -1.052764e-04  -5.281727e-04  0 
 -3.432470e-05  -5.278914e-04  0 
 3.656186e-05  -5.278932e-04  0 
 1.075111e-04  -5.281774e-04  0 
 1.786484e-04  -5.288536e-04  0 
 -1.075238e-04  -7.079100e-04  0 
 -3.507908e-05  -7.075783e-04  0 
 3.731594e-05  -7.075773e-04  0 
 1.097587e-04  -7.079076e-04  0 
 1.822744e-04  -7.084460e-04  0 
VECTORS displacement_ITER23 FLOAT
 -1.764184e-04  -5.288478e-04  0 
 -1.800419e-04  -7.084486e-04  0 
 -1.052764e-04  -5.281727e-04  0 
 -3.432471e-05  -5.278913e-04  0 
 3.656185e-05  -5.278932e-04  0 
 1.075111e-04  -5.281774e-04  0 
 1.786484e-04  -5.288535e-04  0 
 -1.075238e-04  -7.079099e-04  0 
 -3.507909e-05  -7.075782e-04  0 
 3.731594e-05  -7.075773e-04  0 
 1.097587e-04  -7.079075e-04  0 
 1.822744e-04  -7.084459e-04  0 
VECTORS displacement_ITER24 FLOAT
 -1.764184e-04  -5.288478e-04  0 
 -1.800419e-04  -7.084486e-04  0 
 -1.052764e-04  -5.281726e-04  0 
 -3.432471e-05  -5.278913e-04  0 
 3.656185e-05  -5.278931e-04  0 
 1.075111e-04  -5.281774e-04  0 
 1.786484e-04  -5.288535e-04  0 
 -1.075238e-04  -7.079099e-04  0 
 -3.507909e-05  -7.075782e-04  0 
 3.731594e-05  -7.075773e-04  0 
 1.097587e-04  -7.079075e-04  0 
 1.822744e-04  -7.084459e-04  0 
VECTORS displacement_ITER25 FLOAT
 -1.764184e-04  -5.288478e-04  0 
 -1.800419e-04  -7.084486e-04  0 
 -1.052764e-04  -5.281726e-04  0 
 -3.432471e-05  -5.278913e-04  0 
 3.656185e-05  -5.278931e-04  0 
 1.075111e-04  -5.281774e-04  0 
 1.786484e-04  -5.288535e-04  0 
 -1.075238e-04  -7.079099e-04  0 
 -3.507910e-05  -7.075782e-04  0 
 3.731594e-05  -7.075773e-04  0 
 1.097587e-04  -7.079075e-04  0 
 1.822744e-04  -7.084459e-04  0 
CELL_DATA 5
TENSORS element_stresses FLOAT
 -5.451078e-03  -1.445192e-04  0 
 -1.445192e-04  1.399266e-03  0 
 0  0  0 

 -2.793451e-03  -7.177961e-04  0 
 -7.177961e-04  6.945085e-04  0 
 0  0  0 

 -1.054180e-06  -8.977228e-04  0 
 -8.977228e-04  -2.530242e-06  0 
 0  0  0 

 2.792106e-03  -7.186133e-04  0 
 -7.186133e-04  -6.984786e-04  0 
 0  0  0 

 5.453477e-03  -1.463485e-04  0 
 -1.463485e-04  -1.400273e-03  0 
 0  0  0 

TENSORS element_stresses FLOAT
 -5.451078e-03  -1.445192e-04  0 
 -1.445192e-04  1.399266e-03  0 
 0  0  0 

 -2.793451e-03  -7.177961e-04  0 
 -7.177961e-04  6.945085e-04  0 
 0  0  0 

 -1.054180e-06  -8.977228e-04  0 
 -8.977228e-04  -2.530242e-06  0 
 0  0  0 

 2.792106e-03  -7.186133e-04  0 
 -7.186133e-04  -6.984786e-04  0 
 0  0  0 

 5.453477e-03  -1.463485e-04  0 
 -1.463485e-04  -1.400273e-03  0 
 0  0  0 

