# vtk DataFile Version 3.1
this is an vtk file created by FEMAC
ASCII
DATASET UNSTRUCTURED_GRID
POINTS 12 FLOAT
3.500000 0.000000 0.000000
4.000000 0.000000 0.000000
3.500000 0.200000 0.000000
3.500000 0.400000 0.000000
3.500000 0.600000 0.000000
3.500000 0.800000 0.000000
3.500000 1.000000 0.000000
4.000000 0.200000 0.000000
4.000000 0.400000 0.000000
4.000000 0.600000 0.000000
4.000000 0.800000 0.000000
4.000000 1.000000 0.000000
CELLS 5 25 
4 0 1 7 2
4 2 7 8 3
4 3 8 9 4
4 4  9 10  5
4 5 10 11  6
CELL_TYPES 5
9 9 9 9 9 
POINT_DATA 12
VECTORS displacement_ITER1 FLOAT
 -2.098790e-04  -9.043213e-04  0 
 -2.122158e-04  -1.117098e-03  0 
 -1.252657e-04  -9.040076e-04  0 
 -4.071694e-05  -9.038173e-04  0 
 4.379267e-05  -9.038172e-04  0 
 1.283414e-04  -9.040074e-04  0 
 2.129547e-04  -9.043209e-04  0 
 -1.266487e-04  -1.116846e-03  0 
 -4.117746e-05  -1.116744e-03  0 
 4.425309e-05  -1.116744e-03  0 
 1.297243e-04  -1.116846e-03  0 
 2.152914e-04  -1.117098e-03  0 
VECTORS displacement_ITER2 FLOAT
 -2.080190e-04  -9.047127e-04  0 
 -2.103972e-04  -1.115283e-03  0 
 -1.243002e-04  -9.043311e-04  0 
 -4.065388e-05  -9.041326e-04  0 
 4.296321e-05  -9.041326e-04  0 
 1.266095e-04  -9.043311e-04  0 
 2.103283e-04  -9.047126e-04  0 
 -1.257206e-04  -1.114966e-03  0 
 -4.112790e-05  -1.114810e-03  0 
 4.343723e-05  -1.114810e-03  0 
 1.280299e-04  -1.114966e-03  0 
 2.127065e-04  -1.115283e-03  0 
VECTORS displacement_ITER3 FLOAT
 -2.071490e-04  -9.059397e-04  0 
 -2.095419e-04  -1.115636e-03  0 
 -1.237766e-04  -9.055214e-04  0 
 -4.049008e-05  -9.053217e-04  0 
 4.277087e-05  -9.053217e-04  0 
 1.260574e-04  -9.055215e-04  0 
 2.094298e-04  -9.059398e-04  0 
 -1.252190e-04  -1.115291e-03  0 
 -4.097235e-05  -1.115109e-03  0 
 4.325319e-05  -1.115109e-03  0 
 1.274999e-04  -1.115291e-03  0 
 2.118227e-04  -1.115636e-03  0 
VECTORS displacement_ITER4 FLOAT
 -2.069022e-04  -9.059708e-04  0 
 -2.092981e-04  -1.115426e-03  0 
 -1.236155e-04  -9.055338e-04  0 
 -4.043231e-05  -9.053351e-04  0 
 4.272523e-05  -9.053379e-04  0 
 1.259137e-04  -9.055409e-04  0 
 2.092075e-04  -9.059791e-04  0 
 -1.250701e-04  -1.115079e-03  0 
 -4.091642e-05  -1.114888e-03  0 
 4.321521e-05  -1.114888e-03  0 
 1.273689e-04  -1.115079e-03  0 
 2.115969e-04  -1.115427e-03  0 
VECTORS displacement_ITER5 FLOAT
 -2.067672e-04  -9.058502e-04  0 
 -2.091531e-04  -1.115163e-03  0 
 -1.235080e-04  -9.053976e-04  0 
 -4.037260e-05  -9.051942e-04  0 
 4.272738e-05  -9.051903e-04  0 
 1.258559e-04  -9.053873e-04  0 
 2.091046e-04  -9.058373e-04  0 
 -1.249732e-04  -1.114817e-03  0 
 -4.086627e-05  -1.114621e-03  0 
 4.321537e-05  -1.114622e-03  0 
 1.273205e-04  -1.114821e-03  0 
 2.114967e-04  -1.115168e-03  0 
VECTORS displacement_ITER6 FLOAT
 -2.067697e-04  -9.058732e-04  0 
 -2.091529e-04  -1.115156e-03  0 
 -1.235262e-04  -9.054175e-04  0 
 -4.041237e-05  -9.052201e-04  0 
 4.266707e-05  -9.052201e-04  0 
 1.257802e-04  -9.054176e-04  0 
 2.090244e-04  -9.058737e-04  0 
 -1.249963e-04  -1.114810e-03  0 
 -4.090697e-05  -1.114607e-03  0 
 4.315763e-05  -1.114605e-03  0 
 1.272500e-04  -1.114805e-03  0 
 2.114120e-04  -1.115150e-03  0 
VECTORS displacement_ITER7 FLOAT
 -2.067339e-04  -9.059975e-04  0 
 -2.091176e-04  -1.115243e-03  0 
 -1.235012e-04  -9.055393e-04  0 
 -4.040609e-05  -9.053491e-04  0 
 4.265352e-05  -9.053509e-04  0 
 1.257521e-04  -9.055446e-04  0 
 2.089908e-04  -9.060046e-04  0 
 -1.249762e-04  -1.114900e-03  0 
 -4.089742e-05  -1.114691e-03  0 
 4.315108e-05  -1.114692e-03  0 
 1.272281e-04  -1.114902e-03  0 
 2.113674e-04  -1.115246e-03  0 
VECTORS displacement_ITER8 FLOAT
 -2.067063e-04  -9.060586e-04  0 
 -2.090847e-04  -1.115279e-03  0 
 -1.234760e-04  -9.055985e-04  0 
 -4.039004e-05  -9.054112e-04  0 
 4.265595e-05  -9.054115e-04  0 
 1.257434e-04  -9.055999e-04  0 
 2.089754e-04  -9.060603e-04  0 
 -1.249547e-04  -1.114938e-03  0 
 -4.088393e-05  -1.114724e-03  0 
 4.315333e-05  -1.114725e-03  0 
 1.272227e-04  -1.114940e-03  0 
 2.113496e-04  -1.115283e-03  0 
VECTORS displacement_ITER9 FLOAT
 -2.067041e-04  -9.060161e-04  0 
 -2.090782e-04  -1.115230e-03  0 
 -1.234733e-04  -9.055558e-04  0 
 -4.038970e-05  -9.053693e-04  0 
 4.264970e-05  -9.053687e-04  0 
 1.257331e-04  -9.055543e-04  0 
 2.089625e-04  -9.060138e-04  0 
 -1.249535e-04  -1.114888e-03  0 
 -4.088650e-05  -1.114671e-03  0 
 4.314510e-05  -1.114671e-03  0 
 1.272129e-04  -1.114888e-03  0 
 2.113379e-04  -1.115229e-03  0 
VECTORS displacement_ITER10 FLOAT
 -2.067110e-04  -9.059309e-04  0 
 -2.090840e-04  -1.115145e-03  0 
 -1.234794e-04  -9.054719e-04  0 
 -4.039588e-05  -9.052865e-04  0 
 4.263926e-05  -9.052860e-04  0 
 1.257225e-04  -9.054703e-04  0 
 2.089532e-04  -9.059285e-04  0 
 -1.249598e-04  -1.114804e-03  0 
 -4.089326e-05  -1.114585e-03  0 
 4.313473e-05  -1.114584e-03  0 
 1.272023e-04  -1.114803e-03  0 
 2.113280e-04  -1.115144e-03  0 
VECTORS displacement_ITER11 FLOAT
 -2.067178e-04  -9.058905e-04  0 
 -2.090922e-04  -1.115112e-03  0 
 -1.234845e-04  -9.054333e-04  0 
 -4.039876e-05  -9.052488e-04  0 
 4.263600e-05  -9.052487e-04  0 
 1.257222e-04  -9.054327e-04  0 
 2.089564e-04  -9.058898e-04  0 
 -1.249641e-04  -1.114771e-03  0 
 -4.089517e-05  -1.114550e-03  0 
 4.313289e-05  -1.114551e-03  0 
 1.272017e-04  -1.114771e-03  0 
 2.113299e-04  -1.115112e-03  0 
VECTORS displacement_ITER12 FLOAT
 -2.067256e-04  -9.059035e-04  0 
 -2.091007e-04  -1.115137e-03  0 
 -1.234885e-04  -9.054478e-04  0 
 -4.039858e-05  -9.052638e-04  0 
 4.263896e-05  -9.052636e-04  0 
 1.257294e-04  -9.054471e-04  0 
 2.089677e-04  -9.059029e-04  0 
 -1.249674e-04  -1.114795e-03  0 
 -4.089505e-05  -1.114574e-03  0 
 4.313611e-05  -1.114574e-03  0 
 1.272083e-04  -1.114796e-03  0 
 2.113415e-04  -1.115138e-03  0 
VECTORS displacement_ITER13 FLOAT
 -2.067343e-04  -9.059140e-04  0 
 -2.091094e-04  -1.115157e-03  0 
 -1.234940e-04  -9.054588e-04  0 
 -4.040120e-05  -9.052750e-04  0 
 4.263958e-05  -9.052746e-04  0 
 1.257327e-04  -9.054577e-04  0 
 2.089737e-04  -9.059128e-04  0 
 -1.249725e-04  -1.114814e-03  0 
 -4.089806e-05  -1.114592e-03  0 
 4.313614e-05  -1.114592e-03  0 
 1.272110e-04  -1.114814e-03  0 
 2.113486e-04  -1.115157e-03  0 
VECTORS displacement_ITER14 FLOAT
 -2.067404e-04  -9.059148e-04  0 
 -2.091162e-04  -1.115163e-03  0 
 -1.234984e-04  -9.054600e-04  0 
 -4.040435e-05  -9.052769e-04  0 
 4.263898e-05  -9.052765e-04  0 
 1.257335e-04  -9.054592e-04  0 
 2.089763e-04  -9.059139e-04  0 
 -1.249765e-04  -1.114819e-03  0 
 -4.090064e-05  -1.114598e-03  0 
 4.313546e-05  -1.114598e-03  0 
 1.272116e-04  -1.114820e-03  0 
 2.113514e-04  -1.115163e-03  0 
VECTORS displacement_ITER15 FLOAT
 -2.067405e-04  -9.059224e-04  0 
 -2.091161e-04  -1.115171e-03  0 
 -1.234985e-04  -9.054678e-04  0 
 -4.040463e-05  -9.052852e-04  0 
 4.263888e-05  -9.052849e-04  0 
 1.257331e-04  -9.054670e-04  0 
 2.089758e-04  -9.059215e-04  0 
 -1.249765e-04  -1.114827e-03  0 
 -4.090082e-05  -1.114606e-03  0 
 4.313506e-05  -1.114606e-03  0 
 1.272110e-04  -1.114827e-03  0 
 2.113510e-04  -1.115171e-03  0 
VECTORS displacement_ITER16 FLOAT
 -2.067385e-04  -9.059187e-04  0 
 -2.091141e-04  -1.115165e-03  0 
 -1.234970e-04  -9.054639e-04  0 
 -4.040389e-05  -9.052812e-04  0 
 4.263835e-05  -9.052810e-04  0 
 1.257317e-04  -9.054633e-04  0 
 2.089740e-04  -9.059179e-04  0 
 -1.249751e-04  -1.114821e-03  0 
 -4.090021e-05  -1.114600e-03  0 
 4.313467e-05  -1.114600e-03  0 
 1.272099e-04  -1.114822e-03  0 
 2.113492e-04  -1.115166e-03  0 
VECTORS displacement_ITER17 FLOAT
 -2.067383e-04  -9.059162e-04  0 
 -2.091138e-04  -1.115163e-03  0 
 -1.234969e-04  -9.054614e-04  0 
 -4.040381e-05  -9.052788e-04  0 
 4.263824e-05  -9.052785e-04  0 
 1.257316e-04  -9.054609e-04  0 
 2.089736e-04  -9.059155e-04  0 
 -1.249751e-04  -1.114819e-03  0 
 -4.090021e-05  -1.114597e-03  0 
 4.313463e-05  -1.114597e-03  0 
 1.272098e-04  -1.114819e-03  0 
 2.113488e-04  -1.115163e-03  0 
VECTORS displacement_ITER18 FLOAT
 -2.067381e-04  -9.059158e-04  0 
 -2.091136e-04  -1.115162e-03  0 
 -1.234968e-04  -9.054610e-04  0 
 -4.040377e-05  -9.052783e-04  0 
 4.263828e-05  -9.052782e-04  0 
 1.257315e-04  -9.054605e-04  0 
 2.089734e-04  -9.059152e-04  0 
 -1.249749e-04  -1.114818e-03  0 
 -4.090014e-05  -1.114597e-03  0 
 4.313466e-05  -1.114597e-03  0 
 1.272097e-04  -1.114818e-03  0 
 2.113486e-04  -1.115162e-03  0 
VECTORS displacement_ITER19 FLOAT
 -2.067382e-04  -9.059153e-04  0 
 -2.091137e-04  -1.115161e-03  0 
 -1.234968e-04  -9.054605e-04  0 
 -4.040383e-05  -9.052778e-04  0 
 4.263832e-05  -9.052776e-04  0 
 1.257315e-04  -9.054600e-04  0 
 2.089734e-04  -9.059148e-04  0 
 -1.249750e-04  -1.114818e-03  0 
 -4.090017e-05  -1.114596e-03  0 
 4.313467e-05  -1.114596e-03  0 
 1.272097e-04  -1.114818e-03  0 
 2.113486e-04  -1.115162e-03  0 
VECTORS displacement_ITER20 FLOAT
 -2.067383e-04  -9.059157e-04  0 
 -2.091138e-04  -1.115162e-03  0 
 -1.234969e-04  -9.054609e-04  0 
 -4.040384e-05  -9.052783e-04  0 
 4.263835e-05  -9.052781e-04  0 
 1.257316e-04  -9.054605e-04  0 
 2.089735e-04  -9.059153e-04  0 
 -1.249751e-04  -1.114818e-03  0 
 -4.090016e-05  -1.114597e-03  0 
 4.313469e-05  -1.114597e-03  0 
 1.272098e-04  -1.114818e-03  0 
 2.113487e-04  -1.115162e-03  0 
VECTORS displacement_ITER21 FLOAT
 -2.067383e-04  -9.059157e-04  0 
 -2.091138e-04  -1.115162e-03  0 
 -1.234969e-04  -9.054609e-04  0 
 -4.040383e-05  -9.052782e-04  0 
 4.263836e-05  -9.052781e-04  0 
 1.257316e-04  -9.054605e-04  0 
 2.089735e-04  -9.059152e-04  0 
 -1.249751e-04  -1.114818e-03  0 
 -4.090015e-05  -1.114597e-03  0 
 4.313470e-05  -1.114597e-03  0 
 1.272098e-04  -1.114818e-03  0 
 2.113487e-04  -1.115162e-03  0 
VECTORS displacement_ITER22 FLOAT
 -2.067383e-04  -9.059157e-04  0 
 -2.091138e-04  -1.115162e-03  0 
 -1.234969e-04  -9.054609e-04  0 
 -4.040383e-05  -9.052782e-04  0 
 4.263835e-05  -9.052780e-04  0 
 1.257316e-04  -9.054605e-04  0 
 2.089734e-04  -9.059152e-04  0 
 -1.249751e-04  -1.114818e-03  0 
 -4.090016e-05  -1.114597e-03  0 
 4.313470e-05  -1.114597e-03  0 
 1.272098e-04  -1.114818e-03  0 
 2.113487e-04  -1.115162e-03  0 
VECTORS displacement_ITER23 FLOAT
 -2.067383e-04  -9.059156e-04  0 
 -2.091138e-04  -1.115162e-03  0 
 -1.234969e-04  -9.054608e-04  0 
 -4.040383e-05  -9.052781e-04  0 
 4.263835e-05  -9.052780e-04  0 
 1.257316e-04  -9.054604e-04  0 
 2.089734e-04  -9.059152e-04  0 
 -1.249751e-04  -1.114818e-03  0 
 -4.090016e-05  -1.114597e-03  0 
 4.313470e-05  -1.114597e-03  0 
 1.272098e-04  -1.114818e-03  0 
 2.113487e-04  -1.115162e-03  0 
VECTORS displacement_ITER24 FLOAT
 -2.067383e-04  -9.059156e-04  0 
 -2.091138e-04  -1.115162e-03  0 
 -1.234969e-04  -9.054608e-04  0 
 -4.040383e-05  -9.052781e-04  0 
 4.263835e-05  -9.052780e-04  0 
 1.257316e-04  -9.054604e-04  0 
 2.089734e-04  -9.059151e-04  0 
 -1.249751e-04  -1.114818e-03  0 
 -4.090016e-05  -1.114597e-03  0 
 4.313471e-05  -1.114597e-03  0 
 1.272098e-04  -1.114818e-03  0 
 2.113487e-04  -1.115162e-03  0 
VECTORS displacement_ITER25 FLOAT
 -2.067383e-04  -9.059156e-04  0 
 -2.091138e-04  -1.115162e-03  0 
 -1.234969e-04  -9.054608e-04  0 
 -4.040383e-05  -9.052781e-04  0 
 4.263835e-05  -9.052780e-04  0 
 1.257316e-04  -9.054604e-04  0 
 2.089734e-04  -9.059151e-04  0 
 -1.249751e-04  -1.114818e-03  0 
 -4.090016e-05  -1.114597e-03  0 
 4.313470e-05  -1.114597e-03  0 
 1.272098e-04  -1.114818e-03  0 
 2.113487e-04  -1.115162e-03  0 
CELL_DATA 5
TENSORS element_stresses FLOAT
 -3.576608e-03  -1.178406e-04  0 
 -1.178406e-04  9.234291e-04  0 
 0  0  0 

 -1.836686e-03  -5.814556e-04  0 
 -5.814556e-04  4.594734e-04  0 
 0  0  0 

 8.592537e-08  -7.266148e-04  0 
 -7.266148e-04  2.131753e-07  0 
 0  0  0 

 1.836789e-03  -5.813923e-04  0 
 -5.813923e-04  -4.591614e-04  0 
 0  0  0 

 3.576418e-03  -1.176967e-04  0 
 -1.176967e-04  -9.233481e-04  0 
 0  0  0 

TENSORS element_stresses FLOAT
 -3.576608e-03  -1.178406e-04  0 
 -1.178406e-04  9.234291e-04  0 
 0  0  0 

 -1.836686e-03  -5.814556e-04  0 
 -5.814556e-04  4.594734e-04  0 
 0  0  0 

 8.592537e-08  -7.266148e-04  0 
 -7.266148e-04  2.131753e-07  0 
 0  0  0 

 1.836789e-03  -5.813923e-04  0 
 -5.813923e-04  -4.591614e-04  0 
 0  0  0 

 3.576418e-03  -1.176967e-04  0 
 -1.176967e-04  -9.233481e-04  0 
 0  0  0 

