# vtk DataFile Version 3.1
this is an vtk file created by FEMAC
ASCII
DATASET UNSTRUCTURED_GRID
POINTS 12 FLOAT
6.000000 0.000000 0.000000
6.500000 0.000000 0.000000
6.000000 0.200000 0.000000
6.000000 0.400000 0.000000
6.000000 0.600000 0.000000
6.000000 0.800000 0.000000
6.000000 1.000000 0.000000
6.500000 0.200000 0.000000
6.500000 0.400000 0.000000
6.500000 0.600000 0.000000
6.500000 0.800000 0.000000
6.500000 1.000000 0.000000
CELLS 5 25 
4 0 1 7 2
4 2 7 8 3
4 3 8 9 4
4 4  9 10  5
4 5 10 11  6
CELL_TYPES 5
9 9 9 9 9 
POINT_DATA 12
VECTORS displacement_ITER1 FLOAT
 -2.408971e-04  -2.055098e-03  0 
 -2.447688e-04  -2.299614e-03  0 
 -1.442352e-04  -2.054635e-03  0 
 -4.719820e-05  -2.053808e-03  0 
 5.027579e-05  -2.053808e-03  0 
 1.473128e-04  -2.054637e-03  0 
 2.439747e-04  -2.055102e-03  0 
 -1.464406e-04  -2.299655e-03  0 
 -4.791023e-05  -2.300304e-03  0 
 5.098891e-05  -2.300305e-03  0 
 1.495193e-04  -2.299657e-03  0 
 2.478475e-04  -2.299618e-03  0 
VECTORS displacement_ITER2 FLOAT
 -2.386617e-04  -2.043083e-03  0 
 -2.424431e-04  -2.285877e-03  0 
 -1.427177e-04  -2.043044e-03  0 
 -4.682106e-05  -2.042742e-03  0 
 4.913050e-05  -2.042742e-03  0 
 1.450271e-04  -2.043045e-03  0 
 2.409711e-04  -2.043083e-03  0 
 -1.449046e-04  -2.285666e-03  0 
 -4.755836e-05  -2.285835e-03  0 
 4.986787e-05  -2.285835e-03  0 
 1.472141e-04  -2.285666e-03  0 
 2.447526e-04  -2.285877e-03  0 
VECTORS displacement_ITER3 FLOAT
 -2.375764e-04  -2.039213e-03  0 
 -2.413125e-04  -2.281229e-03  0 
 -1.419480e-04  -2.039322e-03  0 
 -4.651475e-05  -2.039246e-03  0 
 4.879478e-05  -2.039246e-03  0 
 1.442282e-04  -2.039321e-03  0 
 2.398567e-04  -2.039212e-03  0 
 -1.441287e-04  -2.280954e-03  0 
 -4.726539e-05  -2.280911e-03  0 
 4.954504e-05  -2.280911e-03  0 
 1.464085e-04  -2.280954e-03  0 
 2.435925e-04  -2.281228e-03  0 
VECTORS displacement_ITER4 FLOAT
 -2.371712e-04  -2.037636e-03  0 
 -2.408958e-04  -2.279104e-03  0 
 -1.417650e-04  -2.037681e-03  0 
 -4.644658e-05  -2.037566e-03  0 
 4.876756e-05  -2.037565e-03  0 
 1.440859e-04  -2.037680e-03  0 
 2.394919e-04  -2.037635e-03  0 
 -1.439426e-04  -2.278920e-03  0 
 -4.719557e-05  -2.278921e-03  0 
 4.951610e-05  -2.278921e-03  0 
 1.462631e-04  -2.278919e-03  0 
 2.432161e-04  -2.279102e-03  0 
VECTORS displacement_ITER5 FLOAT
 -2.369501e-04  -2.036580e-03  0 
 -2.406648e-04  -2.277625e-03  0 
 -1.417078e-04  -2.036544e-03  0 
 -4.644876e-05  -2.036375e-03  0 
 4.874551e-05  -2.036375e-03  0 
 1.440045e-04  -2.036543e-03  0 
 2.392467e-04  -2.036579e-03  0 
 -1.438888e-04  -2.277536e-03  0 
 -4.719412e-05  -2.277594e-03  0 
 4.949045e-05  -2.277594e-03  0 
 1.461850e-04  -2.277535e-03  0 
 2.429609e-04  -2.277624e-03  0 
VECTORS displacement_ITER6 FLOAT
 -2.368962e-04  -2.036298e-03  0 
 -2.405975e-04  -2.277246e-03  0 
 -1.416782e-04  -2.036238e-03  0 
 -4.644295e-05  -2.036084e-03  0 
 4.872855e-05  -2.036091e-03  0 
 1.439540e-04  -2.036255e-03  0 
 2.391533e-04  -2.036319e-03  0 
 -1.438678e-04  -2.277183e-03  0 
 -4.718698e-05  -2.277231e-03  0 
 4.947157e-05  -2.277227e-03  0 
 1.461434e-04  -2.277170e-03  0 
 2.428613e-04  -2.277231e-03  0 
VECTORS displacement_ITER7 FLOAT
 -2.367800e-04  -2.036262e-03  0 
 -2.404881e-04  -2.277025e-03  0 
 -1.416292e-04  -2.036174e-03  0 
 -4.646882e-05  -2.036026e-03  0 
 4.866117e-05  -2.035981e-03  0 
 1.438874e-04  -2.036057e-03  0 
 2.391601e-04  -2.036118e-03  0 
 -1.438338e-04  -2.276980e-03  0 
 -4.720844e-05  -2.277019e-03  0 
 4.940335e-05  -2.277052e-03  0 
 1.460917e-04  -2.277066e-03  0 
 2.428325e-04  -2.277128e-03  0 
VECTORS displacement_ITER8 FLOAT
 -2.369030e-04  -2.035978e-03  0 
 -2.405691e-04  -2.277070e-03  0 
 -1.415835e-04  -2.035919e-03  0 
 -4.635720e-05  -2.035902e-03  0 
 4.875211e-05  -2.035977e-03  0 
 1.438607e-04  -2.036115e-03  0 
 2.389729e-04  -2.036221e-03  0 
 -1.437981e-04  -2.277000e-03  0 
 -4.709538e-05  -2.276933e-03  0 
 4.948838e-05  -2.276868e-03  0 
 1.460738e-04  -2.276830e-03  0 
 2.426719e-04  -2.276861e-03  0 
VECTORS displacement_ITER9 FLOAT
 -2.367167e-04  -2.036106e-03  0 
 -2.403953e-04  -2.276734e-03  0 
 -1.415966e-04  -2.035993e-03  0 
 -4.649443e-05  -2.035869e-03  0 
 4.862233e-05  -2.035805e-03  0 
 1.438357e-04  -2.035824e-03  0 
 2.391333e-04  -2.035893e-03  0 
 -1.438116e-04  -2.276710e-03  0 
 -4.722875e-05  -2.276751e-03  0 
 4.935543e-05  -2.276818e-03  0 
 1.460513e-04  -2.276887e-03  0 
 2.428201e-04  -2.276956e-03  0 
VECTORS displacement_ITER10 FLOAT
 -2.368070e-04  -2.035889e-03  0 
 -2.405151e-04  -2.276770e-03  0 
 -1.415992e-04  -2.035793e-03  0 
 -4.643229e-05  -2.035727e-03  0 
 4.870364e-05  -2.035735e-03  0 
 1.438451e-04  -2.035814e-03  0 
 2.390351e-04  -2.035916e-03  0 
 -1.438118e-04  -2.276718e-03  0 
 -4.716201e-05  -2.276695e-03  0 
 4.943560e-05  -2.276673e-03  0 
 1.460598e-04  -2.276661e-03  0 
 2.426986e-04  -2.276696e-03  0 
VECTORS displacement_ITER11 FLOAT
 -2.368344e-04  -2.035870e-03  0 
 -2.405136e-04  -2.276766e-03  0 
 -1.416081e-04  -2.035780e-03  0 
 -4.643862e-05  -2.035724e-03  0 
 4.870901e-05  -2.035742e-03  0 
 1.438515e-04  -2.035828e-03  0 
 2.390239e-04  -2.035934e-03  0 
 -1.438204e-04  -2.276715e-03  0 
 -4.717012e-05  -2.276701e-03  0 
 4.944010e-05  -2.276688e-03  0 
 1.460624e-04  -2.276681e-03  0 
 2.427208e-04  -2.276722e-03  0 
VECTORS displacement_ITER12 FLOAT
 -2.368082e-04  -2.036011e-03  0 
 -2.404950e-04  -2.276838e-03  0 
 -1.416183e-04  -2.035915e-03  0 
 -4.646899e-05  -2.035839e-03  0 
 4.868044e-05  -2.035826e-03  0 
 1.438552e-04  -2.035879e-03  0 
 2.390829e-04  -2.035964e-03  0 
 -1.438280e-04  -2.276791e-03  0 
 -4.720383e-05  -2.276793e-03  0 
 4.941548e-05  -2.276807e-03  0 
 1.460643e-04  -2.276830e-03  0 
 2.427741e-04  -2.276890e-03  0 
VECTORS displacement_ITER13 FLOAT
 -2.368444e-04  -2.036024e-03  0 
 -2.405368e-04  -2.276946e-03  0 
 -1.416229e-04  -2.035941e-03  0 
 -4.644541e-05  -2.035882e-03  0 
 4.870438e-05  -2.035891e-03  0 
 1.438650e-04  -2.035963e-03  0 
 2.390632e-04  -2.036054e-03  0 
 -1.438295e-04  -2.276887e-03  0 
 -4.718377e-05  -2.276866e-03  0 
 4.944257e-05  -2.276856e-03  0 
 1.460726e-04  -2.276861e-03  0 
 2.427511e-04  -2.276912e-03  0 
VECTORS displacement_ITER14 FLOAT
 -2.368368e-04  -2.036060e-03  0 
 -2.405278e-04  -2.276945e-03  0 
 -1.416321e-04  -2.035973e-03  0 
 -4.645931e-05  -2.035902e-03  0 
 4.869095e-05  -2.035901e-03  0 
 1.438661e-04  -2.035969e-03  0 
 2.390756e-04  -2.036055e-03  0 
 -1.438379e-04  -2.276892e-03  0 
 -4.719964e-05  -2.276880e-03  0 
 4.943115e-05  -2.276881e-03  0 
 1.460723e-04  -2.276896e-03  0 
 2.427655e-04  -2.276950e-03  0 
VECTORS displacement_ITER15 FLOAT
 -2.368388e-04  -2.036062e-03  0 
 -2.405277e-04  -2.276955e-03  0 
 -1.416303e-04  -2.035977e-03  0 
 -4.645660e-05  -2.035909e-03  0 
 4.869183e-05  -2.035909e-03  0 
 1.438653e-04  -2.035978e-03  0 
 2.390724e-04  -2.036064e-03  0 
 -1.438378e-04  -2.276901e-03  0 
 -4.719651e-05  -2.276885e-03  0 
 4.943193e-05  -2.276885e-03  0 
 1.460725e-04  -2.276900e-03  0 
 2.427621e-04  -2.276954e-03  0 
VECTORS displacement_ITER16 FLOAT
 -2.368359e-04  -2.036050e-03  0 
 -2.405250e-04  -2.276938e-03  0 
 -1.416295e-04  -2.035964e-03  0 
 -4.645749e-05  -2.035895e-03  0 
 4.869212e-05  -2.035895e-03  0 
 1.438644e-04  -2.035964e-03  0 
 2.390709e-04  -2.036050e-03  0 
 -1.438376e-04  -2.276884e-03  0 
 -4.719599e-05  -2.276869e-03  0 
 4.943068e-05  -2.276869e-03  0 
 1.460724e-04  -2.276884e-03  0 
 2.427603e-04  -2.276939e-03  0 
VECTORS displacement_ITER17 FLOAT
 -2.368355e-04  -2.036046e-03  0 
 -2.405249e-04  -2.276935e-03  0 
 -1.416290e-04  -2.035961e-03  0 
 -4.645765e-05  -2.035892e-03  0 
 4.869239e-05  -2.035892e-03  0 
 1.438636e-04  -2.035961e-03  0 
 2.390704e-04  -2.036046e-03  0 
 -1.438373e-04  -2.276880e-03  0 
 -4.719557e-05  -2.276865e-03  0 
 4.943026e-05  -2.276865e-03  0 
 1.460720e-04  -2.276880e-03  0 
 2.427593e-04  -2.276935e-03  0 
VECTORS displacement_ITER18 FLOAT
 -2.368357e-04  -2.036044e-03  0 
 -2.405247e-04  -2.276933e-03  0 
 -1.416288e-04  -2.035958e-03  0 
 -4.645769e-05  -2.035889e-03  0 
 4.869246e-05  -2.035889e-03  0 
 1.438636e-04  -2.035958e-03  0 
 2.390704e-04  -2.036044e-03  0 
 -1.438373e-04  -2.276878e-03  0 
 -4.719567e-05  -2.276863e-03  0 
 4.943044e-05  -2.276863e-03  0 
 1.460720e-04  -2.276878e-03  0 
 2.427595e-04  -2.276933e-03  0 
VECTORS displacement_ITER19 FLOAT
 -2.368357e-04  -2.036044e-03  0 
 -2.405248e-04  -2.276933e-03  0 
 -1.416290e-04  -2.035959e-03  0 
 -4.645765e-05  -2.035890e-03  0 
 4.869239e-05  -2.035890e-03  0 
 1.438638e-04  -2.035959e-03  0 
 2.390704e-04  -2.036044e-03  0 
 -1.438373e-04  -2.276878e-03  0 
 -4.719583e-05  -2.276864e-03  0 
 4.943056e-05  -2.276864e-03  0 
 1.460720e-04  -2.276878e-03  0 
 2.427596e-04  -2.276933e-03  0 
VECTORS displacement_ITER20 FLOAT
 -2.368356e-04  -2.036045e-03  0 
 -2.405250e-04  -2.276933e-03  0 
 -1.416291e-04  -2.035959e-03  0 
 -4.645759e-05  -2.035890e-03  0 
 4.869233e-05  -2.035890e-03  0 
 1.438638e-04  -2.035959e-03  0 
 2.390704e-04  -2.036045e-03  0 
 -1.438372e-04  -2.276879e-03  0 
 -4.719579e-05  -2.276864e-03  0 
 4.943051e-05  -2.276864e-03  0 
 1.460719e-04  -2.276879e-03  0 
 2.427597e-04  -2.276933e-03  0 
VECTORS displacement_ITER21 FLOAT
 -2.368357e-04  -2.036045e-03  0 
 -2.405250e-04  -2.276933e-03  0 
 -1.416290e-04  -2.035959e-03  0 
 -4.645752e-05  -2.035890e-03  0 
 4.869226e-05  -2.035890e-03  0 
 1.438637e-04  -2.035959e-03  0 
 2.390705e-04  -2.036045e-03  0 
 -1.438371e-04  -2.276879e-03  0 
 -4.719575e-05  -2.276864e-03  0 
 4.943048e-05  -2.276864e-03  0 
 1.460719e-04  -2.276879e-03  0 
 2.427597e-04  -2.276933e-03  0 
VECTORS displacement_ITER22 FLOAT
 -2.368357e-04  -2.036045e-03  0 
 -2.405249e-04  -2.276933e-03  0 
 -1.416290e-04  -2.035959e-03  0 
 -4.645757e-05  -2.035890e-03  0 
 4.869229e-05  -2.035890e-03  0 
 1.438637e-04  -2.035959e-03  0 
 2.390704e-04  -2.036045e-03  0 
 -1.438372e-04  -2.276879e-03  0 
 -4.719577e-05  -2.276864e-03  0 
 4.943049e-05  -2.276864e-03  0 
 1.460719e-04  -2.276879e-03  0 
 2.427596e-04  -2.276933e-03  0 
VECTORS displacement_ITER23 FLOAT
 -2.368357e-04  -2.036045e-03  0 
 -2.405250e-04  -2.276933e-03  0 
 -1.416290e-04  -2.035959e-03  0 
 -4.645756e-05  -2.035890e-03  0 
 4.869228e-05  -2.035890e-03  0 
 1.438637e-04  -2.035959e-03  0 
 2.390705e-04  -2.036045e-03  0 
 -1.438372e-04  -2.276879e-03  0 
 -4.719574e-05  -2.276864e-03  0 
 4.943046e-05  -2.276864e-03  0 
 1.460719e-04  -2.276879e-03  0 
 2.427597e-04  -2.276933e-03  0 
VECTORS displacement_ITER24 FLOAT
 -2.368357e-04  -2.036045e-03  0 
 -2.405250e-04  -2.276933e-03  0 
 -1.416290e-04  -2.035959e-03  0 
 -4.645757e-05  -2.035890e-03  0 
 4.869229e-05  -2.035890e-03  0 
 1.438637e-04  -2.035959e-03  0 
 2.390704e-04  -2.036045e-03  0 
 -1.438372e-04  -2.276879e-03  0 
 -4.719575e-05  -2.276864e-03  0 
 4.943047e-05  -2.276864e-03  0 
 1.460719e-04  -2.276879e-03  0 
 2.427597e-04  -2.276933e-03  0 
VECTORS displacement_ITER25 FLOAT
 -2.368357e-04  -2.036045e-03  0 
 -2.405250e-04  -2.276933e-03  0 
 -1.416290e-04  -2.035959e-03  0 
 -4.645757e-05  -2.035890e-03  0 
 4.869229e-05  -2.035890e-03  0 
 1.438637e-04  -2.035959e-03  0 
 2.390704e-04  -2.036045e-03  0 
 -1.438372e-04  -2.276879e-03  0 
 -4.719575e-05  -2.276864e-03  0 
 4.943047e-05  -2.276864e-03  0 
 1.460719e-04  -2.276879e-03  0 
 2.427597e-04  -2.276933e-03  0 
CELL_DATA 5
TENSORS element_stresses FLOAT
 -6.365186e-04  -1.593745e-04  0 
 -1.593745e-04  -1.559277e-04  0 
 0  0  0 

 -3.169067e-04  -1.816576e-04  0 
 -1.816576e-04  -7.424394e-05  0 
 0  0  0 

 1.474331e-10  -1.929364e-04  0 
 -1.929364e-04  -2.843065e-10  0 
 0  0  0 

 3.169068e-04  -1.816571e-04  0 
 -1.816571e-04  7.424362e-05  0 
 0  0  0 

 6.365184e-04  -1.593744e-04  0 
 -1.593744e-04  1.559277e-04  0 
 0  0  0 

TENSORS element_stresses FLOAT
 -6.365186e-04  -1.593745e-04  0 
 -1.593745e-04  -1.559277e-04  0 
 0  0  0 

 -3.169067e-04  -1.816576e-04  0 
 -1.816576e-04  -7.424394e-05  0 
 0  0  0 

 1.474331e-10  -1.929364e-04  0 
 -1.929364e-04  -2.843065e-10  0 
 0  0  0 

 3.169068e-04  -1.816571e-04  0 
 -1.816571e-04  7.424362e-05  0 
 0  0  0 

 6.365184e-04  -1.593744e-04  0 
 -1.593744e-04  1.559277e-04  0 
 0  0  0 

