# vtk DataFile Version 3.1
this is an vtk file created by FEMAC
ASCII
DATASET UNSTRUCTURED_GRID
POINTS 12 FLOAT
1.000000 0.000000 0.000000
1.500000 0.000000 0.000000
1.000000 0.200000 0.000000
1.000000 0.400000 0.000000
1.000000 0.600000 0.000000
1.000000 0.800000 0.000000
1.000000 1.000000 0.000000
1.500000 0.200000 0.000000
1.500000 0.400000 0.000000
1.500000 0.600000 0.000000
1.500000 0.800000 0.000000
1.500000 1.000000 0.000000
CELLS 5 25 
4 0 1 7 2
4 2 7 8 3
4 3 8 9 4
4 4  9 10  5
4 5 10 11  6
CELL_TYPES 5
9 9 9 9 9 
POINT_DATA 12
VECTORS displacement_ITER1 FLOAT
 -7.259862e-05  -1.200186e-04  0 
 -1.310813e-04  -2.217052e-04  0 
 -4.773406e-05  -1.159876e-04  0 
 -1.614375e-05  -1.090582e-04  0 
 1.717378e-05  -1.068601e-04  0 
 5.007550e-05  -1.100312e-04  0 
 8.028765e-05  -1.137719e-04  0 
 -7.897328e-05  -2.189187e-04  0 
 -2.740762e-05  -2.210171e-04  0 
 2.740743e-05  -2.220441e-04  0 
 8.200106e-05  -2.219701e-04  0 
 1.372750e-04  -2.250411e-04  0 
VECTORS displacement_ITER2 FLOAT
 -8.101855e-05  -1.130452e-04  0 
 -1.361218e-04  -2.336479e-04  0 
 -4.596785e-05  -1.128177e-04  0 
 -1.141309e-05  -1.135752e-04  0 
 2.000744e-05  -1.161179e-04  0 
 4.872841e-05  -1.194029e-04  0 
 7.567775e-05  -1.220815e-04  0 
 -7.779075e-05  -2.301385e-04  0 
 -2.245948e-05  -2.268000e-04  0 
 3.017024e-05  -2.237859e-04  0 
 8.078207e-05  -2.223882e-04  0 
 1.315670e-04  -2.239187e-04  0 
VECTORS displacement_ITER3 FLOAT
 -7.888238e-05  -1.185592e-04  0 
 -1.322117e-04  -2.313848e-04  0 
 -4.565705e-05  -1.180962e-04  0 
 -1.387448e-05  -1.183312e-04  0 
 1.686255e-05  -1.181912e-04  0 
 4.783544e-05  -1.177090e-04  0 
 8.015331e-05  -1.185818e-04  0 
 -7.799865e-05  -2.294499e-04  0 
 -2.486866e-05  -2.277499e-04  0 
 2.707111e-05  -2.277384e-04  0 
 8.019132e-05  -2.294590e-04  0 
 1.351869e-04  -2.315776e-04  0 
VECTORS displacement_ITER4 FLOAT
 -7.842307e-05  -1.204953e-04  0 
 -1.317364e-04  -2.310076e-04  0 
 -4.589933e-05  -1.194733e-04  0 
 -1.441143e-05  -1.191206e-04  0 
 1.669999e-05  -1.185464e-04  0 
 4.803607e-05  -1.179804e-04  0 
 8.095714e-05  -1.189313e-04  0 
 -7.840793e-05  -2.298170e-04  0 
 -2.540071e-05  -2.288511e-04  0 
 2.700291e-05  -2.290604e-04  0 
 8.056014e-05  -2.303622e-04  0 
 1.350940e-04  -2.318806e-04  0 
VECTORS displacement_ITER5 FLOAT
 -7.860422e-05  -1.210802e-04  0 
 -1.318901e-04  -2.310413e-04  0 
 -4.620756e-05  -1.197310e-04  0 
 -1.444957e-05  -1.190645e-04  0 
 1.713410e-05  -1.187098e-04  0 
 4.840554e-05  -1.188345e-04  0 
 8.064192e-05  -1.202084e-04  0 
 -7.872762e-05  -2.302513e-04  0 
 -2.545230e-05  -2.297616e-04  0 
 2.750174e-05  -2.297465e-04  0 
 8.094553e-05  -2.301733e-04  0 
 1.345073e-04  -2.310453e-04  0 
VECTORS displacement_ITER6 FLOAT
 -7.867493e-05  -1.210848e-04  0 
 -1.320091e-04  -2.310821e-04  0 
 -4.634273e-05  -1.197138e-04  0 
 -1.444577e-05  -1.189713e-04  0 
 1.728836e-05  -1.187371e-04  0 
 4.856973e-05  -1.191280e-04  0 
 8.043210e-05  -1.205997e-04  0 
 -7.877610e-05  -2.303229e-04  0 
 -2.544938e-05  -2.299789e-04  0 
 2.768334e-05  -2.298963e-04  0 
 8.101548e-05  -2.300684e-04  0 
 1.343889e-04  -2.308073e-04  0 
VECTORS displacement_ITER7 FLOAT
 -7.861049e-05  -1.209935e-04  0 
 -1.321358e-04  -2.311609e-04  0 
 -4.644078e-05  -1.197139e-04  0 
 -1.447477e-05  -1.189427e-04  0 
 1.729273e-05  -1.187352e-04  0 
 4.868482e-05  -1.191798e-04  0 
 8.037681e-05  -1.205447e-04  0 
 -7.871734e-05  -2.302911e-04  0 
 -2.547037e-05  -2.299825e-04  0 
 2.772719e-05  -2.299047e-04  0 
 8.096644e-05  -2.300666e-04  0 
 1.344663e-04  -2.308791e-04  0 
VECTORS displacement_ITER8 FLOAT
 -7.853309e-05  -1.209164e-04  0 
 -1.322033e-04  -2.312348e-04  0 
 -4.647570e-05  -1.197339e-04  0 
 -1.450247e-05  -1.189685e-04  0 
 1.723102e-05  -1.187433e-04  0 
 4.872307e-05  -1.191414e-04  0 
 8.042032e-05  -1.203525e-04  0 
 -7.866031e-05  -2.302619e-04  0 
 -2.549160e-05  -2.299155e-04  0 
 2.770443e-05  -2.298620e-04  0 
 8.090922e-05  -2.301148e-04  0 
 1.345489e-04  -2.310388e-04  0 
VECTORS displacement_ITER9 FLOAT
 -7.852066e-05  -1.208679e-04  0 
 -1.322000e-04  -2.312560e-04  0 
 -4.647383e-05  -1.197396e-04  0 
 -1.451423e-05  -1.189897e-04  0 
 1.718444e-05  -1.187633e-04  0 
 4.871741e-05  -1.191431e-04  0 
 8.045000e-05  -1.202695e-04  0 
 -7.865725e-05  -2.302552e-04  0 
 -2.549979e-05  -2.298683e-04  0 
 2.768651e-05  -2.298309e-04  0 
 8.089810e-05  -2.301536e-04  0 
 1.345545e-04  -2.311248e-04  0 
VECTORS displacement_ITER10 FLOAT
 -7.853972e-05  -1.208179e-04  0 
 -1.321639e-04  -2.312301e-04  0 
 -4.646666e-05  -1.197254e-04  0 
 -1.452367e-05  -1.189865e-04  0 
 1.715327e-05  -1.187785e-04  0 
 4.870576e-05  -1.191808e-04  0 
 8.045480e-05  -1.202631e-04  0 
 -7.868568e-05  -2.302436e-04  0 
 -2.550091e-05  -2.298296e-04  0 
 2.768169e-05  -2.298043e-04  0 
 8.091697e-05  -2.301739e-04  0 
 1.345146e-04  -2.311481e-04  0 
VECTORS displacement_ITER11 FLOAT
 -7.854742e-05  -1.207825e-04  0 
 -1.321370e-04  -2.311779e-04  0 
 -4.646583e-05  -1.196987e-04  0 
 -1.453309e-05  -1.189567e-04  0 
 1.714535e-05  -1.187661e-04  0 
 4.870504e-05  -1.192031e-04  0 
 8.045246e-05  -1.202830e-04  0 
 -7.871128e-05  -2.302199e-04  0 
 -2.549509e-05  -2.298017e-04  0 
 2.768561e-05  -2.297799e-04  0 
 8.094399e-05  -2.301604e-04  0 
 1.344711e-04  -2.311075e-04  0 
VECTORS displacement_ITER12 FLOAT
 -7.852788e-05  -1.207564e-04  0 
 -1.321376e-04  -2.311342e-04  0 
 -4.646939e-05  -1.196688e-04  0 
 -1.454435e-05  -1.189218e-04  0 
 1.714356e-05  -1.187379e-04  0 
 4.871133e-05  -1.191905e-04  0 
 8.046603e-05  -1.202794e-04  0 
 -7.871735e-05  -2.301944e-04  0 
 -2.548468e-05  -2.297753e-04  0 
 2.768718e-05  -2.297509e-04  0 
 8.096151e-05  -2.301321e-04  0 
 1.344455e-04  -2.310523e-04  0 
VECTORS displacement_ITER13 FLOAT
 -7.851585e-05  -1.207417e-04  0 
 -1.321532e-04  -2.311366e-04  0 
 -4.647195e-05  -1.196535e-04  0 
 -1.455377e-05  -1.189188e-04  0 
 1.713485e-05  -1.187398e-04  0 
 4.871055e-05  -1.191840e-04  0 
 8.047799e-05  -1.202748e-04  0 
 -7.871195e-05  -2.301940e-04  0 
 -2.548019e-05  -2.297678e-04  0 
 2.768388e-05  -2.297429e-04  0 
 8.095661e-05  -2.301348e-04  0 
 1.344487e-04  -2.310576e-04  0 
VECTORS displacement_ITER14 FLOAT
 -7.851459e-05  -1.207327e-04  0 
 -1.321611e-04  -2.311403e-04  0 
 -4.647523e-05  -1.196427e-04  0 
 -1.456355e-05  -1.189212e-04  0 
 1.712775e-05  -1.187498e-04  0 
 4.870751e-05  -1.191900e-04  0 
 8.047850e-05  -1.202871e-04  0 
 -7.871174e-05  -2.301961e-04  0 
 -2.548080e-05  -2.297684e-04  0 
 2.768218e-05  -2.297458e-04  0 
 8.095000e-05  -2.301449e-04  0 
 1.344551e-04  -2.310745e-04  0 
VECTORS displacement_ITER15 FLOAT
 -7.850940e-05  -1.207286e-04  0 
 -1.321629e-04  -2.311346e-04  0 
 -4.647680e-05  -1.196352e-04  0 
 -1.456820e-05  -1.189155e-04  0 
 1.712881e-05  -1.187449e-04  0 
 4.870661e-05  -1.191861e-04  0 
 8.048108e-05  -1.202905e-04  0 
 -7.871238e-05  -2.301911e-04  0 
 -2.548084e-05  -2.297654e-04  0 
 2.768317e-05  -2.297428e-04  0 
 8.095090e-05  -2.301382e-04  0 
 1.344545e-04  -2.310671e-04  0 
VECTORS displacement_ITER16 FLOAT
 -7.850932e-05  -1.207246e-04  0 
 -1.321632e-04  -2.311372e-04  0 
 -4.647628e-05  -1.196329e-04  0 
 -1.456826e-05  -1.189154e-04  0 
 1.712803e-05  -1.187458e-04  0 
 4.870452e-05  -1.191863e-04  0 
 8.048295e-05  -1.202920e-04  0 
 -7.871209e-05  -2.301912e-04  0 
 -2.548128e-05  -2.297656e-04  0 
 2.768423e-05  -2.297426e-04  0 
 8.095011e-05  -2.301370e-04  0 
 1.344551e-04  -2.310687e-04  0 
VECTORS displacement_ITER17 FLOAT
 -7.850892e-05  -1.207240e-04  0 
 -1.321616e-04  -2.311352e-04  0 
 -4.647669e-05  -1.196323e-04  0 
 -1.456855e-05  -1.189140e-04  0 
 1.712696e-05  -1.187447e-04  0 
 4.870400e-05  -1.191863e-04  0 
 8.048298e-05  -1.202926e-04  0 
 -7.871304e-05  -2.301890e-04  0 
 -2.548309e-05  -2.297652e-04  0 
 2.768533e-05  -2.297425e-04  0 
 8.094989e-05  -2.301351e-04  0 
 1.344548e-04  -2.310679e-04  0 
VECTORS displacement_ITER18 FLOAT
 -7.850878e-05  -1.207233e-04  0 
 -1.321617e-04  -2.311357e-04  0 
 -4.647649e-05  -1.196313e-04  0 
 -1.456826e-05  -1.189140e-04  0 
 1.712671e-05  -1.187447e-04  0 
 4.870362e-05  -1.191856e-04  0 
 8.048339e-05  -1.202925e-04  0 
 -7.871299e-05  -2.301892e-04  0 
 -2.548296e-05  -2.297648e-04  0 
 2.768538e-05  -2.297419e-04  0 
 8.094968e-05  -2.301345e-04  0 
 1.344547e-04  -2.310672e-04  0 
VECTORS displacement_ITER19 FLOAT
 -7.850864e-05  -1.207233e-04  0 
 -1.321615e-04  -2.311353e-04  0 
 -4.647658e-05  -1.196311e-04  0 
 -1.456853e-05  -1.189138e-04  0 
 1.712676e-05  -1.187444e-04  0 
 4.870352e-05  -1.191855e-04  0 
 8.048335e-05  -1.202927e-04  0 
 -7.871319e-05  -2.301890e-04  0 
 -2.548290e-05  -2.297646e-04  0 
 2.768511e-05  -2.297418e-04  0 
 8.094966e-05  -2.301342e-04  0 
 1.344549e-04  -2.310668e-04  0 
VECTORS displacement_ITER20 FLOAT
 -7.850866e-05  -1.207232e-04  0 
 -1.321615e-04  -2.311355e-04  0 
 -4.647662e-05  -1.196312e-04  0 
 -1.456857e-05  -1.189137e-04  0 
 1.712674e-05  -1.187444e-04  0 
 4.870349e-05  -1.191857e-04  0 
 8.048337e-05  -1.202928e-04  0 
 -7.871318e-05  -2.301890e-04  0 
 -2.548291e-05  -2.297648e-04  0 
 2.768502e-05  -2.297419e-04  0 
 8.094957e-05  -2.301342e-04  0 
 1.344551e-04  -2.310669e-04  0 
VECTORS displacement_ITER21 FLOAT
 -7.850865e-05  -1.207231e-04  0 
 -1.321616e-04  -2.311356e-04  0 
 -4.647661e-05  -1.196312e-04  0 
 -1.456851e-05  -1.189136e-04  0 
 1.712671e-05  -1.187443e-04  0 
 4.870351e-05  -1.191857e-04  0 
 8.048342e-05  -1.202928e-04  0 
 -7.871312e-05  -2.301891e-04  0 
 -2.548292e-05  -2.297648e-04  0 
 2.768504e-05  -2.297419e-04  0 
 8.094954e-05  -2.301341e-04  0 
 1.344551e-04  -2.310668e-04  0 
VECTORS displacement_ITER22 FLOAT
 -7.850864e-05  -1.207232e-04  0 
 -1.321616e-04  -2.311355e-04  0 
 -4.647661e-05  -1.196311e-04  0 
 -1.456854e-05  -1.189136e-04  0 
 1.712665e-05  -1.187443e-04  0 
 4.870351e-05  -1.191857e-04  0 
 8.048342e-05  -1.202928e-04  0 
 -7.871311e-05  -2.301891e-04  0 
 -2.548292e-05  -2.297648e-04  0 
 2.768497e-05  -2.297419e-04  0 
 8.094951e-05  -2.301342e-04  0 
 1.344551e-04  -2.310667e-04  0 
VECTORS displacement_ITER23 FLOAT
 -7.850864e-05  -1.207232e-04  0 
 -1.321615e-04  -2.311355e-04  0 
 -4.647660e-05  -1.196311e-04  0 
 -1.456854e-05  -1.189136e-04  0 
 1.712665e-05  -1.187443e-04  0 
 4.870350e-05  -1.191857e-04  0 
 8.048342e-05  -1.202928e-04  0 
 -7.871311e-05  -2.301891e-04  0 
 -2.548291e-05  -2.297648e-04  0 
 2.768495e-05  -2.297419e-04  0 
 8.094951e-05  -2.301342e-04  0 
 1.344551e-04  -2.310667e-04  0 
VECTORS displacement_ITER24 FLOAT
 -7.850864e-05  -1.207231e-04  0 
 -1.321615e-04  -2.311355e-04  0 
 -4.647659e-05  -1.196311e-04  0 
 -1.456854e-05  -1.189136e-04  0 
 1.712665e-05  -1.187443e-04  0 
 4.870349e-05  -1.191857e-04  0 
 8.048343e-05  -1.202928e-04  0 
 -7.871310e-05  -2.301891e-04  0 
 -2.548291e-05  -2.297648e-04  0 
 2.768495e-05  -2.297419e-04  0 
 8.094951e-05  -2.301341e-04  0 
 1.344551e-04  -2.310667e-04  0 
VECTORS displacement_ITER25 FLOAT
 -7.850864e-05  -1.207231e-04  0 
 -1.321615e-04  -2.311355e-04  0 
 -4.647659e-05  -1.196311e-04  0 
 -1.456854e-05  -1.189136e-04  0 
 1.712664e-05  -1.187443e-04  0 
 4.870349e-05  -1.191857e-04  0 
 8.048343e-05  -1.202928e-04  0 
 -7.871311e-05  -2.301891e-04  0 
 -2.548292e-05  -2.297648e-04  0 
 2.768495e-05  -2.297419e-04  0 
 8.094951e-05  -2.301341e-04  0 
 1.344551e-04  -2.310667e-04  0 
CELL_DATA 5
TENSORS element_stresses FLOAT
 -9.270395e-03  -5.591687e-04  0 
 -5.591687e-04  -2.271513e-03  0 
 0  0  0 

 -4.647752e-03  -6.587426e-04  0 
 -6.587426e-04  -1.108872e-03  0 
 0  0  0 

 -2.328499e-05  -7.454748e-04  0 
 -7.454748e-04  4.107616e-05  0 
 0  0  0 

 4.635063e-03  -7.571113e-04  0 
 -7.571113e-04  1.182100e-03  0 
 0  0  0 

 9.306369e-03  -6.545026e-04  0 
 -6.545026e-04  2.282005e-03  0 
 0  0  0 

TENSORS element_stresses FLOAT
 -9.270395e-03  -5.591687e-04  0 
 -5.591687e-04  -2.271513e-03  0 
 0  0  0 

 -4.647752e-03  -6.587426e-04  0 
 -6.587426e-04  -1.108872e-03  0 
 0  0  0 

 -2.328499e-05  -7.454748e-04  0 
 -7.454748e-04  4.107616e-05  0 
 0  0  0 

 4.635063e-03  -7.571113e-04  0 
 -7.571113e-04  1.182100e-03  0 
 0  0  0 

 9.306369e-03  -6.545026e-04  0 
 -6.545026e-04  2.282005e-03  0 
 0  0  0 

