# vtk DataFile Version 3.1
this is an vtk file created by FEMAC
ASCII
DATASET UNSTRUCTURED_GRID
POINTS 12 FLOAT
3.000000 0.000000 0.000000
3.500000 0.000000 0.000000
3.000000 0.200000 0.000000
3.000000 0.400000 0.000000
3.000000 0.600000 0.000000
3.000000 0.800000 0.000000
3.000000 1.000000 0.000000
3.500000 0.200000 0.000000
3.500000 0.400000 0.000000
3.500000 0.600000 0.000000
3.500000 0.800000 0.000000
3.500000 1.000000 0.000000
CELLS 5 25 
4 0 1 7 2
4 2 7 8 3
4 3 8 9 4
4 4  9 10  5
4 5 10 11  6
CELL_TYPES 5
9 9 9 9 9 
POINT_DATA 12
VECTORS displacement_ITER1 FLOAT
 -1.816436e-04  -7.061873e-04  0 
 -2.098053e-04  -9.049672e-04  0 
 -1.090385e-04  -7.038536e-04  0 
 -3.555766e-05  -7.018379e-04  0 
 3.863230e-05  -7.018386e-04  0 
 1.121131e-04  -7.038558e-04  0 
 1.847182e-04  -7.061909e-04  0 
 -1.253226e-04  -9.034596e-04  0 
 -4.091456e-05  -9.037157e-04  0 
 4.399029e-05  -9.037164e-04  0 
 1.283984e-04  -9.034618e-04  0 
 2.128810e-04  -9.049709e-04  0 
VECTORS displacement_ITER2 FLOAT
 -1.806528e-04  -7.067184e-04  0 
 -2.081917e-04  -9.052368e-04  0 
 -1.081208e-04  -7.057207e-04  0 
 -3.532198e-05  -7.048169e-04  0 
 3.763124e-05  -7.048169e-04  0 
 1.104300e-04  -7.057208e-04  0 
 1.829621e-04  -7.067186e-04  0 
 -1.240360e-04  -9.040244e-04  0 
 -4.058317e-05  -9.039149e-04  0 
 4.289250e-05  -9.039149e-04  0 
 1.263453e-04  -9.040246e-04  0 
 2.105010e-04  -9.052370e-04  0 
VECTORS displacement_ITER3 FLOAT
 -1.799199e-04  -7.082886e-04  0 
 -2.072170e-04  -9.061225e-04  0 
 -1.076536e-04  -7.077855e-04  0 
 -3.524643e-05  -7.071937e-04  0 
 3.719131e-05  -7.069711e-04  0 
 1.099107e-04  -7.072089e-04  0 
 1.827710e-04  -7.075859e-04  0 
 -1.234458e-04  -9.051672e-04  0 
 -4.048059e-05  -9.050127e-04  0 
 4.244530e-05  -9.051577e-04  0 
 1.256968e-04  -9.055432e-04  0 
 2.098436e-04  -9.065625e-04  0 
VECTORS displacement_ITER4 FLOAT
 -1.806987e-04  -7.073978e-04  0 
 -2.075567e-04  -9.068277e-04  0 
 -1.075348e-04  -7.071377e-04  0 
 -3.460626e-05  -7.071162e-04  0 
 3.780555e-05  -7.076271e-04  0 
 1.099567e-04  -7.084612e-04  0 
 1.817105e-04  -7.090352e-04  0 
 -1.233376e-04  -9.059729e-04  0 
 -3.987774e-05  -9.054706e-04  0 
 4.305820e-05  -9.050510e-04  0 
 1.257448e-04  -9.048786e-04  0 
 2.088655e-04  -9.054969e-04  0 
VECTORS displacement_ITER5 FLOAT
 -1.796544e-04  -7.087715e-04  0 
 -2.064467e-04  -9.053219e-04  0 
 -1.076421e-04  -7.082023e-04  0 
 -3.535301e-05  -7.074915e-04  0 
 3.708205e-05  -7.072288e-04  0 
 1.098612e-04  -7.074875e-04  0 
 1.826147e-04  -7.078646e-04  0 
 -1.234772e-04  -9.049068e-04  0 
 -4.064918e-05  -9.050981e-04  0 
 4.235724e-05  -9.054102e-04  0 
 1.257002e-04  -9.057381e-04  0 
 2.095557e-04  -9.063818e-04  0 
VECTORS displacement_ITER6 FLOAT
 -1.799668e-04  -7.084362e-04  0 
 -2.068274e-04  -9.058781e-04  0 
 -1.075927e-04  -7.079316e-04  0 
 -3.506996e-05  -7.074434e-04  0 
 3.734840e-05  -7.074261e-04  0 
 1.098593e-04  -7.078740e-04  0 
 1.823017e-04  -7.083628e-04  0 
 -1.234637e-04  -9.053995e-04  0 
 -4.037184e-05  -9.053057e-04  0 
 4.264353e-05  -9.052844e-04  0 
 1.257444e-04  -9.053485e-04  0 
 2.090385e-04  -9.058060e-04  0 
VECTORS displacement_ITER7 FLOAT
 -1.801630e-04  -7.083383e-04  0 
 -2.069088e-04  -9.061915e-04  0 
 -1.075178e-04  -7.078735e-04  0 
 -3.493174e-05  -7.075623e-04  0 
 3.744525e-05  -7.076654e-04  0 
 1.098172e-04  -7.081544e-04  0 
 1.821479e-04  -7.087145e-04  0 
 -1.234525e-04  -9.056984e-04  0 
 -4.024514e-05  -9.054498e-04  0 
 4.275031e-05  -9.053274e-04  0 
 1.257554e-04  -9.053668e-04  0 
 2.088560e-04  -9.057520e-04  0 
VECTORS displacement_ITER8 FLOAT
 -1.800778e-04  -7.085362e-04  0 
 -2.067439e-04  -9.060818e-04  0 
 -1.074891e-04  -7.080252e-04  0 
 -3.501719e-05  -7.077007e-04  0 
 3.734346e-05  -7.077187e-04  0 
 1.097657e-04  -7.080922e-04  0 
 1.822522e-04  -7.086350e-04  0 
 -1.234671e-04  -9.056420e-04  0 
 -4.033395e-05  -9.054314e-04  0 
 4.265126e-05  -9.054118e-04  0 
 1.257366e-04  -9.055779e-04  0 
 2.089595e-04  -9.059950e-04  0 
VECTORS displacement_ITER9 FLOAT
 -1.800052e-04  -7.086072e-04  0 
 -2.066679e-04  -9.059449e-04  0 
 -1.074926e-04  -7.080558e-04  0 
 -3.508365e-05  -7.077011e-04  0 
 3.728837e-05  -7.076642e-04  0 
 1.097431e-04  -7.079764e-04  0 
 1.823143e-04  -7.085054e-04  0 
 -1.234823e-04  -9.055326e-04  0 
 -4.040035e-05  -9.053604e-04  0 
 4.259658e-05  -9.053906e-04  0 
 1.257260e-04  -9.056046e-04  0 
 2.090061e-04  -9.060447e-04  0 
VECTORS displacement_ITER10 FLOAT
 -1.800139e-04  -7.085241e-04  0 
 -2.066831e-04  -9.058797e-04  0 
 -1.074992e-04  -7.079627e-04  0 
 -3.508758e-05  -7.076203e-04  0 
 3.729921e-05  -7.075948e-04  0 
 1.097361e-04  -7.079050e-04  0 
 1.822939e-04  -7.084445e-04  0 
 -1.234906e-04  -9.054596e-04  0 
 -4.040994e-05  -9.052869e-04  0 
 4.261174e-05  -9.053027e-04  0 
 1.257253e-04  -9.055018e-04  0 
 2.089754e-04  -9.059434e-04  0 
VECTORS displacement_ITER11 FLOAT
 -1.800543e-04  -7.084277e-04  0 
 -2.067219e-04  -9.058925e-04  0 
 -1.074998e-04  -7.078808e-04  0 
 -3.506069e-05  -7.075651e-04  0 
 3.732328e-05  -7.075704e-04  0 
 1.097383e-04  -7.078948e-04  0 
 1.822620e-04  -7.084453e-04  0 
 -1.234891e-04  -9.054479e-04  0 
 -4.039489e-05  -9.052591e-04  0 
 4.264637e-05  -9.052489e-04  0 
 1.257286e-04  -9.054272e-04  0 
 2.089445e-04  -9.058680e-04  0 
VECTORS displacement_ITER12 FLOAT
 -1.800525e-04  -7.084309e-04  0 
 -2.067291e-04  -9.059105e-04  0 
 -1.075044e-04  -7.078909e-04  0 
 -3.505784e-05  -7.075710e-04  0 
 3.731533e-05  -7.075741e-04  0 
 1.097452e-04  -7.078922e-04  0 
 1.822790e-04  -7.084355e-04  0 
 -1.234874e-04  -9.054523e-04  0 
 -4.040261e-05  -9.052672e-04  0 
 4.265087e-05  -9.052609e-04  0 
 1.257305e-04  -9.054428e-04  0 
 2.089611e-04  -9.058948e-04  0 
VECTORS displacement_ITER13 FLOAT
 -1.800326e-04  -7.084666e-04  0 
 -2.067288e-04  -9.059037e-04  0 
 -1.075211e-04  -7.079191e-04  0 
 -3.507550e-05  -7.075783e-04  0 
 3.731096e-05  -7.075720e-04  0 
 1.097592e-04  -7.078978e-04  0 
 1.822834e-04  -7.084394e-04  0 
 -1.234940e-04  -9.054512e-04  0 
 -4.041246e-05  -9.052803e-04  0 
 4.264280e-05  -9.052832e-04  0 
 1.257326e-04  -9.054601e-04  0 
 2.089763e-04  -9.059143e-04  0 
VECTORS displacement_ITER14 FLOAT
 -1.800391e-04  -7.084548e-04  0 
 -2.067418e-04  -9.059116e-04  0 
 -1.075299e-04  -7.079112e-04  0 
 -3.508138e-05  -7.075738e-04  0 
 3.732093e-05  -7.075741e-04  0 
 1.097665e-04  -7.079114e-04  0 
 1.822655e-04  -7.084551e-04  0 
 -1.234978e-04  -9.054583e-04  0 
 -4.040368e-05  -9.052824e-04  0 
 4.264101e-05  -9.052829e-04  0 
 1.257321e-04  -9.054565e-04  0 
 2.089758e-04  -9.059096e-04  0 
VECTORS displacement_ITER15 FLOAT
 -1.800430e-04  -7.084481e-04  0 
 -2.067433e-04  -9.059261e-04  0 
 -1.075228e-04  -7.079117e-04  0 
 -3.508183e-05  -7.075846e-04  0 
 3.731805e-05  -7.075835e-04  0 
 1.097581e-04  -7.079083e-04  0 
 1.822761e-04  -7.084431e-04  0 
 -1.234955e-04  -9.054676e-04  0 
 -4.039971e-05  -9.052795e-04  0 
 4.263404e-05  -9.052801e-04  0 
 1.257302e-04  -9.054684e-04  0 
 2.089784e-04  -9.059272e-04  0 
VECTORS displacement_ITER16 FLOAT
 -1.800418e-04  -7.084531e-04  0 
 -2.067381e-04  -9.059177e-04  0 
 -1.075238e-04  -7.079138e-04  0 
 -3.508126e-05  -7.075802e-04  0 
 3.731807e-05  -7.075797e-04  0 
 1.097592e-04  -7.079117e-04  0 
 1.822747e-04  -7.084504e-04  0 
 -1.234983e-04  -9.054637e-04  0 
 -4.040374e-05  -9.052818e-04  0 
 4.263885e-05  -9.052817e-04  0 
 1.257335e-04  -9.054636e-04  0 
 2.089724e-04  -9.059174e-04  0 
VECTORS displacement_ITER17 FLOAT
 -1.800418e-04  -7.084488e-04  0 
 -2.067384e-04  -9.059159e-04  0 
 -1.075239e-04  -7.079104e-04  0 
 -3.507904e-05  -7.075785e-04  0 
 3.731527e-05  -7.075778e-04  0 
 1.097590e-04  -7.079084e-04  0 
 1.822744e-04  -7.084465e-04  0 
 -1.234967e-04  -9.054611e-04  0 
 -4.040449e-05  -9.052783e-04  0 
 4.263910e-05  -9.052784e-04  0 
 1.257315e-04  -9.054614e-04  0 
 2.089733e-04  -9.059162e-04  0 
VECTORS displacement_ITER18 FLOAT
 -1.800418e-04  -7.084482e-04  0 
 -2.067383e-04  -9.059160e-04  0 
 -1.075237e-04  -7.079098e-04  0 
 -3.507850e-05  -7.075785e-04  0 
 3.731510e-05  -7.075777e-04  0 
 1.097587e-04  -7.079078e-04  0 
 1.822746e-04  -7.084459e-04  0 
 -1.234966e-04  -9.054610e-04  0 
 -4.040401e-05  -9.052778e-04  0 
 4.263880e-05  -9.052778e-04  0 
 1.257315e-04  -9.054607e-04  0 
 2.089731e-04  -9.059157e-04  0 
VECTORS displacement_ITER19 FLOAT
 -1.800416e-04  -7.084483e-04  0 
 -2.067383e-04  -9.059151e-04  0 
 -1.075239e-04  -7.079095e-04  0 
 -3.507913e-05  -7.075780e-04  0 
 3.731576e-05  -7.075771e-04  0 
 1.097587e-04  -7.079074e-04  0 
 1.822744e-04  -7.084459e-04  0 
 -1.234969e-04  -9.054604e-04  0 
 -4.040369e-05  -9.052778e-04  0 
 4.263833e-05  -9.052777e-04  0 
 1.257317e-04  -9.054601e-04  0 
 2.089732e-04  -9.059148e-04  0 
VECTORS displacement_ITER20 FLOAT
 -1.800418e-04  -7.084485e-04  0 
 -2.067384e-04  -9.059157e-04  0 
 -1.075238e-04  -7.079099e-04  0 
 -3.507922e-05  -7.075784e-04  0 
 3.731591e-05  -7.075775e-04  0 
 1.097587e-04  -7.079077e-04  0 
 1.822744e-04  -7.084461e-04  0 
 -1.234969e-04  -9.054608e-04  0 
 -4.040370e-05  -9.052782e-04  0 
 4.263827e-05  -9.052781e-04  0 
 1.257316e-04  -9.054606e-04  0 
 2.089734e-04  -9.059154e-04  0 
VECTORS displacement_ITER21 FLOAT
 -1.800418e-04  -7.084486e-04  0 
 -2.067384e-04  -9.059157e-04  0 
 -1.075238e-04  -7.079099e-04  0 
 -3.507916e-05  -7.075783e-04  0 
 3.731595e-05  -7.075774e-04  0 
 1.097587e-04  -7.079076e-04  0 
 1.822744e-04  -7.084461e-04  0 
 -1.234969e-04  -9.054609e-04  0 
 -4.040379e-05  -9.052782e-04  0 
 4.263837e-05  -9.052781e-04  0 
 1.257316e-04  -9.054605e-04  0 
 2.089734e-04  -9.059153e-04  0 
VECTORS displacement_ITER22 FLOAT
 -1.800418e-04  -7.084486e-04  0 
 -2.067383e-04  -9.059157e-04  0 
 -1.075238e-04  -7.079100e-04  0 
 -3.507913e-05  -7.075783e-04  0 
 3.731593e-05  -7.075774e-04  0 
 1.097587e-04  -7.079076e-04  0 
 1.822744e-04  -7.084460e-04  0 
 -1.234969e-04  -9.054609e-04  0 
 -4.040382e-05  -9.052782e-04  0 
 4.263836e-05  -9.052780e-04  0 
 1.257316e-04  -9.054605e-04  0 
 2.089734e-04  -9.059152e-04  0 
VECTORS displacement_ITER23 FLOAT
 -1.800418e-04  -7.084486e-04  0 
 -2.067383e-04  -9.059156e-04  0 
 -1.075238e-04  -7.079099e-04  0 
 -3.507912e-05  -7.075782e-04  0 
 3.731594e-05  -7.075773e-04  0 
 1.097587e-04  -7.079075e-04  0 
 1.822744e-04  -7.084460e-04  0 
 -1.234969e-04  -9.054608e-04  0 
 -4.040383e-05  -9.052781e-04  0 
 4.263836e-05  -9.052780e-04  0 
 1.257316e-04  -9.054604e-04  0 
 2.089734e-04  -9.059152e-04  0 
VECTORS displacement_ITER24 FLOAT
 -1.800419e-04  -7.084486e-04  0 
 -2.067383e-04  -9.059156e-04  0 
 -1.075238e-04  -7.079099e-04  0 
 -3.507910e-05  -7.075782e-04  0 
 3.731593e-05  -7.075773e-04  0 
 1.097587e-04  -7.079075e-04  0 
 1.822744e-04  -7.084459e-04  0 
 -1.234969e-04  -9.054608e-04  0 
 -4.040383e-05  -9.052781e-04  0 
 4.263835e-05  -9.052780e-04  0 
 1.257316e-04  -9.054604e-04  0 
 2.089734e-04  -9.059151e-04  0 
VECTORS displacement_ITER25 FLOAT
 -1.800419e-04  -7.084486e-04  0 
 -2.067383e-04  -9.059156e-04  0 
 -1.075238e-04  -7.079099e-04  0 
 -3.507910e-05  -7.075782e-04  0 
 3.731593e-05  -7.075773e-04  0 
 1.097587e-04  -7.079075e-04  0 
 1.822744e-04  -7.084459e-04  0 
 -1.234969e-04  -9.054608e-04  0 
 -4.040383e-05  -9.052781e-04  0 
 4.263835e-05  -9.052780e-04  0 
 1.257316e-04  -9.054604e-04  0 
 2.089734e-04  -9.059151e-04  0 
CELL_DATA 5
TENSORS element_stresses FLOAT
 -4.607079e-03  -4.322438e-04  0 
 -4.322438e-04  -1.133749e-03  0 
 0  0  0 

 -2.298023e-03  -4.927994e-04  0 
 -4.927994e-04  -5.608115e-04  0 
 0  0  0 

 -1.652354e-07  -5.236576e-04  0 
 -5.236576e-04  2.182688e-07  0 
 0  0  0 

 2.297893e-03  -4.933535e-04  0 
 -4.933535e-04  5.611988e-04  0 
 0  0  0 

 4.607374e-03  -4.329457e-04  0 
 -4.329457e-04  1.133925e-03  0 
 0  0  0 

TENSORS element_stresses FLOAT
 -4.607079e-03  -4.322438e-04  0 
 -4.322438e-04  -1.133749e-03  0 
 0  0  0 

 -2.298023e-03  -4.927994e-04  0 
 -4.927994e-04  -5.608115e-04  0 
 0  0  0 

 -1.652354e-07  -5.236576e-04  0 
 -5.236576e-04  2.182688e-07  0 
 0  0  0 

 2.297893e-03  -4.933535e-04  0 
 -4.933535e-04  5.611988e-04  0 
 0  0  0 

 4.607374e-03  -4.329457e-04  0 
 -4.329457e-04  1.133925e-03  0 
 0  0  0 

