# vtk DataFile Version 3.1
this is an vtk file created by FEMAC
ASCII
DATASET UNSTRUCTURED_GRID
POINTS 12 FLOAT
1.500000 0.000000 0.000000
2.000000 0.000000 0.000000
1.500000 0.200000 0.000000
1.500000 0.400000 0.000000
1.500000 0.600000 0.000000
1.500000 0.800000 0.000000
1.500000 1.000000 0.000000
2.000000 0.200000 0.000000
2.000000 0.400000 0.000000
2.000000 0.600000 0.000000
2.000000 0.800000 0.000000
2.000000 1.000000 0.000000
CELLS 5 25 
4 0 1 7 2
4 2 7 8 3
4 3 8 9 4
4 4  9 10  5
4 5 10 11  6
CELL_TYPES 5
9 9 9 9 9 
POINT_DATA 12
VECTORS displacement_ITER1 FLOAT
 -1.327505e-04  -2.223630e-04  0 
 -1.378085e-04  -3.594664e-04  0 
 -7.896595e-05  -2.216786e-04  0 
 -2.527764e-05  -2.213069e-04  0 
 2.835140e-05  -2.213068e-04  0 
 8.203971e-05  -2.216783e-04  0 
 1.358243e-04  -2.223627e-04  0 
 -8.196430e-05  -3.588834e-04  0 
 -2.627533e-05  -3.586069e-04  0 
 2.934898e-05  -3.586068e-04  0 
 8.503795e-05  -3.588832e-04  0 
 1.408821e-04  -3.594660e-04  0 
VECTORS displacement_ITER2 FLOAT
 -1.323135e-04  -2.274007e-04  0 
 -1.374913e-04  -3.637129e-04  0 
 -7.892872e-05  -2.265937e-04  0 
 -2.566047e-05  -2.262499e-04  0 
 2.762965e-05  -2.262763e-04  0 
 8.097656e-05  -2.266722e-04  0 
 1.344437e-04  -2.274865e-04  0 
 -8.199590e-05  -3.630031e-04  0 
 -2.663451e-05  -3.626398e-04  0 
 2.868011e-05  -3.626399e-04  0 
 8.404171e-05  -3.630034e-04  0 
 1.395373e-04  -3.637132e-04  0 
VECTORS displacement_ITER3 FLOAT
 -1.319190e-04  -2.302902e-04  0 
 -1.371037e-04  -3.663110e-04  0 
 -7.856457e-05  -2.293989e-04  0 
 -2.537849e-05  -2.290189e-04  0 
 2.781482e-05  -2.290085e-04  0 
 8.103369e-05  -2.293860e-04  0 
 1.343838e-04  -2.302571e-04  0 
 -8.168156e-05  -3.655501e-04  0 
 -2.638598e-05  -3.651525e-04  0 
 2.885943e-05  -3.651662e-04  0 
 8.413728e-05  -3.655838e-04  0 
 1.395269e-04  -3.663519e-04  0 
VECTORS displacement_ITER4 FLOAT
 -1.319747e-04  -2.309383e-04  0 
 -1.371380e-04  -3.669591e-04  0 
 -7.859025e-05  -2.300084e-04  0 
 -2.540386e-05  -2.295955e-04  0 
 2.776269e-05  -2.295770e-04  0 
 8.097082e-05  -2.299758e-04  0 
 1.343474e-04  -2.308839e-04  0 
 -8.173924e-05  -3.661818e-04  0 
 -2.644839e-05  -3.657549e-04  0 
 2.880035e-05  -3.657539e-04  0 
 8.409983e-05  -3.661736e-04  0 
 1.395146e-04  -3.669472e-04  0 
VECTORS displacement_ITER5 FLOAT
 -1.320507e-04  -2.311315e-04  0 
 -1.372180e-04  -3.671769e-04  0 
 -7.863942e-05  -2.301806e-04  0 
 -2.544141e-05  -2.297442e-04  0 
 2.771388e-05  -2.297268e-04  0 
 8.093868e-05  -2.301507e-04  0 
 1.343635e-04  -2.310857e-04  0 
 -8.180921e-05  -3.663970e-04  0 
 -2.649494e-05  -3.659588e-04  0 
 2.877120e-05  -3.659597e-04  0 
 8.409079e-05  -3.663915e-04  0 
 1.395181e-04  -3.671687e-04  0 
VECTORS displacement_ITER6 FLOAT
 -1.320922e-04  -2.311571e-04  0 
 -1.372632e-04  -3.672333e-04  0 
 -7.866651e-05  -2.302041e-04  0 
 -2.545248e-05  -2.297617e-04  0 
 2.770812e-05  -2.297447e-04  0 
 8.095245e-05  -2.301741e-04  0 
 1.344038e-04  -2.311144e-04  0 
 -8.184226e-05  -3.664546e-04  0 
 -2.650704e-05  -3.660127e-04  0 
 2.877821e-05  -3.660181e-04  0 
 8.411375e-05  -3.664601e-04  0 
 1.395450e-04  -3.672393e-04  0 
VECTORS displacement_ITER7 FLOAT
 -1.321462e-04  -2.311778e-04  0 
 -1.373140e-04  -3.673059e-04  0 
 -7.870382e-05  -2.302290e-04  0 
 -2.546461e-05  -2.297863e-04  0 
 2.771019e-05  -2.297679e-04  0 
 8.098100e-05  -2.301929e-04  0 
 1.344598e-04  -2.311310e-04  0 
 -8.188286e-05  -3.665280e-04  0 
 -2.652464e-05  -3.660800e-04  0 
 2.878830e-05  -3.660877e-04  0 
 8.414878e-05  -3.665398e-04  0 
 1.395890e-04  -3.673193e-04  0 
VECTORS displacement_ITER8 FLOAT
 -1.321783e-04  -2.312006e-04  0 
 -1.373402e-04  -3.673579e-04  0 
 -7.872708e-05  -2.302556e-04  0 
 -2.547438e-05  -2.298161e-04  0 
 2.770820e-05  -2.297959e-04  0 
 8.099226e-05  -2.302126e-04  0 
 1.344867e-04  -2.311470e-04  0 
 -8.190699e-05  -3.665805e-04  0 
 -2.654005e-05  -3.661290e-04  0 
 2.878762e-05  -3.661368e-04  0 
 8.416269e-05  -3.665931e-04  0 
 1.396098e-04  -3.673712e-04  0 
VECTORS displacement_ITER9 FLOAT
 -1.321797e-04  -2.312108e-04  0 
 -1.373380e-04  -3.673640e-04  0 
 -7.872828e-05  -2.302668e-04  0 
 -2.547793e-05  -2.298311e-04  0 
 2.770218e-05  -2.298095e-04  0 
 8.098379e-05  -2.302190e-04  0 
 1.344820e-04  -2.311516e-04  0 
 -8.190785e-05  -3.665875e-04  0 
 -2.654568e-05  -3.661368e-04  0 
 2.878027e-05  -3.661447e-04  0 
 8.415500e-05  -3.666016e-04  0 
 1.396026e-04  -3.673782e-04  0 
VECTORS displacement_ITER10 FLOAT
 -1.321664e-04  -2.312019e-04  0 
 -1.373226e-04  -3.673351e-04  0 
 -7.871823e-05  -2.302571e-04  0 
 -2.547812e-05  -2.298256e-04  0 
 2.769428e-05  -2.298029e-04  0 
 8.096605e-05  -2.302048e-04  0 
 1.344652e-04  -2.311373e-04  0 
 -8.189755e-05  -3.665597e-04  0 
 -2.654593e-05  -3.661110e-04  0 
 2.877065e-05  -3.661200e-04  0 
 8.413862e-05  -3.665780e-04  0 
 1.395832e-04  -3.673536e-04  0 
VECTORS displacement_ITER11 FLOAT
 -1.321538e-04  -2.311725e-04  0 
 -1.373094e-04  -3.672903e-04  0 
 -7.870820e-05  -2.302263e-04  0 
 -2.547694e-05  -2.297978e-04  0 
 2.768964e-05  -2.297745e-04  0 
 8.095319e-05  -2.301714e-04  0 
 1.344534e-04  -2.311049e-04  0 
 -8.188809e-05  -3.665152e-04  0 
 -2.654373e-05  -3.660666e-04  0 
 2.876462e-05  -3.660768e-04  0 
 8.412778e-05  -3.665378e-04  0 
 1.395701e-04  -3.673138e-04  0 
VECTORS displacement_ITER12 FLOAT
 -1.321496e-04  -2.311383e-04  0 
 -1.373051e-04  -3.672526e-04  0 
 -7.870462e-05  -2.301909e-04  0 
 -2.547746e-05  -2.297647e-04  0 
 2.768766e-05  -2.297413e-04  0 
 8.094774e-05  -2.301347e-04  0 
 1.344508e-04  -2.310692e-04  0 
 -8.188547e-05  -3.664769e-04  0 
 -2.654294e-05  -3.660258e-04  0 
 2.876074e-05  -3.660370e-04  0 
 8.412443e-05  -3.665026e-04  0 
 1.395679e-04  -3.672797e-04  0 
VECTORS displacement_ITER13 FLOAT
 -1.321549e-04  -2.311372e-04  0 
 -1.373103e-04  -3.672559e-04  0 
 -7.870874e-05  -2.301898e-04  0 
 -2.548061e-05  -2.297649e-04  0 
 2.768646e-05  -2.297414e-04  0 
 8.094807e-05  -2.301332e-04  0 
 1.344535e-04  -2.310673e-04  0 
 -8.188943e-05  -3.664804e-04  0 
 -2.654470e-05  -3.660278e-04  0 
 2.875762e-05  -3.660395e-04  0 
 8.412500e-05  -3.665079e-04  0 
 1.395721e-04  -3.672855e-04  0 
VECTORS displacement_ITER14 FLOAT
 -1.321599e-04  -2.311429e-04  0 
 -1.373153e-04  -3.672647e-04  0 
 -7.871265e-05  -2.301958e-04  0 
 -2.548319e-05  -2.297716e-04  0 
 2.768529e-05  -2.297481e-04  0 
 8.094878e-05  -2.301391e-04  0 
 1.344553e-04  -2.310725e-04  0 
 -8.189268e-05  -3.664897e-04  0 
 -2.654624e-05  -3.660370e-04  0 
 2.875536e-05  -3.660493e-04  0 
 8.412517e-05  -3.665190e-04  0 
 1.395754e-04  -3.672971e-04  0 
VECTORS displacement_ITER15 FLOAT
 -1.321610e-04  -2.311375e-04  0 
 -1.373161e-04  -3.672605e-04  0 
 -7.871330e-05  -2.301906e-04  0 
 -2.548340e-05  -2.297664e-04  0 
 2.768507e-05  -2.297431e-04  0 
 8.094928e-05  -2.301344e-04  0 
 1.344559e-04  -2.310674e-04  0 
 -8.189312e-05  -3.664853e-04  0 
 -2.654671e-05  -3.660326e-04  0 
 2.875540e-05  -3.660451e-04  0 
 8.412532e-05  -3.665152e-04  0 
 1.395769e-04  -3.672939e-04  0 
VECTORS displacement_ITER16 FLOAT
 -1.321614e-04  -2.311376e-04  0 
 -1.373159e-04  -3.672612e-04  0 
 -7.871328e-05  -2.301911e-04  0 
 -2.548314e-05  -2.297668e-04  0 
 2.768504e-05  -2.297436e-04  0 
 8.094964e-05  -2.301353e-04  0 
 1.344560e-04  -2.310679e-04  0 
 -8.189312e-05  -3.664858e-04  0 
 -2.654686e-05  -3.660333e-04  0 
 2.875587e-05  -3.660459e-04  0 
 8.412551e-05  -3.665160e-04  0 
 1.395774e-04  -3.672951e-04  0 
VECTORS displacement_ITER17 FLOAT
 -1.321613e-04  -2.311363e-04  0 
 -1.373155e-04  -3.672596e-04  0 
 -7.871309e-05  -2.301898e-04  0 
 -2.548299e-05  -2.297655e-04  0 
 2.768483e-05  -2.297423e-04  0 
 8.094944e-05  -2.301343e-04  0 
 1.344554e-04  -2.310668e-04  0 
 -8.189299e-05  -3.664842e-04  0 
 -2.654690e-05  -3.660317e-04  0 
 2.875589e-05  -3.660444e-04  0 
 8.412521e-05  -3.665144e-04  0 
 1.395770e-04  -3.672936e-04  0 
VECTORS displacement_ITER18 FLOAT
 -1.321614e-04  -2.311359e-04  0 
 -1.373154e-04  -3.672592e-04  0 
 -7.871306e-05  -2.301894e-04  0 
 -2.548295e-05  -2.297651e-04  0 
 2.768482e-05  -2.297421e-04  0 
 8.094945e-05  -2.301342e-04  0 
 1.344553e-04  -2.310666e-04  0 
 -8.189300e-05  -3.664839e-04  0 
 -2.654691e-05  -3.660314e-04  0 
 2.875599e-05  -3.660441e-04  0 
 8.412517e-05  -3.665140e-04  0 
 1.395770e-04  -3.672932e-04  0 
VECTORS displacement_ITER19 FLOAT
 -1.321614e-04  -2.311355e-04  0 
 -1.373154e-04  -3.672590e-04  0 
 -7.871307e-05  -2.301891e-04  0 
 -2.548295e-05  -2.297648e-04  0 
 2.768486e-05  -2.297418e-04  0 
 8.094946e-05  -2.301340e-04  0 
 1.344552e-04  -2.310665e-04  0 
 -8.189302e-05  -3.664836e-04  0 
 -2.654692e-05  -3.660312e-04  0 
 2.875604e-05  -3.660438e-04  0 
 8.412515e-05  -3.665136e-04  0 
 1.395769e-04  -3.672929e-04  0 
VECTORS displacement_ITER20 FLOAT
 -1.321615e-04  -2.311356e-04  0 
 -1.373155e-04  -3.672591e-04  0 
 -7.871309e-05  -2.301892e-04  0 
 -2.548294e-05  -2.297649e-04  0 
 2.768491e-05  -2.297419e-04  0 
 8.094951e-05  -2.301341e-04  0 
 1.344552e-04  -2.310666e-04  0 
 -8.189305e-05  -3.664838e-04  0 
 -2.654690e-05  -3.660314e-04  0 
 2.875609e-05  -3.660440e-04  0 
 8.412519e-05  -3.665137e-04  0 
 1.395769e-04  -3.672930e-04  0 
VECTORS displacement_ITER21 FLOAT
 -1.321615e-04  -2.311356e-04  0 
 -1.373155e-04  -3.672591e-04  0 
 -7.871311e-05  -2.301892e-04  0 
 -2.548293e-05  -2.297649e-04  0 
 2.768493e-05  -2.297419e-04  0 
 8.094953e-05  -2.301342e-04  0 
 1.344551e-04  -2.310667e-04  0 
 -8.189306e-05  -3.664838e-04  0 
 -2.654688e-05  -3.660314e-04  0 
 2.875611e-05  -3.660440e-04  0 
 8.412521e-05  -3.665137e-04  0 
 1.395769e-04  -3.672930e-04  0 
VECTORS displacement_ITER22 FLOAT
 -1.321615e-04  -2.311356e-04  0 
 -1.373155e-04  -3.672591e-04  0 
 -7.871312e-05  -2.301892e-04  0 
 -2.548294e-05  -2.297649e-04  0 
 2.768494e-05  -2.297419e-04  0 
 8.094952e-05  -2.301342e-04  0 
 1.344551e-04  -2.310667e-04  0 
 -8.189307e-05  -3.664838e-04  0 
 -2.654688e-05  -3.660314e-04  0 
 2.875611e-05  -3.660440e-04  0 
 8.412520e-05  -3.665137e-04  0 
 1.395769e-04  -3.672929e-04  0 
VECTORS displacement_ITER23 FLOAT
 -1.321615e-04  -2.311355e-04  0 
 -1.373155e-04  -3.672591e-04  0 
 -7.871311e-05  -2.301891e-04  0 
 -2.548293e-05  -2.297648e-04  0 
 2.768494e-05  -2.297419e-04  0 
 8.094952e-05  -2.301341e-04  0 
 1.344551e-04  -2.310667e-04  0 
 -8.189306e-05  -3.664837e-04  0 
 -2.654688e-05  -3.660313e-04  0 
 2.875611e-05  -3.660440e-04  0 
 8.412520e-05  -3.665136e-04  0 
 1.395769e-04  -3.672929e-04  0 
VECTORS displacement_ITER24 FLOAT
 -1.321615e-04  -2.311355e-04  0 
 -1.373155e-04  -3.672591e-04  0 
 -7.871311e-05  -2.301891e-04  0 
 -2.548293e-05  -2.297648e-04  0 
 2.768495e-05  -2.297419e-04  0 
 8.094951e-05  -2.301341e-04  0 
 1.344551e-04  -2.310667e-04  0 
 -8.189306e-05  -3.664837e-04  0 
 -2.654687e-05  -3.660313e-04  0 
 2.875611e-05  -3.660440e-04  0 
 8.412519e-05  -3.665136e-04  0 
 1.395769e-04  -3.672929e-04  0 
VECTORS displacement_ITER25 FLOAT
 -1.321615e-04  -2.311355e-04  0 
 -1.373155e-04  -3.672591e-04  0 
 -7.871311e-05  -2.301891e-04  0 
 -2.548293e-05  -2.297648e-04  0 
 2.768495e-05  -2.297419e-04  0 
 8.094951e-05  -2.301341e-04  0 
 1.344551e-04  -2.310667e-04  0 
 -8.189306e-05  -3.664837e-04  0 
 -2.654687e-05  -3.660313e-04  0 
 2.875611e-05  -3.660439e-04  0 
 8.412519e-05  -3.665136e-04  0 
 1.395769e-04  -3.672929e-04  0 
CELL_DATA 5
TENSORS element_stresses FLOAT
 -7.739158e-03  -1.853153e-04  0 
 -1.853153e-04  1.982620e-03  0 
 0  0  0 

 -3.941064e-03  -8.616849e-04  0 
 -8.616849e-04  1.009437e-03  0 
 0  0  0 

 1.646431e-05  -1.070345e-03  0 
 -1.070345e-03  3.082353e-05  0 
 0  0  0 

 3.956456e-03  -8.441863e-04  0 
 -8.441863e-04  -9.679533e-04  0 
 0  0  0 

 7.707302e-03  -1.634687e-04  0 
 -1.634687e-04  -1.967226e-03  0 
 0  0  0 

TENSORS element_stresses FLOAT
 -7.739158e-03  -1.853153e-04  0 
 -1.853153e-04  1.982620e-03  0 
 0  0  0 

 -3.941064e-03  -8.616849e-04  0 
 -8.616849e-04  1.009437e-03  0 
 0  0  0 

 1.646431e-05  -1.070345e-03  0 
 -1.070345e-03  3.082353e-05  0 
 0  0  0 

 3.956456e-03  -8.441863e-04  0 
 -8.441863e-04  -9.679533e-04  0 
 0  0  0 

 7.707302e-03  -1.634687e-04  0 
 -1.634687e-04  -1.967226e-03  0 
 0  0  0 

