# vtk DataFile Version 3.1
this is an vtk file created by FEMAC
ASCII
DATASET UNSTRUCTURED_GRID
POINTS 12 FLOAT
4.500000 0.000000 0.000000
5.000000 0.000000 0.000000
4.500000 0.200000 0.000000
4.500000 0.400000 0.000000
4.500000 0.600000 0.000000
4.500000 0.800000 0.000000
4.500000 1.000000 0.000000
5.000000 0.200000 0.000000
5.000000 0.400000 0.000000
5.000000 0.600000 0.000000
5.000000 0.800000 0.000000
5.000000 1.000000 0.000000
CELLS 5 25 
4 0 1 7 2
4 2 7 8 3
4 3 8 9 4
4 4  9 10  5
4 5 10 11  6
CELL_TYPES 5
9 9 9 9 9 
POINT_DATA 12
VECTORS displacement_ITER1 FLOAT
 -2.296395e-04  -1.341530e-03  0 
 -2.310068e-04  -1.573535e-03  0 
 -1.371325e-04  -1.341345e-03  0 
 -4.467551e-05  -1.341216e-03  0 
 4.775223e-05  -1.341216e-03  0 
 1.402092e-04  -1.341344e-03  0 
 2.327162e-04  -1.341529e-03  0 
 -1.379441e-04  -1.573392e-03  0 
 -4.494634e-05  -1.573348e-03  0 
 4.802295e-05  -1.573348e-03  0 
 1.410207e-04  -1.573392e-03  0 
 2.340834e-04  -1.573535e-03  0 
VECTORS displacement_ITER2 FLOAT
 -2.274158e-04  -1.337710e-03  0 
 -2.288080e-04  -1.567134e-03  0 
 -1.359506e-04  -1.337483e-03  0 
 -4.454032e-05  -1.337356e-03  0 
 4.684971e-05  -1.337356e-03  0 
 1.382600e-04  -1.337483e-03  0 
 2.297251e-04  -1.337710e-03  0 
 -1.367852e-04  -1.566952e-03  0 
 -4.481939e-05  -1.566870e-03  0 
 4.712878e-05  -1.566870e-03  0 
 1.390946e-04  -1.566952e-03  0 
 2.311173e-04  -1.567134e-03  0 
VECTORS displacement_ITER3 FLOAT
 -2.263607e-04  -1.337241e-03  0 
 -2.277615e-04  -1.565602e-03  0 
 -1.353184e-04  -1.336990e-03  0 
 -4.434040e-05  -1.336866e-03  0 
 4.662086e-05  -1.336866e-03  0 
 1.375989e-04  -1.336990e-03  0 
 2.286411e-04  -1.337241e-03  0 
 -1.361666e-04  -1.565404e-03  0 
 -4.462453e-05  -1.565303e-03  0 
 4.690503e-05  -1.565303e-03  0 
 1.384471e-04  -1.565404e-03  0 
 2.300420e-04  -1.565603e-03  0 
VECTORS displacement_ITER4 FLOAT
 -2.260310e-04  -1.336681e-03  0 
 -2.274314e-04  -1.564725e-03  0 
 -1.351036e-04  -1.336416e-03  0 
 -4.425450e-05  -1.336294e-03  0 
 4.657569e-05  -1.336294e-03  0 
 1.374248e-04  -1.336416e-03  0 
 2.283522e-04  -1.336681e-03  0 
 -1.359597e-04  -1.564527e-03  0 
 -4.454156e-05  -1.564419e-03  0 
 4.686280e-05  -1.564419e-03  0 
 1.382809e-04  -1.564527e-03  0 
 2.297526e-04  -1.564725e-03  0 
VECTORS displacement_ITER5 FLOAT
 -2.258719e-04  -1.336191e-03  0 
 -2.272688e-04  -1.564056e-03  0 
 -1.350024e-04  -1.335915e-03  0 
 -4.422443e-05  -1.335793e-03  0 
 4.653065e-05  -1.335792e-03  0 
 1.373069e-04  -1.335913e-03  0 
 2.281742e-04  -1.336188e-03  0 
 -1.358648e-04  -1.563860e-03  0 
 -4.451474e-05  -1.563747e-03  0 
 4.681911e-05  -1.563747e-03  0 
 1.381692e-04  -1.563860e-03  0 
 2.295732e-04  -1.564056e-03  0 
VECTORS displacement_ITER6 FLOAT
 -2.258340e-04  -1.336111e-03  0 
 -2.272312e-04  -1.563919e-03  0 
 -1.349876e-04  -1.335832e-03  0 
 -4.423768e-05  -1.335715e-03  0 
 4.648995e-05  -1.335717e-03  0 
 1.372429e-04  -1.335837e-03  0 
 2.280940e-04  -1.336116e-03  0 
 -1.358529e-04  -1.563725e-03  0 
 -4.452663e-05  -1.563607e-03  0 
 4.678183e-05  -1.563607e-03  0 
 1.381087e-04  -1.563724e-03  0 
 2.294880e-04  -1.563918e-03  0 
VECTORS displacement_ITER7 FLOAT
 -2.257648e-04  -1.336174e-03  0 
 -2.271570e-04  -1.563919e-03  0 
 -1.349318e-04  -1.335893e-03  0 
 -4.420306e-05  -1.335778e-03  0 
 4.649812e-05  -1.335777e-03  0 
 1.372249e-04  -1.335889e-03  0 
 2.280540e-04  -1.336170e-03  0 
 -1.358009e-04  -1.563728e-03  0 
 -4.449449e-05  -1.563605e-03  0 
 4.678966e-05  -1.563607e-03  0 
 1.380940e-04  -1.563731e-03  0 
 2.294461e-04  -1.563924e-03  0 
VECTORS displacement_ITER8 FLOAT
 -2.257460e-04  -1.336189e-03  0 
 -2.271335e-04  -1.563906e-03  0 
 -1.349238e-04  -1.335907e-03  0 
 -4.420924e-05  -1.335797e-03  0 
 4.647478e-05  -1.335796e-03  0 
 1.371875e-04  -1.335904e-03  0 
 2.280073e-04  -1.336186e-03  0 
 -1.357954e-04  -1.563715e-03  0 
 -4.450325e-05  -1.563586e-03  0 
 4.676513e-05  -1.563586e-03  0 
 1.380587e-04  -1.563713e-03  0 
 2.293989e-04  -1.563904e-03  0 
VECTORS displacement_ITER9 FLOAT
 -2.257432e-04  -1.336119e-03  0 
 -2.271319e-04  -1.563828e-03  0 
 -1.349251e-04  -1.335837e-03  0 
 -4.421566e-05  -1.335730e-03  0 
 4.646154e-05  -1.335730e-03  0 
 1.371714e-04  -1.335839e-03  0 
 2.279910e-04  -1.336121e-03  0 
 -1.357971e-04  -1.563638e-03  0 
 -4.450796e-05  -1.563508e-03  0 
 4.675417e-05  -1.563507e-03  0 
 1.380436e-04  -1.563638e-03  0 
 2.293793e-04  -1.563828e-03  0 
VECTORS displacement_ITER10 FLOAT
 -2.257463e-04  -1.336021e-03  0 
 -2.271356e-04  -1.563731e-03  0 
 -1.349266e-04  -1.335740e-03  0 
 -4.421683e-05  -1.335634e-03  0 
 4.645758e-05  -1.335634e-03  0 
 1.371683e-04  -1.335742e-03  0 
 2.279896e-04  -1.336023e-03  0 
 -1.357986e-04  -1.563542e-03  0 
 -4.450833e-05  -1.563410e-03  0 
 4.675143e-05  -1.563411e-03  0 
 1.380408e-04  -1.563543e-03  0 
 2.293763e-04  -1.563733e-03  0 
VECTORS displacement_ITER11 FLOAT
 -2.257568e-04  -1.335993e-03  0 
 -2.271447e-04  -1.563714e-03  0 
 -1.349320e-04  -1.335713e-03  0 
 -4.421771e-05  -1.335607e-03  0 
 4.645839e-05  -1.335607e-03  0 
 1.371726e-04  -1.335713e-03  0 
 2.279969e-04  -1.335993e-03  0 
 -1.358039e-04  -1.563524e-03  0 
 -4.451056e-05  -1.563391e-03  0 
 4.675115e-05  -1.563391e-03  0 
 1.380445e-04  -1.563524e-03  0 
 2.293850e-04  -1.563714e-03  0 
VECTORS displacement_ITER12 FLOAT
 -2.257702e-04  -1.336035e-03  0 
 -2.271581e-04  -1.563773e-03  0 
 -1.349400e-04  -1.335756e-03  0 
 -4.421969e-05  -1.335651e-03  0 
 4.646098e-05  -1.335651e-03  0 
 1.371810e-04  -1.335756e-03  0 
 2.280106e-04  -1.336034e-03  0 
 -1.358113e-04  -1.563581e-03  0 
 -4.451302e-05  -1.563447e-03  0 
 4.675351e-05  -1.563447e-03  0 
 1.380521e-04  -1.563581e-03  0 
 2.293995e-04  -1.563772e-03  0 
VECTORS displacement_ITER13 FLOAT
 -2.257786e-04  -1.336061e-03  0 
 -2.271677e-04  -1.563809e-03  0 
 -1.349453e-04  -1.335783e-03  0 
 -4.422195e-05  -1.335679e-03  0 
 4.646183e-05  -1.335679e-03  0 
 1.371853e-04  -1.335784e-03  0 
 2.280188e-04  -1.336062e-03  0 
 -1.358161e-04  -1.563617e-03  0 
 -4.451467e-05  -1.563482e-03  0 
 4.675513e-05  -1.563483e-03  0 
 1.380562e-04  -1.563617e-03  0 
 2.294073e-04  -1.563809e-03  0 
VECTORS displacement_ITER14 FLOAT
 -2.257855e-04  -1.336069e-03  0 
 -2.271744e-04  -1.563821e-03  0 
 -1.349502e-04  -1.335792e-03  0 
 -4.422557e-05  -1.335687e-03  0 
 4.645969e-05  -1.335687e-03  0 
 1.371842e-04  -1.335792e-03  0 
 2.280193e-04  -1.336069e-03  0 
 -1.358209e-04  -1.563629e-03  0 
 -4.451865e-05  -1.563494e-03  0 
 4.675263e-05  -1.563494e-03  0 
 1.380548e-04  -1.563628e-03  0 
 2.294084e-04  -1.563821e-03  0 
VECTORS displacement_ITER15 FLOAT
 -2.257843e-04  -1.336076e-03  0 
 -2.271733e-04  -1.563828e-03  0 
 -1.349492e-04  -1.335799e-03  0 
 -4.422518e-05  -1.335694e-03  0 
 4.646008e-05  -1.335694e-03  0 
 1.371840e-04  -1.335799e-03  0 
 2.280191e-04  -1.336076e-03  0 
 -1.358200e-04  -1.563635e-03  0 
 -4.451807e-05  -1.563501e-03  0 
 4.675298e-05  -1.563501e-03  0 
 1.380548e-04  -1.563635e-03  0 
 2.294081e-04  -1.563828e-03  0 
VECTORS displacement_ITER16 FLOAT
 -2.257829e-04  -1.336068e-03  0 
 -2.271718e-04  -1.563819e-03  0 
 -1.349482e-04  -1.335791e-03  0 
 -4.422491e-05  -1.335686e-03  0 
 4.645998e-05  -1.335686e-03  0 
 1.371832e-04  -1.335791e-03  0 
 2.280178e-04  -1.336068e-03  0 
 -1.358191e-04  -1.563626e-03  0 
 -4.451766e-05  -1.563491e-03  0 
 4.675272e-05  -1.563491e-03  0 
 1.380541e-04  -1.563626e-03  0 
 2.294068e-04  -1.563818e-03  0 
VECTORS displacement_ITER17 FLOAT
 -2.257824e-04  -1.336067e-03  0 
 -2.271714e-04  -1.563816e-03  0 
 -1.349481e-04  -1.335789e-03  0 
 -4.422499e-05  -1.335685e-03  0 
 4.645965e-05  -1.335685e-03  0 
 1.371827e-04  -1.335789e-03  0 
 2.280170e-04  -1.336067e-03  0 
 -1.358189e-04  -1.563623e-03  0 
 -4.451770e-05  -1.563489e-03  0 
 4.675236e-05  -1.563489e-03  0 
 1.380535e-04  -1.563623e-03  0 
 2.294060e-04  -1.563816e-03  0 
VECTORS displacement_ITER18 FLOAT
 -2.257821e-04  -1.336065e-03  0 
 -2.271711e-04  -1.563814e-03  0 
 -1.349478e-04  -1.335787e-03  0 
 -4.422481e-05  -1.335683e-03  0 
 4.645962e-05  -1.335683e-03  0 
 1.371826e-04  -1.335787e-03  0 
 2.280168e-04  -1.336065e-03  0 
 -1.358187e-04  -1.563621e-03  0 
 -4.451757e-05  -1.563487e-03  0 
 4.675239e-05  -1.563487e-03  0 
 1.380535e-04  -1.563621e-03  0 
 2.294058e-04  -1.563814e-03  0 
VECTORS displacement_ITER19 FLOAT
 -2.257822e-04  -1.336065e-03  0 
 -2.271712e-04  -1.563814e-03  0 
 -1.349479e-04  -1.335787e-03  0 
 -4.422486e-05  -1.335683e-03  0 
 4.645962e-05  -1.335683e-03  0 
 1.371827e-04  -1.335787e-03  0 
 2.280169e-04  -1.336065e-03  0 
 -1.358188e-04  -1.563621e-03  0 
 -4.451765e-05  -1.563487e-03  0 
 4.675241e-05  -1.563487e-03  0 
 1.380536e-04  -1.563621e-03  0 
 2.294059e-04  -1.563814e-03  0 
VECTORS displacement_ITER20 FLOAT
 -2.257823e-04  -1.336065e-03  0 
 -2.271712e-04  -1.563815e-03  0 
 -1.349480e-04  -1.335788e-03  0 
 -4.422488e-05  -1.335683e-03  0 
 4.645961e-05  -1.335683e-03  0 
 1.371827e-04  -1.335788e-03  0 
 2.280169e-04  -1.336065e-03  0 
 -1.358188e-04  -1.563622e-03  0 
 -4.451767e-05  -1.563488e-03  0 
 4.675240e-05  -1.563488e-03  0 
 1.380535e-04  -1.563622e-03  0 
 2.294059e-04  -1.563815e-03  0 
VECTORS displacement_ITER21 FLOAT
 -2.257823e-04  -1.336065e-03  0 
 -2.271712e-04  -1.563815e-03  0 
 -1.349480e-04  -1.335788e-03  0 
 -4.422488e-05  -1.335683e-03  0 
 4.645963e-05  -1.335683e-03  0 
 1.371827e-04  -1.335788e-03  0 
 2.280170e-04  -1.336065e-03  0 
 -1.358189e-04  -1.563622e-03  0 
 -4.451767e-05  -1.563488e-03  0 
 4.675243e-05  -1.563488e-03  0 
 1.380536e-04  -1.563622e-03  0 
 2.294059e-04  -1.563815e-03  0 
VECTORS displacement_ITER22 FLOAT
 -2.257823e-04  -1.336065e-03  0 
 -2.271712e-04  -1.563815e-03  0 
 -1.349480e-04  -1.335788e-03  0 
 -4.422489e-05  -1.335683e-03  0 
 4.645963e-05  -1.335683e-03  0 
 1.371827e-04  -1.335788e-03  0 
 2.280170e-04  -1.336065e-03  0 
 -1.358189e-04  -1.563622e-03  0 
 -4.451768e-05  -1.563488e-03  0 
 4.675242e-05  -1.563488e-03  0 
 1.380536e-04  -1.563622e-03  0 
 2.294059e-04  -1.563815e-03  0 
VECTORS displacement_ITER23 FLOAT
 -2.257823e-04  -1.336065e-03  0 
 -2.271712e-04  -1.563815e-03  0 
 -1.349480e-04  -1.335787e-03  0 
 -4.422489e-05  -1.335683e-03  0 
 4.645962e-05  -1.335683e-03  0 
 1.371827e-04  -1.335788e-03  0 
 2.280170e-04  -1.336065e-03  0 
 -1.358189e-04  -1.563622e-03  0 
 -4.451768e-05  -1.563488e-03  0 
 4.675241e-05  -1.563488e-03  0 
 1.380536e-04  -1.563622e-03  0 
 2.294059e-04  -1.563815e-03  0 
VECTORS displacement_ITER24 FLOAT
 -2.257823e-04  -1.336065e-03  0 
 -2.271712e-04  -1.563815e-03  0 
 -1.349480e-04  -1.335787e-03  0 
 -4.422489e-05  -1.335683e-03  0 
 4.645963e-05  -1.335683e-03  0 
 1.371827e-04  -1.335788e-03  0 
 2.280170e-04  -1.336065e-03  0 
 -1.358189e-04  -1.563622e-03  0 
 -4.451768e-05  -1.563488e-03  0 
 4.675241e-05  -1.563488e-03  0 
 1.380536e-04  -1.563622e-03  0 
 2.294059e-04  -1.563814e-03  0 
VECTORS displacement_ITER25 FLOAT
 -2.257823e-04  -1.336065e-03  0 
 -2.271712e-04  -1.563815e-03  0 
 -1.349480e-04  -1.335787e-03  0 
 -4.422489e-05  -1.335683e-03  0 
 4.645963e-05  -1.335683e-03  0 
 1.371827e-04  -1.335788e-03  0 
 2.280170e-04  -1.336065e-03  0 
 -1.358189e-04  -1.563622e-03  0 
 -4.451768e-05  -1.563487e-03  0 
 4.675241e-05  -1.563487e-03  0 
 1.380536e-04  -1.563622e-03  0 
 2.294059e-04  -1.563814e-03  0 
CELL_DATA 5
TENSORS element_stresses FLOAT
 -2.095630e-03  -9.005155e-05  0 
 -9.005155e-05  5.472665e-04  0 
 0  0  0 

 -1.082020e-03  -4.446176e-04  0 
 -4.446176e-04  2.720891e-04  0 
 0  0  0 

 -6.907907e-09  -5.556459e-04  0 
 -5.556459e-04  -1.650781e-08  0 
 0  0  0 

 1.082013e-03  -4.446225e-04  0 
 -4.446225e-04  -2.721130e-04  0 
 0  0  0 

 2.095644e-03  -9.006248e-05  0 
 -9.006248e-05  -5.472723e-04  0 
 0  0  0 

TENSORS element_stresses FLOAT
 -2.095630e-03  -9.005155e-05  0 
 -9.005155e-05  5.472665e-04  0 
 0  0  0 

 -1.082020e-03  -4.446176e-04  0 
 -4.446176e-04  2.720891e-04  0 
 0  0  0 

 -6.907907e-09  -5.556459e-04  0 
 -5.556459e-04  -1.650781e-08  0 
 0  0  0 

 1.082013e-03  -4.446225e-04  0 
 -4.446225e-04  -2.721130e-04  0 
 0  0  0 

 2.095644e-03  -9.006248e-05  0 
 -9.006248e-05  -5.472723e-04  0 
 0  0  0 

