# vtk DataFile Version 3.1
this is an vtk file created by FEMAC
ASCII
DATASET UNSTRUCTURED_GRID
POINTS 12 FLOAT
5.500000 0.000000 0.000000
6.000000 0.000000 0.000000
5.500000 0.200000 0.000000
5.500000 0.400000 0.000000
5.500000 0.600000 0.000000
5.500000 0.800000 0.000000
5.500000 1.000000 0.000000
6.000000 0.200000 0.000000
6.000000 0.400000 0.000000
6.000000 0.600000 0.000000
6.000000 0.800000 0.000000
6.000000 1.000000 0.000000
CELLS 5 25 
4 0 1 7 2
4 2 7 8 3
4 3 8 9 4
4 4  9 10  5
4 5 10 11  6
CELL_TYPES 5
9 9 9 9 9 
POINT_DATA 12
VECTORS displacement_ITER1 FLOAT
 -2.404200e-04  -1.812180e-03  0 
 -2.410784e-04  -2.054565e-03  0 
 -1.436108e-04  -1.812086e-03  0 
 -4.683785e-05  -1.812000e-03  0 
 4.991555e-05  -1.812000e-03  0 
 1.466885e-04  -1.812086e-03  0 
 2.434977e-04  -1.812180e-03  0 
 -1.440085e-04  -2.054492e-03  0 
 -4.697158e-05  -2.054487e-03  0 
 5.004917e-05  -2.054487e-03  0 
 1.470861e-04  -2.054492e-03  0 
 2.441560e-04  -2.054564e-03  0 
VECTORS displacement_ITER2 FLOAT
 -2.379963e-04  -1.803432e-03  0 
 -2.386653e-04  -2.043026e-03  0 
 -1.423106e-04  -1.803318e-03  0 
 -4.666320e-05  -1.803243e-03  0 
 4.897265e-05  -1.803243e-03  0 
 1.446200e-04  -1.803318e-03  0 
 2.403058e-04  -1.803432e-03  0 
 -1.427185e-04  -2.042937e-03  0 
 -4.680053e-05  -2.042907e-03  0 
 4.910997e-05  -2.042907e-03  0 
 1.450280e-04  -2.042937e-03  0 
 2.409747e-04  -2.043026e-03  0 
VECTORS displacement_ITER3 FLOAT
 -2.368391e-04  -1.800911e-03  0 
 -2.375115e-04  -2.039337e-03  0 
 -1.416192e-04  -1.800785e-03  0 
 -4.644364e-05  -1.800717e-03  0 
 4.872376e-05  -1.800717e-03  0 
 1.438994e-04  -1.800785e-03  0 
 2.391192e-04  -1.800911e-03  0 
 -1.420334e-04  -2.039243e-03  0 
 -4.658312e-05  -2.039200e-03  0 
 4.886329e-05  -2.039200e-03  0 
 1.443136e-04  -2.039243e-03  0 
 2.397917e-04  -2.039337e-03  0 
VECTORS displacement_ITER4 FLOAT
 -2.364688e-04  -1.799635e-03  0 
 -2.371408e-04  -2.037704e-03  0 
 -1.413827e-04  -1.799500e-03  0 
 -4.635067e-05  -1.799433e-03  0 
 4.867147e-05  -1.799433e-03  0 
 1.437035e-04  -1.799500e-03  0 
 2.387896e-04  -1.799636e-03  0 
 -1.418006e-04  -2.037612e-03  0 
 -4.649134e-05  -2.037565e-03  0 
 4.881218e-05  -2.037565e-03  0 
 1.441215e-04  -2.037613e-03  0 
 2.394617e-04  -2.037704e-03  0 
VECTORS displacement_ITER5 FLOAT
 -2.362857e-04  -1.798709e-03  0 
 -2.369564e-04  -2.036575e-03  0 
 -1.412716e-04  -1.798566e-03  0 
 -4.632092e-05  -1.798502e-03  0 
 4.861755e-05  -1.798502e-03  0 
 1.435683e-04  -1.798566e-03  0 
 2.385824e-04  -1.798709e-03  0 
 -1.416927e-04  -2.036487e-03  0 
 -4.646244e-05  -2.036437e-03  0 
 4.875911e-05  -2.036437e-03  0 
 1.439894e-04  -2.036487e-03  0 
 2.392531e-04  -2.036575e-03  0 
VECTORS displacement_ITER6 FLOAT
 -2.362274e-04  -1.798494e-03  0 
 -2.368972e-04  -2.036289e-03  0 
 -1.412391e-04  -1.798349e-03  0 
 -4.631782e-05  -1.798288e-03  0 
 4.859004e-05  -1.798288e-03  0 
 1.435118e-04  -1.798350e-03  0 
 2.385008e-04  -1.798495e-03  0 
 -1.416617e-04  -2.036203e-03  0 
 -4.645939e-05  -2.036150e-03  0 
 4.873221e-05  -2.036150e-03  0 
 1.439345e-04  -2.036203e-03  0 
 2.391700e-04  -2.036290e-03  0 
VECTORS displacement_ITER7 FLOAT
 -2.361621e-04  -1.798451e-03  0 
 -2.368285e-04  -2.036179e-03  0 
 -1.411953e-04  -1.798304e-03  0 
 -4.629970e-05  -1.798246e-03  0 
 4.857896e-05  -1.798245e-03  0 
 1.434724e-04  -1.798301e-03  0 
 2.384362e-04  -1.798448e-03  0 
 -1.416198e-04  -2.036095e-03  0 
 -4.644296e-05  -2.036036e-03  0 
 4.872017e-05  -2.036036e-03  0 
 1.438967e-04  -2.036095e-03  0 
 2.391049e-04  -2.036180e-03  0 
VECTORS displacement_ITER8 FLOAT
 -2.361360e-04  -1.798401e-03  0 
 -2.368026e-04  -2.036096e-03  0 
 -1.411853e-04  -1.798254e-03  0 
 -4.630740e-05  -1.798201e-03  0 
 4.855289e-05  -1.798202e-03  0 
 1.434323e-04  -1.798256e-03  0 
 2.383855e-04  -1.798404e-03  0 
 -1.416109e-04  -2.036013e-03  0 
 -4.644959e-05  -2.035949e-03  0 
 4.869580e-05  -2.035948e-03  0 
 1.438580e-04  -2.036011e-03  0 
 2.390514e-04  -2.036094e-03  0 
VECTORS displacement_ITER9 FLOAT
 -2.361197e-04  -1.798309e-03  0 
 -2.367863e-04  -2.035991e-03  0 
 -1.411707e-04  -1.798161e-03  0 
 -4.629635e-05  -1.798110e-03  0 
 4.855730e-05  -1.798110e-03  0 
 1.434319e-04  -1.798161e-03  0 
 2.383811e-04  -1.798309e-03  0 
 -1.415966e-04  -2.035908e-03  0 
 -4.643834e-05  -2.035843e-03  0 
 4.870094e-05  -2.035844e-03  0 
 1.438581e-04  -2.035910e-03  0 
 2.390458e-04  -2.035993e-03  0 
VECTORS displacement_ITER10 FLOAT
 -2.361289e-04  -1.798205e-03  0 
 -2.367933e-04  -2.035890e-03  0 
 -1.411769e-04  -1.798057e-03  0 
 -4.630094e-05  -1.798006e-03  0 
 4.855066e-05  -1.798006e-03  0 
 1.434257e-04  -1.798056e-03  0 
 2.383759e-04  -1.798202e-03  0 
 -1.416032e-04  -2.035807e-03  0 
 -4.644489e-05  -2.035740e-03  0 
 4.869305e-05  -2.035740e-03  0 
 1.438517e-04  -2.035807e-03  0 
 2.390420e-04  -2.035890e-03  0 
VECTORS displacement_ITER11 FLOAT
 -2.361456e-04  -1.798192e-03  0 
 -2.368104e-04  -2.035892e-03  0 
 -1.411898e-04  -1.798046e-03  0 
 -4.630971e-05  -1.797996e-03  0 
 4.854417e-05  -1.797996e-03  0 
 1.434241e-04  -1.798046e-03  0 
 2.383801e-04  -1.798192e-03  0 
 -1.416158e-04  -2.035808e-03  0 
 -4.645350e-05  -2.035740e-03  0 
 4.868736e-05  -2.035739e-03  0 
 1.438501e-04  -2.035807e-03  0 
 2.390456e-04  -2.035891e-03  0 
VECTORS displacement_ITER12 FLOAT
 -2.361570e-04  -1.798268e-03  0 
 -2.368228e-04  -2.035984e-03  0 
 -1.411953e-04  -1.798123e-03  0 
 -4.630913e-05  -1.798075e-03  0 
 4.854967e-05  -1.798075e-03  0 
 1.434362e-04  -1.798124e-03  0 
 2.383986e-04  -1.798269e-03  0 
 -1.416208e-04  -2.035900e-03  0 
 -4.645242e-05  -2.035831e-03  0 
 4.869396e-05  -2.035832e-03  0 
 1.438619e-04  -2.035901e-03  0 
 2.390633e-04  -2.035985e-03  0 
VECTORS displacement_ITER13 FLOAT
 -2.361671e-04  -1.798313e-03  0 
 -2.368322e-04  -2.036039e-03  0 
 -1.412009e-04  -1.798168e-03  0 
 -4.631088e-05  -1.798120e-03  0 
 4.855121e-05  -1.798119e-03  0 
 1.434410e-04  -1.798168e-03  0 
 2.384067e-04  -1.798312e-03  0 
 -1.416264e-04  -2.035954e-03  0 
 -4.645515e-05  -2.035885e-03  0 
 4.869480e-05  -2.035885e-03  0 
 1.438664e-04  -2.035954e-03  0 
 2.390725e-04  -2.036039e-03  0 
VECTORS displacement_ITER14 FLOAT
 -2.361735e-04  -1.798326e-03  0 
 -2.368391e-04  -2.036056e-03  0 
 -1.412056e-04  -1.798181e-03  0 
 -4.631448e-05  -1.798133e-03  0 
 4.854923e-05  -1.798133e-03  0 
 1.434405e-04  -1.798181e-03  0 
 2.384083e-04  -1.798326e-03  0 
 -1.416310e-04  -2.035971e-03  0 
 -4.645831e-05  -2.035902e-03  0 
 4.869316e-05  -2.035902e-03  0 
 1.438659e-04  -2.035971e-03  0 
 2.390738e-04  -2.036057e-03  0 
VECTORS displacement_ITER15 FLOAT
 -2.361725e-04  -1.798333e-03  0 
 -2.368381e-04  -2.036063e-03  0 
 -1.412050e-04  -1.798189e-03  0 
 -4.631452e-05  -1.798141e-03  0 
 4.854912e-05  -1.798141e-03  0 
 1.434396e-04  -1.798189e-03  0 
 2.384071e-04  -1.798333e-03  0 
 -1.416305e-04  -2.035978e-03  0 
 -4.645819e-05  -2.035909e-03  0 
 4.869276e-05  -2.035909e-03  0 
 1.438650e-04  -2.035978e-03  0 
 2.390727e-04  -2.036063e-03  0 
VECTORS displacement_ITER16 FLOAT
 -2.361705e-04  -1.798321e-03  0 
 -2.368362e-04  -2.036050e-03  0 
 -1.412037e-04  -1.798177e-03  0 
 -4.631412e-05  -1.798129e-03  0 
 4.854892e-05  -1.798129e-03  0 
 1.434385e-04  -1.798177e-03  0 
 2.384054e-04  -1.798321e-03  0 
 -1.416292e-04  -2.035964e-03  0 
 -4.645761e-05  -2.035895e-03  0 
 4.869242e-05  -2.035895e-03  0 
 1.438640e-04  -2.035964e-03  0 
 2.390710e-04  -2.036050e-03  0 
VECTORS displacement_ITER17 FLOAT
 -2.361700e-04  -1.798318e-03  0 
 -2.368356e-04  -2.036046e-03  0 
 -1.412034e-04  -1.798174e-03  0 
 -4.631406e-05  -1.798126e-03  0 
 4.854877e-05  -1.798126e-03  0 
 1.434381e-04  -1.798174e-03  0 
 2.384047e-04  -1.798318e-03  0 
 -1.416289e-04  -2.035961e-03  0 
 -4.645751e-05  -2.035892e-03  0 
 4.869223e-05  -2.035892e-03  0 
 1.438636e-04  -2.035961e-03  0 
 2.390703e-04  -2.036046e-03  0 
VECTORS displacement_ITER18 FLOAT
 -2.361700e-04  -1.798316e-03  0 
 -2.368356e-04  -2.036044e-03  0 
 -1.412034e-04  -1.798172e-03  0 
 -4.631403e-05  -1.798123e-03  0 
 4.854880e-05  -1.798123e-03  0 
 1.434382e-04  -1.798172e-03  0 
 2.384048e-04  -1.798316e-03  0 
 -1.416289e-04  -2.035958e-03  0 
 -4.645750e-05  -2.035889e-03  0 
 4.869226e-05  -2.035889e-03  0 
 1.438637e-04  -2.035958e-03  0 
 2.390704e-04  -2.036044e-03  0 
VECTORS displacement_ITER19 FLOAT
 -2.361701e-04  -1.798317e-03  0 
 -2.368357e-04  -2.036044e-03  0 
 -1.412035e-04  -1.798172e-03  0 
 -4.631406e-05  -1.798124e-03  0 
 4.854877e-05  -1.798124e-03  0 
 1.434382e-04  -1.798172e-03  0 
 2.384048e-04  -1.798317e-03  0 
 -1.416290e-04  -2.035959e-03  0 
 -4.645755e-05  -2.035890e-03  0 
 4.869227e-05  -2.035890e-03  0 
 1.438637e-04  -2.035959e-03  0 
 2.390704e-04  -2.036044e-03  0 
VECTORS displacement_ITER20 FLOAT
 -2.361701e-04  -1.798317e-03  0 
 -2.368357e-04  -2.036045e-03  0 
 -1.412035e-04  -1.798173e-03  0 
 -4.631404e-05  -1.798124e-03  0 
 4.854876e-05  -1.798124e-03  0 
 1.434382e-04  -1.798173e-03  0 
 2.384048e-04  -1.798317e-03  0 
 -1.416290e-04  -2.035959e-03  0 
 -4.645756e-05  -2.035890e-03  0 
 4.869228e-05  -2.035890e-03  0 
 1.438637e-04  -2.035959e-03  0 
 2.390704e-04  -2.036045e-03  0 
VECTORS displacement_ITER21 FLOAT
 -2.361701e-04  -1.798317e-03  0 
 -2.368357e-04  -2.036045e-03  0 
 -1.412035e-04  -1.798173e-03  0 
 -4.631404e-05  -1.798124e-03  0 
 4.854877e-05  -1.798124e-03  0 
 1.434382e-04  -1.798173e-03  0 
 2.384048e-04  -1.798317e-03  0 
 -1.416290e-04  -2.035959e-03  0 
 -4.645756e-05  -2.035890e-03  0 
 4.869230e-05  -2.035890e-03  0 
 1.438637e-04  -2.035959e-03  0 
 2.390704e-04  -2.036045e-03  0 
VECTORS displacement_ITER22 FLOAT
 -2.361701e-04  -1.798317e-03  0 
 -2.368357e-04  -2.036045e-03  0 
 -1.412035e-04  -1.798173e-03  0 
 -4.631405e-05  -1.798124e-03  0 
 4.854877e-05  -1.798124e-03  0 
 1.434382e-04  -1.798173e-03  0 
 2.384048e-04  -1.798317e-03  0 
 -1.416290e-04  -2.035959e-03  0 
 -4.645757e-05  -2.035890e-03  0 
 4.869228e-05  -2.035890e-03  0 
 1.438637e-04  -2.035959e-03  0 
 2.390704e-04  -2.036045e-03  0 
VECTORS displacement_ITER23 FLOAT
 -2.361701e-04  -1.798317e-03  0 
 -2.368357e-04  -2.036045e-03  0 
 -1.412035e-04  -1.798173e-03  0 
 -4.631405e-05  -1.798124e-03  0 
 4.854877e-05  -1.798124e-03  0 
 1.434382e-04  -1.798173e-03  0 
 2.384048e-04  -1.798317e-03  0 
 -1.416290e-04  -2.035959e-03  0 
 -4.645757e-05  -2.035890e-03  0 
 4.869229e-05  -2.035890e-03  0 
 1.438637e-04  -2.035959e-03  0 
 2.390704e-04  -2.036045e-03  0 
VECTORS displacement_ITER24 FLOAT
 -2.361701e-04  -1.798317e-03  0 
 -2.368357e-04  -2.036045e-03  0 
 -1.412035e-04  -1.798173e-03  0 
 -4.631405e-05  -1.798124e-03  0 
 4.854877e-05  -1.798124e-03  0 
 1.434382e-04  -1.798173e-03  0 
 2.384048e-04  -1.798317e-03  0 
 -1.416290e-04  -2.035959e-03  0 
 -4.645757e-05  -2.035890e-03  0 
 4.869229e-05  -2.035890e-03  0 
 1.438637e-04  -2.035959e-03  0 
 2.390704e-04  -2.036045e-03  0 
VECTORS displacement_ITER25 FLOAT
 -2.361701e-04  -1.798317e-03  0 
 -2.368357e-04  -2.036045e-03  0 
 -1.412035e-04  -1.798173e-03  0 
 -4.631406e-05  -1.798124e-03  0 
 4.854877e-05  -1.798124e-03  0 
 1.434382e-04  -1.798173e-03  0 
 2.384048e-04  -1.798317e-03  0 
 -1.416290e-04  -2.035959e-03  0 
 -4.645757e-05  -2.035890e-03  0 
 4.869229e-05  -2.035890e-03  0 
 1.438637e-04  -2.035959e-03  0 
 2.390704e-04  -2.036045e-03  0 
CELL_DATA 5
TENSORS element_stresses FLOAT
 -1.009661e-03  -6.234851e-05  0 
 -6.234851e-05  2.714457e-04  0 
 0  0  0 

 -5.285577e-04  -3.078140e-04  0 
 -3.078140e-04  1.348055e-04  0 
 0  0  0 

 6.237790e-10  -3.846760e-04  0 
 -3.846760e-04  1.146089e-09  0 
 0  0  0 

 5.285581e-04  -3.078137e-04  0 
 -3.078137e-04  -1.348040e-04  0 
 0  0  0 

 1.009660e-03  -6.234781e-05  0 
 -6.234781e-05  -2.714455e-04  0 
 0  0  0 

TENSORS element_stresses FLOAT
 -1.009661e-03  -6.234851e-05  0 
 -6.234851e-05  2.714457e-04  0 
 0  0  0 

 -5.285577e-04  -3.078140e-04  0 
 -3.078140e-04  1.348055e-04  0 
 0  0  0 

 6.237790e-10  -3.846760e-04  0 
 -3.846760e-04  1.146089e-09  0 
 0  0  0 

 5.285581e-04  -3.078137e-04  0 
 -3.078137e-04  -1.348040e-04  0 
 0  0  0 

 1.009660e-03  -6.234781e-05  0 
 -6.234781e-05  -2.714455e-04  0 
 0  0  0 

