# vtk DataFile Version 3.1
this is an vtk file created by FEMAC
ASCII
DATASET UNSTRUCTURED_GRID
POINTS 12 FLOAT
6.500000 0.000000 0.000000
7.000000 0.000000 0.000000
6.500000 0.200000 0.000000
6.500000 0.400000 0.000000
6.500000 0.600000 0.000000
6.500000 0.800000 0.000000
6.500000 1.000000 0.000000
7.000000 0.200000 0.000000
7.000000 0.400000 0.000000
7.000000 0.600000 0.000000
7.000000 0.800000 0.000000
7.000000 1.000000 0.000000
CELLS 5 25 
4 0 1 7 2
4 2 7 8 3
4 3 8 9 4
4 4  9 10  5
4 5 10 11  6
CELL_TYPES 5
9 9 9 9 9 
POINT_DATA 12
VECTORS displacement_ITER1 FLOAT
 -2.448874e-04  -2.299907e-03  0 
 -2.450978e-04  -2.546488e-03  0 
 -1.463006e-04  -2.299866e-03  0 
 -4.773727e-05  -2.299804e-03  0 
 5.081596e-05  -2.299803e-03  0 
 1.493793e-04  -2.299865e-03  0 
 2.479661e-04  -2.299907e-03  0 
 -1.464417e-04  -2.546449e-03  0 
 -4.778645e-05  -2.546463e-03  0 
 5.086502e-05  -2.546463e-03  0 
 1.495203e-04  -2.546448e-03  0 
 2.481764e-04  -2.546488e-03  0 
VECTORS displacement_ITER2 FLOAT
 -2.424067e-04  -2.285835e-03  0 
 -2.426137e-04  -2.529558e-03  0 
 -1.449676e-04  -2.285794e-03  0 
 -4.755162e-05  -2.285749e-03  0 
 4.986113e-05  -2.285749e-03  0 
 1.472771e-04  -2.285794e-03  0 
 2.447162e-04  -2.285835e-03  0 
 -1.451089e-04  -2.529521e-03  0 
 -4.760034e-05  -2.529526e-03  0 
 4.990985e-05  -2.529526e-03  0 
 1.474184e-04  -2.529521e-03  0 
 2.449232e-04  -2.529558e-03  0 
VECTORS displacement_ITER3 FLOAT
 -2.412209e-04  -2.281072e-03  0 
 -2.414258e-04  -2.523595e-03  0 
 -1.442610e-04  -2.281028e-03  0 
 -4.732708e-05  -2.280993e-03  0 
 4.960690e-05  -2.280993e-03  0 
 1.465408e-04  -2.281028e-03  0 
 2.435007e-04  -2.281072e-03  0 
 -1.444033e-04  -2.523561e-03  0 
 -4.737576e-05  -2.523560e-03  0 
 4.965562e-05  -2.523560e-03  0 
 1.466832e-04  -2.523561e-03  0 
 2.437057e-04  -2.523595e-03  0 
VECTORS displacement_ITER4 FLOAT
 -2.408412e-04  -2.279025e-03  0 
 -2.410451e-04  -2.521183e-03  0 
 -1.440209e-04  -2.278976e-03  0 
 -4.723331e-05  -2.278943e-03  0 
 4.955373e-05  -2.278943e-03  0 
 1.463414e-04  -2.278976e-03  0 
 2.431616e-04  -2.279025e-03  0 
 -1.441647e-04  -2.521152e-03  0 
 -4.728212e-05  -2.521149e-03  0 
 4.960260e-05  -2.521149e-03  0 
 1.464851e-04  -2.521152e-03  0 
 2.433656e-04  -2.521183e-03  0 
VECTORS displacement_ITER5 FLOAT
 -2.406514e-04  -2.277631e-03  0 
 -2.408547e-04  -2.519581e-03  0 
 -1.439079e-04  -2.277577e-03  0 
 -4.720327e-05  -2.277546e-03  0 
 4.949950e-05  -2.277546e-03  0 
 1.462042e-04  -2.277577e-03  0 
 2.429477e-04  -2.277631e-03  0 
 -1.440527e-04  -2.519555e-03  0 
 -4.725201e-05  -2.519549e-03  0 
 4.954829e-05  -2.519549e-03  0 
 1.463490e-04  -2.519555e-03  0 
 2.431509e-04  -2.519581e-03  0 
VECTORS displacement_ITER6 FLOAT
 -2.405881e-04  -2.277261e-03  0 
 -2.407912e-04  -2.519136e-03  0 
 -1.438727e-04  -2.277206e-03  0 
 -4.719846e-05  -2.277177e-03  0 
 4.947309e-05  -2.277177e-03  0 
 1.461473e-04  -2.277206e-03  0 
 2.428628e-04  -2.277261e-03  0 
 -1.440176e-04  -2.519112e-03  0 
 -4.724689e-05  -2.519104e-03  0 
 4.952156e-05  -2.519104e-03  0 
 1.462923e-04  -2.519112e-03  0 
 2.430658e-04  -2.519136e-03  0 
VECTORS displacement_ITER7 FLOAT
 -2.405224e-04  -2.277091e-03  0 
 -2.407253e-04  -2.518896e-03  0 
 -1.438335e-04  -2.277034e-03  0 
 -4.718778e-05  -2.277010e-03  0 
 4.945380e-05  -2.277010e-03  0 
 1.460993e-04  -2.277034e-03  0 
 2.427879e-04  -2.277091e-03  0 
 -1.439782e-04  -2.518875e-03  0 
 -4.723577e-05  -2.518861e-03  0 
 4.950155e-05  -2.518861e-03  0 
 1.462439e-04  -2.518875e-03  0 
 2.429911e-04  -2.518896e-03  0 
VECTORS displacement_ITER8 FLOAT
 -2.404846e-04  -2.276971e-03  0 
 -2.406885e-04  -2.518738e-03  0 
 -1.438120e-04  -2.276914e-03  0 
 -4.718348e-05  -2.276894e-03  0 
 4.943966e-05  -2.276894e-03  0 
 1.460691e-04  -2.276915e-03  0 
 2.427429e-04  -2.276973e-03  0 
 -1.439561e-04  -2.518717e-03  0 
 -4.723052e-05  -2.518700e-03  0 
 4.948758e-05  -2.518700e-03  0 
 1.462133e-04  -2.518717e-03  0 
 2.429458e-04  -2.518738e-03  0 
VECTORS displacement_ITER9 FLOAT
 -2.404721e-04  -2.276855e-03  0 
 -2.406755e-04  -2.518610e-03  0 
 -1.438015e-04  -2.276797e-03  0 
 -4.717597e-05  -2.276778e-03  0 
 4.944109e-05  -2.276777e-03  0 
 1.460655e-04  -2.276796e-03  0 
 2.427342e-04  -2.276853e-03  0 
 -1.439452e-04  -2.518590e-03  0 
 -4.722383e-05  -2.518571e-03  0 
 4.948808e-05  -2.518571e-03  0 
 1.462091e-04  -2.518591e-03  0 
 2.429386e-04  -2.518611e-03  0 
VECTORS displacement_ITER10 FLOAT
 -2.404880e-04  -2.276745e-03  0 
 -2.406923e-04  -2.518508e-03  0 
 -1.438170e-04  -2.276689e-03  0 
 -4.719061e-05  -2.276671e-03  0 
 4.942515e-05  -2.276671e-03  0 
 1.460519e-04  -2.276689e-03  0 
 2.427237e-04  -2.276746e-03  0 
 -1.439599e-04  -2.518488e-03  0 
 -4.723846e-05  -2.518466e-03  0 
 4.947246e-05  -2.518465e-03  0 
 1.461947e-04  -2.518487e-03  0 
 2.429286e-04  -2.518506e-03  0 
VECTORS displacement_ITER11 FLOAT
 -2.404967e-04  -2.276755e-03  0 
 -2.407027e-04  -2.518529e-03  0 
 -1.438208e-04  -2.276699e-03  0 
 -4.718956e-05  -2.276682e-03  0 
 4.942876e-05  -2.276682e-03  0 
 1.460605e-04  -2.276699e-03  0 
 2.427370e-04  -2.276755e-03  0 
 -1.439629e-04  -2.518509e-03  0 
 -4.723674e-05  -2.518486e-03  0 
 4.947727e-05  -2.518486e-03  0 
 1.462027e-04  -2.518510e-03  0 
 2.429415e-04  -2.518530e-03  0 
VECTORS displacement_ITER12 FLOAT
 -2.405113e-04  -2.276867e-03  0 
 -2.407165e-04  -2.518659e-03  0 
 -1.438283e-04  -2.276812e-03  0 
 -4.719008e-05  -2.276796e-03  0 
 4.943296e-05  -2.276796e-03  0 
 1.460708e-04  -2.276811e-03  0 
 2.427530e-04  -2.276866e-03  0 
 -1.439700e-04  -2.518639e-03  0 
 -4.723880e-05  -2.518613e-03  0 
 4.948071e-05  -2.518613e-03  0 
 1.462123e-04  -2.518638e-03  0 
 2.429592e-04  -2.518659e-03  0 
VECTORS displacement_ITER13 FLOAT
 -2.405221e-04  -2.276929e-03  0 
 -2.407282e-04  -2.518733e-03  0 
 -1.438356e-04  -2.276874e-03  0 
 -4.719386e-05  -2.276860e-03  0 
 4.943222e-05  -2.276860e-03  0 
 1.460742e-04  -2.276875e-03  0 
 2.427612e-04  -2.276930e-03  0 
 -1.439770e-04  -2.518711e-03  0 
 -4.724213e-05  -2.518686e-03  0 
 4.948108e-05  -2.518686e-03  0 
 1.462158e-04  -2.518712e-03  0 
 2.429667e-04  -2.518733e-03  0 
VECTORS displacement_ITER14 FLOAT
 -2.405286e-04  -2.276949e-03  0 
 -2.407342e-04  -2.518757e-03  0 
 -1.438397e-04  -2.276894e-03  0 
 -4.719639e-05  -2.276880e-03  0 
 4.943097e-05  -2.276880e-03  0 
 1.460742e-04  -2.276894e-03  0 
 2.427631e-04  -2.276949e-03  0 
 -1.439814e-04  -2.518735e-03  0 
 -4.724518e-05  -2.518709e-03  0 
 4.947968e-05  -2.518709e-03  0 
 1.462159e-04  -2.518735e-03  0 
 2.429688e-04  -2.518757e-03  0 
VECTORS displacement_ITER15 FLOAT
 -2.405272e-04  -2.276954e-03  0 
 -2.407327e-04  -2.518762e-03  0 
 -1.438385e-04  -2.276900e-03  0 
 -4.719605e-05  -2.276886e-03  0 
 4.943086e-05  -2.276886e-03  0 
 1.460734e-04  -2.276900e-03  0 
 2.427620e-04  -2.276954e-03  0 
 -1.439804e-04  -2.518740e-03  0 
 -4.724473e-05  -2.518713e-03  0 
 4.947955e-05  -2.518713e-03  0 
 1.462152e-04  -2.518740e-03  0 
 2.429675e-04  -2.518762e-03  0 
VECTORS displacement_ITER16 FLOAT
 -2.405254e-04  -2.276938e-03  0 
 -2.407307e-04  -2.518744e-03  0 
 -1.438373e-04  -2.276884e-03  0 
 -4.719570e-05  -2.276870e-03  0 
 4.943063e-05  -2.276870e-03  0 
 1.460722e-04  -2.276884e-03  0 
 2.427603e-04  -2.276938e-03  0 
 -1.439793e-04  -2.518722e-03  0 
 -4.724428e-05  -2.518696e-03  0 
 4.947921e-05  -2.518696e-03  0 
 1.462142e-04  -2.518722e-03  0 
 2.429656e-04  -2.518744e-03  0 
VECTORS displacement_ITER17 FLOAT
 -2.405249e-04  -2.276935e-03  0 
 -2.407302e-04  -2.518739e-03  0 
 -1.438371e-04  -2.276880e-03  0 
 -4.719578e-05  -2.276866e-03  0 
 4.943037e-05  -2.276866e-03  0 
 1.460717e-04  -2.276880e-03  0 
 2.427595e-04  -2.276935e-03  0 
 -1.439792e-04  -2.518717e-03  0 
 -4.724432e-05  -2.518691e-03  0 
 4.947891e-05  -2.518691e-03  0 
 1.462138e-04  -2.518717e-03  0 
 2.429648e-04  -2.518739e-03  0 
VECTORS displacement_ITER18 FLOAT
 -2.405248e-04  -2.276932e-03  0 
 -2.407301e-04  -2.518737e-03  0 
 -1.438370e-04  -2.276878e-03  0 
 -4.719569e-05  -2.276863e-03  0 
 4.943047e-05  -2.276863e-03  0 
 1.460718e-04  -2.276878e-03  0 
 2.427596e-04  -2.276932e-03  0 
 -1.439791e-04  -2.518715e-03  0 
 -4.724423e-05  -2.518689e-03  0 
 4.947901e-05  -2.518689e-03  0 
 1.462139e-04  -2.518715e-03  0 
 2.429649e-04  -2.518737e-03  0 
VECTORS displacement_ITER19 FLOAT
 -2.405250e-04  -2.276933e-03  0 
 -2.407302e-04  -2.518738e-03  0 
 -1.438371e-04  -2.276878e-03  0 
 -4.719572e-05  -2.276864e-03  0 
 4.943047e-05  -2.276864e-03  0 
 1.460719e-04  -2.276878e-03  0 
 2.427597e-04  -2.276933e-03  0 
 -1.439792e-04  -2.518716e-03  0 
 -4.724428e-05  -2.518690e-03  0 
 4.947903e-05  -2.518690e-03  0 
 1.462140e-04  -2.518716e-03  0 
 2.429650e-04  -2.518738e-03  0 
VECTORS displacement_ITER20 FLOAT
 -2.405250e-04  -2.276933e-03  0 
 -2.407303e-04  -2.518738e-03  0 
 -1.438372e-04  -2.276879e-03  0 
 -4.719575e-05  -2.276864e-03  0 
 4.943047e-05  -2.276864e-03  0 
 1.460719e-04  -2.276879e-03  0 
 2.427597e-04  -2.276933e-03  0 
 -1.439792e-04  -2.518716e-03  0 
 -4.724431e-05  -2.518690e-03  0 
 4.947903e-05  -2.518690e-03  0 
 1.462140e-04  -2.518716e-03  0 
 2.429650e-04  -2.518738e-03  0 
VECTORS displacement_ITER21 FLOAT
 -2.405249e-04  -2.276933e-03  0 
 -2.407302e-04  -2.518738e-03  0 
 -1.438372e-04  -2.276879e-03  0 
 -4.719574e-05  -2.276865e-03  0 
 4.943048e-05  -2.276865e-03  0 
 1.460719e-04  -2.276879e-03  0 
 2.427597e-04  -2.276933e-03  0 
 -1.439792e-04  -2.518716e-03  0 
 -4.724429e-05  -2.518690e-03  0 
 4.947903e-05  -2.518690e-03  0 
 1.462140e-04  -2.518716e-03  0 
 2.429650e-04  -2.518738e-03  0 
VECTORS displacement_ITER22 FLOAT
 -2.405249e-04  -2.276933e-03  0 
 -2.407302e-04  -2.518738e-03  0 
 -1.438371e-04  -2.276879e-03  0 
 -4.719575e-05  -2.276864e-03  0 
 4.943047e-05  -2.276864e-03  0 
 1.460719e-04  -2.276879e-03  0 
 2.427597e-04  -2.276933e-03  0 
 -1.439792e-04  -2.518716e-03  0 
 -4.724430e-05  -2.518690e-03  0 
 4.947902e-05  -2.518690e-03  0 
 1.462139e-04  -2.518716e-03  0 
 2.429650e-04  -2.518738e-03  0 
VECTORS displacement_ITER23 FLOAT
 -2.405250e-04  -2.276933e-03  0 
 -2.407303e-04  -2.518738e-03  0 
 -1.438372e-04  -2.276879e-03  0 
 -4.719575e-05  -2.276864e-03  0 
 4.943047e-05  -2.276864e-03  0 
 1.460719e-04  -2.276879e-03  0 
 2.427597e-04  -2.276933e-03  0 
 -1.439792e-04  -2.518716e-03  0 
 -4.724431e-05  -2.518690e-03  0 
 4.947902e-05  -2.518690e-03  0 
 1.462139e-04  -2.518716e-03  0 
 2.429650e-04  -2.518738e-03  0 
VECTORS displacement_ITER24 FLOAT
 -2.405250e-04  -2.276933e-03  0 
 -2.407303e-04  -2.518738e-03  0 
 -1.438372e-04  -2.276879e-03  0 
 -4.719575e-05  -2.276864e-03  0 
 4.943047e-05  -2.276864e-03  0 
 1.460719e-04  -2.276879e-03  0 
 2.427597e-04  -2.276933e-03  0 
 -1.439792e-04  -2.518716e-03  0 
 -4.724431e-05  -2.518690e-03  0 
 4.947903e-05  -2.518690e-03  0 
 1.462140e-04  -2.518716e-03  0 
 2.429650e-04  -2.518738e-03  0 
VECTORS displacement_ITER25 FLOAT
 -2.405250e-04  -2.276933e-03  0 
 -2.407303e-04  -2.518738e-03  0 
 -1.438372e-04  -2.276879e-03  0 
 -4.719576e-05  -2.276864e-03  0 
 4.943047e-05  -2.276864e-03  0 
 1.460719e-04  -2.276879e-03  0 
 2.427597e-04  -2.276933e-03  0 
 -1.439792e-04  -2.518716e-03  0 
 -4.724431e-05  -2.518690e-03  0 
 4.947903e-05  -2.518690e-03  0 
 1.462140e-04  -2.518716e-03  0 
 2.429650e-04  -2.518738e-03  0 
CELL_DATA 5
TENSORS element_stresses FLOAT
 -3.185843e-04  -3.464283e-05  0 
 -3.464283e-05  9.592439e-05  0 
 0  0  0 

 -1.763548e-04  -1.710335e-04  0 
 -1.710335e-04  4.754124e-05  0 
 0  0  0 

 -6.024048e-11  -2.136474e-04  0 
 -2.136474e-04  5.794742e-11  0 
 0  0  0 

 1.763548e-04  -1.710334e-04  0 
 -1.710334e-04  -4.754127e-05  0 
 0  0  0 

 3.185844e-04  -3.464281e-05  0 
 -3.464281e-05  -9.592427e-05  0 
 0  0  0 

TENSORS element_stresses FLOAT
 -3.185843e-04  -3.464283e-05  0 
 -3.464283e-05  9.592439e-05  0 
 0  0  0 

 -1.763548e-04  -1.710335e-04  0 
 -1.710335e-04  4.754124e-05  0 
 0  0  0 

 -6.024048e-11  -2.136474e-04  0 
 -2.136474e-04  5.794742e-11  0 
 0  0  0 

 1.763548e-04  -1.710334e-04  0 
 -1.710334e-04  -4.754127e-05  0 
 0  0  0 

 3.185844e-04  -3.464281e-05  0 
 -3.464281e-05  -9.592427e-05  0 
 0  0  0 

