# vtk DataFile Version 3.1
this is an vtk file created by FEMAC
ASCII
DATASET UNSTRUCTURED_GRID
POINTS 81 FLOAT
0.000000 0.000000 0.000000
0.000000 1.000000 0.000000
4.000000 0.000000 0.000000
4.000000 1.000000 0.000000
0.000000 0.000000 1.000000
0.000000 1.000000 1.000000
4.000000 1.000000 1.000000
4.000000 0.000000 1.000000
0.000000 0.500000 0.000000
4.000000 0.500000 0.000000
0.500000 0.000000 0.000000
1.000000 0.000000 0.000000
1.500000 0.000000 0.000000
2.000000 0.000000 0.000000
2.500000 0.000000 0.000000
3.000000 0.000000 0.000000
3.500000 0.000000 0.000000
0.500000 1.000000 0.000000
1.000000 1.000000 0.000000
1.500000 1.000000 0.000000
2.000000 1.000000 0.000000
2.500000 1.000000 0.000000
3.000000 1.000000 0.000000
3.500000 1.000000 0.000000
0.000000 0.500000 1.000000
0.500000 1.000000 1.000000
1.000000 1.000000 1.000000
1.500000 1.000000 1.000000
2.000000 1.000000 1.000000
2.500000 1.000000 1.000000
3.000000 1.000000 1.000000
3.500000 1.000000 1.000000
4.000000 0.500000 1.000000
3.500000 0.000000 1.000000
3.000000 0.000000 1.000000
2.500000 0.000000 1.000000
2.000000 0.000000 1.000000
1.500000 0.000000 1.000000
1.000000 0.000000 1.000000
0.500000 0.000000 1.000000
0.000000 0.000000 0.500000
0.000000 1.000000 0.500000
4.000000 1.000000 0.500000
4.000000 0.000000 0.500000
0.500000 0.500000 0.000000
1.000000 0.500000 0.000000
1.500000 0.500000 0.000000
2.000000 0.500000 0.000000
2.500000 0.500000 0.000000
3.000000 0.500000 0.000000
3.500000 0.500000 0.000000
0.000000 0.500000 0.500000
0.500000 1.000000 0.500000
1.000000 1.000000 0.500000
1.500000 1.000000 0.500000
2.000000 1.000000 0.500000
2.500000 1.000000 0.500000
3.000000 1.000000 0.500000
3.500000 1.000000 0.500000
4.000000 0.500000 0.500000
0.500000 0.000000 0.500000
1.000000 0.000000 0.500000
1.500000 0.000000 0.500000
2.000000 0.000000 0.500000
2.500000 0.000000 0.500000
3.000000 0.000000 0.500000
3.500000 0.000000 0.500000
0.500000 0.500000 1.000000
1.000000 0.500000 1.000000
1.500000 0.500000 1.000000
2.000000 0.500000 1.000000
2.500000 0.500000 1.000000
3.000000 0.500000 1.000000
3.500000 0.500000 1.000000
0.500000 0.500000 0.500000
1.000000 0.500000 0.500000
1.500000 0.500000 0.500000
2.000000 0.500000 0.500000
2.500000 0.500000 0.500000
3.000000 0.500000 0.500000
3.500000 0.500000 0.500000
CELLS 32 288 
8 44  8  0 10 74 51 40 60
8 74 51 40 60 67 24  4 39
8 45 44 10 11 75 74 60 61
8 75 74 60 61 68 67 39 38
8 46 45 11 12 76 75 61 62
8 76 75 61 62 69 68 38 37
8 47 46 12 13 77 76 62 63
8 77 76 62 63 70 69 37 36
8 48 47 13 14 78 77 63 64
8 78 77 63 64 71 70 36 35
8 49 48 14 15 79 78 64 65
8 79 78 64 65 72 71 35 34
8 50 49 15 16 80 79 65 66
8 80 79 65 66 73 72 34 33
8 9 50 16  2 59 80 66 43
8 59 80 66 43 32 73 33  7
8 17  1  8 44 52 41 51 74
8 52 41 51 74 25  5 24 67
8 18 17 44 45 53 52 74 75
8 53 52 74 75 26 25 67 68
8 19 18 45 46 54 53 75 76
8 54 53 75 76 27 26 68 69
8 20 19 46 47 55 54 76 77
8 55 54 76 77 28 27 69 70
8 21 20 47 48 56 55 77 78
8 56 55 77 78 29 28 70 71
8 22 21 48 49 57 56 78 79
8 57 56 78 79 30 29 71 72
8 23 22 49 50 58 57 79 80
8 58 57 79 80 31 30 72 73
8 3 23 50  9 42 58 80 59
8 42 58 80 59  6 31 73 32
CELL_TYPES 32
12 12 12 12 12 12 12 12 12 12 12 12 12 12 12 12 12 12 12 12 12 12 12 12 12 12 12 12 12 12 12 12 
POINT_DATA 81
SCALARS CONDID_1 FLOAT
LOOKUP_TABLE default
 1 
 0 
 0 
 0 
 0 
 0 
 0 
 0 
 0 
 0 
 0 
 0 
 0 
 0 
 0 
 0 
 0 
 0 
 0 
 0 
 0 
 0 
 0 
 0 
 0 
 0 
 0 
 0 
 0 
 0 
 0 
 0 
 0 
 0 
 0 
 0 
 0 
 0 
 0 
 0 
 0 
 0 
 0 
 0 
 0 
 0 
 0 
 0 
 0 
 0 
 0 
 0 
 0 
 0 
 0 
 0 
 0 
 0 
 0 
 0 
 0 
 0 
 0 
 0 
 0 
 0 
 0 
 0 
 0 
 0 
 0 
 0 
 0 
 0 
 0 
 0 
 0 
 0 
 0 
 0 
 0 
SCALARS CONDID_2 FLOAT
LOOKUP_TABLE default
 1 
 1 
 0 
 0 
 0 
 0 
 0 
 0 
 1 
 0 
 0 
 0 
 0 
 0 
 0 
 0 
 0 
 0 
 0 
 0 
 0 
 0 
 0 
 0 
 0 
 0 
 0 
 0 
 0 
 0 
 0 
 0 
 0 
 0 
 0 
 0 
 0 
 0 
 0 
 0 
 0 
 0 
 0 
 0 
 0 
 0 
 0 
 0 
 0 
 0 
 0 
 0 
 0 
 0 
 0 
 0 
 0 
 0 
 0 
 0 
 0 
 0 
 0 
 0 
 0 
 0 
 0 
 0 
 0 
 0 
 0 
 0 
 0 
 0 
 0 
 0 
 0 
 0 
 0 
 0 
 0 
SCALARS CONDID_3 FLOAT
LOOKUP_TABLE default
 0 
 0 
 1 
 1 
 0 
 0 
 1 
 1 
 0 
 1 
 0 
 0 
 0 
 0 
 0 
 0 
 0 
 0 
 0 
 0 
 0 
 0 
 0 
 0 
 0 
 0 
 0 
 0 
 0 
 0 
 0 
 0 
 1 
 0 
 0 
 0 
 0 
 0 
 0 
 0 
 0 
 0 
 1 
 1 
 0 
 0 
 0 
 0 
 0 
 0 
 0 
 0 
 0 
 0 
 0 
 0 
 0 
 0 
 0 
 1 
 0 
 0 
 0 
 0 
 0 
 0 
 0 
 0 
 0 
 0 
 0 
 0 
 0 
 0 
 0 
 0 
 0 
 0 
 0 
 0 
 0 
VECTORS displacement FLOAT
 0  0  0 
 0  0  0 
 0  0  0 
 0  0  0 
 0  0  0 
 0  0  0 
 0  0  0 
 0  0  0 
 0  0  0 
 0  0  0 
 0  0  0 
 0  0  0 
 0  0  0 
 0  0  0 
 0  0  0 
 0  0  0 
 0  0  0 
 0  0  0 
 0  0  0 
 0  0  0 
 0  0  0 
 0  0  0 
 0  0  0 
 0  0  0 
 0  0  0 
 0  0  0 
 0  0  0 
 0  0  0 
 0  0  0 
 0  0  0 
 0  0  0 
 0  0  0 
 0  0  0 
 0  0  0 
 0  0  0 
 0  0  0 
 0  0  0 
 0  0  0 
 0  0  0 
 0  0  0 
 0  0  0 
 0  0  0 
 0  0  0 
 0  0  0 
 0  0  0 
 0  0  0 
 0  0  0 
 0  0  0 
 0  0  0 
 0  0  0 
 0  0  0 
 0  0  0 
 0  0  0 
 0  0  0 
 0  0  0 
 0  0  0 
 0  0  0 
 0  0  0 
 0  0  0 
 0  0  0 
 0  0  0 
 0  0  0 
 0  0  0 
 0  0  0 
 0  0  0 
 0  0  0 
 0  0  0 
 0  0  0 
 0  0  0 
 0  0  0 
 0  0  0 
 0  0  0 
 0  0  0 
 0  0  0 
 0  0  0 
 0  0  0 
 0  0  0 
 0  0  0 
 0  0  0 
 0  0  0 
 0  0  0 
CELL_DATA 32
SCALARS MATID_1 FLOAT
LOOKUP_TABLE default
 1 
 1 
 1 
 1 
 1 
 1 
 1 
 1 
 1 
 1 
 1 
 1 
 1 
 1 
 1 
 1 
 1 
 1 
 1 
 1 
 1 
 1 
 1 
 1 
 1 
 1 
 1 
 1 
 1 
 1 
 1 
 1 
