# vtk DataFile Version 3.1
this is an vtk file created by FEMAC
ASCII
DATASET UNSTRUCTURED_GRID
POINTS 55 FLOAT
5.000000 2.000000 0.000000
5.000000 3.000000 0.000000
5.000000 4.000000 0.000000
6.000000 2.000000 0.000000
6.000000 3.000000 0.000000
6.000000 4.000000 0.000000
7.000000 3.000000 0.000000
7.000000 4.000000 0.000000
8.000000 3.000000 0.000000
8.000000 4.000000 0.000000
9.000000 3.000000 0.000000
9.000000 4.000000 0.000000
4.500000 2.000000 0.000000
4.500000 3.000000 0.000000
5.000000 2.500000 0.000000
4.500000 4.000000 0.000000
5.000000 3.500000 0.000000
5.000000 4.500000 0.000000
5.500000 2.000000 0.000000
5.500000 3.000000 0.000000
6.000000 2.500000 0.000000
5.500000 4.000000 0.000000
6.000000 3.500000 0.000000
6.000000 4.500000 0.000000
6.500000 2.000000 0.000000
6.500000 3.000000 0.000000
7.000000 2.500000 0.000000
6.500000 4.000000 0.000000
7.000000 3.500000 0.000000
7.000000 4.500000 0.000000
7.500000 3.000000 0.000000
8.000000 2.500000 0.000000
7.500000 4.000000 0.000000
8.000000 3.500000 0.000000
8.000000 4.500000 0.000000
8.500000 3.000000 0.000000
9.000000 2.500000 0.000000
8.500000 4.000000 0.000000
9.000000 3.500000 0.000000
9.000000 4.500000 0.000000
4.500000 2.500000 0.000000
4.500000 3.500000 0.000000
4.500000 4.500000 0.000000
5.500000 2.500000 0.000000
5.500000 3.500000 0.000000
5.500000 4.500000 0.000000
6.500000 2.500000 0.000000
6.500000 3.500000 0.000000
6.500000 4.500000 0.000000
7.500000 2.500000 0.000000
7.500000 3.500000 0.000000
7.500000 4.500000 0.000000
8.500000 2.500000 0.000000
8.500000 3.500000 0.000000
8.500000 4.500000 0.000000
CELLS 40 200 
4 12  0 14 40
4 40 14  1 13
4 13  1 16 41
4 41 16  2 15
4 15  2 17 42
4 0 18 43 14
4 14 43 19  1
4 18  3 20 43
4 43 20  4 19
4 1 19 44 16
4 16 44 21  2
4 19  4 22 44
4 44 22  5 21
4 2 21 45 17
4 21  5 23 45
4 3 24 46 20
4 20 46 25  4
4 46 26  6 25
4 4 25 47 22
4 22 47 27  5
4 25  6 28 47
4 47 28  7 27
4 5 27 48 23
4 27  7 29 48
4 26 49 30  6
4 49 31  8 30
4 6 30 50 28
4 28 50 32  7
4 30  8 33 50
4 50 33  9 32
4 7 32 51 29
4 32  9 34 51
4 31 52 35  8
4 52 36 10 35
4 8 35 53 33
4 33 53 37  9
4 35 10 38 53
4 53 38 11 37
4 9 37 54 34
4 37 11 39 54
CELL_TYPES 40
9 9 9 9 9 9 9 9 9 9 9 9 9 9 9 9 9 9 9 9 9 9 9 9 9 9 9 9 9 9 9 9 9 9 9 9 9 9 9 9 
POINT_DATA 55
VECTORS displacement_ITER1 FLOAT
 -3.226129e-02  -7.191414e-02  0 
 -2.232903e-02  -7.177000e-02  0 
 -1.252041e-02  -7.106389e-02  0 
 -3.322010e-02  -8.435150e-02  0 
 -2.285781e-02  -8.448069e-02  0 
 -1.315233e-02  -8.480147e-02  0 
 -2.262336e-02  -9.582361e-02  0 
 -1.484803e-02  -9.560557e-02  0 
 -2.204100e-02  -1.038620e-01  0 
 -1.664840e-02  -1.033211e-01  0 
 -2.188519e-02  -1.091975e-01  0 
 -1.759623e-02  -1.073799e-01  0 
 -3.069509e-02  -6.590641e-02  0 
 -2.170380e-02  -6.566849e-02  0 
 -2.709556e-02  -7.182217e-02  0 
 -1.203246e-02  -6.355430e-02  0 
 -1.760741e-02  -7.145469e-02  0 
 -5.845021e-03  -7.135362e-02  0 
 -3.308403e-02  -7.817314e-02  0 
 -2.271225e-02  -7.812589e-02  0 
 -2.786553e-02  -8.436971e-02  0 
 -1.259547e-02  -7.840459e-02  0 
 -1.801130e-02  -8.467351e-02  0 
 -8.227455e-03  -8.470575e-02  0 
 -3.298828e-02  -9.014105e-02  0 
 -2.279636e-02  -9.047944e-02  0 
 -2.695916e-02  -9.579208e-02  0 
 -1.393871e-02  -9.054741e-02  0 
 -1.863464e-02  -9.576818e-02  0 
 -1.116554e-02  -9.524707e-02  0 
 -2.236102e-02  -1.002909e-01  0 
 -2.499118e-02  -1.040022e-01  0 
 -1.578789e-02  -9.988953e-02  0 
 -1.918898e-02  -1.036158e-01  0 
 -1.442326e-02  -1.028387e-01  0 
 -2.182162e-02  -1.067652e-01  0 
 -2.402194e-02  -1.098873e-01  0 
 -1.725912e-02  -1.058098e-01  0 
 -1.953482e-02  -1.084843e-01  0 
 -1.725848e-02  -1.062154e-01  0 
 -2.642753e-02  -6.587096e-02  0 
 -1.699566e-02  -6.509085e-02  0 
 -5.259418e-03  -6.040760e-02  0 
 -2.765308e-02  -7.813575e-02  0 
 -1.785709e-02  -7.818502e-02  0 
 -6.985777e-03  -7.844611e-02  0 
 -2.767111e-02  -9.030034e-02  0 
 -1.829249e-02  -9.057428e-02  0 
 -9.619241e-03  -9.030798e-02  0 
 -2.592863e-02  -1.003002e-01  0 
 -1.895952e-02  -1.001378e-01  0 
 -1.279983e-02  -9.944688e-02  0 
 -2.434026e-02  -1.070968e-01  0 
 -1.933249e-02  -1.062578e-01  0 
 -1.596268e-02  -1.053093e-01  0 
VECTORS displacement_ITER2 FLOAT
 -2.742769e-02  -5.941825e-02  0 
 -1.673073e-02  -5.926750e-02  0 
 -6.231480e-03  -5.859861e-02  0 
 -2.846515e-02  -7.268013e-02  0 
 -1.734208e-02  -7.274712e-02  0 
 -6.821022e-03  -7.303007e-02  0 
 -1.722379e-02  -8.499428e-02  0 
 -8.419909e-03  -8.478025e-02  0 
 -1.675263e-02  -9.421844e-02  0 
 -1.012218e-02  -9.368505e-02  0 
 -1.663591e-02  -1.008825e-01  0 
 -1.102600e-02  -9.908213e-02  0 
 -2.584536e-02  -5.300246e-02  0 
 -1.608776e-02  -5.277656e-02  0 
 -2.188116e-02  -5.932135e-02  0 
 -5.771428e-03  -5.081349e-02  0 
 -1.164259e-02  -5.896360e-02  0 
 6.898895e-04  -5.892110e-02  0 
 -2.828875e-02  -6.608945e-02  0 
 -1.714675e-02  -6.600431e-02  0 
 -2.274087e-02  -7.267061e-02  0 
 -6.292171e-03  -6.625455e-02  0 
 -1.208605e-02  -7.291505e-02  0 
 -1.501359e-03  -7.294055e-02  0 
 -2.823475e-02  -7.881931e-02  0 
 -1.733927e-02  -7.916389e-02  0 
 -2.208351e-02  -8.498888e-02  0 
 -7.563507e-03  -7.921762e-02  0 
 -1.272445e-02  -8.493727e-02  0 
 -4.210994e-03  -8.444210e-02  0 
 -1.702416e-02  -9.002783e-02  0 
 -2.034245e-02  -9.437525e-02  0 
 -9.306485e-03  -8.963126e-02  0 
 -1.328168e-02  -9.397020e-02  0 
 -7.256473e-03  -9.322782e-02  0 
 -1.656201e-02  -9.777735e-02  0 
 -1.946559e-02  -1.015865e-01  0 
 -1.070359e-02  -9.683482e-02  0 
 -1.362582e-02  -1.001627e-01  0 
 -9.990937e-03  -9.795234e-02  0 
 -2.118818e-02  -5.296245e-02  0 
 -1.102873e-02  -5.224797e-02  0 
 1.159103e-03  -4.784727e-02  0 
 -2.247308e-02  -6.603477e-02  0 
 -1.191076e-02  -6.604554e-02  0 
 -3.602878e-04  -6.629915e-02  0 
 -2.263049e-02  -7.899818e-02  0 
 -1.237909e-02  -7.924779e-02  0 
 -2.782696e-03  -7.899166e-02  0 
 -2.118158e-02  -9.005930e-02  0 
 -1.305021e-02  -8.987021e-02  0 
 -5.730373e-03  -8.921302e-02  0 
 -1.975572e-02  -9.811975e-02  0 
 -1.342529e-02  -9.727111e-02  0 
 -8.727416e-03  -9.635952e-02  0 
VECTORS displacement_ITER3 FLOAT
 -1.590138e-02  -5.220317e-02  0 
 -9.197455e-03  -5.160506e-02  0 
 -3.383077e-03  -5.078787e-02  0 
 -1.819397e-02  -6.247065e-02  0 
 -1.089089e-02  -6.157422e-02  0 
 -3.077327e-03  -6.141979e-02  0 
 -1.216921e-02  -7.239869e-02  0 
 -3.187535e-03  -7.236946e-02  0 
 -1.308474e-02  -8.394752e-02  0 
 -3.471543e-03  -8.363272e-02  0 
 -1.340677e-02  -9.469191e-02  0 
 -3.712970e-03  -9.347646e-02  0 
 -1.396008e-02  -4.747449e-02  0 
 -8.238118e-03  -4.704751e-02  0 
 -1.237054e-02  -5.189090e-02  0 
 -3.233543e-03  -4.587599e-02  0 
 -6.258792e-03  -5.115741e-02  0 
 2.960609e-04  -5.123891e-02  0 
 -1.739204e-02  -5.734158e-02  0 
 -1.007033e-02  -5.648103e-02  0 
 -1.455019e-02  -6.201185e-02  0 
 -3.105091e-03  -5.616324e-02  0 
 -7.030432e-03  -6.141326e-02  0 
 8.773786e-04  -6.148393e-02  0 
 -1.797574e-02  -6.630394e-02  0 
 -1.159338e-02  -6.680698e-02  0 
 -1.723569e-02  -7.272078e-02  0 
 -3.117772e-03  -6.681107e-02  0 
 -7.643592e-03  -7.238027e-02  0 
 1.304033e-03  -7.237287e-02  0 
 -1.275529e-02  -7.825740e-02  0 
 -1.837545e-02  -8.426205e-02  0 
 -3.302537e-03  -7.803269e-02  0 
 -8.143940e-03  -8.372862e-02  0 
 1.212261e-03  -8.358851e-02  0 
 -1.323714e-02  -8.945162e-02  0 
 -1.856882e-02  -9.542420e-02  0 
 -3.624004e-03  -8.887161e-02  0 
 -8.403346e-03  -9.405778e-02  0 
 6.391218e-05  -9.300964e-02  0 
 -1.126237e-02  -4.725665e-02  0 
 -5.552129e-03  -4.673079e-02  0 
 -5.476261e-04  -4.415349e-02  0 
 -1.350210e-02  -5.692611e-02  0 
 -6.707303e-03  -5.615979e-02  0 
 6.428043e-04  -5.630248e-02  0 
 -1.558088e-02  -6.678129e-02  0 
 -7.350119e-03  -6.680645e-02  0 
 1.109213e-03  -6.683619e-02  0 
 -1.798377e-02  -7.854649e-02  0 
 -7.920416e-03  -7.808594e-02  0 
 1.371855e-03  -7.801163e-02  0 
 -1.856078e-02  -8.984301e-02  0 
 -8.265450e-03  -8.905910e-02  0 
 7.555954e-04  -8.882434e-02  0 
VECTORS displacement_ITER4 FLOAT
 -1.981323e-02  -4.961080e-02  0 
 -1.078909e-02  -4.909521e-02  0 
 -3.173028e-03  -4.846536e-02  0 
 -2.134660e-02  -6.173922e-02  0 
 -1.194553e-02  -6.092774e-02  0 
 -3.443200e-03  -6.045795e-02  0 
 -1.258039e-02  -7.191070e-02  0 
 -4.016066e-03  -7.147943e-02  0 
 -1.273407e-02  -8.157853e-02  0 
 -4.370889e-03  -8.129405e-02  0 
 -1.278482e-02  -9.026732e-02  0 
 -4.490147e-03  -8.989766e-02  0 
 -1.846607e-02  -4.339451e-02  0 
 -1.001005e-02  -4.330285e-02  0 
 -1.505820e-02  -4.931727e-02  0 
 -2.924567e-03  -4.265346e-02  0 
 -6.890004e-03  -4.877532e-02  0 
 1.075064e-03  -4.867864e-02  0 
 -2.076753e-02  -5.578793e-02  0 
 -1.145046e-02  -5.500552e-02  0 
 -1.645025e-02  -6.133865e-02  0 
 -3.197539e-03  -5.458447e-02  0 
 -7.666418e-03  -6.062523e-02  0 
 8.054051e-04  -6.034302e-02  0 
 -2.180867e-02  -6.780633e-02  0 
 -1.232929e-02  -6.660473e-02  0 
 -1.690873e-02  -7.216069e-02  0 
 -3.742064e-03  -6.611046e-02  0 
 -8.256085e-03  -7.165413e-02  0 
 1.400446e-04  -7.138161e-02  0 
 -1.268427e-02  -7.687628e-02  0 
 -1.695620e-02  -8.175083e-02  0 
 -4.226269e-03  -7.653780e-02  0 
 -8.528021e-03  -8.141959e-02  0 
 -2.563370e-04  -8.122142e-02  0 
 -1.274542e-02  -8.604114e-02  0 
 -1.683088e-02  -9.044702e-02  0 
 -4.454723e-03  -8.575472e-02  0 
 -8.627186e-03  -9.010557e-02  0 
 -7.009807e-04  -8.962725e-02  0 
 -1.419072e-02  -4.332193e-02  0 
 -6.246462e-03  -4.320140e-02  0 
 5.660395e-04  -4.149094e-02  0 
 -1.587302e-02  -5.537050e-02  0 
 -7.331001e-03  -5.470707e-02  0 
 1.064113e-03  -5.451216e-02  0 
 -1.678594e-02  -6.711055e-02  0 
 -7.991779e-03  -6.629348e-02  0 
 4.636953e-04  -6.599478e-02  0 
 -1.697035e-02  -7.709282e-02  0 
 -8.432330e-03  -7.668871e-02  0 
 -1.038915e-04  -7.645578e-02  0 
 -1.692293e-02  -8.618124e-02  0 
 -8.579541e-03  -8.587047e-02  0 
 -3.885495e-04  -8.569668e-02  0 
VECTORS displacement_ITER5 FLOAT
 -1.928874e-02  -4.926258e-02  0 
 -1.108455e-02  -4.861512e-02  0 
 -3.840107e-03  -4.813314e-02  0 
 -2.080130e-02  -6.041806e-02  0 
 -1.205882e-02  -5.967029e-02  0 
 -3.921096e-03  -5.922954e-02  0 
 -1.264822e-02  -7.037712e-02  0 
 -3.921785e-03  -7.002345e-02  0 
 -1.292793e-02  -8.074859e-02  0 
 -3.743658e-03  -8.047407e-02  0 
 -1.305691e-02  -9.053650e-02  0 
 -3.634737e-03  -9.047049e-02  0 
 -1.806276e-02  -4.367471e-02  0 
 -1.044821e-02  -4.308983e-02  0 
 -1.504992e-02  -4.888611e-02  0 
 -3.676512e-03  -4.273038e-02  0 
 -7.358321e-03  -4.834309e-02  0 
 -1.737310e-04  -4.827736e-02  0 
 -2.020616e-02  -5.490220e-02  0 
 -1.162626e-02  -5.414455e-02  0 
 -1.631208e-02  -6.004360e-02  0 
 -3.850222e-03  -5.373053e-02  0 
 -7.947596e-03  -5.939161e-02  0 
 3.780995e-05  -5.915397e-02  0 
 -2.122313e-02  -6.592156e-02  0 
 -1.240396e-02  -6.508368e-02  0 
 -1.706614e-02  -7.062165e-02  0 
 -3.952700e-03  -6.466655e-02  0 
 -8.259088e-03  -7.016387e-02  0 
 3.592431e-04  -6.999551e-02  0 
 -1.281219e-02  -7.560041e-02  0 
 -1.755103e-02  -8.095585e-02  0 
 -3.839139e-03  -7.529313e-02  0 
 -8.349370e-03  -8.058241e-02  0 
 9.363556e-04  -8.048121e-02  0 
 -1.299927e-02  -8.576085e-02  0 
 -1.765592e-02  -9.075454e-02  0 
 -3.677432e-03  -8.555560e-02  0 
 -8.392723e-03  -9.044355e-02  0 
 1.201627e-03  -9.051469e-02  0 
 -1.426012e-02  -4.332784e-02  0 
 -6.870189e-03  -4.296000e-02  0 
 -6.154508e-04  -4.225523e-02  0 
 -1.576128e-02  -5.449137e-02  0 
 -7.704132e-03  -5.386818e-02  0 
 -3.415766e-05  -5.366317e-02  0 
 -1.669846e-02  -6.544772e-02  0 
 -8.138837e-03  -6.482390e-02  0 
 1.576539e-04  -6.461114e-02  0 
 -1.735353e-02  -7.582268e-02  0 
 -8.318566e-03  -7.541731e-02  0 
 6.316422e-04  -7.528577e-02  0 
 -1.765292e-02  -8.595362e-02  0 
 -8.375078e-03  -8.561468e-02  0 
 1.195394e-03  -8.559448e-02  0 
VECTORS displacement_ITER6 FLOAT
 -1.951254e-02  -4.933425e-02  0 
 -1.131890e-02  -4.856446e-02  0 
 -3.855370e-03  -4.806857e-02  0 
 -2.094437e-02  -6.040991e-02  0 
 -1.225117e-02  -5.972445e-02  0 
 -4.109203e-03  -5.932954e-02  0 
 -1.275292e-02  -7.036521e-02  0 
 -4.267649e-03  -7.002747e-02  0 
 -1.297461e-02  -8.034001e-02  0 
 -4.262929e-03  -8.004222e-02  0 
 -1.310413e-02  -8.958082e-02  0 
 -4.248622e-03  -8.938913e-02  0 
 -1.833670e-02  -4.377169e-02  0 
 -1.066502e-02  -4.291552e-02  0 
 -1.530181e-02  -4.889940e-02  0 
 -3.654516e-03  -4.245646e-02  0 
 -7.513396e-03  -4.827288e-02  0 
 -1.113182e-04  -4.813475e-02  0 
 -2.037696e-02  -5.493296e-02  0 
 -1.184738e-02  -5.417338e-02  0 
 -1.650118e-02  -6.005357e-02  0 
 -3.967869e-03  -5.376289e-02  0 
 -8.139383e-03  -5.947791e-02  0 
 -1.233141e-04  -5.926230e-02  0 
 -2.136784e-02  -6.585163e-02  0 
 -1.255011e-02  -6.513400e-02  0 
 -1.706485e-02  -7.059669e-02  0 
 -4.213325e-03  -6.476125e-02  0 
 -8.480489e-03  -7.016003e-02  0 
 -1.160564e-04  -6.999052e-02  0 
 -1.288121e-02  -7.543034e-02  0 
 -1.735457e-02  -8.055326e-02  0 
 -4.276890e-03  -7.511900e-02  0 
 -8.619853e-03  -8.016531e-02  0 
 1.042487e-04  -8.000970e-02  0 
 -1.304369e-02  -8.507149e-02  0 
 -1.747073e-02  -8.979095e-02  0 
 -4.252860e-03  -8.480792e-02  0 
 -8.698761e-03  -8.944450e-02  0 
 2.410764e-04  -8.936662e-02  0 
 -1.447728e-02  -4.329638e-02  0 
 -7.024585e-03  -4.266848e-02  0 
 -3.933322e-04  -4.218766e-02  0 
 -1.598821e-02  -5.451678e-02  0 
 -7.875718e-03  -5.390939e-02  0 
 -7.769631e-05  -5.368444e-02  0 
 -1.684056e-02  -6.544898e-02  0 
 -8.342336e-03  -6.490183e-02  0 
 -1.471103e-04  -6.471090e-02  0 
 -1.723020e-02  -7.564742e-02  0 
 -8.565152e-03  -7.524623e-02  0 
 -2.823506e-05  -7.508692e-02  0 
 -1.743942e-02  -8.528002e-02  0 
 -8.663845e-03  -8.490734e-02  0 
 2.417523e-04  -8.478781e-02  0 
VECTORS displacement_ITER7 FLOAT
 -1.925942e-02  -4.925448e-02  0 
 -1.117955e-02  -4.845080e-02  0 
 -3.584273e-03  -4.794548e-02  0 
 -2.069742e-02  -6.027349e-02  0 
 -1.215262e-02  -5.962119e-02  0 
 -3.966130e-03  -5.926692e-02  0 
 -1.272225e-02  -7.031248e-02  0 
 -4.251324e-03  -7.001364e-02  0 
 -1.302188e-02  -8.028832e-02  0 
 -4.418741e-03  -8.000525e-02  0 
 -1.318242e-02  -8.945705e-02  0 
 -4.495564e-03  -8.910855e-02  0 
 -1.815363e-02  -4.372879e-02  0 
 -1.051868e-02  -4.277259e-02  0 
 -1.513622e-02  -4.881263e-02  0 
 -3.337581e-03  -4.222659e-02  0 
 -7.339139e-03  -4.815056e-02  0 
 2.128443e-04  -4.792770e-02  0 
 -2.010916e-02  -5.481467e-02  0 
 -1.172031e-02  -5.407541e-02  0 
 -1.636581e-02  -5.992284e-02  0 
 -3.776869e-03  -5.366619e-02  0 
 -8.029757e-03  -5.940244e-02  0 
 7.153376e-05  -5.920860e-02  0 
 -2.109443e-02  -6.554589e-02  0 
 -1.248156e-02  -6.504263e-02  0 
 -1.707757e-02  -7.054789e-02  0 
 -4.124496e-03  -6.472581e-02  0 
 -8.458011e-03  -7.013083e-02  0 
 -8.503178e-05  -6.996719e-02  0 
 -1.289904e-02  -7.540227e-02  0 
 -1.739345e-02  -8.050753e-02  0 
 -4.348107e-03  -7.511151e-02  0 
 -8.697998e-03  -8.011843e-02  0 
 -1.712029e-04  -7.995702e-02  0 
 -1.310955e-02  -8.497392e-02  0 
 -1.757779e-02  -8.969838e-02  0 
 -4.466744e-03  -8.468040e-02  0 
 -8.819440e-03  -8.925019e-02  0 
 -2.295072e-04  -8.905301e-02  0 
 -1.430163e-02  -4.321382e-02  0 
 -6.848346e-03  -4.245377e-02  0 
 1.202178e-04  -4.204878e-02  0 
 -1.582259e-02  -5.441233e-02  0 
 -7.726750e-03  -5.381983e-02  0 
 1.677939e-04  -5.358782e-02  0 
 -1.677424e-02  -6.529300e-02  0 
 -8.271556e-03  -6.484887e-02  0 
 -1.633857e-05  -6.467659e-02  0 
 -1.725745e-02  -7.562159e-02  0 
 -8.597877e-03  -7.522595e-02  0 
 -1.370280e-04  -7.506436e-02  0 
 -1.750523e-02  -8.519882e-02  0 
 -8.765430e-03  -8.479512e-02  0 
 -1.887491e-04  -8.463984e-02  0 
VECTORS displacement_ITER8 FLOAT
 -1.912565e-02  -4.920959e-02  0 
 -1.117700e-02  -4.838526e-02  0 
 -3.715810e-03  -4.790143e-02  0 
 -2.062001e-02  -6.007471e-02  0 
 -1.217545e-02  -5.941636e-02  0 
 -4.039433e-03  -5.905581e-02  0 
 -1.278513e-02  -7.011006e-02  0 
 -4.213366e-03  -6.982846e-02  0 
 -1.312769e-02  -8.031010e-02  0 
 -4.299393e-03  -8.002814e-02  0 
 -1.330727e-02  -8.977846e-02  0 
 -4.353084e-03  -8.941619e-02  0 
 -1.803848e-02  -4.376538e-02  0 
 -1.050823e-02  -4.278529e-02  0 
 -1.507623e-02  -4.875909e-02  0 
 -3.482037e-03  -4.228917e-02  0 
 -7.396144e-03  -4.809031e-02  0 
 -5.977862e-05  -4.787122e-02  0 
 -1.998510e-02  -5.467873e-02  0 
 -1.172769e-02  -5.393426e-02  0 
 -1.634805e-02  -5.972214e-02  0 
 -3.894129e-03  -5.351571e-02  0 
 -8.076926e-03  -5.919243e-02  0 
 -4.087894e-05  -5.901348e-02  0 
 -2.104780e-02  -6.528418e-02  0 
 -1.252384e-02  -6.480941e-02  0 
 -1.719736e-02  -7.034897e-02  0 
 -4.142405e-03  -6.450162e-02  0 
 -8.474222e-03  -6.993740e-02  0 
 2.260211e-05  -6.979548e-02  0 
 -1.298688e-02  -7.529255e-02  0 
 -1.763287e-02  -8.053798e-02  0 
 -4.262625e-03  -7.501309e-02  0 
 -8.691062e-03  -8.013704e-02  0 
 7.809207e-05  -7.999109e-02  0 
 -1.322651e-02  -8.514577e-02  0 
 -1.786126e-02  -9.006135e-02  0 
 -4.329436e-03  -8.484248e-02  0 
 -8.810527e-03  -8.955270e-02  0 
 7.504968e-05  -8.937970e-02  0 
 -1.422139e-02  -4.323210e-02  0 
 -6.919544e-03  -4.247645e-02  0 
 -1.329616e-04  -4.219133e-02  0 
 -1.577861e-02  -5.427672e-02  0 
 -7.779076e-03  -5.367327e-02  0 
 -4.716323e-05  -5.345374e-02  0 
 -1.680179e-02  -6.504895e-02  0 
 -8.304936e-03  -6.462056e-02  0 
 -1.489394e-05  -6.446685e-02  0 
 -1.745042e-02  -7.551675e-02  0 
 -8.599433e-03  -7.511930e-02  0 
 5.597521e-05  -7.497880e-02  0 
 -1.776748e-02  -8.538917e-02  0 
 -8.755669e-03  -8.495741e-02  0 
 9.054045e-05  -8.480853e-02  0 
VECTORS displacement_ITER9 FLOAT
 -1.930448e-02  -4.922854e-02  0 
 -1.121444e-02  -4.841572e-02  0 
 -3.658046e-03  -4.795331e-02  0 
 -2.075251e-02  -6.018906e-02  0 
 -1.217897e-02  -5.955597e-02  0 
 -4.006130e-03  -5.919179e-02  0 
 -1.273412e-02  -7.025747e-02  0 
 -4.214651e-03  -6.996312e-02  0 
 -1.300675e-02  -8.030663e-02  0 
 -4.328332e-03  -8.003023e-02  0 
 -1.315975e-02  -8.957161e-02  0 
 -4.391447e-03  -8.922461e-02  0 
 -1.826631e-02  -4.368659e-02  0 
 -1.054902e-02  -4.275520e-02  0 
 -1.517628e-02  -4.878459e-02  0 
 -3.418683e-03  -4.227854e-02  0 
 -7.384908e-03  -4.813277e-02  0 
 3.295731e-05  -4.790847e-02  0 
 -2.012315e-02  -5.474794e-02  0 
 -1.175449e-02  -5.402410e-02  0 
 -1.640152e-02  -5.984917e-02  0 
 -3.849543e-03  -5.361384e-02  0 
 -8.057985e-03  -5.933190e-02  0 
 1.103396e-05  -5.914655e-02  0 
 -2.123212e-02  -6.554371e-02  0 
 -1.250098e-02  -6.497698e-02  0 
 -1.709274e-02  -7.048416e-02  0 
 -4.125082e-03  -6.465258e-02  0 
 -8.448735e-03  -7.007740e-02  0 
 -6.946544e-06  -6.992370e-02  0 
 -1.289542e-02  -7.537327e-02  0 
 -1.741799e-02  -8.052070e-02  0 
 -4.280562e-03  -7.509665e-02  0 
 -8.648180e-03  -8.013895e-02  0 
 -3.180807e-05  -7.998845e-02  0 
 -1.308779e-02  -8.504374e-02  0 
 -1.760016e-02  -8.983834e-02  0 
 -4.363710e-03  -8.474605e-02  0 
 -8.759699e-03  -8.936117e-02  0 
 -5.059692e-05  -8.917436e-02  0 
 -1.432636e-02  -4.317757e-02  0 
 -6.915690e-03  -4.245867e-02  0 
 5.365091e-06  -4.219509e-02  0 
 -1.586321e-02  -5.435539e-02  0 
 -7.763234e-03  -5.377108e-02  0 
 2.528228e-05  -5.355312e-02  0 
 -1.680664e-02  -6.523867e-02  0 
 -8.283138e-03  -6.477743e-02  0 
 1.711867e-06  -6.461202e-02  0 
 -1.728478e-02  -7.558563e-02  0 
 -8.566340e-03  -7.520490e-02  0 
 -1.922155e-05  -7.505693e-02  0 
 -1.751743e-02  -8.527429e-02  0 
 -8.707534e-03  -8.486231e-02  0 
 -3.745797e-05  -8.470386e-02  0 
VECTORS displacement_ITER10 FLOAT
 -1.926760e-02  -4.923254e-02  0 
 -1.119259e-02  -4.840956e-02  0 
 -3.671177e-03  -4.794565e-02  0 
 -2.071689e-02  -6.017842e-02  0 
 -1.217192e-02  -5.952705e-02  0 
 -4.017615e-03  -5.914691e-02  0 
 -1.274957e-02  -7.021599e-02  0 
 -4.217502e-03  -6.991521e-02  0 
 -1.304282e-02  -8.029065e-02  0 
 -4.318061e-03  -8.001658e-02  0 
 -1.320069e-02  -8.961012e-02  0 
 -4.373714e-03  -8.927188e-02  0 
 -1.824809e-02  -4.367690e-02  0 
 -1.052111e-02  -4.276447e-02  0 
 -1.514355e-02  -4.878542e-02  0 
 -3.434155e-03  -4.228879e-02  0 
 -7.380006e-03  -4.812408e-02  0 
 -1.093736e-05  -4.789452e-02  0 
 -2.007942e-02  -5.474531e-02  0 
 -1.173932e-02  -5.400689e-02  0 
 -1.638180e-02  -5.982984e-02  0 
 -3.863675e-03  -5.358342e-02  0 
 -8.060471e-03  -5.929371e-02  0 
 -1.113263e-05  -5.909843e-02  0 
 -2.120668e-02  -6.552523e-02  0 
 -1.250456e-02  -6.493835e-02  0 
 -1.710955e-02  -7.045087e-02  0 
 -4.133023e-03  -6.460144e-02  0 
 -8.459139e-03  -7.003185e-02  0 
 -1.476369e-07  -6.987541e-02  0 
 -1.292249e-02  -7.533954e-02  0 
 -1.747903e-02  -8.050562e-02  0 
 -4.277027e-03  -7.506158e-02  0 
 -8.661379e-03  -8.012336e-02  0 
 5.324565e-06  -7.997935e-02  0 
 -1.312832e-02  -8.505259e-02  0 
 -1.767560e-02  -8.987424e-02  0 
 -4.348156e-03  -8.476020e-02  0 
 -8.771946e-03  -8.940222e-02  0 
 9.161265e-06  -8.922906e-02  0 
 -1.428830e-02  -4.317860e-02  0 
 -6.912388e-03  -4.246653e-02  0 
 -2.919988e-05  -4.222400e-02  0 
 -1.583615e-02  -5.434679e-02  0 
 -7.760581e-03  -5.374646e-02  0 
 -1.112465e-05  -5.352279e-02  0 
 -1.679968e-02  -6.520988e-02  0 
 -8.290170e-03  -6.473151e-02  0 
 -6.121415e-06  -6.455803e-02  0 
 -1.732765e-02  -7.555773e-02  0 
 -8.578717e-03  -7.516955e-02  0 
 3.243960e-06  -7.502438e-02  0 
 -1.758816e-02  -8.528067e-02  0 
 -8.720703e-03  -8.487387e-02  0 
 1.067867e-05  -8.472201e-02  0 
VECTORS displacement_ITER11 FLOAT
 -1.927531e-02  -4.922957e-02  0 
 -1.119449e-02  -4.840394e-02  0 
 -3.665513e-03  -4.793996e-02  0 
 -2.071825e-02  -6.017528e-02  0 
 -1.216883e-02  -5.952726e-02  0 
 -4.010134e-03  -5.915004e-02  0 
 -1.273739e-02  -7.021970e-02  0 
 -4.208751e-03  -6.992127e-02  0 
 -1.302353e-02  -8.028854e-02  0 
 -4.308269e-03  -8.001519e-02  0 
 -1.317799e-02  -8.959302e-02  0 
 -4.363796e-03  -8.925704e-02  0 
 -1.826286e-02  -4.366783e-02  0 
 -1.052278e-02  -4.275901e-02  0 
 -1.514738e-02  -4.878174e-02  0 
 -3.429651e-03  -4.227184e-02  0 
 -7.380180e-03  -4.811795e-02  0 
 1.504506e-07  -4.788427e-02  0 
 -2.008279e-02  -5.474161e-02  0 
 -1.173956e-02  -5.400441e-02  0 
 -1.638099e-02  -5.982767e-02  0 
 -3.857669e-03  -5.358239e-02  0 
 -8.055248e-03  -5.929578e-02  0 
 -5.384850e-07  -5.910170e-02  0 
 -2.120622e-02  -6.552152e-02  0 
 -1.249675e-02  -6.494104e-02  0 
 -1.709592e-02  -7.045428e-02  0 
 -4.124829e-03  -6.460710e-02  0 
 -8.448679e-03  -7.003667e-02  0 
 7.075389e-06  -6.988252e-02  0 
 -1.290665e-02  -7.534164e-02  0 
 -1.745376e-02  -8.050222e-02  0 
 -4.267758e-03  -7.506527e-02  0 
 -8.647081e-03  -8.012144e-02  0 
 1.001416e-05  -7.997911e-02  0 
 -1.310675e-02  -8.504389e-02  0 
 -1.764233e-02  -8.985564e-02  0 
 -4.337843e-03  -8.475168e-02  0 
 -8.756436e-03  -8.938722e-02  0 
 1.500396e-05  -8.921207e-02  0 
 -1.429120e-02  -4.317211e-02  0 
 -6.915379e-03  -4.245583e-02  0 
 -8.591374e-06  -4.220879e-02  0 
 -1.583858e-02  -5.434398e-02  0 
 -7.757814e-03  -5.374490e-02  0 
 -1.329436e-06  -5.352361e-02  0 
 -1.679364e-02  -6.520855e-02  0 
 -8.282231e-03  -6.473601e-02  0 
 3.330669e-06  -6.456408e-02  0 
 -1.730830e-02  -7.555905e-02  0 
 -8.566076e-03  -7.517228e-02  0 
 8.847063e-06  -7.502941e-02  0 
 -1.755685e-02  -8.527098e-02  0 
 -8.705586e-03  -8.486551e-02  0 
 1.423948e-05  -8.471308e-02  0 
VECTORS displacement_ITER12 FLOAT
 -1.927075e-02  -4.923495e-02  0 
 -1.119571e-02  -4.840693e-02  0 
 -3.665364e-03  -4.794121e-02  0 
 -2.071484e-02  -6.017566e-02  0 
 -1.217046e-02  -5.952778e-02  0 
 -4.011102e-03  -5.915178e-02  0 
 -1.273941e-02  -7.022040e-02  0 
 -4.212589e-03  -6.992234e-02  0 
 -1.302713e-02  -8.028979e-02  0 
 -4.315432e-03  -8.001573e-02  0 
 -1.318184e-02  -8.959103e-02  0 
 -4.372515e-03  -8.925305e-02  0 
 -1.825821e-02  -4.367680e-02  0 
 -1.052330e-02  -4.276495e-02  0 
 -1.514611e-02  -4.878621e-02  0 
 -3.429262e-03  -4.226916e-02  0 
 -7.382285e-03  -4.811980e-02  0 
 3.455517e-06  -4.788316e-02  0 
 -2.007961e-02  -5.474384e-02  0 
 -1.174092e-02  -5.400614e-02  0 
 -1.638098e-02  -5.982771e-02  0 
 -3.858148e-03  -5.358416e-02  0 
 -8.056962e-03  -5.929716e-02  0 
 -3.744031e-07  -5.910268e-02  0 
 -2.119907e-02  -6.551308e-02  0 
 -1.249838e-02  -6.494108e-02  0 
 -1.709893e-02  -7.045572e-02  0 
 -4.127089e-03  -6.460844e-02  0 
 -8.451542e-03  -7.003783e-02  0 
 2.249105e-06  -6.988268e-02  0 
 -1.290984e-02  -7.534321e-02  0 
 -1.745678e-02  -8.050376e-02  0 
 -4.273313e-03  -7.506617e-02  0 
 -8.652085e-03  -8.012223e-02  0 
 6.619991e-07  -7.997931e-02  0 
 -1.311045e-02  -8.504383e-02  0 
 -1.764408e-02  -8.985449e-02  0 
 -4.346023e-03  -8.475069e-02  0 
 -8.762299e-03  -8.938431e-02  0 
 2.194042e-06  -8.920822e-02  0 
 -1.428874e-02  -4.317994e-02  0 
 -6.918155e-03  -4.245733e-02  0 
 3.402992e-07  -4.220490e-02  0 
 -1.583787e-02  -5.434608e-02  0 
 -7.759437e-03  -5.374665e-02  0 
 3.344623e-07  -5.352614e-02  0 
 -1.679444e-02  -6.520564e-02  0 
 -8.284299e-03  -6.473720e-02  0 
 1.107180e-06  -6.456443e-02  0 
 -1.731172e-02  -7.556102e-02  0 
 -8.570051e-03  -7.517350e-02  0 
 1.776191e-06  -7.502955e-02  0 
 -1.755876e-02  -8.527150e-02  0 
 -8.711137e-03  -8.486480e-02  0 
 1.866388e-06  -8.471194e-02  0 
VECTORS displacement_ITER13 FLOAT
 -1.926910e-02  -4.923622e-02  0 
 -1.119973e-02  -4.840765e-02  0 
 -3.669567e-03  -4.794120e-02  0 
 -2.071552e-02  -6.017528e-02  0 
 -1.217464e-02  -5.952661e-02  0 
 -4.014713e-03  -5.915209e-02  0 
 -1.274495e-02  -7.021999e-02  0 
 -4.216171e-03  -6.992258e-02  0 
 -1.303492e-02  -8.029282e-02  0 
 -4.319273e-03  -8.001817e-02  0 
 -1.319043e-02  -8.959887e-02  0 
 -4.376861e-03  -8.925882e-02  0 
 -1.825696e-02  -4.368050e-02  0 
 -1.052731e-02  -4.276819e-02  0 
 -1.514783e-02  -4.878741e-02  0 
 -3.433260e-03  -4.226677e-02  0 
 -7.387472e-03  -4.812008e-02  0 
 8.661263e-07  -4.788140e-02  0 
 -2.007985e-02  -5.474368e-02  0 
 -1.174481e-02  -5.400577e-02  0 
 -1.638400e-02  -5.982657e-02  0 
 -3.862259e-03  -5.358442e-02  0 
 -8.061194e-03  -5.929666e-02  0 
 -3.059023e-06  -5.910332e-02  0 
 -2.119763e-02  -6.550729e-02  0 
 -1.250302e-02  -6.493980e-02  0 
 -1.710629e-02  -7.045609e-02  0 
 -4.130664e-03  -6.460857e-02  0 
 -8.455993e-03  -7.003771e-02  0 
 -9.916461e-07  -6.988321e-02  0 
 -1.291674e-02  -7.534440e-02  0 
 -1.746758e-02  -8.050707e-02  0 
 -4.276972e-03  -7.506713e-02  0 
 -8.657613e-03  -8.012494e-02  0 
 -1.444896e-06  -7.998154e-02  0 
 -1.311876e-02  -8.504907e-02  0 
 -1.765584e-02  -8.986298e-02  0 
 -4.350049e-03  -8.475488e-02  0 
 -8.768432e-03  -8.939115e-02  0 
 -8.324849e-07  -8.921321e-02  0 
 -1.429035e-02  -4.318356e-02  0 
 -6.924161e-03  -4.245801e-02  0 
 1.945721e-06  -4.220071e-02  0 
 -1.583990e-02  -5.434579e-02  0 
 -7.763956e-03  -5.374651e-02  0 
 -2.431635e-06  -5.352779e-02  0 
 -1.679919e-02  -6.520325e-02  0 
 -8.288464e-03  -6.473667e-02  0 
 -1.996441e-06  -6.456491e-02  0 
 -1.732109e-02  -7.556268e-02  0 
 -8.575036e-03  -7.517451e-02  0 
 -9.026107e-07  -7.503049e-02  0 
 -1.757015e-02  -8.527711e-02  0 
 -8.716998e-03  -8.486952e-02  0 
 -9.645500e-07  -8.471549e-02  0 
VECTORS displacement_ITER14 FLOAT
 -1.927003e-02  -4.923498e-02  0 
 -1.119865e-02  -4.840710e-02  0 
 -3.667269e-03  -4.794097e-02  0 
 -2.071690e-02  -6.017679e-02  0 
 -1.217317e-02  -5.952817e-02  0 
 -4.012369e-03  -5.915355e-02  0 
 -1.274274e-02  -7.022193e-02  0 
 -4.215044e-03  -6.992413e-02  0 
 -1.303136e-02  -8.029154e-02  0 
 -4.319282e-03  -8.001709e-02  0 
 -1.318626e-02  -8.959292e-02  0 
 -4.377161e-03  -8.925348e-02  0 
 -1.825855e-02  -4.367784e-02  0 
 -1.052620e-02  -4.276695e-02  0 
 -1.514778e-02  -4.878655e-02  0 
 -3.431089e-03  -4.226606e-02  0 
 -7.385717e-03  -4.811978e-02  0 
 3.267398e-06  -4.788067e-02  0 
 -2.008120e-02  -5.474369e-02  0 
 -1.174362e-02  -5.400624e-02  0 
 -1.638354e-02  -5.982807e-02  0 
 -3.859894e-03  -5.358491e-02  0 
 -8.059321e-03  -5.929816e-02  0 
 2.623942e-07  -5.910446e-02  0 
 -2.119959e-02  -6.551139e-02  0 
 -1.250120e-02  -6.494211e-02  0 
 -1.710283e-02  -7.045785e-02  0 
 -4.128862e-03  -6.461045e-02  0 
 -8.454297e-03  -7.003945e-02  0 
 -6.621638e-07  -6.988446e-02  0 
 -1.291379e-02  -7.534490e-02  0 
 -1.746201e-02  -8.050537e-02  0 
 -4.276487e-03  -7.506761e-02  0 
 -8.655901e-03  -8.012383e-02  0 
 -3.044471e-06  -7.998033e-02  0 
 -1.311480e-02  -8.504561e-02  0 
 -1.764882e-02  -8.985659e-02  0 
 -4.350289e-03  -8.475182e-02  0 
 -8.766558e-03  -8.938565e-02  0 
 -3.600112e-06  -8.920799e-02  0 
 -1.429044e-02  -4.318141e-02  0 
 -6.922625e-03  -4.245714e-02  0 
 4.189109e-06  -4.220069e-02  0 
 -1.583971e-02  -5.434599e-02  0 
 -7.762107e-03  -5.374709e-02  0 
 1.091926e-06  -5.352881e-02  0 
 -1.679807e-02  -6.520617e-02  0 
 -8.286643e-03  -6.473869e-02  0 
 -5.168917e-08  -6.456647e-02  0 
 -1.731656e-02  -7.556282e-02  0 
 -8.573388e-03  -7.517515e-02  0 
 -1.761814e-06  -7.503066e-02  0 
 -1.756357e-02  -8.527332e-02  0 
 -8.715213e-03  -8.486628e-02  0 
 -3.450462e-06  -8.471244e-02  0 
VECTORS displacement_ITER15 FLOAT
 -1.926898e-02  -4.923414e-02  0 
 -1.119833e-02  -4.840666e-02  0 
 -3.668986e-03  -4.794083e-02  0 
 -2.071692e-02  -6.017581e-02  0 
 -1.217308e-02  -5.952686e-02  0 
 -4.012867e-03  -5.915219e-02  0 
 -1.274276e-02  -7.022065e-02  0 
 -4.214318e-03  -6.992303e-02  0 
 -1.303122e-02  -8.029165e-02  0 
 -4.317467e-03  -8.001734e-02  0 
 -1.318612e-02  -8.959522e-02  0 
 -4.374893e-03  -8.925620e-02  0 
 -1.825764e-02  -4.367739e-02  0 
 -1.052571e-02  -4.276728e-02  0 
 -1.514716e-02  -4.878591e-02  0 
 -3.433079e-03  -4.226770e-02  0 
 -7.386126e-03  -4.811952e-02  0 
 -6.434410e-07  -4.788039e-02  0 
 -2.008087e-02  -5.474259e-02  0 
 -1.174344e-02  -5.400523e-02  0 
 -1.638332e-02  -5.982694e-02  0 
 -3.861116e-03  -5.358377e-02  0 
 -8.059542e-03  -5.929673e-02  0 
 -3.416297e-07  -5.910320e-02  0 
 -2.119984e-02  -6.551070e-02  0 
 -1.250119e-02  -6.494074e-02  0 
 -1.710284e-02  -7.045650e-02  0 
 -4.128768e-03  -6.460911e-02  0 
 -8.453953e-03  -7.003822e-02  0 
 3.274859e-07  -6.988364e-02  0 
 -1.291371e-02  -7.534406e-02  0 
 -1.746284e-02  -8.050539e-02  0 