# vtk DataFile Version 3.1
this is an vtk file created by FEMAC
ASCII
DATASET UNSTRUCTURED_GRID
POINTS 55 FLOAT
0.000000 5.000000 0.000000
1.000000 5.000000 0.000000
0.000000 6.000000 0.000000
1.000000 6.000000 0.000000
0.000000 7.000000 0.000000
1.000000 7.000000 0.000000
2.000000 5.000000 0.000000
2.000000 6.000000 0.000000
2.000000 7.000000 0.000000
3.000000 5.000000 0.000000
3.000000 6.000000 0.000000
4.000000 5.000000 0.000000
4.000000 6.000000 0.000000
0.500000 5.000000 0.000000
0.000000 4.500000 0.000000
1.000000 4.500000 0.000000
0.500000 6.000000 0.000000
0.000000 5.500000 0.000000
1.000000 5.500000 0.000000
0.500000 7.000000 0.000000
0.000000 6.500000 0.000000
1.000000 6.500000 0.000000
1.500000 5.000000 0.000000
2.000000 4.500000 0.000000
1.500000 6.000000 0.000000
2.000000 5.500000 0.000000
1.500000 7.000000 0.000000
2.000000 6.500000 0.000000
2.500000 5.000000 0.000000
3.000000 4.500000 0.000000
2.500000 6.000000 0.000000
3.000000 5.500000 0.000000
3.000000 6.500000 0.000000
3.500000 5.000000 0.000000
4.000000 4.500000 0.000000
3.500000 6.000000 0.000000
4.000000 5.500000 0.000000
4.000000 6.500000 0.000000
4.500000 5.000000 0.000000
4.500000 6.000000 0.000000
0.500000 4.500000 0.000000
0.500000 5.500000 0.000000
0.500000 6.500000 0.000000
1.500000 4.500000 0.000000
1.500000 5.500000 0.000000
1.500000 6.500000 0.000000
2.500000 4.500000 0.000000
2.500000 5.500000 0.000000
2.500000 6.500000 0.000000
3.500000 4.500000 0.000000
3.500000 5.500000 0.000000
3.500000 6.500000 0.000000
4.500000 4.500000 0.000000
4.500000 5.500000 0.000000
4.500000 6.500000 0.000000
CELLS 40 200 
4 14 40 13  0
4 40 15  1 13
4 0 13 41 17
4 17 41 16  2
4 13  1 18 41
4 41 18  3 16
4 2 16 42 20
4 20 42 19  4
4 16  3 21 42
4 42 21  5 19
4 15 43 22  1
4 43 23  6 22
4 1 22 44 18
4 18 44 24  3
4 22  6 25 44
4 44 25  7 24
4 3 24 45 21
4 21 45 26  5
4 24  7 27 45
4 45 27  8 26
4 23 46 28  6
4 46 29  9 28
4 6 28 47 25
4 25 47 30  7
4 28  9 31 47
4 47 31 10 30
4 7 30 48 27
4 30 10 32 48
4 29 49 33  9
4 49 34 11 33
4 9 33 50 31
4 31 50 35 10
4 33 11 36 50
4 50 36 12 35
4 10 35 51 32
4 35 12 37 51
4 34 52 38 11
4 11 38 53 36
4 36 53 39 12
4 12 39 54 37
CELL_TYPES 40
9 9 9 9 9 9 9 9 9 9 9 9 9 9 9 9 9 9 9 9 9 9 9 9 9 9 9 9 9 9 9 9 9 9 9 9 9 9 9 9 
POINT_DATA 55
VECTORS displacement_ITER1 FLOAT
 0  0  0 
 -8.673664e-03  -1.208127e-02  0 
 0  0  0 
 8.111569e-04  -1.171524e-02  0 
 0  0  0 
 1.161033e-02  -1.348387e-02  0 
 -1.384388e-02  -3.145890e-02  0 
 1.610525e-03  -3.078001e-02  0 
 1.266535e-02  -2.937462e-02  0 
 -1.668592e-02  -5.433555e-02  0 
 2.491666e-03  -5.479629e-02  0 
 -1.711755e-02  -7.994265e-02  0 
 3.297634e-03  -7.952343e-02  0 
 -4.471149e-03  -4.545927e-03  0 
 0  0  0 
 -1.519669e-02  -1.312413e-02  0 
 3.514281e-04  -4.499786e-03  0 
 0  0  0 
 -3.511088e-03  -1.152928e-02  0 
 7.466049e-03  -5.964044e-03  0 
 0  0  0 
 5.485693e-03  -1.252565e-02  0 
 -1.167259e-02  -2.116301e-02  0 
 -2.228213e-02  -3.200959e-02  0 
 1.342805e-03  -2.067750e-02  0 
 -5.962123e-03  -3.102172e-02  0 
 1.361055e-02  -2.234660e-02  0 
 8.474705e-03  -3.037417e-02  0 
 -1.548626e-02  -4.259367e-02  0 
 -2.657849e-02  -5.467910e-02  0 
 1.795230e-03  -4.228656e-02  0 
 -7.025176e-03  -5.433324e-02  0 
 1.196990e-02  -5.537674e-02  0 
 -1.733101e-02  -6.661127e-02  0 
 -2.975407e-02  -7.953611e-02  0 
 3.043566e-03  -6.717718e-02  0 
 -6.678401e-03  -7.975620e-02  0 
 1.361305e-02  -7.969912e-02  0 
 -1.724848e-02  -9.367592e-02  0 
 3.412581e-03  -9.193879e-02  0 
 -9.200420e-03  -6.034894e-03  0 
 -1.856017e-03  -4.386148e-03  0 
 2.866204e-03  -4.746229e-03  0 
 -1.944472e-02  -2.173258e-02  0 
 -4.896166e-03  -2.064812e-02  0 
 7.235756e-03  -2.143992e-02  0 
 -2.469666e-02  -4.320331e-02  0 
 -6.717366e-03  -4.230887e-02  0 
 1.122809e-02  -4.304156e-02  0 
 -2.801306e-02  -6.649822e-02  0 
 -6.864958e-03  -6.695324e-02  0 
 1.248310e-02  -6.759864e-02  0 
 -3.161435e-02  -9.831918e-02  0 
 -6.756267e-03  -9.158978e-02  0 
 1.532810e-02  -9.330775e-02  0 
VECTORS displacement_ITER2 FLOAT
 0  0  0 
 -4.329014e-03  -8.039343e-03  0 
 0  0  0 
 -1.487590e-04  -7.880032e-03  0 
 0  0  0 
 4.992951e-03  -8.384124e-03  0 
 -5.998805e-03  -1.833546e-02  0 
 -6.999094e-04  -1.821855e-02  0 
 3.849783e-03  -1.735482e-02  0 
 -6.572349e-03  -2.800301e-02  0 
 -1.129094e-03  -2.854769e-02  0 
 -6.030799e-03  -3.786128e-02  0 
 -1.115201e-03  -3.734878e-02  0 
 -2.337276e-03  -3.312275e-03  0 
 0  0  0 
 -7.603958e-03  -8.283063e-03  0 
 -5.928607e-05  -3.353427e-03  0 
 0  0  0 
 -1.987082e-03  -7.842973e-03  0 
 3.680234e-03  -3.831521e-03  0 
 0  0  0 
 1.970768e-03  -8.145057e-03  0 
 -5.430388e-03  -1.315753e-02  0 
 -8.914129e-03  -1.825022e-02  0 
 -3.143288e-04  -1.298852e-02  0 
 -3.304483e-03  -1.827991e-02  0 
 5.089143e-03  -1.339575e-02  0 
 1.779737e-03  -1.789260e-02  0 
 -6.339308e-03  -2.330417e-02  0 
 -9.304841e-03  -2.794694e-02  0 
 -1.088056e-03  -2.348424e-02  0 
 -3.750565e-03  -2.820294e-02  0 
 1.027179e-03  -2.870002e-02  0 
 -6.587311e-03  -3.258632e-02  0 
 -1.065768e-02  -3.726129e-02  0 
 -1.085120e-03  -3.305812e-02  0 
 -3.353430e-03  -3.772434e-02  0 
 1.308221e-03  -3.722872e-02  0 
 -5.998981e-03  -4.344742e-02  0 
 -1.118575e-03  -4.168205e-02  0 
 -5.045597e-03  -3.971438e-03  0 
 -1.063008e-03  -3.314725e-03  0 
 1.139687e-03  -3.368817e-03  0 
 -8.773542e-03  -1.299184e-02  0 
 -2.751284e-03  -1.302113e-02  0 
 2.148000e-03  -1.317085e-02  0 
 -9.121738e-03  -2.339634e-02  0 
 -3.658652e-03  -2.335148e-02  0 
 1.791488e-03  -2.380321e-02  0 
 -9.570722e-03  -3.218401e-02  0 
 -3.548765e-03  -3.300623e-02  0 
 6.676032e-04  -3.309432e-02  0 
 -1.219445e-02  -4.780683e-02  0 
 -3.413784e-03  -4.146137e-02  0 
 2.776689e-03  -4.276275e-02  0 
VECTORS displacement_ITER3 FLOAT
 0  0  0 
 2.581205e-04  -7.854734e-03  0 
 0  0  0 
 3.319142e-03  -8.540670e-03  0 
 0  0  0 
 8.119957e-03  -9.847204e-03  0 
 2.395876e-03  -1.777325e-02  0 
 6.688861e-03  -1.848828e-02  0 
 9.344927e-03  -1.861125e-02  0 
 4.468936e-03  -2.774903e-02  0 
 9.644434e-03  -2.875271e-02  0 
 6.909346e-03  -3.776254e-02  0 
 1.185396e-02  -3.818664e-02  0 
 -8.858314e-05  -3.383585e-03  0 
 0  0  0 
 -1.955088e-03  -7.519187e-03  0 
 1.607651e-03  -3.814310e-03  0 
 0  0  0 
 1.909690e-03  -8.116789e-03  0 
 5.398682e-03  -4.787098e-03  0 
 0  0  0 
 5.190193e-03  -9.215723e-03  0 
 1.229779e-03  -1.273952e-02  0 
 4.217315e-04  -1.740389e-02  0 
 5.080830e-03  -1.356991e-02  0 
 4.487129e-03  -1.811002e-02  0 
 9.517454e-03  -1.497195e-02  0 
 8.603285e-03  -1.883046e-02  0 
 3.489624e-03  -2.280139e-02  0 
 2.131658e-03  -2.753855e-02  0 
 8.119628e-03  -2.356055e-02  0 
 6.986093e-03  -2.814157e-02  0 
 1.241711e-02  -2.937074e-02  0 
 5.512048e-03  -3.257360e-02  0 
 3.394968e-03  -3.690445e-02  0 
 1.093090e-02  -3.358109e-02  0 
 9.315744e-03  -3.803276e-02  0 
 1.494407e-02  -3.852576e-02  0 
 7.723949e-03  -4.288771e-02  0 
 1.254614e-02  -4.276034e-02  0 
 -1.953779e-03  -3.410047e-03  0 
 8.259478e-04  -3.615523e-03  0 
 2.690165e-03  -4.005654e-03  0 
 -1.024278e-03  -1.209210e-02  0 
 3.173675e-03  -1.306892e-02  0 
 7.060362e-03  -1.432897e-02  0 
 1.268850e-03  -2.269554e-02  0 
 5.744234e-03  -2.313225e-02  0 
 1.111118e-02  -2.431036e-02  0 
 3.067572e-03  -3.200480e-02  0 
 8.257267e-03  -3.317184e-02  0 
 1.353403e-02  -3.407599e-02  0 
 3.426802e-03  -4.565829e-02  0 
 1.003851e-02  -4.199754e-02  0 
 1.667946e-02  -4.403508e-02  0 
VECTORS displacement_ITER4 FLOAT
 0  0  0 
 8.402255e-04  -7.260977e-03  0 
 0  0  0 
 2.856409e-03  -7.457187e-03  0 
 0  0  0 
 5.753049e-03  -7.832814e-03  0 
 2.219963e-03  -1.607402e-02  0 
 5.677674e-03  -1.624341e-02  0 
 7.938038e-03  -1.597363e-02  0 
 3.012398e-03  -2.615745e-02  0 
 8.198197e-03  -2.648444e-02  0 
 4.060768e-03  -3.714994e-02  0 
 1.003266e-02  -3.732067e-02  0 
 3.374467e-04  -3.310907e-03  0 
 0  0  0 
 -3.410634e-04  -7.090512e-03  0 
 1.425548e-03  -3.437774e-03  0 
 0  0  0 
 1.886116e-03  -7.320107e-03  0 
 3.631252e-03  -3.769352e-03  0 
 0  0  0 
 4.069872e-03  -7.704368e-03  0 
 1.570627e-03  -1.152640e-02  0 
 8.757183e-04  -1.603787e-02  0 
 4.303982e-03  -1.177001e-02  0 
 3.864672e-03  -1.615607e-02  0 
 7.361311e-03  -1.230616e-02  0 
 7.322958e-03  -1.633183e-02  0 
 2.683803e-03  -2.095394e-02  0 
 4.922868e-04  -2.629065e-02  0 
 6.931562e-03  -2.115216e-02  0 
 5.534703e-03  -2.622598e-02  0 
 1.108231e-02  -2.678750e-02  0 
 3.394471e-03  -3.152170e-02  0 
 6.067229e-04  -3.677273e-02  0 
 9.248477e-03  -3.187268e-02  0 
 6.905761e-03  -3.720540e-02  0 
 1.373951e-02  -3.770124e-02  0 
 4.467241e-03  -4.257499e-02  0 
 1.064659e-02  -4.289603e-02  0 
 -7.516107e-04  -3.296162e-03  0 
 9.047250e-04  -3.388365e-03  0 
 2.110275e-03  -3.472983e-03  0 
 2.923874e-04  -1.121138e-02  0 
 2.897222e-03  -1.160532e-02  0 
 5.713565e-03  -1.207543e-02  0 
 6.622318e-04  -2.112316e-02  0 
 4.733695e-03  -2.102226e-02  0 
 9.644724e-03  -2.151091e-02  0 
 5.770926e-04  -3.145457e-02  0 
 6.302265e-03  -3.170332e-02  0 
 1.236605e-02  -3.222242e-02  0 
 6.596874e-04  -4.427440e-02  0 
 7.317803e-03  -4.217691e-02  0 
 1.524369e-02  -4.395589e-02  0 
VECTORS displacement_ITER5 FLOAT
 0  0  0 
 9.953861e-04  -6.838130e-03  0 
 0  0  0 
 2.710818e-03  -6.937997e-03  0 
 0  0  0 
 4.951517e-03  -7.028103e-03  0 
 2.095818e-03  -1.519653e-02  0 
 5.475833e-03  -1.551393e-02  0 
 8.904643e-03  -1.616592e-02  0 
 2.712306e-03  -2.531585e-02  0 
 8.039477e-03  -2.571569e-02  0 
 3.372702e-03  -3.671364e-02  0 
 9.927121e-03  -3.707229e-02  0 
 4.710316e-04  -3.188776e-03  0 
 0  0  0 
 2.050556e-04  -6.722151e-03  0 
 1.367142e-03  -3.210870e-03  0 
 0  0  0 
 1.836795e-03  -6.877745e-03  0 
 2.801638e-03  -3.293992e-03  0 
 0  0  0 
 3.750631e-03  -7.018375e-03  0 
 1.593964e-03  -1.082651e-02  0 
 7.735338e-04  -1.511023e-02  0 
 4.072576e-03  -1.107126e-02  0 
 3.699450e-03  -1.533316e-02  0 
 7.141612e-03  -1.143767e-02  0 
 7.250959e-03  -1.587351e-02  0 
 2.457961e-03  -2.002534e-02  0 
 9.847121e-05  -2.533187e-02  0 
 6.809097e-03  -2.038915e-02  0 
 5.306512e-03  -2.545527e-02  0 
 1.105530e-02  -2.606640e-02  0 
 2.971446e-03  -3.090435e-02  0 
 -4.598137e-05  -3.647944e-02  0 
 9.096754e-03  -3.131899e-02  0 
 6.510710e-03  -3.682679e-02  0 
 1.381288e-02  -3.754442e-02  0 
 3.658292e-03  -4.234174e-02  0 
 1.056387e-02  -4.293685e-02  0 
 -1.862043e-04  -3.151327e-03  0 
 9.115408e-04  -3.211033e-03  0 
 1.910108e-03  -3.205233e-03  0 
 5.557383e-04  -1.061741e-02  0 
 2.777465e-03  -1.092028e-02  0 
 5.456283e-03  -1.127465e-02  0 
 4.334342e-04  -2.004562e-02  0 
 4.548186e-03  -2.017879e-02  0 
 9.375954e-03  -2.069967e-02  0 
 -4.499312e-05  -3.086882e-02  0 
 5.980063e-03  -3.107630e-02  0 
 1.251654e-02  -3.174587e-02  0 
 1.023182e-04  -4.311528e-02  0 
 6.897968e-03  -4.234306e-02  0 
 1.499986e-02  -4.370473e-02  0 
VECTORS displacement_ITER6 FLOAT
 0  0  0 
 7.885752e-04  -6.950710e-03  0 
 0  0  0 
 2.607047e-03  -6.923364e-03  0 
 0  0  0 
 4.835259e-03  -6.897578e-03  0 
 1.639519e-03  -1.551719e-02  0 
 5.168715e-03  -1.576177e-02  0 
 9.626452e-03  -1.675043e-02  0 
 2.260159e-03  -2.560427e-02  0 
 7.531901e-03  -2.599514e-02  0 
 2.894404e-03  -3.667683e-02  0 
 9.379451e-03  -3.714869e-02  0 
 3.874305e-04  -3.235450e-03  0 
 0  0  0 
 -6.607815e-05  -6.922103e-03  0 
 1.330134e-03  -3.185537e-03  0 
 0  0  0 
 1.675127e-03  -6.934810e-03  0 
 2.571851e-03  -3.171732e-03  0 
 0  0  0 
 3.681472e-03  -6.912738e-03  0 
 1.237794e-03  -1.104247e-02  0 
 1.181122e-04  -1.550481e-02  0 
 3.866655e-03  -1.115545e-02  0 
 3.327183e-03  -1.559981e-02  0 
 7.302151e-03  -1.140007e-02  0 
 7.150641e-03  -1.615584e-02  0 
 1.972813e-03  -2.038286e-02  0 
 -2.857916e-04  -2.558458e-02  0 
 6.415946e-03  -2.071644e-02  0 
 4.828853e-03  -2.574841e-02  0 
 1.049770e-02  -2.635034e-02  0 
 2.545890e-03  -3.106212e-02  0 
 -3.134507e-04  -3.648038e-02  0 
 8.533197e-03  -3.151831e-02  0 
 6.024039e-03  -3.684640e-02  0 
 1.304215e-02  -3.762321e-02  0 
 3.177428e-03  -4.218972e-02  0 
 1.006783e-02  -4.284475e-02  0 
 -2.207022e-04  -3.247617e-03  0 
 8.487469e-04  -3.219348e-03  0 
 1.866472e-03  -3.154035e-03  0 
 6.292060e-05  -1.095894e-02  0 
 2.502076e-03  -1.107492e-02  0 
 5.395631e-03  -1.126498e-02  0 
 -9.394033e-05  -2.039337e-02  0 
 4.111601e-03  -2.050725e-02  0 
 8.934219e-03  -2.098164e-02  0 
 -3.579238e-04  -3.100962e-02  0 
 5.475834e-03  -3.124043e-02  0 
 1.186992e-02  -3.195538e-02  0 
 -1.680171e-04  -4.247902e-02  0 
 6.468291e-03  -4.237391e-02  0 
 1.407258e-02  -4.339709e-02  0 
VECTORS displacement_ITER7 FLOAT
 0  0  0 
 8.473924e-04  -6.909532e-03  0 
 0  0  0 
 2.678765e-03  -6.847380e-03  0 
 0  0  0 
 4.842659e-03  -6.823449e-03  0 
 1.671470e-03  -1.553218e-02  0 
 5.273672e-03  -1.570848e-02  0 
 9.898543e-03  -1.654128e-02  0 
 2.423406e-03  -2.565238e-02  0 
 7.695078e-03  -2.606000e-02  0 
 3.143740e-03  -3.668416e-02  0 
 9.681648e-03  -3.721824e-02  0 
 4.327481e-04  -3.220970e-03  0 
 0  0  0 
 4.651806e-06  -6.927824e-03  0 
 1.364495e-03  -3.151086e-03  0 
 0  0  0 
 1.735482e-03  -6.877485e-03  0 
 2.473440e-03  -3.105861e-03  0 
 0  0  0 
 3.730715e-03  -6.819975e-03  0 
 1.270306e-03  -1.101570e-02  0 
 2.851615e-05  -1.553511e-02  0 
 3.968711e-03  -1.106139e-02  0 
 3.406681e-03  -1.558731e-02  0 
 7.412783e-03  -1.128585e-02  0 
 7.312118e-03  -1.599228e-02  0 
 2.052607e-03  -2.042999e-02  0 
 -9.202545e-05  -2.560285e-02  0 
 6.533405e-03  -2.073077e-02  0 
 4.983323e-03  -2.580322e-02  0 
 1.067717e-02  -2.644209e-02  0 
 2.783261e-03  -3.109986e-02  0 
 -6.927794e-06  -3.656104e-02  0 
 8.751891e-03  -3.159868e-02  0 
 6.327121e-03  -3.687987e-02  0 
 1.323713e-02  -3.768832e-02  0 
 3.454666e-03  -4.225085e-02  0 
 1.046721e-02  -4.286240e-02  0 
 -7.460570e-05  -3.241095e-03  0 
 8.851281e-04  -3.190553e-03  0 
 1.881803e-03  -3.117729e-03  0 
 2.973410e-05  -1.100586e-02  0 
 2.573850e-03  -1.102165e-02  0 
 5.522842e-03  -1.113299e-02  0 
 -4.648067e-05  -2.040922e-02  0 
 4.216471e-03  -2.053889e-02  0 
 9.085557e-03  -2.100784e-02  0 
 -7.496457e-05  -3.104257e-02  0 
 5.694866e-03  -3.128610e-02  0 
 1.207829e-02  -3.205167e-02  0 
 9.357189e-05  -4.230304e-02  0 
 6.874630e-03  -4.249301e-02  0 
 1.422248e-02  -4.327865e-02  0 
VECTORS displacement_ITER8 FLOAT
 0  0  0 
 8.171347e-04  -6.968033e-03  0 
 0  0  0 
 2.651769e-03  -6.919024e-03  0 
 0  0  0 
 4.835133e-03  -6.955077e-03  0 
 1.630044e-03  -1.564504e-02  0 
 5.216109e-03  -1.581883e-02  0 
 9.749679e-03  -1.654025e-02  0 
 2.421439e-03  -2.572120e-02  0 
 7.612690e-03  -2.613967e-02  0 
 3.146777e-03  -3.662922e-02  0 
 9.598530e-03  -3.715441e-02  0 
 4.169316e-04  -3.250383e-03  0 
 0  0  0 
 -4.456080e-05  -6.993273e-03  0 
 1.345941e-03  -3.190867e-03  0 
 0  0  0 
 1.709494e-03  -6.939486e-03  0 
 2.462153e-03  -3.151632e-03  0 
 0  0  0 
 3.694804e-03  -6.914512e-03  0 
 1.226031e-03  -1.110660e-02  0 
 -3.860051e-05  -1.564310e-02  0 
 3.936230e-03  -1.115265e-02  0 
 3.361978e-03  -1.569944e-02  0 
 7.332657e-03  -1.143438e-02  0 
 7.258553e-03  -1.606560e-02  0 
 2.028772e-03  -2.053777e-02  0 
 -3.861585e-05  -2.566889e-02  0 
 6.454579e-03  -2.084441e-02  0 
 4.941003e-03  -2.587346e-02  0 
 1.052957e-02  -2.653705e-02  0 
 2.795133e-03  -3.111024e-02  0 
 5.274191e-05  -3.653526e-02  0 
 8.665852e-03  -3.160934e-02  0 
 6.300423e-03  -3.682401e-02  0 
 1.306676e-02  -3.760381e-02  0 
 3.448635e-03  -4.217452e-02  0 
 1.039476e-02  -4.272060e-02  0 
 -7.621778e-05  -3.274230e-03  0 
 8.695317e-04  -3.223337e-03  0 
 1.862251e-03  -3.162907e-03  0 
 -4.249023e-05  -1.110949e-02  0 
 2.538017e-03  -1.111302e-02  0 
 5.487894e-03  -1.124000e-02  0 
 -4.940124e-05  -2.050930e-02  0 
 4.169403e-03  -2.064550e-02  0 
 8.978940e-03  -2.115226e-02  0 
 1.399339e-06  -3.105308e-02  0 
 5.658931e-03  -3.129532e-02  0 
 1.191176e-02  -3.205498e-02  0 
 1.102336e-04  -4.216392e-02  0 
 6.857429e-03  -4.239800e-02  0 
 1.404231e-02  -4.309836e-02  0 
VECTORS displacement_ITER9 FLOAT
 0  0  0 
 8.590365e-04  -6.902595e-03  0 
 0  0  0 
 2.659892e-03  -6.890331e-03  0 
 0  0  0 
 4.817034e-03  -6.974772e-03  0 
 1.689941e-03  -1.553112e-02  0 
 5.262724e-03  -1.572861e-02  0 
 9.628218e-03  -1.637304e-02  0 
 2.482264e-03  -2.560784e-02  0 
 7.716208e-03  -2.604477e-02  0 
 3.183072e-03  -3.659952e-02  0 
 9.755447e-03  -3.712498e-02  0 
 4.373945e-04  -3.224858e-03  0 
 0  0  0 
 2.603176e-05  -6.912409e-03  0 
 1.343648e-03  -3.183521e-03  0 
 0  0  0 
 1.732558e-03  -6.892069e-03  0 
 2.439358e-03  -3.151026e-03  0 
 0  0  0 
 3.679733e-03  -6.909283e-03  0 
 1.278422e-03  -1.101118e-02  0 
 2.170105e-05  -1.551239e-02  0 
 3.965653e-03  -1.109034e-02  0 
 3.417349e-03  -1.559867e-02  0 
 7.267629e-03  -1.142876e-02  0 
 7.286956e-03  -1.596286e-02  0 
 2.092408e-03  -2.041703e-02  0 
 8.314076e-06  -2.555351e-02  0 
 6.523093e-03  -2.074330e-02  0 
 5.022494e-03  -2.576632e-02  0 
 1.064635e-02  -2.646097e-02  0 
 2.847679e-03  -3.102659e-02  0 
 2.126691e-05  -3.652345e-02  0 
 8.799279e-03  -3.153405e-02  0 
 6.402882e-03  -3.679480e-02  0 
 1.328395e-02  -3.757250e-02  0 
 3.471350e-03  -4.223806e-02  0 
 1.057102e-02  -4.275327e-02  0 
 -8.514630e-06  -3.234419e-03  0 
 8.772104e-04  -3.206223e-03  0 
 1.851311e-03  -3.162846e-03  0 
 2.508654e-05  -1.100378e-02  0 
 2.578831e-03  -1.103461e-02  0 
 5.491574e-03  -1.120300e-02  0 
 1.229040e-05  -2.037966e-02  0 
 4.237777e-03  -2.053313e-02  0 
 9.049955e-03  -2.108151e-02  0 
 1.445110e-05  -3.096961e-02  0 
 5.751737e-03  -3.121489e-02  0 
 1.207807e-02  -3.198502e-02  0 
 3.241706e-05  -4.221155e-02  0 
 6.966781e-03  -4.244362e-02  0 
 1.429073e-02  -4.313815e-02  0 
VECTORS displacement_ITER10 FLOAT
 0  0  0 
 8.507853e-04  -6.894841e-03  0 
 0  0  0 
 2.658096e-03  -6.887827e-03  0 
 0  0  0 
 4.842473e-03  -6.982623e-03  0 
 1.671327e-03  -1.553530e-02  0 
 5.254326e-03  -1.573602e-02  0 
 9.627445e-03  -1.635951e-02  0 
 2.454351e-03  -2.561751e-02  0 
 7.695010e-03  -2.605016e-02  0 
 3.136542e-03  -3.661599e-02  0 
 9.724014e-03  -3.713250e-02  0 
 4.327050e-04  -3.219307e-03  0 
 0  0  0 
 1.204917e-05  -6.901163e-03  0 
 1.342347e-03  -3.180404e-03  0 
 0  0  0 
 1.726665e-03  -6.887638e-03  0 
 2.443793e-03  -3.145268e-03  0 
 0  0  0 
 3.682838e-03  -6.909985e-03  0 
 1.264211e-03  -1.100871e-02  0 
 -6.259096e-06  -1.551470e-02  0 
 3.962986e-03  -1.109102e-02  0 
 3.404117e-03  -1.560381e-02  0 
 7.276945e-03  -1.143963e-02  0 
 7.292929e-03  -1.596736e-02  0 
 2.070148e-03  -2.042556e-02  0 
 -2.010494e-05  -2.556581e-02  0 
 6.508529e-03  -2.075307e-02  0 
 4.999259e-03  -2.577391e-02  0 
 1.061825e-02  -2.646302e-02  0 
 2.812186e-03  -3.103841e-02  0 
 -2.950436e-05  -3.654647e-02  0 
 8.772829e-03  -3.153541e-02  0 
 6.364635e-03  -3.680899e-02  0 
 1.326557e-02  -3.757354e-02  0 
 3.417083e-03  -4.227074e-02  0 
 1.053754e-02  -4.277863e-02  0 
 -3.092103e-06  -3.226599e-03  0 
 8.738963e-04  -3.202311e-03  0 
 1.853902e-03  -3.158855e-03  0 
 2.170033e-06  -1.100172e-02  0 
 2.569773e-03  -1.103406e-02  0 
 5.498961e-03  -1.120758e-02  0 
 -1.392329e-05  -2.038867e-02  0 
 4.219952e-03  -2.054110e-02  0 
 9.031693e-03  -2.109421e-02  0 
 -2.505004e-05  -3.098254e-02  0 
 5.720970e-03  -3.122265e-02  0 
 1.204538e-02  -3.197843e-02  0 
 -2.779440e-05  -4.222369e-02  0 
 6.921161e-03  -4.246982e-02  0 
 1.428946e-02  -4.317586e-02  0 
VECTORS displacement_ITER11 FLOAT
 0  0  0 
 8.492810e-04  -6.908981e-03  0 
 0  0  0 
 2.668036e-03  -6.902108e-03  0 
 0  0  0 
 4.887430e-03  -6.999889e-03  0 
 1.675725e-03  -1.557363e-02  0 
 5.264271e-03  -1.577708e-02  0 
 9.677508e-03  -1.640716e-02  0 
 2.469287e-03  -2.565355e-02  0 
 7.693442e-03  -2.608277e-02  0 
 3.153831e-03  -3.662185e-02  0 
 9.710779e-03  -3.713225e-02  0 
 4.308237e-04  -3.223180e-03  0 
 0  0  0 
 -1.541866e-06  -6.913639e-03  0 
 1.348171e-03  -3.184363e-03  0 
 0  0  0 
 1.730491e-03  -6.902587e-03  0 
 2.464020e-03  -3.147770e-03  0 
 0  0  0 
 3.703034e-03  -6.924016e-03  0 
 1.264322e-03  -1.103671e-02  0 
 -6.340510e-06  -1.555266e-02  0 
 3.974568e-03  -1.111924e-02  0 
 3.410837e-03  -1.564237e-02  0 
 7.320751e-03  -1.146995e-02  0 
 7.316675e-03  -1.601269e-02  0 
 2.080325e-03  -2.046708e-02  0 
 5.367929e-06  -2.560278e-02  0 
 6.514821e-03  -2.079614e-02  0 
 5.006764e-03  -2.580868e-02  0 
 1.060345e-02  -2.649181e-02  0 
 2.830096e-03  -3.106210e-02  0 
 9.909645e-06  -3.655538e-02  0 
 8.765065e-03  -3.155176e-02  0 
 6.366070e-03  -3.681334e-02  0 
 1.323994e-02  -3.756874e-02  0 
 3.433430e-03  -4.225998e-02  0 
 1.052103e-02  -4.276560e-02  0 
 -6.799248e-06  -3.229955e-03  0 
 8.758985e-04  -3.206978e-03  0 
 1.865828e-03  -3.160997e-03  0 
 -7.469505e-06  -1.102996e-02  0 
 2.575037e-03  -1.106208e-02  0 
 5.524586e-03  -1.123674e-02  0 
 -1.038000e-06  -2.043029e-02  0 
 4.227783e-03  -2.058252e-02  0 
 9.030470e-03  -2.113633e-02  0 
 8.616106e-06  -3.100562e-02  0 
 5.725750e-03  -3.124343e-02  0 
 1.201767e-02  -3.198918e-02  0 
 1.342988e-05  -4.220066e-02  0 
 6.919033e-03  -4.245679e-02  0 
 1.427211e-02  -4.316975e-02  0 
VECTORS displacement_ITER12 FLOAT
 0  0  0 
 8.529202e-04  -6.899696e-03  0 
 0  0  0 
 2.668430e-03  -6.894692e-03  0 
 0  0  0 
 4.888347e-03  -6.990800e-03  0 
 1.679583e-03  -1.555851e-02  0 
 5.266735e-03  -1.576369e-02  0 
 9.671226e-03  -1.639062e-02  0 
 2.469965e-03  -2.563934e-02  0 
 7.699424e-03  -2.606912e-02  0 
 3.152129e-03  -3.661878e-02  0 
 9.719577e-03  -3.712903e-02  0 
 4.324368e-04  -3.218762e-03  0 
 0  0  0 
 3.933575e-06  -6.902133e-03  0 
 1.348364e-03  -3.180649e-03  0 
 0  0  0 
 1.732125e-03  -6.894717e-03  0 
 2.460816e-03  -3.140779e-03  0 
 0  0  0 
 3.701990e-03  -6.916117e-03  0 
 1.268537e-03  -1.102407e-02  0 
 -7.827836e-07  -1.553697e-02  0 
 3.975708e-03  -1.110839e-02  0 
 3.413958e-03  -1.562803e-02  0 
 7.317113e-03  -1.145927e-02  0 
 7.317995e-03  -1.599986e-02  0 
 2.082858e-03  -2.045123e-02  0 
 2.907100e-06  -2.558868e-02  0 
 6.519109e-03  -2.078132e-02  0 
 5.010374e-03  -2.579488e-02  0 
 1.061239e-02  -2.647815e-02  0 
 2.829395e-03  -3.105237e-02  0 
 1.157427e-06  -3.655335e-02  0 
 8.772992e-03  -3.154209e-02  0 
 6.369943e-03  -3.681055e-02  0 
 1.325650e-02  -3.756540e-02  0 
 3.431624e-03  -4.226659e-02  0 
 1.052974e-02  -4.277003e-02  0 
 -2.092929e-07  -3.223901e-03  0 
 8.766152e-04  -3.203231e-03  0 
 1.865800e-03  -3.156365e-03  0 
 -5.533225e-07  -1.101611e-02  0 
 2.577571e-03  -1.105043e-02  0 
 5.524340e-03  -1.122662e-02  0 
 9.951554e-07  -2.041453e-02  0 
 4.231224e-03  -2.056721e-02  0 
 9.033791e-03  -2.112225e-02  0 
 2.337754e-06  -3.099476e-02  0 
 5.729403e-03  -3.123390e-02  0 
 1.202936e-02  -3.197956e-02  0 
 2.191493e-06  -4.220601e-02  0 
 6.922931e-03  -4.246065e-02  0 
 1.429304e-02  -4.317900e-02  0 
VECTORS displacement_ITER13 FLOAT
 0  0  0 
 8.521423e-04  -6.899260e-03  0 
 0  0  0 
 2.666466e-03  -6.894317e-03  0 
 0  0  0 
 4.888897e-03  -6.988864e-03  0 
 1.677930e-03  -1.555675e-02  0 
 5.263669e-03  -1.576300e-02  0 
 9.664713e-03  -1.639052e-02  0 
 2.467164e-03  -2.563590e-02  0 
 7.696761e-03  -2.606694e-02  0 
 3.149032e-03  -3.661719e-02  0 
 9.717346e-03  -3.712768e-02  0 
 4.318022e-04  -3.218419e-03  0 
 0  0  0 
 2.150133e-06  -6.901211e-03  0 
 1.347517e-03  -3.180312e-03  0 
 0  0  0 
 1.730725e-03  -6.894458e-03  0 
 2.459008e-03  -3.137608e-03  0 
 0  0  0 
 3.699613e-03  -6.915149e-03  0 
 1.267295e-03  -1.102345e-02  0 
 -8.253707e-07  -1.553524e-02  0 
 3.972879e-03  -1.110801e-02  0 
 3.411582e-03  -1.562657e-02  0 
 7.312770e-03  -1.145901e-02  0 
 7.313995e-03  -1.600031e-02  0 
 2.080652e-03  -2.044833e-02  0 
 -2.928825e-07  -2.558479e-02  0 
 6.516342e-03  -2.077960e-02  0 
 5.007858e-03  -2.579221e-02  0 
 1.061040e-02  -2.647635e-02  0 
 2.826428e-03  -3.104944e-02  0 
 -4.054775e-06  -3.655251e-02  0 
 8.770876e-03  -3.154030e-02  0 
 6.367897e-03  -3.680935e-02  0 
 1.325482e-02  -3.756387e-02  0 
 3.428536e-03  -4.226855e-02  0 
 1.052670e-02  -4.276844e-02  0 
 2.396173e-07  -3.223351e-03  0 
 8.759109e-04  -3.203115e-03  0 
 1.865185e-03  -3.155072e-03  0 
 -5.904371e-07  -1.101550e-02  0 
 2.575567e-03  -1.104975e-02  0 
 5.521088e-03  -1.122674e-02  0 
 -4.465867e-07  -2.041139e-02  0 
 4.228702e-03  -2.056491e-02  0 
 9.029057e-03  -2.112125e-02  0 
 -1.943964e-06  -3.099034e-02  0 
 5.726996e-03  -3.123163e-02  0 
 1.202694e-02  -3.197817e-02  0 
 -5.350888e-06  -4.220770e-02  0 
 6.920906e-03  -4.245977e-02  0 
 1.429233e-02  -4.317974e-02  0 
VECTORS displacement_ITER14 FLOAT
 0  0  0 
 8.517961e-04  -6.902095e-03  0 
 0  0  0 
 2.666438e-03  -6.896342e-03  0 
 0  0  0 
 4.891358e-03  -6.990203e-03  0 
 1.677901e-03  -1.556102e-02  0 
 5.263106e-03  -1.576682e-02  0 
 9.665279e-03  -1.639518e-02  0 
 2.468264e-03  -2.563871e-02  0 
 7.695477e-03  -2.606985e-02  0 
 3.151861e-03  -3.661595e-02  0 
 9.715291e-03  -3.712721e-02  0 
 4.315146e-04  -3.219578e-03  0 
 0  0  0 
 1.879463e-07  -6.904470e-03  0 
 1.347652e-03  -3.181165e-03  0 
 0  0  0 
 1.730614e-03  -6.896859e-03  0 
 2.459686e-03  -3.137372e-03  0 
 0  0  0 
 3.699928e-03  -6.916772e-03  0 
 1.266950e-03  -1.102753e-02  0 
 -2.183995e-07  -1.553994e-02  0 
 3.972557e-03  -1.111120e-02  0 
 3.411249e-03  -1.563052e-02  0 
 7.313414e-03  -1.146180e-02  0 
 7.313232e-03  -1.600425e-02  0 
 2.081121e-03  -2.045216e-02  0 
 2.040259e-06  -2.558751e-02  0 
 6.515549e-03  -2.078315e-02  0 
 5.007728e-03  -2.579515e-02  0 
 1.060895e-02  -2.647912e-02  0 
 2.828390e-03  -3.105061e-02  0 
 1.399488e-06  -3.655116e-02  0 
 8.769307e-03  -3.154206e-02  0 
 6.368424e-03  -3.680867e-02  0 
 1.325017e-02  -3.756330e-02  0 
 3.432309e-03  -4.226509e-02  0 
 1.052403e-02  -4.276467e-02  0 
 -7.380169e-07  -3.224810e-03  0 
 8.759234e-04  -3.204213e-03  0 
 1.865672e-03  -3.155431e-03  0 
 -9.384733e-07  -1.102021e-02  0 
 2.575282e-03  -1.105323e-02  0 
 5.521158e-03  -1.122983e-02  0 
 8.795442e-07  -2.041525e-02  0 
 4.228435e-03  -2.056866e-02  0 
 9.027247e-03  -2.112462e-02  0 
 2.012992e-06  -3.099070e-02  0 
 5.727096e-03  -3.123309e-02  0 
 1.202365e-02  -3.197999e-02  0 
 8.589520e-07  -4.220266e-02  0 
 6.921818e-03  -4.245598e-02  0 
 1.428701e-02  -4.317679e-02  0 
VECTORS displacement_ITER15 FLOAT
 0  0  0 
 8.523190e-04  -6.901206e-03  0 
 0  0  0 
 2.666436e-03  -6.895191e-03  0 
 0  0  0 
 4.891151e-03  -6.988555e-03  0 
 1.678098e-03  -1.555909e-02  0 
 5.263491e-03  -1.576436e-02  0 
 9.663701e-03  -1.639200e-02  0 
 2.467728e-03  -2.563758e-02  0 
 7.696599e-03  -2.606840e-02  0 
 3.151280e-03  -3.661715e-02  0 
 9.716980e-03  -3.712890e-02  0 
 4.317919e-04  -3.219165e-03  0 
 0  0  0 
 6.238992e-07  -6.903739e-03  0 
 1.347670e-03  -3.180646e-03  0 
 0  0  0 
 1.730871e-03  -6.895825e-03  0 
 2.458737e-03  -3.136068e-03  0 
 0  0  0 
 3.699499e-03  -6.915407e-03  0 
 1.267359e-03  -1.102612e-02  0 
 2.421360e-07  -1.553818e-02  0 
 3.972660e-03  -1.110935e-02  0 
 3.411554e-03  -1.562836e-02  0 
 7.312016e-03  -1.145960e-02  0 
 7.312941e-03  -1.600129e-02  0 
 2.080968e-03  -2.045029e-02  0 
 4.121312e-07  -2.558670e-02  0 
 6.516284e-03  -2.078061e-02  0 
 5.007967e-03  -2.579386e-02  0 
 1.061208e-02  -2.647756e-02  0 
 2.827718e-03  -3.105066e-02  0 
 -2.053195e-07  -3.655252e-02  0 
 8.770855e-03  -3.154225e-02  0 
 6.368982e-03  -3.681013e-02  0 
 1.325334e-02  -3.756522e-02  0 
 3.432095e-03  -4.226775e-02  0 
 1.052570e-02  -4.276756e-02  0 
 7.709201e-08  -3.224413e-03  0 
 8.760838e-04  -3.203777e-03  0 
 1.865565e-03  -3.154675e-03  0 
 9.506935e-08  -1.101912e-02  0 
 2.575587e-03  -1.105154e-02  0 
 5.520794e-03  -1.122795e-02  0 
 2.765778e-07  -2.041358e-02  0 
 4.228697e-03  -2.056658e-02  0 
 9.028386e-03  -2.112182e-02  0 
 1.547273e-07  -3.099058e-02  0 
 5.727422e-03  -3.123312e-02  0 
 1.202679e-02  -3.198040e-02  0 
 -4.636691e-07  -4.220419e-02  0 
 6.922596e-03  -4.245848e-02  0 
 1.429056e-02  -4.318075e-02  0 
VECTORS displacement_ITER16 FLOAT
 0  0  0 
 8.520603e-04  -6.901305e-03  0 
 0  0  0 
 2.666313e-03  -6.895430e-03  0 
 0  0  0 
 4.891487e-03  -6.989208e-03  0 
 1.677910e-03  -1.555922e-02  0 
 5.263496e-03  -1.576473e-02  0 
 9.664433e-03  -1.639357e-02  0 
 2.467618e-03  -2.563810e-02  0 
 7.696445e-03  -2.606867e-02  0 
 3.151252e-03  -3.661730e-02  0 
 9.716459e-03  -3.712906e-02  0 
 4.316203e-04  -3.219182e-03  0 
 0  0  0 
 -2.443505e-08  -6.903858e-03  0 
 1.347582e-03  -3.180746e-03  0 
 0  0  0 
 1.730695e-03  -6.895970e-03  0 
 2.458613e-03  -3.136190e-03  0 
 0  0  0 
 3.699427e-03  -6.915767e-03  0 
 1.267044e-03  -1.102625e-02  0 
 -7.901385e-08  -1.553797e-02  0 
 3.972561e-03  -1.110973e-02  0 
 3.411483e-03  -1.562863e-02  0 
 7.311975e-03  -1.146027e-02  0 
 7.312822e-03  -1.600188e-02  0 
 2.080878e-03  -2.045060e-02  0 
 6.460481e-08  -2.558748e-02  0 
 6.516314e-03  -2.078084e-02  0 
 5.007851e-03  -2.579427e-02  0 
 1.061241e-02  -2.647770e-02  0 
 2.827611e-03  -3.105118e-02  0 
 2.637940e-07  -3.655275e-02  0 
 8.770564e-03  -3.154262e-02  0 
 6.368718e-03  -3.681031e-02  0 
 1.325251e-02  -3.756530e-02  0 
 3.432266e-03  -4.226748e-02  0 
 1.052502e-02  -4.276729e-02  0 
 -8.845795e-08  -3.224511e-03  0 
 8.759718e-04  -3.203835e-03  0 
 1.865519e-03  -3.154799e-03  0 
 -2.152960e-07  -1.101916e-02  0 
 2.575434e-03  -1.105176e-02  0 
 5.520781e-03  -1.122853e-02  0 
 -1.898618e-08  -2.041384e-02  0 
 4.228656e-03  -2.056691e-02  0 
 9.028241e-03  -2.112185e-02  0 
 1.593987e-07  -3.099113e-02  0 
 5.727195e-03  -3.123352e-02  0 
 1.202645e-02  -3.198070e-02  0 
 4.023001e-07  -4.220316e-02  0 
 6.922293e-03  -4.245816e-02  0 
 1.428968e-02  -4.318081e-02  0 
VECTORS displacement_ITER17 FLOAT
 0  0  0 
 8.521279e-04  -6.901291e-03  0 
 0  0  0 
 2.666276e-03  -6.895424e-03  0 
 0  0  0 
 4.891310e-03  -6.989368e-03  0 
 1.677941e-03  -1.555905e-02  0 
 5.263480e-03  -1.576454e-02  0 