# vtk DataFile Version 3.1
this is an vtk file created by FEMAC
ASCII
DATASET UNSTRUCTURED_GRID
POINTS 56 FLOAT
0.000000 0.000000 0.000000
1.000000 0.000000 0.000000
2.000000 0.000000 0.000000
0.000000 1.000000 0.000000
1.000000 1.000000 0.000000
0.000000 2.000000 0.000000
1.000000 2.000000 0.000000
0.000000 3.000000 0.000000
1.000000 3.000000 0.000000
0.000000 4.000000 0.000000
1.000000 4.000000 0.000000
2.000000 1.000000 0.000000
2.000000 2.000000 0.000000
2.000000 3.000000 0.000000
2.000000 4.000000 0.000000
0.500000 0.000000 0.000000
1.500000 0.000000 0.000000
2.500000 0.000000 0.000000
0.500000 1.000000 0.000000
0.000000 0.500000 0.000000
1.000000 0.500000 0.000000
0.500000 2.000000 0.000000
0.000000 1.500000 0.000000
1.000000 1.500000 0.000000
0.500000 3.000000 0.000000
0.000000 2.500000 0.000000
1.000000 2.500000 0.000000
0.500000 4.000000 0.000000
0.000000 3.500000 0.000000
1.000000 3.500000 0.000000
0.000000 4.500000 0.000000
1.000000 4.500000 0.000000
1.500000 1.000000 0.000000
2.000000 0.500000 0.000000
1.500000 2.000000 0.000000
2.000000 1.500000 0.000000
1.500000 3.000000 0.000000
2.000000 2.500000 0.000000
1.500000 4.000000 0.000000
2.000000 3.500000 0.000000
2.000000 4.500000 0.000000
2.500000 1.000000 0.000000
2.500000 2.000000 0.000000
0.500000 0.500000 0.000000
0.500000 1.500000 0.000000
0.500000 2.500000 0.000000
0.500000 3.500000 0.000000
0.500000 4.500000 0.000000
1.500000 0.500000 0.000000
1.500000 1.500000 0.000000
1.500000 2.500000 0.000000
1.500000 3.500000 0.000000
1.500000 4.500000 0.000000
2.500000 0.500000 0.000000
2.500000 1.500000 0.000000
2.500000 2.500000 0.000000
CELLS 41 205 
4 0 15 43 19
4 19 43 18  3
4 15  1 20 43
4 43 20  4 18
4 3 18 44 22
4 22 44 21  5
4 18  4 23 44
4 44 23  6 21
4 5 21 45 25
4 25 45 24  7
4 21  6 26 45
4 45 26  8 24
4 7 24 46 28
4 28 46 27  9
4 24  8 29 46
4 46 29 10 27
4 9 27 47 30
4 27 10 31 47
4 1 16 48 20
4 20 48 32  4
4 16  2 33 48
4 48 33 11 32
4 4 32 49 23
4 23 49 34  6
4 32 11 35 49
4 49 35 12 34
4 6 34 50 26
4 26 50 36  8
4 34 12 37 50
4 50 37 13 36
4 8 36 51 29
4 29 51 38 10
4 36 13 39 51
4 51 39 14 38
4 10 38 52 31
4 38 14 40 52
4 2 17 53 33
4 33 53 41 11
4 11 41 54 35
4 35 54 42 12
4 12 42 55 37
CELL_TYPES 41
9 9 9 9 9 9 9 9 9 9 9 9 9 9 9 9 9 9 9 9 9 9 9 9 9 9 9 9 9 9 9 9 9 9 9 9 9 9 9 9 9 
POINT_DATA 56
VECTORS displacement_ITER1 FLOAT
 0  0  0 
 -1.835601e-02  -1.184540e-02  0 
 -3.095784e-02  -2.648740e-02  0 
 0  0  0 
 -8.474234e-03  -8.859532e-03  0 
 0  0  0 
 -3.204592e-03  -8.222855e-03  0 
 0  0  0 
 -2.323906e-04  -8.358332e-03  0 
 0  0  0 
 3.607411e-03  -8.847786e-03  0 
 -1.559655e-02  -2.342183e-02  0 
 -6.633112e-03  -2.061732e-02  0 
 -1.055100e-03  -1.757812e-02  0 
 4.451940e-03  -2.004636e-02  0 
 -1.068990e-02  -5.943331e-03  0 
 -2.489751e-02  -1.849250e-02  0 
 -3.648255e-02  -3.763747e-02  0 
 -4.250378e-03  -3.480028e-03  0 
 0  0  0 
 -1.272816e-02  -1.000938e-02  0 
 -1.684084e-03  -3.545330e-03  0 
 0  0  0 
 -5.444907e-03  -8.399309e-03  0 
 -1.207505e-04  -3.735389e-03  0 
 0  0  0 
 -1.556027e-03  -8.244457e-03  0 
 2.004698e-03  -3.698600e-03  0 
 0  0  0 
 1.218476e-03  -8.481066e-03  0 
 0  0  0 
 7.498023e-03  -9.559757e-03  0 
 -1.237719e-02  -1.566902e-02  0 
 -2.229874e-02  -2.495708e-02  0 
 -4.741386e-03  -1.389991e-02  0 
 -1.070063e-02  -2.190402e-02  0 
 -3.321493e-04  -1.345904e-02  0 
 -2.425310e-03  -1.943891e-02  0 
 4.258218e-03  -1.427634e-02  0 
 1.178006e-03  -1.824172e-02  0 
 9.285987e-03  -2.171091e-02  0 
 -1.859552e-02  -3.154917e-02  0 
 -8.608019e-03  -2.784960e-02  0 
 -6.336622e-03  -3.938710e-03  0 
 -2.779656e-03  -3.441432e-03  0 
 -8.482077e-04  -3.671886e-03  0 
 7.116581e-04  -3.697531e-03  0 
 5.144110e-03  -4.490988e-03  0 
 -1.805324e-02  -1.686032e-02  0 
 -8.093084e-03  -1.471840e-02  0 
 -2.100082e-03  -1.346868e-02  0 
 1.317331e-03  -1.359440e-02  0 
 8.603127e-03  -1.506491e-02  0 
 -2.576096e-02  -3.479973e-02  0 
 -1.317343e-02  -2.902271e-02  0 
 -2.015308e-03  -2.900757e-02  0 
VECTORS displacement_ITER2 FLOAT
 0  0  0 
 -1.866782e-02  -1.207780e-02  0 
 -3.137576e-02  -2.689015e-02  0 
 0  0  0 
 -8.656307e-03  -9.049940e-03  0 
 0  0  0 
 -3.349620e-03  -8.416444e-03  0 
 0  0  0 
 -3.629855e-04  -8.580598e-03  0 
 0  0  0 
 3.479282e-03  -9.103972e-03  0 
 -1.593365e-02  -2.380245e-02  0 
 -6.895379e-03  -2.101970e-02  0 
 -1.276665e-03  -1.802056e-02  0 
 4.211284e-03  -2.054584e-02  0 
 -1.088665e-02  -6.066403e-03  0 
 -2.528079e-02  -1.882127e-02  0 
 -3.689742e-02  -3.805003e-02  0 
 -4.343292e-03  -3.567474e-03  0 
 0  0  0 
 -1.295670e-02  -1.021627e-02  0 
 -1.759642e-03  -3.639829e-03  0 
 0  0  0 
 -5.604226e-03  -8.587090e-03  0 
 -1.910027e-04  -3.845562e-03  0 
 0  0  0 
 -1.691257e-03  -8.450148e-03  0 
 1.942320e-03  -3.818250e-03  0 
 0  0  0 
 1.088037e-03  -8.721127e-03  0 
 0  0  0 
 7.388826e-03  -9.820022e-03  0 
 -1.264257e-02  -1.596185e-02  0 
 -2.267616e-02  -2.534758e-02  0 
 -4.950053e-03  -1.419697e-02  0 
 -1.099579e-02  -2.228921e-02  0 
 -5.110688e-04  -1.379332e-02  0 
 -2.657942e-03  -1.987092e-02  0 
 4.067367e-03  -1.465960e-02  0 
 9.518711e-04  -1.870052e-02  0 
 9.010911e-03  -2.223574e-02  0 
 -1.898546e-02  -3.200822e-02  0 
 -8.910929e-03  -2.834992e-02  0 
 -6.454456e-03  -4.029668e-03  0 
 -2.861262e-03  -3.531175e-03  0 
 -9.202533e-04  -3.773504e-03  0 
 6.428378e-04  -3.815123e-03  0 
 5.116029e-03  -4.605549e-03  0 
 -1.836554e-02  -1.717047e-02  0 
 -8.325712e-03  -1.500659e-02  0 
 -2.289395e-03  -1.378157e-02  0 
 1.134742e-03  -1.395261e-02  0 
 8.400035e-03  -1.546813e-02  0 
 -2.619264e-02  -3.523476e-02  0 
 -1.351594e-02  -2.950253e-02  0 
 -2.297165e-03  -2.953595e-02  0 
VECTORS displacement_ITER3 FLOAT
 0  0  0 
 -1.735938e-02  -1.130295e-02  0 
 -2.843015e-02  -2.343908e-02  0 
 0  0  0 
 -8.830492e-03  -8.475668e-03  0 
 0  0  0 
 -4.560741e-03  -7.897029e-03  0 
 0  0  0 
 -2.057895e-03  -8.091495e-03  0 
 0  0  0 
 6.568696e-04  -8.577609e-03  0 
 -1.648100e-02  -2.082078e-02  0 
 -9.078935e-03  -1.898517e-02  0 
 -4.147271e-03  -1.720991e-02  0 
 -2.498082e-04  -1.864896e-02  0 
 -1.026250e-02  -5.819334e-03  0 
 -2.320420e-02  -1.705905e-02  0 
 -3.322285e-02  -3.150183e-02  0 
 -4.420452e-03  -3.496212e-03  0 
 0  0  0 
 -1.240709e-02  -9.590658e-03  0 
 -2.342205e-03  -3.507424e-03  0 
 0  0  0 
 -6.382913e-03  -8.040864e-03  0 
 -1.069965e-03  -3.717376e-03  0 
 0  0  0 
 -3.170679e-03  -7.939469e-03  0 
 4.750411e-04  -3.745678e-03  0 
 0  0  0 
 -9.582653e-04  -8.272620e-03  0 
 0  0  0 
 3.246199e-03  -8.930126e-03  0 
 -1.296774e-02  -1.440814e-02  0 
 -2.181273e-02  -2.208562e-02  0 
 -6.771913e-03  -1.308096e-02  0 
 -1.240242e-02  -1.973052e-02  0 
 -2.947679e-03  -1.287081e-02  0 
 -5.795148e-03  -1.845072e-02  0 
 2.776125e-04  -1.353116e-02  0 
 -2.431647e-03  -1.745248e-02  0 
 2.497385e-03  -1.962859e-02  0 
 -1.961570e-02  -2.739977e-02  0 
 -1.120769e-02  -2.507154e-02  0 
 -6.197547e-03  -3.926894e-03  0 
 -3.228150e-03  -3.437765e-03  0 
 -1.655653e-03  -3.620939e-03  0 
 -4.469371e-04  -3.747784e-03  0 
 2.758775e-03  -4.120931e-03  0 
 -1.758046e-02  -1.555686e-02  0 
 -9.482730e-03  -1.361592e-02  0 
 -4.549152e-03  -1.281898e-02  0 
 -1.635000e-03  -1.304641e-02  0 
 2.877295e-03  -1.401679e-02  0 
 -2.533611e-02  -2.948739e-02  0 
 -1.504396e-02  -2.581247e-02  0 
 -6.789729e-03  -2.581355e-02  0 
VECTORS displacement_ITER4 FLOAT
 0  0  0 
 -1.467971e-02  -9.792533e-03  0 
 -2.311817e-02  -1.879741e-02  0 
 0  0  0 
 -8.032357e-03  -7.394426e-03  0 
 0  0  0 
 -4.966242e-03  -6.825270e-03  0 
 0  0  0 
 -2.977440e-03  -6.837980e-03  0 
 0  0  0 
 -1.363609e-03  -7.121520e-03  0 
 -1.516772e-02  -1.684333e-02  0 
 -9.850331e-03  -1.576536e-02  0 
 -5.677475e-03  -1.505822e-02  0 
 -2.945404e-03  -1.511263e-02  0 
 -8.831785e-03  -5.147921e-03  0 
 -1.926168e-02  -1.431364e-02  0 
 -2.659413e-02  -2.356620e-02  0 
 -4.011797e-03  -3.188310e-03  0 
 0  0  0 
 -1.072652e-02  -8.371573e-03  0 
 -2.497935e-03  -3.102407e-03  0 
 0  0  0 
 -6.286240e-03  -6.993353e-03  0 
 -1.530688e-03  -3.209334e-03  0 
 0  0  0 
 -3.881075e-03  -6.779488e-03  0 
 -6.281288e-04  -3.267130e-03  0 
 0  0  0 
 -2.192555e-03  -6.963589e-03  0 
 0  0  0 
 -2.835209e-04  -7.125862e-03  0 
 -1.185236e-02  -1.208650e-02  0 
 -1.881599e-02  -1.776860e-02  0 
 -7.456334e-03  -1.111422e-02  0 
 -1.219862e-02  -1.613133e-02  0 
 -4.331679e-03  -1.081590e-02  0 
 -7.771440e-03  -1.560846e-02  0 
 -2.212394e-03  -1.106990e-02  0 
 -4.237474e-03  -1.477900e-02  0 
 -1.921434e-03  -1.537056e-02  0 
 -1.801418e-02  -2.156204e-02  0 
 -1.191185e-02  -2.032653e-02  0 
 -5.380675e-03  -3.551526e-03  0 
 -3.146757e-03  -3.103482e-03  0 
 -1.973310e-03  -3.144187e-03  0 
 -1.120058e-03  -3.264896e-03  0 
 4.395177e-04  -3.260002e-03  0 
 -1.515179e-02  -1.309467e-02  0 
 -9.365637e-03  -1.145114e-02  0 
 -5.775640e-03  -1.087961e-02  0 
 -3.209435e-03  -1.090617e-02  0 
 -1.242725e-03  -1.120345e-02  0 
 -2.185062e-02  -2.248304e-02  0 
 -1.470461e-02  -2.083467e-02  0 
 -9.965334e-03  -2.023121e-02  0 
VECTORS displacement_ITER5 FLOAT
 0  0  0 
 -1.532737e-02  -1.024256e-02  0 
 -2.404159e-02  -1.992837e-02  0 
 0  0  0 
 -8.233875e-03  -7.707745e-03  0 
 0  0  0 
 -4.903189e-03  -7.023786e-03  0 
 0  0  0 
 -2.736362e-03  -6.939338e-03  0 
 0  0  0 
 -1.082333e-03  -7.134318e-03  0 
 -1.564634e-02  -1.783496e-02  0 
 -9.817268e-03  -1.646046e-02  0 
 -5.289339e-03  -1.551500e-02  0 
 -2.185304e-03  -1.533101e-02  0 
 -9.200278e-03  -5.347105e-03  0 
 -2.011359e-02  -1.508679e-02  0 
 -2.733611e-02  -2.487043e-02  0 
 -4.104485e-03  -3.287615e-03  0 
 0  0  0 
 -1.111996e-02  -8.751705e-03  0 
 -2.457555e-03  -3.164607e-03  0 
 0  0  0 
 -6.340578e-03  -7.244262e-03  0 
 -1.403114e-03  -3.239648e-03  0 
 0  0  0 
 -3.721894e-03  -6.930228e-03  0 
 -5.216977e-04  -3.315986e-03  0 
 0  0  0 
 -1.894230e-03  -7.019317e-03  0 
 0  0  0 
 -1.740276e-04  -7.152533e-03  0 
 -1.218431e-02  -1.270877e-02  0 
 -1.950197e-02  -1.885626e-02  0 
 -7.387205e-03  -1.151404e-02  0 
 -1.243704e-02  -1.700197e-02  0 
 -4.010587e-03  -1.104529e-02  0 
 -7.533405e-03  -1.608020e-02  0 
 -1.687476e-03  -1.114845e-02  0 
 -3.621031e-03  -1.517146e-02  0 
 -9.765822e-04  -1.555241e-02  0 
 -1.862145e-02  -2.297742e-02  0 
 -1.198191e-02  -2.152548e-02  0 
 -5.574090e-03  -3.677162e-03  0 
 -3.164868e-03  -3.183916e-03  0 
 -1.884267e-03  -3.188589e-03  0 
 -9.741984e-04  -3.293145e-03  0 
 2.677490e-04  -3.320554e-03  0 
 -1.570890e-02  -1.380867e-02  0 
 -9.490027e-03  -1.196008e-02  0 
 -5.570512e-03  -1.119846e-02  0 
 -2.759438e-03  -1.105348e-02  0 
 -6.783643e-04  -1.126492e-02  0 
 -2.264290e-02  -2.389426e-02  0 
 -1.507208e-02  -2.217258e-02  0 
 -9.559354e-03  -2.121260e-02  0 
VECTORS displacement_ITER6 FLOAT
 0  0  0 
 -1.556337e-02  -1.031463e-02  0 
 -2.455304e-02  -2.018771e-02  0 
 0  0  0 
 -8.330489e-03  -7.714342e-03  0 
 0  0  0 
 -4.862528e-03  -7.033952e-03  0 
 0  0  0 
 -2.581135e-03  -6.983160e-03  0 
 0  0  0 
 -7.858379e-04  -7.129714e-03  0 
 -1.589321e-02  -1.802034e-02  0 
 -9.652284e-03  -1.662429e-02  0 
 -4.993820e-03  -1.582151e-02  0 
 -1.610871e-03  -1.567283e-02  0 
 -9.310970e-03  -5.376504e-03  0 
 -2.048858e-02  -1.523762e-02  0 
 -2.796498e-02  -2.518886e-02  0 
 -4.147913e-03  -3.271778e-03  0 
 0  0  0 
 -1.129003e-02  -8.786911e-03  0 
 -2.443343e-03  -3.150925e-03  0 
 0  0  0 
 -6.363242e-03  -7.239653e-03  0 
 -1.322731e-03  -3.231604e-03  0 
 0  0  0 
 -3.627351e-03  -6.965221e-03  0 
 -3.851856e-04  -3.310781e-03  0 
 0  0  0 
 -1.665727e-03  -7.047435e-03  0 
 0  0  0 
 1.444104e-04  -7.155231e-03  0 
 -1.234930e-02  -1.278080e-02  0 
 -1.990549e-02  -1.907103e-02  0 
 -7.289945e-03  -1.157450e-02  0 
 -1.248758e-02  -1.717941e-02  0 
 -3.786922e-03  -1.120513e-02  0 
 -7.191999e-03  -1.625755e-02  0 
 -1.226289e-03  -1.126215e-02  0 
 -3.201522e-03  -1.558643e-02  0 
 -1.547213e-04  -1.580546e-02  0 
 -1.894275e-02  -2.334964e-02  0 
 -1.178698e-02  -2.192150e-02  0 
 -5.650023e-03  -3.676287e-03  0 
 -3.178307e-03  -3.164957e-03  0 
 -1.839854e-03  -3.180607e-03  0 
 -8.559491e-04  -3.281587e-03  0 
 2.966823e-04  -3.338036e-03  0 
 -1.598575e-02  -1.391759e-02  0 
 -9.522464e-03  -1.201103e-02  0 
 -5.398267e-03  -1.131685e-02  0 
 -2.439293e-03  -1.120260e-02  0 
 -4.494244e-05  -1.133008e-02  0 
 -2.319262e-02  -2.423268e-02  0 
 -1.513147e-02  -2.256539e-02  0 
 -8.978615e-03  -2.158788e-02  0 
VECTORS displacement_ITER7 FLOAT
 0  0  0 
 -1.554996e-02  -1.028577e-02  0 
 -2.456571e-02  -2.016469e-02  0 
 0  0  0 
 -8.325625e-03  -7.681309e-03  0 
 0  0  0 
 -4.882552e-03  -6.994681e-03  0 
 0  0  0 
 -2.621383e-03  -6.895006e-03  0 
 0  0  0 
 -8.222663e-04  -6.922611e-03  0 
 -1.589758e-02  -1.796479e-02  0 
 -9.683510e-03  -1.648595e-02  0 
 -5.141891e-03  -1.574376e-02  0 
 -1.637701e-03  -1.551094e-02  0 
 -9.296669e-03  -5.361237e-03  0 
 -2.048677e-02  -1.520362e-02  0 
 -2.796700e-02  -2.517580e-02  0 
 -4.145598e-03  -3.257049e-03  0 
 0  0  0 
 -1.128268e-02  -8.756307e-03  0 
 -2.450995e-03  -3.132795e-03  0 
 0  0  0 
 -6.365740e-03  -7.203665e-03  0 
 -1.329832e-03  -3.181638e-03  0 
 0  0  0 
 -3.665297e-03  -6.911531e-03  0 
 -4.116559e-04  -3.225971e-03  0 
 0  0  0 
 -1.692780e-03  -6.907290e-03  0 
 0  0  0 
 2.111961e-05  -6.909144e-03  0 
 -1.234530e-02  -1.273222e-02  0 
 -1.990917e-02  -1.903698e-02  0 
 -7.316241e-03  -1.149788e-02  0 
 -1.250250e-02  -1.708996e-02  0 
 -3.887240e-03  -1.110105e-02  0 
 -7.286141e-03  -1.608934e-02  0 
 -1.246140e-03  -1.102669e-02  0 
 -3.316344e-03  -1.552749e-02  0 
 -1.138443e-05  -1.555544e-02  0 
 -1.896383e-02  -2.329781e-02  0 
 -1.185863e-02  -2.174358e-02  0 
 -5.644896e-03  -3.661958e-03  0 
 -3.180306e-03  -3.150265e-03  0 
 -1.850118e-03  -3.150733e-03  0 
 -8.595610e-04  -3.210249e-03  0 
 8.953231e-05  -3.226494e-03  0 
 -1.598143e-02  -1.387859e-02  0 
 -9.525007e-03  -1.194666e-02  0 
 -5.472987e-03  -1.123697e-02  0 
 -2.508773e-03  -1.104616e-02  0 
 -8.092716e-06  -1.102741e-02  0 
 -2.321358e-02  -2.422177e-02  0 
 -1.517737e-02  -2.245550e-02  0 
 -9.077233e-03  -2.126630e-02  0 
VECTORS displacement_ITER8 FLOAT
 0  0  0 
 -1.544119e-02  -1.021288e-02  0 
 -2.439910e-02  -1.998864e-02  0 
 0  0  0 
 -8.286344e-03  -7.629213e-03  0 
 0  0  0 
 -4.894680e-03  -6.961541e-03  0 
 0  0  0 
 -2.665641e-03  -6.862142e-03  0 
 0  0  0 
 -8.631521e-04  -6.862508e-03  0 
 -1.581528e-02  -1.780526e-02  0 
 -9.678732e-03  -1.634436e-02  0 
 -5.242911e-03  -1.570248e-02  0 
 -1.698726e-03  -1.548561e-02  0 
 -9.234452e-03  -5.327742e-03  0 
 -2.034209e-02  -1.508203e-02  0 
 -2.779837e-02  -2.494303e-02  0 
 -4.127444e-03  -3.240618e-03  0 
 0  0  0 
 -1.121315e-02  -8.694746e-03  0 
 -2.458120e-03  -3.122599e-03  0 
 0  0  0 
 -6.352032e-03  -7.160625e-03  0 
 -1.347937e-03  -3.164860e-03  0 
 0  0  0 
 -3.699467e-03  -6.883264e-03  0 
 -4.350347e-04  -3.199333e-03  0 
 0  0  0 
 -1.734444e-03  -6.862848e-03  0 
 0  0  0 
 -3.503846e-05  -6.843356e-03  0 
 -1.228424e-02  -1.263031e-02  0 
 -1.978953e-02  -1.886633e-02  0 
 -7.324025e-03  -1.142256e-02  0 
 -1.245896e-02  -1.694189e-02  0 
 -3.965369e-03  -1.105692e-02  0 
 -7.339153e-03  -1.596749e-02  0 
 -1.292145e-03  -1.096653e-02  0 
 -3.410637e-03  -1.552871e-02  0 
 -2.283824e-05  -1.549520e-02  0 
 -1.885991e-02  -2.307735e-02  0 
 -1.185418e-02  -2.153404e-02  0 
 -5.610662e-03  -3.640833e-03  0 
 -3.175733e-03  -3.137658e-03  0 
 -1.865214e-03  -3.139206e-03  0 
 -8.776050e-04  -3.187342e-03  0 
 1.086058e-05  -3.192269e-03  0 
 -1.588307e-02  -1.376626e-02  0 
 -9.496537e-03  -1.185613e-02  0 
 -5.524819e-03  -1.118231e-02  0 
 -2.577729e-03  -1.099969e-02  0 
 -3.263847e-05  -1.095230e-02  0 
 -2.307970e-02  -2.399716e-02  0 
 -1.511961e-02  -2.224042e-02  0 
 -9.122304e-03  -2.102086e-02  0 
VECTORS displacement_ITER9 FLOAT
 0  0  0 
 -1.546474e-02  -1.022889e-02  0 
 -2.445066e-02  -2.003900e-02  0 
 0  0  0 
 -8.291371e-03  -7.644538e-03  0 
 0  0  0 
 -4.895490e-03  -6.986088e-03  0 
 0  0  0 
 -2.672474e-03  -6.893270e-03  0 
 0  0  0 
 -8.538675e-04  -6.895016e-03  0 
 -1.581368e-02  -1.785104e-02  0 
 -9.667500e-03  -1.638045e-02  0 
 -5.267471e-03  -1.576087e-02  0 
 -1.683460e-03  -1.558024e-02  0 
 -9.247753e-03  -5.335225e-03  0 
 -2.037696e-02  -1.511008e-02  0 
 -2.787132e-02  -2.504087e-02  0 
 -4.131159e-03  -3.246962e-03  0 
 0  0  0 
 -1.122675e-02  -8.709030e-03  0 
 -2.460407e-03  -3.135213e-03  0 
 0  0  0 
 -6.352081e-03  -7.179494e-03  0 
 -1.350411e-03  -3.179227e-03  0 
 0  0  0 
 -3.704594e-03  -6.912906e-03  0 
 -4.316009e-04  -3.214103e-03  0 
 0  0  0 
 -1.736461e-03  -6.893318e-03  0 
 0  0  0 
 -6.493566e-06  -6.888537e-03  0 
 -1.228810e-02  -1.265871e-02  0 
 -1.980883e-02  -1.891300e-02  0 
 -7.317958e-03  -1.145430e-02  0 
 -1.245183e-02  -1.698574e-02  0 
 -3.979887e-03  -1.110601e-02  0 
 -7.328969e-03  -1.599921e-02  0 
 -1.275378e-03  -1.102607e-02  0 
 -3.423606e-03  -1.562119e-02  0 
 3.098188e-05  -1.558989e-02  0 
 -1.885158e-02  -2.314098e-02  0 
 -1.185005e-02  -2.158596e-02  0 
 -5.617761e-03  -3.646190e-03  0 
 -3.177842e-03  -3.146911e-03  0 
 -1.868155e-03  -3.153732e-03  0 
 -8.777800e-04  -3.200882e-03  0 
 1.044557e-05  -3.214151e-03  0 
 -1.590102e-02  -1.379275e-02  0 
 -9.492095e-03  -1.188593e-02  0 
 -5.528705e-03  -1.122343e-02  0 
 -2.585160e-03  -1.105216e-02  0 
 1.344156e-05  -1.102123e-02  0 
 -2.309967e-02  -2.408278e-02  0 
 -1.510901e-02  -2.229014e-02  0 
 -9.073156e-03  -2.107531e-02  0 
VECTORS displacement_ITER10 FLOAT
 0  0  0 
 -1.547931e-02  -1.023665e-02  0 
 -2.448356e-02  -2.006883e-02  0 
 0  0  0 
 -8.293178e-03  -7.649876e-03  0 
 0  0  0 
 -4.888130e-03  -6.991098e-03  0 
 0  0  0 
 -2.664206e-03  -6.898321e-03  0 
 0  0  0 
 -8.489031e-04  -6.900857e-03  0 
 -1.581442e-02  -1.787783e-02  0 
 -9.654286e-03  -1.639823e-02  0 
 -5.259995e-03  -1.576487e-02  0 
 -1.674070e-03  -1.557282e-02  0 
 -9.255081e-03  -5.338247e-03  0 
 -2.039955e-02  -1.512575e-02  0 
 -2.791602e-02  -2.509820e-02  0 
 -4.132030e-03  -3.247767e-03  0 
 0  0  0 
 -1.123496e-02  -8.715169e-03  0 
 -2.457212e-03  -3.136950e-03  0 
 0  0  0 
 -6.348196e-03  -7.184324e-03  0 
 -1.346343e-03  -3.181992e-03  0 
 0  0  0 
 -3.696235e-03  -6.918378e-03  0 
 -4.297405e-04  -3.218780e-03  0 
 0  0  0 
 -1.729208e-03  -6.897812e-03  0 
 0  0  0 
 -4.776982e-07  -6.899910e-03  0 
 -1.229054e-02  -1.267302e-02  0 
 -1.982246e-02  -1.894050e-02  0 
 -7.305634e-03  -1.146329e-02  0 
 -1.244727e-02  -1.701099e-02  0 
 -3.969377e-03  -1.111339e-02  0 
 -7.304187e-03  -1.600638e-02  0 
 -1.265599e-03  -1.102881e-02  0 
 -3.413409e-03  -1.562919e-02  0 
 2.480497e-05  -1.556647e-02  0 
 -1.884915e-02  -2.318016e-02  0 
 -1.184295e-02  -2.162660e-02  0 
 -5.621592e-03  -3.647512e-03  0 
 -3.176232e-03  -3.147964e-03  0 
 -1.864181e-03  -3.156072e-03  0 
 -8.744777e-04  -3.204295e-03  0 
 7.340234e-06  -3.222316e-03  0 
 -1.591286e-02  -1.380704e-02  0 
 -9.486687e-03  -1.189849e-02  0 
 -5.514962e-03  -1.123202e-02  0 
 -2.575522e-03  -1.105519e-02  0 
 1.483712e-05  -1.102398e-02  0 
 -2.311449e-02  -2.413374e-02  0 
 -1.510313e-02  -2.232387e-02  0 
 -9.016228e-03  -2.112747e-02  0 
VECTORS displacement_ITER11 FLOAT
 0  0  0 
 -1.547635e-02  -1.023531e-02  0 
 -2.447681e-02  -2.006289e-02  0 
 0  0  0 
 -8.292959e-03  -7.648873e-03  0 
 0  0  0 
 -4.889148e-03  -6.988386e-03  0 
 0  0  0 
 -2.665235e-03  -6.893048e-03  0 
 0  0  0 
 -8.542634e-04  -6.895148e-03  0 
 -1.581394e-02  -1.787355e-02  0 
 -9.659914e-03  -1.639307e-02  0 
 -5.265280e-03  -1.575617e-02  0 
 -1.681774e-03  -1.554745e-02  0 
 -9.253721e-03  -5.337785e-03  0 
 -2.039460e-02  -1.512251e-02  0 
 -2.790811e-02  -2.508958e-02  0 
 -4.131747e-03  -3.247433e-03  0 
 0  0  0 
 -1.123344e-02  -8.714229e-03  0 
 -2.457381e-03  -3.135640e-03  0 
 0  0  0 
 -6.348775e-03  -7.182647e-03  0 
 -1.346788e-03  -3.179787e-03  0 
 0  0  0 
 -3.697366e-03  -6.914404e-03  0 
 -4.328173e-04  -3.217281e-03  0 
 0  0  0 
 -1.731058e-03  -6.891891e-03  0 
 0  0  0 
 -9.249375e-06  -6.895182e-03  0 
 -1.229056e-02  -1.267097e-02  0 
 -1.981836e-02  -1.893508e-02  0 
 -7.308176e-03  -1.145900e-02  0 
 -1.245144e-02  -1.700762e-02  0 
 -3.972038e-03  -1.110540e-02  0 
 -7.308607e-03  -1.599802e-02  0 
 -1.271040e-03  -1.101584e-02  0 
 -3.416615e-03  -1.561739e-02  0 
 -1.279466e-06  -1.552671e-02  0 
 -1.884699e-02  -2.317078e-02  0 
 -1.185405e-02  -2.162508e-02  0 
 -5.620844e-03  -3.647315e-03  0 
 -3.176248e-03  -3.147223e-03  0 
 -1.864407e-03  -3.154169e-03  0 
 -8.757891e-04  -3.202343e-03  0 
 -1.424039e-06  -3.221156e-03  0 
 -1.591034e-02  -1.380447e-02  0 
 -9.488580e-03  -1.189588e-02  0 
 -5.517841e-03  -1.122617e-02  0 
 -2.577598e-03  -1.104430e-02  0 
 -2.983152e-06  -1.100808e-02  0 
 -2.310873e-02  -2.412545e-02  0 
 -1.510815e-02  -2.231634e-02  0 
 -9.017284e-03  -2.112720e-02  0 
VECTORS displacement_ITER12 FLOAT
 0  0  0 
 -1.547439e-02  -1.023534e-02  0 
 -2.447065e-02  -2.005843e-02  0 
 0  0  0 
 -8.293353e-03  -7.649655e-03  0 
 0  0  0 
 -4.891369e-03  -6.989996e-03  0 
 0  0  0 
 -2.666672e-03  -6.896080e-03  0 
 0  0  0 
 -8.517632e-04  -6.901748e-03  0 
 -1.581410e-02  -1.787086e-02  0 
 -9.663490e-03  -1.639395e-02  0 
 -5.265688e-03  -1.576569e-02  0 
 -1.676843e-03  -1.556136e-02  0 
 -9.253198e-03  -5.338112e-03  0 
 -2.039061e-02  -1.512105e-02  0 
 -2.790047e-02  -2.508042e-02  0 
 -4.132007e-03  -3.248232e-03  0 
 0  0  0 
 -1.123256e-02  -8.714690e-03  0 
 -2.458503e-03  -3.136604e-03  0 
 0  0  0 
 -6.350290e-03  -7.183796e-03  0 
 -1.347658e-03  -3.181064e-03  0 
 0  0  0 
 -3.699611e-03  -6.916576e-03  0 
 -4.317418e-04  -3.219688e-03  0 
 0  0  0 
 -1.730890e-03  -6.896372e-03  0 
 0  0  0 
 -1.765603e-06  -6.904443e-03  0 
 -1.229098e-02  -1.267070e-02  0 
 -1.981568e-02  -1.893126e-02  0 
 -7.311272e-03  -1.146076e-02  0 
 -1.245385e-02  -1.700669e-02  0 
 -3.973610e-03  -1.111074e-02  0 
 -7.312573e-03  -1.600184e-02  0 
 -1.266769e-03  -1.102674e-02  0 
 -3.413347e-03  -1.563048e-02  0 
 3.522147e-06  -1.554048e-02  0 
 -1.884634e-02  -2.316410e-02  0 
 -1.185867e-02  -2.162479e-02  0 
 -5.620549e-03  -3.647918e-03  0 
 -3.177037e-03  -3.148128e-03  0 
 -1.865567e-03  -3.155219e-03  0 
 -8.760055e-04  -3.204081e-03  0 
 1.651239e-06  -3.225209e-03  0 
 -1.590861e-02  -1.380359e-02  0 
 -9.490634e-03  -1.189642e-02  0 
 -5.521054e-03  -1.122950e-02  0 
 -2.576173e-03  -1.105241e-02  0 
 2.955488e-06  -1.102078e-02  0 
 -2.310530e-02  -2.411706e-02  0 
 -1.511015e-02  -2.231263e-02  0 
 -9.024843e-03  -2.112513e-02  0 
VECTORS displacement_ITER13 FLOAT
 0  0  0 
 -1.547255e-02  -1.023495e-02  0 
 -2.446594e-02  -2.005569e-02  0 
 0  0  0 
 -8.292936e-03  -7.649776e-03  0 
 0  0  0 
 -4.891996e-03  -6.990184e-03  0 
 0  0  0 
 -2.667013e-03  -6.896472e-03  0 
 0  0  0 
 -8.511190e-04  -6.903346e-03  0 
 -1.581302e-02  -1.786894e-02  0 
 -9.665107e-03  -1.639332e-02  0 
 -5.264983e-03  -1.576805e-02  0 
 -1.675638e-03  -1.556404e-02  0 
 -9.252441e-03  -5.338032e-03  0 
 -2.038740e-02  -1.511980e-02  0 
 -2.789424e-02  -2.507559e-02  0 
 -4.131818e-03  -3.248489e-03  0 
 0  0  0 
 -1.123139e-02  -8.714614e-03  0 
 -2.458752e-03  -3.136776e-03  0 
 0  0  0 
 -6.350533e-03  -7.184004e-03  0 
 -1.347890e-03  -3.181221e-03  0 
 0  0  0 
 -3.700248e-03  -6.916752e-03  0 
 -4.314024e-04  -3.220133e-03  0 
 0  0  0 
 -1.730760e-03  -6.897293e-03  0 
 0  0  0 
 9.161890e-07  -6.906764e-03  0 
 -1.229029e-02  -1.267018e-02  0 
 -1.981278e-02  -1.892891e-02  0 
 -7.312417e-03  -1.146080e-02  0 
 -1.245443e-02  -1.700545e-02  0 
 -3.973801e-03  -1.111154e-02  0 
 -7.314507e-03  -1.600241e-02  0 
 -1.265538e-03  -1.102942e-02  0 
 -3.411459e-03  -1.563337e-02  0 
 3.290896e-06  -1.554263e-02  0 
 -1.884474e-02  -2.315979e-02  0 
 -1.186125e-02  -2.162312e-02  0 
 -5.620043e-03  -3.648071e-03  0 
 -3.177121e-03  -3.148376e-03  0 
 -1.865861e-03  -3.155333e-03  0 
 -8.760694e-04  -3.204390e-03  0 
 2.040665e-06  -3.226090e-03  0 
 -1.590663e-02  -1.380274e-02  0 
 -9.491046e-03  -1.189617e-02  0 
 -5.522166e-03  -1.122977e-02  0 
 -2.575353e-03  -1.105423e-02  0 
 3.553472e-06  -1.102353e-02  0 
 -2.310168e-02  -2.411235e-02  0 
 -1.511046e-02  -2.230948e-02  0 
 -9.030387e-03  -2.112100e-02  0 
VECTORS displacement_ITER14 FLOAT
 0  0  0 
 -1.547280e-02  -1.023470e-02  0 
 -2.446711e-02  -2.005594e-02  0 
 0  0  0 
 -8.292961e-03  -7.649325e-03  0 
 0  0  0 
 -4.891514e-03  -6.989307e-03  0 
 0  0  0 
 -2.666532e-03  -6.895248e-03  0 
 0  0  0 
 -8.523957e-04  -6.901417e-03  0 
 -1.581332e-02  -1.786877e-02  0 
 -9.664798e-03  -1.639259e-02  0 
 -5.264046e-03  -1.576485e-02  0 
 -1.678098e-03  -1.555814e-02  0 
 -9.252447e-03  -5.337866e-03  0 
 -2.038806e-02  -1.511965e-02  0 
 -2.789573e-02  -2.507665e-02  0 
 -4.131780e-03  -3.248173e-03  0 
 0  0  0 
 -1.123158e-02  -8.714274e-03  0 
 -2.458477e-03  -3.136286e-03  0 
 0  0  0 
 -6.350317e-03  -7.183367e-03  0 
 -1.347679e-03  -3.180720e-03  0 
 0  0  0 
 -3.699613e-03  -6.915676e-03  0 
 -4.319297e-04  -3.219415e-03  0 
 0  0  0 
 -1.730886e-03  -6.895848e-03  0 
 0  0  0 
 -1.365948e-06  -6.904105e-03  0 
 -1.229044e-02  -1.266980e-02  0 
 -1.981343e-02  -1.892897e-02  0 
 -7.311907e-03  -1.145978e-02  0 
 -1.245452e-02  -1.700512e-02  0 
 -3.972988e-03  -1.110945e-02  0 
 -7.313380e-03  -1.600108e-02  0 
 -1.267368e-03  -1.102586e-02  0 
 -3.411722e-03  -1.562870e-02  0 
 -1.865419e-06  -1.553558e-02  0 
 -1.884525e-02  -2.315990e-02  0 
 -1.186140e-02  -2.162326e-02  0 
 -5.620091e-03  -3.647846e-03  0 
 -3.176957e-03  -3.147963e-03  0 
 -1.865552e-03  -3.154818e-03  0 
 -8.761339e-04  -3.203872e-03  0 
 1.321565e-07  -3.224885e-03  0 
 -1.590703e-02  -1.380247e-02  0 
 -9.490929e-03  -1.189556e-02  0 
 -5.521242e-03  -1.122821e-02  0 
 -2.575557e-03  -1.105144e-02  0 
 -7.725700e-07  -1.101889e-02  0 
 -2.310277e-02  -2.411300e-02  0 
 -1.511049e-02  -2.230932e-02  0 
 -9.029213e-03  -2.112075e-02  0 
VECTORS displacement_ITER15 FLOAT
 0  0  0 
 -1.547382e-02  -1.023505e-02  0 
 -2.446949e-02  -2.005755e-02  0 
 0  0  0 
 -8.293257e-03  -7.649433e-03  0 
 0  0  0 
 -4.891180e-03  -6.989262e-03  0 
 0  0  0 
 -2.666087e-03  -6.895191e-03  0 
 0  0  0 
 -8.524707e-04  -6.901106e-03  0 
 -1.581395e-02  -1.786989e-02  0 
 -9.664319e-03  -1.639330e-02  0 
 -5.263114e-03  -1.576414e-02  0 
 -1.678422e-03  -1.555718e-02  0 
 -9.252919e-03  -5.337996e-03  0 
 -2.038972e-02  -1.512045e-02  0 
 -2.789868e-02  -2.507957e-02  0 
 -4.131910e-03  -3.248114e-03  0 
 0  0  0 
 -1.123225e-02  -8.714479e-03  0 
 -2.458322e-03  -3.136205e-03  0 
 0  0  0 
 -6.350270e-03  -7.183394e-03  0 
 -1.347478e-03  -3.180709e-03  0 
 0  0  0 
 -3.699125e-03  -6.915611e-03  0 
 -4.318806e-04  -3.219275e-03  0 
 0  0  0 
 -1.730658e-03  -6.895730e-03  0 
 0  0  0 
 -1.319538e-06  -6.903565e-03  0 
 -1.229092e-02  -1.267033e-02  0 
 -1.981484e-02  -1.893036e-02  0 
 -7.311442e-03  -1.145996e-02  0 
 -1.245460e-02  -1.700610e-02  0 
 -3.972230e-03  -1.110926e-02  0 
 -7.312238e-03  -1.600141e-02  0 
 -1.267536e-03  -1.102533e-02  0 
 -3.411327e-03  -1.562762e-02  0 
 -2.406877e-06  -1.553483e-02  0 
 -1.884612e-02  -2.316185e-02  0 
 -1.186108e-02  -2.162495e-02  0 
 -5.620391e-03  -3.647849e-03  0 
 -3.176925e-03  -3.147876e-03  0 
 -1.865339e-03  -3.154772e-03  0 
 -8.760013e-04  -3.203847e-03  0 
 -2.959957e-07  -3.224598e-03  0 
 -1.590807e-02  -1.380310e-02  0 
 -9.490920e-03  -1.189594e-02  0 
 -5.520429e-03  -1.122817e-02  0 
 -2.575281e-03  -1.105106e-02  0 
 -1.460304e-06  -1.101806e-02  0 
 -2.310469e-02  -2.411549e-02  0 
 -1.511042e-02  -2.231088e-02  0 
 -9.027578e-03  -2.112233e-02  0 
VECTORS displacement_ITER16 FLOAT
 0  0  0 
 -1.547358e-02  -1.023500e-02  0 
 -2.446896e-02  -2.005724e-02  0 
 0  0  0 
 -8.293217e-03  -7.649486e-03  0 
 0  0  0 
 -4.891408e-03  -6.989470e-03  0 
 0  0  0 
 -2.666347e-03  -6.895472e-03  0 
 0  0  0 
 -8.518603e-04  -6.901395e-03  0 
 -1.581375e-02  -1.786960e-02  0 
 -9.664539e-03  -1.639328e-02  0 
 -5.263517e-03  -1.576497e-02  0 
 -1.677426e-03  -1.555976e-02  0 
 -9.252824e-03  -5.337993e-03  0 
 -2.038934e-02  -1.512029e-02  0 
 -2.789794e-02  -2.507898e-02  0 
 -4.131911e-03  -3.248187e-03  0 
 0  0  0 
 -1.123210e-02  -8.714474e-03  0 
 -2.458441e-03  -3.136331e-03  0 
 0  0  0 
 -6.350366e-03  -7.183526e-03  0 
 -1.347571e-03  -3.180777e-03  0 
 0  0  0 
 -3.699429e-03  -6.915867e-03  0 
 -4.315290e-04  -3.219191e-03  0 
 0  0  0 
 -1.730638e-03  -6.896014e-03  0 
 0  0  0 
 3.669146e-07  -6.903975e-03  0 
 -1.229080e-02  -1.267026e-02  0 
 -1.981450e-02  -1.893007e-02  0 
 -7.311732e-03  -1.146017e-02  0 
 -1.245455e-02  -1.700591e-02  0 
 -3.972653e-03  -1.110980e-02  0 
 -7.313001e-03  -1.600166e-02  0 
 -1.266707e-03  -1.102651e-02  0 
 -3.411294e-03  -1.562916e-02  0 
 7.357927e-07  -1.553846e-02  0 
 -1.884589e-02  -2.316137e-02  0 
 -1.186123e-02  -2.162454e-02  0 
 -5.620334e-03  -3.647884e-03  0 
 -3.176991e-03  -3.147984e-03  0 
 -1.865479e-03  -3.154889e-03  0 
 -8.759395e-04  -3.203836e-03  0 
 2.447790e-07  -3.224588e-03  0 
 -1.590781e-02  -1.380298e-02  0 
 -9.490978e-03  -1.189597e-02  0 
 -5.520900e-03  -1.122852e-02  0 
 -2.575321e-03  -1.105194e-02  0 
 7.488491e-07  -1.101950e-02  0 
 -2.310437e-02  -2.411494e-02  0 
 -1.511015e-02  -2.231038e-02  0 
 -9.028719e-03  -2.112142e-02  0 
VECTORS displacement_ITER17 FLOAT
 0  0  0 
 -1.547357e-02  -1.023496e-02  0 
 -2.446900e-02  -2.005728e-02  0 
 0  0  0 
 -8.293168e-03  -7.649442e-03  0 
 0  0  0 
 -4.891313e-03  -6.989404e-03  0 
 0  0  0 
 -2.666331e-03  -6.895391e-03  0 
 0  0  0 
 -8.521533e-04  -6.901223e-03  0 
 -1.581367e-02  -1.786961e-02  0 
 -9.664368e-03  -1.639323e-02  0 
 -5.263541e-03  -1.576451e-02  0 
 -1.677983e-03  -1.555910e-02  0 
 -9.252801e-03  -5.337966e-03  0 
 -2.038935e-02  -1.512028e-02  0 
 -2.789799e-02  -2.507910e-02  0 
 -4.131884e-03  -3.248155e-03  0 
 0  0  0 