# vtk DataFile Version 3.1
this is an vtk file created by FEMAC
ASCII
DATASET UNSTRUCTURED_GRID
POINTS 56 FLOAT
5.000000 0.000000 0.000000
6.000000 0.000000 0.000000
7.000000 0.000000 0.000000
8.000000 0.000000 0.000000
9.000000 0.000000 0.000000
5.000000 1.000000 0.000000
5.000000 2.000000 0.000000
6.000000 1.000000 0.000000
6.000000 2.000000 0.000000
7.000000 1.000000 0.000000
7.000000 2.000000 0.000000
8.000000 1.000000 0.000000
8.000000 2.000000 0.000000
9.000000 1.000000 0.000000
9.000000 2.000000 0.000000
4.500000 0.000000 0.000000
5.500000 0.000000 0.000000
6.500000 0.000000 0.000000
7.500000 0.000000 0.000000
8.500000 0.000000 0.000000
4.500000 1.000000 0.000000
5.000000 0.500000 0.000000
4.500000 2.000000 0.000000
5.000000 1.500000 0.000000
5.500000 1.000000 0.000000
6.000000 0.500000 0.000000
5.500000 2.000000 0.000000
6.000000 1.500000 0.000000
6.500000 1.000000 0.000000
7.000000 0.500000 0.000000
6.500000 2.000000 0.000000
7.000000 1.500000 0.000000
7.000000 2.500000 0.000000
7.500000 1.000000 0.000000
8.000000 0.500000 0.000000
7.500000 2.000000 0.000000
8.000000 1.500000 0.000000
8.000000 2.500000 0.000000
8.500000 1.000000 0.000000
9.000000 0.500000 0.000000
8.500000 2.000000 0.000000
9.000000 1.500000 0.000000
9.000000 2.500000 0.000000
4.500000 0.500000 0.000000
4.500000 1.500000 0.000000
5.500000 0.500000 0.000000
5.500000 1.500000 0.000000
6.500000 0.500000 0.000000
6.500000 1.500000 0.000000
6.500000 2.500000 0.000000
7.500000 0.500000 0.000000
7.500000 1.500000 0.000000
7.500000 2.500000 0.000000
8.500000 0.500000 0.000000
8.500000 1.500000 0.000000
8.500000 2.500000 0.000000
CELLS 41 205 
4 15  0 21 43
4 43 21  5 20
4 20  5 23 44
4 44 23  6 22
4 0 16 45 21
4 21 45 24  5
4 16  1 25 45
4 45 25  7 24
4 5 24 46 23
4 23 46 26  6
4 24  7 27 46
4 46 27  8 26
4 1 17 47 25
4 25 47 28  7
4 17  2 29 47
4 47 29  9 28
4 7 28 48 27
4 27 48 30  8
4 28  9 31 48
4 48 31 10 30
4 30 10 32 49
4 2 18 50 29
4 29 50 33  9
4 18  3 34 50
4 50 34 11 33
4 9 33 51 31
4 31 51 35 10
4 33 11 36 51
4 51 36 12 35
4 10 35 52 32
4 35 12 37 52
4 3 19 53 34
4 34 53 38 11
4 19  4 39 53
4 53 39 13 38
4 11 38 54 36
4 36 54 40 12
4 38 13 41 54
4 54 41 14 40
4 12 40 55 37
4 40 14 42 55
CELL_TYPES 41
9 9 9 9 9 9 9 9 9 9 9 9 9 9 9 9 9 9 9 9 9 9 9 9 9 9 9 9 9 9 9 9 9 9 9 9 9 9 9 9 9 
POINT_DATA 56
VECTORS displacement_ITER1 FLOAT
 -5.102266e-02  -7.320576e-02  0 
 -5.109852e-02  -8.645234e-02  0 
 -4.987231e-02  -9.715336e-02  0 
 -4.896324e-02  -1.056929e-01  0 
 -4.879945e-02  -1.134289e-01  0 
 -3.833831e-02  -7.291562e-02  0 
 -2.579636e-02  -7.264190e-02  0 
 -3.963212e-02  -8.648291e-02  0 
 -2.864102e-02  -8.611890e-02  0 
 -4.042933e-02  -9.715161e-02  0 
 -3.206908e-02  -9.645665e-02  0 
 -4.088731e-02  -1.054790e-01  0 
 -3.342734e-02  -1.048250e-01  0 
 -4.111295e-02  -1.129991e-01  0 
 -3.408595e-02  -1.113744e-01  0 
 -4.957043e-02  -6.578783e-02  0 
 -5.135432e-02  -8.011899e-02  0 
 -5.052606e-02  -9.213128e-02  0 
 -4.931825e-02  -1.016155e-01  0 
 -4.881598e-02  -1.095820e-01  0 
 -3.753779e-02  -6.588245e-02  0 
 -4.433905e-02  -7.300980e-02  0 
 -2.483344e-02  -6.456543e-02  0 
 -3.230708e-02  -7.275338e-02  0 
 -3.904651e-02  -7.996018e-02  0 
 -4.523483e-02  -8.650123e-02  0 
 -2.702186e-02  -7.963746e-02  0 
 -3.425407e-02  -8.648937e-02  0 
 -4.007555e-02  -9.219756e-02  0 
 -4.512298e-02  -9.723646e-02  0 
 -3.098393e-02  -9.219752e-02  0 
 -3.599034e-02  -9.690818e-02  0 
 -2.854594e-02  -9.600456e-02  0 
 -4.071243e-02  -1.015084e-01  0 
 -4.493118e-02  -1.056737e-01  0 
 -3.285230e-02  -1.007768e-01  0 
 -3.701867e-02  -1.051716e-01  0 
 -3.005219e-02  -1.043550e-01  0 
 -4.099278e-02  -1.092511e-01  0 
 -4.494856e-02  -1.133338e-01  0 
 -3.381398e-02  -1.083564e-01  0 
 -3.740689e-02  -1.123541e-01  0 
 -3.184666e-02  -1.102126e-01  0 
 -4.352530e-02  -6.591443e-02  0 
 -3.155144e-02  -6.540153e-02  0 
 -4.498894e-02  -8.005297e-02  0 
 -3.315232e-02  -7.986968e-02  0 
 -4.522927e-02  -9.222582e-02  0 
 -3.516899e-02  -9.215670e-02  0 
 -2.885978e-02  -9.274231e-02  0 
 -4.500778e-02  -1.016540e-01  0 
 -3.664109e-02  -1.011977e-01  0 
 -2.915636e-02  -1.003378e-01  0 
 -4.491231e-02  -1.095116e-01  0 
 -3.721094e-02  -1.088297e-01  0 
 -3.100339e-02  -1.078382e-01  0 
VECTORS displacement_ITER2 FLOAT
 -4.647463e-02  -6.161503e-02  0 
 -4.660065e-02  -7.516732e-02  0 
 -4.545300e-02  -8.627681e-02  0 
 -4.459370e-02  -9.531793e-02  0 
 -4.443936e-02  -1.035881e-01  0 
 -3.348846e-02  -6.131615e-02  0 
 -2.068918e-02  -6.104414e-02  0 
 -3.477181e-02  -7.517932e-02  0 
 -2.344032e-02  -7.481484e-02  0 
 -3.555567e-02  -8.626210e-02  0 
 -2.670680e-02  -8.558139e-02  0 
 -3.599929e-02  -9.510356e-02  0 
 -2.799811e-02  -9.445763e-02  0 
 -3.621979e-02  -1.031666e-01  0 
 -2.863308e-02  -1.015797e-01  0 
 -4.503275e-02  -5.407099e-02  0 
 -4.682362e-02  -6.867040e-02  0 
 -4.606810e-02  -8.103657e-02  0 
 -4.492961e-02  -9.098134e-02  0 
 -4.445444e-02  -9.947376e-02  0 
 -3.268391e-02  -5.414420e-02  0 
 -3.964584e-02  -6.141613e-02  0 
 -1.973434e-02  -5.284295e-02  0 
 -2.731389e-02  -6.115172e-02  0 
 -3.419257e-02  -6.849849e-02  0 
 -4.055750e-02  -7.520665e-02  0 
 -2.188094e-02  -6.817890e-02  0 
 -2.921075e-02  -7.517578e-02  0 
 -3.520924e-02  -8.108479e-02  0 
 -4.047565e-02  -8.635159e-02  0 
 -2.567763e-02  -8.106227e-02  0 
 -3.088339e-02  -8.601959e-02  0 
 -2.290682e-02  -8.514623e-02  0 
 -3.583026e-02  -9.086803e-02  0 
 -4.030158e-02  -9.529661e-02  0 
 -2.745033e-02  -9.015289e-02  0 
 -3.186527e-02  -9.480031e-02  0 
 -2.434077e-02  -9.399584e-02  0 
 -3.610214e-02  -9.914759e-02  0 
 -4.032188e-02  -1.034944e-01  0 
 -2.836853e-02  -9.826477e-02  0 
 -3.224193e-02  -1.025370e-01  0 
 -2.606895e-02  -1.004336e-01  0 
 -3.882887e-02  -5.418499e-02  0 
 -2.655620e-02  -5.366674e-02  0 
 -4.029988e-02  -6.859766e-02  0 
 -2.814314e-02  -6.840514e-02  0 
 -4.056735e-02  -8.112113e-02  0 
 -3.009461e-02  -8.103449e-02  0 
 -2.320350e-02  -8.156372e-02  0 
 -4.037147e-02  -9.101445e-02  0 
 -3.150477e-02  -9.056267e-02  0 
 -2.348863e-02  -8.972661e-02  0 
 -4.028560e-02  -9.940388e-02  0 
 -3.205068e-02  -9.873302e-02  0 
 -2.524988e-02  -9.775071e-02  0 
VECTORS displacement_ITER3 FLOAT
 -3.757380e-02  -5.408693e-02  0 
 -3.868022e-02  -6.512565e-02  0 
 -3.883511e-02  -7.528096e-02  0 
 -3.875739e-02  -8.472532e-02  0 
 -3.874593e-02  -9.384755e-02  0 
 -2.721792e-02  -5.358301e-02  0 
 -1.765085e-02  -5.317932e-02  0 
 -2.853330e-02  -6.480336e-02  0 
 -1.919698e-02  -6.432385e-02  0 
 -2.925690e-02  -7.504997e-02  0 
 -2.026621e-02  -7.454599e-02  0 
 -2.955424e-02  -8.450733e-02  0 
 -2.065444e-02  -8.402869e-02  0 
 -2.970288e-02  -9.355313e-02  0 
 -2.094778e-02  -9.256623e-02  0 
 -3.613487e-02  -4.823321e-02  0 
 -3.830920e-02  -5.971716e-02  0 
 -3.882160e-02  -7.031123e-02  0 
 -3.879743e-02  -8.006825e-02  0 
 -3.873952e-02  -8.930456e-02  0 
 -2.627127e-02  -4.791871e-02  0 
 -3.214606e-02  -5.380600e-02  0 
 -1.673316e-02  -4.673000e-02  0 
 -2.244816e-02  -5.332618e-02  0 
 -2.795585e-02  -5.927924e-02  0 
 -3.349589e-02  -6.499500e-02  0 
 -1.843941e-02  -5.884927e-02  0 
 -2.380179e-02  -6.461239e-02  0 
 -2.895923e-02  -7.004971e-02  0 
 -3.399596e-02  -7.521970e-02  0 
 -2.000455e-02  -6.966547e-02  0 
 -2.467255e-02  -7.480828e-02  0 
 -1.591351e-02  -7.433784e-02  0 
 -2.944864e-02  -7.985346e-02  0 
 -3.414217e-02  -8.467081e-02  0 
 -2.047353e-02  -7.938272e-02  0 
 -2.504593e-02  -8.428170e-02  0 
 -1.635690e-02  -8.371947e-02  0 
 -2.962396e-02  -8.905586e-02  0 
 -3.421344e-02  -9.377467e-02  0 
 -2.080143e-02  -8.842097e-02  0 
 -2.524830e-02  -9.316267e-02  0 
 -1.720821e-02  -9.173205e-02  0 
 -3.118492e-02  -4.813892e-02  0 
 -2.158643e-02  -4.743938e-02  0 
 -3.296783e-02  -5.951070e-02  0 
 -2.313755e-02  -5.908278e-02  0 
 -3.381322e-02  -7.022704e-02  0 
 -2.430135e-02  -6.984017e-02  0 
 -1.599766e-02  -6.956193e-02  0 
 -3.409277e-02  -8.001559e-02  0 
 -2.491087e-02  -7.962715e-02  0 
 -1.609283e-02  -7.914491e-02  0 
 -3.417599e-02  -8.924212e-02  0 
 -2.513263e-02  -8.876536e-02  0 
 -1.671163e-02  -8.803089e-02  0 
VECTORS displacement_ITER4 FLOAT
 -3.835945e-02  -5.150764e-02  0 
 -4.023734e-02  -6.187894e-02  0 
 -4.132687e-02  -7.233169e-02  0 
 -4.177106e-02  -8.274708e-02  0 
 -4.184606e-02  -9.299465e-02  0 
 -2.864396e-02  -5.075780e-02  0 
 -1.987485e-02  -5.007098e-02  0 
 -3.018222e-02  -6.126341e-02  0 
 -2.095646e-02  -6.046783e-02  0 
 -3.117189e-02  -7.190519e-02  0 
 -2.136522e-02  -7.125164e-02  0 
 -3.159199e-02  -8.252237e-02  0 
 -2.163495e-02  -8.216845e-02  0 
 -3.172791e-02  -9.278200e-02  0 
 -2.178436e-02  -9.232086e-02  0 
 -3.695760e-02  -4.637246e-02  0 
 -3.941052e-02  -5.668067e-02  0 
 -4.087142e-02  -6.710089e-02  0 
 -4.161848e-02  -7.755336e-02  0 
 -4.182768e-02  -8.789452e-02  0 
 -2.753977e-02  -4.553981e-02  0 
 -3.335994e-02  -5.114077e-02  0 
 -1.911191e-02  -4.453557e-02  0 
 -2.415100e-02  -5.034757e-02  0 
 -2.948892e-02  -5.598998e-02  0 
 -3.511986e-02  -6.161239e-02  0 
 -2.045714e-02  -5.525647e-02  0 
 -2.542305e-02  -6.085348e-02  0 
 -3.074799e-02  -6.657030e-02  0 
 -3.617750e-02  -7.216697e-02  0 
 -2.118923e-02  -6.558858e-02  0 
 -2.627521e-02  -7.157160e-02  0 
 -1.633617e-02  -7.098390e-02  0 
 -3.144404e-02  -7.724066e-02  0 
 -3.664374e-02  -8.266925e-02  0 
 -2.150403e-02  -7.678915e-02  0 
 -2.659547e-02  -8.235147e-02  0 
 -1.665719e-02  -8.195935e-02  0 
 -3.167151e-02  -8.770641e-02  0 
 -3.676790e-02  -9.293353e-02  0 
 -2.172459e-02  -8.736444e-02  0 
 -2.672721e-02  -9.257500e-02  0 
 -1.708441e-02  -9.201999e-02  0 
 -3.224149e-02  -4.602198e-02  0 
 -2.322259e-02  -4.505676e-02  0 
 -3.433732e-02  -5.636121e-02  0 
 -2.486059e-02  -5.562877e-02  0 
 -3.572892e-02  -6.688573e-02  0 
 -2.591376e-02  -6.615250e-02  0 
 -1.601659e-02  -6.493457e-02  0 
 -3.647449e-02  -7.743681e-02  0 
 -2.647577e-02  -7.701573e-02  0 
 -1.651444e-02  -7.653813e-02  0 
 -3.672652e-02  -8.783801e-02  0 
 -2.666556e-02  -8.753510e-02  0 
 -1.683356e-02  -8.719540e-02  0 
VECTORS displacement_ITER5 FLOAT
 -3.830204e-02  -5.141321e-02  0 
 -4.000462e-02  -6.197296e-02  0 
 -4.074843e-02  -7.225100e-02  0 
 -4.094927e-02  -8.210905e-02  0 
 -4.097723e-02  -9.164781e-02  0 
 -2.829777e-02  -5.055972e-02  0 
 -1.918261e-02  -4.962739e-02  0 
 -2.998257e-02  -6.143794e-02  0 
 -2.062703e-02  -6.068435e-02  0 
 -3.094879e-02  -7.191466e-02  0 
 -2.169960e-02  -7.132751e-02  0 
 -3.139494e-02  -8.188235e-02  0 
 -2.215440e-02  -8.144500e-02  0 
 -3.156282e-02  -9.139681e-02  0 
 -2.237267e-02  -9.080352e-02  0 
 -3.696527e-02  -4.610350e-02  0 
 -3.929648e-02  -5.671237e-02  0 
 -4.047096e-02  -6.716156e-02  0 
 -4.089139e-02  -7.723107e-02  0 
 -4.096602e-02  -8.690428e-02  0 
 -2.706494e-02  -4.508935e-02  0 
 -3.315639e-02  -5.102448e-02  0 
 -1.833222e-02  -4.388064e-02  0 
 -2.365966e-02  -5.004639e-02  0 
 -2.924762e-02  -5.602478e-02  0 
 -3.489091e-02  -6.174546e-02  0 
 -1.990921e-02  -5.517431e-02  0 
 -2.524619e-02  -6.108808e-02  0 
 -3.054070e-02  -6.674064e-02  0 
 -3.578088e-02  -7.213101e-02  0 
 -2.129803e-02  -6.607358e-02  0 
 -2.625754e-02  -7.163387e-02  0 
 -1.722291e-02  -7.105248e-02  0 
 -3.122655e-02  -7.696020e-02  0 
 -3.614021e-02  -8.204198e-02  0 
 -2.196761e-02  -7.646719e-02  0 
 -2.673179e-02  -8.167280e-02  0 
 -1.764538e-02  -8.121116e-02  0 
 -3.149208e-02  -8.668887e-02  0 
 -3.625186e-02  -9.157989e-02  0 
 -2.228105e-02  -8.623146e-02  0 
 -2.692678e-02  -9.112834e-02  0 
 -1.801186e-02  -9.046000e-02  0 
 -3.192004e-02  -4.567084e-02  0 
 -2.259626e-02  -4.449545e-02  0 
 -3.414955e-02  -5.640742e-02  0 
 -2.452219e-02  -5.560832e-02  0 
 -3.542041e-02  -6.699582e-02  0 
 -2.582124e-02  -6.643060e-02  0 
 -1.703805e-02  -6.581611e-02  0 
 -3.600912e-02  -7.714361e-02  0 
 -2.655062e-02  -7.672207e-02  0 
 -1.745124e-02  -7.622461e-02  0 
 -3.620975e-02  -8.684509e-02  0 
 -2.683979e-02  -8.646977e-02  0 
 -1.781648e-02  -8.599422e-02  0 
VECTORS displacement_ITER6 FLOAT
 -3.816862e-02  -5.102265e-02  0 
 -3.979307e-02  -6.151229e-02  0 
 -4.051236e-02  -7.170322e-02  0 
 -4.070891e-02  -8.147360e-02  0 
 -4.073672e-02  -9.092018e-02  0 
 -2.813354e-02  -5.014820e-02  0 
 -1.897422e-02  -4.910480e-02  0 
 -2.983596e-02  -6.098013e-02  0 
 -2.053411e-02  -6.021093e-02  0 
 -3.079061e-02  -7.136796e-02  0 
 -2.161732e-02  -7.077784e-02  0 
 -3.124177e-02  -8.124219e-02  0 
 -2.207647e-02  -8.077258e-02  0 
 -3.141619e-02  -9.067124e-02  0 
 -2.229010e-02  -9.011716e-02  0 
 -3.694523e-02  -4.572969e-02  0 
 -3.911330e-02  -5.629023e-02  0 
 -4.024311e-02  -6.665784e-02  0 
 -4.065196e-02  -7.663968e-02  0 
 -4.072551e-02  -8.622330e-02  0 
 -2.687783e-02  -4.465313e-02  0 
 -3.302396e-02  -5.063852e-02  0 
 -1.802088e-02  -4.336300e-02  0 
 -2.346626e-02  -4.959688e-02  0 
 -2.909892e-02  -5.560148e-02  0 
 -3.471539e-02  -6.128930e-02  0 
 -1.978431e-02  -5.469083e-02  0 
 -2.512647e-02  -6.062265e-02  0 
 -3.038860e-02  -6.624032e-02  0 
 -3.558616e-02  -7.158429e-02  0 
 -2.120717e-02  -6.559427e-02  0 
 -2.613259e-02  -7.108776e-02  0 
 -1.721130e-02  -7.048884e-02  0 
 -3.106776e-02  -7.636566e-02  0 
 -3.594413e-02  -8.140594e-02  0 
 -2.189165e-02  -7.584858e-02  0 
 -2.661831e-02  -8.102043e-02  0 
 -1.760905e-02  -8.052476e-02  0 
 -3.134441e-02  -8.600652e-02  0 
 -3.605829e-02  -9.085233e-02  0 
 -2.220091e-02  -8.553575e-02  0 
 -2.682274e-02  -9.041267e-02  0 
 -1.785761e-02  -8.982747e-02  0 
 -3.179372e-02  -4.527199e-02  0 
 -2.233379e-02  -4.401557e-02  0 
 -3.399180e-02  -5.599174e-02  0 
 -2.438024e-02  -5.515877e-02  0 
 -3.523302e-02  -6.649469e-02  0 
 -2.570157e-02  -6.593281e-02  0 
 -1.698979e-02  -6.533264e-02  0 
 -3.581188e-02  -7.655208e-02  0 
 -2.642905e-02  -7.611846e-02  0 
 -1.744168e-02  -7.559028e-02  0 
 -3.601559e-02  -8.616388e-02  0 
 -2.673514e-02  -8.578405e-02  0 
 -1.772788e-02  -8.528927e-02  0 
VECTORS displacement_ITER7 FLOAT
 -3.790474e-02  -5.111707e-02  0 
 -3.964581e-02  -6.142843e-02  0 
 -4.048851e-02  -7.157571e-02  0 
 -4.075046e-02  -8.143398e-02  0 
 -4.078859e-02  -9.100688e-02  0 
 -2.811340e-02  -5.024906e-02  0 
 -1.936900e-02  -4.926270e-02  0 
 -2.981838e-02  -6.086650e-02  0 
 -2.071651e-02  -6.013446e-02  0 
 -3.074912e-02  -7.122719e-02  0 
 -2.150716e-02  -7.068360e-02  0 
 -3.117567e-02  -8.120421e-02  0 
 -2.188073e-02  -8.074350e-02  0 
 -3.134507e-02  -9.076673e-02  0 
 -2.206580e-02  -9.026229e-02  0 
 -3.662227e-02  -4.593091e-02  0 
 -3.890362e-02  -5.628468e-02  0 
 -4.016143e-02  -6.653185e-02  0 
 -4.066992e-02  -7.654524e-02  0 
 -4.077595e-02  -8.624682e-02  0 
 -2.687047e-02  -4.490157e-02  0 
 -3.286936e-02  -5.072470e-02  0 
 -1.844345e-02  -4.376640e-02  0 
 -2.362472e-02  -4.973567e-02  0 
 -2.908194e-02  -5.557697e-02  0 
 -3.462965e-02  -6.118860e-02  0 
 -2.010475e-02  -5.471529e-02  0 
 -2.518904e-02  -6.050466e-02  0 
 -3.036240e-02  -6.608960e-02  0 
 -3.555139e-02  -7.144567e-02  0 
 -2.118832e-02  -6.546099e-02  0 
 -2.607228e-02  -7.096048e-02  0 
 -1.702771e-02  -7.042172e-02  0 
 -3.101023e-02  -7.626755e-02  0 
 -3.593051e-02  -8.136437e-02  0 
 -2.172951e-02  -7.578212e-02  0 
 -2.649227e-02  -8.098816e-02  0 
 -1.734162e-02  -8.050330e-02  0 
 -3.127574e-02  -8.603605e-02  0 
 -3.604811e-02  -9.094041e-02  0 
 -2.198482e-02  -8.557558e-02  0 
 -2.668573e-02  -9.052642e-02  0 
 -1.747396e-02  -9.000322e-02  0 
 -3.159421e-02  -4.546058e-02  0 
 -2.251325e-02  -4.433623e-02  0 
 -3.387242e-02  -5.597229e-02  0 
 -2.450559e-02  -5.514486e-02  0 
 -3.517669e-02  -6.635324e-02  0 
 -2.570203e-02  -6.578132e-02  0 
 -1.674603e-02  -6.513689e-02  0 
 -3.579070e-02  -7.645151e-02  0 
 -2.632467e-02  -7.603313e-02  0 
 -1.723085e-02  -7.553861e-02  0 
 -3.600528e-02  -8.618815e-02  0 
 -2.660294e-02  -8.582120e-02  0 
 -1.739833e-02  -8.533135e-02  0 
VECTORS displacement_ITER8 FLOAT
 -3.806625e-02  -5.104698e-02  0 
 -3.972067e-02  -6.145668e-02  0 
 -4.047688e-02  -7.160878e-02  0 
 -4.069009e-02  -8.140796e-02  0 
 -4.071934e-02  -9.090563e-02  0 
 -2.815122e-02  -5.019840e-02  0 
 -1.926848e-02  -4.921411e-02  0 
 -2.984447e-02  -6.091699e-02  0 
 -2.069962e-02  -6.020049e-02  0 
 -3.075988e-02  -7.127666e-02  0 
 -2.155301e-02  -7.074266e-02  0 
 -3.117636e-02  -8.118018e-02  0 
 -2.195538e-02  -8.071183e-02  0 
 -3.134717e-02  -9.065660e-02  0 
 -2.215885e-02  -9.009981e-02  0 
 -3.680966e-02  -4.578058e-02  0 
 -3.902513e-02  -5.627550e-02  0 
 -4.019003e-02  -6.657323e-02  0 
 -4.062798e-02  -7.655373e-02  0 
 -4.070802e-02  -8.618278e-02  0 
 -2.692161e-02  -4.477207e-02  0 
 -3.296561e-02  -5.066391e-02  0 
 -1.829093e-02  -4.362954e-02  0 
 -2.359932e-02  -4.969535e-02  0 
 -2.911368e-02  -5.558998e-02  0 
 -3.467942e-02  -6.122907e-02  0 
 -2.005703e-02  -5.474036e-02  0 
 -2.519486e-02  -6.056473e-02  0 
 -3.038107e-02  -6.615134e-02  0 
 -3.555296e-02  -7.148786e-02  0 
 -2.120695e-02  -6.554943e-02  0 
 -2.609442e-02  -7.101670e-02  0 
 -1.711532e-02  -7.048257e-02  0 
 -3.101472e-02  -7.628592e-02  0 
 -3.590274e-02  -8.134089e-02  0 
 -2.179323e-02  -7.580164e-02  0 
 -2.652472e-02  -8.096060e-02  0 
 -1.747433e-02  -8.046541e-02  0 
 -3.127550e-02  -8.596670e-02  0 
 -3.601500e-02  -9.083784e-02  0 
 -2.206741e-02  -8.547931e-02  0 
 -2.672672e-02  -9.039718e-02  0 
 -1.764041e-02  -8.979692e-02  0 
 -3.170463e-02  -4.531638e-02  0 
 -2.247509e-02  -4.420454e-02  0 
 -3.394720e-02  -5.597484e-02  0 
 -2.449570e-02  -5.516598e-02  0 
 -3.520115e-02  -6.640582e-02  0 
 -2.571714e-02  -6.585362e-02  0 
 -1.682678e-02  -6.525706e-02  0 
 -3.577433e-02  -7.646607e-02  0 
 -2.635371e-02  -7.605295e-02  0 
 -1.733723e-02  -7.555864e-02  0 
 -3.597258e-02  -8.612368e-02  0 
 -2.663821e-02  -8.574115e-02  0 
 -1.755546e-02  -8.521516e-02  0 
VECTORS displacement_ITER9 FLOAT
 -3.807460e-02  -5.107881e-02  0 
 -3.972207e-02  -6.151164e-02  0 
 -4.047229e-02  -7.166630e-02  0 
 -4.068153e-02  -8.145243e-02  0 
 -4.070955e-02  -9.093129e-02  0 
 -2.813273e-02  -5.023628e-02  0 
 -1.921172e-02  -4.925522e-02  0 
 -2.983173e-02  -6.097057e-02  0 
 -2.068051e-02  -6.024405e-02  0 
 -3.076243e-02  -7.133250e-02  0 
 -2.156174e-02  -7.078664e-02  0 
 -3.118559e-02  -8.122564e-02  0 
 -2.199006e-02  -8.076256e-02  0 
 -3.135679e-02  -9.068079e-02  0 
 -2.220076e-02  -9.011670e-02  0 
 -3.681559e-02  -4.580073e-02  0 
 -3.903069e-02  -5.632105e-02  0 
 -4.018803e-02  -6.663198e-02  0 
 -4.062120e-02  -7.660609e-02  0 
 -4.069846e-02  -8.621799e-02  0 
 -2.690965e-02  -4.479313e-02  0 
 -3.296128e-02  -5.069726e-02  0 
 -1.821247e-02  -4.366422e-02  0 
 -2.356230e-02  -4.973945e-02  0 
 -2.909542e-02  -5.563845e-02  0 
 -3.467386e-02  -6.128444e-02  0 
 -2.002458e-02  -5.478729e-02  0 
 -2.517559e-02  -6.061296e-02  0 
 -3.037624e-02  -6.620731e-02  0 
 -3.555172e-02  -7.154540e-02  0 
 -2.119510e-02  -6.558282e-02  0 
 -2.610093e-02  -7.106829e-02  0 
 -1.712664e-02  -7.051774e-02  0 
 -3.102206e-02  -7.633845e-02  0 
 -3.590276e-02  -8.138572e-02  0 
 -2.181714e-02  -7.585144e-02  0 
 -2.654530e-02  -8.100788e-02  0 
 -1.752216e-02  -8.051775e-02  0 
 -3.128493e-02  -8.600203e-02  0 
 -3.601470e-02  -9.086325e-02  0 
 -2.210728e-02  -8.551897e-02  0 
 -2.674873e-02  -9.041849e-02  0 
 -1.771574e-02  -8.981507e-02  0 
 -3.170228e-02  -4.533358e-02  0 
 -2.243421e-02  -4.422895e-02  0 
 -3.394105e-02  -5.602171e-02  0 
 -2.446711e-02  -5.521518e-02  0 
 -3.519774e-02  -6.646449e-02  0 
 -2.571095e-02  -6.590258e-02  0 
 -1.681799e-02  -6.528024e-02  0 
 -3.577426e-02  -7.651873e-02  0 
 -2.636952e-02  -7.610496e-02  0 
 -1.736328e-02  -7.560321e-02  0 
 -3.597231e-02  -8.615895e-02  0 
 -2.665979e-02  -8.577743e-02  0 
 -1.762593e-02  -8.525958e-02  0 
VECTORS displacement_ITER10 FLOAT
 -3.804306e-02  -5.105640e-02  0 
 -3.972705e-02  -6.144029e-02  0 
 -4.052226e-02  -7.159746e-02  0 
 -4.075899e-02  -8.143125e-02  0 
 -4.079204e-02  -9.097283e-02  0 
 -2.816460e-02  -5.021402e-02  0 
 -1.931416e-02  -4.923789e-02  0 
 -2.985789e-02  -6.088811e-02  0 
 -2.074163e-02  -6.015602e-02  0 
 -3.078912e-02  -7.125526e-02  0 
 -2.154754e-02  -7.071069e-02  0 
 -3.120901e-02  -8.120434e-02  0 
 -2.195028e-02  -8.074859e-02  0 
 -3.137759e-02  -9.072683e-02  0 
 -2.215012e-02  -9.018248e-02  0 
 -3.677201e-02  -4.582471e-02  0 
 -3.901526e-02  -5.626818e-02  0 
 -4.021608e-02  -6.655513e-02  0 
 -4.068824e-02  -7.655707e-02  0 
 -4.078020e-02  -8.622811e-02  0 
 -2.694892e-02  -4.480896e-02  0 
 -3.296435e-02  -5.067302e-02  0 
 -1.831430e-02  -4.369728e-02  0 
 -2.362358e-02  -4.972161e-02  0 
 -2.912264e-02  -5.558013e-02  0 
 -3.468989e-02  -6.120741e-02  0 
 -2.011647e-02  -5.473069e-02  0 
 -2.521276e-02  -6.052356e-02  0 
 -3.040308e-02  -6.611875e-02  0 
 -3.558932e-02  -7.147162e-02  0 
 -2.120379e-02  -6.547752e-02  0 
 -2.611298e-02  -7.098961e-02  0 
 -1.707729e-02  -7.044484e-02  0 
 -3.104709e-02  -7.628558e-02  0 
 -3.595243e-02  -8.136336e-02  0 
 -2.178784e-02  -7.580403e-02  0 
 -2.653983e-02  -8.098966e-02  0 
 -1.744011e-02  -8.050936e-02  0 
 -3.130718e-02  -8.601493e-02  0 
 -3.606625e-02  -9.090553e-02  0 
 -2.206049e-02  -8.554308e-02  0 
 -2.673658e-02  -9.047276e-02  0 
 -1.761650e-02  -8.989096e-02  0 
 -3.170481e-02  -4.535045e-02  0 
 -2.249987e-02  -4.424922e-02  0 
 -3.394809e-02  -5.596503e-02  0 
 -2.451948e-02  -5.515671e-02  0 
 -3.522500e-02  -6.638160e-02  0 
 -2.573568e-02  -6.580680e-02  0 
 -1.676205e-02  -6.515537e-02  0 
 -3.581946e-02  -7.646663e-02  0 
 -2.637071e-02  -7.605407e-02  0 
 -1.729715e-02  -7.555902e-02  0 
 -3.602381e-02  -8.616932e-02  0 
 -2.665057e-02  -8.579529e-02  0 
 -1.753403e-02  -8.529027e-02  0 
VECTORS displacement_ITER11 FLOAT
 -3.804890e-02  -5.105500e-02  0 
 -3.972277e-02  -6.145574e-02  0 
 -4.050486e-02  -7.161255e-02  0 
 -4.073430e-02  -8.143183e-02  0 
 -4.076616e-02  -9.095424e-02  0 
 -2.815038e-02  -5.021347e-02  0 
 -1.927072e-02  -4.923421e-02  0 
 -2.984583e-02  -6.090687e-02  0 
 -2.071884e-02  -6.017335e-02  0 
 -3.077875e-02  -7.127225e-02  0 
 -2.155054e-02  -7.072487e-02  0 
 -3.120115e-02  -8.120456e-02  0 
 -2.196164e-02  -8.074671e-02  0 
 -3.137059e-02  -9.070738e-02  0 
 -2.216383e-02  -9.015902e-02  0 
 -3.677864e-02  -4.581217e-02  0 
 -3.901722e-02  -5.627692e-02  0 
 -4.020488e-02  -6.657264e-02  0 
 -4.066623e-02  -7.656611e-02  0 
 -4.075447e-02  -8.621915e-02  0 
 -2.693534e-02  -4.479423e-02  0 
 -3.296029e-02  -5.067213e-02  0 
 -1.826128e-02  -4.367783e-02  0 
 -2.359609e-02  -4.972090e-02  0 
 -2.910936e-02  -5.559159e-02  0 
 -3.468146e-02  -6.122462e-02  0 
 -2.008379e-02  -5.474008e-02  0 
 -2.519755e-02  -6.054373e-02  0 
 -3.039183e-02  -6.613919e-02  0 
 -3.557567e-02  -7.148797e-02  0 
 -2.119816e-02  -6.550457e-02  0 
 -2.610689e-02  -7.100647e-02  0 
 -1.709683e-02  -7.045536e-02  0 
 -3.103806e-02  -7.629522e-02  0 
 -3.593629e-02  -8.136415e-02  0 
 -2.179646e-02  -7.580915e-02  0 
 -2.654115e-02  -8.098867e-02  0 
 -1.746070e-02  -8.050669e-02  0 
 -3.129988e-02  -8.600519e-02  0 
 -3.604988e-02  -9.088679e-02  0 
 -2.207328e-02  -8.553174e-02  0 
 -2.673916e-02  -9.045176e-02  0 
 -1.764494e-02  -8.986568e-02  0 
 -3.170111e-02  -4.533714e-02  0 
 -2.246812e-02  -4.423044e-02  0 
 -3.394222e-02  -5.597524e-02  0 
 -2.449723e-02  -5.516787e-02  0 
 -3.521379e-02  -6.640075e-02  0 
 -2.572518e-02  -6.582912e-02  0 
 -1.679050e-02  -6.519621e-02  0 
 -3.580415e-02  -7.647640e-02  0 
 -2.636936e-02  -7.606215e-02  0 
 -1.731443e-02  -7.556211e-02  0 
 -3.600742e-02  -8.616026e-02  0 
 -2.665271e-02  -8.578456e-02  0 
 -1.756037e-02  -8.527835e-02  0 
VECTORS displacement_ITER12 FLOAT
 -3.805280e-02  -5.105444e-02  0 
 -3.972136e-02  -6.146029e-02  0 
 -4.049785e-02  -7.161610e-02  0 
 -4.072436e-02  -8.142957e-02  0 
 -4.075577e-02  -9.094475e-02  0 
 -2.814689e-02  -5.021313e-02  0 
 -1.925710e-02  -4.923208e-02  0 
 -2.984237e-02  -6.091298e-02  0 
 -2.071164e-02  -6.017935e-02  0 
 -3.077472e-02  -7.127671e-02  0 
 -2.155165e-02  -7.072874e-02  0 
 -3.119751e-02  -8.120212e-02  0 
 -2.196474e-02  -8.074309e-02  0 
 -3.136724e-02  -9.069758e-02  0 
 -2.216767e-02  -9.014755e-02  0 
 -3.678467e-02  -4.580742e-02  0 
 -3.901874e-02  -5.627957e-02  0 
 -4.020047e-02  -6.657746e-02  0 
 -4.065734e-02  -7.656714e-02  0 
 -4.074415e-02  -8.621328e-02  0 
 -2.693216e-02  -4.478886e-02  0 
 -3.296063e-02  -5.067189e-02  0 
 -1.824423e-02  -4.366975e-02  0 
 -2.358781e-02  -4.972011e-02  0 
 -2.910598e-02  -5.559540e-02  0 
 -3.467900e-02  -6.122998e-02  0 
 -2.007329e-02  -5.474312e-02  0 
 -2.519319e-02  -6.055064e-02  0 
 -3.038802e-02  -6.614542e-02  0 
 -3.557030e-02  -7.149207e-02  0 
 -2.119711e-02  -6.551444e-02  0 
 -2.610451e-02  -7.101107e-02  0 
 -1.710426e-02  -7.045808e-02  0 
 -3.103416e-02  -7.629654e-02  0 
 -3.592959e-02  -8.136197e-02  0 
 -2.179900e-02  -7.580877e-02  0 
 -2.654078e-02  -8.098564e-02  0 
 -1.746698e-02  -8.050253e-02  0 
 -3.129641e-02  -8.599896e-02  0 
 -3.604307e-02  -9.087725e-02  0 
 -2.207675e-02  -8.552444e-02  0 
 -2.673924e-02  -9.044135e-02  0 
 -1.765344e-02  -8.985299e-02  0 
 -3.170199e-02  -4.533243e-02  0 
 -2.245781e-02  -4.422287e-02  0 
 -3.394129e-02  -5.597858e-02  0 
 -2.449072e-02  -5.517145e-02  0 
 -3.520975e-02  -6.640631e-02  0 
 -2.572186e-02  -6.583641e-02  0 
 -1.680156e-02  -6.521114e-02  0 
 -3.579790e-02  -7.647775e-02  0 
 -2.636826e-02  -7.606289e-02  0 
 -1.732031e-02  -7.556103e-02  0 
 -3.600059e-02  -8.615434e-02  0 
 -2.665259e-02  -8.577782e-02  0 
 -1.756816e-02  -8.527029e-02  0 
VECTORS displacement_ITER13 FLOAT
 -3.805347e-02  -5.105678e-02  0 
 -3.972464e-02  -6.145847e-02  0 
 -4.050403e-02  -7.161425e-02  0 
 -4.073219e-02  -8.143100e-02  0 
 -4.076392e-02  -9.095054e-02  0 
 -2.815294e-02  -5.021524e-02  0 
 -1.927071e-02  -4.923473e-02  0 
 -2.984770e-02  -6.091054e-02  0 
 -2.071932e-02  -6.017705e-02  0 
 -3.077929e-02  -7.127451e-02  0 
 -2.155338e-02  -7.072709e-02  0 
 -3.120152e-02  -8.120355e-02  0 
 -2.196421e-02  -8.074493e-02  0 
 -3.137104e-02  -9.070365e-02  0 
 -2.216641e-02  -9.015456e-02  0 
 -3.678476e-02  -4.581312e-02  0 
 -3.902058e-02  -5.627934e-02  0 
 -4.020528e-02  -6.657512e-02  0 
 -4.066455e-02  -7.656666e-02  0 
 -4.075224e-02  -8.621688e-02  0 
 -2.693894e-02  -4.479433e-02  0 
 -3.296409e-02  -5.067399e-02  0 
 -1.825906e-02  -4.367736e-02  0 
 -2.359682e-02  -4.972252e-02  0 
 -2.911167e-02  -5.559473e-02  0 
 -3.468331e-02  -6.122780e-02  0 
 -2.008401e-02  -5.474310e-02  0 
 -2.519952e-02  -6.054808e-02  0 
 -3.039297e-02  -6.614252e-02  0 
 -3.557564e-02  -7.148996e-02  0 
 -2.120112e-02  -6.551178e-02  0 
 -2.610801e-02  -7.100901e-02  0 
 -1.710391e-02  -7.045665e-02  0 
 -3.103838e-02  -7.629590e-02  0 
 -3.593548e-02  -8.136334e-02  0 
 -2.179941e-02  -7.580854e-02  0 
 -2.654272e-02  -8.098724e-02  0 
 -1.746327e-02  -8.050468e-02  0 
 -3.130030e-02  -8.600271e-02  0 
 -3.604904e-02  -9.088309e-02  0 
 -2.207566e-02  -8.552871e-02  0 
 -2.674068e-02  -9.044787e-02  0 
 -1.764901e-02  -8.986012e-02  0 
 -3.170496e-02  -4.533770e-02  0 
 -2.246694e-02  -4.422836e-02  0 
 -3.394510e-02  -5.597806e-02  0 
 -2.449865e-02  -5.517073e-02  0 
 -3.521462e-02  -6.640361e-02  0 
 -2.572672e-02  -6.583344e-02  0 
 -1.680090e-02  -6.520734e-02  0 
 -3.580358e-02  -7.647710e-02  0 
 -2.637078e-02  -7.606244e-02  0 
 -1.731805e-02  -7.556111e-02  0 
 -3.600657e-02  -8.615795e-02  0 
 -2.665421e-02  -8.578181e-02  0 
 -1.756397e-02  -8.527467e-02  0 
VECTORS displacement_ITER14 FLOAT
 -3.805130e-02  -5.105635e-02  0 
 -3.972310e-02  -6.145777e-02  0 
 -4.050299e-02  -7.161377e-02  0 
 -4.073130e-02  -8.143085e-02  0 
 -4.076303e-02  -9.095071e-02  0 
 -2.815113e-02  -5.021462e-02  0 
 -1.926995e-02  -4.923422e-02  0 
 -2.984614e-02  -6.090961e-02  0 
 -2.071759e-02  -6.017578e-02  0 
 -3.077807e-02  -7.127394e-02  0 
 -2.155177e-02  -7.072635e-02  0 
 -3.120037e-02  -8.120347e-02  0 
 -2.196300e-02  -8.074521e-02  0 
 -3.136985e-02  -9.070380e-02  0 
 -2.216539e-02  -9.015444e-02  0 
 -3.678255e-02  -4.581289e-02  0 
 -3.901870e-02  -5.627869e-02  0 
 -4.020403e-02  -6.657449e-02  0 
 -4.066363e-02  -7.656634e-02  0 
 -4.075135e-02  -8.621689e-02  0 
 -2.693725e-02  -4.479412e-02  0 
 -3.296212e-02  -5.067345e-02  0 
 -1.825875e-02  -4.367792e-02  0 
 -2.359528e-02  -4.972191e-02  0 
 -2.910996e-02  -5.559386e-02  0 
 -3.468176e-02  -6.122700e-02  0 
 -2.008242e-02  -5.474224e-02  0 
 -2.519786e-02  -6.054698e-02  0 
 -3.039158e-02  -6.614172e-02  0 
 -3.557449e-02  -7.148943e-02  0 
 -2.119934e-02  -6.551029e-02  0 
 -2.610671e-02  -7.100836e-02  0 
 -1.710173e-02  -7.045577e-02  0 
 -3.103725e-02  -7.629560e-02  0 
 -3.593444e-02  -8.136319e-02  0 
 -2.179801e-02  -7.580842e-02  0 
 -2.654152e-02  -8.098730e-02  0 
 -1.746200e-02  -8.050511e-02  0 
 -3.129912e-02  -8.600276e-02  0 
 -3.604800e-02  -9.088326e-02  0 
 -2.207458e-02  -8.552899e-02  0 
 -2.673943e-02  -9.044794e-02  0 
 -1.764882e-02  -8.985994e-02  0 
 -3.170265e-02  -4.533739e-02  0 
 -2.246517e-02  -4.422799e-02  0 
 -3.394332e-02  -5.597732e-02  0 
 -2.449706e-02  -5.516975e-02  0 
 -3.521329e-02  -6.640291e-02  0 
 -2.572522e-02  -6.583243e-02  0 
 -1.679771e-02  -6.520492e-02  0 
 -3.580252e-02  -7.647677e-02  0 
 -2.636956e-02  -7.606221e-02  0 
 -1.731619e-02  -7.556101e-02  0 
 -3.600553e-02  -8.615797e-02  0 
 -2.665297e-02  -8.578194e-02  0 
 -1.756348e-02  -8.527507e-02  0 
VECTORS displacement_ITER15 FLOAT
 -3.805225e-02  -5.105597e-02  0 
 -3.972361e-02  -6.145822e-02  0 
 -4.050290e-02  -7.161444e-02  0 
 -4.073080e-02  -8.143112e-02  0 
 -4.076244e-02  -9.095041e-02  0 
 -2.815108e-02  -5.021420e-02  0 
 -1.926896e-02  -4.923379e-02  0 
 -2.984612e-02  -6.091017e-02  0 
 -2.071682e-02  -6.017627e-02  0 
 -3.077808e-02  -7.127474e-02  0 
 -2.155202e-02  -7.072717e-02  0 
 -3.120034e-02  -8.120378e-02  0 
 -2.196363e-02  -8.074563e-02  0 
 -3.136981e-02  -9.070340e-02  0 
 -2.216628e-02  -9.015344e-02  0 