# vtk DataFile Version 3.1
this is an vtk file created by FEMAC
ASCII
DATASET UNSTRUCTURED_GRID
POINTS 56 FLOAT
0.000000 0.000000 0.000000
1.000000 0.000000 0.000000
2.000000 0.000000 0.000000
0.000000 1.000000 0.000000
1.000000 1.000000 0.000000
0.000000 2.000000 0.000000
1.000000 2.000000 0.000000
0.000000 3.000000 0.000000
1.000000 3.000000 0.000000
0.000000 4.000000 0.000000
1.000000 4.000000 0.000000
2.000000 1.000000 0.000000
2.000000 2.000000 0.000000
2.000000 3.000000 0.000000
2.000000 4.000000 0.000000
0.500000 0.000000 0.000000
1.500000 0.000000 0.000000
2.500000 0.000000 0.000000
0.500000 1.000000 0.000000
0.000000 0.500000 0.000000
1.000000 0.500000 0.000000
0.500000 2.000000 0.000000
0.000000 1.500000 0.000000
1.000000 1.500000 0.000000
0.500000 3.000000 0.000000
0.000000 2.500000 0.000000
1.000000 2.500000 0.000000
0.500000 4.000000 0.000000
0.000000 3.500000 0.000000
1.000000 3.500000 0.000000
0.000000 4.500000 0.000000
1.000000 4.500000 0.000000
1.500000 1.000000 0.000000
2.000000 0.500000 0.000000
1.500000 2.000000 0.000000
2.000000 1.500000 0.000000
1.500000 3.000000 0.000000
2.000000 2.500000 0.000000
1.500000 4.000000 0.000000
2.000000 3.500000 0.000000
2.000000 4.500000 0.000000
2.500000 1.000000 0.000000
2.500000 2.000000 0.000000
0.500000 0.500000 0.000000
0.500000 1.500000 0.000000
0.500000 2.500000 0.000000
0.500000 3.500000 0.000000
0.500000 4.500000 0.000000
1.500000 0.500000 0.000000
1.500000 1.500000 0.000000
1.500000 2.500000 0.000000
1.500000 3.500000 0.000000
1.500000 4.500000 0.000000
2.500000 0.500000 0.000000
2.500000 1.500000 0.000000
2.500000 2.500000 0.000000
CELLS 41 205 
4 0 15 43 19
4 19 43 18  3
4 15  1 20 43
4 43 20  4 18
4 3 18 44 22
4 22 44 21  5
4 18  4 23 44
4 44 23  6 21
4 5 21 45 25
4 25 45 24  7
4 21  6 26 45
4 45 26  8 24
4 7 24 46 28
4 28 46 27  9
4 24  8 29 46
4 46 29 10 27
4 9 27 47 30
4 27 10 31 47
4 1 16 48 20
4 20 48 32  4
4 16  2 33 48
4 48 33 11 32
4 4 32 49 23
4 23 49 34  6
4 32 11 35 49
4 49 35 12 34
4 6 34 50 26
4 26 50 36  8
4 34 12 37 50
4 50 37 13 36
4 8 36 51 29
4 29 51 38 10
4 36 13 39 51
4 51 39 14 38
4 10 38 52 31
4 38 14 40 52
4 2 17 53 33
4 33 53 41 11
4 11 41 54 35
4 35 54 42 12
4 12 42 55 37
CELL_TYPES 41
9 9 9 9 9 9 9 9 9 9 9 9 9 9 9 9 9 9 9 9 9 9 9 9 9 9 9 9 9 9 9 9 9 9 9 9 9 9 9 9 9 
POINT_DATA 56
VECTORS displacement_ITER1 FLOAT
 0  0  0 
 -3.861417e-02  -2.806332e-02  0 
 -1.383236e-01  -8.889768e-02  0 
 0  0  0 
 -2.395387e-02  -2.223808e-02  0 
 0  0  0 
 -8.216888e-03  -2.356114e-02  0 
 0  0  0 
 1.125131e-03  -2.445456e-02  0 
 0  0  0 
 8.451456e-03  -2.587100e-02  0 
 -5.120782e-02  -7.520723e-02  0 
 -1.340286e-02  -6.503185e-02  0 
 -5.100263e-03  -5.025332e-02  0 
 1.349170e-02  -5.443487e-02  0 
 -2.270042e-02  -1.343742e-02  0 
 -8.983944e-02  -5.730526e-02  0 
 -1.506521e-01  -1.359030e-01  0 
 -8.059685e-03  -8.786257e-03  0 
 0  0  0 
 -2.510740e-02  -2.240906e-02  0 
 -7.343728e-03  -1.009348e-02  0 
 0  0  0 
 -1.985299e-02  -2.474361e-02  0 
 3.894757e-03  -1.075205e-02  0 
 0  0  0 
 -2.042238e-03  -2.186657e-02  0 
 1.870681e-03  -1.053319e-02  0 
 0  0  0 
 4.394214e-03  -2.694509e-02  0 
 0  0  0 
 1.746116e-02  -2.595141e-02  0 
 -4.047144e-02  -4.241255e-02  0 
 -9.507004e-02  -8.311470e-02  0 
 -7.588292e-03  -4.376817e-02  0 
 -2.480484e-02  -6.727158e-02  0 
 -2.761461e-03  -3.893863e-02  0 
 -1.922963e-03  -6.425558e-02  0 
 1.297228e-02  -3.875120e-02  0 
 3.383506e-03  -5.060609e-02  0 
 3.180745e-02  -6.898345e-02  0 
 -5.996185e-02  -1.227986e-01  0 
 -2.178153e-02  -8.827473e-02  0 
 -1.378788e-02  -1.033792e-02  0 
 -8.868778e-03  -9.455545e-03  0 
 -1.578317e-03  -1.034340e-02  0 
 2.220061e-03  -1.153836e-02  0 
 1.329539e-02  -1.265513e-02  0 
 -6.128540e-02  -4.448182e-02  0 
 -2.219404e-02  -4.280957e-02  0 
 -2.837699e-03  -4.180632e-02  0 
 4.028583e-03  -3.764885e-02  0 
 2.507187e-02  -4.147688e-02  0 
 -1.030689e-01  -1.301184e-01  0 
 -3.684247e-02  -1.003728e-01  0 
 3.764034e-04  -8.938188e-02  0 
VECTORS displacement_ITER2 FLOAT
 0  0  0 
 -4.386353e-02  -3.208359e-02  0 
 -1.554123e-01  -1.016772e-01  0 
 0  0  0 
 -2.709916e-02  -2.575096e-02  0 
 0  0  0 
 -9.445841e-03  -2.739149e-02  0 
 0  0  0 
 8.285341e-04  -2.885088e-02  0 
 0  0  0 
 9.033085e-03  -3.074378e-02  0 
 -5.766079e-02  -8.598258e-02  0 
 -1.528080e-02  -7.518530e-02  0 
 -6.263411e-03  -5.891148e-02  0 
 1.401177e-02  -6.439258e-02  0 
 -2.585034e-02  -1.536860e-02  0 
 -1.014907e-01  -6.549601e-02  0 
 -1.686438e-01  -1.540917e-01  0 
 -9.066912e-03  -1.014271e-02  0 
 0  0  0 
 -2.844337e-02  -2.575001e-02  0 
 -8.555139e-03  -1.184159e-02  0 
 0  0  0 
 -2.250529e-02  -2.874304e-02  0 
 4.348277e-03  -1.264743e-02  0 
 0  0  0 
 -2.564532e-03  -2.553259e-02  0 
 1.695440e-03  -1.255429e-02  0 
 0  0  0 
 4.322513e-03  -3.201500e-02  0 
 0  0  0 
 1.964308e-02  -3.079522e-02  0 
 -4.576363e-02  -4.888981e-02  0 
 -1.069191e-01  -9.508087e-02  0 
 -8.599636e-03  -5.053829e-02  0 
 -2.805215e-02  -7.722967e-02  0 
 -3.808962e-03  -4.588069e-02  0 
 -2.039855e-03  -7.465813e-02  0 
 1.395154e-02  -4.597069e-02  0 
 2.997443e-03  -5.953679e-02  0 
 3.440891e-02  -8.211027e-02  0 
 -6.733747e-02  -1.398627e-01  0 
 -2.481896e-02  -1.021389e-01  0 
 -1.566354e-02  -1.187254e-02  0 
 -1.008814e-02  -1.099087e-02  0 
 -1.975867e-03  -1.218110e-02  0 
 2.205802e-03  -1.364710e-02  0 
 1.510364e-02  -1.497097e-02  0 
 -6.901203e-02  -5.113143e-02  0 
 -2.517724e-02  -4.940395e-02  0 
 -3.424489e-03  -4.865911e-02  0 
 3.801514e-03  -4.457661e-02  0 
 2.750735e-02  -4.932436e-02  0 
 -1.160462e-01  -1.479530e-01  0 
 -4.062387e-02  -1.145760e-01  0 
 5.456568e-04  -1.039068e-01  0 
VECTORS displacement_ITER3 FLOAT
 0  0  0 
 -3.688372e-02  -2.802881e-02  0 
 -1.181657e-01  -7.674400e-02  0 
 0  0  0 
 -2.657773e-02  -2.366409e-02  0 
 0  0  0 
 -1.617560e-02  -2.516457e-02  0 
 0  0  0 
 -6.801290e-03  -2.675079e-02  0 
 0  0  0 
 2.023300e-03  -2.903628e-02  0 
 -5.662113e-02  -6.595054e-02  0 
 -2.867642e-02  -6.266552e-02  0 
 -1.796163e-02  -6.028157e-02  0 
 2.151455e-03  -6.446251e-02  0 
 -2.248479e-02  -1.410205e-02  0 
 -8.012048e-02  -5.364043e-02  0 
 -1.273211e-01  -1.067981e-01  0 
 -8.874758e-03  -1.002180e-02  0 
 0  0  0 
 -2.490342e-02  -2.303274e-02  0 
 -1.115276e-02  -1.134023e-02  0 
 0  0  0 
 -2.714866e-02  -2.653193e-02  0 
 5.330848e-04  -1.148008e-02  0 
 0  0  0 
 -8.151730e-03  -2.345513e-02  0 
 -1.822322e-03  -1.191900e-02  0 
 0  0  0 
 -4.441934e-03  -3.027323e-02  0 
 0  0  0 
 1.181747e-02  -2.835973e-02  0 
 -4.449992e-02  -4.062328e-02  0 
 -8.928004e-02  -7.191850e-02  0 
 -1.972385e-02  -4.347327e-02  0 
 -3.482015e-02  -6.116554e-02  0 
 -1.486600e-02  -4.376236e-02  0 
 -2.518123e-02  -6.575810e-02  0 
 4.535536e-03  -4.549758e-02  0 
 -7.387613e-03  -6.011562e-02  0 
 1.588303e-02  -7.915137e-02  0 
 -6.693438e-02  -9.986429e-02  0 
 -3.878370e-02  -8.036736e-02  0 
 -1.405691e-02  -1.139207e-02  0 
 -1.187794e-02  -1.100238e-02  0 
 -5.230167e-03  -1.129828e-02  0 
 -1.774356e-03  -1.265568e-02  0 
 9.536071e-03  -1.330998e-02  0 
 -5.823178e-02  -4.265496e-02  0 
 -3.110340e-02  -4.158207e-02  0 
 -1.667116e-02  -4.403667e-02  0 
 -5.651783e-03  -4.380310e-02  0 
 1.484254e-02  -4.826853e-02  0 
 -9.657717e-02  -1.038273e-01  0 
 -4.831944e-02  -8.765010e-02  0 
 -2.785318e-02  -8.014745e-02  0 
VECTORS displacement_ITER4 FLOAT
 0  0  0 
 -3.396776e-02  -2.685574e-02  0 
 -9.941570e-02  -6.864052e-02  0 
 0  0  0 
 -2.561544e-02  -2.341460e-02  0 
 0  0  0 
 -1.800896e-02  -2.424074e-02  0 
 0  0  0 
 -9.201527e-03  -2.483801e-02  0 
 0  0  0 
 -2.082140e-03  -2.662399e-02  0 
 -5.485372e-02  -5.940953e-02  0 
 -3.377792e-02  -5.750614e-02  0 
 -2.161233e-02  -5.689671e-02  0 
 -4.305993e-03  -5.898751e-02  0 
 -2.113685e-02  -1.372947e-02  0 
 -7.027300e-02  -5.004706e-02  0 
 -1.056136e-01  -8.881429e-02  0 
 -8.379585e-03  -1.019289e-02  0 
 0  0  0 
 -2.303593e-02  -2.248742e-02  0 
 -1.165854e-02  -1.093936e-02  0 
 0  0  0 
 -2.810015e-02  -2.607893e-02  0 
 -7.728652e-04  -1.077097e-02  0 
 0  0  0 
 -9.647159e-03  -2.207224e-02  0 
 -3.863241e-03  -1.122789e-02  0 
 0  0  0 
 -8.095658e-03  -2.811131e-02  0 
 0  0  0 
 5.758026e-03  -2.526010e-02  0 
 -4.299124e-02  -3.825401e-02  0 
 -7.941670e-02  -6.471666e-02  0 
 -2.337307e-02  -4.084412e-02  0 
 -3.679768e-02  -5.536621e-02  0 
 -1.819784e-02  -4.031655e-02  0 
 -3.337087e-02  -6.101404e-02  0 
 -8.646851e-04  -4.210858e-02  0 
 -1.153987e-02  -5.564682e-02  0 
 2.513689e-03  -6.898153e-02  0 
 -6.540583e-02  -8.489242e-02  0 
 -4.476301e-02  -7.239460e-02  0 
 -1.320855e-02  -1.135913e-02  0 
 -1.209497e-02  -1.109348e-02  0 
 -6.042756e-03  -1.071268e-02  0 
 -3.427853e-03  -1.190827e-02  0 
 5.265897e-03  -1.182312e-02  0 
 -5.234213e-02  -4.070855e-02  0 
 -3.254168e-02  -3.909875e-02  0 
 -2.086138e-02  -4.086973e-02  0 
 -9.559045e-03  -4.057978e-02  0 
 5.358681e-03  -4.423415e-02  0 
 -8.550807e-02  -8.726009e-02  0 
 -5.175906e-02  -7.748362e-02  0 
 -3.775632e-02  -7.164899e-02  0 
VECTORS displacement_ITER5 FLOAT
 0  0  0 
 -3.333915e-02  -2.650742e-02  0 
 -9.493062e-02  -6.722187e-02  0 
 0  0  0 
 -2.533049e-02  -2.295658e-02  0 
 0  0  0 
 -1.765186e-02  -2.325168e-02  0 
 0  0  0 
 -8.823084e-03  -2.367136e-02  0 
 0  0  0 
 -3.987581e-03  -2.487747e-02  0 
 -5.491547e-02  -5.819438e-02  0 
 -3.377882e-02  -5.612460e-02  0 
 -2.022489e-02  -5.299803e-02  0 
 -7.027663e-03  -5.352203e-02  0 
 -2.078010e-02  -1.353743e-02  0 
 -6.825890e-02  -4.946494e-02  0 
 -1.000611e-01  -8.431054e-02  0 
 -8.232856e-03  -1.005157e-02  0 
 0  0  0 
 -2.257905e-02  -2.220182e-02  0 
 -1.128060e-02  -1.041169e-02  0 
 0  0  0 
 -2.786879e-02  -2.526229e-02  0 
 -8.115298e-04  -1.032100e-02  0 
 0  0  0 
 -9.248554e-03  -2.106661e-02  0 
 -4.930531e-03  -1.091475e-02  0 
 0  0  0 
 -8.571788e-03  -2.676468e-02  0 
 0  0  0 
 1.499784e-03  -2.282297e-02  0 
 -4.275730e-02  -3.749232e-02  0 
 -7.751570e-02  -6.348105e-02  0 
 -2.318139e-02  -3.952569e-02  0 
 -3.710969e-02  -5.421644e-02  0 
 -1.719128e-02  -3.776030e-02  0 
 -3.097096e-02  -5.890097e-02  0 
 -3.112949e-03  -3.899843e-02  0 
 -1.167363e-02  -5.107055e-02  0 
 -6.192938e-03  -5.828100e-02  0 
 -6.588847e-02  -8.176161e-02  0 
 -4.510689e-02  -7.339973e-02  0 
 -1.296530e-02  -1.121571e-02  0 
 -1.188105e-02  -1.072871e-02  0 
 -5.835064e-03  -1.019480e-02  0 
 -3.710852e-03  -1.157091e-02  0 
 2.248026e-03  -1.097500e-02  0 
 -5.112655e-02  -4.039572e-02  0 
 -3.249985e-02  -3.808118e-02  0 
 -1.973259e-02  -3.886526e-02  0 
 -9.997484e-03  -3.781474e-02  0 
 -1.013050e-03  -4.033000e-02  0 
 -8.334745e-02  -8.345813e-02  0 
 -5.297531e-02  -7.642487e-02  0 
 -3.423558e-02  -7.349261e-02  0 
VECTORS displacement_ITER6 FLOAT
 0  0  0 
 -3.502903e-02  -2.746633e-02  0 
 -1.022044e-01  -7.207697e-02  0 
 0  0  0 
 -2.609458e-02  -2.333804e-02  0 
 0  0  0 
 -1.704079e-02  -2.345929e-02  0 
 0  0  0 
 -7.873835e-03  -2.377881e-02  0 
 0  0  0 
 -4.043168e-03  -2.449774e-02  0 
 -5.695599e-02  -6.190851e-02  0 
 -3.281597e-02  -5.817895e-02  0 
 -1.836419e-02  -5.248935e-02  0 
 -6.638574e-03  -5.239248e-02  0 
 -2.163729e-02  -1.389322e-02  0 
 -7.294710e-02  -5.211281e-02  0 
 -1.077063e-01  -9.175623e-02  0 
 -8.517582e-03  -1.012628e-02  0 
 0  0  0 
 -2.359775e-02  -2.281575e-02  0 
 -1.102256e-02  -1.037986e-02  0 
 0  0  0 
 -2.794211e-02  -2.553168e-02  0 
 -3.754642e-04  -1.040723e-02  0 
 0  0  0 
 -8.566657e-03  -2.122264e-02  0 
 -5.175178e-03  -1.105398e-02  0 
 0  0  0 
 -7.760481e-03  -2.673953e-02  0 
 0  0  0 
 -6.392316e-05  -2.207015e-02  0 
 -4.418126e-02  -3.894124e-02  0 
 -8.227876e-02  -6.793581e-02  0 
 -2.219999e-02  -4.061811e-02  0 
 -3.733403e-02  -5.707945e-02  0 
 -1.569004e-02  -3.759860e-02  0 
 -2.779188e-02  -6.000237e-02  0 
 -2.748989e-03  -3.829703e-02  0 
 -1.042080e-02  -5.015054e-02  0 
 -6.428329e-03  -5.489371e-02  0 
 -6.856909e-02  -8.873034e-02  0 
 -4.454429e-02  -7.779396e-02  0 
 -1.347028e-02  -1.139956e-02  0 
 -1.189659e-02  -1.067471e-02  0 
 -5.457785e-03  -1.021646e-02  0 
 -3.379048e-03  -1.168933e-02  0 
 9.571293e-04  -1.096041e-02  0 
 -5.400031e-02  -4.224070e-02  0 
 -3.257274e-02  -3.936640e-02  0 
 -1.802880e-02  -3.928802e-02  0 
 -9.085474e-03  -3.740680e-02  0 
 -2.165618e-03  -3.918480e-02  0 
 -8.856350e-02  -9.083761e-02  0 
 -5.405779e-02  -8.162891e-02  0 
 -3.011948e-02  -7.819872e-02  0 
VECTORS displacement_ITER7 FLOAT
 0  0  0 
 -3.452913e-02  -2.693256e-02  0 
 -1.011569e-01  -7.022363e-02  0 
 0  0  0 
 -2.605769e-02  -2.278944e-02  0 
 0  0  0 
 -1.743695e-02  -2.302412e-02  0 
 0  0  0 
 -8.262551e-03  -2.335756e-02  0 
 0  0  0 
 -3.681471e-03  -2.381344e-02  0 
 -5.697871e-02  -6.022627e-02  0 
 -3.335073e-02  -5.652256e-02  0 
 -1.871069e-02  -5.361314e-02  0 
 -5.641125e-03  -5.357765e-02  0 
 -2.131779e-02  -1.366092e-02  0 
 -7.206321e-02  -5.099942e-02  0 
 -1.067306e-01  -8.900870e-02  0 
 -8.563137e-03  -9.937335e-03  0 
 0  0  0 
 -2.338997e-02  -2.231601e-02  0 
 -1.114236e-02  -1.021150e-02  0 
 0  0  0 
 -2.816240e-02  -2.496657e-02  0 
 -5.954205e-04  -1.014723e-02  0 
 0  0  0 
 -8.929142e-03  -2.087301e-02  0 
 -5.086169e-03  -1.080007e-02  0 
 0  0  0 
 -7.687700e-03  -2.618993e-02  0 
 0  0  0 
 -4.206045e-04  -2.127444e-02  0 
 -4.406160e-02  -3.785561e-02  0 
 -8.193613e-02  -6.610263e-02  0 
 -2.280903e-02  -3.967999e-02  0 
 -3.753512e-02  -5.546764e-02  0 
 -1.628090e-02  -3.752387e-02  0 
 -2.954469e-02  -5.847954e-02  0 
 -1.889510e-03  -3.822209e-02  0 
 -1.014071e-02  -5.113158e-02  0 
 -2.154535e-03  -5.599972e-02  0 
 -6.878311e-02  -8.638586e-02  0 
 -4.498152e-02  -7.465342e-02  0 
 -1.334570e-02  -1.120541e-02  0 
 -1.200585e-02  -1.049795e-02  0 
 -5.646714e-03  -1.000613e-02  0 
 -3.347201e-03  -1.133780e-02  0 
 2.602155e-04  -1.068105e-02  0 
 -5.366136e-02  -4.117281e-02  0 
 -3.278701e-02  -3.831986e-02  0 
 -1.901715e-02  -3.879067e-02  0 
 -8.960005e-03  -3.748853e-02  0 
 -6.263964e-04  -3.879446e-02  0 
 -8.818834e-02  -8.832286e-02  0 
 -5.447754e-02  -7.949555e-02  0 
 -3.244597e-02  -7.435324e-02  0 
VECTORS displacement_ITER8 FLOAT
 0  0  0 
 -3.428768e-02  -2.677956e-02  0 
 -1.002188e-01  -6.952962e-02  0 
 0  0  0 
 -2.595115e-02  -2.271004e-02  0 
 0  0  0 
 -1.758967e-02  -2.299622e-02  0 
 0  0  0 
 -8.495820e-03  -2.329581e-02  0 
 0  0  0 
 -3.589254e-03  -2.367644e-02  0 
 -5.670554e-02  -5.967284e-02  0 
 -3.359296e-02  -5.600684e-02  0 
 -1.911207e-02  -5.420118e-02  0 
 -5.400400e-03  -5.420318e-02  0 
 -2.118999e-02  -1.360100e-02  0 
 -7.143910e-02  -5.060748e-02  0 
 -1.057692e-01  -8.797339e-02  0 
 -8.529651e-03  -9.918583e-03  0 
 0  0  0 
 -2.324705e-02  -2.220762e-02  0 
 -1.121028e-02  -1.021976e-02  0 
 0  0  0 
 -2.817959e-02  -2.491397e-02  0 
 -6.921082e-04  -1.010837e-02  0 
 0  0  0 
 -9.099942e-03  -2.084070e-02  0 
 -5.052164e-03  -1.072376e-02  0 
 0  0  0 
 -7.780615e-03  -2.608605e-02  0 
 0  0  0 
 -3.759153e-04  -2.114010e-02  0 
 -4.385870e-02  -3.759329e-02  0 
 -8.132270e-02  -6.546386e-02  0 
 -2.303791e-02  -3.947038e-02  0 
 -3.752303e-02  -5.494400e-02  0 
 -1.667985e-02  -3.762781e-02  0 
 -3.037246e-02  -5.803634e-02  0 
 -1.681045e-03  -3.834612e-02  0 
 -1.027155e-02  -5.164686e-02  0 
 -5.235927e-04  -5.698652e-02  0 
 -6.845538e-02  -8.543992e-02  0 
 -4.522063e-02  -7.352346e-02  0 
 -1.327351e-02  -1.116982e-02  0 
 -1.202261e-02  -1.050804e-02  0 
 -5.733564e-03  -9.996057e-03  0 
 -3.377984e-03  -1.124892e-02  0 
 1.160378e-04  -1.060817e-02  0 
 -5.328059e-02  -4.087725e-02  0 
 -3.278990e-02  -3.807694e-02  0 
 -1.949915e-02  -3.874900e-02  0 
 -9.064135e-03  -3.764825e-02  0 
 2.874834e-05  -3.887392e-02  0 
 -8.748055e-02  -8.733683e-02  0 
 -5.452340e-02  -7.865756e-02  0 
 -3.347109e-02  -7.299358e-02  0 
VECTORS displacement_ITER9 FLOAT
 0  0  0 
 -3.428544e-02  -2.678192e-02  0 
 -1.004102e-01  -6.950453e-02  0 
 0  0  0 
 -2.591907e-02  -2.273881e-02  0 
 0  0  0 
 -1.758430e-02  -2.309630e-02  0 
 0  0  0 
 -8.612449e-03  -2.345597e-02  0 
 0  0  0 
 -3.534097e-03  -2.375734e-02  0 
 -5.654959e-02  -5.976134e-02  0 
 -3.346119e-02  -5.609669e-02  0 
 -1.940256e-02  -5.487696e-02  0 
 -5.356648e-03  -5.487251e-02  0 
 -2.119102e-02  -1.360434e-02  0 
 -7.145769e-02  -5.057475e-02  0 
 -1.061225e-01  -8.824474e-02  0 
 -8.519166e-03  -9.925013e-03  0 
 0  0  0 
 -2.324496e-02  -2.221690e-02  0 
 -1.124494e-02  -1.029437e-02  0 
 0  0  0 
 -2.811626e-02  -2.497715e-02  0 
 -7.081369e-04  -1.017624e-02  0 
 0  0  0 
 -9.156063e-03  -2.096576e-02  0 
 -5.020365e-03  -1.071871e-02  0 
 0  0  0 
 -7.843537e-03  -2.623227e-02  0 
 0  0  0 
 -1.650295e-04  -2.122255e-02  0 
 -4.379068e-02  -3.765954e-02  0 
 -8.127443e-02  -6.546305e-02  0 
 -2.295104e-02  -3.955524e-02  0 
 -3.742048e-02  -5.505516e-02  0 
 -1.691993e-02  -3.798229e-02  0 
 -3.013389e-02  -5.808007e-02  0 
 -1.586067e-03  -3.864079e-02  0 
 -1.049245e-02  -5.220040e-02  0 
 7.626152e-04  -5.811779e-02  0 
 -6.815631e-02  -8.563255e-02  0 
 -4.511115e-02  -7.380849e-02  0 
 -1.327118e-02  -1.117283e-02  0 
 -1.201511e-02  -1.054630e-02  0 
 -5.767810e-03  -1.007664e-02  0 
 -3.388028e-03  -1.128072e-02  0 
 6.124273e-05  -1.061153e-02  0 
 -5.327781e-02  -4.086096e-02  0 
 -3.270072e-02  -3.815420e-02  0 
 -1.956503e-02  -3.900428e-02  0 
 -9.173487e-03  -3.799386e-02  0 
 5.178818e-04  -3.912094e-02  0 
 -8.736855e-02  -8.757775e-02  0 
 -5.442136e-02  -7.888173e-02  0 
 -3.296921e-02  -7.336632e-02  0 
VECTORS displacement_ITER10 FLOAT
 0  0  0 
 -3.432468e-02  -2.678165e-02  0 
 -1.007656e-01  -6.960056e-02  0 
 0  0  0 
 -2.593595e-02  -2.271314e-02  0 
 0  0  0 
 -1.753505e-02  -2.306969e-02  0 
 0  0  0 
 -8.602247e-03  -2.343326e-02  0 
 0  0  0 
 -3.628282e-03  -2.369814e-02  0 
 -5.657520e-02  -5.985503e-02  0 
 -3.337419e-02  -5.611920e-02  0 
 -1.940633e-02  -5.475255e-02  0 
 -5.583492e-03  -5.460249e-02  0 
 -2.120444e-02  -1.360030e-02  0 
 -7.162612e-02  -5.060125e-02  0 
 -1.065602e-01  -8.855212e-02  0 
 -8.529888e-03  -9.908982e-03  0 
 0  0  0 
 -2.327460e-02  -2.220421e-02  0 
 -1.122283e-02  -1.028202e-02  0 
 0  0  0 
 -2.808804e-02  -2.494445e-02  0 
 -7.048710e-04  -1.017319e-02  0 
 0  0  0 
 -9.125983e-03  -2.094465e-02  0 
 -5.044663e-03  -1.068193e-02  0 
 0  0  0 
 -7.890228e-03  -2.619573e-02  0 
 0  0  0 
 -2.103631e-04  -2.114778e-02  0 
 -4.381798e-02  -3.767047e-02  0 
 -8.144504e-02  -6.554935e-02  0 
 -2.286954e-02  -3.954416e-02  0 
 -3.739397e-02  -5.512875e-02  0 
 -1.690047e-02  -3.790275e-02  0 
 -2.985212e-02  -5.801164e-02  0 
 -1.739013e-03  -3.850205e-02  0 
 -1.059977e-02  -5.197199e-02  0 
 3.613514e-04  -5.758871e-02  0 
 -6.815889e-02  -8.587268e-02  0 
 -4.505240e-02  -7.404723e-02  0 
 -1.328248e-02  -1.116254e-02  0 
 -1.200490e-02  -1.052512e-02  0 
 -5.753566e-03  -1.007059e-02  0 
 -3.404664e-03  -1.127223e-02  0 
 -3.668209e-05  -1.055654e-02  0 
 -5.338480e-02  -4.085901e-02  0 
 -3.266760e-02  -3.815944e-02  0 
 -1.946500e-02  -3.896849e-02  0 
 -9.238072e-03  -3.789010e-02  0 
 2.040613e-04  -3.890552e-02  0 
 -8.754263e-02  -8.786159e-02  0 
 -5.443223e-02  -7.907340e-02  0 
 -3.253054e-02  -7.368869e-02  0 
VECTORS displacement_ITER11 FLOAT
 0  0  0 
 -3.430378e-02  -2.676977e-02  0 
 -1.006691e-01  -6.958547e-02  0 
 0  0  0 
 -2.591619e-02  -2.270254e-02  0 
 0  0  0 
 -1.752250e-02  -2.304355e-02  0 
 0  0  0 
 -8.598965e-03  -2.337463e-02  0 
 0  0  0 
 -3.686252e-03  -2.364141e-02  0 
 -5.653594e-02  -5.983434e-02  0 
 -3.340045e-02  -5.603368e-02  0 
 -1.940437e-02  -5.460996e-02  0 
 -5.707887e-03  -5.434499e-02  0 
 -2.119188e-02  -1.359323e-02  0 
 -7.157392e-02  -5.058471e-02  0 
 -1.064439e-01  -8.852548e-02  0 
 -8.522023e-03  -9.904701e-03  0 
 0  0  0 
 -2.325699e-02  -2.219516e-02  0 
 -1.120872e-02  -1.026474e-02  0 
 0  0  0 
 -2.807080e-02  -2.492805e-02  0 
 -7.102581e-04  -1.015381e-02  0 
 0  0  0 
 -9.115479e-03  -2.090452e-02  0 
 -5.057568e-03  -1.065203e-02  0 
 0  0  0 
 -7.917168e-03  -2.612840e-02  0 
 0  0  0 
 -2.278837e-04  -2.110204e-02  0 
 -4.378730e-02  -3.765048e-02  0 
 -8.136771e-02  -6.553873e-02  0 
 -2.287124e-02  -3.950443e-02  0 
 -3.738297e-02  -5.507985e-02  0 
 -1.688745e-02  -3.777784e-02  0 
 -2.989670e-02  -5.787539e-02  0 
 -1.830771e-03  -3.836669e-02  0 
 -1.062893e-02  -5.175074e-02  0 
 -1.074346e-05  -5.709891e-02  0 
 -6.811797e-02  -8.582734e-02  0 
 -4.510622e-02  -7.393997e-02  0 
 -1.327297e-02  -1.115715e-02  0 
 -1.199456e-02  -1.051624e-02  0 
 -5.745480e-03  -1.005165e-02  0 
 -3.417937e-03  -1.125118e-02  0 
 -8.729371e-05  -1.051968e-02  0 
 -5.333896e-02  -4.084977e-02  0 
 -3.264939e-02  -3.813275e-02  0 
 -1.946920e-02  -3.888339e-02  0 
 -9.262684e-03  -3.776611e-02  0 
 -3.719688e-05  -3.873255e-02  0 
 -8.745303e-02  -8.783267e-02  0 
 -5.447356e-02  -7.900926e-02  0 
 -3.257648e-02  -7.357150e-02  0 
VECTORS displacement_ITER12 FLOAT
 0  0  0 
 -3.428453e-02  -2.676093e-02  0 
 -1.005481e-01  -6.951779e-02  0 
 0  0  0 
 -2.591201e-02  -2.269882e-02  0 
 0  0  0 
 -1.753678e-02  -2.304362e-02  0 
 0  0  0 
 -8.591242e-03  -2.339602e-02  0 
 0  0  0 
 -3.650322e-03  -2.370777e-02  0 
 -5.653587e-02  -5.978564e-02  0 
 -3.341655e-02  -5.600981e-02  0 
 -1.937310e-02  -5.469927e-02  0 
 -5.654860e-03  -5.443190e-02  0 
 -2.118294e-02  -1.359048e-02  0 
 -7.150868e-02  -5.055604e-02  0 
 -1.063074e-01  -8.838502e-02  0 
 -8.519870e-03  -9.905321e-03  0 
 0  0  0 
 -2.324587e-02  -2.219018e-02  0 
 -1.121554e-02  -1.026721e-02  0 
 0  0  0 
 -2.807823e-02  -2.492410e-02  0 
 -7.083188e-04  -1.015750e-02  0 
 0  0  0 
 -9.123067e-03  -2.091289e-02  0 
 -5.041989e-03  -1.067499e-02  0 
 0  0  0 
 -7.888054e-03  -2.616900e-02  0 
 0  0  0 
 -1.207068e-04  -2.120102e-02  0 
 -4.378221e-02  -3.763230e-02  0 
 -8.131121e-02  -6.547760e-02  0 
 -2.289013e-02  -3.948991e-02  0 
 -3.739717e-02  -5.504457e-02  0 
 -1.686995e-02  -3.782128e-02  0 
 -2.992236e-02  -5.785970e-02  0 
 -1.776982e-03  -3.844084e-02  0 
 -1.056767e-02  -5.182174e-02  0 
 4.101348e-06  -5.716824e-02  0 
 -6.812052e-02  -8.570807e-02  0 
 -4.511854e-02  -7.390770e-02  0 
 -1.326783e-02  -1.115655e-02  0 
 -1.199793e-02  -1.051817e-02  0 
 -5.750390e-03  -1.005358e-02  0 
 -3.410843e-03  -1.126652e-02  0 
 -3.585971e-05  -1.055820e-02  0 
 -5.330536e-02  -4.083248e-02  0 
 -3.265993e-02  -3.811441e-02  0 
 -1.948469e-02  -3.889655e-02  0 
 -9.219994e-03  -3.782886e-02  0 
 -2.027931e-06  -3.881574e-02  0 
 -8.739162e-02  -8.770023e-02  0 
 -5.450008e-02  -7.897094e-02  0 
 -3.261044e-02  -7.352828e-02  0 
VECTORS displacement_ITER13 FLOAT
 0  0  0 
 -3.430443e-02  -2.678376e-02  0 
 -1.005551e-01  -6.956622e-02  0 
 0  0  0 
 -2.592405e-02  -2.272349e-02  0 
 0  0  0 
 -1.754987e-02  -2.307093e-02  0 
 0  0  0 
 -8.579410e-03  -2.343660e-02  0 
 0  0  0 
 -3.612250e-03  -2.378829e-02  0 
 -5.656708e-02  -5.983135e-02  0 
 -3.343655e-02  -5.605962e-02  0 
 -1.934774e-02  -5.481072e-02  0 
 -5.596880e-03  -5.454749e-02  0 
 -2.119717e-02  -1.360201e-02  0 
 -7.153164e-02  -5.059614e-02  0 
 -1.063024e-01  -8.841906e-02  0 
 -8.522114e-03  -9.916175e-03  0 
 0  0  0 
 -2.325686e-02  -2.221199e-02  0 
 -1.122532e-02  -1.028009e-02  0 
 0  0  0 
 -2.809453e-02  -2.495196e-02  0 
 -7.006216e-04  -1.017173e-02  0 
 0  0  0 
 -9.126717e-03  -2.094192e-02  0 
 -5.026537e-03  -1.070417e-02  0 
 0  0  0 
 -7.857911e-03  -2.622777e-02  0 
 0  0  0 
 -9.077363e-06  -2.131215e-02  0 
 -4.380493e-02  -3.766803e-02  0 
 -8.133090e-02  -6.552622e-02  0 
 -2.290510e-02  -3.952790e-02  0 
 -3.742051e-02  -5.508847e-02  0 
 -1.685173e-02  -3.788892e-02  0 
 -2.994935e-02  -5.791420e-02  0 
 -1.721395e-03  -3.853676e-02  0 
 -1.050905e-02  -5.191554e-02  0 
 5.678076e-05  -5.732597e-02  0 
 -6.815814e-02  -8.574342e-02  0 
 -4.514335e-02  -7.396143e-02  0 
 -1.327509e-02  -1.116718e-02  0 
 -1.200519e-02  -1.053096e-02  0 
 -5.752831e-03  -1.006620e-02  0 
 -3.401886e-03  -1.129052e-02  0 
 2.161873e-05  -1.060332e-02  0 
 -5.332218e-02  -4.087236e-02  0 
 -3.267943e-02  -3.814981e-02  0 
 -1.949518e-02  -3.894805e-02  0 
 -9.178080e-03  -3.791192e-02  0 
 5.451149e-05  -3.892626e-02  0 
 -8.741382e-02  -8.773424e-02  0 
 -5.454021e-02  -7.904361e-02  0 
 -3.265095e-02  -7.357175e-02  0 
VECTORS displacement_ITER14 FLOAT
 0  0  0 
 -3.430261e-02  -2.678061e-02  0 
 -1.005540e-01  -6.955808e-02  0 
 0  0  0 
 -2.592476e-02  -2.271855e-02  0 
 0  0  0 
 -1.754572e-02  -2.306319e-02  0 
 0  0  0 
 -8.573519e-03  -2.342794e-02  0 
 0  0  0 
 -3.620704e-03  -2.377744e-02  0 
 -5.657101e-02  -5.982480e-02  0 
 -3.343084e-02  -5.605838e-02  0 
 -1.933716e-02  -5.477795e-02  0 
 -5.621357e-03  -5.449686e-02  0 
 -2.119563e-02  -1.360041e-02  0 
 -7.152992e-02  -5.059078e-02  0 
 -1.063008e-01  -8.840714e-02  0 
 -8.522612e-03  -9.914110e-03  0 
 0  0  0 
 -2.325648e-02  -2.220853e-02  0 
 -1.122179e-02  -1.027557e-02  0 
 0  0  0 
 -2.809357e-02  -2.494485e-02  0 
 -6.997197e-04  -1.016826e-02  0 
 0  0  0 
 -9.121783e-03  -2.093430e-02  0 
 -5.025535e-03  -1.069566e-02  0 
 0  0  0 
 -7.859238e-03  -2.621822e-02  0 
 0  0  0 
 -2.848439e-06  -2.130070e-02  0 
 -4.380658e-02  -3.766233e-02  0 
 -8.133255e-02  -6.551759e-02  0 
 -2.290078e-02  -3.952084e-02  0 
 -3.742095e-02  -5.508498e-02  0 
 -1.683915e-02  -3.786711e-02  0 
 -2.992997e-02  -5.791020e-02  0 
 -1.738914e-03  -3.851317e-02  0 
 -1.050863e-02  -5.186776e-02  0 
 -2.071966e-06  -5.728082e-02  0 
 -6.816109e-02  -8.573103e-02  0 
 -4.513452e-02  -7.397111e-02  0 
 -1.327462e-02  -1.116554e-02  0 
 -1.200409e-02  -1.052716e-02  0 
 -5.750270e-03  -1.006199e-02  0 
 -3.402107e-03  -1.128682e-02  0 
 1.386933e-05  -1.059279e-02  0 
 -5.332301e-02  -4.086697e-02  0 
 -3.267941e-02  -3.814366e-02  0 
 -1.948287e-02  -3.893520e-02  0 
 -9.178872e-03  -3.788929e-02  0 
 1.316952e-05  -3.888983e-02  0 
 -8.741808e-02  -8.772146e-02  0 
 -5.453873e-02  -7.905339e-02  0 
 -3.262941e-02  -7.358879e-02  0 
VECTORS displacement_ITER15 FLOAT
 0  0  0 
 -3.430541e-02  -2.678148e-02  0 
 -1.005736e-01  -6.956769e-02  0 
 0  0  0 
 -2.592514e-02  -2.271807e-02  0 
 0  0  0 
 -1.754153e-02  -2.306232e-02  0 
 0  0  0 
 -8.571157e-03  -2.342687e-02  0 
 0  0  0 
 -3.626627e-03  -2.377306e-02  0 
 -5.657229e-02  -5.983222e-02  0 
 -3.342182e-02  -5.606493e-02  0 
 -1.933445e-02  -5.476452e-02  0 
 -5.636244e-03  -5.447759e-02  0 
 -2.119675e-02  -1.360050e-02  0 
 -7.154016e-02  -5.059451e-02  0 
 -1.063224e-01  -8.842822e-02  0 
 -8.522879e-03  -9.913526e-03  0 
 0  0  0 
 -2.325809e-02  -2.220868e-02  0 
 -1.121987e-02  -1.027493e-02  0 
 0  0  0 
 -2.809103e-02  -2.494402e-02  0 
 -6.987773e-04  -1.016837e-02  0 
 0  0  0 
 -9.118623e-03  -2.093336e-02  0 
 -5.025904e-03  -1.069162e-02  0 
 0  0  0 
 -7.861931e-03  -2.621644e-02  0 
 0  0  0 
 -1.358217e-06  -2.129478e-02  0 
 -4.380735e-02  -3.766444e-02  0 
 -8.134192e-02  -6.552585e-02  0 
 -2.289417e-02  -3.952258e-02  0 
 -3.741697e-02  -5.509159e-02  0 
 -1.683468e-02  -3.786045e-02  0 
 -2.991584e-02  -5.791554e-02  0 
 -1.750105e-03  -3.850512e-02  0 
 -1.051234e-02  -5.184843e-02  0 
 -2.263810e-05  -5.728279e-02  0 
 -6.816092e-02  -8.574661e-02  0 
 -4.512242e-02  -7.397994e-02  0 
 -1.327526e-02  -1.116524e-02  0 
 -1.200299e-02  -1.052621e-02  0 
 -5.748657e-03  -1.006179e-02  0 
 -3.402668e-03  -1.128619e-02  0 
 7.656847e-06  -1.058703e-02  0 
 -5.332866e-02  -4.086901e-02  0 
 -3.267633e-02  -3.814568e-02  0 
 -1.947445e-02  -3.893391e-02  0 
 -9.182182e-03  -3.788149e-02  0 
 -5.234439e-06  -3.887518e-02  0 
 -8.743005e-02  -8.773974e-02  0 
 -5.453186e-02  -7.907166e-02  0 
 -3.261455e-02  -7.360111e-02  0 
VECTORS displacement_ITER16 FLOAT
 0  0  0 
 -3.430418e-02  -2.678037e-02  0 
 -1.005742e-01  -6.956751e-02  0 
 0  0  0 
 -2.592354e-02  -2.271735e-02  0 
 0  0  0 
 -1.754197e-02  -2.306235e-02  0 
 0  0  0 
 -8.575242e-03  -2.342507e-02  0 
 0  0  0 
 -3.628503e-03  -2.376655e-02  0 
 -5.656844e-02  -5.983000e-02  0 
 -3.342136e-02  -5.606038e-02  0 
 -1.934287e-02  -5.476413e-02  0 
 -5.641357e-03  -5.447895e-02  0 
 -2.119589e-02  -1.359988e-02  0 
 -7.153909e-02  -5.059284e-02  0 
 -1.063227e-01  -8.843184e-02  0 
 -8.522456e-03  -9.913176e-03  0 
 0  0  0 
 -2.325710e-02  -2.220772e-02  0 
 -1.122018e-02  -1.027514e-02  0 
 0  0  0 
 -2.808990e-02  -2.494387e-02  0 
 -7.002910e-04  -1.016793e-02  0 
 0  0  0 
 -9.120256e-03  -2.093268e-02  0 
 -5.025020e-03  -1.068664e-02  0 
 0  0  0 
 -7.866844e-03  -2.621289e-02  0 
 0  0  0 
 -2.389656e-07  -2.128603e-02  0 
 -4.380423e-02  -3.766249e-02  0 
 -8.133959e-02  -6.552500e-02  0 
 -2.289474e-02  -3.952157e-02  0 
 -3.741356e-02  -5.508754e-02  0 
 -1.684166e-02  -3.785836e-02  0 
 -2.992869e-02  -5.791255e-02  0 
 -1.753916e-03  -3.850293e-02  0 
 -1.051922e-02  -5.184851e-02  0 
 -7.129829e-06  -5.730827e-02  0 
 -6.815647e-02  -8.574616e-02  0 
 -4.511949e-02  -7.395772e-02  0 
 -1.327469e-02  -1.116473e-02  0 
 -1.200270e-02  -1.052631e-02  0 
 -5.749439e-03  -1.006189e-02  0 
 -3.403870e-03  -1.128366e-02  0 
 2.987161e-06  -1.058060e-02  0 
 -5.332675e-02  -4.086723e-02  0 
 -3.267428e-02  -3.814409e-02  0 
 -1.947988e-02  -3.893284e-02  0 
 -9.188221e-03  -3.787943e-02  0 
 -2.072068e-06  -3.886742e-02  0 
 -8.742889e-02  -8.774162e-02  0 
 -5.452668e-02  -7.906676e-02  0 
 -3.263503e-02  -7.357507e-02  0 
VECTORS displacement_ITER17 FLOAT
 0  0  0 
 -3.430427e-02  -2.678027e-02  0 
 -1.005746e-01  -6.956703e-02  0 
 0  0  0 
 -2.592391e-02  -2.271704e-02  0 
 0  0  0 
 -1.754213e-02  -2.306199e-02  0 
 0  0  0 
 -8.575721e-03  -2.342479e-02  0 
 0  0  0 
 -3.627675e-03  -2.376461e-02  0 
 -5.656969e-02  -5.982961e-02  0 
 -3.342104e-02  -5.606073e-02  0 
 -1.934421e-02  -5.476403e-02  0 
 -5.639523e-03  -5.448145e-02  0 
 -2.119592e-02  -1.359984e-02  0 
 -7.153941e-02  -5.059265e-02  0 
 -1.063230e-01  -8.843080e-02  0 
 -8.522616e-03  -9.913074e-03  0 
 0  0  0 