# vtk DataFile Version 3.1
this is an vtk file created by FEMAC
ASCII
DATASET UNSTRUCTURED_GRID
POINTS 56 FLOAT
0.000000 7.000000 0.000000
1.000000 7.000000 0.000000
0.000000 8.000000 0.000000
1.000000 8.000000 0.000000
0.000000 9.000000 0.000000
1.000000 9.000000 0.000000
2.000000 7.000000 0.000000
2.000000 8.000000 0.000000
2.000000 9.000000 0.000000
3.000000 7.000000 0.000000
3.000000 8.000000 0.000000
3.000000 9.000000 0.000000
4.000000 7.000000 0.000000
4.000000 8.000000 0.000000
4.000000 9.000000 0.000000
0.500000 7.000000 0.000000
0.500000 8.000000 0.000000
0.000000 7.500000 0.000000
1.000000 7.500000 0.000000
0.500000 9.000000 0.000000
0.000000 8.500000 0.000000
1.000000 8.500000 0.000000
1.500000 7.000000 0.000000
2.000000 6.500000 0.000000
1.500000 8.000000 0.000000
2.000000 7.500000 0.000000
1.500000 9.000000 0.000000
2.000000 8.500000 0.000000
2.500000 7.000000 0.000000
3.000000 6.500000 0.000000
2.500000 8.000000 0.000000
3.000000 7.500000 0.000000
2.500000 9.000000 0.000000
3.000000 8.500000 0.000000
3.500000 7.000000 0.000000
4.000000 6.500000 0.000000
3.500000 8.000000 0.000000
4.000000 7.500000 0.000000
3.500000 9.000000 0.000000
4.000000 8.500000 0.000000
4.500000 7.000000 0.000000
4.500000 8.000000 0.000000
4.500000 9.000000 0.000000
0.500000 7.500000 0.000000
0.500000 8.500000 0.000000
1.500000 7.500000 0.000000
1.500000 8.500000 0.000000
2.500000 6.500000 0.000000
2.500000 7.500000 0.000000
2.500000 8.500000 0.000000
3.500000 6.500000 0.000000
3.500000 7.500000 0.000000
3.500000 8.500000 0.000000
4.500000 6.500000 0.000000
4.500000 7.500000 0.000000
4.500000 8.500000 0.000000
CELLS 41 205 
4 0 15 43 17
4 17 43 16  2
4 15  1 18 43
4 43 18  3 16
4 2 16 44 20
4 20 44 19  4
4 16  3 21 44
4 44 21  5 19
4 1 22 45 18
4 18 45 24  3
4 22  6 25 45
4 45 25  7 24
4 3 24 46 21
4 21 46 26  5
4 24  7 27 46
4 46 27  8 26
4 23 47 28  6
4 47 29  9 28
4 6 28 48 25
4 25 48 30  7
4 28  9 31 48
4 48 31 10 30
4 7 30 49 27
4 27 49 32  8
4 30 10 33 49
4 49 33 11 32
4 29 50 34  9
4 50 35 12 34
4 9 34 51 31
4 31 51 36 10
4 34 12 37 51
4 51 37 13 36
4 10 36 52 33
4 33 52 38 11
4 36 13 39 52
4 52 39 14 38
4 35 53 40 12
4 12 40 54 37
4 37 54 41 13
4 13 41 55 39
4 39 55 42 14
CELL_TYPES 41
9 9 9 9 9 9 9 9 9 9 9 9 9 9 9 9 9 9 9 9 9 9 9 9 9 9 9 9 9 9 9 9 9 9 9 9 9 9 9 9 9 
POINT_DATA 56
VECTORS displacement_ITER1 FLOAT
 6.459940e-20  2.691383e-20  0 
 9.538942e-03  -1.155801e-02  0 
 0  0  0 
 1.307342e-02  -1.136007e-02  0 
 0  0  0 
 1.717271e-02  -1.338884e-02  0 
 1.684765e-02  -2.801293e-02  0 
 2.846156e-02  -2.978996e-02  0 
 5.040622e-02  -3.469095e-02  0 
 2.580219e-02  -4.848118e-02  0 
 4.007518e-02  -5.209320e-02  0 
 5.549671e-02  -5.420605e-02  0 
 3.190363e-02  -6.963951e-02  0 
 4.847222e-02  -7.183212e-02  0 
 6.955763e-02  -7.473689e-02  0 
 5.639867e-03  -5.310597e-03  0 
 4.314004e-03  -4.981083e-03  0 
 0  0  0 
 1.430766e-02  -1.250800e-02  0 
 1.061612e-02  -6.813961e-03  0 
 0  0  0 
 1.167524e-02  -1.110005e-02  0 
 1.191419e-02  -1.956682e-02  0 
 1.505008e-02  -2.937163e-02  0 
 2.207939e-02  -1.875126e-02  0 
 1.901147e-02  -2.741850e-02  0 
 3.582048e-02  -2.524942e-02  0 
 4.079309e-02  -3.266139e-02  0 
 2.264238e-02  -3.739661e-02  0 
 1.758956e-02  -4.672906e-02  0 
 3.416388e-02  -4.280162e-02  0 
 3.504967e-02  -5.083457e-02  0 
 5.330586e-02  -4.413551e-02  0 
 4.590969e-02  -5.308514e-02  0 
 2.827749e-02  -6.005476e-02  0 
 2.618071e-02  -6.911216e-02  0 
 4.508486e-02  -6.058778e-02  0 
 3.802086e-02  -7.015042e-02  0 
 6.296033e-02  -6.528618e-02  0 
 5.986823e-02  -7.366251e-02  0 
 3.544415e-02  -7.951549e-02  0 
 5.136812e-02  -8.380579e-02  0 
 7.084563e-02  -8.439777e-02  0 
 6.169186e-03  -5.378955e-03  0 
 6.667278e-03  -5.599549e-03  0 
 1.664182e-02  -1.892332e-02  0 
 2.675903e-02  -2.037232e-02  0 
 1.593817e-02  -3.722371e-02  0 
 2.737269e-02  -3.963975e-02  0 
 4.383328e-02  -4.378141e-02  0 
 2.243701e-02  -5.799684e-02  0 
 3.672300e-02  -6.023352e-02  0 
 5.319072e-02  -6.270446e-02  0 
 2.708277e-02  -7.864348e-02  0 
 4.260677e-02  -8.159266e-02  0 
 6.131822e-02  -8.411529e-02  0 
VECTORS displacement_ITER2 FLOAT
 3.188221e-20  1.357336e-20  0 
 8.778503e-03  -1.154401e-02  0 
 0  0  0 
 1.295264e-02  -1.134119e-02  0 
 0  0  0 
 1.714357e-02  -1.337883e-02  0 
 1.664553e-02  -2.802024e-02  0 
 2.827543e-02  -2.990313e-02  0 
 5.027983e-02  -3.477036e-02  0 
 2.587737e-02  -4.800679e-02  0 
 4.010777e-02  -5.203644e-02  0 
 5.533492e-02  -5.421223e-02  0 
 3.208053e-02  -6.973460e-02  0 
 4.846926e-02  -7.171159e-02  0 
 6.972312e-02  -7.456596e-02  0 
 5.630454e-03  -5.069829e-03  0 
 4.259083e-03  -4.948567e-03  0 
 0  0  0 
 1.402635e-02  -1.245181e-02  0 
 1.059050e-02  -6.792787e-03  0 
 0  0  0 
 1.162229e-02  -1.109159e-02  0 
 1.139444e-02  -1.974682e-02  0 
 1.499940e-02  -2.889506e-02  0 
 2.188873e-02  -1.881403e-02  0 
 1.867806e-02  -2.753657e-02  0 
 3.576251e-02  -2.528331e-02  0 
 4.066484e-02  -3.274910e-02  0 
 2.256406e-02  -3.690578e-02  0 
 1.770238e-02  -4.584548e-02  0 
 3.407899e-02  -4.285554e-02  0 
 3.518112e-02  -5.065561e-02  0 
 5.315313e-02  -4.419876e-02  0 
 4.581665e-02  -5.307546e-02  0 
 2.841726e-02  -5.992007e-02  0 
 2.647789e-02  -6.940504e-02  0 
 4.517720e-02  -6.046454e-02  0 
 3.815306e-02  -7.006658e-02  0 
 6.289011e-02  -6.517117e-02  0 
 5.989432e-02  -7.347527e-02  0 
 3.563452e-02  -7.941323e-02  0 
 5.123343e-02  -8.372209e-02  0 
 7.114049e-02  -8.433342e-02  0 
 6.002009e-03  -5.248744e-03  0 
 6.632700e-03  -5.575068e-03  0 
 1.631162e-02  -1.905312e-02  0 
 2.665667e-02  -2.041944e-02  0 
 1.626331e-02  -3.666190e-02  0 
 2.725504e-02  -3.950777e-02  0 
 4.371112e-02  -4.385418e-02  0 
 2.232925e-02  -5.790257e-02  0 
 3.689212e-02  -6.011432e-02  0 
 5.319589e-02  -6.256455e-02  0 
 2.733644e-02  -7.900217e-02  0 
 4.271680e-02  -8.145164e-02  0 
 6.128135e-02  -8.417036e-02  0 
VECTORS displacement_ITER3 FLOAT
 9.145249e-21  3.923591e-21  0 
 8.775523e-03  -1.154361e-02  0 
 0  0  0 
 1.296369e-02  -1.136134e-02  0 
 0  0  0 
 1.715392e-02  -1.339208e-02  0 
 1.673247e-02  -2.801995e-02  0 
 2.828991e-02  -2.991435e-02  0 
 5.029140e-02  -3.478489e-02  0 
 2.586694e-02  -4.807692e-02  0 
 4.010022e-02  -5.206816e-02  0 
 5.534670e-02  -5.423571e-02  0 
 3.201963e-02  -6.979243e-02  0 
 4.845668e-02  -7.176625e-02  0 
 6.968734e-02  -7.460441e-02  0 
 5.602252e-03  -5.146520e-03  0 
 4.261926e-03  -4.958056e-03  0 
 0  0  0 
 1.404817e-02  -1.247674e-02  0 
 1.059936e-02  -6.801150e-03  0 
 0  0  0 
 1.163002e-02  -1.110576e-02  0 
 1.146318e-02  -1.975190e-02  0 
 1.497764e-02  -2.895445e-02  0 
 2.190568e-02  -1.883291e-02  0 
 1.871854e-02  -2.753875e-02  0 
 3.577238e-02  -2.529844e-02  0 
 4.067487e-02  -3.276317e-02  0 
 2.258151e-02  -3.699338e-02  0 
 1.768140e-02  -4.592232e-02  0 
 3.408459e-02  -4.287270e-02  0 
 3.516070e-02  -5.070210e-02  0 
 5.316594e-02  -4.421632e-02  0 
 4.582220e-02  -5.310126e-02  0 
 2.838601e-02  -5.997369e-02  0 
 2.644846e-02  -6.944869e-02  0 
 4.515924e-02  -6.050977e-02  0 
 3.812114e-02  -7.011578e-02  0 
 6.288155e-02  -6.520318e-02  0 
 5.985716e-02  -7.351944e-02  0 
 3.552650e-02  -7.940693e-02  0 
 5.122614e-02  -8.372327e-02  0 
 7.109745e-02  -8.438501e-02  0 
 6.003429e-03  -5.267608e-03  0 
 6.638304e-03  -5.583567e-03  0 
 1.634325e-02  -1.907266e-02  0 
 2.666644e-02  -2.043524e-02  0 
 1.631662e-02  -3.680458e-02  0 
 2.727617e-02  -3.953645e-02  0 
 4.372024e-02  -4.387083e-02  0 
 2.230032e-02  -5.800431e-02  0 
 3.686390e-02  -6.016063e-02  0 
 5.318365e-02  -6.260666e-02  0 
 2.732321e-02  -7.900517e-02  0 
 4.269442e-02  -8.159462e-02  0 
 6.124325e-02  -8.420236e-02  0 
VECTORS displacement_ITER4 FLOAT
 2.463771e-21  1.039222e-21  0 
 8.761400e-03  -1.153207e-02  0 
 0  0  0 
 1.296057e-02  -1.135955e-02  0 
 0  0  0 
 1.715216e-02  -1.339081e-02  0 
 1.670598e-02  -2.803333e-02  0 
 2.828181e-02  -2.991800e-02  0 
 5.028475e-02  -3.478576e-02  0 
 2.585313e-02  -4.806544e-02  0 
 4.009277e-02  -5.206771e-02  0 
 5.533941e-02  -5.423832e-02  0 
 3.201194e-02  -6.979110e-02  0 
 4.845980e-02  -7.176479e-02  0 
 6.967468e-02  -7.460913e-02  0 
 5.610882e-03  -5.132813e-03  0 
 4.260595e-03  -4.956649e-03  0 
 0  0  0 
 1.404250e-02  -1.247279e-02  0 
 1.059805e-02  -6.800116e-03  0 
 0  0  0 
 1.162815e-02  -1.110458e-02  0 
 1.144369e-02  -1.976502e-02  0 
 1.495723e-02  -2.895618e-02  0 
 2.190024e-02  -1.883359e-02  0 
 1.870335e-02  -2.754730e-02  0 
 3.576869e-02  -2.529777e-02  0 
 4.066730e-02  -3.276474e-02  0 
 2.255573e-02  -3.698271e-02  0 
 1.764835e-02  -4.589867e-02  0 
 3.407574e-02  -4.287489e-02  0 
 3.515327e-02  -5.069721e-02  0 
 5.315858e-02  -4.421805e-02  0 
 4.581398e-02  -5.310317e-02  0 
 2.837678e-02  -5.996997e-02  0 
 2.644990e-02  -6.943815e-02  0 
 4.515513e-02  -6.050689e-02  0 
 3.811606e-02  -7.011316e-02  0 
 6.287463e-02  -6.520747e-02  0 
 5.985526e-02  -7.352104e-02  0 
 3.551332e-02  -7.939575e-02  0 
 5.123671e-02  -8.371115e-02  0 
 7.107562e-02  -8.437285e-02  0 
 5.999544e-03  -5.261605e-03  0 
 6.637120e-03  -5.582498e-03  0 
 1.633347e-02  -1.907522e-02  0 
 2.666201e-02  -2.043544e-02  0 
 1.630937e-02  -3.679352e-02  0 
 2.726053e-02  -3.953700e-02  0 
 4.371194e-02  -4.387276e-02  0 
 2.229228e-02  -5.800489e-02  0 
 3.685873e-02  -6.015659e-02  0 
 5.317769e-02  -6.260958e-02  0 
 2.733258e-02  -7.899330e-02  0 
 4.268618e-02  -8.160930e-02  0 
 6.124739e-02  -8.419458e-02  0 
VECTORS displacement_ITER5 FLOAT
 5.783951e-22  2.412837e-22  0 
 8.771497e-03  -1.153064e-02  0 
 0  0  0 
 1.296201e-02  -1.135863e-02  0 
 0  0  0 
 1.715195e-02  -1.339010e-02  0 
 1.671096e-02  -2.803023e-02  0 
 2.828472e-02  -2.991437e-02  0 
 5.028609e-02  -3.478285e-02  0 
 2.585741e-02  -4.806366e-02  0 
 4.009514e-02  -5.206430e-02  0 
 5.534104e-02  -5.423401e-02  0 
 3.201642e-02  -6.978674e-02  0 
 4.845941e-02  -7.176084e-02  0 
 6.967955e-02  -7.460405e-02  0 
 5.611914e-03  -5.138759e-03  0 
 4.261320e-03  -4.956631e-03  0 
 0  0  0 
 1.404556e-02  -1.247182e-02  0 
 1.059791e-02  -6.799950e-03  0 
 0  0  0 
 1.162856e-02  -1.110381e-02  0 
 1.144811e-02  -1.976083e-02  0 
 1.496337e-02  -2.895617e-02  0 
 2.190251e-02  -1.883098e-02  0 
 1.870740e-02  -2.754347e-02  0 
 3.576897e-02  -2.529602e-02  0 
 4.066942e-02  -3.276162e-02  0 
 2.255942e-02  -3.697960e-02  0 
 1.764718e-02  -4.589817e-02  0 
 3.407849e-02  -4.287123e-02  0 
 3.515594e-02  -5.069474e-02  0 
 5.316017e-02  -4.421441e-02  0 
 4.581625e-02  -5.309907e-02  0 
 2.837995e-02  -5.996752e-02  0 
 2.645334e-02  -6.943039e-02  0 
 4.515662e-02  -6.050354e-02  0 
 3.811805e-02  -7.010919e-02  0 
 6.287657e-02  -6.520210e-02  0 
 5.985616e-02  -7.351581e-02  0 
 3.551833e-02  -7.939028e-02  0 
 5.123501e-02  -8.370667e-02  0 
 7.108260e-02  -8.437158e-02  0 
 6.001619e-03  -5.263343e-03  0 
 6.637364e-03  -5.582396e-03  0 
 1.633776e-02  -1.907177e-02  0 
 2.666327e-02  -2.043335e-02  0 
 1.631561e-02  -3.679038e-02  0 
 2.726414e-02  -3.953383e-02  0 
 4.371424e-02  -4.386907e-02  0 
 2.229898e-02  -5.800687e-02  0 
 3.686100e-02  -6.015374e-02  0 
 5.317958e-02  -6.260460e-02  0 
 2.733432e-02  -7.899450e-02  0 
 4.268847e-02  -8.160108e-02  0 
 6.124734e-02  -8.419447e-02  0 
VECTORS displacement_ITER6 FLOAT
 2.330960e-22  9.668276e-23  0 
 8.770944e-03  -1.153079e-02  0 
 0  0  0 
 1.296193e-02  -1.135860e-02  0 
 0  0  0 
 1.715206e-02  -1.339016e-02  0 
 1.671075e-02  -2.803066e-02  0 
 2.828473e-02  -2.991482e-02  0 
 5.028647e-02  -3.478332e-02  0 
 2.585778e-02  -4.806447e-02  0 
 4.009532e-02  -5.206505e-02  0 
 5.534142e-02  -5.423482e-02  0 
 3.201645e-02  -6.978745e-02  0 
 4.845998e-02  -7.176173e-02  0 
 6.967940e-02  -7.460500e-02  0 
 5.609976e-03  -5.137776e-03  0 
 4.261269e-03  -4.956572e-03  0 
 0  0  0 
 1.404506e-02  -1.247171e-02  0 
 1.059794e-02  -6.799944e-03  0 
 0  0  0 
 1.162858e-02  -1.110383e-02  0 
 1.144722e-02  -1.976058e-02  0 
 1.496319e-02  -2.895663e-02  0 
 2.190243e-02  -1.883118e-02  0 
 1.870718e-02  -2.754387e-02  0 
 3.576927e-02  -2.529627e-02  0 
 4.066964e-02  -3.276209e-02  0 
 2.255949e-02  -3.698007e-02  0 
 1.764674e-02  -4.589933e-02  0 
 3.407857e-02  -4.287188e-02  0 
 3.515616e-02  -5.069548e-02  0 
 5.316056e-02  -4.421506e-02  0 
 4.581648e-02  -5.309987e-02  0 
 2.838010e-02  -5.996836e-02  0 
 2.645360e-02  -6.943061e-02  0 
 4.515692e-02  -6.050429e-02  0 
 3.811826e-02  -7.010997e-02  0 
 6.287685e-02  -6.520309e-02  0 
 5.985658e-02  -7.351676e-02  0 
 3.551811e-02  -7.939041e-02  0 
 5.123587e-02  -8.370746e-02  0 
 7.108221e-02  -8.437173e-02  0 
 6.001347e-03  -5.263100e-03  0 
 6.637360e-03  -5.582368e-03  0 
 1.633744e-02  -1.907194e-02  0 
 2.666339e-02  -2.043356e-02  0 
 1.631588e-02  -3.679058e-02  0 
 2.726420e-02  -3.953446e-02  0 
 4.371447e-02  -4.386972e-02  0 
 2.229976e-02  -5.800876e-02  0 
 3.686123e-02  -6.015445e-02  0 
 5.317986e-02  -6.260557e-02  0 
 2.733425e-02  -7.899530e-02  0 
 4.268901e-02  -8.160270e-02  0 
 6.124773e-02  -8.419494e-02  0 
VECTORS displacement_ITER7 FLOAT
 6.285322e-23  2.602954e-23  0 
 8.771071e-03  -1.153099e-02  0 
 0  0  0 
 1.296195e-02  -1.135865e-02  0 
 0  0  0 
 1.715207e-02  -1.339018e-02  0 
 1.671078e-02  -2.803064e-02  0 
 2.828474e-02  -2.991482e-02  0 
 5.028645e-02  -3.478332e-02  0 
 2.585785e-02  -4.806446e-02  0 
 4.009530e-02  -5.206501e-02  0 
 5.534140e-02  -5.423479e-02  0 
 3.201638e-02  -6.978740e-02  0 
 4.845996e-02  -7.176171e-02  0 
 6.967939e-02  -7.460498e-02  0 
 5.610053e-03  -5.137429e-03  0 
 4.261282e-03  -4.956593e-03  0 
 0  0  0 
 1.404517e-02  -1.247181e-02  0 
 1.059795e-02  -6.799961e-03  0 
 0  0  0 
 1.162859e-02  -1.110386e-02  0 
 1.144745e-02  -1.976068e-02  0 
 1.496300e-02  -2.895644e-02  0 
 2.190246e-02  -1.883122e-02  0 
 1.870724e-02  -2.754386e-02  0 
 3.576926e-02  -2.529629e-02  0 
 4.066963e-02  -3.276208e-02  0 
 2.255952e-02  -3.698004e-02  0 
 1.764673e-02  -4.589936e-02  0 
 3.407858e-02  -4.287186e-02  0 
 3.515616e-02  -5.069545e-02  0 
 5.316054e-02  -4.421504e-02  0 
 4.581647e-02  -5.309983e-02  0 
 2.838009e-02  -5.996835e-02  0 
 2.645362e-02  -6.943042e-02  0 
 4.515690e-02  -6.050424e-02  0 
 3.811821e-02  -7.010994e-02  0 
 6.287685e-02  -6.520306e-02  0 
 5.985658e-02  -7.351673e-02  0 
 3.551800e-02  -7.939019e-02  0 
 5.123581e-02  -8.370750e-02  0 
 7.108219e-02  -8.437165e-02  0 
 6.001408e-03  -5.263085e-03  0 
 6.637372e-03  -5.582387e-03  0 
 1.633749e-02  -1.907199e-02  0 
 2.666339e-02  -2.043358e-02  0 
 1.631599e-02  -3.679047e-02  0 
 2.726423e-02  -3.953445e-02  0 
 4.371446e-02  -4.386970e-02  0 
 2.229985e-02  -5.800904e-02  0 
 3.686121e-02  -6.015441e-02  0 
 5.317985e-02  -6.260553e-02  0 
 2.733407e-02  -7.899535e-02  0 
 4.268894e-02  -8.160281e-02  0 
 6.124773e-02  -8.419494e-02  0 
VECTORS displacement_ITER8 FLOAT
 1.801541e-23  7.494396e-24  0 
 8.771063e-03  -1.153101e-02  0 
 0  0  0 
 1.296195e-02  -1.135865e-02  0 
 0  0  0 
 1.715207e-02  -1.339018e-02  0 
 1.671078e-02  -2.803064e-02  0 
 2.828473e-02  -2.991482e-02  0 
 5.028644e-02  -3.478332e-02  0 
 2.585784e-02  -4.806447e-02  0 
 4.009529e-02  -5.206502e-02  0 
 5.534139e-02  -5.423479e-02  0 
 3.201638e-02  -6.978738e-02  0 
 4.845995e-02  -7.176170e-02  0 
 6.967937e-02  -7.460498e-02  0 
 5.610094e-03  -5.137477e-03  0 
 4.261279e-03  -4.956596e-03  0 
 0  0  0 
 1.404516e-02  -1.247181e-02  0 
 1.059795e-02  -6.799962e-03  0 
 0  0  0 
 1.162859e-02  -1.110386e-02  0 
 1.144745e-02  -1.976067e-02  0 
 1.496296e-02  -2.895651e-02  0 
 2.190245e-02  -1.883122e-02  0 
 1.870723e-02  -2.754385e-02  0 
 3.576925e-02  -2.529629e-02  0 
 4.066962e-02  -3.276208e-02  0 
 2.255949e-02  -3.698006e-02  0 
 1.764672e-02  -4.589935e-02  0 
 3.407857e-02  -4.287186e-02  0 
 3.515615e-02  -5.069546e-02  0 
 5.316053e-02  -4.421504e-02  0 
 4.581646e-02  -5.309983e-02  0 
 2.838008e-02  -5.996835e-02  0 
 2.645365e-02  -6.943037e-02  0 
 4.515688e-02  -6.050424e-02  0 
 3.811820e-02  -7.010993e-02  0 
 6.287683e-02  -6.520306e-02  0 
 5.985657e-02  -7.351673e-02  0 
 3.551802e-02  -7.939013e-02  0 
 5.123579e-02  -8.370749e-02  0 
 7.108216e-02  -8.437164e-02  0 
 6.001409e-03  -5.263099e-03  0 
 6.637370e-03  -5.582388e-03  0 
 1.633749e-02  -1.907199e-02  0 
 2.666339e-02  -2.043358e-02  0 
 1.631599e-02  -3.679049e-02  0 
 2.726422e-02  -3.953446e-02  0 
 4.371445e-02  -4.386970e-02  0 
 2.229989e-02  -5.800909e-02  0 
 3.686120e-02  -6.015441e-02  0 
 5.317984e-02  -6.260554e-02  0 
 2.733405e-02  -7.899534e-02  0 
 4.268893e-02  -8.160284e-02  0 
 6.124773e-02  -8.419493e-02  0 
VECTORS displacement_ITER9 FLOAT
 4.851353e-24  2.025745e-24  0 
 8.771060e-03  -1.153101e-02  0 
 0  0  0 
 1.296194e-02  -1.135865e-02  0 
 0  0  0 
 1.715207e-02  -1.339018e-02  0 
 1.671077e-02  -2.803064e-02  0 
 2.828473e-02  -2.991482e-02  0 
 5.028644e-02  -3.478332e-02  0 
 2.585784e-02  -4.806447e-02  0 
 4.009529e-02  -5.206502e-02  0 
 5.534139e-02  -5.423479e-02  0 
 3.201638e-02  -6.978739e-02  0 
 4.845995e-02  -7.176170e-02  0 
 6.967938e-02  -7.460498e-02  0 
 5.610107e-03  -5.137484e-03  0 
 4.261279e-03  -4.956596e-03  0 
 0  0  0 
 1.404516e-02  -1.247181e-02  0 
 1.059795e-02  -6.799962e-03  0 
 0  0  0 
 1.162859e-02  -1.110386e-02  0 
 1.144745e-02  -1.976067e-02  0 
 1.496296e-02  -2.895652e-02  0 
 2.190245e-02  -1.883122e-02  0 
 1.870723e-02  -2.754385e-02  0 
 3.576926e-02  -2.529629e-02  0 
 4.066962e-02  -3.276208e-02  0 
 2.255948e-02  -3.698006e-02  0 
 1.764671e-02  -4.589934e-02  0 
 3.407857e-02  -4.287186e-02  0 
 3.515615e-02  -5.069546e-02  0 
 5.316053e-02  -4.421504e-02  0 
 4.581646e-02  -5.309983e-02  0 
 2.838008e-02  -5.996835e-02  0 
 2.645365e-02  -6.943037e-02  0 
 4.515688e-02  -6.050424e-02  0 
 3.811820e-02  -7.010993e-02  0 
 6.287684e-02  -6.520307e-02  0 
 5.985657e-02  -7.351673e-02  0 
 3.551802e-02  -7.939013e-02  0 
 5.123579e-02  -8.370749e-02  0 
 7.108216e-02  -8.437164e-02  0 
 6.001409e-03  -5.263100e-03  0 
 6.637370e-03  -5.582388e-03  0 
 1.633748e-02  -1.907199e-02  0 
 2.666339e-02  -2.043358e-02  0 
 1.631599e-02  -3.679049e-02  0 
 2.726422e-02  -3.953446e-02  0 
 4.371445e-02  -4.386970e-02  0 
 2.229989e-02  -5.800910e-02  0 
 3.686120e-02  -6.015441e-02  0 
 5.317984e-02  -6.260554e-02  0 
 2.733405e-02  -7.899535e-02  0 
 4.268893e-02  -8.160286e-02  0 
 6.124773e-02  -8.419493e-02  0 
VECTORS displacement_ITER10 FLOAT
 9.667938e-25  4.050124e-25  0 
 8.771059e-03  -1.153101e-02  0 
 0  0  0 
 1.296194e-02  -1.135865e-02  0 
 0  0  0 
 1.715207e-02  -1.339018e-02  0 
 1.671077e-02  -2.803064e-02  0 
 2.828473e-02  -2.991482e-02  0 
 5.028644e-02  -3.478332e-02  0 
 2.585784e-02  -4.806447e-02  0 
 4.009529e-02  -5.206502e-02  0 
 5.534139e-02  -5.423479e-02  0 
 3.201638e-02  -6.978739e-02  0 
 4.845995e-02  -7.176170e-02  0 
 6.967938e-02  -7.460498e-02  0 
 5.610102e-03  -5.137482e-03  0 
 4.261279e-03  -4.956595e-03  0 
 0  0  0 
 1.404515e-02  -1.247181e-02  0 
 1.059795e-02  -6.799962e-03  0 
 0  0  0 
 1.162859e-02  -1.110386e-02  0 
 1.144745e-02  -1.976067e-02  0 
 1.496296e-02  -2.895652e-02  0 
 2.190245e-02  -1.883122e-02  0 
 1.870723e-02  -2.754385e-02  0 
 3.576926e-02  -2.529629e-02  0 
 4.066962e-02  -3.276208e-02  0 
 2.255948e-02  -3.698006e-02  0 
 1.764671e-02  -4.589934e-02  0 
 3.407857e-02  -4.287186e-02  0 
 3.515615e-02  -5.069546e-02  0 
 5.316053e-02  -4.421504e-02  0 
 4.581646e-02  -5.309983e-02  0 
 2.838008e-02  -5.996835e-02  0 
 2.645365e-02  -6.943037e-02  0 
 4.515688e-02  -6.050424e-02  0 
 3.811820e-02  -7.010993e-02  0 
 6.287684e-02  -6.520307e-02  0 
 5.985657e-02  -7.351673e-02  0 
 3.551802e-02  -7.939013e-02  0 
 5.123579e-02  -8.370749e-02  0 
 7.108216e-02  -8.437164e-02  0 
 6.001408e-03  -5.263099e-03  0 
 6.637370e-03  -5.582388e-03  0 
 1.633748e-02  -1.907199e-02  0 
 2.666339e-02  -2.043358e-02  0 
 1.631599e-02  -3.679049e-02  0 
 2.726422e-02  -3.953446e-02  0 
 4.371445e-02  -4.386970e-02  0 
 2.229989e-02  -5.800910e-02  0 
 3.686120e-02  -6.015441e-02  0 
 5.317984e-02  -6.260554e-02  0 
 2.733405e-02  -7.899535e-02  0 
 4.268893e-02  -8.160286e-02  0 
 6.124773e-02  -8.419493e-02  0 
VECTORS displacement_ITER11 FLOAT
 2.562108e-25  1.079742e-25  0 
 8.771059e-03  -1.153101e-02  0 
 0  0  0 
 1.296194e-02  -1.135865e-02  0 
 0  0  0 
 1.715207e-02  -1.339018e-02  0 
 1.671077e-02  -2.803064e-02  0 
 2.828473e-02  -2.991482e-02  0 
 5.028644e-02  -3.478332e-02  0 
 2.585784e-02  -4.806447e-02  0 
 4.009529e-02  -5.206502e-02  0 
 5.534139e-02  -5.423479e-02  0 
 3.201638e-02  -6.978739e-02  0 
 4.845995e-02  -7.176170e-02  0 
 6.967938e-02  -7.460498e-02  0 
 5.610103e-03  -5.137482e-03  0 
 4.261279e-03  -4.956595e-03  0 
 0  0  0 
 1.404516e-02  -1.247181e-02  0 
 1.059795e-02  -6.799962e-03  0 
 0  0  0 
 1.162859e-02  -1.110386e-02  0 
 1.144745e-02  -1.976067e-02  0 
 1.496296e-02  -2.895652e-02  0 
 2.190245e-02  -1.883122e-02  0 
 1.870723e-02  -2.754385e-02  0 
 3.576926e-02  -2.529629e-02  0 
 4.066962e-02  -3.276208e-02  0 
 2.255948e-02  -3.698006e-02  0 
 1.764671e-02  -4.589934e-02  0 
 3.407857e-02  -4.287186e-02  0 
 3.515615e-02  -5.069546e-02  0 
 5.316053e-02  -4.421504e-02  0 
 4.581646e-02  -5.309983e-02  0 
 2.838008e-02  -5.996835e-02  0 
 2.645365e-02  -6.943037e-02  0 
 4.515688e-02  -6.050424e-02  0 
 3.811820e-02  -7.010993e-02  0 
 6.287684e-02  -6.520307e-02  0 
 5.985657e-02  -7.351673e-02  0 
 3.551802e-02  -7.939013e-02  0 
 5.123579e-02  -8.370749e-02  0 
 7.108216e-02  -8.437164e-02  0 
 6.001409e-03  -5.263099e-03  0 
 6.637370e-03  -5.582388e-03  0 
 1.633748e-02  -1.907199e-02  0 
 2.666339e-02  -2.043358e-02  0 
 1.631599e-02  -3.679049e-02  0 
 2.726422e-02  -3.953446e-02  0 
 4.371445e-02  -4.386970e-02  0 
 2.229989e-02  -5.800910e-02  0 
 3.686120e-02  -6.015441e-02  0 
 5.317984e-02  -6.260554e-02  0 
 2.733405e-02  -7.899535e-02  0 
 4.268893e-02  -8.160286e-02  0 
 6.124773e-02  -8.419493e-02  0 
CELL_DATA 41
TENSORS element_stresses FLOAT
 6.359245e-01  -3.849721e-01  0 
 -3.849721e-01  1.844965e-01  0 
 0  0  0 

 5.689362e-01  -4.599932e-01  0 
 -4.599932e-01  1.860060e-01  0 
 0  0  0 

 5.980647e-01  -3.052630e-01  0 
 -3.052630e-01  1.260986e-01  0 
 0  0  0 

 9.434237e-01  -6.320810e-01  0 
 -6.320810e-01  3.540104e-01  0 
 0  0  0 

 2.354046e+00  -1.255830e+00  0 
 -1.255830e+00  5.810554e-01  0 
 0  0  0 

 3.707704e+00  -1.295656e+00  0 
 -1.295656e+00  8.687963e-01  0 
 0  0  0 

 2.984743e+00  -1.673968e+00  0 
 -1.673968e+00  8.212219e-01  0 
 0  0  0 

 2.306409e+00  -4.042515e-01  0 
 -4.042515e-01  -8.856296e-03  0 
 0  0  0 

 1.075402e+00  -7.178007e-01  0 
 -7.178007e-01  2.721970e-01  0 
 0  0  0 

 2.558025e+00  -1.475537e+00  0 
 -1.475537e+00  1.038194e+00  0 
 0  0  0 

 1.755103e+00  -1.516207e+00  0 
 -1.516207e+00  7.616250e-01  0 
 0  0  0 

 1.783071e+00  -6.789230e-01  0 
 -6.789230e-01  1.088824e-01  0 
 0  0  0 

 1.295112e+00  -5.144119e-01  0 
 -5.144119e-01  3.211546e-01  0 
 0  0  0 

 1.731169e+00  -2.540953e-01  0 
 -2.540953e-01  1.618995e-01  0 
 0  0  0 

 1.046902e+00  -2.410104e-01  0 
 -2.410104e-01  9.158916e-02  0 
 0  0  0 

 1.453749e+00  -1.189555e-01  0 
 -1.189555e-01  9.192792e-02  0 
 0  0  0 

 1.631348e+00  -1.352628e+00  0 
 -1.352628e+00  6.366648e-01  0 
 0  0  0 

 8.621239e-01  -8.828685e-01  0 
 -8.828685e-01  -2.123025e-01  0 
 0  0  0 

 7.574403e-01  -5.476473e-01  0 
 -5.476473e-01  1.238516e-01  0 
 0  0  0 

 6.944129e-01  -3.290691e-01  0 
 -3.290691e-01  -7.709456e-02  0 
 0  0  0 

 5.293774e-01  -3.170143e-01  0 
 -3.170143e-01  -1.004562e-01  0 
 0  0  0 

 6.866244e-01  -3.307947e-01  0 
 -3.307947e-01  -2.936084e-02  0 
 0  0  0 

 1.689042e+00  -3.144448e-01  0 
 -3.144448e-01  -2.623079e-01  0 
 0  0  0 

 1.144823e+00  -2.271441e-01  0 
 -2.271441e-01  -1.298678e-01  0 
 0  0  0 

 1.650315e+00  -4.717296e-01  0 
 -4.717296e-01  8.856445e-02  0 
 0  0  0 

 8.436891e-01  -4.290453e-02  0 
 -4.290453e-02  -4.295237e-02  0 
 0  0  0 

 3.262695e-01  -3.739352e-01  0 
 -3.739352e-01  -1.083382e-01  0 
 0  0  0 

 3.898452e-01  -3.691301e-01  0 
 -3.691301e-01  1.139962e-03  0 
 0  0  0 

 7.433363e-01  -5.512922e-01  0 
 -5.512922e-01  -3.404090e-01  0 
 0  0  0 

 1.373807e+00  -7.174381e-01  0 
 -7.174381e-01  6.826387e-02  0 
 0  0  0 

 1.041916e+00  -7.987115e-01  0 
 -7.987115e-01  2.108541e-01  0 
 0  0  0 

 8.702386e-01  -3.962378e-01  0 
 -3.962378e-01  -1.392498e-01  0 
 0  0  0 

 6.309964e-01  -1.615694e-01  0 
 -1.615694e-01  3.249345e-02  0 
 0  0  0 

 7.570921e-01  -4.815580e-02  0 
 -4.815580e-02  4.050350e-02  0 
 0  0  0 

 4.847747e-01  -1.057340e-01  0 
 -1.057340e-01  -4.738378e-02  0 
 0  0  0 

 6.798646e-01  -3.051191e-02  0 
 -3.051191e-02  1.967055e-02  0 
 0  0  0 

 9.135166e-01  -8.340037e-01  0 
 -8.340037e-01  1.236950e-01  0 
 0  0  0 

 4.017467e-01  -3.008825e-01  0 
 -3.008825e-01  -6.239536e-03  0 
 0  0  0 

 3.417390e-01  -1.750036e-01  0 
 -1.750036e-01  -8.529864e-02  0 
 0  0  0 

 7.679707e-01  -1.869892e-01  0 
 -1.869892e-01  -2.181020e-01  0 
 0  0  0 

 5.306510e-01  -1.211710e-01  0 
 -1.211710e-01  -9.379728e-02  0 
 0  0  0 

TENSORS element_stresses FLOAT
 6.359245e-01  -3.849721e-01  0 
 -3.849721e-01  1.844965e-01  0 
 0  0  0 

 5.689362e-01  -4.599932e-01  0 
 -4.599932e-01  1.860060e-01  0 
 0  0  0 

 5.980647e-01  -3.052630e-01  0 
 -3.052630e-01  1.260986e-01  0 
 0  0  0 

 9.434237e-01  -6.320810e-01  0 
 -6.320810e-01  3.540104e-01  0 
 0  0  0 

 2.354046e+00  -1.255830e+00  0 
 -1.255830e+00  5.810554e-01  0 
 0  0  0 

 3.707704e+00  -1.295656e+00  0 
 -1.295656e+00  8.687963e-01  0 
 0  0  0 

 2.984743e+00  -1.673968e+00  0 
 -1.673968e+00  8.212219e-01  0 
 0  0  0 

 2.306409e+00  -4.042515e-01  0 
 -4.042515e-01  -8.856296e-03  0 
 0  0  0 

 1.075402e+00  -7.178007e-01  0 
 -7.178007e-01  2.721970e-01  0 
 0  0  0 

 2.558025e+00  -1.475537e+00  0 
 -1.475537e+00  1.038194e+00  0 
 0  0  0 

 1.755103e+00  -1.516207e+00  0 
 -1.516207e+00  7.616250e-01  0 
 0  0  0 

 1.783071e+00  -6.789230e-01  0 
 -6.789230e-01  1.088824e-01  0 
 0  0  0 

 1.295112e+00  -5.144119e-01  0 
 -5.144119e-01  3.211546e-01  0 
 0  0  0 

 1.731169e+00  -2.540953e-01  0 
 -2.540953e-01  1.618995e-01  0 
 0  0  0 

 1.046902e+00  -2.410104e-01  0 
 -2.410104e-01  9.158916e-02  0 
 0  0  0 

 1.453749e+00  -1.189555e-01  0 
 -1.189555e-01  9.192792e-02  0 
 0  0  0 

 1.631348e+00  -1.352628e+00  0 
 -1.352628e+00  6.366648e-01  0 
 0  0  0 

 8.621239e-01  -8.828685e-01  0 
 -8.828685e-01  -2.123025e-01  0 
 0  0  0 

 7.574403e-01  -5.476473e-01  0 
 -5.476473e-01  1.238516e-01  0 
 0  0  0 

 6.944129e-01  -3.290691e-01  0 
 -3.290691e-01  -7.709456e-02  0 
 0  0  0 

 5.293774e-01  -3.170143e-01  0 
 -3.170143e-01  -1.004562e-01  0 
 0  0  0 

 6.866244e-01  -3.307947e-01  0 
 -3.307947e-01  -2.936084e-02  0 
 0  0  0 

 1.689042e+00  -3.144448e-01  0 
 -3.144448e-01  -2.623079e-01  0 
 0  0  0 

 1.144823e+00  -2.271441e-01  0 
 -2.271441e-01  -1.298678e-01  0 
 0  0  0 

 1.650315e+00  -4.717296e-01  0 
 -4.717296e-01  8.856445e-02  0 
 0  0  0 

 8.436891e-01  -4.290453e-02  0 
 -4.290453e-02  -4.295237e-02  0 
 0  0  0 

 3.262695e-01  -3.739352e-01  0 
 -3.739352e-01  -1.083382e-01  0 
 0  0  0 

 3.898452e-01  -3.691301e-01  0 
 -3.691301e-01  1.139962e-03  0 
 0  0  0 

 7.433363e-01  -5.512922e-01  0 
 -5.512922e-01  -3.404090e-01  0 
 0  0  0 

 1.373807e+00  -7.174381e-01  0 
 -7.174381e-01  6.826387e-02  0 
 0  0  0 

 1.041916e+00  -7.987115e-01  0 
 -7.987115e-01  2.108541e-01  0 
 0  0  0 

 8.702386e-01  -3.962378e-01  0 
 -3.962378e-01  -1.392498e-01  0 
 0  0  0 

 6.309964e-01  -1.615694e-01  0 
 -1.615694e-01  3.249345e-02  0 
 0  0  0 

 7.570921e-01  -4.815580e-02  0 
 -4.815580e-02  4.050350e-02  0 
 0  0  0 

 4.847747e-01  -1.057340e-01  0 
 -1.057340e-01  -4.738378e-02  0 
 0  0  0 

 6.798646e-01  -3.051191e-02  0 
 -3.051191e-02  1.967055e-02  0 
 0  0  0 

 9.135166e-01  -8.340037e-01  0 
 -8.340037e-01  1.236950e-01  0 
 0  0  0 

 4.017467e-01  -3.008825e-01  0 
 -3.008825e-01  -6.239536e-03  0 
 0  0  0 

 3.417390e-01  -1.750036e-01  0 
 -1.750036e-01  -8.529864e-02  0 
 0  0  0 

 7.679707e-01  -1.869892e-01  0 
 -1.869892e-01  -2.181020e-01  0 
 0  0  0 

 5.306510e-01  -1.211710e-01  0 
 -1.211710e-01  -9.379728e-02  0 
 0  0  0 

