# vtk DataFile Version 3.1
this is an vtk file created by FEMAC
ASCII
DATASET UNSTRUCTURED_GRID
POINTS 55 FLOAT
3.000000 0.000000 0.000000
4.000000 0.000000 0.000000
2.000000 3.000000 0.000000
2.000000 4.000000 0.000000
3.000000 1.000000 0.000000
3.000000 2.000000 0.000000
3.000000 3.000000 0.000000
3.000000 4.000000 0.000000
4.000000 1.000000 0.000000
4.000000 2.000000 0.000000
4.000000 3.000000 0.000000
4.000000 4.000000 0.000000
2.500000 0.000000 0.000000
3.500000 0.000000 0.000000
4.500000 0.000000 0.000000
2.000000 2.500000 0.000000
2.000000 3.500000 0.000000
2.000000 4.500000 0.000000
2.500000 1.000000 0.000000
3.000000 0.500000 0.000000
2.500000 2.000000 0.000000
3.000000 1.500000 0.000000
2.500000 3.000000 0.000000
3.000000 2.500000 0.000000
2.500000 4.000000 0.000000
3.000000 3.500000 0.000000
3.000000 4.500000 0.000000
3.500000 1.000000 0.000000
4.000000 0.500000 0.000000
3.500000 2.000000 0.000000
4.000000 1.500000 0.000000
3.500000 3.000000 0.000000
4.000000 2.500000 0.000000
3.500000 4.000000 0.000000
4.000000 3.500000 0.000000
4.000000 4.500000 0.000000
4.500000 1.000000 0.000000
4.500000 2.000000 0.000000
4.500000 3.000000 0.000000
4.500000 4.000000 0.000000
2.500000 0.500000 0.000000
2.500000 1.500000 0.000000
2.500000 2.500000 0.000000
2.500000 3.500000 0.000000
2.500000 4.500000 0.000000
3.500000 0.500000 0.000000
3.500000 1.500000 0.000000
3.500000 2.500000 0.000000
3.500000 3.500000 0.000000
3.500000 4.500000 0.000000
4.500000 0.500000 0.000000
4.500000 1.500000 0.000000
4.500000 2.500000 0.000000
4.500000 3.500000 0.000000
4.500000 4.500000 0.000000
CELLS 40 200 
4 12  0 19 40
4 40 19  4 18
4 18  4 21 41
4 41 21  5 20
4 15 42 22  2
4 20  5 23 42
4 42 23  6 22
4 2 22 43 16
4 16 43 24  3
4 22  6 25 43
4 43 25  7 24
4 3 24 44 17
4 24  7 26 44
4 0 13 45 19
4 19 45 27  4
4 13  1 28 45
4 45 28  8 27
4 4 27 46 21
4 21 46 29  5
4 27  8 30 46
4 46 30  9 29
4 5 29 47 23
4 23 47 31  6
4 29  9 32 47
4 47 32 10 31
4 6 31 48 25
4 25 48 33  7
4 31 10 34 48
4 48 34 11 33
4 7 33 49 26
4 33 11 35 49
4 1 14 50 28
4 28 50 36  8
4 8 36 51 30
4 30 51 37  9
4 9 37 52 32
4 32 52 38 10
4 10 38 53 34
4 34 53 39 11
4 11 39 54 35
CELL_TYPES 40
9 9 9 9 9 9 9 9 9 9 9 9 9 9 9 9 9 9 9 9 9 9 9 9 9 9 9 9 9 9 9 9 9 9 9 9 9 9 9 9 
POINT_DATA 55
VECTORS displacement_ITER1 FLOAT
 -2.629979e-01  -2.709916e-01  0 
 -3.058369e-01  -3.496443e-01  0 
 -1.069553e-01  -2.261956e-01  0 
 -7.741311e-02  -2.260890e-01  0 
 -2.038281e-01  -2.709599e-01  0 
 -1.518885e-01  -2.739551e-01  0 
 -1.132082e-01  -2.755424e-01  0 
 -7.812330e-02  -2.752287e-01  0 
 -2.165801e-01  -3.427180e-01  0 
 -1.591060e-01  -3.340403e-01  0 
 -1.195423e-01  -3.277329e-01  0 
 -8.181542e-02  -3.243475e-01  0 
 -2.550971e-01  -2.361637e-01  0 
 -2.845874e-01  -3.106607e-01  0 
 -3.118726e-01  -3.969772e-01  0 
 -1.282538e-01  -2.254956e-01  0 
 -9.030342e-02  -2.260249e-01  0 
 -5.996173e-02  -2.257302e-01  0 
 -1.960916e-01  -2.371130e-01  0 
 -2.299983e-01  -2.689771e-01  0 
 -1.495111e-01  -2.475880e-01  0 
 -1.790650e-01  -2.738996e-01  0 
 -1.087034e-01  -2.503533e-01  0 
 -1.300939e-01  -2.733653e-01  0 
 -7.914334e-02  -2.494446e-01  0 
 -9.693471e-02  -2.773428e-01  0 
 -5.843897e-02  -2.729095e-01  0 
 -2.115443e-01  -3.043625e-01  0 
 -2.609577e-01  -3.470714e-01  0 
 -1.537329e-01  -3.050470e-01  0 
 -1.824536e-01  -3.371934e-01  0 
 -1.178770e-01  -3.007454e-01  0 
 -1.408479e-01  -3.321534e-01  0 
 -7.815516e-02  -3.006885e-01  0 
 -9.843105e-02  -3.239737e-01  0 
 -6.905862e-02  -3.256243e-01  0 
 -2.207761e-01  -3.889332e-01  0 
 -1.659699e-01  -3.604942e-01  0 
 -1.211257e-01  -3.545285e-01  0 
 -8.502920e-02  -3.439673e-01  0 
 -2.260137e-01  -2.369163e-01  0 
 -1.702624e-01  -2.410130e-01  0 
 -1.293195e-01  -2.494301e-01  0 
 -9.378498e-02  -2.503316e-01  0 
 -5.839977e-02  -2.496198e-01  0 
 -2.459384e-01  -3.051884e-01  0 
 -1.807386e-01  -3.046505e-01  0 
 -1.348721e-01  -3.031449e-01  0 
 -9.762800e-02  -3.005170e-01  0 
 -6.144747e-02  -2.974473e-01  0 
 -2.643466e-01  -3.932532e-01  0 
 -1.897698e-01  -3.739791e-01  0 
 -1.427754e-01  -3.556903e-01  0 
 -1.025848e-01  -3.502240e-01  0 
 -7.231192e-02  -3.413381e-01  0 
VECTORS displacement_ITER2 FLOAT
 -1.377144e-01  -1.174961e-01  0 
 -1.810873e-01  -1.820858e-01  0 
 -3.004833e-02  -8.959935e-02  0 
 -1.877808e-02  -9.306570e-02  0 
 -9.304177e-02  -1.177593e-01  0 
 -5.835606e-02  -1.218374e-01  0 
 -3.696253e-02  -1.249699e-01  0 
 -1.920719e-02  -1.259154e-01  0 
 -1.069118e-01  -1.749870e-01  0 
 -6.536199e-02  -1.671329e-01  0 
 -4.369958e-02  -1.627273e-01  0 
 -2.124809e-02  -1.626494e-01  0 
 -1.296354e-01  -8.875408e-02  0 
 -1.596371e-01  -1.504219e-01  0 
 -1.871299e-01  -2.218548e-01  0 
 -4.356326e-02  -8.849006e-02  0 
 -2.203948e-02  -9.052387e-02  0 
 -1.173900e-02  -9.358666e-02  0 
 -8.443283e-02  -9.060439e-02  0 
 -1.113722e-01  -1.153809e-01  0 
 -5.587332e-02  -1.033862e-01  0 
 -7.693636e-02  -1.214372e-01  0 
 -3.181887e-02  -1.065764e-01  0 
 -4.519608e-02  -1.216869e-01  0 
 -2.096759e-02  -1.082523e-01  0 
 -2.916226e-02  -1.277015e-01  0 
 -8.844403e-03  -1.243445e-01  0 
 -1.016051e-01  -1.440661e-01  0 
 -1.437407e-01  -1.794526e-01  0 
 -5.988011e-02  -1.452003e-01  0 
 -8.058246e-02  -1.695366e-01  0 
 -4.226940e-02  -1.435132e-01  0 
 -5.583359e-02  -1.663238e-01  0 
 -1.810733e-02  -1.440701e-01  0 
 -3.099850e-02  -1.601545e-01  0 
 -1.347747e-02  -1.662668e-01  0 
 -1.112182e-01  -2.137870e-01  0 
 -7.231870e-02  -1.860482e-01  0 
 -4.487028e-02  -1.809370e-01  0 
 -2.407551e-02  -1.789187e-01  0 
 -1.069503e-01  -8.988190e-02  0 
 -6.810289e-02  -9.607108e-02  0 
 -4.442305e-02  -1.053109e-01  0 
 -2.574014e-02  -1.077870e-01  0 
 -9.525449e-03  -1.089250e-01  0 
 -1.281712e-01  -1.448308e-01  0 
 -7.875592e-02  -1.444749e-01  0 
 -5.003941e-02  -1.445923e-01  0 
 -3.007969e-02  -1.435270e-01  0 
 -9.187306e-03  -1.430952e-01  0 
 -1.472266e-01  -2.181358e-01  0 
 -8.793579e-02  -1.989551e-01  0 
 -5.767156e-02  -1.814812e-01  0 
 -3.460172e-02  -1.800535e-01  0 
 -1.554905e-02  -1.780269e-01  0 
VECTORS displacement_ITER3 FLOAT
 -9.764209e-02  -1.214516e-01  0 
 -1.390220e-01  -1.583857e-01  0 
 -1.750505e-02  -6.033931e-02  0 
 -3.319028e-03  -5.852436e-02  0 
 -8.114538e-02  -1.167541e-01  0 
 -5.659138e-02  -1.084821e-01  0 
 -2.962581e-02  -1.026910e-01  0 
 -7.982033e-03  -9.787715e-02  0 
 -9.584555e-02  -1.528830e-01  0 
 -6.759881e-02  -1.499256e-01  0 
 -4.157830e-02  -1.453539e-01  0 
 -1.037925e-02  -1.455952e-01  0 
 -9.058662e-02  -1.082219e-01  0 
 -1.198161e-01  -1.403156e-01  0 
 -1.436337e-01  -1.809250e-01  0 
 -3.513915e-02  -6.003143e-02  0 
 -5.559706e-03  -5.733324e-02  0 
 1.842949e-03  -5.941971e-02  0 
 -7.045135e-02  -1.052552e-01  0 
 -8.565530e-02  -1.184332e-01  0 
 -5.089800e-02  -8.504822e-02  0 
 -7.366939e-02  -1.142894e-01  0 
 -2.100625e-02  -8.251819e-02  0 
 -3.890873e-02  -1.032580e-01  0 
 -8.250567e-03  -7.564062e-02  0 
 -2.131930e-02  -1.024794e-01  0 
 5.451953e-03  -9.448568e-02  0 
 -9.047596e-02  -1.316790e-01  0 
 -1.178924e-01  -1.561487e-01  0 
 -6.072854e-02  -1.314846e-01  0 
 -7.792749e-02  -1.500427e-01  0 
 -3.822281e-02  -1.224319e-01  0 
 -5.750547e-02  -1.494501e-01  0 
 -7.077905e-03  -1.217685e-01  0 
 -2.442298e-02  -1.426664e-01  0 
 3.168839e-03  -1.494157e-01  0 
 -9.999639e-02  -1.769914e-01  0 
 -7.481203e-02  -1.688259e-01  0 
 -4.367365e-02  -1.677008e-01  0 
 -1.320702e-02  -1.691920e-01  0 
 -8.059771e-02  -1.078023e-01  0 
 -6.123990e-02  -9.460179e-02  0 
 -3.607777e-02  -8.302231e-02  0 
 -1.383285e-02  -7.914489e-02  0 
 4.251391e-03  -7.530673e-02  0 
 -1.029017e-01  -1.342940e-01  0 
 -7.610997e-02  -1.315583e-01  0 
 -4.881157e-02  -1.272203e-01  0 
 -2.316282e-02  -1.215918e-01  0 
 5.741840e-03  -1.201639e-01  0 
 -1.209252e-01  -1.788204e-01  0 
 -8.543946e-02  -1.722443e-01  0 
 -5.970620e-02  -1.670682e-01  0 
 -2.853030e-02  -1.679075e-01  0 
 2.618892e-03  -1.691711e-01  0 
VECTORS displacement_ITER4 FLOAT
 -1.134806e-01  -1.105314e-01  0 
 -1.466286e-01  -1.553119e-01  0 
 -1.019798e-02  -5.638369e-02  0 
 -1.009648e-03  -5.993507e-02  0 
 -8.075001e-02  -1.061349e-01  0 
 -4.766414e-02  -9.909828e-02  0 
 -2.117507e-02  -9.482097e-02  0 
 -5.647815e-03  -9.169336e-02  0 
 -9.605955e-02  -1.494580e-01  0 
 -6.026139e-02  -1.439319e-01  0 
 -3.333019e-02  -1.360763e-01  0 
 -8.254639e-03  -1.331515e-01  0 
 -1.087680e-01  -8.928524e-02  0 
 -1.303913e-01  -1.338945e-01  0 
 -1.505609e-01  -1.802085e-01  0 
 -2.321240e-02  -5.678400e-02  0 
 -4.698470e-04  -5.577863e-02  0 
 -4.193980e-04  -6.193446e-02  0 
 -6.991701e-02  -8.729517e-02  0 
 -9.349488e-02  -1.080509e-01  0 
 -4.127877e-02  -7.471777e-02  0 
 -6.846159e-02  -1.038276e-01  0 
 -1.293393e-02  -7.578725e-02  0 
 -2.904828e-02  -9.446532e-02  0 
 -6.145527e-03  -7.329949e-02  0 
 -1.539742e-02  -9.588604e-02  0 
 2.996687e-03  -8.830895e-02  0 
 -8.996250e-02  -1.248213e-01  0 
 -1.224900e-01  -1.530579e-01  0 
 -5.292964e-02  -1.239776e-01  0 
 -7.353147e-02  -1.456790e-01  0 
 -2.999195e-02  -1.135694e-01  0 
 -4.930287e-02  -1.418967e-01  0 
 -4.427444e-03  -1.128270e-01  0 
 -1.830266e-02  -1.314909e-01  0 
 -4.259177e-04  -1.361822e-01  0 
 -1.011912e-01  -1.770917e-01  0 
 -6.742860e-02  -1.631413e-01  0 
 -3.545658e-02  -1.593916e-01  0 
 -1.199316e-02  -1.513754e-01  0 
 -8.919701e-02  -8.914158e-02  0 
 -5.464472e-02  -8.027311e-02  0 
 -2.564300e-02  -7.504706e-02  0 
 -8.172930e-03  -7.497979e-02  0 
 1.738588e-03  -7.310286e-02  0 
 -1.087073e-01  -1.284332e-01  0 
 -7.130964e-02  -1.243705e-01  0 
 -3.976582e-02  -1.189107e-01  0 
 -1.704067e-02  -1.126718e-01  0 
 3.386388e-03  -1.111488e-01  0 
 -1.254503e-01  -1.787183e-01  0 
 -8.203769e-02  -1.704845e-01  0 
 -5.171953e-02  -1.602175e-01  0 
 -2.308302e-02  -1.544682e-01  0 
 -1.676402e-03  -1.504520e-01  0 
VECTORS displacement_ITER5 FLOAT
 -1.102339e-01  -1.100777e-01  0 
 -1.365321e-01  -1.483841e-01  0 
 -1.733710e-02  -5.474646e-02  0 
 -5.186940e-03  -5.449372e-02  0 
 -8.118687e-02  -1.054182e-01  0 
 -5.266835e-02  -9.685640e-02  0 
 -2.721037e-02  -9.242783e-02  0 
 -9.661242e-03  -8.977272e-02  0 
 -9.717834e-02  -1.432841e-01  0 
 -6.523784e-02  -1.396941e-01  0 
 -3.849360e-02  -1.342085e-01  0 
 -1.165736e-02  -1.327336e-01  0 
 -1.064395e-01  -9.037124e-02  0 
 -1.241216e-01  -1.308093e-01  0 
 -1.391257e-01  -1.666770e-01  0 
 -2.917788e-02  -5.584895e-02  0 
 -8.021219e-03  -5.188800e-02  0 
 -1.446141e-03  -5.662475e-02  0 
 -6.963422e-02  -8.833848e-02  0 
 -9.188316e-02  -1.077427e-01  0 
 -4.595487e-02  -7.344581e-02  0 
 -7.154913e-02  -1.023665e-01  0 
 -1.957883e-02  -7.355360e-02  0 
 -3.503621e-02  -9.197948e-02  0 
 -1.025719e-02  -7.049176e-02  0 
 -2.039363e-02  -9.360822e-02  0 
 1.158513e-04  -8.677680e-02  0 
 -9.088905e-02  -1.216505e-01  0 
 -1.183444e-01  -1.464864e-01  0 
 -5.797132e-02  -1.205433e-01  0 
 -7.722994e-02  -1.403131e-01  0 
 -3.554983e-02  -1.117714e-01  0 
 -5.428088e-02  -1.388158e-01  0 
 -8.196306e-03  -1.112514e-01  0 
 -2.318595e-02  -1.306145e-01  0 
 -2.637966e-04  -1.358339e-01  0 
 -1.024130e-01  -1.655541e-01  0 
 -7.221329e-02  -1.590311e-01  0 
 -4.018911e-02  -1.570777e-01  0 
 -1.536286e-02  -1.543337e-01  0 
 -8.777641e-02  -9.021594e-02  0 
 -5.668076e-02  -8.065649e-02  0 
 -3.178514e-02  -7.299918e-02  0 
 -1.434680e-02  -7.233277e-02  0 
 -4.901332e-04  -7.001652e-02  0 
 -1.059311e-01  -1.258793e-01  0 
 -7.478183e-02  -1.209566e-01  0 
 -4.541125e-02  -1.161473e-01  0 
 -2.191269e-02  -1.110452e-01  0 
 1.034882e-03  -1.102470e-01  0 
 -1.208371e-01  -1.660755e-01  0 
 -8.605485e-02  -1.629417e-01  0 
 -5.628696e-02  -1.572406e-01  0 
 -2.764102e-02  -1.547803e-01  0 
 -6.731662e-04  -1.541547e-01  0 
VECTORS displacement_ITER6 FLOAT
 -1.126617e-01  -1.079356e-01  0 
 -1.385597e-01  -1.491311e-01  0 
 -1.922966e-02  -5.738761e-02  0 
 -6.424825e-03  -5.628499e-02  0 
 -7.981927e-02  -1.037840e-01  0 
 -5.126828e-02  -9.659436e-02  0 
 -2.748245e-02  -9.378222e-02  0 
 -1.004797e-02  -9.255572e-02  0 
 -9.676826e-02  -1.436933e-01  0 
 -6.338647e-02  -1.400001e-01  0 
 -3.732178e-02  -1.354568e-01  0 
 -1.149609e-02  -1.343105e-01  0 
 -1.089029e-01  -8.588424e-02  0 
 -1.261911e-01  -1.303961e-01  0 
 -1.411200e-01  -1.682486e-01  0 
 -2.936181e-02  -5.913655e-02  0 
 -1.114484e-02  -5.389621e-02  0 
 -1.000292e-03  -5.869478e-02  0 
 -6.777663e-02  -8.442742e-02  0 
 -9.215849e-02  -1.057087e-01  0 
 -4.476872e-02  -7.446349e-02  0 
 -6.982294e-02  -1.014160e-01  0 
 -2.079185e-02  -7.518570e-02  0 
 -3.493617e-02  -9.247021e-02  0 
 -1.110411e-02  -7.357768e-02  0 
 -2.036583e-02  -9.570488e-02  0 
 -6.651849e-04  -9.001826e-02  0 
 -9.005217e-02  -1.211459e-01  0 
 -1.193202e-01  -1.471043e-01  0 
 -5.624018e-02  -1.201819e-01  0 
 -7.584639e-02  -1.405118e-01  0 
 -3.502616e-02  -1.134137e-01  0 
 -5.246584e-02  -1.395647e-01  0 
 -8.227898e-03  -1.132062e-01  0 
 -2.279079e-02  -1.321506e-01  0 
 4.401854e-04  -1.372459e-01  0 
 -1.023773e-01  -1.672127e-01  0 
 -7.028831e-02  -1.595875e-01  0 
 -3.851312e-02  -1.578841e-01  0 
 -1.528786e-02  -1.564311e-01  0 
 -8.799429e-02  -8.584363e-02  0 
 -5.455386e-02  -7.926545e-02  0 
 -3.208471e-02  -7.442135e-02  0 
 -1.578478e-02  -7.463229e-02  0 
 -7.594556e-04  -7.319703e-02  0 
 -1.064842e-01  -1.254427e-01  0 
 -7.324490e-02  -1.204438e-01  0 
 -4.431925e-02  -1.166864e-01  0 
 -2.159726e-02  -1.129157e-01  0 
 3.191681e-04  -1.128196e-01  0 
 -1.219741e-01  -1.678395e-01  0 
 -8.488556e-02  -1.638735e-01  0 
 -5.423842e-02  -1.580461e-01  0 
 -2.694165e-02  -1.563163e-01  0 
 4.486329e-04  -1.564691e-01  0 
VECTORS displacement_ITER7 FLOAT
 -1.095946e-01  -1.091154e-01  0 
 -1.376182e-01  -1.489911e-01  0 
 -2.004201e-02  -5.585376e-02  0 
 -6.183155e-03  -5.282383e-02  0 
 -7.936875e-02  -1.045721e-01  0 
 -5.184961e-02  -9.646351e-02  0 
 -2.805959e-02  -9.305467e-02  0 
 -9.822078e-03  -9.159697e-02  0 
 -9.653353e-02  -1.432891e-01  0 
 -6.401856e-02  -1.395437e-01  0 
 -3.749122e-02  -1.349794e-01  0 
 -1.129305e-02  -1.334939e-01  0 
 -1.054939e-01  -8.872797e-02  0 
 -1.243150e-01  -1.307389e-01  0 
 -1.402996e-01  -1.677313e-01  0 
 -3.037417e-02  -5.828857e-02  0 
 -1.194750e-02  -5.124293e-02  0 
 6.957518e-04  -5.518963e-02  0 
 -6.708744e-02  -8.649887e-02  0 
 -9.047123e-02  -1.067685e-01  0 
 -4.525020e-02  -7.449928e-02  0 
 -7.006416e-02  -1.017750e-01  0 
 -2.151704e-02  -7.436535e-02  0 
 -3.568807e-02  -9.200060e-02  0 
 -1.086894e-02  -7.161593e-02  0 
 -2.056427e-02  -9.478470e-02  0 
 4.219349e-04  -8.893562e-02  0 
 -8.975196e-02  -1.211028e-01  0 
 -1.187411e-01  -1.468345e-01  0 
 -5.683127e-02  -1.200047e-01  0 
 -7.608122e-02  -1.400472e-01  0 
 -3.536714e-02  -1.127494e-01  0 
 -5.299015e-02  -1.390460e-01  0 
 -8.041974e-03  -1.125382e-01  0 
 -2.274771e-02  -1.316123e-01  0 
 4.870432e-04  -1.360227e-01  0 
 -1.022091e-01  -1.666215e-01  0 
 -7.096646e-02  -1.589718e-01  0 
 -3.848117e-02  -1.578171e-01  0 
 -1.513729e-02  -1.552440e-01  0 
 -8.615140e-02  -8.831777e-02  0 
 -5.440236e-02  -8.013359e-02  0 
 -3.290651e-02  -7.398491e-02  0 
 -1.630730e-02  -7.308273e-02  0 
 6.752357e-04  -7.116909e-02  0 
 -1.053502e-01  -1.255138e-01  0 
 -7.351464e-02  -1.203518e-01  0 
 -4.492656e-02  -1.161928e-01  0 
 -2.166388e-02  -1.122501e-01  0 
 4.650604e-04  -1.122598e-01  0 
 -1.215339e-01  -1.673757e-01  0 
 -8.521869e-02  -1.629738e-01  0 
 -5.468121e-02  -1.579278e-01  0 
 -2.672376e-02  -1.560385e-01  0 
 5.189129e-04  -1.550798e-01  0 
VECTORS displacement_ITER8 FLOAT
 -1.112044e-01  -1.087683e-01  0 
 -1.396435e-01  -1.497777e-01  0 
 -1.956710e-02  -5.565924e-02  0 
 -6.120087e-03  -5.362842e-02  0 
 -7.990395e-02  -1.042917e-01  0 
 -5.143643e-02  -9.631216e-02  0 
 -2.750379e-02  -9.299247e-02  0 
 -9.732428e-03  -9.163928e-02  0 
 -9.695021e-02  -1.439442e-01  0 
 -6.373705e-02  -1.397638e-01  0 
 -3.691123e-02  -1.347205e-01  0 
 -1.125217e-02  -1.327809e-01  0 
 -1.070579e-01  -8.804174e-02  0 
 -1.260648e-01  -1.308910e-01  0 
 -1.424128e-01  -1.693745e-01  0 
 -2.979954e-02  -5.832223e-02  0 
 -1.146120e-02  -5.153561e-02  0 
 2.796540e-04  -5.614394e-02  0 
 -6.771143e-02  -8.566680e-02  0 
 -9.162896e-02  -1.064537e-01  0 
 -4.483479e-02  -7.424202e-02  0 
 -7.004124e-02  -1.015406e-01  0 
 -2.099789e-02  -7.432764e-02  0 
 -3.515036e-02  -9.189958e-02  0 
 -1.077908e-02  -7.202421e-02  0 
 -2.017085e-02  -9.478515e-02  0 
 7.949122e-05  -8.895004e-02  0 
 -9.019008e-02  -1.212489e-01  0 
 -1.199410e-01  -1.475731e-01  0 
 -5.647931e-02  -1.201045e-01  0 
 -7.603715e-02  -1.405243e-01  0 
 -3.478425e-02  -1.125339e-01  0 
 -5.259333e-02  -1.389930e-01  0 
 -7.961088e-03  -1.122998e-01  0 
 -2.229746e-02  -1.311263e-01  0 
 -2.876071e-04  -1.351119e-01  0 
 -1.026425e-01  -1.680671e-01  0 
 -7.077047e-02  -1.591330e-01  0 
 -3.789370e-02  -1.577778e-01  0 
 -1.517484e-02  -1.536701e-01  0 
 -8.735805e-02  -8.753128e-02  0 
 -5.432613e-02  -7.943743e-02  0 
 -3.238681e-02  -7.388708e-02  0 
 -1.585670e-02  -7.325058e-02  0 
 2.975792e-04  -7.166899e-02  0 
 -1.064812e-01  -1.256386e-01  0 
 -7.347684e-02  -1.204961e-01  0 
 -4.440143e-02  -1.161129e-01  0 
 -2.124364e-02  -1.120189e-01  0 
 -2.260613e-05  -1.120254e-01  0 
 -1.227718e-01  -1.689807e-01  0 
 -8.524433e-02  -1.637426e-01  0 
 -5.433324e-02  -1.580589e-01  0 
 -2.623697e-02  -1.552964e-01  0 
 -3.872181e-04  -1.532783e-01  0 
VECTORS displacement_ITER9 FLOAT
 -1.108900e-01  -1.086243e-01  0 
 -1.395792e-01  -1.494243e-01  0 
 -1.934259e-02  -5.482429e-02  0 
 -5.881628e-03  -5.469417e-02  0 
 -8.030728e-02  -1.042351e-01  0 
 -5.176540e-02  -9.619774e-02  0 
 -2.739000e-02  -9.296555e-02  0 
 -9.600262e-03  -9.158862e-02  0 
 -9.711293e-02  -1.437108e-01  0 
 -6.406950e-02  -1.396943e-01  0 
 -3.688355e-02  -1.347100e-01  0 
 -1.110378e-02  -1.327299e-01  0 
 -1.065491e-01  -8.851612e-02  0 
 -1.259735e-01  -1.305967e-01  0 
 -1.423730e-01  -1.689645e-01  0 
 -2.999849e-02  -5.773432e-02  0 
 -1.064122e-02  -5.166376e-02  0 
 -2.874611e-04  -5.748707e-02  0 
 -6.824362e-02  -8.582542e-02  0 
 -9.178361e-02  -1.063385e-01  0 
 -4.516462e-02  -7.398789e-02  0 
 -7.040937e-02  -1.014662e-01  0 
 -2.081459e-02  -7.411217e-02  0 
 -3.528349e-02  -9.184096e-02  0 
 -1.055902e-02  -7.242582e-02  0 
 -1.998493e-02  -9.474540e-02  0 
 -2.148051e-04  -8.885857e-02  0 
 -9.046467e-02  -1.211326e-01  0 
 -1.199386e-01  -1.472477e-01  0 
 -5.680369e-02  -1.200295e-01  0 
 -7.635118e-02  -1.403849e-01  0 
 -3.471061e-02  -1.125013e-01  0 
 -5.279000e-02  -1.389406e-01  0 
 -7.834520e-03  -1.122226e-01  0 
 -2.218289e-02  -1.311137e-01  0 
 -1.057188e-04  -1.349693e-01  0 
 -1.027079e-01  -1.676556e-01  0 
 -7.110996e-02  -1.590769e-01  0 
 -3.785677e-02  -1.579542e-01  0 
 -1.505436e-02  -1.536687e-01  0 
 -8.756153e-02  -8.783649e-02  0 
 -5.469906e-02  -7.923616e-02  0 
 -3.261002e-02  -7.359323e-02  0 
 -1.533980e-02  -7.331003e-02  0 
 -1.894208e-04  -7.220630e-02  0 
 -1.065481e-01  -1.253816e-01  0 
 -7.382037e-02  -1.204147e-01  0 
 -4.454109e-02  -1.160672e-01  0 
 -2.111981e-02  -1.119661e-01  0 
 -3.197420e-05  -1.120456e-01  0 
 -1.227290e-01  -1.685909e-01  0 
 -8.554128e-02  -1.634635e-01  0 
 -5.452605e-02  -1.581995e-01  0 
 -2.602384e-02  -1.555196e-01  0 
 -1.817509e-04  -1.532488e-01  0 
VECTORS displacement_ITER10 FLOAT
 -1.103254e-01  -1.086373e-01  0 
 -1.391281e-01  -1.491112e-01  0 
 -1.937701e-02  -5.452712e-02  0 
 -5.606889e-03  -5.450409e-02  0 
 -8.027990e-02  -1.042712e-01  0 
 -5.196662e-02  -9.617810e-02  0 
 -2.752317e-02  -9.293107e-02  0 
 -9.483174e-03  -9.143732e-02  0 
 -9.702576e-02  -1.434564e-01  0 
 -6.425276e-02  -1.395968e-01  0 
 -3.708799e-02  -1.347708e-01  0 
 -1.105331e-02  -1.329359e-01  0 
 -1.059071e-01  -8.885633e-02  0 
 -1.255071e-01  -1.304378e-01  0 
 -1.419336e-01  -1.684875e-01  0 
 -3.019450e-02  -5.755449e-02  0 
 -1.037331e-02  -5.149814e-02  0 
 -4.782651e-05  -5.733708e-02  0 
 -6.823245e-02  -8.607340e-02  0 
 -9.150878e-02  -1.063554e-01  0 
 -4.536035e-02  -7.396351e-02  0 
 -7.051547e-02  -1.014883e-01  0 
 -2.089176e-02  -7.402171e-02  0 
 -3.547285e-02  -9.182083e-02  0 
 -1.034191e-02  -7.220993e-02  0 
 -2.002755e-02  -9.465646e-02  0 
 2.137792e-05  -8.863702e-02  0 
 -9.041827e-02  -1.210382e-01  0 
 -1.196495e-01  -1.469466e-01  0 
 -5.699200e-02  -1.199669e-01  0 
 -7.643877e-02  -1.401980e-01  0 
 -3.488306e-02  -1.125216e-01  0 
 -5.301068e-02  -1.389206e-01  0 
 -7.765403e-03  -1.122351e-01  0 
 -2.228404e-02  -1.312560e-01  0 
 2.060569e-04  -1.351746e-01  0 
 -1.025751e-01  -1.671943e-01  0 
 -7.127265e-02  -1.589310e-01  0 
 -3.807762e-02  -1.580015e-01  0 
 -1.502328e-02  -1.542080e-01  0 
 -8.729017e-02  -8.812692e-02  0 
 -5.478160e-02  -7.932215e-02  0 
 -3.282760e-02  -7.350570e-02  0 
 -1.523577e-02  -7.315886e-02  0 
 1.631477e-05  -7.195856e-02  0 
 -1.062727e-01  -1.252326e-01  0 
 -7.392294e-02  -1.203376e-01  0 
 -4.475005e-02  -1.160553e-01  0 
 -2.120355e-02  -1.119851e-01  0 
 1.981644e-04  -1.120944e-01  0 
 -1.224244e-01  -1.681269e-01  0 
 -8.559463e-02  -1.631296e-01  0 
 -5.473890e-02  -1.581680e-01  0 
 -2.609643e-02  -1.558887e-01  0 
 1.774740e-04  -1.538317e-01  0 
VECTORS displacement_ITER11 FLOAT
 -1.108564e-01  -1.083461e-01  0 
 -1.395899e-01  -1.492612e-01  0 
 -1.921268e-02  -5.474689e-02  0 
 -5.557347e-03  -5.472103e-02  0 
 -8.020755e-02  -1.040443e-01  0 
 -5.163029e-02  -9.609842e-02  0 
 -2.733994e-02  -9.292487e-02  0 
 -9.472842e-03  -9.144967e-02  0 
 -9.692446e-02  -1.435689e-01  0 
 -6.395438e-02  -1.395766e-01  0 
 -3.694860e-02  -1.346530e-01  0 
 -1.106414e-02  -1.327899e-01  0 
 -1.064718e-01  -8.826417e-02  0 
 -1.259502e-01  -1.303681e-01  0 
 -1.424174e-01  -1.689284e-01  0 
 -2.983512e-02  -5.785467e-02  0 
 -1.027041e-02  -5.181148e-02  0 
 -8.363641e-05  -5.756901e-02  0 
 -6.818480e-02  -8.554709e-02  0 
 -9.174314e-02  -1.060874e-01  0 
 -4.503140e-02  -7.392156e-02  0 
 -7.026297e-02  -1.013305e-01  0 
 -2.071447e-02  -7.411647e-02  0 
 -3.518571e-02  -9.178509e-02  0 
 -1.030408e-02  -7.232101e-02  0 
 -1.993675e-02  -9.467140e-02  0 
 -4.541598e-05  -8.862226e-02  0 
 -9.032216e-02  -1.209900e-01  0 
 -1.198252e-01  -1.470845e-01  0 
 -5.667299e-02  -1.199221e-01  0 
 -7.618600e-02  -1.402493e-01  0 
 -3.471568e-02  -1.124542e-01  0 
 -5.280303e-02  -1.388427e-01  0 
 -7.765474e-03  -1.121742e-01  0 
 -2.220012e-02  -1.311153e-01  0 
 5.405994e-05  -1.350147e-01  0 
 -1.024776e-01  -1.675692e-01  0 
 -7.098249e-02  -1.587980e-01  0 
 -3.797539e-02  -1.578136e-01  0 
 -1.505031e-02  -1.539513e-01  0 
 -8.754963e-02  -8.755062e-02  0 
 -5.451127e-02  -7.901509e-02  0 
 -3.253412e-02  -7.356097e-02  0 
 -1.513752e-02  -7.327929e-02  0 
 -5.045073e-05  -7.204251e-02  0 
 -1.064627e-01  -1.251749e-01  0 
 -7.367002e-02  -1.202942e-01  0 
 -4.448831e-02  -1.159998e-01  0 
 -2.111487e-02  -1.119185e-01  0 
 7.554597e-05  -1.120624e-01  0 
 -1.226075e-01  -1.685561e-01  0 
 -8.534005e-02  -1.632562e-01  0 
 -5.455722e-02  -1.580059e-01  0 
 -2.601348e-02  -1.557051e-01  0 
 3.523581e-05  -1.535680e-01  0 
VECTORS displacement_ITER12 FLOAT
 -1.105998e-01  -1.084666e-01  0 
 -1.392908e-01  -1.491437e-01  0 
 -1.939551e-02  -5.471238e-02  0 
 -5.640719e-03  -5.441506e-02  0 
 -8.020122e-02  -1.041401e-01  0 
 -5.178548e-02  -9.612253e-02  0 
 -2.753210e-02  -9.290203e-02  0 
 -9.575817e-03  -9.140677e-02  0 
 -9.691406e-02  -1.434649e-01  0 
 -6.410195e-02  -1.395279e-01  0 
 -3.715026e-02  -1.346599e-01  0 
 -1.117086e-02  -1.328502e-01  0 
 -1.062214e-01  -8.850562e-02  0 
 -1.256839e-01  -1.303692e-01  0 
 -1.421017e-01  -1.686599e-01  0 
 -3.000795e-02  -5.785741e-02  0 
 -1.048272e-02  -5.170055e-02  0 
 -8.500667e-06  -5.724761e-02  0 
 -6.816795e-02  -8.577690e-02  0 
 -9.160843e-02  -1.062027e-01  0 
 -4.518149e-02  -7.395851e-02  0 
 -7.035391e-02  -1.013947e-01  0 
 -2.090065e-02  -7.409596e-02  0 
 -3.536720e-02  -9.178150e-02  0 
 -1.039761e-02  -7.216768e-02  0 
 -2.010256e-02  -9.463316e-02  0 
 -1.833409e-05  -8.857652e-02  0 
 -9.031946e-02  -1.209843e-01  0 
 -1.196704e-01  -1.469713e-01  0 
 -5.682711e-02  -1.199128e-01  0 
 -7.627440e-02  -1.401669e-01  0 
 -3.491104e-02  -1.124511e-01  0 
 -5.298513e-02  -1.388230e-01  0 
 -7.874467e-03  -1.121824e-01  0 
 -2.236543e-02  -1.311533e-01  0 
 2.170187e-05  -1.350796e-01  0 
 -1.024564e-01  -1.673270e-01  0 
 -7.111113e-02  -1.587154e-01  0 
 -3.818663e-02  -1.577880e-01  0 
 -1.516111e-02  -1.540930e-01  0 
 -8.741162e-02  -8.779174e-02  0 
 -5.457828e-02  -7.913662e-02  0 
 -3.271066e-02  -7.356288e-02  0 
 -1.532415e-02  -7.318763e-02  0 
 -4.622423e-06  -7.186463e-02  0 
 -1.063242e-01  -1.251777e-01  0 
 -7.376298e-02  -1.202858e-01  0 
 -4.467676e-02  -1.159929e-01  0 
 -2.127962e-02  -1.119190e-01  0 
 3.598791e-05  -1.121047e-01  0 
 -1.224460e-01  -1.682999e-01  0 
 -8.541381e-02  -1.630964e-01  0 
 -5.473654e-02  -1.579533e-01  0 
 -2.616529e-02  -1.558065e-01  0 
 1.521611e-05  -1.537168e-01  0 
VECTORS displacement_ITER13 FLOAT
 -1.106998e-01  -1.084523e-01  0 
 -1.393705e-01  -1.492098e-01  0 
 -1.937286e-02  -5.479643e-02  0 
 -5.660379e-03  -5.445703e-02  0 
 -8.017447e-02  -1.041265e-01  0 
 -5.170429e-02  -9.613220e-02  0 
 -2.748429e-02  -9.293433e-02  0 
 -9.575640e-03  -9.148129e-02  0 
 -9.689562e-02  -1.435216e-01  0 
 -6.402351e-02  -1.395688e-01  0 
 -3.709964e-02  -1.346846e-01  0 
 -1.114839e-02  -1.328685e-01  0 
 -1.063367e-01  -8.841195e-02  0 
 -1.257621e-01  -1.303973e-01  0 
 -1.421820e-01  -1.687661e-01  0 
 -2.991726e-02  -5.796191e-02  0 
 -1.054417e-02  -5.182398e-02  0 
 6.360938e-06  -5.729405e-02  0 
 -6.813811e-02  -8.571011e-02  0 
 -9.163929e-02  -1.061887e-01  0 
 -4.510364e-02  -7.396983e-02  0 
 -7.029367e-02  -1.013909e-01  0 
 -2.086469e-02  -7.414322e-02  0 
 -3.529738e-02  -9.180000e-02  0 
 -1.041210e-02  -7.224596e-02  0 
 -2.007319e-02  -9.468690e-02  0 
 -1.802114e-05  -8.866580e-02  0 
 -9.029521e-02  -1.210069e-01  0 
 -1.197049e-01  -1.470332e-01  0 
 -5.674878e-02  -1.199360e-01  0 
 -7.621636e-02  -1.402151e-01  0 
 -3.485895e-02  -1.124825e-01  0 
 -5.291801e-02  -1.388570e-01  0 
 -7.860450e-03  -1.122269e-01  0 
 -2.232479e-02  -1.311723e-01  0 
 -3.571621e-06  -1.350967e-01  0 
 -1.024431e-01  -1.674312e-01  0 
 -7.102541e-02  -1.587484e-01  0 
 -3.814486e-02  -1.577960e-01  0 
 -1.514049e-02  -1.540670e-01  0 
 -8.744207e-02  -8.771109e-02  0 
 -5.450615e-02  -7.908535e-02  0 
 -3.263619e-02  -7.359910e-02  0 
 -1.533195e-02  -7.325175e-02  0 
 -1.007564e-06  -7.193949e-02  0 
 -1.063556e-01  -1.252053e-01  0 
 -7.370441e-02  -1.203082e-01  0 
 -4.460638e-02  -1.160193e-01  0 
 -2.124185e-02  -1.119544e-01  0 
 6.364330e-06  -1.121887e-01  0 
 -1.224853e-01  -1.684097e-01  0 
 -8.535032e-02  -1.631775e-01  0 
 -5.467705e-02  -1.579734e-01  0 
 -2.610909e-02  -1.558248e-01  0 
 -5.958952e-06  -1.536814e-01  0 
VECTORS displacement_ITER14 FLOAT
 -1.106787e-01  -1.084696e-01  0 
 -1.393597e-01  -1.492145e-01  0 
 -1.934724e-02  -5.477994e-02  0 
 -5.635658e-03  -5.446347e-02  0 
 -8.017869e-02  -1.041335e-01  0 
 -5.170163e-02  -9.613033e-02  0 
 -2.745791e-02  -9.292960e-02  0 
 -9.553692e-03  -9.147797e-02  0 
 -9.690693e-02  -1.435262e-01  0 
 -6.402142e-02  -1.395768e-01  0 
 -3.707174e-02  -1.346844e-01  0 
 -1.111948e-02  -1.328570e-01  0 
 -1.063150e-01  -8.843618e-02  0 
 -1.257506e-01  -1.304081e-01  0 
 -1.421676e-01  -1.687538e-01  0 
 -2.990198e-02  -5.794155e-02  0 
 -1.052493e-02  -5.185204e-02  0 
 2.328473e-05  -5.729754e-02  0 
 -6.814217e-02  -8.573701e-02  0 
 -9.162835e-02  -1.062020e-01  0 
 -4.510166e-02  -7.395708e-02  0 
 -7.029899e-02  -1.013927e-01  0 
 -2.083877e-02  -7.413396e-02  0 
 -3.528115e-02  -9.179729e-02  0 
 -1.038970e-02  -7.224364e-02  0 
 -2.004625e-02  -9.468295e-02  0 
 5.356936e-06  -8.865971e-02  0 
 -9.030172e-02  -1.210110e-01  0 
 -1.197079e-01  -1.470373e-01  0 
 -5.674754e-02  -1.199391e-01  0 
 -7.622260e-02  -1.402221e-01  0 
 -3.483152e-02  -1.124778e-01  0 
 -5.290104e-02  -1.388621e-01  0 
 -7.834971e-03  -1.122231e-01  0 
 -2.229284e-02  -1.311660e-01  0 
 1.715483e-07  -1.350779e-01  0 
 -1.024584e-01  -1.674266e-01  0 
 -7.102321e-02  -1.587732e-01  0 
 -3.811625e-02  -1.578057e-01  0 
 -1.510939e-02  -1.540297e-01  0 
 -8.742688e-02  -8.773827e-02  0 
 -5.451188e-02  -7.907801e-02  0 
 -3.261924e-02  -7.358540e-02  0 
 -1.530557e-02  -7.324908e-02  0 
 1.699374e-05  -7.193282e-02  0 
 -1.063528e-01  -1.252129e-01  0 
 -7.370963e-02  -1.203116e-01  0 
 -4.459037e-02  -1.160190e-01  0 
 -2.121294e-02  -1.119491e-01  0 
 1.387355e-05  -1.121964e-01  0 
 -1.224906e-01  -1.684006e-01  0 
 -8.535990e-02  -1.631999e-01  0 
 -5.466233e-02  -1.579908e-01  0 
 -2.606481e-02  -1.558245e-01  0 
 -3.409140e-06  -1.536357e-01  0 
VECTORS displacement_ITER15 FLOAT
 -1.106795e-01  -1.084733e-01  0 
 -1.393560e-01  -1.492080e-01  0 
 -1.934919e-02  -5.476653e-02  0 
 -5.638375e-03  -5.448223e-02  0 
 -8.019554e-02  -1.041342e-01  0 
 -5.171992e-02  -9.613009e-02  0 
 -2.746181e-02  -9.293091e-02  0 
 -9.557786e-03  -9.148030e-02  0 
 -9.692630e-02  -1.435224e-01  0 
 -6.403869e-02  -1.395790e-01  0 
 -3.707514e-02  -1.346875e-01  0 
 -1.111906e-02  -1.328563e-01  0 
 -1.063155e-01  -8.844289e-02  0 
 -1.257524e-01  -1.304076e-01  0 
 -1.421608e-01  -1.687333e-01  0 
 -2.991965e-02  -5.792228e-02  0 
 -1.052502e-02  -5.186840e-02  0 
 8.002832e-06  -5.731643e-02  0 
 -6.816009e-02  -8.574815e-02  0 
 -9.163538e-02  -1.062040e-01  0 
 -4.512146e-02  -7.395447e-02  0 
 -7.031844e-02  -1.013929e-01  0 
 -2.084199e-02  -7.413037e-02  0 
 -3.529320e-02  -9.179890e-02  0 
 -1.039344e-02  -7.225076e-02  0 
 -2.004801e-02  -9.468433e-02  0 
 -8.572918e-07  -8.866228e-02  0 
 -9.031939e-02  -1.210102e-01  0 
 -1.197166e-01  -1.470316e-01  0 
 -5.676552e-02  -1.199390e-01  0 
 -7.624295e-02  -1.402216e-01  0 
 -3.483488e-02  -1.124793e-01  0 