# vtk DataFile Version 3.1
this is an vtk file created by FEMAC
ASCII
DATASET UNSTRUCTURED_GRID
POINTS 56 FLOAT
5.000000 7.000000 0.000000
5.000000 8.000000 0.000000
5.000000 9.000000 0.000000
6.000000 7.000000 0.000000
6.000000 8.000000 0.000000
6.000000 9.000000 0.000000
7.000000 7.000000 0.000000
7.000000 8.000000 0.000000
7.000000 9.000000 0.000000
8.000000 7.000000 0.000000
8.000000 8.000000 0.000000
8.000000 9.000000 0.000000
9.000000 7.000000 0.000000
9.000000 8.000000 0.000000
9.000000 9.000000 0.000000
4.500000 7.000000 0.000000
4.500000 8.000000 0.000000
5.000000 7.500000 0.000000
4.500000 9.000000 0.000000
5.000000 8.500000 0.000000
5.500000 7.000000 0.000000
5.500000 8.000000 0.000000
6.000000 7.500000 0.000000
5.500000 9.000000 0.000000
6.000000 8.500000 0.000000
6.500000 7.000000 0.000000
7.000000 6.500000 0.000000
6.500000 8.000000 0.000000
7.000000 7.500000 0.000000
6.500000 9.000000 0.000000
7.000000 8.500000 0.000000
7.500000 7.000000 0.000000
8.000000 6.500000 0.000000
7.500000 8.000000 0.000000
8.000000 7.500000 0.000000
7.500000 9.000000 0.000000
8.000000 8.500000 0.000000
8.500000 7.000000 0.000000
9.000000 6.500000 0.000000
8.500000 8.000000 0.000000
9.000000 7.500000 0.000000
8.500000 9.000000 0.000000
9.000000 8.500000 0.000000
4.500000 7.500000 0.000000
4.500000 8.500000 0.000000
5.500000 7.500000 0.000000
5.500000 8.500000 0.000000
6.500000 6.500000 0.000000
6.500000 7.500000 0.000000
6.500000 8.500000 0.000000
7.500000 6.500000 0.000000
7.500000 7.500000 0.000000
7.500000 8.500000 0.000000
8.500000 6.500000 0.000000
8.500000 7.500000 0.000000
8.500000 8.500000 0.000000
CELLS 41 205 
4 15  0 17 43
4 43 17  1 16
4 16  1 19 44
4 44 19  2 18
4 0 20 45 17
4 17 45 21  1
4 20  3 22 45
4 45 22  4 21
4 1 21 46 19
4 19 46 23  2
4 21  4 24 46
4 46 24  5 23
4 47 26  6 25
4 3 25 48 22
4 22 48 27  4
4 25  6 28 48
4 48 28  7 27
4 4 27 49 24
4 24 49 29  5
4 27  7 30 49
4 49 30  8 29
4 26 50 31  6
4 50 32  9 31
4 6 31 51 28
4 28 51 33  7
4 31  9 34 51
4 51 34 10 33
4 7 33 52 30
4 30 52 35  8
4 33 10 36 52
4 52 36 11 35
4 32 53 37  9
4 53 38 12 37
4 9 37 54 34
4 34 54 39 10
4 37 12 40 54
4 54 40 13 39
4 10 39 55 36
4 36 55 41 11
4 39 13 42 55
4 55 42 14 41
CELL_TYPES 41
9 9 9 9 9 9 9 9 9 9 9 9 9 9 9 9 9 9 9 9 9 9 9 9 9 9 9 9 9 9 9 9 9 9 9 9 9 9 9 9 9 
POINT_DATA 56
VECTORS displacement_ITER1 FLOAT
 1.177661e-02  -3.987960e-02  0 
 3.625589e-02  -4.097364e-02  0 
 6.037857e-02  -4.128443e-02  0 
 1.629321e-02  -6.483982e-02  0 
 3.807600e-02  -6.560855e-02  0 
 6.051838e-02  -6.568850e-02  0 
 2.026676e-02  -8.625567e-02  0 
 3.926544e-02  -8.714019e-02  0 
 5.947245e-02  -8.724438e-02  0 
 2.175504e-02  -1.057055e-01  0 
 3.992350e-02  -1.063373e-01  0 
 5.870892e-02  -1.065685e-01  0 
 2.241568e-02  -1.232818e-01  0 
 4.016507e-02  -1.246556e-01  0 
 5.857234e-02  -1.250526e-01  0 
 9.903035e-03  -2.579177e-02  0 
 3.516555e-02  -2.811720e-02  0 
 2.428733e-02  -4.048990e-02  0 
 5.880045e-02  -2.830189e-02  0 
 4.805368e-02  -4.110527e-02  0 
 1.401288e-02  -5.262942e-02  0 
 3.723232e-02  -5.358857e-02  0 
 2.727955e-02  -6.547123e-02  0 
 6.073439e-02  -5.382770e-02  0 
 4.916267e-02  -6.570243e-02  0 
 1.908564e-02  -7.659971e-02  0 
 1.151148e-02  -8.575641e-02  0 
 3.874062e-02  -7.676039e-02  0 
 2.948510e-02  -8.680501e-02  0 
 6.002680e-02  -7.681335e-02  0 
 4.933049e-02  -8.728887e-02  0 
 2.112838e-02  -9.608023e-02  0 
 1.289409e-02  -1.052714e-01  0 
 3.967458e-02  -9.693055e-02  0 
 3.072300e-02  -1.060368e-01  0 
 5.900683e-02  -9.710221e-02  0 
 4.930875e-02  -1.065381e-01  0 
 2.218340e-02  -1.148180e-01  0 
 1.485424e-02  -1.224729e-01  0 
 4.005251e-02  -1.155276e-01  0 
 3.110207e-02  -1.240933e-01  0 
 5.858501e-02  -1.158368e-01  0 
 4.935745e-02  -1.249615e-01  0 
 2.279066e-02  -2.730189e-02  0 
 4.738371e-02  -2.845028e-02  0 
 2.570889e-02  -5.329968e-02  0 
 4.877729e-02  -5.374817e-02  0 
 1.194502e-02  -7.720018e-02  0 
 2.847851e-02  -7.661405e-02  0 
 4.930328e-02  -7.686611e-02  0 
 1.201032e-02  -9.560653e-02  0 
 3.026623e-02  -9.656434e-02  0 
 4.931957e-02  -9.711436e-02  0 
 1.389160e-02  -1.144069e-01  0 
 3.093101e-02  -1.151676e-01  0 
 4.931781e-02  -1.157677e-01  0 
VECTORS displacement_ITER2 FLOAT
 1.541972e-02  -6.170221e-02  0 
 2.972780e-02  -6.262603e-02  0 
 4.383386e-02  -6.290615e-02  0 
 1.974356e-02  -7.658834e-02  0 
 3.150306e-02  -7.728074e-02  0 
 4.395430e-02  -7.734308e-02  0 
 2.363246e-02  -8.796571e-02  0 
 3.265138e-02  -8.881989e-02  0 
 4.287514e-02  -8.891212e-02  0 
 2.509429e-02  -9.737538e-02  0 
 3.328695e-02  -9.801676e-02  0 
 4.209276e-02  -9.824716e-02  0 
 2.575207e-02  -1.049503e-01  0 
 3.352771e-02  -1.063460e-01  0 
 4.195318e-02  -1.067462e-01  0 
 1.367027e-02  -5.270024e-02  0 
 2.866198e-02  -5.476968e-02  0 
 2.282810e-02  -6.221198e-02  0 
 4.223122e-02  -5.486710e-02  0 
 3.649311e-02  -6.272962e-02  0 
 1.753868e-02  -6.941448e-02  0 
 3.068178e-02  -7.025248e-02  0 
 2.571029e-02  -7.716909e-02  0 
 4.418459e-02  -7.047102e-02  0 
 3.759140e-02  -7.736294e-02  0 
 2.246877e-02  -8.331080e-02  0 
 1.987293e-02  -8.748471e-02  0 
 3.214559e-02  -8.343819e-02  0 
 2.786065e-02  -8.849700e-02  0 
 4.344546e-02  -8.347541e-02  0 
 3.772603e-02  -8.896143e-02  0 
 2.447911e-02  -9.277257e-02  0 
 2.123768e-02  -9.693715e-02  0 
 3.304591e-02  -9.360999e-02  0 
 2.907247e-02  -9.771289e-02  0 
 4.239756e-02  -9.377516e-02  0 
 3.768422e-02  -9.821784e-02  0 
 2.551638e-02  -1.014759e-01  0 
 2.315918e-02  -1.041076e-01  0 
 3.341412e-02  -1.022102e-01  0 
 2.945370e-02  -1.057762e-01  0 
 4.196625e-02  -1.025223e-01  0 
 3.772971e-02  -1.066548e-01  0 
 2.140829e-02  -5.404593e-02  0 
 3.579973e-02  -5.503472e-02  0 
 2.419069e-02  -7.000587e-02  0 
 3.721852e-02  -7.039596e-02  0 
 2.028353e-02  -8.391192e-02  0 
 2.687758e-02  -8.330784e-02  0 
 3.771514e-02  -8.353408e-02  0 
 2.037169e-02  -9.230800e-02  0 
 2.862470e-02  -9.324902e-02  0 
 3.770256e-02  -9.379024e-02  0 
 2.221084e-02  -1.010465e-01  0 
 2.927975e-02  -1.018422e-01  0 
 3.769036e-02  -1.024530e-01  0 
VECTORS displacement_ITER3 FLOAT
 1.915674e-02  -5.201836e-02  0 
 2.869246e-02  -5.268935e-02  0 
 3.856818e-02  -5.309239e-02  0 
 2.087767e-02  -6.259240e-02  0 
 2.998004e-02  -6.329317e-02  0 
 4.002824e-02  -6.376204e-02  0 
 2.143793e-02  -7.296989e-02  0 
 3.086454e-02  -7.361478e-02  0 
 4.069670e-02  -7.398502e-02  0 
 2.173255e-02  -8.325223e-02  0 
 3.124295e-02  -8.368895e-02  0 
 4.095777e-02  -8.391865e-02  0 
 2.194080e-02  -9.278221e-02  0 
 3.138172e-02  -9.341710e-02  0 
 4.100770e-02  -9.365171e-02  0 
 1.819335e-02  -4.609414e-02  0 
 2.787466e-02  -4.733852e-02  0 
 2.395119e-02  -5.237323e-02  0 
 3.689796e-02  -4.773284e-02  0 
 3.345656e-02  -5.283209e-02  0 
 2.016180e-02  -5.733771e-02  0 
 2.936796e-02  -5.800595e-02  0 
 2.528713e-02  -6.296625e-02  0 
 3.945727e-02  -5.848776e-02  0 
 3.490612e-02  -6.356564e-02  0 
 2.129103e-02  -6.772066e-02  0 
 1.673834e-02  -7.271591e-02  0 
 3.048844e-02  -6.848532e-02  0 
 2.612480e-02  -7.329196e-02  0 
 4.042434e-02  -6.891938e-02  0 
 3.572244e-02  -7.385631e-02  0 
 2.158346e-02  -7.816564e-02  0 
 1.695277e-02  -8.297055e-02  0 
 3.110845e-02  -7.868977e-02  0 
 2.646937e-02  -8.348746e-02  0 
 4.086843e-02  -7.898005e-02  0 
 3.607295e-02  -8.384692e-02  0 
 2.185849e-02  -8.816306e-02  0 
 1.774491e-02  -9.228874e-02  0 
 3.131915e-02  -8.859561e-02  0 
 2.661913e-02  -9.315474e-02  0 
 4.099236e-02  -8.880599e-02  0 
 3.617998e-02  -9.358769e-02  0 
 2.305990e-02  -4.689327e-02  0 
 3.273678e-02  -4.767127e-02  0 
 2.466180e-02  -5.775781e-02  0 
 3.426924e-02  -5.825356e-02  0 
 1.656409e-02  -6.724303e-02  0 
 2.577579e-02  -6.812777e-02  0 
 3.538093e-02  -6.875808e-02  0 
 1.681056e-02  -7.786496e-02  0 
 2.633700e-02  -7.844105e-02  0 
 3.594527e-02  -7.888347e-02  0 
 1.722204e-02  -8.789043e-02  0 
 2.654276e-02  -8.838323e-02  0 
 3.613991e-02  -8.874688e-02  0 
VECTORS displacement_ITER4 FLOAT
 1.991189e-02  -5.002158e-02  0 
 2.913973e-02  -5.092180e-02  0 
 3.909299e-02  -5.157283e-02  0 
 2.148090e-02  -6.087325e-02  0 
 3.070567e-02  -6.163016e-02  0 
 4.076093e-02  -6.217566e-02  0 
 2.219883e-02  -7.152652e-02  0 
 3.166024e-02  -7.212833e-02  0 
 4.158009e-02  -7.249830e-02  0 
 2.253580e-02  -8.191255e-02  0 
 3.207300e-02  -8.232395e-02  0 
 4.186749e-02  -8.255036e-02  0 
 2.272448e-02  -9.155002e-02  0 
 3.222213e-02  -9.212785e-02  0 
 4.191506e-02  -9.236315e-02  0 
 1.896905e-02  -4.428432e-02  0 
 2.806922e-02  -4.553227e-02  0 
 2.447886e-02  -5.046984e-02  0 
 3.758972e-02  -4.622968e-02  0 
 3.395918e-02  -5.123965e-02  0 
 2.080057e-02  -5.545480e-02  0 
 2.999895e-02  -5.628169e-02  0 
 2.598380e-02  -6.126207e-02  0 
 4.006689e-02  -5.690958e-02  0 
 3.563236e-02  -6.194469e-02  0 
 2.193961e-02  -6.615852e-02  0 
 1.753769e-02  -7.128062e-02  0 
 3.125920e-02  -6.691220e-02  0 
 2.689146e-02  -7.182831e-02  0 
 4.125292e-02  -6.737095e-02  0 
 3.655391e-02  -7.236305e-02  0 
 2.238772e-02  -7.678861e-02  0 
 1.780474e-02  -8.168509e-02  0 
 3.192257e-02  -7.727176e-02  0 
 2.727645e-02  -8.212848e-02  0 
 4.177385e-02  -7.755755e-02  0 
 3.693801e-02  -8.247911e-02  0 
 2.264822e-02  -8.685845e-02  0 
 1.835985e-02  -9.114751e-02  0 
 3.215807e-02  -8.727361e-02  0 
 2.743533e-02  -9.187734e-02  0 
 4.190060e-02  -8.748044e-02  0 
 3.705149e-02  -9.229832e-02  0 
 2.343064e-02  -4.503676e-02  0 
 3.295486e-02  -4.599026e-02  0 
 2.530606e-02  -5.591523e-02  0 
 3.489984e-02  -5.662390e-02  0 
 1.730432e-02  -6.575411e-02  0 
 2.651066e-02  -6.656270e-02  0 
 3.617346e-02  -6.719141e-02  0 
 1.766882e-02  -7.653967e-02  0 
 2.712984e-02  -7.703724e-02  0 
 3.679844e-02  -7.745971e-02  0 
 1.798904e-02  -8.662393e-02  0 
 2.735957e-02  -8.706943e-02  0 
 3.701017e-02  -8.742194e-02  0 
VECTORS displacement_ITER5 FLOAT
 1.934922e-02  -4.926008e-02  0 
 2.841643e-02  -5.030443e-02  0 
 3.840303e-02  -5.113869e-02  0 
 2.082973e-02  -6.038186e-02  0 
 3.016893e-02  -6.114951e-02  0 
 4.019285e-02  -6.171709e-02  0 
 2.188298e-02  -7.110322e-02  0 
 3.117253e-02  -7.168582e-02  0 
 4.100783e-02  -7.203015e-02  0 
 2.236614e-02  -8.130099e-02  0 
 3.163295e-02  -8.172136e-02  0 
 4.123180e-02  -8.194514e-02  0 
 2.258229e-02  -9.070152e-02  0 
 3.180168e-02  -9.128364e-02  0 
 4.126091e-02  -9.153368e-02  0 
 1.851144e-02  -4.366995e-02  0 
 2.718320e-02  -4.487895e-02  0 
 2.380841e-02  -4.976700e-02  0 
 3.697519e-02  -4.579330e-02  0 
 3.325522e-02  -5.074713e-02  0 
 2.012582e-02  -5.481881e-02  0 
 2.939940e-02  -5.573465e-02  0 
 2.544183e-02  -6.078126e-02  0 
 3.944183e-02  -5.645021e-02  0 
 3.507387e-02  -6.147493e-02  0 
 2.146224e-02  -6.580482e-02  0 
 1.740525e-02  -7.082713e-02  0 
 3.075058e-02  -6.647620e-02  0 
 2.646335e-02  -7.140793e-02  0 
 4.070017e-02  -6.691799e-02  0 
 3.601954e-02  -7.190440e-02  0 
 2.216982e-02  -7.628041e-02  0 
 1.783542e-02  -8.108456e-02  0 
 3.145924e-02  -7.676785e-02  0 
 2.695620e-02  -8.151918e-02  0 
 4.116753e-02  -7.703865e-02  0 
 3.639794e-02  -8.187803e-02  0 
 2.249771e-02  -8.612456e-02  0 
 1.827336e-02  -9.037093e-02  0 
 3.173153e-02  -8.655385e-02  0 
 2.714744e-02  -9.101938e-02  0 
 4.124974e-02  -8.676625e-02  0 
 3.651222e-02  -9.146570e-02  0 
 2.270612e-02  -4.434199e-02  0 
 3.202509e-02  -4.542291e-02  0 
 2.470479e-02  -5.529523e-02  0 
 3.428947e-02  -5.613319e-02  0 
 1.714856e-02  -6.552638e-02  0 
 2.602157e-02  -6.616056e-02  0 
 3.563677e-02  -6.674148e-02  0 
 1.763335e-02  -7.603355e-02  0 
 2.676693e-02  -7.653406e-02  0 
 3.626062e-02  -7.694928e-02  0 
 1.801481e-02  -8.590713e-02  0 
 2.706334e-02  -8.634273e-02  0 
 3.646974e-02  -8.670748e-02  0 
VECTORS displacement_ITER6 FLOAT
 1.931845e-02  -4.922448e-02  0 
 2.810478e-02  -5.026733e-02  0 
 3.794019e-02  -5.114775e-02  0 
 2.066441e-02  -6.024408e-02  0 
 2.985697e-02  -6.097269e-02  0 
 3.974375e-02  -6.154316e-02  0 
 2.155117e-02  -7.088874e-02  0 
 3.080752e-02  -7.142219e-02  0 
 4.059288e-02  -7.176281e-02  0 
 2.194917e-02  -8.099218e-02  0 
 3.124024e-02  -8.143157e-02  0 
 4.083801e-02  -8.165785e-02  0 
 2.213866e-02  -9.046087e-02  0 
 3.140880e-02  -9.100462e-02  0 
 4.087156e-02  -9.124960e-02  0 
 1.848662e-02  -4.375085e-02  0 
 2.683763e-02  -4.491200e-02  0 
 2.361237e-02  -4.972668e-02  0 
 3.659055e-02  -4.589292e-02  0 
 3.287065e-02  -5.074442e-02  0 
 2.003951e-02  -5.473574e-02  0 
 2.910052e-02  -5.562784e-02  0 
 2.519872e-02  -6.061308e-02  0 
 3.897720e-02  -5.635807e-02  0 
 3.469374e-02  -6.129791e-02  0 
 2.119404e-02  -6.563795e-02  0 
 1.709289e-02  -7.063832e-02  0 
 3.041298e-02  -6.624716e-02  0 
 2.611649e-02  -7.116252e-02  0 
 4.026892e-02  -6.668597e-02  0 
 3.563039e-02  -7.163538e-02  0 
 2.179131e-02  -7.601328e-02  0 
 1.741935e-02  -8.077323e-02  0 
 3.107395e-02  -7.648449e-02  0 
 2.655448e-02  -8.122237e-02  0 
 4.076540e-02  -7.675515e-02  0 
 3.600571e-02  -8.158969e-02  0 
 2.205758e-02  -8.581674e-02  0 
 1.766280e-02  -9.015251e-02  0 
 3.133899e-02  -8.626823e-02  0 
 2.674455e-02  -9.075261e-02  0 
 4.085966e-02  -8.648033e-02  0 
 3.612144e-02  -9.118238e-02  0 
 2.249893e-02  -4.436874e-02  0 
 3.157678e-02  -4.546896e-02  0 
 2.449986e-02  -5.518345e-02  0 
 3.391119e-02  -5.603568e-02  0 
 1.683853e-02  -6.536907e-02  0 
 2.572750e-02  -6.594895e-02  0 
 3.525257e-02  -6.650727e-02  0 
 1.728799e-02  -7.578506e-02  0 
 2.638306e-02  -7.625599e-02  0 
 3.586842e-02  -7.666423e-02  0 
 1.750528e-02  -8.558176e-02  0 
 2.666110e-02  -8.605342e-02  0 
 3.607876e-02  -8.642155e-02  0 
VECTORS displacement_ITER7 FLOAT
 1.925774e-02  -4.919894e-02  0 
 2.807411e-02  -5.019976e-02  0 
 3.793936e-02  -5.105993e-02  0 
 2.066105e-02  -6.014235e-02  0 
 2.976840e-02  -6.085350e-02  0 
 3.960588e-02  -6.140164e-02  0 
 2.146695e-02  -7.065275e-02  0 
 3.068115e-02  -7.119214e-02  0 
 4.039802e-02  -7.153216e-02  0 
 2.183766e-02  -8.065084e-02  0 
 3.109829e-02  -8.111998e-02  0 
 4.063729e-02  -8.135033e-02  0 
 2.202326e-02  -9.011250e-02  0 
 3.126769e-02  -9.063841e-02  0 
 4.067241e-02  -9.088124e-02  0 
 1.834686e-02  -4.367905e-02  0 
 2.683150e-02  -4.480971e-02  0 
 2.356031e-02  -4.968419e-02  0 
 3.671471e-02  -4.580800e-02  0 
 3.286398e-02  -5.067363e-02  0 
 2.003085e-02  -5.470118e-02  0 
 2.904032e-02  -5.555393e-02  0 
 2.513264e-02  -6.049828e-02  0 
 3.889739e-02  -5.625032e-02  0 
 3.458615e-02  -6.116959e-02  0 
 2.113787e-02  -6.545113e-02  0 
 1.702101e-02  -7.039729e-02  0 
 3.030279e-02  -6.607128e-02  0 
 2.601472e-02  -7.092811e-02  0 
 4.009312e-02  -6.650110e-02  0 
 3.547399e-02  -7.140697e-02  0 
 2.169036e-02  -7.572212e-02  0 
 1.732637e-02  -8.041060e-02  0 
 3.093625e-02  -7.620891e-02  0 
 2.643086e-02  -8.090009e-02  0 
 4.056457e-02  -7.648296e-02  0 
 3.583675e-02  -8.128149e-02  0 
 2.194005e-02  -8.545133e-02  0 
 1.746080e-02  -8.982230e-02  0 
 3.119754e-02  -8.592796e-02  0 
 2.662594e-02  -9.039126e-02  0 
 4.066012e-02  -8.614172e-02  0 
 3.595194e-02  -9.081443e-02  0 
 2.244227e-02  -4.425870e-02  0 
 3.159854e-02  -4.536303e-02  0 
 2.444760e-02  -5.512691e-02  0 
 3.384910e-02  -5.594596e-02  0 
 1.672787e-02  -6.513337e-02  0 
 2.564523e-02  -6.576845e-02  0 
 3.511442e-02  -6.632926e-02  0 
 1.721821e-02  -7.548020e-02  0 
 2.626530e-02  -7.597373e-02  0 
 3.570281e-02  -7.639190e-02  0 
 1.737240e-02  -8.519494e-02  0 
 2.654105e-02  -8.570684e-02  0 
 3.590931e-02  -8.608270e-02  0 
VECTORS displacement_ITER8 FLOAT
 1.920369e-02  -4.924221e-02  0 
 2.813401e-02  -5.023065e-02  0 
 3.809248e-02  -5.108273e-02  0 
 2.067823e-02  -6.026193e-02  0 
 2.983316e-02  -6.097563e-02  0 
 3.972150e-02  -6.151227e-02  0 
 2.156505e-02  -7.078338e-02  0 
 3.075578e-02  -7.132922e-02  0 
 4.046149e-02  -7.166125e-02  0 
 2.198414e-02  -8.074078e-02  0 
 3.117826e-02  -8.121100e-02  0 
 4.066775e-02  -8.143938e-02  0 
 2.219061e-02  -9.010220e-02  0 
 3.135012e-02  -9.066103e-02  0 
 4.069604e-02  -9.091072e-02  0 
 1.824614e-02  -4.364713e-02  0 
 2.689694e-02  -4.477717e-02  0 
 2.356560e-02  -4.972534e-02  0 
 3.686465e-02  -4.578095e-02  0 
 3.296927e-02  -5.069954e-02  0 
 2.001405e-02  -5.479369e-02  0 
 2.910069e-02  -5.564009e-02  0 
 2.517549e-02  -6.062347e-02  0 
 3.903683e-02  -5.632407e-02  0 
 3.467519e-02  -6.128683e-02  0 
 2.120165e-02  -6.559392e-02  0 
 1.714178e-02  -7.051751e-02  0 
 3.037270e-02  -6.621001e-02  0 
 2.609715e-02  -7.106505e-02  0 
 4.018172e-02  -6.663010e-02  0 
 3.554355e-02  -7.154135e-02  0 
 2.181597e-02  -7.583738e-02  0 
 1.751825e-02  -8.049456e-02  0 
 3.101447e-02  -7.632863e-02  0 
 2.653957e-02  -8.099037e-02  0 
 4.060800e-02  -7.659711e-02  0 
 3.589260e-02  -8.137239e-02  0 
 2.209910e-02  -8.549757e-02  0 
 1.769531e-02  -8.980018e-02  0 
 3.127819e-02  -8.598448e-02  0 
 2.674325e-02  -9.040061e-02  0 
 4.068485e-02  -8.620111e-02  0 
 3.600485e-02  -9.084281e-02  0 
 2.243835e-02  -4.421692e-02  0 
 3.170346e-02  -4.532614e-02  0 
 2.446869e-02  -5.521766e-02  0 
 3.394755e-02  -5.602542e-02  0 
 1.683855e-02  -6.529132e-02  0 
 2.570845e-02  -6.590920e-02  0 
 3.519349e-02  -6.646445e-02  0 
 1.736975e-02  -7.558822e-02  0 
 2.636432e-02  -7.609286e-02  0 
 3.576434e-02  -7.650986e-02  0 
 1.760365e-02  -8.523544e-02  0 
 2.665438e-02  -8.575853e-02  0 
 3.596239e-02  -8.614193e-02  0 
VECTORS displacement_ITER9 FLOAT
 1.924340e-02  -4.922515e-02  0 
 2.814960e-02  -5.020334e-02  0 
 3.807803e-02  -5.105162e-02  0 
 2.070226e-02  -6.020298e-02  0 
 2.984516e-02  -6.092560e-02  0 
 3.973417e-02  -6.146927e-02  0 
 2.155020e-02  -7.074793e-02  0 
 3.077350e-02  -7.129399e-02  0 
 4.049919e-02  -7.163086e-02  0 
 2.196618e-02  -8.075236e-02  0 
 3.119492e-02  -8.121435e-02  0 
 4.071868e-02  -8.144154e-02  0 
 2.217195e-02  -9.014781e-02  0 
 3.136514e-02  -9.070299e-02  0 
 4.074882e-02  -9.095151e-02  0 
 1.826493e-02  -4.364813e-02  0 
 2.692332e-02  -4.476587e-02  0 
 2.358855e-02  -4.970650e-02  0 
 3.682890e-02  -4.577967e-02  0 
 3.297214e-02  -5.066761e-02  0 
 2.005554e-02  -5.475369e-02  0 
 2.911133e-02  -5.559844e-02  0 
 2.518906e-02  -6.056731e-02  0 
 3.903664e-02  -5.628347e-02  0 
 3.468726e-02  -6.124048e-02  0 
 2.119515e-02  -6.553159e-02  0 
 1.709780e-02  -7.048120e-02  0 
 3.038821e-02  -6.616245e-02  0 
 2.610302e-02  -7.102878e-02  0 
 4.020753e-02  -6.659045e-02  0 
 3.557057e-02  -7.150824e-02  0 
 2.179833e-02  -7.582588e-02  0 
 1.747837e-02  -8.050901e-02  0 
 3.103214e-02  -7.631179e-02  0 
 2.653939e-02  -8.099716e-02  0 
 4.065428e-02  -7.658128e-02  0 
 3.592583e-02  -8.137429e-02  0 
 2.208044e-02  -8.552788e-02  0 
 1.766148e-02  -8.985008e-02  0 
 3.129385e-02  -8.600760e-02  0 
 2.674031e-02  -9.044432e-02  0 
 4.073740e-02  -8.622259e-02  0 
 3.603853e-02  -9.088380e-02  0 
 2.246454e-02  -4.420472e-02  0 
 3.170674e-02  -4.531362e-02  0 
 2.448804e-02  -5.517714e-02  0 
 3.395306e-02  -5.598278e-02  0 
 1.678392e-02  -6.521591e-02  0 
 2.571852e-02  -6.585538e-02  0 
 3.521365e-02  -6.642114e-02  0 
 1.732595e-02  -7.557747e-02  0 
 2.636654e-02  -7.607851e-02  0 
 3.579566e-02  -7.649270e-02  0 
 1.757345e-02  -8.527007e-02  0 
 2.665248e-02  -8.578463e-02  0 
 3.599612e-02  -8.616362e-02  0 
VECTORS displacement_ITER10 FLOAT
 1.927378e-02  -4.923880e-02  0 
 2.815258e-02  -5.021431e-02  0 
 3.805120e-02  -5.105989e-02  0 
 2.072193e-02  -6.017698e-02  0 
 2.984855e-02  -6.090873e-02  0 
 3.972766e-02  -6.145842e-02  0 
 2.154749e-02  -7.072864e-02  0 
 3.078275e-02  -7.127750e-02  0 
 4.051383e-02  -7.161898e-02  0 
 2.195862e-02  -8.076043e-02  0 
 3.120572e-02  -8.121778e-02  0 
 4.074577e-02  -8.144498e-02  0 
 2.216082e-02  -9.018258e-02  0 
 3.137505e-02  -9.072852e-02  0 
 4.077805e-02  -9.097509e-02  0 
 1.827909e-02  -4.368196e-02  0 
 2.693289e-02  -4.479387e-02  0 
 2.360097e-02  -4.972122e-02  0 
 3.678699e-02  -4.581398e-02  0 
 3.296224e-02  -5.067551e-02  0 
 2.008636e-02  -5.474542e-02  0 
 2.911244e-02  -5.559297e-02  0 
 2.519853e-02  -6.054547e-02  0 
 3.902005e-02  -5.627985e-02  0 
 3.468560e-02  -6.122678e-02  0 
 2.119745e-02  -6.550152e-02  0 
 1.708455e-02  -7.045958e-02  0 
 3.039497e-02  -6.614210e-02  0 
 2.610852e-02  -7.101063e-02  0 
 4.021192e-02  -6.657667e-02  0 
 3.558203e-02  -7.149389e-02  0 
 2.179289e-02  -7.581872e-02  0 
 1.745486e-02  -8.052011e-02  0 
 3.104256e-02  -7.630413e-02  0 
 2.654208e-02  -8.100232e-02  0 
 4.067675e-02  -7.657564e-02  0 
 3.594423e-02  -8.137719e-02  0 
 2.207080e-02  -8.555030e-02  0 
 1.763717e-02  -8.989223e-02  0 
 3.130442e-02  -8.602256e-02  0 
 2.674013e-02  -9.047360e-02  0 
 4.076632e-02  -8.623616e-02  0 
 3.605799e-02  -9.090768e-02  0 
 2.247599e-02  -4.423223e-02  0 
 3.169846e-02  -4.534093e-02  0 
 2.449985e-02  -5.517058e-02  0 
 3.394560e-02  -5.597744e-02  0 
 1.677075e-02  -6.518192e-02  0 
 2.572631e-02  -6.583044e-02  0 
 3.521892e-02  -6.640427e-02  0 
 1.730591e-02  -7.557046e-02  0 
 2.637044e-02  -7.607117e-02  0 
 3.581153e-02  -7.648559e-02  0 
 1.755229e-02  -8.529778e-02  0 
 2.665378e-02  -8.580248e-02  0 
 3.601552e-02  -8.617731e-02  0 
VECTORS displacement_ITER11 FLOAT
 1.927121e-02  -4.924062e-02  0 
 2.815127e-02  -5.021771e-02  0 
 3.804644e-02  -5.106020e-02  0 
 2.072243e-02  -6.017502e-02  0 
 2.984489e-02  -6.090822e-02  0 
 3.971852e-02  -6.145632e-02  0 
 2.155155e-02  -7.072095e-02  0 
 3.077695e-02  -7.126885e-02  0 
 4.049979e-02  -7.160930e-02  0 
 2.196127e-02  -8.073950e-02  0 
 3.119909e-02  -8.119790e-02  0 
 4.072954e-02  -8.142534e-02  0 
 2.216301e-02  -9.015094e-02  0 
 3.136848e-02  -9.069853e-02  0 
 4.076157e-02  -9.094519e-02  0 
 1.826436e-02  -4.368205e-02  0 
 2.693591e-02  -4.479789e-02  0 
 2.359790e-02  -4.972559e-02  0 
 3.677948e-02  -4.581901e-02  0 
 3.295989e-02  -5.067698e-02  0 
 2.008734e-02  -5.474588e-02  0 
 2.910942e-02  -5.559494e-02  0 
 2.519832e-02  -6.054547e-02  0 
 3.901378e-02  -5.627951e-02  0 
 3.467903e-02  -6.122551e-02  0 
 2.120082e-02  -6.550379e-02  0 
 1.709940e-02  -7.045117e-02  0 
 3.039034e-02  -6.613805e-02  0 
 2.610657e-02  -7.100283e-02  0 
 4.020003e-02  -6.657130e-02  0 
 3.557231e-02  -7.148470e-02  0 
 2.179674e-02  -7.580322e-02  0 
 1.746087e-02  -8.049926e-02  0 
 3.103607e-02  -7.628998e-02  0 
 2.654016e-02  -8.098177e-02  0 
 4.066127e-02  -7.656111e-02  0 
 3.593292e-02  -8.135760e-02  0 
 2.207263e-02  -8.552379e-02  0 
 1.764367e-02  -8.985766e-02  0 
 3.129781e-02  -8.599739e-02  0 
 2.673800e-02  -9.044324e-02  0 
 4.074986e-02  -8.621136e-02  0 
 3.604657e-02  -9.087777e-02  0 
 2.247035e-02  -4.423322e-02  0 
 3.169990e-02  -4.534406e-02  0 
 2.449824e-02  -5.517225e-02  0 
 3.394083e-02  -5.597813e-02  0 
 1.679434e-02  -6.519546e-02  0 
 2.572548e-02  -6.582792e-02  0 
 3.521070e-02  -6.639954e-02  0 
 1.731484e-02  -7.555551e-02  0 
 2.636861e-02  -7.605663e-02  0 
 3.580074e-02  -7.647133e-02  0 
 1.755921e-02  -8.527015e-02  0 
 2.665161e-02  -8.577675e-02  0 
 3.600410e-02  -8.615246e-02  0 
VECTORS displacement_ITER12 FLOAT
 1.925927e-02  -4.923640e-02  0 
 2.814832e-02  -5.021567e-02  0 
 3.805114e-02  -5.105740e-02  0 
 2.071443e-02  -6.017805e-02  0 
 2.984285e-02  -6.091266e-02  0 
 3.972024e-02  -6.146009e-02  0 
 2.155244e-02  -7.072594e-02  0 
 3.077552e-02  -7.127467e-02  0 
 4.049781e-02  -7.161449e-02  0 
 2.196520e-02  -8.074143e-02  0 
 3.119843e-02  -8.120026e-02  0 
 4.072527e-02  -8.142775e-02  0 
 2.216786e-02  -9.014711e-02  0 
 3.136807e-02  -9.069628e-02  0 
 4.075689e-02  -9.094326e-02  0 
 1.824833e-02  -4.367437e-02  0 
 2.693381e-02  -4.479191e-02  0 
 2.359005e-02  -4.972310e-02  0 
 3.678400e-02  -4.581265e-02  0 
 3.296090e-02  -5.067460e-02  0 
 2.007674e-02  -5.474542e-02  0 
 2.910680e-02  -5.559658e-02  0 
 2.519440e-02  -6.055001e-02  0 
 3.901728e-02  -5.628058e-02  0 
 3.467879e-02  -6.122971e-02  0 
 2.119859e-02  -6.551156e-02  0 
 1.710441e-02  -7.045480e-02  0 
 3.038862e-02  -6.614394e-02  0 
 2.610558e-02  -7.100867e-02  0 
 4.019983e-02  -6.657641e-02  0 
 3.557067e-02  -7.149028e-02  0 
 2.179963e-02  -7.580643e-02  0 
 1.746691e-02  -8.050100e-02  0 
 3.103505e-02  -7.629445e-02  0 
 2.654161e-02  -8.098385e-02  0 
 4.065787e-02  -7.656530e-02  0 
 3.593049e-02  -8.136010e-02  0 
 2.207710e-02  -8.552341e-02  0 
 1.765305e-02  -8.985313e-02  0 
 3.129730e-02  -8.599741e-02  0 
 2.673985e-02  -9.044039e-02  0 
 4.074524e-02  -8.621162e-02  0 
 3.604404e-02  -9.087579e-02  0 
 2.246064e-02  -4.422586e-02  0 
 3.170200e-02  -4.533746e-02  0 
 2.449218e-02  -5.517308e-02  0 
 3.394120e-02  -5.597960e-02  0 
 1.680164e-02  -6.520739e-02  0 
 2.572305e-02  -6.583434e-02  0 
 3.520975e-02  -6.640509e-02  0 
 1.731969e-02  -7.555821e-02  0 
 2.636919e-02  -7.606070e-02  0 
 3.579859e-02  -7.647577e-02  0 
 1.756779e-02  -8.526964e-02  0 
 2.665331e-02  -8.577648e-02  0 
 3.600157e-02  -8.615269e-02  0 
VECTORS displacement_ITER13 FLOAT
 1.926909e-02  -4.923355e-02  0 
 2.815262e-02  -5.021351e-02  0 
 3.805348e-02  -5.105527e-02  0 
 2.071773e-02  -6.017551e-02  0 
 2.984730e-02  -6.090979e-02  0 
 3.972517e-02  -6.145772e-02  0 
 2.155241e-02  -7.072741e-02  0 
 3.077906e-02  -7.127476e-02  0 
 4.050450e-02  -7.161444e-02  0 
 2.196359e-02  -8.074611e-02  0 
 3.120123e-02  -8.120445e-02  0 
 4.073248e-02  -8.143183e-02  0 
 2.216595e-02  -9.015533e-02  0 
 3.137072e-02  -9.070495e-02  0 
 4.076415e-02  -9.095191e-02  0 
 1.825842e-02  -4.367543e-02  0 
 2.693866e-02  -4.479191e-02  0 
 2.359599e-02  -4.972085e-02  0 
 3.678440e-02  -4.581174e-02  0 
 3.296407e-02  -5.067232e-02  0 
 2.008274e-02  -5.474200e-02  0 
 2.911124e-02  -5.559346e-02  0 
 2.519866e-02  -6.054719e-02  0 
 3.902095e-02  -5.627808e-02  0 
 3.468336e-02  -6.122704e-02  0 
 2.119989e-02  -6.551157e-02  0 
 1.710264e-02  -7.045689e-02  0 
 3.039268e-02  -6.614228e-02  0 
 2.610742e-02  -7.100933e-02  0 
 4.020581e-02  -6.657487e-02  0 
 3.557574e-02  -7.149016e-02  0 
 2.179870e-02  -7.580939e-02  0 
 1.746285e-02  -8.050604e-02  0 
 3.103813e-02  -7.629653e-02  0 
 2.654221e-02  -8.098822e-02  0 
 4.066493e-02  -7.656719e-02  0 
 3.593548e-02  -8.136419e-02  0 
 2.207513e-02  -8.552978e-02  0 
 1.764920e-02  -8.986041e-02  0 
 3.129997e-02  -8.600380e-02  0 
 2.674017e-02  -9.044899e-02  0 
 4.075248e-02  -8.621798e-02  0 
 3.604900e-02  -9.088445e-02  0 
 2.246616e-02  -4.422581e-02  0 
 3.170477e-02  -4.533621e-02  0 
 2.449759e-02  -5.516949e-02  0 
 3.394510e-02  -5.597678e-02  0 
 1.680013e-02  -6.520804e-02  0 
 2.572605e-02  -6.583315e-02  0 
 3.521471e-02  -6.640337e-02  0 
 1.731674e-02  -7.556201e-02  0 
 2.637027e-02  -7.606317e-02  0 
 3.580363e-02  -7.647767e-02  0 
 1.756389e-02  -8.527577e-02  0 
 2.665367e-02  -8.578289e-02  0 
 3.600653e-02  -8.615905e-02  0 
VECTORS displacement_ITER14 FLOAT
 1.926998e-02  -4.923431e-02  0 
 2.815122e-02  -5.021451e-02  0 
 3.805118e-02  -5.105635e-02  0 
 2.071709e-02  -6.017557e-02  0 
 2.984632e-02  -6.090988e-02  0 
 3.972361e-02  -6.145809e-02  0 
 2.155188e-02  -7.072737e-02  0 
 3.077838e-02  -7.127479e-02  0 
 4.050355e-02  -7.161455e-02  0 
 2.196340e-02  -8.074647e-02  0 
 3.120065e-02  -8.120452e-02  0 
 4.073169e-02  -8.143184e-02  0 
 2.216592e-02  -9.015506e-02  0 
 3.137011e-02  -9.070480e-02  0 
 4.076337e-02  -9.095179e-02  0 
 1.825954e-02  -4.367809e-02  0 
 2.693737e-02  -4.479394e-02  0 
 2.359536e-02  -4.972179e-02  0 
 3.678181e-02  -4.581312e-02  0 
 3.296213e-02  -5.067334e-02  0 
 2.008223e-02  -5.474226e-02  0 
 2.911006e-02  -5.559386e-02  0 
 2.519786e-02  -6.054718e-02  0 
 3.901899e-02  -5.627877e-02  0 
 3.468208e-02  -6.122729e-02  0 
 2.119919e-02  -6.551102e-02  0 
 1.710181e-02  -7.045679e-02  0 
 3.039185e-02  -6.614231e-02  0 
 2.610690e-02  -7.100931e-02  0 
 4.020462e-02  -6.657506e-02  0 
 3.557490e-02  -7.149023e-02  0 
 2.179832e-02  -7.580965e-02  0 
 1.746278e-02  -8.050651e-02  0 
 3.103754e-02  -7.629661e-02  0 
 2.654180e-02  -8.098841e-02  0 
 4.066410e-02  -7.656726e-02  0 
 3.593477e-02  -8.136421e-02  0 
 2.207504e-02  -8.552998e-02  0 
 1.764991e-02  -8.986025e-02  0 
 3.129937e-02  -8.600378e-02  0 
 2.673974e-02  -9.044880e-02  0 
 4.075170e-02  -8.621792e-02  0 
 3.604829e-02  -9.088432e-02  0 
 2.246528e-02  -4.422782e-02  0 
 3.170255e-02  -4.533759e-02  0 
 2.449697e-02  -5.516970e-02  0 
 3.394350e-02  -5.597734e-02  0 
 1.679803e-02  -6.520629e-02  0 
 2.572535e-02  -6.583304e-02  0 
 3.521369e-02  -6.640348e-02  0 
 1.731639e-02  -7.556236e-02  0 
 2.636983e-02  -7.606332e-02  0 
 3.580289e-02  -7.647772e-02  0 
 1.756446e-02  -8.527607e-02  0 
 2.665324e-02  -8.578295e-02  0 
 3.600583e-02  -8.615900e-02  0 
VECTORS displacement_ITER15 FLOAT
 1.926919e-02  -4.923362e-02  0 
 2.815102e-02  -5.021403e-02  0 
 3.805182e-02  -5.105576e-02  0 
 2.071653e-02  -6.017577e-02  0 
 2.984598e-02  -6.090984e-02  0 
 3.972347e-02  -6.145792e-02  0 
 2.155162e-02  -7.072718e-02  0 
 3.077789e-02  -7.127459e-02  0 
 4.050288e-02  -7.161427e-02  0 
 2.196313e-02  -8.074578e-02  0 
 3.120007e-02  -8.120388e-02  0 
 4.073079e-02  -8.143120e-02  0 
 2.216577e-02  -9.015371e-02  0 
 3.136953e-02  -9.070373e-02  0 
 4.076243e-02  -9.095076e-02  0 
 1.825829e-02  -4.367701e-02  0 
 2.693736e-02  -4.479324e-02  0 
 2.359478e-02  -4.972129e-02  0 
 3.678302e-02  -4.581187e-02  0 
 3.296231e-02  -5.067284e-02  0 
 2.008123e-02  -5.474216e-02  0 
 2.910980e-02  -5.559368e-02  0 
 2.519737e-02  -6.054724e-02  0 
 3.901920e-02  -5.627848e-02  0 
 3.468185e-02  -6.122720e-02  0 
 2.119891e-02  -6.551086e-02  0 
 1.710163e-02  -7.045668e-02  0 
 3.039142e-02  -6.614226e-02  0 
 2.610652e-02  -7.100910e-02  0 
 4.020418e-02  -6.657488e-02  0 
 3.557433e-02  -7.149001e-02  0 
 2.179804e-02  -7.580927e-02  0 
 1.746272e-02  -8.050576e-02  0 
 3.103701e-02  -7.629620e-02  0 
 2.654136e-02  -8.098776e-02  0 
 4.066328e-02  -7.656681e-02  0 
 3.593405e-02  -8.136357e-02  0 
 2.207482e-02  -8.552895e-02  0 
 1.765005e-02  -8.985869e-02  0 