# vtk DataFile Version 3.1
this is an vtk file created by FEMAC
ASCII
DATASET UNSTRUCTURED_GRID
POINTS 56 FLOAT
5.000000 7.000000 0.000000
5.000000 8.000000 0.000000
5.000000 9.000000 0.000000
6.000000 7.000000 0.000000
6.000000 8.000000 0.000000
6.000000 9.000000 0.000000
7.000000 7.000000 0.000000
7.000000 8.000000 0.000000
7.000000 9.000000 0.000000
8.000000 7.000000 0.000000
8.000000 8.000000 0.000000
8.000000 9.000000 0.000000
9.000000 7.000000 0.000000
9.000000 8.000000 0.000000
9.000000 9.000000 0.000000
4.500000 7.000000 0.000000
4.500000 8.000000 0.000000
5.000000 7.500000 0.000000
4.500000 9.000000 0.000000
5.000000 8.500000 0.000000
5.500000 7.000000 0.000000
5.500000 8.000000 0.000000
6.000000 7.500000 0.000000
5.500000 9.000000 0.000000
6.000000 8.500000 0.000000
6.500000 7.000000 0.000000
7.000000 6.500000 0.000000
6.500000 8.000000 0.000000
7.000000 7.500000 0.000000
6.500000 9.000000 0.000000
7.000000 8.500000 0.000000
7.500000 7.000000 0.000000
8.000000 6.500000 0.000000
7.500000 8.000000 0.000000
8.000000 7.500000 0.000000
7.500000 9.000000 0.000000
8.000000 8.500000 0.000000
8.500000 7.000000 0.000000
9.000000 6.500000 0.000000
8.500000 8.000000 0.000000
9.000000 7.500000 0.000000
8.500000 9.000000 0.000000
9.000000 8.500000 0.000000
4.500000 7.500000 0.000000
4.500000 8.500000 0.000000
5.500000 7.500000 0.000000
5.500000 8.500000 0.000000
6.500000 6.500000 0.000000
6.500000 7.500000 0.000000
6.500000 8.500000 0.000000
7.500000 6.500000 0.000000
7.500000 7.500000 0.000000
7.500000 8.500000 0.000000
8.500000 6.500000 0.000000
8.500000 7.500000 0.000000
8.500000 8.500000 0.000000
CELLS 41 205 
4 15  0 17 43
4 43 17  1 16
4 16  1 19 44
4 44 19  2 18
4 0 20 45 17
4 17 45 21  1
4 20  3 22 45
4 45 22  4 21
4 1 21 46 19
4 19 46 23  2
4 21  4 24 46
4 46 24  5 23
4 47 26  6 25
4 3 25 48 22
4 22 48 27  4
4 25  6 28 48
4 48 28  7 27
4 4 27 49 24
4 24 49 29  5
4 27  7 30 49
4 49 30  8 29
4 26 50 31  6
4 50 32  9 31
4 6 31 51 28
4 28 51 33  7
4 31  9 34 51
4 51 34 10 33
4 7 33 52 30
4 30 52 35  8
4 33 10 36 52
4 52 36 11 35
4 32 53 37  9
4 53 38 12 37
4 9 37 54 34
4 34 54 39 10
4 37 12 40 54
4 54 40 13 39
4 10 39 55 36
4 36 55 41 11
4 39 13 42 55
4 55 42 14 41
CELL_TYPES 41
9 9 9 9 9 9 9 9 9 9 9 9 9 9 9 9 9 9 9 9 9 9 9 9 9 9 9 9 9 9 9 9 9 9 9 9 9 9 9 9 9 
POINT_DATA 56
VECTORS displacement_ITER1 FLOAT
 3.698675e-02  -9.083558e-02  0 
 5.391363e-02  -9.360714e-02  0 
 7.194449e-02  -9.484567e-02  0 
 3.964402e-02  -1.122508e-01  0 
 5.762366e-02  -1.134401e-01  0 
 7.743592e-02  -1.148599e-01  0 
 4.182289e-02  -1.324842e-01  0 
 5.946143e-02  -1.339028e-01  0 
 7.824312e-02  -1.343378e-01  0 
 4.241567e-02  -1.519676e-01  0 
 6.051146e-02  -1.528404e-01  0 
 7.912647e-02  -1.534760e-01  0 
 4.302406e-02  -1.698131e-01  0 
 6.070860e-02  -1.718404e-01  0 
 7.928803e-02  -1.720223e-01  0 
 3.582260e-02  -7.898572e-02  0 
 5.092334e-02  -8.386574e-02  0 
 4.659729e-02  -9.264404e-02  0 
 7.113333e-02  -8.432915e-02  0 
 6.189602e-02  -9.425394e-02  0 
 3.812737e-02  -1.023718e-01  0 
 5.633879e-02  -1.027929e-01  0 
 4.777906e-02  -1.125302e-01  0 
 7.484843e-02  -1.053393e-01  0 
 6.780988e-02  -1.143737e-01  0 
 4.138143e-02  -1.220317e-01  0 
 3.275928e-02  -1.316393e-01  0 
 5.851898e-02  -1.242323e-01  0 
 5.091746e-02  -1.334325e-01  0 
 7.796181e-02  -1.244938e-01  0 
 6.850399e-02  -1.341759e-01  0 
 4.197822e-02  -1.427065e-01  0 
 3.397228e-02  -1.515578e-01  0 
 6.021155e-02  -1.431025e-01  0 
 5.118727e-02  -1.523307e-01  0 
 7.873995e-02  -1.442402e-01  0 
 6.988695e-02  -1.532975e-01  0 
 4.283635e-02  -1.608660e-01  0 
 3.417949e-02  -1.695700e-01  0 
 6.060856e-02  -1.625529e-01  0 
 5.184261e-02  -1.708991e-01  0 
 7.923965e-02  -1.627093e-01  0 
 6.996794e-02  -1.719879e-01  0 
 4.269992e-02  -8.178984e-02  0 
 6.093574e-02  -8.441605e-02  0 
 4.729490e-02  -1.024925e-01  0 
 6.510832e-02  -1.041606e-01  0 
 3.236035e-02  -1.216639e-01  0 
 4.953866e-02  -1.232964e-01  0 
 6.829243e-02  -1.244026e-01  0 
 3.369646e-02  -1.418721e-01  0 
 5.111781e-02  -1.428487e-01  0 
 6.927639e-02  -1.438821e-01  0 
 3.405084e-02  -1.605666e-01  0 
 5.148702e-02  -1.618974e-01  0 
 6.996768e-02  -1.626434e-01  0 
VECTORS displacement_ITER2 FLOAT
 3.717407e-02  -9.062949e-02  0 
 5.415234e-02  -9.341080e-02  0 
 7.210983e-02  -9.447753e-02  0 
 3.984421e-02  -1.121682e-01  0 
 5.778161e-02  -1.132707e-01  0 
 7.765596e-02  -1.146710e-01  0 
 4.190898e-02  -1.322849e-01  0 
 5.962115e-02  -1.337653e-01  0 
 7.844518e-02  -1.342054e-01  0 
 4.248937e-02  -1.519373e-01  0 
 6.065986e-02  -1.527504e-01  0 
 7.931686e-02  -1.533798e-01  0 
 4.314005e-02  -1.696607e-01  0 
 6.084564e-02  -1.717930e-01  0 
 7.947851e-02  -1.719753e-01  0 
 3.546268e-02  -7.936902e-02  0 
 5.128243e-02  -8.359659e-02  0 
 4.667972e-02  -9.249166e-02  0 
 7.112088e-02  -8.434696e-02  0 
 6.220984e-02  -9.396930e-02  0 
 3.818903e-02  -1.021545e-01  0 
 5.650428e-02  -1.026437e-01  0 
 4.793093e-02  -1.123829e-01  0 
 7.510791e-02  -1.050647e-01  0 
 6.798955e-02  -1.141935e-01  0 
 4.142799e-02  -1.218286e-01  0 
 3.278491e-02  -1.314006e-01  0 
 5.867569e-02  -1.240754e-01  0 
 5.104971e-02  -1.332818e-01  0 
 7.816915e-02  -1.243395e-01  0 
 6.868456e-02  -1.340430e-01  0 
 4.206375e-02  -1.426096e-01  0 
 3.412508e-02  -1.515463e-01  0 
 6.036995e-02  -1.429898e-01  0 
 5.130776e-02  -1.522589e-01  0 
 7.893402e-02  -1.441240e-01  0 
 7.005375e-02  -1.532023e-01  0 
 4.292047e-02  -1.607581e-01  0 
 3.427125e-02  -1.694079e-01  0 
 6.074760e-02  -1.624799e-01  0 
 5.194908e-02  -1.708205e-01  0 
 7.942989e-02  -1.626373e-01  0 
 7.013294e-02  -1.719411e-01  0 
 4.271625e-02  -8.163925e-02  0 
 6.132444e-02  -8.413915e-02  0 
 4.746172e-02  -1.023333e-01  0 
 6.530862e-02  -1.039219e-01  0 
 3.257340e-02  -1.214921e-01  0 
 4.966403e-02  -1.231236e-01  0 
 6.847247e-02  -1.242483e-01  0 
 3.351372e-02  -1.418771e-01  0 
 5.125238e-02  -1.427383e-01  0 
 6.945235e-02  -1.437680e-01  0 
 3.424234e-02  -1.604472e-01  0 
 5.158476e-02  -1.618199e-01  0 
 7.013306e-02  -1.625710e-01  0 
VECTORS displacement_ITER3 FLOAT
 3.713967e-02  -9.069512e-02  0 
 5.412005e-02  -9.345904e-02  0 
 7.205645e-02  -9.453772e-02  0 
 3.985977e-02  -1.121725e-01  0 
 5.773710e-02  -1.132872e-01  0 
 7.757467e-02  -1.146860e-01  0 
 4.189400e-02  -1.322578e-01  0 
 5.957720e-02  -1.337403e-01  0 
 7.836304e-02  -1.341817e-01  0 
 4.247836e-02  -1.518767e-01  0 
 6.061410e-02  -1.526910e-01  0 
 7.923477e-02  -1.533197e-01  0 
 4.313646e-02  -1.695641e-01  0 
 6.080023e-02  -1.716959e-01  0 
 7.939606e-02  -1.718787e-01  0 
 3.550166e-02  -7.941578e-02  0 
 5.125210e-02  -8.369952e-02  0 
 4.665830e-02  -9.254201e-02  0 
 7.108185e-02  -8.438406e-02  0 
 6.215158e-02  -9.402760e-02  0 
 3.818375e-02  -1.021923e-01  0 
 5.646366e-02  -1.026792e-01  0 
 4.790453e-02  -1.123951e-01  0 
 7.503227e-02  -1.051037e-01  0 
 6.792771e-02  -1.142090e-01  0 
 4.140120e-02  -1.218057e-01  0 
 3.277530e-02  -1.313717e-01  0 
 5.863210e-02  -1.240703e-01  0 
 5.102169e-02  -1.332563e-01  0 
 7.808718e-02  -1.243350e-01  0 
 6.862161e-02  -1.340190e-01  0 
 4.205077e-02  -1.425696e-01  0 
 3.413884e-02  -1.514784e-01  0 
 6.032471e-02  -1.429478e-01  0 
 5.127871e-02  -1.521999e-01  0 
 7.885233e-02  -1.440818e-01  0 
 6.998980e-02  -1.531424e-01  0 
 4.291423e-02  -1.606742e-01  0 
 3.427246e-02  -1.693166e-01  0 
 6.070194e-02  -1.624018e-01  0 
 5.192448e-02  -1.707213e-01  0 
 7.934754e-02  -1.625590e-01  0 
 7.006882e-02  -1.718444e-01  0 
 4.268435e-02  -8.161740e-02  0 
 6.126903e-02  -8.420360e-02  0 
 4.743465e-02  -1.023747e-01  0 
 6.525389e-02  -1.039597e-01  0 
 3.258982e-02  -1.214937e-01  0 
 4.963962e-02  -1.231102e-01  0 
 6.840941e-02  -1.242440e-01  0 
 3.351081e-02  -1.418528e-01  0 
 5.122368e-02  -1.426968e-01  0 
 6.938911e-02  -1.437257e-01  0 
 3.425439e-02  -1.603619e-01  0 
 5.155842e-02  -1.617412e-01  0 
 7.006894e-02  -1.624928e-01  0 
VECTORS displacement_ITER4 FLOAT
 3.713454e-02  -9.069807e-02  0 
 5.410250e-02  -9.345571e-02  0 
 7.204266e-02  -9.454577e-02  0 
 3.984382e-02  -1.121691e-01  0 
 5.772425e-02  -1.132836e-01  0 
 7.755744e-02  -1.146836e-01  0 
 4.188303e-02  -1.322579e-01  0 
 5.956238e-02  -1.337358e-01  0 
 7.834700e-02  -1.341764e-01  0 
 4.246743e-02  -1.518654e-01  0 
 6.059942e-02  -1.526843e-01  0 
 7.921774e-02  -1.533131e-01  0 
 4.312701e-02  -1.695601e-01  0 
 6.078655e-02  -1.716859e-01  0 
 7.937875e-02  -1.718690e-01  0 
 3.552140e-02  -7.938787e-02  0 
 5.122869e-02  -8.371150e-02  0 
 4.665038e-02  -9.253825e-02  0 
 7.107795e-02  -8.437336e-02  0 
 6.212733e-02  -9.403242e-02  0 
 3.817481e-02  -1.021888e-01  0 
 5.645069e-02  -1.026746e-01  0 
 4.789258e-02  -1.123911e-01  0 
 7.501208e-02  -1.051071e-01  0 
 6.791295e-02  -1.142061e-01  0 
 4.139152e-02  -1.218057e-01  0 
 3.275863e-02  -1.313746e-01  0 
 5.861831e-02  -1.240663e-01  0 
 5.100784e-02  -1.332532e-01  0 
 7.807083e-02  -1.243307e-01  0 
 6.860644e-02  -1.340138e-01  0 
 4.203884e-02  -1.425643e-01  0 
 3.412586e-02  -1.514623e-01  0 
 6.030944e-02  -1.429423e-01  0 
 5.126505e-02  -1.521921e-01  0 
 7.883601e-02  -1.440760e-01  0 
 6.997412e-02  -1.531358e-01  0 
 4.290501e-02  -1.606648e-01  0 
 3.425737e-02  -1.693162e-01  0 
 6.068798e-02  -1.623938e-01  0 
 5.191399e-02  -1.707119e-01  0 
 7.933031e-02  -1.625509e-01  0 
 7.005315e-02  -1.718346e-01  0 
 4.268539e-02  -8.160471e-02  0 
 6.123926e-02  -8.420084e-02  0 
 4.742246e-02  -1.023701e-01  0 
 6.523793e-02  -1.039603e-01  0 
 3.257399e-02  -1.214908e-01  0 
 4.962696e-02  -1.231083e-01  0 
 6.839453e-02  -1.242396e-01  0 
 3.351132e-02  -1.418501e-01  0 
 5.120938e-02  -1.426912e-01  0 
 6.937343e-02  -1.437201e-01  0 
 3.423874e-02  -1.603516e-01  0 
 5.154752e-02  -1.617328e-01  0 
 7.005325e-02  -1.624848e-01  0 
VECTORS displacement_ITER5 FLOAT
 3.714114e-02  -9.069545e-02  0 
 5.410842e-02  -9.345121e-02  0 
 7.204979e-02  -9.453921e-02  0 
 3.984348e-02  -1.121675e-01  0 
 5.773036e-02  -1.132815e-01  0 
 7.756701e-02  -1.146818e-01  0 
 4.188832e-02  -1.322589e-01  0 
 5.956922e-02  -1.337372e-01  0 
 7.835659e-02  -1.341777e-01  0 
 4.247230e-02  -1.518696e-01  0 
 6.060664e-02  -1.526881e-01  0 
 7.922760e-02  -1.533170e-01  0 
 4.313018e-02  -1.695670e-01  0 
 6.079367e-02  -1.716926e-01  0 
 7.938869e-02  -1.718757e-01  0 
 3.551736e-02  -7.938933e-02  0 
 5.123639e-02  -8.370692e-02  0 
 4.665392e-02  -9.253469e-02  0 
 7.108235e-02  -8.437063e-02  0 
 6.213495e-02  -9.402708e-02  0 
 3.817820e-02  -1.021831e-01  0 
 5.645619e-02  -1.026712e-01  0 
 4.789736e-02  -1.123888e-01  0 
 7.502117e-02  -1.051032e-01  0 
 6.792082e-02  -1.142042e-01  0 
 4.139630e-02  -1.218054e-01  0 
 3.276223e-02  -1.313756e-01  0 
 5.862480e-02  -1.240661e-01  0 
 5.101380e-02  -1.332545e-01  0 
 7.808043e-02  -1.243305e-01  0 
 6.861457e-02  -1.340152e-01  0 
 4.204378e-02  -1.425668e-01  0 
 3.412853e-02  -1.514669e-01  0 
 6.031660e-02  -1.429449e-01  0 
 5.127109e-02  -1.521960e-01  0 
 7.884567e-02  -1.440786e-01  0 
 6.998266e-02  -1.531397e-01  0 
 4.290889e-02  -1.606709e-01  0 
 3.426086e-02  -1.693217e-01  0 
 6.069514e-02  -1.623991e-01  0 
 5.191931e-02  -1.707190e-01  0 
 7.934023e-02  -1.625562e-01  0 
 7.006172e-02  -1.718413e-01  0 
 4.268967e-02  -8.160313e-02  0 
 6.124806e-02  -8.419413e-02  0 
 4.742671e-02  -1.023659e-01  0 
 6.524507e-02  -1.039564e-01  0 
 3.257787e-02  -1.214891e-01  0 
 4.963183e-02  -1.231085e-01  0 
 6.840258e-02  -1.242394e-01  0 
 3.351834e-02  -1.418532e-01  0 
 5.121549e-02  -1.426937e-01  0 
 6.938178e-02  -1.437227e-01  0 
 3.424149e-02  -1.603590e-01  0 
 5.155311e-02  -1.617382e-01  0 
 7.006182e-02  -1.624901e-01  0 
VECTORS displacement_ITER6 FLOAT
 3.714023e-02  -9.069611e-02  0 
 5.410806e-02  -9.345211e-02  0 
 7.204952e-02  -9.454016e-02  0 
 3.984389e-02  -1.121680e-01  0 
 5.773001e-02  -1.132822e-01  0 
 7.756636e-02  -1.146824e-01  0 
 4.188824e-02  -1.322594e-01  0 
 5.956886e-02  -1.337375e-01  0 
 7.835591e-02  -1.341781e-01  0 
 4.247217e-02  -1.518696e-01  0 
 6.060624e-02  -1.526882e-01  0 
 7.922695e-02  -1.533171e-01  0 
 4.312996e-02  -1.695668e-01  0 
 6.079327e-02  -1.716924e-01  0 
 7.938804e-02  -1.718755e-01  0 
 3.551808e-02  -7.939001e-02  0 
 5.123572e-02  -8.370758e-02  0 
 4.665373e-02  -9.253550e-02  0 
 7.108220e-02  -8.437163e-02  0 
 6.213463e-02  -9.402805e-02  0 
 3.817829e-02  -1.021842e-01  0 
 5.645588e-02  -1.026721e-01  0 
 4.789717e-02  -1.123895e-01  0 
 7.502065e-02  -1.051040e-01  0 
 6.792032e-02  -1.142049e-01  0 
 4.139640e-02  -1.218056e-01  0 
 3.276209e-02  -1.313761e-01  0 
 5.862446e-02  -1.240666e-01  0 
 5.101358e-02  -1.332548e-01  0 
 7.807976e-02  -1.243310e-01  0 
 6.861405e-02  -1.340155e-01  0 
 4.204366e-02  -1.425670e-01  0 
 3.412826e-02  -1.514668e-01  0 
 6.031621e-02  -1.429450e-01  0 
 5.127082e-02  -1.521960e-01  0 
 7.884501e-02  -1.440788e-01  0 
 6.998214e-02  -1.531398e-01  0 
 4.290872e-02  -1.606709e-01  0 
 3.426091e-02  -1.693215e-01  0 
 6.069475e-02  -1.623990e-01  0 
 5.191902e-02  -1.707189e-01  0 
 7.933958e-02  -1.625561e-01  0 
 7.006119e-02  -1.718411e-01  0 
 4.268894e-02  -8.160313e-02  0 
 6.124772e-02  -8.419497e-02  0 
 4.742648e-02  -1.023668e-01  0 
 6.524468e-02  -1.039572e-01  0 
 3.257761e-02  -1.214897e-01  0 
 4.963172e-02  -1.231089e-01  0 
 6.840207e-02  -1.242399e-01  0 
 3.351884e-02  -1.418534e-01  0 
 5.121522e-02  -1.426939e-01  0 
 6.938126e-02  -1.437229e-01  0 
 3.424130e-02  -1.603589e-01  0 
 5.155284e-02  -1.617381e-01  0 
 7.006129e-02  -1.624900e-01  0 
VECTORS displacement_ITER7 FLOAT
 3.714020e-02  -9.069606e-02  0 
 5.410808e-02  -9.345205e-02  0 
 7.204951e-02  -9.454009e-02  0 
 3.984393e-02  -1.121679e-01  0 
 5.772998e-02  -1.132822e-01  0 
 7.756637e-02  -1.146824e-01  0 
 4.188815e-02  -1.322593e-01  0 
 5.956884e-02  -1.337375e-01  0 
 7.835591e-02  -1.341781e-01  0 
 4.247210e-02  -1.518696e-01  0 
 6.060622e-02  -1.526882e-01  0 
 7.922696e-02  -1.533171e-01  0 
 4.312989e-02  -1.695668e-01  0 
 6.079324e-02  -1.716925e-01  0 
 7.938805e-02  -1.718755e-01  0 
 3.551804e-02  -7.939010e-02  0 
 5.123578e-02  -8.370749e-02  0 
 4.665373e-02  -9.253548e-02  0 
 7.108217e-02  -8.437166e-02  0 
 6.213467e-02  -9.402799e-02  0 
 3.817826e-02  -1.021843e-01  0 
 5.645587e-02  -1.026720e-01  0 
 4.789712e-02  -1.123894e-01  0 
 7.502066e-02  -1.051039e-01  0 
 6.792031e-02  -1.142049e-01  0 
 4.139631e-02  -1.218055e-01  0 
 3.276199e-02  -1.313759e-01  0 
 5.862444e-02  -1.240665e-01  0 
 5.101354e-02  -1.332548e-01  0 
 7.807976e-02  -1.243310e-01  0 
 6.861404e-02  -1.340155e-01  0 
 4.204359e-02  -1.425670e-01  0 
 3.412815e-02  -1.514668e-01  0 
 6.031619e-02  -1.429450e-01  0 
 5.127078e-02  -1.521960e-01  0 
 7.884501e-02  -1.440788e-01  0 
 6.998212e-02  -1.531398e-01  0 
 4.290864e-02  -1.606709e-01  0 
 3.426095e-02  -1.693214e-01  0 
 6.069471e-02  -1.623990e-01  0 
 5.191896e-02  -1.707189e-01  0 
 7.933959e-02  -1.625561e-01  0 
 7.006118e-02  -1.718411e-01  0 
 4.268892e-02  -8.160293e-02  0 
 6.124776e-02  -8.419493e-02  0 
 4.742645e-02  -1.023668e-01  0 
 6.524468e-02  -1.039572e-01  0 
 3.257757e-02  -1.214897e-01  0 
 4.963170e-02  -1.231088e-01  0 
 6.840206e-02  -1.242399e-01  0 
 3.351870e-02  -1.418534e-01  0 
 5.121518e-02  -1.426939e-01  0 
 6.938125e-02  -1.437229e-01  0 
 3.424129e-02  -1.603590e-01  0 
 5.155278e-02  -1.617382e-01  0 
 7.006128e-02  -1.624900e-01  0 
VECTORS displacement_ITER8 FLOAT
 3.714020e-02  -9.069605e-02  0 
 5.410809e-02  -9.345203e-02  0 
 7.204949e-02  -9.454008e-02  0 
 3.984393e-02  -1.121679e-01  0 
 5.772998e-02  -1.132822e-01  0 
 7.756636e-02  -1.146823e-01  0 
 4.188815e-02  -1.322593e-01  0 
 5.956884e-02  -1.337375e-01  0 
 7.835591e-02  -1.341780e-01  0 
 4.247209e-02  -1.518696e-01  0 
 6.060621e-02  -1.526882e-01  0 
 7.922696e-02  -1.533171e-01  0 
 4.312990e-02  -1.695668e-01  0 
 6.079323e-02  -1.716925e-01  0 
 7.938805e-02  -1.718755e-01  0 
 3.551803e-02  -7.939012e-02  0 
 5.123580e-02  -8.370748e-02  0 
 4.665372e-02  -9.253547e-02  0 
 7.108216e-02  -8.437165e-02  0 
 6.213466e-02  -9.402797e-02  0 
 3.817825e-02  -1.021843e-01  0 
 5.645586e-02  -1.026720e-01  0 
 4.789711e-02  -1.123894e-01  0 
 7.502065e-02  -1.051039e-01  0 
 6.792031e-02  -1.142048e-01  0 
 4.139631e-02  -1.218054e-01  0 
 3.276197e-02  -1.313759e-01  0 
 5.862443e-02  -1.240665e-01  0 
 5.101354e-02  -1.332548e-01  0 
 7.807976e-02  -1.243309e-01  0 
 6.861404e-02  -1.340154e-01  0 
 4.204359e-02  -1.425670e-01  0 
 3.412815e-02  -1.514668e-01  0 
 6.031619e-02  -1.429450e-01  0 
 5.127078e-02  -1.521960e-01  0 
 7.884501e-02  -1.440788e-01  0 
 6.998212e-02  -1.531398e-01  0 
 4.290864e-02  -1.606709e-01  0 
 3.426095e-02  -1.693214e-01  0 
 6.069471e-02  -1.623990e-01  0 
 5.191895e-02  -1.707189e-01  0 
 7.933959e-02  -1.625561e-01  0 
 7.006118e-02  -1.718411e-01  0 
 4.268892e-02  -8.160287e-02  0 
 6.124773e-02  -8.419492e-02  0 
 4.742645e-02  -1.023668e-01  0 
 6.524468e-02  -1.039572e-01  0 
 3.257758e-02  -1.214897e-01  0 
 4.963169e-02  -1.231088e-01  0 
 6.840206e-02  -1.242399e-01  0 
 3.351867e-02  -1.418534e-01  0 
 5.121518e-02  -1.426939e-01  0 
 6.938125e-02  -1.437228e-01  0 
 3.424130e-02  -1.603589e-01  0 
 5.155277e-02  -1.617381e-01  0 
 7.006128e-02  -1.624900e-01  0 
VECTORS displacement_ITER9 FLOAT
 3.714020e-02  -9.069605e-02  0 
 5.410809e-02  -9.345203e-02  0 
 7.204949e-02  -9.454009e-02  0 
 3.984393e-02  -1.121679e-01  0 
 5.772998e-02  -1.132822e-01  0 
 7.756636e-02  -1.146824e-01  0 
 4.188815e-02  -1.322593e-01  0 
 5.956884e-02  -1.337375e-01  0 
 7.835591e-02  -1.341780e-01  0 
 4.247210e-02  -1.518696e-01  0 
 6.060621e-02  -1.526882e-01  0 
 7.922695e-02  -1.533171e-01  0 
 4.312990e-02  -1.695668e-01  0 
 6.079323e-02  -1.716925e-01  0 
 7.938805e-02  -1.718755e-01  0 
 3.551802e-02  -7.939013e-02  0 
 5.123579e-02  -8.370749e-02  0 
 4.665372e-02  -9.253547e-02  0 
 7.108216e-02  -8.437164e-02  0 
 6.213466e-02  -9.402797e-02  0 
 3.817825e-02  -1.021843e-01  0 
 5.645586e-02  -1.026720e-01  0 
 4.789711e-02  -1.123894e-01  0 
 7.502065e-02  -1.051039e-01  0 
 6.792031e-02  -1.142048e-01  0 
 4.139631e-02  -1.218054e-01  0 
 3.276197e-02  -1.313759e-01  0 
 5.862443e-02  -1.240665e-01  0 
 5.101354e-02  -1.332548e-01  0 
 7.807975e-02  -1.243309e-01  0 
 6.861404e-02  -1.340154e-01  0 
 4.204359e-02  -1.425670e-01  0 
 3.412816e-02  -1.514668e-01  0 
 6.031619e-02  -1.429450e-01  0 
 5.127077e-02  -1.521960e-01  0 
 7.884501e-02  -1.440788e-01  0 
 6.998212e-02  -1.531398e-01  0 
 4.290865e-02  -1.606709e-01  0 
 3.426094e-02  -1.693214e-01  0 
 6.069471e-02  -1.623990e-01  0 
 5.191896e-02  -1.707189e-01  0 
 7.933959e-02  -1.625561e-01  0 
 7.006118e-02  -1.718411e-01  0 
 4.268892e-02  -8.160286e-02  0 
 6.124773e-02  -8.419493e-02  0 
 4.742645e-02  -1.023668e-01  0 
 6.524467e-02  -1.039572e-01  0 
 3.257757e-02  -1.214897e-01  0 
 4.963169e-02  -1.231088e-01  0 
 6.840205e-02  -1.242399e-01  0 
 3.351868e-02  -1.418535e-01  0 
 5.121518e-02  -1.426939e-01  0 
 6.938125e-02  -1.437228e-01  0 
 3.424130e-02  -1.603589e-01  0 
 5.155277e-02  -1.617381e-01  0 
 7.006128e-02  -1.624900e-01  0 
VECTORS displacement_ITER10 FLOAT
 3.714020e-02  -9.069605e-02  0 
 5.410809e-02  -9.345203e-02  0 
 7.204949e-02  -9.454009e-02  0 
 3.984393e-02  -1.121679e-01  0 
 5.772998e-02  -1.132822e-01  0 
 7.756636e-02  -1.146824e-01  0 
 4.188815e-02  -1.322593e-01  0 
 5.956884e-02  -1.337375e-01  0 
 7.835591e-02  -1.341780e-01  0 
 4.247210e-02  -1.518696e-01  0 
 6.060621e-02  -1.526882e-01  0 
 7.922695e-02  -1.533171e-01  0 
 4.312990e-02  -1.695668e-01  0 
 6.079323e-02  -1.716925e-01  0 
 7.938805e-02  -1.718755e-01  0 
 3.551802e-02  -7.939013e-02  0 
 5.123579e-02  -8.370749e-02  0 
 4.665372e-02  -9.253547e-02  0 
 7.108216e-02  -8.437164e-02  0 
 6.213466e-02  -9.402797e-02  0 
 3.817825e-02  -1.021843e-01  0 
 5.645586e-02  -1.026720e-01  0 
 4.789711e-02  -1.123894e-01  0 
 7.502065e-02  -1.051039e-01  0 
 6.792031e-02  -1.142048e-01  0 
 4.139631e-02  -1.218054e-01  0 
 3.276197e-02  -1.313759e-01  0 
 5.862443e-02  -1.240665e-01  0 
 5.101354e-02  -1.332548e-01  0 
 7.807975e-02  -1.243309e-01  0 
 6.861404e-02  -1.340154e-01  0 
 4.204359e-02  -1.425670e-01  0 
 3.412815e-02  -1.514668e-01  0 
 6.031619e-02  -1.429450e-01  0 
 5.127077e-02  -1.521960e-01  0 
 7.884501e-02  -1.440788e-01  0 
 6.998212e-02  -1.531398e-01  0 
 4.290864e-02  -1.606709e-01  0 
 3.426094e-02  -1.693214e-01  0 
 6.069471e-02  -1.623990e-01  0 
 5.191896e-02  -1.707189e-01  0 
 7.933959e-02  -1.625561e-01  0 
 7.006118e-02  -1.718411e-01  0 
 4.268893e-02  -8.160286e-02  0 
 6.124773e-02  -8.419493e-02  0 
 4.742645e-02  -1.023668e-01  0 
 6.524467e-02  -1.039572e-01  0 
 3.257757e-02  -1.214897e-01  0 
 4.963169e-02  -1.231088e-01  0 
 6.840205e-02  -1.242399e-01  0 
 3.351868e-02  -1.418535e-01  0 
 5.121518e-02  -1.426939e-01  0 
 6.938125e-02  -1.437228e-01  0 
 3.424130e-02  -1.603589e-01  0 
 5.155277e-02  -1.617381e-01  0 
 7.006128e-02  -1.624900e-01  0 
VECTORS displacement_ITER11 FLOAT
 3.714020e-02  -9.069605e-02  0 
 5.410809e-02  -9.345203e-02  0 
 7.204949e-02  -9.454009e-02  0 
 3.984393e-02  -1.121679e-01  0 
 5.772998e-02  -1.132822e-01  0 
 7.756636e-02  -1.146824e-01  0 
 4.188815e-02  -1.322593e-01  0 
 5.956884e-02  -1.337375e-01  0 
 7.835591e-02  -1.341780e-01  0 
 4.247210e-02  -1.518696e-01  0 
 6.060621e-02  -1.526882e-01  0 
 7.922695e-02  -1.533171e-01  0 
 4.312990e-02  -1.695668e-01  0 
 6.079323e-02  -1.716925e-01  0 
 7.938805e-02  -1.718755e-01  0 
 3.551802e-02  -7.939013e-02  0 
 5.123579e-02  -8.370749e-02  0 
 4.665372e-02  -9.253547e-02  0 
 7.108216e-02  -8.437164e-02  0 
 6.213466e-02  -9.402797e-02  0 
 3.817825e-02  -1.021843e-01  0 
 5.645586e-02  -1.026720e-01  0 
 4.789711e-02  -1.123894e-01  0 
 7.502065e-02  -1.051039e-01  0 
 6.792031e-02  -1.142048e-01  0 
 4.139631e-02  -1.218054e-01  0 
 3.276197e-02  -1.313759e-01  0 
 5.862443e-02  -1.240665e-01  0 
 5.101354e-02  -1.332548e-01  0 
 7.807975e-02  -1.243309e-01  0 
 6.861404e-02  -1.340154e-01  0 
 4.204359e-02  -1.425670e-01  0 
 3.412815e-02  -1.514668e-01  0 
 6.031619e-02  -1.429450e-01  0 
 5.127077e-02  -1.521960e-01  0 
 7.884501e-02  -1.440788e-01  0 
 6.998212e-02  -1.531398e-01  0 
 4.290864e-02  -1.606709e-01  0 
 3.426094e-02  -1.693214e-01  0 
 6.069471e-02  -1.623990e-01  0 
 5.191896e-02  -1.707189e-01  0 
 7.933959e-02  -1.625561e-01  0 
 7.006118e-02  -1.718411e-01  0 
 4.268893e-02  -8.160286e-02  0 
 6.124773e-02  -8.419493e-02  0 
 4.742645e-02  -1.023668e-01  0 
 6.524467e-02  -1.039572e-01  0 
 3.257757e-02  -1.214897e-01  0 
 4.963169e-02  -1.231088e-01  0 
 6.840205e-02  -1.242399e-01  0 
 3.351868e-02  -1.418535e-01  0 
 5.121518e-02  -1.426939e-01  0 
 6.938125e-02  -1.437228e-01  0 
 3.424130e-02  -1.603589e-01  0 
 5.155277e-02  -1.617381e-01  0 
 7.006128e-02  -1.624900e-01  0 
CELL_DATA 41
TENSORS element_stresses FLOAT
 2.401830e-01  -2.136196e-01  0 
 -2.136196e-01  -1.305525e-01  0 
 0  0  0 

 3.258643e-01  -1.798431e-01  0 
 -1.798431e-01  -5.330050e-02  0 
 0  0  0 

 7.560901e-01  -2.367813e-01  0 
 -2.367813e-01  1.415196e-02  0 
 0  0  0 

 3.621110e-01  -3.880441e-02  0 
 -3.880441e-02  -2.913205e-02  0 
 0  0  0 

 2.646584e-01  -3.935079e-01  0 
 -3.935079e-01  -3.249925e-01  0 
 0  0  0 

 6.052671e-01  -3.950046e-01  0 
 -3.950046e-01  -6.278053e-02  0 
 0  0  0 

 4.428844e-01  -4.161296e-01  0 
 -4.161296e-01  5.205460e-02  0 
 0  0  0 

 3.044771e-01  -2.723792e-01  0 
 -2.723792e-01  -1.482585e-01  0 
 0  0  0 

 2.692015e-01  -8.976201e-02  0 
 -8.976201e-02  -1.229373e-02  0 
 0  0  0 

 3.067867e-01  -3.085542e-02  0 
 -3.085542e-02  9.092340e-03  0 
 0  0  0 

 1.806264e-01  -7.225594e-02  0 
 -7.225594e-02  -5.620286e-02  0 
 0  0  0 

 2.601130e-01  -1.554038e-02  0 
 -1.554038e-02  -3.180029e-03  0 
 0  0  0 

 6.955824e-02  -3.684816e-01  0 
 -3.684816e-01  -2.189641e-01  0 
 0  0  0 

 1.554662e-01  -1.564781e-01  0 
 -1.564781e-01  -2.960594e-02  0 
 0  0  0 

 1.139504e-01  -1.030074e-01  0 
 -1.030074e-01  -5.833833e-02  0 
 0  0  0 

 6.505671e-02  -1.245786e-01  0 
 -1.245786e-01  -9.542489e-02  0 
 0  0  0 

 1.040732e-01  -8.726247e-02  0 
 -8.726247e-02  -4.079821e-02  0 
 0  0  0 

 2.301980e-01  -1.309915e-01  0 
 -1.309915e-01  -1.501419e-01  0 
 0  0  0 

 1.812220e-01  -5.536407e-02  0 
 -5.536407e-02  -5.935270e-02  0 
 0  0  0 

 2.243954e-01  -9.595392e-02  0 
 -9.595392e-02  -2.294573e-02  0 
 0  0  0 

 9.055932e-02  -3.124798e-02  0 
 -3.124798e-02  -2.356542e-02  0 
 0  0  0 

 2.379382e-02  -1.205452e-01  0 
 -1.205452e-01  -7.271120e-02  0 
 0  0  0 

 3.863114e-02  -7.873422e-02  0 
 -7.873422e-02  -4.422700e-02  0 
 0  0  0 

 4.478729e-03  -2.230521e-01  0 
 -2.230521e-01  -2.231233e-01  0 
 0  0  0 

 1.601856e-01  -1.523623e-01  0 
 -1.523623e-01  -9.870849e-02  0 
 0  0  0 

 7.650727e-02  -1.283764e-01  0 
 -1.283764e-01  -6.771232e-02  0 
 0  0  0 

 2.695405e-02  -1.244345e-01  0 
 -1.244345e-01  -1.405646e-01  0 
 0  0  0 

 6.581367e-02  -3.094976e-02  0 
 -3.094976e-02  -3.304724e-02  0 
 0  0  0 

 6.048058e-02  -1.548169e-02  0 
 -1.548169e-02  -7.782489e-03  0 
 0  0  0 

 2.868454e-02  -2.765761e-02  0 
 -2.765761e-02  -5.286713e-02  0 
 0  0  0 

 4.521127e-02  2.054767e-03  0 
 2.054767e-03  -1.309812e-02  0 
 0  0  0 

 7.368593e-02  -1.049445e-01  0 
 -1.049445e-01  -1.208420e-01  0 
 0  0  0 

 1.619804e-02  -4.954379e-02  0 
 -4.954379e-02  -1.066017e-01  0 
 0  0  0 

 1.650792e-02  -3.463897e-02  0 
 -3.463897e-02  -6.473162e-02  0 
 0  0  0 

 1.351540e-03  -2.983027e-02  0 
 -2.983027e-02  -5.724452e-02  0 
 0  0  0 

 -4.306309e-03  -1.705480e-02  0 
 -1.705480e-02  -1.122607e-01  0 
 0  0  0 

 -1.408145e-03  -9.923054e-03  0 
 -9.923054e-03  -8.214483e-02  0 
 0  0  0 

 1.072059e-03  -4.901407e-02  0 
 -4.901407e-02  -1.081969e-01  0 
 0  0  0 

 2.610272e-02  -1.017694e-02  0 
 -1.017694e-02  -4.085375e-02  0 
 0  0  0 

 5.832342e-03  -1.549966e-03  0 
 -1.549966e-03  -4.617418e-02  0 
 0  0  0 

 4.000136e-03  -1.004778e-02  0 
 -1.004778e-02  -1.890591e-02  0 
 0  0  0 

TENSORS element_stresses FLOAT
 2.401830e-01  -2.136196e-01  0 
 -2.136196e-01  -1.305525e-01  0 
 0  0  0 

 3.258643e-01  -1.798431e-01  0 
 -1.798431e-01  -5.330050e-02  0 
 0  0  0 

 7.560901e-01  -2.367813e-01  0 
 -2.367813e-01  1.415196e-02  0 
 0  0  0 

 3.621110e-01  -3.880441e-02  0 
 -3.880441e-02  -2.913205e-02  0 
 0  0  0 

 2.646584e-01  -3.935079e-01  0 
 -3.935079e-01  -3.249925e-01  0 
 0  0  0 

 6.052671e-01  -3.950046e-01  0 
 -3.950046e-01  -6.278053e-02  0 
 0  0  0 

 4.428844e-01  -4.161296e-01  0 
 -4.161296e-01  5.205460e-02  0 
 0  0  0 

 3.044771e-01  -2.723792e-01  0 
 -2.723792e-01  -1.482585e-01  0 
 0  0  0 

 2.692015e-01  -8.976201e-02  0 
 -8.976201e-02  -1.229373e-02  0 
 0  0  0 

 3.067867e-01  -3.085542e-02  0 
 -3.085542e-02  9.092340e-03  0 
 0  0  0 

 1.806264e-01  -7.225594e-02  0 
 -7.225594e-02  -5.620286e-02  0 
 0  0  0 

 2.601130e-01  -1.554038e-02  0 
 -1.554038e-02  -3.180029e-03  0 
 0  0  0 

 6.955824e-02  -3.684816e-01  0 
 -3.684816e-01  -2.189641e-01  0 
 0  0  0 

 1.554662e-01  -1.564781e-01  0 
 -1.564781e-01  -2.960594e-02  0 
 0  0  0 

 1.139504e-01  -1.030074e-01  0 
 -1.030074e-01  -5.833833e-02  0 
 0  0  0 

 6.505671e-02  -1.245786e-01  0 
 -1.245786e-01  -9.542489e-02  0 
 0  0  0 

 1.040732e-01  -8.726247e-02  0 
 -8.726247e-02  -4.079821e-02  0 
 0  0  0 

 2.301980e-01  -1.309915e-01  0 
 -1.309915e-01  -1.501419e-01  0 
 0  0  0 

 1.812220e-01  -5.536407e-02  0 
 -5.536407e-02  -5.935270e-02  0 
 0  0  0 

 2.243954e-01  -9.595392e-02  0 
 -9.595392e-02  -2.294573e-02  0 
 0  0  0 

 9.055932e-02  -3.124798e-02  0 
 -3.124798e-02  -2.356542e-02  0 
 0  0  0 

 2.379382e-02  -1.205452e-01  0 
 -1.205452e-01  -7.271120e-02  0 
 0  0  0 

 3.863114e-02  -7.873422e-02  0 
 -7.873422e-02  -4.422700e-02  0 
 0  0  0 

 4.478729e-03  -2.230521e-01  0 
 -2.230521e-01  -2.231233e-01  0 
 0  0  0 

 1.601856e-01  -1.523623e-01  0 
 -1.523623e-01  -9.870849e-02  0 
 0  0  0 

 7.650727e-02  -1.283764e-01  0 
 -1.283764e-01  -6.771232e-02  0 
 0  0  0 

 2.695405e-02  -1.244345e-01  0 
 -1.244345e-01  -1.405646e-01  0 
 0  0  0 

 6.581367e-02  -3.094976e-02  0 
 -3.094976e-02  -3.304724e-02  0 
 0  0  0 

 6.048058e-02  -1.548169e-02  0 
 -1.548169e-02  -7.782489e-03  0 
 0  0  0 

 2.868454e-02  -2.765761e-02  0 
 -2.765761e-02  -5.286713e-02  0 
 0  0  0 

 4.521127e-02  2.054767e-03  0 
 2.054767e-03  -1.309812e-02  0 
 0  0  0 

 7.368593e-02  -1.049445e-01  0 
 -1.049445e-01  -1.208420e-01  0 
 0  0  0 

 1.619804e-02  -4.954379e-02  0 
 -4.954379e-02  -1.066017e-01  0 
 0  0  0 

 1.650792e-02  -3.463897e-02  0 
 -3.463897e-02  -6.473162e-02  0 
 0  0  0 

 1.351540e-03  -2.983027e-02  0 
 -2.983027e-02  -5.724452e-02  0 
 0  0  0 

 -4.306309e-03  -1.705480e-02  0 
 -1.705480e-02  -1.122607e-01  0 
 0  0  0 

 -1.408145e-03  -9.923054e-03  0 
 -9.923054e-03  -8.214483e-02  0 
 0  0  0 

 1.072059e-03  -4.901407e-02  0 
 -4.901407e-02  -1.081969e-01  0 
 0  0  0 

 2.610272e-02  -1.017694e-02  0 
 -1.017694e-02  -4.085375e-02  0 
 0  0  0 

 5.832342e-03  -1.549966e-03  0 
 -1.549966e-03  -4.617418e-02  0 
 0  0  0 

 4.000136e-03  -1.004778e-02  0 
 -1.004778e-02  -1.890591e-02  0 
 0  0  0 

