# vtk DataFile Version 3.1
this is an vtk file created by FEMAC
ASCII
DATASET UNSTRUCTURED_GRID
POINTS 55 FLOAT
0.000000 5.000000 0.000000
1.000000 5.000000 0.000000
0.000000 6.000000 0.000000
1.000000 6.000000 0.000000
0.000000 7.000000 0.000000
1.000000 7.000000 0.000000
2.000000 5.000000 0.000000
2.000000 6.000000 0.000000
2.000000 7.000000 0.000000
3.000000 5.000000 0.000000
3.000000 6.000000 0.000000
4.000000 5.000000 0.000000
4.000000 6.000000 0.000000
0.500000 5.000000 0.000000
0.000000 4.500000 0.000000
1.000000 4.500000 0.000000
0.500000 6.000000 0.000000
0.000000 5.500000 0.000000
1.000000 5.500000 0.000000
0.500000 7.000000 0.000000
0.000000 6.500000 0.000000
1.000000 6.500000 0.000000
1.500000 5.000000 0.000000
2.000000 4.500000 0.000000
1.500000 6.000000 0.000000
2.000000 5.500000 0.000000
1.500000 7.000000 0.000000
2.000000 6.500000 0.000000
2.500000 5.000000 0.000000
3.000000 4.500000 0.000000
2.500000 6.000000 0.000000
3.000000 5.500000 0.000000
3.000000 6.500000 0.000000
3.500000 5.000000 0.000000
4.000000 4.500000 0.000000
3.500000 6.000000 0.000000
4.000000 5.500000 0.000000
4.000000 6.500000 0.000000
4.500000 5.000000 0.000000
4.500000 6.000000 0.000000
0.500000 4.500000 0.000000
0.500000 5.500000 0.000000
0.500000 6.500000 0.000000
1.500000 4.500000 0.000000
1.500000 5.500000 0.000000
1.500000 6.500000 0.000000
2.500000 4.500000 0.000000
2.500000 5.500000 0.000000
2.500000 6.500000 0.000000
3.500000 4.500000 0.000000
3.500000 5.500000 0.000000
3.500000 6.500000 0.000000
4.500000 4.500000 0.000000
4.500000 5.500000 0.000000
4.500000 6.500000 0.000000
CELLS 40 200 
4 14 40 13  0
4 40 15  1 13
4 0 13 41 17
4 17 41 16  2
4 13  1 18 41
4 41 18  3 16
4 2 16 42 20
4 20 42 19  4
4 16  3 21 42
4 42 21  5 19
4 15 43 22  1
4 43 23  6 22
4 1 22 44 18
4 18 44 24  3
4 22  6 25 44
4 44 25  7 24
4 3 24 45 21
4 21 45 26  5
4 24  7 27 45
4 45 27  8 26
4 23 46 28  6
4 46 29  9 28
4 6 28 47 25
4 25 47 30  7
4 28  9 31 47
4 47 31 10 30
4 7 30 48 27
4 30 10 32 48
4 29 49 33  9
4 49 34 11 33
4 9 33 50 31
4 31 50 35 10
4 33 11 36 50
4 50 36 12 35
4 10 35 51 32
4 35 12 37 51
4 34 52 38 11
4 11 38 53 36
4 36 53 39 12
4 12 39 54 37
CELL_TYPES 40
9 9 9 9 9 9 9 9 9 9 9 9 9 9 9 9 9 9 9 9 9 9 9 9 9 9 9 9 9 9 9 9 9 9 9 9 9 9 9 9 
POINT_DATA 55
VECTORS displacement_ITER1 FLOAT
 0  0  0 
 -5.442189e-02  -6.016167e-02  0 
 0  0  0 
 8.123854e-03  -5.601001e-02  0 
 0  0  0 
 6.309152e-02  -6.690976e-02  0 
 -1.120729e-01  -1.991078e-01  0 
 3.828395e-02  -1.944595e-01  0 
 1.185305e-01  -1.830924e-01  0 
 -1.432171e-01  -4.222360e-01  0 
 5.790158e-02  -4.193220e-01  0 
 -1.606650e-01  -6.674617e-01  0 
 7.692317e-02  -6.668052e-01  0 
 -1.933025e-02  -2.209699e-02  0 
 0  0  0 
 -7.471684e-02  -6.569396e-02  0 
 -3.737484e-03  -2.057532e-02  0 
 0  0  0 
 -2.633461e-02  -5.824854e-02  0 
 3.871829e-02  -2.738227e-02  0 
 0  0  0 
 2.742161e-02  -5.779252e-02  0 
 -8.878864e-02  -1.147280e-01  0 
 -2.158559e-01  -2.093384e-01  0 
 2.791269e-02  -1.147643e-01  0 
 -3.219765e-02  -1.907904e-01  0 
 1.155567e-01  -1.451795e-01  0 
 1.216589e-01  -1.989196e-01  0 
 -1.272566e-01  -3.116301e-01  0 
 -2.417697e-01  -4.243883e-01  0 
 4.269184e-02  -3.025716e-01  0 
 -4.283892e-02  -4.216179e-01  0 
 1.579520e-01  -4.206245e-01  0 
 -1.567758e-01  -5.389799e-01  0 
 -2.923323e-01  -6.716459e-01  0 
 7.179021e-02  -5.389948e-01  0 
 -4.191737e-02  -6.630840e-01  0 
 2.031301e-01  -6.723190e-01  0 
 -1.608945e-01  -8.073981e-01  0 
 7.806856e-02  -8.018322e-01  0 
 -4.885882e-02  -3.265669e-02  0 
 -1.172083e-02  -1.960883e-02  0 
 1.499980e-02  -2.197065e-02  0 
 -1.494876e-01  -1.247756e-01  0 
 -2.972703e-02  -1.126556e-01  0 
 6.789970e-02  -1.249682e-01  0 
 -2.319038e-01  -3.166772e-01  0 
 -3.939898e-02  -3.026384e-01  0 
 1.477453e-01  -3.088430e-01  0 
 -2.690534e-01  -5.459143e-01  0 
 -4.258372e-02  -5.379455e-01  0 
 1.831909e-01  -5.446062e-01  0 
 -2.975342e-01  -8.141737e-01  0 
 -4.067316e-02  -7.983814e-01  0 
 2.078982e-01  -8.043050e-01  0 
VECTORS displacement_ITER2 FLOAT
 0  0  0 
 -1.348547e-02  -3.002142e-02  0 
 0  0  0 
 -2.197374e-03  -2.789787e-02  0 
 0  0  0 
 1.488303e-02  -2.692933e-02  0 
 -2.166044e-02  -6.482967e-02  0 
 -1.222687e-03  -6.521528e-02  0 
 8.031334e-03  -6.227229e-02  0 
 -2.375863e-02  -1.060439e-01  0 
 1.431269e-04  -1.065111e-01  0 
 -2.536443e-02  -1.481978e-01  0 
 3.982380e-03  -1.471185e-01  0 
 -3.728246e-03  -1.192637e-02  0 
 0  0  0 
 -2.203840e-02  -2.903540e-02  0 
 -4.437766e-03  -1.154625e-02  0 
 0  0  0 
 -8.710103e-03  -3.098178e-02  0 
 1.150813e-02  -1.180434e-02  0 
 0  0  0 
 4.164824e-03  -2.542813e-02  0 
 -2.075279e-02  -4.619523e-02  0 
 -3.378953e-02  -6.695638e-02  0 
 1.040621e-03  -4.604191e-02  0 
 -1.052339e-02  -6.253045e-02  0 
 1.351469e-02  -4.966627e-02  0 
 8.345629e-03  -6.693810e-02  0 
 -2.086421e-02  -8.522406e-02  0 
 -3.710105e-02  -1.042720e-01  0 
 -3.761885e-03  -8.616362e-02  0 
 -1.137117e-02  -1.079240e-01  0 
 1.013479e-02  -1.050384e-01  0 
 -2.676905e-02  -1.264362e-01  0 
 -4.415379e-02  -1.488141e-01  0 
 3.956876e-03  -1.265256e-01  0 
 -1.058421e-02  -1.458245e-01  0 
 1.712310e-02  -1.489031e-01  0 
 -2.401800e-02  -1.729341e-01  0 
 3.577171e-03  -1.670932e-01  0 
 -1.659920e-02  -1.459031e-02  0 
 -3.871662e-03  -1.270624e-02  0 
 2.904652e-03  -1.102976e-02  0 
 -3.074621e-02  -4.706524e-02  0 
 -9.934023e-03  -4.572103e-02  0 
 5.902457e-03  -4.778448e-02  0 
 -3.615843e-02  -8.542801e-02  0 
 -1.145565e-02  -8.563643e-02  0 
 1.083607e-02  -8.733953e-02  0 
 -3.971502e-02  -1.285110e-01  0 
 -1.099337e-02  -1.262704e-01  0 
 1.394438e-02  -1.274685e-01  0 
 -4.579232e-02  -1.766888e-01  0 
 -9.283183e-03  -1.687235e-01  0 
 1.873147e-02  -1.666532e-01  0 
VECTORS displacement_ITER3 FLOAT
 0  0  0 
 -1.068121e-03  -2.832217e-02  0 
 0  0  0 
 7.542114e-03  -2.740769e-02  0 
 0  0  0 
 1.969128e-02  -2.711611e-02  0 
 2.230415e-03  -6.192299e-02  0 
 1.837215e-02  -6.308337e-02  0 
 2.931706e-02  -6.360352e-02  0 
 9.217401e-03  -1.010374e-01  0 
 2.825841e-02  -1.032619e-01  0 
 1.377115e-02  -1.407499e-01  0 
 3.719187e-02  -1.406705e-01  0 
 1.990254e-03  -1.117324e-02  0 
 0  0  0 
 -1.025897e-02  -2.595014e-02  0 
 -2.108782e-04  -1.172487e-02  0 
 0  0  0 
 5.410101e-03  -3.039638e-02  0 
 1.402074e-02  -1.257932e-02  0 
 0  0  0 
 9.823138e-03  -2.494889e-02  0 
 -2.624209e-03  -4.495659e-02  0 
 -2.664028e-03  -6.396716e-02  0 
 1.596713e-02  -4.411701e-02  0 
 8.023910e-03  -5.979468e-02  0 
 2.693350e-02  -4.876573e-02  0 
 2.962498e-02  -6.553601e-02  0 
 8.543237e-03  -8.005801e-02  0 
 -3.679479e-03  -9.851198e-02  0 
 2.037098e-02  -8.417715e-02  0 
 2.082987e-02  -1.041543e-01  0 
 3.565151e-02  -1.021569e-01  0 
 9.113191e-03  -1.214629e-01  0 
 4.385297e-03  -1.415810e-01  0 
 3.514534e-02  -1.209605e-01  0 
 2.339553e-02  -1.385552e-01  0 
 5.235122e-02  -1.432506e-01  0 
 1.801719e-02  -1.591868e-01  0 
 3.836510e-02  -1.616216e-01  0 
 -8.609436e-03  -1.198846e-02  0 
 2.049065e-03  -1.258365e-02  0 
 6.126630e-03  -1.168983e-02  0 
 -8.928467e-03  -4.428132e-02  0 
 6.508868e-03  -4.419585e-02  0 
 1.934091e-02  -4.626526e-02  0 
 -3.899829e-03  -7.989928e-02  0 
 1.435943e-02  -8.228687e-02  0 
 3.456346e-02  -8.558235e-02  0 
 2.499476e-04  -1.228042e-01  0 
 2.236726e-02  -1.209550e-01  0 
 4.437667e-02  -1.228912e-01  0 
 5.204798e-03  -1.609146e-01  0 
 2.716097e-02  -1.593097e-01  0 
 5.483972e-02  -1.622697e-01  0 
VECTORS displacement_ITER4 FLOAT
 0  0  0 
 2.506845e-03  -2.559233e-02  0 
 0  0  0 
 8.976065e-03  -2.503808e-02  0 
 0  0  0 
 1.799413e-02  -2.449189e-02  0 
 7.423786e-03  -5.647624e-02  0 
 2.068527e-02  -5.724381e-02  0 
 3.097758e-02  -5.803494e-02  0 
 1.389768e-02  -9.320152e-02  0 
 3.156401e-02  -9.529031e-02  0 
 1.704361e-02  -1.343617e-01  0 
 4.181113e-02  -1.347056e-01  0 
 3.804367e-03  -1.050353e-02  0 
 0  0  0 
 -4.548266e-03  -2.292015e-02  0 
 6.750174e-04  -1.086541e-02  0 
 0  0  0 
 8.228622e-03  -2.790385e-02  0 
 1.265892e-02  -1.146378e-02  0 
 0  0  0 
 9.805195e-03  -2.250013e-02  0 
 2.004053e-03  -4.094418e-02  0 
 4.577727e-03  -5.854264e-02  0 
 1.774221e-02  -4.002112e-02  0 
 1.145451e-02  -5.422205e-02  0 
 2.521189e-02  -4.278346e-02  0 
 3.089810e-02  -5.956980e-02  0 
 1.385394e-02  -7.324471e-02  0 
 3.007908e-03  -9.052676e-02  0 
 2.317851e-02  -7.685874e-02  0 
 2.472416e-02  -9.646561e-02  0 
 3.802375e-02  -9.399555e-02  0 
 1.290162e-02  -1.139459e-01  0 
 6.339802e-03  -1.358124e-01  0 
 3.931825e-02  -1.135646e-01  0 
 2.730253e-02  -1.320540e-01  0 
 5.866200e-02  -1.379854e-01  0 
 2.118207e-02  -1.546955e-01  0 
 4.309786e-02  -1.578548e-01  0 
 -4.501330e-03  -1.065324e-02  0 
 3.333105e-03  -1.174340e-02  0 
 6.090389e-03  -1.088933e-02  0 
 -1.711029e-03  -4.009615e-02  0 
 9.727705e-03  -4.020462e-02  0 
 1.998986e-02  -4.151995e-02  0 
 3.186571e-03  -7.317154e-02  0 
 1.814551e-02  -7.525236e-02  0 
 3.607286e-02  -7.787185e-02  0 
 4.442879e-03  -1.153098e-01  0 
 2.625004e-02  -1.134490e-01  0 
 4.905184e-02  -1.159636e-01  0 
 6.608787e-03  -1.565051e-01  0 
 3.109664e-02  -1.547355e-01  0 
 6.132283e-02  -1.588373e-01  0 
VECTORS displacement_ITER5 FLOAT
 0  0  0 
 2.334401e-03  -2.486044e-02  0 
 0  0  0 
 8.019690e-03  -2.413024e-02  0 
 0  0  0 
 1.634035e-02  -2.310465e-02  0 
 5.182140e-03  -5.560818e-02  0 
 1.809017e-02  -5.550650e-02  0 
 3.199305e-02  -5.802169e-02  0 
 9.153116e-03  -9.178380e-02  0 
 2.669872e-02  -9.305330e-02  0 
 1.069533e-02  -1.328699e-01  0 
 3.591445e-02  -1.341111e-01  0 
 4.119273e-03  -1.073038e-02  0 
 0  0  0 
 -2.645585e-03  -2.229202e-02  0 
 4.092135e-04  -1.042876e-02  0 
 0  0  0 
 7.082902e-03  -2.713715e-02  0 
 1.132560e-02  -1.066363e-02  0 
 0  0  0 
 8.852942e-03  -2.130900e-02  0 
 8.908727e-04  -3.976281e-02  0 
 1.338812e-03  -5.837075e-02  0 
 1.594167e-02  -3.886881e-02  0 
 9.653031e-03  -5.282506e-02  0 
 2.248518e-02  -3.943883e-02  0 
 2.751397e-02  -5.802110e-02  0 
 1.024207e-02  -7.269352e-02  0 
 -2.554520e-04  -8.909620e-02  0 
 1.954362e-02  -7.444586e-02  0 
 1.937264e-02  -9.480296e-02  0 
 3.367738e-02  -9.143082e-02  0 
 7.264219e-03  -1.122463e-01  0 
 -1.201100e-03  -1.344197e-01  0 
 3.389478e-02  -1.122469e-01  0 
 2.152912e-02  -1.309065e-01  0 
 5.210132e-02  -1.380192e-01  0 
 1.455895e-02  -1.542845e-01  0 
 3.674446e-02  -1.573836e-01  0 
 -2.925208e-03  -1.082979e-02  0 
 2.995264e-03  -1.153968e-02  0 
 5.540879e-03  -1.037285e-02  0 
 -1.788795e-03  -3.955180e-02  0 
 8.323645e-03  -3.905309e-02  0 
 1.812778e-02  -3.951822e-02  0 
 6.453829e-05  -7.281462e-02  0 
 1.454041e-02  -7.369753e-02  0 
 3.167307e-02  -7.467607e-02  0 
 -1.075833e-03  -1.132132e-01  0 
 2.055140e-02  -1.119261e-01  0 
 4.384221e-02  -1.149889e-01  0 
 -1.268074e-03  -1.555002e-01  0 
 2.493003e-02  -1.544144e-01  0 
 5.427269e-02  -1.582201e-01  0 
VECTORS displacement_ITER6 FLOAT
 0  0  0 
 3.608757e-03  -2.352357e-02  0 
 0  0  0 
 8.834578e-03  -2.307443e-02  0 
 0  0  0 
 1.653348e-02  -2.244229e-02  0 
 6.219830e-03  -5.406817e-02  0 
 1.989303e-02  -5.410830e-02  0 
 3.532636e-02  -5.706699e-02  0 
 1.007981e-02  -9.095445e-02  0 
 2.887623e-02  -9.251668e-02  0 
 1.161590e-02  -1.335764e-01  0 
 3.867318e-02  -1.355550e-01  0 
 4.874800e-03  -1.045307e-02  0 
 0  0  0 
 -1.514318e-04  -2.096199e-02  0 
 8.594847e-04  -1.002685e-02  0 
 0  0  0 
 8.174900e-03  -2.589678e-02  0 
 1.098495e-02  -1.023051e-02  0 
 0  0  0 
 9.161719e-03  -2.045321e-02  0 
 2.160395e-03  -3.818515e-02  0 
 1.576003e-03  -5.700025e-02  0 
 1.716964e-02  -3.739096e-02  0 
 1.096238e-02  -5.134636e-02  0 
 2.340767e-02  -3.820738e-02  0 
 3.021223e-02  -5.702551e-02  0 
 1.108190e-02  -7.151482e-02  0 
 4.425179e-04  -8.795330e-02  0 
 2.172337e-02  -7.346508e-02  0 
 2.098506e-02  -9.420309e-02  0 
 3.663161e-02  -9.111392e-02  0 
 8.225664e-03  -1.122671e-01  0 
 -7.820936e-04  -1.352351e-01  0 
 3.636352e-02  -1.125172e-01  0 
 2.324531e-02  -1.319158e-01  0 
 5.584327e-02  -1.399340e-01  0 
 1.564350e-02  -1.556414e-01  0 
 3.970435e-02  -1.598931e-01  0 
 -8.295732e-04  -1.030459e-02  0 
 3.505114e-03  -1.108846e-02  0 
 5.688965e-03  -1.001668e-02  0 
 4.608409e-05  -3.816062e-02  0 
 9.561220e-03  -3.750757e-02  0 
 1.959166e-02  -3.814510e-02  0 
 6.779487e-04  -7.144032e-02  0 
 1.600305e-02  -7.257084e-02  0 
 3.416369e-02  -7.336047e-02  0 
 -5.855208e-04  -1.126764e-01  0 
 2.218841e-02  -1.120391e-01  0 
 4.724547e-02  -1.158746e-01  0 
 -7.704151e-04  -1.561861e-01  0 
 2.697841e-02  -1.567725e-01  0 
 5.788473e-02  -1.606884e-01  0 
VECTORS displacement_ITER7 FLOAT
 0  0  0 
 3.658245e-03  -2.385965e-02  0 
 0  0  0 
 8.749640e-03  -2.339531e-02  0 
 0  0  0 
 1.695631e-02  -2.283424e-02  0 
 5.791892e-03  -5.490318e-02  0 
 1.963224e-02  -5.479545e-02  0 
 3.455326e-02  -5.641581e-02  0 
 9.788209e-03  -9.198758e-02  0 
 2.777598e-02  -9.341819e-02  0 
 1.179993e-02  -1.329606e-01  0 
 3.695377e-02  -1.351279e-01  0 
 5.078557e-03  -1.076172e-02  0 
 0  0  0 
 2.393363e-04  -2.137865e-02  0 
 7.754384e-04  -1.016672e-02  0 
 0  0  0 
 8.045951e-03  -2.626217e-02  0 
 1.104315e-02  -1.029085e-02  0 
 0  0  0 
 9.134880e-03  -2.077767e-02  0 
 1.902829e-03  -3.868010e-02  0 
 4.744263e-04  -5.807032e-02  0 
 1.707619e-02  -3.789910e-02  0 
 1.073257e-02  -5.205256e-02  0 
 2.297139e-02  -3.891245e-02  0 
 3.024515e-02  -5.782168e-02  0 
 1.057157e-02  -7.271155e-02  0 
 2.923467e-04  -8.896273e-02  0 
 2.114392e-02  -7.432609e-02  0 
 2.024860e-02  -9.522414e-02  0 
 3.570013e-02  -9.200004e-02  0 
 8.238640e-03  -1.126845e-01  0 
 1.078244e-03  -1.347765e-01  0 
 3.489304e-02  -1.130066e-01  0 
 2.250972e-02  -1.314161e-01  0 
 5.224110e-02  -1.395290e-01  0 
 1.598136e-02  -1.534209e-01  0 
 3.790946e-02  -1.577453e-01  0 
 -3.209600e-04  -1.063035e-02  0 
 3.484748e-03  -1.129265e-02  0 
 5.716712e-03  -1.010714e-02  0 
 -1.517110e-04  -3.894055e-02  0 
 9.396096e-03  -3.800150e-02  0 
 1.963011e-02  -3.864907e-02  0 
 1.680633e-04  -7.249438e-02  0 
 1.549236e-02  -7.360556e-02  0 
 3.346367e-02  -7.389082e-02  0 
 4.282799e-04  -1.128567e-01  0 
 2.142003e-02  -1.124754e-01  0 
 4.485439e-02  -1.165157e-01  0 
 1.301214e-03  -1.534352e-01  0 
 2.638441e-02  -1.552466e-01  0 
 5.391237e-02  -1.581576e-01  0 
VECTORS displacement_ITER8 FLOAT
 0  0  0 
 3.631976e-03  -2.368798e-02  0 
 0  0  0 
 8.612738e-03  -2.327499e-02  0 
 0  0  0 
 1.694404e-02  -2.278559e-02  0 
 5.572927e-03  -5.454306e-02  0 
 1.939067e-02  -5.450695e-02  0 
 3.349401e-02  -5.548396e-02  0 
 9.378946e-03  -9.164553e-02  0 
 2.746077e-02  -9.306350e-02  0 
 1.111014e-02  -1.329872e-01  0 
 3.673556e-02  -1.350129e-01  0 
 5.084169e-03  -1.073332e-02  0 
 0  0  0 
 3.713855e-04  -2.123437e-02  0 
 7.209052e-04  -1.012595e-02  0 
 0  0  0 
 7.909808e-03  -2.609595e-02  0 
 1.096578e-02  -1.022187e-02  0 
 0  0  0 
 9.013329e-03  -2.071857e-02  0 
 1.783360e-03  -3.840486e-02  0 
 6.065031e-05  -5.763377e-02  0 
 1.687840e-02  -3.767774e-02  0 
 1.054607e-02  -5.174711e-02  0 
 2.247114e-02  -3.889451e-02  0 
 3.001265e-02  -5.752789e-02  0 
 1.024870e-02  -7.236651e-02  0 
 -1.206135e-04  -8.867357e-02  0 
 2.085851e-02  -7.399646e-02  0 
 1.987885e-02  -9.487300e-02  0 
 3.537239e-02  -9.168905e-02  0 
 7.698031e-03  -1.124413e-01  0 
 -3.518308e-05  -1.349705e-01  0 
 3.463643e-02  -1.127582e-01  0 
 2.212162e-02  -1.313616e-01  0 
 5.217678e-02  -1.393675e-01  0 
 1.519436e-02  -1.539277e-01  0 
 3.770750e-02  -1.578112e-01  0 
 -1.133225e-04  -1.060348e-02  0 
 3.429784e-03  -1.124535e-02  0 
 5.659163e-03  -1.004781e-02  0 
 -1.734887e-04  -3.869558e-02  0 
 9.235551e-03  -3.775153e-02  0 
 1.941898e-02  -3.851283e-02  0 
 -1.717075e-04  -7.211055e-02  0 
 1.521140e-02  -7.325692e-02  0 
 3.307040e-02  -7.351101e-02  0 
 -2.578382e-04  -1.126296e-01  0 
 2.103840e-02  -1.122178e-01  0 
 4.460043e-02  -1.162907e-01  0 
 5.007795e-05  -1.539180e-01  0 
 2.592562e-02  -1.555451e-01  0 
 5.386273e-02  -1.581494e-01  0 
VECTORS displacement_ITER9 FLOAT
 0  0  0 
 3.653532e-03  -2.363017e-02  0 
 0  0  0 
 8.511834e-03  -2.328858e-02  0 
 0  0  0 
 1.723439e-02  -2.291056e-02  0 
 5.602039e-03  -5.414970e-02  0 
 1.925298e-02  -5.445841e-02  0 
 3.329726e-02  -5.579645e-02  0 
 9.392295e-03  -9.105164e-02  0 
 2.739499e-02  -9.256040e-02  0 
 1.083716e-02  -1.326967e-01  0 
 3.693151e-02  -1.345607e-01  0 
 5.088047e-03  -1.071535e-02  0 
 0  0  0 
 3.792912e-04  -2.117342e-02  0 
 6.794909e-04  -1.012883e-02  0 
 0  0  0 
 7.830726e-03  -2.606407e-02  0 
 1.105676e-02  -1.022869e-02  0 
 0  0  0 
 9.004038e-03  -2.080096e-02  0 
 1.782277e-03  -3.824924e-02  0 
 7.997414e-05  -5.700336e-02  0 
 1.674230e-02  -3.762933e-02  0 
 1.046584e-02  -5.153888e-02  0 
 2.257482e-02  -3.930328e-02  0 
 2.977903e-02  -5.763726e-02  0 
 1.029773e-02  -7.181432e-02  0 
 -9.544397e-05  -8.814583e-02  0 
 2.075399e-02  -7.379677e-02  0 
 1.989785e-02  -9.430925e-02  0 
 3.506693e-02  -9.133418e-02  0 
 7.583070e-03  -1.119166e-01  0 
 -6.706048e-04  -1.348343e-01  0 
 3.472871e-02  -1.122022e-01  0 
 2.211793e-02  -1.309960e-01  0 
 5.279313e-02  -1.388084e-01  0 
 1.483198e-02  -1.541090e-01  0 
 3.793877e-02  -1.577532e-01  0 
 4.992773e-05  -1.058787e-02  0 
 3.394664e-03  -1.124857e-02  0 
 5.671699e-03  -1.002868e-02  0 
 2.384167e-05  -3.850916e-02  0 
 9.143377e-03  -3.764253e-02  0 
 1.932497e-02  -3.869298e-02  0 
 -4.363270e-05  -7.148461e-02  0 
 1.520433e-02  -7.286573e-02  0 
 3.259346e-02  -7.328055e-02  0 
 -4.861020e-04  -1.120464e-01  0 
 2.105167e-02  -1.116661e-01  0 
 4.463692e-02  -1.157546e-01  0 
 -6.936328e-04  -1.539704e-01  0 
 2.585093e-02  -1.556761e-01  0 
 5.452546e-02  -1.580279e-01  0 
VECTORS displacement_ITER10 FLOAT
 0  0  0 
 3.687705e-03  -2.374640e-02  0 
 0  0  0 
 8.593781e-03  -2.339430e-02  0 
 0  0  0 
 1.752308e-02  -2.301681e-02  0 
 5.704560e-03  -5.436888e-02  0 
 1.939593e-02  -5.471396e-02  0 
 3.369067e-02  -5.617719e-02  0 
 9.624101e-03  -9.131928e-02  0 
 2.756028e-02  -9.280349e-02  0 
 1.114502e-02  -1.328049e-01  0 
 3.716598e-02  -1.346377e-01  0 
 5.098634e-03  -1.074120e-02  0 
 0  0  0 
 2.704251e-04  -2.129256e-02  0 
 7.140578e-04  -1.015660e-02  0 
 0  0  0 
 7.901414e-03  -2.618330e-02  0 
 1.120435e-02  -1.027232e-02  0 
 0  0  0 
 9.129427e-03  -2.090151e-02  0 
 1.826777e-03  -3.843098e-02  0 
 1.283004e-04  -5.720193e-02  0 
 1.686725e-02  -3.780836e-02  0 
 1.056572e-02  -5.176878e-02  0 
 2.300725e-02  -3.955208e-02  0 
 2.997550e-02  -5.792033e-02  0 
 1.046435e-02  -7.208135e-02  0 
 8.596845e-05  -8.846548e-02  0 
 2.091489e-02  -7.407794e-02  0 
 2.012683e-02  -9.454960e-02  0 
 3.522998e-02  -9.162807e-02  0 
 7.872772e-03  -1.121196e-01  0 
 -8.902434e-05  -1.349805e-01  0 
 3.492700e-02  -1.123635e-01  0 
 2.235236e-02  -1.311049e-01  0 
 5.310907e-02  -1.388285e-01  0 
 1.514228e-02  -1.540123e-01  0 
 3.821400e-02  -1.578596e-01  0 
 4.594806e-05  -1.062162e-02  0 
 3.426508e-03  -1.128831e-02  0 
 5.752658e-03  -1.005194e-02  0 
 6.556148e-05  -3.872667e-02  0 
 9.225983e-03  -3.781993e-02  0 
 1.951891e-02  -3.889855e-02  0 
 9.306831e-05  -7.174564e-02  0 
 1.537350e-02  -7.313318e-02  0 
 3.270435e-02  -7.354113e-02  0 
 -7.962791e-05  -1.122112e-01  0 
 2.128712e-02  -1.118440e-01  0 
 4.476337e-02  -1.159104e-01  0 
 -8.407404e-05  -1.537432e-01  0 
 2.609030e-02  -1.557590e-01  0 
 5.487790e-02  -1.581213e-01  0 
VECTORS displacement_ITER11 FLOAT
 0  0  0 
 3.647433e-03  -2.381567e-02  0 
 0  0  0 
 8.594396e-03  -2.345431e-02  0 
 0  0  0 
 1.760849e-02  -2.306315e-02  0 
 5.655907e-03  -5.454031e-02  0 
 1.936934e-02  -5.484300e-02  0 
 3.353201e-02  -5.609666e-02  0 
 9.612073e-03  -9.156242e-02  0 
 2.747834e-02  -9.301415e-02  0 
 1.120484e-02  -1.328888e-01  0 
 3.704443e-02  -1.347087e-01  0 
 5.070674e-03  -1.074849e-02  0 
 0  0  0 
 1.347494e-04  -2.135981e-02  0 
 7.103571e-04  -1.017458e-02  0 
 0  0  0 
 7.880652e-03  -2.625312e-02  0 
 1.125378e-02  -1.028881e-02  0 
 0  0  0 
 9.153933e-03  -2.095366e-02  0 
 1.769069e-03  -3.854875e-02  0 
 1.554890e-05  -5.738281e-02  0 
 1.686797e-02  -3.791218e-02  0 
 1.053785e-02  -5.191812e-02  0 
 2.303252e-02  -3.962533e-02  0 
 2.997563e-02  -5.801027e-02  0 
 1.042840e-02  -7.231636e-02  0 
 5.577890e-05  -8.873076e-02  0 
 2.085714e-02  -7.424123e-02  0 
 2.008318e-02  -9.477340e-02  0 
 3.520479e-02  -9.184847e-02  0 
 7.902995e-03  -1.122991e-01  0 
 1.784562e-04  -1.350827e-01  0 
 3.482489e-02  -1.125338e-01  0 
 2.231522e-02  -1.311890e-01  0 
 5.284685e-02  -1.388733e-01  0 
 1.521226e-02  -1.539349e-01  0 
 3.809102e-02  -1.577932e-01  0 
 1.431487e-07  -1.063990e-02  0 
 3.416741e-03  -1.130890e-02  0 
 5.772293e-03  -1.006554e-02  0 
 -1.660166e-05  -3.887813e-02  0 
 9.202623e-03  -3.793098e-02  0 
 1.953436e-02  -3.898404e-02  0 
 2.275218e-05  -7.198730e-02  0 
 1.533207e-02  -7.333570e-02  0 
 3.266840e-02  -7.369237e-02  0 
 6.368667e-05  -1.123615e-01  0 
 2.124584e-02  -1.120174e-01  0 
 4.457308e-02  -1.160697e-01  0 
 2.085798e-04  -1.535935e-01  0 
 2.605843e-02  -1.557504e-01  0 
 5.459944e-02  -1.580193e-01  0 
VECTORS displacement_ITER12 FLOAT
 0  0  0 
 3.612355e-03  -2.378402e-02  0 
 0  0  0 
 8.565613e-03  -2.343647e-02  0 
 0  0  0 
 1.757466e-02  -2.305200e-02  0 
 5.593529e-03  -5.452213e-02  0 
 1.931011e-02  -5.479586e-02  0 
 3.332805e-02  -5.595618e-02  0 
 9.508481e-03  -9.153513e-02  0 
 2.740043e-02  -9.297284e-02  0 
 1.107404e-02  -1.328856e-01  0 
 3.698578e-02  -1.347021e-01  0 
 5.038233e-03  -1.071721e-02  0 
 0  0  0 
 6.487603e-05  -2.131515e-02  0 
 6.975311e-04  -1.016824e-02  0 
 0  0  0 
 7.845285e-03  -2.622779e-02  0 
 1.123377e-02  -1.027691e-02  0 
 0  0  0 
 9.125608e-03  -2.094104e-02  0 
 1.722834e-03  -3.852209e-02  0 
 -7.310679e-05  -5.737373e-02  0 
 1.682439e-02  -3.788351e-02  0 
 1.049015e-02  -5.188752e-02  0 
 2.291011e-02  -3.957531e-02  0 
 2.990179e-02  -5.793957e-02  0 
 1.034108e-02  -7.230559e-02  0 
 -4.362140e-05  -8.871681e-02  0 
 2.078472e-02  -7.418148e-02  0 
 1.998944e-02  -9.473400e-02  0 
 3.516686e-02  -9.181914e-02  0 
 7.788018e-03  -1.122698e-01  0 
 -1.648143e-05  -1.350875e-01  0 
 3.475600e-02  -1.125106e-01  0 
 2.222642e-02  -1.311874e-01  0 
 5.280733e-02  -1.388616e-01  0 
 1.506969e-02  -1.540064e-01  0 
 3.803926e-02  -1.578045e-01  0 
 -1.163908e-05  -1.061012e-02  0 
 3.397811e-03  -1.129334e-02  0 
 5.756381e-03  -1.005824e-02  0 
 -6.417722e-05  -3.886199e-02  0 
 9.162995e-03  -3.790311e-02  0 
 1.947537e-02  -3.895242e-02  0 
 -6.405109e-05  -7.198894e-02  0 
 1.525610e-02  -7.329887e-02  0 
 3.259411e-02  -7.363066e-02  0 
 -6.585958e-05  -1.123105e-01  0 
 2.115258e-02  -1.119900e-01  0 
 4.451502e-02  -1.160475e-01  0 
 -5.890597e-06  -1.536469e-01  0 
 2.597300e-02  -1.558031e-01  0 
 5.456339e-02  -1.580157e-01  0 
VECTORS displacement_ITER13 FLOAT
 0  0  0 
 3.629031e-03  -2.373765e-02  0 
 0  0  0 
 8.574810e-03  -2.341172e-02  0 
 0  0  0 
 1.755803e-02  -2.305108e-02  0 
 5.639478e-03  -5.444687e-02  0 
 1.934601e-02  -5.474149e-02  0 
 3.337759e-02  -5.600724e-02  0 
 9.562276e-03  -9.142982e-02  0 
 2.747859e-02  -9.289315e-02  0 
 1.111609e-02  -1.328463e-01  0 
 3.711583e-02  -1.346620e-01  0 
 5.028041e-03  -1.067952e-02  0 
 0  0  0 
 4.486298e-05  -2.125061e-02  0 
 7.014091e-04  -1.016177e-02  0 
 0  0  0 
 7.867068e-03  -2.619174e-02  0 
 1.122214e-02  -1.027092e-02  0 
 0  0  0 
 9.120845e-03  -2.092621e-02  0 
 1.756843e-03  -3.847198e-02  0 
 -3.083134e-06  -5.728334e-02  0 
 1.684222e-02  -3.783820e-02  0 
 1.052142e-02  -5.182471e-02  0 
 2.289592e-02  -3.954471e-02  0 
 2.992702e-02  -5.789671e-02  0 
 1.039292e-02  -7.220306e-02  0 
 6.011911e-06  -8.860524e-02  0 
 2.084345e-02  -7.411100e-02  0 
 2.006401e-02  -9.463918e-02  0 
 3.526283e-02  -9.176313e-02  0 
 7.837641e-03  -1.121890e-01  0 
 -5.073254e-05  -1.350555e-01  0 
 3.486365e-02  -1.124398e-01  0 
 2.231296e-02  -1.311487e-01  0 
 5.298907e-02  -1.388255e-01  0 
 1.510787e-02  -1.540579e-01  0 
 3.817763e-02  -1.578096e-01  0 
 6.195135e-06  -1.056612e-02  0 
 3.402453e-03  -1.127471e-02  0 
 5.751458e-03  -1.005462e-02  0 
 -9.034126e-06  -3.880538e-02  0 
 9.189733e-03  -3.785424e-02  0 
 1.948024e-02  -3.892654e-02  0 
 2.025162e-06  -7.188703e-02  0 
 1.530904e-02  -7.321340e-02  0 
 3.263550e-02  -7.356508e-02  0 
 -4.131728e-05  -1.121998e-01  0 
 2.123356e-02  -1.119131e-01  0 
 4.464255e-02  -1.159887e-01  0 
 -5.501578e-05  -1.536875e-01  0 
 2.607105e-02  -1.558344e-01  0 
 5.475303e-02  -1.580124e-01  0 
VECTORS displacement_ITER14 FLOAT
 0  0  0 
 3.619896e-03  -2.377634e-02  0 
 0  0  0 
 8.574821e-03  -2.344095e-02  0 
 0  0  0 
 1.756888e-02  -2.307858e-02  0 
 5.633993e-03  -5.450869e-02  0 
 1.934363e-02  -5.480295e-02  0 
 3.349109e-02  -5.616660e-02  0 
 9.571392e-03  -9.149817e-02  0 
 2.745644e-02  -9.295969e-02  0 
 1.114518e-02  -1.328532e-01  0 
 3.706777e-02  -1.346738e-01  0 
 5.022919e-03  -1.069057e-02  0 
 0  0  0 
 7.482676e-07  -2.129119e-02  0 
 6.988767e-04  -1.017297e-02  0 
 0  0  0 
 7.862164e-03  -2.622822e-02  0 
 1.123226e-02  -1.028206e-02  0 
 0  0  0 
 9.127426e-03  -2.094853e-02  0 
 1.744392e-03  -3.852442e-02  0 
 -5.108753e-06  -5.734399e-02  0 
 1.684288e-02  -3.788625e-02  0 
 1.051559e-02  -5.188407e-02  0 
 2.293251e-02  -3.957067e-02  0 
 2.992166e-02  -5.796767e-02  0 
 1.039553e-02  -7.227038e-02  0 
 1.475569e-05  -8.867337e-02  0 
 2.083604e-02  -7.417395e-02  0 
 2.005598e-02  -9.470770e-02  0 
 3.526094e-02  -9.183066e-02  0 
 7.858215e-03  -1.122349e-01  0 
 4.132864e-05  -1.350654e-01  0 
 3.482774e-02  -1.124889e-01  0 
 2.230476e-02  -1.311594e-01  0 
 5.286970e-02  -1.388404e-01  0 
 1.513978e-02  -1.540051e-01  0 
 3.812005e-02  -1.577567e-01  0 
 -1.369712e-05  -1.058200e-02  0 
 3.400968e-03  -1.128859e-02  0 
 5.754712e-03  -1.006610e-02  0 
 -2.061054e-05  -3.887034e-02  0 
 9.183860e-03  -3.790365e-02  0 
 1.948693e-02  -3.896929e-02  0 
 3.431940e-06  -7.195584e-02  0 
 1.530366e-02  -7.328189e-02  0 
 3.262294e-02  -7.362340e-02  0 
 1.908283e-05  -1.122327e-01  0 
 2.122481e-02  -1.119602e-01  0 
 4.457522e-02  -1.160358e-01  0 
 4.309341e-05  -1.536213e-01  0 
 2.606612e-02  -1.557987e-01  0 
 5.462465e-02  -1.579474e-01  0 
VECTORS displacement_ITER15 FLOAT
 0  0  0 
 3.625595e-03  -2.375643e-02  0 
 0  0  0 
 8.575051e-03  -2.342026e-02  0 
 0  0  0 
 1.754405e-02  -2.305892e-02  0 
 5.635517e-03  -5.447443e-02  0 
 1.934446e-02  -5.475656e-02  0 
 3.341699e-02  -5.605480e-02  0 
 9.557367e-03  -9.147438e-02  0 
 2.746226e-02  -9.293004e-02  0 
 1.111960e-02  -1.328592e-01  0 
 3.707831e-02  -1.346861e-01  0 
 5.023019e-03  -1.068170e-02  0 
 0  0  0 
 4.227013e-06  -2.127466e-02  0 
 7.004023e-04  -1.016576e-02  0 
 0  0  0 
 7.865570e-03  -2.620549e-02  0 
 1.121851e-02  -1.027266e-02  0 
 0  0  0 
 9.119248e-03  -2.092965e-02  0 
 1.750162e-03  -3.849501e-02  0 
 -7.668207e-06  -5.730777e-02  0 
 1.684215e-02  -3.785306e-02  0 
 1.051833e-02  -5.184684e-02  0 
 2.288612e-02  -3.951844e-02  0 
 2.992524e-02  -5.790723e-02  0 
 1.039044e-02  -7.223966e-02  0 
 -4.187631e-06  -8.865273e-02  0 
 2.083913e-02  -7.412631e-02  0 
 2.004923e-02  -9.468104e-02  0 
 3.528957e-02  -9.179982e-02  0 
 7.836744e-03  -1.122235e-01  0 
 -1.329273e-06  -1.350747e-01  0 
 3.483725e-02  -1.124783e-01  0 
 2.229658e-02  -1.311676e-01  0 
 5.290617e-02  -1.388588e-01  0 
 1.511249e-02  -1.540305e-01  0 
 3.812786e-02  -1.578009e-01  0 
 -2.262245e-06  -1.057305e-02  0 
 3.402542e-03  -1.127970e-02  0 
 5.749240e-03  -1.005954e-02  0 
 -7.393207e-06  -3.884823e-02  0 
 9.187618e-03  -3.787248e-02  0 
 1.947837e-02  -3.892897e-02  0 
 -7.065811e-06  -7.192905e-02  0 
 1.530135e-02  -7.324413e-02  0 
 3.263639e-02  -7.357680e-02  0 
 -1.050213e-05  -1.122169e-01  0 
 2.121701e-02  -1.119487e-01  0 
 4.460282e-02  -1.160246e-01  0 
 -1.195179e-06  -1.536420e-01  0 
 2.605912e-02  -1.558338e-01  0 
 5.466513e-02  -1.579925e-01  0 
VECTORS displacement_ITER16 FLOAT
 0  0  0 
 3.628090e-03  -2.376459e-02  0 
 0  0  0 
 8.575260e-03  -2.342516e-02  0 
 0  0  0 
 1.754189e-02  -2.306388e-02  0 
 5.640184e-03  -5.448008e-02  0 
 1.934528e-02  -5.476126e-02  0 
 3.341129e-02  -5.605642e-02  0 
 9.562668e-03  -9.147495e-02  0 
 2.746373e-02  -9.293044e-02  0 
 1.112307e-02  -1.328543e-01  0 
 3.707994e-02  -1.346841e-01  0 
 5.024668e-03  -1.068541e-02  0 
 0  0  0 
 -2.727165e-07  -2.128522e-02  0 
 6.998080e-04  -1.016837e-02  0 
 0  0  0 
 7.867180e-03  -2.621197e-02  0 
 1.121926e-02  -1.027507e-02  0 
 0  0  0 
 9.119012e-03  -2.093357e-02  0 
 1.752930e-03  -3.850248e-02  0 
 2.264167e-06  -5.731238e-02  0 
 1.684288e-02  -3.785863e-02  0 
 1.052021e-02  -5.185193e-02  0 
 2.288340e-02  -3.952107e-02  0 
 2.992484e-02  -5.791141e-02  0 
 1.039643e-02  -7.224239e-02  0 
 3.174100e-06  -8.865454e-02  0 
 2.084105e-02  -7.412828e-02  0 
 2.005201e-02  -9.468120e-02  0 
 3.529378e-02  -9.180099e-02  0 
 7.841086e-03  -1.122215e-01  0 
 5.201549e-06  -1.350695e-01  0 
 3.483879e-02  -1.124770e-01  0 
 2.229864e-02  -1.311646e-01  0 
 5.291048e-02  -1.388598e-01  0 
 1.511517e-02  -1.540227e-01  0 
 3.812694e-02  -1.578012e-01  0 
 -2.726527e-06  -1.057805e-02  0 
 3.403610e-03  -1.128318e-02  0 
 5.748952e-03  -1.006222e-02  0 
 -5.824794e-07  -3.886086e-02  0 
 9.189259e-03  -3.787875e-02  0 
 1.947763e-02  -3.893349e-02  0 
 2.271690e-06  -7.193277e-02  0 
 1.530415e-02  -7.324675e-02  0 
 3.263514e-02  -7.357967e-02  0 
 -5.240269e-07  -1.122113e-01  0 
 2.121941e-02  -1.119469e-01  0 
 4.460310e-02  -1.160226e-01  0 
 5.720194e-06  -1.536301e-01  0 
 2.606143e-02  -1.558322e-01  0 
 5.467043e-02  -1.579932e-01  0 
VECTORS displacement_ITER17 FLOAT
 0  0  0 
 3.628038e-03  -2.376519e-02  0 
 0  0  0 
 8.575785e-03  -2.342420e-02  0 
 0  0  0 
 1.754220e-02  -2.306118e-02  0 
 5.638898e-03  -5.448013e-02  0 
 1.934470e-02  -5.476168e-02  0 