# vtk DataFile Version 3.1
this is an vtk file created by FEMAC
ASCII
DATASET UNSTRUCTURED_GRID
POINTS 56 FLOAT
0.000000 0.000000 0.000000
1.000000 0.000000 0.000000
2.000000 0.000000 0.000000
0.000000 1.000000 0.000000
1.000000 1.000000 0.000000
0.000000 2.000000 0.000000
1.000000 2.000000 0.000000
0.000000 3.000000 0.000000
1.000000 3.000000 0.000000
0.000000 4.000000 0.000000
1.000000 4.000000 0.000000
2.000000 1.000000 0.000000
2.000000 2.000000 0.000000
2.000000 3.000000 0.000000
2.000000 4.000000 0.000000
0.500000 0.000000 0.000000
1.500000 0.000000 0.000000
2.500000 0.000000 0.000000
0.500000 1.000000 0.000000
0.000000 0.500000 0.000000
1.000000 0.500000 0.000000
0.500000 2.000000 0.000000
0.000000 1.500000 0.000000
1.000000 1.500000 0.000000
0.500000 3.000000 0.000000
0.000000 2.500000 0.000000
1.000000 2.500000 0.000000
0.500000 4.000000 0.000000
0.000000 3.500000 0.000000
1.000000 3.500000 0.000000
0.000000 4.500000 0.000000
1.000000 4.500000 0.000000
1.500000 1.000000 0.000000
2.000000 0.500000 0.000000
1.500000 2.000000 0.000000
2.000000 1.500000 0.000000
1.500000 3.000000 0.000000
2.000000 2.500000 0.000000
1.500000 4.000000 0.000000
2.000000 3.500000 0.000000
2.000000 4.500000 0.000000
2.500000 1.000000 0.000000
2.500000 2.000000 0.000000
0.500000 0.500000 0.000000
0.500000 1.500000 0.000000
0.500000 2.500000 0.000000
0.500000 3.500000 0.000000
0.500000 4.500000 0.000000
1.500000 0.500000 0.000000
1.500000 1.500000 0.000000
1.500000 2.500000 0.000000
1.500000 3.500000 0.000000
1.500000 4.500000 0.000000
2.500000 0.500000 0.000000
2.500000 1.500000 0.000000
2.500000 2.500000 0.000000
CELLS 41 205 
4 0 15 43 19
4 19 43 18  3
4 15  1 20 43
4 43 20  4 18
4 3 18 44 22
4 22 44 21  5
4 18  4 23 44
4 44 23  6 21
4 5 21 45 25
4 25 45 24  7
4 21  6 26 45
4 45 26  8 24
4 7 24 46 28
4 28 46 27  9
4 24  8 29 46
4 46 29 10 27
4 9 27 47 30
4 27 10 31 47
4 1 16 48 20
4 20 48 32  4
4 16  2 33 48
4 48 33 11 32
4 4 32 49 23
4 23 49 34  6
4 32 11 35 49
4 49 35 12 34
4 6 34 50 26
4 26 50 36  8
4 34 12 37 50
4 50 37 13 36
4 8 36 51 29
4 29 51 38 10
4 36 13 39 51
4 51 39 14 38
4 10 38 52 31
4 38 14 40 52
4 2 17 53 33
4 33 53 41 11
4 11 41 54 35
4 35 54 42 12
4 12 42 55 37
CELL_TYPES 41
9 9 9 9 9 9 9 9 9 9 9 9 9 9 9 9 9 9 9 9 9 9 9 9 9 9 9 9 9 9 9 9 9 9 9 9 9 9 9 9 9 
POINT_DATA 56
VECTORS displacement_ITER1 FLOAT
 0  0  0 
 -1.715405e-02  -1.338616e-02  0 
 -5.050216e-02  -3.480906e-02  0 
 0  0  0 
 -1.295688e-02  -1.138133e-02  0 
 0  0  0 
 -8.766608e-03  -1.155449e-02  0 
 0  0  0 
 -4.312672e-03  -1.166446e-02  0 
 0  0  0 
 -1.638133e-03  -1.181887e-02  0 
 -2.814554e-02  -2.991707e-02  0 
 -1.683226e-02  -2.805995e-02  0 
 -9.938010e-03  -2.716097e-02  0 
 -2.429460e-03  -2.728096e-02  0 
 -1.060022e-02  -6.802251e-03  0 
 -3.582205e-02  -2.527571e-02  0 
 -5.348396e-02  -4.460395e-02  0 
 -4.261476e-03  -4.959949e-03  0 
 0  0  0 
 -1.163446e-02  -1.110533e-02  0 
 -5.608691e-03  -5.142489e-03  0 
 0  0  0 
 -1.403454e-02  -1.251030e-02  0 
 -3.526188e-04  -5.070584e-03  0 
 0  0  0 
 -4.566154e-03  -1.046445e-02  0 
 -2.389093e-03  -5.268835e-03  0 
 0  0  0 
 -3.902135e-03  -1.302355e-02  0 
 1.784172e-19  5.495509e-19  0 
 1.826121e-04  -1.055627e-02  0 
 -2.185895e-02  -1.886531e-02  0 
 -4.066127e-02  -3.280314e-02  0 
 -1.145709e-02  -1.979807e-02  0 
 -1.867202e-02  -2.756632e-02  0 
 -8.531599e-03  -1.894353e-02  0 
 -1.485182e-02  -2.895035e-02  0 
 -6.758875e-04  -1.928907e-02  0 
 -5.280342e-03  -2.624963e-02  0 
 -1.799788e-04  -2.863478e-02  0 
 -3.396230e-02  -4.301508e-02  0 
 -2.285831e-02  -3.708122e-02  0 
 -6.641196e-03  -5.585106e-03  0 
 -5.998207e-03  -5.272799e-03  0 
 -2.870645e-03  -5.029364e-03  0 
 -1.668155e-03  -5.583910e-03  0 
 3.816686e-04  -5.214359e-03  0 
 -2.666710e-02  -2.040613e-02  0 
 -1.632622e-02  -1.912764e-02  0 
 -9.757976e-03  -1.946157e-02  0 
 -4.583079e-03  -1.887704e-02  0 
 6.137045e-04  -1.969082e-02  0 
 -4.368011e-02  -4.409693e-02  0 
 -2.684476e-02  -3.908979e-02  0 
 -1.639243e-02  -3.707259e-02  0 
VECTORS displacement_ITER2 FLOAT
 0  0  0 
 -1.714761e-02  -1.338491e-02  0 
 -5.029774e-02  -3.477562e-02  0 
 0  0  0 
 -1.295695e-02  -1.135647e-02  0 
 0  0  0 
 -8.775223e-03  -1.153230e-02  0 
 0  0  0 
 -4.304472e-03  -1.170543e-02  0 
 0  0  0 
 -1.819393e-03  -1.187578e-02  0 
 -2.825853e-02  -2.989593e-02  0 
 -1.673125e-02  -2.801138e-02  0 
 -9.731692e-03  -2.736576e-02  0 
 -2.763902e-03  -2.725276e-02  0 
 -1.059471e-02  -6.797508e-03  0 
 -3.577080e-02  -2.528973e-02  0 
 -5.318734e-02  -4.421829e-02  0 
 -4.260384e-03  -4.955236e-03  0 
 0  0  0 
 -1.162560e-02  -1.109939e-02  0 
 -5.612825e-03  -5.139255e-03  0 
 0  0  0 
 -1.404278e-02  -1.247247e-02  0 
 -3.561805e-04  -5.083153e-03  0 
 0  0  0 
 -4.568789e-03  -1.046575e-02  0 
 -2.541956e-03  -5.376601e-03  0 
 0  0  0 
 -3.944804e-03  -1.309515e-02  0 
 6.614298e-20  2.014547e-19  0 
 -1.558527e-04  -1.062382e-02  0 
 -2.188867e-02  -1.882254e-02  0 
 -4.067539e-02  -3.275908e-02  0 
 -1.145418e-02  -1.975568e-02  0 
 -1.869549e-02  -2.752379e-02  0 
 -8.461531e-03  -1.893692e-02  0 
 -1.497265e-02  -2.893628e-02  0 
 -8.661983e-04  -1.925059e-02  0 
 -5.287090e-03  -2.599808e-02  0 
 -3.573394e-05  -2.859839e-02  0 
 -3.409679e-02  -4.289144e-02  0 
 -2.260151e-02  -3.694922e-02  0 
 -6.635715e-03  -5.580405e-03  0 
 -6.001341e-03  -5.264115e-03  0 
 -2.878620e-03  -5.031719e-03  0 
 -1.708904e-03  -5.644259e-03  0 
 2.891241e-06  -5.327025e-03  0 
 -2.665858e-02  -2.042190e-02  0 
 -1.633313e-02  -1.906749e-02  0 
 -9.759902e-03  -1.946356e-02  0 
 -4.609791e-03  -1.893089e-02  0 
 7.533146e-05  -1.948994e-02  0 
 -4.369829e-02  -4.388433e-02  0 
 -2.714940e-02  -3.936406e-02  0 
 -1.632618e-02  -3.680557e-02  0 
VECTORS displacement_ITER3 FLOAT
 0  0  0 
 -1.715196e-02  -1.339064e-02  0 
 -5.028175e-02  -3.478253e-02  0 
 0  0  0 
 -1.296085e-02  -1.135961e-02  0 
 0  0  0 
 -8.769717e-03  -1.153195e-02  0 
 0  0  0 
 -4.284465e-03  -1.171300e-02  0 
 0  0  0 
 -1.813946e-03  -1.188476e-02  0 
 -2.828110e-02  -2.991452e-02  0 
 -1.670900e-02  -2.803487e-02  0 
 -9.659196e-03  -2.737867e-02  0 
 -2.816644e-03  -2.723836e-02  0 
 -1.059795e-02  -6.800102e-03  0 
 -3.576845e-02  -2.529785e-02  0 
 -5.315808e-02  -4.420421e-02  0 
 -4.260778e-03  -4.956907e-03  0 
 0  0  0 
 -1.162806e-02  -1.110445e-02  0 
 -5.609404e-03  -5.137593e-03  0 
 0  0  0 
 -1.404403e-02  -1.247315e-02  0 
 -3.488685e-04  -5.084315e-03  0 
 0  0  0 
 -4.558392e-03  -1.046674e-02  0 
 -2.518225e-03  -5.352538e-03  0 
 0  0  0 
 -3.930321e-03  -1.310727e-02  0 
 1.874407e-20  5.785193e-20  0 
 -3.454645e-05  -1.063882e-02  0 
 -2.190025e-02  -1.883191e-02  0 
 -4.067121e-02  -3.276312e-02  0 
 -1.144613e-02  -1.976315e-02  0 
 -1.870341e-02  -2.754465e-02  0 
 -8.415104e-03  -1.892834e-02  0 
 -1.497087e-02  -2.896275e-02  0 
 -8.771459e-04  -1.924790e-02  0 
 -5.258882e-03  -2.591712e-02  0 
 2.122562e-05  -2.866060e-02  0 
 -3.408619e-02  -4.287874e-02  0 
 -2.255493e-02  -3.698309e-02  0 
 -6.637144e-03  -5.582577e-03  0 
 -6.000816e-03  -5.263468e-03  0 
 -2.873685e-03  -5.030985e-03  0 
 -1.701283e-03  -5.644268e-03  0 
 4.082155e-06  -5.301791e-03  0 
 -2.666222e-02  -2.043438e-02  0 
 -1.633585e-02  -1.907368e-02  0 
 -9.737297e-03  -1.946648e-02  0 
 -4.590724e-03  -1.893877e-02  0 
 1.570878e-05  -1.944788e-02  0 
 -4.370840e-02  -4.386976e-02  0 
 -2.723539e-02  -3.951530e-02  0 
 -1.631831e-02  -3.679385e-02  0 
VECTORS displacement_ITER4 FLOAT
 0  0  0 
 -1.715253e-02  -1.339054e-02  0 
 -5.028645e-02  -3.478373e-02  0 
 0  0  0 
 -1.296227e-02  -1.135880e-02  0 
 0  0  0 
 -8.771173e-03  -1.153119e-02  0 
 0  0  0 
 -4.286791e-03  -1.171375e-02  0 
 0  0  0 
 -1.813949e-03  -1.188456e-02  0 
 -2.828598e-02  -2.991543e-02  0 
 -1.671100e-02  -2.803090e-02  0 
 -9.665623e-03  -2.738211e-02  0 
 -2.823813e-03  -2.724155e-02  0 
 -1.059821e-02  -6.800105e-03  0 
 -3.577011e-02  -2.529724e-02  0 
 -5.316101e-02  -4.421306e-02  0 
 -4.261385e-03  -4.956687e-03  0 
 0  0  0 
 -1.162885e-02  -1.110412e-02  0 
 -5.610177e-03  -5.137599e-03  0 
 0  0  0 
 -1.404556e-02  -1.247194e-02  0 
 -3.498782e-04  -5.084269e-03  0 
 0  0  0 
 -4.559898e-03  -1.046668e-02  0 
 -2.512284e-03  -5.343817e-03  0 
 0  0  0 
 -3.933072e-03  -1.310838e-02  0 
 5.732489e-21  1.800961e-20  0 
 -2.860902e-06  -1.064066e-02  0 
 -2.190312e-02  -1.883141e-02  0 
 -4.067143e-02  -3.276299e-02  0 
 -1.144779e-02  -1.976099e-02  0 
 -1.870775e-02  -2.754412e-02  0 
 -8.418242e-03  -1.892987e-02  0 
 -1.496458e-02  -2.895785e-02  0 
 -8.785860e-04  -1.925301e-02  0 
 -5.258416e-03  -2.592159e-02  0 
 -5.932744e-06  -2.866146e-02  0 
 -3.408351e-02  -4.287264e-02  0 
 -2.256100e-02  -3.698082e-02  0 
 -6.637519e-03  -5.582495e-03  0 
 -6.001554e-03  -5.263164e-03  0 
 -2.874718e-03  -5.031067e-03  0 
 -1.701705e-03  -5.642470e-03  0 
 4.264304e-06  -5.291064e-03  0 
 -2.666418e-02  -2.043421e-02  0 
 -1.633792e-02  -1.907217e-02  0 
 -9.738841e-03  -1.946639e-02  0 
 -4.593499e-03  -1.894161e-02  0 
 -1.086489e-06  -1.943833e-02  0 
 -4.371449e-02  -4.386988e-02  0 
 -2.726179e-02  -3.953204e-02  0 
 -1.631534e-02  -3.679001e-02  0 
VECTORS displacement_ITER5 FLOAT
 0  0  0 
 -1.715209e-02  -1.339019e-02  0 
 -5.028687e-02  -3.478310e-02  0 
 0  0  0 
 -1.296202e-02  -1.135872e-02  0 
 0  0  0 
 -8.771166e-03  -1.153111e-02  0 
 0  0  0 
 -4.287923e-03  -1.171209e-02  0 
 0  0  0 
 -1.813583e-03  -1.188149e-02  0 
 -2.828465e-02  -2.991490e-02  0 
 -1.671109e-02  -2.803066e-02  0 
 -9.672400e-03  -2.738197e-02  0 
 -2.819205e-03  -2.724053e-02  0 
 -1.059798e-02  -6.799988e-03  0 
 -3.576931e-02  -2.529617e-02  0 
 -5.316139e-02  -4.421565e-02  0 
 -4.261311e-03  -4.956620e-03  0 
 0  0  0 
 -1.162864e-02  -1.110388e-02  0 
 -5.610149e-03  -5.137501e-03  0 
 0  0  0 
 -1.404526e-02  -1.247193e-02  0 
 -3.502295e-04  -5.083754e-03  0 
 0  0  0 
 -4.560271e-03  -1.046619e-02  0 
 -2.511870e-03  -5.342125e-03  0 
 0  0  0 
 -3.933287e-03  -1.310544e-02  0 
 1.448145e-21  4.654714e-21  0 
 3.674355e-07  -1.064050e-02  0 
 -2.190251e-02  -1.883133e-02  0 
 -4.066959e-02  -3.276199e-02  0 
 -1.144763e-02  -1.976082e-02  0 
 -1.870735e-02  -2.754400e-02  0 
 -8.421553e-03  -1.892925e-02  0 
 -1.496374e-02  -2.895652e-02  0 
 -8.756604e-04  -1.925098e-02  0 
 -5.259623e-03  -2.592615e-02  0 
 1.107335e-06  -2.865381e-02  0 
 -3.407837e-02  -4.287187e-02  0 
 -2.256069e-02  -3.698054e-02  0 
 -6.637402e-03  -5.582414e-03  0 
 -6.001459e-03  -5.263139e-03  0 
 -2.874774e-03  -5.030830e-03  0 
 -1.701683e-03  -5.641119e-03  0 
 5.254336e-07  -5.288871e-03  0 
 -2.666348e-02  -2.043351e-02  0 
 -1.633758e-02  -1.907213e-02  0 
 -9.740120e-03  -1.946648e-02  0 
 -4.594218e-03  -1.893937e-02  0 
 1.156345e-06  -1.943218e-02  0 
 -4.371424e-02  -4.386992e-02  0 
 -2.726376e-02  -3.953506e-02  0 
 -1.631573e-02  -3.679060e-02  0 
VECTORS displacement_ITER6 FLOAT
 0  0  0 
 -1.715206e-02  -1.339016e-02  0 
 -5.028640e-02  -3.478337e-02  0 
 0  0  0 
 -1.296192e-02  -1.135859e-02  0 
 0  0  0 
 -8.771051e-03  -1.153098e-02  0 
 0  0  0 
 -4.287876e-03  -1.171226e-02  0 
 0  0  0 
 -1.814198e-03  -1.188224e-02  0 
 -2.828481e-02  -2.991478e-02  0 
 -1.671060e-02  -2.803050e-02  0 
 -9.672434e-03  -2.738137e-02  0 
 -2.819530e-03  -2.723991e-02  0 
 -1.059794e-02  -6.799943e-03  0 
 -3.576927e-02  -2.529630e-02  0 
 -5.316037e-02  -4.421500e-02  0 
 -4.261273e-03  -4.956575e-03  0 
 0  0  0 
 -1.162857e-02  -1.110383e-02  0 
 -5.610113e-03  -5.137496e-03  0 
 0  0  0 
 -1.404512e-02  -1.247174e-02  0 
 -3.502326e-04  -5.083837e-03  0 
 0  0  0 
 -4.560226e-03  -1.046621e-02  0 
 -2.512465e-03  -5.342797e-03  0 
 0  0  0 
 -3.933476e-03  -1.310585e-02  0 
 5.284726e-22  1.682523e-21  0 
 -2.788867e-08  -1.064227e-02  0 
 -2.190244e-02  -1.883115e-02  0 
 -4.066966e-02  -3.276211e-02  0 
 -1.144738e-02  -1.976059e-02  0 
 -1.870718e-02  -2.754380e-02  0 
 -8.421478e-03  -1.892932e-02  0 
 -1.496287e-02  -2.895631e-02  0 
 -8.761672e-04  -1.925125e-02  0 
 -5.259795e-03  -2.592613e-02  0 
 -5.217251e-08  -2.865533e-02  0 
 -3.407871e-02  -4.287176e-02  0 
 -2.255950e-02  -3.697999e-02  0 
 -6.637358e-03  -5.582367e-03  0 
 -6.001400e-03  -5.263086e-03  0 
 -2.874775e-03  -5.030858e-03  0 
 -1.701890e-03  -5.641475e-03  0 
 -4.096801e-09  -5.289516e-03  0 
 -2.666339e-02  -2.043358e-02  0 
 -1.633743e-02  -1.907189e-02  0 
 -9.739769e-03  -1.946640e-02  0 
 -4.594362e-03  -1.893938e-02  0 
 -4.953042e-08  -1.943217e-02  0 
 -4.371461e-02  -4.386958e-02  0 
 -2.726391e-02  -3.953489e-02  0 
 -1.631554e-02  -3.679021e-02  0 
VECTORS displacement_ITER7 FLOAT
 0  0  0 
 -1.715206e-02  -1.339018e-02  0 
 -5.028644e-02  -3.478329e-02  0 
 0  0  0 
 -1.296195e-02  -1.135866e-02  0 
 0  0  0 
 -8.771062e-03  -1.153102e-02  0 
 0  0  0 
 -4.287821e-03  -1.171215e-02  0 
 0  0  0 
 -1.814180e-03  -1.188207e-02  0 
 -2.828470e-02  -2.991481e-02  0 
 -1.671081e-02  -2.803066e-02  0 
 -9.672378e-03  -2.738110e-02  0 
 -2.819425e-03  -2.723956e-02  0 
 -1.059795e-02  -6.799964e-03  0 
 -3.576923e-02  -2.529627e-02  0 
 -5.316055e-02  -4.421507e-02  0 
 -4.261279e-03  -4.956598e-03  0 
 0  0  0 
 -1.162859e-02  -1.110386e-02  0 
 -5.610101e-03  -5.137479e-03  0 
 0  0  0 
 -1.404516e-02  -1.247182e-02  0 
 -3.502142e-04  -5.083803e-03  0 
 0  0  0 
 -4.560193e-03  -1.046617e-02  0 
 -2.512439e-03  -5.342701e-03  0 
 0  0  0 
 -3.933425e-03  -1.310569e-02  0 
 1.421232e-22  4.510898e-22  0 
 -2.053283e-08  -1.064216e-02  0 
 -2.190244e-02  -1.883123e-02  0 
 -4.066958e-02  -3.276206e-02  0 
 -1.144746e-02  -1.976069e-02  0 
 -1.870723e-02  -2.754386e-02  0 
 -8.421397e-03  -1.892914e-02  0 
 -1.496305e-02  -2.895655e-02  0 
 -8.761416e-04  -1.925102e-02  0 
 -5.259740e-03  -2.592587e-02  0 
 1.395853e-07  -2.865537e-02  0 
 -3.407851e-02  -4.287183e-02  0 
 -2.255958e-02  -3.698005e-02  0 
 -6.637370e-03  -5.582391e-03  0 
 -6.001410e-03  -5.263102e-03  0 
 -2.874747e-03  -5.030831e-03  0 
 -1.701860e-03  -5.641410e-03  0 
 -3.887367e-08  -5.289343e-03  0 
 -2.666338e-02  -2.043357e-02  0 
 -1.633749e-02  -1.907200e-02  0 
 -9.739779e-03  -1.946635e-02  0 
 -4.594305e-03  -1.893915e-02  0 
 -1.179482e-08  -1.943172e-02  0 
 -4.371441e-02  -4.386969e-02  0 
 -2.726417e-02  -3.953450e-02  0 
 -1.631603e-02  -3.679050e-02  0 
VECTORS displacement_ITER8 FLOAT
 0  0  0 
 -1.715207e-02  -1.339019e-02  0 
 -5.028644e-02  -3.478332e-02  0 
 0  0  0 
 -1.296194e-02  -1.135865e-02  0 
 0  0  0 
 -8.771058e-03  -1.153101e-02  0 
 0  0  0 
 -4.287826e-03  -1.171217e-02  0 
 0  0  0 
 -1.814180e-03  -1.188210e-02  0 
 -2.828474e-02  -2.991482e-02  0 
 -1.671077e-02  -2.803064e-02  0 
 -9.672391e-03  -2.738114e-02  0 
 -2.819399e-03  -2.723964e-02  0 
 -1.059795e-02  -6.799962e-03  0 
 -3.576926e-02  -2.529629e-02  0 
 -5.316052e-02  -4.421503e-02  0 
 -4.261279e-03  -4.956595e-03  0 
 0  0  0 
 -1.162859e-02  -1.110386e-02  0 
 -5.610102e-03  -5.137482e-03  0 
 0  0  0 
 -1.404515e-02  -1.247181e-02  0 
 -3.502160e-04  -5.083809e-03  0 
 0  0  0 
 -4.560196e-03  -1.046618e-02  0 
 -2.512437e-03  -5.342703e-03  0 
 0  0  0 
 -3.933432e-03  -1.310572e-02  0 
 3.873340e-23  1.213436e-22  0 
 8.786983e-09  -1.064220e-02  0 
 -2.190245e-02  -1.883122e-02  0 
 -4.066962e-02  -3.276209e-02  0 
 -1.144744e-02  -1.976067e-02  0 
 -1.870723e-02  -2.754385e-02  0 
 -8.421407e-03  -1.892918e-02  0 
 -1.496297e-02  -2.895652e-02  0 
 -8.761424e-04  -1.925107e-02  0 
 -5.259746e-03  -2.592592e-02  0 
 -1.804444e-08  -2.865548e-02  0 
 -3.407859e-02  -4.287186e-02  0 
 -2.255948e-02  -3.698004e-02  0 
 -6.637370e-03  -5.582388e-03  0 
 -6.001408e-03  -5.263098e-03  0 
 -2.874751e-03  -5.030835e-03  0 
 -1.701863e-03  -5.641419e-03  0 
 -3.713732e-09  -5.289331e-03  0 
 -2.666339e-02  -2.043359e-02  0 
 -1.633748e-02  -1.907199e-02  0 
 -9.739764e-03  -1.946636e-02  0 
 -4.594309e-03  -1.893919e-02  0 
 -1.367671e-08  -1.943177e-02  0 
 -4.371446e-02  -4.386969e-02  0 
 -2.726421e-02  -3.953447e-02  0 
 -1.631598e-02  -3.679048e-02  0 
VECTORS displacement_ITER9 FLOAT
 0  0  0 
 -1.715207e-02  -1.339018e-02  0 
 -5.028644e-02  -3.478332e-02  0 
 0  0  0 
 -1.296194e-02  -1.135865e-02  0 
 0  0  0 
 -8.771059e-03  -1.153101e-02  0 
 0  0  0 
 -4.287828e-03  -1.171217e-02  0 
 0  0  0 
 -1.814177e-03  -1.188209e-02  0 
 -2.828473e-02  -2.991482e-02  0 
 -1.671077e-02  -2.803065e-02  0 
 -9.672399e-03  -2.738115e-02  0 
 -2.819389e-03  -2.723965e-02  0 
 -1.059795e-02  -6.799962e-03  0 
 -3.576926e-02  -2.529629e-02  0 
 -5.316053e-02  -4.421504e-02  0 
 -4.261279e-03  -4.956596e-03  0 
 0  0  0 
 -1.162859e-02  -1.110386e-02  0 
 -5.610103e-03  -5.137482e-03  0 
 0  0  0 
 -1.404516e-02  -1.247181e-02  0 
 -3.502162e-04  -5.083809e-03  0 
 0  0  0 
 -4.560197e-03  -1.046618e-02  0 
 -2.512436e-03  -5.342703e-03  0 
 0  0  0 
 -3.933431e-03  -1.310572e-02  0 
 1.062308e-23  3.342233e-23  0 
 3.567167e-09  -1.064220e-02  0 
 -2.190245e-02  -1.883122e-02  0 
 -4.066962e-02  -3.276209e-02  0 
 -1.144745e-02  -1.976067e-02  0 
 -1.870723e-02  -2.754386e-02  0 
 -8.421411e-03  -1.892918e-02  0 
 -1.496296e-02  -2.895652e-02  0 
 -8.761378e-04  -1.925107e-02  0 
 -5.259751e-03  -2.592592e-02  0 
 -1.850381e-09  -2.865547e-02  0 
 -3.407857e-02  -4.287186e-02  0 
 -2.255948e-02  -3.698006e-02  0 
 -6.637370e-03  -5.582388e-03  0 
 -6.001409e-03  -5.263099e-03  0 
 -2.874751e-03  -5.030836e-03  0 
 -1.701863e-03  -5.641418e-03  0 
 -1.057969e-09  -5.289330e-03  0 
 -2.666339e-02  -2.043358e-02  0 
 -1.633748e-02  -1.907199e-02  0 
 -9.739766e-03  -1.946636e-02  0 
 -4.594311e-03  -1.893919e-02  0 
 -4.671071e-10  -1.943177e-02  0 
 -4.371445e-02  -4.386970e-02  0 
 -2.726422e-02  -3.953446e-02  0 
 -1.631599e-02  -3.679049e-02  0 
VECTORS displacement_ITER10 FLOAT
 0  0  0 
 -1.715207e-02  -1.339018e-02  0 
 -5.028644e-02  -3.478332e-02  0 
 0  0  0 
 -1.296194e-02  -1.135865e-02  0 
 0  0  0 
 -8.771059e-03  -1.153101e-02  0 
 0  0  0 
 -4.287828e-03  -1.171217e-02  0 
 0  0  0 
 -1.814177e-03  -1.188209e-02  0 
 -2.828473e-02  -2.991482e-02  0 
 -1.671078e-02  -2.803064e-02  0 
 -9.672397e-03  -2.738115e-02  0 
 -2.819392e-03  -2.723965e-02  0 
 -1.059795e-02  -6.799962e-03  0 
 -3.576926e-02  -2.529629e-02  0 
 -5.316053e-02  -4.421504e-02  0 
 -4.261279e-03  -4.956595e-03  0 
 0  0  0 
 -1.162859e-02  -1.110386e-02  0 
 -5.610103e-03  -5.137482e-03  0 
 0  0  0 
 -1.404516e-02  -1.247181e-02  0 
 -3.502162e-04  -5.083809e-03  0 
 0  0  0 
 -4.560197e-03  -1.046618e-02  0 
 -2.512437e-03  -5.342704e-03  0 
 0  0  0 
 -3.933431e-03  -1.310572e-02  0 
 2.171182e-24  6.884770e-24  0 
 1.084573e-10  -1.064220e-02  0 
 -2.190245e-02  -1.883122e-02  0 
 -4.066962e-02  -3.276208e-02  0 
 -1.144745e-02  -1.976067e-02  0 
 -1.870723e-02  -2.754385e-02  0 
 -8.421410e-03  -1.892918e-02  0 
 -1.496296e-02  -2.895651e-02  0 
 -8.761386e-04  -1.925107e-02  0 
 -5.259751e-03  -2.592592e-02  0 
 -3.454868e-10  -2.865547e-02  0 
 -3.407857e-02  -4.287186e-02  0 
 -2.255949e-02  -3.698006e-02  0 
 -6.637370e-03  -5.582388e-03  0 
 -6.001409e-03  -5.263099e-03  0 
 -2.874751e-03  -5.030836e-03  0 
 -1.701863e-03  -5.641418e-03  0 
 -3.272513e-10  -5.289331e-03  0 
 -2.666339e-02  -2.043358e-02  0 
 -1.633748e-02  -1.907199e-02  0 
 -9.739765e-03  -1.946636e-02  0 
 -4.594311e-03  -1.893919e-02  0 
 -3.958048e-10  -1.943176e-02  0 
 -4.371445e-02  -4.386970e-02  0 
 -2.726422e-02  -3.953446e-02  0 
 -1.631599e-02  -3.679049e-02  0 
VECTORS displacement_ITER11 FLOAT
 0  0  0 
 -1.715207e-02  -1.339018e-02  0 
 -5.028644e-02  -3.478332e-02  0 
 0  0  0 
 -1.296194e-02  -1.135865e-02  0 
 0  0  0 
 -8.771059e-03  -1.153101e-02  0 
 0  0  0 
 -4.287828e-03  -1.171217e-02  0 
 0  0  0 
 -1.814177e-03  -1.188209e-02  0 
 -2.828473e-02  -2.991482e-02  0 
 -1.671077e-02  -2.803064e-02  0 
 -9.672397e-03  -2.738115e-02  0 
 -2.819392e-03  -2.723965e-02  0 
 -1.059795e-02  -6.799962e-03  0 
 -3.576926e-02  -2.529629e-02  0 
 -5.316053e-02  -4.421504e-02  0 
 -4.261279e-03  -4.956595e-03  0 
 0  0  0 
 -1.162859e-02  -1.110386e-02  0 
 -5.610103e-03  -5.137482e-03  0 
 0  0  0 
 -1.404515e-02  -1.247181e-02  0 
 -3.502162e-04  -5.083809e-03  0 
 0  0  0 
 -4.560197e-03  -1.046618e-02  0 
 -2.512437e-03  -5.342704e-03  0 
 0  0  0 
 -3.933431e-03  -1.310572e-02  0 
 5.651294e-25  1.786707e-24  0 
 3.589382e-11  -1.064220e-02  0 
 -2.190245e-02  -1.883122e-02  0 
 -4.066962e-02  -3.276208e-02  0 
 -1.144745e-02  -1.976067e-02  0 
 -1.870723e-02  -2.754385e-02  0 
 -8.421410e-03  -1.892918e-02  0 
 -1.496296e-02  -2.895651e-02  0 
 -8.761385e-04  -1.925107e-02  0 
 -5.259751e-03  -2.592592e-02  0 
 4.075853e-11  -2.865547e-02  0 
 -3.407857e-02  -4.287186e-02  0 
 -2.255948e-02  -3.698006e-02  0 
 -6.637370e-03  -5.582388e-03  0 
 -6.001409e-03  -5.263099e-03  0 
 -2.874751e-03  -5.030836e-03  0 
 -1.701863e-03  -5.641418e-03  0 
 -3.033630e-11  -5.289332e-03  0 
 -2.666339e-02  -2.043358e-02  0 
 -1.633748e-02  -1.907199e-02  0 
 -9.739765e-03  -1.946636e-02  0 
 -4.594311e-03  -1.893919e-02  0 
 -8.738197e-12  -1.943176e-02  0 
 -4.371445e-02  -4.386970e-02  0 
 -2.726422e-02  -3.953446e-02  0 
 -1.631599e-02  -3.679049e-02  0 
CELL_DATA 41
TENSORS element_stresses FLOAT
 -3.707704e+00  -1.295656e+00  0 
 -1.295656e+00  -8.687963e-01  0 
 0  0  0 

 -2.354046e+00  -1.255830e+00  0 
 -1.255830e+00  -5.810554e-01  0 
 0  0  0 

 -2.306409e+00  -4.042515e-01  0 
 -4.042515e-01  8.856296e-03  0 
 0  0  0 

 -2.984743e+00  -1.673968e+00  0 
 -1.673968e+00  -8.212219e-01  0 
 0  0  0 

 -5.689362e-01  -4.599932e-01  0 
 -4.599932e-01  -1.860060e-01  0 
 0  0  0 

 -6.359245e-01  -3.849721e-01  0 
 -3.849721e-01  -1.844965e-01  0 
 0  0  0 

 -9.434237e-01  -6.320810e-01  0 
 -6.320810e-01  -3.540104e-01  0 
 0  0  0 

 -5.980647e-01  -3.052630e-01  0 
 -3.052630e-01  -1.260986e-01  0 
 0  0  0 

 -1.857771e+00  -1.143533e+00  0 
 -1.143533e+00  -5.360020e-01  0 
 0  0  0 

 -7.122768e-01  -1.167709e+00  0 
 -1.167709e+00  -2.242778e-01  0 
 0  0  0 

 -9.879030e-01  -7.511780e-01  0 
 -7.511780e-01  -6.207501e-02  0 
 0  0  0 

 -1.321483e+00  -1.425662e+00  0 
 -1.425662e+00  -6.562383e-01  0 
 0  0  0 

 -1.219430e-01  -4.644952e-01  0 
 -4.644952e-01  -6.446333e-02  0 
 0  0  0 

 -2.266311e-01  -4.536422e-01  0 
 -4.536422e-01  -5.305362e-02  0 
 0  0  0 

 -3.711279e-01  -5.803814e-01  0 
 -5.803814e-01  -2.088963e-01  0 
 0  0  0 

 -5.915417e-02  -4.882697e-01  0 
 -4.882697e-01  5.837082e-02  0 
 0  0  0 

 -5.486649e-01  -1.249169e+00  0 
 -1.249169e+00  -1.539250e-01  0 
 0  0  0 

 2.387342e-01  -1.163945e+00  0 
 -1.163945e+00  3.302737e-01  0 
 0  0  0 

 -1.731169e+00  -2.540953e-01  0 
 -2.540953e-01  -1.618995e-01  0 
 0  0  0 

 -1.295112e+00  -5.144119e-01  0 
 -5.144119e-01  -3.211546e-01  0 
 0  0  0 

 -1.453749e+00  -1.189555e-01  0 
 -1.189555e-01  -9.192792e-02  0 
 0  0  0 

 -1.046902e+00  -2.410104e-01  0 
 -2.410104e-01  -9.158916e-02  0 
 0  0  0 

 -2.558025e+00  -1.475537e+00  0 
 -1.475537e+00  -1.038194e+00  0 
 0  0  0 

 -1.075402e+00  -7.178007e-01  0 
 -7.178007e-01  -2.721970e-01  0 
 0  0  0 

 -1.783071e+00  -6.789230e-01  0 
 -6.789230e-01  -1.088824e-01  0 
 0  0  0 

 -1.755103e+00  -1.516207e+00  0 
 -1.516207e+00  -7.616250e-01  0 
 0  0  0 

 -4.092425e-01  -4.350500e-01  0 
 -4.350500e-01  -5.481560e-02  0 
 0  0  0 

 -5.233953e-01  -5.625564e-01  0 
 -5.625564e-01  -1.924592e-01  0 
 0  0  0 

 -5.865929e-01  -5.501781e-01  0 
 -5.501781e-01  -2.075559e-01  0 
 0  0  0 

 -3.209020e-01  -4.358926e-01  0 
 -4.358926e-01  9.356695e-03  0 
 0  0  0 

 -1.146271e+00  -1.364459e+00  0 
 -1.364459e+00  -6.245940e-01  0 
 0  0  0 

 1.210295e-01  -1.133080e+00  0 
 -1.133080e+00  2.186592e-01  0 
 0  0  0 

 -3.259041e-01  -1.107531e+00  0 
 -1.107531e+00  1.912710e-01  0 
 0  0  0 

 -6.805216e-01  -1.356427e+00  0 
 -1.356427e+00  -5.292765e-01  0 
 0  0  0 

 6.899993e-02  -5.180086e-01  0 
 -5.180086e-01  7.366007e-02  0 
 0  0  0 

 -1.330882e-01  -5.198750e-01  0 
 -5.198750e-01  -1.197519e-01  0 
 0  0  0 

 -1.144823e+00  -2.271441e-01  0 
 -2.271441e-01  1.298678e-01  0 
 0  0  0 

 -1.689042e+00  -3.144448e-01  0 
 -3.144448e-01  2.623079e-01  0 
 0  0  0 

 -6.944129e-01  -3.290690e-01  0 
 -3.290690e-01  7.709457e-02  0 
 0  0  0 

 -7.574403e-01  -5.476473e-01  0 
 -5.476473e-01  -1.238516e-01  0 
 0  0  0 

 -1.631348e+00  -1.352628e+00  0 
 -1.352628e+00  -6.366649e-01  0 
 0  0  0 

TENSORS element_stresses FLOAT
 -3.707704e+00  -1.295656e+00  0 
 -1.295656e+00  -8.687963e-01  0 
 0  0  0 

 -2.354046e+00  -1.255830e+00  0 
 -1.255830e+00  -5.810554e-01  0 
 0  0  0 

 -2.306409e+00  -4.042515e-01  0 
 -4.042515e-01  8.856296e-03  0 
 0  0  0 

 -2.984743e+00  -1.673968e+00  0 
 -1.673968e+00  -8.212219e-01  0 
 0  0  0 

 -5.689362e-01  -4.599932e-01  0 
 -4.599932e-01  -1.860060e-01  0 
 0  0  0 

 -6.359245e-01  -3.849721e-01  0 
 -3.849721e-01  -1.844965e-01  0 
 0  0  0 

 -9.434237e-01  -6.320810e-01  0 
 -6.320810e-01  -3.540104e-01  0 
 0  0  0 

 -5.980647e-01  -3.052630e-01  0 
 -3.052630e-01  -1.260986e-01  0 
 0  0  0 

 -1.857771e+00  -1.143533e+00  0 
 -1.143533e+00  -5.360020e-01  0 
 0  0  0 

 -7.122768e-01  -1.167709e+00  0 
 -1.167709e+00  -2.242778e-01  0 
 0  0  0 

 -9.879030e-01  -7.511780e-01  0 
 -7.511780e-01  -6.207501e-02  0 
 0  0  0 

 -1.321483e+00  -1.425662e+00  0 
 -1.425662e+00  -6.562383e-01  0 
 0  0  0 

 -1.219430e-01  -4.644952e-01  0 
 -4.644952e-01  -6.446333e-02  0 
 0  0  0 

 -2.266311e-01  -4.536422e-01  0 
 -4.536422e-01  -5.305362e-02  0 
 0  0  0 

 -3.711279e-01  -5.803814e-01  0 
 -5.803814e-01  -2.088963e-01  0 
 0  0  0 

 -5.915417e-02  -4.882697e-01  0 
 -4.882697e-01  5.837082e-02  0 
 0  0  0 

 -5.486649e-01  -1.249169e+00  0 
 -1.249169e+00  -1.539250e-01  0 
 0  0  0 

 2.387342e-01  -1.163945e+00  0 
 -1.163945e+00  3.302737e-01  0 
 0  0  0 

 -1.731169e+00  -2.540953e-01  0 
 -2.540953e-01  -1.618995e-01  0 
 0  0  0 

 -1.295112e+00  -5.144119e-01  0 
 -5.144119e-01  -3.211546e-01  0 
 0  0  0 

 -1.453749e+00  -1.189555e-01  0 
 -1.189555e-01  -9.192792e-02  0 
 0  0  0 

 -1.046902e+00  -2.410104e-01  0 
 -2.410104e-01  -9.158916e-02  0 
 0  0  0 

 -2.558025e+00  -1.475537e+00  0 
 -1.475537e+00  -1.038194e+00  0 
 0  0  0 

 -1.075402e+00  -7.178007e-01  0 
 -7.178007e-01  -2.721970e-01  0 
 0  0  0 

 -1.783071e+00  -6.789230e-01  0 
 -6.789230e-01  -1.088824e-01  0 
 0  0  0 

 -1.755103e+00  -1.516207e+00  0 
 -1.516207e+00  -7.616250e-01  0 
 0  0  0 

 -4.092425e-01  -4.350500e-01  0 
 -4.350500e-01  -5.481560e-02  0 
 0  0  0 

 -5.233953e-01  -5.625564e-01  0 
 -5.625564e-01  -1.924592e-01  0 
 0  0  0 

 -5.865929e-01  -5.501781e-01  0 
 -5.501781e-01  -2.075559e-01  0 
 0  0  0 

 -3.209020e-01  -4.358926e-01  0 
 -4.358926e-01  9.356695e-03  0 
 0  0  0 

 -1.146271e+00  -1.364459e+00  0 
 -1.364459e+00  -6.245940e-01  0 
 0  0  0 

 1.210295e-01  -1.133080e+00  0 
 -1.133080e+00  2.186592e-01  0 
 0  0  0 

 -3.259041e-01  -1.107531e+00  0 
 -1.107531e+00  1.912710e-01  0 
 0  0  0 

 -6.805216e-01  -1.356427e+00  0 
 -1.356427e+00  -5.292765e-01  0 
 0  0  0 

 6.899993e-02  -5.180086e-01  0 
 -5.180086e-01  7.366007e-02  0 
 0  0  0 

 -1.330882e-01  -5.198750e-01  0 
 -5.198750e-01  -1.197519e-01  0 
 0  0  0 

 -1.144823e+00  -2.271441e-01  0 
 -2.271441e-01  1.298678e-01  0 
 0  0  0 

 -1.689042e+00  -3.144448e-01  0 
 -3.144448e-01  2.623079e-01  0 
 0  0  0 

 -6.944129e-01  -3.290690e-01  0 
 -3.290690e-01  7.709457e-02  0 
 0  0  0 

 -7.574403e-01  -5.476473e-01  0 
 -5.476473e-01  -1.238516e-01  0 
 0  0  0 

 -1.631348e+00  -1.352628e+00  0 
 -1.352628e+00  -6.366649e-01  0 
 0  0  0 

