# vtk DataFile Version 3.1
this is an vtk file created by FEMAC
ASCII
DATASET UNSTRUCTURED_GRID
POINTS 56 FLOAT
0.000000 7.000000 0.000000
1.000000 7.000000 0.000000
0.000000 8.000000 0.000000
1.000000 8.000000 0.000000
0.000000 9.000000 0.000000
1.000000 9.000000 0.000000
2.000000 7.000000 0.000000
2.000000 8.000000 0.000000
2.000000 9.000000 0.000000
3.000000 7.000000 0.000000
3.000000 8.000000 0.000000
3.000000 9.000000 0.000000
4.000000 7.000000 0.000000
4.000000 8.000000 0.000000
4.000000 9.000000 0.000000
0.500000 7.000000 0.000000
0.500000 8.000000 0.000000
0.000000 7.500000 0.000000
1.000000 7.500000 0.000000
0.500000 9.000000 0.000000
0.000000 8.500000 0.000000
1.000000 8.500000 0.000000
1.500000 7.000000 0.000000
2.000000 6.500000 0.000000
1.500000 8.000000 0.000000
2.000000 7.500000 0.000000
1.500000 9.000000 0.000000
2.000000 8.500000 0.000000
2.500000 7.000000 0.000000
3.000000 6.500000 0.000000
2.500000 8.000000 0.000000
3.000000 7.500000 0.000000
2.500000 9.000000 0.000000
3.000000 8.500000 0.000000
3.500000 7.000000 0.000000
4.000000 6.500000 0.000000
3.500000 8.000000 0.000000
4.000000 7.500000 0.000000
3.500000 9.000000 0.000000
4.000000 8.500000 0.000000
4.500000 7.000000 0.000000
4.500000 8.000000 0.000000
4.500000 9.000000 0.000000
0.500000 7.500000 0.000000
0.500000 8.500000 0.000000
1.500000 7.500000 0.000000
1.500000 8.500000 0.000000
2.500000 6.500000 0.000000
2.500000 7.500000 0.000000
2.500000 8.500000 0.000000
3.500000 6.500000 0.000000
3.500000 7.500000 0.000000
3.500000 8.500000 0.000000
4.500000 6.500000 0.000000
4.500000 7.500000 0.000000
4.500000 8.500000 0.000000
CELLS 41 205 
4 0 15 43 17
4 17 43 16  2
4 15  1 18 43
4 43 18  3 16
4 2 16 44 20
4 20 44 19  4
4 16  3 21 44
4 44 21  5 19
4 1 22 45 18
4 18 45 24  3
4 22  6 25 45
4 45 25  7 24
4 3 24 46 21
4 21 46 26  5
4 24  7 27 46
4 46 27  8 26
4 23 47 28  6
4 47 29  9 28
4 6 28 48 25
4 25 48 30  7
4 28  9 31 48
4 48 31 10 30
4 7 30 49 27
4 27 49 32  8
4 30 10 33 49
4 49 33 11 32
4 29 50 34  9
4 50 35 12 34
4 9 34 51 31
4 31 51 36 10
4 34 12 37 51
4 51 37 13 36
4 10 36 52 33
4 33 52 38 11
4 36 13 39 52
4 52 39 14 38
4 35 53 40 12
4 12 40 54 37
4 37 54 41 13
4 13 41 55 39
4 39 55 42 14
CELL_TYPES 41
9 9 9 9 9 9 9 9 9 9 9 9 9 9 9 9 9 9 9 9 9 9 9 9 9 9 9 9 9 9 9 9 9 9 9 9 9 9 9 9 9 
POINT_DATA 56
VECTORS displacement_ITER1 FLOAT
 0  0  0 
 8.436928e-03  -3.397294e-03  0 
 0  0  0 
 9.967034e-03  -6.058362e-03  0 
 0  0  0 
 1.311203e-02  -8.403496e-03  0 
 2.398734e-02  -9.276984e-03  0 
 1.911490e-02  -1.001060e-02  0 
 1.930441e-02  -1.181977e-02  0 
 3.163643e-02  -6.190779e-03  0 
 2.633199e-02  -9.399074e-03  0 
 2.387987e-02  -1.124734e-02  0 
 3.668147e-02  -5.766441e-03  0 
 3.093560e-02  -7.698801e-03  0 
 2.860667e-02  -9.036983e-03  0 
 3.527742e-03  -9.242000e-04  0 
 4.776840e-03  -2.801247e-03  0 
 0  0  0 
 9.482149e-03  -4.885993e-03  0 
 8.194520e-03  -4.880671e-03  0 
 0  0  0 
 1.089287e-02  -7.159841e-03  0 
 1.463811e-02  -6.134176e-03  0 
 3.575490e-02  -1.185080e-02  0 
 1.486953e-02  -8.720145e-03  0 
 2.021252e-02  -9.320309e-03  0 
 1.658817e-02  -1.069738e-02  0 
 1.891996e-02  -1.095287e-02  0 
 2.836219e-02  -6.851206e-03  0 
 3.479309e-02  -4.928658e-03  0 
 2.290900e-02  -1.006850e-02  0 
 2.854722e-02  -7.886125e-03  0 
 2.165586e-02  -1.193360e-02  0 
 2.491612e-02  -1.047367e-02  0 
 3.422431e-02  -6.035502e-03  0 
 3.892274e-02  -4.899472e-03  0 
 2.907528e-02  -8.583308e-03  0 
 3.384856e-02  -6.820432e-03  0 
 2.612539e-02  -1.007806e-02  0 
 2.915229e-02  -8.435460e-03  0 
 3.892428e-02  -5.696240e-03  0 
 3.241485e-02  -6.196822e-03  0 
 3.149179e-02  -1.016761e-02  0 
 4.308264e-03  -2.063008e-03  0 
 5.471709e-03  -3.400811e-03  0 
 1.531353e-02  -8.024714e-03  0 
 1.529638e-02  -9.690313e-03  0 
 3.344235e-02  -5.252793e-03  0 
 2.469856e-02  -8.704304e-03  0 
 2.207647e-02  -1.111781e-02  0 
 3.710854e-02  -4.872112e-03  0 
 3.149102e-02  -7.390621e-03  0 
 2.735923e-02  -9.389290e-03  0 
 4.061899e-02  -5.447192e-03  0 
 3.554362e-02  -5.053110e-03  0 
 3.035959e-02  -8.139578e-03  0 
VECTORS displacement_ITER2 FLOAT
 0  0  0 
 1.069840e-03  -8.890208e-03  0 
 0  0  0 
 9.824877e-03  -1.051479e-02  0 
 0  0  0 
 2.026602e-02  -1.384100e-02  0 
 1.089826e-02  -2.535611e-02  0 
 1.897103e-02  -2.565092e-02  0 
 3.126158e-02  -2.795781e-02  0 
 1.681577e-02  -3.728680e-02  0 
 2.610676e-02  -3.970619e-02  0 
 3.827137e-02  -4.160340e-02  0 
 2.117189e-02  -5.215805e-02  0 
 3.063399e-02  -5.363999e-02  0 
 4.380438e-02  -5.493553e-02  0 
 -4.953952e-04  -3.121318e-03  0 
 4.707872e-03  -4.001174e-03  0 
 0  0  0 
 5.872900e-03  -9.618142e-03  0 
 1.211402e-02  -7.005191e-03  0 
 0  0  0 
 1.423120e-02  -1.189875e-02  0 
 4.323456e-03  -1.629928e-02  0 
 1.382174e-02  -2.775639e-02  0 
 1.471228e-02  -1.814060e-02  0 
 1.403736e-02  -2.511742e-02  0 
 2.644688e-02  -2.088379e-02  0 
 2.469370e-02  -2.669747e-02  0 
 1.418623e-02  -3.047169e-02  0 
 1.249666e-02  -3.644026e-02  0 
 2.274429e-02  -3.279600e-02  0 
 2.109049e-02  -3.852317e-02  0 
 3.509868e-02  -3.489958e-02  0 
 3.190397e-02  -4.069707e-02  0 
 1.899586e-02  -4.472351e-02  0 
 1.577902e-02  -5.161069e-02  0 
 2.880208e-02  -4.667501e-02  0 
 2.593072e-02  -5.293845e-02  0 
 4.105375e-02  -4.813498e-02  0 
 3.654145e-02  -5.431066e-02  0 
 2.323473e-02  -5.980103e-02  0 
 3.208956e-02  -5.998655e-02  0 
 4.680578e-02  -6.396842e-02  0 
 2.553210e-03  -3.437606e-03  0 
 7.104695e-03  -4.747146e-03  0 
 1.016829e-02  -1.755430e-02  0 
 2.001552e-02  -1.932268e-02  0 
 1.162290e-02  -2.934615e-02  0 
 1.775265e-02  -3.175468e-02  0 
 2.859420e-02  -3.383505e-02  0 
 1.430246e-02  -4.394602e-02  0 
 2.374544e-02  -4.573353e-02  0 
 3.461274e-02  -4.738902e-02  0 
 1.726406e-02  -5.983355e-02  0 
 2.750698e-02  -5.896895e-02  0 
 3.781759e-02  -6.191407e-02  0 
VECTORS displacement_ITER3 FLOAT
 0  0  0 
 2.499862e-03  -6.061137e-03  0 
 0  0  0 
 7.648276e-03  -7.275848e-03  0 
 0  0  0 
 1.506221e-02  -9.887968e-03  0 
 8.667542e-03  -1.654923e-02  0 
 1.484459e-02  -1.786691e-02  0 
 2.398435e-02  -1.999373e-02  0 
 1.231820e-02  -2.712539e-02  0 
 2.042690e-02  -2.890050e-02  0 
 3.021092e-02  -3.053694e-02  0 
 1.545811e-02  -3.953250e-02  0 
 2.391210e-02  -4.054377e-02  0 
 3.496707e-02  -4.153520e-02  0 
 7.180416e-04  -2.211694e-03  0 
 3.710111e-03  -2.856317e-03  0 
 0  0  0 
 5.134824e-03  -6.608850e-03  0 
 8.922752e-03  -5.067875e-03  0 
 0  0  0 
 1.077182e-02  -8.377629e-03  0 
 4.953605e-03  -1.089422e-02  0 
 8.104789e-03  -1.681154e-02  0 
 1.145760e-02  -1.248994e-02  0 
 1.119215e-02  -1.706606e-02  0 
 1.994563e-02  -1.486513e-02  0 
 1.910799e-02  -1.888841e-02  0 
 1.063052e-02  -2.135889e-02  0 
 8.453246e-03  -2.646648e-02  0 
 1.783394e-02  -2.331617e-02  0 
 1.620092e-02  -2.799663e-02  0 
 2.736573e-02  -2.523674e-02  0 
 2.510025e-02  -2.973839e-02  0 
 1.386197e-02  -3.324921e-02  0 
 1.060908e-02  -3.900400e-02  0 
 2.248650e-02  -3.469537e-02  0 
 1.971092e-02  -4.008832e-02  0 
 3.265495e-02  -3.589534e-02  0 
 2.897104e-02  -4.102433e-02  0 
 1.697098e-02  -4.603260e-02  0 
 2.503883e-02  -4.601266e-02  0 
 3.748165e-02  -4.881267e-02  0 
 2.376679e-03  -2.507108e-03  0 
 5.353139e-03  -3.385668e-03  0 
 8.282876e-03  -1.176901e-02  0 
 1.530552e-02  -1.357142e-02  0 
 7.617941e-03  -2.061603e-02  0 
 1.389299e-02  -2.233395e-02  0 
 2.234781e-02  -2.428396e-02  0 
 9.622226e-03  -3.258358e-02  0 
 1.810230e-02  -3.401927e-02  0 
 2.734154e-02  -3.525735e-02  0 
 1.179540e-02  -4.609187e-02  0 
 2.080696e-02  -4.535895e-02  0 
 3.007291e-02  -4.730184e-02  0 
VECTORS displacement_ITER4 FLOAT
 0  0  0 
 3.748958e-03  -7.597739e-03  0 
 0  0  0 
 8.464680e-03  -8.385099e-03  0 
 0  0  0 
 1.614556e-02  -1.099293e-02  0 
 1.059159e-02  -1.812421e-02  0 
 1.614294e-02  -1.931814e-02  0 
 2.496549e-02  -2.137556e-02  0 
 1.494654e-02  -2.819265e-02  0 
 2.195725e-02  -2.975092e-02  0 
 3.086126e-02  -3.135786e-02  0 
 1.851934e-02  -3.883715e-02  0 
 2.580008e-02  -4.004616e-02  0 
 3.525290e-02  -4.115799e-02  0 
 1.302978e-03  -3.079440e-03  0 
 4.176056e-03  -3.477730e-03  0 
 0  0  0 
 6.110173e-03  -7.890639e-03  0 
 9.729558e-03  -5.701270e-03  0 
 0  0  0 
 1.160968e-02  -9.452430e-03  0 
 6.702787e-03  -1.268231e-02  0 
 9.845281e-03  -1.819555e-02  0 
 1.254982e-02  -1.389025e-02  0 
 1.278761e-02  -1.858073e-02  0 
 2.104559e-02  -1.622458e-02  0 
 2.020849e-02  -2.030406e-02  0 
 1.292381e-02  -2.287976e-02  0 
 1.192432e-02  -2.769517e-02  0 
 1.927139e-02  -2.457948e-02  0 
 1.823267e-02  -2.891182e-02  0 
 2.817696e-02  -2.642488e-02  0 
 2.618177e-02  -3.058101e-02  0 
 1.677862e-02  -3.352760e-02  0 
 1.493912e-02  -3.821003e-02  0 
 2.413835e-02  -3.492669e-02  0 
 2.205079e-02  -3.947622e-02  0 
 3.316108e-02  -3.621565e-02  0 
 3.020337e-02  -4.062183e-02  0 
 2.007801e-02  -4.422137e-02  0 
 2.717483e-02  -4.493996e-02  0 
 3.733518e-02  -4.696209e-02  0 
 2.930281e-03  -3.245654e-03  0 
 5.826128e-03  -3.936115e-03  0 
 9.568995e-03  -1.327335e-02  0 
 1.633463e-02  -1.494086e-02  0 
 1.034762e-02  -2.236934e-02  0 
 1.573879e-02  -2.367924e-02  0 
 2.345036e-02  -2.551058e-02  0 
 1.357864e-02  -3.291100e-02  0 
 2.029955e-02  -3.423344e-02  0 
 2.843861e-02  -3.556791e-02  0 
 1.629083e-02  -4.384803e-02  0 
 2.336423e-02  -4.421226e-02  0 
 3.154105e-02  -4.590034e-02  0 
VECTORS displacement_ITER5 FLOAT
 0  0  0 
 4.812469e-03  -7.099353e-03  0 
 0  0  0 
 8.326383e-03  -7.673859e-03  0 
 0  0  0 
 1.548029e-02  -1.024121e-02  0 
 1.011343e-02  -1.604889e-02  0 
 1.590317e-02  -1.778347e-02  0 
 2.448123e-02  -1.999386e-02  0 
 1.398876e-02  -2.689465e-02  0 
 2.162209e-02  -2.830459e-02  0 
 3.088483e-02  -2.999835e-02  0 
 1.725812e-02  -3.792455e-02  0 
 2.557164e-02  -3.916660e-02  0 
 3.550258e-02  -4.037168e-02  0 
 2.131863e-03  -3.044230e-03  0 
 4.150018e-03  -3.260316e-03  0 
 0  0  0 
 6.364905e-03  -7.257969e-03  0 
 9.263546e-03  -5.349288e-03  0 
 0  0  0 
 1.125356e-02  -8.723642e-03  0 
 7.471704e-03  -1.152435e-02  0 
 7.440634e-03  -1.525901e-02  0 
 1.233618e-02  -1.266362e-02  0 
 1.261001e-02  -1.686747e-02  0 
 2.039178e-02  -1.510152e-02  0 
 1.986919e-02  -1.885907e-02  0 
 1.214856e-02  -2.137547e-02  0 
 1.071983e-02  -2.642867e-02  0 
 1.899748e-02  -2.298874e-02  0 
 1.763322e-02  -2.751425e-02  0 
 2.794406e-02  -2.495652e-02  0 
 2.602742e-02  -2.916145e-02  0 
 1.570023e-02  -3.237140e-02  0 
 1.337628e-02  -3.730322e-02  0 
 2.379533e-02  -3.372391e-02  0 
 2.127816e-02  -3.855708e-02  0 
 3.337576e-02  -3.512812e-02  0 
 3.030862e-02  -3.979380e-02  0 
 1.860037e-02  -4.360871e-02  0 
 2.707929e-02  -4.457356e-02  0 
 3.738071e-02  -4.601363e-02  0 
 3.165334e-03  -3.141491e-03  0 
 5.633119e-03  -3.659642e-03  0 
 9.559208e-03  -1.191818e-02  0 
 1.593837e-02  -1.378521e-02  0 
 9.002067e-03  -2.099640e-02  0 
 1.535315e-02  -2.206788e-02  0 
 2.320401e-02  -2.397544e-02  0 
 1.219026e-02  -3.178554e-02  0 
 1.958580e-02  -3.303388e-02  0 
 2.838467e-02  -3.442572e-02  0 
 1.449529e-02  -4.312658e-02  0 
 2.262183e-02  -4.391693e-02  0 
 3.185335e-02  -4.525989e-02  0 
VECTORS displacement_ITER6 FLOAT
 0  0  0 
 5.006213e-03  -7.039580e-03  0 
 0  0  0 
 8.291424e-03  -7.566599e-03  0 
 0  0  0 
 1.540801e-02  -1.013859e-02  0 
 9.783184e-03  -1.584015e-02  0 
 1.584082e-02  -1.762922e-02  0 
 2.448097e-02  -1.986969e-02  0 
 1.370416e-02  -2.688436e-02  0 
 2.153136e-02  -2.830128e-02  0 
 3.097441e-02  -3.000848e-02  0 
 1.692884e-02  -3.809435e-02  0 
 2.554683e-02  -3.934491e-02  0 
 3.555886e-02  -4.057456e-02  0 
 2.356611e-03  -3.092705e-03  0 
 4.142023e-03  -3.228154e-03  0 
 0  0  0 
 6.387466e-03  -7.160423e-03  0 
 9.202773e-03  -5.296132e-03  0 
 0  0  0 
 1.120699e-02  -8.618933e-03  0 
 7.500461e-03  -1.137254e-02  0 
 6.786568e-03  -1.500221e-02  0 
 1.228509e-02  -1.250116e-02  0 
 1.249354e-02  -1.668915e-02  0 
 2.034467e-02  -1.497067e-02  0 
 1.984057e-02  -1.872107e-02  0 
 1.183882e-02  -2.131432e-02  0 
 1.036725e-02  -2.638334e-02  0 
 1.891964e-02  -2.289768e-02  0 
 1.744526e-02  -2.751416e-02  0 
 2.799425e-02  -2.488013e-02  0 
 2.602475e-02  -2.916267e-02  0 
 1.541858e-02  -3.244272e-02  0 
 1.299512e-02  -3.749491e-02  0 
 2.371876e-02  -3.380598e-02  0 
 2.108729e-02  -3.871722e-02  0 
 3.347823e-02  -3.524728e-02  0 
 3.036408e-02  -3.998866e-02  0 
 1.820144e-02  -4.384494e-02  0 
 2.709172e-02  -4.490373e-02  0 
 3.728964e-02  -4.605955e-02  0 
 3.207483e-03  -3.143218e-03  0 
 5.606255e-03  -3.615054e-03  0 
 9.499469e-03  -1.172085e-02  0 
 1.589418e-02  -1.364286e-02  0 
 8.630181e-03  -2.092145e-02  0 
 1.518140e-02  -2.198938e-02  0 
 2.319027e-02  -2.388840e-02  0 
 1.180241e-02  -3.185558e-02  0 
 1.940096e-02  -3.310223e-02  0 
 2.839885e-02  -3.453516e-02  0 
 1.407277e-02  -4.332772e-02  0 
 2.245213e-02  -4.429691e-02  0 
 3.196869e-02  -4.546755e-02  0 
VECTORS displacement_ITER7 FLOAT
 0  0  0 
 4.843283e-03  -7.220251e-03  0 
 0  0  0 
 8.252038e-03  -7.749156e-03  0 
 0  0  0 
 1.547015e-02  -1.030255e-02  0 
 9.578972e-03  -1.648035e-02  0 
 1.571818e-02  -1.800287e-02  0 
 2.438283e-02  -2.016583e-02  0 
 1.374023e-02  -2.715083e-02  0 
 2.131301e-02  -2.861150e-02  0 
 3.060881e-02  -3.026342e-02  0 
 1.699238e-02  -3.808474e-02  0 
 2.531750e-02  -3.934315e-02  0 
 3.491876e-02  -4.055302e-02  0 
 2.330083e-03  -3.217881e-03  0 
 4.121046e-03  -3.301979e-03  0 
 0  0  0 
 6.298682e-03  -7.336560e-03  0 
 9.267566e-03  -5.370111e-03  0 
 0  0  0 
 1.120417e-02  -8.792726e-03  0 
 7.243389e-03  -1.169687e-02  0 
 7.127594e-03  -1.602582e-02  0 
 1.221597e-02  -1.279808e-02  0 
 1.235734e-02  -1.714358e-02  0 
 2.034882e-02  -1.521559e-02  0 
 1.972367e-02  -1.905169e-02  0 
 1.177569e-02  -2.176115e-02  0 
 1.056329e-02  -2.661286e-02  0 
 1.873849e-02  -2.328110e-02  0 
 1.732681e-02  -2.782250e-02  0 
 2.776626e-02  -2.518260e-02  0 
 2.573265e-02  -2.945113e-02  0 
 1.549020e-02  -3.258806e-02  0 
 1.328034e-02  -3.750753e-02  0 
 2.348884e-02  -3.397472e-02  0 
 2.099442e-02  -3.870194e-02  0 
 3.297890e-02  -3.539713e-02  0 
 2.995369e-02  -3.998534e-02  0 
 1.823891e-02  -4.360865e-02  0 
 2.684335e-02  -4.473043e-02  0 
 3.647136e-02  -4.569174e-02  0 
 3.162218e-03  -3.223400e-03  0 
 5.613188e-03  -3.685650e-03  0 
 9.400729e-03  -1.205348e-02  0 
 1.584921e-02  -1.391165e-02  0 
 8.879185e-03  -2.131609e-02  0 
 1.502048e-02  -2.242885e-02  0 
 2.298497e-02  -2.422925e-02  0 
 1.201175e-02  -3.199799e-02  0 
 1.931170e-02  -3.325442e-02  0 
 2.803606e-02  -3.470965e-02  0 
 1.438413e-02  -4.306284e-02  0 
 2.237084e-02  -4.415421e-02  0 
 3.152523e-02  -4.522187e-02  0 
VECTORS displacement_ITER8 FLOAT
 0  0  0 
 4.934556e-03  -7.070630e-03  0 
 0  0  0 
 8.303618e-03  -7.685902e-03  0 
 0  0  0 
 1.549789e-02  -1.026635e-02  0 
 9.674099e-03  -1.643073e-02  0 
 1.582406e-02  -1.792044e-02  0 
 2.449081e-02  -2.010716e-02  0 
 1.384139e-02  -2.708269e-02  0 
 2.144559e-02  -2.857421e-02  0 
 3.079984e-02  -3.024171e-02  0 
 1.705155e-02  -3.814870e-02  0 
 2.546971e-02  -3.940480e-02  0 
 3.516958e-02  -4.062439e-02  0 
 2.433183e-03  -3.155866e-03  0 
 4.140862e-03  -3.269299e-03  0 
 0  0  0 
 6.362677e-03  -7.236184e-03  0 
 9.271940e-03  -5.354960e-03  0 
 0  0  0 
 1.124652e-02  -8.746215e-03  0 
 7.328231e-03  -1.154018e-02  0 
 7.341381e-03  -1.605521e-02  0 
 1.230018e-02  -1.271625e-02  0 
 1.246219e-02  -1.705731e-02  0 
 2.041322e-02  -1.516251e-02  0 
 1.982995e-02  -1.898049e-02  0 
 1.187401e-02  -2.167859e-02  0 
 1.063502e-02  -2.652978e-02  0 
 1.885814e-02  -2.321506e-02  0 
 1.743855e-02  -2.777482e-02  0 
 2.791804e-02  -2.513430e-02  0 
 2.589260e-02  -2.942036e-02  0 
 1.557326e-02  -3.258258e-02  0 
 1.327998e-02  -3.759664e-02  0 
 2.363405e-02  -3.397868e-02  0 
 2.110467e-02  -3.875895e-02  0 
 3.320286e-02  -3.541531e-02  0 
 3.014977e-02  -4.004951e-02  0 
 1.828008e-02  -4.373505e-02  0 
 2.699273e-02  -4.485158e-02  0 
 3.673798e-02  -4.582351e-02  0 
 3.190014e-03  -3.177161e-03  0 
 5.629639e-03  -3.663968e-03  0 
 9.499081e-03  -1.194822e-02  0 
 1.592338e-02  -1.384600e-02  0 
 9.027455e-03  -2.119732e-02  0 
 1.512203e-02  -2.236059e-02  0 
 2.311992e-02  -2.417017e-02  0 
 1.203767e-02  -3.200530e-02  0 
 1.942686e-02  -3.325041e-02  0 
 2.821732e-02  -3.472066e-02  0 
 1.435058e-02  -4.321394e-02  0 
 2.248501e-02  -4.428275e-02  0 
 3.173016e-02  -4.535708e-02  0 
VECTORS displacement_ITER9 FLOAT
 0  0  0 
 4.961510e-03  -6.974004e-03  0 
 0  0  0 
 8.299853e-03  -7.629698e-03  0 
 0  0  0 
 1.546052e-02  -1.021525e-02  0 
 9.678122e-03  -1.634819e-02  0 
 1.582075e-02  -1.782274e-02  0 
 2.446573e-02  -2.001554e-02  0 
 1.381916e-02  -2.698039e-02  0 
 2.143429e-02  -2.847348e-02  0 
 3.079879e-02  -3.014246e-02  0 
 1.699560e-02  -3.808238e-02  0 
 2.544938e-02  -3.933150e-02  0 
 3.519481e-02  -4.055039e-02  0 
 2.480379e-03  -3.118823e-03  0 
 4.136396e-03  -3.243012e-03  0 
 0  0  0 
 6.372131e-03  -7.163812e-03  0 
 9.243408e-03  -5.330038e-03  0 
 0  0  0 
 1.122947e-02  -8.694848e-03  0 
 7.347792e-03  -1.142533e-02  0 
 7.357094e-03  -1.598692e-02  0 
 1.229836e-02  -1.263427e-02  0 
 1.246640e-02  -1.695843e-02  0 
 2.037859e-02  -1.508794e-02  0 
 1.981664e-02  -1.888580e-02  0 
 1.186189e-02  -2.157689e-02  0 
 1.059743e-02  -2.642665e-02  0 
 1.885081e-02  -2.311192e-02  0 
 1.742101e-02  -2.767490e-02  0 
 2.790507e-02  -2.503444e-02  0 
 2.588700e-02  -2.931903e-02  0 
 1.553349e-02  -3.249730e-02  0 
 1.319633e-02  -3.754251e-02  0 
 2.361938e-02  -3.388733e-02  0 
 2.106876e-02  -3.868756e-02  0 
 3.321345e-02  -3.532403e-02  0 
 3.014961e-02  -3.997271e-02  0 
 1.821537e-02  -4.368386e-02  0 
 2.696243e-02  -4.479619e-02  0 
 3.678329e-02  -4.578114e-02  0 
 3.192775e-03  -3.145081e-03  0 
 5.618732e-03  -3.641451e-03  0 
 9.511854e-03  -1.185630e-02  0 
 1.590663e-02  -1.376910e-02  0 
 9.028385e-03  -2.108327e-02  0 
 1.511239e-02  -2.225981e-02  0 
 2.311052e-02  -2.406763e-02  0 
 1.197475e-02  -3.193136e-02  0 
 1.940066e-02  -3.316101e-02  0 
 2.821529e-02  -3.462797e-02  0 
 1.424815e-02  -4.317741e-02  0 
 2.244570e-02  -4.423155e-02  0 
 3.173018e-02  -4.531312e-02  0 
VECTORS displacement_ITER10 FLOAT
 0  0  0 
 4.929930e-03  -6.974740e-03  0 
 0  0  0 
 8.300527e-03  -7.639905e-03  0 
 0  0  0 
 1.547293e-02  -1.022770e-02  0 
 9.675339e-03  -1.638352e-02  0 
 1.582491e-02  -1.785172e-02  0 
 2.447631e-02  -2.004189e-02  0 
 1.383730e-02  -2.701435e-02  0 
 2.144052e-02  -2.850384e-02  0 
 3.079892e-02  -3.016918e-02  0 
 1.702225e-02  -3.809936e-02  0 
 2.545169e-02  -3.934902e-02  0 
 3.519568e-02  -4.056602e-02  0 
 2.472291e-03  -3.122602e-03  0 
 4.135511e-03  -3.244895e-03  0 
 0  0  0 
 6.364046e-03  -7.170610e-03  0 
 9.251294e-03  -5.335268e-03  0 
 0  0  0 
 1.123553e-02  -8.706406e-03  0 
 7.327931e-03  -1.144046e-02  0 
 7.351112e-03  -1.601641e-02  0 
 1.230108e-02  -1.265501e-02  0 
 1.246699e-02  -1.698943e-02  0 
 2.039188e-02  -1.510818e-02  0 
 1.982367e-02  -1.891330e-02  0 
 1.186946e-02  -2.161035e-02  0 
 1.061907e-02  -2.645992e-02  0 
 1.885627e-02  -2.314422e-02  0 
 1.743159e-02  -2.770754e-02  0 
 2.791058e-02  -2.506326e-02  0 
 2.589050e-02  -2.934726e-02  0 
 1.555645e-02  -3.252727e-02  0 
 1.324008e-02  -3.756272e-02  0 
 2.362498e-02  -3.391193e-02  0 
 2.108187e-02  -3.870518e-02  0 
 3.321064e-02  -3.534471e-02  0 
 3.014899e-02  -3.998759e-02  0 
 1.824702e-02  -4.368310e-02  0 
 2.695908e-02  -4.480145e-02  0 
 3.679699e-02  -4.580265e-02  0 
 3.185793e-03  -3.144374e-03  0 
 5.621692e-03  -3.645027e-03  0 
 9.507466e-03  -1.187758e-02  0 
 1.591409e-02  -1.378957e-02  0 
 9.040332e-03  -2.110970e-02  0 
 1.511821e-02  -2.229429e-02  0 
 2.311593e-02  -2.409803e-02  0 
 1.201396e-02  -3.196617e-02  0 
 1.941308e-02  -3.318812e-02  0 
 2.821700e-02  -3.464992e-02  0 
 1.428771e-02  -4.318137e-02  0 
 2.246232e-02  -4.423329e-02  0 
 3.172727e-02  -4.533092e-02  0 
VECTORS displacement_ITER11 FLOAT
 0  0  0 
 4.899303e-03  -6.981855e-03  0 
 0  0  0 
 8.293526e-03  -7.646075e-03  0 
 0  0  0 
 1.547437e-02  -1.023328e-02  0 
 9.655995e-03  -1.639675e-02  0 
 1.581450e-02  -1.786952e-02  0 
 2.447265e-02  -2.005747e-02  0 
 1.382918e-02  -2.703843e-02  0 
 2.142917e-02  -2.852479e-02  0 
 3.078522e-02  -3.018722e-02  0 
 1.702297e-02  -3.811188e-02  0 
 2.543553e-02  -3.936376e-02  0 
 3.517681e-02  -4.057849e-02  0 
 2.459368e-03  -3.128708e-03  0 
 4.131716e-03  -3.246116e-03  0 
 0  0  0 
 6.350560e-03  -7.177627e-03  0 
 9.252497e-03  -5.336854e-03  0 
 0  0  0 
 1.123276e-02  -8.712219e-03  0 
 7.304587e-03  -1.145398e-02  0 
 7.308607e-03  -1.601251e-02  0 
 1.229174e-02  -1.266749e-02  0 
 1.245256e-02  -1.700686e-02  0 
 2.039175e-02  -1.511902e-02  0 
 1.981661e-02  -1.893008e-02  0 
 1.185523e-02  -2.163032e-02  0 
 1.061013e-02  -2.648282e-02  0 
 1.884567e-02  -2.316488e-02  0 
 1.742164e-02  -2.773016e-02  0 
 2.790206e-02  -2.508150e-02  0 
 2.587807e-02  -2.936672e-02  0 
 1.555278e-02  -3.254892e-02  0 
 1.325207e-02  -3.757558e-02  0 
 2.361183e-02  -3.393074e-02  0 
 2.107353e-02  -3.871956e-02  0 
 3.319272e-02  -3.535993e-02  0 
 3.012972e-02  -4.000046e-02  0 
 1.825356e-02  -4.368380e-02  0 
 2.693883e-02  -4.480710e-02  0 
 3.678158e-02  -4.581850e-02  0 
 3.177633e-03  -3.145242e-03  0 
 5.620381e-03  -3.646443e-03  0 
 9.491176e-03  -1.189115e-02  0 
 1.590938e-02  -1.380118e-02  0 
 9.019646e-03  -2.112626e-02  0 
 1.510678e-02  -2.231526e-02  0 
 2.310627e-02  -2.411765e-02  0 
 1.202085e-02  -3.198898e-02  0 
 1.940364e-02  -3.320857e-02  0 
 2.820154e-02  -3.466664e-02  0 
 1.429818e-02  -4.318345e-02  0 
 2.245732e-02  -4.423669e-02  0 
 3.170431e-02  -4.534457e-02  0 
VECTORS displacement_ITER12 FLOAT
 0  0  0 
 4.892417e-03  -6.988879e-03  0 
 0  0  0 
 8.292418e-03  -7.650342e-03  0 
 0  0  0 
 1.547424e-02  -1.023626e-02  0 
 9.658795e-03  -1.640098e-02  0 
 1.581204e-02  -1.787412e-02  0 
 2.446804e-02  -2.006076e-02  0 
 1.383296e-02  -2.703802e-02  0 
 2.142645e-02  -2.852388e-02  0 
 3.077613e-02  -3.018574e-02  0 
 1.702822e-02  -3.810203e-02  0 
 2.543171e-02  -3.935522e-02  0 
 3.516580e-02  -4.056919e-02  0 
 2.456119e-03  -3.133702e-03  0 
 4.131330e-03  -3.248199e-03  0 
 0  0  0 
 6.348686e-03  -7.183362e-03  0 
 9.253271e-03  -5.338367e-03  0 
 0  0  0 
 1.123191e-02  -8.715690e-03  0 
 7.304251e-03  -1.146182e-02  0 
 7.309347e-03  -1.601203e-02  0 
 1.228977e-02  -1.267283e-02  0 
 1.245173e-02  -1.701171e-02  0 
 2.038963e-02  -1.512273e-02  0 
 1.981307e-02  -1.893405e-02  0 
 1.185836e-02  -2.163232e-02  0 
 1.061653e-02  -2.648302e-02  0 
 1.884312e-02  -2.316716e-02  0 
 1.742206e-02  -2.772935e-02  0 
 2.789501e-02  -2.508302e-02  0 
 2.587228e-02  -2.936565e-02  0 
 1.555693e-02  -3.254433e-02  0 
 1.326071e-02  -3.756546e-02  0 
 2.360869e-02  -3.392623e-02  0 
 2.107474e-02  -3.871071e-02  0 
 3.318215e-02  -3.535454e-02  0 
 3.012171e-02  -3.999130e-02  0 
 1.826035e-02  -4.367005e-02  0 
 2.693389e-02  -4.479227e-02  0 
 3.677129e-02  -4.580719e-02  0 
 3.176365e-03  -3.147706e-03  0 
 5.620228e-03  -3.648133e-03  0 
 9.489223e-03  -1.189802e-02  0 
 1.590727e-02  -1.380559e-02  0 
 9.025113e-03  -2.112844e-02  0 
 1.510701e-02  -2.231739e-02  0 
 2.310148e-02  -2.411969e-02  0 
 1.203049e-02  -3.198461e-02  0 
 1.940412e-02  -3.320408e-02  0 
 2.819478e-02  -3.466171e-02  0 
 1.430385e-02  -4.317123e-02  0 
 2.246023e-02  -4.422224e-02  0 
 3.169516e-02  -4.533245e-02  0 
VECTORS displacement_ITER13 FLOAT
 0  0  0 
 4.893756e-03  -6.988265e-03  0 
 0  0  0 
 8.293367e-03  -7.648686e-03  0 
 0  0  0 
 1.547354e-02  -1.023449e-02  0 
 9.664315e-03  -1.639220e-02  0 
 1.581429e-02  -1.786878e-02  0 
 2.446931e-02  -2.005656e-02  0 
 1.383459e-02  -2.703149e-02  0 
 2.143070e-02  -2.851808e-02  0 
 3.078183e-02  -3.018126e-02  0 
 1.702777e-02  -3.810088e-02  0 
 2.543670e-02  -3.935424e-02  0 
 3.517614e-02  -4.056831e-02  0 
 2.458094e-03  -3.134796e-03  0 
 4.131927e-03  -3.247787e-03  0 
 0  0  0 
 6.350568e-03  -7.182344e-03  0 
 9.252660e-03  -5.337722e-03  0 
 0  0  0 
 1.123219e-02  -8.713883e-03  0 
 7.310733e-03  -1.145843e-02  0 
 7.310075e-03  -1.599832e-02  0 
 1.229117e-02  -1.266931e-02  0 
 1.245489e-02  -1.700512e-02  0 
 2.038952e-02  -1.511966e-02  0 
 1.981495e-02  -1.892934e-02  0 
 1.186163e-02  -2.162416e-02  0 
 1.061547e-02  -2.647685e-02  0 
 1.884649e-02  -2.316083e-02  0 
 1.742523e-02  -2.772297e-02  0 
 2.789834e-02  -2.507826e-02  0 
 2.587726e-02  -2.936051e-02  0 
 1.555709e-02  -3.253994e-02  0 
 1.325479e-02  -3.756454e-02  0 
 2.361348e-02  -3.392237e-02  0 
 2.107788e-02  -3.870979e-02  0 
 3.319014e-02  -3.535124e-02  0 
 3.012879e-02  -3.998997e-02  0 
 1.825961e-02  -4.367476e-02  0 
 2.693838e-02  -4.479301e-02  0 
 3.678415e-02  -4.581081e-02  0 
 3.177277e-03  -3.147536e-03  0 
 5.620322e-03  -3.647579e-03  0 
 9.491411e-03  -1.189453e-02  0 
 1.590809e-02  -1.380225e-02  0 
 9.027361e-03  -2.112048e-02  0 
 1.511062e-02  -2.230990e-02  0 
 2.310485e-02  -2.411425e-02  0 
 1.202827e-02  -3.198032e-02  0 
 1.940698e-02  -3.319996e-02  0 
 2.820114e-02  -3.465802e-02  0 
 1.429337e-02  -4.317881e-02  0 
 2.246407e-02  -4.422472e-02  0 
 3.170281e-02  -4.533514e-02  0 
VECTORS displacement_ITER14 FLOAT
 0  0  0 
 4.893043e-03  -6.988356e-03  0 
 0  0  0 
 8.293271e-03  -7.648301e-03  0 
 0  0  0 
 1.547316e-02  -1.023398e-02  0 
 9.664663e-03  -1.639034e-02  0 
 1.581420e-02  -1.786759e-02  0 
 2.446942e-02  -2.005563e-02  0 
 1.383345e-02  -2.703014e-02  0 
 2.143104e-02  -2.851715e-02  0 
 3.078329e-02  -3.018080e-02  0 
 1.702558e-02  -3.810200e-02  0 
 2.543740e-02  -3.935546e-02  0 
 3.517898e-02  -4.056962e-02  0 
 2.458374e-03  -3.135418e-03  0 
 4.131921e-03  -3.247674e-03  0 
 0  0  0 
 6.350568e-03  -7.182236e-03  0 
 9.252380e-03  -5.337498e-03  0 
 0  0  0 
 1.123201e-02  -8.713395e-03  0 
 7.311739e-03  -1.145785e-02  0 
 7.310455e-03  -1.599636e-02  0 
 1.229101e-02  -1.266851e-02  0 
 1.245483e-02  -1.700364e-02  0 
 2.038926e-02  -1.511888e-02  0 
 1.981501e-02  -1.892828e-02  0 
 1.186118e-02  -2.162232e-02  0 
 1.061287e-02  -2.647565e-02  0 
 1.884662e-02  -2.315952e-02  0 
 1.742489e-02  -2.772179e-02  0 
 2.789906e-02  -2.507740e-02  0 
 2.587818e-02  -2.935983e-02  0 
 1.555526e-02  -3.253959e-02  0 
 1.325025e-02  -3.756573e-02  0 
 2.361402e-02  -3.392235e-02  0 
 2.107750e-02  -3.871099e-02  0 
 3.319232e-02  -3.535148e-02  0 
 3.013041e-02  -3.999111e-02  0 
 1.825695e-02  -4.367860e-02  0 
 2.693894e-02  -4.479504e-02  0 
 3.678747e-02  -4.581352e-02  0 
 3.177245e-03  -3.147522e-03  0 
 5.620226e-03  -3.647406e-03  0 
 9.491256e-03  -1.189386e-02  0 
 1.590794e-02  -1.380143e-02  0 
 9.027036e-03  -2.111883e-02  0 
 1.511048e-02  -2.230827e-02  0 
 2.310529e-02  -2.411319e-02  0 
 1.202517e-02  -3.197988e-02  0 
 1.940652e-02  -3.319974e-02  0 
 2.820249e-02  -3.465811e-02  0 
 1.428683e-02  -4.318356e-02  0 
 2.246401e-02  -4.422764e-02  0 
 3.170476e-02  -4.533776e-02  0 
VECTORS displacement_ITER15 FLOAT
 0  0  0 
 4.891051e-03  -6.990673e-03  0 
 0  0  0 
 8.293065e-03  -7.650032e-03  0 
 0  0  0 
 1.547365e-02  -1.023539e-02  0 
 9.664672e-03  -1.639417e-02  0 
 1.581344e-02  -1.787027e-02  0 
 2.446862e-02  -2.005779e-02  0 
 1.383386e-02  -2.703176e-02  0 
 2.142989e-02  -2.851885e-02  0 
 3.078090e-02  -3.018226e-02  0 
 1.702627e-02  -3.810127e-02  0 
 2.543613e-02  -3.935515e-02  0 
 3.517547e-02  -4.056923e-02  0 
 2.457494e-03  -3.136840e-03  0 
 4.131854e-03  -3.248449e-03  0 
 0  0  0 
 6.349995e-03  -7.184279e-03  0 
 9.252953e-03  -5.338187e-03  0 
 0  0  0 
 1.123203e-02  -8.714921e-03  0 
 7.310990e-03  -1.146107e-02  0 
 7.313632e-03  -1.600217e-02  0 
 1.229055e-02  -1.267098e-02  0 
 1.245427e-02  -1.700672e-02  0 
 2.038922e-02  -1.512083e-02  0 
 1.981420e-02  -1.893068e-02  0 
 1.186143e-02  -2.162498e-02  0 
 1.061373e-02  -2.647748e-02  0 
 1.884563e-02  -2.316190e-02  0 
 1.742443e-02  -2.772345e-02  0 
 2.789742e-02  -2.507940e-02  0 
 2.587644e-02  -2.936145e-02  0 
 1.555570e-02  -3.254017e-02  0 
 1.325205e-02  -3.756471e-02  0 
 2.361280e-02  -3.392311e-02  0 
 2.107729e-02  -3.871055e-02  0 
 3.318930e-02  -3.535210e-02  0 
 3.012799e-02  -3.999075e-02  0 
 1.825789e-02  -4.367687e-02  0 
 2.693747e-02  -4.479322e-02  0 
 3.678340e-02  -4.581181e-02  0 
 3.176869e-03  -3.148372e-03  0 
 5.620331e-03  -3.648091e-03  0 
 9.490661e-03  -1.189686e-02  0 
 1.590762e-02  -1.380358e-02  0 
 9.028996e-03  -2.112180e-02  0 
 1.510992e-02  -2.231082e-02  0 
 2.310398e-02  -2.411540e-02  0 
 1.202672e-02  -3.198027e-02  0 
 1.940614e-02  -3.320040e-02  0 
 2.820039e-02  -3.465887e-02  0 
 1.428851e-02  -4.318137e-02  0 
 2.246417e-02  -4.422613e-02  0 
 3.170222e-02  -4.533624e-02  0 
VECTORS displacement_ITER16 FLOAT
 0  0  0 
 4.891173e-03  -6.989805e-03  0 
 0  0  0 
 8.293090e-03  -7.649583e-03  0 
 0  0  0 
 1.547355e-02  -1.023505e-02  0 
 9.664381e-03  -1.639334e-02  0 
 1.581356e-02  -1.786975e-02  0 
 2.446884e-02  -2.005739e-02  0 
 1.383347e-02  -2.703188e-02  0 
 2.142998e-02  -2.851880e-02  0 
 3.078132e-02  -3.018218e-02  0 
 1.702610e-02  -3.810164e-02  0 
 2.543616e-02  -3.935553e-02  0 
 3.517577e-02  -4.056960e-02  0 
 2.458064e-03  -3.136519e-03  0 
 4.131852e-03  -3.248228e-03  0 
 0  0  0 
 6.350134e-03  -7.183692e-03  0 
 9.252817e-03  -5.338009e-03  0 
 0  0  0 
 1.123203e-02  -8.714545e-03  0 
 7.311357e-03  -1.146024e-02  0 
 7.312840e-03  -1.600156e-02  0 
 1.229063e-02  -1.267040e-02  0 
 1.245432e-02  -1.700606e-02  0 
 2.038928e-02  -1.512041e-02  0 
 1.981437e-02  -1.893023e-02  0 
 1.186102e-02  -2.162470e-02  0 
 1.061263e-02  -2.647767e-02  0 
 1.884576e-02  -2.316157e-02  0 
 1.742433e-02  -2.772349e-02  0 
 2.789779e-02  -2.507912e-02  0 
 2.587668e-02  -2.936138e-02  0 
 1.555539e-02  -3.254058e-02  0 
 1.325219e-02  -3.756504e-02  0 
 2.361283e-02  -3.392331e-02  0 
 2.107717e-02  -3.871093e-02  0 