# vtk DataFile Version 3.1
this is an vtk file created by FEMAC
ASCII
DATASET UNSTRUCTURED_GRID
POINTS 55 FLOAT
5.000000 5.000000 0.000000
5.000000 6.000000 0.000000
5.000000 7.000000 0.000000
6.000000 5.000000 0.000000
6.000000 6.000000 0.000000
6.000000 7.000000 0.000000
7.000000 5.000000 0.000000
7.000000 6.000000 0.000000
8.000000 5.000000 0.000000
8.000000 6.000000 0.000000
9.000000 5.000000 0.000000
9.000000 6.000000 0.000000
4.500000 5.000000 0.000000
5.000000 4.500000 0.000000
4.500000 6.000000 0.000000
5.000000 5.500000 0.000000
4.500000 7.000000 0.000000
5.000000 6.500000 0.000000
5.500000 5.000000 0.000000
6.000000 4.500000 0.000000
5.500000 6.000000 0.000000
6.000000 5.500000 0.000000
5.500000 7.000000 0.000000
6.000000 6.500000 0.000000
6.500000 5.000000 0.000000
7.000000 4.500000 0.000000
6.500000 6.000000 0.000000
7.000000 5.500000 0.000000
6.500000 7.000000 0.000000
7.000000 6.500000 0.000000
7.500000 5.000000 0.000000
8.000000 4.500000 0.000000
7.500000 6.000000 0.000000
8.000000 5.500000 0.000000
8.000000 6.500000 0.000000
8.500000 5.000000 0.000000
9.000000 4.500000 0.000000
8.500000 6.000000 0.000000
9.000000 5.500000 0.000000
9.000000 6.500000 0.000000
4.500000 4.500000 0.000000
4.500000 5.500000 0.000000
4.500000 6.500000 0.000000
5.500000 4.500000 0.000000
5.500000 5.500000 0.000000
5.500000 6.500000 0.000000
6.500000 4.500000 0.000000
6.500000 5.500000 0.000000
6.500000 6.500000 0.000000
7.500000 4.500000 0.000000
7.500000 5.500000 0.000000
7.500000 6.500000 0.000000
8.500000 4.500000 0.000000
8.500000 5.500000 0.000000
8.500000 6.500000 0.000000
CELLS 40 200 
4 40 13  0 12
4 12  0 15 41
4 41 15  1 14
4 14  1 17 42
4 42 17  2 16
4 13 43 18  0
4 43 19  3 18
4 0 18 44 15
4 15 44 20  1
4 18  3 21 44
4 44 21  4 20
4 1 20 45 17
4 17 45 22  2
4 20  4 23 45
4 45 23  5 22
4 19 46 24  3
4 46 25  6 24
4 3 24 47 21
4 21 47 26  4
4 24  6 27 47
4 47 27  7 26
4 4 26 48 23
4 23 48 28  5
4 26  7 29 48
4 25 49 30  6
4 49 31  8 30
4 6 30 50 27
4 27 50 32  7
4 30  8 33 50
4 50 33  9 32
4 7 32 51 29
4 32  9 34 51
4 31 52 35  8
4 52 36 10 35
4 8 35 53 33
4 33 53 37  9
4 35 10 38 53
4 53 38 11 37
4 9 37 54 34
4 37 11 39 54
CELL_TYPES 40
9 9 9 9 9 9 9 9 9 9 9 9 9 9 9 9 9 9 9 9 9 9 9 9 9 9 9 9 9 9 9 9 9 9 9 9 9 9 9 9 
POINT_DATA 55
VECTORS displacement_ITER1 FLOAT
 7.118311e-03  -8.804035e-02  0 
 2.122469e-02  -8.936779e-02  0 
 3.711024e-02  -9.071439e-02  0 
 7.397349e-03  -1.097610e-01  0 
 2.366673e-02  -1.105103e-01  0 
 4.001361e-02  -1.122811e-01  0 
 8.355602e-03  -1.308207e-01  0 
 2.442916e-02  -1.315608e-01  0 
 8.080531e-03  -1.504019e-01  0 
 2.546347e-02  -1.509314e-01  0 
 8.599952e-03  -1.681549e-01  0 
 2.543443e-02  -1.693156e-01  0 
 7.118486e-03  -7.738876e-02  0 
 4.343745e-05  -8.672425e-02  0 
 1.921101e-02  -7.914976e-02  0 
 1.459726e-02  -8.957097e-02  0 
 3.533282e-02  -7.946174e-02  0 
 2.800640e-02  -8.917850e-02  0 
 6.514564e-03  -9.920056e-02  0 
 -7.397137e-05  -1.102313e-01  0 
 2.327103e-02  -9.951432e-02  0 
 1.513612e-02  -1.093590e-01  0 
 3.791098e-02  -1.019748e-01  0 
 3.227283e-02  -1.118796e-01  0 
 8.569484e-03  -1.202239e-01  0 
 -1.139531e-04  -1.302353e-01  0 
 2.362059e-02  -1.215234e-01  0 
 1.653475e-02  -1.315716e-01  0 
 4.141731e-02  -1.218452e-01  0 
 3.271589e-02  -1.315509e-01  0 
 7.882736e-03  -1.408999e-01  0 
 -1.060429e-05  -1.506124e-01  0 
 2.531083e-02  -1.411074e-01  0 
 1.663115e-02  -1.503565e-01  0 
 3.409638e-02  -1.516736e-01  0 
 8.464209e-03  -1.594154e-01  0 
 -3.473683e-05  -1.681061e-01  0 
 2.537455e-02  -1.604555e-01  0 
 1.701227e-02  -1.687279e-01  0 
 3.413213e-02  -1.694552e-01  0 
 1.603556e-04  -7.713129e-02  0 
 1.305352e-02  -7.807942e-02  0 
 2.750290e-02  -7.927042e-02  0 
 -2.374483e-04  -9.924247e-02  0 
 1.492607e-02  -9.921292e-02  0 
 3.032803e-02  -1.008560e-01  0 
 -2.972681e-04  -1.200555e-01  0 
 1.593038e-02  -1.209427e-01  0 
 3.267772e-02  -1.216107e-01  0 
 1.347945e-04  -1.410644e-01  0 
 1.660743e-02  -1.408673e-01  0 
 3.327627e-02  -1.421840e-01  0 
 -1.018973e-04  -1.592419e-01  0 
 1.680002e-02  -1.600332e-01  0 
 3.422958e-02  -1.605532e-01  0 
VECTORS displacement_ITER2 FLOAT
 7.277219e-03  -8.805220e-02  0 
 2.111460e-02  -8.924777e-02  0 
 3.714928e-02  -9.068093e-02  0 
 7.436444e-03  -1.098250e-01  0 
 2.366842e-02  -1.104635e-01  0 
 3.984320e-02  -1.121699e-01  0 
 8.321889e-03  -1.306255e-01  0 
 2.444003e-02  -1.313797e-01  0 
 8.075738e-03  -1.502526e-01  0 
 2.547574e-02  -1.507848e-01  0 
 8.562159e-03  -1.679897e-01  0 
 2.542384e-02  -1.692511e-01  0 
 7.540428e-03  -7.702689e-02  0 
 -3.517818e-05  -8.688434e-02  0 
 1.901544e-02  -7.885957e-02  0 
 1.463434e-02  -8.948933e-02  0 
 3.550651e-02  -7.931489e-02  0 
 2.797353e-02  -8.909645e-02  0 
 6.560837e-03  -9.918337e-02  0 
 -1.655589e-05  -1.104713e-01  0 
 2.326892e-02  -9.944794e-02  0 
 1.515384e-02  -1.093201e-01  0 
 3.818432e-02  -1.021602e-01  0 
 3.223452e-02  -1.118429e-01  0 
 8.530109e-03  -1.202293e-01  0 
 -3.561622e-05  -1.300137e-01  0 
 2.362927e-02  -1.214131e-01  0 
 1.652067e-02  -1.313972e-01  0 
 4.136655e-02  -1.217834e-01  0 
 3.274253e-02  -1.314156e-01  0 
 7.863718e-03  -1.407062e-01  0 
 -9.132749e-05  -1.504264e-01  0 
 2.532651e-02  -1.409369e-01  0 
 1.663046e-02  -1.502000e-01  0 
 3.412681e-02  -1.515106e-01  0 
 8.432017e-03  -1.592803e-01  0 
 -4.438750e-05  -1.678968e-01  0 
 2.537963e-02  -1.603251e-01  0 
 1.698612e-02  -1.686125e-01  0 
 3.426211e-02  -1.694299e-01  0 
 -1.821719e-06  -7.680446e-02  0 
 1.308599e-02  -7.801403e-02  0 
 2.735042e-02  -7.892573e-02  0 
 -1.008635e-04  -9.921300e-02  0 
 1.494801e-02  -9.915294e-02  0 
 3.031706e-02  -1.008682e-01  0 
 -6.613128e-05  -1.201134e-01  0 
 1.591774e-02  -1.208562e-01  0 
 3.257367e-02  -1.215033e-01  0 
 -4.375812e-05  -1.407112e-01  0 
 1.660375e-02  -1.406972e-01  0 
 3.350951e-02  -1.419191e-01  0 
 -7.344088e-05  -1.591467e-01  0 
 1.677737e-02  -1.598996e-01  0 
 3.424429e-02  -1.604333e-01  0 
VECTORS displacement_ITER3 FLOAT
 7.297607e-03  -8.804346e-02  0 
 2.113762e-02  -8.927152e-02  0 
 3.716102e-02  -9.071654e-02  0 
 7.477661e-03  -1.097907e-01  0 
 2.368920e-02  -1.104613e-01  0 
 3.983710e-02  -1.121764e-01  0 
 8.379040e-03  -1.305773e-01  0 
 2.447266e-02  -1.313419e-01  0 
 8.126320e-03  -1.502015e-01  0 
 2.550372e-02  -1.507280e-01  0 
 8.630305e-03  -1.678889e-01  0 
 2.545054e-02  -1.691505e-01  0 
 7.570051e-03  -7.701442e-02  0 
 1.221851e-05  -8.688032e-02  0 
 1.904208e-02  -7.890487e-02  0 
 1.465548e-02  -8.949205e-02  0 
 3.553320e-02  -7.939211e-02  0 
 2.799116e-02  -8.914227e-02  0 
 6.594482e-03  -9.916967e-02  0 
 8.195975e-06  -1.104406e-01  0 
 2.328829e-02  -9.945148e-02  0 
 1.518231e-02  -1.093036e-01  0 
 3.818362e-02  -1.021959e-01  0 
 3.224349e-02  -1.118485e-01  0 
 8.568592e-03  -1.201803e-01  0 
 3.774377e-07  -1.299619e-01  0 
 2.365817e-02  -1.213965e-01  0 
 1.656628e-02  -1.313596e-01  0 
 4.140010e-02  -1.218174e-01  0 
 3.275699e-02  -1.313749e-01  0 
 7.917498e-03  -1.406662e-01  0 
 5.608987e-06  -1.503829e-01  0 
 2.535724e-02  -1.408884e-01  0 
 1.667157e-02  -1.501434e-01  0 
 3.413210e-02  -1.514599e-01  0 
 8.490490e-03  -1.591941e-01  0 
 1.521243e-05  -1.678061e-01  0 
 2.540785e-02  -1.602476e-01  0 
 1.703160e-02  -1.685137e-01  0 
 3.426933e-02  -1.693263e-01  0 
 2.035176e-05  -7.681216e-02  0 
 1.303432e-02  -7.794080e-02  0 
 2.734853e-02  -7.900251e-02  0 
 -1.249954e-06  -9.915265e-02  0 
 1.497384e-02  -9.915004e-02  0 
 3.032977e-02  -1.008884e-01  0 
 2.253559e-06  -1.200383e-01  0 
 1.595722e-02  -1.208256e-01  0 
 3.257617e-02  -1.214947e-01  0 
 4.097383e-06  -1.407201e-01  0 
 1.664811e-02  -1.406503e-01  0 
 3.353347e-02  -1.418539e-01  0 
 1.399415e-05  -1.590517e-01  0 
 1.682004e-02  -1.598226e-01  0 
 3.424580e-02  -1.603566e-01  0 
VECTORS displacement_ITER4 FLOAT
 7.286846e-03  -8.804792e-02  0 
 2.114039e-02  -8.926121e-02  0 
 3.713846e-02  -9.069754e-02  0 
 7.473869e-03  -1.097938e-01  0 
 2.368506e-02  -1.104571e-01  0 
 3.983475e-02  -1.121688e-01  0 
 8.377279e-03  -1.305775e-01  0 
 2.446681e-02  -1.313398e-01  0 
 8.121161e-03  -1.501940e-01  0 
 2.549905e-02  -1.507282e-01  0 
 8.631117e-03  -1.678952e-01  0 
 2.545004e-02  -1.691414e-01  0 
 7.559258e-03  -7.701345e-02  0 
 -8.423159e-06  -8.689307e-02  0 
 1.905949e-02  -7.890095e-02  0 
 1.465186e-02  -8.949001e-02  0 
 3.551203e-02  -7.939513e-02  0 
 2.798661e-02  -8.912716e-02  0 
 6.587843e-03  -9.917222e-02  0 
 4.665938e-06  -1.104497e-01  0 
 2.328572e-02  -9.944848e-02  0 
 1.517762e-02  -1.093040e-01  0 
 3.817506e-02  -1.021808e-01  0 
 3.223916e-02  -1.118410e-01  0 
 8.565982e-03  -1.201842e-01  0 
 2.438761e-06  -1.299667e-01  0 
 2.365398e-02  -1.213904e-01  0 
 1.656060e-02  -1.313585e-01  0 
 4.138845e-02  -1.218021e-01  0 
 3.275957e-02  -1.313726e-01  0 
 7.913397e-03  -1.406637e-01  0 
 2.164807e-06  -1.503711e-01  0 
 2.535159e-02  -1.408871e-01  0 
 1.666676e-02  -1.501403e-01  0 
 3.412632e-02  -1.514651e-01  0 
 8.489685e-03  -1.591881e-01  0 
 -1.415385e-06  -1.678203e-01  0 
 2.540616e-02  -1.602466e-01  0 
 1.703372e-02  -1.685108e-01  0 
 3.425680e-02  -1.693129e-01  0 
 -6.099914e-06  -7.681368e-02  0 
 1.303178e-02  -7.792181e-02  0 
 2.733605e-02  -7.900009e-02  0 
 -1.378927e-06  -9.915124e-02  0 
 1.496889e-02  -9.915051e-02  0 
 3.032355e-02  -1.008755e-01  0 
 4.576486e-06  -1.200385e-01  0 
 1.595235e-02  -1.208252e-01  0 
 3.257396e-02  -1.214871e-01  0 
 8.148253e-07  -1.407261e-01  0 
 1.664224e-02  -1.406477e-01  0 
 3.352190e-02  -1.418515e-01  0 
 1.580017e-06  -1.590421e-01  0 
 1.682076e-02  -1.598198e-01  0 
 3.423820e-02  -1.603563e-01  0 
VECTORS displacement_ITER5 FLOAT
 7.285153e-03  -8.804240e-02  0 
 2.114045e-02  -8.925597e-02  0 
 3.713940e-02  -9.069467e-02  0 
 7.472413e-03  -1.097901e-01  0 
 2.368612e-02  -1.104555e-01  0 
 3.984532e-02  -1.121671e-01  0 
 8.375861e-03  -1.305797e-01  0 
 2.446810e-02  -1.313430e-01  0 
 8.120199e-03  -1.501981e-01  0 
 2.549951e-02  -1.507305e-01  0 
 8.629189e-03  -1.679000e-01  0 
 2.544948e-02  -1.691481e-01  0 
 7.556093e-03  -7.701542e-02  0 
 1.273820e-06  -8.688510e-02  0 
 1.906183e-02  -7.889853e-02  0 
 1.465089e-02  -8.948546e-02  0 
 3.551738e-02  -7.938827e-02  0 
 2.798674e-02  -8.912352e-02  0 
 6.586965e-03  -9.916686e-02  0 
 -1.068869e-06  -1.104466e-01  0 
 2.328632e-02  -9.944474e-02  0 
 1.517741e-02  -1.093011e-01  0 
 3.817952e-02  -1.021842e-01  0 
 3.224370e-02  -1.118398e-01  0 
 8.564270e-03  -1.201843e-01  0 
 -1.704257e-07  -1.299688e-01  0 
 2.365537e-02  -1.213922e-01  0 
 1.656081e-02  -1.313608e-01  0 
 4.139768e-02  -1.218053e-01  0 
 3.276197e-02  -1.313759e-01  0 
 7.912569e-03  -1.406667e-01  0 
 3.422626e-07  -1.503759e-01  0 
 2.535235e-02  -1.408900e-01  0 
 1.666678e-02  -1.501439e-01  0 
 3.412772e-02  -1.514670e-01  0 
 8.488236e-03  -1.591932e-01  0 
 -1.705549e-06  -1.678245e-01  0 
 2.540609e-02  -1.602501e-01  0 
 1.703224e-02  -1.685161e-01  0 
 3.426091e-02  -1.693213e-01  0 
 2.139694e-06  -7.681958e-02  0 
 1.303042e-02  -7.791582e-02  0 
 2.733366e-02  -7.899415e-02  0 
 -1.081678e-06  -9.914237e-02  0 
 1.496820e-02  -9.914625e-02  0 
 3.032659e-02  -1.008728e-01  0 
 -6.530184e-07  -1.200381e-01  0 
 1.595238e-02  -1.208255e-01  0 
 3.257787e-02  -1.214899e-01  0 
 -3.939456e-07  -1.407280e-01  0 
 1.664253e-02  -1.406508e-01  0 
 3.351908e-02  -1.418537e-01  0 
 -6.379454e-07  -1.590473e-01  0 
 1.681959e-02  -1.598242e-01  0 
 3.424102e-02  -1.603589e-01  0 
VECTORS displacement_ITER6 FLOAT
 7.285994e-03  -8.804350e-02  0 
 2.114107e-02  -8.925710e-02  0 
 3.714024e-02  -9.069611e-02  0 
 7.473013e-03  -1.097910e-01  0 
 2.368644e-02  -1.104561e-01  0 
 3.984402e-02  -1.121678e-01  0 
 8.375989e-03  -1.305796e-01  0 
 2.446811e-02  -1.313429e-01  0 
 8.120562e-03  -1.501982e-01  0 
 2.549960e-02  -1.507303e-01  0 
 8.628716e-03  -1.678990e-01  0 
 2.544963e-02  -1.691483e-01  0 
 7.557507e-03  -7.701429e-02  0 
 -1.330780e-07  -8.688675e-02  0 
 1.906250e-02  -7.889991e-02  0 
 1.465175e-02  -8.948641e-02  0 
 3.551795e-02  -7.939012e-02  0 
 2.798726e-02  -8.912495e-02  0 
 6.587613e-03  -9.916798e-02  0 
 7.224192e-08  -1.104477e-01  0 
 2.328683e-02  -9.944566e-02  0 
 1.517794e-02  -1.093019e-01  0 
 3.817817e-02  -1.021846e-01  0 
 3.224326e-02  -1.118404e-01  0 
 8.564543e-03  -1.201847e-01  0 
 1.406376e-07  -1.299686e-01  0 
 2.365548e-02  -1.213922e-01  0 
 1.656094e-02  -1.313608e-01  0 
 4.139641e-02  -1.218054e-01  0 
 3.276194e-02  -1.313758e-01  0 
 7.912769e-03  -1.406665e-01  0 
 1.166126e-07  -1.503762e-01  0 
 2.535244e-02  -1.408899e-01  0 
 1.666694e-02  -1.501437e-01  0 
 3.412815e-02  -1.514668e-01  0 
 8.488140e-03  -1.591934e-01  0 
 2.353038e-07  -1.678223e-01  0 
 2.540621e-02  -1.602501e-01  0 
 1.703201e-02  -1.685161e-01  0 
 3.426106e-02  -1.693215e-01  0 
 -1.678819e-08  -7.681764e-02  0 
 1.303158e-02  -7.791640e-02  0 
 2.733411e-02  -7.899550e-02  0 
 5.832249e-08  -9.914319e-02  0 
 1.496886e-02  -9.914722e-02  0 
 3.032664e-02  -1.008739e-01  0 
 9.743835e-08  -1.200388e-01  0 
 1.595263e-02  -1.208258e-01  0 
 3.257761e-02  -1.214897e-01  0 
 -1.098131e-07  -1.407266e-01  0 
 1.664271e-02  -1.406507e-01  0 
 3.351869e-02  -1.418535e-01  0 
 1.007735e-07  -1.590481e-01  0 
 1.681943e-02  -1.598241e-01  0 
 3.424139e-02  -1.603589e-01  0 
VECTORS displacement_ITER7 FLOAT
 7.285946e-03  -8.804348e-02  0 
 2.114090e-02  -8.925709e-02  0 
 3.714024e-02  -9.069609e-02  0 
 7.472976e-03  -1.097909e-01  0 
 2.368636e-02  -1.104561e-01  0 
 3.984393e-02  -1.121679e-01  0 
 8.375986e-03  -1.305796e-01  0 
 2.446805e-02  -1.313430e-01  0 
 8.120531e-03  -1.501981e-01  0 
 2.549954e-02  -1.507303e-01  0 
 8.628779e-03  -1.678991e-01  0 
 2.544960e-02  -1.691483e-01  0 
 7.557492e-03  -7.701433e-02  0 
 -3.196159e-09  -8.688675e-02  0 
 1.906222e-02  -7.889974e-02  0 
 1.465162e-02  -8.948638e-02  0 
 3.551807e-02  -7.939010e-02  0 
 2.798723e-02  -8.912495e-02  0 
 6.587550e-03  -9.916791e-02  0 
 1.400089e-09  -1.104476e-01  0 
 2.328672e-02  -9.944563e-02  0 
 1.517786e-02  -1.093018e-01  0 
 3.817823e-02  -1.021843e-01  0 
 3.224319e-02  -1.118404e-01  0 
 8.564554e-03  -1.201847e-01  0 
 8.305113e-09  -1.299688e-01  0 
 2.365542e-02  -1.213922e-01  0 
 1.656090e-02  -1.313608e-01  0 
 4.139631e-02  -1.218054e-01  0 
 3.276196e-02  -1.313759e-01  0 
 7.912724e-03  -1.406666e-01  0 
 -2.146372e-08  -1.503760e-01  0 
 2.535239e-02  -1.408899e-01  0 
 1.666689e-02  -1.501437e-01  0 
 3.412816e-02  -1.514668e-01  0 
 8.488161e-03  -1.591934e-01  0 
 5.056080e-08  -1.678226e-01  0 
 2.540617e-02  -1.602502e-01  0 
 1.703204e-02  -1.685161e-01  0 
 3.426093e-02  -1.693214e-01  0 
 1.753675e-08  -7.681770e-02  0 
 1.303131e-02  -7.791650e-02  0 
 2.733405e-02  -7.899536e-02  0 
 3.905721e-08  -9.914311e-02  0 
 1.496877e-02  -9.914717e-02  0 
 3.032657e-02  -1.008738e-01  0 
 1.609737e-09  -1.200387e-01  0 
 1.595259e-02  -1.208258e-01  0 
 3.257758e-02  -1.214897e-01  0 
 -2.098086e-08  -1.407267e-01  0 
 1.664265e-02  -1.406507e-01  0 
 3.351866e-02  -1.418535e-01  0 
 4.494939e-09  -1.590480e-01  0 
 1.681945e-02  -1.598241e-01  0 
 3.424131e-02  -1.603589e-01  0 
VECTORS displacement_ITER8 FLOAT
 7.285917e-03  -8.804346e-02  0 
 2.114091e-02  -8.925706e-02  0 
 3.714019e-02  -9.069605e-02  0 
 7.472966e-03  -1.097909e-01  0 
 2.368636e-02  -1.104561e-01  0 
 3.984393e-02  -1.121679e-01  0 
 8.375993e-03  -1.305796e-01  0 
 2.446806e-02  -1.313430e-01  0 
 8.120528e-03  -1.501981e-01  0 
 2.549955e-02  -1.507303e-01  0 
 8.628789e-03  -1.678991e-01  0 
 2.544960e-02  -1.691483e-01  0 
 7.557454e-03  -7.701434e-02  0 
 -7.987951e-09  -8.688672e-02  0 
 1.906225e-02  -7.889970e-02  0 
 1.465161e-02  -8.948636e-02  0 
 3.551801e-02  -7.939014e-02  0 
 2.798724e-02  -8.912491e-02  0 
 6.587537e-03  -9.916789e-02  0 
 1.449320e-09  -1.104476e-01  0 
 2.328671e-02  -9.944561e-02  0 
 1.517786e-02  -1.093018e-01  0 
 3.817826e-02  -1.021842e-01  0 
 3.224319e-02  -1.118404e-01  0 
 8.564552e-03  -1.201846e-01  0 
 -4.346518e-10  -1.299688e-01  0 
 2.365542e-02  -1.213922e-01  0 
 1.656090e-02  -1.313608e-01  0 
 4.139630e-02  -1.218054e-01  0 
 3.276198e-02  -1.313759e-01  0 
 7.912728e-03  -1.406665e-01  0 
 -4.196945e-11  -1.503760e-01  0 
 2.535240e-02  -1.408899e-01  0 
 1.666690e-02  -1.501437e-01  0 
 3.412816e-02  -1.514668e-01  0 
 8.488160e-03  -1.591934e-01  0 
 -1.724511e-09  -1.678226e-01  0 
 2.540617e-02  -1.602502e-01  0 
 1.703205e-02  -1.685161e-01  0 
 3.426093e-02  -1.693214e-01  0 
 -9.158004e-09  -7.681772e-02  0 
 1.303130e-02  -7.791649e-02  0 
 2.733406e-02  -7.899536e-02  0 
 4.839009e-09  -9.914309e-02  0 
 1.496876e-02  -9.914715e-02  0 
 3.032656e-02  -1.008738e-01  0 
 -7.553938e-10  -1.200387e-01  0 
 1.595259e-02  -1.208257e-01  0 
 3.257758e-02  -1.214897e-01  0 
 -1.029260e-09  -1.407267e-01  0 
 1.664266e-02  -1.406507e-01  0 
 3.351869e-02  -1.418535e-01  0 
 -3.355045e-09  -1.590480e-01  0 
 1.681945e-02  -1.598241e-01  0 
 3.424130e-02  -1.603589e-01  0 
VECTORS displacement_ITER9 FLOAT
 7.285921e-03  -8.804346e-02  0 
 2.114090e-02  -8.925707e-02  0 
 3.714020e-02  -9.069605e-02  0 
 7.472961e-03  -1.097909e-01  0 
 2.368636e-02  -1.104561e-01  0 
 3.984393e-02  -1.121679e-01  0 
 8.375987e-03  -1.305796e-01  0 
 2.446805e-02  -1.313430e-01  0 
 8.120525e-03  -1.501981e-01  0 
 2.549954e-02  -1.507303e-01  0 
 8.628782e-03  -1.678991e-01  0 
 2.544960e-02  -1.691483e-01  0 
 7.557461e-03  -7.701434e-02  0 
 1.175986e-09  -8.688671e-02  0 
 1.906224e-02  -7.889970e-02  0 
 1.465161e-02  -8.948637e-02  0 
 3.551802e-02  -7.939013e-02  0 
 2.798724e-02  -8.912492e-02  0 
 6.587537e-03  -9.916789e-02  0 
 -2.579134e-10  -1.104476e-01  0 
 2.328671e-02  -9.944562e-02  0 
 1.517785e-02  -1.093018e-01  0 
 3.817825e-02  -1.021843e-01  0 
 3.224318e-02  -1.118404e-01  0 
 8.564544e-03  -1.201846e-01  0 
 -4.715403e-10  -1.299688e-01  0 
 2.365542e-02  -1.213922e-01  0 
 1.656090e-02  -1.313608e-01  0 
 4.139631e-02  -1.218054e-01  0 
 3.276197e-02  -1.313759e-01  0 
 7.912725e-03  -1.406665e-01  0 
 4.113548e-10  -1.503760e-01  0 
 2.535240e-02  -1.408899e-01  0 
 1.666689e-02  -1.501437e-01  0 
 3.412816e-02  -1.514668e-01  0 
 8.488153e-03  -1.591934e-01  0 
 -8.046478e-10  -1.678226e-01  0 
 2.540617e-02  -1.602502e-01  0 
 1.703204e-02  -1.685161e-01  0 
 3.426094e-02  -1.693214e-01  0 
 8.212689e-10  -7.681772e-02  0 
 1.303130e-02  -7.791650e-02  0 
 2.733405e-02  -7.899535e-02  0 
 7.650691e-10  -9.914310e-02  0 
 1.496876e-02  -9.914715e-02  0 
 3.032656e-02  -1.008738e-01  0 
 -5.523910e-10  -1.200387e-01  0 
 1.595259e-02  -1.208257e-01  0 
 3.257757e-02  -1.214897e-01  0 
 -5.727506e-10  -1.407267e-01  0 
 1.664265e-02  -1.406507e-01  0 
 3.351868e-02  -1.418535e-01  0 
 -7.491324e-10  -1.590480e-01  0 
 1.681945e-02  -1.598241e-01  0 
 3.424130e-02  -1.603589e-01  0 
VECTORS displacement_ITER10 FLOAT
 7.285921e-03  -8.804346e-02  0 
 2.114090e-02  -8.925707e-02  0 
 3.714020e-02  -9.069605e-02  0 
 7.472962e-03  -1.097909e-01  0 
 2.368636e-02  -1.104561e-01  0 
 3.984393e-02  -1.121679e-01  0 
 8.375987e-03  -1.305796e-01  0 
 2.446805e-02  -1.313430e-01  0 
 8.120526e-03  -1.501981e-01  0 
 2.549955e-02  -1.507303e-01  0 
 8.628783e-03  -1.678991e-01  0 
 2.544960e-02  -1.691483e-01  0 
 7.557461e-03  -7.701434e-02  0 
 -1.254028e-10  -8.688671e-02  0 
 1.906224e-02  -7.889971e-02  0 
 1.465161e-02  -8.948637e-02  0 
 3.551802e-02  -7.939013e-02  0 
 2.798724e-02  -8.912492e-02  0 
 6.587537e-03  -9.916789e-02  0 
 -4.854463e-11  -1.104476e-01  0 
 2.328671e-02  -9.944562e-02  0 
 1.517785e-02  -1.093018e-01  0 
 3.817825e-02  -1.021843e-01  0 
 3.224319e-02  -1.118404e-01  0 
 8.564545e-03  -1.201846e-01  0 
 -8.569392e-11  -1.299688e-01  0 
 2.365542e-02  -1.213922e-01  0 
 1.656090e-02  -1.313608e-01  0 
 4.139631e-02  -1.218054e-01  0 
 3.276197e-02  -1.313759e-01  0 
 7.912726e-03  -1.406665e-01  0 
 3.752487e-10  -1.503760e-01  0 
 2.535240e-02  -1.408899e-01  0 
 1.666689e-02  -1.501437e-01  0 
 3.412815e-02  -1.514668e-01  0 
 8.488154e-03  -1.591934e-01  0 
 -1.363163e-10  -1.678226e-01  0 
 2.540617e-02  -1.602502e-01  0 
 1.703204e-02  -1.685161e-01  0 
 3.426094e-02  -1.693214e-01  0 
 -4.208316e-10  -7.681772e-02  0 
 1.303130e-02  -7.791650e-02  0 
 2.733405e-02  -7.899535e-02  0 
 1.177520e-10  -9.914310e-02  0 
 1.496876e-02  -9.914715e-02  0 
 3.032656e-02  -1.008738e-01  0 
 -7.114543e-11  -1.200387e-01  0 
 1.595259e-02  -1.208257e-01  0 
 3.257757e-02  -1.214897e-01  0 
 1.407241e-10  -1.407267e-01  0 
 1.664266e-02  -1.406507e-01  0 
 3.351868e-02  -1.418535e-01  0 
 7.798136e-11  -1.590480e-01  0 
 1.681945e-02  -1.598241e-01  0 
 3.424130e-02  -1.603589e-01  0 
VECTORS displacement_ITER11 FLOAT
 7.285921e-03  -8.804346e-02  0 
 2.114090e-02  -8.925707e-02  0 
 3.714020e-02  -9.069605e-02  0 
 7.472962e-03  -1.097909e-01  0 
 2.368636e-02  -1.104561e-01  0 
 3.984393e-02  -1.121679e-01  0 
 8.375987e-03  -1.305796e-01  0 
 2.446805e-02  -1.313430e-01  0 
 8.120526e-03  -1.501981e-01  0 
 2.549955e-02  -1.507303e-01  0 
 8.628783e-03  -1.678991e-01  0 
 2.544960e-02  -1.691483e-01  0 
 7.557461e-03  -7.701434e-02  0 
 1.023219e-10  -8.688671e-02  0 
 1.906224e-02  -7.889971e-02  0 
 1.465161e-02  -8.948637e-02  0 
 3.551802e-02  -7.939013e-02  0 
 2.798724e-02  -8.912492e-02  0 
 6.587537e-03  -9.916789e-02  0 
 1.830468e-11  -1.104476e-01  0 
 2.328671e-02  -9.944562e-02  0 
 1.517785e-02  -1.093018e-01  0 
 3.817825e-02  -1.021843e-01  0 
 3.224319e-02  -1.118404e-01  0 
 8.564545e-03  -1.201846e-01  0 
 1.606842e-11  -1.299688e-01  0 
 2.365542e-02  -1.213922e-01  0 
 1.656090e-02  -1.313608e-01  0 
 4.139631e-02  -1.218054e-01  0 
 3.276197e-02  -1.313759e-01  0 
 7.912726e-03  -1.406665e-01  0 
 -3.536553e-11  -1.503760e-01  0 
 2.535240e-02  -1.408899e-01  0 
 1.666689e-02  -1.501437e-01  0 
 3.412815e-02  -1.514668e-01  0 
 8.488154e-03  -1.591934e-01  0 
 2.235135e-11  -1.678226e-01  0 
 2.540617e-02  -1.602502e-01  0 
 1.703204e-02  -1.685161e-01  0 
 3.426094e-02  -1.693214e-01  0 
 4.512219e-11  -7.681772e-02  0 
 1.303130e-02  -7.791650e-02  0 
 2.733405e-02  -7.899535e-02  0 
 1.579020e-11  -9.914310e-02  0 
 1.496876e-02  -9.914715e-02  0 
 3.032656e-02  -1.008738e-01  0 
 1.886949e-11  -1.200387e-01  0 
 1.595259e-02  -1.208257e-01  0 
 3.257757e-02  -1.214897e-01  0 
 -5.929222e-12  -1.407267e-01  0 
 1.664266e-02  -1.406507e-01  0 
 3.351868e-02  -1.418535e-01  0 
 -1.068041e-11  -1.590480e-01  0 
 1.681945e-02  -1.598241e-01  0 
 3.424130e-02  -1.603589e-01  0 
CELL_DATA 40
TENSORS element_stresses FLOAT
 -1.489122e-01  -9.622673e-01  0 
 -9.622673e-01  -3.153477e-01  0 
 0  0  0 

 3.545322e-02  -3.753639e-01  0 
 -3.753639e-01  -1.066174e-01  0 
 0  0  0 

 1.908128e-01  -3.618074e-01  0 
 -3.618074e-01  1.954860e-02  0 
 0  0  0 

 6.028119e-01  -8.259668e-01  0 
 -8.259668e-01  1.881441e-01  0 
 0  0  0 

 3.704597e-01  -6.305461e-01  0 
 -6.305461e-01  -2.820447e-01  0 
 0  0  0 

 -5.784873e-02  -3.656676e-01  0 
 -3.656676e-01  -7.643167e-02  0 
 0  0  0 

 5.906539e-02  -3.025759e-01  0 
 -3.025759e-01  4.931381e-02  0 
 0  0  0 

 -1.775570e-01  -7.751247e-01  0 
 -7.751247e-01  -3.376999e-01  0 
 0  0  0 

 5.367496e-01  -7.757064e-01  0 
 -7.757064e-01  1.471916e-01  0 
 0  0  0 

 2.741680e-01  -7.217788e-01  0 
 -7.217788e-01  1.842124e-01  0 
 0  0  0 

 3.800733e-02  -6.674855e-01  0 
 -6.674855e-01  -2.791382e-01  0 
 0  0  0 

 2.250729e-01  -3.096630e-01  0 
 -3.096630e-01  2.720702e-03  0 
 0  0  0 

 1.380710e-01  -2.397084e-01  0 
 -2.397084e-01  -1.026588e-01  0 
 0  0  0 

 8.090728e-02  -2.454003e-01  0 
 -2.454003e-01  -1.163549e-01  0 
 0  0  0 

 1.698314e-01  -2.114543e-01  0 
 -2.114543e-01  -3.094613e-02  0 
 0  0  0 

 2.735835e-01  -6.072896e-01  0 
 -6.072896e-01  1.842227e-01  0 
 0  0  0 

 -9.134093e-02  -5.206925e-01  0 
 -5.206925e-01  -1.787645e-01  0 
 0  0  0 

 1.000391e-01  -2.624898e-01  0 
 -2.624898e-01  2.241060e-02  0 
 0  0  0 

 1.250505e-02  -2.403347e-01  0 
 -2.403347e-01  -8.228250e-02  0 
 0  0  0 

 -3.801122e-04  -2.060410e-01  0 
 -2.060410e-01  -7.122588e-02  0 
 0  0  0 

 6.903059e-02  -1.875318e-01  0 
 -1.875318e-01  -6.722249e-03  0 
 0  0  0 

 -3.101542e-02  -4.779114e-01  0 
 -4.779114e-01  -3.056849e-01  0 
 0  0  0 

 3.722679e-01  -4.411335e-01  0 
 -4.411335e-01  -1.695221e-02  0 
 0  0  0 

 2.105268e-01  -4.032102e-01  0 
 -4.032102e-01  3.706790e-02  0 
 0  0  0 

 -3.453244e-02  -1.752347e-01  0 
 -1.752347e-01  -3.789779e-02  0 
 0  0  0 

 1.534028e-02  -1.210630e-01  0 
 -1.210630e-01  1.650089e-02  0 
 0  0  0 

 -1.343041e-01  -3.787633e-01  0 
 -3.787633e-01  -1.933434e-01  0 
 0  0  0 

 1.977326e-01  -3.415230e-01  0 
 -3.415230e-01  1.504145e-02  0 
 0  0  0 

 5.563089e-02  -2.689747e-01  0 
 -2.689747e-01  3.074302e-02  0 
 0  0  0 

 -1.677756e-02  -2.755501e-01  0 
 -2.755501e-01  -1.701831e-01  0 
 0  0  0 

 7.374170e-02  -1.370879e-01  0 
 -1.370879e-01  -2.770263e-02  0 
 0  0  0 

 1.354878e-02  -1.022642e-01  0 
 -1.022642e-01  -8.094149e-02  0 
 0  0  0 

 8.293757e-02  -1.628638e-01  0 
 -1.628638e-01  3.137284e-02  0 
 0  0  0 

 1.627939e-02  -5.590024e-02  0 
 -5.590024e-02  -3.948791e-02  0 
 0  0  0 

 1.908244e-02  -6.915165e-02  0 
 -6.915165e-02  -2.308872e-02  0 
 0  0  0 

 -1.344062e-02  -6.849362e-02  0 
 -6.849362e-02  -5.466439e-02  0 
 0  0  0 

 -1.158142e-03  -2.550542e-02  0 
 -2.550542e-02  -6.273070e-02  0 
 0  0  0 

 -3.377233e-03  -2.253318e-02  0 
 -2.253318e-02  -5.392777e-02  0 
 0  0  0 

 -5.139128e-02  -1.458862e-01  0 
 -1.458862e-01  -1.844807e-01  0 
 0  0  0 

 -4.727367e-03  -3.294179e-02  0 
 -3.294179e-02  -5.780304e-02  0 
 0  0  0 

TENSORS element_stresses FLOAT
 -1.489122e-01  -9.622673e-01  0 
 -9.622673e-01  -3.153477e-01  0 
 0  0  0 

 3.545322e-02  -3.753639e-01  0 
 -3.753639e-01  -1.066174e-01  0 
 0  0  0 

 1.908128e-01  -3.618074e-01  0 
 -3.618074e-01  1.954860e-02  0 
 0  0  0 

 6.028119e-01  -8.259668e-01  0 
 -8.259668e-01  1.881441e-01  0 
 0  0  0 

 3.704597e-01  -6.305461e-01  0 
 -6.305461e-01  -2.820447e-01  0 
 0  0  0 

 -5.784873e-02  -3.656676e-01  0 
 -3.656676e-01  -7.643167e-02  0 
 0  0  0 

 5.906539e-02  -3.025759e-01  0 
 -3.025759e-01  4.931381e-02  0 
 0  0  0 

 -1.775570e-01  -7.751247e-01  0 
 -7.751247e-01  -3.376999e-01  0 
 0  0  0 

 5.367496e-01  -7.757064e-01  0 
 -7.757064e-01  1.471916e-01  0 
 0  0  0 

 2.741680e-01  -7.217788e-01  0 
 -7.217788e-01  1.842124e-01  0 
 0  0  0 

 3.800733e-02  -6.674855e-01  0 
 -6.674855e-01  -2.791382e-01  0 
 0  0  0 

 2.250729e-01  -3.096630e-01  0 
 -3.096630e-01  2.720702e-03  0 
 0  0  0 

 1.380710e-01  -2.397084e-01  0 
 -2.397084e-01  -1.026588e-01  0 
 0  0  0 

 8.090728e-02  -2.454003e-01  0 
 -2.454003e-01  -1.163549e-01  0 
 0  0  0 

 1.698314e-01  -2.114543e-01  0 
 -2.114543e-01  -3.094613e-02  0 
 0  0  0 

 2.735835e-01  -6.072896e-01  0 
 -6.072896e-01  1.842227e-01  0 
 0  0  0 

 -9.134093e-02  -5.206925e-01  0 
 -5.206925e-01  -1.787645e-01  0 
 0  0  0 

 1.000391e-01  -2.624898e-01  0 
 -2.624898e-01  2.241060e-02  0 
 0  0  0 

 1.250505e-02  -2.403347e-01  0 
 -2.403347e-01  -8.228250e-02  0 
 0  0  0 

 -3.801122e-04  -2.060410e-01  0 
 -2.060410e-01  -7.122588e-02  0 
 0  0  0 

 6.903059e-02  -1.875318e-01  0 
 -1.875318e-01  -6.722249e-03  0 
 0  0  0 

 -3.101542e-02  -4.779114e-01  0 
 -4.779114e-01  -3.056849e-01  0 
 0  0  0 

 3.722679e-01  -4.411335e-01  0 
 -4.411335e-01  -1.695221e-02  0 
 0  0  0 

 2.105268e-01  -4.032102e-01  0 
 -4.032102e-01  3.706790e-02  0 
 0  0  0 

 -3.453244e-02  -1.752347e-01  0 
 -1.752347e-01  -3.789779e-02  0 
 0  0  0 

 1.534028e-02  -1.210630e-01  0 
 -1.210630e-01  1.650089e-02  0 
 0  0  0 

 -1.343041e-01  -3.787633e-01  0 
 -3.787633e-01  -1.933434e-01  0 
 0  0  0 

 1.977326e-01  -3.415230e-01  0 
 -3.415230e-01  1.504145e-02  0 
 0  0  0 

 5.563089e-02  -2.689747e-01  0 
 -2.689747e-01  3.074302e-02  0 
 0  0  0 

 -1.677756e-02  -2.755501e-01  0 
 -2.755501e-01  -1.701831e-01  0 
 0  0  0 

 7.374170e-02  -1.370879e-01  0 
 -1.370879e-01  -2.770263e-02  0 
 0  0  0 

 1.354878e-02  -1.022642e-01  0 
 -1.022642e-01  -8.094149e-02  0 
 0  0  0 

 8.293757e-02  -1.628638e-01  0 
 -1.628638e-01  3.137284e-02  0 
 0  0  0 

 1.627939e-02  -5.590024e-02  0 
 -5.590024e-02  -3.948791e-02  0 
 0  0  0 

 1.908244e-02  -6.915165e-02  0 
 -6.915165e-02  -2.308872e-02  0 
 0  0  0 

 -1.344062e-02  -6.849362e-02  0 
 -6.849362e-02  -5.466439e-02  0 
 0  0  0 

 -1.158142e-03  -2.550542e-02  0 
 -2.550542e-02  -6.273070e-02  0 
 0  0  0 

 -3.377233e-03  -2.253318e-02  0 
 -2.253318e-02  -5.392777e-02  0 
 0  0  0 

 -5.139128e-02  -1.458862e-01  0 
 -1.458862e-01  -1.844807e-01  0 
 0  0  0 

 -4.727367e-03  -3.294179e-02  0 
 -3.294179e-02  -5.780304e-02  0 
 0  0  0 

