# vtk DataFile Version 3.1
this is an vtk file created by FEMAC
ASCII
DATASET UNSTRUCTURED_GRID
POINTS 55 FLOAT
5.000000 2.000000 0.000000
5.000000 3.000000 0.000000
5.000000 4.000000 0.000000
6.000000 2.000000 0.000000
6.000000 3.000000 0.000000
6.000000 4.000000 0.000000
7.000000 3.000000 0.000000
7.000000 4.000000 0.000000
8.000000 3.000000 0.000000
8.000000 4.000000 0.000000
9.000000 3.000000 0.000000
9.000000 4.000000 0.000000
4.500000 2.000000 0.000000
4.500000 3.000000 0.000000
5.000000 2.500000 0.000000
4.500000 4.000000 0.000000
5.000000 3.500000 0.000000
5.000000 4.500000 0.000000
5.500000 2.000000 0.000000
5.500000 3.000000 0.000000
6.000000 2.500000 0.000000
5.500000 4.000000 0.000000
6.000000 3.500000 0.000000
6.000000 4.500000 0.000000
6.500000 2.000000 0.000000
6.500000 3.000000 0.000000
7.000000 2.500000 0.000000
6.500000 4.000000 0.000000
7.000000 3.500000 0.000000
7.000000 4.500000 0.000000
7.500000 3.000000 0.000000
8.000000 2.500000 0.000000
7.500000 4.000000 0.000000
8.000000 3.500000 0.000000
8.000000 4.500000 0.000000
8.500000 3.000000 0.000000
9.000000 2.500000 0.000000
8.500000 4.000000 0.000000
9.000000 3.500000 0.000000
9.000000 4.500000 0.000000
4.500000 2.500000 0.000000
4.500000 3.500000 0.000000
4.500000 4.500000 0.000000
5.500000 2.500000 0.000000
5.500000 3.500000 0.000000
5.500000 4.500000 0.000000
6.500000 2.500000 0.000000
6.500000 3.500000 0.000000
6.500000 4.500000 0.000000
7.500000 2.500000 0.000000
7.500000 3.500000 0.000000
7.500000 4.500000 0.000000
8.500000 2.500000 0.000000
8.500000 3.500000 0.000000
8.500000 4.500000 0.000000
CELLS 40 200 
4 12  0 14 40
4 40 14  1 13
4 13  1 16 41
4 41 16  2 15
4 15  2 17 42
4 0 18 43 14
4 14 43 19  1
4 18  3 20 43
4 43 20  4 19
4 1 19 44 16
4 16 44 21  2
4 19  4 22 44
4 44 22  5 21
4 2 21 45 17
4 21  5 23 45
4 3 24 46 20
4 20 46 25  4
4 46 26  6 25
4 4 25 47 22
4 22 47 27  5
4 25  6 28 47
4 47 28  7 27
4 5 27 48 23
4 27  7 29 48
4 26 49 30  6
4 49 31  8 30
4 6 30 50 28
4 28 50 32  7
4 30  8 33 50
4 50 33  9 32
4 7 32 51 29
4 32  9 34 51
4 31 52 35  8
4 52 36 10 35
4 8 35 53 33
4 33 53 37  9
4 35 10 38 53
4 53 38 11 37
4 9 37 54 34
4 37 11 39 54
CELL_TYPES 40
9 9 9 9 9 9 9 9 9 9 9 9 9 9 9 9 9 9 9 9 9 9 9 9 9 9 9 9 9 9 9 9 9 9 9 9 9 9 9 9 
POINT_DATA 55
VECTORS displacement_ITER1 FLOAT
 -1.864498e-01  -4.322995e-01  0 
 -1.494350e-01  -4.326792e-01  0 
 -1.067323e-01  -4.285823e-01  0 
 -1.958467e-01  -4.874837e-01  0 
 -1.522622e-01  -4.848363e-01  0 
 -1.091960e-01  -4.850851e-01  0 
 -1.509121e-01  -5.366890e-01  0 
 -1.146970e-01  -5.362122e-01  0 
 -1.485619e-01  -5.739575e-01  0 
 -1.213427e-01  -5.720684e-01  0 
 -1.473879e-01  -6.014391e-01  0 
 -1.249793e-01  -5.905095e-01  0 
 -1.830050e-01  -4.109163e-01  0 
 -1.457406e-01  -4.094216e-01  0 
 -1.667216e-01  -4.317076e-01  0 
 -1.067585e-01  -3.926175e-01  0 
 -1.299261e-01  -4.321042e-01  0 
 -7.558093e-02  -4.272518e-01  0 
 -1.929312e-01  -4.600613e-01  0 
 -1.524554e-01  -4.580086e-01  0 
 -1.740024e-01  -4.866246e-01  0 
 -1.061658e-01  -4.584732e-01  0 
 -1.300756e-01  -4.839176e-01  0 
 -8.835536e-02  -4.860006e-01  0 
 -1.957035e-01  -5.098684e-01  0 
 -1.510447e-01  -5.113103e-01  0 
 -1.733461e-01  -5.358738e-01  0 
 -1.126686e-01  -5.110867e-01  0 
 -1.333013e-01  -5.374499e-01  0 
 -9.315953e-02  -5.342567e-01  0 
 -1.503912e-01  -5.567806e-01  0 
 -1.613673e-01  -5.747993e-01  0 
 -1.174430e-01  -5.565192e-01  0 
 -1.338100e-01  -5.728396e-01  0 
 -1.138341e-01  -5.713528e-01  0 
 -1.472612e-01  -5.884192e-01  0 
 -1.598386e-01  -6.026604e-01  0 
 -1.240708e-01  -5.820717e-01  0 
 -1.356240e-01  -5.969021e-01  0 
 -1.184218e-01  -5.887381e-01  0 
 -1.657645e-01  -4.108202e-01  0 
 -1.264830e-01  -4.033795e-01  0 
 -7.350021e-02  -3.871764e-01  0 
 -1.706206e-01  -4.588721e-01  0 
 -1.301017e-01  -4.580515e-01  0 
 -8.442026e-02  -4.566849e-01  0 
 -1.744914e-01  -5.104860e-01  0 
 -1.316674e-01  -5.120486e-01  0 
 -8.962045e-02  -5.105201e-01  0 
 -1.659821e-01  -5.583530e-01  0 
 -1.336038e-01  -5.566063e-01  0 
 -1.053250e-01  -5.544229e-01  0 
 -1.606567e-01  -5.886505e-01  0 
 -1.342570e-01  -5.857575e-01  0 
 -1.159746e-01  -5.809052e-01  0 
VECTORS displacement_ITER2 FLOAT
 -1.006708e-01  -2.183482e-01  0 
 -6.554153e-02  -2.193597e-01  0 
 -2.680135e-02  -2.168305e-01  0 
 -1.101126e-01  -2.716604e-01  0 
 -6.888900e-02  -2.690427e-01  0 
 -2.872899e-02  -2.693014e-01  0 
 -6.814644e-02  -3.184951e-01  0 
 -3.378993e-02  -3.180988e-01  0 
 -6.650140e-02  -3.547902e-01  0 
 -3.978121e-02  -3.528967e-01  0 
 -6.557777e-02  -3.827301e-01  0 
 -4.318905e-02  -3.716291e-01  0 
 -9.724173e-02  -1.975554e-01  0 
 -6.175244e-02  -1.966128e-01  0 
 -8.181756e-02  -2.178942e-01  0 
 -2.721464e-02  -1.841736e-01  0 
 -4.766151e-02  -2.195216e-01  0 
 1.004374e-03  -2.163572e-01  0 
 -1.070494e-01  -2.451278e-01  0 
 -6.879745e-02  -2.436141e-01  0 
 -8.951698e-02  -2.708533e-01  0 
 -2.588037e-02  -2.442101e-01  0 
 -4.804627e-02  -2.680585e-01  0 
 -9.288402e-03  -2.704586e-01  0 
 -1.100150e-01  -2.928602e-01  0 
 -6.797066e-02  -2.942841e-01  0 
 -8.935980e-02  -3.177463e-01  0 
 -3.204717e-02  -2.941686e-01  0 
 -5.145886e-02  -3.192648e-01  0 
 -1.356975e-02  -3.162796e-01  0 
 -6.800990e-02  -3.378885e-01  0 
 -7.954101e-02  -3.557268e-01  0 
 -3.617758e-02  -3.376469e-01  0 
 -5.197799e-02  -3.536155e-01  0 
 -3.215681e-02  -3.523022e-01  0 
 -6.538115e-02  -3.694766e-01  0 
 -7.831839e-02  -3.840427e-01  0 
 -4.234252e-02  -3.630551e-01  0 
 -5.381152e-02  -3.779501e-01  0 
 -3.647793e-02  -3.698914e-01  0 
 -8.085144e-02  -1.976482e-01  0 
 -4.446455e-02  -1.925965e-01  0 
 2.364662e-03  -1.799211e-01  0 
 -8.585053e-02  -2.442165e-01  0 
 -4.791896e-02  -2.437022e-01  0 
 -6.582285e-03  -2.427635e-01  0 
 -9.015341e-02  -2.935180e-01  0 
 -4.977850e-02  -2.949556e-01  0 
 -1.026942e-02  -2.937366e-01  0 
 -8.313623e-02  -3.395186e-01  0 
 -5.176562e-02  -3.377054e-01  0 
 -2.472052e-02  -3.356467e-01  0 
 -7.903187e-02  -3.697825e-01  0 
 -5.242679e-02  -3.667111e-01  0 
 -3.408990e-02  -3.619511e-01  0 
VECTORS displacement_ITER3 FLOAT
 -5.691013e-02  -1.876175e-01  0 
 -3.874225e-02  -1.859932e-01  0 
 -1.963255e-02  -1.830258e-01  0 
 -7.655247e-02  -2.295411e-01  0 
 -4.735059e-02  -2.228375e-01  0 
 -1.673435e-02  -2.211710e-01  0 
 -5.233863e-02  -2.656772e-01  0 
 -1.643555e-02  -2.648982e-01  0 
 -5.874893e-02  -3.127632e-01  0 
 -1.464061e-02  -3.116450e-01  0 
 -6.005750e-02  -3.653801e-01  0 
 -1.507070e-02  -3.600637e-01  0 
 -5.232451e-02  -1.726764e-01  0 
 -3.344112e-02  -1.721839e-01  0 
 -4.551815e-02  -1.855419e-01  0 
 -2.146121e-02  -1.639371e-01  0 
 -3.024120e-02  -1.858531e-01  0 
 -7.166970e-03  -1.824236e-01  0 
 -6.732557e-02  -2.095111e-01  0 
 -4.454533e-02  -2.023443e-01  0 
 -6.355939e-02  -2.271330e-01  0 
 -1.634822e-02  -2.018272e-01  0 
 -3.118023e-02  -2.201817e-01  0 
 -5.708404e-04  -2.227335e-01  0 
 -7.741135e-02  -2.433299e-01  0 
 -4.900558e-02  -2.446108e-01  0 
 -7.006660e-02  -2.661701e-01  0 
 -1.781522e-02  -2.429594e-01  0 
 -3.509811e-02  -2.660130e-01  0 
 1.009801e-03  -2.638998e-01  0 
 -5.662397e-02  -2.880928e-01  0 
 -8.405631e-02  -3.146058e-01  0 
 -1.463698e-02  -2.877855e-01  0 
 -3.580202e-02  -3.113395e-01  0 
 7.567389e-03  -3.125310e-01  0 
 -5.946773e-02  -3.397147e-01  0 
 -8.565723e-02  -3.666446e-01  0 
 -1.518719e-02  -3.366500e-01  0 
 -3.722863e-02  -3.616741e-01  0 
 7.187516e-03  -3.600105e-01  0 
 -4.350170e-02  -1.728446e-01  0 
 -2.668072e-02  -1.694992e-01  0 
 -8.154113e-03  -1.616790e-01  0 
 -5.431790e-02  -2.054452e-01  0 
 -3.077525e-02  -2.016122e-01  0 
 -5.402791e-03  -2.009405e-01  0 
 -6.650667e-02  -2.446630e-01  0 
 -3.330677e-02  -2.434530e-01  0 
 9.938191e-04  -2.431952e-01  0 
 -7.677702e-02  -2.909625e-01  0 
 -3.547932e-02  -2.876246e-01  0 
 2.818127e-03  -2.870095e-01  0 
 -8.554207e-02  -3.402328e-01  0 
 -3.645489e-02  -3.379301e-01  0 
 8.209532e-03  -3.367146e-01  0 
VECTORS displacement_ITER4 FLOAT
 -7.561899e-02  -1.821909e-01  0 
 -4.124637e-02  -1.818023e-01  0 
 -1.129388e-02  -1.793563e-01  0 
 -8.237878e-02  -2.319316e-01  0 
 -4.639565e-02  -2.277021e-01  0 
 -1.203676e-02  -2.262396e-01  0 
 -4.708206e-02  -2.721936e-01  0 
 -1.554861e-02  -2.703474e-01  0 
 -4.725873e-02  -3.072737e-01  0 
 -1.738195e-02  -3.062167e-01  0 
 -4.631482e-02  -3.360853e-01  0 
 -1.850783e-02  -3.349235e-01  0 
 -7.233269e-02  -1.591567e-01  0 
 -3.665810e-02  -1.596595e-01  0 
 -5.602291e-02  -1.806645e-01  0 
 -1.229883e-02  -1.534063e-01  0 
 -2.726615e-02  -1.823171e-01  0 
 7.880796e-03  -1.780175e-01  0 
 -7.938352e-02  -2.091425e-01  0 
 -4.574128e-02  -2.038362e-01  0 
 -6.474936e-02  -2.308274e-01  0 
 -9.578738e-03  -2.035209e-01  0 
 -2.823970e-02  -2.252691e-01  0 
 4.059810e-03  -2.274941e-01  0 
 -8.370627e-02  -2.521149e-01  0 
 -4.604717e-02  -2.512907e-01  0 
 -6.482841e-02  -2.722308e-01  0 
 -1.505144e-02  -2.486486e-01  0 
 -3.165440e-02  -2.720049e-01  0 
 1.722940e-03  -2.688447e-01  0 
 -4.783959e-02  -2.901444e-01  0 
 -6.055169e-02  -3.083507e-01  0 
 -1.593987e-02  -2.894334e-01  0 
 -3.205669e-02  -3.063338e-01  0 
 -4.215709e-03  -3.064474e-01  0 
 -4.648069e-02  -3.222821e-01  0 
 -5.962538e-02  -3.360525e-01  0 
 -1.836869e-02  -3.210907e-01  0 
 -3.255001e-02  -3.360602e-01  0 
 -5.581601e-03  -3.343441e-01  0 
 -5.490153e-02  -1.595747e-01  0 
 -2.349264e-02  -1.589572e-01  0 
 7.946006e-03  -1.508558e-01  0 
 -6.073045e-02  -2.063344e-01  0 
 -2.784558e-02  -2.033547e-01  0 
 5.414401e-03  -2.023028e-01  0 
 -6.541992e-02  -2.515696e-01  0 
 -3.013494e-02  -2.501015e-01  0 
 3.611117e-03  -2.482796e-01  0 
 -6.230363e-02  -2.924553e-01  0 
 -3.192776e-02  -2.896086e-01  0 
 -2.999194e-03  -2.883560e-01  0 
 -6.021616e-02  -3.220827e-01  0 
 -3.233732e-02  -3.219778e-01  0 
 -4.520657e-03  -3.208961e-01  0 
VECTORS displacement_ITER5 FLOAT
 -7.472841e-02  -1.812578e-01  0 
 -4.222162e-02  -1.796676e-01  0 
 -1.591878e-02  -1.772620e-01  0 
 -8.108103e-02  -2.264271e-01  0 
 -4.798266e-02  -2.219761e-01  0 
 -1.563509e-02  -2.201719e-01  0 
 -4.981748e-02  -2.638747e-01  0 
 -1.687797e-02  -2.620549e-01  0 
 -5.216995e-02  -3.036710e-01  0 
 -1.536104e-02  -3.023321e-01  0 
 -5.202787e-02  -3.429423e-01  0 
 -1.547891e-02  -3.418162e-01  0 
 -7.144546e-02  -1.588462e-01  0 
 -3.769588e-02  -1.589296e-01  0 
 -5.594795e-02  -1.790646e-01  0 
 -1.684974e-02  -1.555460e-01  0 
 -2.977859e-02  -1.800871e-01  0 
 -1.248425e-03  -1.758008e-01  0 
 -7.759360e-02  -2.063000e-01  0 
 -4.687092e-02  -1.997840e-01  0 
 -6.524066e-02  -2.252812e-01  0 
 -1.397084e-02  -1.990936e-01  0 
 -3.090488e-02  -2.193457e-01  0 
 -5.789527e-04  -2.214605e-01  0 
 -8.291039e-02  -2.451241e-01  0 
 -4.815126e-02  -2.440716e-01  0 
 -6.663491e-02  -2.641664e-01  0 
 -1.766810e-02  -2.412293e-01  0 
 -3.351280e-02  -2.636321e-01  0 
 -6.268108e-04  -2.608014e-01  0 
 -5.170764e-02  -2.832399e-01  0 
 -7.049621e-02  -3.051661e-01  0 
 -1.550582e-02  -2.824757e-01  0 
 -3.365631e-02  -3.024091e-01  0 
 3.253624e-03  -3.027580e-01  0 
 -5.195284e-02  -3.239377e-01  0 
 -7.071308e-02  -3.433234e-01  0 
 -1.553530e-02  -3.223896e-01  0 
 -3.401239e-02  -3.421812e-01  0 
 3.569060e-03  -3.416208e-01  0 
 -5.474126e-02  -1.588253e-01  0 
 -2.601043e-02  -1.586674e-01  0 
 -1.660388e-03  -1.540582e-01  0 
 -6.092604e-02  -2.029211e-01  0 
 -3.046627e-02  -1.990704e-01  0 
 -1.202807e-03  -1.981950e-01  0 
 -6.609306e-02  -2.444739e-01  0 
 -3.247431e-02  -2.425345e-01  0 
 -2.144946e-04  -2.410301e-01  0 
 -6.858584e-02  -2.856332e-01  0 
 -3.362624e-02  -2.826132e-01  0 
 2.231972e-05  -2.819394e-01  0 
 -7.086779e-02  -3.240599e-01  0 
 -3.380974e-02  -3.232550e-01  0 
 3.918641e-03  -3.223162e-01  0 
VECTORS displacement_ITER6 FLOAT
 -7.510848e-02  -1.817252e-01  0 
 -4.189484e-02  -1.796768e-01  0 
 -1.479719e-02  -1.772906e-01  0 
 -7.985601e-02  -2.261678e-01  0 
 -4.721381e-02  -2.222392e-01  0 
 -1.500278e-02  -2.206505e-01  0 
 -4.871600e-02  -2.636178e-01  0 
 -1.665125e-02  -2.619679e-01  0 
 -5.072911e-02  -3.020598e-01  0 
 -1.560069e-02  -3.008690e-01  0 
 -5.056728e-02  -3.390936e-01  0 
 -1.605968e-02  -3.374985e-01  0 
 -7.200044e-02  -1.585330e-01  0 
 -3.757560e-02  -1.584167e-01  0 
 -5.601227e-02  -1.791453e-01  0 
 -1.549693e-02  -1.554055e-01  0 
 -2.908907e-02  -1.801697e-01  0 
 -1.288517e-04  -1.754955e-01  0 
 -7.667903e-02  -2.063898e-01  0 
 -4.634367e-02  -2.001017e-01  0 
 -6.426183e-02  -2.252856e-01  0 
 -1.316147e-02  -1.994366e-01  0 
 -3.024307e-02  -2.197336e-01  0 
 -2.191998e-04  -2.219950e-01  0 
 -8.219315e-02  -2.452217e-01  0 
 -4.718376e-02  -2.440719e-01  0 
 -6.515395e-02  -2.637601e-01  0 
 -1.720586e-02  -2.414551e-01  0 
 -3.286364e-02  -2.634911e-01  0 
 -4.557124e-04  -2.608055e-01  0 
 -5.039971e-02  -2.824597e-01  0 
 -6.803558e-02  -3.034881e-01  0 
 -1.552299e-02  -2.818437e-01  0 
 -3.300847e-02  -3.008835e-01  0 
 1.541991e-03  -3.012674e-01  0 
 -5.050904e-02  -3.211749e-01  0 
 -6.822361e-02  -3.393683e-01  0 
 -1.597086e-02  -3.194748e-01  0 
 -3.346520e-02  -3.382800e-01  0 
 1.675982e-03  -3.372401e-01  0 
 -5.492244e-02  -1.583403e-01  0 
 -2.542294e-02  -1.578196e-01  0 
 -4.712645e-04  -1.543758e-01  0 
 -6.053197e-02  -2.031923e-01  0 
 -2.979474e-02  -1.994246e-01  0 
 -9.813020e-05  -1.987798e-01  0 
 -6.489164e-02  -2.444150e-01  0 
 -3.179337e-02  -2.427234e-01  0 
 -1.077078e-04  -2.412164e-01  0 
 -6.667275e-02  -2.846127e-01  0 
 -3.298378e-02  -2.819068e-01  0 
 -2.449173e-04  -2.816173e-01  0 
 -6.831425e-02  -3.213125e-01  0 
 -3.319377e-02  -3.204850e-01  0 
 1.917426e-03  -3.192859e-01  0 
VECTORS displacement_ITER7 FLOAT
 -7.399498e-02  -1.813784e-01  0 
 -4.158234e-02  -1.788543e-01  0 
 -1.381378e-02  -1.764097e-01  0 
 -7.957356e-02  -2.251819e-01  0 
 -4.685480e-02  -2.215584e-01  0 
 -1.436040e-02  -2.200444e-01  0 
 -4.852408e-02  -2.633536e-01  0 
 -1.659440e-02  -2.617695e-01  0 
 -5.046706e-02  -3.014630e-01  0 
 -1.660331e-02  -3.004120e-01  0 
 -5.033327e-02  -3.371648e-01  0 
 -1.772284e-02  -3.346149e-01  0 
 -7.075101e-02  -1.584921e-01  0 
 -3.737633e-02  -1.578362e-01  0 
 -5.542613e-02  -1.784432e-01  0 
 -1.437003e-02  -1.541947e-01  0 
 -2.857315e-02  -1.793144e-01  0 
 1.234538e-03  -1.743598e-01  0 
 -7.581926e-02  -2.052868e-01  0 
 -4.597082e-02  -1.993556e-01  0 
 -6.404220e-02  -2.244369e-01  0 
 -1.241801e-02  -1.987650e-01  0 
 -2.972833e-02  -2.191488e-01  0 
 5.638882e-04  -2.213184e-01  0 
 -8.231115e-02  -2.444939e-01  0 
 -4.687857e-02  -2.435210e-01  0 
 -6.500816e-02  -2.633557e-01  0 
 -1.675825e-02  -2.409113e-01  0 
 -3.290270e-02  -2.633652e-01  0 
 1.987266e-04  -2.604888e-01  0 
 -5.022658e-02  -2.821913e-01  0 
 -6.721109e-02  -3.028715e-01  0 
 -1.594493e-02  -2.817393e-01  0 
 -3.319196e-02  -3.003220e-01  0 
 -9.714410e-04  -3.007648e-01  0 
 -5.024860e-02  -3.199366e-01  0 
 -6.733868e-02  -3.374631e-01  0 
 -1.745465e-02  -3.178842e-01  0 
 -3.398505e-02  -3.359388e-01  0 
 -1.357754e-03  -3.344141e-01  0 
 -5.424841e-02  -1.579740e-01  0 
 -2.502467e-02  -1.564647e-01  0 
 1.020465e-03  -1.534302e-01  0 
 -6.013311e-02  -2.022963e-01  0 
 -2.925956e-02  -1.987378e-01  0 
 1.040232e-03  -1.982713e-01  0 
 -6.472278e-02  -2.437709e-01  0 
 -3.150089e-02  -2.422997e-01  0 
 5.364079e-04  -2.405719e-01  0 
 -6.628333e-02  -2.841637e-01  0 
 -3.311060e-02  -2.817301e-01  0 
 -6.431621e-04  -2.815688e-01  0 
 -6.739320e-02  -3.201288e-01  0 
 -3.355070e-02  -3.191100e-01  0 
 -1.069524e-03  -3.175856e-01  0 
VECTORS displacement_ITER8 FLOAT
 -7.390239e-02  -1.812021e-01  0 
 -4.227706e-02  -1.785498e-01  0 
 -1.475746e-02  -1.760912e-01  0 
 -7.992010e-02  -2.243104e-01  0 
 -4.748488e-02  -2.208173e-01  0 
 -1.504675e-02  -2.195210e-01  0 
 -4.914382e-02  -2.626509e-01  0 
 -1.680735e-02  -2.612773e-01  0 
 -5.127420e-02  -3.017093e-01  0 
 -1.635046e-02  -3.006182e-01  0 
 -5.122163e-02  -3.389420e-01  0 
 -1.736881e-02  -3.361938e-01  0 
 -7.061958e-02  -1.588094e-01  0 
 -3.815520e-02  -1.578971e-01  0 
 -5.582346e-02  -1.781806e-01  0 
 -1.532085e-02  -1.542306e-01  0 
 -2.937252e-02  -1.789919e-01  0 
 -1.294556e-04  -1.739673e-01  0 
 -7.594445e-02  -2.044900e-01  0 
 -4.660922e-02  -1.988320e-01  0 
 -6.457600e-02  -2.236148e-01  0 
 -1.329520e-02  -1.982653e-01  0 
 -3.046501e-02  -2.185205e-01  0 
 -1.368114e-05  -2.208985e-01  0 
 -8.276239e-02  -2.435009e-01  0 
 -4.748860e-02  -2.426732e-01  0 
 -6.579844e-02  -2.626285e-01  0 
 -1.721104e-02  -2.404410e-01  0 
 -3.325267e-02  -2.627628e-01  0 
 -4.101716e-05  -2.601092e-01  0 
 -5.094802e-02  -2.818918e-01  0 
 -6.874968e-02  -3.031667e-01  0 
 -1.589812e-02  -2.814696e-01  0 
 -3.348478e-02  -3.005214e-01  0 
 -2.941085e-05  -3.010072e-01  0 
 -5.110424e-02  -3.209556e-01  0 
 -6.900556e-02  -3.393223e-01  0 
 -1.710753e-02  -3.187517e-01  0 
 -3.425766e-02  -3.375355e-01  0 
 -2.188440e-04  -3.360046e-01  0 
 -5.460606e-02  -1.581258e-01  0 
 -2.593261e-02  -1.563190e-01  0 
 -3.159210e-04  -1.535648e-01  0 
 -6.058190e-02  -2.016628e-01  0 
 -3.003728e-02  -1.982291e-01  0 
 1.828530e-07  -1.979251e-01  0 
 -6.532741e-02  -2.428671e-01  0 
 -3.203901e-02  -2.416169e-01  0 
 8.177438e-05  -2.401814e-01  0 
 -6.747425e-02  -2.838176e-01  0 
 -3.341890e-02  -2.814328e-01  0 
 -1.918653e-04  -2.814680e-01  0 
 -6.900277e-02  -3.212011e-01  0 
 -3.380732e-02  -3.200322e-01  0 
 -2.663844e-05  -3.184489e-01  0 
VECTORS displacement_ITER9 FLOAT
 -7.426612e-02  -1.813463e-01  0 
 -4.249508e-02  -1.785849e-01  0 
 -1.482023e-02  -1.761888e-01  0 
 -7.999418e-02  -2.242439e-01  0 
 -4.755619e-02  -2.209011e-01  0 
 -1.512469e-02  -2.196234e-01  0 
 -4.913938e-02  -2.626996e-01  0 
 -1.686342e-02  -2.612295e-01  0 
 -5.119730e-02  -3.016372e-01  0 
 -1.633582e-02  -3.005318e-01  0 
 -5.110279e-02  -3.386115e-01  0 
 -1.734349e-02  -3.361190e-01  0 
 -7.100871e-02  -1.589354e-01  0 
 -3.841883e-02  -1.578673e-01  0 
 -5.614951e-02  -1.782519e-01  0 
 -1.537452e-02  -1.542922e-01  0 
 -2.950106e-02  -1.790580e-01  0 
 -2.616669e-04  -1.739811e-01  0 
 -7.628582e-02  -2.043201e-01  0 
 -4.675515e-02  -1.989238e-01  0 
 -6.466356e-02  -2.236367e-01  0 
 -1.339018e-02  -1.983794e-01  0 
 -3.055422e-02  -2.186230e-01  0 
 -1.668955e-04  -2.209913e-01  0 
 -8.299666e-02  -2.436252e-01  0 
 -4.750948e-02  -2.427555e-01  0 
 -6.577162e-02  -2.627148e-01  0 
 -1.727189e-02  -2.404395e-01  0 
 -3.326305e-02  -2.627651e-01  0 
 -1.269740e-04  -2.600228e-01  0 
 -5.090319e-02  -2.818737e-01  0 
 -6.851936e-02  -3.031104e-01  0 
 -1.592363e-02  -2.814203e-01  0 
 -3.347678e-02  -3.004416e-01  0 
 -4.362019e-06  -3.008952e-01  0 
 -5.100723e-02  -3.207566e-01  0 
 -6.876313e-02  -3.389603e-01  0 
 -1.707352e-02  -3.186282e-01  0 
 -3.421590e-02  -3.373382e-01  0 
 -4.974643e-05  -3.359721e-01  0 
 -5.488812e-02  -1.581231e-01  0 
 -2.618562e-02  -1.561407e-01  0 
 -3.630724e-04  -1.537817e-01  0 
 -6.080913e-02  -2.016937e-01  0 
 -3.014200e-02  -1.983361e-01  0 
 -1.528412e-04  -1.982111e-01  0 
 -6.537038e-02  -2.429689e-01  0 
 -3.207527e-02  -2.416678e-01  0 
 -9.593615e-05  -2.401555e-01  0 
 -6.736207e-02  -2.838039e-01  0 
 -3.342228e-02  -2.813958e-01  0 
 -1.219376e-04  -2.814774e-01  0 
 -6.874142e-02  -3.209883e-01  0 
 -3.379044e-02  -3.198873e-01  0 
 2.096752e-05  -3.183286e-01  0 
VECTORS displacement_ITER10 FLOAT
 -7.435783e-02  -1.814006e-01  0 
 -4.238262e-02  -1.785746e-01  0 
 -1.459294e-02  -1.761413e-01  0 
 -7.986096e-02  -2.243648e-01  0 
 -4.741774e-02  -2.210264e-01  0 
 -1.496510e-02  -2.197397e-01  0 
 -4.894709e-02  -2.628293e-01  0 
 -1.678298e-02  -2.613143e-01  0 
 -5.095789e-02  -3.015415e-01  0 
 -1.628599e-02  -3.004543e-01  0 
 -5.084272e-02  -3.381626e-01  0 
 -1.730043e-02  -3.357434e-01  0 
 -7.111189e-02  -1.588453e-01  0 
 -3.826725e-02  -1.577830e-01  0 
 -5.610666e-02  -1.782736e-01  0 
 -1.514032e-02  -1.540208e-01  0 
 -2.935476e-02  -1.790367e-01  0 
 9.598064e-05  -1.738762e-01  0 
 -7.635145e-02  -2.043931e-01  0 
 -4.664922e-02  -1.989867e-01  0 
 -6.453872e-02  -2.237645e-01  0 
 -1.318864e-02  -1.984459e-01  0 
 -3.039933e-02  -2.187376e-01  0 
 -4.239419e-05  -2.210981e-01  0 
 -8.292179e-02  -2.437998e-01  0 
 -4.733733e-02  -2.429135e-01  0 
 -6.554789e-02  -2.628725e-01  0 
 -1.715574e-02  -2.405408e-01  0 
 -3.312994e-02  -2.628690e-01  0 
 -5.477782e-05  -2.601021e-01  0 
 -5.068182e-02  -2.819049e-01  0 
 -6.810857e-02  -3.030114e-01  0 
 -1.586745e-02  -2.814474e-01  0 
 -3.334215e-02  -3.003601e-01  0 
 -9.316150e-05  -3.008145e-01  0 
 -5.076114e-02  -3.204759e-01  0 
 -6.834383e-02  -3.384803e-01  0 
 -1.702147e-02  -3.183878e-01  0 
 -3.406773e-02  -3.369591e-01  0 
 -1.123481e-04  -3.355858e-01  0 
 -5.482207e-02  -1.580270e-01  0 
 -2.605747e-02  -1.559280e-01  0 
 5.013070e-05  -1.535500e-01  0 
 -6.074577e-02  -2.017867e-01  0 
 -2.998971e-02  -1.983996e-01  0 
 8.394291e-05  -1.983269e-01  0 
 -6.520731e-02  -2.431295e-01  0 
 -3.192795e-02  -2.418019e-01  0 
 -2.140475e-05  -2.402437e-01  0 
 -6.702484e-02  -2.838478e-01  0 
 -3.329149e-02  -2.814220e-01  0 
 -1.006660e-04  -2.815455e-01  0 
 -6.831681e-02  -3.206919e-01  0 
 -3.365086e-02  -3.196388e-01  0 
 -7.924466e-05  -3.180867e-01  0 
VECTORS displacement_ITER11 FLOAT
 -7.416924e-02  -1.813845e-01  0 
 -4.225321e-02  -1.785115e-01  0 
 -1.456947e-02  -1.760675e-01  0 
 -7.966007e-02  -2.242354e-01  0 
 -4.733607e-02  -2.208576e-01  0 
 -1.493036e-02  -2.195421e-01  0 
 -4.892376e-02  -2.626068e-01  0 
 -1.672009e-02  -2.610828e-01  0 
 -5.102864e-02  -3.014600e-01  0 
 -1.617492e-02  -3.003886e-01  0 
 -5.094081e-02  -3.384054e-01  0 
 -1.718356e-02  -3.359436e-01  0 
 -7.092478e-02  -1.588419e-01  0 
 -3.811390e-02  -1.577973e-01  0 
 -5.592957e-02  -1.782406e-01  0 
 -1.511677e-02  -1.540165e-01  0 
 -2.928401e-02  -1.789598e-01  0 
 2.971867e-05  -1.737839e-01  0 
 -7.620940e-02  -2.043146e-01  0 
 -4.653908e-02  -1.988596e-01  0 
 -6.443105e-02  -2.236129e-01  0 
 -1.316675e-02  -1.983075e-01  0 
 -3.033514e-02  -2.185571e-01  0 
 -2.591081e-05  -2.208787e-01  0 
 -8.273661e-02  -2.435563e-01  0 
 -4.728079e-02  -2.427104e-01  0 
 -6.549896e-02  -2.626690e-01  0 
 -1.710858e-02  -2.403057e-01  0 
 -3.309884e-02  -2.626453e-01  0 
 1.451243e-05  -2.598656e-01  0 
 -5.071436e-02  -2.817292e-01  0 
 -6.833781e-02  -3.029396e-01  0 
 -1.577517e-02  -2.812790e-01  0 
 -3.331541e-02  -3.002784e-01  0 
 1.337439e-04  -3.007594e-01  0 
 -5.085120e-02  -3.205548e-01  0 
 -6.861811e-02  -3.387446e-01  0 
 -1.690620e-02  -3.184574e-01  0 
 -3.404948e-02  -3.371532e-01  0 
 1.441880e-04  -3.358023e-01  0 
 -5.462936e-02  -1.580270e-01  0 
 -2.599553e-02  -1.558931e-01  0 
 -4.496033e-06  -1.535902e-01  0 
 -6.060227e-02  -2.016960e-01  0 
 -2.992049e-02  -1.982643e-01  0 
 4.161985e-05  -1.982152e-01  0 
 -6.510765e-02  -2.429129e-01  0 
 -3.188048e-02  -2.415823e-01  0 
 5.534988e-06  -2.400072e-01  0 
 -6.710691e-02  -2.836761e-01  0 
 -3.326384e-02  -2.812474e-01  0 
 7.844344e-05  -2.813948e-01  0 
 -6.857397e-02  -3.207775e-01  0 
 -3.362695e-02  -3.197072e-01  0 
 1.547917e-04  -3.181649e-01  0 
VECTORS displacement_ITER12 FLOAT
 -7.436627e-02  -1.814125e-01  0 
 -4.231476e-02  -1.785312e-01  0 
 -1.456928e-02  -1.760879e-01  0 
 -7.975762e-02  -2.243378e-01  0 
 -4.740184e-02  -2.209467e-01  0 
 -1.496293e-02  -2.196213e-01  0 
 -4.896382e-02  -2.627181e-01  0 
 -1.679776e-02  -2.611863e-01  0 
 -5.102359e-02  -3.014645e-01  0 
 -1.630344e-02  -3.003940e-01  0 
 -5.092348e-02  -3.382384e-01  0 
 -1.733235e-02  -3.357131e-01  0 
 -7.112473e-02  -1.587826e-01  0 
 -3.815915e-02  -1.577702e-01  0 
 -5.604036e-02  -1.782661e-01  0 
 -1.510775e-02  -1.539910e-01  0 
 -2.932029e-02  -1.789818e-01  0 
 5.929866e-05  -1.737887e-01  0 
 -7.639919e-02  -2.043973e-01  0 
 -4.660708e-02  -1.989184e-01  0 
 -6.452024e-02  -2.237054e-01  0 
 -1.318064e-02  -1.983638e-01  0 
 -3.037792e-02  -2.186414e-01  0 
 -4.618268e-05  -2.209475e-01  0 
 -8.284570e-02  -2.436606e-01  0 
 -4.733759e-02  -2.428199e-01  0 
 -6.554438e-02  -2.627823e-01  0 
 -1.716189e-02  -2.403985e-01  0 
 -3.316000e-02  -2.627530e-01  0 
 -4.634987e-05  -2.599637e-01  0 
 -5.072984e-02  -2.818003e-01  0 
 -6.824922e-02  -3.029381e-01  0 
 -1.588101e-02  -2.813529e-01  0 
 -3.337433e-02  -3.002879e-01  0 
 -1.097552e-04  -3.007540e-01  0 
 -5.083641e-02  -3.204717e-01  0 
 -6.851835e-02  -3.385812e-01  0 
 -1.704650e-02  -3.183431e-01  0 
 -3.411094e-02  -3.369681e-01  0 
 -1.204058e-04  -3.355553e-01  0 
 -5.473647e-02  -1.579817e-01  0 
 -2.603732e-02  -1.558491e-01  0 
 4.343700e-05  -1.535778e-01  0 
 -6.070785e-02  -2.017713e-01  0 
 -2.995921e-02  -1.983217e-01  0 
 4.198454e-05  -1.982823e-01  0 
 -6.518203e-02  -2.430167e-01  0 
 -3.193408e-02  -2.416879e-01  0 
 -3.794661e-05  -2.400954e-01  0 
 -6.706768e-02  -2.837408e-01  0 
 -3.332503e-02  -2.813207e-01  0 
 -6.988792e-05  -2.814716e-01  0 
 -6.847587e-02  -3.206920e-01  0 
 -3.368211e-02  -3.196142e-01  0 
 -1.096301e-04  -3.180431e-01  0 
VECTORS displacement_ITER13 FLOAT
 -7.429080e-02  -1.814124e-01  0 
 -4.225754e-02  -1.785227e-01  0 
 -1.456081e-02  -1.760888e-01  0 
 -7.968167e-02  -2.243372e-01  0 
 -4.736602e-02  -2.209142e-01  0 
 -1.493633e-02  -2.195766e-01  0 
 -4.893846e-02  -2.626856e-01  0 
 -1.675247e-02  -2.611547e-01  0 
 -5.100935e-02  -3.014662e-01  0 
 -1.624332e-02  -3.004022e-01  0 
 -5.091020e-02  -3.383118e-01  0 
 -1.726580e-02  -3.357974e-01  0 
 -7.104886e-02  -1.587741e-01  0 
 -3.809525e-02  -1.577875e-01  0 
 -5.596491e-02  -1.782620e-01  0 
 -1.510225e-02  -1.540532e-01  0 
 -2.928427e-02  -1.789771e-01  0 
 -4.562352e-06  -1.737816e-01  0 
 -7.635216e-02  -2.043994e-01  0 
 -4.655836e-02  -1.988946e-01  0 
 -6.448186e-02  -2.236860e-01  0 
 -1.316516e-02  -1.983336e-01  0 
 -3.034514e-02  -2.186019e-01  0 
 -5.245599e-06  -2.208963e-01  0 
 -8.278011e-02  -2.436102e-01  0 
 -4.730923e-02  -2.427856e-01  0 
 -6.552484e-02  -2.627539e-01  0 
 -1.712488e-02  -2.403588e-01  0 
 -3.312546e-02  -2.627202e-01  0 
 7.559169e-06  -2.599330e-01  0 
 -5.071180e-02  -2.817816e-01  0 
 -6.826924e-02  -3.029385e-01  0 
 -1.582710e-02  -2.813359e-01  0 
 -3.333848e-02  -3.002926e-01  0 
 -1.167087e-05  -3.007620e-01  0 
 -5.082294e-02  -3.205087e-01  0 
 -6.854257e-02  -3.386595e-01  0 
 -1.698225e-02  -3.183891e-01  0 
 -3.407137e-02  -3.370397e-01  0 
 -1.166578e-05  -3.356449e-01  0 
 -5.465752e-02  -1.579840e-01  0 
 -2.601827e-02  -1.558609e-01  0 
 -1.832270e-05  -1.536590e-01  0 
 -6.064730e-02  -2.017630e-01  0 
 -2.992389e-02  -1.982938e-01  0 
 1.806155e-05  -1.982676e-01  0 
 -6.515179e-02  -2.429789e-01  0 
 -3.190216e-02  -2.416486e-01  0 
 6.219483e-06  -2.400596e-01  0 
 -6.705724e-02  -2.837180e-01  0 
 -3.328984e-02  -2.813026e-01  0 
 5.427832e-06  -2.814598e-01  0 
 -6.849935e-02  -3.207275e-01  0 
 -3.364434e-02  -3.196547e-01  0 
 -8.916211e-06  -3.180939e-01  0 
VECTORS displacement_ITER14 FLOAT
 -7.428467e-02  -1.813976e-01  0 
 -4.227517e-02  -1.785116e-01  0 
 -1.457397e-02  -1.760795e-01  0 
 -7.968529e-02  -2.243290e-01  0 
 -4.737129e-02  -2.209055e-01  0 
 -1.494029e-02  -2.195769e-01  0 
 -4.892789e-02  -2.626854e-01  0 
 -1.674331e-02  -2.611608e-01  0 
 -5.098234e-02  -3.014594e-01  0 
 -1.622916e-02  -3.003956e-01  0 
 -5.087636e-02  -3.382782e-01  0 
 -1.724614e-02  -3.357901e-01  0 
 -7.104054e-02  -1.587781e-01  0 
 -3.811703e-02  -1.577888e-01  0 
 -5.597355e-02  -1.782495e-01  0 
 -1.512064e-02  -1.540316e-01  0 
 -2.929945e-02  -1.789674e-01  0 
 -1.186425e-05  -1.737677e-01  0 
 -7.636375e-02  -2.043747e-01  0 
 -4.657024e-02  -1.988858e-01  0 
 -6.448578e-02  -2.236753e-01  0 
 -1.317358e-02  -1.983277e-01  0 
 -3.035338e-02  -2.185974e-01  0 
 3.769346e-06  -2.208968e-01  0 
 -8.278774e-02  -2.436015e-01  0 
 -4.730700e-02  -2.427791e-01  0 
 -6.552266e-02  -2.627509e-01  0 
 -1.712186e-02  -2.403675e-01  0 
 -3.311143e-02  -2.627226e-01  0 
 1.156366e-05  -2.599413e-01  0 
 -5.069252e-02  -2.817815e-01  0 
 -6.822692e-02  -3.029297e-01  0 
 -1.581509e-02  -2.813346e-01  0 
 -3.332165e-02  -3.002868e-01  0 
 6.289071e-06  -3.007534e-01  0 
 -5.079106e-02  -3.204896e-01  0 
 -6.849136e-02  -3.386244e-01  0 
 -1.696461e-02  -3.183814e-01  0 
 -3.404817e-02  -3.370192e-01  0 
 1.037688e-05  -3.356388e-01  0 
 -5.466493e-02  -1.579847e-01  0 
 -2.604926e-02  -1.558413e-01  0 
 -2.021732e-05  -1.536381e-01  0 
 -6.065318e-02  -2.017474e-01  0 
 -2.993535e-02  -1.982869e-01  0 
 6.822984e-06  -1.982708e-01  0 
 -6.515502e-02  -2.429711e-01  0 
 -3.189914e-02  -2.416489e-01  0 
 1.120400e-05  -2.400729e-01  0 
 -6.702917e-02  -2.837116e-01  0 
 -3.327382e-02  -2.813025e-01  0 
 1.141252e-05  -2.814587e-01  0 
 -6.845170e-02  -3.207061e-01  0 
 -3.362481e-02  -3.196414e-01  0 
 9.965719e-06  -3.180892e-01  0 
VECTORS displacement_ITER15 FLOAT
 -7.427331e-02  -1.813960e-01  0 
 -4.228495e-02  -1.785123e-01  0 
 -1.458178e-02  -1.760815e-01  0 
 -7.968723e-02  -2.243317e-01  0 
 -4.737825e-02  -2.209062e-01  0 
 -1.495096e-02  -2.195777e-01  0 
 -4.893907e-02  -2.626827e-01  0 
 -1.675502e-02  -2.611571e-01  0 
 -5.099966e-02  -3.014578e-01  0 
 -1.624202e-02  -3.003946e-01  0 
 -5.089697e-02  -3.382895e-01  0 
 -1.725871e-02  -3.357999e-01  0 
 -7.102774e-02  -1.587891e-01  0 
 -3.812786e-02  -1.577994e-01  0 
 -5.597398e-02  -1.782494e-01  0 
 -1.512818e-02  -1.540237e-01  0 
 -2.930998e-02  -1.789690e-01  0 
 -1.066672e-05  -1.737675e-01  0 
 -7.636218e-02  -2.043673e-01  0 
 -4.657818e-02  -1.988864e-01  0 
 -6.449059e-02  -2.236764e-01  0 
 -1.318265e-02  -1.983304e-01  0 
 -3.036188e-02  -2.185982e-01  0 
 -6.663630e-06  -2.208952e-01  0 
 -8.279213e-02  -2.436027e-01  0 
 -4.731523e-02  -2.427789e-01  0 
 -6.552965e-02  -2.627488e-01  0 
 -1.713303e-02  -2.403663e-01  0 
 -3.312409e-02  -2.627190e-01  0 
 -2.249284e-06  -2.599368e-01  0 
 -5.070688e-02  -2.817779e-01  0 
 -6.825254e-02  -3.029288e-01  0 