# vtk DataFile Version 3.1
this is an vtk file created by FEMAC
ASCII
DATASET UNSTRUCTURED_GRID
POINTS 55 FLOAT
0.000000 5.000000 0.000000
1.000000 5.000000 0.000000
0.000000 6.000000 0.000000
1.000000 6.000000 0.000000
0.000000 7.000000 0.000000
1.000000 7.000000 0.000000
2.000000 5.000000 0.000000
2.000000 6.000000 0.000000
2.000000 7.000000 0.000000
3.000000 5.000000 0.000000
3.000000 6.000000 0.000000
4.000000 5.000000 0.000000
4.000000 6.000000 0.000000
0.500000 5.000000 0.000000
0.000000 4.500000 0.000000
1.000000 4.500000 0.000000
0.500000 6.000000 0.000000
0.000000 5.500000 0.000000
1.000000 5.500000 0.000000
0.500000 7.000000 0.000000
0.000000 6.500000 0.000000
1.000000 6.500000 0.000000
1.500000 5.000000 0.000000
2.000000 4.500000 0.000000
1.500000 6.000000 0.000000
2.000000 5.500000 0.000000
1.500000 7.000000 0.000000
2.000000 6.500000 0.000000
2.500000 5.000000 0.000000
3.000000 4.500000 0.000000
2.500000 6.000000 0.000000
3.000000 5.500000 0.000000
3.000000 6.500000 0.000000
3.500000 5.000000 0.000000
4.000000 4.500000 0.000000
3.500000 6.000000 0.000000
4.000000 5.500000 0.000000
4.000000 6.500000 0.000000
4.500000 5.000000 0.000000
4.500000 6.000000 0.000000
0.500000 4.500000 0.000000
0.500000 5.500000 0.000000
0.500000 6.500000 0.000000
1.500000 4.500000 0.000000
1.500000 5.500000 0.000000
1.500000 6.500000 0.000000
2.500000 4.500000 0.000000
2.500000 5.500000 0.000000
2.500000 6.500000 0.000000
3.500000 4.500000 0.000000
3.500000 5.500000 0.000000
3.500000 6.500000 0.000000
4.500000 4.500000 0.000000
4.500000 5.500000 0.000000
4.500000 6.500000 0.000000
CELLS 40 200 
4 14 40 13  0
4 40 15  1 13
4 0 13 41 17
4 17 41 16  2
4 13  1 18 41
4 41 18  3 16
4 2 16 42 20
4 20 42 19  4
4 16  3 21 42
4 42 21  5 19
4 15 43 22  1
4 43 23  6 22
4 1 22 44 18
4 18 44 24  3
4 22  6 25 44
4 44 25  7 24
4 3 24 45 21
4 21 45 26  5
4 24  7 27 45
4 45 27  8 26
4 23 46 28  6
4 46 29  9 28
4 6 28 47 25
4 25 47 30  7
4 28  9 31 47
4 47 31 10 30
4 7 30 48 27
4 30 10 32 48
4 29 49 33  9
4 49 34 11 33
4 9 33 50 31
4 31 50 35 10
4 33 11 36 50
4 50 36 12 35
4 10 35 51 32
4 35 12 37 51
4 34 52 38 11
4 11 38 53 36
4 36 53 39 12
4 12 39 54 37
CELL_TYPES 40
9 9 9 9 9 9 9 9 9 9 9 9 9 9 9 9 9 9 9 9 9 9 9 9 9 9 9 9 9 9 9 9 9 9 9 9 9 9 9 9 
POINT_DATA 55
VECTORS displacement_ITER1 FLOAT
 0  0  0 
 1.707935e-03  -1.203304e-02  0 
 0  0  0 
 4.239237e-03  -1.179980e-02  0 
 -6.459940e-20  -2.691383e-20  0 
 8.272527e-03  -1.159289e-02  0 
 2.826991e-03  -2.744677e-02  0 
 9.752391e-03  -2.723594e-02  0 
 1.661189e-02  -2.853923e-02  0 
 4.798478e-03  -4.585512e-02  0 
 1.385739e-02  -4.641061e-02  0 
 5.815693e-03  -6.660904e-02  0 
 1.855562e-02  -6.768035e-02  0 
 2.471708e-03  -5.436547e-03  0 
 -1.784172e-19  -5.495509e-19  0 
 -1.397189e-04  -1.088966e-02  0 
 2.878713e-04  -5.166495e-03  0 
 0  0  0 
 3.937210e-03  -1.319864e-02  0 
 5.535344e-03  -5.180612e-03  0 
 0  0  0 
 4.411644e-03  -1.053971e-02  0 
 8.785588e-04  -1.937128e-02  0 
 2.520605e-04  -2.906358e-02  0 
 8.415558e-03  -1.897141e-02  0 
 5.308066e-03  -2.597033e-02  0 
 1.088491e-02  -1.993167e-02  0 
 1.481550e-02  -2.867115e-02  0 
 5.226935e-03  -3.628630e-02  0 
 2.092700e-04  -4.433606e-02  0 
 1.052033e-02  -3.677506e-02  0 
 1.004514e-02  -4.743473e-02  0 
 1.777640e-02  -4.544511e-02  0 
 3.987374e-03  -5.627094e-02  0 
 1.024406e-04  -6.751581e-02  0 
 1.747170e-02  -5.642823e-02  0 
 1.122931e-02  -6.578837e-02  0 
 2.633538e-02  -6.996841e-02  0 
 8.047292e-03  -7.715179e-02  0 
 1.911286e-02  -7.903864e-02  0 
 -4.229600e-04  -5.437200e-03  0 
 1.684151e-03  -5.704096e-03  0 
 2.772736e-03  -5.127529e-03  0 
 -4.487967e-04  -1.943816e-02  0 
 4.627540e-03  -1.901426e-02  0 
 9.504039e-03  -1.952888e-02  0 
 6.074699e-05  -3.617255e-02  0 
 7.681368e-03  -3.661953e-02  0 
 1.666213e-02  -3.650093e-02  0 
 1.062345e-05  -5.644735e-02  0 
 1.065098e-02  -5.616919e-02  0 
 2.248935e-02  -5.829168e-02  0 
 2.809541e-04  -7.734283e-02  0 
 1.307878e-02  -7.791839e-02  0 
 2.699216e-02  -7.923703e-02  0 
VECTORS displacement_ITER2 FLOAT
 0  0  0 
 1.824236e-03  -1.185564e-02  0 
 0  0  0 
 4.328110e-03  -1.168308e-02  0 
 -3.188221e-20  -1.357336e-20  0 
 8.727805e-03  -1.144638e-02  0 
 2.835870e-03  -2.729549e-02  0 
 9.685089e-03  -2.739974e-02  0 
 1.690882e-02  -2.779406e-02  0 
 4.783663e-03  -4.567765e-02  0 
 1.373873e-02  -4.648067e-02  0 
 5.532182e-03  -6.638067e-02  0 
 1.848553e-02  -6.729874e-02  0 
 2.540459e-03  -5.355584e-03  0 
 -6.614298e-20  -2.014547e-19  0 
 1.594692e-04  -1.060138e-02  0 
 3.769147e-04  -5.064365e-03  0 
 0  0  0 
 3.959131e-03  -1.309025e-02  0 
 5.586846e-03  -5.141503e-03  0 
 0  0  0 
 4.591001e-03  -1.041386e-02  0 
 8.984224e-04  -1.925239e-02  0 
 6.004680e-05  -2.878014e-02  0 
 8.454564e-03  -1.892207e-02  0 
 5.279599e-03  -2.594663e-02  0 
 1.161228e-02  -1.966341e-02  0 
 1.501078e-02  -2.897450e-02  0 
 5.208471e-03  -3.614758e-02  0 
 1.511952e-04  -4.422033e-02  0 
 1.042210e-02  -3.712768e-02  0 
 1.001884e-02  -4.731883e-02  0 
 1.754251e-02  -4.589274e-02  0 
 3.910826e-03  -5.605820e-02  0 
 -1.124267e-04  -6.744381e-02  0 
 1.739188e-02  -5.620330e-02  0 
 1.112282e-02  -6.553570e-02  0 
 2.646631e-02  -6.936626e-02  0 
 7.520822e-03  -7.698194e-02  0 
 1.902106e-02  -7.890441e-02  0 
 5.257877e-06  -5.282302e-03  0 
 1.716579e-03  -5.628976e-03  0 
 2.886596e-03  -5.019807e-03  0 
 -7.888371e-05  -1.937605e-02  0 
 4.620035e-03  -1.894451e-02  0 
 9.814434e-03  -1.937327e-02  0 
 1.026714e-04  -3.597904e-02  0 
 7.647495e-03  -3.664341e-02  0 
 1.637672e-02  -3.689555e-02  0 
 -1.272365e-04  -5.607573e-02  0 
 1.059971e-02  -5.593917e-02  0 
 2.225701e-02  -5.800426e-02  0 
 -9.377513e-05  -7.684148e-02  0 
 1.291897e-02  -7.778137e-02  0 
 2.732598e-02  -7.906834e-02  0 
VECTORS displacement_ITER3 FLOAT
 0  0  0 
 1.809425e-03  -1.186813e-02  0 
 0  0  0 
 4.278751e-03  -1.171041e-02  0 
 -9.145249e-21  -3.923591e-21  0 
 8.781142e-03  -1.152776e-02  0 
 2.808745e-03  -2.721946e-02  0 
 9.670643e-03  -2.737759e-02  0 
 1.666933e-02  -2.809020e-02  0 
 4.775668e-03  -4.574069e-02  0 
 1.373738e-02  -4.645864e-02  0 
 5.566813e-03  -6.645315e-02  0 
 1.855136e-02  -6.734509e-02  0 
 2.515069e-03  -5.343634e-03  0 
 -1.874407e-20  -5.785193e-20  0 
 3.554935e-05  -1.062717e-02  0 
 3.457885e-04  -5.082905e-03  0 
 0  0  0 
 3.925538e-03  -1.309684e-02  0 
 5.612629e-03  -5.133035e-03  0 
 0  0  0 
 4.553974e-03  -1.046929e-02  0 
 8.701874e-04  -1.923220e-02  0 
 -3.136968e-05  -2.863270e-02  0 
 8.413952e-03  -1.892375e-02  0 
 5.254843e-03  -2.591436e-02  0 
 1.143201e-02  -1.981319e-02  0 
 1.494913e-02  -2.896380e-02  0 
 5.186419e-03  -3.611095e-02  0 
 -2.502331e-05  -4.433439e-02  0 
 1.041953e-02  -3.706149e-02  0 
 1.003098e-02  -4.734148e-02  0 
 1.761979e-02  -4.587650e-02  0 
 3.921134e-03  -5.612476e-02  0 
 3.183570e-05  -6.757186e-02  0 
 1.742663e-02  -5.623916e-02  0 
 1.115519e-02  -6.559195e-02  0 
 2.647155e-02  -6.942019e-02  0 
 7.563184e-03  -7.701953e-02  0 
 1.909034e-02  -7.889145e-02  0 
 -6.955126e-07  -5.284366e-03  0 
 1.697174e-03  -5.639412e-03  0 
 2.873739e-03  -5.027256e-03  0 
 -1.944645e-05  -1.938794e-02  0 
 4.587307e-03  -1.892695e-02  0 
 9.722186e-03  -1.948884e-02  0 
 -2.893387e-05  -3.594943e-02  0 
 7.652598e-03  -3.661670e-02  0 
 1.631761e-02  -3.678608e-02  0 
 -3.315650e-05  -5.614347e-02  0 
 1.061576e-02  -5.598067e-02  0 
 2.231770e-02  -5.801566e-02  0 
 4.921980e-05  -7.682401e-02  0 
 1.303358e-02  -7.791492e-02  0 
 2.733489e-02  -7.898894e-02  0 
VECTORS displacement_ITER4 FLOAT
 0  0  0 
 1.813668e-03  -1.188584e-02  0 
 0  0  0 
 4.288120e-03  -1.171361e-02  0 
 -2.463771e-21  -1.039222e-21  0 
 8.776451e-03  -1.153219e-02  0 
 2.820449e-03  -2.724168e-02  0 
 9.671911e-03  -2.738261e-02  0 
 1.671530e-02  -2.802648e-02  0 
 4.779672e-03  -4.573865e-02  0 
 1.372992e-02  -4.646741e-02  0 
 5.557879e-03  -6.642809e-02  0 
 1.853719e-02  -6.734496e-02  0 
 2.513311e-03  -5.345323e-03  0 
 -5.732489e-21  -1.800961e-20  0 
 1.137259e-06  -1.064882e-02  0 
 3.503743e-04  -5.084241e-03  0 
 0  0  0 
 3.933285e-03  -1.310797e-02  0 
 5.610991e-03  -5.138773e-03  0 
 0  0  0 
 4.561336e-03  -1.046756e-02  0 
 8.763057e-04  -1.925345e-02  0 
 3.606532e-06  -2.865718e-02  0 
 8.421306e-03  -1.893118e-02  0 
 5.259519e-03  -2.592798e-02  0 
 1.144199e-02  -1.975643e-02  0 
 1.496236e-02  -2.895792e-02  0 
 5.198342e-03  -3.612240e-02  0 
 3.610264e-07  -4.432962e-02  0 
 1.041869e-02  -3.706725e-02  0 
 1.002367e-02  -4.734195e-02  0 
 1.764131e-02  -4.590280e-02  0 
 3.917402e-03  -5.611159e-02  0 
 -5.768813e-06  -6.753315e-02  0 
 1.741701e-02  -5.624022e-02  0 
 1.114653e-02  -6.558405e-02  0 
 2.645401e-02  -6.943122e-02  0 
 7.552245e-03  -7.701409e-02  0 
 1.906184e-02  -7.890416e-02  0 
 -5.544897e-06  -5.291393e-03  0 
 1.702123e-03  -5.642694e-03  0 
 2.875770e-03  -5.031011e-03  0 
 4.838651e-07  -1.942925e-02  0 
 4.594096e-03  -1.894163e-02  0 
 9.741346e-03  -1.946609e-02  0 
 1.718810e-06  -3.596813e-02  0 
 7.650846e-03  -3.662518e-02  0 
 1.631792e-02  -3.679254e-02  0 
 -6.108372e-06  -5.610519e-02  0 
 1.060705e-02  -5.597492e-02  0 
 2.230074e-02  -5.801687e-02  0 
 -4.439917e-06  -7.681989e-02  0 
 1.302861e-02  -7.791725e-02  0 
 2.733016e-02  -7.900096e-02  0 
VECTORS displacement_ITER5 FLOAT
 0  0  0 
 1.814085e-03  -1.188302e-02  0 
 0  0  0 
 4.287648e-03  -1.171216e-02  0 
 -5.783951e-22  -2.412837e-22  0 
 8.770664e-03  -1.153105e-02  0 
 2.819405e-03  -2.723952e-02  0 
 9.672254e-03  -2.738077e-02  0 
 1.671095e-02  -2.803056e-02  0 
 4.781002e-03  -4.573686e-02  0 
 1.373174e-02  -4.646482e-02  0 
 5.562295e-03  -6.642642e-02  0 
 1.853951e-02  -6.734139e-02  0 
 2.512597e-03  -5.343318e-03  0 
 -1.448145e-21  -4.654714e-21  0 
 -6.618138e-07  -1.064436e-02  0 
 3.501451e-04  -5.083815e-03  0 
 0  0  0 
 3.933249e-03  -1.310602e-02  0 
 5.609473e-03  -5.137038e-03  0 
 0  0  0 
 4.559847e-03  -1.046592e-02  0 
 8.760401e-04  -1.925133e-02  0 
 3.326409e-07  -2.865542e-02  0 
 8.421115e-03  -1.892916e-02  0 
 5.259552e-03  -2.592582e-02  0 
 1.144594e-02  -1.975877e-02  0 
 1.496236e-02  -2.895603e-02  0 
 5.197515e-03  -3.612030e-02  0 
 2.313629e-07  -4.432673e-02  0 
 1.042048e-02  -3.706405e-02  0 
 1.002587e-02  -4.734015e-02  0 
 1.764691e-02  -4.589986e-02  0 
 3.920530e-03  -5.611003e-02  0 
 5.079029e-07  -6.753405e-02  0 
 1.741922e-02  -5.623815e-02  0 
 1.114970e-02  -6.558185e-02  0 
 2.645381e-02  -6.942931e-02  0 
 7.559212e-03  -7.701402e-02  0 
 1.906227e-02  -7.889882e-02  0 
 -1.048219e-06  -5.289974e-03  0 
 1.701903e-03  -5.641678e-03  0 
 2.874565e-03  -5.030764e-03  0 
 3.911766e-08  -1.943152e-02  0 
 4.594089e-03  -1.893931e-02  0 
 9.739383e-03  -1.946584e-02  0 
 2.673049e-07  -3.596518e-02  0 
 7.651757e-03  -3.662299e-02  0 
 1.631671e-02  -3.678996e-02  0 
 9.319310e-07  -5.610298e-02  0 
 1.060974e-02  -5.597307e-02  0 
 2.230046e-02  -5.801030e-02  0 
 8.605050e-08  -7.681811e-02  0 
 1.303208e-02  -7.791543e-02  0 
 2.733359e-02  -7.899491e-02  0 
VECTORS displacement_ITER6 FLOAT
 0  0  0 
 1.814247e-03  -1.188200e-02  0 
 0  0  0 
 4.287849e-03  -1.171219e-02  0 
 -2.330960e-22  -9.668276e-23  0 
 8.771176e-03  -1.153119e-02  0 
 2.819496e-03  -2.723965e-02  0 
 9.672529e-03  -2.738110e-02  0 
 1.671045e-02  -2.803095e-02  0 
 4.780698e-03  -4.573723e-02  0 
 1.373172e-02  -4.646473e-02  0 
 5.561174e-03  -6.642724e-02  0 
 1.853926e-02  -6.734181e-02  0 
 2.512464e-03  -5.342642e-03  0 
 -5.284726e-22  -1.682523e-21  0 
 5.994670e-08  -1.064216e-02  0 
 3.502159e-04  -5.083823e-03  0 
 0  0  0 
 3.933500e-03  -1.310569e-02  0 
 5.610187e-03  -5.137424e-03  0 
 0  0  0 
 4.560213e-03  -1.046623e-02  0 
 8.762229e-04  -1.925101e-02  0 
 4.374571e-08  -2.865553e-02  0 
 8.421478e-03  -1.892918e-02  0 
 5.259858e-03  -2.592590e-02  0 
 1.144784e-02  -1.976093e-02  0 
 1.496289e-02  -2.895654e-02  0 
 5.197457e-03  -3.612072e-02  0 
 1.408298e-07  -4.432718e-02  0 
 1.042078e-02  -3.706428e-02  0 
 1.002558e-02  -4.734033e-02  0 
 1.764686e-02  -4.589938e-02  0 
 3.919955e-03  -5.611048e-02  0 
 7.450611e-08  -6.753547e-02  0 
 1.741895e-02  -5.623830e-02  0 
 1.114907e-02  -6.558235e-02  0 
 2.645369e-02  -6.943020e-02  0 
 7.557385e-03  -7.701425e-02  0 
 1.906202e-02  -7.889972e-02  0 
 8.483863e-08  -5.289164e-03  0 
 1.701877e-03  -5.641405e-03  0 
 2.874759e-03  -5.030845e-03  0 
 4.327982e-08  -1.943145e-02  0 
 4.594412e-03  -1.893916e-02  0 
 9.739752e-03  -1.946653e-02  0 
 1.259364e-07  -3.596573e-02  0 
 7.651855e-03  -3.662320e-02  0 
 1.631623e-02  -3.679033e-02  0 
 2.148188e-07  -5.610383e-02  0 
 1.060930e-02  -5.597335e-02  0 
 2.229997e-02  -5.800945e-02  0 
 -5.680125e-08  -7.681768e-02  0 
 1.303110e-02  -7.791659e-02  0 
 2.733391e-02  -7.899551e-02  0 
VECTORS displacement_ITER7 FLOAT
 0  0  0 
 1.814182e-03  -1.188208e-02  0 
 0  0  0 
 4.287838e-03  -1.171217e-02  0 
 -6.285322e-23  -2.602954e-23  0 
 8.771042e-03  -1.153103e-02  0 
 2.819385e-03  -2.723967e-02  0 
 9.672401e-03  -2.738117e-02  0 
 1.671086e-02  -2.803053e-02  0 
 4.780624e-03  -4.573716e-02  0 
 1.373171e-02  -4.646466e-02  0 
 5.561226e-03  -6.642720e-02  0 
 1.853940e-02  -6.734179e-02  0 
 2.512436e-03  -5.342688e-03  0 
 -1.421232e-22  -4.510898e-22  0 
 -9.528040e-09  -1.064219e-02  0 
 3.502202e-04  -5.083811e-03  0 
 0  0  0 
 3.933435e-03  -1.310572e-02  0 
 5.610120e-03  -5.137504e-03  0 
 0  0  0 
 4.560211e-03  -1.046618e-02  0 
 8.761369e-04  -1.925107e-02  0 
 -1.896812e-08  -2.865551e-02  0 
 8.421415e-03  -1.892919e-02  0 
 5.259754e-03  -2.592593e-02  0 
 1.144746e-02  -1.976058e-02  0 
 1.496291e-02  -2.895656e-02  0 
 5.197350e-03  -3.612067e-02  0 
 -4.779898e-09  -4.432710e-02  0 
 1.042072e-02  -3.706436e-02  0 
 1.002558e-02  -4.734027e-02  0 
 1.764668e-02  -4.589929e-02  0 
 3.919945e-03  -5.611042e-02  0 
 1.481572e-08  -6.753539e-02  0 
 1.741898e-02  -5.623823e-02  0 
 1.114913e-02  -6.558231e-02  0 
 2.645372e-02  -6.943034e-02  0 
 7.557477e-03  -7.701435e-02  0 
 1.906230e-02  -7.889969e-02  0 
 2.825029e-08  -5.289298e-03  0 
 1.701864e-03  -5.641413e-03  0 
 2.874752e-03  -5.030846e-03  0 
 -1.154907e-08  -1.943174e-02  0 
 4.594316e-03  -1.893920e-02  0 
 9.739788e-03  -1.946633e-02  0 
 -5.857221e-10  -3.596571e-02  0 
 7.651790e-03  -3.662320e-02  0 
 1.631597e-02  -3.679049e-02  0 
 3.364400e-08  -5.610372e-02  0 
 1.060932e-02  -5.597329e-02  0 
 2.229994e-02  -5.800914e-02  0 
 -2.828827e-08  -7.681772e-02  0 
 1.303133e-02  -7.791653e-02  0 
 2.733408e-02  -7.899536e-02  0 
VECTORS displacement_ITER8 FLOAT
 0  0  0 
 1.814178e-03  -1.188209e-02  0 
 0  0  0 
 4.287827e-03  -1.171217e-02  0 
 -1.801541e-23  -7.494396e-24  0 
 8.771059e-03  -1.153101e-02  0 
 2.819394e-03  -2.723964e-02  0 
 9.672397e-03  -2.738115e-02  0 
 1.671078e-02  -2.803064e-02  0 
 4.780630e-03  -4.573717e-02  0 
 1.373171e-02  -4.646468e-02  0 
 5.561214e-03  -6.642722e-02  0 
 1.853936e-02  -6.734179e-02  0 
 2.512436e-03  -5.342702e-03  0 
 -3.873340e-23  -1.213436e-22  0 
 -8.452337e-09  -1.064220e-02  0 
 3.502156e-04  -5.083810e-03  0 
 0  0  0 
 3.933431e-03  -1.310572e-02  0 
 5.610105e-03  -5.137485e-03  0 
 0  0  0 
 4.560197e-03  -1.046618e-02  0 
 8.761397e-04  -1.925107e-02  0 
 9.338566e-09  -2.865546e-02  0 
 8.421409e-03  -1.892918e-02  0 
 5.259751e-03  -2.592592e-02  0 
 1.144744e-02  -1.976068e-02  0 
 1.496295e-02  -2.895652e-02  0 
 5.197370e-03  -3.612065e-02  0 
 -7.335690e-09  -4.432711e-02  0 
 1.042072e-02  -3.706436e-02  0 
 1.002558e-02  -4.734028e-02  0 
 1.764671e-02  -4.589933e-02  0 
 3.919938e-03  -5.611044e-02  0 
 1.058647e-08  -6.753542e-02  0 
 1.741896e-02  -5.623824e-02  0 
 1.114912e-02  -6.558232e-02  0 
 2.645365e-02  -6.943036e-02  0 
 7.557461e-03  -7.701434e-02  0 
 1.906224e-02  -7.889970e-02  0 
 4.147113e-09  -5.289329e-03  0 
 1.701863e-03  -5.641418e-03  0 
 2.874751e-03  -5.030836e-03  0 
 9.651136e-09  -1.943175e-02  0 
 4.594310e-03  -1.893919e-02  0 
 9.739764e-03  -1.946636e-02  0 
 -7.349745e-10  -3.596569e-02  0 
 7.651790e-03  -3.662319e-02  0 
 1.631599e-02  -3.679049e-02  0 
 -1.374433e-09  -5.610379e-02  0 
 1.060931e-02  -5.597331e-02  0 
 2.229989e-02  -5.800911e-02  0 
 9.135246e-10  -7.681772e-02  0 
 1.303130e-02  -7.791651e-02  0 
 2.733404e-02  -7.899535e-02  0 
VECTORS displacement_ITER9 FLOAT
 0  0  0 
 1.814176e-03  -1.188209e-02  0 
 0  0  0 
 4.287828e-03  -1.171217e-02  0 
 -4.851353e-24  -2.025745e-24  0 
 8.771058e-03  -1.153101e-02  0 
 2.819391e-03  -2.723965e-02  0 
 9.672397e-03  -2.738115e-02  0 
 1.671077e-02  -2.803065e-02  0 
 4.780629e-03  -4.573718e-02  0 
 1.373171e-02  -4.646468e-02  0 
 5.561216e-03  -6.642722e-02  0 
 1.853936e-02  -6.734179e-02  0 
 2.512436e-03  -5.342704e-03  0 
 -1.062308e-23  -3.342233e-23  0 
 -2.936446e-09  -1.064220e-02  0 
 3.502164e-04  -5.083809e-03  0 
 0  0  0 
 3.933431e-03  -1.310572e-02  0 
 5.610100e-03  -5.137481e-03  0 
 0  0  0 
 4.560196e-03  -1.046618e-02  0 
 8.761382e-04  -1.925107e-02  0 
 9.100031e-10  -2.865547e-02  0 
 8.421410e-03  -1.892918e-02  0 
 5.259750e-03  -2.592592e-02  0 
 1.144745e-02  -1.976067e-02  0 
 1.496296e-02  -2.895651e-02  0 
 5.197368e-03  -3.612066e-02  0 
 -1.354064e-09  -4.432711e-02  0 
 1.042072e-02  -3.706437e-02  0 
 1.002558e-02  -4.734029e-02  0 
 1.764671e-02  -4.589934e-02  0 
 3.919939e-03  -5.611044e-02  0 
 7.125996e-10  -6.753541e-02  0 
 1.741896e-02  -5.623824e-02  0 
 1.114912e-02  -6.558232e-02  0 
 2.645365e-02  -6.943037e-02  0 
 7.557461e-03  -7.701434e-02  0 
 1.906224e-02  -7.889970e-02  0 
 8.381449e-10  -5.289332e-03  0 
 1.701863e-03  -5.641418e-03  0 
 2.874751e-03  -5.030835e-03  0 
 1.113997e-09  -1.943176e-02  0 
 4.594311e-03  -1.893919e-02  0 
 9.739765e-03  -1.946636e-02  0 
 -1.187649e-09  -3.596570e-02  0 
 7.651788e-03  -3.662319e-02  0 
 1.631599e-02  -3.679049e-02  0 
 1.246765e-09  -5.610378e-02  0 
 1.060932e-02  -5.597331e-02  0 
 2.229988e-02  -5.800910e-02  0 
 -1.929856e-09  -7.681772e-02  0 
 1.303130e-02  -7.791650e-02  0 
 2.733405e-02  -7.899535e-02  0 
VECTORS displacement_ITER10 FLOAT
 0  0  0 
 1.814177e-03  -1.188209e-02  0 
 0  0  0 
 4.287828e-03  -1.171217e-02  0 
 -9.667938e-25  -4.050124e-25  0 
 8.771059e-03  -1.153101e-02  0 
 2.819392e-03  -2.723965e-02  0 
 9.672397e-03  -2.738115e-02  0 
 1.671077e-02  -2.803064e-02  0 
 4.780629e-03  -4.573717e-02  0 
 1.373171e-02  -4.646468e-02  0 
 5.561216e-03  -6.642722e-02  0 
 1.853936e-02  -6.734179e-02  0 
 2.512437e-03  -5.342704e-03  0 
 -2.171182e-24  -6.884770e-24  0 
 1.056957e-11  -1.064220e-02  0 
 3.502162e-04  -5.083809e-03  0 
 0  0  0 
 3.933431e-03  -1.310572e-02  0 
 5.610103e-03  -5.137483e-03  0 
 0  0  0 
 4.560197e-03  -1.046618e-02  0 
 8.761385e-04  -1.925107e-02  0 
 6.764807e-11  -2.865547e-02  0 
 8.421410e-03  -1.892918e-02  0 
 5.259751e-03  -2.592592e-02  0 
 1.144745e-02  -1.976067e-02  0 
 1.496296e-02  -2.895651e-02  0 
 5.197368e-03  -3.612066e-02  0 
 -8.547377e-11  -4.432711e-02  0 
 1.042072e-02  -3.706437e-02  0 
 1.002558e-02  -4.734029e-02  0 
 1.764671e-02  -4.589934e-02  0 
 3.919939e-03  -5.611044e-02  0 
 -1.816920e-12  -6.753541e-02  0 
 1.741896e-02  -5.623824e-02  0 
 1.114912e-02  -6.558232e-02  0 
 2.645365e-02  -6.943037e-02  0 
 7.557461e-03  -7.701434e-02  0 
 1.906224e-02  -7.889971e-02  0 
 3.522378e-10  -5.289332e-03  0 
 1.701863e-03  -5.641418e-03  0 
 2.874751e-03  -5.030836e-03  0 
 2.949326e-10  -1.943176e-02  0 
 4.594311e-03  -1.893919e-02  0 
 9.739765e-03  -1.946636e-02  0 
 -1.344491e-10  -3.596570e-02  0 
 7.651788e-03  -3.662319e-02  0 
 1.631599e-02  -3.679049e-02  0 
 -4.599582e-11  -5.610378e-02  0 
 1.060932e-02  -5.597331e-02  0 
 2.229988e-02  -5.800910e-02  0 
 -2.319068e-10  -7.681772e-02  0 
 1.303130e-02  -7.791650e-02  0 
 2.733405e-02  -7.899535e-02  0 
VECTORS displacement_ITER11 FLOAT
 0  0  0 
 1.814177e-03  -1.188209e-02  0 
 0  0  0 
 4.287828e-03  -1.171217e-02  0 
 -2.562108e-25  -1.079742e-25  0 
 8.771059e-03  -1.153101e-02  0 
 2.819392e-03  -2.723965e-02  0 
 9.672397e-03  -2.738115e-02  0 
 1.671077e-02  -2.803064e-02  0 
 4.780629e-03  -4.573717e-02  0 
 1.373171e-02  -4.646468e-02  0 
 5.561216e-03  -6.642722e-02  0 
 1.853936e-02  -6.734179e-02  0 
 2.512437e-03  -5.342704e-03  0 
 -5.651294e-25  -1.786707e-24  0 
 -2.221789e-11  -1.064220e-02  0 
 3.502162e-04  -5.083809e-03  0 
 0  0  0 
 3.933431e-03  -1.310572e-02  0 
 5.610103e-03  -5.137482e-03  0 
 0  0  0 
 4.560197e-03  -1.046618e-02  0 
 8.761385e-04  -1.925107e-02  0 
 -5.949702e-11  -2.865547e-02  0 
 8.421410e-03  -1.892918e-02  0 
 5.259751e-03  -2.592592e-02  0 
 1.144745e-02  -1.976067e-02  0 
 1.496296e-02  -2.895652e-02  0 
 5.197368e-03  -3.612066e-02  0 
 2.265446e-11  -4.432711e-02  0 
 1.042072e-02  -3.706437e-02  0 
 1.002558e-02  -4.734029e-02  0 
 1.764671e-02  -4.589934e-02  0 
 3.919939e-03  -5.611044e-02  0 
 1.675855e-11  -6.753541e-02  0 
 1.741896e-02  -5.623824e-02  0 
 1.114912e-02  -6.558232e-02  0 
 2.645365e-02  -6.943037e-02  0 
 7.557461e-03  -7.701434e-02  0 
 1.906224e-02  -7.889971e-02  0 
 3.993576e-11  -5.289332e-03  0 
 1.701863e-03  -5.641418e-03  0 
 2.874751e-03  -5.030836e-03  0 
 -2.654612e-11  -1.943176e-02  0 
 4.594311e-03  -1.893919e-02  0 
 9.739765e-03  -1.946636e-02  0 
 -2.898516e-11  -3.596570e-02  0 
 7.651788e-03  -3.662319e-02  0 
 1.631599e-02  -3.679049e-02  0 
 -1.310731e-11  -5.610378e-02  0 
 1.060932e-02  -5.597331e-02  0 
 2.229989e-02  -5.800910e-02  0 
 -1.255268e-11  -7.681772e-02  0 
 1.303130e-02  -7.791650e-02  0 
 2.733405e-02  -7.899535e-02  0 
CELL_DATA 40
TENSORS element_stresses FLOAT
 5.486649e-01  -1.249169e+00  0 
 -1.249169e+00  1.539250e-01  0 
 0  0  0 

 -2.387342e-01  -1.163945e+00  0 
 -1.163945e+00  -3.302737e-01  0 
 0  0  0 

 2.266311e-01  -4.536422e-01  0 
 -4.536422e-01  5.305362e-02  0 
 0  0  0 

 1.219429e-01  -4.644952e-01  0 
 -4.644952e-01  6.446333e-02  0 
 0  0  0 

 5.915416e-02  -4.882697e-01  0 
 -4.882697e-01  -5.837082e-02  0 
 0  0  0 

 3.711279e-01  -5.803814e-01  0 
 -5.803814e-01  2.088963e-01  0 
 0  0  0 

 7.122768e-01  -1.167709e+00  0 
 -1.167709e+00  2.242778e-01  0 
 0  0  0 

 1.857771e+00  -1.143533e+00  0 
 -1.143533e+00  5.360020e-01  0 
 0  0  0 

 1.321483e+00  -1.425662e+00  0 
 -1.425662e+00  6.562383e-01  0 
 0  0  0 

 9.879029e-01  -7.511780e-01  0 
 -7.511780e-01  6.207500e-02  0 
 0  0  0 

 -6.899993e-02  -5.180086e-01  0 
 -5.180086e-01  -7.366008e-02  0 
 0  0  0 

 1.330882e-01  -5.198750e-01  0 
 -5.198750e-01  1.197519e-01  0 
 0  0  0 

 -1.210295e-01  -1.133080e+00  0 
 -1.133080e+00  -2.186592e-01  0 
 0  0  0 

 1.146271e+00  -1.364459e+00  0 
 -1.364459e+00  6.245940e-01  0 
 0  0  0 

 6.805216e-01  -1.356427e+00  0 
 -1.356427e+00  5.292765e-01  0 
 0  0  0 

 3.259041e-01  -1.107531e+00  0 
 -1.107531e+00  -1.912710e-01  0 
 0  0  0 

 5.233953e-01  -5.625564e-01  0 
 -5.625564e-01  1.924592e-01  0 
 0  0  0 

 4.092425e-01  -4.350500e-01  0 
 -4.350500e-01  5.481560e-02  0 
 0  0  0 

 3.209021e-01  -4.358926e-01  0 
 -4.358926e-01  -9.356700e-03  0 
 0  0  0 

 5.865929e-01  -5.501781e-01  0 
 -5.501781e-01  2.075559e-01  0 
 0  0  0 

 6.057655e-01  -1.257612e+00  0 
 -1.257612e+00  4.339009e-01  0 
 0  0  0 

 -1.947793e-01  -1.230760e+00  0 
 -1.230760e+00  -3.714385e-01  0 
 0  0  0 

 2.754599e-01  -5.647499e-01  0 
 -5.647499e-01  1.231973e-01  0 
 0  0  0 

 1.412877e-01  -5.076505e-01  0 
 -5.076505e-01  -5.243358e-02  0 
 0  0  0 

 7.282181e-02  -4.859324e-01  0 
 -4.859324e-01  -8.343596e-02  0 
 0  0  0 

 3.195116e-01  -5.247061e-01  0 
 -5.247061e-01  1.175750e-01  0 
 0  0  0 

 3.760225e-01  -9.740544e-01  0 
 -9.740544e-01  -1.474913e-01  0 
 0  0  0 

 1.075489e+00  -1.338290e+00  0 
 -1.338290e+00  4.904901e-01  0 
 0  0  0 

 -7.064316e-02  -5.172834e-01  0 
 -5.172834e-01  -9.202880e-02  0 
 0  0  0 

 1.083373e-01  -4.718173e-01  0 
 -4.718173e-01  8.757819e-02  0 
 0  0  0 

 -1.575274e-01  -1.087994e+00  0 
 -1.087994e+00  -3.404552e-01  0 
 0  0  0 

 9.789432e-01  -1.213971e+00  0 
 -1.213971e+00  4.158169e-01  0 
 0  0  0 

 5.441070e-01  -1.176694e+00  0 
 -1.176694e+00  3.596370e-01  0 
 0  0  0 

 2.314028e-01  -1.001948e+00  0 
 -1.001948e+00  -3.354598e-01  0 
 0  0  0 

 4.383942e-01  -5.033610e-01  0 
 -5.033610e-01  7.124257e-02  0 
 0  0  0 

 2.261724e-01  -3.742153e-01  0 
 -3.742153e-01  -1.251200e-01  0 
 0  0  0 

 4.988386e-01  -1.038577e+00  0 
 -1.038577e+00  3.319660e-01  0 
 0  0  0 

 2.121564e-01  -4.561371e-01  0 
 -4.561371e-01  6.078362e-02  0 
 0  0  0 

 8.693743e-02  -4.027273e-01  0 
 -4.027273e-01  -1.110524e-01  0 
 0  0  0 

 1.643979e-01  -7.595081e-01  0 
 -7.595081e-01  -3.875258e-01  0 
 0  0  0 

TENSORS element_stresses FLOAT
 5.486649e-01  -1.249169e+00  0 
 -1.249169e+00  1.539250e-01  0 
 0  0  0 

 -2.387342e-01  -1.163945e+00  0 
 -1.163945e+00  -3.302737e-01  0 
 0  0  0 

 2.266311e-01  -4.536422e-01  0 
 -4.536422e-01  5.305362e-02  0 
 0  0  0 

 1.219429e-01  -4.644952e-01  0 
 -4.644952e-01  6.446333e-02  0 
 0  0  0 

 5.915416e-02  -4.882697e-01  0 
 -4.882697e-01  -5.837082e-02  0 
 0  0  0 

 3.711279e-01  -5.803814e-01  0 
 -5.803814e-01  2.088963e-01  0 
 0  0  0 

 7.122768e-01  -1.167709e+00  0 
 -1.167709e+00  2.242778e-01  0 
 0  0  0 

 1.857771e+00  -1.143533e+00  0 
 -1.143533e+00  5.360020e-01  0 
 0  0  0 

 1.321483e+00  -1.425662e+00  0 
 -1.425662e+00  6.562383e-01  0 
 0  0  0 

 9.879029e-01  -7.511780e-01  0 
 -7.511780e-01  6.207500e-02  0 
 0  0  0 

 -6.899993e-02  -5.180086e-01  0 
 -5.180086e-01  -7.366008e-02  0 
 0  0  0 

 1.330882e-01  -5.198750e-01  0 
 -5.198750e-01  1.197519e-01  0 
 0  0  0 

 -1.210295e-01  -1.133080e+00  0 
 -1.133080e+00  -2.186592e-01  0 
 0  0  0 

 1.146271e+00  -1.364459e+00  0 
 -1.364459e+00  6.245940e-01  0 
 0  0  0 

 6.805216e-01  -1.356427e+00  0 
 -1.356427e+00  5.292765e-01  0 
 0  0  0 

 3.259041e-01  -1.107531e+00  0 
 -1.107531e+00  -1.912710e-01  0 
 0  0  0 

 5.233953e-01  -5.625564e-01  0 
 -5.625564e-01  1.924592e-01  0 
 0  0  0 

 4.092425e-01  -4.350500e-01  0 
 -4.350500e-01  5.481560e-02  0 
 0  0  0 

 3.209021e-01  -4.358926e-01  0 
 -4.358926e-01  -9.356700e-03  0 
 0  0  0 

 5.865929e-01  -5.501781e-01  0 
 -5.501781e-01  2.075559e-01  0 
 0  0  0 

 6.057655e-01  -1.257612e+00  0 
 -1.257612e+00  4.339009e-01  0 
 0  0  0 

 -1.947793e-01  -1.230760e+00  0 
 -1.230760e+00  -3.714385e-01  0 
 0  0  0 

 2.754599e-01  -5.647499e-01  0 
 -5.647499e-01  1.231973e-01  0 
 0  0  0 

 1.412877e-01  -5.076505e-01  0 
 -5.076505e-01  -5.243358e-02  0 
 0  0  0 

 7.282181e-02  -4.859324e-01  0 
 -4.859324e-01  -8.343596e-02  0 
 0  0  0 

 3.195116e-01  -5.247061e-01  0 
 -5.247061e-01  1.175750e-01  0 
 0  0  0 

 3.760225e-01  -9.740544e-01  0 
 -9.740544e-01  -1.474913e-01  0 
 0  0  0 

 1.075489e+00  -1.338290e+00  0 
 -1.338290e+00  4.904901e-01  0 
 0  0  0 

 -7.064316e-02  -5.172834e-01  0 
 -5.172834e-01  -9.202880e-02  0 
 0  0  0 

 1.083373e-01  -4.718173e-01  0 
 -4.718173e-01  8.757819e-02  0 
 0  0  0 

 -1.575274e-01  -1.087994e+00  0 
 -1.087994e+00  -3.404552e-01  0 
 0  0  0 

 9.789432e-01  -1.213971e+00  0 
 -1.213971e+00  4.158169e-01  0 
 0  0  0 

 5.441070e-01  -1.176694e+00  0 
 -1.176694e+00  3.596370e-01  0 
 0  0  0 

 2.314028e-01  -1.001948e+00  0 
 -1.001948e+00  -3.354598e-01  0 
 0  0  0 

 4.383942e-01  -5.033610e-01  0 
 -5.033610e-01  7.124257e-02  0 
 0  0  0 

 2.261724e-01  -3.742153e-01  0 
 -3.742153e-01  -1.251200e-01  0 
 0  0  0 

 4.988386e-01  -1.038577e+00  0 
 -1.038577e+00  3.319660e-01  0 
 0  0  0 

 2.121564e-01  -4.561371e-01  0 
 -4.561371e-01  6.078362e-02  0 
 0  0  0 

 8.693743e-02  -4.027273e-01  0 
 -4.027273e-01  -1.110524e-01  0 
 0  0  0 

 1.643979e-01  -7.595081e-01  0 
 -7.595081e-01  -3.875258e-01  0 
 0  0  0 

