# vtk DataFile Version 3.1
this is an vtk file created by FEMAC
ASCII
DATASET UNSTRUCTURED_GRID
POINTS 56 FLOAT
5.000000 7.000000 0.000000
5.000000 8.000000 0.000000
5.000000 9.000000 0.000000
6.000000 7.000000 0.000000
6.000000 8.000000 0.000000
6.000000 9.000000 0.000000
7.000000 7.000000 0.000000
7.000000 8.000000 0.000000
7.000000 9.000000 0.000000
8.000000 7.000000 0.000000
8.000000 8.000000 0.000000
8.000000 9.000000 0.000000
9.000000 7.000000 0.000000
9.000000 8.000000 0.000000
9.000000 9.000000 0.000000
4.500000 7.000000 0.000000
4.500000 8.000000 0.000000
5.000000 7.500000 0.000000
4.500000 9.000000 0.000000
5.000000 8.500000 0.000000
5.500000 7.000000 0.000000
5.500000 8.000000 0.000000
6.000000 7.500000 0.000000
5.500000 9.000000 0.000000
6.000000 8.500000 0.000000
6.500000 7.000000 0.000000
7.000000 6.500000 0.000000
6.500000 8.000000 0.000000
7.000000 7.500000 0.000000
6.500000 9.000000 0.000000
7.000000 8.500000 0.000000
7.500000 7.000000 0.000000
8.000000 6.500000 0.000000
7.500000 8.000000 0.000000
8.000000 7.500000 0.000000
7.500000 9.000000 0.000000
8.000000 8.500000 0.000000
8.500000 7.000000 0.000000
9.000000 6.500000 0.000000
8.500000 8.000000 0.000000
9.000000 7.500000 0.000000
8.500000 9.000000 0.000000
9.000000 8.500000 0.000000
4.500000 7.500000 0.000000
4.500000 8.500000 0.000000
5.500000 7.500000 0.000000
5.500000 8.500000 0.000000
6.500000 6.500000 0.000000
6.500000 7.500000 0.000000
6.500000 8.500000 0.000000
7.500000 6.500000 0.000000
7.500000 7.500000 0.000000
7.500000 8.500000 0.000000
8.500000 6.500000 0.000000
8.500000 7.500000 0.000000
8.500000 8.500000 0.000000
CELLS 41 205 
4 15  0 17 43
4 43 17  1 16
4 16  1 19 44
4 44 19  2 18
4 0 20 45 17
4 17 45 21  1
4 20  3 22 45
4 45 22  4 21
4 1 21 46 19
4 19 46 23  2
4 21  4 24 46
4 46 24  5 23
4 47 26  6 25
4 3 25 48 22
4 22 48 27  4
4 25  6 28 48
4 48 28  7 27
4 4 27 49 24
4 24 49 29  5
4 27  7 30 49
4 49 30  8 29
4 26 50 31  6
4 50 32  9 31
4 6 31 51 28
4 28 51 33  7
4 31  9 34 51
4 51 34 10 33
4 7 33 52 30
4 30 52 35  8
4 33 10 36 52
4 52 36 11 35
4 32 53 37  9
4 53 38 12 37
4 9 37 54 34
4 34 54 39 10
4 37 12 40 54
4 54 40 13 39
4 10 39 55 36
4 36 55 41 11
4 39 13 42 55
4 55 42 14 41
CELL_TYPES 41
9 9 9 9 9 9 9 9 9 9 9 9 9 9 9 9 9 9 9 9 9 9 9 9 9 9 9 9 9 9 9 9 9 9 9 9 9 9 9 9 9 
POINT_DATA 56
VECTORS displacement_ITER1 FLOAT
 1.694836e-02  -1.378919e-01  0 
 1.732291e-01  -1.423854e-01  0 
 3.235831e-01  -1.434724e-01  0 
 2.693761e-02  -2.962244e-01  0 
 1.795154e-01  -2.996589e-01  0 
 3.286570e-01  -3.010562e-01  0 
 4.980985e-02  -4.438243e-01  0 
 1.842177e-01  -4.470853e-01  0 
 3.266260e-01  -4.473121e-01  0 
 5.432076e-02  -5.803509e-01  0 
 1.867621e-01  -5.826200e-01  0 
 3.216295e-01  -5.837319e-01  0 
 5.683021e-02  -7.074982e-01  0 
 1.875521e-01  -7.170792e-01  0 
 3.215970e-01  -7.178209e-01  0 
 2.695715e-03  -3.952052e-02  0 
 1.681009e-01  -6.424622e-02  0 
 9.786945e-02  -1.404183e-01  0 
 3.203260e-01  -6.649056e-02  0 
 2.469735e-01  -1.428150e-01  0 
 2.225882e-02  -2.186762e-01  0 
 1.771354e-01  -2.205112e-01  0 
 1.025589e-01  -2.984185e-01  0 
 3.283811e-01  -2.237027e-01  0 
 2.545514e-01  -3.007968e-01  0 
 4.695420e-02  -3.750514e-01  0 
 -1.663376e-02  -4.416567e-01  0 
 1.817981e-01  -3.753262e-01  0 
 1.175640e-01  -4.460659e-01  0 
 3.278179e-01  -3.748366e-01  0 
 2.546615e-01  -4.474715e-01  0 
 5.190820e-02  -5.136463e-01  0 
 -7.937788e-03  -5.793563e-01  0 
 1.859665e-01  -5.147014e-01  0 
 1.192450e-01  -5.813973e-01  0 
 3.232130e-01  -5.167412e-01  0 
 2.544887e-01  -5.834931e-01  0 
 5.613191e-02  -6.442227e-01  0 
 -5.148870e-03  -7.059752e-01  0 
 1.871847e-01  -6.502522e-01  0 
 1.216656e-01  -7.130029e-01  0 
 3.215764e-01  -6.507121e-01  0 
 2.544703e-01  -7.176745e-01  0 
 8.826512e-02  -5.395280e-02  0 
 2.464365e-01  -6.655675e-02  0 
 9.974186e-02  -2.198051e-01  0 
 2.512049e-01  -2.223749e-01  0 
 -1.645362e-02  -3.755949e-01  0 
 1.106175e-01  -3.755024e-01  0 
 2.548331e-01  -3.751613e-01  0 
 -1.169396e-02  -5.115799e-01  0 
 1.187631e-01  -5.140872e-01  0 
 2.545961e-01  -5.166594e-01  0 
 -6.850696e-03  -6.431930e-01  0 
 1.202459e-01  -6.476490e-01  0 
 2.544615e-01  -6.506006e-01  0 
VECTORS displacement_ITER2 FLOAT
 5.908063e-02  -2.197826e-01  0 
 1.154495e-01  -2.229335e-01  0 
 1.696138e-01  -2.232930e-01  0 
 6.800247e-02  -2.788829e-01  0 
 1.217992e-01  -2.820132e-01  0 
 1.723609e-01  -2.832696e-01  0 
 9.023857e-02  -3.276785e-01  0 
 1.261279e-01  -3.307348e-01  0 
 1.700633e-01  -3.309037e-01  0 
 9.465949e-02  -3.650557e-01  0 
 1.284292e-01  -3.674641e-01  0 
 1.646109e-01  -3.685368e-01  0 
 9.716112e-02  -3.929607e-01  0 
 1.292365e-01  -4.031246e-01  0 
 1.645445e-01  -4.038974e-01  0 
 4.817071e-02  -1.746415e-01  0 
 1.103956e-01  -1.926215e-01  0 
 8.961645e-02  -2.216837e-01  0 
 1.666404e-01  -1.939494e-01  0 
 1.409400e-01  -2.228331e-01  0 
 6.361177e-02  -2.507023e-01  0 
 1.194674e-01  -2.522154e-01  0 
 9.422836e-02  -2.808387e-01  0 
 1.730918e-01  -2.549904e-01  0 
 1.475023e-01  -2.830955e-01  0 
 8.737409e-02  -3.084263e-01  0 
 7.322596e-02  -3.256156e-01  0 
 1.239306e-01  -3.082993e-01  0 
 1.086538e-01  -3.297802e-01  0 
 1.713568e-01  -3.077640e-01  0 
 1.474117e-01  -3.311013e-01  0 
 9.233945e-02  -3.479404e-01  0 
 8.190743e-02  -3.639700e-01  0 
 1.276866e-01  -3.489856e-01  0 
 1.102512e-01  -3.662227e-01  0 
 1.663755e-01  -3.509210e-01  0 
 1.468206e-01  -3.683148e-01  0 
 9.640414e-02  -3.792182e-01  0 
 8.461319e-02  -3.912688e-01  0 
 1.288574e-01  -3.856760e-01  0 
 1.126782e-01  -3.988536e-01  0 
 1.645313e-01  -3.861564e-01  0 
 1.467859e-01  -4.037439e-01  0 
 8.025047e-02  -1.853382e-01  0 
 1.405168e-01  -1.943009e-01  0 
 9.145992e-02  -2.515417e-01  0 
 1.446568e-01  -2.539638e-01  0 
 7.343211e-02  -3.091318e-01  0 
 1.019952e-01  -3.086124e-01  0 
 1.476643e-01  -3.081024e-01  0 
 7.809921e-02  -3.459244e-01  0 
 1.097956e-01  -3.483780e-01  0 
 1.471023e-01  -3.509094e-01  0 
 8.298467e-02  -3.780812e-01  0 
 1.111999e-01  -3.828982e-01  0 
 1.467745e-01  -3.860460e-01  0 
VECTORS displacement_ITER3 FLOAT
 7.778189e-02  -1.961564e-01  0 
 1.110856e-01  -1.990419e-01  0 
 1.442696e-01  -1.998093e-01  0 
 8.264969e-02  -2.327188e-01  0 
 1.161580e-01  -2.359567e-01  0 
 1.550380e-01  -2.384469e-01  0 
 8.297499e-02  -2.730738e-01  0 
 1.194700e-01  -2.756535e-01  0 
 1.569954e-01  -2.769230e-01  0 
 8.228734e-02  -3.133898e-01  0 
 1.212728e-01  -3.152614e-01  0 
 1.605650e-01  -3.166237e-01  0 
 8.255174e-02  -3.531703e-01  0 
 1.215094e-01  -3.557634e-01  0 
 1.610263e-01  -3.559795e-01  0 
 7.217629e-02  -1.701114e-01  0 
 1.070923e-01  -1.804866e-01  0 
 9.575209e-02  -1.978795e-01  0 
 1.414781e-01  -1.821305e-01  0 
 1.266631e-01  -1.992389e-01  0 
 8.038604e-02  -2.153624e-01  0 
 1.141009e-01  -2.163531e-01  0 
 9.766476e-02  -2.339610e-01  0 
 1.502346e-01  -2.198755e-01  0 
 1.360884e-01  -2.375773e-01  0 
 8.382130e-02  -2.499269e-01  0 
 6.233917e-02  -2.718620e-01  0 
 1.178348e-01  -2.566458e-01  0 
 1.016518e-01  -2.745597e-01  0 
 1.561614e-01  -2.573931e-01  0 
 1.375910e-01  -2.764366e-01  0 
 8.223446e-02  -2.939989e-01  0 
 6.276099e-02  -3.125154e-01  0 
 1.207879e-01  -2.946903e-01  0 
 1.015436e-01  -3.142549e-01  0 
 1.590550e-01  -2.972070e-01  0 
 1.410289e-01  -3.162152e-01  0 
 8.248674e-02  -3.331775e-01  0 
 6.295243e-02  -3.524930e-01  0 
 1.213732e-01  -3.359189e-01  0 
 1.022799e-01  -3.546181e-01  0 
 1.608988e-01  -3.362034e-01  0 
 1.412348e-01  -3.559418e-01  0 
 8.793981e-02  -1.757990e-01  0 
 1.260886e-01  -1.820251e-01  0 
 9.683771e-02  -2.159982e-01  0 
 1.314099e-01  -2.180218e-01  0 
 6.044305e-02  -2.476504e-01  0 
 1.001959e-01  -2.540052e-01  0 
 1.370308e-01  -2.571305e-01  0 
 6.493988e-02  -2.925783e-01  0 
 1.016174e-01  -2.941777e-01  0 
 1.395046e-01  -2.962830e-01  0 
 6.229774e-02  -3.327021e-01  0 
 1.018311e-01  -3.348636e-01  0 
 1.412395e-01  -3.360617e-01  0 
VECTORS displacement_ITER4 FLOAT
 7.519012e-02  -1.874048e-01  0 
 1.101755e-01  -1.910516e-01  0 
 1.452162e-01  -1.922824e-01  0 
 8.074988e-02  -2.266099e-01  0 
 1.162318e-01  -2.299934e-01  0 
 1.557519e-01  -2.325739e-01  0 
 8.510603e-02  -2.671708e-01  0 
 1.201333e-01  -2.701065e-01  0 
 1.572480e-01  -2.712073e-01  0 
 8.563596e-02  -3.062090e-01  0 
 1.222452e-01  -3.079818e-01  0 
 1.595939e-01  -3.093109e-01  0 
 8.645599e-02  -3.427833e-01  0 
 1.225721e-01  -3.463018e-01  0 
 1.599814e-01  -3.466007e-01  0 
 6.970743e-02  -1.610815e-01  0 
 1.056036e-01  -1.716842e-01  0 
 9.434170e-02  -1.896152e-01  0 
 1.426116e-01  -1.731980e-01  0 
 1.263874e-01  -1.915567e-01  0 
 7.804268e-02  -2.080357e-01  0 
 1.138327e-01  -2.093092e-01  0 
 9.685998e-02  -2.279823e-01  0 
 1.511703e-01  -2.133283e-01  0 
 1.365519e-01  -2.317063e-01  0 
 8.495074e-02  -2.454145e-01  0 
 6.603929e-02  -2.656349e-01  0 
 1.181829e-01  -2.511381e-01  0 
 1.031628e-01  -2.689946e-01  0 
 1.566794e-01  -2.517253e-01  0 
 1.379728e-01  -2.708131e-01  0 
 8.501429e-02  -2.876151e-01  0 
 6.805292e-02  -3.053958e-01  0 
 1.216666e-01  -2.883860e-01  0 
 1.034946e-01  -3.069669e-01  0 
 1.585341e-01  -2.908549e-01  0 
 1.410527e-01  -3.089262e-01  0 
 8.625730e-02  -3.245160e-01  0 
 6.870607e-02  -3.421526e-01  0 
 1.223998e-01  -3.275635e-01  0 
 1.045763e-01  -3.447130e-01  0 
 1.598701e-01  -3.278638e-01  0 
 1.412287e-01  -3.465464e-01  0 
 8.630291e-02  -1.670255e-01  0 
 1.254754e-01  -1.731017e-01  0 
 9.566250e-02  -2.087791e-01  0 
 1.316293e-01  -2.113412e-01  0 
 6.474938e-02  -2.438970e-01  0 
 1.005157e-01  -2.488498e-01  0 
 1.374849e-01  -2.515464e-01  0 
 6.863442e-02  -2.860403e-01  0 
 1.034340e-01  -2.878573e-01  0 
 1.397029e-01  -2.900410e-01  0 
 6.797950e-02  -3.239956e-01  0 
 1.039733e-01  -3.263617e-01  0 
 1.412324e-01  -3.277276e-01  0 
VECTORS displacement_ITER5 FLOAT
 7.296133e-02  -1.835731e-01  0 
 1.097437e-01  -1.881302e-01  0 
 1.468970e-01  -1.899697e-01  0 
 7.872306e-02  -2.268326e-01  0 
 1.172050e-01  -2.301812e-01  0 
 1.584019e-01  -2.329855e-01  0 
 8.725797e-02  -2.690455e-01  0 
 1.216773e-01  -2.721124e-01  0 
 1.595209e-01  -2.729216e-01  0 
 8.911964e-02  -3.075819e-01  0 
 1.241026e-01  -3.092125e-01  0 
 1.604075e-01  -3.104826e-01  0 
 9.058128e-02  -3.414549e-01  0 
 1.245421e-01  -3.461705e-01  0 
 1.606946e-01  -3.465766e-01  0 
 6.860870e-02  -1.570085e-01  0 
 1.042847e-01  -1.677522e-01  0 
 9.342548e-02  -1.864115e-01  0 
 1.442732e-01  -1.690814e-01  0 
 1.265457e-01  -1.889756e-01  0 
 7.571843e-02  -2.063311e-01  0 
 1.143802e-01  -2.077740e-01  0 
 9.650718e-02  -2.281778e-01  0 
 1.535341e-01  -2.125268e-01  0 
 1.384138e-01  -2.320637e-01  0 
 8.600688e-02  -2.485333e-01  0 
 6.962597e-02  -2.672242e-01  0 
 1.194070e-01  -2.524900e-01  0 
 1.050905e-01  -2.711184e-01  0 
 1.592099e-01  -2.529059e-01  0 
 1.398035e-01  -2.726487e-01  0 
 8.787853e-02  -2.893689e-01  0 
 7.330561e-02  -3.068947e-01  0 
 1.234254e-01  -2.901782e-01  0 
 1.059174e-01  -3.081962e-01  0 
 1.599204e-01  -2.924964e-01  0 
 1.424096e-01  -3.101334e-01  0 
 9.021407e-02  -3.246742e-01  0 
 7.443228e-02  -3.408523e-01  0 
 1.243240e-01  -3.281260e-01  0 
 1.073941e-01  -3.440192e-01  0 
 1.606052e-01  -3.284493e-01  0 
 1.425516e-01  -3.465001e-01  0 
 8.510398e-02  -1.631673e-01  0 
 1.250684e-01  -1.690061e-01  0 
 9.495536e-02  -2.070573e-01  0 
 1.328382e-01  -2.102325e-01  0 
 6.914740e-02  -2.481047e-01  0 
 1.012629e-01  -2.507752e-01  0 
 1.393985e-01  -2.528041e-01  0 
 7.209097e-02  -2.877540e-01  0 
 1.056975e-01  -2.896553e-01  0 
 1.412826e-01  -2.918373e-01  0 
 7.365938e-02  -3.240890e-01  0 
 1.066030e-01  -3.267323e-01  0 
 1.425521e-01  -3.283197e-01  0 
VECTORS displacement_ITER6 FLOAT
 7.638432e-02  -1.821356e-01  0 
 1.085178e-01  -1.871350e-01  0 
 1.423845e-01  -1.893200e-01  0 
 8.085361e-02  -2.225994e-01  0 
 1.160079e-01  -2.255321e-01  0 
 1.557625e-01  -2.286623e-01  0 
 8.398518e-02  -2.642452e-01  0 
 1.199441e-01  -2.669659e-01  0 
 1.578839e-01  -2.679086e-01  0 
 8.460401e-02  -3.045553e-01  0 
 1.221410e-01  -3.060984e-01  0 
 1.605749e-01  -3.074089e-01  0 
 8.558650e-02  -3.422125e-01  0 
 1.224695e-01  -3.455011e-01  0 
 1.609562e-01  -3.458023e-01  0 
 7.415779e-02  -1.602240e-01  0 
 1.029041e-01  -1.687512e-01  0 
 9.438954e-02  -1.853449e-01  0 
 1.400291e-01  -1.699838e-01  0 
 1.235981e-01  -1.882106e-01  0 
 7.838523e-02  -2.035172e-01  0 
 1.132619e-01  -2.046983e-01  0 
 9.677395e-02  -2.234421e-01  0 
 1.495111e-01  -2.098511e-01  0 
 1.364753e-01  -2.275628e-01  0 
 8.346234e-02  -2.426746e-01  0 
 6.533452e-02  -2.626809e-01  0 
 1.179455e-01  -2.473159e-01  0 
 1.024910e-01  -2.660739e-01  0 
 1.570905e-01  -2.479939e-01  0 
 1.381715e-01  -2.675145e-01  0 
 8.395742e-02  -2.852338e-01  0 
 6.671817e-02  -3.039194e-01  0 
 1.215376e-01  -2.859510e-01  0 
 1.029224e-01  -3.051261e-01  0 
 1.594668e-01  -2.882856e-01  0 
 1.414698e-01  -3.070298e-01  0 
 8.531745e-02  -3.233987e-01  0 
 6.706382e-02  -3.417982e-01  0 
 1.222983e-01  -3.262308e-01  0 
 1.040253e-01  -3.439477e-01  0 
 1.608462e-01  -3.265216e-01  0 
 1.416609e-01  -3.457468e-01  0 
 8.636398e-02  -1.649608e-01  0 
 1.218345e-01  -1.698249e-01  0 
 9.576772e-02  -2.040299e-01  0 
 1.304070e-01  -2.072926e-01  0 
 6.468750e-02  -2.419496e-01  0 
 1.000645e-01  -2.452003e-01  0 
 1.376257e-01  -2.477479e-01  0 
 6.675602e-02  -2.839074e-01  0 
 1.028223e-01  -2.854565e-01  0 
 1.400179e-01  -2.874720e-01  0 
 6.670506e-02  -3.229065e-01  0 
 1.034338e-01  -3.251442e-01  0 
 1.416625e-01  -3.263854e-01  0 
VECTORS displacement_ITER7 FLOAT
 7.381166e-02  -1.818049e-01  0 
 1.074666e-01  -1.871888e-01  0 
 1.438006e-01  -1.894022e-01  0 
 7.887470e-02  -2.243606e-01  0 
 1.149593e-01  -2.268695e-01  0 
 1.546513e-01  -2.297432e-01  0 
 8.365374e-02  -2.649634e-01  0 
 1.187200e-01  -2.678370e-01  0 
 1.562020e-01  -2.686802e-01  0 
 8.488518e-02  -3.038303e-01  0 
 1.208201e-01  -3.054914e-01  0 
 1.578020e-01  -3.067462e-01  0 
 8.619548e-02  -3.388678e-01  0 
 1.212088e-01  -3.432102e-01  0 
 1.581144e-01  -3.435855e-01  0 
 7.115131e-02  -1.590454e-01  0 
 1.016270e-01  -1.675591e-01  0 
 9.270157e-02  -1.853303e-01  0 
 1.419862e-01  -1.685969e-01  0 
 1.236680e-01  -1.883551e-01  0 
 7.593977e-02  -2.044889e-01  0 
 1.123101e-01  -2.055764e-01  0 
 9.527334e-02  -2.249814e-01  0 
 1.495831e-01  -2.106013e-01  0 
 1.353758e-01  -2.287724e-01  0 
 8.262655e-02  -2.442002e-01  0 
 6.564510e-02  -2.632784e-01  0 
 1.168040e-01  -2.485016e-01  0 
 1.017405e-01  -2.669075e-01  0 
 1.556721e-01  -2.490188e-01  0 
 1.367593e-01  -2.683682e-01  0 
 8.399224e-02  -2.853946e-01  0 
 6.839005e-02  -3.030524e-01  0 
 1.202292e-01  -2.861478e-01  0 
 1.022923e-01  -3.044980e-01  0 
 1.570947e-01  -2.883949e-01  0 
 1.394451e-01  -3.063947e-01  0 
 8.578085e-02  -3.212987e-01  0 
 6.882344e-02  -3.383373e-01  0 
 1.210070e-01  -3.247694e-01  0 
 1.036127e-01  -3.412256e-01  0 
 1.580197e-01  -3.250868e-01  0 
 1.396010e-01  -3.435145e-01  0 
 8.449679e-02  -1.638449e-01  0 
 1.219014e-01  -1.684804e-01  0 
 9.421602e-02  -2.048912e-01  0 
 1.299655e-01  -2.082819e-01  0 
 6.515220e-02  -2.436067e-01  0 
 9.888138e-02  -2.466453e-01  0 
 1.363444e-01  -2.488431e-01  0 
 6.733910e-02  -2.839588e-01  0 
 1.021629e-01  -2.856474e-01  0 
 1.382646e-01  -2.876996e-01  0 
 6.857892e-02  -3.206686e-01  0 
 1.028711e-01  -3.234248e-01  0 
 1.396006e-01  -3.249551e-01  0 
VECTORS displacement_ITER8 FLOAT
 7.410604e-02  -1.814303e-01  0 
 1.081035e-01  -1.868871e-01  0 
 1.448629e-01  -1.890608e-01  0 
 7.926615e-02  -2.245278e-01  0 
 1.154462e-01  -2.268198e-01  0 
 1.551767e-01  -2.296019e-01  0 
 8.381212e-02  -2.650158e-01  0 
 1.190017e-01  -2.678074e-01  0 
 1.566397e-01  -2.686243e-01  0 
 8.495649e-02  -3.037774e-01  0 
 1.210026e-01  -3.054913e-01  0 
 1.580738e-01  -3.067330e-01  0 
 8.625365e-02  -3.387056e-01  0 
 1.213958e-01  -3.432615e-01  0 
 1.583747e-01  -3.436467e-01  0 
 7.124215e-02  -1.583992e-01  0 
 1.022675e-01  -1.670002e-01  0 
 9.317562e-02  -1.850423e-01  0 
 1.431387e-01  -1.680523e-01  0 
 1.245226e-01  -1.880414e-01  0 
 7.623462e-02  -2.044507e-01  0 
 1.128954e-01  -2.054634e-01  0 
 9.570621e-02  -2.250160e-01  0 
 1.503629e-01  -2.103743e-01  0 
 1.358523e-01  -2.286670e-01  0 
 8.280791e-02  -2.443135e-01  0 
 6.579483e-02  -2.633750e-01  0 
 1.171881e-01  -2.484380e-01  0 
 1.019201e-01  -2.669039e-01  0 
 1.561453e-01  -2.489271e-01  0 
 1.371511e-01  -2.683281e-01  0 
 8.412441e-02  -2.853957e-01  0 
 6.846723e-02  -3.029616e-01  0 
 1.204330e-01  -2.861438e-01  0 
 1.024286e-01  -3.044907e-01  0 
 1.574316e-01  -2.883514e-01  0 
 1.396751e-01  -3.063873e-01  0 
 8.581199e-02  -3.211433e-01  0 
 6.881591e-02  -3.381096e-01  0 
 1.211904e-01  -3.247863e-01  0 
 1.037412e-01  -3.412088e-01  0 
 1.582824e-01  -3.251119e-01  0 
 1.398251e-01  -3.435735e-01  0 
 8.499250e-02  -1.632066e-01  0 
 1.227715e-01  -1.679092e-01  0 
 9.469935e-02  -2.048048e-01  0 
 1.306449e-01  -2.081306e-01  0 
 6.534258e-02  -2.437460e-01  0 
 9.918165e-02  -2.466710e-01  0 
 1.367701e-01  -2.487574e-01  0 
 6.740188e-02  -2.840152e-01  0 
 1.023149e-01  -2.856437e-01  0 
 1.385605e-01  -2.876827e-01  0 
 6.864464e-02  -3.204721e-01  0 
 1.029791e-01  -3.233745e-01  0 
 1.398238e-01  -3.249803e-01  0 
VECTORS displacement_ITER9 FLOAT
 7.482283e-02  -1.813908e-01  0 
 1.083821e-01  -1.868978e-01  0 
 1.440496e-01  -1.891280e-01  0 
 8.005327e-02  -2.240694e-01  0 
 1.156779e-01  -2.263053e-01  0 
 1.554018e-01  -2.291696e-01  0 
 8.365733e-02  -2.644204e-01  0 
 1.193782e-01  -2.673597e-01  0 
 1.571091e-01  -2.682656e-01  0 
 8.478048e-02  -3.040504e-01  0 
 1.214545e-01  -3.056699e-01  0 
 1.590749e-01  -3.069283e-01  0 
 8.609037e-02  -3.400130e-01  0 
 1.218177e-01  -3.440879e-01  0 
 1.594066e-01  -3.444452e-01  0 
 7.171834e-02  -1.587774e-01  0 
 1.026043e-01  -1.675338e-01  0 
 9.366904e-02  -1.850563e-01  0 
 1.421464e-01  -1.688308e-01  0 
 1.243110e-01  -1.880702e-01  0 
 7.688464e-02  -2.042387e-01  0 
 1.131092e-01  -2.051656e-01  0 
 9.607408e-02  -2.244795e-01  0 
 1.501001e-01  -2.101092e-01  0 
 1.360944e-01  -2.281845e-01  0 
 8.278167e-02  -2.430773e-01  0 
 6.496748e-02  -2.627124e-01  0 
 1.174787e-01  -2.479245e-01  0 
 1.021112e-01  -2.663886e-01  0 
 1.564971e-01  -2.484921e-01  0 
 1.375404e-01  -2.679225e-01  0 
 8.392446e-02  -2.852411e-01  0 
 6.782780e-02  -3.032376e-01  0 
 1.208812e-01  -2.859676e-01  0 
 1.025888e-01  -3.046979e-01  0 
 1.582358e-01  -2.882457e-01  0 
 1.403900e-01  -3.065708e-01  0 
 8.566500e-02  -3.219401e-01  0 
 6.809628e-02  -3.395721e-01  0 
 1.216246e-01  -3.252987e-01  0 
 1.038779e-01  -3.422002e-01  0 
 1.593079e-01  -3.256064e-01  0 
 1.405532e-01  -3.443782e-01  0 
 8.565031e-02  -1.633979e-01  0 
 1.224949e-01  -1.685402e-01  0 
 9.517832e-02  -2.045643e-01  0 
 1.306353e-01  -2.077680e-01  0 
 6.439155e-02  -2.422323e-01  0 
 9.943664e-02  -2.459028e-01  0 
 1.370906e-01  -2.482937e-01  0 
 6.665326e-02  -2.837994e-01  0 
 1.024856e-01  -2.854778e-01  0 
 1.391406e-01  -2.875114e-01  0 
 6.801769e-02  -3.213236e-01  0 
 1.031622e-01  -3.240232e-01  0 
 1.405538e-01  -3.254741e-01  0 
VECTORS displacement_ITER10 FLOAT
 7.404476e-02  -1.814064e-01  0 
 1.081865e-01  -1.869424e-01  0 
 1.442521e-01  -1.891284e-01  0 
 7.950542e-02  -2.245691e-01  0 
 1.154246e-01  -2.267539e-01  0 
 1.551089e-01  -2.295269e-01  0 
 8.383189e-02  -2.646648e-01  0 
 1.190964e-01  -2.676302e-01  0 
 1.566336e-01  -2.685043e-01  0 
 8.505660e-02  -3.037329e-01  0 
 1.211734e-01  -3.053950e-01  0 
 1.582794e-01  -3.066503e-01  0 
 8.640452e-02  -3.389367e-01  0 
 1.215557e-01  -3.432484e-01  0 
 1.585958e-01  -3.436210e-01  0 
 7.059386e-02  -1.583866e-01  0 
 1.024333e-01  -1.673266e-01  0 
 9.320247e-02  -1.851036e-01  0 
 1.423570e-01  -1.686609e-01  0 
 1.243267e-01  -1.880952e-01  0 
 7.618463e-02  -2.045195e-01  0 
 1.128867e-01  -2.054756e-01  0 
 9.570718e-02  -2.249901e-01  0 
 1.501146e-01  -2.103204e-01  0 
 1.358086e-01  -2.285843e-01  0 
 8.282646e-02  -2.438169e-01  0 
 6.562569e-02  -2.629083e-01  0 
 1.172093e-01  -2.483151e-01  0 
 1.020363e-01  -2.666589e-01  0 
 1.561065e-01  -2.488279e-01  0 
 1.371702e-01  -2.681861e-01  0 
 8.417170e-02  -2.852174e-01  0 
 6.848144e-02  -3.029053e-01  0 
 1.205901e-01  -2.859803e-01  0 
 1.025660e-01  -3.044046e-01  0 
 1.575495e-01  -2.882463e-01  0 
 1.398604e-01  -3.062977e-01  0 
 8.595593e-02  -3.212361e-01  0 
 6.877187e-02  -3.384480e-01  0 
 1.213554e-01  -3.247398e-01  0 
 1.038915e-01  -3.412704e-01  0 
 1.585003e-01  -3.250557e-01  0 
 1.400157e-01  -3.435508e-01  0 
 8.520570e-02  -1.630600e-01  0 
 1.225411e-01  -1.683408e-01  0 
 9.475170e-02  -2.048679e-01  0 
 1.305092e-01  -2.080473e-01  0 
 6.521407e-02  -2.431486e-01  0 
 9.921689e-02  -2.464305e-01  0 
 1.367569e-01  -2.486529e-01  0 
 6.718976e-02  -2.837557e-01  0 
 1.024485e-01  -2.854758e-01  0 
 1.386787e-01  -2.875433e-01  0 
 6.870703e-02  -3.205975e-01  0 
 1.031461e-01  -3.233984e-01  0 
 1.400157e-01  -3.249240e-01  0 
VECTORS displacement_ITER11 FLOAT
 7.423131e-02  -1.814143e-01  0 
 1.082052e-01  -1.869393e-01  0 
 1.440864e-01  -1.891195e-01  0 
 7.965370e-02  -2.244072e-01  0 
 1.154438e-01  -2.266097e-01  0 
 1.550854e-01  -2.293983e-01  0 
 8.382101e-02  -2.644938e-01  0 
 1.191229e-01  -2.674667e-01  0 
 1.566531e-01  -2.683525e-01  0 
 8.499019e-02  -3.036584e-01  0 
 1.212085e-01  -3.053088e-01  0 
 1.583958e-01  -3.065709e-01  0 
 8.630715e-02  -3.390554e-01  0 
 1.215849e-01  -3.432671e-01  0 
 1.587193e-01  -3.436321e-01  0 
 7.089292e-02  -1.587000e-01  0 
 1.024696e-01  -1.674245e-01  0 
 9.328437e-02  -1.851050e-01  0 
 1.421617e-01  -1.687769e-01  0 
 1.242632e-01  -1.880881e-01  0 
 7.632754e-02  -2.044242e-01  0 
 1.128992e-01  -2.053918e-01  0 
 9.577879e-02  -2.248368e-01  0 
 1.500187e-01  -2.102431e-01  0 
 1.358078e-01  -2.284475e-01  0 
 8.283804e-02  -2.436498e-01  0 
 6.563295e-02  -2.627239e-01  0 
 1.172322e-01  -2.481547e-01  0 
 1.020406e-01  -2.664932e-01  0 
 1.561049e-01  -2.486795e-01  0 
 1.371908e-01  -2.680270e-01  0 
 8.413309e-02  -2.850792e-01  0 
 6.830970e-02  -3.028443e-01  0 
 1.206230e-01  -2.858476e-01  0 
 1.025634e-01  -3.043189e-01  0 
 1.576284e-01  -2.881248e-01  0 
 1.399345e-01  -3.062153e-01  0 
 8.586767e-02  -3.212588e-01  0 
 6.856589e-02  -3.385791e-01  0 
 1.213878e-01  -3.247072e-01  0 
 1.038657e-01  -3.413308e-01  0 
 1.586221e-01  -3.250208e-01  0 
 1.400930e-01  -3.435635e-01  0 
 8.532383e-02  -1.632043e-01  0 
 1.224786e-01  -1.684316e-01  0 
 9.483361e-02  -2.047828e-01  0 
 1.304707e-01  -2.079568e-01  0 
 6.525697e-02  -2.430058e-01  0 
 9.925747e-02  -2.462507e-01  0 
 1.367676e-01  -2.484990e-01  0 
 6.709569e-02  -2.836225e-01  0 
 1.024486e-01  -2.853402e-01  0 
 1.387286e-01  -2.874106e-01  0 
 6.852223e-02  -3.206348e-01  0 
 1.031347e-01  -3.233893e-01  0 
 1.400933e-01  -3.248886e-01  0 
VECTORS displacement_ITER12 FLOAT
 7.439891e-02  -1.813939e-01  0 
 1.082462e-01  -1.869100e-01  0 
 1.440256e-01  -1.890897e-01  0 
 7.977182e-02  -2.242807e-01  0 
 1.154887e-01  -2.264975e-01  0 
 1.551404e-01  -2.293037e-01  0 
 8.376629e-02  -2.644428e-01  0 
 1.191631e-01  -2.674008e-01  0 
 1.567454e-01  -2.682898e-01  0 
 8.489513e-02  -3.037250e-01  0 
 1.212429e-01  -3.053624e-01  0 
 1.585491e-01  -3.066250e-01  0 
 8.619224e-02  -3.392728e-01  0 
 1.216142e-01  -3.434505e-01  0 
 1.588757e-01  -3.438118e-01  0 
 7.117018e-02  -1.588844e-01  0 
 1.025149e-01  -1.674585e-01  0 
 9.337378e-02  -1.850787e-01  0 
 1.420847e-01  -1.688099e-01  0 
 1.242552e-01  -1.880582e-01  0 
 7.645917e-02  -2.043365e-01  0 
 1.129402e-01  -2.053093e-01  0 
 9.585156e-02  -2.247128e-01  0 
 1.500085e-01  -2.101737e-01  0 
 1.358582e-01  -2.283446e-01  0 
 8.280960e-02  -2.435319e-01  0 
 6.551636e-02  -2.626787e-01  0 
 1.172755e-01  -2.480576e-01  0 
 1.020313e-01  -2.664333e-01  0 
 1.561800e-01  -2.485930e-01  0 
 1.372571e-01  -2.679601e-01  0 
 8.405671e-02  -2.850784e-01  0 
 6.812942e-02  -3.029225e-01  0 
 1.206607e-01  -2.858399e-01  0 
 1.025408e-01  -3.043766e-01  0 
 1.577611e-01  -2.881158e-01  0 
 1.400264e-01  -3.062685e-01  0 
 8.575732e-02  -3.214025e-01  0 
 6.837297e-02  -3.387942e-01  0 
 1.214189e-01  -3.248250e-01  0 
 1.038257e-01  -3.415319e-01  0 
 1.587778e-01  -3.251377e-01  0 
 1.401866e-01  -3.437440e-01  0 
 8.543483e-02  -1.632785e-01  0 
 1.224696e-01  -1.684552e-01  0 
 9.491867e-02  -2.046994e-01  0 
 1.304886e-01  -2.078744e-01  0 
 6.514238e-02  -2.428887e-01  0 
 9.929224e-02  -2.461358e-01  0 
 1.368275e-01  -2.484074e-01  0 
 6.695638e-02  -2.836396e-01  0 
 1.024307e-01  -2.853351e-01  0 
 1.388092e-01  -2.873966e-01  0 
 6.833649e-02  -3.207851e-01  0 
 1.031021e-01  -3.235180e-01  0 
 1.401869e-01  -3.250051e-01  0 
VECTORS displacement_ITER13 FLOAT
 7.425699e-02  -1.813686e-01  0 
 1.082101e-01  -1.868860e-01  0 
 1.441034e-01  -1.890616e-01  0 
 7.965741e-02  -2.243435e-01  0 
 1.154561e-01  -2.265703e-01  0 
 1.551430e-01  -2.293701e-01  0 
 8.377460e-02  -2.645379e-01  0 
 1.191345e-01  -2.674951e-01  0 
 1.567174e-01  -2.683738e-01  0 
 8.494844e-02  -3.037589e-01  0 
 1.212092e-01  -3.053922e-01  0 
 1.584463e-01  -3.066493e-01  0 
 8.626463e-02  -3.391246e-01  0 
 1.215833e-01  -3.433943e-01  0 
 1.587678e-01  -3.437610e-01  0 
 7.102359e-02  -1.588151e-01  0 
 1.024747e-01  -1.673813e-01  0 
 9.328644e-02  -1.850530e-01  0 
 1.421665e-01  -1.687223e-01  0 
 1.242728e-01  -1.880346e-01  0 
 7.632240e-02  -2.043554e-01  0 
 1.129063e-01  -2.053385e-01  0 
 9.578065e-02  -2.247863e-01  0 
 1.500540e-01  -2.101999e-01  0 
 1.358433e-01  -2.284156e-01  0 
 8.278793e-02  -2.436469e-01  0 
 6.553966e-02  -2.627691e-01  0 
 1.172451e-01  -2.481475e-01  0 
 1.020244e-01  -2.665307e-01  0 
 1.561677e-01  -2.486747e-01  0 
 1.372293e-01  -2.680497e-01  0 
 8.408977e-02  -2.851529e-01  0 
 6.827551e-02  -3.029582e-01  0 
 1.206294e-01  -2.859096e-01  0 
 1.025414e-01  -3.044086e-01  0 
 1.576874e-01  -2.881752e-01  0 
 1.399589e-01  -3.062951e-01  0 
 8.582193e-02  -3.213498e-01  0 
 6.854808e-02  -3.386271e-01  0 
 1.213861e-01  -3.248102e-01  0 
 1.038368e-01  -3.414416e-01  0 
 1.586710e-01  -3.251249e-01  0 
 1.401167e-01  -3.436921e-01  0 
 8.535299e-02  -1.631964e-01  0 
 1.224941e-01  -1.683677e-01  0 
 9.483679e-02  -2.047249e-01  0 
 1.304916e-01  -2.079073e-01  0 
 6.517448e-02  -2.430208e-01  0 
 9.925457e-02  -2.462387e-01  0 
 1.368064e-01  -2.484932e-01  0 
 6.703106e-02  -2.837190e-01  0 
 1.024298e-01  -2.854074e-01  0 
 1.387601e-01  -2.874649e-01  0 
 6.850390e-02  -3.207262e-01  0 
 1.031033e-01  -3.234859e-01  0 
 1.401168e-01  -3.249926e-01  0 
VECTORS displacement_ITER14 FLOAT
 7.428700e-02  -1.813848e-01  0 
 1.082165e-01  -1.869001e-01  0 
 1.440898e-01  -1.890767e-01  0 
 7.968741e-02  -2.243330e-01  0 
 1.154598e-01  -2.265599e-01  0 
 1.551350e-01  -2.293612e-01  0 
 8.377064e-02  -2.645201e-01  0 
 1.191369e-01  -2.674761e-01  0 
 1.567144e-01  -2.683560e-01  0 
 8.494090e-02  -3.037478e-01  0 
 1.212097e-01  -3.053800e-01  0 
 1.584527e-01  -3.066367e-01  0 
 8.625699e-02  -3.391228e-01  0 
 1.215830e-01  -3.433890e-01  0 
 1.587745e-01  -3.437554e-01  0 
 7.105737e-02  -1.588156e-01  0 
 1.024774e-01  -1.674109e-01  0 
 9.330645e-02  -1.850666e-01  0 
 1.421536e-01  -1.687470e-01  0 
 1.242676e-01  -1.880507e-01  0 
 7.635243e-02  -2.043612e-01  0 
 1.129114e-01  -2.053392e-01  0 
 9.579361e-02  -2.247746e-01  0 
 1.500399e-01  -2.102025e-01  0 
 1.358413e-01  -2.284058e-01  0 
 8.278779e-02  -2.436084e-01  0 
 6.551436e-02  -2.627538e-01  0 
 1.172482e-01  -2.481312e-01  0 
 1.020248e-01  -2.665115e-01  0 
 1.561622e-01  -2.486601e-01  0 
 1.372291e-01  -2.680312e-01  0 
 8.408314e-02  -2.851394e-01  0 
 6.826264e-02  -3.029466e-01  0 
 1.206310e-01  -2.858936e-01  0 
 1.025384e-01  -3.043974e-01  0 
 1.576907e-01  -2.881590e-01  0 
 1.399620e-01  -3.062824e-01  0 
 8.581393e-02  -3.213425e-01  0 
 6.853287e-02  -3.386266e-01  0 
 1.213860e-01  -3.248013e-01  0 
 1.038330e-01  -3.414377e-01  0 
 1.586776e-01  -3.251158e-01  0 
 1.401199e-01  -3.436865e-01  0 
 8.537611e-02  -1.632149e-01  0 
 1.224907e-01  -1.683924e-01  0 
 9.485368e-02  -2.047277e-01  0 
 1.304881e-01  -2.079086e-01  0 
 6.514261e-02  -2.429746e-01  0 
 9.926147e-02  -2.462156e-01  0 
 1.368053e-01  -2.484779e-01  0 
 6.702194e-02  -2.837107e-01  0 
 1.024280e-01  -2.853923e-01  0 
 1.387619e-01  -2.874480e-01  0 
 6.849118e-02  -3.207186e-01  0 
 1.030999e-01  -3.234782e-01  0 
 1.401201e-01  -3.249835e-01  0 
VECTORS displacement_ITER15 FLOAT
 7.427586e-02  -1.813870e-01  0 
 1.082161e-01  -1.869021e-01  0 
 1.440991e-01  -1.890789e-01  0 
 7.968562e-02  -2.243353e-01  0 
 1.154566e-01  -2.265622e-01  0 
 1.551297e-01  -2.293618e-01  0 
 8.376858e-02  -2.645133e-01  0 
 1.191340e-01  -2.674719e-01  0 
 1.567082e-01  -2.683533e-01  0 
 8.493811e-02  -3.037398e-01  0 
 1.212076e-01  -3.053743e-01  0 
 1.584496e-01  -3.066316e-01  0 
 8.625449e-02  -3.391250e-01  0 
 1.215811e-01  -3.433833e-01  0 
 1.587718e-01  -3.437494e-01  0 
 7.102693e-02  -1.587795e-01  0 
 1.024748e-01  -1.674112e-01  0 
 9.330351e-02  -1.850677e-01  0 
 1.421663e-01  -1.687438e-01  0 
 1.242713e-01  -1.880542e-01  0 
 7.634838e-02  -2.043668e-01  0 
 1.129093e-01  -2.053423e-01  0 
 9.578960e-02  -2.247774e-01  0 
 1.500400e-01  -2.102048e-01  0 
 1.358373e-01  -2.284070e-01  0 
 8.278529e-02  -2.435985e-01  0 
 6.550928e-02  -2.627464e-01  0 
 1.172452e-01  -2.481302e-01  0 
 1.020226e-01  -2.665056e-01  0 
 1.561561e-01  -2.486591e-01  0 
 1.372245e-01  -2.680282e-01  0 
 8.408048e-02  -2.851326e-01  0 
 6.825517e-02  -3.029361e-01  0 
 1.206284e-01  -2.858876e-01  0 
 1.025362e-01  -3.043910e-01  0 
 1.576861e-01  -2.881548e-01  0 
 1.399596e-01  -3.062771e-01  0 
 8.581145e-02  -3.213383e-01  0 
 6.852202e-02  -3.386320e-01  0 