# vtk DataFile Version 3.1
this is an vtk file created by FEMAC
ASCII
DATASET UNSTRUCTURED_GRID
POINTS 55 FLOAT
5.000000 5.000000 0.000000
5.000000 6.000000 0.000000
5.000000 7.000000 0.000000
6.000000 5.000000 0.000000
6.000000 6.000000 0.000000
6.000000 7.000000 0.000000
7.000000 5.000000 0.000000
7.000000 6.000000 0.000000
8.000000 5.000000 0.000000
8.000000 6.000000 0.000000
9.000000 5.000000 0.000000
9.000000 6.000000 0.000000
4.500000 5.000000 0.000000
5.000000 4.500000 0.000000
4.500000 6.000000 0.000000
5.000000 5.500000 0.000000
4.500000 7.000000 0.000000
5.000000 6.500000 0.000000
5.500000 5.000000 0.000000
6.000000 4.500000 0.000000
5.500000 6.000000 0.000000
6.000000 5.500000 0.000000
5.500000 7.000000 0.000000
6.000000 6.500000 0.000000
6.500000 5.000000 0.000000
7.000000 4.500000 0.000000
6.500000 6.000000 0.000000
7.000000 5.500000 0.000000
6.500000 7.000000 0.000000
7.000000 6.500000 0.000000
7.500000 5.000000 0.000000
8.000000 4.500000 0.000000
7.500000 6.000000 0.000000
8.000000 5.500000 0.000000
8.000000 6.500000 0.000000
8.500000 5.000000 0.000000
9.000000 4.500000 0.000000
8.500000 6.000000 0.000000
9.000000 5.500000 0.000000
9.000000 6.500000 0.000000
4.500000 4.500000 0.000000
4.500000 5.500000 0.000000
4.500000 6.500000 0.000000
5.500000 4.500000 0.000000
5.500000 5.500000 0.000000
5.500000 6.500000 0.000000
6.500000 4.500000 0.000000
6.500000 5.500000 0.000000
6.500000 6.500000 0.000000
7.500000 4.500000 0.000000
7.500000 5.500000 0.000000
7.500000 6.500000 0.000000
8.500000 4.500000 0.000000
8.500000 5.500000 0.000000
8.500000 6.500000 0.000000
CELLS 40 200 
4 40 13  0 12
4 12  0 15 41
4 41 15  1 14
4 14  1 17 42
4 42 17  2 16
4 13 43 18  0
4 43 19  3 18
4 0 18 44 15
4 15 44 20  1
4 18  3 21 44
4 44 21  4 20
4 1 20 45 17
4 17 45 22  2
4 20  4 23 45
4 45 23  5 22
4 19 46 24  3
4 46 25  6 24
4 3 24 47 21
4 21 47 26  4
4 24  6 27 47
4 47 27  7 26
4 4 26 48 23
4 23 48 28  5
4 26  7 29 48
4 25 49 30  6
4 49 31  8 30
4 6 30 50 27
4 27 50 32  7
4 30  8 33 50
4 50 33  9 32
4 7 32 51 29
4 32  9 34 51
4 31 52 35  8
4 52 36 10 35
4 8 35 53 33
4 33 53 37  9
4 35 10 38 53
4 53 38 11 37
4 9 37 54 34
4 37 11 39 54
CELL_TYPES 40
9 9 9 9 9 9 9 9 9 9 9 9 9 9 9 9 9 9 9 9 9 9 9 9 9 9 9 9 9 9 9 9 9 9 9 9 9 9 9 9 
POINT_DATA 55
VECTORS displacement_ITER1 FLOAT
 -6.075136e-02  -3.935985e-01  0 
 -1.761424e-02  -3.931357e-01  0 
 3.345005e-02  -3.928957e-01  0 
 -6.417671e-02  -4.541697e-01  0 
 -1.119072e-02  -4.565527e-01  0 
 4.169925e-02  -4.630444e-01  0 
 -6.096034e-02  -5.215839e-01  0 
 -1.050514e-02  -5.222080e-01  0 
 -5.707441e-02  -5.768523e-01  0 
 -1.125548e-02  -5.772454e-01  0 
 -5.407677e-02  -6.189222e-01  0 
 -1.243224e-02  -6.231067e-01  0 
 -5.818646e-02  -3.685266e-01  0 
 -7.940531e-02  -3.916145e-01  0 
 -2.115078e-02  -3.631229e-01  0 
 -3.941233e-02  -3.952299e-01  0 
 2.847345e-02  -3.615712e-01  0 
 4.903762e-03  -3.914224e-01  0 
 -6.436973e-02  -4.231680e-01  0 
 -9.166906e-02  -4.554071e-01  0 
 -1.280237e-02  -4.239103e-01  0 
 -3.833382e-02  -4.535826e-01  0 
 3.900061e-02  -4.310671e-01  0 
 1.640422e-02  -4.606294e-01  0 
 -6.180611e-02  -4.875863e-01  0 
 -9.082842e-02  -5.198603e-01  0 
 -1.135911e-02  -4.901248e-01  0 
 -3.511431e-02  -5.230152e-01  0 
 4.127623e-02  -4.878590e-01  0 
 1.764961e-02  -5.215596e-01  0 
 -5.991716e-02  -5.509847e-01  0 
 -7.579688e-02  -5.772077e-01  0 
 -9.870225e-03  -5.507994e-01  0 
 -3.479029e-02  -5.764983e-01  0 
 1.044017e-02  -5.782236e-01  0 
 -5.461015e-02  -5.988094e-01  0 
 -7.261058e-02  -6.186835e-01  0 
 -1.247437e-02  -6.011083e-01  0 
 -3.366243e-02  -6.214131e-01  0 
 8.531713e-03  -6.235175e-01  0 
 -7.556849e-02  -3.697698e-01  0 
 -4.051778e-02  -3.654112e-01  0 
 3.135471e-03  -3.621188e-01  0 
 -8.624550e-02  -4.253777e-01  0 
 -3.893328e-02  -4.230678e-01  0 
 1.066523e-02  -4.269759e-01  0 
 -9.277600e-02  -4.867479e-01  0 
 -3.650550e-02  -4.893572e-01  0 
 1.778926e-02  -4.895423e-01  0 
 -8.155561e-02  -5.519133e-01  0 
 -3.491821e-02  -5.506604e-01  0 
 1.277895e-02  -5.521197e-01  0 
 -7.452673e-02  -5.982067e-01  0 
 -3.430572e-02  -6.002391e-01  0 
 9.871339e-03  -6.011137e-01  0 
VECTORS displacement_ITER2 FLOAT
 -1.792995e-03  -2.077235e-01  0 
 3.058014e-02  -2.073896e-01  0 
 6.916374e-02  -2.063373e-01  0 
 -5.139007e-03  -2.569489e-01  0 
 3.720845e-02  -2.591233e-01  0 
 7.990762e-02  -2.652722e-01  0 
 -2.568512e-03  -3.140048e-01  0 
 3.874134e-02  -3.145118e-01  0 
 3.611387e-04  -3.613893e-01  0 
 3.911575e-02  -3.619794e-01  0 
 3.174842e-03  -3.973584e-01  0 
 3.838238e-02  -4.026698e-01  0 
 3.150843e-04  -1.887848e-01  0 
 -1.493210e-02  -2.052263e-01  0 
 2.719339e-02  -1.838281e-01  0 
 1.425104e-02  -2.094081e-01  0 
 6.412401e-02  -1.814369e-01  0 
 4.710625e-02  -2.052904e-01  0 
 -5.184644e-03  -2.315537e-01  0 
 -2.738227e-02  -2.581646e-01  0 
 3.534110e-02  -2.321974e-01  0 
 1.537060e-02  -2.563307e-01  0 
 7.596853e-02  -2.380088e-01  0 
 5.971042e-02  -2.630109e-01  0 
 -3.022603e-03  -2.850585e-01  0 
 -2.727002e-02  -3.123718e-01  0 
 3.742233e-02  -2.873664e-01  0 
 1.869698e-02  -3.153681e-01  0 
 7.967162e-02  -2.851158e-01  0 
 6.194260e-02  -3.139493e-01  0 
 -2.068688e-03  -3.391639e-01  0 
 -1.519145e-02  -3.618403e-01  0 
 4.000305e-02  -3.389573e-01  0 
 1.902297e-02  -3.610380e-01  0 
 5.822120e-02  -3.631682e-01  0 
 2.666092e-03  -3.802847e-01  0 
 -1.236164e-02  -3.971411e-01  0 
 3.818144e-02  -3.832860e-01  0 
 2.031810e-02  -4.001190e-01  0 
 5.682421e-02  -4.033775e-01  0 
 -1.167864e-02  -1.893163e-01  0 
 1.286583e-02  -1.871146e-01  0 
 4.563252e-02  -1.825693e-01  0 
 -2.154270e-02  -2.336672e-01  0 
 1.476730e-02  -2.314531e-01  0 
 5.328172e-02  -2.346523e-01  0 
 -2.879288e-02  -2.843011e-01  0 
 1.725062e-02  -2.866530e-01  0 
 6.140728e-02  -2.868130e-01  0 
 -1.954601e-02  -3.402601e-01  0 
 1.888965e-02  -3.387973e-01  0 
 5.897407e-02  -3.404183e-01  0 
 -1.419034e-02  -3.796727e-01  0 
 1.953241e-02  -3.819680e-01  0 
 5.796688e-02  -3.834969e-01  0 
VECTORS displacement_ITER3 FLOAT
 1.419596e-02  -1.833933e-01  0 
 4.009002e-02  -1.862168e-01  0 
 6.914686e-02  -1.870284e-01  0 
 1.398355e-02  -2.275859e-01  0 
 4.742104e-02  -2.296035e-01  0 
 7.948776e-02  -2.363029e-01  0 
 1.750146e-02  -2.718525e-01  0 
 5.045312e-02  -2.732031e-01  0 
 1.808539e-02  -3.112466e-01  0 
 5.396905e-02  -3.125917e-01  0 
 1.996149e-02  -3.446485e-01  0 
 5.501465e-02  -3.535227e-01  0 
 1.458619e-02  -1.614621e-01  0 
 -6.794544e-04  -1.798956e-01  0 
 3.554841e-02  -1.676140e-01  0 
 2.838902e-02  -1.867875e-01  0 
 6.469739e-02  -1.655612e-01  0 
 5.141494e-02  -1.852419e-01  0 
 1.237968e-02  -2.060386e-01  0 
 -1.465111e-03  -2.290600e-01  0 
 4.545027e-02  -2.065302e-01  0 
 2.963688e-02  -2.266942e-01  0 
 7.480409e-02  -2.145717e-01  0 
 6.493520e-02  -2.338510e-01  0 
 1.696164e-02  -2.495022e-01  0 
 -8.973208e-04  -2.706365e-01  0 
 4.821716e-02  -2.526714e-01  0 
 3.466528e-02  -2.731727e-01  0 
 8.040083e-02  -2.518515e-01  0 
 6.754487e-02  -2.734912e-01  0 
 1.719482e-02  -2.924452e-01  0 
 3.352096e-03  -3.114398e-01  0 
 5.293629e-02  -2.924268e-01  0 
 3.506207e-02  -3.114385e-01  0 
 7.385365e-02  -3.142236e-01  0 
 1.938895e-02  -3.282709e-01  0 
 4.458343e-03  -3.437244e-01  0 
 5.442104e-02  -3.336535e-01  0 
 3.689691e-02  -3.491354e-01  0 
 7.458879e-02  -3.543966e-01  0 
 7.316580e-07  -1.601197e-01  0 
 2.490459e-02  -1.661693e-01  0 
 4.981599e-02  -1.668577e-01  0 
 -1.115489e-03  -2.075290e-01  0 
 2.904516e-02  -2.058142e-01  0 
 5.818601e-02  -2.101208e-01  0 
 -2.038353e-03  -2.488965e-01  0 
 3.237057e-02  -2.511434e-01  0 
 6.679042e-02  -2.528593e-01  0 
 3.032133e-03  -2.937678e-01  0 
 3.495733e-02  -2.920914e-01  0 
 6.913435e-02  -2.948652e-01  0 
 3.335903e-03  -3.273443e-01  0 
 3.564703e-02  -3.311459e-01  0 
 7.494792e-02  -3.342052e-01  0 
VECTORS displacement_ITER4 FLOAT
 1.582953e-02  -1.780019e-01  0 
 4.256147e-02  -1.806386e-01  0 
 7.439504e-02  -1.819455e-01  0 
 1.596399e-02  -2.219065e-01  0 
 4.911839e-02  -2.241324e-01  0 
 8.168096e-02  -2.300993e-01  0 
 1.932072e-02  -2.647588e-01  0 
 5.157561e-02  -2.667951e-01  0 
 1.964406e-02  -3.038870e-01  0 
 5.418890e-02  -3.050649e-01  0 
 2.108919e-02  -3.387683e-01  0 
 5.450598e-02  -3.426432e-01  0 
 1.624375e-02  -1.558104e-01  0 
 6.722129e-04  -1.748339e-01  0 
 3.817592e-02  -1.607762e-01  0 
 3.027582e-02  -1.812124e-01  0 
 7.036164e-02  -1.591754e-01  0 
 5.531513e-02  -1.798977e-01  0 
 1.418966e-02  -2.006427e-01  0 
 1.190295e-03  -2.230751e-01  0 
 4.755890e-02  -2.012058e-01  0 
 3.146863e-02  -2.212159e-01  0 
 7.799201e-02  -2.091280e-01  0 
 6.661701e-02  -2.280479e-01  0 
 1.892015e-02  -2.429698e-01  0 
 1.741280e-03  -2.631269e-01  0 
 4.961802e-02  -2.468391e-01  0 
 3.601102e-02  -2.665260e-01  0 
 8.305715e-02  -2.468354e-01  0 
 6.807896e-02  -2.670053e-01  0 
 1.887155e-02  -2.851863e-01  0 
 4.093522e-03  -3.040787e-01  0 
 5.363107e-02  -2.855406e-01  0 
 3.638833e-02  -3.039569e-01  0 
 7.203905e-02  -3.065826e-01  0 
 2.077093e-02  -3.216132e-01  0 
 4.508204e-03  -3.386532e-01  0 
 5.419791e-02  -3.245532e-01  0 
 3.761956e-02  -3.405664e-01  0 
 7.210265e-02  -3.430901e-01  0 
 1.393176e-03  -1.547926e-01  0 
 2.686603e-02  -1.596906e-01  0 
 5.386120e-02  -1.601154e-01  0 
 6.486972e-04  -2.018587e-01  0 
 3.091582e-02  -2.004732e-01  0 
 6.115142e-02  -2.048660e-01  0 
 8.263940e-04  -2.422421e-01  0 
 3.395043e-02  -2.450304e-01  0 
 6.789540e-02  -2.471295e-01  0 
 4.477174e-03  -2.859185e-01  0 
 3.629176e-02  -2.850784e-01  0 
 6.904027e-02  -2.878387e-01  0 
 3.834336e-03  -3.210846e-01  0 
 3.693956e-02  -3.232663e-01  0 
 7.264241e-02  -3.248020e-01  0 
VECTORS displacement_ITER5 FLOAT
 1.631756e-02  -1.768943e-01  0 
 4.443277e-02  -1.794580e-01  0 
 7.857754e-02  -1.810699e-01  0 
 1.582768e-02  -2.222774e-01  0 
 4.930148e-02  -2.234252e-01  0 
 8.247669e-02  -2.280292e-01  0 
 1.737164e-02  -2.648033e-01  0 
 4.971886e-02  -2.661849e-01  0 
 1.599171e-02  -3.035419e-01  0 
 5.066578e-02  -3.045637e-01  0 
 1.636859e-02  -3.406347e-01  0 
 5.007341e-02  -3.398163e-01  0 
 1.700376e-02  -1.542910e-01  0 
 1.201862e-03  -1.738901e-01  0 
 4.052854e-02  -1.582056e-01  0 
 3.113042e-02  -1.800859e-01  0 
 7.504182e-02  -1.572576e-01  0 
 5.865569e-02  -1.787448e-01  0 
 1.440779e-02  -2.001176e-01  0 
 5.658833e-04  -2.238339e-01  0 
 4.870485e-02  -2.006460e-01  0 
 3.193006e-02  -2.210534e-01  0 
 7.985227e-02  -2.073945e-01  0 
 6.664477e-02  -2.266207e-01  0 
 1.798066e-02  -2.437358e-01  0 
 8.398065e-04  -2.636183e-01  0 
 4.876204e-02  -2.459079e-01  0 
 3.349655e-02  -2.662100e-01  0 
 8.432559e-02  -2.463728e-01  0 
 6.679136e-02  -2.660545e-01  0 
 1.606850e-02  -2.846810e-01  0 
 -1.284576e-03  -3.039247e-01  0 
 5.084231e-02  -2.852599e-01  0 
 3.345823e-02  -3.035371e-01  0 
 6.691839e-02  -3.058642e-01  0 
 1.636289e-02  -3.222630e-01  0 
 -1.849567e-03  -3.407899e-01  0 
 5.010559e-02  -3.229094e-01  0 
 3.357405e-02  -3.401727e-01  0 
 6.629370e-02  -3.398104e-01  0 
 1.845067e-03  -1.533235e-01  0 
 2.822687e-02  -1.573778e-01  0 
 5.756424e-02  -1.577206e-01  0 
 4.670824e-04  -2.012182e-01  0 
 3.165928e-02  -1.999792e-01  0 
 6.303524e-02  -2.038590e-01  0 
 2.801161e-04  -2.433810e-01  0 
 3.293574e-02  -2.448830e-01  0 
 6.724144e-02  -2.460318e-01  0 
 1.227125e-03  -2.855452e-01  0 
 3.349430e-02  -2.847043e-01  0 
 6.628453e-02  -2.871296e-01  0 
 -2.032300e-03  -3.220928e-01  0 
 3.356531e-02  -3.227850e-01  0 
 6.697316e-02  -3.228565e-01  0 
VECTORS displacement_ITER6 FLOAT
 1.602080e-02  -1.767267e-01  0 
 4.281515e-02  -1.796270e-01  0 
 7.407946e-02  -1.821756e-01  0 
 1.593639e-02  -2.201301e-01  0 
 4.801737e-02  -2.215138e-01  0 
 7.940123e-02  -2.258793e-01  0 
 1.742169e-02  -2.610043e-01  0 
 4.959435e-02  -2.625444e-01  0 
 1.585637e-02  -3.007371e-01  0 
 5.203552e-02  -3.016940e-01  0 
 1.630083e-02  -3.395697e-01  0 
 5.205496e-02  -3.402705e-01  0 
 1.649217e-02  -1.546581e-01  0 
 1.369584e-03  -1.739019e-01  0 
 3.877082e-02  -1.596838e-01  0 
 3.034265e-02  -1.799623e-01  0 
 7.070920e-02  -1.595063e-01  0 
 5.580466e-02  -1.792981e-01  0 
 1.440163e-02  -1.990570e-01  0 
 1.460437e-03  -2.214951e-01  0 
 4.716131e-02  -1.996332e-01  0 
 3.124310e-02  -2.190891e-01  0 
 7.548026e-02  -2.063304e-01  0 
 6.465817e-02  -2.246550e-01  0 
 1.804941e-02  -2.405536e-01  0 
 1.223681e-03  -2.598141e-01  0 
 4.796128e-02  -2.431024e-01  0 
 3.369222e-02  -2.624918e-01  0 
 8.191060e-02  -2.438410e-01  0 
 6.570150e-02  -2.625744e-01  0 
 1.600480e-02  -2.811541e-01  0 
 -2.160936e-03  -3.011840e-01  0 
 5.150910e-02  -2.816389e-01  0 
 3.383474e-02  -3.006112e-01  0 
 7.012206e-02  -3.031396e-01  0 
 1.624700e-02  -3.203839e-01  0 
 -2.728387e-03  -3.397050e-01  0 
 5.193330e-02  -3.216224e-01  0 
 3.431502e-02  -3.396796e-01  0 
 7.030733e-02  -3.404661e-01  0 
 1.668695e-03  -1.537359e-01  0 
 2.716387e-02  -1.577260e-01  0 
 5.469211e-02  -1.595536e-01  0 
 1.151721e-03  -1.997175e-01  0 
 3.091108e-02  -1.989608e-01  0 
 6.058262e-02  -2.029104e-01  0 
 1.158230e-03  -2.402411e-01  0 
 3.265104e-02  -2.418324e-01  0 
 6.547445e-02  -2.433694e-01  0 
 3.230253e-04  -2.817592e-01  0 
 3.380880e-02  -2.811224e-01  0 
 6.763221e-02  -2.836414e-01  0 
 -2.791085e-03  -3.202327e-01  0 
 3.409844e-02  -3.211329e-01  0 
 7.058915e-02  -3.217473e-01  0 
VECTORS displacement_ITER7 FLOAT
 1.382427e-02  -1.766214e-01  0 
 4.259412e-02  -1.791345e-01  0 
 7.550224e-02  -1.816613e-01  0 
 1.467013e-02  -2.209314e-01  0 
 4.741010e-02  -2.222345e-01  0 
 8.044418e-02  -2.256014e-01  0 
 1.722772e-02  -2.623465e-01  0 
 4.878169e-02  -2.639463e-01  0 
 1.735611e-02  -3.002776e-01  0 
 5.041166e-02  -3.013028e-01  0 
 1.858507e-02  -3.331638e-01  0 
 5.026565e-02  -3.361507e-01  0 
 1.407730e-02  -1.536942e-01  0 
 -1.922643e-03  -1.740540e-01  0 
 3.856673e-02  -1.580323e-01  0 
 2.916906e-02  -1.796253e-01  0 
 7.227665e-02  -1.583929e-01  0 
 5.665466e-02  -1.786977e-01  0 
 1.265639e-02  -1.994906e-01  0 
 -2.824824e-05  -2.221420e-01  0 
 4.675206e-02  -1.999334e-01  0 
 3.020461e-02  -2.199685e-01  0 
 7.671095e-02  -2.052920e-01  0 
 6.467166e-02  -2.249047e-01  0 
 1.723056e-02  -2.415820e-01  0 
 4.788096e-04  -2.609880e-01  0 
 4.726063e-02  -2.442081e-01  0 
 3.331984e-02  -2.639528e-01  0 
 8.333417e-02  -2.452108e-01  0 
 6.504521e-02  -2.638325e-01  0 
 1.666049e-02  -2.820703e-01  0 
 2.385307e-03  -3.005352e-01  0 
 5.028930e-02  -2.824562e-01  0 
 3.354829e-02  -3.002087e-01  0 
 6.673268e-02  -3.026873e-01  0 
 1.826862e-02  -3.170486e-01  0 
 2.822901e-03  -3.328885e-01  0 
 5.015365e-02  -3.193620e-01  0 
 3.435137e-02  -3.347528e-01  0 
 6.675296e-02  -3.364652e-01  0 
 -1.930737e-03  -1.529464e-01  0 
 2.585980e-02  -1.561693e-01  0 
 5.557536e-02  -1.580672e-01  0 
 -1.209930e-03  -1.998075e-01  0 
 2.979126e-02  -1.993937e-01  0 
 6.110844e-02  -2.026774e-01  0 
 8.386125e-05  -2.411655e-01  0 
 3.191646e-02  -2.430522e-01  0 
 6.521461e-02  -2.444556e-01  0 
 1.694962e-03  -2.822966e-01  0 
 3.350735e-02  -2.820291e-01  0 
 6.579471e-02  -2.842938e-01  0 
 2.524228e-03  -3.166790e-01  0 
 3.386661e-02  -3.184324e-01  0 
 6.692938e-02  -3.195698e-01  0 
VECTORS displacement_ITER8 FLOAT
 1.455589e-02  -1.760402e-01  0 
 4.210336e-02  -1.784252e-01  0 
 7.361670e-02  -1.811403e-01  0 
 1.484907e-02  -2.192604e-01  0 
 4.725796e-02  -2.205624e-01  0 
 7.975901e-02  -2.240099e-01  0 
 1.665761e-02  -2.608449e-01  0 
 4.906548e-02  -2.622929e-01  0 
 1.606125e-02  -3.005101e-01  0 
 5.137874e-02  -3.015853e-01  0 
 1.709150e-02  -3.364884e-01  0 
 5.145231e-02  -3.397135e-01  0 
 1.495780e-02  -1.543956e-01  0 
 1.335964e-04  -1.736440e-01  0 
 3.802226e-02  -1.579869e-01  0 
 2.919475e-02  -1.789193e-01  0 
 7.030353e-02  -1.586437e-01  0 
 5.554140e-02  -1.780606e-01  0 
 1.315768e-02  -1.981479e-01  0 
 -2.788935e-06  -2.205339e-01  0 
 4.638008e-02  -1.986506e-01  0 
 3.025410e-02  -2.182849e-01  0 
 7.547658e-02  -2.039808e-01  0 
 6.438913e-02  -2.232946e-01  0 
 1.704675e-02  -2.399723e-01  0 
 -1.549194e-04  -2.596026e-01  0 
 4.730925e-02  -2.423958e-01  0 
 3.315962e-02  -2.623693e-01  0 
 8.273914e-02  -2.432335e-01  0 
 6.551499e-02  -2.622517e-01  0 
 1.567398e-02  -2.811917e-01  0 
 -4.283865e-04  -3.008652e-01  0 
 5.096198e-02  -2.815642e-01  0 
 3.336846e-02  -3.003951e-01  0 
 6.930602e-02  -3.030905e-01  0 
 1.682128e-02  -3.188338e-01  0 
 -2.622167e-04  -3.362722e-01  0 
 5.127406e-02  -3.212951e-01  0 
 3.419282e-02  -3.380129e-01  0 
 6.963566e-02  -3.401655e-01  0 
 3.201647e-04  -1.539141e-01  0 
 2.594492e-02  -1.562225e-01  0 
 5.434700e-02  -1.581190e-01  0 
 -6.865753e-05  -1.984394e-01  0 
 2.983267e-02  -1.980737e-01  0 
 6.035728e-02  -2.013925e-01  0 
 -1.781484e-04  -2.396723e-01  0 
 3.187151e-02  -2.412629e-01  0 
 6.515456e-02  -2.426268e-01  0 
 -1.729050e-04  -2.814655e-01  0 
 3.332487e-02  -2.811231e-01  0 
 6.746377e-02  -2.834628e-01  0 
 -4.531544e-04  -3.185166e-01  0 
 3.368259e-02  -3.202251e-01  0 
 6.967704e-02  -3.215927e-01  0 
VECTORS displacement_ITER9 FLOAT
 1.426498e-02  -1.760886e-01  0 
 4.221314e-02  -1.784583e-01  0 
 7.437949e-02  -1.812113e-01  0 
 1.463947e-02  -2.197468e-01  0 
 4.722137e-02  -2.210682e-01  0 
 7.991933e-02  -2.244146e-01  0 
 1.652734e-02  -2.615096e-01  0 
 4.875932e-02  -2.630567e-01  0 
 1.609930e-02  -3.006696e-01  0 
 5.072110e-02  -3.017386e-01  0 
 1.711526e-02  -3.358288e-01  0 
 5.060062e-02  -3.381720e-01  0 
 1.474461e-02  -1.541060e-01  0 
 -3.582286e-04  -1.737354e-01  0 
 3.810922e-02  -1.576225e-01  0 
 2.908691e-02  -1.789666e-01  0 
 7.116250e-02  -1.584423e-01  0 
 5.601261e-02  -1.781099e-01  0 
 1.287088e-02  -1.984272e-01  0 
 -3.447871e-04  -2.210153e-01  0 
 4.645474e-02  -1.989561e-01  0 
 3.013316e-02  -2.187733e-01  0 
 7.622016e-02  -2.042042e-01  0 
 6.445793e-02  -2.237888e-01  0 
 1.686966e-02  -2.406058e-01  0 
 -3.179200e-04  -2.602648e-01  0 
 4.714439e-02  -2.430692e-01  0 
 3.291670e-02  -2.630773e-01  0 
 8.299970e-02  -2.439521e-01  0 
 6.538290e-02  -2.630803e-01  0 
 1.564760e-02  -2.816800e-01  0 
 -4.755370e-05  -3.010059e-01  0 
 5.046459e-02  -2.821319e-01  0 
 3.313114e-02  -3.005705e-01  0 
 6.779570e-02  -3.032117e-01  0 
 1.684852e-02  -3.185493e-01  0 
 5.329669e-05  -3.356438e-01  0 
 5.051727e-02  -3.205925e-01  0 
 3.385675e-02  -3.370419e-01  0 
 6.794534e-02  -3.384431e-01  0 
 -2.354261e-04  -1.536705e-01  0 
 2.587948e-02  -1.558283e-01  0 
 5.479524e-02  -1.577743e-01  0 
 -4.578133e-04  -1.985212e-01  0 
 2.971921e-02  -1.983763e-01  0 
 6.064852e-02  -2.017027e-01  0 
 -3.933970e-04  -2.403061e-01  0 
 3.168772e-02  -2.419242e-01  0 
 6.514202e-02  -2.433068e-01  0 
 -1.057106e-04  -2.818486e-01  0 
 3.308187e-02  -2.816519e-01  0 
 6.674084e-02  -2.840837e-01  0 
 -3.972711e-05  -3.182655e-01  0 
 3.344570e-02  -3.197734e-01  0 
 6.799439e-02  -3.207966e-01  0 
VECTORS displacement_ITER10 FLOAT
 1.465690e-02  -1.760908e-01  0 
 4.229689e-02  -1.785243e-01  0 
 7.412696e-02  -1.813781e-01  0 
 1.496738e-02  -2.195020e-01  0 
 4.736498e-02  -2.208008e-01  0 
 7.974082e-02  -2.241671e-01  0 
 1.670077e-02  -2.611058e-01  0 
 4.893315e-02  -2.626185e-01  0 
 1.612992e-02  -3.004464e-01  0 
 5.100667e-02  -3.015395e-01  0 
 1.711581e-02  -3.360727e-01  0 
 5.090769e-02  -3.384532e-01  0 
 1.517022e-02  -1.542136e-01  0 
 1.920889e-04  -1.737532e-01  0 
 3.815239e-02  -1.578852e-01  0 
 2.933683e-02  -1.789814e-01  0 
 7.088535e-02  -1.588634e-01  0 
 5.593203e-02  -1.782447e-01  0 
 1.323948e-02  -1.982879e-01  0 
 2.867682e-05  -2.207878e-01  0 
 4.656891e-02  -1.988349e-01  0 
 3.037830e-02  -2.185162e-01  0 
 7.617061e-02  -2.041718e-01  0 
 6.448121e-02  -2.235352e-01  0 
 1.712460e-02  -2.402872e-01  0 
 -4.159965e-05  -2.598772e-01  0 
 4.730025e-02  -2.426740e-01  0 
 3.308175e-02  -2.626630e-01  0 
 8.281581e-02  -2.434741e-01  0 
 6.554454e-02  -2.626699e-01  0 
 1.573588e-02  -2.813182e-01  0 
 -2.311985e-04  -3.007962e-01  0 
 5.070921e-02  -2.817781e-01  0 
 3.329017e-02  -3.003436e-01  0 
 6.829445e-02  -3.030359e-01  0 
 1.685376e-02  -3.185546e-01  0 
 -2.197421e-04  -3.359207e-01  0 
 5.081682e-02  -3.206363e-01  0 
 3.401559e-02  -3.372484e-01  0 
 6.851483e-02  -3.387760e-01  0 
 2.736579e-04  -1.537933e-01  0 
 2.611665e-02  -1.559783e-01  0 
 5.465154e-02  -1.580937e-01  0 
 4.887598e-05  -1.983260e-01  0 
 2.997018e-02  -1.982431e-01  0 
 6.062484e-02  -2.016296e-01  0 
 -3.727542e-05  -2.400103e-01  0 
 3.189397e-02  -2.415585e-01  0 
 6.517447e-02  -2.428720e-01  0 
 -1.172907e-04  -2.814608e-01  0 
 3.323986e-02  -2.812913e-01  0 
 6.711079e-02  -2.837351e-01  0 
 -2.567100e-04  -3.182806e-01  0 
 3.360092e-02  -3.197888e-01  0 
 6.851667e-02  -3.208579e-01  0 
VECTORS displacement_ITER11 FLOAT
 1.459208e-02  -1.760838e-01  0 
 4.234745e-02  -1.785282e-01  0 
 7.436747e-02  -1.813901e-01  0 
 1.498228e-02  -2.196236e-01  0 
 4.740943e-02  -2.209270e-01  0 
 7.975479e-02  -2.243068e-01  0 
 1.679939e-02  -2.611830e-01  0 
 4.895019e-02  -2.627055e-01  0 
 1.629749e-02  -3.003586e-01  0 
 5.100380e-02  -3.014427e-01  0 
 1.730946e-02  -3.356873e-01  0 
 5.090314e-02  -3.381591e-01  0 
 1.510856e-02  -1.540028e-01  0 
 -4.546431e-05  -1.737471e-01  0 
 3.818463e-02  -1.577879e-01  0 
 2.934924e-02  -1.789822e-01  0 
 7.113526e-02  -1.587605e-01  0 
 5.605949e-02  -1.782532e-01  0 
 1.320343e-02  -1.983666e-01  0 
 6.186532e-05  -2.209185e-01  0 
 4.662684e-02  -1.989110e-01  0 
 3.039667e-02  -2.186357e-01  0 
 7.638458e-02  -2.043187e-01  0 
 6.452235e-02  -2.236720e-01  0 
 1.717940e-02  -2.404007e-01  0 
 7.024435e-05  -2.599579e-01  0 
 4.733157e-02  -2.427988e-01  0 
 3.314890e-02  -2.627420e-01  0 
 8.283729e-02  -2.436035e-01  0 
 6.553649e-02  -2.627710e-01  0 
 1.587755e-02  -2.813305e-01  0 
 8.567512e-05  -3.007011e-01  0 
 5.071121e-02  -2.817854e-01  0 
 3.336348e-02  -3.002600e-01  0 
 6.820319e-02  -3.029242e-01  0 
 1.703372e-02  -3.183124e-01  0 
 1.064240e-04  -3.355194e-01  0 
 5.081592e-02  -3.204270e-01  0 
 3.409884e-02  -3.369229e-01  0 
 6.844762e-02  -3.384869e-01  0 
 -2.320559e-05  -1.535661e-01  0 
 2.611898e-02  -1.558578e-01  0 
 5.477534e-02  -1.579896e-01  0 
 -3.592806e-05  -1.983663e-01  0 
 2.998368e-02  -1.983198e-01  0 
 6.071615e-02  -2.017403e-01  0 
 4.989375e-05  -2.401184e-01  0 
 3.193668e-02  -2.416795e-01  0 
 6.518601e-02  -2.429901e-01  0 
 8.423939e-05  -2.814565e-01  0 
 3.331229e-02  -2.813020e-01  0 
 6.704282e-02  -2.837387e-01  0 
 8.191708e-05  -3.180259e-01  0 
 3.367455e-02  -3.195734e-01  0 
 6.842692e-02  -3.206444e-01  0 
VECTORS displacement_ITER12 FLOAT
 1.455563e-02  -1.760717e-01  0 
 4.224610e-02  -1.785214e-01  0 
 7.421954e-02  -1.814081e-01  0 
 1.493277e-02  -2.195722e-01  0 
 4.735214e-02  -2.209004e-01  0 
 7.963388e-02  -2.243276e-01  0 
 1.674684e-02  -2.611360e-01  0 
 4.893494e-02  -2.626641e-01  0 
 1.623878e-02  -3.003971e-01  0 
 5.103653e-02  -3.014640e-01  0 
 1.725207e-02  -3.358577e-01  0 
 5.094825e-02  -3.383477e-01  0 
 1.508705e-02  -1.540034e-01  0 
 -4.979835e-05  -1.737428e-01  0 
 3.806967e-02  -1.578126e-01  0 
 2.928427e-02  -1.789698e-01  0 
 7.097695e-02  -1.587814e-01  0 
 5.592216e-02  -1.782587e-01  0 
 1.315852e-02  -1.983308e-01  0 
 7.360497e-06  -2.208709e-01  0 
 4.654669e-02  -1.988841e-01  0 
 3.033753e-02  -2.185923e-01  0 
 7.628662e-02  -2.043744e-01  0 
 6.445533e-02  -2.236722e-01  0 
 1.712535e-02  -2.403474e-01  0 
 1.448838e-06  -2.599109e-01  0 
 4.729573e-02  -2.427672e-01  0 
 3.312482e-02  -2.626981e-01  0 
 8.272573e-02  -2.435684e-01  0 
 6.551165e-02  -2.627376e-01  0 
 1.582136e-02  -2.813168e-01  0 
 -2.782420e-05  -3.007482e-01  0 
 5.072368e-02  -2.817656e-01  0 
 3.334536e-02  -3.002883e-01  0 
 6.832006e-02  -3.029407e-01  0 
 1.697603e-02  -3.184193e-01  0 
 -1.962622e-05  -3.357033e-01  0 
 5.085863e-02  -3.205261e-01  0 
 3.408506e-02  -3.370862e-01  0 
 6.859551e-02  -3.386885e-01  0 
 -3.554794e-05  -1.535765e-01  0 
 2.604989e-02  -1.558634e-01  0 
 5.462681e-02  -1.580099e-01  0 
 -5.117652e-05  -1.983129e-01  0 
 2.991987e-02  -1.982862e-01  0 
 6.061067e-02  -2.017487e-01  0 
 -4.437191e-06  -2.400636e-01  0 
 3.189578e-02  -2.416324e-01  0 
 6.513091e-02  -2.429595e-01  0 
 -1.684496e-05  -2.814356e-01  0 
 3.329245e-02  -2.812851e-01  0 
 6.708378e-02  -2.837149e-01  0 
 -3.277985e-05  -3.181355e-01  0 
 3.365889e-02  -3.196752e-01  0 
 6.855883e-02  -3.207438e-01  0 
VECTORS displacement_ITER13 FLOAT
 1.458275e-02  -1.760869e-01  0 
 4.228126e-02  -1.785378e-01  0 
 7.428714e-02  -1.814299e-01  0 
 1.495189e-02  -2.196031e-01  0 
 4.738287e-02  -2.209282e-01  0 
 7.967582e-02  -2.243579e-01  0 
 1.675726e-02  -2.611781e-01  0 
 4.893932e-02  -2.626987e-01  0 
 1.625214e-02  -3.004046e-01  0 
 5.099878e-02  -3.014683e-01  0 
 1.726729e-02  -3.357931e-01  0 
 5.089322e-02  -3.382968e-01  0 
 1.512291e-02  -1.540049e-01  0 
 -1.751536e-05  -1.737654e-01  0 
 3.810514e-02  -1.578226e-01  0 
 2.931349e-02  -1.789844e-01  0 
 7.104207e-02  -1.587976e-01  0 
 5.597058e-02  -1.782806e-01  0 
 1.318124e-02  -1.983509e-01  0 
 8.780848e-06  -2.209107e-01  0 
 4.658142e-02  -1.989073e-01  0 
 3.036491e-02  -2.186211e-01  0 
 7.637185e-02  -2.044159e-01  0 
 6.449126e-02  -2.237006e-01  0 
 1.713685e-02  -2.403908e-01  0 
 1.143892e-05  -2.599552e-01  0 
 4.731769e-02  -2.427975e-01  0 
 3.312598e-02  -2.627375e-01  0 
 8.277495e-02  -2.436075e-01  0 
 6.552760e-02  -2.627641e-01  0 
 1.583365e-02  -2.813461e-01  0 
 1.800414e-05  -3.007563e-01  0 
 5.070634e-02  -2.817930e-01  0 
 3.333834e-02  -3.002963e-01  0 
 6.824645e-02  -3.029362e-01  0 
 1.698849e-02  -3.183898e-01  0 
 2.412551e-05  -3.356373e-01  0 
 5.080718e-02  -3.205015e-01  0 
 3.406627e-02  -3.370274e-01  0 
 6.851636e-02  -3.386481e-01  0 
 -1.023534e-05  -1.535892e-01  0 
 2.607366e-02  -1.558569e-01  0 
 5.466869e-02  -1.580172e-01  0 
 -1.930285e-05  -1.983184e-01  0 
 2.994858e-02  -1.983079e-01  0 
 6.065610e-02  -2.017784e-01  0 
 4.561914e-06  -2.401059e-01  0 
 3.191176e-02  -2.416694e-01  0 
 6.515891e-02  -2.429873e-01  0 
 1.069832e-05  -2.814622e-01  0 
 3.328935e-02  -2.813148e-01  0 
 6.704828e-02  -2.837247e-01  0 
 1.747833e-05  -3.181021e-01  0 
 3.364175e-02  -3.196511e-01  0 
 6.847614e-02  -3.207175e-01  0 
VECTORS displacement_ITER14 FLOAT
 1.457879e-02  -1.760863e-01  0 
 4.227049e-02  -1.785153e-01  0 
 7.428145e-02  -1.813950e-01  0 
 1.494592e-02  -2.195719e-01  0 
 4.736944e-02  -2.209045e-01  0 
 7.967341e-02  -2.243315e-01  0 
 1.674632e-02  -2.611444e-01  0 
 4.893431e-02  -2.626703e-01  0 
 1.623081e-02  -3.003864e-01  0 
 5.099773e-02  -3.014497e-01  0 
 1.724296e-02  -3.358061e-01  0 
 5.089459e-02  -3.383050e-01  0 
 1.512158e-02  -1.540418e-01  0 
 1.633296e-05  -1.737732e-01  0 
 3.810348e-02  -1.577941e-01  0 
 2.929948e-02  -1.789722e-01  0 
 7.103860e-02  -1.587679e-01  0 
 5.596722e-02  -1.782507e-01  0 
 1.317755e-02  -1.983296e-01  0 
 3.826410e-06  -2.208810e-01  0 
 4.656673e-02  -1.988867e-01  0 
 3.035369e-02  -2.185943e-01  0 
 7.636628e-02  -2.043767e-01  0 
 6.448144e-02  -2.236762e-01  0 
 1.712760e-02  -2.403563e-01  0 
 -1.263144e-06  -2.599213e-01  0 
 4.730901e-02  -2.427733e-01  0 
 3.311770e-02  -2.627060e-01  0 
 8.277872e-02  -2.435971e-01  0 
 6.551872e-02  -2.627364e-01  0 
 1.581775e-02  -2.813187e-01  0 
 -1.955555e-05  -3.007407e-01  0 
 5.070323e-02  -2.817659e-01  0 
 3.332868e-02  -3.002775e-01  0 
 6.825951e-02  -3.029190e-01  0 
 1.696390e-02  -3.183861e-01  0 
 -2.151087e-05  -3.356526e-01  0 
 5.080818e-02  -3.204968e-01  0 
 3.405521e-02  -3.370367e-01  0 
 6.853129e-02  -3.386560e-01  0 
 2.382924e-05  -1.536428e-01  0 
 2.606012e-02  -1.558493e-01  0 
 5.466554e-02  -1.579840e-01  0 
 3.022933e-06  -1.982901e-01  0 
 2.993516e-02  -1.982879e-01  0 
 6.064728e-02  -2.017497e-01  0 
 -2.046731e-06  -2.400686e-01  0 
 3.190279e-02  -2.416386e-01  0 
 6.514969e-02  -2.429681e-01  0 
 -1.272256e-05  -2.814364e-01  0 
 3.328066e-02  -2.812875e-01  0 
 6.704664e-02  -2.836952e-01  0 
 -2.302135e-05  -3.180976e-01  0 
 3.363123e-02  -3.196463e-01  0 
 6.848942e-02  -3.207137e-01  0 
VECTORS displacement_ITER15 FLOAT
 1.456400e-02  -1.760891e-01  0 
 4.226712e-02  -1.785094e-01  0 
 7.428402e-02  -1.813837e-01  0 
 1.493605e-02  -2.195776e-01  0 
 4.736258e-02  -2.209119e-01  0 
 7.968446e-02  -2.243354e-01  0 
 1.674317e-02  -2.611567e-01  0 
 4.892849e-02  -2.626857e-01  0 
 1.623349e-02  -3.003926e-01  0 
 5.098931e-02  -3.014567e-01  0 
 1.724907e-02  -3.357886e-01  0 
 5.088726e-02  -3.382923e-01  0 
 1.510799e-02  -1.540447e-01  0 
 2.418386e-06  -1.737786e-01  0 
 3.810447e-02  -1.577816e-01  0 
 2.928936e-02  -1.789711e-01  0 
 7.104023e-02  -1.587605e-01  0 
 5.596898e-02  -1.782419e-01  0 
 1.316498e-02  -1.983331e-01  0 
 -7.920637e-06  -2.208878e-01  0 
 4.656139e-02  -1.988890e-01  0 
 3.034428e-02  -2.186010e-01  0 
 7.636985e-02  -2.043660e-01  0 
 6.448043e-02  -2.236819e-01  0 
 1.712054e-02  -2.403650e-01  0 
 -8.828531e-06  -2.599331e-01  0 
 4.730251e-02  -2.427865e-01  0 
 3.311385e-02  -2.627199e-01  0 
 8.279242e-02  -2.436175e-01  0 
 6.551340e-02  -2.627517e-01  0 
 1.581776e-02  -2.813306e-01  0 
 -4.731850e-06  -3.007475e-01  0 
 5.069588e-02  -2.817776e-01  0 
 3.332525e-02  -3.002840e-01  0 
 6.824370e-02  -3.029278e-01  0 
 1.696827e-02  -3.183801e-01  0 
 -4.739386e-06  -3.356338e-01  0 
 5.080075e-02  -3.204948e-01  0 
 3.405392e-02  -3.370248e-01  0 
 6.851255e-02  -3.386408e-01  0 
 8.073472e-06  -1.536521e-01  0 
 2.605025e-02  -1.558376e-01  0 
 5.466429e-02  -1.579719e-01  0 
 -6.504308e-06  -1.982888e-01  0 
 2.992486e-02  -1.982915e-01  0 
 6.064754e-02  -2.017458e-01  0 
 -1.065062e-05  -2.400747e-01  0 
 3.189611e-02  -2.416498e-01  0 
 6.514774e-02  -2.429833e-01  0 
 -8.665512e-06  -2.814488e-01  0 
 3.327724e-02  -2.812992e-01  0 