# vtk DataFile Version 3.1
this is an vtk file created by FEMAC
ASCII
DATASET UNSTRUCTURED_GRID
POINTS 56 FLOAT
0.000000 7.000000 0.000000
1.000000 7.000000 0.000000
0.000000 8.000000 0.000000
1.000000 8.000000 0.000000
0.000000 9.000000 0.000000
1.000000 9.000000 0.000000
2.000000 7.000000 0.000000
2.000000 8.000000 0.000000
2.000000 9.000000 0.000000
3.000000 7.000000 0.000000
3.000000 8.000000 0.000000
3.000000 9.000000 0.000000
4.000000 7.000000 0.000000
4.000000 8.000000 0.000000
4.000000 9.000000 0.000000
0.500000 7.000000 0.000000
0.500000 8.000000 0.000000
0.000000 7.500000 0.000000
1.000000 7.500000 0.000000
0.500000 9.000000 0.000000
0.000000 8.500000 0.000000
1.000000 8.500000 0.000000
1.500000 7.000000 0.000000
2.000000 6.500000 0.000000
1.500000 8.000000 0.000000
2.000000 7.500000 0.000000
1.500000 9.000000 0.000000
2.000000 8.500000 0.000000
2.500000 7.000000 0.000000
3.000000 6.500000 0.000000
2.500000 8.000000 0.000000
3.000000 7.500000 0.000000
2.500000 9.000000 0.000000
3.000000 8.500000 0.000000
3.500000 7.000000 0.000000
4.000000 6.500000 0.000000
3.500000 8.000000 0.000000
4.000000 7.500000 0.000000
3.500000 9.000000 0.000000
4.000000 8.500000 0.000000
4.500000 7.000000 0.000000
4.500000 8.000000 0.000000
4.500000 9.000000 0.000000
0.500000 7.500000 0.000000
0.500000 8.500000 0.000000
1.500000 7.500000 0.000000
1.500000 8.500000 0.000000
2.500000 6.500000 0.000000
2.500000 7.500000 0.000000
2.500000 8.500000 0.000000
3.500000 6.500000 0.000000
3.500000 7.500000 0.000000
3.500000 8.500000 0.000000
4.500000 6.500000 0.000000
4.500000 7.500000 0.000000
4.500000 8.500000 0.000000
CELLS 41 205 
4 0 15 43 17
4 17 43 16  2
4 15  1 18 43
4 43 18  3 16
4 2 16 44 20
4 20 44 19  4
4 16  3 21 44
4 44 21  5 19
4 1 22 45 18
4 18 45 24  3
4 22  6 25 45
4 45 25  7 24
4 3 24 46 21
4 21 46 26  5
4 24  7 27 46
4 46 27  8 26
4 23 47 28  6
4 47 29  9 28
4 6 28 48 25
4 25 48 30  7
4 28  9 31 48
4 48 31 10 30
4 7 30 49 27
4 27 49 32  8
4 30 10 33 49
4 49 33 11 32
4 29 50 34  9
4 50 35 12 34
4 9 34 51 31
4 31 51 36 10
4 34 12 37 51
4 51 37 13 36
4 10 36 52 33
4 33 52 38 11
4 36 13 39 52
4 52 39 14 38
4 35 53 40 12
4 12 40 54 37
4 37 54 41 13
4 13 41 55 39
4 39 55 42 14
CELL_TYPES 41
9 9 9 9 9 9 9 9 9 9 9 9 9 9 9 9 9 9 9 9 9 9 9 9 9 9 9 9 9 9 9 9 9 9 9 9 9 9 9 9 9 
POINT_DATA 56
VECTORS displacement_ITER1 FLOAT
 0  0  0 
 9.279973e-02  1.929743e-02  0 
 0  0  0 
 3.750765e-02  1.010771e-02  0 
 0  0  0 
 5.048882e-03  5.578628e-03  0 
 1.276870e-01  6.012255e-02  0 
 7.021000e-02  5.194385e-02  0 
 3.023699e-02  4.342456e-02  0 
 1.575733e-01  1.157885e-01  0 
 9.726233e-02  1.001455e-01  0 
 3.626771e-02  9.413915e-02  0 
 1.742040e-01  1.581786e-01  0 
 1.141971e-01  1.537396e-01  0 
 6.487758e-02  1.495264e-01  0 
 4.631324e-02  1.150433e-02  0 
 1.664916e-02  -2.988336e-04  0 
 0  0  0 
 7.096914e-02  1.285611e-02  0 
 3.452302e-03  -1.184231e-03  0 
 0  0  0 
 1.479396e-02  7.970022e-03  0 
 1.064827e-01  3.694277e-02  0 
 1.871679e-01  5.619485e-02  0 
 5.578793e-02  3.357497e-02  0 
 8.801798e-02  5.815253e-02  0 
 1.629019e-02  1.954599e-02  0 
 5.430658e-02  4.648349e-02  0 
 1.464105e-01  9.568963e-02  0 
 1.819889e-01  1.234358e-01  0 
 8.392006e-02  7.098974e-02  0 
 1.331929e-01  1.059784e-01  0 
 3.339869e-02  6.874636e-02  0 
 6.277455e-02  9.648418e-02  0 
 1.648597e-01  1.327935e-01  0 
 2.088332e-01  1.591796e-01  0 
 1.080756e-01  1.304962e-01  0 
 1.402822e-01  1.570706e-01  0 
 4.975608e-02  1.203483e-01  0 
 8.993931e-02  1.509716e-01  0 
 1.837678e-01  1.825242e-01  0 
 1.188075e-01  1.770425e-01  0 
 6.975337e-02  1.722457e-01  0 
 3.254615e-02  7.424943e-05  0 
 8.830731e-03  -1.534289e-03  0 
 8.107698e-02  3.500090e-02  0 
 3.488563e-02  2.601022e-02  0 
 1.812691e-01  1.001199e-01  0 
 1.116075e-01  8.180595e-02  0 
 5.880855e-02  6.891182e-02  0 
 1.943520e-01  1.388749e-01  0 
 1.374774e-01  1.317229e-01  0 
 7.775287e-02  1.255918e-01  0 
 2.125259e-01  1.872230e-01  0 
 1.519689e-01  1.799590e-01  0 
 9.164204e-02  1.752551e-01  0 
VECTORS displacement_ITER2 FLOAT
 0  0  0 
 2.098459e-02  -2.085598e-02  0 
 0  0  0 
 3.082186e-02  -2.213906e-02  0 
 0  0  0 
 3.888820e-02  -2.833642e-02  0 
 3.803157e-02  -6.005755e-02  0 
 6.742719e-02  -6.530137e-02  0 
 1.221216e-01  -7.767599e-02  0 
 5.910511e-02  -1.103689e-01  0 
 9.649230e-02  -1.214516e-01  0 
 1.350128e-01  -1.263563e-01  0 
 7.229257e-02  -1.715515e-01  0 
 1.148244e-01  -1.737609e-01  0 
 1.706893e-01  -1.784623e-01  0 
 9.599234e-03  -5.825149e-03  0 
 1.054641e-02  -9.642595e-03  0 
 0  0  0 
 3.257094e-02  -2.336313e-02  0 
 2.347195e-02  -1.432719e-02  0 
 0  0  0 
 2.703030e-02  -2.262810e-02  0 
 2.526257e-02  -3.903511e-02  0 
 3.998972e-02  -6.574065e-02  0 
 5.182779e-02  -3.858302e-02  0 
 4.377118e-02  -5.917257e-02  0 
 8.496165e-02  -5.522490e-02  0 
 9.826100e-02  -7.252632e-02  0 
 5.167909e-02  -7.982067e-02  0 
 3.502721e-02  -1.050240e-01  0 
 8.162386e-02  -9.769896e-02  0 
 8.304840e-02  -1.179976e-01  0 
 1.295408e-01  -1.012018e-01  0 
 1.111142e-01  -1.236817e-01  0 
 6.388270e-02  -1.435196e-01  0 
 5.519013e-02  -1.731644e-01  0 
 1.086027e-01  -1.444035e-01  0 
 8.979424e-02  -1.707035e-01  0 
 1.533619e-01  -1.539596e-01  0 
 1.427729e-01  -1.768145e-01  0 
 8.140062e-02  -2.007845e-01  0 
 1.192962e-01  -2.035753e-01  0 
 1.757206e-01  -2.088942e-01  0 
 1.374613e-02  -9.022226e-03  0 
 1.519886e-02  -1.143366e-02  0 
 3.835085e-02  -3.868124e-02  0 
 6.372523e-02  -4.297146e-02  0 
 3.459693e-02  -7.708220e-02  0 
 6.407429e-02  -8.852682e-02  0 
 1.059047e-01  -1.002992e-01  0 
 4.369542e-02  -1.408766e-01  0 
 8.700761e-02  -1.437011e-01  0 
 1.285967e-01  -1.482086e-01  0 
 5.790680e-02  -1.976515e-01  0 
 1.010252e-01  -2.009522e-01  0 
 1.448617e-01  -2.056783e-01  0 
VECTORS displacement_ITER3 FLOAT
 0  0  0 
 1.444942e-02  -2.293389e-02  0 
 0  0  0 
 2.511560e-02  -2.273114e-02  0 
 0  0  0 
 3.481025e-02  -2.715981e-02  0 
 2.906691e-02  -5.888666e-02  0 
 5.556277e-02  -6.280455e-02  0 
 1.028498e-01  -7.291716e-02  0 
 4.824218e-02  -1.019826e-01  0 
 7.953786e-02  -1.110995e-01  0 
 1.125683e-01  -1.149472e-01  0 
 6.050404e-02  -1.517766e-01  0 
 9.485372e-02  -1.534320e-01  0 
 1.384036e-01  -1.568111e-01  0 
 6.200183e-03  -8.332136e-03  0 
 8.133650e-03  -9.709336e-03  0 
 0  0  0 
 2.551511e-02  -2.466316e-02  0 
 2.135620e-02  -1.358047e-02  0 
 0  0  0 
 2.321055e-02  -2.245039e-02  0 
 1.814404e-02  -3.997085e-02  0 
 3.039856e-02  -6.382992e-02  0 
 4.277386e-02  -3.890406e-02  0 
 3.478326e-02  -5.782297e-02  0 
 7.317479e-02  -5.220459e-02  0 
 8.197409e-02  -6.877468e-02  0 
 4.141408e-02  -7.644760e-02  0 
 2.807251e-02  -9.760753e-02  0 
 6.722789e-02  -9.073662e-02  0 
 6.839473e-02  -1.082271e-01  0 
 1.085432e-01  -9.345164e-02  0 
 9.221923e-02  -1.128986e-01  0 
 5.294177e-02  -1.291257e-01  0 
 4.668448e-02  -1.527092e-01  0 
 8.955634e-02  -1.299446e-01  0 
 7.444270e-02  -1.511732e-01  0 
 1.258291e-01  -1.376168e-01  0 
 1.168903e-01  -1.556152e-01  0 
 6.841250e-02  -1.756637e-01  0 
 9.868907e-02  -1.764790e-01  0 
 1.422932e-01  -1.800167e-01  0 
 1.068905e-02  -9.833062e-03  0 
 1.317428e-02  -1.104055e-02  0 
 3.018089e-02  -3.920513e-02  0 
 5.359473e-02  -4.224085e-02  0 
 2.695525e-02  -7.441194e-02  0 
 5.209370e-02  -8.344808e-02  0 
 8.814696e-02  -9.279297e-02  0 
 3.668340e-02  -1.265506e-01  0 
 7.190458e-02  -1.293369e-01  0 
 1.058687e-01  -1.332238e-01  0 
 4.909132e-02  -1.731804e-01  0 
 8.413787e-02  -1.753395e-01  0 
 1.183941e-01  -1.777742e-01  0 
VECTORS displacement_ITER4 FLOAT
 0  0  0 
 1.615848e-02  -2.440706e-02  0 
 0  0  0 
 2.537784e-02  -2.370575e-02  0 
 0  0  0 
 3.479671e-02  -2.760907e-02  0 
 3.150367e-02  -5.928701e-02  0 
 5.571798e-02  -6.242473e-02  0 
 1.003003e-01  -7.210124e-02  0 
 5.121365e-02  -9.895885e-02  0 
 7.922562e-02  -1.074666e-01  0 
 1.096486e-01  -1.113515e-01  0 
 6.370809e-02  -1.433743e-01  0 
 9.474958e-02  -1.461865e-01  0 
 1.358952e-01  -1.502623e-01  0 
 7.468267e-03  -9.776469e-03  0 
 8.172997e-03  -1.021104e-02  0 
 0  0  0 
 2.664319e-02  -2.606015e-02  0 
 2.154822e-02  -1.392237e-02  0 
 0  0  0 
 2.324140e-02  -2.306006e-02  0 
 2.035861e-02  -4.116617e-02  0 
 3.391698e-02  -6.423043e-02  0 
 4.310355e-02  -3.958881e-02  0 
 3.605945e-02  -5.778490e-02  0 
 7.192029e-02  -5.227971e-02  0 
 8.070550e-02  -6.813089e-02  0 
 4.422074e-02  -7.574593e-02  0 
 3.335348e-02  -9.489100e-02  0 
 6.719573e-02  -8.873927e-02  0 
 6.959409e-02  -1.047328e-01  0 
 1.057304e-01  -9.130241e-02  0 
 9.069084e-02  -1.093028e-01  0 
 5.617031e-02  -1.235521e-01  0 
 5.318183e-02  -1.436477e-01  0 
 8.908844e-02  -1.243732e-01  0 
 7.553780e-02  -1.434497e-01  0 
 1.230300e-01  -1.324793e-01  0 
 1.159514e-01  -1.487945e-01  0 
 7.138288e-02  -1.633350e-01  0 
 9.917412e-02  -1.682788e-01  0 
 1.395781e-01  -1.714917e-01  0 
 1.128302e-02  -1.075282e-02  0 
 1.328282e-02  -1.144609e-02  0 
 3.139166e-02  -4.004510e-02  0 
 5.302567e-02  -4.268051e-02  0 
 3.160857e-02  -7.413954e-02  0 
 5.336772e-02  -8.200532e-02  0 
 8.668942e-02  -9.068708e-02  0 
 4.276029e-02  -1.206944e-01  0 
 7.303074e-02  -1.237610e-01  0 
 1.044015e-01  -1.279135e-01  0 
 5.569193e-02  -1.606490e-01  0 
 8.526721e-02  -1.653944e-01  0 
 1.178154e-01  -1.696218e-01  0 
VECTORS displacement_ITER5 FLOAT
 0  0  0 
 1.954196e-02  -2.385675e-02  0 
 0  0  0 
 2.684480e-02  -2.330906e-02  0 
 0  0  0 
 3.513486e-02  -2.740694e-02  0 
 3.516929e-02  -5.754686e-02  0 
 5.845908e-02  -6.080257e-02  0 
 1.027221e-01  -7.073367e-02  0 
 5.478721e-02  -9.695682e-02  0 
 8.275597e-02  -1.052450e-01  0 
 1.129981e-01  -1.096149e-01  0 
 6.709812e-02  -1.407380e-01  0 
 9.948111e-02  -1.447377e-01  0 
 1.436507e-01  -1.500515e-01  0 
 1.039396e-02  -1.003341e-02  0 
 8.850806e-03  -1.020105e-02  0 
 0  0  0 
 2.933272e-02  -2.567041e-02  0 
 2.173802e-02  -1.396305e-02  0 
 0  0  0 
 2.391682e-02  -2.273782e-02  0 
 2.419830e-02  -4.027937e-02  0 
 3.648726e-02  -6.183818e-02  0 
 4.529031e-02  -3.843288e-02  0 
 3.908573e-02  -5.609913e-02  0 
 7.313367e-02  -5.161546e-02  0 
 8.343672e-02  -6.660770e-02  0 
 4.790228e-02  -7.436466e-02  0 
 3.785723e-02  -9.296142e-02  0 
 7.038594e-02  -8.688805e-02  0 
 7.315783e-02  -1.024726e-01  0 
 1.085640e-01  -8.961456e-02  0 
 9.401606e-02  -1.073110e-01  0 
 5.971448e-02  -1.211815e-01  0 
 5.688067e-02  -1.404052e-01  0 
 9.306199e-02  -1.220864e-01  0 
 7.909963e-02  -1.413887e-01  0 
 1.286326e-01  -1.313168e-01  0 
 1.226358e-01  -1.480544e-01  0 
 7.446048e-02  -1.600602e-01  0 
 1.047542e-01  -1.688972e-01  0 
 1.474657e-01  -1.719477e-01  0 
 1.259852e-02  -1.087011e-02  0 
 1.366716e-02  -1.148265e-02  0 
 3.424996e-02  -3.888441e-02  0 
 5.474132e-02  -4.168614e-02  0 
 3.565011e-02  -7.323434e-02  0 
 5.675785e-02  -8.010979e-02  0 
 8.968153e-02  -8.891996e-02  0 
 4.712958e-02  -1.178756e-01  0 
 7.658319e-02  -1.214251e-01  0 
 1.092162e-01  -1.260377e-01  0 
 5.911947e-02  -1.575131e-01  0 
 8.894010e-02  -1.640253e-01  0 
 1.252220e-01  -1.704116e-01  0 
VECTORS displacement_ITER6 FLOAT
 0  0  0 
 1.841911e-02  -2.331059e-02  0 
 0  0  0 
 2.589632e-02  -2.271942e-02  0 
 0  0  0 
 3.424398e-02  -2.674399e-02  0 
 3.301572e-02  -5.608480e-02  0 
 5.653219e-02  -5.961690e-02  0 
 1.004562e-01  -6.932788e-02  0 
 5.131895e-02  -9.608929e-02  0 
 8.002490e-02  -1.038562e-01  0 
 1.106710e-01  -1.082078e-01  0 
 6.330658e-02  -1.394360e-01  0 
 9.666638e-02  -1.435939e-01  0 
 1.405446e-01  -1.491193e-01  0 
 1.091997e-02  -1.030837e-02  0 
 8.526075e-03  -9.933503e-03  0 
 0  0  0 
 2.817726e-02  -2.505390e-02  0 
 2.116735e-02  -1.359120e-02  0 
 0  0  0 
 2.322742e-02  -2.218604e-02  0 
 2.303208e-02  -3.950923e-02  0 
 3.098822e-02  -5.900852e-02  0 
 4.376342e-02  -3.756401e-02  0 
 3.739629e-02  -5.497013e-02  0 
 7.140287e-02  -5.046026e-02  0 
 8.125422e-02  -6.528597e-02  0 
 4.484135e-02  -7.381665e-02  0 
 3.462795e-02  -9.221798e-02  0 
 6.806744e-02  -8.546714e-02  0 
 6.994132e-02  -1.011822e-01  0 
 1.062442e-01  -8.816299e-02  0 
 9.159132e-02  -1.059196e-01  0 
 5.617094e-02  -1.198646e-01  0 
 5.197351e-02  -1.386763e-01  0 
 9.009872e-02  -1.208676e-01  0 
 7.580061e-02  -1.402700e-01  0 
 1.261268e-01  -1.301565e-01  0 
 1.199860e-01  -1.470080e-01  0 
 7.031505e-02  -1.592241e-01  0 
 1.021618e-01  -1.678690e-01  0 
 1.438739e-01  -1.700258e-01  0 
 1.213534e-02  -1.067406e-02  0 
 1.326086e-02  -1.116503e-02  0 
 3.274341e-02  -3.798968e-02  0 
 5.326283e-02  -4.075221e-02  0 
 3.199215e-02  -7.316224e-02  0 
 5.430651e-02  -7.892175e-02  0 
 8.734927e-02  -8.745586e-02  0 
 4.356023e-02  -1.162046e-01  0 
 7.327918e-02  -1.201844e-01  0 
 1.065267e-01  -1.249072e-01  0 
 5.381781e-02  -1.573443e-01  0 
 8.529259e-02  -1.631937e-01  0 
 1.227471e-01  -1.690742e-01  0 
VECTORS displacement_ITER7 FLOAT
 0  0  0 
 1.821242e-02  -2.312861e-02  0 
 0  0  0 
 2.589234e-02  -2.264159e-02  0 
 0  0  0 
 3.422094e-02  -2.669625e-02  0 
 3.313631e-02  -5.574256e-02  0 
 5.650109e-02  -5.957717e-02  0 
 1.005076e-01  -6.934368e-02  0 
 5.128631e-02  -9.626245e-02  0 
 7.997794e-02  -1.040318e-01  0 
 1.106579e-01  -1.083437e-01  0 
 6.364231e-02  -1.394188e-01  0 
 9.674125e-02  -1.436111e-01  0 
 1.391352e-01  -1.492891e-01  0 
 1.142840e-02  -1.036433e-02  0 
 8.531265e-03  -9.901652e-03  0 
 0  0  0 
 2.819536e-02  -2.493401e-02  0 
 2.114240e-02  -1.356324e-02  0 
 0  0  0 
 2.321534e-02  -2.213116e-02  0 
 2.313539e-02  -3.937158e-02  0 
 2.948872e-02  -5.774829e-02  0 
 4.375186e-02  -3.746286e-02  0 
 3.739963e-02  -5.482002e-02  0 
 7.142514e-02  -5.042077e-02  0 
 8.125854e-02  -6.529328e-02  0 
 4.477146e-02  -7.392020e-02  0 
 3.465692e-02  -9.221298e-02  0 
 6.801913e-02  -8.554738e-02  0 
 6.997285e-02  -1.013525e-01  0 
 1.062815e-01  -8.823632e-02  0 
 9.153174e-02  -1.060804e-01  0 
 5.634617e-02  -1.199384e-01  0 
 5.242292e-02  -1.385635e-01  0 
 9.007070e-02  -1.210183e-01  0 
 7.594578e-02  -1.402483e-01  0 
 1.256809e-01  -1.304052e-01  0 
 1.195055e-01  -1.471528e-01  0 
 7.068033e-02  -1.590149e-01  0 
 1.024076e-01  -1.674442e-01  0 
 1.418889e-01  -1.689096e-01  0 
 1.213120e-02  -1.061678e-02  0 
 1.325069e-02  -1.113677e-02  0 
 3.271588e-02  -3.788702e-02  0 
 5.325833e-02  -4.069264e-02  0 
 3.167536e-02  -7.344871e-02  0 
 5.434056e-02  -7.893877e-02  0 
 8.734359e-02  -8.753641e-02  0 
 4.403901e-02  -1.160127e-01  0 
 7.335947e-02  -1.203068e-01  0 
 1.062000e-01  -1.252313e-01  0 
 5.413275e-02  -1.576052e-01  0 
 8.549116e-02  -1.631055e-01  0 
 1.222897e-01  -1.683920e-01  0 
VECTORS displacement_ITER8 FLOAT
 0  0  0 
 1.817001e-02  -2.321552e-02  0 
 0  0  0 
 2.599735e-02  -2.276161e-02  0 
 0  0  0 
 3.434547e-02  -2.681250e-02  0 
 3.346863e-02  -5.597837e-02  0 
 5.669621e-02  -5.981631e-02  0 
 1.007133e-01  -6.960103e-02  0 
 5.173773e-02  -9.645845e-02  0 
 8.024226e-02  -1.042806e-01  0 
 1.108197e-01  -1.085736e-01  0 
 6.424591e-02  -1.394979e-01  0 
 9.701480e-02  -1.436614e-01  0 
 1.389787e-01  -1.493594e-01  0 
 1.150207e-02  -1.039291e-02  0 
 8.559697e-03  -9.951014e-03  0 
 0  0  0 
 2.831308e-02  -2.505173e-02  0 
 2.122688e-02  -1.362506e-02  0 
 0  0  0 
 2.329897e-02  -2.223732e-02  0 
 2.326416e-02  -3.954137e-02  0 
 2.973353e-02  -5.784710e-02  0 
 4.392127e-02  -3.764932e-02  0 
 3.759202e-02  -5.503852e-02  0 
 7.162326e-02  -5.062420e-02  0 
 8.146232e-02  -6.554759e-02  0 
 4.516140e-02  -7.414621e-02  0 
 3.520225e-02  -9.232628e-02  0 
 6.824581e-02  -8.580986e-02  0 
 7.035761e-02  -1.015944e-01  0 
 1.064712e-01  -8.849151e-02  0 
 9.172964e-02  -1.063205e-01  0 
 5.687016e-02  -1.200990e-01  0 
 5.325201e-02  -1.386586e-01  0 
 9.035187e-02  -1.211850e-01  0 
 7.635836e-02  -1.402979e-01  0 
 1.257156e-01  -1.305761e-01  0 
 1.195884e-01  -1.472188e-01  0 
 7.135944e-02  -1.588471e-01  0 
 1.026692e-01  -1.673436e-01  0 
 1.416317e-01  -1.686686e-01  0 
 1.216388e-02  -1.064821e-02  0 
 1.330243e-02  -1.119165e-02  0 
 3.286975e-02  -3.809152e-02  0 
 5.341127e-02  -4.088096e-02  0 
 3.217300e-02  -7.370536e-02  0 
 5.463711e-02  -7.917971e-02  0 
 8.755234e-02  -8.779883e-02  0 
 4.473610e-02  -1.161296e-01  0 
 7.376737e-02  -1.204741e-01  0 
 1.063359e-01  -1.254249e-01  0 
 5.499084e-02  -1.575860e-01  0 
 8.586425e-02  -1.630636e-01  0 
 1.223647e-01  -1.682475e-01  0 
VECTORS displacement_ITER9 FLOAT
 0  0  0 
 1.806837e-02  -2.281605e-02  0 
 0  0  0 
 2.604809e-02  -2.250420e-02  0 
 0  0  0 
 3.424016e-02  -2.662576e-02  0 
 3.367960e-02  -5.552393e-02  0 
 5.679248e-02  -5.939297e-02  0 
 1.007916e-01  -6.919312e-02  0 
 5.184053e-02  -9.581295e-02  0 
 8.045390e-02  -1.037613e-01  0 
 1.110010e-01  -1.081267e-01  0 
 6.407152e-02  -1.393930e-01  0 
 9.728798e-02  -1.433458e-01  0 
 1.397561e-01  -1.490452e-01  0 
 1.157936e-02  -1.013315e-02  0 
 8.599416e-03  -9.845403e-03  0 
 0  0  0 
 2.836458e-02  -2.469951e-02  0 
 2.113893e-02  -1.353580e-02  0 
 0  0  0 
 2.327992e-02  -2.203742e-02  0 
 2.332039e-02  -3.910627e-02  0 
 2.995518e-02  -5.730223e-02  0 
 4.397948e-02  -3.728522e-02  0 
 3.769052e-02  -5.460757e-02  0 
 7.157655e-02  -5.031565e-02  0 
 8.157181e-02  -6.512445e-02  0 
 4.533108e-02  -7.358307e-02  0 
 3.544739e-02  -9.158587e-02  0 
 6.840024e-02  -8.534041e-02  0 
 7.050616e-02  -1.010216e-01  0 
 1.065946e-01  -8.805098e-02  0 
 9.191330e-02  -1.058423e-01  0 
 5.684134e-02  -1.196343e-01  0 
 5.256119e-02  -1.386786e-01  0 
 9.062008e-02  -1.207305e-01  0 
 7.647136e-02  -1.400593e-01  0 
 1.261619e-01  -1.301686e-01  0 
 1.201247e-01  -1.468675e-01  0 
 7.107068e-02  -1.591119e-01  0 
 1.028744e-01  -1.673044e-01  0 
 1.425271e-01  -1.685537e-01  0 
 1.215858e-02  -1.045873e-02  0 
 1.328134e-02  -1.110433e-02  0 
 3.294944e-02  -3.773029e-02  0 
 5.345033e-02  -4.054106e-02  0 
 3.258953e-02  -7.318935e-02  0 
 5.477063e-02  -7.864327e-02  0 
 8.768938e-02  -8.734853e-02  0 
 4.450280e-02  -1.157079e-01  0 
 7.392027e-02  -1.200151e-01  0 
 1.067038e-01  -1.249528e-01  0 
 5.421574e-02  -1.581670e-01  0 
 8.573773e-02  -1.632023e-01  0 
 1.229368e-01  -1.681922e-01  0 
VECTORS displacement_ITER10 FLOAT
 0  0  0 
 1.759275e-02  -2.299432e-02  0 
 0  0  0 
 2.591004e-02  -2.264077e-02  0 
 0  0  0 
 3.425646e-02  -2.671916e-02  0 
 3.338190e-02  -5.588646e-02  0 
 5.654365e-02  -5.969822e-02  0 
 1.005411e-01  -6.944227e-02  0 
 5.164817e-02  -9.603445e-02  0 
 8.015243e-02  -1.040100e-01  0 
 1.106661e-01  -1.083544e-01  0 
 6.394144e-02  -1.394596e-01  0 
 9.690292e-02  -1.434437e-01  0 
 1.393023e-01  -1.491451e-01  0 
 1.127133e-02  -1.021013e-02  0 
 8.524822e-03  -9.883553e-03  0 
 0  0  0 
 2.808516e-02  -2.485450e-02  0 
 2.116024e-02  -1.356911e-02  0 
 0  0  0 
 2.323442e-02  -2.214599e-02  0 
 2.290656e-02  -3.937836e-02  0 
 2.978910e-02  -5.768290e-02  0 
 4.377979e-02  -3.754681e-02  0 
 3.740184e-02  -5.494505e-02  0 
 7.148725e-02  -5.049179e-02  0 
 8.131084e-02  -6.539723e-02  0 
 4.508695e-02  -7.385621e-02  0 
 3.529431e-02  -9.174412e-02  0 
 6.812561e-02  -8.561584e-02  0 
 7.025553e-02  -1.012729e-01  0 
 1.062974e-01  -8.830516e-02  0 
 9.160506e-02  -1.060825e-01  0 
 5.668499e-02  -1.198209e-01  0 
 5.273197e-02  -1.387510e-01  0 
 9.027985e-02  -1.209076e-01  0 
 7.619131e-02  -1.401352e-01  0 
 1.257398e-01  -1.303216e-01  0 
 1.196917e-01  -1.469682e-01  0 
 7.096545e-02  -1.588017e-01  0 
 1.024535e-01  -1.673652e-01  0 
 1.420746e-01  -1.686339e-01  0 
 1.201054e-02  -1.049198e-02  0 
 1.325905e-02  -1.113610e-02  0 
 3.266143e-02  -3.801596e-02  0 
 5.329853e-02  -4.076243e-02  0 
 3.248006e-02  -7.346280e-02  0 
 5.449765e-02  -7.894246e-02  0 
 8.740109e-02  -8.761231e-02  0 
 4.447653e-02  -1.158857e-01  0 
 7.366303e-02  -1.201993e-01  0 
 1.063303e-01  -1.251242e-01  0 
 5.445542e-02  -1.579014e-01  0 
 8.540152e-02  -1.631522e-01  0 
 1.224857e-01  -1.682826e-01  0 
VECTORS displacement_ITER11 FLOAT
 0  0  0 
 1.744180e-02  -2.312392e-02  0 
 0  0  0 
 2.589479e-02  -2.274699e-02  0 
 0  0  0 
 3.431129e-02  -2.680263e-02  0 
 3.335220e-02  -5.614256e-02  0 
 5.652263e-02  -5.990331e-02  0 
 1.005328e-01  -6.962867e-02  0 
 5.168719e-02  -9.619391e-02  0 
 8.013988e-02  -1.041924e-01  0 
 1.106281e-01  -1.085325e-01  0 
 6.401050e-02  -1.395882e-01  0 
 9.687082e-02  -1.435537e-01  0 
 1.392828e-01  -1.492517e-01  0 
 1.114800e-02  -1.027368e-02  0 
 8.506710e-03  -9.921260e-03  0 
 0  0  0 
 2.802542e-02  -2.497846e-02  0 
 2.120227e-02  -1.360772e-02  0 
 0  0  0 
 2.324936e-02  -2.223242e-02  0 
 2.279821e-02  -3.957087e-02  0 
 2.987787e-02  -5.797381e-02  0 
 4.376460e-02  -3.772312e-02  0 
 3.735579e-02  -5.516692e-02  0 
 7.152877e-02  -5.063630e-02  0 
 8.129438e-02  -6.559096e-02  0 
 4.509106e-02  -7.404349e-02  0 
 3.534442e-02  -9.187082e-02  0 
 6.810872e-02  -8.581335e-02  0 
 7.027254e-02  -1.014526e-01  0 
 1.062723e-01  -8.849553e-02  0 
 9.158082e-02  -1.062635e-01  0 
 5.674197e-02  -1.199786e-01  0 
 5.293289e-02  -1.388928e-01  0 
 9.026243e-02  -1.210549e-01  0 
 7.619951e-02  -1.402475e-01  0 
 1.256881e-01  -1.304594e-01  0 
 1.196597e-01  -1.470717e-01  0 
 7.102536e-02  -1.587813e-01  0 
 1.024091e-01  -1.674637e-01  0 
 1.420782e-01  -1.687540e-01  0 
 1.197261e-02  -1.053314e-02  0 
 1.327077e-02  -1.117176e-02  0 
 3.260987e-02  -3.820794e-02  0 
 5.330062e-02  -4.091922e-02  0 
 3.257197e-02  -7.364869e-02  0 
 5.448016e-02  -7.914667e-02  0 
 8.737926e-02  -8.780672e-02  0 
 4.458985e-02  -1.160445e-01  0 
 7.368269e-02  -1.203528e-01  0 
 1.063026e-01  -1.252633e-01  0 
 5.468038e-02  -1.579238e-01  0 
 8.536783e-02  -1.632044e-01  0 
 1.224505e-01  -1.684051e-01  0 
VECTORS displacement_ITER12 FLOAT
 0  0  0 
 1.747197e-02  -2.313478e-02  0 
 0  0  0 
 2.592069e-02  -2.276478e-02  0 
 0  0  0 
 3.433293e-02  -2.681980e-02  0 
 3.341471e-02  -5.618090e-02  0 
 5.657040e-02  -5.992808e-02  0 
 1.005840e-01  -6.965689e-02  0 
 5.175468e-02  -9.621084e-02  0 
 8.020182e-02  -1.042173e-01  0 
 1.106838e-01  -1.085588e-01  0 
 6.407988e-02  -1.396258e-01  0 
 9.693407e-02  -1.435783e-01  0 
 1.393820e-01  -1.492755e-01  0 
 1.116286e-02  -1.028533e-02  0 
 8.515707e-03  -9.929778e-03  0 
 0  0  0 
 2.806294e-02  -2.499835e-02  0 
 2.121694e-02  -1.361806e-02  0 
 0  0  0 
 2.326704e-02  -2.224752e-02  0 
 2.284346e-02  -3.959887e-02  0 
 2.997405e-02  -5.803158e-02  0 
 4.380485e-02  -3.774510e-02  0 
 3.740235e-02  -5.519283e-02  0 
 7.156751e-02  -5.066242e-02  0 
 8.134534e-02  -6.561739e-02  0 
 4.515235e-02  -7.406348e-02  0 
 3.540112e-02  -9.187853e-02  0 
 6.816360e-02  -8.583976e-02  0 
 7.033888e-02  -1.014764e-01  0 
 1.063258e-01  -8.852316e-02  0 
 9.163833e-02  -1.062887e-01  0 
 5.680877e-02  -1.200061e-01  0 
 5.301088e-02  -1.389334e-01  0 
 9.032794e-02  -1.210783e-01  0 
 7.626360e-02  -1.402746e-01  0 
 1.257587e-01  -1.304821e-01  0 
 1.197376e-01  -1.470934e-01  0 
 7.109058e-02  -1.587983e-01  0 
 1.024720e-01  -1.674954e-01  0 
 1.421912e-01  -1.688016e-01  0 
 1.198743e-02  -1.054222e-02  0 
 1.328155e-02  -1.118109e-02  0 
 3.265403e-02  -3.823282e-02  0 
 5.333625e-02  -4.094101e-02  0 
 3.266510e-02  -7.367300e-02  0 
 5.453616e-02  -7.917056e-02  0 
 8.743368e-02  -8.783416e-02  0 
 4.466047e-02  -1.160764e-01  0 
 7.375048e-02  -1.203786e-01  0 
 1.063718e-01  -1.252827e-01  0 
 5.476684e-02  -1.579714e-01  0 
 8.541186e-02  -1.632312e-01  0 
 1.225288e-01  -1.684514e-01  0 
VECTORS displacement_ITER13 FLOAT
 0  0  0 
 1.751515e-02  -2.306688e-02  0 
 0  0  0 
 2.591889e-02  -2.271740e-02  0 
 0  0  0 
 3.430088e-02  -2.677948e-02  0 
 3.342034e-02  -5.606743e-02  0 
 5.655974e-02  -5.982914e-02  0 
 1.005547e-01  -6.956184e-02  0 
 5.171722e-02  -9.610716e-02  0 
 8.018026e-02  -1.041128e-01  0 
 1.106638e-01  -1.084547e-01  0 
 6.402258e-02  -1.395490e-01  0 
 9.690577e-02  -1.434983e-01  0 
 1.393651e-01  -1.491923e-01  0 
 1.120768e-02  -1.026512e-02  0 
 8.520005e-03  -9.912397e-03  0 
 0  0  0 
 2.807842e-02  -2.494223e-02  0 
 2.119418e-02  -1.359921e-02  0 
 0  0  0 
 2.325401e-02  -2.220762e-02  0 
 2.287964e-02  -3.951775e-02  0 
 2.994791e-02  -5.791761e-02  0 
 4.379700e-02  -3.766538e-02  0 
 3.740725e-02  -5.508989e-02  0 
 7.152802e-02  -5.059039e-02  0 
 8.132524e-02  -6.552070e-02  0 
 4.512752e-02  -7.395560e-02  0 
 3.534154e-02  -9.177250e-02  0 
 6.814756e-02  -8.573465e-02  0 
 7.030615e-02  -1.013722e-01  0 
 1.063015e-01  -8.842056e-02  0 
 9.161869e-02  -1.061840e-01  0 
 5.675888e-02  -1.199113e-01  0 
 5.290702e-02  -1.388512e-01  0 
 9.030272e-02  -1.209852e-01  0 
 7.622621e-02  -1.401944e-01  0 
 1.257446e-01  -1.303867e-01  0 
 1.197111e-01  -1.470122e-01  0 
 7.102533e-02  -1.587469e-01  0 
 1.024459e-01  -1.674150e-01  0 
 1.421731e-01  -1.687313e-01  0 
 1.199619e-02  -1.052228e-02  0 
 1.327296e-02  -1.116419e-02  0 
 3.266480e-02  -3.814859e-02  0 
 5.331825e-02  -4.086747e-02  0 
 3.264543e-02  -7.357346e-02  0 
 5.452212e-02  -7.906154e-02  0 
 8.741391e-02  -8.773005e-02  0 
 4.459238e-02  -1.159846e-01  0 
 7.371484e-02  -1.202848e-01  0 
 1.063502e-01  -1.251881e-01  0 
 5.466250e-02  -1.579462e-01  0 
 8.536463e-02  -1.631732e-01  0 
 1.224983e-01  -1.683797e-01  0 
VECTORS displacement_ITER14 FLOAT
 0  0  0 
 1.753395e-02  -2.304157e-02  0 
 0  0  0 
 2.592228e-02  -2.270037e-02  0 
 0  0  0 
 3.429662e-02  -2.676821e-02  0 
 3.341447e-02  -5.602948e-02  0 
 5.656800e-02  -5.980711e-02  0 
 1.005792e-01  -6.954649e-02  0 
 5.170230e-02  -9.610899e-02  0 
 8.019343e-02  -1.041157e-01  0 
 1.106946e-01  -1.084575e-01  0 
 6.401133e-02  -1.395881e-01  0 
 9.692285e-02  -1.435291e-01  0 
 1.393889e-01  -1.492181e-01  0 
 1.122593e-02  -1.025948e-02  0 
 8.523396e-03  -9.906043e-03  0 
 0  0  0 
 2.808669e-02  -2.492206e-02  0 
 2.118945e-02  -1.359351e-02  0 
 0  0  0 
 2.325407e-02  -2.219474e-02  0 
 2.289109e-02  -3.949339e-02  0 
 2.991207e-02  -5.787609e-02  0 
 4.380182e-02  -3.763989e-02  0 
 3.741076e-02  -5.506240e-02  0 
 7.153576e-02  -5.057459e-02  0 
 8.134274e-02  -6.550283e-02  0 
 4.511223e-02  -7.393597e-02  0 
 3.529261e-02  -9.177315e-02  0 
 6.815795e-02  -8.572503e-02  0 
 7.030763e-02  -1.013747e-01  0 
 1.063301e-01  -8.841299e-02  0 
 9.163961e-02  -1.061864e-01  0 
 5.674420e-02  -1.199303e-01  0 
 5.286891e-02  -1.388868e-01  0 
 9.031833e-02  -1.210033e-01  0 
 7.623038e-02  -1.402284e-01  0 
 1.257753e-01  -1.304028e-01  0 
 1.197306e-01  -1.470400e-01  0 
 7.101252e-02  -1.588157e-01  0 
 1.024671e-01  -1.674431e-01  0 
 1.421953e-01  -1.687622e-01  0 
 1.200090e-02  -1.051521e-02  0 
 1.327215e-02  -1.115843e-02  0 
 3.267024e-02  -3.812020e-02  0 
 5.332623e-02  -4.084693e-02  0 
 3.261472e-02  -7.355659e-02  0 
 5.452451e-02  -7.904603e-02  0 
 8.743389e-02  -8.772174e-02  0 
 4.456181e-02  -1.160051e-01  0 
 7.371752e-02  -1.203033e-01  0 
 1.063718e-01  -1.252055e-01  0 
 5.462341e-02  -1.580256e-01  0 
 8.536870e-02  -1.632269e-01  0 
 1.225155e-01  -1.684106e-01  0 
VECTORS displacement_ITER15 FLOAT
 0  0  0 
 1.753261e-02  -2.307146e-02  0 
 0  0  0 
 2.592228e-02  -2.272442e-02  0 
 0  0  0 
 3.430722e-02  -2.678574e-02  0 
 3.341948e-02  -5.607468e-02  0 
 5.656640e-02  -5.984280e-02  0 
 1.005694e-01  -6.957915e-02  0 
 5.171660e-02  -9.614030e-02  0 
 8.018688e-02  -1.041429e-01  0 
 1.106752e-01  -1.084806e-01  0 
 6.403909e-02  -1.395832e-01  0 
 9.691351e-02  -1.435253e-01  0 
 1.393307e-01  -1.492095e-01  0 
 1.121806e-02  -1.027962e-02  0 
 8.521174e-03  -9.915813e-03  0 
 0  0  0 
 2.808685e-02  -2.495223e-02  0 
 2.119841e-02  -1.360240e-02  0 
 0  0  0 
 2.325766e-02  -2.221342e-02  0 
 2.289098e-02  -3.953310e-02  0 
 2.992754e-02  -5.792725e-02  0 
 4.380293e-02  -3.767370e-02  0 
 3.741147e-02  -5.510068e-02  0 
 7.153974e-02  -5.060195e-02  0 
 8.133561e-02  -6.553721e-02  0 
 4.511963e-02  -7.397409e-02  0 
 3.530332e-02  -9.180706e-02  0 
 6.815357e-02  -8.575700e-02  0 
 7.031217e-02  -1.014037e-01  0 
 1.063158e-01  -8.844262e-02  0 
 9.162730e-02  -1.062117e-01  0 
 5.676494e-02  -1.199463e-01  0 
 5.292276e-02  -1.388761e-01  0 
 9.030930e-02  -1.210181e-01  0 
 7.623741e-02  -1.402250e-01  0 
 1.257364e-01  -1.304127e-01  0 
 1.196966e-01  -1.470338e-01  0 
 7.104407e-02  -1.587846e-01  0 
 1.024609e-01  -1.674089e-01  0 
 1.421327e-01  -1.687289e-01  0 
 1.200081e-02  -1.052929e-02  0 
 1.327527e-02  -1.116713e-02  0 
 3.267112e-02  -3.815602e-02  0 
 5.332538e-02  -4.087754e-02  0 
 3.263105e-02  -7.359572e-02  0 
 5.452649e-02  -7.908238e-02  0 
 8.742451e-02  -8.775239e-02  0 
 4.460267e-02  -1.160225e-01  0 
 7.372311e-02  -1.203188e-01  0 
 1.063485e-01  -1.252200e-01  0 
 5.468275e-02  -1.579937e-01  0 
 8.537871e-02  -1.632026e-01  0 
 1.224782e-01  -1.683779e-01  0 
VECTORS displacement_ITER16 FLOAT
 0  0  0 
 1.754641e-02  -2.305787e-02  0 
 0  0  0 
 2.592535e-02  -2.271453e-02  0 
 0  0  0 
 3.430307e-02  -2.677821e-02  0 
 3.342502e-02  -5.605388e-02  0 
 5.657167e-02  -5.982354e-02  0 
 1.005752e-01  -6.956127e-02  0 
 5.171409e-02  -9.612379e-02  0 
 8.019303e-02  -1.041250e-01  0 
 1.106865e-01  -1.084649e-01  0 
 6.403039e-02  -1.395752e-01  0 
 9.692243e-02  -1.435222e-01  0 
 1.393654e-01  -1.492090e-01  0 
 1.122691e-02  -1.027401e-02  0 
 8.523506e-03  -9.912285e-03  0 
 0  0  0 
 2.809395e-02  -2.494043e-02  0 
 2.119505e-02  -1.359904e-02  0 
 0  0  0 
 2.325733e-02  -2.220542e-02  0 
 2.290139e-02  -3.951654e-02  0 
 2.992486e-02  -5.790458e-02  0 
 4.380679e-02  -3.765740e-02  0 
 3.741769e-02  -5.508104e-02  0 
 7.153849e-02  -5.058859e-02  0 
 8.134163e-02  -6.551846e-02  0 
 4.511983e-02  -7.395507e-02  0 
 3.529472e-02  -9.179242e-02  0 
 6.815949e-02  -8.573798e-02  0 
 7.031295e-02  -1.013858e-01  0 
 1.063241e-01  -8.842475e-02  0 
 9.163598e-02  -1.061948e-01  0 
 5.675853e-02  -1.199332e-01  0 
 5.289957e-02  -1.388635e-01  0 
 9.031643e-02  -1.210055e-01  0 
 7.623715e-02  -1.402195e-01  0 
 1.257592e-01  -1.304031e-01  0 