# vtk DataFile Version 3.1
this is an vtk file created by FEMAC
ASCII
DATASET UNSTRUCTURED_GRID
POINTS 55 FLOAT
3.000000 0.000000 0.000000
4.000000 0.000000 0.000000
2.000000 3.000000 0.000000
2.000000 4.000000 0.000000
3.000000 1.000000 0.000000
3.000000 2.000000 0.000000
3.000000 3.000000 0.000000
3.000000 4.000000 0.000000
4.000000 1.000000 0.000000
4.000000 2.000000 0.000000
4.000000 3.000000 0.000000
4.000000 4.000000 0.000000
2.500000 0.000000 0.000000
3.500000 0.000000 0.000000
4.500000 0.000000 0.000000
2.000000 2.500000 0.000000
2.000000 3.500000 0.000000
2.000000 4.500000 0.000000
2.500000 1.000000 0.000000
3.000000 0.500000 0.000000
2.500000 2.000000 0.000000
3.000000 1.500000 0.000000
2.500000 3.000000 0.000000
3.000000 2.500000 0.000000
2.500000 4.000000 0.000000
3.000000 3.500000 0.000000
3.000000 4.500000 0.000000
3.500000 1.000000 0.000000
4.000000 0.500000 0.000000
3.500000 2.000000 0.000000
4.000000 1.500000 0.000000
3.500000 3.000000 0.000000
4.000000 2.500000 0.000000
3.500000 4.000000 0.000000
4.000000 3.500000 0.000000
4.000000 4.500000 0.000000
4.500000 1.000000 0.000000
4.500000 2.000000 0.000000
4.500000 3.000000 0.000000
4.500000 4.000000 0.000000
2.500000 0.500000 0.000000
2.500000 1.500000 0.000000
2.500000 2.500000 0.000000
2.500000 3.500000 0.000000
2.500000 4.500000 0.000000
3.500000 0.500000 0.000000
3.500000 1.500000 0.000000
3.500000 2.500000 0.000000
3.500000 3.500000 0.000000
3.500000 4.500000 0.000000
4.500000 0.500000 0.000000
4.500000 1.500000 0.000000
4.500000 2.500000 0.000000
4.500000 3.500000 0.000000
4.500000 4.500000 0.000000
CELLS 40 200 
4 12  0 19 40
4 40 19  4 18
4 18  4 21 41
4 41 21  5 20
4 15 42 22  2
4 20  5 23 42
4 42 23  6 22
4 2 22 43 16
4 16 43 24  3
4 22  6 25 43
4 43 25  7 24
4 3 24 44 17
4 24  7 26 44
4 0 13 45 19
4 19 45 27  4
4 13  1 28 45
4 45 28  8 27
4 4 27 46 21
4 21 46 29  5
4 27  8 30 46
4 46 30  9 29
4 5 29 47 23
4 23 47 31  6
4 29  9 32 47
4 47 32 10 31
4 6 31 48 25
4 25 48 33  7
4 31 10 34 48
4 48 34 11 33
4 7 33 49 26
4 33 11 35 49
4 1 14 50 28
4 28 50 36  8
4 8 36 51 30
4 30 51 37  9
4 9 37 52 32
4 32 52 38 10
4 10 38 53 34
4 34 53 39 11
4 11 39 54 35
CELL_TYPES 40
9 9 9 9 9 9 9 9 9 9 9 9 9 9 9 9 9 9 9 9 9 9 9 9 9 9 9 9 9 9 9 9 9 9 9 9 9 9 9 9 
POINT_DATA 55
VECTORS displacement_ITER1 FLOAT
 -4.680575e-02  -4.330168e-02  0 
 -5.157014e-02  -6.071294e-02  0 
 -1.303072e-02  -3.622281e-02  0 
 -8.740258e-03  -3.644471e-02  0 
 -3.110187e-02  -4.295634e-02  0 
 -2.040057e-02  -4.397605e-02  0 
 -1.412810e-02  -4.501299e-02  0 
 -9.426472e-03  -4.560801e-02  0 
 -3.436379e-02  -5.904855e-02  0 
 -2.285691e-02  -5.674332e-02  0 
 -1.530223e-02  -5.500328e-02  0 
 -1.039990e-02  -5.474656e-02  0 
 -4.351352e-02  -3.381968e-02  0 
 -4.907513e-02  -5.196860e-02  0 
 -5.433490e-02  -7.139088e-02  0 
 -1.540325e-02  -3.524675e-02  0 
 -1.093698e-02  -3.666672e-02  0 
 -6.753828e-03  -3.599013e-02  0 
 -2.924189e-02  -3.494466e-02  0 
 -3.833068e-02  -4.280729e-02  0 
 -1.925524e-02  -3.810021e-02  0 
 -2.508172e-02  -4.343272e-02  0 
 -1.362831e-02  -4.030783e-02  0 
 -1.686829e-02  -4.452145e-02  0 
 -9.114432e-03  -4.077970e-02  0 
 -1.180145e-02  -4.539666e-02  0 
 -6.485077e-03  -4.559390e-02  0 
 -3.289339e-02  -5.094884e-02  0 
 -4.234400e-02  -5.998391e-02  0 
 -2.158673e-02  -5.030342e-02  0 
 -2.801160e-02  -5.794758e-02  0 
 -1.465253e-02  -5.001823e-02  0 
 -1.866105e-02  -5.572011e-02  0 
 -9.910537e-03  -5.048554e-02  0 
 -1.254902e-02  -5.463950e-02  0 
 -8.780337e-03  -5.505993e-02  0 
 -3.575612e-02  -6.721437e-02  0 
 -2.444121e-02  -6.324363e-02  0 
 -1.616731e-02  -5.972021e-02  0 
 -1.078762e-02  -5.795231e-02  0 
 -3.601958e-02  -3.393115e-02  0 
 -2.363278e-02  -3.644405e-02  0 
 -1.614864e-02  -3.937120e-02  0 
 -1.139171e-02  -4.074518e-02  0 
 -6.421504e-03  -4.070804e-02  0 
 -4.057949e-02  -5.135884e-02  0 
 -2.657858e-02  -5.062246e-02  0 
 -1.770379e-02  -5.007642e-02  0 
 -1.216327e-02  -5.017284e-02  0 
 -7.277929e-03  -5.065129e-02  0 
 -4.379171e-02  -6.954839e-02  0 
 -2.927432e-02  -6.494091e-02  0 
 -1.978818e-02  -6.116612e-02  0 
 -1.317413e-02  -5.872969e-02  0 
 -1.099055e-02  -5.682809e-02  0 
VECTORS displacement_ITER2 FLOAT
 -3.989622e-02  -3.229625e-02  0 
 -4.463162e-02  -4.915166e-02  0 
 -7.513039e-03  -2.527453e-02  0 
 -3.603913e-03  -2.553041e-02  0 
 -2.472423e-02  -3.191657e-02  0 
 -1.456452e-02  -3.288748e-02  0 
 -8.704466e-03  -3.392218e-02  0 
 -4.348881e-03  -3.456650e-02  0 
 -2.803890e-02  -4.751235e-02  0 
 -1.705334e-02  -4.528975e-02  0 
 -9.911881e-03  -4.368178e-02  0 
 -5.280621e-03  -4.360541e-02  0 
 -3.660678e-02  -2.305866e-02  0 
 -4.216217e-02  -4.069703e-02  0 
 -4.735553e-02  -5.947966e-02  0 
 -9.795033e-03  -2.422271e-02  0 
 -5.606621e-03  -2.575000e-02  0 
 -1.852972e-03  -2.509756e-02  0 
 -2.281333e-02  -2.414094e-02  0 
 -3.168189e-02  -3.179149e-02  0 
 -1.336834e-02  -2.720013e-02  0 
 -1.898031e-02  -3.236851e-02  0 
 -8.159531e-03  -2.930332e-02  0 
 -1.125819e-02  -3.342741e-02  0 
 -4.019375e-03  -2.979438e-02  0 
 -6.550997e-03  -3.431957e-02  0 
 -1.562956e-03  -3.460820e-02  0 
 -2.655057e-02  -3.967000e-02  0 
 -3.572035e-02  -4.843111e-02  0 
 -1.577331e-02  -3.903889e-02  0 
 -2.195919e-02  -4.644359e-02  0 
 -9.253765e-03  -3.881669e-02  0 
 -1.308018e-02  -4.432813e-02  0 
 -4.822211e-03  -3.939293e-02  0 
 -7.313251e-03  -4.340036e-02  0 
 -3.749140e-03  -4.404675e-02  0 
 -2.943002e-02  -5.539798e-02  0 
 -1.862738e-02  -5.158123e-02  0 
 -1.076991e-02  -4.827160e-02  0 
 -5.622027e-03  -4.678373e-02  0 
 -2.932508e-02  -2.315413e-02  0 
 -1.747955e-02  -2.559714e-02  0 
 -1.051818e-02  -2.838654e-02  0 
 -6.104786e-03  -2.974424e-02  0 
 -1.519713e-03  -2.974696e-02  0 
 -3.395009e-02  -4.008635e-02  0 
 -2.051171e-02  -3.934316e-02  0 
 -1.211291e-02  -3.883951e-02  0 
 -6.929760e-03  -3.901536e-02  0 
 -2.331431e-03  -3.965797e-02  0 
 -3.716345e-02  -5.767510e-02  0 
 -2.321963e-02  -5.319832e-02  0 
 -1.420556e-02  -4.960631e-02  0 
 -7.919061e-03  -4.740941e-02  0 
 -5.827808e-03  -4.585056e-02  0 
VECTORS displacement_ITER3 FLOAT
 -3.022550e-02  -3.259867e-02  0 
 -3.527279e-02  -4.414811e-02  0 
 -4.043468e-03  -1.821384e-02  0 
 7.130642e-04  -1.780924e-02  0 
 -2.034441e-02  -3.129236e-02  0 
 -1.307598e-02  -3.019354e-02  0 
 -6.719985e-03  -2.932898e-02  0 
 -8.515127e-04  -2.869520e-02  0 
 -2.410905e-02  -4.284621e-02  0 
 -1.607825e-02  -4.148704e-02  0 
 -8.939993e-03  -4.049225e-02  0 
 -2.005433e-03  -4.057873e-02  0 
 -2.672226e-02  -2.677876e-02  0 
 -3.287119e-02  -3.829043e-02  0 
 -3.759534e-02  -5.118354e-02  0 
 -7.802548e-03  -1.701535e-02  0 
 -1.580671e-03  -1.842175e-02  0 
 2.449843e-03  -1.716295e-02  0 
 -1.788776e-02  -2.580772e-02  0 
 -2.489201e-02  -3.182667e-02  0 
 -1.120946e-02  -2.504801e-02  0 
 -1.641643e-02  -3.077850e-02  0 
 -5.357483e-03  -2.367356e-02  0 
 -9.876011e-03  -2.975813e-02  0 
 -1.658431e-04  -2.294607e-02  0 
 -3.783757e-03  -2.896654e-02  0 
 2.531201e-03  -2.846213e-02  0 
 -2.245537e-02  -3.700046e-02  0 
 -2.924128e-02  -4.352114e-02  0 
 -1.460785e-02  -3.583603e-02  0 
 -1.988881e-02  -4.217669e-02  0 
 -7.897297e-03  -3.494488e-02  0 
 -1.244857e-02  -4.090115e-02  0 
 -1.516483e-03  -3.473146e-02  0 
 -5.440151e-03  -4.033795e-02  0 
 1.302275e-03  -4.108775e-02  0 
 -2.548312e-02  -4.856293e-02  0 
 -1.760583e-02  -4.713640e-02  0 
 -9.945886e-03  -4.591363e-02  0 
 -2.148202e-03  -4.606164e-02  0 
 -2.213725e-02  -2.618453e-02  0 
 -1.426897e-02  -2.548889e-02  0 
 -8.562930e-03  -2.391422e-02  0 
 -2.687915e-03  -2.338357e-02  0 
 2.547707e-03  -2.257197e-02  0 
 -2.734797e-02  -3.759545e-02  0 
 -1.829314e-02  -3.640960e-02  0 
 -1.117918e-02  -3.533970e-02  0 
 -4.711201e-03  -3.471670e-02  0 
 2.022388e-03  -3.483519e-02  0 
 -3.068409e-02  -4.990554e-02  0 
 -2.111936e-02  -4.757516e-02  0 
 -1.370031e-02  -4.633347e-02  0 
 -6.105798e-03  -4.584156e-02  0 
 4.415931e-04  -4.611690e-02  0 
VECTORS displacement_ITER4 FLOAT
 -3.029821e-02  -3.091528e-02  0 
 -3.484089e-02  -4.061049e-02  0 
 -4.752094e-03  -1.501981e-02  0 
 -6.801340e-04  -1.456975e-02  0 
 -2.181140e-02  -2.924837e-02  0 
 -1.438768e-02  -2.740449e-02  0 
 -7.688048e-03  -2.587681e-02  0 
 -2.037967e-03  -2.486427e-02  0 
 -2.553189e-02  -3.951339e-02  0 
 -1.756995e-02  -3.837270e-02  0 
 -1.015944e-02  -3.725613e-02  0 
 -3.111149e-03  -3.677578e-02  0 
 -2.726773e-02  -2.645838e-02  0 
 -3.277979e-02  -3.568274e-02  0 
 -3.666235e-02  -4.596877e-02  0 
 -7.566089e-03  -1.451061e-02  0 
 -2.556723e-03  -1.507448e-02  0 
 5.224419e-04  -1.411684e-02  0 
 -1.931601e-02  -2.428630e-02  0 
 -2.588874e-02  -3.009818e-02  0 
 -1.237471e-02  -2.202138e-02  0 
 -1.797478e-02  -2.831922e-02  0 
 -6.157080e-03  -2.029304e-02  0 
 -1.092509e-02  -2.660687e-02  0 
 -1.453998e-03  -1.939898e-02  0 
 -4.807479e-03  -2.531170e-02  0 
 9.491077e-04  -2.456281e-02  0 
 -2.386215e-02  -3.433521e-02  0 
 -2.995618e-02  -4.007369e-02  0 
 -1.609184e-02  -3.288908e-02  0 
 -2.148299e-02  -3.896543e-02  0 
 -9.045756e-03  -3.156701e-02  0 
 -1.377675e-02  -3.778856e-02  0 
 -2.614596e-03  -3.077720e-02  0 
 -6.627051e-03  -3.687018e-02  0 
 4.837103e-04  -3.692278e-02  0 
 -2.691695e-02  -4.462637e-02  0 
 -1.887106e-02  -4.398451e-02  0 
 -1.112308e-02  -4.285842e-02  0 
 -3.365316e-03  -4.264158e-02  0 
 -2.328364e-02  -2.546557e-02  0 
 -1.568295e-02  -2.313295e-02  0 
 -9.094577e-03  -2.076937e-02  0 
 -3.688315e-03  -1.988130e-02  0 
 7.174847e-04  -1.904202e-02  0 
 -2.813126e-02  -3.500898e-02  0 
 -1.988381e-02  -3.361781e-02  0 
 -1.247207e-02  -3.219600e-02  0 
 -5.805189e-03  -3.106910e-02  0 
 8.481149e-04  -3.061241e-02  0 
 -3.137721e-02  -4.523719e-02  0 
 -2.270059e-02  -4.417859e-02  0 
 -1.489805e-02  -4.336829e-02  0 
 -7.348307e-03  -4.258552e-02  0 
 -3.069517e-05  -4.271406e-02  0 
VECTORS displacement_ITER5 FLOAT
 -3.230232e-02  -2.950105e-02  0 
 -3.653977e-02  -4.094810e-02  0 
 -4.500669e-03  -1.654644e-02  0 
 -1.696730e-03  -1.657005e-02  0 
 -2.175057e-02  -2.797572e-02  0 
 -1.310118e-02  -2.676745e-02  0 
 -6.858698e-03  -2.597342e-02  0 
 -2.392616e-03  -2.562484e-02  0 
 -2.566861e-02  -3.971201e-02  0 
 -1.639917e-02  -3.821953e-02  0 
 -8.999478e-03  -3.685229e-02  0 
 -2.988146e-03  -3.624440e-02  0 
 -2.957090e-02  -2.378658e-02  0 
 -3.458656e-02  -3.521746e-02  0 
 -3.823564e-02  -4.684873e-02  0 
 -5.803075e-03  -1.656108e-02  0 
 -2.980322e-03  -1.668080e-02  0 
 -9.272743e-04  -1.649530e-02  0 
 -1.924629e-02  -2.204202e-02  0 
 -2.680539e-02  -2.873678e-02  0 
 -1.121015e-02  -2.100409e-02  0 
 -1.717130e-02  -2.728729e-02  0 
 -5.652794e-03  -2.097476e-02  0 
 -9.654371e-03  -2.631930e-02  0 
 -2.121909e-03  -2.082809e-02  0 
 -4.540458e-03  -2.577380e-02  0 
 -2.052186e-04  -2.559407e-02  0 
 -2.387108e-02  -3.384713e-02  0 
 -3.091892e-02  -4.037898e-02  0 
 -1.487558e-02  -3.246324e-02  0 
 -2.082822e-02  -3.899172e-02  0 
 -8.009363e-03  -3.135523e-02  0 
 -1.245033e-02  -3.748033e-02  0 
 -2.682150e-03  -3.084829e-02  0 
 -5.905214e-03  -3.641202e-02  0 
 -3.837086e-05  -3.631299e-02  0 
 -2.720640e-02  -4.561104e-02  0 
 -1.773527e-02  -4.412789e-02  0 
 -9.871006e-03  -4.227781e-02  0 
 -3.201248e-03  -4.157016e-02  0 
 -2.418526e-02  -2.290629e-02  0 
 -1.491949e-02  -2.138989e-02  0 
 -7.812929e-03  -2.094922e-02  0 
 -3.785171e-03  -2.094525e-02  0 
 -5.979030e-04  -2.079402e-02  0 
 -2.903877e-02  -3.455122e-02  0 
 -1.912743e-02  -3.314188e-02  0 
 -1.117867e-02  -3.185265e-02  0 
 -5.252145e-03  -3.101646e-02  0 
 9.064912e-06  -3.079057e-02  0 
 -3.246208e-02  -4.624202e-02  0 
 -2.221425e-02  -4.487378e-02  0 
 -1.354582e-02  -4.312131e-02  0 
 -6.526108e-03  -4.172836e-02  0 
 -2.394459e-04  -4.161741e-02  0 
VECTORS displacement_ITER6 FLOAT
 -3.018956e-02  -3.042230e-02  0 
 -3.447745e-02  -4.022704e-02  0 
 -5.654888e-03  -1.576822e-02  0 
 -2.005885e-03  -1.539707e-02  0 
 -2.138464e-02  -2.871106e-02  0 
 -1.417663e-02  -2.710793e-02  0 
 -8.048464e-03  -2.605297e-02  0 
 -2.675852e-03  -2.559021e-02  0 
 -2.540580e-02  -3.909919e-02  0 
 -1.734351e-02  -3.801157e-02  0 
 -1.006772e-02  -3.723074e-02  0 
 -3.252669e-03  -3.693479e-02  0 
 -2.731036e-02  -2.559252e-02  0 
 -3.257098e-02  -3.532255e-02  0 
 -3.600328e-02  -4.509985e-02  0 
 -7.692948e-03  -1.581126e-02  0 
 -3.799929e-03  -1.565950e-02  0 
 -3.292040e-04  -1.521447e-02  0 
 -1.875702e-02  -2.358026e-02  0 
 -2.556197e-02  -2.959229e-02  0 
 -1.222041e-02  -2.179821e-02  0 
 -1.760965e-02  -2.785274e-02  0 
 -6.848575e-03  -2.072826e-02  0 
 -1.099397e-02  -2.651503e-02  0 
 -2.386576e-03  -2.032517e-02  0 
 -5.323083e-03  -2.575762e-02  0 
 -1.435544e-05  -2.555958e-02  0 
 -2.358197e-02  -3.390187e-02  0 
 -2.978149e-02  -3.968884e-02  0 
 -1.588618e-02  -3.253452e-02  0 
 -2.127893e-02  -3.853567e-02  0 
 -9.140823e-03  -3.158999e-02  0 
 -1.360711e-02  -3.756972e-02  0 
 -2.973287e-03  -3.116010e-02  0 
 -6.646995e-03  -3.700836e-02  0 
 2.136119e-04  -3.701696e-02  0 
 -2.690367e-02  -4.425179e-02  0 
 -1.856849e-02  -4.356687e-02  0 
 -1.083036e-02  -4.289058e-02  0 
 -3.450775e-03  -4.281052e-02  0 
 -2.278212e-02  -2.461760e-02  0 
 -1.526836e-02  -2.262016e-02  0 
 -9.354001e-03  -2.106868e-02  0 
 -4.575382e-03  -2.049589e-02  0 
 -2.011805e-04  -2.026641e-02  0 
 -2.788001e-02  -3.463766e-02  0 
 -1.960192e-02  -3.317846e-02  0 
 -1.241010e-02  -3.200280e-02  0 
 -6.024977e-03  -3.130564e-02  0 
 1.472410e-04  -3.112527e-02  0 
 -3.129724e-02  -4.464248e-02  0 
 -2.261803e-02  -4.387172e-02  0 
 -1.459043e-02  -4.316666e-02  0 
 -7.185079e-03  -4.275928e-02  0 
 2.244398e-04  -4.295345e-02  0 
VECTORS displacement_ITER7 FLOAT
 -3.086313e-02  -3.016398e-02  0 
 -3.522706e-02  -4.061187e-02  0 
 -5.282305e-03  -1.592211e-02  0 
 -1.758386e-03  -1.563895e-02  0 
 -2.139885e-02  -2.849754e-02  0 
 -1.376544e-02  -2.703604e-02  0 
 -7.654279e-03  -2.610313e-02  0 
 -2.477901e-03  -2.570576e-02  0 
 -2.544911e-02  -3.939501e-02  0 
 -1.695897e-02  -3.814237e-02  0 
 -9.647633e-03  -3.717475e-02  0 
 -3.135066e-03  -3.668586e-02  0 
 -2.801363e-02  -2.497715e-02  0 
 -3.325293e-02  -3.537657e-02  0 
 -3.683327e-02  -4.585769e-02  0 
 -7.214750e-03  -1.610050e-02  0 
 -3.476912e-03  -1.580584e-02  0 
 -6.209807e-05  -1.551406e-02  0 
 -1.878483e-02  -2.308558e-02  0 
 -2.589712e-02  -2.934442e-02  0 
 -1.181942e-02  -2.162794e-02  0 
 -1.736578e-02  -2.770441e-02  0 
 -6.490280e-03  -2.084510e-02  0 
 -1.054713e-02  -2.650307e-02  0 
 -2.140938e-03  -2.052279e-02  0 
 -5.006235e-03  -2.584771e-02  0 
 1.385925e-05  -2.566820e-02  0 
 -2.360531e-02  -3.393828e-02  0 
 -3.016871e-02  -4.003648e-02  0 
 -1.548862e-02  -3.255590e-02  0 
 -2.105018e-02  -3.875236e-02  0 
 -8.717769e-03  -3.158215e-02  0 
 -1.316786e-02  -3.760615e-02  0 
 -2.816354e-03  -3.112214e-02  0 
 -6.328973e-03  -3.686135e-02  0 
 1.823099e-05  -3.665795e-02  0 
 -2.697748e-02  -4.486386e-02  0 
 -1.819605e-02  -4.377903e-02  0 
 -1.044038e-02  -4.279864e-02  0 
 -3.405628e-03  -4.230849e-02  0 
 -2.311426e-02  -2.402823e-02  0 
 -1.503784e-02  -2.226915e-02  0 
 -8.932974e-03  -2.114367e-02  0 
 -4.263508e-03  -2.064795e-02  0 
 -2.478149e-05  -2.048232e-02  0 
 -2.822993e-02  -3.468174e-02  0 
 -1.936345e-02  -3.321091e-02  0 
 -1.195712e-02  -3.200766e-02  0 
 -5.699769e-03  -3.128785e-02  0 
 3.821618e-05  -3.105680e-02  0 
 -3.175069e-02  -4.537590e-02  0 
 -2.242692e-02  -4.430963e-02  0 
 -1.418704e-02  -4.323882e-02  0 
 -6.895176e-03  -4.248080e-02  0 
 -3.508964e-05  -4.225313e-02  0 
VECTORS displacement_ITER8 FLOAT
 -3.075822e-02  -3.022836e-02  0 
 -3.514790e-02  -4.058989e-02  0 
 -5.273158e-03  -1.575703e-02  0 
 -1.685150e-03  -1.548670e-02  0 
 -2.141377e-02  -2.855075e-02  0 
 -1.383633e-02  -2.703920e-02  0 
 -7.698183e-03  -2.605114e-02  0 
 -2.462092e-03  -2.560914e-02  0 
 -2.544259e-02  -3.937072e-02  0 
 -1.703084e-02  -3.810707e-02  0 
 -9.711631e-03  -3.712005e-02  0 
 -3.153915e-03  -3.659550e-02  0 
 -2.788976e-02  -2.513077e-02  0 
 -3.316482e-02  -3.538737e-02  0 
 -3.674820e-02  -4.581388e-02  0 
 -7.316867e-03  -1.596060e-02  0 
 -3.424433e-03  -1.562314e-02  0 
 3.844611e-05  -1.539147e-02  0 
 -1.881089e-02  -2.319774e-02  0 
 -2.585872e-02  -2.940480e-02  0 
 -1.187608e-02  -2.165257e-02  0 
 -1.741602e-02  -2.774007e-02  0 
 -6.515269e-03  -2.076111e-02  0 
 -1.061717e-02  -2.647629e-02  0 
 -2.087698e-03  -2.040259e-02  0 
 -5.012458e-03  -2.576912e-02  0 
 3.167777e-05  -2.555483e-02  0 
 -2.360922e-02  -3.394714e-02  0 
 -3.012029e-02  -4.001257e-02  0 
 -1.555803e-02  -3.254300e-02  0 
 -2.108752e-02  -3.872281e-02  0 
 -8.771475e-03  -3.153115e-02  0 
 -1.324995e-02  -3.756257e-02  0 
 -2.824565e-03  -3.103297e-02  0 
 -6.365406e-03  -3.679270e-02  0 
 -8.091252e-06  -3.654085e-02  0 
 -2.695925e-02  -4.480487e-02  0 
 -1.827252e-02  -4.370198e-02  0 
 -1.051386e-02  -4.275707e-02  0 
 -3.434134e-03  -4.222131e-02  0 
 -2.307984e-02  -2.416488e-02  0 
 -1.509003e-02  -2.234293e-02  0 
 -9.017820e-03  -2.111070e-02  0 
 -4.239880e-03  -2.053578e-02  0 
 3.952009e-05  -2.035362e-02  0 
 -2.818739e-02  -3.469135e-02  0 
 -1.940771e-02  -3.321257e-02  0 
 -1.202872e-02  -3.197606e-02  0 
 -5.726423e-03  -3.121729e-02  0 
 1.823820e-05  -3.095741e-02  0 
 -3.169653e-02  -4.533402e-02  0 
 -2.246971e-02  -4.424232e-02  0 
 -1.428202e-02  -4.318595e-02  0 
 -6.930728e-03  -4.242624e-02  0 
 -4.714627e-05  -4.213672e-02  0 
VECTORS displacement_ITER9 FLOAT
 -3.079330e-02  -3.019941e-02  0 
 -3.519051e-02  -4.059968e-02  0 
 -5.245140e-03  -1.574934e-02  0 
 -1.655639e-03  -1.552654e-02  0 
 -2.142535e-02  -2.853144e-02  0 
 -1.382576e-02  -2.703775e-02  0 
 -7.679057e-03  -2.606663e-02  0 
 -2.445153e-03  -2.563303e-02  0 
 -2.544072e-02  -3.937950e-02  0 
 -1.701517e-02  -3.811633e-02  0 
 -9.694016e-03  -3.713268e-02  0 
 -3.142188e-03  -3.660406e-02  0 
 -2.791309e-02  -2.508937e-02  0 
 -3.320319e-02  -3.537586e-02  0 
 -3.679624e-02  -4.585134e-02  0 
 -7.308340e-03  -1.596785e-02  0 
 -3.389164e-03  -1.562074e-02  0 
 4.390254e-05  -1.547563e-02  0 
 -1.883404e-02  -2.316661e-02  0 
 -2.588076e-02  -2.937753e-02  0 
 -1.186403e-02  -2.163935e-02  0 
 -1.741587e-02  -2.773122e-02  0 
 -6.496518e-03  -2.077242e-02  0 
 -1.060151e-02  -2.648221e-02  0 
 -2.060667e-03  -2.043410e-02  0 
 -4.989001e-03  -2.578917e-02  0 
 2.902534e-05  -2.558360e-02  0 
 -2.361313e-02  -3.394121e-02  0 
 -3.013803e-02  -4.002078e-02  0 
 -1.554477e-02  -3.254887e-02  0 
 -2.107482e-02  -3.873074e-02  0 
 -8.751819e-03  -3.154478e-02  0 
 -1.323361e-02  -3.757433e-02  0 
 -2.810893e-03  -3.104815e-02  0 
 -6.348716e-03  -3.680537e-02  0 
 -6.696250e-06  -3.653975e-02  0 
 -2.695181e-02  -4.482848e-02  0 
 -1.825102e-02  -4.370567e-02  0 
 -1.049910e-02  -4.277272e-02  0 
 -3.429354e-03  -4.222823e-02  0 
 -2.310558e-02  -2.412422e-02  0 
 -1.509827e-02  -2.231997e-02  0 
 -9.013810e-03  -2.111785e-02  0 
 -4.209945e-03  -2.055435e-02  0 
 4.144209e-05  -2.039698e-02  0 
 -2.820723e-02  -3.468087e-02  0 
 -1.940072e-02  -3.321308e-02  0 
 -1.201129e-02  -3.198605e-02  0 
 -5.707236e-03  -3.123270e-02  0 
 1.352830e-05  -3.097818e-02  0 
 -3.171395e-02  -4.537053e-02  0 
 -2.245901e-02  -4.425414e-02  0 
 -1.426702e-02  -4.319771e-02  0 
 -6.912146e-03  -4.244055e-02  0 
 -3.861482e-05  -4.213883e-02  0 
VECTORS displacement_ITER10 FLOAT
 -3.077599e-02  -3.019051e-02  0 
 -3.517190e-02  -4.056990e-02  0 
 -5.275223e-03  -1.576715e-02  0 
 -1.683800e-03  -1.555917e-02  0 
 -2.143381e-02  -2.852736e-02  0 
 -1.385071e-02  -2.704266e-02  0 
 -7.709703e-03  -2.607947e-02  0 
 -2.471794e-03  -2.564759e-02  0 
 -2.544005e-02  -3.935610e-02  0 
 -1.703702e-02  -3.810945e-02  0 
 -9.729211e-03  -3.714343e-02  0 
 -3.159597e-03  -3.662965e-02  0 
 -2.789016e-02  -2.509193e-02  0 
 -3.318545e-02  -3.535691e-02  0 
 -3.678095e-02  -4.580915e-02  0 
 -7.332973e-03  -1.599941e-02  0 
 -3.418037e-03  -1.563492e-02  0 
 4.999481e-06  -1.552895e-02  0 
 -1.884801e-02  -2.317283e-02  0 
 -2.587564e-02  -2.936960e-02  0 
 -1.188646e-02  -2.164397e-02  0 
 -1.743471e-02  -2.773240e-02  0 
 -6.528089e-03  -2.078810e-02  0 
 -1.063056e-02  -2.649056e-02  0 
 -2.086628e-03  -2.045654e-02  0 
 -5.016901e-03  -2.580367e-02  0 
 -1.956713e-06  -2.559910e-02  0 
 -2.361726e-02  -3.392803e-02  0 
 -3.012877e-02  -3.999189e-02  0 
 -1.556878e-02  -3.254952e-02  0 
 -2.108462e-02  -3.871450e-02  0 
 -8.784034e-03  -3.155554e-02  0 
 -1.326516e-02  -3.757683e-02  0 
 -2.833527e-03  -3.106203e-02  0 
 -6.379858e-03  -3.682451e-02  0 
 -1.804425e-06  -3.656791e-02  0 
 -2.694351e-02  -4.479227e-02  0 
 -1.826669e-02  -4.368402e-02  0 
 -1.053634e-02  -4.278436e-02  0 
 -3.442147e-03  -4.228108e-02  0 
 -2.310199e-02  -2.412679e-02  0 
 -1.512065e-02  -2.232591e-02  0 
 -9.047079e-03  -2.113019e-02  0 
 -4.237180e-03  -2.057283e-02  0 
 3.096551e-06  -2.042162e-02  0 
 -2.820034e-02  -3.466343e-02  0 
 -1.941550e-02  -3.320678e-02  0 
 -1.204133e-02  -3.199242e-02  0 
 -5.736934e-03  -3.124584e-02  0 
 -2.453803e-06  -3.099730e-02  0 
 -3.170255e-02  -4.533230e-02  0 
 -2.246534e-02  -4.422469e-02  0 
 -1.429974e-02  -4.319312e-02  0 
 -6.938606e-03  -4.247324e-02  0 
 -6.994725e-06  -4.221401e-02  0 
VECTORS displacement_ITER11 FLOAT
 -3.078766e-02  -3.017475e-02  0 
 -3.518340e-02  -4.056986e-02  0 
 -5.256781e-03  -1.577095e-02  0 
 -1.677968e-03  -1.556929e-02  0 
 -2.142961e-02  -2.851319e-02  0 
 -1.383052e-02  -2.703086e-02  0 
 -7.691950e-03  -2.606942e-02  0 
 -2.466635e-03  -2.563669e-02  0 
 -2.543479e-02  -3.935495e-02  0 
 -1.702235e-02  -3.810177e-02  0 
 -9.715021e-03  -3.712944e-02  0 
 -3.151012e-03  -3.661523e-02  0 
 -2.790265e-02  -2.506916e-02  0 
 -3.319648e-02  -3.534868e-02  0 
 -3.679332e-02  -4.581867e-02  0 
 -7.299753e-03  -1.601120e-02  0 
 -3.405691e-03  -1.563714e-02  0 
 -4.434759e-06  -1.554710e-02  0 
 -1.884575e-02  -2.315134e-02  0 
 -2.587966e-02  -2.935440e-02  0 
 -1.186234e-02  -2.162462e-02  0 
 -1.742194e-02  -2.771963e-02  0 
 -6.510316e-03  -2.078348e-02  0 
 -1.060877e-02  -2.647892e-02  0 
 -2.080547e-03  -2.045416e-02  0 
 -5.004612e-03  -2.579418e-02  0 
 -5.044146e-06  -2.558589e-02  0 
 -2.361209e-02  -3.392043e-02  0 
 -3.013123e-02  -3.999134e-02  0 
 -1.555170e-02  -3.254029e-02  0 
 -2.107350e-02  -3.871063e-02  0 
 -8.767965e-03  -3.154295e-02  0 
 -1.324954e-02  -3.756551e-02  0 
 -2.826899e-03  -3.104733e-02  0 
 -6.368713e-03  -3.680987e-02  0 
 5.756182e-06  -3.655214e-02  0 
 -2.693776e-02  -4.479727e-02  0 
 -1.825438e-02  -4.367702e-02  0 
 -1.052341e-02  -4.276835e-02  0 
 -3.431672e-03  -4.227017e-02  0 
 -2.310759e-02  -2.410402e-02  0 
 -1.510774e-02  -2.230483e-02  0 
 -9.022650e-03  -2.112180e-02  0 
 -4.224377e-03  -2.057018e-02  0 
 -4.646674e-06  -2.041728e-02  0 
 -2.820334e-02  -3.465549e-02  0 
 -1.940311e-02  -3.319896e-02  0 
 -1.202299e-02  -3.198124e-02  0 
 -5.725455e-03  -3.123226e-02  0 
 -3.516512e-07  -3.098333e-02  0 
 -3.170531e-02  -4.534130e-02  0 
 -2.245806e-02  -4.422548e-02  0 
 -1.428669e-02  -4.318061e-02  0 
 -6.924784e-03  -4.245846e-02  0 
 8.831770e-06  -4.220962e-02  0 
VECTORS displacement_ITER12 FLOAT
 -3.077400e-02  -3.018234e-02  0 
 -3.516905e-02  -4.056583e-02  0 
 -5.261863e-03  -1.576260e-02  0 
 -1.678541e-03  -1.555976e-02  0 
 -2.142770e-02  -2.851916e-02  0 
 -1.383506e-02  -2.703173e-02  0 
 -7.697311e-03  -2.606719e-02  0 
 -2.467735e-03  -2.563471e-02  0 
 -2.543312e-02  -3.935185e-02  0 
 -1.702799e-02  -3.809927e-02  0 
 -9.719665e-03  -3.712818e-02  0 
 -3.151623e-03  -3.661635e-02  0 
 -2.788898e-02  -2.508366e-02  0 
 -3.318296e-02  -3.535033e-02  0 
 -3.677699e-02  -4.580754e-02  0 
 -7.310293e-03  -1.600156e-02  0 
 -3.409732e-03  -1.562740e-02  0 
 -1.953557e-06  -1.553923e-02  0 
 -1.884349e-02  -2.316293e-02  0 
 -2.587226e-02  -2.936158e-02  0 
 -1.186406e-02  -2.162687e-02  0 
 -1.742395e-02  -2.772353e-02  0 
 -6.515768e-03  -2.077907e-02  0 
 -1.061452e-02  -2.647749e-02  0 
 -2.081176e-03  -2.044893e-02  0 
 -5.008059e-03  -2.579174e-02  0 
 -2.746499e-06  -2.558444e-02  0 
 -2.361031e-02  -3.392175e-02  0 
 -3.012325e-02  -3.998761e-02  0 
 -1.555692e-02  -3.253961e-02  0 
 -2.107661e-02  -3.870786e-02  0 
 -8.772941e-03  -3.154140e-02  0 
 -1.325555e-02  -3.756347e-02  0 
 -2.827912e-03  -3.104757e-02  0 
 -6.371157e-03  -3.680978e-02  0 
 4.883352e-06  -3.655299e-02  0 
 -2.693525e-02  -4.478855e-02  0 
 -1.826050e-02  -4.367256e-02  0 
 -1.052776e-02  -4.276770e-02  0 
 -3.432080e-03  -4.227148e-02  0 
 -2.310007e-02  -2.411796e-02  0 
 -1.510870e-02  -2.231201e-02  0 
 -9.029113e-03  -2.112011e-02  0 
 -4.227839e-03  -2.056489e-02  0 
 -2.344110e-06  -2.041237e-02  0 
 -2.819583e-02  -3.465716e-02  0 
 -1.940574e-02  -3.319940e-02  0 
 -1.202884e-02  -3.197977e-02  0 
 -5.728632e-03  -3.123134e-02  0 
 5.376543e-07  -3.098539e-02  0 
 -3.169677e-02  -4.533134e-02  0 
 -2.246222e-02  -4.421969e-02  0 
 -1.429287e-02  -4.317820e-02  0 
 -6.925644e-03  -4.245981e-02  0 
 7.468339e-06  -4.221013e-02  0 
VECTORS displacement_ITER13 FLOAT
 -3.078269e-02  -3.018223e-02  0 
 -3.517690e-02  -4.056984e-02  0 
 -5.262843e-03  -1.576403e-02  0 
 -1.678473e-03  -1.556056e-02  0 
 -2.143113e-02  -2.851924e-02  0 
 -1.383368e-02  -2.703204e-02  0 
 -7.696302e-03  -2.606875e-02  0 
 -2.467838e-03  -2.563859e-02  0 
 -2.543660e-02  -3.935573e-02  0 
 -1.702676e-02  -3.810187e-02  0 
 -9.716488e-03  -3.712906e-02  0 
 -3.151655e-03  -3.661721e-02  0 
 -2.789902e-02  -2.508049e-02  0 
 -3.319098e-02  -3.535233e-02  0 
 -3.678475e-02  -4.581293e-02  0 
 -7.311865e-03  -1.600199e-02  0 
 -3.411152e-03  -1.562853e-02  0 
 -4.110692e-07  -1.554019e-02  0 
 -1.884727e-02  -2.316113e-02  0 
 -2.587833e-02  -2.936160e-02  0 
 -1.186153e-02  -2.162553e-02  0 
 -1.742472e-02  -2.772381e-02  0 
 -6.516014e-03  -2.078072e-02  0 
 -1.061270e-02  -2.647792e-02  0 
 -2.081159e-03  -2.045161e-02  0 
 -5.007722e-03  -2.579449e-02  0 
 -1.833466e-06  -2.558883e-02  0 
 -2.361363e-02  -3.392371e-02  0 
 -3.012902e-02  -3.999148e-02  0 
 -1.555579e-02  -3.254091e-02  0 
 -2.107758e-02  -3.871122e-02  0 
 -8.770636e-03  -3.154272e-02  0 
 -1.325287e-02  -3.756516e-02  0 
 -2.827959e-03  -3.105120e-02  0 
 -6.368679e-03  -3.681040e-02  0 
 -7.322855e-07  -3.655310e-02  0 
 -2.693827e-02  -4.479433e-02  0 
 -1.825904e-02  -4.367683e-02  0 
 -1.052454e-02  -4.276778e-02  0 
 -3.432558e-03  -4.226719e-02  0 
 -2.310663e-02  -2.411560e-02  0 
 -1.510964e-02  -2.231018e-02  0 
 -9.028022e-03  -2.112149e-02  0 
 -4.228386e-03  -2.056714e-02  0 
 -8.876962e-07  -2.041528e-02  0 
 -2.820166e-02  -3.465923e-02  0 
 -1.940658e-02  -3.320111e-02  0 
 -1.202660e-02  -3.198081e-02  0 
 -5.727196e-03  -3.123362e-02  0 
 -1.274681e-06  -3.099047e-02  0 
 -3.170292e-02  -4.533729e-02  0 
 -2.246382e-02  -4.422593e-02  0 
 -1.429021e-02  -4.318075e-02  0 
 -6.922207e-03  -4.245821e-02  0 
 -1.487587e-06  -4.220237e-02  0 
VECTORS displacement_ITER14 FLOAT
 -3.078227e-02  -3.018146e-02  0 
 -3.517655e-02  -4.056943e-02  0 
 -5.263060e-03  -1.576366e-02  0 
 -1.677409e-03  -1.555889e-02  0 
 -2.143024e-02  -2.851835e-02  0 
 -1.383291e-02  -2.703129e-02  0 
 -7.695892e-03  -2.606827e-02  0 
 -2.467134e-03  -2.563823e-02  0 
 -2.543621e-02  -3.935527e-02  0 
 -1.702579e-02  -3.810134e-02  0 
 -9.715527e-03  -3.712856e-02  0 
 -3.150800e-03  -3.661691e-02  0 
 -2.789868e-02  -2.507879e-02  0 
 -3.319058e-02  -3.535180e-02  0 
 -3.678429e-02  -4.581221e-02  0 
 -7.312750e-03  -1.600109e-02  0 
 -3.411028e-03  -1.562776e-02  0 
 1.481837e-06  -1.553775e-02  0 
 -1.884623e-02  -2.316041e-02  0 
 -2.587748e-02  -2.936077e-02  0 
 -1.186044e-02  -2.162459e-02  0 
 -1.742393e-02  -2.772302e-02  0 
 -6.515935e-03  -2.078027e-02  0 
 -1.061206e-02  -2.647720e-02  0 
 -2.080348e-03  -2.045064e-02  0 
 -5.007274e-03  -2.579411e-02  0 
 -2.001312e-07  -2.558819e-02  0 
 -2.361297e-02  -3.392300e-02  0 
 -3.012867e-02  -3.999098e-02  0 
 -1.555498e-02  -3.254019e-02  0 
 -2.107692e-02  -3.871068e-02  0 
 -8.769869e-03  -3.154222e-02  0 
 -1.325182e-02  -3.756469e-02  0 
 -2.827192e-03  -3.105112e-02  0 
 -6.367786e-03  -3.680994e-02  0 
 -4.483086e-07  -3.655267e-02  0 
 -2.693778e-02  -4.479391e-02  0 
 -1.825773e-02  -4.367667e-02  0 
 -1.052369e-02  -4.276704e-02  0 
 -3.431694e-03  -4.226652e-02  0 
 -2.310543e-02  -2.411434e-02  0 
 -1.510902e-02  -2.230949e-02  0 
 -9.027848e-03  -2.112114e-02  0 
 -4.228135e-03  -2.056655e-02  0 
 8.294264e-07  -2.041387e-02  0 
 -2.820112e-02  -3.465864e-02  0 
 -1.940581e-02  -3.320035e-02  0 
 -1.202577e-02  -3.198018e-02  0 
 -5.726492e-03  -3.123330e-02  0 
 -4.007261e-07  -3.099082e-02  0 
 -3.170287e-02  -4.533683e-02  0 
 -2.246354e-02  -4.422613e-02  0 
 -1.428905e-02  -4.318040e-02  0 
 -6.921125e-03  -4.245756e-02  0 
 -1.043870e-06  -4.220160e-02  0 
VECTORS displacement_ITER15 FLOAT
 -3.078160e-02  -3.018201e-02  0 
 -3.517600e-02  -4.056948e-02  0 
 -5.264390e-03  -1.576403e-02  0 
 -1.678037e-03  -1.555862e-02  0 
 -2.143022e-02  -2.851871e-02  0 
 -1.383381e-02  -2.703168e-02  0 
 -7.696940e-03  -2.606860e-02  0 
 -2.467692e-03  -2.563842e-02  0 
 -2.543654e-02  -3.935536e-02  0 
 -1.702656e-02  -3.810157e-02  0 
 -9.716507e-03  -3.712898e-02  0 
 -3.151131e-03  -3.661750e-02  0 
 -2.789788e-02  -2.507904e-02  0 
 -3.319001e-02  -3.535214e-02  0 
 -3.678351e-02  -4.581173e-02  0 
 -7.314426e-03  -1.600114e-02  0 
 -3.412109e-03  -1.562790e-02  0 
 9.304583e-07  -1.553734e-02  0 
 -1.884605e-02  -2.316134e-02  0 
 -2.587696e-02  -2.936122e-02  0 
 -1.186123e-02  -2.162492e-02  0 
 -1.742451e-02  -2.772341e-02  0 
 -6.517087e-03  -2.078057e-02  0 
 -1.061308e-02  -2.647751e-02  0 
 -2.080983e-03  -2.045060e-02  0 
 -5.008149e-03  -2.579437e-02  0 
 -8.466697e-08  -2.558821e-02  0 
 -2.361313e-02  -3.392320e-02  0 
 -3.012852e-02  -3.999100e-02  0 
 -1.555581e-02  -3.254046e-02  0 
 -2.107754e-02  -3.871080e-02  0 