# vtk DataFile Version 3.1
this is an vtk file created by FEMAC
ASCII
DATASET UNSTRUCTURED_GRID
POINTS 361 FLOAT
0.000000 0.000000 0.000000
1.000000 0.000000 0.000000
2.000000 0.000000 0.000000
3.000000 0.000000 0.000000
4.000000 0.000000 0.000000
5.000000 0.000000 0.000000
6.000000 0.000000 0.000000
7.000000 0.000000 0.000000
8.000000 0.000000 0.000000
9.000000 0.000000 0.000000
0.000000 1.000000 0.000000
1.000000 1.000000 0.000000
0.000000 2.000000 0.000000
1.000000 2.000000 0.000000
0.000000 3.000000 0.000000
1.000000 3.000000 0.000000
0.000000 4.000000 0.000000
1.000000 4.000000 0.000000
0.000000 5.000000 0.000000
1.000000 5.000000 0.000000
0.000000 6.000000 0.000000
1.000000 6.000000 0.000000
0.000000 7.000000 0.000000
1.000000 7.000000 0.000000
0.000000 8.000000 0.000000
1.000000 8.000000 0.000000
0.000000 9.000000 0.000000
1.000000 9.000000 0.000000
2.000000 1.000000 0.000000
2.000000 2.000000 0.000000
2.000000 3.000000 0.000000
2.000000 4.000000 0.000000
2.000000 5.000000 0.000000
2.000000 6.000000 0.000000
2.000000 7.000000 0.000000
2.000000 8.000000 0.000000
2.000000 9.000000 0.000000
3.000000 1.000000 0.000000
3.000000 2.000000 0.000000
3.000000 3.000000 0.000000
3.000000 4.000000 0.000000
3.000000 5.000000 0.000000
3.000000 6.000000 0.000000
3.000000 7.000000 0.000000
3.000000 8.000000 0.000000
3.000000 9.000000 0.000000
4.000000 1.000000 0.000000
4.000000 2.000000 0.000000
4.000000 3.000000 0.000000
4.000000 4.000000 0.000000
4.000000 5.000000 0.000000
4.000000 6.000000 0.000000
4.000000 7.000000 0.000000
4.000000 8.000000 0.000000
4.000000 9.000000 0.000000
5.000000 1.000000 0.000000
5.000000 2.000000 0.000000
5.000000 3.000000 0.000000
5.000000 4.000000 0.000000
5.000000 5.000000 0.000000
5.000000 6.000000 0.000000
5.000000 7.000000 0.000000
5.000000 8.000000 0.000000
5.000000 9.000000 0.000000
6.000000 1.000000 0.000000
6.000000 2.000000 0.000000
6.000000 3.000000 0.000000
6.000000 4.000000 0.000000
6.000000 5.000000 0.000000
6.000000 6.000000 0.000000
6.000000 7.000000 0.000000
6.000000 8.000000 0.000000
6.000000 9.000000 0.000000
7.000000 1.000000 0.000000
7.000000 2.000000 0.000000
7.000000 3.000000 0.000000
7.000000 4.000000 0.000000
7.000000 5.000000 0.000000
7.000000 6.000000 0.000000
7.000000 7.000000 0.000000
7.000000 8.000000 0.000000
7.000000 9.000000 0.000000
8.000000 1.000000 0.000000
8.000000 2.000000 0.000000
8.000000 3.000000 0.000000
8.000000 4.000000 0.000000
8.000000 5.000000 0.000000
8.000000 6.000000 0.000000
8.000000 7.000000 0.000000
8.000000 8.000000 0.000000
8.000000 9.000000 0.000000
9.000000 1.000000 0.000000
9.000000 2.000000 0.000000
9.000000 3.000000 0.000000
9.000000 4.000000 0.000000
9.000000 5.000000 0.000000
9.000000 6.000000 0.000000
9.000000 7.000000 0.000000
9.000000 8.000000 0.000000
9.000000 9.000000 0.000000
0.500000 0.000000 0.000000
1.500000 0.000000 0.000000
2.500000 0.000000 0.000000
3.500000 0.000000 0.000000
4.500000 0.000000 0.000000
5.500000 0.000000 0.000000
6.500000 0.000000 0.000000
7.500000 0.000000 0.000000
8.500000 0.000000 0.000000
0.500000 1.000000 0.000000
0.000000 0.500000 0.000000
1.000000 0.500000 0.000000
0.500000 2.000000 0.000000
0.000000 1.500000 0.000000
1.000000 1.500000 0.000000
0.500000 3.000000 0.000000
0.000000 2.500000 0.000000
1.000000 2.500000 0.000000
0.500000 4.000000 0.000000
0.000000 3.500000 0.000000
1.000000 3.500000 0.000000
0.500000 5.000000 0.000000
0.000000 4.500000 0.000000
1.000000 4.500000 0.000000
0.500000 6.000000 0.000000
0.000000 5.500000 0.000000
1.000000 5.500000 0.000000
0.500000 7.000000 0.000000
0.000000 6.500000 0.000000
1.000000 6.500000 0.000000
0.500000 8.000000 0.000000
0.000000 7.500000 0.000000
1.000000 7.500000 0.000000
0.500000 9.000000 0.000000
0.000000 8.500000 0.000000
1.000000 8.500000 0.000000
1.500000 1.000000 0.000000
2.000000 0.500000 0.000000
1.500000 2.000000 0.000000
2.000000 1.500000 0.000000
1.500000 3.000000 0.000000
2.000000 2.500000 0.000000
1.500000 4.000000 0.000000
2.000000 3.500000 0.000000
1.500000 5.000000 0.000000
2.000000 4.500000 0.000000
1.500000 6.000000 0.000000
2.000000 5.500000 0.000000
1.500000 7.000000 0.000000
2.000000 6.500000 0.000000
1.500000 8.000000 0.000000
2.000000 7.500000 0.000000
1.500000 9.000000 0.000000
2.000000 8.500000 0.000000
2.500000 1.000000 0.000000
3.000000 0.500000 0.000000
2.500000 2.000000 0.000000
3.000000 1.500000 0.000000
2.500000 3.000000 0.000000
3.000000 2.500000 0.000000
2.500000 4.000000 0.000000
3.000000 3.500000 0.000000
2.500000 5.000000 0.000000
3.000000 4.500000 0.000000
2.500000 6.000000 0.000000
3.000000 5.500000 0.000000
2.500000 7.000000 0.000000
3.000000 6.500000 0.000000
2.500000 8.000000 0.000000
3.000000 7.500000 0.000000
2.500000 9.000000 0.000000
3.000000 8.500000 0.000000
3.500000 1.000000 0.000000
4.000000 0.500000 0.000000
3.500000 2.000000 0.000000
4.000000 1.500000 0.000000
3.500000 3.000000 0.000000
4.000000 2.500000 0.000000
3.500000 4.000000 0.000000
4.000000 3.500000 0.000000
3.500000 5.000000 0.000000
4.000000 4.500000 0.000000
3.500000 6.000000 0.000000
4.000000 5.500000 0.000000
3.500000 7.000000 0.000000
4.000000 6.500000 0.000000
3.500000 8.000000 0.000000
4.000000 7.500000 0.000000
3.500000 9.000000 0.000000
4.000000 8.500000 0.000000
4.500000 1.000000 0.000000
5.000000 0.500000 0.000000
4.500000 2.000000 0.000000
5.000000 1.500000 0.000000
4.500000 3.000000 0.000000
5.000000 2.500000 0.000000
4.500000 4.000000 0.000000
5.000000 3.500000 0.000000
4.500000 5.000000 0.000000
5.000000 4.500000 0.000000
4.500000 6.000000 0.000000
5.000000 5.500000 0.000000
4.500000 7.000000 0.000000
5.000000 6.500000 0.000000
4.500000 8.000000 0.000000
5.000000 7.500000 0.000000
4.500000 9.000000 0.000000
5.000000 8.500000 0.000000
5.500000 1.000000 0.000000
6.000000 0.500000 0.000000
5.500000 2.000000 0.000000
6.000000 1.500000 0.000000
5.500000 3.000000 0.000000
6.000000 2.500000 0.000000
5.500000 4.000000 0.000000
6.000000 3.500000 0.000000
5.500000 5.000000 0.000000
6.000000 4.500000 0.000000
5.500000 6.000000 0.000000
6.000000 5.500000 0.000000
5.500000 7.000000 0.000000
6.000000 6.500000 0.000000
5.500000 8.000000 0.000000
6.000000 7.500000 0.000000
5.500000 9.000000 0.000000
6.000000 8.500000 0.000000
6.500000 1.000000 0.000000
7.000000 0.500000 0.000000
6.500000 2.000000 0.000000
7.000000 1.500000 0.000000
6.500000 3.000000 0.000000
7.000000 2.500000 0.000000
6.500000 4.000000 0.000000
7.000000 3.500000 0.000000
6.500000 5.000000 0.000000
7.000000 4.500000 0.000000
6.500000 6.000000 0.000000
7.000000 5.500000 0.000000
6.500000 7.000000 0.000000
7.000000 6.500000 0.000000
6.500000 8.000000 0.000000
7.000000 7.500000 0.000000
6.500000 9.000000 0.000000
7.000000 8.500000 0.000000
7.500000 1.000000 0.000000
8.000000 0.500000 0.000000
7.500000 2.000000 0.000000
8.000000 1.500000 0.000000
7.500000 3.000000 0.000000
8.000000 2.500000 0.000000
7.500000 4.000000 0.000000
8.000000 3.500000 0.000000
7.500000 5.000000 0.000000
8.000000 4.500000 0.000000
7.500000 6.000000 0.000000
8.000000 5.500000 0.000000
7.500000 7.000000 0.000000
8.000000 6.500000 0.000000
7.500000 8.000000 0.000000
8.000000 7.500000 0.000000
7.500000 9.000000 0.000000
8.000000 8.500000 0.000000
8.500000 1.000000 0.000000
9.000000 0.500000 0.000000
8.500000 2.000000 0.000000
9.000000 1.500000 0.000000
8.500000 3.000000 0.000000
9.000000 2.500000 0.000000
8.500000 4.000000 0.000000
9.000000 3.500000 0.000000
8.500000 5.000000 0.000000
9.000000 4.500000 0.000000
8.500000 6.000000 0.000000
9.000000 5.500000 0.000000
8.500000 7.000000 0.000000
9.000000 6.500000 0.000000
8.500000 8.000000 0.000000
9.000000 7.500000 0.000000
8.500000 9.000000 0.000000
9.000000 8.500000 0.000000
0.500000 0.500000 0.000000
0.500000 1.500000 0.000000
0.500000 2.500000 0.000000
0.500000 3.500000 0.000000
0.500000 4.500000 0.000000
0.500000 5.500000 0.000000
0.500000 6.500000 0.000000
0.500000 7.500000 0.000000
0.500000 8.500000 0.000000
1.500000 0.500000 0.000000
1.500000 1.500000 0.000000
1.500000 2.500000 0.000000
1.500000 3.500000 0.000000
1.500000 4.500000 0.000000
1.500000 5.500000 0.000000
1.500000 6.500000 0.000000
1.500000 7.500000 0.000000
1.500000 8.500000 0.000000
2.500000 0.500000 0.000000
2.500000 1.500000 0.000000
2.500000 2.500000 0.000000
2.500000 3.500000 0.000000
2.500000 4.500000 0.000000
2.500000 5.500000 0.000000
2.500000 6.500000 0.000000
2.500000 7.500000 0.000000
2.500000 8.500000 0.000000
3.500000 0.500000 0.000000
3.500000 1.500000 0.000000
3.500000 2.500000 0.000000
3.500000 3.500000 0.000000
3.500000 4.500000 0.000000
3.500000 5.500000 0.000000
3.500000 6.500000 0.000000
3.500000 7.500000 0.000000
3.500000 8.500000 0.000000
4.500000 0.500000 0.000000
4.500000 1.500000 0.000000
4.500000 2.500000 0.000000
4.500000 3.500000 0.000000
4.500000 4.500000 0.000000
4.500000 5.500000 0.000000
4.500000 6.500000 0.000000
4.500000 7.500000 0.000000
4.500000 8.500000 0.000000
5.500000 0.500000 0.000000
5.500000 1.500000 0.000000
5.500000 2.500000 0.000000
5.500000 3.500000 0.000000
5.500000 4.500000 0.000000
5.500000 5.500000 0.000000
5.500000 6.500000 0.000000
5.500000 7.500000 0.000000
5.500000 8.500000 0.000000
6.500000 0.500000 0.000000
6.500000 1.500000 0.000000
6.500000 2.500000 0.000000
6.500000 3.500000 0.000000
6.500000 4.500000 0.000000
6.500000 5.500000 0.000000
6.500000 6.500000 0.000000
6.500000 7.500000 0.000000
6.500000 8.500000 0.000000
7.500000 0.500000 0.000000
7.500000 1.500000 0.000000
7.500000 2.500000 0.000000
7.500000 3.500000 0.000000
7.500000 4.500000 0.000000
7.500000 5.500000 0.000000
7.500000 6.500000 0.000000
7.500000 7.500000 0.000000
7.500000 8.500000 0.000000
8.500000 0.500000 0.000000
8.500000 1.500000 0.000000
8.500000 2.500000 0.000000
8.500000 3.500000 0.000000
8.500000 4.500000 0.000000
8.500000 5.500000 0.000000
8.500000 6.500000 0.000000
8.500000 7.500000 0.000000
8.500000 8.500000 0.000000
CELLS 324 1620 
4 0 100 280 110
4 110 280 109  10
4 100   1 111 280
4 280 111  11 109
4 10 109 281 113
4 113 281 112  12
4 109  11 114 281
4 281 114  13 112
4 12 112 282 116
4 116 282 115  14
4 112  13 117 282
4 282 117  15 115
4 14 115 283 119
4 119 283 118  16
4 115  15 120 283
4 283 120  17 118
4 16 118 284 122
4 122 284 121  18
4 118  17 123 284
4 284 123  19 121
4 18 121 285 125
4 125 285 124  20
4 121  19 126 285
4 285 126  21 124
4 20 124 286 128
4 128 286 127  22
4 124  21 129 286
4 286 129  23 127
4 22 127 287 131
4 131 287 130  24
4 127  23 132 287
4 287 132  25 130
4 24 130 288 134
4 134 288 133  26
4 130  25 135 288
4 288 135  27 133
4 1 101 289 111
4 111 289 136  11
4 101   2 137 289
4 289 137  28 136
4 11 136 290 114
4 114 290 138  13
4 136  28 139 290
4 290 139  29 138
4 13 138 291 117
4 117 291 140  15
4 138  29 141 291
4 291 141  30 140
4 15 140 292 120
4 120 292 142  17
4 140  30 143 292
4 292 143  31 142
4 17 142 293 123
4 123 293 144  19
4 142  31 145 293
4 293 145  32 144
4 19 144 294 126
4 126 294 146  21
4 144  32 147 294
4 294 147  33 146
4 21 146 295 129
4 129 295 148  23
4 146  33 149 295
4 295 149  34 148
4 23 148 296 132
4 132 296 150  25
4 148  34 151 296
4 296 151  35 150
4 25 150 297 135
4 135 297 152  27
4 150  35 153 297
4 297 153  36 152
4 2 102 298 137
4 137 298 154  28
4 102   3 155 298
4 298 155  37 154
4 28 154 299 139
4 139 299 156  29
4 154  37 157 299
4 299 157  38 156
4 29 156 300 141
4 141 300 158  30
4 156  38 159 300
4 300 159  39 158
4 30 158 301 143
4 143 301 160  31
4 158  39 161 301
4 301 161  40 160
4 31 160 302 145
4 145 302 162  32
4 160  40 163 302
4 302 163  41 162
4 32 162 303 147
4 147 303 164  33
4 162  41 165 303
4 303 165  42 164
4 33 164 304 149
4 149 304 166  34
4 164  42 167 304
4 304 167  43 166
4 34 166 305 151
4 151 305 168  35
4 166  43 169 305
4 305 169  44 168
4 35 168 306 153
4 153 306 170  36
4 168  44 171 306
4 306 171  45 170
4 3 103 307 155
4 155 307 172  37
4 103   4 173 307
4 307 173  46 172
4 37 172 308 157
4 157 308 174  38
4 172  46 175 308
4 308 175  47 174
4 38 174 309 159
4 159 309 176  39
4 174  47 177 309
4 309 177  48 176
4 39 176 310 161
4 161 310 178  40
4 176  48 179 310
4 310 179  49 178
4 40 178 311 163
4 163 311 180  41
4 178  49 181 311
4 311 181  50 180
4 41 180 312 165
4 165 312 182  42
4 180  50 183 312
4 312 183  51 182
4 42 182 313 167
4 167 313 184  43
4 182  51 185 313
4 313 185  52 184
4 43 184 314 169
4 169 314 186  44
4 184  52 187 314
4 314 187  53 186
4 44 186 315 171
4 171 315 188  45
4 186  53 189 315
4 315 189  54 188
4 4 104 316 173
4 173 316 190  46
4 104   5 191 316
4 316 191  55 190
4 46 190 317 175
4 175 317 192  47
4 190  55 193 317
4 317 193  56 192
4 47 192 318 177
4 177 318 194  48
4 192  56 195 318
4 318 195  57 194
4 48 194 319 179
4 179 319 196  49
4 194  57 197 319
4 319 197  58 196
4 49 196 320 181
4 181 320 198  50
4 196  58 199 320
4 320 199  59 198
4 50 198 321 183
4 183 321 200  51
4 198  59 201 321
4 321 201  60 200
4 51 200 322 185
4 185 322 202  52
4 200  60 203 322
4 322 203  61 202
4 52 202 323 187
4 187 323 204  53
4 202  61 205 323
4 323 205  62 204
4 53 204 324 189
4 189 324 206  54
4 204  62 207 324
4 324 207  63 206
4 5 105 325 191
4 191 325 208  55
4 105   6 209 325
4 325 209  64 208
4 55 208 326 193
4 193 326 210  56
4 208  64 211 326
4 326 211  65 210
4 56 210 327 195
4 195 327 212  57
4 210  65 213 327
4 327 213  66 212
4 57 212 328 197
4 197 328 214  58
4 212  66 215 328
4 328 215  67 214
4 58 214 329 199
4 199 329 216  59
4 214  67 217 329
4 329 217  68 216
4 59 216 330 201
4 201 330 218  60
4 216  68 219 330
4 330 219  69 218
4 60 218 331 203
4 203 331 220  61
4 218  69 221 331
4 331 221  70 220
4 61 220 332 205
4 205 332 222  62
4 220  70 223 332
4 332 223  71 222
4 62 222 333 207
4 207 333 224  63
4 222  71 225 333
4 333 225  72 224
4 6 106 334 209
4 209 334 226  64
4 106   7 227 334
4 334 227  73 226
4 64 226 335 211
4 211 335 228  65
4 226  73 229 335
4 335 229  74 228
4 65 228 336 213
4 213 336 230  66
4 228  74 231 336
4 336 231  75 230
4 66 230 337 215
4 215 337 232  67
4 230  75 233 337
4 337 233  76 232
4 67 232 338 217
4 217 338 234  68
4 232  76 235 338
4 338 235  77 234
4 68 234 339 219
4 219 339 236  69
4 234  77 237 339
4 339 237  78 236
4 69 236 340 221
4 221 340 238  70
4 236  78 239 340
4 340 239  79 238
4 70 238 341 223
4 223 341 240  71
4 238  79 241 341
4 341 241  80 240
4 71 240 342 225
4 225 342 242  72
4 240  80 243 342
4 342 243  81 242
4 7 107 343 227
4 227 343 244  73
4 107   8 245 343
4 343 245  82 244
4 73 244 344 229
4 229 344 246  74
4 244  82 247 344
4 344 247  83 246
4 74 246 345 231
4 231 345 248  75
4 246  83 249 345
4 345 249  84 248
4 75 248 346 233
4 233 346 250  76
4 248  84 251 346
4 346 251  85 250
4 76 250 347 235
4 235 347 252  77
4 250  85 253 347
4 347 253  86 252
4 77 252 348 237
4 237 348 254  78
4 252  86 255 348
4 348 255  87 254
4 78 254 349 239
4 239 349 256  79
4 254  87 257 349
4 349 257  88 256
4 79 256 350 241
4 241 350 258  80
4 256  88 259 350
4 350 259  89 258
4 80 258 351 243
4 243 351 260  81
4 258  89 261 351
4 351 261  90 260
4 8 108 352 245
4 245 352 262  82
4 108   9 263 352
4 352 263  91 262
4 82 262 353 247
4 247 353 264  83
4 262  91 265 353
4 353 265  92 264
4 83 264 354 249
4 249 354 266  84
4 264  92 267 354
4 354 267  93 266
4 84 266 355 251
4 251 355 268  85
4 266  93 269 355
4 355 269  94 268
4 85 268 356 253
4 253 356 270  86
4 268  94 271 356
4 356 271  95 270
4 86 270 357 255
4 255 357 272  87
4 270  95 273 357
4 357 273  96 272
4 87 272 358 257
4 257 358 274  88
4 272  96 275 358
4 358 275  97 274
4 88 274 359 259
4 259 359 276  89
4 274  97 277 359
4 359 277  98 276
4 89 276 360 261
4 261 360 278  90
4 276  98 279 360
4 360 279  99 278
CELL_TYPES 324
9 9 9 9 9 9 9 9 9 9 9 9 9 9 9 9 9 9 9 9 9 9 9 9 9 9 9 9 9 9 9 9 9 9 9 9 9 9 9 9 9 9 9 9 9 9 9 9 9 9 9 9 9 9 9 9 9 9 9 9 9 9 9 9 9 9 9 9 9 9 9 9 9 9 9 9 9 9 9 9 9 9 9 9 9 9 9 9 9 9 9 9 9 9 9 9 9 9 9 9 9 9 9 9 9 9 9 9 9 9 9 9 9 9 9 9 9 9 9 9 9 9 9 9 9 9 9 9 9 9 9 9 9 9 9 9 9 9 9 9 9 9 9 9 9 9 9 9 9 9 9 9 9 9 9 9 9 9 9 9 9 9 9 9 9 9 9 9 9 9 9 9 9 9 9 9 9 9 9 9 9 9 9 9 9 9 9 9 9 9 9 9 9 9 9 9 9 9 9 9 9 9 9 9 9 9 9 9 9 9 9 9 9 9 9 9 9 9 9 9 9 9 9 9 9 9 9 9 9 9 9 9 9 9 9 9 9 9 9 9 9 9 9 9 9 9 9 9 9 9 9 9 9 9 9 9 9 9 9 9 9 9 9 9 9 9 9 9 9 9 9 9 9 9 9 9 9 9 9 9 9 9 9 9 9 9 9 9 9 9 9 9 9 9 9 9 9 9 9 9 9 9 9 9 9 9 9 9 9 9 9 9 9 9 9 9 9 9 9 9 9 9 9 9 
POINT_DATA 361
SCALARS CONDID_1 FLOAT
LOOKUP_TABLE default
 1 
 0 
 0 
 0 
 0 
 0 
 0 
 0 
 0 
 0 
 0 
 0 
 0 
 0 
 0 
 0 
 0 
 0 
 0 
 0 
 0 
 0 
 0 
 0 
 0 
 0 
 0 
 0 
 0 
 0 
 0 
 0 
 0 
 0 
 0 
 0 
 0 
 0 
 0 
 0 
 0 
 0 
 0 
 0 
 0 
 0 
 0 
 0 
 0 
 0 
 0 
 0 
 0 
 0 
 0 
 0 
 0 
 0 
 0 
 0 
 0 
 0 
 0 
 0 
 0 
 0 
 0 
 0 
 0 
 0 
 0 
 0 
 0 
 0 
 0 
 0 
 0 
 0 
 0 
 0 
 0 
 0 
 0 
 0 
 0 
 0 
 0 
 0 
 0 
 0 
 0 
 0 
 0 
 0 
 0 
 0 
 0 
 0 
 0 
 0 
 0 
 0 
 0 
 0 
 0 
 0 
 0 
 0 
 0 
 0 
 0 
 0 
 0 
 0 
 0 
 0 
 0 
 0 
 0 
 0 
 0 
 0 
 0 
 0 
 0 
 0 
 0 
 0 
 0 
 0 
 0 
 0 
 0 
 0 
 0 
 0 
 0 
 0 
 0 
 0 
 0 
 0 
 0 
 0 
 0 
 0 
 0 
 0 
 0 
 0 
 0 
 0 
 0 
 0 
 0 
 0 
 0 
 0 
 0 
 0 
 0 
 0 
 0 
 0 
 0 
 0 
 0 
 0 
 0 
 0 
 0 
 0 
 0 
 0 
 0 
 0 
 0 
 0 
 0 
 0 
 0 
 0 
 0 
 0 
 0 
 0 
 0 
 0 
 0 
 0 
 0 
 0 
 0 
 0 
 0 
 0 
 0 
 0 
 0 
 0 
 0 
 0 
 0 
 0 
 0 
 0 
 0 
 0 
 0 
 0 
 0 
 0 
 0 
 0 
 0 
 0 
 0 
 0 
 0 
 0 
 0 
 0 
 0 
 0 
 0 
 0 
 0 
 0 
 0 
 0 
 0 
 0 
 0 
 0 
 0 
 0 
 0 
 0 
 0 
 0 
 0 
 0 
 0 
 0 
 0 
 0 
 0 
 0 
 0 
 0 
 0 
 0 
 0 
 0 
 0 
 0 
 0 
 0 
 0 
 0 
 0 
 0 
 0 
 0 
 0 
 0 
 0 
 0 
 0 
 0 
 0 
 0 
 0 
 0 
 0 
 0 
 0 
 0 
 0 
 0 
 0 
 0 
 0 
 0 
 0 
 0 
 0 
 0 
 0 
 0 
 0 
 0 
 0 
 0 
 0 
 0 
 0 
 0 
 0 
 0 
 0 
 0 
 0 
 0 
 0 
 0 
 0 
 0 
 0 
 0 
 0 
 0 
 0 
 0 
 0 
 0 
 0 
 0 
 0 
 0 
 0 
 0 
 0 
 0 
 0 
 0 
 0 
 0 
 0 
 0 
 0 
 0 
 0 
 0 
 0 
 0 
 0 
 0 
 0 
 0 
 0 
 0 
 0 
 0 
 0 
 0 
 0 
 0 
 0 
 0 
 0 
 0 
 0 
 0 
 0 
 0 
 0 
 0 
 0 
 0 
 0 
SCALARS CONDID_2 FLOAT
LOOKUP_TABLE default
 1 
 0 
 0 
 0 
 0 
 0 
 0 
 0 
 0 
 0 
 1 
 0 
 1 
 0 
 1 
 0 
 1 
 0 
 1 
 0 
 1 
 0 
 1 
 0 
 1 
 0 
 1 
 0 
 0 
 0 
 0 
 0 
 0 
 0 
 0 
 0 
 0 
 0 
 0 
 0 
 0 
 0 
 0 
 0 
 0 
 0 
 0 
 0 
 0 
 0 
 0 
 0 
 0 
 0 
 0 
 0 
 0 
 0 
 0 
 0 
 0 
 0 
 0 
 0 
 0 
 0 
 0 
 0 
 0 
 0 
 0 
 0 
 0 
 0 
 0 
 0 
 0 
 0 
 0 
 0 
 0 
 0 
 0 
 0 
 0 
 0 
 0 
 0 
 0 
 0 
 0 
 0 
 0 
 0 
 0 
 0 
 0 
 0 
 0 
 0 
 0 
 0 
 0 
 0 
 0 
 0 
 0 
 0 
 0 
 0 
 1 
 0 
 0 
 1 
 0 
 0 
 1 
 0 
 0 
 1 
 0 
 0 
 1 
 0 
 0 
 1 
 0 
 0 
 1 
 0 
 0 
 1 
 0 
 0 
 1 
 0 
 0 
 0 
 0 
 0 
 0 
 0 
 0 
 0 
 0 
 0 
 0 
 0 
 0 
 0 
 0 
 0 
 0 
 0 
 0 
 0 
 0 
 0 
 0 
 0 
 0 
 0 
 0 
 0 
 0 
 0 
 0 
 0 
 0 
 0 
 0 
 0 
 0 
 0 
 0 
 0 
 0 
 0 
 0 
 0 
 0 
 0 
 0 
 0 
 0 
 0 
 0 
 0 
 0 
 0 
 0 
 0 
 0 
 0 
 0 
 0 
 0 
 0 
 0 
 0 
 0 
 0 
 0 
 0 
 0 
 0 
 0 
 0 
 0 
 0 
 0 
 0 
 0 
 0 
 0 
 0 
 0 
 0 
 0 
 0 
 0 
 0 
 0 
 0 
 0 
 0 
 0 
 0 
 0 
 0 
 0 
 0 
 0 
 0 
 0 
 0 
 0 
 0 
 0 
 0 
 0 
 0 
 0 
 0 
 0 
 0 
 0 
 0 
 0 
 0 
 0 
 0 
 0 
 0 
 0 
 0 
 0 
 0 
 0 
 0 
 0 
 0 
 0 
 0 
 0 
 0 
 0 
 0 
 0 
 0 
 0 
 0 
 0 
 0 
 0 
 0 
 0 
 0 
 0 
 0 
 0 
 0 
 0 
 0 
 0 
 0 
 0 
 0 
 0 
 0 
 0 
 0 
 0 
 0 
 0 
 0 
 0 
 0 
 0 
 0 
 0 
 0 
 0 
 0 
 0 
 0 
 0 
 0 
 0 
 0 
 0 
 0 
 0 
 0 
 0 
 0 
 0 
 0 
 0 
 0 
 0 
 0 
 0 
 0 
 0 
 0 
 0 
 0 
 0 
 0 
 0 
 0 
 0 
 0 
 0 
 0 
 0 
 0 
 0 
 0 
 0 
 0 
 0 
 0 
 0 
 0 
 0 
 0 
 0 
 0 
 0 
 0 
 0 
 0 
 0 
 0 
 0 
 0 
 0 
 0 
 0 
SCALARS CONDID_3 FLOAT
LOOKUP_TABLE default
 1 
 1 
 1 
 1 
 1 
 1 
 1 
 1 
 1 
 1 
 1 
 1 
 1 
 1 
 1 
 1 
 1 
 1 
 1 
 1 
 1 
 1 
 1 
 1 
 1 
 1 
 1 
 1 
 1 
 1 
 1 
 1 
 1 
 1 
 1 
 1 
 1 
 1 
 1 
 1 
 1 
 1 
 1 
 1 
 1 
 1 
 1 
 1 
 1 
 1 
 1 
 1 
 1 
 1 
 1 
 1 
 1 
 1 
 1 
 1 
 1 
 1 
 1 
 1 
 1 
 1 
 1 
 1 
 1 
 1 
 1 
 1 
 1 
 1 
 1 
 1 
 1 
 1 
 1 
 1 
 1 
 1 
 1 
 1 
 1 
 1 
 1 
 1 
 1 
 1 
 1 
 1 
 1 
 1 
 1 
 1 
 1 
 1 
 1 
 1 
 1 
 1 
 1 
 1 
 1 
 1 
 1 
 1 
 1 
 1 
 1 
 1 
 1 
 1 
 1 
 1 
 1 
 1 
 1 
 1 
 1 
 1 
 1 
 1 
 1 
 1 
 1 
 1 
 1 
 1 
 1 
 1 
 1 
 1 
 1 
 1 
 1 
 1 
 1 
 1 
 1 
 1 
 1 
 1 
 1 
 1 
 1 
 1 
 1 
 1 
 1 
 1 
 1 
 1 
 1 
 1 
 1 
 1 
 1 
 1 
 1 
 1 
 1 
 1 
 1 
 1 
 1 
 1 
 1 
 1 
 1 
 1 
 1 
 1 
 1 
 1 
 1 
 1 
 1 
 1 
 1 
 1 
 1 
 1 
 1 
 1 
 1 
 1 
 1 
 1 
 1 
 1 
 1 
 1 
 1 
 1 
 1 
 1 
 1 
 1 
 1 
 1 
 1 
 1 
 1 
 1 
 1 
 1 
 1 
 1 
 1 
 1 
 1 
 1 
 1 
 1 
 1 
 1 
 1 
 1 
 1 
 1 
 1 
 1 
 1 
 1 
 1 
 1 
 1 
 1 
 1 
 1 
 1 
 1 
 1 
 1 
 1 
 1 
 1 
 1 
 1 
 1 
 1 
 1 
 1 
 1 
 1 
 1 
 1 
 1 
 1 
 1 
 1 
 1 
 1 
 1 
 1 
 1 
 1 
 1 
 1 
 1 
 1 
 1 
 1 
 1 
 1 
 1 
 1 
 1 
 1 
 1 
 1 
 1 
 1 
 1 
 1 
 1 
 1 
 1 
 1 
 1 
 1 
 1 
 1 
 1 
 1 
 1 
 1 
 1 
 1 
 1 
 1 
 1 
 1 
 1 
 1 
 1 
 1 
 1 
 1 
 1 
 1 
 1 
 1 
 1 
 1 
 1 
 1 
 1 
 1 
 1 
 1 
 1 
 1 
 1 
 1 
 1 
 1 
 1 
 1 
 1 
 1 
 1 
 1 
 1 
 1 
 1 
 1 
 1 
 1 
 1 
 1 
 1 
 1 
 1 
 1 
 1 
 1 
 1 
 1 
 1 
 1 
 1 
 1 
 1 
 1 
 1 
 1 
 1 
 1 
 1 
 1 
 1 
 1 
 1 
 1 
 1 
 1 
 1 
 1 
VECTORS displacement FLOAT
 0  0  0 
 -3.430413e-02  -2.678037e-02  0 
 -1.005729e-01  -6.956664e-02  0 
 -1.106828e-01  -1.084696e-01  0 
 -1.393588e-01  -1.492100e-01  0 
 -1.440990e-01  -1.890802e-01  0 
 -1.551327e-01  -2.293647e-01  0 
 -1.567118e-01  -2.683561e-01  0 
 -1.584539e-01  -3.066341e-01  0 
 -1.587761e-01  -3.437510e-01  0 
 0  0  0 
 -2.592389e-02  -2.271730e-02  0 
 0  0  0 
 -1.754212e-02  -2.306202e-02  0 
 0  0  0 
 -8.575656e-03  -2.342434e-02  0 
 0  0  0 
 -3.628353e-03  -2.376419e-02  0 
 0  0  0 
 3.628353e-03  -2.376419e-02  0 
 0  0  0 
 8.575656e-03  -2.342434e-02  0 
 0  0  0 
 1.754212e-02  -2.306202e-02  0 
 0  0  0 
 2.592389e-02  -2.271730e-02  0 
 0  0  0 
 3.430413e-02  -2.678037e-02  0 
 -5.656946e-02  -5.982964e-02  0 
 -3.342155e-02  -5.606129e-02  0 
 -1.934479e-02  -5.476230e-02  0 
 -5.638783e-03  -5.447930e-02  0 
 5.638783e-03  -5.447930e-02  0 
 1.934479e-02  -5.476230e-02  0 
 3.342155e-02  -5.606129e-02  0 
 5.656946e-02  -5.982964e-02  0 
 1.005729e-01  -6.956664e-02  0 
 -8.019058e-02  -1.041300e-01  0 
 -5.171567e-02  -9.612894e-02  0 
 -2.746341e-02  -9.292937e-02  0 
 -9.561258e-03  -9.147435e-02  0 
 9.561258e-03  -9.147435e-02  0 
 2.746341e-02  -9.292937e-02  0 
 5.171567e-02  -9.612894e-02  0 
 8.019058e-02  -1.041300e-01  0 
 1.106828e-01  -1.084696e-01  0 
 -9.691990e-02  -1.435234e-01  0 
 -6.403276e-02  -1.395748e-01  0 
 -3.707872e-02  -1.346836e-01  0 
 -1.112243e-02  -1.328544e-01  0 
 1.112243e-02  -1.328544e-01  0 
 3.707872e-02  -1.346836e-01  0 
 6.403276e-02  -1.395748e-01  0 
 9.691990e-02  -1.435234e-01  0 
 1.393588e-01  -1.492100e-01  0 
 -1.082162e-01  -1.869041e-01  0 
 -7.428040e-02  -1.813921e-01  0 
 -4.228180e-02  -1.785141e-01  0 
 -1.457184e-02  -1.760869e-01  0 
 1.457184e-02  -1.760869e-01  0 
 4.228180e-02  -1.785141e-01  0 
 7.428040e-02  -1.813921e-01  0 
 1.082162e-01  -1.869041e-01  0 
 1.440990e-01  -1.890802e-01  0 
 -1.154600e-01  -2.265643e-01  0 
 -7.968786e-02  -2.243357e-01  0 
 -4.737272e-02  -2.209121e-01  0 
 -1.494592e-02  -2.195818e-01  0 
 1.494592e-02  -2.195818e-01  0 
 4.737272e-02  -2.209121e-01  0 
 7.968786e-02  -2.243357e-01  0 
 1.154600e-01  -2.265643e-01  0 
 1.551327e-01  -2.293647e-01  0 
 -1.191377e-01  -2.674749e-01  0 
 -8.377630e-02  -2.645186e-01  0 
 -4.893611e-02  -2.626859e-01  0 
 -1.675197e-02  -2.611593e-01  0 
 1.675197e-02  -2.611593e-01  0 
 4.893611e-02  -2.626859e-01  0 
 8.377630e-02  -2.645186e-01  0 
 1.191377e-01  -2.674749e-01  0 
 1.567118e-01  -2.683561e-01  0 
 -1.212124e-01  -3.053763e-01  0 
 -8.494419e-02  -3.037392e-01  0 
 -5.099909e-02  -3.014605e-01  0 
 -1.624105e-02  -3.003962e-01  0 
 1.624105e-02  -3.003962e-01  0 
 5.099909e-02  -3.014605e-01  0 
 8.494419e-02  -3.037392e-01  0 
 1.212124e-01  -3.053763e-01  0 
 1.584539e-01  -3.066341e-01  0 
 -1.215865e-01  -3.433849e-01  0 
 -8.625980e-02  -3.391335e-01  0 
 -5.089919e-02  -3.382965e-01  0 
 -1.725757e-02  -3.357981e-01  0 
 1.725757e-02  -3.357981e-01  0 
 5.089919e-02  -3.382965e-01  0 
 8.625980e-02  -3.391335e-01  0 
 1.215865e-01  -3.433849e-01  0 
 1.587761e-01  -3.437510e-01  0 
 -2.119591e-02  -1.359992e-02  0 
 -7.153851e-02  -5.059257e-02  0 
 -1.063211e-01  -8.843008e-02  0 
 -1.257537e-01  -1.304061e-01  0 
 -1.421643e-01  -1.687433e-01  0 
 -1.500413e-01  -2.102079e-01  0 
 -1.561595e-01  -2.486619e-01  0 
 -1.576900e-01  -2.881576e-01  0 
 -1.586792e-01  -3.251122e-01  0 
 -8.522558e-03  -9.913191e-03  0 
 0  0  0 
 -2.325718e-02  -2.220773e-02  0 
 -1.122021e-02  -1.027496e-02  0 
 0  0  0 
 -2.809031e-02  -2.494362e-02  0 
 -7.004324e-04  -1.016762e-02  0 
 0  0  0 
 -9.120394e-03  -2.093236e-02  0 
 -5.024874e-03  -1.068541e-02  0 
 0  0  0 
 -7.866862e-03  -2.621144e-02  0 
 5.024874e-03  -1.068541e-02  0 
 0  0  0 
 -5.518201e-12  -2.128440e-02  0 
 7.004324e-04  -1.016762e-02  0 
 0  0  0 
 7.866862e-03  -2.621144e-02  0 
 1.122021e-02  -1.027496e-02  0 
 0  0  0 
 9.120394e-03  -2.093236e-02  0 
 8.522558e-03  -9.913191e-03  0 
 0  0  0 
 2.809031e-02  -2.494362e-02  0 
 2.119591e-02  -1.359992e-02  0 
 0  0  0 
 2.325718e-02  -2.220773e-02  0 
 -4.380490e-02  -3.766244e-02  0 
 -8.133924e-02  -6.552417e-02  0 
 -2.289489e-02  -3.952134e-02  0 
 -3.741446e-02  -5.508771e-02  0 
 -1.684282e-02  -3.785836e-02  0 
 -2.992592e-02  -5.791303e-02  0 
 -1.752277e-03  -3.850214e-02  0 
 -1.051950e-02  -5.185185e-02  0 
 1.752277e-03  -3.850214e-02  0 
 -1.000231e-11  -5.731093e-02  0 
 1.684282e-02  -3.785836e-02  0 
 1.051950e-02  -5.185185e-02  0 
 2.289489e-02  -3.952134e-02  0 
 2.992592e-02  -5.791303e-02  0 
 4.380490e-02  -3.766244e-02  0 
 3.741446e-02  -5.508771e-02  0 
 7.153851e-02  -5.059257e-02  0 
 8.133924e-02  -6.552417e-02  0 
 -6.815714e-02  -8.574373e-02  0 
 -9.163292e-02  -1.061997e-01  0 
 -4.511897e-02  -7.396012e-02  0 
 -7.031230e-02  -1.013909e-01  0 
 -2.084143e-02  -7.412873e-02  0 
 -3.529342e-02  -9.179868e-02  0 
 -1.039474e-02  -7.224131e-02  0 
 -2.005116e-02  -9.468057e-02  0 
 1.039474e-02  -7.224131e-02  0 
 -5.867369e-12  -8.865422e-02  0 
 2.084143e-02  -7.412873e-02  0 
 2.005116e-02  -9.468057e-02  0 
 4.511897e-02  -7.396012e-02  0 
 3.529342e-02  -9.179868e-02  0 
 6.815714e-02  -8.574373e-02  0 
 7.031230e-02  -1.013909e-01  0 
 1.063211e-01  -8.843008e-02  0 
 9.163292e-02  -1.061997e-01  0 
 -9.031376e-02  -1.210085e-01  0 
 -1.197131e-01  -1.470335e-01  0 
 -5.676016e-02  -1.199367e-01  0 
 -7.623640e-02  -1.402199e-01  0 
 -3.483792e-02  -1.124765e-01  0 
 -5.290730e-02  -1.388607e-01  0 
 -7.839877e-03  -1.122209e-01  0 
 -2.229823e-02  -1.311646e-01  0 
 7.839877e-03  -1.122209e-01  0 
 -3.230119e-11  -1.350708e-01  0 
 3.483792e-02  -1.124765e-01  0 
 2.229823e-02  -1.311646e-01  0 
 5.676016e-02  -1.199367e-01  0 
 5.290730e-02  -1.388607e-01  0 
 9.031376e-02  -1.210085e-01  0 
 7.623640e-02  -1.402199e-01  0 
 1.257537e-01  -1.304061e-01  0 
 1.197131e-01  -1.470335e-01  0 
 -1.024716e-01  -1.674150e-01  0 
 -1.242693e-01  -1.880559e-01  0 
 -7.103604e-02  -1.587803e-01  0 
 -9.330744e-02  -1.850709e-01  0 
 -3.812448e-02  -1.577994e-01  0 
 -5.597447e-02  -1.782498e-01  0 
 -1.511492e-02  -1.540287e-01  0 
 -2.930321e-02  -1.789727e-01  0 
 1.511492e-02  -1.540287e-01  0 
 -3.221003e-11  -1.737734e-01  0 
 3.812448e-02  -1.577994e-01  0 
 2.930321e-02  -1.789727e-01  0 
 7.103604e-02  -1.587803e-01  0 
 5.597447e-02  -1.782498e-01  0 
 1.024716e-01  -1.674150e-01  0 
 9.330744e-02  -1.850709e-01  0 
 1.421643e-01  -1.687433e-01  0 
 1.242693e-01  -1.880559e-01  0 
 -1.129117e-01  -2.053441e-01  0 
 -1.358406e-01  -2.284097e-01  0 
 -7.635651e-02  -2.043685e-01  0 
 -9.579423e-02  -2.247788e-01  0 
 -4.657342e-02  -1.988912e-01  0 
 -6.448637e-02  -2.236809e-01  0 
 -1.317507e-02  -1.983358e-01  0 
 -3.035571e-02  -2.186036e-01  0 
 1.317507e-02  -1.983358e-01  0 
 3.341921e-11  -2.208951e-01  0 
 4.657342e-02  -1.988912e-01  0 
 3.035571e-02  -2.186036e-01  0 
 7.635651e-02  -2.043685e-01  0 
 6.448637e-02  -2.236809e-01  0 
 1.129117e-01  -2.053441e-01  0 
 9.579423e-02  -2.247788e-01  0 
 1.500413e-01  -2.102079e-01  0 
 1.358406e-01  -2.284097e-01  0 
 -1.172489e-01  -2.481331e-01  0 
 -1.372281e-01  -2.680309e-01  0 
 -8.279262e-02  -2.436109e-01  0 
 -1.020271e-01  -2.665095e-01  0 
 -4.731084e-02  -2.427844e-01  0 
 -6.552394e-02  -2.627518e-01  0 
 -1.712909e-02  -2.403693e-01  0 
 -3.312180e-02  -2.627215e-01  0 
 1.712909e-02  -2.403693e-01  0 
 2.133548e-11  -2.599375e-01  0 
 4.731084e-02  -2.427844e-01  0 
 3.312180e-02  -2.627215e-01  0 
 8.279262e-02  -2.436109e-01  0 
 6.552394e-02  -2.627518e-01  0 
 1.172489e-01  -2.481331e-01  0 
 1.020271e-01  -2.665095e-01  0 
 1.561595e-01  -2.486619e-01  0 
 1.372281e-01  -2.680309e-01  0 
 -1.206324e-01  -2.858900e-01  0 
 -1.399642e-01  -3.062795e-01  0 
 -8.408718e-02  -2.851340e-01  0 
 -1.025415e-01  -3.043920e-01  0 
 -5.070480e-02  -2.817797e-01  0 
 -6.825631e-02  -3.029336e-01  0 
 -1.582545e-02  -2.813331e-01  0 
 -3.333379e-02  -3.002875e-01  0 
 1.582545e-02  -2.813331e-01  0 
 -5.324040e-11  -3.007520e-01  0 
 5.070480e-02  -2.817797e-01  0 
 3.333379e-02  -3.002875e-01  0 
 8.408718e-02  -2.851340e-01  0 
 6.825631e-02  -3.029336e-01  0 
 1.206324e-01  -2.858900e-01  0 
 1.025415e-01  -3.043920e-01  0 
 1.576900e-01  -2.881576e-01  0 
 1.399642e-01  -3.062795e-01  0 
 -1.213894e-01  -3.247980e-01  0 
 -1.401224e-01  -3.436822e-01  0 
 -8.581729e-02  -3.213418e-01  0 
 -1.038379e-01  -3.414378e-01  0 
 -5.081233e-02  -3.205003e-01  0 
 -6.852187e-02  -3.386428e-01  0 
 -1.697631e-02  -3.183868e-01  0 
 -3.406408e-02  -3.370321e-01  0 
 1.697631e-02  -3.183868e-01  0 
 -6.457282e-11  -3.356452e-01  0 
 5.081233e-02  -3.205003e-01  0 
 3.406408e-02  -3.370321e-01  0 
 8.581729e-02  -3.213418e-01  0 
 6.852187e-02  -3.386428e-01  0 
 1.213894e-01  -3.247980e-01  0 
 1.038379e-01  -3.414378e-01  0 
 1.586792e-01  -3.251122e-01  0 
 1.401224e-01  -3.436822e-01  0 
 -1.327474e-02  -1.116478e-02  0 
 -1.200282e-02  -1.052620e-02  0 
 -5.749502e-03  -1.006167e-02  0 
 -3.403726e-03  -1.128284e-02  0 
 -7.202112e-12  -1.057866e-02  0 
 3.403726e-03  -1.128284e-02  0 
 5.749502e-03  -1.006167e-02  0 
 1.200282e-02  -1.052620e-02  0 