# vtk DataFile Version 3.1
this is an vtk file created by FEMAC
ASCII
DATASET UNSTRUCTURED_GRID
POINTS 56 FLOAT
5.000000 0.000000 0.000000
6.000000 0.000000 0.000000
7.000000 0.000000 0.000000
8.000000 0.000000 0.000000
9.000000 0.000000 0.000000
5.000000 1.000000 0.000000
5.000000 2.000000 0.000000
6.000000 1.000000 0.000000
6.000000 2.000000 0.000000
7.000000 1.000000 0.000000
7.000000 2.000000 0.000000
8.000000 1.000000 0.000000
8.000000 2.000000 0.000000
9.000000 1.000000 0.000000
9.000000 2.000000 0.000000
4.500000 0.000000 0.000000
5.500000 0.000000 0.000000
6.500000 0.000000 0.000000
7.500000 0.000000 0.000000
8.500000 0.000000 0.000000
4.500000 1.000000 0.000000
5.000000 0.500000 0.000000
4.500000 2.000000 0.000000
5.000000 1.500000 0.000000
5.500000 1.000000 0.000000
6.000000 0.500000 0.000000
5.500000 2.000000 0.000000
6.000000 1.500000 0.000000
6.500000 1.000000 0.000000
7.000000 0.500000 0.000000
6.500000 2.000000 0.000000
7.000000 1.500000 0.000000
7.000000 2.500000 0.000000
7.500000 1.000000 0.000000
8.000000 0.500000 0.000000
7.500000 2.000000 0.000000
8.000000 1.500000 0.000000
8.000000 2.500000 0.000000
8.500000 1.000000 0.000000
9.000000 0.500000 0.000000
8.500000 2.000000 0.000000
9.000000 1.500000 0.000000
9.000000 2.500000 0.000000
4.500000 0.500000 0.000000
4.500000 1.500000 0.000000
5.500000 0.500000 0.000000
5.500000 1.500000 0.000000
6.500000 0.500000 0.000000
6.500000 1.500000 0.000000
6.500000 2.500000 0.000000
7.500000 0.500000 0.000000
7.500000 1.500000 0.000000
7.500000 2.500000 0.000000
8.500000 0.500000 0.000000
8.500000 1.500000 0.000000
8.500000 2.500000 0.000000
CELLS 41 205 
4 15  0 21 43
4 43 21  5 20
4 20  5 23 44
4 44 23  6 22
4 0 16 45 21
4 21 45 24  5
4 16  1 25 45
4 45 25  7 24
4 5 24 46 23
4 23 46 26  6
4 24  7 27 46
4 46 27  8 26
4 1 17 47 25
4 25 47 28  7
4 17  2 29 47
4 47 29  9 28
4 7 28 48 27
4 27 48 30  8
4 28  9 31 48
4 48 31 10 30
4 30 10 32 49
4 2 18 50 29
4 29 50 33  9
4 18  3 34 50
4 50 34 11 33
4 9 33 51 31
4 31 51 35 10
4 33 11 36 51
4 51 36 12 35
4 10 35 52 32
4 35 12 37 52
4 3 19 53 34
4 34 53 38 11
4 19  4 39 53
4 53 39 13 38
4 11 38 54 36
4 36 54 40 12
4 38 13 41 54
4 54 41 14 40
4 12 40 55 37
4 40 14 42 55
CELL_TYPES 41
9 9 9 9 9 9 9 9 9 9 9 9 9 9 9 9 9 9 9 9 9 9 9 9 9 9 9 9 9 9 9 9 9 9 9 9 9 9 9 9 9 
POINT_DATA 56
VECTORS displacement_ITER1 FLOAT
 -2.873921e-01  -4.207503e-01  0 
 -2.918455e-01  -4.869010e-01  0 
 -2.895892e-01  -5.409305e-01  0 
 -2.834226e-01  -5.850978e-01  0 
 -2.832666e-01  -6.267466e-01  0 
 -2.296386e-01  -4.207269e-01  0 
 -1.707860e-01  -4.202097e-01  0 
 -2.353898e-01  -4.856997e-01  0 
 -1.757926e-01  -4.834234e-01  0 
 -2.389871e-01  -5.410359e-01  0 
 -1.961896e-01  -5.384889e-01  0 
 -2.408912e-01  -5.841624e-01  0 
 -2.010985e-01  -5.818537e-01  0 
 -2.417190e-01  -6.258918e-01  0 
 -2.036791e-01  -6.142513e-01  0 
 -2.839616e-01  -3.887819e-01  0 
 -2.921022e-01  -4.553952e-01  0 
 -2.908945e-01  -5.145781e-01  0 
 -2.855684e-01  -5.642260e-01  0 
 -2.832730e-01  -6.058788e-01  0 
 -2.257588e-01  -3.887047e-01  0 
 -2.566642e-01  -4.200334e-01  0 
 -1.656331e-01  -3.785290e-01  0 
 -2.019208e-01  -4.209480e-01  0 
 -2.333842e-01  -4.531612e-01  0 
 -2.638596e-01  -4.867296e-01  0 
 -1.728867e-01  -4.525404e-01  0 
 -2.053158e-01  -4.847948e-01  0 
 -2.371189e-01  -5.151246e-01  0 
 -2.637053e-01  -5.412022e-01  0 
 -1.931385e-01  -5.165544e-01  0 
 -2.180361e-01  -5.403712e-01  0 
 -1.761641e-01  -5.364703e-01  0 
 -2.402673e-01  -5.626722e-01  0 
 -2.624438e-01  -5.849245e-01  0 
 -1.985947e-01  -5.617220e-01  0 
 -2.196098e-01  -5.829846e-01  0 
 -1.858360e-01  -5.807225e-01  0 
 -2.413157e-01  -6.053616e-01  0 
 -2.623830e-01  -6.265739e-01  0 
 -2.028411e-01  -5.983502e-01  0 
 -2.220507e-01  -6.211198e-01  0 
 -1.890572e-01  -6.121059e-01  0 
 -2.555652e-01  -3.893913e-01  0 
 -1.971860e-01  -3.846172e-01  0 
 -2.608262e-01  -4.543380e-01  0 
 -2.030092e-01  -4.527035e-01  0 
 -2.640382e-01  -5.148884e-01  0 
 -2.120092e-01  -5.158720e-01  0 
 -1.769124e-01  -5.180793e-01  0 
 -2.630153e-01  -5.643741e-01  0 
 -2.191551e-01  -5.621619e-01  0 
 -1.806461e-01  -5.592200e-01  0 
 -2.623640e-01  -6.057715e-01  0 
 -2.204562e-01  -6.023157e-01  0 
 -1.873962e-01  -5.972099e-01  0 
VECTORS displacement_ITER2 FLOAT
 -1.749031e-01  -2.279348e-01  0 
 -1.794749e-01  -2.828498e-01  0 
 -1.773841e-01  -3.260444e-01  0 
 -1.715357e-01  -3.598813e-01  0 
 -1.713971e-01  -3.912916e-01  0 
 -1.282144e-01  -2.279811e-01  0 
 -8.119947e-02  -2.276568e-01  0 
 -1.340012e-01  -2.816076e-01  0 
 -8.581231e-02  -2.794696e-01  0 
 -1.374433e-01  -3.261293e-01  0 
 -1.050762e-01  -3.237062e-01  0 
 -1.392731e-01  -3.589381e-01  0 
 -1.096484e-01  -3.566229e-01  0 
 -1.400789e-01  -3.904575e-01  0 
 -1.121012e-01  -3.790583e-01  0 
 -1.715077e-01  -2.014144e-01  0 
 -1.795807e-01  -2.569718e-01  0 
 -1.786058e-01  -3.050651e-01  0 
 -1.735711e-01  -3.441376e-01  0 
 -1.713996e-01  -3.755422e-01  0 
 -1.242490e-01  -2.014601e-01  0 
 -1.496614e-01  -2.272321e-01  0 
 -7.709605e-02  -1.923489e-01  0 
 -1.063530e-01  -2.282929e-01  0 
 -1.320198e-01  -2.547280e-01  0 
 -1.569674e-01  -2.826547e-01  0 
 -8.305774e-02  -2.542383e-01  0 
 -1.095898e-01  -2.807015e-01  0 
 -1.356585e-01  -3.055665e-01  0 
 -1.568511e-01  -3.262960e-01  0 
 -1.022231e-01  -3.069462e-01  0 
 -1.216620e-01  -3.254985e-01  0 
 -9.023141e-02  -3.217841e-01  0 
 -1.386693e-01  -3.425880e-01  0 
 -1.556840e-01  -3.597026e-01  0 
 -1.073092e-01  -3.416594e-01  0 
 -1.231340e-01  -3.577638e-01  0 
 -9.930007e-02  -3.554980e-01  0 
 -1.396849e-01  -3.750288e-01  0 
 -1.556320e-01  -3.911231e-01  0 
 -1.112843e-01  -3.680985e-01  0 
 -1.254838e-01  -3.857977e-01  0 
 -1.023474e-01  -3.769195e-01  0 
 -1.485433e-01  -2.020534e-01  0 
 -1.016189e-01  -1.978831e-01  0 
 -1.538818e-01  -2.559004e-01  0 
 -1.073882e-01  -2.543035e-01  0 
 -1.571652e-01  -3.053485e-01  0 
 -1.159631e-01  -3.062675e-01  0 
 -9.093747e-02  -3.084163e-01  0 
 -1.562076e-01  -3.442611e-01  0 
 -1.227106e-01  -3.420813e-01  0 
 -9.447818e-02  -3.392663e-01  0 
 -1.556130e-01  -3.754333e-01  0 
 -1.239286e-01  -3.720251e-01  0 
 -1.007613e-01  -3.669638e-01  0 
VECTORS displacement_ITER3 FLOAT
 -1.435248e-01  -1.962610e-01  0 
 -1.565461e-01  -2.360920e-01  0 
 -1.585855e-01  -2.758213e-01  0 
 -1.612965e-01  -3.165327e-01  0 
 -1.616777e-01  -3.565368e-01  0 
 -1.110215e-01  -1.950643e-01  0 
 -8.012006e-02  -1.933345e-01  0 
 -1.168243e-01  -2.334317e-01  0 
 -8.202345e-02  -2.311420e-01  0 
 -1.196702e-01  -2.749197e-01  0 
 -8.249472e-02  -2.729864e-01  0 
 -1.212789e-01  -3.152629e-01  0 
 -8.190721e-02  -3.135589e-01  0 
 -1.215443e-01  -3.562531e-01  0 
 -8.221570e-02  -3.523278e-01  0 
 -1.405799e-01  -1.775497e-01  0 
 -1.508305e-01  -2.169180e-01  0 
 -1.577839e-01  -2.556505e-01  0 
 -1.601975e-01  -2.966799e-01  0 
 -1.615665e-01  -3.364506e-01  0 
 -1.066242e-01  -1.768800e-01  0 
 -1.255948e-01  -1.952626e-01  0 
 -7.903596e-02  -1.696929e-01  0 
 -9.679706e-02  -1.946047e-01  0 
 -1.147582e-01  -2.130655e-01  0 
 -1.370559e-01  -2.351426e-01  0 
 -8.085736e-02  -2.127199e-01  0 
 -9.811344e-02  -2.316802e-01  0 
 -1.182256e-01  -2.549764e-01  0 
 -1.385457e-01  -2.754374e-01  0 
 -8.324256e-02  -2.507075e-01  0 
 -1.013485e-01  -2.742002e-01  0 
 -6.259986e-02  -2.719286e-01  0 
 -1.208422e-01  -2.945138e-01  0 
 -1.413904e-01  -3.161632e-01  0 
 -8.185072e-02  -2.938974e-01  0 
 -1.013029e-01  -3.142962e-01  0 
 -6.270777e-02  -3.128557e-01  0 
 -1.213881e-01  -3.361277e-01  0 
 -1.415764e-01  -3.564835e-01  0 
 -8.205393e-02  -3.329323e-01  0 
 -1.019971e-01  -3.546704e-01  0 
 -6.321305e-02  -3.512561e-01  0 
 -1.240608e-01  -1.777638e-01  0 
 -9.140195e-02  -1.734782e-01  0 
 -1.316637e-01  -2.147321e-01  0 
 -9.745601e-02  -2.127676e-01  0 
 -1.380716e-01  -2.553764e-01  0 
 -1.001494e-01  -2.531321e-01  0 
 -6.191117e-02  -2.498392e-01  0 
 -1.401122e-01  -2.959193e-01  0 
 -1.013595e-01  -2.940569e-01  0 
 -6.390635e-02  -2.924937e-01  0 
 -1.415744e-01  -3.363094e-01  0 
 -1.014566e-01  -3.348411e-01  0 
 -6.261630e-02  -3.324269e-01  0 
VECTORS displacement_ITER4 FLOAT
 -1.412817e-01  -1.943943e-01  0 
 -1.543772e-01  -2.352738e-01  0 
 -1.561078e-01  -2.746594e-01  0 
 -1.584765e-01  -3.132377e-01  0 
 -1.588550e-01  -3.506773e-01  0 
 -1.070013e-01  -1.924711e-01  0 
 -7.354532e-02  -1.895948e-01  0 
 -1.140390e-01  -2.323736e-01  0 
 -7.747266e-02  -2.293996e-01  0 
 -1.185732e-01  -2.735921e-01  0 
 -8.305966e-02  -2.702127e-01  0 
 -1.209998e-01  -3.119375e-01  0 
 -8.450622e-02  -3.105904e-01  0 
 -1.213127e-01  -3.503603e-01  0 
 -8.574543e-02  -3.466006e-01  0 
 -1.386246e-01  -1.746954e-01  0 
 -1.486323e-01  -2.157063e-01  0 
 -1.554808e-01  -2.547988e-01  0 
 -1.574343e-01  -2.946281e-01  0 
 -1.587457e-01  -3.318683e-01  0 
 -1.018864e-01  -1.736337e-01  0 
 -1.223159e-01  -1.932418e-01  0 
 -7.078532e-02  -1.642576e-01  0 
 -9.199230e-02  -1.913806e-01  0 
 -1.113306e-01  -2.110721e-01  0 
 -1.348226e-01  -2.342653e-01  0 
 -7.515168e-02  -2.102508e-01  0 
 -9.419245e-02  -2.303907e-01  0 
 -1.162450e-01  -2.541730e-01  0 
 -1.365067e-01  -2.742599e-01  0 
 -8.259189e-02  -2.479234e-01  0 
 -1.016106e-01  -2.723908e-01  0 
 -6.340090e-02  -2.683776e-01  0 
 -1.203855e-01  -2.921509e-01  0 
 -1.398546e-01  -3.128574e-01  0 
 -8.336918e-02  -2.914243e-01  0 
 -1.021822e-01  -3.110266e-01  0 
 -6.742040e-02  -3.099304e-01  0 
 -1.211389e-01  -3.315821e-01  0 
 -1.400296e-01  -3.506206e-01  0 
 -8.546769e-02  -3.288218e-01  0 
 -1.033993e-01  -3.486339e-01  0 
 -6.858252e-02  -3.461055e-01  0 
 -1.205371e-01  -1.747397e-01  0 
 -8.572458e-02  -1.692294e-01  0 
 -1.289304e-01  -2.132849e-01  0 
 -9.306019e-02  -2.105943e-01  0 
 -1.359450e-01  -2.546137e-01  0 
 -9.822758e-02  -2.517792e-01  0 
 -6.268082e-02  -2.467192e-01  0 
 -1.384201e-01  -2.938008e-01  0 
 -1.020625e-01  -2.916684e-01  0 
 -6.594109e-02  -2.894017e-01  0 
 -1.400350e-01  -3.317340e-01  0 
 -1.027601e-01  -3.304970e-01  0 
 -6.790349e-02  -3.284062e-01  0 
VECTORS displacement_ITER5 FLOAT
 -1.465491e-01  -1.902298e-01  0 
 -1.565136e-01  -2.314970e-01  0 
 -1.577676e-01  -2.707523e-01  0 
 -1.593420e-01  -3.085791e-01  0 
 -1.596861e-01  -3.453674e-01  0 
 -1.093825e-01  -1.879371e-01  0 
 -7.335474e-02  -1.834758e-01  0 
 -1.162452e-01  -2.288908e-01  0 
 -7.855380e-02  -2.261883e-01  0 
 -1.202179e-01  -2.697827e-01  0 
 -8.528583e-02  -2.665036e-01  0 
 -1.224351e-01  -3.072808e-01  0 
 -8.643936e-02  -3.056841e-01  0 
 -1.227880e-01  -3.450221e-01  0 
 -8.761267e-02  -3.406739e-01  0 
 -1.447978e-01  -1.691998e-01  0 
 -1.520346e-01  -2.118296e-01  0 
 -1.573493e-01  -2.510066e-01  0 
 -1.585680e-01  -2.903463e-01  0 
 -1.595834e-01  -3.268839e-01  0 
 -1.038978e-01  -1.679070e-01  0 
 -1.261685e-01  -1.891757e-01  0 
 -6.880677e-02  -1.562825e-01  0 
 -9.336127e-02  -1.861736e-01  0 
 -1.137324e-01  -2.071387e-01  0 
 -1.369629e-01  -2.306277e-01  0 
 -7.567699e-02  -2.059219e-01  0 
 -9.594498e-02  -2.270880e-01  0 
 -1.181863e-01  -2.505502e-01  0 
 -1.382593e-01  -2.704281e-01  0 
 -8.451093e-02  -2.455227e-01  0 
 -1.033466e-01  -2.686301e-01  0 
 -6.699075e-02  -2.647204e-01  0 
 -1.218292e-01  -2.879362e-01  0 
 -1.410303e-01  -3.082107e-01  0 
 -8.555553e-02  -2.870984e-01  0 
 -1.039088e-01  -3.062912e-01  0 
 -6.975609e-02  -3.049483e-01  0 
 -1.226003e-01  -3.265677e-01  0 
 -1.411852e-01  -3.453043e-01  0 
 -8.725210e-02  -3.232363e-01  0 
 -1.051123e-01  -3.431074e-01  0 
 -7.053185e-02  -3.400009e-01  0 
 -1.245351e-01  -1.691484e-01  0 
 -8.614871e-02  -1.625665e-01  0 
 -1.319896e-01  -2.096699e-01  0 
 -9.471865e-02  -2.065053e-01  0 
 -1.378475e-01  -2.508753e-01  0 
 -9.999747e-02  -2.486238e-01  0 
 -6.676602e-02  -2.448748e-01  0 
 -1.398216e-01  -2.896133e-01  0 
 -1.038043e-01  -2.873914e-01  0 
 -6.855388e-02  -2.853415e-01  0 
 -1.411885e-01  -3.267492e-01  0 
 -1.044101e-01  -3.252517e-01  0 
 -7.010576e-02  -3.226763e-01  0 
VECTORS displacement_ITER6 FLOAT
 -1.437487e-01  -1.901708e-01  0 
 -1.550550e-01  -2.301267e-01  0 
 -1.567278e-01  -2.691125e-01  0 
 -1.588441e-01  -3.075012e-01  0 
 -1.592066e-01  -3.448247e-01  0 
 -1.080367e-01  -1.877164e-01  0 
 -7.407788e-02  -1.826648e-01  0 
 -1.153081e-01  -2.272679e-01  0 
 -7.896202e-02  -2.246534e-01  0 
 -1.192279e-01  -2.681495e-01  0 
 -8.397359e-02  -2.650407e-01  0 
 -1.214405e-01  -3.061962e-01  0 
 -8.491386e-02  -3.046379e-01  0 
 -1.217814e-01  -3.445000e-01  0 
 -8.606744e-02  -3.406819e-01  0 
 -1.419497e-01  -1.698242e-01  0 
 -1.497715e-01  -2.110735e-01  0 
 -1.561284e-01  -2.494112e-01  0 
 -1.579060e-01  -2.889607e-01  0 
 -1.591003e-01  -3.260759e-01  0 
 -1.022773e-01  -1.685009e-01  0 
 -1.240097e-01  -1.890579e-01  0 
 -7.065545e-02  -1.584116e-01  0 
 -9.306494e-02  -1.858139e-01  0 
 -1.126802e-01  -2.060310e-01  0 
 -1.357751e-01  -2.291462e-01  0 
 -7.616147e-02  -2.048033e-01  0 
 -9.557182e-02  -2.253704e-01  0 
 -1.172228e-01  -2.488563e-01  0 
 -1.372431e-01  -2.687556e-01  0 
 -8.324084e-02  -2.439662e-01  0 
 -1.021763e-01  -2.670929e-01  0 
 -6.566789e-02  -2.633055e-01  0 
 -1.208327e-01  -2.865769e-01  0 
 -1.402700e-01  -3.071274e-01  0 
 -8.413182e-02  -2.857790e-01  0 
 -1.026899e-01  -3.052165e-01  0 
 -6.781181e-02  -3.039289e-01  0 
 -1.216014e-01  -3.257734e-01  0 
 -1.404416e-01  -3.447653e-01  0 
 -8.570855e-02  -3.226553e-01  0 
 -1.038674e-01  -3.427532e-01  0 
 -6.823710e-02  -3.401980e-01  0 
 -1.222152e-01  -1.696588e-01  0 
 -8.551258e-02  -1.637278e-01  0 
 -1.303270e-01  -2.087075e-01  0 
 -9.448813e-02  -2.053541e-01  0 
 -1.367731e-01  -2.492256e-01  0 
 -9.922622e-02  -2.468453e-01  0 
 -6.544112e-02  -2.433855e-01  0 
 -1.389427e-01  -2.881867e-01  0 
 -1.025878e-01  -2.860493e-01  0 
 -6.688467e-02  -2.842029e-01  0 
 -1.404445e-01  -3.259406e-01  0 
 -1.032098e-01  -3.245733e-01  0 
 -6.802372e-02  -3.221126e-01  0 
VECTORS displacement_ITER7 FLOAT
 -1.430777e-01  -1.891446e-01  0 
 -1.544705e-01  -2.290866e-01  0 
 -1.561791e-01  -2.681042e-01  0 
 -1.581147e-01  -3.066074e-01  0 
 -1.584494e-01  -3.439469e-01  0 
 -1.073457e-01  -1.867905e-01  0 
 -7.407161e-02  -1.814816e-01  0 
 -1.147882e-01  -2.261703e-01  0 
 -7.883810e-02  -2.237438e-01  0 
 -1.185517e-01  -2.672177e-01  0 
 -8.312666e-02  -2.643034e-01  0 
 -1.206689e-01  -3.053383e-01  0 
 -8.418265e-02  -3.037392e-01  0 
 -1.210323e-01  -3.435943e-01  0 
 -8.545081e-02  -3.395324e-01  0 
 -1.412486e-01  -1.687170e-01  0 
 -1.491119e-01  -2.100811e-01  0 
 -1.555732e-01  -2.483714e-01  0 
 -1.572808e-01  -2.880156e-01  0 
 -1.583496e-01  -3.251960e-01  0 
 -1.014794e-01  -1.675111e-01  0 
 -1.232637e-01  -1.880558e-01  0 
 -7.127099e-02  -1.589406e-01  0 
 -9.269682e-02  -1.849253e-01  0 
 -1.121469e-01  -2.049984e-01  0 
 -1.352020e-01  -2.280878e-01  0 
 -7.599766e-02  -2.038555e-01  0 
 -9.519001e-02  -2.242806e-01  0 
 -1.166276e-01  -2.478131e-01  0 
 -1.366560e-01  -2.677668e-01  0 
 -8.228839e-02  -2.432648e-01  0 
 -1.014009e-01  -2.662616e-01  0 
 -6.479919e-02  -2.626138e-01  0 
 -1.200812e-01  -2.857321e-01  0 
 -1.395184e-01  -3.062475e-01  0 
 -8.335876e-02  -2.849831e-01  0 
 -1.019061e-01  -3.043603e-01  0 
 -6.728643e-02  -3.029800e-01  0 
 -1.208409e-01  -3.248870e-01  0 
 -1.396834e-01  -3.438810e-01  0 
 -8.503752e-02  -3.215725e-01  0 
 -1.031644e-01  -3.417243e-01  0 
 -6.759573e-02  -3.390679e-01  0 
 -1.214315e-01  -1.685096e-01  0 
 -8.489139e-02  -1.634169e-01  0 
 -1.296790e-01  -2.076972e-01  0 
 -9.418524e-02  -2.043127e-01  0 
 -1.362072e-01  -2.481761e-01  0 
 -9.864377e-02  -2.458767e-01  0 
 -6.450793e-02  -2.427339e-01  0 
 -1.382606e-01  -2.872825e-01  0 
 -1.017959e-01  -2.852314e-01  0 
 -6.616894e-02  -2.835133e-01  0 
 -1.396840e-01  -3.250628e-01  0 
 -1.024603e-01  -3.236196e-01  0 
 -6.748813e-02  -3.209707e-01  0 
VECTORS displacement_ITER8 FLOAT
 -1.440830e-01  -1.892772e-01  0 
 -1.551277e-01  -2.295794e-01  0 
 -1.567045e-01  -2.686079e-01  0 
 -1.583130e-01  -3.068673e-01  0 
 -1.586236e-01  -3.439151e-01  0 
 -1.080292e-01  -1.870299e-01  0 
 -7.447986e-02  -1.816873e-01  0 
 -1.154266e-01  -2.267286e-01  0 
 -7.936480e-02  -2.244457e-01  0 
 -1.190754e-01  -2.677774e-01  0 
 -8.381479e-02  -2.649524e-01  0 
 -1.211268e-01  -3.056209e-01  0 
 -8.495681e-02  -3.039796e-01  0 
 -1.215085e-01  -3.435388e-01  0 
 -8.628118e-02  -3.391231e-01  0 
 -1.422240e-01  -1.686778e-01  0 
 -1.499924e-01  -2.104281e-01  0 
 -1.561627e-01  -2.488928e-01  0 
 -1.576098e-01  -2.884108e-01  0 
 -1.585292e-01  -3.253128e-01  0 
 -1.021755e-01  -1.674999e-01  0 
 -1.240987e-01  -1.882188e-01  0 
 -7.161565e-02  -1.591149e-01  0 
 -9.325869e-02  -1.852146e-01  0 
 -1.128334e-01  -2.054521e-01  0 
 -1.358247e-01  -2.286113e-01  0 
 -7.642053e-02  -2.043757e-01  0 
 -9.577258e-02  -2.249014e-01  0 
 -1.172082e-01  -2.483746e-01  0 
 -1.372014e-01  -2.682978e-01  0 
 -8.288885e-02  -2.441317e-01  0 
 -1.019834e-01  -2.668650e-01  0 
 -6.566194e-02  -2.632878e-01  0 
 -1.205517e-01  -2.861867e-01  0 
 -1.398514e-01  -3.065179e-01  0 
 -8.410788e-02  -2.854508e-01  0 
 -1.024962e-01  -3.046369e-01  0 
 -6.838891e-02  -3.031947e-01  0 
 -1.213076e-01  -3.249934e-01  0 
 -1.400064e-01  -3.438440e-01  0 
 -8.583156e-02  -3.214644e-01  0 
 -1.037986e-01  -3.415335e-01  0 
 -6.870521e-02  -3.385891e-01  0 
 -1.222851e-01  -1.684524e-01  0 
 -8.540445e-02  -1.635245e-01  0 
 -1.304183e-01  -2.081020e-01  0 
 -9.477095e-02  -2.047836e-01  0 
 -1.367914e-01  -2.487113e-01  0 
 -9.922711e-02  -2.465609e-01  0 
 -6.538053e-02  -2.436654e-01  0 
 -1.386850e-01  -2.877217e-01  0 
 -1.023828e-01  -2.856927e-01  0 
 -6.712448e-02  -2.840363e-01  0 
 -1.400057e-01  -3.251808e-01  0 
 -1.030516e-01  -3.236358e-01  0 
 -6.861353e-02  -3.208163e-01  0 
VECTORS displacement_ITER9 FLOAT
 -1.443318e-01  -1.892659e-01  0 
 -1.553070e-01  -2.295891e-01  0 
 -1.568648e-01  -2.685788e-01  0 
 -1.585191e-01  -3.067971e-01  0 
 -1.588333e-01  -3.438308e-01  0 
 -1.083547e-01  -1.870760e-01  0 
 -7.445634e-02  -1.815959e-01  0 
 -1.156283e-01  -2.267837e-01  0 
 -7.973026e-02  -2.245990e-01  0 
 -1.192986e-01  -2.677154e-01  0 
 -8.398060e-02  -2.647955e-01  0 
 -1.213550e-01  -3.055514e-01  0 
 -8.518072e-02  -3.039219e-01  0 
 -1.217309e-01  -3.434560e-01  0 
 -8.653911e-02  -3.390637e-01  0 
 -1.424233e-01  -1.688292e-01  0 
 -1.502384e-01  -2.104194e-01  0 
 -1.563253e-01  -2.488890e-01  0 
 -1.577936e-01  -2.883556e-01  0 
 -1.587382e-01  -3.252347e-01  0 
 -1.025667e-01  -1.675272e-01  0 
 -1.244370e-01  -1.882338e-01  0 
 -7.106347e-02  -1.587278e-01  0 
 -9.345857e-02  -1.852476e-01  0 
 -1.130753e-01  -2.055384e-01  0 
 -1.360119e-01  -2.286346e-01  0 
 -7.653380e-02  -2.045462e-01  0 
 -9.595493e-02  -2.249966e-01  0 
 -1.174143e-01  -2.483667e-01  0 
 -1.373874e-01  -2.682608e-01  0 
 -8.303320e-02  -2.437846e-01  0 
 -1.022149e-01  -2.667586e-01  0 
 -6.560748e-02  -2.630898e-01  0 
 -1.207844e-01  -2.861086e-01  0 
 -1.400678e-01  -3.064466e-01  0 
 -8.429921e-02  -2.853794e-01  0 
 -1.027187e-01  -3.045755e-01  0 
 -6.863491e-02  -3.031159e-01  0 
 -1.215311e-01  -3.249179e-01  0 
 -1.402223e-01  -3.437602e-01  0 
 -8.607974e-02  -3.213961e-01  0 
 -1.040344e-01  -3.414542e-01  0 
 -6.893078e-02  -3.385552e-01  0 
 -1.226578e-01  -1.685193e-01  0 
 -8.551908e-02  -1.633240e-01  0 
 -1.306656e-01  -2.081256e-01  0 
 -9.499955e-02  -2.049172e-01  0 
 -1.369714e-01  -2.487095e-01  0 
 -9.942506e-02  -2.464667e-01  0 
 -6.519679e-02  -2.431215e-01  0 
 -1.388924e-01  -2.876565e-01  0 
 -1.026114e-01  -2.856169e-01  0 
 -6.724683e-02  -2.839574e-01  0 
 -1.402221e-01  -3.251029e-01  0 
 -1.032847e-01  -3.235707e-01  0 
 -6.887638e-02  -3.207483e-01  0 
VECTORS displacement_ITER10 FLOAT
 -1.441139e-01  -1.891305e-01  0 
 -1.552171e-01  -2.293523e-01  0 
 -1.568222e-01  -2.683419e-01  0 
 -1.586275e-01  -3.066745e-01  0 
 -1.589533e-01  -3.438549e-01  0 
 -1.083030e-01  -1.869476e-01  0 
 -7.441773e-02  -1.814246e-01  0 
 -1.155498e-01  -2.265422e-01  0 
 -7.978659e-02  -2.243539e-01  0 
 -1.192482e-01  -2.674478e-01  0 
 -8.383259e-02  -2.644746e-01  0 
 -1.213301e-01  -3.054162e-01  0 
 -8.498808e-02  -3.037922e-01  0 
 -1.216992e-01  -3.434917e-01  0 
 -8.631768e-02  -3.392860e-01  0 
 -1.421753e-01  -1.688352e-01  0 
 -1.500854e-01  -2.102209e-01  0 
 -1.562568e-01  -2.486440e-01  0 
 -1.578399e-01  -2.881672e-01  0 
 -1.588557e-01  -3.251840e-01  0 
 -1.025455e-01  -1.674812e-01  0 
 -1.243253e-01  -1.881026e-01  0 
 -7.096628e-02  -1.586776e-01  0 
 -9.341900e-02  -1.851092e-01  0 
 -1.129970e-01  -2.053496e-01  0 
 -1.359312e-01  -2.283919e-01  0 
 -7.651564e-02  -2.043740e-01  0 
 -9.590021e-02  -2.247546e-01  0 
 -1.173479e-01  -2.481059e-01  0 
 -1.373342e-01  -2.680109e-01  0 
 -8.289993e-02  -2.434051e-01  0 
 -1.021238e-01  -2.664677e-01  0 
 -6.541647e-02  -2.627342e-01  0 
 -1.207523e-01  -2.858891e-01  0 
 -1.401082e-01  -3.063186e-01  0 
 -8.412699e-02  -2.851450e-01  0 
 -1.026248e-01  -3.044382e-01  0 
 -6.826834e-02  -3.029870e-01  0 
 -1.215036e-01  -3.248721e-01  0 
 -1.402674e-01  -3.437868e-01  0 
 -8.587251e-02  -3.214402e-01  0 
 -1.039223e-01  -3.415588e-01  0 
 -6.851648e-02  -3.388185e-01  0 
 -1.225522e-01  -1.684870e-01  0 
 -8.546448e-02  -1.632327e-01  0 
 -1.305592e-01  -2.079197e-01  0 
 -9.496612e-02  -2.047409e-01  0 
 -1.369023e-01  -2.484588e-01  0 
 -9.935239e-02  -2.461529e-01  0 
 -6.499267e-02  -2.426972e-01  0 
 -1.388916e-01  -2.874472e-01  0 
 -1.025185e-01  -2.853905e-01  0 
 -6.698219e-02  -2.837071e-01  0 
 -1.402679e-01  -3.250517e-01  0 
 -1.031927e-01  -3.235652e-01  0 
 -6.848754e-02  -3.208134e-01  0 
VECTORS displacement_ITER11 FLOAT
 -1.440980e-01  -1.891034e-01  0 
 -1.551408e-01  -2.293918e-01  0 
 -1.567210e-01  -2.683697e-01  0 
 -1.584841e-01  -3.066403e-01  0 
 -1.588087e-01  -3.437582e-01  0 
 -1.082399e-01  -1.869429e-01  0 
 -7.430985e-02  -1.814320e-01  0 
 -1.154819e-01  -2.265965e-01  0 
 -7.969423e-02  -2.244092e-01  0 
 -1.191615e-01  -2.674830e-01  0 
 -8.382066e-02  -2.645187e-01  0 
 -1.212434e-01  -3.053789e-01  0 
 -8.496357e-02  -3.037389e-01  0 
 -1.216166e-01  -3.433945e-01  0 
 -8.627718e-02  -3.391827e-01  0 
 -1.421475e-01  -1.687866e-01  0 
 -1.500527e-01  -2.102344e-01  0 
 -1.561670e-01  -2.486825e-01  0 
 -1.577098e-01  -2.881664e-01  0 
 -1.587112e-01  -3.251185e-01  0 
 -1.024971e-01  -1.674420e-01  0 
 -1.242859e-01  -1.880816e-01  0 
 -7.095318e-02  -1.587909e-01  0 
 -9.333038e-02  -1.851171e-01  0 
 -1.129344e-01  -2.053851e-01  0 
 -1.358544e-01  -2.284381e-01  0 
 -7.639500e-02  -2.044092e-01  0 
 -9.582438e-02  -2.248209e-01  0 
 -1.172709e-01  -2.481537e-01  0 
 -1.372438e-01  -2.680428e-01  0 
 -8.285980e-02  -2.436104e-01  0 
 -1.020591e-01  -2.665110e-01  0 
 -6.557569e-02  -2.627629e-01  0 
 -1.206609e-01  -2.858900e-01  0 
 -1.399951e-01  -3.062845e-01  0 
 -8.411708e-02  -2.851301e-01  0 
 -1.025713e-01  -3.043928e-01  0 
 -6.825911e-02  -3.029344e-01  0 
 -1.214203e-01  -3.248051e-01  0 
 -1.401540e-01  -3.436899e-01  0 
 -8.583446e-02  -3.213596e-01  0 
 -1.038656e-01  -3.414610e-01  0 
 -6.849498e-02  -3.387053e-01  0 
 -1.225164e-01  -1.684316e-01  0 
 -8.539308e-02  -1.632510e-01  0 
 -1.305026e-01  -2.079444e-01  0 
 -9.488126e-02  -2.047751e-01  0 
 -1.368182e-01  -2.485002e-01  0 
 -9.928714e-02  -2.462423e-01  0 
 -6.520895e-02  -2.429754e-01  0 
 -1.387862e-01  -2.874507e-01  0 
 -1.024610e-01  -2.853849e-01  0 
 -6.704006e-02  -2.836941e-01  0 
 -1.401544e-01  -3.249861e-01  0 
 -1.031363e-01  -3.234899e-01  0 
 -6.847042e-02  -3.207344e-01  0 
VECTORS displacement_ITER12 FLOAT
 -1.441837e-01  -1.890473e-01  0 
 -1.551662e-01  -2.293749e-01  0 
 -1.567322e-01  -2.683641e-01  0 
 -1.584667e-01  -3.066148e-01  0 
 -1.587896e-01  -3.437080e-01  0 
 -1.082468e-01  -1.868850e-01  0 
 -7.425381e-02  -1.813663e-01  0 
 -1.154872e-01  -2.265837e-01  0 
 -7.966082e-02  -2.243780e-01  0 
 -1.191669e-01  -2.674803e-01  0 
 -8.383192e-02  -2.645112e-01  0 
 -1.212478e-01  -3.053545e-01  0 
 -8.499744e-02  -3.037120e-01  0 
 -1.216229e-01  -3.433425e-01  0 
 -8.631527e-02  -3.391044e-01  0 
 -1.422462e-01  -1.686933e-01  0 
 -1.501056e-01  -2.102008e-01  0 
 -1.561850e-01  -2.486738e-01  0 
 -1.577030e-01  -2.881526e-01  0 
 -1.586925e-01  -3.250808e-01  0 
 -1.025074e-01  -1.673539e-01  0 
 -1.243330e-01  -1.880283e-01  0 
 -7.094641e-02  -1.587504e-01  0 
 -9.330559e-02  -1.850529e-01  0 
 -1.129396e-01  -2.053510e-01  0 
 -1.358704e-01  -2.284238e-01  0 
 -7.633827e-02  -2.043667e-01  0 
 -9.580706e-02  -2.248067e-01  0 
 -1.172767e-01  -2.481487e-01  0 
 -1.372527e-01  -2.680393e-01  0 
 -8.284941e-02  -2.436325e-01  0 
 -1.020683e-01  -2.665085e-01  0 
 -6.561447e-02  -2.627429e-01  0 
 -1.206649e-01  -2.858789e-01  0 
 -1.399893e-01  -3.062596e-01  0 
 -8.414253e-02  -2.851158e-01  0 
 -1.025870e-01  -3.043674e-01  0 
 -6.831697e-02  -3.029053e-01  0 
 -1.214258e-01  -3.247667e-01  0 
 -1.401473e-01  -3.436394e-01  0 
 -8.587154e-02  -3.213094e-01  0 
 -1.038856e-01  -3.413989e-01  0 
 -6.856636e-02  -3.386206e-01  0 
 -1.225676e-01  -1.683372e-01  0 
 -8.536811e-02  -1.631743e-01  0 
 -1.305341e-01  -2.079160e-01  0 
 -9.485936e-02  -2.047375e-01  0 
 -1.368301e-01  -2.484934e-01  0 
 -9.928537e-02  -2.462427e-01  0 
 -6.525579e-02  -2.430110e-01  0 
 -1.387869e-01  -2.874400e-01  0 
 -1.024746e-01  -2.853733e-01  0 
 -6.708577e-02  -2.836737e-01  0 
 -1.401476e-01  -3.249485e-01  0 
 -1.031533e-01  -3.234454e-01  0 
 -6.853633e-02  -3.206841e-01  0 
VECTORS displacement_ITER13 FLOAT
 -1.441021e-01  -1.890600e-01  0 
 -1.551402e-01  -2.293497e-01  0 
 -1.567210e-01  -2.683477e-01  0 
 -1.584670e-01  -3.066377e-01  0 
 -1.587895e-01  -3.437679e-01  0 
 -1.082190e-01  -1.868912e-01  0 
 -7.429487e-02  -1.813763e-01  0 
 -1.154631e-01  -2.265491e-01  0 
 -7.968127e-02  -2.243288e-01  0 
 -1.191378e-01  -2.674665e-01  0 
 -8.376616e-02  -2.645106e-01  0 
 -1.212125e-01  -3.053795e-01  0 
 -8.492951e-02  -3.037422e-01  0 
 -1.215864e-01  -3.434022e-01  0 
 -8.624353e-02  -3.391567e-01  0 
 -1.421622e-01  -1.687306e-01  0 
 -1.500478e-01  -2.101904e-01  0 
 -1.561677e-01  -2.486498e-01  0 
 -1.577015e-01  -2.881548e-01  0 
 -1.586925e-01  -3.251225e-01  0 
 -1.024795e-01  -1.673964e-01  0 
 -1.242761e-01  -1.880379e-01  0 
 -7.108356e-02  -1.588479e-01  0 
 -9.330928e-02  -1.850586e-01  0 
 -1.129146e-01  -2.053295e-01  0 
 -1.358453e-01  -2.283946e-01  0 
 -7.635884e-02  -2.043477e-01  0 
 -9.579786e-02  -2.247651e-01  0 
 -1.172504e-01  -2.481207e-01  0 
 -1.372331e-01  -2.680224e-01  0 
 -8.278761e-02  -2.436067e-01  0 
 -1.020212e-01  -2.665011e-01  0 
 -6.552079e-02  -2.627433e-01  0 
 -1.206322e-01  -2.858869e-01  0 
 -1.399708e-01  -3.062830e-01  0 
 -8.407551e-02  -2.851293e-01  0 
 -1.025355e-01  -3.043948e-01  0 
 -6.823325e-02  -3.029384e-01  0 
 -1.213895e-01  -3.248083e-01  0 
 -1.401291e-01  -3.436992e-01  0 
 -8.580102e-02  -3.213536e-01  0 
 -1.038305e-01  -3.414574e-01  0 
 -6.849097e-02  -3.386672e-01  0 
 -1.225050e-01  -1.683734e-01  0 
 -8.538376e-02  -1.632304e-01  0 
 -1.304933e-01  -2.078979e-01  0 
 -9.485722e-02  -2.047165e-01  0 
 -1.368090e-01  -2.484672e-01  0 
 -9.926020e-02  -2.462083e-01  0 
 -6.515426e-02  -2.429828e-01  0 
 -1.387681e-01  -2.874426e-01  0 
 -1.024242e-01  -2.853841e-01  0 
 -6.700943e-02  -2.836949e-01  0 
 -1.401293e-01  -3.249902e-01  0 
 -1.030988e-01  -3.234875e-01  0 
 -6.845585e-02  -3.207298e-01  0 
VECTORS displacement_ITER14 FLOAT
 -1.440857e-01  -1.890726e-01  0 
 -1.551252e-01  -2.293672e-01  0 
 -1.567018e-01  -2.683628e-01  0 
 -1.584335e-01  -3.066357e-01  0 
 -1.587549e-01  -3.437438e-01  0 
 -1.082009e-01  -1.868961e-01  0 
 -7.425855e-02  -1.813770e-01  0 
 -1.154474e-01  -2.265663e-01  0 
 -7.966150e-02  -2.243409e-01  0 
 -1.191257e-01  -2.674837e-01  0 
 -8.376586e-02  -2.645278e-01  0 
 -1.212000e-01  -3.053790e-01  0 
 -8.494320e-02  -3.037437e-01  0 
 -1.215744e-01  -3.433769e-01  0 
 -8.626318e-02  -3.391111e-01  0 
 -1.421483e-01  -1.687371e-01  0 
 -1.500332e-01  -2.102051e-01  0 
 -1.561511e-01  -2.486671e-01  0 
 -1.576740e-01  -2.881627e-01  0 
 -1.586581e-01  -3.251096e-01  0 
 -1.024557e-01  -1.674033e-01  0 
 -1.242559e-01  -1.880480e-01  0 
 -7.102954e-02  -1.587851e-01  0 
 -9.328831e-02  -1.850601e-01  0 
 -1.128985e-01  -2.053400e-01  0 
 -1.358303e-01  -2.284121e-01  0 
 -7.632887e-02  -2.043613e-01  0 
 -9.577687e-02  -2.247817e-01  0 
 -1.172362e-01  -2.481392e-01  0 
 -1.372170e-01  -2.680384e-01  0 
 -8.278006e-02  -2.436219e-01  0 
 -1.020171e-01  -2.665191e-01  0 
 -6.551593e-02  -2.627592e-01  0 
 -1.206203e-01  -2.858972e-01  0 
 -1.399478e-01  -3.062815e-01  0 
 -8.408201e-02  -2.851420e-01  0 
 -1.025332e-01  -3.043953e-01  0 
 -6.827153e-02  -3.029400e-01  0 
 -1.213771e-01  -3.247951e-01  0 
 -1.401056e-01  -3.436748e-01  0 
 -8.581914e-02  -3.213337e-01  0 
 -1.038316e-01  -3.414241e-01  0 
 -6.854043e-02  -3.386184e-01  0 
 -1.224815e-01  -1.683814e-01  0 
 -8.536052e-02  -1.632045e-01  0 
 -1.304775e-01  -2.079110e-01  0 
 -9.483514e-02  -2.047282e-01  0 
 -1.367938e-01  -2.484853e-01  0 
 -9.924871e-02  -2.462265e-01  0 
 -6.514542e-02  -2.429946e-01  0 
 -1.387486e-01  -2.874522e-01  0 
 -1.024215e-01  -2.853957e-01  0 
 -6.703060e-02  -2.837101e-01  0 
 -1.401058e-01  -3.249773e-01  0 
 -1.030976e-01  -3.234711e-01  0 
 -6.850052e-02  -3.207088e-01  0 
VECTORS displacement_ITER15 FLOAT
 -1.440872e-01  -1.890817e-01  0 
 -1.551343e-01  -2.293603e-01  0 
 -1.567151e-01  -2.683526e-01  0 
 -1.584569e-01  -3.066333e-01  0 
 -1.587789e-01  -3.437516e-01  0 
 -1.082172e-01  -1.869019e-01  0 
 -7.428482e-02  -1.813830e-01  0 
 -1.154620e-01  -2.265587e-01  0 
 -7.969196e-02  -2.243315e-01  0 
 -1.191399e-01  -2.674721e-01  0 
 -8.377474e-02  -2.645163e-01  0 
 -1.212141e-01  -3.053761e-01  0 
 -8.494556e-02  -3.037412e-01  0 
 -1.215879e-01  -3.433853e-01  0 
 -8.626249e-02  -3.391289e-01  0 