# vtk DataFile Version 3.1
this is an vtk file created by FEMAC
ASCII
DATASET UNSTRUCTURED_GRID
POINTS 55 FLOAT
5.000000 5.000000 0.000000
5.000000 6.000000 0.000000
5.000000 7.000000 0.000000
6.000000 5.000000 0.000000
6.000000 6.000000 0.000000
6.000000 7.000000 0.000000
7.000000 5.000000 0.000000
7.000000 6.000000 0.000000
8.000000 5.000000 0.000000
8.000000 6.000000 0.000000
9.000000 5.000000 0.000000
9.000000 6.000000 0.000000
4.500000 5.000000 0.000000
5.000000 4.500000 0.000000
4.500000 6.000000 0.000000
5.000000 5.500000 0.000000
4.500000 7.000000 0.000000
5.000000 6.500000 0.000000
5.500000 5.000000 0.000000
6.000000 4.500000 0.000000
5.500000 6.000000 0.000000
6.000000 5.500000 0.000000
5.500000 7.000000 0.000000
6.000000 6.500000 0.000000
6.500000 5.000000 0.000000
7.000000 4.500000 0.000000
6.500000 6.000000 0.000000
7.000000 5.500000 0.000000
6.500000 7.000000 0.000000
7.000000 6.500000 0.000000
7.500000 5.000000 0.000000
8.000000 4.500000 0.000000
7.500000 6.000000 0.000000
8.000000 5.500000 0.000000
8.000000 6.500000 0.000000
8.500000 5.000000 0.000000
9.000000 4.500000 0.000000
8.500000 6.000000 0.000000
9.000000 5.500000 0.000000
9.000000 6.500000 0.000000
4.500000 4.500000 0.000000
4.500000 5.500000 0.000000
4.500000 6.500000 0.000000
5.500000 4.500000 0.000000
5.500000 5.500000 0.000000
5.500000 6.500000 0.000000
6.500000 4.500000 0.000000
6.500000 5.500000 0.000000
6.500000 6.500000 0.000000
7.500000 4.500000 0.000000
7.500000 5.500000 0.000000
7.500000 6.500000 0.000000
8.500000 4.500000 0.000000
8.500000 5.500000 0.000000
8.500000 6.500000 0.000000
CELLS 40 200 
4 40 13  0 12
4 12  0 15 41
4 41 15  1 14
4 14  1 17 42
4 42 17  2 16
4 13 43 18  0
4 43 19  3 18
4 0 18 44 15
4 15 44 20  1
4 18  3 21 44
4 44 21  4 20
4 1 20 45 17
4 17 45 22  2
4 20  4 23 45
4 45 23  5 22
4 19 46 24  3
4 46 25  6 24
4 3 24 47 21
4 21 47 26  4
4 24  6 27 47
4 47 27  7 26
4 4 26 48 23
4 23 48 28  5
4 26  7 29 48
4 25 49 30  6
4 49 31  8 30
4 6 30 50 27
4 27 50 32  7
4 30  8 33 50
4 50 33  9 32
4 7 32 51 29
4 32  9 34 51
4 31 52 35  8
4 52 36 10 35
4 8 35 53 33
4 33 53 37  9
4 35 10 38 53
4 53 38 11 37
4 9 37 54 34
4 37 11 39 54
CELL_TYPES 40
9 9 9 9 9 9 9 9 9 9 9 9 9 9 9 9 9 9 9 9 9 9 9 9 9 9 9 9 9 9 9 9 9 9 9 9 9 9 9 9 
POINT_DATA 55
VECTORS displacement_ITER1 FLOAT
 -4.972370e-03  -6.308663e-02  0 
 4.426969e-03  -6.323756e-02  0 
 1.702908e-02  -6.357184e-02  0 
 -5.589119e-03  -7.736555e-02  0 
 5.968328e-03  -7.781580e-02  0 
 1.760827e-02  -7.859040e-02  0 
 -5.209836e-03  -9.232277e-02  0 
 6.386084e-03  -9.239348e-02  0 
 -4.210677e-03  -1.056062e-01  0 
 6.166238e-03  -1.057363e-01  0 
 -3.677933e-03  -1.158684e-01  0 
 5.902232e-03  -1.160631e-01  0 
 -5.037632e-03  -5.760681e-02  0 
 -9.728690e-03  -6.281002e-02  0 
 4.327534e-03  -5.666971e-02  0 
 -4.117915e-04  -6.341323e-02  0 
 1.497804e-02  -5.466543e-02  0 
 9.989051e-03  -6.318431e-02  0 
 -5.357816e-03  -6.991079e-02  0 
 -1.180784e-02  -7.729654e-02  0 
 5.224759e-03  -7.049849e-02  0 
 2.196736e-04  -7.751269e-02  0 
 1.757428e-02  -7.145816e-02  0 
 1.178443e-02  -7.824914e-02  0 
 -5.513161e-03  -8.493952e-02  0 
 -1.128147e-02  -9.217774e-02  0 
 6.323731e-03  -8.510167e-02  0 
 6.081359e-04  -9.238000e-02  0 
 1.712710e-02  -8.454481e-02  0 
 1.262216e-02  -9.253063e-02  0 
 -4.745218e-03  -9.927386e-02  0 
 -9.373356e-03  -1.055337e-01  0 
 6.370984e-03  -9.942255e-02  0 
 9.378242e-04  -1.056288e-01  0 
 1.150023e-02  -1.058105e-01  0 
 -3.790083e-03  -1.111795e-01  0 
 -7.410013e-03  -1.159146e-01  0 
 5.942600e-03  -1.112716e-01  0 
 1.063892e-03  -1.160675e-01  0 
 9.940480e-03  -1.160943e-01  0 
 -7.052332e-03  -5.764173e-02  0 
 -4.568423e-04  -5.756043e-02  0 
 8.744380e-03  -5.507349e-02  0 
 -1.121204e-02  -6.988741e-02  0 
 -9.834259e-05  -7.013306e-02  0 
 1.108421e-02  -7.101664e-02  0 
 -1.178972e-02  -8.481667e-02  0 
 4.422303e-04  -8.503470e-02  0 
 1.218785e-02  -8.498975e-02  0 
 -1.042258e-02  -9.913854e-02  0 
 7.761064e-04  -9.932563e-02  0 
 1.224855e-02  -9.951588e-02  0 
 -8.298823e-03  -1.112220e-01  0 
 1.024663e-03  -1.111157e-01  0 
 1.067137e-02  -1.113927e-01  0 
VECTORS displacement_ITER2 FLOAT
 -2.461071e-04  -5.671424e-02  0 
 8.240820e-03  -5.680767e-02  0 
 1.992442e-02  -5.695800e-02  0 
 -8.739846e-04  -7.001722e-02  0 
 9.798430e-03  -7.041623e-02  0 
 2.059572e-02  -7.114025e-02  0 
 -5.649343e-04  -8.412084e-02  0 
 1.028745e-02  -8.417137e-02  0 
 3.575543e-04  -9.673862e-02  0 
 1.015220e-02  -9.688970e-02  0 
 8.709007e-04  -1.064704e-01  0 
 9.936827e-03  -1.067438e-01  0 
 -3.564943e-04  -5.173590e-02  0 
 -4.555762e-03  -5.641811e-02  0 
 8.155178e-03  -5.076264e-02  0 
 3.854404e-03  -5.702692e-02  0 
 1.792515e-02  -4.849450e-02  0 
 1.335841e-02  -5.666775e-02  0 
 -6.269612e-04  -6.304361e-02  0 
 -6.620657e-03  -6.997437e-02  0 
 9.039225e-03  -6.356533e-02  0 
 4.487468e-03  -7.013867e-02  0 
 2.050768e-02  -6.441184e-02  0 
 1.518308e-02  -7.082474e-02  0 
 -8.284464e-04  -7.714195e-02  0 
 -6.246876e-03  -8.399983e-02  0 
 1.018584e-02  -7.726896e-02  0 
 4.875855e-03  -8.416520e-02  0 
 2.015277e-02  -7.669062e-02  0 
 1.617059e-02  -8.431325e-02  0 
 -1.420331e-04  -9.071637e-02  0 
 -4.508764e-03  -9.666868e-02  0 
 1.031670e-02  -9.086441e-02  0 
 5.208304e-03  -9.676963e-02  0 
 1.522845e-02  -9.698748e-02  0 
 7.598291e-04  -1.020378e-01  0 
 -2.620470e-03  -1.065031e-01  0 
 9.957915e-03  -1.021769e-01  0 
 5.348126e-03  -1.066938e-01  0 
 1.378973e-02  -1.068433e-01  0 
 -2.000367e-03  -5.164573e-02  0 
 3.793808e-03  -5.173106e-02  0 
 1.218261e-02  -4.904298e-02  0 
 -5.998878e-03  -6.303981e-02  0 
 4.170800e-03  -6.323854e-02  0 
 1.445116e-02  -6.402899e-02  0 
 -6.668432e-03  -7.704665e-02  0 
 4.709788e-03  -7.721747e-02  0 
 1.563803e-02  -7.714899e-02  0 
 -5.478791e-03  -9.059680e-02  0 
 5.044308e-03  -9.076411e-02  0 
 1.588980e-02  -9.097139e-02  0 
 -3.489657e-03  -1.020669e-01  0 
 5.299781e-03  -1.019954e-01  0 
 1.447140e-02  -1.023310e-01  0 
VECTORS displacement_ITER3 FLOAT
 3.984894e-03  -5.010038e-02  0 
 1.068804e-02  -5.092474e-02  0 
 1.997817e-02  -5.153671e-02  0 
 4.302544e-03  -6.156770e-02  0 
 1.253845e-02  -6.217562e-02  0 
 2.093942e-02  -6.322325e-02  0 
 4.928692e-03  -7.273496e-02  0 
 1.356167e-02  -7.304112e-02  0 
 5.603677e-03  -8.283761e-02  0 
 1.406584e-02  -8.325673e-02  0 
 6.016183e-03  -9.136426e-02  0 
 1.422672e-02  -9.214156e-02  0 
 3.258608e-03  -4.529382e-02  0 
 3.526688e-04  -4.958217e-02  0 
 1.012166e-02  -4.578265e-02  0 
 7.245474e-03  -5.071718e-02  0 
 1.836377e-02  -4.447758e-02  0 
 1.475016e-02  -5.112597e-02  0 
 4.140180e-03  -5.574404e-02  0 
 -1.908950e-05  -6.149354e-02  0 
 1.166729e-02  -5.656021e-02  0 
 8.436201e-03  -6.175761e-02  0 
 2.058284e-02  -5.770669e-02  0 
 1.670798e-02  -6.274576e-02  0 
 4.592777e-03  -6.726150e-02  0 
 6.653318e-04  -7.262698e-02  0 
 1.315211e-02  -6.764649e-02  0 
 9.216016e-03  -7.286634e-02  0 
 2.098926e-02  -6.803551e-02  0 
 1.814680e-02  -7.334889e-02  0 
 5.270487e-03  -7.794073e-02  0 
 1.542249e-03  -8.266343e-02  0 
 1.388820e-02  -7.830939e-02  0 
 9.751372e-03  -8.302573e-02  0 
 1.855837e-02  -8.350937e-02  0 
 5.888537e-03  -8.736723e-02  0 
 2.649975e-03  -9.113421e-02  0 
 1.412691e-02  -8.786968e-02  0 
 1.002512e-02  -9.178458e-02  0 
 1.819590e-02  -9.243622e-02  0 
 1.467501e-03  -4.428436e-02  0 
 6.598289e-03  -4.600515e-02  0 
 1.354048e-02  -4.475697e-02  0 
 -1.074748e-04  -5.563280e-02  0 
 7.890933e-03  -5.606328e-02  0 
 1.588108e-02  -5.717427e-02  0 
 2.769192e-04  -6.717389e-02  0 
 8.868206e-03  -6.740661e-02  0 
 1.736682e-02  -6.794081e-02  0 
 1.091150e-03  -7.780218e-02  0 
 9.510626e-03  -7.809430e-02  0 
 1.849716e-02  -7.860789e-02  0 
 2.039476e-03  -8.715557e-02  0 
 9.907726e-03  -8.756209e-02  0 
 1.848610e-02  -8.812530e-02  0 
VECTORS displacement_ITER4 FLOAT
 4.409630e-03  -4.843651e-02  0 
 1.140471e-02  -4.897787e-02  0 
 1.979308e-02  -4.974879e-02  0 
 4.484028e-03  -5.981086e-02  0 
 1.268858e-02  -6.021013e-02  0 
 2.126855e-02  -6.108763e-02  0 
 4.684125e-03  -7.077753e-02  0 
 1.348493e-02  -7.108773e-02  0 
 4.782002e-03  -8.128119e-02  0 
 1.392685e-02  -8.160269e-02  0 
 4.836416e-03  -9.109733e-02  0 
 1.409189e-02  -9.134099e-02  0 
 4.002765e-03  -4.314373e-02  0 
 6.086859e-04  -4.814095e-02  0 
 1.092275e-02  -4.371525e-02  0 
 7.891788e-03  -4.880277e-02  0 
 1.816044e-02  -4.357578e-02  0 
 1.523599e-02  -4.924957e-02  0 
 4.448672e-03  -5.412392e-02  0 
 3.671975e-04  -5.981072e-02  0 
 1.208765e-02  -5.459457e-02  0 
 8.577899e-03  -5.990912e-02  0 
 2.067494e-02  -5.557306e-02  0 
 1.690072e-02  -6.065763e-02  0 
 4.588181e-03  -6.535602e-02  0 
 3.968589e-04  -7.073009e-02  0 
 1.314887e-02  -6.569818e-02  0 
 9.050970e-03  -7.090102e-02  0 
 2.162428e-02  -6.639263e-02  0 
 1.800977e-02  -7.135637e-02  0 
 4.743057e-03  -7.608880e-02  0 
 2.057262e-04  -8.124467e-02  0 
 1.374996e-02  -7.640966e-02  0 
 9.332271e-03  -8.141800e-02  0 
 1.863540e-02  -8.182019e-02  0 
 4.831955e-03  -8.632923e-02  0 
 3.049078e-04  -9.115981e-02  0 
 1.401034e-02  -8.661400e-02  0 
 9.465272e-03  -9.117207e-02  0 
 1.855903e-02  -9.157383e-02  0 
 1.307993e-03  -4.248062e-02  0 
 7.524391e-03  -4.366770e-02  0 
 1.410040e-02  -4.340016e-02  0 
 3.344048e-04  -5.413546e-02  0 
 8.260380e-03  -5.427544e-02  0 
 1.620360e-02  -5.505869e-02  0 
 4.124956e-04  -6.532182e-02  0 
 8.841113e-03  -6.546940e-02  0 
 1.742995e-02  -6.604116e-02  0 
 3.159199e-04  -7.604446e-02  0 
 9.210760e-03  -7.621994e-02  0 
 1.841529e-02  -7.666876e-02  0 
 1.362340e-04  -8.629409e-02  0 
 9.415250e-03  -8.641829e-02  0 
 1.871594e-02  -8.682248e-02  0 
VECTORS displacement_ITER5 FLOAT
 4.130354e-03  -4.817493e-02  0 
 1.179664e-02  -4.865426e-02  0 
 2.011084e-02  -4.946472e-02  0 
 4.282152e-03  -5.986398e-02  0 
 1.256350e-02  -6.010170e-02  0 
 2.150436e-02  -6.070417e-02  0 
 4.414399e-03  -7.055805e-02  0 
 1.288379e-02  -7.083987e-02  0 
 4.361208e-03  -8.036849e-02  0 
 1.294955e-02  -8.063583e-02  0 
 4.326867e-03  -8.956719e-02  0 
 1.301490e-02  -8.965394e-02  0 
 3.824251e-03  -4.230292e-02  0 
 1.399011e-06  -4.795529e-02  0 
 1.133251e-02  -4.306418e-02  0 
 7.978845e-03  -4.844444e-02  0 
 1.876680e-02  -4.364611e-02  0 
 1.575296e-02  -4.896573e-02  0 
 4.216496e-03  -5.411842e-02  0 
 2.059974e-04  -5.988268e-02  0 
 1.224475e-02  -5.440257e-02  0 
 8.391909e-03  -5.991333e-02  0 
 2.093393e-02  -5.515583e-02  0 
 1.691473e-02  -6.038368e-02  0 
 4.366563e-03  -6.533459e-02  0 
 3.298918e-04  -7.055420e-02  0 
 1.276730e-02  -6.561110e-02  0 
 8.609157e-03  -7.065913e-02  0 
 2.202523e-02  -6.645616e-02  0 
 1.712825e-02  -7.101605e-02  0 
 4.404991e-03  -7.555897e-02  0 
 5.703057e-05  -8.035468e-02  0 
 1.291896e-02  -7.581935e-02  0 
 8.665995e-03  -8.048785e-02  0 
 1.723494e-02  -8.079572e-02  0 
 4.338481e-03  -8.504204e-02  0 
 -1.424216e-04  -8.956388e-02  0 
 1.297056e-02  -8.527284e-02  0 
 8.714164e-03  -8.957796e-02  0 
 1.716369e-02  -8.981363e-02  0 
 2.504401e-04  -4.176808e-02  0 
 7.665073e-03  -4.276800e-02  0 
 1.484035e-02  -4.323566e-02  0 
 3.029302e-05  -5.413490e-02  0 
 8.221239e-03  -5.420235e-02  0 
 1.646684e-02  -5.472398e-02  0 
 3.198337e-04  -6.533733e-02  0 
 8.521193e-03  -6.541436e-02  0 
 1.713802e-02  -6.593831e-02  0 
 2.358054e-04  -7.555395e-02  0 
 8.649375e-03  -7.566831e-02  0 
 1.719118e-02  -7.599513e-02  0 
 -1.490992e-04  -8.499885e-02  0 
 8.692340e-03  -8.513144e-02  0 
 1.725746e-02  -8.543374e-02  0 
VECTORS displacement_ITER6 FLOAT
 3.834923e-03  -4.806674e-02  0 
 1.131468e-02  -4.857772e-02  0 
 1.916083e-02  -4.944124e-02  0 
 4.052454e-03  -5.935820e-02  0 
 1.217198e-02  -5.964039e-02  0 
 2.067135e-02  -6.027327e-02  0 
 4.152985e-03  -7.001029e-02  0 
 1.267464e-02  -7.027636e-02  0 
 4.095063e-03  -8.012831e-02  0 
 1.295191e-02  -8.038236e-02  0 
 4.065077e-03  -8.965041e-02  0 
 1.310329e-02  -8.985781e-02  0 
 3.563576e-03  -4.235781e-02  0 
 -4.233781e-05  -4.789529e-02  0 
 1.076616e-02  -4.307632e-02  0 
 7.575043e-03  -4.830986e-02  0 
 1.790945e-02  -4.399124e-02  0 
 1.512384e-02  -4.893992e-02  0 
 3.967021e-03  -5.378597e-02  0 
 7.544244e-05  -5.934590e-02  0 
 1.179170e-02  -5.413356e-02  0 
 8.088279e-03  -5.944180e-02  0 
 2.004268e-02  -5.489271e-02  0 
 1.635140e-02  -5.993368e-02  0 
 4.124335e-03  -6.475378e-02  0 
 -1.229875e-05  -6.999993e-02  0 
 1.246083e-02  -6.502932e-02  0 
 8.383344e-03  -7.010915e-02  0 
 2.112902e-02  -6.562497e-02  0 
 1.700912e-02  -7.048978e-02  0 
 4.135687e-03  -7.513741e-02  0 
 -3.357483e-04  -8.013098e-02  0 
 1.283271e-02  -7.539206e-02  0 
 8.517420e-03  -8.022865e-02  0 
 1.743413e-02  -8.058133e-02  0 
 4.072284e-03  -8.498022e-02  0 
 -5.223613e-04  -8.966344e-02  0 
 1.303188e-02  -8.522663e-02  0 
 8.594804e-03  -8.970151e-02  0 
 1.759524e-02  -9.009340e-02  0 
 7.271070e-05  -4.202654e-02  0 
 7.206252e-03  -4.270495e-02  0 
 1.424791e-02  -4.347414e-02  0 
 -1.546218e-05  -5.377657e-02  0 
 7.868430e-03  -5.390501e-02  0 
 1.583023e-02  -5.446730e-02  0 
 7.675444e-05  -6.473746e-02  0 
 8.257869e-03  -6.484860e-02  0 
 1.672284e-02  -6.529381e-02  0 
 -1.604571e-04  -7.513711e-02  0 
 8.464820e-03  -7.523397e-02  0 
 1.724655e-02  -7.559826e-02  0 
 -5.030144e-04  -8.496652e-02  0 
 8.559643e-03  -8.506798e-02  0 
 1.757553e-02  -8.543385e-02  0 
VECTORS displacement_ITER7 FLOAT
 3.580196e-03  -4.792217e-02  0 
 1.115028e-02  -4.841889e-02  0 
 1.916759e-02  -4.925901e-02  0 
 3.967916e-03  -5.916774e-02  0 
 1.213062e-02  -5.952740e-02  0 
 2.063471e-02  -6.016357e-02  0 
 4.238783e-03  -6.989412e-02  0 
 1.273428e-02  -7.019468e-02  0 
 4.378573e-03  -7.996972e-02  0 
 1.307447e-02  -8.024870e-02  0 
 4.451252e-03  -8.917142e-02  0 
 1.325905e-02  -8.958021e-02  0 
 3.301415e-03  -4.226476e-02  0 
 -1.689422e-04  -4.780759e-02  0 
 1.050116e-02  -4.278319e-02  0 
 7.325795e-03  -4.813290e-02  0 
 1.804762e-02  -4.375516e-02  0 
 1.507115e-02  -4.879183e-02  0 
 3.795143e-03  -5.359390e-02  0 
 -4.179056e-05  -5.910690e-02  0 
 1.169063e-02  -5.401233e-02  0 
 8.022396e-03  -5.930308e-02  0 
 2.000923e-02  -5.475034e-02  0 
 1.632520e-02  -5.982502e-02  0 
 4.120296e-03  -6.460119e-02  0 
 5.025263e-05  -6.984242e-02  0 
 1.247413e-02  -6.492777e-02  0 
 8.459258e-03  -7.001432e-02  0 
 2.108065e-02  -6.545445e-02  0 
 1.709064e-02  -7.042893e-02  0 
 4.322742e-03  -7.502677e-02  0 
 8.929455e-05  -7.993322e-02  0 
 1.293168e-02  -7.530900e-02  0 
 8.699216e-03  -8.007851e-02  0 
 1.751331e-02  -8.047521e-02  0 
 4.419357e-03  -8.469589e-02  0 
 1.433587e-04  -8.910095e-02  0 
 1.317396e-02  -8.501073e-02  0 
 8.825306e-03  -8.933693e-02  0 
 1.775346e-02  -8.986349e-02  0 
 -9.522499e-05  -4.216219e-02  0 
 6.865443e-03  -4.245633e-02  0 
 1.420201e-02  -4.323821e-02  0 
 -1.370272e-04  -5.354449e-02  0 
 7.713883e-03  -5.375589e-02  0 
 1.577484e-02  -5.434969e-02  0 
 1.871541e-05  -6.454105e-02  0 
 8.267517e-03  -6.473127e-02  0 
 1.674846e-02  -6.518376e-02  0 
 7.112333e-05  -7.498519e-02  0 
 8.600905e-03  -7.513613e-02  0 
 1.733042e-02  -7.553478e-02  0 
 1.018878e-04  -8.464768e-02  0 
 8.766278e-03  -8.481863e-02  0 
 1.766916e-02  -8.525423e-02  0 
VECTORS displacement_ITER8 FLOAT
 3.625356e-03  -4.792059e-02  0 
 1.119894e-02  -4.838734e-02  0 
 1.929517e-02  -4.919964e-02  0 
 3.982423e-03  -5.916778e-02  0 
 1.216688e-02  -5.952789e-02  0 
 2.073545e-02  -6.015054e-02  0 
 4.203814e-03  -6.994585e-02  0 
 1.273096e-02  -7.023718e-02  0 
 4.319437e-03  -8.003289e-02  0 
 1.301835e-02  -8.030749e-02  0 
 4.387275e-03  -8.922688e-02  0 
 1.318034e-02  -8.960921e-02  0 
 3.367688e-03  -4.227079e-02  0 
 -7.118915e-05  -4.783504e-02  0 
 1.053807e-02  -4.272338e-02  0 
 7.358676e-03  -4.810923e-02  0 
 1.823878e-02  -4.365112e-02  0 
 1.516111e-02  -4.875204e-02  0 
 3.827017e-03  -5.358333e-02  0 
 -3.588236e-05  -5.911663e-02  0 
 1.173817e-02  -5.399635e-02  0 
 8.042487e-03  -5.930510e-02  0 
 2.011063e-02  -5.471313e-02  0 
 1.638939e-02  -5.981795e-02  0 
 4.108954e-03  -6.462839e-02  0 
 -1.083832e-05  -6.990642e-02  0 
 1.249300e-02  -6.495028e-02  0 
 8.441531e-03  -7.005935e-02  0 
 2.120218e-02  -6.549194e-02  0 
 1.709881e-02  -7.046395e-02  0 
 4.271820e-03  -7.509055e-02  0 
 2.173494e-05  -7.999681e-02  0 
 1.290000e-02  -7.536339e-02  0 
 8.646288e-03  -8.013929e-02  0 
 1.744504e-02  -8.052629e-02  0 
 4.355913e-03  -8.475162e-02  0 
 6.483664e-05  -8.915340e-02  0 
 1.310349e-02  -8.506006e-02  0 
 8.761405e-03  -8.938286e-02  0 
 1.764569e-02  -8.988457e-02  0 
 -1.156819e-05  -4.220780e-02  0 
 6.894515e-03  -4.242899e-02  0 
 1.430926e-02  -4.315448e-02  0 
 -7.007880e-05  -5.353757e-02  0 
 7.743402e-03  -5.374345e-02  0 
 1.585064e-02  -5.432543e-02  0 
 -1.999072e-05  -6.458222e-02  0 
 8.271038e-03  -6.475429e-02  0 
 1.679798e-02  -6.520571e-02  0 
 3.192995e-06  -7.505528e-02  0 
 8.562812e-03  -7.519513e-02  0 
 1.730170e-02  -7.557988e-02  0 
 3.524185e-05  -8.470294e-02  0 
 8.706259e-03  -8.487275e-02  0 
 1.756319e-02  -8.529768e-02  0 
VECTORS displacement_ITER9 FLOAT
 3.654229e-03  -4.792951e-02  0 
 1.117789e-02  -4.839697e-02  0 
 1.926585e-02  -4.921531e-02  0 
 3.998550e-03  -5.912998e-02  0 
 1.216283e-02  -5.951012e-02  0 
 2.070943e-02  -6.015303e-02  0 
 4.200913e-03  -6.991239e-02  0 
 1.274103e-02  -7.021176e-02  0 
 4.304471e-03  -8.003427e-02  0 
 1.303359e-02  -8.030651e-02  0 
 4.363448e-03  -8.928521e-02  0 
 1.319131e-02  -8.963376e-02  0 
 3.410927e-03  -4.230221e-02  0 
 3.474592e-06  -4.785901e-02  0 
 1.050161e-02  -4.274856e-02  0 
 7.358162e-03  -4.811242e-02  0 
 1.823999e-02  -4.366198e-02  0 
 1.513490e-02  -4.877003e-02  0 
 3.848798e-03  -5.356329e-02  0 
 -8.958282e-06  -5.907600e-02  0 
 1.172701e-02  -5.399147e-02  0 
 8.047387e-03  -5.927699e-02  0 
 2.007451e-02  -5.472271e-02  0 
 1.637497e-02  -5.981038e-02  0 
 4.115441e-03  -6.458817e-02  0 
 -2.658904e-05  -6.987126e-02  0 
 1.249652e-02  -6.492463e-02  0 
 8.446881e-03  -7.002938e-02  0 
 2.119043e-02  -6.548970e-02  0 
 1.711141e-02  -7.044457e-02  0 
 4.261786e-03  -7.507104e-02  0 
 -1.952359e-05  -8.000026e-02  0 
 1.291404e-02  -7.534728e-02  0 
 8.649250e-03  -8.013907e-02  0 
 1.747200e-02  -8.052294e-02  0 
 4.336506e-03  -8.477923e-02  0 
 -3.201551e-06  -8.923559e-02  0 
 1.311796e-02  -8.507334e-02  0 
 8.759960e-03  -8.942182e-02  0 
 1.766600e-02  -8.990089e-02  0 
 5.327490e-05  -4.225328e-02  0 
 6.888579e-03  -4.245758e-02  0 
 1.428038e-02  -4.316990e-02  0 
 -1.060989e-05  -5.351364e-02  0 
 7.745219e-03  -5.372931e-02  0 
 1.582847e-02  -5.432970e-02  0 
 -1.823252e-05  -6.454014e-02  0 
 8.277314e-03  -6.472032e-02  0 
 1.679544e-02  -6.518975e-02  0 
 -2.636320e-05  -7.503473e-02  0 
 8.566713e-03  -7.517734e-02  0 
 1.732668e-02  -7.556580e-02  0 
 -1.564374e-05  -8.474054e-02  0 
 8.708152e-03  -8.489275e-02  0 
 1.758198e-02  -8.530477e-02  0 
VECTORS displacement_ITER10 FLOAT
 3.655920e-03  -4.794485e-02  0 
 1.119014e-02  -4.840912e-02  0 
 1.928809e-02  -4.922978e-02  0 
 3.999470e-03  -5.916712e-02  0 
 1.216455e-02  -5.954335e-02  0 
 2.072564e-02  -6.018848e-02  0 
 4.204604e-03  -6.994091e-02  0 
 1.273028e-02  -7.024154e-02  0 
 4.309573e-03  -8.002626e-02  0 
 1.301117e-02  -8.029899e-02  0 
 4.367432e-03  -8.924716e-02  0 
 1.316298e-02  -8.958226e-02  0 
 3.418274e-03  -4.228176e-02  0 
 -1.530323e-05  -4.787899e-02  0 
 1.051498e-02  -4.275666e-02  0 
 7.370881e-03  -4.812413e-02  0 
 1.827464e-02  -4.365996e-02  0 
 1.514975e-02  -4.878486e-02  0 
 3.848101e-03  -5.359384e-02  0 
 -1.050025e-05  -5.911627e-02  0 
 1.173567e-02  -5.401505e-02  0 
 8.048079e-03  -5.931202e-02  0 
 2.009153e-02  -5.474813e-02  0 
 1.638145e-02  -5.984283e-02  0 
 4.117581e-03  -6.462573e-02  0 
 -1.100882e-05  -6.990133e-02  0 
 1.249140e-02  -6.496165e-02  0 
 8.442862e-03  -7.005741e-02  0 
 2.121422e-02  -6.554580e-02  0 
 1.708784e-02  -7.047511e-02  0 
 4.266653e-03  -7.508280e-02  0 
 -5.085841e-07  -7.999052e-02  0 
 1.289654e-02  -7.535991e-02  0 
 8.641795e-03  -8.013221e-02  0 
 1.743060e-02  -8.051197e-02  0 
 4.340819e-03  -8.475310e-02  0 
 2.960372e-06  -8.919952e-02  0 
 1.309252e-02  -8.504384e-02  0 
 8.750577e-03  -8.937830e-02  0 
 1.761472e-02  -8.984096e-02  0 
 3.549181e-06  -4.221481e-02  0 
 6.906385e-03  -4.245833e-02  0 
 1.429404e-02  -4.317069e-02  0 
 -1.578657e-05  -5.354403e-02  0 
 7.750404e-03  -5.375572e-02  0 
 1.584063e-02  -5.435327e-02  0 
 -1.165033e-05  -6.458087e-02  0 
 8.275381e-03  -6.475605e-02  0 
 1.679259e-02  -6.523122e-02  0 
 -6.185942e-06  -7.504613e-02  0 
 8.560814e-03  -7.519003e-02  0 
 1.729289e-02  -7.557736e-02  0 
 -8.169073e-07  -8.471346e-02  0 
 8.700018e-03  -8.486654e-02  0 
 1.753213e-02  -8.526956e-02  0 
VECTORS displacement_ITER11 FLOAT
 3.679042e-03  -4.794092e-02  0 
 1.119669e-02  -4.840637e-02  0 
 1.926357e-02  -4.923307e-02  0 
 4.018874e-03  -5.914371e-02  0 
 1.217308e-02  -5.951869e-02  0 
 2.071001e-02  -6.016861e-02  0 
 4.215363e-03  -6.991050e-02  0 
 1.274548e-02  -7.020919e-02  0 
 4.312990e-03  -8.001208e-02  0 
 1.303733e-02  -8.028706e-02  0 
 4.368101e-03  -8.926681e-02  0 
 1.319329e-02  -8.960264e-02  0 
 3.443559e-03  -4.227621e-02  0 
 1.266590e-05  -4.787776e-02  0 
 1.052198e-02  -4.276954e-02  0 
 7.389086e-03  -4.811932e-02  0 
 1.824927e-02  -4.368045e-02  0 
 1.514216e-02  -4.878560e-02  0 
 3.869453e-03  -5.358024e-02  0 
 1.430350e-05  -5.909438e-02  0 
 1.174257e-02  -5.400081e-02  0 
 8.062356e-03  -5.928792e-02  0 
 2.007253e-02  -5.473834e-02  0 
 1.637991e-02  -5.981965e-02  0 
 4.132911e-03  -6.459662e-02  0 
 -1.365830e-06  -6.987199e-02  0 
 1.250258e-02  -6.492959e-02  0 
 8.455933e-03  -7.002610e-02  0 
 2.119447e-02  -6.550276e-02  0 
 1.710767e-02  -7.044565e-02  0 
 4.273195e-03  -7.505718e-02  0 
 -1.050972e-05  -7.997633e-02  0 
 1.291810e-02  -7.533536e-02  0 
 8.656241e-03  -8.011893e-02  0 
 1.747226e-02  -8.050183e-02  0 
 4.342290e-03  -8.475495e-02  0 
 -1.799480e-05  -8.922393e-02  0 
 1.312157e-02  -8.504771e-02  0 
 8.766259e-03  -8.939635e-02  0 
 1.766367e-02  -8.986593e-02  0 
 1.656851e-05  -4.220562e-02  0 
 6.926562e-03  -4.246354e-02  0 
 1.428338e-02  -4.318586e-02  0 
 1.504495e-05  -5.352935e-02  0 
 7.765746e-03  -5.374122e-02  0 
 1.583517e-02  -5.434109e-02  0 
 6.443884e-06  -6.455345e-02  0 
 8.288980e-03  -6.472556e-02  0 
 1.679681e-02  -6.519522e-02  0 
 -6.750777e-06  -7.502093e-02  0 
 8.574209e-03  -7.516469e-02  0 
 1.732494e-02  -7.555474e-02  0 
 -1.625982e-05  -8.471630e-02  0 
 8.715310e-03  -8.486890e-02  0 
 1.757769e-02  -8.527553e-02  0 
VECTORS displacement_ITER12 FLOAT
 3.669336e-03  -4.794240e-02  0 
 1.120047e-02  -4.840835e-02  0 
 1.927739e-02  -4.923588e-02  0 
 4.014079e-03  -5.915797e-02  0 
 1.217456e-02  -5.953219e-02  0 
 2.072134e-02  -6.018037e-02  0 
 4.218000e-03  -6.992619e-02  0 
 1.274231e-02  -7.022494e-02  0 
 4.322658e-03  -8.001361e-02  0 
 1.302905e-02  -8.028862e-02  0 
 4.380586e-03  -8.924421e-02  0 
 1.318317e-02  -8.958207e-02  0 
 3.433254e-03  -4.226645e-02  0 
 -5.557489e-06  -4.787979e-02  0 
 1.052627e-02  -4.276594e-02  0 
 7.387337e-03  -4.812100e-02  0 
 1.826450e-02  -4.367759e-02  0 
 1.515106e-02  -4.878798e-02  0 
 3.861599e-03  -5.358898e-02  0 
 4.159299e-06  -5.910791e-02  0 
 1.174564e-02  -5.400907e-02  0 
 8.060701e-03  -5.930224e-02  0 
 2.008585e-02  -5.474603e-02  0 
 1.638573e-02  -5.983189e-02  0 
 4.131547e-03  -6.461373e-02  0 
 5.219345e-06  -6.988656e-02  0 
 1.250178e-02  -6.494629e-02  0 
 8.455485e-03  -7.004193e-02  0 
 2.120534e-02  -6.551957e-02  0 
 1.710079e-02  -7.046054e-02  0 
 4.279704e-03  -7.506741e-02  0 
 9.676615e-06  -7.997659e-02  0 
 1.291217e-02  -7.534549e-02  0 
 8.656677e-03  -8.012074e-02  0 
 1.745493e-02  -8.050238e-02  0 
 4.353790e-03  -8.474512e-02  0 
 8.757144e-06  -8.919912e-02  0 
 1.311196e-02  -8.503866e-02  0 
 8.767093e-03  -8.937564e-02  0 
 1.764150e-02  -8.984493e-02  0 
 -6.541275e-06  -4.219559e-02  0 
 6.924412e-03  -4.245736e-02  0 
 1.429243e-02  -4.318167e-02  0 
 2.689355e-07  -5.353610e-02  0 
 7.763797e-03  -5.375011e-02  0 
 1.584303e-02  -5.434878e-02  0 
 4.300223e-06  -6.456971e-02  0 
 8.287879e-03  -6.474252e-02  0 
 1.679853e-02  -6.521114e-02  0 
 7.437507e-06  -7.502995e-02  0 
 8.574350e-03  -7.517527e-02  0 
 1.731201e-02  -7.556363e-02  0 
 8.989769e-06  -8.470543e-02  0 
 8.715912e-03  -8.485968e-02  0 
 1.755654e-02  -8.526596e-02  0 
VECTORS displacement_ITER13 FLOAT
 3.669753e-03  -4.793997e-02  0 
 1.119738e-02  -4.840625e-02  0 
 1.926707e-02  -4.923451e-02  0 
 4.013078e-03  -5.915073e-02  0 
 1.217312e-02  -5.952524e-02  0 
 2.071441e-02  -6.017509e-02  0 
 4.214112e-03  -6.992183e-02  0 
 1.274383e-02  -7.021916e-02  0 
 4.316804e-03  -8.001896e-02  0 
 1.303383e-02  -8.029342e-02  0 
 4.374129e-03  -8.926179e-02  0 
 1.318917e-02  -8.960115e-02  0 
 3.434258e-03  -4.226704e-02  0 
 -3.359495e-07  -4.787865e-02  0 
 1.052376e-02  -4.276702e-02  0 
 7.386082e-03  -4.811861e-02  0 
 1.825425e-02  -4.367946e-02  0 
 1.514537e-02  -4.878613e-02  0 
 3.861510e-03  -5.358306e-02  0 
 1.984294e-06  -5.910114e-02  0 
 1.174296e-02  -5.400429e-02  0 
 8.059731e-03  -5.929513e-02  0 
 2.007817e-02  -5.474248e-02  0 
 1.638241e-02  -5.982565e-02  0 
 4.129030e-03  -6.460721e-02  0 
 -1.586944e-06  -6.988281e-02  0 
 1.250175e-02  -6.493863e-02  0 
 8.454440e-03  -7.003687e-02  0 
 2.119642e-02  -6.550705e-02  0 
 1.710559e-02  -7.045530e-02  0 
 4.274641e-03  -7.506704e-02  0 
 -2.016334e-06  -7.998248e-02  0 
 1.291567e-02  -7.534421e-02  0 
 8.655875e-03  -8.012567e-02  0 
 1.746693e-02  -8.050741e-02  0 
 4.347451e-03  -8.475677e-02  0 
 -3.205031e-06  -8.921697e-02  0 
 1.311753e-02  -8.505052e-02  0 
 8.766511e-03  -8.939361e-02  0 
 1.765540e-02  -8.986550e-02  0 
 -9.686198e-08  -4.220035e-02  0 
 6.923062e-03  -4.245763e-02  0 
 1.428735e-02  -4.318223e-02  0 
 1.853733e-06  -5.352920e-02  0 
 7.762576e-03  -5.374483e-02  0 
 1.583788e-02  -5.434456e-02  0 
 -1.080198e-07  -6.456375e-02  0 
 8.286932e-03  -6.473541e-02  0 
 1.679800e-02  -6.520229e-02  0 
 -2.116384e-06  -7.503029e-02  0 
 8.573378e-03  -7.517438e-02  0 
 1.732080e-02  -7.556241e-02  0 
 -2.805939e-06  -8.471762e-02  0 
 8.715185e-03  -8.487117e-02  0 
 1.756966e-02  -8.527841e-02  0 
VECTORS displacement_ITER14 FLOAT
 3.666974e-03  -4.794083e-02  0 
 1.119805e-02  -4.840673e-02  0 
 1.927097e-02  -4.923404e-02  0 
 4.011585e-03  -5.915386e-02  0 
 1.217274e-02  -5.952857e-02  0 
 2.071765e-02  -6.017767e-02  0 
 4.214404e-03  -6.992467e-02  0 
 1.274216e-02  -7.022241e-02  0 
 4.318634e-03  -8.001731e-02  0 
 1.303031e-02  -8.029157e-02  0 
 4.376431e-03  -8.925343e-02  0 
 1.318503e-02  -8.959263e-02  0 
 3.431015e-03  -4.226654e-02  0 
 -3.508373e-06  -4.787980e-02  0 
 1.052512e-02  -4.276586e-02  0 
 7.384940e-03  -4.811948e-02  0 
 1.825940e-02  -4.367669e-02  0 
 1.514789e-02  -4.878600e-02  0 
 3.859324e-03  -5.358499e-02  0 
 -8.875712e-07  -5.910409e-02  0 
 1.174317e-02  -5.400629e-02  0 
 8.058745e-03  -5.929846e-02  0 
 2.008200e-02  -5.474361e-02  0 
 1.638346e-02  -5.982863e-02  0 
 4.128311e-03  -6.461083e-02  0 
 4.684357e-08  -6.988520e-02  0 
 1.250075e-02  -6.494269e-02  0 
 8.453707e-03  -7.003993e-02  0 
 2.120027e-02  -6.551286e-02  0 
 1.710201e-02  -7.045817e-02  0 
 4.275827e-03  -7.506802e-02  0 
 2.505065e-06  -7.998058e-02  0 
 1.291294e-02  -7.534514e-02  0 
 8.655075e-03  -8.012402e-02  0 
 1.746057e-02  -8.050515e-02  0 
 4.349604e-03  -8.475191e-02  0 
 2.940317e-06  -8.920818e-02  0 
 1.311360e-02  -8.504547e-02  0 
 8.765596e-03  -8.938542e-02  0 
 1.764749e-02  -8.985647e-02  0 
 -3.711512e-06  -4.220109e-02  0 
 6.921758e-03  -4.245684e-02  0 
 1.429084e-02  -4.317996e-02  0 
 -1.734977e-06  -5.353036e-02  0 
 7.761491e-03  -5.374706e-02  0 
 1.583970e-02  -5.434602e-02  0 
 -7.546867e-07  -6.456699e-02  0 
 8.286073e-03  -6.473916e-02  0 
 1.679779e-02  -6.520696e-02  0 
 1.251888e-06  -7.503096e-02  0 
 8.572679e-03  -7.517553e-02  0 
 1.731552e-02  -7.556283e-02  0 
 2.864013e-06  -8.471261e-02  0 
 8.714307e-03  -8.486627e-02  0 
 1.756217e-02  -8.527307e-02  0 
VECTORS displacement_ITER15 FLOAT
 3.668259e-03  -4.794083e-02  0 
 1.119780e-02  -4.840663e-02  0 
 1.926907e-02  -4.923391e-02  0 
 4.012279e-03  -5.915221e-02  0 
 1.217265e-02  -5.952703e-02  0 
 2.071680e-02  -6.017622e-02  0 
 4.213906e-03  -6.992304e-02  0 
 1.274242e-02  -7.022065e-02  0 
 4.317090e-03  -8.001723e-02  0 
 1.303091e-02  -8.029154e-02  0 
 4.374509e-03  -8.925619e-02  0 
 1.318589e-02  -8.959545e-02  0 
 3.432305e-03  -4.226798e-02  0 
 3.855848e-08  -4.788016e-02  0 
 1.052501e-02  -4.276669e-02  0 
 7.385296e-03  -4.811947e-02  0 
 1.825762e-02  -4.367746e-02  0 
 1.514705e-02  -4.878582e-02  0 
 3.860448e-03  -5.358380e-02  0 
 -1.473150e-07  -5.910275e-02  0 
 1.174296e-02  -5.400536e-02  0 
 8.059041e-03  -5.929683e-02  0 
 2.008089e-02  -5.474264e-02  0 
 1.638300e-02  -5.982719e-02  0 
 4.128378e-03  -6.460910e-02  0 
 -6.965844e-07  -6.988372e-02  0 
 1.250082e-02  -6.494087e-02  0 
 8.453590e-03  -7.003821e-02  0 
 2.119949e-02  -6.551097e-02  0 
 1.710240e-02  -7.045645e-02  0 
 4.274756e-03  -7.506691e-02  0 
 -4.834699e-07  -7.998061e-02  0 
 1.291336e-02  -7.534396e-02  0 
 8.654629e-03  -8.012393e-02  0 
 1.746256e-02  -8.050526e-02  0 
 4.347771e-03  -8.475319e-02  0 
 -5.897968e-07  -8.921094e-02  0 
 1.311438e-02  -8.504688e-02  0 
 8.765106e-03  -8.938813e-02  0 
 1.764974e-02  -8.985950e-02  0 
 2.815197e-07  -4.220375e-02  0 
 6.922077e-03  -4.245783e-02  0 
 1.428993e-02  -4.318058e-02  0 
 2.146473e-07  -5.352891e-02  0 
 7.761849e-03  -5.374607e-02  0 
 1.583898e-02  -5.434506e-02  0 
 -6.311820e-07  -6.456545e-02  0 
 8.286187e-03  -6.473729e-02  0 
 1.679773e-02  -6.520528e-02  0 
 -6.317618e-07  -7.503005e-02  0 
 8.572365e-03  -7.517439e-02  0 