# vtk DataFile Version 3.1
this is an vtk file created by FEMAC
ASCII
DATASET UNSTRUCTURED_GRID
POINTS 55 FLOAT
3.000000 0.000000 0.000000
4.000000 0.000000 0.000000
2.000000 3.000000 0.000000
2.000000 4.000000 0.000000
3.000000 1.000000 0.000000
3.000000 2.000000 0.000000
3.000000 3.000000 0.000000
3.000000 4.000000 0.000000
4.000000 1.000000 0.000000
4.000000 2.000000 0.000000
4.000000 3.000000 0.000000
4.000000 4.000000 0.000000
2.500000 0.000000 0.000000
3.500000 0.000000 0.000000
4.500000 0.000000 0.000000
2.000000 2.500000 0.000000
2.000000 3.500000 0.000000
2.000000 4.500000 0.000000
2.500000 1.000000 0.000000
3.000000 0.500000 0.000000
2.500000 2.000000 0.000000
3.000000 1.500000 0.000000
2.500000 3.000000 0.000000
3.000000 2.500000 0.000000
2.500000 4.000000 0.000000
3.000000 3.500000 0.000000
3.000000 4.500000 0.000000
3.500000 1.000000 0.000000
4.000000 0.500000 0.000000
3.500000 2.000000 0.000000
4.000000 1.500000 0.000000
3.500000 3.000000 0.000000
4.000000 2.500000 0.000000
3.500000 4.000000 0.000000
4.000000 3.500000 0.000000
4.000000 4.500000 0.000000
4.500000 1.000000 0.000000
4.500000 2.000000 0.000000
4.500000 3.000000 0.000000
4.500000 4.000000 0.000000
2.500000 0.500000 0.000000
2.500000 1.500000 0.000000
2.500000 2.500000 0.000000
2.500000 3.500000 0.000000
2.500000 4.500000 0.000000
3.500000 0.500000 0.000000
3.500000 1.500000 0.000000
3.500000 2.500000 0.000000
3.500000 3.500000 0.000000
3.500000 4.500000 0.000000
4.500000 0.500000 0.000000
4.500000 1.500000 0.000000
4.500000 2.500000 0.000000
4.500000 3.500000 0.000000
4.500000 4.500000 0.000000
CELLS 40 200 
4 12  0 19 40
4 40 19  4 18
4 18  4 21 41
4 41 21  5 20
4 15 42 22  2
4 20  5 23 42
4 42 23  6 22
4 2 22 43 16
4 16 43 24  3
4 22  6 25 43
4 43 25  7 24
4 3 24 44 17
4 24  7 26 44
4 0 13 45 19
4 19 45 27  4
4 13  1 28 45
4 45 28  8 27
4 4 27 46 21
4 21 46 29  5
4 27  8 30 46
4 46 30  9 29
4 5 29 47 23
4 23 47 31  6
4 29  9 32 47
4 47 32 10 31
4 6 31 48 25
4 25 48 33  7
4 31 10 34 48
4 48 34 11 33
4 7 33 49 26
4 33 11 35 49
4 1 14 50 28
4 28 50 36  8
4 8 36 51 30
4 30 51 37  9
4 9 37 52 32
4 32 52 38 10
4 10 38 53 34
4 34 53 39 11
4 11 39 54 35
CELL_TYPES 40
9 9 9 9 9 9 9 9 9 9 9 9 9 9 9 9 9 9 9 9 9 9 9 9 9 9 9 9 9 9 9 9 9 9 9 9 9 9 9 9 
POINT_DATA 55
VECTORS displacement_ITER1 FLOAT
 -5.557648e-02  -5.450500e-02  0 
 -6.950403e-02  -7.519396e-02  0 
 -9.330570e-03  -2.786781e-02  0 
 -2.855782e-03  -2.737684e-02  0 
 -4.007026e-02  -5.237410e-02  0 
 -2.567656e-02  -4.840063e-02  0 
 -1.360605e-02  -4.668682e-02  0 
 -4.670645e-03  -4.586358e-02  0 
 -4.863332e-02  -7.218525e-02  0 
 -3.181019e-02  -7.019736e-02  0 
 -1.847624e-02  -6.765475e-02  0 
 -5.438893e-03  -6.665932e-02  0 
 -5.335512e-02  -4.428377e-02  0 
 -6.303260e-02  -6.569810e-02  0 
 -7.064355e-02  -8.459100e-02  0 
 -1.509983e-02  -2.907957e-02  0 
 -4.977487e-03  -2.528371e-02  0 
 3.087287e-06  -2.850700e-02  0 
 -3.402201e-02  -4.306008e-02  0 
 -4.588440e-02  -5.338276e-02  0 
 -2.212485e-02  -3.738026e-02  0 
 -3.508272e-02  -5.101903e-02  0 
 -1.029545e-02  -3.735232e-02  0 
 -1.742386e-02  -4.615589e-02  0 
 -5.158293e-03  -3.613710e-02  0 
 -9.926620e-03  -4.751830e-02  0 
 3.930053e-05  -4.449705e-02  0 
 -4.517703e-02  -6.087204e-02  0 
 -5.998095e-02  -7.408155e-02  0 
 -2.823617e-02  -6.031979e-02  0 
 -3.807051e-02  -7.053371e-02  0 
 -1.731517e-02  -5.646738e-02  0 
 -2.624543e-02  -6.985837e-02  0 
 -3.806171e-03  -5.627744e-02  0 
 -1.106692e-02  -6.579457e-02  0 
 2.276784e-04  -6.787718e-02  0 
 -5.157511e-02  -8.416542e-02  0 
 -3.524256e-02  -7.999543e-02  0 
 -1.907101e-02  -7.916607e-02  0 
 -7.205603e-03  -7.712623e-02  0 
 -4.384506e-02  -4.402080e-02  0 
 -2.754557e-02  -4.018630e-02  0 
 -1.606744e-02  -3.712376e-02  0 
 -7.529593e-03  -3.673564e-02  0 
 1.489989e-04  -3.602448e-02  0 
 -5.323043e-02  -6.308648e-02  0 
 -3.679639e-02  -6.049609e-02  0 
 -2.213275e-02  -5.833016e-02  0 
 -1.051089e-02  -5.617544e-02  0 
 2.743889e-04  -5.600396e-02  0 
 -6.149364e-02  -8.440318e-02  0 
 -4.251834e-02  -8.216970e-02  0 
 -2.712286e-02  -7.923884e-02  0 
 -1.328775e-02  -7.799695e-02  0 
 -9.372580e-05  -7.696640e-02  0 
VECTORS displacement_ITER2 FLOAT
 -5.534192e-02  -5.423244e-02  0 
 -6.969330e-02  -7.459132e-02  0 
 -9.664544e-03  -2.740173e-02  0 
 -2.919714e-03  -2.723425e-02  0 
 -4.007096e-02  -5.210052e-02  0 
 -2.588138e-02  -4.810169e-02  0 
 -1.373091e-02  -4.646859e-02  0 
 -4.788312e-03  -4.574205e-02  0 
 -4.843221e-02  -7.176429e-02  0 
 -3.206506e-02  -6.978598e-02  0 
 -1.848004e-02  -6.735019e-02  0 
 -5.535147e-03  -6.644592e-02  0 
 -5.314272e-02  -4.424695e-02  0 
 -6.286462e-02  -6.520129e-02  0 
 -7.112939e-02  -8.442216e-02  0 
 -1.499651e-02  -2.893557e-02  0 
 -5.258933e-03  -2.574803e-02  0 
 4.571307e-06  -2.856255e-02  0 
 -3.400622e-02  -4.284865e-02  0 
 -4.581434e-02  -5.311935e-02  0 
 -2.254951e-02  -3.702360e-02  0 
 -3.515983e-02  -5.073107e-02  0 
 -1.043113e-02  -3.706068e-02  0 
 -1.765670e-02  -4.591287e-02  0 
 -5.257796e-03  -3.613575e-02  0 
 -1.001838e-02  -4.734533e-02  0 
 -1.076998e-04  -4.435814e-02  0 
 -4.514386e-02  -6.052593e-02  0 
 -5.983278e-02  -7.350944e-02  0 
 -2.840457e-02  -5.998563e-02  0 
 -3.813180e-02  -7.011775e-02  0 
 -1.740059e-02  -5.624566e-02  0 
 -2.644904e-02  -6.942757e-02  0 
 -3.908385e-03  -5.611659e-02  0 
 -1.111849e-02  -6.559278e-02  0 
 1.609447e-05  -6.759021e-02  0 
 -5.118809e-02  -8.371075e-02  0 
 -3.562280e-02  -7.945118e-02  0 
 -1.893308e-02  -7.900026e-02  0 
 -7.493529e-03  -7.697970e-02  0 
 -4.373680e-02  -4.386341e-02  0 
 -2.736315e-02  -3.972072e-02  0 
 -1.632101e-02  -3.679695e-02  0 
 -7.669815e-03  -3.660721e-02  0 
 -5.085737e-05  -3.600612e-02  0 
 -5.316631e-02  -6.261097e-02  0 
 -3.686707e-02  -6.017680e-02  0 
 -2.230754e-02  -5.801124e-02  0 
 -1.059154e-02  -5.598403e-02  0 
 1.164675e-04  -5.606731e-02  0 
 -6.121389e-02  -8.421475e-02  0 
 -4.271915e-02  -8.153583e-02  0 
 -2.731151e-02  -7.907363e-02  0 
 -1.303999e-02  -7.784629e-02  0 
 -5.510641e-05  -7.677435e-02  0 
VECTORS displacement_ITER3 FLOAT
 -5.533612e-02  -5.422653e-02  0 
 -6.968822e-02  -7.459699e-02  0 
 -9.677890e-03  -2.738479e-02  0 
 -2.807094e-03  -2.724664e-02  0 
 -4.009301e-02  -5.206486e-02  0 
 -2.586773e-02  -4.806743e-02  0 
 -1.372873e-02  -4.646081e-02  0 
 -4.768716e-03  -4.573158e-02  0 
 -4.845273e-02  -7.175520e-02  0 
 -3.202144e-02  -6.978127e-02  0 
 -1.854532e-02  -6.733638e-02  0 
 -5.575478e-03  -6.641995e-02  0 
 -5.314743e-02  -4.423000e-02  0 
 -6.287593e-02  -6.519430e-02  0 
 -7.109818e-02  -8.437859e-02  0 
 -1.493573e-02  -2.896811e-02  0 
 -5.245199e-03  -2.594306e-02  0 
 2.343116e-05  -2.865927e-02  0 
 -3.406384e-02  -4.285855e-02  0 
 -4.581812e-02  -5.309743e-02  0 
 -2.257539e-02  -3.696472e-02  0 
 -3.516027e-02  -5.069412e-02  0 
 -1.041573e-02  -3.705973e-02  0 
 -1.764605e-02  -4.589821e-02  0 
 -5.183243e-03  -3.612704e-02  0 
 -1.002312e-02  -4.733585e-02  0 
 2.845609e-06  -4.431854e-02  0 
 -4.515465e-02  -6.049969e-02  0 
 -5.985397e-02  -7.350903e-02  0 
 -2.838566e-02  -5.996604e-02  0 
 -3.811768e-02  -7.010258e-02  0 
 -1.742141e-02  -5.623541e-02  0 
 -2.646240e-02  -6.942501e-02  0 
 -3.920615e-03  -5.610292e-02  0 
 -1.115672e-02  -6.557817e-02  0 
 1.233927e-06  -6.752274e-02  0 
 -5.122748e-02  -8.370322e-02  0 
 -3.551841e-02  -7.937458e-02  0 
 -1.906951e-02  -7.889742e-02  0 
 -7.581447e-03  -7.703107e-02  0 
 -4.372218e-02  -4.386605e-02  0 
 -2.729349e-02  -3.955770e-02  0 
 -1.631020e-02  -3.678097e-02  0 
 -7.644143e-03  -3.662540e-02  0 
 1.395397e-05  -3.597672e-02  0 
 -5.317800e-02  -6.259743e-02  0 
 -3.686247e-02  -6.015137e-02  0 
 -2.230498e-02  -5.800770e-02  0 
 -1.061113e-02  -5.596996e-02  0 
 2.661995e-05  -5.606923e-02  0 
 -6.124220e-02  -8.419997e-02  0 
 -4.268666e-02  -8.157550e-02  0 
 -2.734534e-02  -7.898802e-02  0 
 -1.305874e-02  -7.788783e-02  0 
 -1.676638e-07  -7.683604e-02  0 
VECTORS displacement_ITER4 FLOAT
 -5.534336e-02  -5.423483e-02  0 
 -6.967726e-02  -7.460824e-02  0 
 -9.678012e-03  -2.738052e-02  0 
 -2.819830e-03  -2.723716e-02  0 
 -4.009413e-02  -5.206607e-02  0 
 -2.585933e-02  -4.806466e-02  0 
 -1.373399e-02  -4.646508e-02  0 
 -4.782701e-03  -4.573556e-02  0 
 -4.846276e-02  -7.176229e-02  0 
 -3.201510e-02  -6.978886e-02  0 
 -1.854067e-02  -6.734182e-02  0 
 -5.561188e-03  -6.642950e-02  0 
 -5.316091e-02  -4.421728e-02  0 
 -6.287817e-02  -6.520574e-02  0 
 -7.107669e-02  -8.436699e-02  0 
 -1.496408e-02  -2.895669e-02  0 
 -5.264293e-03  -2.593923e-02  0 
 -5.571304e-06  -2.865500e-02  0 
 -3.407341e-02  -4.286922e-02  0 
 -4.581721e-02  -5.310112e-02  0 
 -2.256014e-02  -3.698081e-02  0 
 -3.515638e-02  -5.069553e-02  0 
 -1.042292e-02  -3.706482e-02  0 
 -1.764877e-02  -4.589952e-02  0 
 -5.200426e-03  -3.611906e-02  0 
 -1.002774e-02  -4.733998e-02  0 
 -2.341687e-06  -4.432460e-02  0 
 -4.515750e-02  -6.050438e-02  0 
 -5.985904e-02  -7.351898e-02  0 
 -2.838037e-02  -5.996830e-02  0 
 -3.811850e-02  -7.011017e-02  0 
 -1.742079e-02  -5.623853e-02  0 
 -2.645374e-02  -6.943177e-02  0 
 -3.921159e-03  -5.611069e-02  0 
 -1.115047e-02  -6.558312e-02  0 
 1.494586e-07  -6.754058e-02  0 
 -5.124170e-02  -8.370762e-02  0 
 -3.551301e-02  -7.938989e-02  0 
 -1.906215e-02  -7.890095e-02  0 
 -7.556568e-03  -7.701580e-02  0 
 -4.371681e-02  -4.386815e-02  0 
 -2.726708e-02  -3.953900e-02  0 
 -1.631932e-02  -3.679100e-02  0 
 -7.654664e-03  -3.662375e-02  0 
 -3.256573e-06  -3.596275e-02  0 
 -5.318035e-02  -6.260779e-02  0 
 -3.686178e-02  -6.015411e-02  0 
 -2.230072e-02  -5.800970e-02  0 
 -1.061134e-02  -5.597345e-02  0 
 4.719243e-06  -5.610407e-02  0 
 -6.125137e-02  -8.419410e-02  0 
 -4.268558e-02  -8.160566e-02  0 
 -2.733607e-02  -7.899479e-02  0 
 -1.303086e-02  -7.791466e-02  0 
 -6.547186e-07  -7.681938e-02  0 
VECTORS displacement_ITER5 FLOAT
 -5.534165e-02  -5.423447e-02  0 
 -6.968065e-02  -7.460498e-02  0 
 -9.672149e-03  -2.738061e-02  0 
 -2.818165e-03  -2.723935e-02  0 
 -4.009622e-02  -5.206489e-02  0 
 -2.585766e-02  -4.806433e-02  0 
 -1.373140e-02  -4.646466e-02  0 
 -4.780012e-03  -4.573732e-02  0 
 -4.846000e-02  -7.176204e-02  0 
 -3.201684e-02  -6.978779e-02  0 
 -1.853922e-02  -6.734186e-02  0 
 -5.560675e-03  -6.642768e-02  0 
 -5.316040e-02  -4.421536e-02  0 
 -6.287763e-02  -6.520277e-02  0 
 -7.108384e-02  -8.437245e-02  0 
 -1.496195e-02  -2.895651e-02  0 
 -5.259337e-03  -2.592667e-02  0 
 4.300317e-07  -2.865607e-02  0 
 -3.407966e-02  -4.287192e-02  0 
 -4.581719e-02  -5.309957e-02  0 
 -2.255866e-02  -3.697954e-02  0 
 -3.515656e-02  -5.069545e-02  0 
 -1.042025e-02  -3.706418e-02  0 
 -1.764632e-02  -4.589910e-02  0 
 -5.196584e-03  -3.612072e-02  0 
 -1.002517e-02  -4.734034e-02  0 
 9.165803e-07  -4.432727e-02  0 
 -4.515738e-02  -6.050443e-02  0 
 -5.985710e-02  -7.351682e-02  0 
 -2.838021e-02  -5.996867e-02  0 
 -3.811838e-02  -7.011036e-02  0 
 -1.741871e-02  -5.623831e-02  0 
 -2.645431e-02  -6.943047e-02  0 
 -3.919406e-03  -5.611074e-02  0 
 -1.114864e-02  -6.558265e-02  0 
 8.253991e-08  -6.753627e-02  0 
 -5.123545e-02  -8.370848e-02  0 
 -3.551887e-02  -7.938995e-02  0 
 -1.906187e-02  -7.890081e-02  0 
 -7.556994e-03  -7.701466e-02  0 
 -4.371535e-02  -4.386994e-02  0 
 -2.726530e-02  -3.953321e-02  0 
 -1.631586e-02  -3.679037e-02  0 
 -7.651250e-03  -3.662320e-02  0 
 8.959808e-07  -3.596570e-02  0 
 -5.318048e-02  -6.260528e-02  0 
 -3.686152e-02  -6.015476e-02  0 
 -2.229986e-02  -5.800915e-02  0 
 -1.060892e-02  -5.597348e-02  0 
 5.080661e-07  -5.610430e-02  0 
 -6.124799e-02  -8.419586e-02  0 
 -4.268865e-02  -8.160336e-02  0 
 -2.733501e-02  -7.899578e-02  0 
 -1.303054e-02  -7.791673e-02  0 
 -1.277195e-07  -7.681746e-02  0 
VECTORS displacement_ITER6 FLOAT
 -5.534139e-02  -5.423494e-02  0 
 -6.967918e-02  -7.460502e-02  0 
 -9.672445e-03  -2.738125e-02  0 
 -2.819231e-03  -2.723972e-02  0 
 -4.009520e-02  -5.206495e-02  0 
 -2.585766e-02  -4.806443e-02  0 
 -1.373171e-02  -4.646477e-02  0 
 -4.780645e-03  -4.573721e-02  0 
 -4.845996e-02  -7.176176e-02  0 
 -3.201623e-02  -6.978742e-02  0 
 -1.853920e-02  -6.734173e-02  0 
 -5.561221e-03  -6.642708e-02  0 
 -5.316070e-02  -4.421475e-02  0 
 -6.287672e-02  -6.520319e-02  0 
 -7.108195e-02  -8.437152e-02  0 
 -1.496290e-02  -2.895676e-02  0 
 -5.259742e-03  -2.592594e-02  0 
 -3.547962e-08  -2.865562e-02  0 
 -3.407844e-02  -4.287200e-02  0 
 -4.581627e-02  -5.309989e-02  0 
 -2.255915e-02  -3.698017e-02  0 
 -3.515605e-02  -5.069543e-02  0 
 -1.042075e-02  -3.706451e-02  0 
 -1.764665e-02  -4.589935e-02  0 
 -5.197337e-03  -3.612072e-02  0 
 -1.002555e-02  -4.734035e-02  0 
 -1.046959e-07  -4.432710e-02  0 
 -4.515682e-02  -6.050425e-02  0 
 -5.985652e-02  -7.351680e-02  0 
 -2.837994e-02  -5.996834e-02  0 
 -3.811811e-02  -7.010997e-02  0 
 -1.741887e-02  -5.623825e-02  0 
 -2.645349e-02  -6.943035e-02  0 
 -3.919954e-03  -5.611042e-02  0 
 -1.114905e-02  -6.558226e-02  0 
 1.187198e-08  -6.753523e-02  0 
 -5.123589e-02  -8.370752e-02  0 
 -3.551787e-02  -7.939017e-02  0 
 -1.906199e-02  -7.889972e-02  0 
 -7.557489e-03  -7.701427e-02  0 
 -4.371416e-02  -4.386970e-02  0 
 -2.726439e-02  -3.953399e-02  0 
 -1.631609e-02  -3.679073e-02  0 
 -7.651769e-03  -3.662330e-02  0 
 -5.934240e-08  -3.596575e-02  0 
 -5.317977e-02  -6.260562e-02  0 
 -3.686109e-02  -6.015440e-02  0 
 -2.229974e-02  -5.800908e-02  0 
 -1.060927e-02  -5.597332e-02  0 
 -2.346940e-07  -5.610375e-02  0 
 -6.124765e-02  -8.419484e-02  0 
 -4.268882e-02  -8.160319e-02  0 
 -2.733392e-02  -7.899537e-02  0 
 -1.303113e-02  -7.791624e-02  0 
 2.002326e-07  -7.681765e-02  0 
VECTORS displacement_ITER7 FLOAT
 -5.534137e-02  -5.423475e-02  0 
 -6.967940e-02  -7.460494e-02  0 
 -9.672388e-03  -2.738113e-02  0 
 -2.819338e-03  -2.723968e-02  0 
 -4.009535e-02  -5.206497e-02  0 
 -2.585781e-02  -4.806443e-02  0 
 -1.373170e-02  -4.646466e-02  0 
 -4.780631e-03  -4.573717e-02  0 
 -4.845997e-02  -7.176169e-02  0 
 -3.201636e-02  -6.978737e-02  0 
 -1.853938e-02  -6.734177e-02  0 
 -5.561222e-03  -6.642722e-02  0 
 -5.316049e-02  -4.421503e-02  0 
 -6.287685e-02  -6.520302e-02  0 
 -7.108219e-02  -8.437164e-02  0 
 -1.496290e-02  -2.895645e-02  0 
 -5.259758e-03  -2.592590e-02  0 
 -2.654690e-08  -2.865547e-02  0 
 -3.407866e-02  -4.287188e-02  0 
 -4.581648e-02  -5.309979e-02  0 
 -2.255940e-02  -3.698005e-02  0 
 -3.515616e-02  -5.069542e-02  0 
 -1.042069e-02  -3.706432e-02  0 
 -1.764669e-02  -4.589930e-02  0 
 -5.197352e-03  -3.612063e-02  0 
 -1.002558e-02  -4.734027e-02  0 
 3.479469e-08  -4.432711e-02  0 
 -4.515691e-02  -6.050422e-02  0 
 -5.985657e-02  -7.351671e-02  0 
 -2.838007e-02  -5.996832e-02  0 
 -3.811820e-02  -7.010991e-02  0 
 -1.741896e-02  -5.623823e-02  0 
 -2.645364e-02  -6.943035e-02  0 
 -3.919943e-03  -5.611043e-02  0 
 -1.114913e-02  -6.558231e-02  0 
 -1.517795e-08  -6.753543e-02  0 
 -5.123582e-02  -8.370744e-02  0 
 -3.551798e-02  -7.939009e-02  0 
 -1.906228e-02  -7.889964e-02  0 
 -7.557471e-03  -7.701438e-02  0 
 -4.371448e-02  -4.386970e-02  0 
 -2.726429e-02  -3.953432e-02  0 
 -1.631598e-02  -3.679046e-02  0 
 -7.651775e-03  -3.662318e-02  0 
 1.084905e-08  -3.596567e-02  0 
 -5.317986e-02  -6.260549e-02  0 
 -3.686121e-02  -6.015438e-02  0 
 -2.229987e-02  -5.800908e-02  0 
 -1.060932e-02  -5.597330e-02  0 
 -2.061090e-08  -5.610383e-02  0 
 -6.124772e-02  -8.419490e-02  0 
 -4.268895e-02  -8.160288e-02  0 
 -2.733403e-02  -7.899529e-02  0 
 -1.303134e-02  -7.791650e-02  0 
 2.209410e-08  -7.681775e-02  0 
VECTORS displacement_ITER8 FLOAT
 -5.534139e-02  -5.423479e-02  0 
 -6.967938e-02  -7.460498e-02  0 
 -9.672406e-03  -2.738116e-02  0 
 -2.819390e-03  -2.723966e-02  0 
 -4.009529e-02  -5.206502e-02  0 
 -2.585784e-02  -4.806447e-02  0 
 -1.373171e-02  -4.646468e-02  0 
 -4.780629e-03  -4.573717e-02  0 
 -4.845995e-02  -7.176170e-02  0 
 -3.201638e-02  -6.978739e-02  0 
 -1.853936e-02  -6.734179e-02  0 
 -5.561210e-03  -6.642721e-02  0 
 -5.316054e-02  -4.421503e-02  0 
 -6.287683e-02  -6.520307e-02  0 
 -7.108217e-02  -8.437165e-02  0 
 -1.496295e-02  -2.895652e-02  0 
 -5.259767e-03  -2.592591e-02  0 
 -7.944063e-09  -2.865547e-02  0 
 -3.407855e-02  -4.287186e-02  0 
 -4.581645e-02  -5.309984e-02  0 
 -2.255949e-02  -3.698007e-02  0 
 -3.515615e-02  -5.069546e-02  0 
 -1.042072e-02  -3.706436e-02  0 
 -1.764672e-02  -4.589934e-02  0 
 -5.197369e-03  -3.612065e-02  0 
 -1.002558e-02  -4.734028e-02  0 
 3.931925e-09  -4.432711e-02  0 
 -4.515688e-02  -6.050425e-02  0 
 -5.985656e-02  -7.351673e-02  0 
 -2.838008e-02  -5.996835e-02  0 
 -3.811820e-02  -7.010993e-02  0 
 -1.741896e-02  -5.623824e-02  0 
 -2.645366e-02  -6.943037e-02  0 
 -3.919937e-03  -5.611044e-02  0 
 -1.114912e-02  -6.558232e-02  0 
 -7.857454e-10  -6.753540e-02  0 
 -5.123579e-02  -8.370749e-02  0 
 -3.551803e-02  -7.939013e-02  0 
 -1.906225e-02  -7.889971e-02  0 
 -7.557449e-03  -7.701433e-02  0 
 -4.371444e-02  -4.386970e-02  0 
 -2.726422e-02  -3.953445e-02  0 
 -1.631600e-02  -3.679049e-02  0 
 -7.651793e-03  -3.662319e-02  0 
 -1.260999e-09  -3.596570e-02  0 
 -5.317984e-02  -6.260554e-02  0 
 -3.686120e-02  -6.015441e-02  0 
 -2.229989e-02  -5.800910e-02  0 
 -1.060931e-02  -5.597331e-02  0 
 -1.126934e-09  -5.610378e-02  0 
 -6.124772e-02  -8.419493e-02  0 
 -4.268893e-02  -8.160286e-02  0 
 -2.733405e-02  -7.899535e-02  0 
 -1.303130e-02  -7.791650e-02  0 
 8.809943e-09  -7.681770e-02  0 
VECTORS displacement_ITER9 FLOAT
 -5.534139e-02  -5.423479e-02  0 
 -6.967938e-02  -7.460498e-02  0 
 -9.672395e-03  -2.738115e-02  0 
 -2.819395e-03  -2.723965e-02  0 
 -4.009529e-02  -5.206502e-02  0 
 -2.585784e-02  -4.806447e-02  0 
 -1.373170e-02  -4.646468e-02  0 
 -4.780629e-03  -4.573718e-02  0 
 -4.845995e-02  -7.176170e-02  0 
 -3.201638e-02  -6.978739e-02  0 
 -1.853936e-02  -6.734179e-02  0 
 -5.561217e-03  -6.642722e-02  0 
 -5.316053e-02  -4.421504e-02  0 
 -6.287684e-02  -6.520307e-02  0 
 -7.108216e-02  -8.437164e-02  0 
 -1.496296e-02  -2.895651e-02  0 
 -5.259748e-03  -2.592593e-02  0 
 -4.449584e-10  -2.865546e-02  0 
 -3.407857e-02  -4.287186e-02  0 
 -4.581646e-02  -5.309983e-02  0 
 -2.255949e-02  -3.698006e-02  0 
 -3.515615e-02  -5.069546e-02  0 
 -1.042071e-02  -3.706437e-02  0 
 -1.764671e-02  -4.589934e-02  0 
 -5.197369e-03  -3.612066e-02  0 
 -1.002558e-02  -4.734029e-02  0 
 3.383563e-10  -4.432711e-02  0 
 -4.515688e-02  -6.050424e-02  0 
 -5.985657e-02  -7.351673e-02  0 
 -2.838008e-02  -5.996835e-02  0 
 -3.811820e-02  -7.010993e-02  0 
 -1.741896e-02  -5.623825e-02  0 
 -2.645365e-02  -6.943037e-02  0 
 -3.919939e-03  -5.611044e-02  0 
 -1.114912e-02  -6.558232e-02  0 
 -2.901090e-09  -6.753541e-02  0 
 -5.123579e-02  -8.370749e-02  0 
 -3.551802e-02  -7.939013e-02  0 
 -1.906224e-02  -7.889971e-02  0 
 -7.557462e-03  -7.701434e-02  0 
 -4.371445e-02  -4.386970e-02  0 
 -2.726422e-02  -3.953446e-02  0 
 -1.631599e-02  -3.679049e-02  0 
 -7.651788e-03  -3.662319e-02  0 
 2.881267e-10  -3.596570e-02  0 
 -5.317984e-02  -6.260554e-02  0 
 -3.686120e-02  -6.015441e-02  0 
 -2.229989e-02  -5.800910e-02  0 
 -1.060932e-02  -5.597331e-02  0 
 -1.306626e-09  -5.610378e-02  0 
 -6.124773e-02  -8.419493e-02  0 
 -4.268892e-02  -8.160286e-02  0 
 -2.733405e-02  -7.899535e-02  0 
 -1.303130e-02  -7.791650e-02  0 
 -1.379581e-09  -7.681772e-02  0 
VECTORS displacement_ITER10 FLOAT
 -5.534139e-02  -5.423479e-02  0 
 -6.967938e-02  -7.460498e-02  0 
 -9.672398e-03  -2.738115e-02  0 
 -2.819392e-03  -2.723965e-02  0 
 -4.009529e-02  -5.206502e-02  0 
 -2.585784e-02  -4.806447e-02  0 
 -1.373171e-02  -4.646468e-02  0 
 -4.780629e-03  -4.573717e-02  0 
 -4.845995e-02  -7.176170e-02  0 
 -3.201638e-02  -6.978739e-02  0 
 -1.853936e-02  -6.734179e-02  0 
 -5.561216e-03  -6.642722e-02  0 
 -5.316053e-02  -4.421504e-02  0 
 -6.287684e-02  -6.520307e-02  0 
 -7.108216e-02  -8.437164e-02  0 
 -1.496296e-02  -2.895652e-02  0 
 -5.259751e-03  -2.592592e-02  0 
 6.486391e-11  -2.865546e-02  0 
 -3.407857e-02  -4.287186e-02  0 
 -4.581646e-02  -5.309983e-02  0 
 -2.255948e-02  -3.698006e-02  0 
 -3.515615e-02  -5.069546e-02  0 
 -1.042072e-02  -3.706437e-02  0 
 -1.764671e-02  -4.589934e-02  0 
 -5.197368e-03  -3.612066e-02  0 
 -1.002558e-02  -4.734029e-02  0 
 -2.051488e-10  -4.432711e-02  0 
 -4.515688e-02  -6.050424e-02  0 
 -5.985657e-02  -7.351673e-02  0 
 -2.838008e-02  -5.996835e-02  0 
 -3.811820e-02  -7.010993e-02  0 
 -1.741896e-02  -5.623824e-02  0 
 -2.645365e-02  -6.943037e-02  0 
 -3.919939e-03  -5.611044e-02  0 
 -1.114912e-02  -6.558232e-02  0 
 -3.534496e-11  -6.753541e-02  0 
 -5.123579e-02  -8.370749e-02  0 
 -3.551802e-02  -7.939013e-02  0 
 -1.906224e-02  -7.889970e-02  0 
 -7.557460e-03  -7.701434e-02  0 
 -4.371445e-02  -4.386970e-02  0 
 -2.726422e-02  -3.953446e-02  0 
 -1.631599e-02  -3.679049e-02  0 
 -7.651789e-03  -3.662319e-02  0 
 -2.649960e-11  -3.596570e-02  0 
 -5.317984e-02  -6.260554e-02  0 
 -3.686120e-02  -6.015441e-02  0 
 -2.229989e-02  -5.800910e-02  0 
 -1.060932e-02  -5.597331e-02  0 
 -1.070122e-10  -5.610378e-02  0 
 -6.124773e-02  -8.419493e-02  0 
 -4.268893e-02  -8.160286e-02  0 
 -2.733405e-02  -7.899535e-02  0 
 -1.303130e-02  -7.791650e-02  0 
 2.098743e-10  -7.681772e-02  0 
VECTORS displacement_ITER11 FLOAT
 -5.534139e-02  -5.423479e-02  0 
 -6.967938e-02  -7.460498e-02  0 
 -9.672397e-03  -2.738115e-02  0 
 -2.819392e-03  -2.723965e-02  0 
 -4.009529e-02  -5.206502e-02  0 
 -2.585784e-02  -4.806447e-02  0 
 -1.373171e-02  -4.646468e-02  0 
 -4.780629e-03  -4.573717e-02  0 
 -4.845995e-02  -7.176170e-02  0 
 -3.201638e-02  -6.978739e-02  0 
 -1.853936e-02  -6.734179e-02  0 
 -5.561216e-03  -6.642722e-02  0 
 -5.316053e-02  -4.421504e-02  0 
 -6.287684e-02  -6.520307e-02  0 
 -7.108216e-02  -8.437164e-02  0 
 -1.496296e-02  -2.895652e-02  0 
 -5.259751e-03  -2.592592e-02  0 
 5.421761e-11  -2.865547e-02  0 
 -3.407857e-02  -4.287186e-02  0 
 -4.581646e-02  -5.309983e-02  0 
 -2.255948e-02  -3.698006e-02  0 
 -3.515615e-02  -5.069546e-02  0 
 -1.042072e-02  -3.706437e-02  0 
 -1.764671e-02  -4.589934e-02  0 
 -5.197368e-03  -3.612066e-02  0 
 -1.002558e-02  -4.734029e-02  0 
 -4.987576e-11  -4.432711e-02  0 
 -4.515688e-02  -6.050424e-02  0 
 -5.985657e-02  -7.351673e-02  0 
 -2.838008e-02  -5.996835e-02  0 
 -3.811820e-02  -7.010993e-02  0 
 -1.741896e-02  -5.623824e-02  0 
 -2.645365e-02  -6.943037e-02  0 
 -3.919939e-03  -5.611044e-02  0 
 -1.114912e-02  -6.558232e-02  0 
 -4.329223e-12  -6.753541e-02  0 
 -5.123579e-02  -8.370749e-02  0 
 -3.551802e-02  -7.939013e-02  0 
 -1.906224e-02  -7.889971e-02  0 
 -7.557461e-03  -7.701434e-02  0 
 -4.371445e-02  -4.386970e-02  0 
 -2.726422e-02  -3.953446e-02  0 
 -1.631599e-02  -3.679049e-02  0 
 -7.651788e-03  -3.662319e-02  0 
 1.157907e-11  -3.596570e-02  0 
 -5.317984e-02  -6.260554e-02  0 
 -3.686120e-02  -6.015441e-02  0 
 -2.229989e-02  -5.800910e-02  0 
 -1.060932e-02  -5.597331e-02  0 
 2.528388e-11  -5.610378e-02  0 
 -6.124773e-02  -8.419493e-02  0 
 -4.268893e-02  -8.160286e-02  0 
 -2.733405e-02  -7.899535e-02  0 
 -1.303130e-02  -7.791650e-02  0 
 4.057837e-12  -7.681772e-02  0 
CELL_DATA 40
TENSORS element_stresses FLOAT
 -8.436891e-01  -4.290453e-02  0 
 -4.290453e-02  4.295238e-02  0 
 0  0  0 

 -1.650315e+00  -4.717296e-01  0 
 -4.717296e-01  -8.856446e-02  0 
 0  0  0 

 -6.866244e-01  -3.307947e-01  0 
 -3.307947e-01  2.936084e-02  0 
 0  0  0 

 -5.293774e-01  -3.170143e-01  0 
 -3.170143e-01  1.004562e-01  0 
 0  0  0 

 -3.760225e-01  -9.740544e-01  0 
 -9.740544e-01  1.474913e-01  0 
 0  0  0 

 -8.621239e-01  -8.828685e-01  0 
 -8.828685e-01  2.123025e-01  0 
 0  0  0 

 -1.075489e+00  -1.338290e+00  0 
 -1.338290e+00  -4.904901e-01  0 
 0  0  0 

 -1.412877e-01  -5.076505e-01  0 
 -5.076505e-01  5.243358e-02  0 
 0  0  0 

 -2.754599e-01  -5.647499e-01  0 
 -5.647499e-01  -1.231973e-01  0 
 0  0  0 

 -3.195116e-01  -5.247061e-01  0 
 -5.247061e-01  -1.175750e-01  0 
 0  0  0 

 -7.282181e-02  -4.859324e-01  0 
 -4.859324e-01  8.343597e-02  0 
 0  0  0 

 -6.057655e-01  -1.257612e+00  0 
 -1.257612e+00  -4.339009e-01  0 
 0  0  0 

 1.947793e-01  -1.230760e+00  0 
 -1.230760e+00  3.714385e-01  0 
 0  0  0 

 -7.570921e-01  -4.815580e-02  0 
 -4.815580e-02  -4.050350e-02  0 
 0  0  0 

 -6.309964e-01  -1.615694e-01  0 
 -1.615694e-01  -3.249345e-02  0 
 0  0  0 

 -6.798646e-01  -3.051191e-02  0 
 -3.051191e-02  -1.967054e-02  0 
 0  0  0 

 -4.847748e-01  -1.057340e-01  0 
 -1.057340e-01  4.738378e-02  0 
 0  0  0 

 -1.373807e+00  -7.174381e-01  0 
 -7.174381e-01  -6.826387e-02  0 
 0  0  0 

 -7.433363e-01  -5.512922e-01  0 
 -5.512922e-01  3.404090e-01  0 
 0  0  0 

 -8.702386e-01  -3.962378e-01  0 
 -3.962378e-01  1.392498e-01  0 
 0  0  0 

 -1.041916e+00  -7.987115e-01  0 
 -7.987115e-01  -2.108541e-01  0 
 0  0  0 

 -3.262695e-01  -3.739352e-01  0 
 -3.739352e-01  1.083382e-01  0 
 0  0  0 

 -4.383942e-01  -5.033610e-01  0 
 -5.033610e-01  -7.124257e-02  0 
 0  0  0 

 -3.898452e-01  -3.691301e-01  0 
 -3.691301e-01  -1.139964e-03  0 
 0  0  0 

 -2.261724e-01  -3.742153e-01  0 
 -3.742153e-01  1.251200e-01  0 
 0  0  0 

 -9.789432e-01  -1.213971e+00  0 
 -1.213971e+00  -4.158169e-01  0 
 0  0  0 

 1.575274e-01  -1.087994e+00  0 
 -1.087994e+00  3.404552e-01  0 
 0  0  0 

 -2.314028e-01  -1.001948e+00  0 
 -1.001948e+00  3.354598e-01  0 
 0  0  0 

 -5.441070e-01  -1.176694e+00  0 
 -1.176694e+00  -3.596369e-01  0 
 0  0  0 

 7.064316e-02  -5.172834e-01  0 
 -5.172834e-01  9.202881e-02  0 
 0  0  0 

 -1.083373e-01  -4.718173e-01  0 
 -4.718173e-01  -8.757818e-02  0 
 0  0  0 

 -5.306510e-01  -1.211710e-01  0 
 -1.211710e-01  9.379727e-02  0 
 0  0  0 

 -7.679707e-01  -1.869892e-01  0 
 -1.869892e-01  2.181020e-01  0 
 0  0  0 

 -3.417390e-01  -1.750036e-01  0 
 -1.750036e-01  8.529864e-02  0 
 0  0  0 

 -4.017467e-01  -3.008825e-01  0 
 -3.008825e-01  6.239542e-03  0 
 0  0  0 

 -9.135166e-01  -8.340037e-01  0 
 -8.340037e-01  -1.236950e-01  0 
 0  0  0 

 -1.643979e-01  -7.595081e-01  0 
 -7.595081e-01  3.875258e-01  0 
 0  0  0 

 -8.693742e-02  -4.027273e-01  0 
 -4.027273e-01  1.110524e-01  0 
 0  0  0 

 -2.121564e-01  -4.561371e-01  0 
 -4.561371e-01  -6.078362e-02  0 
 0  0  0 

 -4.988386e-01  -1.038577e+00  0 
 -1.038577e+00  -3.319660e-01  0 
 0  0  0 

TENSORS element_stresses FLOAT
 -8.436891e-01  -4.290453e-02  0 
 -4.290453e-02  4.295238e-02  0 
 0  0  0 

 -1.650315e+00  -4.717296e-01  0 
 -4.717296e-01  -8.856446e-02  0 
 0  0  0 

 -6.866244e-01  -3.307947e-01  0 
 -3.307947e-01  2.936084e-02  0 
 0  0  0 

 -5.293774e-01  -3.170143e-01  0 
 -3.170143e-01  1.004562e-01  0 
 0  0  0 

 -3.760225e-01  -9.740544e-01  0 
 -9.740544e-01  1.474913e-01  0 
 0  0  0 

 -8.621239e-01  -8.828685e-01  0 
 -8.828685e-01  2.123025e-01  0 
 0  0  0 

 -1.075489e+00  -1.338290e+00  0 
 -1.338290e+00  -4.904901e-01  0 
 0  0  0 

 -1.412877e-01  -5.076505e-01  0 
 -5.076505e-01  5.243358e-02  0 
 0  0  0 

 -2.754599e-01  -5.647499e-01  0 
 -5.647499e-01  -1.231973e-01  0 
 0  0  0 

 -3.195116e-01  -5.247061e-01  0 
 -5.247061e-01  -1.175750e-01  0 
 0  0  0 

 -7.282181e-02  -4.859324e-01  0 
 -4.859324e-01  8.343597e-02  0 
 0  0  0 

 -6.057655e-01  -1.257612e+00  0 
 -1.257612e+00  -4.339009e-01  0 
 0  0  0 

 1.947793e-01  -1.230760e+00  0 
 -1.230760e+00  3.714385e-01  0 
 0  0  0 

 -7.570921e-01  -4.815580e-02  0 
 -4.815580e-02  -4.050350e-02  0 
 0  0  0 

 -6.309964e-01  -1.615694e-01  0 
 -1.615694e-01  -3.249345e-02  0 
 0  0  0 

 -6.798646e-01  -3.051191e-02  0 
 -3.051191e-02  -1.967054e-02  0 
 0  0  0 

 -4.847748e-01  -1.057340e-01  0 
 -1.057340e-01  4.738378e-02  0 
 0  0  0 

 -1.373807e+00  -7.174381e-01  0 
 -7.174381e-01  -6.826387e-02  0 
 0  0  0 

 -7.433363e-01  -5.512922e-01  0 
 -5.512922e-01  3.404090e-01  0 
 0  0  0 

 -8.702386e-01  -3.962378e-01  0 
 -3.962378e-01  1.392498e-01  0 
 0  0  0 

 -1.041916e+00  -7.987115e-01  0 
 -7.987115e-01  -2.108541e-01  0 
 0  0  0 

 -3.262695e-01  -3.739352e-01  0 
 -3.739352e-01  1.083382e-01  0 
 0  0  0 

 -4.383942e-01  -5.033610e-01  0 
 -5.033610e-01  -7.124257e-02  0 
 0  0  0 

 -3.898452e-01  -3.691301e-01  0 
 -3.691301e-01  -1.139964e-03  0 
 0  0  0 

 -2.261724e-01  -3.742153e-01  0 
 -3.742153e-01  1.251200e-01  0 
 0  0  0 

 -9.789432e-01  -1.213971e+00  0 
 -1.213971e+00  -4.158169e-01  0 
 0  0  0 

 1.575274e-01  -1.087994e+00  0 
 -1.087994e+00  3.404552e-01  0 
 0  0  0 

 -2.314028e-01  -1.001948e+00  0 
 -1.001948e+00  3.354598e-01  0 
 0  0  0 

 -5.441070e-01  -1.176694e+00  0 
 -1.176694e+00  -3.596369e-01  0 
 0  0  0 

 7.064316e-02  -5.172834e-01  0 
 -5.172834e-01  9.202881e-02  0 
 0  0  0 

 -1.083373e-01  -4.718173e-01  0 
 -4.718173e-01  -8.757818e-02  0 
 0  0  0 

 -5.306510e-01  -1.211710e-01  0 
 -1.211710e-01  9.379727e-02  0 
 0  0  0 

 -7.679707e-01  -1.869892e-01  0 
 -1.869892e-01  2.181020e-01  0 
 0  0  0 

 -3.417390e-01  -1.750036e-01  0 
 -1.750036e-01  8.529864e-02  0 
 0  0  0 

 -4.017467e-01  -3.008825e-01  0 
 -3.008825e-01  6.239542e-03  0 
 0  0  0 

 -9.135166e-01  -8.340037e-01  0 
 -8.340037e-01  -1.236950e-01  0 
 0  0  0 

 -1.643979e-01  -7.595081e-01  0 
 -7.595081e-01  3.875258e-01  0 
 0  0  0 

 -8.693742e-02  -4.027273e-01  0 
 -4.027273e-01  1.110524e-01  0 
 0  0  0 

 -2.121564e-01  -4.561371e-01  0 
 -4.561371e-01  -6.078362e-02  0 
 0  0  0 

 -4.988386e-01  -1.038577e+00  0 
 -1.038577e+00  -3.319660e-01  0 
 0  0  0 

