# vtk DataFile Version 3.1
this is an vtk file created by FEMAC
ASCII
DATASET UNSTRUCTURED_GRID
POINTS 55 FLOAT
5.000000 2.000000 0.000000
5.000000 3.000000 0.000000
5.000000 4.000000 0.000000
6.000000 2.000000 0.000000
6.000000 3.000000 0.000000
6.000000 4.000000 0.000000
7.000000 3.000000 0.000000
7.000000 4.000000 0.000000
8.000000 3.000000 0.000000
8.000000 4.000000 0.000000
9.000000 3.000000 0.000000
9.000000 4.000000 0.000000
4.500000 2.000000 0.000000
4.500000 3.000000 0.000000
5.000000 2.500000 0.000000
4.500000 4.000000 0.000000
5.000000 3.500000 0.000000
5.000000 4.500000 0.000000
5.500000 2.000000 0.000000
5.500000 3.000000 0.000000
6.000000 2.500000 0.000000
5.500000 4.000000 0.000000
6.000000 3.500000 0.000000
6.000000 4.500000 0.000000
6.500000 2.000000 0.000000
6.500000 3.000000 0.000000
7.000000 2.500000 0.000000
6.500000 4.000000 0.000000
7.000000 3.500000 0.000000
7.000000 4.500000 0.000000
7.500000 3.000000 0.000000
8.000000 2.500000 0.000000
7.500000 4.000000 0.000000
8.000000 3.500000 0.000000
8.000000 4.500000 0.000000
8.500000 3.000000 0.000000
9.000000 2.500000 0.000000
8.500000 4.000000 0.000000
9.000000 3.500000 0.000000
9.000000 4.500000 0.000000
4.500000 2.500000 0.000000
4.500000 3.500000 0.000000
4.500000 4.500000 0.000000
5.500000 2.500000 0.000000
5.500000 3.500000 0.000000
5.500000 4.500000 0.000000
6.500000 2.500000 0.000000
6.500000 3.500000 0.000000
6.500000 4.500000 0.000000
7.500000 2.500000 0.000000
7.500000 3.500000 0.000000
7.500000 4.500000 0.000000
8.500000 2.500000 0.000000
8.500000 3.500000 0.000000
8.500000 4.500000 0.000000
CELLS 40 200 
4 12  0 14 40
4 40 14  1 13
4 13  1 16 41
4 41 16  2 15
4 15  2 17 42
4 0 18 43 14
4 14 43 19  1
4 18  3 20 43
4 43 20  4 19
4 1 19 44 16
4 16 44 21  2
4 19  4 22 44
4 44 22  5 21
4 2 21 45 17
4 21  5 23 45
4 3 24 46 20
4 20 46 25  4
4 46 26  6 25
4 4 25 47 22
4 22 47 27  5
4 25  6 28 47
4 47 28  7 27
4 5 27 48 23
4 27  7 29 48
4 26 49 30  6
4 49 31  8 30
4 6 30 50 28
4 28 50 32  7
4 30  8 33 50
4 50 33  9 32
4 7 32 51 29
4 32  9 34 51
4 31 52 35  8
4 52 36 10 35
4 8 35 53 33
4 33 53 37  9
4 35 10 38 53
4 53 38 11 37
4 9 37 54 34
4 37 11 39 54
CELL_TYPES 40
9 9 9 9 9 9 9 9 9 9 9 9 9 9 9 9 9 9 9 9 9 9 9 9 9 9 9 9 9 9 9 9 9 9 9 9 9 9 9 9 
POINT_DATA 55
VECTORS displacement_ITER1 FLOAT
 -3.707220e-02  -9.101013e-02  0 
 -2.102335e-02  -8.969985e-02  0 
 -7.471306e-03  -8.837999e-02  0 
 -4.024959e-02  -1.122662e-01  0 
 -2.369090e-02  -1.107273e-01  0 
 -7.494501e-03  -1.102270e-01  0 
 -2.447956e-02  -1.315387e-01  0 
 -8.386507e-03  -1.308581e-01  0 
 -2.547661e-02  -1.509670e-01  0 
 -8.189957e-03  -1.503197e-01  0 
 -2.561552e-02  -1.692703e-01  0 
 -8.650130e-03  -1.680911e-01  0 
 -3.558985e-02  -7.953128e-02  0 
 -1.882264e-02  -7.926774e-02  0 
 -2.781649e-02  -8.956809e-02  0 
 -7.931722e-03  -7.721010e-02  0 
 -1.468824e-02  -8.985330e-02  0 
 6.378738e-05  -8.742814e-02  0 
 -3.719859e-02  -1.028821e-01  0 
 -2.327136e-02  -9.977150e-02  0 
 -3.223820e-02  -1.120330e-01  0 
 -6.658189e-03  -9.953751e-02  0 
 -1.522003e-02  -1.096294e-01  0 
 -1.883797e-04  -1.110936e-01  0 
 -4.166595e-02  -1.222955e-01  0 
 -2.367473e-02  -1.216157e-01  0 
 -3.265101e-02  -1.313670e-01  0 
 -8.578770e-03  -1.205940e-01  0 
 -1.654874e-02  -1.315995e-01  0 
 -2.178799e-04  -1.302040e-01  0 
 -2.532414e-02  -1.410872e-01  0 
 -3.421641e-02  -1.516843e-01  0 
 -7.958933e-03  -1.408501e-01  0 
 -1.667340e-02  -1.503156e-01  0 
 -3.665762e-05  -1.504684e-01  0 
 -2.547795e-02  -1.605226e-01  0 
 -3.406823e-02  -1.692570e-01  0 
 -8.547692e-03  -1.593604e-01  0 
 -1.713530e-02  -1.687207e-01  0 
 -9.623201e-05  -1.679607e-01  0 
 -2.726093e-02  -7.939324e-02  0 
 -1.271173e-02  -7.858125e-02  0 
 1.414215e-04  -7.654765e-02  0 
 -3.026739e-02  -1.012089e-01  0 
 -1.502872e-02  -9.947526e-02  0 
 1.202051e-04  -9.945776e-02  0 
 -3.260095e-02  -1.217884e-01  0 
 -1.595725e-02  -1.211257e-01  0 
 -2.282501e-05  -1.204689e-01  0 
 -3.339391e-02  -1.420942e-01  0 
 -1.662937e-02  -1.408620e-01  0 
 -2.876546e-04  -1.407928e-01  0 
 -3.424919e-02  -1.607692e-01  0 
 -1.689781e-02  -1.599881e-01  0 
 2.206571e-05  -1.592515e-01  0 
VECTORS displacement_ITER2 FLOAT
 -3.709285e-02  -9.062598e-02  0 
 -2.121208e-02  -8.924602e-02  0 
 -7.316049e-03  -8.805903e-02  0 
 -3.995659e-02  -1.122000e-01  0 
 -2.373789e-02  -1.104673e-01  0 
 -7.499898e-03  -1.097990e-01  0 
 -2.453260e-02  -1.313996e-01  0 
 -8.438283e-03  -1.306104e-01  0 
 -2.556852e-02  -1.507678e-01  0 
 -8.175311e-03  -1.502528e-01  0 
 -2.550336e-02  -1.691990e-01  0 
 -8.693487e-03  -1.679466e-01  0 
 -3.540640e-02  -7.945048e-02  0 
 -1.919418e-02  -7.885787e-02  0 
 -2.804494e-02  -8.906348e-02  0 
 -7.605217e-03  -7.704727e-02  0 
 -1.469055e-02  -8.949082e-02  0 
 -1.272796e-05  -8.693212e-02  0 
 -3.822884e-02  -1.021500e-01  0 
 -2.333540e-02  -9.944779e-02  0 
 -3.230605e-02  -1.118593e-01  0 
 -6.620149e-03  -9.918105e-02  0 
 -1.521577e-02  -1.093149e-01  0 
 -9.085839e-05  -1.104770e-01  0 
 -4.138915e-02  -1.217836e-01  0 
 -2.371293e-02  -1.214245e-01  0 
 -3.287403e-02  -1.314677e-01  0 
 -8.612570e-03  -1.201772e-01  0 
 -1.662914e-02  -1.314011e-01  0 
 -2.242663e-05  -1.299981e-01  0 
 -2.542852e-02  -1.409401e-01  0 
 -3.420967e-02  -1.514671e-01  0 
 -7.971850e-03  -1.407175e-01  0 
 -1.673419e-02  -1.501956e-01  0 
 -5.377780e-05  -1.504328e-01  0 
 -2.546087e-02  -1.602887e-01  0 
 -3.432113e-02  -1.693792e-01  0 
 -8.548594e-03  -1.592453e-01  0 
 -1.708679e-02  -1.685611e-01  0 
 -6.885235e-05  -1.678801e-01  0 
 -2.740331e-02  -7.901752e-02  0 
 -1.301405e-02  -7.797770e-02  0 
 -1.627190e-05  -7.682652e-02  0 
 -3.037014e-02  -1.008406e-01  0 
 -1.500743e-02  -9.915592e-02  0 
 2.768064e-05  -9.912181e-02  0 
 -3.266188e-02  -1.215171e-01  0 
 -1.600224e-02  -1.208495e-01  0 
 -1.965380e-05  -1.200038e-01  0 
 -3.361115e-02  -1.419403e-01  0 
 -1.671260e-02  -1.406966e-01  0 
 -5.649059e-05  -1.408313e-01  0 
 -3.431126e-02  -1.603941e-01  0 
 -1.687758e-02  -1.598736e-01  0 
 -5.894782e-05  -1.590864e-01  0 
VECTORS displacement_ITER3 FLOAT
 -3.715466e-02  -9.070848e-02  0 
 -2.112378e-02  -8.925729e-02  0 
 -7.282295e-03  -8.803200e-02  0 
 -3.983194e-02  -1.121629e-01  0 
 -2.367630e-02  -1.104536e-01  0 
 -7.460415e-03  -1.097872e-01  0 
 -2.445825e-02  -1.313389e-01  0 
 -8.365587e-03  -1.305812e-01  0 
 -2.549163e-02  -1.507292e-01  0 
 -8.110107e-03  -1.501940e-01  0 
 -2.543710e-02  -1.691523e-01  0 
 -8.624502e-03  -1.678992e-01  0 
 -3.553573e-02  -7.937962e-02  0 
 -1.904342e-02  -7.888821e-02  0 
 -2.798281e-02  -8.912907e-02  0 
 -7.551822e-03  -7.700756e-02  0 
 -1.463961e-02  -8.948156e-02  0 
 -2.887735e-06  -8.687688e-02  0 
 -3.817406e-02  -1.021742e-01  0 
 -2.327549e-02  -9.944231e-02  0 
 -3.223097e-02  -1.118392e-01  0 
 -6.578683e-03  -9.916030e-02  0 
 -1.516836e-02  -1.092973e-01  0 
 8.197645e-06  -1.104514e-01  0 
 -4.139135e-02  -1.218153e-01  0 
 -2.364439e-02  -1.213902e-01  0 
 -3.274707e-02  -1.313720e-01  0 
 -8.552436e-03  -1.201825e-01  0 
 -1.655014e-02  -1.313591e-01  0 
 2.045748e-05  -1.299763e-01  0 
 -2.534253e-02  -1.408877e-01  0 
 -3.411702e-02  -1.514662e-01  0 
 -7.901208e-03  -1.406662e-01  0 
 -1.665594e-02  -1.501423e-01  0 
 1.024529e-05  -1.503678e-01  0 
 -2.539592e-02  -1.602484e-01  0 
 -3.426154e-02  -1.693326e-01  0 
 -8.481052e-03  -1.591886e-01  0 
 -1.702351e-02  -1.685138e-01  0 
 1.556180e-05  -1.678293e-01  0 
 -2.732530e-02  -7.898421e-02  0 
 -1.300154e-02  -7.793824e-02  0 
 -2.416982e-05  -7.681331e-02  0 
 -3.032101e-02  -1.008757e-01  0 
 -1.495920e-02  -9.914058e-02  0 
 1.917226e-05  -9.912852e-02  0 
 -3.256449e-02  -1.214880e-01  0 
 -1.594275e-02  -1.208237e-01  0 
 1.637594e-05  -1.200334e-01  0 
 -3.352565e-02  -1.418514e-01  0 
 -1.663148e-02  -1.406488e-01  0 
 7.139153e-06  -1.407333e-01  0 
 -3.423433e-02  -1.603537e-01  0 
 -1.681023e-02  -1.598236e-01  0 
 8.866438e-06  -1.590394e-01  0 
VECTORS displacement_ITER4 FLOAT
 -3.713983e-02  -9.070015e-02  0 
 -2.113909e-02  -8.925805e-02  0 
 -7.284254e-03  -8.804396e-02  0 
 -3.983868e-02  -1.121650e-01  0 
 -2.368503e-02  -1.104552e-01  0 
 -7.472752e-03  -1.097911e-01  0 
 -2.446717e-02  -1.313392e-01  0 
 -8.375247e-03  -1.305768e-01  0 
 -2.549887e-02  -1.507300e-01  0 
 -8.119802e-03  -1.501964e-01  0 
 -2.544823e-02  -1.691430e-01  0 
 -8.627843e-03  -1.678953e-01  0 
 -3.552264e-02  -7.938938e-02  0 
 -1.906145e-02  -7.890061e-02  0 
 -2.798657e-02  -8.912671e-02  0 
 -7.554012e-03  -7.701732e-02  0 
 -1.465029e-02  -8.948742e-02  0 
 3.292955e-06  -8.688656e-02  0 
 -3.818055e-02  -1.021805e-01  0 
 -2.328520e-02  -9.944604e-02  0 
 -3.224083e-02  -1.118390e-01  0 
 -6.586852e-03  -9.916830e-02  0 
 -1.517699e-02  -1.093015e-01  0 
 -2.201177e-06  -1.104487e-01  0 
 -4.139602e-02  -1.218058e-01  0 
 -2.365425e-02  -1.213894e-01  0 
 -3.275890e-02  -1.313707e-01  0 
 -8.564182e-03  -1.201831e-01  0 
 -1.655967e-02  -1.313582e-01  0 
 -1.235238e-07  -1.299661e-01  0 
 -2.535120e-02  -1.408879e-01  0 
 -3.412329e-02  -1.514697e-01  0 
 -7.911714e-03  -1.406641e-01  0 
 -1.666586e-02  -1.501419e-01  0 
 -7.267284e-08  -1.503749e-01  0 
 -2.540548e-02  -1.602475e-01  0 
 -3.425813e-02  -1.693156e-01  0 
 -8.487063e-03  -1.591907e-01  0 
 -1.703137e-02  -1.685128e-01  0 
 5.110274e-07  -1.678179e-01  0 
 -2.733081e-02  -7.899635e-02  0 
 -1.303012e-02  -7.792094e-02  0 
 -1.897689e-06  -7.682115e-02  0 
 -3.032550e-02  -1.008739e-01  0 
 -1.496776e-02  -9.914756e-02  0 
 2.696249e-06  -9.914065e-02  0 
 -3.257496e-02  -1.214866e-01  0 
 -1.595169e-02  -1.208237e-01  0 
 -2.204901e-06  -1.200372e-01  0 
 -3.352295e-02  -1.418508e-01  0 
 -1.664144e-02  -1.406485e-01  0 
 2.141580e-06  -1.407220e-01  0 
 -3.423703e-02  -1.603558e-01  0 
 -1.681888e-02  -1.598214e-01  0 
 -9.348007e-07  -1.590460e-01  0 
VECTORS displacement_ITER5 FLOAT
 -3.713981e-02  -9.069658e-02  0 
 -2.114132e-02  -8.925757e-02  0 
 -7.286223e-03  -8.804387e-02  0 
 -3.984336e-02  -1.121690e-01  0 
 -2.368688e-02  -1.104569e-01  0 
 -7.473355e-03  -1.097920e-01  0 
 -2.446844e-02  -1.313434e-01  0 
 -8.376391e-03  -1.305799e-01  0 
 -2.550003e-02  -1.507304e-01  0 
 -8.121102e-03  -1.501986e-01  0 
 -2.545014e-02  -1.691493e-01  0 
 -8.628667e-03  -1.678993e-01  0 
 -3.551781e-02  -7.939080e-02  0 
 -1.906285e-02  -7.890027e-02  0 
 -2.798734e-02  -8.912534e-02  0 
 -7.557796e-03  -7.701375e-02  0 
 -1.465210e-02  -8.948687e-02  0 
 6.798370e-07  -8.688751e-02  0 
 -3.818094e-02  -1.021866e-01  0 
 -2.328721e-02  -9.944633e-02  0 
 -3.224363e-02  -1.118416e-01  0 
 -6.587762e-03  -9.916866e-02  0 
 -1.517827e-02  -1.093027e-01  0 
 -1.390244e-07  -1.104487e-01  0 
 -4.139591e-02  -1.218058e-01  0 
 -2.365586e-02  -1.213930e-01  0 
 -3.276186e-02  -1.313764e-01  0 
 -8.564960e-03  -1.201857e-01  0 
 -1.656136e-02  -1.313612e-01  0 
 -1.563209e-06  -1.299688e-01  0 
 -2.535281e-02  -1.408901e-01  0 
 -3.412873e-02  -1.514669e-01  0 
 -7.913314e-03  -1.406667e-01  0 
 -1.666740e-02  -1.501440e-01  0 
 -5.968492e-07  -1.503765e-01  0 
 -2.540665e-02  -1.602506e-01  0 
 -3.426214e-02  -1.693226e-01  0 
 -8.488320e-03  -1.591939e-01  0 
 -1.703224e-02  -1.685167e-01  0 
 -4.506812e-07  -1.678221e-01  0 
 -2.733371e-02  -7.899627e-02  0 
 -1.303201e-02  -7.791704e-02  0 
 7.418883e-07  -7.681667e-02  0 
 -3.032682e-02  -1.008749e-01  0 
 -1.496921e-02  -9.914787e-02  0 
 6.930324e-07  -9.914339e-02  0 
 -3.257789e-02  -1.214903e-01  0 
 -1.595298e-02  -1.208265e-01  0 
 -9.104393e-07  -1.200398e-01  0 
 -3.351893e-02  -1.418537e-01  0 
 -1.664318e-02  -1.406510e-01  0 
 -3.203148e-07  -1.407257e-01  0 
 -3.424237e-02  -1.603595e-01  0 
 -1.681968e-02  -1.598244e-01  0 
 -4.513509e-07  -1.590490e-01  0 
VECTORS displacement_ITER6 FLOAT
 -3.713998e-02  -9.069589e-02  0 
 -2.114083e-02  -8.925695e-02  0 
 -7.285887e-03  -8.804344e-02  0 
 -3.984390e-02  -1.121677e-01  0 
 -2.368627e-02  -1.104559e-01  0 
 -7.472872e-03  -1.097908e-01  0 
 -2.446790e-02  -1.313430e-01  0 
 -8.375887e-03  -1.305797e-01  0 
 -2.549938e-02  -1.507302e-01  0 
 -8.120411e-03  -1.501980e-01  0 
 -2.544951e-02  -1.691482e-01  0 
 -8.628793e-03  -1.678991e-01  0 
 -3.551789e-02  -7.938998e-02  0 
 -1.906226e-02  -7.889964e-02  0 
 -2.798711e-02  -8.912477e-02  0 
 -7.557404e-03  -7.701436e-02  0 
 -1.465154e-02  -8.948630e-02  0 
 7.909842e-08  -8.688673e-02  0 
 -3.817816e-02  -1.021843e-01  0 
 -2.328663e-02  -9.944551e-02  0 
 -3.224317e-02  -1.118403e-01  0 
 -6.587460e-03  -9.916780e-02  0 
 -1.517776e-02  -1.093017e-01  0 
 2.203966e-07  -1.104474e-01  0 
 -4.139628e-02  -1.218052e-01  0 
 -2.365528e-02  -1.213922e-01  0 
 -3.276183e-02  -1.313760e-01  0 
 -8.564471e-03  -1.201846e-01  0 
 -1.656077e-02  -1.313608e-01  0 
 1.758654e-07  -1.299690e-01  0 
 -2.535224e-02  -1.408899e-01  0 
 -3.412804e-02  -1.514667e-01  0 
 -7.912611e-03  -1.406666e-01  0 
 -1.666675e-02  -1.501437e-01  0 
 -4.666949e-09  -1.503758e-01  0 
 -2.540603e-02  -1.602501e-01  0 
 -3.426075e-02  -1.693213e-01  0 
 -8.488132e-03  -1.591933e-01  0 
 -1.703199e-02  -1.685160e-01  0 
 2.283994e-07  -1.678228e-01  0 
 -2.733390e-02  -7.899527e-02  0 
 -1.303136e-02  -7.791659e-02  0 
 -1.179558e-07  -7.681786e-02  0 
 -3.032647e-02  -1.008737e-01  0 
 -1.496867e-02  -9.914705e-02  0 
 -3.160734e-09  -9.914303e-02  0 
 -3.257757e-02  -1.214896e-01  0 
 -1.595249e-02  -1.208257e-01  0 
 2.428133e-07  -1.200387e-01  0 
 -3.351839e-02  -1.418534e-01  0 
 -1.664251e-02  -1.406507e-01  0 
 1.292140e-07  -1.407268e-01  0 
 -3.424120e-02  -1.603589e-01  0 
 -1.681937e-02  -1.598240e-01  0 
 1.733628e-07  -1.590478e-01  0 
VECTORS displacement_ITER7 FLOAT
 -3.714026e-02  -9.069610e-02  0 
 -2.114088e-02  -8.925709e-02  0 
 -7.285910e-03  -8.804345e-02  0 
 -3.984395e-02  -1.121679e-01  0 
 -2.368634e-02  -1.104561e-01  0 
 -7.472947e-03  -1.097909e-01  0 
 -2.446804e-02  -1.313430e-01  0 
 -8.375969e-03  -1.305796e-01  0 
 -2.549953e-02  -1.507303e-01  0 
 -8.120503e-03  -1.501981e-01  0 
 -2.544958e-02  -1.691483e-01  0 
 -8.628770e-03  -1.678990e-01  0 
 -3.551809e-02  -7.939012e-02  0 
 -1.906220e-02  -7.889972e-02  0 
 -2.798723e-02  -8.912496e-02  0 
 -7.557447e-03  -7.701431e-02  0 
 -1.465159e-02  -8.948637e-02  0 
 4.636133e-09  -8.688667e-02  0 
 -3.817815e-02  -1.021843e-01  0 
 -2.328670e-02  -9.944562e-02  0 
 -3.224318e-02  -1.118404e-01  0 
 -6.587527e-03  -9.916789e-02  0 
 -1.517784e-02  -1.093018e-01  0 
 9.546015e-09  -1.104476e-01  0 
 -4.139634e-02  -1.218055e-01  0 
 -2.365540e-02  -1.213922e-01  0 
 -3.276195e-02  -1.313759e-01  0 
 -8.564527e-03  -1.201846e-01  0 
 -1.656089e-02  -1.313608e-01  0 
 2.250093e-08  -1.299687e-01  0 
 -2.535239e-02  -1.408899e-01  0 
 -3.412815e-02  -1.514668e-01  0 
 -7.912707e-03  -1.406666e-01  0 
 -1.666688e-02  -1.501437e-01  0 
 1.799657e-08  -1.503760e-01  0 
 -2.540615e-02  -1.602502e-01  0 
 -3.426090e-02  -1.693214e-01  0 
 -8.488136e-03  -1.591934e-01  0 
 -1.703202e-02  -1.685161e-01  0 
 -3.555717e-08  -1.678226e-01  0 
 -2.733406e-02  -7.899536e-02  0 
 -1.303126e-02  -7.791651e-02  0 
 -2.060636e-08  -7.681773e-02  0 
 -3.032656e-02  -1.008738e-01  0 
 -1.496875e-02  -9.914715e-02  0 
 -1.076654e-08  -9.914310e-02  0 
 -3.257756e-02  -1.214897e-01  0 
 -1.595257e-02  -1.208257e-01  0 
 1.709603e-08  -1.200387e-01  0 
 -3.351866e-02  -1.418534e-01  0 
 -1.664264e-02  -1.406507e-01  0 
 6.111855e-08  -1.407267e-01  0 
 -3.424128e-02  -1.603589e-01  0 
 -1.681943e-02  -1.598241e-01  0 
 -2.529088e-09  -1.590480e-01  0 
VECTORS displacement_ITER8 FLOAT
 -3.714020e-02  -9.069604e-02  0 
 -2.114090e-02  -8.925706e-02  0 
 -7.285926e-03  -8.804346e-02  0 
 -3.984393e-02  -1.121679e-01  0 
 -2.368636e-02  -1.104561e-01  0 
 -7.472964e-03  -1.097909e-01  0 
 -2.446806e-02  -1.313430e-01  0 
 -8.375988e-03  -1.305796e-01  0 
 -2.549955e-02  -1.507303e-01  0 
 -8.120526e-03  -1.501981e-01  0 
 -2.544960e-02  -1.691483e-01  0 
 -8.628779e-03  -1.678991e-01  0 
 -3.551801e-02  -7.939013e-02  0 
 -1.906224e-02  -7.889969e-02  0 
 -2.798724e-02  -8.912491e-02  0 
 -7.557473e-03  -7.701432e-02  0 
 -1.465161e-02  -8.948636e-02  0 
 3.819591e-09  -8.688671e-02  0 
 -3.817826e-02  -1.021842e-01  0 
 -2.328671e-02  -9.944562e-02  0 
 -3.224319e-02  -1.118404e-01  0 
 -6.587540e-03  -9.916790e-02  0 
 -1.517786e-02  -1.093018e-01  0 
 -9.809597e-09  -1.104476e-01  0 
 -4.139630e-02  -1.218054e-01  0 
 -2.365542e-02  -1.213922e-01  0 
 -3.276198e-02  -1.313759e-01  0 
 -8.564546e-03  -1.201846e-01  0 
 -1.656090e-02  -1.313608e-01  0 
 -9.689731e-09  -1.299687e-01  0 
 -2.535240e-02  -1.408899e-01  0 
 -3.412817e-02  -1.514668e-01  0 
 -7.912727e-03  -1.406665e-01  0 
 -1.666690e-02  -1.501437e-01  0 
 2.565082e-09  -1.503760e-01  0 
 -2.540617e-02  -1.602502e-01  0 
 -3.426094e-02  -1.693214e-01  0 
 -8.488151e-03  -1.591934e-01  0 
 -1.703204e-02  -1.685161e-01  0 
 -6.906017e-09  -1.678226e-01  0 
 -2.733406e-02  -7.899535e-02  0 
 -1.303130e-02  -7.791650e-02  0 
 4.244647e-09  -7.681771e-02  0 
 -3.032656e-02  -1.008738e-01  0 
 -1.496876e-02  -9.914715e-02  0 
 -3.135338e-09  -9.914311e-02  0 
 -3.257758e-02  -1.214897e-01  0 
 -1.595259e-02  -1.208257e-01  0 
 -1.008086e-08  -1.200387e-01  0 
 -3.351868e-02  -1.418534e-01  0 
 -1.664266e-02  -1.406507e-01  0 
 8.704762e-09  -1.407267e-01  0 
 -3.424131e-02  -1.603589e-01  0 
 -1.681945e-02  -1.598241e-01  0 
 4.396886e-10  -1.590480e-01  0 
VECTORS displacement_ITER9 FLOAT
 -3.714020e-02  -9.069605e-02  0 
 -2.114090e-02  -8.925707e-02  0 
 -7.285921e-03  -8.804346e-02  0 
 -3.984393e-02  -1.121679e-01  0 
 -2.368636e-02  -1.104561e-01  0 
 -7.472962e-03  -1.097909e-01  0 
 -2.446805e-02  -1.313430e-01  0 
 -8.375988e-03  -1.305796e-01  0 
 -2.549955e-02  -1.507303e-01  0 
 -8.120526e-03  -1.501981e-01  0 
 -2.544960e-02  -1.691483e-01  0 
 -8.628785e-03  -1.678991e-01  0 
 -3.551802e-02  -7.939013e-02  0 
 -1.906224e-02  -7.889970e-02  0 
 -2.798724e-02  -8.912492e-02  0 
 -7.557459e-03  -7.701434e-02  0 
 -1.465161e-02  -8.948637e-02  0 
 -1.067049e-09  -8.688671e-02  0 
 -3.817825e-02  -1.021843e-01  0 
 -2.328671e-02  -9.944562e-02  0 
 -3.224319e-02  -1.118404e-01  0 
 -6.587537e-03  -9.916789e-02  0 
 -1.517785e-02  -1.093018e-01  0 
 7.186289e-10  -1.104476e-01  0 
 -4.139631e-02  -1.218054e-01  0 
 -2.365542e-02  -1.213922e-01  0 
 -3.276197e-02  -1.313759e-01  0 
 -8.564546e-03  -1.201846e-01  0 
 -1.656090e-02  -1.313608e-01  0 
 2.523578e-10  -1.299688e-01  0 
 -2.535240e-02  -1.408899e-01  0 
 -3.412815e-02  -1.514668e-01  0 
 -7.912726e-03  -1.406665e-01  0 
 -1.666690e-02  -1.501437e-01  0 
 -1.597709e-09  -1.503760e-01  0 
 -2.540617e-02  -1.602502e-01  0 
 -3.426094e-02  -1.693214e-01  0 
 -8.488156e-03  -1.591934e-01  0 
 -1.703204e-02  -1.685161e-01  0 
 1.501478e-09  -1.678226e-01  0 
 -2.733405e-02  -7.899535e-02  0 
 -1.303130e-02  -7.791650e-02  0 
 -2.499163e-10  -7.681772e-02  0 
 -3.032656e-02  -1.008738e-01  0 
 -1.496876e-02  -9.914715e-02  0 
 -1.907125e-09  -9.914310e-02  0 
 -3.257758e-02  -1.214897e-01  0 
 -1.595259e-02  -1.208257e-01  0 
 9.191510e-10  -1.200387e-01  0 
 -3.351868e-02  -1.418535e-01  0 
 -1.664266e-02  -1.406507e-01  0 
 -1.271549e-09  -1.407267e-01  0 
 -3.424130e-02  -1.603589e-01  0 
 -1.681945e-02  -1.598241e-01  0 
 4.064696e-10  -1.590480e-01  0 
VECTORS displacement_ITER10 FLOAT
 -3.714020e-02  -9.069605e-02  0 
 -2.114090e-02  -8.925707e-02  0 
 -7.285921e-03  -8.804346e-02  0 
 -3.984393e-02  -1.121679e-01  0 
 -2.368636e-02  -1.104561e-01  0 
 -7.472962e-03  -1.097909e-01  0 
 -2.446805e-02  -1.313430e-01  0 
 -8.375987e-03  -1.305796e-01  0 
 -2.549955e-02  -1.507303e-01  0 
 -8.120526e-03  -1.501981e-01  0 
 -2.544960e-02  -1.691483e-01  0 
 -8.628783e-03  -1.678991e-01  0 
 -3.551802e-02  -7.939013e-02  0 
 -1.906224e-02  -7.889971e-02  0 
 -2.798724e-02  -8.912492e-02  0 
 -7.557461e-03  -7.701434e-02  0 
 -1.465161e-02  -8.948637e-02  0 
 -1.190183e-10  -8.688671e-02  0 
 -3.817825e-02  -1.021843e-01  0 
 -2.328671e-02  -9.944562e-02  0 
 -3.224319e-02  -1.118404e-01  0 
 -6.587537e-03  -9.916789e-02  0 
 -1.517785e-02  -1.093018e-01  0 
 2.434939e-10  -1.104476e-01  0 
 -4.139631e-02  -1.218054e-01  0 
 -2.365542e-02  -1.213922e-01  0 
 -3.276197e-02  -1.313759e-01  0 
 -8.564545e-03  -1.201846e-01  0 
 -1.656090e-02  -1.313608e-01  0 
 -1.730808e-11  -1.299688e-01  0 
 -2.535240e-02  -1.408899e-01  0 
 -3.412815e-02  -1.514668e-01  0 
 -7.912726e-03  -1.406665e-01  0 
 -1.666689e-02  -1.501437e-01  0 
 -1.752274e-10  -1.503760e-01  0 
 -2.540617e-02  -1.602502e-01  0 
 -3.426094e-02  -1.693214e-01  0 
 -8.488154e-03  -1.591934e-01  0 
 -1.703204e-02  -1.685161e-01  0 
 -7.518262e-11  -1.678226e-01  0 
 -2.733405e-02  -7.899535e-02  0 
 -1.303130e-02  -7.791650e-02  0 
 1.034346e-10  -7.681772e-02  0 
 -3.032656e-02  -1.008738e-01  0 
 -1.496876e-02  -9.914715e-02  0 
 -1.212418e-10  -9.914310e-02  0 
 -3.257757e-02  -1.214897e-01  0 
 -1.595259e-02  -1.208257e-01  0 
 1.399086e-10  -1.200387e-01  0 
 -3.351868e-02  -1.418535e-01  0 
 -1.664266e-02  -1.406507e-01  0 
 -2.300602e-10  -1.407267e-01  0 
 -3.424130e-02  -1.603589e-01  0 
 -1.681945e-02  -1.598241e-01  0 
 -4.586766e-11  -1.590480e-01  0 
VECTORS displacement_ITER11 FLOAT
 -3.714020e-02  -9.069605e-02  0 
 -2.114090e-02  -8.925707e-02  0 
 -7.285921e-03  -8.804346e-02  0 
 -3.984393e-02  -1.121679e-01  0 
 -2.368636e-02  -1.104561e-01  0 
 -7.472962e-03  -1.097909e-01  0 
 -2.446805e-02  -1.313430e-01  0 
 -8.375987e-03  -1.305796e-01  0 
 -2.549955e-02  -1.507303e-01  0 
 -8.120526e-03  -1.501981e-01  0 
 -2.544960e-02  -1.691483e-01  0 
 -8.628783e-03  -1.678991e-01  0 
 -3.551802e-02  -7.939013e-02  0 
 -1.906224e-02  -7.889971e-02  0 
 -2.798724e-02  -8.912492e-02  0 
 -7.557461e-03  -7.701434e-02  0 
 -1.465161e-02  -8.948637e-02  0 
 -2.488463e-12  -8.688671e-02  0 
 -3.817825e-02  -1.021843e-01  0 
 -2.328671e-02  -9.944562e-02  0 
 -3.224319e-02  -1.118404e-01  0 
 -6.587537e-03  -9.916789e-02  0 
 -1.517785e-02  -1.093018e-01  0 
 -6.432135e-11  -1.104476e-01  0 
 -4.139631e-02  -1.218054e-01  0 
 -2.365542e-02  -1.213922e-01  0 
 -3.276197e-02  -1.313759e-01  0 
 -8.564545e-03  -1.201846e-01  0 
 -1.656090e-02  -1.313608e-01  0 
 -2.079417e-11  -1.299688e-01  0 
 -2.535240e-02  -1.408899e-01  0 
 -3.412815e-02  -1.514668e-01  0 
 -7.912726e-03  -1.406665e-01  0 
 -1.666689e-02  -1.501437e-01  0 
 3.863765e-11  -1.503760e-01  0 
 -2.540617e-02  -1.602502e-01  0 
 -3.426094e-02  -1.693214e-01  0 
 -8.488154e-03  -1.591934e-01  0 
 -1.703204e-02  -1.685161e-01  0 
 -1.529084e-11  -1.678226e-01  0 
 -2.733405e-02  -7.899535e-02  0 
 -1.303130e-02  -7.791650e-02  0 
 7.762276e-11  -7.681772e-02  0 
 -3.032656e-02  -1.008738e-01  0 
 -1.496876e-02  -9.914715e-02  0 
 -2.051472e-11  -9.914310e-02  0 
 -3.257757e-02  -1.214897e-01  0 
 -1.595259e-02  -1.208257e-01  0 
 -4.687183e-11  -1.200387e-01  0 
 -3.351868e-02  -1.418535e-01  0 
 -1.664266e-02  -1.406507e-01  0 
 2.957291e-11  -1.407267e-01  0 
 -3.424130e-02  -1.603589e-01  0 
 -1.681945e-02  -1.598241e-01  0 
 1.535585e-11  -1.590480e-01  0 
CELL_DATA 40
TENSORS element_stresses FLOAT
 -3.704597e-01  -6.305461e-01  0 
 -6.305461e-01  2.820447e-01  0 
 0  0  0 

 -6.028119e-01  -8.259668e-01  0 
 -8.259668e-01  -1.881441e-01  0 
 0  0  0 

 -1.908128e-01  -3.618073e-01  0 
 -3.618073e-01  -1.954861e-02  0 
 0  0  0 

 -3.545322e-02  -3.753639e-01  0 
 -3.753639e-01  1.066174e-01  0 
 0  0  0 

 1.489121e-01  -9.622673e-01  0 
 -9.622673e-01  3.153477e-01  0 
 0  0  0 

 -1.380711e-01  -2.397084e-01  0 
 -2.397084e-01  1.026588e-01  0 
 0  0  0 

 -2.250729e-01  -3.096630e-01  0 
 -3.096630e-01  -2.720709e-03  0 
 0  0  0 

 -1.698314e-01  -2.114543e-01  0 
 -2.114543e-01  3.094613e-02  0 
 0  0  0 

 -8.090728e-02  -2.454003e-01  0 
 -2.454003e-01  1.163549e-01  0 
 0  0  0 

 -5.367496e-01  -7.757064e-01  0 
 -7.757064e-01  -1.471916e-01  0 
 0  0  0 

 1.775570e-01  -7.751246e-01  0 
 -7.751246e-01  3.376999e-01  0 
 0  0  0 

 -3.800733e-02  -6.674855e-01  0 
 -6.674855e-01  2.791382e-01  0 
 0  0  0 

 -2.741680e-01  -7.217788e-01  0 
 -7.217788e-01  -1.842125e-01  0 
 0  0  0 

 5.784872e-02  -3.656676e-01  0 
 -3.656676e-01  7.643166e-02  0 
 0  0  0 

 -5.906539e-02  -3.025759e-01  0 
 -3.025759e-01  -4.931382e-02  0 
 0  0  0 

 -3.722679e-01  -4.411335e-01  0 
 -4.411335e-01  1.695221e-02  0 
 0  0  0 

 3.101541e-02  -4.779114e-01  0 
 -4.779114e-01  3.056849e-01  0 
 0  0  0 

 -2.105268e-01  -4.032102e-01  0 
 -4.032102e-01  -3.706790e-02  0 
 0  0  0 

 -1.250505e-02  -2.403347e-01  0 
 -2.403347e-01  8.228250e-02  0 
 0  0  0 

 -1.000391e-01  -2.624897e-01  0 
 -2.624897e-01  -2.241060e-02  0 
 0  0  0 

 -6.903059e-02  -1.875318e-01  0 
 -1.875318e-01  6.722249e-03  0 
 0  0  0 

 3.801111e-04  -2.060410e-01  0 
 -2.060410e-01  7.122589e-02  0 
 0  0  0 

 -2.735835e-01  -6.072896e-01  0 
 -6.072896e-01  -1.842227e-01  0 
 0  0  0 

 9.134093e-02  -5.206925e-01  0 
 -5.206925e-01  1.787645e-01  0 
 0  0  0 

 -7.374170e-02  -1.370879e-01  0 
 -1.370879e-01  2.770263e-02  0 
 0  0  0 

 -1.354878e-02  -1.022642e-01  0 
 -1.022642e-01  8.094149e-02  0 
 0  0  0 

 -1.977326e-01  -3.415230e-01  0 
 -3.415230e-01  -1.504145e-02  0 
 0  0  0 

 1.343041e-01  -3.787633e-01  0 
 -3.787633e-01  1.933434e-01  0 
 0  0  0 

 1.677756e-02  -2.755501e-01  0 
 -2.755501e-01  1.701831e-01  0 
 0  0  0 

 -5.563089e-02  -2.689747e-01  0 
 -2.689747e-01  -3.074301e-02  0 
 0  0  0 

 3.453244e-02  -1.752347e-01  0 
 -1.752347e-01  3.789779e-02  0 
 0  0  0 

 -1.534028e-02  -1.210630e-01  0 
 -1.210630e-01  -1.650089e-02  0 
 0  0  0 

 5.139130e-02  -1.458862e-01  0 
 -1.458862e-01  1.844807e-01  0 
 0  0  0 

 4.727381e-03  -3.294179e-02  0 
 -3.294179e-02  5.780304e-02  0 
 0  0  0 

 1.344062e-02  -6.849362e-02  0 
 -6.849362e-02  5.466439e-02  0 
 0  0  0 

 -1.908245e-02  -6.915165e-02  0 
 -6.915165e-02  2.308872e-02  0 
 0  0  0 

 3.377232e-03  -2.253317e-02  0 
 -2.253317e-02  5.392776e-02  0 
 0  0  0 

 1.158141e-03  -2.550542e-02  0 
 -2.550542e-02  6.273070e-02  0 
 0  0  0 

 -8.293757e-02  -1.628638e-01  0 
 -1.628638e-01  -3.137284e-02  0 
 0  0  0 

 -1.627939e-02  -5.590024e-02  0 
 -5.590024e-02  3.948791e-02  0 
 0  0  0 

TENSORS element_stresses FLOAT
 -3.704597e-01  -6.305461e-01  0 
 -6.305461e-01  2.820447e-01  0 
 0  0  0 

 -6.028119e-01  -8.259668e-01  0 
 -8.259668e-01  -1.881441e-01  0 
 0  0  0 

 -1.908128e-01  -3.618073e-01  0 
 -3.618073e-01  -1.954861e-02  0 
 0  0  0 

 -3.545322e-02  -3.753639e-01  0 
 -3.753639e-01  1.066174e-01  0 
 0  0  0 

 1.489121e-01  -9.622673e-01  0 
 -9.622673e-01  3.153477e-01  0 
 0  0  0 

 -1.380711e-01  -2.397084e-01  0 
 -2.397084e-01  1.026588e-01  0 
 0  0  0 

 -2.250729e-01  -3.096630e-01  0 
 -3.096630e-01  -2.720709e-03  0 
 0  0  0 

 -1.698314e-01  -2.114543e-01  0 
 -2.114543e-01  3.094613e-02  0 
 0  0  0 

 -8.090728e-02  -2.454003e-01  0 
 -2.454003e-01  1.163549e-01  0 
 0  0  0 

 -5.367496e-01  -7.757064e-01  0 
 -7.757064e-01  -1.471916e-01  0 
 0  0  0 

 1.775570e-01  -7.751246e-01  0 
 -7.751246e-01  3.376999e-01  0 
 0  0  0 

 -3.800733e-02  -6.674855e-01  0 
 -6.674855e-01  2.791382e-01  0 
 0  0  0 

 -2.741680e-01  -7.217788e-01  0 
 -7.217788e-01  -1.842125e-01  0 
 0  0  0 

 5.784872e-02  -3.656676e-01  0 
 -3.656676e-01  7.643166e-02  0 
 0  0  0 

 -5.906539e-02  -3.025759e-01  0 
 -3.025759e-01  -4.931382e-02  0 
 0  0  0 

 -3.722679e-01  -4.411335e-01  0 
 -4.411335e-01  1.695221e-02  0 
 0  0  0 

 3.101541e-02  -4.779114e-01  0 
 -4.779114e-01  3.056849e-01  0 
 0  0  0 

 -2.105268e-01  -4.032102e-01  0 
 -4.032102e-01  -3.706790e-02  0 
 0  0  0 

 -1.250505e-02  -2.403347e-01  0 
 -2.403347e-01  8.228250e-02  0 
 0  0  0 

 -1.000391e-01  -2.624897e-01  0 
 -2.624897e-01  -2.241060e-02  0 
 0  0  0 

 -6.903059e-02  -1.875318e-01  0 
 -1.875318e-01  6.722249e-03  0 
 0  0  0 

 3.801111e-04  -2.060410e-01  0 
 -2.060410e-01  7.122589e-02  0 
 0  0  0 

 -2.735835e-01  -6.072896e-01  0 
 -6.072896e-01  -1.842227e-01  0 
 0  0  0 

 9.134093e-02  -5.206925e-01  0 
 -5.206925e-01  1.787645e-01  0 
 0  0  0 

 -7.374170e-02  -1.370879e-01  0 
 -1.370879e-01  2.770263e-02  0 
 0  0  0 

 -1.354878e-02  -1.022642e-01  0 
 -1.022642e-01  8.094149e-02  0 
 0  0  0 

 -1.977326e-01  -3.415230e-01  0 
 -3.415230e-01  -1.504145e-02  0 
 0  0  0 

 1.343041e-01  -3.787633e-01  0 
 -3.787633e-01  1.933434e-01  0 
 0  0  0 

 1.677756e-02  -2.755501e-01  0 
 -2.755501e-01  1.701831e-01  0 
 0  0  0 

 -5.563089e-02  -2.689747e-01  0 
 -2.689747e-01  -3.074301e-02  0 
 0  0  0 

 3.453244e-02  -1.752347e-01  0 
 -1.752347e-01  3.789779e-02  0 
 0  0  0 

 -1.534028e-02  -1.210630e-01  0 
 -1.210630e-01  -1.650089e-02  0 
 0  0  0 

 5.139130e-02  -1.458862e-01  0 
 -1.458862e-01  1.844807e-01  0 
 0  0  0 

 4.727381e-03  -3.294179e-02  0 
 -3.294179e-02  5.780304e-02  0 
 0  0  0 

 1.344062e-02  -6.849362e-02  0 
 -6.849362e-02  5.466439e-02  0 
 0  0  0 

 -1.908245e-02  -6.915165e-02  0 
 -6.915165e-02  2.308872e-02  0 
 0  0  0 

 3.377232e-03  -2.253317e-02  0 
 -2.253317e-02  5.392776e-02  0 
 0  0  0 

 1.158141e-03  -2.550542e-02  0 
 -2.550542e-02  6.273070e-02  0 
 0  0  0 

 -8.293757e-02  -1.628638e-01  0 
 -1.628638e-01  -3.137284e-02  0 
 0  0  0 

 -1.627939e-02  -5.590024e-02  0 
 -5.590024e-02  3.948791e-02  0 
 0  0  0 

