# vtk DataFile Version 3.1
this is an vtk file created by FEMAC
ASCII
DATASET UNSTRUCTURED_GRID
POINTS 56 FLOAT
5.000000 0.000000 0.000000
6.000000 0.000000 0.000000
7.000000 0.000000 0.000000
8.000000 0.000000 0.000000
9.000000 0.000000 0.000000
5.000000 1.000000 0.000000
5.000000 2.000000 0.000000
6.000000 1.000000 0.000000
6.000000 2.000000 0.000000
7.000000 1.000000 0.000000
7.000000 2.000000 0.000000
8.000000 1.000000 0.000000
8.000000 2.000000 0.000000
9.000000 1.000000 0.000000
9.000000 2.000000 0.000000
4.500000 0.000000 0.000000
5.500000 0.000000 0.000000
6.500000 0.000000 0.000000
7.500000 0.000000 0.000000
8.500000 0.000000 0.000000
4.500000 1.000000 0.000000
5.000000 0.500000 0.000000
4.500000 2.000000 0.000000
5.000000 1.500000 0.000000
5.500000 1.000000 0.000000
6.000000 0.500000 0.000000
5.500000 2.000000 0.000000
6.000000 1.500000 0.000000
6.500000 1.000000 0.000000
7.000000 0.500000 0.000000
6.500000 2.000000 0.000000
7.000000 1.500000 0.000000
7.000000 2.500000 0.000000
7.500000 1.000000 0.000000
8.000000 0.500000 0.000000
7.500000 2.000000 0.000000
8.000000 1.500000 0.000000
8.000000 2.500000 0.000000
8.500000 1.000000 0.000000
9.000000 0.500000 0.000000
8.500000 2.000000 0.000000
9.000000 1.500000 0.000000
9.000000 2.500000 0.000000
4.500000 0.500000 0.000000
4.500000 1.500000 0.000000
5.500000 0.500000 0.000000
5.500000 1.500000 0.000000
6.500000 0.500000 0.000000
6.500000 1.500000 0.000000
6.500000 2.500000 0.000000
7.500000 0.500000 0.000000
7.500000 1.500000 0.000000
7.500000 2.500000 0.000000
8.500000 0.500000 0.000000
8.500000 1.500000 0.000000
8.500000 2.500000 0.000000
CELLS 41 205 
4 15  0 21 43
4 43 21  5 20
4 20  5 23 44
4 44 23  6 22
4 0 16 45 21
4 21 45 24  5
4 16  1 25 45
4 45 25  7 24
4 5 24 46 23
4 23 46 26  6
4 24  7 27 46
4 46 27  8 26
4 1 17 47 25
4 25 47 28  7
4 17  2 29 47
4 47 29  9 28
4 7 28 48 27
4 27 48 30  8
4 28  9 31 48
4 48 31 10 30
4 30 10 32 49
4 2 18 50 29
4 29 50 33  9
4 18  3 34 50
4 50 34 11 33
4 9 33 51 31
4 31 51 35 10
4 33 11 36 51
4 51 36 12 35
4 10 35 52 32
4 35 12 37 52
4 3 19 53 34
4 34 53 38 11
4 19  4 39 53
4 53 39 13 38
4 11 38 54 36
4 36 54 40 12
4 38 13 41 54
4 54 41 14 40
4 12 40 55 37
4 40 14 42 55
CELL_TYPES 41
9 9 9 9 9 9 9 9 9 9 9 9 9 9 9 9 9 9 9 9 9 9 9 9 9 9 9 9 9 9 9 9 9 9 9 9 9 9 9 9 9 
POINT_DATA 56
VECTORS displacement_ITER1 FLOAT
 -7.194101e-02  -9.519476e-02  0 
 -7.726606e-02  -1.150194e-01  0 
 -7.809045e-02  -1.344066e-01  0 
 -7.891169e-02  -1.534935e-01  0 
 -7.906214e-02  -1.719424e-01  0 
 -5.374136e-02  -9.387841e-02  0 
 -3.732821e-02  -9.134683e-02  0 
 -5.755502e-02  -1.135504e-01  0 
 -3.949256e-02  -1.124381e-01  0 
 -5.935390e-02  -1.340008e-01  0 
 -4.181030e-02  -1.326886e-01  0 
 -6.038168e-02  -1.528699e-01  0 
 -4.236020e-02  -1.519492e-01  0 
 -6.059299e-02  -1.717474e-01  0 
 -4.313663e-02  -1.697000e-01  0 
 -7.128400e-02  -8.443631e-02  0 
 -7.467969e-02  -1.056100e-01  0 
 -7.780508e-02  -1.245988e-01  0 
 -7.856292e-02  -1.442868e-01  0 
 -7.901654e-02  -1.626804e-01  0 
 -5.071192e-02  -8.417978e-02  0 
 -6.174265e-02  -9.457932e-02  0 
 -3.565953e-02  -7.956417e-02  0 
 -4.656823e-02  -9.298902e-02  0 
 -5.622897e-02  -1.029839e-01  0 
 -6.769807e-02  -1.145224e-01  0 
 -3.841385e-02  -1.023455e-01  0 
 -4.783415e-02  -1.125839e-01  0 
 -5.844330e-02  -1.243345e-01  0 
 -6.838446e-02  -1.342516e-01  0 
 -4.137707e-02  -1.221502e-01  0 
 -5.083853e-02  -1.335670e-01  0 
 -3.263941e-02  -1.320043e-01  0 
 -6.008259e-02  -1.431764e-01  0 
 -6.971552e-02  -1.533201e-01  0 
 -4.193553e-02  -1.428194e-01  0 
 -5.108863e-02  -1.523555e-01  0 
 -3.408784e-02  -1.515669e-01  0 
 -6.048673e-02  -1.625241e-01  0 
 -6.979356e-02  -1.719051e-01  0 
 -4.286014e-02  -1.607236e-01  0 
 -5.182248e-02  -1.707591e-01  0 
 -3.409182e-02  -1.696183e-01  0 
 -6.072663e-02  -8.460696e-02  0 
 -4.282878e-02  -8.226278e-02  0 
 -6.499262e-02  -1.044177e-01  0 
 -4.728592e-02  -1.026167e-01  0 
 -6.818083e-02  -1.245038e-01  0 
 -4.949010e-02  -1.234442e-01  0 
 -3.232731e-02  -1.218438e-01  0 
 -6.912527e-02  -1.439420e-01  0 
 -5.101859e-02  -1.429307e-01  0 
 -3.369440e-02  -1.420647e-01  0 
 -6.979277e-02  -1.626159e-01  0 
 -5.143807e-02  -1.618505e-01  0 
 -3.410622e-02  -1.602772e-01  0 
VECTORS displacement_ITER2 FLOAT
 -7.206263e-02  -9.452585e-02  0 
 -7.763261e-02  -1.146979e-01  0 
 -7.842368e-02  -1.342095e-01  0 
 -7.930859e-02  -1.533559e-01  0 
 -7.947240e-02  -1.719296e-01  0 
 -5.415045e-02  -9.345325e-02  0 
 -3.718322e-02  -9.070611e-02  0 
 -5.777401e-02  -1.132955e-01  0 
 -3.979974e-02  -1.121797e-01  0 
 -5.963194e-02  -1.337653e-01  0 
 -4.195273e-02  -1.322639e-01  0 
 -6.067752e-02  -1.527255e-01  0 
 -4.252533e-02  -1.519336e-01  0 
 -6.085832e-02  -1.717496e-01  0 
 -4.317304e-02  -1.696029e-01  0 
 -7.106594e-02  -8.439432e-02  0 
 -7.507331e-02  -1.051023e-01  0 
 -7.814687e-02  -1.243557e-01  0 
 -7.891858e-02  -1.441142e-01  0 
 -7.942320e-02  -1.626020e-01  0 
 -5.129984e-02  -8.371247e-02  0 
 -6.217484e-02  -9.401637e-02  0 
 -3.552550e-02  -7.941206e-02  0 
 -4.668031e-02  -9.253873e-02  0 
 -5.649335e-02  -1.026749e-01  0 
 -6.797648e-02  -1.142193e-01  0 
 -3.819796e-02  -1.021791e-01  0 
 -4.792678e-02  -1.124050e-01  0 
 -5.867658e-02  -1.240908e-01  0 
 -6.867619e-02  -1.340458e-01  0 
 -4.149328e-02  -1.218087e-01  0 
 -5.108143e-02  -1.332731e-01  0 
 -3.281907e-02  -1.313626e-01  0 
 -6.038871e-02  -1.429749e-01  0 
 -7.005756e-02  -1.531776e-01  0 
 -4.210251e-02  -1.425955e-01  0 
 -5.133826e-02  -1.522392e-01  0 
 -3.417251e-02  -1.515660e-01  0 
 -6.076183e-02  -1.624448e-01  0 
 -7.013702e-02  -1.718960e-01  0 
 -4.295204e-02  -1.607411e-01  0 
 -5.196569e-02  -1.707790e-01  0 
 -3.435390e-02  -1.693420e-01  0 
 -6.129825e-02  -8.421353e-02  0 
 -4.271464e-02  -8.165657e-02  0 
 -6.528717e-02  -1.039539e-01  0 
 -4.745008e-02  -1.023622e-01  0 
 -6.846168e-02  -1.242648e-01  0 
 -4.967266e-02  -1.231332e-01  0 
 -3.264882e-02  -1.214843e-01  0 
 -6.945185e-02  -1.437557e-01  0 
 -5.128582e-02  -1.427233e-01  0 
 -3.352599e-02  -1.418529e-01  0 
 -7.013736e-02  -1.625354e-01  0 
 -5.160495e-02  -1.617903e-01  0 
 -3.431209e-02  -1.604280e-01  0 
VECTORS displacement_ITER3 FLOAT
 -7.205669e-02  -9.452771e-02  0 
 -7.757147e-02  -1.146791e-01  0 
 -7.836052e-02  -1.341774e-01  0 
 -7.923399e-02  -1.533197e-01  0 
 -7.939545e-02  -1.718838e-01  0 
 -5.411215e-02  -9.344759e-02  0 
 -3.713140e-02  -9.068399e-02  0 
 -5.773192e-02  -1.132803e-01  0 
 -3.984937e-02  -1.121697e-01  0 
 -5.957161e-02  -1.337357e-01  0 
 -4.188461e-02  -1.322530e-01  0 
 -6.060848e-02  -1.526909e-01  0 
 -4.246766e-02  -1.518768e-01  0 
 -6.079439e-02  -1.717012e-01  0 
 -4.312238e-02  -1.695709e-01  0 
 -7.108292e-02  -8.436628e-02  0 
 -7.502845e-02  -1.050973e-01  0 
 -7.808435e-02  -1.243292e-01  0 
 -7.885076e-02  -1.440794e-01  0 
 -7.934689e-02  -1.625615e-01  0 
 -5.124093e-02  -8.369753e-02  0 
 -6.214259e-02  -9.401918e-02  0 
 -3.551889e-02  -7.938807e-02  0 
 -4.665498e-02  -9.253022e-02  0 
 -5.645887e-02  -1.026695e-01  0 
 -6.792361e-02  -1.142020e-01  0 
 -3.817500e-02  -1.021868e-01  0 
 -4.789698e-02  -1.123894e-01  0 
 -5.862652e-02  -1.240646e-01  0 
 -6.861752e-02  -1.340146e-01  0 
 -4.139483e-02  -1.217946e-01  0 
 -5.101428e-02  -1.332512e-01  0 
 -3.276126e-02  -1.313668e-01  0 
 -6.031924e-02  -1.429451e-01  0 
 -6.998658e-02  -1.531423e-01  0 
 -4.204012e-02  -1.425670e-01  0 
 -5.127063e-02  -1.521999e-01  0 
 -3.412360e-02  -1.514742e-01  0 
 -6.069619e-02  -1.624043e-01  0 
 -7.006564e-02  -1.718495e-01  0 
 -4.290241e-02  -1.606776e-01  0 
 -5.191553e-02  -1.707275e-01  0 
 -3.425805e-02  -1.693200e-01  0 
 -6.126016e-02  -8.418309e-02  0 
 -4.268618e-02  -8.160867e-02  0 
 -6.524903e-02  -1.039520e-01  0 
 -4.742823e-02  -1.023662e-01  0 
 -6.840526e-02  -1.242382e-01  0 
 -4.963176e-02  -1.231041e-01  0 
 -3.257665e-02  -1.214858e-01  0 
 -6.938550e-02  -1.437231e-01  0 
 -5.121590e-02  -1.426941e-01  0 
 -3.349422e-02  -1.418532e-01  0 
 -7.006577e-02  -1.624953e-01  0 
 -5.154975e-02  -1.617438e-01  0 
 -3.423842e-02  -1.603695e-01  0 
VECTORS displacement_ITER4 FLOAT
 -7.204898e-02  -9.454286e-02  0 
 -7.756226e-02  -1.146816e-01  0 
 -7.835205e-02  -1.341755e-01  0 
 -7.922256e-02  -1.533140e-01  0 
 -7.938349e-02  -1.718714e-01  0 
 -5.410539e-02  -9.345284e-02  0 
 -3.714151e-02  -9.069514e-02  0 
 -5.772833e-02  -1.132814e-01  0 
 -3.984763e-02  -1.121684e-01  0 
 -5.956579e-02  -1.337351e-01  0 
 -4.188438e-02  -1.322580e-01  0 
 -6.060264e-02  -1.526852e-01  0 
 -4.246962e-02  -1.518654e-01  0 
 -6.079000e-02  -1.716881e-01  0 
 -4.312860e-02  -1.695636e-01  0 
 -7.108435e-02  -8.437131e-02  0 
 -7.501691e-02  -1.051053e-01  0 
 -7.807580e-02  -1.243291e-01  0 
 -7.884103e-02  -1.440760e-01  0 
 -7.933508e-02  -1.625526e-01  0 
 -5.122997e-02  -8.370897e-02  0 
 -6.213151e-02  -9.403055e-02  0 
 -3.552142e-02  -7.938583e-02  0 
 -4.665412e-02  -9.253560e-02  0 
 -5.645458e-02  -1.026720e-01  0 
 -6.791738e-02  -1.142040e-01  0 
 -3.817773e-02  -1.021858e-01  0 
 -4.789630e-02  -1.123890e-01  0 
 -5.862206e-02  -1.240647e-01  0 
 -6.861077e-02  -1.340130e-01  0 
 -4.139231e-02  -1.218042e-01  0 
 -5.101018e-02  -1.332527e-01  0 
 -3.275982e-02  -1.313751e-01  0 
 -6.031260e-02  -1.429425e-01  0 
 -6.997818e-02  -1.531368e-01  0 
 -4.204050e-02  -1.425645e-01  0 
 -5.126746e-02  -1.521928e-01  0 
 -3.412720e-02  -1.514597e-01  0 
 -6.069135e-02  -1.623955e-01  0 
 -7.005721e-02  -1.718369e-01  0 
 -4.290729e-02  -1.606657e-01  0 
 -5.191708e-02  -1.707142e-01  0 
 -3.425649e-02  -1.693193e-01  0 
 -6.124344e-02  -8.419426e-02  0 
 -4.269239e-02  -8.160359e-02  0 
 -6.524232e-02  -1.039583e-01  0 
 -4.742668e-02  -1.023671e-01  0 
 -6.839893e-02  -1.242380e-01  0 
 -4.962989e-02  -1.231069e-01  0 
 -3.257429e-02  -1.214913e-01  0 
 -6.937756e-02  -1.437201e-01  0 
 -5.121165e-02  -1.426915e-01  0 
 -3.351251e-02  -1.418514e-01  0 
 -7.005729e-02  -1.624864e-01  0 
 -5.155045e-02  -1.617343e-01  0 
 -3.423885e-02  -1.603542e-01  0 
VECTORS displacement_ITER5 FLOAT
 -7.205016e-02  -9.453993e-02  0 
 -7.756720e-02  -1.146829e-01  0 
 -7.835660e-02  -1.341788e-01  0 
 -7.922751e-02  -1.533177e-01  0 
 -7.938860e-02  -1.718761e-01  0 
 -5.410913e-02  -9.345233e-02  0 
 -3.714070e-02  -9.069665e-02  0 
 -5.773060e-02  -1.132829e-01  0 
 -3.984457e-02  -1.121688e-01  0 
 -5.956944e-02  -1.337382e-01  0 
 -4.188877e-02  -1.322600e-01  0 
 -6.060680e-02  -1.526888e-01  0 
 -4.247267e-02  -1.518702e-01  0 
 -6.079382e-02  -1.716931e-01  0 
 -4.313043e-02  -1.695673e-01  0 
 -7.108228e-02  -8.437270e-02  0 
 -7.502172e-02  -1.051041e-01  0 
 -7.808050e-02  -1.243316e-01  0 
 -7.884560e-02  -1.440795e-01  0 
 -7.934015e-02  -1.625568e-01  0 
 -5.123713e-02  -8.370727e-02  0 
 -6.213594e-02  -9.402799e-02  0 
 -3.551679e-02  -7.939208e-02  0 
 -4.665393e-02  -9.253588e-02  0 
 -5.645656e-02  -1.026727e-01  0 
 -6.792099e-02  -1.142054e-01  0 
 -3.817796e-02  -1.021845e-01  0 
 -4.789762e-02  -1.123902e-01  0 
 -5.862503e-02  -1.240672e-01  0 
 -6.861469e-02  -1.340162e-01  0 
 -4.139701e-02  -1.218062e-01  0 
 -5.101415e-02  -1.332555e-01  0 
 -3.276293e-02  -1.313765e-01  0 
 -6.031678e-02  -1.429457e-01  0 
 -6.998270e-02  -1.531404e-01  0 
 -4.204425e-02  -1.425677e-01  0 
 -5.127137e-02  -1.521967e-01  0 
 -3.412901e-02  -1.514676e-01  0 
 -6.069530e-02  -1.623996e-01  0 
 -7.006175e-02  -1.718417e-01  0 
 -4.290919e-02  -1.606714e-01  0 
 -5.191955e-02  -1.707195e-01  0 
 -3.426135e-02  -1.693219e-01  0 
 -6.124924e-02  -8.419527e-02  0 
 -4.268966e-02  -8.160280e-02  0 
 -6.524552e-02  -1.039575e-01  0 
 -4.742696e-02  -1.023674e-01  0 
 -6.840271e-02  -1.242406e-01  0 
 -4.963226e-02  -1.231096e-01  0 
 -3.257796e-02  -1.214904e-01  0 
 -6.938185e-02  -1.437236e-01  0 
 -5.121578e-02  -1.426946e-01  0 
 -3.351941e-02  -1.418541e-01  0 
 -7.006185e-02  -1.624906e-01  0 
 -5.155335e-02  -1.617387e-01  0 
 -3.424178e-02  -1.603594e-01  0 
VECTORS displacement_ITER6 FLOAT
 -7.204934e-02  -9.454005e-02  0 
 -7.756624e-02  -1.146823e-01  0 
 -7.835580e-02  -1.341780e-01  0 
 -7.922683e-02  -1.533170e-01  0 
 -7.938793e-02  -1.718754e-01  0 
 -5.410798e-02  -9.345198e-02  0 
 -3.714021e-02  -9.069602e-02  0 
 -5.772987e-02  -1.132821e-01  0 
 -3.984382e-02  -1.121678e-01  0 
 -5.956872e-02  -1.337374e-01  0 
 -4.188800e-02  -1.322592e-01  0 
 -6.060608e-02  -1.526881e-01  0 
 -4.247195e-02  -1.518695e-01  0 
 -6.079311e-02  -1.716924e-01  0 
 -4.312978e-02  -1.695667e-01  0 
 -7.108201e-02  -8.437168e-02  0 
 -7.502051e-02  -1.051039e-01  0 
 -7.807964e-02  -1.243309e-01  0 
 -7.884490e-02  -1.440787e-01  0 
 -7.933947e-02  -1.625561e-01  0 
 -5.123559e-02  -8.370739e-02  0 
 -6.213454e-02  -9.402794e-02  0 
 -3.551787e-02  -7.939020e-02  0 
 -4.665361e-02  -9.253541e-02  0 
 -5.645576e-02  -1.026720e-01  0 
 -6.792019e-02  -1.142048e-01  0 
 -3.817818e-02  -1.021841e-01  0 
 -4.789703e-02  -1.123893e-01  0 
 -5.862432e-02  -1.240664e-01  0 
 -6.861393e-02  -1.340154e-01  0 
 -4.139613e-02  -1.218055e-01  0 
 -5.101340e-02  -1.332547e-01  0 
 -3.276196e-02  -1.313757e-01  0 
 -6.031606e-02  -1.429449e-01  0 
 -6.998200e-02  -1.531397e-01  0 
 -4.204347e-02  -1.425669e-01  0 
 -5.127065e-02  -1.521960e-01  0 
 -3.412805e-02  -1.514668e-01  0 
 -6.069458e-02  -1.623989e-01  0 
 -7.006105e-02  -1.718410e-01  0 
 -4.290851e-02  -1.606708e-01  0 
 -5.191883e-02  -1.707188e-01  0 
 -3.426081e-02  -1.693214e-01  0 
 -6.124763e-02  -8.419492e-02  0 
 -4.268887e-02  -8.160262e-02  0 
 -6.524456e-02  -1.039571e-01  0 
 -4.742637e-02  -1.023667e-01  0 
 -6.840194e-02  -1.242398e-01  0 
 -4.963157e-02  -1.231088e-01  0 
 -3.257740e-02  -1.214897e-01  0 
 -6.938112e-02  -1.437228e-01  0 
 -5.121504e-02  -1.426938e-01  0 
 -3.351865e-02  -1.418534e-01  0 
 -7.006115e-02  -1.624899e-01  0 
 -5.155264e-02  -1.617381e-01  0 
 -3.424114e-02  -1.603588e-01  0 
VECTORS displacement_ITER7 FLOAT
 -7.204952e-02  -9.454007e-02  0 
 -7.756637e-02  -1.146824e-01  0 
 -7.835592e-02  -1.341780e-01  0 
 -7.922696e-02  -1.533171e-01  0 
 -7.938806e-02  -1.718755e-01  0 
 -5.410809e-02  -9.345203e-02  0 
 -3.714016e-02  -9.069603e-02  0 
 -5.772998e-02  -1.132822e-01  0 
 -3.984393e-02  -1.121679e-01  0 
 -5.956885e-02  -1.337375e-01  0 
 -4.188815e-02  -1.322593e-01  0 
 -6.060622e-02  -1.526882e-01  0 
 -4.247209e-02  -1.518696e-01  0 
 -6.079324e-02  -1.716925e-01  0 
 -4.312990e-02  -1.695668e-01  0 
 -7.108219e-02  -8.437161e-02  0 
 -7.502067e-02  -1.051039e-01  0 
 -7.807976e-02  -1.243309e-01  0 
 -7.884502e-02  -1.440788e-01  0 
 -7.933960e-02  -1.625561e-01  0 
 -5.123579e-02  -8.370749e-02  0 
 -6.213467e-02  -9.402797e-02  0 
 -3.551805e-02  -7.939016e-02  0 
 -4.665372e-02  -9.253547e-02  0 
 -5.645587e-02  -1.026720e-01  0 
 -6.792031e-02  -1.142048e-01  0 
 -3.817827e-02  -1.021843e-01  0 
 -4.789711e-02  -1.123894e-01  0 
 -5.862444e-02  -1.240665e-01  0 
 -6.861405e-02  -1.340155e-01  0 
 -4.139630e-02  -1.218054e-01  0 
 -5.101354e-02  -1.332548e-01  0 
 -3.276197e-02  -1.313759e-01  0 
 -6.031620e-02  -1.429450e-01  0 
 -6.998213e-02  -1.531398e-01  0 
 -4.204358e-02  -1.425670e-01  0 
 -5.127078e-02  -1.521960e-01  0 
 -3.412814e-02  -1.514668e-01  0 
 -6.069471e-02  -1.623990e-01  0 
 -7.006118e-02  -1.718411e-01  0 
 -4.290864e-02  -1.606709e-01  0 
 -5.191896e-02  -1.707189e-01  0 
 -3.426095e-02  -1.693214e-01  0 
 -6.124776e-02  -8.419491e-02  0 
 -4.268889e-02  -8.160281e-02  0 
 -6.524468e-02  -1.039572e-01  0 
 -4.742645e-02  -1.023668e-01  0 
 -6.840206e-02  -1.242399e-01  0 
 -4.963169e-02  -1.231088e-01  0 
 -3.257757e-02  -1.214897e-01  0 
 -6.938125e-02  -1.437229e-01  0 
 -5.121518e-02  -1.426939e-01  0 
 -3.351867e-02  -1.418535e-01  0 
 -7.006128e-02  -1.624900e-01  0 
 -5.155277e-02  -1.617382e-01  0 
 -3.424129e-02  -1.603589e-01  0 
VECTORS displacement_ITER8 FLOAT
 -7.204948e-02  -9.454009e-02  0 
 -7.756636e-02  -1.146824e-01  0 
 -7.835591e-02  -1.341780e-01  0 
 -7.922695e-02  -1.533171e-01  0 
 -7.938805e-02  -1.718755e-01  0 
 -5.410809e-02  -9.345204e-02  0 
 -3.714019e-02  -9.069605e-02  0 
 -5.772998e-02  -1.132822e-01  0 
 -3.984393e-02  -1.121679e-01  0 
 -5.956885e-02  -1.337375e-01  0 
 -4.188816e-02  -1.322593e-01  0 
 -6.060622e-02  -1.526882e-01  0 
 -4.247210e-02  -1.518696e-01  0 
 -6.079324e-02  -1.716925e-01  0 
 -4.312990e-02  -1.695668e-01  0 
 -7.108216e-02  -8.437165e-02  0 
 -7.502065e-02  -1.051039e-01  0 
 -7.807976e-02  -1.243309e-01  0 
 -7.884501e-02  -1.440788e-01  0 
 -7.933959e-02  -1.625561e-01  0 
 -5.123580e-02  -8.370750e-02  0 
 -6.213466e-02  -9.402797e-02  0 
 -3.551803e-02  -7.939012e-02  0 
 -4.665372e-02  -9.253547e-02  0 
 -5.645587e-02  -1.026720e-01  0 
 -6.792031e-02  -1.142048e-01  0 
 -3.817825e-02  -1.021843e-01  0 
 -4.789711e-02  -1.123894e-01  0 
 -5.862444e-02  -1.240665e-01  0 
 -6.861404e-02  -1.340155e-01  0 
 -4.139632e-02  -1.218054e-01  0 
 -5.101354e-02  -1.332548e-01  0 
 -3.276197e-02  -1.313759e-01  0 
 -6.031620e-02  -1.429450e-01  0 
 -6.998212e-02  -1.531398e-01  0 
 -4.204359e-02  -1.425670e-01  0 
 -5.127078e-02  -1.521960e-01  0 
 -3.412816e-02  -1.514668e-01  0 
 -6.069472e-02  -1.623990e-01  0 
 -7.006118e-02  -1.718411e-01  0 
 -4.290865e-02  -1.606709e-01  0 
 -5.191896e-02  -1.707189e-01  0 
 -3.426094e-02  -1.693214e-01  0 
 -6.124773e-02  -8.419494e-02  0 
 -4.268892e-02  -8.160285e-02  0 
 -6.524468e-02  -1.039572e-01  0 
 -4.742645e-02  -1.023668e-01  0 
 -6.840206e-02  -1.242399e-01  0 
 -4.963170e-02  -1.231088e-01  0 
 -3.257758e-02  -1.214897e-01  0 
 -6.938125e-02  -1.437229e-01  0 
 -5.121518e-02  -1.426939e-01  0 
 -3.351869e-02  -1.418535e-01  0 
 -7.006128e-02  -1.624900e-01  0 
 -5.155278e-02  -1.617381e-01  0 
 -3.424130e-02  -1.603589e-01  0 
VECTORS displacement_ITER9 FLOAT
 -7.204949e-02  -9.454009e-02  0 
 -7.756636e-02  -1.146824e-01  0 
 -7.835591e-02  -1.341780e-01  0 
 -7.922695e-02  -1.533170e-01  0 
 -7.938805e-02  -1.718755e-01  0 
 -5.410809e-02  -9.345203e-02  0 
 -3.714020e-02  -9.069605e-02  0 
 -5.772998e-02  -1.132822e-01  0 
 -3.984393e-02  -1.121679e-01  0 
 -5.956884e-02  -1.337375e-01  0 
 -4.188815e-02  -1.322593e-01  0 
 -6.060621e-02  -1.526882e-01  0 
 -4.247210e-02  -1.518696e-01  0 
 -6.079323e-02  -1.716925e-01  0 
 -4.312990e-02  -1.695668e-01  0 
 -7.108216e-02  -8.437164e-02  0 
 -7.502065e-02  -1.051039e-01  0 
 -7.807975e-02  -1.243309e-01  0 
 -7.884501e-02  -1.440788e-01  0 
 -7.933959e-02  -1.625561e-01  0 
 -5.123580e-02  -8.370749e-02  0 
 -6.213466e-02  -9.402797e-02  0 
 -3.551802e-02  -7.939013e-02  0 
 -4.665372e-02  -9.253547e-02  0 
 -5.645586e-02  -1.026720e-01  0 
 -6.792031e-02  -1.142048e-01  0 
 -3.817825e-02  -1.021843e-01  0 
 -4.789711e-02  -1.123894e-01  0 
 -5.862443e-02  -1.240665e-01  0 
 -6.861404e-02  -1.340154e-01  0 
 -4.139631e-02  -1.218054e-01  0 
 -5.101354e-02  -1.332548e-01  0 
 -3.276197e-02  -1.313759e-01  0 
 -6.031619e-02  -1.429450e-01  0 
 -6.998212e-02  -1.531398e-01  0 
 -4.204359e-02  -1.425670e-01  0 
 -5.127077e-02  -1.521960e-01  0 
 -3.412816e-02  -1.514668e-01  0 
 -6.069471e-02  -1.623990e-01  0 
 -7.006118e-02  -1.718411e-01  0 
 -4.290865e-02  -1.606709e-01  0 
 -5.191896e-02  -1.707189e-01  0 
 -3.426094e-02  -1.693214e-01  0 
 -6.124773e-02  -8.419493e-02  0 
 -4.268893e-02  -8.160286e-02  0 
 -6.524467e-02  -1.039572e-01  0 
 -4.742645e-02  -1.023668e-01  0 
 -6.840205e-02  -1.242399e-01  0 
 -4.963169e-02  -1.231088e-01  0 
 -3.257757e-02  -1.214897e-01  0 
 -6.938125e-02  -1.437228e-01  0 
 -5.121518e-02  -1.426939e-01  0 
 -3.351868e-02  -1.418535e-01  0 
 -7.006128e-02  -1.624900e-01  0 
 -5.155277e-02  -1.617381e-01  0 
 -3.424130e-02  -1.603589e-01  0 
VECTORS displacement_ITER10 FLOAT
 -7.204949e-02  -9.454009e-02  0 
 -7.756636e-02  -1.146824e-01  0 
 -7.835591e-02  -1.341780e-01  0 
 -7.922695e-02  -1.533171e-01  0 
 -7.938805e-02  -1.718755e-01  0 
 -5.410809e-02  -9.345203e-02  0 
 -3.714020e-02  -9.069605e-02  0 
 -5.772998e-02  -1.132822e-01  0 
 -3.984393e-02  -1.121679e-01  0 
 -5.956884e-02  -1.337375e-01  0 
 -4.188815e-02  -1.322593e-01  0 
 -6.060621e-02  -1.526882e-01  0 
 -4.247210e-02  -1.518696e-01  0 
 -6.079323e-02  -1.716925e-01  0 
 -4.312990e-02  -1.695668e-01  0 
 -7.108216e-02  -8.437164e-02  0 
 -7.502065e-02  -1.051039e-01  0 
 -7.807975e-02  -1.243309e-01  0 
 -7.884501e-02  -1.440788e-01  0 
 -7.933959e-02  -1.625561e-01  0 
 -5.123579e-02  -8.370749e-02  0 
 -6.213466e-02  -9.402797e-02  0 
 -3.551802e-02  -7.939013e-02  0 
 -4.665372e-02  -9.253547e-02  0 
 -5.645587e-02  -1.026720e-01  0 
 -6.792031e-02  -1.142048e-01  0 
 -3.817825e-02  -1.021843e-01  0 
 -4.789711e-02  -1.123894e-01  0 
 -5.862443e-02  -1.240665e-01  0 
 -6.861404e-02  -1.340154e-01  0 
 -4.139631e-02  -1.218054e-01  0 
 -5.101354e-02  -1.332548e-01  0 
 -3.276197e-02  -1.313759e-01  0 
 -6.031619e-02  -1.429450e-01  0 
 -6.998212e-02  -1.531398e-01  0 
 -4.204359e-02  -1.425670e-01  0 
 -5.127077e-02  -1.521960e-01  0 
 -3.412815e-02  -1.514668e-01  0 
 -6.069471e-02  -1.623990e-01  0 
 -7.006118e-02  -1.718411e-01  0 
 -4.290864e-02  -1.606709e-01  0 
 -5.191896e-02  -1.707189e-01  0 
 -3.426094e-02  -1.693214e-01  0 
 -6.124773e-02  -8.419493e-02  0 
 -4.268893e-02  -8.160286e-02  0 
 -6.524467e-02  -1.039572e-01  0 
 -4.742645e-02  -1.023668e-01  0 
 -6.840205e-02  -1.242399e-01  0 
 -4.963169e-02  -1.231088e-01  0 
 -3.257757e-02  -1.214897e-01  0 
 -6.938125e-02  -1.437228e-01  0 
 -5.121518e-02  -1.426939e-01  0 
 -3.351868e-02  -1.418535e-01  0 
 -7.006128e-02  -1.624900e-01  0 
 -5.155277e-02  -1.617381e-01  0 
 -3.424130e-02  -1.603589e-01  0 
VECTORS displacement_ITER11 FLOAT
 -7.204949e-02  -9.454009e-02  0 
 -7.756636e-02  -1.146824e-01  0 
 -7.835591e-02  -1.341780e-01  0 
 -7.922695e-02  -1.533171e-01  0 
 -7.938805e-02  -1.718755e-01  0 
 -5.410809e-02  -9.345203e-02  0 
 -3.714020e-02  -9.069605e-02  0 
 -5.772998e-02  -1.132822e-01  0 
 -3.984393e-02  -1.121679e-01  0 
 -5.956884e-02  -1.337375e-01  0 
 -4.188815e-02  -1.322593e-01  0 
 -6.060621e-02  -1.526882e-01  0 
 -4.247210e-02  -1.518696e-01  0 
 -6.079323e-02  -1.716925e-01  0 
 -4.312990e-02  -1.695668e-01  0 
 -7.108216e-02  -8.437164e-02  0 
 -7.502065e-02  -1.051039e-01  0 
 -7.807975e-02  -1.243309e-01  0 
 -7.884501e-02  -1.440788e-01  0 
 -7.933959e-02  -1.625561e-01  0 
 -5.123579e-02  -8.370749e-02  0 
 -6.213466e-02  -9.402797e-02  0 
 -3.551802e-02  -7.939013e-02  0 
 -4.665372e-02  -9.253547e-02  0 
 -5.645586e-02  -1.026720e-01  0 
 -6.792031e-02  -1.142048e-01  0 
 -3.817825e-02  -1.021843e-01  0 
 -4.789711e-02  -1.123894e-01  0 
 -5.862443e-02  -1.240665e-01  0 
 -6.861404e-02  -1.340154e-01  0 
 -4.139631e-02  -1.218054e-01  0 
 -5.101354e-02  -1.332548e-01  0 
 -3.276197e-02  -1.313759e-01  0 
 -6.031619e-02  -1.429450e-01  0 
 -6.998212e-02  -1.531398e-01  0 
 -4.204359e-02  -1.425670e-01  0 
 -5.127077e-02  -1.521960e-01  0 
 -3.412815e-02  -1.514668e-01  0 
 -6.069471e-02  -1.623990e-01  0 
 -7.006118e-02  -1.718411e-01  0 
 -4.290864e-02  -1.606709e-01  0 
 -5.191896e-02  -1.707189e-01  0 
 -3.426094e-02  -1.693214e-01  0 
 -6.124773e-02  -8.419493e-02  0 
 -4.268893e-02  -8.160286e-02  0 
 -6.524467e-02  -1.039572e-01  0 
 -4.742645e-02  -1.023668e-01  0 
 -6.840205e-02  -1.242399e-01  0 
 -4.963169e-02  -1.231088e-01  0 
 -3.257757e-02  -1.214897e-01  0 
 -6.938125e-02  -1.437228e-01  0 
 -5.121518e-02  -1.426939e-01  0 
 -3.351868e-02  -1.418535e-01  0 
 -7.006128e-02  -1.624900e-01  0 
 -5.155277e-02  -1.617381e-01  0 
 -3.424130e-02  -1.603589e-01  0 
CELL_DATA 41
TENSORS element_stresses FLOAT
 -3.621110e-01  -3.880441e-02  0 
 -3.880441e-02  2.913206e-02  0 
 0  0  0 

 -7.560902e-01  -2.367814e-01  0 
 -2.367814e-01  -1.415195e-02  0 
 0  0  0 

 -3.258643e-01  -1.798431e-01  0 
 -1.798431e-01  5.330051e-02  0 
 0  0  0 

 -2.401830e-01  -2.136196e-01  0 
 -2.136196e-01  1.305526e-01  0 
 0  0  0 

 -3.067867e-01  -3.085542e-02  0 
 -3.085542e-02  -9.092339e-03  0 
 0  0  0 

 -2.692015e-01  -8.976201e-02  0 
 -8.976201e-02  1.229373e-02  0 
 0  0  0 

 -2.601130e-01  -1.554038e-02  0 
 -1.554038e-02  3.180029e-03  0 
 0  0  0 

 -1.806264e-01  -7.225594e-02  0 
 -7.225594e-02  5.620286e-02  0 
 0  0  0 

 -6.052670e-01  -3.950047e-01  0 
 -3.950047e-01  6.278052e-02  0 
 0  0  0 

 -2.646584e-01  -3.935079e-01  0 
 -3.935079e-01  3.249924e-01  0 
 0  0  0 

 -3.044771e-01  -2.723792e-01  0 
 -2.723792e-01  1.482585e-01  0 
 0  0  0 

 -4.428844e-01  -4.161295e-01  0 
 -4.161295e-01  -5.205461e-02  0 
 0  0  0 

 -1.812220e-01  -5.536407e-02  0 
 -5.536407e-02  5.935270e-02  0 
 0  0  0 

 -2.301980e-01  -1.309915e-01  0 
 -1.309915e-01  1.501419e-01  0 
 0  0  0 

 -9.055932e-02  -3.124798e-02  0 
 -3.124798e-02  2.356542e-02  0 
 0  0  0 

 -2.243954e-01  -9.595392e-02  0 
 -9.595392e-02  2.294573e-02  0 
 0  0  0 

 -1.139504e-01  -1.030074e-01  0 
 -1.030074e-01  5.833833e-02  0 
 0  0  0 

 -1.554662e-01  -1.564781e-01  0 
 -1.564781e-01  2.960594e-02  0 
 0  0  0 

 -1.040732e-01  -8.726247e-02  0 
 -8.726247e-02  4.079822e-02  0 
 0  0  0 

 -6.505671e-02  -1.245786e-01  0 
 -1.245786e-01  9.542489e-02  0 
 0  0  0 

 -6.955823e-02  -3.684815e-01  0 
 -3.684815e-01  2.189641e-01  0 
 0  0  0 

 -6.048058e-02  -1.548169e-02  0 
 -1.548169e-02  7.782489e-03  0 
 0  0  0 

 -6.581367e-02  -3.094976e-02  0 
 -3.094976e-02  3.304724e-02  0 
 0  0  0 

 -4.521127e-02  2.054767e-03  0 
 2.054767e-03  1.309812e-02  0 
 0  0  0 

 -2.868454e-02  -2.765761e-02  0 
 -2.765761e-02  5.286713e-02  0 
 0  0  0 

 -1.601856e-01  -1.523623e-01  0 
 -1.523623e-01  9.870849e-02  0 
 0  0  0 

 -4.478729e-03  -2.230521e-01  0 
 -2.230521e-01  2.231233e-01  0 
 0  0  0 

 -2.695405e-02  -1.244345e-01  0 
 -1.244345e-01  1.405646e-01  0 
 0  0  0 

 -7.650727e-02  -1.283764e-01  0 
 -1.283764e-01  6.771232e-02  0 
 0  0  0 

 -2.379382e-02  -1.205452e-01  0 
 -1.205452e-01  7.271120e-02  0 
 0  0  0 

 -3.863114e-02  -7.873421e-02  0 
 -7.873421e-02  4.422700e-02  0 
 0  0  0 

 -2.610272e-02  -1.017694e-02  0 
 -1.017694e-02  4.085375e-02  0 
 0  0  0 

 -1.072058e-03  -4.901407e-02  0 
 -4.901407e-02  1.081969e-01  0 
 0  0  0 

 -4.000136e-03  -1.004778e-02  0 
 -1.004778e-02  1.890591e-02  0 
 0  0  0 

 -5.832342e-03  -1.549966e-03  0 
 -1.549966e-03  4.617418e-02  0 
 0  0  0 

 -1.351540e-03  -2.983027e-02  0 
 -2.983027e-02  5.724452e-02  0 
 0  0  0 

 -1.650793e-02  -3.463897e-02  0 
 -3.463897e-02  6.473162e-02  0 
 0  0  0 

 1.408145e-03  -9.923053e-03  0 
 -9.923053e-03  8.214483e-02  0 
 0  0  0 

 4.306308e-03  -1.705480e-02  0 
 -1.705480e-02  1.122607e-01  0 
 0  0  0 

 -7.368595e-02  -1.049445e-01  0 
 -1.049445e-01  1.208420e-01  0 
 0  0  0 

 -1.619805e-02  -4.954379e-02  0 
 -4.954379e-02  1.066017e-01  0 
 0  0  0 

TENSORS element_stresses FLOAT
 -3.621110e-01  -3.880441e-02  0 
 -3.880441e-02  2.913206e-02  0 
 0  0  0 

 -7.560902e-01  -2.367814e-01  0 
 -2.367814e-01  -1.415195e-02  0 
 0  0  0 

 -3.258643e-01  -1.798431e-01  0 
 -1.798431e-01  5.330051e-02  0 
 0  0  0 

 -2.401830e-01  -2.136196e-01  0 
 -2.136196e-01  1.305526e-01  0 
 0  0  0 

 -3.067867e-01  -3.085542e-02  0 
 -3.085542e-02  -9.092339e-03  0 
 0  0  0 

 -2.692015e-01  -8.976201e-02  0 
 -8.976201e-02  1.229373e-02  0 
 0  0  0 

 -2.601130e-01  -1.554038e-02  0 
 -1.554038e-02  3.180029e-03  0 
 0  0  0 

 -1.806264e-01  -7.225594e-02  0 
 -7.225594e-02  5.620286e-02  0 
 0  0  0 

 -6.052670e-01  -3.950047e-01  0 
 -3.950047e-01  6.278052e-02  0 
 0  0  0 

 -2.646584e-01  -3.935079e-01  0 
 -3.935079e-01  3.249924e-01  0 
 0  0  0 

 -3.044771e-01  -2.723792e-01  0 
 -2.723792e-01  1.482585e-01  0 
 0  0  0 

 -4.428844e-01  -4.161295e-01  0 
 -4.161295e-01  -5.205461e-02  0 
 0  0  0 

 -1.812220e-01  -5.536407e-02  0 
 -5.536407e-02  5.935270e-02  0 
 0  0  0 

 -2.301980e-01  -1.309915e-01  0 
 -1.309915e-01  1.501419e-01  0 
 0  0  0 

 -9.055932e-02  -3.124798e-02  0 
 -3.124798e-02  2.356542e-02  0 
 0  0  0 

 -2.243954e-01  -9.595392e-02  0 
 -9.595392e-02  2.294573e-02  0 
 0  0  0 

 -1.139504e-01  -1.030074e-01  0 
 -1.030074e-01  5.833833e-02  0 
 0  0  0 

 -1.554662e-01  -1.564781e-01  0 
 -1.564781e-01  2.960594e-02  0 
 0  0  0 

 -1.040732e-01  -8.726247e-02  0 
 -8.726247e-02  4.079822e-02  0 
 0  0  0 

 -6.505671e-02  -1.245786e-01  0 
 -1.245786e-01  9.542489e-02  0 
 0  0  0 

 -6.955823e-02  -3.684815e-01  0 
 -3.684815e-01  2.189641e-01  0 
 0  0  0 

 -6.048058e-02  -1.548169e-02  0 
 -1.548169e-02  7.782489e-03  0 
 0  0  0 

 -6.581367e-02  -3.094976e-02  0 
 -3.094976e-02  3.304724e-02  0 
 0  0  0 

 -4.521127e-02  2.054767e-03  0 
 2.054767e-03  1.309812e-02  0 
 0  0  0 

 -2.868454e-02  -2.765761e-02  0 
 -2.765761e-02  5.286713e-02  0 
 0  0  0 

 -1.601856e-01  -1.523623e-01  0 
 -1.523623e-01  9.870849e-02  0 
 0  0  0 

 -4.478729e-03  -2.230521e-01  0 
 -2.230521e-01  2.231233e-01  0 
 0  0  0 

 -2.695405e-02  -1.244345e-01  0 
 -1.244345e-01  1.405646e-01  0 
 0  0  0 

 -7.650727e-02  -1.283764e-01  0 
 -1.283764e-01  6.771232e-02  0 
 0  0  0 

 -2.379382e-02  -1.205452e-01  0 
 -1.205452e-01  7.271120e-02  0 
 0  0  0 

 -3.863114e-02  -7.873421e-02  0 
 -7.873421e-02  4.422700e-02  0 
 0  0  0 

 -2.610272e-02  -1.017694e-02  0 
 -1.017694e-02  4.085375e-02  0 
 0  0  0 

 -1.072058e-03  -4.901407e-02  0 
 -4.901407e-02  1.081969e-01  0 
 0  0  0 

 -4.000136e-03  -1.004778e-02  0 
 -1.004778e-02  1.890591e-02  0 
 0  0  0 

 -5.832342e-03  -1.549966e-03  0 
 -1.549966e-03  4.617418e-02  0 
 0  0  0 

 -1.351540e-03  -2.983027e-02  0 
 -2.983027e-02  5.724452e-02  0 
 0  0  0 

 -1.650793e-02  -3.463897e-02  0 
 -3.463897e-02  6.473162e-02  0 
 0  0  0 

 1.408145e-03  -9.923053e-03  0 
 -9.923053e-03  8.214483e-02  0 
 0  0  0 

 4.306308e-03  -1.705480e-02  0 
 -1.705480e-02  1.122607e-01  0 
 0  0  0 

 -7.368595e-02  -1.049445e-01  0 