# vtk DataFile Version 3.1
this is an vtk file created by FEMAC
ASCII
DATASET UNSTRUCTURED_GRID
POINTS 12 FLOAT
5.500000 0.000000 0.000000
6.000000 0.000000 0.000000
5.500000 0.200000 0.000000
5.500000 0.400000 0.000000
5.500000 0.600000 0.000000
5.500000 0.800000 0.000000
5.500000 1.000000 0.000000
6.000000 0.200000 0.000000
6.000000 0.400000 0.000000
6.000000 0.600000 0.000000
6.000000 0.800000 0.000000
6.000000 1.000000 0.000000
CELLS 5 25 
4 0 1 7 2
4 2 7 8 3
4 3 8 9 4
4 4  9 10  5
4 5 10 11  6
CELL_TYPES 5
9 9 9 9 9 
POINT_DATA 12
VECTORS displacement_ITER1 FLOAT
 -2.668745e-03  -2.034578e-02  0 
 -2.709280e-03  -2.307368e-02  0 
 -1.585905e-03  -2.034183e-02  0 
 -5.357704e-04  -2.033000e-02  0 
 5.536374e-04  -2.033000e-02  0 
 1.603772e-03  -2.034183e-02  0 
 2.686612e-03  -2.034578e-02  0 
 -1.614222e-03  -2.306933e-02  0 
 -5.408256e-04  -2.307564e-02  0 
 5.586926e-04  -2.307564e-02  0 
 1.632089e-03  -2.306933e-02  0 
 2.727147e-03  -2.307368e-02  0 
VECTORS displacement_ITER2 FLOAT
 -2.651375e-03  -2.022127e-02  0 
 -2.691885e-03  -2.293380e-02  0 
 -1.574814e-03  -2.021685e-02  0 
 -5.306415e-04  -2.020916e-02  0 
 5.489606e-04  -2.020916e-02  0 
 1.593133e-03  -2.021685e-02  0 
 2.669694e-03  -2.022127e-02  0 
 -1.602547e-03  -2.292996e-02  0 
 -5.365224e-04  -2.293245e-02  0 
 5.548415e-04  -2.293245e-02  0 
 1.620866e-03  -2.292996e-02  0 
 2.710205e-03  -2.293380e-02  0 
VECTORS displacement_ITER3 FLOAT
 -2.639565e-03  -2.015245e-02  0 
 -2.680031e-03  -2.285706e-02  0 
 -1.566309e-03  -2.014782e-02  0 
 -5.263127e-04  -2.014595e-02  0 
 5.451300e-04  -2.014595e-02  0 
 1.585126e-03  -2.014782e-02  0 
 2.658383e-03  -2.015245e-02  0 
 -1.593602e-03  -2.285347e-02  0 
 -5.328611e-04  -2.285059e-02  0 
 5.516783e-04  -2.285059e-02  0 
 1.612419e-03  -2.285347e-02  0 
 2.698848e-03  -2.285706e-02  0 
VECTORS displacement_ITER4 FLOAT
 -2.637545e-03  -2.014319e-02  0 
 -2.678022e-03  -2.284545e-02  0 
 -1.565253e-03  -2.013846e-02  0 
 -5.258550e-04  -2.013644e-02  0 
 5.447254e-04  -2.013644e-02  0 
 1.584124e-03  -2.013846e-02  0 
 2.656415e-03  -2.014319e-02  0 
 -1.592439e-03  -2.284197e-02  0 
 -5.325148e-04  -2.283923e-02  0 
 5.513851e-04  -2.283923e-02  0 
 1.611309e-03  -2.284197e-02  0 
 2.696892e-03  -2.284545e-02  0 
VECTORS displacement_ITER5 FLOAT
 -2.636068e-03  -2.013707e-02  0 
 -2.676571e-03  -2.283671e-02  0 
 -1.564843e-03  -2.013220e-02  0 
 -5.257792e-04  -2.012910e-02  0 
 5.446023e-04  -2.012910e-02  0 
 1.583666e-03  -2.013220e-02  0 
 2.654891e-03  -2.013707e-02  0 
 -1.591919e-03  -2.283337e-02  0 
 -5.325235e-04  -2.283161e-02  0 
 5.513466e-04  -2.283161e-02  0 
 1.610743e-03  -2.283337e-02  0 
 2.695394e-03  -2.283671e-02  0 
VECTORS displacement_ITER6 FLOAT
 -2.635018e-03  -2.013581e-02  0 
 -2.675580e-03  -2.283317e-02  0 
 -1.564771e-03  -2.013084e-02  0 
 -5.260366e-04  -2.012676e-02  0 
 5.441356e-04  -2.012667e-02  0 
 1.583304e-03  -2.012912e-02  0 
 2.654815e-03  -2.013402e-02  0 
 -1.591751e-03  -2.282990e-02  0 
 -5.328715e-04  -2.282881e-02  0 
 5.508937e-04  -2.282886e-02  0 
 1.610362e-03  -2.283097e-02  0 
 2.695277e-03  -2.283429e-02  0 
VECTORS displacement_ITER7 FLOAT
 -2.636518e-03  -2.013279e-02  0 
 -2.676975e-03  -2.283488e-02  0 
 -1.564282e-03  -2.012794e-02  0 
 -5.247207e-04  -2.012658e-02  0 
 5.451949e-04  -2.012675e-02  0 
 1.583468e-03  -2.013130e-02  0 
 2.652992e-03  -2.013632e-02  0 
 -1.591306e-03  -2.283153e-02  0 
 -5.315290e-04  -2.282830e-02  0 
 5.520569e-04  -2.282817e-02  0 
 1.610418e-03  -2.282873e-02  0 
 2.693559e-03  -2.283195e-02  0 
VECTORS displacement_ITER8 FLOAT
 -2.634774e-03  -2.013521e-02  0 
 -2.675245e-03  -2.283258e-02  0 
 -1.564474e-03  -2.013024e-02  0 
 -5.259699e-04  -2.012689e-02  0 
 5.437961e-04  -2.012684e-02  0 
 1.583097e-03  -2.012902e-02  0 
 2.654563e-03  -2.013393e-02  0 
 -1.591467e-03  -2.282935e-02  0 
 -5.328074e-04  -2.282808e-02  0 
 5.506833e-04  -2.282817e-02  0 
 1.610031e-03  -2.283103e-02  0 
 2.695117e-03  -2.283435e-02  0 
VECTORS displacement_ITER9 FLOAT
 -2.635121e-03  -2.013472e-02  0 
 -2.675656e-03  -2.283325e-02  0 
 -1.564406e-03  -2.012976e-02  0 
 -5.255769e-04  -2.012681e-02  0 
 5.441613e-04  -2.012679e-02  0 
 1.583126e-03  -2.012943e-02  0 
 2.654076e-03  -2.013437e-02  0 
 -1.591340e-03  -2.283000e-02  0 
 -5.324631e-04  -2.282803e-02  0 
 5.510317e-04  -2.282803e-02  0 
 1.610084e-03  -2.283013e-02  0 
 2.694570e-03  -2.283340e-02  0 
VECTORS displacement_ITER10 FLOAT
 -2.635276e-03  -2.013431e-02  0 
 -2.675806e-03  -2.283329e-02  0 
 -1.564377e-03  -2.012936e-02  0 
 -5.253894e-04  -2.012661e-02  0 
 5.443481e-04  -2.012663e-02  0 
 1.583151e-03  -2.012964e-02  0 
 2.653788e-03  -2.013461e-02  0 
 -1.591299e-03  -2.283003e-02  0 
 -5.322835e-04  -2.282790e-02  0 
 5.512392e-04  -2.282788e-02  0 
 1.610085e-03  -2.282966e-02  0 
 2.694293e-03  -2.283289e-02  0 
VECTORS displacement_ITER11 FLOAT
 -2.635106e-03  -2.013446e-02  0 
 -2.675628e-03  -2.283300e-02  0 
 -1.564386e-03  -2.012950e-02  0 
 -5.255035e-04  -2.012660e-02  0 
 5.442081e-04  -2.012659e-02  0 
 1.583120e-03  -2.012941e-02  0 
 2.653918e-03  -2.013437e-02  0 
 -1.591301e-03  -2.282975e-02  0 
 -5.324051e-04  -2.282782e-02  0 
 5.511114e-04  -2.282783e-02  0 
 1.610038e-03  -2.282983e-02  0 
 2.694433e-03  -2.283308e-02  0 
VECTORS displacement_ITER12 FLOAT
 -2.635139e-03  -2.013443e-02  0 
 -2.675660e-03  -2.283309e-02  0 
 -1.564369e-03  -2.012947e-02  0 
 -5.254610e-04  -2.012665e-02  0 
 5.442259e-04  -2.012665e-02  0 
 1.583116e-03  -2.012948e-02  0 
 2.653876e-03  -2.013444e-02  0 
 -1.591278e-03  -2.282985e-02  0 
 -5.323706e-04  -2.282784e-02  0 
 5.511335e-04  -2.282784e-02  0 
 1.610027e-03  -2.282983e-02  0 
 2.694394e-03  -2.283307e-02  0 
VECTORS displacement_ITER13 FLOAT
 -2.635139e-03  -2.013443e-02  0 
 -2.675660e-03  -2.283309e-02  0 
 -1.564368e-03  -2.012947e-02  0 
 -5.254574e-04  -2.012665e-02  0 
 5.442284e-04  -2.012665e-02  0 
 1.583119e-03  -2.012949e-02  0 
 2.653868e-03  -2.013446e-02  0 
 -1.591275e-03  -2.282985e-02  0 
 -5.323677e-04  -2.282784e-02  0 
 5.511381e-04  -2.282784e-02  0 
 1.610028e-03  -2.282982e-02  0 
 2.694387e-03  -2.283306e-02  0 
VECTORS displacement_ITER14 FLOAT
 -2.635122e-03  -2.013445e-02  0 
 -2.675642e-03  -2.283306e-02  0 
 -1.564373e-03  -2.012948e-02  0 
 -5.254701e-04  -2.012664e-02  0 
 5.442194e-04  -2.012664e-02  0 
 1.583123e-03  -2.012949e-02  0 
 2.653871e-03  -2.013445e-02  0 
 -1.591278e-03  -2.282982e-02  0 
 -5.323813e-04  -2.282784e-02  0 
 5.511308e-04  -2.282784e-02  0 
 1.610028e-03  -2.282982e-02  0 
 2.694392e-03  -2.283306e-02  0 
VECTORS displacement_ITER15 FLOAT
 -2.635119e-03  -2.013445e-02  0 
 -2.675639e-03  -2.283305e-02  0 
 -1.564374e-03  -2.012949e-02  0 
 -5.254712e-04  -2.012664e-02  0 
 5.442177e-04  -2.012664e-02  0 
 1.583124e-03  -2.012948e-02  0 
 2.653872e-03  -2.013445e-02  0 
 -1.591277e-03  -2.282981e-02  0 
 -5.323831e-04  -2.282784e-02  0 
 5.511293e-04  -2.282784e-02  0 
 1.610027e-03  -2.282982e-02  0 
 2.694394e-03  -2.283306e-02  0 
VECTORS displacement_ITER16 FLOAT
 -2.635120e-03  -2.013445e-02  0 
 -2.675641e-03  -2.283306e-02  0 
 -1.564373e-03  -2.012948e-02  0 
 -5.254689e-04  -2.012664e-02  0 
 5.442172e-04  -2.012664e-02  0 
 1.583123e-03  -2.012949e-02  0 
 2.653871e-03  -2.013445e-02  0 
 -1.591275e-03  -2.282982e-02  0 
 -5.323810e-04  -2.282784e-02  0 
 5.511297e-04  -2.282784e-02  0 
 1.610025e-03  -2.282982e-02  0 
 2.694393e-03  -2.283306e-02  0 
VECTORS displacement_ITER17 FLOAT
 -2.635121e-03  -2.013445e-02  0 
 -2.675642e-03  -2.283306e-02  0 
 -1.564372e-03  -2.012948e-02  0 
 -5.254680e-04  -2.012665e-02  0 
 5.442171e-04  -2.012665e-02  0 
 1.583123e-03  -2.012949e-02  0 
 2.653870e-03  -2.013445e-02  0 
 -1.591274e-03  -2.282982e-02  0 
 -5.323803e-04  -2.282784e-02  0 
 5.511300e-04  -2.282784e-02  0 
 1.610024e-03  -2.282982e-02  0 
 2.694392e-03  -2.283307e-02  0 
VECTORS displacement_ITER18 FLOAT
 -2.635120e-03  -2.013445e-02  0 
 -2.675642e-03  -2.283306e-02  0 
 -1.564372e-03  -2.012948e-02  0 
 -5.254680e-04  -2.012665e-02  0 
 5.442171e-04  -2.012665e-02  0 
 1.583123e-03  -2.012949e-02  0 
 2.653871e-03  -2.013445e-02  0 
 -1.591274e-03  -2.282982e-02  0 
 -5.323805e-04  -2.282784e-02  0 
 5.511301e-04  -2.282784e-02  0 
 1.610024e-03  -2.282983e-02  0 
 2.694392e-03  -2.283307e-02  0 
VECTORS displacement_ITER19 FLOAT
 -2.635120e-03  -2.013445e-02  0 
 -2.675642e-03  -2.283306e-02  0 
 -1.564373e-03  -2.012949e-02  0 
 -5.254681e-04  -2.012665e-02  0 
 5.442172e-04  -2.012665e-02  0 
 1.583123e-03  -2.012949e-02  0 
 2.653870e-03  -2.013445e-02  0 
 -1.591274e-03  -2.282982e-02  0 
 -5.323807e-04  -2.282784e-02  0 
 5.511303e-04  -2.282784e-02  0 
 1.610024e-03  -2.282983e-02  0 
 2.694392e-03  -2.283307e-02  0 
VECTORS displacement_ITER20 FLOAT
 -2.635120e-03  -2.013445e-02  0 
 -2.675642e-03  -2.283306e-02  0 
 -1.564373e-03  -2.012949e-02  0 
 -5.254681e-04  -2.012665e-02  0 
 5.442174e-04  -2.012665e-02  0 
 1.583123e-03  -2.012949e-02  0 
 2.653870e-03  -2.013445e-02  0 
 -1.591274e-03  -2.282982e-02  0 
 -5.323806e-04  -2.282784e-02  0 
 5.511305e-04  -2.282784e-02  0 
 1.610024e-03  -2.282982e-02  0 
 2.694392e-03  -2.283306e-02  0 
VECTORS displacement_ITER21 FLOAT
 -2.635120e-03  -2.013445e-02  0 
 -2.675642e-03  -2.283306e-02  0 
 -1.564373e-03  -2.012949e-02  0 
 -5.254679e-04  -2.012665e-02  0 
 5.442174e-04  -2.012665e-02  0 
 1.583123e-03  -2.012949e-02  0 
 2.653870e-03  -2.013445e-02  0 
 -1.591274e-03  -2.282982e-02  0 
 -5.323805e-04  -2.282784e-02  0 
 5.511305e-04  -2.282784e-02  0 
 1.610024e-03  -2.282982e-02  0 
 2.694392e-03  -2.283306e-02  0 
VECTORS displacement_ITER22 FLOAT
 -2.635120e-03  -2.013445e-02  0 
 -2.675642e-03  -2.283306e-02  0 
 -1.564373e-03  -2.012949e-02  0 
 -5.254678e-04  -2.012665e-02  0 
 5.442173e-04  -2.012665e-02  0 
 1.583123e-03  -2.012949e-02  0 
 2.653870e-03  -2.013445e-02  0 
 -1.591274e-03  -2.282982e-02  0 
 -5.323804e-04  -2.282784e-02  0 
 5.511304e-04  -2.282784e-02  0 
 1.610024e-03  -2.282982e-02  0 
 2.694392e-03  -2.283307e-02  0 
VECTORS displacement_ITER23 FLOAT
 -2.635120e-03  -2.013445e-02  0 
 -2.675642e-03  -2.283306e-02  0 
 -1.564373e-03  -2.012949e-02  0 
 -5.254678e-04  -2.012665e-02  0 
 5.442173e-04  -2.012665e-02  0 
 1.583123e-03  -2.012949e-02  0 
 2.653870e-03  -2.013445e-02  0 
 -1.591274e-03  -2.282982e-02  0 
 -5.323805e-04  -2.282784e-02  0 
 5.511305e-04  -2.282784e-02  0 
 1.610024e-03  -2.282982e-02  0 
 2.694392e-03  -2.283307e-02  0 
VECTORS displacement_ITER24 FLOAT
 -2.635120e-03  -2.013445e-02  0 
 -2.675642e-03  -2.283306e-02  0 
 -1.564373e-03  -2.012949e-02  0 
 -5.254678e-04  -2.012665e-02  0 
 5.442173e-04  -2.012665e-02  0 
 1.583123e-03  -2.012949e-02  0 
 2.653870e-03  -2.013445e-02  0 
 -1.591274e-03  -2.282982e-02  0 
 -5.323805e-04  -2.282784e-02  0 
 5.511305e-04  -2.282784e-02  0 
 1.610024e-03  -2.282982e-02  0 
 2.694392e-03  -2.283307e-02  0 
VECTORS displacement_ITER25 FLOAT
 -2.635120e-03  -2.013445e-02  0 
 -2.675642e-03  -2.283306e-02  0 
 -1.564373e-03  -2.012949e-02  0 
 -5.254678e-04  -2.012665e-02  0 
 5.442173e-04  -2.012665e-02  0 
 1.583123e-03  -2.012949e-02  0 
 2.653870e-03  -2.013445e-02  0 
 -1.591274e-03  -2.282982e-02  0 
 -5.323805e-04  -2.282784e-02  0 
 5.511305e-04  -2.282784e-02  0 
 1.610024e-03  -2.282982e-02  0 
 2.694392e-03  -2.283307e-02  0 
CELL_DATA 5
TENSORS element_stresses FLOAT
 -6.732838e-02  -8.586487e-03  0 
 -8.586487e-03  3.154476e-04  0 
 0  0  0 

 -3.318099e-03  -1.207958e-02  0 
 -1.207958e-02  2.108987e-04  0 
 0  0  0 

 4.269727e-07  -1.491870e-02  0 
 -1.491870e-02  -2.371898e-07  0 
 0  0  0 

 3.318014e-03  -1.207935e-02  0 
 -1.207935e-02  -2.113559e-04  0 
 0  0  0 

 6.732804e-02  -8.585882e-03  0 
 -8.585882e-03  -3.156499e-04  0 
 0  0  0 

TENSORS element_stresses FLOAT
 -6.732838e-02  -8.586487e-03  0 
 -8.586487e-03  3.154476e-04  0 
 0  0  0 

 -3.318099e-03  -1.207958e-02  0 
 -1.207958e-02  2.108987e-04  0 
 0  0  0 

 4.269727e-07  -1.491870e-02  0 
 -1.491870e-02  -2.371898e-07  0 
 0  0  0 

 3.318014e-03  -1.207935e-02  0 
 -1.207935e-02  -2.113559e-04  0 
 0  0  0 

 6.732804e-02  -8.585882e-03  0 
 -8.585882e-03  -3.156499e-04  0 
 0  0  0 

