# vtk DataFile Version 3.1
this is an vtk file created by FEMAC
ASCII
DATASET UNSTRUCTURED_GRID
POINTS 12 FLOAT
0.500000 0.000000 0.000000
1.000000 0.000000 0.000000
0.500000 0.200000 0.000000
0.500000 0.400000 0.000000
0.500000 0.600000 0.000000
0.500000 0.800000 0.000000
0.500000 1.000000 0.000000
1.000000 0.200000 0.000000
1.000000 0.400000 0.000000
1.000000 0.600000 0.000000
1.000000 0.800000 0.000000
1.000000 1.000000 0.000000
CELLS 5 25 
4 0 1 7 2
4 2 7 8 3
4 3 8 9 4
4 4  9 10  5
4 5 10 11  6
CELL_TYPES 5
9 9 9 9 9 
POINT_DATA 12
VECTORS displacement_ITER1 FLOAT
 -5.216905e-04  -3.798506e-04  0 
 -9.292171e-04  -1.288459e-03  0 
 -2.261846e-04  -3.411529e-04  0 
 -8.401193e-05  -3.789981e-04  0 
 1.613063e-04  -3.856942e-04  0 
 2.626642e-04  -4.700583e-04  0 
 4.555915e-04  -5.132108e-04  0 
 -5.112254e-04  -1.244463e-03  0 
 -1.499167e-04  -1.196227e-03  0 
 2.277108e-04  -1.192097e-03  0 
 5.399990e-04  -1.157954e-03  0 
 8.768018e-04  -1.198621e-03  0 
VECTORS displacement_ITER2 FLOAT
 -4.586243e-04  -4.700894e-04  0 
 -8.621727e-04  -1.197122e-03  0 
 -2.390837e-04  -4.247629e-04  0 
 -1.233877e-04  -3.972073e-04  0 
 1.018549e-04  -3.976865e-04  0 
 2.628482e-04  -4.120300e-04  0 
 5.062974e-04  -4.529486e-04  0 
 -5.115379e-04  -1.161172e-03  0 
 -2.034371e-04  -1.196891e-03  0 
 1.826619e-04  -1.201145e-03  0 
 5.204051e-04  -1.252689e-03  0 
 9.357398e-04  -1.294695e-03  0 
VECTORS displacement_ITER3 FLOAT
 -4.861881e-04  -4.249375e-04  0 
 -8.889623e-04  -1.241500e-03  0 
 -2.333285e-04  -3.797995e-04  0 
 -9.392976e-05  -4.025490e-04  0 
 1.155320e-04  -4.071876e-04  0 
 2.704426e-04  -4.494191e-04  0 
 4.759974e-04  -4.925573e-04  0 
 -4.966092e-04  -1.205604e-03  0 
 -1.841459e-04  -1.192420e-03  0 
 2.049368e-04  -1.192669e-03  0 
 5.163089e-04  -1.219354e-03  0 
 9.091059e-04  -1.258228e-03  0 
VECTORS displacement_ITER4 FLOAT
 -4.947961e-04  -4.112560e-04  0 
 -8.975605e-04  -1.255844e-03  0 
 -2.306890e-04  -3.664999e-04  0 
 -8.727478e-05  -4.027279e-04  0 
 1.211842e-04  -4.083461e-04  0 
 2.702337e-04  -4.571396e-04  0 
 4.694347e-04  -5.007448e-04  0 
 -4.936358e-04  -1.219398e-03  0 
 -1.782158e-04  -1.192398e-03  0 
 2.116935e-04  -1.191761e-03  0 
 5.153372e-04  -1.213182e-03  0 
 9.025914e-04  -1.251573e-03  0 
VECTORS displacement_ITER5 FLOAT
 -4.954562e-04  -4.121188e-04  0 
 -8.988646e-04  -1.262307e-03  0 
 -2.292631e-04  -3.672016e-04  0 
 -8.823793e-05  -4.033335e-04  0 
 1.218303e-04  -4.086793e-04  0 
 2.679758e-04  -4.541344e-04  0 
 4.714641e-04  -4.976668e-04  0 
 -4.926444e-04  -1.225601e-03  0 
 -1.791172e-04  -1.195343e-03  0 
 2.124975e-04  -1.194687e-03  0 
 5.139628e-04  -1.217988e-03  0 
 9.036054e-04  -1.256414e-03  0 
VECTORS displacement_ITER6 FLOAT
 -4.938499e-04  -4.162873e-04  0 
 -8.978228e-04  -1.263097e-03  0 
 -2.291912e-04  -3.710982e-04  0 
 -9.039710e-05  -4.030216e-04  0 
 1.213450e-04  -4.079575e-04  0 
 2.668313e-04  -4.508742e-04  0 
 4.738683e-04  -4.943372e-04  0 
 -4.928344e-04  -1.226399e-03  0 
 -1.810944e-04  -1.197695e-03  0 
 2.118099e-04  -1.197159e-03  0 
 5.136027e-04  -1.221153e-03  0 
 9.052285e-04  -1.259595e-03  0 
VECTORS displacement_ITER7 FLOAT
 -4.933459e-04  -4.178518e-04  0 
 -8.975983e-04  -1.262859e-03  0 
 -2.294323e-04  -3.725149e-04  0 
 -9.113740e-05  -4.019835e-04  0 
 1.217636e-04  -4.067875e-04  0 
 2.666902e-04  -4.503242e-04  0 
 4.741873e-04  -4.938748e-04  0 
 -4.932646e-04  -1.226196e-03  0 
 -1.816072e-04  -1.198767e-03  0 
 2.120316e-04  -1.198233e-03  0 
 5.138909e-04  -1.220730e-03  0 
 9.051821e-04  -1.259069e-03  0 
VECTORS displacement_ITER8 FLOAT
 -4.935122e-04  -4.178254e-04  0 
 -8.978476e-04  -1.262650e-03  0 
 -2.296020e-04  -3.724387e-04  0 
 -9.108929e-05  -4.011539e-04  0 
 1.223877e-04  -4.059647e-04  0 
 2.668178e-04  -4.507908e-04  0 
 4.737409e-04  -4.944581e-04  0 
 -4.936114e-04  -1.226003e-03  0 
 -1.813543e-04  -1.198981e-03  0 
 2.125300e-04  -1.198414e-03  0 
 5.142416e-04  -1.219470e-03  0 
 9.046067e-04  -1.257704e-03  0 
VECTORS displacement_ITER9 FLOAT
 -4.936635e-04  -4.176022e-04  0 
 -8.979900e-04  -1.262475e-03  0 
 -2.296618e-04  -3.722108e-04  0 
 -9.094247e-05  -4.009119e-04  0 
 1.226285e-04  -4.057389e-04  0 
 2.668825e-04  -4.510492e-04  0 
 4.734945e-04  -4.947759e-04  0 
 -4.938009e-04  -1.225832e-03  0 
 -1.810835e-04  -1.198791e-03  0 
 2.127032e-04  -1.198215e-03  0 
 5.144163e-04  -1.218888e-03  0 
 9.043348e-04  -1.257081e-03  0 
VECTORS displacement_ITER10 FLOAT
 -4.936832e-04  -4.175520e-04  0 
 -8.979808e-04  -1.262310e-03  0 
 -2.296672e-04  -3.721679e-04  0 
 -9.088032e-05  -4.009858e-04  0 
 1.225986e-04  -4.058083e-04  0 
 2.668563e-04  -4.509793e-04  0 
 4.735141e-04  -4.947252e-04  0 
 -4.939113e-04  -1.225670e-03  0 
 -1.809401e-04  -1.198511e-03  0 
 2.126232e-04  -1.197947e-03  0 
 5.144750e-04  -1.218858e-03  0 
 9.043442e-04  -1.257045e-03  0 
VECTORS displacement_ITER11 FLOAT
 -4.936715e-04  -4.175472e-04  0 
 -8.979451e-04  -1.262289e-03  0 
 -2.296362e-04  -3.721759e-04  0 
 -9.087765e-05  -4.011185e-04  0 
 1.225102e-04  -4.059337e-04  0 
 2.668007e-04  -4.508308e-04  0 
 4.736119e-04  -4.945700e-04  0 
 -4.939195e-04  -1.225649e-03  0 
 -1.809211e-04  -1.198389e-03  0 
 2.125234e-04  -1.197834e-03  0 
 5.144505e-04  -1.219041e-03  0 
 9.044382e-04  -1.257238e-03  0 
VECTORS displacement_ITER12 FLOAT
 -4.937172e-04  -4.174490e-04  0 
 -8.979698e-04  -1.262310e-03  0 
 -2.296201e-04  -3.720890e-04  0 
 -9.084819e-05  -4.011283e-04  0 
 1.225268e-04  -4.059500e-04  0 
 2.667948e-04  -4.508543e-04  0 
 4.735918e-04  -4.945936e-04  0 
 -4.939162e-04  -1.225670e-03  0 
 -1.808948e-04  -1.198373e-03  0 
 2.125483e-04  -1.197817e-03  0 
 5.144464e-04  -1.219039e-03  0 
 9.044220e-04  -1.257235e-03  0 
VECTORS displacement_ITER13 FLOAT
 -4.937201e-04  -4.174424e-04  0 
 -8.979687e-04  -1.262306e-03  0 
 -2.296207e-04  -3.720843e-04  0 
 -9.084817e-05  -4.011256e-04  0 
 1.225296e-04  -4.059482e-04  0 
 2.667965e-04  -4.508607e-04  0 
 4.735888e-04  -4.945998e-04  0 
 -4.939179e-04  -1.225667e-03  0 
 -1.808967e-04  -1.198377e-03  0 
 2.125530e-04  -1.197821e-03  0 
 5.144480e-04  -1.219036e-03  0 
 9.044194e-04  -1.257232e-03  0 
VECTORS displacement_ITER14 FLOAT
 -4.937115e-04  -4.174601e-04  0 
 -8.979586e-04  -1.262294e-03  0 
 -2.296253e-04  -3.721024e-04  0 
 -9.085707e-05  -4.011215e-04  0 
 1.225269e-04  -4.059439e-04  0 
 2.667996e-04  -4.508608e-04  0 
 4.735926e-04  -4.945990e-04  0 
 -4.939214e-04  -1.225657e-03  0 
 -1.809081e-04  -1.198387e-03  0 
 2.125510e-04  -1.197830e-03  0 
 5.144508e-04  -1.219038e-03  0 
 9.044225e-04  -1.257234e-03  0 
VECTORS displacement_ITER15 FLOAT
 -4.937101e-04  -4.174633e-04  0 
 -8.979572e-04  -1.262293e-03  0 
 -2.296258e-04  -3.721058e-04  0 
 -9.085849e-05  -4.011210e-04  0 
 1.225260e-04  -4.059434e-04  0 
 2.667999e-04  -4.508603e-04  0 
 4.735934e-04  -4.945982e-04  0 
 -4.939212e-04  -1.225656e-03  0 
 -1.809099e-04  -1.198389e-03  0 
 2.125499e-04  -1.197831e-03  0 
 5.144510e-04  -1.219039e-03  0 
 9.044233e-04  -1.257235e-03  0 
VECTORS displacement_ITER16 FLOAT
 -4.937109e-04  -4.174623e-04  0 
 -8.979581e-04  -1.262296e-03  0 
 -2.296254e-04  -3.721050e-04  0 
 -9.085781e-05  -4.011207e-04  0 
 1.225260e-04  -4.059433e-04  0 
 2.668000e-04  -4.508605e-04  0 
 4.735930e-04  -4.945981e-04  0 
 -4.939203e-04  -1.225659e-03  0 
 -1.809093e-04  -1.198387e-03  0 
 2.125493e-04  -1.197830e-03  0 
 5.144509e-04  -1.219037e-03  0 
 9.044231e-04  -1.257233e-03  0 
VECTORS displacement_ITER17 FLOAT
 -4.937108e-04  -4.174624e-04  0 
 -8.979580e-04  -1.262295e-03  0 
 -2.296255e-04  -3.721051e-04  0 
 -9.085772e-05  -4.011200e-04  0 
 1.225260e-04  -4.059426e-04  0 
 2.668002e-04  -4.508607e-04  0 
 4.735928e-04  -4.945982e-04  0 
 -4.939205e-04  -1.225658e-03  0 
 -1.809093e-04  -1.198387e-03  0 
 2.125492e-04  -1.197829e-03  0 
 5.144514e-04  -1.219036e-03  0 
 9.044228e-04  -1.257232e-03  0 
VECTORS displacement_ITER18 FLOAT
 -4.937103e-04  -4.174633e-04  0 
 -8.979574e-04  -1.262294e-03  0 
 -2.296257e-04  -3.721058e-04  0 
 -9.085810e-05  -4.011191e-04  0 
 1.225258e-04  -4.059417e-04  0 
 2.668005e-04  -4.508606e-04  0 
 4.735929e-04  -4.945981e-04  0 
 -4.939210e-04  -1.225657e-03  0 
 -1.809098e-04  -1.198387e-03  0 
 2.125489e-04  -1.197829e-03  0 
 5.144519e-04  -1.219035e-03  0 
 9.044228e-04  -1.257231e-03  0 
VECTORS displacement_ITER19 FLOAT
 -4.937102e-04  -4.174633e-04  0 
 -8.979572e-04  -1.262293e-03  0 
 -2.296257e-04  -3.721058e-04  0 
 -9.085817e-05  -4.011188e-04  0 
 1.225258e-04  -4.059414e-04  0 
 2.668005e-04  -4.508604e-04  0 
 4.735930e-04  -4.945979e-04  0 
 -4.939210e-04  -1.225656e-03  0 
 -1.809099e-04  -1.198386e-03  0 
 2.125489e-04  -1.197829e-03  0 
 5.144520e-04  -1.219035e-03  0 
 9.044229e-04  -1.257231e-03  0 
VECTORS displacement_ITER20 FLOAT
 -4.937105e-04  -4.174627e-04  0 
 -8.979574e-04  -1.262294e-03  0 
 -2.296255e-04  -3.721052e-04  0 
 -9.085804e-05  -4.011187e-04  0 
 1.225258e-04  -4.059414e-04  0 
 2.668004e-04  -4.508603e-04  0 
 4.735930e-04  -4.945977e-04  0 
 -4.939208e-04  -1.225657e-03  0 
 -1.809098e-04  -1.198386e-03  0 
 2.125490e-04  -1.197829e-03  0 
 5.144518e-04  -1.219035e-03  0 
 9.044229e-04  -1.257231e-03  0 
VECTORS displacement_ITER21 FLOAT
 -4.937106e-04  -4.174626e-04  0 
 -8.979575e-04  -1.262294e-03  0 
 -2.296254e-04  -3.721050e-04  0 
 -9.085801e-05  -4.011187e-04  0 
 1.225259e-04  -4.059414e-04  0 
 2.668004e-04  -4.508603e-04  0 
 4.735930e-04  -4.945978e-04  0 
 -4.939208e-04  -1.225657e-03  0 
 -1.809098e-04  -1.198386e-03  0 
 2.125491e-04  -1.197829e-03  0 
 5.144517e-04  -1.219035e-03  0 
 9.044229e-04  -1.257231e-03  0 
VECTORS displacement_ITER22 FLOAT
 -4.937105e-04  -4.174628e-04  0 
 -8.979574e-04  -1.262294e-03  0 
 -2.296255e-04  -3.721052e-04  0 
 -9.085804e-05  -4.011187e-04  0 
 1.225259e-04  -4.059413e-04  0 
 2.668004e-04  -4.508604e-04  0 
 4.735929e-04  -4.945978e-04  0 
 -4.939208e-04  -1.225657e-03  0 
 -1.809098e-04  -1.198386e-03  0 
 2.125491e-04  -1.197829e-03  0 
 5.144518e-04  -1.219035e-03  0 
 9.044229e-04  -1.257231e-03  0 
VECTORS displacement_ITER23 FLOAT
 -4.937105e-04  -4.174628e-04  0 
 -8.979574e-04  -1.262294e-03  0 
 -2.296255e-04  -3.721052e-04  0 
 -9.085802e-05  -4.011187e-04  0 
 1.225259e-04  -4.059414e-04  0 
 2.668004e-04  -4.508604e-04  0 
 4.735929e-04  -4.945978e-04  0 
 -4.939208e-04  -1.225657e-03  0 
 -1.809098e-04  -1.198386e-03  0 
 2.125491e-04  -1.197829e-03  0 
 5.144518e-04  -1.219035e-03  0 
 9.044229e-04  -1.257231e-03  0 
VECTORS displacement_ITER24 FLOAT
 -4.937105e-04  -4.174628e-04  0 
 -8.979575e-04  -1.262294e-03  0 
 -2.296255e-04  -3.721052e-04  0 
 -9.085801e-05  -4.011187e-04  0 
 1.225259e-04  -4.059414e-04  0 
 2.668004e-04  -4.508604e-04  0 
 4.735929e-04  -4.945978e-04  0 
 -4.939208e-04  -1.225657e-03  0 
 -1.809098e-04  -1.198386e-03  0 
 2.125491e-04  -1.197829e-03  0 
 5.144518e-04  -1.219035e-03  0 
 9.044229e-04  -1.257231e-03  0 
VECTORS displacement_ITER25 FLOAT
 -4.937105e-04  -4.174628e-04  0 
 -8.979574e-04  -1.262294e-03  0 
 -2.296255e-04  -3.721052e-04  0 
 -9.085801e-05  -4.011187e-04  0 
 1.225259e-04  -4.059414e-04  0 
 2.668004e-04  -4.508604e-04  0 
 4.735929e-04  -4.945978e-04  0 
 -4.939208e-04  -1.225657e-03  0 
 -1.809098e-04  -1.198386e-03  0 
 2.125491e-04  -1.197829e-03  0 
 5.144518e-04  -1.219035e-03  0 
 9.044229e-04  -1.257231e-03  0 
CELL_DATA 5
TENSORS element_stresses FLOAT
 -6.670840e-01  -2.159882e-02  0 
 -2.159882e-02  4.861193e-03  0 
 0  0  0 

 -3.908292e-02  -4.010562e-02  0 
 -4.010562e-02  -1.216065e-02  0 
 0  0  0 

 -3.546561e-03  -5.542152e-02  0 
 -5.542152e-02  -1.172664e-02  0 
 0  0  0 

 3.165720e-02  -3.420148e-02  0 
 -3.420148e-02  -7.034220e-03  0 
 0  0  0 

 6.780563e-01  -2.992255e-02  0 
 -2.992255e-02  -1.416863e-03  0 
 0  0  0 

TENSORS element_stresses FLOAT
 -6.670840e-01  -2.159882e-02  0 
 -2.159882e-02  4.861193e-03  0 
 0  0  0 

 -3.908292e-02  -4.010562e-02  0 
 -4.010562e-02  -1.216065e-02  0 
 0  0  0 

 -3.546561e-03  -5.542152e-02  0 
 -5.542152e-02  -1.172664e-02  0 
 0  0  0 

 3.165720e-02  -3.420148e-02  0 
 -3.420148e-02  -7.034220e-03  0 
 0  0  0 

 6.780563e-01  -2.992255e-02  0 
 -2.992255e-02  -1.416863e-03  0 
 0  0  0 

