# vtk DataFile Version 3.1
this is an vtk file created by FEMAC
ASCII
DATASET UNSTRUCTURED_GRID
POINTS 12 FLOAT
1.500000 0.000000 0.000000
2.000000 0.000000 0.000000
1.500000 0.200000 0.000000
1.500000 0.400000 0.000000
1.500000 0.600000 0.000000
1.500000 0.800000 0.000000
1.500000 1.000000 0.000000
2.000000 0.200000 0.000000
2.000000 0.400000 0.000000
2.000000 0.600000 0.000000
2.000000 0.800000 0.000000
2.000000 1.000000 0.000000
CELLS 5 25 
4 0 1 7 2
4 2 7 8 3
4 3 8 9 4
4 4  9 10  5
4 5 10 11  6
CELL_TYPES 5
9 9 9 9 9 
POINT_DATA 12
VECTORS displacement_ITER1 FLOAT
 -1.271968e-03  -2.450695e-03  0 
 -1.580893e-03  -3.969251e-03  0 
 -7.191240e-04  -2.419971e-03  0 
 -2.773330e-04  -2.378650e-03  0 
 2.952000e-04  -2.378650e-03  0 
 7.369910e-04  -2.419971e-03  0 
 1.289835e-03  -2.450695e-03  0 
 -9.311633e-04  -3.937427e-03  0 
 -3.214029e-04  -3.946502e-03  0 
 3.392700e-04  -3.946502e-03  0 
 9.490303e-04  -3.937427e-03  0 
 1.598760e-03  -3.969251e-03  0 
VECTORS displacement_ITER2 FLOAT
 -1.233320e-03  -2.488340e-03  0 
 -1.546884e-03  -3.918878e-03  0 
 -7.238478e-04  -2.454375e-03  0 
 -2.887187e-04  -2.374188e-03  0 
 2.691062e-04  -2.368930e-03  0 
 7.284797e-04  -2.357951e-03  0 
 1.308983e-03  -2.387725e-03  0 
 -9.236059e-04  -3.890352e-03  0 
 -3.423522e-04  -3.920096e-03  0 
 3.184093e-04  -3.922831e-03  0 
 9.326928e-04  -3.950465e-03  0 
 1.616833e-03  -3.981646e-03  0 
VECTORS displacement_ITER3 FLOAT
 -1.265246e-03  -2.425802e-03  0 
 -1.579367e-03  -3.966216e-03  0 
 -7.149417e-04  -2.393928e-03  0 
 -2.512541e-04  -2.377139e-03  0 
 2.917122e-04  -2.376683e-03  0 
 7.320747e-04  -2.399080e-03  0 
 1.267279e-03  -2.431657e-03  0 
 -9.073476e-04  -3.936409e-03  0 
 -3.106659e-04  -3.904514e-03  0 
 3.465053e-04  -3.902599e-03  0 
 9.284113e-04  -3.898491e-03  0 
 1.577142e-03  -3.926320e-03  0 
VECTORS displacement_ITER4 FLOAT
 -1.255501e-03  -2.440204e-03  0 
 -1.568480e-03  -3.952553e-03  0 
 -7.165137e-04  -2.407705e-03  0 
 -2.579403e-04  -2.383721e-03  0 
 2.824345e-04  -2.382445e-03  0 
 7.315745e-04  -2.393111e-03  0 
 1.275426e-03  -2.425316e-03  0 
 -9.079745e-04  -3.923893e-03  0 
 -3.181691e-04  -3.906218e-03  0 
 3.389873e-04  -3.905947e-03  0 
 9.252852e-04  -3.918627e-03  0 
 1.586952e-03  -3.946930e-03  0 
VECTORS displacement_ITER5 FLOAT
 -1.253231e-03  -2.449703e-03  0 
 -1.565751e-03  -3.954551e-03  0 
 -7.177338e-04  -2.416865e-03  0 
 -2.591583e-04  -2.391576e-03  0 
 2.798759e-04  -2.390246e-03  0 
 7.330417e-04  -2.399645e-03  0 
 1.276273e-03  -2.431947e-03  0 
 -9.077476e-04  -3.926559e-03  0 
 -3.206691e-04  -3.913319e-03  0 
 3.375728e-04  -3.913308e-03  0 
 9.246842e-04  -3.927867e-03  0 
 1.588777e-03  -3.955967e-03  0 
VECTORS displacement_ITER6 FLOAT
 -1.254934e-03  -2.449963e-03  0 
 -1.567321e-03  -3.959106e-03  0 
 -7.178622e-04  -2.417110e-03  0 
 -2.576950e-04  -2.394081e-03  0 
 2.809272e-04  -2.393046e-03  0 
 7.340665e-04  -2.405536e-03  0 
 1.274174e-03  -2.438058e-03  0 
 -9.071637e-04  -3.931240e-03  0 
 -3.198231e-04  -3.916622e-03  0 
 3.391216e-04  -3.916371e-03  0 
 9.247646e-04  -3.928085e-03  0 
 1.587099e-03  -3.955908e-03  0 
VECTORS displacement_ITER7 FLOAT
 -1.255565e-03  -2.449018e-03  0 
 -1.567870e-03  -3.959892e-03  0 
 -7.177499e-04  -2.416143e-03  0 
 -2.573275e-04  -2.393941e-03  0 
 2.810782e-04  -2.393018e-03  0 
 7.343080e-04  -2.406490e-03  0 
 1.273725e-03  -2.439079e-03  0 
 -9.068292e-04  -3.932075e-03  0 
 -3.196736e-04  -3.916922e-03  0 
 3.395318e-04  -3.916621e-03  0 
 9.246006e-04  -3.927985e-03  0 
 1.586857e-03  -3.955737e-03  0 
VECTORS displacement_ITER8 FLOAT
 -1.255327e-03  -2.448928e-03  0 
 -1.567589e-03  -3.959245e-03  0 
 -7.176892e-04  -2.416000e-03  0 
 -2.576451e-04  -2.393597e-03  0 
 2.805525e-04  -2.392655e-03  0 
 7.342660e-04  -2.405616e-03  0 
 1.274246e-03  -2.438186e-03  0 
 -9.067147e-04  -3.931477e-03  0 
 -3.201033e-04  -3.916561e-03  0 
 3.391752e-04  -3.916313e-03  0 
 9.244019e-04  -3.928572e-03  0 
 1.587437e-03  -3.956340e-03  0 
VECTORS displacement_ITER9 FLOAT
 -1.255151e-03  -2.449134e-03  0 
 -1.567407e-03  -3.959060e-03  0 
 -7.176566e-04  -2.416171e-03  0 
 -2.578355e-04  -2.393630e-03  0 
 2.802040e-04  -2.392660e-03  0 
 7.342061e-04  -2.405079e-03  0 
 1.274637e-03  -2.437627e-03  0 
 -9.066877e-04  -3.931313e-03  0 
 -3.203705e-04  -3.916446e-03  0 
 3.389326e-04  -3.916225e-03  0 
 9.243280e-04  -3.929025e-03  0 
 1.587784e-03  -3.956802e-03  0 
VECTORS displacement_ITER10 FLOAT
 -1.255226e-03  -2.449222e-03  0 
 -1.567486e-03  -3.959433e-03  0 
 -7.176060e-04  -2.416245e-03  0 
 -2.578005e-04  -2.393836e-03  0 
 2.801302e-04  -2.392862e-03  0 
 7.341702e-04  -2.405060e-03  0 
 1.274748e-03  -2.437604e-03  0 
 -9.066616e-04  -3.931684e-03  0 
 -3.204063e-04  -3.916584e-03  0 
 3.389514e-04  -3.916355e-03  0 
 9.243241e-04  -3.929206e-03  0 
 1.587810e-03  -3.956969e-03  0 
VECTORS displacement_ITER11 FLOAT
 -1.255347e-03  -2.449180e-03  0 
 -1.567608e-03  -3.959724e-03  0 
 -7.175727e-04  -2.416198e-03  0 
 -2.577302e-04  -2.393878e-03  0 
 2.802197e-04  -2.392910e-03  0 
 7.341587e-04  -2.405202e-03  0 
 1.274695e-03  -2.437756e-03  0 
 -9.066554e-04  -3.931970e-03  0 
 -3.203618e-04  -3.916755e-03  0 
 3.390825e-04  -3.916513e-03  0 
 9.243439e-04  -3.929152e-03  0 
 1.587706e-03  -3.956895e-03  0 
VECTORS displacement_ITER12 FLOAT
 -1.255309e-03  -2.449237e-03  0 
 -1.567567e-03  -3.959620e-03  0 
 -7.175819e-04  -2.416243e-03  0 
 -2.577867e-04  -2.393769e-03  0 
 2.802315e-04  -2.392794e-03  0 
 7.341570e-04  -2.405143e-03  0 
 1.274722e-03  -2.437705e-03  0 
 -9.066888e-04  -3.931874e-03  0 
 -3.204159e-04  -3.916802e-03  0 
 3.391010e-04  -3.916565e-03  0 
 9.243638e-04  -3.929120e-03  0 
 1.587716e-03  -3.956854e-03  0 
VECTORS displacement_ITER13 FLOAT
 -1.255305e-03  -2.449241e-03  0 
 -1.567562e-03  -3.959597e-03  0 
 -7.175836e-04  -2.416245e-03  0 
 -2.577946e-04  -2.393743e-03  0 
 2.802390e-04  -2.392767e-03  0 
 7.341572e-04  -2.405136e-03  0 
 1.274722e-03  -2.437701e-03  0 
 -9.066989e-04  -3.931852e-03  0 
 -3.204206e-04  -3.916804e-03  0 
 3.391076e-04  -3.916567e-03  0 
 9.243707e-04  -3.929105e-03  0 
 1.587713e-03  -3.956837e-03  0 
VECTORS displacement_ITER14 FLOAT
 -1.255315e-03  -2.449226e-03  0 
 -1.567569e-03  -3.959595e-03  0 
 -7.175813e-04  -2.416228e-03  0 
 -2.577887e-04  -2.393731e-03  0 
 2.802510e-04  -2.392755e-03  0 
 7.341561e-04  -2.405143e-03  0 
 1.274713e-03  -2.437712e-03  0 
 -9.067068e-04  -3.931850e-03  0 
 -3.204096e-04  -3.916794e-03  0 
 3.391168e-04  -3.916558e-03  0 
 9.243768e-04  -3.929089e-03  0 
 1.587704e-03  -3.956819e-03  0 
VECTORS displacement_ITER15 FLOAT
 -1.255318e-03  -2.449219e-03  0 
 -1.567571e-03  -3.959595e-03  0 
 -7.175791e-04  -2.416221e-03  0 
 -2.577856e-04  -2.393732e-03  0 
 2.802514e-04  -2.392756e-03  0 
 7.341540e-04  -2.405142e-03  0 
 1.274712e-03  -2.437711e-03  0 
 -9.067077e-04  -3.931851e-03  0 
 -3.204053e-04  -3.916787e-03  0 
 3.391166e-04  -3.916551e-03  0 
 9.243767e-04  -3.929090e-03  0 
 1.587704e-03  -3.956820e-03  0 
VECTORS displacement_ITER16 FLOAT
 -1.255320e-03  -2.449214e-03  0 
 -1.567571e-03  -3.959594e-03  0 
 -7.175770e-04  -2.416216e-03  0 
 -2.577835e-04  -2.393736e-03  0 
 2.802483e-04  -2.392760e-03  0 
 7.341516e-04  -2.405136e-03  0 
 1.274715e-03  -2.437706e-03  0 
 -9.067081e-04  -3.931850e-03  0 
 -3.204029e-04  -3.916779e-03  0 
 3.391137e-04  -3.916544e-03  0 
 9.243755e-04  -3.929095e-03  0 
 1.587706e-03  -3.956825e-03  0 
VECTORS displacement_ITER17 FLOAT
 -1.255320e-03  -2.449213e-03  0 
 -1.567570e-03  -3.959591e-03  0 
 -7.175770e-04  -2.416215e-03  0 
 -2.577828e-04  -2.393736e-03  0 
 2.802476e-04  -2.392760e-03  0 
 7.341516e-04  -2.405136e-03  0 
 1.274715e-03  -2.437706e-03  0 
 -9.067088e-04  -3.931848e-03  0 
 -3.204024e-04  -3.916777e-03  0 
 3.391133e-04  -3.916541e-03  0 
 9.243759e-04  -3.929095e-03  0 
 1.587706e-03  -3.956825e-03  0 
VECTORS displacement_ITER18 FLOAT
 -1.255320e-03  -2.449214e-03  0 
 -1.567570e-03  -3.959590e-03  0 
 -7.175778e-04  -2.416215e-03  0 
 -2.577825e-04  -2.393736e-03  0 
 2.802477e-04  -2.392760e-03  0 
 7.341523e-04  -2.405137e-03  0 
 1.274714e-03  -2.437708e-03  0 
 -9.067097e-04  -3.931847e-03  0 
 -3.204025e-04  -3.916776e-03  0 
 3.391137e-04  -3.916541e-03  0 
 9.243766e-04  -3.929093e-03  0 
 1.587706e-03  -3.956822e-03  0 
VECTORS displacement_ITER19 FLOAT
 -1.255320e-03  -2.449214e-03  0 
 -1.567570e-03  -3.959590e-03  0 
 -7.175779e-04  -2.416216e-03  0 
 -2.577824e-04  -2.393736e-03  0 
 2.802478e-04  -2.392760e-03  0 
 7.341525e-04  -2.405137e-03  0 
 1.274714e-03  -2.437708e-03  0 
 -9.067098e-04  -3.931846e-03  0 
 -3.204026e-04  -3.916777e-03  0 
 3.391140e-04  -3.916541e-03  0 
 9.243768e-04  -3.929093e-03  0 
 1.587705e-03  -3.956822e-03  0 
VECTORS displacement_ITER20 FLOAT
 -1.255320e-03  -2.449214e-03  0 
 -1.567569e-03  -3.959590e-03  0 
 -7.175777e-04  -2.416216e-03  0 
 -2.577825e-04  -2.393736e-03  0 
 2.802476e-04  -2.392760e-03  0 
 7.341523e-04  -2.405136e-03  0 
 1.274714e-03  -2.437707e-03  0 
 -9.067096e-04  -3.931847e-03  0 
 -3.204028e-04  -3.916777e-03  0 
 3.391139e-04  -3.916541e-03  0 
 9.243766e-04  -3.929093e-03  0 
 1.587706e-03  -3.956822e-03  0 
VECTORS displacement_ITER21 FLOAT
 -1.255320e-03  -2.449214e-03  0 
 -1.567569e-03  -3.959590e-03  0 
 -7.175777e-04  -2.416216e-03  0 
 -2.577825e-04  -2.393736e-03  0 
 2.802476e-04  -2.392760e-03  0 
 7.341522e-04  -2.405136e-03  0 
 1.274715e-03  -2.437707e-03  0 
 -9.067095e-04  -3.931847e-03  0 
 -3.204030e-04  -3.916777e-03  0 
 3.391139e-04  -3.916541e-03  0 
 9.243766e-04  -3.929093e-03  0 
 1.587706e-03  -3.956822e-03  0 
VECTORS displacement_ITER22 FLOAT
 -1.255320e-03  -2.449214e-03  0 
 -1.567569e-03  -3.959590e-03  0 
 -7.175777e-04  -2.416216e-03  0 
 -2.577825e-04  -2.393736e-03  0 
 2.802476e-04  -2.392760e-03  0 
 7.341523e-04  -2.405136e-03  0 
 1.274714e-03  -2.437707e-03  0 
 -9.067096e-04  -3.931847e-03  0 
 -3.204030e-04  -3.916777e-03  0 
 3.391139e-04  -3.916541e-03  0 
 9.243766e-04  -3.929093e-03  0 
 1.587706e-03  -3.956822e-03  0 
VECTORS displacement_ITER23 FLOAT
 -1.255320e-03  -2.449214e-03  0 
 -1.567569e-03  -3.959590e-03  0 
 -7.175777e-04  -2.416216e-03  0 
 -2.577825e-04  -2.393736e-03  0 
 2.802476e-04  -2.392760e-03  0 
 7.341523e-04  -2.405136e-03  0 
 1.274714e-03  -2.437707e-03  0 
 -9.067096e-04  -3.931847e-03  0 
 -3.204030e-04  -3.916777e-03  0 
 3.391139e-04  -3.916541e-03  0 
 9.243766e-04  -3.929093e-03  0 
 1.587706e-03  -3.956822e-03  0 
VECTORS displacement_ITER24 FLOAT
 -1.255320e-03  -2.449214e-03  0 
 -1.567569e-03  -3.959590e-03  0 
 -7.175777e-04  -2.416216e-03  0 
 -2.577825e-04  -2.393736e-03  0 
 2.802476e-04  -2.392760e-03  0 
 7.341523e-04  -2.405136e-03  0 
 1.274714e-03  -2.437707e-03  0 
 -9.067096e-04  -3.931847e-03  0 
 -3.204030e-04  -3.916777e-03  0 
 3.391139e-04  -3.916541e-03  0 
 9.243766e-04  -3.929093e-03  0 
 1.587706e-03  -3.956822e-03  0 
VECTORS displacement_ITER25 FLOAT
 -1.255320e-03  -2.449214e-03  0 
 -1.567569e-03  -3.959590e-03  0 
 -7.175777e-04  -2.416216e-03  0 
 -2.577825e-04  -2.393736e-03  0 
 2.802476e-04  -2.392760e-03  0 
 7.341523e-04  -2.405136e-03  0 
 1.274714e-03  -2.437707e-03  0 
 -9.067096e-04  -3.931847e-03  0 
 -3.204030e-04  -3.916777e-03  0 
 3.391139e-04  -3.916541e-03  0 
 9.243766e-04  -3.929093e-03  0 
 1.587706e-03  -3.956822e-03  0 
CELL_DATA 5
TENSORS element_stresses FLOAT
 -5.009069e-01  -2.269398e-02  0 
 -2.269398e-02  1.582322e-03  0 
 0  0  0 

 -2.457031e-02  -3.257057e-02  0 
 -3.257057e-02  2.016407e-03  0 
 0  0  0 

 -3.127199e-03  -4.073475e-02  0 
 -4.073475e-02  2.089894e-03  0 
 0  0  0 

 2.531807e-02  -3.460152e-02  0 
 -3.460152e-02  1.363346e-03  0 
 0  0  0 

 5.032863e-01  -2.564918e-02  0 
 -2.564918e-02  2.360808e-04  0 
 0  0  0 

TENSORS element_stresses FLOAT
 -5.009069e-01  -2.269398e-02  0 
 -2.269398e-02  1.582322e-03  0 
 0  0  0 

 -2.457031e-02  -3.257057e-02  0 
 -3.257057e-02  2.016407e-03  0 
 0  0  0 

 -3.127199e-03  -4.073475e-02  0 
 -4.073475e-02  2.089894e-03  0 
 0  0  0 

 2.531807e-02  -3.460152e-02  0 
 -3.460152e-02  1.363346e-03  0 
 0  0  0 

 5.032863e-01  -2.564918e-02  0 
 -2.564918e-02  2.360808e-04  0 
 0  0  0 

