# vtk DataFile Version 3.1
this is an vtk file created by FEMAC
ASCII
DATASET UNSTRUCTURED_GRID
POINTS 12 FLOAT
2.500000 0.000000 0.000000
3.000000 0.000000 0.000000
2.500000 0.200000 0.000000
2.500000 0.400000 0.000000
2.500000 0.600000 0.000000
2.500000 0.800000 0.000000
2.500000 1.000000 0.000000
3.000000 0.200000 0.000000
3.000000 0.400000 0.000000
3.000000 0.600000 0.000000
3.000000 0.800000 0.000000
3.000000 1.000000 0.000000
CELLS 5 25 
4 0 1 7 2
4 2 7 8 3
4 3 8 9 4
4 4  9 10  5
4 5 10 11  6
CELL_TYPES 5
9 9 9 9 9 
POINT_DATA 12
VECTORS displacement_ITER1 FLOAT
 -1.856254e-03  -5.795876e-03  0 
 -2.074400e-03  -7.840016e-03  0 
 -1.077875e-03  -5.774238e-03  0 
 -3.883136e-04  -5.741470e-03  0 
 4.061807e-04  -5.741470e-03  0 
 1.095742e-03  -5.774238e-03  0 
 1.874121e-03  -5.795876e-03  0 
 -1.227773e-03  -7.817455e-03  0 
 -4.191874e-04  -7.827019e-03  0 
 4.370545e-04  -7.827019e-03  0 
 1.245640e-03  -7.817455e-03  0 
 2.092267e-03  -7.840016e-03  0 
VECTORS displacement_ITER2 FLOAT
 -1.843418e-03  -5.761177e-03  0 
 -2.062579e-03  -7.797382e-03  0 
 -1.071870e-03  -5.738732e-03  0 
 -3.804121e-04  -5.715512e-03  0 
 3.987312e-04  -5.715512e-03  0 
 1.090189e-03  -5.738732e-03  0 
 1.861737e-03  -5.761177e-03  0 
 -1.214777e-03  -7.776308e-03  0 
 -4.168553e-04  -7.776838e-03  0 
 4.351744e-04  -7.776838e-03  0 
 1.233096e-03  -7.776308e-03  0 
 2.080898e-03  -7.797382e-03  0 
VECTORS displacement_ITER3 FLOAT
 -1.845665e-03  -5.726466e-03  0 
 -2.064546e-03  -7.792699e-03  0 
 -1.063955e-03  -5.704499e-03  0 
 -3.666314e-04  -5.710887e-03  0 
 3.986250e-04  -5.712705e-03  0 
 1.087488e-03  -5.737946e-03  0 
 1.844607e-03  -5.761358e-03  0 
 -1.202467e-03  -7.771939e-03  0 
 -4.065227e-04  -7.749511e-03  0 
 4.400088e-04  -7.748563e-03  0 
 1.224489e-03  -7.751095e-03  0 
 2.065436e-03  -7.770936e-03  0 
VECTORS displacement_ITER4 FLOAT
 -1.828313e-03  -5.753339e-03  0 
 -2.047995e-03  -7.772647e-03  0 
 -1.066679e-03  -5.730105e-03  0 
 -3.780293e-04  -5.714550e-03  0 
 3.858262e-04  -5.714076e-03  0 
 1.084439e-03  -5.717419e-03  0 
 1.859040e-03  -5.739938e-03  0 
 -1.203768e-03  -7.753099e-03  0 
 -4.190279e-04  -7.749720e-03  0 
 4.277511e-04  -7.750634e-03  0 
 1.220882e-03  -7.771845e-03  0 
 2.079323e-03  -7.792319e-03  0 
VECTORS displacement_ITER5 FLOAT
 -1.832427e-03  -5.752964e-03  0 
 -2.053004e-03  -7.784721e-03  0 
 -1.066696e-03  -5.729735e-03  0 
 -3.730998e-04  -5.717271e-03  0 
 3.907279e-04  -5.717254e-03  0 
 1.085533e-03  -5.728717e-03  0 
 1.852354e-03  -5.751827e-03  0 
 -1.202452e-03  -7.765061e-03  0 
 -4.151353e-04  -7.754968e-03  0 
 4.330041e-04  -7.754915e-03  0 
 1.221674e-03  -7.764476e-03  0 
 2.071963e-03  -7.784104e-03  0 
VECTORS displacement_ITER6 FLOAT
 -1.832714e-03  -5.753595e-03  0 
 -2.053247e-03  -7.785599e-03  0 
 -1.066930e-03  -5.730307e-03  0 
 -3.724177e-04  -5.718050e-03  0 
 3.912620e-04  -5.718121e-03  0 
 1.085743e-03  -5.731452e-03  0 
 1.851230e-03  -5.754759e-03  0 
 -1.202373e-03  -7.766062e-03  0 
 -4.146924e-04  -7.756329e-03  0 
 4.339558e-04  -7.756290e-03  0 
 1.221423e-03  -7.764897e-03  0 
 2.071005e-03  -7.784339e-03  0 
VECTORS displacement_ITER7 FLOAT
 -1.832219e-03  -5.753954e-03  0 
 -2.052723e-03  -7.784557e-03  0 
 -1.067075e-03  -5.730613e-03  0 
 -3.725937e-04  -5.718133e-03  0 
 3.906858e-04  -5.718136e-03  0 
 1.085644e-03  -5.730506e-03  0 
 1.851694e-03  -5.753820e-03  0 
 -1.202320e-03  -7.765105e-03  0 
 -4.150345e-04  -7.755747e-03  0 
 4.335523e-04  -7.755807e-03  0 
 1.221077e-03  -7.765805e-03  0 
 2.071586e-03  -7.785250e-03  0 
VECTORS displacement_ITER8 FLOAT
 -1.832279e-03  -5.753821e-03  0 
 -2.052816e-03  -7.784711e-03  0 
 -1.067150e-03  -5.730472e-03  0 
 -3.723624e-04  -5.718365e-03  0 
 3.905965e-04  -5.718355e-03  0 
 1.085681e-03  -5.730283e-03  0 
 1.851671e-03  -5.753609e-03  0 
 -1.202188e-03  -7.765284e-03  0 
 -4.149662e-04  -7.755400e-03  0 
 4.335318e-04  -7.755447e-03  0 
 1.220954e-03  -7.765800e-03  0 
 2.071610e-03  -7.785221e-03  0 
VECTORS displacement_ITER9 FLOAT
 -1.832444e-03  -5.753907e-03  0 
 -2.052985e-03  -7.785223e-03  0 
 -1.067224e-03  -5.730557e-03  0 
 -3.721486e-04  -5.718771e-03  0 
 3.906954e-04  -5.718780e-03  0 
 1.085808e-03  -5.730830e-03  0 
 1.851465e-03  -5.754180e-03  0 
 -1.202116e-03  -7.765816e-03  0 
 -4.148524e-04  -7.755660e-03  0 
 4.336789e-04  -7.755681e-03  0 
 1.220943e-03  -7.765877e-03  0 
 2.071462e-03  -7.785265e-03  0 
VECTORS displacement_ITER10 FLOAT
 -1.832459e-03  -5.754281e-03  0 
 -2.052977e-03  -7.785534e-03  0 
 -1.067303e-03  -5.730920e-03  0 
 -3.721267e-04  -5.719194e-03  0 
 3.907026e-04  -5.719218e-03  0 
 1.085934e-03  -5.731440e-03  0 
 1.851381e-03  -5.754809e-03  0 
 -1.202085e-03  -7.766162e-03  0 
 -4.148950e-04  -7.756158e-03  0 
 4.337378e-04  -7.756182e-03  0 
 1.220919e-03  -7.766316e-03  0 
 2.071466e-03  -7.785683e-03  0 
VECTORS displacement_ITER11 FLOAT
 -1.832381e-03  -5.754485e-03  0 
 -2.052885e-03  -7.785495e-03  0 
 -1.067324e-03  -5.731111e-03  0 
 -3.722244e-04  -5.719278e-03  0 
 3.906297e-04  -5.719301e-03  0 
 1.085962e-03  -5.731527e-03  0 
 1.851451e-03  -5.754899e-03  0 
 -1.202067e-03  -7.766145e-03  0 
 -4.150079e-04  -7.756349e-03  0 
 4.336832e-04  -7.756386e-03  0 
 1.220881e-03  -7.766627e-03  0 
 2.071583e-03  -7.785993e-03  0 
VECTORS displacement_ITER12 FLOAT
 -1.832403e-03  -5.754415e-03  0 
 -2.052913e-03  -7.785511e-03  0 
 -1.067313e-03  -5.731036e-03  0 
 -3.722206e-04  -5.719222e-03  0 
 3.906353e-04  -5.719247e-03  0 
 1.085965e-03  -5.731489e-03  0 
 1.851449e-03  -5.754865e-03  0 
 -1.202046e-03  -7.766163e-03  0 
 -4.150058e-04  -7.756313e-03  0 
 4.336874e-04  -7.756347e-03  0 
 1.220873e-03  -7.766591e-03  0 
 2.071587e-03  -7.785954e-03  0 
VECTORS displacement_ITER13 FLOAT
 -1.832407e-03  -5.754406e-03  0 
 -2.052919e-03  -7.785524e-03  0 
 -1.067310e-03  -5.731026e-03  0 
 -3.722184e-04  -5.719224e-03  0 
 3.906310e-04  -5.719250e-03  0 
 1.085963e-03  -5.731479e-03  0 
 1.851454e-03  -5.754855e-03  0 
 -1.202042e-03  -7.766176e-03  0 
 -4.150044e-04  -7.756305e-03  0 
 4.336843e-04  -7.756338e-03  0 
 1.220871e-03  -7.766593e-03  0 
 2.071591e-03  -7.785955e-03  0 
VECTORS displacement_ITER14 FLOAT
 -1.832408e-03  -5.754416e-03  0 
 -2.052920e-03  -7.785543e-03  0 
 -1.067306e-03  -5.731035e-03  0 
 -3.722177e-04  -5.719248e-03  0 
 3.906183e-04  -5.719273e-03  0 
 1.085960e-03  -5.731472e-03  0 
 1.851467e-03  -5.754847e-03  0 
 -1.202040e-03  -7.766196e-03  0 
 -4.150059e-04  -7.756306e-03  0 
 4.336756e-04  -7.756339e-03  0 
 1.220870e-03  -7.766616e-03  0 
 2.071600e-03  -7.785978e-03  0 
VECTORS displacement_ITER15 FLOAT
 -1.832409e-03  -5.754419e-03  0 
 -2.052921e-03  -7.785549e-03  0 
 -1.067305e-03  -5.731037e-03  0 
 -3.722169e-04  -5.719253e-03  0 
 3.906157e-04  -5.719278e-03  0 
 1.085959e-03  -5.731469e-03  0 
 1.851470e-03  -5.754845e-03  0 
 -1.202040e-03  -7.766202e-03  0 
 -4.150063e-04  -7.756308e-03  0 
 4.336750e-04  -7.756341e-03  0 
 1.220870e-03  -7.766620e-03  0 
 2.071601e-03  -7.785982e-03  0 
VECTORS displacement_ITER16 FLOAT
 -1.832411e-03  -5.754418e-03  0 
 -2.052923e-03  -7.785551e-03  0 
 -1.067304e-03  -5.731035e-03  0 
 -3.722159e-04  -5.719252e-03  0 
 3.906160e-04  -5.719277e-03  0 
 1.085958e-03  -5.731467e-03  0 
 1.851471e-03  -5.754843e-03  0 
 -1.202040e-03  -7.766204e-03  0 
 -4.150069e-04  -7.756311e-03  0 
 4.336772e-04  -7.756344e-03  0 
 1.220871e-03  -7.766616e-03  0 
 2.071599e-03  -7.785976e-03  0 
VECTORS displacement_ITER17 FLOAT
 -1.832411e-03  -5.754418e-03  0 
 -2.052923e-03  -7.785549e-03  0 
 -1.067304e-03  -5.731035e-03  0 
 -3.722159e-04  -5.719249e-03  0 
 3.906170e-04  -5.719274e-03  0 
 1.085958e-03  -5.731466e-03  0 
 1.851471e-03  -5.754842e-03  0 
 -1.202041e-03  -7.766203e-03  0 
 -4.150072e-04  -7.756312e-03  0 
 4.336788e-04  -7.756345e-03  0 
 1.220872e-03  -7.766613e-03  0 
 2.071598e-03  -7.785973e-03  0 
VECTORS displacement_ITER18 FLOAT
 -1.832411e-03  -5.754418e-03  0 
 -2.052922e-03  -7.785547e-03  0 
 -1.067304e-03  -5.731034e-03  0 
 -3.722167e-04  -5.719247e-03  0 
 3.906175e-04  -5.719272e-03  0 
 1.085958e-03  -5.731466e-03  0 
 1.851471e-03  -5.754842e-03  0 
 -1.202042e-03  -7.766200e-03  0 
 -4.150078e-04  -7.756312e-03  0 
 4.336795e-04  -7.756345e-03  0 
 1.220873e-03  -7.766611e-03  0 
 2.071597e-03  -7.785971e-03  0 
VECTORS displacement_ITER19 FLOAT
 -1.832411e-03  -5.754417e-03  0 
 -2.052922e-03  -7.785546e-03  0 
 -1.067304e-03  -5.731034e-03  0 
 -3.722168e-04  -5.719246e-03  0 
 3.906178e-04  -5.719271e-03  0 
 1.085958e-03  -5.731465e-03  0 
 1.851471e-03  -5.754842e-03  0 
 -1.202042e-03  -7.766200e-03  0 
 -4.150078e-04  -7.756312e-03  0 
 4.336798e-04  -7.756345e-03  0 
 1.220873e-03  -7.766611e-03  0 
 2.071597e-03  -7.785971e-03  0 
VECTORS displacement_ITER20 FLOAT
 -1.832411e-03  -5.754416e-03  0 
 -2.052922e-03  -7.785546e-03  0 
 -1.067304e-03  -5.731033e-03  0 
 -3.722166e-04  -5.719246e-03  0 
 3.906179e-04  -5.719270e-03  0 
 1.085958e-03  -5.731465e-03  0 
 1.851471e-03  -5.754842e-03  0 
 -1.202042e-03  -7.766200e-03  0 
 -4.150075e-04  -7.756311e-03  0 
 4.336798e-04  -7.756344e-03  0 
 1.220873e-03  -7.766611e-03  0 
 2.071597e-03  -7.785971e-03  0 
VECTORS displacement_ITER21 FLOAT
 -1.832411e-03  -5.754416e-03  0 
 -2.052922e-03  -7.785546e-03  0 
 -1.067304e-03  -5.731032e-03  0 
 -3.722165e-04  -5.719245e-03  0 
 3.906180e-04  -5.719270e-03  0 
 1.085957e-03  -5.731465e-03  0 
 1.851471e-03  -5.754842e-03  0 
 -1.202042e-03  -7.766200e-03  0 
 -4.150074e-04  -7.756311e-03  0 
 4.336798e-04  -7.756344e-03  0 
 1.220873e-03  -7.766611e-03  0 
 2.071597e-03  -7.785971e-03  0 
VECTORS displacement_ITER22 FLOAT
 -1.832411e-03  -5.754416e-03  0 
 -2.052922e-03  -7.785546e-03  0 
 -1.067304e-03  -5.731033e-03  0 
 -3.722165e-04  -5.719245e-03  0 
 3.906179e-04  -5.719270e-03  0 
 1.085958e-03  -5.731465e-03  0 
 1.851471e-03  -5.754842e-03  0 
 -1.202043e-03  -7.766199e-03  0 
 -4.150074e-04  -7.756311e-03  0 
 4.336798e-04  -7.756344e-03  0 
 1.220873e-03  -7.766611e-03  0 
 2.071597e-03  -7.785971e-03  0 
VECTORS displacement_ITER23 FLOAT
 -1.832411e-03  -5.754416e-03  0 
 -2.052922e-03  -7.785546e-03  0 
 -1.067304e-03  -5.731032e-03  0 
 -3.722165e-04  -5.719246e-03  0 
 3.906179e-04  -5.719270e-03  0 
 1.085958e-03  -5.731465e-03  0 
 1.851471e-03  -5.754842e-03  0 
 -1.202042e-03  -7.766199e-03  0 
 -4.150074e-04  -7.756311e-03  0 
 4.336798e-04  -7.756344e-03  0 
 1.220873e-03  -7.766611e-03  0 
 2.071597e-03  -7.785971e-03  0 
VECTORS displacement_ITER24 FLOAT
 -1.832411e-03  -5.754416e-03  0 
 -2.052922e-03  -7.785546e-03  0 
 -1.067304e-03  -5.731032e-03  0 
 -3.722165e-04  -5.719245e-03  0 
 3.906179e-04  -5.719270e-03  0 
 1.085958e-03  -5.731465e-03  0 
 1.851471e-03  -5.754842e-03  0 
 -1.202042e-03  -7.766199e-03  0 
 -4.150074e-04  -7.756311e-03  0 
 4.336798e-04  -7.756344e-03  0 
 1.220873e-03  -7.766611e-03  0 
 2.071597e-03  -7.785971e-03  0 
VECTORS displacement_ITER25 FLOAT
 -1.832411e-03  -5.754416e-03  0 
 -2.052922e-03  -7.785546e-03  0 
 -1.067304e-03  -5.731032e-03  0 
 -3.722165e-04  -5.719245e-03  0 
 3.906179e-04  -5.719270e-03  0 
 1.085958e-03  -5.731465e-03  0 
 1.851471e-03  -5.754842e-03  0 
 -1.202042e-03  -7.766199e-03  0 
 -4.150074e-04  -7.756311e-03  0 
 4.336798e-04  -7.756344e-03  0 
 1.220873e-03  -7.766611e-03  0 
 2.071597e-03  -7.785971e-03  0 
CELL_DATA 5
TENSORS element_stresses FLOAT
 -3.551677e-01  -2.025297e-02  0 
 -2.025297e-02  2.738401e-04  0 
 0  0  0 

 -1.772232e-02  -2.822511e-02  0 
 -2.822511e-02  1.021732e-04  0 
 0  0  0 

 2.501305e-04  -3.487291e-02  0 
 -3.487291e-02  -6.951264e-05  0 
 0  0  0 

 1.770670e-02  -2.814525e-02  0 
 -2.814525e-02  -3.033763e-04  0 
 0  0  0 

 3.549331e-01  -1.975376e-02  0 
 -1.975376e-02  -3.616056e-04  0 
 0  0  0 

TENSORS element_stresses FLOAT
 -3.551677e-01  -2.025297e-02  0 
 -2.025297e-02  2.738401e-04  0 
 0  0  0 

 -1.772232e-02  -2.822511e-02  0 
 -2.822511e-02  1.021732e-04  0 
 0  0  0 

 2.501305e-04  -3.487291e-02  0 
 -3.487291e-02  -6.951264e-05  0 
 0  0  0 

 1.770670e-02  -2.814525e-02  0 
 -2.814525e-02  -3.033763e-04  0 
 0  0  0 

 3.549331e-01  -1.975376e-02  0 
 -1.975376e-02  -3.616056e-04  0 
 0  0  0 

