# vtk DataFile Version 3.1
this is an vtk file created by FEMAC
ASCII
DATASET UNSTRUCTURED_GRID
POINTS 12 FLOAT
4.000000 0.000000 0.000000
4.500000 0.000000 0.000000
4.000000 0.200000 0.000000
4.000000 0.400000 0.000000
4.000000 0.600000 0.000000
4.000000 0.800000 0.000000
4.000000 1.000000 0.000000
4.500000 0.200000 0.000000
4.500000 0.400000 0.000000
4.500000 0.600000 0.000000
4.500000 0.800000 0.000000
4.500000 1.000000 0.000000
CELLS 5 25 
4 0 1 7 2
4 2 7 8 3
4 3 8 9 4
4 4  9 10  5
4 5 10 11  6
CELL_TYPES 5
9 9 9 9 9 
POINT_DATA 12
VECTORS displacement_ITER1 FLOAT
 -2.408374e-03  -1.250599e-02  0 
 -2.519954e-03  -1.502900e-02  0 
 -1.420166e-03  -1.249499e-02  0 
 -4.907318e-04  -1.247357e-02  0 
 5.085989e-04  -1.247357e-02  0 
 1.438033e-03  -1.249499e-02  0 
 2.426241e-03  -1.250599e-02  0 
 -1.497115e-03  -1.501734e-02  0 
 -5.061145e-04  -1.502616e-02  0 
 5.239815e-04  -1.502616e-02  0 
 1.514982e-03  -1.501734e-02  0 
 2.537821e-03  -1.502900e-02  0 
VECTORS displacement_ITER2 FLOAT
 -2.392329e-03  -1.243039e-02  0 
 -2.504299e-03  -1.494076e-02  0 
 -1.410701e-03  -1.241872e-02  0 
 -4.842549e-04  -1.240414e-02  0 
 5.025740e-04  -1.240414e-02  0 
 1.429020e-03  -1.241872e-02  0 
 2.410648e-03  -1.243039e-02  0 
 -1.484503e-03  -1.493006e-02  0 
 -5.023607e-04  -1.493245e-02  0 
 5.206798e-04  -1.493245e-02  0 
 1.502822e-03  -1.493006e-02  0 
 2.522619e-03  -1.494076e-02  0 
VECTORS displacement_ITER3 FLOAT
 -2.381852e-03  -1.239138e-02  0 
 -2.494081e-03  -1.489775e-02  0 
 -1.403018e-03  -1.237945e-02  0 
 -4.785755e-04  -1.237444e-02  0 
 4.973928e-04  -1.237444e-02  0 
 1.421835e-03  -1.237945e-02  0 
 2.400669e-03  -1.239138e-02  0 
 -1.474503e-03  -1.488755e-02  0 
 -4.987413e-04  -1.488087e-02  0 
 5.175586e-04  -1.488087e-02  0 
 1.493321e-03  -1.488755e-02  0 
 2.512898e-03  -1.489775e-02  0 
VECTORS displacement_ITER4 FLOAT
 -2.379842e-03  -1.238871e-02  0 
 -2.492149e-03  -1.489232e-02  0 
 -1.402328e-03  -1.237661e-02  0 
 -4.780914e-04  -1.237119e-02  0 
 4.968467e-04  -1.237118e-02  0 
 1.421157e-03  -1.237632e-02  0 
 2.398885e-03  -1.238841e-02  0 
 -1.473340e-03  -1.488233e-02  0 
 -4.986412e-04  -1.487600e-02  0 
 5.173840e-04  -1.487600e-02  0 
 1.492183e-03  -1.488251e-02  0 
 2.511175e-03  -1.489251e-02  0 
VECTORS displacement_ITER5 FLOAT
 -2.378282e-03  -1.238826e-02  0 
 -2.490821e-03  -1.488877e-02  0 
 -1.402427e-03  -1.237595e-02  0 
 -4.781948e-04  -1.236892e-02  0 
 4.966564e-04  -1.236892e-02  0 
 1.421052e-03  -1.237606e-02  0 
 2.397389e-03  -1.238837e-02  0 
 -1.472981e-03  -1.487903e-02  0 
 -4.989441e-04  -1.487433e-02  0 
 5.176263e-04  -1.487433e-02  0 
 1.491692e-03  -1.487903e-02  0 
 2.509602e-03  -1.488878e-02  0 
VECTORS displacement_ITER6 FLOAT
 -2.377931e-03  -1.238816e-02  0 
 -2.490395e-03  -1.488762e-02  0 
 -1.402264e-03  -1.237576e-02  0 
 -4.778145e-04  -1.236838e-02  0 
 4.967584e-04  -1.236836e-02  0 
 1.421080e-03  -1.237559e-02  0 
 2.396719e-03  -1.238798e-02  0 
 -1.472619e-03  -1.487797e-02  0 
 -4.988335e-04  -1.487353e-02  0 
 5.178077e-04  -1.487353e-02  0 
 1.491489e-03  -1.487803e-02  0 
 2.509070e-03  -1.488768e-02  0 
VECTORS displacement_ITER7 FLOAT
 -2.377956e-03  -1.238786e-02  0 
 -2.490305e-03  -1.488786e-02  0 
 -1.402135e-03  -1.237547e-02  0 
 -4.775921e-04  -1.236874e-02  0 
 4.965492e-04  -1.236873e-02  0 
 1.420908e-03  -1.237538e-02  0 
 2.396561e-03  -1.238777e-02  0 
 -1.472403e-03  -1.487822e-02  0 
 -4.988161e-04  -1.487310e-02  0 
 5.176134e-04  -1.487309e-02  0 
 1.491177e-03  -1.487803e-02  0 
 2.509042e-03  -1.488766e-02  0 
VECTORS displacement_ITER8 FLOAT
 -2.377901e-03  -1.238790e-02  0 
 -2.490270e-03  -1.488808e-02  0 
 -1.402077e-03  -1.237550e-02  0 
 -4.775186e-04  -1.236915e-02  0 
 4.963723e-04  -1.236915e-02  0 
 1.420825e-03  -1.237548e-02  0 
 2.396552e-03  -1.238788e-02  0 
 -1.472275e-03  -1.487846e-02  0 
 -4.987864e-04  -1.487307e-02  0 
 5.175344e-04  -1.487307e-02  0 
 1.491017e-03  -1.487834e-02  0 
 2.509023e-03  -1.488796e-02  0 
VECTORS displacement_ITER9 FLOAT
 -2.377802e-03  -1.238818e-02  0 
 -2.490207e-03  -1.488812e-02  0 
 -1.402102e-03  -1.237576e-02  0 
 -4.775378e-04  -1.236931e-02  0 
 4.963370e-04  -1.236931e-02  0 
 1.420856e-03  -1.237574e-02  0 
 2.396507e-03  -1.238816e-02  0 
 -1.472253e-03  -1.487852e-02  0 
 -4.988072e-04  -1.487327e-02  0 
 5.175645e-04  -1.487327e-02  0 
 1.490999e-03  -1.487849e-02  0 
 2.508960e-03  -1.488809e-02  0 
VECTORS displacement_ITER10 FLOAT
 -2.377705e-03  -1.238845e-02  0 
 -2.490135e-03  -1.488810e-02  0 
 -1.402155e-03  -1.237601e-02  0 
 -4.775823e-04  -1.236933e-02  0 
 4.963472e-04  -1.236933e-02  0 
 1.420910e-03  -1.237600e-02  0 
 2.396437e-03  -1.238844e-02  0 
 -1.472262e-03  -1.487852e-02  0 
 -4.988575e-04  -1.487348e-02  0 
 5.176079e-04  -1.487348e-02  0 
 1.491007e-03  -1.487852e-02  0 
 2.508894e-03  -1.488810e-02  0 
VECTORS displacement_ITER11 FLOAT
 -2.377687e-03  -1.238846e-02  0 
 -2.490128e-03  -1.488811e-02  0 
 -1.402154e-03  -1.237601e-02  0 
 -4.775832e-04  -1.236933e-02  0 
 4.963318e-04  -1.236933e-02  0 
 1.420904e-03  -1.237600e-02  0 
 2.396429e-03  -1.238844e-02  0 
 -1.472240e-03  -1.487853e-02  0 
 -4.988643e-04  -1.487346e-02  0 
 5.176031e-04  -1.487346e-02  0 
 1.490979e-03  -1.487853e-02  0 
 2.508891e-03  -1.488810e-02  0 
VECTORS displacement_ITER12 FLOAT
 -2.377703e-03  -1.238841e-02  0 
 -2.490149e-03  -1.488817e-02  0 
 -1.402129e-03  -1.237597e-02  0 
 -4.775512e-04  -1.236939e-02  0 
 4.963064e-04  -1.236939e-02  0 
 1.420880e-03  -1.237594e-02  0 
 2.396448e-03  -1.238839e-02  0 
 -1.472206e-03  -1.487859e-02  0 
 -4.988408e-04  -1.487341e-02  0 
 5.175901e-04  -1.487341e-02  0 
 1.490950e-03  -1.487858e-02  0 
 2.508903e-03  -1.488816e-02  0 
VECTORS displacement_ITER13 FLOAT
 -2.377699e-03  -1.238843e-02  0 
 -2.490144e-03  -1.488817e-02  0 
 -1.402131e-03  -1.237599e-02  0 
 -4.775474e-04  -1.236941e-02  0 
 4.963004e-04  -1.236941e-02  0 
 1.420880e-03  -1.237595e-02  0 
 2.396451e-03  -1.238839e-02  0 
 -1.472205e-03  -1.487860e-02  0 
 -4.988421e-04  -1.487342e-02  0 
 5.175885e-04  -1.487342e-02  0 
 1.490948e-03  -1.487860e-02  0 
 2.508905e-03  -1.488817e-02  0 
VECTORS displacement_ITER14 FLOAT
 -2.377704e-03  -1.238846e-02  0 
 -2.490148e-03  -1.488820e-02  0 
 -1.402141e-03  -1.237601e-02  0 
 -4.775356e-04  -1.236943e-02  0 
 4.963113e-04  -1.236943e-02  0 
 1.420893e-03  -1.237600e-02  0 
 2.396432e-03  -1.238845e-02  0 
 -1.472209e-03  -1.487862e-02  0 
 -4.988388e-04  -1.487346e-02  0 
 5.176035e-04  -1.487345e-02  0 
 1.490958e-03  -1.487858e-02  0 
 2.508885e-03  -1.488815e-02  0 
VECTORS displacement_ITER15 FLOAT
 -2.377688e-03  -1.238849e-02  0 
 -2.490132e-03  -1.488817e-02  0 
 -1.402147e-03  -1.237604e-02  0 
 -4.775464e-04  -1.236944e-02  0 
 4.963004e-04  -1.236944e-02  0 
 1.420894e-03  -1.237599e-02  0 
 2.396444e-03  -1.238844e-02  0 
 -1.472213e-03  -1.487860e-02  0 
 -4.988518e-04  -1.487346e-02  0 
 5.175942e-04  -1.487346e-02  0 
 1.490956e-03  -1.487860e-02  0 
 2.508898e-03  -1.488817e-02  0 
VECTORS displacement_ITER16 FLOAT
 -2.377698e-03  -1.238847e-02  0 
 -2.490142e-03  -1.488819e-02  0 
 -1.402147e-03  -1.237603e-02  0 
 -4.775372e-04  -1.236944e-02  0 
 4.963084e-04  -1.236944e-02  0 
 1.420897e-03  -1.237601e-02  0 
 2.396433e-03  -1.238846e-02  0 
 -1.472210e-03  -1.487862e-02  0 
 -4.988444e-04  -1.487346e-02  0 
 5.176032e-04  -1.487346e-02  0 
 1.490957e-03  -1.487859e-02  0 
 2.508888e-03  -1.488816e-02  0 
VECTORS displacement_ITER17 FLOAT
 -2.377695e-03  -1.238848e-02  0 
 -2.490140e-03  -1.488818e-02  0 
 -1.402147e-03  -1.237603e-02  0 
 -4.775392e-04  -1.236944e-02  0 
 4.963056e-04  -1.236944e-02  0 
 1.420897e-03  -1.237600e-02  0 
 2.396436e-03  -1.238845e-02  0 
 -1.472209e-03  -1.487861e-02  0 
 -4.988472e-04  -1.487346e-02  0 
 5.176005e-04  -1.487346e-02  0 
 1.490956e-03  -1.487860e-02  0 
 2.508892e-03  -1.488817e-02  0 
VECTORS displacement_ITER18 FLOAT
 -2.377694e-03  -1.238848e-02  0 
 -2.490139e-03  -1.488818e-02  0 
 -1.402147e-03  -1.237603e-02  0 
 -4.775403e-04  -1.236944e-02  0 
 4.963042e-04  -1.236944e-02  0 
 1.420896e-03  -1.237600e-02  0 
 2.396438e-03  -1.238845e-02  0 
 -1.472209e-03  -1.487861e-02  0 
 -4.988486e-04  -1.487346e-02  0 
 5.175993e-04  -1.487346e-02  0 
 1.490955e-03  -1.487860e-02  0 
 2.508895e-03  -1.488817e-02  0 
VECTORS displacement_ITER19 FLOAT
 -2.377696e-03  -1.238848e-02  0 
 -2.490140e-03  -1.488819e-02  0 
 -1.402147e-03  -1.237603e-02  0 
 -4.775395e-04  -1.236944e-02  0 
 4.963050e-04  -1.236944e-02  0 
 1.420897e-03  -1.237600e-02  0 
 2.396437e-03  -1.238845e-02  0 
 -1.472208e-03  -1.487862e-02  0 
 -4.988479e-04  -1.487347e-02  0 
 5.176002e-04  -1.487346e-02  0 
 1.490955e-03  -1.487860e-02  0 
 2.508894e-03  -1.488817e-02  0 
VECTORS displacement_ITER20 FLOAT
 -2.377696e-03  -1.238848e-02  0 
 -2.490140e-03  -1.488819e-02  0 
 -1.402147e-03  -1.237603e-02  0 
 -4.775396e-04  -1.236944e-02  0 
 4.963054e-04  -1.236944e-02  0 
 1.420897e-03  -1.237600e-02  0 
 2.396437e-03  -1.238845e-02  0 
 -1.472208e-03  -1.487862e-02  0 
 -4.988479e-04  -1.487347e-02  0 
 5.176005e-04  -1.487346e-02  0 
 1.490955e-03  -1.487860e-02  0 
 2.508894e-03  -1.488817e-02  0 
VECTORS displacement_ITER21 FLOAT
 -2.377695e-03  -1.238848e-02  0 
 -2.490140e-03  -1.488819e-02  0 
 -1.402147e-03  -1.237603e-02  0 
 -4.775400e-04  -1.236944e-02  0 
 4.963052e-04  -1.236944e-02  0 
 1.420897e-03  -1.237600e-02  0 
 2.396438e-03  -1.238845e-02  0 
 -1.472208e-03  -1.487862e-02  0 
 -4.988482e-04  -1.487347e-02  0 
 5.176003e-04  -1.487346e-02  0 
 1.490955e-03  -1.487860e-02  0 
 2.508894e-03  -1.488817e-02  0 
VECTORS displacement_ITER22 FLOAT
 -2.377696e-03  -1.238848e-02  0 
 -2.490140e-03  -1.488819e-02  0 
 -1.402147e-03  -1.237603e-02  0 
 -4.775399e-04  -1.236944e-02  0 
 4.963053e-04  -1.236944e-02  0 
 1.420897e-03  -1.237600e-02  0 
 2.396438e-03  -1.238845e-02  0 
 -1.472208e-03  -1.487862e-02  0 
 -4.988481e-04  -1.487347e-02  0 
 5.176004e-04  -1.487346e-02  0 
 1.490955e-03  -1.487860e-02  0 
 2.508894e-03  -1.488817e-02  0 
VECTORS displacement_ITER23 FLOAT
 -2.377696e-03  -1.238848e-02  0 
 -2.490140e-03  -1.488819e-02  0 
 -1.402147e-03  -1.237603e-02  0 
 -4.775400e-04  -1.236944e-02  0 
 4.963053e-04  -1.236944e-02  0 
 1.420897e-03  -1.237600e-02  0 
 2.396438e-03  -1.238845e-02  0 
 -1.472208e-03  -1.487862e-02  0 
 -4.988481e-04  -1.487347e-02  0 
 5.176003e-04  -1.487346e-02  0 
 1.490955e-03  -1.487860e-02  0 
 2.508894e-03  -1.488817e-02  0 
VECTORS displacement_ITER24 FLOAT
 -2.377696e-03  -1.238848e-02  0 
 -2.490140e-03  -1.488819e-02  0 
 -1.402147e-03  -1.237603e-02  0 
 -4.775400e-04  -1.236944e-02  0 
 4.963053e-04  -1.236944e-02  0 
 1.420897e-03  -1.237600e-02  0 
 2.396438e-03  -1.238845e-02  0 
 -1.472208e-03  -1.487862e-02  0 
 -4.988481e-04  -1.487347e-02  0 
 5.176003e-04  -1.487346e-02  0 
 1.490955e-03  -1.487860e-02  0 
 2.508894e-03  -1.488817e-02  0 
VECTORS displacement_ITER25 FLOAT
 -2.377696e-03  -1.238848e-02  0 
 -2.490140e-03  -1.488819e-02  0 
 -1.402147e-03  -1.237603e-02  0 
 -4.775400e-04  -1.236944e-02  0 
 4.963053e-04  -1.236944e-02  0 
 1.420897e-03  -1.237600e-02  0 
 2.396438e-03  -1.238845e-02  0 
 -1.472208e-03  -1.487862e-02  0 
 -4.988481e-04  -1.487347e-02  0 
 5.176003e-04  -1.487346e-02  0 
 1.490955e-03  -1.487860e-02  0 
 2.508894e-03  -1.488817e-02  0 
CELL_DATA 5
TENSORS element_stresses FLOAT
 -1.824110e-01  -1.430313e-02  0 
 -1.430313e-02  3.153608e-04  0 
 0  0  0 

 -9.072807e-03  -2.013015e-02  0 
 -2.013015e-02  2.137830e-04  0 
 0  0  0 

 -1.163324e-05  -2.486013e-02  0 
 -2.486013e-02  4.875954e-06  0 
 0  0  0 

 9.074288e-03  -2.013537e-02  0 
 -2.013537e-02  -2.034101e-04  0 
 0  0  0 

 1.824211e-01  -1.432122e-02  0 
 -1.432122e-02  -3.106777e-04  0 
 0  0  0 

TENSORS element_stresses FLOAT
 -1.824110e-01  -1.430313e-02  0 
 -1.430313e-02  3.153608e-04  0 
 0  0  0 

 -9.072807e-03  -2.013015e-02  0 
 -2.013015e-02  2.137830e-04  0 
 0  0  0 

 -1.163324e-05  -2.486013e-02  0 
 -2.486013e-02  4.875954e-06  0 
 0  0  0 

 9.074288e-03  -2.013537e-02  0 
 -2.013537e-02  -2.034101e-04  0 
 0  0  0 

 1.824211e-01  -1.432122e-02  0 
 -1.432122e-02  -3.106777e-04  0 
 0  0  0 

