# vtk DataFile Version 3.1
this is an vtk file created by FEMAC
ASCII
DATASET UNSTRUCTURED_GRID
POINTS 12 FLOAT
7.000000 0.000000 0.000000
7.500000 0.000000 0.000000
7.000000 0.200000 0.000000
7.000000 0.400000 0.000000
7.000000 0.600000 0.000000
7.000000 0.800000 0.000000
7.000000 1.000000 0.000000
7.500000 0.200000 0.000000
7.500000 0.400000 0.000000
7.500000 0.600000 0.000000
7.500000 0.800000 0.000000
7.500000 1.000000 0.000000
CELLS 5 25 
4 0 1 7 2
4 2 7 8 3
4 3 8 9 4
4 4  9 10  5
4 5 10 11  6
CELL_TYPES 5
9 9 9 9 9 
POINT_DATA 12
VECTORS displacement_ITER1 FLOAT
 -2.746836e-03  -2.860310e-02  0 
 -2.751784e-03  -3.137050e-02  0 
 -1.641026e-03  -2.860256e-02  0 
 -5.454487e-04  -2.859803e-02  0 
 5.633158e-04  -2.859803e-02  0 
 1.658893e-03  -2.860256e-02  0 
 2.764703e-03  -2.860310e-02  0 
 -1.645166e-03  -3.136993e-02  0 
 -5.453111e-04  -3.137272e-02  0 
 5.631782e-04  -3.137272e-02  0 
 1.663033e-03  -3.136993e-02  0 
 2.769651e-03  -3.137050e-02  0 
VECTORS displacement_ITER2 FLOAT
 -2.729394e-03  -2.842654e-02  0 
 -2.734110e-03  -3.117790e-02  0 
 -1.629457e-03  -2.842582e-02  0 
 -5.413321e-04  -2.842339e-02  0 
 5.596512e-04  -2.842339e-02  0 
 1.647776e-03  -2.842582e-02  0 
 2.747713e-03  -2.842654e-02  0 
 -1.634325e-03  -3.117742e-02  0 
 -5.410302e-04  -3.117832e-02  0 
 5.593493e-04  -3.117832e-02  0 
 1.652644e-03  -3.117742e-02  0 
 2.752429e-03  -3.117790e-02  0 
VECTORS displacement_ITER3 FLOAT
 -2.717143e-03  -2.832373e-02  0 
 -2.721682e-03  -3.106470e-02  0 
 -1.621004e-03  -2.832293e-02  0 
 -5.381393e-04  -2.832293e-02  0 
 5.569565e-04  -2.832293e-02  0 
 1.639822e-03  -2.832293e-02  0 
 2.735960e-03  -2.832373e-02  0 
 -1.626328e-03  -3.106427e-02  0 
 -5.377914e-04  -3.106311e-02  0 
 5.566086e-04  -3.106311e-02  0 
 1.645145e-03  -3.106427e-02  0 
 2.740499e-03  -3.106470e-02  0 
VECTORS displacement_ITER4 FLOAT
 -2.715129e-03  -2.830816e-02  0 
 -2.719670e-03  -3.104691e-02  0 
 -1.619855e-03  -2.830731e-02  0 
 -5.377863e-04  -2.830707e-02  0 
 5.566566e-04  -2.830707e-02  0 
 1.638725e-03  -2.830731e-02  0 
 2.733999e-03  -2.830816e-02  0 
 -1.625176e-03  -3.104652e-02  0 
 -5.374337e-04  -3.104562e-02  0 
 5.563041e-04  -3.104562e-02  0 
 1.644047e-03  -3.104652e-02  0 
 2.738541e-03  -3.104691e-02  0 
VECTORS displacement_ITER5 FLOAT
 -2.713740e-03  -2.829691e-02  0 
 -2.718312e-03  -3.103372e-02  0 
 -1.619263e-03  -2.829601e-02  0 
 -5.376950e-04  -2.829513e-02  0 
 5.565181e-04  -2.829513e-02  0 
 1.638087e-03  -2.829601e-02  0 
 2.732563e-03  -2.829691e-02  0 
 -1.624510e-03  -3.103339e-02  0 
 -5.373493e-04  -3.103313e-02  0 
 5.561724e-04  -3.103313e-02  0 
 1.643333e-03  -3.103339e-02  0 
 2.737135e-03  -3.103372e-02  0 
VECTORS displacement_ITER6 FLOAT
 -2.713208e-03  -2.829294e-02  0 
 -2.717794e-03  -3.102911e-02  0 
 -1.619008e-03  -2.829201e-02  0 
 -5.376313e-04  -2.829104e-02  0 
 5.564074e-04  -2.829104e-02  0 
 1.637784e-03  -2.829201e-02  0 
 2.731984e-03  -2.829294e-02  0 
 -1.624202e-03  -3.102880e-02  0 
 -5.373071e-04  -3.102866e-02  0 
 5.560832e-04  -3.102866e-02  0 
 1.642978e-03  -3.102880e-02  0 
 2.736570e-03  -3.102911e-02  0 
VECTORS displacement_ITER7 FLOAT
 -2.713024e-03  -2.829220e-02  0 
 -2.717612e-03  -3.102831e-02  0 
 -1.618861e-03  -2.829127e-02  0 
 -5.375504e-04  -2.829049e-02  0 
 5.563124e-04  -2.829049e-02  0 
 1.637619e-03  -2.829129e-02  0 
 2.731767e-03  -2.829222e-02  0 
 -1.624024e-03  -3.102801e-02  0 
 -5.372505e-04  -3.102773e-02  0 
 5.560133e-04  -3.102773e-02  0 
 1.642781e-03  -3.102800e-02  0 
 2.736356e-03  -3.102830e-02  0 
VECTORS displacement_ITER8 FLOAT
 -2.712908e-03  -2.829205e-02  0 
 -2.717491e-03  -3.102808e-02  0 
 -1.618778e-03  -2.829112e-02  0 
 -5.374976e-04  -2.829042e-02  0 
 5.562554e-04  -2.829041e-02  0 
 1.637533e-03  -2.829109e-02  0 
 2.731655e-03  -2.829202e-02  0 
 -1.623922e-03  -3.102778e-02  0 
 -5.372204e-04  -3.102742e-02  0 
 5.559660e-04  -3.102742e-02  0 
 1.642674e-03  -3.102779e-02  0 
 2.736254e-03  -3.102809e-02  0 
VECTORS displacement_ITER9 FLOAT
 -2.712816e-03  -2.829176e-02  0 
 -2.717419e-03  -3.102772e-02  0 
 -1.618759e-03  -2.829083e-02  0 
 -5.375073e-04  -2.829013e-02  0 
 5.562106e-04  -2.829013e-02  0 
 1.637491e-03  -2.829084e-02  0 
 2.731593e-03  -2.829177e-02  0 
 -1.623890e-03  -3.102742e-02  0 
 -5.372243e-04  -3.102706e-02  0 
 5.559394e-04  -3.102706e-02  0 
 1.642624e-03  -3.102743e-02  0 
 2.736179e-03  -3.102772e-02  0 
VECTORS displacement_ITER10 FLOAT
 -2.712776e-03  -2.829140e-02  0 
 -2.717382e-03  -3.102728e-02  0 
 -1.618729e-03  -2.829047e-02  0 
 -5.374554e-04  -2.828974e-02  0 
 5.562461e-04  -2.828974e-02  0 
 1.637486e-03  -2.829050e-02  0 
 2.731496e-03  -2.829144e-02  0 
 -1.623850e-03  -3.102698e-02  0 
 -5.371758e-04  -3.102664e-02  0 
 5.559791e-04  -3.102664e-02  0 
 1.642611e-03  -3.102697e-02  0 
 2.736087e-03  -3.102726e-02  0 
VECTORS displacement_ITER11 FLOAT
 -2.712710e-03  -2.829134e-02  0 
 -2.717305e-03  -3.102709e-02  0 
 -1.618724e-03  -2.829040e-02  0 
 -5.374876e-04  -2.828963e-02  0 
 5.561964e-04  -2.828963e-02  0 
 1.637464e-03  -2.829033e-02  0 
 2.731505e-03  -2.829127e-02  0 
 -1.623842e-03  -3.102680e-02  0 
 -5.372231e-04  -3.102648e-02  0 
 5.559202e-04  -3.102649e-02  0 
 1.642582e-03  -3.102686e-02  0 
 2.736110e-03  -3.102715e-02  0 
VECTORS displacement_ITER12 FLOAT
 -2.712772e-03  -2.829124e-02  0 
 -2.717369e-03  -3.102720e-02  0 
 -1.618702e-03  -2.829031e-02  0 
 -5.374211e-04  -2.828965e-02  0 
 5.562490e-04  -2.828966e-02  0 
 1.637469e-03  -2.829045e-02  0 
 2.731421e-03  -2.829139e-02  0 
 -1.623817e-03  -3.102690e-02  0 
 -5.371539e-04  -3.102649e-02  0 
 5.559800e-04  -3.102648e-02  0 
 1.642583e-03  -3.102677e-02  0 
 2.736023e-03  -3.102706e-02  0 
VECTORS displacement_ITER13 FLOAT
 -2.712707e-03  -2.829132e-02  0 
 -2.717307e-03  -3.102710e-02  0 
 -1.618711e-03  -2.829039e-02  0 
 -5.374665e-04  -2.828964e-02  0 
 5.562014e-04  -2.828964e-02  0 
 1.637457e-03  -2.829035e-02  0 
 2.731477e-03  -2.829129e-02  0 
 -1.623824e-03  -3.102681e-02  0 
 -5.371995e-04  -3.102647e-02  0 
 5.559333e-04  -3.102647e-02  0 
 1.642571e-03  -3.102684e-02  0 
 2.736078e-03  -3.102713e-02  0 
VECTORS displacement_ITER14 FLOAT
 -2.712702e-03  -2.829130e-02  0 
 -2.717303e-03  -3.102707e-02  0 
 -1.618710e-03  -2.829036e-02  0 
 -5.374675e-04  -2.828962e-02  0 
 5.561995e-04  -2.828962e-02  0 
 1.637457e-03  -2.829033e-02  0 
 2.731473e-03  -2.829127e-02  0 
 -1.623823e-03  -3.102678e-02  0 
 -5.371998e-04  -3.102644e-02  0 
 5.559332e-04  -3.102644e-02  0 
 1.642569e-03  -3.102681e-02  0 
 2.736073e-03  -3.102710e-02  0 
VECTORS displacement_ITER15 FLOAT
 -2.712713e-03  -2.829128e-02  0 
 -2.717314e-03  -3.102708e-02  0 
 -1.618708e-03  -2.829034e-02  0 
 -5.374569e-04  -2.828961e-02  0 
 5.562095e-04  -2.828961e-02  0 
 1.637458e-03  -2.829035e-02  0 
 2.731459e-03  -2.829128e-02  0 
 -1.623820e-03  -3.102679e-02  0 
 -5.371894e-04  -3.102644e-02  0 
 5.559434e-04  -3.102644e-02  0 
 1.642571e-03  -3.102679e-02  0 
 2.736059e-03  -3.102708e-02  0 
VECTORS displacement_ITER16 FLOAT
 -2.712713e-03  -2.829128e-02  0 
 -2.717314e-03  -3.102708e-02  0 
 -1.618707e-03  -2.829034e-02  0 
 -5.374555e-04  -2.828962e-02  0 
 5.562099e-04  -2.828962e-02  0 
 1.637458e-03  -2.829035e-02  0 
 2.731457e-03  -2.829129e-02  0 
 -1.623819e-03  -3.102679e-02  0 
 -5.371887e-04  -3.102644e-02  0 
 5.559437e-04  -3.102644e-02  0 
 1.642570e-03  -3.102679e-02  0 
 2.736058e-03  -3.102707e-02  0 
VECTORS displacement_ITER17 FLOAT
 -2.712709e-03  -2.829128e-02  0 
 -2.717310e-03  -3.102708e-02  0 
 -1.618707e-03  -2.829035e-02  0 
 -5.374579e-04  -2.828962e-02  0 
 5.562073e-04  -2.828962e-02  0 
 1.637457e-03  -2.829035e-02  0 
 2.731460e-03  -2.829128e-02  0 
 -1.623819e-03  -3.102679e-02  0 
 -5.371914e-04  -3.102644e-02  0 
 5.559410e-04  -3.102644e-02  0 
 1.642569e-03  -3.102679e-02  0 
 2.736061e-03  -3.102708e-02  0 
VECTORS displacement_ITER18 FLOAT
 -2.712709e-03  -2.829128e-02  0 
 -2.717310e-03  -3.102708e-02  0 
 -1.618707e-03  -2.829035e-02  0 
 -5.374583e-04  -2.828962e-02  0 
 5.562070e-04  -2.828962e-02  0 
 1.637457e-03  -2.829034e-02  0 
 2.731460e-03  -2.829128e-02  0 
 -1.623819e-03  -3.102679e-02  0 
 -5.371918e-04  -3.102644e-02  0 
 5.559405e-04  -3.102644e-02  0 
 1.642569e-03  -3.102679e-02  0 
 2.736061e-03  -3.102708e-02  0 
VECTORS displacement_ITER19 FLOAT
 -2.712709e-03  -2.829128e-02  0 
 -2.717310e-03  -3.102708e-02  0 
 -1.618707e-03  -2.829034e-02  0 
 -5.374576e-04  -2.828961e-02  0 
 5.562077e-04  -2.828961e-02  0 
 1.637457e-03  -2.829034e-02  0 
 2.731459e-03  -2.829128e-02  0 
 -1.623819e-03  -3.102679e-02  0 
 -5.371912e-04  -3.102644e-02  0 
 5.559412e-04  -3.102644e-02  0 
 1.642569e-03  -3.102679e-02  0 
 2.736060e-03  -3.102708e-02  0 
VECTORS displacement_ITER20 FLOAT
 -2.712709e-03  -2.829128e-02  0 
 -2.717310e-03  -3.102708e-02  0 
 -1.618707e-03  -2.829034e-02  0 
 -5.374574e-04  -2.828961e-02  0 
 5.562077e-04  -2.828961e-02  0 
 1.637457e-03  -2.829034e-02  0 
 2.731459e-03  -2.829128e-02  0 
 -1.623819e-03  -3.102679e-02  0 
 -5.371910e-04  -3.102644e-02  0 
 5.559412e-04  -3.102644e-02  0 
 1.642569e-03  -3.102679e-02  0 
 2.736060e-03  -3.102708e-02  0 
VECTORS displacement_ITER21 FLOAT
 -2.712709e-03  -2.829128e-02  0 
 -2.717310e-03  -3.102708e-02  0 
 -1.618707e-03  -2.829034e-02  0 
 -5.374575e-04  -2.828962e-02  0 
 5.562074e-04  -2.828962e-02  0 
 1.637457e-03  -2.829034e-02  0 
 2.731459e-03  -2.829128e-02  0 
 -1.623819e-03  -3.102679e-02  0 
 -5.371911e-04  -3.102644e-02  0 
 5.559410e-04  -3.102644e-02  0 
 1.642569e-03  -3.102679e-02  0 
 2.736060e-03  -3.102708e-02  0 
VECTORS displacement_ITER22 FLOAT
 -2.712709e-03  -2.829128e-02  0 
 -2.717310e-03  -3.102708e-02  0 
 -1.618707e-03  -2.829034e-02  0 
 -5.374575e-04  -2.828962e-02  0 
 5.562075e-04  -2.828962e-02  0 
 1.637457e-03  -2.829034e-02  0 
 2.731459e-03  -2.829128e-02  0 
 -1.623819e-03  -3.102679e-02  0 
 -5.371911e-04  -3.102644e-02  0 
 5.559411e-04  -3.102644e-02  0 
 1.642569e-03  -3.102679e-02  0 
 2.736060e-03  -3.102708e-02  0 
VECTORS displacement_ITER23 FLOAT
 -2.712709e-03  -2.829128e-02  0 
 -2.717310e-03  -3.102708e-02  0 
 -1.618707e-03  -2.829034e-02  0 
 -5.374575e-04  -2.828962e-02  0 
 5.562075e-04  -2.828962e-02  0 
 1.637457e-03  -2.829034e-02  0 
 2.731459e-03  -2.829128e-02  0 
 -1.623819e-03  -3.102679e-02  0 
 -5.371911e-04  -3.102644e-02  0 
 5.559411e-04  -3.102644e-02  0 
 1.642569e-03  -3.102679e-02  0 
 2.736060e-03  -3.102708e-02  0 
VECTORS displacement_ITER24 FLOAT
 -2.712709e-03  -2.829128e-02  0 
 -2.717310e-03  -3.102708e-02  0 
 -1.618707e-03  -2.829034e-02  0 
 -5.374575e-04  -2.828962e-02  0 
 5.562075e-04  -2.828962e-02  0 
 1.637457e-03  -2.829034e-02  0 
 2.731459e-03  -2.829128e-02  0 
 -1.623819e-03  -3.102679e-02  0 
 -5.371911e-04  -3.102644e-02  0 
 5.559411e-04  -3.102644e-02  0 
 1.642569e-03  -3.102679e-02  0 
 2.736060e-03  -3.102708e-02  0 
VECTORS displacement_ITER25 FLOAT
 -2.712709e-03  -2.829128e-02  0 
 -2.717310e-03  -3.102708e-02  0 
 -1.618707e-03  -2.829034e-02  0 
 -5.374575e-04  -2.828962e-02  0 
 5.562075e-04  -2.828962e-02  0 
 1.637457e-03  -2.829034e-02  0 
 2.731459e-03  -2.829128e-02  0 
 -1.623819e-03  -3.102679e-02  0 
 -5.371911e-04  -3.102644e-02  0 
 5.559411e-04  -3.102644e-02  0 
 1.642569e-03  -3.102679e-02  0 
 2.736060e-03  -3.102708e-02  0 
CELL_DATA 5
TENSORS element_stresses FLOAT
 -9.661843e-03  -2.696296e-03  0 
 -2.696296e-03  1.699070e-04  0 
 0  0  0 

 -4.433965e-04  -4.120854e-03  0 
 -4.120854e-03  1.371866e-04  0 
 0  0  0 

 -1.380293e-08  -5.115676e-03  0 
 -5.115676e-03  1.090234e-08  0 
 0  0  0 

 4.434008e-04  -4.120863e-03  0 
 -4.120863e-03  -1.371676e-04  0 
 0  0  0 

 9.661852e-03  -2.696311e-03  0 
 -2.696311e-03  -1.698997e-04  0 
 0  0  0 

TENSORS element_stresses FLOAT
 -9.661843e-03  -2.696296e-03  0 
 -2.696296e-03  1.699070e-04  0 
 0  0  0 

 -4.433965e-04  -4.120854e-03  0 
 -4.120854e-03  1.371866e-04  0 
 0  0  0 

 -1.380293e-08  -5.115676e-03  0 
 -5.115676e-03  1.090234e-08  0 
 0  0  0 

 4.434008e-04  -4.120863e-03  0 
 -4.120863e-03  -1.371676e-04  0 
 0  0  0 

 9.661852e-03  -2.696311e-03  0 
 -2.696311e-03  -1.698997e-04  0 
 0  0  0 

