# vtk DataFile Version 3.1
this is an vtk file created by FEMAC
ASCII
DATASET UNSTRUCTURED_GRID
POINTS 12 FLOAT
1.000000 0.000000 0.000000
1.500000 0.000000 0.000000
1.000000 0.200000 0.000000
1.000000 0.400000 0.000000
1.000000 0.600000 0.000000
1.000000 0.800000 0.000000
1.000000 1.000000 0.000000
1.500000 0.200000 0.000000
1.500000 0.400000 0.000000
1.500000 0.600000 0.000000
1.500000 0.800000 0.000000
1.500000 1.000000 0.000000
CELLS 5 25 
4 0 1 7 2
4 2 7 8 3
4 3 8 9 4
4 4  9 10  5
4 5 10 11  6
CELL_TYPES 5
9 9 9 9 9 
POINT_DATA 12
VECTORS displacement_ITER1 FLOAT
 -9.063116e-04  -1.249775e-03  0 
 -1.264987e-03  -2.443067e-03  0 
 -4.903906e-04  -1.214704e-03  0 
 -2.028638e-04  -1.176779e-03  0 
 2.243699e-04  -1.176464e-03  0 
 5.076557e-04  -1.212258e-03  0 
 9.216929e-04  -1.247841e-03  0 
 -7.388811e-04  -2.405423e-03  0 
 -2.560090e-04  -2.405154e-03  0 
 2.757345e-04  -2.404853e-03  0 
 7.560745e-04  -2.401392e-03  0 
 1.281670e-03  -2.438744e-03  0 
VECTORS displacement_ITER2 FLOAT
 -8.987786e-04  -1.261285e-03  0 
 -1.256277e-03  -2.430861e-03  0 
 -4.941406e-04  -1.224489e-03  0 
 -1.917831e-04  -1.174750e-03  0 
 2.247593e-04  -1.173999e-03  0 
 5.146887e-04  -1.215737e-03  0 
 9.069134e-04  -1.253454e-03  0 
 -7.304660e-04  -2.396018e-03  0 
 -2.569249e-04  -2.397859e-03  0 
 2.815594e-04  -2.397227e-03  0 
 7.494527e-04  -2.387644e-03  0 
 1.273339e-03  -2.421902e-03  0 
VECTORS displacement_ITER3 FLOAT
 -8.956123e-04  -1.259631e-03  0 
 -1.252903e-03  -2.431983e-03  0 
 -4.956109e-04  -1.222500e-03  0 
 -1.836478e-04  -1.180891e-03  0 
 2.190422e-04  -1.180103e-03  0 
 5.158604e-04  -1.214036e-03  0 
 9.006027e-04  -1.252613e-03  0 
 -7.225151e-04  -2.398445e-03  0 
 -2.571593e-04  -2.386463e-03  0 
 2.808543e-04  -2.385448e-03  0 
 7.400819e-04  -2.384637e-03  0 
 1.271265e-03  -2.417315e-03  0 
VECTORS displacement_ITER4 FLOAT
 -8.962569e-04  -1.258967e-03  0 
 -1.253986e-03  -2.438446e-03  0 
 -4.947201e-04  -1.222174e-03  0 
 -1.816455e-04  -1.188406e-03  0 
 2.159464e-04  -1.187676e-03  0 
 5.149398e-04  -1.214296e-03  0 
 9.019464e-04  -1.252638e-03  0 
 -7.196316e-04  -2.404967e-03  0 
 -2.564447e-04  -2.386287e-03  0 
 2.799621e-04  -2.385286e-03  0 
 7.369274e-04  -2.392392e-03  0 
 1.272653e-03  -2.425124e-03  0 
VECTORS displacement_ITER5 FLOAT
 -8.976907e-04  -1.260546e-03  0 
 -1.255373e-03  -2.447854e-03  0 
 -4.937436e-04  -1.224136e-03  0 
 -1.799793e-04  -1.198119e-03  0 
 2.129932e-04  -1.197486e-03  0 
 5.140847e-04  -1.217015e-03  0 
 9.037751e-04  -1.255039e-03  0 
 -7.171887e-04  -2.414427e-03  0 
 -2.562213e-04  -2.389873e-03  0 
 2.791934e-04  -2.388885e-03  0 
 7.341287e-04  -2.403054e-03  0 
 1.274529e-03  -2.435887e-03  0 
VECTORS displacement_ITER6 FLOAT
 -8.981314e-04  -1.262062e-03  0 
 -1.255590e-03  -2.450809e-03  0 
 -4.937407e-04  -1.225696e-03  0 
 -1.797800e-04  -1.200980e-03  0 
 2.121490e-04  -1.200402e-03  0 
 5.141497e-04  -1.218982e-03  0 
 9.042429e-04  -1.256978e-03  0 
 -7.167926e-04  -2.417522e-03  0 
 -2.567437e-04  -2.392429e-03  0 
 2.792901e-04  -2.391435e-03  0 
 7.334907e-04  -2.406416e-03  0 
 1.275022e-03  -2.439182e-03  0 
VECTORS displacement_ITER7 FLOAT
 -8.979870e-04  -1.262665e-03  0 
 -1.255357e-03  -2.450150e-03  0 
 -4.940445e-04  -1.226196e-03  0 
 -1.802502e-04  -1.200092e-03  0 
 2.122316e-04  -1.199536e-03  0 
 5.144831e-04  -1.219637e-03  0 
 9.042015e-04  -1.257727e-03  0 
 -7.171765e-04  -2.417014e-03  0 
 -2.573722e-04  -2.393456e-03  0 
 2.797494e-04  -2.392461e-03  0 
 7.337671e-04  -2.405975e-03  0 
 1.274858e-03  -2.438632e-03  0 
VECTORS displacement_ITER8 FLOAT
 -8.978459e-04  -1.262642e-03  0 
 -1.255226e-03  -2.449267e-03  0 
 -4.941637e-04  -1.226086e-03  0 
 -1.806712e-04  -1.198888e-03  0 
 2.124129e-04  -1.198338e-03  0 
 5.146271e-04  -1.219554e-03  0 
 9.042058e-04  -1.257714e-03  0 
 -7.174609e-04  -2.416218e-03  0 
 -2.577329e-04  -2.393716e-03  0 
 2.800963e-04  -2.392725e-03  0 
 7.340241e-04  -2.405229e-03  0 
 1.274703e-03  -2.437826e-03  0 
VECTORS displacement_ITER9 FLOAT
 -8.978528e-04  -1.262436e-03  0 
 -1.255254e-03  -2.449083e-03  0 
 -4.940864e-04  -1.225845e-03  0 
 -1.808499e-04  -1.198404e-03  0 
 2.125026e-04  -1.197853e-03  0 
 5.145731e-04  -1.219282e-03  0 
 9.042934e-04  -1.257461e-03  0 
 -7.175185e-04  -2.416057e-03  0 
 -2.578203e-04  -2.393723e-03  0 
 2.802214e-04  -2.392736e-03  0 
 7.340866e-04  -2.405056e-03  0 
 1.274689e-03  -2.437645e-03  0 
VECTORS displacement_ITER10 FLOAT
 -8.979240e-04  -1.262283e-03  0 
 -1.255324e-03  -2.449230e-03  0 
 -4.939585e-04  -1.225673e-03  0 
 -1.809206e-04  -1.198314e-03  0 
 2.125493e-04  -1.197759e-03  0 
 5.144694e-04  -1.219065e-03  0 
 9.043947e-04  -1.257247e-03  0 
 -7.175149e-04  -2.416210e-03  0 
 -2.578171e-04  -2.393740e-03  0 
 2.802578e-04  -2.392757e-03  0 
 7.340906e-04  -2.405150e-03  0 
 1.274723e-03  -2.437741e-03  0 
VECTORS displacement_ITER11 FLOAT
 -8.979554e-04  -1.262294e-03  0 
 -1.255337e-03  -2.449298e-03  0 
 -4.939212e-04  -1.225671e-03  0 
 -1.809249e-04  -1.198377e-03  0 
 2.125608e-04  -1.197820e-03  0 
 5.144451e-04  -1.219046e-03  0 
 9.044219e-04  -1.257232e-03  0 
 -7.175403e-04  -2.416286e-03  0 
 -2.578007e-04  -2.393778e-03  0 
 2.802580e-04  -2.392796e-03  0 
 7.341175e-04  -2.405191e-03  0 
 1.274726e-03  -2.437775e-03  0 
VECTORS displacement_ITER12 FLOAT
 -8.979546e-04  -1.262298e-03  0 
 -1.255327e-03  -2.449239e-03  0 
 -4.939220e-04  -1.225665e-03  0 
 -1.809184e-04  -1.198384e-03  0 
 2.125548e-04  -1.197826e-03  0 
 5.144518e-04  -1.219040e-03  0 
 9.044243e-04  -1.257232e-03  0 
 -7.175667e-04  -2.416236e-03  0 
 -2.577880e-04  -2.393759e-03  0 
 2.802543e-04  -2.392781e-03  0 
 7.341444e-04  -2.405150e-03  0 
 1.274716e-03  -2.437726e-03  0 
VECTORS displacement_ITER13 FLOAT
 -8.979556e-04  -1.262295e-03  0 
 -1.255324e-03  -2.449226e-03  0 
 -4.939211e-04  -1.225661e-03  0 
 -1.809145e-04  -1.198387e-03  0 
 2.125513e-04  -1.197830e-03  0 
 5.144521e-04  -1.219037e-03  0 
 9.044248e-04  -1.257230e-03  0 
 -7.175716e-04  -2.416226e-03  0 
 -2.577839e-04  -2.393750e-03  0 
 2.802509e-04  -2.392772e-03  0 
 7.341487e-04  -2.405143e-03  0 
 1.274715e-03  -2.437717e-03  0 
VECTORS displacement_ITER14 FLOAT
 -8.979579e-04  -1.262292e-03  0 
 -1.255322e-03  -2.449220e-03  0 
 -4.939195e-04  -1.225656e-03  0 
 -1.809096e-04  -1.198393e-03  0 
 2.125476e-04  -1.197835e-03  0 
 5.144509e-04  -1.219035e-03  0 
 9.044247e-04  -1.257229e-03  0 
 -7.175748e-04  -2.416221e-03  0 
 -2.577803e-04  -2.393738e-03  0 
 2.802462e-04  -2.392762e-03  0 
 7.341503e-04  -2.405141e-03  0 
 1.274716e-03  -2.437713e-03  0 
VECTORS displacement_ITER15 FLOAT
 -8.979576e-04  -1.262294e-03  0 
 -1.255321e-03  -2.449216e-03  0 
 -4.939202e-04  -1.225657e-03  0 
 -1.809093e-04  -1.198392e-03  0 
 2.125476e-04  -1.197834e-03  0 
 5.144515e-04  -1.219036e-03  0 
 9.044238e-04  -1.257231e-03  0 
 -7.175766e-04  -2.416218e-03  0 
 -2.577807e-04  -2.393737e-03  0 
 2.802460e-04  -2.392761e-03  0 
 7.341516e-04  -2.405139e-03  0 
 1.274715e-03  -2.437710e-03  0 
VECTORS displacement_ITER16 FLOAT
 -8.979572e-04  -1.262295e-03  0 
 -1.255320e-03  -2.449213e-03  0 
 -4.939214e-04  -1.225658e-03  0 
 -1.809098e-04  -1.198388e-03  0 
 2.125490e-04  -1.197830e-03  0 
 5.144526e-04  -1.219038e-03  0 
 9.044223e-04  -1.257234e-03  0 
 -7.175783e-04  -2.416215e-03  0 
 -2.577818e-04  -2.393737e-03  0 
 2.802474e-04  -2.392761e-03  0 
 7.341532e-04  -2.405135e-03  0 
 1.274714e-03  -2.437706e-03  0 
VECTORS displacement_ITER17 FLOAT
 -8.979563e-04  -1.262296e-03  0 
 -1.255319e-03  -2.449212e-03  0 
 -4.939214e-04  -1.225659e-03  0 
 -1.809107e-04  -1.198387e-03  0 
 2.125486e-04  -1.197829e-03  0 
 5.144522e-04  -1.219036e-03  0 
 9.044232e-04  -1.257232e-03  0 
 -7.175784e-04  -2.416214e-03  0 
 -2.577830e-04  -2.393736e-03  0 
 2.802470e-04  -2.392760e-03  0 
 7.341527e-04  -2.405137e-03  0 
 1.274715e-03  -2.437707e-03  0 
VECTORS displacement_ITER18 FLOAT
 -8.979586e-04  -1.262292e-03  0 
 -1.255321e-03  -2.449216e-03  0 
 -4.939206e-04  -1.225655e-03  0 
 -1.809091e-04  -1.198386e-03  0 
 2.125502e-04  -1.197829e-03  0 
 5.144519e-04  -1.219037e-03  0 
 9.044217e-04  -1.257233e-03  0 
 -7.175774e-04  -2.416218e-03  0 
 -2.577816e-04  -2.393736e-03  0 
 2.802484e-04  -2.392760e-03  0 
 7.341524e-04  -2.405135e-03  0 
 1.274713e-03  -2.437705e-03  0 
VECTORS displacement_ITER19 FLOAT
 -8.979568e-04  -1.262295e-03  0 
 -1.255319e-03  -2.449214e-03  0 
 -4.939208e-04  -1.225658e-03  0 
 -1.809105e-04  -1.198386e-03  0 
 2.125486e-04  -1.197829e-03  0 
 5.144515e-04  -1.219034e-03  0 
 9.044237e-04  -1.257230e-03  0 
 -7.175776e-04  -2.416215e-03  0 
 -2.577830e-04  -2.393736e-03  0 
 2.802469e-04  -2.392760e-03  0 
 7.341519e-04  -2.405138e-03  0 
 1.274715e-03  -2.437709e-03  0 
VECTORS displacement_ITER20 FLOAT
 -8.979578e-04  -1.262293e-03  0 
 -1.255320e-03  -2.449215e-03  0 
 -4.939208e-04  -1.225656e-03  0 
 -1.809096e-04  -1.198386e-03  0 
 2.125495e-04  -1.197829e-03  0 
 5.144518e-04  -1.219036e-03  0 
 9.044225e-04  -1.257232e-03  0 
 -7.175776e-04  -2.416216e-03  0 
 -2.577822e-04  -2.393736e-03  0 
 2.802479e-04  -2.392760e-03  0 
 7.341523e-04  -2.405136e-03  0 
 1.274714e-03  -2.437707e-03  0 
VECTORS displacement_ITER21 FLOAT
 -8.979573e-04  -1.262294e-03  0 
 -1.255320e-03  -2.449214e-03  0 
 -4.939209e-04  -1.225657e-03  0 
 -1.809100e-04  -1.198386e-03  0 
 2.125490e-04  -1.197829e-03  0 
 5.144518e-04  -1.219035e-03  0 
 9.044230e-04  -1.257231e-03  0 
 -7.175777e-04  -2.416216e-03  0 
 -2.577826e-04  -2.393736e-03  0 
 2.802475e-04  -2.392760e-03  0 
 7.341523e-04  -2.405137e-03  0 
 1.274715e-03  -2.437707e-03  0 
VECTORS displacement_ITER22 FLOAT
 -8.979575e-04  -1.262294e-03  0 
 -1.255320e-03  -2.449214e-03  0 
 -4.939208e-04  -1.225657e-03  0 
 -1.809098e-04  -1.198386e-03  0 
 2.125491e-04  -1.197829e-03  0 
 5.144518e-04  -1.219035e-03  0 
 9.044229e-04  -1.257231e-03  0 
 -7.175777e-04  -2.416216e-03  0 
 -2.577825e-04  -2.393736e-03  0 
 2.802476e-04  -2.392760e-03  0 
 7.341523e-04  -2.405136e-03  0 
 1.274714e-03  -2.437707e-03  0 
VECTORS displacement_ITER23 FLOAT
 -8.979574e-04  -1.262294e-03  0 
 -1.255320e-03  -2.449214e-03  0 
 -4.939208e-04  -1.225657e-03  0 
 -1.809098e-04  -1.198386e-03  0 
 2.125491e-04  -1.197829e-03  0 
 5.144518e-04  -1.219035e-03  0 
 9.044229e-04  -1.257231e-03  0 
 -7.175777e-04  -2.416216e-03  0 
 -2.577825e-04  -2.393736e-03  0 
 2.802476e-04  -2.392760e-03  0 
 7.341523e-04  -2.405136e-03  0 
 1.274714e-03  -2.437707e-03  0 
VECTORS displacement_ITER24 FLOAT
 -8.979574e-04  -1.262294e-03  0 
 -1.255320e-03  -2.449214e-03  0 
 -4.939208e-04  -1.225657e-03  0 
 -1.809098e-04  -1.198386e-03  0 
 2.125491e-04  -1.197829e-03  0 
 5.144518e-04  -1.219035e-03  0 
 9.044229e-04  -1.257231e-03  0 
 -7.175777e-04  -2.416216e-03  0 
 -2.577825e-04  -2.393736e-03  0 
 2.802476e-04  -2.392760e-03  0 
 7.341523e-04  -2.405136e-03  0 
 1.274714e-03  -2.437707e-03  0 
VECTORS displacement_ITER25 FLOAT
 -8.979574e-04  -1.262294e-03  0 
 -1.255320e-03  -2.449214e-03  0 
 -4.939208e-04  -1.225657e-03  0 
 -1.809098e-04  -1.198386e-03  0 
 2.125491e-04  -1.197829e-03  0 
 5.144518e-04  -1.219035e-03  0 
 9.044229e-04  -1.257231e-03  0 
 -7.175777e-04  -2.416216e-03  0 
 -2.577825e-04  -2.393736e-03  0 
 2.802476e-04  -2.392760e-03  0 
 7.341523e-04  -2.405136e-03  0 
 1.274714e-03  -2.437707e-03  0 
CELL_DATA 5
TENSORS element_stresses FLOAT
 -5.810906e-01  -1.771770e-02  0 
 -1.771770e-02  -2.383650e-04  0 
 0  0  0 

 -2.892491e-02  -3.491483e-02  0 
 -3.491483e-02  3.760146e-03  0 
 0  0  0 

 -8.817632e-03  -4.735209e-02  0 
 -4.735209e-02  1.188549e-03  0 
 0  0  0 

 2.881446e-02  -3.780874e-02  0 
 -3.780874e-02  2.485344e-04  0 
 0  0  0 

 5.900187e-01  -3.095664e-02  0 
 -3.095664e-02  8.870596e-05  0 
 0  0  0 

TENSORS element_stresses FLOAT
 -5.810906e-01  -1.771770e-02  0 
 -1.771770e-02  -2.383650e-04  0 
 0  0  0 

 -2.892491e-02  -3.491483e-02  0 
 -3.491483e-02  3.760146e-03  0 
 0  0  0 

 -8.817632e-03  -4.735209e-02  0 
 -4.735209e-02  1.188549e-03  0 
 0  0  0 

 2.881446e-02  -3.780874e-02  0 
 -3.780874e-02  2.485344e-04  0 
 0  0  0 

 5.900187e-01  -3.095664e-02  0 
 -3.095664e-02  8.870596e-05  0 
 0  0  0 

