# vtk DataFile Version 3.1
this is an vtk file created by FEMAC
ASCII
DATASET UNSTRUCTURED_GRID
POINTS 12 FLOAT
3.000000 0.000000 0.000000
3.500000 0.000000 0.000000
3.000000 0.200000 0.000000
3.000000 0.400000 0.000000
3.000000 0.600000 0.000000
3.000000 0.800000 0.000000
3.000000 1.000000 0.000000
3.500000 0.200000 0.000000
3.500000 0.400000 0.000000
3.500000 0.600000 0.000000
3.500000 0.800000 0.000000
3.500000 1.000000 0.000000
CELLS 5 25 
4 0 1 7 2
4 2 7 8 3
4 3 8 9 4
4 4  9 10  5
4 5 10 11  6
CELL_TYPES 5
9 9 9 9 9 
POINT_DATA 12
VECTORS displacement_ITER1 FLOAT
 -2.079476e-03  -7.849554e-03  0 
 -2.258153e-03  -1.009053e-02  0 
 -1.215648e-03  -7.831862e-03  0 
 -4.301816e-04  -7.803074e-03  0 
 4.480487e-04  -7.803074e-03  0 
 1.233515e-03  -7.831862e-03  0 
 2.097343e-03  -7.849554e-03  0 
 -1.338528e-03  -1.007200e-02  0 
 -4.553179e-04  -1.008151e-02  0 
 4.731850e-04  -1.008151e-02  0 
 1.356395e-03  -1.007200e-02  0 
 2.276020e-03  -1.009053e-02  0 
VECTORS displacement_ITER2 FLOAT
 -2.065311e-03  -7.802532e-03  0 
 -2.244772e-03  -1.003373e-02  0 
 -1.208256e-03  -7.784070e-03  0 
 -4.227536e-04  -7.763925e-03  0 
 4.410727e-04  -7.763925e-03  0 
 1.226576e-03  -7.784070e-03  0 
 2.083630e-03  -7.802532e-03  0 
 -1.325569e-03  -1.001651e-02  0 
 -4.524052e-04  -1.001785e-02  0 
 4.707243e-04  -1.001785e-02  0 
 1.343888e-03  -1.001651e-02  0 
 2.263091e-03  -1.003373e-02  0 
VECTORS displacement_ITER3 FLOAT
 -2.056791e-03  -7.778720e-03  0 
 -2.236749e-03  -1.001036e-02  0 
 -1.201713e-03  -7.760022e-03  0 
 -4.158888e-04  -7.752655e-03  0 
 4.350756e-04  -7.752706e-03  0 
 1.220662e-03  -7.760951e-03  0 
 2.075053e-03  -7.779690e-03  0 
 -1.314972e-03  -9.993793e-03  0 
 -4.489216e-04  -9.983154e-03  0 
 4.681484e-04  -9.983127e-03  0 
 1.333879e-03  -9.993212e-03  0 
 2.255067e-03  -1.000975e-02  0 
VECTORS displacement_ITER4 FLOAT
 -2.055230e-03  -7.780256e-03  0 
 -2.234979e-03  -1.000890e-02  0 
 -1.201191e-03  -7.761348e-03  0 
 -4.149905e-04  -7.753289e-03  0 
 4.347997e-04  -7.753315e-03  0 
 1.220542e-03  -7.761570e-03  0 
 2.073236e-03  -7.780485e-03  0 
 -1.313732e-03  -9.992611e-03  0 
 -4.489056e-04  -9.982472e-03  0 
 4.682703e-04  -9.982458e-03  0 
 1.332881e-03  -9.992313e-03  0 
 2.253695e-03  -1.000859e-02  0 
VECTORS displacement_ITER5 FLOAT
 -2.053535e-03  -7.784104e-03  0 
 -2.233477e-03  -1.000882e-02  0 
 -1.201917e-03  -7.764914e-03  0 
 -4.155920e-04  -7.754344e-03  0 
 4.343655e-04  -7.754403e-03  0 
 1.220833e-03  -7.765628e-03  0 
 2.071894e-03  -7.784852e-03  0 
 -1.313748e-03  -9.992871e-03  0 
 -4.499210e-04  -9.985225e-03  0 
 4.684318e-04  -9.985202e-03  0 
 1.332422e-03  -9.992477e-03  0 
 2.252453e-03  -1.000841e-02  0 
VECTORS displacement_ITER6 FLOAT
 -2.052855e-03  -7.785331e-03  0 
 -2.233135e-03  -1.000848e-02  0 
 -1.202111e-03  -7.766024e-03  0 
 -4.156849e-04  -7.754717e-03  0 
 4.341544e-04  -7.754773e-03  0 
 1.220996e-03  -7.766667e-03  0 
 2.071572e-03  -7.786004e-03  0 
 -1.313524e-03  -9.992685e-03  0 
 -4.500278e-04  -9.985863e-03  0 
 4.686783e-04  -9.985868e-03  0 
 1.332244e-03  -9.992884e-03  0 
 2.251970e-03  -1.000869e-02  0 
VECTORS displacement_ITER7 FLOAT
 -2.052870e-03  -7.784923e-03  0 
 -2.233246e-03  -1.000866e-02  0 
 -1.201976e-03  -7.765611e-03  0 
 -4.154175e-04  -7.755043e-03  0 
 4.339134e-04  -7.755089e-03  0 
 1.220862e-03  -7.766137e-03  0 
 2.071625e-03  -7.785470e-03  0 
 -1.313178e-03  -9.992887e-03  0 
 -4.498699e-04  -9.985275e-03  0 
 4.686076e-04  -9.985285e-03  0 
 1.331940e-03  -9.993143e-03  0 
 2.251996e-03  -1.000894e-02  0 
VECTORS displacement_ITER8 FLOAT
 -2.052977e-03  -7.784609e-03  0 
 -2.233361e-03  -1.000909e-02  0 
 -1.201853e-03  -7.765310e-03  0 
 -4.151746e-04  -7.755518e-03  0 
 4.336999e-04  -7.755558e-03  0 
 1.220707e-03  -7.765776e-03  0 
 2.071723e-03  -7.785091e-03  0 
 -1.312937e-03  -9.993308e-03  0 
 -4.497620e-04  -9.984934e-03  0 
 4.684939e-04  -9.984942e-03  0 
 1.331695e-03  -9.993475e-03  0 
 2.252084e-03  -1.000926e-02  0 
VECTORS displacement_ITER9 FLOAT
 -2.052992e-03  -7.784831e-03  0 
 -2.233368e-03  -1.000941e-02  0 
 -1.201858e-03  -7.765526e-03  0 
 -4.150629e-04  -7.755946e-03  0 
 4.336230e-04  -7.755982e-03  0 
 1.220691e-03  -7.765960e-03  0 
 2.071730e-03  -7.785278e-03  0 
 -1.312874e-03  -9.993645e-03  0 
 -4.497532e-04  -9.985128e-03  0 
 4.684908e-04  -9.985136e-03  0 
 1.331634e-03  -9.993757e-03  0 
 2.252075e-03  -1.000953e-02  0 
VECTORS displacement_ITER10 FLOAT
 -2.052945e-03  -7.785328e-03  0 
 -2.233313e-03  -1.000959e-02  0 
 -1.201953e-03  -7.766000e-03  0 
 -4.150131e-04  -7.756265e-03  0 
 4.336395e-04  -7.756297e-03  0 
 1.220781e-03  -7.766404e-03  0 
 2.071656e-03  -7.785742e-03  0 
 -1.312900e-03  -9.993854e-03  0 
 -4.497968e-04  -9.985549e-03  0 
 4.685649e-04  -9.985555e-03  0 
 1.331675e-03  -9.993926e-03  0 
 2.251998e-03  -1.000966e-02  0 
VECTORS displacement_ITER11 FLOAT
 -2.052905e-03  -7.785568e-03  0 
 -2.233273e-03  -1.000956e-02  0 
 -1.202038e-03  -7.766223e-03  0 
 -4.150104e-04  -7.756290e-03  0 
 4.336846e-04  -7.756321e-03  0 
 1.220870e-03  -7.766619e-03  0 
 2.071586e-03  -7.785974e-03  0 
 -1.312930e-03  -9.993849e-03  0 
 -4.498362e-04  -9.985725e-03  0 
 4.686201e-04  -9.985732e-03  0 
 1.331715e-03  -9.993903e-03  0 
 2.251953e-03  -1.000962e-02  0 
VECTORS displacement_ITER12 FLOAT
 -2.052910e-03  -7.785541e-03  0 
 -2.233284e-03  -1.000957e-02  0 
 -1.202049e-03  -7.766195e-03  0 
 -4.150070e-04  -7.756276e-03  0 
 4.336852e-04  -7.756308e-03  0 
 1.220879e-03  -7.766600e-03  0 
 2.071585e-03  -7.785958e-03  0 
 -1.312908e-03  -9.993863e-03  0 
 -4.498427e-04  -9.985708e-03  0 
 4.686198e-04  -9.985714e-03  0 
 1.331691e-03  -9.993923e-03  0 
 2.251972e-03  -1.000963e-02  0 
VECTORS displacement_ITER13 FLOAT
 -2.052915e-03  -7.785536e-03  0 
 -2.233290e-03  -1.000959e-02  0 
 -1.202046e-03  -7.766190e-03  0 
 -4.150055e-04  -7.756289e-03  0 
 4.336826e-04  -7.756322e-03  0 
 1.220876e-03  -7.766598e-03  0 
 2.071589e-03  -7.785956e-03  0 
 -1.312899e-03  -9.993886e-03  0 
 -4.498433e-04  -9.985713e-03  0 
 4.686176e-04  -9.985719e-03  0 
 1.331681e-03  -9.993951e-03  0 
 2.251981e-03  -1.000966e-02  0 
VECTORS displacement_ITER14 FLOAT
 -2.052924e-03  -7.785539e-03  0 
 -2.233299e-03  -1.000964e-02  0 
 -1.202041e-03  -7.766195e-03  0 
 -4.150030e-04  -7.756316e-03  0 
 4.336812e-04  -7.756349e-03  0 
 1.220872e-03  -7.766610e-03  0 
 2.071594e-03  -7.785968e-03  0 
 -1.312890e-03  -9.993928e-03  0 
 -4.498427e-04  -9.985735e-03  0 
 4.686172e-04  -9.985741e-03  0 
 1.331672e-03  -9.993989e-03  0 
 2.251988e-03  -1.000970e-02  0 
VECTORS displacement_ITER15 FLOAT
 -2.052919e-03  -7.785550e-03  0 
 -2.233294e-03  -1.000963e-02  0 
 -1.202042e-03  -7.766204e-03  0 
 -4.150079e-04  -7.756320e-03  0 
 4.336774e-04  -7.756352e-03  0 
 1.220871e-03  -7.766609e-03  0 
 2.071599e-03  -7.785967e-03  0 
 -1.312891e-03  -9.993925e-03  0 
 -4.498474e-04  -9.985741e-03  0 
 4.686139e-04  -9.985748e-03  0 
 1.331671e-03  -9.994003e-03  0 
 2.251994e-03  -1.000971e-02  0 
VECTORS displacement_ITER16 FLOAT
 -2.052926e-03  -7.785542e-03  0 
 -2.233302e-03  -1.000964e-02  0 
 -1.202043e-03  -7.766196e-03  0 
 -4.150036e-04  -7.756314e-03  0 
 4.336841e-04  -7.756348e-03  0 
 1.220874e-03  -7.766621e-03  0 
 2.071591e-03  -7.785981e-03  0 
 -1.312891e-03  -9.993934e-03  0 
 -4.498427e-04  -9.985744e-03  0 
 4.686206e-04  -9.985749e-03  0 
 1.331674e-03  -9.993988e-03  0 
 2.251986e-03  -1.000970e-02  0 
VECTORS displacement_ITER17 FLOAT
 -2.052920e-03  -7.785551e-03  0 
 -2.233295e-03  -1.000963e-02  0 
 -1.202044e-03  -7.766205e-03  0 
 -4.150092e-04  -7.756312e-03  0 
 4.336787e-04  -7.756345e-03  0 
 1.220873e-03  -7.766611e-03  0 
 2.071598e-03  -7.785970e-03  0 
 -1.312892e-03  -9.993923e-03  0 
 -4.498481e-04  -9.985743e-03  0 
 4.686154e-04  -9.985748e-03  0 
 1.331673e-03  -9.993996e-03  0 
 2.251993e-03  -1.000970e-02  0 
VECTORS displacement_ITER18 FLOAT
 -2.052922e-03  -7.785546e-03  0 
 -2.233297e-03  -1.000963e-02  0 
 -1.202043e-03  -7.766200e-03  0 
 -4.150076e-04  -7.756311e-03  0 
 4.336798e-04  -7.756344e-03  0 
 1.220873e-03  -7.766613e-03  0 
 2.071597e-03  -7.785972e-03  0 
 -1.312892e-03  -9.993925e-03  0 
 -4.498463e-04  -9.985741e-03  0 
 4.686168e-04  -9.985747e-03  0 
 1.331674e-03  -9.993993e-03  0 
 2.251991e-03  -1.000970e-02  0 
VECTORS displacement_ITER19 FLOAT
 -2.052922e-03  -7.785545e-03  0 
 -2.233298e-03  -1.000963e-02  0 
 -1.202043e-03  -7.766199e-03  0 
 -4.150071e-04  -7.756311e-03  0 
 4.336801e-04  -7.756344e-03  0 
 1.220873e-03  -7.766612e-03  0 
 2.071597e-03  -7.785972e-03  0 
 -1.312892e-03  -9.993926e-03  0 
 -4.498458e-04  -9.985741e-03  0 
 4.686171e-04  -9.985746e-03  0 
 1.331674e-03  -9.993992e-03  0 
 2.251991e-03  -1.000970e-02  0 
VECTORS displacement_ITER20 FLOAT
 -2.052922e-03  -7.785546e-03  0 
 -2.233297e-03  -1.000963e-02  0 
 -1.202043e-03  -7.766200e-03  0 
 -4.150076e-04  -7.756311e-03  0 
 4.336796e-04  -7.756344e-03  0 
 1.220873e-03  -7.766611e-03  0 
 2.071598e-03  -7.785971e-03  0 
 -1.312892e-03  -9.993926e-03  0 
 -4.498464e-04  -9.985741e-03  0 
 4.686167e-04  -9.985746e-03  0 
 1.331674e-03  -9.993993e-03  0 
 2.251992e-03  -1.000970e-02  0 
VECTORS displacement_ITER21 FLOAT
 -2.052922e-03  -7.785546e-03  0 
 -2.233298e-03  -1.000963e-02  0 
 -1.202043e-03  -7.766199e-03  0 
 -4.150074e-04  -7.756311e-03  0 
 4.336798e-04  -7.756344e-03  0 
 1.220873e-03  -7.766611e-03  0 
 2.071597e-03  -7.785971e-03  0 
 -1.312892e-03  -9.993926e-03  0 
 -4.498462e-04  -9.985741e-03  0 
 4.686170e-04  -9.985746e-03  0 
 1.331674e-03  -9.993993e-03  0 
 2.251991e-03  -1.000970e-02  0 
VECTORS displacement_ITER22 FLOAT
 -2.052922e-03  -7.785546e-03  0 
 -2.233298e-03  -1.000963e-02  0 
 -1.202042e-03  -7.766199e-03  0 
 -4.150074e-04  -7.756311e-03  0 
 4.336798e-04  -7.756344e-03  0 
 1.220873e-03  -7.766611e-03  0 
 2.071597e-03  -7.785971e-03  0 
 -1.312892e-03  -9.993926e-03  0 
 -4.498462e-04  -9.985741e-03  0 
 4.686169e-04  -9.985746e-03  0 
 1.331674e-03  -9.993993e-03  0 
 2.251991e-03  -1.000970e-02  0 
VECTORS displacement_ITER23 FLOAT
 -2.052922e-03  -7.785546e-03  0 
 -2.233298e-03  -1.000963e-02  0 
 -1.202042e-03  -7.766199e-03  0 
 -4.150074e-04  -7.756311e-03  0 
 4.336798e-04  -7.756344e-03  0 
 1.220873e-03  -7.766611e-03  0 
 2.071597e-03  -7.785971e-03  0 
 -1.312892e-03  -9.993926e-03  0 
 -4.498462e-04  -9.985741e-03  0 
 4.686169e-04  -9.985746e-03  0 
 1.331674e-03  -9.993993e-03  0 
 2.251991e-03  -1.000970e-02  0 
VECTORS displacement_ITER24 FLOAT
 -2.052922e-03  -7.785546e-03  0 
 -2.233298e-03  -1.000963e-02  0 
 -1.202042e-03  -7.766199e-03  0 
 -4.150074e-04  -7.756311e-03  0 
 4.336798e-04  -7.756344e-03  0 
 1.220873e-03  -7.766611e-03  0 
 2.071597e-03  -7.785971e-03  0 
 -1.312892e-03  -9.993926e-03  0 
 -4.498462e-04  -9.985740e-03  0 
 4.686169e-04  -9.985746e-03  0 
 1.331674e-03  -9.993993e-03  0 
 2.251991e-03  -1.000970e-02  0 
VECTORS displacement_ITER25 FLOAT
 -2.052922e-03  -7.785546e-03  0 
 -2.233298e-03  -1.000963e-02  0 
 -1.202042e-03  -7.766199e-03  0 
 -4.150074e-04  -7.756311e-03  0 
 4.336798e-04  -7.756344e-03  0 
 1.220873e-03  -7.766611e-03  0 
 2.071597e-03  -7.785971e-03  0 
 -1.312892e-03  -9.993926e-03  0 
 -4.498462e-04  -9.985740e-03  0 
 4.686169e-04  -9.985746e-03  0 
 1.331674e-03  -9.993993e-03  0 
 2.251991e-03  -1.000970e-02  0 
CELL_DATA 5
TENSORS element_stresses FLOAT
 -2.911377e-01  -1.815391e-02  0 
 -1.815391e-02  2.914041e-04  0 
 0  0  0 

 -1.452014e-02  -2.553487e-02  0 
 -2.553487e-02  1.623523e-04  0 
 0  0  0 

 7.637552e-05  -3.150466e-02  0 
 -3.150466e-02  -7.321931e-05  0 
 0  0  0 

 1.448931e-02  -2.547376e-02  0 
 -2.547376e-02  -2.817367e-04  0 
 0  0  0 

 2.910921e-01  -1.808280e-02  0 
 -1.808280e-02  -3.434611e-04  0 
 0  0  0 

TENSORS element_stresses FLOAT
 -2.911377e-01  -1.815391e-02  0 
 -1.815391e-02  2.914041e-04  0 
 0  0  0 

 -1.452014e-02  -2.553487e-02  0 
 -2.553487e-02  1.623523e-04  0 
 0  0  0 

 7.637552e-05  -3.150466e-02  0 
 -3.150466e-02  -7.321931e-05  0 
 0  0  0 

 1.448931e-02  -2.547376e-02  0 
 -2.547376e-02  -2.817367e-04  0 
 0  0  0 

 2.910921e-01  -1.808280e-02  0 
 -1.808280e-02  -3.434611e-04  0 
 0  0  0 

