# vtk DataFile Version 3.1
this is an vtk file created by FEMAC
ASCII
DATASET UNSTRUCTURED_GRID
POINTS 12 FLOAT
7.500000 0.000000 0.000000
8.000000 0.000000 0.000000
7.500000 0.200000 0.000000
7.500000 0.400000 0.000000
7.500000 0.600000 0.000000
7.500000 0.800000 0.000000
7.500000 1.000000 0.000000
8.000000 0.200000 0.000000
8.000000 0.400000 0.000000
8.000000 0.600000 0.000000
8.000000 0.800000 0.000000
8.000000 1.000000 0.000000
CELLS 5 25 
4 0 1 7 2
4 2 7 8 3
4 3 8 9 4
4 4  9 10  5
4 5 10 11  6
CELL_TYPES 5
9 9 9 9 9 
POINT_DATA 12
VECTORS displacement_ITER1 FLOAT
 -2.751616e-03  -3.137189e-02  0 
 -2.752611e-03  -3.413696e-02  0 
 -1.645692e-03  -3.137177e-02  0 
 -5.445725e-04  -3.136950e-02  0 
 5.624396e-04  -3.136950e-02  0 
 1.663559e-03  -3.137177e-02  0 
 2.769483e-03  -3.137189e-02  0 
 -1.646875e-03  -3.413677e-02  0 
 -5.442999e-04  -3.413716e-02  0 
 5.621670e-04  -3.413716e-02  0 
 1.664742e-03  -3.413677e-02  0 
 2.770478e-03  -3.413696e-02  0 
VECTORS displacement_ITER2 FLOAT
 -2.734209e-03  -3.117824e-02  0 
 -2.735110e-03  -3.392768e-02  0 
 -1.634238e-03  -3.117809e-02  0 
 -5.407951e-04  -3.117731e-02  0 
 5.591142e-04  -3.117731e-02  0 
 1.652557e-03  -3.117809e-02  0 
 2.752528e-03  -3.117824e-02  0 
 -1.635787e-03  -3.392746e-02  0 
 -5.403770e-04  -3.392685e-02  0 
 5.586961e-04  -3.392685e-02  0 
 1.654106e-03  -3.392746e-02  0 
 2.753429e-03  -3.392768e-02  0 
VECTORS displacement_ITER3 FLOAT
 -2.721810e-03  -3.106396e-02  0 
 -2.722648e-03  -3.380241e-02  0 
 -1.626061e-03  -3.106379e-02  0 
 -5.379485e-04  -3.106433e-02  0 
 5.567658e-04  -3.106433e-02  0 
 1.644878e-03  -3.106379e-02  0 
 2.740628e-03  -3.106396e-02  0 
 -1.627814e-03  -3.380216e-02  0 
 -5.374638e-04  -3.380074e-02  0 
 5.562811e-04  -3.380074e-02  0 
 1.646632e-03  -3.380216e-02  0 
 2.741465e-03  -3.380241e-02  0 
VECTORS displacement_ITER4 FLOAT
 -2.719786e-03  -3.104641e-02  0 
 -2.720640e-03  -3.378262e-02  0 
 -1.624935e-03  -3.104620e-02  0 
 -5.375799e-04  -3.104645e-02  0 
 5.564502e-04  -3.104645e-02  0 
 1.643805e-03  -3.104620e-02  0 
 2.738656e-03  -3.104641e-02  0 
 -1.626683e-03  -3.378239e-02  0 
 -5.370937e-04  -3.378113e-02  0 
 5.559640e-04  -3.378113e-02  0 
 1.645553e-03  -3.378239e-02  0 
 2.739510e-03  -3.378262e-02  0 
VECTORS displacement_ITER5 FLOAT
 -2.718394e-03  -3.103371e-02  0 
 -2.719283e-03  -3.376799e-02  0 
 -1.624349e-03  -3.103344e-02  0 
 -5.374207e-04  -3.103309e-02  0 
 5.562438e-04  -3.103309e-02  0 
 1.643172e-03  -3.103344e-02  0 
 2.737217e-03  -3.103371e-02  0 
 -1.626054e-03  -3.376779e-02  0 
 -5.369458e-04  -3.376688e-02  0 
 5.557689e-04  -3.376688e-02  0 
 1.644877e-03  -3.376779e-02  0 
 2.738106e-03  -3.376799e-02  0 
VECTORS displacement_ITER6 FLOAT
 -2.717835e-03  -3.102922e-02  0 
 -2.718738e-03  -3.376273e-02  0 
 -1.624120e-03  -3.102893e-02  0 
 -5.373438e-04  -3.102842e-02  0 
 5.561199e-04  -3.102842e-02  0 
 1.642896e-03  -3.102893e-02  0 
 2.736611e-03  -3.102922e-02  0 
 -1.625795e-03  -3.376254e-02  0 
 -5.368840e-04  -3.376174e-02  0 
 5.556601e-04  -3.376174e-02  0 
 1.644571e-03  -3.376254e-02  0 
 2.737514e-03  -3.376273e-02  0 
VECTORS displacement_ITER7 FLOAT
 -2.717616e-03  -3.102835e-02  0 
 -2.718520e-03  -3.376164e-02  0 
 -1.624001e-03  -3.102807e-02  0 
 -5.372811e-04  -3.102762e-02  0 
 5.560356e-04  -3.102762e-02  0 
 1.642755e-03  -3.102807e-02  0 
 2.736371e-03  -3.102835e-02  0 
 -1.625659e-03  -3.376146e-02  0 
 -5.368353e-04  -3.376062e-02  0 
 5.555898e-04  -3.376062e-02  0 
 1.644413e-03  -3.376146e-02  0 
 2.737275e-03  -3.376164e-02  0 
VECTORS displacement_ITER8 FLOAT
 -2.717421e-03  -3.102821e-02  0 
 -2.718331e-03  -3.376119e-02  0 
 -1.623940e-03  -3.102792e-02  0 
 -5.372870e-04  -3.102743e-02  0 
 5.559363e-04  -3.102742e-02  0 
 1.642653e-03  -3.102766e-02  0 
 2.736319e-03  -3.102794e-02  0 
 -1.625585e-03  -3.376101e-02  0 
 -5.368554e-04  -3.376021e-02  0 
 5.554934e-04  -3.376022e-02  0 
 1.644309e-03  -3.376117e-02  0 
 2.737215e-03  -3.376135e-02  0 
VECTORS displacement_ITER9 FLOAT
 -2.717629e-03  -3.102737e-02  0 
 -2.718510e-03  -3.376106e-02  0 
 -1.623837e-03  -3.102710e-02  0 
 -5.370736e-04  -3.102706e-02  0 
 5.561101e-04  -3.102709e-02  0 
 1.642670e-03  -3.102775e-02  0 
 2.735970e-03  -3.102805e-02  0 
 -1.625498e-03  -3.376087e-02  0 
 -5.366312e-04  -3.375978e-02  0 
 5.556838e-04  -3.375976e-02  0 
 1.644306e-03  -3.376044e-02  0 
 2.736895e-03  -3.376062e-02  0 
VECTORS displacement_ITER10 FLOAT
 -2.717178e-03  -3.102756e-02  0 
 -2.718105e-03  -3.376012e-02  0 
 -1.623880e-03  -3.102726e-02  0 
 -5.373486e-04  -3.102664e-02  0 
 5.558114e-04  -3.102661e-02  0 
 1.642563e-03  -3.102670e-02  0 
 2.736300e-03  -3.102698e-02  0 
 -1.625518e-03  -3.375995e-02  0 
 -5.369145e-04  -3.375926e-02  0 
 5.553788e-04  -3.375928e-02  0 
 1.644219e-03  -3.376035e-02  0 
 2.737181e-03  -3.376054e-02  0 
VECTORS displacement_ITER11 FLOAT
 -2.717392e-03  -3.102704e-02  0 
 -2.718288e-03  -3.376021e-02  0 
 -1.623824e-03  -3.102676e-02  0 
 -5.371522e-04  -3.102647e-02  0 
 5.559940e-04  -3.102648e-02  0 
 1.642589e-03  -3.102691e-02  0 
 2.736028e-03  -3.102720e-02  0 
 -1.625472e-03  -3.376003e-02  0 
 -5.367224e-04  -3.375909e-02  0 
 5.555582e-04  -3.375909e-02  0 
 1.644232e-03  -3.375991e-02  0 
 2.736941e-03  -3.376009e-02  0 
VECTORS displacement_ITER12 FLOAT
 -2.717326e-03  -3.102711e-02  0 
 -2.718232e-03  -3.376014e-02  0 
 -1.623825e-03  -3.102682e-02  0 
 -5.371903e-04  -3.102649e-02  0 
 5.559469e-04  -3.102649e-02  0 
 1.642573e-03  -3.102685e-02  0 
 2.736067e-03  -3.102714e-02  0 
 -1.625467e-03  -3.375996e-02  0 
 -5.367575e-04  -3.375908e-02  0 
 5.555154e-04  -3.375908e-02  0 
 1.644219e-03  -3.375996e-02  0 
 2.736971e-03  -3.376014e-02  0 
VECTORS displacement_ITER13 FLOAT
 -2.717315e-03  -3.102712e-02  0 
 -2.718220e-03  -3.376012e-02  0 
 -1.623823e-03  -3.102683e-02  0 
 -5.371941e-04  -3.102647e-02  0 
 5.559412e-04  -3.102647e-02  0 
 1.642572e-03  -3.102682e-02  0 
 2.736070e-03  -3.102711e-02  0 
 -1.625466e-03  -3.375994e-02  0 
 -5.367626e-04  -3.375906e-02  0 
 5.555088e-04  -3.375906e-02  0 
 1.644215e-03  -3.375994e-02  0 
 2.736975e-03  -3.376012e-02  0 
VECTORS displacement_ITER14 FLOAT
 -2.717313e-03  -3.102709e-02  0 
 -2.718217e-03  -3.376009e-02  0 
 -1.623820e-03  -3.102680e-02  0 
 -5.371928e-04  -3.102644e-02  0 
 5.559412e-04  -3.102644e-02  0 
 1.642571e-03  -3.102679e-02  0 
 2.736064e-03  -3.102708e-02  0 
 -1.625464e-03  -3.375991e-02  0 
 -5.367611e-04  -3.375903e-02  0 
 5.555094e-04  -3.375903e-02  0 
 1.644213e-03  -3.375990e-02  0 
 2.736969e-03  -3.376009e-02  0 
VECTORS displacement_ITER15 FLOAT
 -2.717311e-03  -3.102708e-02  0 
 -2.718216e-03  -3.376008e-02  0 
 -1.623820e-03  -3.102679e-02  0 
 -5.371928e-04  -3.102644e-02  0 
 5.559405e-04  -3.102644e-02  0 
 1.642570e-03  -3.102679e-02  0 
 2.736063e-03  -3.102708e-02  0 
 -1.625463e-03  -3.375990e-02  0 
 -5.367608e-04  -3.375902e-02  0 
 5.555092e-04  -3.375902e-02  0 
 1.644213e-03  -3.375990e-02  0 
 2.736967e-03  -3.376008e-02  0 
VECTORS displacement_ITER16 FLOAT
 -2.717310e-03  -3.102708e-02  0 
 -2.718215e-03  -3.376008e-02  0 
 -1.623819e-03  -3.102679e-02  0 
 -5.371923e-04  -3.102644e-02  0 
 5.559402e-04  -3.102644e-02  0 
 1.642569e-03  -3.102679e-02  0 
 2.736062e-03  -3.102708e-02  0 
 -1.625462e-03  -3.375990e-02  0 
 -5.367605e-04  -3.375902e-02  0 
 5.555090e-04  -3.375902e-02  0 
 1.644212e-03  -3.375990e-02  0 
 2.736966e-03  -3.376008e-02  0 
VECTORS displacement_ITER17 FLOAT
 -2.717310e-03  -3.102708e-02  0 
 -2.718215e-03  -3.376008e-02  0 
 -1.623819e-03  -3.102679e-02  0 
 -5.371916e-04  -3.102644e-02  0 
 5.559408e-04  -3.102644e-02  0 
 1.642569e-03  -3.102679e-02  0 
 2.736061e-03  -3.102708e-02  0 
 -1.625462e-03  -3.375990e-02  0 
 -5.367600e-04  -3.375902e-02  0 
 5.555094e-04  -3.375902e-02  0 
 1.644212e-03  -3.375990e-02  0 
 2.736966e-03  -3.376008e-02  0 
VECTORS displacement_ITER18 FLOAT
 -2.717310e-03  -3.102708e-02  0 
 -2.718215e-03  -3.376008e-02  0 
 -1.623819e-03  -3.102679e-02  0 
 -5.371912e-04  -3.102644e-02  0 
 5.559413e-04  -3.102644e-02  0 
 1.642569e-03  -3.102679e-02  0 
 2.736060e-03  -3.102708e-02  0 
 -1.625462e-03  -3.375990e-02  0 
 -5.367597e-04  -3.375902e-02  0 
 5.555097e-04  -3.375902e-02  0 
 1.644212e-03  -3.375990e-02  0 
 2.736965e-03  -3.376008e-02  0 
VECTORS displacement_ITER19 FLOAT
 -2.717310e-03  -3.102708e-02  0 
 -2.718215e-03  -3.376008e-02  0 
 -1.623819e-03  -3.102679e-02  0 
 -5.371911e-04  -3.102644e-02  0 
 5.559413e-04  -3.102644e-02  0 
 1.642569e-03  -3.102679e-02  0 
 2.736060e-03  -3.102708e-02  0 
 -1.625462e-03  -3.375990e-02  0 
 -5.367596e-04  -3.375902e-02  0 
 5.555097e-04  -3.375902e-02  0 
 1.644212e-03  -3.375990e-02  0 
 2.736965e-03  -3.376008e-02  0 
VECTORS displacement_ITER20 FLOAT
 -2.717310e-03  -3.102708e-02  0 
 -2.718215e-03  -3.376008e-02  0 
 -1.623819e-03  -3.102679e-02  0 
 -5.371911e-04  -3.102644e-02  0 
 5.559411e-04  -3.102644e-02  0 
 1.642569e-03  -3.102679e-02  0 
 2.736060e-03  -3.102708e-02  0 
 -1.625462e-03  -3.375990e-02  0 
 -5.367596e-04  -3.375902e-02  0 
 5.555096e-04  -3.375902e-02  0 
 1.644212e-03  -3.375990e-02  0 
 2.736965e-03  -3.376008e-02  0 
VECTORS displacement_ITER21 FLOAT
 -2.717310e-03  -3.102708e-02  0 
 -2.718215e-03  -3.376008e-02  0 
 -1.623819e-03  -3.102679e-02  0 
 -5.371910e-04  -3.102644e-02  0 
 5.559411e-04  -3.102644e-02  0 
 1.642569e-03  -3.102679e-02  0 
 2.736060e-03  -3.102708e-02  0 
 -1.625462e-03  -3.375990e-02  0 
 -5.367596e-04  -3.375902e-02  0 
 5.555096e-04  -3.375902e-02  0 
 1.644212e-03  -3.375990e-02  0 
 2.736965e-03  -3.376008e-02  0 
VECTORS displacement_ITER22 FLOAT
 -2.717310e-03  -3.102708e-02  0 
 -2.718215e-03  -3.376008e-02  0 
 -1.623819e-03  -3.102679e-02  0 
 -5.371911e-04  -3.102644e-02  0 
 5.559411e-04  -3.102644e-02  0 
 1.642569e-03  -3.102679e-02  0 
 2.736060e-03  -3.102708e-02  0 
 -1.625462e-03  -3.375990e-02  0 
 -5.367596e-04  -3.375902e-02  0 
 5.555096e-04  -3.375902e-02  0 
 1.644212e-03  -3.375990e-02  0 
 2.736965e-03  -3.376008e-02  0 
VECTORS displacement_ITER23 FLOAT
 -2.717310e-03  -3.102708e-02  0 
 -2.718215e-03  -3.376008e-02  0 
 -1.623819e-03  -3.102679e-02  0 
 -5.371911e-04  -3.102644e-02  0 
 5.559411e-04  -3.102644e-02  0 
 1.642569e-03  -3.102679e-02  0 
 2.736060e-03  -3.102708e-02  0 
 -1.625462e-03  -3.375990e-02  0 
 -5.367596e-04  -3.375902e-02  0 
 5.555096e-04  -3.375902e-02  0 
 1.644212e-03  -3.375990e-02  0 
 2.736965e-03  -3.376008e-02  0 
VECTORS displacement_ITER24 FLOAT
 -2.717310e-03  -3.102708e-02  0 
 -2.718215e-03  -3.376008e-02  0 
 -1.623819e-03  -3.102679e-02  0 
 -5.371911e-04  -3.102644e-02  0 
 5.559411e-04  -3.102644e-02  0 
 1.642569e-03  -3.102679e-02  0 
 2.736060e-03  -3.102708e-02  0 
 -1.625462e-03  -3.375990e-02  0 
 -5.367596e-04  -3.375902e-02  0 
 5.555096e-04  -3.375902e-02  0 
 1.644212e-03  -3.375990e-02  0 
 2.736965e-03  -3.376008e-02  0 
VECTORS displacement_ITER25 FLOAT
 -2.717310e-03  -3.102708e-02  0 
 -2.718215e-03  -3.376008e-02  0 
 -1.623819e-03  -3.102679e-02  0 
 -5.371911e-04  -3.102644e-02  0 
 5.559411e-04  -3.102644e-02  0 
 1.642569e-03  -3.102679e-02  0 
 2.736060e-03  -3.102708e-02  0 
 -1.625462e-03  -3.375990e-02  0 
 -5.367596e-04  -3.375902e-02  0 
 5.555096e-04  -3.375902e-02  0 
 1.644212e-03  -3.375990e-02  0 
 2.736965e-03  -3.376008e-02  0 
CELL_DATA 5
TENSORS element_stresses FLOAT
 -2.410878e-03  -3.829990e-04  0 
 -3.829990e-04  4.559683e-04  0 
 0  0  0 

 -3.175003e-05  -2.104772e-03  0 
 -2.104772e-03  2.979774e-04  0 
 0  0  0 

 -6.476562e-10  -1.274461e-03  0 
 -1.274461e-03  1.133074e-09  0 
 0  0  0 

 3.175039e-05  -2.104773e-03  0 
 -2.104773e-03  -2.979770e-04  0 
 0  0  0 

 2.410878e-03  -3.829943e-04  0 
 -3.829943e-04  -4.559686e-04  0 
 0  0  0 

TENSORS element_stresses FLOAT
 -2.410878e-03  -3.829990e-04  0 
 -3.829990e-04  4.559683e-04  0 
 0  0  0 

 -3.175003e-05  -2.104772e-03  0 
 -2.104772e-03  2.979774e-04  0 
 0  0  0 

 -6.476562e-10  -1.274461e-03  0 
 -1.274461e-03  1.133074e-09  0 
 0  0  0 

 3.175039e-05  -2.104773e-03  0 
 -2.104773e-03  -2.979770e-04  0 
 0  0  0 

 2.410878e-03  -3.829943e-04  0 
 -3.829943e-04  -4.559686e-04  0 
 0  0  0 

