# vtk DataFile Version 3.1
this is an vtk file created by FEMAC
ASCII
DATASET UNSTRUCTURED_GRID
POINTS 12 FLOAT
2.000000 0.000000 0.000000
2.500000 0.000000 0.000000
2.000000 0.200000 0.000000
2.000000 0.400000 0.000000
2.000000 0.600000 0.000000
2.000000 0.800000 0.000000
2.000000 1.000000 0.000000
2.500000 0.200000 0.000000
2.500000 0.400000 0.000000
2.500000 0.600000 0.000000
2.500000 0.800000 0.000000
2.500000 1.000000 0.000000
CELLS 5 25 
4 0 1 7 2
4 2 7 8 3
4 3 8 9 4
4 4  9 10  5
4 5 10 11  6
CELL_TYPES 5
9 9 9 9 9 
POINT_DATA 12
VECTORS displacement_ITER1 FLOAT
 -1.588438e-03  -3.980696e-03  0 
 -1.849999e-03  -5.785384e-03  0 
 -9.131787e-04  -3.954715e-03  0 
 -3.376347e-04  -3.917768e-03  0 
 3.555018e-04  -3.917768e-03  0 
 9.310458e-04  -3.954715e-03  0 
 1.606305e-03  -3.980696e-03  0 
 -1.092796e-03  -5.758391e-03  0 
 -3.748197e-04  -5.767809e-03  0 
 3.926867e-04  -5.767809e-03  0 
 1.110663e-03  -5.758391e-03  0 
 1.867866e-03  -5.785384e-03  0 
VECTORS displacement_ITER2 FLOAT
 -1.575928e-03  -3.959601e-03  0 
 -1.839032e-03  -5.754031e-03  0 
 -9.096115e-04  -3.932611e-03  0 
 -3.303445e-04  -3.902636e-03  0 
 3.475912e-04  -3.902496e-03  0 
 9.275457e-04  -3.930017e-03  0 
 1.595840e-03  -3.956906e-03  0 
 -1.080427e-03  -5.728832e-03  0 
 -3.740804e-04  -5.730776e-03  0 
 3.912270e-04  -5.730855e-03  0 
 1.098501e-03  -5.730539e-03  0 
 1.858769e-03  -5.755809e-03  0 
VECTORS displacement_ITER3 FLOAT
 -1.568919e-03  -3.945465e-03  0 
 -1.833985e-03  -5.745745e-03  0 
 -9.054798e-04  -3.918332e-03  0 
 -3.236955e-04  -3.905016e-03  0 
 3.390955e-04  -3.904894e-03  0 
 9.226093e-04  -3.916870e-03  0 
 1.591068e-03  -3.943971e-03  0 
 -1.069727e-03  -5.721367e-03  0 
 -3.717066e-04  -5.708112e-03  0 
 3.885301e-04  -5.708188e-03  0 
 1.087591e-03  -5.723004e-03  0 
 1.853766e-03  -5.747445e-03  0 
VECTORS displacement_ITER4 FLOAT
 -1.568347e-03  -3.948547e-03  0 
 -1.833496e-03  -5.748454e-03  0 
 -9.046962e-04  -3.921319e-03  0 
 -3.216123e-04  -3.909859e-03  0 
 3.386743e-04  -3.909661e-03  0 
 9.224641e-04  -3.918815e-03  0 
 1.590118e-03  -3.945966e-03  0 
 -1.067764e-03  -5.724322e-03  0 
 -3.708685e-04  -5.709803e-03  0 
 3.892009e-04  -5.709910e-03  0 
 1.086463e-03  -5.726364e-03  0 
 1.852750e-03  -5.750573e-03  0 
VECTORS displacement_ITER5 FLOAT
 -1.567947e-03  -3.955541e-03  0 
 -1.832716e-03  -5.752910e-03  0 
 -9.053383e-04  -3.928074e-03  0 
 -3.205987e-04  -3.915251e-03  0 
 3.389195e-04  -3.915007e-03  0 
 9.231184e-04  -3.925156e-03  0 
 1.588712e-03  -3.952541e-03  0 
 -1.067408e-03  -5.729130e-03  0 
 -3.714001e-04  -5.716033e-03  0 
 3.899858e-04  -5.716091e-03  0 
 1.086213e-03  -5.729911e-03  0 
 1.851718e-03  -5.753694e-03  0 
VECTORS displacement_ITER6 FLOAT
 -1.567473e-03  -3.958930e-03  0 
 -1.832233e-03  -5.753750e-03  0 
 -9.062025e-04  -3.931281e-03  0 
 -3.205737e-04  -3.916553e-03  0 
 3.391647e-04  -3.916299e-03  0 
 9.238424e-04  -3.928343e-03  0 
 1.587919e-03  -3.955926e-03  0 
 -1.067643e-03  -5.730202e-03  0 
 -3.719447e-04  -5.718794e-03  0 
 3.904648e-04  -5.718834e-03  0 
 1.086368e-03  -5.730589e-03  0 
 1.851162e-03  -5.754114e-03  0 
VECTORS displacement_ITER7 FLOAT
 -1.567262e-03  -3.959623e-03  0 
 -1.832111e-03  -5.753292e-03  0 
 -9.067024e-04  -3.931884e-03  0 
 -3.206231e-04  -3.916159e-03  0 
 3.393265e-04  -3.915907e-03  0 
 9.243125e-04  -3.928984e-03  0 
 1.587565e-03  -3.956673e-03  0 
 -1.067720e-03  -5.729853e-03  0 
 -3.721607e-04  -5.719057e-03  0 
 3.906684e-04  -5.719093e-03  0 
 1.086422e-03  -5.730225e-03  0 
 1.851037e-03  -5.753641e-03  0 
VECTORS displacement_ITER8 FLOAT
 -1.567319e-03  -3.959500e-03  0 
 -1.832197e-03  -5.753322e-03  0 
 -9.068223e-04  -3.931744e-03  0 
 -3.205425e-04  -3.916008e-03  0 
 3.393472e-04  -3.915760e-03  0 
 9.244551e-04  -3.928888e-03  0 
 1.587489e-03  -3.956608e-03  0 
 -1.067577e-03  -5.729913e-03  0 
 -3.721845e-04  -5.718842e-03  0 
 3.906804e-04  -5.718874e-03  0 
 1.086274e-03  -5.730283e-03  0 
 1.851160e-03  -5.753671e-03  0 
VECTORS displacement_ITER9 FLOAT
 -1.567458e-03  -3.959392e-03  0 
 -1.832327e-03  -5.753836e-03  0 
 -9.067552e-04  -3.931653e-03  0 
 -3.204401e-04  -3.916332e-03  0 
 3.392624e-04  -3.916090e-03  0 
 9.244044e-04  -3.928846e-03  0 
 1.587566e-03  -3.956558e-03  0 
 -1.067391e-03  -5.730424e-03  0 
 -3.721571e-04  -5.718865e-03  0 
 3.906177e-04  -5.718893e-03  0 
 1.086075e-03  -5.730805e-03  0 
 1.851336e-03  -5.754201e-03  0 
VECTORS displacement_ITER10 FLOAT
 -1.567566e-03  -3.959468e-03  0 
 -1.832421e-03  -5.754404e-03  0 
 -9.066884e-04  -3.931745e-03  0 
 -3.203769e-04  -3.916786e-03  0 
 3.391511e-04  -3.916549e-03  0 
 9.243425e-04  -3.928988e-03  0 
 1.587669e-03  -3.956695e-03  0 
 -1.067260e-03  -5.730993e-03  0 
 -3.721550e-04  -5.719102e-03  0 
 3.905690e-04  -5.719128e-03  0 
 1.085922e-03  -5.731418e-03  0 
 1.851473e-03  -5.754817e-03  0 
VECTORS displacement_ITER11 FLOAT
 -1.567563e-03  -3.959611e-03  0 
 -1.832415e-03  -5.754484e-03  0 
 -9.067125e-04  -3.931880e-03  0 
 -3.203911e-04  -3.916878e-03  0 
 3.391168e-04  -3.916644e-03  0 
 9.243677e-04  -3.929140e-03  0 
 1.587690e-03  -3.956857e-03  0 
 -1.067276e-03  -5.731088e-03  0 
 -3.721930e-04  -5.719266e-03  0 
 3.905880e-04  -5.719291e-03  0 
 1.085928e-03  -5.731541e-03  0 
 1.851480e-03  -5.754930e-03  0 
VECTORS displacement_ITER12 FLOAT
 -1.567557e-03  -3.959616e-03  0 
 -1.832404e-03  -5.754408e-03  0 
 -9.067272e-04  -3.931877e-03  0 
 -3.204014e-04  -3.916794e-03  0 
 3.391176e-04  -3.916559e-03  0 
 9.243883e-04  -3.929131e-03  0 
 1.587688e-03  -3.956857e-03  0 
 -1.067301e-03  -5.731021e-03  0 
 -3.722140e-04  -5.719258e-03  0 
 3.906094e-04  -5.719282e-03  0 
 1.085954e-03  -5.731463e-03  0 
 1.851468e-03  -5.754843e-03  0 
VECTORS displacement_ITER13 FLOAT
 -1.567560e-03  -3.959607e-03  0 
 -1.832406e-03  -5.754405e-03  0 
 -9.067237e-04  -3.931867e-03  0 
 -3.204021e-04  -3.916780e-03  0 
 3.391160e-04  -3.916546e-03  0 
 9.243866e-04  -3.929118e-03  0 
 1.587693e-03  -3.956845e-03  0 
 -1.067302e-03  -5.731019e-03  0 
 -3.722162e-04  -5.719251e-03  0 
 3.906129e-04  -5.719275e-03  0 
 1.085956e-03  -5.731456e-03  0 
 1.851469e-03  -5.754835e-03  0 
VECTORS displacement_ITER14 FLOAT
 -1.567567e-03  -3.959594e-03  0 
 -1.832412e-03  -5.754421e-03  0 
 -9.067137e-04  -3.931853e-03  0 
 -3.204015e-04  -3.916782e-03  0 
 3.391128e-04  -3.916547e-03  0 
 9.243785e-04  -3.929101e-03  0 
 1.587703e-03  -3.956828e-03  0 
 -1.067299e-03  -5.731036e-03  0 
 -3.722153e-04  -5.719247e-03  0 
 3.906148e-04  -5.719271e-03  0 
 1.085953e-03  -5.731469e-03  0 
 1.851472e-03  -5.754848e-03  0 
VECTORS displacement_ITER15 FLOAT
 -1.567568e-03  -3.959593e-03  0 
 -1.832412e-03  -5.754422e-03  0 
 -9.067118e-04  -3.931852e-03  0 
 -3.204027e-04  -3.916781e-03  0 
 3.391126e-04  -3.916546e-03  0 
 9.243771e-04  -3.929097e-03  0 
 1.587705e-03  -3.956825e-03  0 
 -1.067300e-03  -5.731037e-03  0 
 -3.722163e-04  -5.719248e-03  0 
 3.906157e-04  -5.719272e-03  0 
 1.085954e-03  -5.731472e-03  0 
 1.851473e-03  -5.754850e-03  0 
VECTORS displacement_ITER16 FLOAT
 -1.567570e-03  -3.959590e-03  0 
 -1.832414e-03  -5.754423e-03  0 
 -9.067106e-04  -3.931848e-03  0 
 -3.204021e-04  -3.916778e-03  0 
 3.391160e-04  -3.916543e-03  0 
 9.243777e-04  -3.929099e-03  0 
 1.587703e-03  -3.956827e-03  0 
 -1.067302e-03  -5.731039e-03  0 
 -3.722155e-04  -5.719249e-03  0 
 3.906196e-04  -5.719274e-03  0 
 1.085957e-03  -5.731465e-03  0 
 1.851469e-03  -5.754842e-03  0 
VECTORS displacement_ITER17 FLOAT
 -1.567567e-03  -3.959594e-03  0 
 -1.832410e-03  -5.754415e-03  0 
 -9.067105e-04  -3.931851e-03  0 
 -3.204053e-04  -3.916777e-03  0 
 3.391131e-04  -3.916542e-03  0 
 9.243767e-04  -3.929092e-03  0 
 1.587707e-03  -3.956821e-03  0 
 -1.067303e-03  -5.731032e-03  0 
 -3.722185e-04  -5.719248e-03  0 
 3.906170e-04  -5.719273e-03  0 
 1.085957e-03  -5.731469e-03  0 
 1.851473e-03  -5.754847e-03  0 
VECTORS displacement_ITER18 FLOAT
 -1.567571e-03  -3.959587e-03  0 
 -1.832413e-03  -5.754419e-03  0 
 -9.067093e-04  -3.931845e-03  0 
 -3.204022e-04  -3.916777e-03  0 
 3.391155e-04  -3.916541e-03  0 
 9.243767e-04  -3.929095e-03  0 
 1.587704e-03  -3.956824e-03  0 
 -1.067303e-03  -5.731036e-03  0 
 -3.722154e-04  -5.719247e-03  0 
 3.906194e-04  -5.719272e-03  0 
 1.085957e-03  -5.731464e-03  0 
 1.851470e-03  -5.754841e-03  0 
VECTORS displacement_ITER19 FLOAT
 -1.567569e-03  -3.959590e-03  0 
 -1.832411e-03  -5.754416e-03  0 
 -9.067095e-04  -3.931847e-03  0 
 -3.204034e-04  -3.916777e-03  0 
 3.391138e-04  -3.916541e-03  0 
 9.243764e-04  -3.929092e-03  0 
 1.587706e-03  -3.956821e-03  0 
 -1.067303e-03  -5.731033e-03  0 
 -3.722167e-04  -5.719246e-03  0 
 3.906177e-04  -5.719271e-03  0 
 1.085957e-03  -5.731466e-03  0 
 1.851471e-03  -5.754843e-03  0 
VECTORS displacement_ITER20 FLOAT
 -1.567569e-03  -3.959590e-03  0 
 -1.832411e-03  -5.754416e-03  0 
 -9.067097e-04  -3.931847e-03  0 
 -3.204032e-04  -3.916777e-03  0 
 3.391138e-04  -3.916542e-03  0 
 9.243767e-04  -3.929093e-03  0 
 1.587706e-03  -3.956822e-03  0 
 -1.067304e-03  -5.731032e-03  0 
 -3.722165e-04  -5.719246e-03  0 
 3.906177e-04  -5.719271e-03  0 
 1.085958e-03  -5.731465e-03  0 
 1.851471e-03  -5.754842e-03  0 
VECTORS displacement_ITER21 FLOAT
 -1.567569e-03  -3.959590e-03  0 
 -1.832411e-03  -5.754416e-03  0 
 -9.067097e-04  -3.931847e-03  0 
 -3.204029e-04  -3.916777e-03  0 
 3.391140e-04  -3.916541e-03  0 
 9.243767e-04  -3.929093e-03  0 
 1.587705e-03  -3.956822e-03  0 
 -1.067304e-03  -5.731033e-03  0 
 -3.722164e-04  -5.719246e-03  0 
 3.906179e-04  -5.719270e-03  0 
 1.085958e-03  -5.731464e-03  0 
 1.851471e-03  -5.754842e-03  0 
VECTORS displacement_ITER22 FLOAT
 -1.567569e-03  -3.959590e-03  0 
 -1.832411e-03  -5.754416e-03  0 
 -9.067096e-04  -3.931847e-03  0 
 -3.204030e-04  -3.916777e-03  0 
 3.391139e-04  -3.916541e-03  0 
 9.243766e-04  -3.929093e-03  0 
 1.587706e-03  -3.956822e-03  0 
 -1.067304e-03  -5.731032e-03  0 
 -3.722165e-04  -5.719245e-03  0 
 3.906178e-04  -5.719270e-03  0 
 1.085957e-03  -5.731465e-03  0 
 1.851471e-03  -5.754842e-03  0 
VECTORS displacement_ITER23 FLOAT
 -1.567569e-03  -3.959590e-03  0 
 -1.832411e-03  -5.754416e-03  0 
 -9.067096e-04  -3.931847e-03  0 
 -3.204030e-04  -3.916777e-03  0 
 3.391139e-04  -3.916541e-03  0 
 9.243766e-04  -3.929093e-03  0 
 1.587706e-03  -3.956822e-03  0 
 -1.067304e-03  -5.731033e-03  0 
 -3.722165e-04  -5.719245e-03  0 
 3.906179e-04  -5.719270e-03  0 
 1.085958e-03  -5.731465e-03  0 
 1.851471e-03  -5.754842e-03  0 
VECTORS displacement_ITER24 FLOAT
 -1.567569e-03  -3.959590e-03  0 
 -1.832411e-03  -5.754416e-03  0 
 -9.067096e-04  -3.931847e-03  0 
 -3.204030e-04  -3.916777e-03  0 
 3.391139e-04  -3.916541e-03  0 
 9.243766e-04  -3.929093e-03  0 
 1.587706e-03  -3.956822e-03  0 
 -1.067304e-03  -5.731032e-03  0 
 -3.722165e-04  -5.719245e-03  0 
 3.906179e-04  -5.719270e-03  0 
 1.085958e-03  -5.731465e-03  0 
 1.851471e-03  -5.754842e-03  0 
VECTORS displacement_ITER25 FLOAT
 -1.567569e-03  -3.959590e-03  0 
 -1.832411e-03  -5.754416e-03  0 
 -9.067096e-04  -3.931847e-03  0 
 -3.204030e-04  -3.916777e-03  0 
 3.391139e-04  -3.916541e-03  0 
 9.243766e-04  -3.929093e-03  0 
 1.587706e-03  -3.956822e-03  0 
 -1.067304e-03  -5.731032e-03  0 
 -3.722165e-04  -5.719245e-03  0 
 3.906179e-04  -5.719270e-03  0 
 1.085958e-03  -5.731465e-03  0 
 1.851471e-03  -5.754842e-03  0 
CELL_DATA 5
TENSORS element_stresses FLOAT
 -4.253747e-01  -2.238000e-02  0 
 -2.238000e-02  2.040105e-04  0 
 0  0  0 

 -2.112801e-02  -3.062847e-02  0 
 -3.062847e-02  3.758383e-04  0 
 0  0  0 

 -1.667491e-04  -3.793821e-02  0 
 -3.793821e-02  4.758945e-04  0 
 0  0  0 

 2.137642e-02  -3.104575e-02  0 
 -3.104575e-02  2.264566e-04  0 
 0  0  0 

 4.252930e-01  -2.175757e-02  0 
 -2.175757e-02  -1.777205e-04  0 
 0  0  0 

TENSORS element_stresses FLOAT
 -4.253747e-01  -2.238000e-02  0 
 -2.238000e-02  2.040105e-04  0 
 0  0  0 

 -2.112801e-02  -3.062847e-02  0 
 -3.062847e-02  3.758383e-04  0 
 0  0  0 

 -1.667491e-04  -3.793821e-02  0 
 -3.793821e-02  4.758945e-04  0 
 0  0  0 

 2.137642e-02  -3.104575e-02  0 
 -3.104575e-02  2.264566e-04  0 
 0  0  0 

 4.252930e-01  -2.175757e-02  0 
 -2.175757e-02  -1.777205e-04  0 
 0  0  0 

