# vtk DataFile Version 3.1
this is an vtk file created by FEMAC
ASCII
DATASET UNSTRUCTURED_GRID
POINTS 12 FLOAT
5.000000 0.000000 0.000000
5.500000 0.000000 0.000000
5.000000 0.200000 0.000000
5.000000 0.400000 0.000000
5.000000 0.600000 0.000000
5.000000 0.800000 0.000000
5.000000 1.000000 0.000000
5.500000 0.200000 0.000000
5.500000 0.400000 0.000000
5.500000 0.600000 0.000000
5.500000 0.800000 0.000000
5.500000 1.000000 0.000000
CELLS 5 25 
4 0 1 7 2
4 2 7 8 3
4 3 8 9 4
4 4  9 10  5
4 5 10 11  6
CELL_TYPES 5
9 9 9 9 9 
POINT_DATA 12
VECTORS displacement_ITER1 FLOAT
 -2.607606e-03  -1.765773e-02  0 
 -2.667876e-03  -2.034101e-02  0 
 -1.546216e-03  -1.765183e-02  0 
 -5.257800e-04  -1.763701e-02  0 
 5.436471e-04  -1.763701e-02  0 
 1.564083e-03  -1.765183e-02  0 
 2.625473e-03  -1.765773e-02  0 
 -1.588042e-03  -2.033463e-02  0 
 -5.337040e-04  -2.034197e-02  0 
 5.515710e-04  -2.034197e-02  0 
 1.605909e-03  -2.033463e-02  0 
 2.685743e-03  -2.034101e-02  0 
VECTORS displacement_ITER2 FLOAT
 -2.590517e-03  -1.755005e-02  0 
 -2.650878e-03  -2.021870e-02  0 
 -1.535493e-03  -1.754360e-02  0 
 -5.202201e-04  -1.753381e-02  0 
 5.385392e-04  -1.753381e-02  0 
 1.553812e-03  -1.754360e-02  0 
 2.608836e-03  -1.755005e-02  0 
 -1.576023e-03  -2.021297e-02  0 
 -5.294968e-04  -2.021561e-02  0 
 5.478159e-04  -2.021561e-02  0 
 1.594342e-03  -2.021297e-02  0 
 2.669197e-03  -2.021870e-02  0 
VECTORS displacement_ITER3 FLOAT
 -2.579030e-03  -1.749177e-02  0 
 -2.639427e-03  -2.015365e-02  0 
 -1.527140e-03  -1.748509e-02  0 
 -5.154578e-04  -1.748235e-02  0 
 5.342751e-04  -1.748235e-02  0 
 1.545958e-03  -1.748509e-02  0 
 2.597848e-03  -1.749177e-02  0 
 -1.566713e-03  -2.014825e-02  0 
 -5.257911e-04  -2.014432e-02  0 
 5.446083e-04  -2.014432e-02  0 
 1.585530e-03  -2.014825e-02  0 
 2.658245e-03  -2.015365e-02  0 
VECTORS displacement_ITER4 FLOAT
 -2.577020e-03  -1.748468e-02  0 
 -2.637442e-03  -2.014413e-02  0 
 -1.526174e-03  -1.747788e-02  0 
 -5.149743e-04  -1.747495e-02  0 
 5.338446e-04  -1.747495e-02  0 
 1.545045e-03  -1.747788e-02  0 
 2.595891e-03  -1.748468e-02  0 
 -1.565544e-03  -2.013886e-02  0 
 -5.254963e-04  -2.013511e-02  0 
 5.443666e-04  -2.013511e-02  0 
 1.584415e-03  -2.013886e-02  0 
 2.656312e-03  -2.014413e-02  0 
VECTORS displacement_ITER5 FLOAT
 -2.575563e-03  -1.748038e-02  0 
 -2.636019e-03  -2.013707e-02  0 
 -1.525868e-03  -1.747341e-02  0 
 -5.148872e-04  -1.746925e-02  0 
 5.337650e-04  -1.746926e-02  0 
 1.544711e-03  -1.747355e-02  0 
 2.594304e-03  -1.748052e-02  0 
 -1.565045e-03  -2.013198e-02  0 
 -5.255594e-04  -2.012941e-02  0 
 5.444432e-04  -2.012940e-02  0 
 1.583881e-03  -2.013189e-02  0 
 2.654767e-03  -2.013698e-02  0 
VECTORS displacement_ITER6 FLOAT
 -2.575029e-03  -1.747897e-02  0 
 -2.635451e-03  -2.013466e-02  0 
 -1.525688e-03  -1.747194e-02  0 
 -5.147676e-04  -1.746749e-02  0 
 5.336533e-04  -1.746749e-02  0 
 1.544527e-03  -1.747186e-02  0 
 2.593730e-03  -1.747889e-02  0 
 -1.564769e-03  -2.012964e-02  0 
 -5.255679e-04  -2.012729e-02  0 
 5.443755e-04  -2.012729e-02  0 
 1.583580e-03  -2.012966e-02  0 
 2.654263e-03  -2.013469e-02  0 
VECTORS displacement_ITER7 FLOAT
 -2.574830e-03  -1.747863e-02  0 
 -2.635323e-03  -2.013454e-02  0 
 -1.525600e-03  -1.747160e-02  0 
 -5.147539e-04  -1.746760e-02  0 
 5.333652e-04  -1.746760e-02  0 
 1.544299e-03  -1.747166e-02  0 
 2.593648e-03  -1.747870e-02  0 
 -1.564608e-03  -2.012952e-02  0 
 -5.255556e-04  -2.012679e-02  0 
 5.441949e-04  -2.012679e-02  0 
 1.583302e-03  -2.012952e-02  0 
 2.654123e-03  -2.013453e-02  0 
VECTORS displacement_ITER8 FLOAT
 -2.574744e-03  -1.747874e-02  0 
 -2.635278e-03  -2.013462e-02  0 
 -1.525504e-03  -1.747170e-02  0 
 -5.146406e-04  -1.746788e-02  0 
 5.333080e-04  -1.746788e-02  0 
 1.544236e-03  -1.747169e-02  0 
 2.593579e-03  -1.747874e-02  0 
 -1.564462e-03  -2.012962e-02  0 
 -5.254513e-04  -2.012673e-02  0 
 5.441979e-04  -2.012673e-02  0 
 1.583208e-03  -2.012971e-02  0 
 2.654023e-03  -2.013472e-02  0 
VECTORS displacement_ITER9 FLOAT
 -2.574705e-03  -1.747882e-02  0 
 -2.635213e-03  -2.013459e-02  0 
 -1.525489e-03  -1.747177e-02  0 
 -5.145887e-04  -1.746790e-02  0 
 5.333347e-04  -1.746790e-02  0 
 1.544238e-03  -1.747174e-02  0 
 2.593473e-03  -1.747880e-02  0 
 -1.564426e-03  -2.012960e-02  0 
 -5.254492e-04  -2.012673e-02  0 
 5.442115e-04  -2.012673e-02  0 
 1.583183e-03  -2.012962e-02  0 
 2.653953e-03  -2.013461e-02  0 
VECTORS displacement_ITER10 FLOAT
 -2.574655e-03  -1.747882e-02  0 
 -2.635148e-03  -2.013446e-02  0 
 -1.525497e-03  -1.747175e-02  0 
 -5.145784e-04  -1.746779e-02  0 
 5.333464e-04  -1.746779e-02  0 
 1.544243e-03  -1.747174e-02  0 
 2.593391e-03  -1.747881e-02  0 
 -1.564415e-03  -2.012948e-02  0 
 -5.254722e-04  -2.012667e-02  0 
 5.442227e-04  -2.012667e-02  0 
 1.583166e-03  -2.012945e-02  0 
 2.653893e-03  -2.013443e-02  0 
VECTORS displacement_ITER11 FLOAT
 -2.574634e-03  -1.747878e-02  0 
 -2.635134e-03  -2.013441e-02  0 
 -1.525485e-03  -1.747171e-02  0 
 -5.145658e-04  -1.746779e-02  0 
 5.333223e-04  -1.746779e-02  0 
 1.544231e-03  -1.747170e-02  0 
 2.593384e-03  -1.747877e-02  0 
 -1.564391e-03  -2.012944e-02  0 
 -5.254654e-04  -2.012661e-02  0 
 5.442184e-04  -2.012661e-02  0 
 1.583142e-03  -2.012944e-02  0 
 2.653880e-03  -2.013441e-02  0 
VECTORS displacement_ITER12 FLOAT
 -2.574643e-03  -1.747879e-02  0 
 -2.635140e-03  -2.013447e-02  0 
 -1.525475e-03  -1.747172e-02  0 
 -5.145436e-04  -1.746786e-02  0 
 5.333147e-04  -1.746786e-02  0 
 1.544227e-03  -1.747174e-02  0 
 2.593370e-03  -1.747881e-02  0 
 -1.564373e-03  -2.012950e-02  0 
 -5.254536e-04  -2.012662e-02  0 
 5.442182e-04  -2.012662e-02  0 
 1.583128e-03  -2.012947e-02  0 
 2.653869e-03  -2.013444e-02  0 
VECTORS displacement_ITER13 FLOAT
 -2.574616e-03  -1.747883e-02  0 
 -2.635113e-03  -2.013444e-02  0 
 -1.525481e-03  -1.747176e-02  0 
 -5.145627e-04  -1.746786e-02  0 
 5.332968e-04  -1.746786e-02  0 
 1.544227e-03  -1.747173e-02  0 
 2.593387e-03  -1.747880e-02  0 
 -1.564378e-03  -2.012947e-02  0 
 -5.254730e-04  -2.012663e-02  0 
 5.442036e-04  -2.012664e-02  0 
 1.583123e-03  -2.012951e-02  0 
 2.653888e-03  -2.013447e-02  0 
VECTORS displacement_ITER14 FLOAT
 -2.574633e-03  -1.747881e-02  0 
 -2.635133e-03  -2.013446e-02  0 
 -1.525483e-03  -1.747174e-02  0 
 -5.145483e-04  -1.746785e-02  0 
 5.333205e-04  -1.746785e-02  0 
 1.544237e-03  -1.747178e-02  0 
 2.593354e-03  -1.747886e-02  0 
 -1.564375e-03  -2.012950e-02  0 
 -5.254577e-04  -2.012665e-02  0 
 5.442297e-04  -2.012665e-02  0 
 1.583130e-03  -2.012946e-02  0 
 2.653855e-03  -2.013443e-02  0 
VECTORS displacement_ITER15 FLOAT
 -2.574613e-03  -1.747884e-02  0 
 -2.635114e-03  -2.013444e-02  0 
 -1.525486e-03  -1.747176e-02  0 
 -5.145637e-04  -1.746785e-02  0 
 5.333052e-04  -1.746785e-02  0 
 1.544233e-03  -1.747175e-02  0 
 2.593373e-03  -1.747883e-02  0 
 -1.564377e-03  -2.012947e-02  0 
 -5.254730e-04  -2.012665e-02  0 
 5.442149e-04  -2.012665e-02  0 
 1.583125e-03  -2.012949e-02  0 
 2.653873e-03  -2.013445e-02  0 
VECTORS displacement_ITER16 FLOAT
 -2.574616e-03  -1.747883e-02  0 
 -2.635118e-03  -2.013444e-02  0 
 -1.525483e-03  -1.747176e-02  0 
 -5.145608e-04  -1.746785e-02  0 
 5.333046e-04  -1.746785e-02  0 
 1.544231e-03  -1.747175e-02  0 
 2.593373e-03  -1.747882e-02  0 
 -1.564374e-03  -2.012948e-02  0 
 -5.254700e-04  -2.012664e-02  0 
 5.442149e-04  -2.012664e-02  0 
 1.583123e-03  -2.012949e-02  0 
 2.653873e-03  -2.013445e-02  0 
VECTORS displacement_ITER17 FLOAT
 -2.574620e-03  -1.747883e-02  0 
 -2.635121e-03  -2.013445e-02  0 
 -1.525482e-03  -1.747175e-02  0 
 -5.145571e-04  -1.746786e-02  0 
 5.333068e-04  -1.746786e-02  0 
 1.544231e-03  -1.747175e-02  0 
 2.593370e-03  -1.747883e-02  0 
 -1.564372e-03  -2.012949e-02  0 
 -5.254667e-04  -2.012664e-02  0 
 5.442173e-04  -2.012664e-02  0 
 1.583123e-03  -2.012949e-02  0 
 2.653870e-03  -2.013445e-02  0 
VECTORS displacement_ITER18 FLOAT
 -2.574619e-03  -1.747883e-02  0 
 -2.635121e-03  -2.013445e-02  0 
 -1.525483e-03  -1.747176e-02  0 
 -5.145571e-04  -1.746786e-02  0 
 5.333064e-04  -1.746786e-02  0 
 1.544232e-03  -1.747175e-02  0 
 2.593370e-03  -1.747883e-02  0 
 -1.564373e-03  -2.012949e-02  0 
 -5.254673e-04  -2.012664e-02  0 
 5.442172e-04  -2.012664e-02  0 
 1.583123e-03  -2.012949e-02  0 
 2.653870e-03  -2.013445e-02  0 
VECTORS displacement_ITER19 FLOAT
 -2.574618e-03  -1.747883e-02  0 
 -2.635120e-03  -2.013445e-02  0 
 -1.525484e-03  -1.747176e-02  0 
 -5.145575e-04  -1.746786e-02  0 
 5.333059e-04  -1.746786e-02  0 
 1.544232e-03  -1.747176e-02  0 
 2.593370e-03  -1.747883e-02  0 
 -1.564373e-03  -2.012949e-02  0 
 -5.254679e-04  -2.012665e-02  0 
 5.442170e-04  -2.012665e-02  0 
 1.583123e-03  -2.012949e-02  0 
 2.653870e-03  -2.013445e-02  0 
VECTORS displacement_ITER20 FLOAT
 -2.574618e-03  -1.747883e-02  0 
 -2.635120e-03  -2.013445e-02  0 
 -1.525484e-03  -1.747176e-02  0 
 -5.145572e-04  -1.746786e-02  0 
 5.333061e-04  -1.746786e-02  0 
 1.544233e-03  -1.747176e-02  0 
 2.593370e-03  -1.747883e-02  0 
 -1.564373e-03  -2.012949e-02  0 
 -5.254678e-04  -2.012665e-02  0 
 5.442173e-04  -2.012665e-02  0 
 1.583123e-03  -2.012949e-02  0 
 2.653870e-03  -2.013445e-02  0 
VECTORS displacement_ITER21 FLOAT
 -2.574618e-03  -1.747883e-02  0 
 -2.635120e-03  -2.013445e-02  0 
 -1.525484e-03  -1.747176e-02  0 
 -5.145571e-04  -1.746786e-02  0 
 5.333061e-04  -1.746786e-02  0 
 1.544233e-03  -1.747176e-02  0 
 2.593370e-03  -1.747883e-02  0 
 -1.564373e-03  -2.012949e-02  0 
 -5.254678e-04  -2.012665e-02  0 
 5.442173e-04  -2.012665e-02  0 
 1.583123e-03  -2.012949e-02  0 
 2.653870e-03  -2.013445e-02  0 
VECTORS displacement_ITER22 FLOAT
 -2.574618e-03  -1.747883e-02  0 
 -2.635120e-03  -2.013445e-02  0 
 -1.525484e-03  -1.747176e-02  0 
 -5.145570e-04  -1.746786e-02  0 
 5.333060e-04  -1.746786e-02  0 
 1.544233e-03  -1.747176e-02  0 
 2.593370e-03  -1.747883e-02  0 
 -1.564373e-03  -2.012949e-02  0 
 -5.254678e-04  -2.012665e-02  0 
 5.442173e-04  -2.012665e-02  0 
 1.583123e-03  -2.012949e-02  0 
 2.653870e-03  -2.013445e-02  0 
VECTORS displacement_ITER23 FLOAT
 -2.574618e-03  -1.747883e-02  0 
 -2.635120e-03  -2.013445e-02  0 
 -1.525484e-03  -1.747176e-02  0 
 -5.145570e-04  -1.746786e-02  0 
 5.333060e-04  -1.746786e-02  0 
 1.544233e-03  -1.747176e-02  0 
 2.593370e-03  -1.747883e-02  0 
 -1.564373e-03  -2.012949e-02  0 
 -5.254678e-04  -2.012665e-02  0 
 5.442173e-04  -2.012665e-02  0 
 1.583123e-03  -2.012949e-02  0 
 2.653870e-03  -2.013445e-02  0 
VECTORS displacement_ITER24 FLOAT
 -2.574618e-03  -1.747883e-02  0 
 -2.635120e-03  -2.013445e-02  0 
 -1.525484e-03  -1.747176e-02  0 
 -5.145571e-04  -1.746786e-02  0 
 5.333060e-04  -1.746786e-02  0 
 1.544233e-03  -1.747176e-02  0 
 2.593370e-03  -1.747883e-02  0 
 -1.564373e-03  -2.012949e-02  0 
 -5.254678e-04  -2.012665e-02  0 
 5.442173e-04  -2.012665e-02  0 
 1.583123e-03  -2.012949e-02  0 
 2.653870e-03  -2.013445e-02  0 
VECTORS displacement_ITER25 FLOAT
 -2.574618e-03  -1.747883e-02  0 
 -2.635120e-03  -2.013445e-02  0 
 -1.525484e-03  -1.747176e-02  0 
 -5.145571e-04  -1.746786e-02  0 
 5.333060e-04  -1.746786e-02  0 
 1.544233e-03  -1.747176e-02  0 
 2.593370e-03  -1.747883e-02  0 
 -1.564373e-03  -2.012949e-02  0 
 -5.254678e-04  -2.012665e-02  0 
 5.442173e-04  -2.012665e-02  0 
 1.583123e-03  -2.012949e-02  0 
 2.653870e-03  -2.013445e-02  0 
CELL_DATA 5
TENSORS element_stresses FLOAT
 -9.929713e-02  -1.049501e-02  0 
 -1.049501e-02  3.132018e-04  0 
 0  0  0 

 -4.917250e-03  -1.476432e-02  0 
 -1.476432e-02  2.091200e-04  0 
 0  0  0 

 5.716465e-07  -1.823293e-02  0 
 -1.823293e-02  2.235115e-07  0 
 0  0  0 

 4.917429e-03  -1.476442e-02  0 
 -1.476442e-02  -2.090774e-04  0 
 0  0  0 

 9.929638e-02  -1.049332e-02  0 
 -1.049332e-02  -3.133406e-04  0 
 0  0  0 

TENSORS element_stresses FLOAT
 -9.929713e-02  -1.049501e-02  0 
 -1.049501e-02  3.132018e-04  0 
 0  0  0 

 -4.917250e-03  -1.476432e-02  0 
 -1.476432e-02  2.091200e-04  0 
 0  0  0 

 5.716465e-07  -1.823293e-02  0 
 -1.823293e-02  2.235115e-07  0 
 0  0  0 

 4.917429e-03  -1.476442e-02  0 
 -1.476442e-02  -2.090774e-04  0 
 0  0  0 

 9.929638e-02  -1.049332e-02  0 
 -1.049332e-02  -3.133406e-04  0 
 0  0  0 

