# vtk DataFile Version 3.1
this is an vtk file created by FEMAC
ASCII
DATASET UNSTRUCTURED_GRID
POINTS 12 FLOAT
6.500000 0.000000 0.000000
7.000000 0.000000 0.000000
6.500000 0.200000 0.000000
6.500000 0.400000 0.000000
6.500000 0.600000 0.000000
6.500000 0.800000 0.000000
6.500000 1.000000 0.000000
7.000000 0.200000 0.000000
7.000000 0.400000 0.000000
7.000000 0.600000 0.000000
7.000000 0.800000 0.000000
7.000000 1.000000 0.000000
CELLS 5 25 
4 0 1 7 2
4 2 7 8 3
4 3 8 9 4
4 4  9 10  5
4 5 10 11  6
CELL_TYPES 5
9 9 9 9 9 
POINT_DATA 12
VECTORS displacement_ITER1 FLOAT
 -2.734363e-03  -2.583460e-02  0 
 -2.747270e-03  -2.860099e-02  0 
 -1.630786e-03  -2.583335e-02  0 
 -5.447427e-04  -2.582693e-02  0 
 5.626098e-04  -2.582693e-02  0 
 1.648653e-03  -2.583335e-02  0 
 2.752230e-03  -2.583460e-02  0 
 -1.640190e-03  -2.859952e-02  0 
 -5.457817e-04  -2.860318e-02  0 
 5.636488e-04  -2.860318e-02  0 
 1.658057e-03  -2.859952e-02  0 
 2.765137e-03  -2.860099e-02  0 
VECTORS displacement_ITER2 FLOAT
 -2.716753e-03  -2.567575e-02  0 
 -2.729465e-03  -2.842555e-02  0 
 -1.619420e-03  -2.567419e-02  0 
 -5.403853e-04  -2.567011e-02  0 
 5.587044e-04  -2.567011e-02  0 
 1.637739e-03  -2.567419e-02  0 
 2.735072e-03  -2.567575e-02  0 
 -1.629287e-03  -2.842432e-02  0 
 -5.414891e-04  -2.842587e-02  0 
 5.598082e-04  -2.842587e-02  0 
 1.647606e-03  -2.842432e-02  0 
 2.747784e-03  -2.842555e-02  0 
VECTORS displacement_ITER3 FLOAT
 -2.704522e-03  -2.558470e-02  0 
 -2.717054e-03  -2.832436e-02  0 
 -1.610962e-03  -2.558300e-02  0 
 -5.368802e-04  -2.558217e-02  0 
 5.556975e-04  -2.558217e-02  0 
 1.629779e-03  -2.558300e-02  0 
 2.723339e-03  -2.558470e-02  0 
 -1.621165e-03  -2.832325e-02  0 
 -5.381040e-04  -2.832198e-02  0 
 5.569213e-04  -2.832198e-02  0 
 1.639982e-03  -2.832325e-02  0 
 2.735871e-03  -2.832436e-02  0 
VECTORS displacement_ITER4 FLOAT
 -2.702524e-03  -2.557113e-02  0 
 -2.715035e-03  -2.830858e-02  0 
 -1.609788e-03  -2.556936e-02  0 
 -5.364827e-04  -2.556839e-02  0 
 5.553530e-04  -2.556839e-02  0 
 1.628658e-03  -2.556936e-02  0 
 2.721395e-03  -2.557113e-02  0 
 -1.620030e-03  -2.830752e-02  0 
 -5.377295e-04  -2.830643e-02  0 
 5.565998e-04  -2.830643e-02  0 
 1.638901e-03  -2.830752e-02  0 
 2.733905e-03  -2.830858e-02  0 
VECTORS displacement_ITER5 FLOAT
 -2.701154e-03  -2.556137e-02  0 
 -2.713661e-03  -2.829683e-02  0 
 -1.609169e-03  -2.555952e-02  0 
 -5.363727e-04  -2.555792e-02  0 
 5.551957e-04  -2.555792e-02  0 
 1.627992e-03  -2.555952e-02  0 
 2.719977e-03  -2.556137e-02  0 
 -1.619413e-03  -2.829585e-02  0 
 -5.376412e-04  -2.829537e-02  0 
 5.564643e-04  -2.829537e-02  0 
 1.638236e-03  -2.829585e-02  0 
 2.732484e-03  -2.829683e-02  0 
VECTORS displacement_ITER6 FLOAT
 -2.700642e-03  -2.555791e-02  0 
 -2.713151e-03  -2.829278e-02  0 
 -1.608894e-03  -2.555604e-02  0 
 -5.362926e-04  -2.555440e-02  0 
 5.550687e-04  -2.555440e-02  0 
 1.627671e-03  -2.555604e-02  0 
 2.719418e-03  -2.555791e-02  0 
 -1.619119e-03  -2.829182e-02  0 
 -5.375832e-04  -2.829140e-02  0 
 5.563593e-04  -2.829140e-02  0 
 1.637895e-03  -2.829182e-02  0 
 2.731927e-03  -2.829278e-02  0 
VECTORS displacement_ITER7 FLOAT
 -2.700672e-03  -2.555695e-02  0 
 -2.713165e-03  -2.829240e-02  0 
 -1.608687e-03  -2.555509e-02  0 
 -5.360675e-04  -2.555402e-02  0 
 5.550872e-04  -2.555406e-02  0 
 1.627537e-03  -2.555577e-02  0 
 2.719026e-03  -2.555766e-02  0 
 -1.618899e-03  -2.829143e-02  0 
 -5.373642e-04  -2.829059e-02  0 
 5.564140e-04  -2.829057e-02  0 
 1.637719e-03  -2.829101e-02  0 
 2.731559e-03  -2.829196e-02  0 
VECTORS displacement_ITER8 FLOAT
 -2.699863e-03  -2.555800e-02  0 
 -2.712411e-03  -2.829144e-02  0 
 -1.608747e-03  -2.555609e-02  0 
 -5.365193e-04  -2.555411e-02  0 
 5.545137e-04  -2.555403e-02  0 
 1.627295e-03  -2.555455e-02  0 
 2.719630e-03  -2.555639e-02  0 
 -1.618899e-03  -2.829051e-02  0 
 -5.378618e-04  -2.829031e-02  0 
 5.558239e-04  -2.829037e-02  0 
 1.637486e-03  -2.829174e-02  0 
 2.732121e-03  -2.829272e-02  0 
VECTORS displacement_ITER9 FLOAT
 -2.700690e-03  -2.555648e-02  0 
 -2.713224e-03  -2.829240e-02  0 
 -1.608560e-03  -2.555462e-02  0 
 -5.358020e-04  -2.555384e-02  0 
 5.552017e-04  -2.555388e-02  0 
 1.627426e-03  -2.555564e-02  0 
 2.718652e-03  -2.555755e-02  0 
 -1.618707e-03  -2.829142e-02  0 
 -5.371427e-04  -2.829010e-02  0 
 5.565287e-04  -2.829005e-02  0 
 1.637586e-03  -2.829029e-02  0 
 2.731169e-03  -2.829121e-02  0 
VECTORS displacement_ITER10 FLOAT
 -2.700170e-03  -2.555679e-02  0 
 -2.712680e-03  -2.829126e-02  0 
 -1.608612e-03  -2.555490e-02  0 
 -5.361839e-04  -2.555353e-02  0 
 5.548144e-04  -2.555353e-02  0 
 1.627354e-03  -2.555483e-02  0 
 2.719030e-03  -2.555672e-02  0 
 -1.618762e-03  -2.829033e-02  0 
 -5.375144e-04  -2.828975e-02  0 
 5.561648e-04  -2.828976e-02  0 
 1.637476e-03  -2.829062e-02  0 
 2.731584e-03  -2.829157e-02  0 
VECTORS displacement_ITER11 FLOAT
 -2.700193e-03  -2.555669e-02  0 
 -2.712729e-03  -2.829131e-02  0 
 -1.608599e-03  -2.555479e-02  0 
 -5.361201e-04  -2.555345e-02  0 
 5.548627e-04  -2.555344e-02  0 
 1.627350e-03  -2.555478e-02  0 
 2.718949e-03  -2.555667e-02  0 
 -1.618724e-03  -2.829037e-02  0 
 -5.374678e-04  -2.828964e-02  0 
 5.562067e-04  -2.828964e-02  0 
 1.637479e-03  -2.829035e-02  0 
 2.731479e-03  -2.829129e-02  0 
VECTORS displacement_ITER12 FLOAT
 -2.700180e-03  -2.555670e-02  0 
 -2.712714e-03  -2.829132e-02  0 
 -1.608593e-03  -2.555481e-02  0 
 -5.361153e-04  -2.555348e-02  0 
 5.548518e-04  -2.555348e-02  0 
 1.627342e-03  -2.555480e-02  0 
 2.718940e-03  -2.555670e-02  0 
 -1.618715e-03  -2.829038e-02  0 
 -5.374649e-04  -2.828965e-02  0 
 5.562010e-04  -2.828965e-02  0 
 1.637463e-03  -2.829038e-02  0 
 2.731474e-03  -2.829132e-02  0 
VECTORS displacement_ITER13 FLOAT
 -2.700177e-03  -2.555670e-02  0 
 -2.712711e-03  -2.829130e-02  0 
 -1.608591e-03  -2.555481e-02  0 
 -5.361119e-04  -2.555348e-02  0 
 5.548531e-04  -2.555348e-02  0 
 1.627341e-03  -2.555480e-02  0 
 2.718935e-03  -2.555669e-02  0 
 -1.618712e-03  -2.829036e-02  0 
 -5.374617e-04  -2.828964e-02  0 
 5.562037e-04  -2.828964e-02  0 
 1.637461e-03  -2.829038e-02  0 
 2.731471e-03  -2.829132e-02  0 
VECTORS displacement_ITER14 FLOAT
 -2.700176e-03  -2.555668e-02  0 
 -2.712712e-03  -2.829128e-02  0 
 -1.608592e-03  -2.555478e-02  0 
 -5.361067e-04  -2.555346e-02  0 
 5.548578e-04  -2.555346e-02  0 
 1.627341e-03  -2.555478e-02  0 
 2.718926e-03  -2.555668e-02  0 
 -1.618710e-03  -2.829035e-02  0 
 -5.374571e-04  -2.828962e-02  0 
 5.562092e-04  -2.828962e-02  0 
 1.637460e-03  -2.829035e-02  0 
 2.731460e-03  -2.829128e-02  0 
VECTORS displacement_ITER15 FLOAT
 -2.700177e-03  -2.555667e-02  0 
 -2.712713e-03  -2.829128e-02  0 
 -1.608591e-03  -2.555478e-02  0 
 -5.361050e-04  -2.555345e-02  0 
 5.548583e-04  -2.555345e-02  0 
 1.627340e-03  -2.555478e-02  0 
 2.718924e-03  -2.555668e-02  0 
 -1.618709e-03  -2.829035e-02  0 
 -5.374562e-04  -2.828961e-02  0 
 5.562095e-04  -2.828961e-02  0 
 1.637459e-03  -2.829034e-02  0 
 2.731459e-03  -2.829128e-02  0 
VECTORS displacement_ITER16 FLOAT
 -2.700176e-03  -2.555668e-02  0 
 -2.712711e-03  -2.829129e-02  0 
 -1.608590e-03  -2.555478e-02  0 
 -5.361046e-04  -2.555346e-02  0 
 5.548565e-04  -2.555346e-02  0 
 1.627340e-03  -2.555478e-02  0 
 2.718924e-03  -2.555668e-02  0 
 -1.618707e-03  -2.829035e-02  0 
 -5.374565e-04  -2.828961e-02  0 
 5.562081e-04  -2.828961e-02  0 
 1.637457e-03  -2.829034e-02  0 
 2.731459e-03  -2.829128e-02  0 
VECTORS displacement_ITER17 FLOAT
 -2.700175e-03  -2.555668e-02  0 
 -2.712710e-03  -2.829128e-02  0 
 -1.608590e-03  -2.555478e-02  0 
 -5.361050e-04  -2.555346e-02  0 
 5.548556e-04  -2.555346e-02  0 
 1.627340e-03  -2.555478e-02  0 
 2.718924e-03  -2.555668e-02  0 
 -1.618707e-03  -2.829035e-02  0 
 -5.374570e-04  -2.828962e-02  0 
 5.562075e-04  -2.828962e-02  0 
 1.637457e-03  -2.829035e-02  0 
 2.731460e-03  -2.829128e-02  0 
VECTORS displacement_ITER18 FLOAT
 -2.700174e-03  -2.555668e-02  0 
 -2.712709e-03  -2.829128e-02  0 
 -1.608590e-03  -2.555478e-02  0 
 -5.361054e-04  -2.555346e-02  0 
 5.548555e-04  -2.555346e-02  0 
 1.627340e-03  -2.555478e-02  0 
 2.718924e-03  -2.555668e-02  0 
 -1.618707e-03  -2.829035e-02  0 
 -5.374574e-04  -2.828962e-02  0 
 5.562075e-04  -2.828962e-02  0 
 1.637457e-03  -2.829035e-02  0 
 2.731459e-03  -2.829128e-02  0 
VECTORS displacement_ITER19 FLOAT
 -2.700174e-03  -2.555668e-02  0 
 -2.712709e-03  -2.829128e-02  0 
 -1.608590e-03  -2.555478e-02  0 
 -5.361055e-04  -2.555346e-02  0 
 5.548556e-04  -2.555346e-02  0 
 1.627340e-03  -2.555478e-02  0 
 2.718924e-03  -2.555668e-02  0 
 -1.618707e-03  -2.829034e-02  0 
 -5.374575e-04  -2.828962e-02  0 
 5.562076e-04  -2.828962e-02  0 
 1.637457e-03  -2.829034e-02  0 
 2.731459e-03  -2.829128e-02  0 
VECTORS displacement_ITER20 FLOAT
 -2.700174e-03  -2.555668e-02  0 
 -2.712709e-03  -2.829128e-02  0 
 -1.608590e-03  -2.555478e-02  0 
 -5.361054e-04  -2.555346e-02  0 
 5.548555e-04  -2.555346e-02  0 
 1.627340e-03  -2.555478e-02  0 
 2.718924e-03  -2.555668e-02  0 
 -1.618707e-03  -2.829034e-02  0 
 -5.374575e-04  -2.828962e-02  0 
 5.562075e-04  -2.828962e-02  0 
 1.637457e-03  -2.829034e-02  0 
 2.731459e-03  -2.829128e-02  0 
VECTORS displacement_ITER21 FLOAT
 -2.700174e-03  -2.555668e-02  0 
 -2.712709e-03  -2.829128e-02  0 
 -1.608590e-03  -2.555478e-02  0 
 -5.361054e-04  -2.555346e-02  0 
 5.548554e-04  -2.555346e-02  0 
 1.627340e-03  -2.555478e-02  0 
 2.718924e-03  -2.555668e-02  0 
 -1.618707e-03  -2.829034e-02  0 
 -5.374575e-04  -2.828962e-02  0 
 5.562074e-04  -2.828962e-02  0 
 1.637457e-03  -2.829034e-02  0 
 2.731459e-03  -2.829128e-02  0 
VECTORS displacement_ITER22 FLOAT
 -2.700174e-03  -2.555668e-02  0 
 -2.712709e-03  -2.829128e-02  0 
 -1.608590e-03  -2.555478e-02  0 
 -5.361054e-04  -2.555346e-02  0 
 5.548554e-04  -2.555346e-02  0 
 1.627340e-03  -2.555478e-02  0 
 2.718924e-03  -2.555668e-02  0 
 -1.618707e-03  -2.829034e-02  0 
 -5.374575e-04  -2.828962e-02  0 
 5.562075e-04  -2.828962e-02  0 
 1.637457e-03  -2.829034e-02  0 
 2.731459e-03  -2.829128e-02  0 
VECTORS displacement_ITER23 FLOAT
 -2.700174e-03  -2.555668e-02  0 
 -2.712709e-03  -2.829128e-02  0 
 -1.608590e-03  -2.555478e-02  0 
 -5.361054e-04  -2.555346e-02  0 
 5.548554e-04  -2.555346e-02  0 
 1.627340e-03  -2.555478e-02  0 
 2.718924e-03  -2.555668e-02  0 
 -1.618707e-03  -2.829034e-02  0 
 -5.374575e-04  -2.828962e-02  0 
 5.562075e-04  -2.828962e-02  0 
 1.637457e-03  -2.829034e-02  0 
 2.731459e-03  -2.829128e-02  0 
VECTORS displacement_ITER24 FLOAT
 -2.700174e-03  -2.555668e-02  0 
 -2.712709e-03  -2.829128e-02  0 
 -1.608590e-03  -2.555478e-02  0 
 -5.361054e-04  -2.555346e-02  0 
 5.548554e-04  -2.555346e-02  0 
 1.627340e-03  -2.555478e-02  0 
 2.718924e-03  -2.555668e-02  0 
 -1.618707e-03  -2.829034e-02  0 
 -5.374575e-04  -2.828962e-02  0 
 5.562075e-04  -2.828962e-02  0 
 1.637457e-03  -2.829034e-02  0 
 2.731459e-03  -2.829128e-02  0 
VECTORS displacement_ITER25 FLOAT
 -2.700174e-03  -2.555668e-02  0 
 -2.712709e-03  -2.829128e-02  0 
 -1.608590e-03  -2.555478e-02  0 
 -5.361054e-04  -2.555346e-02  0 
 5.548554e-04  -2.555346e-02  0 
 1.627340e-03  -2.555478e-02  0 
 2.718924e-03  -2.555668e-02  0 
 -1.618707e-03  -2.829034e-02  0 
 -5.374575e-04  -2.828962e-02  0 
 5.562075e-04  -2.828962e-02  0 
 1.637457e-03  -2.829034e-02  0 
 2.731459e-03  -2.829128e-02  0 
CELL_DATA 5
TENSORS element_stresses FLOAT
 -2.255783e-02  -4.769048e-03  0 
 -4.769048e-03  3.153814e-04  0 
 0  0  0 

 -1.090990e-03  -6.721686e-03  0 
 -6.721686e-03  1.864278e-04  0 
 0  0  0 

 -3.179244e-08  -8.268453e-03  0 
 -8.268453e-03  2.034284e-09  0 
 0  0  0 

 1.090988e-03  -6.721692e-03  0 
 -6.721692e-03  -1.864119e-04  0 
 0  0  0 

 2.255786e-02  -4.769121e-03  0 
 -4.769121e-03  -3.153693e-04  0 
 0  0  0 

TENSORS element_stresses FLOAT
 -2.255783e-02  -4.769048e-03  0 
 -4.769048e-03  3.153814e-04  0 
 0  0  0 

 -1.090990e-03  -6.721686e-03  0 
 -6.721686e-03  1.864278e-04  0 
 0  0  0 

 -3.179244e-08  -8.268453e-03  0 
 -8.268453e-03  2.034284e-09  0 
 0  0  0 

 1.090988e-03  -6.721692e-03  0 
 -6.721692e-03  -1.864119e-04  0 
 0  0  0 

 2.255786e-02  -4.769121e-03  0 
 -4.769121e-03  -3.153693e-04  0 
 0  0  0 

