# vtk DataFile Version 3.1
this is an vtk file created by FEMAC
ASCII
DATASET UNSTRUCTURED_GRID
POINTS 12 FLOAT
3.500000 0.000000 0.000000
4.000000 0.000000 0.000000
3.500000 0.200000 0.000000
3.500000 0.400000 0.000000
3.500000 0.600000 0.000000
3.500000 0.800000 0.000000
3.500000 1.000000 0.000000
4.000000 0.200000 0.000000
4.000000 0.400000 0.000000
4.000000 0.600000 0.000000
4.000000 0.800000 0.000000
4.000000 1.000000 0.000000
CELLS 5 25 
4 0 1 7 2
4 2 7 8 3
4 3 8 9 4
4 4  9 10  5
4 5 10 11  6
CELL_TYPES 5
9 9 9 9 9 
POINT_DATA 12
VECTORS displacement_ITER1 FLOAT
 -2.262163e-03  -1.009911e-02  0 
 -2.405318e-03  -1.249835e-02  0 
 -1.328933e-03  -1.008497e-02  0 
 -4.640504e-04  -1.005996e-02  0 
 4.819174e-04  -1.005996e-02  0 
 1.346800e-03  -1.008497e-02  0 
 2.280030e-03  -1.009911e-02  0 
 -1.427496e-03  -1.248346e-02  0 
 -4.840230e-04  -1.249273e-02  0 
 5.018900e-04  -1.249273e-02  0 
 1.445364e-03  -1.248346e-02  0 
 2.423185e-03  -1.249835e-02  0 
VECTORS displacement_ITER2 FLOAT
 -2.246938e-03  -1.003836e-02  0 
 -2.390669e-03  -1.242627e-02  0 
 -1.320394e-03  -1.002349e-02  0 
 -4.570992e-04  -1.000623e-02  0 
 4.754184e-04  -1.000623e-02  0 
 1.338713e-03  -1.002349e-02  0 
 2.265257e-03  -1.003836e-02  0 
 -1.414672e-03  -1.241251e-02  0 
 -4.806383e-04  -1.241447e-02  0 
 4.989575e-04  -1.241447e-02  0 
 1.432991e-03  -1.241251e-02  0 
 2.408988e-03  -1.242627e-02  0 
VECTORS displacement_ITER3 FLOAT
 -2.237185e-03  -1.000780e-02  0 
 -2.381310e-03  -1.239332e-02  0 
 -1.313266e-03  -9.992666e-03  0 
 -4.509512e-04  -9.986227e-03  0 
 4.697685e-04  -9.986227e-03  0 
 1.332083e-03  -9.992666e-03  0 
 2.256002e-03  -1.000780e-02  0 
 -1.404391e-03  -1.238014e-02  0 
 -4.771692e-04  -1.237181e-02  0 
 4.959865e-04  -1.237181e-02  0 
 1.423208e-03  -1.238014e-02  0 
 2.400127e-03  -1.239332e-02  0 
VECTORS displacement_ITER4 FLOAT
 -2.232253e-03  -1.001246e-02  0 
 -2.376776e-03  -1.238665e-02  0 
 -1.313452e-03  -9.996916e-03  0 
 -4.524314e-04  -9.985230e-03  0 
 4.671965e-04  -9.984664e-03  0 
 1.330853e-03  -9.986495e-03  0 
 2.257316e-03  -1.000159e-02  0 
 -1.403719e-03  -1.237385e-02  0 
 -4.793778e-04  -1.236892e-02  0 
 4.936775e-04  -1.236922e-02  0 
 1.421591e-03  -1.238034e-02  0 
 2.401232e-03  -1.239343e-02  0 
VECTORS displacement_ITER5 FLOAT
 -2.239025e-03  -1.000155e-02  0 
 -2.383261e-03  -1.239543e-02  0 
 -1.312119e-03  -9.986326e-03  0 
 -4.462059e-04  -9.984078e-03  0 
 4.733927e-04  -9.984729e-03  0 
 1.332575e-03  -1.000020e-02  0 
 2.247542e-03  -1.001611e-02  0 
 -1.402085e-03  -1.238245e-02  0 
 -4.733792e-04  -1.236983e-02  0 
 5.004728e-04  -1.236918e-02  0 
 1.422495e-03  -1.236863e-02  0 
 2.391950e-03  -1.238096e-02  0 
VECTORS displacement_ITER6 FLOAT
 -2.233298e-03  -1.000906e-02  0 
 -2.377409e-03  -1.238674e-02  0 
 -1.312952e-03  -9.993411e-03  0 
 -4.504916e-04  -9.984370e-03  0 
 4.688503e-04  -9.984407e-03  0 
 1.331820e-03  -9.993777e-03  0 
 2.252278e-03  -1.000944e-02  0 
 -1.402753e-03  -1.237425e-02  0 
 -4.777735e-04  -1.236934e-02  0 
 4.962532e-04  -1.236943e-02  0 
 1.421317e-03  -1.237594e-02  0 
 2.396914e-03  -1.238852e-02  0 
VECTORS displacement_ITER7 FLOAT
 -2.232864e-03  -1.000962e-02  0 
 -2.377158e-03  -1.238691e-02  0 
 -1.312918e-03  -9.993922e-03  0 
 -4.505630e-04  -9.984806e-03  0 
 4.683215e-04  -9.984763e-03  0 
 1.331643e-03  -9.992727e-03  0 
 2.252630e-03  -1.000835e-02  0 
 -1.402454e-03  -1.237444e-02  0 
 -4.780408e-04  -1.236890e-02  0 
 4.957819e-04  -1.236897e-02  0 
 1.421073e-03  -1.237608e-02  0 
 2.397132e-03  -1.238865e-02  0 
VECTORS displacement_ITER8 FLOAT
 -2.233361e-03  -1.000894e-02  0 
 -2.377711e-03  -1.238802e-02  0 
 -1.312785e-03  -9.993273e-03  0 
 -4.500024e-04  -9.985230e-03  0 
 4.685819e-04  -9.985245e-03  0 
 1.331635e-03  -9.993335e-03  0 
 2.252145e-03  -1.000899e-02  0 
 -1.402201e-03  -1.237552e-02  0 
 -4.775602e-04  -1.236885e-02  0 
 4.961308e-04  -1.236885e-02  0 
 1.420980e-03  -1.237565e-02  0 
 2.396615e-03  -1.238817e-02  0 
VECTORS displacement_ITER9 FLOAT
 -2.233422e-03  -1.000906e-02  0 
 -2.377780e-03  -1.238833e-02  0 
 -1.312785e-03  -9.993386e-03  0 
 -4.498812e-04  -9.985499e-03  0 
 4.686353e-04  -9.985526e-03  0 
 1.331639e-03  -9.993729e-03  0 
 2.252018e-03  -1.000941e-02  0 
 -1.402155e-03  -1.237584e-02  0 
 -4.774714e-04  -1.236910e-02  0 
 4.962497e-04  -1.236909e-02  0 
 1.420929e-03  -1.237581e-02  0 
 2.396485e-03  -1.238830e-02  0 
VECTORS displacement_ITER10 FLOAT
 -2.233296e-03  -1.000952e-02  0 
 -2.377680e-03  -1.238839e-02  0 
 -1.312843e-03  -9.993824e-03  0 
 -4.499174e-04  -9.985653e-03  0 
 4.686083e-04  -9.985662e-03  0 
 1.331639e-03  -9.993891e-03  0 
 2.252037e-03  -1.000958e-02  0 
 -1.402167e-03  -1.237593e-02  0 
 -4.775495e-04  -1.236939e-02  0 
 4.962610e-04  -1.236939e-02  0 
 1.420910e-03  -1.237600e-02  0 
 2.396478e-03  -1.238847e-02  0 
VECTORS displacement_ITER11 FLOAT
 -2.233282e-03  -1.000962e-02  0 
 -2.377687e-03  -1.238844e-02  0 
 -1.312871e-03  -9.993918e-03  0 
 -4.498825e-04  -9.985659e-03  0 
 4.686273e-04  -9.985662e-03  0 
 1.331645e-03  -9.993911e-03  0 
 2.252011e-03  -1.000961e-02  0 
 -1.402164e-03  -1.237599e-02  0 
 -4.775471e-04  -1.236942e-02  0 
 4.962915e-04  -1.236942e-02  0 
 1.420915e-03  -1.237593e-02  0 
 2.396432e-03  -1.238838e-02  0 
VECTORS displacement_ITER12 FLOAT
 -2.233299e-03  -1.000958e-02  0 
 -2.377699e-03  -1.238844e-02  0 
 -1.312880e-03  -9.993878e-03  0 
 -4.498455e-04  -9.985688e-03  0 
 4.686227e-04  -9.985693e-03  0 
 1.331659e-03  -9.993932e-03  0 
 2.251992e-03  -1.000964e-02  0 
 -1.402157e-03  -1.237599e-02  0 
 -4.775261e-04  -1.236938e-02  0 
 4.963019e-04  -1.236938e-02  0 
 1.420906e-03  -1.237593e-02  0 
 2.396425e-03  -1.238838e-02  0 
VECTORS displacement_ITER13 FLOAT
 -2.233301e-03  -1.000959e-02  0 
 -2.377699e-03  -1.238845e-02  0 
 -1.312885e-03  -9.993889e-03  0 
 -4.498400e-04  -9.985712e-03  0 
 4.686195e-04  -9.985716e-03  0 
 1.331664e-03  -9.993953e-03  0 
 2.251990e-03  -1.000966e-02  0 
 -1.402154e-03  -1.237600e-02  0 
 -4.775264e-04  -1.236939e-02  0 
 4.963034e-04  -1.236939e-02  0 
 1.420902e-03  -1.237595e-02  0 
 2.396428e-03  -1.238840e-02  0 
VECTORS displacement_ITER14 FLOAT
 -2.233298e-03  -1.000963e-02  0 
 -2.377695e-03  -1.238847e-02  0 
 -1.312891e-03  -9.993923e-03  0 
 -4.498412e-04  -9.985745e-03  0 
 4.686159e-04  -9.985750e-03  0 
 1.331670e-03  -9.993987e-03  0 
 2.251990e-03  -1.000970e-02  0 
 -1.402150e-03  -1.237603e-02  0 
 -4.775346e-04  -1.236943e-02  0 
 4.963043e-04  -1.236943e-02  0 
 1.420898e-03  -1.237599e-02  0 
 2.396433e-03  -1.238844e-02  0 
VECTORS displacement_ITER15 FLOAT
 -2.233297e-03  -1.000964e-02  0 
 -2.377694e-03  -1.238848e-02  0 
 -1.312892e-03  -9.993930e-03  0 
 -4.498427e-04  -9.985748e-03  0 
 4.686163e-04  -9.985753e-03  0 
 1.331673e-03  -9.993995e-03  0 
 2.251990e-03  -1.000970e-02  0 
 -1.402149e-03  -1.237603e-02  0 
 -4.775372e-04  -1.236944e-02  0 
 4.963056e-04  -1.236944e-02  0 
 1.420897e-03  -1.237600e-02  0 
 2.396434e-03  -1.238845e-02  0 
VECTORS displacement_ITER16 FLOAT
 -2.233297e-03  -1.000963e-02  0 
 -2.377694e-03  -1.238848e-02  0 
 -1.312893e-03  -9.993928e-03  0 
 -4.498454e-04  -9.985742e-03  0 
 4.686171e-04  -9.985748e-03  0 
 1.331674e-03  -9.993997e-03  0 
 2.251990e-03  -1.000971e-02  0 
 -1.402148e-03  -1.237603e-02  0 
 -4.775399e-04  -1.236944e-02  0 
 4.963062e-04  -1.236944e-02  0 
 1.420897e-03  -1.237600e-02  0 
 2.396436e-03  -1.238845e-02  0 
VECTORS displacement_ITER17 FLOAT
 -2.233297e-03  -1.000963e-02  0 
 -2.377694e-03  -1.238848e-02  0 
 -1.312893e-03  -9.993926e-03  0 
 -4.498460e-04  -9.985740e-03  0 
 4.686175e-04  -9.985746e-03  0 
 1.331675e-03  -9.993996e-03  0 
 2.251990e-03  -1.000970e-02  0 
 -1.402148e-03  -1.237603e-02  0 
 -4.775403e-04  -1.236944e-02  0 
 4.963062e-04  -1.236944e-02  0 
 1.420897e-03  -1.237600e-02  0 
 2.396437e-03  -1.238845e-02  0 
VECTORS displacement_ITER18 FLOAT
 -2.233297e-03  -1.000963e-02  0 
 -2.377695e-03  -1.238848e-02  0 
 -1.312892e-03  -9.993926e-03  0 
 -4.498463e-04  -9.985740e-03  0 
 4.686172e-04  -9.985745e-03  0 
 1.331674e-03  -9.993994e-03  0 
 2.251991e-03  -1.000970e-02  0 
 -1.402147e-03  -1.237603e-02  0 
 -4.775402e-04  -1.236944e-02  0 
 4.963056e-04  -1.236944e-02  0 
 1.420897e-03  -1.237600e-02  0 
 2.396437e-03  -1.238845e-02  0 
VECTORS displacement_ITER19 FLOAT
 -2.233297e-03  -1.000963e-02  0 
 -2.377695e-03  -1.238848e-02  0 
 -1.312892e-03  -9.993926e-03  0 
 -4.498463e-04  -9.985740e-03  0 
 4.686169e-04  -9.985746e-03  0 
 1.331674e-03  -9.993993e-03  0 
 2.251991e-03  -1.000970e-02  0 
 -1.402147e-03  -1.237603e-02  0 
 -4.775401e-04  -1.236944e-02  0 
 4.963053e-04  -1.236944e-02  0 
 1.420896e-03  -1.237600e-02  0 
 2.396438e-03  -1.238845e-02  0 
VECTORS displacement_ITER20 FLOAT
 -2.233298e-03  -1.000963e-02  0 
 -2.377696e-03  -1.238848e-02  0 
 -1.312892e-03  -9.993926e-03  0 
 -4.498462e-04  -9.985741e-03  0 
 4.686169e-04  -9.985746e-03  0 
 1.331674e-03  -9.993993e-03  0 
 2.251991e-03  -1.000970e-02  0 
 -1.402147e-03  -1.237603e-02  0 
 -4.775400e-04  -1.236944e-02  0 
 4.963052e-04  -1.236944e-02  0 
 1.420896e-03  -1.237600e-02  0 
 2.396438e-03  -1.238845e-02  0 
VECTORS displacement_ITER21 FLOAT
 -2.233298e-03  -1.000963e-02  0 
 -2.377696e-03  -1.238848e-02  0 
 -1.312892e-03  -9.993926e-03  0 
 -4.498462e-04  -9.985741e-03  0 
 4.686169e-04  -9.985746e-03  0 
 1.331674e-03  -9.993993e-03  0 
 2.251991e-03  -1.000970e-02  0 
 -1.402147e-03  -1.237603e-02  0 
 -4.775400e-04  -1.236944e-02  0 
 4.963052e-04  -1.236944e-02  0 
 1.420897e-03  -1.237600e-02  0 
 2.396438e-03  -1.238845e-02  0 
VECTORS displacement_ITER22 FLOAT
 -2.233298e-03  -1.000963e-02  0 
 -2.377696e-03  -1.238848e-02  0 
 -1.312892e-03  -9.993926e-03  0 
 -4.498462e-04  -9.985741e-03  0 
 4.686169e-04  -9.985746e-03  0 
 1.331674e-03  -9.993993e-03  0 
 2.251991e-03  -1.000970e-02  0 
 -1.402147e-03  -1.237603e-02  0 
 -4.775400e-04  -1.236944e-02  0 
 4.963053e-04  -1.236944e-02  0 
 1.420897e-03  -1.237600e-02  0 
 2.396438e-03  -1.238845e-02  0 
VECTORS displacement_ITER23 FLOAT
 -2.233298e-03  -1.000963e-02  0 
 -2.377696e-03  -1.238848e-02  0 
 -1.312892e-03  -9.993926e-03  0 
 -4.498462e-04  -9.985741e-03  0 
 4.686169e-04  -9.985746e-03  0 
 1.331674e-03  -9.993993e-03  0 
 2.251991e-03  -1.000970e-02  0 
 -1.402147e-03  -1.237603e-02  0 
 -4.775400e-04  -1.236944e-02  0 
 4.963053e-04  -1.236944e-02  0 
 1.420897e-03  -1.237600e-02  0 
 2.396438e-03  -1.238845e-02  0 
VECTORS displacement_ITER24 FLOAT
 -2.233298e-03  -1.000963e-02  0 
 -2.377696e-03  -1.238848e-02  0 
 -1.312892e-03  -9.993926e-03  0 
 -4.498462e-04  -9.985740e-03  0 
 4.686169e-04  -9.985746e-03  0 
 1.331674e-03  -9.993993e-03  0 
 2.251991e-03  -1.000970e-02  0 
 -1.402147e-03  -1.237603e-02  0 
 -4.775400e-04  -1.236944e-02  0 
 4.963053e-04  -1.236944e-02  0 
 1.420897e-03  -1.237600e-02  0 
 2.396438e-03  -1.238845e-02  0 
VECTORS displacement_ITER25 FLOAT
 -2.233298e-03  -1.000963e-02  0 
 -2.377696e-03  -1.238848e-02  0 
 -1.312892e-03  -9.993926e-03  0 
 -4.498462e-04  -9.985740e-03  0 
 4.686169e-04  -9.985746e-03  0 
 1.331674e-03  -9.993993e-03  0 
 2.251991e-03  -1.000970e-02  0 
 -1.402147e-03  -1.237603e-02  0 
 -4.775400e-04  -1.236944e-02  0 
 4.963053e-04  -1.236944e-02  0 
 1.420897e-03  -1.237600e-02  0 
 2.396438e-03  -1.238845e-02  0 
CELL_DATA 5
TENSORS element_stresses FLOAT
 -2.335586e-01  -1.620490e-02  0 
 -1.620490e-02  3.147789e-04  0 
 0  0  0 

 -1.163366e-02  -2.282096e-02  0 
 -2.282096e-02  2.040575e-04  0 
 0  0  0 

 -8.776533e-06  -2.816949e-02  0 
 -2.816949e-02  -1.128512e-05  0 
 0  0  0 

 1.162653e-02  -2.281399e-02  0 
 -2.281399e-02  -2.152275e-04  0 
 0  0  0 

 2.335745e-01  -1.624067e-02  0 
 -1.624067e-02  -3.145615e-04  0 
 0  0  0 

TENSORS element_stresses FLOAT
 -2.335586e-01  -1.620490e-02  0 
 -1.620490e-02  3.147789e-04  0 
 0  0  0 

 -1.163366e-02  -2.282096e-02  0 
 -2.282096e-02  2.040575e-04  0 
 0  0  0 

 -8.776533e-06  -2.816949e-02  0 
 -2.816949e-02  -1.128512e-05  0 
 0  0  0 

 1.162653e-02  -2.281399e-02  0 
 -2.281399e-02  -2.152275e-04  0 
 0  0  0 

 2.335745e-01  -1.624067e-02  0 
 -1.624067e-02  -3.145615e-04  0 
 0  0  0 

