# vtk DataFile Version 3.1
this is an vtk file created by FEMAC
ASCII
DATASET UNSTRUCTURED_GRID
POINTS 12 FLOAT
6.000000 0.000000 0.000000
6.500000 0.000000 0.000000
6.000000 0.200000 0.000000
6.000000 0.400000 0.000000
6.000000 0.600000 0.000000
6.000000 0.800000 0.000000
6.000000 1.000000 0.000000
6.500000 0.200000 0.000000
6.500000 0.400000 0.000000
6.500000 0.600000 0.000000
6.500000 0.800000 0.000000
6.500000 1.000000 0.000000
CELLS 5 25 
4 0 1 7 2
4 2 7 8 3
4 3 8 9 4
4 4  9 10  5
4 5 10 11  6
CELL_TYPES 5
9 9 9 9 9 
POINT_DATA 12
VECTORS displacement_ITER1 FLOAT
 -2.709644e-03  -2.307749e-02  0 
 -2.734392e-03  -2.583174e-02  0 
 -1.613283e-03  -2.307509e-02  0 
 -5.418207e-04  -2.306607e-02  0 
 5.596877e-04  -2.306607e-02  0 
 1.631150e-03  -2.307509e-02  0 
 2.727511e-03  -2.307749e-02  0 
 -1.630793e-03  -2.582903e-02  0 
 -5.445809e-04  -2.583411e-02  0 
 5.624480e-04  -2.583411e-02  0 
 1.648660e-03  -2.582903e-02  0 
 2.752259e-03  -2.583174e-02  0 
VECTORS displacement_ITER2 FLOAT
 -2.692140e-03  -2.293581e-02  0 
 -2.716786e-03  -2.567426e-02  0 
 -1.601940e-03  -2.293302e-02  0 
 -5.370708e-04  -2.292737e-02  0 
 5.553899e-04  -2.292737e-02  0 
 1.620259e-03  -2.293302e-02  0 
 2.710459e-03  -2.293581e-02  0 
 -1.619421e-03  -2.567192e-02  0 
 -5.402174e-04  -2.567387e-02  0 
 5.585365e-04  -2.567387e-02  0 
 1.637740e-03  -2.567192e-02  0 
 2.735105e-03  -2.567426e-02  0 
VECTORS displacement_ITER3 FLOAT
 -2.680082e-03  -2.285605e-02  0 
 -2.704617e-03  -2.558546e-02  0 
 -1.593415e-03  -2.285309e-02  0 
 -5.331641e-04  -2.285198e-02  0 
 5.519814e-04  -2.285198e-02  0 
 1.612232e-03  -2.285309e-02  0 
 2.698899e-03  -2.285605e-02  0 
 -1.610877e-03  -2.558329e-02  0 
 -5.366617e-04  -2.558112e-02  0 
 5.554790e-04  -2.558112e-02  0 
 1.629694e-03  -2.558329e-02  0 
 2.723434e-03  -2.558546e-02  0 
VECTORS displacement_ITER4 FLOAT
 -2.678041e-03  -2.284470e-02  0 
 -2.702562e-03  -2.557165e-02  0 
 -1.592328e-03  -2.284165e-02  0 
 -5.327532e-04  -2.284030e-02  0 
 5.516236e-04  -2.284030e-02  0 
 1.611199e-03  -2.284165e-02  0 
 2.696911e-03  -2.284470e-02  0 
 -1.609782e-03  -2.556958e-02  0 
 -5.363110e-04  -2.556765e-02  0 
 5.551813e-04  -2.556765e-02  0 
 1.628652e-03  -2.556958e-02  0 
 2.721432e-03  -2.557165e-02  0 
VECTORS displacement_ITER5 FLOAT
 -2.676589e-03  -2.283678e-02  0 
 -2.701108e-03  -2.556125e-02  0 
 -1.591839e-03  -2.283360e-02  0 
 -5.326758e-04  -2.283130e-02  0 
 5.514989e-04  -2.283130e-02  0 
 1.610662e-03  -2.283360e-02  0 
 2.695412e-03  -2.283678e-02  0 
 -1.609276e-03  -2.555929e-02  0 
 -5.362812e-04  -2.555826e-02  0 
 5.551043e-04  -2.555826e-02  0 
 1.628099e-03  -2.555929e-02  0 
 2.719931e-03  -2.556125e-02  0 
VECTORS displacement_ITER6 FLOAT
 -2.676051e-03  -2.283397e-02  0 
 -2.700570e-03  -2.555769e-02  0 
 -1.591596e-03  -2.283075e-02  0 
 -5.326043e-04  -2.282833e-02  0 
 5.513614e-04  -2.282833e-02  0 
 1.610366e-03  -2.283070e-02  0 
 2.694856e-03  -2.283392e-02  0 
 -1.609015e-03  -2.555577e-02  0 
 -5.362448e-04  -2.555485e-02  0 
 5.549998e-04  -2.555485e-02  0 
 1.627786e-03  -2.555580e-02  0 
 2.719371e-03  -2.555773e-02  0 
VECTORS displacement_ITER7 FLOAT
 -2.675909e-03  -2.283341e-02  0 
 -2.700446e-03  -2.555730e-02  0 
 -1.591428e-03  -2.283019e-02  0 
 -5.325012e-04  -2.282813e-02  0 
 5.512228e-04  -2.282813e-02  0 
 1.610161e-03  -2.283024e-02  0 
 2.694678e-03  -2.283346e-02  0 
 -1.608822e-03  -2.555537e-02  0 
 -5.361529e-04  -2.555413e-02  0 
 5.549062e-04  -2.555413e-02  0 
 1.627565e-03  -2.555535e-02  0 
 2.719173e-03  -2.555727e-02  0 
VECTORS displacement_ITER8 FLOAT
 -2.675852e-03  -2.283339e-02  0 
 -2.700358e-03  -2.555728e-02  0 
 -1.591304e-03  -2.283017e-02  0 
 -5.323802e-04  -2.282825e-02  0 
 5.512035e-04  -2.282825e-02  0 
 1.610084e-03  -2.283014e-02  0 
 2.694559e-03  -2.283336e-02  0 
 -1.608683e-03  -2.555536e-02  0 
 -5.360789e-04  -2.555395e-02  0 
 5.548798e-04  -2.555395e-02  0 
 1.627461e-03  -2.555536e-02  0 
 2.719089e-03  -2.555728e-02  0 
VECTORS displacement_ITER9 FLOAT
 -2.675772e-03  -2.283326e-02  0 
 -2.700275e-03  -2.555709e-02  0 
 -1.591296e-03  -2.283004e-02  0 
 -5.323977e-04  -2.282811e-02  0 
 5.511575e-04  -2.282811e-02  0 
 1.610044e-03  -2.283005e-02  0 
 2.694492e-03  -2.283327e-02  0 
 -1.608660e-03  -2.555518e-02  0 
 -5.361119e-04  -2.555378e-02  0 
 5.548416e-04  -2.555377e-02  0 
 1.627399e-03  -2.555514e-02  0 
 2.719034e-03  -2.555705e-02  0 
VECTORS displacement_ITER10 FLOAT
 -2.675682e-03  -2.283309e-02  0 
 -2.700215e-03  -2.555675e-02  0 
 -1.591293e-03  -2.282986e-02  0 
 -5.324140e-04  -2.282786e-02  0 
 5.511388e-04  -2.282786e-02  0 
 1.610037e-03  -2.282987e-02  0 
 2.694444e-03  -2.283311e-02  0 
 -1.608634e-03  -2.555485e-02  0 
 -5.361163e-04  -2.555355e-02  0 
 5.548561e-04  -2.555355e-02  0 
 1.627377e-03  -2.555486e-02  0 
 2.718964e-03  -2.555676e-02  0 
VECTORS displacement_ITER11 FLOAT
 -2.675650e-03  -2.283306e-02  0 
 -2.700179e-03  -2.555665e-02  0 
 -1.591283e-03  -2.282982e-02  0 
 -5.324031e-04  -2.282781e-02  0 
 5.511304e-04  -2.282781e-02  0 
 1.610030e-03  -2.282979e-02  0 
 2.694424e-03  -2.283303e-02  0 
 -1.608613e-03  -2.555475e-02  0 
 -5.361178e-04  -2.555346e-02  0 
 5.548502e-04  -2.555346e-02  0 
 1.627358e-03  -2.555479e-02  0 
 2.718952e-03  -2.555669e-02  0 
VECTORS displacement_ITER12 FLOAT
 -2.675687e-03  -2.283302e-02  0 
 -2.700221e-03  -2.555676e-02  0 
 -1.591269e-03  -2.282979e-02  0 
 -5.323561e-04  -2.282785e-02  0 
 5.511612e-04  -2.282785e-02  0 
 1.610030e-03  -2.282988e-02  0 
 2.694368e-03  -2.283312e-02  0 
 -1.608590e-03  -2.555486e-02  0 
 -5.360765e-04  -2.555348e-02  0 
 5.548832e-04  -2.555348e-02  0 
 1.627354e-03  -2.555475e-02  0 
 2.718895e-03  -2.555665e-02  0 
VECTORS displacement_ITER13 FLOAT
 -2.675628e-03  -2.283310e-02  0 
 -2.700161e-03  -2.555667e-02  0 
 -1.591278e-03  -2.282986e-02  0 
 -5.323994e-04  -2.282785e-02  0 
 5.511165e-04  -2.282785e-02  0 
 1.610020e-03  -2.282981e-02  0 
 2.694419e-03  -2.283304e-02  0 
 -1.608598e-03  -2.555477e-02  0 
 -5.361205e-04  -2.555347e-02  0 
 5.548397e-04  -2.555348e-02  0 
 1.627341e-03  -2.555483e-02  0 
 2.718949e-03  -2.555673e-02  0 
VECTORS displacement_ITER14 FLOAT
 -2.675648e-03  -2.283306e-02  0 
 -2.700179e-03  -2.555668e-02  0 
 -1.591274e-03  -2.282982e-02  0 
 -5.323801e-04  -2.282783e-02  0 
 5.511363e-04  -2.282783e-02  0 
 1.610025e-03  -2.282983e-02  0 
 2.694390e-03  -2.283307e-02  0 
 -1.608593e-03  -2.555478e-02  0 
 -5.361027e-04  -2.555346e-02  0 
 5.548595e-04  -2.555346e-02  0 
 1.627343e-03  -2.555478e-02  0 
 2.718922e-03  -2.555667e-02  0 
VECTORS displacement_ITER15 FLOAT
 -2.675645e-03  -2.283306e-02  0 
 -2.700177e-03  -2.555668e-02  0 
 -1.591274e-03  -2.282982e-02  0 
 -5.323800e-04  -2.282783e-02  0 
 5.511343e-04  -2.282783e-02  0 
 1.610024e-03  -2.282982e-02  0 
 2.694391e-03  -2.283306e-02  0 
 -1.608591e-03  -2.555478e-02  0 
 -5.361042e-04  -2.555346e-02  0 
 5.548574e-04  -2.555346e-02  0 
 1.627342e-03  -2.555478e-02  0 
 2.718923e-03  -2.555667e-02  0 
VECTORS displacement_ITER16 FLOAT
 -2.675641e-03  -2.283306e-02  0 
 -2.700173e-03  -2.555668e-02  0 
 -1.591274e-03  -2.282982e-02  0 
 -5.323817e-04  -2.282784e-02  0 
 5.511293e-04  -2.282784e-02  0 
 1.610023e-03  -2.282982e-02  0 
 2.694395e-03  -2.283306e-02  0 
 -1.608591e-03  -2.555478e-02  0 
 -5.361066e-04  -2.555346e-02  0 
 5.548533e-04  -2.555346e-02  0 
 1.627340e-03  -2.555478e-02  0 
 2.718927e-03  -2.555668e-02  0 
VECTORS displacement_ITER17 FLOAT
 -2.675643e-03  -2.283306e-02  0 
 -2.700174e-03  -2.555668e-02  0 
 -1.591273e-03  -2.282982e-02  0 
 -5.323803e-04  -2.282784e-02  0 
 5.511300e-04  -2.282784e-02  0 
 1.610023e-03  -2.282982e-02  0 
 2.694393e-03  -2.283306e-02  0 
 -1.608590e-03  -2.555478e-02  0 
 -5.361052e-04  -2.555346e-02  0 
 5.548547e-04  -2.555346e-02  0 
 1.627340e-03  -2.555478e-02  0 
 2.718925e-03  -2.555668e-02  0 
VECTORS displacement_ITER18 FLOAT
 -2.675643e-03  -2.283306e-02  0 
 -2.700175e-03  -2.555668e-02  0 
 -1.591274e-03  -2.282982e-02  0 
 -5.323799e-04  -2.282784e-02  0 
 5.511310e-04  -2.282784e-02  0 
 1.610024e-03  -2.282983e-02  0 
 2.694391e-03  -2.283307e-02  0 
 -1.608590e-03  -2.555478e-02  0 
 -5.361048e-04  -2.555346e-02  0 
 5.548559e-04  -2.555346e-02  0 
 1.627340e-03  -2.555478e-02  0 
 2.718923e-03  -2.555668e-02  0 
VECTORS displacement_ITER19 FLOAT
 -2.675642e-03  -2.283306e-02  0 
 -2.700174e-03  -2.555668e-02  0 
 -1.591274e-03  -2.282982e-02  0 
 -5.323805e-04  -2.282784e-02  0 
 5.511307e-04  -2.282784e-02  0 
 1.610024e-03  -2.282983e-02  0 
 2.694392e-03  -2.283307e-02  0 
 -1.608590e-03  -2.555478e-02  0 
 -5.361054e-04  -2.555346e-02  0 
 5.548556e-04  -2.555346e-02  0 
 1.627340e-03  -2.555478e-02  0 
 2.718924e-03  -2.555668e-02  0 
VECTORS displacement_ITER20 FLOAT
 -2.675642e-03  -2.283306e-02  0 
 -2.700174e-03  -2.555668e-02  0 
 -1.591274e-03  -2.282982e-02  0 
 -5.323807e-04  -2.282784e-02  0 
 5.511304e-04  -2.282784e-02  0 
 1.610024e-03  -2.282982e-02  0 
 2.694392e-03  -2.283306e-02  0 
 -1.608590e-03  -2.555478e-02  0 
 -5.361056e-04  -2.555346e-02  0 
 5.548553e-04  -2.555346e-02  0 
 1.627340e-03  -2.555478e-02  0 
 2.718924e-03  -2.555668e-02  0 
VECTORS displacement_ITER21 FLOAT
 -2.675642e-03  -2.283306e-02  0 
 -2.700174e-03  -2.555668e-02  0 
 -1.591274e-03  -2.282982e-02  0 
 -5.323805e-04  -2.282784e-02  0 
 5.511305e-04  -2.282784e-02  0 
 1.610024e-03  -2.282982e-02  0 
 2.694392e-03  -2.283306e-02  0 
 -1.608590e-03  -2.555478e-02  0 
 -5.361053e-04  -2.555346e-02  0 
 5.548555e-04  -2.555346e-02  0 
 1.627340e-03  -2.555478e-02  0 
 2.718924e-03  -2.555668e-02  0 
VECTORS displacement_ITER22 FLOAT
 -2.675642e-03  -2.283306e-02  0 
 -2.700174e-03  -2.555668e-02  0 
 -1.591274e-03  -2.282982e-02  0 
 -5.323805e-04  -2.282784e-02  0 
 5.511305e-04  -2.282784e-02  0 
 1.610024e-03  -2.282982e-02  0 
 2.694392e-03  -2.283306e-02  0 
 -1.608590e-03  -2.555478e-02  0 
 -5.361054e-04  -2.555346e-02  0 
 5.548554e-04  -2.555346e-02  0 
 1.627340e-03  -2.555478e-02  0 
 2.718924e-03  -2.555668e-02  0 
VECTORS displacement_ITER23 FLOAT
 -2.675642e-03  -2.283306e-02  0 
 -2.700174e-03  -2.555668e-02  0 
 -1.591274e-03  -2.282982e-02  0 
 -5.323805e-04  -2.282784e-02  0 
 5.511305e-04  -2.282784e-02  0 
 1.610024e-03  -2.282982e-02  0 
 2.694392e-03  -2.283307e-02  0 
 -1.608590e-03  -2.555478e-02  0 
 -5.361054e-04  -2.555346e-02  0 
 5.548554e-04  -2.555346e-02  0 
 1.627340e-03  -2.555478e-02  0 
 2.718924e-03  -2.555668e-02  0 
VECTORS displacement_ITER24 FLOAT
 -2.675642e-03  -2.283306e-02  0 
 -2.700174e-03  -2.555668e-02  0 
 -1.591274e-03  -2.282982e-02  0 
 -5.323805e-04  -2.282784e-02  0 
 5.511305e-04  -2.282784e-02  0 
 1.610024e-03  -2.282982e-02  0 
 2.694392e-03  -2.283307e-02  0 
 -1.608590e-03  -2.555478e-02  0 
 -5.361054e-04  -2.555346e-02  0 
 5.548554e-04  -2.555346e-02  0 
 1.627340e-03  -2.555478e-02  0 
 2.718924e-03  -2.555668e-02  0 
VECTORS displacement_ITER25 FLOAT
 -2.675642e-03  -2.283306e-02  0 
 -2.700174e-03  -2.555668e-02  0 
 -1.591274e-03  -2.282982e-02  0 
 -5.323805e-04  -2.282784e-02  0 
 5.511305e-04  -2.282784e-02  0 
 1.610024e-03  -2.282982e-02  0 
 2.694392e-03  -2.283307e-02  0 
 -1.608590e-03  -2.555478e-02  0 
 -5.361054e-04  -2.555346e-02  0 
 5.548554e-04  -2.555346e-02  0 
 1.627340e-03  -2.555478e-02  0 
 2.718924e-03  -2.555668e-02  0 
CELL_DATA 5
TENSORS element_stresses FLOAT
 -4.175434e-02  -6.687666e-03  0 
 -6.687666e-03  3.121059e-04  0 
 0  0  0 

 -2.039325e-03  -9.394956e-03  0 
 -9.394956e-03  2.159364e-04  0 
 0  0  0 

 5.490380e-08  -1.158481e-02  0 
 -1.158481e-02  -9.241405e-08  0 
 0  0  0 

 2.039281e-03  -9.394882e-03  0 
 -9.394882e-03  -2.160692e-04  0 
 0  0  0 

 4.175433e-02  -6.687686e-03  0 
 -6.687686e-03  -3.121494e-04  0 
 0  0  0 

TENSORS element_stresses FLOAT
 -4.175434e-02  -6.687666e-03  0 
 -6.687666e-03  3.121059e-04  0 
 0  0  0 

 -2.039325e-03  -9.394956e-03  0 
 -9.394956e-03  2.159364e-04  0 
 0  0  0 

 5.490380e-08  -1.158481e-02  0 
 -1.158481e-02  -9.241405e-08  0 
 0  0  0 

 2.039281e-03  -9.394882e-03  0 
 -9.394882e-03  -2.160692e-04  0 
 0  0  0 

 4.175433e-02  -6.687686e-03  0 
 -6.687686e-03  -3.121494e-04  0 
 0  0  0 

