# vtk DataFile Version 3.1
this is an vtk file created by FEMAC
ASCII
DATASET UNSTRUCTURED_GRID
POINTS 12 FLOAT
4.500000 0.000000 0.000000
5.000000 0.000000 0.000000
4.500000 0.200000 0.000000
4.500000 0.400000 0.000000
4.500000 0.600000 0.000000
4.500000 0.800000 0.000000
4.500000 1.000000 0.000000
5.000000 0.200000 0.000000
5.000000 0.400000 0.000000
5.000000 0.600000 0.000000
5.000000 0.800000 0.000000
5.000000 1.000000 0.000000
CELLS 5 25 
4 0 1 7 2
4 2 7 8 3
4 3 8 9 4
4 4  9 10  5
4 5 10 11  6
CELL_TYPES 5
9 9 9 9 9 
POINT_DATA 12
VECTORS displacement_ITER1 FLOAT
 -2.522169e-03  -1.503567e-02  0 
 -2.606120e-03  -1.765201e-02  0 
 -1.491782e-03  -1.502742e-02  0 
 -5.110378e-04  -1.500940e-02  0 
 5.289048e-04  -1.500940e-02  0 
 1.509649e-03  -1.502742e-02  0 
 2.540036e-03  -1.503567e-02  0 
 -1.549818e-03  -1.764319e-02  0 
 -5.224042e-04  -1.765137e-02  0 
 5.402713e-04  -1.765137e-02  0 
 1.567685e-03  -1.764319e-02  0 
 2.623987e-03  -1.765201e-02  0 
VECTORS displacement_ITER2 FLOAT
 -2.505512e-03  -1.494436e-02  0 
 -2.589692e-03  -1.754696e-02  0 
 -1.481594e-03  -1.493550e-02  0 
 -5.050266e-04  -1.492341e-02  0 
 5.233457e-04  -1.492341e-02  0 
 1.499914e-03  -1.493550e-02  0 
 2.523831e-03  -1.494436e-02  0 
 -1.537481e-03  -1.753895e-02  0 
 -5.183782e-04  -1.754156e-02  0 
 5.366974e-04  -1.754156e-02  0 
 1.555800e-03  -1.753895e-02  0 
 2.608012e-03  -1.754696e-02  0 
VECTORS displacement_ITER3 FLOAT
 -2.494465e-03  -1.489606e-02  0 
 -2.578786e-03  -1.749322e-02  0 
 -1.473507e-03  -1.488695e-02  0 
 -4.998095e-04  -1.488317e-02  0 
 5.186268e-04  -1.488317e-02  0 
 1.492324e-03  -1.488695e-02  0 
 2.513283e-03  -1.489606e-02  0 
 -1.527807e-03  -1.748561e-02  0 
 -5.146797e-04  -1.748039e-02  0 
 5.334970e-04  -1.748039e-02  0 
 1.546625e-03  -1.748561e-02  0 
 2.597603e-03  -1.749322e-02  0 
VECTORS displacement_ITER4 FLOAT
 -2.492488e-03  -1.489111e-02  0 
 -2.576854e-03  -1.748580e-02  0 
 -1.472652e-03  -1.488186e-02  0 
 -4.992948e-04  -1.487787e-02  0 
 5.181651e-04  -1.487787e-02  0 
 1.491522e-03  -1.488186e-02  0 
 2.511359e-03  -1.489111e-02  0 
 -1.526630e-03  -1.747836e-02  0 
 -5.144415e-04  -1.747335e-02  0 
 5.333118e-04  -1.747335e-02  0 
 1.545500e-03  -1.747836e-02  0 
 2.595724e-03  -1.748580e-02  0 
VECTORS displacement_ITER5 FLOAT
 -2.492452e-03  -1.488627e-02  0 
 -2.576726e-03  -1.748201e-02  0 
 -1.472154e-03  -1.487692e-02  0 
 -4.982761e-04  -1.487374e-02  0 
 5.190552e-04  -1.487401e-02  0 
 1.491677e-03  -1.488189e-02  0 
 2.508324e-03  -1.489145e-02  0 
 -1.525945e-03  -1.747471e-02  0 
 -5.135432e-04  -1.746970e-02  0 
 5.345440e-04  -1.746956e-02  0 
 1.545244e-03  -1.747162e-02  0 
 2.592887e-03  -1.747878e-02  0 
VECTORS displacement_ITER6 FLOAT
 -2.488245e-03  -1.489127e-02  0 
 -2.572758e-03  -1.747566e-02  0 
 -1.472788e-03  -1.488160e-02  0 
 -5.008877e-04  -1.487286e-02  0 
 5.162004e-04  -1.487256e-02  0 
 1.490796e-03  -1.487535e-02  0 
 2.511445e-03  -1.488472e-02  0 
 -1.526272e-03  -1.746865e-02  0 
 -5.164098e-04  -1.746805e-02  0 
 5.316904e-04  -1.746832e-02  0 
 1.544360e-03  -1.747433e-02  0 
 2.595815e-03  -1.748161e-02  0 
VECTORS displacement_ITER7 FLOAT
 -2.491081e-03  -1.488698e-02  0 
 -2.575644e-03  -1.748003e-02  0 
 -1.472192e-03  -1.487749e-02  0 
 -4.983132e-04  -1.487293e-02  0 
 5.184223e-04  -1.487298e-02  0 
 1.491084e-03  -1.487901e-02  0 
 2.508388e-03  -1.488857e-02  0 
 -1.525554e-03  -1.747283e-02  0 
 -5.139512e-04  -1.746782e-02  0 
 5.339548e-04  -1.746769e-02  0 
 1.544598e-03  -1.747018e-02  0 
 2.592724e-03  -1.747724e-02  0 
VECTORS displacement_ITER8 FLOAT
 -2.490665e-03  -1.488738e-02  0 
 -2.575129e-03  -1.747935e-02  0 
 -1.472151e-03  -1.487788e-02  0 
 -4.985606e-04  -1.487329e-02  0 
 5.179658e-04  -1.487333e-02  0 
 1.490957e-03  -1.487877e-02  0 
 2.508696e-03  -1.488832e-02  0 
 -1.525527e-03  -1.747221e-02  0 
 -5.141989e-04  -1.746774e-02  0 
 5.335987e-04  -1.746770e-02  0 
 1.544347e-03  -1.747126e-02  0 
 2.593143e-03  -1.747836e-02  0 
VECTORS displacement_ITER9 FLOAT
 -2.490166e-03  -1.488813e-02  0 
 -2.574621e-03  -1.747875e-02  0 
 -1.472204e-03  -1.487858e-02  0 
 -4.989180e-04  -1.487341e-02  0 
 5.175764e-04  -1.487340e-02  0 
 1.490907e-03  -1.487836e-02  0 
 2.509061e-03  -1.488790e-02  0 
 -1.525552e-03  -1.747165e-02  0 
 -5.145827e-04  -1.746780e-02  0 
 5.332348e-04  -1.746781e-02  0 
 1.544256e-03  -1.747190e-02  0 
 2.593529e-03  -1.747901e-02  0 
VECTORS displacement_ITER10 FLOAT
 -2.490106e-03  -1.488824e-02  0 
 -2.574571e-03  -1.747871e-02  0 
 -1.472220e-03  -1.487867e-02  0 
 -4.989267e-04  -1.487338e-02  0 
 5.175828e-04  -1.487337e-02  0 
 1.490948e-03  -1.487848e-02  0 
 2.508976e-03  -1.488804e-02  0 
 -1.525533e-03  -1.747163e-02  0 
 -5.146162e-04  -1.746786e-02  0 
 5.332553e-04  -1.746786e-02  0 
 1.544268e-03  -1.747178e-02  0 
 2.593449e-03  -1.747887e-02  0 
VECTORS displacement_ITER11 FLOAT
 -2.490178e-03  -1.488809e-02  0 
 -2.574642e-03  -1.747879e-02  0 
 -1.472207e-03  -1.487852e-02  0 
 -4.988464e-04  -1.487338e-02  0 
 5.176405e-04  -1.487338e-02  0 
 1.490971e-03  -1.487863e-02  0 
 2.508861e-03  -1.488820e-02  0 
 -1.525506e-03  -1.747171e-02  0 
 -5.145395e-04  -1.746783e-02  0 
 5.333310e-04  -1.746783e-02  0 
 1.544262e-03  -1.747166e-02  0 
 2.593347e-03  -1.747874e-02  0 
VECTORS displacement_ITER12 FLOAT
 -2.490141e-03  -1.488815e-02  0 
 -2.574614e-03  -1.747880e-02  0 
 -1.472203e-03  -1.487858e-02  0 
 -4.988604e-04  -1.487344e-02  0 
 5.175929e-04  -1.487344e-02  0 
 1.490953e-03  -1.487857e-02  0 
 2.508906e-03  -1.488813e-02  0 
 -1.525488e-03  -1.747172e-02  0 
 -5.145608e-04  -1.746783e-02  0 
 5.332907e-04  -1.746783e-02  0 
 1.544236e-03  -1.747175e-02  0 
 2.593387e-03  -1.747883e-02  0 
VECTORS displacement_ITER13 FLOAT
 -2.490136e-03  -1.488817e-02  0 
 -2.574613e-03  -1.747881e-02  0 
 -1.472203e-03  -1.487860e-02  0 
 -4.988599e-04  -1.487346e-02  0 
 5.175904e-04  -1.487346e-02  0 
 1.490951e-03  -1.487857e-02  0 
 2.508909e-03  -1.488813e-02  0 
 -1.525484e-03  -1.747174e-02  0 
 -5.145623e-04  -1.746784e-02  0 
 5.332906e-04  -1.746784e-02  0 
 1.544232e-03  -1.747177e-02  0 
 2.593387e-03  -1.747885e-02  0 
VECTORS displacement_ITER14 FLOAT
 -2.490140e-03  -1.488818e-02  0 
 -2.574618e-03  -1.747883e-02  0 
 -1.472205e-03  -1.487861e-02  0 
 -4.988532e-04  -1.487346e-02  0 
 5.176009e-04  -1.487346e-02  0 
 1.490952e-03  -1.487860e-02  0 
 2.508896e-03  -1.488816e-02  0 
 -1.525484e-03  -1.747176e-02  0 
 -5.145581e-04  -1.746786e-02  0 
 5.333032e-04  -1.746786e-02  0 
 1.544233e-03  -1.747175e-02  0 
 2.593372e-03  -1.747883e-02  0 
VECTORS displacement_ITER15 FLOAT
 -2.490141e-03  -1.488818e-02  0 
 -2.574619e-03  -1.747883e-02  0 
 -1.472206e-03  -1.487861e-02  0 
 -4.988507e-04  -1.487346e-02  0 
 5.176033e-04  -1.487346e-02  0 
 1.490953e-03  -1.487860e-02  0 
 2.508893e-03  -1.488817e-02  0 
 -1.525485e-03  -1.747176e-02  0 
 -5.145565e-04  -1.746786e-02  0 
 5.333066e-04  -1.746786e-02  0 
 1.544234e-03  -1.747175e-02  0 
 2.593369e-03  -1.747883e-02  0 
VECTORS displacement_ITER16 FLOAT
 -2.490139e-03  -1.488818e-02  0 
 -2.574618e-03  -1.747883e-02  0 
 -1.472208e-03  -1.487861e-02  0 
 -4.988498e-04  -1.487346e-02  0 
 5.176016e-04  -1.487346e-02  0 
 1.490954e-03  -1.487860e-02  0 
 2.508894e-03  -1.488817e-02  0 
 -1.525485e-03  -1.747175e-02  0 
 -5.145567e-04  -1.746786e-02  0 
 5.333059e-04  -1.746786e-02  0 
 1.544234e-03  -1.747175e-02  0 
 2.593369e-03  -1.747883e-02  0 
VECTORS displacement_ITER17 FLOAT
 -2.490139e-03  -1.488818e-02  0 
 -2.574618e-03  -1.747883e-02  0 
 -1.472208e-03  -1.487862e-02  0 
 -4.988488e-04  -1.487346e-02  0 
 5.176007e-04  -1.487346e-02  0 
 1.490954e-03  -1.487860e-02  0 
 2.508894e-03  -1.488817e-02  0 
 -1.525485e-03  -1.747175e-02  0 
 -5.145566e-04  -1.746786e-02  0 
 5.333054e-04  -1.746786e-02  0 
 1.544234e-03  -1.747175e-02  0 
 2.593369e-03  -1.747883e-02  0 
VECTORS displacement_ITER18 FLOAT
 -2.490140e-03  -1.488818e-02  0 
 -2.574618e-03  -1.747883e-02  0 
 -1.472208e-03  -1.487862e-02  0 
 -4.988478e-04  -1.487347e-02  0 
 5.176004e-04  -1.487346e-02  0 
 1.490954e-03  -1.487860e-02  0 
 2.508894e-03  -1.488817e-02  0 
 -1.525484e-03  -1.747176e-02  0 
 -5.145563e-04  -1.746786e-02  0 
 5.333056e-04  -1.746786e-02  0 
 1.544233e-03  -1.747175e-02  0 
 2.593370e-03  -1.747883e-02  0 
VECTORS displacement_ITER19 FLOAT
 -2.490140e-03  -1.488819e-02  0 
 -2.574618e-03  -1.747883e-02  0 
 -1.472208e-03  -1.487862e-02  0 
 -4.988476e-04  -1.487347e-02  0 
 5.176002e-04  -1.487346e-02  0 
 1.490954e-03  -1.487860e-02  0 
 2.508894e-03  -1.488817e-02  0 
 -1.525484e-03  -1.747176e-02  0 
 -5.145565e-04  -1.746786e-02  0 
 5.333059e-04  -1.746786e-02  0 
 1.544233e-03  -1.747176e-02  0 
 2.593370e-03  -1.747883e-02  0 
VECTORS displacement_ITER20 FLOAT
 -2.490140e-03  -1.488819e-02  0 
 -2.574618e-03  -1.747883e-02  0 
 -1.472208e-03  -1.487862e-02  0 
 -4.988479e-04  -1.487347e-02  0 
 5.176003e-04  -1.487346e-02  0 
 1.490955e-03  -1.487860e-02  0 
 2.508894e-03  -1.488817e-02  0 
 -1.525484e-03  -1.747176e-02  0 
 -5.145569e-04  -1.746786e-02  0 
 5.333060e-04  -1.746786e-02  0 
 1.544233e-03  -1.747176e-02  0 
 2.593370e-03  -1.747883e-02  0 
VECTORS displacement_ITER21 FLOAT
 -2.490140e-03  -1.488819e-02  0 
 -2.574618e-03  -1.747883e-02  0 
 -1.472209e-03  -1.487862e-02  0 
 -4.988480e-04  -1.487347e-02  0 
 5.176003e-04  -1.487346e-02  0 
 1.490955e-03  -1.487860e-02  0 
 2.508894e-03  -1.488817e-02  0 
 -1.525484e-03  -1.747176e-02  0 
 -5.145571e-04  -1.746786e-02  0 
 5.333061e-04  -1.746786e-02  0 
 1.544233e-03  -1.747176e-02  0 
 2.593370e-03  -1.747883e-02  0 
VECTORS displacement_ITER22 FLOAT
 -2.490140e-03  -1.488819e-02  0 
 -2.574618e-03  -1.747883e-02  0 
 -1.472208e-03  -1.487862e-02  0 
 -4.988481e-04  -1.487347e-02  0 
 5.176003e-04  -1.487346e-02  0 
 1.490955e-03  -1.487860e-02  0 
 2.508894e-03  -1.488817e-02  0 
 -1.525484e-03  -1.747176e-02  0 
 -5.145571e-04  -1.746786e-02  0 
 5.333061e-04  -1.746786e-02  0 
 1.544233e-03  -1.747176e-02  0 
 2.593370e-03  -1.747883e-02  0 
VECTORS displacement_ITER23 FLOAT
 -2.490140e-03  -1.488819e-02  0 
 -2.574618e-03  -1.747883e-02  0 
 -1.472208e-03  -1.487862e-02  0 
 -4.988481e-04  -1.487347e-02  0 
 5.176003e-04  -1.487346e-02  0 
 1.490955e-03  -1.487860e-02  0 
 2.508894e-03  -1.488817e-02  0 
 -1.525484e-03  -1.747176e-02  0 
 -5.145571e-04  -1.746786e-02  0 
 5.333060e-04  -1.746786e-02  0 
 1.544233e-03  -1.747176e-02  0 
 2.593370e-03  -1.747883e-02  0 
VECTORS displacement_ITER24 FLOAT
 -2.490140e-03  -1.488819e-02  0 
 -2.574618e-03  -1.747883e-02  0 
 -1.472208e-03  -1.487862e-02  0 
 -4.988481e-04  -1.487347e-02  0 
 5.176003e-04  -1.487346e-02  0 
 1.490955e-03  -1.487860e-02  0 
 2.508894e-03  -1.488817e-02  0 
 -1.525484e-03  -1.747176e-02  0 
 -5.145571e-04  -1.746786e-02  0 
 5.333060e-04  -1.746786e-02  0 
 1.544233e-03  -1.747176e-02  0 
 2.593370e-03  -1.747883e-02  0 
VECTORS displacement_ITER25 FLOAT
 -2.490140e-03  -1.488819e-02  0 
 -2.574618e-03  -1.747883e-02  0 
 -1.472208e-03  -1.487862e-02  0 
 -4.988481e-04  -1.487347e-02  0 
 5.176003e-04  -1.487346e-02  0 
 1.490955e-03  -1.487860e-02  0 
 2.508894e-03  -1.488817e-02  0 
 -1.525484e-03  -1.747176e-02  0 
 -5.145571e-04  -1.746786e-02  0 
 5.333060e-04  -1.746786e-02  0 
 1.544233e-03  -1.747176e-02  0 
 2.593370e-03  -1.747883e-02  0 
CELL_DATA 5
TENSORS element_stresses FLOAT
 -1.376592e-01  -1.240242e-02  0 
 -1.240242e-02  3.144395e-04  0 
 0  0  0 

 -6.834937e-03  -1.744748e-02  0 
 -1.744748e-02  2.116281e-04  0 
 0  0  0 

 -2.442017e-06  -2.154673e-02  0 
 -2.154673e-02  2.734725e-06  0 
 0  0  0 

 6.836143e-03  -1.744981e-02  0 
 -1.744981e-02  -2.074361e-04  0 
 0  0  0 

 1.376604e-01  -1.240357e-02  0 
 -1.240357e-02  -3.128847e-04  0 
 0  0  0 

TENSORS element_stresses FLOAT
 -1.376592e-01  -1.240242e-02  0 
 -1.240242e-02  3.144395e-04  0 
 0  0  0 

 -6.834937e-03  -1.744748e-02  0 
 -1.744748e-02  2.116281e-04  0 
 0  0  0 

 -2.442017e-06  -2.154673e-02  0 
 -2.154673e-02  2.734725e-06  0 
 0  0  0 

 6.836143e-03  -1.744981e-02  0 
 -1.744981e-02  -2.074361e-04  0 
 0  0  0 

 1.376604e-01  -1.240357e-02  0 
 -1.240357e-02  -3.128847e-04  0 
 0  0  0 

