# vtk DataFile Version 3.1
this is an vtk file created by FEMAC
ASCII
DATASET UNSTRUCTURED_GRID
POINTS 12 FLOAT
7.000000 0.000000 0.000000
7.500000 0.000000 0.000000
7.000000 0.200000 0.000000
7.000000 0.400000 0.000000
7.000000 0.600000 0.000000
7.000000 0.800000 0.000000
7.000000 1.000000 0.000000
7.500000 0.200000 0.000000
7.500000 0.400000 0.000000
7.500000 0.600000 0.000000
7.500000 0.800000 0.000000
7.500000 1.000000 0.000000
CELLS 5 25 
4 0 1 7 2
4 2 7 8 3
4 3 8 9 4
4 4  9 10  5
4 5 10 11  6
CELL_TYPES 5
9 9 9 9 9 
POINT_DATA 12
VECTORS displacement_ITER1 FLOAT
 -2.467110e-04  -2.568718e-03  0 
 -2.476459e-04  -2.817405e-03  0 
 -1.477980e-04  -2.568605e-03  0 
 -4.838838e-05  -2.568305e-03  0 
 5.117060e-05  -2.568305e-03  0 
 1.505802e-04  -2.568605e-03  0 
 2.494932e-04  -2.568718e-03  0 
 -1.480820e-04  -2.817483e-03  0 
 -4.847964e-05  -2.817725e-03  0 
 5.126186e-05  -2.817725e-03  0 
 1.508642e-04  -2.817483e-03  0 
 2.504281e-04  -2.817405e-03  0 
VECTORS displacement_ITER2 FLOAT
 -2.430121e-04  -2.536015e-03  0 
 -2.438119e-04  -2.781036e-03  0 
 -1.454321e-04  -2.536019e-03  0 
 -4.768157e-05  -2.535902e-03  0 
 5.003594e-05  -2.535902e-03  0 
 1.477865e-04  -2.536019e-03  0 
 2.453665e-04  -2.536015e-03  0 
 -1.458143e-04  -2.781031e-03  0 
 -4.783319e-05  -2.781072e-03  0 
 5.018756e-05  -2.781072e-03  0 
 1.481686e-04  -2.781031e-03  0 
 2.461662e-04  -2.781036e-03  0 
VECTORS displacement_ITER3 FLOAT
 -2.415067e-04  -2.524852e-03  0 
 -2.422469e-04  -2.768488e-03  0 
 -1.444172e-04  -2.524901e-03  0 
 -4.731165e-05  -2.524875e-03  0 
 4.969205e-05  -2.524875e-03  0 
 1.467976e-04  -2.524901e-03  0 
 2.438872e-04  -2.524852e-03  0 
 -1.448448e-04  -2.768447e-03  0 
 -4.748338e-05  -2.768397e-03  0 
 4.986378e-05  -2.768397e-03  0 
 1.472252e-04  -2.768447e-03  0 
 2.446273e-04  -2.768488e-03  0 
VECTORS displacement_ITER4 FLOAT
 -2.410144e-04  -2.521331e-03  0 
 -2.417516e-04  -2.764435e-03  0 
 -1.441284e-04  -2.521363e-03  0 
 -4.723076e-05  -2.521341e-03  0 
 4.959347e-05  -2.521341e-03  0 
 1.464912e-04  -2.521363e-03  0 
 2.433771e-04  -2.521331e-03  0 
 -1.445601e-04  -2.764411e-03  0 
 -4.739110e-05  -2.764370e-03  0 
 4.975381e-05  -2.764370e-03  0 
 1.469228e-04  -2.764411e-03  0 
 2.441143e-04  -2.764435e-03  0 
VECTORS displacement_ITER5 FLOAT
 -2.407550e-04  -2.519236e-03  0 
 -2.414982e-04  -2.761988e-03  0 
 -1.440083e-04  -2.519240e-03  0 
 -4.723308e-05  -2.519207e-03  0 
 4.951443e-05  -2.519207e-03  0 
 1.462897e-04  -2.519240e-03  0 
 2.430364e-04  -2.519236e-03  0 
 -1.444383e-04  -2.761986e-03  0 
 -4.737756e-05  -2.761972e-03  0 
 4.965892e-05  -2.761972e-03  0 
 1.467196e-04  -2.761986e-03  0 
 2.437796e-04  -2.761988e-03  0 
VECTORS displacement_ITER6 FLOAT
 -2.407033e-04  -2.518800e-03  0 
 -2.414461e-04  -2.761473e-03  0 
 -1.439823e-04  -2.518794e-03  0 
 -4.723918e-05  -2.518763e-03  0 
 4.949273e-05  -2.518763e-03  0 
 1.462359e-04  -2.518794e-03  0 
 2.429568e-04  -2.518800e-03  0 
 -1.444150e-04  -2.761475e-03  0 
 -4.737925e-05  -2.761467e-03  0 
 4.963281e-05  -2.761467e-03  0 
 1.466686e-04  -2.761475e-03  0 
 2.436997e-04  -2.761473e-03  0 
VECTORS displacement_ITER7 FLOAT
 -2.406726e-04  -2.518665e-03  0 
 -2.414128e-04  -2.761304e-03  0 
 -1.439538e-04  -2.518652e-03  0 
 -4.723484e-05  -2.518628e-03  0 
 4.948579e-05  -2.518624e-03  0 
 1.462094e-04  -2.518644e-03  0 
 2.429369e-04  -2.518655e-03  0 
 -1.443937e-04  -2.761303e-03  0 
 -4.737408e-05  -2.761297e-03  0 
 4.962533e-05  -2.761299e-03  0 
 1.466491e-04  -2.761308e-03  0 
 2.436737e-04  -2.761311e-03  0 
VECTORS displacement_ITER8 FLOAT
 -2.406924e-04  -2.518615e-03  0 
 -2.414219e-04  -2.761307e-03  0 
 -1.439394e-04  -2.518605e-03  0 
 -4.721406e-05  -2.518601e-03  0 
 4.950285e-05  -2.518617e-03  0 
 1.462045e-04  -2.518647e-03  0 
 2.429135e-04  -2.518667e-03  0 
 -1.443834e-04  -2.761298e-03  0 
 -4.735536e-05  -2.761281e-03  0 
 4.964310e-05  -2.761269e-03  0 
 1.466485e-04  -2.761267e-03  0 
 2.436561e-04  -2.761270e-03  0 
VECTORS displacement_ITER9 FLOAT
 -2.406345e-04  -2.518707e-03  0 
 -2.413818e-04  -2.761253e-03  0 
 -1.439499e-04  -2.518678e-03  0 
 -4.726311e-05  -2.518631e-03  0 
 4.945615e-05  -2.518594e-03  0 
 1.462001e-04  -2.518581e-03  0 
 2.429873e-04  -2.518587e-03  0 
 -1.443942e-04  -2.761253e-03  0 
 -4.740532e-05  -2.761273e-03  0 
 4.959976e-05  -2.761304e-03  0 
 1.466449e-04  -2.761333e-03  0 
 2.437132e-04  -2.761350e-03  0 
VECTORS displacement_ITER10 FLOAT
 -2.407695e-04  -2.518582e-03  0 
 -2.415021e-04  -2.761410e-03  0 
 -1.439569e-04  -2.518578e-03  0 
 -4.719266e-05  -2.518599e-03  0 
 4.953108e-05  -2.518651e-03  0 
 1.462114e-04  -2.518713e-03  0 
 2.428818e-04  -2.518751e-03  0 
 -1.444012e-04  -2.761385e-03  0 
 -4.733944e-05  -2.761345e-03  0 
 4.967753e-05  -2.761298e-03  0 
 1.466547e-04  -2.761259e-03  0 
 2.436258e-04  -2.761253e-03  0 
VECTORS displacement_ITER11 FLOAT
 -2.406832e-04  -2.518753e-03  0 
 -2.414179e-04  -2.761323e-03  0 
 -1.439778e-04  -2.518719e-03  0 
 -4.727579e-05  -2.518672e-03  0 
 4.944917e-05  -2.518641e-03  0 
 1.462057e-04  -2.518639e-03  0 
 2.429950e-04  -2.518652e-03  0 
 -1.444212e-04  -2.761325e-03  0 
 -4.742653e-05  -2.761353e-03  0 
 4.959923e-05  -2.761386e-03  0 
 1.466492e-04  -2.761412e-03  0 
 2.437384e-04  -2.761434e-03  0 
VECTORS displacement_ITER12 FLOAT
 -2.407404e-04  -2.518728e-03  0 
 -2.414853e-04  -2.761455e-03  0 
 -1.439740e-04  -2.518708e-03  0 
 -4.722852e-05  -2.518693e-03  0 
 4.949395e-05  -2.518703e-03  0 
 1.462177e-04  -2.518735e-03  0 
 2.429569e-04  -2.518763e-03  0 
 -1.444173e-04  -2.761439e-03  0 
 -4.738168e-05  -2.761427e-03  0 
 4.964749e-05  -2.761413e-03  0 
 1.466620e-04  -2.761402e-03  0 
 2.436892e-04  -2.761407e-03  0 
VECTORS displacement_ITER13 FLOAT
 -2.407240e-04  -2.518754e-03  0 
 -2.414590e-04  -2.761420e-03  0 
 -1.439777e-04  -2.518729e-03  0 
 -4.724694e-05  -2.518700e-03  0 
 4.947457e-05  -2.518695e-03  0 
 1.462161e-04  -2.518716e-03  0 
 2.429749e-04  -2.518738e-03  0 
 -1.444217e-04  -2.761413e-03  0 
 -4.740001e-05  -2.761418e-03  0 
 4.962752e-05  -2.761425e-03  0 
 1.466595e-04  -2.761431e-03  0 
 2.437174e-04  -2.761444e-03  0 
VECTORS displacement_ITER14 FLOAT
 -2.407320e-04  -2.518735e-03  0 
 -2.414710e-04  -2.761422e-03  0 
 -1.439796e-04  -2.518713e-03  0 
 -4.724279e-05  -2.518687e-03  0 
 4.947898e-05  -2.518688e-03  0 
 1.462146e-04  -2.518715e-03  0 
 2.429647e-04  -2.518738e-03  0 
 -1.444233e-04  -2.761413e-03  0 
 -4.739433e-05  -2.761411e-03  0 
 4.963061e-05  -2.761411e-03  0 
 1.466582e-04  -2.761411e-03  0 
 2.437037e-04  -2.761419e-03  0 
VECTORS displacement_ITER15 FLOAT
 -2.407302e-04  -2.518739e-03  0 
 -2.414692e-04  -2.761423e-03  0 
 -1.439793e-04  -2.518717e-03  0 
 -4.724393e-05  -2.518691e-03  0 
 4.947841e-05  -2.518691e-03  0 
 1.462138e-04  -2.518716e-03  0 
 2.429656e-04  -2.518738e-03  0 
 -1.444232e-04  -2.761414e-03  0 
 -4.739441e-05  -2.761413e-03  0 
 4.962877e-05  -2.761413e-03  0 
 1.466580e-04  -2.761414e-03  0 
 2.437041e-04  -2.761423e-03  0 
VECTORS displacement_ITER16 FLOAT
 -2.407300e-04  -2.518737e-03  0 
 -2.414689e-04  -2.761421e-03  0 
 -1.439789e-04  -2.518715e-03  0 
 -4.724402e-05  -2.518688e-03  0 
 4.947945e-05  -2.518688e-03  0 
 1.462142e-04  -2.518715e-03  0 
 2.429652e-04  -2.518737e-03  0 
 -1.444230e-04  -2.761412e-03  0 
 -4.739389e-05  -2.761411e-03  0 
 4.962931e-05  -2.761411e-03  0 
 1.466583e-04  -2.761412e-03  0 
 2.437038e-04  -2.761420e-03  0 
VECTORS displacement_ITER17 FLOAT
 -2.407304e-04  -2.518738e-03  0 
 -2.414689e-04  -2.761423e-03  0 
 -1.439791e-04  -2.518716e-03  0 
 -4.724444e-05  -2.518690e-03  0 
 4.947909e-05  -2.518690e-03  0 
 1.462139e-04  -2.518717e-03  0 
 2.429650e-04  -2.518738e-03  0 
 -1.444232e-04  -2.761414e-03  0 
 -4.739449e-05  -2.761412e-03  0 
 4.962919e-05  -2.761412e-03  0 
 1.466579e-04  -2.761414e-03  0 
 2.437040e-04  -2.761423e-03  0 
VECTORS displacement_ITER18 FLOAT
 -2.407302e-04  -2.518738e-03  0 
 -2.414692e-04  -2.761422e-03  0 
 -1.439793e-04  -2.518716e-03  0 
 -4.724438e-05  -2.518690e-03  0 
 4.947917e-05  -2.518690e-03  0 
 1.462140e-04  -2.518716e-03  0 
 2.429650e-04  -2.518738e-03  0 
 -1.444231e-04  -2.761413e-03  0 
 -4.739465e-05  -2.761412e-03  0 
 4.962943e-05  -2.761412e-03  0 
 1.466579e-04  -2.761413e-03  0 
 2.437039e-04  -2.761422e-03  0 
VECTORS displacement_ITER19 FLOAT
 -2.407303e-04  -2.518738e-03  0 
 -2.414692e-04  -2.761422e-03  0 
 -1.439792e-04  -2.518716e-03  0 
 -4.724431e-05  -2.518690e-03  0 
 4.947906e-05  -2.518690e-03  0 
 1.462140e-04  -2.518716e-03  0 
 2.429651e-04  -2.518738e-03  0 
 -1.444231e-04  -2.761414e-03  0 
 -4.739468e-05  -2.761412e-03  0 
 4.962942e-05  -2.761412e-03  0 
 1.466578e-04  -2.761414e-03  0 
 2.437038e-04  -2.761422e-03  0 
VECTORS displacement_ITER20 FLOAT
 -2.407303e-04  -2.518738e-03  0 
 -2.414691e-04  -2.761422e-03  0 
 -1.439792e-04  -2.518716e-03  0 
 -4.724431e-05  -2.518690e-03  0 
 4.947901e-05  -2.518690e-03  0 
 1.462140e-04  -2.518716e-03  0 
 2.429650e-04  -2.518738e-03  0 
 -1.444231e-04  -2.761413e-03  0 
 -4.739469e-05  -2.761412e-03  0 
 4.962939e-05  -2.761412e-03  0 
 1.466578e-04  -2.761413e-03  0 
 2.437038e-04  -2.761422e-03  0 
VECTORS displacement_ITER21 FLOAT
 -2.407302e-04  -2.518738e-03  0 
 -2.414690e-04  -2.761422e-03  0 
 -1.439792e-04  -2.518716e-03  0 
 -4.724429e-05  -2.518690e-03  0 
 4.947902e-05  -2.518690e-03  0 
 1.462140e-04  -2.518716e-03  0 
 2.429650e-04  -2.518738e-03  0 
 -1.444231e-04  -2.761413e-03  0 
 -4.739465e-05  -2.761412e-03  0 
 4.962938e-05  -2.761412e-03  0 
 1.466578e-04  -2.761413e-03  0 
 2.437038e-04  -2.761422e-03  0 
VECTORS displacement_ITER22 FLOAT
 -2.407302e-04  -2.518738e-03  0 
 -2.414691e-04  -2.761422e-03  0 
 -1.439792e-04  -2.518716e-03  0 
 -4.724431e-05  -2.518690e-03  0 
 4.947902e-05  -2.518690e-03  0 
 1.462139e-04  -2.518716e-03  0 
 2.429650e-04  -2.518738e-03  0 
 -1.444231e-04  -2.761413e-03  0 
 -4.739463e-05  -2.761412e-03  0 
 4.962935e-05  -2.761412e-03  0 
 1.466578e-04  -2.761413e-03  0 
 2.437038e-04  -2.761422e-03  0 
VECTORS displacement_ITER23 FLOAT
 -2.407303e-04  -2.518738e-03  0 
 -2.414691e-04  -2.761422e-03  0 
 -1.439792e-04  -2.518716e-03  0 
 -4.724430e-05  -2.518690e-03  0 
 4.947902e-05  -2.518690e-03  0 
 1.462139e-04  -2.518716e-03  0 
 2.429650e-04  -2.518738e-03  0 
 -1.444231e-04  -2.761413e-03  0 
 -4.739464e-05  -2.761412e-03  0 
 4.962935e-05  -2.761412e-03  0 
 1.466578e-04  -2.761413e-03  0 
 2.437038e-04  -2.761422e-03  0 
VECTORS displacement_ITER24 FLOAT
 -2.407303e-04  -2.518738e-03  0 
 -2.414691e-04  -2.761422e-03  0 
 -1.439792e-04  -2.518716e-03  0 
 -4.724431e-05  -2.518690e-03  0 
 4.947903e-05  -2.518690e-03  0 
 1.462140e-04  -2.518716e-03  0 
 2.429650e-04  -2.518738e-03  0 
 -1.444231e-04  -2.761413e-03  0 
 -4.739465e-05  -2.761412e-03  0 
 4.962937e-05  -2.761412e-03  0 
 1.466578e-04  -2.761413e-03  0 
 2.437038e-04  -2.761422e-03  0 
VECTORS displacement_ITER25 FLOAT
 -2.407303e-04  -2.518738e-03  0 
 -2.414691e-04  -2.761422e-03  0 
 -1.439792e-04  -2.518716e-03  0 
 -4.724430e-05  -2.518690e-03  0 
 4.947902e-05  -2.518690e-03  0 
 1.462139e-04  -2.518716e-03  0 
 2.429650e-04  -2.518738e-03  0 
 -1.444231e-04  -2.761413e-03  0 
 -4.739464e-05  -2.761412e-03  0 
 4.962936e-05  -2.761412e-03  0 
 1.466578e-04  -2.761413e-03  0 
 2.437038e-04  -2.761422e-03  0 
CELL_DATA 5
TENSORS element_stresses FLOAT
 -1.274186e-04  -6.839539e-05  0 
 -6.839539e-05  -3.049601e-05  0 
 0  0  0 

 -6.305614e-05  -7.774520e-05  0 
 -7.774520e-05  -1.211304e-05  0 
 0  0  0 

 -8.303985e-11  -8.271834e-05  0 
 -8.271834e-05  8.331691e-11  0 
 0  0  0 

 6.305602e-05  -7.774561e-05  0 
 -7.774561e-05  1.211309e-05  0 
 0  0  0 

 1.274188e-04  -6.839546e-05  0 
 -6.839546e-05  3.049600e-05  0 
 0  0  0 

TENSORS element_stresses FLOAT
 -1.274186e-04  -6.839539e-05  0 
 -6.839539e-05  -3.049601e-05  0 
 0  0  0 

 -6.305614e-05  -7.774520e-05  0 
 -7.774520e-05  -1.211304e-05  0 
 0  0  0 

 -8.303985e-11  -8.271834e-05  0 
 -8.271834e-05  8.331691e-11  0 
 0  0  0 

 6.305602e-05  -7.774561e-05  0 
 -7.774561e-05  1.211309e-05  0 
 0  0  0 

 1.274188e-04  -6.839546e-05  0 
 -6.839546e-05  3.049600e-05  0 
 0  0  0 

