# vtk DataFile Version 3.1
this is an vtk file created by FEMAC
ASCII
DATASET UNSTRUCTURED_GRID
POINTS 12 FLOAT
3.500000 0.000000 0.000000
4.000000 0.000000 0.000000
3.500000 0.200000 0.000000
3.500000 0.400000 0.000000
3.500000 0.600000 0.000000
3.500000 0.800000 0.000000
3.500000 1.000000 0.000000
4.000000 0.200000 0.000000
4.000000 0.400000 0.000000
4.000000 0.600000 0.000000
4.000000 0.800000 0.000000
4.000000 1.000000 0.000000
CELLS 5 25 
4 0 1 7 2
4 2 7 8 3
4 3 8 9 4
4 4  9 10  5
4 5 10 11  6
CELL_TYPES 5
9 9 9 9 9 
POINT_DATA 12
VECTORS displacement_ITER1 FLOAT
 -2.115216e-04  -9.158858e-04  0 
 -2.139817e-04  -1.130323e-03  0 
 -1.263077e-04  -9.155538e-04  0 
 -4.115871e-05  -9.154316e-04  0 
 4.394092e-05  -9.154316e-04  0 
 1.290899e-04  -9.155538e-04  0 
 2.143038e-04  -9.158858e-04  0 
 -1.276305e-04  -1.129985e-03  0 
 -4.158926e-05  -1.129829e-03  0 
 4.437147e-05  -1.129829e-03  0 
 1.304127e-04  -1.129985e-03  0 
 2.167639e-04  -1.130323e-03  0 
VECTORS displacement_ITER2 FLOAT
 -2.084825e-04  -9.081391e-04  0 
 -2.109027e-04  -1.119307e-03  0 
 -1.245369e-04  -9.077554e-04  0 
 -4.071534e-05  -9.076364e-04  0 
 4.306971e-05  -9.076364e-04  0 
 1.268912e-04  -9.077554e-04  0 
 2.108368e-04  -9.081391e-04  0 
 -1.259398e-04  -1.118937e-03  0 
 -4.117715e-05  -1.118736e-03  0 
 4.353152e-05  -1.118736e-03  0 
 1.282942e-04  -1.118937e-03  0 
 2.132571e-04  -1.119307e-03  0 
VECTORS displacement_ITER3 FLOAT
 -2.072652e-04  -9.063709e-04  0 
 -2.096670e-04  -1.116322e-03  0 
 -1.237879e-04  -9.059631e-04  0 
 -4.045875e-05  -9.058418e-04  0 
 4.283915e-05  -9.058418e-04  0 
 1.261683e-04  -9.059631e-04  0 
 2.096456e-04  -9.063709e-04  0 
 -1.252272e-04  -1.115942e-03  0 
 -4.093401e-05  -1.115719e-03  0 
 4.331442e-05  -1.115719e-03  0 
 1.276076e-04  -1.115942e-03  0 
 2.120474e-04  -1.116322e-03  0 
VECTORS displacement_ITER4 FLOAT
 -2.069179e-04  -9.061275e-04  0 
 -2.093133e-04  -1.115692e-03  0 
 -1.235793e-04  -9.057026e-04  0 
 -4.040382e-05  -9.055693e-04  0 
 4.273905e-05  -9.055719e-04  0 
 1.259196e-04  -9.057093e-04  0 
 2.092650e-04  -9.061354e-04  0 
 -1.250368e-04  -1.115317e-03  0 
 -4.088278e-05  -1.115088e-03  0 
 4.322359e-05  -1.115088e-03  0 
 1.273776e-04  -1.115317e-03  0 
 2.116541e-04  -1.115692e-03  0 
VECTORS displacement_ITER5 FLOAT
 -2.067306e-04  -9.060672e-04  0 
 -2.091118e-04  -1.115391e-03  0 
 -1.234552e-04  -9.056250e-04  0 
 -4.035688e-05  -9.054699e-04  0 
 4.269655e-05  -9.054659e-04  0 
 1.257879e-04  -9.056144e-04  0 
 2.090527e-04  -9.060539e-04  0 
 -1.249274e-04  -1.115025e-03  0 
 -4.084678e-05  -1.114794e-03  0 
 4.318070e-05  -1.114796e-03  0 
 1.272594e-04  -1.115028e-03  0 
 2.114401e-04  -1.115395e-03  0 
VECTORS displacement_ITER6 FLOAT
 -2.067357e-04  -9.060498e-04  0 
 -2.091145e-04  -1.115335e-03  0 
 -1.234811e-04  -9.056044e-04  0 
 -4.040093e-05  -9.054456e-04  0 
 4.263423e-05  -9.054454e-04  0 
 1.257136e-04  -9.056042e-04  0 
 2.089689e-04  -9.060500e-04  0 
 -1.249576e-04  -1.114972e-03  0 
 -4.089229e-05  -1.114738e-03  0 
 4.312141e-05  -1.114736e-03  0 
 1.271898e-04  -1.114967e-03  0 
 2.113521e-04  -1.115328e-03  0 
VECTORS displacement_ITER7 FLOAT
 -2.067162e-04  -9.060370e-04  0 
 -2.090969e-04  -1.115296e-03  0 
 -1.234720e-04  -9.055891e-04  0 
 -4.039585e-05  -9.054246e-04  0 
 4.263322e-05  -9.054263e-04  0 
 1.257127e-04  -9.055941e-04  0 
 2.089629e-04  -9.060439e-04  0 
 -1.249511e-04  -1.114941e-03  0 
 -4.088488e-05  -1.114708e-03  0 
 4.312818e-05  -1.114708e-03  0 
 1.271928e-04  -1.114943e-03  0 
 2.113368e-04  -1.115298e-03  0 
VECTORS displacement_ITER8 FLOAT
 -2.067049e-04  -9.060240e-04  0 
 -2.090821e-04  -1.115271e-03  0 
 -1.234616e-04  -9.055736e-04  0 
 -4.038206e-05  -9.054029e-04  0 
 4.264634e-05  -9.054033e-04  0 
 1.257275e-04  -9.055750e-04  0 
 2.089728e-04  -9.060258e-04  0 
 -1.249422e-04  -1.114920e-03  0 
 -4.087439e-05  -1.114688e-03  0 
 4.314206e-05  -1.114689e-03  0 
 1.272086e-04  -1.114923e-03  0 
 2.113458e-04  -1.115274e-03  0 
VECTORS displacement_ITER9 FLOAT
 -2.067119e-04  -9.060030e-04  0 
 -2.090856e-04  -1.115248e-03  0 
 -1.234678e-04  -9.055511e-04  0 
 -4.038410e-05  -9.053761e-04  0 
 4.264532e-05  -9.053755e-04  0 
 1.257290e-04  -9.055496e-04  0 
 2.089722e-04  -9.060008e-04  0 
 -1.249487e-04  -1.114899e-03  0 
 -4.088004e-05  -1.114668e-03  0 
 4.314019e-05  -1.114668e-03  0 
 1.272095e-04  -1.114899e-03  0 
 2.113467e-04  -1.115247e-03  0 
VECTORS displacement_ITER10 FLOAT
 -2.067263e-04  -9.059660e-04  0 
 -2.090990e-04  -1.115210e-03  0 
 -1.234826e-04  -9.055130e-04  0 
 -4.039405e-05  -9.053338e-04  0 
 4.263776e-05  -9.053331e-04  0 
 1.257261e-04  -9.055110e-04  0 
 2.089690e-04  -9.059632e-04  0 
 -1.249629e-04  -1.114865e-03  0 
 -4.089204e-05  -1.114636e-03  0 
 4.313382e-05  -1.114636e-03  0 
 1.272058e-04  -1.114863e-03  0 
 2.113434e-04  -1.115208e-03  0 
VECTORS displacement_ITER11 FLOAT
 -2.067342e-04  -9.059347e-04  0 
 -2.091082e-04  -1.115179e-03  0 
 -1.234916e-04  -9.054811e-04  0 
 -4.039958e-05  -9.052994e-04  0 
 4.263544e-05  -9.052992e-04  0 
 1.257280e-04  -9.054801e-04  0 
 2.089715e-04  -9.059334e-04  0 
 -1.249709e-04  -1.114836e-03  0 
 -4.089745e-05  -1.114611e-03  0 
 4.313367e-05  -1.114611e-03  0 
 1.272071e-04  -1.114836e-03  0 
 2.113445e-04  -1.115180e-03  0 
VECTORS displacement_ITER12 FLOAT
 -2.067357e-04  -9.059162e-04  0 
 -2.091105e-04  -1.115162e-03  0 
 -1.234939e-04  -9.054620e-04  0 
 -4.039962e-05  -9.052787e-04  0 
 4.263930e-05  -9.052785e-04  0 
 1.257342e-04  -9.054610e-04  0 
 2.089774e-04  -9.059153e-04  0 
 -1.249724e-04  -1.114819e-03  0 
 -4.089753e-05  -1.114597e-03  0 
 4.313788e-05  -1.114597e-03  0 
 1.272127e-04  -1.114820e-03  0 
 2.113508e-04  -1.115163e-03  0 
VECTORS displacement_ITER13 FLOAT
 -2.067368e-04  -9.059140e-04  0 
 -2.091118e-04  -1.115160e-03  0 
 -1.234955e-04  -9.054591e-04  0 
 -4.040145e-05  -9.052754e-04  0 
 4.263971e-05  -9.052750e-04  0 
 1.257342e-04  -9.054580e-04  0 
 2.089764e-04  -9.059128e-04  0 
 -1.249738e-04  -1.114816e-03  0 
 -4.089909e-05  -1.114595e-03  0 
 4.313714e-05  -1.114595e-03  0 
 1.272123e-04  -1.114817e-03  0 
 2.113510e-04  -1.115160e-03  0 
VECTORS displacement_ITER14 FLOAT
 -2.067380e-04  -9.059141e-04  0 
 -2.091138e-04  -1.115159e-03  0 
 -1.234973e-04  -9.054589e-04  0 
 -4.040403e-05  -9.052754e-04  0 
 4.263871e-05  -9.052750e-04  0 
 1.257325e-04  -9.054580e-04  0 
 2.089741e-04  -9.059131e-04  0 
 -1.249753e-04  -1.114816e-03  0 
 -4.090057e-05  -1.114595e-03  0 
 4.313542e-05  -1.114595e-03  0 
 1.272105e-04  -1.114816e-03  0 
 2.113492e-04  -1.115160e-03  0 
VECTORS displacement_ITER15 FLOAT
 -2.067382e-04  -9.059155e-04  0 
 -2.091139e-04  -1.115161e-03  0 
 -1.234975e-04  -9.054604e-04  0 
 -4.040445e-05  -9.052774e-04  0 
 4.263870e-05  -9.052771e-04  0 
 1.257321e-04  -9.054597e-04  0 
 2.089736e-04  -9.059146e-04  0 
 -1.249755e-04  -1.114817e-03  0 
 -4.090057e-05  -1.114596e-03  0 
 4.313478e-05  -1.114597e-03  0 
 1.272101e-04  -1.114818e-03  0 
 2.113489e-04  -1.115161e-03  0 
VECTORS displacement_ITER16 FLOAT
 -2.067375e-04  -9.059164e-04  0 
 -2.091131e-04  -1.115162e-03  0 
 -1.234966e-04  -9.054614e-04  0 
 -4.040379e-05  -9.052784e-04  0 
 4.263857e-05  -9.052782e-04  0 
 1.257316e-04  -9.054608e-04  0 
 2.089732e-04  -9.059157e-04  0 
 -1.249747e-04  -1.114818e-03  0 
 -4.089994e-05  -1.114597e-03  0 
 4.313470e-05  -1.114597e-03  0 
 1.272098e-04  -1.114818e-03  0 
 2.113486e-04  -1.115162e-03  0 
VECTORS displacement_ITER17 FLOAT
 -2.067380e-04  -9.059151e-04  0 
 -2.091135e-04  -1.115161e-03  0 
 -1.234968e-04  -9.054602e-04  0 
 -4.040381e-05  -9.052774e-04  0 
 4.263840e-05  -9.052772e-04  0 
 1.257316e-04  -9.054597e-04  0 
 2.089734e-04  -9.059145e-04  0 
 -1.249750e-04  -1.114817e-03  0 
 -4.090011e-05  -1.114596e-03  0 
 4.313468e-05  -1.114596e-03  0 
 1.272098e-04  -1.114818e-03  0 
 2.113487e-04  -1.115161e-03  0 
VECTORS displacement_ITER18 FLOAT
 -2.067382e-04  -9.059160e-04  0 
 -2.091136e-04  -1.115162e-03  0 
 -1.234968e-04  -9.054612e-04  0 
 -4.040383e-05  -9.052784e-04  0 
 4.263836e-05  -9.052783e-04  0 
 1.257316e-04  -9.054607e-04  0 
 2.089734e-04  -9.059155e-04  0 
 -1.249750e-04  -1.114818e-03  0 
 -4.090016e-05  -1.114597e-03  0 
 4.313470e-05  -1.114597e-03  0 
 1.272098e-04  -1.114819e-03  0 
 2.113486e-04  -1.115162e-03  0 
VECTORS displacement_ITER19 FLOAT
 -2.067383e-04  -9.059155e-04  0 
 -2.091137e-04  -1.115162e-03  0 
 -1.234969e-04  -9.054607e-04  0 
 -4.040384e-05  -9.052780e-04  0 
 4.263835e-05  -9.052778e-04  0 
 1.257316e-04  -9.054603e-04  0 
 2.089734e-04  -9.059150e-04  0 
 -1.249751e-04  -1.114818e-03  0 
 -4.090019e-05  -1.114596e-03  0 
 4.313470e-05  -1.114597e-03  0 
 1.272098e-04  -1.114818e-03  0 
 2.113487e-04  -1.115162e-03  0 
VECTORS displacement_ITER20 FLOAT
 -2.067383e-04  -9.059157e-04  0 
 -2.091138e-04  -1.115162e-03  0 
 -1.234969e-04  -9.054609e-04  0 
 -4.040384e-05  -9.052782e-04  0 
 4.263835e-05  -9.052781e-04  0 
 1.257316e-04  -9.054605e-04  0 
 2.089734e-04  -9.059153e-04  0 
 -1.249751e-04  -1.114818e-03  0 
 -4.090017e-05  -1.114597e-03  0 
 4.313470e-05  -1.114597e-03  0 
 1.272098e-04  -1.114818e-03  0 
 2.113487e-04  -1.115162e-03  0 
VECTORS displacement_ITER21 FLOAT
 -2.067383e-04  -9.059156e-04  0 
 -2.091138e-04  -1.115162e-03  0 
 -1.234969e-04  -9.054608e-04  0 
 -4.040383e-05  -9.052781e-04  0 
 4.263835e-05  -9.052780e-04  0 
 1.257316e-04  -9.054604e-04  0 
 2.089734e-04  -9.059152e-04  0 
 -1.249751e-04  -1.114818e-03  0 
 -4.090016e-05  -1.114597e-03  0 
 4.313470e-05  -1.114597e-03  0 
 1.272098e-04  -1.114818e-03  0 
 2.113487e-04  -1.115162e-03  0 
VECTORS displacement_ITER22 FLOAT
 -2.067383e-04  -9.059156e-04  0 
 -2.091138e-04  -1.115162e-03  0 
 -1.234969e-04  -9.054608e-04  0 
 -4.040383e-05  -9.052781e-04  0 
 4.263835e-05  -9.052780e-04  0 
 1.257316e-04  -9.054604e-04  0 
 2.089734e-04  -9.059152e-04  0 
 -1.249751e-04  -1.114818e-03  0 
 -4.090016e-05  -1.114597e-03  0 
 4.313470e-05  -1.114597e-03  0 
 1.272098e-04  -1.114818e-03  0 
 2.113487e-04  -1.115162e-03  0 
VECTORS displacement_ITER23 FLOAT
 -2.067383e-04  -9.059156e-04  0 
 -2.091138e-04  -1.115162e-03  0 
 -1.234969e-04  -9.054608e-04  0 
 -4.040383e-05  -9.052781e-04  0 
 4.263835e-05  -9.052779e-04  0 
 1.257316e-04  -9.054604e-04  0 
 2.089734e-04  -9.059151e-04  0 
 -1.249751e-04  -1.114818e-03  0 
 -4.090016e-05  -1.114597e-03  0 
 4.313470e-05  -1.114597e-03  0 
 1.272098e-04  -1.114818e-03  0 
 2.113487e-04  -1.115162e-03  0 
VECTORS displacement_ITER24 FLOAT
 -2.067383e-04  -9.059156e-04  0 
 -2.091138e-04  -1.115162e-03  0 
 -1.234969e-04  -9.054608e-04  0 
 -4.040383e-05  -9.052781e-04  0 
 4.263835e-05  -9.052780e-04  0 
 1.257316e-04  -9.054604e-04  0 
 2.089734e-04  -9.059151e-04  0 
 -1.249751e-04  -1.114818e-03  0 
 -4.090016e-05  -1.114597e-03  0 
 4.313470e-05  -1.114597e-03  0 
 1.272098e-04  -1.114818e-03  0 
 2.113487e-04  -1.115162e-03  0 
VECTORS displacement_ITER25 FLOAT
 -2.067383e-04  -9.059156e-04  0 
 -2.091138e-04  -1.115162e-03  0 
 -1.234969e-04  -9.054608e-04  0 
 -4.040383e-05  -9.052781e-04  0 
 4.263835e-05  -9.052780e-04  0 
 1.257316e-04  -9.054604e-04  0 
 2.089734e-04  -9.059151e-04  0 
 -1.249751e-04  -1.114818e-03  0 
 -4.090016e-05  -1.114597e-03  0 
 4.313470e-05  -1.114597e-03  0 
 1.272098e-04  -1.114818e-03  0 
 2.113487e-04  -1.115162e-03  0 
CELL_DATA 5
TENSORS element_stresses FLOAT
 -3.576608e-03  -1.178393e-04  0 
 -1.178393e-04  9.234296e-04  0 
 0  0  0 

 -1.836685e-03  -5.814562e-04  0 
 -5.814562e-04  4.594743e-04  0 
 0  0  0 

 8.573093e-08  -7.266158e-04  0 
 -7.266158e-04  2.136895e-07  0 
 0  0  0 

 1.836789e-03  -5.813934e-04  0 
 -5.813934e-04  -4.591603e-04  0 
 0  0  0 

 3.576418e-03  -1.176953e-04  0 
 -1.176953e-04  -9.233474e-04  0 
 0  0  0 

TENSORS element_stresses FLOAT
 -3.576608e-03  -1.178393e-04  0 
 -1.178393e-04  9.234296e-04  0 
 0  0  0 

 -1.836685e-03  -5.814562e-04  0 
 -5.814562e-04  4.594743e-04  0 
 0  0  0 

 8.573093e-08  -7.266158e-04  0 
 -7.266158e-04  2.136895e-07  0 
 0  0  0 

 1.836789e-03  -5.813934e-04  0 
 -5.813934e-04  -4.591603e-04  0 
 0  0  0 

 3.576418e-03  -1.176953e-04  0 
 -1.176953e-04  -9.233474e-04  0 
 0  0  0 

