# vtk DataFile Version 3.1
this is an vtk file created by FEMAC
ASCII
DATASET UNSTRUCTURED_GRID
POINTS 12 FLOAT
6.500000 0.000000 0.000000
7.000000 0.000000 0.000000
6.500000 0.200000 0.000000
6.500000 0.400000 0.000000
6.500000 0.600000 0.000000
6.500000 0.800000 0.000000
6.500000 1.000000 0.000000
7.000000 0.200000 0.000000
7.000000 0.400000 0.000000
7.000000 0.600000 0.000000
7.000000 0.800000 0.000000
7.000000 1.000000 0.000000
CELLS 5 25 
4 0 1 7 2
4 2 7 8 3
4 3 8 9 4
4 4  9 10  5
4 5 10 11  6
CELL_TYPES 5
9 9 9 9 9 
POINT_DATA 12
VECTORS displacement_ITER1 FLOAT
 -2.466767e-04  -2.320310e-03  0 
 -2.468935e-04  -2.568573e-03  0 
 -1.474144e-04  -2.320277e-03  0 
 -4.820399e-05  -2.320266e-03  0 
 5.098620e-05  -2.320266e-03  0 
 1.501966e-04  -2.320277e-03  0 
 2.494589e-04  -2.320310e-03  0 
 -1.475410e-04  -2.568538e-03  0 
 -4.824693e-05  -2.568517e-03  0 
 5.102915e-05  -2.568517e-03  0 
 1.503232e-04  -2.568538e-03  0 
 2.496757e-04  -2.568573e-03  0 
VECTORS displacement_ITER2 FLOAT
 -2.428596e-04  -2.291781e-03  0 
 -2.430696e-04  -2.536011e-03  0 
 -1.452093e-04  -2.291742e-03  0 
 -4.761390e-05  -2.291740e-03  0 
 4.996826e-05  -2.291740e-03  0 
 1.475637e-04  -2.291742e-03  0 
 2.452140e-04  -2.291781e-03  0 
 -1.453439e-04  -2.535976e-03  0 
 -4.765880e-05  -2.535949e-03  0 
 5.001316e-05  -2.535949e-03  0 
 1.476983e-04  -2.535976e-03  0 
 2.454240e-04  -2.536011e-03  0 
VECTORS displacement_ITER3 FLOAT
 -2.413004e-04  -2.282227e-03  0 
 -2.415074e-04  -2.524908e-03  0 
 -1.442689e-04  -2.282185e-03  0 
 -4.729276e-05  -2.282186e-03  0 
 4.967316e-05  -2.282186e-03  0 
 1.466493e-04  -2.282185e-03  0 
 2.436808e-04  -2.282227e-03  0 
 -1.444071e-04  -2.524874e-03  0 
 -4.733832e-05  -2.524845e-03  0 
 4.971872e-05  -2.524845e-03  0 
 1.467875e-04  -2.524874e-03  0 
 2.438878e-04  -2.524908e-03  0 
VECTORS displacement_ITER4 FLOAT
 -2.408109e-04  -2.279200e-03  0 
 -2.410170e-04  -2.521376e-03  0 
 -1.439777e-04  -2.279154e-03  0 
 -4.720146e-05  -2.279152e-03  0 
 4.956417e-05  -2.279152e-03  0 
 1.463405e-04  -2.279154e-03  0 
 2.431737e-04  -2.279200e-03  0 
 -1.441185e-04  -2.521344e-03  0 
 -4.724751e-05  -2.521314e-03  0 
 4.961023e-05  -2.521314e-03  0 
 1.464812e-04  -2.521344e-03  0 
 2.433798e-04  -2.521376e-03  0 
VECTORS displacement_ITER5 FLOAT
 -2.405629e-04  -2.277377e-03  0 
 -2.407683e-04  -2.519257e-03  0 
 -1.438444e-04  -2.277327e-03  0 
 -4.718366e-05  -2.277321e-03  0 
 4.946501e-05  -2.277321e-03  0 
 1.461257e-04  -2.277327e-03  0 
 2.428442e-04  -2.277377e-03  0 
 -1.439871e-04  -2.519228e-03  0 
 -4.723023e-05  -2.519198e-03  0 
 4.951159e-05  -2.519198e-03  0 
 1.462684e-04  -2.519228e-03  0 
 2.430497e-04  -2.519257e-03  0 
VECTORS displacement_ITER6 FLOAT
 -2.405115e-04  -2.277002e-03  0 
 -2.407166e-04  -2.518813e-03  0 
 -1.438195e-04  -2.276950e-03  0 
 -4.718435e-05  -2.276943e-03  0 
 4.943791e-05  -2.276943e-03  0 
 1.460730e-04  -2.276950e-03  0 
 2.427650e-04  -2.277002e-03  0 
 -1.439627e-04  -2.518786e-03  0 
 -4.723121e-05  -2.518756e-03  0 
 4.948476e-05  -2.518756e-03  0 
 1.462163e-04  -2.518786e-03  0 
 2.429702e-04  -2.518813e-03  0 
VECTORS displacement_ITER7 FLOAT
 -2.404788e-04  -2.276894e-03  0 
 -2.406835e-04  -2.518671e-03  0 
 -1.438005e-04  -2.276842e-03  0 
 -4.717637e-05  -2.276832e-03  0 
 4.943356e-05  -2.276832e-03  0 
 1.460575e-04  -2.276842e-03  0 
 2.427355e-04  -2.276894e-03  0 
 -1.439439e-04  -2.518646e-03  0 
 -4.722380e-05  -2.518617e-03  0 
 4.948073e-05  -2.518617e-03  0 
 1.462008e-04  -2.518646e-03  0 
 2.429404e-04  -2.518671e-03  0 
VECTORS displacement_ITER8 FLOAT
 -2.404714e-04  -2.276882e-03  0 
 -2.406764e-04  -2.518651e-03  0 
 -1.437974e-04  -2.276829e-03  0 
 -4.717509e-05  -2.276818e-03  0 
 4.943247e-05  -2.276819e-03  0 
 1.460556e-04  -2.276830e-03  0 
 2.427307e-04  -2.276883e-03  0 
 -1.439406e-04  -2.518627e-03  0 
 -4.722244e-05  -2.518598e-03  0 
 4.948062e-05  -2.518598e-03  0 
 1.461988e-04  -2.518627e-03  0 
 2.429349e-04  -2.518651e-03  0 
VECTORS displacement_ITER9 FLOAT
 -2.404760e-04  -2.276882e-03  0 
 -2.406802e-04  -2.518654e-03  0 
 -1.437986e-04  -2.276828e-03  0 
 -4.717186e-05  -2.276816e-03  0 
 4.943843e-05  -2.276815e-03  0 
 1.460641e-04  -2.276826e-03  0 
 2.427398e-04  -2.276880e-03  0 
 -1.439417e-04  -2.518631e-03  0 
 -4.722042e-05  -2.518603e-03  0 
 4.948621e-05  -2.518603e-03  0 
 1.462071e-04  -2.518632e-03  0 
 2.429449e-04  -2.518655e-03  0 
VECTORS displacement_ITER10 FLOAT
 -2.405045e-04  -2.276883e-03  0 
 -2.407088e-04  -2.518671e-03  0 
 -1.438235e-04  -2.276829e-03  0 
 -4.719076e-05  -2.276816e-03  0 
 4.942534e-05  -2.276816e-03  0 
 1.460584e-04  -2.276830e-03  0 
 2.427401e-04  -2.276884e-03  0 
 -1.439662e-04  -2.518648e-03  0 
 -4.723976e-05  -2.518620e-03  0 
 4.947378e-05  -2.518619e-03  0 
 1.462011e-04  -2.518647e-03  0 
 2.429451e-04  -2.518669e-03  0 
VECTORS displacement_ITER11 FLOAT
 -2.405157e-04  -2.276905e-03  0 
 -2.407213e-04  -2.518702e-03  0 
 -1.438305e-04  -2.276850e-03  0 
 -4.719215e-05  -2.276837e-03  0 
 4.942932e-05  -2.276837e-03  0 
 1.460682e-04  -2.276851e-03  0 
 2.427540e-04  -2.276905e-03  0 
 -1.439728e-04  -2.518680e-03  0 
 -4.724056e-05  -2.518654e-03  0 
 4.947908e-05  -2.518654e-03  0 
 1.462106e-04  -2.518681e-03  0 
 2.429580e-04  -2.518704e-03  0 
VECTORS displacement_ITER12 FLOAT
 -2.405223e-04  -2.276940e-03  0 
 -2.407268e-04  -2.518745e-03  0 
 -1.438338e-04  -2.276886e-03  0 
 -4.719147e-05  -2.276871e-03  0 
 4.943393e-05  -2.276871e-03  0 
 1.460759e-04  -2.276885e-03  0 
 2.427636e-04  -2.276939e-03  0 
 -1.439760e-04  -2.518724e-03  0 
 -4.724111e-05  -2.518697e-03  0 
 4.948263e-05  -2.518697e-03  0 
 1.462178e-04  -2.518723e-03  0 
 2.429691e-04  -2.518745e-03  0 
VECTORS displacement_ITER13 FLOAT
 -2.405240e-04  -2.276939e-03  0 
 -2.407295e-04  -2.518745e-03  0 
 -1.438360e-04  -2.276885e-03  0 
 -4.719380e-05  -2.276870e-03  0 
 4.943248e-05  -2.276870e-03  0 
 1.460750e-04  -2.276885e-03  0 
 2.427634e-04  -2.276940e-03  0 
 -1.439780e-04  -2.518723e-03  0 
 -4.724254e-05  -2.518698e-03  0 
 4.948173e-05  -2.518698e-03  0 
 1.462170e-04  -2.518724e-03  0 
 2.429683e-04  -2.518745e-03  0 
VECTORS displacement_ITER14 FLOAT
 -2.405256e-04  -2.276931e-03  0 
 -2.407309e-04  -2.518736e-03  0 
 -1.438377e-04  -2.276876e-03  0 
 -4.719588e-05  -2.276862e-03  0 
 4.943054e-05  -2.276862e-03  0 
 1.460723e-04  -2.276876e-03  0 
 2.427602e-04  -2.276931e-03  0 
 -1.439797e-04  -2.518714e-03  0 
 -4.724466e-05  -2.518688e-03  0 
 4.947926e-05  -2.518688e-03  0 
 1.462143e-04  -2.518714e-03  0 
 2.429655e-04  -2.518736e-03  0 
VECTORS displacement_ITER15 FLOAT
 -2.405249e-04  -2.276934e-03  0 
 -2.407303e-04  -2.518739e-03  0 
 -1.438373e-04  -2.276879e-03  0 
 -4.719583e-05  -2.276865e-03  0 
 4.943061e-05  -2.276865e-03  0 
 1.460721e-04  -2.276879e-03  0 
 2.427597e-04  -2.276934e-03  0 
 -1.439793e-04  -2.518717e-03  0 
 -4.724437e-05  -2.518691e-03  0 
 4.947917e-05  -2.518691e-03  0 
 1.462141e-04  -2.518717e-03  0 
 2.429651e-04  -2.518739e-03  0 
VECTORS displacement_ITER16 FLOAT
 -2.405246e-04  -2.276932e-03  0 
 -2.407299e-04  -2.518737e-03  0 
 -1.438369e-04  -2.276877e-03  0 
 -4.719554e-05  -2.276863e-03  0 
 4.943085e-05  -2.276863e-03  0 
 1.460722e-04  -2.276877e-03  0 
 2.427599e-04  -2.276932e-03  0 
 -1.439789e-04  -2.518715e-03  0 
 -4.724402e-05  -2.518689e-03  0 
 4.947932e-05  -2.518689e-03  0 
 1.462142e-04  -2.518715e-03  0 
 2.429652e-04  -2.518737e-03  0 
VECTORS displacement_ITER17 FLOAT
 -2.405250e-04  -2.276934e-03  0 
 -2.407303e-04  -2.518738e-03  0 
 -1.438372e-04  -2.276879e-03  0 
 -4.719582e-05  -2.276865e-03  0 
 4.943052e-05  -2.276865e-03  0 
 1.460719e-04  -2.276879e-03  0 
 2.427597e-04  -2.276934e-03  0 
 -1.439793e-04  -2.518716e-03  0 
 -4.724431e-05  -2.518690e-03  0 
 4.947901e-05  -2.518690e-03  0 
 1.462140e-04  -2.518716e-03  0 
 2.429650e-04  -2.518738e-03  0 
VECTORS displacement_ITER18 FLOAT
 -2.405250e-04  -2.276933e-03  0 
 -2.407303e-04  -2.518738e-03  0 
 -1.438372e-04  -2.276878e-03  0 
 -4.719575e-05  -2.276864e-03  0 
 4.943053e-05  -2.276864e-03  0 
 1.460720e-04  -2.276878e-03  0 
 2.427597e-04  -2.276933e-03  0 
 -1.439792e-04  -2.518716e-03  0 
 -4.724428e-05  -2.518690e-03  0 
 4.947906e-05  -2.518690e-03  0 
 1.462140e-04  -2.518716e-03  0 
 2.429651e-04  -2.518738e-03  0 
VECTORS displacement_ITER19 FLOAT
 -2.405250e-04  -2.276933e-03  0 
 -2.407303e-04  -2.518738e-03  0 
 -1.438372e-04  -2.276879e-03  0 
 -4.719575e-05  -2.276864e-03  0 
 4.943050e-05  -2.276864e-03  0 
 1.460719e-04  -2.276879e-03  0 
 2.427597e-04  -2.276933e-03  0 
 -1.439792e-04  -2.518716e-03  0 
 -4.724429e-05  -2.518690e-03  0 
 4.947905e-05  -2.518690e-03  0 
 1.462140e-04  -2.518716e-03  0 
 2.429650e-04  -2.518738e-03  0 
VECTORS displacement_ITER20 FLOAT
 -2.405250e-04  -2.276933e-03  0 
 -2.407303e-04  -2.518738e-03  0 
 -1.438372e-04  -2.276879e-03  0 
 -4.719576e-05  -2.276864e-03  0 
 4.943046e-05  -2.276864e-03  0 
 1.460719e-04  -2.276879e-03  0 
 2.427597e-04  -2.276933e-03  0 
 -1.439792e-04  -2.518716e-03  0 
 -4.724431e-05  -2.518690e-03  0 
 4.947902e-05  -2.518690e-03  0 
 1.462139e-04  -2.518716e-03  0 
 2.429650e-04  -2.518738e-03  0 
VECTORS displacement_ITER21 FLOAT
 -2.405249e-04  -2.276933e-03  0 
 -2.407302e-04  -2.518738e-03  0 
 -1.438372e-04  -2.276879e-03  0 
 -4.719574e-05  -2.276864e-03  0 
 4.943047e-05  -2.276864e-03  0 
 1.460719e-04  -2.276879e-03  0 
 2.427597e-04  -2.276933e-03  0 
 -1.439792e-04  -2.518716e-03  0 
 -4.724430e-05  -2.518690e-03  0 
 4.947903e-05  -2.518690e-03  0 
 1.462139e-04  -2.518716e-03  0 
 2.429650e-04  -2.518738e-03  0 
VECTORS displacement_ITER22 FLOAT
 -2.405249e-04  -2.276933e-03  0 
 -2.407302e-04  -2.518738e-03  0 
 -1.438372e-04  -2.276879e-03  0 
 -4.719575e-05  -2.276864e-03  0 
 4.943047e-05  -2.276864e-03  0 
 1.460719e-04  -2.276879e-03  0 
 2.427597e-04  -2.276933e-03  0 
 -1.439792e-04  -2.518716e-03  0 
 -4.724430e-05  -2.518690e-03  0 
 4.947902e-05  -2.518690e-03  0 
 1.462139e-04  -2.518716e-03  0 
 2.429650e-04  -2.518738e-03  0 
VECTORS displacement_ITER23 FLOAT
 -2.405250e-04  -2.276933e-03  0 
 -2.407303e-04  -2.518738e-03  0 
 -1.438372e-04  -2.276879e-03  0 
 -4.719576e-05  -2.276864e-03  0 
 4.943047e-05  -2.276864e-03  0 
 1.460719e-04  -2.276879e-03  0 
 2.427597e-04  -2.276933e-03  0 
 -1.439792e-04  -2.518716e-03  0 
 -4.724431e-05  -2.518690e-03  0 
 4.947902e-05  -2.518690e-03  0 
 1.462139e-04  -2.518716e-03  0 
 2.429650e-04  -2.518738e-03  0 
VECTORS displacement_ITER24 FLOAT
 -2.405250e-04  -2.276933e-03  0 
 -2.407303e-04  -2.518738e-03  0 
 -1.438372e-04  -2.276879e-03  0 
 -4.719575e-05  -2.276864e-03  0 
 4.943047e-05  -2.276864e-03  0 
 1.460719e-04  -2.276879e-03  0 
 2.427597e-04  -2.276933e-03  0 
 -1.439792e-04  -2.518716e-03  0 
 -4.724431e-05  -2.518690e-03  0 
 4.947903e-05  -2.518690e-03  0 
 1.462140e-04  -2.518716e-03  0 
 2.429650e-04  -2.518738e-03  0 
VECTORS displacement_ITER25 FLOAT
 -2.405250e-04  -2.276933e-03  0 
 -2.407303e-04  -2.518738e-03  0 
 -1.438372e-04  -2.276879e-03  0 
 -4.719575e-05  -2.276864e-03  0 
 4.943047e-05  -2.276864e-03  0 
 1.460719e-04  -2.276879e-03  0 
 2.427597e-04  -2.276933e-03  0 
 -1.439792e-04  -2.518716e-03  0 
 -4.724431e-05  -2.518690e-03  0 
 4.947903e-05  -2.518690e-03  0 
 1.462140e-04  -2.518716e-03  0 
 2.429650e-04  -2.518738e-03  0 
CELL_DATA 5
TENSORS element_stresses FLOAT
 -3.185841e-04  -3.464257e-05  0 
 -3.464257e-05  9.592461e-05  0 
 0  0  0 

 -1.763550e-04  -1.710332e-04  0 
 -1.710332e-04  4.754046e-05  0 
 0  0  0 

 -1.923603e-10  -2.136486e-04  0 
 -2.136486e-04  -1.115996e-10  0 
 0  0  0 

 1.763547e-04  -1.710330e-04  0 
 -1.710330e-04  -4.754092e-05  0 
 0  0  0 

 3.185845e-04  -3.464264e-05  0 
 -3.464264e-05  -9.592452e-05  0 
 0  0  0 

TENSORS element_stresses FLOAT
 -3.185841e-04  -3.464257e-05  0 
 -3.464257e-05  9.592461e-05  0 
 0  0  0 

 -1.763550e-04  -1.710332e-04  0 
 -1.710332e-04  4.754046e-05  0 
 0  0  0 

 -1.923603e-10  -2.136486e-04  0 
 -2.136486e-04  -1.115996e-10  0 
 0  0  0 

 1.763547e-04  -1.710330e-04  0 
 -1.710330e-04  -4.754092e-05  0 
 0  0  0 

 3.185845e-04  -3.464264e-05  0 
 -3.464264e-05  -9.592452e-05  0 
 0  0  0 

