# vtk DataFile Version 3.1
this is an vtk file created by FEMAC
ASCII
DATASET UNSTRUCTURED_GRID
POINTS 12 FLOAT
2.500000 0.000000 0.000000
3.000000 0.000000 0.000000
2.500000 0.200000 0.000000
2.500000 0.400000 0.000000
2.500000 0.600000 0.000000
2.500000 0.800000 0.000000
2.500000 1.000000 0.000000
3.000000 0.200000 0.000000
3.000000 0.400000 0.000000
3.000000 0.600000 0.000000
3.000000 0.800000 0.000000
3.000000 1.000000 0.000000
CELLS 5 25 
4 0 1 7 2
4 2 7 8 3
4 3 8 9 4
4 4  9 10  5
4 5 10 11  6
CELL_TYPES 5
9 9 9 9 9 
POINT_DATA 12
VECTORS displacement_ITER1 FLOAT
 -1.800224e-04  -5.312913e-04  0 
 -1.837742e-04  -7.149451e-04  0 
 -1.074219e-04  -5.307868e-04  0 
 -3.486153e-05  -5.305976e-04  0 
 3.764374e-05  -5.305976e-04  0 
 1.102041e-04  -5.307868e-04  0 
 1.828046e-04  -5.312913e-04  0 
 -1.094333e-04  -7.144322e-04  0 
 -3.551524e-05  -7.142020e-04  0 
 3.829746e-05  -7.142020e-04  0 
 1.122155e-04  -7.144322e-04  0 
 1.865564e-04  -7.149451e-04  0 
VECTORS displacement_ITER2 FLOAT
 -1.776372e-04  -5.283419e-04  0 
 -1.813301e-04  -7.093712e-04  0 
 -1.060213e-04  -5.277608e-04  0 
 -3.454162e-05  -5.275676e-04  0 
 3.689598e-05  -5.275676e-04  0 
 1.083757e-04  -5.277608e-04  0 
 1.799916e-04  -5.283419e-04  0 
 -1.081546e-04  -7.088069e-04  0 
 -3.524352e-05  -7.085121e-04  0 
 3.759789e-05  -7.085121e-04  0 
 1.105090e-04  -7.088069e-04  0 
 1.836845e-04  -7.093712e-04  0 
VECTORS displacement_ITER3 FLOAT
 -1.766861e-04  -5.282442e-04  0 
 -1.803430e-04  -7.083277e-04  0 
 -1.054049e-04  -5.276266e-04  0 
 -3.430219e-05  -5.274212e-04  0 
 3.675711e-05  -5.274141e-04  0 
 1.078458e-04  -5.276087e-04  0 
 1.791086e-04  -5.282234e-04  0 
 -1.075938e-04  -7.077463e-04  0 
 -3.503239e-05  -7.074204e-04  0 
 3.747210e-05  -7.074205e-04  0 
 1.100335e-04  -7.077463e-04  0 
 1.827828e-04  -7.083278e-04  0 
VECTORS displacement_ITER4 FLOAT
 -1.765214e-04  -5.286112e-04  0 
 -1.801757e-04  -7.084505e-04  0 
 -1.053394e-04  -5.279748e-04  0 
 -3.435410e-05  -5.277622e-04  0 
 3.659526e-05  -5.277688e-04  0 
 1.075912e-04  -5.279947e-04  0 
 1.787916e-04  -5.286374e-04  0 
 -1.075543e-04  -7.078723e-04  0 
 -3.508307e-05  -7.075336e-04  0 
 3.733087e-05  -7.075296e-04  0 
 1.098077e-04  -7.078621e-04  0 
 1.824399e-04  -7.084381e-04  0 
VECTORS displacement_ITER5 FLOAT
 -1.763967e-04  -5.289607e-04  0 
 -1.800433e-04  -7.086318e-04  0 
 -1.052424e-04  -5.283031e-04  0 
 -3.430676e-05  -5.280666e-04  0 
 3.658302e-05  -5.280702e-04  0 
 1.075259e-04  -5.283158e-04  0 
 1.786870e-04  -5.289763e-04  0 
 -1.074779e-04  -7.080656e-04  0 
 -3.503907e-05  -7.077274e-04  0 
 3.733117e-05  -7.077311e-04  0 
 1.097637e-04  -7.080753e-04  0 
 1.823186e-04  -7.086442e-04  0 
VECTORS displacement_ITER6 FLOAT
 -1.763931e-04  -5.290261e-04  0 
 -1.800256e-04  -7.086643e-04  0 
 -1.052374e-04  -5.283611e-04  0 
 -3.430399e-05  -5.281119e-04  0 
 3.657450e-05  -5.281119e-04  0 
 1.075076e-04  -5.283639e-04  0 
 1.786581e-04  -5.290285e-04  0 
 -1.074807e-04  -7.081030e-04  0 
 -3.504763e-05  -7.077601e-04  0 
 3.731867e-05  -7.077611e-04  0 
 1.097511e-04  -7.081051e-04  0 
 1.822931e-04  -7.086669e-04  0 
VECTORS displacement_ITER7 FLOAT
 -1.764021e-04  -5.290047e-04  0 
 -1.800237e-04  -7.086308e-04  0 
 -1.052456e-04  -5.283357e-04  0 
 -3.430634e-05  -5.280747e-04  0 
 3.656841e-05  -5.280745e-04  0 
 1.075036e-04  -5.283365e-04  0 
 1.786512e-04  -5.290043e-04  0 
 -1.074949e-04  -7.080766e-04  0 
 -3.505882e-05  -7.077294e-04  0 
 3.731346e-05  -7.077282e-04  0 
 1.097520e-04  -7.080722e-04  0 
 1.822848e-04  -7.086253e-04  0 
VECTORS displacement_ITER8 FLOAT
 -1.764024e-04  -5.289690e-04  0 
 -1.800222e-04  -7.085877e-04  0 
 -1.052481e-04  -5.282986e-04  0 
 -3.430430e-05  -5.280303e-04  0 
 3.656921e-05  -5.280318e-04  0 
 1.075093e-04  -5.283026e-04  0 
 1.786569e-04  -5.289731e-04  0 
 -1.074993e-04  -7.080396e-04  0 
 -3.505857e-05  -7.076929e-04  0 
 3.731979e-05  -7.076925e-04  0 
 1.097607e-04  -7.080373e-04  0 
 1.822850e-04  -7.085851e-04  0 
VECTORS displacement_ITER9 FLOAT
 -1.764053e-04  -5.289434e-04  0 
 -1.800256e-04  -7.085563e-04  0 
 -1.052534e-04  -5.282723e-04  0 
 -3.430680e-05  -5.279993e-04  0 
 3.656665e-05  -5.280020e-04  0 
 1.075101e-04  -5.282786e-04  0 
 1.786569e-04  -5.289508e-04  0 
 -1.075045e-04  -7.080122e-04  0 
 -3.506156e-05  -7.076683e-04  0 
 3.732112e-05  -7.076685e-04  0 
 1.097622e-04  -7.080120e-04  0 
 1.822818e-04  -7.085568e-04  0 
VECTORS displacement_ITER10 FLOAT
 -1.764155e-04  -5.289067e-04  0 
 -1.800354e-04  -7.085145e-04  0 
 -1.052664e-04  -5.282346e-04  0 
 -3.431584e-05  -5.279563e-04  0 
 3.655973e-05  -5.279598e-04  0 
 1.075070e-04  -5.282422e-04  0 
 1.786509e-04  -5.289161e-04  0 
 -1.075165e-04  -7.079742e-04  0 
 -3.507226e-05  -7.076345e-04  0 
 3.731645e-05  -7.076342e-04  0 
 1.097583e-04  -7.079736e-04  0 
 1.822748e-04  -7.085148e-04  0 
VECTORS displacement_ITER11 FLOAT
 -1.764228e-04  -5.288681e-04  0 
 -1.800424e-04  -7.084746e-04  0 
 -1.052759e-04  -5.281950e-04  0 
 -3.432213e-05  -5.279141e-04  0 
 3.655830e-05  -5.279176e-04  0 
 1.075083e-04  -5.282024e-04  0 
 1.786489e-04  -5.288772e-04  0 
 -1.075247e-04  -7.079362e-04  0 
 -3.507961e-05  -7.076002e-04  0 
 3.731479e-05  -7.075990e-04  0 
 1.097580e-04  -7.079339e-04  0 
 1.822739e-04  -7.084726e-04  0 
VECTORS displacement_ITER12 FLOAT
 -1.764206e-04  -5.288377e-04  0 
 -1.800412e-04  -7.084436e-04  0 
 -1.052758e-04  -5.281637e-04  0 
 -3.432091e-05  -5.278829e-04  0 
 3.656559e-05  -5.278860e-04  0 
 1.075170e-04  -5.281709e-04  0 
 1.786543e-04  -5.288462e-04  0 
 -1.075232e-04  -7.079061e-04  0 
 -3.507724e-05  -7.075734e-04  0 
 3.732099e-05  -7.075720e-04  0 
 1.097647e-04  -7.079034e-04  0 
 1.822803e-04  -7.084409e-04  0 
VECTORS displacement_ITER13 FLOAT
 -1.764172e-04  -5.288432e-04  0 
 -1.800393e-04  -7.084451e-04  0 
 -1.052742e-04  -5.281682e-04  0 
 -3.432121e-05  -5.278876e-04  0 
 3.656628e-05  -5.278904e-04  0 
 1.075160e-04  -5.281751e-04  0 
 1.786518e-04  -5.288513e-04  0 
 -1.075213e-04  -7.079076e-04  0 
 -3.507605e-05  -7.075764e-04  0 
 3.732084e-05  -7.075751e-04  0 
 1.097633e-04  -7.079049e-04  0 
 1.822782e-04  -7.084425e-04  0 
VECTORS displacement_ITER14 FLOAT
 -1.764179e-04  -5.288499e-04  0 
 -1.800408e-04  -7.084490e-04  0 
 -1.052761e-04  -5.281742e-04  0 
 -3.432464e-05  -5.278931e-04  0 
 3.656219e-05  -5.278956e-04  0 
 1.075105e-04  -5.281805e-04  0 
 1.786457e-04  -5.288574e-04  0 
 -1.075234e-04  -7.079110e-04  0 
 -3.507888e-05  -7.075799e-04  0 
 3.731606e-05  -7.075786e-04  0 
 1.097578e-04  -7.079078e-04  0 
 1.822725e-04  -7.084455e-04  0 
VECTORS displacement_ITER15 FLOAT
 -1.764183e-04  -5.288452e-04  0 
 -1.800417e-04  -7.084455e-04  0 
 -1.052764e-04  -5.281697e-04  0 
 -3.432459e-05  -5.278883e-04  0 
 3.656220e-05  -5.278905e-04  0 
 1.075112e-04  -5.281755e-04  0 
 1.786470e-04  -5.288522e-04  0 
 -1.075239e-04  -7.079070e-04  0 
 -3.507876e-05  -7.075755e-04  0 
 3.731620e-05  -7.075743e-04  0 
 1.097586e-04  -7.079039e-04  0 
 1.822736e-04  -7.084421e-04  0 
VECTORS displacement_ITER16 FLOAT
 -1.764181e-04  -5.288495e-04  0 
 -1.800416e-04  -7.084503e-04  0 
 -1.052762e-04  -5.281743e-04  0 
 -3.432426e-05  -5.278929e-04  0 
 3.656243e-05  -5.278950e-04  0 
 1.075117e-04  -5.281797e-04  0 
 1.786480e-04  -5.288560e-04  0 
 -1.075235e-04  -7.079117e-04  0 
 -3.507853e-05  -7.075802e-04  0 
 3.731647e-05  -7.075791e-04  0 
 1.097590e-04  -7.079088e-04  0 
 1.822743e-04  -7.084470e-04  0 
VECTORS displacement_ITER17 FLOAT
 -1.764183e-04  -5.288475e-04  0 
 -1.800418e-04  -7.084483e-04  0 
 -1.052763e-04  -5.281723e-04  0 
 -3.432461e-05  -5.278910e-04  0 
 3.656201e-05  -5.278929e-04  0 
 1.075111e-04  -5.281774e-04  0 
 1.786480e-04  -5.288536e-04  0 
 -1.075237e-04  -7.079096e-04  0 
 -3.507897e-05  -7.075779e-04  0 
 3.731613e-05  -7.075769e-04  0 
 1.097586e-04  -7.079068e-04  0 
 1.822740e-04  -7.084452e-04  0 
VECTORS displacement_ITER18 FLOAT
 -1.764184e-04  -5.288479e-04  0 
 -1.800419e-04  -7.084489e-04  0 
 -1.052763e-04  -5.281728e-04  0 
 -3.432462e-05  -5.278915e-04  0 
 3.656200e-05  -5.278933e-04  0 
 1.075112e-04  -5.281777e-04  0 
 1.786482e-04  -5.288539e-04  0 
 -1.075238e-04  -7.079102e-04  0 
 -3.507901e-05  -7.075784e-04  0 
 3.731611e-05  -7.075774e-04  0 
 1.097587e-04  -7.079075e-04  0 
 1.822742e-04  -7.084459e-04  0 
VECTORS displacement_ITER19 FLOAT
 -1.764184e-04  -5.288478e-04  0 
 -1.800419e-04  -7.084487e-04  0 
 -1.052764e-04  -5.281726e-04  0 
 -3.432465e-05  -5.278913e-04  0 
 3.656192e-05  -5.278932e-04  0 
 1.075111e-04  -5.281775e-04  0 
 1.786483e-04  -5.288536e-04  0 
 -1.075238e-04  -7.079100e-04  0 
 -3.507904e-05  -7.075783e-04  0 
 3.731602e-05  -7.075773e-04  0 
 1.097587e-04  -7.079074e-04  0 
 1.822743e-04  -7.084458e-04  0 
VECTORS displacement_ITER20 FLOAT
 -1.764185e-04  -5.288478e-04  0 
 -1.800419e-04  -7.084487e-04  0 
 -1.052764e-04  -5.281727e-04  0 
 -3.432470e-05  -5.278914e-04  0 
 3.656187e-05  -5.278932e-04  0 
 1.075111e-04  -5.281775e-04  0 
 1.786483e-04  -5.288536e-04  0 
 -1.075238e-04  -7.079100e-04  0 
 -3.507909e-05  -7.075783e-04  0 
 3.731596e-05  -7.075774e-04  0 
 1.097587e-04  -7.079075e-04  0 
 1.822743e-04  -7.084459e-04  0 
VECTORS displacement_ITER21 FLOAT
 -1.764184e-04  -5.288478e-04  0 
 -1.800419e-04  -7.084486e-04  0 
 -1.052764e-04  -5.281726e-04  0 
 -3.432469e-05  -5.278913e-04  0 
 3.656187e-05  -5.278932e-04  0 
 1.075111e-04  -5.281774e-04  0 
 1.786484e-04  -5.288535e-04  0 
 -1.075238e-04  -7.079100e-04  0 
 -3.507908e-05  -7.075782e-04  0 
 3.731596e-05  -7.075773e-04  0 
 1.097587e-04  -7.079075e-04  0 
 1.822744e-04  -7.084459e-04  0 
VECTORS displacement_ITER22 FLOAT
 -1.764184e-04  -5.288478e-04  0 
 -1.800419e-04  -7.084486e-04  0 
 -1.052764e-04  -5.281726e-04  0 
 -3.432470e-05  -5.278913e-04  0 
 3.656186e-05  -5.278932e-04  0 
 1.075111e-04  -5.281774e-04  0 
 1.786484e-04  -5.288535e-04  0 
 -1.075238e-04  -7.079099e-04  0 
 -3.507909e-05  -7.075782e-04  0 
 3.731595e-05  -7.075773e-04  0 
 1.097587e-04  -7.079075e-04  0 
 1.822744e-04  -7.084459e-04  0 
VECTORS displacement_ITER23 FLOAT
 -1.764184e-04  -5.288478e-04  0 
 -1.800419e-04  -7.084486e-04  0 
 -1.052764e-04  -5.281726e-04  0 
 -3.432471e-05  -5.278913e-04  0 
 3.656185e-05  -5.278931e-04  0 
 1.075111e-04  -5.281774e-04  0 
 1.786484e-04  -5.288535e-04  0 
 -1.075238e-04  -7.079099e-04  0 
 -3.507909e-05  -7.075782e-04  0 
 3.731594e-05  -7.075773e-04  0 
 1.097587e-04  -7.079075e-04  0 
 1.822744e-04  -7.084459e-04  0 
VECTORS displacement_ITER24 FLOAT
 -1.764184e-04  -5.288478e-04  0 
 -1.800419e-04  -7.084486e-04  0 
 -1.052764e-04  -5.281726e-04  0 
 -3.432471e-05  -5.278913e-04  0 
 3.656185e-05  -5.278931e-04  0 
 1.075111e-04  -5.281774e-04  0 
 1.786484e-04  -5.288535e-04  0 
 -1.075238e-04  -7.079099e-04  0 
 -3.507909e-05  -7.075782e-04  0 
 3.731594e-05  -7.075773e-04  0 
 1.097587e-04  -7.079075e-04  0 
 1.822744e-04  -7.084459e-04  0 
VECTORS displacement_ITER25 FLOAT
 -1.764184e-04  -5.288478e-04  0 
 -1.800419e-04  -7.084486e-04  0 
 -1.052764e-04  -5.281726e-04  0 
 -3.432471e-05  -5.278913e-04  0 
 3.656184e-05  -5.278931e-04  0 
 1.075111e-04  -5.281774e-04  0 
 1.786484e-04  -5.288535e-04  0 
 -1.075238e-04  -7.079099e-04  0 
 -3.507910e-05  -7.075782e-04  0 
 3.731594e-05  -7.075773e-04  0 
 1.097587e-04  -7.079075e-04  0 
 1.822744e-04  -7.084459e-04  0 
CELL_DATA 5
TENSORS element_stresses FLOAT
 -5.451078e-03  -1.445183e-04  0 
 -1.445183e-04  1.399265e-03  0 
 0  0  0 

 -2.793451e-03  -7.177970e-04  0 
 -7.177970e-04  6.945089e-04  0 
 0  0  0 

 -1.053932e-06  -8.977234e-04  0 
 -8.977234e-04  -2.530619e-06  0 
 0  0  0 

 2.792105e-03  -7.186141e-04  0 
 -7.186141e-04  -6.984804e-04  0 
 0  0  0 

 5.453477e-03  -1.463473e-04  0 
 -1.463473e-04  -1.400273e-03  0 
 0  0  0 

TENSORS element_stresses FLOAT
 -5.451078e-03  -1.445183e-04  0 
 -1.445183e-04  1.399265e-03  0 
 0  0  0 

 -2.793451e-03  -7.177970e-04  0 
 -7.177970e-04  6.945089e-04  0 
 0  0  0 

 -1.053932e-06  -8.977234e-04  0 
 -8.977234e-04  -2.530619e-06  0 
 0  0  0 

 2.792105e-03  -7.186141e-04  0 
 -7.186141e-04  -6.984804e-04  0 
 0  0  0 

 5.453477e-03  -1.463473e-04  0 
 -1.463473e-04  -1.400273e-03  0 
 0  0  0 

