# vtk DataFile Version 3.1
this is an vtk file created by FEMAC
ASCII
DATASET UNSTRUCTURED_GRID
POINTS 12 FLOAT
3.000000 0.000000 0.000000
3.500000 0.000000 0.000000
3.000000 0.200000 0.000000
3.000000 0.400000 0.000000
3.000000 0.600000 0.000000
3.000000 0.800000 0.000000
3.000000 1.000000 0.000000
3.500000 0.200000 0.000000
3.500000 0.400000 0.000000
3.500000 0.600000 0.000000
3.500000 0.800000 0.000000
3.500000 1.000000 0.000000
CELLS 5 25 
4 0 1 7 2
4 2 7 8 3
4 3 8 9 4
4 4  9 10  5
4 5 10 11  6
CELL_TYPES 5
9 9 9 9 9 
POINT_DATA 12
VECTORS displacement_ITER1 FLOAT
 -1.824672e-04  -7.166134e-04  0 
 -2.115149e-04  -9.158490e-04  0 
 -1.112843e-04  -7.147080e-04  0 
 -3.649741e-05  -7.122578e-04  0 
 3.927963e-05  -7.122578e-04  0 
 1.140665e-04  -7.147080e-04  0 
 1.852494e-04  -7.166134e-04  0 
 -1.262397e-04  -9.151121e-04  0 
 -4.139603e-05  -9.159100e-04  0 
 4.417825e-05  -9.159100e-04  0 
 1.290219e-04  -9.151121e-04  0 
 2.142971e-04  -9.158490e-04  0 
VECTORS displacement_ITER2 FLOAT
 -1.808502e-04  -7.097399e-04  0 
 -2.086003e-04  -9.084715e-04  0 
 -1.088680e-04  -7.090168e-04  0 
 -3.550282e-05  -7.079335e-04  0 
 3.785719e-05  -7.079335e-04  0 
 1.112223e-04  -7.090168e-04  0 
 1.832046e-04  -7.097399e-04  0 
 -1.243518e-04  -9.076445e-04  0 
 -4.068116e-05  -9.074148e-04  0 
 4.303553e-05  -9.074148e-04  0 
 1.267062e-04  -9.076445e-04  0 
 2.109547e-04  -9.084715e-04  0 
VECTORS displacement_ITER3 FLOAT
 -1.800206e-04  -7.084379e-04  0 
 -2.072953e-04  -9.066659e-04  0 
 -1.078330e-04  -7.081384e-04  0 
 -3.515902e-05  -7.075553e-04  0 
 3.725445e-05  -7.073663e-04  0 
 1.101930e-04  -7.076492e-04  0 
 1.828843e-04  -7.078418e-04  0 
 -1.235596e-04  -9.058335e-04  0 
 -4.043076e-05  -9.052680e-04  0 
 4.254276e-05  -9.053911e-04  0 
 1.259147e-04  -9.061529e-04  0 
 2.099694e-04  -9.070401e-04  0 
VECTORS displacement_ITER4 FLOAT
 -1.806857e-04  -7.074753e-04  0 
 -2.074856e-04  -9.070642e-04  0 
 -1.075843e-04  -7.073459e-04  0 
 -3.457217e-05  -7.073474e-04  0 
 3.778186e-05  -7.078400e-04  0 
 1.100430e-04  -7.086225e-04  0 
 1.817827e-04  -7.090550e-04  0 
 -1.234159e-04  -9.062771e-04  0 
 -3.987014e-05  -9.054365e-04  0 
 4.306027e-05  -9.050322e-04  0 
 1.258609e-04  -9.052229e-04  0 
 2.088731e-04  -9.057831e-04  0 
VECTORS displacement_ITER5 FLOAT
 -1.796261e-04  -7.090127e-04  0 
 -2.063297e-04  -9.055945e-04  0 
 -1.076545e-04  -7.085095e-04  0 
 -3.536351e-05  -7.078480e-04  0 
 3.708132e-05  -7.075883e-04  0 
 1.098571e-04  -7.078020e-04  0 
 1.825588e-04  -7.081149e-04  0 
 -1.235514e-04  -9.052378e-04  0 
 -4.065489e-05  -9.052151e-04  0 
 4.234876e-05  -9.055265e-04  0 
 1.257583e-04  -9.060678e-04  0 
 2.094235e-04  -9.066547e-04  0 
VECTORS displacement_ITER6 FLOAT
 -1.799287e-04  -7.086536e-04  0 
 -2.067223e-04  -9.060960e-04  0 
 -1.076046e-04  -7.081914e-04  0 
 -3.510549e-05  -7.077599e-04  0 
 3.736240e-05  -7.077427e-04  0 
 1.098481e-04  -7.081332e-04  0 
 1.822372e-04  -7.085796e-04  0 
 -1.235261e-04  -9.056554e-04  0 
 -4.038568e-05  -9.054155e-04  0 
 4.263253e-05  -9.053953e-04  0 
 1.257843e-04  -9.056079e-04  0 
 2.089163e-04  -9.060294e-04  0 
VECTORS displacement_ITER7 FLOAT
 -1.801229e-04  -7.083962e-04  0 
 -2.068448e-04  -9.062691e-04  0 
 -1.075289e-04  -7.079586e-04  0 
 -3.497831e-05  -7.077176e-04  0 
 3.747615e-05  -7.078145e-04  0 
 1.098170e-04  -7.082231e-04  0 
 1.821098e-04  -7.087524e-04  0 
 -1.234865e-04  -9.057757e-04  0 
 -4.025914e-05  -9.054491e-04  0 
 4.274545e-05  -9.053297e-04  0 
 1.257791e-04  -9.054522e-04  0 
 2.087907e-04  -9.058394e-04  0 
VECTORS displacement_ITER8 FLOAT
 -1.800508e-04  -7.084882e-04  0 
 -2.067230e-04  -9.060932e-04  0 
 -1.075034e-04  -7.080000e-04  0 
 -3.505576e-05  -7.077473e-04  0 
 3.738544e-05  -7.077626e-04  0 
 1.097798e-04  -7.080591e-04  0 
 1.822300e-04  -7.085780e-04  0 
 -1.234821e-04  -9.056264e-04  0 
 -4.034253e-05  -9.053771e-04  0 
 4.266035e-05  -9.053550e-04  0 
 1.257530e-04  -9.055561e-04  0 
 2.089323e-04  -9.059970e-04  0 
VECTORS displacement_ITER9 FLOAT
 -1.799951e-04  -7.085655e-04  0 
 -2.066672e-04  -9.059750e-04  0 
 -1.075094e-04  -7.080334e-04  0 
 -3.511008e-05  -7.077401e-04  0 
 3.732685e-05  -7.077053e-04  0 
 1.097633e-04  -7.079589e-04  0 
 1.822979e-04  -7.084710e-04  0 
 -1.234929e-04  -9.055307e-04  0 
 -4.040808e-05  -9.053375e-04  0 
 4.261394e-05  -9.053632e-04  0 
 1.257402e-04  -9.055910e-04  0 
 2.089966e-04  -9.060586e-04  0 
VECTORS displacement_ITER10 FLOAT
 -1.800128e-04  -7.085414e-04  0 
 -2.066881e-04  -9.059348e-04  0 
 -1.075192e-04  -7.079866e-04  0 
 -3.510683e-05  -7.076780e-04  0 
 3.731844e-05  -7.076523e-04  0 
 1.097561e-04  -7.079281e-04  0 
 1.822898e-04  -7.084595e-04  0 
 -1.235031e-04  -9.054917e-04  0 
 -4.042750e-05  -9.053186e-04  0 
 4.262791e-05  -9.053353e-04  0 
 1.257367e-04  -9.055366e-04  0 
 2.089839e-04  -9.060033e-04  0 
VECTORS displacement_ITER11 FLOAT
 -1.800586e-04  -7.084640e-04  0 
 -2.067305e-04  -9.059448e-04  0 
 -1.075179e-04  -7.079156e-04  0 
 -3.507011e-05  -7.076114e-04  0 
 3.732936e-05  -7.076171e-04  0 
 1.097544e-04  -7.079292e-04  0 
 1.822629e-04  -7.084792e-04  0 
 -1.235012e-04  -9.054864e-04  0 
 -4.041335e-05  -9.053040e-04  0 
 4.266103e-05  -9.052952e-04  0 
 1.257380e-04  -9.054702e-04  0 
 2.089556e-04  -9.059273e-04  0 
VECTORS displacement_ITER12 FLOAT
 -1.800562e-04  -7.084405e-04  0 
 -2.067373e-04  -9.059282e-04  0 
 -1.075131e-04  -7.078982e-04  0 
 -3.505710e-05  -7.075767e-04  0 
 3.731366e-05  -7.075808e-04  0 
 1.097533e-04  -7.078992e-04  0 
 1.822837e-04  -7.084440e-04  0 
 -1.234935e-04  -9.054627e-04  0 
 -4.041230e-05  -9.052795e-04  0 
 4.266020e-05  -9.052733e-04  0 
 1.257366e-04  -9.054545e-04  0 
 2.089679e-04  -9.059134e-04  0 
VECTORS displacement_ITER13 FLOAT
 -1.800369e-04  -7.084613e-04  0 
 -2.067324e-04  -9.059084e-04  0 
 -1.075204e-04  -7.079150e-04  0 
 -3.507101e-05  -7.075736e-04  0 
 3.730763e-05  -7.075686e-04  0 
 1.097589e-04  -7.078960e-04  0 
 1.822874e-04  -7.084371e-04  0 
 -1.234951e-04  -9.054522e-04  0 
 -4.041392e-05  -9.052777e-04  0 
 4.264649e-05  -9.052799e-04  0 
 1.257346e-04  -9.054598e-04  0 
 2.089769e-04  -9.059163e-04  0 
VECTORS displacement_ITER14 FLOAT
 -1.800410e-04  -7.084527e-04  0 
 -2.067396e-04  -9.059106e-04  0 
 -1.075253e-04  -7.079104e-04  0 
 -3.507774e-05  -7.075719e-04  0 
 3.731643e-05  -7.075723e-04  0 
 1.097621e-04  -7.079110e-04  0 
 1.822687e-04  -7.084535e-04  0 
 -1.234967e-04  -9.054577e-04  0 
 -4.040301e-05  -9.052799e-04  0 
 4.264064e-05  -9.052806e-04  0 
 1.257312e-04  -9.054566e-04  0 
 2.089734e-04  -9.059091e-04  0 
VECTORS displacement_ITER15 FLOAT
 -1.800420e-04  -7.084440e-04  0 
 -2.067411e-04  -9.059158e-04  0 
 -1.075214e-04  -7.079065e-04  0 
 -3.508069e-05  -7.075775e-04  0 
 3.731602e-05  -7.075765e-04  0 
 1.097567e-04  -7.079039e-04  0 
 1.822755e-04  -7.084399e-04  0 
 -1.234944e-04  -9.054603e-04  0 
 -4.039927e-05  -9.052741e-04  0 
 4.263346e-05  -9.052750e-04  0 
 1.257291e-04  -9.054615e-04  0 
 2.089764e-04  -9.059178e-04  0 
VECTORS displacement_ITER16 FLOAT
 -1.800409e-04  -7.084511e-04  0 
 -2.067379e-04  -9.059144e-04  0 
 -1.075233e-04  -7.079114e-04  0 
 -3.508046e-05  -7.075781e-04  0 
 3.731736e-05  -7.075777e-04  0 
 1.097588e-04  -7.079098e-04  0 
 1.822747e-04  -7.084491e-04  0 
 -1.234969e-04  -9.054613e-04  0 
 -4.040268e-05  -9.052803e-04  0 
 4.263813e-05  -9.052800e-04  0 
 1.257326e-04  -9.054611e-04  0 
 2.089723e-04  -9.059138e-04  0 
VECTORS displacement_ITER17 FLOAT
 -1.800413e-04  -7.084478e-04  0 
 -2.067384e-04  -9.059143e-04  0 
 -1.075240e-04  -7.079094e-04  0 
 -3.507908e-05  -7.075773e-04  0 
 3.731530e-05  -7.075766e-04  0 
 1.097590e-04  -7.079077e-04  0 
 1.822743e-04  -7.084460e-04  0 
 -1.234963e-04  -9.054597e-04  0 
 -4.040400e-05  -9.052779e-04  0 
 4.263867e-05  -9.052779e-04  0 
 1.257312e-04  -9.054599e-04  0 
 2.089735e-04  -9.059145e-04  0 
VECTORS displacement_ITER18 FLOAT
 -1.800418e-04  -7.084482e-04  0 
 -2.067385e-04  -9.059162e-04  0 
 -1.075236e-04  -7.079099e-04  0 
 -3.507873e-05  -7.075785e-04  0 
 3.731528e-05  -7.075776e-04  0 
 1.097585e-04  -7.079080e-04  0 
 1.822747e-04  -7.084461e-04  0 
 -1.234966e-04  -9.054611e-04  0 
 -4.040371e-05  -9.052782e-04  0 
 4.263842e-05  -9.052781e-04  0 
 1.257315e-04  -9.054607e-04  0 
 2.089733e-04  -9.059158e-04  0 
VECTORS displacement_ITER19 FLOAT
 -1.800417e-04  -7.084485e-04  0 
 -2.067383e-04  -9.059153e-04  0 
 -1.075238e-04  -7.079098e-04  0 
 -3.507919e-05  -7.075780e-04  0 
 3.731583e-05  -7.075771e-04  0 
 1.097587e-04  -7.079077e-04  0 
 1.822745e-04  -7.084463e-04  0 
 -1.234970e-04  -9.054606e-04  0 
 -4.040369e-05  -9.052781e-04  0 
 4.263831e-05  -9.052780e-04  0 
 1.257317e-04  -9.054603e-04  0 
 2.089733e-04  -9.059150e-04  0 
VECTORS displacement_ITER20 FLOAT
 -1.800418e-04  -7.084486e-04  0 
 -2.067383e-04  -9.059156e-04  0 
 -1.075238e-04  -7.079099e-04  0 
 -3.507919e-05  -7.075782e-04  0 
 3.731588e-05  -7.075774e-04  0 
 1.097586e-04  -7.079077e-04  0 
 1.822745e-04  -7.084461e-04  0 
 -1.234969e-04  -9.054608e-04  0 
 -4.040377e-05  -9.052782e-04  0 
 4.263832e-05  -9.052781e-04  0 
 1.257316e-04  -9.054605e-04  0 
 2.089734e-04  -9.059153e-04  0 
VECTORS displacement_ITER21 FLOAT
 -1.800418e-04  -7.084485e-04  0 
 -2.067383e-04  -9.059156e-04  0 
 -1.075238e-04  -7.079099e-04  0 
 -3.507912e-05  -7.075782e-04  0 
 3.731591e-05  -7.075773e-04  0 
 1.097587e-04  -7.079076e-04  0 
 1.822744e-04  -7.084460e-04  0 
 -1.234969e-04  -9.054608e-04  0 
 -4.040382e-05  -9.052781e-04  0 
 4.263839e-05  -9.052780e-04  0 
 1.257316e-04  -9.054604e-04  0 
 2.089734e-04  -9.059152e-04  0 
VECTORS displacement_ITER22 FLOAT
 -1.800418e-04  -7.084486e-04  0 
 -2.067384e-04  -9.059156e-04  0 
 -1.075238e-04  -7.079099e-04  0 
 -3.507912e-05  -7.075782e-04  0 
 3.731591e-05  -7.075773e-04  0 
 1.097587e-04  -7.079075e-04  0 
 1.822744e-04  -7.084460e-04  0 
 -1.234969e-04  -9.054608e-04  0 
 -4.040383e-05  -9.052781e-04  0 
 4.263836e-05  -9.052780e-04  0 
 1.257316e-04  -9.054604e-04  0 
 2.089734e-04  -9.059152e-04  0 
VECTORS displacement_ITER23 FLOAT
 -1.800418e-04  -7.084486e-04  0 
 -2.067383e-04  -9.059156e-04  0 
 -1.075238e-04  -7.079099e-04  0 
 -3.507912e-05  -7.075782e-04  0 
 3.731593e-05  -7.075773e-04  0 
 1.097587e-04  -7.079075e-04  0 
 1.822744e-04  -7.084459e-04  0 
 -1.234969e-04  -9.054608e-04  0 
 -4.040383e-05  -9.052781e-04  0 
 4.263835e-05  -9.052779e-04  0 
 1.257316e-04  -9.054604e-04  0 
 2.089734e-04  -9.059151e-04  0 
VECTORS displacement_ITER24 FLOAT
 -1.800418e-04  -7.084486e-04  0 
 -2.067383e-04  -9.059156e-04  0 
 -1.075238e-04  -7.079099e-04  0 
 -3.507910e-05  -7.075782e-04  0 
 3.731593e-05  -7.075773e-04  0 
 1.097587e-04  -7.079075e-04  0 
 1.822744e-04  -7.084459e-04  0 
 -1.234969e-04  -9.054608e-04  0 
 -4.040382e-05  -9.052781e-04  0 
 4.263835e-05  -9.052779e-04  0 
 1.257316e-04  -9.054604e-04  0 
 2.089734e-04  -9.059151e-04  0 
VECTORS displacement_ITER25 FLOAT
 -1.800419e-04  -7.084486e-04  0 
 -2.067383e-04  -9.059156e-04  0 
 -1.075238e-04  -7.079099e-04  0 
 -3.507910e-05  -7.075782e-04  0 
 3.731593e-05  -7.075773e-04  0 
 1.097587e-04  -7.079075e-04  0 
 1.822744e-04  -7.084459e-04  0 
 -1.234969e-04  -9.054608e-04  0 
 -4.040383e-05  -9.052781e-04  0 
 4.263835e-05  -9.052780e-04  0 
 1.257316e-04  -9.054604e-04  0 
 2.089734e-04  -9.059151e-04  0 
CELL_DATA 5
TENSORS element_stresses FLOAT
 -4.607079e-03  -4.322442e-04  0 
 -4.322442e-04  -1.133749e-03  0 
 0  0  0 

 -2.298023e-03  -4.927985e-04  0 
 -4.927985e-04  -5.608130e-04  0 
 0  0  0 

 -1.652531e-07  -5.236571e-04  0 
 -5.236571e-04  2.185556e-07  0 
 0  0  0 

 2.297893e-03  -4.933517e-04  0 
 -4.933517e-04  5.611999e-04  0 
 0  0  0 

 4.607374e-03  -4.329484e-04  0 
 -4.329484e-04  1.133925e-03  0 
 0  0  0 

TENSORS element_stresses FLOAT
 -4.607079e-03  -4.322442e-04  0 
 -4.322442e-04  -1.133749e-03  0 
 0  0  0 

 -2.298023e-03  -4.927985e-04  0 
 -4.927985e-04  -5.608130e-04  0 
 0  0  0 

 -1.652531e-07  -5.236571e-04  0 
 -5.236571e-04  2.185556e-07  0 
 0  0  0 

 2.297893e-03  -4.933517e-04  0 
 -4.933517e-04  5.611999e-04  0 
 0  0  0 

 4.607374e-03  -4.329484e-04  0 
 -4.329484e-04  1.133925e-03  0 
 0  0  0 

