# vtk DataFile Version 3.1
this is an vtk file created by FEMAC
ASCII
DATASET UNSTRUCTURED_GRID
POINTS 12 FLOAT
2.000000 0.000000 0.000000
2.500000 0.000000 0.000000
2.000000 0.200000 0.000000
2.000000 0.400000 0.000000
2.000000 0.600000 0.000000
2.000000 0.800000 0.000000
2.000000 1.000000 0.000000
2.500000 0.200000 0.000000
2.500000 0.400000 0.000000
2.500000 0.600000 0.000000
2.500000 0.800000 0.000000
2.500000 1.000000 0.000000
CELLS 5 25 
4 0 1 7 2
4 2 7 8 3
4 3 8 9 4
4 4  9 10  5
4 5 10 11  6
CELL_TYPES 5
9 9 9 9 9 
POINT_DATA 12
VECTORS displacement_ITER1 FLOAT
 -1.376930e-04  -3.701167e-04  0 
 -1.801505e-04  -5.314627e-04  0 
 -8.517490e-05  -3.674660e-04  0 
 -2.787440e-05  -3.642942e-04  0 
 3.065662e-05  -3.642942e-04  0 
 8.795711e-05  -3.674660e-04  0 
 1.404752e-04  -3.701167e-04  0 
 -1.071391e-04  -5.302265e-04  0 
 -3.506980e-05  -5.309865e-04  0 
 3.785202e-05  -5.309865e-04  0 
 1.099213e-04  -5.302265e-04  0 
 1.829327e-04  -5.314627e-04  0 
VECTORS displacement_ITER2 FLOAT
 -1.381774e-04  -3.655290e-04  0 
 -1.784281e-04  -5.295640e-04  0 
 -8.297665e-05  -3.646605e-04  0 
 -2.631834e-05  -3.637262e-04  0 
 2.979815e-05  -3.645231e-04  0 
 8.539261e-05  -3.666201e-04  0 
 1.386471e-04  -3.679081e-04  0 
 -1.056565e-04  -5.282500e-04  0 
 -3.393594e-05  -5.274623e-04  0 
 3.736616e-05  -5.269610e-04  0 
 1.081134e-04  -5.269999e-04  0 
 1.796041e-04  -5.281034e-04  0 
VECTORS displacement_ITER3 FLOAT
 -1.360882e-04  -3.674950e-04  0 
 -1.760542e-04  -5.276261e-04  0 
 -8.218873e-05  -3.667813e-04  0 
 -2.716289e-05  -3.654095e-04  0 
 2.804349e-05  -3.646817e-04  0 
 8.434260e-05  -3.647375e-04  0 
 1.405762e-04  -3.649278e-04  0 
 -1.051743e-04  -5.266726e-04  0 
 -3.486405e-05  -5.263947e-04  0 
 3.577947e-05  -5.271252e-04  0 
 1.074051e-04  -5.286493e-04  0 
 1.802264e-04  -5.300703e-04  0 
VECTORS displacement_ITER4 FLOAT
 -1.375407e-04  -3.661164e-04  0 
 -1.773118e-04  -5.298667e-04  0 
 -8.191774e-05  -3.657769e-04  0 
 -2.601802e-05  -3.654897e-04  0 
 2.923845e-05  -3.659346e-04  0 
 8.437651e-05  -3.668720e-04  0 
 1.390450e-04  -3.675046e-04  0 
 -1.050523e-04  -5.287272e-04  0 
 -3.366746e-05  -5.275989e-04  0 
 3.698691e-05  -5.270792e-04  0 
 1.075517e-04  -5.273726e-04  0 
 1.782562e-04  -5.281044e-04  0 
VECTORS displacement_ITER5 FLOAT
 -1.373529e-04  -3.670321e-04  0 
 -1.766433e-04  -5.293505e-04  0 
 -8.196593e-05  -3.664883e-04  0 
 -2.641870e-05  -3.660812e-04  0 
 2.902091e-05  -3.663160e-04  0 
 8.432149e-05  -3.670912e-04  0 
 1.392098e-04  -3.678099e-04  0 
 -1.052357e-04  -5.285947e-04  0 
 -3.402633e-05  -5.280116e-04  0 
 3.674348e-05  -5.278516e-04  0 
 1.075704e-04  -5.281390e-04  0 
 1.784416e-04  -5.287453e-04  0 
VECTORS displacement_ITER6 FLOAT
 -1.371240e-04  -3.674971e-04  0 
 -1.763170e-04  -5.289453e-04  0 
 -8.197843e-05  -3.668082e-04  0 
 -2.668883e-05  -3.662958e-04  0 
 2.876798e-05  -3.662890e-04  0 
 8.424179e-05  -3.667984e-04  0 
 1.395446e-04  -3.674631e-04  0 
 -1.053073e-04  -5.283329e-04  0 
 -3.429900e-05  -5.279966e-04  0 
 3.649977e-05  -5.280733e-04  0 
 1.075412e-04  -5.284960e-04  0 
 1.786881e-04  -5.291592e-04  0 
VECTORS displacement_ITER7 FLOAT
 -1.371807e-04  -3.674431e-04  0 
 -1.762951e-04  -5.288849e-04  0 
 -8.190997e-05  -3.667071e-04  0 
 -2.669130e-05  -3.663103e-04  0 
 2.869554e-05  -3.662601e-04  0 
 8.415434e-05  -3.666030e-04  0 
 1.396991e-04  -3.672653e-04  0 
 -1.053024e-04  -5.282675e-04  0 
 -3.434900e-05  -5.279500e-04  0 
 3.646577e-05  -5.280468e-04  0 
 1.075287e-04  -5.284898e-04  0 
 1.787211e-04  -5.291915e-04  0 
VECTORS displacement_ITER8 FLOAT
 -1.373181e-04  -3.672605e-04  0 
 -1.763713e-04  -5.289602e-04  0 
 -8.186070e-05  -3.665307e-04  0 
 -2.659082e-05  -3.662340e-04  0 
 2.873867e-05  -3.662480e-04  0 
 8.412314e-05  -3.665981e-04  0 
 1.396692e-04  -3.673121e-04  0 
 -1.052831e-04  -5.282971e-04  0 
 -3.430511e-05  -5.279524e-04  0 
 3.654752e-05  -5.279839e-04  0 
 1.075394e-04  -5.283597e-04  0 
 1.786531e-04  -5.290522e-04  0 
VECTORS displacement_ITER9 FLOAT
 -1.373527e-04  -3.672352e-04  0 
 -1.764013e-04  -5.289687e-04  0 
 -8.186696e-05  -3.664938e-04  0 
 -2.654857e-05  -3.661688e-04  0 
 2.876377e-05  -3.662121e-04  0 
 8.412808e-05  -3.666261e-04  0 
 1.396226e-04  -3.673877e-04  0 
 -1.052851e-04  -5.282907e-04  0 
 -3.430625e-05  -5.279769e-04  0 
 3.659962e-05  -5.279753e-04  0 
 1.075494e-04  -5.282811e-04  0 
 1.786118e-04  -5.289538e-04  0 
VECTORS displacement_ITER10 FLOAT
 -1.373168e-04  -3.673001e-04  0 
 -1.764058e-04  -5.289133e-04  0 
 -8.190084e-05  -3.665259e-04  0 
 -2.654712e-05  -3.660987e-04  0 
 2.875957e-05  -3.661338e-04  0 
 8.414069e-05  -3.666174e-04  0 
 1.395935e-04  -3.674156e-04  0 
 -1.052948e-04  -5.282358e-04  0 
 -3.434551e-05  -5.279876e-04  0 
 3.661663e-05  -5.279770e-04  0 
 1.075479e-04  -5.282205e-04  0 
 1.786015e-04  -5.288815e-04  0 
VECTORS displacement_ITER11 FLOAT
 -1.372798e-04  -3.673200e-04  0 
 -1.764083e-04  -5.288592e-04  0 
 -8.191648e-05  -3.665318e-04  0 
 -2.655553e-05  -3.660483e-04  0 
 2.874505e-05  -3.660641e-04  0 
 8.414265e-05  -3.665640e-04  0 
 1.395870e-04  -3.673625e-04  0 
 -1.052886e-04  -5.281793e-04  0 
 -3.436231e-05  -5.279481e-04  0 
 3.659694e-05  -5.279438e-04  0 
 1.075293e-04  -5.281851e-04  0 
 1.786275e-04  -5.288587e-04  0 
VECTORS displacement_ITER12 FLOAT
 -1.372943e-04  -3.672469e-04  0 
 -1.764216e-04  -5.288482e-04  0 
 -8.189815e-05  -3.664744e-04  0 
 -2.654365e-05  -3.660163e-04  0 
 2.874721e-05  -3.660318e-04  0 
 8.413163e-05  -3.665102e-04  0 
 1.395779e-04  -3.672920e-04  0 
 -1.052666e-04  -5.281573e-04  0 
 -3.433139e-05  -5.278808e-04  0 
 3.657055e-05  -5.278801e-04  0 
 1.075066e-04  -5.281632e-04  0 
 1.786620e-04  -5.288577e-04  0 
VECTORS displacement_ITER13 FLOAT
 -1.373143e-04  -3.672378e-04  0 
 -1.764203e-04  -5.288547e-04  0 
 -8.188643e-05  -3.664663e-04  0 
 -2.654202e-05  -3.660239e-04  0 
 2.875520e-05  -3.660414e-04  0 
 8.412167e-05  -3.665112e-04  0 
 1.395767e-04  -3.672942e-04  0 
 -1.052689e-04  -5.281722e-04  0 
 -3.431675e-05  -5.278785e-04  0 
 3.656082e-05  -5.278784e-04  0 
 1.075078e-04  -5.281733e-04  0 
 1.786588e-04  -5.288587e-04  0 
VECTORS displacement_ITER14 FLOAT
 -1.373140e-04  -3.672671e-04  0 
 -1.764153e-04  -5.288478e-04  0 
 -8.188985e-05  -3.664861e-04  0 
 -2.655085e-05  -3.660331e-04  0 
 2.875683e-05  -3.660456e-04  0 
 8.411901e-05  -3.665168e-04  0 
 1.395806e-04  -3.673035e-04  0 
 -1.052786e-04  -5.281787e-04  0 
 -3.432262e-05  -5.278942e-04  0 
 3.655665e-05  -5.278955e-04  0 
 1.075126e-04  -5.281819e-04  0 
 1.786471e-04  -5.288526e-04  0 
VECTORS displacement_ITER15 FLOAT
 -1.373140e-04  -3.672599e-04  0 
 -1.764183e-04  -5.288438e-04  0 
 -8.189358e-05  -3.664827e-04  0 
 -2.654761e-05  -3.660270e-04  0 
 2.875703e-05  -3.660408e-04  0 
 8.412439e-05  -3.665138e-04  0 
 1.395759e-04  -3.672962e-04  0 
 -1.052756e-04  -5.281715e-04  0 
 -3.432467e-05  -5.278923e-04  0 
 3.656156e-05  -5.278929e-04  0 
 1.075095e-04  -5.281740e-04  0 
 1.786486e-04  -5.288468e-04  0 
VECTORS displacement_ITER16 FLOAT
 -1.373156e-04  -3.672596e-04  0 
 -1.764183e-04  -5.288504e-04  0 
 -8.189232e-05  -3.664855e-04  0 
 -2.654499e-05  -3.660326e-04  0 
 2.875480e-05  -3.660455e-04  0 
 8.412462e-05  -3.665148e-04  0 
 1.395775e-04  -3.672929e-04  0 
 -1.052746e-04  -5.281744e-04  0 
 -3.432513e-05  -5.278932e-04  0 
 3.656213e-05  -5.278948e-04  0 
 1.075091e-04  -5.281787e-04  0 
 1.786503e-04  -5.288559e-04  0 
VECTORS displacement_ITER17 FLOAT
 -1.373155e-04  -3.672596e-04  0 
 -1.764183e-04  -5.288479e-04  0 
 -8.189290e-05  -3.664840e-04  0 
 -2.654614e-05  -3.660311e-04  0 
 2.875603e-05  -3.660435e-04  0 
 8.412507e-05  -3.665134e-04  0 
 1.395767e-04  -3.672928e-04  0 
 -1.052761e-04  -5.281727e-04  0 
 -3.432461e-05  -5.278917e-04  0 
 3.656157e-05  -5.278934e-04  0 
 1.075108e-04  -5.281765e-04  0 
 1.786485e-04  -5.288524e-04  0 
VECTORS displacement_ITER18 FLOAT
 -1.373159e-04  -3.672594e-04  0 
 -1.764182e-04  -5.288482e-04  0 
 -8.189279e-05  -3.664841e-04  0 
 -2.654654e-05  -3.660315e-04  0 
 2.875609e-05  -3.660440e-04  0 
 8.412507e-05  -3.665137e-04  0 
 1.395769e-04  -3.672927e-04  0 
 -1.052764e-04  -5.281729e-04  0 
 -3.432452e-05  -5.278917e-04  0 
 3.656143e-05  -5.278936e-04  0 
 1.075111e-04  -5.281773e-04  0 
 1.786486e-04  -5.288536e-04  0 
VECTORS displacement_ITER19 FLOAT
 -1.373158e-04  -3.672593e-04  0 
 -1.764182e-04  -5.288479e-04  0 
 -8.189298e-05  -3.664840e-04  0 
 -2.654669e-05  -3.660314e-04  0 
 2.875609e-05  -3.660439e-04  0 
 8.412522e-05  -3.665137e-04  0 
 1.395768e-04  -3.672927e-04  0 
 -1.052765e-04  -5.281727e-04  0 
 -3.432478e-05  -5.278915e-04  0 
 3.656175e-05  -5.278933e-04  0 
 1.075112e-04  -5.281772e-04  0 
 1.786484e-04  -5.288534e-04  0 
VECTORS displacement_ITER20 FLOAT
 -1.373156e-04  -3.672592e-04  0 
 -1.764185e-04  -5.288480e-04  0 
 -8.189307e-05  -3.664838e-04  0 
 -2.654679e-05  -3.660315e-04  0 
 2.875613e-05  -3.660440e-04  0 
 8.412524e-05  -3.665136e-04  0 
 1.395769e-04  -3.672927e-04  0 
 -1.052764e-04  -5.281728e-04  0 
 -3.432475e-05  -5.278914e-04  0 
 3.656177e-05  -5.278932e-04  0 
 1.075111e-04  -5.281774e-04  0 
 1.786484e-04  -5.288534e-04  0 
VECTORS displacement_ITER21 FLOAT
 -1.373155e-04  -3.672592e-04  0 
 -1.764184e-04  -5.288478e-04  0 
 -8.189308e-05  -3.664838e-04  0 
 -2.654689e-05  -3.660314e-04  0 
 2.875619e-05  -3.660439e-04  0 
 8.412525e-05  -3.665136e-04  0 
 1.395768e-04  -3.672928e-04  0 
 -1.052764e-04  -5.281727e-04  0 
 -3.432474e-05  -5.278914e-04  0 
 3.656180e-05  -5.278932e-04  0 
 1.075111e-04  -5.281773e-04  0 
 1.786484e-04  -5.288534e-04  0 
VECTORS displacement_ITER22 FLOAT
 -1.373156e-04  -3.672591e-04  0 
 -1.764184e-04  -5.288478e-04  0 
 -8.189306e-05  -3.664838e-04  0 
 -2.654688e-05  -3.660314e-04  0 
 2.875615e-05  -3.660439e-04  0 
 8.412521e-05  -3.665136e-04  0 
 1.395768e-04  -3.672928e-04  0 
 -1.052764e-04  -5.281727e-04  0 
 -3.432473e-05  -5.278913e-04  0 
 3.656182e-05  -5.278931e-04  0 
 1.075111e-04  -5.281773e-04  0 
 1.786484e-04  -5.288534e-04  0 
VECTORS displacement_ITER23 FLOAT
 -1.373155e-04  -3.672591e-04  0 
 -1.764184e-04  -5.288478e-04  0 
 -8.189306e-05  -3.664837e-04  0 
 -2.654686e-05  -3.660313e-04  0 
 2.875612e-05  -3.660439e-04  0 
 8.412520e-05  -3.665136e-04  0 
 1.395769e-04  -3.672928e-04  0 
 -1.052764e-04  -5.281727e-04  0 
 -3.432473e-05  -5.278913e-04  0 
 3.656184e-05  -5.278931e-04  0 
 1.075111e-04  -5.281773e-04  0 
 1.786484e-04  -5.288535e-04  0 
VECTORS displacement_ITER24 FLOAT
 -1.373155e-04  -3.672591e-04  0 
 -1.764184e-04  -5.288478e-04  0 
 -8.189306e-05  -3.664837e-04  0 
 -2.654686e-05  -3.660313e-04  0 
 2.875611e-05  -3.660439e-04  0 
 8.412519e-05  -3.665136e-04  0 
 1.395769e-04  -3.672928e-04  0 
 -1.052764e-04  -5.281727e-04  0 
 -3.432472e-05  -5.278913e-04  0 
 3.656184e-05  -5.278931e-04  0 
 1.075111e-04  -5.281774e-04  0 
 1.786484e-04  -5.288535e-04  0 
VECTORS displacement_ITER25 FLOAT
 -1.373155e-04  -3.672591e-04  0 
 -1.764184e-04  -5.288478e-04  0 
 -8.189305e-05  -3.664837e-04  0 
 -2.654687e-05  -3.660313e-04  0 
 2.875611e-05  -3.660439e-04  0 
 8.412519e-05  -3.665136e-04  0 
 1.395769e-04  -3.672928e-04  0 
 -1.052764e-04  -5.281727e-04  0 
 -3.432471e-05  -5.278913e-04  0 
 3.656184e-05  -5.278931e-04  0 
 1.075111e-04  -5.281774e-04  0 
 1.786484e-04  -5.288535e-04  0 
CELL_DATA 5
TENSORS element_stresses FLOAT
 -6.747070e-03  -5.281836e-04  0 
 -5.281836e-04  -1.661494e-03  0 
 0  0  0 

 -3.363835e-03  -6.003245e-04  0 
 -6.003245e-04  -8.257191e-04  0 
 0  0  0 

 1.876245e-06  -6.334887e-04  0 
 -6.334887e-04  -3.040470e-06  0 
 0  0  0 

 3.365520e-03  -5.936162e-04  0 
 -5.936162e-04  8.211789e-04  0 
 0  0  0 

 6.743508e-03  -5.193870e-04  0 
 -5.193870e-04  1.659218e-03  0 
 0  0  0 

TENSORS element_stresses FLOAT
 -6.747070e-03  -5.281836e-04  0 
 -5.281836e-04  -1.661494e-03  0 
 0  0  0 

 -3.363835e-03  -6.003245e-04  0 
 -6.003245e-04  -8.257191e-04  0 
 0  0  0 

 1.876245e-06  -6.334887e-04  0 
 -6.334887e-04  -3.040470e-06  0 
 0  0  0 

 3.365520e-03  -5.936162e-04  0 
 -5.936162e-04  8.211789e-04  0 
 0  0  0 

 6.743508e-03  -5.193870e-04  0 
 -5.193870e-04  1.659218e-03  0 
 0  0  0 

