# vtk DataFile Version 3.1
this is an vtk file created by FEMAC
ASCII
DATASET UNSTRUCTURED_GRID
POINTS 12 FLOAT
1.500000 0.000000 0.000000
2.000000 0.000000 0.000000
1.500000 0.200000 0.000000
1.500000 0.400000 0.000000
1.500000 0.600000 0.000000
1.500000 0.800000 0.000000
1.500000 1.000000 0.000000
2.000000 0.200000 0.000000
2.000000 0.400000 0.000000
2.000000 0.600000 0.000000
2.000000 0.800000 0.000000
2.000000 1.000000 0.000000
CELLS 5 25 
4 0 1 7 2
4 2 7 8 3
4 3 8 9 4
4 4  9 10  5
4 5 10 11  6
CELL_TYPES 5
9 9 9 9 9 
POINT_DATA 12
VECTORS displacement_ITER1 FLOAT
 -1.340960e-04  -2.293028e-04  0 
 -1.394113e-04  -3.678813e-04  0 
 -7.988872e-05  -2.285892e-04  0 
 -2.568259e-05  -2.283182e-04  0 
 2.846480e-05  -2.283182e-04  0 
 8.267094e-05  -2.285892e-04  0 
 1.368782e-04  -2.293028e-04  0 
 -8.273378e-05  -3.671577e-04  0 
 -2.660644e-05  -3.668379e-04  0 
 2.938866e-05  -3.668379e-04  0 
 8.551599e-05  -3.671577e-04  0 
 1.421935e-04  -3.678813e-04  0 
VECTORS displacement_ITER2 FLOAT
 -1.327328e-04  -2.292381e-04  0 
 -1.380005e-04  -3.661636e-04  0 
 -7.913752e-05  -2.284211e-04  0 
 -2.568968e-05  -2.281660e-04  0 
 2.774417e-05  -2.281887e-04  0 
 8.126131e-05  -2.284888e-04  0 
 1.349310e-04  -2.293120e-04  0 
 -8.215782e-05  -3.653635e-04  0 
 -2.664975e-05  -3.649571e-04  0 
 2.877175e-05  -3.649570e-04  0 
 8.427982e-05  -3.653631e-04  0 
 1.401220e-04  -3.661628e-04  0 
VECTORS displacement_ITER3 FLOAT
 -1.320607e-04  -2.300307e-04  0 
 -1.372717e-04  -3.663564e-04  0 
 -7.859413e-05  -2.291536e-04  0 
 -2.535678e-05  -2.288626e-04  0 
 2.784736e-05  -2.288543e-04  0 
 8.111760e-05  -2.291449e-04  0 
 1.345889e-04  -2.300050e-04  0 
 -8.169946e-05  -3.655325e-04  0 
 -2.636471e-05  -3.650916e-04  0 
 2.889199e-05  -3.651029e-04  0 
 8.421146e-05  -3.655600e-04  0 
 1.397548e-04  -3.663893e-04  0 
VECTORS displacement_ITER4 FLOAT
 -1.320527e-04  -2.307703e-04  0 
 -1.372212e-04  -3.669936e-04  0 
 -7.858441e-05  -2.298609e-04  0 
 -2.537990e-05  -2.295289e-04  0 
 2.776924e-05  -2.295104e-04  0 
 8.099599e-05  -2.298276e-04  0 
 1.344626e-04  -2.307159e-04  0 
 -8.173443e-05  -3.661676e-04  0 
 -2.642696e-05  -3.656984e-04  0 
 2.881119e-05  -3.656969e-04  0 
 8.412707e-05  -3.661581e-04  0 
 1.396279e-04  -3.669796e-04  0 
VECTORS displacement_ITER5 FLOAT
 -1.321152e-04  -2.313247e-04  0 
 -1.372745e-04  -3.675099e-04  0 
 -7.863578e-05  -2.303936e-04  0 
 -2.543496e-05  -2.300223e-04  0 
 2.769392e-05  -2.300022e-04  0 
 8.092149e-05  -2.303571e-04  0 
 1.344185e-04  -2.312712e-04  0 
 -8.181561e-05  -3.666940e-04  0 
 -2.649298e-05  -3.662144e-04  0 
 2.875469e-05  -3.662148e-04  0 
 8.408326e-05  -3.666869e-04  0 
 1.395598e-04  -3.674986e-04  0 
VECTORS displacement_ITER6 FLOAT
 -1.321429e-04  -2.313686e-04  0 
 -1.373055e-04  -3.675546e-04  0 
 -7.866125e-05  -2.304340e-04  0 
 -2.544982e-05  -2.300460e-04  0 
 2.768581e-05  -2.300262e-04  0 
 8.092757e-05  -2.303970e-04  0 
 1.344391e-04  -2.313177e-04  0 
 -8.184677e-05  -3.667473e-04  0 
 -2.650685e-05  -3.662676e-04  0 
 2.875721e-05  -3.662726e-04  0 
 8.409832e-05  -3.667515e-04  0 
 1.395667e-04  -3.675579e-04  0 
VECTORS displacement_ITER7 FLOAT
 -1.321713e-04  -2.312517e-04  0 
 -1.373346e-04  -3.674505e-04  0 
 -7.869223e-05  -2.303177e-04  0 
 -2.546105e-05  -2.299131e-04  0 
 2.769384e-05  -2.298926e-04  0 
 8.095705e-05  -2.302760e-04  0 
 1.344782e-04  -2.311988e-04  0 
 -8.187807e-05  -3.666538e-04  0 
 -2.651964e-05  -3.661748e-04  0 
 2.877019e-05  -3.661824e-04  0 
 8.413194e-05  -3.666650e-04  0 
 1.395972e-04  -3.674623e-04  0 
VECTORS displacement_ITER8 FLOAT
 -1.321846e-04  -2.311764e-04  0 
 -1.373459e-04  -3.673770e-04  0 
 -7.871094e-05  -2.302427e-04  0 
 -2.546919e-05  -2.298292e-04  0 
 2.769844e-05  -2.298077e-04  0 
 8.097221e-05  -2.301960e-04  0 
 1.344945e-04  -2.311190e-04  0 
 -8.189494e-05  -3.665873e-04  0 
 -2.653046e-05  -3.661111e-04  0 
 2.877388e-05  -3.661188e-04  0 
 8.414726e-05  -3.665998e-04  0 
 1.396115e-04  -3.673894e-04  0 
VECTORS displacement_ITER9 FLOAT
 -1.321825e-04  -2.311756e-04  0 
 -1.373420e-04  -3.673618e-04  0 
 -7.871525e-05  -2.302402e-04  0 
 -2.547367e-05  -2.298235e-04  0 
 2.769723e-05  -2.298010e-04  0 
 8.097071e-05  -2.301898e-04  0 
 1.344890e-04  -2.311135e-04  0 
 -8.189716e-05  -3.665764e-04  0 
 -2.653620e-05  -3.661056e-04  0 
 2.877057e-05  -3.661136e-04  0 
 8.414478e-05  -3.665907e-04  0 
 1.396063e-04  -3.673755e-04  0 
VECTORS displacement_ITER10 FLOAT
 -1.321705e-04  -2.311916e-04  0 
 -1.373287e-04  -3.673483e-04  0 
 -7.871283e-05  -2.302523e-04  0 
 -2.547685e-05  -2.298325e-04  0 
 2.769335e-05  -2.298090e-04  0 
 8.096148e-05  -2.301978e-04  0 
 1.344728e-04  -2.311242e-04  0 
 -8.189250e-05  -3.665679e-04  0 
 -2.653991e-05  -3.661059e-04  0 
 2.876473e-05  -3.661151e-04  0 
 8.413493e-05  -3.665871e-04  0 
 1.395904e-04  -3.673672e-04  0 
VECTORS displacement_ITER11 FLOAT
 -1.321579e-04  -2.311771e-04  0 
 -1.373156e-04  -3.673085e-04  0 
 -7.870792e-05  -2.302334e-04  0 
 -2.547758e-05  -2.298108e-04  0 
 2.769020e-05  -2.297870e-04  0 
 8.095322e-05  -2.301766e-04  0 
 1.344598e-04  -2.311068e-04  0 
 -8.188693e-05  -3.665314e-04  0 
 -2.654087e-05  -3.660757e-04  0 
 2.876104e-05  -3.660863e-04  0 
 8.412752e-05  -3.665555e-04  0 
 1.395777e-04  -3.673333e-04  0 
VECTORS displacement_ITER12 FLOAT
 -1.321515e-04  -2.311341e-04  0 
 -1.373085e-04  -3.672519e-04  0 
 -7.870618e-05  -2.301868e-04  0 
 -2.547832e-05  -2.297619e-04  0 
 2.768804e-05  -2.297382e-04  0 
 8.094918e-05  -2.301296e-04  0 
 1.344541e-04  -2.310635e-04  0 
 -8.188580e-05  -3.664764e-04  0 
 -2.654214e-05  -3.660236e-04  0 
 2.875899e-05  -3.660352e-04  0 
 8.412521e-05  -3.665037e-04  0 
 1.395729e-04  -3.672809e-04  0 
VECTORS displacement_ITER13 FLOAT
 -1.321552e-04  -2.311332e-04  0 
 -1.373114e-04  -3.672512e-04  0 
 -7.871019e-05  -2.301853e-04  0 
 -2.548097e-05  -2.297598e-04  0 
 2.768639e-05  -2.297363e-04  0 
 8.094935e-05  -2.301283e-04  0 
 1.344545e-04  -2.310627e-04  0 
 -8.188996e-05  -3.664763e-04  0 
 -2.654491e-05  -3.660241e-04  0 
 2.875723e-05  -3.660362e-04  0 
 8.412567e-05  -3.665049e-04  0 
 1.395742e-04  -3.672822e-04  0 
VECTORS displacement_ITER14 FLOAT
 -1.321592e-04  -2.311437e-04  0 
 -1.373146e-04  -3.672630e-04  0 
 -7.871340e-05  -2.301961e-04  0 
 -2.548312e-05  -2.297706e-04  0 
 2.768497e-05  -2.297472e-04  0 
 8.094943e-05  -2.301393e-04  0 
 1.344547e-04  -2.310732e-04  0 
 -8.189304e-05  -3.664885e-04  0 
 -2.654697e-05  -3.660369e-04  0 
 2.875581e-05  -3.660494e-04  0 
 8.412548e-05  -3.665183e-04  0 
 1.395751e-04  -3.672960e-04  0 
VECTORS displacement_ITER15 FLOAT
 -1.321598e-04  -2.311375e-04  0 
 -1.373146e-04  -3.672578e-04  0 
 -7.871309e-05  -2.301903e-04  0 
 -2.548307e-05  -2.297651e-04  0 
 2.768478e-05  -2.297417e-04  0 
 8.094920e-05  -2.301341e-04  0 
 1.344546e-04  -2.310674e-04  0 
 -8.189284e-05  -3.664829e-04  0 
 -2.654711e-05  -3.660313e-04  0 
 2.875583e-05  -3.660438e-04  0 
 8.412510e-05  -3.665130e-04  0 
 1.395757e-04  -3.672915e-04  0 
VECTORS displacement_ITER16 FLOAT
 -1.321606e-04  -2.311376e-04  0 
 -1.373148e-04  -3.672598e-04  0 
 -7.871291e-05  -2.301910e-04  0 
 -2.548285e-05  -2.297662e-04  0 
 2.768506e-05  -2.297430e-04  0 
 8.094966e-05  -2.301353e-04  0 
 1.344553e-04  -2.310681e-04  0 
 -8.189282e-05  -3.664846e-04  0 
 -2.654695e-05  -3.660326e-04  0 
 2.875631e-05  -3.660452e-04  0 
 8.412548e-05  -3.665148e-04  0 
 1.395768e-04  -3.672939e-04  0 
VECTORS displacement_ITER17 FLOAT
 -1.321611e-04  -2.311360e-04  0 
 -1.373151e-04  -3.672588e-04  0 
 -7.871295e-05  -2.301896e-04  0 
 -2.548292e-05  -2.297650e-04  0 
 2.768488e-05  -2.297419e-04  0 
 8.094949e-05  -2.301342e-04  0 
 1.344552e-04  -2.310667e-04  0 
 -8.189294e-05  -3.664835e-04  0 
 -2.654698e-05  -3.660313e-04  0 
 2.875612e-05  -3.660440e-04  0 
 8.412523e-05  -3.665137e-04  0 
 1.395768e-04  -3.672930e-04  0 
VECTORS displacement_ITER18 FLOAT
 -1.321615e-04  -2.311358e-04  0 
 -1.373154e-04  -3.672591e-04  0 
 -7.871311e-05  -2.301894e-04  0 
 -2.548301e-05  -2.297650e-04  0 
 2.768488e-05  -2.297419e-04  0 
 8.094953e-05  -2.301342e-04  0 
 1.344553e-04  -2.310667e-04  0 
 -8.189310e-05  -3.664838e-04  0 
 -2.654699e-05  -3.660315e-04  0 
 2.875608e-05  -3.660442e-04  0 
 8.412523e-05  -3.665139e-04  0 
 1.395770e-04  -3.672931e-04  0 
VECTORS displacement_ITER19 FLOAT
 -1.321615e-04  -2.311356e-04  0 
 -1.373155e-04  -3.672590e-04  0 
 -7.871313e-05  -2.301892e-04  0 
 -2.548300e-05  -2.297649e-04  0 
 2.768490e-05  -2.297418e-04  0 
 8.094953e-05  -2.301341e-04  0 
 1.344552e-04  -2.310666e-04  0 
 -8.189310e-05  -3.664837e-04  0 
 -2.654695e-05  -3.660314e-04  0 
 2.875608e-05  -3.660440e-04  0 
 8.412522e-05  -3.665137e-04  0 
 1.395770e-04  -3.672930e-04  0 
VECTORS displacement_ITER20 FLOAT
 -1.321615e-04  -2.311356e-04  0 
 -1.373155e-04  -3.672591e-04  0 
 -7.871312e-05  -2.301892e-04  0 
 -2.548297e-05  -2.297648e-04  0 
 2.768492e-05  -2.297418e-04  0 
 8.094953e-05  -2.301341e-04  0 
 1.344552e-04  -2.310666e-04  0 
 -8.189308e-05  -3.664837e-04  0 
 -2.654691e-05  -3.660313e-04  0 
 2.875609e-05  -3.660440e-04  0 
 8.412521e-05  -3.665137e-04  0 
 1.395770e-04  -3.672929e-04  0 
VECTORS displacement_ITER21 FLOAT
 -1.321615e-04  -2.311356e-04  0 
 -1.373155e-04  -3.672591e-04  0 
 -7.871311e-05  -2.301892e-04  0 
 -2.548295e-05  -2.297648e-04  0 
 2.768493e-05  -2.297419e-04  0 
 8.094953e-05  -2.301341e-04  0 
 1.344551e-04  -2.310666e-04  0 
 -8.189306e-05  -3.664837e-04  0 
 -2.654688e-05  -3.660313e-04  0 
 2.875609e-05  -3.660440e-04  0 
 8.412520e-05  -3.665137e-04  0 
 1.395769e-04  -3.672929e-04  0 
VECTORS displacement_ITER22 FLOAT
 -1.321615e-04  -2.311355e-04  0 
 -1.373155e-04  -3.672591e-04  0 
 -7.871311e-05  -2.301891e-04  0 
 -2.548294e-05  -2.297648e-04  0 
 2.768493e-05  -2.297419e-04  0 
 8.094952e-05  -2.301341e-04  0 
 1.344551e-04  -2.310667e-04  0 
 -8.189306e-05  -3.664837e-04  0 
 -2.654688e-05  -3.660313e-04  0 
 2.875609e-05  -3.660439e-04  0 
 8.412519e-05  -3.665137e-04  0 
 1.395769e-04  -3.672929e-04  0 
VECTORS displacement_ITER23 FLOAT
 -1.321615e-04  -2.311355e-04  0 
 -1.373155e-04  -3.672591e-04  0 
 -7.871311e-05  -2.301891e-04  0 
 -2.548293e-05  -2.297648e-04  0 
 2.768494e-05  -2.297419e-04  0 
 8.094951e-05  -2.301341e-04  0 
 1.344551e-04  -2.310667e-04  0 
 -8.189306e-05  -3.664837e-04  0 
 -2.654688e-05  -3.660313e-04  0 
 2.875610e-05  -3.660439e-04  0 
 8.412519e-05  -3.665136e-04  0 
 1.395769e-04  -3.672929e-04  0 
VECTORS displacement_ITER24 FLOAT
 -1.321615e-04  -2.311355e-04  0 
 -1.373155e-04  -3.672591e-04  0 
 -7.871311e-05  -2.301891e-04  0 
 -2.548293e-05  -2.297648e-04  0 
 2.768494e-05  -2.297419e-04  0 
 8.094951e-05  -2.301341e-04  0 
 1.344551e-04  -2.310667e-04  0 
 -8.189306e-05  -3.664837e-04  0 
 -2.654687e-05  -3.660313e-04  0 
 2.875611e-05  -3.660439e-04  0 
 8.412519e-05  -3.665136e-04  0 
 1.395769e-04  -3.672929e-04  0 
VECTORS displacement_ITER25 FLOAT
 -1.321615e-04  -2.311355e-04  0 
 -1.373155e-04  -3.672591e-04  0 
 -7.871311e-05  -2.301891e-04  0 
 -2.548293e-05  -2.297648e-04  0 
 2.768495e-05  -2.297419e-04  0 
 8.094951e-05  -2.301341e-04  0 
 1.344551e-04  -2.310667e-04  0 
 -8.189306e-05  -3.664837e-04  0 
 -2.654687e-05  -3.660313e-04  0 
 2.875611e-05  -3.660439e-04  0 
 8.412519e-05  -3.665136e-04  0 
 1.395769e-04  -3.672929e-04  0 
CELL_DATA 5
TENSORS element_stresses FLOAT
 -7.739158e-03  -1.853149e-04  0 
 -1.853149e-04  1.982620e-03  0 
 0  0  0 

 -3.941064e-03  -8.616847e-04  0 
 -8.616847e-04  1.009436e-03  0 
 0  0  0 

 1.646392e-05  -1.070346e-03  0 
 -1.070346e-03  3.082430e-05  0 
 0  0  0 

 3.956457e-03  -8.441862e-04  0 
 -8.441862e-04  -9.679520e-04  0 
 0  0  0 

 7.707301e-03  -1.634681e-04  0 
 -1.634681e-04  -1.967225e-03  0 
 0  0  0 

TENSORS element_stresses FLOAT
 -7.739158e-03  -1.853149e-04  0 
 -1.853149e-04  1.982620e-03  0 
 0  0  0 

 -3.941064e-03  -8.616847e-04  0 
 -8.616847e-04  1.009436e-03  0 
 0  0  0 

 1.646392e-05  -1.070346e-03  0 
 -1.070346e-03  3.082430e-05  0 
 0  0  0 

 3.956457e-03  -8.441862e-04  0 
 -8.441862e-04  -9.679520e-04  0 
 0  0  0 

 7.707301e-03  -1.634681e-04  0 
 -1.634681e-04  -1.967225e-03  0 
 0  0  0 

