# vtk DataFile Version 3.1
this is an vtk file created by FEMAC
ASCII
DATASET UNSTRUCTURED_GRID
POINTS 12 FLOAT
1.000000 0.000000 0.000000
1.500000 0.000000 0.000000
1.000000 0.200000 0.000000
1.000000 0.400000 0.000000
1.000000 0.600000 0.000000
1.000000 0.800000 0.000000
1.000000 1.000000 0.000000
1.500000 0.200000 0.000000
1.500000 0.400000 0.000000
1.500000 0.600000 0.000000
1.500000 0.800000 0.000000
1.500000 1.000000 0.000000
CELLS 5 25 
4 0 1 7 2
4 2 7 8 3
4 3 8 9 4
4 4  9 10  5
4 5 10 11  6
CELL_TYPES 5
9 9 9 9 9 
POINT_DATA 12
VECTORS displacement_ITER1 FLOAT
 -7.367223e-05  -1.246053e-04  0 
 -1.331641e-04  -2.283037e-04  0 
 -4.968780e-05  -1.212243e-04  0 
 -1.709470e-05  -1.155868e-04  0 
 1.819776e-05  -1.137265e-04  0 
 5.187189e-05  -1.161704e-04  0 
 8.029184e-05  -1.192474e-04  0 
 -7.923157e-05  -2.265372e-04  0 
 -2.707102e-05  -2.282912e-04  0 
 2.725899e-05  -2.291378e-04  0 
 8.195979e-05  -2.290638e-04  0 
 1.385945e-04  -2.310868e-04  0 
VECTORS displacement_ITER2 FLOAT
 -8.019642e-05  -1.156726e-04  0 
 -1.359544e-04  -2.342018e-04  0 
 -4.717134e-05  -1.154434e-04  0 
 -1.249996e-05  -1.156375e-04  0 
 2.026238e-05  -1.176677e-04  0 
 4.987444e-05  -1.206643e-04  0 
 7.616140e-05  -1.229792e-04  0 
 -7.812076e-05  -2.316473e-04  0 
 -2.300343e-05  -2.287971e-04  0 
 2.983470e-05  -2.262167e-04  0 
 8.106220e-05  -2.250526e-04  0 
 1.325581e-04  -2.258993e-04  0 
VECTORS displacement_ITER3 FLOAT
 -7.832714e-05  -1.188628e-04  0 
 -1.322927e-04  -2.309942e-04  0 
 -4.642481e-05  -1.184915e-04  0 
 -1.419558e-05  -1.181179e-04  0 
 1.743314e-05  -1.179339e-04  0 
 4.869170e-05  -1.179573e-04  0 
 7.974577e-05  -1.187653e-04  0 
 -7.817547e-05  -2.294492e-04  0 
 -2.499580e-05  -2.278299e-04  0 
 2.735005e-05  -2.277145e-04  0 
 8.051466e-05  -2.292274e-04  0 
 1.351415e-04  -2.308359e-04  0 
VECTORS displacement_ITER4 FLOAT
 -7.814906e-05  -1.205247e-04  0 
 -1.317279e-04  -2.308728e-04  0 
 -4.632843e-05  -1.197049e-04  0 
 -1.453863e-05  -1.190096e-04  0 
 1.695700e-05  -1.184177e-04  0 
 4.851170e-05  -1.181495e-04  0 
 8.068679e-05  -1.189030e-04  0 
 -7.852947e-05  -2.298205e-04  0 
 -2.551804e-05  -2.287229e-04  0 
 2.718230e-05  -2.288946e-04  0 
 8.074026e-05  -2.302824e-04  0 
 1.350636e-04  -2.316209e-04  0 
VECTORS displacement_ITER5 FLOAT
 -7.859943e-05  -1.212150e-04  0 
 -1.318311e-04  -2.313104e-04  0 
 -4.638422e-05  -1.200831e-04  0 
 -1.446862e-05  -1.193046e-04  0 
 1.712911e-05  -1.189355e-04  0 
 4.858403e-05  -1.191516e-04  0 
 8.058873e-05  -1.202550e-04  0 
 -7.885917e-05  -2.305349e-04  0 
 -2.558480e-05  -2.298176e-04  0 
 2.759112e-05  -2.298244e-04  0 
 8.104971e-05  -2.305002e-04  0 
 1.344822e-04  -2.313837e-04  0 
VECTORS displacement_ITER6 FLOAT
 -7.871881e-05  -1.212008e-04  0 
 -1.319502e-04  -2.313821e-04  0 
 -4.644270e-05  -1.200202e-04  0 
 -1.443399e-05  -1.192226e-04  0 
 1.723626e-05  -1.189784e-04  0 
 4.866654e-05  -1.194133e-04  0 
 8.042667e-05  -1.206415e-04  0 
 -7.889417e-05  -2.305994e-04  0 
 -2.555797e-05  -2.300424e-04  0 
 2.774582e-05  -2.299854e-04  0 
 8.110029e-05  -2.303955e-04  0 
 1.343547e-04  -2.311847e-04  0 
VECTORS displacement_ITER7 FLOAT
 -7.862764e-05  -1.210345e-04  0 
 -1.320878e-04  -2.313105e-04  0 
 -4.649516e-05  -1.198697e-04  0 
 -1.445472e-05  -1.190461e-04  0 
 1.725835e-05  -1.188325e-04  0 
 4.874474e-05  -1.193221e-04  0 
 8.037491e-05  -1.205400e-04  0 
 -7.880662e-05  -2.304061e-04  0 
 -2.553187e-05  -2.299737e-04  0 
 2.777533e-05  -2.299071e-04  0 
 8.104666e-05  -2.302015e-04  0 
 1.344089e-04  -2.310509e-04  0 
VECTORS displacement_ITER8 FLOAT
 -7.853059e-05  -1.209130e-04  0 
 -1.321614e-04  -2.312641e-04  0 
 -4.650261e-05  -1.197811e-04  0 
 -1.448371e-05  -1.189676e-04  0 
 1.722253e-05  -1.187394e-04  0 
 4.876009e-05  -1.191816e-04  0 
 8.041085e-05  -1.203308e-04  0 
 -7.872791e-05  -2.302672e-04  0 
 -2.551548e-05  -2.298617e-04  0 
 2.773799e-05  -2.298081e-04  0 
 8.098371e-05  -2.301161e-04  0 
 1.344835e-04  -2.310540e-04  0 
VECTORS displacement_ITER9 FLOAT
 -7.851785e-05  -1.208528e-04  0 
 -1.321724e-04  -2.312615e-04  0 
 -4.648488e-05  -1.197473e-04  0 
 -1.450030e-05  -1.189733e-04  0 
 1.718343e-05  -1.187455e-04  0 
 4.873668e-05  -1.191469e-04  0 
 8.044082e-05  -1.202482e-04  0 
 -7.870312e-05  -2.302406e-04  0 
 -2.550311e-05  -2.298137e-04  0 
 2.770116e-05  -2.297747e-04  0 
 8.095185e-05  -2.301346e-04  0 
 1.345110e-04  -2.311186e-04  0 
VECTORS displacement_ITER10 FLOAT
 -7.854437e-05  -1.207981e-04  0 
 -1.321568e-04  -2.312475e-04  0 
 -4.646098e-05  -1.197134e-04  0 
 -1.451876e-05  -1.189898e-04  0 
 1.714722e-05  -1.187822e-04  0 
 4.870246e-05  -1.191693e-04  0 
 8.045504e-05  -1.202437e-04  0 
 -7.870387e-05  -2.302417e-04  0 
 -2.548870e-05  -2.297907e-04  0 
 2.767118e-05  -2.297678e-04  0 
 8.093702e-05  -2.301810e-04  0 
 1.345086e-04  -2.311786e-04  0 
VECTORS displacement_ITER11 FLOAT
 -7.855469e-05  -1.207674e-04  0 
 -1.321405e-04  -2.311948e-04  0 
 -4.645478e-05  -1.196804e-04  0 
 -1.453647e-05  -1.189683e-04  0 
 1.713892e-05  -1.187802e-04  0 
 4.869297e-05  -1.191913e-04  0 
 8.045755e-05  -1.202760e-04  0 
 -7.871497e-05  -2.302263e-04  0 
 -2.548081e-05  -2.297808e-04  0 
 2.766872e-05  -2.297630e-04  0 
 8.094657e-05  -2.301804e-04  0 
 1.344807e-04  -2.311464e-04  0 
VECTORS displacement_ITER12 FLOAT
 -7.852652e-05  -1.207504e-04  0 
 -1.321436e-04  -2.311277e-04  0 
 -4.646413e-05  -1.196492e-04  0 
 -1.455338e-05  -1.189179e-04  0 
 1.714568e-05  -1.187367e-04  0 
 4.870559e-05  -1.191788e-04  0 
 8.046983e-05  -1.202847e-04  0 
 -7.871629e-05  -2.301905e-04  0 
 -2.547848e-05  -2.297670e-04  0 
 2.768218e-05  -2.297436e-04  0 
 8.096235e-05  -2.301328e-04  0 
 1.344492e-04  -2.310524e-04  0 
VECTORS displacement_ITER13 FLOAT
 -7.851331e-05  -1.207388e-04  0 
 -1.321581e-04  -2.311295e-04  0 
 -4.646970e-05  -1.196417e-04  0 
 -1.456031e-05  -1.189141e-04  0 
 1.713928e-05  -1.187366e-04  0 
 4.870822e-05  -1.191766e-04  0 
 8.047945e-05  -1.202789e-04  0 
 -7.870847e-05  -2.301894e-04  0 
 -2.547942e-05  -2.297666e-04  0 
 2.768498e-05  -2.297411e-04  0 
 8.095492e-05  -2.301298e-04  0 
 1.344500e-04  -2.310492e-04  0 
VECTORS displacement_ITER14 FLOAT
 -7.851395e-05  -1.207315e-04  0 
 -1.321636e-04  -2.311398e-04  0 
 -4.647363e-05  -1.196398e-04  0 
 -1.456613e-05  -1.189224e-04  0 
 1.713036e-05  -1.187511e-04  0 
 4.870576e-05  -1.191873e-04  0 
 8.047946e-05  -1.202864e-04  0 
 -7.870715e-05  -2.301956e-04  0 
 -2.548219e-05  -2.297714e-04  0 
 2.768379e-05  -2.297482e-04  0 
 8.094574e-05  -2.301433e-04  0 
 1.344568e-04  -2.310720e-04  0 
VECTORS displacement_ITER15 FLOAT
 -7.850947e-05  -1.207296e-04  0 
 -1.321614e-04  -2.311317e-04  0 
 -4.647647e-05  -1.196350e-04  0 
 -1.456922e-05  -1.189165e-04  0 
 1.713000e-05  -1.187458e-04  0 
 4.870587e-05  -1.191854e-04  0 
 8.048067e-05  -1.202908e-04  0 
 -7.871100e-05  -2.301897e-04  0 
 -2.548289e-05  -2.297681e-04  0 
 2.768444e-05  -2.297455e-04  0 
 8.094876e-05  -2.301367e-04  0 
 1.344547e-04  -2.310643e-04  0 
VECTORS displacement_ITER16 FLOAT
 -7.850956e-05  -1.207242e-04  0 
 -1.321623e-04  -2.311371e-04  0 
 -4.647590e-05  -1.196327e-04  0 
 -1.456751e-05  -1.189161e-04  0 
 1.712835e-05  -1.187463e-04  0 
 4.870393e-05  -1.191858e-04  0 
 8.048311e-05  -1.202918e-04  0 
 -7.871149e-05  -2.301909e-04  0 
 -2.548163e-05  -2.297667e-04  0 
 2.768471e-05  -2.297436e-04  0 
 8.094935e-05  -2.301356e-04  0 
 1.344550e-04  -2.310673e-04  0 
VECTORS displacement_ITER17 FLOAT
 -7.850892e-05  -1.207238e-04  0 
 -1.321609e-04  -2.311352e-04  0 
 -4.647670e-05  -1.196322e-04  0 
 -1.456802e-05  -1.189137e-04  0 
 1.712668e-05  -1.187444e-04  0 
 4.870361e-05  -1.191862e-04  0 
 8.048306e-05  -1.202928e-04  0 
 -7.871326e-05  -2.301884e-04  0 
 -2.548325e-05  -2.297655e-04  0 
 2.768538e-05  -2.297427e-04  0 
 8.094974e-05  -2.301340e-04  0 
 1.344549e-04  -2.310674e-04  0 
VECTORS displacement_ITER18 FLOAT
 -7.850870e-05  -1.207234e-04  0 
 -1.321616e-04  -2.311358e-04  0 
 -4.647659e-05  -1.196313e-04  0 
 -1.456807e-05  -1.189137e-04  0 
 1.712642e-05  -1.187443e-04  0 
 4.870346e-05  -1.191857e-04  0 
 8.048345e-05  -1.202929e-04  0 
 -7.871324e-05  -2.301890e-04  0 
 -2.548292e-05  -2.297649e-04  0 
 2.768523e-05  -2.297420e-04  0 
 8.094964e-05  -2.301341e-04  0 
 1.344549e-04  -2.310671e-04  0 
VECTORS displacement_ITER19 FLOAT
 -7.850862e-05  -1.207233e-04  0 
 -1.321616e-04  -2.311355e-04  0 
 -4.647659e-05  -1.196311e-04  0 
 -1.456840e-05  -1.189136e-04  0 
 1.712660e-05  -1.187442e-04  0 
 4.870344e-05  -1.191856e-04  0 
 8.048345e-05  -1.202930e-04  0 
 -7.871325e-05  -2.301891e-04  0 
 -2.548277e-05  -2.297647e-04  0 
 2.768501e-05  -2.297419e-04  0 
 8.094964e-05  -2.301342e-04  0 
 1.344550e-04  -2.310668e-04  0 
VECTORS displacement_ITER20 FLOAT
 -7.850863e-05  -1.207232e-04  0 
 -1.321616e-04  -2.311354e-04  0 
 -4.647661e-05  -1.196311e-04  0 
 -1.456856e-05  -1.189135e-04  0 
 1.712667e-05  -1.187443e-04  0 
 4.870345e-05  -1.191857e-04  0 
 8.048341e-05  -1.202929e-04  0 
 -7.871317e-05  -2.301890e-04  0 
 -2.548283e-05  -2.297648e-04  0 
 2.768495e-05  -2.297419e-04  0 
 8.094954e-05  -2.301342e-04  0 
 1.344551e-04  -2.310668e-04  0 
VECTORS displacement_ITER21 FLOAT
 -7.850864e-05  -1.207231e-04  0 
 -1.321616e-04  -2.311355e-04  0 
 -4.647659e-05  -1.196311e-04  0 
 -1.456852e-05  -1.189136e-04  0 
 1.712666e-05  -1.187443e-04  0 
 4.870348e-05  -1.191857e-04  0 
 8.048344e-05  -1.202928e-04  0 
 -7.871309e-05  -2.301891e-04  0 
 -2.548287e-05  -2.297648e-04  0 
 2.768500e-05  -2.297419e-04  0 
 8.094951e-05  -2.301342e-04  0 
 1.344551e-04  -2.310668e-04  0 
VECTORS displacement_ITER22 FLOAT
 -7.850863e-05  -1.207231e-04  0 
 -1.321616e-04  -2.311355e-04  0 
 -4.647660e-05  -1.196311e-04  0 
 -1.456854e-05  -1.189136e-04  0 
 1.712663e-05  -1.187443e-04  0 
 4.870350e-05  -1.191857e-04  0 
 8.048343e-05  -1.202928e-04  0 
 -7.871309e-05  -2.301891e-04  0 
 -2.548291e-05  -2.297648e-04  0 
 2.768498e-05  -2.297419e-04  0 
 8.094950e-05  -2.301342e-04  0 
 1.344551e-04  -2.310667e-04  0 
VECTORS displacement_ITER23 FLOAT
 -7.850864e-05  -1.207231e-04  0 
 -1.321615e-04  -2.311355e-04  0 
 -4.647659e-05  -1.196311e-04  0 
 -1.456855e-05  -1.189136e-04  0 
 1.712664e-05  -1.187443e-04  0 
 4.870350e-05  -1.191857e-04  0 
 8.048343e-05  -1.202928e-04  0 
 -7.871311e-05  -2.301891e-04  0 
 -2.548291e-05  -2.297648e-04  0 
 2.768496e-05  -2.297419e-04  0 
 8.094951e-05  -2.301342e-04  0 
 1.344551e-04  -2.310667e-04  0 
VECTORS displacement_ITER24 FLOAT
 -7.850864e-05  -1.207231e-04  0 
 -1.321615e-04  -2.311355e-04  0 
 -4.647659e-05  -1.196311e-04  0 
 -1.456854e-05  -1.189136e-04  0 
 1.712665e-05  -1.187443e-04  0 
 4.870349e-05  -1.191857e-04  0 
 8.048343e-05  -1.202928e-04  0 
 -7.871311e-05  -2.301891e-04  0 
 -2.548292e-05  -2.297648e-04  0 
 2.768496e-05  -2.297419e-04  0 
 8.094952e-05  -2.301341e-04  0 
 1.344551e-04  -2.310667e-04  0 
VECTORS displacement_ITER25 FLOAT
 -7.850864e-05  -1.207231e-04  0 
 -1.321615e-04  -2.311355e-04  0 
 -4.647659e-05  -1.196311e-04  0 
 -1.456854e-05  -1.189136e-04  0 
 1.712664e-05  -1.187443e-04  0 
 4.870350e-05  -1.191857e-04  0 
 8.048343e-05  -1.202928e-04  0 
 -7.871311e-05  -2.301891e-04  0 
 -2.548293e-05  -2.297648e-04  0 
 2.768495e-05  -2.297419e-04  0 
 8.094952e-05  -2.301341e-04  0 
 1.344551e-04  -2.310667e-04  0 
CELL_DATA 5
TENSORS element_stresses FLOAT
 -9.270395e-03  -5.591691e-04  0 
 -5.591691e-04  -2.271514e-03  0 
 0  0  0 

 -4.647751e-03  -6.587434e-04  0 
 -6.587434e-04  -1.108872e-03  0 
 0  0  0 

 -2.328513e-05  -7.454718e-04  0 
 -7.454718e-04  4.107565e-05  0 
 0  0  0 

 4.635062e-03  -7.571108e-04  0 
 -7.571108e-04  1.182100e-03  0 
 0  0  0 

 9.306369e-03  -6.545048e-04  0 
 -6.545048e-04  2.282006e-03  0 
 0  0  0 

TENSORS element_stresses FLOAT
 -9.270395e-03  -5.591691e-04  0 
 -5.591691e-04  -2.271514e-03  0 
 0  0  0 

 -4.647751e-03  -6.587434e-04  0 
 -6.587434e-04  -1.108872e-03  0 
 0  0  0 

 -2.328513e-05  -7.454718e-04  0 
 -7.454718e-04  4.107565e-05  0 
 0  0  0 

 4.635062e-03  -7.571108e-04  0 
 -7.571108e-04  1.182100e-03  0 
 0  0  0 

 9.306369e-03  -6.545048e-04  0 
 -6.545048e-04  2.282006e-03  0 
 0  0  0 

