# vtk DataFile Version 3.1
this is an vtk file created by FEMAC
ASCII
DATASET UNSTRUCTURED_GRID
POINTS 12 FLOAT
4.000000 0.000000 0.000000
4.500000 0.000000 0.000000
4.000000 0.200000 0.000000
4.000000 0.400000 0.000000
4.000000 0.600000 0.000000
4.000000 0.800000 0.000000
4.000000 1.000000 0.000000
4.500000 0.200000 0.000000
4.500000 0.400000 0.000000
4.500000 0.600000 0.000000
4.500000 0.800000 0.000000
4.500000 1.000000 0.000000
CELLS 5 25 
4 0 1 7 2
4 2 7 8 3
4 3 8 9 4
4 4  9 10  5
4 5 10 11  6
CELL_TYPES 5
9 9 9 9 9 
POINT_DATA 12
VECTORS displacement_ITER1 FLOAT
 -2.130339e-04  -1.131499e-03  0 
 -2.312262e-04  -1.355693e-03  0 
 -1.289680e-04  -1.130220e-03  0 
 -4.231562e-05  -1.128419e-03  0 
 4.509784e-05  -1.128419e-03  0 
 1.317502e-04  -1.130220e-03  0 
 2.158161e-04  -1.131499e-03  0 
 -1.382496e-04  -1.355337e-03  0 
 -4.535495e-05  -1.356101e-03  0 
 4.813717e-05  -1.356101e-03  0 
 1.410318e-04  -1.355337e-03  0 
 2.340084e-04  -1.355693e-03  0 
VECTORS displacement_ITER2 FLOAT
 -2.105656e-04  -1.119536e-03  0 
 -2.279075e-04  -1.342183e-03  0 
 -1.264419e-04  -1.119100e-03  0 
 -4.135674e-05  -1.118344e-03  0 
 4.371110e-05  -1.118344e-03  0 
 1.287963e-04  -1.119100e-03  0 
 2.129200e-04  -1.119536e-03  0 
 -1.360880e-04  -1.341666e-03  0 
 -4.459441e-05  -1.341583e-03  0 
 4.694878e-05  -1.341583e-03  0 
 1.384424e-04  -1.341666e-03  0 
 2.302619e-04  -1.342183e-03  0 
VECTORS displacement_ITER3 FLOAT
 -2.096021e-04  -1.116147e-03  0 
 -2.265709e-04  -1.338320e-03  0 
 -1.253519e-04  -1.116050e-03  0 
 -4.088390e-05  -1.115786e-03  0 
 4.326430e-05  -1.115786e-03  0 
 1.277323e-04  -1.116050e-03  0 
 2.119825e-04  -1.116147e-03  0 
 -1.351637e-04  -1.337740e-03  0 
 -4.419207e-05  -1.337295e-03  0 
 4.657247e-05  -1.337295e-03  0 
 1.375441e-04  -1.337740e-03  0 
 2.289513e-04  -1.338320e-03  0 
VECTORS displacement_ITER4 FLOAT
 -2.093444e-04  -1.115430e-03  0 
 -2.261338e-04  -1.337180e-03  0 
 -1.251110e-04  -1.115311e-03  0 
 -4.078858e-05  -1.115123e-03  0 
 4.325659e-05  -1.115193e-03  0 
 1.274814e-04  -1.115491e-03  0 
 2.115285e-04  -1.115649e-03  0 
 -1.349846e-04  -1.336723e-03  0 
 -4.409848e-05  -1.336347e-03  0 
 4.656024e-05  -1.336301e-03  0 
 1.373565e-04  -1.336605e-03  0 
 2.283883e-04  -1.337041e-03  0 
VECTORS displacement_ITER5 FLOAT
 -2.087974e-04  -1.115670e-03  0 
 -2.255960e-04  -1.336072e-03  0 
 -1.250748e-04  -1.115360e-03  0 
 -4.107709e-05  -1.114901e-03  0 
 4.300508e-05  -1.114691e-03  0 
 1.273191e-04  -1.114813e-03  0 
 2.116194e-04  -1.114995e-03  0 
 -1.349921e-04  -1.335822e-03  0 
 -4.436586e-05  -1.335786e-03  0 
 4.630390e-05  -1.335952e-03  0 
 1.372393e-04  -1.336254e-03  0 
 2.282773e-04  -1.336594e-03  0 
VECTORS displacement_ITER6 FLOAT
 -2.092658e-04  -1.115007e-03  0 
 -2.259599e-04  -1.336465e-03  0 
 -1.250114e-04  -1.114783e-03  0 
 -4.075148e-05  -1.114651e-03  0 
 4.333697e-05  -1.114823e-03  0 
 1.273080e-04  -1.115237e-03  0 
 2.110826e-04  -1.115575e-03  0 
 -1.349530e-04  -1.336143e-03  0 
 -4.404036e-05  -1.335871e-03  0 
 4.662917e-05  -1.335699e-03  0 
 1.372445e-04  -1.335690e-03  0 
 2.277817e-04  -1.335898e-03  0 
VECTORS displacement_ITER7 FLOAT
 -2.090012e-04  -1.115342e-03  0 
 -2.256022e-04  -1.335999e-03  0 
 -1.249888e-04  -1.115023e-03  0 
 -4.097866e-05  -1.114769e-03  0 
 4.308769e-05  -1.114717e-03  0 
 1.272276e-04  -1.114882e-03  0 
 2.113783e-04  -1.115161e-03  0 
 -1.349558e-04  -1.335766e-03  0 
 -4.427524e-05  -1.335705e-03  0 
 4.637803e-05  -1.335800e-03  0 
 1.371883e-04  -1.336016e-03  0 
 2.281140e-04  -1.336326e-03  0 
VECTORS displacement_ITER8 FLOAT
 -2.090099e-04  -1.115317e-03  0 
 -2.256679e-04  -1.336073e-03  0 
 -1.249579e-04  -1.114982e-03  0 
 -4.094719e-05  -1.114764e-03  0 
 4.310483e-05  -1.114715e-03  0 
 1.272034e-04  -1.114848e-03  0 
 2.114045e-04  -1.115140e-03  0 
 -1.349346e-04  -1.335813e-03  0 
 -4.424719e-05  -1.335714e-03  0 
 4.640424e-05  -1.335764e-03  0 
 1.371831e-04  -1.335947e-03  0 
 2.280566e-04  -1.336249e-03  0 
VECTORS displacement_ITER9 FLOAT
 -2.091021e-04  -1.115189e-03  0 
 -2.257757e-04  -1.336181e-03  0 
 -1.249488e-04  -1.114866e-03  0 
 -4.087661e-05  -1.114699e-03  0 
 4.317668e-05  -1.114717e-03  0 
 1.272089e-04  -1.114911e-03  0 
 2.113240e-04  -1.115247e-03  0 
 -1.349279e-04  -1.335889e-03  0 
 -4.418334e-05  -1.335741e-03  0 
 4.648432e-05  -1.335714e-03  0 
 1.371936e-04  -1.335820e-03  0 
 2.279584e-04  -1.336088e-03  0 
VECTORS displacement_ITER10 FLOAT
 -2.091298e-04  -1.115152e-03  0 
 -2.257920e-04  -1.336141e-03  0 
 -1.249600e-04  -1.114816e-03  0 
 -4.087712e-05  -1.114639e-03  0 
 4.317973e-05  -1.114666e-03  0 
 1.272116e-04  -1.114892e-03  0 
 2.113046e-04  -1.115254e-03  0 
 -1.349408e-04  -1.335852e-03  0 
 -4.419496e-05  -1.335723e-03  0 
 4.649907e-05  -1.335695e-03  0 
 1.371941e-04  -1.335775e-03  0 
 2.279586e-04  -1.336036e-03  0 
VECTORS displacement_ITER11 FLOAT
 -2.090968e-04  -1.115195e-03  0 
 -2.257573e-04  -1.336051e-03  0 
 -1.249721e-04  -1.114836e-03  0 
 -4.091532e-05  -1.114618e-03  0 
 4.313399e-05  -1.114610e-03  0 
 1.272076e-04  -1.114820e-03  0 
 2.113513e-04  -1.115174e-03  0 
 -1.349519e-04  -1.335779e-03  0 
 -4.424193e-05  -1.335688e-03  0 
 4.646381e-05  -1.335698e-03  0 
 1.371852e-04  -1.335802e-03  0 
 2.280171e-04  -1.336082e-03  0 
VECTORS displacement_ITER12 FLOAT
 -2.091043e-04  -1.115175e-03  0 
 -2.257712e-04  -1.336058e-03  0 
 -1.249692e-04  -1.114821e-03  0 
 -4.090386e-05  -1.114604e-03  0 
 4.312739e-05  -1.114598e-03  0 
 1.272086e-04  -1.114806e-03  0 
 2.113622e-04  -1.115152e-03  0 
 -1.349450e-04  -1.335780e-03  0 
 -4.423630e-05  -1.335680e-03  0 
 4.646340e-05  -1.335687e-03  0 
 1.371818e-04  -1.335797e-03  0 
 2.280295e-04  -1.336084e-03  0 
VECTORS displacement_ITER13 FLOAT
 -2.091221e-04  -1.115148e-03  0 
 -2.257876e-04  -1.336076e-03  0 
 -1.249697e-04  -1.114804e-03  0 
 -4.088807e-05  -1.114593e-03  0 
 4.313849e-05  -1.114601e-03  0 
 1.272117e-04  -1.114823e-03  0 
 2.113455e-04  -1.115172e-03  0 
 -1.349426e-04  -1.335794e-03  0 
 -4.422076e-05  -1.335685e-03  0 
 4.647258e-05  -1.335679e-03  0 
 1.371837e-04  -1.335781e-03  0 
 2.280154e-04  -1.336059e-03  0 
VECTORS displacement_ITER14 FLOAT
 -2.091124e-04  -1.115163e-03  0 
 -2.257816e-04  -1.336061e-03  0 
 -1.249758e-04  -1.114818e-03  0 
 -4.089825e-05  -1.114594e-03  0 
 4.313006e-05  -1.114593e-03  0 
 1.272095e-04  -1.114814e-03  0 
 2.113524e-04  -1.115159e-03  0 
 -1.349476e-04  -1.335784e-03  0 
 -4.422835e-05  -1.335682e-03  0 
 4.646009e-05  -1.335683e-03  0 
 1.371825e-04  -1.335786e-03  0 
 2.280174e-04  -1.336063e-03  0 
VECTORS displacement_ITER15 FLOAT
 -2.091154e-04  -1.115161e-03  0 
 -2.257828e-04  -1.336065e-03  0 
 -1.249747e-04  -1.114818e-03  0 
 -4.089845e-05  -1.114595e-03  0 
 4.313399e-05  -1.114595e-03  0 
 1.272095e-04  -1.114819e-03  0 
 2.113489e-04  -1.115163e-03  0 
 -1.349478e-04  -1.335788e-03  0 
 -4.422386e-05  -1.335684e-03  0 
 4.645921e-05  -1.335684e-03  0 
 1.371827e-04  -1.335786e-03  0 
 2.280169e-04  -1.336063e-03  0 
VECTORS displacement_ITER16 FLOAT
 -2.091127e-04  -1.115163e-03  0 
 -2.257818e-04  -1.336063e-03  0 
 -1.249753e-04  -1.114819e-03  0 
 -4.090140e-05  -1.114595e-03  0 
 4.313661e-05  -1.114595e-03  0 
 1.272106e-04  -1.114819e-03  0 
 2.113475e-04  -1.115163e-03  0 
 -1.349480e-04  -1.335786e-03  0 
 -4.422342e-05  -1.335683e-03  0 
 4.645837e-05  -1.335684e-03  0 
 1.371830e-04  -1.335786e-03  0 
 2.280181e-04  -1.336064e-03  0 
VECTORS displacement_ITER17 FLOAT
 -2.091139e-04  -1.115161e-03  0 
 -2.257830e-04  -1.336066e-03  0 
 -1.249744e-04  -1.114818e-03  0 
 -4.090032e-05  -1.114596e-03  0 
 4.313538e-05  -1.114596e-03  0 
 1.272091e-04  -1.114817e-03  0 
 2.113488e-04  -1.115160e-03  0 
 -1.349474e-04  -1.335788e-03  0 
 -4.422370e-05  -1.335682e-03  0 
 4.645848e-05  -1.335682e-03  0 
 1.371822e-04  -1.335787e-03  0 
 2.280176e-04  -1.336066e-03  0 
VECTORS displacement_ITER18 FLOAT
 -2.091137e-04  -1.115163e-03  0 
 -2.257820e-04  -1.336065e-03  0 
 -1.249751e-04  -1.114819e-03  0 
 -4.090002e-05  -1.114596e-03  0 
 4.313483e-05  -1.114596e-03  0 
 1.272099e-04  -1.114818e-03  0 
 2.113485e-04  -1.115163e-03  0 
 -1.349481e-04  -1.335787e-03  0 
 -4.422507e-05  -1.335683e-03  0 
 4.645978e-05  -1.335683e-03  0 
 1.371829e-04  -1.335787e-03  0 
 2.280168e-04  -1.336065e-03  0 
VECTORS displacement_ITER19 FLOAT
 -2.091139e-04  -1.115162e-03  0 
 -2.257823e-04  -1.336065e-03  0 
 -1.249750e-04  -1.114818e-03  0 
 -4.089983e-05  -1.114597e-03  0 
 4.313452e-05  -1.114597e-03  0 
 1.272098e-04  -1.114818e-03  0 
 2.113486e-04  -1.115162e-03  0 
 -1.349478e-04  -1.335787e-03  0 
 -4.422494e-05  -1.335683e-03  0 
 4.645967e-05  -1.335683e-03  0 
 1.371826e-04  -1.335787e-03  0 
 2.280171e-04  -1.336065e-03  0 
VECTORS displacement_ITER20 FLOAT
 -2.091139e-04  -1.115162e-03  0 
 -2.257822e-04  -1.336065e-03  0 
 -1.249750e-04  -1.114818e-03  0 
 -4.090006e-05  -1.114597e-03  0 
 4.313468e-05  -1.114597e-03  0 
 1.272097e-04  -1.114818e-03  0 
 2.113487e-04  -1.115162e-03  0 
 -1.349480e-04  -1.335788e-03  0 
 -4.422489e-05  -1.335683e-03  0 
 4.645963e-05  -1.335683e-03  0 
 1.371827e-04  -1.335788e-03  0 
 2.280169e-04  -1.336065e-03  0 
VECTORS displacement_ITER21 FLOAT
 -2.091138e-04  -1.115162e-03  0 
 -2.257822e-04  -1.336065e-03  0 
 -1.249751e-04  -1.114818e-03  0 
 -4.090018e-05  -1.114597e-03  0 
 4.313476e-05  -1.114597e-03  0 
 1.272098e-04  -1.114818e-03  0 
 2.113487e-04  -1.115162e-03  0 
 -1.349480e-04  -1.335787e-03  0 
 -4.422488e-05  -1.335683e-03  0 
 4.645963e-05  -1.335683e-03  0 
 1.371827e-04  -1.335788e-03  0 
 2.280170e-04  -1.336065e-03  0 
VECTORS displacement_ITER22 FLOAT
 -2.091138e-04  -1.115162e-03  0 
 -2.257823e-04  -1.336065e-03  0 
 -1.249751e-04  -1.114818e-03  0 
 -4.090016e-05  -1.114597e-03  0 
 4.313472e-05  -1.114597e-03  0 
 1.272098e-04  -1.114818e-03  0 
 2.113487e-04  -1.115162e-03  0 
 -1.349480e-04  -1.335788e-03  0 
 -4.422490e-05  -1.335683e-03  0 
 4.645963e-05  -1.335683e-03  0 
 1.371827e-04  -1.335788e-03  0 
 2.280170e-04  -1.336065e-03  0 
VECTORS displacement_ITER23 FLOAT
 -2.091138e-04  -1.115162e-03  0 
 -2.257823e-04  -1.336065e-03  0 
 -1.249751e-04  -1.114818e-03  0 
 -4.090016e-05  -1.114597e-03  0 
 4.313471e-05  -1.114597e-03  0 
 1.272098e-04  -1.114818e-03  0 
 2.113487e-04  -1.115162e-03  0 
 -1.349480e-04  -1.335787e-03  0 
 -4.422490e-05  -1.335683e-03  0 
 4.645963e-05  -1.335683e-03  0 
 1.371827e-04  -1.335787e-03  0 
 2.280170e-04  -1.336065e-03  0 
VECTORS displacement_ITER24 FLOAT
 -2.091138e-04  -1.115162e-03  0 
 -2.257823e-04  -1.336065e-03  0 
 -1.249751e-04  -1.114818e-03  0 
 -4.090016e-05  -1.114597e-03  0 
 4.313471e-05  -1.114597e-03  0 
 1.272098e-04  -1.114818e-03  0 
 2.113487e-04  -1.115162e-03  0 
 -1.349480e-04  -1.335787e-03  0 
 -4.422489e-05  -1.335683e-03  0 
 4.645962e-05  -1.335683e-03  0 
 1.371827e-04  -1.335788e-03  0 
 2.280170e-04  -1.336065e-03  0 
VECTORS displacement_ITER25 FLOAT
 -2.091138e-04  -1.115162e-03  0 
 -2.257823e-04  -1.336065e-03  0 
 -1.249751e-04  -1.114818e-03  0 
 -4.090016e-05  -1.114597e-03  0 
 4.313471e-05  -1.114597e-03  0 
 1.272098e-04  -1.114818e-03  0 
 2.113487e-04  -1.115162e-03  0 
 -1.349480e-04  -1.335787e-03  0 
 -4.422489e-05  -1.335683e-03  0 
 4.645962e-05  -1.335683e-03  0 
 1.371827e-04  -1.335788e-03  0 
 2.280170e-04  -1.336065e-03  0 
CELL_DATA 5
TENSORS element_stresses FLOAT
 -2.876417e-03  -3.415526e-04  0 
 -3.415526e-04  -7.075784e-04  0 
 0  0  0 

 -1.434419e-03  -3.892894e-04  0 
 -3.892894e-04  -3.488427e-04  0 
 0  0  0 

 1.348844e-08  -4.134167e-04  0 
 -4.134167e-04  -1.781159e-08  0 
 0  0  0 

 1.434429e-03  -3.892447e-04  0 
 -3.892447e-04  3.488115e-04  0 
 0  0  0 

 2.876393e-03  -3.414966e-04  0 
 -3.414966e-04  7.075636e-04  0 
 0  0  0 

TENSORS element_stresses FLOAT
 -2.876417e-03  -3.415526e-04  0 
 -3.415526e-04  -7.075784e-04  0 
 0  0  0 

 -1.434419e-03  -3.892894e-04  0 
 -3.892894e-04  -3.488427e-04  0 
 0  0  0 

 1.348844e-08  -4.134167e-04  0 
 -4.134167e-04  -1.781159e-08  0 
 0  0  0 

 1.434429e-03  -3.892447e-04  0 
 -3.892447e-04  3.488115e-04  0 
 0  0  0 

 2.876393e-03  -3.414966e-04  0 
 -3.414966e-04  7.075636e-04  0 
 0  0  0 

