# vtk DataFile Version 3.1
this is an vtk file created by FEMAC
ASCII
DATASET UNSTRUCTURED_GRID
POINTS 12 FLOAT
5.000000 0.000000 0.000000
5.500000 0.000000 0.000000
5.000000 0.200000 0.000000
5.000000 0.400000 0.000000
5.000000 0.600000 0.000000
5.000000 0.800000 0.000000
5.000000 1.000000 0.000000
5.500000 0.200000 0.000000
5.500000 0.400000 0.000000
5.500000 0.600000 0.000000
5.500000 0.800000 0.000000
5.500000 1.000000 0.000000
CELLS 5 25 
4 0 1 7 2
4 2 7 8 3
4 3 8 9 4
4 4  9 10  5
4 5 10 11  6
CELL_TYPES 5
9 9 9 9 9 
POINT_DATA 12
VECTORS displacement_ITER1 FLOAT
 -2.321155e-04  -1.590273e-03  0 
 -2.420065e-04  -1.829219e-03  0 
 -1.398593e-04  -1.589502e-03  0 
 -4.587347e-05  -1.588278e-03  0 
 4.865568e-05  -1.588278e-03  0 
 1.426415e-04  -1.589502e-03  0 
 2.348977e-04  -1.590273e-03  0 
 -1.448022e-04  -1.829125e-03  0 
 -4.749098e-05  -1.829782e-03  0 
 5.027320e-05  -1.829782e-03  0 
 1.475844e-04  -1.829125e-03  0 
 2.447887e-04  -1.829219e-03  0 
VECTORS displacement_ITER2 FLOAT
 -2.290527e-04  -1.572073e-03  0 
 -2.384353e-04  -1.808632e-03  0 
 -1.373268e-04  -1.571855e-03  0 
 -4.498158e-05  -1.571369e-03  0 
 4.733595e-05  -1.571369e-03  0 
 1.396811e-04  -1.571855e-03  0 
 2.314070e-04  -1.572073e-03  0 
 -1.425087e-04  -1.808354e-03  0 
 -4.673522e-05  -1.808362e-03  0 
 4.908958e-05  -1.808362e-03  0 
 1.448631e-04  -1.808354e-03  0 
 2.407897e-04  -1.808632e-03  0 
VECTORS displacement_ITER3 FLOAT
 -2.278277e-04  -1.566389e-03  0 
 -2.369868e-04  -1.802111e-03  0 
 -1.362361e-04  -1.566392e-03  0 
 -4.453541e-05  -1.566253e-03  0 
 4.691581e-05  -1.566253e-03  0 
 1.386165e-04  -1.566392e-03  0 
 2.302081e-04  -1.566389e-03  0 
 -1.415273e-04  -1.801759e-03  0 
 -4.633664e-05  -1.801488e-03  0 
 4.871704e-05  -1.801488e-03  0 
 1.439077e-04  -1.801759e-03  0 
 2.393672e-04  -1.802111e-03  0 
VECTORS displacement_ITER4 FLOAT
 -2.273956e-04  -1.564884e-03  0 
 -2.364781e-04  -1.799998e-03  0 
 -1.359709e-04  -1.564846e-03  0 
 -4.447648e-05  -1.564713e-03  0 
 4.683919e-05  -1.564713e-03  0 
 1.383337e-04  -1.564846e-03  0 
 2.297583e-04  -1.564884e-03  0 
 -1.412968e-04  -1.799735e-03  0 
 -4.627048e-05  -1.799530e-03  0 
 4.863320e-05  -1.799530e-03  0 
 1.436595e-04  -1.799735e-03  0 
 2.388408e-04  -1.799998e-03  0 
VECTORS displacement_ITER5 FLOAT
 -2.271277e-04  -1.564115e-03  0 
 -2.361746e-04  -1.798651e-03  0 
 -1.358856e-04  -1.563985e-03  0 
 -4.453208e-05  -1.563791e-03  0 
 4.677737e-05  -1.563767e-03  0 
 1.381643e-04  -1.563924e-03  0 
 2.294703e-04  -1.564040e-03  0 
 -1.412343e-04  -1.798495e-03  0 
 -4.630913e-05  -1.798421e-03  0 
 4.855658e-05  -1.798436e-03  0 
 1.435125e-04  -1.798536e-03  0 
 2.384930e-04  -1.798698e-03  0 
VECTORS displacement_ITER6 FLOAT
 -2.272196e-04  -1.563793e-03  0 
 -2.362089e-04  -1.798501e-03  0 
 -1.358516e-04  -1.563667e-03  0 
 -4.446310e-05  -1.563562e-03  0 
 4.684375e-05  -1.563639e-03  0 
 1.381179e-04  -1.563867e-03  0 
 2.292749e-04  -1.564040e-03  0 
 -1.412128e-04  -1.798348e-03  0 
 -4.623879e-05  -1.798238e-03  0 
 4.861522e-05  -1.798179e-03  0 
 1.434784e-04  -1.798195e-03  0 
 2.383208e-04  -1.798317e-03  0 
VECTORS displacement_ITER7 FLOAT
 -2.269223e-04  -1.564108e-03  0 
 -2.359468e-04  -1.798132e-03  0 
 -1.358289e-04  -1.563897e-03  0 
 -4.465425e-05  -1.563650e-03  0 
 4.663341e-05  -1.563498e-03  0 
 1.380518e-04  -1.563498e-03  0 
 2.295672e-04  -1.563612e-03  0 
 -1.412050e-04  -1.798032e-03  0 
 -4.642727e-05  -1.798073e-03  0 
 4.840829e-05  -1.798210e-03  0 
 1.434314e-04  -1.798393e-03  0 
 2.385425e-04  -1.798577e-03  0 
VECTORS displacement_ITER8 FLOAT
 -2.271832e-04  -1.563761e-03  0 
 -2.361995e-04  -1.798463e-03  0 
 -1.357802e-04  -1.563607e-03  0 
 -4.445095e-05  -1.563548e-03  0 
 4.682624e-05  -1.563597e-03  0 
 1.380574e-04  -1.563738e-03  0 
 2.293250e-04  -1.563928e-03  0 
 -1.411675e-04  -1.798291e-03  0 
 -4.622659e-05  -1.798162e-03  0 
 4.860541e-05  -1.798097e-03  0 
 1.434456e-04  -1.798118e-03  0 
 2.382913e-04  -1.798241e-03  0 
VECTORS displacement_ITER9 FLOAT
 -2.271567e-04  -1.563806e-03  0 
 -2.361256e-04  -1.798341e-03  0 
 -1.357881e-04  -1.563630e-03  0 
 -4.450008e-05  -1.563540e-03  0 
 4.677941e-05  -1.563557e-03  0 
 1.380500e-04  -1.563675e-03  0 
 2.293651e-04  -1.563865e-03  0 
 -1.411799e-04  -1.798194e-03  0 
 -4.628311e-05  -1.798125e-03  0 
 4.856105e-05  -1.798121e-03  0 
 1.434383e-04  -1.798182e-03  0 
 2.383774e-04  -1.798328e-03  0 
VECTORS displacement_ITER10 FLOAT
 -2.271113e-04  -1.563877e-03  0 
 -2.360922e-04  -1.798241e-03  0 
 -1.358105e-04  -1.563668e-03  0 
 -4.455544e-05  -1.563523e-03  0 
 4.672863e-05  -1.563493e-03  0 
 1.380439e-04  -1.563587e-03  0 
 2.294289e-04  -1.563770e-03  0 
 -1.412011e-04  -1.798114e-03  0 
 -4.634656e-05  -1.798096e-03  0 
 4.851855e-05  -1.798133e-03  0 
 1.434330e-04  -1.798214e-03  0 
 2.384334e-04  -1.798372e-03  0 
VECTORS displacement_ITER11 FLOAT
 -2.271597e-04  -1.563821e-03  0 
 -2.361642e-04  -1.798310e-03  0 
 -1.358152e-04  -1.563619e-03  0 
 -4.452081e-05  -1.563490e-03  0 
 4.675884e-05  -1.563488e-03  0 
 1.380497e-04  -1.563615e-03  0 
 2.294023e-04  -1.563814e-03  0 
 -1.412025e-04  -1.798166e-03  0 
 -4.631921e-05  -1.798119e-03  0 
 4.855678e-05  -1.798114e-03  0 
 1.434396e-04  -1.798155e-03  0 
 2.383872e-04  -1.798297e-03  0 
VECTORS displacement_ITER12 FLOAT
 -2.271839e-04  -1.563800e-03  0 
 -2.361808e-04  -1.798343e-03  0 
 -1.358112e-04  -1.563608e-03  0 
 -4.450175e-05  -1.563488e-03  0 
 4.676543e-05  -1.563498e-03  0 
 1.380550e-04  -1.563635e-03  0 
 2.293988e-04  -1.563837e-03  0 
 -1.411975e-04  -1.798190e-03  0 
 -4.630573e-05  -1.798133e-03  0 
 4.856835e-05  -1.798123e-03  0 
 1.434423e-04  -1.798163e-03  0 
 2.383945e-04  -1.798305e-03  0 
VECTORS displacement_ITER13 FLOAT
 -2.271615e-04  -1.563830e-03  0 
 -2.361600e-04  -1.798308e-03  0 
 -1.358165e-04  -1.563632e-03  0 
 -4.452027e-05  -1.563493e-03  0 
 4.674485e-05  -1.563485e-03  0 
 1.380542e-04  -1.563611e-03  0 
 2.294201e-04  -1.563804e-03  0 
 -1.412013e-04  -1.798166e-03  0 
 -4.632269e-05  -1.798124e-03  0 
 4.854732e-05  -1.798131e-03  0 
 1.434387e-04  -1.798185e-03  0 
 2.384181e-04  -1.798333e-03  0 
VECTORS displacement_ITER14 FLOAT
 -2.271734e-04  -1.563811e-03  0 
 -2.361715e-04  -1.798314e-03  0 
 -1.358195e-04  -1.563617e-03  0 
 -4.451494e-05  -1.563483e-03  0 
 4.675206e-05  -1.563484e-03  0 
 1.380551e-04  -1.563621e-03  0 
 2.294032e-04  -1.563817e-03  0 
 -1.412033e-04  -1.798171e-03  0 
 -4.631414e-05  -1.798123e-03  0 
 4.855154e-05  -1.798122e-03  0 
 1.434379e-04  -1.798168e-03  0 
 2.384045e-04  -1.798311e-03  0 
VECTORS displacement_ITER15 FLOAT
 -2.271710e-04  -1.563815e-03  0 
 -2.361707e-04  -1.798317e-03  0 
 -1.358188e-04  -1.563622e-03  0 
 -4.451689e-05  -1.563488e-03  0 
 4.675087e-05  -1.563487e-03  0 
 1.380531e-04  -1.563621e-03  0 
 2.294071e-04  -1.563813e-03  0 
 -1.412027e-04  -1.798173e-03  0 
 -4.631362e-05  -1.798124e-03  0 
 4.854739e-05  -1.798124e-03  0 
 1.434375e-04  -1.798174e-03  0 
 2.384058e-04  -1.798318e-03  0 
VECTORS displacement_ITER16 FLOAT
 -2.271710e-04  -1.563814e-03  0 
 -2.361701e-04  -1.798316e-03  0 
 -1.358185e-04  -1.563621e-03  0 
 -4.451744e-05  -1.563486e-03  0 
 4.675307e-05  -1.563486e-03  0 
 1.380536e-04  -1.563622e-03  0 
 2.294066e-04  -1.563814e-03  0 
 -1.412034e-04  -1.798172e-03  0 
 -4.631296e-05  -1.798124e-03  0 
 4.854848e-05  -1.798124e-03  0 
 1.434390e-04  -1.798171e-03  0 
 2.384045e-04  -1.798315e-03  0 
VECTORS displacement_ITER17 FLOAT
 -2.271715e-04  -1.563814e-03  0 
 -2.361700e-04  -1.798317e-03  0 
 -1.358185e-04  -1.563622e-03  0 
 -4.451802e-05  -1.563487e-03  0 
 4.675267e-05  -1.563487e-03  0 
 1.380533e-04  -1.563622e-03  0 
 2.294062e-04  -1.563815e-03  0 
 -1.412037e-04  -1.798172e-03  0 
 -4.631357e-05  -1.798124e-03  0 
 4.854840e-05  -1.798125e-03  0 
 1.434384e-04  -1.798173e-03  0 
 2.384050e-04  -1.798317e-03  0 
VECTORS displacement_ITER18 FLOAT
 -2.271710e-04  -1.563814e-03  0 
 -2.361703e-04  -1.798316e-03  0 
 -1.358189e-04  -1.563622e-03  0 
 -4.451801e-05  -1.563487e-03  0 
 4.675269e-05  -1.563487e-03  0 
 1.380537e-04  -1.563622e-03  0 
 2.294058e-04  -1.563815e-03  0 
 -1.412035e-04  -1.798172e-03  0 
 -4.631384e-05  -1.798124e-03  0 
 4.854866e-05  -1.798124e-03  0 
 1.434382e-04  -1.798172e-03  0 
 2.384050e-04  -1.798316e-03  0 
VECTORS displacement_ITER19 FLOAT
 -2.271712e-04  -1.563814e-03  0 
 -2.361703e-04  -1.798317e-03  0 
 -1.358188e-04  -1.563622e-03  0 
 -4.451762e-05  -1.563487e-03  0 
 4.675230e-05  -1.563488e-03  0 
 1.380535e-04  -1.563622e-03  0 
 2.294060e-04  -1.563814e-03  0 
 -1.412034e-04  -1.798173e-03  0 
 -4.631397e-05  -1.798124e-03  0 
 4.854870e-05  -1.798124e-03  0 
 1.434381e-04  -1.798173e-03  0 
 2.384050e-04  -1.798317e-03  0 
VECTORS displacement_ITER20 FLOAT
 -2.271711e-04  -1.563815e-03  0 
 -2.361700e-04  -1.798317e-03  0 
 -1.358189e-04  -1.563622e-03  0 
 -4.451766e-05  -1.563487e-03  0 
 4.675234e-05  -1.563487e-03  0 
 1.380536e-04  -1.563622e-03  0 
 2.294058e-04  -1.563815e-03  0 
 -1.412035e-04  -1.798173e-03  0 
 -4.631417e-05  -1.798124e-03  0 
 4.854886e-05  -1.798124e-03  0 
 1.434383e-04  -1.798173e-03  0 
 2.384047e-04  -1.798317e-03  0 
VECTORS displacement_ITER21 FLOAT
 -2.271712e-04  -1.563814e-03  0 
 -2.361701e-04  -1.798317e-03  0 
 -1.358188e-04  -1.563622e-03  0 
 -4.451763e-05  -1.563488e-03  0 
 4.675237e-05  -1.563488e-03  0 
 1.380536e-04  -1.563622e-03  0 
 2.294060e-04  -1.563814e-03  0 
 -1.412035e-04  -1.798173e-03  0 
 -4.631406e-05  -1.798124e-03  0 
 4.854879e-05  -1.798124e-03  0 
 1.434382e-04  -1.798173e-03  0 
 2.384048e-04  -1.798317e-03  0 
VECTORS displacement_ITER22 FLOAT
 -2.271712e-04  -1.563815e-03  0 
 -2.361701e-04  -1.798317e-03  0 
 -1.358188e-04  -1.563622e-03  0 
 -4.451769e-05  -1.563488e-03  0 
 4.675242e-05  -1.563488e-03  0 
 1.380536e-04  -1.563622e-03  0 
 2.294060e-04  -1.563815e-03  0 
 -1.412035e-04  -1.798173e-03  0 
 -4.631406e-05  -1.798124e-03  0 
 4.854877e-05  -1.798124e-03  0 
 1.434383e-04  -1.798173e-03  0 
 2.384048e-04  -1.798317e-03  0 
VECTORS displacement_ITER23 FLOAT
 -2.271712e-04  -1.563815e-03  0 
 -2.361701e-04  -1.798317e-03  0 
 -1.358189e-04  -1.563622e-03  0 
 -4.451770e-05  -1.563487e-03  0 
 4.675242e-05  -1.563487e-03  0 
 1.380536e-04  -1.563622e-03  0 
 2.294059e-04  -1.563814e-03  0 
 -1.412035e-04  -1.798173e-03  0 
 -4.631405e-05  -1.798124e-03  0 
 4.854876e-05  -1.798124e-03  0 
 1.434382e-04  -1.798173e-03  0 
 2.384048e-04  -1.798317e-03  0 
VECTORS displacement_ITER24 FLOAT
 -2.271712e-04  -1.563815e-03  0 
 -2.361701e-04  -1.798317e-03  0 
 -1.358189e-04  -1.563622e-03  0 
 -4.451768e-05  -1.563487e-03  0 
 4.675241e-05  -1.563487e-03  0 
 1.380536e-04  -1.563622e-03  0 
 2.294059e-04  -1.563814e-03  0 
 -1.412035e-04  -1.798173e-03  0 
 -4.631405e-05  -1.798124e-03  0 
 4.854877e-05  -1.798124e-03  0 
 1.434382e-04  -1.798173e-03  0 
 2.384048e-04  -1.798317e-03  0 
VECTORS displacement_ITER25 FLOAT
 -2.271712e-04  -1.563815e-03  0 
 -2.361701e-04  -1.798317e-03  0 
 -1.358189e-04  -1.563622e-03  0 
 -4.451768e-05  -1.563487e-03  0 
 4.675241e-05  -1.563487e-03  0 
 1.380536e-04  -1.563622e-03  0 
 2.294059e-04  -1.563814e-03  0 
 -1.412035e-04  -1.798173e-03  0 
 -4.631405e-05  -1.798124e-03  0 
 4.854877e-05  -1.798124e-03  0 
 1.434382e-04  -1.798173e-03  0 
 2.384048e-04  -1.798317e-03  0 
CELL_DATA 5
TENSORS element_stresses FLOAT
 -1.552834e-03  -2.504492e-04  0 
 -2.504492e-04  -3.815989e-04  0 
 0  0  0 

 -7.740742e-04  -2.854604e-04  0 
 -2.854604e-04  -1.865692e-04  0 
 0  0  0 

 -1.213442e-09  -3.031723e-04  0 
 -3.031723e-04  1.620771e-09  0 
 0  0  0 

 7.740733e-04  -2.854645e-04  0 
 -2.854645e-04  1.865722e-04  0 
 0  0  0 

 1.552836e-03  -2.504536e-04  0 
 -2.504536e-04  3.816007e-04  0 
 0  0  0 

TENSORS element_stresses FLOAT
 -1.552834e-03  -2.504492e-04  0 
 -2.504492e-04  -3.815989e-04  0 
 0  0  0 

 -7.740742e-04  -2.854604e-04  0 
 -2.854604e-04  -1.865692e-04  0 
 0  0  0 

 -1.213442e-09  -3.031723e-04  0 
 -3.031723e-04  1.620771e-09  0 
 0  0  0 

 7.740733e-04  -2.854645e-04  0 
 -2.854645e-04  1.865722e-04  0 
 0  0  0 

 1.552836e-03  -2.504536e-04  0 
 -2.504536e-04  3.816007e-04  0 
 0  0  0 

