# vtk DataFile Version 3.1
this is an vtk file created by FEMAC
ASCII
DATASET UNSTRUCTURED_GRID
POINTS 12 FLOAT
6.000000 0.000000 0.000000
6.500000 0.000000 0.000000
6.000000 0.200000 0.000000
6.000000 0.400000 0.000000
6.000000 0.600000 0.000000
6.000000 0.800000 0.000000
6.000000 1.000000 0.000000
6.500000 0.200000 0.000000
6.500000 0.400000 0.000000
6.500000 0.600000 0.000000
6.500000 0.800000 0.000000
6.500000 1.000000 0.000000
CELLS 5 25 
4 0 1 7 2
4 2 7 8 3
4 3 8 9 4
4 4  9 10  5
4 5 10 11  6
CELL_TYPES 5
9 9 9 9 9 
POINT_DATA 12
VECTORS displacement_ITER1 FLOAT
 -2.424339e-04  -2.073880e-03  0 
 -2.465779e-04  -2.320092e-03  0 
 -1.455916e-04  -2.073500e-03  0 
 -4.771538e-05  -2.072781e-03  0 
 5.049759e-05  -2.072781e-03  0 
 1.483738e-04  -2.073500e-03  0 
 2.452161e-04  -2.073880e-03  0 
 -1.475307e-04  -2.320142e-03  0 
 -4.834856e-05  -2.320619e-03  0 
 5.113078e-05  -2.320619e-03  0 
 1.503129e-04  -2.320142e-03  0 
 2.493602e-04  -2.320092e-03  0 
VECTORS displacement_ITER2 FLOAT
 -2.389789e-04  -2.048678e-03  0 
 -2.428524e-04  -2.291813e-03  0 
 -1.431234e-04  -2.048607e-03  0 
 -4.691122e-05  -2.048336e-03  0 
 4.926559e-05  -2.048336e-03  0 
 1.454778e-04  -2.048607e-03  0 
 2.413333e-04  -2.048678e-03  0 
 -1.452139e-04  -2.291703e-03  0 
 -4.763622e-05  -2.291748e-03  0 
 4.999059e-05  -2.291748e-03  0 
 1.475683e-04  -2.291703e-03  0 
 2.452067e-04  -2.291813e-03  0 
VECTORS displacement_ITER3 FLOAT
 -2.375809e-04  -2.040363e-03  0 
 -2.413347e-04  -2.282363e-03  0 
 -1.420628e-04  -2.040416e-03  0 
 -4.650141e-05  -2.040356e-03  0 
 4.888182e-05  -2.040356e-03  0 
 1.444432e-04  -2.040416e-03  0 
 2.399613e-04  -2.040363e-03  0 
 -1.442232e-04  -2.282190e-03  0 
 -4.725765e-05  -2.282046e-03  0 
 4.963805e-05  -2.282046e-03  0 
 1.466036e-04  -2.282190e-03  0 
 2.437152e-04  -2.282363e-03  0 
VECTORS displacement_ITER4 FLOAT
 -2.371038e-04  -2.037870e-03  0 
 -2.408272e-04  -2.279286e-03  0 
 -1.417829e-04  -2.037888e-03  0 
 -4.643112e-05  -2.037828e-03  0 
 4.879384e-05  -2.037828e-03  0 
 1.441456e-04  -2.037888e-03  0 
 2.394665e-04  -2.037870e-03  0 
 -1.439590e-04  -2.279162e-03  0 
 -4.717633e-05  -2.279057e-03  0 
 4.953904e-05  -2.279057e-03  0 
 1.463217e-04  -2.279162e-03  0 
 2.431899e-04  -2.279286e-03  0 
VECTORS displacement_ITER5 FLOAT
 -2.368450e-04  -2.036422e-03  0 
 -2.405537e-04  -2.277394e-03  0 
 -1.416772e-04  -2.036382e-03  0 
 -4.645063e-05  -2.036290e-03  0 
 4.873199e-05  -2.036290e-03  0 
 1.439586e-04  -2.036382e-03  0 
 2.391264e-04  -2.036422e-03  0 
 -1.438614e-04  -2.277332e-03  0 
 -4.717866e-05  -2.277298e-03  0 
 4.946001e-05  -2.277298e-03  0 
 1.461427e-04  -2.277332e-03  0 
 2.428350e-04  -2.277394e-03  0 
VECTORS displacement_ITER6 FLOAT
 -2.368069e-04  -2.036115e-03  0 
 -2.405041e-04  -2.277011e-03  0 
 -1.416497e-04  -2.036059e-03  0 
 -4.645416e-05  -2.035977e-03  0 
 4.871842e-05  -2.035984e-03  0 
 1.439040e-04  -2.036077e-03  0 
 2.390423e-04  -2.036137e-03  0 
 -1.438410e-04  -2.276962e-03  0 
 -4.717774e-05  -2.276937e-03  0 
 4.944136e-05  -2.276933e-03  0 
 1.460955e-04  -2.276950e-03  0 
 2.427466e-04  -2.276997e-03  0 
VECTORS displacement_ITER7 FLOAT
 -2.367244e-04  -2.036104e-03  0 
 -2.404317e-04  -2.276849e-03  0 
 -1.416154e-04  -2.036024e-03  0 
 -4.648618e-05  -2.035928e-03  0 
 4.866994e-05  -2.035883e-03  0 
 1.438645e-04  -2.035909e-03  0 
 2.390946e-04  -2.035962e-03  0 
 -1.438190e-04  -2.276805e-03  0 
 -4.720761e-05  -2.276804e-03  0 
 4.939412e-05  -2.276837e-03  0 
 1.460682e-04  -2.276891e-03  0 
 2.427668e-04  -2.276952e-03  0 
VECTORS displacement_ITER8 FLOAT
 -2.368680e-04  -2.035908e-03  0 
 -2.405377e-04  -2.276986e-03  0 
 -1.415859e-04  -2.035857e-03  0 
 -4.638301e-05  -2.035865e-03  0 
 4.876569e-05  -2.035932e-03  0 
 1.438623e-04  -2.036034e-03  0 
 2.389577e-04  -2.036128e-03  0 
 -1.437972e-04  -2.276912e-03  0 
 -4.710851e-05  -2.276833e-03  0 
 4.948964e-05  -2.276774e-03  0 
 1.460723e-04  -2.276758e-03  0 
 2.426563e-04  -2.276797e-03  0 
VECTORS displacement_ITER9 FLOAT
 -2.367188e-04  -2.036110e-03  0 
 -2.403990e-04  -2.276787e-03  0 
 -1.416047e-04  -2.036012e-03  0 
 -4.650439e-05  -2.035916e-03  0 
 4.864714e-05  -2.035858e-03  0 
 1.438475e-04  -2.035860e-03  0 
 2.391213e-04  -2.035920e-03  0 
 -1.438161e-04  -2.276751e-03  0 
 -4.723257e-05  -2.276775e-03  0 
 4.937423e-05  -2.276836e-03  0 
 1.460596e-04  -2.276911e-03  0 
 2.428097e-04  -2.276987e-03  0 
VECTORS displacement_ITER10 FLOAT
 -2.368162e-04  -2.036005e-03  0 
 -2.405248e-04  -2.276918e-03  0 
 -1.416128e-04  -2.035920e-03  0 
 -4.644440e-05  -2.035866e-03  0 
 4.871259e-05  -2.035872e-03  0 
 1.438581e-04  -2.035937e-03  0 
 2.390477e-04  -2.036026e-03  0 
 -1.438225e-04  -2.276856e-03  0 
 -4.717613e-05  -2.276825e-03  0 
 4.944654e-05  -2.276805e-03  0 
 1.460700e-04  -2.276804e-03  0 
 2.427121e-04  -2.276850e-03  0 
VECTORS displacement_ITER11 FLOAT
 -2.368509e-04  -2.035996e-03  0 
 -2.405301e-04  -2.276928e-03  0 
 -1.416214e-04  -2.035914e-03  0 
 -4.644332e-05  -2.035864e-03  0 
 4.871260e-05  -2.035883e-03  0 
 1.438631e-04  -2.035963e-03  0 
 2.390377e-04  -2.036061e-03  0 
 -1.438320e-04  -2.276868e-03  0 
 -4.718182e-05  -2.276845e-03  0 
 4.945071e-05  -2.276832e-03  0 
 1.460722e-04  -2.276832e-03  0 
 2.427341e-04  -2.276881e-03  0 
VECTORS displacement_ITER12 FLOAT
 -2.368188e-04  -2.036073e-03  0 
 -2.405041e-04  -2.276916e-03  0 
 -1.416263e-04  -2.035979e-03  0 
 -4.646791e-05  -2.035904e-03  0 
 4.868042e-05  -2.035891e-03  0 
 1.438631e-04  -2.035946e-03  0 
 2.390907e-04  -2.036028e-03  0 
 -1.438359e-04  -2.276866e-03  0 
 -4.721053e-05  -2.276863e-03  0 
 4.942323e-05  -2.276877e-03  0 
 1.460718e-04  -2.276903e-03  0 
 2.427812e-04  -2.276966e-03  0 
VECTORS displacement_ITER13 FLOAT
 -2.368442e-04  -2.036037e-03  0 
 -2.405347e-04  -2.276954e-03  0 
 -1.416252e-04  -2.035953e-03  0 
 -4.644516e-05  -2.035891e-03  0 
 4.870127e-05  -2.035899e-03  0 
 1.438671e-04  -2.035972e-03  0 
 2.390662e-04  -2.036062e-03  0 
 -1.438330e-04  -2.276895e-03  0 
 -4.718772e-05  -2.276874e-03  0 
 4.944368e-05  -2.276866e-03  0 
 1.460756e-04  -2.276874e-03  0 
 2.427531e-04  -2.276926e-03  0 
VECTORS displacement_ITER14 FLOAT
 -2.368344e-04  -2.036045e-03  0 
 -2.405245e-04  -2.276928e-03  0 
 -1.416301e-04  -2.035958e-03  0 
 -4.645743e-05  -2.035887e-03  0 
 4.868986e-05  -2.035886e-03  0 
 1.438642e-04  -2.035954e-03  0 
 2.390727e-04  -2.036041e-03  0 
 -1.438373e-04  -2.276875e-03  0 
 -4.719808e-05  -2.276862e-03  0 
 4.943037e-05  -2.276863e-03  0 
 1.460719e-04  -2.276877e-03  0 
 2.427614e-04  -2.276932e-03  0 
VECTORS displacement_ITER15 FLOAT
 -2.368367e-04  -2.036044e-03  0 
 -2.405255e-04  -2.276934e-03  0 
 -1.416288e-04  -2.035959e-03  0 
 -4.645651e-05  -2.035890e-03  0 
 4.869168e-05  -2.035890e-03  0 
 1.438638e-04  -2.035960e-03  0 
 2.390702e-04  -2.036046e-03  0 
 -1.438370e-04  -2.276880e-03  0 
 -4.719502e-05  -2.276865e-03  0 
 4.943041e-05  -2.276865e-03  0 
 1.460716e-04  -2.276879e-03  0 
 2.427598e-04  -2.276933e-03  0 
VECTORS displacement_ITER16 FLOAT
 -2.368352e-04  -2.036044e-03  0 
 -2.405244e-04  -2.276931e-03  0 
 -1.416288e-04  -2.035958e-03  0 
 -4.645775e-05  -2.035888e-03  0 
 4.869266e-05  -2.035889e-03  0 
 1.438641e-04  -2.035958e-03  0 
 2.390705e-04  -2.036044e-03  0 
 -1.438371e-04  -2.276877e-03  0 
 -4.719507e-05  -2.276863e-03  0 
 4.943004e-05  -2.276864e-03  0 
 1.460722e-04  -2.276877e-03  0 
 2.427602e-04  -2.276932e-03  0 
VECTORS displacement_ITER17 FLOAT
 -2.368357e-04  -2.036045e-03  0 
 -2.405253e-04  -2.276934e-03  0 
 -1.416288e-04  -2.035959e-03  0 
 -4.645769e-05  -2.035890e-03  0 
 4.869259e-05  -2.035890e-03  0 
 1.438635e-04  -2.035959e-03  0 
 2.390707e-04  -2.036044e-03  0 
 -1.438370e-04  -2.276879e-03  0 
 -4.719527e-05  -2.276865e-03  0 
 4.943007e-05  -2.276864e-03  0 
 1.460719e-04  -2.276879e-03  0 
 2.427597e-04  -2.276934e-03  0 
VECTORS displacement_ITER18 FLOAT
 -2.368358e-04  -2.036044e-03  0 
 -2.405250e-04  -2.276933e-03  0 
 -1.416289e-04  -2.035959e-03  0 
 -4.645766e-05  -2.035890e-03  0 
 4.869245e-05  -2.035890e-03  0 
 1.438637e-04  -2.035959e-03  0 
 2.390706e-04  -2.036044e-03  0 
 -1.438372e-04  -2.276878e-03  0 
 -4.719569e-05  -2.276864e-03  0 
 4.943045e-05  -2.276864e-03  0 
 1.460720e-04  -2.276878e-03  0 
 2.427598e-04  -2.276933e-03  0 
VECTORS displacement_ITER19 FLOAT
 -2.368358e-04  -2.036045e-03  0 
 -2.405250e-04  -2.276933e-03  0 
 -1.416290e-04  -2.035959e-03  0 
 -4.645755e-05  -2.035890e-03  0 
 4.869230e-05  -2.035890e-03  0 
 1.438637e-04  -2.035959e-03  0 
 2.390704e-04  -2.036045e-03  0 
 -1.438372e-04  -2.276879e-03  0 
 -4.719579e-05  -2.276864e-03  0 
 4.943052e-05  -2.276864e-03  0 
 1.460719e-04  -2.276879e-03  0 
 2.427598e-04  -2.276933e-03  0 
VECTORS displacement_ITER20 FLOAT
 -2.368356e-04  -2.036045e-03  0 
 -2.405250e-04  -2.276933e-03  0 
 -1.416291e-04  -2.035959e-03  0 
 -4.645756e-05  -2.035890e-03  0 
 4.869229e-05  -2.035890e-03  0 
 1.438638e-04  -2.035959e-03  0 
 2.390704e-04  -2.036045e-03  0 
 -1.438371e-04  -2.276879e-03  0 
 -4.719577e-05  -2.276864e-03  0 
 4.943048e-05  -2.276864e-03  0 
 1.460718e-04  -2.276879e-03  0 
 2.427597e-04  -2.276933e-03  0 
VECTORS displacement_ITER21 FLOAT
 -2.368357e-04  -2.036045e-03  0 
 -2.405250e-04  -2.276933e-03  0 
 -1.416290e-04  -2.035959e-03  0 
 -4.645752e-05  -2.035890e-03  0 
 4.869225e-05  -2.035890e-03  0 
 1.438637e-04  -2.035959e-03  0 
 2.390704e-04  -2.036045e-03  0 
 -1.438371e-04  -2.276879e-03  0 
 -4.719574e-05  -2.276864e-03  0 
 4.943047e-05  -2.276864e-03  0 
 1.460719e-04  -2.276879e-03  0 
 2.427597e-04  -2.276933e-03  0 
VECTORS displacement_ITER22 FLOAT
 -2.368357e-04  -2.036045e-03  0 
 -2.405249e-04  -2.276933e-03  0 
 -1.416290e-04  -2.035959e-03  0 
 -4.645757e-05  -2.035890e-03  0 
 4.869229e-05  -2.035890e-03  0 
 1.438637e-04  -2.035959e-03  0 
 2.390704e-04  -2.036045e-03  0 
 -1.438372e-04  -2.276879e-03  0 
 -4.719577e-05  -2.276864e-03  0 
 4.943049e-05  -2.276864e-03  0 
 1.460719e-04  -2.276879e-03  0 
 2.427596e-04  -2.276933e-03  0 
VECTORS displacement_ITER23 FLOAT
 -2.368357e-04  -2.036045e-03  0 
 -2.405250e-04  -2.276933e-03  0 
 -1.416290e-04  -2.035959e-03  0 
 -4.645756e-05  -2.035890e-03  0 
 4.869228e-05  -2.035890e-03  0 
 1.438637e-04  -2.035959e-03  0 
 2.390705e-04  -2.036045e-03  0 
 -1.438372e-04  -2.276879e-03  0 
 -4.719575e-05  -2.276864e-03  0 
 4.943046e-05  -2.276864e-03  0 
 1.460719e-04  -2.276879e-03  0 
 2.427597e-04  -2.276933e-03  0 
VECTORS displacement_ITER24 FLOAT
 -2.368357e-04  -2.036045e-03  0 
 -2.405250e-04  -2.276933e-03  0 
 -1.416290e-04  -2.035959e-03  0 
 -4.645758e-05  -2.035890e-03  0 
 4.869229e-05  -2.035890e-03  0 
 1.438637e-04  -2.035959e-03  0 
 2.390704e-04  -2.036045e-03  0 
 -1.438372e-04  -2.276879e-03  0 
 -4.719576e-05  -2.276864e-03  0 
 4.943047e-05  -2.276864e-03  0 
 1.460719e-04  -2.276879e-03  0 
 2.427597e-04  -2.276933e-03  0 
VECTORS displacement_ITER25 FLOAT
 -2.368357e-04  -2.036045e-03  0 
 -2.405250e-04  -2.276933e-03  0 
 -1.416290e-04  -2.035959e-03  0 
 -4.645757e-05  -2.035890e-03  0 
 4.869229e-05  -2.035890e-03  0 
 1.438637e-04  -2.035959e-03  0 
 2.390704e-04  -2.036045e-03  0 
 -1.438372e-04  -2.276879e-03  0 
 -4.719575e-05  -2.276864e-03  0 
 4.943047e-05  -2.276864e-03  0 
 1.460719e-04  -2.276879e-03  0 
 2.427597e-04  -2.276933e-03  0 
CELL_DATA 5
TENSORS element_stresses FLOAT
 -6.365186e-04  -1.593752e-04  0 
 -1.593752e-04  -1.559280e-04  0 
 0  0  0 

 -3.169064e-04  -1.816578e-04  0 
 -1.816578e-04  -7.424339e-05  0 
 0  0  0 

 1.963605e-10  -1.929352e-04  0 
 -1.929352e-04  -3.500223e-10  0 
 0  0  0 

 3.169064e-04  -1.816571e-04  0 
 -1.816571e-04  7.424294e-05  0 
 0  0  0 

 6.365184e-04  -1.593747e-04  0 
 -1.593747e-04  1.559277e-04  0 
 0  0  0 

TENSORS element_stresses FLOAT
 -6.365186e-04  -1.593752e-04  0 
 -1.593752e-04  -1.559280e-04  0 
 0  0  0 

 -3.169064e-04  -1.816578e-04  0 
 -1.816578e-04  -7.424339e-05  0 
 0  0  0 

 1.963605e-10  -1.929352e-04  0 
 -1.929352e-04  -3.500223e-10  0 
 0  0  0 

 3.169064e-04  -1.816571e-04  0 
 -1.816571e-04  7.424294e-05  0 
 0  0  0 

 6.365184e-04  -1.593747e-04  0 
 -1.593747e-04  1.559277e-04  0 
 0  0  0 

