# vtk DataFile Version 3.1
this is an vtk file created by FEMAC
ASCII
DATASET UNSTRUCTURED_GRID
POINTS 12 FLOAT
7.500000 0.000000 0.000000
8.000000 0.000000 0.000000
7.500000 0.200000 0.000000
7.500000 0.400000 0.000000
7.500000 0.600000 0.000000
7.500000 0.800000 0.000000
7.500000 1.000000 0.000000
8.000000 0.200000 0.000000
8.000000 0.400000 0.000000
8.000000 0.600000 0.000000
8.000000 0.800000 0.000000
8.000000 1.000000 0.000000
CELLS 5 25 
4 0 1 7 2
4 2 7 8 3
4 3 8 9 4
4 4  9 10  5
4 5 10 11  6
CELL_TYPES 5
9 9 9 9 9 
POINT_DATA 12
VECTORS displacement_ITER1 FLOAT
 -2.476836e-04  -2.817546e-03  0 
 -2.476914e-04  -3.066634e-03  0 
 -1.480401e-04  -2.817537e-03  0 
 -4.841730e-05  -2.817531e-03  0 
 5.119952e-05  -2.817531e-03  0 
 1.508223e-04  -2.817537e-03  0 
 2.504658e-04  -2.817546e-03  0 
 -1.480609e-04  -3.066633e-03  0 
 -4.842594e-05  -3.066628e-03  0 
 5.120816e-05  -3.066628e-03  0 
 1.508431e-04  -3.066633e-03  0 
 2.504736e-04  -3.066634e-03  0 
VECTORS displacement_ITER2 FLOAT
 -2.438197e-04  -2.781051e-03  0 
 -2.438282e-04  -3.026066e-03  0 
 -1.458068e-04  -2.781043e-03  0 
 -4.781652e-05  -2.781045e-03  0 
 5.017089e-05  -2.781045e-03  0 
 1.481611e-04  -2.781043e-03  0 
 2.461740e-04  -2.781051e-03  0 
 -1.458263e-04  -3.026065e-03  0 
 -4.782233e-05  -3.026058e-03  0 
 5.017670e-05  -3.026058e-03  0 
 1.481806e-04  -3.026065e-03  0 
 2.461826e-04  -3.026066e-03  0 
VECTORS displacement_ITER3 FLOAT
 -2.422400e-04  -2.768448e-03  0 
 -2.422491e-04  -3.011898e-03  0 
 -1.448539e-04  -2.768440e-03  0 
 -4.749073e-05  -2.768445e-03  0 
 4.987113e-05  -2.768445e-03  0 
 1.472343e-04  -2.768440e-03  0 
 2.446204e-04  -2.768448e-03  0 
 -1.448727e-04  -3.011897e-03  0 
 -4.749521e-05  -3.011889e-03  0 
 4.987562e-05  -3.011889e-03  0 
 1.472531e-04  -3.011897e-03  0 
 2.446295e-04  -3.011898e-03  0 
VECTORS displacement_ITER4 FLOAT
 -2.417485e-04  -2.764410e-03  0 
 -2.417575e-04  -3.007359e-03  0 
 -1.445624e-04  -2.764401e-03  0 
 -4.739955e-05  -2.764405e-03  0 
 4.976226e-05  -2.764405e-03  0 
 1.469251e-04  -2.764401e-03  0 
 2.441112e-04  -2.764410e-03  0 
 -1.445818e-04  -3.007358e-03  0 
 -4.740423e-05  -3.007351e-03  0 
 4.976694e-05  -3.007351e-03  0 
 1.469445e-04  -3.007358e-03  0 
 2.441202e-04  -3.007359e-03  0 
VECTORS displacement_ITER5 FLOAT
 -2.415017e-04  -2.761988e-03  0 
 -2.415105e-04  -3.004647e-03  0 
 -1.444307e-04  -2.761978e-03  0 
 -4.738264e-05  -2.761980e-03  0 
 4.966399e-05  -2.761980e-03  0 
 1.467121e-04  -2.761978e-03  0 
 2.437831e-04  -2.761988e-03  0 
 -1.444506e-04  -3.004646e-03  0 
 -4.738790e-05  -3.004639e-03  0 
 4.966926e-05  -3.004639e-03  0 
 1.467319e-04  -3.004646e-03  0 
 2.437919e-04  -3.004647e-03  0 
VECTORS displacement_ITER6 FLOAT
 -2.414507e-04  -2.761478e-03  0 
 -2.414596e-04  -3.004072e-03  0 
 -1.444060e-04  -2.761468e-03  0 
 -4.738347e-05  -2.761469e-03  0 
 4.963702e-05  -2.761469e-03  0 
 1.466595e-04  -2.761468e-03  0 
 2.437043e-04  -2.761478e-03  0 
 -1.444258e-04  -3.004071e-03  0 
 -4.738911e-05  -3.004064e-03  0 
 4.964266e-05  -3.004064e-03  0 
 1.466793e-04  -3.004071e-03  0 
 2.437131e-04  -3.004072e-03  0 
VECTORS displacement_ITER7 FLOAT
 -2.414184e-04  -2.761310e-03  0 
 -2.414276e-04  -3.003873e-03  0 
 -1.443868e-04  -2.761301e-03  0 
 -4.737594e-05  -2.761301e-03  0 
 4.963184e-05  -2.761301e-03  0 
 1.466427e-04  -2.761301e-03  0 
 2.436743e-04  -2.761310e-03  0 
 -1.444061e-04  -3.003872e-03  0 
 -4.738208e-05  -3.003866e-03  0 
 4.963798e-05  -3.003866e-03  0 
 1.466620e-04  -3.003872e-03  0 
 2.436835e-04  -3.003873e-03  0 
VECTORS displacement_ITER8 FLOAT
 -2.414095e-04  -2.761288e-03  0 
 -2.414190e-04  -3.003845e-03  0 
 -1.443808e-04  -2.761279e-03  0 
 -4.737151e-05  -2.761279e-03  0 
 4.963375e-05  -2.761279e-03  0 
 1.466431e-04  -2.761279e-03  0 
 2.436720e-04  -2.761288e-03  0 
 -1.443996e-04  -3.003845e-03  0 
 -4.737800e-05  -3.003839e-03  0 
 4.964038e-05  -3.003839e-03  0 
 1.466620e-04  -3.003845e-03  0 
 2.436813e-04  -3.003846e-03  0 
VECTORS displacement_ITER9 FLOAT
 -2.414196e-04  -2.761301e-03  0 
 -2.414287e-04  -3.003866e-03  0 
 -1.443876e-04  -2.761292e-03  0 
 -4.737441e-05  -2.761291e-03  0 
 4.963383e-05  -2.761291e-03  0 
 1.466465e-04  -2.761291e-03  0 
 2.436777e-04  -2.761300e-03  0 
 -1.444063e-04  -3.003865e-03  0 
 -4.738162e-05  -3.003859e-03  0 
 4.964032e-05  -3.003859e-03  0 
 1.466650e-04  -3.003865e-03  0 
 2.436878e-04  -3.003865e-03  0 
VECTORS displacement_ITER10 FLOAT
 -2.414447e-04  -2.761330e-03  0 
 -2.414556e-04  -3.003912e-03  0 
 -1.444081e-04  -2.761322e-03  0 
 -4.738865e-05  -2.761321e-03  0 
 4.962581e-05  -2.761321e-03  0 
 1.466462e-04  -2.761323e-03  0 
 2.436847e-04  -2.761332e-03  0 
 -1.444260e-04  -3.003911e-03  0 
 -4.739500e-05  -3.003906e-03  0 
 4.963383e-05  -3.003907e-03  0 
 1.466647e-04  -3.003912e-03  0 
 2.436935e-04  -3.003913e-03  0 
VECTORS displacement_ITER11 FLOAT
 -2.414590e-04  -2.761379e-03  0 
 -2.414680e-04  -3.003974e-03  0 
 -1.444153e-04  -2.761370e-03  0 
 -4.738920e-05  -2.761368e-03  0 
 4.963077e-05  -2.761368e-03  0 
 1.466560e-04  -2.761369e-03  0 
 2.436979e-04  -2.761378e-03  0 
 -1.444337e-04  -3.003973e-03  0 
 -4.739727e-05  -3.003968e-03  0 
 4.963731e-05  -3.003967e-03  0 
 1.466738e-04  -3.003972e-03  0 
 2.437089e-04  -3.003973e-03  0 
VECTORS displacement_ITER12 FLOAT
 -2.414675e-04  -2.761430e-03  0 
 -2.414782e-04  -3.004033e-03  0 
 -1.444220e-04  -2.761421e-03  0 
 -4.739309e-05  -2.761420e-03  0 
 4.963056e-05  -2.761420e-03  0 
 1.466599e-04  -2.761422e-03  0 
 2.437065e-04  -2.761431e-03  0 
 -1.444398e-04  -3.004033e-03  0 
 -4.739986e-05  -3.004028e-03  0 
 4.963815e-05  -3.004028e-03  0 
 1.466780e-04  -3.004033e-03  0 
 2.437160e-04  -3.004034e-03  0 
VECTORS displacement_ITER13 FLOAT
 -2.414676e-04  -2.761432e-03  0 
 -2.414774e-04  -3.004036e-03  0 
 -1.444209e-04  -2.761423e-03  0 
 -4.739142e-05  -2.761421e-03  0 
 4.963296e-05  -2.761421e-03  0 
 1.466622e-04  -2.761422e-03  0 
 2.437083e-04  -2.761431e-03  0 
 -1.444390e-04  -3.004035e-03  0 
 -4.739857e-05  -3.004030e-03  0 
 4.963969e-05  -3.004030e-03  0 
 1.466801e-04  -3.004035e-03  0 
 2.437188e-04  -3.004035e-03  0 
VECTORS displacement_ITER14 FLOAT
 -2.414699e-04  -2.761421e-03  0 
 -2.414801e-04  -3.004024e-03  0 
 -1.444237e-04  -2.761412e-03  0 
 -4.739490e-05  -2.761410e-03  0 
 4.962948e-05  -2.761410e-03  0 
 1.466583e-04  -2.761412e-03  0 
 2.437045e-04  -2.761421e-03  0 
 -1.444418e-04  -3.004024e-03  0 
 -4.740161e-05  -3.004019e-03  0 
 4.963623e-05  -3.004019e-03  0 
 1.466764e-04  -3.004024e-03  0 
 2.437147e-04  -3.004024e-03  0 
VECTORS displacement_ITER15 FLOAT
 -2.414692e-04  -2.761423e-03  0 
 -2.414794e-04  -3.004026e-03  0 
 -1.444232e-04  -2.761414e-03  0 
 -4.739478e-05  -2.761413e-03  0 
 4.962944e-05  -2.761413e-03  0 
 1.466579e-04  -2.761414e-03  0 
 2.437039e-04  -2.761423e-03  0 
 -1.444414e-04  -3.004025e-03  0 
 -4.740141e-05  -3.004020e-03  0 
 4.963606e-05  -3.004020e-03  0 
 1.466760e-04  -3.004025e-03  0 
 2.437140e-04  -3.004026e-03  0 
VECTORS displacement_ITER16 FLOAT
 -2.414688e-04  -2.761421e-03  0 
 -2.414789e-04  -3.004023e-03  0 
 -1.444228e-04  -2.761412e-03  0 
 -4.739446e-05  -2.761410e-03  0 
 4.962966e-05  -2.761411e-03  0 
 1.466581e-04  -2.761412e-03  0 
 2.437040e-04  -2.761421e-03  0 
 -1.444410e-04  -3.004023e-03  0 
 -4.740110e-05  -3.004018e-03  0 
 4.963631e-05  -3.004018e-03  0 
 1.466762e-04  -3.004023e-03  0 
 2.437141e-04  -3.004023e-03  0 
VECTORS displacement_ITER17 FLOAT
 -2.414690e-04  -2.761423e-03  0 
 -2.414791e-04  -3.004025e-03  0 
 -1.444231e-04  -2.761414e-03  0 
 -4.739461e-05  -2.761412e-03  0 
 4.962944e-05  -2.761412e-03  0 
 1.466579e-04  -2.761414e-03  0 
 2.437039e-04  -2.761423e-03  0 
 -1.444412e-04  -3.004025e-03  0 
 -4.740131e-05  -3.004020e-03  0 
 4.963613e-05  -3.004020e-03  0 
 1.466760e-04  -3.004025e-03  0 
 2.437140e-04  -3.004025e-03  0 
VECTORS displacement_ITER18 FLOAT
 -2.414691e-04  -2.761422e-03  0 
 -2.414792e-04  -3.004025e-03  0 
 -1.444231e-04  -2.761413e-03  0 
 -4.739464e-05  -2.761412e-03  0 
 4.962939e-05  -2.761412e-03  0 
 1.466579e-04  -2.761413e-03  0 
 2.437039e-04  -2.761422e-03  0 
 -1.444413e-04  -3.004024e-03  0 
 -4.740136e-05  -3.004019e-03  0 
 4.963611e-05  -3.004019e-03  0 
 1.466760e-04  -3.004024e-03  0 
 2.437140e-04  -3.004025e-03  0 
VECTORS displacement_ITER19 FLOAT
 -2.414691e-04  -2.761422e-03  0 
 -2.414792e-04  -3.004025e-03  0 
 -1.444231e-04  -2.761413e-03  0 
 -4.739465e-05  -2.761412e-03  0 
 4.962937e-05  -2.761412e-03  0 
 1.466579e-04  -2.761413e-03  0 
 2.437038e-04  -2.761422e-03  0 
 -1.444413e-04  -3.004024e-03  0 
 -4.740137e-05  -3.004019e-03  0 
 4.963610e-05  -3.004019e-03  0 
 1.466760e-04  -3.004024e-03  0 
 2.437140e-04  -3.004025e-03  0 
VECTORS displacement_ITER20 FLOAT
 -2.414691e-04  -2.761422e-03  0 
 -2.414792e-04  -3.004025e-03  0 
 -1.444231e-04  -2.761413e-03  0 
 -4.739464e-05  -2.761412e-03  0 
 4.962936e-05  -2.761412e-03  0 
 1.466578e-04  -2.761413e-03  0 
 2.437038e-04  -2.761422e-03  0 
 -1.444413e-04  -3.004024e-03  0 
 -4.740137e-05  -3.004019e-03  0 
 4.963609e-05  -3.004019e-03  0 
 1.466760e-04  -3.004024e-03  0 
 2.437139e-04  -3.004025e-03  0 
VECTORS displacement_ITER21 FLOAT
 -2.414691e-04  -2.761422e-03  0 
 -2.414792e-04  -3.004025e-03  0 
 -1.444231e-04  -2.761413e-03  0 
 -4.739463e-05  -2.761412e-03  0 
 4.962937e-05  -2.761412e-03  0 
 1.466578e-04  -2.761413e-03  0 
 2.437038e-04  -2.761422e-03  0 
 -1.444412e-04  -3.004024e-03  0 
 -4.740136e-05  -3.004019e-03  0 
 4.963609e-05  -3.004019e-03  0 
 1.466760e-04  -3.004024e-03  0 
 2.437139e-04  -3.004025e-03  0 
VECTORS displacement_ITER22 FLOAT
 -2.414691e-04  -2.761422e-03  0 
 -2.414792e-04  -3.004025e-03  0 
 -1.444231e-04  -2.761413e-03  0 
 -4.739465e-05  -2.761412e-03  0 
 4.962936e-05  -2.761412e-03  0 
 1.466578e-04  -2.761413e-03  0 
 2.437038e-04  -2.761422e-03  0 
 -1.444412e-04  -3.004024e-03  0 
 -4.740136e-05  -3.004019e-03  0 
 4.963608e-05  -3.004019e-03  0 
 1.466760e-04  -3.004024e-03  0 
 2.437139e-04  -3.004025e-03  0 
VECTORS displacement_ITER23 FLOAT
 -2.414691e-04  -2.761422e-03  0 
 -2.414792e-04  -3.004025e-03  0 
 -1.444231e-04  -2.761413e-03  0 
 -4.739465e-05  -2.761412e-03  0 
 4.962936e-05  -2.761412e-03  0 
 1.466578e-04  -2.761413e-03  0 
 2.437038e-04  -2.761422e-03  0 
 -1.444413e-04  -3.004024e-03  0 
 -4.740137e-05  -3.004019e-03  0 
 4.963608e-05  -3.004019e-03  0 
 1.466760e-04  -3.004024e-03  0 
 2.437139e-04  -3.004025e-03  0 
VECTORS displacement_ITER24 FLOAT
 -2.414691e-04  -2.761422e-03  0 
 -2.414792e-04  -3.004025e-03  0 
 -1.444231e-04  -2.761413e-03  0 
 -4.739465e-05  -2.761412e-03  0 
 4.962936e-05  -2.761412e-03  0 
 1.466578e-04  -2.761413e-03  0 
 2.437038e-04  -2.761422e-03  0 
 -1.444413e-04  -3.004024e-03  0 
 -4.740137e-05  -3.004019e-03  0 
 4.963608e-05  -3.004019e-03  0 
 1.466760e-04  -3.004024e-03  0 
 2.437139e-04  -3.004025e-03  0 
VECTORS displacement_ITER25 FLOAT
 -2.414691e-04  -2.761422e-03  0 
 -2.414792e-04  -3.004025e-03  0 
 -1.444231e-04  -2.761413e-03  0 
 -4.739465e-05  -2.761412e-03  0 
 4.962936e-05  -2.761412e-03  0 
 1.466578e-04  -2.761413e-03  0 
 2.437038e-04  -2.761422e-03  0 
 -1.444413e-04  -3.004024e-03  0 
 -4.740137e-05  -3.004019e-03  0 
 4.963608e-05  -3.004019e-03  0 
 1.466760e-04  -3.004024e-03  0 
 2.437139e-04  -3.004025e-03  0 
CELL_DATA 5
TENSORS element_stresses FLOAT
 -2.307088e-05  -2.899705e-06  0 
 -2.899705e-06  1.723175e-05  0 
 0  0  0 

 -2.203825e-05  -3.626496e-05  0 
 -3.626496e-05  9.396993e-06  0 
 0  0  0 

 1.249845e-11  -4.667067e-05  0 
 -4.667067e-05  -7.122924e-11  0 
 0  0  0 

 2.203827e-05  -3.626485e-05  0 
 -3.626485e-05  -9.396746e-06  0 
 0  0  0 

 2.307085e-05  -2.899814e-06  0 
 -2.899814e-06  -1.723178e-05  0 
 0  0  0 

TENSORS element_stresses FLOAT
 -2.307088e-05  -2.899705e-06  0 
 -2.899705e-06  1.723175e-05  0 
 0  0  0 

 -2.203825e-05  -3.626496e-05  0 
 -3.626496e-05  9.396993e-06  0 
 0  0  0 

 1.249845e-11  -4.667067e-05  0 
 -4.667067e-05  -7.122924e-11  0 
 0  0  0 

 2.203827e-05  -3.626485e-05  0 
 -3.626485e-05  -9.396746e-06  0 
 0  0  0 

 2.307085e-05  -2.899814e-06  0 
 -2.899814e-06  -1.723178e-05  0 
 0  0  0 

