# vtk DataFile Version 3.1
this is an vtk file created by FEMAC
ASCII
DATASET UNSTRUCTURED_GRID
POINTS 12 FLOAT
5.500000 0.000000 0.000000
6.000000 0.000000 0.000000
5.500000 0.200000 0.000000
5.500000 0.400000 0.000000
5.500000 0.600000 0.000000
5.500000 0.800000 0.000000
5.500000 1.000000 0.000000
6.000000 0.200000 0.000000
6.000000 0.400000 0.000000
6.000000 0.600000 0.000000
6.000000 0.800000 0.000000
6.000000 1.000000 0.000000
CELLS 5 25 
4 0 1 7 2
4 2 7 8 3
4 3 8 9 4
4 4  9 10  5
4 5 10 11  6
CELL_TYPES 5
9 9 9 9 9 
POINT_DATA 12
VECTORS displacement_ITER1 FLOAT
 -2.421265e-04  -1.829450e-03  0 
 -2.428192e-04  -2.073470e-03  0 
 -1.446707e-04  -1.829354e-03  0 
 -4.728550e-05  -1.829321e-03  0 
 5.006772e-05  -1.829321e-03  0 
 1.474529e-04  -1.829354e-03  0 
 2.449087e-04  -1.829450e-03  0 
 -1.450510e-04  -2.073370e-03  0 
 -4.741067e-05  -2.073320e-03  0 
 5.019288e-05  -2.073320e-03  0 
 1.478332e-04  -2.073370e-03  0 
 2.456014e-04  -2.073470e-03  0 
VECTORS displacement_ITER2 FLOAT
 -2.384259e-04  -1.808532e-03  0 
 -2.391047e-04  -2.048633e-03  0 
 -1.425302e-04  -1.808420e-03  0 
 -4.671793e-05  -1.808396e-03  0 
 4.907229e-05  -1.808396e-03  0 
 1.448846e-04  -1.808420e-03  0 
 2.407802e-04  -1.808532e-03  0 
 -1.429338e-04  -2.048527e-03  0 
 -4.685120e-05  -2.048460e-03  0 
 4.920556e-05  -2.048460e-03  0 
 1.452882e-04  -2.048527e-03  0 
 2.414591e-04  -2.048633e-03  0 
VECTORS displacement_ITER3 FLOAT
 -2.369180e-04  -1.801874e-03  0 
 -2.375906e-04  -2.040474e-03  0 
 -1.416185e-04  -1.801753e-03  0 
 -4.640676e-05  -1.801732e-03  0 
 4.878717e-05  -1.801732e-03  0 
 1.439990e-04  -1.801753e-03  0 
 2.392984e-04  -1.801874e-03  0 
 -1.420327e-04  -2.040368e-03  0 
 -4.654334e-05  -2.040293e-03  0 
 4.892374e-05  -2.040293e-03  0 
 1.444131e-04  -2.040368e-03  0 
 2.399710e-04  -2.040474e-03  0 
VECTORS displacement_ITER4 FLOAT
 -2.364453e-04  -1.799849e-03  0 
 -2.371151e-04  -2.037955e-03  0 
 -1.413357e-04  -1.799720e-03  0 
 -4.631788e-05  -1.799694e-03  0 
 4.868059e-05  -1.799694e-03  0 
 1.436984e-04  -1.799720e-03  0 
 2.388080e-04  -1.799849e-03  0 
 -1.417557e-04  -2.037853e-03  0 
 -4.645617e-05  -2.037777e-03  0 
 4.881888e-05  -2.037777e-03  0 
 1.441184e-04  -2.037853e-03  0 
 2.394778e-04  -2.037955e-03  0 
VECTORS displacement_ITER5 FLOAT
 -2.362069e-04  -1.798642e-03  0 
 -2.368745e-04  -2.036455e-03  0 
 -1.412067e-04  -1.798505e-03  0 
 -4.630109e-05  -1.798472e-03  0 
 4.858244e-05  -1.798472e-03  0 
 1.434881e-04  -1.798505e-03  0 
 2.384883e-04  -1.798642e-03  0 
 -1.416314e-04  -2.036358e-03  0 
 -4.644087e-05  -2.036282e-03  0 
 4.872222e-05  -2.036282e-03  0 
 1.439127e-04  -2.036358e-03  0 
 2.391559e-04  -2.036455e-03  0 
VECTORS displacement_ITER6 FLOAT
 -2.361595e-04  -1.798401e-03  0 
 -2.368264e-04  -2.036146e-03  0 
 -1.411849e-04  -1.798262e-03  0 
 -4.630360e-05  -1.798226e-03  0 
 4.855436e-05  -1.798226e-03  0 
 1.434362e-04  -1.798263e-03  0 
 2.384114e-04  -1.798402e-03  0 
 -1.416109e-04  -2.036052e-03  0 
 -4.644382e-05  -2.035976e-03  0 
 4.869514e-05  -2.035976e-03  0 
 1.438622e-04  -2.036052e-03  0 
 2.390778e-04  -2.036146e-03  0 
VECTORS displacement_ITER7 FLOAT
 -2.361246e-04  -1.798345e-03  0 
 -2.367890e-04  -2.036054e-03  0 
 -1.411616e-04  -1.798204e-03  0 
 -4.628830e-05  -1.798164e-03  0 
 4.855838e-05  -1.798162e-03  0 
 1.434296e-04  -1.798201e-03  0 
 2.383896e-04  -1.798342e-03  0 
 -1.415885e-04  -2.035963e-03  0 
 -4.643081e-05  -2.035887e-03  0 
 4.869885e-05  -2.035888e-03  0 
 1.438563e-04  -2.035963e-03  0 
 2.390563e-04  -2.036055e-03  0 
VECTORS displacement_ITER8 FLOAT
 -2.361259e-04  -1.798336e-03  0 
 -2.367911e-04  -2.036039e-03  0 
 -1.411695e-04  -1.798194e-03  0 
 -4.629833e-05  -1.798153e-03  0 
 4.854630e-05  -1.798154e-03  0 
 1.434187e-04  -1.798197e-03  0 
 2.383774e-04  -1.798339e-03  0 
 -1.415965e-04  -2.035950e-03  0 
 -4.644038e-05  -2.035875e-03  0 
 4.868890e-05  -2.035874e-03  0 
 1.438458e-04  -2.035949e-03  0 
 2.390420e-04  -2.036038e-03  0 
VECTORS displacement_ITER9 FLOAT
 -2.361260e-04  -1.798325e-03  0 
 -2.367916e-04  -2.036028e-03  0 
 -1.411674e-04  -1.798182e-03  0 
 -4.629226e-05  -1.798138e-03  0 
 4.855473e-05  -1.798139e-03  0 
 1.434302e-04  -1.798183e-03  0 
 2.383889e-04  -1.798325e-03  0 
 -1.415942e-04  -2.035941e-03  0 
 -4.643448e-05  -2.035867e-03  0 
 4.869846e-05  -2.035868e-03  0 
 1.438571e-04  -2.035942e-03  0 
 2.390528e-04  -2.036030e-03  0 
VECTORS displacement_ITER10 FLOAT
 -2.361463e-04  -1.798307e-03  0 
 -2.368102e-04  -2.036019e-03  0 
 -1.411834e-04  -1.798163e-03  0 
 -4.630128e-05  -1.798117e-03  0 
 4.855086e-05  -1.798116e-03  0 
 1.434320e-04  -1.798162e-03  0 
 2.383932e-04  -1.798305e-03  0 
 -1.416099e-04  -2.035933e-03  0 
 -4.644581e-05  -2.035861e-03  0 
 4.869390e-05  -2.035861e-03  0 
 1.438583e-04  -2.035933e-03  0 
 2.390588e-04  -2.036019e-03  0 
VECTORS displacement_ITER11 FLOAT
 -2.361645e-04  -1.798305e-03  0 
 -2.368290e-04  -2.036028e-03  0 
 -1.411994e-04  -1.798162e-03  0 
 -4.631234e-05  -1.798114e-03  0 
 4.854494e-05  -1.798114e-03  0 
 1.434319e-04  -1.798162e-03  0 
 2.383971e-04  -1.798305e-03  0 
 -1.416254e-04  -2.035942e-03  0 
 -4.645696e-05  -2.035871e-03  0 
 4.868891e-05  -2.035871e-03  0 
 1.438578e-04  -2.035942e-03  0 
 2.390624e-04  -2.036027e-03  0 
VECTORS displacement_ITER12 FLOAT
 -2.361677e-04  -1.798321e-03  0 
 -2.368334e-04  -2.036050e-03  0 
 -1.412011e-04  -1.798177e-03  0 
 -4.631077e-05  -1.798129e-03  0 
 4.855071e-05  -1.798129e-03  0 
 1.434414e-04  -1.798178e-03  0 
 2.384086e-04  -1.798322e-03  0 
 -1.416265e-04  -2.035965e-03  0 
 -4.645470e-05  -2.035895e-03  0 
 4.869561e-05  -2.035895e-03  0 
 1.438669e-04  -2.035965e-03  0 
 2.390733e-04  -2.036050e-03  0 
VECTORS displacement_ITER13 FLOAT
 -2.361688e-04  -1.798320e-03  0 
 -2.368340e-04  -2.036049e-03  0 
 -1.412018e-04  -1.798176e-03  0 
 -4.631117e-05  -1.798127e-03  0 
 4.855145e-05  -1.798127e-03  0 
 1.434419e-04  -1.798176e-03  0 
 2.384085e-04  -1.798320e-03  0 
 -1.416272e-04  -2.035964e-03  0 
 -4.645560e-05  -2.035895e-03  0 
 4.869532e-05  -2.035894e-03  0 
 1.438672e-04  -2.035963e-03  0 
 2.390743e-04  -2.036048e-03  0 
VECTORS displacement_ITER14 FLOAT
 -2.361703e-04  -1.798314e-03  0 
 -2.368360e-04  -2.036042e-03  0 
 -1.412039e-04  -1.798170e-03  0 
 -4.631403e-05  -1.798121e-03  0 
 4.854895e-05  -1.798121e-03  0 
 1.434389e-04  -1.798170e-03  0 
 2.384053e-04  -1.798314e-03  0 
 -1.416292e-04  -2.035956e-03  0 
 -4.645777e-05  -2.035888e-03  0 
 4.869278e-05  -2.035888e-03  0 
 1.438642e-04  -2.035956e-03  0 
 2.390709e-04  -2.036042e-03  0 
VECTORS displacement_ITER15 FLOAT
 -2.361702e-04  -1.798317e-03  0 
 -2.368358e-04  -2.036045e-03  0 
 -1.412038e-04  -1.798173e-03  0 
 -4.631430e-05  -1.798124e-03  0 
 4.854886e-05  -1.798124e-03  0 
 1.434383e-04  -1.798173e-03  0 
 2.384047e-04  -1.798317e-03  0 
 -1.416292e-04  -2.035959e-03  0 
 -4.645781e-05  -2.035891e-03  0 
 4.869233e-05  -2.035891e-03  0 
 1.438638e-04  -2.035959e-03  0 
 2.390704e-04  -2.036045e-03  0 
VECTORS displacement_ITER16 FLOAT
 -2.361697e-04  -1.798316e-03  0 
 -2.368354e-04  -2.036043e-03  0 
 -1.412033e-04  -1.798172e-03  0 
 -4.631397e-05  -1.798123e-03  0 
 4.854909e-05  -1.798123e-03  0 
 1.434384e-04  -1.798172e-03  0 
 2.384049e-04  -1.798316e-03  0 
 -1.416288e-04  -2.035958e-03  0 
 -4.645735e-05  -2.035889e-03  0 
 4.869249e-05  -2.035889e-03  0 
 1.438639e-04  -2.035958e-03  0 
 2.390705e-04  -2.036044e-03  0 
VECTORS displacement_ITER17 FLOAT
 -2.361700e-04  -1.798317e-03  0 
 -2.368357e-04  -2.036045e-03  0 
 -1.412035e-04  -1.798173e-03  0 
 -4.631407e-05  -1.798124e-03  0 
 4.854892e-05  -1.798124e-03  0 
 1.434384e-04  -1.798173e-03  0 
 2.384049e-04  -1.798317e-03  0 
 -1.416290e-04  -2.035959e-03  0 
 -4.645749e-05  -2.035890e-03  0 
 4.869235e-05  -2.035890e-03  0 
 1.438639e-04  -2.035959e-03  0 
 2.390705e-04  -2.036045e-03  0 
VECTORS displacement_ITER18 FLOAT
 -2.361701e-04  -1.798317e-03  0 
 -2.368358e-04  -2.036044e-03  0 
 -1.412036e-04  -1.798172e-03  0 
 -4.631408e-05  -1.798124e-03  0 
 4.854884e-05  -1.798124e-03  0 
 1.434383e-04  -1.798172e-03  0 
 2.384049e-04  -1.798317e-03  0 
 -1.416290e-04  -2.035959e-03  0 
 -4.645756e-05  -2.035890e-03  0 
 4.869232e-05  -2.035890e-03  0 
 1.438638e-04  -2.035959e-03  0 
 2.390705e-04  -2.036044e-03  0 
VECTORS displacement_ITER19 FLOAT
 -2.361701e-04  -1.798317e-03  0 
 -2.368357e-04  -2.036045e-03  0 
 -1.412036e-04  -1.798173e-03  0 
 -4.631407e-05  -1.798124e-03  0 
 4.854879e-05  -1.798124e-03  0 
 1.434383e-04  -1.798173e-03  0 
 2.384049e-04  -1.798317e-03  0 
 -1.416290e-04  -2.035959e-03  0 
 -4.645758e-05  -2.035890e-03  0 
 4.869229e-05  -2.035890e-03  0 
 1.438638e-04  -2.035959e-03  0 
 2.390705e-04  -2.036045e-03  0 
VECTORS displacement_ITER20 FLOAT
 -2.361701e-04  -1.798317e-03  0 
 -2.368357e-04  -2.036045e-03  0 
 -1.412035e-04  -1.798173e-03  0 
 -4.631404e-05  -1.798124e-03  0 
 4.854876e-05  -1.798124e-03  0 
 1.434382e-04  -1.798173e-03  0 
 2.384048e-04  -1.798317e-03  0 
 -1.416290e-04  -2.035959e-03  0 
 -4.645756e-05  -2.035890e-03  0 
 4.869228e-05  -2.035890e-03  0 
 1.438637e-04  -2.035959e-03  0 
 2.390704e-04  -2.036045e-03  0 
VECTORS displacement_ITER21 FLOAT
 -2.361701e-04  -1.798317e-03  0 
 -2.368357e-04  -2.036045e-03  0 
 -1.412035e-04  -1.798173e-03  0 
 -4.631404e-05  -1.798124e-03  0 
 4.854877e-05  -1.798124e-03  0 
 1.434382e-04  -1.798173e-03  0 
 2.384048e-04  -1.798317e-03  0 
 -1.416290e-04  -2.035959e-03  0 
 -4.645756e-05  -2.035890e-03  0 
 4.869229e-05  -2.035890e-03  0 
 1.438637e-04  -2.035959e-03  0 
 2.390704e-04  -2.036045e-03  0 
VECTORS displacement_ITER22 FLOAT
 -2.361701e-04  -1.798317e-03  0 
 -2.368357e-04  -2.036045e-03  0 
 -1.412035e-04  -1.798173e-03  0 
 -4.631405e-05  -1.798124e-03  0 
 4.854877e-05  -1.798124e-03  0 
 1.434382e-04  -1.798173e-03  0 
 2.384048e-04  -1.798317e-03  0 
 -1.416290e-04  -2.035959e-03  0 
 -4.645757e-05  -2.035890e-03  0 
 4.869228e-05  -2.035890e-03  0 
 1.438637e-04  -2.035959e-03  0 
 2.390704e-04  -2.036045e-03  0 
VECTORS displacement_ITER23 FLOAT
 -2.361701e-04  -1.798317e-03  0 
 -2.368357e-04  -2.036045e-03  0 
 -1.412035e-04  -1.798173e-03  0 
 -4.631406e-05  -1.798124e-03  0 
 4.854877e-05  -1.798124e-03  0 
 1.434382e-04  -1.798173e-03  0 
 2.384048e-04  -1.798317e-03  0 
 -1.416290e-04  -2.035959e-03  0 
 -4.645757e-05  -2.035890e-03  0 
 4.869229e-05  -2.035890e-03  0 
 1.438637e-04  -2.035959e-03  0 
 2.390704e-04  -2.036045e-03  0 
VECTORS displacement_ITER24 FLOAT
 -2.361701e-04  -1.798317e-03  0 
 -2.368357e-04  -2.036045e-03  0 
 -1.412035e-04  -1.798173e-03  0 
 -4.631406e-05  -1.798124e-03  0 
 4.854877e-05  -1.798124e-03  0 
 1.434382e-04  -1.798173e-03  0 
 2.384048e-04  -1.798317e-03  0 
 -1.416290e-04  -2.035959e-03  0 
 -4.645757e-05  -2.035890e-03  0 
 4.869229e-05  -2.035890e-03  0 
 1.438637e-04  -2.035959e-03  0 
 2.390704e-04  -2.036045e-03  0 
VECTORS displacement_ITER25 FLOAT
 -2.361701e-04  -1.798317e-03  0 
 -2.368357e-04  -2.036045e-03  0 
 -1.412035e-04  -1.798173e-03  0 
 -4.631405e-05  -1.798124e-03  0 
 4.854877e-05  -1.798124e-03  0 
 1.434382e-04  -1.798173e-03  0 
 2.384048e-04  -1.798317e-03  0 
 -1.416290e-04  -2.035959e-03  0 
 -4.645757e-05  -2.035890e-03  0 
 4.869229e-05  -2.035890e-03  0 
 1.438637e-04  -2.035959e-03  0 
 2.390704e-04  -2.036045e-03  0 
CELL_DATA 5
TENSORS element_stresses FLOAT
 -1.009661e-03  -6.234798e-05  0 
 -6.234798e-05  2.714459e-04  0 
 0  0  0 

 -5.285573e-04  -3.078141e-04  0 
 -3.078141e-04  1.348058e-04  0 
 0  0  0 

 8.097754e-10  -3.846769e-04  0 
 -3.846769e-04  1.624015e-09  0 
 0  0  0 

 5.285580e-04  -3.078140e-04  0 
 -3.078140e-04  -1.348037e-04  0 
 0  0  0 

 1.009659e-03  -6.234707e-05  0 
 -6.234707e-05  -2.714456e-04  0 
 0  0  0 

TENSORS element_stresses FLOAT
 -1.009661e-03  -6.234798e-05  0 
 -6.234798e-05  2.714459e-04  0 
 0  0  0 

 -5.285573e-04  -3.078141e-04  0 
 -3.078141e-04  1.348058e-04  0 
 0  0  0 

 8.097754e-10  -3.846769e-04  0 
 -3.846769e-04  1.624015e-09  0 
 0  0  0 

 5.285580e-04  -3.078140e-04  0 
 -3.078140e-04  -1.348037e-04  0 
 0  0  0 

 1.009659e-03  -6.234707e-05  0 
 -6.234707e-05  -2.714456e-04  0 
 0  0  0 

