# vtk DataFile Version 3.1
this is an vtk file created by FEMAC
ASCII
DATASET UNSTRUCTURED_GRID
POINTS 12 FLOAT
0.500000 0.000000 0.000000
1.000000 0.000000 0.000000
0.500000 0.200000 0.000000
0.500000 0.400000 0.000000
0.500000 0.600000 0.000000
0.500000 0.800000 0.000000
0.500000 1.000000 0.000000
1.000000 0.200000 0.000000
1.000000 0.400000 0.000000
1.000000 0.600000 0.000000
1.000000 0.800000 0.000000
1.000000 1.000000 0.000000
CELLS 5 25 
4 0 1 7 2
4 2 7 8 3
4 3 8 9 4
4 4  9 10  5
4 5 10 11  6
CELL_TYPES 5
9 9 9 9 9 
POINT_DATA 12
VECTORS displacement_ITER1 FLOAT
 -7.086647e-05  -4.298954e-05  0 
 -7.785751e-05  -1.192420e-04  0 
 -4.169329e-05  -4.182397e-05  0 
 -1.265715e-05  -4.135941e-05  0 
 1.616264e-05  -4.141674e-05  0 
 4.505770e-05  -4.192718e-05  0 
 7.374679e-05  -4.293903e-05  0 
 -4.559749e-05  -1.182691e-04  0 
 -1.402650e-05  -1.178290e-04  0 
 1.736531e-05  -1.178091e-04  0 
 4.889738e-05  -1.182185e-04  0 
 8.112557e-05  -1.191929e-04  0 
VECTORS displacement_ITER2 FLOAT
 -7.117245e-05  -4.292236e-05  0 
 -7.800836e-05  -1.190108e-04  0 
 -4.203991e-05  -4.165929e-05  0 
 -1.315947e-05  -4.118237e-05  0 
 1.550517e-05  -4.129559e-05  0 
 4.423358e-05  -4.191718e-05  0 
 7.284217e-05  -4.304694e-05  0 
 -4.615697e-05  -1.179381e-04  0 
 -1.464090e-05  -1.173384e-04  0 
 1.677874e-05  -1.172587e-04  0 
 4.826683e-05  -1.177262e-04  0 
 8.019118e-05  -1.187926e-04  0 
VECTORS displacement_ITER3 FLOAT
 -7.123437e-05  -4.313660e-05  0 
 -7.803612e-05  -1.193662e-04  0 
 -4.202715e-05  -4.187153e-05  0 
 -1.309689e-05  -4.140429e-05  0 
 1.562640e-05  -4.154010e-05  0 
 4.438148e-05  -4.219434e-05  0 
 7.301506e-05  -4.334056e-05  0 
 -4.621121e-05  -1.182763e-04  0 
 -1.457809e-05  -1.176376e-04  0 
 1.695580e-05  -1.175669e-04  0 
 4.848443e-05  -1.180853e-04  0 
 8.030827e-05  -1.191964e-04  0 
VECTORS displacement_ITER4 FLOAT
 -7.143588e-05  -4.364110e-05  0 
 -7.821141e-05  -1.201262e-04  0 
 -4.212946e-05  -4.241566e-05  0 
 -1.310204e-05  -4.196818e-05  0 
 1.572738e-05  -4.212003e-05  0 
 4.455494e-05  -4.278494e-05  0 
 7.324246e-05  -4.390575e-05  0 
 -4.632026e-05  -1.190482e-04  0 
 -1.456985e-05  -1.184029e-04  0 
 1.706630e-05  -1.183281e-04  0 
 4.866576e-05  -1.188449e-04  0 
 8.050881e-05  -1.199591e-04  0 
VECTORS displacement_ITER5 FLOAT
 -7.168081e-05  -4.411998e-05  0 
 -7.842655e-05  -1.208430e-04  0 
 -4.228684e-05  -4.293826e-05  0 
 -1.318077e-05  -4.251161e-05  0 
 1.573360e-05  -4.268222e-05  0 
 4.461545e-05  -4.336064e-05  0 
 7.334783e-05  -4.445243e-05  0 
 -4.647734e-05  -1.197759e-04  0 
 -1.463937e-05  -1.191235e-04  0 
 1.706944e-05  -1.190329e-04  0 
 4.872369e-05  -1.195307e-04  0 
 8.059973e-05  -1.206388e-04  0 
VECTORS displacement_ITER6 FLOAT
 -7.174145e-05  -4.415702e-05  0 
 -7.847342e-05  -1.209451e-04  0 
 -4.231675e-05  -4.299162e-05  0 
 -1.319731e-05  -4.257295e-05  0 
 1.572871e-05  -4.275466e-05  0 
 4.460856e-05  -4.344372e-05  0 
 7.334308e-05  -4.452449e-05  0 
 -4.650955e-05  -1.198782e-04  0 
 -1.465438e-05  -1.192193e-04  0 
 1.706211e-05  -1.191177e-04  0 
 4.871643e-05  -1.196048e-04  0 
 8.059276e-05  -1.207116e-04  0 
VECTORS displacement_ITER7 FLOAT
 -7.174040e-05  -4.400312e-05  0 
 -7.845782e-05  -1.208280e-04  0 
 -4.228494e-05  -4.285143e-05  0 
 -1.316747e-05  -4.244112e-05  0 
 1.574964e-05  -4.263817e-05  0 
 4.460334e-05  -4.334296e-05  0 
 7.332187e-05  -4.441447e-05  0 
 -4.648446e-05  -1.197562e-04  0 
 -1.462429e-05  -1.190861e-04  0 
 1.708207e-05  -1.189703e-04  0 
 4.871411e-05  -1.194473e-04  0 
 8.057087e-05  -1.205570e-04  0 
VECTORS displacement_ITER8 FLOAT
 -7.173140e-05  -4.387451e-05  0 
 -7.844046e-05  -1.207234e-04  0 
 -4.225475e-05  -4.273007e-05  0 
 -1.313947e-05  -4.232724e-05  0 
 1.576942e-05  -4.253635e-05  0 
 4.460212e-05  -4.325214e-05  0 
 7.330617e-05  -4.431984e-05  0 
 -4.646027e-05  -1.196467e-04  0 
 -1.459578e-05  -1.189667e-04  0 
 1.710249e-05  -1.188404e-04  0 
 4.871638e-05  -1.193117e-04  0 
 8.055421e-05  -1.204247e-04  0 
VECTORS displacement_ITER9 FLOAT
 -7.174202e-05  -4.382975e-05  0 
 -7.844773e-05  -1.207032e-04  0 
 -4.225176e-05  -4.268851e-05  0 
 -1.313431e-05  -4.229318e-05  0 
 1.577267e-05  -4.251132e-05  0 
 4.459513e-05  -4.323331e-05  0 
 7.329095e-05  -4.430121e-05  0 
 -4.646115e-05  -1.196229e-04  0 
 -1.458946e-05  -1.189350e-04  0 
 1.710679e-05  -1.188012e-04  0 
 4.871191e-05  -1.192686e-04  0 
 8.053754e-05  -1.203832e-04  0 
VECTORS displacement_ITER10 FLOAT
 -7.176910e-05  -4.380628e-05  0 
 -7.847205e-05  -1.207174e-04  0 
 -4.226198e-05  -4.266811e-05  0 
 -1.313823e-05  -4.228410e-05  0 
 1.576937e-05  -4.251419e-05  0 
 4.458233e-05  -4.324297e-05  0 
 7.326871e-05  -4.431286e-05  0 
 -4.647524e-05  -1.196332e-04  0 
 -1.459146e-05  -1.189354e-04  0 
 1.710449e-05  -1.187911e-04  0 
 4.870146e-05  -1.192523e-04  0 
 8.051341e-05  -1.203672e-04  0 
VECTORS displacement_ITER11 FLOAT
 -7.178837e-05  -4.378326e-05  0 
 -7.848971e-05  -1.207261e-04  0 
 -4.226728e-05  -4.264706e-05  0 
 -1.313648e-05  -4.227272e-05  0 
 1.577212e-05  -4.251261e-05  0 
 4.457793e-05  -4.324641e-05  0 
 7.325505e-05  -4.431850e-05  0 
 -4.648241e-05  -1.196391e-04  0 
 -1.458834e-05  -1.189338e-04  0 
 1.710717e-05  -1.187806e-04  0 
 4.869779e-05  -1.192352e-04  0 
 8.049902e-05  -1.203488e-04  0 
VECTORS displacement_ITER12 FLOAT
 -7.179298e-05  -4.374674e-05  0 
 -7.849391e-05  -1.207131e-04  0 
 -4.226075e-05  -4.261177e-05  0 
 -1.312307e-05  -4.224461e-05  0 
 1.578564e-05  -4.249200e-05  0 
 4.458530e-05  -4.322974e-05  0 
 7.325237e-05  -4.430383e-05  0 
 -4.647600e-05  -1.196242e-04  0 
 -1.457444e-05  -1.189135e-04  0 
 1.711997e-05  -1.187529e-04  0 
 4.870461e-05  -1.192013e-04  0 
 8.049684e-05  -1.203127e-04  0 
VECTORS displacement_ITER13 FLOAT
 -7.179586e-05  -4.373587e-05  0 
 -7.849808e-05  -1.207137e-04  0 
 -4.225960e-05  -4.260181e-05  0 
 -1.311813e-05  -4.223734e-05  0 
 1.579036e-05  -4.248813e-05  0 
 4.458758e-05  -4.322851e-05  0 
 7.324946e-05  -4.430396e-05  0 
 -4.647422e-05  -1.196236e-04  0 
 -1.456950e-05  -1.189100e-04  0 
 1.712491e-05  -1.187458e-04  0 
 4.870639e-05  -1.191916e-04  0 
 8.049411e-05  -1.203019e-04  0 
VECTORS displacement_ITER14 FLOAT
 -7.180137e-05  -4.373728e-05  0 
 -7.850516e-05  -1.207232e-04  0 
 -4.226338e-05  -4.260411e-05  0 
 -1.311941e-05  -4.224110e-05  0 
 1.578886e-05  -4.249420e-05  0 
 4.458481e-05  -4.323695e-05  0 
 7.324349e-05  -4.431355e-05  0 
 -4.647733e-05  -1.196321e-04  0 
 -1.457075e-05  -1.189165e-04  0 
 1.712395e-05  -1.187498e-04  0 
 4.870328e-05  -1.191939e-04  0 
 8.048787e-05  -1.203031e-04  0 
VECTORS displacement_ITER15 FLOAT
 -7.180218e-05  -4.373342e-05  0 
 -7.850668e-05  -1.207228e-04  0 
 -4.226322e-05  -4.260061e-05  0 
 -1.311800e-05  -4.223809e-05  0 
 1.579003e-05  -4.249241e-05  0 
 4.458506e-05  -4.323657e-05  0 
 7.324155e-05  -4.431382e-05  0 
 -4.647674e-05  -1.196313e-04  0 
 -1.456952e-05  -1.189147e-04  0 
 1.712526e-05  -1.187468e-04  0 
 4.870333e-05  -1.191896e-04  0 
 8.048572e-05  -1.202978e-04  0 
VECTORS displacement_ITER16 FLOAT
 -7.180283e-05  -4.373136e-05  0 
 -7.850764e-05  -1.207232e-04  0 
 -4.226307e-05  -4.259869e-05  0 
 -1.311702e-05  -4.223659e-05  0 
 1.579118e-05  -4.249162e-05  0 
 4.458567e-05  -4.323657e-05  0 
 7.324085e-05  -4.431434e-05  0 
 -4.647642e-05  -1.196314e-04  0 
 -1.456875e-05  -1.189143e-04  0 
 1.712646e-05  -1.187455e-04  0 
 4.870390e-05  -1.191875e-04  0 
 8.048486e-05  -1.202950e-04  0 
VECTORS displacement_ITER17 FLOAT
 -7.180339e-05  -4.373040e-05  0 
 -7.850835e-05  -1.207231e-04  0 
 -4.226335e-05  -4.259781e-05  0 
 -1.311709e-05  -4.223599e-05  0 
 1.579109e-05  -4.249135e-05  0 
 4.458519e-05  -4.323665e-05  0 
 7.323980e-05  -4.431473e-05  0 
 -4.647663e-05  -1.196312e-04  0 
 -1.456883e-05  -1.189139e-04  0 
 1.712643e-05  -1.187448e-04  0 
 4.870343e-05  -1.191864e-04  0 
 8.048366e-05  -1.202935e-04  0 
VECTORS displacement_ITER18 FLOAT
 -7.180352e-05  -4.372991e-05  0 
 -7.850847e-05  -1.207231e-04  0 
 -4.226328e-05  -4.259738e-05  0 
 -1.311691e-05  -4.223566e-05  0 
 1.579128e-05  -4.249113e-05  0 
 4.458526e-05  -4.323655e-05  0 
 7.323968e-05  -4.431471e-05  0 
 -4.647656e-05  -1.196311e-04  0 
 -1.456865e-05  -1.189137e-04  0 
 1.712662e-05  -1.187445e-04  0 
 4.870351e-05  -1.191860e-04  0 
 8.048352e-05  -1.202930e-04  0 
VECTORS displacement_ITER19 FLOAT
 -7.180361e-05  -4.372970e-05  0 
 -7.850855e-05  -1.207231e-04  0 
 -4.226328e-05  -4.259720e-05  0 
 -1.311687e-05  -4.223555e-05  0 
 1.579131e-05  -4.249106e-05  0 
 4.458526e-05  -4.323651e-05  0 
 7.323962e-05  -4.431468e-05  0 
 -4.647657e-05  -1.196311e-04  0 
 -1.456858e-05  -1.189136e-04  0 
 1.712663e-05  -1.187444e-04  0 
 4.870350e-05  -1.191858e-04  0 
 8.048345e-05  -1.202928e-04  0 
VECTORS displacement_ITER20 FLOAT
 -7.180368e-05  -4.372962e-05  0 
 -7.850862e-05  -1.207231e-04  0 
 -4.226330e-05  -4.259712e-05  0 
 -1.311688e-05  -4.223551e-05  0 
 1.579130e-05  -4.249105e-05  0 
 4.458523e-05  -4.323652e-05  0 
 7.323957e-05  -4.431468e-05  0 
 -4.647660e-05  -1.196311e-04  0 
 -1.456857e-05  -1.189136e-04  0 
 1.712662e-05  -1.187443e-04  0 
 4.870348e-05  -1.191857e-04  0 
 8.048341e-05  -1.202928e-04  0 
VECTORS displacement_ITER21 FLOAT
 -7.180369e-05  -4.372956e-05  0 
 -7.850863e-05  -1.207231e-04  0 
 -4.226328e-05  -4.259708e-05  0 
 -1.311686e-05  -4.223548e-05  0 
 1.579133e-05  -4.249103e-05  0 
 4.458526e-05  -4.323649e-05  0 
 7.323959e-05  -4.431465e-05  0 
 -4.647659e-05  -1.196311e-04  0 
 -1.456854e-05  -1.189136e-04  0 
 1.712665e-05  -1.187443e-04  0 
 4.870350e-05  -1.191857e-04  0 
 8.048344e-05  -1.202928e-04  0 
VECTORS displacement_ITER22 FLOAT
 -7.180370e-05  -4.372956e-05  0 
 -7.850864e-05  -1.207231e-04  0 
 -4.226328e-05  -4.259708e-05  0 
 -1.311686e-05  -4.223549e-05  0 
 1.579133e-05  -4.249104e-05  0 
 4.458525e-05  -4.323651e-05  0 
 7.323958e-05  -4.431465e-05  0 
 -4.647659e-05  -1.196311e-04  0 
 -1.456854e-05  -1.189136e-04  0 
 1.712664e-05  -1.187443e-04  0 
 4.870349e-05  -1.191857e-04  0 
 8.048343e-05  -1.202928e-04  0 
VECTORS displacement_ITER23 FLOAT
 -7.180371e-05  -4.372957e-05  0 
 -7.850864e-05  -1.207231e-04  0 
 -4.226328e-05  -4.259709e-05  0 
 -1.311686e-05  -4.223549e-05  0 
 1.579133e-05  -4.249105e-05  0 
 4.458524e-05  -4.323651e-05  0 
 7.323958e-05  -4.431466e-05  0 
 -4.647660e-05  -1.196311e-04  0 
 -1.456854e-05  -1.189136e-04  0 
 1.712664e-05  -1.187443e-04  0 
 4.870349e-05  -1.191857e-04  0 
 8.048343e-05  -1.202928e-04  0 
VECTORS displacement_ITER24 FLOAT
 -7.180370e-05  -4.372957e-05  0 
 -7.850864e-05  -1.207231e-04  0 
 -4.226328e-05  -4.259709e-05  0 
 -1.311686e-05  -4.223549e-05  0 
 1.579134e-05  -4.249105e-05  0 
 4.458525e-05  -4.323651e-05  0 
 7.323959e-05  -4.431465e-05  0 
 -4.647659e-05  -1.196311e-04  0 
 -1.456854e-05  -1.189136e-04  0 
 1.712665e-05  -1.187443e-04  0 
 4.870350e-05  -1.191857e-04  0 
 8.048343e-05  -1.202928e-04  0 
VECTORS displacement_ITER25 FLOAT
 -7.180370e-05  -4.372957e-05  0 
 -7.850864e-05  -1.207231e-04  0 
 -4.226328e-05  -4.259709e-05  0 
 -1.311686e-05  -4.223550e-05  0 
 1.579133e-05  -4.249105e-05  0 
 4.458525e-05  -4.323652e-05  0 
 7.323959e-05  -4.431466e-05  0 
 -4.647659e-05  -1.196311e-04  0 
 -1.456854e-05  -1.189136e-04  0 
 1.712665e-05  -1.187443e-04  0 
 4.870350e-05  -1.191857e-04  0 
 8.048343e-05  -1.202928e-04  0 
CELL_DATA 5
TENSORS element_stresses FLOAT
 -1.016469e-02  -7.417926e-05  0 
 -7.417926e-05  2.511869e-03  0 
 0  0  0 

 -5.335887e-03  -8.276406e-04  0 
 -8.276406e-04  1.097007e-03  0 
 0  0  0 

 -1.989750e-04  -1.094556e-03  0 
 -1.094556e-03  -2.753607e-04  0 
 0  0  0 

 5.014736e-03  -9.811978e-04  0 
 -9.811978e-04  -1.462750e-03  0 
 0  0  0 

 1.068481e-02  -6.474267e-04  0 
 -6.474267e-04  -2.257600e-03  0 
 0  0  0 

TENSORS element_stresses FLOAT
 -1.016469e-02  -7.417926e-05  0 
 -7.417926e-05  2.511869e-03  0 
 0  0  0 

 -5.335887e-03  -8.276406e-04  0 
 -8.276406e-04  1.097007e-03  0 
 0  0  0 

 -1.989750e-04  -1.094556e-03  0 
 -1.094556e-03  -2.753607e-04  0 
 0  0  0 

 5.014736e-03  -9.811978e-04  0 
 -9.811978e-04  -1.462750e-03  0 
 0  0  0 

 1.068481e-02  -6.474267e-04  0 
 -6.474267e-04  -2.257600e-03  0 
 0  0  0 

