# vtk DataFile Version 3.1
this is an vtk file created by FEMAC
ASCII
DATASET UNSTRUCTURED_GRID
POINTS 12 FLOAT
4.500000 0.000000 0.000000
5.000000 0.000000 0.000000
4.500000 0.200000 0.000000
4.500000 0.400000 0.000000
4.500000 0.600000 0.000000
4.500000 0.800000 0.000000
4.500000 1.000000 0.000000
5.000000 0.200000 0.000000
5.000000 0.400000 0.000000
5.000000 0.600000 0.000000
5.000000 0.800000 0.000000
5.000000 1.000000 0.000000
CELLS 5 25 
4 0 1 7 2
4 2 7 8 3
4 3 8 9 4
4 4  9 10  5
4 5 10 11  6
CELL_TYPES 5
9 9 9 9 9 
POINT_DATA 12
VECTORS displacement_ITER1 FLOAT
 -2.313155e-04  -1.355865e-03  0 
 -2.327560e-04  -1.589517e-03  0 
 -1.381796e-04  -1.355669e-03  0 
 -4.511856e-05  -1.355598e-03  0 
 4.790077e-05  -1.355598e-03  0 
 1.409618e-04  -1.355669e-03  0 
 2.340977e-04  -1.355865e-03  0 
 -1.389586e-04  -1.589316e-03  0 
 -4.537292e-05  -1.589220e-03  0 
 4.815514e-05  -1.589220e-03  0 
 1.417408e-04  -1.589316e-03  0 
 2.355382e-04  -1.589517e-03  0 
VECTORS displacement_ITER2 FLOAT
 -2.278561e-04  -1.341983e-03  0 
 -2.292717e-04  -1.571952e-03  0 
 -1.361730e-04  -1.341756e-03  0 
 -4.459627e-05  -1.341693e-03  0 
 4.695063e-05  -1.341693e-03  0 
 1.385273e-04  -1.341756e-03  0 
 2.302105e-04  -1.341983e-03  0 
 -1.369994e-04  -1.571735e-03  0 
 -4.486854e-05  -1.571610e-03  0 
 4.722290e-05  -1.571610e-03  0 
 1.393537e-04  -1.571735e-03  0 
 2.316261e-04  -1.571952e-03  0 
VECTORS displacement_ITER3 FLOAT
 -2.264543e-04  -1.337967e-03  0 
 -2.278585e-04  -1.566539e-03  0 
 -1.353204e-04  -1.337724e-03  0 
 -4.430503e-05  -1.337663e-03  0 
 4.668543e-05  -1.337663e-03  0 
 1.377008e-04  -1.337724e-03  0 
 2.288347e-04  -1.337967e-03  0 
 -1.361682e-04  -1.566318e-03  0 
 -4.458489e-05  -1.566178e-03  0 
 4.696529e-05  -1.566178e-03  0 
 1.385486e-04  -1.566318e-03  0 
 2.302389e-04  -1.566539e-03  0 
VECTORS displacement_ITER4 FLOAT
 -2.260228e-04  -1.336893e-03  0 
 -2.274213e-04  -1.565006e-03  0 
 -1.350591e-04  -1.336638e-03  0 
 -4.422295e-05  -1.336567e-03  0 
 4.658567e-05  -1.336567e-03  0 
 1.374218e-04  -1.336638e-03  0 
 2.283855e-04  -1.336893e-03  0 
 -1.359181e-04  -1.564789e-03  0 
 -4.450654e-05  -1.564647e-03  0 
 4.686925e-05  -1.564647e-03  0 
 1.382808e-04  -1.564789e-03  0 
 2.297840e-04  -1.565006e-03  0 
VECTORS displacement_ITER5 FLOAT
 -2.258087e-04  -1.336286e-03  0 
 -2.272016e-04  -1.564124e-03  0 
 -1.349401e-04  -1.336020e-03  0 
 -4.420550e-05  -1.335937e-03  0 
 4.649626e-05  -1.335936e-03  0 
 1.372291e-04  -1.336017e-03  0 
 2.280955e-04  -1.336284e-03  0 
 -1.358079e-04  -1.563915e-03  0 
 -4.449314e-05  -1.563771e-03  0 
 4.678199e-05  -1.563771e-03  0 
 1.380967e-04  -1.563915e-03  0 
 2.294904e-04  -1.564124e-03  0 
VECTORS displacement_ITER6 FLOAT
 -2.257788e-04  -1.336167e-03  0 
 -2.271723e-04  -1.563947e-03  0 
 -1.349354e-04  -1.335898e-03  0 
 -4.422408e-05  -1.335812e-03  0 
 4.645450e-05  -1.335814e-03  0 
 1.371690e-04  -1.335902e-03  0 
 2.280169e-04  -1.336173e-03  0 
 -1.358056e-04  -1.563741e-03  0 
 -4.451068e-05  -1.563597e-03  0 
 4.674399e-05  -1.563597e-03  0 
 1.380395e-04  -1.563740e-03  0 
 2.294073e-04  -1.563946e-03  0 
VECTORS displacement_ITER7 FLOAT
 -2.257355e-04  -1.336150e-03  0 
 -2.271254e-04  -1.563890e-03  0 
 -1.348995e-04  -1.335877e-03  0 
 -4.419219e-05  -1.335784e-03  0 
 4.647698e-05  -1.335782e-03  0 
 1.371825e-04  -1.335873e-03  0 
 2.280148e-04  -1.336146e-03  0 
 -1.357718e-04  -1.563689e-03  0 
 -4.448186e-05  -1.563547e-03  0 
 4.676687e-05  -1.563548e-03  0 
 1.380547e-04  -1.563693e-03  0 
 2.294044e-04  -1.563895e-03  0 
VECTORS displacement_ITER8 FLOAT
 -2.257400e-04  -1.336143e-03  0 
 -2.271266e-04  -1.563877e-03  0 
 -1.349085e-04  -1.335868e-03  0 
 -4.420048e-05  -1.335772e-03  0 
 4.646715e-05  -1.335771e-03  0 
 1.371735e-04  -1.335866e-03  0 
 2.280027e-04  -1.336140e-03  0 
 -1.357816e-04  -1.563679e-03  0 
 -4.449326e-05  -1.563535e-03  0 
 4.675664e-05  -1.563535e-03  0 
 1.380462e-04  -1.563677e-03  0 
 2.293929e-04  -1.563875e-03  0 
VECTORS displacement_ITER9 FLOAT
 -2.257507e-04  -1.336121e-03  0 
 -2.271387e-04  -1.563857e-03  0 
 -1.349207e-04  -1.335846e-03  0 
 -4.421019e-05  -1.335748e-03  0 
 4.645933e-05  -1.335748e-03  0 
 1.371702e-04  -1.335847e-03  0 
 2.280014e-04  -1.336122e-03  0 
 -1.357934e-04  -1.563661e-03  0 
 -4.450217e-05  -1.563519e-03  0 
 4.675153e-05  -1.563519e-03  0 
 1.380430e-04  -1.563660e-03  0 
 2.293892e-04  -1.563856e-03  0 
VECTORS displacement_ITER10 FLOAT
 -2.257644e-04  -1.336087e-03  0 
 -2.271534e-04  -1.563828e-03  0 
 -1.349328e-04  -1.335811e-03  0 
 -4.421682e-05  -1.335710e-03  0 
 4.645696e-05  -1.335711e-03  0 
 1.371739e-04  -1.335813e-03  0 
 2.280071e-04  -1.336089e-03  0 
 -1.358048e-04  -1.563634e-03  0 
 -4.450888e-05  -1.563495e-03  0 
 4.675133e-05  -1.563496e-03  0 
 1.380463e-04  -1.563635e-03  0 
 2.293936e-04  -1.563829e-03  0 
VECTORS displacement_ITER11 FLOAT
 -2.257756e-04  -1.336069e-03  0 
 -2.271634e-04  -1.563815e-03  0 
 -1.349414e-04  -1.335792e-03  0 
 -4.421995e-05  -1.335689e-03  0 
 4.645847e-05  -1.335689e-03  0 
 1.371799e-04  -1.335792e-03  0 
 2.280137e-04  -1.336069e-03  0 
 -1.358129e-04  -1.563622e-03  0 
 -4.451385e-05  -1.563486e-03  0 
 4.675237e-05  -1.563486e-03  0 
 1.380514e-04  -1.563622e-03  0 
 2.294016e-04  -1.563815e-03  0 
VECTORS displacement_ITER12 FLOAT
 -2.257805e-04  -1.336068e-03  0 
 -2.271682e-04  -1.563818e-03  0 
 -1.349454e-04  -1.335790e-03  0 
 -4.422076e-05  -1.335686e-03  0 
 4.646190e-05  -1.335686e-03  0 
 1.371863e-04  -1.335790e-03  0 
 2.280207e-04  -1.336067e-03  0 
 -1.358163e-04  -1.563626e-03  0 
 -4.451518e-05  -1.563490e-03  0 
 4.675554e-05  -1.563490e-03  0 
 1.380571e-04  -1.563625e-03  0 
 2.294095e-04  -1.563817e-03  0 
VECTORS displacement_ITER13 FLOAT
 -2.257804e-04  -1.336066e-03  0 
 -2.271692e-04  -1.563815e-03  0 
 -1.349461e-04  -1.335788e-03  0 
 -4.422189e-05  -1.335683e-03  0 
 4.646207e-05  -1.335684e-03  0 
 1.371864e-04  -1.335788e-03  0 
 2.280208e-04  -1.336066e-03  0 
 -1.358168e-04  -1.563623e-03  0 
 -4.451529e-05  -1.563489e-03  0 
 4.675594e-05  -1.563489e-03  0 
 1.380571e-04  -1.563623e-03  0 
 2.294092e-04  -1.563816e-03  0 
VECTORS displacement_ITER14 FLOAT
 -2.257825e-04  -1.336063e-03  0 
 -2.271714e-04  -1.563812e-03  0 
 -1.349486e-04  -1.335785e-03  0 
 -4.422510e-05  -1.335680e-03  0 
 4.645938e-05  -1.335680e-03  0 
 1.371827e-04  -1.335785e-03  0 
 2.280165e-04  -1.336063e-03  0 
 -1.358193e-04  -1.563619e-03  0 
 -4.451830e-05  -1.563485e-03  0 
 4.675247e-05  -1.563485e-03  0 
 1.380534e-04  -1.563619e-03  0 
 2.294056e-04  -1.563812e-03  0 
VECTORS displacement_ITER15 FLOAT
 -2.257822e-04  -1.336065e-03  0 
 -2.271712e-04  -1.563814e-03  0 
 -1.349481e-04  -1.335787e-03  0 
 -4.422504e-05  -1.335683e-03  0 
 4.645990e-05  -1.335683e-03  0 
 1.371829e-04  -1.335787e-03  0 
 2.280169e-04  -1.336065e-03  0 
 -1.358190e-04  -1.563621e-03  0 
 -4.451780e-05  -1.563487e-03  0 
 4.675267e-05  -1.563487e-03  0 
 1.380538e-04  -1.563621e-03  0 
 2.294059e-04  -1.563814e-03  0 
VECTORS displacement_ITER16 FLOAT
 -2.257819e-04  -1.336064e-03  0 
 -2.271710e-04  -1.563814e-03  0 
 -1.349478e-04  -1.335787e-03  0 
 -4.422475e-05  -1.335682e-03  0 
 4.646024e-05  -1.335682e-03  0 
 1.371832e-04  -1.335787e-03  0 
 2.280173e-04  -1.336065e-03  0 
 -1.358187e-04  -1.563621e-03  0 
 -4.451736e-05  -1.563487e-03  0 
 4.675283e-05  -1.563487e-03  0 
 1.380541e-04  -1.563621e-03  0 
 2.294063e-04  -1.563814e-03  0 
VECTORS displacement_ITER17 FLOAT
 -2.257823e-04  -1.336065e-03  0 
 -2.271713e-04  -1.563814e-03  0 
 -1.349481e-04  -1.335787e-03  0 
 -4.422502e-05  -1.335683e-03  0 
 4.645978e-05  -1.335683e-03  0 
 1.371829e-04  -1.335787e-03  0 
 2.280170e-04  -1.336065e-03  0 
 -1.358190e-04  -1.563622e-03  0 
 -4.451767e-05  -1.563488e-03  0 
 4.675244e-05  -1.563488e-03  0 
 1.380537e-04  -1.563622e-03  0 
 2.294060e-04  -1.563814e-03  0 
VECTORS displacement_ITER18 FLOAT
 -2.257822e-04  -1.336065e-03  0 
 -2.271711e-04  -1.563814e-03  0 
 -1.349479e-04  -1.335787e-03  0 
 -4.422487e-05  -1.335683e-03  0 
 4.645966e-05  -1.335683e-03  0 
 1.371827e-04  -1.335787e-03  0 
 2.280169e-04  -1.336065e-03  0 
 -1.358188e-04  -1.563622e-03  0 
 -4.451762e-05  -1.563487e-03  0 
 4.675242e-05  -1.563487e-03  0 
 1.380536e-04  -1.563621e-03  0 
 2.294059e-04  -1.563814e-03  0 
VECTORS displacement_ITER19 FLOAT
 -2.257822e-04  -1.336065e-03  0 
 -2.271712e-04  -1.563814e-03  0 
 -1.349480e-04  -1.335787e-03  0 
 -4.422487e-05  -1.335683e-03  0 
 4.645964e-05  -1.335683e-03  0 
 1.371827e-04  -1.335787e-03  0 
 2.280169e-04  -1.336065e-03  0 
 -1.358188e-04  -1.563622e-03  0 
 -4.451766e-05  -1.563487e-03  0 
 4.675243e-05  -1.563487e-03  0 
 1.380536e-04  -1.563622e-03  0 
 2.294059e-04  -1.563814e-03  0 
VECTORS displacement_ITER20 FLOAT
 -2.257822e-04  -1.336065e-03  0 
 -2.271712e-04  -1.563815e-03  0 
 -1.349480e-04  -1.335788e-03  0 
 -4.422489e-05  -1.335683e-03  0 
 4.645961e-05  -1.335683e-03  0 
 1.371827e-04  -1.335788e-03  0 
 2.280169e-04  -1.336065e-03  0 
 -1.358188e-04  -1.563622e-03  0 
 -4.451769e-05  -1.563488e-03  0 
 4.675240e-05  -1.563488e-03  0 
 1.380535e-04  -1.563622e-03  0 
 2.294059e-04  -1.563815e-03  0 
VECTORS displacement_ITER21 FLOAT
 -2.257823e-04  -1.336065e-03  0 
 -2.271712e-04  -1.563815e-03  0 
 -1.349480e-04  -1.335787e-03  0 
 -4.422488e-05  -1.335683e-03  0 
 4.645963e-05  -1.335683e-03  0 
 1.371827e-04  -1.335788e-03  0 
 2.280170e-04  -1.336065e-03  0 
 -1.358189e-04  -1.563622e-03  0 
 -4.451768e-05  -1.563488e-03  0 
 4.675242e-05  -1.563487e-03  0 
 1.380536e-04  -1.563622e-03  0 
 2.294059e-04  -1.563814e-03  0 
VECTORS displacement_ITER22 FLOAT
 -2.257823e-04  -1.336065e-03  0 
 -2.271712e-04  -1.563815e-03  0 
 -1.349480e-04  -1.335788e-03  0 
 -4.422489e-05  -1.335683e-03  0 
 4.645963e-05  -1.335683e-03  0 
 1.371827e-04  -1.335788e-03  0 
 2.280170e-04  -1.336065e-03  0 
 -1.358189e-04  -1.563622e-03  0 
 -4.451768e-05  -1.563488e-03  0 
 4.675241e-05  -1.563488e-03  0 
 1.380536e-04  -1.563622e-03  0 
 2.294059e-04  -1.563815e-03  0 
VECTORS displacement_ITER23 FLOAT
 -2.257823e-04  -1.336065e-03  0 
 -2.271712e-04  -1.563815e-03  0 
 -1.349480e-04  -1.335787e-03  0 
 -4.422489e-05  -1.335683e-03  0 
 4.645962e-05  -1.335683e-03  0 
 1.371827e-04  -1.335787e-03  0 
 2.280170e-04  -1.336065e-03  0 
 -1.358189e-04  -1.563622e-03  0 
 -4.451768e-05  -1.563487e-03  0 
 4.675241e-05  -1.563487e-03  0 
 1.380536e-04  -1.563622e-03  0 
 2.294059e-04  -1.563814e-03  0 
VECTORS displacement_ITER24 FLOAT
 -2.257823e-04  -1.336065e-03  0 
 -2.271712e-04  -1.563815e-03  0 
 -1.349480e-04  -1.335787e-03  0 
 -4.422489e-05  -1.335683e-03  0 
 4.645963e-05  -1.335683e-03  0 
 1.371827e-04  -1.335787e-03  0 
 2.280170e-04  -1.336065e-03  0 
 -1.358189e-04  -1.563622e-03  0 
 -4.451768e-05  -1.563487e-03  0 
 4.675241e-05  -1.563487e-03  0 
 1.380536e-04  -1.563622e-03  0 
 2.294059e-04  -1.563814e-03  0 
VECTORS displacement_ITER25 FLOAT
 -2.257823e-04  -1.336065e-03  0 
 -2.271712e-04  -1.563815e-03  0 
 -1.349480e-04  -1.335787e-03  0 
 -4.422489e-05  -1.335683e-03  0 
 4.645962e-05  -1.335683e-03  0 
 1.371827e-04  -1.335788e-03  0 
 2.280170e-04  -1.336065e-03  0 
 -1.358189e-04  -1.563622e-03  0 
 -4.451768e-05  -1.563487e-03  0 
 4.675241e-05  -1.563487e-03  0 
 1.380536e-04  -1.563622e-03  0 
 2.294059e-04  -1.563814e-03  0 
CELL_DATA 5
TENSORS element_stresses FLOAT
 -2.095629e-03  -9.005074e-05  0 
 -9.005074e-05  5.472653e-04  0 
 0  0  0 

 -1.082022e-03  -4.446182e-04  0 
 -4.446182e-04  2.720869e-04  0 
 0  0  0 

 -6.951932e-09  -5.556464e-04  0 
 -5.556464e-04  -1.717562e-08  0 
 0  0  0 

 1.082014e-03  -4.446227e-04  0 
 -4.446227e-04  -2.721121e-04  0 
 0  0  0 

 2.095644e-03  -9.006198e-05  0 
 -9.006198e-05  -5.472718e-04  0 
 0  0  0 

TENSORS element_stresses FLOAT
 -2.095629e-03  -9.005074e-05  0 
 -9.005074e-05  5.472653e-04  0 
 0  0  0 

 -1.082022e-03  -4.446182e-04  0 
 -4.446182e-04  2.720869e-04  0 
 0  0  0 

 -6.951932e-09  -5.556464e-04  0 
 -5.556464e-04  -1.717562e-08  0 
 0  0  0 

 1.082014e-03  -4.446227e-04  0 
 -4.446227e-04  -2.721121e-04  0 
 0  0  0 

 2.095644e-03  -9.006198e-05  0 
 -9.006198e-05  -5.472718e-04  0 
 0  0  0 

