# vtk DataFile Version 3.1
this is an vtk file created by FEMAC
ASCII
DATASET UNSTRUCTURED_GRID
POINTS 102 FLOAT
0.000000 0.000000 0.000000
0.500000 0.000000 0.000000
1.000000 0.000000 0.000000
1.500000 0.000000 0.000000
2.000000 0.000000 0.000000
2.500000 0.000000 0.000000
3.000000 0.000000 0.000000
3.500000 0.000000 0.000000
4.000000 0.000000 0.000000
4.500000 0.000000 0.000000
5.000000 0.000000 0.000000
5.500000 0.000000 0.000000
6.000000 0.000000 0.000000
6.500000 0.000000 0.000000
7.000000 0.000000 0.000000
7.500000 0.000000 0.000000
8.000000 0.000000 0.000000
0.000000 0.200000 0.000000
0.500000 0.200000 0.000000
0.000000 0.400000 0.000000
0.500000 0.400000 0.000000
0.000000 0.600000 0.000000
0.500000 0.600000 0.000000
0.000000 0.800000 0.000000
0.500000 0.800000 0.000000
0.000000 1.000000 0.000000
0.500000 1.000000 0.000000
1.000000 0.200000 0.000000
1.000000 0.400000 0.000000
1.000000 0.600000 0.000000
1.000000 0.800000 0.000000
1.000000 1.000000 0.000000
1.500000 0.200000 0.000000
1.500000 0.400000 0.000000
1.500000 0.600000 0.000000
1.500000 0.800000 0.000000
1.500000 1.000000 0.000000
2.000000 0.200000 0.000000
2.000000 0.400000 0.000000
2.000000 0.600000 0.000000
2.000000 0.800000 0.000000
2.000000 1.000000 0.000000
2.500000 0.200000 0.000000
2.500000 0.400000 0.000000
2.500000 0.600000 0.000000
2.500000 0.800000 0.000000
2.500000 1.000000 0.000000
3.000000 0.200000 0.000000
3.000000 0.400000 0.000000
3.000000 0.600000 0.000000
3.000000 0.800000 0.000000
3.000000 1.000000 0.000000
3.500000 0.200000 0.000000
3.500000 0.400000 0.000000
3.500000 0.600000 0.000000
3.500000 0.800000 0.000000
3.500000 1.000000 0.000000
4.000000 0.200000 0.000000
4.000000 0.400000 0.000000
4.000000 0.600000 0.000000
4.000000 0.800000 0.000000
4.000000 1.000000 0.000000
4.500000 0.200000 0.000000
4.500000 0.400000 0.000000
4.500000 0.600000 0.000000
4.500000 0.800000 0.000000
4.500000 1.000000 0.000000
5.000000 0.200000 0.000000
5.000000 0.400000 0.000000
5.000000 0.600000 0.000000
5.000000 0.800000 0.000000
5.000000 1.000000 0.000000
5.500000 0.200000 0.000000
5.500000 0.400000 0.000000
5.500000 0.600000 0.000000
5.500000 0.800000 0.000000
5.500000 1.000000 0.000000
6.000000 0.200000 0.000000
6.000000 0.400000 0.000000
6.000000 0.600000 0.000000
6.000000 0.800000 0.000000
6.000000 1.000000 0.000000
6.500000 0.200000 0.000000
6.500000 0.400000 0.000000
6.500000 0.600000 0.000000
6.500000 0.800000 0.000000
6.500000 1.000000 0.000000
7.000000 0.200000 0.000000
7.000000 0.400000 0.000000
7.000000 0.600000 0.000000
7.000000 0.800000 0.000000
7.000000 1.000000 0.000000
7.500000 0.200000 0.000000
7.500000 0.400000 0.000000
7.500000 0.600000 0.000000
7.500000 0.800000 0.000000
7.500000 1.000000 0.000000
8.000000 0.200000 0.000000
8.000000 0.400000 0.000000
8.000000 0.600000 0.000000
8.000000 0.800000 0.000000
8.000000 1.000000 0.000000
CELLS 80 400 
4 0  1 18 17
4 17 18 20 19
4 19 20 22 21
4 21 22 24 23
4 23 24 26 25
4 1  2 27 18
4 18 27 28 20
4 20 28 29 22
4 22 29 30 24
4 24 30 31 26
4 2  3 32 27
4 27 32 33 28
4 28 33 34 29
4 29 34 35 30
4 30 35 36 31
4 3  4 37 32
4 32 37 38 33
4 33 38 39 34
4 34 39 40 35
4 35 40 41 36
4 4  5 42 37
4 37 42 43 38
4 38 43 44 39
4 39 44 45 40
4 40 45 46 41
4 5  6 47 42
4 42 47 48 43
4 43 48 49 44
4 44 49 50 45
4 45 50 51 46
4 6  7 52 47
4 47 52 53 48
4 48 53 54 49
4 49 54 55 50
4 50 55 56 51
4 7  8 57 52
4 52 57 58 53
4 53 58 59 54
4 54 59 60 55
4 55 60 61 56
4 8  9 62 57
4 57 62 63 58
4 58 63 64 59
4 59 64 65 60
4 60 65 66 61
4 9 10 67 62
4 62 67 68 63
4 63 68 69 64
4 64 69 70 65
4 65 70 71 66
4 10 11 72 67
4 67 72 73 68
4 68 73 74 69
4 69 74 75 70
4 70 75 76 71
4 11 12 77 72
4 72 77 78 73
4 73 78 79 74
4 74 79 80 75
4 75 80 81 76
4 12 13 82 77
4 77 82 83 78
4 78 83 84 79
4 79 84 85 80
4 80 85 86 81
4 13 14 87 82
4 82 87 88 83
4 83 88 89 84
4 84 89 90 85
4 85 90 91 86
4 14 15 92 87
4 87 92 93 88
4 88 93 94 89
4 89 94 95 90
4 90 95 96 91
4 15 16 97 92
4 92 97 98 93
4 93 98 99 94
4 94  99 100  95
4 95 100 101  96
CELL_TYPES 80
9 9 9 9 9 9 9 9 9 9 9 9 9 9 9 9 9 9 9 9 9 9 9 9 9 9 9 9 9 9 9 9 9 9 9 9 9 9 9 9 9 9 9 9 9 9 9 9 9 9 9 9 9 9 9 9 9 9 9 9 9 9 9 9 9 9 9 9 9 9 9 9 9 9 9 9 9 9 9 9 
POINT_DATA 102
SCALARS CONDID_1 FLOAT
LOOKUP_TABLE default
 1 
 0 
 0 
 0 
 0 
 0 
 0 
 0 
 0 
 0 
 0 
 0 
 0 
 0 
 0 
 0 
 0 
 0 
 0 
 0 
 0 
 0 
 0 
 0 
 0 
 0 
 0 
 0 
 0 
 0 
 0 
 0 
 0 
 0 
 0 
 0 
 0 
 0 
 0 
 0 
 0 
 0 
 0 
 0 
 0 
 0 
 0 
 0 
 0 
 0 
 0 
 0 
 0 
 0 
 0 
 0 
 0 
 0 
 0 
 0 
 0 
 0 
 0 
 0 
 0 
 0 
 0 
 0 
 0 
 0 
 0 
 0 
 0 
 0 
 0 
 0 
 0 
 0 
 0 
 0 
 0 
 0 
 0 
 0 
 0 
 0 
 0 
 0 
 0 
 0 
 0 
 0 
 0 
 0 
 0 
 0 
 0 
 0 
 0 
 0 
 0 
 0 
SCALARS CONDID_2 FLOAT
LOOKUP_TABLE default
 1 
 0 
 0 
 0 
 0 
 0 
 0 
 0 
 0 
 0 
 0 
 0 
 0 
 0 
 0 
 0 
 0 
 1 
 0 
 1 
 0 
 1 
 0 
 1 
 0 
 1 
 0 
 0 
 0 
 0 
 0 
 0 
 0 
 0 
 0 
 0 
 0 
 0 
 0 
 0 
 0 
 0 
 0 
 0 
 0 
 0 
 0 
 0 
 0 
 0 
 0 
 0 
 0 
 0 
 0 
 0 
 0 
 0 
 0 
 0 
 0 
 0 
 0 
 0 
 0 
 0 
 0 
 0 
 0 
 0 
 0 
 0 
 0 
 0 
 0 
 0 
 0 
 0 
 0 
 0 
 0 
 0 
 0 
 0 
 0 
 0 
 0 
 0 
 0 
 0 
 0 
 0 
 0 
 0 
 0 
 0 
 0 
 0 
 0 
 0 
 0 
 0 
SCALARS CONDID_3 FLOAT
LOOKUP_TABLE default
 1 
 1 
 1 
 1 
 1 
 1 
 1 
 1 
 1 
 1 
 1 
 1 
 1 
 1 
 1 
 1 
 1 
 1 
 1 
 1 
 1 
 1 
 1 
 1 
 1 
 1 
 1 
 1 
 1 
 1 
 1 
 1 
 1 
 1 
 1 
 1 
 1 
 1 
 1 
 1 
 1 
 1 
 1 
 1 
 1 
 1 
 1 
 1 
 1 
 1 
 1 
 1 
 1 
 1 
 1 
 1 
 1 
 1 
 1 
 1 
 1 
 1 
 1 
 1 
 1 
 1 
 1 
 1 
 1 
 1 
 1 
 1 
 1 
 1 
 1 
 1 
 1 
 1 
 1 
 1 
 1 
 1 
 1 
 1 
 1 
 1 
 1 
 1 
 1 
 1 
 1 
 1 
 1 
 1 
 1 
 1 
 1 
 1 
 1 
 1 
 1 
 1 
VECTORS displacement FLOAT
 0  0  0 
 -4.708223e-09  6.655554e-09  0 
 -3.195676e-09  -2.247557e-09  0 
 1.613463e-10  1.994573e-09  0 
 3.226838e-11  2.035279e-09  0 
 -1.078021e-10  2.128291e-09  0 
 1.685183e-10  1.989152e-09  0 
 -2.977060e-10  2.152455e-09  0 
 3.605975e-10  2.016245e-09  0 
 -4.889028e-10  2.178413e-09  0 
 5.517589e-10  2.042155e-09  0 
 -6.800772e-10  2.204343e-09  0 
 7.429328e-10  2.068086e-09  0 
 -8.714705e-10  2.229649e-09  0 
 9.362537e-10  2.093834e-09  0 
 -1.324963e-09  2.895777e-09  0 
 9.301893e-10  4.793807e-10  0 
 0  -7.154909e-07  0 
 5.905402e-10  4.715350e-09  0 
 0  -1.110188e-06  0 
 3.811990e-09  3.031810e-10  0 
 0  -1.323272e-06  0 
 4.436413e-09  -3.610640e-09  0 
 0  -1.428474e-06  0 
 1.796094e-09  -5.079349e-09  0 
 0  -1.460873e-06  0 
 -5.917797e-09  -2.737127e-09  0 
 3.287551e-10  -4.596156e-09  0 
 3.074460e-09  -3.350407e-09  0 
 2.742806e-09  -1.933002e-10  0 
 -3.541487e-10  3.670108e-09  0 
 -2.605215e-09  6.470343e-09  0 
 -2.298614e-10  -4.411823e-10  0 
 -1.524143e-10  -1.656057e-09  0 
 2.699081e-11  -1.587256e-09  0 
 2.070638e-10  -2.692247e-10  0 
 -4.107964e-12  2.206117e-09  0 
 2.994191e-10  -3.743457e-10  0 
 7.876519e-11  -1.632748e-09  0 
 -1.781328e-10  -1.679317e-09  0 
 -3.127182e-10  -4.917661e-10  0 
 7.137932e-11  1.895929e-09  0 
 -3.011144e-10  -3.607745e-10  0 
 -1.133335e-10  -1.641692e-09  0 
 1.177537e-10  -1.642529e-09  0 
 3.042031e-10  -3.627924e-10  0 
 1.093103e-10  2.126468e-09  0 
 3.894858e-10  -4.408846e-10  0 
 1.541388e-10  -1.675631e-09  0 
 -1.549152e-10  -1.674611e-09  0 
 -3.919432e-10  -4.380829e-10  0 
 -1.743037e-10  1.993090e-09  0 
 -3.857211e-10  -3.687241e-10  0 
 -1.402382e-10  -1.661707e-09  0 
 1.425971e-10  -1.661407e-09  0 
 3.883312e-10  -3.678061e-10  0 
 3.017546e-10  2.154162e-09  0 
 4.737701e-10  -4.463839e-10  0 
 1.791900e-10  -1.694704e-09  0 
 -1.816091e-10  -1.694435e-09  0 
 -4.763907e-10  -4.455445e-10  0 
 -3.645762e-10  2.017858e-09  0 
 -4.700825e-10  -3.751812e-10  0 
 -1.660940e-10  -1.681145e-09  0 
 1.684866e-10  -1.680864e-09  0 
 4.727004e-10  -3.743113e-10  0 
 4.929099e-10  2.180062e-09  0 
 5.581358e-10  -4.528818e-10  0 
 2.050769e-10  -1.714157e-09  0 
 -2.074684e-10  -1.713876e-09  0 
 -5.607537e-10  -4.520106e-10  0 
 -5.557677e-10  2.043805e-09  0 
 -5.544491e-10  -3.816632e-10  0 
 -1.919701e-10  -1.700592e-09  0 
 1.943626e-10  -1.700311e-09  0 
 5.570672e-10  -3.807925e-10  0 
 6.840856e-10  2.205993e-09  0 
 6.425025e-10  -4.593577e-10  0 
 2.309542e-10  -1.733611e-09  0 
 -2.333465e-10  -1.733329e-09  0 
 -6.451203e-10  -4.584866e-10  0 
 -7.469408e-10  2.069736e-09  0 
 -6.383268e-10  -3.890136e-10  0 
 -2.182201e-10  -1.718549e-09  0 
 2.206123e-10  -1.718268e-09  0 
 6.409449e-10  -3.881425e-10  0 
 8.754790e-10  2.231299e-09  0 
 7.237666e-10  -4.643481e-10  0 
 2.554061e-10  -1.754370e-09  0 
 -2.577984e-10  -1.754088e-09  0 
 -7.263845e-10  -4.634779e-10  0 
 -9.402612e-10  2.095484e-09  0 
 -3.524432e-10  -5.495897e-10  0 
 -4.329422e-11  -2.224083e-09  0 
 4.570296e-11  -2.223806e-09  0 
 3.550666e-10  -5.487314e-10  0 
 1.328950e-09  2.897402e-09  0 
 1.083899e-09  -1.233497e-10  0 
 4.401437e-10  -4.809684e-10  0 
 -4.425204e-10  -4.806772e-10  0 
 -1.086513e-09  -1.224484e-10  0 
 -9.342163e-10  4.810899e-10  0 
CELL_DATA 80
SCALARS MATID_1 FLOAT
LOOKUP_TABLE default
 0 
 0 
 0 
 0 
 0 
 1 
 1 
 1 
 1 
 1 
 0 
 0 
 0 
 0 
 0 
 1 
 1 
 1 
 1 
 1 
 0 
 0 
 0 
 0 
 0 
 1 
 1 
 1 
 1 
 1 
 0 
 0 
 0 
 0 
 0 
 1 
 1 
 1 
 1 
 1 
 0 
 0 
 0 
 0 
 0 
 1 
 1 
 1 
 1 
 1 
 0 
 0 
 0 
 0 
 0 
 1 
 1 
 1 
 1 
 1 
 0 
 0 
 0 
 0 
 0 
 1 
 1 
 1 
 1 
 1 
 0 
 0 
 0 
 0 
 0 
 1 
 1 
 1 
 1 
 1 
SCALARS MATID_2 FLOAT
LOOKUP_TABLE default
 1 
 1 
 1 
 1 
 1 
 0 
 0 
 0 
 0 
 0 
 1 
 1 
 1 
 1 
 1 
 0 
 0 
 0 
 0 
 0 
 1 
 1 
 1 
 1 
 1 
 0 
 0 
 0 
 0 
 0 
 1 
 1 
 1 
 1 
 1 
 0 
 0 
 0 
 0 
 0 
 1 
 1 
 1 
 1 
 1 
 0 
 0 
 0 
 0 
 0 
 1 
 1 
 1 
 1 
 1 
 0 
 0 
 0 
 0 
 0 
 1 
 1 
 1 
 1 
 1 
 0 
 0 
 0 
 0 
 0 
 1 
 1 
 1 
 1 
 1 
 0 
 0 
 0 
 0 
 0 
SCALARS SUB_ID FLOAT
LOOKUP_TABLE default
 1 
 1 
 1 
 1 
 1 
 2 
 2 
 2 
 2 
 2 
 3 
 3 
 3 
 3 
 3 
 4 
 4 
 4 
 4 
 4 
 5 
 5 
 5 
 5 
 5 
 6 
 6 
 6 
 6 
 6 
 7 
 7 
 7 
 7 
 7 
 8 
 8 
 8 
 8 
 8 
 9 
 9 
 9 
 9 
 9 
 10 
 10 
 10 
 10 
 10 
 11 
 11 
 11 
 11 
 11 
 12 
 12 
 12 
 12 
 12 
 13 
 13 
 13 
 13 
 13 
 14 
 14 
 14 
 14 
 14 
 15 
 15 
 15 
 15 
 15 
 16 
 16 
 16 
 16 
 16 
VECTORS SubCenter_Diff FLOAT
 -3.750000e+00  0  0 
 -3.750000e+00  0  0 
 -3.750000e+00  0  0 
 -3.750000e+00  0  0 
 -3.750000e+00  0  0 
 -3.250000e+00  0  0 
 -3.250000e+00  0  0 
 -3.250000e+00  0  0 
 -3.250000e+00  0  0 
 -3.250000e+00  0  0 
 -2.750000e+00  0  0 
 -2.750000e+00  0  0 
 -2.750000e+00  0  0 
 -2.750000e+00  0  0 
 -2.750000e+00  0  0 
 -2.250000e+00  0  0 
 -2.250000e+00  0  0 
 -2.250000e+00  0  0 
 -2.250000e+00  0  0 
 -2.250000e+00  0  0 
 -1.750000e+00  0  0 
 -1.750000e+00  0  0 
 -1.750000e+00  0  0 
 -1.750000e+00  0  0 
 -1.750000e+00  0  0 
 -1.250000e+00  0  0 
 -1.250000e+00  0  0 
 -1.250000e+00  0  0 
 -1.250000e+00  0  0 
 -1.250000e+00  0  0 
 -7.500000e-01  0  0 
 -7.500000e-01  0  0 
 -7.500000e-01  0  0 
 -7.500000e-01  0  0 
 -7.500000e-01  0  0 
 -2.500000e-01  0  0 
 -2.500000e-01  0  0 
 -2.500000e-01  0  0 
 -2.500000e-01  0  0 
 -2.500000e-01  0  0 
 2.500000e-01  0  0 
 2.500000e-01  0  0 
 2.500000e-01  0  0 
 2.500000e-01  0  0 
 2.500000e-01  0  0 
 7.500000e-01  0  0 
 7.500000e-01  0  0 
 7.500000e-01  0  0 
 7.500000e-01  0  0 
 7.500000e-01  0  0 
 1.250000e+00  0  0 
 1.250000e+00  0  0 
 1.250000e+00  0  0 
 1.250000e+00  0  0 
 1.250000e+00  0  0 
 1.750000e+00  0  0 
 1.750000e+00  0  0 
 1.750000e+00  0  0 
 1.750000e+00  0  0 
 1.750000e+00  0  0 
 2.250000e+00  0  0 
 2.250000e+00  0  0 
 2.250000e+00  0  0 
 2.250000e+00  0  0 
 2.250000e+00  0  0 
 2.750000e+00  0  0 
 2.750000e+00  0  0 
 2.750000e+00  0  0 
 2.750000e+00  0  0 
 2.750000e+00  0  0 
 3.250000e+00  0  0 
 3.250000e+00  0  0 
 3.250000e+00  0  0 
 3.250000e+00  0  0 
 3.250000e+00  0  0 
 3.750000e+00  0  0 
 3.750000e+00  0  0 
 3.750000e+00  0  0 
 3.750000e+00  0  0 
 3.750000e+00  0  0 
