# vtk DataFile Version 3.1
this is an vtk file created by FEMAC
ASCII
DATASET UNSTRUCTURED_GRID
POINTS 12 FLOAT
3.500000 0.000000 0.000000
4.000000 0.000000 0.000000
3.500000 0.200000 0.000000
3.500000 0.400000 0.000000
3.500000 0.600000 0.000000
3.500000 0.800000 0.000000
3.500000 1.000000 0.000000
4.000000 0.200000 0.000000
4.000000 0.400000 0.000000
4.000000 0.600000 0.000000
4.000000 0.800000 0.000000
4.000000 1.000000 0.000000
CELLS 5 25 
4 0 1 7 2
4 2 7 8 3
4 3 8 9 4
4 4  9 10  5
4 5 10 11  6
CELL_TYPES 5
9 9 9 9 9 
POINT_DATA 12
VECTORS displacement_ITER1 FLOAT
 -4.349832e-03  -1.754386e-02  0 
 -4.949097e-03  -2.210535e-02  0 
 -2.728672e-03  -1.747569e-02  0 
 -9.000539e-04  -1.745973e-02  0 
 9.422849e-04  -1.745973e-02  0 
 2.770903e-03  -1.747569e-02  0 
 4.392063e-03  -1.754386e-02  0 
 -2.895160e-03  -2.217137e-02  0 
 -9.766123e-04  -2.218531e-02  0 
 1.018843e-03  -2.218531e-02  0 
 2.937391e-03  -2.217137e-02  0 
 4.991328e-03  -2.210535e-02  0 
VECTORS displacement_ITER2 FLOAT
 -4.234788e-03  -1.742954e-02  0 
 -4.715769e-03  -2.194730e-02  0 
 -2.587035e-03  -1.742983e-02  0 
 -8.369519e-04  -1.742478e-02  0 
 8.724329e-04  -1.742478e-02  0 
 2.622516e-03  -1.742983e-02  0 
 4.270269e-03  -1.742954e-02  0 
 -2.770622e-03  -2.194033e-02  0 
 -9.268189e-04  -2.194528e-02  0 
 9.622999e-04  -2.194528e-02  0 
 2.806103e-03  -2.194033e-02  0 
 4.751250e-03  -2.194730e-02  0 
VECTORS displacement_ITER3 FLOAT
 -4.233237e-03  -1.741532e-02  0 
 -4.712896e-03  -2.192320e-02  0 
 -2.587111e-03  -1.741809e-02  0 
 -8.395057e-04  -1.741315e-02  0 
 8.637941e-04  -1.741315e-02  0 
 2.611399e-03  -1.741809e-02  0 
 4.257525e-03  -1.741532e-02  0 
 -2.770925e-03  -2.192174e-02  0 
 -9.304645e-04  -2.192595e-02  0 
 9.547529e-04  -2.192595e-02  0 
 2.795213e-03  -2.192174e-02  0 
 4.737184e-03  -2.192320e-02  0 
VECTORS displacement_ITER4 FLOAT
 -4.233419e-03  -1.741344e-02  0 
 -4.712542e-03  -2.191944e-02  0 
 -2.586705e-03  -1.741448e-02  0 
 -8.385924e-04  -1.740980e-02  0 
 8.626269e-04  -1.741017e-02  0 
 2.610374e-03  -1.741491e-02  0 
 4.255792e-03  -1.741423e-02  0 
 -2.770569e-03  -2.191843e-02  0 
 -9.304983e-04  -2.192245e-02  0 
 9.544656e-04  -2.192216e-02  0 
 2.794210e-03  -2.191806e-02  0 
 4.735972e-03  -2.191877e-02  0 
VECTORS displacement_ITER5 FLOAT
 -4.233815e-03  -1.741246e-02  0 
 -4.713323e-03  -2.191833e-02  0 
 -2.587467e-03  -1.741350e-02  0 
 -8.393197e-04  -1.740881e-02  0 
 8.618391e-04  -1.740895e-02  0 
 2.609885e-03  -1.741365e-02  0 
 4.255852e-03  -1.741278e-02  0 
 -2.771319e-03  -2.191729e-02  0 
 -9.314405e-04  -2.192135e-02  0 
 9.539247e-04  -2.192132e-02  0 
 2.793734e-03  -2.191724e-02  0 
 4.735766e-03  -2.191825e-02  0 
VECTORS displacement_ITER6 FLOAT
 -4.233952e-03  -1.741260e-02  0 
 -4.713652e-03  -2.191830e-02  0 
 -2.587773e-03  -1.741355e-02  0 
 -8.396672e-04  -1.740886e-02  0 
 8.615030e-04  -1.740885e-02  0 
 2.609612e-03  -1.741354e-02  0 
 4.255761e-03  -1.741259e-02  0 
 -2.771623e-03  -2.191727e-02  0 
 -9.317717e-04  -2.192134e-02  0 
 9.536045e-04  -2.192134e-02  0 
 2.793462e-03  -2.191727e-02  0 
 4.735491e-03  -2.191829e-02  0 
VECTORS displacement_ITER7 FLOAT
 -4.233848e-03  -1.741258e-02  0 
 -4.713562e-03  -2.191828e-02  0 
 -2.587680e-03  -1.741353e-02  0 
 -8.395691e-04  -1.740884e-02  0 
 8.616020e-04  -1.740884e-02  0 
 2.609710e-03  -1.741353e-02  0 
 4.255875e-03  -1.741259e-02  0 
 -2.771529e-03  -2.191726e-02  0 
 -9.316733e-04  -2.192133e-02  0 
 9.537045e-04  -2.192133e-02  0 
 2.793561e-03  -2.191726e-02  0 
 4.735589e-03  -2.191828e-02  0 
VECTORS displacement_ITER8 FLOAT
 -4.233874e-03  -1.741259e-02  0 
 -4.713582e-03  -2.191828e-02  0 
 -2.587703e-03  -1.741353e-02  0 
 -8.395924e-04  -1.740884e-02  0 
 8.615784e-04  -1.740884e-02  0 
 2.609686e-03  -1.741353e-02  0 
 4.255847e-03  -1.741259e-02  0 
 -2.771553e-03  -2.191726e-02  0 
 -9.316968e-04  -2.192133e-02  0 
 9.536807e-04  -2.192133e-02  0 
 2.793537e-03  -2.191726e-02  0 
 4.735567e-03  -2.191828e-02  0 
VECTORS displacement_ITER9 FLOAT
 -4.233874e-03  -1.741259e-02  0 
 -4.713582e-03  -2.191828e-02  0 
 -2.587703e-03  -1.741353e-02  0 
 -8.395926e-04  -1.740884e-02  0 
 8.615782e-04  -1.740884e-02  0 
 2.609687e-03  -1.741353e-02  0 
 4.255847e-03  -1.741259e-02  0 
 -2.771553e-03  -2.191726e-02  0 
 -9.316968e-04  -2.192133e-02  0 
 9.536807e-04  -2.192133e-02  0 
 2.793537e-03  -2.191726e-02  0 
 4.735567e-03  -2.191828e-02  0 
VECTORS displacement_ITER10 FLOAT
 4.565317e-02  1.376509e+00  0 
 -1.217997e-01  1.407018e+00  0 
 -2.069271e-02  1.222925e+00  0 
 -1.309801e-01  1.202435e+00  0 
 -1.684012e-01  1.189491e+00  0 
 -2.708697e-01  1.197779e+00  0 
 -3.219483e-01  1.340974e+00  0 
 -1.122527e-01  1.475391e+00  0 
 -2.297238e-01  1.481384e+00  0 
 -1.870093e-01  1.485676e+00  0 
 -3.207250e-01  1.479404e+00  0 
 -3.500624e-01  1.415061e+00  0 
VECTORS displacement_ITER11 FLOAT
 1.466553e+13  -7.678866e+13  0 
 5.037629e+13  -2.809645e+13  0 
 1.323662e+13  -2.870577e+13  0 
 4.505081e+12  -3.264140e+13  0 
 2.573839e+13  -3.055704e+13  0 
 1.020615e+13  -2.699783e+13  0 
 -1.984465e+12  -4.764684e+13  0 
 2.914862e+13  -1.676031e+13  0 
 2.978181e+13  -1.091524e+13  0 
 1.505721e+13  4.066755e+11  0 
 1.400442e+13  -1.525589e+12  0 
 -1.436951e+13  -1.307408e+13  0 
VECTORS displacement_ITER12 FLOAT
 3.594488e+27  -4.683107e+26  0 
 8.473580e+28  5.290120e+28  0 
 1.852049e+28  -3.545109e+27  0 
 5.696917e+26  -2.278504e+27  0 
 -7.406011e+27  -2.776785e+27  0 
 -2.142856e+28  -1.622541e+27  0 
 4.231949e+27  9.698762e+27  0 
 8.712069e+27  3.750673e+28  0 
 -5.322948e+27  3.468048e+28  0 
 7.233799e+27  1.419498e+28  0 
 8.214135e+27  1.730535e+28  0 
 -2.516179e+28  1.431690e+28  0 
VECTORS displacement_ITER13 FLOAT
 3.506665e+43  2.044792e+43  0 
 2.901135e+43  6.415070e+43  0 
 2.731202e+43  3.640333e+43  0 
 2.545828e+43  3.943650e+43  0 
 2.832006e+43  1.019239e+43  0 
 1.905779e+43  1.163576e+43  0 
 2.271805e+42  2.522629e+42  0 
 2.684353e+43  2.464545e+43  0 
 3.697385e+43  2.291676e+43  0 
 3.240112e+43  3.329199e+43  0 
 2.144219e+43  3.135068e+43  0 
 4.595462e+42  5.867675e+43  0 
VECTORS displacement_ITER14 FLOAT
 -6.683706e+57  1.009635e+58  0 
 -1.945198e+58  -4.850154e+58  0 
 1.739967e+58  -4.401680e+58  0 
 -9.947776e+57  -4.632097e+58  0 
 -1.684949e+58  3.527349e+58  0 
 1.568230e+58  2.932797e+58  0 
 -2.754007e+57  1.205893e+58  0 
 2.660679e+57  -1.342891e+58  0 
 -5.923075e+57  -7.266120e+57  0 
 -1.770068e+58  -3.162448e+58  0 
 3.158992e+56  -2.475051e+58  0 
 -9.158080e+57  2.508643e+58  0 
VECTORS displacement_ITER15 FLOAT
 -3.880067e+73  -1.451055e+74  0 
 -1.457560e+74  -9.738118e+73  0 
 -8.528291e+73  -9.190858e+73  0 
 -9.934726e+73  -8.443848e+73  0 
 -3.366517e+73  -1.203890e+74  0 
 -4.856287e+73  -1.184188e+74  0 
 -3.836321e+73  -1.113053e+74  0 
 -1.036426e+74  -1.298038e+74  0 
 -7.692376e+73  -1.340973e+74  0 
 -1.091583e+74  -1.645802e+74  0 
 -5.478946e+73  -1.717341e+74  0 
 -5.926425e+73  -2.223252e+74  0 
VECTORS displacement_ITER16 FLOAT
 1.238346e+89  3.587184e+89  0 
 -8.114449e+89  3.198453e+89  0 
 -2.770941e+89  5.649798e+89  0 
 -3.455858e+89  5.713516e+89  0 
 -3.174731e+89  7.060431e+89  0 
 -1.948278e+89  6.377921e+89  0 
 -1.172388e+88  8.208913e+89  0 
 -3.058803e+89  6.330381e+89  0 
 -3.660640e+89  6.720456e+89  0 
 -4.170551e+89  3.394811e+89  0 
 -3.167442e+89  3.960878e+89  0 
 -2.019740e+89  3.352987e+89  0 
VECTORS displacement_ITER17 FLOAT
 1.238346e+89  3.587184e+89  0 
 -8.114449e+89  3.198453e+89  0 
 -2.770941e+89  5.649798e+89  0 
 -3.455858e+89  5.713516e+89  0 
 -3.174731e+89  7.060431e+89  0 
 -1.948278e+89  6.377921e+89  0 
 -1.172388e+88  8.208913e+89  0 
 -3.058803e+89  6.330381e+89  0 
 -3.660640e+89  6.720456e+89  0 
 -4.170551e+89  3.394811e+89  0 
 -3.167442e+89  3.960878e+89  0 
 -2.019740e+89  3.352987e+89  0 
VECTORS displacement_ITER18 FLOAT
 1.238346e+89  3.587184e+89  0 
 -8.114449e+89  3.198453e+89  0 
 -2.770941e+89  5.649798e+89  0 
 -3.455858e+89  5.713516e+89  0 
 -3.174731e+89  7.060431e+89  0 
 -1.948278e+89  6.377921e+89  0 
 -1.172388e+88  8.208913e+89  0 
 -3.058803e+89  6.330381e+89  0 
 -3.660640e+89  6.720456e+89  0 
 -4.170551e+89  3.394811e+89  0 
 -3.167442e+89  3.960878e+89  0 
 -2.019740e+89  3.352987e+89  0 
VECTORS displacement_ITER19 FLOAT
 1.238346e+89  3.587184e+89  0 
 -8.114449e+89  3.198453e+89  0 
 -2.770941e+89  5.649798e+89  0 
 -3.455858e+89  5.713516e+89  0 
 -3.174731e+89  7.060431e+89  0 
 -1.948278e+89  6.377921e+89  0 
 -1.172388e+88  8.208913e+89  0 
 -3.058803e+89  6.330381e+89  0 
 -3.660640e+89  6.720456e+89  0 
 -4.170551e+89  3.394811e+89  0 
 -3.167442e+89  3.960878e+89  0 
 -2.019740e+89  3.352987e+89  0 
VECTORS displacement_ITER20 FLOAT
 1.238346e+89  3.587184e+89  0 
 -8.114449e+89  3.198453e+89  0 
 -2.770941e+89  5.649798e+89  0 
 -3.455858e+89  5.713516e+89  0 
 -3.174731e+89  7.060431e+89  0 
 -1.948278e+89  6.377921e+89  0 
 -1.172388e+88  8.208913e+89  0 
 -3.058803e+89  6.330381e+89  0 
 -3.660640e+89  6.720456e+89  0 
 -4.170551e+89  3.394811e+89  0 
 -3.167442e+89  3.960878e+89  0 
 -2.019740e+89  3.352987e+89  0 
VECTORS displacement_ITER21 FLOAT
 1.238346e+89  3.587184e+89  0 
 -8.114449e+89  3.198453e+89  0 
 -2.770941e+89  5.649798e+89  0 
 -3.455858e+89  5.713516e+89  0 
 -3.174731e+89  7.060431e+89  0 
 -1.948278e+89  6.377921e+89  0 
 -1.172388e+88  8.208913e+89  0 
 -3.058803e+89  6.330381e+89  0 
 -3.660640e+89  6.720456e+89  0 
 -4.170551e+89  3.394811e+89  0 
 -3.167442e+89  3.960878e+89  0 
 -2.019740e+89  3.352987e+89  0 
VECTORS displacement_ITER22 FLOAT
 1.238346e+89  3.587184e+89  0 
 -8.114449e+89  3.198453e+89  0 
 -2.770941e+89  5.649798e+89  0 
 -3.455858e+89  5.713516e+89  0 
 -3.174731e+89  7.060431e+89  0 
 -1.948278e+89  6.377921e+89  0 
 -1.172388e+88  8.208913e+89  0 
 -3.058803e+89  6.330381e+89  0 
 -3.660640e+89  6.720456e+89  0 
 -4.170551e+89  3.394811e+89  0 
 -3.167442e+89  3.960878e+89  0 
 -2.019740e+89  3.352987e+89  0 
VECTORS displacement_ITER23 FLOAT
 1.238346e+89  3.587184e+89  0 
 -8.114449e+89  3.198453e+89  0 
 -2.770941e+89  5.649798e+89  0 
 -3.455858e+89  5.713516e+89  0 
 -3.174731e+89  7.060431e+89  0 
 -1.948278e+89  6.377921e+89  0 
 -1.172388e+88  8.208913e+89  0 
 -3.058803e+89  6.330381e+89  0 
 -3.660640e+89  6.720456e+89  0 
 -4.170551e+89  3.394811e+89  0 
 -3.167442e+89  3.960878e+89  0 
 -2.019740e+89  3.352987e+89  0 
VECTORS displacement_ITER24 FLOAT
 1.238346e+89  3.587184e+89  0 
 -8.114449e+89  3.198453e+89  0 
 -2.770941e+89  5.649798e+89  0 
 -3.455858e+89  5.713516e+89  0 
 -3.174731e+89  7.060431e+89  0 
 -1.948278e+89  6.377921e+89  0 
 -1.172388e+88  8.208913e+89  0 
 -3.058803e+89  6.330381e+89  0 
 -3.660640e+89  6.720456e+89  0 
 -4.170551e+89  3.394811e+89  0 
 -3.167442e+89  3.960878e+89  0 
 -2.019740e+89  3.352987e+89  0 
VECTORS displacement_ITER25 FLOAT
 1.238346e+89  3.587184e+89  0 
 -8.114449e+89  3.198453e+89  0 
 -2.770941e+89  5.649798e+89  0 
 -3.455858e+89  5.713516e+89  0 
 -3.174731e+89  7.060431e+89  0 
 -1.948278e+89  6.377921e+89  0 
 -1.172388e+88  8.208913e+89  0 
 -3.058803e+89  6.330381e+89  0 
 -3.660640e+89  6.720456e+89  0 
 -4.170551e+89  3.394811e+89  0 
 -3.167442e+89  3.960878e+89  0 
 -2.019740e+89  3.352987e+89  0 
VECTORS displacement_ITER26 FLOAT
 1.238346e+89  3.587184e+89  0 
 -8.114449e+89  3.198453e+89  0 
 -2.770941e+89  5.649798e+89  0 
 -3.455858e+89  5.713516e+89  0 
 -3.174731e+89  7.060431e+89  0 
 -1.948278e+89  6.377921e+89  0 
 -1.172388e+88  8.208913e+89  0 
 -3.058803e+89  6.330381e+89  0 
 -3.660640e+89  6.720456e+89  0 
 -4.170551e+89  3.394811e+89  0 
 -3.167442e+89  3.960878e+89  0 
 -2.019740e+89  3.352987e+89  0 
VECTORS displacement_ITER27 FLOAT
 1.238346e+89  3.587184e+89  0 
 -8.114449e+89  3.198453e+89  0 
 -2.770941e+89  5.649798e+89  0 
 -3.455858e+89  5.713516e+89  0 
 -3.174731e+89  7.060431e+89  0 
 -1.948278e+89  6.377921e+89  0 
 -1.172388e+88  8.208913e+89  0 
 -3.058803e+89  6.330381e+89  0 
 -3.660640e+89  6.720456e+89  0 
 -4.170551e+89  3.394811e+89  0 
 -3.167442e+89  3.960878e+89  0 
 -2.019740e+89  3.352987e+89  0 
VECTORS displacement_ITER28 FLOAT
 1.238346e+89  3.587184e+89  0 
 -8.114449e+89  3.198453e+89  0 
 -2.770941e+89  5.649798e+89  0 
 -3.455858e+89  5.713516e+89  0 
 -3.174731e+89  7.060431e+89  0 
 -1.948278e+89  6.377921e+89  0 
 -1.172388e+88  8.208913e+89  0 
 -3.058803e+89  6.330381e+89  0 
 -3.660640e+89  6.720456e+89  0 
 -4.170551e+89  3.394811e+89  0 
 -3.167442e+89  3.960878e+89  0 
 -2.019740e+89  3.352987e+89  0 
VECTORS displacement_ITER29 FLOAT
 1.238346e+89  3.587184e+89  0 
 -8.114449e+89  3.198453e+89  0 
 -2.770941e+89  5.649798e+89  0 
 -3.455858e+89  5.713516e+89  0 
 -3.174731e+89  7.060431e+89  0 
 -1.948278e+89  6.377921e+89  0 
 -1.172388e+88  8.208913e+89  0 
 -3.058803e+89  6.330381e+89  0 
 -3.660640e+89  6.720456e+89  0 
 -4.170551e+89  3.394811e+89  0 
 -3.167442e+89  3.960878e+89  0 
 -2.019740e+89  3.352987e+89  0 
VECTORS displacement_ITER30 FLOAT
 1.238346e+89  3.587184e+89  0 
 -8.114449e+89  3.198453e+89  0 
 -2.770941e+89  5.649798e+89  0 
 -3.455858e+89  5.713516e+89  0 
 -3.174731e+89  7.060431e+89  0 
 -1.948278e+89  6.377921e+89  0 
 -1.172388e+88  8.208913e+89  0 
 -3.058803e+89  6.330381e+89  0 
 -3.660640e+89  6.720456e+89  0 
 -4.170551e+89  3.394811e+89  0 
 -3.167442e+89  3.960878e+89  0 
 -2.019740e+89  3.352987e+89  0 
VECTORS displacement_ITER31 FLOAT
 1.238346e+89  3.587184e+89  0 
 -8.114449e+89  3.198453e+89  0 
 -2.770941e+89  5.649798e+89  0 
 -3.455858e+89  5.713516e+89  0 
 -3.174731e+89  7.060431e+89  0 
 -1.948278e+89  6.377921e+89  0 
 -1.172388e+88  8.208913e+89  0 
 -3.058803e+89  6.330381e+89  0 
 -3.660640e+89  6.720456e+89  0 
 -4.170551e+89  3.394811e+89  0 
 -3.167442e+89  3.960878e+89  0 
 -2.019740e+89  3.352987e+89  0 
VECTORS displacement_ITER32 FLOAT
 1.238346e+89  3.587184e+89  0 
 -8.114449e+89  3.198453e+89  0 
 -2.770941e+89  5.649798e+89  0 
 -3.455858e+89  5.713516e+89  0 
 -3.174731e+89  7.060431e+89  0 
 -1.948278e+89  6.377921e+89  0 
 -1.172388e+88  8.208913e+89  0 
 -3.058803e+89  6.330381e+89  0 
 -3.660640e+89  6.720456e+89  0 
 -4.170551e+89  3.394811e+89  0 
 -3.167442e+89  3.960878e+89  0 
 -2.019740e+89  3.352987e+89  0 
VECTORS displacement_ITER33 FLOAT
 1.238346e+89  3.587184e+89  0 
 -8.114449e+89  3.198453e+89  0 
 -2.770941e+89  5.649798e+89  0 
 -3.455858e+89  5.713516e+89  0 
 -3.174731e+89  7.060431e+89  0 
 -1.948278e+89  6.377921e+89  0 
 -1.172388e+88  8.208913e+89  0 
 -3.058803e+89  6.330381e+89  0 
 -3.660640e+89  6.720456e+89  0 
 -4.170551e+89  3.394811e+89  0 
 -3.167442e+89  3.960878e+89  0 
 -2.019740e+89  3.352987e+89  0 
VECTORS displacement_ITER34 FLOAT
 1.238346e+89  3.587184e+89  0 
 -8.114449e+89  3.198453e+89  0 
 -2.770941e+89  5.649798e+89  0 
 -3.455858e+89  5.713516e+89  0 
 -3.174731e+89  7.060431e+89  0 
 -1.948278e+89  6.377921e+89  0 
 -1.172388e+88  8.208913e+89  0 
 -3.058803e+89  6.330381e+89  0 
 -3.660640e+89  6.720456e+89  0 
 -4.170551e+89  3.394811e+89  0 
 -3.167442e+89  3.960878e+89  0 
 -2.019740e+89  3.352987e+89  0 
VECTORS displacement_ITER35 FLOAT
 1.238346e+89  3.587184e+89  0 
 -8.114449e+89  3.198453e+89  0 
 -2.770941e+89  5.649798e+89  0 
 -3.455858e+89  5.713516e+89  0 
 -3.174731e+89  7.060431e+89  0 
 -1.948278e+89  6.377921e+89  0 
 -1.172388e+88  8.208913e+89  0 
 -3.058803e+89  6.330381e+89  0 
 -3.660640e+89  6.720456e+89  0 
 -4.170551e+89  3.394811e+89  0 
 -3.167442e+89  3.960878e+89  0 
 -2.019740e+89  3.352987e+89  0 
VECTORS displacement_ITER36 FLOAT
 1.238346e+89  3.587184e+89  0 
 -8.114449e+89  3.198453e+89  0 
 -2.770941e+89  5.649798e+89  0 
 -3.455858e+89  5.713516e+89  0 
 -3.174731e+89  7.060431e+89  0 
 -1.948278e+89  6.377921e+89  0 
 -1.172388e+88  8.208913e+89  0 
 -3.058803e+89  6.330381e+89  0 
 -3.660640e+89  6.720456e+89  0 
 -4.170551e+89  3.394811e+89  0 
 -3.167442e+89  3.960878e+89  0 
 -2.019740e+89  3.352987e+89  0 
VECTORS displacement_ITER37 FLOAT
 1.238346e+89  3.587184e+89  0 
 -8.114449e+89  3.198453e+89  0 
 -2.770941e+89  5.649798e+89  0 
 -3.455858e+89  5.713516e+89  0 
 -3.174731e+89  7.060431e+89  0 
 -1.948278e+89  6.377921e+89  0 
 -1.172388e+88  8.208913e+89  0 
 -3.058803e+89  6.330381e+89  0 
 -3.660640e+89  6.720456e+89  0 
 -4.170551e+89  3.394811e+89  0 
 -3.167442e+89  3.960878e+89  0 
 -2.019740e+89  3.352987e+89  0 
VECTORS displacement_ITER38 FLOAT
 1.238346e+89  3.587184e+89  0 
 -8.114449e+89  3.198453e+89  0 
 -2.770941e+89  5.649798e+89  0 
 -3.455858e+89  5.713516e+89  0 
 -3.174731e+89  7.060431e+89  0 
 -1.948278e+89  6.377921e+89  0 
 -1.172388e+88  8.208913e+89  0 
 -3.058803e+89  6.330381e+89  0 
 -3.660640e+89  6.720456e+89  0 
 -4.170551e+89  3.394811e+89  0 
 -3.167442e+89  3.960878e+89  0 
 -2.019740e+89  3.352987e+89  0 
VECTORS displacement_ITER39 FLOAT
 1.238346e+89  3.587184e+89  0 
 -8.114449e+89  3.198453e+89  0 
 -2.770941e+89  5.649798e+89  0 
 -3.455858e+89  5.713516e+89  0 
 -3.174731e+89  7.060431e+89  0 
 -1.948278e+89  6.377921e+89  0 
 -1.172388e+88  8.208913e+89  0 
 -3.058803e+89  6.330381e+89  0 
 -3.660640e+89  6.720456e+89  0 
 -4.170551e+89  3.394811e+89  0 
 -3.167442e+89  3.960878e+89  0 
 -2.019740e+89  3.352987e+89  0 
VECTORS displacement_ITER40 FLOAT
 1.238346e+89  3.587184e+89  0 
 -8.114449e+89  3.198453e+89  0 
 -2.770941e+89  5.649798e+89  0 
 -3.455858e+89  5.713516e+89  0 
 -3.174731e+89  7.060431e+89  0 
 -1.948278e+89  6.377921e+89  0 
 -1.172388e+88  8.208913e+89  0 
 -3.058803e+89  6.330381e+89  0 
 -3.660640e+89  6.720456e+89  0 
 -4.170551e+89  3.394811e+89  0 
 -3.167442e+89  3.960878e+89  0 
 -2.019740e+89  3.352987e+89  0 
VECTORS displacement_ITER41 FLOAT
 1.238346e+89  3.587184e+89  0 
 -8.114449e+89  3.198453e+89  0 
 -2.770941e+89  5.649798e+89  0 
 -3.455858e+89  5.713516e+89  0 
 -3.174731e+89  7.060431e+89  0 
 -1.948278e+89  6.377921e+89  0 
 -1.172388e+88  8.208913e+89  0 
 -3.058803e+89  6.330381e+89  0 
 -3.660640e+89  6.720456e+89  0 
 -4.170551e+89  3.394811e+89  0 
 -3.167442e+89  3.960878e+89  0 
 -2.019740e+89  3.352987e+89  0 
VECTORS displacement_ITER42 FLOAT
 1.238346e+89  3.587184e+89  0 
 -8.114449e+89  3.198453e+89  0 
 -2.770941e+89  5.649798e+89  0 
 -3.455858e+89  5.713516e+89  0 
 -3.174731e+89  7.060431e+89  0 
 -1.948278e+89  6.377921e+89  0 
 -1.172388e+88  8.208913e+89  0 
 -3.058803e+89  6.330381e+89  0 
 -3.660640e+89  6.720456e+89  0 
 -4.170551e+89  3.394811e+89  0 
 -3.167442e+89  3.960878e+89  0 
 -2.019740e+89  3.352987e+89  0 
VECTORS displacement_ITER43 FLOAT
 1.238346e+89  3.587184e+89  0 
 -8.114449e+89  3.198453e+89  0 
 -2.770941e+89  5.649798e+89  0 
 -3.455858e+89  5.713516e+89  0 
 -3.174731e+89  7.060431e+89  0 
 -1.948278e+89  6.377921e+89  0 
 -1.172388e+88  8.208913e+89  0 
 -3.058803e+89  6.330381e+89  0 
 -3.660640e+89  6.720456e+89  0 
 -4.170551e+89  3.394811e+89  0 
 -3.167442e+89  3.960878e+89  0 
 -2.019740e+89  3.352987e+89  0 
VECTORS displacement_ITER44 FLOAT
 1.238346e+89  3.587184e+89  0 
 -8.114449e+89  3.198453e+89  0 
 -2.770941e+89  5.649798e+89  0 
 -3.455858e+89  5.713516e+89  0 
 -3.174731e+89  7.060431e+89  0 
 -1.948278e+89  6.377921e+89  0 
 -1.172388e+88  8.208913e+89  0 
 -3.058803e+89  6.330381e+89  0 
 -3.660640e+89  6.720456e+89  0 
 -4.170551e+89  3.394811e+89  0 
 -3.167442e+89  3.960878e+89  0 
 -2.019740e+89  3.352987e+89  0 
VECTORS displacement_ITER45 FLOAT
 1.238346e+89  3.587184e+89  0 
 -8.114449e+89  3.198453e+89  0 
 -2.770941e+89  5.649798e+89  0 
 -3.455858e+89  5.713516e+89  0 
 -3.174731e+89  7.060431e+89  0 
 -1.948278e+89  6.377921e+89  0 
 -1.172388e+88  8.208913e+89  0 
 -3.058803e+89  6.330381e+89  0 
 -3.660640e+89  6.720456e+89  0 
 -4.170551e+89  3.394811e+89  0 
 -3.167442e+89  3.960878e+89  0 
 -2.019740e+89  3.352987e+89  0 
VECTORS displacement_ITER46 FLOAT
 1.238346e+89  3.587184e+89  0 
 -8.114449e+89  3.198453e+89  0 
 -2.770941e+89  5.649798e+89  0 
 -3.455858e+89  5.713516e+89  0 
 -3.174731e+89  7.060431e+89  0 
 -1.948278e+89  6.377921e+89  0 
 -1.172388e+88  8.208913e+89  0 
 -3.058803e+89  6.330381e+89  0 
 -3.660640e+89  6.720456e+89  0 
 -4.170551e+89  3.394811e+89  0 
 -3.167442e+89  3.960878e+89  0 
 -2.019740e+89  3.352987e+89  0 
VECTORS displacement_ITER47 FLOAT
 1.238346e+89  3.587184e+89  0 
 -8.114449e+89  3.198453e+89  0 
 -2.770941e+89  5.649798e+89  0 
 -3.455858e+89  5.713516e+89  0 
 -3.174731e+89  7.060431e+89  0 
 -1.948278e+89  6.377921e+89  0 
 -1.172388e+88  8.208913e+89  0 
 -3.058803e+89  6.330381e+89  0 
 -3.660640e+89  6.720456e+89  0 
 -4.170551e+89  3.394811e+89  0 
 -3.167442e+89  3.960878e+89  0 
 -2.019740e+89  3.352987e+89  0 
VECTORS displacement_ITER48 FLOAT
 1.238346e+89  3.587184e+89  0 
 -8.114449e+89  3.198453e+89  0 
 -2.770941e+89  5.649798e+89  0 
 -3.455858e+89  5.713516e+89  0 
 -3.174731e+89  7.060431e+89  0 
 -1.948278e+89  6.377921e+89  0 
 -1.172388e+88  8.208913e+89  0 
 -3.058803e+89  6.330381e+89  0 
 -3.660640e+89  6.720456e+89  0 
 -4.170551e+89  3.394811e+89  0 
 -3.167442e+89  3.960878e+89  0 
 -2.019740e+89  3.352987e+89  0 
VECTORS displacement_ITER49 FLOAT
 1.238346e+89  3.587184e+89  0 
 -8.114449e+89  3.198453e+89  0 
 -2.770941e+89  5.649798e+89  0 
 -3.455858e+89  5.713516e+89  0 
 -3.174731e+89  7.060431e+89  0 
 -1.948278e+89  6.377921e+89  0 
 -1.172388e+88  8.208913e+89  0 
 -3.058803e+89  6.330381e+89  0 
 -3.660640e+89  6.720456e+89  0 
 -4.170551e+89  3.394811e+89  0 
 -3.167442e+89  3.960878e+89  0 
 -2.019740e+89  3.352987e+89  0 
VECTORS displacement_ITER50 FLOAT
 1.238346e+89  3.587184e+89  0 
 -8.114449e+89  3.198453e+89  0 
 -2.770941e+89  5.649798e+89  0 
 -3.455858e+89  5.713516e+89  0 
 -3.174731e+89  7.060431e+89  0 
 -1.948278e+89  6.377921e+89  0 
 -1.172388e+88  8.208913e+89  0 
 -3.058803e+89  6.330381e+89  0 
 -3.660640e+89  6.720456e+89  0 
 -4.170551e+89  3.394811e+89  0 
 -3.167442e+89  3.960878e+89  0 
 -2.019740e+89  3.352987e+89  0 
VECTORS displacement_ITER51 FLOAT
 1.238346e+89  3.587184e+89  0 
 -8.114449e+89  3.198453e+89  0 
 -2.770941e+89  5.649798e+89  0 
 -3.455858e+89  5.713516e+89  0 
 -3.174731e+89  7.060431e+89  0 
 -1.948278e+89  6.377921e+89  0 
 -1.172388e+88  8.208913e+89  0 
 -3.058803e+89  6.330381e+89  0 
 -3.660640e+89  6.720456e+89  0 
 -4.170551e+89  3.394811e+89  0 
 -3.167442e+89  3.960878e+89  0 
 -2.019740e+89  3.352987e+89  0 
VECTORS displacement_ITER52 FLOAT
 1.238346e+89  3.587184e+89  0 
 -8.114449e+89  3.198453e+89  0 
 -2.770941e+89  5.649798e+89  0 
 -3.455858e+89  5.713516e+89  0 
 -3.174731e+89  7.060431e+89  0 
 -1.948278e+89  6.377921e+89  0 
 -1.172388e+88  8.208913e+89  0 
 -3.058803e+89  6.330381e+89  0 
 -3.660640e+89  6.720456e+89  0 
 -4.170551e+89  3.394811e+89  0 
 -3.167442e+89  3.960878e+89  0 
 -2.019740e+89  3.352987e+89  0 
VECTORS displacement_ITER53 FLOAT
 1.238346e+89  3.587184e+89  0 
 -8.114449e+89  3.198453e+89  0 
 -2.770941e+89  5.649798e+89  0 
 -3.455858e+89  5.713516e+89  0 
 -3.174731e+89  7.060431e+89  0 
 -1.948278e+89  6.377921e+89  0 
 -1.172388e+88  8.208913e+89  0 
 -3.058803e+89  6.330381e+89  0 
 -3.660640e+89  6.720456e+89  0 
 -4.170551e+89  3.394811e+89  0 
 -3.167442e+89  3.960878e+89  0 
 -2.019740e+89  3.352987e+89  0 
VECTORS displacement_ITER54 FLOAT
 1.238346e+89  3.587184e+89  0 
 -8.114449e+89  3.198453e+89  0 
 -2.770941e+89  5.649798e+89  0 
 -3.455858e+89  5.713516e+89  0 
 -3.174731e+89  7.060431e+89  0 
 -1.948278e+89  6.377921e+89  0 
 -1.172388e+88  8.208913e+89  0 
 -3.058803e+89  6.330381e+89  0 
 -3.660640e+89  6.720456e+89  0 
 -4.170551e+89  3.394811e+89  0 
 -3.167442e+89  3.960878e+89  0 
 -2.019740e+89  3.352987e+89  0 
VECTORS displacement_ITER55 FLOAT
 1.238346e+89  3.587184e+89  0 
 -8.114449e+89  3.198453e+89  0 
 -2.770941e+89  5.649798e+89  0 
 -3.455858e+89  5.713516e+89  0 
 -3.174731e+89  7.060431e+89  0 
 -1.948278e+89  6.377921e+89  0 
 -1.172388e+88  8.208913e+89  0 
 -3.058803e+89  6.330381e+89  0 
 -3.660640e+89  6.720456e+89  0 
 -4.170551e+89  3.394811e+89  0 
 -3.167442e+89  3.960878e+89  0 
 -2.019740e+89  3.352987e+89  0 
VECTORS displacement_ITER56 FLOAT
 1.238346e+89  3.587184e+89  0 
 -8.114449e+89  3.198453e+89  0 
 -2.770941e+89  5.649798e+89  0 
 -3.455858e+89  5.713516e+89  0 
 -3.174731e+89  7.060431e+89  0 
 -1.948278e+89  6.377921e+89  0 
 -1.172388e+88  8.208913e+89  0 
 -3.058803e+89  6.330381e+89  0 
 -3.660640e+89  6.720456e+89  0 
 -4.170551e+89  3.394811e+89  0 
 -3.167442e+89  3.960878e+89  0 
 -2.019740e+89  3.352987e+89  0 
VECTORS displacement_ITER57 FLOAT
 1.238346e+89  3.587184e+89  0 
 -8.114449e+89  3.198453e+89  0 
 -2.770941e+89  5.649798e+89  0 
 -3.455858e+89  5.713516e+89  0 
 -3.174731e+89  7.060431e+89  0 
 -1.948278e+89  6.377921e+89  0 
 -1.172388e+88  8.208913e+89  0 
 -3.058803e+89  6.330381e+89  0 
 -3.660640e+89  6.720456e+89  0 
 -4.170551e+89  3.394811e+89  0 
 -3.167442e+89  3.960878e+89  0 
 -2.019740e+89  3.352987e+89  0 
VECTORS displacement_ITER58 FLOAT
 1.238346e+89  3.587184e+89  0 
 -8.114449e+89  3.198453e+89  0 
 -2.770941e+89  5.649798e+89  0 
 -3.455858e+89  5.713516e+89  0 
 -3.174731e+89  7.060431e+89  0 
 -1.948278e+89  6.377921e+89  0 
 -1.172388e+88  8.208913e+89  0 
 -3.058803e+89  6.330381e+89  0 
 -3.660640e+89  6.720456e+89  0 
 -4.170551e+89  3.394811e+89  0 
 -3.167442e+89  3.960878e+89  0 
 -2.019740e+89  3.352987e+89  0 
VECTORS displacement_ITER59 FLOAT
 1.238346e+89  3.587184e+89  0 
 -8.114449e+89  3.198453e+89  0 
 -2.770941e+89  5.649798e+89  0 
 -3.455858e+89  5.713516e+89  0 
 -3.174731e+89  7.060431e+89  0 
 -1.948278e+89  6.377921e+89  0 
 -1.172388e+88  8.208913e+89  0 
 -3.058803e+89  6.330381e+89  0 
 -3.660640e+89  6.720456e+89  0 
 -4.170551e+89  3.394811e+89  0 
 -3.167442e+89  3.960878e+89  0 
 -2.019740e+89  3.352987e+89  0 
VECTORS displacement_ITER60 FLOAT
 1.238346e+89  3.587184e+89  0 
 -8.114449e+89  3.198453e+89  0 
 -2.770941e+89  5.649798e+89  0 
 -3.455858e+89  5.713516e+89  0 
 -3.174731e+89  7.060431e+89  0 
 -1.948278e+89  6.377921e+89  0 
 -1.172388e+88  8.208913e+89  0 
 -3.058803e+89  6.330381e+89  0 
 -3.660640e+89  6.720456e+89  0 
 -4.170551e+89  3.394811e+89  0 
 -3.167442e+89  3.960878e+89  0 
 -2.019740e+89  3.352987e+89  0 
VECTORS displacement_ITER61 FLOAT
 1.238346e+89  3.587184e+89  0 
 -8.114449e+89  3.198453e+89  0 
 -2.770941e+89  5.649798e+89  0 
 -3.455858e+89  5.713516e+89  0 
 -3.174731e+89  7.060431e+89  0 
 -1.948278e+89  6.377921e+89  0 
 -1.172388e+88  8.208913e+89  0 
 -3.058803e+89  6.330381e+89  0 
 -3.660640e+89  6.720456e+89  0 
 -4.170551e+89  3.394811e+89  0 
 -3.167442e+89  3.960878e+89  0 
 -2.019740e+89  3.352987e+89  0 
VECTORS displacement_ITER62 FLOAT
 1.238346e+89  3.587184e+89  0 
 -8.114449e+89  3.198453e+89  0 
 -2.770941e+89  5.649798e+89  0 
 -3.455858e+89  5.713516e+89  0 
 -3.174731e+89  7.060431e+89  0 
 -1.948278e+89  6.377921e+89  0 
 -1.172388e+88  8.208913e+89  0 
 -3.058803e+89  6.330381e+89  0 
 -3.660640e+89  6.720456e+89  0 
 -4.170551e+89  3.394811e+89  0 
 -3.167442e+89  3.960878e+89  0 
 -2.019740e+89  3.352987e+89  0 
VECTORS displacement_ITER63 FLOAT
 1.238346e+89  3.587184e+89  0 
 -8.114449e+89  3.198453e+89  0 
 -2.770941e+89  5.649798e+89  0 
 -3.455858e+89  5.713516e+89  0 
 -3.174731e+89  7.060431e+89  0 
 -1.948278e+89  6.377921e+89  0 
 -1.172388e+88  8.208913e+89  0 
 -3.058803e+89  6.330381e+89  0 
 -3.660640e+89  6.720456e+89  0 
 -4.170551e+89  3.394811e+89  0 
 -3.167442e+89  3.960878e+89  0 
 -2.019740e+89  3.352987e+89  0 
VECTORS displacement_ITER64 FLOAT
 1.238346e+89  3.587184e+89  0 
 -8.114449e+89  3.198453e+89  0 
 -2.770941e+89  5.649798e+89  0 
 -3.455858e+89  5.713516e+89  0 
 -3.174731e+89  7.060431e+89  0 
 -1.948278e+89  6.377921e+89  0 
 -1.172388e+88  8.208913e+89  0 
 -3.058803e+89  6.330381e+89  0 
 -3.660640e+89  6.720456e+89  0 
 -4.170551e+89  3.394811e+89  0 
 -3.167442e+89  3.960878e+89  0 
 -2.019740e+89  3.352987e+89  0 
VECTORS displacement_ITER65 FLOAT
 1.238346e+89  3.587184e+89  0 
 -8.114449e+89  3.198453e+89  0 
 -2.770941e+89  5.649798e+89  0 
 -3.455858e+89  5.713516e+89  0 
 -3.174731e+89  7.060431e+89  0 
 -1.948278e+89  6.377921e+89  0 
 -1.172388e+88  8.208913e+89  0 
 -3.058803e+89  6.330381e+89  0 
 -3.660640e+89  6.720456e+89  0 
 -4.170551e+89  3.394811e+89  0 
 -3.167442e+89  3.960878e+89  0 
 -2.019740e+89  3.352987e+89  0 
VECTORS displacement_ITER66 FLOAT
 1.238346e+89  3.587184e+89  0 
 -8.114449e+89  3.198453e+89  0 
 -2.770941e+89  5.649798e+89  0 
 -3.455858e+89  5.713516e+89  0 
 -3.174731e+89  7.060431e+89  0 
 -1.948278e+89  6.377921e+89  0 
 -1.172388e+88  8.208913e+89  0 
 -3.058803e+89  6.330381e+89  0 
 -3.660640e+89  6.720456e+89  0 
 -4.170551e+89  3.394811e+89  0 
 -3.167442e+89  3.960878e+89  0 
 -2.019740e+89  3.352987e+89  0 
VECTORS displacement_ITER67 FLOAT
 1.238346e+89  3.587184e+89  0 
 -8.114449e+89  3.198453e+89  0 
 -2.770941e+89  5.649798e+89  0 
 -3.455858e+89  5.713516e+89  0 
 -3.174731e+89  7.060431e+89  0 
 -1.948278e+89  6.377921e+89  0 
 -1.172388e+88  8.208913e+89  0 
 -3.058803e+89  6.330381e+89  0 
 -3.660640e+89  6.720456e+89  0 
 -4.170551e+89  3.394811e+89  0 
 -3.167442e+89  3.960878e+89  0 
 -2.019740e+89  3.352987e+89  0 
VECTORS displacement_ITER68 FLOAT
 1.238346e+89  3.587184e+89  0 
 -8.114449e+89  3.198453e+89  0 
 -2.770941e+89  5.649798e+89  0 
 -3.455858e+89  5.713516e+89  0 
 -3.174731e+89  7.060431e+89  0 
 -1.948278e+89  6.377921e+89  0 
 -1.172388e+88  8.208913e+89  0 
 -3.058803e+89  6.330381e+89  0 
 -3.660640e+89  6.720456e+89  0 
 -4.170551e+89  3.394811e+89  0 
 -3.167442e+89  3.960878e+89  0 
 -2.019740e+89  3.352987e+89  0 
VECTORS displacement_ITER69 FLOAT
 1.238346e+89  3.587184e+89  0 
 -8.114449e+89  3.198453e+89  0 
 -2.770941e+89  5.649798e+89  0 
 -3.455858e+89  5.713516e+89  0 
 -3.174731e+89  7.060431e+89  0 