# vtk DataFile Version 3.1
this is an vtk file created by FEMAC
ASCII
DATASET UNSTRUCTURED_GRID
POINTS 105 FLOAT
3.000000 3.000000 0.000000
4.000000 3.000000 0.000000
2.666667 3.000000 0.000000
2.777778 3.000000 0.000000
2.888889 3.000000 0.000000
3.000000 2.888889 0.000000
3.000000 3.111111 0.000000
3.000000 3.222222 0.000000
3.000000 3.333333 0.000000
3.111111 3.000000 0.000000
3.222222 3.000000 0.000000
3.333333 3.000000 0.000000
3.444444 3.000000 0.000000
3.555556 3.000000 0.000000
3.666667 3.000000 0.000000
3.777778 3.000000 0.000000
3.888889 3.000000 0.000000
4.000000 2.666667 0.000000
4.000000 2.777778 0.000000
4.000000 2.888889 0.000000
4.000000 3.111111 0.000000
4.000000 3.222222 0.000000
4.000000 3.333333 0.000000
4.111111 3.000000 0.000000
4.222222 3.000000 0.000000
4.333333 3.000000 0.000000
4.444444 3.000000 0.000000
4.555556 3.000000 0.000000
2.666667 2.888889 0.000000
2.777778 2.888889 0.000000
2.888889 2.888889 0.000000
2.666667 3.111111 0.000000
2.666667 3.222222 0.000000
2.666667 3.333333 0.000000
2.777778 3.111111 0.000000
2.777778 3.222222 0.000000
2.777778 3.333333 0.000000
2.888889 3.111111 0.000000
2.888889 3.222222 0.000000
2.888889 3.333333 0.000000
3.111111 2.888889 0.000000
3.222222 2.888889 0.000000
3.333333 2.888889 0.000000
3.444444 2.888889 0.000000
3.555556 2.888889 0.000000
3.666667 2.666667 0.000000
3.666667 2.777778 0.000000
3.666667 2.888889 0.000000
3.777778 2.666667 0.000000
3.777778 2.777778 0.000000
3.777778 2.888889 0.000000
3.888889 2.666667 0.000000
3.888889 2.777778 0.000000
3.888889 2.888889 0.000000
3.111111 3.111111 0.000000
3.111111 3.222222 0.000000
3.111111 3.333333 0.000000
3.222222 3.111111 0.000000
3.222222 3.222222 0.000000
3.222222 3.333333 0.000000
3.333333 3.111111 0.000000
3.333333 3.222222 0.000000
3.333333 3.333333 0.000000
3.444444 3.111111 0.000000
3.444444 3.222222 0.000000
3.444444 3.333333 0.000000
3.555556 3.111111 0.000000
3.555556 3.222222 0.000000
3.555556 3.333333 0.000000
3.666667 3.111111 0.000000
3.666667 3.222222 0.000000
3.666667 3.333333 0.000000
3.777778 3.111111 0.000000
3.777778 3.222222 0.000000
3.777778 3.333333 0.000000
3.888889 3.111111 0.000000
3.888889 3.222222 0.000000
3.888889 3.333333 0.000000
4.111111 2.666667 0.000000
4.111111 2.777778 0.000000
4.111111 2.888889 0.000000
4.222222 2.666667 0.000000
4.222222 2.777778 0.000000
4.222222 2.888889 0.000000
4.333333 2.666667 0.000000
4.333333 2.777778 0.000000
4.333333 2.888889 0.000000
4.444444 2.666667 0.000000
4.444444 2.777778 0.000000
4.444444 2.888889 0.000000
4.555556 2.666667 0.000000
4.555556 2.777778 0.000000
4.555556 2.888889 0.000000
4.111111 3.111111 0.000000
4.111111 3.222222 0.000000
4.111111 3.333333 0.000000
4.222222 3.111111 0.000000
4.222222 3.222222 0.000000
4.222222 3.333333 0.000000
4.333333 3.111111 0.000000
4.333333 3.222222 0.000000
4.333333 3.333333 0.000000
4.444444 3.111111 0.000000
4.444444 3.222222 0.000000
4.555556 3.111111 0.000000
CELLS 81 405 
4 28 29  3  2
4 29 30  4  3
4 30  5  0  4
4 2  3 34 31
4 31 34 35 32
4 32 35 36 33
4 3  4 37 34
4 34 37 38 35
4 35 38 39 36
4 4  0  6 37
4 37  6  7 38
4 38  7  8 39
4 5 40  9  0
4 40 41 10  9
4 41 42 11 10
4 42 43 12 11
4 43 44 13 12
4 44 47 14 13
4 45 48 49 46
4 46 49 50 47
4 47 50 15 14
4 48 51 52 49
4 49 52 53 50
4 50 53 16 15
4 51 17 18 52
4 52 18 19 53
4 53 19  1 16
4 0  9 54  6
4 6 54 55  7
4 7 55 56  8
4 9 10 57 54
4 54 57 58 55
4 55 58 59 56
4 10 11 60 57
4 57 60 61 58
4 58 61 62 59
4 11 12 63 60
4 60 63 64 61
4 61 64 65 62
4 12 13 66 63
4 63 66 67 64
4 64 67 68 65
4 13 14 69 66
4 66 69 70 67
4 67 70 71 68
4 14 15 72 69
4 69 72 73 70
4 70 73 74 71
4 15 16 75 72
4 72 75 76 73
4 73 76 77 74
4 16  1 20 75
4 75 20 21 76
4 76 21 22 77
4 17 78 79 18
4 18 79 80 19
4 19 80 23  1
4 78 81 82 79
4 79 82 83 80
4 80 83 24 23
4 81 84 85 82
4 82 85 86 83
4 83 86 25 24
4 84 87 88 85
4 85 88 89 86
4 86 89 26 25
4 87 90 91 88
4 88 91 92 89
4 89 92 27 26
4 1 23 93 20
4 20 93 94 21
4 21 94 95 22
4 23 24 96 93
4 93 96 97 94
4 94 97 98 95
4 24 25 99 96
4 96  99 100  97
4 97 100 101  98
4 25  26 102  99
4 99 102 103 100
4 26  27 104 102
CELL_TYPES 81
9 9 9 9 9 9 9 9 9 9 9 9 9 9 9 9 9 9 9 9 9 9 9 9 9 9 9 9 9 9 9 9 9 9 9 9 9 9 9 9 9 9 9 9 9 9 9 9 9 9 9 9 9 9 9 9 9 9 9 9 9 9 9 9 9 9 9 9 9 9 9 9 9 9 9 9 9 9 9 9 9 
POINT_DATA 105
VECTORS displacement_ITER1 FLOAT
 7.603727e-03  -6.838482e-02  0 
 8.434792e-03  -1.030958e-01  0 
 1.047361e-02  -5.532690e-02  0 
 1.019450e-02  -5.972686e-02  0 
 9.321228e-03  -6.409851e-02  0 
 5.735825e-03  -6.716830e-02  0 
 1.033595e-02  -6.932011e-02  0 
 1.400296e-02  -6.964528e-02  0 
 1.746079e-02  -7.027833e-02  0 
 6.196660e-03  -7.318229e-02  0 
 5.688475e-03  -7.761499e-02  0 
 5.515549e-03  -8.190413e-02  0 
 5.598536e-03  -8.603506e-02  0 
 5.907488e-03  -8.992777e-02  0 
 6.358778e-03  -9.348476e-02  0 
 6.872881e-03  -9.671639e-02  0 
 7.425784e-03  -9.976082e-02  0 
 1.140221e-04  -1.044946e-01  0 
 3.020081e-03  -1.042287e-01  0 
 5.997322e-03  -1.039064e-01  0 
 1.021582e-02  -1.022317e-01  0 
 1.243678e-02  -1.017505e-01  0 
 1.441053e-02  -1.013882e-01  0 
 9.422184e-03  -1.070872e-01  0 
 9.858338e-03  -1.107402e-01  0 
 1.016767e-02  -1.143810e-01  0 
 1.040084e-02  -1.180547e-01  0 
 1.056283e-02  -1.217779e-01  0 
 6.478343e-03  -5.540613e-02  0 
 5.925769e-03  -5.980124e-02  0 
 5.404532e-03  -6.441540e-02  0 
 8.593471e-03  -6.109298e-02  0 
 5.403112e-03  -6.477300e-02  0 
 -2.522470e-03  -6.595711e-02  0 
 1.018144e-02  -6.111435e-02  0 
 7.787687e-03  -6.231107e-02  0 
 4.124095e-03  -6.389651e-02  0 
 1.020929e-02  -6.387085e-02  0 
 1.094684e-02  -6.437891e-02  0 
 1.218006e-02  -6.635121e-02  0 
 3.722354e-03  -7.214238e-02  0 
 2.968176e-03  -7.668235e-02  0 
 2.807880e-03  -8.107071e-02  0 
 3.069674e-03  -8.531187e-02  0 
 3.634457e-03  -8.935711e-02  0 
 5.219435e-03  -9.417058e-02  0 
 5.206461e-03  -9.474220e-02  0 
 5.056732e-03  -9.383372e-02  0 
 2.603066e-03  -9.660818e-02  0 
 4.246563e-03  -9.638830e-02  0 
 5.441392e-03  -9.660692e-02  0 
 8.045948e-04  -9.992922e-02  0 
 3.613047e-03  -9.995382e-02  0 
 5.819084e-03  -9.982088e-02  0 
 1.032663e-02  -7.311649e-02  0 
 1.397793e-02  -7.334944e-02  0 
 1.750408e-02  -7.310583e-02  0 
 9.864085e-03  -7.754219e-02  0 
 1.370294e-02  -7.748504e-02  0 
 1.780546e-02  -7.749553e-02  0 
 9.591267e-03  -8.188268e-02  0 
 1.350613e-02  -8.192579e-02  0 
 1.731010e-02  -8.205788e-02  0 
 9.515227e-03  -8.608214e-02  0 
 1.331554e-02  -8.609287e-02  0 
 1.698567e-02  -8.615250e-02  0 
 9.550033e-03  -9.001096e-02  0 
 1.309290e-02  -9.003546e-02  0 
 1.672102e-02  -8.995949e-02  0 
 9.684555e-03  -9.360008e-02  0 
 1.291618e-02  -9.364967e-02  0 
 1.601483e-02  -9.360138e-02  0 
 9.923918e-03  -9.683293e-02  0 
 1.275512e-02  -9.683111e-02  0 
 1.534666e-02  -9.659817e-02  0 
 1.025088e-02  -9.981061e-02  0 
 1.258583e-02  -9.949667e-02  0 
 1.466231e-02  -9.920754e-02  0 
 -5.602102e-05  -1.074688e-01  0 
 2.955897e-03  -1.072891e-01  0 
 5.981937e-03  -1.070302e-01  0 
 -2.849334e-04  -1.107258e-01  0 
 2.969406e-03  -1.106327e-01  0 
 6.322700e-03  -1.106488e-01  0 
 -4.107006e-04  -1.142725e-01  0 
 3.076148e-03  -1.142524e-01  0 
 6.581576e-03  -1.142966e-01  0 
 -3.937758e-04  -1.179700e-01  0 
 3.172740e-03  -1.179656e-01  0 
 6.755973e-03  -1.179933e-01  0 
 -3.190101e-04  -1.216868e-01  0 
 3.249798e-03  -1.216832e-01  0 
 6.870567e-03  -1.217216e-01  0 
 1.061961e-02  -1.071748e-01  0 
 1.296822e-02  -1.071891e-01  0 
 1.691704e-02  -1.078704e-01  0 
 1.120403e-02  -1.115842e-01  0 
 1.373070e-02  -1.125685e-01  0 
 1.739961e-02  -1.135327e-01  0 
 1.169203e-02  -1.159547e-01  0 
 1.409111e-02  -1.170232e-01  0 
 1.712311e-02  -1.181822e-01  0 
 1.244599e-02  -1.199194e-01  0 
 1.475654e-02  -1.230526e-01  0 
 1.309684e-02  -1.234029e-01  0 
VECTORS displacement_ITER2 FLOAT
 4.726682e-03  -5.975385e-02  0 
 4.823003e-03  -9.079657e-02  0 
 5.853394e-03  -4.713118e-02  0 
 5.943224e-03  -5.059284e-02  0 
 5.735061e-03  -5.467420e-02  0 
 1.656198e-03  -5.837839e-02  0 
 7.106140e-03  -6.104407e-02  0 
 9.808725e-03  -6.171478e-02  0 
 1.211265e-02  -6.263685e-02  0 
 3.798195e-03  -6.403558e-02  0 
 3.484842e-03  -6.745396e-02  0 
 3.249167e-03  -7.072028e-02  0 
 3.083274e-03  -7.400794e-02  0 
 3.046433e-03  -7.735132e-02  0 
 3.140983e-03  -8.068847e-02  0 
 3.378878e-03  -8.398780e-02  0 
 3.810429e-03  -8.726713e-02  0 
 -2.027976e-03  -9.213236e-02  0 
 3.932945e-04  -9.184141e-02  0 
 2.898029e-03  -9.153426e-02  0 
 6.850016e-03  -9.006271e-02  0 
 9.470619e-03  -8.979651e-02  0 
 1.210016e-02  -8.965021e-02  0 
 5.842849e-03  -9.422857e-02  0 
 6.314656e-03  -9.741151e-02  0 
 6.658892e-03  -1.006189e-01  0 
 6.933172e-03  -1.038933e-01  0 
 7.134130e-03  -1.072835e-01  0 
 2.840224e-03  -4.718066e-02  0 
 2.347754e-03  -5.059229e-02  0 
 1.607174e-03  -5.484362e-02  0 
 6.869993e-03  -4.873245e-02  0 
 8.216490e-03  -4.943039e-02  0 
 1.014804e-02  -4.837914e-02  0 
 7.168344e-03  -5.200657e-02  0 
 8.629785e-03  -5.300554e-02  0 
 1.090378e-02  -5.409365e-02  0 
 7.306694e-03  -5.604555e-02  0 
 9.384203e-03  -5.740665e-02  0 
 1.212960e-02  -5.891009e-02  0 
 2.113931e-03  -6.313051e-02  0 
 2.031271e-03  -6.674289e-02  0 
 1.744981e-03  -7.012259e-02  0 
 1.452668e-03  -7.354488e-02  0 
 1.267502e-03  -7.730645e-02  0 
 1.465372e-02  -9.567399e-02  0 
 5.976658e-03  -9.117762e-02  0 
 2.239597e-03  -8.377670e-02  0 
 8.369577e-03  -8.993304e-02  0 
 3.897445e-03  -8.760443e-02  0 
 2.212000e-03  -8.594887e-02  0 
 2.744045e-03  -9.007237e-02  0 
 2.193104e-03  -8.839123e-02  0 
 2.607990e-03  -8.785407e-02  0 
 7.126651e-03  -6.401095e-02  0 
 9.839617e-03  -6.432471e-02  0 
 1.219634e-02  -6.427338e-02  0 
 6.704266e-03  -6.738136e-02  0 
 9.612039e-03  -6.732806e-02  0 
 1.258842e-02  -6.737622e-02  0 
 6.442277e-03  -7.065489e-02  0 
 9.515862e-03  -7.065176e-02  0 
 1.232690e-02  -7.077822e-02  0 
 6.325164e-03  -7.397780e-02  0 
 9.460336e-03  -7.392364e-02  0 
 1.242702e-02  -7.388204e-02  0 
 6.290223e-03  -7.733978e-02  0 
 9.430507e-03  -7.730180e-02  0 
 1.263223e-02  -7.724811e-02  0 
 6.359678e-03  -8.071387e-02  0 
 9.472758e-03  -8.072590e-02  0 
 1.254380e-02  -8.070059e-02  0 
 6.556769e-03  -8.404406e-02  0 
 9.525810e-03  -8.403849e-02  0 
 1.239171e-02  -8.392591e-02  0 
 6.862852e-03  -8.731275e-02  0 
 9.519417e-03  -8.706081e-02  0 
 1.214232e-02  -8.692088e-02  0 
 -2.229138e-03  -9.460842e-02  0 
 3.153492e-04  -9.442613e-02  0 
 2.884082e-03  -9.417051e-02  0 
 -2.489733e-03  -9.738673e-02  0 
 3.108639e-04  -9.729543e-02  0 
 3.220144e-03  -9.731317e-02  0 
 -2.658696e-03  -1.004744e-01  0 
 3.974428e-04  -1.004653e-01  0 
 3.483433e-03  -1.005201e-01  0 
 -2.679526e-03  -1.037402e-01  0 
 4.790348e-04  -1.037625e-01  0 
 3.659646e-03  -1.038108e-01  0 
 -2.619964e-03  -1.070594e-01  0 
 5.473036e-04  -1.070718e-01  0 
 3.775931e-03  -1.071668e-01  0 
 7.726906e-03  -9.434489e-02  0 
 1.103662e-02  -9.457987e-02  0 
 1.624393e-02  -9.585249e-02  0 
 8.665896e-03  -9.849171e-02  0 
 1.268934e-02  -9.998810e-02  0 
 1.854650e-02  -1.015265e-01  0 
 9.456301e-03  -1.028932e-01  0 
 1.408885e-02  -1.049632e-01  0 
 2.012350e-02  -1.081056e-01  0 
 1.005033e-02  -1.074244e-01  0 
 1.737577e-02  -1.133277e-01  0 
 1.042147e-02  -1.101694e-01  0 
VECTORS displacement_ITER3 FLOAT
 8.077236e-03  -5.674342e-02  0 
 8.936926e-03  -9.065623e-02  0 
 9.311932e-03  -4.227258e-02  0 
 9.445980e-03  -4.618166e-02  0 
 9.262777e-03  -5.091328e-02  0 
 4.596995e-03  -5.523595e-02  0 
 1.094234e-02  -5.817012e-02  0 
 1.421644e-02  -5.878212e-02  0 
 1.743527e-02  -5.929144e-02  0 
 6.995023e-03  -6.180283e-02  0 
 6.693154e-03  -6.595610e-02  0 
 6.595118e-03  -6.988286e-02  0 
 6.641259e-03  -7.366523e-02  0 
 6.827383e-03  -7.730082e-02  0 
 7.123705e-03  -8.075676e-02  0 
 7.498441e-03  -8.405162e-02  0 
 7.973718e-03  -8.726206e-02  0 
 -8.201026e-05  -9.159993e-02  0 
 3.163177e-03  -9.147012e-02  0 
 6.358180e-03  -9.128222e-02  0 
 1.095814e-02  -9.000131e-02  0 
 1.353650e-02  -8.971844e-02  0 
 1.603883e-02  -8.946892e-02  0 
 9.888400e-03  -9.460659e-02  0 
 1.029574e-02  -9.835222e-02  0 
 1.054698e-02  -1.020783e-01  0 
 1.071365e-02  -1.058109e-01  0 
 1.080740e-02  -1.095448e-01  0 
 5.965588e-03  -4.236968e-02  0 
 5.314426e-03  -4.615383e-02  0 
 4.441522e-03  -5.108108e-02  0 
 9.999405e-03  -4.562040e-02  0 
 9.759466e-03  -4.866606e-02  0 
 7.664326e-03  -4.976253e-02  0 
 1.077213e-02  -4.832080e-02  0 
 1.101736e-02  -4.997340e-02  0 
 1.017659e-02  -5.169518e-02  0 
 1.098237e-02  -5.227130e-02  0 
 1.271991e-02  -5.344962e-02  0 
 1.420328e-02  -5.522223e-02  0 
 3.617065e-03  -6.121279e-02  0 
 3.623581e-03  -6.561537e-02  0 
 3.732008e-03  -6.964670e-02  0 
 3.983314e-03  -7.354324e-02  0 
 4.333105e-03  -7.723373e-02  0 
 -4.933630e-04  -7.676792e-02  0 
 3.052438e-03  -7.901248e-02  0 
 5.228012e-03  -8.061793e-02  0 
 -8.343041e-04  -8.216293e-02  0 
 3.083596e-03  -8.286556e-02  0 
 5.602760e-03  -8.356525e-02  0 
 -5.381864e-04  -8.658719e-02  0 
 3.085397e-03  -8.715594e-02  0 
 5.993035e-03  -8.720945e-02  0 
 1.099566e-02  -6.177319e-02  0 
 1.429704e-02  -6.216826e-02  0 
 1.747680e-02  -6.235367e-02  0 
 1.058682e-02  -6.590335e-02  0 
 1.417400e-02  -6.588938e-02  0 
 1.768909e-02  -6.600089e-02  0 
 1.035654e-02  -6.985610e-02  0 
 1.397434e-02  -6.984386e-02  0 
 1.749972e-02  -6.984906e-02  0 
 1.027961e-02  -7.368325e-02  0 
 1.381645e-02  -7.367294e-02  0 
 1.723480e-02  -7.368257e-02  0 
 1.030964e-02  -7.735229e-02  0 
 1.369878e-02  -7.736718e-02  0 
 1.708492e-02  -7.733477e-02  0 
 1.043694e-02  -8.083912e-02  0 
 1.365043e-02  -8.087580e-02  0 
 1.674287e-02  -8.084265e-02  0 
 1.066328e-02  -8.414126e-02  0 
 1.363807e-02  -8.414002e-02  0 
 1.645527e-02  -8.402114e-02  0 
 1.096703e-02  -8.731332e-02  0 
 1.360098e-02  -8.706904e-02  0 
 1.616374e-02  -8.691600e-02  0 
 -1.717672e-04  -9.492149e-02  0 
 3.131578e-03  -9.478350e-02  0 
 6.353172e-03  -9.455812e-02  0 
 -2.745674e-04  -9.840968e-02  0 
 3.159511e-03  -9.831267e-02  0 
 6.650744e-03  -9.829440e-02  0 
 -2.871962e-04  -1.020725e-01  0 
 3.276615e-03  -1.020344e-01  0 
 6.871105e-03  -1.020384e-01  0 
 -1.885328e-04  -1.058035e-01  0 
 3.379073e-03  -1.057869e-01  0 
 7.015879e-03  -1.057892e-01  0 
 -7.169764e-05  -1.094731e-01  0 
 3.457314e-03  -1.095245e-01  0 
 7.112035e-03  -1.095563e-01  0 
 1.176509e-02  -9.425007e-02  0 
 1.398019e-02  -9.388607e-02  0 
 1.655147e-02  -9.345579e-02  0 
 1.238943e-02  -9.782717e-02  0 
 1.427702e-02  -9.726230e-02  0 
 1.602347e-02  -9.665119e-02  0 
 1.287851e-02  -1.008546e-01  0 
 1.392675e-02  -9.963598e-02  0 
 1.523152e-02  -9.809108e-02  0 
 1.304018e-02  -1.036179e-01  0 
 1.304036e-02  -9.985681e-02  0 
 1.271972e-02  -1.070172e-01  0 
VECTORS displacement_ITER4 FLOAT
 5.320316e-03  -5.751230e-02  0 
 5.392286e-03  -8.500155e-02  0 
 6.380815e-03  -4.547022e-02  0 
 6.559400e-03  -4.838227e-02  0 
 6.470639e-03  -5.225537e-02  0 
 2.541210e-03  -5.583999e-02  0 
 7.307373e-03  -5.914159e-02  0 
 9.629761e-03  -5.987367e-02  0 
 1.193528e-02  -6.043717e-02  0 
 4.227050e-03  -6.186233e-02  0 
 3.916450e-03  -6.512875e-02  0 
 3.758726e-03  -6.815420e-02  0 
 3.696384e-03  -7.107774e-02  0 
 3.744594e-03  -7.393908e-02  0 
 3.894420e-03  -7.672162e-02  0 
 4.139593e-03  -7.943118e-02  0 
 4.520275e-03  -8.211168e-02  0 
 -1.020486e-03  -8.592773e-02  0 
 1.312601e-03  -8.580270e-02  0 
 3.621250e-03  -8.561241e-02  0 
 6.990684e-03  -8.436985e-02  0 
 9.103346e-03  -8.412724e-02  0 
 1.120009e-02  -8.396298e-02  0 
 6.268763e-03  -8.806476e-02  0 
 6.644652e-03  -9.090991e-02  0 
 6.879553e-03  -9.373650e-02  0 
 7.036059e-03  -9.656477e-02  0 
 7.123008e-03  -9.941021e-02  0 
 4.060960e-03  -4.560375e-02  0 
 3.385617e-03  -4.835428e-02  0 
 2.435708e-03  -5.240472e-02  0 
 8.281331e-03  -4.426495e-02  0 
 1.087257e-02  -4.333996e-02  0 
 1.515962e-02  -4.151550e-02  0 
 7.768455e-03  -4.905577e-02  0 
 1.044631e-02  -4.902832e-02  0 
 1.443459e-02  -4.888448e-02  0 
 7.662829e-03  -5.372240e-02  0 
 1.011119e-02  -5.474394e-02  0 
 1.365850e-02  -5.520384e-02  0 
 1.554024e-03  -6.148275e-02  0 
 1.562455e-03  -6.511178e-02  0 
 1.548797e-03  -6.827964e-02  0 
 1.561824e-03  -7.134463e-02  0 
 1.612688e-03  -7.437885e-02  0 
 7.275041e-04  -7.984652e-02  0 
 1.345229e-03  -7.934021e-02  0 
 2.249780e-03  -7.800285e-02  0 
 -1.339170e-04  -8.119006e-02  0 
 1.165441e-03  -8.078892e-02  0 
 2.484414e-03  -8.024531e-02  0 
 -5.313242e-04  -8.338575e-02  0 
 1.165005e-03  -8.304640e-02  0 
 2.941541e-03  -8.268591e-02  0 
 7.370207e-03  -6.183824e-02  0 
 9.729188e-03  -6.230369e-02  0 
 1.191376e-02  -6.259332e-02  0 
 6.925040e-03  -6.506483e-02  0 
 9.611526e-03  -6.505487e-02  0 
 1.213265e-02  -6.519251e-02  0 
 6.652415e-03  -6.810189e-02  0 
 9.403991e-03  -6.806414e-02  0 
 1.202012e-02  -6.805812e-02  0 
 6.525750e-03  -7.106103e-02  0 
 9.250482e-03  -7.102827e-02  0 
 1.186062e-02  -7.101530e-02  0 
 6.502712e-03  -7.394917e-02  0 
 9.165926e-03  -7.393912e-02  0 
 1.178047e-02  -7.391143e-02  0 
 6.574975e-03  -7.675927e-02  0 
 9.152598e-03  -7.676750e-02  0 
 1.164124e-02  -7.674176e-02  0 
 6.746736e-03  -7.948413e-02  0 
 9.176137e-03  -7.946532e-02  0 
 1.148529e-02  -7.935496e-02  0 
 7.007279e-03  -8.214705e-02  0 
 9.154372e-03  -8.191600e-02  0 
 1.128960e-02  -8.176989e-02  0 
 -1.108289e-03  -8.833165e-02  0 
 1.285589e-03  -8.821478e-02  0 
 3.619741e-03  -8.801247e-02  0 
 -1.204013e-03  -9.091107e-02  0 
 1.315754e-03  -9.083905e-02  0 
 3.902604e-03  -9.084094e-02  0 
 -1.217685e-03  -9.365809e-02  0 
 1.427097e-03  -9.364790e-02  0 
 4.111529e-03  -9.367664e-02  0 
 -1.137995e-03  -9.647878e-02  0 
 1.527171e-03  -9.649234e-02  0 
 4.244951e-03  -9.652039e-02  0 
 -1.036473e-03  -9.927975e-02  0 
 1.599964e-03  -9.931635e-02  0 
 4.326275e-03  -9.936402e-02  0 
 7.544900e-03  -8.819699e-02  0 
 9.722652e-03  -8.832293e-02  0 
 1.290364e-02  -8.884455e-02  0 
 8.180669e-03  -9.154401e-02  0 
 1.052312e-02  -9.233946e-02  0 
 1.343062e-02  -9.301918e-02  0 
 8.695028e-03  -9.488381e-02  0 
 1.134992e-02  -9.591230e-02  0 
 1.363415e-02  -9.665503e-02  0 
 9.212162e-03  -9.804098e-02  0 
 1.237127e-02  -1.004811e-01  0 
 9.900494e-03  -1.010848e-01  0 
VECTORS displacement_ITER5 FLOAT
 6.111540e-03  -5.342098e-02  0 
 5.216585e-03  -8.387684e-02  0 
 7.183880e-03  -4.230730e-02  0 
 7.372098e-03  -4.482073e-02  0 
 7.301737e-03  -4.832934e-02  0 
 3.691313e-03  -5.154786e-02  0 
 8.125015e-03  -5.524745e-02  0 
 1.045416e-02  -5.609671e-02  0 
 1.260854e-02  -5.682881e-02  0 
 4.946234e-03  -5.801620e-02  0 
 4.594152e-03  -6.137870e-02  0 
 4.359078e-03  -6.449959e-02  0 
 4.175880e-03  -6.757490e-02  0 
 4.064964e-03  -7.068091e-02  0 
 4.043697e-03  -7.382746e-02  0 
 4.139669e-03  -7.702212e-02  0 
 4.412769e-03  -8.028259e-02  0 
 -3.640864e-03  -8.493515e-02  0 
 -4.976358e-04  -8.480336e-02  0 
 2.594088e-03  -8.457771e-02  0 
 7.474955e-03  -8.316385e-02  0 
 1.017551e-02  -8.292803e-02  0 
 1.292622e-02  -8.284607e-02  0 
 6.033567e-03  -8.783076e-02  0 
 6.343719e-03  -9.145215e-02  0 
 6.515781e-03  -9.500497e-02  0 
 6.617284e-03  -9.851946e-02  0 
 6.663666e-03  -1.020104e-01  0 
 5.221614e-03  -4.238363e-02  0 
 4.578071e-03  -4.477614e-02  0 
 3.594359e-03  -4.845155e-02  0 
 8.412734e-03  -4.547522e-02  0 
 9.227548e-03  -4.866491e-02  0 
 9.216408e-03  -5.084670e-02  0 
 8.792370e-03  -4.772492e-02  0 
 9.803772e-03  -4.990170e-02  0 
 9.976832e-03  -5.147253e-02  0 
 8.748649e-03  -5.072287e-02  0 
 1.023312e-02  -5.234879e-02  0 
 1.137111e-02  -5.373098e-02  0 
 2.469106e-03  -5.787101e-02  0 
 2.458133e-03  -6.161267e-02  0 
 2.331255e-03  -6.482371e-02  0 
 2.130777e-03  -6.796773e-02  0 
 1.912200e-03  -7.112620e-02  0 
 -1.710936e-03  -7.449493e-02  0 
 -1.902765e-06  -7.477386e-02  0 
 1.999291e-03  -7.452473e-02  0 
 -2.810930e-03  -7.748099e-02  0 
 -1.835766e-04  -7.750132e-02  0 
 2.022240e-03  -7.741589e-02  0 
 -3.264942e-03  -8.091757e-02  0 
 -3.869432e-04  -8.094001e-02  0 
 2.253064e-03  -8.069717e-02  0 
 8.191023e-03  -5.799081e-02  0 
 1.056384e-02  -5.850218e-02  0 
 1.274934e-02  -5.881371e-02  0 
 7.694674e-03  -6.130112e-02  0 
 1.044972e-02  -6.130617e-02  0 
 1.303740e-02  -6.149961e-02  0 
 7.383906e-03  -6.442601e-02  0 
 1.027031e-02  -6.439852e-02  0 
 1.294895e-02  -6.445071e-02  0 
 7.212819e-03  -6.752660e-02  0 
 1.014679e-02  -6.747903e-02  0 
 1.291261e-02  -6.745757e-02  0 
 7.131445e-03  -7.065213e-02  0 
 1.009958e-02  -7.061543e-02  0 
 1.300305e-02  -7.058362e-02  0 
 7.143051e-03  -7.382934e-02  0 
 1.013742e-02  -7.381538e-02  0 
 1.306165e-02  -7.379600e-02  0 
 7.264884e-03  -7.705168e-02  0 
 1.020794e-02  -7.702364e-02  0 
 1.307178e-02  -7.691343e-02  0 
 7.500543e-03  -8.031255e-02  0 
 1.021323e-02  -8.008458e-02  0 
 1.297366e-02  -7.995070e-02  0 
 -3.709256e-03  -8.814856e-02  0 
 -5.271729e-04  -8.801283e-02  0 
 2.580371e-03  -8.779004e-02  0 
 -3.755251e-03  -9.149917e-02  0 
 -4.866961e-04  -9.141400e-02  0 
 2.850448e-03  -9.140139e-02  0 
 -3.708835e-03  -9.497155e-02  0 
 -3.597916e-04  -9.495202e-02  0 
 3.037686e-03  -9.496573e-02  0 
 -3.581210e-03  -9.847323e-02  0 
 -2.485834e-04  -9.847862e-02  0 
 3.152645e-03  -9.849398e-02  0 
 -3.451528e-03  -1.019147e-01  0 
 -1.692026e-04  -1.019605e-01  0 
 3.220294e-03  -1.019945e-01  0 
 7.906993e-03  -8.778411e-02  0 
 1.046700e-02  -8.774301e-02  0 
 1.359217e-02  -8.783966e-02  0 
 8.373863e-03  -9.170291e-02  0 
 1.082286e-02  -9.198470e-02  0 
 1.341612e-02  -9.216438e-02  0 
 8.716392e-03  -9.540339e-02  0 
 1.109775e-02  -9.562622e-02  0 
 1.304393e-02  -9.535928e-02  0 
 9.126332e-03  -9.883166e-02  0 
 1.101250e-02  -9.918681e-02  0 
 9.681497e-03  -1.025980e-01  0 
VECTORS displacement_ITER6 FLOAT
 5.163963e-03  -5.341811e-02  0 
 4.195402e-03  -8.293624e-02  0 
 6.391100e-03  -4.347836e-02  0 
 6.523276e-03  -4.575900e-02  0 
 6.387023e-03  -4.884279e-02  0 
 3.308319e-03  -5.151621e-02  0 
 7.048232e-03  -5.526987e-02  0 
 9.278965e-03  -5.609428e-02  0 
 1.145798e-02  -5.669243e-02  0 
 3.967561e-03  -5.794010e-02  0 
 3.612304e-03  -6.122986e-02  0 
 3.389459e-03  -6.427324e-02  0 
 3.223471e-03  -6.724769e-02  0 
 3.125611e-03  -7.022881e-02  0 
 3.108147e-03  -7.323488e-02  0 
 3.191920e-03  -7.628280e-02  0 
 3.434639e-03  -7.940813e-02  0 
 -3.798003e-03  -8.408648e-02  0 
 -9.635129e-04  -8.394539e-02  0 
 1.820994e-03  -8.369311e-02  0 
 6.376330e-03  -8.216258e-02  0 
 8.942482e-03  -8.188043e-02  0 
 1.152869e-02  -8.174620e-02  0 
 4.968696e-03  -8.665526e-02  0 
 5.242681e-03  -8.996829e-02  0 
 5.387588e-03  -9.318807e-02  0 
 5.467177e-03  -9.634806e-02  0 
 5.492820e-03  -9.944700e-02  0 
 4.587037e-03  -4.355314e-02  0 
 4.058394e-03  -4.572699e-02  0 
 3.208327e-03  -4.895921e-02  0 
 7.474636e-03  -4.497252e-02  0 
 9.147087e-03  -4.639848e-02  0 
 1.084394e-02  -4.741581e-02  0 
 7.701039e-03  -4.765475e-02  0 
 9.434327e-03  -4.889198e-02  0 
 1.136903e-02  -4.948499e-02  0 
 7.602070e-03  -5.084832e-02  0 
 9.455399e-03  -5.214853e-02  0 
 1.170753e-02  -5.281399e-02  0 
 1.973608e-03  -5.729199e-02  0 
 1.798199e-03  -6.107314e-02  0 
 1.598964e-03  -6.434701e-02  0 
 1.351302e-03  -6.748532e-02  0 
 1.126166e-03  -7.066771e-02  0 
 -1.933940e-03  -7.633106e-02  0 
 -6.992236e-04  -7.558794e-02  0 
 1.091130e-03  -7.424556e-02  0 
 -2.868568e-03  -7.834549e-02  0 
 -9.188066e-04  -7.783091e-02  0 
 1.077883e-03  -7.718724e-02  0 
 -3.344777e-03  -8.113708e-02  0 
 -1.034043e-03  -8.068449e-02  0 
 1.324090e-03  -8.017743e-02  0 
 7.123336e-03  -5.791807e-02  0 
 9.398467e-03  -5.845798e-02  0 
 1.156061e-02  -5.884866e-02  0 
 6.632913e-03  -6.116081e-02  0 
 9.316979e-03  -6.118549e-02  0 
 1.177393e-02  -6.140314e-02  0 
 6.322103e-03  -6.420680e-02  0 
 9.113351e-03  -6.417176e-02  0 
 1.172289e-02  -6.419373e-02  0 
 6.144464e-03  -6.720329e-02  0 
 8.959900e-03  -6.715955e-02  0 
 1.163270e-02  -6.713036e-02  0 
 6.059149e-03  -7.020248e-02  0 
 8.894491e-03  -7.016881e-02  0 
 1.162405e-02  -7.013969e-02  0 
 6.065215e-03  -7.323397e-02  0 
 8.912504e-03  -7.321585e-02  0 
 1.168143e-02  -7.318785e-02  0 
 6.178779e-03  -7.630431e-02  0 
 8.979882e-03  -7.627243e-02  0 
 1.168235e-02  -7.616550e-02  0 
 6.409933e-03  -7.942804e-02  0 
 8.986843e-03  -7.918447e-02  0 
 1.159522e-02  -7.903449e-02  0 
 -3.857780e-03  -8.698584e-02  0 
 -9.891960e-04  -8.684609e-02  0 
 1.804943e-03  -8.661762e-02  0 
 -3.870986e-03  -9.001355e-02  0 
 -9.379694e-04  -8.992973e-02  0 
 2.072451e-03  -8.991919e-02  0 
 -3.791431e-03  -9.313562e-02  0 
 -7.983867e-04  -9.312441e-02  0 
 2.255249e-03  -9.314640e-02  0 
 -3.655275e-03  -9.627613e-02  0 
 -6.726968e-04  -9.629188e-02  0 
 2.372869e-03  -9.631762e-02  0 
 -3.536426e-03  -9.938375e-02  0 
 -5.822008e-04  -9.941932e-02  0 
 2.449280e-03  -9.944358e-02  0 
 6.594374e-03  -8.664972e-02  0 
 9.035851e-03  -8.656191e-02  0 
 1.203914e-02  -8.664426e-02  0 
 6.858236e-03  -9.042320e-02  0 
 9.181129e-03  -9.076908e-02  0 
 1.190952e-02  -9.099638e-02  0 
 6.966600e-03  -9.401072e-02  0 
 9.231184e-03  -9.455152e-02  0 
 1.179298e-02  -9.481419e-02  0 
 7.023460e-03  -9.710909e-02  0 
 8.527246e-03  -9.805062e-02  0 
 6.933339e-03  -9.997438e-02  0 
VECTORS displacement_ITER7 FLOAT
 5.328833e-03  -5.384585e-02  0 
 4.688705e-03  -8.278952e-02  0 
 6.648008e-03  -4.420821e-02  0 
 6.724746e-03  -4.659655e-02  0 
 6.531239e-03  -4.956412e-02  0 
 3.712738e-03  -5.199226e-02  0 
 7.248023e-03  -5.564137e-02  0 
 9.517010e-03  -5.640550e-02  0 
 1.185498e-02  -5.685676e-02  0 
 4.165177e-03  -5.833873e-02  0 
 3.835788e-03  -6.164455e-02  0 
 3.654578e-03  -6.470096e-02  0 
 3.540707e-03  -6.765663e-02  0 
 3.496362e-03  -7.057790e-02  0 
 3.529171e-03  -7.348846e-02  0 
 3.650566e-03  -7.641510e-02  0 
 3.914371e-03  -7.940646e-02  0 
 -3.340268e-03  -8.390435e-02  0 
 -4.754956e-04  -8.377729e-02  0 
 2.321634e-03  -8.353636e-02  0 
 6.724677e-03  -8.202263e-02  0 
 9.158133e-03  -8.173407e-02  0 
 1.159229e-02  -8.156450e-02  0 
 5.473144e-03  -8.650169e-02  0 
 5.753606e-03  -8.982151e-02  0 
 5.901948e-03  -9.305087e-02  0 
 5.983811e-03  -9.622105e-02  0 
 6.010465e-03  -9.933146e-02  0 
 4.642830e-03  -4.426633e-02  0 
 4.250715e-03  -4.657469e-02  0 
 3.577230e-03  -4.966605e-02  0 
 7.418236e-03  -4.506364e-02  0 
 9.082157e-03  -4.576043e-02  0 
 1.086440e-02  -4.620268e-02  0 
 7.682314e-03  -4.786467e-02  0 
 9.426650e-03  -4.861981e-02  0 
 1.170830e-02  -4.886242e-02  0 
 7.617203e-03  -5.116584e-02  0 
 9.574236e-03  -5.221926e-02  0 
 1.218704e-02  -5.268113e-02  0 
 2.537686e-03  -5.742014e-02  0 
 2.351397e-03  -6.124075e-02  0 
 2.177259e-03  -6.458881e-02  0 
 1.983556e-03  -6.774625e-02  0 
 1.838198e-03  -7.087056e-02  0 
 -2.880095e-03  -7.467721e-02  0 
 -4.699557e-04  -7.450836e-02  0 
 1.716563e-03  -7.400318e-02  0 
 -3.358999e-03  -7.785724e-02  0 
 -6.317091e-04  -7.748427e-02  0 
 1.662739e-03  -7.701858e-02  0 
 -3.342617e-03  -8.097108e-02  0 
 -6.909611e-04  -8.059576e-02  0 
 1.846361e-03  -8.009320e-02  0 
 7.329086e-03  -5.831962e-02  0 
 9.641467e-03  -5.885694e-02  0 
 1.190887e-02  -5.929123e-02  0 
 6.869489e-03  -6.158766e-02  0 
 9.586053e-03  -6.162444e-02  0 
 1.204010e-02  -6.184023e-02  0 
 6.580523e-03  -6.464789e-02  0 
 9.365264e-03  -6.460746e-02  0 
 1.199896e-02  -6.459582e-02  0 
 6.418088e-03  -6.762534e-02  0 
 9.190770e-03  -6.758925e-02  0 
 1.184731e-02  -6.755338e-02  0 
 6.352709e-03  -7.056791e-02  0 
 9.112855e-03  -7.054773e-02  0 
 1.174926e-02  -7.052880e-02  0 
 6.380177e-03  -7.350288e-02  0 
 9.119179e-03  -7.349556e-02  0 
 1.176756e-02  -7.346755e-02  0 
 6.511676e-03  -7.644614e-02  0 
 9.186292e-03  -7.642093e-02  0 
 1.174268e-02  -7.632762e-02  0 
 6.754398e-03  -7.942909e-02  0 
 9.199484e-03  -7.918446e-02  0 
 1.166659e-02  -7.903728e-02  0 
 -3.387129e-03  -8.683290e-02  0 
 -4.976000e-04  -8.669473e-02  0 
 2.306398e-03  -8.646491e-02  0 
 -3.384289e-03  -8.987466e-02  0 
 -4.447518e-04  -8.978892e-02  0 
 2.574367e-03  -8.977440e-02  0 
 -3.296880e-03  -9.300022e-02  0 
 -3.029661e-04  -9.298930e-02  0 
 2.758808e-03  -9.301040e-02  0 
 -3.163467e-03  -9.614615e-02  0 
 -1.749470e-04  -9.616376e-02  0 
 2.878534e-03  -9.619082e-02  0 
 -3.051162e-03  -9.927023e-02  0 
 -8.452622e-05  -9.930361e-02  0 
 2.955814e-03  -9.932510e-02  0 
 7.090048e-03  -8.639312e-02  0 
 9.473989e-03  -8.626207e-02  0 
 1.243409e-02  -8.632481e-02  0 
 7.471345e-03  -9.013050e-02  0 
 9.846624e-03  -9.043454e-02  0 
 1.261117e-02  -9.064874e-02  0 
 7.717704e-03  -9.372776e-02  0 
 1.021256e-02  -9.426115e-02  0 
 1.268250e-02  -9.446499e-02  0 
 7.914646e-03  -9.698987e-02  0 
 1.012505e-02  -9.806065e-02  0 
 8.143589e-03  -1.002320e-01  0 
VECTORS displacement_ITER8 FLOAT
 4.850323e-03  -5.352879e-02  0 
 4.305993e-03  -8.287592e-02  0 
 6.248115e-03  -4.356490e-02  0 
 6.278040e-03  -4.624830e-02  0 
 6.039669e-03  -4.931478e-02  0 
 3.269629e-03  -5.171466e-02  0 
 6.845128e-03  -5.527828e-02  0 
 9.192219e-03  -5.600749e-02  0 
 1.161936e-02  -5.641534e-02  0 
 3.708451e-03  -5.804211e-02  0 
 3.389133e-03  -6.140053e-02  0 
 3.221840e-03  -6.451231e-02  0 
 3.122278e-03  -6.751838e-02  0 
 3.087872e-03  -7.048466e-02  0 
 3.125225e-03  -7.343910e-02  0 
 3.248283e-03  -7.641241e-02  0 
 3.516993e-03  -7.945248e-02  0 
 -3.614983e-03  -8.397991e-02  0 
 -7.741011e-04  -8.385741e-02  0 
 1.988631e-03  -8.362049e-02  0 
 6.370682e-03  -8.211461e-02  0 
 8.854701e-03  -8.184072e-02  0 
 1.136826e-02  -8.168994e-02  0 
 5.105079e-03  -8.654963e-02  0 
 5.392748e-03  -8.983787e-02  0 
 5.546263e-03  -9.303734e-02  0 
 5.633909e-03  -9.618047e-02  0 
 5.667925e-03  -9.927151e-02  0 
 3.850462e-03  -4.359246e-02  0 
 3.590639e-03  -4.622696e-02  0 
 3.078725e-03  -4.939238e-02  0 
 7.288249e-03  -4.481134e-02  0 
 8.798133e-03  -4.591850e-02  0 