# vtk DataFile Version 3.1
this is an vtk file created by FEMAC
ASCII
DATASET UNSTRUCTURED_GRID
POINTS 102 FLOAT
3.000000 4.000000 0.000000
2.777778 4.000000 0.000000
2.888889 4.000000 0.000000
3.000000 3.333333 0.000000
3.000000 3.444444 0.000000
3.000000 3.555556 0.000000
3.000000 3.666667 0.000000
3.000000 3.777778 0.000000
3.000000 3.888889 0.000000
3.000000 4.111111 0.000000
3.000000 4.222222 0.000000
3.000000 4.333333 0.000000
3.000000 4.444444 0.000000
3.000000 4.555556 0.000000
3.000000 4.666667 0.000000
3.000000 4.777778 0.000000
3.000000 4.888889 0.000000
3.111111 4.000000 0.000000
3.222222 4.000000 0.000000
3.333333 4.000000 0.000000
3.444444 4.000000 0.000000
2.777778 3.333333 0.000000
2.777778 3.444444 0.000000
2.777778 3.555556 0.000000
2.777778 3.666667 0.000000
2.777778 3.777778 0.000000
2.777778 3.888889 0.000000
2.888889 3.333333 0.000000
2.888889 3.444444 0.000000
2.888889 3.555556 0.000000
2.888889 3.666667 0.000000
2.888889 3.777778 0.000000
2.888889 3.888889 0.000000
2.777778 4.111111 0.000000
2.777778 4.222222 0.000000
2.777778 4.333333 0.000000
2.777778 4.444444 0.000000
2.777778 4.555556 0.000000
2.777778 4.666667 0.000000
2.777778 4.777778 0.000000
2.888889 4.111111 0.000000
2.888889 4.222222 0.000000
2.888889 4.333333 0.000000
2.888889 4.444444 0.000000
2.888889 4.555556 0.000000
2.888889 4.666667 0.000000
2.888889 4.777778 0.000000
2.888889 4.888889 0.000000
3.111111 3.333333 0.000000
3.111111 3.444444 0.000000
3.111111 3.555556 0.000000
3.111111 3.666667 0.000000
3.111111 3.777778 0.000000
3.111111 3.888889 0.000000
3.222222 3.333333 0.000000
3.222222 3.444444 0.000000
3.222222 3.555556 0.000000
3.222222 3.666667 0.000000
3.222222 3.777778 0.000000
3.222222 3.888889 0.000000
3.333333 3.333333 0.000000
3.333333 3.444444 0.000000
3.333333 3.555556 0.000000
3.333333 3.666667 0.000000
3.333333 3.777778 0.000000
3.333333 3.888889 0.000000
3.444444 3.333333 0.000000
3.444444 3.444444 0.000000
3.444444 3.555556 0.000000
3.444444 3.666667 0.000000
3.444444 3.777778 0.000000
3.444444 3.888889 0.000000
3.111111 4.111111 0.000000
3.111111 4.222222 0.000000
3.111111 4.333333 0.000000
3.111111 4.444444 0.000000
3.111111 4.555556 0.000000
3.111111 4.666667 0.000000
3.111111 4.777778 0.000000
3.111111 4.888889 0.000000
3.222222 4.111111 0.000000
3.222222 4.222222 0.000000
3.222222 4.333333 0.000000
3.222222 4.444444 0.000000
3.222222 4.555556 0.000000
3.222222 4.666667 0.000000
3.222222 4.777778 0.000000
3.222222 4.888889 0.000000
3.333333 4.111111 0.000000
3.333333 4.222222 0.000000
3.333333 4.333333 0.000000
3.333333 4.444444 0.000000
3.333333 4.555556 0.000000
3.333333 4.666667 0.000000
3.333333 4.777778 0.000000
3.333333 4.888889 0.000000
3.444444 4.111111 0.000000
3.444444 4.222222 0.000000
3.444444 4.333333 0.000000
3.444444 4.444444 0.000000
3.444444 4.555556 0.000000
3.444444 4.666667 0.000000
CELLS 81 405 
4 21 27 28 22
4 22 28 29 23
4 23 29 30 24
4 24 30 31 25
4 25 31 32 26
4 26 32  2  1
4 27  3  4 28
4 28  4  5 29
4 29  5  6 30
4 30  6  7 31
4 31  7  8 32
4 32  8  0  2
4 1  2 40 33
4 33 40 41 34
4 34 41 42 35
4 35 42 43 36
4 36 43 44 37
4 37 44 45 38
4 38 45 46 39
4 2  0  9 40
4 40  9 10 41
4 41 10 11 42
4 42 11 12 43
4 43 12 13 44
4 44 13 14 45
4 45 14 15 46
4 46 15 16 47
4 3 48 49  4
4 4 49 50  5
4 5 50 51  6
4 6 51 52  7
4 7 52 53  8
4 8 53 17  0
4 48 54 55 49
4 49 55 56 50
4 50 56 57 51
4 51 57 58 52
4 52 58 59 53
4 53 59 18 17
4 54 60 61 55
4 55 61 62 56
4 56 62 63 57
4 57 63 64 58
4 58 64 65 59
4 59 65 19 18
4 60 66 67 61
4 61 67 68 62
4 62 68 69 63
4 63 69 70 64
4 64 70 71 65
4 65 71 20 19
4 0 17 72  9
4 9 72 73 10
4 10 73 74 11
4 11 74 75 12
4 12 75 76 13
4 13 76 77 14
4 14 77 78 15
4 15 78 79 16
4 17 18 80 72
4 72 80 81 73
4 73 81 82 74
4 74 82 83 75
4 75 83 84 76
4 76 84 85 77
4 77 85 86 78
4 78 86 87 79
4 18 19 88 80
4 80 88 89 81
4 81 89 90 82
4 82 90 91 83
4 83 91 92 84
4 84 92 93 85
4 85 93 94 86
4 86 94 95 87
4 19 20 96 88
4 88 96 97 89
4 89 97 98 90
4 90 98 99 91
4 91  99 100  92
4 92 100 101  93
CELL_TYPES 81
9 9 9 9 9 9 9 9 9 9 9 9 9 9 9 9 9 9 9 9 9 9 9 9 9 9 9 9 9 9 9 9 9 9 9 9 9 9 9 9 9 9 9 9 9 9 9 9 9 9 9 9 9 9 9 9 9 9 9 9 9 9 9 9 9 9 9 9 9 9 9 9 9 9 9 9 9 9 9 9 9 
POINT_DATA 102
VECTORS displacement_ITER1 FLOAT
 2.496580e-02  -7.395475e-02  0 
 2.226409e-02  -7.007858e-02  0 
 2.307145e-02  -7.185168e-02  0 
 1.458071e-02  -7.505028e-02  0 
 1.734789e-02  -7.575420e-02  0 
 1.917615e-02  -7.577159e-02  0 
 2.105039e-02  -7.549958e-02  0 
 2.296775e-02  -7.517648e-02  0 
 2.468128e-02  -7.487921e-02  0 
 2.460490e-02  -7.310282e-02  0 
 2.574190e-02  -7.309902e-02  0 
 2.739461e-02  -7.335848e-02  0 
 2.946068e-02  -7.382236e-02  0 
 3.194133e-02  -7.435382e-02  0 
 3.469580e-02  -7.476101e-02  0 
 3.762379e-02  -7.507660e-02  0 
 4.034994e-02  -7.517479e-02  0 
 2.696223e-02  -7.670838e-02  0 
 2.806810e-02  -7.946179e-02  0 
 2.910874e-02  -8.248320e-02  0 
 3.035219e-02  -8.652748e-02  0 
 6.403021e-03  -6.183034e-02  0 
 1.271454e-02  -6.459848e-02  0 
 1.735951e-02  -6.683953e-02  0 
 2.102089e-02  -6.864309e-02  0 
 2.313696e-02  -6.972494e-02  0 
 2.330718e-02  -7.042705e-02  0 
 1.054227e-02  -6.954250e-02  0 
 1.512508e-02  -7.104574e-02  0 
 1.861263e-02  -7.196297e-02  0 
 2.120357e-02  -7.230482e-02  0 
 2.297957e-02  -7.224212e-02  0 
 2.372373e-02  -7.199410e-02  0 
 2.426377e-02  -6.972496e-02  0 
 2.571587e-02  -6.946107e-02  0 
 2.723465e-02  -6.942359e-02  0 
 2.911915e-02  -6.884022e-02  0 
 3.157291e-02  -6.908744e-02  0 
 3.452242e-02  -6.899710e-02  0 
 3.772401e-02  -6.924847e-02  0 
 2.457746e-02  -7.192745e-02  0 
 2.576429e-02  -7.150036e-02  0 
 2.728908e-02  -7.135516e-02  0 
 2.929539e-02  -7.149419e-02  0 
 3.178979e-02  -7.168732e-02  0 
 3.460465e-02  -7.197259e-02  0 
 3.750154e-02  -7.212098e-02  0 
 4.034016e-02  -7.263584e-02  0 
 1.530489e-02  -7.826524e-02  0 
 1.726630e-02  -7.793563e-02  0 
 1.907780e-02  -7.772463e-02  0 
 2.091752e-02  -7.746565e-02  0 
 2.286847e-02  -7.709483e-02  0 
 2.468687e-02  -7.660339e-02  0 
 1.569543e-02  -7.984005e-02  0 
 1.723898e-02  -7.989640e-02  0 
 1.890142e-02  -7.976907e-02  0 
 2.072637e-02  -7.958100e-02  0 
 2.280714e-02  -7.933898e-02  0 
 2.528747e-02  -7.926355e-02  0 
 1.627259e-02  -8.126072e-02  0 
 1.739758e-02  -8.150002e-02  0 
 1.882123e-02  -8.169582e-02  0 
 2.053379e-02  -8.186092e-02  0 
 2.288566e-02  -8.204739e-02  0 
 2.582854e-02  -8.229075e-02  0 
 1.649247e-02  -8.267815e-02  0 
 1.746343e-02  -8.307104e-02  0 
 1.899709e-02  -8.316792e-02  0 
 2.052733e-02  -8.411418e-02  0 
 2.317554e-02  -8.538028e-02  0 
 2.614493e-02  -8.577419e-02  0 
 2.643155e-02  -7.711902e-02  0 
 2.733787e-02  -7.759262e-02  0 
 2.894604e-02  -7.809306e-02  0 
 3.107893e-02  -7.862617e-02  0 
 3.364053e-02  -7.921649e-02  0 
 3.671859e-02  -7.975777e-02  0 
 4.045851e-02  -8.031196e-02  0 
 4.564155e-02  -8.173051e-02  0 
 2.818083e-02  -8.042029e-02  0 
 2.893587e-02  -8.148853e-02  0 
 3.034455e-02  -8.238370e-02  0 
 3.248770e-02  -8.318096e-02  0 
 3.533188e-02  -8.403411e-02  0 
 3.869697e-02  -8.526436e-02  0 
 4.329503e-02  -8.652622e-02  0 
 4.937177e-02  -8.790208e-02  0 
 2.981317e-02  -8.369039e-02  0 
 3.048405e-02  -8.483285e-02  0 
 3.170849e-02  -8.623653e-02  0 
 3.369493e-02  -8.757812e-02  0 
 3.696898e-02  -8.887283e-02  0 
 4.120083e-02  -9.044140e-02  0 
 4.520942e-02  -9.322493e-02  0 
 5.332548e-02  -9.580492e-02  0 
 3.079580e-02  -8.635468e-02  0 
 3.214230e-02  -8.768866e-02  0 
 3.302154e-02  -8.926480e-02  0 
 3.501341e-02  -9.167732e-02  0 
 3.828755e-02  -9.429464e-02  0 
 4.392748e-02  -9.626898e-02  0 
VECTORS displacement_ITER2 FLOAT
 3.125106e-02  -6.333925e-02  0 
 2.880334e-02  -6.031735e-02  0 
 2.954859e-02  -6.173568e-02  0 
 1.271287e-02  -6.277795e-02  0 
 1.707035e-02  -6.376335e-02  0 
 2.040981e-02  -6.409672e-02  0 
 2.365317e-02  -6.414492e-02  0 
 2.681722e-02  -6.409672e-02  0 
 2.971674e-02  -6.400671e-02  0 
 3.075010e-02  -6.269570e-02  0 
 3.162703e-02  -6.271933e-02  0 
 3.296391e-02  -6.290333e-02  0 
 3.465827e-02  -6.320919e-02  0 
 3.669522e-02  -6.356241e-02  0 
 3.896190e-02  -6.385722e-02  0 
 4.150828e-02  -6.421540e-02  0 
 4.414847e-02  -6.447524e-02  0 
 3.303990e-02  -6.699413e-02  0 
 3.396655e-02  -7.078953e-02  0 
 3.465029e-02  -7.474301e-02  0 
 3.528747e-02  -7.914856e-02  0 
 6.293069e-03  -4.703692e-02  0 
 1.340011e-02  -4.990562e-02  0 
 1.929126e-02  -5.258593e-02  0 
 2.428469e-02  -5.497713e-02  0 
 2.763675e-02  -5.690271e-02  0 
 2.892434e-02  -5.877582e-02  0 
 9.272322e-03  -5.559007e-02  0 
 1.536597e-02  -5.758695e-02  0 
 2.023606e-02  -5.898746e-02  0 
 2.420727e-02  -5.985064e-02  0 
 2.731612e-02  -6.038034e-02  0 
 2.932948e-02  -6.088899e-02  0 
 3.038341e-02  -6.008009e-02  0 
 3.159916e-02  -5.983529e-02  0 
 3.293052e-02  -5.971648e-02  0 
 3.450161e-02  -5.910710e-02  0 
 3.651135e-02  -5.915835e-02  0 
 3.895830e-02  -5.892618e-02  0 
 4.162943e-02  -5.898881e-02  0 
 3.071220e-02  -6.181726e-02  0 
 3.164510e-02  -6.145345e-02  0 
 3.290606e-02  -6.127401e-02  0 
 3.456444e-02  -6.128879e-02  0 
 3.661253e-02  -6.134435e-02  0 
 3.893627e-02  -6.147815e-02  0 
 4.137413e-02  -6.147589e-02  0 
 4.410203e-02  -6.187038e-02  0 
 1.345869e-02  -6.763858e-02  0 
 1.705896e-02  -6.750900e-02  0 
 2.039129e-02  -6.748936e-02  0 
 2.359978e-02  -6.742527e-02  0 
 2.676973e-02  -6.723710e-02  0 
 2.972865e-02  -6.688806e-02  0 
 1.379049e-02  -7.101010e-02  0 
 1.704337e-02  -7.107219e-02  0 
 2.027447e-02  -7.099074e-02  0 
 2.348101e-02  -7.085775e-02  0 
 2.674085e-02  -7.067916e-02  0 
 3.022364e-02  -7.063434e-02  0 
 1.420913e-02  -7.425007e-02  0 
 1.715753e-02  -7.437234e-02  0 
 2.021581e-02  -7.442915e-02  0 
 2.333300e-02  -7.443453e-02  0 
 2.683856e-02  -7.448485e-02  0 
 3.066363e-02  -7.464553e-02  0 
 1.416462e-02  -7.775065e-02  0 
 1.715104e-02  -7.777987e-02  0 
 2.032053e-02  -7.749009e-02  0 
 2.327306e-02  -7.797664e-02  0 
 2.711876e-02  -7.881059e-02  0 
 3.088502e-02  -7.881627e-02  0 
 3.253863e-02  -6.717140e-02  0 
 3.301974e-02  -6.739058e-02  0 
 3.401668e-02  -6.757387e-02  0 
 3.548246e-02  -6.779707e-02  0 
 3.738244e-02  -6.816208e-02  0 
 3.970945e-02  -6.865433e-02  0 
 4.249324e-02  -6.918017e-02  0 
 4.602567e-02  -6.993309e-02  0 
 3.404813e-02  -7.089695e-02  0 
 3.415574e-02  -7.116857e-02  0 
 3.470575e-02  -7.137548e-02  0 
 3.601440e-02  -7.171859e-02  0 
 3.804983e-02  -7.230908e-02  0 
 4.051519e-02  -7.326264e-02  0 
 4.347197e-02  -7.431234e-02  0 
 4.717207e-02  -7.520379e-02  0 
 3.522235e-02  -7.411247e-02  0 
 3.482880e-02  -7.383126e-02  0 
 3.509224e-02  -7.422836e-02  0 
 3.637814e-02  -7.512221e-02  0 
 3.869355e-02  -7.619025e-02  0 
 4.179690e-02  -7.749104e-02  0 
 4.422968e-02  -7.913205e-02  0 
 4.808226e-02  -8.073970e-02  0 
 3.537170e-02  -7.543226e-02  0 
 3.524511e-02  -7.470368e-02  0 
 3.548984e-02  -7.615640e-02  0 
 3.690479e-02  -7.802945e-02  0 
 3.933172e-02  -8.026130e-02  0 
 4.321156e-02  -8.210545e-02  0 
VECTORS displacement_ITER3 FLOAT
 2.682160e-02  -6.122314e-02  0 
 2.452607e-02  -5.879758e-02  0 
 2.517002e-02  -5.996197e-02  0 
 1.506202e-02  -6.099810e-02  0 
 1.771161e-02  -6.143797e-02  0 
 2.001079e-02  -6.160917e-02  0 
 2.228072e-02  -6.166682e-02  0 
 2.445870e-02  -6.169558e-02  0 
 2.634168e-02  -6.171355e-02  0 
 2.615562e-02  -6.078090e-02  0 
 2.699703e-02  -6.100143e-02  0 
 2.848459e-02  -6.136170e-02  0 
 3.050809e-02  -6.176076e-02  0 
 3.298165e-02  -6.212992e-02  0 
 3.574215e-02  -6.241606e-02  0 
 3.868500e-02  -6.269879e-02  0 
 4.165441e-02  -6.300046e-02  0 
 2.857224e-02  -6.364499e-02  0 
 2.947725e-02  -6.631483e-02  0 
 3.015570e-02  -6.916566e-02  0 
 3.078463e-02  -7.240213e-02  0 
 1.507363e-02  -5.063785e-02  0 
 1.685852e-02  -5.282535e-02  0 
 1.893323e-02  -5.401648e-02  0 
 2.111870e-02  -5.513863e-02  0 
 2.292754e-02  -5.622373e-02  0 
 2.395074e-02  -5.745163e-02  0 
 1.515434e-02  -5.587042e-02  0 
 1.760204e-02  -5.683653e-02  0 
 1.974392e-02  -5.778615e-02  0 
 2.188288e-02  -5.842866e-02  0 
 2.378853e-02  -5.894125e-02  0 
 2.517237e-02  -5.949854e-02  0 
 2.575495e-02  -5.854045e-02  0 
 2.691606e-02  -5.815669e-02  0 
 2.845480e-02  -5.765303e-02  0 
 3.046125e-02  -5.698779e-02  0 
 3.292322e-02  -5.676650e-02  0 
 3.572578e-02  -5.648448e-02  0 
 3.895385e-02  -5.636963e-02  0 
 2.610178e-02  -6.003828e-02  0 
 2.695775e-02  -5.970117e-02  0 
 2.840923e-02  -5.952642e-02  0 
 3.043636e-02  -5.946867e-02  0 
 3.291711e-02  -5.945648e-02  0 
 3.570692e-02  -5.954225e-02  0 
 3.861006e-02  -5.962412e-02  0 
 4.152687e-02  -5.999886e-02  0 
 1.538134e-02  -6.383586e-02  0 
 1.771386e-02  -6.390948e-02  0 
 2.001275e-02  -6.396565e-02  0 
 2.226213e-02  -6.394914e-02  0 
 2.444712e-02  -6.382078e-02  0 
 2.637668e-02  -6.353035e-02  0 
 1.540108e-02  -6.629273e-02  0 
 1.771415e-02  -6.639424e-02  0 
 1.996660e-02  -6.641224e-02  0 
 2.220564e-02  -6.635588e-02  0 
 2.445381e-02  -6.621887e-02  0 
 2.685088e-02  -6.617390e-02  0 
 1.550196e-02  -6.882438e-02  0 
 1.771984e-02  -6.886368e-02  0 
 1.993827e-02  -6.890591e-02  0 
 2.215923e-02  -6.891424e-02  0 
 2.457410e-02  -6.895300e-02  0 
 2.725265e-02  -6.903861e-02  0 
 1.550613e-02  -7.129581e-02  0 
 1.768425e-02  -7.143953e-02  0 
 1.996192e-02  -7.129460e-02  0 
 2.219360e-02  -7.154310e-02  0 
 2.476178e-02  -7.191948e-02  0 
 2.750316e-02  -7.213635e-02  0 
 2.785382e-02  -6.434291e-02  0 
 2.841513e-02  -6.506077e-02  0 
 2.965876e-02  -6.578577e-02  0 
 3.140978e-02  -6.654230e-02  0 
 3.360831e-02  -6.732296e-02  0 
 3.638001e-02  -6.804668e-02  0 
 4.008506e-02  -6.883296e-02  0 
 4.587220e-02  -7.081367e-02  0 
 2.941026e-02  -6.727487e-02  0 
 2.980236e-02  -6.843731e-02  0 
 3.079838e-02  -6.951282e-02  0 
 3.240623e-02  -7.062989e-02  0 
 3.449983e-02  -7.195937e-02  0 
 3.715858e-02  -7.361606e-02  0 
 4.142206e-02  -7.561420e-02  0 
 4.804937e-02  -7.776778e-02  0 
 3.079506e-02  -6.998084e-02  0 
 3.107029e-02  -7.117742e-02  0 
 3.186483e-02  -7.263044e-02  0 
 3.342903e-02  -7.413989e-02  0 
 3.567278e-02  -7.580938e-02  0 
 3.806918e-02  -7.789401e-02  0 
 4.263462e-02  -8.221944e-02  0 
 4.979814e-02  -8.672815e-02  0 
 3.187652e-02  -7.169179e-02  0 
 3.242501e-02  -7.302153e-02  0 
 3.285987e-02  -7.510949e-02  0 
 3.445688e-02  -7.734951e-02  0 
 3.662966e-02  -7.914171e-02  0 
 3.842594e-02  -7.976658e-02  0 
VECTORS displacement_ITER4 FLOAT
 2.431928e-02  -5.959106e-02  0 
 2.181100e-02  -5.741488e-02  0 
 2.254953e-02  -5.858096e-02  0 
 1.336664e-02  -5.863151e-02  0 
 1.598236e-02  -5.914245e-02  0 
 1.825887e-02  -5.942078e-02  0 
 2.046043e-02  -5.961012e-02  0 
 2.250735e-02  -5.977668e-02  0 
 2.419242e-02  -5.992997e-02  0 
 2.342808e-02  -5.927924e-02  0 
 2.418279e-02  -5.956999e-02  0 
 2.557567e-02  -5.996152e-02  0 
 2.745587e-02  -6.036228e-02  0 
 2.971461e-02  -6.071991e-02  0 
 3.219849e-02  -6.099584e-02  0 
 3.469206e-02  -6.120013e-02  0 
 3.700373e-02  -6.147066e-02  0 
 2.617145e-02  -6.163324e-02  0 
 2.711157e-02  -6.408228e-02  0 
 2.773711e-02  -6.669368e-02  0 
 2.824395e-02  -6.949689e-02  0 
 1.330780e-02  -5.189923e-02  0 
 1.478012e-02  -5.274587e-02  0 
 1.643146e-02  -5.339223e-02  0 
 1.827949e-02  -5.433141e-02  0 
 1.974448e-02  -5.536136e-02  0 
 2.067049e-02  -5.640726e-02  0 
 1.360689e-02  -5.514443e-02  0 
 1.545899e-02  -5.572870e-02  0 
 1.749816e-02  -5.640175e-02  0 
 1.947749e-02  -5.697225e-02  0 
 2.118757e-02  -5.752429e-02  0 
 2.244423e-02  -5.818516e-02  0 
 2.299907e-02  -5.726366e-02  0 
 2.408099e-02  -5.693413e-02  0 
 2.548760e-02  -5.646788e-02  0 
 2.738114e-02  -5.599716e-02  0 
 2.962357e-02  -5.587478e-02  0 
 3.208049e-02  -5.575426e-02  0 
 3.497193e-02  -5.568153e-02  0 
 2.336985e-02  -5.866825e-02  0 
 2.412420e-02  -5.836658e-02  0 
 2.548847e-02  -5.825651e-02  0 
 2.737733e-02  -5.825761e-02  0 
 2.963683e-02  -5.830730e-02  0 
 3.212162e-02  -5.846114e-02  0 
 3.465722e-02  -5.868953e-02  0 
 3.680557e-02  -5.918376e-02  0 
 1.369666e-02  -6.140921e-02  0 
 1.601605e-02  -6.158318e-02  0 
 1.830157e-02  -6.172051e-02  0 
 2.048649e-02  -6.178631e-02  0 
 2.253375e-02  -6.173686e-02  0 
 2.424948e-02  -6.149959e-02  0 
 1.364761e-02  -6.396435e-02  0 
 1.602277e-02  -6.407340e-02  0 
 1.828811e-02  -6.411879e-02  0 
 2.047278e-02  -6.408640e-02  0 
 2.257251e-02  -6.397068e-02  0 
 2.473311e-02  -6.393773e-02  0 
 1.363894e-02  -6.663785e-02  0 
 1.598720e-02  -6.662735e-02  0 
 1.826885e-02  -6.660752e-02  0 
 2.046481e-02  -6.655314e-02  0 
 2.272943e-02  -6.652330e-02  0 
 2.515132e-02  -6.657405e-02  0 
 1.354150e-02  -6.933164e-02  0 
 1.588262e-02  -6.934431e-02  0 
 1.826758e-02  -6.909978e-02  0 
 2.049030e-02  -6.910830e-02  0 
 2.292177e-02  -6.926250e-02  0 
 2.543004e-02  -6.934123e-02  0 
 2.519595e-02  -6.251589e-02  0 
 2.565501e-02  -6.328609e-02  0 
 2.690172e-02  -6.398125e-02  0 
 2.870307e-02  -6.464514e-02  0 
 3.093968e-02  -6.529599e-02  0 
 3.366861e-02  -6.585389e-02  0 
 3.712289e-02  -6.647695e-02  0 
 4.228846e-02  -6.825103e-02  0 
 2.670450e-02  -6.524269e-02  0 
 2.704171e-02  -6.649794e-02  0 
 2.815113e-02  -6.760140e-02  0 
 2.996056e-02  -6.862512e-02  0 
 3.235224e-02  -6.972199e-02  0 
 3.526223e-02  -7.111380e-02  0 
 3.953150e-02  -7.263452e-02  0 
 4.558338e-02  -7.422659e-02  0 
 2.790096e-02  -6.794091e-02  0 
 2.829190e-02  -6.937831e-02  0 
 2.935557e-02  -7.092720e-02  0 
 3.118331e-02  -7.242533e-02  0 
 3.393308e-02  -7.395176e-02  0 
 3.724634e-02  -7.578023e-02  0 
 4.123316e-02  -7.900504e-02  0 
 4.856924e-02  -8.203561e-02  0 
 2.891988e-02  -7.004741e-02  0 
 2.947049e-02  -7.202497e-02  0 
 3.045818e-02  -7.384906e-02  0 
 3.247105e-02  -7.610754e-02  0 
 3.532893e-02  -7.833894e-02  0 
 3.919375e-02  -7.988541e-02  0 
VECTORS displacement_ITER5 FLOAT
 2.431989e-02  -5.812995e-02  0 
 2.157346e-02  -5.478289e-02  0 
 2.244601e-02  -5.667846e-02  0 
 1.187795e-02  -5.671482e-02  0 
 1.478958e-02  -5.733774e-02  0 
 1.733836e-02  -5.767864e-02  0 
 1.980787e-02  -5.791233e-02  0 
 2.212020e-02  -5.812259e-02  0 
 2.405249e-02  -5.834410e-02  0 
 2.392000e-02  -5.792387e-02  0 
 2.521110e-02  -5.818643e-02  0 
 2.697725e-02  -5.844428e-02  0 
 2.899452e-02  -5.866586e-02  0 
 3.114778e-02  -5.889131e-02  0 
 3.340123e-02  -5.918584e-02  0 
 3.592350e-02  -5.967837e-02  0 
 3.881321e-02  -6.028731e-02  0 
 2.624386e-02  -6.026001e-02  0 
 2.724604e-02  -6.294459e-02  0 
 2.791777e-02  -6.583306e-02  0 
 2.849113e-02  -6.904396e-02  0 
 1.312036e-02  -4.945885e-02  0 
 1.408835e-02  -5.072390e-02  0 
 1.579611e-02  -5.148945e-02  0 
 1.770345e-02  -5.249968e-02  0 
 1.924092e-02  -5.346482e-02  0 
 2.026439e-02  -5.431589e-02  0 
 1.267540e-02  -5.273900e-02  0 
 1.463510e-02  -5.355752e-02  0 
 1.673562e-02  -5.444590e-02  0 
 1.885395e-02  -5.508910e-02  0 
 2.069528e-02  -5.565223e-02  0 
 2.206144e-02  -5.627836e-02  0 
 2.340285e-02  -5.483734e-02  0 
 2.508771e-02  -5.464632e-02  0 
 2.693132e-02  -5.446387e-02  0 
 2.895936e-02  -5.428713e-02  0 
 3.108641e-02  -5.435159e-02  0 
 3.334927e-02  -5.430880e-02  0 
 3.564848e-02  -5.441300e-02  0 
 2.384999e-02  -5.678937e-02  0 
 2.515822e-02  -5.655652e-02  0 
 2.692790e-02  -5.649686e-02  0 
 2.894868e-02  -5.653930e-02  0 
 3.109480e-02  -5.662814e-02  0 
 3.333935e-02  -5.676806e-02  0 
 3.575752e-02  -5.686748e-02  0 
 3.873733e-02  -5.708695e-02  0 
 1.218515e-02  -5.989469e-02  0 
 1.483098e-02  -6.007867e-02  0 
 1.738925e-02  -6.025748e-02  0 
 1.984081e-02  -6.035888e-02  0 
 2.215398e-02  -6.033664e-02  0 
 2.412026e-02  -6.011899e-02  0 
 1.218450e-02  -6.271197e-02  0 
 1.483672e-02  -6.287236e-02  0 
 1.737572e-02  -6.294691e-02  0 
 1.981945e-02  -6.293452e-02  0 
 2.218052e-02  -6.282808e-02  0 
 2.460431e-02  -6.279269e-02  0 
 1.221172e-02  -6.566980e-02  0 
 1.482964e-02  -6.570982e-02  0 
 1.735394e-02  -6.571564e-02  0 
 1.978655e-02  -6.568133e-02  0 
 2.231719e-02  -6.565883e-02  0 
 2.502506e-02  -6.572309e-02  0 
 1.209146e-02  -6.877368e-02  0 
 1.472654e-02  -6.870555e-02  0 
 1.736131e-02  -6.844597e-02  0 
 1.978592e-02  -6.848924e-02  0 
 2.250544e-02  -6.874904e-02  0 
 2.528075e-02  -6.878257e-02  0 
 2.587342e-02  -6.111386e-02  0 
 2.680319e-02  -6.180440e-02  0 
 2.839602e-02  -6.231324e-02  0 
 3.038495e-02  -6.270237e-02  0 
 3.261347e-02  -6.310276e-02  0 
 3.497449e-02  -6.366045e-02  0 
 3.739215e-02  -6.439272e-02  0 
 4.001869e-02  -6.520132e-02  0 
 2.751615e-02  -6.393555e-02  0 
 2.837036e-02  -6.503020e-02  0 
 2.980153e-02  -6.590222e-02  0 
 3.173906e-02  -6.652638e-02  0 
 3.413375e-02  -6.700403e-02  0 
 3.666387e-02  -6.760248e-02  0 
 3.887259e-02  -6.822618e-02  0 
 4.045806e-02  -6.857255e-02  0 
 2.887233e-02  -6.686278e-02  0 
 2.989900e-02  -6.809805e-02  0 
 3.121036e-02  -6.928986e-02  0 
 3.296161e-02  -7.022677e-02  0 
 3.546838e-02  -7.092470e-02  0 
 3.856944e-02  -7.133814e-02  0 
 3.983344e-02  -7.089023e-02  0 
 4.094222e-02  -7.052908e-02  0 
 3.007140e-02  -6.967755e-02  0 
 3.154401e-02  -7.107954e-02  0 
 3.244984e-02  -7.227307e-02  0 
 3.427140e-02  -7.374462e-02  0 
 3.662360e-02  -7.524633e-02  0 
 4.101055e-02  -7.687958e-02  0 
VECTORS displacement_ITER6 FLOAT
 2.378868e-02  -5.699171e-02  0 
 2.109033e-02  -5.335721e-02  0 
 2.192531e-02  -5.537408e-02  0 
 1.167182e-02  -5.579595e-02  0 
 1.435029e-02  -5.625992e-02  0 
 1.687743e-02  -5.655725e-02  0 
 1.933803e-02  -5.679557e-02  0 
 2.162815e-02  -5.701965e-02  0 
 2.353002e-02  -5.723854e-02  0 
 2.352946e-02  -5.674546e-02  0 
 2.493520e-02  -5.697805e-02  0 
 2.679932e-02  -5.719023e-02  0 
 2.889052e-02  -5.734820e-02  0 
 3.108685e-02  -5.751948e-02  0 
 3.337325e-02  -5.779904e-02  0 
 3.594941e-02  -5.832234e-02  0 
 3.899675e-02  -5.903278e-02  0 
 2.569876e-02  -5.913620e-02  0 
 2.666973e-02  -6.178607e-02  0 
 2.729651e-02  -6.461039e-02  0 
 2.778933e-02  -6.765468e-02  0 
 1.232831e-02  -5.172274e-02  0 
 1.344344e-02  -5.183194e-02  0 
 1.497720e-02  -5.190902e-02  0 
 1.676964e-02  -5.243355e-02  0 
 1.838054e-02  -5.304138e-02  0 
 1.966117e-02  -5.351102e-02  0 
 1.250851e-02  -5.341055e-02  0 
 1.390690e-02  -5.373919e-02  0 
 1.596595e-02  -5.416328e-02  0 
 1.807252e-02  -5.454775e-02  0 
 1.995117e-02  -5.493004e-02  0 
 2.136934e-02  -5.531318e-02  0 
 2.297336e-02  -5.343245e-02  0 
 2.481644e-02  -5.324577e-02  0 
 2.680307e-02  -5.301324e-02  0 
 2.891878e-02  -5.287427e-02  0 
 3.107621e-02  -5.286807e-02  0 
 3.333529e-02  -5.280270e-02  0 
 3.566171e-02  -5.285237e-02  0 
 2.346179e-02  -5.548642e-02  0 
 2.488419e-02  -5.524763e-02  0 
 2.677293e-02  -5.516247e-02  0 
 2.887144e-02  -5.515778e-02  0 
 3.104928e-02  -5.521106e-02  0 
 3.331545e-02  -5.532112e-02  0 
 3.577532e-02  -5.541664e-02  0 
 3.890480e-02  -5.557017e-02  0 
 1.185208e-02  -5.863927e-02  0 
 1.440711e-02  -5.889574e-02  0 
 1.694216e-02  -5.910193e-02  0 
 1.938577e-02  -5.921739e-02  0 
 2.167274e-02  -5.920700e-02  0 
 2.360016e-02  -5.899448e-02  0 
 1.176266e-02  -6.147830e-02  0 
 1.442432e-02  -6.165205e-02  0 
 1.696099e-02  -6.175730e-02  0 
 1.939616e-02  -6.176488e-02  0 
 2.172275e-02  -6.167051e-02  0 
 2.408706e-02  -6.164051e-02  0 
 1.168101e-02  -6.452915e-02  0 
 1.438910e-02  -6.454458e-02  0 
 1.695972e-02  -6.453702e-02  0 
 1.940986e-02  -6.449154e-02  0 
 2.188840e-02  -6.445208e-02  0 
 2.450286e-02  -6.449784e-02  0 
 1.154754e-02  -6.768364e-02  0 
 1.428290e-02  -6.760835e-02  0 
 1.694814e-02  -6.738422e-02  0 
 1.944147e-02  -6.730586e-02  0 
 2.206625e-02  -6.741015e-02  0 
 2.478324e-02  -6.745003e-02  0 
 2.533526e-02  -5.999812e-02  0 
 2.632424e-02  -6.063373e-02  0 
 2.797720e-02  -6.109332e-02  0 
 3.001613e-02  -6.147209e-02  0 
 3.230508e-02  -6.188855e-02  0 
 3.479409e-02  -6.245984e-02  0 
 3.751349e-02  -6.323284e-02  0 
 4.073267e-02  -6.427621e-02  0 
 2.680679e-02  -6.282150e-02  0 
 2.765443e-02  -6.384894e-02  0 
 2.916902e-02  -6.466036e-02  0 
 3.120771e-02  -6.533203e-02  0 
 3.364653e-02  -6.595948e-02  0 
 3.628192e-02  -6.670728e-02  0 
 3.895590e-02  -6.752534e-02  0 
 4.154449e-02  -6.815807e-02  0 
 2.790207e-02  -6.573765e-02  0 
 2.883944e-02  -6.689076e-02  0 
 3.036800e-02  -6.803034e-02  0 
 3.238847e-02  -6.903220e-02  0 
 3.494088e-02  -6.988191e-02  0 
 3.785925e-02  -7.057788e-02  0 
 3.994558e-02  -7.092293e-02  0 
 4.217765e-02  -7.126937e-02  0 
 2.877920e-02  -6.832543e-02  0 
 2.990285e-02  -6.997889e-02  0 
 3.146958e-02  -7.125121e-02  0 
 3.363436e-02  -7.260651e-02  0 
 3.611001e-02  -7.390040e-02  0 
 3.966705e-02  -7.512441e-02  0 
VECTORS displacement_ITER7 FLOAT
 2.408475e-02  -5.684693e-02  0 
 2.147250e-02  -5.312795e-02  0 
 2.226858e-02  -5.514027e-02  0 
 1.228949e-02  -5.590878e-02  0 
 1.478627e-02  -5.622341e-02  0 
 1.728255e-02  -5.648078e-02  0 
 1.970963e-02  -5.672091e-02  0 
 2.195161e-02  -5.695000e-02  0 
 2.380676e-02  -5.714916e-02  0 
 2.390276e-02  -5.653747e-02  0 
 2.531614e-02  -5.672367e-02  0 
 2.717023e-02  -5.689525e-02  0 
 2.924853e-02  -5.702009e-02  0 
 3.144259e-02  -5.716768e-02  0 
 3.373850e-02  -5.742946e-02  0 
 3.630501e-02  -5.793040e-02  0 
 3.935921e-02  -5.866740e-02  0 
 2.593934e-02  -5.902052e-02  0 
 2.684632e-02  -6.161534e-02  0 
 2.738914e-02  -6.433621e-02  0 
 2.774878e-02  -6.711488e-02  0 
 1.235468e-02  -5.230340e-02  0 
 1.375168e-02  -5.220208e-02  0 
 1.520072e-02  -5.214205e-02  0 
 1.688586e-02  -5.247960e-02  0 
 1.851369e-02  -5.295188e-02  0 
 1.994169e-02  -5.330397e-02  0 
 1.291774e-02  -5.385477e-02  0 
 1.423103e-02  -5.401171e-02  0 
 1.624071e-02  -5.424975e-02  0 
 1.829426e-02  -5.455356e-02  0 
 2.017199e-02  -5.488946e-02  0 
 2.164378e-02  -5.520713e-02  0 
 2.334498e-02  -5.318016e-02  0 
 2.521362e-02  -5.301734e-02  0 
 2.720444e-02  -5.273433e-02  0 
 2.930879e-02  -5.257799e-02  0 
 3.145531e-02  -5.248706e-02  0 
 3.370449e-02  -5.238167e-02  0 
 3.612161e-02  -5.235281e-02  0 
 2.384156e-02  -5.525153e-02  0 
 2.527416e-02  -5.499498e-02  0 
 2.715670e-02  -5.488202e-02  0 
 2.924159e-02  -5.483493e-02  0 
 3.140934e-02  -5.485336e-02  0 
 3.368405e-02  -5.493977e-02  0 
 3.614692e-02  -5.503825e-02  0 
 3.923548e-02  -5.516401e-02  0 
 1.237892e-02  -5.846553e-02  0 
 1.485304e-02  -5.876740e-02  0 
 1.735508e-02  -5.898028e-02  0 
 1.976731e-02  -5.909834e-02  0 
 2.200204e-02  -5.909357e-02  0 
 2.387286e-02  -5.888378e-02  0 
 1.223126e-02  -6.130360e-02  0 
 1.488050e-02  -6.146974e-02  0 
 1.739771e-02  -6.158305e-02  0 
 1.980419e-02  -6.159583e-02  0 
 2.207255e-02  -6.150806e-02  0 
 2.435071e-02  -6.148302e-02  0 
 1.207253e-02  -6.438900e-02  0 
 1.482307e-02  -6.437430e-02  0 
 1.741254e-02  -6.434289e-02  0 
 1.986020e-02  -6.427249e-02  0 
 2.226559e-02  -6.420998e-02  0 
 2.475028e-02  -6.423074e-02  0 
 1.192643e-02  -6.754463e-02  0 
 1.471659e-02  -6.746264e-02  0 
 1.738671e-02  -6.725628e-02  0 
 1.991889e-02  -6.706866e-02  0 
 2.243953e-02  -6.699983e-02  0 
 2.503757e-02  -6.702060e-02  0 
 2.561506e-02  -5.977653e-02  0 
 2.663173e-02  -6.032264e-02  0 
 2.829924e-02  -6.072829e-02  0 
 3.034268e-02  -6.108388e-02  0 
 3.264198e-02  -6.147495e-02  0 
 3.517650e-02  -6.198685e-02  0 
 3.801756e-02  -6.269034e-02  0 
 4.144962e-02  -6.371987e-02  0 
 2.697972e-02  -6.255300e-02  0 
 2.787007e-02  -6.348264e-02  0 
 2.944970e-02  -6.422955e-02  0 
 3.152653e-02  -6.488298e-02  0 
 3.395045e-02  -6.552179e-02  0 
 3.660633e-02  -6.623245e-02  0 
 3.951175e-02  -6.700484e-02  0 
 4.262778e-02  -6.770359e-02  0 
 2.795452e-02  -6.538774e-02  0 
 2.895377e-02  -6.649403e-02  0 
 3.060341e-02  -6.756324e-02  0 
 3.274597e-02  -6.851816e-02  0 
 3.526188e-02  -6.935046e-02  0 
 3.797495e-02  -7.004674e-02  0 
 4.057906e-02  -7.067803e-02  0 
 4.355531e-02  -7.127607e-02  0 
 2.880415e-02  -6.789523e-02  0 
 2.987392e-02  -6.958711e-02  0 
 3.168631e-02  -7.088730e-02  0 
 3.400894e-02  -7.210882e-02  0 
 3.645433e-02  -7.308527e-02  0 
 3.937643e-02  -7.389063e-02  0 
VECTORS displacement_ITER8 FLOAT
 2.369313e-02  -5.684483e-02  0 
 2.102740e-02  -5.288995e-02  0 
 2.185706e-02  -5.502793e-02  0 
 1.183691e-02  -5.604362e-02  0 
 1.431529e-02  -5.631301e-02  0 
 1.682103e-02  -5.654250e-02  0 
 1.926162e-02  -5.676162e-02  0 
 2.152132e-02  -5.697471e-02  0 
 2.339674e-02  -5.716170e-02  0 
 2.359885e-02  -5.651539e-02  0 
 2.508024e-02  -5.666764e-02  0 
 2.694828e-02  -5.679755e-02  0 
 2.898190e-02  -5.689430e-02  0 
 3.109140e-02  -5.703505e-02  0 
 3.328738e-02  -5.731032e-02  0 
 3.577724e-02  -5.784829e-02  0 
 3.883088e-02  -5.863503e-02  0 
 2.555546e-02  -5.905580e-02  0 
 2.646486e-02  -6.167842e-02  0 
 2.701358e-02  -6.442662e-02  0 
 2.738520e-02  -6.723491e-02  0 
 1.140953e-02  -5.052925e-02  0 
 1.341763e-02  -5.113638e-02  0 
 1.510879e-02  -5.151380e-02  0 
 1.683406e-02  -5.201766e-02  0 
 1.846304e-02  -5.255566e-02  0 
 1.980477e-02  -5.298384e-02  0 
 1.203662e-02  -5.322406e-02  0 
 1.390236e-02  -5.359478e-02  0 
 1.601136e-02  -5.394483e-02  0 
 1.807183e-02  -5.431393e-02  0 
 1.993800e-02  -5.467808e-02  0 
 2.135695e-02  -5.500292e-02  0 
 2.303700e-02  -5.295866e-02  0 
 2.498379e-02  -5.286361e-02  0 
 2.698215e-02  -5.266809e-02  0 
 2.902777e-02  -5.257838e-02  0 
 3.108294e-02  -5.253564e-02  0 
 3.324170e-02  -5.245759e-02  0 
 3.554183e-02  -5.245398e-02  0 
 2.353951e-02  -5.514711e-02  0 
 2.504811e-02  -5.489586e-02  0 
 2.694074e-02  -5.479680e-02  0 
 2.897379e-02  -5.476964e-02  0 
 3.105332e-02  -5.480982e-02  0 
 3.322778e-02  -5.491182e-02  0 
 3.560390e-02  -5.500917e-02  0 
 3.871823e-02  -5.507595e-02  0 
 1.190489e-02  -5.856642e-02  0 
 1.437763e-02  -5.885689e-02  0 
 1.688497e-02  -5.905336e-02  0 
 1.931179e-02  -5.915576e-02  0 
 2.156653e-02  -5.913897e-02  0 
 2.346006e-02  -5.892066e-02  0 
 1.177138e-02  -6.138919e-02  0 
 1.440330e-02  -6.155504e-02  0 
 1.692165e-02  -6.166211e-02  0 
 1.934258e-02  -6.166740e-02  0 
 2.163454e-02  -6.157391e-02  0 