# vtk DataFile Version 3.1
this is an vtk file created by FEMAC
ASCII
DATASET UNSTRUCTURED_GRID
POINTS 104 FLOAT
3.333333 2.000000 0.000000
3.444444 2.000000 0.000000
3.555556 2.000000 0.000000
3.666667 2.000000 0.000000
3.777778 2.000000 0.000000
4.000000 1.111111 0.000000
4.000000 1.222222 0.000000
4.000000 1.333333 0.000000
4.000000 1.444444 0.000000
4.000000 1.555556 0.000000
4.000000 1.666667 0.000000
4.000000 1.777778 0.000000
4.000000 1.888889 0.000000
3.111111 1.111111 0.000000
3.111111 1.222222 0.000000
3.111111 1.333333 0.000000
3.111111 1.444444 0.000000
3.222222 1.111111 0.000000
3.222222 1.222222 0.000000
3.222222 1.333333 0.000000
3.222222 1.444444 0.000000
3.222222 1.555556 0.000000
3.222222 1.666667 0.000000
3.222222 1.777778 0.000000
3.222222 1.888889 0.000000
3.333333 1.111111 0.000000
3.333333 1.222222 0.000000
3.333333 1.333333 0.000000
3.333333 1.444444 0.000000
3.333333 1.555556 0.000000
3.333333 1.666667 0.000000
3.333333 1.777778 0.000000
3.333333 1.888889 0.000000
3.444444 1.111111 0.000000
3.444444 1.222222 0.000000
3.444444 1.333333 0.000000
3.444444 1.444444 0.000000
3.444444 1.555556 0.000000
3.444444 1.666667 0.000000
3.444444 1.777778 0.000000
3.444444 1.888889 0.000000
3.555556 1.111111 0.000000
3.555556 1.222222 0.000000
3.555556 1.333333 0.000000
3.555556 1.444444 0.000000
3.555556 1.555556 0.000000
3.555556 1.666667 0.000000
3.555556 1.777778 0.000000
3.555556 1.888889 0.000000
3.666667 1.111111 0.000000
3.666667 1.222222 0.000000
3.666667 1.333333 0.000000
3.666667 1.444444 0.000000
3.666667 1.555556 0.000000
3.666667 1.666667 0.000000
3.666667 1.777778 0.000000
3.666667 1.888889 0.000000
3.777778 1.111111 0.000000
3.777778 1.222222 0.000000
3.777778 1.333333 0.000000
3.777778 1.444444 0.000000
3.777778 1.555556 0.000000
3.777778 1.666667 0.000000
3.777778 1.777778 0.000000
3.777778 1.888889 0.000000
3.888889 1.111111 0.000000
3.888889 1.222222 0.000000
3.888889 1.333333 0.000000
3.888889 1.444444 0.000000
3.888889 1.555556 0.000000
3.888889 1.666667 0.000000
3.888889 1.777778 0.000000
3.888889 1.888889 0.000000
3.333333 2.111111 0.000000
3.444444 2.111111 0.000000
3.555556 2.111111 0.000000
4.111111 1.111111 0.000000
4.111111 1.222222 0.000000
4.111111 1.333333 0.000000
4.111111 1.444444 0.000000
4.111111 1.555556 0.000000
4.111111 1.666667 0.000000
4.111111 1.777778 0.000000
4.222222 1.222222 0.000000
4.222222 1.333333 0.000000
4.222222 1.444444 0.000000
4.222222 1.555556 0.000000
4.222222 1.666667 0.000000
4.222222 1.777778 0.000000
4.333333 1.222222 0.000000
4.333333 1.333333 0.000000
4.333333 1.444444 0.000000
4.333333 1.555556 0.000000
4.333333 1.666667 0.000000
4.444444 1.222222 0.000000
4.444444 1.333333 0.000000
4.444444 1.444444 0.000000
4.444444 1.555556 0.000000
4.444444 1.666667 0.000000
4.555556 1.222222 0.000000
4.555556 1.333333 0.000000
4.555556 1.444444 0.000000
4.555556 1.555556 0.000000
4.555556 1.666667 0.000000
CELLS 81 405 
4 13 17 18 14
4 14 18 19 15
4 15 19 20 16
4 17 25 26 18
4 18 26 27 19
4 19 27 28 20
4 20 28 29 21
4 21 29 30 22
4 22 30 31 23
4 23 31 32 24
4 25 33 34 26
4 26 34 35 27
4 27 35 36 28
4 28 36 37 29
4 29 37 38 30
4 30 38 39 31
4 31 39 40 32
4 32 40  1  0
4 33 41 42 34
4 34 42 43 35
4 35 43 44 36
4 36 44 45 37
4 37 45 46 38
4 38 46 47 39
4 39 47 48 40
4 40 48  2  1
4 41 49 50 42
4 42 50 51 43
4 43 51 52 44
4 44 52 53 45
4 45 53 54 46
4 46 54 55 47
4 47 55 56 48
4 48 56  3  2
4 49 57 58 50
4 50 58 59 51
4 51 59 60 52
4 52 60 61 53
4 53 61 62 54
4 54 62 63 55
4 55 63 64 56
4 56 64  4  3
4 57 65 66 58
4 58 66 67 59
4 59 67 68 60
4 60 68 69 61
4 61 69 70 62
4 62 70 71 63
4 63 71 72 64
4 65  5  6 66
4 66  6  7 67
4 67  7  8 68
4 68  8  9 69
4 69  9 10 70
4 70 10 11 71
4 71 11 12 72
4 0  1 74 73
4 1  2 75 74
4 5 76 77  6
4 6 77 78  7
4 7 78 79  8
4 8 79 80  9
4 9 80 81 10
4 10 81 82 11
4 77 83 84 78
4 78 84 85 79
4 79 85 86 80
4 80 86 87 81
4 81 87 88 82
4 83 89 90 84
4 84 90 91 85
4 85 91 92 86
4 86 92 93 87
4 89 94 95 90
4 90 95 96 91
4 91 96 97 92
4 92 97 98 93
4 94  99 100  95
4 95 100 101  96
4 96 101 102  97
4 97 102 103  98
CELL_TYPES 81
9 9 9 9 9 9 9 9 9 9 9 9 9 9 9 9 9 9 9 9 9 9 9 9 9 9 9 9 9 9 9 9 9 9 9 9 9 9 9 9 9 9 9 9 9 9 9 9 9 9 9 9 9 9 9 9 9 9 9 9 9 9 9 9 9 9 9 9 9 9 9 9 9 9 9 9 9 9 9 9 9 
POINT_DATA 104
VECTORS displacement_ITER1 FLOAT
 -1.488186e-02  -8.241773e-02  0 
 -1.475035e-02  -8.548919e-02  0 
 -1.473325e-02  -8.893184e-02  0 
 -1.466961e-02  -9.249730e-02  0 
 -1.444579e-02  -9.685931e-02  0 
 -4.173763e-02  -1.029256e-01  0 
 -3.836891e-02  -1.028097e-01  0 
 -3.492681e-02  -1.026677e-01  0 
 -3.152043e-02  -1.025133e-01  0 
 -2.820476e-02  -1.023845e-01  0 
 -2.500929e-02  -1.022759e-01  0 
 -2.202920e-02  -1.021620e-01  0 
 -1.917307e-02  -1.022525e-01  0 
 -4.007229e-02  -7.583864e-02  0 
 -3.753456e-02  -7.560357e-02  0 
 -3.449308e-02  -7.549957e-02  0 
 -3.167786e-02  -7.557913e-02  0 
 -4.034421e-02  -7.861130e-02  0 
 -3.761972e-02  -7.860945e-02  0 
 -3.463827e-02  -7.861274e-02  0 
 -3.158262e-02  -7.854445e-02  0 
 -2.848035e-02  -7.842317e-02  0 
 -2.504179e-02  -7.835425e-02  0 
 -2.160845e-02  -7.820641e-02  0 
 -1.755596e-02  -7.782876e-02  0 
 -4.083846e-02  -8.169486e-02  0 
 -3.775781e-02  -8.174357e-02  0 
 -3.471645e-02  -8.180753e-02  0 
 -3.160752e-02  -8.184690e-02  0 
 -2.838438e-02  -8.189331e-02  0 
 -2.503879e-02  -8.191171e-02  0 
 -2.155269e-02  -8.194581e-02  0 
 -1.795484e-02  -8.208730e-02  0 
 -4.110259e-02  -8.504031e-02  0 
 -3.794225e-02  -8.506865e-02  0 
 -3.476364e-02  -8.514733e-02  0 
 -3.156996e-02  -8.526477e-02  0 
 -2.832678e-02  -8.537746e-02  0 
 -2.499409e-02  -8.546899e-02  0 
 -2.154540e-02  -8.552803e-02  0 
 -1.808554e-02  -8.552363e-02  0 
 -4.150179e-02  -8.854039e-02  0 
 -3.810723e-02  -8.851603e-02  0 
 -3.478498e-02  -8.861415e-02  0 
 -3.152448e-02  -8.873742e-02  0 
 -2.827611e-02  -8.887369e-02  0 
 -2.499571e-02  -8.899730e-02  0 
 -2.164525e-02  -8.904137e-02  0 
 -1.820544e-02  -8.897821e-02  0 
 -4.188341e-02  -9.211195e-02  0 
 -3.821118e-02  -9.212312e-02  0 
 -3.479340e-02  -9.215684e-02  0 
 -3.148873e-02  -9.222690e-02  0 
 -2.823663e-02  -9.233810e-02  0 
 -2.501484e-02  -9.247055e-02  0 
 -2.179425e-02  -9.258607e-02  0 
 -1.840475e-02  -9.258031e-02  0 
 -4.191709e-02  -9.589044e-02  0 
 -3.826609e-02  -9.579561e-02  0 
 -3.482252e-02  -9.570763e-02  0 
 -3.147583e-02  -9.569406e-02  0 
 -2.820645e-02  -9.574638e-02  0 
 -2.501083e-02  -9.585330e-02  0 
 -2.187701e-02  -9.601536e-02  0 
 -1.876038e-02  -9.627107e-02  0 
 -4.173951e-02  -9.953809e-02  0 
 -3.832468e-02  -9.935993e-02  0 
 -3.487344e-02  -9.921048e-02  0 
 -3.148759e-02  -9.912256e-02  0 
 -2.819041e-02  -9.909176e-02  0 
 -2.499684e-02  -9.911854e-02  0 
 -2.193757e-02  -9.919308e-02  0 
 -1.917252e-02  -9.916591e-02  0 
 -1.835038e-02  -8.815222e-02  0 
 -1.498644e-02  -8.637205e-02  0 
 -1.471196e-02  -8.839613e-02  0 
 -4.260855e-02  -1.088411e-01  0 
 -3.898885e-02  -1.080100e-01  0 
 -3.547645e-02  -1.074830e-01  0 
 -3.170563e-02  -1.070819e-01  0 
 -2.801631e-02  -1.066364e-01  0 
 -2.523584e-02  -1.065646e-01  0 
 -2.423682e-02  -1.066118e-01  0 
 -4.020736e-02  -1.126641e-01  0 
 -3.613003e-02  -1.124844e-01  0 
 -3.215122e-02  -1.119375e-01  0 
 -2.813990e-02  -1.110501e-01  0 
 -2.460484e-02  -1.092913e-01  0 
 -2.845128e-02  -1.046979e-01  0 
 -4.100013e-02  -1.182317e-01  0 
 -3.689190e-02  -1.176494e-01  0 
 -3.271249e-02  -1.171914e-01  0 
 -2.833431e-02  -1.164902e-01  0 
 -2.264173e-02  -1.165964e-01  0 
 -4.216706e-02  -1.231378e-01  0 
 -3.745702e-02  -1.229011e-01  0 
 -3.309462e-02  -1.227306e-01  0 
 -2.834568e-02  -1.227643e-01  0 
 -2.230093e-02  -1.224464e-01  0 
 -4.355891e-02  -1.293541e-01  0 
 -3.779012e-02  -1.281235e-01  0 
 -3.330729e-02  -1.276798e-01  0 
 -2.835444e-02  -1.286063e-01  0 
 -2.293855e-02  -1.298008e-01  0 
VECTORS displacement_ITER2 FLOAT
 -1.586734e-02  -7.368969e-02  0 
 -1.607679e-02  -7.696806e-02  0 
 -1.619602e-02  -8.012947e-02  0 
 -1.627002e-02  -8.334840e-02  0 
 -1.641239e-02  -8.684411e-02  0 
 -4.103175e-02  -9.323946e-02  0 
 -3.769268e-02  -9.292113e-02  0 
 -3.447014e-02  -9.265966e-02  0 
 -3.136589e-02  -9.246892e-02  0 
 -2.835795e-02  -9.234036e-02  0 
 -2.544627e-02  -9.225520e-02  0 
 -2.268786e-02  -9.219519e-02  0 
 -2.016182e-02  -9.223168e-02  0 
 -3.899606e-02  -6.853798e-02  0 
 -3.676703e-02  -6.826760e-02  0 
 -3.417583e-02  -6.806706e-02  0 
 -3.171801e-02  -6.801479e-02  0 
 -3.917371e-02  -7.082056e-02  0 
 -3.685090e-02  -7.084132e-02  0 
 -3.427869e-02  -7.077894e-02  0 
 -3.156684e-02  -7.064451e-02  0 
 -2.860398e-02  -7.054732e-02  0 
 -2.553238e-02  -7.048078e-02  0 
 -2.240142e-02  -7.047307e-02  0 
 -1.932687e-02  -7.050598e-02  0 
 -3.949155e-02  -7.351303e-02  0 
 -3.695949e-02  -7.355678e-02  0 
 -3.431498e-02  -7.361411e-02  0 
 -3.151503e-02  -7.366974e-02  0 
 -2.857208e-02  -7.370799e-02  0 
 -2.552000e-02  -7.372180e-02  0 
 -2.241104e-02  -7.371824e-02  0 
 -1.926917e-02  -7.372635e-02  0 
 -3.990136e-02  -7.649717e-02  0 
 -3.712580e-02  -7.649508e-02  0 
 -3.431652e-02  -7.660552e-02  0 
 -3.145400e-02  -7.673879e-02  0 
 -2.851931e-02  -7.685333e-02  0 
 -2.550930e-02  -7.692532e-02  0 
 -2.242468e-02  -7.695453e-02  0 
 -1.926367e-02  -7.697467e-02  0 
 -4.038033e-02  -7.962789e-02  0 
 -3.729664e-02  -7.962893e-02  0 
 -3.432772e-02  -7.972622e-02  0 
 -3.139672e-02  -7.986484e-02  0 
 -2.846509e-02  -8.000638e-02  0 
 -2.550290e-02  -8.012116e-02  0 
 -2.247172e-02  -8.018187e-02  0 
 -1.935089e-02  -8.017175e-02  0 
 -4.068386e-02  -8.291997e-02  0 
 -3.744298e-02  -8.289601e-02  0 
 -3.434823e-02  -8.293772e-02  0 
 -3.135176e-02  -8.303120e-02  0 
 -2.841224e-02  -8.315385e-02  0 
 -2.549677e-02  -8.328666e-02  0 
 -2.256543e-02  -8.339333e-02  0 
 -1.952590e-02  -8.340628e-02  0 
 -4.085551e-02  -8.627953e-02  0 
 -3.754308e-02  -8.622218e-02  0 
 -3.437267e-02  -8.619382e-02  0 
 -3.132619e-02  -8.620655e-02  0 
 -2.836702e-02  -8.626777e-02  0 
 -2.547702e-02  -8.637576e-02  0 
 -2.264306e-02  -8.652089e-02  0 
 -1.979949e-02  -8.666088e-02  0 
 -4.099245e-02  -8.973513e-02  0 
 -3.760544e-02  -8.958202e-02  0 
 -3.440893e-02  -8.944654e-02  0 
 -3.132920e-02  -8.936013e-02  0 
 -2.834408e-02  -8.932996e-02  0 
 -2.544931e-02  -8.935997e-02  0 
 -2.267158e-02  -8.945670e-02  0 
 -2.009089e-02  -8.958048e-02  0 
 -1.859357e-02  -7.729450e-02  0 
 -1.594207e-02  -7.714294e-02  0 
 -1.620370e-02  -7.898784e-02  0 
 -4.173204e-02  -9.832432e-02  0 
 -3.898647e-02  -9.840107e-02  0 
 -3.541277e-02  -9.835398e-02  0 
 -3.203242e-02  -9.819049e-02  0 
 -2.882236e-02  -9.783993e-02  0 
 -2.560037e-02  -9.751007e-02  0 
 -2.200272e-02  -9.746456e-02  0 
 -4.070063e-02  -1.048822e-01  0 
 -3.606461e-02  -1.042838e-01  0 
 -3.278042e-02  -1.038238e-01  0 
 -2.958951e-02  -1.033329e-01  0 
 -2.599374e-02  -1.027552e-01  0 
 -2.226411e-02  -1.024090e-01  0 
 -4.019127e-02  -1.105285e-01  0 
 -3.673543e-02  -1.096817e-01  0 
 -3.359091e-02  -1.089490e-01  0 
 -3.055722e-02  -1.085494e-01  0 
 -2.698800e-02  -1.083027e-01  0 
 -3.936772e-02  -1.140774e-01  0 
 -3.710990e-02  -1.136606e-01  0 
 -3.432092e-02  -1.131084e-01  0 
 -3.148287e-02  -1.129223e-01  0 
 -2.885292e-02  -1.127167e-01  0 
 -3.812932e-02  -1.157254e-01  0 
 -3.735619e-02  -1.163229e-01  0 
 -3.489276e-02  -1.165047e-01  0 
 -3.219891e-02  -1.159849e-01  0 
 -3.141190e-02  -1.150317e-01  0 
VECTORS displacement_ITER3 FLOAT
 -1.881282e-02  -6.904719e-02  0 
 -1.894999e-02  -7.202418e-02  0 
 -1.907204e-02  -7.491496e-02  0 
 -1.929694e-02  -7.777941e-02  0 
 -1.975847e-02  -8.032561e-02  0 
 -4.130221e-02  -8.672846e-02  0 
 -3.826043e-02  -8.639669e-02  0 
 -3.531574e-02  -8.610205e-02  0 
 -3.252535e-02  -8.590670e-02  0 
 -2.983632e-02  -8.580752e-02  0 
 -2.721703e-02  -8.579661e-02  0 
 -2.464814e-02  -8.588596e-02  0 
 -2.225037e-02  -8.600636e-02  0 
 -3.899360e-02  -6.479868e-02  0 
 -3.714799e-02  -6.458541e-02  0 
 -3.496556e-02  -6.436259e-02  0 
 -3.285229e-02  -6.425650e-02  0 
 -3.915026e-02  -6.668829e-02  0 
 -3.722331e-02  -6.672198e-02  0 
 -3.506440e-02  -6.664467e-02  0 
 -3.275970e-02  -6.647763e-02  0 
 -3.014030e-02  -6.631389e-02  0 
 -2.749291e-02  -6.618326e-02  0 
 -2.471631e-02  -6.612712e-02  0 
 -2.182568e-02  -6.605567e-02  0 
 -3.941717e-02  -6.899915e-02  0 
 -3.734947e-02  -6.901982e-02  0 
 -3.511030e-02  -6.905949e-02  0 
 -3.269995e-02  -6.909601e-02  0 
 -3.013574e-02  -6.910342e-02  0 
 -2.744913e-02  -6.909256e-02  0 
 -2.467691e-02  -6.909406e-02  0 
 -2.182218e-02  -6.913084e-02  0 
 -3.992691e-02  -7.157224e-02  0 
 -3.754052e-02  -7.155454e-02  0 
 -3.512105e-02  -7.166090e-02  0 
 -3.263513e-02  -7.178266e-02  0 
 -3.006143e-02  -7.188862e-02  0 
 -2.739773e-02  -7.196625e-02  0 
 -2.465093e-02  -7.201861e-02  0 
 -2.183344e-02  -7.203832e-02  0 
 -4.045994e-02  -7.432191e-02  0 
 -3.774101e-02  -7.432824e-02  0 
 -3.514570e-02  -7.441638e-02  0 
 -3.257153e-02  -7.455433e-02  0 
 -2.998018e-02  -7.469607e-02  0 
 -2.734494e-02  -7.481514e-02  0 
 -2.465378e-02  -7.489699e-02  0 
 -2.190489e-02  -7.493473e-02  0 
 -4.077506e-02  -7.728939e-02  0 
 -3.792976e-02  -7.724038e-02  0 
 -3.517897e-02  -7.728949e-02  0 
 -3.252196e-02  -7.739173e-02  0 
 -2.991110e-02  -7.751740e-02  0 
 -2.730808e-02  -7.764314e-02  0 
 -2.467864e-02  -7.773763e-02  0 
 -2.200941e-02  -7.778318e-02  0 
 -4.108200e-02  -8.028316e-02  0 
 -3.805715e-02  -8.024365e-02  0 
 -3.520932e-02  -8.023191e-02  0 
 -3.249395e-02  -8.025735e-02  0 
 -2.986107e-02  -8.032674e-02  0 
 -2.727837e-02  -8.043067e-02  0 
 -2.472335e-02  -8.054516e-02  0 
 -2.215313e-02  -8.057472e-02  0 
 -4.130235e-02  -8.352325e-02  0 
 -3.814339e-02  -8.332992e-02  0 
 -3.524940e-02  -8.318611e-02  0 
 -3.249351e-02  -8.310888e-02  0 
 -2.983487e-02  -8.309727e-02  0 
 -2.724532e-02  -8.315104e-02  0 
 -2.471660e-02  -8.327711e-02  0 
 -2.219626e-02  -8.354059e-02  0 
 -1.458330e-02  -6.487269e-02  0 
 -1.588054e-02  -7.137650e-02  0 
 -1.665377e-02  -7.395160e-02  0 
 -4.194914e-02  -9.030024e-02  0 
 -3.970749e-02  -9.099366e-02  0 
 -3.621770e-02  -9.119040e-02  0 
 -3.297017e-02  -9.113897e-02  0 
 -2.992410e-02  -9.094736e-02  0 
 -2.653522e-02  -9.062514e-02  0 
 -2.186780e-02  -9.043350e-02  0 
 -4.153579e-02  -9.745412e-02  0 
 -3.678316e-02  -9.681425e-02  0 
 -3.338834e-02  -9.646719e-02  0 
 -3.015125e-02  -9.622520e-02  0 
 -2.657163e-02  -9.629163e-02  0 
 -1.949204e-02  -9.802217e-02  0 
 -4.138035e-02  -1.031340e-01  0 
 -3.742978e-02  -1.022685e-01  0 
 -3.387656e-02  -1.015056e-01  0 
 -3.060383e-02  -1.011149e-01  0 
 -2.738974e-02  -1.005948e-01  0 
 -4.094275e-02  -1.073456e-01  0 
 -3.783545e-02  -1.066890e-01  0 
 -3.446380e-02  -1.058713e-01  0 
 -3.120747e-02  -1.052448e-01  0 
 -2.844732e-02  -1.048861e-01  0 
 -3.996670e-02  -1.099741e-01  0 
 -3.819742e-02  -1.101251e-01  0 
 -3.503799e-02  -1.097867e-01  0 
 -3.183363e-02  -1.086953e-01  0 
 -2.988035e-02  -1.070368e-01  0 
VECTORS displacement_ITER4 FLOAT
 -1.778594e-02  -6.857062e-02  0 
 -1.798066e-02  -7.173964e-02  0 
 -1.814034e-02  -7.476269e-02  0 
 -1.834269e-02  -7.773047e-02  0 
 -1.869159e-02  -8.056858e-02  0 
 -4.122681e-02  -8.699961e-02  0 
 -3.812953e-02  -8.664300e-02  0 
 -3.514228e-02  -8.638294e-02  0 
 -3.227398e-02  -8.622665e-02  0 
 -2.948807e-02  -8.616463e-02  0 
 -2.676126e-02  -8.619270e-02  0 
 -2.407057e-02  -8.632840e-02  0 
 -2.145580e-02  -8.660530e-02  0 
 -3.911146e-02  -6.413967e-02  0 
 -3.713404e-02  -6.395760e-02  0 
 -3.482151e-02  -6.373953e-02  0 
 -3.255179e-02  -6.363057e-02  0 
 -3.928846e-02  -6.621109e-02  0 
 -3.721571e-02  -6.622968e-02  0 
 -3.491919e-02  -6.616296e-02  0 
 -3.248795e-02  -6.600867e-02  0 
 -2.980666e-02  -6.581126e-02  0 
 -2.700130e-02  -6.564092e-02  0 
 -2.406476e-02  -6.556745e-02  0 
 -2.105752e-02  -6.552381e-02  0 
 -3.959264e-02  -6.866024e-02  0 
 -3.734588e-02  -6.867993e-02  0 
 -3.496993e-02  -6.871161e-02  0 
 -3.244856e-02  -6.872883e-02  0 
 -2.977454e-02  -6.872269e-02  0 
 -2.695414e-02  -6.870000e-02  0 
 -2.402860e-02  -6.867813e-02  0 
 -2.101073e-02  -6.867503e-02  0 
 -4.005743e-02  -7.138311e-02  0 
 -3.753581e-02  -7.135758e-02  0 
 -3.499226e-02  -7.144333e-02  0 
 -3.238823e-02  -7.154896e-02  0 
 -2.969392e-02  -7.164246e-02  0 
 -2.689904e-02  -7.170790e-02  0 
 -2.400726e-02  -7.174501e-02  0 
 -2.102940e-02  -7.175844e-02  0 
 -4.054733e-02  -7.425426e-02  0 
 -3.773038e-02  -7.424586e-02  0 
 -3.501725e-02  -7.432755e-02  0 
 -3.232750e-02  -7.445468e-02  0 
 -2.961637e-02  -7.458565e-02  0 
 -2.685142e-02  -7.469410e-02  0 
 -2.401421e-02  -7.476387e-02  0 
 -2.110565e-02  -7.478739e-02  0 
 -4.086245e-02  -7.729525e-02  0 
 -3.789265e-02  -7.726845e-02  0 
 -3.504151e-02  -7.731969e-02  0 
 -3.227973e-02  -7.741760e-02  0 
 -2.955530e-02  -7.753832e-02  0 
 -2.682591e-02  -7.765895e-02  0 
 -2.405656e-02  -7.774606e-02  0 
 -2.122841e-02  -7.777014e-02  0 
 -4.108620e-02  -8.039877e-02  0 
 -3.798845e-02  -8.037287e-02  0 
 -3.505948e-02  -8.036568e-02  0 
 -3.225195e-02  -8.039503e-02  0 
 -2.951327e-02  -8.047010e-02  0 
 -2.681133e-02  -8.058026e-02  0 
 -2.412048e-02  -8.069525e-02  0 
 -2.140665e-02  -8.072552e-02  0 
 -4.121940e-02  -8.368520e-02  0 
 -3.804061e-02  -8.353092e-02  0 
 -3.508775e-02  -8.340368e-02  0 
 -3.224936e-02  -8.334308e-02  0 
 -2.949063e-02  -8.335225e-02  0 
 -2.678856e-02  -8.342867e-02  0 
 -2.413522e-02  -8.357694e-02  0 
 -2.146354e-02  -8.383625e-02  0 
 -1.387108e-02  -6.562156e-02  0 
 -1.460781e-02  -7.137264e-02  0 
 -1.456090e-02  -7.529011e-02  0 
 -4.058658e-02  -8.923237e-02  0 
 -3.902156e-02  -9.038904e-02  0 
 -3.583813e-02  -9.076657e-02  0 
 -3.276167e-02  -9.082498e-02  0 
 -2.981790e-02  -9.076791e-02  0 
 -2.667639e-02  -9.059654e-02  0 
 -2.285866e-02  -9.044216e-02  0 
 -4.002008e-02  -9.544146e-02  0 
 -3.621680e-02  -9.531182e-02  0 
 -3.314164e-02  -9.527674e-02  0 
 -3.018385e-02  -9.522723e-02  0 
 -2.705149e-02  -9.533462e-02  0 
 -2.166268e-02  -9.642815e-02  0 
 -4.007566e-02  -1.000140e-01  0 
 -3.663678e-02  -9.972268e-02  0 
 -3.353665e-02  -9.939118e-02  0 
 -3.065380e-02  -9.920467e-02  0 
 -2.799405e-02  -9.881115e-02  0 
 -3.997347e-02  -1.039448e-01  0 
 -3.701064e-02  -1.034764e-01  0 
 -3.402349e-02  -1.029862e-01  0 
 -3.122878e-02  -1.025574e-01  0 
 -2.885643e-02  -1.022241e-01  0 
 -3.951732e-02  -1.064582e-01  0 
 -3.741153e-02  -1.065519e-01  0 
 -3.454332e-02  -1.062205e-01  0 
 -3.176346e-02  -1.054529e-01  0 
 -2.988236e-02  -1.043050e-01  0 
VECTORS displacement_ITER5 FLOAT
 -1.758975e-02  -6.779673e-02  0 
 -1.774502e-02  -7.086516e-02  0 
 -1.787548e-02  -7.382745e-02  0 
 -1.805981e-02  -7.674064e-02  0 
 -1.828858e-02  -7.958231e-02  0 
 -4.074216e-02  -8.604935e-02  0 
 -3.755920e-02  -8.559490e-02  0 
 -3.460824e-02  -8.529925e-02  0 
 -3.178288e-02  -8.512197e-02  0 
 -2.903665e-02  -8.503614e-02  0 
 -2.635119e-02  -8.502569e-02  0 
 -2.372763e-02  -8.508987e-02  0 
 -2.124702e-02  -8.524618e-02  0 
 -3.862635e-02  -6.324000e-02  0 
 -3.666394e-02  -6.307192e-02  0 
 -3.435684e-02  -6.283752e-02  0 
 -3.199791e-02  -6.267346e-02  0 
 -3.883260e-02  -6.532257e-02  0 
 -3.674107e-02  -6.533610e-02  0 
 -3.443738e-02  -6.528354e-02  0 
 -3.198915e-02  -6.514864e-02  0 
 -2.936158e-02  -6.499096e-02  0 
 -2.661577e-02  -6.486241e-02  0 
 -2.374186e-02  -6.479056e-02  0 
 -2.076180e-02  -6.476941e-02  0 
 -3.914240e-02  -6.778059e-02  0 
 -3.685718e-02  -6.780167e-02  0 
 -3.447550e-02  -6.783530e-02  0 
 -3.196427e-02  -6.785552e-02  0 
 -2.932096e-02  -6.785678e-02  0 
 -2.655436e-02  -6.784977e-02  0 
 -2.368174e-02  -6.784934e-02  0 
 -2.071289e-02  -6.786067e-02  0 
 -3.954608e-02  -7.050565e-02  0 
 -3.703209e-02  -7.047439e-02  0 
 -3.449676e-02  -7.054747e-02  0 
 -3.190910e-02  -7.064657e-02  0 
 -2.924351e-02  -7.073812e-02  0 
 -2.648899e-02  -7.080818e-02  0 
 -2.364640e-02  -7.085510e-02  0 
 -2.072513e-02  -7.087687e-02  0 
 -3.999299e-02  -7.334684e-02  0 
 -3.721516e-02  -7.332265e-02  0 
 -3.452002e-02  -7.339595e-02  0 
 -3.184944e-02  -7.351539e-02  0 
 -2.916584e-02  -7.364140e-02  0 
 -2.643810e-02  -7.374767e-02  0 
 -2.364560e-02  -7.381660e-02  0 
 -2.078946e-02  -7.384351e-02  0 
 -4.030167e-02  -7.631076e-02  0 
 -3.736427e-02  -7.629242e-02  0 
 -3.453687e-02  -7.634382e-02  0 
 -3.179727e-02  -7.643692e-02  0 
 -2.910149e-02  -7.655010e-02  0 
 -2.641019e-02  -7.666449e-02  0 
 -2.368542e-02  -7.674746e-02  0 
 -2.089516e-02  -7.676805e-02  0 
 -4.050417e-02  -7.935600e-02  0 
 -3.744584e-02  -7.934746e-02  0 
 -3.454189e-02  -7.934793e-02  0 
 -3.176206e-02  -7.937220e-02  0 
 -2.905527e-02  -7.943417e-02  0 
 -2.639107e-02  -7.953134e-02  0 
 -2.374782e-02  -7.964166e-02  0 
 -2.107038e-02  -7.968268e-02  0 
 -4.064142e-02  -8.260756e-02  0 
 -3.748032e-02  -8.247771e-02  0 
 -3.455643e-02  -8.235310e-02  0 
 -3.175555e-02  -8.227905e-02  0 
 -2.903256e-02  -8.226767e-02  0 
 -2.636776e-02  -8.231885e-02  0 
 -2.376461e-02  -8.243870e-02  0 
 -2.120395e-02  -8.264916e-02  0 
 -1.388271e-02  -6.604944e-02  0 
 -1.471925e-02  -7.080197e-02  0 
 -1.490466e-02  -7.419898e-02  0 
 -4.163314e-02  -9.028493e-02  0 
 -3.823923e-02  -8.996202e-02  0 
 -3.521601e-02  -8.982160e-02  0 
 -3.229369e-02  -8.967627e-02  0 
 -2.946364e-02  -8.952336e-02  0 
 -2.650099e-02  -8.931537e-02  0 
 -2.305950e-02  -8.916379e-02  0 
 -3.889002e-02  -9.430130e-02  0 
 -3.566041e-02  -9.409323e-02  0 
 -3.275925e-02  -9.391346e-02  0 
 -2.995526e-02  -9.376207e-02  0 
 -2.700983e-02  -9.372085e-02  0 
 -2.251803e-02  -9.431741e-02  0 
 -3.903603e-02  -9.823846e-02  0 
 -3.604786e-02  -9.800383e-02  0 
 -3.319535e-02  -9.773725e-02  0 
 -3.052470e-02  -9.746094e-02  0 
 -2.816165e-02  -9.694218e-02  0 
 -3.921203e-02  -1.017035e-01  0 
 -3.633053e-02  -1.014665e-01  0 
 -3.365248e-02  -1.010596e-01  0 
 -3.124150e-02  -1.005414e-01  0 
 -2.912372e-02  -9.994155e-02  0 
 -3.923356e-02  -1.049446e-01  0 
 -3.665300e-02  -1.045389e-01  0 
 -3.417416e-02  -1.039066e-01  0 
 -3.190326e-02  -1.031536e-01  0 
 -3.014685e-02  -1.022437e-01  0 
VECTORS displacement_ITER6 FLOAT
 -1.699837e-02  -6.664609e-02  0 
 -1.713185e-02  -6.960649e-02  0 
 -1.723666e-02  -7.251738e-02  0 
 -1.735767e-02  -7.541515e-02  0 
 -1.748578e-02  -7.837934e-02  0 
 -3.993517e-02  -8.469383e-02  0 
 -3.680048e-02  -8.424604e-02  0 
 -3.387977e-02  -8.396300e-02  0 
 -3.107030e-02  -8.378631e-02  0 
 -2.833666e-02  -8.369282e-02  0 
 -2.566734e-02  -8.366855e-02  0 
 -2.307022e-02  -8.371027e-02  0 
 -2.056259e-02  -8.385403e-02  0 
 -3.766989e-02  -6.198219e-02  0 
 -3.589124e-02  -6.182014e-02  0 
 -3.359044e-02  -6.156006e-02  0 
 -3.126238e-02  -6.140100e-02  0 
 -3.799119e-02  -6.398847e-02  0 
 -3.596312e-02  -6.401296e-02  0 
 -3.368878e-02  -6.399502e-02  0 
 -3.125362e-02  -6.388192e-02  0 
 -2.868219e-02  -6.374884e-02  0 
 -2.593640e-02  -6.363920e-02  0 
 -2.308525e-02  -6.357710e-02  0 
 -2.009241e-02  -6.355213e-02  0 
 -3.846278e-02  -6.648024e-02  0 
 -3.610051e-02  -6.648724e-02  0 
 -3.372269e-02  -6.653680e-02  0 
 -3.123158e-02  -6.657087e-02  0 
 -2.861000e-02  -6.658857e-02  0 
 -2.586364e-02  -6.659854e-02  0 
 -2.300404e-02  -6.661057e-02  0 
 -2.003494e-02  -6.663501e-02  0 
 -3.887107e-02  -6.924371e-02  0 
 -3.630294e-02  -6.919918e-02  0 
 -3.375432e-02  -6.925543e-02  0 
 -3.117445e-02  -6.935537e-02  0 
 -2.852352e-02  -6.945415e-02  0 
 -2.578495e-02  -6.953329e-02  0 
 -2.295526e-02  -6.958926e-02  0 
 -2.005316e-02  -6.961753e-02  0 
 -3.927241e-02  -7.209432e-02  0 
 -3.649825e-02  -7.205247e-02  0 
 -3.379041e-02  -7.211141e-02  0 
 -3.111904e-02  -7.222198e-02  0 
 -2.844430e-02  -7.234588e-02  0 
 -2.572989e-02  -7.245375e-02  0 
 -2.295247e-02  -7.252167e-02  0 
 -2.011403e-02  -7.253816e-02  0 
 -3.958888e-02  -7.502581e-02  0 
 -3.664074e-02  -7.501033e-02  0 
 -3.381153e-02  -7.505653e-02  0 
 -3.107344e-02  -7.513909e-02  0 
 -2.838369e-02  -7.524356e-02  0 
 -2.570337e-02  -7.535241e-02  0 
 -2.299565e-02  -7.543244e-02  0 
 -2.021707e-02  -7.544773e-02  0 
 -3.976035e-02  -7.805225e-02  0 
 -3.670876e-02  -7.805400e-02  0 
 -3.381573e-02  -7.804891e-02  0 
 -3.104374e-02  -7.806405e-02  0 
 -2.834407e-02  -7.811584e-02  0 
 -2.568815e-02  -7.820220e-02  0 
 -2.305557e-02  -7.830596e-02  0 
 -2.039024e-02  -7.836373e-02  0 
 -3.984234e-02  -8.127825e-02  0 
 -3.673051e-02  -8.116122e-02  0 
 -3.382943e-02  -8.103584e-02  0 
 -3.104089e-02  -8.095664e-02  0 
 -2.832764e-02  -8.093679e-02  0 
 -2.567364e-02  -8.097607e-02  0 
 -2.307878e-02  -8.107439e-02  0 
 -2.055671e-02  -8.123356e-02  0 
 -1.787959e-02  -6.915221e-02  0 
 -1.622586e-02  -6.993113e-02  0 
 -1.619670e-02  -7.237603e-02  0 
 -4.214184e-02  -9.098977e-02  0 
 -3.766087e-02  -8.957068e-02  0 
 -3.463237e-02  -8.893964e-02  0 
 -3.170883e-02  -8.857544e-02  0 
 -2.888050e-02  -8.825910e-02  0 
 -2.617951e-02  -8.802145e-02  0 
 -2.370098e-02  -8.785938e-02  0 
 -3.865235e-02  -9.406985e-02  0 
 -3.538465e-02  -9.353601e-02  0 
 -3.245429e-02  -9.304701e-02  0 
 -2.963560e-02  -9.257483e-02  0 
 -2.680692e-02  -9.195474e-02  0 
 -2.473200e-02  -9.107657e-02  0 
 -3.889054e-02  -9.804254e-02  0 
 -3.604363e-02  -9.759076e-02  0 
 -3.319992e-02  -9.711801e-02  0 
 -3.047831e-02  -9.660370e-02  0 
 -2.774850e-02  -9.608389e-02  0 
 -3.909310e-02  -1.011937e-01  0 
 -3.647613e-02  -1.011002e-01  0 
 -3.384037e-02  -1.007141e-01  0 
 -3.134158e-02  -1.002128e-01  0 
 -2.890925e-02  -9.947992e-02  0 
 -3.938928e-02  -1.045638e-01  0 
 -3.679427e-02  -1.042893e-01  0 
 -3.445047e-02  -1.038183e-01  0 
 -3.210567e-02  -1.032133e-01  0 
 -3.035142e-02  -1.024855e-01  0 
VECTORS displacement_ITER7 FLOAT
 -1.767518e-02  -6.665666e-02  0 
 -1.774449e-02  -6.942857e-02  0 
 -1.784096e-02  -7.224762e-02  0 
 -1.794687e-02  -7.505533e-02  0 
 -1.806133e-02  -7.799865e-02  0 
 -3.937386e-02  -8.375025e-02  0 
 -3.653601e-02  -8.338281e-02  0 
 -3.379371e-02  -8.315624e-02  0 
 -3.112170e-02  -8.301131e-02  0 
 -2.851175e-02  -8.293416e-02  0 
 -2.596505e-02  -8.291148e-02  0 
 -2.350934e-02  -8.293342e-02  0 
 -2.116853e-02  -8.305722e-02  0 
 -3.736832e-02  -6.210365e-02  0 
 -3.572299e-02  -6.198927e-02  0 
 -3.351522e-02  -6.173763e-02  0 
 -3.124915e-02  -6.156550e-02  0 
 -3.772438e-02  -6.404008e-02  0 
 -3.578911e-02  -6.406947e-02  0 
 -3.361782e-02  -6.407578e-02  0 
 -3.129318e-02  -6.398517e-02  0 
 -2.891391e-02  -6.384392e-02  0 
 -2.630347e-02  -6.368275e-02  0 
 -2.354239e-02  -6.351663e-02  0 
 -2.037331e-02  -6.332902e-02  0 
 -3.823950e-02  -6.645660e-02  0 
 -3.593415e-02  -6.645579e-02  0 
 -3.365464e-02  -6.650895e-02  0 
 -3.129431e-02  -6.653462e-02  0 
 -2.882213e-02  -6.653869e-02  0 
 -2.621291e-02  -6.653517e-02  0 
 -2.342812e-02  -6.654599e-02  0 
 -2.048081e-02  -6.659106e-02  0 
 -3.862515e-02  -6.911391e-02  0 
 -3.613712e-02  -6.907552e-02  0 
 -3.369406e-02  -6.912063e-02  0 
 -3.124151e-02  -6.920845e-02  0 
 -2.872453e-02  -6.929908e-02  0 
 -2.610439e-02  -6.938127e-02  0 
 -2.336320e-02  -6.944520e-02  0 
 -2.055203e-02  -6.945852e-02  0 
 -3.897687e-02  -7.185828e-02  0 
 -3.631689e-02  -7.181967e-02  0 
 -3.372661e-02  -7.187114e-02  0 
 -3.118276e-02  -7.197001e-02  0 
 -2.863554e-02  -7.208963e-02  0 
 -2.603937e-02  -7.220197e-02  0 
 -2.337011e-02  -7.226930e-02  0 
 -2.062903e-02  -7.227349e-02  0 
 -3.926191e-02  -7.467357e-02  0 
 -3.643005e-02  -7.466456e-02  0 
 -3.373654e-02  -7.470184e-02  0 
 -3.113280e-02  -7.477226e-02  0 
 -2.857010e-02  -7.487342e-02  0 
 -2.601269e-02  -7.498789e-02  0 
 -2.342499e-02  -7.507666e-02  0 
 -2.074709e-02  -7.509305e-02  0 
 -3.936910e-02  -7.759248e-02  0 
 -3.646924e-02  -7.758511e-02  0 
 -3.373489e-02  -7.756082e-02  0 
 -3.110174e-02  -7.756659e-02  0 
 -2.852759e-02  -7.761877e-02  0 
 -2.599405e-02  -7.771346e-02  0 
 -2.348740e-02  -7.783486e-02  0 
 -2.094521e-02  -7.792466e-02  0 
 -3.934869e-02  -8.064932e-02  0 
 -3.647871e-02  -8.052038e-02  0 
 -3.374963e-02  -8.039172e-02  0 
 -3.109794e-02  -8.031909e-02  0 
 -2.850735e-02  -8.030704e-02  0 
 -2.597376e-02  -8.035340e-02  0 
 -2.350936e-02  -8.045840e-02  0 
 -2.116397e-02  -8.060664e-02  0 
 -1.581726e-02  -6.643091e-02  0 
 -1.578468e-02  -6.953625e-02  0 
 -1.595545e-02  -7.218909e-02  0 
 -4.081144e-02  -8.903042e-02  0 
 -3.717895e-02  -8.811578e-02  0 
 -3.436753e-02  -8.766868e-02  0 
 -3.153575e-02  -8.739360e-02  0 
 -2.877793e-02  -8.716318e-02  0 
 -2.626618e-02  -8.703357e-02  0 
 -2.412324e-02  -8.693191e-02  0 
 -3.793158e-02  -9.216135e-02  0 
 -3.495464e-02  -9.193580e-02  0 
 -3.203051e-02  -9.160803e-02  0 
 -2.916839e-02  -9.121086e-02  0 
 -2.649490e-02  -9.059437e-02  0 
 -2.546178e-02  -8.934082e-02  0 
 -3.840814e-02  -9.619977e-02  0 
 -3.549733e-02  -9.597768e-02  0 
 -3.254451e-02  -9.569784e-02  0 
 -2.961187e-02  -9.525542e-02  0 
 -2.651313e-02  -9.493446e-02  0 
 -3.907508e-02  -1.000070e-01  0 
 -3.591047e-02  -9.988495e-02  0 
 -3.299934e-02  -9.964711e-02  0 
 -3.009758e-02  -9.930503e-02  0 
 -2.684534e-02  -9.873660e-02  0 
 -3.986709e-02  -1.043978e-01  0 
 -3.626112e-02  -1.037059e-01  0 
 -3.344968e-02  -1.031578e-01  0 
 -3.057054e-02  -1.030504e-01  0 
 -2.743296e-02  -1.031134e-01  0 
VECTORS displacement_ITER8 FLOAT
 -1.758120e-02  -6.635609e-02  0 
 -1.767254e-02  -6.913089e-02  0 
 -1.778078e-02  -7.192526e-02  0 
 -1.790062e-02  -7.470519e-02  0 
 -1.807672e-02  -7.755947e-02  0 
 -3.913156e-02  -8.334472e-02  0 
 -3.631237e-02  -8.297570e-02  0 
 -3.358441e-02  -8.274407e-02  0 
 -3.093168e-02  -8.259632e-02  0 
 -2.834279e-02  -8.251731e-02  0 
 -2.581682e-02  -8.249492e-02  0 
 -2.337490e-02  -8.252196e-02  0 
 -2.105003e-02  -8.263587e-02  0 
 -3.707691e-02  -6.180234e-02  0 
 -3.548668e-02  -6.171395e-02  0 
 -3.330822e-02  -6.146663e-02  0 
 -3.102576e-02  -6.127082e-02  0 
 -3.745387e-02  -6.373142e-02  0 
 -3.554229e-02  -6.376891e-02  0 
 -3.339746e-02  -6.378871e-02  0 
 -3.108076e-02  -6.371148e-02  0 