# vtk DataFile Version 3.1
this is an vtk file created by FEMAC
ASCII
DATASET UNSTRUCTURED_GRID
POINTS 101 FLOAT
5.000000 0.000000 0.000000
5.000000 1.000000 0.000000
4.444444 0.000000 0.000000
4.555556 0.000000 0.000000
4.666667 0.000000 0.000000
4.777778 0.000000 0.000000
4.888889 0.000000 0.000000
5.111111 0.000000 0.000000
4.333333 1.000000 0.000000
4.444444 1.000000 0.000000
4.555556 1.000000 0.000000
4.666667 1.000000 0.000000
4.777778 1.000000 0.000000
4.888889 1.000000 0.000000
5.000000 0.111111 0.000000
5.000000 0.222222 0.000000
5.000000 0.333333 0.000000
5.000000 0.444444 0.000000
5.000000 0.555556 0.000000
5.000000 0.666667 0.000000
5.000000 0.777778 0.000000
5.000000 0.888889 0.000000
5.000000 1.111111 0.000000
5.000000 1.222222 0.000000
5.111111 1.000000 0.000000
5.222222 1.000000 0.000000
4.333333 0.333333 0.000000
4.333333 0.444444 0.000000
4.333333 0.555556 0.000000
4.333333 0.666667 0.000000
4.333333 0.777778 0.000000
4.333333 0.888889 0.000000
4.444444 0.111111 0.000000
4.444444 0.222222 0.000000
4.444444 0.333333 0.000000
4.444444 0.444444 0.000000
4.444444 0.555556 0.000000
4.444444 0.666667 0.000000
4.444444 0.777778 0.000000
4.444444 0.888889 0.000000
4.555556 0.111111 0.000000
4.555556 0.222222 0.000000
4.555556 0.333333 0.000000
4.555556 0.444444 0.000000
4.555556 0.555556 0.000000
4.555556 0.666667 0.000000
4.555556 0.777778 0.000000
4.555556 0.888889 0.000000
4.666667 0.111111 0.000000
4.666667 0.222222 0.000000
4.666667 0.333333 0.000000
4.666667 0.444444 0.000000
4.666667 0.555556 0.000000
4.666667 0.666667 0.000000
4.666667 0.777778 0.000000
4.666667 0.888889 0.000000
4.777778 0.111111 0.000000
4.777778 0.222222 0.000000
4.777778 0.333333 0.000000
4.777778 0.444444 0.000000
4.777778 0.555556 0.000000
4.777778 0.666667 0.000000
4.777778 0.777778 0.000000
4.777778 0.888889 0.000000
4.888889 0.111111 0.000000
4.888889 0.222222 0.000000
4.888889 0.333333 0.000000
4.888889 0.444444 0.000000
4.888889 0.555556 0.000000
4.888889 0.666667 0.000000
4.888889 0.777778 0.000000
4.888889 0.888889 0.000000
4.333333 1.111111 0.000000
4.333333 1.222222 0.000000
4.444444 1.111111 0.000000
4.444444 1.222222 0.000000
4.555556 1.111111 0.000000
4.555556 1.222222 0.000000
4.666667 1.111111 0.000000
4.666667 1.222222 0.000000
4.777778 1.111111 0.000000
4.777778 1.222222 0.000000
4.888889 1.111111 0.000000
4.888889 1.222222 0.000000
5.111111 0.111111 0.000000
5.111111 0.222222 0.000000
5.111111 0.333333 0.000000
5.111111 0.444444 0.000000
5.111111 0.555556 0.000000
5.111111 0.666667 0.000000
5.111111 0.777778 0.000000
5.111111 0.888889 0.000000
5.222222 0.444444 0.000000
5.222222 0.555556 0.000000
5.222222 0.666667 0.000000
5.222222 0.777778 0.000000
5.222222 0.888889 0.000000
5.111111 1.111111 0.000000
5.111111 1.222222 0.000000
5.222222 1.111111 0.000000
5.222222 1.222222 0.000000
CELLS 81 405 
4 26 34 35 27
4 27 35 36 28
4 28 36 37 29
4 29 37 38 30
4 30 38 39 31
4 31 39  9  8
4 2  3 40 32
4 32 40 41 33
4 33 41 42 34
4 34 42 43 35
4 35 43 44 36
4 36 44 45 37
4 37 45 46 38
4 38 46 47 39
4 39 47 10  9
4 3  4 48 40
4 40 48 49 41
4 41 49 50 42
4 42 50 51 43
4 43 51 52 44
4 44 52 53 45
4 45 53 54 46
4 46 54 55 47
4 47 55 11 10
4 4  5 56 48
4 48 56 57 49
4 49 57 58 50
4 50 58 59 51
4 51 59 60 52
4 52 60 61 53
4 53 61 62 54
4 54 62 63 55
4 55 63 12 11
4 5  6 64 56
4 56 64 65 57
4 57 65 66 58
4 58 66 67 59
4 59 67 68 60
4 60 68 69 61
4 61 69 70 62
4 62 70 71 63
4 63 71 13 12
4 6  0 14 64
4 64 14 15 65
4 65 15 16 66
4 66 16 17 67
4 67 17 18 68
4 68 18 19 69
4 69 19 20 70
4 70 20 21 71
4 71 21  1 13
4 8  9 74 72
4 72 74 75 73
4 9 10 76 74
4 74 76 77 75
4 10 11 78 76
4 76 78 79 77
4 11 12 80 78
4 78 80 81 79
4 12 13 82 80
4 80 82 83 81
4 13  1 22 82
4 82 22 23 83
4 0  7 84 14
4 14 84 85 15
4 15 85 86 16
4 16 86 87 17
4 17 87 88 18
4 18 88 89 19
4 19 89 90 20
4 20 90 91 21
4 21 91 24  1
4 87 92 93 88
4 88 93 94 89
4 89 94 95 90
4 90 95 96 91
4 91 96 25 24
4 1 24 97 22
4 22 97 98 23
4 24 25 99 97
4 97  99 100  98
CELL_TYPES 81
9 9 9 9 9 9 9 9 9 9 9 9 9 9 9 9 9 9 9 9 9 9 9 9 9 9 9 9 9 9 9 9 9 9 9 9 9 9 9 9 9 9 9 9 9 9 9 9 9 9 9 9 9 9 9 9 9 9 9 9 9 9 9 9 9 9 9 9 9 9 9 9 9 9 9 9 9 9 9 9 9 
POINT_DATA 101
VECTORS displacement_ITER1 FLOAT
 -8.181378e-02  -1.422982e-01  0 
 -4.980568e-02  -1.413592e-01  0 
 -8.178050e-02  -1.237499e-01  0 
 -8.180321e-02  -1.274705e-01  0 
 -8.181181e-02  -1.311671e-01  0 
 -8.181208e-02  -1.348745e-01  0 
 -8.181189e-02  -1.385846e-01  0 
 -8.202748e-02  -1.463168e-01  0 
 -4.836636e-02  -1.198908e-01  0 
 -4.849368e-02  -1.238034e-01  0 
 -4.864717e-02  -1.275493e-01  0 
 -4.881607e-02  -1.312340e-01  0 
 -4.902697e-02  -1.348506e-01  0 
 -4.933213e-02  -1.383394e-01  0 
 -7.809917e-02  -1.422951e-01  0 
 -7.439062e-02  -1.422839e-01  0 
 -7.069203e-02  -1.422572e-01  0 
 -6.700442e-02  -1.422136e-01  0 
 -6.333449e-02  -1.421479e-01  0 
 -5.969646e-02  -1.420496e-01  0 
 -5.611990e-02  -1.419004e-01  0 
 -5.268371e-02  -1.416654e-01  0 
 -4.757880e-02  -1.410743e-01  0 
 -4.484759e-02  -1.409095e-01  0 
 -5.029783e-02  -1.437274e-01  0 
 -5.067871e-02  -1.467190e-01  0 
 -7.077756e-02  -1.200683e-01  0 
 -6.707463e-02  -1.201850e-01  0 
 -6.332425e-02  -1.202089e-01  0 
 -5.958280e-02  -1.201733e-01  0 
 -5.585192e-02  -1.201971e-01  0 
 -5.212946e-02  -1.201078e-01  0 
 -7.813341e-02  -1.238134e-01  0 
 -7.445541e-02  -1.237692e-01  0 
 -7.078632e-02  -1.237752e-01  0 
 -6.703839e-02  -1.238455e-01  0 
 -6.334168e-02  -1.238902e-01  0 
 -5.963470e-02  -1.239048e-01  0 
 -5.594001e-02  -1.238838e-01  0 
 -5.225533e-02  -1.238390e-01  0 
 -7.811699e-02  -1.274649e-01  0 
 -7.443878e-02  -1.274797e-01  0 
 -7.072952e-02  -1.275042e-01  0 
 -6.702333e-02  -1.275354e-01  0 
 -6.333669e-02  -1.275644e-01  0 
 -5.967057e-02  -1.275855e-01  0 
 -5.601371e-02  -1.275877e-01  0 
 -5.234326e-02  -1.275781e-01  0 
 -7.811032e-02  -1.311691e-01  0 
 -7.440803e-02  -1.311791e-01  0 
 -7.070457e-02  -1.311951e-01  0 
 -6.700734e-02  -1.312086e-01  0 
 -6.333036e-02  -1.312224e-01  0 
 -5.968300e-02  -1.312405e-01  0 
 -5.606222e-02  -1.312608e-01  0 
 -5.244808e-02  -1.312638e-01  0 
 -7.810292e-02  -1.348755e-01  0 
 -7.439433e-02  -1.348774e-01  0 
 -7.069016e-02  -1.348774e-01  0 
 -6.699628e-02  -1.348725e-01  0 
 -6.332101e-02  -1.348638e-01  0 
 -5.967772e-02  -1.348594e-01  0 
 -5.608897e-02  -1.348715e-01  0 
 -5.255838e-02  -1.348849e-01  0 
 -7.809997e-02  -1.385831e-01  0 
 -7.438999e-02  -1.385772e-01  0 
 -7.068668e-02  -1.385631e-01  0 
 -6.699468e-02  -1.385377e-01  0 
 -6.331997e-02  -1.385001e-01  0 
 -5.967558e-02  -1.384513e-01  0 
 -5.609056e-02  -1.383995e-01  0 
 -5.264394e-02  -1.383798e-01  0 
 -4.401312e-02  -1.180076e-01  0 
 -3.794670e-02  -1.159752e-01  0 
 -4.472615e-02  -1.235063e-01  0 
 -3.982420e-02  -1.231178e-01  0 
 -4.515188e-02  -1.279299e-01  0 
 -4.122948e-02  -1.278136e-01  0 
 -4.566609e-02  -1.317612e-01  0 
 -4.247138e-02  -1.317587e-01  0 
 -4.622021e-02  -1.352629e-01  0 
 -4.361821e-02  -1.352312e-01  0 
 -4.677641e-02  -1.383546e-01  0 
 -4.456765e-02  -1.384040e-01  0 
 -7.758245e-02  -1.464781e-01  0 
 -7.410721e-02  -1.464121e-01  0 
 -7.066448e-02  -1.463002e-01  0 
 -6.695304e-02  -1.462245e-01  0 
 -6.331824e-02  -1.459106e-01  0 
 -5.977480e-02  -1.455498e-01  0 
 -5.636997e-02  -1.451399e-01  0 
 -5.323759e-02  -1.445779e-01  0 
 -6.676052e-02  -1.495448e-01  0 
 -6.345527e-02  -1.492545e-01  0 
 -6.010350e-02  -1.487357e-01  0 
 -5.669874e-02  -1.479220e-01  0 
 -5.388344e-02  -1.470642e-01  0 
 -4.761045e-02  -1.436822e-01  0 
 -4.490160e-02  -1.436117e-01  0 
 -4.770964e-02  -1.464679e-01  0 
 -4.485616e-02  -1.464512e-01  0 
VECTORS displacement_ITER2 FLOAT
 -8.097509e-02  -1.313560e-01  0 
 -4.750674e-02  -1.304165e-01  0 
 -8.091034e-02  -1.120164e-01  0 
 -8.091607e-02  -1.159123e-01  0 
 -8.092453e-02  -1.197628e-01  0 
 -8.093819e-02  -1.236158e-01  0 
 -8.095536e-02  -1.274774e-01  0 
 -8.240144e-02  -1.365460e-01  0 
 -4.611027e-02  -1.081939e-01  0 
 -4.627049e-02  -1.121255e-01  0 
 -4.642793e-02  -1.159950e-01  0 
 -4.658952e-02  -1.198191e-01  0 
 -4.678380e-02  -1.235847e-01  0 
 -4.706629e-02  -1.272303e-01  0 
 -7.709372e-02  -1.313446e-01  0 
 -7.322938e-02  -1.313270e-01  0 
 -6.937699e-02  -1.313002e-01  0 
 -6.553295e-02  -1.312588e-01  0 
 -6.170413e-02  -1.311960e-01  0 
 -5.790649e-02  -1.311010e-01  0 
 -5.417089e-02  -1.309549e-01  0 
 -5.057242e-02  -1.307240e-01  0 
 -4.513797e-02  -1.301126e-01  0 
 -4.230279e-02  -1.299053e-01  0 
 -4.795465e-02  -1.329041e-01  0 
 -4.826548e-02  -1.358646e-01  0 
 -6.947369e-02  -1.082225e-01  0 
 -6.560929e-02  -1.082571e-01  0 
 -6.176474e-02  -1.082832e-01  0 
 -5.790385e-02  -1.082708e-01  0 
 -5.399056e-02  -1.082591e-01  0 
 -5.005393e-02  -1.082365e-01  0 
 -7.705002e-02  -1.120660e-01  0 
 -7.323103e-02  -1.120830e-01  0 
 -6.943301e-02  -1.120855e-01  0 
 -6.559032e-02  -1.121115e-01  0 
 -6.175397e-02  -1.121342e-01  0 
 -5.790859e-02  -1.121577e-01  0 
 -5.404123e-02  -1.121677e-01  0 
 -5.015912e-02  -1.121564e-01  0 
 -7.706025e-02  -1.159068e-01  0 
 -7.322936e-02  -1.159106e-01  0 
 -6.939960e-02  -1.159270e-01  0 
 -6.556662e-02  -1.159502e-01  0 
 -6.173633e-02  -1.159778e-01  0 
 -5.791177e-02  -1.160082e-01  0 
 -5.408876e-02  -1.160293e-01  0 
 -5.026083e-02  -1.160264e-01  0 
 -7.707307e-02  -1.197584e-01  0 
 -7.322350e-02  -1.197568e-01  0 
 -6.937965e-02  -1.197638e-01  0 
 -6.554185e-02  -1.197769e-01  0 
 -6.171500e-02  -1.197957e-01  0 
 -5.790905e-02  -1.198214e-01  0 
 -5.412950e-02  -1.198469e-01  0 
 -5.036399e-02  -1.198506e-01  0 
 -7.708016e-02  -1.236115e-01  0 
 -7.322234e-02  -1.236075e-01  0 
 -6.936941e-02  -1.236031e-01  0 
 -6.552554e-02  -1.235984e-01  0 
 -6.169678e-02  -1.235939e-01  0 
 -5.789684e-02  -1.235937e-01  0 
 -5.415085e-02  -1.236064e-01  0 
 -5.046567e-02  -1.236186e-01  0 
 -7.708715e-02  -1.274721e-01  0 
 -7.322425e-02  -1.274635e-01  0 
 -6.936889e-02  -1.274476e-01  0 
 -6.552267e-02  -1.274228e-01  0 
 -6.169178e-02  -1.273879e-01  0 
 -5.789032e-02  -1.273420e-01  0 
 -5.414764e-02  -1.272911e-01  0 
 -5.053941e-02  -1.272687e-01  0 
 -4.399876e-02  -1.097364e-01  0 
 -4.217917e-02  -1.096085e-01  0 
 -4.381569e-02  -1.124267e-01  0 
 -4.146596e-02  -1.124015e-01  0 
 -4.382427e-02  -1.161320e-01  0 
 -4.118990e-02  -1.162909e-01  0 
 -4.390199e-02  -1.199902e-01  0 
 -4.093047e-02  -1.200377e-01  0 
 -4.409105e-02  -1.237580e-01  0 
 -4.125024e-02  -1.237893e-01  0 
 -4.444304e-02  -1.271553e-01  0 
 -4.189561e-02  -1.271121e-01  0 
 -7.723147e-02  -1.360883e-01  0 
 -7.335891e-02  -1.358528e-01  0 
 -6.944695e-02  -1.357958e-01  0 
 -6.575819e-02  -1.359187e-01  0 
 -6.151090e-02  -1.356525e-01  0 
 -5.754148e-02  -1.353092e-01  0 
 -5.382769e-02  -1.348282e-01  0 
 -5.056205e-02  -1.341431e-01  0 
 -6.594754e-02  -1.408070e-01  0 
 -6.137537e-02  -1.401826e-01  0 
 -5.744833e-02  -1.395037e-01  0 
 -5.366729e-02  -1.384819e-01  0 
 -5.065789e-02  -1.371265e-01  0 
 -4.518704e-02  -1.328448e-01  0 
 -4.231776e-02  -1.327720e-01  0 
 -4.526985e-02  -1.357760e-01  0 
 -4.225094e-02  -1.358276e-01  0 
VECTORS displacement_ITER3 FLOAT
 -7.961914e-02  -1.237526e-01  0 
 -4.737701e-02  -1.227334e-01  0 
 -7.947082e-02  -1.050522e-01  0 
 -7.950724e-02  -1.088176e-01  0 
 -7.953090e-02  -1.125336e-01  0 
 -7.955621e-02  -1.162559e-01  0 
 -7.958545e-02  -1.199909e-01  0 
 -8.227824e-02  -1.297326e-01  0 
 -4.596201e-02  -1.014154e-01  0 
 -4.610789e-02  -1.051781e-01  0 
 -4.625996e-02  -1.089040e-01  0 
 -4.642218e-02  -1.125884e-01  0 
 -4.662189e-02  -1.162151e-01  0 
 -4.691602e-02  -1.197172e-01  0 
 -7.585174e-02  -1.237349e-01  0 
 -7.211127e-02  -1.237113e-01  0 
 -6.838885e-02  -1.236787e-01  0 
 -6.467731e-02  -1.236322e-01  0 
 -6.098162e-02  -1.235642e-01  0 
 -5.731872e-02  -1.234626e-01  0 
 -5.372183e-02  -1.233070e-01  0 
 -5.026946e-02  -1.230618e-01  0 
 -4.511051e-02  -1.224101e-01  0 
 -4.235755e-02  -1.221920e-01  0 
 -4.785104e-02  -1.251267e-01  0 
 -4.816974e-02  -1.280601e-01  0 
 -6.849160e-02  -1.013926e-01  0 
 -6.476276e-02  -1.014301e-01  0 
 -6.104786e-02  -1.014426e-01  0 
 -5.731410e-02  -1.014402e-01  0 
 -5.353690e-02  -1.014545e-01  0 
 -4.973678e-02  -1.014405e-01  0 
 -7.579073e-02  -1.051291e-01  0 
 -7.211236e-02  -1.051367e-01  0 
 -6.843970e-02  -1.051294e-01  0 
 -6.473976e-02  -1.051509e-01  0 
 -6.103502e-02  -1.051753e-01  0 
 -5.731736e-02  -1.052024e-01  0 
 -5.358533e-02  -1.052176e-01  0 
 -4.984706e-02  -1.052098e-01  0 
 -7.579325e-02  -1.088098e-01  0 
 -7.210801e-02  -1.088209e-01  0 
 -6.841294e-02  -1.088359e-01  0 
 -6.471243e-02  -1.088574e-01  0 
 -6.101461e-02  -1.088870e-01  0 
 -5.732300e-02  -1.089190e-01  0 
 -5.363690e-02  -1.089399e-01  0 
 -4.995086e-02  -1.089359e-01  0 
 -7.581308e-02  -1.125271e-01  0 
 -7.209964e-02  -1.125266e-01  0 
 -6.839137e-02  -1.125364e-01  0 
 -6.468614e-02  -1.125505e-01  0 
 -6.099213e-02  -1.125695e-01  0 
 -5.732157e-02  -1.125950e-01  0 
 -5.368074e-02  -1.126197e-01  0 
 -5.005622e-02  -1.126219e-01  0 
 -7.582729e-02  -1.162493e-01  0 
 -7.209990e-02  -1.162451e-01  0 
 -6.837921e-02  -1.162417e-01  0 
 -6.466840e-02  -1.162372e-01  0 
 -6.097341e-02  -1.162315e-01  0 
 -5.730934e-02  -1.162292e-01  0 
 -5.370272e-02  -1.162405e-01  0 
 -5.016067e-02  -1.162517e-01  0 
 -7.584031e-02  -1.199831e-01  0 
 -7.210379e-02  -1.199731e-01  0 
 -6.837883e-02  -1.199554e-01  0 
 -6.466539e-02  -1.199280e-01  0 
 -6.096841e-02  -1.198898e-01  0 
 -5.730239e-02  -1.198396e-01  0 
 -5.369842e-02  -1.197841e-01  0 
 -5.023584e-02  -1.197584e-01  0 
 -4.369469e-02  -1.027925e-01  0 
 -4.171223e-02  -1.027614e-01  0 
 -4.358939e-02  -1.054097e-01  0 
 -4.130715e-02  -1.051892e-01  0 
 -4.373572e-02  -1.088779e-01  0 
 -4.134704e-02  -1.086410e-01  0 
 -4.392900e-02  -1.125620e-01  0 
 -4.113555e-02  -1.124120e-01  0 
 -4.413743e-02  -1.162275e-01  0 
 -4.147614e-02  -1.160984e-01  0 
 -4.447997e-02  -1.195165e-01  0 
 -4.208981e-02  -1.193870e-01  0 
 -7.625799e-02  -1.288053e-01  0 
 -7.238014e-02  -1.284052e-01  0 
 -6.862090e-02  -1.282449e-01  0 
 -6.498189e-02  -1.283786e-01  0 
 -6.073366e-02  -1.281699e-01  0 
 -5.679288e-02  -1.277898e-01  0 
 -5.318460e-02  -1.272426e-01  0 
 -5.013074e-02  -1.265124e-01  0 
 -6.553855e-02  -1.340864e-01  0 
 -6.060385e-02  -1.331430e-01  0 
 -5.659855e-02  -1.321897e-01  0 
 -5.287970e-02  -1.309830e-01  0 
 -5.004647e-02  -1.293964e-01  0 
 -4.515885e-02  -1.250581e-01  0 
 -4.238792e-02  -1.249606e-01  0 
 -4.526765e-02  -1.279052e-01  0 
 -4.231832e-02  -1.279237e-01  0 
VECTORS displacement_ITER4 FLOAT
 -7.734037e-02  -1.207235e-01  0 
 -4.737062e-02  -1.197976e-01  0 
 -7.720236e-02  -1.034281e-01  0 
 -7.725723e-02  -1.068409e-01  0 
 -7.728839e-02  -1.102901e-01  0 
 -7.730624e-02  -1.137573e-01  0 
 -7.732274e-02  -1.172329e-01  0 
 -7.855443e-02  -1.253761e-01  0 
 -4.607045e-02  -1.000309e-01  0 
 -4.618980e-02  -1.034724e-01  0 
 -4.631123e-02  -1.069271e-01  0 
 -4.645514e-02  -1.103561e-01  0 
 -4.664358e-02  -1.137329e-01  0 
 -4.692568e-02  -1.169924e-01  0 
 -7.384770e-02  -1.207133e-01  0 
 -7.037091e-02  -1.206965e-01  0 
 -6.690564e-02  -1.206700e-01  0 
 -6.345001e-02  -1.206294e-01  0 
 -6.001114e-02  -1.205667e-01  0 
 -5.660431e-02  -1.204714e-01  0 
 -5.325891e-02  -1.203269e-01  0 
 -5.004875e-02  -1.200996e-01  0 
 -4.516809e-02  -1.195019e-01  0 
 -4.246186e-02  -1.192982e-01  0 
 -4.783206e-02  -1.221272e-01  0 
 -4.817930e-02  -1.249704e-01  0 
 -6.693153e-02  -9.995158e-02  0 
 -6.354893e-02  -9.994577e-02  0 
 -6.008948e-02  -9.993822e-02  0 
 -5.659236e-02  -9.995155e-02  0 
 -5.306316e-02  -1.000097e-01  0 
 -4.953468e-02  -1.000386e-01  0 
 -7.383673e-02  -1.034263e-01  0 
 -7.040825e-02  -1.033753e-01  0 
 -6.693885e-02  -1.033796e-01  0 
 -6.351247e-02  -1.034042e-01  0 
 -6.006511e-02  -1.034394e-01  0 
 -5.658905e-02  -1.034768e-01  0 
 -5.310702e-02  -1.035032e-01  0 
 -4.964014e-02  -1.035024e-01  0 
 -7.383142e-02  -1.068342e-01  0 
 -7.039197e-02  -1.068435e-01  0 
 -6.693348e-02  -1.068478e-01  0 
 -6.348182e-02  -1.068654e-01  0 
 -6.003711e-02  -1.069016e-01  0 
 -5.659614e-02  -1.069395e-01  0 
 -5.316414e-02  -1.069608e-01  0 
 -4.974057e-02  -1.069551e-01  0 
 -7.383123e-02  -1.102885e-01  0 
 -7.037547e-02  -1.102937e-01  0 
 -6.691684e-02  -1.103024e-01  0 
 -6.345943e-02  -1.103139e-01  0 
 -6.001600e-02  -1.103334e-01  0 
 -5.659849e-02  -1.103601e-01  0 
 -5.321152e-02  -1.103836e-01  0 
 -4.984003e-02  -1.103854e-01  0 
 -7.383573e-02  -1.137539e-01  0 
 -7.036757e-02  -1.137532e-01  0 
 -6.690275e-02  -1.137525e-01  0 
 -6.344431e-02  -1.137492e-01  0 
 -6.000148e-02  -1.137442e-01  0 
 -5.659067e-02  -1.137426e-01  0 
 -5.323576e-02  -1.137542e-01  0 
 -4.993999e-02  -1.137659e-01  0 
 -7.384181e-02  -1.172281e-01  0 
 -7.036664e-02  -1.172208e-01  0 
 -6.689919e-02  -1.172070e-01  0 
 -6.344092e-02  -1.171837e-01  0 
 -5.999852e-02  -1.171489e-01  0 
 -5.658683e-02  -1.171024e-01  0 
 -5.323434e-02  -1.170516e-01  0 
 -5.001484e-02  -1.170306e-01  0 
 -4.267207e-02  -9.895817e-02  0 
 -3.818958e-02  -9.758976e-02  0 
 -4.300670e-02  -1.032218e-01  0 
 -3.908739e-02  -1.027630e-01  0 
 -4.324195e-02  -1.070127e-01  0 
 -3.999210e-02  -1.067094e-01  0 
 -4.358418e-02  -1.105218e-01  0 
 -4.054032e-02  -1.103455e-01  0 
 -4.396559e-02  -1.138780e-01  0 
 -4.123014e-02  -1.137205e-01  0 
 -4.443422e-02  -1.168835e-01  0 
 -4.205912e-02  -1.167277e-01  0 
 -7.392709e-02  -1.250232e-01  0 
 -7.051277e-02  -1.248184e-01  0 
 -6.697653e-02  -1.247158e-01  0 
 -6.346354e-02  -1.247348e-01  0 
 -5.981948e-02  -1.244837e-01  0 
 -5.633579e-02  -1.241482e-01  0 
 -5.303998e-02  -1.237392e-01  0 
 -5.018394e-02  -1.231843e-01  0 
 -6.326282e-02  -1.285662e-01  0 
 -5.971892e-02  -1.282566e-01  0 
 -5.632215e-02  -1.277553e-01  0 
 -5.290872e-02  -1.268463e-01  0 
 -5.029896e-02  -1.257341e-01  0 
 -4.520599e-02  -1.220755e-01  0 
 -4.250329e-02  -1.220258e-01  0 
 -4.528210e-02  -1.248538e-01  0 
 -4.246412e-02  -1.248401e-01  0 
VECTORS displacement_ITER5 FLOAT
 -7.674994e-02  -1.188962e-01  0 
 -4.662759e-02  -1.179585e-01  0 
 -7.663604e-02  -1.014832e-01  0 
 -7.667615e-02  -1.049277e-01  0 
 -7.670042e-02  -1.084020e-01  0 
 -7.671719e-02  -1.118887e-01  0 
 -7.673367e-02  -1.153845e-01  0 
 -7.748743e-02  -1.235455e-01  0 
 -4.521518e-02  -9.810062e-02  0 
 -4.536831e-02  -1.015465e-01  0 
 -4.551072e-02  -1.050271e-01  0 
 -4.567006e-02  -1.084784e-01  0 
 -4.587046e-02  -1.118741e-01  0 
 -4.616523e-02  -1.151489e-01  0 
 -7.323746e-02  -1.188861e-01  0 
 -6.974163e-02  -1.188687e-01  0 
 -6.625535e-02  -1.188430e-01  0 
 -6.277871e-02  -1.188042e-01  0 
 -5.931878e-02  -1.187431e-01  0 
 -5.589094e-02  -1.186476e-01  0 
 -5.252590e-02  -1.184994e-01  0 
 -4.930130e-02  -1.182656e-01  0 
 -4.456146e-02  -1.176569e-01  0 
 -4.199386e-02  -1.174291e-01  0 
 -4.709831e-02  -1.201673e-01  0 
 -4.740549e-02  -1.228733e-01  0 
 -6.629275e-02  -9.799510e-02  0 
 -6.288500e-02  -9.796125e-02  0 
 -5.942646e-02  -9.795598e-02  0 
 -5.591921e-02  -9.797355e-02  0 
 -5.233928e-02  -9.801105e-02  0 
 -4.874202e-02  -9.805978e-02  0 
 -7.321488e-02  -1.014698e-01  0 
 -6.976300e-02  -1.014473e-01  0 
 -6.628068e-02  -1.014519e-01  0 
 -6.285415e-02  -1.014602e-01  0 
 -5.939036e-02  -1.014878e-01  0 
 -5.589481e-02  -1.015301e-01  0 
 -5.237326e-02  -1.015688e-01  0 
 -4.885204e-02  -1.015779e-01  0 
 -7.321775e-02  -1.049231e-01  0 
 -6.975209e-02  -1.049275e-01  0 
 -6.628315e-02  -1.049294e-01  0 
 -6.281951e-02  -1.049452e-01  0 
 -5.935580e-02  -1.049830e-01  0 
 -5.588837e-02  -1.050276e-01  0 
 -5.242401e-02  -1.050589e-01  0 
 -4.896758e-02  -1.050572e-01  0 
 -7.322094e-02  -1.083992e-01  0 
 -6.974401e-02  -1.084005e-01  0 
 -6.626734e-02  -1.084059e-01  0 
 -6.279243e-02  -1.084185e-01  0 
 -5.932770e-02  -1.084424e-01  0 
 -5.588513e-02  -1.084755e-01  0 
 -5.247234e-02  -1.085047e-01  0 
 -4.907662e-02  -1.085090e-01  0 
 -7.322673e-02  -1.118847e-01  0 
 -6.973851e-02  -1.118824e-01  0 
 -6.625356e-02  -1.118806e-01  0 
 -6.277429e-02  -1.118785e-01  0 
 -5.930923e-02  -1.118769e-01  0 
 -5.587535e-02  -1.118795e-01  0 
 -5.249883e-02  -1.118947e-01  0 
 -4.918415e-02  -1.119082e-01  0 
 -7.323253e-02  -1.153797e-01  0 
 -6.973749e-02  -1.153721e-01  0 
 -6.624959e-02  -1.153584e-01  0 
 -6.276987e-02  -1.153365e-01  0 
 -5.930533e-02  -1.153037e-01  0 
 -5.587156e-02  -1.152586e-01  0 
 -5.249891e-02  -1.152085e-01  0 
 -4.926483e-02  -1.151884e-01  0 
 -4.209779e-02  -9.792276e-02  0 
 -3.854113e-02  -9.733695e-02  0 
 -4.235538e-02  -1.016824e-01  0 
 -3.896196e-02  -1.015848e-01  0 
 -4.256187e-02  -1.053186e-01  0 
 -3.948027e-02  -1.053191e-01  0 
 -4.285280e-02  -1.087941e-01  0 
 -3.991512e-02  -1.088174e-01  0 
 -4.322782e-02  -1.120951e-01  0 
 -4.062457e-02  -1.119997e-01  0 
 -4.375581e-02  -1.150589e-01  0 
 -4.147395e-02  -1.148469e-01  0 
 -7.332957e-02  -1.232149e-01  0 
 -6.987287e-02  -1.230604e-01  0 
 -6.637122e-02  -1.229050e-01  0 
 -6.275915e-02  -1.228398e-01  0 
 -5.927909e-02  -1.226850e-01  0 
 -5.585797e-02  -1.223688e-01  0 
 -5.257909e-02  -1.219146e-01  0 
 -4.959155e-02  -1.212374e-01  0 
 -6.273762e-02  -1.267221e-01  0 
 -5.936791e-02  -1.264580e-01  0 
 -5.605892e-02  -1.259149e-01  0 
 -5.279371e-02  -1.250820e-01  0 
 -5.004687e-02  -1.239851e-01  0 
 -4.460262e-02  -1.201065e-01  0 
 -4.202665e-02  -1.200468e-01  0 
 -4.469331e-02  -1.227711e-01  0 
 -4.199983e-02  -1.227357e-01  0 
VECTORS displacement_ITER6 FLOAT
 -7.637400e-02  -1.176949e-01  0 
 -4.575931e-02  -1.166730e-01  0 
 -7.628545e-02  -9.993062e-02  0 
 -7.629354e-02  -1.034901e-01  0 
 -7.630563e-02  -1.070279e-01  0 
 -7.632547e-02  -1.105676e-01  0 
 -7.634941e-02  -1.141197e-01  0 
 -7.756593e-02  -1.229027e-01  0 
 -4.423519e-02  -9.649953e-02  0 
 -4.443249e-02  -1.000500e-01  0 
 -4.460720e-02  -1.035996e-01  0 
 -4.478430e-02  -1.071040e-01  0 
 -4.499351e-02  -1.105451e-01  0 
 -4.529503e-02  -1.138577e-01  0 
 -7.279729e-02  -1.176805e-01  0 
 -6.924297e-02  -1.176586e-01  0 
 -6.569914e-02  -1.176305e-01  0 
 -6.216469e-02  -1.175896e-01  0 
 -5.864624e-02  -1.175260e-01  0 
 -5.515989e-02  -1.174257e-01  0 
 -5.173878e-02  -1.172671e-01  0 
 -4.846465e-02  -1.170146e-01  0 
 -4.375469e-02  -1.163289e-01  0 
 -4.125923e-02  -1.160606e-01  0 
 -4.622110e-02  -1.187977e-01  0 
 -4.647418e-02  -1.213756e-01  0 
 -6.578077e-02  -9.642813e-02  0 
 -6.226198e-02  -9.640316e-02  0 
 -5.876842e-02  -9.641820e-02  0 
 -5.523449e-02  -9.642756e-02  0 
 -5.158822e-02  -9.641785e-02  0 
 -4.789551e-02  -9.645129e-02  0 
 -7.273351e-02  -9.994312e-02  0 
 -6.922412e-02  -9.997633e-02  0 
 -6.572699e-02  -9.997589e-02  0 
 -6.224481e-02  -9.997177e-02  0 
 -5.873130e-02  -9.998747e-02  0 
 -5.519614e-02  -1.000271e-01  0 
 -5.161397e-02  -1.000678e-01  0 
 -4.800543e-02  -1.000801e-01  0 
 -7.275083e-02  -1.034864e-01  0 
 -6.922723e-02  -1.034843e-01  0 
 -6.572035e-02  -1.034897e-01  0 
 -6.221166e-02  -1.035058e-01  0 
 -5.869656e-02  -1.035391e-01  0 
 -5.517537e-02  -1.035849e-01  0 
 -5.165075e-02  -1.036247e-01  0 
 -4.812701e-02  -1.036302e-01  0 
 -7.276723e-02  -1.070214e-01  0 
 -6.923209e-02  -1.070152e-01  0 
 -6.570377e-02  -1.070166e-01  0 
 -6.217986e-02  -1.070295e-01  0 
 -5.866222e-02  -1.070545e-01  0 
 -5.516248e-02  -1.070907e-01  0 
 -5.169161e-02  -1.071258e-01  0 
 -4.824034e-02  -1.071347e-01  0 
 -7.277925e-02  -1.105612e-01  0 
 -6.923386e-02  -1.105549e-01  0 
 -6.569292e-02  -1.105492e-01  0 
 -6.215889e-02  -1.105454e-01  0 
 -5.863799e-02  -1.105443e-01  0 
 -5.514646e-02  -1.105481e-01  0 
 -5.171355e-02  -1.105644e-01  0 
 -4.834940e-02  -1.105796e-01  0 
 -7.278912e-02  -1.141129e-01  0 
 -6.923631e-02  -1.141030e-01  0 
 -6.569143e-02  -1.140864e-01  0 
 -6.215443e-02  -1.140622e-01  0 
 -5.863203e-02  -1.140276e-01  0 
 -5.514005e-02  -1.139800e-01  0 
 -5.171106e-02  -1.139251e-01  0 
 -4.842706e-02  -1.138985e-01  0 
 -4.199483e-02  -9.834385e-02  0 
 -4.040882e-02  -9.906493e-02  0 
 -4.204497e-02  -1.008895e-01  0 
 -3.997941e-02  -1.012754e-01  0 
 -4.220077e-02  -1.041921e-01  0 
 -3.987603e-02  -1.047365e-01  0 
 -4.235319e-02  -1.076013e-01  0 
 -3.993663e-02  -1.079179e-01  0 
 -4.261322e-02  -1.108475e-01  0 
 -4.039771e-02  -1.109645e-01  0 
 -4.302628e-02  -1.137490e-01  0 
 -4.102003e-02  -1.136576e-01  0 
 -7.320922e-02  -1.222896e-01  0 
 -6.951613e-02  -1.220840e-01  0 
 -6.588769e-02  -1.219291e-01  0 
 -6.228391e-02  -1.218907e-01  0 
 -5.863150e-02  -1.217926e-01  0 
 -5.507939e-02  -1.214793e-01  0 
 -5.171425e-02  -1.209369e-01  0 
 -4.862364e-02  -1.200876e-01  0 
 -6.266957e-02  -1.266342e-01  0 
 -5.874301e-02  -1.261315e-01  0 
 -5.522914e-02  -1.254077e-01  0 
 -5.196735e-02  -1.244923e-01  0 
 -4.908141e-02  -1.231471e-01  0 
 -4.381078e-02  -1.187218e-01  0 
 -4.127372e-02  -1.186309e-01  0 
 -4.391031e-02  -1.213397e-01  0 
 -4.123554e-02  -1.213389e-01  0 
VECTORS displacement_ITER7 FLOAT
 -7.582275e-02  -1.173392e-01  0 
 -4.584088e-02  -1.164098e-01  0 
 -7.575034e-02  -9.997137e-02  0 
 -7.576985e-02  -1.034218e-01  0 
 -7.578489e-02  -1.068871e-01  0 
 -7.579725e-02  -1.103615e-01  0 
 -7.581022e-02  -1.138439e-01  0 
 -7.620848e-02  -1.215651e-01  0 
 -4.435231e-02  -9.652382e-02  0 
 -4.453016e-02  -1.000394e-01  0 
 -4.469042e-02  -1.035251e-01  0 
 -4.485939e-02  -1.069684e-01  0 
 -4.506581e-02  -1.103518e-01  0 
 -4.536665e-02  -1.136132e-01  0 
 -7.232801e-02  -1.173304e-01  0 
 -6.884546e-02  -1.173143e-01  0 
 -6.536958e-02  -1.172900e-01  0 
 -6.190331e-02  -1.172516e-01  0 
 -5.845563e-02  -1.171901e-01  0 
 -5.504151e-02  -1.170940e-01  0 
 -5.169170e-02  -1.169455e-01  0 
 -4.848564e-02  -1.167118e-01  0 
 -4.387296e-02  -1.161063e-01  0 
 -4.138026e-02  -1.158636e-01  0 
 -4.631407e-02  -1.185314e-01  0 
 -4.661775e-02  -1.210675e-01  0 
 -6.541895e-02  -9.650231e-02  0 
 -6.199609e-02  -9.649452e-02  0 
 -5.854581e-02  -9.650480e-02  0 
 -5.506076e-02  -9.651095e-02  0 
 -5.150499e-02  -9.652469e-02  0 
 -4.792134e-02  -9.654032e-02  0 
 -7.230383e-02  -9.995979e-02  0 
 -6.885931e-02  -9.994996e-02  0 
 -6.541146e-02  -9.995821e-02  0 
 -6.197237e-02  -9.997631e-02  0 
 -5.852084e-02  -1.000042e-01  0 
 -5.504677e-02  -1.000408e-01  0 
 -5.154486e-02  -1.000696e-01  0 
 -4.803150e-02  -1.000708e-01  0 
 -7.231240e-02  -1.034178e-01  0 
 -6.885393e-02  -1.034183e-01  0 
 -6.539704e-02  -1.034260e-01  0 
 -6.194422e-02  -1.034465e-01  0 
 -5.849344e-02  -1.034816e-01  0 
 -5.504326e-02  -1.035233e-01  0 
 -5.159377e-02  -1.035538e-01  0 
 -4.814393e-02  -1.035547e-01  0 
 -7.231543e-02  -1.068845e-01  0 
 -6.884691e-02  -1.068851e-01  0 
 -6.538009e-02  -1.068905e-01  0 
 -6.191826e-02  -1.069038e-01  0 
 -5.846795e-02  -1.069276e-01  0 
 -5.503977e-02  -1.069608e-01  0 
 -5.163976e-02  -1.069921e-01  0 
 -4.825474e-02  -1.069987e-01  0 
 -7.231894e-02  -1.103582e-01  0 
 -6.884172e-02  -1.103555e-01  0 
 -6.536770e-02  -1.103528e-01  0 
 -6.190058e-02  -1.103503e-01  0 
 -5.844881e-02  -1.103494e-01  0 
 -5.502855e-02  -1.103536e-01  0 
 -5.166599e-02  -1.103713e-01  0 
 -4.836535e-02  -1.103863e-01  0 
 -7.232329e-02  -1.138396e-01  0 
 -6.884098e-02  -1.138317e-01  0 
 -6.536433e-02  -1.138176e-01  0 
 -6.189577e-02  -1.137958e-01  0 
 -5.844347e-02  -1.137636e-01  0 
 -5.502318e-02  -1.137195e-01  0 
 -5.166555e-02  -1.136710e-01  0 
 -4.844952e-02  -1.136535e-01  0 
 -4.125286e-02  -9.632134e-02  0 
 -3.773781e-02  -9.570679e-02  0 
 -4.171523e-02  -1.003068e-01  0 
 -3.847595e-02  -1.003045e-01  0 
 -4.199589e-02  -1.040017e-01  0 
 -3.924594e-02  -1.041950e-01  0 
 -4.230405e-02  -1.074301e-01  0 
 -3.977333e-02  -1.076062e-01  0 
 -4.266168e-02  -1.106477e-01  0 
 -4.043140e-02  -1.106765e-01  0 
 -4.312500e-02  -1.135250e-01  0 
 -4.112726e-02  -1.134312e-01  0 
 -7.253319e-02  -1.214304e-01  0 
 -6.899948e-02  -1.213762e-01  0 
 -6.532877e-02  -1.213480e-01  0 
 -6.174434e-02  -1.212647e-01  0 
 -5.830466e-02  -1.210443e-01  0 
 -5.492391e-02  -1.207448e-01  0 
 -5.164980e-02  -1.203203e-01  0 
 -4.868353e-02  -1.196444e-01  0 
 -6.134165e-02  -1.246281e-01  0 
 -5.823898e-02  -1.245837e-01  0 
 -5.497597e-02  -1.242417e-01  0 
 -5.175396e-02  -1.234843e-01  0 
 -4.901788e-02  -1.223973e-01  0 
 -4.392136e-02  -1.184723e-01  0 
 -4.140097e-02  -1.184329e-01  0 
 -4.398990e-02  -1.210759e-01  0 
 -4.137537e-02  -1.210885e-01  0 
VECTORS displacement_ITER8 FLOAT
 -7.541864e-02  -1.168399e-01  0 
 -4.572709e-02  -1.158971e-01  0 
 -7.532479e-02  -9.964323e-02  0 
 -7.535318e-02  -1.030505e-01  0 
 -7.537333e-02  -1.064807e-01  0 
 -7.538823e-02  -1.099229e-01  0 
 -7.540332e-02  -1.133741e-01  0 
 -7.612954e-02  -1.212069e-01  0 
 -4.426666e-02  -9.623068e-02  0 
 -4.443405e-02  -9.970036e-02  0 
 -4.458629e-02  -1.031467e-01  0 
 -4.475035e-02  -1.065547e-01  0 
 -4.495462e-02  -1.099050e-01  0 
 -4.525451e-02  -1.131338e-01  0 
 -7.195251e-02  -1.168299e-01  0 
 -6.850037e-02  -1.168129e-01  0 
 -6.505693e-02  -1.167870e-01  0 
 -6.162431e-02  -1.167466e-01  0 
 -5.821057e-02  -1.166831e-01  0 
 -5.483036e-02  -1.165853e-01  0 
 -5.151417e-02  -1.164354e-01  0 
 -4.834094e-02  -1.162006e-01  0 
 -4.376778e-02  -1.155936e-01  0 
 -4.127810e-02  -1.153540e-01  0 
 -4.620022e-02  -1.180076e-01  0 
 -4.650726e-02  -1.205612e-01  0 
 -6.510557e-02  -9.619734e-02  0 
 -6.171475e-02  -9.619102e-02  0 
 -5.828967e-02  -9.619827e-02  0 
 -5.483173e-02  -9.620961e-02  0 
 -5.131901e-02  -9.623391e-02  0 
 -4.778300e-02  -9.624924e-02  0 
 -7.192771e-02  -9.962969e-02  0 
 -6.851971e-02  -9.961008e-02  0 
 -6.510228e-02  -9.961742e-02  0 
 -6.169029e-02  -9.963858e-02  0 
 -5.826747e-02  -9.966829e-02  0 
 -5.482410e-02  -9.970434e-02  0 
 -5.136079e-02  -9.973173e-02  0 
 -4.789178e-02  -9.973221e-02  0 
 -7.193497e-02  -1.030455e-01  0 
 -6.851219e-02  -1.030471e-01  0 
 -6.508555e-02  -1.030553e-01  0 
 -6.166235e-02  -1.030762e-01  0 