# vtk DataFile Version 3.1
this is an vtk file created by FEMAC
ASCII
DATASET UNSTRUCTURED_GRID
POINTS 103 FLOAT
2.000000 4.111111 0.000000
2.000000 4.222222 0.000000
2.000000 4.333333 0.000000
2.000000 4.444444 0.000000
2.000000 4.555556 0.000000
2.000000 4.666667 0.000000
2.000000 4.777778 0.000000
2.444444 4.000000 0.000000
2.555556 4.000000 0.000000
2.666667 4.000000 0.000000
2.777778 4.000000 0.000000
1.444444 4.111111 0.000000
1.444444 4.222222 0.000000
1.444444 4.333333 0.000000
1.444444 4.444444 0.000000
1.444444 4.555556 0.000000
1.444444 4.666667 0.000000
1.555556 4.111111 0.000000
1.555556 4.222222 0.000000
1.555556 4.333333 0.000000
1.555556 4.444444 0.000000
1.555556 4.555556 0.000000
1.555556 4.666667 0.000000
1.555556 4.777778 0.000000
1.666667 4.111111 0.000000
1.666667 4.222222 0.000000
1.666667 4.333333 0.000000
1.666667 4.444444 0.000000
1.666667 4.555556 0.000000
1.666667 4.666667 0.000000
1.666667 4.777778 0.000000
1.777778 4.111111 0.000000
1.777778 4.222222 0.000000
1.777778 4.333333 0.000000
1.777778 4.444444 0.000000
1.777778 4.555556 0.000000
1.777778 4.666667 0.000000
1.777778 4.777778 0.000000
1.888889 4.111111 0.000000
1.888889 4.222222 0.000000
1.888889 4.333333 0.000000
1.888889 4.444444 0.000000
1.888889 4.555556 0.000000
1.888889 4.666667 0.000000
1.888889 4.777778 0.000000
2.111111 4.111111 0.000000
2.111111 4.222222 0.000000
2.111111 4.333333 0.000000
2.111111 4.444444 0.000000
2.111111 4.555556 0.000000
2.111111 4.666667 0.000000
2.111111 4.777778 0.000000
2.111111 4.888889 0.000000
2.222222 4.111111 0.000000
2.222222 4.222222 0.000000
2.222222 4.333333 0.000000
2.222222 4.444444 0.000000
2.222222 4.555556 0.000000
2.222222 4.666667 0.000000
2.222222 4.777778 0.000000
2.222222 4.888889 0.000000
2.333333 4.111111 0.000000
2.333333 4.222222 0.000000
2.333333 4.333333 0.000000
2.333333 4.444444 0.000000
2.333333 4.555556 0.000000
2.333333 4.666667 0.000000
2.333333 4.777778 0.000000
2.333333 4.888889 0.000000
2.444444 4.111111 0.000000
2.444444 4.222222 0.000000
2.444444 4.333333 0.000000
2.444444 4.444444 0.000000
2.444444 4.555556 0.000000
2.444444 4.666667 0.000000
2.444444 4.777778 0.000000
2.444444 4.888889 0.000000
2.555556 4.111111 0.000000
2.555556 4.222222 0.000000
2.555556 4.333333 0.000000
2.555556 4.444444 0.000000
2.555556 4.555556 0.000000
2.555556 4.666667 0.000000
2.555556 4.777778 0.000000
2.555556 4.888889 0.000000
2.666667 4.111111 0.000000
2.666667 4.222222 0.000000
2.666667 4.333333 0.000000
2.666667 4.444444 0.000000
2.666667 4.555556 0.000000
2.666667 4.666667 0.000000
2.666667 4.777778 0.000000
2.666667 4.888889 0.000000
2.777778 4.111111 0.000000
2.777778 4.222222 0.000000
2.777778 4.333333 0.000000
2.777778 4.444444 0.000000
2.777778 4.555556 0.000000
2.777778 4.666667 0.000000
2.777778 4.777778 0.000000
2.777778 4.888889 0.000000
2.888889 4.777778 0.000000
2.888889 4.888889 0.000000
CELLS 81 405 
4 11 17 18 12
4 12 18 19 13
4 13 19 20 14
4 14 20 21 15
4 15 21 22 16
4 17 24 25 18
4 18 25 26 19
4 19 26 27 20
4 20 27 28 21
4 21 28 29 22
4 22 29 30 23
4 24 31 32 25
4 25 32 33 26
4 26 33 34 27
4 27 34 35 28
4 28 35 36 29
4 29 36 37 30
4 31 38 39 32
4 32 39 40 33
4 33 40 41 34
4 34 41 42 35
4 35 42 43 36
4 36 43 44 37
4 38  0  1 39
4 39  1  2 40
4 40  2  3 41
4 41  3  4 42
4 42  4  5 43
4 43  5  6 44
4 0 45 46  1
4 1 46 47  2
4 2 47 48  3
4 3 48 49  4
4 4 49 50  5
4 5 50 51  6
4 45 53 54 46
4 46 54 55 47
4 47 55 56 48
4 48 56 57 49
4 49 57 58 50
4 50 58 59 51
4 51 59 60 52
4 53 61 62 54
4 54 62 63 55
4 55 63 64 56
4 56 64 65 57
4 57 65 66 58
4 58 66 67 59
4 59 67 68 60
4 61 69 70 62
4 62 70 71 63
4 63 71 72 64
4 64 72 73 65
4 65 73 74 66
4 66 74 75 67
4 67 75 76 68
4 7  8 77 69
4 69 77 78 70
4 70 78 79 71
4 71 79 80 72
4 72 80 81 73
4 73 81 82 74
4 74 82 83 75
4 75 83 84 76
4 8  9 85 77
4 77 85 86 78
4 78 86 87 79
4 79 87 88 80
4 80 88 89 81
4 81 89 90 82
4 82 90 91 83
4 83 91 92 84
4 9 10 93 85
4 85 93 94 86
4 86 94 95 87
4 87 95 96 88
4 88 96 97 89
4 89 97 98 90
4 90 98 99 91
4 91  99 100  92
4 99 101 102 100
CELL_TYPES 81
9 9 9 9 9 9 9 9 9 9 9 9 9 9 9 9 9 9 9 9 9 9 9 9 9 9 9 9 9 9 9 9 9 9 9 9 9 9 9 9 9 9 9 9 9 9 9 9 9 9 9 9 9 9 9 9 9 9 9 9 9 9 9 9 9 9 9 9 9 9 9 9 9 9 9 9 9 9 9 9 9 
POINT_DATA 103
VECTORS displacement_ITER1 FLOAT
 1.973536e-02  -4.271788e-02  0 
 2.469608e-02  -4.458126e-02  0 
 2.838045e-02  -4.598996e-02  0 
 3.152832e-02  -4.702935e-02  0 
 3.436888e-02  -4.787014e-02  0 
 3.695399e-02  -4.856555e-02  0 
 3.924968e-02  -4.909687e-02  0 
 1.908466e-02  -6.017904e-02  0 
 1.898306e-02  -6.349782e-02  0 
 1.913303e-02  -6.700433e-02  0 
 1.978098e-02  -6.993841e-02  0 
 5.526725e-03  -1.677261e-02  0 
 1.541273e-02  -2.822132e-02  0 
 1.578267e-02  -3.436663e-02  0 
 1.313607e-02  -3.683573e-02  0 
 1.191575e-02  -3.311109e-02  0 
 1.718195e-02  -2.408751e-02  0 
 1.251864e-02  -3.267390e-02  0 
 1.773746e-02  -3.336127e-02  0 
 1.800034e-02  -3.469494e-02  0 
 1.603007e-02  -3.596399e-02  0 
 1.462350e-02  -3.717887e-02  0 
 1.602191e-02  -3.946936e-02  0 
 1.898048e-02  -3.794492e-02  0 
 1.879513e-02  -3.632733e-02  0 
 1.895293e-02  -3.680151e-02  0 
 1.978670e-02  -3.682240e-02  0 
 1.974231e-02  -3.808567e-02  0 
 1.975284e-02  -4.081914e-02  0 
 1.995126e-02  -4.408412e-02  0 
 2.269545e-02  -4.800451e-02  0 
 2.158156e-02  -3.711486e-02  0 
 2.102574e-02  -3.825478e-02  0 
 2.218715e-02  -3.925522e-02  0 
 2.380322e-02  -4.082991e-02  0 
 2.505507e-02  -4.338920e-02  0 
 2.559507e-02  -4.749925e-02  0 
 2.439037e-02  -5.216169e-02  0 
 2.194961e-02  -3.906720e-02  0 
 2.288086e-02  -4.022866e-02  0 
 2.529647e-02  -4.205571e-02  0 
 2.783789e-02  -4.373809e-02  0 
 3.016224e-02  -4.556952e-02  0 
 3.167137e-02  -4.786564e-02  0 
 2.930730e-02  -5.204992e-02  0 
 2.055692e-02  -4.820759e-02  0 
 2.503491e-02  -4.888168e-02  0 
 2.863580e-02  -4.949492e-02  0 
 3.176510e-02  -5.010673e-02  0 
 3.459074e-02  -5.064473e-02  0 
 3.715871e-02  -5.110543e-02  0 
 3.961497e-02  -5.155445e-02  0 
 4.120796e-02  -5.164493e-02  0 
 2.147049e-02  -5.271907e-02  0 
 2.517102e-02  -5.288981e-02  0 
 2.870768e-02  -5.308024e-02  0 
 3.186162e-02  -5.331073e-02  0 
 3.471536e-02  -5.354891e-02  0 
 3.733099e-02  -5.376119e-02  0 
 3.959642e-02  -5.386142e-02  0 
 4.160129e-02  -5.402591e-02  0 
 2.175651e-02  -5.643249e-02  0 
 2.535297e-02  -5.655631e-02  0 
 2.872428e-02  -5.656654e-02  0 
 3.186828e-02  -5.656406e-02  0 
 3.475363e-02  -5.655950e-02  0 
 3.738173e-02  -5.650676e-02  0 
 3.977962e-02  -5.640877e-02  0 
 4.174730e-02  -5.624836e-02  0 
 2.205748e-02  -6.026671e-02  0 
 2.547324e-02  -6.005688e-02  0 
 2.876870e-02  -5.993906e-02  0 
 3.187177e-02  -5.981604e-02  0 
 3.474439e-02  -5.965569e-02  0 
 3.741587e-02  -5.944147e-02  0 
 3.992282e-02  -5.919568e-02  0 
 4.249355e-02  -5.909373e-02  0 
 2.231000e-02  -6.349116e-02  0 
 2.558415e-02  -6.344957e-02  0 
 2.886181e-02  -6.327241e-02  0 
 3.193281e-02  -6.305767e-02  0 
 3.476329e-02  -6.280697e-02  0 
 3.742956e-02  -6.252804e-02  0 
 4.011244e-02  -6.224462e-02  0 
 4.291123e-02  -6.213315e-02  0 
 2.242517e-02  -6.697485e-02  0 
 2.577275e-02  -6.686944e-02  0 
 2.898763e-02  -6.667307e-02  0 
 3.204926e-02  -6.625748e-02  0 
 3.486374e-02  -6.594174e-02  0 
 3.742829e-02  -6.561024e-02  0 
 4.012128e-02  -6.538984e-02  0 
 4.327404e-02  -6.519455e-02  0 
 2.258361e-02  -7.059738e-02  0 
 2.596307e-02  -7.068672e-02  0 
 2.904378e-02  -6.998016e-02  0 
 3.214150e-02  -6.971946e-02  0 
 3.496922e-02  -6.870748e-02  0 
 3.740266e-02  -6.844374e-02  0 
 4.007730e-02  -6.840839e-02  0 
 4.329680e-02  -6.883167e-02  0 
 4.031000e-02  -7.187946e-02  0 
 4.342796e-02  -7.171019e-02  0 
VECTORS displacement_ITER2 FLOAT
 2.578125e-02  -3.735400e-02  0 
 2.977029e-02  -3.936807e-02  0 
 3.240209e-02  -4.082573e-02  0 
 3.448903e-02  -4.186324e-02  0 
 3.627801e-02  -4.267684e-02  0 
 3.784852e-02  -4.332376e-02  0 
 3.941022e-02  -4.377701e-02  0 
 2.686421e-02  -5.077781e-02  0 
 2.678833e-02  -5.271187e-02  0 
 2.696585e-02  -5.480767e-02  0 
 2.750100e-02  -5.659992e-02  0 
 -6.256479e-03  -4.172559e-03  0 
 1.036746e-02  -1.625504e-02  0 
 1.573586e-02  -2.408528e-02  0 
 1.733612e-02  -2.919198e-02  0 
 1.907558e-02  -2.934206e-02  0 
 2.431851e-02  -2.565553e-02  0 
 3.242454e-03  -2.370522e-02  0 
 1.383713e-02  -2.565818e-02  0 
 1.887123e-02  -2.813038e-02  0 
 2.071221e-02  -3.070676e-02  0 
 2.195715e-02  -3.303378e-02  0 
 2.453812e-02  -3.554478e-02  0 
 2.863945e-02  -3.395488e-02  0 
 1.233136e-02  -3.018729e-02  0 
 1.693164e-02  -3.184850e-02  0 
 2.132484e-02  -3.264278e-02  0 
 2.401600e-02  -3.415584e-02  0 
 2.585893e-02  -3.648886e-02  0 
 2.721027e-02  -3.882625e-02  0 
 2.949442e-02  -4.105522e-02  0 
 1.873289e-02  -3.270058e-02  0 
 2.114085e-02  -3.477868e-02  0 
 2.439369e-02  -3.612961e-02  0 
 2.736858e-02  -3.744660e-02  0 
 2.948170e-02  -3.912358e-02  0 
 3.070365e-02  -4.141055e-02  0 
 3.034654e-02  -4.376054e-02  0 
 2.329494e-02  -3.485308e-02  0 
 2.542616e-02  -3.678380e-02  0 
 2.828502e-02  -3.865359e-02  0 
 3.087539e-02  -3.999955e-02  0 
 3.298618e-02  -4.115217e-02  0 
 3.435588e-02  -4.232451e-02  0 
 3.366536e-02  -4.423408e-02  0 
 2.669211e-02  -4.195306e-02  0 
 3.013908e-02  -4.264494e-02  0 
 3.266806e-02  -4.326957e-02  0 
 3.472283e-02  -4.387715e-02  0 
 3.649272e-02  -4.440968e-02  0 
 3.805203e-02  -4.490002e-02  0 
 3.949342e-02  -4.539115e-02  0 
 3.965802e-02  -4.567236e-02  0 
 2.765381e-02  -4.546554e-02  0 
 3.028305e-02  -4.562982e-02  0 
 3.273124e-02  -4.580504e-02  0 
 3.480296e-02  -4.601671e-02  0 
 3.660710e-02  -4.624864e-02  0 
 3.819290e-02  -4.646854e-02  0 
 3.938634e-02  -4.658067e-02  0 
 4.023717e-02  -4.681126e-02  0 
 2.799940e-02  -4.811590e-02  0 
 3.047619e-02  -4.823698e-02  0 
 3.271246e-02  -4.821954e-02  0 
 3.476157e-02  -4.819105e-02  0 
 3.659622e-02  -4.816490e-02  0 
 3.820285e-02  -4.809935e-02  0 
 3.958523e-02  -4.802566e-02  0 
 4.056222e-02  -4.800636e-02  0 
 2.847310e-02  -5.077938e-02  0 
 3.059565e-02  -5.059032e-02  0 
 3.270333e-02  -5.047381e-02  0 
 3.468201e-02  -5.034311e-02  0 
 3.650352e-02  -5.016895e-02  0 
 3.819334e-02  -4.994939e-02  0 
 3.976925e-02  -4.972977e-02  0 
 4.138318e-02  -4.967122e-02  0 
 2.875286e-02  -5.272865e-02  0 
 3.072058e-02  -5.274441e-02  0 
 3.273706e-02  -5.262894e-02  0 
 3.463985e-02  -5.246017e-02  0 
 3.641523e-02  -5.225265e-02  0 
 3.814461e-02  -5.200527e-02  0 
 3.996334e-02  -5.174293e-02  0 
 4.187289e-02  -5.161628e-02  0 
 2.894231e-02  -5.485589e-02  0 
 3.092412e-02  -5.484882e-02  0 
 3.280838e-02  -5.476339e-02  0 
 3.465803e-02  -5.450587e-02  0 
 3.641411e-02  -5.434782e-02  0 
 3.806502e-02  -5.416784e-02  0 
 3.998430e-02  -5.400790e-02  0 
 4.243346e-02  -5.388923e-02  0 
 2.917956e-02  -5.706037e-02  0 
 3.113723e-02  -5.714643e-02  0 
 3.283749e-02  -5.671047e-02  0 
 3.470613e-02  -5.673684e-02  0 
 3.648230e-02  -5.615474e-02  0 
 3.802462e-02  -5.618592e-02  0 
 3.994680e-02  -5.647668e-02  0 
 4.270957e-02  -5.690131e-02  0 
 4.015579e-02  -5.976440e-02  0 
 4.289181e-02  -5.952032e-02  0 
VECTORS displacement_ITER3 FLOAT
 2.233400e-02  -3.754433e-02  0 
 2.571937e-02  -3.906176e-02  0 
 2.832163e-02  -4.015666e-02  0 
 3.056912e-02  -4.099001e-02  0 
 3.257731e-02  -4.169068e-02  0 
 3.437399e-02  -4.230856e-02  0 
 3.599210e-02  -4.285927e-02  0 
 2.201486e-02  -5.051436e-02  0 
 2.208941e-02  -5.257939e-02  0 
 2.237331e-02  -5.478503e-02  0 
 2.286935e-02  -5.669854e-02  0 
 5.862918e-03  -1.252712e-02  0 
 1.350021e-02  -1.950631e-02  0 
 1.584831e-02  -2.413571e-02  0 
 1.664005e-02  -2.742478e-02  0 
 1.752297e-02  -2.808251e-02  0 
 1.958668e-02  -2.601376e-02  0 
 1.038445e-02  -2.292291e-02  0 
 1.557936e-02  -2.463398e-02  0 
 1.814736e-02  -2.684270e-02  0 
 1.923608e-02  -2.906658e-02  0 
 1.991222e-02  -3.101130e-02  0 
 2.154884e-02  -3.343095e-02  0 
 2.385981e-02  -3.407267e-02  0 
 1.473446e-02  -2.672519e-02  0 
 1.744483e-02  -2.863095e-02  0 
 2.021323e-02  -3.014940e-02  0 
 2.203079e-02  -3.198631e-02  0 
 2.339761e-02  -3.426337e-02  0 
 2.456736e-02  -3.658699e-02  0 
 2.643627e-02  -3.885167e-02  0 
 1.763221e-02  -2.922249e-02  0 
 2.006802e-02  -3.157031e-02  0 
 2.272159e-02  -3.347368e-02  0 
 2.499842e-02  -3.516225e-02  0 
 2.673923e-02  -3.701853e-02  0 
 2.792109e-02  -3.930147e-02  0 
 2.828599e-02  -4.163202e-02  0 
 1.987537e-02  -3.253904e-02  0 
 2.298570e-02  -3.495405e-02  0 
 2.560458e-02  -3.676615e-02  0 
 2.790307e-02  -3.816631e-02  0 
 2.986828e-02  -3.945374e-02  0 
 3.133215e-02  -4.082704e-02  0 
 3.122141e-02  -4.284348e-02  0 
 2.283848e-02  -4.152424e-02  0 
 2.598503e-02  -4.210346e-02  0 
 2.853532e-02  -4.266204e-02  0 
 3.076059e-02  -4.317771e-02  0 
 3.275807e-02  -4.362924e-02  0 
 3.454624e-02  -4.404129e-02  0 
 3.615972e-02  -4.442929e-02  0 
 3.668431e-02  -4.478607e-02  0 
 2.324871e-02  -4.493744e-02  0 
 2.605879e-02  -4.507712e-02  0 
 2.859068e-02  -4.526141e-02  0 
 3.082344e-02  -4.545761e-02  0 
 3.284008e-02  -4.564332e-02  0 
 3.465517e-02  -4.580137e-02  0 
 3.613076e-02  -4.587835e-02  0 
 3.723354e-02  -4.603405e-02  0 
 2.345499e-02  -4.779250e-02  0 
 2.613713e-02  -4.784620e-02  0 
 2.854818e-02  -4.781721e-02  0 
 3.077027e-02  -4.778693e-02  0 
 3.281409e-02  -4.774488e-02  0 
 3.467177e-02  -4.766281e-02  0 
 3.633284e-02  -4.757378e-02  0 
 3.769453e-02  -4.755956e-02  0 
 2.385604e-02  -5.052466e-02  0 
 2.619897e-02  -5.038303e-02  0 
 2.849168e-02  -5.026588e-02  0 
 3.066373e-02  -5.013097e-02  0 
 3.271424e-02  -4.995654e-02  0 
 3.467350e-02  -4.974816e-02  0 
 3.656073e-02  -4.956081e-02  0 
 3.846992e-02  -4.952674e-02  0 
 2.419403e-02  -5.265507e-02  0 
 2.631504e-02  -5.269997e-02  0 
 2.848281e-02  -5.261568e-02  0 
 3.057442e-02  -5.246640e-02  0 
 3.260327e-02  -5.227430e-02  0 
 3.464682e-02  -5.205489e-02  0 
 3.680392e-02  -5.185706e-02  0 
 3.909003e-02  -5.183143e-02  0 
 2.445599e-02  -5.485942e-02  0 
 2.653371e-02  -5.492134e-02  0 
 2.853868e-02  -5.489661e-02  0 
 3.054011e-02  -5.474685e-02  0 
 3.254205e-02  -5.463660e-02  0 
 3.458966e-02  -5.451920e-02  0 
 3.692453e-02  -5.442343e-02  0 
 3.967828e-02  -5.437590e-02  0 
 2.477032e-02  -5.711034e-02  0 
 2.679323e-02  -5.718275e-02  0 
 2.860535e-02  -5.700962e-02  0 
 3.055714e-02  -5.706245e-02  0 
 3.254388e-02  -5.684238e-02  0 
 3.456209e-02  -5.697979e-02  0 
 3.695287e-02  -5.724765e-02  0 
 4.000621e-02  -5.750774e-02  0 
 3.719294e-02  -6.058626e-02  0 
 4.020706e-02  -6.050004e-02  0 
VECTORS displacement_ITER4 FLOAT
 2.029915e-02  -3.674412e-02  0 
 2.341552e-02  -3.805571e-02  0 
 2.601745e-02  -3.898593e-02  0 
 2.836156e-02  -3.972548e-02  0 
 3.050176e-02  -4.037716e-02  0 
 3.243593e-02  -4.098833e-02  0 
 3.411048e-02  -4.158968e-02  0 
 1.873371e-02  -4.948278e-02  0 
 1.901493e-02  -5.194231e-02  0 
 1.938003e-02  -5.438197e-02  0 
 1.990446e-02  -5.657672e-02  0 
 1.184417e-02  -1.851901e-02  0 
 1.469353e-02  -2.224039e-02  0 
 1.530563e-02  -2.480553e-02  0 
 1.542475e-02  -2.689762e-02  0 
 1.564905e-02  -2.761068e-02  0 
 1.608138e-02  -2.637483e-02  0 
 1.386661e-02  -2.397085e-02  0 
 1.612072e-02  -2.513147e-02  0 
 1.723691e-02  -2.678347e-02  0 
 1.772894e-02  -2.850272e-02  0 
 1.792897e-02  -3.006728e-02  0 
 1.887490e-02  -3.224820e-02  0 
 1.941596e-02  -3.367418e-02  0 
 1.596052e-02  -2.625009e-02  0 
 1.746406e-02  -2.781189e-02  0 
 1.915141e-02  -2.926708e-02  0 
 2.032949e-02  -3.093324e-02  0 
 2.125858e-02  -3.293898e-02  0 
 2.198779e-02  -3.501624e-02  0 
 2.319664e-02  -3.720631e-02  0 
 1.729712e-02  -2.841587e-02  0 
 1.931747e-02  -3.038517e-02  0 
 2.138618e-02  -3.213200e-02  0 
 2.316392e-02  -3.372875e-02  0 
 2.456304e-02  -3.545851e-02  0 
 2.550439e-02  -3.759358e-02  0 
 2.589233e-02  -3.984999e-02  0 
 1.846966e-02  -3.170690e-02  0 
 2.144445e-02  -3.380306e-02  0 
 2.381463e-02  -3.536702e-02  0 
 2.590487e-02  -3.664949e-02  0 
 2.773619e-02  -3.788744e-02  0 
 2.915627e-02  -3.927049e-02  0 
 2.913521e-02  -4.131104e-02  0 
 2.060244e-02  -4.048324e-02  0 
 2.363166e-02  -4.100362e-02  0 
 2.620916e-02  -4.153594e-02  0 
 2.853870e-02  -4.201840e-02  0 
 3.067345e-02  -4.244374e-02  0 
 3.260215e-02  -4.282717e-02  0 
 3.433051e-02  -4.317851e-02  0 
 3.512227e-02  -4.347532e-02  0 
 2.073480e-02  -4.388560e-02  0 
 2.365844e-02  -4.399570e-02  0 
 2.626170e-02  -4.418296e-02  0 
 2.860587e-02  -4.439075e-02  0 
 3.075203e-02  -4.457489e-02  0 
 3.270177e-02  -4.471515e-02  0 
 3.433924e-02  -4.476603e-02  0 
 3.562867e-02  -4.486236e-02  0 
 2.085152e-02  -4.685659e-02  0 
 2.365502e-02  -4.685160e-02  0 
 2.621849e-02  -4.683366e-02  0 
 2.857116e-02  -4.682523e-02  0 
 3.073952e-02  -4.679871e-02  0 
 3.272487e-02  -4.672399e-02  0 
 3.452867e-02  -4.662805e-02  0 
 3.610446e-02  -4.658940e-02  0 
 2.109492e-02  -4.960581e-02  0 
 2.368812e-02  -4.952698e-02  0 
 2.616305e-02  -4.942405e-02  0 
 2.848745e-02  -4.929642e-02  0 
 3.066873e-02  -4.913501e-02  0 
 3.274335e-02  -4.894655e-02  0 
 3.475000e-02  -4.877992e-02  0 
 3.679415e-02  -4.874786e-02  0 
 2.141663e-02  -5.202457e-02  0 
 2.379547e-02  -5.204382e-02  0 
 2.615630e-02  -5.194316e-02  0 
 2.841465e-02  -5.177693e-02  0 
 3.058918e-02  -5.157169e-02  0 
 3.274808e-02  -5.135867e-02  0 
 3.498535e-02  -5.119285e-02  0 
 3.736367e-02  -5.120160e-02  0 
 2.169533e-02  -5.446210e-02  0 
 2.399300e-02  -5.448490e-02  0 
 2.621047e-02  -5.440653e-02  0 
 2.838280e-02  -5.422154e-02  0 
 3.053255e-02  -5.404876e-02  0 
 3.272844e-02  -5.388643e-02  0 
 3.512155e-02  -5.378446e-02  0 
 3.779969e-02  -5.373193e-02  0 
 2.203335e-02  -5.691711e-02  0 
 2.422458e-02  -5.695082e-02  0 
 2.628003e-02  -5.675485e-02  0 
 2.837579e-02  -5.665094e-02  0 
 3.050468e-02  -5.641326e-02  0 
 3.269809e-02  -5.642776e-02  0 
 3.516036e-02  -5.649025e-02  0 
 3.798984e-02  -5.660914e-02  0 
 3.535823e-02  -5.936556e-02  0 
 3.812136e-02  -5.938775e-02  0 
VECTORS displacement_ITER5 FLOAT
 2.168989e-02  -3.550784e-02  0 
 2.468093e-02  -3.688299e-02  0 
 2.710177e-02  -3.783520e-02  0 
 2.925606e-02  -3.857818e-02  0 
 3.120697e-02  -3.922724e-02  0 
 3.295574e-02  -3.982839e-02  0 
 3.457948e-02  -4.038200e-02  0 
 2.012399e-02  -4.745606e-02  0 
 2.055447e-02  -4.987854e-02  0 
 2.099400e-02  -5.215845e-02  0 
 2.154636e-02  -5.434579e-02  0 
 1.055179e-02  -1.827925e-02  0 
 1.278306e-02  -2.040685e-02  0 
 1.418340e-02  -2.221465e-02  0 
 1.548041e-02  -2.453626e-02  0 
 1.665315e-02  -2.623094e-02  0 
 1.744341e-02  -2.650794e-02  0 
 1.251569e-02  -2.240399e-02  0 
 1.481120e-02  -2.368910e-02  0 
 1.667318e-02  -2.541190e-02  0 
 1.816059e-02  -2.724534e-02  0 
 1.918468e-02  -2.902067e-02  0 
 2.048031e-02  -3.125631e-02  0 
 2.037349e-02  -3.316590e-02  0 
 1.480630e-02  -2.508665e-02  0 
 1.698866e-02  -2.679734e-02  0 
 1.915407e-02  -2.842720e-02  0 
 2.091103e-02  -3.011141e-02  0 
 2.233050e-02  -3.195406e-02  0 
 2.328660e-02  -3.372644e-02  0 
 2.411054e-02  -3.550857e-02  0 
 1.705203e-02  -2.782531e-02  0 
 1.947930e-02  -2.976855e-02  0 
 2.179799e-02  -3.146250e-02  0 
 2.380653e-02  -3.298303e-02  0 
 2.539540e-02  -3.447081e-02  0 
 2.645907e-02  -3.613570e-02  0 
 2.703039e-02  -3.786280e-02  0 
 1.933360e-02  -3.114400e-02  0 
 2.212266e-02  -3.309259e-02  0 
 2.453641e-02  -3.459301e-02  0 
 2.662492e-02  -3.578772e-02  0 
 2.841133e-02  -3.686270e-02  0 
 2.982833e-02  -3.798298e-02  0 
 3.017641e-02  -3.958058e-02  0 
 2.202343e-02  -3.916800e-02  0 
 2.490228e-02  -3.967219e-02  0 
 2.729610e-02  -4.019968e-02  0 
 2.943460e-02  -4.068031e-02  0 
 3.138147e-02  -4.110714e-02  0 
 3.313603e-02  -4.150695e-02  0 
 3.467776e-02  -4.190067e-02  0 
 3.509389e-02  -4.218479e-02  0 
 2.218498e-02  -4.240073e-02  0 
 2.492435e-02  -4.249377e-02  0 
 2.734166e-02  -4.266105e-02  0 
 2.950103e-02  -4.286329e-02  0 
 3.146324e-02  -4.304852e-02  0 
 3.322821e-02  -4.318740e-02  0 
 3.464997e-02  -4.320663e-02  0 
 3.571353e-02  -4.327068e-02  0 
 2.233693e-02  -4.516814e-02  0 
 2.491174e-02  -4.514132e-02  0 
 2.729323e-02  -4.512053e-02  0 
 2.946289e-02  -4.510644e-02  0 
 3.144257e-02  -4.507207e-02  0 
 3.323094e-02  -4.498341e-02  0 
 3.483721e-02  -4.487721e-02  0 
 3.626707e-02  -4.485471e-02  0 
 2.256227e-02  -4.762621e-02  0 
 2.495581e-02  -4.761172e-02  0 
 2.723880e-02  -4.751987e-02  0 
 2.937070e-02  -4.738067e-02  0 
 3.135901e-02  -4.720362e-02  0 
 3.324248e-02  -4.700879e-02  0 
 3.507389e-02  -4.685185e-02  0 
 3.695360e-02  -4.684450e-02  0 
 2.285058e-02  -4.996048e-02  0 
 2.507503e-02  -4.996278e-02  0 
 2.722431e-02  -4.985021e-02  0 
 2.927795e-02  -4.965866e-02  0 
 3.126530e-02  -4.943248e-02  0 
 3.325045e-02  -4.921980e-02  0 
 3.531075e-02  -4.907439e-02  0 
 3.751207e-02  -4.907745e-02  0 
 2.316832e-02  -5.225665e-02  0 
 2.525591e-02  -5.224464e-02  0 
 2.724295e-02  -5.211759e-02  0 
 2.920389e-02  -5.189430e-02  0 
 3.118684e-02  -5.170292e-02  0 
 3.323993e-02  -5.154296e-02  0 
 3.546921e-02  -5.145796e-02  0 
 3.791756e-02  -5.144331e-02  0 
 2.356957e-02  -5.450680e-02  0 
 2.546074e-02  -5.448694e-02  0 
 2.724173e-02  -5.422867e-02  0 
 2.913494e-02  -5.410828e-02  0 
 3.113479e-02  -5.388881e-02  0 
 3.322540e-02  -5.391281e-02  0 
 3.554572e-02  -5.395413e-02  0 
 3.813855e-02  -5.402817e-02  0 
 3.558740e-02  -5.676072e-02  0 
 3.823019e-02  -5.674306e-02  0 
VECTORS displacement_ITER6 FLOAT
 2.111446e-02  -3.419939e-02  0 
 2.405082e-02  -3.555312e-02  0 
 2.650432e-02  -3.646942e-02  0 
 2.872609e-02  -3.719531e-02  0 
 3.075488e-02  -3.784640e-02  0 
 3.257153e-02  -3.848404e-02  0 
 3.415008e-02  -3.914823e-02  0 
 1.913967e-02  -4.635509e-02  0 
 1.961432e-02  -4.888512e-02  0 
 2.007661e-02  -5.124728e-02  0 
 2.060714e-02  -5.355790e-02  0 
 1.525970e-02  -1.909389e-02  0 
 1.389266e-02  -2.042557e-02  0 
 1.395377e-02  -2.152058e-02  0 
 1.489378e-02  -2.352096e-02  0 
 1.595874e-02  -2.568002e-02  0 
 1.598471e-02  -2.673715e-02  0 
 1.604843e-02  -2.022421e-02  0 
 1.602753e-02  -2.191795e-02  0 
 1.667716e-02  -2.403001e-02  0 
 1.776783e-02  -2.612048e-02  0 
 1.862263e-02  -2.805460e-02  0 
 1.967529e-02  -3.034715e-02  0 
 1.972512e-02  -3.293149e-02  0 
 1.692664e-02  -2.212123e-02  0 
 1.811436e-02  -2.424111e-02  0 
 1.941625e-02  -2.646136e-02  0 
 2.068864e-02  -2.859723e-02  0 
 2.186725e-02  -3.071739e-02  0 
 2.280365e-02  -3.278984e-02  0 
 2.357910e-02  -3.482710e-02  0 
 1.808820e-02  -2.504857e-02  0 
 2.017682e-02  -2.724965e-02  0 
 2.205006e-02  -2.933360e-02  0 
 2.368782e-02  -3.124831e-02  0 
 2.508219e-02  -3.307844e-02  0 
 2.608546e-02  -3.500806e-02  0 
 2.673882e-02  -3.695020e-02  0 
 1.947367e-02  -2.894916e-02  0 
 2.223295e-02  -3.105380e-02  0 
 2.448478e-02  -3.270339e-02  0 
 2.642485e-02  -3.410123e-02  0 
 2.812089e-02  -3.539813e-02  0 
 2.950105e-02  -3.674784e-02  0 
 2.990038e-02  -3.856229e-02  0 
 2.136492e-02  -3.787458e-02  0 
 2.424953e-02  -3.836116e-02  0 
 2.668801e-02  -3.889178e-02  0 
 2.889661e-02  -3.936943e-02  0 
 3.092337e-02  -3.979321e-02  0 
 3.274552e-02  -4.018224e-02  0 
 3.430244e-02  -4.053767e-02  0 
 3.488077e-02  -4.072181e-02  0 
 2.139646e-02  -4.118260e-02  0 
 2.423804e-02  -4.125487e-02  0 
 2.672004e-02  -4.141914e-02  0 
 2.895110e-02  -4.162079e-02  0 
 3.098799e-02  -4.179620e-02  0 
 3.281952e-02  -4.191178e-02  0 
 3.431815e-02  -4.190946e-02  0 
 3.548380e-02  -4.195018e-02  0 
 2.152231e-02  -4.404208e-02  0 
 2.418058e-02  -4.399253e-02  0 
 2.664806e-02  -4.396176e-02  0 
 2.889548e-02  -4.394099e-02  0 
 3.095182e-02  -4.389659e-02  0 
 3.282273e-02  -4.379904e-02  0 
 3.452688e-02  -4.369072e-02  0 
 3.610176e-02  -4.367753e-02  0 
 2.172675e-02  -4.653643e-02  0 
 2.420220e-02  -4.654776e-02  0 
 2.656719e-02  -4.645482e-02  0 
 2.878182e-02  -4.630598e-02  0 
 3.085885e-02  -4.612182e-02  0 
 3.284152e-02  -4.593122e-02  0 
 3.478932e-02  -4.579162e-02  0 
 3.679383e-02  -4.580241e-02  0 
 2.200730e-02  -4.897973e-02  0 
 2.431353e-02  -4.898762e-02  0 
 2.652918e-02  -4.888046e-02  0 
 2.866236e-02  -4.868442e-02  0 
 3.075441e-02  -4.845557e-02  0 
 3.286305e-02  -4.825493e-02  0 
 3.504931e-02  -4.814105e-02  0 
 3.738541e-02  -4.817716e-02  0 
 2.234445e-02  -5.135107e-02  0 
 2.448860e-02  -5.135337e-02  0 
 2.652528e-02  -5.122908e-02  0 
 2.855632e-02  -5.102729e-02  0 
 3.065337e-02  -5.084667e-02  0 
 3.287117e-02  -5.070484e-02  0 
 3.525063e-02  -5.064792e-02  0 
 3.779148e-02  -5.066848e-02  0 
 2.278667e-02  -5.366428e-02  0 
 2.469435e-02  -5.360829e-02  0 
 2.650504e-02  -5.341788e-02  0 
 2.846209e-02  -5.330910e-02  0 
 3.057976e-02  -5.321084e-02  0 
 3.286354e-02  -5.326079e-02  0 
 3.537549e-02  -5.326612e-02  0 
 3.800476e-02  -5.326605e-02  0 
 3.547521e-02  -5.599298e-02  0 
 3.805835e-02  -5.601310e-02  0 
VECTORS displacement_ITER7 FLOAT
 2.169571e-02  -3.406139e-02  0 
 2.452150e-02  -3.544487e-02  0 
 2.690716e-02  -3.636446e-02  0 
 2.907692e-02  -3.709655e-02  0 
 3.105666e-02  -3.776158e-02  0 
 3.281740e-02  -3.843272e-02  0 
 3.427433e-02  -3.918207e-02  0 
 1.973382e-02  -4.611102e-02  0 
 2.018616e-02  -4.853573e-02  0 
 2.064258e-02  -5.081798e-02  0 
 2.115138e-02  -5.306026e-02  0 
 1.500015e-02  -1.845740e-02  0 
 1.377384e-02  -1.960614e-02  0 
 1.402257e-02  -2.079956e-02  0 
 1.523005e-02  -2.297589e-02  0 
 1.648986e-02  -2.558400e-02  0 
 1.631284e-02  -2.738506e-02  0 
 1.568879e-02  -1.956099e-02  0 
 1.590097e-02  -2.131773e-02  0 
 1.682902e-02  -2.353444e-02  0 
 1.819072e-02  -2.578715e-02  0 
 1.924790e-02  -2.786915e-02  0 
 2.035896e-02  -3.021298e-02  0 
 2.019681e-02  -3.293171e-02  0 
 1.653267e-02  -2.159181e-02  0 
 1.805487e-02  -2.380957e-02  0 
 1.962775e-02  -2.615198e-02  0 
 2.111220e-02  -2.836604e-02  0 
 2.242319e-02  -3.047997e-02  0 
 2.340127e-02  -3.246727e-02  0 
 2.397212e-02  -3.435335e-02  0 
 1.778767e-02  -2.466435e-02  0 
 2.023096e-02  -2.698936e-02  0 
 2.232253e-02  -2.916632e-02  0 
 2.406991e-02  -3.109717e-02  0 
 2.551331e-02  -3.286383e-02  0 
 2.655118e-02  -3.460621e-02  0 
 2.726278e-02  -3.632685e-02  0 
 1.944000e-02  -2.867527e-02  0 
 2.249067e-02  -3.094732e-02  0 
 2.481769e-02  -3.261964e-02  0 
 2.677231e-02  -3.399944e-02  0 
 2.844686e-02  -3.525029e-02  0 
 2.980245e-02  -3.651930e-02  0 
 3.043963e-02  -3.807940e-02  0 
 2.191126e-02  -3.768621e-02  0 
 2.471942e-02  -3.818101e-02  0 
 2.709370e-02  -3.872964e-02  0 
 2.924979e-02  -3.921854e-02  0 
 3.122711e-02  -3.965154e-02  0 
 3.299092e-02  -4.004568e-02  0 
 3.445324e-02  -4.038416e-02  0 
 3.498209e-02  -4.055093e-02  0 
 2.187087e-02  -4.097849e-02  0 
 2.469200e-02  -4.103873e-02  0 
 2.712390e-02  -4.120888e-02  0 
 2.930184e-02  -4.141618e-02  0 
 3.128560e-02  -4.159193e-02  0 
 3.305592e-02  -4.170050e-02  0 
 3.449279e-02  -4.169535e-02  0 
 3.559735e-02  -4.173657e-02  0 
 2.198149e-02  -4.380685e-02  0 
 2.461416e-02  -4.375283e-02  0 
 2.703820e-02  -4.371287e-02  0 
 2.923552e-02  -4.368705e-02  0 
 3.124094e-02  -4.363766e-02  0 
 3.306271e-02  -4.353766e-02  0 
 3.472186e-02  -4.343366e-02  0 
 3.627140e-02  -4.344159e-02  0 
 2.220103e-02  -4.626524e-02  0 
 2.462222e-02  -4.626864e-02  0 
 2.693749e-02  -4.616675e-02  0 
 2.910497e-02  -4.600981e-02  0 
 3.114025e-02  -4.582059e-02  0 
 3.308851e-02  -4.563154e-02  0 
 3.500869e-02  -4.550359e-02  0 
 3.698235e-02  -4.552413e-02  0 
 2.249331e-02  -4.863516e-02  0 
 2.472717e-02  -4.865061e-02  0 
 2.688219e-02  -4.854650e-02  0 
 2.896633e-02  -4.835040e-02  0 
 3.102614e-02  -4.812341e-02  0 
 3.311746e-02  -4.792849e-02  0 
 3.529196e-02  -4.782702e-02  0 
 3.760965e-02  -4.788482e-02  0 
 2.283818e-02  -5.092603e-02  0 
 2.490337e-02  -5.094691e-02  0 
 2.686674e-02  -5.083502e-02  0 
 2.884434e-02  -5.065832e-02  0 
 3.091303e-02  -5.049585e-02  0 
 3.313191e-02  -5.037247e-02  0 
 3.552169e-02  -5.032702e-02  0 
 3.806679e-02  -5.036390e-02  0 
 2.329086e-02  -5.317062e-02  0 
 2.511058e-02  -5.309132e-02  0 
 2.684408e-02  -5.296465e-02  0 
 2.874818e-02  -5.288291e-02  0 
 3.083604e-02  -5.287414e-02  0 
 3.312900e-02  -5.295378e-02  0 
 3.567022e-02  -5.297507e-02  0 
 3.832237e-02  -5.295618e-02  0 
 3.584259e-02  -5.565410e-02  0 
 3.839098e-02  -5.570241e-02  0 
VECTORS displacement_ITER8 FLOAT
 2.181427e-02  -3.378345e-02  0 
 2.464905e-02  -3.522448e-02  0 
 2.702333e-02  -3.617683e-02  0 
 2.917378e-02  -3.693131e-02  0 
 3.112926e-02  -3.761629e-02  0 
 3.285623e-02  -3.831309e-02  0 
 3.423810e-02  -3.910965e-02  0 
 1.991661e-02  -4.591124e-02  0 
 2.034520e-02  -4.830283e-02  0 
 2.078096e-02  -5.058143e-02  0 
 2.128507e-02  -5.285398e-02  0 
 1.276607e-02  -1.825748e-02  0 
 1.255935e-02  -1.922692e-02  0 
 1.327146e-02  -2.058609e-02  0 
 1.470767e-02  -2.289804e-02  0 
 1.617699e-02  -2.553352e-02  0 
 1.662839e-02  -2.741284e-02  0 
 1.372958e-02  -1.997021e-02  0 
 1.471476e-02  -2.157221e-02  0 
 1.614896e-02  -2.367211e-02  0 
 1.777175e-02  -2.593715e-02  0 
 1.905812e-02  -2.813677e-02  0 
 2.039065e-02  -3.057441e-02  0 
 2.014191e-02  -3.334722e-02  0 
 1.501907e-02  -2.225376e-02  0 
 1.705667e-02  -2.433010e-02  0 
 1.902838e-02  -2.653452e-02  0 
 2.078816e-02  -2.868992e-02  0 
 2.226380e-02  -3.082731e-02  0 
 2.327537e-02  -3.284800e-02  0 
 2.373236e-02  -3.475742e-02  0 
 1.679897e-02  -2.527962e-02  0 
 1.953732e-02  -2.750318e-02  0 
 2.188333e-02  -2.956557e-02  0 
 2.383037e-02  -3.141875e-02  0 
 2.537676e-02  -3.314658e-02  0 
 2.639452e-02  -3.489082e-02  0 
 2.693473e-02  -3.666560e-02  0 
 1.904428e-02  -2.899450e-02  0 
 2.216428e-02  -3.119291e-02  0 
 2.461444e-02  -3.281745e-02  0 
 2.666330e-02  -3.414962e-02  0 
 2.838087e-02  -3.536198e-02  0 
 2.970600e-02  -3.661965e-02  0 
 3.019052e-02  -3.822553e-02  0 
 2.204040e-02  -3.745217e-02  0 
 2.485775e-02  -3.795946e-02  0 
 2.721837e-02  -3.852435e-02  0 
 2.935376e-02  -3.902864e-02  0 
 3.130475e-02  -3.947404e-02  0 
 3.303290e-02  -3.987401e-02  0 