# vtk DataFile Version 3.1
this is an vtk file created by FEMAC
ASCII
DATASET UNSTRUCTURED_GRID
POINTS 103 FLOAT
4.000000 5.000000 0.000000
3.333333 5.000000 0.000000
3.444444 5.000000 0.000000
3.555556 5.000000 0.000000
3.666667 5.000000 0.000000
3.777778 5.000000 0.000000
3.888889 5.000000 0.000000
4.000000 4.222222 0.000000
4.000000 4.333333 0.000000
4.000000 4.444444 0.000000
4.000000 4.555556 0.000000
4.000000 4.666667 0.000000
4.000000 4.777778 0.000000
4.000000 4.888889 0.000000
4.000000 5.111111 0.000000
4.000000 5.222222 0.000000
4.000000 5.333333 0.000000
4.111111 5.000000 0.000000
4.222222 5.000000 0.000000
4.333333 5.000000 0.000000
3.333333 4.666667 0.000000
3.333333 4.777778 0.000000
3.333333 4.888889 0.000000
3.444444 4.222222 0.000000
3.444444 4.333333 0.000000
3.444444 4.444444 0.000000
3.444444 4.555556 0.000000
3.444444 4.666667 0.000000
3.444444 4.777778 0.000000
3.444444 4.888889 0.000000
3.555556 4.222222 0.000000
3.555556 4.333333 0.000000
3.555556 4.444444 0.000000
3.555556 4.555556 0.000000
3.555556 4.666667 0.000000
3.555556 4.777778 0.000000
3.555556 4.888889 0.000000
3.666667 4.222222 0.000000
3.666667 4.333333 0.000000
3.666667 4.444444 0.000000
3.666667 4.555556 0.000000
3.666667 4.666667 0.000000
3.666667 4.777778 0.000000
3.666667 4.888889 0.000000
3.777778 4.222222 0.000000
3.777778 4.333333 0.000000
3.777778 4.444444 0.000000
3.777778 4.555556 0.000000
3.777778 4.666667 0.000000
3.777778 4.777778 0.000000
3.777778 4.888889 0.000000
3.888889 4.222222 0.000000
3.888889 4.333333 0.000000
3.888889 4.444444 0.000000
3.888889 4.555556 0.000000
3.888889 4.666667 0.000000
3.888889 4.777778 0.000000
3.888889 4.888889 0.000000
3.333333 5.111111 0.000000
3.444444 5.111111 0.000000
3.555556 5.111111 0.000000
3.666667 5.111111 0.000000
3.666667 5.222222 0.000000
3.777778 5.111111 0.000000
3.777778 5.222222 0.000000
3.888889 5.111111 0.000000
3.888889 5.222222 0.000000
3.888889 5.333333 0.000000
4.111111 4.222222 0.000000
4.111111 4.333333 0.000000
4.111111 4.444444 0.000000
4.111111 4.555556 0.000000
4.111111 4.666667 0.000000
4.111111 4.777778 0.000000
4.111111 4.888889 0.000000
4.222222 4.222222 0.000000
4.222222 4.333333 0.000000
4.222222 4.444444 0.000000
4.222222 4.555556 0.000000
4.222222 4.666667 0.000000
4.222222 4.777778 0.000000
4.222222 4.888889 0.000000
4.333333 4.222222 0.000000
4.333333 4.333333 0.000000
4.333333 4.444444 0.000000
4.333333 4.555556 0.000000
4.333333 4.666667 0.000000
4.333333 4.777778 0.000000
4.333333 4.888889 0.000000
4.444444 4.222222 0.000000
4.444444 4.333333 0.000000
4.444444 4.444444 0.000000
4.444444 4.555556 0.000000
4.444444 4.666667 0.000000
4.444444 4.777778 0.000000
4.555556 4.222222 0.000000
4.555556 4.333333 0.000000
4.555556 4.444444 0.000000
4.111111 5.111111 0.000000
4.111111 5.222222 0.000000
4.111111 5.333333 0.000000
4.222222 5.111111 0.000000
4.222222 5.222222 0.000000
CELLS 81 405 
4 20 27 28 21
4 21 28 29 22
4 22 29  2  1
4 23 30 31 24
4 24 31 32 25
4 25 32 33 26
4 26 33 34 27
4 27 34 35 28
4 28 35 36 29
4 29 36  3  2
4 30 37 38 31
4 31 38 39 32
4 32 39 40 33
4 33 40 41 34
4 34 41 42 35
4 35 42 43 36
4 36 43  4  3
4 37 44 45 38
4 38 45 46 39
4 39 46 47 40
4 40 47 48 41
4 41 48 49 42
4 42 49 50 43
4 43 50  5  4
4 44 51 52 45
4 45 52 53 46
4 46 53 54 47
4 47 54 55 48
4 48 55 56 49
4 49 56 57 50
4 50 57  6  5
4 51  7  8 52
4 52  8  9 53
4 53  9 10 54
4 54 10 11 55
4 55 11 12 56
4 56 12 13 57
4 57 13  0  6
4 1  2 59 58
4 2  3 60 59
4 3  4 61 60
4 4  5 63 61
4 61 63 64 62
4 5  6 65 63
4 63 65 66 64
4 6  0 14 65
4 65 14 15 66
4 66 15 16 67
4 7 68 69  8
4 8 69 70  9
4 9 70 71 10
4 10 71 72 11
4 11 72 73 12
4 12 73 74 13
4 13 74 17  0
4 68 75 76 69
4 69 76 77 70
4 70 77 78 71
4 71 78 79 72
4 72 79 80 73
4 73 80 81 74
4 74 81 18 17
4 75 82 83 76
4 76 83 84 77
4 77 84 85 78
4 78 85 86 79
4 79 86 87 80
4 80 87 88 81
4 81 88 19 18
4 82 89 90 83
4 83 90 91 84
4 84 91 92 85
4 85 92 93 86
4 86 93 94 87
4 89 95 96 90
4 90 96 97 91
4 0 17 98 14
4 14 98 99 15
4 15  99 100  16
4 17  18 101  98
4 98 101 102  99
CELL_TYPES 81
9 9 9 9 9 9 9 9 9 9 9 9 9 9 9 9 9 9 9 9 9 9 9 9 9 9 9 9 9 9 9 9 9 9 9 9 9 9 9 9 9 9 9 9 9 9 9 9 9 9 9 9 9 9 9 9 9 9 9 9 9 9 9 9 9 9 9 9 9 9 9 9 9 9 9 9 9 9 9 9 9 
POINT_DATA 103
VECTORS displacement_ITER1 FLOAT
 5.744785e-02  -1.103873e-01  0 
 5.383038e-02  -9.275421e-02  0 
 5.406535e-02  -9.604669e-02  0 
 5.438765e-02  -9.938472e-02  0 
 5.485049e-02  -1.027717e-01  0 
 5.551376e-02  -1.059473e-01  0 
 5.633093e-02  -1.086618e-01  0 
 3.950009e-02  -1.064261e-01  0 
 4.276605e-02  -1.069547e-01  0 
 4.597782e-02  -1.074416e-01  0 
 4.905729e-02  -1.079880e-01  0 
 5.189821e-02  -1.085838e-01  0 
 5.442310e-02  -1.091923e-01  0 
 5.653371e-02  -1.098137e-01  0 
 5.870063e-02  -1.108682e-01  0 
 6.102583e-02  -1.111467e-01  0 
 6.344338e-02  -1.112516e-01  0 
 5.847590e-02  -1.117728e-01  0 
 5.893346e-02  -1.139620e-01  0 
 5.907047e-02  -1.162058e-01  0 
 4.014179e-02  -8.845409e-02  0 
 4.477256e-02  -8.983232e-02  0 
 4.707169e-02  -9.051047e-02  0 
 2.928492e-02  -8.970304e-02  0 
 3.456046e-02  -9.004390e-02  0 
 3.844526e-02  -9.104668e-02  0 
 4.150452e-02  -9.231746e-02  0 
 4.292180e-02  -9.343090e-02  0 
 4.615273e-02  -9.428954e-02  0 
 5.002494e-02  -9.548505e-02  0 
 3.126959e-02  -9.454908e-02  0 
 3.560993e-02  -9.499304e-02  0 
 3.950867e-02  -9.547098e-02  0 
 4.253561e-02  -9.609960e-02  0 
 4.515222e-02  -9.711485e-02  0 
 4.801264e-02  -9.837117e-02  0 
 5.123476e-02  -9.919957e-02  0 
 3.324870e-02  -9.815713e-02  0 
 3.714572e-02  -9.879658e-02  0 
 4.072201e-02  -9.927086e-02  0 
 4.394382e-02  -9.986753e-02  0 
 4.686353e-02  -1.007414e-01  0 
 4.959411e-02  -1.017343e-01  0 
 5.223128e-02  -1.024956e-01  0 
 3.567797e-02  -1.010752e-01  0 
 3.893713e-02  -1.018652e-01  0 
 4.231633e-02  -1.024841e-01  0 
 4.551756e-02  -1.031169e-01  0 
 4.845126e-02  -1.038607e-01  0 
 5.105323e-02  -1.046936e-01  0 
 5.334434e-02  -1.054638e-01  0 
 3.773603e-02  -1.035821e-01  0 
 4.091240e-02  -1.044874e-01  0 
 4.412344e-02  -1.051711e-01  0 
 4.722978e-02  -1.057942e-01  0 
 5.010726e-02  -1.064511e-01  0 
 5.265097e-02  -1.071646e-01  0 
 5.472803e-02  -1.079593e-01  0 
 5.698860e-02  -9.291215e-02  0 
 5.732130e-02  -9.611408e-02  0 
 5.770941e-02  -9.949638e-02  0 
 5.814742e-02  -1.029109e-01  0 
 6.145545e-02  -1.029021e-01  0 
 5.840686e-02  -1.060927e-01  0 
 6.130118e-02  -1.061025e-01  0 
 5.863650e-02  -1.087770e-01  0 
 6.103486e-02  -1.087914e-01  0 
 6.335538e-02  -1.089227e-01  0 
 3.953628e-02  -1.099078e-01  0 
 4.287769e-02  -1.102100e-01  0 
 4.612561e-02  -1.105781e-01  0 
 4.922130e-02  -1.109399e-01  0 
 5.206109e-02  -1.112693e-01  0 
 5.456344e-02  -1.115391e-01  0 
 5.663598e-02  -1.116580e-01  0 
 3.942454e-02  -1.133645e-01  0 
 4.290234e-02  -1.135410e-01  0 
 4.623905e-02  -1.137609e-01  0 
 4.933830e-02  -1.139366e-01  0 
 5.216257e-02  -1.139966e-01  0 
 5.465412e-02  -1.139801e-01  0 
 5.681973e-02  -1.139597e-01  0 
 3.921370e-02  -1.169560e-01  0 
 4.289111e-02  -1.170274e-01  0 
 4.636265e-02  -1.170684e-01  0 
 4.942443e-02  -1.170344e-01  0 
 5.216186e-02  -1.168318e-01  0 
 5.483337e-02  -1.165902e-01  0 
 5.688236e-02  -1.162083e-01  0 
 3.892038e-02  -1.209355e-01  0 
 4.282456e-02  -1.208754e-01  0 
 4.654364e-02  -1.206311e-01  0 
 4.937936e-02  -1.200118e-01  0 
 5.211888e-02  -1.197483e-01  0 
 5.518637e-02  -1.198457e-01  0 
 3.872265e-02  -1.253739e-01  0 
 4.267317e-02  -1.250369e-01  0 
 4.693615e-02  -1.251690e-01  0 
 5.981085e-02  -1.127049e-01  0 
 6.161506e-02  -1.133867e-01  0 
 6.627793e-02  -1.149706e-01  0 
 6.050907e-02  -1.144224e-01  0 
 6.229829e-02  -1.147812e-01  0 
VECTORS displacement_ITER2 FLOAT
 5.618904e-02  -1.001242e-01  0 
 5.276307e-02  -8.173916e-02  0 
 5.296711e-02  -8.479971e-02  0 
 5.319551e-02  -8.816284e-02  0 
 5.361809e-02  -9.173841e-02  0 
 5.427508e-02  -9.514051e-02  0 
 5.506970e-02  -9.809282e-02  0 
 3.969658e-02  -9.667240e-02  0 
 4.279302e-02  -9.727486e-02  0 
 4.569334e-02  -9.773151e-02  0 
 4.845879e-02  -9.816502e-02  0 
 5.104602e-02  -9.861571e-02  0 
 5.339122e-02  -9.909468e-02  0 
 5.537474e-02  -9.962585e-02  0 
 5.769296e-02  -1.005625e-01  0 
 6.027865e-02  -1.008413e-01  0 
 6.292112e-02  -1.009380e-01  0 
 5.723667e-02  -1.014716e-01  0 
 5.774635e-02  -1.035835e-01  0 
 5.798841e-02  -1.057649e-01  0 
 4.229226e-02  -7.723397e-02  0 
 4.668166e-02  -7.893260e-02  0 
 4.829956e-02  -7.969775e-02  0 
 3.423769e-02  -7.768942e-02  0 
 3.835682e-02  -7.953129e-02  0 
 4.110273e-02  -8.100025e-02  0 
 4.331505e-02  -8.206684e-02  0 
 4.449751e-02  -8.263616e-02  0 
 4.727006e-02  -8.329457e-02  0 
 5.020701e-02  -8.425438e-02  0 
 3.545331e-02  -8.237511e-02  0 
 3.875491e-02  -8.328804e-02  0 
 4.160508e-02  -8.425510e-02  0 
 4.388247e-02  -8.517017e-02  0 
 4.602553e-02  -8.621843e-02  0 
 4.840526e-02  -8.728353e-02  0 
 5.091480e-02  -8.796316e-02  0 
 3.631529e-02  -8.541591e-02  0 
 3.934156e-02  -8.658815e-02  0 
 4.230733e-02  -8.761533e-02  0 
 4.494126e-02  -8.863699e-02  0 
 4.731996e-02  -8.968868e-02  0 
 4.953384e-02  -9.067185e-02  0 
 5.161656e-02  -9.138736e-02  0 
 3.713119e-02  -8.826424e-02  0 
 4.031568e-02  -8.978920e-02  0 
 4.340044e-02  -9.103723e-02  0 
 4.613100e-02  -9.200719e-02  0 
 4.856635e-02  -9.290146e-02  0 
 5.070295e-02  -9.377016e-02  0 
 5.255300e-02  -9.456071e-02  0 
 3.789087e-02  -9.176495e-02  0 
 4.167165e-02  -9.344310e-02  0 
 4.462709e-02  -9.443463e-02  0 
 4.733510e-02  -9.518069e-02  0 
 4.981471e-02  -9.585983e-02  0 
 5.200882e-02  -9.655372e-02  0 
 5.378936e-02  -9.733531e-02  0 
 5.574027e-02  -8.180046e-02  0 
 5.612112e-02  -8.487099e-02  0 
 5.664038e-02  -8.825786e-02  0 
 5.712387e-02  -9.190573e-02  0 
 6.049554e-02  -9.200962e-02  0 
 5.738464e-02  -9.527626e-02  0 
 6.045255e-02  -9.526897e-02  0 
 5.762003e-02  -9.820251e-02  0 
 6.028217e-02  -9.821500e-02  0 
 6.286629e-02  -9.837152e-02  0 
 3.981248e-02  -1.000590e-01  0 
 4.288671e-02  -1.003062e-01  0 
 4.579621e-02  -1.005861e-01  0 
 4.856931e-02  -1.008511e-01  0 
 5.115988e-02  -1.010902e-01  0 
 5.349955e-02  -1.012864e-01  0 
 5.546769e-02  -1.013599e-01  0 
 3.977672e-02  -1.033108e-01  0 
 4.287871e-02  -1.033761e-01  0 
 4.583481e-02  -1.034877e-01  0 
 4.861290e-02  -1.035819e-01  0 
 5.121177e-02  -1.036017e-01  0 
 5.356411e-02  -1.035762e-01  0 
 5.567295e-02  -1.035528e-01  0 
 3.967387e-02  -1.064924e-01  0 
 4.283250e-02  -1.064792e-01  0 
 4.585090e-02  -1.064432e-01  0 
 4.861160e-02  -1.063926e-01  0 
 5.117346e-02  -1.062399e-01  0 
 5.372707e-02  -1.060418e-01  0 
 5.577952e-02  -1.057842e-01  0 
 3.960830e-02  -1.097531e-01  0 
 4.274169e-02  -1.097100e-01  0 
 4.589370e-02  -1.095326e-01  0 
 4.855153e-02  -1.091233e-01  0 
 5.112021e-02  -1.090013e-01  0 
 5.397537e-02  -1.090988e-01  0 
 3.957940e-02  -1.130874e-01  0 
 4.263532e-02  -1.130504e-01  0 
 4.600248e-02  -1.131797e-01  0 
 5.894331e-02  -1.027207e-01  0 
 6.149423e-02  -1.038879e-01  0 
 6.578737e-02  -1.056867e-01  0 
 6.021324e-02  -1.053683e-01  0 
 6.318017e-02  -1.066219e-01  0 
VECTORS displacement_ITER3 FLOAT
 5.217473e-02  -9.590948e-02  0 
 4.824797e-02  -7.901112e-02  0 
 4.863880e-02  -8.212343e-02  0 
 4.904555e-02  -8.520463e-02  0 
 4.948960e-02  -8.836723e-02  0 
 5.010995e-02  -9.145768e-02  0 
 5.094374e-02  -9.418240e-02  0 
 3.712257e-02  -9.275263e-02  0 
 3.981256e-02  -9.314871e-02  0 
 4.251739e-02  -9.350209e-02  0 
 4.513802e-02  -9.389195e-02  0 
 4.759142e-02  -9.432924e-02  0 
 4.980191e-02  -9.481707e-02  0 
 5.163024e-02  -9.537803e-02  0 
 5.329685e-02  -9.638765e-02  0 
 5.566243e-02  -9.675904e-02  0 
 5.828217e-02  -9.696283e-02  0 
 5.333572e-02  -9.705477e-02  0 
 5.391144e-02  -9.904258e-02  0 
 5.421151e-02  -1.011647e-01  0 
 4.402645e-02  -7.995907e-02  0 
 4.526295e-02  -8.028508e-02  0 
 4.665772e-02  -8.099477e-02  0 
 3.445509e-02  -7.508200e-02  0 
 3.690743e-02  -7.675402e-02  0 
 3.944169e-02  -7.815627e-02  0 
 4.202965e-02  -7.975793e-02  0 
 4.417613e-02  -8.160368e-02  0 
 4.563715e-02  -8.243132e-02  0 
 4.691676e-02  -8.249100e-02  0 
 3.490237e-02  -7.916494e-02  0 
 3.767945e-02  -8.033211e-02  0 
 4.025346e-02  -8.170772e-02  0 
 4.267624e-02  -8.300201e-02  0 
 4.460433e-02  -8.402704e-02  0 
 4.604002e-02  -8.477531e-02  0 
 4.741462e-02  -8.519080e-02  0 
 3.550163e-02  -8.256320e-02  0 
 3.832560e-02  -8.377218e-02  0 
 4.093079e-02  -8.487055e-02  0 
 4.321822e-02  -8.585842e-02  0 
 4.511748e-02  -8.669546e-02  0 
 4.666545e-02  -8.743401e-02  0 
 4.804450e-02  -8.804335e-02  0 
 3.635837e-02  -8.573757e-02  0 
 3.895410e-02  -8.690907e-02  0 
 4.152394e-02  -8.783363e-02  0 
 4.382948e-02  -8.860187e-02  0 
 4.582962e-02  -8.931623e-02  0 
 4.750507e-02  -9.005777e-02  0 
 4.887229e-02  -9.082807e-02  0 
 3.690493e-02  -8.891065e-02  0 
 3.954337e-02  -8.997820e-02  0 
 4.208105e-02  -9.068510e-02  0 
 4.448467e-02  -9.126722e-02  0 
 4.667740e-02  -9.184395e-02  0 
 4.858424e-02  -9.249003e-02  0 
 5.005118e-02  -9.329565e-02  0 
 5.135091e-02  -7.914149e-02  0 
 5.170474e-02  -8.220403e-02  0 
 5.210521e-02  -8.533675e-02  0 
 5.263228e-02  -8.848602e-02  0 
 5.592506e-02  -8.842981e-02  0 
 5.296080e-02  -9.160749e-02  0 
 5.580274e-02  -9.163014e-02  0 
 5.322658e-02  -9.430316e-02  0 
 5.562185e-02  -9.428684e-02  0 
 5.816892e-02  -9.437719e-02  0 
 3.711007e-02  -9.563019e-02  0 
 3.988746e-02  -9.589434e-02  0 
 4.261063e-02  -9.617494e-02  0 
 4.524094e-02  -9.642761e-02  0 
 4.770356e-02  -9.666217e-02  0 
 4.991314e-02  -9.686275e-02  0 
 5.172897e-02  -9.693405e-02  0 
 3.698951e-02  -9.859131e-02  0 
 3.989205e-02  -9.874227e-02  0 
 4.265366e-02  -9.888771e-02  0 
 4.528616e-02  -9.899338e-02  0 
 4.776103e-02  -9.902644e-02  0 
 4.998970e-02  -9.901054e-02  0 
 5.195902e-02  -9.899949e-02  0 
 3.689537e-02  -1.016639e-01  0 
 3.983371e-02  -1.016808e-01  0 
 4.265050e-02  -1.016825e-01  0 
 4.528523e-02  -1.016489e-01  0 
 4.775857e-02  -1.015281e-01  0 
 5.017078e-02  -1.013570e-01  0 
 5.210652e-02  -1.010936e-01  0 
 3.680268e-02  -1.047354e-01  0 
 3.974480e-02  -1.047222e-01  0 
 4.262664e-02  -1.046167e-01  0 
 4.523744e-02  -1.043399e-01  0 
 4.773211e-02  -1.041716e-01  0 
 5.052150e-02  -1.042834e-01  0 
 3.670189e-02  -1.079798e-01  0 
 3.962887e-02  -1.078362e-01  0 
 4.266881e-02  -1.078484e-01  0 
 5.507995e-02  -9.842818e-02  0 
 5.777098e-02  -1.001867e-01  0 
 6.405114e-02  -1.033729e-01  0 
 5.703624e-02  -1.014445e-01  0 
 6.055283e-02  -1.029431e-01  0 
VECTORS displacement_ITER4 FLOAT
 5.056257e-02  -9.325146e-02  0 
 4.653240e-02  -7.681571e-02  0 
 4.692084e-02  -7.996091e-02  0 
 4.733811e-02  -8.309256e-02  0 
 4.782940e-02  -8.620931e-02  0 
 4.847198e-02  -8.916291e-02  0 
 4.930485e-02  -9.173158e-02  0 
 3.515270e-02  -8.994367e-02  0 
 3.795927e-02  -9.044379e-02  0 
 4.067959e-02  -9.084577e-02  0 
 4.330425e-02  -9.122925e-02  0 
 4.579251e-02  -9.163325e-02  0 
 4.807689e-02  -9.209289e-02  0 
 4.999358e-02  -9.266225e-02  0 
 5.150237e-02  -9.380545e-02  0 
 5.379912e-02  -9.426823e-02  0 
 5.643216e-02  -9.454154e-02  0 
 5.177974e-02  -9.439671e-02  0 
 5.243987e-02  -9.648602e-02  0 
 5.284063e-02  -9.879563e-02  0 
 3.690105e-02  -7.423039e-02  0 
 4.036783e-02  -7.532028e-02  0 
 4.270129e-02  -7.590351e-02  0 
 3.166968e-02  -7.372507e-02  0 
 3.382818e-02  -7.501897e-02  0 
 3.570217e-02  -7.617502e-02  0 
 3.755137e-02  -7.731226e-02  0 
 3.884867e-02  -7.825191e-02  0 
 4.139789e-02  -7.900479e-02  0 
 4.415142e-02  -7.968815e-02  0 
 3.224085e-02  -7.736764e-02  0 
 3.458732e-02  -7.816896e-02  0 
 3.669562e-02  -7.918128e-02  0 
 3.861470e-02  -8.018695e-02  0 
 4.052634e-02  -8.127726e-02  0 
 4.265696e-02  -8.230551e-02  0 
 4.499860e-02  -8.293013e-02  0 
 3.297569e-02  -8.017809e-02  0 
 3.534631e-02  -8.118777e-02  0 
 3.768122e-02  -8.213749e-02  0 
 3.986251e-02  -8.314655e-02  0 
 4.192861e-02  -8.419229e-02  0 
 4.390784e-02  -8.517468e-02  0 
 4.585146e-02  -8.589948e-02  0 
 3.377120e-02  -8.295139e-02  0 
 3.624492e-02  -8.407985e-02  0 
 3.875555e-02  -8.507637e-02  0 
 4.110362e-02  -8.597213e-02  0 
 4.326483e-02  -8.686393e-02  0 
 4.519444e-02  -8.776584e-02  0 
 4.687853e-02  -8.860161e-02  0 
 3.438188e-02  -8.598913e-02  0 
 3.723016e-02  -8.716471e-02  0 
 3.981131e-02  -8.797149e-02  0 
 4.227206e-02  -8.865194e-02  0 
 4.456645e-02  -8.931688e-02  0 
 4.660902e-02  -9.003429e-02  0 
 4.822620e-02  -9.088254e-02  0 
 4.969210e-02  -7.691833e-02  0 
 5.004254e-02  -8.005206e-02  0 
 5.041873e-02  -8.321377e-02  0 
 5.086771e-02  -8.634737e-02  0 
 5.388347e-02  -8.636303e-02  0 
 5.117648e-02  -8.929400e-02  0 
 5.382941e-02  -8.929990e-02  0 
 5.142691e-02  -9.184245e-02  0 
 5.373686e-02  -9.181178e-02  0 
 5.641698e-02  -9.185036e-02  0 
 3.522922e-02  -9.295527e-02  0 
 3.805484e-02  -9.325310e-02  0 
 4.077406e-02  -9.353861e-02  0 
 4.339998e-02  -9.378928e-02  0 
 4.589367e-02  -9.401706e-02  0 
 4.818133e-02  -9.420943e-02  0 
 5.009792e-02  -9.427484e-02  0 
 3.520800e-02  -9.598770e-02  0 
 3.807281e-02  -9.613372e-02  0 
 4.080449e-02  -9.627403e-02  0 
 4.342710e-02  -9.638119e-02  0 
 4.593377e-02  -9.643060e-02  0 
 4.824058e-02  -9.643315e-02  0 
 5.033739e-02  -9.642618e-02  0 
 3.518856e-02  -9.900797e-02  0 
 3.803489e-02  -9.904636e-02  0 
 4.077390e-02  -9.905449e-02  0 
 4.339973e-02  -9.904632e-02  0 
 4.592104e-02  -9.898484e-02  0 
 4.840378e-02  -9.887134e-02  0 
 5.051757e-02  -9.870774e-02  0 
 3.521061e-02  -1.019682e-01  0 
 3.796719e-02  -1.019561e-01  0 
 4.070150e-02  -1.019021e-01  0 
 4.335975e-02  -1.017661e-01  0 
 4.590072e-02  -1.016881e-01  0 
 4.866714e-02  -1.017962e-01  0 
 3.518382e-02  -1.049053e-01  0 
 3.789030e-02  -1.048254e-01  0 
 4.059084e-02  -1.047749e-01  0 
 5.297054e-02  -9.543444e-02  0 
 5.457446e-02  -9.614909e-02  0 
 5.624646e-02  -9.635904e-02  0 
 5.402022e-02  -9.679224e-02  0 
 5.522922e-02  -9.716617e-02  0 
VECTORS displacement_ITER5 FLOAT
 5.065474e-02  -9.050058e-02  0 
 4.660616e-02  -7.340336e-02  0 
 4.705825e-02  -7.672697e-02  0 
 4.749894e-02  -7.994051e-02  0 
 4.796668e-02  -8.308808e-02  0 
 4.855710e-02  -8.611194e-02  0 
 4.936247e-02  -8.881748e-02  0 
 3.489376e-02  -8.747702e-02  0 
 3.766400e-02  -8.794305e-02  0 
 4.038281e-02  -8.830594e-02  0 
 4.303589e-02  -8.864377e-02  0 
 4.558763e-02  -8.899650e-02  0 
 4.796983e-02  -8.940771e-02  0 
 5.000159e-02  -8.994434e-02  0 
 5.168990e-02  -9.104131e-02  0 
 5.416912e-02  -9.155887e-02  0 
 5.712079e-02  -9.190134e-02  0 
 5.193196e-02  -9.179656e-02  0 
 5.266371e-02  -9.405071e-02  0 
 5.314846e-02  -9.660787e-02  0 
 3.598379e-02  -7.039516e-02  0 
 3.968400e-02  -7.150888e-02  0 
 4.181107e-02  -7.145240e-02  0 
 3.103148e-02  -7.104026e-02  0 
 3.286057e-02  -7.215173e-02  0 
 3.472113e-02  -7.313387e-02  0 
 3.669569e-02  -7.412281e-02  0 
 3.807102e-02  -7.480571e-02  0 
 4.074398e-02  -7.540000e-02  0 
 4.386464e-02  -7.625895e-02  0 
 3.177601e-02  -7.453265e-02  0 
 3.390201e-02  -7.534983e-02  0 
 3.595469e-02  -7.630867e-02  0 
 3.789365e-02  -7.717818e-02  0 
 3.989756e-02  -7.813569e-02  0 
 4.225105e-02  -7.912214e-02  0 
 4.489464e-02  -7.976596e-02  0 
 3.252753e-02  -7.763342e-02  0 
 3.489942e-02  -7.854314e-02  0 
 3.713987e-02  -7.939849e-02  0 
 3.930515e-02  -8.030403e-02  0 
 4.146723e-02  -8.127636e-02  0 
 4.363065e-02  -8.221232e-02  0 
 4.579348e-02  -8.288118e-02  0 
 3.347755e-02  -8.080197e-02  0 
 3.590298e-02  -8.165689e-02  0 
 3.833041e-02  -8.245169e-02  0 
 4.067996e-02  -8.324946e-02  0 
 4.292273e-02  -8.408286e-02  0 
 4.498602e-02  -8.493023e-02  0 
 4.682084e-02  -8.568579e-02  0 
 3.424138e-02  -8.399868e-02  0 
 3.687474e-02  -8.477285e-02  0 
 3.944285e-02  -8.541466e-02  0 
 4.193756e-02  -8.601143e-02  0 
 4.430545e-02  -8.661939e-02  0 
 4.644996e-02  -8.728121e-02  0 
 4.817695e-02  -8.806279e-02  0 
 5.001146e-02  -7.352444e-02  0 
 5.032956e-02  -7.681554e-02  0 
 5.063348e-02  -8.005146e-02  0 
 5.104395e-02  -8.320952e-02  0 
 5.409991e-02  -8.322090e-02  0 
 5.136415e-02  -8.622884e-02  0 
 5.410182e-02  -8.623286e-02  0 
 5.161837e-02  -8.892071e-02  0 
 5.408074e-02  -8.885918e-02  0 
 5.710188e-02  -8.883233e-02  0 
 3.496030e-02  -9.044267e-02  0 
 3.775517e-02  -9.073813e-02  0 
 4.047065e-02  -9.101362e-02  0 
 4.312234e-02  -9.125094e-02  0 
 4.567592e-02  -9.146110e-02  0 
 4.806220e-02  -9.163022e-02  0 
 5.010476e-02  -9.167091e-02  0 
 3.493379e-02  -9.345751e-02  0 
 3.777253e-02  -9.361324e-02  0 
 4.050257e-02  -9.376736e-02  0 
 4.314985e-02  -9.388796e-02  0 
 4.570856e-02  -9.395453e-02  0 
 4.810849e-02  -9.396800e-02  0 
 5.035985e-02  -9.396917e-02  0 
 3.491253e-02  -9.644925e-02  0 
 3.774144e-02  -9.652617e-02  0 
 4.047424e-02  -9.656950e-02  0 
 4.312734e-02  -9.659125e-02  0 
 4.570769e-02  -9.657603e-02  0 
 4.825373e-02  -9.652334e-02  0 
 5.057975e-02  -9.646351e-02  0 
 3.492166e-02  -9.942553e-02  0 
 3.769520e-02  -9.943225e-02  0 
 4.039502e-02  -9.941681e-02  0 
 4.309873e-02  -9.937150e-02  0 
 4.570674e-02  -9.933196e-02  0 
 4.846178e-02  -9.941963e-02  0 
 3.487519e-02  -1.024257e-01  0 
 3.763102e-02  -1.022850e-01  0 
 4.024946e-02  -1.021702e-01  0 
 5.314259e-02  -9.313303e-02  0 
 5.498633e-02  -9.426766e-02  0 
 5.843177e-02  -9.602051e-02  0 
 5.426662e-02  -9.498132e-02  0 
 5.591449e-02  -9.581958e-02  0 
VECTORS displacement_ITER6 FLOAT
 4.981209e-02  -8.935705e-02  0 
 4.583959e-02  -7.244824e-02  0 
 4.629568e-02  -7.571334e-02  0 
 4.672125e-02  -7.888043e-02  0 
 4.717299e-02  -8.197879e-02  0 
 4.773764e-02  -8.496270e-02  0 
 4.852164e-02  -8.765879e-02  0 
 3.392036e-02  -8.655114e-02  0 
 3.666566e-02  -8.702088e-02  0 
 3.935061e-02  -8.736168e-02  0 
 4.198552e-02  -8.765466e-02  0 
 4.455077e-02  -8.795184e-02  0 
 4.698103e-02  -8.831259e-02  0 
 4.908434e-02  -8.881702e-02  0 
 5.085416e-02  -8.989670e-02  0 
 5.335082e-02  -9.042861e-02  0 
 5.632342e-02  -9.078661e-02  0 
 5.110230e-02  -9.073872e-02  0 
 5.187261e-02  -9.309202e-02  0 
 5.241699e-02  -9.578044e-02  0 
 3.675345e-02  -7.036471e-02  0 
 3.984527e-02  -7.123398e-02  0 
 4.217351e-02  -7.132752e-02  0 
 3.036017e-02  -6.962829e-02  0 
 3.235337e-02  -7.092576e-02  0 
 3.430509e-02  -7.209487e-02  0 
 3.642149e-02  -7.320130e-02  0 
 3.826861e-02  -7.412600e-02  0 
 4.076346e-02  -7.477775e-02  0 
 4.350943e-02  -7.542243e-02  0 
 3.094140e-02  -7.331077e-02  0 
 3.330291e-02  -7.421287e-02  0 
 3.549062e-02  -7.528852e-02  0 
 3.759553e-02  -7.630937e-02  0 
 3.969731e-02  -7.728694e-02  0 
 4.194268e-02  -7.817192e-02  0 
 4.433781e-02  -7.873213e-02  0 
 3.167611e-02  -7.649491e-02  0 
 3.418599e-02  -7.749357e-02  0 
 3.657788e-02  -7.842225e-02  0 
 3.883206e-02  -7.936243e-02  0 
 4.099753e-02  -8.029591e-02  0 
 4.308738e-02  -8.114990e-02  0 
 4.512895e-02  -8.176399e-02  0 
 3.250480e-02  -7.974437e-02  0 
 3.509620e-02  -8.066749e-02  0 
 3.762041e-02  -8.149462e-02  0 
 4.001130e-02  -8.226673e-02  0 
 4.224810e-02  -8.303837e-02  0 
 4.427766e-02  -8.381825e-02  0 
 4.606398e-02  -8.453417e-02  0 
 3.320299e-02  -8.304564e-02  0 
 3.596949e-02  -8.384777e-02  0 
 3.857352e-02  -8.447157e-02  0 
 4.107707e-02  -8.501790e-02  0 
 4.344804e-02  -8.555834e-02  0 
 4.559987e-02  -8.615829e-02  0 
 4.733876e-02  -8.690168e-02  0 
 4.921525e-02  -7.254847e-02  0 
 4.952014e-02  -7.579946e-02  0 
 4.981511e-02  -7.898213e-02  0 
 5.019628e-02  -8.209802e-02  0 
 5.316083e-02  -8.213059e-02  0 
 5.051707e-02  -8.507159e-02  0 
 5.322284e-02  -8.506786e-02  0 
 5.077525e-02  -8.776057e-02  0 
 5.325098e-02  -8.770598e-02  0 
 5.628754e-02  -8.770266e-02  0 
 3.400482e-02  -8.949502e-02  0 
 3.675277e-02  -8.979150e-02  0 
 3.942640e-02  -9.004851e-02  0 
 4.205601e-02  -9.026173e-02  0 
 4.462189e-02  -9.044621e-02  0 
 4.706041e-02  -9.059087e-02  0 
 4.918391e-02  -9.061478e-02  0 
 3.398235e-02  -9.250770e-02  0 
 3.676130e-02  -9.264529e-02  0 
 3.944258e-02  -9.278521e-02  0 
 4.206834e-02  -9.289752e-02  0 
 4.463908e-02  -9.296747e-02  0 
 4.709191e-02  -9.298518e-02  0 
 4.944515e-02  -9.298974e-02  0 
 3.395431e-02  -9.546491e-02  0 
 3.671354e-02  -9.552282e-02  0 
 3.938749e-02  -9.556025e-02  0 
 4.202940e-02  -9.559217e-02  0 
 4.463524e-02  -9.561036e-02  0 
 4.721255e-02  -9.559757e-02  0 
 4.969614e-02  -9.561911e-02  0 
 3.398379e-02  -9.834515e-02  0 
 3.664993e-02  -9.834145e-02  0 
 3.926983e-02  -9.835068e-02  0 
 4.199839e-02  -9.838656e-02  0 
 4.464038e-02  -9.838499e-02  0 
 4.735447e-02  -9.844306e-02  0 
 3.396537e-02  -1.011238e-01  0 
 3.659072e-02  -1.010580e-01  0 
 3.905951e-02  -1.009380e-01  0 
 5.255458e-02  -9.213423e-02  0 
 5.481113e-02  -9.352398e-02  0 
 5.923202e-02  -9.584107e-02  0 
 5.404228e-02  -9.456122e-02  0 
 5.661873e-02  -9.585124e-02  0 
VECTORS displacement_ITER7 FLOAT
 4.994955e-02  -8.906636e-02  0 
 4.590636e-02  -7.183378e-02  0 
 4.638610e-02  -7.521260e-02  0 
 4.683827e-02  -7.843971e-02  0 
 4.729468e-02  -8.156539e-02  0 
 4.785212e-02  -8.458474e-02  0 
 4.864330e-02  -8.733098e-02  0 
 3.382356e-02  -8.633470e-02  0 
 3.656888e-02  -8.676861e-02  0 
 3.928485e-02  -8.708847e-02  0 
 4.195938e-02  -8.736790e-02  0 
 4.456845e-02  -8.765576e-02  0 
 4.704497e-02  -8.801216e-02  0 
 4.919339e-02  -8.851830e-02  0 
 5.102479e-02  -8.961644e-02  0 
 5.356519e-02  -9.015586e-02  0 
 5.657151e-02  -9.052154e-02  0 
 5.125430e-02  -9.047902e-02  0 
 5.203433e-02  -9.288206e-02  0 
 5.258667e-02  -9.562215e-02  0 
 3.803416e-02  -7.124589e-02  0 
 4.033192e-02  -7.169443e-02  0 
 4.274795e-02  -7.163666e-02  0 
 3.169143e-02  -6.911398e-02  0 
 3.289725e-02  -7.044149e-02  0 
 3.464004e-02  -7.160225e-02  0 
 3.681591e-02  -7.282952e-02  0 
 3.901966e-02  -7.405831e-02  0 
 4.122792e-02  -7.474045e-02  0 
 4.369556e-02  -7.517219e-02  0 
 3.186050e-02  -7.228674e-02  0 
 3.387515e-02  -7.339935e-02  0 
 3.589252e-02  -7.471848e-02  0 
 3.804431e-02  -7.594436e-02  0 
 4.015949e-02  -7.697710e-02  0 
 4.226504e-02  -7.781724e-02  0 
 4.448757e-02  -7.833731e-02  0 
 3.230724e-02  -7.540731e-02  0 
 3.469505e-02  -7.662079e-02  0 
 3.700073e-02  -7.778056e-02  0 
 3.920337e-02  -7.887748e-02  0 
 4.130871e-02  -7.986102e-02  0 
 4.331559e-02  -8.071435e-02  0 
 4.527959e-02  -8.133640e-02  0 
 3.287326e-02  -7.879385e-02  0 
 3.546790e-02  -7.989481e-02  0 
 3.795464e-02  -8.087438e-02  0 
 4.028790e-02  -8.174609e-02  0 
 4.246891e-02  -8.256891e-02  0 
 4.445302e-02  -8.337628e-02  0 
 4.620429e-02  -8.412247e-02  0 
 3.334292e-02  -8.236457e-02  0 
 3.615037e-02  -8.329864e-02  0 
 3.874147e-02  -8.398044e-02  0 
 4.122520e-02  -8.456667e-02  0 
 4.358133e-02  -8.513595e-02  0 
 4.572874e-02  -8.575931e-02  0 
 4.746856e-02  -8.652974e-02  0 
 4.940473e-02  -7.194051e-02  0 
 4.970246e-02  -7.529965e-02  0 
 4.997283e-02  -7.854512e-02  0 
 5.034434e-02  -8.167490e-02  0 
 5.337971e-02  -8.167879e-02  0 
 5.067536e-02  -8.469620e-02  0 
 5.343890e-02  -8.469409e-02  0 
 5.094165e-02  -8.743767e-02  0 
 5.346476e-02  -8.739218e-02  0 
 5.653809e-02  -8.740644e-02  0 
 3.389136e-02  -8.926131e-02  0 
 3.664956e-02  -8.956078e-02  0 
 3.935516e-02  -8.981196e-02  0 
 4.202476e-02  -9.001709e-02  0 
 4.463603e-02  -9.019512e-02  0 
 4.712269e-02  -9.033569e-02  0 
 4.929241e-02  -9.035667e-02  0 
 3.384281e-02  -9.231067e-02  0 
 3.665340e-02  -9.244886e-02  0 
 3.936589e-02  -9.258455e-02  0 
 4.203309e-02  -9.269237e-02  0 
 4.464953e-02  -9.276084e-02  0 
 4.715193e-02  -9.277438e-02  0 
 4.955586e-02  -9.277696e-02  0 
 3.378846e-02  -9.534195e-02  0 
 3.658666e-02  -9.537210e-02  0 
 3.929820e-02  -9.540013e-02  0 
 4.199047e-02  -9.542797e-02  0 
 4.464795e-02  -9.544687e-02  0 
 4.726287e-02  -9.543601e-02  0 
 4.981907e-02  -9.545693e-02  0 
 3.379920e-02  -9.824402e-02  0 
 3.649925e-02  -9.822549e-02  0 
 3.916332e-02  -9.823705e-02  0 
 4.195507e-02  -9.828332e-02  0 
 4.465635e-02  -9.826359e-02  0 
 4.739971e-02  -9.830099e-02  0 
 3.377987e-02  -1.009919e-01  0 
 3.643301e-02  -1.009707e-01  0 
 3.895900e-02  -1.008732e-01  0 
 5.274963e-02  -9.168790e-02  0 
 5.488047e-02  -9.275276e-02  0 
 5.810194e-02  -9.395615e-02  0 
 5.411815e-02  -9.374442e-02  0 
 5.629361e-02  -9.464955e-02  0 
VECTORS displacement_ITER8 FLOAT
 4.968089e-02  -8.898689e-02  0 
 4.572668e-02  -7.158055e-02  0 
 4.619588e-02  -7.497145e-02  0 
 4.663228e-02  -7.821543e-02  0 
 4.707148e-02  -8.136166e-02  0 
 4.761032e-02  -8.440913e-02  0 
 4.838896e-02  -8.719664e-02  0 
 3.360524e-02  -8.631391e-02  0 
 3.631653e-02  -8.673119e-02  0 
 3.901409e-02  -8.704136e-02  0 
 4.167729e-02  -8.731543e-02  0 
 4.427953e-02  -8.759807e-02  0 
 4.675358e-02  -8.794726e-02  0 
 4.890549e-02  -8.844493e-02  0 
 5.082002e-02  -8.953200e-02  0 
 5.339624e-02  -9.005805e-02  0 
 5.640231e-02  -9.041205e-02  0 
 5.097297e-02  -9.041068e-02  0 
 5.175206e-02  -9.282031e-02  0 
 5.230390e-02  -9.556750e-02  0 
 3.784560e-02  -7.122053e-02  0 
 4.016338e-02  -7.163457e-02  0 
 4.274689e-02  -7.166214e-02  0 
 3.091572e-02  -6.925888e-02  0 
 3.218475e-02  -7.049345e-02  0 
 3.402765e-02  -7.161272e-02  0 
 3.634592e-02  -7.281062e-02  0 
 3.877351e-02  -7.404037e-02  0 
 4.105976e-02  -7.469653e-02  0 
 4.352853e-02  -7.502960e-02  0 
 3.126193e-02  -7.232099e-02  0 
 3.327536e-02  -7.346912e-02  0 
 3.537030e-02  -7.478169e-02  0 
 3.763355e-02  -7.599775e-02  0 
 3.985778e-02  -7.698756e-02  0 
 4.202482e-02  -7.774870e-02  0 
 4.426635e-02  -7.818683e-02  0 
 3.182939e-02  -7.543149e-02  0 
 3.422557e-02  -7.667568e-02  0 
 3.656306e-02  -7.785113e-02  0 
 3.882090e-02  -7.893153e-02  0 
 4.097969e-02  -7.986849e-02  0 
 4.302899e-02  -8.065321e-02  0 
 4.502593e-02  -8.120139e-02  0 
 3.250991e-02  -7.882165e-02  0 
 3.509777e-02  -7.993751e-02  0 
 3.758567e-02  -8.091809e-02  0 
 3.993342e-02  -8.177495e-02  0 
 4.213624e-02  -8.256330e-02  0 
 4.414529e-02  -8.332169e-02  0 
 4.592664e-02  -8.400952e-02  0 