# vtk DataFile Version 3.1
this is an vtk file created by FEMAC
ASCII
DATASET UNSTRUCTURED_GRID
POINTS 101 FLOAT
3.000000 5.000000 0.000000
3.000000 6.000000 0.000000
2.444444 5.000000 0.000000
2.555556 5.000000 0.000000
2.666667 5.000000 0.000000
2.777778 5.000000 0.000000
2.888889 5.000000 0.000000
3.000000 4.888889 0.000000
2.333333 6.000000 0.000000
2.444444 6.000000 0.000000
2.555556 6.000000 0.000000
2.666667 6.000000 0.000000
2.777778 6.000000 0.000000
2.888889 6.000000 0.000000
3.000000 5.111111 0.000000
3.000000 5.222222 0.000000
3.000000 5.333333 0.000000
3.000000 5.444444 0.000000
3.000000 5.555556 0.000000
3.000000 5.666667 0.000000
3.000000 5.777778 0.000000
3.000000 5.888889 0.000000
3.111111 5.000000 0.000000
3.222222 5.000000 0.000000
3.333333 5.000000 0.000000
3.111111 6.000000 0.000000
3.222222 6.000000 0.000000
2.444444 4.888889 0.000000
2.555556 4.888889 0.000000
2.666667 4.888889 0.000000
2.777778 4.888889 0.000000
2.888889 4.888889 0.000000
2.333333 5.555556 0.000000
2.333333 5.666667 0.000000
2.333333 5.777778 0.000000
2.333333 5.888889 0.000000
2.444444 5.111111 0.000000
2.444444 5.222222 0.000000
2.444444 5.333333 0.000000
2.444444 5.444444 0.000000
2.444444 5.555556 0.000000
2.444444 5.666667 0.000000
2.444444 5.777778 0.000000
2.444444 5.888889 0.000000
2.555556 5.111111 0.000000
2.555556 5.222222 0.000000
2.555556 5.333333 0.000000
2.555556 5.444444 0.000000
2.555556 5.555556 0.000000
2.555556 5.666667 0.000000
2.555556 5.777778 0.000000
2.555556 5.888889 0.000000
2.666667 5.111111 0.000000
2.666667 5.222222 0.000000
2.666667 5.333333 0.000000
2.666667 5.444444 0.000000
2.666667 5.555556 0.000000
2.666667 5.666667 0.000000
2.666667 5.777778 0.000000
2.666667 5.888889 0.000000
2.777778 5.111111 0.000000
2.777778 5.222222 0.000000
2.777778 5.333333 0.000000
2.777778 5.444444 0.000000
2.777778 5.555556 0.000000
2.777778 5.666667 0.000000
2.777778 5.777778 0.000000
2.777778 5.888889 0.000000
2.888889 5.111111 0.000000
2.888889 5.222222 0.000000
2.888889 5.333333 0.000000
2.888889 5.444444 0.000000
2.888889 5.555556 0.000000
2.888889 5.666667 0.000000
2.888889 5.777778 0.000000
2.888889 5.888889 0.000000
3.111111 4.888889 0.000000
3.222222 4.888889 0.000000
3.333333 4.888889 0.000000
3.111111 5.111111 0.000000
3.111111 5.222222 0.000000
3.111111 5.333333 0.000000
3.111111 5.444444 0.000000
3.111111 5.555556 0.000000
3.111111 5.666667 0.000000
3.111111 5.777778 0.000000
3.111111 5.888889 0.000000
3.222222 5.111111 0.000000
3.222222 5.222222 0.000000
3.222222 5.333333 0.000000
3.222222 5.444444 0.000000
3.222222 5.555556 0.000000
3.222222 5.666667 0.000000
3.222222 5.777778 0.000000
3.222222 5.888889 0.000000
3.333333 5.111111 0.000000
3.333333 5.222222 0.000000
3.333333 5.333333 0.000000
3.333333 5.444444 0.000000
3.333333 5.555556 0.000000
3.333333 5.666667 0.000000
CELLS 81 405 
4 27 28  3  2
4 28 29  4  3
4 29 30  5  4
4 30 31  6  5
4 31  7  0  6
4 32 40 41 33
4 33 41 42 34
4 34 42 43 35
4 35 43  9  8
4 2  3 44 36
4 36 44 45 37
4 37 45 46 38
4 38 46 47 39
4 39 47 48 40
4 40 48 49 41
4 41 49 50 42
4 42 50 51 43
4 43 51 10  9
4 3  4 52 44
4 44 52 53 45
4 45 53 54 46
4 46 54 55 47
4 47 55 56 48
4 48 56 57 49
4 49 57 58 50
4 50 58 59 51
4 51 59 11 10
4 4  5 60 52
4 52 60 61 53
4 53 61 62 54
4 54 62 63 55
4 55 63 64 56
4 56 64 65 57
4 57 65 66 58
4 58 66 67 59
4 59 67 12 11
4 5  6 68 60
4 60 68 69 61
4 61 69 70 62
4 62 70 71 63
4 63 71 72 64
4 64 72 73 65
4 65 73 74 66
4 66 74 75 67
4 67 75 13 12
4 6  0 14 68
4 68 14 15 69
4 69 15 16 70
4 70 16 17 71
4 71 17 18 72
4 72 18 19 73
4 73 19 20 74
4 74 20 21 75
4 75 21  1 13
4 7 76 22  0
4 76 77 23 22
4 77 78 24 23
4 0 22 79 14
4 14 79 80 15
4 15 80 81 16
4 16 81 82 17
4 17 82 83 18
4 18 83 84 19
4 19 84 85 20
4 20 85 86 21
4 21 86 25  1
4 22 23 87 79
4 79 87 88 80
4 80 88 89 81
4 81 89 90 82
4 82 90 91 83
4 83 91 92 84
4 84 92 93 85
4 85 93 94 86
4 86 94 26 25
4 23 24 95 87
4 87 95 96 88
4 88 96 97 89
4 89 97 98 90
4 90 98 99 91
4 91  99 100  92
CELL_TYPES 81
9 9 9 9 9 9 9 9 9 9 9 9 9 9 9 9 9 9 9 9 9 9 9 9 9 9 9 9 9 9 9 9 9 9 9 9 9 9 9 9 9 9 9 9 9 9 9 9 9 9 9 9 9 9 9 9 9 9 9 9 9 9 9 9 9 9 9 9 9 9 9 9 9 9 9 9 9 9 9 9 9 
POINT_DATA 101
VECTORS displacement_ITER1 FLOAT
 4.858492e-02  -7.855130e-02  0 
 7.994728e-02  -8.186087e-02  0 
 4.353616e-02  -5.924615e-02  0 
 4.387854e-02  -6.195893e-02  0 
 4.436465e-02  -6.420456e-02  0 
 4.546346e-02  -6.690925e-02  0 
 4.716028e-02  -7.148586e-02  0 
 4.100246e-02  -7.805950e-02  0 
 7.014346e-02  -7.684710e-02  0 
 7.112004e-02  -7.625138e-02  0 
 7.188197e-02  -7.805784e-02  0 
 7.265043e-02  -7.973049e-02  0 
 7.384542e-02  -8.092671e-02  0 
 7.592888e-02  -8.160630e-02  0 
 5.399730e-02  -7.936308e-02  0 
 5.804185e-02  -8.006165e-02  0 
 6.163251e-02  -8.063712e-02  0 
 6.490449e-02  -8.111701e-02  0 
 6.795083e-02  -8.147001e-02  0 
 7.090780e-02  -8.166461e-02  0 
 7.388024e-02  -8.175718e-02  0 
 7.690319e-02  -8.181572e-02  0 
 4.966889e-02  -8.368704e-02  0 
 5.028439e-02  -8.768895e-02  0 
 5.055700e-02  -9.159765e-02  0 
 7.999715e-02  -8.491956e-02  0 
 7.991186e-02  -8.791266e-02  0 
 4.050502e-02  -5.898229e-02  0 
 4.146835e-02  -6.183979e-02  0 
 4.193355e-02  -6.414908e-02  0 
 4.200680e-02  -6.652067e-02  0 
 4.125832e-02  -7.127832e-02  0 
 5.605441e-02  -6.966015e-02  0 
 6.253423e-02  -7.166452e-02  0 
 6.624369e-02  -7.271579e-02  0 
 6.931304e-02  -7.396089e-02  0 
 4.450927e-02  -6.513583e-02  0 
 4.767144e-02  -6.838539e-02  0 
 5.165738e-02  -7.077532e-02  0 
 5.590250e-02  -7.335115e-02  0 
 5.893099e-02  -7.449606e-02  0 
 6.314711e-02  -7.485423e-02  0 
 6.680386e-02  -7.546012e-02  0 
 6.960910e-02  -7.611817e-02  0 
 4.719690e-02  -6.532526e-02  0 
 5.025966e-02  -6.915461e-02  0 
 5.400335e-02  -7.216404e-02  0 
 5.761701e-02  -7.421237e-02  0 
 6.095676e-02  -7.575746e-02  0 
 6.433853e-02  -7.686828e-02  0 
 6.753281e-02  -7.747672e-02  0 
 6.997778e-02  -7.781094e-02  0 
 4.878903e-02  -6.749239e-02  0 
 5.275777e-02  -7.079003e-02  0 
 5.631405e-02  -7.360077e-02  0 
 5.970266e-02  -7.564906e-02  0 
 6.294799e-02  -7.711874e-02  0 
 6.600168e-02  -7.816522e-02  0 
 6.872643e-02  -7.886299e-02  0 
 7.095592e-02  -7.936187e-02  0 
 5.055794e-02  -7.053812e-02  0 
 5.487862e-02  -7.340238e-02  0 
 5.849842e-02  -7.562524e-02  0 
 6.175266e-02  -7.730375e-02  0 
 6.483567e-02  -7.849519e-02  0 
 6.774596e-02  -7.929507e-02  0 
 7.038869e-02  -7.984777e-02  0 
 7.250014e-02  -8.039679e-02  0 
 5.252041e-02  -7.459087e-02  0 
 5.673059e-02  -7.661320e-02  0 
 6.030050e-02  -7.805688e-02  0 
 6.351373e-02  -7.915382e-02  0 
 6.652811e-02  -7.994003e-02  0 
 6.941529e-02  -8.043557e-02  0 
 7.216660e-02  -8.071503e-02  0 
 7.463917e-02  -8.093422e-02  0 
 4.467732e-02  -8.306280e-02  0 
 4.691920e-02  -8.741649e-02  0 
 5.033633e-02  -9.010859e-02  0 
 5.409670e-02  -8.378151e-02  0 
 5.815919e-02  -8.387947e-02  0 
 6.175747e-02  -8.408199e-02  0 
 6.501780e-02  -8.429650e-02  0 
 6.803326e-02  -8.448771e-02  0 
 7.093734e-02  -8.464722e-02  0 
 7.391289e-02  -8.475128e-02  0 
 7.696037e-02  -8.486605e-02  0 
 5.425995e-02  -8.774229e-02  0 
 5.818734e-02  -8.765510e-02  0 
 6.181027e-02  -8.755249e-02  0 
 6.508894e-02  -8.749022e-02  0 
 6.808041e-02  -8.750486e-02  0 
 7.093579e-02  -8.758175e-02  0 
 7.395086e-02  -8.790433e-02  0 
 7.706469e-02  -8.796170e-02  0 
 5.447587e-02  -9.152957e-02  0 
 5.822238e-02  -9.136574e-02  0 
 6.179560e-02  -9.097269e-02  0 
 6.508977e-02  -9.063003e-02  0 
 6.809543e-02  -9.033954e-02  0 
 7.052727e-02  -9.000312e-02  0 
VECTORS displacement_ITER2 FLOAT
 4.884288e-02  -6.756066e-02  0 
 8.509760e-02  -7.059988e-02  0 
 4.423790e-02  -4.877748e-02  0 
 4.462991e-02  -5.186319e-02  0 
 4.505379e-02  -5.438877e-02  0 
 4.598029e-02  -5.707961e-02  0 
 4.746706e-02  -6.117870e-02  0 
 4.199575e-02  -6.696609e-02  0 
 5.448617e-02  -6.470793e-02  0 
 6.162658e-02  -6.298956e-02  0 
 6.670301e-02  -6.475596e-02  0 
 7.084225e-02  -6.689175e-02  0 
 7.478026e-02  -6.876204e-02  0 
 7.910688e-02  -7.011704e-02  0 
 5.465015e-02  -6.840295e-02  0 
 5.911436e-02  -6.906277e-02  0 
 6.318538e-02  -6.955413e-02  0 
 6.701781e-02  -6.993589e-02  0 
 7.068983e-02  -7.021157e-02  0 
 7.429113e-02  -7.037756e-02  0 
 7.788577e-02  -7.047531e-02  0 
 8.149582e-02  -7.054525e-02  0 
 4.991973e-02  -7.315696e-02  0 
 5.057870e-02  -7.757999e-02  0 
 5.092857e-02  -8.176902e-02  0 
 8.517415e-02  -7.421234e-02  0 
 8.515276e-02  -7.781073e-02  0 
 4.104502e-02  -4.865437e-02  0 
 4.191057e-02  -5.177590e-02  0 
 4.247822e-02  -5.431582e-02  0 
 4.275590e-02  -5.675307e-02  0 
 4.225341e-02  -6.098676e-02  0 
 4.872180e-02  -5.344308e-02  0 
 5.491184e-02  -5.634946e-02  0 
 5.715411e-02  -5.878225e-02  0 
 5.806513e-02  -6.131822e-02  0 
 4.629945e-02  -5.141759e-02  0 
 4.889216e-02  -5.327592e-02  0 
 5.154752e-02  -5.510298e-02  0 
 5.386814e-02  -5.728373e-02  0 
 5.423624e-02  -5.858565e-02  0 
 5.761665e-02  -5.964556e-02  0 
 6.018755e-02  -6.071897e-02  0 
 6.129133e-02  -6.177391e-02  0 
 4.784862e-02  -5.334434e-02  0 
 5.085250e-02  -5.530222e-02  0 
 5.384927e-02  -5.711980e-02  0 
 5.627936e-02  -5.856174e-02  0 
 5.845827e-02  -6.018728e-02  0 
 6.084950e-02  -6.170879e-02  0 
 6.317278e-02  -6.265572e-02  0 
 6.493310e-02  -6.355550e-02  0 
 4.908478e-02  -5.603964e-02  0 
 5.285923e-02  -5.783183e-02  0 
 5.617837e-02  -5.946177e-02  0 
 5.916109e-02  -6.088611e-02  0 
 6.191219e-02  -6.221718e-02  0 
 6.443625e-02  -6.344533e-02  0 
 6.673505e-02  -6.455714e-02  0 
 6.883179e-02  -6.568982e-02  0 
 5.067175e-02  -5.928925e-02  0 
 5.492654e-02  -6.104671e-02  0 
 5.864035e-02  -6.244298e-02  0 
 6.198066e-02  -6.359283e-02  0 
 6.507524e-02  -6.457515e-02  0 
 6.796236e-02  -6.546080e-02  0 
 7.064219e-02  -6.636900e-02  0 
 7.294488e-02  -6.751379e-02  0 
 5.266615e-02  -6.340445e-02  0 
 5.710335e-02  -6.486434e-02  0 
 6.101443e-02  -6.586380e-02  0 
 6.461280e-02  -6.663216e-02  0 
 6.801259e-02  -6.725084e-02  0 
 7.128008e-02  -6.777066e-02  0 
 7.443319e-02  -6.826179e-02  0 
 7.735812e-02  -6.886178e-02  0 
 4.566381e-02  -7.261450e-02  0 
 4.797375e-02  -7.722542e-02  0 
 5.162335e-02  -7.999351e-02  0 
 5.475576e-02  -7.325150e-02  0 
 5.922592e-02  -7.334669e-02  0 
 6.329699e-02  -7.353361e-02  0 
 6.711567e-02  -7.371590e-02  0 
 7.076719e-02  -7.386819e-02  0 
 7.433835e-02  -7.399292e-02  0 
 7.793625e-02  -7.407838e-02  0 
 8.156075e-02  -7.416575e-02  0 
 5.492298e-02  -7.764826e-02  0 
 5.926047e-02  -7.760360e-02  0 
 6.334420e-02  -7.754534e-02  0 
 6.716913e-02  -7.752078e-02  0 
 7.080653e-02  -7.754166e-02  0 
 7.435931e-02  -7.759147e-02  0 
 7.797732e-02  -7.778099e-02  0 
 8.165908e-02  -7.782544e-02  0 
 5.517834e-02  -8.185046e-02  0 
 5.931650e-02  -8.176650e-02  0 
 6.334027e-02  -8.150125e-02  0 
 6.716944e-02  -8.128655e-02  0 
 7.081254e-02  -8.112288e-02  0 
 7.415471e-02  -8.095304e-02  0 
VECTORS displacement_ITER3 FLOAT
 4.649248e-02  -6.729910e-02  0 
 8.063226e-02  -7.022480e-02  0 
 4.188168e-02  -5.051385e-02  0 
 4.240311e-02  -5.310082e-02  0 
 4.294547e-02  -5.554791e-02  0 
 4.379634e-02  -5.818013e-02  0 
 4.509841e-02  -6.178286e-02  0 
 4.051787e-02  -6.663216e-02  0 
 5.697831e-02  -6.267143e-02  0 
 6.165489e-02  -6.300845e-02  0 
 6.516456e-02  -6.514582e-02  0 
 6.823660e-02  -6.722943e-02  0 
 7.138277e-02  -6.887943e-02  0 
 7.510182e-02  -6.995413e-02  0 
 5.213054e-02  -6.816181e-02  0 
 5.633680e-02  -6.884285e-02  0 
 6.013581e-02  -6.933223e-02  0 
 6.370388e-02  -6.969239e-02  0 
 6.712958e-02  -6.993849e-02  0 
 7.049480e-02  -7.007611e-02  0 
 7.386287e-02  -7.014128e-02  0 
 7.725473e-02  -7.018218e-02  0 
 4.767172e-02  -7.264860e-02  0 
 4.840129e-02  -7.677912e-02  0 
 4.887810e-02  -8.069143e-02  0 
 8.071688e-02  -7.360897e-02  0 
 8.077195e-02  -7.703991e-02  0 
 3.927761e-02  -5.032533e-02  0 
 3.991542e-02  -5.298393e-02  0 
 4.039005e-02  -5.544643e-02  0 
 4.077947e-02  -5.791412e-02  0 
 4.063491e-02  -6.158092e-02  0 
 4.755924e-02  -5.511226e-02  0 
 5.276660e-02  -5.699537e-02  0 
 5.561978e-02  -5.870047e-02  0 
 5.761168e-02  -6.046112e-02  0 
 4.245000e-02  -5.300291e-02  0 
 4.467231e-02  -5.437172e-02  0 
 4.749181e-02  -5.566888e-02  0 
 5.033048e-02  -5.747760e-02  0 
 5.186810e-02  -5.897099e-02  0 
 5.531140e-02  -6.014244e-02  0 
 5.822760e-02  -6.114895e-02  0 
 6.020241e-02  -6.208051e-02  0 
 4.470498e-02  -5.444998e-02  0 
 4.715182e-02  -5.633602e-02  0 
 5.012456e-02  -5.801793e-02  0 
 5.296858e-02  -5.941212e-02  0 
 5.562910e-02  -6.090988e-02  0 
 5.832696e-02  -6.232824e-02  0 
 6.092729e-02  -6.332142e-02  0 
 6.310142e-02  -6.420024e-02  0 
 4.630498e-02  -5.694882e-02  0 
 4.960795e-02  -5.867367e-02  0 
 5.278555e-02  -6.033644e-02  0 
 5.588169e-02  -6.175328e-02  0 
 5.884030e-02  -6.301037e-02  0 
 6.158389e-02  -6.415497e-02  0 
 6.406760e-02  -6.520988e-02  0 
 6.627009e-02  -6.624257e-02  0 
 4.800894e-02  -5.996530e-02  0 
 5.192233e-02  -6.162621e-02  0 
 5.544764e-02  -6.305558e-02  0 
 5.872307e-02  -6.423418e-02  0 
 6.183593e-02  -6.519502e-02  0 
 6.477368e-02  -6.601716e-02  0 
 6.747847e-02  -6.682485e-02  0 
 6.972738e-02  -6.782169e-02  0 
 5.001506e-02  -6.369525e-02  0 
 5.422313e-02  -6.509057e-02  0 
 5.792503e-02  -6.610585e-02  0 
 6.135122e-02  -6.689330e-02  0 
 6.461690e-02  -6.750240e-02  0 
 6.777183e-02  -6.797379e-02  0 
 7.080397e-02  -6.837743e-02  0 
 7.356916e-02  -6.885554e-02  0 
 4.307925e-02  -7.072756e-02  0 
 4.528291e-02  -7.497617e-02  0 
 4.791810e-02  -7.437666e-02  0 
 5.224804e-02  -7.276602e-02  0 
 5.645210e-02  -7.286284e-02  0 
 6.024157e-02  -7.304497e-02  0 
 6.379309e-02  -7.321690e-02  0 
 6.719633e-02  -7.335354e-02  0 
 7.053459e-02  -7.345495e-02  0 
 7.389762e-02  -7.352027e-02  0 
 7.730440e-02  -7.357537e-02  0 
 5.245959e-02  -7.688517e-02  0 
 5.648831e-02  -7.684431e-02  0 
 6.028341e-02  -7.679178e-02  0 
 6.383667e-02  -7.677544e-02  0 
 6.722865e-02  -7.679231e-02  0 
 7.054366e-02  -7.683096e-02  0 
 7.392448e-02  -7.696329e-02  0 
 7.736537e-02  -7.702388e-02  0 
 5.274306e-02  -8.075865e-02  0 
 5.655844e-02  -8.069952e-02  0 
 6.028628e-02  -8.047962e-02  0 
 6.383287e-02  -8.029361e-02  0 
 6.722564e-02  -8.017032e-02  0 
 7.043625e-02  -8.006923e-02  0 
VECTORS displacement_ITER4 FLOAT
 4.394166e-02  -6.438969e-02  0 
 7.458450e-02  -6.730071e-02  0 
 3.938207e-02  -4.972087e-02  0 
 3.995088e-02  -5.192823e-02  0 
 4.053721e-02  -5.413813e-02  0 
 4.133929e-02  -5.648482e-02  0 
 4.254834e-02  -5.956074e-02  0 
 3.868185e-02  -6.367330e-02  0 
 5.792200e-02  -6.099803e-02  0 
 6.012793e-02  -6.222492e-02  0 
 6.209488e-02  -6.411850e-02  0 
 6.411532e-02  -6.570098e-02  0 
 6.647983e-02  -6.680400e-02  0 
 6.958331e-02  -6.737687e-02  0 
 4.921874e-02  -6.528109e-02  0 
 5.303802e-02  -6.597272e-02  0 
 5.644713e-02  -6.645807e-02  0 
 5.963095e-02  -6.680672e-02  0 
 6.267672e-02  -6.704131e-02  0 
 6.565696e-02  -6.717336e-02  0 
 6.863054e-02  -6.723253e-02  0 
 7.161906e-02  -6.726437e-02  0 
 4.513590e-02  -6.939033e-02  0 
 4.588015e-02  -7.314829e-02  0 
 4.635625e-02  -7.665118e-02  0 
 7.466816e-02  -7.026995e-02  0 
 7.475889e-02  -7.332046e-02  0 
 3.714068e-02  -4.947055e-02  0 
 3.773692e-02  -5.178469e-02  0 
 3.822482e-02  -5.401706e-02  0 
 3.869570e-02  -5.624973e-02  0 
 3.874770e-02  -5.933702e-02  0 
 4.719505e-02  -5.640646e-02  0 
 5.097041e-02  -5.738587e-02  0 
 5.394556e-02  -5.841721e-02  0 
 5.651433e-02  -5.954947e-02  0 
 3.918104e-02  -5.249525e-02  0 
 4.124674e-02  -5.383650e-02  0 
 4.421233e-02  -5.500556e-02  0 
 4.746544e-02  -5.674841e-02  0 
 5.002252e-02  -5.855344e-02  0 
 5.309777e-02  -5.979594e-02  0 
 5.593144e-02  -6.077765e-02  0 
 5.828116e-02  -6.161964e-02  0 
 4.180134e-02  -5.343008e-02  0 
 4.394025e-02  -5.549520e-02  0 
 4.691199e-02  -5.728775e-02  0 
 5.004265e-02  -5.881679e-02  0 
 5.293734e-02  -6.025814e-02  0 
 5.562486e-02  -6.158691e-02  0 
 5.812667e-02  -6.262159e-02  0 
 6.025447e-02  -6.344537e-02  0 
 4.353620e-02  -5.559324e-02  0 
 4.655311e-02  -5.745513e-02  0 
 4.960375e-02  -5.928319e-02  0 
 5.267917e-02  -6.077412e-02  0 
 5.561645e-02  -6.199704e-02  0 
 5.829596e-02  -6.306345e-02  0 
 6.063507e-02  -6.403865e-02  0 
 6.257634e-02  -6.494098e-02  0 
 4.523800e-02  -5.822197e-02  0 
 4.887535e-02  -5.995986e-02  0 
 5.216816e-02  -6.148853e-02  0 
 5.524458e-02  -6.272018e-02  0 
 5.817492e-02  -6.366781e-02  0 
 6.091751e-02  -6.442271e-02  0 
 6.337297e-02  -6.511561e-02  0 
 6.528349e-02  -6.594548e-02  0 
 4.717324e-02  -6.144961e-02  0 
 5.107679e-02  -6.287485e-02  0 
 5.446773e-02  -6.392989e-02  0 
 5.758659e-02  -6.473879e-02  0 
 6.054900e-02  -6.533833e-02  0 
 6.339260e-02  -6.576366e-02  0 
 6.608485e-02  -6.608364e-02  0 
 6.846521e-02  -6.644210e-02  0 
 4.059797e-02  -6.790265e-02  0 
 4.212332e-02  -7.222934e-02  0 
 4.372461e-02  -7.552209e-02  0 
 4.933800e-02  -6.950791e-02  0 
 5.315067e-02  -6.960340e-02  0 
 5.654689e-02  -6.978271e-02  0 
 5.971169e-02  -6.994612e-02  0 
 6.273581e-02  -7.007055e-02  0 
 6.569320e-02  -7.015819e-02  0 
 6.865703e-02  -7.021189e-02  0 
 7.165721e-02  -7.024682e-02  0 
 4.954752e-02  -7.324105e-02  0 
 5.318406e-02  -7.319755e-02  0 
 5.658089e-02  -7.314236e-02  0 
 5.974319e-02  -7.312393e-02  0 
 6.275835e-02  -7.313037e-02  0 
 6.569956e-02  -7.315069e-02  0 
 6.867251e-02  -7.323395e-02  0 
 7.169114e-02  -7.328578e-02  0 
 4.983521e-02  -7.672698e-02  0 
 5.325248e-02  -7.664918e-02  0 
 5.657924e-02  -7.643945e-02  0 
 5.972919e-02  -7.626161e-02  0 
 6.274552e-02  -7.615596e-02  0 
 6.564426e-02  -7.608388e-02  0 
VECTORS displacement_ITER5 FLOAT
 4.326650e-02  -6.129500e-02  0 
 7.430022e-02  -6.419688e-02  0 
 3.867579e-02  -4.662451e-02  0 
 3.927838e-02  -4.901483e-02  0 
 3.987045e-02  -5.135168e-02  0 
 4.063028e-02  -5.370787e-02  0 
 4.178230e-02  -5.661938e-02  0 
 3.814801e-02  -6.042629e-02  0 
 5.571386e-02  -5.831774e-02  0 
 5.832755e-02  -5.938091e-02  0 
 6.065910e-02  -6.112098e-02  0 
 6.302503e-02  -6.260751e-02  0 
 6.570360e-02  -6.367798e-02  0 
 6.907522e-02  -6.426795e-02  0 
 4.864385e-02  -6.226965e-02  0 
 5.242822e-02  -6.297849e-02  0 
 5.581313e-02  -6.342604e-02  0 
 5.902317e-02  -6.371818e-02  0 
 6.214124e-02  -6.391121e-02  0 
 6.521084e-02  -6.403388e-02  0 
 6.826051e-02  -6.410799e-02  0 
 7.129912e-02  -6.415580e-02  0 
 4.458711e-02  -6.638836e-02  0 
 4.544330e-02  -7.009069e-02  0 
 4.601102e-02  -7.342647e-02  0 
 7.438295e-02  -6.720106e-02  0 
 7.446718e-02  -7.028565e-02  0 
 3.628263e-02  -4.639075e-02  0 
 3.690942e-02  -4.886832e-02  0 
 3.749710e-02  -5.119227e-02  0 
 3.804465e-02  -5.351719e-02  0 
 3.819412e-02  -5.639899e-02  0 
 4.624459e-02  -5.344345e-02  0 
 4.955772e-02  -5.446030e-02  0 
 5.226852e-02  -5.562160e-02  0 
 5.463997e-02  -5.687472e-02  0 
 3.898722e-02  -4.901411e-02  0 
 4.108868e-02  -5.031916e-02  0 
 4.385907e-02  -5.159196e-02  0 
 4.683363e-02  -5.335924e-02  0 
 4.917269e-02  -5.528257e-02  0 
 5.195581e-02  -5.665262e-02  0 
 5.455065e-02  -5.775360e-02  0 
 5.667256e-02  -5.867533e-02  0 
 4.132814e-02  -5.033579e-02  0 
 4.359294e-02  -5.218739e-02  0 
 4.649344e-02  -5.388599e-02  0 
 4.947133e-02  -5.542439e-02  0 
 5.219319e-02  -5.690880e-02  0 
 5.468878e-02  -5.830855e-02  0 
 5.699669e-02  -5.943073e-02  0 
 5.895640e-02  -6.034718e-02  0 
 4.294144e-02  -5.261609e-02  0 
 4.602518e-02  -5.429371e-02  0 
 4.909501e-02  -5.598726e-02  0 
 5.211522e-02  -5.741903e-02  0 
 5.495192e-02  -5.863789e-02  0 
 5.751276e-02  -5.973530e-02  0 
 5.973069e-02  -6.077083e-02  0 
 6.156544e-02  -6.175390e-02  0 
 4.455544e-02  -5.526305e-02  0 
 4.825257e-02  -5.687529e-02  0 
 5.158626e-02  -5.829503e-02  0 
 5.466521e-02  -5.944352e-02  0 
 5.756451e-02  -6.035060e-02  0 
 6.025966e-02  -6.110816e-02  0 
 6.266487e-02  -6.184001e-02  0 
 6.453042e-02  -6.273689e-02  0 
 4.647769e-02  -5.846561e-02  0 
 5.043107e-02  -5.984632e-02  0 
 5.384904e-02  -6.082481e-02  0 
 5.699158e-02  -6.155350e-02  0 
 5.997763e-02  -6.209980e-02  0 
 6.284256e-02  -6.251312e-02  0 
 6.555198e-02  -6.285727e-02  0 
 6.794572e-02  -6.326362e-02  0 
 4.101380e-02  -6.554234e-02  0 
 4.309478e-02  -7.007640e-02  0 
 4.594582e-02  -7.433597e-02  0 
 4.876866e-02  -6.650617e-02  0 
 5.253168e-02  -6.658810e-02  0 
 5.589677e-02  -6.675697e-02  0 
 5.908777e-02  -6.690658e-02  0 
 6.219384e-02  -6.701618e-02  0 
 6.525338e-02  -6.709786e-02  0 
 6.829593e-02  -6.715069e-02  0 
 7.133849e-02  -6.718042e-02  0 
 4.899412e-02  -7.019001e-02  0 
 5.255126e-02  -7.015539e-02  0 
 5.591423e-02  -7.012589e-02  0 
 5.910089e-02  -7.013951e-02  0 
 6.220663e-02  -7.016393e-02  0 
 6.528259e-02  -7.018251e-02  0 
 6.830994e-02  -7.022068e-02  0 
 7.137399e-02  -7.024788e-02  0 
 4.931049e-02  -7.354278e-02  0 
 5.262457e-02  -7.353541e-02  0 
 5.591020e-02  -7.342174e-02  0 
 5.907965e-02  -7.334487e-02  0 
 6.218712e-02  -7.333387e-02  0 
 6.530331e-02  -7.334820e-02  0 
VECTORS displacement_ITER6 FLOAT
 4.322575e-02  -5.989610e-02  0 
 7.476165e-02  -6.286072e-02  0 
 3.876200e-02  -4.601356e-02  0 
 3.943128e-02  -4.831700e-02  0 
 4.006453e-02  -5.067369e-02  0 
 4.076679e-02  -5.301460e-02  0 
 4.178752e-02  -5.566986e-02  0 
 3.861457e-02  -5.895751e-02  0 
 5.587215e-02  -5.750889e-02  0 
 5.815160e-02  -5.878431e-02  0 
 6.041001e-02  -6.038347e-02  0 
 6.284901e-02  -6.168699e-02  0 
 6.567860e-02  -6.259428e-02  0 
 6.925318e-02  -6.305364e-02  0 
 4.866152e-02  -6.089014e-02  0 
 5.249990e-02  -6.160658e-02  0 
 5.594418e-02  -6.205490e-02  0 
 5.922157e-02  -6.234538e-02  0 
 6.241199e-02  -6.254028e-02  0 
 6.554894e-02  -6.267275e-02  0 
 6.865277e-02  -6.275979e-02  0 
 7.173080e-02  -6.281648e-02  0 
 4.455220e-02  -6.505604e-02  0 
 4.541537e-02  -6.881003e-02  0 
 4.600146e-02  -7.218786e-02  0 
 7.484774e-02  -6.589423e-02  0 
 7.493910e-02  -6.901491e-02  0 
 3.650540e-02  -4.576980e-02  0 
 3.709014e-02  -4.815480e-02  0 
 3.767715e-02  -5.049631e-02  0 
 3.828958e-02  -5.285422e-02  0 
 3.859454e-02  -5.546764e-02  0 
 4.651591e-02  -5.314553e-02  0 
 4.928931e-02  -5.400353e-02  0 
 5.191897e-02  -5.509886e-02  0 
 5.435756e-02  -5.627607e-02  0 
 3.912111e-02  -4.814289e-02  0 
 4.120631e-02  -4.936909e-02  0 
 4.389171e-02  -5.062459e-02  0 
 4.680674e-02  -5.236685e-02  0 
 4.928885e-02  -5.441213e-02  0 
 5.185861e-02  -5.589179e-02  0 
 5.433761e-02  -5.708066e-02  0 
 5.646434e-02  -5.806432e-02  0 
 4.145268e-02  -4.953506e-02  0 
 4.371024e-02  -5.125337e-02  0 
 4.657823e-02  -5.287960e-02  0 
 4.956088e-02  -5.443162e-02  0 
 5.228183e-02  -5.592831e-02  0 
 5.471632e-02  -5.736492e-02  0 
 5.693664e-02  -5.858129e-02  0 
 5.882618e-02  -5.957974e-02  0 
 4.307449e-02  -5.177400e-02  0 
 4.612392e-02  -5.331711e-02  0 
 4.920071e-02  -5.493145e-02  0 
 5.223508e-02  -5.633205e-02  0 
 5.507355e-02  -5.754697e-02  0 
 5.761803e-02  -5.866532e-02  0 
 5.978838e-02  -5.975037e-02  0 
 6.153296e-02  -6.079052e-02  0 
 4.463506e-02  -5.431348e-02  0 
 4.832577e-02  -5.579350e-02  0 
 5.168799e-02  -5.714479e-02  0 
 5.480254e-02  -5.825762e-02  0 
 5.772931e-02  -5.915263e-02  0 
 6.043638e-02  -5.991661e-02  0 
 6.282546e-02  -6.066950e-02  0 
 6.462612e-02  -6.160394e-02  0 
 4.648394e-02  -5.732633e-02  0 
 5.048356e-02  -5.862688e-02  0 
 5.395480e-02  -5.956453e-02  0 
 5.715270e-02  -6.027000e-02  0 
 6.018954e-02  -6.080614e-02  0 
 6.309341e-02  -6.122011e-02  0 
 6.582200e-02  -6.157199e-02  0 
 6.820480e-02  -6.199491e-02  0 
 4.074108e-02  -6.388316e-02  0 
 4.247175e-02  -6.843180e-02  0 
 4.436273e-02  -7.264964e-02  0 
 4.878980e-02  -6.518118e-02  0 
 5.260538e-02  -6.527254e-02  0 
 5.602796e-02  -6.544856e-02  0 
 5.928574e-02  -6.560228e-02  0 
 6.246580e-02  -6.571375e-02  0 
 6.559681e-02  -6.579627e-02  0 
 6.869227e-02  -6.585037e-02  0 
 7.177064e-02  -6.587546e-02  0 
 4.902020e-02  -6.891926e-02  0 
 5.262810e-02  -6.889705e-02  0 
 5.604588e-02  -6.888122e-02  0 
 5.929706e-02  -6.890656e-02  0 
 6.247807e-02  -6.893568e-02  0 
 6.563281e-02  -6.895127e-02  0 
 6.870545e-02  -6.895821e-02  0 
 7.180080e-02  -6.897708e-02  0 
 4.934303e-02  -7.231976e-02  0 
 5.270950e-02  -7.232565e-02  0 
 5.604564e-02  -7.224068e-02  0 
 5.927702e-02  -7.218838e-02  0 
 6.245722e-02  -7.219690e-02  0 
 6.569057e-02  -7.224051e-02  0 
VECTORS displacement_ITER7 FLOAT
 4.361481e-02  -5.962039e-02  0 
 7.510724e-02  -6.254633e-02  0 
 3.926372e-02  -4.594916e-02  0 
 3.997173e-02  -4.818161e-02  0 
 4.062383e-02  -5.056779e-02  0 
 4.128799e-02  -5.296704e-02  0 
 4.222500e-02  -5.556964e-02  0 
 3.921494e-02  -5.865924e-02  0 
 5.508301e-02  -5.684554e-02  0 
 5.763366e-02  -5.833485e-02  0 
 6.013247e-02  -5.994330e-02  0 
 6.279940e-02  -6.125287e-02  0 
 6.581952e-02  -6.219200e-02  0 
 6.952867e-02  -6.270354e-02  0 
 4.901696e-02  -6.060623e-02  0 
 5.284001e-02  -6.131624e-02  0 
 5.627436e-02  -6.175933e-02  0 
 5.954604e-02  -6.204482e-02  0 
 6.273578e-02  -6.223513e-02  0 
 6.587549e-02  -6.236412e-02  0 
 6.898442e-02  -6.244804e-02  0 
 7.206931e-02  -6.250262e-02  0 
 4.492730e-02  -6.474998e-02  0 
 4.578234e-02  -6.848952e-02  0 
 4.637624e-02  -7.186778e-02  0 
 7.519452e-02  -6.558668e-02  0 
 7.529179e-02  -6.871741e-02  0 
 3.714487e-02  -4.572240e-02  0 
 3.765751e-02  -4.801674e-02  0 
 3.818203e-02  -5.039671e-02  0 
 3.878999e-02  -5.281977e-02  0 
 3.915942e-02  -5.538800e-02  0 
 4.642784e-02  -5.261093e-02  0 
 4.885613e-02  -5.350478e-02  0 
 5.125327e-02  -5.462413e-02  0 
 5.354788e-02  -5.576760e-02  0 
 3.996980e-02  -4.755289e-02  0 
 4.203819e-02  -4.869423e-02  0 
 4.449255e-02  -4.996766e-02  0 
 4.709025e-02  -5.168541e-02  0 
 4.931353e-02  -5.371760e-02  0 
 5.163569e-02  -5.526638e-02  0 
 5.391748e-02  -5.650614e-02  0 
 5.592529e-02  -5.753228e-02  0 
 4.204104e-02  -4.925598e-02  0 
 4.434675e-02  -5.074749e-02  0 
 4.708739e-02  -5.224411e-02  0 
 4.986933e-02  -5.374944e-02  0 
 5.239857e-02  -5.524788e-02  0 
 5.466298e-02  -5.671249e-02  0 
 5.674328e-02  -5.798647e-02  0 
 5.856203e-02  -5.906295e-02  0 
 4.358341e-02  -5.154626e-02  0 
 4.659360e-02  -5.292476e-02  0 
 4.961089e-02  -5.439167e-02  0 
 5.254148e-02  -5.571679e-02  0 
 5.526045e-02  -5.691492e-02  0 
 5.769564e-02  -5.805436e-02  0 
 5.978431e-02  -5.918825e-02  0 
 6.148532e-02  -6.029184e-02  0 
 4.507402e-02  -5.409726e-02  0 
 4.870668e-02  -5.544694e-02  0 
 5.202857e-02  -5.669482e-02  0 
 5.509756e-02  -5.773955e-02  0 
 5.796749e-02  -5.860941e-02  0 
 6.061881e-02  -5.938397e-02  0 
 6.296569e-02  -6.017155e-02  0 
 6.474768e-02  -6.115249e-02  0 
 4.685390e-02  -5.708679e-02  0 
 5.082037e-02  -5.830851e-02  0 
 5.427017e-02  -5.919142e-02  0 
 5.745107e-02  -5.985832e-02  0 
 6.047037e-02  -6.037528e-02  0 
 6.335695e-02  -6.079060e-02  0 
 6.607306e-02  -6.116019e-02  0 
 6.845437e-02  -6.161198e-02  0 
 4.090498e-02  -6.357405e-02  0 
 4.239825e-02  -6.802290e-02  0 
 4.363876e-02  -7.214125e-02  0 
 4.914575e-02  -6.487679e-02  0 
 5.294557e-02  -6.497030e-02  0 
 5.635749e-02  -6.514575e-02  0 
 5.961023e-02  -6.529938e-02  0 
 6.278919e-02  -6.541143e-02  0 
 6.592340e-02  -6.549247e-02  0 
 6.902357e-02  -6.554569e-02  0 
 7.210890e-02  -6.556860e-02  0 
 4.937856e-02  -6.860197e-02  0 
 5.296885e-02  -6.858182e-02  0 
 5.637609e-02  -6.857111e-02  0 
 5.962363e-02  -6.860201e-02  0 
 6.280396e-02  -6.863541e-02  0 
 6.595723e-02  -6.865552e-02  0 
 6.903789e-02  -6.865665e-02  0 
 7.213605e-02  -6.867940e-02  0 
 4.969672e-02  -7.198375e-02  0 
 5.305350e-02  -7.199302e-02  0 
 5.637992e-02  -7.192655e-02  0 
 5.960756e-02  -7.188548e-02  0 
 6.278547e-02  -7.189853e-02  0 
 6.602494e-02  -7.195021e-02  0 
VECTORS displacement_ITER8 FLOAT
 4.328684e-02  -5.936871e-02  0 
 7.501471e-02  -6.230998e-02  0 
 3.905653e-02  -4.564677e-02  0 
 3.976073e-02  -4.786397e-02  0 
 4.039838e-02  -5.025095e-02  0 
 4.103847e-02  -5.268223e-02  0 
 4.193650e-02  -5.531738e-02  0 
 3.891740e-02  -5.839410e-02  0 
 5.445299e-02  -5.712126e-02  0 
 5.705692e-02  -5.840134e-02  0 
 5.964945e-02  -5.985791e-02  0 
 6.242724e-02  -6.106125e-02  0 
 6.555773e-02  -6.194603e-02  0 
 6.936385e-02  -6.245012e-02  0 
 4.868319e-02  -6.035012e-02  0 
 5.252444e-02  -6.105310e-02  0 
 5.598644e-02  -6.149117e-02  0 
 5.929267e-02  -6.177463e-02  0 
 6.252112e-02  -6.196699e-02  0 
 6.570004e-02  -6.210232e-02  0 
 6.884282e-02  -6.219723e-02  0 
 7.195321e-02  -6.226251e-02  0 
 4.457761e-02  -6.450672e-02  0 
 4.542089e-02  -6.826424e-02  0 
 4.600659e-02  -7.166690e-02  0 
 7.509838e-02  -6.537483e-02  0 
 7.517287e-02  -6.850743e-02  0 
 3.697979e-02  -4.543811e-02  0 
 3.746418e-02  -4.770337e-02  0 
 3.794202e-02  -5.009153e-02  0 
 3.849891e-02  -5.254288e-02  0 
 3.884741e-02  -5.514999e-02  0 
 4.640845e-02  -5.259325e-02  0 
 4.867476e-02  -5.362607e-02  0 
 5.089257e-02  -5.480378e-02  0 
 5.307049e-02  -5.598527e-02  0 
 4.034522e-02  -4.705973e-02  0 
 4.253094e-02  -4.835142e-02  0 
 4.486611e-02  -4.982617e-02  0 
 4.727464e-02  -5.164737e-02  0 
 4.934198e-02  -5.366218e-02  0 
 5.149560e-02  -5.521618e-02  0 
 5.362901e-02  -5.650487e-02  0 
 5.550382e-02  -5.757550e-02  0 
 4.210569e-02  -4.898671e-02  0 
 4.460611e-02  -5.044136e-02  0 
 4.732688e-02  -5.196252e-02  0 
 4.998361e-02  -5.351397e-02  0 
 5.237849e-02  -5.504745e-02  0 
 5.452976e-02  -5.653582e-02  0 
 5.650005e-02  -5.784037e-02  0 
 5.820325e-02  -5.894758e-02  0 
 4.351544e-02  -5.129336e-02  0 
 4.663713e-02  -5.265751e-02  0 
 4.968623e-02  -5.408784e-02  0 
 5.256791e-02  -5.540705e-02  0 
 5.520612e-02  -5.662288e-02  0 
 5.756035e-02  -5.778635e-02  0 
 5.957156e-02  -5.894314e-02  0 
 6.119347e-02  -6.007080e-02  0 
 4.491437e-02  -5.384794e-02  0 
 4.860543e-02  -5.518552e-02  0 
 5.195673e-02  -5.639881e-02  0 
 5.502268e-02  -5.741746e-02  0 
 5.786346e-02  -5.828377e-02  0 
 6.047462e-02  -5.907038e-02  0 
 6.277957e-02  -5.987633e-02  0 