# vtk DataFile Version 3.1
this is an vtk file created by FEMAC
ASCII
DATASET UNSTRUCTURED_GRID
POINTS 101 FLOAT
0.000000 1.000000 0.000000
1.000000 1.000000 0.000000
0.111111 1.000000 0.000000
0.222222 1.000000 0.000000
0.333333 1.000000 0.000000
0.444444 1.000000 0.000000
0.555556 1.000000 0.000000
0.666667 1.000000 0.000000
0.777778 1.000000 0.000000
0.888889 1.000000 0.000000
0.000000 0.666667 0.000000
0.000000 0.777778 0.000000
0.000000 0.888889 0.000000
1.000000 0.777778 0.000000
1.000000 0.888889 0.000000
0.000000 1.111111 0.000000
0.000000 1.222222 0.000000
0.000000 1.333333 0.000000
0.000000 1.444444 0.000000
0.000000 1.555556 0.000000
1.000000 1.111111 0.000000
1.000000 1.222222 0.000000
1.000000 1.333333 0.000000
1.000000 1.444444 0.000000
1.000000 1.555556 0.000000
1.111111 1.000000 0.000000
1.222222 1.000000 0.000000
0.111111 0.666667 0.000000
0.111111 0.777778 0.000000
0.111111 0.888889 0.000000
0.222222 0.666667 0.000000
0.222222 0.777778 0.000000
0.222222 0.888889 0.000000
0.333333 0.666667 0.000000
0.333333 0.777778 0.000000
0.333333 0.888889 0.000000
0.444444 0.666667 0.000000
0.444444 0.777778 0.000000
0.444444 0.888889 0.000000
0.555556 0.666667 0.000000
0.555556 0.777778 0.000000
0.555556 0.888889 0.000000
0.666667 0.777778 0.000000
0.666667 0.888889 0.000000
0.777778 0.777778 0.000000
0.777778 0.888889 0.000000
0.888889 0.777778 0.000000
0.888889 0.888889 0.000000
0.111111 1.111111 0.000000
0.111111 1.222222 0.000000
0.111111 1.333333 0.000000
0.111111 1.444444 0.000000
0.111111 1.555556 0.000000
0.222222 1.111111 0.000000
0.222222 1.222222 0.000000
0.222222 1.333333 0.000000
0.222222 1.444444 0.000000
0.222222 1.555556 0.000000
0.333333 1.111111 0.000000
0.333333 1.222222 0.000000
0.333333 1.333333 0.000000
0.333333 1.444444 0.000000
0.333333 1.555556 0.000000
0.444444 1.111111 0.000000
0.444444 1.222222 0.000000
0.444444 1.333333 0.000000
0.444444 1.444444 0.000000
0.444444 1.555556 0.000000
0.555556 1.111111 0.000000
0.555556 1.222222 0.000000
0.555556 1.333333 0.000000
0.555556 1.444444 0.000000
0.555556 1.555556 0.000000
0.666667 1.111111 0.000000
0.666667 1.222222 0.000000
0.666667 1.333333 0.000000
0.666667 1.444444 0.000000
0.666667 1.555556 0.000000
0.777778 1.111111 0.000000
0.777778 1.222222 0.000000
0.777778 1.333333 0.000000
0.777778 1.444444 0.000000
0.777778 1.555556 0.000000
0.888889 1.111111 0.000000
0.888889 1.222222 0.000000
0.888889 1.333333 0.000000
0.888889 1.444444 0.000000
0.888889 1.555556 0.000000
1.111111 0.777778 0.000000
1.111111 0.888889 0.000000
1.222222 0.888889 0.000000
1.111111 1.111111 0.000000
1.111111 1.222222 0.000000
1.111111 1.333333 0.000000
1.111111 1.444444 0.000000
1.111111 1.555556 0.000000
1.222222 1.111111 0.000000
1.222222 1.222222 0.000000
1.222222 1.333333 0.000000
1.222222 1.444444 0.000000
1.222222 1.555556 0.000000
CELLS 81 405 
4 10 27 28 11
4 11 28 29 12
4 12 29  2  0
4 27 30 31 28
4 28 31 32 29
4 29 32  3  2
4 30 33 34 31
4 31 34 35 32
4 32 35  4  3
4 33 36 37 34
4 34 37 38 35
4 35 38  5  4
4 36 39 40 37
4 37 40 41 38
4 38 41  6  5
4 40 42 43 41
4 41 43  7  6
4 42 44 45 43
4 43 45  8  7
4 44 46 47 45
4 45 47  9  8
4 46 13 14 47
4 47 14  1  9
4 0  2 48 15
4 15 48 49 16
4 16 49 50 17
4 17 50 51 18
4 18 51 52 19
4 2  3 53 48
4 48 53 54 49
4 49 54 55 50
4 50 55 56 51
4 51 56 57 52
4 3  4 58 53
4 53 58 59 54
4 54 59 60 55
4 55 60 61 56
4 56 61 62 57
4 4  5 63 58
4 58 63 64 59
4 59 64 65 60
4 60 65 66 61
4 61 66 67 62
4 5  6 68 63
4 63 68 69 64
4 64 69 70 65
4 65 70 71 66
4 66 71 72 67
4 6  7 73 68
4 68 73 74 69
4 69 74 75 70
4 70 75 76 71
4 71 76 77 72
4 7  8 78 73
4 73 78 79 74
4 74 79 80 75
4 75 80 81 76
4 76 81 82 77
4 8  9 83 78
4 78 83 84 79
4 79 84 85 80
4 80 85 86 81
4 81 86 87 82
4 9  1 20 83
4 83 20 21 84
4 84 21 22 85
4 85 22 23 86
4 86 23 24 87
4 13 88 89 14
4 14 89 25  1
4 89 90 26 25
4 1 25 91 20
4 20 91 92 21
4 21 92 93 22
4 22 93 94 23
4 23 94 95 24
4 25 26 96 91
4 91 96 97 92
4 92 97 98 93
4 93 98 99 94
4 94  99 100  95
CELL_TYPES 81
9 9 9 9 9 9 9 9 9 9 9 9 9 9 9 9 9 9 9 9 9 9 9 9 9 9 9 9 9 9 9 9 9 9 9 9 9 9 9 9 9 9 9 9 9 9 9 9 9 9 9 9 9 9 9 9 9 9 9 9 9 9 9 9 9 9 9 9 9 9 9 9 9 9 9 9 9 9 9 9 9 
POINT_DATA 101
VECTORS displacement_ITER1 FLOAT
 0  0  0 
 -9.511918e-03  -5.981223e-03  0 
 2.984639e-04  -4.131809e-04  0 
 2.722595e-04  -1.033802e-03  0 
 -2.532532e-05  -1.702066e-03  0 
 -4.676838e-04  -2.351355e-03  0 
 -9.492983e-04  -3.101909e-03  0 
 -1.639871e-03  -4.046602e-03  0 
 -2.904534e-03  -5.030195e-03  0 
 -5.115618e-03  -5.670523e-03  0 
 1.280969e-21  4.855180e-19  0 
 0  0  0 
 0  0  0 
 -2.274224e-03  -3.666056e-03  0 
 -4.591719e-03  -4.182338e-03  0 
 0  0  0 
 0  0  0 
 0  0  0 
 0  0  0 
 -2.711249e-20  1.809232e-19  0 
 -1.266009e-02  -7.785245e-03  0 
 -1.266010e-02  -8.293284e-03  0 
 -1.218805e-02  -8.620496e-03  0 
 -1.146625e-02  -8.739801e-03  0 
 -1.045979e-02  -8.767483e-03  0 
 -1.394826e-02  -8.023198e-03  0 
 -1.648534e-02  -1.080370e-02  0 
 -8.621771e-04  -6.143119e-04  0 
 -3.694919e-04  -4.526851e-04  0 
 -9.422132e-05  -3.999184e-04  0 
 -1.297926e-03  -1.306553e-03  0 
 -7.355635e-04  -1.206188e-03  0 
 -2.675193e-04  -1.097386e-03  0 
 -1.469237e-03  -2.048630e-03  0 
 -1.021197e-03  -2.011113e-03  0 
 -5.873550e-04  -1.843191e-03  0 
 -1.359429e-03  -2.739302e-03  0 
 -1.379984e-03  -2.689958e-03  0 
 -1.067666e-03  -2.500311e-03  0 
 -6.855707e-04  -2.355399e-03  0 
 -1.965207e-03  -3.118124e-03  0 
 -1.670002e-03  -3.190478e-03  0 
 -3.120734e-03  -4.258297e-03  0 
 -2.376949e-03  -4.211208e-03  0 
 -3.491515e-03  -5.312171e-03  0 
 -3.364119e-03  -5.392941e-03  0 
 -2.867260e-03  -5.241028e-03  0 
 -4.549774e-03  -6.011996e-03  0 
 -3.156193e-04  -1.029468e-03  0 
 -4.902061e-04  -1.178878e-03  0 
 -5.455047e-04  -1.147616e-03  0 
 -5.306397e-04  -9.920082e-04  0 
 -3.220646e-04  -7.076412e-04  0 
 -5.386642e-04  -1.729445e-03  0 
 -9.885990e-04  -2.047618e-03  0 
 -1.195529e-03  -2.035723e-03  0 
 -1.283005e-03  -1.802342e-03  0 
 -1.309922e-03  -1.320766e-03  0 
 -9.497261e-04  -2.412446e-03  0 
 -1.578526e-03  -2.741333e-03  0 
 -1.972127e-03  -2.695813e-03  0 
 -2.232720e-03  -2.342139e-03  0 
 -2.505773e-03  -1.704156e-03  0 
 -1.575007e-03  -3.137978e-03  0 
 -2.400331e-03  -3.394669e-03  0 
 -2.961360e-03  -3.217119e-03  0 
 -3.336126e-03  -2.716267e-03  0 
 -3.691376e-03  -1.971507e-03  0 
 -2.454476e-03  -3.925525e-03  0 
 -3.563968e-03  -4.058285e-03  0 
 -4.250070e-03  -3.728927e-03  0 
 -4.586247e-03  -3.107846e-03  0 
 -4.767504e-03  -2.322272e-03  0 
 -3.741930e-03  -4.738769e-03  0 
 -5.174150e-03  -4.747754e-03  0 
 -5.890862e-03  -4.367984e-03  0 
 -6.000216e-03  -3.747090e-03  0 
 -5.726260e-03  -3.006140e-03  0 
 -5.697410e-03  -5.496638e-03  0 
 -7.291436e-03  -5.478853e-03  0 
 -7.848875e-03  -5.307868e-03  0 
 -7.611825e-03  -4.880453e-03  0 
 -6.691162e-03  -4.265424e-03  0 
 -8.639645e-03  -6.164374e-03  0 
 -9.820615e-03  -6.478654e-03  0 
 -9.960106e-03  -6.690117e-03  0 
 -9.484030e-03  -6.674830e-03  0 
 -8.010232e-03  -6.215653e-03  0 
 -1.615789e-03  4.593172e-05  0 
 -9.901225e-03  -4.479008e-03  0 
 -1.813017e-02  -9.377382e-03  0 
 -1.261013e-02  -7.813858e-03  0 
 -1.250866e-02  -8.780428e-03  0 
 -1.213412e-02  -9.317651e-03  0 
 -1.147301e-02  -9.663083e-03  0 
 -1.046217e-02  -9.907676e-03  0 
 -1.373882e-02  -1.008118e-02  0 
 -1.245678e-02  -9.649754e-03  0 
 -1.216786e-02  -1.007330e-02  0 
 -1.139839e-02  -1.072610e-02  0 
 -1.043140e-02  -1.127882e-02  0 
VECTORS displacement_ITER2 FLOAT
 0  0  0 
 -1.016328e-02  -5.557323e-03  0 
 2.725276e-04  -4.080811e-04  0 
 2.165767e-04  -1.023460e-03  0 
 -1.216157e-04  -1.682571e-03  0 
 -6.379862e-04  -2.290149e-03  0 
 -1.213903e-03  -2.943915e-03  0 
 -1.969164e-03  -3.765878e-03  0 
 -3.252925e-03  -4.662425e-03  0 
 -5.518957e-03  -5.289182e-03  0 
 3.745411e-20  5.131791e-19  0 
 0  0  0 
 0  0  0 
 -2.689127e-03  -3.385361e-03  0 
 -4.950372e-03  -3.770531e-03  0 
 0  0  0 
 0  0  0 
 0  0  0 
 0  0  0 
 -1.926515e-20  1.908907e-19  0 
 -1.350289e-02  -7.338095e-03  0 
 -1.341719e-02  -7.693936e-03  0 
 -1.272015e-02  -7.829647e-03  0 
 -1.165330e-02  -7.791220e-03  0 
 -1.024996e-02  -7.693281e-03  0 
 -1.484833e-02  -7.662221e-03  0 
 -1.742476e-02  -1.062623e-02  0 
 -8.437503e-04  -6.322462e-04  0 
 -3.746119e-04  -4.650374e-04  0 
 -1.130750e-04  -4.036599e-04  0 
 -1.267926e-03  -1.309679e-03  0 
 -7.563390e-04  -1.206389e-03  0 
 -3.126734e-04  -1.093520e-03  0 
 -1.459358e-03  -2.015327e-03  0 
 -1.062324e-03  -1.982515e-03  0 
 -6.556899e-04  -1.829082e-03  0 
 -1.431054e-03  -2.681302e-03  0 
 -1.421361e-03  -2.656398e-03  0 
 -1.159144e-03  -2.467271e-03  0 
 -9.498800e-04  -2.578753e-03  0 
 -1.985916e-03  -3.100302e-03  0 
 -1.824755e-03  -3.072821e-03  0 
 -3.150426e-03  -3.953756e-03  0 
 -2.604343e-03  -3.940540e-03  0 
 -3.679300e-03  -4.895804e-03  0 
 -3.642322e-03  -5.007431e-03  0 
 -3.195343e-03  -4.825541e-03  0 
 -4.893701e-03  -5.635035e-03  0 
 -3.566657e-04  -1.028385e-03  0 
 -5.615120e-04  -1.179992e-03  0 
 -6.673086e-04  -1.149587e-03  0 
 -7.359752e-04  -9.845760e-04  0 
 -7.105869e-04  -6.294292e-04  0 
 -6.194621e-04  -1.698140e-03  0 
 -1.128654e-03  -1.995682e-03  0 
 -1.432319e-03  -1.961377e-03  0 
 -1.680567e-03  -1.687484e-03  0 
 -1.960349e-03  -1.141334e-03  0 
 -1.084772e-03  -2.320402e-03  0 
 -1.790553e-03  -2.591365e-03  0 
 -2.310877e-03  -2.494630e-03  0 
 -2.765933e-03  -2.087363e-03  0 
 -3.315610e-03  -1.393917e-03  0 
 -1.782238e-03  -2.953890e-03  0 
 -2.682000e-03  -3.118526e-03  0 
 -3.373543e-03  -2.866763e-03  0 
 -3.946947e-03  -2.305402e-03  0 
 -4.574939e-03  -1.516063e-03  0 
 -2.738736e-03  -3.631724e-03  0 
 -3.904198e-03  -3.645953e-03  0 
 -4.703012e-03  -3.219715e-03  0 
 -5.218460e-03  -2.532861e-03  0 
 -5.650979e-03  -1.714641e-03  0 
 -4.096004e-03  -4.341662e-03  0 
 -5.566396e-03  -4.203900e-03  0 
 -6.355524e-03  -3.698162e-03  0 
 -6.596962e-03  -3.004340e-03  0 
 -6.537058e-03  -2.243387e-03  0 
 -6.133778e-03  -5.023222e-03  0 
 -7.755240e-03  -4.827146e-03  0 
 -8.307890e-03  -4.494819e-03  0 
 -8.111232e-03  -3.977108e-03  0 
 -7.340691e-03  -3.351777e-03  0 
 -9.231540e-03  -5.648562e-03  0 
 -1.039989e-02  -5.786367e-03  0 
 -1.043122e-02  -5.812602e-03  0 
 -9.822385e-03  -5.648821e-03  0 
 -8.362355e-03  -5.182574e-03  0 
 -2.857342e-03  -8.619518e-04  0 
 -1.042947e-02  -4.751877e-03  0 
 -1.898945e-02  -1.123574e-02  0 
 -1.347762e-02  -7.435091e-03  0 
 -1.332892e-02  -8.351674e-03  0 
 -1.271258e-02  -8.812711e-03  0 
 -1.167930e-02  -9.090079e-03  0 
 -1.025224e-02  -9.268238e-03  0 
 -1.465954e-02  -9.809867e-03  0 
 -1.340682e-02  -9.450188e-03  0 
 -1.274567e-02  -9.908509e-03  0 
 -1.160832e-02  -1.056596e-02  0 
 -1.021003e-02  -1.104712e-02  0 
VECTORS displacement_ITER3 FLOAT
 0  0  0 
 -1.049602e-02  -5.694454e-03  0 
 2.799235e-04  -4.171568e-04  0 
 2.248791e-04  -1.042653e-03  0 
 -1.187569e-04  -1.716248e-03  0 
 -6.604630e-04  -2.332017e-03  0 
 -1.280580e-03  -2.973602e-03  0 
 -2.074295e-03  -3.772466e-03  0 
 -3.377100e-03  -4.669292e-03  0 
 -5.683155e-03  -5.349355e-03  0 
 5.492931e-20  5.113700e-19  0 
 0  0  0 
 0  0  0 
 -2.972334e-03  -3.519670e-03  0 
 -5.152233e-03  -3.863991e-03  0 
 0  0  0 
 0  0  0 
 0  0  0 
 0  0  0 
 -9.372431e-21  1.994674e-19  0 
 -1.398986e-02  -7.514324e-03  0 
 -1.388923e-02  -7.812350e-03  0 
 -1.309415e-02  -7.874839e-03  0 
 -1.187475e-02  -7.782075e-03  0 
 -1.029883e-02  -7.634666e-03  0 
 -1.535060e-02  -7.857891e-03  0 
 -1.796443e-02  -1.087206e-02  0 
 -8.139141e-04  -6.437670e-04  0 
 -3.666415e-04  -4.789457e-04  0 
 -1.104244e-04  -4.135560e-04  0 
 -1.230154e-03  -1.328434e-03  0 
 -7.497664e-04  -1.224126e-03  0 
 -3.124220e-04  -1.111823e-03  0 
 -1.447011e-03  -2.039453e-03  0 
 -1.068638e-03  -2.004653e-03  0 
 -6.599455e-04  -1.861132e-03  0 
 -1.490850e-03  -2.725494e-03  0 
 -1.435790e-03  -2.706636e-03  0 
 -1.171856e-03  -2.519875e-03  0 
 -1.148048e-03  -2.820556e-03  0 
 -1.994350e-03  -3.196458e-03  0 
 -1.869274e-03  -3.123262e-03  0 
 -3.166176e-03  -3.962160e-03  0 
 -2.694436e-03  -3.956356e-03  0 
 -3.797151e-03  -4.888233e-03  0 
 -3.777833e-03  -5.008555e-03  0 
 -3.418333e-03  -4.854900e-03  0 
 -5.086940e-03  -5.696323e-03  0 
 -3.786218e-04  -1.063585e-03  0 
 -6.005297e-04  -1.230935e-03  0 
 -7.215249e-04  -1.214982e-03  0 
 -8.050146e-04  -1.065343e-03  0 
 -7.968720e-04  -7.218636e-04  0 
 -6.515913e-04  -1.750571e-03  0 
 -1.194408e-03  -2.076276e-03  0 
 -1.525902e-03  -2.070495e-03  0 
 -1.800081e-03  -1.829827e-03  0 
 -2.102608e-03  -1.327030e-03  0 
 -1.129448e-03  -2.380235e-03  0 
 -1.875316e-03  -2.683415e-03  0 
 -2.429587e-03  -2.627731e-03  0 
 -2.914148e-03  -2.272671e-03  0 
 -3.486346e-03  -1.648017e-03  0 
 -1.848282e-03  -3.010384e-03  0 
 -2.782653e-03  -3.208351e-03  0 
 -3.505830e-03  -3.005625e-03  0 
 -4.108984e-03  -2.509833e-03  0 
 -4.760469e-03  -1.805443e-03  0 
 -2.833913e-03  -3.678496e-03  0 
 -4.020906e-03  -3.724074e-03  0 
 -4.843524e-03  -3.345067e-03  0 
 -5.387162e-03  -2.726724e-03  0 
 -5.850116e-03  -1.998327e-03  0 
 -4.225376e-03  -4.383113e-03  0 
 -5.708207e-03  -4.265440e-03  0 
 -6.508219e-03  -3.789715e-03  0 
 -6.770642e-03  -3.152997e-03  0 
 -6.753272e-03  -2.473678e-03  0 
 -6.314747e-03  -5.074665e-03  0 
 -7.950939e-03  -4.874702e-03  0 
 -8.490191e-03  -4.539839e-03  0 
 -8.290074e-03  -4.049085e-03  0 
 -7.567400e-03  -3.482190e-03  0 
 -9.520495e-03  -5.730324e-03  0 
 -1.069863e-02  -5.842049e-03  0 
 -1.068282e-02  -5.829122e-03  0 
 -1.000836e-02  -5.637046e-03  0 
 -8.558376e-03  -5.192393e-03  0 
 -3.789945e-03  -2.169155e-03  0 
 -1.095717e-02  -5.551031e-03  0 
 -2.035415e-02  -1.387284e-02  0 
 -1.397909e-02  -7.617644e-03  0 
 -1.382794e-02  -8.538528e-03  0 
 -1.310133e-02  -8.986956e-03  0 
 -1.190386e-02  -9.247621e-03  0 
 -1.030795e-02  -9.400040e-03  0 
 -1.520934e-02  -1.004154e-02  0 
 -1.395605e-02  -9.746712e-03  0 
 -1.312424e-02  -1.026069e-02  0 
 -1.183527e-02  -1.090366e-02  0 
 -1.027314e-02  -1.133748e-02  0 
VECTORS displacement_ITER4 FLOAT
 0  0  0 
 -1.047749e-02  -5.992507e-03  0 
 2.929352e-04  -4.186251e-04  0 
 2.564982e-04  -1.044980e-03  0 
 -6.328768e-05  -1.731041e-03  0 
 -5.901290e-04  -2.371465e-03  0 
 -1.214340e-03  -3.036578e-03  0 
 -2.017505e-03  -3.851668e-03  0 
 -3.315433e-03  -4.774499e-03  0 
 -5.614087e-03  -5.520290e-03  0 
 6.727493e-20  4.874462e-19  0 
 0  0  0 
 0  0  0 
 -3.085406e-03  -3.775216e-03  0 
 -5.156263e-03  -4.109279e-03  0 
 0  0  0 
 0  0  0 
 0  0  0 
 0  0  0 
 -4.174133e-21  1.924141e-19  0 
 -1.408155e-02  -7.869672e-03  0 
 -1.404051e-02  -8.170506e-03  0 
 -1.326866e-02  -8.238454e-03  0 
 -1.206453e-02  -8.161888e-03  0 
 -1.051089e-02  -8.020959e-03  0 
 -1.538246e-02  -8.152273e-03  0 
 -1.798554e-02  -1.105614e-02  0 
 -7.612750e-04  -6.305458e-04  0 
 -3.470153e-04  -4.764548e-04  0 
 -9.725479e-05  -4.117660e-04  0 
 -1.166384e-03  -1.309336e-03  0 
 -7.180353e-04  -1.211308e-03  0 
 -2.862615e-04  -1.106800e-03  0 
 -1.411008e-03  -2.028125e-03  0 
 -1.039924e-03  -1.994913e-03  0 
 -6.202812e-04  -1.865631e-03  0 
 -1.522732e-03  -2.746767e-03  0 
 -1.411821e-03  -2.732328e-03  0 
 -1.120327e-03  -2.555972e-03  0 
 -1.299574e-03  -3.009850e-03  0 
 -1.964900e-03  -3.291008e-03  0 
 -1.818396e-03  -3.194043e-03  0 
 -3.104836e-03  -4.041936e-03  0 
 -2.656443e-03  -4.039854e-03  0 
 -3.780623e-03  -4.979059e-03  0 
 -3.753507e-03  -5.104919e-03  0 
 -3.480444e-03  -4.999130e-03  0 
 -5.087795e-03  -5.860839e-03  0 
 -3.877802e-04  -1.095391e-03  0 
 -6.126288e-04  -1.281646e-03  0 
 -7.243877e-04  -1.282231e-03  0 
 -7.818417e-04  -1.154886e-03  0 
 -7.071398e-04  -8.608137e-04  0 
 -6.533219e-04  -1.810883e-03  0 
 -1.204962e-03  -2.183000e-03  0 
 -1.518590e-03  -2.222127e-03  0 
 -1.738629e-03  -2.038771e-03  0 
 -1.935644e-03  -1.618922e-03  0 
 -1.115724e-03  -2.472955e-03  0 
 -1.873013e-03  -2.848799e-03  0 
 -2.402776e-03  -2.869896e-03  0 
 -2.817958e-03  -2.603420e-03  0 
 -3.261920e-03  -2.087755e-03  0 
 -1.819975e-03  -3.137259e-03  0 
 -2.763180e-03  -3.430295e-03  0 
 -3.459432e-03  -3.331017e-03  0 
 -3.992373e-03  -2.948444e-03  0 
 -4.515990e-03  -2.368781e-03  0 
 -2.797255e-03  -3.839221e-03  0 
 -3.986712e-03  -3.995516e-03  0 
 -4.785465e-03  -3.735076e-03  0 
 -5.273204e-03  -3.242069e-03  0 
 -5.635988e-03  -2.641244e-03  0 
 -4.185774e-03  -4.579201e-03  0 
 -5.669248e-03  -4.576346e-03  0 
 -6.455232e-03  -4.215687e-03  0 
 -6.687820e-03  -3.697697e-03  0 
 -6.622721e-03  -3.132897e-03  0 
 -6.279688e-03  -5.311593e-03  0 
 -7.929135e-03  -5.213112e-03  0 
 -8.470732e-03  -4.968402e-03  0 
 -8.268777e-03  -4.567056e-03  0 
 -7.560021e-03  -4.083961e-03  0 
 -9.516327e-03  -6.017214e-03  0 
 -1.073264e-02  -6.195445e-03  0 
 -1.073847e-02  -6.232447e-03  0 
 -1.007933e-02  -6.085215e-03  0 
 -8.679502e-03  -5.678394e-03  0 
 -4.729369e-03  -3.302028e-03  0 
 -1.134035e-02  -6.147949e-03  0 
 -2.134524e-02  -1.493834e-02  0 
 -1.407728e-02  -7.911060e-03  0 
 -1.398272e-02  -8.861367e-03  0 
 -1.326886e-02  -9.335117e-03  0 
 -1.208581e-02  -9.612968e-03  0 
 -1.052673e-02  -9.766438e-03  0 
 -1.533225e-02  -1.028494e-02  0 
 -1.411063e-02  -1.006007e-02  0 
 -1.327403e-02  -1.063316e-02  0 
 -1.201507e-02  -1.125044e-02  0 
 -1.050957e-02  -1.165978e-02  0 
VECTORS displacement_ITER5 FLOAT
 0  0  0 
 -1.020369e-02  -6.308896e-03  0 
 3.075841e-04  -4.122206e-04  0 
 3.013501e-04  -1.027754e-03  0 
 2.642552e-05  -1.718553e-03  0 
 -4.582184e-04  -2.387311e-03  0 
 -1.062436e-03  -3.087849e-03  0 
 -1.857967e-03  -3.926376e-03  0 
 -3.130572e-03  -4.869748e-03  0 
 -5.378165e-03  -5.673263e-03  0 
 6.094617e-20  4.441856e-19  0 
 0  0  0 
 0  0  0 
 -3.056226e-03  -4.002788e-03  0 
 -5.002236e-03  -4.353505e-03  0 
 0  0  0 
 0  0  0 
 0  0  0 
 0  0  0 
 2.640520e-21  1.774872e-19  0 
 -1.388389e-02  -8.260042e-03  0 
 -1.395747e-02  -8.589875e-03  0 
 -1.328758e-02  -8.685545e-03  0 
 -1.219236e-02  -8.641808e-03  0 
 -1.076462e-02  -8.528617e-03  0 
 -1.507324e-02  -8.440112e-03  0 
 -1.761181e-02  -1.112989e-02  0 
 -6.802681e-04  -5.949560e-04  0 
 -3.143282e-04  -4.599498e-04  0 
 -7.552663e-05  -3.995503e-04  0 
 -1.065501e-03  -1.252678e-03  0 
 -6.595295e-04  -1.167688e-03  0 
 -2.395242e-04  -1.077283e-03  0 
 -1.337525e-03  -1.973372e-03  0 
 -9.752991e-04  -1.945154e-03  0 
 -5.455285e-04  -1.835638e-03  0 
 -1.518439e-03  -2.725352e-03  0 
 -1.346774e-03  -2.716314e-03  0 
 -1.016745e-03  -2.558544e-03  0 
 -1.420379e-03  -3.152194e-03  0 
 -1.889357e-03  -3.357560e-03  0 
 -1.691883e-03  -3.246351e-03  0 
 -2.951214e-03  -4.114692e-03  0 
 -2.519041e-03  -4.116320e-03  0 
 -3.631334e-03  -5.053483e-03  0 
 -3.604027e-03  -5.185854e-03  0 
 -3.400826e-03  -5.118737e-03  0 
 -4.939068e-03  -5.998225e-03  0 
 -3.901094e-04  -1.122442e-03  0 
 -6.093284e-04  -1.331716e-03  0 
 -6.970682e-04  -1.353329e-03  0 
 -7.032499e-04  -1.257224e-03  0 
 -5.093287e-04  -1.043315e-03  0 
 -6.363673e-04  -1.869633e-03  0 
 -1.181268e-03  -2.303539e-03  0 
 -1.448565e-03  -2.403929e-03  0 
 -1.563563e-03  -2.301928e-03  0 
 -1.571850e-03  -2.003336e-03  0 
 -1.062862e-03  -2.573844e-03  0 
 -1.813115e-03  -3.053114e-03  0 
 -2.280911e-03  -3.182281e-03  0 
 -2.562414e-03  -3.040013e-03  0 
 -2.778234e-03  -2.676255e-03  0 
 -1.726408e-03  -3.286925e-03  0 
 -2.660015e-03  -3.720093e-03  0 
 -3.290457e-03  -3.769860e-03  0 
 -3.687501e-03  -3.546164e-03  0 
 -3.982482e-03  -3.135964e-03  0 
 -2.668322e-03  -4.037629e-03  0 
 -3.842185e-03  -4.361243e-03  0 
 -4.583515e-03  -4.276998e-03  0 
 -4.960900e-03  -3.962175e-03  0 
 -5.139090e-03  -3.532356e-03  0 
 -4.026121e-03  -4.823420e-03  0 
 -5.492045e-03  -5.001084e-03  0 
 -6.243209e-03  -4.819930e-03  0 
 -6.415787e-03  -4.474964e-03  0 
 -6.252399e-03  -4.062751e-03  0 
 -6.087901e-03  -5.601144e-03  0 
 -7.736860e-03  -5.674183e-03  0 
 -8.284067e-03  -5.580751e-03  0 
 -8.086090e-03  -5.316052e-03  0 
 -7.388957e-03  -4.945090e-03  0 
 -9.297197e-03  -6.358665e-03  0 
 -1.056159e-02  -6.660164e-03  0 
 -1.062733e-02  -6.791656e-03  0 
 -1.003421e-02  -6.724296e-03  0 
 -8.735559e-03  -6.369785e-03  0 
 -5.679248e-03  -4.499482e-03  0 
 -1.086714e-02  -6.610459e-03  0 
 -1.948432e-02  -1.359027e-02  0 
 -1.388380e-02  -8.198858e-03  0 
 -1.389578e-02  -9.176927e-03  0 
 -1.327909e-02  -9.680600e-03  0 
 -1.220703e-02  -9.976598e-03  0 
 -1.078378e-02  -1.013744e-02  0 
 -1.515247e-02  -1.046276e-02  0 
 -1.401022e-02  -1.028986e-02  0 
 -1.327671e-02  -1.089843e-02  0 
 -1.214297e-02  -1.149583e-02  0 
 -1.077103e-02  -1.189054e-02  0 
VECTORS displacement_ITER6 FLOAT
 0  0  0 
 -1.012333e-02  -5.846967e-03  0 
 2.740642e-04  -3.765117e-04  0 
 2.633463e-04  -9.402991e-04  0 
 7.697816e-06  -1.585859e-03  0 
 -4.590628e-04  -2.225409e-03  0 
 -1.073265e-03  -2.889094e-03  0 
 -1.891355e-03  -3.657461e-03  0 
 -3.156088e-03  -4.510688e-03  0 
 -5.356062e-03  -5.250820e-03  0 
 4.926749e-20  3.702318e-19  0 
 0  0  0 
 0  0  0 
 -3.110127e-03  -3.637924e-03  0 
 -4.954472e-03  -3.936107e-03  0 
 0  0  0 
 0  0  0 
 0  0  0 
 0  0  0 
 4.353697e-21  1.435263e-19  0 
 -1.387979e-02  -7.746969e-03  0 
 -1.403993e-02  -8.002877e-03  0 
 -1.340995e-02  -8.010326e-03  0 
 -1.230701e-02  -7.894871e-03  0 
 -1.084145e-02  -7.731790e-03  0 
 -1.492618e-02  -7.837378e-03  0 
 -1.732754e-02  -1.031233e-02  0 
 -5.590078e-04  -5.368021e-04  0 
 -2.784309e-04  -4.263732e-04  0 
 -7.347712e-05  -3.675456e-04  0 
 -9.101345e-04  -1.132625e-03  0 
 -5.995275e-04  -1.062338e-03  0 
 -2.335943e-04  -9.843336e-04  0 
 -1.216469e-03  -1.801588e-03  0 
 -9.186234e-04  -1.777100e-03  0 
 -5.280644e-04  -1.689211e-03  0 
 -1.492003e-03  -2.528177e-03  0 
 -1.297732e-03  -2.525559e-03  0 
 -9.825762e-04  -2.388986e-03  0 
 -1.573013e-03  -3.111333e-03  0 
 -1.826897e-03  -3.198707e-03  0 
 -1.647440e-03  -3.059400e-03  0 
 -2.788268e-03  -3.859394e-03  0 
 -2.477353e-03  -3.858701e-03  0 
 -3.478603e-03  -4.681623e-03  0 
 -3.556804e-03  -4.813310e-03  0 
 -3.359483e-03  -4.686973e-03  0 
 -4.885851e-03  -5.559272e-03  0 
 -4.266806e-04  -1.108250e-03  0 
 -6.455310e-04  -1.339411e-03  0 
 -7.256086e-04  -1.382139e-03  0 
 -7.101679e-04  -1.312779e-03  0 
 -4.682194e-04  -1.153251e-03  0 
 -6.857940e-04  -1.838337e-03  0 
 -1.233754e-03  -2.322249e-03  0 
 -1.488056e-03  -2.474393e-03  0 
 -1.557019e-03  -2.435887e-03  0 
 -1.463840e-03  -2.232225e-03  0 
 -1.102124e-03  -2.519534e-03  0 
 -1.862063e-03  -3.076535e-03  0 
 -2.316316e-03  -3.293420e-03  0 
 -2.540914e-03  -3.254027e-03  0 
 -2.626810e-03  -3.016740e-03  0 
 -1.746082e-03  -3.197663e-03  0 
 -2.689165e-03  -3.727918e-03  0 
 -3.311319e-03  -3.898111e-03  0 
 -3.664089e-03  -3.812421e-03  0 
 -3.846370e-03  -3.549778e-03  0 
 -2.670957e-03  -3.894870e-03  0 
 -3.840672e-03  -4.321111e-03  0 
 -4.582916e-03  -4.373207e-03  0 
 -4.954409e-03  -4.216358e-03  0 
 -5.091113e-03  -3.942163e-03  0 
 -4.014001e-03  -4.609474e-03  0 
 -5.457807e-03  -4.874694e-03  0 
 -6.219827e-03  -4.811806e-03  0 
 -6.439914e-03  -4.615167e-03  0 
 -6.352687e-03  -4.349465e-03  0 
 -6.058728e-03  -5.305479e-03  0 
 -7.688057e-03  -5.426150e-03  0 
 -8.252385e-03  -5.386444e-03  0 
 -8.139616e-03  -5.215398e-03  0 
 -7.646466e-03  -4.959706e-03  0 
 -9.259850e-03  -5.972817e-03  0 
 -1.054463e-02  -6.259139e-03  0 
 -1.063901e-02  -6.359677e-03  0 
 -1.010227e-02  -6.273924e-03  0 
 -9.050943e-03  -5.979873e-03  0 
 -7.163575e-03  -5.072208e-03  0 
 -1.069057e-02  -6.148239e-03  0 
 -1.773312e-02  -1.021371e-02  0 
 -1.389572e-02  -7.595559e-03  0 
 -1.400851e-02  -8.524878e-03  0 
 -1.342316e-02  -8.986751e-03  0 
 -1.233708e-02  -9.242307e-03  0 
 -1.086886e-02  -9.377134e-03  0 
 -1.516731e-02  -9.709572e-03  0 
 -1.415776e-02  -9.607593e-03  0 
 -1.344812e-02  -1.017813e-02  0 
 -1.227742e-02  -1.077819e-02  0 
 -1.085437e-02  -1.115930e-02  0 
VECTORS displacement_ITER7 FLOAT
 0  0  0 
 -9.891537e-03  -5.853658e-03  0 
 2.689716e-04  -3.600613e-04  0 
 2.716990e-04  -8.996656e-04  0 
 4.601580e-05  -1.531413e-03  0 
 -3.913360e-04  -2.174903e-03  0 
 -9.956601e-04  -2.842716e-03  0 
 -1.811554e-03  -3.596905e-03  0 
 -3.049464e-03  -4.430045e-03  0 
 -5.190546e-03  -5.183861e-03  0 
 3.834524e-20  3.173170e-19  0 
 0  0  0 
 0  0  0 
 -3.121335e-03  -3.659996e-03  0 
 -4.834074e-03  -3.939787e-03  0 
 0  0  0 
 0  0  0 
 0  0  0 
 0  0  0 
 8.412626e-21  1.246954e-19  0 
 -1.366844e-02  -7.752981e-03  0 
 -1.388229e-02  -7.987212e-03  0 
 -1.328188e-02  -7.978283e-03  0 
 -1.220338e-02  -7.867942e-03  0 
 -1.077941e-02  -7.724734e-03  0 
 -1.462790e-02  -7.790519e-03  0 
 -1.694011e-02  -1.008539e-02  0 
 -4.774925e-04  -4.998316e-04  0 
 -2.501346e-04  -4.063607e-04  0 
 -6.226767e-05  -3.497633e-04  0 
 -8.095941e-04  -1.065245e-03  0 
 -5.509291e-04  -1.003743e-03  0 
 -2.089749e-04  -9.359380e-04  0 
 -1.142797e-03  -1.716582e-03  0 
 -8.692608e-04  -1.692701e-03  0 
 -4.852956e-04  -1.621183e-03  0 
 -1.487361e-03  -2.447352e-03  0 
 -1.250402e-03  -2.448158e-03  0 
 -9.177731e-04  -2.328523e-03  0 
 -1.701454e-03  -3.170688e-03  0 
 -1.765660e-03  -3.171987e-03  0 
 -1.563372e-03  -3.017027e-03  0 
 -2.644168e-03  -3.801273e-03  0 
 -2.383685e-03  -3.801573e-03  0 
 -3.340540e-03  -4.582703e-03  0 
 -3.448693e-03  -4.717466e-03  0 
 -3.305336e-03  -4.601734e-03  0 
 -4.767373e-03  -5.475635e-03  0 
 -4.327658e-04  -1.107366e-03  0 
 -6.463809e-04  -1.353195e-03  0 
 -7.142205e-04  -1.410800e-03  0 
 -6.764053e-04  -1.363442e-03  0 
 -3.936929e-04  -1.252817e-03  0 
 -6.826176e-04  -1.840934e-03  0 
 -1.222959e-03  -2.360826e-03  0 
 -1.453022e-03  -2.549542e-03  0 
 -1.471664e-03  -2.558461e-03  0 
 -1.292764e-03  -2.428619e-03  0 
 -1.074866e-03  -2.529639e-03  0 
 -1.828010e-03  -3.145722e-03  0 
 -2.249727e-03  -3.425488e-03  0 
 -2.405054e-03  -3.458767e-03  0 
 -2.369912e-03  -3.313755e-03  0 
 -1.689208e-03  -3.215622e-03  0 
 -2.623181e-03  -3.825408e-03  0 
 -3.210290e-03  -4.085275e-03  0 
 -3.490551e-03  -4.097055e-03  0 
 -3.542835e-03  -3.939759e-03  0 
 -2.585717e-03  -3.916046e-03  0 
 -3.736466e-03  -4.437084e-03  0 
 -4.447082e-03  -4.598867e-03  0 
 -4.762965e-03  -4.558141e-03  0 
 -4.796954e-03  -4.396396e-03  0 
 -3.897914e-03  -4.628927e-03  0 
 -5.311532e-03  -4.993816e-03  0 
 -6.051815e-03  -5.042418e-03  0 
 -6.251000e-03  -4.965229e-03  0 
 -6.125998e-03  -4.810550e-03  0 
 -5.902354e-03  -5.322733e-03  0 
 -7.504696e-03  -5.529407e-03  0 
 -8.063536e-03  -5.573730e-03  0 
 -7.968223e-03  -5.499835e-03  0 
 -7.524564e-03  -5.341674e-03  0 
 -9.060609e-03  -5.991597e-03  0 
 -1.034865e-02  -6.321202e-03  0 
 -1.046005e-02  -6.455090e-03  0 
 -9.955817e-03  -6.413279e-03  0 
 -9.016486e-03  -6.188047e-03  0 
 -7.915000e-03  -6.022911e-03  0 
 -1.021005e-02  -6.415018e-03  0 
 -1.594806e-02  -9.098845e-03  0 
 -1.369581e-02  -7.546771e-03  0 
 -1.386197e-02  -8.465814e-03  0 
 -1.329611e-02  -8.925519e-03  0 
 -1.223088e-02  -9.177135e-03  0 
 -1.080444e-02  -9.309688e-03  0 
 -1.497148e-02  -9.565475e-03  0 
 -1.402043e-02  -9.524928e-03  0 
 -1.332317e-02  -1.010123e-02  0 
 -1.218220e-02  -1.066538e-02  0 
 -1.079017e-02  -1.102114e-02  0 
VECTORS displacement_ITER8 FLOAT
 0  0  0 
 -9.837714e-03  -5.682029e-03  0 
 2.565128e-04  -3.459786e-04  0 
 2.582909e-04  -8.632375e-04  0 
 4.264043e-05  -1.475919e-03  0 
 -3.852048e-04  -2.109175e-03  0 
 -9.942694e-04  -2.762752e-03  0 
 -1.820331e-03  -3.485557e-03  0 
 -3.050163e-03  -4.281100e-03  0 
 -5.163196e-03  -5.018241e-03  0 
 3.912031e-20  2.713607e-19  0 
 0  0  0 
 0  0  0 
 -3.182861e-03  -3.557025e-03  0 
 -4.810142e-03  -3.798689e-03  0 
 0  0  0 
 0  0  0 
 0  0  0 
 0  0  0 
 8.029683e-21  1.061249e-19  0 
 -1.364887e-02  -7.546901e-03  0 
 -1.388483e-02  -7.733906e-03  0 
 -1.327193e-02  -7.685599e-03  0 
 -1.216630e-02  -7.559102e-03  0 
 -1.072267e-02  -7.411792e-03  0 
 -1.454270e-02  -7.551640e-03  0 
 -1.678935e-02  -9.721259e-03  0 
 -4.150317e-04  -4.763166e-04  0 
 -2.308280e-04  -3.941885e-04  0 
 -5.932365e-05  -3.374173e-04  0 
 -7.322797e-04  -1.018607e-03  0 
 -5.197684e-04  -9.604880e-04  0 
 -2.033514e-04  -8.971438e-04  0 
 -1.084868e-03  -1.649022e-03  0 
 -8.420468e-04  -1.621988e-03  0 
 -4.744685e-04  -1.559185e-03  0 
 -1.480967e-03  -2.367234e-03  0 
 -1.229630e-03  -2.368112e-03  0 
 -8.989738e-04  -2.258743e-03  0 
 -1.797878e-03  -3.173892e-03  0 
 -1.737899e-03  -3.110428e-03  0 
 -1.538188e-03  -2.943375e-03  0 
 -2.560198e-03  -3.699066e-03  0 
 -2.360012e-03  -3.696345e-03  0 
 -3.267750e-03  -4.425145e-03  0 
 -3.423794e-03  -4.560012e-03  0 
 -3.306911e-03  -4.429557e-03  0 
 -4.739950e-03  -5.300028e-03  0 
 -4.443035e-04  -1.098193e-03  0 
 -6.587801e-04  -1.350989e-03  0 
 -7.287517e-04  -1.416074e-03  0 
 -6.965239e-04  -1.378760e-03  0 
 -4.388850e-04  -1.282272e-03  0 
 -6.976282e-04  -1.820983e-03  0 
 -1.241048e-03  -2.354034e-03  0 
 -1.474912e-03  -2.554932e-03  0 
 -1.498825e-03  -2.576851e-03  0 
 -1.330063e-03  -2.470408e-03  0 
 -1.085195e-03  -2.496338e-03  0 
 -1.846293e-03  -3.130780e-03  0 
 -2.273955e-03  -3.429071e-03  0 
 -2.429627e-03  -3.483073e-03  0 
 -2.383477e-03  -3.368224e-03  0 
 -1.692436e-03  -3.164542e-03  0 
 -2.636064e-03  -3.796454e-03  0 
 -3.230720e-03  -4.084549e-03  0 
 -3.510204e-03  -4.128586e-03  0 
 -3.541199e-03  -4.008546e-03  0 
 -2.583136e-03  -3.840666e-03  0 
 -3.737366e-03  -4.385923e-03  0 
 -4.456703e-03  -4.584169e-03  0 
 -4.779226e-03  -4.587415e-03  0 
 -4.801641e-03  -4.470927e-03  0 
 -3.887536e-03  -4.524359e-03  0 
 -5.294692e-03  -4.909983e-03  0 
 -6.044031e-03  -4.993238e-03  0 
 -6.264062e-03  -4.965447e-03  0 
 -6.159568e-03  -4.863451e-03  0 
 -5.878694e-03  -5.188214e-03  0 
 -7.472292e-03  -5.401448e-03  0 
 -8.037052e-03  -5.460351e-03  0 
 -7.971776e-03  -5.426225e-03  0 
 -7.593270e-03  -5.323792e-03  0 
 -9.027199e-03  -5.826816e-03  0 
 -1.031737e-02  -6.136971e-03  0 