# vtk DataFile Version 3.1
this is an vtk file created by FEMAC
ASCII
DATASET UNSTRUCTURED_GRID
POINTS 101 FLOAT
5.000000 5.000000 0.000000
6.000000 4.000000 0.000000
5.000000 4.222222 0.000000
5.000000 4.333333 0.000000
5.000000 4.444444 0.000000
5.000000 4.555556 0.000000
5.000000 4.666667 0.000000
5.000000 4.777778 0.000000
5.000000 4.888889 0.000000
5.111111 4.000000 0.000000
5.222222 4.000000 0.000000
5.333333 4.000000 0.000000
5.444444 4.000000 0.000000
5.555556 4.000000 0.000000
5.666667 4.000000 0.000000
5.777778 4.000000 0.000000
5.888889 4.000000 0.000000
6.000000 3.888889 0.000000
5.111111 5.000000 0.000000
5.222222 5.000000 0.000000
5.333333 5.000000 0.000000
5.444444 5.000000 0.000000
5.555556 5.000000 0.000000
6.000000 4.111111 0.000000
6.000000 4.222222 0.000000
6.000000 4.333333 0.000000
6.000000 4.444444 0.000000
6.000000 4.555556 0.000000
6.000000 4.666667 0.000000
6.000000 4.777778 0.000000
6.000000 4.888889 0.000000
5.333333 3.888889 0.000000
5.444444 3.888889 0.000000
5.555556 3.888889 0.000000
5.666667 3.888889 0.000000
5.777778 3.888889 0.000000
5.888889 3.888889 0.000000
5.111111 4.111111 0.000000
5.111111 4.222222 0.000000
5.111111 4.333333 0.000000
5.111111 4.444444 0.000000
5.111111 4.555556 0.000000
5.111111 4.666667 0.000000
5.111111 4.777778 0.000000
5.111111 4.888889 0.000000
5.222222 4.111111 0.000000
5.222222 4.222222 0.000000
5.222222 4.333333 0.000000
5.222222 4.444444 0.000000
5.222222 4.555556 0.000000
5.222222 4.666667 0.000000
5.222222 4.777778 0.000000
5.222222 4.888889 0.000000
5.333333 4.111111 0.000000
5.333333 4.222222 0.000000
5.333333 4.333333 0.000000
5.333333 4.444444 0.000000
5.333333 4.555556 0.000000
5.333333 4.666667 0.000000
5.333333 4.777778 0.000000
5.333333 4.888889 0.000000
5.444444 4.111111 0.000000
5.444444 4.222222 0.000000
5.444444 4.333333 0.000000
5.444444 4.444444 0.000000
5.444444 4.555556 0.000000
5.444444 4.666667 0.000000
5.444444 4.777778 0.000000
5.444444 4.888889 0.000000
5.555556 4.111111 0.000000
5.555556 4.222222 0.000000
5.555556 4.333333 0.000000
5.555556 4.444444 0.000000
5.555556 4.555556 0.000000
5.555556 4.666667 0.000000
5.555556 4.777778 0.000000
5.555556 4.888889 0.000000
5.666667 4.111111 0.000000
5.666667 4.222222 0.000000
5.666667 4.333333 0.000000
5.666667 4.444444 0.000000
5.666667 4.555556 0.000000
5.666667 4.666667 0.000000
5.666667 4.777778 0.000000
5.666667 4.888889 0.000000
5.777778 4.111111 0.000000
5.777778 4.222222 0.000000
5.777778 4.333333 0.000000
5.777778 4.444444 0.000000
5.777778 4.555556 0.000000
5.777778 4.666667 0.000000
5.777778 4.777778 0.000000
5.777778 4.888889 0.000000
5.888889 4.111111 0.000000
5.888889 4.222222 0.000000
5.888889 4.333333 0.000000
5.888889 4.444444 0.000000
5.888889 4.555556 0.000000
5.888889 4.666667 0.000000
5.888889 4.777778 0.000000
5.888889 4.888889 0.000000
CELLS 81 405 
4 31 32 12 11
4 32 33 13 12
4 33 34 14 13
4 34 35 15 14
4 35 36 16 15
4 36 17  1 16
4 2 38 39  3
4 3 39 40  4
4 4 40 41  5
4 5 41 42  6
4 6 42 43  7
4 7 43 44  8
4 8 44 18  0
4 9 10 45 37
4 37 45 46 38
4 38 46 47 39
4 39 47 48 40
4 40 48 49 41
4 41 49 50 42
4 42 50 51 43
4 43 51 52 44
4 44 52 19 18
4 10 11 53 45
4 45 53 54 46
4 46 54 55 47
4 47 55 56 48
4 48 56 57 49
4 49 57 58 50
4 50 58 59 51
4 51 59 60 52
4 52 60 20 19
4 11 12 61 53
4 53 61 62 54
4 54 62 63 55
4 55 63 64 56
4 56 64 65 57
4 57 65 66 58
4 58 66 67 59
4 59 67 68 60
4 60 68 21 20
4 12 13 69 61
4 61 69 70 62
4 62 70 71 63
4 63 71 72 64
4 64 72 73 65
4 65 73 74 66
4 66 74 75 67
4 67 75 76 68
4 68 76 22 21
4 13 14 77 69
4 69 77 78 70
4 70 78 79 71
4 71 79 80 72
4 72 80 81 73
4 73 81 82 74
4 74 82 83 75
4 75 83 84 76
4 14 15 85 77
4 77 85 86 78
4 78 86 87 79
4 79 87 88 80
4 80 88 89 81
4 81 89 90 82
4 82 90 91 83
4 83 91 92 84
4 15 16 93 85
4 85 93 94 86
4 86 94 95 87
4 87 95 96 88
4 88 96 97 89
4 89 97 98 90
4 90 98 99 91
4 91  99 100  92
4 16  1 23 93
4 93 23 24 94
4 94 24 25 95
4 95 25 26 96
4 96 26 27 97
4 97 27 28 98
4 98 28 29 99
4 99  29  30 100
CELL_TYPES 81
9 9 9 9 9 9 9 9 9 9 9 9 9 9 9 9 9 9 9 9 9 9 9 9 9 9 9 9 9 9 9 9 9 9 9 9 9 9 9 9 9 9 9 9 9 9 9 9 9 9 9 9 9 9 9 9 9 9 9 9 9 9 9 9 9 9 9 9 9 9 9 9 9 9 9 9 9 9 9 9 9 
POINT_DATA 101
VECTORS displacement_ITER1 FLOAT
 6.299057e-02  -1.361721e-01  0 
 3.223261e-02  -1.646120e-01  0 
 3.735562e-02  -1.376346e-01  0 
 3.906755e-02  -1.383477e-01  0 
 4.360411e-02  -1.370173e-01  0 
 4.906871e-02  -1.369331e-01  0 
 5.349364e-02  -1.371968e-01  0 
 5.699936e-02  -1.373326e-01  0 
 5.924700e-02  -1.376013e-01  0 
 3.180487e-02  -1.395081e-01  0 
 3.182868e-02  -1.418304e-01  0 
 3.258698e-02  -1.448523e-01  0 
 3.259102e-02  -1.486973e-01  0 
 3.251193e-02  -1.523629e-01  0 
 3.241110e-02  -1.557573e-01  0 
 3.231431e-02  -1.588862e-01  0 
 3.224292e-02  -1.617936e-01  0 
 2.942908e-02  -1.645511e-01  0 
 6.130861e-02  -1.429566e-01  0 
 6.305428e-02  -1.463549e-01  0 
 6.276279e-02  -1.517668e-01  0 
 6.264951e-02  -1.551313e-01  0 
 6.335731e-02  -1.604707e-01  0 
 3.608477e-02  -1.668191e-01  0 
 3.954911e-02  -1.682752e-01  0 
 4.279747e-02  -1.694003e-01  0 
 4.586350e-02  -1.702814e-01  0 
 4.873140e-02  -1.709138e-01  0 
 5.130712e-02  -1.712654e-01  0 
 5.338850e-02  -1.713521e-01  0 
 5.456040e-02  -1.715132e-01  0 
 2.874296e-02  -1.448097e-01  0 
 2.883850e-02  -1.486873e-01  0 
 2.899140e-02  -1.523426e-01  0 
 2.915697e-02  -1.557390e-01  0 
 2.930243e-02  -1.588685e-01  0 
 2.940113e-02  -1.617843e-01  0 
 3.581627e-02  -1.385893e-01  0 
 3.839664e-02  -1.398861e-01  0 
 4.024978e-02  -1.413125e-01  0 
 4.377037e-02  -1.422109e-01  0 
 4.825846e-02  -1.423021e-01  0 
 5.246749e-02  -1.421359e-01  0 
 5.605973e-02  -1.419518e-01  0 
 5.921927e-02  -1.419130e-01  0 
 3.502923e-02  -1.431107e-01  0 
 3.822897e-02  -1.438511e-01  0 
 4.105385e-02  -1.450114e-01  0 
 4.418186e-02  -1.461552e-01  0 
 4.783203e-02  -1.467372e-01  0 
 5.168720e-02  -1.467752e-01  0 
 5.543290e-02  -1.466254e-01  0 
 5.898804e-02  -1.465583e-01  0 
 3.518521e-02  -1.466031e-01  0 
 3.819048e-02  -1.478415e-01  0 
 4.129548e-02  -1.489319e-01  0 
 4.441843e-02  -1.499883e-01  0 
 4.770495e-02  -1.507821e-01  0 
 5.122452e-02  -1.511679e-01  0 
 5.497424e-02  -1.512057e-01  0 
 5.889725e-02  -1.512220e-01  0 
 3.546976e-02  -1.500997e-01  0 
 3.837337e-02  -1.514766e-01  0 
 4.143128e-02  -1.526891e-01  0 
 4.454338e-02  -1.537720e-01  0 
 4.769887e-02  -1.546967e-01  0 
 5.098130e-02  -1.553765e-01  0 
 5.451348e-02  -1.557445e-01  0 
 5.858646e-02  -1.556406e-01  0 
 3.553798e-02  -1.536462e-01  0 
 3.856125e-02  -1.549582e-01  0 
 4.162181e-02  -1.562325e-01  0 
 4.470979e-02  -1.574042e-01  0 
 4.779171e-02  -1.584502e-01  0 
 5.089789e-02  -1.593388e-01  0 
 5.411413e-02  -1.600319e-01  0 
 5.764416e-02  -1.604789e-01  0 
 3.554159e-02  -1.570357e-01  0 
 3.870470e-02  -1.583418e-01  0 
 4.186136e-02  -1.596348e-01  0 
 4.496762e-02  -1.608523e-01  0 
 4.799062e-02  -1.619597e-01  0 
 5.093094e-02  -1.629441e-01  0 
 5.382765e-02  -1.637656e-01  0 
 5.661082e-02  -1.643113e-01  0 
 3.555741e-02  -1.602567e-01  0 
 3.888038e-02  -1.616351e-01  0 
 4.215080e-02  -1.629512e-01  0 
 4.528522e-02  -1.641307e-01  0 
 4.826299e-02  -1.651791e-01  0 
 5.103836e-02  -1.661131e-01  0 
 5.355879e-02  -1.668707e-01  0 
 5.581110e-02  -1.673150e-01  0 
 3.566868e-02  -1.633946e-01  0 
 3.917705e-02  -1.649331e-01  0 
 4.247830e-02  -1.662077e-01  0 
 4.560077e-02  -1.672635e-01  0 
 4.853366e-02  -1.681317e-01  0 
 5.119260e-02  -1.688364e-01  0 
 5.339158e-02  -1.694182e-01  0 
 5.507313e-02  -1.697522e-01  0 
VECTORS displacement_ITER2 FLOAT
 5.895518e-02  -1.285367e-01  0 
 3.530322e-02  -1.532973e-01  0 
 3.638708e-02  -1.241169e-01  0 
 4.181727e-02  -1.243223e-01  0 
 4.556729e-02  -1.256550e-01  0 
 4.664673e-02  -1.269630e-01  0 
 4.796245e-02  -1.268161e-01  0 
 5.111154e-02  -1.258607e-01  0 
 5.679399e-02  -1.256857e-01  0 
 3.234017e-02  -1.307073e-01  0 
 3.318949e-02  -1.331509e-01  0 
 3.496685e-02  -1.350748e-01  0 
 3.504153e-02  -1.379425e-01  0 
 3.511289e-02  -1.408529e-01  0 
 3.519261e-02  -1.438490e-01  0 
 3.525643e-02  -1.469475e-01  0 
 3.528769e-02  -1.501079e-01  0 
 3.210549e-02  -1.532784e-01  0 
 6.139727e-02  -1.320106e-01  0 
 6.236734e-02  -1.380692e-01  0 
 6.088990e-02  -1.414122e-01  0 
 6.044799e-02  -1.453976e-01  0 
 6.168441e-02  -1.490569e-01  0 
 3.870814e-02  -1.548800e-01  0 
 4.157928e-02  -1.564004e-01  0 
 4.434710e-02  -1.580174e-01  0 
 4.720734e-02  -1.597082e-01  0 
 5.030533e-02  -1.614416e-01  0 
 5.377016e-02  -1.631816e-01  0 
 5.773954e-02  -1.648778e-01  0 
 6.273332e-02  -1.664078e-01  0 
 3.214397e-02  -1.350467e-01  0 
 3.217837e-02  -1.379249e-01  0 
 3.217929e-02  -1.408238e-01  0 
 3.215541e-02  -1.438215e-01  0 
 3.212978e-02  -1.469252e-01  0 
 3.211843e-02  -1.500977e-01  0 
 3.641528e-02  -1.299878e-01  0 
 3.845014e-02  -1.298143e-01  0 
 4.158821e-02  -1.301280e-01  0 
 4.483976e-02  -1.301099e-01  0 
 4.705567e-02  -1.303078e-01  0 
 4.916582e-02  -1.308870e-01  0 
 5.247998e-02  -1.315896e-01  0 
 5.687308e-02  -1.319441e-01  0 
 3.584472e-02  -1.337031e-01  0 
 3.868468e-02  -1.338570e-01  0 
 4.156676e-02  -1.342104e-01  0 
 4.449667e-02  -1.344361e-01  0 
 4.735057e-02  -1.347238e-01  0 
 5.025954e-02  -1.354149e-01  0 
 5.354566e-02  -1.363303e-01  0 
 5.736019e-02  -1.371188e-01  0 
 3.630481e-02  -1.366006e-01  0 
 3.882483e-02  -1.374302e-01  0 
 4.166921e-02  -1.380035e-01  0 
 4.463948e-02  -1.385182e-01  0 
 4.775655e-02  -1.390790e-01  0 
 5.100475e-02  -1.397977e-01  0 
 5.436772e-02  -1.406625e-01  0 
 5.786999e-02  -1.415429e-01  0 
 3.695038e-02  -1.393326e-01  0 
 3.922112e-02  -1.406405e-01  0 
 4.196075e-02  -1.416166e-01  0 
 4.498224e-02  -1.424167e-01  0 
 4.821063e-02  -1.431564e-01  0 
 5.158368e-02  -1.438842e-01  0 
 5.496876e-02  -1.446002e-01  0 
 5.808333e-02  -1.450707e-01  0 
 3.730156e-02  -1.423726e-01  0 
 3.971002e-02  -1.438125e-01  0 
 4.240212e-02  -1.450851e-01  0 
 4.540072e-02  -1.461402e-01  0 
 4.864416e-02  -1.470177e-01  0 
 5.204807e-02  -1.477451e-01  0 
 5.546429e-02  -1.482936e-01  0 
 5.848757e-02  -1.486364e-01  0 
 3.760819e-02  -1.454818e-01  0 
 4.015840e-02  -1.470488e-01  0 
 4.288637e-02  -1.484879e-01  0 
 4.583948e-02  -1.497345e-01  0 
 4.903903e-02  -1.507531e-01  0 
 5.246155e-02  -1.515497e-01  0 
 5.604587e-02  -1.521969e-01  0 
 6.010219e-02  -1.530991e-01  0 
 3.791909e-02  -1.486181e-01  0 
 4.060853e-02  -1.502755e-01  0 
 4.336934e-02  -1.518347e-01  0 
 4.627514e-02  -1.532298e-01  0 
 4.941750e-02  -1.544320e-01  0 
 5.288225e-02  -1.554352e-01  0 
 5.679383e-02  -1.563433e-01  0 
 6.108567e-02  -1.572295e-01  0 
 3.826061e-02  -1.517462e-01  0 
 4.109439e-02  -1.534394e-01  0 
 4.385473e-02  -1.550515e-01  0 
 4.672096e-02  -1.565873e-01  0 
 4.982562e-02  -1.580331e-01  0 
 5.330619e-02  -1.593716e-01  0 
 5.732387e-02  -1.605202e-01  0 
 6.189938e-02  -1.614194e-01  0 
VECTORS displacement_ITER3 FLOAT
 5.836818e-02  -1.188148e-01  0 
 3.335656e-02  -1.432484e-01  0 
 4.075463e-02  -1.225483e-01  0 
 4.262770e-02  -1.204366e-01  0 
 4.471246e-02  -1.189201e-01  0 
 4.765561e-02  -1.177911e-01  0 
 5.126545e-02  -1.184251e-01  0 
 5.328240e-02  -1.201494e-01  0 
 5.423135e-02  -1.201827e-01  0 
 3.387854e-02  -1.214871e-01  0 
 3.358043e-02  -1.239450e-01  0 
 3.300978e-02  -1.268970e-01  0 
 3.309287e-02  -1.294823e-01  0 
 3.316127e-02  -1.320829e-01  0 
 3.323934e-02  -1.347552e-01  0 
 3.330490e-02  -1.375287e-01  0 
 3.333897e-02  -1.403705e-01  0 
 3.047059e-02  -1.432234e-01  0 
 5.743911e-02  -1.245756e-01  0 
 5.777538e-02  -1.272308e-01  0 
 5.900235e-02  -1.304193e-01  0 
 5.897147e-02  -1.358798e-01  0 
 5.752385e-02  -1.396409e-01  0 
 3.674995e-02  -1.450688e-01  0 
 3.960565e-02  -1.465322e-01  0 
 4.227669e-02  -1.479014e-01  0 
 4.490532e-02  -1.492047e-01  0 
 4.756920e-02  -1.504361e-01  0 
 5.028853e-02  -1.515751e-01  0 
 5.302051e-02  -1.526166e-01  0 
 5.576834e-02  -1.537186e-01  0 
 3.046999e-02  -1.268740e-01  0 
 3.052466e-02  -1.294625e-01  0 
 3.054041e-02  -1.320516e-01  0 
 3.052295e-02  -1.347261e-01  0 
 3.049653e-02  -1.375047e-01  0 
 3.048224e-02  -1.403589e-01  0 
 3.642733e-02  -1.218889e-01  0 
 3.955239e-02  -1.229015e-01  0 
 4.142750e-02  -1.232805e-01  0 
 4.405001e-02  -1.230511e-01  0 
 4.724625e-02  -1.230613e-01  0 
 5.056033e-02  -1.231256e-01  0 
 5.306459e-02  -1.231510e-01  0 
 5.512315e-02  -1.236891e-01  0 
 3.609702e-02  -1.251036e-01  0 
 3.873565e-02  -1.258157e-01  0 
 4.118040e-02  -1.263514e-01  0 
 4.383253e-02  -1.268735e-01  0 
 4.684477e-02  -1.271727e-01  0 
 4.986333e-02  -1.272355e-01  0 
 5.276091e-02  -1.271892e-01  0 
 5.562194e-02  -1.271601e-01  0 
 3.579806e-02  -1.279616e-01  0 
 3.836924e-02  -1.289091e-01  0 
 4.100260e-02  -1.297050e-01  0 
 4.372910e-02  -1.303990e-01  0 
 4.656641e-02  -1.309099e-01  0 
 4.947956e-02  -1.311889e-01  0 
 5.240930e-02  -1.312890e-01  0 
 5.538905e-02  -1.310928e-01  0 
 3.561766e-02  -1.308566e-01  0 
 3.825818e-02  -1.319809e-01  0 
 4.093382e-02  -1.329789e-01  0 
 4.366925e-02  -1.338273e-01  0 
 4.645853e-02  -1.345029e-01  0 
 4.930828e-02  -1.349873e-01  0 
 5.220733e-02  -1.352969e-01  0 
 5.516959e-02  -1.355673e-01  0 
 3.567424e-02  -1.336360e-01  0 
 3.829895e-02  -1.349852e-01  0 
 4.099171e-02  -1.361530e-01  0 
 4.371958e-02  -1.371590e-01  0 
 4.648475e-02  -1.379952e-01  0 
 4.930272e-02  -1.386634e-01  0 
 5.220898e-02  -1.391823e-01  0 
 5.515337e-02  -1.395154e-01  0 
 3.583038e-02  -1.364162e-01  0 
 3.848345e-02  -1.379132e-01  0 
 4.117915e-02  -1.392379e-01  0 
 4.389534e-02  -1.403875e-01  0 
 4.663534e-02  -1.413715e-01  0 
 4.943553e-02  -1.422099e-01  0 
 5.233745e-02  -1.429373e-01  0 
 5.554839e-02  -1.437394e-01  0 
 3.604194e-02  -1.392195e-01  0 
 3.877607e-02  -1.408091e-01  0 
 4.148778e-02  -1.422435e-01  0 
 4.417893e-02  -1.434951e-01  0 
 4.689178e-02  -1.445965e-01  0 
 4.966733e-02  -1.455859e-01  0 
 5.258572e-02  -1.464958e-01  0 
 5.563439e-02  -1.472727e-01  0 
 3.631161e-02  -1.420596e-01  0 
 3.917444e-02  -1.437052e-01  0 
 4.187230e-02  -1.451537e-01  0 
 4.452949e-02  -1.464491e-01  0 
 4.721658e-02  -1.476276e-01  0 
 4.996822e-02  -1.487198e-01  0 
 5.277121e-02  -1.497194e-01  0 
 5.564139e-02  -1.504940e-01  0 
VECTORS displacement_ITER4 FLOAT
 5.530485e-02  -1.167685e-01  0 
 3.078171e-02  -1.385230e-01  0 
 3.356690e-02  -1.141323e-01  0 
 3.888076e-02  -1.150266e-01  0 
 4.055738e-02  -1.161995e-01  0 
 4.278534e-02  -1.160478e-01  0 
 4.566330e-02  -1.156980e-01  0 
 4.912917e-02  -1.156333e-01  0 
 5.232457e-02  -1.161585e-01  0 
 3.138778e-02  -1.174025e-01  0 
 3.056597e-02  -1.199842e-01  0 
 3.054345e-02  -1.236008e-01  0 
 3.063666e-02  -1.261111e-01  0 
 3.068769e-02  -1.286044e-01  0 
 3.072984e-02  -1.310871e-01  0 
 3.075931e-02  -1.335724e-01  0 
 3.077003e-02  -1.360474e-01  0 
 2.830569e-02  -1.384894e-01  0 
 5.467603e-02  -1.205353e-01  0 
 5.539340e-02  -1.248663e-01  0 
 5.549317e-02  -1.291826e-01  0 
 5.488666e-02  -1.325368e-01  0 
 5.512121e-02  -1.363770e-01  0 
 3.391068e-02  -1.405296e-01  0 
 3.653810e-02  -1.421027e-01  0 
 3.898440e-02  -1.435321e-01  0 
 4.135277e-02  -1.448450e-01  0 
 4.367464e-02  -1.460306e-01  0 
 4.591510e-02  -1.470826e-01  0 
 4.797142e-02  -1.480628e-01  0 
 4.972221e-02  -1.493703e-01  0 
 2.809160e-02  -1.235740e-01  0 
 2.816050e-02  -1.260900e-01  0 
 2.821627e-02  -1.285745e-01  0 
 2.825564e-02  -1.310588e-01  0 
 2.828288e-02  -1.335480e-01  0 
 2.830393e-02  -1.360344e-01  0 
 3.238564e-02  -1.186747e-01  0 
 3.431955e-02  -1.194097e-01  0 
 3.764175e-02  -1.195540e-01  0 
 4.034517e-02  -1.196062e-01  0 
 4.273546e-02  -1.199927e-01  0 
 4.565177e-02  -1.202496e-01  0 
 4.893452e-02  -1.204153e-01  0 
 5.220259e-02  -1.205183e-01  0 
 3.268009e-02  -1.213526e-01  0 
 3.470427e-02  -1.225033e-01  0 
 3.719953e-02  -1.232215e-01  0 
 3.994470e-02  -1.235888e-01  0 
 4.271345e-02  -1.239741e-01  0 
 4.562980e-02  -1.243832e-01  0 
 4.876766e-02  -1.246307e-01  0 
 5.194689e-02  -1.246873e-01  0 
 3.270741e-02  -1.244910e-01  0 
 3.486995e-02  -1.255508e-01  0 
 3.720808e-02  -1.265177e-01  0 
 3.980202e-02  -1.272724e-01  0 
 4.259002e-02  -1.278651e-01  0 
 4.551368e-02  -1.283387e-01  0 
 4.860845e-02  -1.286385e-01  0 
 5.190288e-02  -1.288698e-01  0 
 3.268300e-02  -1.274071e-01  0 
 3.495386e-02  -1.285751e-01  0 
 3.732579e-02  -1.296909e-01  0 
 3.984831e-02  -1.306875e-01  0 
 4.253372e-02  -1.315143e-01  0 
 4.536491e-02  -1.321553e-01  0 
 4.837765e-02  -1.325883e-01  0 
 5.172391e-02  -1.327044e-01  0 
 3.280790e-02  -1.300824e-01  0 
 3.509716e-02  -1.314613e-01  0 
 3.750736e-02  -1.327366e-01  0 
 4.000243e-02  -1.339048e-01  0 
 4.258695e-02  -1.349236e-01  0 
 4.527424e-02  -1.357572e-01  0 
 4.808881e-02  -1.363644e-01  0 
 5.102279e-02  -1.365955e-01  0 
 3.297942e-02  -1.326839e-01  0 
 3.533978e-02  -1.342077e-01  0 
 3.777812e-02  -1.356324e-01  0 
 4.025265e-02  -1.369337e-01  0 
 4.274555e-02  -1.380934e-01  0 
 4.527520e-02  -1.390847e-01  0 
 4.786474e-02  -1.398754e-01  0 
 5.063147e-02  -1.405354e-01  0 
 3.318325e-02  -1.352417e-01  0 
 3.566271e-02  -1.368722e-01  0 
 3.814259e-02  -1.383963e-01  0 
 4.058816e-02  -1.397671e-01  0 
 4.300312e-02  -1.410009e-01  0 
 4.538293e-02  -1.421116e-01  0 
 4.778258e-02  -1.430675e-01  0 
 5.022040e-02  -1.437908e-01  0 
 3.344618e-02  -1.377918e-01  0 
 3.608326e-02  -1.395153e-01  0 
 3.856194e-02  -1.410400e-01  0 
 4.096970e-02  -1.424033e-01  0 
 4.333093e-02  -1.436368e-01  0 
 4.562014e-02  -1.447765e-01  0 
 4.776085e-02  -1.458469e-01  0 
 4.986856e-02  -1.466527e-01  0 
VECTORS displacement_ITER5 FLOAT
 5.367526e-02  -1.148045e-01  0 
 2.989143e-02  -1.381200e-01  0 
 3.397274e-02  -1.130909e-01  0 
 3.614641e-02  -1.136528e-01  0 
 3.921551e-02  -1.135523e-01  0 
 4.278393e-02  -1.142687e-01  0 
 4.509710e-02  -1.145525e-01  0 
 4.771051e-02  -1.138738e-01  0 
 5.125214e-02  -1.137600e-01  0 
 2.860152e-02  -1.174253e-01  0 
 2.959597e-02  -1.200282e-01  0 
 2.976573e-02  -1.219819e-01  0 
 2.985022e-02  -1.247989e-01  0 
 2.987892e-02  -1.275782e-01  0 
 2.989036e-02  -1.302928e-01  0 
 2.989179e-02  -1.329479e-01  0 
 2.988520e-02  -1.355448e-01  0 
 2.731994e-02  -1.380842e-01  0 
 5.442610e-02  -1.186064e-01  0 
 5.445370e-02  -1.236400e-01  0 
 5.397800e-02  -1.283385e-01  0 
 5.421801e-02  -1.312486e-01  0 
 5.479599e-02  -1.356581e-01  0 
 3.305953e-02  -1.400410e-01  0 
 3.575727e-02  -1.415983e-01  0 
 3.831362e-02  -1.430717e-01  0 
 4.085676e-02  -1.444924e-01  0 
 4.346432e-02  -1.458540e-01  0 
 4.618123e-02  -1.471535e-01  0 
 4.904447e-02  -1.484324e-01  0 
 5.227606e-02  -1.498901e-01  0 
 2.699792e-02  -1.219403e-01  0 
 2.707448e-02  -1.247792e-01  0 
 2.714867e-02  -1.275515e-01  0 
 2.721703e-02  -1.302675e-01  0 
 2.727221e-02  -1.329254e-01  0 
 2.731108e-02  -1.355324e-01  0 
 3.083154e-02  -1.179113e-01  0 
 3.294453e-02  -1.177128e-01  0 
 3.620439e-02  -1.177624e-01  0 
 3.920764e-02  -1.182280e-01  0 
 4.224617e-02  -1.184151e-01  0 
 4.495080e-02  -1.184975e-01  0 
 4.779963e-02  -1.187303e-01  0 
 5.106751e-02  -1.187898e-01  0 
 3.096742e-02  -1.206890e-01  0 
 3.327116e-02  -1.213193e-01  0 
 3.609716e-02  -1.218312e-01  0 
 3.908294e-02  -1.221789e-01  0 
 4.199458e-02  -1.224804e-01  0 
 4.493509e-02  -1.227558e-01  0 
 4.793032e-02  -1.230872e-01  0 
 5.096399e-02  -1.234487e-01  0 
 3.140787e-02  -1.233899e-01  0 
 3.360437e-02  -1.244805e-01  0 
 3.620422e-02  -1.253028e-01  0 
 3.903150e-02  -1.259051e-01  0 
 4.196986e-02  -1.263748e-01  0 
 4.497797e-02  -1.267981e-01  0 
 4.805414e-02  -1.271942e-01  0 
 5.118903e-02  -1.276249e-01  0 
 3.178294e-02  -1.261601e-01  0 
 3.395466e-02  -1.274515e-01  0 
 3.643526e-02  -1.285277e-01  0 
 3.915826e-02  -1.293840e-01  0 
 4.205625e-02  -1.300632e-01  0 
 4.507632e-02  -1.306137e-01  0 
 4.817132e-02  -1.310750e-01  0 
 5.129048e-02  -1.313823e-01  0 
 3.199890e-02  -1.289991e-01  0 
 3.427406e-02  -1.303721e-01  0 
 3.673651e-02  -1.316225e-01  0 
 3.939641e-02  -1.326883e-01  0 
 4.222984e-02  -1.335561e-01  0 
 4.520707e-02  -1.342372e-01  0 
 4.829003e-02  -1.347419e-01  0 
 5.134791e-02  -1.351212e-01  0 
 3.217363e-02  -1.317931e-01  0 
 3.456811e-02  -1.332602e-01  0 
 3.707597e-02  -1.346377e-01  0 
 3.970362e-02  -1.358613e-01  0 
 4.246289e-02  -1.368895e-01  0 
 4.536796e-02  -1.377090e-01  0 
 4.842108e-02  -1.383310e-01  0 
 5.172079e-02  -1.388205e-01  0 
 3.235947e-02  -1.345255e-01  0 
 3.489292e-02  -1.360959e-01  0 
 3.745757e-02  -1.375801e-01  0 
 4.005875e-02  -1.389097e-01  0 
 4.274702e-02  -1.400709e-01  0 
 4.556883e-02  -1.410551e-01  0 
 4.859878e-02  -1.418514e-01  0 
 5.183762e-02  -1.424655e-01  0 
 3.260900e-02  -1.372166e-01  0 
 3.530439e-02  -1.388959e-01  0 
 3.787851e-02  -1.404156e-01  0 
 4.044728e-02  -1.418036e-01  0 
 4.308343e-02  -1.430729e-01  0 
 4.583673e-02  -1.442296e-01  0 
 4.875849e-02  -1.452523e-01  0 
 5.199344e-02  -1.460150e-01  0 
VECTORS displacement_ITER6 FLOAT
 5.387358e-02  -1.137296e-01  0 
 2.842786e-02  -1.377295e-01  0 
 3.535645e-02  -1.142067e-01  0 
 3.480095e-02  -1.125951e-01  0 
 3.837468e-02  -1.112731e-01  0 
 4.155749e-02  -1.112077e-01  0 
 4.504660e-02  -1.119243e-01  0 
 4.746710e-02  -1.136648e-01  0 
 4.904324e-02  -1.142934e-01  0 
 2.873282e-02  -1.157977e-01  0 
 2.866612e-02  -1.189621e-01  0 
 2.812697e-02  -1.220940e-01  0 
 2.821549e-02  -1.246004e-01  0 
 2.827643e-02  -1.271329e-01  0 
 2.833268e-02  -1.297112e-01  0 
 2.838081e-02  -1.323474e-01  0 
 2.841068e-02  -1.350263e-01  0 
 2.572223e-02  -1.377034e-01  0 
 5.318124e-02  -1.194536e-01  0 
 5.312742e-02  -1.230177e-01  0 
 5.370534e-02  -1.261106e-01  0 
 5.407407e-02  -1.309674e-01  0 
 5.378394e-02  -1.346455e-01  0 
 3.170719e-02  -1.397101e-01  0 
 3.451059e-02  -1.413451e-01  0 
 3.720590e-02  -1.428874e-01  0 
 3.992687e-02  -1.443531e-01  0 
 4.274392e-02  -1.457359e-01  0 
 4.569794e-02  -1.470439e-01  0 
 4.883867e-02  -1.483267e-01  0 
 5.240106e-02  -1.497441e-01  0 
 2.568166e-02  -1.220727e-01  0 
 2.572337e-02  -1.245834e-01  0 
 2.573564e-02  -1.271093e-01  0 
 2.573410e-02  -1.296865e-01  0 
 2.572564e-02  -1.323239e-01  0 
 2.572213e-02  -1.350095e-01  0 
 3.044284e-02  -1.168524e-01  0 
 3.276694e-02  -1.165070e-01  0 
 3.520933e-02  -1.163692e-01  0 
 3.802649e-02  -1.165432e-01  0 
 4.150081e-02  -1.166474e-01  0 
 4.484205e-02  -1.170559e-01  0 
 4.762147e-02  -1.175264e-01  0 
 5.015614e-02  -1.184785e-01  0 
 3.045783e-02  -1.195494e-01  0 
 3.258975e-02  -1.200638e-01  0 
 3.522949e-02  -1.204060e-01  0 
 3.817971e-02  -1.208088e-01  0 
 4.138314e-02  -1.212186e-01  0 
 4.461771e-02  -1.215276e-01  0 
 4.770478e-02  -1.219187e-01  0 
 5.070248e-02  -1.224237e-01  0 
 3.038558e-02  -1.226654e-01  0 
 3.270192e-02  -1.233972e-01  0 
 3.534057e-02  -1.241098e-01  0 
 3.828208e-02  -1.247307e-01  0 
 4.139187e-02  -1.252551e-01  0 
 4.456976e-02  -1.256919e-01  0 
 4.770903e-02  -1.260805e-01  0 
 5.071820e-02  -1.263258e-01  0 
 3.034783e-02  -1.256865e-01  0 
 3.282373e-02  -1.266457e-01  0 
 3.551020e-02  -1.275678e-01  0 
 3.840999e-02  -1.283802e-01  0 
 4.147385e-02  -1.290453e-01  0 
 4.463144e-02  -1.295698e-01  0 
 4.778345e-02  -1.299897e-01  0 
 5.079040e-02  -1.304115e-01  0 
 3.049733e-02  -1.284989e-01  0 
 3.299655e-02  -1.297492e-01  0 
 3.571252e-02  -1.308706e-01  0 
 3.859035e-02  -1.318539e-01  0 
 4.160979e-02  -1.326644e-01  0 
 4.474671e-02  -1.332913e-01  0 
 4.797877e-02  -1.337652e-01  0 
 5.125780e-02  -1.342372e-01  0 
 3.069995e-02  -1.312663e-01  0 
 3.325913e-02  -1.327244e-01  0 
 3.598142e-02  -1.340457e-01  0 
 3.883121e-02  -1.351977e-01  0 
 4.179866e-02  -1.361601e-01  0 
 4.490604e-02  -1.369265e-01  0 
 4.818262e-02  -1.375169e-01  0 
 5.169524e-02  -1.379306e-01  0 
 3.093551e-02  -1.340209e-01  0 
 3.359827e-02  -1.356357e-01  0 
 3.633725e-02  -1.371179e-01  0 
 3.914240e-02  -1.384146e-01  0 
 4.204912e-02  -1.395314e-01  0 
 4.510229e-02  -1.404720e-01  0 
 4.836997e-02  -1.412211e-01  0 
 5.186512e-02  -1.417889e-01  0 
 3.122764e-02  -1.367851e-01  0 
 3.403434e-02  -1.385293e-01  0 
 3.675812e-02  -1.400838e-01  0 
 3.951464e-02  -1.414797e-01  0 
 4.236675e-02  -1.427382e-01  0 
 4.535752e-02  -1.438710e-01  0 
 4.854651e-02  -1.448618e-01  0 
 5.208255e-02  -1.456139e-01  0 
VECTORS displacement_ITER7 FLOAT
 5.401256e-02  -1.140746e-01  0 
 2.921167e-02  -1.374728e-01  0 
 3.342128e-02  -1.113298e-01  0 
 3.791013e-02  -1.118884e-01  0 
 4.064865e-02  -1.131710e-01  0 
 4.150263e-02  -1.129805e-01  0 
 4.376122e-02  -1.119190e-01  0 
 4.732186e-02  -1.115228e-01  0 
 5.111351e-02  -1.124381e-01  0 
 2.877301e-02  -1.158477e-01  0 
 2.903717e-02  -1.188002e-01  0 
 2.890371e-02  -1.212533e-01  0 
 2.898467e-02  -1.238142e-01  0 
 2.904764e-02  -1.264175e-01  0 
 2.910855e-02  -1.290875e-01  0 
 2.916129e-02  -1.318346e-01  0 
 2.919495e-02  -1.346395e-01  0 
 2.637576e-02  -1.374522e-01  0 
 5.448008e-02  -1.178760e-01  0 
 5.409807e-02  -1.222467e-01  0 
 5.426857e-02  -1.256127e-01  0 
 5.442520e-02  -1.304063e-01  0 
 5.414936e-02  -1.338828e-01  0 
 3.246780e-02  -1.391712e-01  0 
 3.521645e-02  -1.405897e-01  0 
 3.780822e-02  -1.419410e-01  0 
 4.037137e-02  -1.432220e-01  0 
 4.295986e-02  -1.444058e-01  0 
 4.557840e-02  -1.454802e-01  0 
 4.820353e-02  -1.464836e-01  0 
 5.084458e-02  -1.476295e-01  0 
 2.639385e-02  -1.212259e-01  0 
 2.642621e-02  -1.237955e-01  0 
 2.642382e-02  -1.263939e-01  0 
 2.640701e-02  -1.290637e-01  0 
 2.638639e-02  -1.318124e-01  0 
 2.637562e-02  -1.346232e-01  0 
 3.100022e-02  -1.166023e-01  0 
 3.341843e-02  -1.167045e-01  0 
 3.693764e-02  -1.166652e-01  0 
 3.959429e-02  -1.164636e-01  0 
 4.160768e-02  -1.165089e-01  0 
 4.415353e-02  -1.167975e-01  0 
 4.758707e-02  -1.171215e-01  0 
 5.116637e-02  -1.175315e-01  0 
 3.098159e-02  -1.194684e-01  0 
 3.344407e-02  -1.201130e-01  0 
 3.620671e-02  -1.204262e-01  0 
 3.897452e-02  -1.204826e-01  0 
 4.167628e-02  -1.207029e-01  0 
 4.455905e-02  -1.211658e-01  0 
 4.776941e-02  -1.216184e-01  0 
 5.114820e-02  -1.218839e-01  0 
 3.104667e-02  -1.223261e-01  0 
 3.342883e-02  -1.232088e-01  0 
 3.601466e-02  -1.238641e-01  0 
 3.877886e-02  -1.243507e-01  0 
 4.168956e-02  -1.248061e-01  0 
 4.471447e-02  -1.252928e-01  0 
 4.784419e-02  -1.257179e-01  0 
 5.103605e-02  -1.259220e-01  0 
 3.114684e-02  -1.251102e-01  0 
 3.352473e-02  -1.262266e-01  0 
 3.608795e-02  -1.271714e-01  0 
 3.883431e-02  -1.279661e-01  0 
 4.174182e-02  -1.286385e-01  0 
 4.476285e-02  -1.292000e-01  0 
 4.785429e-02  -1.296328e-01  0 
 5.099331e-02  -1.299373e-01  0 
 3.131034e-02  -1.278744e-01  0 
 3.373193e-02  -1.291925e-01  0 
 3.630557e-02  -1.303597e-01  0 
 3.902134e-02  -1.313726e-01  0 
 4.186355e-02  -1.322233e-01  0 
 4.481343e-02  -1.329046e-01  0 
 4.786982e-02  -1.334209e-01  0 
 5.108384e-02  -1.338299e-01  0 
 3.151772e-02  -1.306520e-01  0 
 3.402065e-02  -1.321108e-01  0 
 3.661623e-02  -1.334355e-01  0 
 3.929630e-02  -1.346015e-01  0 
 4.205716e-02  -1.355960e-01  0 
 4.491070e-02  -1.364141e-01  0 
 4.788659e-02  -1.370523e-01  0 
 5.100988e-02  -1.374614e-01  0 
 3.175767e-02  -1.334443e-01  0 
 3.437091e-02  -1.349890e-01  0 
 3.699379e-02  -1.364084e-01  0 
 3.963306e-02  -1.376615e-01  0 
 4.231781e-02  -1.387571e-01  0 
 4.506402e-02  -1.397027e-01  0 
 4.790060e-02  -1.404673e-01  0 
 5.085853e-02  -1.410118e-01  0 
 3.204130e-02  -1.362501e-01  0 
 3.478829e-02  -1.378402e-01  0 
 3.740309e-02  -1.392623e-01  0 
 3.999978e-02  -1.405418e-01  0 
 4.262708e-02  -1.416932e-01  0 
 4.529035e-02  -1.427274e-01  0 
 4.797403e-02  -1.436516e-01  0 
 5.077100e-02  -1.443726e-01  0 
VECTORS displacement_ITER8 FLOAT
 5.401019e-02  -1.126940e-01  0 
 2.864264e-02  -1.365229e-01  0 
 3.381358e-02  -1.134782e-01  0 
 3.508172e-02  -1.130364e-01  0 
 3.774694e-02  -1.114554e-01  0 
 4.269399e-02  -1.110719e-01  0 
 4.625241e-02  -1.126172e-01  0 
 4.804674e-02  -1.133408e-01  0 
 4.996606e-02  -1.130098e-01  0 
 2.898488e-02  -1.147039e-01  0 
 2.838826e-02  -1.172406e-01  0 
 2.848171e-02  -1.206040e-01  0 
 2.854402e-02  -1.232767e-01  0 
 2.857768e-02  -1.259458e-01  0 
 2.860080e-02  -1.286025e-01  0 
 2.861828e-02  -1.312493e-01  0 
 2.863044e-02  -1.338861e-01  0 
 2.600890e-02  -1.364927e-01  0 
 5.350316e-02  -1.179870e-01  0 
 5.338364e-02  -1.215109e-01  0 
 5.374475e-02  -1.259240e-01  0 
 5.398441e-02  -1.293077e-01  0 
 5.370621e-02  -1.337806e-01  0 
 3.190598e-02  -1.384718e-01  0 
 3.467708e-02  -1.400017e-01  0 
 3.727396e-02  -1.413977e-01  0 
 3.980658e-02  -1.426918e-01  0 
 4.232037e-02  -1.438771e-01  0 
 4.480874e-02  -1.449514e-01  0 
 4.722147e-02  -1.459609e-01  0 
 4.948179e-02  -1.471658e-01  0 
 2.584713e-02  -1.205770e-01  0 
 2.589068e-02  -1.232566e-01  0 
 2.592577e-02  -1.259226e-01  0 
 2.595620e-02  -1.285798e-01  0 
 2.597978e-02  -1.312271e-01  0 
 2.599763e-02  -1.338677e-01  0 
 3.055878e-02  -1.154129e-01  0 
 3.295648e-02  -1.159836e-01  0 
 3.509425e-02  -1.162122e-01  0 
 3.804769e-02  -1.166099e-01  0 
 4.193964e-02  -1.168319e-01  0 
 4.539480e-02  -1.167764e-01  0 
 4.790282e-02  -1.169558e-01  0 
 5.049915e-02  -1.174416e-01  0 
 3.065407e-02  -1.184244e-01  0 
 3.283517e-02  -1.192548e-01  0 
 3.533944e-02  -1.199682e-01  0 
 3.825632e-02  -1.206487e-01  0 
 4.146266e-02  -1.210499e-01  0 
 4.468326e-02  -1.211294e-01  0 
 4.774803e-02  -1.212221e-01  0 
 5.066724e-02  -1.215023e-01  0 
 3.065548e-02  -1.215517e-01  0 
 3.296371e-02  -1.225490e-01  0 
 3.551510e-02  -1.235038e-01  0 
 3.830441e-02  -1.243113e-01  0 
 4.125795e-02  -1.248854e-01  0 
 4.433454e-02  -1.252189e-01  0 
 4.748567e-02  -1.253886e-01  0 
 5.063304e-02  -1.254720e-01  0 
 3.070242e-02  -1.245523e-01  0 
 3.310570e-02  -1.257263e-01  0 
 3.566673e-02  -1.268247e-01  0 
 3.837040e-02  -1.277803e-01  0 
 4.120235e-02  -1.285390e-01  0 
 4.415997e-02  -1.290815e-01  0 