# vtk DataFile Version 3.1
this is an vtk file created by FEMAC
ASCII
DATASET UNSTRUCTURED_GRID
POINTS 102 FLOAT
4.000000 0.000000 0.000000
4.000000 1.000000 0.000000
3.555556 0.000000 0.000000
3.666667 0.000000 0.000000
3.777778 0.000000 0.000000
3.888889 0.000000 0.000000
4.111111 0.000000 0.000000
4.222222 0.000000 0.000000
4.333333 0.000000 0.000000
4.444444 0.000000 0.000000
3.444444 1.000000 0.000000
3.555556 1.000000 0.000000
3.666667 1.000000 0.000000
3.777778 1.000000 0.000000
3.888889 1.000000 0.000000
4.000000 0.111111 0.000000
4.000000 0.222222 0.000000
4.000000 0.333333 0.000000
4.000000 0.444444 0.000000
4.000000 0.555556 0.000000
4.000000 0.666667 0.000000
4.000000 0.777778 0.000000
4.000000 0.888889 0.000000
4.000000 1.111111 0.000000
4.111111 1.000000 0.000000
4.222222 1.000000 0.000000
4.333333 1.000000 0.000000
3.444444 0.444444 0.000000
3.444444 0.555556 0.000000
3.444444 0.666667 0.000000
3.444444 0.777778 0.000000
3.444444 0.888889 0.000000
3.555556 0.111111 0.000000
3.555556 0.222222 0.000000
3.555556 0.333333 0.000000
3.555556 0.444444 0.000000
3.555556 0.555556 0.000000
3.555556 0.666667 0.000000
3.555556 0.777778 0.000000
3.555556 0.888889 0.000000
3.666667 0.111111 0.000000
3.666667 0.222222 0.000000
3.666667 0.333333 0.000000
3.666667 0.444444 0.000000
3.666667 0.555556 0.000000
3.666667 0.666667 0.000000
3.666667 0.777778 0.000000
3.666667 0.888889 0.000000
3.777778 0.111111 0.000000
3.777778 0.222222 0.000000
3.777778 0.333333 0.000000
3.777778 0.444444 0.000000
3.777778 0.555556 0.000000
3.777778 0.666667 0.000000
3.777778 0.777778 0.000000
3.777778 0.888889 0.000000
3.888889 0.111111 0.000000
3.888889 0.222222 0.000000
3.888889 0.333333 0.000000
3.888889 0.444444 0.000000
3.888889 0.555556 0.000000
3.888889 0.666667 0.000000
3.888889 0.777778 0.000000
3.888889 0.888889 0.000000
3.444444 1.111111 0.000000
3.555556 1.111111 0.000000
3.666667 1.111111 0.000000
3.777778 1.111111 0.000000
3.888889 1.111111 0.000000
4.111111 0.111111 0.000000
4.111111 0.222222 0.000000
4.111111 0.333333 0.000000
4.111111 0.444444 0.000000
4.111111 0.555556 0.000000
4.111111 0.666667 0.000000
4.111111 0.777778 0.000000
4.111111 0.888889 0.000000
4.222222 0.111111 0.000000
4.222222 0.222222 0.000000
4.222222 0.333333 0.000000
4.222222 0.444444 0.000000
4.222222 0.555556 0.000000
4.222222 0.666667 0.000000
4.222222 0.777778 0.000000
4.222222 0.888889 0.000000
4.333333 0.111111 0.000000
4.333333 0.222222 0.000000
4.333333 0.333333 0.000000
4.333333 0.444444 0.000000
4.333333 0.555556 0.000000
4.333333 0.666667 0.000000
4.333333 0.777778 0.000000
4.333333 0.888889 0.000000
4.444444 0.111111 0.000000
4.444444 0.222222 0.000000
4.444444 0.333333 0.000000
4.111111 1.111111 0.000000
4.111111 1.222222 0.000000
4.222222 1.111111 0.000000
4.222222 1.222222 0.000000
4.333333 1.111111 0.000000
4.333333 1.222222 0.000000
CELLS 81 405 
4 27 35 36 28
4 28 36 37 29
4 29 37 38 30
4 30 38 39 31
4 31 39 11 10
4 2  3 40 32
4 32 40 41 33
4 33 41 42 34
4 34 42 43 35
4 35 43 44 36
4 36 44 45 37
4 37 45 46 38
4 38 46 47 39
4 39 47 12 11
4 3  4 48 40
4 40 48 49 41
4 41 49 50 42
4 42 50 51 43
4 43 51 52 44
4 44 52 53 45
4 45 53 54 46
4 46 54 55 47
4 47 55 13 12
4 4  5 56 48
4 48 56 57 49
4 49 57 58 50
4 50 58 59 51
4 51 59 60 52
4 52 60 61 53
4 53 61 62 54
4 54 62 63 55
4 55 63 14 13
4 5  0 15 56
4 56 15 16 57
4 57 16 17 58
4 58 17 18 59
4 59 18 19 60
4 60 19 20 61
4 61 20 21 62
4 62 21 22 63
4 63 22  1 14
4 10 11 65 64
4 11 12 66 65
4 12 13 67 66
4 13 14 68 67
4 14  1 23 68
4 0  6 69 15
4 15 69 70 16
4 16 70 71 17
4 17 71 72 18
4 18 72 73 19
4 19 73 74 20
4 20 74 75 21
4 21 75 76 22
4 22 76 24  1
4 6  7 77 69
4 69 77 78 70
4 70 78 79 71
4 71 79 80 72
4 72 80 81 73
4 73 81 82 74
4 74 82 83 75
4 75 83 84 76
4 76 84 25 24
4 7  8 85 77
4 77 85 86 78
4 78 86 87 79
4 79 87 88 80
4 80 88 89 81
4 81 89 90 82
4 82 90 91 83
4 83 91 92 84
4 84 92 26 25
4 8  9 93 85
4 85 93 94 86
4 86 94 95 87
4 1 24 96 23
4 24 25 98 96
4 96 98 99 97
4 25  26 100  98
4 98 100 101  99
CELL_TYPES 81
9 9 9 9 9 9 9 9 9 9 9 9 9 9 9 9 9 9 9 9 9 9 9 9 9 9 9 9 9 9 9 9 9 9 9 9 9 9 9 9 9 9 9 9 9 9 9 9 9 9 9 9 9 9 9 9 9 9 9 9 9 9 9 9 9 9 9 9 9 9 9 9 9 9 9 9 9 9 9 9 9 
POINT_DATA 102
VECTORS displacement_ITER1 FLOAT
 -8.104723e-02  -1.081384e-01  0 
 -4.675792e-02  -1.064107e-01  0 
 -7.367087e-02  -1.013168e-01  0 
 -7.513039e-02  -1.024752e-01  0 
 -7.658102e-02  -1.044042e-01  0 
 -7.827148e-02  -1.063708e-01  0 
 -8.110081e-02  -1.117825e-01  0 
 -8.117264e-02  -1.154720e-01  0 
 -8.123917e-02  -1.191910e-01  0 
 -8.131146e-02  -1.230134e-01  0 
 -4.411836e-02  -8.546253e-02  0 
 -4.436126e-02  -8.869960e-02  0 
 -4.474886e-02  -9.207938e-02  0 
 -4.530697e-02  -9.596652e-02  0 
 -4.606927e-02  -1.006024e-01  0 
 -7.740522e-02  -1.081235e-01  0 
 -7.375671e-02  -1.081319e-01  0 
 -7.014396e-02  -1.081492e-01  0 
 -6.656850e-02  -1.081257e-01  0 
 -6.299315e-02  -1.080095e-01  0 
 -5.934904e-02  -1.077762e-01  0 
 -5.555049e-02  -1.074359e-01  0 
 -5.150453e-02  -1.069930e-01  0 
 -4.084487e-02  -1.060189e-01  0 
 -4.723332e-02  -1.112224e-01  0 
 -4.748547e-02  -1.153594e-01  0 
 -4.752110e-02  -1.196350e-01  0 
 -5.991621e-02  -9.236688e-02  0 
 -5.717224e-02  -9.127819e-02  0 
 -5.347362e-02  -8.997419e-02  0 
 -4.966083e-02  -8.861393e-02  0 
 -4.624510e-02  -8.730582e-02  0 
 -7.246249e-02  -1.003959e-01  0 
 -6.982941e-02  -9.903402e-02  0 
 -6.643553e-02  -9.737627e-02  0 
 -6.181417e-02  -9.593047e-02  0 
 -5.837531e-02  -9.470443e-02  0 
 -5.477598e-02  -9.352676e-02  0 
 -5.103464e-02  -9.206236e-02  0 
 -4.757077e-02  -9.029622e-02  0 
 -7.330901e-02  -1.020244e-01  0 
 -7.082965e-02  -1.013742e-01  0 
 -6.748988e-02  -1.005666e-01  0 
 -6.368248e-02  -9.948794e-02  0 
 -5.985183e-02  -9.825523e-02  0 
 -5.614267e-02  -9.703126e-02  0 
 -5.240612e-02  -9.556986e-02  0 
 -4.858810e-02  -9.386654e-02  0 
 -7.443084e-02  -1.039564e-01  0 
 -7.176060e-02  -1.035752e-01  0 
 -6.853000e-02  -1.031702e-01  0 
 -6.496361e-02  -1.025497e-01  0 
 -6.124165e-02  -1.016956e-01  0 
 -5.748900e-02  -1.006446e-01  0 
 -5.367167e-02  -9.938385e-02  0 
 -4.962894e-02  -9.782231e-02  0 
 -7.589621e-02  -1.058894e-01  0 
 -7.277034e-02  -1.057694e-01  0 
 -6.941212e-02  -1.056539e-01  0 
 -6.590398e-02  -1.053941e-01  0 
 -6.229220e-02  -1.049323e-01  0 
 -5.859716e-02  -1.042675e-01  0 
 -5.478079e-02  -1.034026e-01  0 
 -5.069142e-02  -1.022505e-01  0 
 -4.094278e-02  -8.548760e-02  0 
 -4.114072e-02  -8.863007e-02  0 
 -4.106691e-02  -9.204538e-02  0 
 -4.105677e-02  -9.580793e-02  0 
 -4.097780e-02  -1.004327e-01  0 
 -7.742612e-02  -1.117661e-01  0 
 -7.375751e-02  -1.117540e-01  0 
 -7.013849e-02  -1.117470e-01  0 
 -6.658049e-02  -1.117215e-01  0 
 -6.303896e-02  -1.116456e-01  0 
 -5.942328e-02  -1.115201e-01  0 
 -5.563227e-02  -1.113780e-01  0 
 -5.156881e-02  -1.112719e-01  0 
 -7.746359e-02  -1.154446e-01  0 
 -7.375357e-02  -1.154044e-01  0 
 -7.009230e-02  -1.153670e-01  0 
 -6.655678e-02  -1.153438e-01  0 
 -6.308025e-02  -1.152943e-01  0 
 -5.946775e-02  -1.152839e-01  0 
 -5.566273e-02  -1.153265e-01  0 
 -5.164167e-02  -1.153765e-01  0 
 -7.750487e-02  -1.191884e-01  0 
 -7.376681e-02  -1.191452e-01  0 
 -6.999009e-02  -1.190621e-01  0 
 -6.655766e-02  -1.188104e-01  0 
 -6.309951e-02  -1.188414e-01  0 
 -5.948397e-02  -1.190320e-01  0 
 -5.568721e-02  -1.191935e-01  0 
 -5.173389e-02  -1.194093e-01  0 
 -7.750539e-02  -1.229252e-01  0 
 -7.378220e-02  -1.230180e-01  0 
 -6.967222e-02  -1.232428e-01  0 
 -4.366351e-02  -1.108636e-01  0 
 -3.984564e-02  -1.101963e-01  0 
 -4.437267e-02  -1.157550e-01  0 
 -4.072574e-02  -1.157619e-01  0 
 -4.470215e-02  -1.199001e-01  0 
 -4.235418e-02  -1.201598e-01  0 
VECTORS displacement_ITER2 FLOAT
 -8.088721e-02  -9.738864e-02  0 
 -4.565530e-02  -9.572770e-02  0 
 -7.148094e-02  -9.079570e-02  0 
 -7.343722e-02  -9.208237e-02  0 
 -7.525419e-02  -9.406523e-02  0 
 -7.738937e-02  -9.592037e-02  0 
 -8.094548e-02  -1.011164e-01  0 
 -8.100781e-02  -1.048886e-01  0 
 -8.106540e-02  -1.086913e-01  0 
 -8.111341e-02  -1.125595e-01  0 
 -4.388119e-02  -7.769866e-02  0 
 -4.405155e-02  -8.085644e-02  0 
 -4.426180e-02  -8.390209e-02  0 
 -4.462226e-02  -8.713086e-02  0 
 -4.515290e-02  -9.092613e-02  0 
 -7.716063e-02  -9.736085e-02  0 
 -7.340698e-02  -9.733530e-02  0 
 -6.965299e-02  -9.730514e-02  0 
 -6.590201e-02  -9.724891e-02  0 
 -6.213837e-02  -9.714184e-02  0 
 -5.833028e-02  -9.696495e-02  0 
 -5.443056e-02  -9.670239e-02  0 
 -5.035226e-02  -9.631372e-02  0 
 -4.093692e-02  -9.519793e-02  0 
 -4.607165e-02  -1.005635e-01  0 
 -4.636027e-02  -1.047192e-01  0 
 -4.654257e-02  -1.087741e-01  0 
 -5.647999e-02  -8.400392e-02  0 
 -5.490756e-02  -8.261820e-02  0 
 -5.171594e-02  -8.141091e-02  0 
 -4.843996e-02  -8.033301e-02  0 
 -4.558032e-02  -7.931486e-02  0 
 -7.037611e-02  -8.982436e-02  0 
 -6.762086e-02  -8.849131e-02  0 
 -6.407445e-02  -8.702179e-02  0 
 -5.919529e-02  -8.617266e-02  0 
 -5.632123e-02  -8.525935e-02  0 
 -5.317741e-02  -8.437245e-02  0 
 -4.987242e-02  -8.322786e-02  0 
 -4.687557e-02  -8.188847e-02  0 
 -7.153553e-02  -9.156123e-02  0 
 -6.896385e-02  -9.094425e-02  0 
 -6.544871e-02  -9.027003e-02  0 
 -6.162678e-02  -8.929777e-02  0 
 -5.801838e-02  -8.824064e-02  0 
 -5.462649e-02  -8.730445e-02  0 
 -5.121333e-02  -8.621065e-02  0 
 -4.773745e-02  -8.500953e-02  0 
 -7.309040e-02  -9.351384e-02  0 
 -7.032716e-02  -9.308617e-02  0 
 -6.698973e-02  -9.268057e-02  0 
 -6.338248e-02  -9.208032e-02  0 
 -5.970734e-02  -9.131191e-02  0 
 -5.607460e-02  -9.045507e-02  0 
 -5.241777e-02  -8.950563e-02  0 
 -4.859190e-02  -8.839276e-02  0 
 -7.509074e-02  -9.530400e-02  0 
 -7.186608e-02  -9.512895e-02  0 
 -6.838941e-02  -9.497147e-02  0 
 -6.477642e-02  -9.469394e-02  0 
 -6.108714e-02  -9.426982e-02  0 
 -5.735166e-02  -9.372160e-02  0 
 -5.353750e-02  -9.305018e-02  0 
 -4.951627e-02  -9.216142e-02  0 
 -4.075275e-02  -7.770271e-02  0 
 -4.099929e-02  -8.081660e-02  0 
 -4.114812e-02  -8.385107e-02  0 
 -4.114631e-02  -8.705728e-02  0 
 -4.094662e-02  -9.083707e-02  0 
 -7.718892e-02  -1.011004e-01  0 
 -7.342605e-02  -1.010820e-01  0 
 -6.967041e-02  -1.010551e-01  0 
 -6.592650e-02  -1.010117e-01  0 
 -6.217753e-02  -1.009405e-01  0 
 -5.838453e-02  -1.008373e-01  0 
 -5.449300e-02  -1.007137e-01  0 
 -5.041308e-02  -1.006138e-01  0 
 -7.722133e-02  -1.048710e-01  0 
 -7.343748e-02  -1.048498e-01  0 
 -6.966864e-02  -1.048254e-01  0 
 -6.592839e-02  -1.047981e-01  0 
 -6.219542e-02  -1.047613e-01  0 
 -5.840474e-02  -1.047384e-01  0 
 -5.450397e-02  -1.047392e-01  0 
 -5.046275e-02  -1.047551e-01  0 
 -7.725046e-02  -1.086804e-01  0 
 -7.345198e-02  -1.086570e-01  0 
 -6.963800e-02  -1.086242e-01  0 
 -6.592769e-02  -1.085563e-01  0 
 -6.219183e-02  -1.085508e-01  0 
 -5.839498e-02  -1.086176e-01  0 
 -5.451754e-02  -1.087056e-01  0 
 -5.055303e-02  -1.087708e-01  0 
 -7.727279e-02  -1.125005e-01  0 
 -7.346450e-02  -1.124995e-01  0 
 -6.956311e-02  -1.125596e-01  0 
 -4.228396e-02  -9.995775e-02  0 
 -3.915223e-02  -9.943629e-02  0 
 -4.260031e-02  -1.040158e-01  0 
 -3.935312e-02  -1.034088e-01  0 
 -4.269403e-02  -1.075862e-01  0 
 -3.986373e-02  -1.063665e-01  0 
VECTORS displacement_ITER3 FLOAT
 -8.017852e-02  -9.037826e-02  0 
 -4.519133e-02  -8.869156e-02  0 
 -6.814920e-02  -8.552111e-02  0 
 -7.084266e-02  -8.611301e-02  0 
 -7.327490e-02  -8.769350e-02  0 
 -7.599966e-02  -8.923526e-02  0 
 -8.024517e-02  -9.407263e-02  0 
 -8.031647e-02  -9.781448e-02  0 
 -8.039549e-02  -1.015937e-01  0 
 -8.049610e-02  -1.055154e-01  0 
 -4.351887e-02  -7.165508e-02  0 
 -4.365225e-02  -7.463022e-02  0 
 -4.380816e-02  -7.739480e-02  0 
 -4.415134e-02  -8.033745e-02  0 
 -4.468479e-02  -8.397424e-02  0 
 -7.648493e-02  -9.034530e-02  0 
 -7.275824e-02  -9.031471e-02  0 
 -6.902686e-02  -9.028105e-02  0 
 -6.529614e-02  -9.022323e-02  0 
 -6.155300e-02  -9.011706e-02  0 
 -5.776833e-02  -8.994342e-02  0 
 -5.389778e-02  -8.968401e-02  0 
 -4.985445e-02  -8.929338e-02  0 
 -4.056814e-02  -8.814540e-02  0 
 -4.560400e-02  -9.351322e-02  0 
 -4.589282e-02  -9.763466e-02  0 
 -4.607192e-02  -1.016439e-01  0 
 -5.496618e-02  -7.908684e-02  0 
 -5.412921e-02  -7.736336e-02  0 
 -5.136688e-02  -7.586945e-02  0 
 -4.838329e-02  -7.450978e-02  0 
 -4.560553e-02  -7.323966e-02  0 
 -6.794339e-02  -8.431567e-02  0 
 -6.568351e-02  -8.278868e-02  0 
 -6.255769e-02  -8.118368e-02  0 
 -5.800627e-02  -8.030477e-02  0 
 -5.558879e-02  -7.932819e-02  0 
 -5.278786e-02  -7.833549e-02  0 
 -4.966493e-02  -7.708583e-02  0 
 -4.663239e-02  -7.571364e-02  0 
 -6.946157e-02  -8.545382e-02  0 
 -6.733478e-02  -8.475134e-02  0 
 -6.414734e-02  -8.400152e-02  0 
 -6.062413e-02  -8.295844e-02  0 
 -5.731081e-02  -8.185140e-02  0 
 -5.415594e-02  -8.089827e-02  0 
 -5.085198e-02  -7.980087e-02  0 
 -4.736287e-02  -7.857522e-02  0 
 -7.146121e-02  -8.699452e-02  0 
 -6.901023e-02  -8.648312e-02  0 
 -6.592253e-02  -8.603446e-02  0 
 -6.252624e-02  -8.540149e-02  0 
 -5.903376e-02  -8.462061e-02  0 
 -5.554195e-02  -8.377781e-02  0 
 -5.196596e-02  -8.284641e-02  0 
 -4.815546e-02  -8.171032e-02  0 
 -7.395344e-02  -8.847150e-02  0 
 -7.088694e-02  -8.824454e-02  0 
 -6.754442e-02  -8.806867e-02  0 
 -6.404566e-02  -8.778706e-02  0 
 -6.045127e-02  -8.737108e-02  0 
 -5.679223e-02  -8.684200e-02  0 
 -5.303624e-02  -8.618717e-02  0 
 -4.905355e-02  -8.528559e-02  0 
 -4.055711e-02  -7.166510e-02  0 
 -4.083117e-02  -7.460571e-02  0 
 -4.102153e-02  -7.733961e-02  0 
 -4.088710e-02  -8.031211e-02  0 
 -4.057145e-02  -8.386664e-02  0 
 -7.651872e-02  -9.405541e-02  0 
 -7.278118e-02  -9.403671e-02  0 
 -6.904695e-02  -9.400969e-02  0 
 -6.532255e-02  -9.396529e-02  0 
 -6.159226e-02  -9.389326e-02  0 
 -5.782156e-02  -9.378977e-02  0 
 -5.395922e-02  -9.366415e-02  0 
 -4.991459e-02  -9.356120e-02  0 
 -7.655511e-02  -9.779792e-02  0 
 -7.279472e-02  -9.778282e-02  0 
 -6.904824e-02  -9.775905e-02  0 
 -6.532697e-02  -9.773193e-02  0 
 -6.161027e-02  -9.769508e-02  0 
 -5.783964e-02  -9.766688e-02  0 
 -5.396955e-02  -9.766158e-02  0 
 -4.996171e-02  -9.767045e-02  0 
 -7.658014e-02  -1.015850e-01  0 
 -7.280711e-02  -1.015672e-01  0 
 -6.902891e-02  -1.015386e-01  0 
 -6.532065e-02  -1.014745e-01  0 
 -6.160672e-02  -1.014758e-01  0 
 -5.783201e-02  -1.015286e-01  0 
 -5.398378e-02  -1.015897e-01  0 
 -5.005827e-02  -1.016521e-01  0 
 -7.659482e-02  -1.053935e-01  0 
 -7.281521e-02  -1.053636e-01  0 
 -6.899942e-02  -1.053998e-01  0 
 -4.162395e-02  -9.358955e-02  0 
 -3.944808e-02  -9.383374e-02  0 
 -4.215438e-02  -9.708843e-02  0 
 -3.957270e-02  -9.643414e-02  0 
 -4.242903e-02  -1.001279e-01  0 
 -4.029110e-02  -9.862030e-02  0 
VECTORS displacement_ITER4 FLOAT
 -7.682492e-02  -8.902652e-02  0 
 -4.481221e-02  -8.735409e-02  0 
 -6.782340e-02  -8.365088e-02  0 
 -6.954151e-02  -8.480968e-02  0 
 -7.124034e-02  -8.646115e-02  0 
 -7.333636e-02  -8.793356e-02  0 
 -7.687931e-02  -9.238399e-02  0 
 -7.692867e-02  -9.577963e-02  0 
 -7.697345e-02  -9.919271e-02  0 
 -7.703826e-02  -1.026671e-01  0 
 -4.316820e-02  -7.090541e-02  0 
 -4.337998e-02  -7.391933e-02  0 
 -4.357255e-02  -7.678932e-02  0 
 -4.386950e-02  -7.972903e-02  0 
 -4.432665e-02  -8.308016e-02  0 
 -7.346827e-02  -8.899498e-02  0 
 -7.007851e-02  -8.895587e-02  0 
 -6.667370e-02  -8.890610e-02  0 
 -6.325642e-02  -8.883523e-02  0 
 -5.982032e-02  -8.872930e-02  0 
 -5.634990e-02  -8.857166e-02  0 
 -5.281386e-02  -8.833586e-02  0 
 -4.912442e-02  -8.796041e-02  0 
 -4.067128e-02  -8.676126e-02  0 
 -4.523436e-02  -9.183329e-02  0 
 -4.553902e-02  -9.558865e-02  0 
 -4.571738e-02  -9.918570e-02  0 
 -5.468063e-02  -7.803390e-02  0 
 -5.317492e-02  -7.667506e-02  0 
 -5.032022e-02  -7.537541e-02  0 
 -4.741699e-02  -7.412952e-02  0 
 -4.483029e-02  -7.284544e-02  0 
 -6.667909e-02  -8.274658e-02  0 
 -6.423736e-02  -8.161411e-02  0 
 -6.120265e-02  -8.039401e-02  0 
 -5.715781e-02  -7.959799e-02  0 
 -5.455064e-02  -7.875545e-02  0 
 -5.174176e-02  -7.780346e-02  0 
 -4.878514e-02  -7.656501e-02  0 
 -4.606305e-02  -7.511554e-02  0 
 -6.787020e-02  -8.430988e-02  0 
 -6.559643e-02  -8.369273e-02  0 
 -6.256596e-02  -8.303464e-02  0 
 -5.926680e-02  -8.216345e-02  0 
 -5.610662e-02  -8.119343e-02  0 
 -5.308910e-02  -8.025865e-02  0 
 -5.001543e-02  -7.914215e-02  0 
 -4.683283e-02  -7.791979e-02  0 
 -6.942032e-02  -8.591197e-02  0 
 -6.700617e-02  -8.545344e-02  0 
 -6.406088e-02  -8.503431e-02  0 
 -6.087866e-02  -8.446750e-02  0 
 -5.763018e-02  -8.375590e-02  0 
 -5.439039e-02  -8.294536e-02  0 
 -5.108197e-02  -8.202478e-02  0 
 -4.756501e-02  -8.094109e-02  0 
 -7.141010e-02  -8.731387e-02  0 
 -6.854677e-02  -8.711965e-02  0 
 -6.543160e-02  -8.694147e-02  0 
 -6.218853e-02  -8.666303e-02  0 
 -5.887557e-02  -8.626523e-02  0 
 -5.551213e-02  -8.576180e-02  0 
 -5.205559e-02  -8.513791e-02  0 
 -4.837140e-02  -8.428728e-02  0 
 -4.019778e-02  -7.087572e-02  0 
 -4.048386e-02  -7.387067e-02  0 
 -4.069953e-02  -7.673229e-02  0 
 -4.074857e-02  -7.967934e-02  0 
 -4.063133e-02  -8.298729e-02  0 
 -7.349740e-02  -9.236924e-02  0 
 -7.010296e-02  -9.234743e-02  0 
 -6.669740e-02  -9.231332e-02  0 
 -6.328415e-02  -9.226349e-02  0 
 -5.985566e-02  -9.219149e-02  0 
 -5.639510e-02  -9.209267e-02  0 
 -5.286721e-02  -9.197218e-02  0 
 -4.918116e-02  -9.187594e-02  0 
 -7.352502e-02  -9.576917e-02  0 
 -7.012039e-02  -9.576034e-02  0 
 -6.670812e-02  -9.574000e-02  0 
 -6.329165e-02  -9.571463e-02  0 
 -5.986654e-02  -9.568335e-02  0 
 -5.640556e-02  -9.564557e-02  0 
 -5.287005e-02  -9.562361e-02  0 
 -4.922275e-02  -9.562127e-02  0 
 -7.354275e-02  -9.919113e-02  0 
 -7.012648e-02  -9.919407e-02  0 
 -6.671404e-02  -9.919290e-02  0 
 -6.327186e-02  -9.917403e-02  0 
 -5.985533e-02  -9.917301e-02  0 
 -5.639978e-02  -9.919127e-02  0 
 -5.288880e-02  -9.919750e-02  0 
 -4.932206e-02  -9.921292e-02  0 
 -7.354098e-02  -1.026249e-01  0 
 -7.011437e-02  -1.026391e-01  0 
 -6.671877e-02  -1.026400e-01  0 
 -4.183204e-02  -9.248632e-02  0 
 -3.976510e-02  -9.338979e-02  0 
 -4.236390e-02  -9.607117e-02  0 
 -3.936206e-02  -9.611556e-02  0 
 -4.252912e-02  -9.971553e-02  0 
 -3.964951e-02  -1.002531e-01  0 
VECTORS displacement_ITER5 FLOAT
 -7.638898e-02  -8.767237e-02  0 
 -4.407403e-02  -8.594905e-02  0 
 -6.722710e-02  -8.253550e-02  0 
 -6.883831e-02  -8.370082e-02  0 
 -7.053016e-02  -8.532026e-02  0 
 -7.270248e-02  -8.670433e-02  0 
 -7.644383e-02  -9.104210e-02  0 
 -7.648660e-02  -9.444913e-02  0 
 -7.652169e-02  -9.787227e-02  0 
 -7.656503e-02  -1.013273e-01  0 
 -4.252667e-02  -7.023495e-02  0 
 -4.279330e-02  -7.324584e-02  0 
 -4.300263e-02  -7.617167e-02  0 
 -4.323486e-02  -7.905980e-02  0 
 -4.359841e-02  -8.209808e-02  0 
 -7.302003e-02  -8.763606e-02  0 
 -6.961032e-02  -8.758270e-02  0 
 -6.617094e-02  -8.751190e-02  0 
 -6.270470e-02  -8.742468e-02  0 
 -5.921351e-02  -8.731797e-02  0 
 -5.569577e-02  -8.717596e-02  0 
 -5.213216e-02  -8.695915e-02  0 
 -4.842828e-02  -8.658399e-02  0 
 -4.037341e-02  -8.528474e-02  0 
 -4.452863e-02  -9.047441e-02  0 
 -4.488286e-02  -9.423035e-02  0 
 -4.513725e-02  -9.772748e-02  0 
 -5.382006e-02  -7.777699e-02  0 
 -5.237717e-02  -7.643361e-02  0 
 -4.953143e-02  -7.510477e-02  0 
 -4.665049e-02  -7.385887e-02  0 
 -4.407945e-02  -7.250059e-02  0 
 -6.583928e-02  -8.151406e-02  0 
 -6.334980e-02  -8.045213e-02  0 
 -6.031224e-02  -7.945178e-02  0 
 -5.641369e-02  -7.880279e-02  0 
 -5.379466e-02  -7.814394e-02  0 
 -5.101777e-02  -7.725622e-02  0 
 -4.810477e-02  -7.602563e-02  0 
 -4.546823e-02  -7.452329e-02  0 
 -6.712772e-02  -8.320177e-02  0 
 -6.477035e-02  -8.257307e-02  0 
 -6.173597e-02  -8.195373e-02  0 
 -5.847253e-02  -8.118174e-02  0 
 -5.535622e-02  -8.030946e-02  0 
 -5.238748e-02  -7.944010e-02  0 
 -4.937336e-02  -7.836511e-02  0 
 -4.625263e-02  -7.720087e-02  0 
 -6.873643e-02  -8.475697e-02  0 
 -6.629816e-02  -8.427976e-02  0 
 -6.332112e-02  -8.385851e-02  0 
 -6.013487e-02  -8.331977e-02  0 
 -5.690703e-02  -8.265517e-02  0 
 -5.369735e-02  -8.189585e-02  0 
 -5.041539e-02  -8.103662e-02  0 
 -4.691576e-02  -8.005939e-02  0 
 -7.083265e-02  -8.605388e-02  0 
 -6.795263e-02  -8.584817e-02  0 
 -6.480458e-02  -8.565760e-02  0 
 -6.153269e-02  -8.537517e-02  0 
 -5.820314e-02  -8.499225e-02  0 
 -5.483088e-02  -8.452380e-02  0 
 -5.136250e-02  -8.395217e-02  0 
 -4.765215e-02  -8.317536e-02  0 
 -3.957267e-02  -7.016511e-02  0 
 -3.985902e-02  -7.317825e-02  0 
 -4.009950e-02  -7.611124e-02  0 
 -4.028918e-02  -7.900793e-02  0 
 -4.032409e-02  -8.202859e-02  0 
 -7.305119e-02  -9.102763e-02  0 
 -6.964170e-02  -9.100240e-02  0 
 -6.620379e-02  -9.095851e-02  0 
 -6.273750e-02  -9.089913e-02  0 
 -5.924637e-02  -9.082625e-02  0 
 -5.573354e-02  -9.073334e-02  0 
 -5.217951e-02  -9.061742e-02  0 
 -4.848758e-02  -9.052363e-02  0 
 -7.307537e-02  -9.444314e-02  0 
 -6.966534e-02  -9.444119e-02  0 
 -6.623238e-02  -9.442474e-02  0 
 -6.275483e-02  -9.439633e-02  0 
 -5.924669e-02  -9.436889e-02  0 
 -5.573223e-02  -9.432660e-02  0 
 -5.217334e-02  -9.429067e-02  0 
 -4.853088e-02  -9.427596e-02  0 
 -7.308690e-02  -9.786799e-02  0 
 -6.967148e-02  -9.787969e-02  0 
 -6.626755e-02  -9.790027e-02  0 
 -6.273366e-02  -9.795337e-02  0 
 -5.922538e-02  -9.793747e-02  0 
 -5.571159e-02  -9.790832e-02  0 
 -5.218981e-02  -9.788541e-02  0 
 -4.864223e-02  -9.783812e-02  0 
 -7.309173e-02  -1.013097e-01  0 
 -6.965762e-02  -1.012901e-01  0 
 -6.636687e-02  -1.012287e-01  0 
 -4.106257e-02  -9.038641e-02  0 
 -3.873465e-02  -9.072330e-02  0 
 -4.173791e-02  -9.423759e-02  0 
 -3.870536e-02  -9.401015e-02  0 
 -4.205973e-02  -9.784255e-02  0 
 -3.904235e-02  -9.797244e-02  0 
VECTORS displacement_ITER6 FLOAT
 -7.657567e-02  -8.701195e-02  0 
 -4.364081e-02  -8.531119e-02  0 
 -6.708594e-02  -8.157748e-02  0 
 -6.867364e-02  -8.302554e-02  0 
 -7.041261e-02  -8.469932e-02  0 
 -7.270135e-02  -8.607763e-02  0 
 -7.663313e-02  -9.044767e-02  0 
 -7.667843e-02  -9.392307e-02  0 
 -7.671568e-02  -9.742057e-02  0 
 -7.674244e-02  -1.009433e-01  0 
 -4.205831e-02  -6.982641e-02  0 
 -4.237000e-02  -7.278135e-02  0 
 -4.263007e-02  -7.575791e-02  0 
 -4.285735e-02  -7.870985e-02  0 
 -4.318251e-02  -8.167202e-02  0 
 -7.314084e-02  -8.697400e-02  0 
 -6.966266e-02  -8.691766e-02  0 
 -6.615168e-02  -8.684308e-02  0 
 -6.261170e-02  -8.675439e-02  0 
 -5.904678e-02  -8.665132e-02  0 
 -5.545787e-02  -8.651773e-02  0 
 -5.182703e-02  -8.631007e-02  0 
 -4.805814e-02  -8.594062e-02  0 
 -4.017902e-02  -8.464634e-02  0 
 -4.410105e-02  -8.988891e-02  0 
 -4.447195e-02  -9.370557e-02  0 
 -4.477450e-02  -9.723307e-02  0 
 -5.357424e-02  -7.671662e-02  0 
 -5.179357e-02  -7.547040e-02  0 
 -4.896879e-02  -7.422055e-02  0 
 -4.618352e-02  -7.303506e-02  0 
 -4.366875e-02  -7.177664e-02  0 
 -6.540971e-02  -8.068417e-02  0 
 -6.280616e-02  -7.971176e-02  0 
 -5.978194e-02  -7.875701e-02  0 
 -5.605584e-02  -7.807041e-02  0 
 -5.335965e-02  -7.734885e-02  0 
 -5.054908e-02  -7.645018e-02  0 
 -4.766117e-02  -7.529397e-02  0 
 -4.502515e-02  -7.393749e-02  0 
 -6.682333e-02  -8.250085e-02  0 
 -6.439329e-02  -8.184296e-02  0 
 -6.136982e-02  -8.118966e-02  0 
 -5.813561e-02  -8.041927e-02  0 
 -5.500658e-02  -7.956672e-02  0 
 -5.199245e-02  -7.871392e-02  0 
 -4.895139e-02  -7.770610e-02  0 
 -4.584158e-02  -7.665672e-02  0 
 -6.857953e-02  -8.409697e-02  0 
 -6.609120e-02  -8.356607e-02  0 
 -6.307997e-02  -8.311256e-02  0 
 -5.986695e-02  -8.257216e-02  0 
 -5.660602e-02  -8.192909e-02  0 
 -5.334935e-02  -8.120537e-02  0 
 -5.002285e-02  -8.040126e-02  0 
 -4.651299e-02  -7.952670e-02  0 
 -7.082084e-02  -8.538636e-02  0 
 -6.788665e-02  -8.515526e-02  0 
 -6.467883e-02  -8.494656e-02  0 
 -6.134913e-02  -8.466133e-02  0 
 -5.796188e-02  -8.429181e-02  0 
 -5.452970e-02  -8.384874e-02  0 
 -5.100154e-02  -8.331398e-02  0 
 -4.723990e-02  -8.260291e-02  0 
 -3.917371e-02  -6.973849e-02  0 
 -3.943945e-02  -7.270131e-02  0 
 -3.964044e-02  -7.569432e-02  0 
 -3.990407e-02  -7.864992e-02  0 
 -4.007359e-02  -8.159898e-02  0 
 -7.317324e-02  -9.043285e-02  0 
 -6.969610e-02  -9.040744e-02  0 
 -6.618738e-02  -9.036158e-02  0 
 -6.264568e-02  -9.030051e-02  0 
 -5.907830e-02  -9.023015e-02  0 
 -5.549278e-02  -9.014349e-02  0 
 -5.187253e-02  -9.003446e-02  0 
 -4.811930e-02  -8.994405e-02  0 
 -7.319770e-02  -9.391681e-02  0 
 -6.972102e-02  -9.391432e-02  0 
 -6.622213e-02  -9.389919e-02  0 
 -6.266726e-02  -9.386878e-02  0 
 -5.907449e-02  -9.384197e-02  0 
 -5.548610e-02  -9.380532e-02  0 
 -5.186229e-02  -9.377328e-02  0 
 -4.816622e-02  -9.376048e-02  0 
 -7.321024e-02  -9.741019e-02  0 
 -6.973179e-02  -9.741477e-02  0 
 -6.626003e-02  -9.743560e-02  0 
 -6.265549e-02  -9.751290e-02  0 
 -5.905087e-02  -9.748698e-02  0 
 -5.545091e-02  -9.744808e-02  0 
 -5.187107e-02  -9.744078e-02  0 
 -4.827836e-02  -9.737640e-02  0 
 -7.323197e-02  -1.009226e-01  0 
 -6.973120e-02  -1.008678e-01  0 
 -6.638675e-02  -1.007949e-01  0 
 -4.063954e-02  -8.879259e-02  0 
 -3.754267e-02  -8.791708e-02  0 
 -4.127858e-02  -9.286441e-02  0 
 -3.828594e-02  -9.215541e-02  0 
 -4.176164e-02  -9.616850e-02  0 
 -3.894858e-02  -9.513843e-02  0 
VECTORS displacement_ITER7 FLOAT
 -7.522538e-02  -8.638770e-02  0 
 -4.326816e-02  -8.456911e-02  0 
 -6.617666e-02  -8.141543e-02  0 
 -6.755599e-02  -8.278544e-02  0 
 -6.921555e-02  -8.427177e-02  0 
 -7.145168e-02  -8.551409e-02  0 
 -7.528366e-02  -8.971419e-02  0 
 -7.533413e-02  -9.308348e-02  0 
 -7.536963e-02  -9.647144e-02  0 
 -7.539230e-02  -9.986374e-02  0 
 -4.114943e-02  -6.945958e-02  0 
 -4.153551e-02  -7.214474e-02  0 
 -4.190446e-02  -7.490419e-02  0 
 -4.226698e-02  -7.775553e-02  0 
 -4.272978e-02  -8.076484e-02  0 
 -7.190059e-02  -8.635353e-02  0 
 -6.853986e-02  -8.630881e-02  0 
 -6.515990e-02  -8.624940e-02  0 
 -6.176219e-02  -8.616770e-02  0 
 -5.834119e-02  -8.605275e-02  0 
 -5.488351e-02  -8.588726e-02  0 
 -5.135696e-02  -8.563806e-02  0 
 -4.766171e-02  -8.523103e-02  0 
 -3.962118e-02  -8.391689e-02  0 
 -4.375588e-02  -8.912195e-02  0 
 -4.411622e-02  -9.288205e-02  0 
 -4.436134e-02  -9.642855e-02  0 
 -5.406138e-02  -7.553111e-02  0 
 -5.147996e-02  -7.452095e-02  0 
 -4.848018e-02  -7.332105e-02  0 
 -4.557076e-02  -7.214007e-02  0 
 -4.291829e-02  -7.100096e-02  0 
 -6.445605e-02  -8.062230e-02  0 
 -6.203735e-02  -7.968482e-02  0 
 -5.928205e-02  -7.867182e-02  0 
 -5.599920e-02  -7.766616e-02  0 
 -5.302976e-02  -7.677487e-02  0 
 -5.002325e-02  -7.576834e-02  0 
 -4.699402e-02  -7.459347e-02  0 
 -4.420511e-02  -7.327944e-02  0 
 -6.584649e-02  -8.226060e-02  0 
 -6.359328e-02  -8.155672e-02  0 
 -6.083088e-02  -8.081443e-02  0 
 -5.775848e-02  -8.001977e-02  0 
 -5.460358e-02  -7.913433e-02  0 
 -5.146304e-02  -7.819130e-02  0 
 -4.829963e-02  -7.710219e-02  0 
 -4.510899e-02  -7.595330e-02  0 
 -6.754474e-02  -8.367465e-02  0 
 -6.522948e-02  -8.312149e-02  0 
 -6.238572e-02  -8.265512e-02  0 
 -5.929070e-02  -8.212673e-02  0 
 -5.607994e-02  -8.148637e-02  0 
 -5.281060e-02  -8.071949e-02  0 
 -4.944821e-02  -7.981726e-02  0 
 -4.591891e-02  -7.879005e-02  0 
 -6.969161e-02  -8.483929e-02  0 
 -6.690272e-02  -8.461675e-02  0 
 -6.383216e-02  -8.442313e-02  0 
 -6.062290e-02  -8.415597e-02  0 
 -5.733323e-02  -8.378947e-02  0 
 -5.397323e-02  -8.331448e-02  0 
 -5.049780e-02  -8.270346e-02  0 
 -4.677642e-02  -8.187112e-02  0 
 -3.853212e-02  -6.935882e-02  0 
 -3.885448e-02  -7.204378e-02  0 
 -3.907335e-02  -7.482106e-02  0 
 -3.934522e-02  -7.766101e-02  0 
 -3.952262e-02  -8.065682e-02  0 
 -7.193128e-02  -8.969831e-02  0 
 -6.856739e-02  -8.967395e-02  0 
 -6.518831e-02  -8.963390e-02  0 
 -6.179378e-02  -8.957679e-02  0 
 -5.837888e-02  -8.949918e-02  0 
 -5.492978e-02  -8.939628e-02  0 
 -5.141247e-02  -8.927256e-02  0 
 -4.772565e-02  -8.917466e-02  0 
 -7.195931e-02  -9.307167e-02  0 
 -6.858706e-02  -9.305916e-02  0 
 -6.520557e-02  -9.303933e-02  0 
 -6.180700e-02  -9.301033e-02  0 
 -5.838824e-02  -9.297634e-02  0 
 -5.493621e-02  -9.294076e-02  0 
 -5.140868e-02  -9.292106e-02  0 
 -4.777453e-02  -9.292417e-02  0 
 -7.198201e-02  -9.646392e-02  0 
 -6.859751e-02  -9.646065e-02  0 
 -6.521099e-02  -9.646085e-02  0 
 -6.179835e-02  -9.646705e-02  0 
 -5.837519e-02  -9.645942e-02  0 
 -5.491742e-02  -9.647188e-02  0 
 -5.142051e-02  -9.649561e-02  0 
 -4.787935e-02  -9.648689e-02  0 
 -7.199601e-02  -9.986588e-02  0 
 -6.859657e-02  -9.987326e-02  0 
 -6.521140e-02  -9.987444e-02  0 
 -4.058873e-02  -8.855208e-02  0 
 -3.753481e-02  -8.809214e-02  0 
 -4.132372e-02  -9.287539e-02  0 
 -3.812380e-02  -9.265028e-02  0 
 -4.176532e-02  -9.668590e-02  0 
 -3.888216e-02  -9.698671e-02  0 
VECTORS displacement_ITER8 FLOAT
 -7.509027e-02  -8.576490e-02  0 
 -4.306267e-02  -8.394249e-02  0 
 -6.557663e-02  -8.107505e-02  0 
 -6.705035e-02  -8.237773e-02  0 
 -6.882969e-02  -8.375084e-02  0 
 -7.119679e-02  -8.492330e-02  0 
 -7.515037e-02  -8.909810e-02  0 
 -7.520418e-02  -9.247571e-02  0 
 -7.524411e-02  -9.587339e-02  0 
 -7.527527e-02  -9.928263e-02  0 
 -4.090884e-02  -6.865931e-02  0 
 -4.130158e-02  -7.132553e-02  0 
 -4.167788e-02  -7.407723e-02  0 
 -4.205300e-02  -7.695599e-02  0 
 -4.252329e-02  -8.004356e-02  0 
 -7.175902e-02  -8.573083e-02  0 
 -6.839262e-02  -8.568831e-02  0 
 -6.500903e-02  -8.563221e-02  0 
 -6.160912e-02  -8.555227e-02  0 
 -5.818535e-02  -8.543557e-02  0 
 -5.472178e-02  -8.526519e-02  0 
 -5.118433e-02  -8.501080e-02  0 
 -4.747396e-02  -8.460175e-02  0 
 -3.932094e-02  -8.329005e-02  0 
 -4.355085e-02  -8.850921e-02  0 
 -4.390475e-02  -9.228543e-02  0 
 -4.413633e-02  -9.585922e-02  0 
 -5.443388e-02  -7.469249e-02  0 
 -5.160319e-02  -7.368244e-02  0 
 -4.867335e-02  -7.243439e-02  0 
 -4.582622e-02  -7.113594e-02  0 
 -4.309615e-02  -6.992125e-02  0 
 -6.399545e-02  -8.036207e-02  0 
 -6.170524e-02  -7.941601e-02  0 
 -5.913628e-02  -7.831160e-02  0 
 -5.612240e-02  -7.714065e-02  0 