# vtk DataFile Version 3.1
this is an vtk file created by FEMAC
ASCII
DATASET UNSTRUCTURED_GRID
POINTS 103 FLOAT
3.000000 0.000000 0.000000
3.000000 1.000000 0.000000
2.333333 0.000000 0.000000
2.444444 0.000000 0.000000
2.555556 0.000000 0.000000
2.666667 0.000000 0.000000
2.777778 0.000000 0.000000
2.888889 0.000000 0.000000
3.111111 0.000000 0.000000
3.222222 0.000000 0.000000
3.333333 0.000000 0.000000
3.444444 0.000000 0.000000
3.555556 0.000000 0.000000
2.777778 1.000000 0.000000
2.888889 1.000000 0.000000
3.000000 0.111111 0.000000
3.000000 0.222222 0.000000
3.000000 0.333333 0.000000
3.000000 0.444444 0.000000
3.000000 0.555556 0.000000
3.000000 0.666667 0.000000
3.000000 0.777778 0.000000
3.000000 0.888889 0.000000
3.000000 1.111111 0.000000
3.111111 1.000000 0.000000
3.222222 1.000000 0.000000
3.333333 1.000000 0.000000
3.444444 1.000000 0.000000
2.333333 0.111111 0.000000
2.333333 0.222222 0.000000
2.333333 0.333333 0.000000
2.333333 0.444444 0.000000
2.444444 0.111111 0.000000
2.444444 0.222222 0.000000
2.444444 0.333333 0.000000
2.444444 0.444444 0.000000
2.555556 0.111111 0.000000
2.555556 0.222222 0.000000
2.555556 0.333333 0.000000
2.555556 0.444444 0.000000
2.666667 0.111111 0.000000
2.666667 0.222222 0.000000
2.666667 0.333333 0.000000
2.666667 0.444444 0.000000
2.666667 0.555556 0.000000
2.777778 0.111111 0.000000
2.777778 0.222222 0.000000
2.777778 0.333333 0.000000
2.777778 0.444444 0.000000
2.777778 0.555556 0.000000
2.777778 0.666667 0.000000
2.777778 0.777778 0.000000
2.777778 0.888889 0.000000
2.888889 0.111111 0.000000
2.888889 0.222222 0.000000
2.888889 0.333333 0.000000
2.888889 0.444444 0.000000
2.888889 0.555556 0.000000
2.888889 0.666667 0.000000
2.888889 0.777778 0.000000
2.888889 0.888889 0.000000
2.777778 1.111111 0.000000
2.888889 1.111111 0.000000
3.111111 0.111111 0.000000
3.111111 0.222222 0.000000
3.111111 0.333333 0.000000
3.111111 0.444444 0.000000
3.111111 0.555556 0.000000
3.111111 0.666667 0.000000
3.111111 0.777778 0.000000
3.111111 0.888889 0.000000
3.222222 0.111111 0.000000
3.222222 0.222222 0.000000
3.222222 0.333333 0.000000
3.222222 0.444444 0.000000
3.222222 0.555556 0.000000
3.222222 0.666667 0.000000
3.222222 0.777778 0.000000
3.222222 0.888889 0.000000
3.333333 0.111111 0.000000
3.333333 0.222222 0.000000
3.333333 0.333333 0.000000
3.333333 0.444444 0.000000
3.333333 0.555556 0.000000
3.333333 0.666667 0.000000
3.333333 0.777778 0.000000
3.333333 0.888889 0.000000
3.444444 0.111111 0.000000
3.444444 0.222222 0.000000
3.444444 0.333333 0.000000
3.444444 0.444444 0.000000
3.444444 0.555556 0.000000
3.444444 0.666667 0.000000
3.444444 0.777778 0.000000
3.444444 0.888889 0.000000
3.555556 0.111111 0.000000
3.555556 0.222222 0.000000
3.555556 0.333333 0.000000
3.555556 0.444444 0.000000
3.111111 1.111111 0.000000
3.222222 1.111111 0.000000
3.333333 1.111111 0.000000
3.444444 1.111111 0.000000
CELLS 81 405 
4 2  3 32 28
4 28 32 33 29
4 29 33 34 30
4 30 34 35 31
4 3  4 36 32
4 32 36 37 33
4 33 37 38 34
4 34 38 39 35
4 4  5 40 36
4 36 40 41 37
4 37 41 42 38
4 38 42 43 39
4 5  6 45 40
4 40 45 46 41
4 41 46 47 42
4 42 47 48 43
4 43 48 49 44
4 6  7 53 45
4 45 53 54 46
4 46 54 55 47
4 47 55 56 48
4 48 56 57 49
4 49 57 58 50
4 50 58 59 51
4 51 59 60 52
4 52 60 14 13
4 7  0 15 53
4 53 15 16 54
4 54 16 17 55
4 55 17 18 56
4 56 18 19 57
4 57 19 20 58
4 58 20 21 59
4 59 21 22 60
4 60 22  1 14
4 13 14 62 61
4 14  1 23 62
4 0  8 63 15
4 15 63 64 16
4 16 64 65 17
4 17 65 66 18
4 18 66 67 19
4 19 67 68 20
4 20 68 69 21
4 21 69 70 22
4 22 70 24  1
4 8  9 71 63
4 63 71 72 64
4 64 72 73 65
4 65 73 74 66
4 66 74 75 67
4 67 75 76 68
4 68 76 77 69
4 69 77 78 70
4 70 78 25 24
4 9 10 79 71
4 71 79 80 72
4 72 80 81 73
4 73 81 82 74
4 74 82 83 75
4 75 83 84 76
4 76 84 85 77
4 77 85 86 78
4 78 86 26 25
4 10 11 87 79
4 79 87 88 80
4 80 88 89 81
4 81 89 90 82
4 82 90 91 83
4 83 91 92 84
4 84 92 93 85
4 85 93 94 86
4 86 94 27 26
4 11 12 95 87
4 87 95 96 88
4 88 96 97 89
4 89 97 98 90
4 1 24 99 23
4 24  25 100  99
4 25  26 101 100
4 26  27 102 101
CELL_TYPES 81
9 9 9 9 9 9 9 9 9 9 9 9 9 9 9 9 9 9 9 9 9 9 9 9 9 9 9 9 9 9 9 9 9 9 9 9 9 9 9 9 9 9 9 9 9 9 9 9 9 9 9 9 9 9 9 9 9 9 9 9 9 9 9 9 9 9 9 9 9 9 9 9 9 9 9 9 9 9 9 9 9 
POINT_DATA 103
VECTORS displacement_ITER1 FLOAT
 -7.422695e-02  -7.965116e-02  0 
 -3.776656e-02  -7.700592e-02  0 
 -7.352566e-02  -5.122564e-02  0 
 -7.402697e-02  -5.579220e-02  0 
 -7.417589e-02  -6.055972e-02  0 
 -7.421260e-02  -6.534160e-02  0 
 -7.421654e-02  -7.011398e-02  0 
 -7.421850e-02  -7.487981e-02  0 
 -7.463523e-02  -8.492833e-02  0 
 -7.452137e-02  -8.956699e-02  0 
 -7.436960e-02  -9.347809e-02  0 
 -7.450427e-02  -9.677670e-02  0 
 -7.531575e-02  -9.979275e-02  0 
 -3.465239e-02  -7.120328e-02  0 
 -3.576940e-02  -7.467453e-02  0 
 -6.945724e-02  -7.963917e-02  0 
 -6.470704e-02  -7.960860e-02  0 
 -5.997876e-02  -7.956440e-02  0 
 -5.524428e-02  -7.951342e-02  0 
 -5.052954e-02  -7.937363e-02  0 
 -4.601099e-02  -7.900343e-02  0 
 -4.196340e-02  -7.836107e-02  0 
 -3.874232e-02  -7.754567e-02  0 
 -3.963739e-02  -7.692146e-02  0 
 -4.016473e-02  -7.698063e-02  0 
 -4.185842e-02  -7.913280e-02  0 
 -4.273825e-02  -8.252371e-02  0 
 -4.303680e-02  -8.605489e-02  0 
 -6.958959e-02  -5.131119e-02  0 
 -6.488798e-02  -5.120968e-02  0 
 -6.016102e-02  -5.113166e-02  0 
 -5.523460e-02  -5.096700e-02  0 
 -6.942705e-02  -5.580501e-02  0 
 -6.485341e-02  -5.591471e-02  0 
 -6.011928e-02  -5.592887e-02  0 
 -5.530073e-02  -5.592988e-02  0 
 -6.944009e-02  -6.056376e-02  0 
 -6.476422e-02  -6.062713e-02  0 
 -6.007962e-02  -6.072688e-02  0 
 -5.529323e-02  -6.076256e-02  0 
 -6.945034e-02  -6.534587e-02  0 
 -6.471595e-02  -6.538195e-02  0 
 -6.000265e-02  -6.546871e-02  0 
 -5.532944e-02  -6.565089e-02  0 
 -5.118315e-02  -6.606104e-02  0 
 -6.945011e-02  -7.011668e-02  0 
 -6.469256e-02  -7.013050e-02  0 
 -5.995304e-02  -7.015847e-02  0 
 -5.528547e-02  -7.016890e-02  0 
 -5.068147e-02  -7.017402e-02  0 
 -4.580628e-02  -7.034428e-02  0 
 -4.169518e-02  -7.093858e-02  0 
 -3.818019e-02  -7.131435e-02  0 
 -6.945093e-02  -7.487711e-02  0 
 -6.469260e-02  -7.486913e-02  0 
 -5.995999e-02  -7.484356e-02  0 
 -5.524941e-02  -7.480305e-02  0 
 -5.051666e-02  -7.479828e-02  0 
 -4.589571e-02  -7.476813e-02  0 
 -4.178853e-02  -7.469568e-02  0 
 -3.859904e-02  -7.481603e-02  0 
 -3.582203e-02  -6.675426e-02  0 
 -3.613404e-02  -7.248510e-02  0 
 -6.985087e-02  -8.484122e-02  0 
 -6.529825e-02  -8.466131e-02  0 
 -6.074506e-02  -8.435354e-02  0 
 -5.620422e-02  -8.392356e-02  0 
 -5.178440e-02  -8.333259e-02  0 
 -4.763997e-02  -8.249186e-02  0 
 -4.399412e-02  -8.129117e-02  0 
 -4.125302e-02  -7.954386e-02  0 
 -7.027580e-02  -8.948610e-02  0 
 -6.607816e-02  -8.919919e-02  0 
 -6.183024e-02  -8.868898e-02  0 
 -5.750932e-02  -8.791161e-02  0 
 -5.328416e-02  -8.692213e-02  0 
 -4.937344e-02  -8.569640e-02  0 
 -4.604972e-02  -8.402669e-02  0 
 -4.357970e-02  -8.175229e-02  0 
 -7.067780e-02  -9.336777e-02  0 
 -6.690732e-02  -9.310371e-02  0 
 -6.317894e-02  -9.266287e-02  0 
 -5.916519e-02  -9.166021e-02  0 
 -5.488284e-02  -9.035508e-02  0 
 -5.098976e-02  -8.891185e-02  0 
 -4.797406e-02  -8.690979e-02  0 
 -4.535844e-02  -8.455483e-02  0 
 -7.115976e-02  -9.660040e-02  0 
 -6.761123e-02  -9.630793e-02  0 
 -6.439107e-02  -9.596670e-02  0 
 -6.143114e-02  -9.550661e-02  0 
 -5.617982e-02  -9.439113e-02  0 
 -5.254549e-02  -9.210163e-02  0 
 -4.968204e-02  -8.973116e-02  0 
 -4.696360e-02  -8.767769e-02  0 
 -7.168666e-02  -9.956901e-02  0 
 -6.837934e-02  -9.907192e-02  0 
 -6.524681e-02  -9.818635e-02  0 
 -6.455298e-02  -9.647478e-02  0 
 -3.921655e-02  -7.656403e-02  0 
 -3.915579e-02  -7.895635e-02  0 
 -3.926825e-02  -8.246056e-02  0 
 -3.983177e-02  -8.591666e-02  0 
VECTORS displacement_ITER2 FLOAT
 -6.787950e-02  -7.139102e-02  0 
 -3.743046e-02  -6.884338e-02  0 
 -6.749050e-02  -4.779421e-02  0 
 -6.768679e-02  -5.165928e-02  0 
 -6.776316e-02  -5.558385e-02  0 
 -6.780242e-02  -5.952275e-02  0 
 -6.783003e-02  -6.346844e-02  0 
 -6.785494e-02  -6.742144e-02  0 
 -6.921574e-02  -7.636684e-02  0 
 -6.976385e-02  -8.065841e-02  0 
 -7.019833e-02  -8.424080e-02  0 
 -7.093865e-02  -8.729979e-02  0 
 -7.242682e-02  -9.045315e-02  0 
 -3.415870e-02  -6.433469e-02  0 
 -3.534779e-02  -6.721631e-02  0 
 -6.391183e-02  -7.137494e-02  0 
 -5.996676e-02  -7.135149e-02  0 
 -5.603030e-02  -7.133286e-02  0 
 -5.204790e-02  -7.133654e-02  0 
 -4.800483e-02  -7.128437e-02  0 
 -4.405879e-02  -7.100248e-02  0 
 -4.050813e-02  -7.039954e-02  0 
 -3.777962e-02  -6.953408e-02  0 
 -3.887997e-02  -6.855508e-02  0 
 -3.989167e-02  -6.910952e-02  0 
 -4.152262e-02  -7.144133e-02  0 
 -4.225123e-02  -7.441538e-02  0 
 -4.254478e-02  -7.716946e-02  0 
 -6.385868e-02  -4.783617e-02  0 
 -5.997875e-02  -4.779572e-02  0 
 -5.611419e-02  -4.779393e-02  0 
 -5.216271e-02  -4.774206e-02  0 
 -6.382242e-02  -5.165592e-02  0 
 -5.997648e-02  -5.169451e-02  0 
 -5.608347e-02  -5.170810e-02  0 
 -5.219758e-02  -5.175152e-02  0 
 -6.384475e-02  -5.557808e-02  0 
 -5.994987e-02  -5.559568e-02  0 
 -5.606271e-02  -5.563217e-02  0 
 -5.214733e-02  -5.562885e-02  0 
 -6.386529e-02  -5.951626e-02  0 
 -5.993792e-02  -5.952062e-02  0 
 -5.602029e-02  -5.954800e-02  0 
 -5.211312e-02  -5.965936e-02  0 
 -4.873889e-02  -6.006828e-02  0 
 -6.388247e-02  -6.346212e-02  0 
 -5.993776e-02  -6.345864e-02  0 
 -5.599143e-02  -6.345696e-02  0 
 -5.207987e-02  -6.342453e-02  0 
 -4.819807e-02  -6.334608e-02  0 
 -4.389783e-02  -6.339978e-02  0 
 -4.025572e-02  -6.400074e-02  0 
 -3.718450e-02  -6.438635e-02  0 
 -6.389764e-02  -6.741459e-02  0 
 -5.994930e-02  -6.740459e-02  0 
 -5.601091e-02  -6.737807e-02  0 
 -5.206101e-02  -6.733267e-02  0 
 -4.801666e-02  -6.732794e-02  0 
 -4.396335e-02  -6.731160e-02  0 
 -4.033342e-02  -6.724196e-02  0 
 -3.761887e-02  -6.736423e-02  0 
 -3.286906e-02  -5.933548e-02  0 
 -3.496451e-02  -6.528492e-02  0 
 -6.489033e-02  -7.611048e-02  0 
 -6.098570e-02  -7.590867e-02  0 
 -5.711124e-02  -7.563855e-02  0 
 -5.323721e-02  -7.528389e-02  0 
 -4.944485e-02  -7.479181e-02  0 
 -4.587626e-02  -7.406211e-02  0 
 -4.277058e-02  -7.298462e-02  0 
 -4.057044e-02  -7.139396e-02  0 
 -6.590300e-02  -8.042344e-02  0 
 -6.219111e-02  -8.006338e-02  0 
 -5.851610e-02  -7.956784e-02  0 
 -5.480250e-02  -7.884833e-02  0 
 -5.117130e-02  -7.794722e-02  0 
 -4.779702e-02  -7.684803e-02  0 
 -4.493810e-02  -7.537017e-02  0 
 -4.287748e-02  -7.343990e-02  0 
 -6.681182e-02  -8.398744e-02  0 
 -6.342176e-02  -8.364575e-02  0 
 -6.019733e-02  -8.317298e-02  0 
 -5.676254e-02  -8.217399e-02  0 
 -5.303585e-02  -8.094154e-02  0 
 -4.960032e-02  -7.967923e-02  0 
 -4.693018e-02  -7.793726e-02  0 
 -4.454534e-02  -7.593748e-02  0 
 -6.772434e-02  -8.697987e-02  0 
 -6.448344e-02  -8.655314e-02  0 
 -6.176718e-02  -8.607539e-02  0 
 -5.943347e-02  -8.550599e-02  0 
 -5.458675e-02  -8.452155e-02  0 
 -5.133887e-02  -8.250185e-02  0 
 -4.871623e-02  -8.050260e-02  0 
 -4.614215e-02  -7.880592e-02  0 
 -6.861911e-02  -8.987457e-02  0 
 -6.565215e-02  -8.899443e-02  0 
 -6.301595e-02  -8.778960e-02  0 
 -6.305475e-02  -8.580973e-02  0 
 -3.859768e-02  -6.865092e-02  0 
 -3.889201e-02  -7.124825e-02  0 
 -3.953911e-02  -7.432028e-02  0 
 -4.013025e-02  -7.700829e-02  0 
VECTORS displacement_ITER3 FLOAT
 -6.400907e-02  -6.669444e-02  0 
 -3.738788e-02  -6.409526e-02  0 
 -6.382449e-02  -4.589001e-02  0 
 -6.384860e-02  -4.934238e-02  0 
 -6.387780e-02  -5.277982e-02  0 
 -6.391165e-02  -5.623204e-02  0 
 -6.394638e-02  -5.970180e-02  0 
 -6.397932e-02  -6.318754e-02  0 
 -6.568412e-02  -7.129609e-02  0 
 -6.660682e-02  -7.520620e-02  0 
 -6.748996e-02  -7.847439e-02  0 
 -6.878121e-02  -8.133833e-02  0 
 -7.098958e-02  -8.461027e-02  0 
 -3.396330e-02  -6.030241e-02  0 
 -3.520977e-02  -6.290326e-02  0 
 -6.050383e-02  -6.667790e-02  0 
 -5.701808e-02  -6.665919e-02  0 
 -5.353108e-02  -6.664791e-02  0 
 -4.999252e-02  -6.665244e-02  0 
 -4.638901e-02  -6.659803e-02  0 
 -4.286260e-02  -6.632299e-02  0 
 -3.969267e-02  -6.573346e-02  0 
 -3.730931e-02  -6.485808e-02  0 
 -3.883201e-02  -6.366609e-02  0 
 -3.991447e-02  -6.435463e-02  0 
 -4.149962e-02  -6.667279e-02  0 
 -4.217429e-02  -6.937986e-02  0 
 -4.248046e-02  -7.176733e-02  0 
 -6.039155e-02  -4.590973e-02  0 
 -5.697474e-02  -4.589979e-02  0 
 -5.360291e-02  -4.591699e-02  0 
 -5.019923e-02  -4.590284e-02  0 
 -6.041317e-02  -4.933329e-02  0 
 -5.699267e-02  -4.933320e-02  0 
 -5.358618e-02  -4.934401e-02  0 
 -5.021888e-02  -4.939471e-02  0 
 -6.043269e-02  -5.277099e-02  0 
 -5.699132e-02  -5.276757e-02  0 
 -5.356511e-02  -5.277970e-02  0 
 -5.014858e-02  -5.279217e-02  0 
 -6.044997e-02  -5.622221e-02  0 
 -5.698696e-02  -5.621442e-02  0 
 -5.352584e-02  -5.621890e-02  0 
 -5.007174e-02  -5.629119e-02  0 
 -4.699180e-02  -5.659212e-02  0 
 -6.046885e-02  -5.969233e-02  0 
 -5.698914e-02  -5.968213e-02  0 
 -5.349929e-02  -5.966815e-02  0 
 -5.002103e-02  -5.962801e-02  0 
 -4.654556e-02  -5.954468e-02  0 
 -4.269927e-02  -5.954682e-02  0 
 -3.943996e-02  -6.005655e-02  0 
 -3.670652e-02  -6.038354e-02  0 
 -6.048725e-02  -6.317917e-02  0 
 -5.700118e-02  -6.316776e-02  0 
 -5.351374e-02  -6.314123e-02  0 
 -5.000086e-02  -6.309518e-02  0 
 -4.639343e-02  -6.307385e-02  0 
 -4.276789e-02  -6.303308e-02  0 
 -3.952264e-02  -6.294194e-02  0 
 -3.714878e-02  -6.305008e-02  0 
 -3.081389e-02  -5.715066e-02  0 
 -3.421948e-02  -6.170454e-02  0 
 -6.174156e-02  -7.095036e-02  0 
 -5.822521e-02  -7.070874e-02  0 
 -5.473745e-02  -7.043132e-02  0 
 -5.125425e-02  -7.009439e-02  0 
 -4.785868e-02  -6.964726e-02  0 
 -4.469354e-02  -6.899707e-02  0 
 -4.199540e-02  -6.802318e-02  0 
 -4.021126e-02  -6.653195e-02  0 
 -6.306901e-02  -7.486271e-02  0 
 -5.964750e-02  -7.443089e-02  0 
 -5.626777e-02  -7.391089e-02  0 
 -5.286982e-02  -7.320504e-02  0 
 -4.957455e-02  -7.235614e-02  0 
 -4.655884e-02  -7.136366e-02  0 
 -4.410234e-02  -7.006724e-02  0 
 -4.246736e-02  -6.837198e-02  0 
 -6.432664e-02  -7.809830e-02  0 
 -6.111598e-02  -7.767491e-02  0 
 -5.807916e-02  -7.714280e-02  0 
 -5.488045e-02  -7.612435e-02  0 
 -5.142122e-02  -7.491969e-02  0 
 -4.825749e-02  -7.375864e-02  0 
 -4.589917e-02  -7.222193e-02  0 
 -4.396689e-02  -7.057712e-02  0 
 -6.560630e-02  -8.088851e-02  0 
 -6.242917e-02  -8.037085e-02  0 
 -5.982361e-02  -7.976997e-02  0 
 -5.762526e-02  -7.905822e-02  0 
 -5.296496e-02  -7.809127e-02  0 
 -4.986901e-02  -7.618125e-02  0 
 -4.742693e-02  -7.434648e-02  0 
 -4.518727e-02  -7.287812e-02  0 
 -6.683860e-02  -8.379252e-02  0 
 -6.389194e-02  -8.269018e-02  0 
 -6.129630e-02  -8.133903e-02  0 
 -6.128818e-02  -7.926040e-02  0 
 -3.856672e-02  -6.390837e-02  0 
 -3.900656e-02  -6.647816e-02  0 
 -3.984643e-02  -6.926450e-02  0 
 -4.041512e-02  -7.160668e-02  0 
VECTORS displacement_ITER4 FLOAT
 -6.395496e-02  -6.620493e-02  0 
 -3.762695e-02  -6.328178e-02  0 
 -6.398072e-02  -4.481778e-02  0 
 -6.393267e-02  -4.839776e-02  0 
 -6.391741e-02  -5.194472e-02  0 
 -6.391411e-02  -5.549382e-02  0 
 -6.391971e-02  -5.905101e-02  0 
 -6.393468e-02  -6.261886e-02  0 
 -6.513035e-02  -7.064797e-02  0 
 -6.567183e-02  -7.448633e-02  0 
 -6.614648e-02  -7.771698e-02  0 
 -6.686316e-02  -8.047508e-02  0 
 -6.814118e-02  -8.312869e-02  0 
 -3.417082e-02  -5.967275e-02  0 
 -3.542644e-02  -6.221867e-02  0 
 -6.036901e-02  -6.618977e-02  0 
 -5.679926e-02  -6.616062e-02  0 
 -5.323908e-02  -6.611450e-02  0 
 -4.966911e-02  -6.604750e-02  0 
 -4.610906e-02  -6.589624e-02  0 
 -4.269741e-02  -6.554358e-02  0 
 -3.967501e-02  -6.492653e-02  0 
 -3.742206e-02  -6.405676e-02  0 
 -3.901021e-02  -6.279728e-02  0 
 -4.013299e-02  -6.354897e-02  0 
 -4.171844e-02  -6.586251e-02  0 
 -4.246359e-02  -6.865129e-02  0 
 -4.283238e-02  -7.123751e-02  0 
 -6.034623e-02  -4.481871e-02  0 
 -5.678696e-02  -4.480126e-02  0 
 -5.326436e-02  -4.478441e-02  0 
 -4.971777e-02  -4.476025e-02  0 
 -6.037014e-02  -4.839423e-02  0 
 -5.681602e-02  -4.838215e-02  0 
 -5.327543e-02  -4.838087e-02  0 
 -4.975573e-02  -4.840607e-02  0 
 -6.036672e-02  -5.194560e-02  0 
 -5.681451e-02  -5.194950e-02  0 
 -5.327480e-02  -5.197066e-02  0 
 -4.971562e-02  -5.199338e-02  0 
 -6.035729e-02  -5.549417e-02  0 
 -5.679541e-02  -5.549925e-02  0 
 -5.323680e-02  -5.552542e-02  0 
 -4.970907e-02  -5.562433e-02  0 
 -4.650438e-02  -5.588309e-02  0 
 -6.035333e-02  -5.904829e-02  0 
 -5.678040e-02  -5.904577e-02  0 
 -5.320653e-02  -5.904218e-02  0 
 -4.967036e-02  -5.902161e-02  0 
 -4.618023e-02  -5.898713e-02  0 
 -4.253038e-02  -5.906022e-02  0 
 -3.944065e-02  -5.950659e-02  0 
 -3.683221e-02  -5.978574e-02  0 
 -6.035779e-02  -6.261234e-02  0 
 -5.678294e-02  -6.259749e-02  0 
 -5.321610e-02  -6.256111e-02  0 
 -4.965623e-02  -6.250024e-02  0 
 -4.608085e-02  -6.244735e-02  0 
 -4.258990e-02  -6.237182e-02  0 
 -3.951385e-02  -6.226953e-02  0 
 -3.726837e-02  -6.236386e-02  0 
 -3.281827e-02  -6.021278e-02  0 
 -3.523023e-02  -6.154738e-02  0 
 -6.124255e-02  -7.040057e-02  0 
 -5.771199e-02  -7.018498e-02  0 
 -5.423928e-02  -6.990385e-02  0 
 -5.082233e-02  -6.953964e-02  0 
 -4.754342e-02  -6.904416e-02  0 
 -4.453190e-02  -6.832920e-02  0 
 -4.199572e-02  -6.728512e-02  0 
 -4.034550e-02  -6.573383e-02  0 
 -6.218667e-02  -7.423245e-02  0 
 -5.881037e-02  -7.382743e-02  0 
 -5.549647e-02  -7.330214e-02  0 
 -5.223471e-02  -7.260864e-02  0 
 -4.915239e-02  -7.175904e-02  0 
 -4.640593e-02  -7.071486e-02  0 
 -4.419090e-02  -6.933418e-02  0 
 -4.268447e-02  -6.758256e-02  0 
 -6.309067e-02  -7.743480e-02  0 
 -5.999649e-02  -7.699506e-02  0 
 -5.699196e-02  -7.638669e-02  0 
 -5.391471e-02  -7.538793e-02  0 
 -5.083771e-02  -7.420403e-02  0 
 -4.815625e-02  -7.294160e-02  0 
 -4.610496e-02  -7.140350e-02  0 
 -4.431603e-02  -6.979139e-02  0 
 -6.403648e-02  -8.013607e-02  0 
 -6.112159e-02  -7.964596e-02  0 
 -5.849701e-02  -7.900230e-02  0 
 -5.607019e-02  -7.814449e-02  0 
 -5.236776e-02  -7.679951e-02  0 
 -4.980161e-02  -7.499247e-02  0 
 -4.771485e-02  -7.331278e-02  0 
 -4.568955e-02  -7.206419e-02  0 
 -6.498823e-02  -8.269163e-02  0 
 -6.233638e-02  -8.190559e-02  0 
 -5.981664e-02  -8.087861e-02  0 
 -5.862663e-02  -7.951004e-02  0 
 -3.878786e-02  -6.313933e-02  0 
 -3.920675e-02  -6.565671e-02  0 
 -3.995717e-02  -6.853290e-02  0 
 -4.052333e-02  -7.108032e-02  0 
VECTORS displacement_ITER5 FLOAT
 -6.330513e-02  -6.570461e-02  0 
 -3.703616e-02  -6.272482e-02  0 
 -6.337442e-02  -4.409714e-02  0 
 -6.335651e-02  -4.771697e-02  0 
 -6.332938e-02  -5.131815e-02  0 
 -6.330267e-02  -5.491040e-02  0 
 -6.328701e-02  -5.849982e-02  0 
 -6.328944e-02  -6.209392e-02  0 
 -6.437997e-02  -7.005403e-02  0 
 -6.493979e-02  -7.384057e-02  0 
 -6.546226e-02  -7.707851e-02  0 
 -6.615851e-02  -7.984823e-02  0 
 -6.724750e-02  -8.217201e-02  0 
 -3.362706e-02  -5.890106e-02  0 
 -3.487387e-02  -6.156999e-02  0 
 -5.969332e-02  -6.568837e-02  0 
 -5.609732e-02  -6.564790e-02  0 
 -5.252334e-02  -6.557140e-02  0 
 -4.897460e-02  -6.545095e-02  0 
 -4.548452e-02  -6.524145e-02  0 
 -4.216697e-02  -6.486548e-02  0 
 -3.921032e-02  -6.427794e-02  0 
 -3.694441e-02  -6.346562e-02  0 
 -3.824800e-02  -6.220584e-02  0 
 -3.943139e-02  -6.306437e-02  0 
 -4.092143e-02  -6.530165e-02  0 
 -4.165704e-02  -6.795943e-02  0 
 -4.204632e-02  -7.043103e-02  0 
 -5.975926e-02  -4.410447e-02  0 
 -5.615018e-02  -4.409029e-02  0 
 -5.256293e-02  -4.406980e-02  0 
 -4.896084e-02  -4.406020e-02  0 
 -5.975366e-02  -4.772248e-02  0 
 -5.616340e-02  -4.772865e-02  0 
 -5.256929e-02  -4.773627e-02  0 
 -4.897608e-02  -4.776102e-02  0 
 -5.973433e-02  -5.132757e-02  0 
 -5.614410e-02  -5.134711e-02  0 
 -5.256302e-02  -5.138990e-02  0 
 -4.893588e-02  -5.143607e-02  0 
 -5.970806e-02  -5.491878e-02  0 
 -5.610951e-02  -5.493746e-02  0 
 -5.251640e-02  -5.498706e-02  0 
 -4.896233e-02  -5.511055e-02  0 
 -4.571823e-02  -5.535058e-02  0 
 -5.968868e-02  -5.850242e-02  0 
 -5.608192e-02  -5.850738e-02  0 
 -5.248284e-02  -5.851480e-02  0 
 -4.894344e-02  -5.850788e-02  0 
 -4.549136e-02  -5.849846e-02  0 
 -4.199967e-02  -5.857178e-02  0 
 -3.899517e-02  -5.889775e-02  0 
 -3.637156e-02  -5.907729e-02  0 
 -5.968403e-02  -6.208834e-02  0 
 -5.607893e-02  -6.207064e-02  0 
 -5.249287e-02  -6.202639e-02  0 
 -4.894323e-02  -6.195200e-02  0 
 -4.543446e-02  -6.187101e-02  0 
 -4.205861e-02  -6.176445e-02  0 
 -3.906512e-02  -6.164578e-02  0 
 -3.680256e-02  -6.171782e-02  0 
 -3.279495e-02  -6.070642e-02  0 
 -3.466699e-02  -6.100184e-02  0 
 -6.052341e-02  -6.980237e-02  0 
 -5.697618e-02  -6.955733e-02  0 
 -5.350477e-02  -6.924365e-02  0 
 -5.012236e-02  -6.884902e-02  0 
 -4.690389e-02  -6.833033e-02  0 
 -4.395734e-02  -6.760720e-02  0 
 -4.145795e-02  -6.658303e-02  0 
 -3.977817e-02  -6.509668e-02  0 
 -6.145750e-02  -7.356082e-02  0 
 -5.805071e-02  -7.309938e-02  0 
 -5.471068e-02  -7.252015e-02  0 
 -5.147286e-02  -7.181263e-02  0 
 -4.846612e-02  -7.096340e-02  0 
 -4.581582e-02  -6.991118e-02  0 
 -4.364227e-02  -6.853965e-02  0 
 -4.206395e-02  -6.687004e-02  0 
 -6.240191e-02  -7.676368e-02  0 
 -5.927032e-02  -7.623042e-02  0 
 -5.614380e-02  -7.549734e-02  0 
 -5.301790e-02  -7.445718e-02  0 
 -5.009826e-02  -7.326305e-02  0 
 -4.761816e-02  -7.193930e-02  0 
 -4.559404e-02  -7.046251e-02  0 
 -4.370516e-02  -6.895930e-02  0 
 -6.343090e-02  -7.948027e-02  0 
 -6.050352e-02  -7.894752e-02  0 
 -5.768060e-02  -7.818851e-02  0 
 -5.490236e-02  -7.707926e-02  0 
 -5.172427e-02  -7.535534e-02  0 
 -4.932364e-02  -7.368284e-02  0 
 -4.724864e-02  -7.216647e-02  0 
 -4.515750e-02  -7.110193e-02  0 
 -6.447998e-02  -8.200044e-02  0 
 -6.178788e-02  -8.134538e-02  0 
 -5.912449e-02  -8.043546e-02  0 
 -5.671297e-02  -7.963377e-02  0 
 -3.809072e-02  -6.270876e-02  0 
 -3.851997e-02  -6.509746e-02  0 
 -3.924192e-02  -6.783699e-02  0 
 -3.981781e-02  -7.028437e-02  0 
VECTORS displacement_ITER6 FLOAT
 -6.285497e-02  -6.474131e-02  0 
 -3.646678e-02  -6.194324e-02  0 
 -6.283034e-02  -4.343951e-02  0 
 -6.286824e-02  -4.699850e-02  0 
 -6.285727e-02  -5.054909e-02  0 
 -6.283734e-02  -5.409211e-02  0 
 -6.282712e-02  -5.763189e-02  0 
 -6.283475e-02  -6.117708e-02  0 
 -6.420332e-02  -6.920169e-02  0 
 -6.493753e-02  -7.307337e-02  0 
 -6.558982e-02  -7.637969e-02  0 
 -6.638472e-02  -7.919982e-02  0 
 -6.752882e-02  -8.160206e-02  0 
 -3.304057e-02  -5.777321e-02  0 
 -3.431416e-02  -6.060232e-02  0 
 -5.928967e-02  -6.472336e-02  0 
 -5.574139e-02  -6.468291e-02  0 
 -5.221511e-02  -6.460729e-02  0 
 -4.871765e-02  -6.448837e-02  0 
 -4.527133e-02  -6.429537e-02  0 
 -4.195994e-02  -6.396279e-02  0 
 -3.894454e-02  -6.343308e-02  0 
 -3.655497e-02  -6.266246e-02  0 
 -3.747624e-02  -6.136946e-02  0 
 -3.875625e-02  -6.238292e-02  0 
 -4.011165e-02  -6.452414e-02  0 
 -4.081673e-02  -6.706515e-02  0 
 -4.121518e-02  -6.953216e-02  0 
 -5.936160e-02  -4.347403e-02  0 
 -5.584004e-02  -4.347585e-02  0 
 -5.233239e-02  -4.349361e-02  0 
 -4.878089e-02  -4.349448e-02  0 
 -5.933370e-02  -4.700687e-02  0 
 -5.582140e-02  -4.703823e-02  0 
 -5.229973e-02  -4.707691e-02  0 
 -4.876977e-02  -4.714637e-02  0 
 -5.931503e-02  -5.055880e-02  0 
 -5.578282e-02  -5.058518e-02  0 
 -5.225742e-02  -5.063963e-02  0 
 -4.872042e-02  -5.070971e-02  0 
 -5.929301e-02  -5.409926e-02  0 
 -5.574629e-02  -5.411737e-02  0 
 -5.220691e-02  -5.415976e-02  0 
 -4.868809e-02  -5.425059e-02  0 
 -4.539920e-02  -5.444688e-02  0 
 -5.927851e-02  -5.763288e-02  0 
 -5.572314e-02  -5.763545e-02  0 
 -5.217542e-02  -5.763987e-02  0 
 -4.867339e-02  -5.763436e-02  0 
 -4.526160e-02  -5.762429e-02  0 
 -4.182243e-02  -5.763292e-02  0 
 -3.874564e-02  -5.786606e-02  0 
 -3.595772e-02  -5.796574e-02  0 
 -5.927788e-02  -6.117020e-02  0 
 -5.572224e-02  -6.115177e-02  0 
 -5.218402e-02  -6.110954e-02  0 
 -4.868145e-02  -6.103655e-02  0 
 -4.522299e-02  -6.094689e-02  0 
 -4.186668e-02  -6.083550e-02  0 
 -3.881380e-02  -6.071350e-02  0 
 -3.640998e-02  -6.077240e-02  0 
 -3.201144e-02  -5.629782e-02  0 
 -3.395414e-02  -5.923256e-02  0 
 -6.029565e-02  -6.890242e-02  0 
 -5.676502e-02  -6.864836e-02  0 
 -5.332273e-02  -6.833129e-02  0 
 -4.995816e-02  -6.793274e-02  0 
 -4.672289e-02  -6.741579e-02  0 
 -4.370880e-02  -6.670919e-02  0 
 -4.109201e-02  -6.572112e-02  0 
 -3.925975e-02  -6.429617e-02  0 
 -6.140025e-02  -7.275248e-02  0 
 -5.798180e-02  -7.226544e-02  0 
 -5.465840e-02  -7.168403e-02  0 
 -5.142433e-02  -7.098329e-02  0 
 -4.836781e-02  -7.014131e-02  0 
 -4.559274e-02  -6.909442e-02  0 
 -4.322515e-02  -6.772958e-02  0 
 -4.142797e-02  -6.607721e-02  0 
 -6.248456e-02  -7.602958e-02  0 
 -5.933664e-02  -7.546518e-02  0 
 -5.621539e-02  -7.472519e-02  0 
 -5.309621e-02  -7.372619e-02  0 
 -5.012037e-02  -7.258321e-02  0 
 -4.747495e-02  -7.129679e-02  0 
 -4.519208e-02  -6.981694e-02  0 
 -4.301497e-02  -6.823540e-02  0 
 -6.363057e-02  -7.880310e-02  0 
 -6.071288e-02  -7.821853e-02  0 
 -5.787586e-02  -7.743569e-02  0 
 -5.506829e-02  -7.638673e-02  0 
 -5.186581e-02  -7.486209e-02  0 
 -4.927581e-02  -7.333696e-02  0 
 -4.690234e-02  -7.187516e-02  0 
 -4.450686e-02  -7.066851e-02  0 
 -6.481247e-02  -8.130894e-02  0 
 -6.216696e-02  -8.059925e-02  0 
 -5.946988e-02  -7.967839e-02  0 
 -5.704547e-02  -7.879895e-02  0 
 -3.743226e-02  -6.207655e-02  0 
 -3.786846e-02  -6.435415e-02  0 
 -3.841688e-02  -6.695450e-02  0 
 -3.891926e-02  -6.939657e-02  0 
VECTORS displacement_ITER7 FLOAT
 -6.273472e-02  -6.448266e-02  0 
 -3.600103e-02  -6.173395e-02  0 
 -6.271746e-02  -4.303737e-02  0 
 -6.274976e-02  -4.662578e-02  0 
 -6.273609e-02  -5.019640e-02  0 
 -6.271708e-02  -5.375956e-02  0 
 -6.270855e-02  -5.732253e-02  0 
 -6.271634e-02  -6.089331e-02  0 
 -6.389368e-02  -6.888833e-02  0 
 -6.446987e-02  -7.272264e-02  0 
 -6.496099e-02  -7.598327e-02  0 
 -6.556200e-02  -7.871063e-02  0 
 -6.645014e-02  -8.085589e-02  0 
 -3.253332e-02  -5.732608e-02  0 
 -3.382640e-02  -6.027584e-02  0 
 -5.914433e-02  -6.446671e-02  0 
 -5.556824e-02  -6.443014e-02  0 
 -5.201076e-02  -6.435766e-02  0 
 -4.848544e-02  -6.423458e-02  0 
 -4.501932e-02  -6.403350e-02  0 
 -4.168570e-02  -6.370209e-02  0 
 -3.862902e-02  -6.318678e-02  0 
 -3.617021e-02  -6.243388e-02  0 
 -3.682459e-02  -6.114404e-02  0 
 -3.826508e-02  -6.233698e-02  0 
 -3.958365e-02  -6.454143e-02  0 
 -4.032440e-02  -6.714084e-02  0 
 -4.078148e-02  -6.973107e-02  0 
 -5.922100e-02  -4.307981e-02  0 
 -5.569129e-02  -4.310049e-02  0 
 -5.218540e-02  -4.313745e-02  0 
 -4.865747e-02  -4.315650e-02  0 
 -5.919246e-02  -4.663546e-02  0 
 -5.566450e-02  -4.667093e-02  0 
 -5.214100e-02  -4.672053e-02  0 
 -4.861234e-02  -4.680591e-02  0 
 -5.917341e-02  -5.020572e-02  0 
 -5.562165e-02  -5.023119e-02  0 
 -5.207903e-02  -5.028791e-02  0 
 -4.854116e-02  -5.037984e-02  0 
 -5.915090e-02  -5.376599e-02  0 
 -5.558177e-02  -5.378287e-02  0 
 -5.201880e-02  -5.382224e-02  0 
 -4.846928e-02  -5.389892e-02  0 
 -4.504948e-02  -5.403752e-02  0 
 -5.913573e-02  -5.732315e-02  0 
 -5.555586e-02  -5.732518e-02  0 
 -5.198158e-02  -5.732947e-02  0 
 -4.844179e-02  -5.733018e-02  0 
 -4.498363e-02  -5.733164e-02  0 
 -4.154917e-02  -5.732421e-02  0 
 -3.842938e-02  -5.749331e-02  0 
 -3.555550e-02  -5.754454e-02  0 
 -5.913416e-02  -6.088682e-02  0 
 -5.555193e-02  -6.086943e-02  0 
 -5.198273e-02  -6.083040e-02  0 
 -4.844644e-02  -6.076103e-02  0 
 -4.496513e-02  -6.066425e-02  0 
 -4.159391e-02  -6.054054e-02  0 
 -3.850342e-02  -6.041039e-02  0 
 -3.602426e-02  -6.045888e-02  0 
 -3.226261e-02  -5.519259e-02  0 
 -3.368658e-02  -5.847726e-02  0 
 -6.001225e-02  -6.863163e-02  0 
 -5.648241e-02  -6.839982e-02  0 
 -5.303930e-02  -6.810075e-02  0 
 -4.967080e-02  -6.771883e-02  0 
 -4.642248e-02  -6.722069e-02  0 
 -4.338296e-02  -6.653916e-02  0 
 -4.072533e-02  -6.558140e-02  0 
 -3.883381e-02  -6.419077e-02  0 
 -6.097000e-02  -7.244198e-02  0 
 -5.757888e-02  -7.198380e-02  0 
 -5.427583e-02  -7.143653e-02  0 
 -5.105569e-02  -7.078609e-02  0 
 -4.799789e-02  -6.999906e-02  0 
 -4.520661e-02  -6.900101e-02  0 
 -4.280860e-02  -6.768360e-02  0 
 -4.096195e-02  -6.607391e-02  0 
 -6.192421e-02  -7.567104e-02  0 
 -5.882488e-02  -7.512337e-02  0 
 -5.570886e-02  -7.441570e-02  0 
 -5.260213e-02  -7.351709e-02  0 
 -4.965973e-02  -7.248041e-02  0 
 -4.702754e-02  -7.126130e-02  0 
 -4.471198e-02  -6.985057e-02  0 
 -4.252047e-02  -6.832953e-02  0 
 -6.296576e-02  -7.835556e-02  0 
 -6.013406e-02  -7.779943e-02  0 
 -5.724966e-02  -7.706617e-02  0 
 -5.432614e-02  -7.611608e-02  0 
 -5.132352e-02  -7.473644e-02  0 
 -4.874898e-02  -7.337053e-02  0 
 -4.634436e-02  -7.201185e-02  0 
 -4.395205e-02  -7.082250e-02  0 
 -6.409221e-02  -8.064638e-02  0 
 -6.152123e-02  -8.009426e-02  0 
 -5.875632e-02  -7.934592e-02  0 
 -5.600456e-02  -7.862001e-02  0 
 -3.683611e-02  -6.205895e-02  0 
 -3.730119e-02  -6.437352e-02  0 
 -3.780646e-02  -6.701700e-02  0 
 -3.832626e-02  -6.958794e-02  0 
VECTORS displacement_ITER8 FLOAT
 -6.262291e-02  -6.405105e-02  0 
 -3.614301e-02  -6.130914e-02  0 
 -6.267217e-02  -4.271163e-02  0 
 -6.266378e-02  -4.630154e-02  0 
 -6.263630e-02  -4.985288e-02  0 
 -6.261102e-02  -5.339462e-02  0 
 -6.259916e-02  -5.693570e-02  0 
 -6.260544e-02  -6.048431e-02  0 
 -6.372198e-02  -6.838499e-02  0 
 -6.427240e-02  -7.212759e-02  0 
 -6.477093e-02  -7.528486e-02  0 
 -6.542496e-02  -7.791484e-02  0 
 -6.643303e-02  -8.009813e-02  0 
 -3.262134e-02  -5.689943e-02  0 
 -3.393510e-02  -5.986927e-02  0 
 -5.905505e-02  -6.403562e-02  0 
 -5.549947e-02  -6.399954e-02  0 
 -5.196064e-02  -6.392503e-02  0 
 -4.846084e-02  -6.379163e-02  0 
 -4.503477e-02  -6.357689e-02  0 
 -4.174751e-02  -6.324446e-02  0 
 -3.872663e-02  -6.274612e-02  0 
 -3.628265e-02  -6.201076e-02  0 
 -3.707404e-02  -6.067578e-02  0 
 -3.841248e-02  -6.179106e-02  0 
 -3.970372e-02  -6.384115e-02  0 
 -4.044541e-02  -6.626469e-02  0 
 -4.092811e-02  -6.873907e-02  0 
 -5.912465e-02  -4.274931e-02  0 