# vtk DataFile Version 3.1
this is an vtk file created by FEMAC
ASCII
DATASET UNSTRUCTURED_GRID
POINTS 101 FLOAT
2.000000 3.000000 0.000000
1.111111 3.000000 0.000000
1.222222 3.000000 0.000000
1.333333 3.000000 0.000000
1.444444 3.000000 0.000000
1.555556 3.000000 0.000000
1.666667 3.000000 0.000000
1.777778 3.000000 0.000000
1.888889 3.000000 0.000000
2.000000 2.888889 0.000000
2.000000 3.111111 0.000000
2.000000 3.222222 0.000000
2.000000 3.333333 0.000000
1.111111 2.111111 0.000000
1.111111 2.222222 0.000000
1.111111 2.333333 0.000000
1.111111 2.444444 0.000000
1.111111 2.555556 0.000000
1.111111 2.666667 0.000000
1.111111 2.777778 0.000000
1.111111 2.888889 0.000000
1.222222 2.111111 0.000000
1.222222 2.222222 0.000000
1.222222 2.333333 0.000000
1.222222 2.444444 0.000000
1.222222 2.555556 0.000000
1.222222 2.666667 0.000000
1.222222 2.777778 0.000000
1.222222 2.888889 0.000000
1.333333 2.111111 0.000000
1.333333 2.222222 0.000000
1.333333 2.333333 0.000000
1.333333 2.444444 0.000000
1.333333 2.555556 0.000000
1.333333 2.666667 0.000000
1.333333 2.777778 0.000000
1.333333 2.888889 0.000000
1.444444 2.111111 0.000000
1.444444 2.222222 0.000000
1.444444 2.333333 0.000000
1.444444 2.444444 0.000000
1.444444 2.555556 0.000000
1.444444 2.666667 0.000000
1.444444 2.777778 0.000000
1.444444 2.888889 0.000000
1.555556 2.111111 0.000000
1.555556 2.222222 0.000000
1.555556 2.333333 0.000000
1.555556 2.444444 0.000000
1.555556 2.555556 0.000000
1.555556 2.666667 0.000000
1.555556 2.777778 0.000000
1.555556 2.888889 0.000000
1.666667 2.111111 0.000000
1.666667 2.222222 0.000000
1.666667 2.333333 0.000000
1.666667 2.444444 0.000000
1.666667 2.555556 0.000000
1.666667 2.666667 0.000000
1.666667 2.777778 0.000000
1.666667 2.888889 0.000000
1.777778 2.111111 0.000000
1.777778 2.222222 0.000000
1.777778 2.333333 0.000000
1.777778 2.444444 0.000000
1.777778 2.555556 0.000000
1.777778 2.666667 0.000000
1.777778 2.777778 0.000000
1.777778 2.888889 0.000000
1.888889 2.111111 0.000000
1.888889 2.222222 0.000000
1.888889 2.333333 0.000000
1.888889 2.444444 0.000000
1.888889 2.555556 0.000000
1.888889 2.666667 0.000000
1.888889 2.777778 0.000000
1.888889 2.888889 0.000000
1.111111 3.111111 0.000000
1.111111 3.222222 0.000000
1.111111 3.333333 0.000000
1.222222 3.111111 0.000000
1.222222 3.222222 0.000000
1.222222 3.333333 0.000000
1.333333 3.111111 0.000000
1.333333 3.222222 0.000000
1.333333 3.333333 0.000000
1.444444 3.111111 0.000000
1.444444 3.222222 0.000000
1.444444 3.333333 0.000000
1.555556 3.111111 0.000000
1.555556 3.222222 0.000000
1.555556 3.333333 0.000000
1.666667 3.111111 0.000000
1.666667 3.222222 0.000000
1.666667 3.333333 0.000000
1.777778 3.111111 0.000000
1.777778 3.222222 0.000000
1.777778 3.333333 0.000000
1.888889 3.111111 0.000000
1.888889 3.222222 0.000000
1.888889 3.333333 0.000000
CELLS 81 405 
4 13 21 22 14
4 14 22 23 15
4 15 23 24 16
4 16 24 25 17
4 17 25 26 18
4 18 26 27 19
4 19 27 28 20
4 20 28  2  1
4 21 29 30 22
4 22 30 31 23
4 23 31 32 24
4 24 32 33 25
4 25 33 34 26
4 26 34 35 27
4 27 35 36 28
4 28 36  3  2
4 29 37 38 30
4 30 38 39 31
4 31 39 40 32
4 32 40 41 33
4 33 41 42 34
4 34 42 43 35
4 35 43 44 36
4 36 44  4  3
4 37 45 46 38
4 38 46 47 39
4 39 47 48 40
4 40 48 49 41
4 41 49 50 42
4 42 50 51 43
4 43 51 52 44
4 44 52  5  4
4 45 53 54 46
4 46 54 55 47
4 47 55 56 48
4 48 56 57 49
4 49 57 58 50
4 50 58 59 51
4 51 59 60 52
4 52 60  6  5
4 53 61 62 54
4 54 62 63 55
4 55 63 64 56
4 56 64 65 57
4 57 65 66 58
4 58 66 67 59
4 59 67 68 60
4 60 68  7  6
4 61 69 70 62
4 62 70 71 63
4 63 71 72 64
4 64 72 73 65
4 65 73 74 66
4 66 74 75 67
4 67 75 76 68
4 68 76  8  7
4 76  9  0  8
4 1  2 80 77
4 77 80 81 78
4 78 81 82 79
4 2  3 83 80
4 80 83 84 81
4 81 84 85 82
4 3  4 86 83
4 83 86 87 84
4 84 87 88 85
4 4  5 89 86
4 86 89 90 87
4 87 90 91 88
4 5  6 92 89
4 89 92 93 90
4 90 93 94 91
4 6  7 95 92
4 92 95 96 93
4 93 96 97 94
4 7  8 98 95
4 95 98 99 96
4 96  99 100  97
4 8  0 10 98
4 98 10 11 99
4 99  11  12 100
CELL_TYPES 81
9 9 9 9 9 9 9 9 9 9 9 9 9 9 9 9 9 9 9 9 9 9 9 9 9 9 9 9 9 9 9 9 9 9 9 9 9 9 9 9 9 9 9 9 9 9 9 9 9 9 9 9 9 9 9 9 9 9 9 9 9 9 9 9 9 9 9 9 9 9 9 9 9 9 9 9 9 9 9 9 9 
POINT_DATA 101
VECTORS displacement_ITER1 FLOAT
 -5.496818e-03  -3.607663e-02  0 
 -4.326745e-03  -1.275874e-02  0 
 -5.392601e-03  -1.596601e-02  0 
 -6.234713e-03  -1.843795e-02  0 
 -6.886317e-03  -2.116806e-02  0 
 -7.245212e-03  -2.410930e-02  0 
 -7.304062e-03  -2.714002e-02  0 
 -7.102599e-03  -3.015366e-02  0 
 -6.593008e-03  -3.311065e-02  0 
 8.154527e-04  -4.508140e-02  0 
 -4.018039e-03  -3.546870e-02  0 
 -1.887819e-03  -3.536678e-02  0 
 5.961901e-04  -3.571904e-02  0 
 1.520083e-02  -1.467078e-02  0 
 -3.096309e-03  -8.746834e-03  0 
 -1.888477e-03  -3.876719e-03  0 
 -3.708501e-03  -6.003846e-03  0 
 -3.113478e-03  -8.303463e-03  0 
 -2.255767e-03  -1.052031e-02  0 
 -2.100303e-03  -1.281389e-02  0 
 -3.962021e-03  -1.413246e-02  0 
 -1.762321e-04  -6.590774e-03  0 
 -3.633056e-03  -7.551532e-03  0 
 -4.482664e-03  -9.774860e-03  0 
 -3.354219e-03  -1.084855e-02  0 
 -2.917232e-03  -1.281165e-02  0 
 -2.557955e-03  -1.440260e-02  0 
 -2.956776e-03  -1.535343e-02  0 
 -4.210374e-03  -1.584867e-02  0 
 -9.499462e-03  -1.116976e-02  0 
 -5.828166e-03  -1.219224e-02  0 
 -4.795923e-03  -1.424748e-02  0 
 -3.930954e-03  -1.600678e-02  0 
 -3.247117e-03  -1.711315e-02  0 
 -3.204812e-03  -1.794792e-02  0 
 -3.718523e-03  -1.841455e-02  0 
 -4.736928e-03  -1.862496e-02  0 
 -1.316825e-02  -1.897601e-02  0 
 -8.196204e-03  -1.943048e-02  0 
 -5.651867e-03  -2.026433e-02  0 
 -4.594328e-03  -2.102430e-02  0 
 -4.099481e-03  -2.143659e-02  0 
 -3.996685e-03  -2.161389e-02  0 
 -4.384097e-03  -2.168703e-02  0 
 -5.329359e-03  -2.157451e-02  0 
 -1.415717e-02  -2.606483e-02  0 
 -9.378311e-03  -2.702691e-02  0 
 -7.067428e-03  -2.680352e-02  0 
 -5.995092e-03  -2.621676e-02  0 
 -5.317366e-03  -2.576702e-02  0 
 -4.904129e-03  -2.545989e-02  0 
 -4.996506e-03  -2.514151e-02  0 
 -5.768824e-03  -2.470948e-02  0 
 -1.206078e-02  -3.371311e-02  0 
 -9.624383e-03  -3.384849e-02  0 
 -9.067250e-03  -3.254809e-02  0 
 -8.140234e-03  -3.117887e-02  0 
 -6.833439e-03  -3.032507e-02  0 
 -5.840674e-03  -2.963442e-02  0 
 -5.526588e-03  -2.886470e-02  0 
 -6.016570e-03  -2.801820e-02  0 
 -4.976128e-03  -3.651466e-02  0 
 -9.983589e-03  -3.754252e-02  0 
 -1.183630e-02  -3.657689e-02  0 
 -1.041352e-02  -3.616127e-02  0 
 -8.350648e-03  -3.550859e-02  0 
 -6.803371e-03  -3.434829e-02  0 
 -6.058606e-03  -3.293397e-02  0 
 -6.153491e-03  -3.143909e-02  0 
 6.518958e-03  -2.796760e-02  0 
 -1.082122e-02  -3.476151e-02  0 
 -1.397333e-02  -4.052139e-02  0 
 -1.208129e-02  -4.250276e-02  0 
 -9.965351e-03  -4.174596e-02  0 
 -7.956128e-03  -3.981651e-02  0 
 -6.893881e-03  -3.725493e-02  0 
 -6.309621e-03  -3.508645e-02  0 
 -2.622521e-03  -1.399553e-02  0 
 -1.140304e-03  -1.397374e-02  0 
 -1.972237e-04  -1.434304e-02  0 
 -3.094624e-03  -1.566477e-02  0 
 -1.337406e-03  -1.561781e-02  0 
 3.117210e-04  -1.526208e-02  0 
 -3.780694e-03  -1.820913e-02  0 
 -1.557643e-03  -1.799531e-02  0 
 7.861917e-04  -1.793232e-02  0 
 -4.214371e-03  -2.102727e-02  0 
 -1.667460e-03  -2.095169e-02  0 
 8.668655e-04  -2.099391e-02  0 
 -4.417838e-03  -2.406802e-02  0 
 -1.759032e-03  -2.406800e-02  0 
 9.076162e-04  -2.400325e-02  0 
 -4.439172e-03  -2.715602e-02  0 
 -1.776272e-03  -2.719165e-02  0 
 8.398305e-04  -2.735688e-02  0 
 -4.305705e-03  -3.020405e-02  0 
 -1.763084e-03  -3.014461e-02  0 
 4.153197e-04  -2.983214e-02  0 
 -4.044464e-03  -3.313452e-02  0 
 -1.892788e-03  -3.285905e-02  0 
 4.377241e-04  -3.271920e-02  0 
VECTORS displacement_ITER2 FLOAT
 -5.215224e-04  -3.336485e-02  0 
 -2.193284e-03  -1.385916e-02  0 
 -3.175486e-03  -1.668895e-02  0 
 -3.761565e-03  -1.905968e-02  0 
 -4.079272e-03  -2.154453e-02  0 
 -4.105134e-03  -2.406511e-02  0 
 -3.840842e-03  -2.654170e-02  0 
 -3.308779e-03  -2.891594e-02  0 
 -2.404190e-03  -3.116296e-02  0 
 3.054017e-03  -3.691163e-02  0 
 -6.777662e-04  -3.252276e-02  0 
 4.774738e-04  -3.239279e-02  0 
 2.019394e-03  -3.252806e-02  0 
 9.368651e-03  -1.360958e-02  0 
 -4.927872e-03  -7.293948e-03  0 
 -1.561872e-03  -2.796503e-03  0 
 -2.297508e-03  -4.885125e-03  0 
 -9.794346e-04  -7.177597e-03  0 
 3.288331e-04  -9.896939e-03  0 
 5.697309e-04  -1.260330e-02  0 
 -1.189224e-03  -1.467803e-02  0 
 -3.753243e-03  -7.154103e-03  0 
 -5.121155e-03  -7.641749e-03  0 
 -4.357538e-03  -9.214203e-03  0 
 -2.313014e-03  -9.931649e-03  0 
 -1.231875e-03  -1.180147e-02  0 
 -4.617785e-04  -1.350637e-02  0 
 -6.374419e-04  -1.485018e-02  0 
 -1.869717e-03  -1.585224e-02  0 
 -1.102616e-02  -1.139166e-02  0 
 -6.647526e-03  -1.207645e-02  0 
 -4.799544e-03  -1.353250e-02  0 
 -3.241553e-03  -1.478824e-02  0 
 -2.025541e-03  -1.568762e-02  0 
 -1.557242e-03  -1.661074e-02  0 
 -1.752133e-03  -1.742822e-02  0 
 -2.534261e-03  -1.826619e-02  0 
 -1.291669e-02  -1.781665e-02  0 
 -8.211024e-03  -1.803023e-02  0 
 -5.591602e-03  -1.842988e-02  0 
 -4.187458e-03  -1.883964e-02  0 
 -3.242404e-03  -1.915316e-02  0 
 -2.674022e-03  -1.954338e-02  0 
 -2.603769e-03  -2.012650e-02  0 
 -3.069884e-03  -2.082290e-02  0 
 -1.228096e-02  -2.262747e-02  0 
 -8.738495e-03  -2.342100e-02  0 
 -6.860291e-03  -2.304552e-02  0 
 -5.708460e-03  -2.242624e-02  0 
 -4.624496e-03  -2.219091e-02  0 
 -3.677546e-03  -2.238424e-02  0 
 -3.190703e-03  -2.284579e-02  0 
 -3.329583e-03  -2.343775e-02  0 
 -9.301861e-03  -2.695211e-02  0 
 -8.491406e-03  -2.731529e-02  0 
 -8.717910e-03  -2.623635e-02  0 
 -7.776606e-03  -2.532778e-02  0 
 -6.032818e-03  -2.512404e-02  0 
 -4.413680e-03  -2.528536e-02  0 
 -3.438082e-03  -2.562766e-02  0 
 -3.263307e-03  -2.607390e-02  0 
 -1.500645e-03  -2.602841e-02  0 
 -8.740211e-03  -2.738888e-02  0 
 -1.124638e-02  -2.738820e-02  0 
 -9.733571e-03  -2.806517e-02  0 
 -7.183803e-03  -2.850460e-02  0 
 -4.891355e-03  -2.853914e-02  0 
 -3.331527e-03  -2.849834e-02  0 
 -2.850791e-03  -2.864915e-02  0 
 9.977416e-03  -1.148975e-02  0 
 -9.346328e-03  -2.084615e-02  0 
 -1.285354e-02  -2.861941e-02  0 
 -1.091800e-02  -3.217928e-02  0 
 -8.225416e-03  -3.291775e-02  0 
 -5.314578e-03  -3.254320e-02  0 
 -3.262659e-03  -3.154566e-02  0 
 -1.888930e-03  -3.092926e-02  0 
 -7.503541e-04  -1.476826e-02  0 
 8.154609e-04  -1.467618e-02  0 
 2.158975e-03  -1.508346e-02  0 
 -1.025346e-03  -1.649289e-02  0 
 7.373847e-04  -1.654408e-02  0 
 2.457343e-03  -1.635536e-02  0 
 -1.484668e-03  -1.893971e-02  0 
 5.606789e-04  -1.880961e-02  0 
 2.659887e-03  -1.864667e-02  0 
 -1.738937e-03  -2.149824e-02  0 
 4.276015e-04  -2.146034e-02  0 
 2.545846e-03  -2.146074e-02  0 
 -1.762503e-03  -2.411053e-02  0 
 3.810593e-04  -2.415713e-02  0 
 2.457658e-03  -2.412303e-02  0 
 -1.574222e-03  -2.665072e-02  0 
 4.581927e-04  -2.673633e-02  0 
 2.403352e-03  -2.691859e-02  0 
 -1.199941e-03  -2.905353e-02  0 
 5.856126e-04  -2.903504e-02  0 
 2.040549e-03  -2.877006e-02  0 
 -6.956093e-04  -3.126652e-02  0 
 5.157670e-04  -3.087644e-02  0 
 1.912834e-03  -3.068056e-02  0 
VECTORS displacement_ITER3 FLOAT
 1.669576e-03  -3.031940e-02  0 
 -1.446766e-03  -1.066313e-02  0 
 -2.228062e-03  -1.351216e-02  0 
 -2.605147e-03  -1.609964e-02  0 
 -2.711883e-03  -1.870247e-02  0 
 -2.549381e-03  -2.124866e-02  0 
 -2.129309e-03  -2.367708e-02  0 
 -1.475838e-03  -2.596414e-02  0 
 -4.663112e-04  -2.812066e-02  0 
 2.032110e-03  -3.092845e-02  0 
 1.159281e-03  -2.931686e-02  0 
 2.148096e-03  -2.910156e-02  0 
 3.482766e-03  -2.903671e-02  0 
 5.368207e-03  -1.562367e-02  0 
 -5.633444e-03  -1.104992e-02  0 
 -3.347418e-03  -7.477163e-03  0 
 -3.673187e-03  -8.166161e-03  0 
 -2.419996e-03  -9.019474e-03  0 
 -1.044019e-03  -1.036081e-02  0 
 -4.288222e-04  -1.154124e-02  0 
 -1.126016e-03  -1.232978e-02  0 
 -3.997004e-03  -1.052212e-02  0 
 -5.389137e-03  -1.082443e-02  0 
 -5.098676e-03  -1.178644e-02  0 
 -3.612657e-03  -1.191743e-02  0 
 -2.572266e-03  -1.273569e-02  0 
 -1.660402e-03  -1.336934e-02  0 
 -1.363141e-03  -1.371593e-02  0 
 -1.803468e-03  -1.370241e-02  0 
 -9.131113e-03  -1.335226e-02  0 
 -6.247757e-03  -1.381833e-02  0 
 -5.135843e-03  -1.474316e-02  0 
 -4.064711e-03  -1.542232e-02  0 
 -3.046553e-03  -1.572692e-02  0 
 -2.421596e-03  -1.595389e-02  0 
 -2.188158e-03  -1.603572e-02  0 
 -2.298614e-03  -1.608956e-02  0 
 -1.031886e-02  -1.793178e-02  0 
 -7.191922e-03  -1.802579e-02  0 
 -5.493891e-03  -1.819666e-02  0 
 -4.535002e-03  -1.833079e-02  0 
 -3.758160e-03  -1.833334e-02  0 
 -3.112032e-03  -1.832990e-02  0 
 -2.705908e-03  -1.841926e-02  0 
 -2.573739e-03  -1.856221e-02  0 
 -9.679025e-03  -2.130655e-02  0 
 -7.462520e-03  -2.182730e-02  0 
 -6.258542e-03  -2.147447e-02  0 
 -5.458807e-03  -2.090630e-02  0 
 -4.562549e-03  -2.059644e-02  0 
 -3.630458e-03  -2.059201e-02  0 
 -2.917179e-03  -2.077357e-02  0 
 -2.551417e-03  -2.102389e-02  0 
 -7.632923e-03  -2.434563e-02  0 
 -7.208277e-03  -2.457508e-02  0 
 -7.518212e-03  -2.371791e-02  0 
 -6.826761e-03  -2.298161e-02  0 
 -5.377812e-03  -2.278165e-02  0 
 -3.876399e-03  -2.286766e-02  0 
 -2.764642e-03  -2.312720e-02  0 
 -2.193971e-03  -2.344615e-02  0 
 -2.018409e-03  -2.377254e-02  0 
 -7.442280e-03  -2.455253e-02  0 
 -9.354010e-03  -2.442860e-02  0 
 -8.140479e-03  -2.494491e-02  0 
 -6.008639e-03  -2.532166e-02  0 
 -3.885107e-03  -2.542754e-02  0 
 -2.197771e-03  -2.549755e-02  0 
 -1.447554e-03  -2.577225e-02  0 
 6.307757e-03  -1.298016e-02  0 
 -8.159871e-03  -1.948262e-02  0 
 -1.051481e-02  -2.518641e-02  0 
 -8.895515e-03  -2.789498e-02  0 
 -6.536709e-03  -2.867125e-02  0 
 -3.799947e-03  -2.867544e-02  0 
 -1.565519e-03  -2.814871e-02  0 
 -5.254285e-05  -2.758477e-02  0 
 3.842068e-04  -1.118337e-02  0 
 2.357400e-03  -1.112172e-02  0 
 4.198421e-03  -1.144998e-02  0 
 1.649358e-04  -1.337755e-02  0 
 2.260038e-03  -1.340970e-02  0 
 4.276142e-03  -1.319990e-02  0 
 -1.497353e-04  -1.602816e-02  0 
 2.088260e-03  -1.593254e-02  0 
 4.356593e-03  -1.583956e-02  0 
 -2.816954e-04  -1.870073e-02  0 
 1.981965e-03  -1.868855e-02  0 
 4.188894e-03  -1.864736e-02  0 
 -1.986310e-04  -2.132962e-02  0 
 1.958292e-03  -2.138677e-02  0 
 4.015670e-03  -2.136282e-02  0 
 8.334689e-05  -2.381635e-02  0 
 2.065402e-03  -2.390537e-02  0 
 3.918577e-03  -2.402267e-02  0 
 5.524126e-04  -2.612415e-02  0 
 2.233824e-03  -2.611485e-02  0 
 3.623578e-03  -2.589049e-02  0 
 1.152933e-03  -2.824598e-02  0 
 2.213834e-03  -2.779564e-02  0 
 3.415516e-03  -2.755658e-02  0 
VECTORS displacement_ITER4 FLOAT
 2.711749e-03  -2.835682e-02  0 
 -9.133519e-04  -1.084319e-02  0 
 -1.562025e-03  -1.316329e-02  0 
 -1.826226e-03  -1.551330e-02  0 
 -1.848461e-03  -1.784500e-02  0 
 -1.643925e-03  -2.011277e-02  0 
 -1.209055e-03  -2.228114e-02  0 
 -5.466549e-04  -2.434537e-02  0 
 4.836179e-04  -2.631943e-02  0 
 2.101467e-03  -2.843139e-02  0 
 1.930516e-03  -2.732949e-02  0 
 2.744923e-03  -2.707911e-02  0 
 3.830348e-03  -2.685156e-02  0 
 6.394377e-04  -1.116688e-02  0 
 -5.103950e-03  -9.440088e-03  0 
 -2.769961e-03  -7.659344e-03  0 
 -2.747707e-03  -8.716557e-03  0 
 -1.950298e-03  -9.411551e-03  0 
 -1.052584e-03  -1.051430e-02  0 
 -7.162250e-04  -1.121435e-02  0 
 -9.080755e-04  -1.180863e-02  0 
 -5.078610e-03  -1.045887e-02  0 
 -4.767990e-03  -1.075137e-02  0 
 -3.979114e-03  -1.160511e-02  0 
 -2.736149e-03  -1.184074e-02  0 
 -1.981607e-03  -1.255753e-02  0 
 -1.365415e-03  -1.308421e-02  0 
 -1.120541e-03  -1.342810e-02  0 
 -1.288241e-03  -1.345546e-02  0 
 -7.746099e-03  -1.344941e-02  0 
 -5.313078e-03  -1.388108e-02  0 
 -4.085340e-03  -1.446112e-02  0 
 -3.081128e-03  -1.493814e-02  0 
 -2.242930e-03  -1.521705e-02  0 
 -1.741260e-03  -1.547433e-02  0 
 -1.526810e-03  -1.560803e-02  0 
 -1.587672e-03  -1.563015e-02  0 
 -8.054072e-03  -1.712362e-02  0 
 -5.810232e-03  -1.732263e-02  0 
 -4.367960e-03  -1.745236e-02  0 
 -3.399186e-03  -1.756521e-02  0 
 -2.647110e-03  -1.762479e-02  0 
 -2.081162e-03  -1.769004e-02  0 
 -1.759176e-03  -1.778863e-02  0 
 -1.686675e-03  -1.785974e-02  0 
 -7.357536e-03  -1.978586e-02  0 
 -5.929538e-03  -2.025067e-02  0 
 -4.807682e-03  -2.016851e-02  0 
 -3.930191e-03  -1.989651e-02  0 
 -3.069520e-03  -1.974986e-02  0 
 -2.292653e-03  -1.978413e-02  0 
 -1.760249e-03  -1.992180e-02  0 
 -1.541884e-03  -2.006414e-02  0 
 -6.407733e-03  -2.212620e-02  0 
 -5.709406e-03  -2.254148e-02  0 
 -5.477981e-03  -2.221181e-02  0 
 -4.669502e-03  -2.184880e-02  0 
 -3.452295e-03  -2.175968e-02  0 
 -2.281244e-03  -2.182421e-02  0 
 -1.458763e-03  -2.201321e-02  0 
 -1.105890e-03  -2.222169e-02  0 
 -3.321238e-03  -2.285408e-02  0 
 -5.845828e-03  -2.337818e-02  0 
 -6.503664e-03  -2.333019e-02  0 
 -5.341468e-03  -2.369600e-02  0 
 -3.694895e-03  -2.392881e-02  0 
 -2.067476e-03  -2.400302e-02  0 
 -7.701674e-04  -2.407310e-02  0 
 -2.882016e-04  -2.430104e-02  0 
 1.674125e-03  -1.755059e-02  0 
 -6.532602e-03  -2.121743e-02  0 
 -7.118969e-03  -2.453765e-02  0 
 -5.705341e-03  -2.605760e-02  0 
 -3.849396e-03  -2.654074e-02  0 
 -1.711122e-03  -2.664285e-02  0 
 9.114513e-05  -2.641270e-02  0 
 1.163696e-03  -2.593712e-02  0 
 7.932229e-04  -1.090824e-02  0 
 2.685595e-03  -1.088706e-02  0 
 4.486276e-03  -1.118563e-02  0 
 5.950724e-04  -1.308690e-02  0 
 2.562172e-03  -1.310875e-02  0 
 4.368164e-03  -1.294553e-02  0 
 3.879365e-04  -1.547191e-02  0 
 2.403393e-03  -1.540526e-02  0 
 4.375738e-03  -1.536917e-02  0 
 3.219349e-04  -1.785735e-02  0 
 2.326961e-03  -1.784627e-02  0 
 4.243973e-03  -1.774004e-02  0 
 4.466792e-04  -2.019394e-02  0 
 2.345695e-03  -2.023719e-02  0 
 4.116012e-03  -2.023020e-02  0 
 7.619111e-04  -2.242161e-02  0 
 2.509219e-03  -2.250128e-02  0 
 4.121549e-03  -2.256210e-02  0 
 1.275427e-03  -2.451000e-02  0 
 2.740500e-03  -2.452189e-02  0 
 4.025416e-03  -2.439527e-02  0 
 1.923193e-03  -2.645002e-02  0 
 2.807306e-03  -2.600316e-02  0 
 3.786265e-03  -2.579104e-02  0 
VECTORS displacement_ITER5 FLOAT
 2.816721e-03  -2.652160e-02  0 
 -4.925483e-04  -1.149682e-02  0 
 -1.079773e-03  -1.325809e-02  0 
 -1.327092e-03  -1.520071e-02  0 
 -1.377560e-03  -1.713899e-02  0 
 -1.248555e-03  -1.906109e-02  0 
 -9.145338e-04  -2.095787e-02  0 
 -3.418702e-04  -2.282929e-02  0 
 6.358217e-04  -2.466507e-02  0 
 3.353280e-03  -2.776599e-02  0 
 1.951036e-03  -2.558142e-02  0 
 2.683315e-03  -2.537739e-02  0 
 3.683304e-03  -2.519010e-02  0 
 -1.415268e-03  -7.135790e-03  0 
 -2.775031e-03  -7.957853e-03  0 
 -5.930399e-04  -7.722930e-03  0 
 -4.377929e-04  -9.301834e-03  0 
 -1.762806e-04  -1.008024e-02  0 
 -8.538433e-06  -1.101832e-02  0 
 -1.944952e-04  -1.142764e-02  0 
 -5.187939e-04  -1.182208e-02  0 
 -4.278720e-03  -1.059294e-02  0 
 -2.642872e-03  -1.088176e-02  0 
 -1.559777e-03  -1.165256e-02  0 
 -6.570733e-04  -1.200589e-02  0 
 -3.489388e-04  -1.266005e-02  0 
 -2.334069e-04  -1.312249e-02  0 
 -3.512698e-04  -1.345621e-02  0 
 -6.286679e-04  -1.355833e-02  0 
 -5.207721e-03  -1.420938e-02  0 
 -3.266621e-03  -1.448772e-02  0 
 -2.059966e-03  -1.465970e-02  0 
 -1.232427e-03  -1.487505e-02  0 
 -6.979001e-04  -1.506397e-02  0 
 -5.014491e-04  -1.529417e-02  0 
 -5.455997e-04  -1.544065e-02  0 
 -8.339704e-04  -1.542906e-02  0 
 -5.183186e-03  -1.757069e-02  0 
 -3.873177e-03  -1.761680e-02  0 
 -2.720331e-03  -1.750281e-02  0 
 -1.803172e-03  -1.742648e-02  0 
 -1.152268e-03  -1.739685e-02  0 
 -7.793331e-04  -1.740784e-02  0 
 -7.042303e-04  -1.742327e-02  0 
 -9.102795e-04  -1.735678e-02  0 
 -5.182968e-03  -2.007331e-02  0 
 -4.471667e-03  -2.016701e-02  0 
 -3.413029e-03  -2.003334e-02  0 
 -2.427618e-03  -1.978664e-02  0 
 -1.590047e-03  -1.958117e-02  0 
 -9.967119e-04  -1.946392e-02  0 
 -7.335265e-04  -1.939419e-02  0 
 -8.202518e-04  -1.929284e-02  0 
 -6.011211e-03  -2.238756e-02  0 
 -5.053570e-03  -2.251289e-02  0 
 -4.169556e-03  -2.230972e-02  0 
 -3.089880e-03  -2.198285e-02  0 
 -1.978119e-03  -2.170826e-02  0 
 -1.076227e-03  -2.147989e-02  0 
 -5.561669e-04  -2.133977e-02  0 
 -5.039357e-04  -2.121998e-02  0 
 -6.260721e-03  -2.475976e-02  0 
 -5.948585e-03  -2.472112e-02  0 
 -5.131533e-03  -2.439396e-02  0 
 -3.722108e-03  -2.421167e-02  0 
 -2.305579e-03  -2.391954e-02  0 
 -1.040369e-03  -2.357117e-02  0 
 -8.618850e-05  -2.326374e-02  0 
 1.541939e-04  -2.311552e-02  0 
 -5.756933e-03  -2.551501e-02  0 
 -7.384642e-03  -2.611982e-02  0 
 -6.043627e-03  -2.682340e-02  0 
 -4.343538e-03  -2.673394e-02  0 
 -2.629915e-03  -2.632062e-02  0 
 -8.862086e-04  -2.595901e-02  0 
 5.249935e-04  -2.544987e-02  0 
 1.412378e-03  -2.475937e-02  0 
 8.954232e-04  -1.131846e-02  0 
 2.416584e-03  -1.135306e-02  0 
 3.840982e-03  -1.167663e-02  0 
 6.748747e-04  -1.320477e-02  0 
 2.291715e-03  -1.322467e-02  0 
 3.697800e-03  -1.314217e-02  0 
 5.005285e-04  -1.516225e-02  0 
 2.145632e-03  -1.511236e-02  0 
 3.683375e-03  -1.509182e-02  0 
 4.376524e-04  -1.713716e-02  0 
 2.089974e-03  -1.711332e-02  0 
 3.613398e-03  -1.699406e-02  0 
 5.394705e-04  -1.911349e-02  0 
 2.140000e-03  -1.912530e-02  0 
 3.578077e-03  -1.909126e-02  0 
 8.212980e-04  -2.106801e-02  0 
 2.334836e-03  -2.111569e-02  0 
 3.735486e-03  -2.114349e-02  0 
 1.305439e-03  -2.297339e-02  0 
 2.604317e-03  -2.297681e-02  0 
 3.797562e-03  -2.288571e-02  0 
 1.932413e-03  -2.478492e-02  0 
 2.714378e-03  -2.437322e-02  0 
 3.641041e-03  -2.420243e-02  0 
VECTORS displacement_ITER6 FLOAT
 2.134773e-03  -2.607102e-02  0 
 -6.760306e-04  -1.107142e-02  0 
 -1.206840e-03  -1.277246e-02  0 
 -1.470522e-03  -1.459563e-02  0 
 -1.587023e-03  -1.642274e-02  0 
 -1.554678e-03  -1.827708e-02  0 
 -1.328853e-03  -2.016320e-02  0 
 -8.554635e-04  -2.208129e-02  0 
 3.633037e-05  -2.401223e-02  0 
 2.156975e-03  -2.730095e-02  0 
 1.472765e-03  -2.506489e-02  0 
 2.316319e-03  -2.486097e-02  0 
 3.453444e-03  -2.473543e-02  0 
 -2.671909e-03  -8.009379e-03  0 
 -2.744941e-03  -8.720989e-03  0 
 -1.091714e-03  -8.519110e-03  0 
 -9.108381e-04  -9.531187e-03  0 
 -7.055523e-04  -9.842756e-03  0 
 -4.531756e-04  -1.037402e-02  0 
 -4.425562e-04  -1.061938e-02  0 
 -5.146396e-04  -1.104444e-02  0 
 -4.302264e-03  -1.160526e-02  0 
 -2.839594e-03  -1.160270e-02  0 
 -1.924300e-03  -1.192986e-02  0 
 -1.205992e-03  -1.204773e-02  0 
 -8.712362e-04  -1.243923e-02  0 
 -6.252971e-04  -1.273205e-02  0 
 -5.422035e-04  -1.297038e-02  0 
 -6.785752e-04  -1.303392e-02  0 
 -4.513772e-03  -1.440912e-02  0 
 -3.385969e-03  -1.456923e-02  0 
 -2.435743e-03  -1.457520e-02  0 
 -1.670524e-03  -1.468060e-02  0 
 -1.093429e-03  -1.483123e-02  0 
 -7.695429e-04  -1.501643e-02  0 
 -6.817213e-04  -1.509098e-02  0 
 -9.046147e-04  -1.496444e-02  0 
 -4.461156e-03  -1.672506e-02  0 
 -3.856741e-03  -1.692887e-02  0 
 -2.947671e-03  -1.698228e-02  0 
 -2.033348e-03  -1.705599e-02  0 
 -1.314764e-03  -1.714162e-02  0 
 -8.776452e-04  -1.718904e-02  0 
 -7.694757e-04  -1.713408e-02  0 
 -1.002832e-03  -1.689646e-02  0 
 -4.781690e-03  -1.856174e-02  0 
 -4.374843e-03  -1.893674e-02  0 
 -3.343863e-03  -1.920708e-02  0 
 -2.289658e-03  -1.933050e-02  0 
 -1.430357e-03  -1.935067e-02  0 
 -8.847024e-04  -1.929675e-02  0 
 -7.159258e-04  -1.914449e-02  0 
 -9.386840e-04  -1.883195e-02  0 
 -6.165188e-03  -2.065509e-02  0 
 -4.910993e-03  -2.117629e-02  0 
 -3.648305e-03  -2.152789e-02  0 
 -2.448337e-03  -2.161767e-02  0 
 -1.431777e-03  -2.154411e-02  0 
 -7.312936e-04  -2.136292e-02  0 
 -4.511677e-04  -2.112821e-02  0 
 -6.502631e-04  -2.077617e-02  0 
 -7.565681e-03  -2.382046e-02  0 
 -5.604150e-03  -2.409539e-02  0 
 -4.018449e-03  -2.412370e-02  0 
 -2.567599e-03  -2.406639e-02  0 
 -1.372984e-03  -2.381585e-02  0 
 -4.312447e-04  -2.346286e-02  0 
 1.129212e-04  -2.309433e-02  0 
 -2.887513e-05  -2.271863e-02  0 
 -8.390829e-03  -2.761954e-02  0 
 -6.754191e-03  -2.743250e-02  0 
 -4.480509e-03  -2.719597e-02  0 
 -2.771485e-03  -2.672327e-02  0 
 -1.329016e-03  -2.622707e-02  0 
 1.702478e-06  -2.578949e-02  0 
 9.532167e-04  -2.522456e-02  0 
 1.101863e-03  -2.448869e-02  0 
 7.557768e-04  -1.088272e-02  0 
 2.092954e-03  -1.103498e-02  0 
 3.291786e-03  -1.138446e-02  0 
 4.633336e-04  -1.271423e-02  0 
 1.962997e-03  -1.272690e-02  0 
 3.199407e-03  -1.273437e-02  0 
 2.501452e-04  -1.454055e-02  0 
 1.796345e-03  -1.448029e-02  0 
 3.197523e-03  -1.443397e-02  0 
 1.466381e-04  -1.639565e-02  0 
 1.718648e-03  -1.634642e-02  0 
 3.125878e-03  -1.620915e-02  0 
 1.951464e-04  -1.829640e-02  0 
 1.759920e-03  -1.827613e-02  0 
 3.160623e-03  -1.822750e-02  0 
 4.198292e-04  -2.024154e-02  0 
 1.947106e-03  -2.025875e-02  0 
 3.357711e-03  -2.023222e-02  0 
 8.541254e-04  -2.220214e-02  0 
 2.210223e-03  -2.219036e-02  0 
 3.485070e-03  -2.209671e-02  0 
 1.455443e-03  -2.412575e-02  0 
 2.333024e-03  -2.372267e-02  0 
 3.385671e-03  -2.357801e-02  0 
VECTORS displacement_ITER7 FLOAT
 1.886775e-03  -2.678200e-02  0 
 -8.113502e-04  -1.131000e-02  0 
 -1.312511e-03  -1.317720e-02  0 
 -1.581805e-03  -1.505254e-02  0 
 -1.716391e-03  -1.692402e-02  0 
 -1.705583e-03  -1.882020e-02  0 
 -1.504729e-03  -2.074476e-02  0 
 -1.056320e-03  -2.269745e-02  0 
 -1.871436e-04  -2.466134e-02  0 
 2.018612e-03  -2.781651e-02  0 
 1.277228e-03  -2.574635e-02  0 
 2.137828e-03  -2.554965e-02  0 
 3.302874e-03  -2.549411e-02  0 
 -2.089538e-03  -7.688944e-03  0 
 -1.990614e-03  -8.472167e-03  0 
 -7.662602e-04  -8.323531e-03  0 
 -7.493831e-04  -9.216184e-03  0 
 -6.387513e-04  -9.467129e-03  0 
 -4.415153e-04  -9.903236e-03  0 
 -3.589631e-04  -1.027419e-02  0 
 -4.731432e-04  -1.090882e-02  0 
 -3.408486e-03  -1.139465e-02  0 
 -2.241069e-03  -1.138632e-02  0 
 -1.612198e-03  -1.164688e-02  0 
 -1.135958e-03  -1.176567e-02  0 
 -9.277134e-04  -1.214633e-02  0 
 -7.118627e-04  -1.249248e-02  0 
 -6.039761e-04  -1.283772e-02  0 
 -7.380174e-04  -1.309748e-02  0 
 -3.489484e-03  -1.406774e-02  0 
 -2.850842e-03  -1.423761e-02  0 
 -2.226359e-03  -1.423727e-02  0 
 -1.688518e-03  -1.436066e-02  0 
 -1.245619e-03  -1.457265e-02  0 
 -9.629922e-04  -1.485251e-02  0 
 -8.595425e-04  -1.506596e-02  0 
 -1.041423e-03  -1.514051e-02  0 
 -3.495717e-03  -1.615369e-02  0 
 -3.410870e-03  -1.641170e-02  0 
 -2.851998e-03  -1.652423e-02  0 
 -2.169109e-03  -1.666650e-02  0 
 -1.578969e-03  -1.685207e-02  0 
 -1.184821e-03  -1.703255e-02  0 
 -1.052337e-03  -1.714619e-02  0 
 -1.218859e-03  -1.712341e-02  0 
 -4.058141e-03  -1.781292e-02  0 
 -4.076022e-03  -1.824290e-02  0 
 -3.396908e-03  -1.858864e-02  0 
 -2.566541e-03  -1.882823e-02  0 
 -1.830093e-03  -1.899315e-02  0 
 -1.319305e-03  -1.910706e-02  0 
 -1.108131e-03  -1.915365e-02  0 
 -1.230863e-03  -1.908180e-02  0 
 -5.672370e-03  -1.979351e-02  0 
 -4.881433e-03  -2.029251e-02  0 
 -3.895334e-03  -2.073315e-02  0 
 -2.887217e-03  -2.097942e-02  0 
 -1.988364e-03  -2.108897e-02  0 
 -1.313663e-03  -2.112036e-02  0 
 -9.637784e-04  -2.111913e-02  0 
 -1.017205e-03  -2.103776e-02  0 
 -7.659225e-03  -2.278388e-02  0 
 -5.921293e-03  -2.303019e-02  0 
 -4.483375e-03  -2.317580e-02  0 
 -3.202515e-03  -2.326223e-02  0 
 -2.101017e-03  -2.323383e-02  0 
 -1.171309e-03  -2.315354e-02  0 
 -5.460588e-04  -2.308333e-02  0 
 -4.731630e-04  -2.300222e-02  0 
 -9.631723e-03  -2.691296e-02  0 
 -7.415709e-03  -2.641080e-02  0 
 -5.252925e-03  -2.603522e-02  0 
 -3.623929e-03  -2.570792e-02  0 
 -2.224056e-03  -2.548742e-02  0 
 -8.916404e-04  -2.538520e-02  0 
 1.529978e-04  -2.521018e-02  0 
 5.709285e-04  -2.496600e-02  0 
 7.781173e-04  -1.121270e-02  0 
 2.099028e-03  -1.141881e-02  0 
 3.299720e-03  -1.176545e-02  0 
 4.347618e-04  -1.310933e-02  0 
 1.968646e-03  -1.312188e-02  0 
 3.257105e-03  -1.315028e-02  0 
 1.880609e-04  -1.499349e-02  0 
 1.784470e-03  -1.493321e-02  0 
 3.225932e-03  -1.488831e-02  0 
 6.330222e-05  -1.689415e-02  0 
 1.685132e-03  -1.684321e-02  0 
 3.144591e-03  -1.672965e-02  0 
 8.715158e-05  -1.883554e-02  0 
 1.699208e-03  -1.880976e-02  0 
 3.149009e-03  -1.873793e-02  0 
 2.828217e-04  -2.081687e-02  0 
 1.845343e-03  -2.082093e-02  0 
 3.282011e-03  -2.076741e-02  0 
 6.849687e-04  -2.281259e-02  0 
 2.067536e-03  -2.278158e-02  0 
 3.336701e-03  -2.263968e-02  0 
 1.265479e-03  -2.477325e-02  0 
 2.153653e-03  -2.436490e-02  0 
 3.251679e-03  -2.421420e-02  0 
VECTORS displacement_ITER8 FLOAT
 1.813251e-03  -2.748132e-02  0 
 -1.006137e-03  -1.120870e-02  0 
 -1.483381e-03  -1.332521e-02  0 
 -1.741171e-03  -1.535841e-02  0 
 -1.859398e-03  -1.736610e-02  0 
 -1.824190e-03  -1.937097e-02  0 
 -1.599719e-03  -2.136934e-02  0 
 -1.135000e-03  -2.336186e-02  0 
 -2.587579e-04  -2.534102e-02  0 
 2.154686e-03  -2.835017e-02  0 
 1.209605e-03  -2.642342e-02  0 
 2.063917e-03  -2.622912e-02  0 
 3.220472e-03  -2.621455e-02  0 
 -2.977089e-03  -7.149069e-03  0 
 -2.327861e-03  -7.893053e-03  0 
 -1.081028e-03  -7.932218e-03  0 
 -1.005044e-03  -8.842104e-03  0 
 -8.427296e-04  -9.188997e-03  0 
 -6.577807e-04  -9.647806e-03  0 
 -5.350553e-04  -1.011069e-02  0 
 -6.884622e-04  -1.077356e-02  0 
 -4.016853e-03  -1.099615e-02  0 
 -2.664406e-03  -1.104903e-02  0 
 -1.906295e-03  -1.131908e-02  0 
 -1.388710e-03  -1.152252e-02  0 
 -1.149970e-03  -1.196464e-02  0 
 -9.189721e-04  -1.238500e-02  0 
 -8.074770e-04  -1.279434e-02  0 
 -9.432769e-04  -1.313160e-02  0 
 -3.874920e-03  -1.364264e-02  0 
 -3.200308e-03  -1.392890e-02  0 
 -2.502821e-03  -1.401460e-02  0 
 -1.914998e-03  -1.421339e-02  0 
 -1.453268e-03  -1.450711e-02  0 
 -1.161824e-03  -1.486339e-02  0 
 -1.054622e-03  -1.515909e-02  0 
 -1.223477e-03  -1.533254e-02  0 
 -3.689835e-03  -1.562456e-02  0 
 -3.611614e-03  -1.607727e-02  0 
 -3.035225e-03  -1.634909e-02  0 
 -2.343962e-03  -1.660636e-02  0 
 -1.754030e-03  -1.688583e-02  0 
 -1.362924e-03  -1.715405e-02  0 
 -1.227366e-03  -1.735922e-02  0 
 -1.382372e-03  -1.744144e-02  0 
 -4.064152e-03  -1.721019e-02  0 
 -4.060999e-03  -1.788987e-02  0 
 -3.433353e-03  -1.842919e-02  0 
 -2.653333e-03  -1.882113e-02  0 
 -1.958196e-03  -1.910692e-02  0 