# vtk DataFile Version 3.1
this is an vtk file created by FEMAC
ASCII
DATASET UNSTRUCTURED_GRID
POINTS 102 FLOAT
1.000000 5.000000 0.000000
1.000000 6.000000 0.000000
0.777778 5.000000 0.000000
0.888889 5.000000 0.000000
1.000000 4.666667 0.000000
1.000000 4.777778 0.000000
1.000000 4.888889 0.000000
0.888889 6.000000 0.000000
1.000000 5.111111 0.000000
1.000000 5.222222 0.000000
1.000000 5.333333 0.000000
1.000000 5.444444 0.000000
1.000000 5.555556 0.000000
1.000000 5.666667 0.000000
1.000000 5.777778 0.000000
1.000000 5.888889 0.000000
1.111111 5.000000 0.000000
1.222222 5.000000 0.000000
1.333333 5.000000 0.000000
1.444444 5.000000 0.000000
1.555556 5.000000 0.000000
1.111111 6.000000 0.000000
1.222222 6.000000 0.000000
1.333333 6.000000 0.000000
1.444444 6.000000 0.000000
1.555556 6.000000 0.000000
0.666667 4.666667 0.000000
0.666667 4.777778 0.000000
0.666667 4.888889 0.000000
0.777778 4.666667 0.000000
0.777778 4.777778 0.000000
0.777778 4.888889 0.000000
0.888889 4.666667 0.000000
0.888889 4.777778 0.000000
0.888889 4.888889 0.000000
0.777778 5.111111 0.000000
0.777778 5.222222 0.000000
0.777778 5.333333 0.000000
0.777778 5.444444 0.000000
0.888889 5.111111 0.000000
0.888889 5.222222 0.000000
0.888889 5.333333 0.000000
0.888889 5.444444 0.000000
0.888889 5.555556 0.000000
0.888889 5.666667 0.000000
0.888889 5.777778 0.000000
0.888889 5.888889 0.000000
1.111111 4.666667 0.000000
1.111111 4.777778 0.000000
1.111111 4.888889 0.000000
1.222222 4.666667 0.000000
1.222222 4.777778 0.000000
1.222222 4.888889 0.000000
1.333333 4.666667 0.000000
1.333333 4.777778 0.000000
1.333333 4.888889 0.000000
1.444444 4.666667 0.000000
1.444444 4.777778 0.000000
1.444444 4.888889 0.000000
1.555556 4.666667 0.000000
1.555556 4.777778 0.000000
1.555556 4.888889 0.000000
1.111111 5.111111 0.000000
1.111111 5.222222 0.000000
1.111111 5.333333 0.000000
1.111111 5.444444 0.000000
1.111111 5.555556 0.000000
1.111111 5.666667 0.000000
1.111111 5.777778 0.000000
1.111111 5.888889 0.000000
1.222222 5.111111 0.000000
1.222222 5.222222 0.000000
1.222222 5.333333 0.000000
1.222222 5.444444 0.000000
1.222222 5.555556 0.000000
1.222222 5.666667 0.000000
1.222222 5.777778 0.000000
1.222222 5.888889 0.000000
1.333333 5.111111 0.000000
1.333333 5.222222 0.000000
1.333333 5.333333 0.000000
1.333333 5.444444 0.000000
1.333333 5.555556 0.000000
1.333333 5.666667 0.000000
1.333333 5.777778 0.000000
1.333333 5.888889 0.000000
1.444444 5.111111 0.000000
1.444444 5.222222 0.000000
1.444444 5.333333 0.000000
1.444444 5.444444 0.000000
1.444444 5.555556 0.000000
1.444444 5.666667 0.000000
1.444444 5.777778 0.000000
1.444444 5.888889 0.000000
1.555556 5.111111 0.000000
1.555556 5.222222 0.000000
1.555556 5.333333 0.000000
1.555556 5.444444 0.000000
1.555556 5.555556 0.000000
1.555556 5.666667 0.000000
1.555556 5.777778 0.000000
1.555556 5.888889 0.000000
CELLS 81 405 
4 26 29 30 27
4 27 30 31 28
4 29 32 33 30
4 30 33 34 31
4 31 34  3  2
4 32  4  5 33
4 33  5  6 34
4 34  6  0  3
4 2  3 39 35
4 35 39 40 36
4 36 40 41 37
4 37 41 42 38
4 3  0  8 39
4 39  8  9 40
4 40  9 10 41
4 41 10 11 42
4 42 11 12 43
4 43 12 13 44
4 44 13 14 45
4 45 14 15 46
4 46 15  1  7
4 4 47 48  5
4 5 48 49  6
4 6 49 16  0
4 47 50 51 48
4 48 51 52 49
4 49 52 17 16
4 50 53 54 51
4 51 54 55 52
4 52 55 18 17
4 53 56 57 54
4 54 57 58 55
4 55 58 19 18
4 56 59 60 57
4 57 60 61 58
4 58 61 20 19
4 0 16 62  8
4 8 62 63  9
4 9 63 64 10
4 10 64 65 11
4 11 65 66 12
4 12 66 67 13
4 13 67 68 14
4 14 68 69 15
4 15 69 21  1
4 16 17 70 62
4 62 70 71 63
4 63 71 72 64
4 64 72 73 65
4 65 73 74 66
4 66 74 75 67
4 67 75 76 68
4 68 76 77 69
4 69 77 22 21
4 17 18 78 70
4 70 78 79 71
4 71 79 80 72
4 72 80 81 73
4 73 81 82 74
4 74 82 83 75
4 75 83 84 76
4 76 84 85 77
4 77 85 23 22
4 18 19 86 78
4 78 86 87 79
4 79 87 88 80
4 80 88 89 81
4 81 89 90 82
4 82 90 91 83
4 83 91 92 84
4 84 92 93 85
4 85 93 24 23
4 19 20 94 86
4 86 94 95 87
4 87 95 96 88
4 88 96 97 89
4 89 97 98 90
4 90 98 99 91
4 91  99 100  92
4 92 100 101  93
4 93 101  25  24
CELL_TYPES 81
9 9 9 9 9 9 9 9 9 9 9 9 9 9 9 9 9 9 9 9 9 9 9 9 9 9 9 9 9 9 9 9 9 9 9 9 9 9 9 9 9 9 9 9 9 9 9 9 9 9 9 9 9 9 9 9 9 9 9 9 9 9 9 9 9 9 9 9 9 9 9 9 9 9 9 9 9 9 9 9 9 
POINT_DATA 102
VECTORS displacement_ITER1 FLOAT
 1.669855e-02  -1.637507e-02  0 
 6.043824e-02  -2.322603e-02  0 
 1.049126e-02  -7.834616e-03  0 
 1.271938e-02  -1.056603e-02  0 
 4.780267e-03  -1.106296e-02  0 
 6.365894e-03  -1.234412e-02  0 
 9.284718e-03  -1.420581e-02  0 
 5.120614e-02  -2.360303e-02  0 
 2.694017e-02  -1.846827e-02  0 
 3.274493e-02  -2.018327e-02  0 
 3.742752e-02  -2.129169e-02  0 
 4.161951e-02  -2.204041e-02  0 
 4.557645e-02  -2.254332e-02  0 
 4.940134e-02  -2.286295e-02  0 
 5.313176e-02  -2.306967e-02  0 
 5.680412e-02  -2.317236e-02  0 
 2.065815e-02  -2.502305e-02  0 
 2.306602e-02  -3.030718e-02  0 
 2.471073e-02  -3.478603e-02  0 
 2.616229e-02  -3.886201e-02  0 
 2.790511e-02  -4.220464e-02  0 
 6.051644e-02  -2.688165e-02  0 
 6.053090e-02  -3.058822e-02  0 
 6.046943e-02  -3.428721e-02  0 
 6.040056e-02  -3.796713e-02  0 
 6.050423e-02  -4.203551e-02  0 
 5.156505e-03  -7.301137e-03  0 
 5.703931e-03  -6.775346e-03  0 
 6.765546e-03  -6.954677e-03  0 
 4.773350e-03  -8.125991e-03  0 
 6.072869e-03  -7.977733e-03  0 
 7.869019e-03  -7.795190e-03  0 
 4.478625e-03  -9.654897e-03  0 
 6.119140e-03  -9.973301e-03  0 
 8.880734e-03  -1.013594e-02  0 
 1.527906e-02  -6.451032e-03  0 
 2.261107e-02  -9.366503e-03  0 
 2.739209e-02  -1.550259e-02  0 
 2.046600e-02  -2.297024e-02  0 
 2.051824e-02  -1.280937e-02  0 
 2.773648e-02  -1.536576e-02  0 
 3.195967e-02  -1.666554e-02  0 
 3.332616e-02  -1.757442e-02  0 
 4.204189e-02  -1.744287e-02  0 
 4.574693e-02  -1.878685e-02  0 
 4.980839e-02  -1.984720e-02  0 
 5.372060e-02  -2.128082e-02  0 
 6.216607e-03  -1.701113e-02  0 
 1.067626e-02  -1.925673e-02  0 
 1.511963e-02  -2.214306e-02  0 
 9.814973e-03  -2.501366e-02  0 
 1.507928e-02  -2.706961e-02  0 
 1.968171e-02  -2.927925e-02  0 
 1.373555e-02  -3.284532e-02  0 
 1.969608e-02  -3.510484e-02  0 
 2.306008e-02  -3.551817e-02  0 
 2.006151e-02  -4.373533e-02  0 
 2.334057e-02  -4.244463e-02  0 
 2.603347e-02  -4.131239e-02  0 
 2.928235e-02  -4.378668e-02  0 
 2.675165e-02  -5.116276e-02  0 
 2.812679e-02  -4.669715e-02  0 
 2.727230e-02  -2.537518e-02  0 
 3.301452e-02  -2.546098e-02  0 
 3.765309e-02  -2.582287e-02  0 
 4.180510e-02  -2.618610e-02  0 
 4.571100e-02  -2.647799e-02  0 
 4.948792e-02  -2.668222e-02  0 
 5.318814e-02  -2.680229e-02  0 
 5.684866e-02  -2.685993e-02  0 
 2.806738e-02  -3.061841e-02  0 
 3.311338e-02  -3.052427e-02  0 
 3.771673e-02  -3.039685e-02  0 
 4.187492e-02  -3.041365e-02  0 
 4.577498e-02  -3.049524e-02  0 
 4.952716e-02  -3.056788e-02  0 
 5.320335e-02  -3.059817e-02  0 
 5.685409e-02  -3.059683e-02  0 
 2.901568e-02  -3.504406e-02  0 
 3.340908e-02  -3.497270e-02  0 
 3.775711e-02  -3.474079e-02  0 
 4.189825e-02  -3.458144e-02  0 
 4.579515e-02  -3.451652e-02  0 
 4.951560e-02  -3.447725e-02  0 
 5.314971e-02  -3.441227e-02  0 
 5.679416e-02  -3.433266e-02  0 
 2.986839e-02  -3.907666e-02  0 
 3.374962e-02  -3.899295e-02  0 
 3.788760e-02  -3.879960e-02  0 
 4.199056e-02  -3.858824e-02  0 
 4.584130e-02  -3.846525e-02  0 
 4.946087e-02  -3.832274e-02  0 
 5.300663e-02  -3.817969e-02  0 
 5.663086e-02  -3.805959e-02  0 
 3.049403e-02  -4.257920e-02  0 
 3.411122e-02  -4.284208e-02  0 
 3.801782e-02  -4.277364e-02  0 
 4.219780e-02  -4.250644e-02  0 
 4.600692e-02  -4.217743e-02  0 
 4.931034e-02  -4.198372e-02  0 
 5.282094e-02  -4.178753e-02  0 
 5.636281e-02  -4.175770e-02  0 
VECTORS displacement_ITER2 FLOAT
 1.664678e-02  -1.615646e-02  0 
 5.668240e-02  -2.232853e-02  0 
 1.132406e-02  -6.357934e-03  0 
 1.312705e-02  -1.003940e-02  0 
 2.913561e-03  -1.130533e-02  0 
 5.376211e-03  -1.255707e-02  0 
 9.015470e-03  -1.426394e-02  0 
 4.440026e-02  -2.559058e-02  0 
 2.590972e-02  -1.795948e-02  0 
 3.122775e-02  -1.946606e-02  0 
 3.554945e-02  -2.045279e-02  0 
 3.943024e-02  -2.113271e-02  0 
 4.308845e-02  -2.160469e-02  0 
 4.661175e-02  -2.191971e-02  0 
 5.003744e-02  -2.213407e-02  0 
 5.339382e-02  -2.225466e-02  0 
 2.018595e-02  -2.391955e-02  0 
 2.232662e-02  -2.871879e-02  0 
 2.377765e-02  -3.279712e-02  0 
 2.502093e-02  -3.654175e-02  0 
 2.644370e-02  -3.978306e-02  0 
 5.680351e-02  -2.564370e-02  0 
 5.685774e-02  -2.904134e-02  0 
 5.682262e-02  -3.244171e-02  0 
 5.673073e-02  -3.579448e-02  0 
 5.669639e-02  -3.919813e-02  0 
 3.406793e-03  -5.294469e-03  0 
 4.854032e-03  -4.899760e-03  0 
 6.411881e-03  -5.100050e-03  0 
 3.107956e-03  -6.984204e-03  0 
 5.132077e-03  -6.764753e-03  0 
 7.632718e-03  -6.489874e-03  0 
 2.792756e-03  -9.234115e-03  0 
 5.133440e-03  -9.447870e-03  0 
 8.624918e-03  -9.616701e-03  0 
 1.695023e-02  -7.952580e-03  0 
 2.331460e-02  -1.186651e-02  0 
 2.707001e-02  -1.740798e-02  0 
 2.138481e-02  -2.359295e-02  0 
 2.113724e-02  -1.299537e-02  0 
 2.744757e-02  -1.573175e-02  0 
 3.101115e-02  -1.715992e-02  0 
 3.223216e-02  -1.797501e-02  0 
 3.927268e-02  -1.799426e-02  0 
 4.250433e-02  -1.907816e-02  0 
 4.581785e-02  -2.003074e-02  0 
 4.898142e-02  -2.185673e-02  0 
 5.892732e-03  -1.698595e-02  0 
 9.805931e-03  -1.893179e-02  0 
 1.419332e-02  -2.134493e-02  0 
 1.075693e-02  -2.268277e-02  0 
 1.401730e-02  -2.490653e-02  0 
 1.795809e-02  -2.712551e-02  0 
 1.572934e-02  -2.661065e-02  0 
 1.810739e-02  -2.953424e-02  0 
 2.056696e-02  -3.147722e-02  0 
 2.165144e-02  -3.011425e-02  0 
 2.168059e-02  -3.213508e-02  0 
 2.277925e-02  -3.451615e-02  0 
 2.796815e-02  -2.763951e-02  0 
 2.490758e-02  -3.290643e-02  0 
 2.533897e-02  -3.574157e-02  0 
 2.619266e-02  -2.423601e-02  0 
 3.145794e-02  -2.430592e-02  0 
 3.574763e-02  -2.462941e-02  0 
 3.960048e-02  -2.495915e-02  0 
 4.322021e-02  -2.522874e-02  0 
 4.670586e-02  -2.542478e-02  0 
 5.010575e-02  -2.554833e-02  0 
 5.345582e-02  -2.561282e-02  0 
 2.690392e-02  -2.900964e-02  0 
 3.154438e-02  -2.894690e-02  0 
 3.580451e-02  -2.884738e-02  0 
 3.966528e-02  -2.886305e-02  0 
 4.328475e-02  -2.892750e-02  0 
 4.675595e-02  -2.898872e-02  0 
 5.013907e-02  -2.902458e-02  0 
 5.348576e-02  -2.903736e-02  0 
 2.775631e-02  -3.305914e-02  0 
 3.182824e-02  -3.304714e-02  0 
 3.584839e-02  -3.287507e-02  0 
 3.967842e-02  -3.272479e-02  0 
 4.329670e-02  -3.263486e-02  0 
 4.675928e-02  -3.257259e-02  0 
 5.012698e-02  -3.251569e-02  0 
 5.346527e-02  -3.246973e-02  0 
 2.855114e-02  -3.678442e-02  0 
 3.219439e-02  -3.678906e-02  0 
 3.598001e-02  -3.665405e-02  0 
 3.972547e-02  -3.645662e-02  0 
 4.330006e-02  -3.628979e-02  0 
 4.671603e-02  -3.611711e-02  0 
 5.005664e-02  -3.596467e-02  0 
 5.338134e-02  -3.585778e-02  0 
 2.920775e-02  -4.016158e-02  0 
 3.260276e-02  -4.036126e-02  0 
 3.613119e-02  -4.031481e-02  0 
 3.984280e-02  -4.008785e-02  0 
 4.334586e-02  -3.978821e-02  0 
 4.660281e-02  -3.956546e-02  0 
 4.992124e-02  -3.931114e-02  0 
 5.323990e-02  -3.916078e-02  0 
VECTORS displacement_ITER3 FLOAT
 1.576742e-02  -1.458402e-02  0 
 5.475578e-02  -2.069943e-02  0 
 1.055683e-02  -5.292625e-03  0 
 1.237496e-02  -8.676353e-03  0 
 2.786936e-03  -9.853567e-03  0 
 5.077544e-03  -1.101887e-02  0 
 8.489072e-03  -1.268253e-02  0 
 4.207483e-02  -2.459921e-02  0 
 2.475544e-02  -1.640376e-02  0 
 2.992467e-02  -1.789319e-02  0 
 3.413154e-02  -1.886512e-02  0 
 3.791329e-02  -1.953031e-02  0 
 4.148072e-02  -1.998880e-02  0 
 4.492069e-02  -2.029444e-02  0 
 4.827061e-02  -2.050184e-02  0 
 5.155116e-02  -2.062206e-02  0 
 1.916256e-02  -2.221387e-02  0 
 2.122675e-02  -2.691900e-02  0 
 2.261829e-02  -3.091686e-02  0 
 2.379210e-02  -3.459448e-02  0 
 2.510042e-02  -3.783278e-02  0 
 5.488715e-02  -2.393042e-02  0 
 5.495791e-02  -2.725279e-02  0 
 5.495046e-02  -3.059116e-02  0 
 5.489867e-02  -3.390897e-02  0 
 5.490141e-02  -3.734527e-02  0 
 3.082545e-03  -4.048189e-03  0 
 4.503592e-03  -3.729538e-03  0 
 6.081631e-03  -3.913740e-03  0 
 2.835860e-03  -5.669496e-03  0 
 4.791539e-03  -5.524551e-03  0 
 7.200584e-03  -5.329875e-03  0 
 2.596465e-03  -7.791355e-03  0 
 4.831521e-03  -8.090117e-03  0 
 8.117010e-03  -8.275256e-03  0 
 1.596464e-02  -7.099702e-03  0 
 2.203617e-02  -1.085602e-02  0 
 2.575327e-02  -1.588381e-02  0 
 2.166696e-02  -2.114736e-02  0 
 2.008438e-02  -1.167141e-02  0 
 2.613682e-02  -1.437487e-02  0 
 2.972832e-02  -1.582969e-02  0 
 3.136752e-02  -1.664344e-02  0 
 3.758338e-02  -1.683882e-02  0 
 4.074026e-02  -1.781620e-02  0 
 4.394721e-02  -1.881622e-02  0 
 4.697145e-02  -2.072826e-02  0 
 4.949757e-03  -1.603195e-02  0 
 9.194847e-03  -1.757344e-02  0 
 1.354673e-02  -1.981539e-02  0 
 9.197924e-03  -2.222035e-02  0 
 1.310672e-02  -2.400003e-02  0 
 1.719441e-02  -2.575767e-02  0 
 1.386752e-02  -2.708581e-02  0 
 1.693801e-02  -2.926911e-02  0 
 1.969743e-02  -3.041082e-02  0 
 1.965889e-02  -3.153147e-02  0 
 2.018870e-02  -3.281919e-02  0 
 2.180183e-02  -3.401096e-02  0 
 2.512151e-02  -3.085628e-02  0 
 2.330448e-02  -3.524143e-02  0 
 2.384164e-02  -3.653495e-02  0 
 2.503267e-02  -2.251835e-02  0 
 3.015156e-02  -2.260469e-02  0 
 3.432540e-02  -2.293251e-02  0 
 3.807788e-02  -2.326082e-02  0 
 4.160790e-02  -2.352611e-02  0 
 4.501252e-02  -2.371687e-02  0 
 4.833820e-02  -2.383598e-02  0 
 5.161598e-02  -2.389809e-02  0 
 2.570413e-02  -2.719471e-02  0 
 3.023230e-02  -2.713404e-02  0 
 3.438113e-02  -2.704681e-02  0 
 3.814063e-02  -2.707090e-02  0 
 4.166818e-02  -2.713877e-02  0 
 4.505775e-02  -2.719970e-02  0 
 4.836974e-02  -2.723334e-02  0 
 5.165193e-02  -2.724522e-02  0 
 2.651611e-02  -3.115916e-02  0 
 3.050091e-02  -3.114405e-02  0 
 3.442343e-02  -3.098082e-02  0 
 3.815222e-02  -3.084170e-02  0 
 4.167494e-02  -3.076042e-02  0 
 4.505413e-02  -3.070524e-02  0 
 4.835418e-02  -3.065440e-02  0 
 5.164038e-02  -3.061216e-02  0 
 2.727291e-02  -3.481222e-02  0 
 3.085377e-02  -3.480620e-02  0 
 3.455228e-02  -3.467155e-02  0 
 3.819496e-02  -3.448141e-02  0 
 4.167094e-02  -3.432639e-02  0 
 4.500556e-02  -3.417403e-02  0 
 4.828279e-02  -3.404601e-02  0 
 5.156549e-02  -3.396121e-02  0 
 2.789850e-02  -3.814053e-02  0 
 3.124552e-02  -3.830917e-02  0 
 3.470221e-02  -3.823422e-02  0 
 3.830060e-02  -3.800241e-02  0 
 4.171206e-02  -3.773114e-02  0 
 4.489248e-02  -3.754654e-02  0 
 4.816268e-02  -3.734856e-02  0 
 5.143982e-02  -3.725369e-02  0 
VECTORS displacement_ITER4 FLOAT
 1.510650e-02  -1.460757e-02  0 
 5.195928e-02  -2.044565e-02  0 
 9.876367e-03  -6.659708e-03  0 
 1.178266e-02  -9.322335e-03  0 
 3.885041e-03  -1.019840e-02  0 
 5.647796e-03  -1.122378e-02  0 
 8.491929e-03  -1.278220e-02  0 
 4.217355e-02  -2.276477e-02  0 
 2.370631e-02  -1.637251e-02  0 
 2.859731e-02  -1.781700e-02  0 
 3.255863e-02  -1.875552e-02  0 
 3.610879e-02  -1.938856e-02  0 
 3.945182e-02  -1.981679e-02  0 
 4.267706e-02  -2.009642e-02  0 
 4.582708e-02  -2.027843e-02  0 
 4.892305e-02  -2.038151e-02  0 
 1.841420e-02  -2.188380e-02  0 
 2.043076e-02  -2.632346e-02  0 
 2.179578e-02  -3.007627e-02  0 
 2.294371e-02  -3.351774e-02  0 
 2.420152e-02  -3.656418e-02  0 
 5.206492e-02  -2.350014e-02  0 
 5.212294e-02  -2.662937e-02  0 
 5.211841e-02  -2.977623e-02  0 
 5.208267e-02  -3.291878e-02  0 
 5.209897e-02  -3.622215e-02  0 
 3.957623e-03  -5.526703e-03  0 
 5.047585e-03  -5.227445e-03  0 
 6.429080e-03  -5.321680e-03  0 
 3.761139e-03  -6.786978e-03  0 
 5.354606e-03  -6.696813e-03  0 
 7.331315e-03  -6.576149e-03  0 
 3.636463e-03  -8.513477e-03  0 
 5.422637e-03  -8.824857e-03  0 
 8.157962e-03  -8.963002e-03  0 
 1.445983e-02  -7.481204e-03  0 
 2.011445e-02  -1.019582e-02  0 
 2.409288e-02  -1.391505e-02  0 
 2.287299e-02  -1.747934e-02  0 
 1.867069e-02  -1.178094e-02  0 
 2.436548e-02  -1.409788e-02  0 
 2.814651e-02  -1.541537e-02  0 
 3.044915e-02  -1.628542e-02  0 
 3.566471e-02  -1.673551e-02  0 
 3.872109e-02  -1.758318e-02  0 
 4.186337e-02  -1.846972e-02  0 
 4.489273e-02  -1.996159e-02  0 
 5.658807e-03  -1.516793e-02  0 
 9.290592e-03  -1.699063e-02  0 
 1.324226e-02  -1.936794e-02  0 
 9.039899e-03  -2.100661e-02  0 
 1.295706e-02  -2.300361e-02  0 
 1.681323e-02  -2.501213e-02  0 
 1.297538e-02  -2.625803e-02  0 
 1.654896e-02  -2.842919e-02  0 
 1.937172e-02  -2.963887e-02  0 
 1.805378e-02  -3.158915e-02  0 
 1.966918e-02  -3.272726e-02  0 
 2.156534e-02  -3.355655e-02  0 
 2.256592e-02  -3.339378e-02  0 
 2.279182e-02  -3.670941e-02  0 
 2.348792e-02  -3.661603e-02  0 
 2.398242e-02  -2.218332e-02  0 
 2.882218e-02  -2.226749e-02  0 
 3.274503e-02  -2.258229e-02  0 
 3.626153e-02  -2.289279e-02  0 
 3.956745e-02  -2.313892e-02  0 
 4.275985e-02  -2.331229e-02  0 
 4.588689e-02  -2.341861e-02  0 
 4.897785e-02  -2.347295e-02  0 
 2.464465e-02  -2.659555e-02  0 
 2.890585e-02  -2.653917e-02  0 
 3.279907e-02  -2.645407e-02  0 
 3.631731e-02  -2.647362e-02  0 
 3.961766e-02  -2.653346e-02  0 
 4.279529e-02  -2.658665e-02  0 
 4.591049e-02  -2.661484e-02  0 
 4.900566e-02  -2.662367e-02  0 
 2.544472e-02  -3.031385e-02  0 
 2.917497e-02  -3.030316e-02  0 
 3.284156e-02  -3.014704e-02  0 
 3.632298e-02  -3.001190e-02  0 
 3.961409e-02  -2.993266e-02  0 
 4.278071e-02  -2.988110e-02  0 
 4.588569e-02  -2.983505e-02  0 
 4.898935e-02  -2.979513e-02  0 
 2.619333e-02  -3.372872e-02  0 
 2.952925e-02  -3.372236e-02  0 
 3.296880e-02  -3.359433e-02  0 
 3.635582e-02  -3.341255e-02  0 
 3.959867e-02  -3.327060e-02  0 
 4.272373e-02  -3.313925e-02  0 
 4.580833e-02  -3.303286e-02  0 
 4.891256e-02  -3.296486e-02  0 
 2.681611e-02  -3.682525e-02  0 
 2.991887e-02  -3.697920e-02  0 
 3.311635e-02  -3.689029e-02  0 
 3.644462e-02  -3.667948e-02  0 
 3.963241e-02  -3.644797e-02  0 
 4.261074e-02  -3.630402e-02  0 
 4.569426e-02  -3.615407e-02  0 
 4.879256e-02  -3.609692e-02  0 
VECTORS displacement_ITER5 FLOAT
 1.493605e-02  -1.488553e-02  0 
 5.071971e-02  -2.056432e-02  0 
 9.726089e-03  -7.251878e-03  0 
 1.163981e-02  -9.765301e-03  0 
 4.024820e-03  -1.062845e-02  0 
 5.716804e-03  -1.161695e-02  0 
 8.464578e-03  -1.312649e-02  0 
 4.170361e-02  -2.247279e-02  0 
 2.334865e-02  -1.659201e-02  0 
 2.810591e-02  -1.800216e-02  0 
 3.195256e-02  -1.891953e-02  0 
 3.539542e-02  -1.953655e-02  0 
 3.863075e-02  -1.995416e-02  0 
 4.174666e-02  -2.022842e-02  0 
 4.479014e-02  -2.040437e-02  0 
 4.778273e-02  -2.050309e-02  0 
 1.821723e-02  -2.195003e-02  0 
 2.021764e-02  -2.623884e-02  0 
 2.157427e-02  -2.984811e-02  0 
 2.270078e-02  -3.315447e-02  0 
 2.388783e-02  -3.612959e-02  0 
 5.081981e-02  -2.351714e-02  0 
 5.087601e-02  -2.654201e-02  0 
 5.087034e-02  -2.958498e-02  0 
 5.082253e-02  -3.261709e-02  0 
 5.079540e-02  -3.572127e-02  0 
 3.989356e-03  -6.073831e-03  0 
 5.108915e-03  -5.795551e-03  0 
 6.498458e-03  -5.859899e-03  0 
 3.844125e-03  -7.322289e-03  0 
 5.419110e-03  -7.245892e-03  0 
 7.351515e-03  -7.140755e-03  0 
 3.784350e-03  -9.009700e-03  0 
 5.495831e-03  -9.308873e-03  0 
 8.146555e-03  -9.422953e-03  0 
 1.363699e-02  -7.911428e-03  0 
 1.896200e-02  -1.018605e-02  0 
 2.307968e-02  -1.319755e-02  0 
 2.370086e-02  -1.578152e-02  0 
 1.808411e-02  -1.197440e-02  0 
 2.350259e-02  -1.417636e-02  0 
 2.740376e-02  -1.548204e-02  0 
 3.029321e-02  -1.635409e-02  0 
 3.478271e-02  -1.704985e-02  0 
 3.783916e-02  -1.786329e-02  0 
 4.091706e-02  -1.873581e-02  0 
 4.389783e-02  -2.013238e-02  0 
 6.432669e-03  -1.488859e-02  0 
 9.416061e-03  -1.697095e-02  0 
 1.312138e-02  -1.940114e-02  0 
 9.923770e-03  -2.008648e-02  0 
 1.319537e-02  -2.242082e-02  0 
 1.663403e-02  -2.467564e-02  0 
 1.402019e-02  -2.477044e-02  0 
 1.673478e-02  -2.720473e-02  0 
 1.914279e-02  -2.888322e-02  0 
 1.883459e-02  -2.893782e-02  0 
 1.985101e-02  -3.071218e-02  0 
 2.124712e-02  -3.229043e-02  0 
 2.224948e-02  -3.097945e-02  0 
 2.298223e-02  -3.336483e-02  0 
 2.327914e-02  -3.451333e-02  0 
 2.362319e-02  -2.224882e-02  0 
 2.832886e-02  -2.232612e-02  0 
 3.213509e-02  -2.263143e-02  0 
 3.554285e-02  -2.293186e-02  0 
 3.874219e-02  -2.316849e-02  0 
 4.182740e-02  -2.333500e-02  0 
 4.484809e-02  -2.343788e-02  0 
 4.783549e-02  -2.349078e-02  0 
 2.428896e-02  -2.651490e-02  0 
 2.841606e-02  -2.646743e-02  0 
 3.218896e-02  -2.638624e-02  0 
 3.559523e-02  -2.640157e-02  0 
 3.878790e-02  -2.645222e-02  0 
 4.186031e-02  -2.649805e-02  0 
 4.487108e-02  -2.652479e-02  0 
 4.786243e-02  -2.653542e-02  0 
 2.509174e-02  -3.009574e-02  0 
 2.869552e-02  -3.010614e-02  0 
 3.223507e-02  -2.996632e-02  0 
 3.559463e-02  -2.982967e-02  0 
 3.877560e-02  -2.973895e-02  0 
 4.184256e-02  -2.967804e-02  0 
 4.485041e-02  -2.963274e-02  0 
 4.784919e-02  -2.960082e-02  0 
 2.585359e-02  -3.338090e-02  0 
 2.907645e-02  -3.340794e-02  0 
 3.236800e-02  -3.330028e-02  0 
 3.560986e-02  -3.312159e-02  0 
 3.873991e-02  -3.296553e-02  0 
 4.178076e-02  -3.282628e-02  0 
 4.478559e-02  -3.271968e-02  0 
 4.778713e-02  -3.265647e-02  0 
 2.651852e-02  -3.639408e-02  0 
 2.950199e-02  -3.653497e-02  0 
 3.252944e-02  -3.645679e-02  0 
 3.566705e-02  -3.626689e-02  0 
 3.873077e-02  -3.605146e-02  0 
 4.167117e-02  -3.590497e-02  0 
 4.468226e-02  -3.574804e-02  0 
 4.769412e-02  -3.566259e-02  0 
VECTORS displacement_ITER6 FLOAT
 1.470342e-02  -1.395218e-02  0 
 4.983572e-02  -1.978233e-02  0 
 9.323600e-03  -6.351169e-03  0 
 1.132620e-02  -8.764539e-03  0 
 3.747657e-03  -9.499030e-03  0 
 5.404412e-03  -1.057542e-02  0 
 8.147525e-03  -1.213875e-02  0 
 4.062035e-02  -2.207378e-02  0 
 2.314940e-02  -1.571375e-02  0 
 2.785027e-02  -1.716320e-02  0 
 3.162025e-02  -1.810462e-02  0 
 3.497741e-02  -1.873494e-02  0 
 3.812176e-02  -1.915976e-02  0 
 4.114461e-02  -1.943860e-02  0 
 4.409608e-02  -1.961626e-02  0 
 4.699610e-02  -1.971786e-02  0 
 1.805897e-02  -2.103467e-02  0 
 2.010716e-02  -2.526093e-02  0 
 2.149268e-02  -2.878649e-02  0 
 2.262814e-02  -3.200377e-02  0 
 2.378223e-02  -3.492078e-02  0 
 4.994247e-02  -2.263723e-02  0 
 5.000765e-02  -2.557022e-02  0 
 5.001388e-02  -2.852802e-02  0 
 4.997938e-02  -3.148448e-02  0 
 4.995938e-02  -3.451836e-02  0 
 3.527445e-03  -4.977981e-03  0 
 4.749922e-03  -4.750658e-03  0 
 6.247144e-03  -4.804720e-03  0 
 3.471352e-03  -6.302041e-03  0 
 5.082296e-03  -6.243208e-03  0 
 7.069023e-03  -6.169487e-03  0 
 3.483391e-03  -7.957053e-03  0 
 5.169164e-03  -8.296814e-03  0 
 7.833048e-03  -8.422089e-03  0 
 1.334154e-02  -7.344038e-03  0 
 1.858007e-02  -9.689436e-03  0 
 2.267297e-02  -1.249651e-02  0 
 2.422608e-02  -1.462059e-02  0 
 1.782669e-02  -1.116863e-02  0 
 2.317143e-02  -1.345446e-02  0 
 2.709472e-02  -1.484651e-02  0 
 3.021501e-02  -1.575757e-02  0 
 3.414489e-02  -1.658574e-02  0 
 3.709855e-02  -1.735480e-02  0 
 4.003632e-02  -1.825478e-02  0 
 4.285813e-02  -1.967599e-02  0 
 6.134149e-03  -1.446734e-02  0 
 9.253426e-03  -1.621459e-02  0 
 1.299194e-02  -1.854884e-02  0 
 9.617038e-03  -1.984775e-02  0 
 1.303133e-02  -2.191364e-02  0 
 1.657462e-02  -2.391068e-02  0 
 1.363256e-02  -2.484265e-02  0 
 1.653352e-02  -2.691481e-02  0 
 1.908722e-02  -2.819835e-02  0 
 1.822369e-02  -2.952705e-02  0 
 1.946318e-02  -3.076804e-02  0 
 2.115890e-02  -3.177793e-02  0 
 2.129846e-02  -3.191482e-02  0 
 2.242946e-02  -3.407080e-02  0 
 2.297088e-02  -3.459855e-02  0 
 2.343009e-02  -2.133942e-02  0 
 2.807777e-02  -2.142132e-02  0 
 3.180502e-02  -2.173584e-02  0 
 3.512545e-02  -2.204348e-02  0 
 3.823371e-02  -2.228411e-02  0 
 4.122664e-02  -2.245233e-02  0 
 4.415570e-02  -2.255605e-02  0 
 4.705163e-02  -2.260947e-02  0 
 2.410778e-02  -2.554172e-02  0 
 2.816501e-02  -2.549379e-02  0 
 3.185857e-02  -2.541350e-02  0 
 3.517673e-02  -2.543035e-02  0 
 3.827734e-02  -2.548074e-02  0 
 4.125767e-02  -2.552522e-02  0 
 4.417852e-02  -2.555087e-02  0 
 4.708198e-02  -2.556163e-02  0 
 2.492701e-02  -2.903723e-02  0 
 2.845167e-02  -2.905197e-02  0 
 3.190596e-02  -2.891451e-02  0 
 3.517271e-02  -2.877567e-02  0 
 3.825904e-02  -2.868057e-02  0 
 4.123448e-02  -2.861627e-02  0 
 4.415620e-02  -2.857058e-02  0 
 4.707310e-02  -2.854057e-02  0 
 2.570727e-02  -3.223095e-02  0 
 2.885139e-02  -3.226671e-02  0 
 3.204495e-02  -3.216130e-02  0 
 3.518147e-02  -3.197953e-02  0 
 3.821198e-02  -3.181674e-02  0 
 4.116522e-02  -3.167635e-02  0 
 4.409063e-02  -3.157504e-02  0 
 4.701717e-02  -3.151876e-02  0 
 2.640262e-02  -3.516961e-02  0 
 2.930036e-02  -3.529802e-02  0 
 3.221824e-02  -3.521337e-02  0 
 3.522751e-02  -3.501953e-02  0 
 3.818553e-02  -3.480941e-02  0 
 4.105018e-02  -3.466990e-02  0 
 4.399368e-02  -3.452989e-02  0 
 4.693254e-02  -3.445858e-02  0 
VECTORS displacement_ITER7 FLOAT
 1.480482e-02  -1.421242e-02  0 
 4.983894e-02  -2.000560e-02  0 
 9.382005e-03  -6.686427e-03  0 
 1.141313e-02  -9.051960e-03  0 
 3.867609e-03  -9.794190e-03  0 
 5.520500e-03  -1.086585e-02  0 
 8.252154e-03  -1.241775e-02  0 
 4.096505e-02  -2.209987e-02  0 
 2.324239e-02  -1.595803e-02  0 
 2.793169e-02  -1.740146e-02  0 
 3.169154e-02  -1.833964e-02  0 
 3.503782e-02  -1.896659e-02  0 
 3.816902e-02  -1.938863e-02  0 
 4.117776e-02  -1.966550e-02  0 
 4.411717e-02  -1.984026e-02  0 
 4.700784e-02  -1.994108e-02  0 
 1.817318e-02  -2.126093e-02  0 
 2.022782e-02  -2.546162e-02  0 
 2.161788e-02  -2.896098e-02  0 
 2.274843e-02  -3.215608e-02  0 
 2.387005e-02  -3.509000e-02  0 
 4.994554e-02  -2.284996e-02  0 
 5.001342e-02  -2.577277e-02  0 
 5.002372e-02  -2.872265e-02  0 
 4.998818e-02  -3.167109e-02  0 
 4.994806e-02  -3.465600e-02  0 
 3.572111e-03  -5.222272e-03  0 
 4.857855e-03  -5.033154e-03  0 
 6.375479e-03  -5.081618e-03  0 
 3.576704e-03  -6.610925e-03  0 
 5.197765e-03  -6.550019e-03  0 
 7.190572e-03  -6.481343e-03  0 
 3.620864e-03  -8.274845e-03  0 
 5.286573e-03  -8.601431e-03  0 
 7.943694e-03  -8.714447e-03  0 
 1.352909e-02  -7.753010e-03  0 
 1.866174e-02  -9.966119e-03  0 
 2.278461e-02  -1.236327e-02  0 
 2.536830e-02  -1.392692e-02  0 
 1.792431e-02  -1.144666e-02  0 
 2.321475e-02  -1.366931e-02  0 
 2.721784e-02  -1.507148e-02  0 
 3.057508e-02  -1.602962e-02  0 
 3.409031e-02  -1.694650e-02  0 
 3.702313e-02  -1.766572e-02  0 
 3.990513e-02  -1.852551e-02  0 
 4.268389e-02  -1.986222e-02  0 
 6.492604e-03  -1.451214e-02  0 
 9.363686e-03  -1.634485e-02  0 
 1.303677e-02  -1.870497e-02  0 
 1.001697e-02  -1.959132e-02  0 
 1.312158e-02  -2.177349e-02  0 
 1.656933e-02  -2.391293e-02  0 
 1.394626e-02  -2.421486e-02  0 
 1.652941e-02  -2.642545e-02  0 
 1.905148e-02  -2.803018e-02  0 
 1.823802e-02  -2.818500e-02  0 
 1.945870e-02  -2.994276e-02  0 
 2.109375e-02  -3.141838e-02  0 
 2.077757e-02  -3.102742e-02  0 
 2.243469e-02  -3.272536e-02  0 
 2.298104e-02  -3.392245e-02  0 
 2.352309e-02  -2.156792e-02  0 
 2.815852e-02  -2.164695e-02  0 
 3.187449e-02  -2.195895e-02  0 
 3.518369e-02  -2.226346e-02  0 
 3.827989e-02  -2.250054e-02  0 
 4.126020e-02  -2.266598e-02  0 
 4.417792e-02  -2.276857e-02  0 
 4.706439e-02  -2.282188e-02  0 
 2.420698e-02  -2.574703e-02  0 
 2.824741e-02  -2.570373e-02  0 
 3.192768e-02  -2.562493e-02  0 
 3.523314e-02  -2.563938e-02  0 
 3.832148e-02  -2.568484e-02  0 
 4.129068e-02  -2.572553e-02  0 
 4.420166e-02  -2.575066e-02  0 
 4.709639e-02  -2.576280e-02  0 
 2.503350e-02  -2.921915e-02  0 
 2.854184e-02  -2.924554e-02  0 
 3.197720e-02  -2.911553e-02  0 
 3.522524e-02  -2.897417e-02  0 
 3.829781e-02  -2.887165e-02  0 
 4.126552e-02  -2.880195e-02  0 
 4.418215e-02  -2.875724e-02  0 
 4.709138e-02  -2.873233e-02  0 
 2.582699e-02  -3.239338e-02  0 
 2.895952e-02  -3.244617e-02  0 
 3.212036e-02  -3.234928e-02  0 
 3.522349e-02  -3.216626e-02  0 
 3.823825e-02  -3.199403e-02  0 
 4.119304e-02  -3.184995e-02  0 
 4.412418e-02  -3.175056e-02  0 
 4.704558e-02  -3.169999e-02  0 
 2.655167e-02  -3.533706e-02  0 
 2.943039e-02  -3.545656e-02  0 
 3.230194e-02  -3.537043e-02  0 
 3.525013e-02  -3.518260e-02  0 
 3.818762e-02  -3.498195e-02  0 
 4.107981e-02  -3.484389e-02  0 
 4.403539e-02  -3.470587e-02  0 
 4.697984e-02  -3.462484e-02  0 
VECTORS displacement_ITER8 FLOAT
 1.482273e-02  -1.437275e-02  0 
 4.951333e-02  -2.012207e-02  0 
 9.338398e-03  -7.084096e-03  0 
 1.141823e-02  -9.307609e-03  0 
 4.142679e-03  -1.001331e-02  0 
 5.715649e-03  -1.105549e-02  0 
 8.355553e-03  -1.258943e-02  0 
 4.152179e-02  -2.174414e-02  0 
 2.321932e-02  -1.611082e-02  0 
 2.786626e-02  -1.755021e-02  0 
 3.158471e-02  -1.848457e-02  0 
 3.488908e-02  -1.910647e-02  0 
 3.797807e-02  -1.952282e-02  0 
 4.094633e-02  -1.979359e-02  0 
 4.384922e-02  -1.996193e-02  0 
 4.670916e-02  -2.005987e-02  0 
 1.819707e-02  -2.136765e-02  0 
 2.025477e-02  -2.551887e-02  0 
 2.164776e-02  -2.896850e-02  0 
 2.277606e-02  -3.211574e-02  0 
 2.387531e-02  -3.502289e-02  0 
 4.961439e-02  -2.293603e-02  0 
 4.968100e-02  -2.582481e-02  0 
 4.969396e-02  -2.874166e-02  0 
 4.966201e-02  -3.165992e-02  0 
 4.961939e-02  -3.460185e-02  0 
 3.776888e-03  -5.573582e-03  0 
 5.034381e-03  -5.411785e-03  0 
 6.524175e-03  -5.443336e-03  0 
 3.826827e-03  -6.944250e-03  0 
 5.386250e-03  -6.888297e-03  0 
 7.315558e-03  -6.837089e-03  0 
 3.895581e-03  -8.549496e-03  0 
 5.484455e-03  -8.875183e-03  0 
 8.053823e-03  -8.976370e-03  0 
 1.387690e-02  -8.130185e-03  0 
 1.893860e-02  -1.019654e-02  0 
 2.302902e-02  -1.219342e-02  0 
 2.637119e-02  -1.327094e-02  0 
 1.799551e-02  -1.171946e-02  0 
 2.326190e-02  -1.383184e-02  0 
 2.728949e-02  -1.521328e-02  0 
 3.067982e-02  -1.623908e-02  0 
 3.387202e-02  -1.716154e-02  0 
 3.671693e-02  -1.780735e-02  0 
 3.951139e-02  -1.857827e-02  0 
 4.223596e-02  -1.972921e-02  0 
 6.842675e-03  -1.456606e-02  0 
 9.481068e-03  -1.639988e-02  0 
 1.306669e-02  -1.875549e-02  0 
 1.021147e-02  -1.946945e-02  0 
 1.312903e-02  -2.164519e-02  0 
 1.654114e-02  -2.385062e-02  0 
 1.379882e-02  -2.395536e-02  0 
 1.636319e-02  -2.616228e-02  0 
 1.898664e-02  -2.789379e-02  0 
 1.756376e-02  -2.785046e-02  0 
 1.913493e-02  -2.973700e-02  0 
 2.098425e-02  -3.128922e-02  0 