# vtk DataFile Version 3.1
this is an vtk file created by FEMAC
ASCII
DATASET UNSTRUCTURED_GRID
POINTS 101 FLOAT
0.000000 2.000000 0.000000
1.000000 2.000000 0.000000
0.111111 2.000000 0.000000
0.222222 2.000000 0.000000
0.333333 2.000000 0.000000
0.444444 2.000000 0.000000
0.555556 2.000000 0.000000
0.666667 2.000000 0.000000
0.777778 2.000000 0.000000
0.888889 2.000000 0.000000
0.000000 1.555556 0.000000
0.000000 1.666667 0.000000
0.000000 1.777778 0.000000
0.000000 1.888889 0.000000
1.000000 1.555556 0.000000
1.000000 1.666667 0.000000
1.000000 1.777778 0.000000
1.000000 1.888889 0.000000
0.000000 2.111111 0.000000
0.000000 2.222222 0.000000
0.000000 2.333333 0.000000
0.000000 2.444444 0.000000
1.000000 2.111111 0.000000
1.000000 2.222222 0.000000
1.000000 2.333333 0.000000
1.000000 2.444444 0.000000
1.111111 2.000000 0.000000
0.111111 1.555556 0.000000
0.111111 1.666667 0.000000
0.111111 1.777778 0.000000
0.111111 1.888889 0.000000
0.222222 1.555556 0.000000
0.222222 1.666667 0.000000
0.222222 1.777778 0.000000
0.222222 1.888889 0.000000
0.333333 1.555556 0.000000
0.333333 1.666667 0.000000
0.333333 1.777778 0.000000
0.333333 1.888889 0.000000
0.444444 1.555556 0.000000
0.444444 1.666667 0.000000
0.444444 1.777778 0.000000
0.444444 1.888889 0.000000
0.555556 1.555556 0.000000
0.555556 1.666667 0.000000
0.555556 1.777778 0.000000
0.555556 1.888889 0.000000
0.666667 1.555556 0.000000
0.666667 1.666667 0.000000
0.666667 1.777778 0.000000
0.666667 1.888889 0.000000
0.777778 1.555556 0.000000
0.777778 1.666667 0.000000
0.777778 1.777778 0.000000
0.777778 1.888889 0.000000
0.888889 1.555556 0.000000
0.888889 1.666667 0.000000
0.888889 1.777778 0.000000
0.888889 1.888889 0.000000
0.111111 2.111111 0.000000
0.111111 2.222222 0.000000
0.111111 2.333333 0.000000
0.111111 2.444444 0.000000
0.222222 2.111111 0.000000
0.222222 2.222222 0.000000
0.222222 2.333333 0.000000
0.222222 2.444444 0.000000
0.333333 2.111111 0.000000
0.333333 2.222222 0.000000
0.333333 2.333333 0.000000
0.333333 2.444444 0.000000
0.444444 2.111111 0.000000
0.444444 2.222222 0.000000
0.444444 2.333333 0.000000
0.444444 2.444444 0.000000
0.555556 2.111111 0.000000
0.555556 2.222222 0.000000
0.555556 2.333333 0.000000
0.555556 2.444444 0.000000
0.666667 2.111111 0.000000
0.666667 2.222222 0.000000
0.666667 2.333333 0.000000
0.666667 2.444444 0.000000
0.777778 2.111111 0.000000
0.777778 2.222222 0.000000
0.777778 2.333333 0.000000
0.777778 2.444444 0.000000
0.888889 2.111111 0.000000
0.888889 2.222222 0.000000
0.888889 2.333333 0.000000
0.888889 2.444444 0.000000
1.111111 1.555556 0.000000
1.111111 1.666667 0.000000
1.111111 1.777778 0.000000
1.111111 1.888889 0.000000
1.222222 1.555556 0.000000
1.222222 1.666667 0.000000
1.222222 1.777778 0.000000
1.111111 2.111111 0.000000
1.111111 2.222222 0.000000
1.111111 2.333333 0.000000
CELLS 81 405 
4 10 27 28 11
4 11 28 29 12
4 12 29 30 13
4 13 30  2  0
4 27 31 32 28
4 28 32 33 29
4 29 33 34 30
4 30 34  3  2
4 31 35 36 32
4 32 36 37 33
4 33 37 38 34
4 34 38  4  3
4 35 39 40 36
4 36 40 41 37
4 37 41 42 38
4 38 42  5  4
4 39 43 44 40
4 40 44 45 41
4 41 45 46 42
4 42 46  6  5
4 43 47 48 44
4 44 48 49 45
4 45 49 50 46
4 46 50  7  6
4 47 51 52 48
4 48 52 53 49
4 49 53 54 50
4 50 54  8  7
4 51 55 56 52
4 52 56 57 53
4 53 57 58 54
4 54 58  9  8
4 55 14 15 56
4 56 15 16 57
4 57 16 17 58
4 58 17  1  9
4 0  2 59 18
4 18 59 60 19
4 19 60 61 20
4 20 61 62 21
4 2  3 63 59
4 59 63 64 60
4 60 64 65 61
4 61 65 66 62
4 3  4 67 63
4 63 67 68 64
4 64 68 69 65
4 65 69 70 66
4 4  5 71 67
4 67 71 72 68
4 68 72 73 69
4 69 73 74 70
4 5  6 75 71
4 71 75 76 72
4 72 76 77 73
4 73 77 78 74
4 6  7 79 75
4 75 79 80 76
4 76 80 81 77
4 77 81 82 78
4 7  8 83 79
4 79 83 84 80
4 80 84 85 81
4 81 85 86 82
4 8  9 87 83
4 83 87 88 84
4 84 88 89 85
4 85 89 90 86
4 9  1 22 87
4 87 22 23 88
4 88 23 24 89
4 89 24 25 90
4 14 91 92 15
4 15 92 93 16
4 16 93 94 17
4 17 94 26  1
4 91 95 96 92
4 92 96 97 93
4 1 26 98 22
4 22 98 99 23
4 23  99 100  24
CELL_TYPES 81
9 9 9 9 9 9 9 9 9 9 9 9 9 9 9 9 9 9 9 9 9 9 9 9 9 9 9 9 9 9 9 9 9 9 9 9 9 9 9 9 9 9 9 9 9 9 9 9 9 9 9 9 9 9 9 9 9 9 9 9 9 9 9 9 9 9 9 9 9 9 9 9 9 9 9 9 9 9 9 9 9 
POINT_DATA 101
VECTORS displacement_ITER1 FLOAT
 0  0  0 
 -3.201702e-03  -7.290191e-03  0 
 -1.110873e-03  -6.561032e-04  0 
 -1.893713e-03  -1.414852e-03  0 
 -2.466980e-03  -2.294337e-03  0 
 -2.845722e-03  -3.221094e-03  0 
 -3.052853e-03  -4.110617e-03  0 
 -3.137143e-03  -4.901912e-03  0 
 -3.169979e-03  -5.595593e-03  0 
 -3.216662e-03  -6.279212e-03  0 
 2.711249e-20  -1.809232e-19  0 
 0  0  0 
 0  0  0 
 0  0  0 
 -1.075194e-02  -7.891362e-03  0 
 -8.948205e-03  -7.905590e-03  0 
 -7.096261e-03  -7.866030e-03  0 
 -5.215875e-03  -7.694703e-03  0 
 0  0  0 
 0  0  0 
 0  0  0 
 5.107752e-20  3.703497e-20  0 
 -2.569504e-03  -6.864018e-03  0 
 -2.134143e-03  -6.556115e-03  0 
 -1.922206e-03  -6.281937e-03  0 
 -2.082059e-03  -6.191581e-03  0 
 -3.090746e-03  -9.747067e-03  0 
 -2.058143e-03  -2.209695e-03  0 
 -8.958295e-04  -1.762027e-03  0 
 -6.169196e-04  -1.534073e-03  0 
 -6.245993e-04  -1.246102e-03  0 
 -2.790176e-03  -4.169856e-03  0 
 -1.833563e-03  -3.606666e-03  0 
 -1.405411e-03  -2.932169e-03  0 
 -1.453761e-03  -2.227495e-03  0 
 -3.149587e-03  -5.665508e-03  0 
 -2.610400e-03  -4.983688e-03  0 
 -2.294125e-03  -4.097804e-03  0 
 -2.255775e-03  -3.172956e-03  0 
 -3.518875e-03  -6.702514e-03  0 
 -3.337744e-03  -5.924322e-03  0 
 -3.126949e-03  -4.978610e-03  0 
 -2.956970e-03  -4.034188e-03  0 
 -4.084375e-03  -7.351608e-03  0 
 -4.119820e-03  -6.520588e-03  0 
 -3.907962e-03  -5.608442e-03  0 
 -3.533045e-03  -4.765150e-03  0 
 -4.960682e-03  -7.690135e-03  0 
 -5.046983e-03  -6.864454e-03  0 
 -4.689418e-03  -6.054449e-03  0 
 -4.010181e-03  -5.377819e-03  0 
 -6.235222e-03  -7.805386e-03  0 
 -6.192331e-03  -7.058493e-03  0 
 -5.514181e-03  -6.426441e-03  0 
 -4.420914e-03  -5.956649e-03  0 
 -8.025205e-03  -7.827072e-03  0 
 -7.588244e-03  -7.230484e-03  0 
 -6.335273e-03  -6.955791e-03  0 
 -4.805097e-03  -6.658657e-03  0 
 -5.822969e-04  -4.407828e-04  0 
 -2.743384e-04  -3.710330e-04  0 
 3.491539e-05  -3.326484e-04  0 
 5.193996e-04  -3.892644e-04  0 
 -1.174525e-03  -1.229187e-03  0 
 -5.915373e-04  -1.103104e-03  0 
 -1.050346e-05  -1.056222e-03  0 
 7.316227e-04  -1.057794e-03  0 
 -1.647436e-03  -2.156338e-03  0 
 -9.266963e-04  -2.051884e-03  0 
 -1.975645e-04  -1.986301e-03  0 
 6.581877e-04  -1.931560e-03  0 
 -2.006650e-03  -3.132892e-03  0 
 -1.253311e-03  -3.059911e-03  0 
 -5.001723e-04  -2.996139e-03  0 
 3.382462e-04  -2.899168e-03  0 
 -2.264627e-03  -4.065670e-03  0 
 -1.553590e-03  -4.027925e-03  0 
 -8.694660e-04  -3.979874e-03  0 
 -1.561486e-04  -3.862929e-03  0 
 -2.429035e-03  -4.889006e-03  0 
 -1.799908e-03  -4.887163e-03  0 
 -1.249879e-03  -4.863875e-03  0 
 -7.405587e-04  -4.748028e-03  0 
 -2.506797e-03  -5.591783e-03  0 
 -1.957860e-03  -5.600407e-03  0 
 -1.584924e-03  -5.587293e-03  0 
 -1.330473e-03  -5.493976e-03  0 
 -2.506462e-03  -6.254975e-03  0 
 -2.045301e-03  -6.144165e-03  0 
 -1.807845e-03  -6.074842e-03  0 
 -1.826692e-03  -6.053718e-03  0 
 -1.073523e-02  -9.662015e-03  0 
 -8.952510e-03  -9.785603e-03  0 
 -7.101105e-03  -9.780529e-03  0 
 -5.287224e-03  -9.675709e-03  0 
 -1.064136e-02  -1.160105e-02  0 
 -8.984972e-03  -1.172974e-02  0 
 -6.987049e-03  -1.194144e-02  0 
 -5.420505e-03  -1.035173e-02  0 
 -3.081313e-03  -1.089000e-02  0 
 -4.518544e-03  -1.148626e-02  0 
VECTORS displacement_ITER2 FLOAT
 0  0  0 
 -3.239033e-03  -7.302040e-03  0 
 -1.095260e-03  -6.522039e-04  0 
 -1.857461e-03  -1.388003e-03  0 
 -2.416818e-03  -2.228609e-03  0 
 -2.795909e-03  -3.113755e-03  0 
 -3.019036e-03  -3.975073e-03  0 
 -3.129777e-03  -4.764382e-03  0 
 -3.188998e-03  -5.485608e-03  0 
 -3.251858e-03  -6.218951e-03  0 
 1.926515e-20  -1.908907e-19  0 
 0  0  0 
 0  0  0 
 0  0  0 
 -1.009406e-02  -8.162040e-03  0 
 -8.463107e-03  -8.048470e-03  0 
 -6.731518e-03  -7.923247e-03  0 
 -5.017098e-03  -7.723879e-03  0 
 0  0  0 
 0  0  0 
 0  0  0 
 4.602607e-20  3.329356e-20  0 
 -2.554677e-03  -6.859064e-03  0 
 -2.062530e-03  -6.564563e-03  0 
 -1.762336e-03  -6.326027e-03  0 
 -1.743999e-03  -6.251213e-03  0 
 -3.122006e-03  -9.517001e-03  0 
 -1.808370e-03  -2.222906e-03  0 
 -7.549369e-04  -1.808634e-03  0 
 -5.259213e-04  -1.572987e-03  0 
 -5.680173e-04  -1.268222e-03  0 
 -2.377760e-03  -4.193013e-03  0 
 -1.572631e-03  -3.644278e-03  0 
 -1.241191e-03  -2.965447e-03  0 
 -1.356365e-03  -2.236130e-03  0 
 -2.655570e-03  -5.687275e-03  0 
 -2.275500e-03  -5.001085e-03  0 
 -2.076001e-03  -4.105035e-03  0 
 -2.127100e-03  -3.153044e-03  0 
 -3.005683e-03  -6.723450e-03  0 
 -2.968385e-03  -5.926593e-03  0 
 -2.876814e-03  -4.964178e-03  0 
 -2.809957e-03  -3.986607e-03  0 
 -3.589542e-03  -7.381549e-03  0 
 -3.740456e-03  -6.523937e-03  0 
 -3.642110e-03  -5.589356e-03  0 
 -3.381470e-03  -4.704706e-03  0 
 -4.494423e-03  -7.745900e-03  0 
 -4.662933e-03  -6.890678e-03  0 
 -4.413482e-03  -6.053139e-03  0 
 -3.862891e-03  -5.326231e-03  0 
 -5.780982e-03  -7.909506e-03  0 
 -5.787823e-03  -7.129691e-03  0 
 -5.222581e-03  -6.461427e-03  0 
 -4.279834e-03  -5.931932e-03  0 
 -7.534733e-03  -8.007129e-03  0 
 -7.133732e-03  -7.362189e-03  0 
 -6.018854e-03  -7.018149e-03  0 
 -4.659569e-03  -6.668665e-03  0 
 -5.821752e-04  -4.426817e-04  0 
 -2.944959e-04  -3.800216e-04  0 
 -1.432772e-05  -3.486951e-04  0 
 4.210357e-04  -3.965658e-04  0 
 -1.169197e-03  -1.207660e-03  0 
 -6.216032e-04  -1.088974e-03  0 
 -9.426581e-05  -1.050252e-03  0 
 5.605330e-04  -1.053760e-03  0 
 -1.635547e-03  -2.092960e-03  0 
 -9.559459e-04  -1.993406e-03  0 
 -2.887694e-04  -1.936634e-03  0 
 4.659930e-04  -1.894819e-03  0 
 -1.989351e-03  -3.023778e-03  0 
 -1.269786e-03  -2.952669e-03  0 
 -5.688462e-04  -2.897685e-03  0 
 1.828919e-04  -2.823902e-03  0 
 -2.244567e-03  -3.924363e-03  0 
 -1.547542e-03  -3.884834e-03  0 
 -8.894527e-04  -3.844235e-03  0 
 -2.252790e-04  -3.757380e-03  0 
 -2.409726e-03  -4.743350e-03  0 
 -1.767404e-03  -4.735530e-03  0 
 -1.205847e-03  -4.715424e-03  0 
 -6.925101e-04  -4.629779e-03  0 
 -2.490840e-03  -5.475158e-03  0 
 -1.903801e-03  -5.476393e-03  0 
 -1.478176e-03  -5.458751e-03  0 
 -1.157800e-03  -5.387097e-03  0 
 -2.491389e-03  -6.193606e-03  0 
 -1.981294e-03  -6.081247e-03  0 
 -1.660905e-03  -6.008672e-03  0 
 -1.547751e-03  -5.988244e-03  0 
 -1.013507e-02  -9.737905e-03  0 
 -8.498570e-03  -9.785607e-03  0 
 -6.758129e-03  -9.697769e-03  0 
 -5.094043e-03  -9.483808e-03  0 
 -1.010672e-02  -1.150698e-02  0 
 -8.536961e-03  -1.161848e-02  0 
 -6.641581e-03  -1.179500e-02  0 
 -5.732126e-03  -1.065496e-02  0 
 -2.619983e-03  -1.048891e-02  0 
 -5.064882e-03  -1.056652e-02  0 
VECTORS displacement_ITER3 FLOAT
 0  0  0 
 -3.016833e-03  -6.785254e-03  0 
 -9.784161e-04  -5.870653e-04  0 
 -1.649236e-03  -1.227398e-03  0 
 -2.143742e-03  -1.944395e-03  0 
 -2.490351e-03  -2.698532e-03  0 
 -2.712333e-03  -3.446200e-03  0 
 -2.844308e-03  -4.159222e-03  0 
 -2.933069e-03  -4.850085e-03  0 
 -3.021369e-03  -5.597791e-03  0 
 9.372431e-21  -1.994674e-19  0 
 0  0  0 
 0  0  0 
 0  0  0 
 -1.006590e-02  -7.948109e-03  0 
 -8.434980e-03  -7.772729e-03  0 
 -6.670916e-03  -7.588569e-03  0 
 -4.904992e-03  -7.319013e-03  0 
 0  0  0 
 0  0  0 
 0  0  0 
 3.743415e-20  2.722824e-20  0 
 -2.284589e-03  -6.266801e-03  0 
 -1.778553e-03  -5.958765e-03  0 
 -1.424718e-03  -5.742717e-03  0 
 -1.265851e-03  -5.667309e-03  0 
 -2.912420e-03  -9.184090e-03  0 
 -1.440083e-03  -2.009489e-03  0 
 -6.100005e-04  -1.668225e-03  0 
 -4.423484e-04  -1.446189e-03  0 
 -4.932744e-04  -1.157198e-03  0 
 -1.872404e-03  -3.750405e-03  0 
 -1.304449e-03  -3.283188e-03  0 
 -1.074627e-03  -2.676100e-03  0 
 -1.197849e-03  -2.006777e-03  0 
 -2.151540e-03  -5.052250e-03  0 
 -1.950329e-03  -4.451596e-03  0 
 -1.834947e-03  -3.654855e-03  0 
 -1.895030e-03  -2.793528e-03  0 
 -2.588146e-03  -5.962099e-03  0 
 -2.642910e-03  -5.249487e-03  0 
 -2.592293e-03  -4.391430e-03  0 
 -2.527031e-03  -3.507875e-03  0 
 -3.306969e-03  -6.574870e-03  0 
 -3.454188e-03  -5.793859e-03  0 
 -3.346663e-03  -4.950326e-03  0 
 -3.077256e-03  -4.140113e-03  0 
 -4.362207e-03  -6.986003e-03  0 
 -4.436863e-03  -6.190917e-03  0 
 -4.134212e-03  -5.412652e-03  0 
 -3.565393e-03  -4.721180e-03  0 
 -5.776253e-03  -7.289877e-03  0 
 -5.626814e-03  -6.543291e-03  0 
 -4.985547e-03  -5.883573e-03  0 
 -4.014524e-03  -5.333550e-03  0 
 -7.586713e-03  -7.595819e-03  0 
 -7.032054e-03  -6.947277e-03  0 
 -5.860130e-03  -6.550799e-03  0 
 -4.453825e-03  -6.127709e-03  0 
 -5.306944e-04  -4.029972e-04  0 
 -2.929873e-04  -3.535895e-04  0 
 -7.259985e-05  -3.321893e-04  0 
 2.634020e-04  -3.633003e-04  0 
 -1.060410e-03  -1.069187e-03  0 
 -6.044564e-04  -9.687180e-04  0 
 -1.886251e-04  -9.405507e-04  0 
 3.028167e-04  -9.423693e-04  0 
 -1.479074e-03  -1.823483e-03  0 
 -9.104133e-04  -1.737434e-03  0 
 -3.774564e-04  -1.693232e-03  0 
 1.892823e-04  -1.665561e-03  0 
 -1.796265e-03  -2.614863e-03  0 
 -1.183369e-03  -2.551940e-03  0 
 -6.091382e-04  -2.509897e-03  0 
 -2.897195e-05  -2.464626e-03  0 
 -2.025399e-03  -3.394463e-03  0 
 -1.410388e-03  -3.357849e-03  0 
 -8.464194e-04  -3.329025e-03  0 
 -3.044455e-04  -3.280103e-03  0 
 -2.173949e-03  -4.132577e-03  0 
 -1.576105e-03  -4.122405e-03  0 
 -1.060134e-03  -4.108987e-03  0 
 -6.000959e-04  -4.060964e-03  0 
 -2.244284e-03  -4.834186e-03  0 
 -1.664865e-03  -4.830458e-03  0 
 -1.233901e-03  -4.806811e-03  0 
 -8.900564e-04  -4.759008e-03  0 
 -2.229456e-03  -5.572320e-03  0 
 -1.712602e-03  -5.449380e-03  0 
 -1.351583e-03  -5.364243e-03  0 
 -1.137740e-03  -5.335626e-03  0 
 -1.012888e-02  -9.513530e-03  0 
 -8.485341e-03  -9.530404e-03  0 
 -6.703726e-03  -9.414717e-03  0 
 -5.005337e-03  -9.152565e-03  0 
 -1.012487e-02  -1.127800e-02  0 
 -8.522918e-03  -1.139819e-02  0 
 -6.573548e-03  -1.158787e-02  0 
 -4.067469e-03  -8.907646e-03  0 
 -1.739768e-03  -8.674926e-03  0 
 -3.887752e-03  -8.556133e-03  0 
VECTORS displacement_ITER4 FLOAT
 0  0  0 
 -3.128679e-03  -6.676330e-03  0 
 -9.385771e-04  -5.598209e-04  0 
 -1.581108e-03  -1.153688e-03  0 
 -2.062461e-03  -1.809957e-03  0 
 -2.414341e-03  -2.502384e-03  0 
 -2.658972e-03  -3.202299e-03  0 
 -2.825920e-03  -3.893285e-03  0 
 -2.955208e-03  -4.593138e-03  0 
 -3.086170e-03  -5.382284e-03  0 
 4.174133e-21  -1.924141e-19  0 
 0  0  0 
 0  0  0 
 0  0  0 
 -1.027094e-02  -7.955979e-03  0 
 -8.673767e-03  -7.774047e-03  0 
 -6.927288e-03  -7.571436e-03  0 
 -5.135524e-03  -7.262879e-03  0 
 0  0  0 
 0  0  0 
 0  0  0 
 3.157488e-20  2.465877e-20  0 
 -2.290092e-03  -6.116268e-03  0 
 -1.729292e-03  -5.792817e-03  0 
 -1.308657e-03  -5.583171e-03  0 
 -1.045042e-03  -5.500222e-03  0 
 -3.071150e-03  -9.205174e-03  0 
 -1.273852e-03  -1.836270e-03  0 
 -5.990879e-04  -1.540113e-03  0 
 -4.624486e-04  -1.335452e-03  0 
 -5.045540e-04  -1.072847e-03  0 
 -1.719612e-03  -3.376150e-03  0 
 -1.291916e-03  -2.977373e-03  0 
 -1.102054e-03  -2.444643e-03  0 
 -1.198527e-03  -1.848903e-03  0 
 -2.100964e-03  -4.518217e-03  0 
 -1.967750e-03  -4.007299e-03  0 
 -1.860165e-03  -3.319609e-03  0 
 -1.881699e-03  -2.564390e-03  0 
 -2.674931e-03  -5.337115e-03  0 
 -2.710798e-03  -4.730400e-03  0 
 -2.622072e-03  -3.994744e-03  0 
 -2.506027e-03  -3.224328e-03  0 
 -3.532676e-03  -5.940135e-03  0 
 -3.578283e-03  -5.272898e-03  0 
 -3.390140e-03  -4.546103e-03  0 
 -3.061421e-03  -3.832898e-03  0 
 -4.701802e-03  -6.429865e-03  0 
 -4.609803e-03  -5.744400e-03  0 
 -4.199757e-03  -5.057677e-03  0 
 -3.570331e-03  -4.426696e-03  0 
 -6.176550e-03  -6.896540e-03  0 
 -5.832358e-03  -6.240672e-03  0 
 -5.086630e-03  -5.627984e-03  0 
 -4.060853e-03  -5.085362e-03  0 
 -7.959702e-03  -7.417019e-03  0 
 -7.251102e-03  -6.826742e-03  0 
 -6.026100e-03  -6.419936e-03  0 
 -4.571785e-03  -5.956533e-03  0 
 -5.212571e-04  -3.844574e-04  0 
 -3.086334e-04  -3.398295e-04  0 
 -1.204071e-04  -3.217759e-04  0 
 1.561702e-04  -3.389930e-04  0 
 -1.040193e-03  -1.001901e-03  0 
 -6.292647e-04  -9.064841e-04  0 
 -2.726344e-04  -8.793596e-04  0 
 1.270303e-04  -8.750962e-04  0 
 -1.452931e-03  -1.691158e-03  0 
 -9.373291e-04  -1.606986e-03  0 
 -4.725684e-04  -1.564515e-03  0 
 -6.448719e-06  -1.539946e-03  0 
 -1.769592e-03  -2.416202e-03  0 
 -1.203716e-03  -2.352684e-03  0 
 -6.890982e-04  -2.313625e-03  0 
 -1.951469e-04  -2.280988e-03  0 
 -2.002993e-03  -3.144230e-03  0 
 -1.416504e-03  -3.105099e-03  0 
 -8.887402e-04  -3.080472e-03  0 
 -3.999312e-04  -3.051979e-03  0 
 -2.159964e-03  -3.858046e-03  0 
 -1.563643e-03  -3.843932e-03  0 
 -1.050547e-03  -3.834326e-03  0 
 -5.990185e-04  -3.809601e-03  0 
 -2.241008e-03  -4.569038e-03  0 
 -1.634220e-03  -4.562019e-03  0 
 -1.170971e-03  -4.537911e-03  0 
 -7.868840e-04  -4.507732e-03  0 
 -2.232864e-03  -5.351888e-03  0 
 -1.668953e-03  -5.225496e-03  0 
 -1.251316e-03  -5.134893e-03  0 
 -9.511417e-04  -5.106362e-03  0 
 -1.033616e-02  -9.489306e-03  0 
 -8.722491e-03  -9.506781e-03  0 
 -6.962346e-03  -9.401141e-03  0 
 -5.240054e-03  -9.163367e-03  0 
 -1.035153e-02  -1.123942e-02  0 
 -8.751452e-03  -1.135609e-02  0 
 -6.840879e-03  -1.153315e-02  0 
 -3.712883e-03  -8.735424e-03  0 
 -1.715524e-03  -8.424633e-03  0 
 -2.697274e-03  -8.608255e-03  0 
VECTORS displacement_ITER5 FLOAT
 0  0  0 
 -3.381429e-03  -6.748084e-03  0 
 -9.488435e-04  -5.620863e-04  0 
 -1.595772e-03  -1.139358e-03  0 
 -2.086585e-03  -1.765772e-03  0 
 -2.458156e-03  -2.426197e-03  0 
 -2.733211e-03  -3.104527e-03  0 
 -2.938367e-03  -3.794225e-03  0 
 -3.109328e-03  -4.517578e-03  0 
 -3.284391e-03  -5.356207e-03  0 
 -2.640520e-21  -1.774872e-19  0 
 0  0  0 
 0  0  0 
 0  0  0 
 -1.067830e-02  -8.068335e-03  0 
 -9.098412e-03  -7.907553e-03  0 
 -7.369983e-03  -7.701776e-03  0 
 -5.537609e-03  -7.363633e-03  0 
 0  0  0 
 0  0  0 
 0  0  0 
 2.340557e-20  2.046000e-20  0 
 -2.423240e-03  -6.165949e-03  0 
 -1.795768e-03  -5.832248e-03  0 
 -1.304407e-03  -5.625778e-03  0 
 -9.428055e-04  -5.535007e-03  0 
 -3.379201e-03  -9.415326e-03  0 
 -1.198657e-03  -1.657825e-03  0 
 -6.664632e-04  -1.399925e-03  0 
 -5.495565e-04  -1.220486e-03  0 
 -5.735764e-04  -9.984364e-04  0 
 -1.748909e-03  -2.979371e-03  0 
 -1.428029e-03  -2.655406e-03  0 
 -1.250361e-03  -2.215168e-03  0 
 -1.298926e-03  -1.718857e-03  0 
 -2.307860e-03  -3.953682e-03  0 
 -2.187630e-03  -3.552210e-03  0 
 -2.045506e-03  -3.001978e-03  0 
 -1.996946e-03  -2.386944e-03  0 
 -3.069435e-03  -4.685455e-03  0 
 -3.016021e-03  -4.216414e-03  0 
 -2.836338e-03  -3.638569e-03  0 
 -2.631293e-03  -3.019559e-03  0 
 -4.088141e-03  -5.293623e-03  0 
 -3.955072e-03  -4.781280e-03  0 
 -3.629164e-03  -4.209987e-03  0 
 -3.200471e-03  -3.632015e-03  0 
 -5.366161e-03  -5.886179e-03  0 
 -5.033151e-03  -5.356699e-03  0 
 -4.461321e-03  -4.799798e-03  0 
 -3.732628e-03  -4.263860e-03  0 
 -6.873965e-03  -6.546467e-03  0 
 -6.272630e-03  -6.027703e-03  0 
 -5.377646e-03  -5.495951e-03  0 
 -4.264708e-03  -4.988933e-03  0 
 -8.586282e-03  -7.313717e-03  0 
 -7.681605e-03  -6.823355e-03  0 
 -6.375432e-03  -6.431657e-03  0 
 -4.849718e-03  -5.947504e-03  0 
 -5.406528e-04  -3.867559e-04  0 
 -3.432645e-04  -3.448523e-04  0 
 -1.787130e-04  -3.290386e-04  0 
 5.081142e-05  -3.325207e-04  0 
 -1.076863e-03  -9.870347e-04  0 
 -6.925809e-04  -8.921226e-04  0 
 -3.795493e-04  -8.645634e-04  0 
 -5.237986e-05  -8.543040e-04  0 
 -1.505368e-03  -1.644268e-03  0 
 -1.021437e-03  -1.558392e-03  0 
 -6.054458e-04  -1.516178e-03  0 
 -2.178962e-04  -1.494762e-03  0 
 -1.837508e-03  -2.334683e-03  0 
 -1.297636e-03  -2.268416e-03  0 
 -8.232222e-04  -2.231668e-03  0 
 -3.947870e-04  -2.211822e-03  0 
 -2.086647e-03  -3.038827e-03  0 
 -1.510271e-03  -2.996264e-03  0 
 -1.001936e-03  -2.975973e-03  0 
 -5.500208e-04  -2.968185e-03  0 
 -2.260166e-03  -3.749988e-03  0 
 -1.650731e-03  -3.732012e-03  0 
 -1.127678e-03  -3.727299e-03  0 
 -6.740183e-04  -3.726460e-03  0 
 -2.358144e-03  -4.485099e-03  0 
 -1.712479e-03  -4.475667e-03  0 
 -1.207790e-03  -4.454134e-03  0 
 -7.790494e-04  -4.443084e-03  0 
 -2.363084e-03  -5.320495e-03  0 
 -1.739272e-03  -5.194774e-03  0 
 -1.258637e-03  -5.102272e-03  0 
 -8.751836e-04  -5.076989e-03  0 
 -1.072734e-02  -9.592311e-03  0 
 -9.141494e-03  -9.619788e-03  0 
 -7.406475e-03  -9.536293e-03  0 
 -5.639076e-03  -9.356634e-03  0 
 -1.072838e-02  -1.131523e-02  0 
 -9.168275e-03  -1.143980e-02  0 
 -7.300870e-03  -1.161006e-02  0 
 -3.295914e-03  -9.227845e-03  0 
 -2.044043e-03  -8.811864e-03  0 
 -1.820238e-03  -9.343845e-03  0 
VECTORS displacement_ITER6 FLOAT
 0  0  0 
 -3.549485e-03  -6.834272e-03  0 
 -9.757125e-04  -5.777624e-04  0 
 -1.635632e-03  -1.158312e-03  0 
 -2.137007e-03  -1.778696e-03  0 
 -2.521854e-03  -2.430367e-03  0 
 -2.814482e-03  -3.105073e-03  0 
 -3.040341e-03  -3.802310e-03  0 
 -3.232081e-03  -4.545790e-03  0 
 -3.426284e-03  -5.413534e-03  0 
 -4.353697e-21  -1.435263e-19  0 
 0  0  0 
 0  0  0 
 0  0  0 
 -1.070263e-02  -8.174579e-03  0 
 -9.178728e-03  -7.988097e-03  0 
 -7.499895e-03  -7.763117e-03  0 
 -5.695608e-03  -7.423581e-03  0 
 0  0  0 
 0  0  0 
 0  0  0 
 1.787650e-20  1.735965e-20  0 
 -2.532204e-03  -6.267025e-03  0 
 -1.856994e-03  -5.944942e-03  0 
 -1.307671e-03  -5.756825e-03  0 
 -8.560152e-04  -5.677523e-03  0 
 -3.582558e-03  -9.443296e-03  0 
 -1.113048e-03  -1.498641e-03  0 
 -7.232202e-04  -1.284320e-03  0 
 -6.286668e-04  -1.133215e-03  0 
 -6.416324e-04  -9.501669e-04  0 
 -1.756265e-03  -2.629009e-03  0 
 -1.537518e-03  -2.383212e-03  0 
 -1.380034e-03  -2.037788e-03  0 
 -1.398184e-03  -1.636015e-03  0 
 -2.467437e-03  -3.459569e-03  0 
 -2.359064e-03  -3.170721e-03  0 
 -2.197634e-03  -2.757966e-03  0 
 -2.105352e-03  -2.277740e-03  0 
 -3.372161e-03  -4.117656e-03  0 
 -3.240877e-03  -3.792315e-03  0 
 -2.996192e-03  -3.372754e-03  0 
 -2.737250e-03  -2.901516e-03  0 
 -4.488274e-03  -4.729577e-03  0 
 -4.207401e-03  -4.382734e-03  0 
 -3.784094e-03  -3.971171e-03  0 
 -3.300778e-03  -3.529625e-03  0 
 -5.798832e-03  -5.407046e-03  0 
 -5.276882e-03  -5.047398e-03  0 
 -4.599330e-03  -4.631147e-03  0 
 -3.829395e-03  -4.200128e-03  0 
 -7.265494e-03  -6.230090e-03  0 
 -6.470719e-03  -5.858917e-03  0 
 -5.493763e-03  -5.425142e-03  0 
 -4.367068e-03  -4.976005e-03  0 
 -8.855267e-03  -7.213739e-03  0 
 -7.807798e-03  -6.817201e-03  0 
 -6.485038e-03  -6.450378e-03  0 
 -4.973210e-03  -5.981400e-03  0 
 -5.637577e-04  -3.998386e-04  0 
 -3.728448e-04  -3.603726e-04  0 
 -2.218369e-04  -3.474945e-04  0 
 -2.105611e-05  -3.442025e-04  0 
 -1.119897e-03  -1.004252e-03  0 
 -7.463786e-04  -9.097178e-04  0 
 -4.579175e-04  -8.838153e-04  0 
 -1.751575e-04  -8.728276e-04  0 
 -1.563433e-03  -1.655208e-03  0 
 -1.092656e-03  -1.568851e-03  0 
 -7.033292e-04  -1.528989e-03  0 
 -3.626547e-04  -1.513586e-03  0 
 -1.907172e-03  -2.336022e-03  0 
 -1.376955e-03  -2.269233e-03  0 
 -9.233106e-04  -2.236880e-03  0 
 -5.326171e-04  -2.230310e-03  0 
 -2.165849e-03  -3.035462e-03  0 
 -1.589454e-03  -2.992054e-03  0 
 -1.088476e-03  -2.977823e-03  0 
 -6.563005e-04  -2.989364e-03  0 
 -2.348452e-03  -3.753333e-03  0 
 -1.725066e-03  -3.733587e-03  0 
 -1.189846e-03  -3.734810e-03  0 
 -7.304804e-04  -3.755834e-03  0 
 -2.456238e-03  -4.509150e-03  0 
 -1.781945e-03  -4.498544e-03  0 
 -1.242133e-03  -4.481534e-03  0 
 -7.765220e-04  -4.489659e-03  0 
 -2.471077e-03  -5.376091e-03  0 
 -1.804927e-03  -5.257202e-03  0 
 -1.272202e-03  -5.170299e-03  0 
 -8.185005e-04  -5.153221e-03  0 
 -1.074646e-02  -9.624723e-03  0 
 -9.224253e-03  -9.636044e-03  0 
 -7.546341e-03  -9.548198e-03  0 
 -5.779472e-03  -9.395697e-03  0 
 -1.073923e-02  -1.125038e-02  0 
 -9.244268e-03  -1.137445e-02  0 
 -7.470696e-03  -1.151534e-02  0 
 -3.474773e-03  -9.638541e-03  0 
 -2.212290e-03  -9.043976e-03  0 
 -1.476749e-03  -9.559665e-03  0 
VECTORS displacement_ITER7 FLOAT
 0  0  0 
 -3.556465e-03  -6.582788e-03  0 
 -9.702874e-04  -5.749574e-04  0 
 -1.620502e-03  -1.137951e-03  0 
 -2.114609e-03  -1.727486e-03  0 
 -2.498259e-03  -2.341651e-03  0 
 -2.796213e-03  -2.980089e-03  0 
 -3.031494e-03  -3.648166e-03  0 
 -3.231857e-03  -4.370011e-03  0 
 -3.428993e-03  -5.216205e-03  0 
 -8.412626e-21  -1.246954e-19  0 
 0  0  0 
 0  0  0 
 0  0  0 
 -1.078813e-02  -7.773754e-03  0 
 -9.237849e-03  -7.615613e-03  0 
 -7.543463e-03  -7.418666e-03  0 
 -5.716106e-03  -7.115626e-03  0 
 0  0  0 
 0  0  0 
 0  0  0 
 1.197899e-20  1.351666e-20  0 
 -2.558631e-03  -6.056700e-03  0 
 -1.887075e-03  -5.761750e-03  0 
 -1.325283e-03  -5.599149e-03  0 
 -8.231008e-04  -5.533946e-03  0 
 -3.608594e-03  -9.155772e-03  0 
 -9.961321e-04  -1.362988e-03  0 
 -7.288255e-04  -1.188023e-03  0 
 -6.587151e-04  -1.056776e-03  0 
 -6.678968e-04  -9.000205e-04  0 
 -1.671092e-03  -2.341102e-03  0 
 -1.548853e-03  -2.152622e-03  0 
 -1.423289e-03  -1.874890e-03  0 
 -1.427368e-03  -1.539969e-03  0 
 -2.463228e-03  -3.048312e-03  0 
 -2.392913e-03  -2.835274e-03  0 
 -2.240210e-03  -2.517629e-03  0 
 -2.127168e-03  -2.133928e-03  0 
 -3.447711e-03  -3.619060e-03  0 
 -3.300878e-03  -3.388451e-03  0 
 -3.036627e-03  -3.078007e-03  0 
 -2.749942e-03  -2.715156e-03  0 
 -4.619401e-03  -4.178203e-03  0 
 -4.284830e-03  -3.942705e-03  0 
 -3.821570e-03  -3.645416e-03  0 
 -3.307701e-03  -3.311626e-03  0 
 -5.953980e-03  -4.838585e-03  0 
 -5.356655e-03  -4.599035e-03  0 
 -4.630844e-03  -4.293362e-03  0 
 -3.834091e-03  -3.961234e-03  0 
 -7.416026e-03  -5.684244e-03  0 
 -6.539285e-03  -5.426549e-03  0 
 -5.517385e-03  -5.087125e-03  0 
 -4.372111e-03  -4.721418e-03  0 
 -8.981030e-03  -6.729977e-03  0 
 -7.862169e-03  -6.418644e-03  0 
 -6.508215e-03  -6.113211e-03  0 
 -4.981219e-03  -5.706005e-03  0 
 -5.692824e-04  -3.999897e-04  0 
 -3.926754e-04  -3.636123e-04  0 
 -2.617886e-04  -3.529340e-04  0 
 -9.867599e-05  -3.410622e-04  0 
 -1.128327e-03  -9.867875e-04  0 
 -7.814728e-04  -8.945256e-04  0 
 -5.307317e-04  -8.689875e-04  0 
 -3.049606e-04  -8.547952e-04  0 
 -1.573599e-03  -1.605691e-03  0 
 -1.137677e-03  -1.520312e-03  0 
 -7.938388e-04  -1.481569e-03  0 
 -5.165074e-04  -1.468936e-03  0 
 -1.918686e-03  -2.247450e-03  0 
 -1.424809e-03  -2.181095e-03  0 
 -1.016003e-03  -2.151490e-03  0 
 -6.844180e-04  -2.153850e-03  0 
 -2.178892e-03  -2.909145e-03  0 
 -1.634205e-03  -2.865321e-03  0 
 -1.170161e-03  -2.854838e-03  0 
 -7.848258e-04  -2.880205e-03  0 
 -2.364194e-03  -3.596813e-03  0 
 -1.764222e-03  -3.575056e-03  0 
 -1.252106e-03  -3.579371e-03  0 
 -8.200912e-04  -3.616391e-03  0 
 -2.476843e-03  -4.331576e-03  0 
 -1.817751e-03  -4.318915e-03  0 
 -1.282667e-03  -4.304430e-03  0 
 -8.183052e-04  -4.327259e-03  0 
 -2.499301e-03  -5.179664e-03  0 
 -1.839539e-03  -5.070473e-03  0 
 -1.296909e-03  -4.990731e-03  0 
 -8.141198e-04  -4.980763e-03  0 
 -1.082211e-02  -9.253890e-03  0 
 -9.275588e-03  -9.275806e-03  0 
 -7.585532e-03  -9.215331e-03  0 
 -5.778752e-03  -9.113878e-03  0 
 -1.080719e-02  -1.088562e-02  0 
 -9.289936e-03  -1.101235e-02  0 
 -7.541892e-03  -1.112553e-02  0 
 -3.355648e-03  -9.631507e-03  0 
 -2.366463e-03  -9.094207e-03  0 
 -1.438193e-03  -9.653782e-03  0 
VECTORS displacement_ITER8 FLOAT
 0  0  0 
 -3.532435e-03  -6.461502e-03  0 
 -9.598485e-04  -5.693998e-04  0 
 -1.600015e-03  -1.120010e-03  0 
 -2.086675e-03  -1.690904e-03  0 
 -2.466989e-03  -2.283735e-03  0 
 -2.765783e-03  -2.902383e-03  0 
 -3.004799e-03  -3.555471e-03  0 
 -3.209249e-03  -4.267837e-03  0 
 -3.407730e-03  -5.107441e-03  0 
 -8.029683e-21  -1.061249e-19  0 
 0  0  0 
 0  0  0 
 0  0  0 
 -1.072076e-02  -7.611423e-03  0 
 -9.176365e-03  -7.454316e-03  0 
 -7.488122e-03  -7.263779e-03  0 
 -5.668749e-03  -6.976134e-03  0 
 0  0  0 
 0  0  0 
 0  0  0 
 9.591709e-21  1.093100e-20  0 
 -2.547037e-03  -5.941862e-03  0 
 -1.878843e-03  -5.653575e-03  0 
 -1.310586e-03  -5.499959e-03  0 
 -7.806891e-04  -5.437375e-03  0 
 -3.590178e-03  -8.998749e-03  0 
 -8.906203e-04  -1.292991e-03  0 
 -7.073766e-04  -1.145979e-03  0 
 -6.568648e-04  -1.023890e-03  0 
 -6.687079e-04  -8.768432e-04  0 
 -1.564909e-03  -2.203610e-03  0 
 -1.509472e-03  -2.043534e-03  0 
 -1.414388e-03  -1.798877e-03  0 
 -1.421105e-03  -1.492270e-03  0 
 -2.389339e-03  -2.858933e-03  0 
 -2.353993e-03  -2.676544e-03  0 
 -2.221350e-03  -2.401115e-03  0 
 -2.110920e-03  -2.059513e-03  0 
 -3.407440e-03  -3.389864e-03  0 
 -3.270202e-03  -3.196530e-03  0 
 -3.011637e-03  -2.932709e-03  0 
 -2.724705e-03  -2.616894e-03  0 
 -4.602095e-03  -3.918075e-03  0 
 -4.260326e-03  -3.729986e-03  0 
 -3.792011e-03  -3.482991e-03  0 
 -3.276309e-03  -3.196265e-03  0 
 -5.946425e-03  -4.560045e-03  0 
 -5.330271e-03  -4.377738e-03  0 
 -4.594233e-03  -4.124472e-03  0 
 -3.798214e-03  -3.836113e-03  0 
 -7.406782e-03  -5.410108e-03  0 
 -6.500936e-03  -5.212803e-03  0 
 -5.469959e-03  -4.921312e-03  0 
 -4.332491e-03  -4.591453e-03  0 
 -8.958361e-03  -6.494843e-03  0 
 -7.804922e-03  -6.232112e-03  0 
 -6.452476e-03  -5.954135e-03  0 
 -4.938072e-03  -5.571645e-03  0 
 -5.670222e-04  -3.973231e-04  0 
 -3.986996e-04  -3.631404e-04  0 
 -2.793386e-04  -3.546019e-04  0 
 -1.397363e-04  -3.401910e-04  0 
 -1.122467e-03  -9.714650e-04  0 
 -7.907726e-04  -8.812837e-04  0 
 -5.607297e-04  -8.566538e-04  0 
 -3.670404e-04  -8.426684e-04  0 
 -1.564454e-03  -1.570841e-03  0 
 -1.147688e-03  -1.486735e-03  0 
 -8.278125e-04  -1.449236e-03  0 
 -5.830204e-04  -1.439475e-03  0 
 -1.906816e-03  -2.190274e-03  0 
 -1.432263e-03  -2.124931e-03  0 
 -1.046266e-03  -2.097581e-03  0 
 -7.432590e-04  -2.105533e-03  0 
 -2.164958e-03  -2.831240e-03  0 
 -1.636444e-03  -2.787962e-03  0 
 -1.190789e-03  -2.780268e-03  0 
 -8.279368e-04  -2.813222e-03  0 
 -2.349326e-03  -3.503145e-03  0 
 -1.760472e-03  -3.480661e-03  0 
 -1.259783e-03  -3.486588e-03  0 
 -8.420156e-04  -3.531186e-03  0 
 -2.462497e-03  -4.228388e-03  0 
 -1.810064e-03  -4.213829e-03  0 