# vtk DataFile Version 3.1
this is an vtk file created by FEMAC
ASCII
DATASET UNSTRUCTURED_GRID
POINTS 106 FLOAT
4.000000 6.000000 0.000000
5.000000 6.000000 0.000000
3.222222 6.000000 0.000000
3.333333 6.000000 0.000000
3.444444 6.000000 0.000000
3.555556 6.000000 0.000000
3.666667 6.000000 0.000000
3.777778 6.000000 0.000000
3.888889 6.000000 0.000000
4.000000 5.333333 0.000000
4.000000 5.444444 0.000000
4.000000 5.555556 0.000000
4.000000 5.666667 0.000000
4.000000 5.777778 0.000000
4.000000 5.888889 0.000000
4.111111 6.000000 0.000000
4.222222 6.000000 0.000000
4.333333 6.000000 0.000000
4.444444 6.000000 0.000000
4.555556 6.000000 0.000000
4.666667 6.000000 0.000000
4.777778 6.000000 0.000000
4.888889 6.000000 0.000000
5.000000 5.777778 0.000000
5.000000 5.888889 0.000000
3.222222 5.666667 0.000000
3.222222 5.777778 0.000000
3.222222 5.888889 0.000000
3.333333 5.111111 0.000000
3.333333 5.222222 0.000000
3.333333 5.333333 0.000000
3.333333 5.444444 0.000000
3.333333 5.555556 0.000000
3.333333 5.666667 0.000000
3.333333 5.777778 0.000000
3.333333 5.888889 0.000000
3.444444 5.111111 0.000000
3.444444 5.222222 0.000000
3.444444 5.333333 0.000000
3.444444 5.444444 0.000000
3.444444 5.555556 0.000000
3.444444 5.666667 0.000000
3.444444 5.777778 0.000000
3.444444 5.888889 0.000000
3.555556 5.111111 0.000000
3.555556 5.222222 0.000000
3.555556 5.333333 0.000000
3.555556 5.444444 0.000000
3.555556 5.555556 0.000000
3.555556 5.666667 0.000000
3.555556 5.777778 0.000000
3.555556 5.888889 0.000000
3.666667 5.111111 0.000000
3.666667 5.222222 0.000000
3.666667 5.333333 0.000000
3.666667 5.444444 0.000000
3.666667 5.555556 0.000000
3.666667 5.666667 0.000000
3.666667 5.777778 0.000000
3.666667 5.888889 0.000000
3.777778 5.222222 0.000000
3.777778 5.333333 0.000000
3.777778 5.444444 0.000000
3.777778 5.555556 0.000000
3.777778 5.666667 0.000000
3.777778 5.777778 0.000000
3.777778 5.888889 0.000000
3.888889 5.222222 0.000000
3.888889 5.333333 0.000000
3.888889 5.444444 0.000000
3.888889 5.555556 0.000000
3.888889 5.666667 0.000000
3.888889 5.777778 0.000000
3.888889 5.888889 0.000000
4.111111 5.333333 0.000000
4.111111 5.444444 0.000000
4.111111 5.555556 0.000000
4.111111 5.666667 0.000000
4.111111 5.777778 0.000000
4.111111 5.888889 0.000000
4.222222 5.444444 0.000000
4.222222 5.555556 0.000000
4.222222 5.666667 0.000000
4.222222 5.777778 0.000000
4.222222 5.888889 0.000000
4.333333 5.444444 0.000000
4.333333 5.555556 0.000000
4.333333 5.666667 0.000000
4.333333 5.777778 0.000000
4.333333 5.888889 0.000000
4.444444 5.555556 0.000000
4.444444 5.666667 0.000000
4.444444 5.777778 0.000000
4.444444 5.888889 0.000000
4.555556 5.555556 0.000000
4.555556 5.666667 0.000000
4.555556 5.777778 0.000000
4.555556 5.888889 0.000000
4.666667 5.666667 0.000000
4.666667 5.777778 0.000000
4.666667 5.888889 0.000000
4.777778 5.666667 0.000000
4.777778 5.777778 0.000000
4.777778 5.888889 0.000000
4.888889 5.777778 0.000000
4.888889 5.888889 0.000000
CELLS 81 405 
4 25 33 34 26
4 26 34 35 27
4 27 35  3  2
4 28 36 37 29
4 29 37 38 30
4 30 38 39 31
4 31 39 40 32
4 32 40 41 33
4 33 41 42 34
4 34 42 43 35
4 35 43  4  3
4 36 44 45 37
4 37 45 46 38
4 38 46 47 39
4 39 47 48 40
4 40 48 49 41
4 41 49 50 42
4 42 50 51 43
4 43 51  5  4
4 44 52 53 45
4 45 53 54 46
4 46 54 55 47
4 47 55 56 48
4 48 56 57 49
4 49 57 58 50
4 50 58 59 51
4 51 59  6  5
4 53 60 61 54
4 54 61 62 55
4 55 62 63 56
4 56 63 64 57
4 57 64 65 58
4 58 65 66 59
4 59 66  7  6
4 60 67 68 61
4 61 68 69 62
4 62 69 70 63
4 63 70 71 64
4 64 71 72 65
4 65 72 73 66
4 66 73  8  7
4 68  9 10 69
4 69 10 11 70
4 70 11 12 71
4 71 12 13 72
4 72 13 14 73
4 73 14  0  8
4 9 74 75 10
4 10 75 76 11
4 11 76 77 12
4 12 77 78 13
4 13 78 79 14
4 14 79 15  0
4 75 80 81 76
4 76 81 82 77
4 77 82 83 78
4 78 83 84 79
4 79 84 16 15
4 80 85 86 81
4 81 86 87 82
4 82 87 88 83
4 83 88 89 84
4 84 89 17 16
4 86 90 91 87
4 87 91 92 88
4 88 92 93 89
4 89 93 18 17
4 90 94 95 91
4 91 95 96 92
4 92 96 97 93
4 93 97 19 18
4 95 98 99 96
4 96  99 100  97
4 97 100  20  19
4 98 101 102  99
4 99 102 103 100
4 100 103  21  20
4 102 104 105 103
4 103 105  22  21
4 104  23  24 105
4 105  24   1  22
CELL_TYPES 81
9 9 9 9 9 9 9 9 9 9 9 9 9 9 9 9 9 9 9 9 9 9 9 9 9 9 9 9 9 9 9 9 9 9 9 9 9 9 9 9 9 9 9 9 9 9 9 9 9 9 9 9 9 9 9 9 9 9 9 9 9 9 9 9 9 9 9 9 9 9 9 9 9 9 9 9 9 9 9 9 9 
POINT_DATA 106
VECTORS displacement_ITER1 FLOAT
 8.190558e-02  -1.119397e-01  0 
 1.000926e-01  -1.390644e-01  0 
 8.243640e-02  -8.884452e-02  0 
 8.225362e-02  -9.243159e-02  0 
 8.209795e-02  -9.582071e-02  0 
 8.196566e-02  -9.911659e-02  0 
 8.188439e-02  -1.023396e-01  0 
 8.185598e-02  -1.055300e-01  0 
 8.186985e-02  -1.087202e-01  0 
 6.285802e-02  -1.114725e-01  0 
 6.600710e-02  -1.115606e-01  0 
 6.913124e-02  -1.116819e-01  0 
 7.229159e-02  -1.117887e-01  0 
 7.547880e-02  -1.118659e-01  0 
 7.868252e-02  -1.119132e-01  0 
 8.454160e-02  -1.166826e-01  0 
 8.635200e-02  -1.210452e-01  0 
 8.792130e-02  -1.251487e-01  0 
 8.937509e-02  -1.289776e-01  0 
 9.076743e-02  -1.324782e-01  0 
 9.211025e-02  -1.354826e-01  0 
 9.347902e-02  -1.375793e-01  0 
 9.552552e-02  -1.385103e-01  0 
 9.443245e-02  -1.386979e-01  0 
 9.596233e-02  -1.389607e-01  0 
 7.180278e-02  -8.904591e-02  0 
 7.546426e-02  -8.898392e-02  0 
 7.876853e-02  -8.890990e-02  0 
 5.659951e-02  -9.321936e-02  0 
 5.966123e-02  -9.318551e-02  0 
 6.274539e-02  -9.317685e-02  0 
 6.583024e-02  -9.307124e-02  0 
 6.897728e-02  -9.292478e-02  0 
 7.211756e-02  -9.270642e-02  0 
 7.539643e-02  -9.253499e-02  0 
 7.880482e-02  -9.245503e-02  0 
 5.679053e-02  -9.625946e-02  0 
 5.976029e-02  -9.626034e-02  0 
 6.278475e-02  -9.620821e-02  0 
 6.584688e-02  -9.613846e-02  0 
 6.895467e-02  -9.604216e-02  0 
 7.213170e-02  -9.595373e-02  0 
 7.540338e-02  -9.589717e-02  0 
 7.874551e-02  -9.586092e-02  0 
 5.691586e-02  -9.928379e-02  0 
 5.982307e-02  -9.927156e-02  0 
 6.281474e-02  -9.924644e-02  0 
 6.586936e-02  -9.921205e-02  0 
 6.898247e-02  -9.917886e-02  0 
 7.216635e-02  -9.915835e-02  0 
 7.541298e-02  -9.914974e-02  0 
 7.869305e-02  -9.913984e-02  0 
 5.699749e-02  -1.022210e-01  0 
 5.984330e-02  -1.022751e-01  0 
 6.284577e-02  -1.022841e-01  0 
 6.589856e-02  -1.022907e-01  0 
 6.901873e-02  -1.023042e-01  0 
 7.219956e-02  -1.023248e-01  0 
 7.542262e-02  -1.023421e-01  0 
 7.866195e-02  -1.023483e-01  0 
 5.987604e-02  -1.052896e-01  0 
 6.286592e-02  -1.053179e-01  0 
 6.592554e-02  -1.053638e-01  0 
 6.905486e-02  -1.054226e-01  0 
 7.222943e-02  -1.054734e-01  0 
 7.543521e-02  -1.055092e-01  0 
 7.865276e-02  -1.055267e-01  0 
 5.997360e-02  -1.081744e-01  0 
 6.287445e-02  -1.083260e-01  0 
 6.596237e-02  -1.084497e-01  0 
 6.909221e-02  -1.085465e-01  0 
 7.225845e-02  -1.086228e-01  0 
 7.545305e-02  -1.086776e-01  0 
 7.866169e-02  -1.087078e-01  0 
 6.255716e-02  -1.135059e-01  0 
 6.654486e-02  -1.143306e-01  0 
 6.996141e-02  -1.149558e-01  0 
 7.333796e-02  -1.153732e-01  0 
 7.680045e-02  -1.157494e-01  0 
 8.038612e-02  -1.161096e-01  0 
 6.767947e-02  -1.175397e-01  0 
 7.101863e-02  -1.182986e-01  0 
 7.467024e-02  -1.190498e-01  0 
 7.837717e-02  -1.197652e-01  0 
 8.223817e-02  -1.204536e-01  0 
 6.819690e-02  -1.209270e-01  0 
 7.228513e-02  -1.218374e-01  0 
 7.630534e-02  -1.228509e-01  0 
 8.012904e-02  -1.237464e-01  0 
 8.399552e-02  -1.245581e-01  0 
 7.414034e-02  -1.256454e-01  0 
 7.805391e-02  -1.265696e-01  0 
 8.200964e-02  -1.275715e-01  0 
 8.572117e-02  -1.284089e-01  0 
 7.475074e-02  -1.299120e-01  0 
 8.005191e-02  -1.303253e-01  0 
 8.403133e-02  -1.311206e-01  0 
 8.746206e-02  -1.318933e-01  0 
 8.305102e-02  -1.330103e-01  0 
 8.617624e-02  -1.340051e-01  0 
 8.939853e-02  -1.348832e-01  0 
 8.378920e-02  -1.366569e-01  0 
 8.877573e-02  -1.365707e-01  0 
 9.164423e-02  -1.370727e-01  0 
 9.251176e-02  -1.375150e-01  0 
 9.409528e-02  -1.379894e-01  0 
VECTORS displacement_ITER2 FLOAT
 8.428529e-02  -1.020322e-01  0 
 9.868056e-02  -1.276291e-01  0 
 8.448918e-02  -7.694804e-02  0 
 8.439217e-02  -8.071238e-02  0 
 8.431886e-02  -8.433443e-02  0 
 8.425980e-02  -8.790477e-02  0 
 8.422784e-02  -9.143793e-02  0 
 8.422551e-02  -9.495638e-02  0 
 8.424884e-02  -9.847999e-02  0 
 6.330824e-02  -1.016098e-01  0 
 6.674703e-02  -1.017078e-01  0 
 7.020389e-02  -1.018133e-01  0 
 7.369118e-02  -1.019013e-01  0 
 7.720239e-02  -1.019654e-01  0 
 8.073167e-02  -1.020071e-01  0 
 8.661357e-02  -1.071921e-01  0 
 8.782372e-02  -1.118243e-01  0 
 8.861688e-02  -1.158872e-01  0 
 8.924278e-02  -1.193218e-01  0 
 8.989900e-02  -1.220986e-01  0 
 9.078254e-02  -1.242172e-01  0 
 9.209533e-02  -1.256035e-01  0 
 9.441500e-02  -1.265641e-01  0 
 9.265629e-02  -1.256693e-01  0 
 9.453662e-02  -1.276775e-01  0 
 7.340197e-02  -7.709381e-02  0 
 7.713553e-02  -7.705533e-02  0 
 8.067693e-02  -7.699946e-02  0 
 5.616121e-02  -8.119191e-02  0 
 5.968865e-02  -8.118631e-02  0 
 6.316901e-02  -8.117503e-02  0 
 6.662545e-02  -8.108781e-02  0 
 7.010747e-02  -8.098380e-02  0 
 7.357418e-02  -8.084819e-02  0 
 7.711078e-02  -8.075470e-02  0 
 8.073082e-02  -8.071687e-02  0 
 5.642077e-02  -8.469388e-02  0 
 5.978686e-02  -8.467450e-02  0 
 6.319707e-02  -8.461197e-02  0 
 6.662784e-02  -8.454396e-02  0 
 7.008534e-02  -8.446640e-02  0 
 7.358042e-02  -8.440198e-02  0 
 7.712808e-02  -8.436620e-02  0 
 8.071856e-02  -8.435109e-02  0 
 5.658176e-02  -8.808496e-02  0 
 5.985756e-02  -8.806054e-02  0 
 6.321924e-02  -8.802550e-02  0 
 6.663672e-02  -8.798557e-02  0 
 7.009505e-02  -8.794974e-02  0 
 7.359840e-02  -8.792706e-02  0 
 7.713989e-02  -8.791811e-02  0 
 8.070145e-02  -8.791390e-02  0 
 5.668907e-02  -9.135837e-02  0 
 5.990106e-02  -9.139964e-02  0 
 6.324845e-02  -9.141693e-02  0 
 6.665364e-02  -9.141583e-02  0 
 7.011392e-02  -9.141804e-02  0 
 7.361753e-02  -9.142621e-02  0 
 7.714972e-02  -9.143473e-02  0 
 8.069325e-02  -9.143950e-02  0 
 5.991799e-02  -9.479176e-02  0 
 6.326716e-02  -9.479833e-02  0 
 6.667447e-02  -9.483478e-02  0 
 7.013841e-02  -9.487807e-02  0 
 7.363777e-02  -9.491299e-02  0 
 7.716197e-02  -9.493751e-02  0 
 8.069714e-02  -9.495073e-02  0 
 5.993819e-02  -9.808292e-02  0 
 6.327674e-02  -9.816342e-02  0 
 6.670783e-02  -9.826399e-02  0 
 7.016825e-02  -9.834050e-02  0 
 7.366140e-02  -9.840089e-02  0 
 7.717879e-02  -9.844387e-02  0 
 8.071125e-02  -9.846826e-02  0 
 6.334841e-02  -1.053971e-01  0 
 6.762126e-02  -1.057120e-01  0 
 7.130773e-02  -1.060115e-01  0 
 7.486006e-02  -1.062787e-01  0 
 7.845867e-02  -1.065326e-01  0 
 8.219373e-02  -1.067606e-01  0 
 6.901981e-02  -1.095727e-01  0 
 7.255476e-02  -1.099846e-01  0 
 7.623038e-02  -1.104613e-01  0 
 7.985592e-02  -1.109376e-01  0 
 8.366160e-02  -1.114283e-01  0 
 6.977842e-02  -1.134589e-01  0 
 7.405089e-02  -1.138142e-01  0 
 7.781406e-02  -1.143678e-01  0 
 8.134114e-02  -1.149469e-01  0 
 8.493073e-02  -1.155232e-01  0 
 7.633654e-02  -1.169562e-01  0 
 7.948945e-02  -1.176833e-01  0 
 8.290963e-02  -1.183962e-01  0 
 8.612124e-02  -1.189846e-01  0 
 7.726787e-02  -1.202315e-01  0 
 8.144104e-02  -1.205990e-01  0 
 8.459913e-02  -1.211937e-01  0 
 8.733799e-02  -1.217229e-01  0 
 8.430758e-02  -1.222126e-01  0 
 8.634479e-02  -1.230661e-01  0 
 8.878678e-02  -1.237373e-01  0 
 8.526929e-02  -1.240721e-01  0 
 8.837139e-02  -1.244706e-01  0 
 9.062356e-02  -1.250973e-01  0 
 9.108280e-02  -1.252756e-01  0 
 9.269415e-02  -1.257819e-01  0 
VECTORS displacement_ITER3 FLOAT
 7.915585e-02  -9.868728e-02  0 
 9.183332e-02  -1.201258e-01  0 
 7.910469e-02  -7.569754e-02  0 
 7.911521e-02  -7.901505e-02  0 
 7.911097e-02  -8.230219e-02  0 
 7.910022e-02  -8.557804e-02  0 
 7.909522e-02  -8.884538e-02  0 
 7.910291e-02  -9.211196e-02  0 
 7.912537e-02  -9.538724e-02  0 
 5.965250e-02  -9.827082e-02  0 
 6.287081e-02  -9.837784e-02  0 
 6.607288e-02  -9.849217e-02  0 
 6.931220e-02  -9.857623e-02  0 
 7.257552e-02  -9.863196e-02  0 
 7.585504e-02  -9.866665e-02  0 
 8.100056e-02  -1.033440e-01  0 
 8.186424e-02  -1.075016e-01  0 
 8.237368e-02  -1.110910e-01  0 
 8.276534e-02  -1.140580e-01  0 
 8.322568e-02  -1.163766e-01  0 
 8.393857e-02  -1.180327e-01  0 
 8.513291e-02  -1.189549e-01  0 
 8.744774e-02  -1.195020e-01  0 
 8.583706e-02  -1.183503e-01  0 
 8.798549e-02  -1.202129e-01  0 
 6.930855e-02  -7.575515e-02  0 
 7.258265e-02  -7.572334e-02  0 
 7.579661e-02  -7.570165e-02  0 
 5.272831e-02  -7.913210e-02  0 
 5.615178e-02  -7.916587e-02  0 
 5.950520e-02  -7.919371e-02  0 
 6.280381e-02  -7.916799e-02  0 
 6.608085e-02  -7.912295e-02  0 
 6.933842e-02  -7.907066e-02  0 
 7.256795e-02  -7.902947e-02  0 
 7.582972e-02  -7.901238e-02  0 
 5.301092e-02  -8.251460e-02  0 
 5.628192e-02  -8.252376e-02  0 
 5.955541e-02  -8.249353e-02  0 
 6.281172e-02  -8.245095e-02  0 
 6.606139e-02  -8.239919e-02  0 
 6.930995e-02  -8.234923e-02  0 
 7.256511e-02  -8.231726e-02  0 
 7.583260e-02  -8.230619e-02  0 
 5.325140e-02  -8.575254e-02  0 
 5.639836e-02  -8.576989e-02  0 
 5.960156e-02  -8.574503e-02  0 
 6.281625e-02  -8.569751e-02  0 
 6.604494e-02  -8.564863e-02  0 
 6.929267e-02  -8.561117e-02  0 
 7.255621e-02  -8.558955e-02  0 
 7.582782e-02  -8.558096e-02  0 
 5.337269e-02  -8.896971e-02  0 
 5.649810e-02  -8.897248e-02  0 
 5.964378e-02  -8.893761e-02  0 
 6.281466e-02  -8.889921e-02  0 
 6.603104e-02  -8.887025e-02  0 
 6.928096e-02  -8.885463e-02  0 
 7.254931e-02  -8.884737e-02  0 
 7.582423e-02  -8.884530e-02  0 
 5.664099e-02  -9.204154e-02  0 
 5.966858e-02  -9.205410e-02  0 
 6.281096e-02  -9.205603e-02  0 
 6.602711e-02  -9.207298e-02  0 
 6.927851e-02  -9.208901e-02  0 
 7.254901e-02  -9.210033e-02  0 
 7.582771e-02  -9.210716e-02  0 
 5.678349e-02  -9.494933e-02  0 
 5.968199e-02  -9.509150e-02  0 
 6.282822e-02  -9.520106e-02  0 
 6.604182e-02  -9.527521e-02  0 
 6.928885e-02  -9.532570e-02  0 
 7.255753e-02  -9.535913e-02  0 
 7.583879e-02  -9.537773e-02  0 
 5.828446e-02  -1.019004e-01  0 
 6.355244e-02  -1.021027e-01  0 
 6.699268e-02  -1.023223e-01  0 
 7.027269e-02  -1.025741e-01  0 
 7.358060e-02  -1.028109e-01  0 
 7.699891e-02  -1.030069e-01  0 
 6.481037e-02  -1.054447e-01  0 
 6.806311e-02  -1.058837e-01  0 
 7.143099e-02  -1.063329e-01  0 
 7.472034e-02  -1.067678e-01  0 
 7.814531e-02  -1.071929e-01  0 
 6.550472e-02  -1.088851e-01  0 
 6.941596e-02  -1.092396e-01  0 
 7.279801e-02  -1.097664e-01  0 
 7.595514e-02  -1.102978e-01  0 
 7.913639e-02  -1.108041e-01  0 
 7.146661e-02  -1.119046e-01  0 
 7.427604e-02  -1.126001e-01  0 
 7.729077e-02  -1.132564e-01  0 
 8.008711e-02  -1.137826e-01  0 
 7.235522e-02  -1.146468e-01  0 
 7.601036e-02  -1.150202e-01  0 
 7.876347e-02  -1.155625e-01  0 
 8.110616e-02  -1.160520e-01  0 
 7.852216e-02  -1.162340e-01  0 
 8.033096e-02  -1.170067e-01  0 
 8.238805e-02  -1.176106e-01  0 
 7.933611e-02  -1.177932e-01  0 
 8.216190e-02  -1.180328e-01  0 
 8.406355e-02  -1.184987e-01  0 
 8.460989e-02  -1.183168e-01  0 
 8.603930e-02  -1.187057e-01  0 
VECTORS displacement_ITER4 FLOAT
 7.480081e-02  -9.512348e-02  0 
 8.808905e-02  -1.178237e-01  0 
 7.460289e-02  -7.316973e-02  0 
 7.466596e-02  -7.626224e-02  0 
 7.469686e-02  -7.938134e-02  0 
 7.471269e-02  -8.251074e-02  0 
 7.472529e-02  -8.564674e-02  0 
 7.474264e-02  -8.878988e-02  0 
 7.476916e-02  -9.194428e-02  0 
 5.603333e-02  -9.467550e-02  0 
 5.911249e-02  -9.482756e-02  0 
 6.220259e-02  -9.494032e-02  0 
 6.532354e-02  -9.501889e-02  0 
 6.846485e-02  -9.507013e-02  0 
 7.162161e-02  -9.510293e-02  0 
 7.665533e-02  -9.966963e-02  0 
 7.750220e-02  -1.036432e-01  0 
 7.802603e-02  -1.069927e-01  0 
 7.850605e-02  -1.097196e-01  0 
 7.915247e-02  -1.118754e-01  0 
 8.016619e-02  -1.135752e-01  0 
 8.171995e-02  -1.148994e-01  0 
 8.424508e-02  -1.162934e-01  0 
 8.129789e-02  -1.154850e-01  0 
 8.435293e-02  -1.177508e-01  0 
 6.543763e-02  -7.318502e-02  0 
 6.849282e-02  -7.315154e-02  0 
 7.155185e-02  -7.315473e-02  0 
 4.928208e-02  -7.627279e-02  0 
 5.262143e-02  -7.631591e-02  0 
 5.588129e-02  -7.633882e-02  0 
 5.908234e-02  -7.632128e-02  0 
 6.224713e-02  -7.628776e-02  0 
 6.540119e-02  -7.627790e-02  0 
 6.848194e-02  -7.626455e-02  0 
 7.156881e-02  -7.625625e-02  0 
 4.957989e-02  -7.955389e-02  0 
 5.275559e-02  -7.956826e-02  0 
 5.592984e-02  -7.954093e-02  0 
 5.908298e-02  -7.950006e-02  0 
 6.222640e-02  -7.945736e-02  0 
 6.535572e-02  -7.941497e-02  0 
 6.846876e-02  -7.938687e-02  0 
 7.157799e-02  -7.937880e-02  0 
 4.983509e-02  -8.268567e-02  0 
 5.288117e-02  -8.270532e-02  0 
 5.597506e-02  -8.268067e-02  0 
 5.908026e-02  -8.263230e-02  0 
 6.219630e-02  -8.258219e-02  0 
 6.532180e-02  -8.254244e-02  0 
 6.845137e-02  -8.251800e-02  0 
 7.158137e-02  -8.250931e-02  0 
 4.997835e-02  -8.578553e-02  0 
 5.299496e-02  -8.578205e-02  0 
 5.601310e-02  -8.575099e-02  0 
 5.906811e-02  -8.570904e-02  0 
 6.216952e-02  -8.567709e-02  0 
 6.529883e-02  -8.565793e-02  0 
 6.843982e-02  -8.564740e-02  0 
 7.158372e-02  -8.564433e-02  0 
 5.312357e-02  -8.873871e-02  0 
 5.602493e-02  -8.873849e-02  0 
 5.905493e-02  -8.873915e-02  0 
 6.215802e-02  -8.875572e-02  0 
 6.529081e-02  -8.876962e-02  0 
 6.843792e-02  -8.877841e-02  0 
 7.159120e-02  -8.878411e-02  0 
 5.320710e-02  -9.153407e-02  0 
 5.601609e-02  -9.165838e-02  0 
 5.906804e-02  -9.176409e-02  0 
 6.217056e-02  -9.183854e-02  0 
 6.529985e-02  -9.188697e-02  0 
 6.844651e-02  -9.191770e-02  0 
 7.160453e-02  -9.193475e-02  0 
 5.698356e-02  -9.849406e-02  0 
 6.027357e-02  -9.846972e-02  0 
 6.340999e-02  -9.874088e-02  0 
 6.645524e-02  -9.895980e-02  0 
 6.956856e-02  -9.916262e-02  0 
 7.281144e-02  -9.933922e-02  0 
 6.191079e-02  -1.017269e-01  0 
 6.471034e-02  -1.021216e-01  0 
 6.774201e-02  -1.025394e-01  0 
 7.078216e-02  -1.029407e-01  0 
 7.399194e-02  -1.033418e-01  0 
 6.299566e-02  -1.046745e-01  0 
 6.620852e-02  -1.051807e-01  0 
 6.920021e-02  -1.057257e-01  0 
 7.205792e-02  -1.062180e-01  0 
 7.501207e-02  -1.067004e-01  0 
 6.835696e-02  -1.076193e-01  0 
 7.067752e-02  -1.082681e-01  0 
 7.338260e-02  -1.088888e-01  0 
 7.600632e-02  -1.094176e-01  0 
 6.954758e-02  -1.096322e-01  0 
 7.227891e-02  -1.103438e-01  0 
 7.481326e-02  -1.109958e-01  0 
 7.708323e-02  -1.115087e-01  0 
 7.444038e-02  -1.117382e-01  0 
 7.625557e-02  -1.124576e-01  0 
 7.840210e-02  -1.130767e-01  0 
 7.532783e-02  -1.130760e-01  0 
 7.780299e-02  -1.136992e-01  0 
 8.010193e-02  -1.143387e-01  0 
 7.994299e-02  -1.148168e-01  0 
 8.208619e-02  -1.153557e-01  0 
VECTORS displacement_ITER5 FLOAT
 7.509346e-02  -9.242506e-02  0 
 9.004136e-02  -1.164724e-01  0 
 7.490343e-02  -7.080307e-02  0 
 7.496077e-02  -7.385124e-02  0 
 7.499558e-02  -7.691483e-02  0 
 7.501526e-02  -7.999338e-02  0 
 7.502876e-02  -8.308257e-02  0 
 7.504406e-02  -8.618157e-02  0 
 7.506646e-02  -8.929242e-02  0 
 5.663850e-02  -9.194481e-02  0 
 5.962177e-02  -9.212253e-02  0 
 6.266088e-02  -9.224898e-02  0 
 6.574173e-02  -9.233009e-02  0 
 6.884455e-02  -9.237845e-02  0 
 7.196037e-02  -9.240733e-02  0 
 7.678855e-02  -9.665827e-02  0 
 7.779847e-02  -1.004209e-01  0 
 7.868038e-02  -1.037683e-01  0 
 7.962353e-02  -1.067579e-01  0 
 8.072633e-02  -1.094508e-01  0 
 8.203760e-02  -1.118569e-01  0 
 8.362552e-02  -1.138304e-01  0 
 8.593528e-02  -1.153479e-01  0 
 8.289946e-02  -1.158109e-01  0 
 8.616824e-02  -1.164481e-01  0 
 6.587314e-02  -7.079180e-02  0 
 6.888399e-02  -7.078288e-02  0 
 7.189210e-02  -7.079934e-02  0 
 4.970417e-02  -7.375779e-02  0 
 5.316537e-02  -7.383004e-02  0 
 5.646881e-02  -7.387092e-02  0 
 5.966395e-02  -7.386504e-02  0 
 6.277645e-02  -7.383887e-02  0 
 6.584803e-02  -7.383440e-02  0 
 6.888290e-02  -7.384067e-02  0 
 7.191628e-02  -7.384082e-02  0 
 5.006493e-02  -7.710246e-02  0 
 5.330690e-02  -7.712230e-02  0 
 5.650629e-02  -7.708693e-02  0 
 5.964455e-02  -7.703371e-02  0 
 6.274312e-02  -7.697937e-02  0 
 6.581714e-02  -7.693769e-02  0 
 6.887469e-02  -7.691510e-02  0 
 7.193012e-02  -7.691046e-02  0 
 5.039909e-02  -8.023902e-02  0 
 5.345810e-02  -8.026603e-02  0 
 5.654886e-02  -8.022535e-02  0 
 5.962646e-02  -8.015115e-02  0 
 6.270136e-02  -8.008066e-02  0 
 6.577836e-02  -8.002970e-02  0 
 6.885595e-02  -8.000120e-02  0 
 7.193395e-02  -7.999168e-02  0 
 5.058264e-02  -8.335785e-02  0 
 5.361504e-02  -8.332632e-02  0 
 5.658994e-02  -8.326876e-02  0 
 5.960235e-02  -8.319798e-02  0 
 6.266012e-02  -8.314211e-02  0 
 6.574368e-02  -8.310660e-02  0 
 6.883748e-02  -8.308744e-02  0 
 7.193367e-02  -8.308101e-02  0 
 5.378633e-02  -8.621275e-02  0 
 5.660707e-02  -8.619983e-02  0 
 5.958004e-02  -8.617968e-02  0 
 6.263390e-02  -8.617511e-02  0 
 6.572300e-02  -8.617435e-02  0 
 6.882739e-02  -8.617512e-02  0 
 7.193676e-02  -8.617726e-02  0 
 5.388289e-02  -8.892669e-02  0 
 5.660600e-02  -8.904758e-02  0 
 5.958398e-02  -8.913815e-02  0 
 6.263423e-02  -8.920242e-02  0 
 6.572270e-02  -8.924431e-02  0 
 6.882983e-02  -8.927023e-02  0 
 7.194599e-02  -8.928441e-02  0 
 5.769221e-02  -9.355581e-02  0 
 6.049591e-02  -9.481587e-02  0 
 6.362075e-02  -9.543512e-02  0 
 6.668408e-02  -9.577868e-02  0 
 6.983627e-02  -9.605550e-02  0 
 7.309317e-02  -9.630022e-02  0 
 6.195560e-02  -9.778805e-02  0 
 6.474787e-02  -9.841486e-02  0 
 6.783510e-02  -9.901341e-02  0 
 7.101255e-02  -9.955358e-02  0 
 7.431846e-02  -1.000451e-01  0 
 6.300255e-02  -1.003009e-01  0 
 6.600806e-02  -1.012431e-01  0 
 6.919536e-02  -1.020896e-01  0 
 7.231073e-02  -1.027677e-01  0 
 7.549606e-02  -1.033652e-01  0 
 6.767562e-02  -1.041194e-01  0 
 7.057979e-02  -1.048733e-01  0 
 7.369004e-02  -1.056522e-01  0 
 7.671973e-02  -1.063211e-01  0 
 6.871961e-02  -1.066246e-01  0 
 7.202295e-02  -1.074739e-01  0 
 7.519968e-02  -1.082689e-01  0 
 7.806170e-02  -1.089504e-01  0 
 7.390596e-02  -1.097858e-01  0 
 7.680136e-02  -1.105417e-01  0 
 7.964690e-02  -1.112861e-01  0 
 7.456788e-02  -1.125678e-01  0 
 7.861046e-02  -1.127827e-01  0 
 8.157289e-02  -1.132665e-01  0 
 8.128530e-02  -1.141821e-01  0 
 8.384436e-02  -1.146200e-01  0 
VECTORS displacement_ITER6 FLOAT
 7.533560e-02  -9.134807e-02  0 
 8.951759e-02  -1.151687e-01  0 
 7.512823e-02  -6.935421e-02  0 
 7.519610e-02  -7.244032e-02  0 
 7.523696e-02  -7.555473e-02  0 
 7.525964e-02  -7.868797e-02  0 
 7.527363e-02  -8.183391e-02  0 
 7.528827e-02  -8.499020e-02  0 
 7.530964e-02  -8.815841e-02  0 
 5.656056e-02  -9.084654e-02  0 
 5.958288e-02  -9.103584e-02  0 
 6.267549e-02  -9.116939e-02  0 
 6.581217e-02  -9.125305e-02  0 
 6.897209e-02  -9.130217e-02  0 
 7.214538e-02  -9.133086e-02  0 
 7.695364e-02  -9.561753e-02  0 
 7.789017e-02  -9.944531e-02  0 
 7.868465e-02  -1.028698e-01  0 
 7.952020e-02  -1.059348e-01  0 
 8.048871e-02  -1.086796e-01  0 
 8.163778e-02  -1.110762e-01  0 
 8.307253e-02  -1.129633e-01  0 
 8.528478e-02  -1.142945e-01  0 
 8.206384e-02  -1.150671e-01  0 
 8.560442e-02  -1.152055e-01  0 
 6.596368e-02  -6.931178e-02  0 
 6.901970e-02  -6.931959e-02  0 
 7.208376e-02  -6.934412e-02  0 
 4.946190e-02  -7.235705e-02  0 
 5.300255e-02  -7.242668e-02  0 
 5.637747e-02  -7.245566e-02  0 
 5.963633e-02  -7.244362e-02  0 
 6.280468e-02  -7.241701e-02  0 
 6.592815e-02  -7.241195e-02  0 
 6.902317e-02  -7.242516e-02  0 
 7.210530e-02  -7.242915e-02  0 
 4.983928e-02  -7.576583e-02  0 
 5.314980e-02  -7.578356e-02  0 
 5.641391e-02  -7.574192e-02  0 
 5.961365e-02  -7.568080e-02  0 
 6.276954e-02  -7.562088e-02  0 
 6.589974e-02  -7.557815e-02  0 
 6.901225e-02  -7.555499e-02  0 
 7.211978e-02  -7.554956e-02  0 
 5.019436e-02  -7.896049e-02  0 
 5.331307e-02  -7.898757e-02  0 
 5.645921e-02  -7.894167e-02  0 
 5.959333e-02  -7.886044e-02  0 
 6.272518e-02  -7.878394e-02  0 
 6.585830e-02  -7.872880e-02  0 
 6.899077e-02  -7.869753e-02  0 
 7.212321e-02  -7.868647e-02  0 
 5.041735e-02  -8.212090e-02  0 
 5.348562e-02  -8.209636e-02  0 
 5.650374e-02  -8.203929e-02  0 
 5.956829e-02  -8.196383e-02  0 
 6.268077e-02  -8.190277e-02  0 
 6.581993e-02  -8.186278e-02  0 
 6.896962e-02  -8.184067e-02  0 
 7.212190e-02  -8.183278e-02  0 
 5.365064e-02  -8.504540e-02  0 
 5.652293e-02  -8.502131e-02  0 
 5.954527e-02  -8.499808e-02  0 
 6.265148e-02  -8.498972e-02  0 
 6.579608e-02  -8.498613e-02  0 
 6.895728e-02  -8.498513e-02  0 
 7.212373e-02  -8.498631e-02  0 
 5.373105e-02  -8.781579e-02  0 
 5.652467e-02  -8.791705e-02  0 
 5.954695e-02  -8.800522e-02  0 
 6.264934e-02  -8.806913e-02  0 
 6.579392e-02  -8.811127e-02  0 
 6.895824e-02  -8.813691e-02  0 
 7.213186e-02  -8.815072e-02  0 
 5.680077e-02  -9.280468e-02  0 
 6.033687e-02  -9.391799e-02  0 
 6.352979e-02  -9.445511e-02  0 
 6.666769e-02  -9.478225e-02  0 
 6.988328e-02  -9.504735e-02  0 
 7.320236e-02  -9.527917e-02  0 
 6.160468e-02  -9.694763e-02  0 
 6.455054e-02  -9.754229e-02  0 
 6.772079e-02  -9.810560e-02  0 
 7.096857e-02  -9.862107e-02  0 
 7.434199e-02  -9.909254e-02  0 
 6.263710e-02  -9.955395e-02  0 
 6.571549e-02  -1.004554e-01  0 
 6.897685e-02  -1.012597e-01  0 
 7.217773e-02  -1.019203e-01  0 
 7.543005e-02  -1.024947e-01  0 
 6.721034e-02  -1.034078e-01  0 
 7.028987e-02  -1.041365e-01  0 
 7.347475e-02  -1.048893e-01  0 
 7.655774e-02  -1.055291e-01  0 
 6.825283e-02  -1.060374e-01  0 
 7.167551e-02  -1.068197e-01  0 
 7.490464e-02  -1.075611e-01  0 
 7.780380e-02  -1.082163e-01  0 
 7.344190e-02  -1.091666e-01  0 
 7.645858e-02  -1.098632e-01  0 
 7.929342e-02  -1.105578e-01  0 
 7.415895e-02  -1.119703e-01  0 
 7.823895e-02  -1.120577e-01  0 
 8.111765e-02  -1.124402e-01  0 
 8.071503e-02  -1.133114e-01  0 
 8.333832e-02  -1.136210e-01  0 
VECTORS displacement_ITER7 FLOAT
 7.549703e-02  -9.099069e-02  0 
 8.924924e-02  -1.144870e-01  0 
 7.527635e-02  -6.882825e-02  0 
 7.535255e-02  -7.192796e-02  0 
 7.539683e-02  -7.506645e-02  0 
 7.542083e-02  -7.822555e-02  0 
 7.543486e-02  -8.139811e-02  0 
 7.544936e-02  -8.458069e-02  0 
 7.547085e-02  -8.777489e-02  0 
 5.656213e-02  -9.047173e-02  0 
 5.962039e-02  -9.067112e-02  0 
 6.273788e-02  -9.080719e-02  0 
 6.589836e-02  -9.089280e-02  0 
 6.908254e-02  -9.094354e-02  0 
 7.228086e-02  -9.097319e-02  0 
 7.708776e-02  -9.531246e-02  0 
 7.793732e-02  -9.915161e-02  0 
 7.861631e-02  -1.025214e-01  0 
 7.933555e-02  -1.054624e-01  0 
 8.021718e-02  -1.080248e-01  0 
 8.135026e-02  -1.102319e-01  0 
 8.285264e-02  -1.120156e-01  0 
 8.514493e-02  -1.134193e-01  0 
 8.173971e-02  -1.141278e-01  0 
 8.539256e-02  -1.144845e-01  0 
 6.606110e-02  -6.876693e-02  0 
 6.913255e-02  -6.878541e-02  0 
 7.222230e-02  -6.881165e-02  0 
 4.947685e-02  -7.190957e-02  0 
 5.299955e-02  -7.196101e-02  0 
 5.638844e-02  -7.196600e-02  0 
 5.966949e-02  -7.194114e-02  0 
 6.286312e-02  -7.190986e-02  0 
 6.601430e-02  -7.189871e-02  0 
 6.913792e-02  -7.191173e-02  0 
 7.224125e-02  -7.191709e-02  0 
 4.983077e-02  -7.529864e-02  0 
 5.314855e-02  -7.531688e-02  0 
 5.642528e-02  -7.527287e-02  0 
 5.964673e-02  -7.520541e-02  0 
 6.282729e-02  -7.514009e-02  0 
 6.598409e-02  -7.509416e-02  0 
 6.912340e-02  -7.506815e-02  0 
 7.225549e-02  -7.506103e-02  0 
 5.018200e-02  -7.850689e-02  0 
 5.331536e-02  -7.853669e-02  0 
 5.647426e-02  -7.848992e-02  0 
 5.962675e-02  -7.840645e-02  0 
 6.278207e-02  -7.832720e-02  0 
 6.594095e-02  -7.826974e-02  0 
 6.909971e-02  -7.823662e-02  0 
 7.225828e-02  -7.822435e-02  0 
 5.042360e-02  -8.168090e-02  0 
 5.348683e-02  -8.166625e-02  0 
 5.651887e-02  -8.160552e-02  0 
 5.960195e-02  -8.152910e-02  0 
 6.273724e-02  -8.146781e-02  0 
 6.590193e-02  -8.142775e-02  0 
 6.907797e-02  -8.140536e-02  0 
 7.225667e-02  -8.139714e-02  0 
 5.364498e-02  -8.463306e-02  0 
 5.653513e-02  -8.460553e-02  0 
 5.957800e-02  -8.458250e-02  0 
 6.270868e-02  -8.457676e-02  0 
 6.587897e-02  -8.457542e-02  0 
 6.906606e-02  -8.457535e-02  0 
 7.225864e-02  -8.457677e-02  0 
 5.372407e-02  -8.741402e-02  0 
 5.653227e-02  -8.751659e-02  0 
 5.957993e-02  -8.761104e-02  0 
 6.270907e-02  -8.768071e-02  0 
 6.587851e-02  -8.772564e-02  0 
 6.906786e-02  -8.775266e-02  0 
 7.226709e-02  -8.776704e-02  0 
 5.692220e-02  -9.334679e-02  0 
 6.053425e-02  -9.387103e-02  0 
 6.369673e-02  -9.426542e-02  0 
 6.681954e-02  -9.454642e-02  0 
 7.001687e-02  -9.478500e-02  0 
 7.332274e-02  -9.499387e-02  0 
 6.188743e-02  -9.687939e-02  0 
 6.479196e-02  -9.741806e-02  0 
 6.791443e-02  -9.792115e-02  0 
 7.110122e-02  -9.838872e-02  0 
 7.442235e-02  -9.882778e-02  0 
 6.301678e-02  -9.951013e-02  0 
 6.604925e-02  -1.003116e-01  0 
 6.919548e-02  -1.010340e-01  0 
 7.229482e-02  -1.016414e-01  0 
 7.545231e-02  -1.021790e-01  0 
 6.765038e-02  -1.030606e-01  0 
 7.053552e-02  -1.037719e-01  0 
 7.356903e-02  -1.044832e-01  0 
 7.651751e-02  -1.050878e-01  0 
 6.883143e-02  -1.054172e-01  0 
 7.195097e-02  -1.062296e-01  0 
 7.497329e-02  -1.069645e-01  0 
 7.770622e-02  -1.075874e-01  0 
 7.369553e-02  -1.083766e-01  0 
 7.648202e-02  -1.090454e-01  0 
 7.914043e-02  -1.097146e-01  0 
 7.461989e-02  -1.106711e-01  0 
 7.817466e-02  -1.109733e-01  0 
 8.092717e-02  -1.114590e-01  0 
 8.037815e-02  -1.123870e-01  0 
 8.311044e-02  -1.126969e-01  0 
VECTORS displacement_ITER8 FLOAT
 7.542695e-02  -9.093969e-02  0 
 8.845220e-02  -1.146115e-01  0 
 7.528038e-02  -6.849311e-02  0 
 7.533088e-02  -7.166219e-02  0 
 7.535911e-02  -7.484930e-02  0 
 7.537070e-02  -7.804928e-02  0 
 7.537593e-02  -8.125685e-02  0 
 7.538486e-02  -8.447101e-02  0 
 7.540300e-02  -8.769516e-02  0 
 5.632186e-02  -9.040755e-02  0 
 5.940532e-02  -9.061192e-02  0 
 6.255053e-02  -9.075145e-02  0 
 6.573985e-02  -9.084019e-02  0 
 6.895378e-02  -9.089294e-02  0 
 7.218197e-02  -9.092296e-02  0 
 7.686993e-02  -9.521936e-02  0 
 7.760314e-02  -9.901580e-02  0 
 7.818310e-02  -1.023327e-01  0 
 7.882397e-02  -1.052162e-01  0 
 7.965266e-02  -1.077265e-01  0 
 8.076805e-02  -1.099147e-01  0 
 8.228234e-02  -1.117616e-01  0 
 8.455289e-02  -1.133363e-01  0 
 8.080581e-02  -1.141746e-01  0 
 8.464158e-02  -1.145764e-01  0 
 6.585225e-02  -6.843387e-02  0 
 6.900073e-02  -6.846077e-02  0 