# vtk DataFile Version 3.1
this is an vtk file created by FEMAC
ASCII
DATASET UNSTRUCTURED_GRID
POINTS 102 FLOAT
5.000000 2.000000 0.000000
6.000000 2.000000 0.000000
5.000000 2.111111 0.000000
5.000000 2.222222 0.000000
5.000000 2.333333 0.000000
5.000000 2.444444 0.000000
5.000000 2.555556 0.000000
5.000000 2.666667 0.000000
5.111111 2.000000 0.000000
5.222222 2.000000 0.000000
5.333333 2.000000 0.000000
5.444444 2.000000 0.000000
5.555556 2.000000 0.000000
5.666667 2.000000 0.000000
5.777778 2.000000 0.000000
5.888889 2.000000 0.000000
6.000000 1.777778 0.000000
6.000000 1.888889 0.000000
6.000000 2.111111 0.000000
6.000000 2.222222 0.000000
6.000000 2.333333 0.000000
6.000000 2.444444 0.000000
6.000000 2.555556 0.000000
6.000000 2.666667 0.000000
4.666667 2.111111 0.000000
4.666667 2.222222 0.000000
4.666667 2.333333 0.000000
4.666667 2.444444 0.000000
4.666667 2.555556 0.000000
4.666667 2.666667 0.000000
4.777778 2.111111 0.000000
4.777778 2.222222 0.000000
4.777778 2.333333 0.000000
4.777778 2.444444 0.000000
4.777778 2.555556 0.000000
4.777778 2.666667 0.000000
4.888889 2.111111 0.000000
4.888889 2.222222 0.000000
4.888889 2.333333 0.000000
4.888889 2.444444 0.000000
4.888889 2.555556 0.000000
4.888889 2.666667 0.000000
5.222222 1.888889 0.000000
5.333333 1.888889 0.000000
5.444444 1.777778 0.000000
5.444444 1.888889 0.000000
5.555556 1.777778 0.000000
5.555556 1.888889 0.000000
5.666667 1.777778 0.000000
5.666667 1.888889 0.000000
5.777778 1.777778 0.000000
5.777778 1.888889 0.000000
5.888889 1.777778 0.000000
5.888889 1.888889 0.000000
5.111111 2.111111 0.000000
5.111111 2.222222 0.000000
5.111111 2.333333 0.000000
5.111111 2.444444 0.000000
5.111111 2.555556 0.000000
5.111111 2.666667 0.000000
5.222222 2.111111 0.000000
5.222222 2.222222 0.000000
5.222222 2.333333 0.000000
5.222222 2.444444 0.000000
5.222222 2.555556 0.000000
5.222222 2.666667 0.000000
5.333333 2.111111 0.000000
5.333333 2.222222 0.000000
5.333333 2.333333 0.000000
5.333333 2.444444 0.000000
5.333333 2.555556 0.000000
5.333333 2.666667 0.000000
5.444444 2.111111 0.000000
5.444444 2.222222 0.000000
5.444444 2.333333 0.000000
5.444444 2.444444 0.000000
5.444444 2.555556 0.000000
5.444444 2.666667 0.000000
5.555556 2.111111 0.000000
5.555556 2.222222 0.000000
5.555556 2.333333 0.000000
5.555556 2.444444 0.000000
5.555556 2.555556 0.000000
5.555556 2.666667 0.000000
5.666667 2.111111 0.000000
5.666667 2.222222 0.000000
5.666667 2.333333 0.000000
5.666667 2.444444 0.000000
5.666667 2.555556 0.000000
5.666667 2.666667 0.000000
5.777778 2.111111 0.000000
5.777778 2.222222 0.000000
5.777778 2.333333 0.000000
5.777778 2.444444 0.000000
5.777778 2.555556 0.000000
5.777778 2.666667 0.000000
5.888889 2.111111 0.000000
5.888889 2.222222 0.000000
5.888889 2.333333 0.000000
5.888889 2.444444 0.000000
5.888889 2.555556 0.000000
5.888889 2.666667 0.000000
CELLS 81 405 
4 24 30 31 25
4 25 31 32 26
4 26 32 33 27
4 27 33 34 28
4 28 34 35 29
4 30 36 37 31
4 31 37 38 32
4 32 38 39 33
4 33 39 40 34
4 34 40 41 35
4 36  2  3 37
4 37  3  4 38
4 38  4  5 39
4 39  5  6 40
4 40  6  7 41
4 42 43 10  9
4 43 45 11 10
4 44 46 47 45
4 45 47 12 11
4 46 48 49 47
4 47 49 13 12
4 48 50 51 49
4 49 51 14 13
4 50 52 53 51
4 51 53 15 14
4 52 16 17 53
4 53 17  1 15
4 0  8 54  2
4 2 54 55  3
4 3 55 56  4
4 4 56 57  5
4 5 57 58  6
4 6 58 59  7
4 8  9 60 54
4 54 60 61 55
4 55 61 62 56
4 56 62 63 57
4 57 63 64 58
4 58 64 65 59
4 9 10 66 60
4 60 66 67 61
4 61 67 68 62
4 62 68 69 63
4 63 69 70 64
4 64 70 71 65
4 10 11 72 66
4 66 72 73 67
4 67 73 74 68
4 68 74 75 69
4 69 75 76 70
4 70 76 77 71
4 11 12 78 72
4 72 78 79 73
4 73 79 80 74
4 74 80 81 75
4 75 81 82 76
4 76 82 83 77
4 12 13 84 78
4 78 84 85 79
4 79 85 86 80
4 80 86 87 81
4 81 87 88 82
4 82 88 89 83
4 13 14 90 84
4 84 90 91 85
4 85 91 92 86
4 86 92 93 87
4 87 93 94 88
4 88 94 95 89
4 14 15 96 90
4 90 96 97 91
4 91 97 98 92
4 92 98 99 93
4 93  99 100  94
4 94 100 101  95
4 15  1 18 96
4 96 18 19 97
4 97 19 20 98
4 98 20 21 99
4 99  21  22 100
4 100  22  23 101
CELL_TYPES 81
9 9 9 9 9 9 9 9 9 9 9 9 9 9 9 9 9 9 9 9 9 9 9 9 9 9 9 9 9 9 9 9 9 9 9 9 9 9 9 9 9 9 9 9 9 9 9 9 9 9 9 9 9 9 9 9 9 9 9 9 9 9 9 9 9 9 9 9 9 9 9 9 9 9 9 9 9 9 9 9 9 
POINT_DATA 102
VECTORS displacement_ITER1 FLOAT
 -2.264679e-02  -1.374380e-01  0 
 -2.246710e-02  -1.686620e-01  0 
 -1.811367e-02  -1.356130e-01  0 
 -1.431850e-02  -1.352582e-01  0 
 -1.062202e-02  -1.349525e-01  0 
 -7.049917e-03  -1.347429e-01  0 
 -3.550349e-03  -1.346409e-01  0 
 -8.662999e-05  -1.346544e-01  0 
 -2.233609e-02  -1.412420e-01  0 
 -2.240062e-02  -1.453956e-01  0 
 -2.227744e-02  -1.487076e-01  0 
 -2.224697e-02  -1.521399e-01  0 
 -2.226028e-02  -1.555384e-01  0 
 -2.231370e-02  -1.588969e-01  0 
 -2.239684e-02  -1.621863e-01  0 
 -2.245391e-02  -1.654233e-01  0 
 -2.892529e-02  -1.684996e-01  0 
 -2.571278e-02  -1.686342e-01  0 
 -1.900816e-02  -1.689115e-01  0 
 -1.577594e-02  -1.686581e-01  0 
 -1.281057e-02  -1.679934e-01  0 
 -1.020202e-02  -1.668971e-01  0 
 -8.170623e-03  -1.652907e-01  0 
 -7.564247e-03  -1.631488e-01  0 
 -1.791223e-02  -1.235428e-01  0 
 -1.411348e-02  -1.237038e-01  0 
 -1.047435e-02  -1.238422e-01  0 
 -6.985111e-03  -1.239007e-01  0 
 -3.551650e-03  -1.238659e-01  0 
 -9.085575e-05  -1.238159e-01  0 
 -1.792332e-02  -1.277083e-01  0 
 -1.413906e-02  -1.275871e-01  0 
 -1.049908e-02  -1.275436e-01  0 
 -6.995531e-03  -1.275102e-01  0 
 -3.543376e-03  -1.274889e-01  0 
 -6.736063e-05  -1.274929e-01  0 
 -1.808795e-02  -1.316656e-01  0 
 -1.421513e-02  -1.314491e-01  0 
 -1.055107e-02  -1.312686e-01  0 
 -7.012555e-03  -1.311519e-01  0 
 -3.539875e-03  -1.311007e-01  0 
 -7.039870e-05  -1.310881e-01  0 
 -2.564125e-02  -1.453067e-01  0 
 -2.568479e-02  -1.486939e-01  0 
 -2.897916e-02  -1.521120e-01  0 
 -2.563502e-02  -1.521338e-01  0 
 -2.898705e-02  -1.555505e-01  0 
 -2.562454e-02  -1.555368e-01  0 
 -2.895820e-02  -1.589035e-01  0 
 -2.563462e-02  -1.589111e-01  0 
 -2.891865e-02  -1.622477e-01  0 
 -2.565647e-02  -1.622131e-01  0 
 -2.889428e-02  -1.654697e-01  0 
 -2.570424e-02  -1.654280e-01  0 
 -1.881284e-02  -1.409786e-01  0 
 -1.487083e-02  -1.403723e-01  0 
 -1.114380e-02  -1.400099e-01  0 
 -7.459781e-03  -1.397276e-01  0 
 -3.743714e-03  -1.394876e-01  0 
 3.062289e-04  -1.393159e-01  0 
 -1.897508e-02  -1.451738e-01  0 
 -1.534808e-02  -1.449789e-01  0 
 -1.161787e-02  -1.447040e-01  0 
 -7.913302e-03  -1.444615e-01  0 
 -4.136092e-03  -1.442350e-01  0 
 -1.669039e-04  -1.439319e-01  0 
 -1.905638e-02  -1.489960e-01  0 
 -1.556347e-02  -1.490517e-01  0 
 -1.198101e-02  -1.489877e-01  0 
 -8.359211e-03  -1.488329e-01  0 
 -4.719919e-03  -1.485908e-01  0 
 -1.057449e-03  -1.481625e-01  0 
 -1.899945e-02  -1.525284e-01  0 
 -1.564171e-02  -1.527743e-01  0 
 -1.221442e-02  -1.528508e-01  0 
 -8.786782e-03  -1.527681e-01  0 
 -5.405856e-03  -1.524938e-01  0 
 -2.114643e-03  -1.519583e-01  0 
 -1.895124e-02  -1.559367e-01  0 
 -1.564123e-02  -1.562157e-01  0 
 -1.236474e-02  -1.563438e-01  0 
 -9.172766e-03  -1.562782e-01  0 
 -6.109472e-03  -1.559623e-01  0 
 -3.204558e-03  -1.553360e-01  0 
 -1.893425e-02  -1.592323e-01  0 
 -1.562745e-02  -1.594495e-01  0 
 -1.245427e-02  -1.595173e-01  0 
 -9.492916e-03  -1.594016e-01  0 
 -6.775390e-03  -1.590258e-01  0 
 -4.274562e-03  -1.583110e-01  0 
 -1.895368e-02  -1.624485e-01  0 
 -1.563253e-02  -1.625420e-01  0 
 -1.251395e-02  -1.624414e-01  0 
 -9.717799e-03  -1.621497e-01  0 
 -7.357896e-03  -1.616707e-01  0 
 -5.341572e-03  -1.608567e-01  0 
 -1.899462e-02  -1.656361e-01  0 
 -1.567403e-02  -1.655852e-01  0 
 -1.261089e-02  -1.652241e-01  0 
 -9.900298e-03  -1.645768e-01  0 
 -7.764588e-03  -1.637416e-01  0 
 -6.479106e-03  -1.627969e-01  0 
VECTORS displacement_ITER2 FLOAT
 -2.033644e-02  -1.271055e-01  0 
 -2.126475e-02  -1.582781e-01  0 
 -1.685913e-02  -1.259066e-01  0 
 -1.345250e-02  -1.255730e-01  0 
 -1.015256e-02  -1.252954e-01  0 
 -6.963122e-03  -1.251076e-01  0 
 -3.840391e-03  -1.250101e-01  0 
 -7.725368e-04  -1.249972e-01  0 
 -2.062621e-02  -1.326169e-01  0 
 -2.111878e-02  -1.358511e-01  0 
 -2.109212e-02  -1.391663e-01  0 
 -2.112022e-02  -1.424727e-01  0 
 -2.115256e-02  -1.456997e-01  0 
 -2.118819e-02  -1.488852e-01  0 
 -2.123257e-02  -1.520326e-01  0 
 -2.126048e-02  -1.551537e-01  0 
 -2.750262e-02  -1.581807e-01  0 
 -2.439297e-02  -1.582582e-01  0 
 -1.789609e-02  -1.587302e-01  0 
 -1.466989e-02  -1.587551e-01  0 
 -1.154838e-02  -1.584288e-01  0 
 -8.566958e-03  -1.577249e-01  0 
 -5.848655e-03  -1.565600e-01  0 
 -3.936635e-03  -1.547961e-01  0 
 -1.666180e-02  -1.151138e-01  0 
 -1.329617e-02  -1.152356e-01  0 
 -1.005672e-02  -1.153476e-01  0 
 -6.941891e-03  -1.154094e-01  0 
 -3.871891e-03  -1.154204e-01  0 
 -8.057736e-04  -1.154132e-01  0 
 -1.667553e-02  -1.188033e-01  0 
 -1.330725e-02  -1.187066e-01  0 
 -1.006258e-02  -1.186710e-01  0 
 -6.930940e-03  -1.186527e-01  0 
 -3.854011e-03  -1.186515e-01  0 
 -7.723741e-04  -1.186769e-01  0 
 -1.681120e-02  -1.223647e-01  0 
 -1.336447e-02  -1.221622e-01  0 
 -1.009510e-02  -1.220041e-01  0 
 -6.935236e-03  -1.219037e-01  0 
 -3.838834e-03  -1.218640e-01  0 
 -7.626628e-04  -1.218719e-01  0 
 -2.441835e-02  -1.358107e-01  0 
 -2.442666e-02  -1.391635e-01  0 
 -2.753363e-02  -1.424774e-01  0 
 -2.436512e-02  -1.424757e-01  0 
 -2.754178e-02  -1.456999e-01  0 
 -2.435002e-02  -1.456971e-01  0 
 -2.752268e-02  -1.488808e-01  0 
 -2.435458e-02  -1.488903e-01  0 
 -2.750089e-02  -1.520555e-01  0 
 -2.436550e-02  -1.520434e-01  0 
 -2.748656e-02  -1.551692e-01  0 
 -2.438982e-02  -1.551522e-01  0 
 -1.735507e-02  -1.311854e-01  0 
 -1.382010e-02  -1.304297e-01  0 
 -1.039648e-02  -1.299654e-01  0 
 -7.009035e-03  -1.295976e-01  0 
 -3.592394e-03  -1.292613e-01  0 
 9.200407e-05  -1.289358e-01  0 
 -1.778920e-02  -1.354144e-01  0 
 -1.424319e-02  -1.348717e-01  0 
 -1.070352e-02  -1.343938e-01  0 
 -7.187901e-03  -1.339820e-01  0 
 -3.602509e-03  -1.335957e-01  0 
 2.011417e-04  -1.331672e-01  0 
 -1.792692e-02  -1.391126e-01  0 
 -1.450353e-02  -1.388718e-01  0 
 -1.097539e-02  -1.385327e-01  0 
 -7.416985e-03  -1.381608e-01  0 
 -3.812790e-03  -1.377499e-01  0 
 -1.236008e-04  -1.372145e-01  0 
 -1.794504e-02  -1.425749e-01  0 
 -1.460778e-02  -1.425384e-01  0 
 -1.115752e-02  -1.423554e-01  0 
 -7.659760e-03  -1.420504e-01  0 
 -4.154108e-03  -1.416150e-01  0 
 -6.632401e-04  -1.409873e-01  0 
 -1.794283e-02  -1.459114e-01  0 
 -1.463315e-02  -1.459789e-01  0 
 -1.126479e-02  -1.458926e-01  0 
 -7.888017e-03  -1.456365e-01  0 
 -4.548877e-03  -1.451814e-01  0 
 -1.280941e-03  -1.444842e-01  0 
 -1.793806e-02  -1.491514e-01  0 
 -1.463290e-02  -1.492604e-01  0 
 -1.132430e-02  -1.491976e-01  0 
 -8.080319e-03  -1.489486e-01  0 
 -4.941519e-03  -1.484707e-01  0 
 -1.909728e-03  -1.477180e-01  0 
 -1.794193e-02  -1.523316e-01  0 
 -1.463278e-02  -1.524408e-01  0 
 -1.136380e-02  -1.523351e-01  0 
 -8.219848e-03  -1.520118e-01  0 
 -5.293594e-03  -1.514895e-01  0 
 -2.544532e-03  -1.506831e-01  0 
 -1.794576e-02  -1.554929e-01  0 
 -1.463997e-02  -1.555912e-01  0 
 -1.142759e-02  -1.553864e-01  0 
 -8.351512e-03  -1.548878e-01  0 
 -5.543861e-03  -1.541515e-01  0 
 -3.237623e-03  -1.532804e-01  0 
VECTORS displacement_ITER3 FLOAT
 -2.015428e-02  -1.191971e-01  0 
 -2.117655e-02  -1.491850e-01  0 
 -1.681517e-02  -1.186139e-01  0 
 -1.335558e-02  -1.182496e-01  0 
 -9.979044e-03  -1.179777e-01  0 
 -6.689239e-03  -1.178061e-01  0 
 -3.438749e-03  -1.177322e-01  0 
 -1.861012e-04  -1.177393e-01  0 
 -2.047224e-02  -1.246060e-01  0 
 -2.118328e-02  -1.276785e-01  0 
 -2.112639e-02  -1.307727e-01  0 
 -2.111372e-02  -1.339034e-01  0 
 -2.111038e-02  -1.369983e-01  0 
 -2.112453e-02  -1.400761e-01  0 
 -2.115648e-02  -1.431238e-01  0 
 -2.117719e-02  -1.461497e-01  0 
 -2.722643e-02  -1.490674e-01  0 
 -2.421521e-02  -1.491557e-01  0 
 -1.755343e-02  -1.502690e-01  0 
 -1.411419e-02  -1.507280e-01  0 
 -1.077934e-02  -1.507559e-01  0 
 -7.550566e-03  -1.503686e-01  0 
 -4.475586e-03  -1.495051e-01  0 
 -1.868330e-03  -1.479553e-01  0 
 -1.668770e-02  -1.075406e-01  0 
 -1.321430e-02  -1.076483e-01  0 
 -9.872452e-03  -1.077384e-01  0 
 -6.652840e-03  -1.077717e-01  0 
 -3.483910e-03  -1.077408e-01  0 
 -3.069453e-04  -1.077117e-01  0 
 -1.670516e-02  -1.112919e-01  0 
 -1.322528e-02  -1.112092e-01  0 
 -9.884345e-03  -1.111621e-01  0 
 -6.653175e-03  -1.111206e-01  0 
 -3.463302e-03  -1.111005e-01  0 
 -2.598474e-04  -1.111236e-01  0 
 -1.679649e-02  -1.149570e-01  0 
 -1.327037e-02  -1.147625e-01  0 
 -9.921171e-03  -1.145947e-01  0 
 -6.662128e-03  -1.144869e-01  0 
 -3.440138e-03  -1.144411e-01  0 
 -2.191622e-04  -1.144523e-01  0 
 -2.426885e-02  -1.276130e-01  0 
 -2.426147e-02  -1.307683e-01  0 
 -2.726447e-02  -1.338699e-01  0 
 -2.421083e-02  -1.338907e-01  0 
 -2.726083e-02  -1.369948e-01  0 
 -2.418963e-02  -1.369894e-01  0 
 -2.724640e-02  -1.400592e-01  0 
 -2.418665e-02  -1.400749e-01  0 
 -2.722690e-02  -1.431404e-01  0 
 -2.419081e-02  -1.431299e-01  0 
 -2.721076e-02  -1.461610e-01  0 
 -2.421353e-02  -1.461440e-01  0 
 -1.724912e-02  -1.233733e-01  0 
 -1.375062e-02  -1.228573e-01  0 
 -1.025643e-02  -1.225449e-01  0 
 -6.771465e-03  -1.223439e-01  0 
 -3.217985e-03  -1.222410e-01  0 
 8.233069e-04  -1.223468e-01  0 
 -1.770090e-02  -1.273956e-01  0 
 -1.410201e-02  -1.270751e-01  0 
 -1.049337e-02  -1.268485e-01  0 
 -6.862727e-03  -1.267151e-01  0 
 -3.112929e-03  -1.266940e-01  0 
 8.314919e-04  -1.266687e-01  0 
 -1.784675e-02  -1.309461e-01  0 
 -1.429820e-02  -1.309267e-01  0 
 -1.064844e-02  -1.308535e-01  0 
 -6.951959e-03  -1.307951e-01  0 
 -3.227029e-03  -1.307312e-01  0 
 4.719848e-04  -1.305486e-01  0 
 -1.782443e-02  -1.342604e-01  0 
 -1.434112e-02  -1.344680e-01  0 
 -1.072464e-02  -1.345424e-01  0 
 -7.067895e-03  -1.345189e-01  0 
 -3.458186e-03  -1.343779e-01  0 
 8.758472e-06  -1.340492e-01  0 
 -1.778318e-02  -1.374772e-01  0 
 -1.431292e-02  -1.377984e-01  0 
 -1.075236e-02  -1.379572e-01  0 
 -7.186868e-03  -1.379407e-01  0 
 -3.714971e-03  -1.377238e-01  0 
 -4.293025e-04  -1.372751e-01  0 
 -1.775520e-02  -1.406273e-01  0 
 -1.427751e-02  -1.410066e-01  0 
 -1.075422e-02  -1.411890e-01  0 
 -7.282065e-03  -1.411513e-01  0 
 -3.945400e-03  -1.408628e-01  0 
 -7.977093e-04  -1.403117e-01  0 
 -1.774503e-02  -1.437494e-01  0 
 -1.424563e-02  -1.441723e-01  0 
 -1.074444e-02  -1.443439e-01  0 
 -7.340583e-03  -1.442292e-01  0 
 -4.130165e-03  -1.438597e-01  0 
 -1.116562e-03  -1.432114e-01  0 
 -1.771964e-02  -1.468978e-01  0 
 -1.418707e-02  -1.473958e-01  0 
 -1.074573e-02  -1.475153e-01  0 
 -7.410457e-03  -1.472661e-01  0 
 -4.247901e-03  -1.466913e-01  0 
 -1.465081e-03  -1.459451e-01  0 
VECTORS displacement_ITER4 FLOAT
 -2.030039e-02  -1.160611e-01  0 
 -2.062909e-02  -1.462432e-01  0 
 -1.694168e-02  -1.151606e-01  0 
 -1.370107e-02  -1.147446e-01  0 
 -1.056879e-02  -1.144432e-01  0 
 -7.532635e-03  -1.142417e-01  0 
 -4.550078e-03  -1.141331e-01  0 
 -1.587888e-03  -1.141072e-01  0 
 -2.023909e-02  -1.205000e-01  0 
 -2.061865e-02  -1.240842e-01  0 
 -2.057265e-02  -1.272692e-01  0 
 -2.057153e-02  -1.304809e-01  0 
 -2.057308e-02  -1.336573e-01  0 
 -2.058399e-02  -1.368250e-01  0 
 -2.060880e-02  -1.399727e-01  0 
 -2.062634e-02  -1.431052e-01  0 
 -2.689647e-02  -1.461631e-01  0 
 -2.377031e-02  -1.462277e-01  0 
 -1.732626e-02  -1.465735e-01  0 
 -1.414753e-02  -1.465326e-01  0 
 -1.103925e-02  -1.461721e-01  0 
 -8.003031e-03  -1.454605e-01  0 
 -5.097327e-03  -1.442967e-01  0 
 -2.725646e-03  -1.424190e-01  0 
 -1.681015e-02  -1.047667e-01  0 
 -1.357949e-02  -1.048548e-01  0 
 -1.047298e-02  -1.049341e-01  0 
 -7.490896e-03  -1.049716e-01  0 
 -4.569410e-03  -1.049592e-01  0 
 -1.662052e-03  -1.049439e-01  0 
 -1.683935e-02  -1.082374e-01  0 
 -1.358550e-02  -1.081680e-01  0 
 -1.047790e-02  -1.081210e-01  0 
 -7.488306e-03  -1.080759e-01  0 
 -4.555482e-03  -1.080493e-01  0 
 -1.625850e-03  -1.080535e-01  0 
 -1.691837e-02  -1.116811e-01  0 
 -1.361710e-02  -1.114879e-01  0 
 -1.050893e-02  -1.113085e-01  0 
 -7.499836e-03  -1.111840e-01  0 
 -4.543419e-03  -1.111184e-01  0 
 -1.606625e-03  -1.111089e-01  0 
 -2.379470e-02  -1.240261e-01  0 
 -2.379218e-02  -1.272665e-01  0 
 -2.691509e-02  -1.304448e-01  0 
 -2.374564e-02  -1.304784e-01  0 
 -2.690786e-02  -1.336549e-01  0 
 -2.374022e-02  -1.336517e-01  0 
 -2.689775e-02  -1.368081e-01  0 
 -2.374090e-02  -1.368249e-01  0 
 -2.688597e-02  -1.399900e-01  0 
 -2.374500e-02  -1.399798e-01  0 
 -2.687685e-02  -1.431264e-01  0 
 -2.376640e-02  -1.431047e-01  0 
 -1.722200e-02  -1.197534e-01  0 
 -1.390790e-02  -1.192006e-01  0 
 -1.064626e-02  -1.188090e-01  0 
 -7.415863e-03  -1.185110e-01  0 
 -4.155357e-03  -1.182823e-01  0 
 -5.671769e-04  -1.181678e-01  0 
 -1.740652e-02  -1.236641e-01  0 
 -1.409445e-02  -1.232887e-01  0 
 -1.073166e-02  -1.229345e-01  0 
 -7.364710e-03  -1.226332e-01  0 
 -3.928686e-03  -1.223956e-01  0 
 -3.478294e-04  -1.221424e-01  0 
 -1.748239e-02  -1.272387e-01  0 
 -1.416909e-02  -1.270470e-01  0 
 -1.077992e-02  -1.267956e-01  0 
 -7.352264e-03  -1.265164e-01  0 
 -3.906823e-03  -1.262052e-01  0 
 -4.787045e-04  -1.257829e-01  0 
 -1.743883e-02  -1.305889e-01  0 
 -1.416203e-02  -1.305588e-01  0 
 -1.079004e-02  -1.303920e-01  0 
 -7.390198e-03  -1.301126e-01  0 
 -4.020379e-03  -1.297053e-01  0 
 -7.492547e-04  -1.291231e-01  0 
 -1.739008e-02  -1.338520e-01  0 
 -1.411630e-02  -1.338884e-01  0 
 -1.078938e-02  -1.337605e-01  0 
 -7.464514e-03  -1.334570e-01  0 
 -4.202122e-03  -1.329579e-01  0 
 -1.060657e-03  -1.322414e-01  0 
 -1.735866e-02  -1.370528e-01  0 
 -1.408259e-02  -1.371027e-01  0 
 -1.079444e-02  -1.369577e-01  0 
 -7.555715e-03  -1.366082e-01  0 
 -4.412061e-03  -1.360284e-01  0 
 -1.382107e-03  -1.352007e-01  0 
 -1.735214e-02  -1.402175e-01  0 
 -1.407866e-02  -1.402532e-01  0 
 -1.082454e-02  -1.400516e-01  0 
 -7.646562e-03  -1.396067e-01  0 
 -4.626254e-03  -1.389502e-01  0 
 -1.734825e-03  -1.380303e-01  0 
 -1.735643e-02  -1.433710e-01  0 
 -1.410038e-02  -1.433904e-01  0 
 -1.090437e-02  -1.431087e-01  0 
 -7.778510e-03  -1.425208e-01  0 
 -4.797312e-03  -1.416592e-01  0 
 -2.187475e-03  -1.406674e-01  0 
VECTORS displacement_ITER5 FLOAT
 -2.161962e-02  -1.149258e-01  0 
 -2.181488e-02  -1.433444e-01  0 
 -1.827029e-02  -1.142615e-01  0 
 -1.490165e-02  -1.138539e-01  0 
 -1.163089e-02  -1.135871e-01  0 
 -8.425400e-03  -1.134233e-01  0 
 -5.248444e-03  -1.133480e-01  0 
 -2.068139e-03  -1.133546e-01  0 
 -2.148884e-02  -1.192290e-01  0 
 -2.184863e-02  -1.225211e-01  0 
 -2.185354e-02  -1.254950e-01  0 
 -2.186080e-02  -1.284653e-01  0 
 -2.184849e-02  -1.314203e-01  0 
 -2.183387e-02  -1.343905e-01  0 
 -2.182552e-02  -1.373673e-01  0 
 -2.181973e-02  -1.403504e-01  0 
 -2.780051e-02  -1.432998e-01  0 
 -2.481079e-02  -1.433319e-01  0 
 -1.855260e-02  -1.438993e-01  0 
 -1.547666e-02  -1.440094e-01  0 
 -1.251818e-02  -1.437747e-01  0 
 -9.670989e-03  -1.431900e-01  0 
 -6.976699e-03  -1.421928e-01  0 
 -4.773271e-03  -1.406058e-01  0 
 -1.817838e-02  -1.034938e-01  0 
 -1.481174e-02  -1.035485e-01  0 
 -1.154862e-02  -1.035890e-01  0 
 -8.381741e-03  -1.035883e-01  0 
 -5.253518e-03  -1.035478e-01  0 
 -2.118053e-03  -1.035216e-01  0 
 -1.819497e-02  -1.070613e-01  0 
 -1.481057e-02  -1.070029e-01  0 
 -1.155292e-02  -1.069465e-01  0 
 -8.384343e-03  -1.068894e-01  0 
 -5.244939e-03  -1.068516e-01  0 
 -2.091783e-03  -1.068435e-01  0 
 -1.823797e-02  -1.106440e-01  0 
 -1.482861e-02  -1.104636e-01  0 
 -1.157867e-02  -1.102968e-01  0 
 -8.396780e-03  -1.101839e-01  0 
 -5.241183e-03  -1.101271e-01  0 
 -2.081956e-03  -1.101176e-01  0 
 -2.484864e-02  -1.224858e-01  0 
 -2.484279e-02  -1.254964e-01  0 
 -2.779673e-02  -1.284159e-01  0 
 -2.481456e-02  -1.284565e-01  0 
 -2.778238e-02  -1.314048e-01  0 
 -2.481404e-02  -1.314099e-01  0 
 -2.778344e-02  -1.343561e-01  0 
 -2.480914e-02  -1.343797e-01  0 
 -2.778633e-02  -1.373562e-01  0 
 -2.480309e-02  -1.373614e-01  0 
 -2.778584e-02  -1.403535e-01  0 
 -2.481008e-02  -1.403446e-01  0 
 -1.852874e-02  -1.186181e-01  0 
 -1.520396e-02  -1.182107e-01  0 
 -1.186588e-02  -1.179291e-01  0 
 -8.552252e-03  -1.177428e-01  0 
 -5.225553e-03  -1.176296e-01  0 
 -1.646517e-03  -1.176175e-01  0 
 -1.872062e-02  -1.223090e-01  0 
 -1.542793e-02  -1.221185e-01  0 
 -1.205759e-02  -1.219321e-01  0 
 -8.683173e-03  -1.217786e-01  0 
 -5.290051e-03  -1.216726e-01  0 
 -1.872101e-03  -1.215269e-01  0 
 -1.880146e-02  -1.256571e-01  0 
 -1.553028e-02  -1.256703e-01  0 
 -1.217875e-02  -1.256021e-01  0 
 -8.810363e-03  -1.254782e-01  0 
 -5.486435e-03  -1.252919e-01  0 
 -2.295168e-03  -1.249742e-01  0 
 -1.877085e-02  -1.287930e-01  0 
 -1.554631e-02  -1.289646e-01  0 
 -1.224685e-02  -1.289772e-01  0 
 -8.952747e-03  -1.288445e-01  0 
 -5.748576e-03  -1.285525e-01  0 
 -2.735789e-03  -1.280702e-01  0 
 -1.872006e-02  -1.318418e-01  0 
 -1.551931e-02  -1.320785e-01  0 
 -1.229151e-02  -1.321206e-01  0 
 -9.101229e-03  -1.319539e-01  0 
 -6.022147e-03  -1.315616e-01  0 
 -3.130434e-03  -1.309394e-01  0 
 -1.867540e-02  -1.348401e-01  0 
 -1.549214e-02  -1.350844e-01  0 
 -1.232557e-02  -1.351054e-01  0 
 -9.240037e-03  -1.348888e-01  0 
 -6.283531e-03  -1.344119e-01  0 
 -3.479455e-03  -1.336737e-01  0 
 -1.864906e-02  -1.378183e-01  0 
 -1.547864e-02  -1.380405e-01  0 
 -1.236038e-02  -1.380051e-01  0 
 -9.354752e-03  -1.376994e-01  0 
 -6.523829e-03  -1.371496e-01  0 
 -3.829192e-03  -1.363212e-01  0 
 -1.862915e-02  -1.408060e-01  0 
 -1.546995e-02  -1.410078e-01  0 
 -1.241869e-02  -1.408829e-01  0 
 -9.479736e-03  -1.404390e-01  0 
 -6.709758e-03  -1.397174e-01  0 
 -4.260741e-03  -1.388322e-01  0 
VECTORS displacement_ITER6 FLOAT
 -2.257212e-02  -1.147136e-01  0 
 -2.281684e-02  -1.406356e-01  0 
 -1.934367e-02  -1.137003e-01  0 
 -1.624034e-02  -1.133033e-01  0 
 -1.322913e-02  -1.130630e-01  0 
 -1.026111e-02  -1.129226e-01  0 
 -7.312554e-03  -1.128569e-01  0 
 -4.385359e-03  -1.128569e-01  0 
 -2.251515e-02  -1.190357e-01  0 
 -2.277664e-02  -1.218823e-01  0 
 -2.284698e-02  -1.246106e-01  0 
 -2.288829e-02  -1.272847e-01  0 
 -2.289347e-02  -1.299280e-01  0 
 -2.287690e-02  -1.325783e-01  0 
 -2.285138e-02  -1.352468e-01  0 
 -2.282920e-02  -1.379345e-01  0 
 -2.822235e-02  -1.406170e-01  0 
 -2.551814e-02  -1.406221e-01  0 
 -1.971099e-02  -1.417498e-01  0 
 -1.678822e-02  -1.424820e-01  0 
 -1.384754e-02  -1.429830e-01  0 
 -1.080727e-02  -1.432757e-01  0 
 -7.588529e-03  -1.433662e-01  0 
 -4.073250e-03  -1.432134e-01  0 
 -1.927459e-02  -1.037647e-01  0 
 -1.618711e-02  -1.037897e-01  0 
 -1.318080e-02  -1.037989e-01  0 
 -1.024576e-02  -1.037776e-01  0 
 -7.326436e-03  -1.037365e-01  0 
 -4.382214e-03  -1.037095e-01  0 
 -1.929194e-02  -1.070244e-01  0 
 -1.617533e-02  -1.069779e-01  0 
 -1.317433e-02  -1.069182e-01  0 
 -1.023802e-02  -1.068615e-01  0 
 -7.315114e-03  -1.068285e-01  0 
 -4.368493e-03  -1.068263e-01  0 
 -1.929860e-02  -1.103486e-01  0 
 -1.617934e-02  -1.101770e-01  0 
 -1.318704e-02  -1.100221e-01  0 
 -1.024068e-02  -1.099208e-01  0 
 -7.309512e-03  -1.098759e-01  0 
 -4.375591e-03  -1.098738e-01  0 
 -2.556540e-02  -1.218750e-01  0 
 -2.555838e-02  -1.246212e-01  0 
 -2.820907e-02  -1.272582e-01  0 
 -2.554758e-02  -1.272792e-01  0 
 -2.819240e-02  -1.299098e-01  0 
 -2.554462e-02  -1.299180e-01  0 
 -2.819814e-02  -1.325382e-01  0 
 -2.553882e-02  -1.325622e-01  0 
 -2.820983e-02  -1.352099e-01  0 
 -2.552843e-02  -1.352297e-01  0 
 -2.821528e-02  -1.379102e-01  0 
 -2.552206e-02  -1.379211e-01  0 
 -1.968661e-02  -1.180761e-01  0 
 -1.651310e-02  -1.174594e-01  0 
 -1.337245e-02  -1.170668e-01  0 
 -1.026042e-02  -1.167777e-01  0 
 -7.172571e-03  -1.165111e-01  0 
 -4.131543e-03  -1.161357e-01  0 
 -1.995278e-02  -1.215665e-01  0 
 -1.681214e-02  -1.211803e-01  0 
 -1.358471e-02  -1.208005e-01  0 
 -1.037115e-02  -1.204438e-01  0 
 -7.200924e-03  -1.200647e-01  0 
 -4.048099e-03  -1.196359e-01  0 
 -2.006648e-02  -1.246525e-01  0 
 -1.699881e-02  -1.245296e-01  0 
 -1.377767e-02  -1.242756e-01  0 
 -1.051461e-02  -1.239329e-01  0 
 -7.267399e-03  -1.235205e-01  0 
 -4.068273e-03  -1.230215e-01  0 
 -2.010632e-02  -1.275667e-01  0 
 -1.709131e-02  -1.276544e-01  0 
 -1.390853e-02  -1.275477e-01  0 
 -1.063718e-02  -1.272733e-01  0 
 -7.348994e-03  -1.268570e-01  0 
 -4.107446e-03  -1.263067e-01  0 
 -2.011066e-02  -1.304061e-01  0 
 -1.712834e-02  -1.306648e-01  0 
 -1.398414e-02  -1.306980e-01  0 
 -1.072811e-02  -1.305105e-01  0 
 -7.420032e-03  -1.301195e-01  0 
 -4.121552e-03  -1.295511e-01  0 
 -2.008666e-02  -1.332127e-01  0 
 -1.712649e-02  -1.336244e-01  0 
 -1.401784e-02  -1.337940e-01  0 
 -1.078971e-02  -1.337064e-01  0 
 -7.472800e-03  -1.333680e-01  0 
 -4.102523e-03  -1.328154e-01  0 
 -2.003528e-02  -1.360111e-01  0 
 -1.707874e-02  -1.365691e-01  0 
 -1.400713e-02  -1.368796e-01  0 
 -1.082716e-02  -1.369057e-01  0 
 -7.516070e-03  -1.366527e-01  0 
 -4.067294e-03  -1.361580e-01  0 
 -1.993869e-02  -1.388213e-01  0 
 -1.695827e-02  -1.395308e-01  0 
 -1.394835e-02  -1.399566e-01  0 
 -1.083842e-02  -1.401116e-01  0 
 -7.560435e-03  -1.399964e-01  0 
 -4.041957e-03  -1.396227e-01  0 
VECTORS displacement_ITER7 FLOAT
 -2.200703e-02  -1.136602e-01  0 
 -2.179941e-02  -1.407558e-01  0 
 -1.871054e-02  -1.130292e-01  0 
 -1.551142e-02  -1.126132e-01  0 
 -1.240329e-02  -1.123702e-01  0 
 -9.333925e-03  -1.122308e-01  0 
 -6.279414e-03  -1.121684e-01  0 
 -3.236665e-03  -1.121737e-01  0 
 -2.174285e-02  -1.172336e-01  0 
 -2.168448e-02  -1.204588e-01  0 
 -2.175642e-02  -1.234505e-01  0 
 -2.180712e-02  -1.263826e-01  0 
 -2.182732e-02  -1.292650e-01  0 
 -2.182654e-02  -1.321337e-01  0 
 -2.181694e-02  -1.350029e-01  0 
 -2.180644e-02  -1.378764e-01  0 
 -2.755713e-02  -1.407362e-01  0 
 -2.467898e-02  -1.407452e-01  0 
 -1.869723e-02  -1.414460e-01  0 
 -1.579499e-02  -1.418104e-01  0 
 -1.294864e-02  -1.419544e-01  0 
 -1.010186e-02  -1.418902e-01  0 
 -7.216786e-03  -1.416134e-01  0 
 -4.329230e-03  -1.411011e-01  0 
 -1.865265e-02  -1.027789e-01  0 
 -1.546483e-02  -1.027877e-01  0 
 -1.235482e-02  -1.027847e-01  0 
 -9.312788e-03  -1.027580e-01  0 
 -6.288773e-03  -1.027222e-01  0 
 -3.252620e-03  -1.027073e-01  0 
 -1.867876e-02  -1.061190e-01  0 
 -1.545267e-02  -1.060803e-01  0 
 -1.234815e-02  -1.060171e-01  0 
 -9.306096e-03  -1.059560e-01  0 
 -6.277204e-03  -1.059197e-01  0 
 -3.232010e-03  -1.059178e-01  0 
 -1.866788e-02  -1.095604e-01  0 
 -1.545095e-02  -1.093870e-01  0 
 -1.236057e-02  -1.092280e-01  0 
 -9.311723e-03  -1.091236e-01  0 
 -6.274676e-03  -1.090754e-01  0 
 -3.228151e-03  -1.090699e-01  0 
 -2.473589e-02  -1.204461e-01  0 
 -2.472922e-02  -1.234594e-01  0 
 -2.760509e-02  -1.263616e-01  0 
 -2.471401e-02  -1.263795e-01  0 
 -2.757936e-02  -1.292480e-01  0 
 -2.470499e-02  -1.292570e-01  0 
 -2.756799e-02  -1.320995e-01  0 
 -2.469800e-02  -1.321220e-01  0 
 -2.756268e-02  -1.349732e-01  0 
 -2.468791e-02  -1.349908e-01  0 
 -2.755591e-02  -1.378581e-01  0 
 -2.468237e-02  -1.378669e-01  0 
 -1.888570e-02  -1.170136e-01  0 
 -1.572896e-02  -1.166901e-01  0 
 -1.254588e-02  -1.164261e-01  0 
 -9.387750e-03  -1.162256e-01  0 
 -6.261324e-03  -1.160474e-01  0 
 -3.170385e-03  -1.158006e-01  0 
 -1.892185e-02  -1.204475e-01  0 
 -1.586621e-02  -1.203493e-01  0 
 -1.268187e-02  -1.201665e-01  0 
 -9.488324e-03  -1.199465e-01  0 
 -6.345291e-03  -1.196867e-01  0 
 -3.279029e-03  -1.193619e-01  0 
 -1.893699e-02  -1.236454e-01  0 
 -1.592120e-02  -1.237093e-01  0 
 -1.277945e-02  -1.236282e-01  0 
 -9.598888e-03  -1.234191e-01  0 
 -6.457772e-03  -1.231019e-01  0 
 -3.429088e-03  -1.226715e-01  0 
 -1.894462e-02  -1.267197e-01  0 
 -1.594483e-02  -1.268956e-01  0 
 -1.284601e-02  -1.268894e-01  0 
 -9.702496e-03  -1.266986e-01  0 
 -6.581961e-03  -1.263331e-01  0 
 -3.561185e-03  -1.258072e-01  0 
 -1.894128e-02  -1.297166e-01  0 
 -1.595619e-02  -1.299757e-01  0 
 -1.289890e-02  -1.300258e-01  0 
 -9.801804e-03  -1.298531e-01  0 
 -6.706693e-03  -1.294575e-01  0 
 -3.664540e-03  -1.288627e-01  0 
 -1.892317e-02  -1.326633e-01  0 
 -1.595489e-02  -1.329877e-01  0 
 -1.294008e-02  -1.330871e-01  0 
 -9.897017e-03  -1.329415e-01  0 
 -6.834724e-03  -1.325419e-01  0 
 -3.760646e-03  -1.319089e-01  0 
 -1.888982e-02  -1.355810e-01  0 
 -1.593161e-02  -1.359566e-01  0 
 -1.296018e-02  -1.360997e-01  0 
 -9.980840e-03  -1.359876e-01  0 
 -6.971682e-03  -1.356188e-01  0 
 -3.887102e-03  -1.349932e-01  0 
 -1.883108e-02  -1.384864e-01  0 
 -1.587125e-02  -1.389046e-01  0 
 -1.295932e-02  -1.390640e-01  0 
 -1.004708e-02  -1.389788e-01  0 
 -7.103332e-03  -1.386626e-01  0 
 -4.076807e-03  -1.381148e-01  0 
VECTORS displacement_ITER8 FLOAT
 -2.203737e-02  -1.133524e-01  0 
 -2.168541e-02  -1.399131e-01  0 
 -1.855225e-02  -1.124833e-01  0 
 -1.544121e-02  -1.120620e-01  0 
 -1.241556e-02  -1.118217e-01  0 
 -9.423563e-03  -1.116863e-01  0 
 -6.441748e-03  -1.116283e-01  0 
 -3.459735e-03  -1.116349e-01  0 
 -2.175087e-02  -1.165039e-01  0 
 -2.153687e-02  -1.198138e-01  0 
 -2.159666e-02  -1.228153e-01  0 
 -2.165003e-02  -1.257514e-01  0 
 -2.167962e-02  -1.286184e-01  0 
 -2.169024e-02  -1.314548e-01  0 
 -2.169339e-02  -1.342775e-01  0 
 -2.169102e-02  -1.370936e-01  0 
 -2.731639e-02  -1.398756e-01  0 
 -2.450511e-02  -1.398979e-01  0 
 -1.854765e-02  -1.407358e-01  0 
 -1.559574e-02  -1.411734e-01  0 
 -1.268882e-02  -1.413570e-01  0 
 -9.771289e-03  -1.413070e-01  0 
 -6.795721e-03  -1.410187e-01  0 
 -3.750200e-03  -1.404375e-01  0 
 -1.850976e-02  -1.024716e-01  0 
 -1.540103e-02  -1.024741e-01  0 
 -1.237077e-02  -1.024654e-01  0 
 -9.407085e-03  -1.024364e-01  0 
 -6.461127e-03  -1.024024e-01  0 
 -3.502583e-03  -1.023924e-01  0 
 -1.853811e-02  -1.057232e-01  0 
 -1.538771e-02  -1.056886e-01  0 
 -1.236269e-02  -1.056238e-01  0 
 -9.398053e-03  -1.055611e-01  0 
 -6.445597e-03  -1.055261e-01  0 
 -3.481024e-03  -1.055287e-01  0 