# vtk DataFile Version 3.1
this is an vtk file created by FEMAC
ASCII
DATASET UNSTRUCTURED_GRID
POINTS 101 FLOAT
2.000000 5.000000 0.000000
2.000000 6.000000 0.000000
1.555556 5.000000 0.000000
1.666667 5.000000 0.000000
1.777778 5.000000 0.000000
1.888889 5.000000 0.000000
2.000000 4.777778 0.000000
2.000000 4.888889 0.000000
1.555556 6.000000 0.000000
1.666667 6.000000 0.000000
1.777778 6.000000 0.000000
1.888889 6.000000 0.000000
2.000000 5.111111 0.000000
2.000000 5.222222 0.000000
2.000000 5.333333 0.000000
2.000000 5.444444 0.000000
2.000000 5.555556 0.000000
2.000000 5.666667 0.000000
2.000000 5.777778 0.000000
2.000000 5.888889 0.000000
2.111111 5.000000 0.000000
2.222222 5.000000 0.000000
2.333333 5.000000 0.000000
2.444444 5.000000 0.000000
2.111111 6.000000 0.000000
2.222222 6.000000 0.000000
2.333333 6.000000 0.000000
1.555556 4.777778 0.000000
1.555556 4.888889 0.000000
1.666667 4.777778 0.000000
1.666667 4.888889 0.000000
1.777778 4.777778 0.000000
1.777778 4.888889 0.000000
1.888889 4.777778 0.000000
1.888889 4.888889 0.000000
1.555556 5.111111 0.000000
1.555556 5.222222 0.000000
1.555556 5.333333 0.000000
1.555556 5.444444 0.000000
1.555556 5.555556 0.000000
1.555556 5.666667 0.000000
1.555556 5.777778 0.000000
1.555556 5.888889 0.000000
1.666667 5.111111 0.000000
1.666667 5.222222 0.000000
1.666667 5.333333 0.000000
1.666667 5.444444 0.000000
1.666667 5.555556 0.000000
1.666667 5.666667 0.000000
1.666667 5.777778 0.000000
1.666667 5.888889 0.000000
1.777778 5.111111 0.000000
1.777778 5.222222 0.000000
1.777778 5.333333 0.000000
1.777778 5.444444 0.000000
1.777778 5.555556 0.000000
1.777778 5.666667 0.000000
1.777778 5.777778 0.000000
1.777778 5.888889 0.000000
1.888889 5.111111 0.000000
1.888889 5.222222 0.000000
1.888889 5.333333 0.000000
1.888889 5.444444 0.000000
1.888889 5.555556 0.000000
1.888889 5.666667 0.000000
1.888889 5.777778 0.000000
1.888889 5.888889 0.000000
2.111111 4.777778 0.000000
2.111111 4.888889 0.000000
2.222222 4.888889 0.000000
2.333333 4.888889 0.000000
2.444444 4.888889 0.000000
2.111111 5.111111 0.000000
2.111111 5.222222 0.000000
2.111111 5.333333 0.000000
2.111111 5.444444 0.000000
2.111111 5.555556 0.000000
2.111111 5.666667 0.000000
2.111111 5.777778 0.000000
2.111111 5.888889 0.000000
2.222222 5.111111 0.000000
2.222222 5.222222 0.000000
2.222222 5.333333 0.000000
2.222222 5.444444 0.000000
2.222222 5.555556 0.000000
2.222222 5.666667 0.000000
2.222222 5.777778 0.000000
2.222222 5.888889 0.000000
2.333333 5.111111 0.000000
2.333333 5.222222 0.000000
2.333333 5.333333 0.000000
2.333333 5.444444 0.000000
2.333333 5.555556 0.000000
2.333333 5.666667 0.000000
2.333333 5.777778 0.000000
2.333333 5.888889 0.000000
2.444444 5.111111 0.000000
2.444444 5.222222 0.000000
2.444444 5.333333 0.000000
2.444444 5.444444 0.000000
2.444444 5.555556 0.000000
CELLS 81 405 
4 27 29 30 28
4 28 30  3  2
4 29 31 32 30
4 30 32  4  3
4 31 33 34 32
4 32 34  5  4
4 33  6  7 34
4 34  7  0  5
4 2  3 43 35
4 35 43 44 36
4 36 44 45 37
4 37 45 46 38
4 38 46 47 39
4 39 47 48 40
4 40 48 49 41
4 41 49 50 42
4 42 50  9  8
4 3  4 51 43
4 43 51 52 44
4 44 52 53 45
4 45 53 54 46
4 46 54 55 47
4 47 55 56 48
4 48 56 57 49
4 49 57 58 50
4 50 58 10  9
4 4  5 59 51
4 51 59 60 52
4 52 60 61 53
4 53 61 62 54
4 54 62 63 55
4 55 63 64 56
4 56 64 65 57
4 57 65 66 58
4 58 66 11 10
4 5  0 12 59
4 59 12 13 60
4 60 13 14 61
4 61 14 15 62
4 62 15 16 63
4 63 16 17 64
4 64 17 18 65
4 65 18 19 66
4 66 19  1 11
4 6 67 68  7
4 7 68 20  0
4 68 69 21 20
4 69 70 22 21
4 70 71 23 22
4 0 20 72 12
4 12 72 73 13
4 13 73 74 14
4 14 74 75 15
4 15 75 76 16
4 16 76 77 17
4 17 77 78 18
4 18 78 79 19
4 19 79 24  1
4 20 21 80 72
4 72 80 81 73
4 73 81 82 74
4 74 82 83 75
4 75 83 84 76
4 76 84 85 77
4 77 85 86 78
4 78 86 87 79
4 79 87 25 24
4 21 22 88 80
4 80 88 89 81
4 81 89 90 82
4 82 90 91 83
4 83 91 92 84
4 84 92 93 85
4 85 93 94 86
4 86 94 95 87
4 87 95 26 25
4 22 23 96 88
4 88 96 97 89
4 89 97 98 90
4 90 98 99 91
4 91  99 100  92
CELL_TYPES 81
9 9 9 9 9 9 9 9 9 9 9 9 9 9 9 9 9 9 9 9 9 9 9 9 9 9 9 9 9 9 9 9 9 9 9 9 9 9 9 9 9 9 9 9 9 9 9 9 9 9 9 9 9 9 9 9 9 9 9 9 9 9 9 9 9 9 9 9 9 9 9 9 9 9 9 9 9 9 9 9 9 
POINT_DATA 101
VECTORS displacement_ITER1 FLOAT
 3.778673e-02  -5.870866e-02  0 
 6.719120e-02  -6.344718e-02  0 
 2.795822e-02  -4.572713e-02  0 
 2.991248e-02  -5.081791e-02  0 
 3.168377e-02  -5.478437e-02  0 
 3.396311e-02  -5.797942e-02  0 
 3.964532e-02  -5.718633e-02  0 
 4.033019e-02  -5.780698e-02  0 
 6.737435e-02  -4.578157e-02  0 
 6.738538e-02  -5.017750e-02  0 
 6.730307e-02  -5.460278e-02  0 
 6.722927e-02  -5.903127e-02  0 
 3.617895e-02  -5.982359e-02  0 
 3.852140e-02  -6.104160e-02  0 
 4.187097e-02  -6.186880e-02  0 
 4.568808e-02  -6.245318e-02  0 
 4.975930e-02  -6.288600e-02  0 
 5.399892e-02  -6.319090e-02  0 
 5.835490e-02  -6.337145e-02  0 
 6.277230e-02  -6.344298e-02  0 
 4.176863e-02  -5.859380e-02  0 
 4.442413e-02  -6.133661e-02  0 
 4.587298e-02  -6.476383e-02  0 
 4.648920e-02  -6.776975e-02  0 
 6.546902e-02  -6.679492e-02  0 
 6.432412e-02  -6.964607e-02  0 
 6.349847e-02  -6.998511e-02  0 
 1.375369e-02  -2.742069e-02  0 
 2.273375e-02  -3.662341e-02  0 
 2.139689e-02  -4.147436e-02  0 
 2.741033e-02  -4.620659e-02  0 
 3.022071e-02  -4.694900e-02  0 
 3.106570e-02  -5.174077e-02  0 
 3.536814e-02  -5.092101e-02  0 
 3.584088e-02  -5.493222e-02  0 
 3.352926e-02  -4.652432e-02  0 
 3.775321e-02  -4.704976e-02  0 
 4.159664e-02  -4.719456e-02  0 
 4.519722e-02  -4.689968e-02  0 
 4.931864e-02  -4.633636e-02  0 
 5.412406e-02  -4.590521e-02  0 
 5.875373e-02  -4.588636e-02  0 
 6.326495e-02  -4.595411e-02  0 
 3.420970e-02  -5.112703e-02  0 
 3.811403e-02  -5.111034e-02  0 
 4.169819e-02  -5.094099e-02  0 
 4.538364e-02  -5.074846e-02  0 
 4.947729e-02  -5.063535e-02  0 
 5.397153e-02  -5.050593e-02  0 
 5.856653e-02  -5.035670e-02  0 
 6.299941e-02  -5.022867e-02  0 
 3.507943e-02  -5.509378e-02  0 
 3.830862e-02  -5.493929e-02  0 
 4.172298e-02  -5.470691e-02  0 
 4.549488e-02  -5.466617e-02  0 
 4.958945e-02  -5.472163e-02  0 
 5.393091e-02  -5.475441e-02  0 
 5.839189e-02  -5.470929e-02  0 
 6.286149e-02  -5.464258e-02  0 
 3.592365e-02  -5.829734e-02  0 
 3.834442e-02  -5.815733e-02  0 
 4.173289e-02  -5.830880e-02  0 
 4.556560e-02  -5.854492e-02  0 
 4.966411e-02  -5.877702e-02  0 
 5.394394e-02  -5.894360e-02  0 
 5.834125e-02  -5.902403e-02  0 
 6.278976e-02  -5.904119e-02  0 
 3.937673e-02  -5.817902e-02  0 
 4.048447e-02  -5.816890e-02  0 
 4.139327e-02  -6.071796e-02  0 
 4.290852e-02  -6.459587e-02  0 
 4.391449e-02  -6.774064e-02  0 
 4.139699e-02  -6.104536e-02  0 
 4.252347e-02  -6.300205e-02  0 
 4.462998e-02  -6.432766e-02  0 
 4.730205e-02  -6.524525e-02  0 
 5.046564e-02  -6.585789e-02  0 
 5.409765e-02  -6.626592e-02  0 
 5.809018e-02  -6.659306e-02  0 
 6.203456e-02  -6.692322e-02  0 
 4.540950e-02  -6.242368e-02  0 
 4.620381e-02  -6.390684e-02  0 
 4.737394e-02  -6.527198e-02  0 
 4.896019e-02  -6.656134e-02  0 
 5.112486e-02  -6.767149e-02  0 
 5.419319e-02  -6.857543e-02  0 
 5.800943e-02  -6.931593e-02  0 
 6.176959e-02  -6.954381e-02  0 
 4.812322e-02  -6.382779e-02  0 
 4.900373e-02  -6.402050e-02  0 
 4.983629e-02  -6.484518e-02  0 
 5.083175e-02  -6.618479e-02  0 
 5.184761e-02  -6.811779e-02  0 
 5.477603e-02  -7.063994e-02  0 
 5.824553e-02  -7.222286e-02  0 
 6.162880e-02  -7.238242e-02  0 
 4.978335e-02  -6.390211e-02  0 
 5.096059e-02  -6.277942e-02  0 
 5.185013e-02  -6.345249e-02  0 
 5.252613e-02  -6.395635e-02  0 
 5.155937e-02  -6.394790e-02  0 
VECTORS displacement_ITER2 FLOAT
 3.475771e-02  -4.559102e-02  0 
 5.448728e-02  -5.061443e-02  0 
 2.606748e-02  -3.803060e-02  0 
 2.758675e-02  -4.143852e-02  0 
 2.913181e-02  -4.411571e-02  0 
 3.124072e-02  -4.609925e-02  0 
 3.954649e-02  -4.343519e-02  0 
 3.894966e-02  -4.435706e-02  0 
 5.437430e-02  -3.782919e-02  0 
 5.438068e-02  -4.092276e-02  0 
 5.439443e-02  -4.409991e-02  0 
 5.442765e-02  -4.733157e-02  0 
 3.231042e-02  -4.687179e-02  0 
 3.361293e-02  -4.814326e-02  0 
 3.588677e-02  -4.900845e-02  0 
 3.861698e-02  -4.961175e-02  0 
 4.159398e-02  -5.003877e-02  0 
 4.472092e-02  -5.032270e-02  0 
 4.793685e-02  -5.048778e-02  0 
 5.119762e-02  -5.057061e-02  0 
 3.826789e-02  -4.323171e-02  0 
 4.067807e-02  -4.349976e-02  0 
 4.240288e-02  -4.483945e-02  0 
 4.335925e-02  -4.683118e-02  0 
 5.990962e-02  -5.590124e-02  0 
 6.546906e-02  -6.128777e-02  0 
 7.245276e-02  -6.892178e-02  0 
 2.744170e-02  -4.353273e-02  0 
 2.590136e-02  -4.214396e-02  0 
 3.009705e-02  -4.057021e-02  0 
 2.766488e-02  -4.180524e-02  0 
 3.308562e-02  -4.033385e-02  0 
 3.074713e-02  -4.271744e-02  0 
 3.601006e-02  -4.143426e-02  0 
 3.452486e-02  -4.373207e-02  0 
 2.980971e-02  -3.847677e-02  0 
 3.276870e-02  -3.873875e-02  0 
 3.557304e-02  -3.869165e-02  0 
 3.828222e-02  -3.839534e-02  0 
 4.133628e-02  -3.800026e-02  0 
 4.475950e-02  -3.772395e-02  0 
 4.811466e-02  -3.775891e-02  0 
 5.134275e-02  -3.786054e-02  0 
 3.048473e-02  -4.167104e-02  0 
 3.314375e-02  -4.162814e-02  0 
 3.567841e-02  -4.144681e-02  0 
 3.838046e-02  -4.125213e-02  0 
 4.139173e-02  -4.113342e-02  0 
 4.466929e-02  -4.104646e-02  0 
 4.800572e-02  -4.097418e-02  0 
 5.123104e-02  -4.093170e-02  0 
 3.130250e-02  -4.438862e-02  0 
 3.337272e-02  -4.426585e-02  0 
 3.571473e-02  -4.408562e-02  0 
 3.843485e-02  -4.405623e-02  0 
 4.144199e-02  -4.409991e-02  0 
 4.463655e-02  -4.413691e-02  0 
 4.790857e-02  -4.413044e-02  0 
 5.117088e-02  -4.410642e-02  0 
 3.205973e-02  -4.640065e-02  0 
 3.342694e-02  -4.634364e-02  0 
 3.573861e-02  -4.655179e-02  0 
 3.849140e-02  -4.680919e-02  0 
 4.149716e-02  -4.703721e-02  0 
 4.465541e-02  -4.719777e-02  0 
 4.789480e-02  -4.728440e-02  0 
 5.116297e-02  -4.731802e-02  0 
 3.929704e-02  -4.334673e-02  0 
 3.925500e-02  -4.300175e-02  0 
 4.007949e-02  -4.284820e-02  0 
 4.095398e-02  -4.461972e-02  0 
 4.148293e-02  -4.666221e-02  0 
 3.656000e-02  -4.642089e-02  0 
 3.693155e-02  -4.880788e-02  0 
 3.858414e-02  -5.045217e-02  0 
 4.088349e-02  -5.175462e-02  0 
 4.360956e-02  -5.283035e-02  0 
 4.678323e-02  -5.361927e-02  0 
 5.055558e-02  -5.408758e-02  0 
 5.491470e-02  -5.461933e-02  0 
 4.004156e-02  -4.646344e-02  0 
 4.019917e-02  -4.923874e-02  0 
 4.148448e-02  -5.145827e-02  0 
 4.365519e-02  -5.338472e-02  0 
 4.616983e-02  -5.540638e-02  0 
 4.915467e-02  -5.721595e-02  0 
 5.317101e-02  -5.868113e-02  0 
 5.894802e-02  -5.980981e-02  0 
 4.266596e-02  -4.720296e-02  0 
 4.300070e-02  -4.984845e-02  0 
 4.426512e-02  -5.247675e-02  0 
 4.670202e-02  -5.485041e-02  0 
 4.978443e-02  -5.735407e-02  0 
 5.195730e-02  -6.065965e-02  0 
 5.627539e-02  -6.399593e-02  0 
 6.232396e-02  -6.718071e-02  0 
 4.466181e-02  -4.769512e-02  0 
 4.541167e-02  -5.036779e-02  0 
 4.696351e-02  -5.381048e-02  0 
 4.946925e-02  -5.689461e-02  0 
 5.347304e-02  -5.907201e-02  0 
VECTORS displacement_ITER3 FLOAT
 3.321966e-02  -4.579727e-02  0 
 5.331662e-02  -5.046174e-02  0 
 2.504108e-02  -3.787086e-02  0 
 2.646604e-02  -4.127158e-02  0 
 2.791292e-02  -4.399014e-02  0 
 2.989670e-02  -4.605878e-02  0 
 3.672812e-02  -4.369515e-02  0 
 3.671507e-02  -4.466839e-02  0 
 5.326853e-02  -3.762956e-02  0 
 5.326269e-02  -4.079156e-02  0 
 5.325652e-02  -4.397866e-02  0 
 5.327327e-02  -4.720068e-02  0 
 3.110218e-02  -4.697462e-02  0 
 3.250775e-02  -4.815338e-02  0 
 3.481758e-02  -4.895594e-02  0 
 3.755031e-02  -4.951746e-02  0 
 4.051292e-02  -4.991786e-02  0 
 4.361831e-02  -5.018758e-02  0 
 4.681161e-02  -5.034673e-02  0 
 5.005079e-02  -5.042524e-02  0 
 3.655374e-02  -4.410773e-02  0 
 3.875145e-02  -4.485116e-02  0 
 4.027912e-02  -4.650162e-02  0 
 4.113174e-02  -4.858443e-02  0 
 5.722086e-02  -5.529086e-02  0 
 6.097573e-02  -5.987891e-02  0 
 6.554838e-02  -6.554922e-02  0 
 2.117670e-02  -3.497862e-02  0 
 2.347223e-02  -3.727427e-02  0 
 2.477475e-02  -3.830052e-02  0 
 2.574496e-02  -4.017756e-02  0 
 2.907380e-02  -4.009677e-02  0 
 2.852504e-02  -4.253750e-02  0 
 3.299331e-02  -4.147299e-02  0 
 3.223616e-02  -4.391924e-02  0 
 2.872090e-02  -3.833950e-02  0 
 3.167605e-02  -3.859637e-02  0 
 3.449293e-02  -3.857107e-02  0 
 3.723089e-02  -3.830514e-02  0 
 4.027536e-02  -3.792677e-02  0 
 4.366963e-02  -3.765225e-02  0 
 4.698198e-02  -3.765316e-02  0 
 5.020102e-02  -3.770771e-02  0 
 2.937227e-02  -4.150750e-02  0 
 3.204608e-02  -4.148920e-02  0 
 3.460695e-02  -4.133282e-02  0 
 3.732095e-02  -4.115400e-02  0 
 4.032223e-02  -4.103738e-02  0 
 4.357013e-02  -4.094176e-02  0 
 4.687589e-02  -4.085754e-02  0 
 5.009089e-02  -4.080464e-02  0 
 3.014882e-02  -4.425296e-02  0 
 3.227549e-02  -4.414731e-02  0 
 3.464863e-02  -4.398442e-02  0 
 3.737371e-02  -4.395779e-02  0 
 4.036634e-02  -4.399475e-02  0 
 4.353627e-02  -4.402276e-02  0 
 4.678512e-02  -4.401114e-02  0 
 5.003562e-02  -4.398723e-02  0 
 3.086721e-02  -4.634146e-02  0 
 3.233202e-02  -4.628229e-02  0 
 3.467597e-02  -4.647509e-02  0 
 3.742929e-02  -4.671493e-02  0 
 4.041906e-02  -4.692715e-02  0 
 4.355486e-02  -4.707675e-02  0 
 4.677314e-02  -4.715826e-02  0 
 5.002422e-02  -4.718995e-02  0 
 3.653353e-02  -4.432238e-02  0 
 3.696352e-02  -4.385950e-02  0 
 3.776088e-02  -4.431506e-02  0 
 3.856003e-02  -4.629296e-02  0 
 3.911971e-02  -4.850546e-02  0 
 3.531546e-02  -4.688671e-02  0 
 3.595653e-02  -4.906154e-02  0 
 3.775692e-02  -5.059576e-02  0 
 4.009202e-02  -5.181189e-02  0 
 4.272734e-02  -5.280116e-02  0 
 4.567192e-02  -5.351770e-02  0 
 4.903127e-02  -5.394814e-02  0 
 5.283385e-02  -5.437355e-02  0 
 3.875702e-02  -4.731082e-02  0 
 3.939024e-02  -4.982681e-02  0 
 4.091158e-02  -5.188155e-02  0 
 4.308726e-02  -5.355824e-02  0 
 4.542228e-02  -5.525876e-02  0 
 4.797653e-02  -5.672570e-02  0 
 5.127494e-02  -5.785587e-02  0 
 5.585558e-02  -5.880096e-02  0 
 4.148191e-02  -4.842418e-02  0 
 4.254532e-02  -5.089543e-02  0 
 4.395263e-02  -5.319605e-02  0 
 4.622540e-02  -5.512713e-02  0 
 4.897971e-02  -5.694402e-02  0 
 5.051013e-02  -5.936325e-02  0 
 5.389141e-02  -6.197150e-02  0 
 5.851678e-02  -6.430649e-02  0 
 4.408699e-02  -4.984627e-02  0 
 4.541053e-02  -5.186859e-02  0 
 4.690576e-02  -5.464204e-02  0 
 4.906182e-02  -5.720046e-02  0 
 5.299246e-02  -5.926101e-02  0 
VECTORS displacement_ITER4 FLOAT
 3.174206e-02  -4.561855e-02  0 
 5.285539e-02  -5.000101e-02  0 
 2.378688e-02  -3.702625e-02  0 
 2.517822e-02  -4.055911e-02  0 
 2.659002e-02  -4.341542e-02  0 
 2.851652e-02  -4.563938e-02  0 
 3.417198e-02  -4.365180e-02  0 
 3.458728e-02  -4.457448e-02  0 
 5.290441e-02  -3.680374e-02  0 
 5.287775e-02  -4.010456e-02  0 
 5.284606e-02  -4.338480e-02  0 
 5.283805e-02  -4.668220e-02  0 
 2.990624e-02  -4.674051e-02  0 
 3.147503e-02  -4.786486e-02  0 
 3.390917e-02  -4.862234e-02  0 
 3.674230e-02  -4.914558e-02  0 
 3.978923e-02  -4.951539e-02  0 
 4.296866e-02  -4.976387e-02  0 
 4.623021e-02  -4.990969e-02  0 
 4.953383e-02  -4.997733e-02  0 
 3.501623e-02  -4.460116e-02  0 
 3.711908e-02  -4.596418e-02  0 
 3.847012e-02  -4.807105e-02  0 
 3.921270e-02  -5.029754e-02  0 
 5.456936e-02  -5.406678e-02  0 
 5.604300e-02  -5.754659e-02  0 
 5.780346e-02  -6.050730e-02  0 
 1.855817e-02  -3.139652e-02  0 
 2.164805e-02  -3.485973e-02  0 
 2.219010e-02  -3.692001e-02  0 
 2.421510e-02  -3.895910e-02  0 
 2.670444e-02  -3.967300e-02  0 
 2.681834e-02  -4.197302e-02  0 
 3.078571e-02  -4.130073e-02  0 
 3.032458e-02  -4.361129e-02  0 
 2.756157e-02  -3.751912e-02  0 
 3.064587e-02  -3.778084e-02  0 
 3.359727e-02  -3.778959e-02  0 
 3.646526e-02  -3.755393e-02  0 
 3.958991e-02  -3.719662e-02  0 
 4.304456e-02  -3.692411e-02  0 
 4.641665e-02  -3.689712e-02  0 
 4.971703e-02  -3.691749e-02  0 
 2.821363e-02  -4.079882e-02  0 
 3.101918e-02  -4.080004e-02  0 
 3.371266e-02  -4.066164e-02  0 
 3.653803e-02  -4.049330e-02  0 
 3.962437e-02  -4.037691e-02  0 
 4.293701e-02  -4.027624e-02  0 
 4.630718e-02  -4.018406e-02  0 
 4.960251e-02  -4.012269e-02  0 
 2.897584e-02  -4.367549e-02  0 
 3.124984e-02  -4.357882e-02  0 
 3.375111e-02  -4.342257e-02  0 
 3.658095e-02  -4.339229e-02  0 
 3.965776e-02  -4.342018e-02  0 
 4.289907e-02  -4.343934e-02  0 
 4.621688e-02  -4.342295e-02  0 
 4.954304e-02  -4.339771e-02  0 
 2.967825e-02  -4.591324e-02  0 
 3.130644e-02  -4.584963e-02  0 
 3.377548e-02  -4.602697e-02  0 
 3.662960e-02  -4.624767e-02  0 
 3.970322e-02  -4.644144e-02  0 
 4.291265e-02  -4.657699e-02  0 
 4.620094e-02  -4.665005e-02  0 
 4.952128e-02  -4.667682e-02  0 
 3.404303e-02  -4.462857e-02  0 
 3.478632e-02  -4.430649e-02  0 
 3.555043e-02  -4.551026e-02  0 
 3.642329e-02  -4.787538e-02  0 
 3.708797e-02  -5.027311e-02  0 
 3.418731e-02  -4.706432e-02  0 
 3.501810e-02  -4.904445e-02  0 
 3.688939e-02  -5.043707e-02  0 
 3.923115e-02  -5.149717e-02  0 
 4.182381e-02  -5.231401e-02  0 
 4.464279e-02  -5.289557e-02  0 
 4.770350e-02  -5.327727e-02  0 
 5.097584e-02  -5.361488e-02  0 
 3.761895e-02  -4.785693e-02  0 
 3.850179e-02  -4.999050e-02  0 
 4.003198e-02  -5.177058e-02  0 
 4.203347e-02  -5.315793e-02  0 
 4.417290e-02  -5.444994e-02  0 
 4.648681e-02  -5.550292e-02  0 
 4.928294e-02  -5.629228e-02  0 
 5.265774e-02  -5.695739e-02  0 
 4.031126e-02  -4.921842e-02  0 
 4.170262e-02  -5.113253e-02  0 
 4.303251e-02  -5.291452e-02  0 
 4.489174e-02  -5.440152e-02  0 
 4.702631e-02  -5.568523e-02  0 
 4.847196e-02  -5.738594e-02  0 
 5.113370e-02  -5.912240e-02  0 
 5.430128e-02  -6.031229e-02  0 
 4.300385e-02  -5.093128e-02  0 
 4.456957e-02  -5.199700e-02  0 
 4.587489e-02  -5.391516e-02  0 
 4.748803e-02  -5.569713e-02  0 
 5.032421e-02  -5.723594e-02  0 
VECTORS displacement_ITER5 FLOAT
 3.119062e-02  -4.317096e-02  0 
 5.091781e-02  -4.759097e-02  0 
 2.337619e-02  -3.541237e-02  0 
 2.466398e-02  -3.864393e-02  0 
 2.604107e-02  -4.132380e-02  0 
 2.796479e-02  -4.338704e-02  0 
 3.409828e-02  -4.115945e-02  0 
 3.427164e-02  -4.207733e-02  0 
 5.094233e-02  -3.512494e-02  0 
 5.090481e-02  -3.822869e-02  0 
 5.088583e-02  -4.132336e-02  0 
 5.089146e-02  -4.444311e-02  0 
 2.919192e-02  -4.433374e-02  0 
 3.061452e-02  -4.548159e-02  0 
 3.290684e-02  -4.625250e-02  0 
 3.559969e-02  -4.677769e-02  0 
 3.850446e-02  -4.713816e-02  0 
 4.153404e-02  -4.737137e-02  0 
 4.463414e-02  -4.750382e-02  0 
 4.776716e-02  -4.756576e-02  0 
 3.445526e-02  -4.187575e-02  0 
 3.653370e-02  -4.297476e-02  0 
 3.788242e-02  -4.483376e-02  0 
 3.868884e-02  -4.690236e-02  0 
 5.313699e-02  -5.172392e-02  0 
 5.502533e-02  -5.523225e-02  0 
 5.726443e-02  -5.844621e-02  0 
 2.160154e-02  -3.436027e-02  0 
 2.232560e-02  -3.579268e-02  0 
 2.406032e-02  -3.667152e-02  0 
 2.434003e-02  -3.799492e-02  0 
 2.725794e-02  -3.847862e-02  0 
 2.677599e-02  -4.020449e-02  0 
 3.087884e-02  -3.957508e-02  0 
 3.004770e-02  -4.150273e-02  0 
 2.679666e-02  -3.581461e-02  0 
 2.971462e-02  -3.600098e-02  0 
 3.257323e-02  -3.595729e-02  0 
 3.538688e-02  -3.572487e-02  0 
 3.838748e-02  -3.542346e-02  0 
 4.161416e-02  -3.519987e-02  0 
 4.478432e-02  -3.518034e-02  0 
 4.789263e-02  -3.520251e-02  0 
 2.748092e-02  -3.887543e-02  0 
 3.011426e-02  -3.887939e-02  0 
 3.269653e-02  -3.873908e-02  0 
 3.542742e-02  -3.856676e-02  0 
 3.838281e-02  -3.844417e-02  0 
 4.151593e-02  -3.835182e-02  0 
 4.469202e-02  -3.827950e-02  0 
 4.781081e-02  -3.823916e-02  0 
 2.825761e-02  -4.158387e-02  0 
 3.037295e-02  -4.150000e-02  0 
 3.274172e-02  -4.135543e-02  0 
 3.544833e-02  -4.132265e-02  0 
 3.838924e-02  -4.134027e-02  0 
 4.147295e-02  -4.135490e-02  0 
 4.461754e-02  -4.134600e-02  0 
 4.776414e-02  -4.133044e-02  0 
 2.896062e-02  -4.366356e-02  0 
 3.044106e-02  -4.361493e-02  0 
 3.277062e-02  -4.380455e-02  0 
 3.548899e-02  -4.402642e-02  0 
 3.842289e-02  -4.421233e-02  0 
 4.148145e-02  -4.433927e-02  0 
 4.460492e-02  -4.440827e-02  0 
 4.775058e-02  -4.443530e-02  0 
 3.406016e-02  -4.174508e-02  0 
 3.449504e-02  -4.157405e-02  0 
 3.522210e-02  -4.255784e-02  0 
 3.604308e-02  -4.462869e-02  0 
 3.669196e-02  -4.681090e-02  0 
 3.338924e-02  -4.444981e-02  0 
 3.407085e-02  -4.648058e-02  0 
 3.584034e-02  -4.789652e-02  0 
 3.811021e-02  -4.896830e-02  0 
 4.064258e-02  -4.979746e-02  0 
 4.338938e-02  -5.040006e-02  0 
 4.636178e-02  -5.080632e-02  0 
 4.955173e-02  -5.117321e-02  0 
 3.674525e-02  -4.506096e-02  0 
 3.746956e-02  -4.731086e-02  0 
 3.893892e-02  -4.915955e-02  0 
 4.094548e-02  -5.059692e-02  0 
 4.312316e-02  -5.191837e-02  0 
 4.546522e-02  -5.300254e-02  0 
 4.822926e-02  -5.384455e-02  0 
 5.157291e-02  -5.456652e-02  0 
 3.935442e-02  -4.631860e-02  0 
 4.057789e-02  -4.842368e-02  0 
 4.191451e-02  -5.036234e-02  0 
 4.385523e-02  -5.195764e-02  0 
 4.611161e-02  -5.330773e-02  0 
 4.770576e-02  -5.500103e-02  0 
 5.037926e-02  -5.667942e-02  0 
 5.349424e-02  -5.796027e-02  0 
 4.190606e-02  -4.796598e-02  0 
 4.335483e-02  -4.945265e-02  0 
 4.474985e-02  -5.158281e-02  0 
 4.653856e-02  -5.355488e-02  0 
 4.955017e-02  -5.518417e-02  0 
VECTORS displacement_ITER6 FLOAT
 3.156041e-02  -4.249182e-02  0 
 5.014034e-02  -4.693939e-02  0 
 2.371120e-02  -3.528106e-02  0 
 2.496417e-02  -3.833415e-02  0 
 2.633593e-02  -4.089851e-02  0 
 2.828156e-02  -4.284970e-02  0 
 3.425936e-02  -4.037280e-02  0 
 3.457196e-02  -4.137393e-02  0 
 5.016784e-02  -3.493560e-02  0 
 5.012984e-02  -3.793205e-02  0 
 5.010952e-02  -4.091128e-02  0 
 5.011494e-02  -4.391180e-02  0 
 2.938282e-02  -4.366492e-02  0 
 3.067462e-02  -4.482507e-02  0 
 3.284391e-02  -4.560441e-02  0 
 3.541717e-02  -4.613378e-02  0 
 3.820444e-02  -4.649402e-02  0 
 4.111665e-02  -4.672455e-02  0 
 4.409791e-02  -4.685443e-02  0 
 4.711052e-02  -4.691498e-02  0 
 3.487447e-02  -4.131425e-02  0 
 3.692622e-02  -4.252750e-02  0 
 3.824418e-02  -4.443644e-02  0 
 3.906967e-02  -4.652104e-02  0 
 5.217945e-02  -5.090929e-02  0 
 5.379078e-02  -5.409598e-02  0 
 5.564385e-02  -5.666510e-02  0 
 1.931954e-02  -3.028413e-02  0 
 2.201305e-02  -3.338129e-02  0 
 2.262189e-02  -3.512284e-02  0 
 2.430934e-02  -3.696121e-02  0 
 2.660948e-02  -3.762720e-02  0 
 2.675245e-02  -3.959853e-02  0 
 3.071878e-02  -3.873256e-02  0 
 3.016713e-02  -4.090012e-02  0 
 2.691893e-02  -3.567150e-02  0 
 2.971259e-02  -3.583347e-02  0 
 3.247914e-02  -3.577138e-02  0 
 3.522038e-02  -3.554075e-02  0 
 3.812073e-02  -3.525351e-02  0 
 4.121080e-02  -3.504124e-02  0 
 4.423902e-02  -3.500908e-02  0 
 4.722546e-02  -3.501454e-02  0 
 2.763480e-02  -3.857778e-02  0 
 3.013657e-02  -3.859505e-02  0 
 3.261497e-02  -3.845828e-02  0 
 3.525050e-02  -3.828338e-02  0 
 3.809886e-02  -3.815430e-02  0 
 4.110589e-02  -3.805649e-02  0 
 4.415075e-02  -3.798303e-02  0 
 4.714859e-02  -3.794309e-02  0 
 2.843193e-02  -4.116635e-02  0 
 3.041911e-02  -4.109331e-02  0 
 3.266925e-02  -4.095531e-02  0 
 3.526516e-02  -4.092142e-02  0 
 3.809319e-02  -4.093252e-02  0 
 4.105794e-02  -4.094134e-02  0 
 4.408031e-02  -4.093130e-02  0 
 4.710612e-02  -4.091745e-02  0 
 2.914827e-02  -4.313123e-02  0 
 3.049685e-02  -4.308415e-02  0 
 3.270397e-02  -4.327927e-02  0 
 3.530479e-02  -4.350293e-02  0 
 3.812276e-02  -4.368627e-02  0 
 4.106423e-02  -4.380969e-02  0 
 4.406865e-02  -4.387690e-02  0 
 4.709415e-02  -4.390383e-02  0 
 3.428341e-02  -4.112356e-02  0 
 3.479186e-02  -4.100383e-02  0 
 3.554197e-02  -4.214684e-02  0 
 3.636573e-02  -4.422662e-02  0 
 3.703316e-02  -4.642433e-02  0 
 3.368688e-02  -4.381047e-02  0 
 3.424945e-02  -4.579884e-02  0 
 3.590968e-02  -4.717927e-02  0 
 3.807808e-02  -4.821314e-02  0 
 4.050533e-02  -4.901035e-02  0 
 4.311836e-02  -4.960206e-02  0 
 4.589986e-02  -5.002400e-02  0 
 4.884462e-02  -5.039926e-02  0 
 3.707384e-02  -4.446724e-02  0 
 3.771952e-02  -4.662218e-02  0 
 3.909944e-02  -4.839973e-02  0 
 4.101594e-02  -4.976383e-02  0 
 4.311802e-02  -5.098803e-02  0 
 4.534798e-02  -5.198745e-02  0 
 4.788439e-02  -5.277549e-02  0 
 5.082174e-02  -5.348520e-02  0 
 3.967499e-02  -4.577896e-02  0 
 4.086099e-02  -4.774949e-02  0 
 4.214199e-02  -4.957662e-02  0 
 4.399133e-02  -5.108114e-02  0 
 4.615226e-02  -5.230333e-02  0 
 4.771300e-02  -5.375478e-02  0 
 5.012881e-02  -5.518204e-02  0 
 5.276453e-02  -5.623964e-02  0 
 4.220434e-02  -4.749211e-02  0 
 4.363413e-02  -4.883020e-02  0 
 4.501953e-02  -5.078381e-02  0 
 4.676170e-02  -5.262739e-02  0 
 4.963588e-02  -5.421148e-02  0 
VECTORS displacement_ITER7 FLOAT
 3.149842e-02  -4.170534e-02  0 
 4.962771e-02  -4.622890e-02  0 
 2.365467e-02  -3.482733e-02  0 
 2.486159e-02  -3.776133e-02  0 
 2.622774e-02  -4.026801e-02  0 
 2.819020e-02  -4.216308e-02  0 
 3.427252e-02  -3.941311e-02  0 
 3.461238e-02  -4.052343e-02  0 
 4.963855e-02  -3.443262e-02  0 
 4.959164e-02  -3.737788e-02  0 
 4.957782e-02  -4.030086e-02  0 
 4.959323e-02  -4.324824e-02  0 
 2.922603e-02  -4.291596e-02  0 
 3.046469e-02  -4.410084e-02  0 
 3.259080e-02  -4.489450e-02  0 
 3.512467e-02  -4.542945e-02  0 
 3.787324e-02  -4.578840e-02  0 
 4.074439e-02  -4.601443e-02  0 
 4.368029e-02  -4.614068e-02  0 
 4.664439e-02  -4.620117e-02  0 
 3.481895e-02  -4.040576e-02  0 
 3.684687e-02  -4.150211e-02  0 
 3.818288e-02  -4.331594e-02  0 
 3.904670e-02  -4.540220e-02  0 
 5.227977e-02  -5.045218e-02  0 
 5.439553e-02  -5.392586e-02  0 
 5.673053e-02  -5.710045e-02  0 
 2.128858e-02  -3.252292e-02  0 
 2.255390e-02  -3.441076e-02  0 
 2.390624e-02  -3.543392e-02  0 
 2.455555e-02  -3.690571e-02  0 
 2.715188e-02  -3.739334e-02  0 
 2.692600e-02  -3.909771e-02  0 
 3.095711e-02  -3.827871e-02  0 
 3.020201e-02  -4.021282e-02  0 
 2.671254e-02  -3.517358e-02  0 
 2.945880e-02  -3.529608e-02  0 
 3.221494e-02  -3.521087e-02  0 
 3.496662e-02  -3.498538e-02  0 
 3.783545e-02  -3.472660e-02  0 
 4.083868e-02  -3.453704e-02  0 
 4.379427e-02  -3.450201e-02  0 
 4.671748e-02  -3.450072e-02  0 
 2.745355e-02  -3.800307e-02  0 
 2.990027e-02  -3.802368e-02  0 
 3.235628e-02  -3.788627e-02  0 
 3.497714e-02  -3.770882e-02  0 
 3.779088e-02  -3.757505e-02  0 
 4.073759e-02  -3.747943e-02  0 
 4.371615e-02  -3.741425e-02  0 
 4.666113e-02  -3.738451e-02  0 
 2.826559e-02  -4.053890e-02  0 
 3.019971e-02  -4.047273e-02  0 
 3.241276e-02  -4.034036e-02  0 
 3.497822e-02  -4.030481e-02  0 
 3.776970e-02  -4.031014e-02  0 
 4.068746e-02  -4.031637e-02  0 
 4.365668e-02  -4.031074e-02  0 
 4.662863e-02  -4.030313e-02  0 
 2.898785e-02  -4.244905e-02  0 
 3.028331e-02  -4.241054e-02  0 
 3.244895e-02  -4.261438e-02  0 
 3.501279e-02  -4.284064e-02  0 
 3.779299e-02  -4.302150e-02  0 
 4.069226e-02  -4.314210e-02  0 
 4.364905e-02  -4.320911e-02  0 
 4.662344e-02  -4.323784e-02  0 
 3.431736e-02  -4.027682e-02  0 
 3.484518e-02  -4.011176e-02  0 
 3.559409e-02  -4.113249e-02  0 
 3.634625e-02  -4.309933e-02  0 
 3.695869e-02  -4.530297e-02  0 
 3.346512e-02  -4.301186e-02  0 
 3.396240e-02  -4.505642e-02  0 
 3.561118e-02  -4.646405e-02  0 
 3.780078e-02  -4.751752e-02  0 
 4.026299e-02  -4.833998e-02  0 
 4.290973e-02  -4.896362e-02  0 
 4.572857e-02  -4.941608e-02  0 
 4.875068e-02  -4.982345e-02  0 
 3.679202e-02  -4.363893e-02  0 
 3.735511e-02  -4.591558e-02  0 
 3.875545e-02  -4.776629e-02  0 
 4.076889e-02  -4.918520e-02  0 
 4.299861e-02  -5.046199e-02  0 
 4.534495e-02  -5.152318e-02  0 
 4.798328e-02  -5.238990e-02  0 
 5.108894e-02  -5.320571e-02  0 
 3.932486e-02  -4.498505e-02  0 
 4.040916e-02  -4.715252e-02  0 
 4.176323e-02  -4.913990e-02  0 
 4.378507e-02  -5.076441e-02  0 
 4.618078e-02  -5.205612e-02  0 
 4.793623e-02  -5.354244e-02  0 
 5.051764e-02  -5.504329e-02  0 
 5.336552e-02  -5.630247e-02  0 
 4.173312e-02  -4.676281e-02  0 
 4.309401e-02  -4.848467e-02  0 
 4.462465e-02  -5.069853e-02  0 
 4.662618e-02  -5.275349e-02  0 
 4.983734e-02  -5.450938e-02  0 
VECTORS displacement_ITER8 FLOAT
 3.133990e-02  -4.163364e-02  0 
 4.954507e-02  -4.612822e-02  0 
 2.353123e-02  -3.475077e-02  0 
 2.470602e-02  -3.764557e-02  0 
 2.606313e-02  -4.016193e-02  0 
 2.802634e-02  -4.207420e-02  0 
 3.402732e-02  -3.931048e-02  0 
 3.441109e-02  -4.044680e-02  0 
 4.954981e-02  -3.433398e-02  0 
 4.950415e-02  -3.727599e-02  0 
 4.949274e-02  -4.019945e-02  0 
 4.951006e-02  -4.314711e-02  0 
 2.907744e-02  -4.284398e-02  0 
 3.032951e-02  -4.402997e-02  0 
 3.246913e-02  -4.482293e-02  0 
 3.501601e-02  -4.535371e-02  0 
 3.777607e-02  -4.570535e-02  0 
 4.065560e-02  -4.592332e-02  0 
 4.359592e-02  -4.604349e-02  0 
 4.656139e-02  -4.610108e-02  0 
 3.465973e-02  -4.038770e-02  0 
 3.665984e-02  -4.153174e-02  0 
 3.795974e-02  -4.336350e-02  0 
 3.882093e-02  -4.546190e-02  0 
 5.219284e-02  -5.034564e-02  0 
 5.429364e-02  -5.378124e-02  0 
 5.661207e-02  -5.681961e-02  0 
 2.228461e-02  -3.316748e-02  0 
 2.277428e-02  -3.472739e-02  0 
 2.449958e-02  -3.535146e-02  0 
 2.464209e-02  -3.681503e-02  0 
 2.735628e-02  -3.712753e-02  0 
 2.693524e-02  -3.887416e-02  0 
 3.085787e-02  -3.808236e-02  0 
 3.011852e-02  -4.002209e-02  0 
 2.653196e-02  -3.506646e-02  0 
 2.929504e-02  -3.516649e-02  0 
 3.208851e-02  -3.506962e-02  0 
 3.488524e-02  -3.485058e-02  0 
 3.777354e-02  -3.461217e-02  0 
 4.075971e-02  -3.443881e-02  0 
 4.370229e-02  -3.439921e-02  0 
 4.662241e-02  -3.439203e-02  0 
 2.729062e-02  -3.788966e-02  0 
 2.974766e-02  -3.791511e-02  0 
 3.223291e-02  -3.777885e-02  0 
 3.488455e-02  -3.760085e-02  0 
 3.771406e-02  -3.746472e-02  0 
 4.065793e-02  -3.736936e-02  0 
 4.362858e-02  -3.730797e-02  0 
 4.657289e-02  -3.728189e-02  0 
 2.811228e-02  -4.043600e-02  0 
 3.005920e-02  -4.037639e-02  0 
 3.229128e-02  -4.024748e-02  0 
 3.487674e-02  -4.020932e-02  0 
 3.768169e-02  -4.020892e-02  0 
 4.060437e-02  -4.021130e-02  0 
 4.357325e-02  -4.020612e-02  0 
 4.654383e-02  -4.020051e-02  0 
 2.883865e-02  -4.236265e-02  0 
 3.014765e-02  -4.232642e-02  0 
 3.232815e-02  -4.253122e-02  0 
 3.490680e-02  -4.275447e-02  0 
 3.769916e-02  -4.292945e-02  0 
 4.060605e-02  -4.304457e-02  0 
 4.356581e-02  -4.310853e-02  0 
 4.654037e-02  -4.313649e-02  0 