# vtk DataFile Version 3.1
this is an vtk file created by FEMAC
ASCII
DATASET UNSTRUCTURED_GRID
POINTS 103 FLOAT
5.000000 2.000000 0.000000
4.666667 2.000000 0.000000
4.777778 2.000000 0.000000
4.888889 2.000000 0.000000
5.000000 1.222222 0.000000
5.000000 1.333333 0.000000
5.000000 1.444444 0.000000
5.000000 1.555556 0.000000
5.000000 1.666667 0.000000
5.000000 1.777778 0.000000
5.000000 1.888889 0.000000
5.000000 2.111111 0.000000
5.111111 2.000000 0.000000
5.222222 2.000000 0.000000
6.000000 1.222222 0.000000
6.000000 1.333333 0.000000
6.000000 1.444444 0.000000
6.000000 1.555556 0.000000
6.000000 1.666667 0.000000
6.000000 1.777778 0.000000
4.555556 1.222222 0.000000
4.555556 1.333333 0.000000
4.555556 1.444444 0.000000
4.555556 1.555556 0.000000
4.555556 1.666667 0.000000
4.555556 1.777778 0.000000
4.555556 1.888889 0.000000
4.666667 1.222222 0.000000
4.666667 1.333333 0.000000
4.666667 1.444444 0.000000
4.666667 1.555556 0.000000
4.666667 1.666667 0.000000
4.666667 1.777778 0.000000
4.666667 1.888889 0.000000
4.777778 1.222222 0.000000
4.777778 1.333333 0.000000
4.777778 1.444444 0.000000
4.777778 1.555556 0.000000
4.777778 1.666667 0.000000
4.777778 1.777778 0.000000
4.777778 1.888889 0.000000
4.888889 1.222222 0.000000
4.888889 1.333333 0.000000
4.888889 1.444444 0.000000
4.888889 1.555556 0.000000
4.888889 1.666667 0.000000
4.888889 1.777778 0.000000
4.888889 1.888889 0.000000
4.666667 2.111111 0.000000
4.777778 2.111111 0.000000
4.888889 2.111111 0.000000
5.111111 1.222222 0.000000
5.111111 1.333333 0.000000
5.111111 1.444444 0.000000
5.111111 1.555556 0.000000
5.111111 1.666667 0.000000
5.111111 1.777778 0.000000
5.111111 1.888889 0.000000
5.222222 1.222222 0.000000
5.222222 1.333333 0.000000
5.222222 1.444444 0.000000
5.222222 1.555556 0.000000
5.222222 1.666667 0.000000
5.222222 1.777778 0.000000
5.222222 1.888889 0.000000
5.333333 1.222222 0.000000
5.333333 1.333333 0.000000
5.333333 1.444444 0.000000
5.333333 1.555556 0.000000
5.333333 1.666667 0.000000
5.333333 1.777778 0.000000
5.333333 1.888889 0.000000
5.444444 1.222222 0.000000
5.444444 1.333333 0.000000
5.444444 1.444444 0.000000
5.444444 1.555556 0.000000
5.444444 1.666667 0.000000
5.444444 1.777778 0.000000
5.444444 1.888889 0.000000
5.555556 1.222222 0.000000
5.555556 1.333333 0.000000
5.555556 1.444444 0.000000
5.555556 1.555556 0.000000
5.555556 1.666667 0.000000
5.555556 1.777778 0.000000
5.666667 1.222222 0.000000
5.666667 1.333333 0.000000
5.666667 1.444444 0.000000
5.666667 1.555556 0.000000
5.666667 1.666667 0.000000
5.666667 1.777778 0.000000
5.777778 1.222222 0.000000
5.777778 1.333333 0.000000
5.777778 1.444444 0.000000
5.777778 1.555556 0.000000
5.777778 1.666667 0.000000
5.777778 1.777778 0.000000
5.888889 1.222222 0.000000
5.888889 1.333333 0.000000
5.888889 1.444444 0.000000
5.888889 1.555556 0.000000
5.888889 1.666667 0.000000
5.888889 1.777778 0.000000
CELLS 81 405 
4 20 27 28 21
4 21 28 29 22
4 22 29 30 23
4 23 30 31 24
4 24 31 32 25
4 25 32 33 26
4 27 34 35 28
4 28 35 36 29
4 29 36 37 30
4 30 37 38 31
4 31 38 39 32
4 32 39 40 33
4 33 40  2  1
4 34 41 42 35
4 35 42 43 36
4 36 43 44 37
4 37 44 45 38
4 38 45 46 39
4 39 46 47 40
4 40 47  3  2
4 41  4  5 42
4 42  5  6 43
4 43  6  7 44
4 44  7  8 45
4 45  8  9 46
4 46  9 10 47
4 47 10  0  3
4 1  2 49 48
4 2  3 50 49
4 3  0 11 50
4 4 51 52  5
4 5 52 53  6
4 6 53 54  7
4 7 54 55  8
4 8 55 56  9
4 9 56 57 10
4 10 57 12  0
4 51 58 59 52
4 52 59 60 53
4 53 60 61 54
4 54 61 62 55
4 55 62 63 56
4 56 63 64 57
4 57 64 13 12
4 58 65 66 59
4 59 66 67 60
4 60 67 68 61
4 61 68 69 62
4 62 69 70 63
4 63 70 71 64
4 65 72 73 66
4 66 73 74 67
4 67 74 75 68
4 68 75 76 69
4 69 76 77 70
4 70 77 78 71
4 72 79 80 73
4 73 80 81 74
4 74 81 82 75
4 75 82 83 76
4 76 83 84 77
4 79 85 86 80
4 80 86 87 81
4 81 87 88 82
4 82 88 89 83
4 83 89 90 84
4 85 91 92 86
4 86 92 93 87
4 87 93 94 88
4 88 94 95 89
4 89 95 96 90
4 91 97 98 92
4 92 98 99 93
4 93  99 100  94
4 94 100 101  95
4 95 101 102  96
4 97 14 15 98
4 98 15 16 99
4 99  16  17 100
4 100  17  18 101
4 101  18  19 102
CELL_TYPES 81
9 9 9 9 9 9 9 9 9 9 9 9 9 9 9 9 9 9 9 9 9 9 9 9 9 9 9 9 9 9 9 9 9 9 9 9 9 9 9 9 9 9 9 9 9 9 9 9 9 9 9 9 9 9 9 9 9 9 9 9 9 9 9 9 9 9 9 9 9 9 9 9 9 9 9 9 9 9 9 9 9 
POINT_DATA 103
VECTORS displacement_ITER1 FLOAT
 -2.215857e-02  -1.374863e-01  0 
 -2.140788e-02  -1.242834e-01  0 
 -2.176370e-02  -1.275406e-01  0 
 -2.220058e-02  -1.318632e-01  0 
 -4.456521e-02  -1.395676e-01  0 
 -4.143689e-02  -1.394786e-01  0 
 -3.836594e-02  -1.393608e-01  0 
 -3.527399e-02  -1.392103e-01  0 
 -3.215192e-02  -1.390038e-01  0 
 -2.896340e-02  -1.387053e-01  0 
 -2.566915e-02  -1.382693e-01  0 
 -1.724339e-02  -1.367853e-01  0 
 -2.204187e-02  -1.417492e-01  0 
 -2.199497e-02  -1.454157e-01  0 
 -4.437556e-02  -1.675023e-01  0 
 -4.138435e-02  -1.674961e-01  0 
 -3.831625e-02  -1.675422e-01  0 
 -3.520498e-02  -1.676155e-01  0 
 -3.201839e-02  -1.677449e-01  0 
 -2.853998e-02  -1.679726e-01  0 
 -4.100549e-02  -1.279607e-01  0 
 -3.884671e-02  -1.282935e-01  0 
 -3.641411e-02  -1.278294e-01  0 
 -3.363585e-02  -1.261557e-01  0 
 -2.974499e-02  -1.245298e-01  0 
 -2.607512e-02  -1.238732e-01  0 
 -2.150333e-02  -1.225487e-01  0 
 -4.159158e-02  -1.311407e-01  0 
 -3.924101e-02  -1.308719e-01  0 
 -3.694264e-02  -1.303828e-01  0 
 -3.408959e-02  -1.297077e-01  0 
 -3.054657e-02  -1.288212e-01  0 
 -2.675478e-02  -1.277561e-01  0 
 -2.315977e-02  -1.265676e-01  0 
 -4.206425e-02  -1.338994e-01  0 
 -3.993697e-02  -1.336480e-01  0 
 -3.737940e-02  -1.333317e-01  0 
 -3.446326e-02  -1.329712e-01  0 
 -3.120279e-02  -1.323715e-01  0 
 -2.776885e-02  -1.313491e-01  0 
 -2.463580e-02  -1.296289e-01  0 
 -4.298835e-02  -1.364705e-01  0 
 -4.064908e-02  -1.364215e-01  0 
 -3.785771e-02  -1.363308e-01  0 
 -3.488253e-02  -1.361193e-01  0 
 -3.178061e-02  -1.356960e-01  0 
 -2.864281e-02  -1.348963e-01  0 
 -2.547533e-02  -1.336529e-01  0 
 -1.862725e-02  -1.244201e-01  0 
 -1.813464e-02  -1.274723e-01  0 
 -1.731807e-02  -1.318737e-01  0 
 -4.453317e-02  -1.426691e-01  0 
 -4.148230e-02  -1.425611e-01  0 
 -3.840296e-02  -1.424577e-01  0 
 -3.531780e-02  -1.423384e-01  0 
 -3.220488e-02  -1.421913e-01  0 
 -2.903750e-02  -1.420092e-01  0 
 -2.573127e-02  -1.417827e-01  0 
 -4.453173e-02  -1.456483e-01  0 
 -4.148902e-02  -1.456413e-01  0 
 -3.842022e-02  -1.455761e-01  0 
 -3.533061e-02  -1.455026e-01  0 
 -3.221036e-02  -1.454267e-01  0 
 -2.902307e-02  -1.453678e-01  0 
 -2.569365e-02  -1.454013e-01  0 
 -4.454935e-02  -1.488160e-01  0 
 -4.148658e-02  -1.487379e-01  0 
 -3.840648e-02  -1.487070e-01  0 
 -3.530562e-02  -1.486804e-01  0 
 -3.217740e-02  -1.486707e-01  0 
 -2.897912e-02  -1.486819e-01  0 
 -2.571528e-02  -1.486876e-01  0 
 -4.457112e-02  -1.518538e-01  0 
 -4.148029e-02  -1.518663e-01  0 
 -3.837203e-02  -1.518555e-01  0 
 -3.525893e-02  -1.518505e-01  0 
 -3.212413e-02  -1.518669e-01  0 
 -2.898578e-02  -1.519143e-01  0 
 -2.574852e-02  -1.519471e-01  0 
 -4.461394e-02  -1.550576e-01  0 
 -4.145033e-02  -1.550298e-01  0 
 -3.834166e-02  -1.550099e-01  0 
 -3.521593e-02  -1.550015e-01  0 
 -3.208637e-02  -1.550058e-01  0 
 -2.898353e-02  -1.549920e-01  0 
 -4.451957e-02  -1.582246e-01  0 
 -4.144817e-02  -1.581892e-01  0 
 -3.832721e-02  -1.581617e-01  0 
 -3.519332e-02  -1.581390e-01  0 
 -3.205798e-02  -1.581198e-01  0 
 -2.894619e-02  -1.581283e-01  0 
 -4.450899e-02  -1.612974e-01  0 
 -4.142744e-02  -1.613117e-01  0 
 -3.832657e-02  -1.613101e-01  0 
 -3.519731e-02  -1.612865e-01  0 
 -3.202887e-02  -1.612492e-01  0 
 -2.887401e-02  -1.612216e-01  0 
 -4.446779e-02  -1.643951e-01  0 
 -4.139584e-02  -1.644281e-01  0 
 -3.832643e-02  -1.644394e-01  0 
 -3.521316e-02  -1.644554e-01  0 
 -3.202904e-02  -1.644528e-01  0 
 -2.872611e-02  -1.644283e-01  0 
VECTORS displacement_ITER2 FLOAT
 -2.098421e-02  -1.278418e-01  0 
 -2.021599e-02  -1.154061e-01  0 
 -2.056536e-02  -1.184926e-01  0 
 -2.098424e-02  -1.225505e-01  0 
 -4.301796e-02  -1.298705e-01  0 
 -4.001559e-02  -1.297152e-01  0 
 -3.698037e-02  -1.295546e-01  0 
 -3.390065e-02  -1.293898e-01  0 
 -3.078949e-02  -1.291963e-01  0 
 -2.763412e-02  -1.289370e-01  0 
 -2.440215e-02  -1.285531e-01  0 
 -1.630883e-02  -1.271937e-01  0 
 -2.088514e-02  -1.319457e-01  0 
 -2.088929e-02  -1.354959e-01  0 
 -4.303060e-02  -1.576109e-01  0 
 -4.003133e-02  -1.576403e-01  0 
 -3.694338e-02  -1.576845e-01  0 
 -3.381978e-02  -1.577385e-01  0 
 -3.064936e-02  -1.578183e-01  0 
 -2.732063e-02  -1.579477e-01  0 
 -4.181156e-02  -1.167885e-01  0 
 -3.838221e-02  -1.166016e-01  0 
 -3.487772e-02  -1.160386e-01  0 
 -3.137107e-02  -1.153596e-01  0 
 -2.781569e-02  -1.145238e-01  0 
 -2.470761e-02  -1.139015e-01  0 
 -2.055487e-02  -1.129930e-01  0 
 -4.168310e-02  -1.204226e-01  0 
 -3.869948e-02  -1.202872e-01  0 
 -3.548528e-02  -1.198920e-01  0 
 -3.213950e-02  -1.193112e-01  0 
 -2.874286e-02  -1.186003e-01  0 
 -2.529792e-02  -1.178691e-01  0 
 -2.197711e-02  -1.170950e-01  0 
 -4.179982e-02  -1.237054e-01  0 
 -3.904050e-02  -1.236265e-01  0 
 -3.601825e-02  -1.233666e-01  0 
 -3.283130e-02  -1.229421e-01  0 
 -2.954442e-02  -1.223539e-01  0 
 -2.624197e-02  -1.215229e-01  0 
 -2.325409e-02  -1.201694e-01  0 
 -4.218225e-02  -1.267668e-01  0 
 -3.947200e-02  -1.267165e-01  0 
 -3.650677e-02  -1.265648e-01  0 
 -3.342503e-02  -1.262875e-01  0 
 -3.028123e-02  -1.258467e-01  0 
 -2.716660e-02  -1.251343e-01  0 
 -2.408480e-02  -1.240733e-01  0 
 -1.755754e-02  -1.155064e-01  0 
 -1.713965e-02  -1.184357e-01  0 
 -1.641905e-02  -1.225510e-01  0 
 -4.304814e-02  -1.328442e-01  0 
 -4.006707e-02  -1.327265e-01  0 
 -3.702137e-02  -1.326179e-01  0 
 -3.394400e-02  -1.324975e-01  0 
 -3.083863e-02  -1.323553e-01  0 
 -2.769568e-02  -1.321846e-01  0 
 -2.445733e-02  -1.319837e-01  0 
 -4.309458e-02  -1.357711e-01  0 
 -4.008853e-02  -1.357530e-01  0 
 -3.703668e-02  -1.356989e-01  0 
 -3.395470e-02  -1.356317e-01  0 
 -3.084313e-02  -1.355553e-01  0 
 -2.767816e-02  -1.354882e-01  0 
 -2.439970e-02  -1.354947e-01  0 
 -4.314927e-02  -1.388567e-01  0 
 -4.009524e-02  -1.388222e-01  0 
 -3.702250e-02  -1.388082e-01  0 
 -3.392903e-02  -1.387865e-01  0 
 -3.080782e-02  -1.387702e-01  0 
 -2.762831e-02  -1.387700e-01  0 
 -2.438245e-02  -1.387718e-01  0 
 -4.320280e-02  -1.419346e-01  0 
 -4.009264e-02  -1.419519e-01  0 
 -3.699138e-02  -1.419515e-01  0 
 -3.388439e-02  -1.419501e-01  0 
 -3.075354e-02  -1.419591e-01  0 
 -2.761055e-02  -1.419877e-01  0 
 -2.439897e-02  -1.420119e-01  0 
 -4.324367e-02  -1.451581e-01  0 
 -4.007787e-02  -1.451294e-01  0 
 -3.696444e-02  -1.451155e-01  0 
 -3.384422e-02  -1.451113e-01  0 
 -3.071312e-02  -1.451160e-01  0 
 -2.758141e-02  -1.451126e-01  0 
 -4.318638e-02  -1.483383e-01  0 
 -4.007527e-02  -1.483086e-01  0 
 -3.695184e-02  -1.482824e-01  0 
 -3.382225e-02  -1.482665e-01  0 
 -3.068420e-02  -1.482597e-01  0 
 -2.754626e-02  -1.482721e-01  0 
 -4.313875e-02  -1.514453e-01  0 
 -4.005761e-02  -1.514504e-01  0 
 -3.695132e-02  -1.514386e-01  0 
 -3.382040e-02  -1.514229e-01  0 
 -3.066089e-02  -1.514079e-01  0 
 -2.750221e-02  -1.514016e-01  0 
 -4.310209e-02  -1.545655e-01  0 
 -4.003704e-02  -1.545660e-01  0 
 -3.695187e-02  -1.545714e-01  0 
 -3.382699e-02  -1.545847e-01  0 
 -3.065731e-02  -1.545905e-01  0 
 -2.742268e-02  -1.545844e-01  0 
VECTORS displacement_ITER3 FLOAT
 -2.088589e-02  -1.205150e-01  0 
 -2.040700e-02  -1.082463e-01  0 
 -2.065256e-02  -1.115298e-01  0 
 -2.094766e-02  -1.155145e-01  0 
 -4.249695e-02  -1.226664e-01  0 
 -3.956500e-02  -1.225007e-01  0 
 -3.661296e-02  -1.223198e-01  0 
 -3.360558e-02  -1.221329e-01  0 
 -3.055433e-02  -1.219189e-01  0 
 -2.744647e-02  -1.216418e-01  0 
 -2.425587e-02  -1.212447e-01  0 
 -1.659703e-02  -1.198040e-01  0 
 -2.076843e-02  -1.245963e-01  0 
 -2.074899e-02  -1.281142e-01  0 
 -4.263617e-02  -1.498450e-01  0 
 -3.964804e-02  -1.498689e-01  0 
 -3.659433e-02  -1.498978e-01  0 
 -3.351754e-02  -1.499379e-01  0 
 -3.040295e-02  -1.500135e-01  0 
 -2.712260e-02  -1.501510e-01  0 
 -3.981398e-02  -1.117798e-01  0 
 -3.778666e-02  -1.108309e-01  0 
 -3.511472e-02  -1.096517e-01  0 
 -3.227808e-02  -1.084446e-01  0 
 -2.941720e-02  -1.064361e-01  0 
 -2.622371e-02  -1.051420e-01  0 
 -2.271941e-02  -1.041728e-01  0 
 -4.024950e-02  -1.140487e-01  0 
 -3.821328e-02  -1.136321e-01  0 
 -3.571340e-02  -1.129073e-01  0 
 -3.299625e-02  -1.118788e-01  0 
 -2.998169e-02  -1.108153e-01  0 
 -2.661909e-02  -1.097468e-01  0 
 -2.319783e-02  -1.087586e-01  0 
 -4.083444e-02  -1.167609e-01  0 
 -3.861604e-02  -1.164528e-01  0 
 -3.612972e-02  -1.160097e-01  0 
 -3.335184e-02  -1.154289e-01  0 
 -3.030410e-02  -1.147364e-01  0 
 -2.703555e-02  -1.139074e-01  0 
 -2.368406e-02  -1.128663e-01  0 
 -4.151009e-02  -1.195802e-01  0 
 -3.908278e-02  -1.193841e-01  0 
 -3.639285e-02  -1.191488e-01  0 
 -3.353253e-02  -1.188385e-01  0 
 -3.051033e-02  -1.184209e-01  0 
 -2.736253e-02  -1.178258e-01  0 
 -2.414729e-02  -1.169092e-01  0 
 -1.744401e-02  -1.083363e-01  0 
 -1.713681e-02  -1.114827e-01  0 
 -1.659921e-02  -1.155168e-01  0 
 -4.251455e-02  -1.255714e-01  0 
 -3.962274e-02  -1.254337e-01  0 
 -3.665729e-02  -1.253100e-01  0 
 -3.365097e-02  -1.251772e-01  0 
 -3.060465e-02  -1.250243e-01  0 
 -2.751031e-02  -1.248442e-01  0 
 -2.431072e-02  -1.246325e-01  0 
 -4.255280e-02  -1.283910e-01  0 
 -3.964558e-02  -1.283770e-01  0 
 -3.667493e-02  -1.283179e-01  0 
 -3.366276e-02  -1.282475e-01  0 
 -3.060969e-02  -1.281688e-01  0 
 -2.749229e-02  -1.281002e-01  0 
 -2.425044e-02  -1.281130e-01  0 
 -4.261391e-02  -1.314005e-01  0 
 -3.965381e-02  -1.313617e-01  0 
 -3.666096e-02  -1.313520e-01  0 
 -3.363576e-02  -1.313369e-01  0 
 -3.057505e-02  -1.313288e-01  0 
 -2.744230e-02  -1.313329e-01  0 
 -2.423753e-02  -1.313321e-01  0 
 -4.269197e-02  -1.343965e-01  0 
 -3.965907e-02  -1.344123e-01  0 
 -3.662868e-02  -1.344218e-01  0 
 -3.358667e-02  -1.344336e-01  0 
 -3.051707e-02  -1.344577e-01  0 
 -2.743314e-02  -1.345072e-01  0 
 -2.422122e-02  -1.345630e-01  0 
 -4.273565e-02  -1.375156e-01  0 
 -3.965056e-02  -1.375167e-01  0 
 -3.660035e-02  -1.375184e-01  0 
 -3.354157e-02  -1.375285e-01  0 
 -3.047280e-02  -1.375456e-01  0 
 -2.741794e-02  -1.375433e-01  0 
 -4.271578e-02  -1.406629e-01  0 
 -3.965316e-02  -1.406378e-01  0 
 -3.658737e-02  -1.406259e-01  0 
 -3.351687e-02  -1.406206e-01  0 
 -3.044313e-02  -1.406204e-01  0 
 -2.737288e-02  -1.406407e-01  0 
 -4.271676e-02  -1.437554e-01  0 
 -3.965172e-02  -1.437447e-01  0 
 -3.659049e-02  -1.437322e-01  0 
 -3.351475e-02  -1.437208e-01  0 
 -3.041543e-02  -1.437089e-01  0 
 -2.732071e-02  -1.437048e-01  0 
 -4.268349e-02  -1.468353e-01  0 
 -3.964942e-02  -1.468262e-01  0 
 -3.659718e-02  -1.468239e-01  0 
 -3.352237e-02  -1.468335e-01  0 
 -3.041061e-02  -1.468376e-01  0 
 -2.723286e-02  -1.468303e-01  0 
VECTORS displacement_ITER4 FLOAT
 -2.024480e-02  -1.161720e-01  0 
 -1.983778e-02  -1.047797e-01  0 
 -2.004188e-02  -1.079138e-01  0 
 -2.028895e-02  -1.115778e-01  0 
 -4.234951e-02  -1.182742e-01  0 
 -3.932123e-02  -1.181376e-01  0 
 -3.628716e-02  -1.179966e-01  0 
 -3.322324e-02  -1.178385e-01  0 
 -3.012918e-02  -1.176373e-01  0 
 -2.697913e-02  -1.173567e-01  0 
 -2.373323e-02  -1.169394e-01  0 
 -1.637864e-02  -1.154041e-01  0 
 -2.017674e-02  -1.203627e-01  0 
 -2.018234e-02  -1.239358e-01  0 
 -4.226389e-02  -1.458583e-01  0 
 -3.930320e-02  -1.458806e-01  0 
 -3.623773e-02  -1.459132e-01  0 
 -3.314750e-02  -1.459511e-01  0 
 -3.002481e-02  -1.460118e-01  0 
 -2.676121e-02  -1.461210e-01  0 
 -3.968795e-02  -1.087778e-01  0 
 -3.735444e-02  -1.078306e-01  0 
 -3.466062e-02  -1.067814e-01  0 
 -3.186270e-02  -1.056631e-01  0 
 -2.903691e-02  -1.041727e-01  0 
 -2.592784e-02  -1.031054e-01  0 
 -2.315312e-02  -1.024980e-01  0 
 -3.997401e-02  -1.108649e-01  0 
 -3.782574e-02  -1.104524e-01  0 
 -3.526145e-02  -1.097197e-01  0 
 -3.249610e-02  -1.087960e-01  0 
 -2.949628e-02  -1.078402e-01  0 
 -2.629424e-02  -1.068243e-01  0 
 -2.312333e-02  -1.057712e-01  0 
 -4.043759e-02  -1.132609e-01  0 
 -3.824629e-02  -1.129360e-01  0 
 -3.571725e-02  -1.124805e-01  0 
 -3.288913e-02  -1.119128e-01  0 
 -2.985354e-02  -1.112251e-01  0 
 -2.666078e-02  -1.103706e-01  0 
 -2.333067e-02  -1.093099e-01  0 
 -4.108884e-02  -1.156485e-01  0 
 -3.877015e-02  -1.154307e-01  0 
 -3.603458e-02  -1.152141e-01  0 
 -3.312580e-02  -1.149119e-01  0 
 -3.008604e-02  -1.144849e-01  0 
 -2.693108e-02  -1.138827e-01  0 
 -2.365629e-02  -1.129746e-01  0 
 -1.695126e-02  -1.048525e-01  0 
 -1.673850e-02  -1.078666e-01  0 
 -1.632808e-02  -1.115749e-01  0 
 -4.235758e-02  -1.212585e-01  0 
 -3.936406e-02  -1.211595e-01  0 
 -3.632312e-02  -1.210550e-01  0 
 -3.326408e-02  -1.209327e-01  0 
 -3.017809e-02  -1.207860e-01  0 
 -2.704459e-02  -1.206079e-01  0 
 -2.379105e-02  -1.203979e-01  0 
 -4.238307e-02  -1.242134e-01  0 
 -3.937232e-02  -1.241955e-01  0 
 -3.633751e-02  -1.241332e-01  0 
 -3.327525e-02  -1.240573e-01  0 
 -3.018109e-02  -1.239772e-01  0 
 -2.702818e-02  -1.239146e-01  0 
 -2.374132e-02  -1.239312e-01  0 
 -4.240497e-02  -1.273227e-01  0 
 -3.937389e-02  -1.272617e-01  0 
 -3.632658e-02  -1.272309e-01  0 
 -3.325415e-02  -1.271997e-01  0 
 -3.014674e-02  -1.271783e-01  0 
 -2.697798e-02  -1.271791e-01  0 
 -2.376766e-02  -1.271799e-01  0 
 -4.241882e-02  -1.303468e-01  0 
 -3.936950e-02  -1.303588e-01  0 
 -3.629983e-02  -1.303495e-01  0 
 -3.321555e-02  -1.303449e-01  0 
 -3.010158e-02  -1.303519e-01  0 
 -2.696471e-02  -1.303706e-01  0 
 -2.381316e-02  -1.303489e-01  0 
 -4.245338e-02  -1.335075e-01  0 
 -3.934970e-02  -1.334827e-01  0 
 -3.627192e-02  -1.334772e-01  0 
 -3.317804e-02  -1.334800e-01  0 
 -3.007090e-02  -1.334907e-01  0 
 -2.695577e-02  -1.334922e-01  0 
 -4.241885e-02  -1.366301e-01  0 
 -3.934386e-02  -1.366152e-01  0 
 -3.625226e-02  -1.366050e-01  0 
 -3.315323e-02  -1.366018e-01  0 
 -3.004702e-02  -1.366055e-01  0 
 -2.694523e-02  -1.366256e-01  0 
 -4.240144e-02  -1.397220e-01  0 
 -3.932571e-02  -1.397285e-01  0 
 -3.624438e-02  -1.397268e-01  0 
 -3.314678e-02  -1.397192e-01  0 
 -3.002761e-02  -1.397102e-01  0 
 -2.692200e-02  -1.397049e-01  0 
 -4.236898e-02  -1.428247e-01  0 
 -3.930520e-02  -1.428287e-01  0 
 -3.624325e-02  -1.428288e-01  0 
 -3.315174e-02  -1.428389e-01  0 
 -3.002795e-02  -1.428399e-01  0 
 -2.685545e-02  -1.428266e-01  0 
VECTORS displacement_ITER5 FLOAT
 -2.169265e-02  -1.152609e-01  0 
 -2.147423e-02  -1.037506e-01  0 
 -2.162827e-02  -1.070683e-01  0 
 -2.179231e-02  -1.107676e-01  0 
 -4.174829e-02  -1.173534e-01  0 
 -3.903808e-02  -1.171750e-01  0 
 -3.627204e-02  -1.170076e-01  0 
 -3.346357e-02  -1.168423e-01  0 
 -3.062961e-02  -1.166513e-01  0 
 -2.776219e-02  -1.163984e-01  0 
 -2.482938e-02  -1.160129e-01  0 
 -1.796941e-02  -1.144895e-01  0 
 -2.159936e-02  -1.191284e-01  0 
 -2.164650e-02  -1.223420e-01  0 
 -4.182521e-02  -1.426685e-01  0 
 -3.906435e-02  -1.426793e-01  0 
 -3.622519e-02  -1.426998e-01  0 
 -3.336910e-02  -1.427188e-01  0 
 -3.050282e-02  -1.427468e-01  0 
 -2.757029e-02  -1.427997e-01  0 
 -4.085257e-02  -1.053295e-01  0 
 -3.776779e-02  -1.054015e-01  0 
 -3.480687e-02  -1.051378e-01  0 
 -3.197510e-02  -1.044091e-01  0 
 -2.919444e-02  -1.030716e-01  0 
 -2.646447e-02  -1.021743e-01  0 
 -2.364550e-02  -1.013485e-01  0 
 -4.091627e-02  -1.087981e-01  0 
 -3.803373e-02  -1.086704e-01  0 
 -3.528992e-02  -1.082709e-01  0 
 -3.260110e-02  -1.076021e-01  0 
 -2.979549e-02  -1.067838e-01  0 
 -2.687288e-02  -1.058565e-01  0 
 -2.402489e-02  -1.048932e-01  0 
 -4.093632e-02  -1.118932e-01  0 
 -3.835842e-02  -1.117084e-01  0 
 -3.572018e-02  -1.113206e-01  0 
 -3.301870e-02  -1.108231e-01  0 
 -3.022211e-02  -1.102002e-01  0 
 -2.733163e-02  -1.093974e-01  0 
 -2.443225e-02  -1.083469e-01  0 
 -4.110629e-02  -1.146655e-01  0 
 -3.869432e-02  -1.144919e-01  0 
 -3.604489e-02  -1.142375e-01  0 
 -3.331561e-02  -1.139077e-01  0 
 -3.052687e-02  -1.134837e-01  0 
 -2.768304e-02  -1.128946e-01  0 
 -2.476125e-02  -1.120310e-01  0 
 -1.835547e-02  -1.038006e-01  0 
 -1.820455e-02  -1.070300e-01  0 
 -1.789677e-02  -1.107710e-01  0 
 -4.178817e-02  -1.200164e-01  0 
 -3.908499e-02  -1.199085e-01  0 
 -3.630951e-02  -1.198009e-01  0 
 -3.350428e-02  -1.196762e-01  0 
 -3.067620e-02  -1.195288e-01  0 
 -2.781744e-02  -1.193525e-01  0 
 -2.487826e-02  -1.191533e-01  0 
 -4.183682e-02  -1.226754e-01  0 
 -3.909664e-02  -1.226672e-01  0 
 -3.632158e-02  -1.226119e-01  0 
 -3.351555e-02  -1.225351e-01  0 
 -3.067973e-02  -1.224483e-01  0 
 -2.779521e-02  -1.223729e-01  0 
 -2.479635e-02  -1.223663e-01  0 
 -4.188191e-02  -1.255218e-01  0 
 -3.909854e-02  -1.254772e-01  0 
 -3.631101e-02  -1.254507e-01  0 
 -3.349573e-02  -1.254171e-01  0 
 -3.064313e-02  -1.253870e-01  0 
 -2.773377e-02  -1.253790e-01  0 
 -2.476736e-02  -1.253851e-01  0 
 -4.190736e-02  -1.283382e-01  0 
 -3.910218e-02  -1.283306e-01  0 
 -3.628893e-02  -1.283186e-01  0 
 -3.345872e-02  -1.283137e-01  0 
 -3.059374e-02  -1.283168e-01  0 
 -2.769317e-02  -1.283285e-01  0 
 -2.480107e-02  -1.283019e-01  0 
 -4.191607e-02  -1.312075e-01  0 
 -3.909282e-02  -1.312036e-01  0 
 -3.626438e-02  -1.312032e-01  0 
 -3.342039e-02  -1.312115e-01  0 
 -3.055604e-02  -1.312288e-01  0 
 -2.766103e-02  -1.312447e-01  0 
 -4.192679e-02  -1.341045e-01  0 
 -3.908503e-02  -1.340900e-01  0 
 -3.624249e-02  -1.340915e-01  0 
 -3.339043e-02  -1.341008e-01  0 
 -3.052617e-02  -1.341203e-01  0 
 -2.765331e-02  -1.341508e-01  0 
 -4.193759e-02  -1.369894e-01  0 
 -3.907741e-02  -1.369784e-01  0 
 -3.622985e-02  -1.369763e-01  0 
 -3.337480e-02  -1.369805e-01  0 
 -3.050625e-02  -1.369895e-01  0 
 -2.764929e-02  -1.370000e-01  0 
 -4.190219e-02  -1.398487e-01  0 
 -3.906685e-02  -1.398511e-01  0 
 -3.622764e-02  -1.398459e-01  0 
 -3.337198e-02  -1.398536e-01  0 
 -3.050349e-02  -1.398590e-01  0 
 -2.762069e-02  -1.398547e-01  0 
VECTORS displacement_ITER6 FLOAT
 -2.283522e-02  -1.151803e-01  0 
 -2.273000e-02  -1.039262e-01  0 
 -2.284644e-02  -1.072715e-01  0 
 -2.295528e-02  -1.108816e-01  0 
 -4.137416e-02  -1.173106e-01  0 
 -3.891183e-02  -1.170795e-01  0 
 -3.635267e-02  -1.168700e-01  0 
 -3.373152e-02  -1.166848e-01  0 
 -3.108320e-02  -1.164968e-01  0 
 -2.842006e-02  -1.162676e-01  0 
 -2.571726e-02  -1.159115e-01  0 
 -1.930674e-02  -1.144237e-01  0 
 -2.273753e-02  -1.187956e-01  0 
 -2.283578e-02  -1.217311e-01  0 
 -4.171256e-02  -1.410250e-01  0 
 -3.903956e-02  -1.410312e-01  0 
 -3.633586e-02  -1.410399e-01  0 
 -3.362364e-02  -1.410465e-01  0 
 -3.091599e-02  -1.410521e-01  0 
 -2.821281e-02  -1.410570e-01  0 
 -4.012088e-02  -1.031193e-01  0 
 -3.727482e-02  -1.039009e-01  0 
 -3.439371e-02  -1.040896e-01  0 
 -3.172272e-02  -1.037142e-01  0 
 -2.909053e-02  -1.027451e-01  0 
 -2.679249e-02  -1.021938e-01  0 
 -2.394471e-02  -1.012230e-01  0 
 -4.048312e-02  -1.073002e-01  0 
 -3.751041e-02  -1.074328e-01  0 
 -3.489421e-02  -1.073967e-01  0 
 -3.236661e-02  -1.070281e-01  0 
 -2.979677e-02  -1.064434e-01  0 
 -2.719086e-02  -1.057227e-01  0 
 -2.463484e-02  -1.049491e-01  0 
 -4.067437e-02  -1.109202e-01  0 
 -3.796992e-02  -1.109097e-01  0 
 -3.539281e-02  -1.107000e-01  0 
 -3.288367e-02  -1.103681e-01  0 
 -3.033277e-02  -1.098888e-01  0 
 -2.772814e-02  -1.092301e-01  0 
 -2.520325e-02  -1.083171e-01  0 
 -4.093666e-02  -1.142088e-01  0 
 -3.841720e-02  -1.141211e-01  0 
 -3.589102e-02  -1.138898e-01  0 
 -3.335098e-02  -1.135971e-01  0 
 -3.078686e-02  -1.132330e-01  0 
 -2.820011e-02  -1.127144e-01  0 
 -2.556877e-02  -1.119515e-01  0 
 -1.952588e-02  -1.039437e-01  0 
 -1.943851e-02  -1.072421e-01  0 
 -1.922933e-02  -1.108826e-01  0 
 -4.144596e-02  -1.197273e-01  0 
 -3.897374e-02  -1.195883e-01  0 
 -3.639954e-02  -1.194636e-01  0 
 -3.377671e-02  -1.193297e-01  0 
 -3.112986e-02  -1.191785e-01  0 
 -2.846680e-02  -1.190035e-01  0 
 -2.575992e-02  -1.188166e-01  0 
 -4.152157e-02  -1.221346e-01  0 
 -3.900084e-02  -1.221230e-01  0 
 -3.641547e-02  -1.220705e-01  0 
 -3.379046e-02  -1.219932e-01  0 
 -3.113536e-02  -1.219008e-01  0 
 -2.843907e-02  -1.218128e-01  0 
 -2.565266e-02  -1.217838e-01  0 
 -4.159955e-02  -1.247381e-01  0 
 -3.900874e-02  -1.247279e-01  0 
 -3.640566e-02  -1.247151e-01  0 
 -3.377016e-02  -1.246852e-01  0 
 -3.109713e-02  -1.246520e-01  0 
 -2.836958e-02  -1.246361e-01  0 
 -2.556402e-02  -1.246434e-01  0 
 -4.167162e-02  -1.274221e-01  0 
 -3.902070e-02  -1.274074e-01  0 
 -3.638510e-02  -1.274042e-01  0 
 -3.373050e-02  -1.274044e-01  0 
 -3.103889e-02  -1.274080e-01  0 
 -2.830926e-02  -1.274228e-01  0 
 -2.555190e-02  -1.274295e-01  0 
 -4.168008e-02  -1.301142e-01  0 
 -3.902891e-02  -1.301234e-01  0 
 -3.636411e-02  -1.301274e-01  0 
 -3.368973e-02  -1.301402e-01  0 
 -3.098974e-02  -1.301601e-01  0 
 -2.825112e-02  -1.301806e-01  0 
 -4.173169e-02  -1.328803e-01  0 
 -3.902756e-02  -1.328608e-01  0 
 -3.634667e-02  -1.328643e-01  0 
 -3.365791e-02  -1.328791e-01  0 
 -3.095314e-02  -1.329060e-01  0 
 -2.822229e-02  -1.329406e-01  0 
 -4.174726e-02  -1.356361e-01  0 
 -3.903527e-02  -1.356091e-01  0 
 -3.633715e-02  -1.356003e-01  0 
 -3.363714e-02  -1.356113e-01  0 
 -3.092912e-02  -1.356354e-01  0 
 -2.821846e-02  -1.356621e-01  0 
 -4.172691e-02  -1.383455e-01  0 
 -3.904021e-02  -1.383335e-01  0 
 -3.633630e-02  -1.383264e-01  0 
 -3.362708e-02  -1.383331e-01  0 
 -3.091848e-02  -1.383470e-01  0 
 -2.822025e-02  -1.383602e-01  0 
VECTORS displacement_ITER7 FLOAT
 -2.186403e-02  -1.134809e-01  0 
 -2.186114e-02  -1.026106e-01  0 
 -2.194213e-02  -1.059384e-01  0 
 -2.200171e-02  -1.094044e-01  0 
 -4.145271e-02  -1.155017e-01  0 
 -3.879762e-02  -1.153125e-01  0 
 -3.607321e-02  -1.151464e-01  0 
 -3.330946e-02  -1.149891e-01  0 
 -3.052768e-02  -1.148163e-01  0 
 -2.773339e-02  -1.145932e-01  0 
 -2.489687e-02  -1.142334e-01  0 
 -1.859550e-02  -1.126853e-01  0 
 -2.176933e-02  -1.172662e-01  0 
 -2.187488e-02  -1.203369e-01  0 
 -4.163880e-02  -1.405098e-01  0 
 -3.886931e-02  -1.405134e-01  0 
 -3.605099e-02  -1.405226e-01  0 
 -3.322518e-02  -1.405341e-01  0 
 -3.039877e-02  -1.405431e-01  0 
 -2.757248e-02  -1.405521e-01  0 
 -3.828133e-02  -1.035358e-01  0 
 -3.632932e-02  -1.039111e-01  0 
 -3.395480e-02  -1.038108e-01  0 
 -3.154728e-02  -1.031854e-01  0 
 -2.903674e-02  -1.023473e-01  0 
 -2.657329e-02  -1.019284e-01  0 
 -2.440604e-02  -1.013392e-01  0 
 -3.900070e-02  -1.068115e-01  0 
 -3.666297e-02  -1.067698e-01  0 
 -3.444756e-02  -1.066006e-01  0 
 -3.207481e-02  -1.061866e-01  0 
 -2.950818e-02  -1.056175e-01  0 
 -2.692535e-02  -1.048674e-01  0 
 -2.445803e-02  -1.039553e-01  0 
 -3.955265e-02  -1.098752e-01  0 
 -3.729615e-02  -1.097098e-01  0 
 -3.496146e-02  -1.094544e-01  0 
 -3.252001e-02  -1.091419e-01  0 
 -2.996333e-02  -1.086709e-01  0 
 -2.733818e-02  -1.079830e-01  0 
 -2.467866e-02  -1.070613e-01  0 
 -4.027343e-02  -1.127009e-01  0 
 -3.801813e-02  -1.125129e-01  0 
 -3.552208e-02  -1.123106e-01  0 
 -3.294916e-02  -1.120653e-01  0 
 -3.032568e-02  -1.117302e-01  0 
 -2.764620e-02  -1.112356e-01  0 
 -2.486069e-02  -1.104949e-01  0 
 -1.862056e-02  -1.026117e-01  0 
 -1.859894e-02  -1.059104e-01  0 
 -1.847875e-02  -1.094020e-01  0 
 -4.150708e-02  -1.181026e-01  0 
 -3.884671e-02  -1.180026e-01  0 
 -3.611428e-02  -1.178959e-01  0 
 -3.335109e-02  -1.177741e-01  0 
 -3.057153e-02  -1.176312e-01  0 
 -2.777799e-02  -1.174616e-01  0 
 -2.493789e-02  -1.172785e-01  0 
 -4.156514e-02  -1.207403e-01  0 
 -3.886631e-02  -1.207161e-01  0 
 -3.613113e-02  -1.206611e-01  0 
 -3.336659e-02  -1.205839e-01  0 
 -3.057733e-02  -1.204927e-01  0 
 -2.774763e-02  -1.204077e-01  0 
 -2.482674e-02  -1.203857e-01  0 
 -4.161110e-02  -1.235048e-01  0 
 -3.887506e-02  -1.234820e-01  0 
 -3.612556e-02  -1.234577e-01  0 
 -3.335147e-02  -1.234216e-01  0 
 -3.054343e-02  -1.233858e-01  0 
 -2.767905e-02  -1.233692e-01  0 
 -2.473493e-02  -1.233777e-01  0 
 -4.165033e-02  -1.263030e-01  0 
 -3.887999e-02  -1.262991e-01  0 
 -3.610843e-02  -1.262888e-01  0 
 -3.331780e-02  -1.262810e-01  0 
 -3.049181e-02  -1.262808e-01  0 
 -2.762583e-02  -1.262968e-01  0 
 -2.470996e-02  -1.263147e-01  0 
 -4.168638e-02  -1.291766e-01  0 
 -3.888283e-02  -1.291477e-01  0 
 -3.608893e-02  -1.291428e-01  0 
 -3.328245e-02  -1.291492e-01  0 
 -3.045054e-02  -1.291638e-01  0 
 -2.758678e-02  -1.291766e-01  0 
 -4.170212e-02  -1.320222e-01  0 
 -3.888397e-02  -1.320085e-01  0 
 -3.607244e-02  -1.320036e-01  0 
 -3.325516e-02  -1.320132e-01  0 
 -3.042365e-02  -1.320332e-01  0 
 -2.756927e-02  -1.320598e-01  0 
 -4.168275e-02  -1.348620e-01  0 
 -3.887720e-02  -1.348591e-01  0 
 -3.606078e-02  -1.348578e-01  0 
 -3.323804e-02  -1.348657e-01  0 
 -3.040662e-02  -1.348843e-01  0 
 -2.757309e-02  -1.349044e-01  0 
 -4.168358e-02  -1.377082e-01  0 
 -3.886719e-02  -1.376980e-01  0 
 -3.605481e-02  -1.376964e-01  0 
 -3.322932e-02  -1.377047e-01  0 
 -3.040034e-02  -1.377170e-01  0 
 -2.757887e-02  -1.377268e-01  0 
VECTORS displacement_ITER8 FLOAT
 -2.161455e-02  -1.129376e-01  0 
 -2.166715e-02  -1.023306e-01  0 
 -2.172728e-02  -1.056290e-01  0 
 -2.176272e-02  -1.090020e-01  0 
 -4.115212e-02  -1.149983e-01  0 
 -3.849787e-02  -1.148177e-01  0 
 -3.578895e-02  -1.146553e-01  0 
 -3.304405e-02  -1.144952e-01  0 
 -3.027873e-02  -1.143149e-01  0 
 -2.749378e-02  -1.140797e-01  0 
 -2.465712e-02  -1.137057e-01  0 
 -1.850896e-02  -1.121274e-01  0 
 -2.151874e-02  -1.167421e-01  0 
 -2.161269e-02  -1.198322e-01  0 
 -4.136216e-02  -1.398682e-01  0 
 -3.857505e-02  -1.398583e-01  0 
 -3.576989e-02  -1.398607e-01  0 
 -3.296118e-02  -1.398718e-01  0 
 -3.014933e-02  -1.398884e-01  0 
 -2.732040e-02  -1.399141e-01  0 
 -3.866879e-02  -1.031802e-01  0 
 -3.631027e-02  -1.033669e-01  0 
 -3.377173e-02  -1.031964e-01  0 
 -3.130123e-02  -1.025919e-01  0 
 -2.881745e-02  -1.017697e-01  0 
 -2.634011e-02  -1.013042e-01  0 
 -2.408577e-02  -1.006609e-01  0 
 -3.915944e-02  -1.065930e-01  0 