# vtk DataFile Version 3.1
this is an vtk file created by FEMAC
ASCII
DATASET UNSTRUCTURED_GRID
POINTS 103 FLOAT
4.000000 2.000000 0.000000
3.555556 2.000000 0.000000
3.666667 2.000000 0.000000
3.777778 2.000000 0.000000
3.888889 2.000000 0.000000
4.000000 1.777778 0.000000
4.000000 1.888889 0.000000
4.000000 2.111111 0.000000
4.000000 2.222222 0.000000
4.000000 2.333333 0.000000
4.000000 2.444444 0.000000
4.000000 2.555556 0.000000
4.000000 2.666667 0.000000
4.111111 2.000000 0.000000
4.222222 2.000000 0.000000
4.333333 2.000000 0.000000
4.444444 2.000000 0.000000
4.555556 2.000000 0.000000
4.666667 2.000000 0.000000
3.777778 1.888889 0.000000
3.888889 1.888889 0.000000
3.333333 2.111111 0.000000
3.333333 2.222222 0.000000
3.444444 2.111111 0.000000
3.444444 2.222222 0.000000
3.444444 2.333333 0.000000
3.444444 2.444444 0.000000
3.444444 2.555556 0.000000
3.555556 2.111111 0.000000
3.555556 2.222222 0.000000
3.555556 2.333333 0.000000
3.555556 2.444444 0.000000
3.555556 2.555556 0.000000
3.555556 2.666667 0.000000
3.666667 2.111111 0.000000
3.666667 2.222222 0.000000
3.666667 2.333333 0.000000
3.666667 2.444444 0.000000
3.666667 2.555556 0.000000
3.666667 2.666667 0.000000
3.777778 2.111111 0.000000
3.777778 2.222222 0.000000
3.777778 2.333333 0.000000
3.777778 2.444444 0.000000
3.777778 2.555556 0.000000
3.777778 2.666667 0.000000
3.888889 2.111111 0.000000
3.888889 2.222222 0.000000
3.888889 2.333333 0.000000
3.888889 2.444444 0.000000
3.888889 2.555556 0.000000
3.888889 2.666667 0.000000
4.111111 1.777778 0.000000
4.111111 1.888889 0.000000
4.222222 1.666667 0.000000
4.222222 1.777778 0.000000
4.222222 1.888889 0.000000
4.333333 1.666667 0.000000
4.333333 1.777778 0.000000
4.333333 1.888889 0.000000
4.444444 1.666667 0.000000
4.444444 1.777778 0.000000
4.444444 1.888889 0.000000
4.555556 1.666667 0.000000
4.555556 1.777778 0.000000
4.555556 1.888889 0.000000
4.666667 1.888889 0.000000
4.111111 2.111111 0.000000
4.111111 2.222222 0.000000
4.111111 2.333333 0.000000
4.111111 2.444444 0.000000
4.111111 2.555556 0.000000
4.111111 2.666667 0.000000
4.222222 2.111111 0.000000
4.222222 2.222222 0.000000
4.222222 2.333333 0.000000
4.222222 2.444444 0.000000
4.222222 2.555556 0.000000
4.222222 2.666667 0.000000
4.333333 2.111111 0.000000
4.333333 2.222222 0.000000
4.333333 2.333333 0.000000
4.333333 2.444444 0.000000
4.333333 2.555556 0.000000
4.333333 2.666667 0.000000
4.444444 2.111111 0.000000
4.444444 2.222222 0.000000
4.444444 2.333333 0.000000
4.444444 2.444444 0.000000
4.444444 2.555556 0.000000
4.444444 2.666667 0.000000
4.555556 2.111111 0.000000
4.555556 2.222222 0.000000
4.555556 2.333333 0.000000
4.555556 2.444444 0.000000
4.555556 2.555556 0.000000
4.555556 2.666667 0.000000
4.666667 2.111111 0.000000
4.666667 2.222222 0.000000
4.666667 2.333333 0.000000
4.666667 2.444444 0.000000
4.666667 2.555556 0.000000
4.666667 2.666667 0.000000
CELLS 81 405 
4 19 20  4  3
4 20  6  0  4
4 21 23 24 22
4 23 28 29 24
4 24 29 30 25
4 25 30 31 26
4 26 31 32 27
4 1  2 34 28
4 28 34 35 29
4 29 35 36 30
4 30 36 37 31
4 31 37 38 32
4 32 38 39 33
4 2  3 40 34
4 34 40 41 35
4 35 41 42 36
4 36 42 43 37
4 37 43 44 38
4 38 44 45 39
4 3  4 46 40
4 40 46 47 41
4 41 47 48 42
4 42 48 49 43
4 43 49 50 44
4 44 50 51 45
4 4  0  7 46
4 46  7  8 47
4 47  8  9 48
4 48  9 10 49
4 49 10 11 50
4 50 11 12 51
4 5 52 53  6
4 6 53 13  0
4 52 55 56 53
4 53 56 14 13
4 54 57 58 55
4 55 58 59 56
4 56 59 15 14
4 57 60 61 58
4 58 61 62 59
4 59 62 16 15
4 60 63 64 61
4 61 64 65 62
4 62 65 17 16
4 65 66 18 17
4 0 13 67  7
4 7 67 68  8
4 8 68 69  9
4 9 69 70 10
4 10 70 71 11
4 11 71 72 12
4 13 14 73 67
4 67 73 74 68
4 68 74 75 69
4 69 75 76 70
4 70 76 77 71
4 71 77 78 72
4 14 15 79 73
4 73 79 80 74
4 74 80 81 75
4 75 81 82 76
4 76 82 83 77
4 77 83 84 78
4 15 16 85 79
4 79 85 86 80
4 80 86 87 81
4 81 87 88 82
4 82 88 89 83
4 83 89 90 84
4 16 17 91 85
4 85 91 92 86
4 86 92 93 87
4 87 93 94 88
4 88 94 95 89
4 89 95 96 90
4 17 18 97 91
4 91 97 98 92
4 92 98 99 93
4 93  99 100  94
4 94 100 101  95
4 95 101 102  96
CELL_TYPES 81
9 9 9 9 9 9 9 9 9 9 9 9 9 9 9 9 9 9 9 9 9 9 9 9 9 9 9 9 9 9 9 9 9 9 9 9 9 9 9 9 9 9 9 9 9 9 9 9 9 9 9 9 9 9 9 9 9 9 9 9 9 9 9 9 9 9 9 9 9 9 9 9 9 9 9 9 9 9 9 9 9 
POINT_DATA 103
VECTORS displacement_ITER1 FLOAT
 -1.891737e-02  -1.050206e-01  0 
 -1.546906e-02  -9.198256e-02  0 
 -1.796542e-02  -9.488309e-02  0 
 -1.742425e-02  -9.772192e-02  0 
 -1.778420e-02  -1.015531e-01  0 
 -2.251669e-02  -1.032960e-01  0 
 -2.090137e-02  -1.044819e-01  0 
 -1.710313e-02  -1.054407e-01  0 
 -1.451384e-02  -1.054794e-01  0 
 -1.175085e-02  -1.054766e-01  0 
 -8.928329e-03  -1.054635e-01  0 
 -6.118880e-03  -1.054264e-01  0 
 -3.380802e-03  -1.052987e-01  0 
 -1.994945e-02  -1.081006e-01  0 
 -2.043033e-02  -1.111772e-01  0 
 -2.074581e-02  -1.142773e-01  0 
 -2.099230e-02  -1.174029e-01  0 
 -2.120698e-02  -1.205920e-01  0 
 -2.142811e-02  -1.239908e-01  0 
 -2.082871e-02  -9.793083e-02  0 
 -2.109677e-02  -1.017322e-01  0 
 -1.085445e-02  -7.825168e-02  0 
 -5.142971e-03  -7.862402e-02  0 
 -1.194131e-02  -8.536430e-02  0 
 -7.384585e-03  -8.589743e-02  0 
 -5.850475e-03  -8.741490e-02  0 
 -2.800779e-03  -8.712659e-02  0 
 1.938712e-03  -8.636589e-02  0 
 -1.315895e-02  -9.095013e-02  0 
 -9.387184e-03  -9.092654e-02  0 
 -6.448959e-03  -9.103037e-02  0 
 -3.550602e-03  -9.147766e-02  0 
 2.340831e-04  -9.131412e-02  0 
 4.810076e-03  -9.057170e-02  0 
 -1.413041e-02  -9.517276e-02  0 
 -1.084874e-02  -9.530909e-02  0 
 -7.686044e-03  -9.538250e-02  0 
 -4.603704e-03  -9.558917e-02  0 
 -1.283665e-03  -9.577758e-02  0 
 2.934224e-03  -9.562559e-02  0 
 -1.496038e-02  -9.889884e-02  0 
 -1.200434e-02  -9.915105e-02  0 
 -8.985299e-03  -9.926615e-02  0 
 -5.923361e-03  -9.941406e-02  0 
 -2.831476e-03  -9.964889e-02  0 
 1.360083e-04  -9.962254e-02  0 
 -1.570068e-02  -1.021606e-01  0 
 -1.316326e-02  -1.024876e-01  0 
 -1.031276e-02  -1.026107e-01  0 
 -7.372992e-03  -1.026879e-01  0 
 -4.488006e-03  -1.027092e-01  0 
 -2.079416e-03  -1.027007e-01  0 
 -2.358974e-02  -1.084086e-01  0 
 -2.109068e-02  -1.083074e-01  0 
 -2.654645e-02  -1.136096e-01  0 
 -2.384644e-02  -1.130822e-01  0 
 -2.207478e-02  -1.118367e-01  0 
 -2.761642e-02  -1.161723e-01  0 
 -2.512801e-02  -1.157281e-01  0 
 -2.295067e-02  -1.149364e-01  0 
 -2.815077e-02  -1.191581e-01  0 
 -2.601729e-02  -1.185776e-01  0 
 -2.375127e-02  -1.178866e-01  0 
 -2.780044e-02  -1.205361e-01  0 
 -2.660541e-02  -1.206918e-01  0 
 -2.478651e-02  -1.209301e-01  0 
 -2.639405e-02  -1.256421e-01  0 
 -1.712752e-02  -1.080327e-01  0 
 -1.452397e-02  -1.082165e-01  0 
 -1.176176e-02  -1.082951e-01  0 
 -8.946475e-03  -1.083033e-01  0 
 -6.138077e-03  -1.082539e-01  0 
 -3.353562e-03  -1.081749e-01  0 
 -1.743200e-02  -1.111017e-01  0 
 -1.457446e-02  -1.111180e-01  0 
 -1.177515e-02  -1.111917e-01  0 
 -8.951764e-03  -1.112153e-01  0 
 -6.113614e-03  -1.111912e-01  0 
 -3.251741e-03  -1.111583e-01  0 
 -1.768272e-02  -1.142092e-01  0 
 -1.470511e-02  -1.141888e-01  0 
 -1.180804e-02  -1.142085e-01  0 
 -8.948663e-03  -1.142279e-01  0 
 -6.072874e-03  -1.142195e-01  0 
 -3.153477e-03  -1.141996e-01  0 
 -1.786505e-02  -1.173505e-01  0 
 -1.481060e-02  -1.173297e-01  0 
 -1.185103e-02  -1.173246e-01  0 
 -8.953750e-03  -1.173232e-01  0 
 -6.053986e-03  -1.173196e-01  0 
 -3.091052e-03  -1.173005e-01  0 
 -1.797324e-02  -1.205568e-01  0 
 -1.486351e-02  -1.205238e-01  0 
 -1.188577e-02  -1.204749e-01  0 
 -8.972757e-03  -1.204466e-01  0 
 -6.052741e-03  -1.204581e-01  0 
 -3.089151e-03  -1.204803e-01  0 
 -1.798478e-02  -1.238709e-01  0 
 -1.490597e-02  -1.237424e-01  0 
 -1.193863e-02  -1.235825e-01  0 
 -8.989078e-03  -1.235381e-01  0 
 -6.034687e-03  -1.236003e-01  0 
 -3.048931e-03  -1.237130e-01  0 
VECTORS displacement_ITER2 FLOAT
 -1.839086e-02  -9.310897e-02  0 
 -1.545737e-02  -7.976099e-02  0 
 -1.934300e-02  -8.251684e-02  0 
 -1.675724e-02  -8.528201e-02  0 
 -1.721865e-02  -8.929377e-02  0 
 -2.328171e-02  -9.210243e-02  0 
 -2.073591e-02  -9.263542e-02  0 
 -1.601408e-02  -9.351864e-02  0 
 -1.278021e-02  -9.353541e-02  0 
 -9.350919e-03  -9.350977e-02  0 
 -5.842241e-03  -9.346918e-02  0 
 -2.316633e-03  -9.340124e-02  0 
 1.195853e-03  -9.325499e-02  0 
 -1.950693e-02  -9.682187e-02  0 
 -2.002720e-02  -1.005816e-01  0 
 -2.035916e-02  -1.043788e-01  0 
 -2.061229e-02  -1.082058e-01  0 
 -2.083084e-02  -1.120954e-01  0 
 -2.106019e-02  -1.161798e-01  0 
 -2.054191e-02  -8.539206e-02  0 
 -2.087528e-02  -8.940466e-02  0 
 -7.832215e-03  -7.857941e-02  0 
 -1.074084e-02  -7.874474e-02  0 
 -9.952921e-03  -7.793480e-02  0 
 -1.056907e-02  -7.749938e-02  0 
 -9.136812e-03  -7.770932e-02  0 
 -7.417385e-03  -7.785616e-02  0 
 -5.317711e-03  -7.753899e-02  0 
 -1.308286e-02  -7.925650e-02  0 
 -1.080442e-02  -7.973007e-02  0 
 -9.046876e-03  -8.020551e-02  0 
 -7.228860e-03  -8.043917e-02  0 
 -5.514845e-03  -8.048534e-02  0 
 -4.646268e-03  -8.044582e-02  0 
 -1.410781e-02  -8.282672e-02  0 
 -1.131275e-02  -8.289450e-02  0 
 -9.021685e-03  -8.298182e-02  0 
 -7.013313e-03  -8.302964e-02  0 
 -5.418783e-03  -8.282603e-02  0 
 -5.104082e-03  -8.203312e-02  0 
 -1.479314e-02  -8.645454e-02  0 
 -1.185237e-02  -8.630621e-02  0 
 -9.185114e-03  -8.610926e-02  0 
 -6.807279e-03  -8.585059e-02  0 
 -4.952574e-03  -8.541958e-02  0 
 -3.675741e-03  -8.504217e-02  0 
 -1.503554e-02  -8.961965e-02  0 
 -1.234889e-02  -8.976921e-02  0 
 -9.354626e-03  -8.957871e-02  0 
 -6.483082e-03  -8.926618e-02  0 
 -3.821027e-03  -8.891013e-02  0 
 -1.585278e-03  -8.868920e-02  0 
 -2.443962e-02  -9.720622e-02  0 
 -2.137306e-02  -9.704704e-02  0 
 -2.661863e-02  -1.027176e-01  0 
 -2.486851e-02  -1.018032e-01  0 
 -2.222273e-02  -1.011530e-01  0 
 -2.743119e-02  -1.054597e-01  0 
 -2.524482e-02  -1.053932e-01  0 
 -2.286607e-02  -1.049555e-01  0 
 -2.764835e-02  -1.088029e-01  0 
 -2.560606e-02  -1.088973e-01  0 
 -2.347197e-02  -1.085204e-01  0 
 -2.714899e-02  -1.118509e-01  0 
 -2.597598e-02  -1.115655e-01  0 
 -2.437596e-02  -1.120628e-01  0 
 -2.569790e-02  -1.169257e-01  0 
 -1.603481e-02  -9.674943e-02  0 
 -1.278130e-02  -9.694051e-02  0 
 -9.347312e-03  -9.701906e-02  0 
 -5.839867e-03  -9.702678e-02  0 
 -2.309307e-03  -9.698164e-02  0 
 1.230777e-03  -9.690775e-02  0 
 -1.634729e-02  -1.005028e-01  0 
 -1.281684e-02  -1.005264e-01  0 
 -9.338100e-03  -1.006152e-01  0 
 -5.818368e-03  -1.006582e-01  0 
 -2.263160e-03  -1.006549e-01  0 
 1.335511e-03  -1.006387e-01  0 
 -1.660305e-02  -1.043097e-01  0 
 -1.293556e-02  -1.042964e-01  0 
 -9.346193e-03  -1.043351e-01  0 
 -5.787954e-03  -1.043833e-01  0 
 -2.205000e-03  -1.044065e-01  0 
 1.436820e-03  -1.044130e-01  0 
 -1.678755e-02  -1.081544e-01  0 
 -1.303166e-02  -1.081409e-01  0 
 -9.366252e-03  -1.081545e-01  0 
 -5.764789e-03  -1.081822e-01  0 
 -2.168349e-03  -1.082129e-01  0 
 1.488707e-03  -1.082261e-01  0 
 -1.689971e-02  -1.120631e-01  0 
 -1.307735e-02  -1.120420e-01  0 
 -9.379801e-03  -1.120118e-01  0 
 -5.755463e-03  -1.120026e-01  0 
 -2.152051e-03  -1.120294e-01  0 
 1.454672e-03  -1.120537e-01  0 
 -1.691830e-02  -1.160805e-01  0 
 -1.310756e-02  -1.159778e-01  0 
 -9.410147e-03  -1.158449e-01  0 
 -5.752180e-03  -1.157958e-01  0 
 -2.135718e-03  -1.158153e-01  0 
 1.464108e-03  -1.158914e-01  0 
VECTORS displacement_ITER3 FLOAT
 -1.781231e-02  -8.745718e-02  0 
 -1.938715e-02  -7.244166e-02  0 
 -1.885375e-02  -7.492902e-02  0 
 -1.626721e-02  -7.770461e-02  0 
 -1.676172e-02  -8.251322e-02  0 
 -2.474096e-02  -8.495809e-02  0 
 -2.136410e-02  -8.691275e-02  0 
 -1.563385e-02  -8.797914e-02  0 
 -1.276010e-02  -8.808944e-02  0 
 -9.739096e-03  -8.813819e-02  0 
 -6.666037e-03  -8.816739e-02  0 
 -3.608763e-03  -8.817976e-02  0 
 -6.459393e-04  -8.814469e-02  0 
 -1.880840e-02  -9.095932e-02  0 
 -1.923763e-02  -9.435080e-02  0 
 -1.950521e-02  -9.773186e-02  0 
 -1.970781e-02  -1.011115e-01  0 
 -1.988236e-02  -1.045195e-01  0 
 -2.005527e-02  -1.080492e-01  0 
 -2.107138e-02  -7.765046e-02  0 
 -2.145905e-02  -8.256929e-02  0 
 -1.285816e-02  -7.388405e-02  0 
 -1.383897e-02  -7.320040e-02  0 
 -1.407935e-02  -7.406488e-02  0 
 -1.364279e-02  -7.297260e-02  0 
 -1.064307e-02  -7.200724e-02  0 
 -7.141930e-03  -7.168122e-02  0 
 -2.928711e-03  -7.146388e-02  0 
 -1.562061e-02  -7.455233e-02  0 
 -1.334931e-02  -7.536444e-02  0 
 -1.057997e-02  -7.595177e-02  0 
 -7.179409e-03  -7.628769e-02  0 
 -3.524926e-03  -7.658628e-02  0 
 8.049892e-04  -7.664228e-02  0 
 -1.545468e-02  -7.710771e-02  0 
 -1.283246e-02  -7.833178e-02  0 
 -1.005387e-02  -7.929130e-02  0 
 -7.005628e-03  -8.010292e-02  0 
 -3.711319e-03  -8.081431e-02  0 
 -2.148671e-05  -8.137951e-02  0 
 -1.487058e-02  -8.019933e-02  0 
 -1.235547e-02  -8.145876e-02  0 
 -9.586058e-03  -8.237535e-02  0 
 -6.645919e-03  -8.320152e-02  0 
 -3.758875e-03  -8.411241e-02  0 
 -1.048233e-03  -8.488798e-02  0 
 -1.459158e-02  -8.366074e-02  0 
 -1.221978e-02  -8.464017e-02  0 
 -9.413095e-03  -8.528487e-02  0 
 -6.459082e-03  -8.579555e-02  0 
 -3.584306e-03  -8.627715e-02  0 
 -1.845964e-03  -8.702686e-02  0 
 -2.551824e-02  -9.134630e-02  0 
 -2.149354e-02  -9.093724e-02  0 
 -2.854478e-02  -9.624018e-02  0 
 -2.590863e-02  -9.528209e-02  0 
 -2.206173e-02  -9.500648e-02  0 
 -2.914193e-02  -9.982200e-02  0 
 -2.572066e-02  -9.944340e-02  0 
 -2.222571e-02  -9.885696e-02  0 
 -3.037470e-02  -1.045188e-01  0 
 -2.560715e-02  -1.039941e-01  0 
 -2.225823e-02  -1.027909e-01  0 
 -3.133510e-02  -1.123105e-01  0 
 -2.604399e-02  -1.094873e-01  0 
 -2.253802e-02  -1.064478e-01  0 
 -2.285577e-02  -1.094919e-01  0 
 -1.564423e-02  -9.090076e-02  0 
 -1.275573e-02  -9.110826e-02  0 
 -9.734348e-03  -9.121429e-02  0 
 -6.667245e-03  -9.125023e-02  0 
 -3.608597e-03  -9.122938e-02  0 
 -5.869306e-04  -9.117496e-02  0 
 -1.594252e-02  -9.427958e-02  0 
 -1.280560e-02  -9.429312e-02  0 
 -9.746829e-03  -9.437083e-02  0 
 -6.673147e-03  -9.440245e-02  0 
 -3.590661e-03  -9.438120e-02  0 
 -4.997359e-04  -9.433361e-02  0 
 -1.617886e-02  -9.766155e-02  0 
 -1.294229e-02  -9.763008e-02  0 
 -9.791255e-03  -9.763973e-02  0 
 -6.684474e-03  -9.765388e-02  0 
 -3.570407e-03  -9.763650e-02  0 
 -4.190227e-04  -9.759277e-02  0 
 -1.635019e-02  -1.010499e-01  0 
 -1.305758e-02  -1.010130e-01  0 
 -9.849645e-03  -1.009966e-01  0 
 -6.703656e-03  -1.009896e-01  0 
 -3.565750e-03  -1.009802e-01  0 
 -3.735194e-04  -1.009494e-01  0 
 -1.646011e-02  -1.044709e-01  0 
 -1.312405e-02  -1.044292e-01  0 
 -9.891752e-03  -1.043846e-01  0 
 -6.724613e-03  -1.043611e-01  0 
 -3.564964e-03  -1.043698e-01  0 
 -3.720065e-04  -1.043935e-01  0 
 -1.649519e-02  -1.079633e-01  0 
 -1.316665e-02  -1.078680e-01  0 
 -9.930600e-03  -1.077494e-01  0 
 -6.732202e-03  -1.077099e-01  0 
 -3.542698e-03  -1.077633e-01  0 
 -3.317873e-04  -1.078593e-01  0 
VECTORS displacement_ITER4 FLOAT
 -1.791297e-02  -8.573552e-02  0 
 -1.728534e-02  -7.629661e-02  0 
 -1.786212e-02  -7.923703e-02  0 
 -1.647502e-02  -8.093861e-02  0 
 -1.690343e-02  -8.317815e-02  0 
 -2.286626e-02  -8.696172e-02  0 
 -1.900916e-02  -8.503176e-02  0 
 -1.591908e-02  -8.638078e-02  0 
 -1.326756e-02  -8.653886e-02  0 
 -1.046741e-02  -8.660778e-02  0 
 -7.607789e-03  -8.664582e-02  0 
 -4.748523e-03  -8.666000e-02  0 
 -1.944252e-03  -8.662611e-02  0 
 -1.890179e-02  -8.915695e-02  0 
 -1.932175e-02  -9.236736e-02  0 
 -1.957986e-02  -9.554510e-02  0 
 -1.977432e-02  -9.871415e-02  0 
 -1.993725e-02  -1.019050e-01  0 
 -2.008901e-02  -1.051877e-01  0 
 -1.858966e-02  -8.096894e-02  0 
 -1.904681e-02  -8.325274e-02  0 
 -1.613873e-02  -6.630204e-02  0 
 -1.148892e-02  -6.581798e-02  0 
 -1.626548e-02  -7.166383e-02  0 
 -1.217515e-02  -7.139851e-02  0 
 -9.990090e-03  -7.118670e-02  0 
 -7.436980e-03  -7.071575e-02  0 
 -4.558962e-03  -7.039199e-02  0 
 -1.569778e-02  -7.593233e-02  0 
 -1.282403e-02  -7.539736e-02  0 
 -1.013821e-02  -7.484228e-02  0 
 -7.532220e-03  -7.457944e-02  0 
 -4.815661e-03  -7.433573e-02  0 
 -1.919800e-03  -7.411422e-02  0 
 -1.536630e-02  -7.890718e-02  0 
 -1.303515e-02  -7.863463e-02  0 
 -1.037335e-02  -7.829629e-02  0 
 -7.658584e-03  -7.803835e-02  0 
 -4.922621e-03  -7.782831e-02  0 
 -2.199762e-03  -7.741313e-02  0 
 -1.538262e-02  -8.142853e-02  0 
 -1.308623e-02  -8.138252e-02  0 
 -1.047811e-02  -8.129527e-02  0 
 -7.736767e-03  -8.117484e-02  0 
 -5.039977e-03  -8.106758e-02  0 
 -2.234448e-03  -8.098750e-02  0 
 -1.538319e-02  -8.360228e-02  0 
 -1.313007e-02  -8.392489e-02  0 
 -1.047733e-02  -8.401426e-02  0 
 -7.712697e-03  -8.400871e-02  0 
 -4.934041e-03  -8.397145e-02  0 
 -2.552133e-03  -8.387015e-02  0 
 -2.344797e-02  -9.002216e-02  0 
 -2.081470e-02  -8.961034e-02  0 
 -2.687308e-02  -9.379012e-02  0 
 -2.428976e-02  -9.324998e-02  0 
 -2.146027e-02  -9.293593e-02  0 
 -2.725917e-02  -9.724704e-02  0 
 -2.448128e-02  -9.688744e-02  0 
 -2.179592e-02  -9.635028e-02  0 
 -2.793530e-02  -1.009640e-01  0 
 -2.460827e-02  -1.005694e-01  0 
 -2.201845e-02  -9.976202e-02  0 
 -2.833763e-02  -1.059797e-01  0 
 -2.491680e-02  -1.044488e-01  0 
 -2.227767e-02  -1.029728e-01  0 
 -2.246935e-02  -1.058295e-01  0 
 -1.591677e-02  -8.910342e-02  0 
 -1.324934e-02  -8.933869e-02  0 
 -1.045036e-02  -8.946946e-02  0 
 -7.598373e-03  -8.952706e-02  0 
 -4.741293e-03  -8.952902e-02  0 
 -1.906934e-03  -8.949431e-02  0 
 -1.622348e-02  -9.229899e-02  0 
 -1.329317e-02  -9.232023e-02  0 
 -1.045027e-02  -9.241730e-02  0 
 -7.590163e-03  -9.247454e-02  0 
 -4.716793e-03  -9.248203e-02  0 
 -1.834746e-03  -9.245930e-02  0 
 -1.646034e-02  -9.548071e-02  0 
 -1.342996e-02  -9.545570e-02  0 
 -1.048696e-02  -9.547834e-02  0 
 -7.589476e-03  -9.551464e-02  0 
 -4.687649e-03  -9.552557e-02  0 
 -1.756046e-03  -9.551309e-02  0 
 -1.662957e-02  -9.866019e-02  0 
 -1.354650e-02  -9.862976e-02  0 
 -1.054232e-02  -9.862445e-02  0 
 -7.598776e-03  -9.863589e-02  0 
 -4.669509e-03  -9.865040e-02  0 
 -1.697268e-03  -9.865105e-02  0 
 -1.674130e-02  -1.018633e-01  0 
 -1.361736e-02  -1.018300e-01  0 
 -1.058177e-02  -1.018023e-01  0 
 -7.610524e-03  -1.017957e-01  0 
 -4.655886e-03  -1.018182e-01  0 
 -1.680131e-03  -1.018567e-01  0 
 -1.679188e-02  -1.051203e-01  0 
 -1.365820e-02  -1.050543e-01  0 
 -1.061228e-02  -1.049687e-01  0 
 -7.611687e-03  -1.049418e-01  0 
 -4.632111e-03  -1.049881e-01  0 
 -1.635549e-03  -1.050768e-01  0 
VECTORS displacement_ITER5 FLOAT
 -1.936604e-02  -8.452135e-02  0 
 -1.805694e-02  -7.307026e-02  0 
 -1.619925e-02  -7.634850e-02  0 
 -1.809405e-02  -7.962396e-02  0 
 -1.845426e-02  -8.198740e-02  0 
 -2.348946e-02  -8.474639e-02  0 
 -2.062110e-02  -8.397231e-02  0 
 -1.733333e-02  -8.502535e-02  0 
 -1.467030e-02  -8.512255e-02  0 
 -1.186502e-02  -8.515294e-02  0 
 -9.005116e-03  -8.516142e-02  0 
 -6.145738e-03  -8.514996e-02  0 
 -3.342229e-03  -8.509876e-02  0 
 -2.026807e-02  -8.778040e-02  0 
 -2.066695e-02  -9.092260e-02  0 
 -2.091697e-02  -9.405626e-02  0 
 -2.110488e-02  -9.719146e-02  0 
 -2.126061e-02  -1.003523e-01  0 
 -2.140012e-02  -1.036080e-01  0 
 -2.034123e-02  -7.964467e-02  0 
 -2.068743e-02  -8.204299e-02  0 
 -1.399678e-02  -6.685407e-02  0 
 -1.066806e-02  -6.641127e-02  0 
 -1.472762e-02  -7.099144e-02  0 
 -1.167551e-02  -7.076640e-02  0 
 -9.844686e-03  -7.067213e-02  0 
 -7.379426e-03  -7.029973e-02  0 
 -4.357629e-03  -7.004001e-02  0 
 -1.488071e-02  -7.417794e-02  0 
 -1.254351e-02  -7.409718e-02  0 
 -1.017201e-02  -7.394799e-02  0 
 -7.698561e-03  -7.398427e-02  0 
 -4.961192e-03  -7.393475e-02  0 
 -1.850567e-03  -7.381962e-02  0 
 -1.520463e-02  -7.687927e-02  0 
 -1.298973e-02  -7.705090e-02  0 
 -1.056026e-02  -7.712441e-02  0 
 -8.020191e-03  -7.723928e-02  0 
 -5.368591e-03  -7.738022e-02  0 
 -2.501396e-03  -7.733954e-02  0 
 -1.557048e-02  -7.952616e-02  0 
 -1.339333e-02  -7.979043e-02  0 
 -1.091100e-02  -7.996591e-02  0 
 -8.306446e-03  -8.014060e-02  0 
 -5.750711e-03  -8.039743e-02  0 
 -3.204229e-03  -8.060459e-02  0 
 -1.643340e-02  -8.234889e-02  0 
 -1.392305e-02  -8.245452e-02  0 
 -1.131731e-02  -8.260363e-02  0 
 -8.610615e-03  -8.272553e-02  0 
 -5.936283e-03  -8.285147e-02  0 
 -3.931911e-03  -8.309210e-02  0 
 -2.452595e-02  -8.833803e-02  0 
 -2.195585e-02  -8.801372e-02  0 
 -2.846329e-02  -9.217348e-02  0 
 -2.542078e-02  -9.178065e-02  0 
 -2.265210e-02  -9.143462e-02  0 
 -2.885266e-02  -9.609529e-02  0 
 -2.581994e-02  -9.557092e-02  0 
 -2.305618e-02  -9.490421e-02  0 
 -2.970670e-02  -1.001442e-01  0 
 -2.613060e-02  -9.943007e-02  0 
 -2.334634e-02  -9.840816e-02  0 
 -3.047639e-02  -1.053851e-01  0 
 -2.660882e-02  -1.036441e-01  0 
 -2.369645e-02  -1.017141e-01  0 
 -2.398239e-02  -1.046123e-01  0 
 -1.734124e-02  -8.772697e-02  0 
 -1.466606e-02  -8.791762e-02  0 
 -1.186279e-02  -8.801144e-02  0 
 -9.009713e-03  -8.803884e-02  0 
 -6.152470e-03  -8.801434e-02  0 
 -3.316551e-03  -8.795234e-02  0 
 -1.761666e-02  -9.085744e-02  0 
 -1.470997e-02  -9.087121e-02  0 
 -1.187157e-02  -9.094454e-02  0 
 -9.014013e-03  -9.097627e-02  0 
 -6.144184e-03  -9.095829e-02  0 
 -3.267939e-03  -9.090627e-02  0 
 -1.783495e-02  -9.399423e-02  0 
 -1.483418e-02  -9.396811e-02  0 
 -1.190896e-02  -9.398060e-02  0 
 -9.021341e-03  -9.399893e-02  0 
 -6.128447e-03  -9.398863e-02  0 
 -3.208621e-03  -9.395200e-02  0 
 -1.799272e-02  -9.713870e-02  0 
 -1.494051e-02  -9.710815e-02  0 
 -1.196063e-02  -9.709770e-02  0 
 -9.033205e-03  -9.709828e-02  0 
 -6.116263e-03  -9.709815e-02  0 
 -3.157222e-03  -9.708341e-02  0 
 -1.809531e-02  -1.003104e-01  0 
 -1.500459e-02  -1.002763e-01  0 
 -1.199621e-02  -1.002482e-01  0 
 -9.043592e-03  -1.002377e-01  0 
 -6.101121e-03  -1.002510e-01  0 
 -3.133992e-03  -1.002835e-01  0 
 -1.814246e-02  -1.035322e-01  0 
 -1.503838e-02  -1.034647e-01  0 
 -1.201861e-02  -1.033909e-01  0 
 -9.042198e-03  -1.033692e-01  0 
 -6.074905e-03  -1.034108e-01  0 
 -3.086877e-03  -1.034830e-01  0 
VECTORS displacement_ITER6 FLOAT
 -2.027201e-02  -8.390129e-02  0 
 -1.708748e-02  -7.247878e-02  0 
 -1.658284e-02  -7.561652e-02  0 
 -1.908493e-02  -7.923578e-02  0 
 -1.941792e-02  -8.153526e-02  0 
 -2.302045e-02  -8.343304e-02  0 
 -2.145706e-02  -8.340249e-02  0 
 -1.811168e-02  -8.434287e-02  0 
 -1.534743e-02  -8.441095e-02  0 
 -1.244272e-02  -8.441762e-02  0 
 -9.478868e-03  -8.440158e-02  0 
 -6.500742e-03  -8.436341e-02  0 
 -3.546510e-03  -8.429118e-02  0 
 -2.111698e-02  -8.718787e-02  0 
 -2.149748e-02  -9.039353e-02  0 
 -2.173936e-02  -9.360273e-02  0 
 -2.192065e-02  -9.681974e-02  0 
 -2.206669e-02  -1.000657e-01  0 
 -2.218721e-02  -1.033866e-01  0 
 -2.123755e-02  -7.930704e-02  0 
 -2.151896e-02  -8.159886e-02  0 
 -1.314275e-02  -6.579294e-02  0 
 -1.127693e-02  -6.587801e-02  0 
 -1.402590e-02  -6.927393e-02  0 
 -1.180899e-02  -6.945402e-02  0 
 -1.034087e-02  -6.979919e-02  0 
 -8.373181e-03  -6.970893e-02  0 
 -6.214344e-03  -6.960171e-02  0 
 -1.459665e-02  -7.271759e-02  0 
 -1.251202e-02  -7.264105e-02  0 
 -1.051630e-02  -7.262072e-02  0 
 -8.500014e-03  -7.268549e-02  0 
 -6.347009e-03  -7.263980e-02  0 
 -4.193862e-03  -7.265295e-02  0 
 -1.535289e-02  -7.572530e-02  0 
 -1.316390e-02  -7.567617e-02  0 
 -1.093294e-02  -7.560673e-02  0 
 -8.681149e-03  -7.556698e-02  0 
 -6.405296e-03  -7.550886e-02  0 
 -4.314797e-03  -7.532089e-02  0 
 -1.612756e-02  -7.866981e-02  0 
 -1.384693e-02  -7.860843e-02  0 
 -1.141735e-02  -7.853876e-02  0 
 -8.947230e-03  -7.846216e-02  0 
 -6.510210e-03  -7.834832e-02  0 
 -4.029255e-03  -7.819421e-02  0 
 -1.724007e-02  -8.166332e-02  0 
 -1.458227e-02  -8.151351e-02  0 
 -1.193001e-02  -8.145622e-02  0 
 -9.232559e-03  -8.138776e-02  0 
 -6.532325e-03  -8.129413e-02  0 
 -3.982014e-03  -8.111632e-02  0 
 -2.448979e-02  -8.749482e-02  0 
 -2.224411e-02  -8.731384e-02  0 
 -2.760012e-02  -9.223230e-02  0 
 -2.517845e-02  -9.160939e-02  0 
 -2.301003e-02  -9.093574e-02  0 
 -2.838951e-02  -9.569702e-02  0 
 -2.582059e-02  -9.515313e-02  0 
 -2.355490e-02  -9.442037e-02  0 
 -2.920137e-02  -9.958505e-02  0 
 -2.628911e-02  -9.882989e-02  0 
 -2.398400e-02  -9.784612e-02  0 
 -2.967063e-02  -1.039225e-01  0 
 -2.680902e-02  -1.024842e-01  0 
 -2.451283e-02  -1.011320e-01  0 
 -2.518361e-02  -1.047054e-01  0 
 -1.812162e-02  -8.713485e-02  0 
 -1.534614e-02  -8.730348e-02  0 
 -1.244342e-02  -8.738012e-02  0 
 -9.486163e-03  -8.739445e-02  0 
 -6.512173e-03  -8.736054e-02  0 
 -3.542800e-03  -8.728766e-02  0 
 -1.837641e-02  -9.033202e-02  0 
 -1.538410e-02  -9.034500e-02  0 
 -1.244871e-02  -9.041234e-02  0 
 -9.489178e-03  -9.044078e-02  0 
 -6.511761e-03  -9.042063e-02  0 
 -3.525033e-03  -9.035876e-02  0 
 -1.857927e-02  -9.354497e-02  0 
 -1.549413e-02  -9.352329e-02  0 
 -1.247681e-02  -9.353895e-02  0 
 -9.492287e-03  -9.356051e-02  0 
 -6.503037e-03  -9.355286e-02  0 
 -3.489247e-03  -9.351451e-02  0 
 -1.872603e-02  -9.677168e-02  0 
 -1.558822e-02  -9.674533e-02  0 
 -1.251648e-02  -9.674017e-02  0 
 -9.495501e-03  -9.674715e-02  0 
 -6.490638e-03  -9.675257e-02  0 
 -3.450942e-03  -9.674295e-02  0 
 -1.882270e-02  -1.000264e-01  0 
 -1.564459e-02  -9.999677e-02  0 
 -1.253987e-02  -9.997598e-02  0 
 -9.492534e-03  -9.996987e-02  0 
 -6.470601e-03  -9.998259e-02  0 
 -3.443143e-03  -1.000071e-01  0 
 -1.887310e-02  -1.033277e-01  0 
 -1.566884e-02  -1.032732e-01  0 
 -1.254692e-02  -1.032173e-01  0 
 -9.479581e-03  -1.031904e-01  0 
 -6.444059e-03  -1.032017e-01  0 
 -3.417399e-03  -1.032446e-01  0 
VECTORS displacement_ITER7 FLOAT
 -2.019723e-02  -8.357941e-02  0 
 -1.820953e-02  -7.229789e-02  0 
 -1.859747e-02  -7.506092e-02  0 
 -1.897453e-02  -7.792225e-02  0 
 -1.931088e-02  -8.073517e-02  0 
 -2.395668e-02  -8.290751e-02  0 
 -2.182881e-02  -8.308441e-02  0 
 -1.807728e-02  -8.402191e-02  0 
 -1.533337e-02  -8.408981e-02  0 
 -1.244455e-02  -8.409747e-02  0 
 -9.493295e-03  -8.408191e-02  0 
 -6.525365e-03  -8.404416e-02  0 
 -3.578961e-03  -8.397545e-02  0 
 -2.106805e-02  -8.684908e-02  0 
 -2.145945e-02  -9.004145e-02  0 
 -2.170732e-02  -9.323569e-02  0 
 -2.189033e-02  -9.643643e-02  0 
 -2.203109e-02  -9.966242e-02  0 
 -2.213413e-02  -1.029349e-01  0 
 -2.162677e-02  -7.798513e-02  0 
 -2.189495e-02  -8.080661e-02  0 
 -1.311783e-02  -6.736244e-02  0 
 -1.231803e-02  -6.707822e-02  0 
 -1.444922e-02  -6.956195e-02  0 
 -1.263359e-02  -6.926029e-02  0 
 -1.019923e-02  -6.880506e-02  0 
 -7.409112e-03  -6.842257e-02  0 
 -4.395049e-03  -6.816175e-02  0 
 -1.563823e-02  -7.235515e-02  0 
 -1.312486e-02  -7.228890e-02  0 
 -1.059759e-02  -7.221304e-02  0 
 -7.814843e-03  -7.204552e-02  0 
 -4.926736e-03  -7.177675e-02  0 
 -2.056459e-03  -7.154940e-02  0 
 -1.616972e-02  -7.537265e-02  0 
 -1.362025e-02  -7.543687e-02  0 
 -1.098073e-02  -7.540996e-02  0 
 -8.231373e-03  -7.532399e-02  0 
 -5.377419e-03  -7.515199e-02  0 
 -2.500885e-03  -7.492263e-02  0 
 -1.661749e-02  -7.829237e-02  0 
 -1.410627e-02  -7.842213e-02  0 
 -1.142661e-02  -7.844239e-02  0 
 -8.645112e-03  -7.839136e-02  0 
 -5.807762e-03  -7.825576e-02  0 
 -2.963132e-03  -7.797669e-02  0 
 -1.720831e-02  -8.112111e-02  0 
 -1.465348e-02  -8.127168e-02  0 
 -1.190912e-02  -8.132037e-02  0 
 -9.074011e-03  -8.129390e-02  0 
 -6.215154e-03  -8.117701e-02  0 
 -3.476967e-03  -8.087706e-02  0 
 -2.484035e-02  -8.729925e-02  0 
 -2.239020e-02  -8.712804e-02  0 
 -2.702656e-02  -9.203842e-02  0 
 -2.504446e-02  -9.143270e-02  0 
 -2.307751e-02  -9.068071e-02  0 
 -2.774239e-02  -9.505165e-02  0 
 -2.558272e-02  -9.460075e-02  0 
 -2.360439e-02  -9.394345e-02  0 
 -2.812886e-02  -9.830021e-02  0 
 -2.603828e-02  -9.770886e-02  0 
 -2.402796e-02  -9.706848e-02  0 
 -2.810597e-02  -1.007750e-01  0 
 -2.638046e-02  -1.004016e-01  0 
 -2.439785e-02  -1.001634e-01  0 
 -2.487209e-02  -1.037239e-01  0 
 -1.808903e-02  -8.679321e-02  0 
 -1.533306e-02  -8.696469e-02  0 
 -1.244598e-02  -8.704332e-02  0 
 -9.502278e-03  -8.705951e-02  0 
 -6.540128e-03  -8.702729e-02  0 
 -3.582988e-03  -8.695370e-02  0 
 -1.835119e-02  -8.997757e-02  0 
 -1.537364e-02  -8.999031e-02  0 
 -1.245314e-02  -9.005904e-02  0 
 -9.507309e-03  -9.008914e-02  0 
 -6.543948e-03  -9.007014e-02  0 
 -3.574895e-03  -9.000584e-02  0 
 -1.856047e-02  -9.317748e-02  0 
 -1.548915e-02  -9.315472e-02  0 
 -1.248508e-02  -9.316984e-02  0 
 -9.512831e-03  -9.319207e-02  0 
 -6.537396e-03  -9.318571e-02  0 
 -3.541416e-03  -9.314839e-02  0 
 -1.871252e-02  -9.638989e-02  0 
 -1.559072e-02  -9.636228e-02  0 
 -1.253041e-02  -9.635689e-02  0 
 -9.517829e-03  -9.636517e-02  0 
 -6.522494e-03  -9.637211e-02  0 
 -3.497283e-03  -9.636654e-02  0 
 -1.881615e-02  -9.962516e-02  0 
 -1.565615e-02  -9.959743e-02  0 
 -1.255805e-02  -9.958296e-02  0 
 -9.514940e-03  -9.958166e-02  0 
 -6.498437e-03  -9.959464e-02  0 
 -3.477825e-03  -9.961847e-02  0 
 -1.888021e-02  -1.028953e-01  0 
 -1.568369e-02  -1.028612e-01  0 
 -1.256327e-02  -1.028249e-01  0 
 -9.500807e-03  -1.028047e-01  0 
 -6.471323e-03  -1.028140e-01  0 
 -3.446831e-03  -1.028487e-01  0 
VECTORS displacement_ITER8 FLOAT
 -1.983477e-02  -8.359253e-02  0 
 -1.795016e-02  -7.201124e-02  0 
 -1.905314e-02  -7.461405e-02  0 
 -1.854447e-02  -7.728653e-02  0 
 -1.891843e-02  -8.043055e-02  0 
 -2.378393e-02  -8.245120e-02  0 
 -2.176871e-02  -8.310715e-02  0 
 -1.781139e-02  -8.403266e-02  0 
 -1.514235e-02  -8.409794e-02  0 
 -1.232468e-02  -8.410477e-02  0 
 -9.442759e-03  -8.408894e-02  0 
 -6.543285e-03  -8.405140e-02  0 
 -3.665016e-03  -8.398445e-02  0 
 -2.073091e-02  -8.678697e-02  0 
 -2.113220e-02  -8.991332e-02  0 
 -2.138501e-02  -9.304313e-02  0 
 -2.156959e-02  -9.617892e-02  0 
 -2.170760e-02  -9.933726e-02  0 
 -2.179963e-02  -1.025250e-01  0 
 -2.156328e-02  -7.733784e-02  0 
 -2.183127e-02  -8.049866e-02  0 
 -1.429267e-02  -6.624165e-02  0 
 -1.285743e-02  -6.593952e-02  0 
 -1.531541e-02  -6.905144e-02  0 
 -1.315031e-02  -6.884974e-02  0 
 -1.066739e-02  -6.858519e-02  0 
 -7.929016e-03  -6.834087e-02  0 
 -5.039891e-03  -6.816078e-02  0 
 -1.607464e-02  -7.206871e-02  0 