# vtk DataFile Version 3.1
this is an vtk file created by FEMAC
ASCII
DATASET UNSTRUCTURED_GRID
POINTS 106 FLOAT
2.000000 0.000000 0.000000
1.333333 0.000000 0.000000
1.444444 0.000000 0.000000
1.555556 0.000000 0.000000
1.666667 0.000000 0.000000
1.777778 0.000000 0.000000
1.888889 0.000000 0.000000
2.111111 0.000000 0.000000
2.222222 0.000000 0.000000
2.333333 0.000000 0.000000
1.222222 1.000000 0.000000
1.333333 1.000000 0.000000
1.444444 1.000000 0.000000
1.555556 1.000000 0.000000
1.666667 1.000000 0.000000
2.000000 0.111111 0.000000
2.000000 0.222222 0.000000
2.000000 0.333333 0.000000
2.000000 0.444444 0.000000
2.000000 0.555556 0.000000
1.222222 0.888889 0.000000
1.333333 0.111111 0.000000
1.333333 0.222222 0.000000
1.333333 0.333333 0.000000
1.333333 0.444444 0.000000
1.333333 0.555556 0.000000
1.333333 0.666667 0.000000
1.333333 0.777778 0.000000
1.333333 0.888889 0.000000
1.444444 0.111111 0.000000
1.444444 0.222222 0.000000
1.444444 0.333333 0.000000
1.444444 0.444444 0.000000
1.444444 0.555556 0.000000
1.444444 0.666667 0.000000
1.444444 0.777778 0.000000
1.444444 0.888889 0.000000
1.555556 0.111111 0.000000
1.555556 0.222222 0.000000
1.555556 0.333333 0.000000
1.555556 0.444444 0.000000
1.555556 0.555556 0.000000
1.555556 0.666667 0.000000
1.555556 0.777778 0.000000
1.555556 0.888889 0.000000
1.666667 0.111111 0.000000
1.666667 0.222222 0.000000
1.666667 0.333333 0.000000
1.666667 0.444444 0.000000
1.666667 0.555556 0.000000
1.666667 0.666667 0.000000
1.666667 0.777778 0.000000
1.666667 0.888889 0.000000
1.777778 0.111111 0.000000
1.777778 0.222222 0.000000
1.777778 0.333333 0.000000
1.777778 0.444444 0.000000
1.777778 0.555556 0.000000
1.777778 0.666667 0.000000
1.777778 0.777778 0.000000
1.888889 0.111111 0.000000
1.888889 0.222222 0.000000
1.888889 0.333333 0.000000
1.888889 0.444444 0.000000
1.888889 0.555556 0.000000
1.888889 0.666667 0.000000
1.222222 1.111111 0.000000
1.222222 1.222222 0.000000
1.222222 1.333333 0.000000
1.222222 1.444444 0.000000
1.222222 1.555556 0.000000
1.333333 1.111111 0.000000
1.333333 1.222222 0.000000
1.333333 1.333333 0.000000
1.333333 1.444444 0.000000
1.333333 1.555556 0.000000
1.444444 1.111111 0.000000
1.444444 1.222222 0.000000
1.444444 1.333333 0.000000
1.444444 1.444444 0.000000
1.444444 1.555556 0.000000
1.555556 1.111111 0.000000
1.555556 1.222222 0.000000
1.555556 1.333333 0.000000
1.555556 1.444444 0.000000
1.555556 1.555556 0.000000
1.666667 1.111111 0.000000
1.666667 1.222222 0.000000
1.666667 1.333333 0.000000
1.666667 1.444444 0.000000
1.666667 1.555556 0.000000
2.111111 0.111111 0.000000
2.111111 0.222222 0.000000
2.111111 0.333333 0.000000
2.111111 0.444444 0.000000
2.111111 0.555556 0.000000
2.222222 0.111111 0.000000
2.222222 0.222222 0.000000
2.222222 0.333333 0.000000
2.222222 0.444444 0.000000
2.222222 0.555556 0.000000
2.333333 0.111111 0.000000
2.333333 0.222222 0.000000
2.333333 0.333333 0.000000
2.333333 0.444444 0.000000
2.333333 0.555556 0.000000
CELLS 81 405 
4 20 28 11 10
4 1  2 29 21
4 21 29 30 22
4 22 30 31 23
4 23 31 32 24
4 24 32 33 25
4 25 33 34 26
4 26 34 35 27
4 27 35 36 28
4 28 36 12 11
4 2  3 37 29
4 29 37 38 30
4 30 38 39 31
4 31 39 40 32
4 32 40 41 33
4 33 41 42 34
4 34 42 43 35
4 35 43 44 36
4 36 44 13 12
4 3  4 45 37
4 37 45 46 38
4 38 46 47 39
4 39 47 48 40
4 40 48 49 41
4 41 49 50 42
4 42 50 51 43
4 43 51 52 44
4 44 52 14 13
4 4  5 53 45
4 45 53 54 46
4 46 54 55 47
4 47 55 56 48
4 48 56 57 49
4 49 57 58 50
4 50 58 59 51
4 5  6 60 53
4 53 60 61 54
4 54 61 62 55
4 55 62 63 56
4 56 63 64 57
4 57 64 65 58
4 6  0 15 60
4 60 15 16 61
4 61 16 17 62
4 62 17 18 63
4 63 18 19 64
4 10 11 71 66
4 66 71 72 67
4 67 72 73 68
4 68 73 74 69
4 69 74 75 70
4 11 12 76 71
4 71 76 77 72
4 72 77 78 73
4 73 78 79 74
4 74 79 80 75
4 12 13 81 76
4 76 81 82 77
4 77 82 83 78
4 78 83 84 79
4 79 84 85 80
4 13 14 86 81
4 81 86 87 82
4 82 87 88 83
4 83 88 89 84
4 84 89 90 85
4 0  7 91 15
4 15 91 92 16
4 16 92 93 17
4 17 93 94 18
4 18 94 95 19
4 7  8 96 91
4 91 96 97 92
4 92 97 98 93
4 93 98 99 94
4 94  99 100  95
4 8   9 101  96
4 96 101 102  97
4 97 102 103  98
4 98 103 104  99
4 99 104 105 100
CELL_TYPES 81
9 9 9 9 9 9 9 9 9 9 9 9 9 9 9 9 9 9 9 9 9 9 9 9 9 9 9 9 9 9 9 9 9 9 9 9 9 9 9 9 9 9 9 9 9 9 9 9 9 9 9 9 9 9 9 9 9 9 9 9 9 9 9 9 9 9 9 9 9 9 9 9 9 9 9 9 9 9 9 9 9 
POINT_DATA 106
VECTORS displacement_ITER1 FLOAT
 -7.393439e-02  -3.619691e-02  0 
 -2.553640e-02  -2.556634e-02  0 
 -3.663846e-02  -2.546761e-02  0 
 -4.435897e-02  -2.895264e-02  0 
 -5.097041e-02  -3.216455e-02  0 
 -5.746205e-02  -3.463002e-02  0 
 -6.449972e-02  -3.618156e-02  0 
 -7.410788e-02  -4.085284e-02  0 
 -7.446466e-02  -4.566815e-02  0 
 -7.521101e-02  -5.140113e-02  0 
 -1.522673e-02  -1.030913e-02  0 
 -1.699606e-02  -1.213996e-02  0 
 -1.824057e-02  -1.427978e-02  0 
 -1.931019e-02  -1.665847e-02  0 
 -2.035189e-02  -1.940193e-02  0 
 -6.926604e-02  -3.615664e-02  0 
 -6.454178e-02  -3.620209e-02  0 
 -5.989294e-02  -3.628226e-02  0 
 -5.535581e-02  -3.626318e-02  0 
 -5.066939e-02  -3.603409e-02  0 
 -1.299398e-02  -1.367854e-02  0 
 -2.946291e-02  -2.160474e-02  0 
 -2.606486e-02  -1.832565e-02  0 
 -2.245828e-02  -1.663781e-02  0 
 -1.993213e-02  -1.625811e-02  0 
 -1.886884e-02  -1.603422e-02  0 
 -1.827025e-02  -1.454465e-02  0 
 -1.776198e-02  -1.319132e-02  0 
 -1.797868e-02  -1.138235e-02  0 
 -3.480786e-02  -2.369043e-02  0 
 -3.240667e-02  -2.240893e-02  0 
 -2.908559e-02  -2.065050e-02  0 
 -2.641667e-02  -1.910021e-02  0 
 -2.489370e-02  -1.784833e-02  0 
 -2.380825e-02  -1.658559e-02  0 
 -2.246614e-02  -1.492322e-02  0 
 -2.052117e-02  -1.400708e-02  0 
 -4.129560e-02  -2.701141e-02  0 
 -3.858851e-02  -2.534251e-02  0 
 -3.570372e-02  -2.361266e-02  0 
 -3.282337e-02  -2.173434e-02  0 
 -3.062404e-02  -2.027954e-02  0 
 -2.936023e-02  -1.937873e-02  0 
 -2.753908e-02  -1.804689e-02  0 
 -2.367354e-02  -1.655823e-02  0 
 -4.813927e-02  -3.014689e-02  0 
 -4.528536e-02  -2.816458e-02  0 
 -4.228048e-02  -2.635537e-02  0 
 -3.906902e-02  -2.451399e-02  0 
 -3.582969e-02  -2.256704e-02  0 
 -3.395587e-02  -2.155573e-02  0 
 -3.430585e-02  -2.153510e-02  0 
 -2.740027e-02  -2.219843e-02  0 
 -5.514738e-02  -3.258510e-02  0 
 -5.217099e-02  -3.072042e-02  0 
 -4.870878e-02  -2.926375e-02  0 
 -4.519044e-02  -2.787486e-02  0 
 -4.146867e-02  -2.590114e-02  0 
 -3.743439e-02  -2.235158e-02  0 
 -4.474821e-02  -1.472140e-02  0 
 -6.247804e-02  -3.418239e-02  0 
 -5.871106e-02  -3.324815e-02  0 
 -5.467316e-02  -3.251039e-02  0 
 -5.065171e-02  -3.169861e-02  0 
 -4.721896e-02  -3.083559e-02  0 
 -3.847818e-02  -3.292995e-02  0 
 -1.424393e-02  -1.004376e-02  0 
 -1.332380e-02  -1.017811e-02  0 
 -1.195513e-02  -1.035148e-02  0 
 -1.062204e-02  -1.043107e-02  0 
 -9.194168e-03  -1.039242e-02  0 
 -1.519818e-02  -1.186662e-02  0 
 -1.365461e-02  -1.190712e-02  0 
 -1.215644e-02  -1.207871e-02  0 
 -1.063184e-02  -1.226353e-02  0 
 -8.929705e-03  -1.254072e-02  0 
 -1.608219e-02  -1.404789e-02  0 
 -1.412428e-02  -1.399587e-02  0 
 -1.233003e-02  -1.409883e-02  0 
 -1.056480e-02  -1.430058e-02  0 
 -8.816917e-03  -1.462959e-02  0 
 -1.681788e-02  -1.642295e-02  0 
 -1.457304e-02  -1.634329e-02  0 
 -1.254257e-02  -1.633696e-02  0 
 -1.060226e-02  -1.645622e-02  0 
 -8.695091e-03  -1.653532e-02  0 
 -1.742704e-02  -1.911905e-02  0 
 -1.497472e-02  -1.872940e-02  0 
 -1.281116e-02  -1.873120e-02  0 
 -1.066000e-02  -1.871490e-02  0 
 -8.815294e-03  -1.879624e-02  0 
 -6.932701e-02  -4.083867e-02  0 
 -6.454320e-02  -4.089136e-02  0 
 -5.991360e-02  -4.090723e-02  0 
 -5.539609e-02  -4.086891e-02  0 
 -5.089596e-02  -4.083308e-02  0 
 -6.933592e-02  -4.565474e-02  0 
 -6.448255e-02  -4.563442e-02  0 
 -5.991478e-02  -4.553726e-02  0 
 -5.546540e-02  -4.545283e-02  0 
 -5.101167e-02  -4.533782e-02  0 
 -6.922667e-02  -5.077611e-02  0 
 -6.449729e-02  -5.034646e-02  0 
 -5.991195e-02  -5.005278e-02  0 
 -5.556699e-02  -4.987747e-02  0 
 -5.117920e-02  -4.988066e-02  0 
VECTORS displacement_ITER2 FLOAT
 -6.912282e-02  -3.516613e-02  0 
 -2.421346e-02  -2.318771e-02  0 
 -3.427522e-02  -2.410858e-02  0 
 -4.173027e-02  -2.725049e-02  0 
 -4.822764e-02  -3.039160e-02  0 
 -5.442688e-02  -3.304440e-02  0 
 -6.085119e-02  -3.488094e-02  0 
 -6.925134e-02  -3.927916e-02  0 
 -6.943097e-02  -4.348824e-02  0 
 -6.973006e-02  -4.804263e-02  0 
 -1.681956e-02  -9.545821e-03  0 
 -1.846208e-02  -1.191356e-02  0 
 -1.962058e-02  -1.433048e-02  0 
 -2.066547e-02  -1.688053e-02  0 
 -2.173158e-02  -1.977744e-02  0 
 -6.500575e-02  -3.511132e-02  0 
 -6.083456e-02  -3.507417e-02  0 
 -5.666988e-02  -3.503047e-02  0 
 -5.251713e-02  -3.491948e-02  0 
 -4.826790e-02  -3.466452e-02  0 
 -1.659034e-02  -9.313215e-03  0 
 -2.703877e-02  -2.067080e-02  0 
 -2.491098e-02  -1.796186e-02  0 
 -2.230036e-02  -1.605169e-02  0 
 -1.996858e-02  -1.493064e-02  0 
 -1.832521e-02  -1.426345e-02  0 
 -1.738805e-02  -1.350013e-02  0 
 -1.751889e-02  -1.268915e-02  0 
 -1.896451e-02  -1.130336e-02  0 
 -3.246980e-02  -2.221443e-02  0 
 -3.059641e-02  -2.087047e-02  0 
 -2.790641e-02  -1.917818e-02  0 
 -2.531970e-02  -1.762497e-02  0 
 -2.327789e-02  -1.632887e-02  0 
 -2.194045e-02  -1.522285e-02  0 
 -2.129277e-02  -1.420301e-02  0 
 -2.059887e-02  -1.395257e-02  0 
 -3.884764e-02  -2.528699e-02  0 
 -3.628789e-02  -2.352122e-02  0 
 -3.355560e-02  -2.182198e-02  0 
 -3.068445e-02  -2.010371e-02  0 
 -2.809699e-02  -1.858690e-02  0 
 -2.605001e-02  -1.741891e-02  0 
 -2.440322e-02  -1.675210e-02  0 
 -2.267914e-02  -1.649800e-02  0 
 -4.538472e-02  -2.842210e-02  0 
 -4.253408e-02  -2.643010e-02  0 
 -3.939088e-02  -2.451611e-02  0 
 -3.597499e-02  -2.270624e-02  0 
 -3.263249e-02  -2.111157e-02  0 
 -2.966322e-02  -1.992903e-02  0 
 -2.734272e-02  -1.924071e-02  0 
 -2.508899e-02  -1.936052e-02  0 
 -5.198578e-02  -3.111546e-02  0 
 -4.902720e-02  -2.928389e-02  0 
 -4.548378e-02  -2.767717e-02  0 
 -4.132776e-02  -2.583302e-02  0 
 -3.695146e-02  -2.408217e-02  0 
 -3.302004e-02  -2.269858e-02  0 
 -2.976915e-02  -2.170207e-02  0 
 -5.877634e-02  -3.305161e-02  0 
 -5.524625e-02  -3.209542e-02  0 
 -5.138040e-02  -3.126588e-02  0 
 -4.716424e-02  -3.018949e-02  0 
 -4.119364e-02  -2.794913e-02  0 
 -3.667583e-02  -2.541268e-02  0 
 -1.534008e-02  -9.455408e-03  0 
 -1.407517e-02  -9.736744e-03  0 
 -1.272831e-02  -1.008926e-02  0 
 -1.132438e-02  -1.026047e-02  0 
 -9.849413e-03  -1.039075e-02  0 
 -1.631466e-02  -1.165983e-02  0 
 -1.453568e-02  -1.171613e-02  0 
 -1.291904e-02  -1.193122e-02  0 
 -1.131637e-02  -1.218610e-02  0 
 -9.590568e-03  -1.247439e-02  0 
 -1.724332e-02  -1.408987e-02  0 
 -1.508025e-02  -1.402267e-02  0 
 -1.313973e-02  -1.414156e-02  0 
 -1.129365e-02  -1.437678e-02  0 
 -9.413318e-03  -1.468685e-02  0 
 -1.801421e-02  -1.664701e-02  0 
 -1.556969e-02  -1.654806e-02  0 
 -1.336964e-02  -1.655912e-02  0 
 -1.133108e-02  -1.673195e-02  0 
 -9.357454e-03  -1.694590e-02  0 
 -1.865214e-02  -1.948246e-02  0 
 -1.600118e-02  -1.916281e-02  0 
 -1.361270e-02  -1.908591e-02  0 
 -1.134330e-02  -1.913625e-02  0 
 -9.471696e-03  -1.928535e-02  0 
 -6.507072e-02  -3.925572e-02  0 
 -6.087966e-02  -3.924709e-02  0 
 -5.672546e-02  -3.920923e-02  0 
 -5.258750e-02  -3.913840e-02  0 
 -4.839120e-02  -3.907576e-02  0 
 -6.510979e-02  -4.347325e-02  0 
 -6.088842e-02  -4.345372e-02  0 
 -5.675556e-02  -4.341046e-02  0 
 -5.263436e-02  -4.336553e-02  0 
 -4.849721e-02  -4.329708e-02  0 
 -6.509953e-02  -4.780202e-02  0 
 -6.091107e-02  -4.766545e-02  0 
 -5.675911e-02  -4.756960e-02  0 
 -5.269720e-02  -4.753623e-02  0 
 -4.851751e-02  -4.758035e-02  0 
VECTORS displacement_ITER3 FLOAT
 -6.530784e-02  -3.517432e-02  0 
 -2.447788e-02  -2.186801e-02  0 
 -3.330342e-02  -2.418355e-02  0 
 -4.013323e-02  -2.734826e-02  0 
 -4.621138e-02  -3.042023e-02  0 
 -5.198149e-02  -3.303544e-02  0 
 -5.786471e-02  -3.486293e-02  0 
 -6.540755e-02  -3.881872e-02  0 
 -6.548172e-02  -4.252063e-02  0 
 -6.552989e-02  -4.625600e-02  0 
 -1.728143e-02  -1.015215e-02  0 
 -1.890701e-02  -1.255495e-02  0 
 -2.005958e-02  -1.495520e-02  0 
 -2.108870e-02  -1.745391e-02  0 
 -2.212068e-02  -2.025413e-02  0 
 -6.166420e-02  -3.511100e-02  0 
 -5.796536e-02  -3.502229e-02  0 
 -5.422625e-02  -3.489970e-02  0 
 -5.043869e-02  -3.473493e-02  0 
 -4.658020e-02  -3.449905e-02  0 
 -1.712617e-02  -6.991368e-03  0 
 -2.560869e-02  -2.045934e-02  0 
 -2.350713e-02  -1.811174e-02  0 
 -2.118548e-02  -1.610319e-02  0 
 -1.900327e-02  -1.458748e-02  0 
 -1.720795e-02  -1.360995e-02  0 
 -1.620671e-02  -1.304150e-02  0 
 -1.668788e-02  -1.238629e-02  0 
 -1.865682e-02  -1.161733e-02  0 
 -3.104699e-02  -2.229798e-02  0 
 -2.913470e-02  -2.090184e-02  0 
 -2.667291e-02  -1.918561e-02  0 
 -2.421823e-02  -1.757043e-02  0 
 -2.209154e-02  -1.617537e-02  0 
 -2.073462e-02  -1.501673e-02  0 
 -2.035193e-02  -1.420547e-02  0 
 -2.023231e-02  -1.425812e-02  0 
 -3.724713e-02  -2.545145e-02  0 
 -3.469675e-02  -2.364398e-02  0 
 -3.210482e-02  -2.194692e-02  0 
 -2.942211e-02  -2.028290e-02  0 
 -2.690153e-02  -1.870081e-02  0 
 -2.472546e-02  -1.733040e-02  0 
 -2.317998e-02  -1.671111e-02  0 
 -2.218970e-02  -1.679458e-02  0 
 -4.343385e-02  -2.855103e-02  0 
 -4.067257e-02  -2.660473e-02  0 
 -3.766674e-02  -2.470570e-02  0 
 -3.449738e-02  -2.297897e-02  0 
 -3.151464e-02  -2.154021e-02  0 
 -2.850869e-02  -2.018296e-02  0 
 -2.544478e-02  -1.902595e-02  0 
 -2.441631e-02  -1.877627e-02  0 
 -4.961205e-02  -3.123028e-02  0 
 -4.681411e-02  -2.946173e-02  0 
 -4.348405e-02  -2.784348e-02  0 
 -3.954618e-02  -2.595802e-02  0 
 -3.562359e-02  -2.440266e-02  0 
 -3.251796e-02  -2.371823e-02  0 
 -2.595207e-02  -2.474667e-02  0 
 -5.591229e-02  -3.317206e-02  0 
 -5.268449e-02  -3.221480e-02  0 
 -4.914038e-02  -3.133074e-02  0 
 -4.523867e-02  -3.014777e-02  0 
 -3.944836e-02  -2.751125e-02  0 
 -3.798079e-02  -2.317994e-02  0 
 -1.576555e-02  -1.009073e-02  0 
 -1.451495e-02  -1.038280e-02  0 
 -1.330059e-02  -1.074388e-02  0 
 -1.194151e-02  -1.093058e-02  0 
 -1.048512e-02  -1.109975e-02  0 
 -1.677587e-02  -1.230430e-02  0 
 -1.504376e-02  -1.235115e-02  0 
 -1.349141e-02  -1.257081e-02  0 
 -1.193625e-02  -1.284228e-02  0 
 -1.026055e-02  -1.312918e-02  0 
 -1.772955e-02  -1.471332e-02  0 
 -1.562245e-02  -1.464626e-02  0 
 -1.373827e-02  -1.477741e-02  0 
 -1.194675e-02  -1.503035e-02  0 
 -1.007962e-02  -1.533050e-02  0 
 -1.851664e-02  -1.722785e-02  0 
 -1.613108e-02  -1.713396e-02  0 
 -1.398377e-02  -1.718194e-02  0 
 -1.200363e-02  -1.739481e-02  0 
 -1.007056e-02  -1.767843e-02  0 
 -1.917609e-02  -1.997020e-02  0 
 -1.656587e-02  -1.972471e-02  0 
 -1.421030e-02  -1.966137e-02  0 
 -1.203720e-02  -1.978372e-02  0 
 -1.017993e-02  -2.001034e-02  0 
 -6.172967e-02  -3.879142e-02  0 
 -5.803498e-02  -3.874862e-02  0 
 -5.430381e-02  -3.867787e-02  0 
 -5.052163e-02  -3.858224e-02  0 
 -4.666334e-02  -3.848406e-02  0 
 -6.177983e-02  -4.251003e-02  0 
 -5.808215e-02  -4.249658e-02  0 
 -5.435588e-02  -4.248602e-02  0 
 -5.056999e-02  -4.246088e-02  0 
 -4.672327e-02  -4.241359e-02  0 
 -6.181183e-02  -4.622489e-02  0 
 -5.811072e-02  -4.625611e-02  0 
 -5.436504e-02  -4.629283e-02  0 
 -5.061241e-02  -4.635887e-02  0 
 -4.668111e-02  -4.644393e-02  0 
VECTORS displacement_ITER4 FLOAT
 -6.366993e-02  -3.479127e-02  0 
 -2.726608e-02  -2.033773e-02  0 
 -3.483941e-02  -2.406725e-02  0 
 -4.076289e-02  -2.754179e-02  0 
 -4.612139e-02  -3.059020e-02  0 
 -5.128734e-02  -3.303316e-02  0 
 -5.667133e-02  -3.463772e-02  0 
 -6.375612e-02  -3.818064e-02  0 
 -6.378292e-02  -4.161128e-02  0 
 -6.373171e-02  -4.495991e-02  0 
 -1.698894e-02  -1.093124e-02  0 
 -1.863770e-02  -1.305211e-02  0 
 -1.981408e-02  -1.524698e-02  0 
 -2.082525e-02  -1.754686e-02  0 
 -2.179914e-02  -2.008693e-02  0 
 -6.028322e-02  -3.472258e-02  0 
 -5.683581e-02  -3.460440e-02  0 
 -5.331999e-02  -3.443510e-02  0 
 -4.972857e-02  -3.423581e-02  0 
 -4.608739e-02  -3.400379e-02  0 
 -1.450189e-02  -7.698265e-03  0 
 -2.656013e-02  -1.956366e-02  0 
 -2.401246e-02  -1.774314e-02  0 
 -2.160149e-02  -1.597864e-02  0 
 -1.933274e-02  -1.442535e-02  0 
 -1.727267e-02  -1.325843e-02  0 
 -1.590116e-02  -1.255922e-02  0 
 -1.596176e-02  -1.191696e-02  0 
 -1.744973e-02  -1.162357e-02  0 
 -3.187160e-02  -2.232642e-02  0 
 -2.958968e-02  -2.099125e-02  0 
 -2.709387e-02  -1.939376e-02  0 
 -2.462972e-02  -1.784517e-02  0 
 -2.234396e-02  -1.642169e-02  0 
 -2.064573e-02  -1.516972e-02  0 
 -1.981824e-02  -1.432728e-02  0 
 -1.954801e-02  -1.435742e-02  0 
 -3.771948e-02  -2.581386e-02  0 
 -3.505333e-02  -2.409551e-02  0 
 -3.249799e-02  -2.251667e-02  0 
 -2.990931e-02  -2.099045e-02  0 
 -2.737615e-02  -1.947147e-02  0 
 -2.498153e-02  -1.802994e-02  0 
 -2.303859e-02  -1.716573e-02  0 
 -2.173891e-02  -1.699486e-02  0 
 -4.341871e-02  -2.889690e-02  0 
 -4.073030e-02  -2.711409e-02  0 
 -3.790965e-02  -2.544415e-02  0 
 -3.502485e-02  -2.399244e-02  0 
 -3.226474e-02  -2.275522e-02  0 
 -2.926240e-02  -2.142618e-02  0 
 -2.584484e-02  -2.012342e-02  0 
 -2.415305e-02  -1.933975e-02  0 
 -4.908765e-02  -3.138601e-02  0 
 -4.644321e-02  -2.977687e-02  0 
 -4.335627e-02  -2.839154e-02  0 
 -3.994137e-02  -2.697569e-02  0 
 -3.663843e-02  -2.588607e-02  0 
 -3.382204e-02  -2.549550e-02  0 
 -2.702324e-02  -2.668821e-02  0 
 -5.491295e-02  -3.307087e-02  0 
 -5.188626e-02  -3.219462e-02  0 
 -4.857096e-02  -3.141050e-02  0 
 -4.504450e-02  -3.048757e-02  0 
 -4.063985e-02  -2.876938e-02  0 
 -3.960036e-02  -2.561160e-02  0 
 -1.570468e-02  -1.079767e-02  0 
 -1.466836e-02  -1.101489e-02  0 
 -1.364742e-02  -1.129331e-02  0 
 -1.241151e-02  -1.146075e-02  0 
 -1.102258e-02  -1.161580e-02  0 
 -1.674495e-02  -1.279488e-02  0 
 -1.522157e-02  -1.281334e-02  0 
 -1.383930e-02  -1.301186e-02  0 
 -1.241325e-02  -1.327160e-02  0 
 -1.086215e-02  -1.354604e-02  0 
 -1.770005e-02  -1.500781e-02  0 
 -1.580501e-02  -1.494515e-02  0 
 -1.409533e-02  -1.507976e-02  0 
 -1.244502e-02  -1.533408e-02  0 
 -1.070410e-02  -1.562494e-02  0 
 -1.848730e-02  -1.732919e-02  0 
 -1.631879e-02  -1.725208e-02  0 
 -1.435125e-02  -1.733829e-02  0 
 -1.251609e-02  -1.757868e-02  0 
 -1.069328e-02  -1.789135e-02  0 
 -1.915742e-02  -1.982453e-02  0 
 -1.674548e-02  -1.965464e-02  0 
 -1.456621e-02  -1.966389e-02  0 
 -1.256402e-02  -1.986881e-02  0 
 -1.076301e-02  -2.016973e-02  0 
 -6.034788e-02  -3.815285e-02  0 
 -5.691733e-02  -3.809439e-02  0 
 -5.341211e-02  -3.800065e-02  0 
 -4.981800e-02  -3.787633e-02  0 
 -4.614820e-02  -3.774220e-02  0 
 -6.039593e-02  -4.160795e-02  0 
 -5.698036e-02  -4.160392e-02  0 
 -5.348342e-02  -4.160401e-02  0 
 -4.987550e-02  -4.157740e-02  0 
 -4.615204e-02  -4.152818e-02  0 
 -6.042641e-02  -4.501223e-02  0 
 -5.700915e-02  -4.511133e-02  0 
 -5.350291e-02  -4.522589e-02  0 
 -4.991258e-02  -4.535575e-02  0 
 -4.607857e-02  -4.547272e-02  0 
VECTORS displacement_ITER5 FLOAT
 -6.216220e-02  -3.406658e-02  0 
 -2.821480e-02  -1.978933e-02  0 
 -3.498230e-02  -2.390195e-02  0 
 -4.034479e-02  -2.746300e-02  0 
 -4.527285e-02  -3.040662e-02  0 
 -5.011381e-02  -3.265587e-02  0 
 -5.527885e-02  -3.405152e-02  0 
 -6.225230e-02  -3.738030e-02  0 
 -6.230396e-02  -4.074671e-02  0 
 -6.231249e-02  -4.411693e-02  0 
 -1.652360e-02  -1.133607e-02  0 
 -1.816152e-02  -1.325212e-02  0 
 -1.932015e-02  -1.528955e-02  0 
 -2.027623e-02  -1.742160e-02  0 
 -2.115407e-02  -1.970159e-02  0 
 -5.885027e-02  -3.400245e-02  0 
 -5.548105e-02  -3.389999e-02  0 
 -5.206023e-02  -3.375062e-02  0 
 -4.858515e-02  -3.355795e-02  0 
 -4.504946e-02  -3.330362e-02  0 
 -1.413387e-02  -8.668887e-03  0 
 -2.648387e-02  -1.892771e-02  0 
 -2.356169e-02  -1.733932e-02  0 
 -2.111107e-02  -1.585268e-02  0 
 -1.900331e-02  -1.457193e-02  0 
 -1.721642e-02  -1.355191e-02  0 
 -1.600447e-02  -1.281187e-02  0 
 -1.591222e-02  -1.218055e-02  0 
 -1.701508e-02  -1.196303e-02  0 
 -3.170924e-02  -2.227812e-02  0 
 -2.914865e-02  -2.093255e-02  0 
 -2.662181e-02  -1.940146e-02  0 
 -2.429862e-02  -1.794877e-02  0 
 -2.223172e-02  -1.662146e-02  0 
 -2.063350e-02  -1.543112e-02  0 
 -1.967320e-02  -1.456702e-02  0 
 -1.920795e-02  -1.448568e-02  0 
 -3.728360e-02  -2.584497e-02  0 
 -3.458235e-02  -2.417917e-02  0 
 -3.206303e-02  -2.262434e-02  0 
 -2.959580e-02  -2.113365e-02  0 
 -2.723467e-02  -1.969555e-02  0 
 -2.502109e-02  -1.835422e-02  0 
 -2.306125e-02  -1.739316e-02  0 
 -2.144611e-02  -1.698796e-02  0 
 -4.269052e-02  -2.881386e-02  0 
 -4.009868e-02  -2.711832e-02  0 
 -3.743239e-02  -2.555582e-02  0 
 -3.474177e-02  -2.419098e-02  0 
 -3.211727e-02  -2.295864e-02  0 
 -2.935709e-02  -2.169864e-02  0 
 -2.636581e-02  -2.051413e-02  0 
 -2.395636e-02  -1.968285e-02  0 
 -4.808323e-02  -3.108993e-02  0 
 -4.557286e-02  -2.956978e-02  0 
 -4.266683e-02  -2.831984e-02  0 
 -3.962276e-02  -2.717431e-02  0 
 -3.666051e-02  -2.620273e-02  0 
 -3.384116e-02  -2.549547e-02  0 
 -2.890661e-02  -2.554098e-02  0 
 -5.366903e-02  -3.254181e-02  0 
 -5.076063e-02  -3.172928e-02  0 
 -4.758597e-02  -3.102661e-02  0 
 -4.430636e-02  -3.028325e-02  0 
 -4.088624e-02  -2.925969e-02  0 
 -3.876240e-02  -2.766939e-02  0 
 -1.537590e-02  -1.112914e-02  0 
 -1.449511e-02  -1.129915e-02  0 
 -1.359055e-02  -1.152201e-02  0 
 -1.244621e-02  -1.168429e-02  0 
 -1.114238e-02  -1.182722e-02  0 
 -1.643212e-02  -1.298843e-02  0 
 -1.505065e-02  -1.298168e-02  0 
 -1.378838e-02  -1.316341e-02  0 
 -1.246278e-02  -1.341072e-02  0 
 -1.100433e-02  -1.367761e-02  0 
 -1.737132e-02  -1.505609e-02  0 
 -1.563514e-02  -1.499165e-02  0 
 -1.405345e-02  -1.512140e-02  0 
 -1.250624e-02  -1.537425e-02  0 
 -1.087004e-02  -1.567154e-02  0 
 -1.814215e-02  -1.721505e-02  0 
 -1.615254e-02  -1.715321e-02  0 
 -1.431874e-02  -1.726434e-02  0 
 -1.258606e-02  -1.752021e-02  0 
 -1.085368e-02  -1.783081e-02  0 
 -1.880644e-02  -1.948972e-02  0 
 -1.656518e-02  -1.939122e-02  0 
 -1.452720e-02  -1.948548e-02  0 
 -1.264174e-02  -1.973525e-02  0 
 -1.090048e-02  -2.006940e-02  0 
 -5.891144e-02  -3.735442e-02  0 
 -5.555296e-02  -3.730380e-02  0 
 -5.214456e-02  -3.721421e-02  0 
 -4.866933e-02  -3.708709e-02  0 
 -4.513145e-02  -3.694289e-02  0 
 -5.895130e-02  -4.074227e-02  0 
 -5.560245e-02  -4.073537e-02  0 
 -5.220657e-02  -4.071849e-02  0 
 -4.872209e-02  -4.068016e-02  0 
 -4.512795e-02  -4.062358e-02  0 
 -5.896232e-02  -4.411728e-02  0 
 -5.562381e-02  -4.416049e-02  0 
 -5.222415e-02  -4.424059e-02  0 
 -4.874398e-02  -4.433571e-02  0 
 -4.508550e-02  -4.442433e-02  0 
VECTORS displacement_ITER6 FLOAT
 -6.274022e-02  -3.276014e-02  0 
 -2.753220e-02  -1.988132e-02  0 
 -3.435585e-02  -2.324696e-02  0 
 -3.991167e-02  -2.658013e-02  0 
 -4.503917e-02  -2.938758e-02  0 
 -5.009010e-02  -3.153601e-02  0 
 -5.549988e-02  -3.284242e-02  0 
 -6.284412e-02  -3.618811e-02  0 
 -6.294393e-02  -3.969070e-02  0 
 -6.305049e-02  -4.332955e-02  0 
 -1.700986e-02  -9.834975e-03  0 
 -1.849159e-02  -1.198973e-02  0 
 -1.955234e-02  -1.413515e-02  0 
 -2.046337e-02  -1.632669e-02  0 
 -2.136016e-02  -1.865657e-02  0 
 -5.931294e-02  -3.270115e-02  0 
 -5.583294e-02  -3.262417e-02  0 
 -5.232891e-02  -3.250838e-02  0 
 -4.879821e-02  -3.232375e-02  0 
 -4.521138e-02  -3.201882e-02  0 
 -1.315433e-02  -9.987010e-03  0 
 -2.590805e-02  -1.832136e-02  0 
 -2.309672e-02  -1.655401e-02  0 
 -2.073142e-02  -1.505120e-02  0 
 -1.875761e-02  -1.382397e-02  0 
 -1.718519e-02  -1.286307e-02  0 
 -1.616002e-02  -1.215056e-02  0 
 -1.607312e-02  -1.172633e-02  0 
 -1.709584e-02  -1.108817e-02  0 
 -3.135201e-02  -2.157804e-02  0 
 -2.880731e-02  -2.006694e-02  0 
 -2.630603e-02  -1.843491e-02  0 
 -2.403124e-02  -1.692047e-02  0 
 -2.203514e-02  -1.558045e-02  0 
 -2.049677e-02  -1.446956e-02  0 
 -1.967089e-02  -1.365831e-02  0 
 -1.937665e-02  -1.351128e-02  0 
 -3.700705e-02  -2.491215e-02  0 
 -3.438554e-02  -2.318821e-02  0 
 -3.186317e-02  -2.153042e-02  0 
 -2.935960e-02  -1.994222e-02  0 
 -2.692857e-02  -1.843761e-02  0 
 -2.464345e-02  -1.706515e-02  0 
 -2.274335e-02  -1.618138e-02  0 
 -2.140785e-02  -1.592301e-02  0 
 -4.256025e-02  -2.774139e-02  0 
 -4.003161e-02  -2.599990e-02  0 
 -3.736274e-02  -2.438371e-02  0 
 -3.458456e-02  -2.294089e-02  0 
 -3.178347e-02  -2.161427e-02  0 
 -2.877958e-02  -2.027740e-02  0 
 -2.549571e-02  -1.903885e-02  0 
 -2.352166e-02  -1.821139e-02  0 
 -4.813434e-02  -2.991347e-02  0 
 -4.565132e-02  -2.836373e-02  0 
 -4.271770e-02  -2.711033e-02  0 
 -3.957973e-02  -2.596475e-02  0 
 -3.636414e-02  -2.495466e-02  0 
 -3.308323e-02  -2.420142e-02  0 
 -2.735865e-02  -2.451081e-02  0 
 -5.392923e-02  -3.127433e-02  0 
 -5.098178e-02  -3.046948e-02  0 
 -4.774314e-02  -2.980292e-02  0 
 -4.435821e-02  -2.912725e-02  0 
 -4.067209e-02  -2.830893e-02  0 
 -3.760673e-02  -2.711582e-02  0 
 -1.553656e-02  -9.670241e-03  0 
 -1.447433e-02  -9.898890e-03  0 
 -1.349711e-02  -1.026473e-02  0 
 -1.233550e-02  -1.046948e-02  0 
 -1.093583e-02  -1.062261e-02  0 
 -1.658718e-02  -1.173902e-02  0 
 -1.504951e-02  -1.174079e-02  0 
 -1.370545e-02  -1.194603e-02  0 
 -1.234604e-02  -1.224174e-02  0 
 -1.084029e-02  -1.253600e-02  0 
 -1.750467e-02  -1.391225e-02  0 
 -1.565607e-02  -1.384451e-02  0 
 -1.398774e-02  -1.397727e-02  0 
 -1.239630e-02  -1.424930e-02  0 
 -1.076378e-02  -1.457065e-02  0 
 -1.825819e-02  -1.612802e-02  0 
 -1.617605e-02  -1.607236e-02  0 
 -1.426218e-02  -1.617511e-02  0 
 -1.248448e-02  -1.642674e-02  0 
 -1.076805e-02  -1.673176e-02  0 
 -1.889303e-02  -1.846289e-02  0 
 -1.658683e-02  -1.836702e-02  0 
 -1.447467e-02  -1.845078e-02  0 
 -1.252778e-02  -1.867256e-02  0 
 -1.082008e-02  -1.896649e-02  0 
 -5.937293e-02  -3.616296e-02  0 
 -5.589286e-02  -3.612579e-02  0 
 -5.240316e-02  -3.604696e-02  0 
 -4.888494e-02  -3.592097e-02  0 
 -4.529126e-02  -3.577288e-02  0 
 -5.940810e-02  -3.967994e-02  0 
 -5.592072e-02  -3.966361e-02  0 
 -5.244750e-02  -3.963176e-02  0 
 -4.892407e-02  -3.958518e-02  0 
 -4.531912e-02  -3.952886e-02  0 
 -5.940835e-02  -4.324044e-02  0 
 -5.592878e-02  -4.320686e-02  0 
 -5.244550e-02  -4.321117e-02  0 
 -4.893206e-02  -4.328071e-02  0 
 -4.527420e-02  -4.335432e-02  0 
VECTORS displacement_ITER7 FLOAT
 -6.265543e-02  -3.244771e-02  0 
 -2.724809e-02  -1.966157e-02  0 
 -3.384392e-02  -2.289290e-02  0 
 -3.944979e-02  -2.613324e-02  0 
 -4.470141e-02  -2.891284e-02  0 
 -4.987928e-02  -3.109074e-02  0 
 -5.538135e-02  -3.246242e-02  0 
 -6.276056e-02  -3.591061e-02  0 
 -6.286464e-02  -3.945135e-02  0 
 -6.297248e-02  -4.313461e-02  0 
 -1.666680e-02  -9.832949e-03  0 
 -1.808863e-02  -1.191872e-02  0 
 -1.911344e-02  -1.397685e-02  0 
 -1.999156e-02  -1.606436e-02  0 
 -2.085186e-02  -1.824692e-02  0 
 -5.919352e-02  -3.239016e-02  0 
 -5.568291e-02  -3.231832e-02  0 
 -5.215588e-02  -3.220810e-02  0 
 -4.860545e-02  -3.202174e-02  0 
 -4.498083e-02  -3.170678e-02  0 
 -1.346574e-02  -9.852797e-03  0 
 -2.523996e-02  -1.789644e-02  0 
 -2.232396e-02  -1.599148e-02  0 
 -2.001110e-02  -1.444223e-02  0 
 -1.823613e-02  -1.325864e-02  0 
 -1.695183e-02  -1.237041e-02  0 
 -1.616750e-02  -1.172057e-02  0 
 -1.611552e-02  -1.138648e-02  0 
 -1.688825e-02  -1.103491e-02  0 
 -3.085048e-02  -2.117775e-02  0 
 -2.820829e-02  -1.951388e-02  0 
 -2.569388e-02  -1.777001e-02  0 
 -2.351409e-02  -1.621609e-02  0 
 -2.170138e-02  -1.492431e-02  0 
 -2.032989e-02  -1.392553e-02  0 
 -1.952817e-02  -1.326246e-02  0 
 -1.915397e-02  -1.322215e-02  0 
 -3.657221e-02  -2.442133e-02  0 
 -3.391633e-02  -2.260863e-02  0 
 -3.134544e-02  -2.082421e-02  0 
 -2.883899e-02  -1.913962e-02  0 
 -2.648956e-02  -1.763475e-02  0 
 -2.438177e-02  -1.637119e-02  0 
 -2.261881e-02  -1.556815e-02  0 
 -2.120792e-02  -1.541184e-02  0 
 -4.221529e-02  -2.722312e-02  0 
 -3.966019e-02  -2.541027e-02  0 
 -3.693605e-02  -2.367352e-02  0 
 -3.409239e-02  -2.207814e-02  0 
 -3.126054e-02  -2.060067e-02  0 
 -2.843930e-02  -1.921539e-02  0 
 -2.567013e-02  -1.802760e-02  0 
 -2.327062e-02  -1.757807e-02  0 
 -4.788663e-02  -2.943137e-02  0 
 -4.537674e-02  -2.782485e-02  0 
 -4.240097e-02  -2.646532e-02  0 
 -3.918289e-02  -2.512395e-02  0 
 -3.590285e-02  -2.381342e-02  0 
 -3.269247e-02  -2.251178e-02  0 
 -2.851923e-02  -2.163695e-02  0 
 -5.376183e-02  -3.087068e-02  0 
 -5.079032e-02  -3.003069e-02  0 
 -4.753117e-02  -2.929903e-02  0 
 -4.411965e-02  -2.847480e-02  0 
 -4.034731e-02  -2.726975e-02  0 
 -3.705743e-02  -2.580747e-02  0 
 -1.519343e-02  -9.650664e-03  0 
 -1.418564e-02  -9.876658e-03  0 
 -1.328668e-02  -1.026485e-02  0 
 -1.219855e-02  -1.051384e-02  0 
 -1.089020e-02  -1.069709e-02  0 
 -1.624913e-02  -1.167175e-02  0 
 -1.476988e-02  -1.166709e-02  0 
 -1.349546e-02  -1.187955e-02  0 
 -1.221815e-02  -1.218823e-02  0 
 -1.080313e-02  -1.248663e-02  0 
 -1.715289e-02  -1.376043e-02  0 
 -1.538266e-02  -1.369281e-02  0 
 -1.379015e-02  -1.382643e-02  0 
 -1.228482e-02  -1.410354e-02  0 
 -1.074958e-02  -1.442728e-02  0 
 -1.789833e-02  -1.587247e-02  0 
 -1.590700e-02  -1.582078e-02  0 
 -1.407120e-02  -1.593086e-02  0 
 -1.238299e-02  -1.618595e-02  0 
 -1.077927e-02  -1.648825e-02  0 
 -1.853522e-02  -1.807855e-02  0 
 -1.631444e-02  -1.801842e-02  0 
 -1.427819e-02  -1.811863e-02  0 
 -1.243344e-02  -1.833080e-02  0 
 -1.084652e-02  -1.860700e-02  0 
 -5.925318e-02  -3.588506e-02  0 
 -5.574047e-02  -3.584814e-02  0 
 -5.222698e-02  -3.577129e-02  0 
 -4.869137e-02  -3.564884e-02  0 
 -4.508074e-02  -3.549731e-02  0 
 -5.928861e-02  -3.943777e-02  0 
 -5.576572e-02  -3.941665e-02  0 
 -5.226397e-02  -3.938002e-02  0 
 -4.872744e-02  -3.933423e-02  0 
 -4.512166e-02  -3.928066e-02  0 
 -5.929177e-02  -4.304164e-02  0 
 -5.577248e-02  -4.299598e-02  0 
 -5.225800e-02  -4.298602e-02  0 
 -4.872539e-02  -4.303270e-02  0 
 -4.510460e-02  -4.308642e-02  0 
VECTORS displacement_ITER8 FLOAT
 -6.262812e-02  -3.202282e-02  0 
 -2.766556e-02  -1.934124e-02  0 
 -3.394336e-02  -2.279001e-02  0 
 -3.944814e-02  -2.596948e-02  0 
 -4.465792e-02  -2.867145e-02  0 