# vtk DataFile Version 3.1
this is an vtk file created by FEMAC
ASCII
DATASET UNSTRUCTURED_GRID
POINTS 101 FLOAT
0.000000 5.000000 0.000000
0.000000 6.000000 0.000000
0.111111 5.000000 0.000000
0.222222 5.000000 0.000000
0.333333 5.000000 0.000000
0.444444 5.000000 0.000000
0.555556 5.000000 0.000000
0.666667 5.000000 0.000000
0.777778 5.000000 0.000000
0.000000 4.777778 0.000000
0.000000 4.888889 0.000000
0.111111 6.000000 0.000000
0.222222 6.000000 0.000000
0.333333 6.000000 0.000000
0.444444 6.000000 0.000000
0.555556 6.000000 0.000000
0.666667 6.000000 0.000000
0.777778 6.000000 0.000000
0.888889 6.000000 0.000000
0.000000 5.111111 0.000000
0.000000 5.222222 0.000000
0.000000 5.333333 0.000000
0.000000 5.444444 0.000000
0.000000 5.555556 0.000000
0.000000 5.666667 0.000000
0.000000 5.777778 0.000000
0.000000 5.888889 0.000000
0.111111 4.777778 0.000000
0.111111 4.888889 0.000000
0.222222 4.777778 0.000000
0.222222 4.888889 0.000000
0.333333 4.777778 0.000000
0.333333 4.888889 0.000000
0.444444 4.777778 0.000000
0.444444 4.888889 0.000000
0.555556 4.777778 0.000000
0.555556 4.888889 0.000000
0.666667 4.777778 0.000000
0.666667 4.888889 0.000000
0.777778 4.888889 0.000000
0.111111 5.111111 0.000000
0.111111 5.222222 0.000000
0.111111 5.333333 0.000000
0.111111 5.444444 0.000000
0.111111 5.555556 0.000000
0.111111 5.666667 0.000000
0.111111 5.777778 0.000000
0.111111 5.888889 0.000000
0.222222 5.111111 0.000000
0.222222 5.222222 0.000000
0.222222 5.333333 0.000000
0.222222 5.444444 0.000000
0.222222 5.555556 0.000000
0.222222 5.666667 0.000000
0.222222 5.777778 0.000000
0.222222 5.888889 0.000000
0.333333 5.111111 0.000000
0.333333 5.222222 0.000000
0.333333 5.333333 0.000000
0.333333 5.444444 0.000000
0.333333 5.555556 0.000000
0.333333 5.666667 0.000000
0.333333 5.777778 0.000000
0.333333 5.888889 0.000000
0.444444 5.111111 0.000000
0.444444 5.222222 0.000000
0.444444 5.333333 0.000000
0.444444 5.444444 0.000000
0.444444 5.555556 0.000000
0.444444 5.666667 0.000000
0.444444 5.777778 0.000000
0.444444 5.888889 0.000000
0.555556 5.111111 0.000000
0.555556 5.222222 0.000000
0.555556 5.333333 0.000000
0.555556 5.444444 0.000000
0.555556 5.555556 0.000000
0.555556 5.666667 0.000000
0.555556 5.777778 0.000000
0.555556 5.888889 0.000000
0.666667 5.111111 0.000000
0.666667 5.222222 0.000000
0.666667 5.333333 0.000000
0.666667 5.444444 0.000000
0.666667 5.555556 0.000000
0.666667 5.666667 0.000000
0.666667 5.777778 0.000000
0.666667 5.888889 0.000000
0.777778 5.111111 0.000000
0.777778 5.222222 0.000000
0.777778 5.333333 0.000000
0.777778 5.444444 0.000000
0.777778 5.555556 0.000000
0.777778 5.666667 0.000000
0.777778 5.777778 0.000000
0.777778 5.888889 0.000000
0.888889 5.444444 0.000000
0.888889 5.555556 0.000000
0.888889 5.666667 0.000000
0.888889 5.777778 0.000000
0.888889 5.888889 0.000000
CELLS 81 405 
4 9 27 28 10
4 10 28  2  0
4 27 29 30 28
4 28 30  3  2
4 29 31 32 30
4 30 32  4  3
4 31 33 34 32
4 32 34  5  4
4 33 35 36 34
4 34 36  6  5
4 35 37 38 36
4 36 38  7  6
4 38 39  8  7
4 0  2 40 19
4 19 40 41 20
4 20 41 42 21
4 21 42 43 22
4 22 43 44 23
4 23 44 45 24
4 24 45 46 25
4 25 46 47 26
4 26 47 11  1
4 2  3 48 40
4 40 48 49 41
4 41 49 50 42
4 42 50 51 43
4 43 51 52 44
4 44 52 53 45
4 45 53 54 46
4 46 54 55 47
4 47 55 12 11
4 3  4 56 48
4 48 56 57 49
4 49 57 58 50
4 50 58 59 51
4 51 59 60 52
4 52 60 61 53
4 53 61 62 54
4 54 62 63 55
4 55 63 13 12
4 4  5 64 56
4 56 64 65 57
4 57 65 66 58
4 58 66 67 59
4 59 67 68 60
4 60 68 69 61
4 61 69 70 62
4 62 70 71 63
4 63 71 14 13
4 5  6 72 64
4 64 72 73 65
4 65 73 74 66
4 66 74 75 67
4 67 75 76 68
4 68 76 77 69
4 69 77 78 70
4 70 78 79 71
4 71 79 15 14
4 6  7 80 72
4 72 80 81 73
4 73 81 82 74
4 74 82 83 75
4 75 83 84 76
4 76 84 85 77
4 77 85 86 78
4 78 86 87 79
4 79 87 16 15
4 7  8 88 80
4 80 88 89 81
4 81 89 90 82
4 82 90 91 83
4 83 91 92 84
4 84 92 93 85
4 85 93 94 86
4 86 94 95 87
4 87 95 17 16
4 91 96 97 92
4 92 97 98 93
4 93 98 99 94
4 94  99 100  95
4 95 100  18  17
CELL_TYPES 81
9 9 9 9 9 9 9 9 9 9 9 9 9 9 9 9 9 9 9 9 9 9 9 9 9 9 9 9 9 9 9 9 9 9 9 9 9 9 9 9 9 9 9 9 9 9 9 9 9 9 9 9 9 9 9 9 9 9 9 9 9 9 9 9 9 9 9 9 9 9 9 9 9 9 9 9 9 9 9 9 9 
POINT_DATA 101
VECTORS displacement_ITER1 FLOAT
 0  0  0 
 0  0  0 
 2.067288e-03  -1.073112e-03  0 
 3.596034e-03  -2.132399e-03  0 
 4.858744e-03  -3.176667e-03  0 
 6.071173e-03  -4.173422e-03  0 
 7.398348e-03  -5.248808e-03  0 
 8.892834e-03  -6.637513e-03  0 
 1.045918e-02  -8.301994e-03  0 
 2.748119e-19  5.848769e-20  0 
 0  0  0 
 1.006933e-02  -5.571959e-03  0 
 1.701592e-02  -1.005923e-02  0 
 2.280924e-02  -1.396290e-02  0 
 2.800065e-02  -1.735229e-02  0 
 3.291928e-02  -2.028216e-02  0 
 3.799167e-02  -2.288898e-02  0 
 4.404153e-02  -2.575002e-02  0 
 5.262454e-02  -3.245761e-02  0 
 0  0  0 
 0  0  0 
 0  0  0 
 0  0  0 
 0  0  0 
 0  0  0 
 0  0  0 
 0  0  0 
 6.740421e-04  -4.068778e-04  0 
 1.262475e-03  -6.369116e-04  0 
 1.721340e-03  -1.512348e-03  0 
 2.641207e-03  -1.770641e-03  0 
 3.020981e-03  -2.666008e-03  0 
 3.882662e-03  -2.874502e-03  0 
 4.184692e-03  -3.606503e-03  0 
 5.030416e-03  -3.835020e-03  0 
 4.903411e-03  -4.617547e-03  0 
 6.148626e-03  -4.869744e-03  0 
 5.555359e-03  -6.001353e-03  0 
 7.233763e-03  -6.198807e-03  0 
 8.564964e-03  -7.897062e-03  0 
 2.059843e-03  -1.089313e-03  0 
 2.348452e-03  -1.166949e-03  0 
 2.762448e-03  -1.365307e-03  0 
 3.261275e-03  -1.663883e-03  0 
 3.826610e-03  -2.028602e-03  0 
 4.470766e-03  -2.435595e-03  0 
 5.284955e-03  -2.901827e-03  0 
 6.576266e-03  -3.611321e-03  0 
 4.086378e-03  -2.136061e-03  0 
 4.840294e-03  -2.455774e-03  0 
 5.796044e-03  -3.005243e-03  0 
 6.875020e-03  -3.725263e-03  0 
 8.043721e-03  -4.552285e-03  0 
 9.338297e-03  -5.471960e-03  0 
 1.094472e-02  -6.583458e-03  0 
 1.339783e-02  -8.185248e-03  0 
 6.091451e-03  -3.301194e-03  0 
 7.570907e-03  -3.940405e-03  0 
 9.207955e-03  -4.960628e-03  0 
 1.091847e-02  -6.195717e-03  0 
 1.267265e-02  -7.515451e-03  0 
 1.454498e-02  -8.905066e-03  0 
 1.674358e-02  -1.047408e-02  0 
 1.947296e-02  -1.223103e-02  0 
 8.206312e-03  -4.650793e-03  0 
 1.065994e-02  -5.727217e-03  0 
 1.313953e-02  -7.295882e-03  0 
 1.545990e-02  -9.073759e-03  0 
 1.764805e-02  -1.081002e-02  0 
 1.987965e-02  -1.246126e-02  0 
 2.229878e-02  -1.409307e-02  0 
 2.499565e-02  -1.575737e-02  0 
 1.054314e-02  -6.395839e-03  0 
 1.428003e-02  -8.020960e-03  0 
 1.777589e-02  -1.009877e-02  0 
 2.053512e-02  -1.225886e-02  0 
 2.285912e-02  -1.427444e-02  0 
 2.506675e-02  -1.593611e-02  0 
 2.746263e-02  -1.732594e-02  0 
 3.014757e-02  -1.877394e-02  0 
 1.336697e-02  -8.939721e-03  0 
 1.854067e-02  -1.160894e-02  0 
 2.304644e-02  -1.329088e-02  0 
 2.627818e-02  -1.547507e-02  0 
 2.824538e-02  -1.766123e-02  0 
 2.978893e-02  -1.907038e-02  0 
 3.207317e-02  -2.023701e-02  0 
 3.507023e-02  -2.143006e-02  0 
 1.801096e-02  -1.426174e-02  0 
 2.309687e-02  -1.660426e-02  0 
 2.742495e-02  -1.765866e-02  0 
 3.384088e-02  -1.812587e-02  0 
 3.320548e-02  -1.995367e-02  0 
 3.406030e-02  -2.142951e-02  0 
 3.613591e-02  -2.319391e-02  0 
 3.960328e-02  -2.436122e-02  0 
 4.171781e-02  -1.661565e-02  0 
 3.724348e-02  -2.040528e-02  0 
 3.848396e-02  -2.331403e-02  0 
 4.026011e-02  -2.568782e-02  0 
 4.324717e-02  -2.884204e-02  0 
VECTORS displacement_ITER2 FLOAT
 0  0  0 
 0  0  0 
 1.888899e-03  -9.629142e-04  0 
 3.291547e-03  -1.869407e-03  0 
 4.467155e-03  -2.757272e-03  0 
 5.591185e-03  -3.625373e-03  0 
 6.800200e-03  -4.597796e-03  0 
 8.119437e-03  -5.875901e-03  0 
 9.412599e-03  -7.429244e-03  0 
 1.481782e-19  -5.136695e-21  0 
 0  0  0 
 9.164397e-03  -4.844803e-03  0 
 1.577256e-02  -8.570339e-03  0 
 2.162024e-02  -1.176777e-02  0 
 2.721106e-02  -1.459203e-02  0 
 3.283215e-02  -1.714799e-02  0 
 3.884623e-02  -1.956216e-02  0 
 4.599464e-02  -2.225680e-02  0 
 5.600241e-02  -2.795093e-02  0 
 0  0  0 
 0  0  0 
 0  0  0 
 0  0  0 
 0  0  0 
 0  0  0 
 0  0  0 
 0  0  0 
 7.374227e-04  -3.452920e-04  0 
 1.196076e-03  -5.660063e-04  0 
 1.750505e-03  -1.288323e-03  0 
 2.486816e-03  -1.532863e-03  0 
 2.921788e-03  -2.277282e-03  0 
 3.632639e-03  -2.473365e-03  0 
 3.934463e-03  -3.114224e-03  0 
 4.675778e-03  -3.320268e-03  0 
 4.572599e-03  -4.048236e-03  0 
 5.667150e-03  -4.258592e-03  0 
 5.163799e-03  -5.225917e-03  0 
 6.635050e-03  -5.481793e-03  0 
 7.721729e-03  -7.116158e-03  0 
 2.000285e-03  -8.410434e-04  0 
 2.322143e-03  -8.209421e-04  0 
 2.736391e-03  -9.209957e-04  0 
 3.213633e-03  -1.125322e-03  0 
 3.741981e-03  -1.416705e-03  0 
 4.333850e-03  -1.787597e-03  0 
 5.063569e-03  -2.260075e-03  0 
 6.182169e-03  -2.991956e-03  0 
 3.896300e-03  -1.683622e-03  0 
 4.692294e-03  -1.781321e-03  0 
 5.637697e-03  -2.094262e-03  0 
 6.683583e-03  -2.588460e-03  0 
 7.812264e-03  -3.240620e-03  0 
 9.053858e-03  -4.063517e-03  0 
 1.054988e-02  -5.147117e-03  0 
 1.272378e-02  -6.730142e-03  0 
 5.733232e-03  -2.637792e-03  0 
 7.185506e-03  -2.930524e-03  0 
 8.770574e-03  -3.544879e-03  0 
 1.045082e-02  -4.394043e-03  0 
 1.221686e-02  -5.429048e-03  0 
 1.411105e-02  -6.671007e-03  0 
 1.626015e-02  -8.201958e-03  0 
 1.876892e-02  -9.981111e-03  0 
 7.625357e-03  -3.751353e-03  0 
 9.883647e-03  -4.328100e-03  0 
 1.221321e-02  -5.302633e-03  0 
 1.454282e-02  -6.538967e-03  0 
 1.689809e-02  -7.916692e-03  0 
 1.934471e-02  -9.420442e-03  0 
 2.189658e-02  -1.107267e-02  0 
 2.453241e-02  -1.284697e-02  0 
 9.653233e-03  -5.152766e-03  0 
 1.287892e-02  -6.066951e-03  0 
 1.606655e-02  -7.393754e-03  0 
 1.898165e-02  -8.972308e-03  0 
 2.177906e-02  -1.064280e-02  0 
 2.456157e-02  -1.222527e-02  0 
 2.738766e-02  -1.374293e-02  0 
 3.020923e-02  -1.540125e-02  0 
 1.193661e-02  -7.036652e-03  0 
 1.618235e-02  -8.539089e-03  0 
 2.031391e-02  -9.751623e-03  0 
 2.390548e-02  -1.156877e-02  0 
 2.686036e-02  -1.355044e-02  0 
 2.953490e-02  -1.502940e-02  0 
 3.261662e-02  -1.633632e-02  0 
 3.595204e-02  -1.778773e-02  0 
 1.509662e-02  -1.026717e-02  0 
 1.964317e-02  -1.176670e-02  0 
 2.406335e-02  -1.289051e-02  0 
 3.026567e-02  -1.410329e-02  0 
 3.178754e-02  -1.610754e-02  0 
 3.422764e-02  -1.761403e-02  0 
 3.747712e-02  -1.926914e-02  0 
 4.166603e-02  -2.051102e-02  0 
 3.665460e-02  -1.513232e-02  0 
 3.608829e-02  -1.775751e-02  0 
 3.898479e-02  -2.018373e-02  0 
 4.242638e-02  -2.231197e-02  0 
 4.661894e-02  -2.493675e-02  0 
VECTORS displacement_ITER3 FLOAT
 0  0  0 
 0  0  0 
 1.832347e-03  -9.813476e-04  0 
 3.131705e-03  -1.911333e-03  0 
 4.165518e-03  -2.772029e-03  0 
 5.132567e-03  -3.521296e-03  0 
 6.197420e-03  -4.272127e-03  0 
 7.413727e-03  -5.237324e-03  0 
 8.686319e-03  -6.439971e-03  0 
 1.098623e-19  -2.936752e-20  0 
 0  0  0 
 8.711626e-03  -4.585152e-03  0 
 1.501777e-02  -8.065295e-03  0 
 2.063804e-02  -1.101528e-02  0 
 2.605220e-02  -1.359077e-02  0 
 3.152153e-02  -1.588119e-02  0 
 3.737451e-02  -1.796115e-02  0 
 4.433271e-02  -2.013943e-02  0 
 5.422314e-02  -2.488187e-02  0 
 0  0  0 
 0  0  0 
 0  0  0 
 0  0  0 
 0  0  0 
 0  0  0 
 0  0  0 
 0  0  0 
 6.356956e-04  -4.279972e-04  0 
 1.125441e-03  -6.097470e-04  0 
 1.594812e-03  -1.400852e-03  0 
 2.331620e-03  -1.611757e-03  0 
 2.748176e-03  -2.357511e-03  0 
 3.402102e-03  -2.527335e-03  0 
 3.782447e-03  -3.075960e-03  0 
 4.379653e-03  -3.257322e-03  0 
 4.471757e-03  -3.775400e-03  0 
 5.314707e-03  -3.966039e-03  0 
 5.062317e-03  -4.636392e-03  0 
 6.240837e-03  -4.870633e-03  0 
 7.289831e-03  -6.130570e-03  0 
 1.953831e-03  -8.050410e-04  0 
 2.267990e-03  -7.420185e-04  0 
 2.667308e-03  -8.100389e-04  0 
 3.123836e-03  -9.929172e-04  0 
 3.624857e-03  -1.271600e-03  0 
 4.181354e-03  -1.635229e-03  0 
 4.863581e-03  -2.100830e-03  0 
 5.908551e-03  -2.814012e-03  0 
 3.756948e-03  -1.596020e-03  0 
 4.546744e-03  -1.597727e-03  0 
 5.473460e-03  -1.839675e-03  0 
 6.488484e-03  -2.283696e-03  0 
 7.570574e-03  -2.902666e-03  0 
 8.746076e-03  -3.702590e-03  0 
 1.014923e-02  -4.761198e-03  0 
 1.218015e-02  -6.295795e-03  0 
 5.458175e-03  -2.463424e-03  0 
 6.911570e-03  -2.613434e-03  0 
 8.483228e-03  -3.116277e-03  0 
 1.013322e-02  -3.879505e-03  0 
 1.184378e-02  -4.853021e-03  0 
 1.365016e-02  -6.053051e-03  0 
 1.567234e-02  -7.548178e-03  0 
 1.800878e-02  -9.283750e-03  0 
 7.194849e-03  -3.433784e-03  0 
 9.454394e-03  -3.845264e-03  0 
 1.177401e-02  -4.675765e-03  0 
 1.408178e-02  -5.783724e-03  0 
 1.638904e-02  -7.061826e-03  0 
 1.874742e-02  -8.505737e-03  0 
 2.116325e-02  -1.013132e-02  0 
 2.360985e-02  -1.188406e-02  0 
 9.084783e-03  -4.614792e-03  0 
 1.229341e-02  -5.378050e-03  0 
 1.544504e-02  -6.553881e-03  0 
 1.834265e-02  -7.959685e-03  0 
 2.112331e-02  -9.475635e-03  0 
 2.386692e-02  -1.098314e-02  0 
 2.657952e-02  -1.249977e-02  0 
 2.918108e-02  -1.416196e-02  0 
 1.125979e-02  -6.213549e-03  0 
 1.550318e-02  -7.546786e-03  0 
 1.949747e-02  -8.693914e-03  0 
 2.299586e-02  -1.029993e-02  0 
 2.603040e-02  -1.206071e-02  0 
 2.882320e-02  -1.347747e-02  0 
 3.183013e-02  -1.476863e-02  0 
 3.487756e-02  -1.621474e-02  0 
 1.430689e-02  -9.113867e-03  0 
 1.889966e-02  -1.044546e-02  0 
 2.326654e-02  -1.134630e-02  0 
 2.876457e-02  -1.262327e-02  0 
 3.085262e-02  -1.448551e-02  0 
 3.357599e-02  -1.585631e-02  0 
 3.677468e-02  -1.731342e-02  0 
 4.062031e-02  -1.843982e-02  0 
 3.423000e-02  -1.453170e-02  0 
 3.519234e-02  -1.640358e-02  0 
 3.831550e-02  -1.829306e-02  0 
 4.175561e-02  -1.991373e-02  0 
 4.566165e-02  -2.209486e-02  0 
VECTORS displacement_ITER4 FLOAT
 0  0  0 
 0  0  0 
 1.874949e-03  -9.805710e-04  0 
 3.237773e-03  -1.890695e-03  0 
 4.365938e-03  -2.772626e-03  0 
 5.430344e-03  -3.628523e-03  0 
 6.565815e-03  -4.569625e-03  0 
 7.822718e-03  -5.770350e-03  0 
 9.158807e-03  -7.212026e-03  0 
 1.631843e-19  1.351436e-21  0 
 0  0  0 
 8.691890e-03  -4.728090e-03  0 
 1.480334e-02  -8.430208e-03  0 
 2.006489e-02  -1.160411e-02  0 
 2.494959e-02  -1.435832e-02  0 
 2.968831e-02  -1.673562e-02  0 
 3.454002e-02  -1.874160e-02  0 
 4.005626e-02  -2.052058e-02  0 
 4.764818e-02  -2.384375e-02  0 
 0  0  0 
 0  0  0 
 0  0  0 
 0  0  0 
 0  0  0 
 0  0  0 
 0  0  0 
 0  0  0 
 7.583003e-04  -4.043183e-04  0 
 1.184990e-03  -5.979007e-04  0 
 1.752692e-03  -1.339685e-03  0 
 2.443071e-03  -1.566541e-03  0 
 2.854211e-03  -2.317282e-03  0 
 3.546259e-03  -2.499538e-03  0 
 3.797329e-03  -3.164766e-03  0 
 4.538193e-03  -3.343639e-03  0 
 4.410539e-03  -4.080494e-03  0 
 5.474478e-03  -4.256384e-03  0 
 4.931086e-03  -5.236023e-03  0 
 6.388407e-03  -5.420784e-03  0 
 7.490961e-03  -6.874312e-03  0 
 1.903665e-03  -9.160639e-04  0 
 2.177864e-03  -9.266308e-04  0 
 2.548048e-03  -1.049137e-03  0 
 2.978364e-03  -1.268782e-03  0 
 3.456517e-03  -1.563059e-03  0 
 3.998393e-03  -1.917045e-03  0 
 4.683177e-03  -2.346594e-03  0 
 5.764521e-03  -3.003497e-03  0 
 3.726762e-03  -1.781973e-03  0 
 4.426489e-03  -1.938182e-03  0 
 5.281465e-03  -2.292155e-03  0 
 6.226429e-03  -2.813717e-03  0 
 7.238955e-03  -3.473046e-03  0 
 8.356416e-03  -4.270310e-03  0 
 9.734706e-03  -5.283389e-03  0 
 1.180883e-02  -6.743833e-03  0 
 5.492509e-03  -2.737471e-03  0 
 6.812645e-03  -3.099268e-03  0 
 8.264350e-03  -3.761366e-03  0 
 9.788710e-03  -4.637773e-03  0 
 1.136202e-02  -5.677873e-03  0 
 1.303704e-02  -6.891993e-03  0 
 1.497102e-02  -8.346367e-03  0 
 1.730679e-02  -9.993494e-03  0 
 7.318361e-03  -3.832429e-03  0 
 9.410182e-03  -4.489481e-03  0 
 1.156488e-02  -5.505506e-03  0 
 1.368693e-02  -6.739326e-03  0 
 1.577389e-02  -8.093059e-03  0 
 1.789707e-02  -9.565395e-03  0 
 2.011414e-02  -1.116116e-02  0 
 2.245892e-02  -1.281381e-02  0 
 9.316657e-03  -5.176321e-03  0 
 1.233216e-02  -6.214064e-03  0 
 1.526192e-02  -7.583450e-03  0 
 1.790623e-02  -9.080065e-03  0 
 2.038244e-02  -1.063050e-02  0 
 2.277309e-02  -1.215858e-02  0 
 2.512657e-02  -1.366438e-02  0 
 2.744869e-02  -1.522527e-02  0 
 1.164841e-02  -6.964944e-03  0 
 1.570402e-02  -8.597837e-03  0 
 1.932082e-02  -9.965768e-03  0 
 2.245723e-02  -1.156142e-02  0 
 2.513408e-02  -1.322991e-02  0 
 2.749848e-02  -1.460120e-02  0 
 2.995398e-02  -1.588529e-02  0 
 3.242219e-02  -1.725195e-02  0 
 1.498365e-02  -1.015907e-02  0 
 1.936416e-02  -1.165605e-02  0 
 2.320152e-02  -1.277257e-02  0 
 2.781901e-02  -1.411368e-02  0 
 2.974587e-02  -1.557772e-02  0 
 3.200757e-02  -1.674869e-02  0 
 3.452363e-02  -1.804112e-02  0 
 3.735431e-02  -1.911215e-02  0 
 3.319915e-02  -1.571069e-02  0 
 3.387945e-02  -1.731438e-02  0 
 3.643477e-02  -1.878716e-02  0 
 3.904234e-02  -1.994032e-02  0 
 4.177463e-02  -2.155769e-02  0 
VECTORS displacement_ITER5 FLOAT
 0  0  0 
 0  0  0 
 1.851621e-03  -9.429828e-04  0 
 3.229039e-03  -1.797241e-03  0 
 4.408573e-03  -2.654958e-03  0 
 5.530726e-03  -3.553255e-03  0 
 6.702265e-03  -4.598580e-03  0 
 7.968856e-03  -5.934799e-03  0 
 9.318739e-03  -7.542519e-03  0 
 1.412490e-19  -1.044169e-20  0 
 0  0  0 
 8.694466e-03  -4.781741e-03  0 
 1.474178e-02  -8.551231e-03  0 
 1.988236e-02  -1.177996e-02  0 
 2.458857e-02  -1.456121e-02  0 
 2.907773e-02  -1.691533e-02  0 
 3.358799e-02  -1.880957e-02  0 
 3.864830e-02  -2.032577e-02  0 
 4.563000e-02  -2.321961e-02  0 
 0  0  0 
 0  0  0 
 0  0  0 
 0  0  0 
 0  0  0 
 0  0  0 
 0  0  0 
 0  0  0 
 8.461384e-04  -3.671268e-04  0 
 1.203062e-03  -5.630623e-04  0 
 1.848172e-03  -1.226330e-03  0 
 2.472519e-03  -1.461389e-03  0 
 2.886233e-03  -2.172320e-03  0 
 3.580513e-03  -2.364258e-03  0 
 3.745789e-03  -3.081950e-03  0 
 4.569172e-03  -3.258231e-03  0 
 4.303873e-03  -4.127352e-03  0 
 5.492871e-03  -4.286427e-03  0 
 4.785189e-03  -5.434372e-03  0 
 6.388470e-03  -5.598218e-03  0 
 7.462978e-03  -7.196309e-03  0 
 1.883626e-03  -9.062378e-04  0 
 2.162278e-03  -9.495511e-04  0 
 2.533806e-03  -1.102074e-03  0 
 2.960966e-03  -1.345507e-03  0 
 3.431887e-03  -1.654407e-03  0 
 3.964714e-03  -2.011499e-03  0 
 4.643242e-03  -2.432230e-03  0 
 5.729089e-03  -3.071477e-03  0 
 3.722796e-03  -1.768555e-03  0 
 4.428848e-03  -1.991563e-03  0 
 5.281529e-03  -2.401437e-03  0 
 6.212502e-03  -2.965635e-03  0 
 7.199423e-03  -3.650462e-03  0 
 8.285397e-03  -4.453511e-03  0 
 9.638149e-03  -5.454394e-03  0 
 1.170955e-02  -6.891874e-03  0 
 5.543785e-03  -2.735923e-03  0 
 6.866149e-03  -3.193662e-03  0 
 8.306502e-03  -3.931864e-03  0 
 9.798233e-03  -4.861647e-03  0 
 1.131576e-02  -5.929650e-03  0 
 1.292339e-02  -7.147945e-03  0 
 1.479960e-02  -8.588505e-03  0 
 1.710760e-02  -1.020836e-02  0 
 7.455451e-03  -3.867870e-03  0 
 9.548013e-03  -4.640921e-03  0 
 1.167536e-02  -5.747541e-03  0 
 1.373390e-02  -7.028683e-03  0 
 1.572139e-02  -8.392950e-03  0 
 1.773093e-02  -9.859013e-03  0 
 1.984774e-02  -1.144227e-02  0 
 2.212248e-02  -1.306790e-02  0 
 9.572303e-03  -5.267616e-03  0 
 1.260476e-02  -6.443727e-03  0 
 1.546235e-02  -7.917187e-03  0 
 1.797935e-02  -9.419760e-03  0 
 2.030313e-02  -1.092648e-02  0 
 2.254558e-02  -1.243222e-02  0 
 2.475603e-02  -1.393909e-02  0 
 2.693748e-02  -1.547392e-02  0 
 1.206953e-02  -7.148031e-03  0 
 1.624091e-02  -8.900943e-03  0 
 1.962365e-02  -1.039766e-02  0 
 2.246523e-02  -1.191299e-02  0 
 2.497502e-02  -1.344520e-02  0 
 2.723526e-02  -1.480273e-02  0 
 2.948637e-02  -1.608880e-02  0 
 3.169186e-02  -1.741167e-02  0 
 1.569965e-02  -1.066062e-02  0 
 2.021634e-02  -1.202824e-02  0 
 2.380406e-02  -1.299567e-02  0 
 2.741184e-02  -1.442881e-02  0 
 2.953209e-02  -1.576603e-02  0 
 3.174451e-02  -1.686120e-02  0 
 3.396471e-02  -1.802455e-02  0 
 3.636168e-02  -1.903801e-02  0 
 3.193077e-02  -1.686746e-02  0 
 3.371911e-02  -1.770602e-02  0 
 3.606930e-02  -1.868015e-02  0 
 3.834525e-02  -1.952148e-02  0 
 4.058127e-02  -2.089525e-02  0 
VECTORS displacement_ITER6 FLOAT
 0  0  0 
 0  0  0 
 1.804019e-03  -9.480609e-04  0 
 3.107523e-03  -1.806925e-03  0 
 4.191884e-03  -2.634558e-03  0 
 5.206791e-03  -3.437462e-03  0 
 6.275023e-03  -4.303121e-03  0 
 7.474509e-03  -5.379237e-03  0 
 8.845496e-03  -6.711901e-03  0 
 9.770438e-20  -2.900429e-20  0 
 0  0  0 
 8.471889e-03  -4.630905e-03  0 
 1.439943e-02  -8.249916e-03  0 
 1.948005e-02  -1.133291e-02  0 
 2.416886e-02  -1.397973e-02  0 
 2.866126e-02  -1.620369e-02  0 
 3.316215e-02  -1.793739e-02  0 
 3.815864e-02  -1.917242e-02  0 
 4.502068e-02  -2.136754e-02  0 
 0  0  0 
 0  0  0 
 0  0  0 
 0  0  0 
 0  0  0 
 0  0  0 
 0  0  0 
 0  0  0 
 7.871629e-04  -4.251105e-04  0 
 1.153828e-03  -5.881206e-04  0 
 1.750691e-03  -1.283299e-03  0 
 2.363689e-03  -1.495725e-03  0 
 2.772176e-03  -2.188328e-03  0 
 3.423330e-03  -2.367847e-03  0 
 3.655924e-03  -3.006520e-03  0 
 4.375324e-03  -3.170073e-03  0 
 4.280034e-03  -3.874137e-03  0 
 5.271231e-03  -4.016938e-03  0 
 4.798638e-03  -4.917157e-03  0 
 6.147923e-03  -5.061013e-03  0 
 7.178202e-03  -6.373047e-03  0 
 1.858891e-03  -8.610718e-04  0 
 2.140537e-03  -8.701251e-04  0 
 2.508877e-03  -9.990147e-04  0 
 2.929396e-03  -1.228651e-03  0 
 3.390235e-03  -1.532271e-03  0 
 3.908531e-03  -1.890283e-03  0 
 4.564991e-03  -2.314933e-03  0 
 5.611604e-03  -2.954084e-03  0 
 3.637836e-03  -1.674813e-03  0 
 4.357325e-03  -1.822486e-03  0 
 5.213525e-03  -2.180995e-03  0 
 6.141032e-03  -2.714218e-03  0 
 7.115737e-03  -3.384953e-03  0 
 8.178097e-03  -4.185275e-03  0 
 9.490498e-03  -5.186161e-03  0 
 1.148887e-02  -6.612851e-03  0 
 5.369640e-03  -2.569780e-03  0 
 6.718130e-03  -2.919459e-03  0 
 8.177235e-03  -3.580316e-03  0 
 9.678856e-03  -4.459580e-03  0 
 1.119137e-02  -5.501533e-03  0 
 1.277359e-02  -6.712592e-03  0 
 1.459896e-02  -8.153409e-03  0 
 1.682492e-02  -9.770233e-03  0 
 7.177478e-03  -3.588027e-03  0 
 9.306060e-03  -4.241564e-03  0 
 1.146838e-02  -5.254891e-03  0 
 1.355844e-02  -6.464640e-03  0 
 1.556144e-02  -7.786526e-03  0 
 1.755800e-02  -9.242698e-03  0 
 1.962813e-02  -1.083987e-02  0 
 2.181962e-02  -1.248172e-02  0 
 9.202542e-03  -4.818308e-03  0 
 1.227128e-02  -5.894680e-03  0 
 1.516296e-02  -7.280693e-03  0 
 1.773403e-02  -8.694793e-03  0 
 2.011127e-02  -1.013218e-02  0 
 2.238617e-02  -1.162636e-02  0 
 2.457274e-02  -1.317380e-02  0 
 2.665690e-02  -1.474842e-02  0 
 1.163512e-02  -6.484905e-03  0 
 1.585919e-02  -8.139576e-03  0 
 1.923701e-02  -9.627275e-03  0 
 2.210158e-02  -1.104594e-02  0 
 2.474220e-02  -1.247089e-02  0 
 2.715650e-02  -1.383006e-02  0 
 2.941736e-02  -1.515528e-02  0 
 3.147654e-02  -1.652349e-02  0 
 1.519449e-02  -9.717982e-03  0 
 1.982561e-02  -1.105759e-02  0 
 2.349183e-02  -1.194889e-02  0 
 2.672924e-02  -1.345770e-02  0 
 2.931333e-02  -1.476131e-02  0 
 3.180552e-02  -1.580922e-02  0 
 3.407147e-02  -1.687928e-02  0 
 3.627511e-02  -1.787499e-02  0 
 3.068347e-02  -1.660121e-02  0 
 3.361249e-02  -1.697654e-02  0 
 3.621561e-02  -1.762255e-02  0 
 3.859237e-02  -1.815414e-02  0 
 4.070690e-02  -1.922417e-02  0 
VECTORS displacement_ITER7 FLOAT
 0  0  0 
 0  0  0 
 1.807317e-03  -9.346386e-04  0 
 3.132564e-03  -1.768319e-03  0 
 4.259646e-03  -2.590639e-03  0 
 5.318677e-03  -3.426983e-03  0 
 6.415242e-03  -4.357205e-03  0 
 7.628478e-03  -5.507757e-03  0 
 9.023360e-03  -6.928114e-03  0 
 9.014271e-20  -2.621107e-20  0 
 0  0  0 
 8.508287e-03  -4.641725e-03  0 
 1.447351e-02  -8.269218e-03  0 
 1.959668e-02  -1.136697e-02  0 
 2.432900e-02  -1.403882e-02  0 
 2.885315e-02  -1.629599e-02  0 
 3.334588e-02  -1.805507e-02  0 
 3.822837e-02  -1.924391e-02  0 
 4.474274e-02  -2.100572e-02  0 
 0  0  0 
 0  0  0 
 0  0  0 
 0  0  0 
 0  0  0 
 0  0  0 
 0  0  0 
 0  0  0 
 8.497212e-04  -4.118809e-04  0 
 1.175822e-03  -5.737906e-04  0 
 1.824558e-03  -1.227951e-03  0 
 2.403460e-03  -1.446838e-03  0 
 2.815365e-03  -2.119719e-03  0 
 3.477685e-03  -2.309399e-03  0 
 3.662783e-03  -2.983403e-03  0 
 4.441057e-03  -3.150566e-03  0 
 4.278384e-03  -3.934077e-03  0 
 5.343403e-03  -4.069719e-03  0 
 4.794420e-03  -5.063424e-03  0 
 6.223984e-03  -5.194369e-03  0 
 7.240919e-03  -6.591557e-03  0 
 1.869954e-03  -8.495516e-04  0 
 2.156878e-03  -8.633389e-04  0 
 2.527824e-03  -9.945594e-04  0 
 2.948815e-03  -1.224474e-03  0 
 3.409576e-03  -1.527694e-03  0 
 3.928948e-03  -1.885882e-03  0 
 4.588528e-03  -2.312254e-03  0 
 5.640105e-03  -2.955694e-03  0 
 3.668429e-03  -1.660358e-03  0 
 4.393546e-03  -1.816505e-03  0 
 5.251659e-03  -2.175062e-03  0 
 6.178866e-03  -2.705542e-03  0 
 7.153746e-03  -3.375250e-03  0 
 8.219540e-03  -4.178211e-03  0 
 9.539969e-03  -5.185188e-03  0 
 1.155043e-02  -6.620961e-03  0 
 5.429377e-03  -2.563892e-03  0 
 6.773043e-03  -2.921488e-03  0 
 8.229475e-03  -3.574174e-03  0 
 9.731319e-03  -4.443582e-03  0 
 1.124801e-02  -5.484242e-03  0 
 1.283887e-02  -6.704341e-03  0 
 1.467777e-02  -8.159581e-03  0 
 1.692172e-02  -9.790923e-03  0 
 7.264472e-03  -3.606451e-03  0 
 9.368085e-03  -4.257865e-03  0 
 1.151924e-02  -5.248088e-03  0 
 1.361713e-02  -6.436855e-03  0 
 1.563959e-02  -7.758160e-03  0 
 1.765563e-02  -9.234072e-03  0 
 1.974333e-02  -1.085988e-02  0 
 2.195429e-02  -1.252563e-02  0 
 9.304699e-03  -4.868357e-03  0 
 1.231320e-02  -5.924800e-03  0 
 1.518077e-02  -7.272372e-03  0 
 1.778571e-02  -8.659360e-03  0 
 2.021692e-02  -1.009326e-02  0 
 2.253532e-02  -1.161595e-02  0 
 2.474155e-02  -1.321256e-02  0 
 2.683099e-02  -1.482556e-02  0 
 1.173010e-02  -6.543137e-03  0 
 1.584360e-02  -8.135158e-03  0 
 1.919130e-02  -9.636711e-03  0 
 2.212110e-02  -1.103609e-02  0 
 2.487533e-02  -1.243685e-02  0 
 2.739067e-02  -1.381947e-02  0 
 2.967521e-02  -1.520098e-02  0 
 3.169172e-02  -1.662649e-02  0 
 1.517326e-02  -9.593540e-03  0 
 1.977488e-02  -1.095327e-02  0 
 2.345426e-02  -1.198769e-02  0 
 2.660074e-02  -1.357307e-02  0 
 2.948588e-02  -1.479884e-02  0 
 3.214276e-02  -1.582427e-02  0 
 3.446815e-02  -1.687922e-02  0 
 3.656032e-02  -1.793132e-02  0 
 3.053870e-02  -1.687712e-02  0 
 3.385939e-02  -1.716975e-02  0 
 3.663179e-02  -1.769847e-02  0 
 3.911241e-02  -1.811257e-02  0 
 4.116678e-02  -1.899956e-02  0 
VECTORS displacement_ITER8 FLOAT
 0  0  0 
 0  0  0 
 1.828765e-03  -9.370066e-04  0 
 3.183970e-03  -1.769922e-03  0 
 4.352423e-03  -2.608760e-03  0 
 5.451012e-03  -3.487848e-03  0 
 6.574761e-03  -4.478728e-03  0 
 7.807211e-03  -5.692128e-03  0 
 9.239480e-03  -7.179452e-03  0 
 1.005519e-19  -6.325962e-21  0 
 0  0  0 
 8.516429e-03  -4.648094e-03  0 
 1.449146e-02  -8.299562e-03  0 
 1.962181e-02  -1.144227e-02  0 
 2.435094e-02  -1.418112e-02  0 
 2.884488e-02  -1.652686e-02  0 
 3.323581e-02  -1.838343e-02  0 
 3.781543e-02  -1.959039e-02  0 
 4.353721e-02  -2.064562e-02  0 
 0  0  0 
 0  0  0 
 0  0  0 
 0  0  0 
 0  0  0 
 0  0  0 
 0  0  0 
 0  0  0 
 8.902977e-04  -4.115270e-04  0 
 1.198613e-03  -5.716166e-04  0 
 1.874581e-03  -1.211490e-03  0 
 2.447693e-03  -1.437499e-03  0 
 2.852578e-03  -2.112499e-03  0 
 3.542558e-03  -2.313694e-03  0 
 3.689097e-03  -3.027634e-03  0 
 4.525282e-03  -3.201936e-03  0 
 4.315406e-03  -4.053530e-03  0 
 5.443354e-03  -4.187413e-03  0 
 4.839513e-03  -5.259204e-03  0 
 6.335846e-03  -5.381255e-03  0 
 7.355251e-03  -6.846586e-03  0 
 1.869273e-03  -8.751434e-04  0 
 2.145743e-03  -8.970171e-04  0 
 2.508213e-03  -1.027419e-03  0 
 2.922275e-03  -1.251637e-03  0 
 3.379688e-03  -1.547445e-03  0 
 3.901376e-03  -1.898789e-03  0 
 4.569288e-03  -2.320175e-03  0 
 5.633599e-03  -2.961108e-03  0 
 3.676885e-03  -1.706995e-03  0 
 4.371622e-03  -1.877856e-03  0 
 5.206661e-03  -2.232418e-03  0 
 6.117502e-03  -2.752221e-03  0 
 7.086036e-03  -3.412731e-03  0 
 8.158371e-03  -4.210786e-03  0 
 9.497607e-03  -5.215678e-03  0 
 1.153569e-02  -6.650354e-03  0 
 5.445918e-03  -2.638553e-03  0 
 6.731380e-03  -3.007083e-03  0 
 8.146551e-03  -3.645640e-03  0 
 9.625528e-03  -4.498680e-03  0 
 1.113917e-02  -5.536051e-03  0 
 1.274459e-02  -6.765200e-03  0 
 1.461187e-02  -8.230523e-03  0 
 1.689598e-02  -9.865674e-03  0 
 7.272385e-03  -3.720603e-03  0 
 9.278238e-03  -4.365708e-03  0 
 1.137048e-02  -5.320516e-03  0 
 1.345522e-02  -6.487673e-03  0 
 1.549726e-02  -7.822983e-03  0 
 1.754088e-02  -9.334413e-03  0 
 1.965774e-02  -1.099136e-02  0 
 2.191089e-02  -1.266921e-02  0 
 9.270857e-03  -5.026712e-03  0 
 1.211210e-02  -6.045523e-03  0 
 1.491451e-02  -7.330869e-03  0 
 1.756174e-02  -8.709954e-03  0 
 2.006601e-02  -1.018304e-02  0 
 2.242891e-02  -1.176375e-02  0 
 2.464679e-02  -1.341600e-02  0 
 2.675658e-02  -1.505957e-02  0 
 1.160590e-02  -6.694603e-03  0 
 1.541111e-02  -8.210151e-03  0 
 1.875540e-02  -9.709966e-03  0 
 2.185190e-02  -1.114750e-02  0 
 2.474516e-02  -1.259206e-02  0 
 2.732155e-02  -1.400311e-02  0 
 2.960562e-02  -1.545322e-02  0 
 3.157438e-02  -1.695643e-02  0 
 1.475378e-02  -9.342179e-03  0 
 1.913514e-02  -1.088154e-02  0 
 2.283501e-02  -1.228422e-02  0 
 2.630032e-02  -1.392695e-02  0 
 2.935895e-02  -1.503813e-02  0 
 3.210414e-02  -1.603483e-02  0 
 3.449934e-02  -1.711397e-02  0 
 3.644178e-02  -1.826641e-02  0 
 3.076478e-02  -1.676258e-02  0 
 3.370510e-02  -1.740641e-02  0 
 3.664281e-02  -1.801837e-02  0 
 3.923309e-02  -1.838018e-02  0 
 4.120227e-02  -1.902905e-02  0 
VECTORS displacement_ITER9 FLOAT
 0  0  0 
 0  0  0 
 1.816970e-03  -9.417637e-04  0 
 3.152775e-03  -1.786213e-03  0 
 4.294761e-03  -2.630573e-03  0 
 5.361038e-03  -3.494218e-03  0 
 6.451736e-03  -4.437873e-03  0 
 7.663914e-03  -5.572281e-03  0 
 9.110502e-03  -6.978395e-03  0 
 8.843538e-20  6.560173e-22  0 
 0  0  0 
 8.449941e-03  -4.586695e-03  0 
 1.441317e-02  -8.181618e-03  0 
 1.956750e-02  -1.128426e-02  0 
 2.434723e-02  -1.400723e-02  0 
 2.890741e-02  -1.636642e-02  0 
 3.335347e-02  -1.826234e-02  0 
 3.790051e-02  -1.948258e-02  0 
 4.334529e-02  -2.009254e-02  0 
 0  0  0 
 0  0  0 
 0  0  0 
 0  0  0 
 0  0  0 
 0  0  0 
 0  0  0 
 0  0  0 
 8.600908e-04  -4.387194e-04  0 
 1.179567e-03  -5.826577e-04  0 
 1.822537e-03  -1.242110e-03  0 
 2.407146e-03  -1.460769e-03  0 
 2.793179e-03  -2.140271e-03  0 
 3.488634e-03  -2.341252e-03  0 
 3.646079e-03  -3.041521e-03  0 