# vtk DataFile Version 3.1
this is an vtk file created by FEMAC
ASCII
DATASET UNSTRUCTURED_GRID
POINTS 103 FLOAT
2.000000 2.000000 0.000000
1.111111 2.000000 0.000000
1.222222 2.000000 0.000000
1.333333 2.000000 0.000000
1.444444 2.000000 0.000000
1.555556 2.000000 0.000000
1.666667 2.000000 0.000000
1.777778 2.000000 0.000000
1.888889 2.000000 0.000000
2.000000 1.444444 0.000000
2.000000 1.555556 0.000000
2.000000 1.666667 0.000000
2.000000 1.777778 0.000000
2.000000 1.888889 0.000000
2.000000 2.111111 0.000000
2.111111 2.000000 0.000000
2.222222 2.000000 0.000000
2.333333 2.000000 0.000000
2.444444 2.000000 0.000000
2.555556 2.000000 0.000000
2.666667 2.000000 0.000000
2.777778 2.000000 0.000000
1.111111 1.777778 0.000000
1.111111 1.888889 0.000000
1.222222 1.555556 0.000000
1.222222 1.666667 0.000000
1.222222 1.777778 0.000000
1.222222 1.888889 0.000000
1.333333 1.555556 0.000000
1.333333 1.666667 0.000000
1.333333 1.777778 0.000000
1.333333 1.888889 0.000000
1.444444 1.555556 0.000000
1.444444 1.666667 0.000000
1.444444 1.777778 0.000000
1.444444 1.888889 0.000000
1.555556 1.555556 0.000000
1.555556 1.666667 0.000000
1.555556 1.777778 0.000000
1.555556 1.888889 0.000000
1.666667 1.555556 0.000000
1.666667 1.666667 0.000000
1.666667 1.777778 0.000000
1.666667 1.888889 0.000000
1.777778 1.444444 0.000000
1.777778 1.555556 0.000000
1.777778 1.666667 0.000000
1.777778 1.777778 0.000000
1.777778 1.888889 0.000000
1.888889 1.444444 0.000000
1.888889 1.555556 0.000000
1.888889 1.666667 0.000000
1.888889 1.777778 0.000000
1.888889 1.888889 0.000000
1.111111 2.111111 0.000000
1.222222 2.111111 0.000000
1.333333 2.111111 0.000000
1.444444 2.111111 0.000000
1.555556 2.111111 0.000000
1.666667 2.111111 0.000000
1.777778 2.111111 0.000000
1.888889 2.111111 0.000000
2.111111 1.444444 0.000000
2.111111 1.555556 0.000000
2.111111 1.666667 0.000000
2.111111 1.777778 0.000000
2.111111 1.888889 0.000000
2.222222 1.444444 0.000000
2.222222 1.555556 0.000000
2.222222 1.666667 0.000000
2.222222 1.777778 0.000000
2.222222 1.888889 0.000000
2.333333 1.444444 0.000000
2.333333 1.555556 0.000000
2.333333 1.666667 0.000000
2.333333 1.777778 0.000000
2.333333 1.888889 0.000000
2.444444 1.444444 0.000000
2.444444 1.555556 0.000000
2.444444 1.666667 0.000000
2.444444 1.777778 0.000000
2.444444 1.888889 0.000000
2.555556 1.444444 0.000000
2.555556 1.555556 0.000000
2.555556 1.666667 0.000000
2.555556 1.777778 0.000000
2.555556 1.888889 0.000000
2.666667 1.444444 0.000000
2.666667 1.555556 0.000000
2.666667 1.666667 0.000000
2.666667 1.777778 0.000000
2.666667 1.888889 0.000000
2.777778 1.444444 0.000000
2.777778 1.555556 0.000000
2.777778 1.666667 0.000000
2.777778 1.777778 0.000000
2.777778 1.888889 0.000000
2.111111 2.111111 0.000000
2.222222 2.111111 0.000000
2.333333 2.111111 0.000000
2.444444 2.111111 0.000000
2.555556 2.111111 0.000000
2.666667 2.111111 0.000000
CELLS 81 405 
4 22 26 27 23
4 23 27  2  1
4 24 28 29 25
4 25 29 30 26
4 26 30 31 27
4 27 31  3  2
4 28 32 33 29
4 29 33 34 30
4 30 34 35 31
4 31 35  4  3
4 32 36 37 33
4 33 37 38 34
4 34 38 39 35
4 35 39  5  4
4 36 40 41 37
4 37 41 42 38
4 38 42 43 39
4 39 43  6  5
4 40 45 46 41
4 41 46 47 42
4 42 47 48 43
4 43 48  7  6
4 44 49 50 45
4 45 50 51 46
4 46 51 52 47
4 47 52 53 48
4 48 53  8  7
4 49  9 10 50
4 50 10 11 51
4 51 11 12 52
4 52 12 13 53
4 53 13  0  8
4 1  2 55 54
4 2  3 56 55
4 3  4 57 56
4 4  5 58 57
4 5  6 59 58
4 6  7 60 59
4 7  8 61 60
4 8  0 14 61
4 9 62 63 10
4 10 63 64 11
4 11 64 65 12
4 12 65 66 13
4 13 66 15  0
4 62 67 68 63
4 63 68 69 64
4 64 69 70 65
4 65 70 71 66
4 66 71 16 15
4 67 72 73 68
4 68 73 74 69
4 69 74 75 70
4 70 75 76 71
4 71 76 17 16
4 72 77 78 73
4 73 78 79 74
4 74 79 80 75
4 75 80 81 76
4 76 81 18 17
4 77 82 83 78
4 78 83 84 79
4 79 84 85 80
4 80 85 86 81
4 81 86 19 18
4 82 87 88 83
4 83 88 89 84
4 84 89 90 85
4 85 90 91 86
4 86 91 20 19
4 87 92 93 88
4 88 93 94 89
4 89 94 95 90
4 90 95 96 91
4 91 96 21 20
4 0 15 97 14
4 15 16 98 97
4 16 17 99 98
4 17  18 100  99
4 18  19 101 100
4 19  20 102 101
CELL_TYPES 81
9 9 9 9 9 9 9 9 9 9 9 9 9 9 9 9 9 9 9 9 9 9 9 9 9 9 9 9 9 9 9 9 9 9 9 9 9 9 9 9 9 9 9 9 9 9 9 9 9 9 9 9 9 9 9 9 9 9 9 9 9 9 9 9 9 9 9 9 9 9 9 9 9 9 9 9 9 9 9 9 9 
POINT_DATA 103
VECTORS displacement_ITER1 FLOAT
 -7.600494e-03  -3.002339e-02  0 
 -2.473738e-03  -9.250935e-03  0 
 -2.375588e-03  -1.173366e-02  0 
 -2.324229e-03  -1.437420e-02  0 
 -2.399184e-03  -1.706674e-02  0 
 -2.651404e-03  -1.975146e-02  0 
 -3.122581e-03  -2.240644e-02  0 
 -3.858628e-03  -2.501552e-02  0 
 -5.019140e-03  -2.752579e-02  0 
 -1.317299e-02  -2.879194e-02  0 
 -1.141440e-02  -2.858530e-02  0 
 -9.757206e-03  -2.863969e-02  0 
 -8.181242e-03  -2.878191e-02  0 
 -6.935712e-03  -2.897617e-02  0 
 -3.558096e-03  -3.126560e-02  0 
 -1.049653e-02  -3.762720e-02  0 
 -1.168879e-02  -4.526609e-02  0 
 -1.179108e-02  -5.137587e-02  0 
 -1.148431e-02  -5.479057e-02  0 
 -1.122134e-02  -5.568255e-02  0 
 -1.121706e-02  -5.500246e-02  0 
 -1.411458e-02  -5.693507e-02  0 
 -7.401271e-03  -9.060636e-03  0 
 -4.896868e-03  -9.153040e-03  0 
 -1.172669e-02  -1.160389e-02  0 
 -9.751141e-03  -1.168168e-02  0 
 -7.410144e-03  -1.167536e-02  0 
 -4.886375e-03  -1.171839e-02  0 
 -1.208065e-02  -1.396483e-02  0 
 -9.793946e-03  -1.414509e-02  0 
 -7.404712e-03  -1.431698e-02  0 
 -4.910446e-03  -1.436930e-02  0 
 -1.234335e-02  -1.663785e-02  0 
 -9.839290e-03  -1.690113e-02  0 
 -7.444339e-03  -1.704437e-02  0 
 -4.991726e-03  -1.708611e-02  0 
 -1.241182e-02  -1.972538e-02  0 
 -9.903130e-03  -1.978545e-02  0 
 -7.584443e-03  -1.984622e-02  0 
 -5.205125e-03  -1.982625e-02  0 
 -1.206152e-02  -2.231971e-02  0 
 -9.938891e-03  -2.255567e-02  0 
 -7.839606e-03  -2.258709e-02  0 
 -5.598984e-03  -2.253828e-02  0 
 -1.286539e-02  -2.484766e-02  0 
 -1.157487e-02  -2.481001e-02  0 
 -9.894233e-03  -2.491635e-02  0 
 -8.132568e-03  -2.511655e-02  0 
 -6.179440e-03  -2.516705e-02  0 
 -1.308263e-02  -2.672761e-02  0 
 -1.142865e-02  -2.674304e-02  0 
 -9.812721e-03  -2.689160e-02  0 
 -8.207499e-03  -2.716246e-02  0 
 -6.905034e-03  -2.766550e-02  0 
 -1.292267e-02  -1.462719e-02  0 
 -4.803324e-03  -1.288023e-02  0 
 -1.366950e-03  -1.599621e-02  0 
 -1.146608e-03  -1.819666e-02  0 
 -1.502821e-03  -2.108340e-02  0 
 -2.440973e-03  -2.276193e-02  0 
 -4.943272e-03  -2.603069e-02  0 
 -8.894034e-03  -3.010090e-02  0 
 -1.700249e-02  -3.606528e-02  0 
 -1.349419e-02  -3.551114e-02  0 
 -1.152533e-02  -3.568751e-02  0 
 -1.025508e-02  -3.619572e-02  0 
 -9.753261e-03  -3.687218e-02  0 
 -1.851972e-02  -4.272227e-02  0 
 -1.517361e-02  -4.221657e-02  0 
 -1.286509e-02  -4.205958e-02  0 
 -1.158129e-02  -4.250061e-02  0 
 -1.128313e-02  -4.348521e-02  0 
 -1.914065e-02  -4.842913e-02  0 
 -1.623388e-02  -4.796992e-02  0 
 -1.383317e-02  -4.765635e-02  0 
 -1.225222e-02  -4.787391e-02  0 
 -1.162268e-02  -4.898727e-02  0 
 -1.957696e-02  -5.340455e-02  0 
 -1.692327e-02  -5.296826e-02  0 
 -1.448137e-02  -5.253953e-02  0 
 -1.253080e-02  -5.237641e-02  0 
 -1.139992e-02  -5.298113e-02  0 
 -2.003097e-02  -5.795245e-02  0 
 -1.745099e-02  -5.754452e-02  0 
 -1.503393e-02  -5.695520e-02  0 
 -1.300437e-02  -5.620081e-02  0 
 -1.137726e-02  -5.553460e-02  0 
 -2.066784e-02  -6.254570e-02  0 
 -1.785547e-02  -6.209894e-02  0 
 -1.582744e-02  -6.095783e-02  0 
 -1.398131e-02  -5.957365e-02  0 
 -1.250980e-02  -5.781774e-02  0 
 -2.090383e-02  -6.849509e-02  0 
 -1.872717e-02  -6.616717e-02  0 
 -1.696191e-02  -6.455978e-02  0 
 -1.537847e-02  -6.271733e-02  0 
 -1.421839e-02  -6.032263e-02  0 
 -3.251233e-03  -3.717635e-02  0 
 -4.850050e-03  -4.502843e-02  0 
 -7.183264e-03  -5.114812e-02  0 
 -9.544242e-03  -5.459124e-02  0 
 -1.135560e-02  -5.552501e-02  0 
 -1.248004e-02  -5.471439e-02  0 
VECTORS displacement_ITER2 FLOAT
 -7.821042e-03  -2.740610e-02  0 
 -2.975429e-03  -1.044867e-02  0 
 -2.859227e-03  -1.221851e-02  0 
 -2.738197e-03  -1.413693e-02  0 
 -2.725067e-03  -1.617402e-02  0 
 -2.877810e-03  -1.828953e-02  0 
 -3.246994e-03  -2.046293e-02  0 
 -3.904016e-03  -2.268220e-02  0 
 -5.066528e-03  -2.491058e-02  0 
 -1.150681e-02  -2.581503e-02  0 
 -1.004731e-02  -2.560096e-02  0 
 -8.635232e-03  -2.556579e-02  0 
 -7.431363e-03  -2.566540e-02  0 
 -6.647358e-03  -2.596134e-02  0 
 -7.824105e-03  -2.913907e-02  0 
 -1.092452e-02  -3.147875e-02  0 
 -1.243071e-02  -3.557934e-02  0 
 -1.320765e-02  -3.925202e-02  0 
 -1.376960e-02  -4.211051e-02  0 
 -1.422144e-02  -4.439884e-02  0 
 -1.453465e-02  -4.631817e-02  0 
 -1.487242e-02  -4.878334e-02  0 
 -6.332682e-03  -1.043226e-02  0 
 -4.696827e-03  -1.041949e-02  0 
 -9.656676e-03  -1.189104e-02  0 
 -8.222325e-03  -1.204172e-02  0 
 -6.452073e-03  -1.211985e-02  0 
 -4.660581e-03  -1.218803e-02  0 
 -9.934870e-03  -1.374762e-02  0 
 -8.263174e-03  -1.392325e-02  0 
 -6.502546e-03  -1.406896e-02  0 
 -4.658734e-03  -1.411428e-02  0 
 -1.019773e-02  -1.582184e-02  0 
 -8.377058e-03  -1.602913e-02  0 
 -6.591344e-03  -1.614701e-02  0 
 -4.726555e-03  -1.618019e-02  0 
 -1.031377e-02  -1.811317e-02  0 
 -8.518767e-03  -1.826677e-02  0 
 -6.774333e-03  -1.834806e-02  0 
 -4.918137e-03  -1.834415e-02  0 
 -1.019366e-02  -2.022356e-02  0 
 -8.649436e-03  -2.046546e-02  0 
 -7.056137e-03  -2.058192e-02  0 
 -5.285268e-03  -2.057173e-02  0 
 -1.151939e-02  -2.202773e-02  0 
 -1.007281e-02  -2.222454e-02  0 
 -8.682908e-03  -2.243704e-02  0 
 -7.374612e-03  -2.272459e-02  0 
 -5.862869e-03  -2.281969e-02  0 
 -1.154838e-02  -2.403726e-02  0 
 -1.000539e-02  -2.399761e-02  0 
 -8.655937e-03  -2.411995e-02  0 
 -7.460377e-03  -2.443542e-02  0 
 -6.641580e-03  -2.503981e-02  0 
 -6.972125e-03  -9.714047e-03  0 
 -2.837879e-03  -1.263996e-02  0 
 -6.449378e-04  -1.525332e-02  0 
 -6.119764e-04  -1.681635e-02  0 
 -9.595926e-04  -1.920655e-02  0 
 -1.499698e-03  -2.083091e-02  0 
 -3.846151e-03  -2.378981e-02  0 
 -7.638966e-03  -2.677047e-02  0 
 -1.641683e-02  -3.228792e-02  0 
 -1.284458e-02  -3.114714e-02  0 
 -1.097224e-02  -3.086676e-02  0 
 -9.794169e-03  -3.090985e-02  0 
 -9.471673e-03  -3.115426e-02  0 
 -1.887030e-02  -3.778107e-02  0 
 -1.557271e-02  -3.666908e-02  0 
 -1.320484e-02  -3.579430e-02  0 
 -1.185254e-02  -3.539395e-02  0 
 -1.156885e-02  -3.526435e-02  0 
 -2.066990e-02  -4.244930e-02  0 
 -1.776621e-02  -4.134276e-02  0 
 -1.529483e-02  -4.025434e-02  0 
 -1.361586e-02  -3.944935e-02  0 
 -1.292732e-02  -3.905998e-02  0 
 -2.241740e-02  -4.662726e-02  0 
 -1.968934e-02  -4.548744e-02  0 
 -1.706422e-02  -4.432103e-02  0 
 -1.501883e-02  -4.326406e-02  0 
 -1.386934e-02  -4.247780e-02  0 
 -2.456334e-02  -5.073155e-02  0 
 -2.147590e-02  -4.955835e-02  0 
 -1.852933e-02  -4.837835e-02  0 
 -1.621789e-02  -4.695504e-02  0 
 -1.468182e-02  -4.552061e-02  0 
 -2.730375e-02  -5.540080e-02  0 
 -2.299017e-02  -5.425421e-02  0 
 -1.985441e-02  -5.265712e-02  0 
 -1.751513e-02  -5.069249e-02  0 
 -1.564125e-02  -4.846480e-02  0 
 -2.994884e-02  -6.274759e-02  0 
 -2.454042e-02  -5.972159e-02  0 
 -2.132438e-02  -5.697792e-02  0 
 -1.896669e-02  -5.442135e-02  0 
 -1.702222e-02  -5.190759e-02  0 
 -7.432438e-03  -3.106343e-02  0 
 -8.689481e-03  -3.535186e-02  0 
 -1.014338e-02  -3.898743e-02  0 
 -1.137023e-02  -4.187570e-02  0 
 -1.224425e-02  -4.422704e-02  0 
 -1.290234e-02  -4.615696e-02  0 
VECTORS displacement_ITER3 FLOAT
 -7.698988e-03  -2.790767e-02  0 
 -2.848474e-03  -9.897106e-03  0 
 -2.741154e-03  -1.169871e-02  0 
 -2.628306e-03  -1.364663e-02  0 
 -2.606301e-03  -1.572155e-02  0 
 -2.735048e-03  -1.789109e-02  0 
 -3.070475e-03  -2.014369e-02  0 
 -3.692974e-03  -2.248458e-02  0 
 -4.849131e-03  -2.491759e-02  0 
 -1.177935e-02  -2.573102e-02  0 
 -1.019421e-02  -2.552234e-02  0 
 -8.704775e-03  -2.550578e-02  0 
 -7.447288e-03  -2.566369e-02  0 
 -6.614888e-03  -2.610249e-02  0 
 -9.476745e-03  -3.001965e-02  0 
 -1.085589e-02  -3.057460e-02  0 
 -1.238049e-02  -3.298319e-02  0 
 -1.338410e-02  -3.533835e-02  0 
 -1.432404e-02  -3.777990e-02  0 
 -1.511811e-02  -4.068886e-02  0 
 -1.561353e-02  -4.392432e-02  0 
 -1.529250e-02  -4.734718e-02  0 
 -6.313479e-03  -9.858135e-03  0 
 -4.615615e-03  -9.856542e-03  0 
 -9.689019e-03  -1.140324e-02  0 
 -8.225693e-03  -1.154034e-02  0 
 -6.423868e-03  -1.160151e-02  0 
 -4.584429e-03  -1.166784e-02  0 
 -9.942825e-03  -1.327727e-02  0 
 -8.268964e-03  -1.344855e-02  0 
 -6.476648e-03  -1.358469e-02  0 
 -4.587470e-03  -1.362643e-02  0 
 -1.021579e-02  -1.537732e-02  0 
 -8.396306e-03  -1.557004e-02  0 
 -6.571753e-03  -1.569186e-02  0 
 -4.655445e-03  -1.572652e-02  0 
 -1.034848e-02  -1.761744e-02  0 
 -8.553469e-03  -1.783757e-02  0 
 -6.761292e-03  -1.793931e-02  0 
 -4.841246e-03  -1.794135e-02  0 
 -1.030318e-02  -1.984879e-02  0 
 -8.701568e-03  -2.010851e-02  0 
 -7.055868e-03  -2.025378e-02  0 
 -5.204585e-03  -2.025002e-02  0 
 -1.178684e-02  -2.169713e-02  0 
 -1.022151e-02  -2.193711e-02  0 
 -8.762033e-03  -2.219274e-02  0 
 -7.399381e-03  -2.252009e-02  0 
 -5.797762e-03  -2.262616e-02  0 
 -1.180262e-02  -2.383278e-02  0 
 -1.016083e-02  -2.381889e-02  0 
 -8.736925e-03  -2.398077e-02  0 
 -7.495236e-03  -2.435798e-02  0 
 -6.630389e-03  -2.504627e-02  0 
 -7.106947e-03  -1.125875e-02  0 
 -2.832740e-03  -1.195400e-02  0 
 -7.947752e-04  -1.442550e-02  0 
 -7.182201e-04  -1.616021e-02  0 
 -1.034569e-03  -1.852932e-02  0 
 -1.383978e-03  -2.040302e-02  0 
 -3.334748e-03  -2.309240e-02  0 
 -6.810816e-03  -2.515808e-02  0 
 -1.615702e-02  -3.245726e-02  0 
 -1.269591e-02  -3.097373e-02  0 
 -1.085858e-02  -3.041112e-02  0 
 -9.637465e-03  -3.021320e-02  0 
 -9.238096e-03  -3.030266e-02  0 
 -1.825798e-02  -3.754791e-02  0 
 -1.538898e-02  -3.610010e-02  0 
 -1.320092e-02  -3.481092e-02  0 
 -1.186063e-02  -3.393498e-02  0 
 -1.149224e-02  -3.325417e-02  0 
 -1.994525e-02  -4.152574e-02  0 
 -1.768961e-02  -4.012051e-02  0 
 -1.563102e-02  -3.862263e-02  0 
 -1.411532e-02  -3.724313e-02  0 
 -1.334387e-02  -3.609492e-02  0 
 -2.166838e-02  -4.476782e-02  0 
 -1.982512e-02  -4.341476e-02  0 
 -1.789412e-02  -4.191390e-02  0 
 -1.620755e-02  -4.039027e-02  0 
 -1.498905e-02  -3.897812e-02  0 
 -2.365279e-02  -4.757509e-02  0 
 -2.187601e-02  -4.633541e-02  0 
 -1.994277e-02  -4.501128e-02  0 
 -1.810030e-02  -4.346732e-02  0 
 -1.646998e-02  -4.194789e-02  0 
 -2.596721e-02  -5.026365e-02  0 
 -2.371251e-02  -4.928831e-02  0 
 -2.179377e-02  -4.806946e-02  0 
 -1.996108e-02  -4.663149e-02  0 
 -1.777313e-02  -4.502056e-02  0 
 -2.825519e-02  -5.403971e-02  0 
 -2.539770e-02  -5.235608e-02  0 
 -2.356686e-02  -5.091570e-02  0 
 -2.169862e-02  -4.969321e-02  0 
 -1.939542e-02  -4.878727e-02  0 
 -9.073705e-03  -3.020509e-02  0 
 -1.022202e-02  -3.279146e-02  0 
 -1.121797e-02  -3.507844e-02  0 
 -1.179164e-02  -3.755214e-02  0 
 -1.209108e-02  -4.053060e-02  0 
 -1.237977e-02  -4.389284e-02  0 
VECTORS displacement_ITER4 FLOAT
 -8.292369e-03  -2.760464e-02  0 
 -3.058949e-03  -9.497445e-03  0 
 -3.002530e-03  -1.137463e-02  0 
 -2.948506e-03  -1.334516e-02  0 
 -2.969612e-03  -1.541512e-02  0 
 -3.125267e-03  -1.756787e-02  0 
 -3.478709e-03  -1.980113e-02  0 
 -4.120785e-03  -2.212911e-02  0 
 -5.322969e-03  -2.456565e-02  0 
 -1.208887e-02  -2.532238e-02  0 
 -1.047614e-02  -2.508802e-02  0 
 -9.022791e-03  -2.506261e-02  0 
 -7.820424e-03  -2.522791e-02  0 
 -7.062501e-03  -2.569568e-02  0 
 -1.078629e-02  -2.981252e-02  0 
 -1.155857e-02  -2.974691e-02  0 
 -1.314367e-02  -3.164475e-02  0 
 -1.424538e-02  -3.370406e-02  0 
 -1.530018e-02  -3.619407e-02  0 
 -1.618152e-02  -3.948604e-02  0 
 -1.671717e-02  -4.331125e-02  0 
 -1.700745e-02  -4.728927e-02  0 
 -6.687162e-03  -9.471875e-03  0 
 -4.911125e-03  -9.472451e-03  0 
 -1.001332e-02  -1.113397e-02  0 
 -8.555769e-03  -1.126331e-02  0 
 -6.771933e-03  -1.130018e-02  0 
 -4.896412e-03  -1.135184e-02  0 
 -1.024124e-02  -1.299639e-02  0 
 -8.598643e-03  -1.316225e-02  0 
 -6.818200e-03  -1.329361e-02  0 
 -4.919986e-03  -1.333443e-02  0 
 -1.049963e-02  -1.507475e-02  0 
 -8.723782e-03  -1.526442e-02  0 
 -6.916475e-03  -1.539087e-02  0 
 -5.007744e-03  -1.542659e-02  0 
 -1.063027e-02  -1.725532e-02  0 
 -8.880463e-03  -1.750451e-02  0 
 -7.113144e-03  -1.761924e-02  0 
 -5.211594e-03  -1.762280e-02  0 
 -1.060314e-02  -1.947848e-02  0 
 -9.027905e-03  -1.975475e-02  0 
 -7.418582e-03  -1.991518e-02  0 
 -5.593275e-03  -1.991316e-02  0 
 -1.203724e-02  -2.128500e-02  0 
 -1.050396e-02  -2.153864e-02  0 
 -9.091419e-03  -2.181876e-02  0 
 -7.775313e-03  -2.216700e-02  0 
 -6.212190e-03  -2.227915e-02  0 
 -1.206743e-02  -2.339864e-02  0 
 -1.044614e-02  -2.339704e-02  0 
 -9.058748e-03  -2.357616e-02  0 
 -7.873623e-03  -2.397645e-02  0 
 -7.081509e-03  -2.469936e-02  0 
 -5.725791e-03  -1.147723e-02  0 
 -2.787270e-03  -1.164044e-02  0 
 -1.467599e-03  -1.397650e-02  0 
 -1.501741e-03  -1.586535e-02  0 
 -1.884414e-03  -1.813769e-02  0 
 -2.071395e-03  -2.026594e-02  0 
 -3.568889e-03  -2.262251e-02  0 
 -6.609017e-03  -2.435710e-02  0 
 -1.613486e-02  -3.217716e-02  0 
 -1.293823e-02  -3.061371e-02  0 
 -1.119210e-02  -2.992502e-02  0 
 -1.003133e-02  -2.960804e-02  0 
 -9.710244e-03  -2.958853e-02  0 
 -1.828395e-02  -3.727789e-02  0 
 -1.570128e-02  -3.569206e-02  0 
 -1.366104e-02  -3.424525e-02  0 
 -1.239365e-02  -3.316092e-02  0 
 -1.209963e-02  -3.221800e-02  0 
 -2.022679e-02  -4.127667e-02  0 
 -1.820268e-02  -3.968271e-02  0 
 -1.630464e-02  -3.799507e-02  0 
 -1.488739e-02  -3.635788e-02  0 
 -1.416884e-02  -3.487027e-02  0 
 -2.230372e-02  -4.455634e-02  0 
 -2.061170e-02  -4.299502e-02  0 
 -1.885408e-02  -4.128559e-02  0 
 -1.728295e-02  -3.949687e-02  0 
 -1.607928e-02  -3.775879e-02  0 
 -2.454063e-02  -4.736495e-02  0 
 -2.294739e-02  -4.593845e-02  0 
 -2.122445e-02  -4.441580e-02  0 
 -1.951457e-02  -4.267069e-02  0 
 -1.783074e-02  -4.092942e-02  0 
 -2.695049e-02  -4.992314e-02  0 
 -2.503894e-02  -4.881406e-02  0 
 -2.339920e-02  -4.746438e-02  0 
 -2.168267e-02  -4.596713e-02  0 
 -1.942064e-02  -4.437956e-02  0 
 -2.923400e-02  -5.332254e-02  0 
 -2.695527e-02  -5.156187e-02  0 
 -2.544570e-02  -5.020461e-02  0 
 -2.367313e-02  -4.913131e-02  0 
 -2.122564e-02  -4.845514e-02  0 
 -1.036773e-02  -2.939376e-02  0 
 -1.142518e-02  -3.146560e-02  0 
 -1.221288e-02  -3.345304e-02  0 
 -1.253957e-02  -3.597797e-02  0 
 -1.264374e-02  -3.933770e-02  0 
 -1.281345e-02  -4.331552e-02  0 
VECTORS displacement_ITER5 FLOAT
 -8.843585e-03  -2.816905e-02  0 
 -3.365456e-03  -9.173613e-03  0 
 -3.359098e-03  -1.122184e-02  0 
 -3.357991e-03  -1.332454e-02  0 
 -3.417257e-03  -1.549955e-02  0 
 -3.596132e-03  -1.774420e-02  0 
 -3.963145e-03  -2.006514e-02  0 
 -4.614774e-03  -2.248209e-02  0 
 -5.829669e-03  -2.501153e-02  0 
 -1.300290e-02  -2.583911e-02  0 
 -1.127684e-02  -2.559987e-02  0 
 -9.747049e-03  -2.557410e-02  0 
 -8.475418e-03  -2.574403e-02  0 
 -7.654212e-03  -2.622327e-02  0 
 -1.068489e-02  -3.036636e-02  0 
 -1.210710e-02  -3.101628e-02  0 
 -1.358866e-02  -3.352255e-02  0 
 -1.454225e-02  -3.601643e-02  0 
 -1.543828e-02  -3.872093e-02  0 
 -1.620696e-02  -4.201050e-02  0 
 -1.671809e-02  -4.571416e-02  0 
 -1.525376e-02  -4.864121e-02  0 
 -7.368397e-03  -9.143103e-03  0 
 -5.401174e-03  -9.151419e-03  0 
 -1.085471e-02  -1.104044e-02  0 
 -9.288338e-03  -1.115602e-02  0 
 -7.420861e-03  -1.116942e-02  0 
 -5.402500e-03  -1.120855e-02  0 
 -1.106490e-02  -1.298922e-02  0 
 -9.337787e-03  -1.315209e-02  0 
 -7.456660e-03  -1.328204e-02  0 
 -5.444823e-03  -1.332290e-02  0 
 -1.131201e-02  -1.514924e-02  0 
 -9.453930e-03  -1.535115e-02  0 
 -7.554484e-03  -1.548171e-02  0 
 -5.548212e-03  -1.551736e-02  0 
 -1.143874e-02  -1.743741e-02  0 
 -9.607614e-03  -1.768321e-02  0 
 -7.754456e-03  -1.780165e-02  0 
 -5.765683e-03  -1.780424e-02  0 
 -1.141290e-02  -1.973673e-02  0 
 -9.756295e-03  -2.002329e-02  0 
 -8.066295e-03  -2.018570e-02  0 
 -6.158864e-03  -2.018185e-02  0 
 -1.291102e-02  -2.163373e-02  0 
 -1.130318e-02  -2.188547e-02  0 
 -9.820636e-03  -2.217062e-02  0 
 -8.430319e-03  -2.252534e-02  0 
 -6.789329e-03  -2.263668e-02  0 
 -1.295253e-02  -2.381517e-02  0 
 -1.125106e-02  -2.382102e-02  0 
 -9.785554e-03  -2.400884e-02  0 
 -8.530595e-03  -2.441772e-02  0 
 -7.673733e-03  -2.515132e-02  0 
 -6.270164e-03  -1.226164e-02  0 
 -3.616145e-03  -1.154447e-02  0 
 -2.722904e-03  -1.381264e-02  0 
 -2.891249e-03  -1.587992e-02  0 
 -3.261194e-03  -1.814317e-02  0 
 -3.339567e-03  -2.053782e-02  0 
 -4.531503e-03  -2.288408e-02  0 
 -7.670227e-03  -2.442932e-02  0 
 -1.634858e-02  -3.258489e-02  0 
 -1.340306e-02  -3.134008e-02  0 
 -1.170414e-02  -3.081059e-02  0 
 -1.056945e-02  -3.061703e-02  0 
 -1.026366e-02  -3.071629e-02  0 
 -1.807442e-02  -3.779746e-02  0 
 -1.569659e-02  -3.653126e-02  0 
 -1.384329e-02  -3.538149e-02  0 
 -1.271273e-02  -3.453458e-02  0 
 -1.251709e-02  -3.382154e-02  0 
 -1.959669e-02  -4.197484e-02  0 
 -1.773804e-02  -4.066164e-02  0 
 -1.608476e-02  -3.928351e-02  0 
 -1.491462e-02  -3.795679e-02  0 
 -1.438014e-02  -3.679635e-02  0 
 -2.118805e-02  -4.538981e-02  0 
 -1.967955e-02  -4.406246e-02  0 
 -1.822499e-02  -4.260847e-02  0 
 -1.698668e-02  -4.114894e-02  0 
 -1.605735e-02  -3.981904e-02  0 
 -2.277015e-02  -4.817061e-02  0 
 -2.155007e-02  -4.694103e-02  0 
 -2.025076e-02  -4.559151e-02  0 
 -1.886660e-02  -4.412728e-02  0 
 -1.754406e-02  -4.291785e-02  0 
 -2.429567e-02  -5.034046e-02  0 
 -2.324383e-02  -4.940867e-02  0 
 -2.217776e-02  -4.826340e-02  0 
 -2.075437e-02  -4.709535e-02  0 
 -1.861366e-02  -4.587248e-02  0 
 -2.553628e-02  -5.238561e-02  0 
 -2.484126e-02  -5.121683e-02  0 
 -2.396676e-02  -5.049262e-02  0 
 -2.248561e-02  -4.992935e-02  0 
 -2.020319e-02  -4.966589e-02  0 
 -1.028688e-02  -3.069057e-02  0 
 -1.136016e-02  -3.336696e-02  0 
 -1.217969e-02  -3.579530e-02  0 
 -1.256568e-02  -3.853193e-02  0 
 -1.273196e-02  -4.187144e-02  0 
 -1.291700e-02  -4.572459e-02  0 
VECTORS displacement_ITER6 FLOAT
 -9.296181e-03  -2.634725e-02  0 
 -3.829205e-03  -1.008080e-02  0 
 -3.858014e-03  -1.183869e-02  0 
 -3.870410e-03  -1.360423e-02  0 
 -3.927129e-03  -1.543404e-02  0 
 -4.089580e-03  -1.734237e-02  0 
 -4.432836e-03  -1.933800e-02  0 
 -5.066658e-03  -2.143711e-02  0 
 -6.281218e-03  -2.363588e-02  0 
 -1.219637e-02  -2.441213e-02  0 
 -1.067453e-02  -2.414239e-02  0 
 -9.336492e-03  -2.404024e-02  0 
 -8.305543e-03  -2.412847e-02  0 
 -7.766535e-03  -2.452755e-02  0 
 -1.106345e-02  -2.835922e-02  0 
 -1.253924e-02  -2.913966e-02  0 
 -1.397741e-02  -3.173167e-02  0 
 -1.480459e-02  -3.429634e-02  0 
 -1.548228e-02  -3.686098e-02  0 
 -1.603518e-02  -3.966520e-02  0 
 -1.642099e-02  -4.264946e-02  0 
 -1.662917e-02  -4.564939e-02  0 
 -7.205881e-03  -1.012919e-02  0 
 -5.591207e-03  -1.009290e-02  0 
 -1.010561e-02  -1.161954e-02  0 
 -8.814971e-03  -1.175025e-02  0 
 -7.263236e-03  -1.178556e-02  0 
 -5.583580e-03  -1.182668e-02  0 
 -1.025128e-02  -1.323747e-02  0 
 -8.849480e-03  -1.342337e-02  0 
 -7.296851e-03  -1.355472e-02  0 
 -5.619892e-03  -1.359935e-02  0 
 -1.043857e-02  -1.504983e-02  0 
 -8.948177e-03  -1.527577e-02  0 
 -7.392457e-03  -1.540949e-02  0 
 -5.720334e-03  -1.544745e-02  0 
 -1.056286e-02  -1.701975e-02  0 
 -9.101583e-03  -1.725545e-02  0 
 -7.591196e-03  -1.737960e-02  0 
 -5.929846e-03  -1.739296e-02  0 
 -1.058418e-02  -1.897347e-02  0 
 -9.276450e-03  -1.924783e-02  0 
 -7.896349e-03  -1.942953e-02  0 
 -6.307550e-03  -1.944282e-02  0 
 -1.218789e-02  -2.050540e-02  0 
 -1.062212e-02  -2.080483e-02  0 
 -9.356240e-03  -2.109826e-02  0 
 -8.248292e-03  -2.146026e-02  0 
 -6.918416e-03  -2.158254e-02  0 
 -1.217701e-02  -2.260515e-02  0 
 -1.061572e-02  -2.255949e-02  0 
 -9.346413e-03  -2.269674e-02  0 
 -8.344662e-03  -2.306858e-02  0 
 -7.779619e-03  -2.377396e-02  0 
 -4.455187e-03  -1.074144e-02  0 
 -3.630772e-03  -1.196364e-02  0 
 -3.528939e-03  -1.403002e-02  0 
 -3.767665e-03  -1.598316e-02  0 
 -4.088735e-03  -1.806197e-02  0 
 -4.155216e-03  -2.024473e-02  0 
 -5.045761e-03  -2.223486e-02  0 
 -7.664142e-03  -2.395757e-02  0 
 -1.554673e-02  -3.003281e-02  0 
 -1.305611e-02  -2.916977e-02  0 
 -1.151940e-02  -2.879335e-02  0 
 -1.055148e-02  -2.869114e-02  0 
 -1.046868e-02  -2.884024e-02  0 
 -1.776635e-02  -3.485661e-02  0 
 -1.547258e-02  -3.389620e-02  0 
 -1.369390e-02  -3.304434e-02  0 
 -1.265527e-02  -3.242584e-02  0 
 -1.264591e-02  -3.190412e-02  0 
 -1.992631e-02  -3.920867e-02  0 
 -1.771816e-02  -3.804218e-02  0 
 -1.586738e-02  -3.689195e-02  0 
 -1.464615e-02  -3.581481e-02  0 
 -1.426525e-02  -3.488600e-02  0 
 -2.220668e-02  -4.326478e-02  0 
 -1.992827e-02  -4.188729e-02  0 
 -1.791257e-02  -4.052225e-02  0 
 -1.640876e-02  -3.917551e-02  0 
 -1.557988e-02  -3.791547e-02  0 
 -2.468290e-02  -4.719296e-02  0 
 -2.208645e-02  -4.568382e-02  0 
 -1.977659e-02  -4.421402e-02  0 
 -1.798786e-02  -4.260403e-02  0 
 -1.673425e-02  -4.102327e-02  0 
 -2.733831e-02  -5.123472e-02  0 
 -2.399838e-02  -4.980598e-02  0 
 -2.151296e-02  -4.805818e-02  0 
 -1.954207e-02  -4.616358e-02  0 
 -1.781041e-02  -4.422955e-02  0 
 -2.960619e-02  -5.672469e-02  0 
 -2.582059e-02  -5.419819e-02  0 
 -2.328057e-02  -5.191244e-02  0 
 -2.109519e-02  -4.972647e-02  0 
 -1.910727e-02  -4.776818e-02  0 
 -1.069610e-02  -2.883936e-02  0 
 -1.166847e-02  -3.158701e-02  0 
 -1.245606e-02  -3.411065e-02  0 
 -1.292057e-02  -3.670738e-02  0 
 -1.319236e-02  -3.954545e-02  0 
 -1.342898e-02  -4.260563e-02  0 
VECTORS displacement_ITER7 FLOAT
 -9.247267e-03  -2.644007e-02  0 
 -3.729433e-03  -9.211361e-03  0 
 -3.788118e-03  -1.116794e-02  0 
 -3.828802e-03  -1.310005e-02  0 
 -3.904085e-03  -1.506961e-02  0 
 -4.076286e-03  -1.710222e-02  0 
 -4.424593e-03  -1.921153e-02  0 
 -5.059722e-03  -2.141252e-02  0 
 -6.267442e-03  -2.369631e-02  0 
 -1.277888e-02  -2.468317e-02  0 
 -1.112242e-02  -2.439049e-02  0 
 -9.664075e-03  -2.427042e-02  0 
 -8.509084e-03  -2.433593e-02  0 
 -7.845818e-03  -2.469903e-02  0 
 -1.049261e-02  -2.832406e-02  0 
 -1.240198e-02  -2.961497e-02  0 
 -1.373908e-02  -3.258162e-02  0 
 -1.444707e-02  -3.543860e-02  0 
 -1.497940e-02  -3.815027e-02  0 
 -1.541145e-02  -4.090626e-02  0 
 -1.575048e-02  -4.371958e-02  0 
 -1.561844e-02  -4.672342e-02  0 
 -7.528984e-03  -9.260142e-03  0 
 -5.701518e-03  -9.225911e-03  0 
 -1.066704e-02  -1.096992e-02  0 
 -9.212016e-03  -1.110795e-02  0 
 -7.538950e-03  -1.113489e-02  0 
 -5.692353e-03  -1.116404e-02  0 
 -1.078207e-02  -1.272376e-02  0 
 -9.240517e-03  -1.291468e-02  0 
 -7.550875e-03  -1.304881e-02  0 
 -5.729082e-03  -1.309813e-02  0 
 -1.093245e-02  -1.466161e-02  0 
 -9.317186e-03  -1.489969e-02  0 
 -7.631354e-03  -1.503998e-02  0 
 -5.827129e-03  -1.508289e-02  0 
 -1.102579e-02  -1.675958e-02  0 
 -9.448569e-03  -1.700234e-02  0 
 -7.815800e-03  -1.713420e-02  0 
 -6.033776e-03  -1.715199e-02  0 
 -1.103909e-02  -1.883945e-02  0 
 -9.605138e-03  -1.911589e-02  0 
 -8.107444e-03  -1.929892e-02  0 
 -6.406140e-03  -1.931484e-02  0 
 -1.273385e-02  -2.055725e-02  0 
 -1.106779e-02  -2.081282e-02  0 
 -9.678032e-03  -2.108733e-02  0 
 -8.448233e-03  -2.143780e-02  0 
 -7.007672e-03  -2.155700e-02  0 
 -1.274039e-02  -2.274640e-02  0 
 -1.106334e-02  -2.268684e-02  0 
 -9.669533e-03  -2.280606e-02  0 
 -8.542540e-03  -2.315642e-02  0 
 -7.853715e-03  -2.383752e-02  0 
 -4.509369e-03  -9.811856e-03  0 
 -3.683442e-03  -1.130965e-02  0 
 -3.699656e-03  -1.355284e-02  0 
 -3.988412e-03  -1.569713e-02  0 
 -4.291086e-03  -1.792927e-02  0 
 -4.453249e-03  -2.017654e-02  0 
 -5.369057e-03  -2.227273e-02  0 
 -8.099767e-03  -2.386036e-02  0 
 -1.544138e-02  -2.980243e-02  0 
 -1.324426e-02  -2.929624e-02  0 
 -1.171297e-02  -2.906458e-02  0 
 -1.069682e-02  -2.904378e-02  0 
 -1.052349e-02  -2.924573e-02  0 
 -1.735616e-02  -3.443590e-02  0 
 -1.528041e-02  -3.382746e-02  0 
 -1.365395e-02  -3.327708e-02  0 
 -1.266123e-02  -3.286781e-02  0 
 -1.260017e-02  -3.253628e-02  0 
 -1.923037e-02  -3.871403e-02  0 
 -1.719054e-02  -3.786875e-02  0 
 -1.554333e-02  -3.704106e-02  0 
 -1.445384e-02  -3.626878e-02  0 
 -1.407058e-02  -3.565699e-02  0 
 -2.114463e-02  -4.267110e-02  0 
 -1.907789e-02  -4.158382e-02  0 
 -1.732909e-02  -4.052448e-02  0 
 -1.601259e-02  -3.953302e-02  0 
 -1.521408e-02  -3.869949e-02  0 
 -2.311772e-02  -4.633183e-02  0 
 -2.093214e-02  -4.508672e-02  0 
 -1.898799e-02  -4.390309e-02  0 
 -1.739968e-02  -4.272825e-02  0 
 -1.619681e-02  -4.169220e-02  0 
 -2.513334e-02  -4.973347e-02  0 
 -2.264073e-02  -4.855358e-02  0 
 -2.054880e-02  -4.722629e-02  0 
 -1.872358e-02  -4.591317e-02  0 
 -1.707502e-02  -4.466125e-02  0 
 -2.687647e-02  -5.355193e-02  0 
 -2.426326e-02  -5.192813e-02  0 
 -2.208493e-02  -5.048729e-02  0 
 -1.998223e-02  -4.903712e-02  0 
 -1.806417e-02  -4.779707e-02  0 
 -1.017028e-02  -2.935155e-02  0 
 -1.109658e-02  -3.245445e-02  0 
 -1.185983e-02  -3.528272e-02  0 
 -1.235551e-02  -3.802643e-02  0 
 -1.267954e-02  -4.080233e-02  0 
 -1.292597e-02  -4.367850e-02  0 
VECTORS displacement_ITER8 FLOAT
 -9.326176e-03  -2.553952e-02  0 
 -3.736148e-03  -9.173291e-03  0 
 -3.816907e-03  -1.109605e-02  0 
 -3.880911e-03  -1.295818e-02  0 
 -3.973450e-03  -1.483417e-02  0 
 -4.156173e-03  -1.675952e-02  0 
 -4.510403e-03  -1.875187e-02  0 
 -5.148230e-03  -2.082762e-02  0 
 -6.356229e-03  -2.297663e-02  0 
 -1.227485e-02  -2.386916e-02  0 
 -1.072496e-02  -2.356815e-02  0 
 -9.388988e-03  -2.344614e-02  0 
 -8.349448e-03  -2.350506e-02  0 
 -7.800021e-03  -2.384897e-02  0 
 -1.049588e-02  -2.733097e-02  0 
 -1.245149e-02  -2.869942e-02  0 
 -1.376479e-02  -3.167930e-02  0 
 -1.443689e-02  -3.454813e-02  0 
 -1.489725e-02  -3.721570e-02  0 
 -1.524968e-02  -3.980748e-02  0 
 -1.553970e-02  -4.236860e-02  0 
 -1.597788e-02  -4.530200e-02  0 
 -7.462938e-03  -9.241698e-03  0 
 -5.679812e-03  -9.200530e-03  0 
 -1.041447e-02  -1.090172e-02  0 
 -9.021311e-03  -1.105139e-02  0 
 -7.442098e-03  -1.107613e-02  0 
 -5.666497e-03  -1.109651e-02  0 
 -1.049131e-02  -1.257413e-02  0 