# vtk DataFile Version 3.1
this is an vtk file created by FEMAC
ASCII
DATASET UNSTRUCTURED_GRID
POINTS 6 FLOAT
0.000000 0.000000 0.000000
1.000000 0.000000 0.000000
2.000000 0.000000 0.000000
1.000000 1.000000 0.000000
0.000000 1.000000 0.000000
0.500000 0.500000 0.000000
CELLS 5 20 
3 1 2 3
3 0 5 4
3 3 5 1
3 5 3 4
3 5 0 1
CELL_TYPES 5
5 5 5 5 5 
POINT_DATA 6
VECTORS displacement_ITER1 FLOAT
 0  0  0 
 3.750000e-04  5.491841e-04  0 
 2.529918e-04  1.943200e-03  0 
 -3.750000e-04  4.008159e-04  0 
 0  0  0 
 -1.236401e-05  1.750000e-04  0 
VECTORS displacement_ITER2 FLOAT
 0  0  0 
 3.750000e-04  4.872449e-04  0 
 4.801020e-04  1.427041e-03  0 
 -3.750000e-04  4.627551e-04  0 
 0  0  0 
 -2.040816e-06  1.750000e-04  0 
CELL_DATA 5
TENSORS element_stresses FLOAT
 2.102041e-02  3.795918e-02  0 
 3.795918e-02  -4.897959e-03  0 
 0  0  0 

 -8.163265e-04  7.000000e-02  0 
 7.000000e-02  0  0 
 0  0  0 

 8.163265e-04  -3.000000e-02  0 
 -3.000000e-02  -4.897959e-03  0 
 0  0  0 

 -7.500000e-02  1.836735e-02  0 
 1.836735e-02  2.255102e-02  0 
 0  0  0 

 7.500000e-02  2.163265e-02  0 
 2.163265e-02  -2.744898e-02  0 
 0  0  0 

TENSORS element_stresses FLOAT
 2.102041e-02  3.795918e-02  0 
 3.795918e-02  -4.897959e-03  0 
 0  0  0 

 -8.163265e-04  7.000000e-02  0 
 7.000000e-02  0  0 
 0  0  0 

 8.163265e-04  -3.000000e-02  0 
 -3.000000e-02  -4.897959e-03  0 
 0  0  0 

 -7.500000e-02  1.836735e-02  0 
 1.836735e-02  2.255102e-02  0 
 0  0  0 

 7.500000e-02  2.163265e-02  0 
 2.163265e-02  -2.744898e-02  0 
 0  0  0 

