# vtk DataFile Version 3.1
this is an vtk file created by FEMAC
ASCII
DATASET UNSTRUCTURED_GRID
POINTS 3 FLOAT
2.000000 0.000000 0.000000
1.000000 1.000000 0.000000
2.000000 1.000000 0.000000
CELLS 1 4 
3 0 1 2
CELL_TYPES 1
5 
POINT_DATA 3
VECTORS displacement_ITER1 FLOAT
 2.772899e-04  1.975177e-03  0 
 -4.114471e-04  4.372631e-04  0 
 -5.334553e-04  1.692025e-03  0 
VECTORS displacement_ITER2 FLOAT
 4.801020e-04  1.427041e-03  0 
 -3.750000e-04  4.627551e-04  0 
 -2.698980e-04  1.202551e-03  0 
CELL_DATA 1
TENSORS element_stresses FLOAT
 2.102041e-02  -2.040816e-03  0 
 -2.040816e-03  -4.489796e-02  0 
 0  0  0 

TENSORS element_stresses FLOAT
 2.102041e-02  -2.040816e-03  0 
 -2.040816e-03  -4.489796e-02  0 
 0  0  0 

