# vtk DataFile Version 3.1
this is an vtk file created by FEMAC
ASCII
DATASET UNSTRUCTURED_GRID
POINTS 5 FLOAT
2.000000 0.000000 0.000000
3.000000 0.000000 0.000000
2.000000 1.000000 0.000000
3.000000 1.000000 0.000000
2.500000 0.500000 0.000000
CELLS 4 16 
3 1 4 0
3 2 4 3
3 4 2 0
3 4 1 3
CELL_TYPES 4
5 5 5 5 
POINT_DATA 5
VECTORS displacement_ITER1 FLOAT
 2.651409e-04  1.874777e-03  0 
 3.401409e-04  2.840016e-03  0 
 -5.334553e-04  1.860847e-03  0 
 -6.084553e-04  2.842801e-03  0 
 -1.327643e-04  2.342110e-03  0 
VECTORS displacement_ITER2 FLOAT
 4.801020e-04  1.427041e-03  0 
 5.551020e-04  2.217347e-03  0 
 -2.698980e-04  1.202551e-03  0 
 -3.448980e-04  2.262245e-03  0 
 1.275510e-04  1.764796e-03  0 
CELL_DATA 4
TENSORS element_stresses FLOAT
 1.500000e-02  2.040816e-03  0 
 2.040816e-03  -2.295918e-02  0 
 0  0  0 

 -1.500000e-02  3.795918e-02  0 
 3.795918e-02  -1.295918e-02  0 
 0  0  0 

 8.979592e-03  3.000000e-02  0 
 3.000000e-02  -4.489796e-02  0 
 0  0  0 

 -8.979592e-03  1.000000e-02  0 
 1.000000e-02  8.979592e-03  0 
 0  0  0 

TENSORS element_stresses FLOAT
 1.500000e-02  2.040816e-03  0 
 2.040816e-03  -2.295918e-02  0 
 0  0  0 

 -1.500000e-02  3.795918e-02  0 
 3.795918e-02  -1.295918e-02  0 
 0  0  0 

 8.979592e-03  3.000000e-02  0 
 3.000000e-02  -4.489796e-02  0 
 0  0  0 

 -8.979592e-03  1.000000e-02  0 
 1.000000e-02  8.979592e-03  0 
 0  0  0 

