# vtk DataFile Version 3.1
this is an vtk file created by FEMAC
ASCII
DATASET UNSTRUCTURED_GRID
POINTS 10 FLOAT
0.000000 0.000000 0.000000
1.000000 0.000000 0.000000
2.000000 0.000000 0.000000
3.000000 0.000000 0.000000
1.000000 1.000000 0.000000
2.000000 1.000000 0.000000
0.000000 1.000000 0.000000
3.000000 1.000000 0.000000
0.500000 0.500000 0.000000
2.500000 0.500000 0.000000
CELLS 10 40 
3 1 2 4
3 2 4 5
3 0 8 6
3 4 8 1
3 8 4 6
3 8 0 1
3 3 9 2
3 5 9 7
3 9 5 2
3 9 3 7
CELL_TYPES 10
5 5 5 5 5 5 5 5 5 5 
POINT_DATA 10
SCALARS CONDID_1 FLOAT
LOOKUP_TABLE default
 1 
 0 
 0 
 0 
 0 
 0 
 0 
 0 
 0 
 0 
SCALARS CONDID_2 FLOAT
LOOKUP_TABLE default
 1 
 0 
 0 
 0 
 0 
 0 
 1 
 0 
 0 
 0 
SCALARS CONDID_3 FLOAT
LOOKUP_TABLE default
 0 
 0 
 0 
 1 
 0 
 0 
 0 
 1 
 0 
 0 
VECTORS displacement FLOAT
 0  0  0 
 3.750000e-04  4.872449e-04  0 
 4.801020e-04  1.427041e-03  0 
 5.551020e-04  2.217347e-03  0 
 -3.750000e-04  4.627551e-04  0 
 -2.698980e-04  1.202551e-03  0 
 0  0  0 
 -3.448980e-04  2.262245e-03  0 
 -2.040816e-06  1.750000e-04  0 
 1.275510e-04  1.764796e-03  0 
CELL_DATA 10
SCALARS MATID_1 FLOAT
LOOKUP_TABLE default
 0 
 1 
 1 
 1 
 1 
 1 
 0 
 0 
 0 
 0 
SCALARS MATID_2 FLOAT
LOOKUP_TABLE default
 1 
 0 
 0 
 0 
 0 
 0 
 1 
 1 
 1 
 1 
SCALARS SUB_ID FLOAT
LOOKUP_TABLE default
 1 
 3 
 1 
 1 
 1 
 1 
 2 
 2 
 2 
 2 
VECTORS SubCenter_Diff FLOAT
 -8.333333e-01  -3.333333e-02  0 
 1.666667e-01  1.666667e-01  0 
 -8.333333e-01  -3.333333e-02  0 
 -8.333333e-01  -3.333333e-02  0 
 -8.333333e-01  -3.333333e-02  0 
 -8.333333e-01  -3.333333e-02  0 
 1  0  0 
 1  0  0 
 1  0  0 
 1  0  0 
