# vtk DataFile Version 3.1
this is an vtk file created by FEMAC
ASCII
DATASET UNSTRUCTURED_GRID
POINTS 12 FLOAT
6.000000 0.000000 0.000000
6.500000 0.000000 0.000000
6.000000 0.200000 0.000000
6.000000 0.400000 0.000000
6.000000 0.600000 0.000000
6.000000 0.800000 0.000000
6.000000 1.000000 0.000000
6.500000 0.200000 0.000000
6.500000 0.400000 0.000000
6.500000 0.600000 0.000000
6.500000 0.800000 0.000000
6.500000 1.000000 0.000000
CELLS 5 25 
4 0 1 7 2
4 2 7 8 3
4 3 8 9 4
4 4  9 10  5
4 5 10 11  6
CELL_TYPES 5
9 9 9 9 9 
POINT_DATA 12
VECTORS displacement_ITER1 FLOAT
 -2.683686e-03  -2.288861e-02  0 
 -2.707843e-03  -2.562253e-02  0 
 -1.594853e-03  -2.288554e-02  0 
 -5.367314e-04  -2.288113e-02  0 
 5.544444e-04  -2.288113e-02  0 
 1.612566e-03  -2.288553e-02  0 
 2.701399e-03  -2.288860e-02  0 
 -1.611447e-03  -2.562190e-02  0 
 -5.402672e-04  -2.562358e-02  0 
 5.579780e-04  -2.562358e-02  0 
 1.629158e-03  -2.562189e-02  0 
 2.725554e-03  -2.562252e-02  0 
VECTORS displacement_ITER2 FLOAT
 -2.681370e-03  -2.286577e-02  0 
 -2.705655e-03  -2.559578e-02  0 
 -1.594207e-03  -2.286257e-02  0 
 -5.357334e-04  -2.285782e-02  0 
 5.537598e-04  -2.285782e-02  0 
 1.612233e-03  -2.286257e-02  0 
 2.699397e-03  -2.286576e-02  0 
 -1.611027e-03  -2.559481e-02  0 
 -5.393242e-04  -2.559664e-02  0 
 5.573486e-04  -2.559664e-02  0 
 1.629052e-03  -2.559480e-02  0 
 2.723679e-03  -2.559577e-02  0 
VECTORS displacement_ITER3 FLOAT
 -2.678223e-03  -2.284790e-02  0 
 -2.702677e-03  -2.557540e-02  0 
 -1.592206e-03  -2.284470e-02  0 
 -5.332355e-04  -2.284305e-02  0 
 5.518851e-04  -2.284305e-02  0 
 1.610855e-03  -2.284470e-02  0 
 2.696872e-03  -2.284790e-02  0 
 -1.609388e-03  -2.557372e-02  0 
 -5.369629e-04  -2.557236e-02  0 
 5.556110e-04  -2.557236e-02  0 
 1.628036e-03  -2.557372e-02  0 
 2.721324e-03  -2.557540e-02  0 
VECTORS displacement_ITER4 FLOAT
 -2.677293e-03  -2.284366e-02  0 
 -2.701799e-03  -2.557006e-02  0 
 -1.591761e-03  -2.284044e-02  0 
 -5.327123e-04  -2.283914e-02  0 
 5.514945e-04  -2.283914e-02  0 
 1.610543e-03  -2.284044e-02  0 
 2.696075e-03  -2.284366e-02  0 
 -1.609018e-03  -2.556823e-02  0 
 -5.364464e-04  -2.556643e-02  0 
 5.552276e-04  -2.556643e-02  0 
 1.627799e-03  -2.556822e-02  0 
 2.720580e-03  -2.557006e-02  0 
VECTORS displacement_ITER5 FLOAT
 -2.676579e-03  -2.283969e-02  0 
 -2.701122e-03  -2.556466e-02  0 
 -1.591651e-03  -2.283644e-02  0 
 -5.326084e-04  -2.283461e-02  0 
 5.513998e-04  -2.283461e-02  0 
 1.610443e-03  -2.283644e-02  0 
 2.695371e-03  -2.283969e-02  0 
 -1.608936e-03  -2.556279e-02  0 
 -5.363195e-04  -2.556140e-02  0 
 5.551110e-04  -2.556140e-02  0 
 1.627727e-03  -2.556279e-02  0 
 2.719914e-03  -2.556467e-02  0 
VECTORS displacement_ITER6 FLOAT
 -2.676102e-03  -2.283669e-02  0 
 -2.700660e-03  -2.556073e-02  0 
 -1.591571e-03  -2.283342e-02  0 
 -5.325598e-04  -2.283126e-02  0 
 5.513129e-04  -2.283126e-02  0 
 1.610334e-03  -2.283338e-02  0 
 2.694894e-03  -2.283665e-02  0 
 -1.608872e-03  -2.555884e-02  0 
 -5.362622e-04  -2.555769e-02  0 
 5.550148e-04  -2.555770e-02  0 
 1.627638e-03  -2.555886e-02  0 
 2.719451e-03  -2.556076e-02  0 
VECTORS displacement_ITER7 FLOAT
 -2.675933e-03  -2.283538e-02  0 
 -2.700502e-03  -2.555930e-02  0 
 -1.591479e-03  -2.283212e-02  0 
 -5.324952e-04  -2.283007e-02  0 
 5.512211e-04  -2.283007e-02  0 
 1.610215e-03  -2.283216e-02  0 
 2.694701e-03  -2.283542e-02  0 
 -1.608789e-03  -2.555739e-02  0 
 -5.361929e-04  -2.555614e-02  0 
 5.549440e-04  -2.555614e-02  0 
 1.627534e-03  -2.555738e-02  0 
 2.719238e-03  -2.555929e-02  0 
VECTORS displacement_ITER8 FLOAT
 -2.675857e-03  -2.283467e-02  0 
 -2.700393e-03  -2.555852e-02  0 
 -1.591372e-03  -2.283142e-02  0 
 -5.323942e-04  -2.282946e-02  0 
 5.511951e-04  -2.282946e-02  0 
 1.610142e-03  -2.283141e-02  0 
 2.694574e-03  -2.283466e-02  0 
 -1.608693e-03  -2.555661e-02  0 
 -5.361206e-04  -2.555525e-02  0 
 5.549085e-04  -2.555525e-02  0 
 1.627463e-03  -2.555661e-02  0 
 2.719127e-03  -2.555853e-02  0 
VECTORS displacement_ITER9 FLOAT
 -2.675790e-03  -2.283418e-02  0 
 -2.700313e-03  -2.555799e-02  0 
 -1.591340e-03  -2.283094e-02  0 
 -5.323908e-04  -2.282900e-02  0 
 5.511549e-04  -2.282900e-02  0 
 1.610090e-03  -2.283094e-02  0 
 2.694510e-03  -2.283419e-02  0 
 -1.608665e-03  -2.555608e-02  0 
 -5.361263e-04  -2.555469e-02  0 
 5.548664e-04  -2.555469e-02  0 
 1.627410e-03  -2.555606e-02  0 
 2.719066e-03  -2.555797e-02  0 
VECTORS displacement_ITER10 FLOAT
 -2.675701e-03  -2.283361e-02  0 
 -2.700240e-03  -2.555729e-02  0 
 -1.591314e-03  -2.283037e-02  0 
 -5.324013e-04  -2.282839e-02  0 
 5.511320e-04  -2.282839e-02  0 
 1.610058e-03  -2.283039e-02  0 
 2.694455e-03  -2.283363e-02  0 
 -1.608636e-03  -2.555539e-02  0 
 -5.361204e-04  -2.555406e-02  0 
 5.548612e-04  -2.555406e-02  0 
 1.627379e-03  -2.555540e-02  0 
 2.718988e-03  -2.555730e-02  0 
VECTORS displacement_ITER11 FLOAT
 -2.675652e-03  -2.283328e-02  0 
 -2.700187e-03  -2.555687e-02  0 
 -1.591293e-03  -2.283004e-02  0 
 -5.323984e-04  -2.282803e-02  0 
 5.511239e-04  -2.282803e-02  0 
 1.610039e-03  -2.283001e-02  0 
 2.694425e-03  -2.283326e-02  0 
 -1.608613e-03  -2.555497e-02  0 
 -5.361192e-04  -2.555367e-02  0 
 5.548515e-04  -2.555368e-02  0 
 1.627357e-03  -2.555501e-02  0 
 2.718958e-03  -2.555691e-02  0 
VECTORS displacement_ITER12 FLOAT
 -2.675682e-03  -2.283313e-02  0 
 -2.700218e-03  -2.555684e-02  0 
 -1.591276e-03  -2.282989e-02  0 
 -5.323587e-04  -2.282794e-02  0 
 5.511543e-04  -2.282794e-02  0 
 1.610035e-03  -2.282997e-02  0 
 2.694373e-03  -2.283321e-02  0 
 -1.608592e-03  -2.555494e-02  0 
 -5.360819e-04  -2.555357e-02  0 
 5.548800e-04  -2.555357e-02  0 
 1.627353e-03  -2.555485e-02  0 
 2.718903e-03  -2.555675e-02  0 
VECTORS displacement_ITER13 FLOAT
 -2.675636e-03  -2.283315e-02  0 
 -2.700170e-03  -2.555674e-02  0 
 -1.591280e-03  -2.282991e-02  0 
 -5.323914e-04  -2.282791e-02  0 
 5.511207e-04  -2.282791e-02  0 
 1.610025e-03  -2.282988e-02  0 
 2.694411e-03  -2.283312e-02  0 
 -1.608596e-03  -2.555484e-02  0 
 -5.361147e-04  -2.555353e-02  0 
 5.548462e-04  -2.555353e-02  0 
 1.627343e-03  -2.555487e-02  0 
 2.718942e-03  -2.555677e-02  0 
VECTORS displacement_ITER14 FLOAT
 -2.675647e-03  -2.283309e-02  0 
 -2.700179e-03  -2.555671e-02  0 
 -1.591276e-03  -2.282985e-02  0 
 -5.323799e-04  -2.282786e-02  0 
 5.511340e-04  -2.282786e-02  0 
 1.610027e-03  -2.282986e-02  0 
 2.694390e-03  -2.283310e-02  0 
 -1.608593e-03  -2.555481e-02  0 
 -5.361037e-04  -2.555349e-02  0 
 5.548587e-04  -2.555349e-02  0 
 1.627343e-03  -2.555481e-02  0 
 2.718923e-03  -2.555670e-02  0 
VECTORS displacement_ITER15 FLOAT
 -2.675645e-03  -2.283308e-02  0 
 -2.700177e-03  -2.555669e-02  0 
 -1.591275e-03  -2.282984e-02  0 
 -5.323796e-04  -2.282785e-02  0 
 5.511335e-04  -2.282785e-02  0 
 1.610026e-03  -2.282984e-02  0 
 2.694390e-03  -2.283308e-02  0 
 -1.608591e-03  -2.555480e-02  0 
 -5.361043e-04  -2.555347e-02  0 
 5.548576e-04  -2.555347e-02  0 
 1.627342e-03  -2.555479e-02  0 
 2.718923e-03  -2.555669e-02  0 
VECTORS displacement_ITER16 FLOAT
 -2.675642e-03  -2.283307e-02  0 
 -2.700174e-03  -2.555669e-02  0 
 -1.591274e-03  -2.282983e-02  0 
 -5.323809e-04  -2.282785e-02  0 
 5.511300e-04  -2.282785e-02  0 
 1.610024e-03  -2.282983e-02  0 
 2.694394e-03  -2.283307e-02  0 
 -1.608591e-03  -2.555479e-02  0 
 -5.361061e-04  -2.555346e-02  0 
 5.548543e-04  -2.555346e-02  0 
 1.627340e-03  -2.555479e-02  0 
 2.718926e-03  -2.555669e-02  0 
VECTORS displacement_ITER17 FLOAT
 -2.675643e-03  -2.283307e-02  0 
 -2.700174e-03  -2.555668e-02  0 
 -1.591274e-03  -2.282983e-02  0 
 -5.323802e-04  -2.282784e-02  0 
 5.511298e-04  -2.282784e-02  0 
 1.610024e-03  -2.282983e-02  0 
 2.694393e-03  -2.283307e-02  0 
 -1.608590e-03  -2.555479e-02  0 
 -5.361054e-04  -2.555346e-02  0 
 5.548547e-04  -2.555346e-02  0 
 1.627340e-03  -2.555479e-02  0 
 2.718925e-03  -2.555669e-02  0 
VECTORS displacement_ITER18 FLOAT
 -2.675643e-03  -2.283307e-02  0 
 -2.700175e-03  -2.555668e-02  0 
 -1.591274e-03  -2.282983e-02  0 
 -5.323799e-04  -2.282784e-02  0 
 5.511306e-04  -2.282784e-02  0 
 1.610024e-03  -2.282983e-02  0 
 2.694392e-03  -2.283307e-02  0 
 -1.608590e-03  -2.555479e-02  0 
 -5.361049e-04  -2.555346e-02  0 
 5.548556e-04  -2.555346e-02  0 
 1.627340e-03  -2.555479e-02  0 
 2.718924e-03  -2.555668e-02  0 
VECTORS displacement_ITER19 FLOAT
 -2.675642e-03  -2.283307e-02  0 
 -2.700174e-03  -2.555668e-02  0 
 -1.591274e-03  -2.282983e-02  0 
 -5.323804e-04  -2.282784e-02  0 
 5.511308e-04  -2.282784e-02  0 
 1.610024e-03  -2.282983e-02  0 
 2.694392e-03  -2.283307e-02  0 
 -1.608590e-03  -2.555479e-02  0 
 -5.361053e-04  -2.555346e-02  0 
 5.548558e-04  -2.555346e-02  0 
 1.627340e-03  -2.555478e-02  0 
 2.718924e-03  -2.555668e-02  0 
VECTORS displacement_ITER20 FLOAT
 -2.675642e-03  -2.283307e-02  0 
 -2.700174e-03  -2.555668e-02  0 
 -1.591274e-03  -2.282983e-02  0 
 -5.323807e-04  -2.282784e-02  0 
 5.511305e-04  -2.282784e-02  0 
 1.610024e-03  -2.282983e-02  0 
 2.694392e-03  -2.283307e-02  0 
 -1.608590e-03  -2.555478e-02  0 
 -5.361056e-04  -2.555346e-02  0 
 5.548555e-04  -2.555346e-02  0 
 1.627340e-03  -2.555478e-02  0 
 2.718924e-03  -2.555668e-02  0 
VECTORS displacement_ITER21 FLOAT
 -2.675642e-03  -2.283306e-02  0 
 -2.700174e-03  -2.555668e-02  0 
 -1.591274e-03  -2.282982e-02  0 
 -5.323806e-04  -2.282784e-02  0 
 5.511305e-04  -2.282784e-02  0 
 1.610024e-03  -2.282983e-02  0 
 2.694392e-03  -2.283307e-02  0 
 -1.608590e-03  -2.555478e-02  0 
 -5.361054e-04  -2.555346e-02  0 
 5.548554e-04  -2.555346e-02  0 
 1.627340e-03  -2.555478e-02  0 
 2.718924e-03  -2.555668e-02  0 
VECTORS displacement_ITER22 FLOAT
 -2.675642e-03  -2.283306e-02  0 
 -2.700174e-03  -2.555668e-02  0 
 -1.591274e-03  -2.282982e-02  0 
 -5.323805e-04  -2.282784e-02  0 
 5.511305e-04  -2.282784e-02  0 
 1.610024e-03  -2.282982e-02  0 
 2.694392e-03  -2.283307e-02  0 
 -1.608590e-03  -2.555478e-02  0 
 -5.361053e-04  -2.555346e-02  0 
 5.548554e-04  -2.555346e-02  0 
 1.627340e-03  -2.555478e-02  0 
 2.718924e-03  -2.555668e-02  0 
VECTORS displacement_ITER23 FLOAT
 -2.675642e-03  -2.283306e-02  0 
 -2.700174e-03  -2.555668e-02  0 
 -1.591274e-03  -2.282982e-02  0 
 -5.323805e-04  -2.282784e-02  0 
 5.511305e-04  -2.282784e-02  0 
 1.610024e-03  -2.282982e-02  0 
 2.694392e-03  -2.283307e-02  0 
 -1.608590e-03  -2.555478e-02  0 
 -5.361054e-04  -2.555346e-02  0 
 5.548554e-04  -2.555346e-02  0 
 1.627340e-03  -2.555478e-02  0 
 2.718924e-03  -2.555668e-02  0 
VECTORS displacement_ITER24 FLOAT
 -2.675642e-03  -2.283306e-02  0 
 -2.700174e-03  -2.555668e-02  0 
 -1.591274e-03  -2.282982e-02  0 
 -5.323805e-04  -2.282784e-02  0 
 5.511305e-04  -2.282784e-02  0 
 1.610024e-03  -2.282982e-02  0 
 2.694392e-03  -2.283307e-02  0 
 -1.608590e-03  -2.555478e-02  0 
 -5.361054e-04  -2.555346e-02  0 
 5.548554e-04  -2.555346e-02  0 
 1.627340e-03  -2.555478e-02  0 
 2.718924e-03  -2.555668e-02  0 
CELL_DATA 5
TENSORS element_stresses FLOAT
 -4.175434e-02  -6.687665e-03  0 
 -6.687665e-03  3.121017e-04  0 
 0  0  0 

 -2.039325e-03  -9.394957e-03  0 
 -9.394957e-03  2.159365e-04  0 
 0  0  0 

 5.566778e-08  -1.158481e-02  0 
 -1.158481e-02  -9.168557e-08  0 
 0  0  0 

 2.039282e-03  -9.394883e-03  0 
 -9.394883e-03  -2.160687e-04  0 
 0  0  0 

 4.175433e-02  -6.687687e-03  0 
 -6.687687e-03  -3.121452e-04  0 
 0  0  0 

TENSORS element_stresses FLOAT
 -4.175434e-02  -6.687665e-03  0 
 -6.687665e-03  3.121017e-04  0 
 0  0  0 

 -2.039325e-03  -9.394957e-03  0 
 -9.394957e-03  2.159365e-04  0 
 0  0  0 

 5.566778e-08  -1.158481e-02  0 
 -1.158481e-02  -9.168557e-08  0 
 0  0  0 

 2.039282e-03  -9.394883e-03  0 
 -9.394883e-03  -2.160687e-04  0 
 0  0  0 

 4.175433e-02  -6.687687e-03  0 
 -6.687687e-03  -3.121452e-04  0 
 0  0  0 

