# vtk DataFile Version 3.1
this is an vtk file created by FEMAC
ASCII
DATASET UNSTRUCTURED_GRID
POINTS 12 FLOAT
2.000000 0.000000 0.000000
2.500000 0.000000 0.000000
2.000000 0.200000 0.000000
2.000000 0.400000 0.000000
2.000000 0.600000 0.000000
2.000000 0.800000 0.000000
2.000000 1.000000 0.000000
2.500000 0.200000 0.000000
2.500000 0.400000 0.000000
2.500000 0.600000 0.000000
2.500000 0.800000 0.000000
2.500000 1.000000 0.000000
CELLS 5 25 
4 0 1 7 2
4 2 7 8 3
4 3 8 9 4
4 4  9 10  5
4 5 10 11  6
CELL_TYPES 5
9 9 9 9 9 
POINT_DATA 12
VECTORS displacement_ITER1 FLOAT
 -1.572290e-03  -3.976539e-03  0 
 -1.837752e-03  -5.776382e-03  0 
 -9.056483e-04  -3.944818e-03  0 
 -3.262678e-04  -3.922397e-03  0 
 3.439808e-04  -3.922396e-03  0 
 9.233612e-04  -3.944814e-03  0 
 1.590003e-03  -3.976532e-03  0 
 -1.072617e-03  -5.751237e-03  0 
 -3.756392e-04  -5.744320e-03  0 
 3.933499e-04  -5.744319e-03  0 
 1.090327e-03  -5.751232e-03  0 
 1.855463e-03  -5.776374e-03  0 
VECTORS displacement_ITER2 FLOAT
 -1.570249e-03  -3.968271e-03  0 
 -1.835454e-03  -5.762857e-03  0 
 -9.066122e-04  -3.937501e-03  0 
 -3.255908e-04  -3.913756e-03  0 
 3.430315e-04  -3.913678e-03  0 
 9.244284e-04  -3.936078e-03  0 
 1.589146e-03  -3.966788e-03  0 
 -1.071934e-03  -5.738392e-03  0 
 -3.754930e-04  -5.733197e-03  0 
 3.928764e-04  -5.733239e-03  0 
 1.089824e-03  -5.739321e-03  0 
 1.854254e-03  -5.763822e-03  0 
VECTORS displacement_ITER3 FLOAT
 -1.568657e-03  -3.955240e-03  0 
 -1.834199e-03  -5.754173e-03  0 
 -9.062343e-04  -3.926622e-03  0 
 -3.228264e-04  -3.912486e-03  0 
 3.386174e-04  -3.912379e-03  0 
 9.234756e-04  -3.925292e-03  0 
 1.590119e-03  -3.953880e-03  0 
 -1.068687e-03  -5.730273e-03  0 
 -3.731319e-04  -5.717497e-03  0 
 3.900876e-04  -5.717558e-03  0 
 1.086538e-03  -5.731684e-03  0 
 1.853697e-03  -5.755631e-03  0 
VECTORS displacement_ITER4 FLOAT
 -1.568437e-03  -3.955157e-03  0 
 -1.833939e-03  -5.754080e-03  0 
 -9.059072e-04  -3.927057e-03  0 
 -3.213959e-04  -3.914737e-03  0 
 3.382536e-04  -3.914568e-03  0 
 9.235783e-04  -3.924853e-03  0 
 1.589983e-03  -3.952899e-03  0 
 -1.067596e-03  -5.730349e-03  0 
 -3.720729e-04  -5.716428e-03  0 
 3.901243e-04  -5.716517e-03  0 
 1.086099e-03  -5.732199e-03  0 
 1.853177e-03  -5.755985e-03  0 
VECTORS displacement_ITER5 FLOAT
 -1.568184e-03  -3.958108e-03  0 
 -1.833334e-03  -5.755348e-03  0 
 -9.062379e-04  -3.930206e-03  0 
 -3.207720e-04  -3.916993e-03  0 
 3.386339e-04  -3.916783e-03  0 
 9.239669e-04  -3.927558e-03  0 
 1.589116e-03  -3.955405e-03  0 
 -1.067476e-03  -5.731784e-03  0 
 -3.720701e-04  -5.718839e-03  0 
 3.904469e-04  -5.718899e-03  0 
 1.086156e-03  -5.732838e-03  0 
 1.852397e-03  -5.756409e-03  0 
VECTORS displacement_ITER6 FLOAT
 -1.567809e-03  -3.960183e-03  0 
 -1.832788e-03  -5.755508e-03  0 
 -9.066801e-04  -3.932356e-03  0 
 -3.206361e-04  -3.917681e-03  0 
 3.390216e-04  -3.917448e-03  0 
 9.243331e-04  -3.929529e-03  0 
 1.588351e-03  -3.957310e-03  0 
 -1.067590e-03  -5.732078e-03  0 
 -3.722700e-04  -5.720455e-03  0 
 3.907335e-04  -5.720497e-03  0 
 1.086289e-03  -5.732640e-03  0 
 1.851743e-03  -5.756047e-03  0 
VECTORS displacement_ITER7 FLOAT
 -1.567622e-03  -3.960387e-03  0 
 -1.832565e-03  -5.754912e-03  0 
 -9.068564e-04  -3.932583e-03  0 
 -3.206157e-04  -3.917195e-03  0 
 3.392121e-04  -3.916956e-03  0 
 9.244800e-04  -3.929726e-03  0 
 1.587982e-03  -3.957494e-03  0 
 -1.067603e-03  -5.731529e-03  0 
 -3.723207e-04  -5.720341e-03  0 
 3.908087e-04  -5.720377e-03  0 
 1.086302e-03  -5.731977e-03  0 
 1.851498e-03  -5.755333e-03  0 
VECTORS displacement_ITER8 FLOAT
 -1.567582e-03  -3.960017e-03  0 
 -1.832490e-03  -5.754454e-03  0 
 -9.068637e-04  -3.932236e-03  0 
 -3.205394e-04  -3.916722e-03  0 
 3.392773e-04  -3.916481e-03  0 
 9.244954e-04  -3.929395e-03  0 
 1.587796e-03  -3.957149e-03  0 
 -1.067519e-03  -5.731079e-03  0 
 -3.722765e-04  -5.719761e-03  0 
 3.907626e-04  -5.719793e-03  0 
 1.086214e-03  -5.731483e-03  0 
 1.851448e-03  -5.754834e-03  0 
VECTORS displacement_ITER9 FLOAT
 -1.567609e-03  -3.959749e-03  0 
 -1.832481e-03  -5.754406e-03  0 
 -9.068017e-04  -3.931988e-03  0 
 -3.204590e-04  -3.916666e-03  0 
 3.392437e-04  -3.916427e-03  0 
 9.244456e-04  -3.929181e-03  0 
 1.587748e-03  -3.956919e-03  0 
 -1.067422e-03  -5.731022e-03  0 
 -3.722242e-04  -5.719428e-03  0 
 3.906852e-04  -5.719457e-03  0 
 1.086107e-03  -5.731421e-03  0 
 1.851478e-03  -5.754785e-03  0 
VECTORS displacement_ITER10 FLOAT
 -1.567633e-03  -3.959602e-03  0 
 -1.832472e-03  -5.754522e-03  0 
 -9.067236e-04  -3.931862e-03  0 
 -3.203899e-04  -3.916820e-03  0 
 3.391594e-04  -3.916585e-03  0 
 9.243759e-04  -3.929101e-03  0 
 1.587743e-03  -3.956824e-03  0 
 -1.067325e-03  -5.731132e-03  0 
 -3.721870e-04  -5.719276e-03  0 
 3.906054e-04  -5.719302e-03  0 
 1.085990e-03  -5.731558e-03  0 
 1.851517e-03  -5.754936e-03  0 
VECTORS displacement_ITER11 FLOAT
 -1.567610e-03  -3.959597e-03  0 
 -1.832441e-03  -5.754527e-03  0 
 -9.067036e-04  -3.931862e-03  0 
 -3.203857e-04  -3.916875e-03  0 
 3.391147e-04  -3.916641e-03  0 
 9.243591e-04  -3.929122e-03  0 
 1.587733e-03  -3.956844e-03  0 
 -1.067299e-03  -5.731139e-03  0 
 -3.721982e-04  -5.719278e-03  0 
 3.905928e-04  -5.719303e-03  0 
 1.085952e-03  -5.731591e-03  0 
 1.851507e-03  -5.754972e-03  0 
VECTORS displacement_ITER12 FLOAT
 -1.567584e-03  -3.959595e-03  0 
 -1.832417e-03  -5.754442e-03  0 
 -9.067130e-04  -3.931856e-03  0 
 -3.203997e-04  -3.916802e-03  0 
 3.391182e-04  -3.916568e-03  0 
 9.243735e-04  -3.929112e-03  0 
 1.587713e-03  -3.956838e-03  0 
 -1.067308e-03  -5.731059e-03  0 
 -3.722160e-04  -5.719266e-03  0 
 3.906103e-04  -5.719291e-03  0 
 1.085960e-03  -5.731502e-03  0 
 1.851483e-03  -5.754879e-03  0 
VECTORS displacement_ITER13 FLOAT
 -1.567576e-03  -3.959595e-03  0 
 -1.832412e-03  -5.754420e-03  0 
 -9.067149e-04  -3.931854e-03  0 
 -3.204035e-04  -3.916782e-03  0 
 3.391188e-04  -3.916547e-03  0 
 9.243775e-04  -3.929107e-03  0 
 1.587707e-03  -3.956834e-03  0 
 -1.067309e-03  -5.731037e-03  0 
 -3.722198e-04  -5.719260e-03  0 
 3.906156e-04  -5.719285e-03  0 
 1.085962e-03  -5.731475e-03  0 
 1.851476e-03  -5.754852e-03  0 
VECTORS displacement_ITER14 FLOAT
 -1.567571e-03  -3.959594e-03  0 
 -1.832411e-03  -5.754418e-03  0 
 -9.067128e-04  -3.931852e-03  0 
 -3.204040e-04  -3.916778e-03  0 
 3.391164e-04  -3.916543e-03  0 
 9.243775e-04  -3.929101e-03  0 
 1.587706e-03  -3.956829e-03  0 
 -1.067306e-03  -5.731035e-03  0 
 -3.722184e-04  -5.719254e-03  0 
 3.906174e-04  -5.719278e-03  0 
 1.085960e-03  -5.731468e-03  0 
 1.851472e-03  -5.754844e-03  0 
VECTORS displacement_ITER15 FLOAT
 -1.567570e-03  -3.959594e-03  0 
 -1.832411e-03  -5.754417e-03  0 
 -9.067115e-04  -3.931851e-03  0 
 -3.204040e-04  -3.916779e-03  0 
 3.391146e-04  -3.916543e-03  0 
 9.243769e-04  -3.929097e-03  0 
 1.587707e-03  -3.956825e-03  0 
 -1.067305e-03  -5.731034e-03  0 
 -3.722177e-04  -5.719250e-03  0 
 3.906171e-04  -5.719275e-03  0 
 1.085959e-03  -5.731468e-03  0 
 1.851472e-03  -5.754845e-03  0 
VECTORS displacement_ITER16 FLOAT
 -1.567571e-03  -3.959589e-03  0 
 -1.832413e-03  -5.754420e-03  0 
 -9.067102e-04  -3.931847e-03  0 
 -3.204021e-04  -3.916778e-03  0 
 3.391154e-04  -3.916543e-03  0 
 9.243769e-04  -3.929096e-03  0 
 1.587705e-03  -3.956825e-03  0 
 -1.067304e-03  -5.731037e-03  0 
 -3.722156e-04  -5.719248e-03  0 
 3.906186e-04  -5.719272e-03  0 
 1.085958e-03  -5.731464e-03  0 
 1.851470e-03  -5.754841e-03  0 
VECTORS displacement_ITER17 FLOAT
 -1.567568e-03  -3.959592e-03  0 
 -1.832410e-03  -5.754415e-03  0 
 -9.067101e-04  -3.931849e-03  0 
 -3.204040e-04  -3.916778e-03  0 
 3.391130e-04  -3.916542e-03  0 
 9.243763e-04  -3.929092e-03  0 
 1.587707e-03  -3.956820e-03  0 
 -1.067304e-03  -5.731032e-03  0 
 -3.722174e-04  -5.719246e-03  0 
 3.906166e-04  -5.719271e-03  0 
 1.085957e-03  -5.731467e-03  0 
 1.851473e-03  -5.754844e-03  0 
VECTORS displacement_ITER18 FLOAT
 -1.567571e-03  -3.959588e-03  0 
 -1.832412e-03  -5.754418e-03  0 
 -9.067095e-04  -3.931845e-03  0 
 -3.204022e-04  -3.916777e-03  0 
 3.391147e-04  -3.916542e-03  0 
 9.243768e-04  -3.929095e-03  0 
 1.587705e-03  -3.956824e-03  0 
 -1.067304e-03  -5.731034e-03  0 
 -3.722156e-04  -5.719246e-03  0 
 3.906185e-04  -5.719271e-03  0 
 1.085958e-03  -5.731464e-03  0 
 1.851470e-03  -5.754841e-03  0 
VECTORS displacement_ITER19 FLOAT
 -1.567569e-03  -3.959590e-03  0 
 -1.832411e-03  -5.754416e-03  0 
 -9.067097e-04  -3.931847e-03  0 
 -3.204030e-04  -3.916777e-03  0 
 3.391139e-04  -3.916542e-03  0 
 9.243766e-04  -3.929093e-03  0 
 1.587706e-03  -3.956822e-03  0 
 -1.067304e-03  -5.731033e-03  0 
 -3.722165e-04  -5.719246e-03  0 
 3.906178e-04  -5.719271e-03  0 
 1.085958e-03  -5.731465e-03  0 
 1.851471e-03  -5.754842e-03  0 
VECTORS displacement_ITER20 FLOAT
 -1.567569e-03  -3.959590e-03  0 
 -1.832411e-03  -5.754416e-03  0 
 -9.067096e-04  -3.931847e-03  0 
 -3.204031e-04  -3.916777e-03  0 
 3.391138e-04  -3.916542e-03  0 
 9.243766e-04  -3.929093e-03  0 
 1.587706e-03  -3.956822e-03  0 
 -1.067304e-03  -5.731032e-03  0 
 -3.722166e-04  -5.719246e-03  0 
 3.906178e-04  -5.719271e-03  0 
 1.085958e-03  -5.731465e-03  0 
 1.851471e-03  -5.754842e-03  0 
VECTORS displacement_ITER21 FLOAT
 -1.567569e-03  -3.959590e-03  0 
 -1.832411e-03  -5.754416e-03  0 
 -9.067096e-04  -3.931847e-03  0 
 -3.204030e-04  -3.916777e-03  0 
 3.391140e-04  -3.916541e-03  0 
 9.243767e-04  -3.929093e-03  0 
 1.587706e-03  -3.956822e-03  0 
 -1.067304e-03  -5.731033e-03  0 
 -3.722164e-04  -5.719246e-03  0 
 3.906179e-04  -5.719270e-03  0 
 1.085958e-03  -5.731465e-03  0 
 1.851471e-03  -5.754842e-03  0 
VECTORS displacement_ITER22 FLOAT
 -1.567569e-03  -3.959590e-03  0 
 -1.832411e-03  -5.754416e-03  0 
 -9.067096e-04  -3.931847e-03  0 
 -3.204030e-04  -3.916777e-03  0 
 3.391139e-04  -3.916541e-03  0 
 9.243766e-04  -3.929093e-03  0 
 1.587706e-03  -3.956822e-03  0 
 -1.067304e-03  -5.731032e-03  0 
 -3.722165e-04  -5.719246e-03  0 
 3.906178e-04  -5.719270e-03  0 
 1.085958e-03  -5.731465e-03  0 
 1.851471e-03  -5.754842e-03  0 
VECTORS displacement_ITER23 FLOAT
 -1.567569e-03  -3.959590e-03  0 
 -1.832411e-03  -5.754416e-03  0 
 -9.067096e-04  -3.931847e-03  0 
 -3.204030e-04  -3.916777e-03  0 
 3.391139e-04  -3.916541e-03  0 
 9.243766e-04  -3.929093e-03  0 
 1.587706e-03  -3.956822e-03  0 
 -1.067304e-03  -5.731033e-03  0 
 -3.722165e-04  -5.719245e-03  0 
 3.906179e-04  -5.719270e-03  0 
 1.085958e-03  -5.731465e-03  0 
 1.851471e-03  -5.754842e-03  0 
VECTORS displacement_ITER24 FLOAT
 -1.567569e-03  -3.959590e-03  0 
 -1.832411e-03  -5.754416e-03  0 
 -9.067096e-04  -3.931847e-03  0 
 -3.204030e-04  -3.916777e-03  0 
 3.391139e-04  -3.916541e-03  0 
 9.243766e-04  -3.929093e-03  0 
 1.587706e-03  -3.956822e-03  0 
 -1.067304e-03  -5.731032e-03  0 
 -3.722165e-04  -5.719245e-03  0 
 3.906179e-04  -5.719270e-03  0 
 1.085958e-03  -5.731465e-03  0 
 1.851471e-03  -5.754842e-03  0 
CELL_DATA 5
TENSORS element_stresses FLOAT
 -4.253747e-01  -2.238000e-02  0 
 -2.238000e-02  2.040075e-04  0 
 0  0  0 

 -2.112801e-02  -3.062847e-02  0 
 -3.062847e-02  3.758380e-04  0 
 0  0  0 

 -1.667495e-04  -3.793821e-02  0 
 -3.793821e-02  4.758944e-04  0 
 0  0  0 

 2.137642e-02  -3.104575e-02  0 
 -3.104575e-02  2.264577e-04  0 
 0  0  0 

 4.252930e-01  -2.175757e-02  0 
 -2.175757e-02  -1.777184e-04  0 
 0  0  0 

TENSORS element_stresses FLOAT
 -4.253747e-01  -2.238000e-02  0 
 -2.238000e-02  2.040075e-04  0 
 0  0  0 

 -2.112801e-02  -3.062847e-02  0 
 -3.062847e-02  3.758380e-04  0 
 0  0  0 

 -1.667495e-04  -3.793821e-02  0 
 -3.793821e-02  4.758944e-04  0 
 0  0  0 

 2.137642e-02  -3.104575e-02  0 
 -3.104575e-02  2.264577e-04  0 
 0  0  0 

 4.252930e-01  -2.175757e-02  0 
 -2.175757e-02  -1.777184e-04  0 
 0  0  0 

