# vtk DataFile Version 3.1
this is an vtk file created by FEMAC
ASCII
DATASET UNSTRUCTURED_GRID
POINTS 12 FLOAT
6.500000 0.000000 0.000000
7.000000 0.000000 0.000000
6.500000 0.200000 0.000000
6.500000 0.400000 0.000000
6.500000 0.600000 0.000000
6.500000 0.800000 0.000000
6.500000 1.000000 0.000000
7.000000 0.200000 0.000000
7.000000 0.400000 0.000000
7.000000 0.600000 0.000000
7.000000 0.800000 0.000000
7.000000 1.000000 0.000000
CELLS 5 25 
4 0 1 7 2
4 2 7 8 3
4 3 8 9 4
4 4  9 10  5
4 5 10 11  6
CELL_TYPES 5
9 9 9 9 9 
POINT_DATA 12
VECTORS displacement_ITER1 FLOAT
 -2.706350e-03  -2.562538e-02  0 
 -2.719922e-03  -2.836043e-02  0 
 -1.615215e-03  -2.562245e-02  0 
 -5.364304e-04  -2.562016e-02  0 
 5.541412e-04  -2.562016e-02  0 
 1.632926e-03  -2.562246e-02  0 
 2.724060e-03  -2.562539e-02  0 
 -1.625720e-03  -2.835826e-02  0 
 -5.377724e-04  -2.835715e-02  0 
 5.554854e-04  -2.835715e-02  0 
 1.643433e-03  -2.835827e-02  0 
 2.737635e-03  -2.836044e-02  0 
VECTORS displacement_ITER2 FLOAT
 -2.704831e-03  -2.559813e-02  0 
 -2.718119e-03  -2.833347e-02  0 
 -1.613386e-03  -2.559551e-02  0 
 -5.363662e-04  -2.559358e-02  0 
 5.543890e-04  -2.559358e-02  0 
 1.631410e-03  -2.559551e-02  0 
 2.722857e-03  -2.559813e-02  0 
 -1.623705e-03  -2.833173e-02  0 
 -5.376479e-04  -2.833052e-02  0 
 5.556729e-04  -2.833052e-02  0 
 1.641731e-03  -2.833174e-02  0 
 2.736148e-03  -2.833348e-02  0 
VECTORS displacement_ITER3 FLOAT
 -2.702282e-03  -2.557552e-02  0 
 -2.715070e-03  -2.831153e-02  0 
 -1.610322e-03  -2.557341e-02  0 
 -5.361381e-04  -2.557254e-02  0 
 5.547870e-04  -2.557254e-02  0 
 1.628970e-03  -2.557342e-02  0 
 2.720928e-03  -2.557553e-02  0 
 -1.620375e-03  -2.831044e-02  0 
 -5.374047e-04  -2.830888e-02  0 
 5.560552e-04  -2.830888e-02  0 
 1.639024e-03  -2.831044e-02  0 
 2.733717e-03  -2.831153e-02  0 
VECTORS displacement_ITER4 FLOAT
 -2.701487e-03  -2.556993e-02  0 
 -2.714137e-03  -2.830549e-02  0 
 -1.609632e-03  -2.556793e-02  0 
 -5.361638e-04  -2.556684e-02  0 
 5.549461e-04  -2.556684e-02  0 
 1.628414e-03  -2.556794e-02  0 
 2.720267e-03  -2.556994e-02  0 
 -1.619654e-03  -2.830456e-02  0 
 -5.374612e-04  -2.830343e-02  0 
 5.562443e-04  -2.830344e-02  0 
 1.638436e-03  -2.830456e-02  0 
 2.732918e-03  -2.830549e-02  0 
VECTORS displacement_ITER5 FLOAT
 -2.700924e-03  -2.556478e-02  0 
 -2.713492e-03  -2.829961e-02  0 
 -1.609292e-03  -2.556282e-02  0 
 -5.362400e-04  -2.556127e-02  0 
 5.550323e-04  -2.556127e-02  0 
 1.628084e-03  -2.556282e-02  0 
 2.719716e-03  -2.556478e-02  0 
 -1.619334e-03  -2.829875e-02  0 
 -5.375819e-04  -2.829823e-02  0 
 5.563739e-04  -2.829823e-02  0 
 1.638126e-03  -2.829875e-02  0 
 2.732283e-03  -2.829961e-02  0 
VECTORS displacement_ITER6 FLOAT
 -2.700582e-03  -2.556093e-02  0 
 -2.713104e-03  -2.829549e-02  0 
 -1.609022e-03  -2.555900e-02  0 
 -5.362438e-04  -2.555735e-02  0 
 5.550137e-04  -2.555735e-02  0 
 1.627792e-03  -2.555900e-02  0 
 2.719352e-03  -2.556093e-02  0 
 -1.619090e-03  -2.829464e-02  0 
 -5.376153e-04  -2.829429e-02  0 
 5.563840e-04  -2.829429e-02  0 
 1.637859e-03  -2.829463e-02  0 
 2.731872e-03  -2.829548e-02  0 
VECTORS displacement_ITER7 FLOAT
 -2.700612e-03  -2.555909e-02  0 
 -2.713109e-03  -2.829420e-02  0 
 -1.608805e-03  -2.555720e-02  0 
 -5.360879e-04  -2.555599e-02  0 
 5.550446e-04  -2.555602e-02  0 
 1.627632e-03  -2.555771e-02  0 
 2.719061e-03  -2.555963e-02  0 
 -1.618900e-03  -2.829332e-02  0 
 -5.374526e-04  -2.829265e-02  0 
 5.564309e-04  -2.829263e-02  0 
 1.637702e-03  -2.829300e-02  0 
 2.731586e-03  -2.829386e-02  0 
VECTORS displacement_ITER8 FLOAT
 -2.699996e-03  -2.555909e-02  0 
 -2.712531e-03  -2.829279e-02  0 
 -1.608789e-03  -2.555717e-02  0 
 -5.364248e-04  -2.555534e-02  0 
 5.546003e-04  -2.555528e-02  0 
 1.627387e-03  -2.555601e-02  0 
 2.719513e-03  -2.555788e-02  0 
 -1.618868e-03  -2.829192e-02  0 
 -5.378066e-04  -2.829165e-02  0 
 5.559585e-04  -2.829169e-02  0 
 1.637494e-03  -2.829284e-02  0 
 2.732006e-03  -2.829376e-02  0 
VECTORS displacement_ITER9 FLOAT
 -2.700549e-03  -2.555762e-02  0 
 -2.713080e-03  -2.829307e-02  0 
 -1.608628e-03  -2.555575e-02  0 
 -5.359262e-04  -2.555477e-02  0 
 5.550654e-04  -2.555479e-02  0 
 1.627438e-03  -2.555632e-02  0 
 2.718836e-03  -2.555822e-02  0 
 -1.618721e-03  -2.829214e-02  0 
 -5.372964e-04  -2.829106e-02  0 
 5.564206e-04  -2.829102e-02  0 
 1.637546e-03  -2.829144e-02  0 
 2.731346e-03  -2.829234e-02  0 
VECTORS displacement_ITER10 FLOAT
 -2.700217e-03  -2.555729e-02  0 
 -2.712729e-03  -2.829187e-02  0 
 -1.608626e-03  -2.555540e-02  0 
 -5.361511e-04  -2.555408e-02  0 
 5.548350e-04  -2.555408e-02  0 
 1.627373e-03  -2.555538e-02  0 
 2.719019e-03  -2.555727e-02  0 
 -1.618745e-03  -2.829095e-02  0 
 -5.374987e-04  -2.829030e-02  0 
 5.561971e-04  -2.829031e-02  0 
 1.637470e-03  -2.829113e-02  0 
 2.731565e-03  -2.829206e-02  0 
VECTORS displacement_ITER11 FLOAT
 -2.700196e-03  -2.555690e-02  0 
 -2.712729e-03  -2.829152e-02  0 
 -1.608604e-03  -2.555501e-02  0 
 -5.361204e-04  -2.555367e-02  0 
 5.548576e-04  -2.555367e-02  0 
 1.627356e-03  -2.555499e-02  0 
 2.718954e-03  -2.555689e-02  0 
 -1.618718e-03  -2.829059e-02  0 
 -5.374730e-04  -2.828987e-02  0 
 5.562092e-04  -2.828987e-02  0 
 1.637470e-03  -2.829059e-02  0 
 2.731486e-03  -2.829153e-02  0 
VECTORS displacement_ITER12 FLOAT
 -2.700182e-03  -2.555679e-02  0 
 -2.712716e-03  -2.829141e-02  0 
 -1.608596e-03  -2.555490e-02  0 
 -5.361152e-04  -2.555357e-02  0 
 5.548513e-04  -2.555357e-02  0 
 1.627345e-03  -2.555489e-02  0 
 2.718941e-03  -2.555678e-02  0 
 -1.618712e-03  -2.829047e-02  0 
 -5.374677e-04  -2.828974e-02  0 
 5.562031e-04  -2.828974e-02  0 
 1.637460e-03  -2.829048e-02  0 
 2.731476e-03  -2.829142e-02  0 
VECTORS displacement_ITER13 FLOAT
 -2.700177e-03  -2.555676e-02  0 
 -2.712712e-03  -2.829136e-02  0 
 -1.608593e-03  -2.555486e-02  0 
 -5.361117e-04  -2.555353e-02  0 
 5.548521e-04  -2.555353e-02  0 
 1.627343e-03  -2.555485e-02  0 
 2.718936e-03  -2.555674e-02  0 
 -1.618710e-03  -2.829042e-02  0 
 -5.374636e-04  -2.828970e-02  0 
 5.562043e-04  -2.828970e-02  0 
 1.637459e-03  -2.829044e-02  0 
 2.731472e-03  -2.829137e-02  0 
VECTORS displacement_ITER14 FLOAT
 -2.700176e-03  -2.555671e-02  0 
 -2.712712e-03  -2.829131e-02  0 
 -1.608592e-03  -2.555481e-02  0 
 -5.361068e-04  -2.555348e-02  0 
 5.548565e-04  -2.555348e-02  0 
 1.627341e-03  -2.555481e-02  0 
 2.718927e-03  -2.555670e-02  0 
 -1.618709e-03  -2.829037e-02  0 
 -5.374581e-04  -2.828965e-02  0 
 5.562088e-04  -2.828965e-02  0 
 1.637458e-03  -2.829038e-02  0 
 2.731462e-03  -2.829131e-02  0 
VECTORS displacement_ITER15 FLOAT
 -2.700176e-03  -2.555669e-02  0 
 -2.712713e-03  -2.829130e-02  0 
 -1.608591e-03  -2.555480e-02  0 
 -5.361048e-04  -2.555347e-02  0 
 5.548576e-04  -2.555347e-02  0 
 1.627341e-03  -2.555480e-02  0 
 2.718924e-03  -2.555669e-02  0 
 -1.618708e-03  -2.829036e-02  0 
 -5.374566e-04  -2.828963e-02  0 
 5.562096e-04  -2.828963e-02  0 
 1.637458e-03  -2.829036e-02  0 
 2.731459e-03  -2.829129e-02  0 
VECTORS displacement_ITER16 FLOAT
 -2.700176e-03  -2.555669e-02  0 
 -2.712711e-03  -2.829129e-02  0 
 -1.608591e-03  -2.555479e-02  0 
 -5.361046e-04  -2.555347e-02  0 
 5.548567e-04  -2.555347e-02  0 
 1.627340e-03  -2.555479e-02  0 
 2.718924e-03  -2.555669e-02  0 
 -1.618707e-03  -2.829036e-02  0 
 -5.374567e-04  -2.828962e-02  0 
 5.562085e-04  -2.828962e-02  0 
 1.637457e-03  -2.829035e-02  0 
 2.731459e-03  -2.829129e-02  0 
VECTORS displacement_ITER17 FLOAT
 -2.700175e-03  -2.555668e-02  0 
 -2.712710e-03  -2.829129e-02  0 
 -1.608590e-03  -2.555479e-02  0 
 -5.361049e-04  -2.555346e-02  0 
 5.548558e-04  -2.555346e-02  0 
 1.627340e-03  -2.555479e-02  0 
 2.718924e-03  -2.555668e-02  0 
 -1.618707e-03  -2.829035e-02  0 
 -5.374571e-04  -2.828962e-02  0 
 5.562078e-04  -2.828962e-02  0 
 1.637457e-03  -2.829035e-02  0 
 2.731460e-03  -2.829129e-02  0 
VECTORS displacement_ITER18 FLOAT
 -2.700174e-03  -2.555668e-02  0 
 -2.712710e-03  -2.829129e-02  0 
 -1.608590e-03  -2.555479e-02  0 
 -5.361053e-04  -2.555346e-02  0 
 5.548556e-04  -2.555346e-02  0 
 1.627340e-03  -2.555479e-02  0 
 2.718924e-03  -2.555668e-02  0 
 -1.618707e-03  -2.829035e-02  0 
 -5.374574e-04  -2.828962e-02  0 
 5.562076e-04  -2.828962e-02  0 
 1.637457e-03  -2.829035e-02  0 
 2.731460e-03  -2.829129e-02  0 
VECTORS displacement_ITER19 FLOAT
 -2.700174e-03  -2.555668e-02  0 
 -2.712709e-03  -2.829128e-02  0 
 -1.608590e-03  -2.555479e-02  0 
 -5.361055e-04  -2.555346e-02  0 
 5.548555e-04  -2.555346e-02  0 
 1.627340e-03  -2.555479e-02  0 
 2.718924e-03  -2.555668e-02  0 
 -1.618707e-03  -2.829035e-02  0 
 -5.374576e-04  -2.828962e-02  0 
 5.562076e-04  -2.828962e-02  0 
 1.637457e-03  -2.829035e-02  0 
 2.731459e-03  -2.829128e-02  0 
VECTORS displacement_ITER20 FLOAT
 -2.700174e-03  -2.555668e-02  0 
 -2.712709e-03  -2.829128e-02  0 
 -1.608590e-03  -2.555478e-02  0 
 -5.361054e-04  -2.555346e-02  0 
 5.548555e-04  -2.555346e-02  0 
 1.627340e-03  -2.555478e-02  0 
 2.718924e-03  -2.555668e-02  0 
 -1.618707e-03  -2.829035e-02  0 
 -5.374576e-04  -2.828962e-02  0 
 5.562075e-04  -2.828962e-02  0 
 1.637457e-03  -2.829035e-02  0 
 2.731459e-03  -2.829128e-02  0 
VECTORS displacement_ITER21 FLOAT
 -2.700174e-03  -2.555668e-02  0 
 -2.712709e-03  -2.829128e-02  0 
 -1.608590e-03  -2.555478e-02  0 
 -5.361054e-04  -2.555346e-02  0 
 5.548554e-04  -2.555346e-02  0 
 1.627340e-03  -2.555478e-02  0 
 2.718924e-03  -2.555668e-02  0 
 -1.618707e-03  -2.829035e-02  0 
 -5.374575e-04  -2.828962e-02  0 
 5.562075e-04  -2.828962e-02  0 
 1.637457e-03  -2.829035e-02  0 
 2.731459e-03  -2.829128e-02  0 
VECTORS displacement_ITER22 FLOAT
 -2.700174e-03  -2.555668e-02  0 
 -2.712709e-03  -2.829128e-02  0 
 -1.608590e-03  -2.555478e-02  0 
 -5.361054e-04  -2.555346e-02  0 
 5.548554e-04  -2.555346e-02  0 
 1.627340e-03  -2.555478e-02  0 
 2.718924e-03  -2.555668e-02  0 
 -1.618707e-03  -2.829034e-02  0 
 -5.374575e-04  -2.828962e-02  0 
 5.562075e-04  -2.828962e-02  0 
 1.637457e-03  -2.829034e-02  0 
 2.731459e-03  -2.829128e-02  0 
VECTORS displacement_ITER23 FLOAT
 -2.700174e-03  -2.555668e-02  0 
 -2.712709e-03  -2.829128e-02  0 
 -1.608590e-03  -2.555478e-02  0 
 -5.361054e-04  -2.555346e-02  0 
 5.548554e-04  -2.555346e-02  0 
 1.627340e-03  -2.555478e-02  0 
 2.718924e-03  -2.555668e-02  0 
 -1.618707e-03  -2.829034e-02  0 
 -5.374575e-04  -2.828962e-02  0 
 5.562075e-04  -2.828962e-02  0 
 1.637457e-03  -2.829034e-02  0 
 2.731459e-03  -2.829128e-02  0 
VECTORS displacement_ITER24 FLOAT
 -2.700174e-03  -2.555668e-02  0 
 -2.712709e-03  -2.829128e-02  0 
 -1.608590e-03  -2.555478e-02  0 
 -5.361054e-04  -2.555346e-02  0 
 5.548554e-04  -2.555346e-02  0 
 1.627340e-03  -2.555478e-02  0 
 2.718924e-03  -2.555668e-02  0 
 -1.618707e-03  -2.829034e-02  0 
 -5.374575e-04  -2.828962e-02  0 
 5.562075e-04  -2.828962e-02  0 
 1.637457e-03  -2.829034e-02  0 
 2.731459e-03  -2.829128e-02  0 
CELL_DATA 5
TENSORS element_stresses FLOAT
 -2.255783e-02  -4.769048e-03  0 
 -4.769048e-03  3.153845e-04  0 
 0  0  0 

 -1.090990e-03  -6.721686e-03  0 
 -6.721686e-03  1.864274e-04  0 
 0  0  0 

 -3.115171e-08  -8.268455e-03  0 
 -8.268455e-03  2.098190e-09  0 
 0  0  0 

 1.090989e-03  -6.721691e-03  0 
 -6.721691e-03  -1.864105e-04  0 
 0  0  0 

 2.255786e-02  -4.769120e-03  0 
 -4.769120e-03  -3.153720e-04  0 
 0  0  0 

TENSORS element_stresses FLOAT
 -2.255783e-02  -4.769048e-03  0 
 -4.769048e-03  3.153845e-04  0 
 0  0  0 

 -1.090990e-03  -6.721686e-03  0 
 -6.721686e-03  1.864274e-04  0 
 0  0  0 

 -3.115171e-08  -8.268455e-03  0 
 -8.268455e-03  2.098190e-09  0 
 0  0  0 

 1.090989e-03  -6.721691e-03  0 
 -6.721691e-03  -1.864105e-04  0 
 0  0  0 

 2.255786e-02  -4.769120e-03  0 
 -4.769120e-03  -3.153720e-04  0 
 0  0  0 

