# vtk DataFile Version 3.1
this is an vtk file created by FEMAC
ASCII
DATASET UNSTRUCTURED_GRID
POINTS 12 FLOAT
7.000000 0.000000 0.000000
7.500000 0.000000 0.000000
7.000000 0.200000 0.000000
7.000000 0.400000 0.000000
7.000000 0.600000 0.000000
7.000000 0.800000 0.000000
7.000000 1.000000 0.000000
7.500000 0.200000 0.000000
7.500000 0.400000 0.000000
7.500000 0.600000 0.000000
7.500000 0.800000 0.000000
7.500000 1.000000 0.000000
CELLS 5 25 
4 0 1 7 2
4 2 7 8 3
4 3 8 9 4
4 4  9 10  5
4 5 10 11  6
CELL_TYPES 5
9 9 9 9 9 
POINT_DATA 12
VECTORS displacement_ITER1 FLOAT
 -2.721269e-03  -2.835880e-02  0 
 -2.725018e-03  -3.110678e-02  0 
 -1.622310e-03  -2.835906e-02  0 
 -5.412659e-04  -2.835799e-02  0 
 5.589788e-04  -2.835799e-02  0 
 1.640023e-03  -2.835905e-02  0 
 2.738982e-03  -2.835880e-02  0 
 -1.625953e-03  -3.110826e-02  0 
 -5.408462e-04  -3.110912e-02  0 
 5.585570e-04  -3.110912e-02  0 
 1.643664e-03  -3.110826e-02  0 
 2.742729e-03  -3.110678e-02  0 
VECTORS displacement_ITER2 FLOAT
 -2.718830e-03  -2.833264e-02  0 
 -2.722891e-03  -3.107646e-02  0 
 -1.621613e-03  -2.833247e-02  0 
 -5.403707e-04  -2.833064e-02  0 
 5.583961e-04  -2.833064e-02  0 
 1.639639e-03  -2.833246e-02  0 
 2.736858e-03  -2.833263e-02  0 
 -1.625772e-03  -3.107733e-02  0 
 -5.399773e-04  -3.107841e-02  0 
 5.580011e-04  -3.107841e-02  0 
 1.643796e-03  -3.107733e-02  0 
 2.740917e-03  -3.107646e-02  0 
VECTORS displacement_ITER3 FLOAT
 -2.715199e-03  -2.831106e-02  0 
 -2.719691e-03  -3.105033e-02  0 
 -1.619847e-03  -2.831033e-02  0 
 -5.383362e-04  -2.830946e-02  0 
 5.569841e-04  -2.830946e-02  0 
 1.638496e-03  -2.831033e-02  0 
 2.733850e-03  -2.831106e-02  0 
 -1.624825e-03  -3.105017e-02  0 
 -5.380722e-04  -3.104979e-02  0 
 5.567196e-04  -3.104979e-02  0 
 1.643472e-03  -3.105017e-02  0 
 2.738340e-03  -3.105033e-02  0 
VECTORS displacement_ITER4 FLOAT
 -2.714230e-03  -2.830530e-02  0 
 -2.718820e-03  -3.104331e-02  0 
 -1.619370e-03  -2.830444e-02  0 
 -5.378450e-04  -2.830375e-02  0 
 5.566265e-04  -2.830375e-02  0 
 1.638152e-03  -2.830443e-02  0 
 2.733013e-03  -2.830529e-02  0 
 -1.624506e-03  -3.104294e-02  0 
 -5.375959e-04  -3.104232e-02  0 
 5.563773e-04  -3.104232e-02  0 
 1.643287e-03  -3.104294e-02  0 
 2.737601e-03  -3.104331e-02  0 
VECTORS displacement_ITER5 FLOAT
 -2.713595e-03  -2.829975e-02  0 
 -2.718231e-03  -3.103673e-02  0 
 -1.619135e-03  -2.829883e-02  0 
 -5.376615e-04  -2.829801e-02  0 
 5.564531e-04  -2.829801e-02  0 
 1.637927e-03  -2.829883e-02  0 
 2.732387e-03  -2.829975e-02  0 
 -1.624302e-03  -3.103633e-02  0 
 -5.373951e-04  -3.103587e-02  0 
 5.561873e-04  -3.103587e-02  0 
 1.643094e-03  -3.103633e-02  0 
 2.737023e-03  -3.103674e-02  0 
VECTORS displacement_ITER6 FLOAT
 -2.713178e-03  -2.829573e-02  0 
 -2.717829e-03  -3.103204e-02  0 
 -1.618982e-03  -2.829478e-02  0 
 -5.375672e-04  -2.829389e-02  0 
 5.563364e-04  -2.829390e-02  0 
 1.637751e-03  -2.829478e-02  0 
 2.731946e-03  -2.829574e-02  0 
 -1.624145e-03  -3.103164e-02  0 
 -5.372888e-04  -3.103131e-02  0 
 5.560590e-04  -3.103131e-02  0 
 1.642915e-03  -3.103164e-02  0 
 2.736598e-03  -3.103204e-02  0 
VECTORS displacement_ITER7 FLOAT
 -2.713004e-03  -2.829418e-02  0 
 -2.717647e-03  -3.103028e-02  0 
 -1.618892e-03  -2.829322e-02  0 
 -5.375158e-04  -2.829241e-02  0 
 5.562752e-04  -2.829241e-02  0 
 1.637647e-03  -2.829324e-02  0 
 2.731748e-03  -2.829420e-02  0 
 -1.624043e-03  -3.102990e-02  0 
 -5.372384e-04  -3.102956e-02  0 
 5.559996e-04  -3.102956e-02  0 
 1.642799e-03  -3.102989e-02  0 
 2.736393e-03  -3.103027e-02  0 
VECTORS displacement_ITER8 FLOAT
 -2.712891e-03  -2.829334e-02  0 
 -2.717515e-03  -3.102930e-02  0 
 -1.618822e-03  -2.829238e-02  0 
 -5.374828e-04  -2.829162e-02  0 
 5.562380e-04  -2.829162e-02  0 
 1.637575e-03  -2.829236e-02  0 
 2.731635e-03  -2.829332e-02  0 
 -1.623962e-03  -3.102895e-02  0 
 -5.372154e-04  -3.102859e-02  0 
 5.559617e-04  -3.102860e-02  0 
 1.642713e-03  -3.102896e-02  0 
 2.736273e-03  -3.102931e-02  0 
VECTORS displacement_ITER9 FLOAT
 -2.712816e-03  -2.829272e-02  0 
 -2.717442e-03  -3.102863e-02  0 
 -1.618793e-03  -2.829177e-02  0 
 -5.374909e-04  -2.829104e-02  0 
 5.562055e-04  -2.829104e-02  0 
 1.637528e-03  -2.829177e-02  0 
 2.731582e-03  -2.829273e-02  0 
 -1.623922e-03  -3.102830e-02  0 
 -5.372177e-04  -3.102794e-02  0 
 5.559400e-04  -3.102794e-02  0 
 1.642659e-03  -3.102830e-02  0 
 2.736199e-03  -3.102863e-02  0 
VECTORS displacement_ITER10 FLOAT
 -2.712775e-03  -2.829197e-02  0 
 -2.717393e-03  -3.102782e-02  0 
 -1.618749e-03  -2.829102e-02  0 
 -5.374519e-04  -2.829029e-02  0 
 5.562325e-04  -2.829030e-02  0 
 1.637503e-03  -2.829105e-02  0 
 2.731500e-03  -2.829200e-02  0 
 -1.623867e-03  -3.102751e-02  0 
 -5.371782e-04  -3.102717e-02  0 
 5.559707e-04  -3.102717e-02  0 
 1.642624e-03  -3.102750e-02  0 
 2.736104e-03  -3.102781e-02  0 
VECTORS displacement_ITER11 FLOAT
 -2.712710e-03  -2.829157e-02  0 
 -2.717310e-03  -3.102731e-02  0 
 -1.618730e-03  -2.829062e-02  0 
 -5.374792e-04  -2.828986e-02  0 
 5.561940e-04  -2.828985e-02  0 
 1.637472e-03  -2.829056e-02  0 
 2.731499e-03  -2.829150e-02  0 
 -1.623844e-03  -3.102702e-02  0 
 -5.372169e-04  -3.102670e-02  0 
 5.559229e-04  -3.102670e-02  0 
 1.642586e-03  -3.102707e-02  0 
 2.736107e-03  -3.102736e-02  0 
VECTORS displacement_ITER12 FLOAT
 -2.712762e-03  -2.829135e-02  0 
 -2.717361e-03  -3.102727e-02  0 
 -1.618707e-03  -2.829041e-02  0 
 -5.374255e-04  -2.828974e-02  0 
 5.562403e-04  -2.828975e-02  0 
 1.637471e-03  -2.829053e-02  0 
 2.731427e-03  -2.829147e-02  0 
 -1.623820e-03  -3.102698e-02  0 
 -5.371607e-04  -3.102657e-02  0 
 5.559727e-04  -3.102657e-02  0 
 1.642583e-03  -3.102687e-02  0 
 2.736031e-03  -3.102716e-02  0 
VECTORS displacement_ITER13 FLOAT
 -2.712714e-03  -2.829137e-02  0 
 -2.717314e-03  -3.102716e-02  0 
 -1.618712e-03  -2.829043e-02  0 
 -5.374587e-04  -2.828970e-02  0 
 5.562059e-04  -2.828970e-02  0 
 1.637461e-03  -2.829042e-02  0 
 2.731467e-03  -2.829136e-02  0 
 -1.623824e-03  -3.102688e-02  0 
 -5.371934e-04  -3.102652e-02  0 
 5.559389e-04  -3.102652e-02  0 
 1.642572e-03  -3.102688e-02  0 
 2.736069e-03  -3.102717e-02  0 
VECTORS displacement_ITER14 FLOAT
 -2.712702e-03  -2.829133e-02  0 
 -2.717303e-03  -3.102709e-02  0 
 -1.618711e-03  -2.829039e-02  0 
 -5.374657e-04  -2.828965e-02  0 
 5.561995e-04  -2.828965e-02  0 
 1.637458e-03  -2.829036e-02  0 
 2.731472e-03  -2.829130e-02  0 
 -1.623822e-03  -3.102681e-02  0 
 -5.371989e-04  -3.102647e-02  0 
 5.559338e-04  -3.102647e-02  0 
 1.642569e-03  -3.102683e-02  0 
 2.736072e-03  -3.102712e-02  0 
VECTORS displacement_ITER15 FLOAT
 -2.712710e-03  -2.829130e-02  0 
 -2.717311e-03  -3.102709e-02  0 
 -1.618708e-03  -2.829036e-02  0 
 -5.374584e-04  -2.828963e-02  0 
 5.562068e-04  -2.828963e-02  0 
 1.637458e-03  -2.829036e-02  0 
 2.731461e-03  -2.829130e-02  0 
 -1.623820e-03  -3.102680e-02  0 
 -5.371914e-04  -3.102645e-02  0 
 5.559413e-04  -3.102645e-02  0 
 1.642570e-03  -3.102680e-02  0 
 2.736062e-03  -3.102709e-02  0 
VECTORS displacement_ITER16 FLOAT
 -2.712712e-03  -2.829129e-02  0 
 -2.717313e-03  -3.102709e-02  0 
 -1.618707e-03  -2.829035e-02  0 
 -5.374561e-04  -2.828962e-02  0 
 5.562088e-04  -2.828962e-02  0 
 1.637458e-03  -2.829036e-02  0 
 2.731458e-03  -2.829129e-02  0 
 -1.623819e-03  -3.102680e-02  0 
 -5.371895e-04  -3.102645e-02  0 
 5.559429e-04  -3.102645e-02  0 
 1.642570e-03  -3.102680e-02  0 
 2.736059e-03  -3.102708e-02  0 
VECTORS displacement_ITER17 FLOAT
 -2.712710e-03  -2.829129e-02  0 
 -2.717311e-03  -3.102708e-02  0 
 -1.618707e-03  -2.829035e-02  0 
 -5.374573e-04  -2.828962e-02  0 
 5.562077e-04  -2.828962e-02  0 
 1.637457e-03  -2.829035e-02  0 
 2.731460e-03  -2.829129e-02  0 
 -1.623819e-03  -3.102680e-02  0 
 -5.371909e-04  -3.102644e-02  0 
 5.559415e-04  -3.102644e-02  0 
 1.642569e-03  -3.102679e-02  0 
 2.736060e-03  -3.102708e-02  0 
VECTORS displacement_ITER18 FLOAT
 -2.712709e-03  -2.829129e-02  0 
 -2.717310e-03  -3.102708e-02  0 
 -1.618708e-03  -2.829035e-02  0 
 -5.374580e-04  -2.828962e-02  0 
 5.562072e-04  -2.828962e-02  0 
 1.637457e-03  -2.829035e-02  0 
 2.731460e-03  -2.829129e-02  0 
 -1.623819e-03  -3.102679e-02  0 
 -5.371916e-04  -3.102644e-02  0 
 5.559409e-04  -3.102644e-02  0 
 1.642569e-03  -3.102679e-02  0 
 2.736061e-03  -3.102708e-02  0 
VECTORS displacement_ITER19 FLOAT
 -2.712709e-03  -2.829128e-02  0 
 -2.717310e-03  -3.102708e-02  0 
 -1.618707e-03  -2.829035e-02  0 
 -5.374578e-04  -2.828962e-02  0 
 5.562075e-04  -2.828962e-02  0 
 1.637457e-03  -2.829035e-02  0 
 2.731459e-03  -2.829128e-02  0 
 -1.623819e-03  -3.102679e-02  0 
 -5.371914e-04  -3.102644e-02  0 
 5.559410e-04  -3.102644e-02  0 
 1.642569e-03  -3.102679e-02  0 
 2.736060e-03  -3.102708e-02  0 
VECTORS displacement_ITER20 FLOAT
 -2.712709e-03  -2.829128e-02  0 
 -2.717310e-03  -3.102708e-02  0 
 -1.618707e-03  -2.829035e-02  0 
 -5.374574e-04  -2.828962e-02  0 
 5.562077e-04  -2.828962e-02  0 
 1.637457e-03  -2.829035e-02  0 
 2.731459e-03  -2.829128e-02  0 
 -1.623819e-03  -3.102679e-02  0 
 -5.371910e-04  -3.102644e-02  0 
 5.559412e-04  -3.102644e-02  0 
 1.642569e-03  -3.102679e-02  0 
 2.736060e-03  -3.102708e-02  0 
VECTORS displacement_ITER21 FLOAT
 -2.712709e-03  -2.829128e-02  0 
 -2.717310e-03  -3.102708e-02  0 
 -1.618707e-03  -2.829035e-02  0 
 -5.374574e-04  -2.828962e-02  0 
 5.562075e-04  -2.828962e-02  0 
 1.637457e-03  -2.829035e-02  0 
 2.731459e-03  -2.829128e-02  0 
 -1.623819e-03  -3.102679e-02  0 
 -5.371911e-04  -3.102644e-02  0 
 5.559410e-04  -3.102644e-02  0 
 1.642569e-03  -3.102679e-02  0 
 2.736060e-03  -3.102708e-02  0 
VECTORS displacement_ITER22 FLOAT
 -2.712709e-03  -2.829128e-02  0 
 -2.717310e-03  -3.102708e-02  0 
 -1.618707e-03  -2.829035e-02  0 
 -5.374575e-04  -2.828962e-02  0 
 5.562075e-04  -2.828962e-02  0 
 1.637457e-03  -2.829034e-02  0 
 2.731459e-03  -2.829128e-02  0 
 -1.623819e-03  -3.102679e-02  0 
 -5.371911e-04  -3.102644e-02  0 
 5.559411e-04  -3.102644e-02  0 
 1.642569e-03  -3.102679e-02  0 
 2.736060e-03  -3.102708e-02  0 
VECTORS displacement_ITER23 FLOAT
 -2.712709e-03  -2.829128e-02  0 
 -2.717310e-03  -3.102708e-02  0 
 -1.618707e-03  -2.829034e-02  0 
 -5.374575e-04  -2.828962e-02  0 
 5.562075e-04  -2.828962e-02  0 
 1.637457e-03  -2.829034e-02  0 
 2.731459e-03  -2.829128e-02  0 
 -1.623819e-03  -3.102679e-02  0 
 -5.371911e-04  -3.102644e-02  0 
 5.559411e-04  -3.102644e-02  0 
 1.642569e-03  -3.102679e-02  0 
 2.736060e-03  -3.102708e-02  0 
VECTORS displacement_ITER24 FLOAT
 -2.712709e-03  -2.829128e-02  0 
 -2.717310e-03  -3.102708e-02  0 
 -1.618707e-03  -2.829034e-02  0 
 -5.374575e-04  -2.828962e-02  0 
 5.562075e-04  -2.828962e-02  0 
 1.637457e-03  -2.829034e-02  0 
 2.731459e-03  -2.829128e-02  0 
 -1.623819e-03  -3.102679e-02  0 
 -5.371911e-04  -3.102644e-02  0 
 5.559411e-04  -3.102644e-02  0 
 1.642569e-03  -3.102679e-02  0 
 2.736060e-03  -3.102708e-02  0 
CELL_DATA 5
TENSORS element_stresses FLOAT
 -9.661843e-03  -2.696296e-03  0 
 -2.696296e-03  1.699075e-04  0 
 0  0  0 

 -4.433966e-04  -4.120854e-03  0 
 -4.120854e-03  1.371857e-04  0 
 0  0  0 

 -1.258317e-08  -5.115677e-03  0 
 -5.115677e-03  1.033575e-08  0 
 0  0  0 

 4.434005e-04  -4.120864e-03  0 
 -4.120864e-03  -1.371681e-04  0 
 0  0  0 

 9.661851e-03  -2.696310e-03  0 
 -2.696310e-03  -1.699007e-04  0 
 0  0  0 

TENSORS element_stresses FLOAT
 -9.661843e-03  -2.696296e-03  0 
 -2.696296e-03  1.699075e-04  0 
 0  0  0 

 -4.433966e-04  -4.120854e-03  0 
 -4.120854e-03  1.371857e-04  0 
 0  0  0 

 -1.258317e-08  -5.115677e-03  0 
 -5.115677e-03  1.033575e-08  0 
 0  0  0 

 4.434005e-04  -4.120864e-03  0 
 -4.120864e-03  -1.371681e-04  0 
 0  0  0 

 9.661851e-03  -2.696310e-03  0 
 -2.696310e-03  -1.699007e-04  0 
 0  0  0 

