# vtk DataFile Version 3.1
this is an vtk file created by FEMAC
ASCII
DATASET UNSTRUCTURED_GRID
POINTS 12 FLOAT
1.500000 0.000000 0.000000
2.000000 0.000000 0.000000
1.500000 0.200000 0.000000
1.500000 0.400000 0.000000
1.500000 0.600000 0.000000
1.500000 0.800000 0.000000
1.500000 1.000000 0.000000
2.000000 0.200000 0.000000
2.000000 0.400000 0.000000
2.000000 0.600000 0.000000
2.000000 0.800000 0.000000
2.000000 1.000000 0.000000
CELLS 5 25 
4 0 1 7 2
4 2 7 8 3
4 3 8 9 4
4 4  9 10  5
4 5 10 11  6
CELL_TYPES 5
9 9 9 9 9 
POINT_DATA 12
VECTORS displacement_ITER1 FLOAT
 -1.260093e-03  -2.459312e-03  0 
 -1.569110e-03  -3.966796e-03  0 
 -7.205670e-04  -2.429028e-03  0 
 -2.614500e-04  -2.408531e-03  0 
 2.791607e-04  -2.408532e-03  0 
 7.382777e-04  -2.429033e-03  0 
 1.277804e-03  -2.459320e-03  0 
 -9.131148e-04  -3.942355e-03  0 
 -3.197700e-04  -3.934591e-03  0 
 3.374829e-04  -3.934592e-03  0 
 9.308278e-04  -3.942360e-03  0 
 1.586823e-03  -3.966803e-03  0 
VECTORS displacement_ITER2 FLOAT
 -1.242547e-03  -2.480068e-03  0 
 -1.554238e-03  -3.941070e-03  0 
 -7.239635e-04  -2.447663e-03  0 
 -2.722347e-04  -2.398620e-03  0 
 2.696981e-04  -2.395765e-03  0 
 7.345705e-04  -2.395393e-03  0 
 1.291661e-03  -2.425517e-03  0 
 -9.146166e-04  -3.916570e-03  0 
 -3.321834e-04  -3.926339e-03  0 
 3.272980e-04  -3.927826e-03  0 
 9.276375e-04  -3.949160e-03  0 
 1.600257e-03  -3.975107e-03  0 
VECTORS displacement_ITER3 FLOAT
 -1.261933e-03  -2.441373e-03  0 
 -1.575762e-03  -3.967554e-03  0 
 -7.188372e-04  -2.409194e-03  0 
 -2.529106e-04  -2.388315e-03  0 
 2.873034e-04  -2.387640e-03  0 
 7.353553e-04  -2.408157e-03  0 
 1.269909e-03  -2.440656e-03  0 
 -9.077745e-04  -3.939874e-03  0 
 -3.145459e-04  -3.914902e-03  0 
 3.448944e-04  -3.913481e-03  0 
 9.277653e-04  -3.911937e-03  0 
 1.579917e-03  -3.938148e-03  0 
VECTORS displacement_ITER4 FLOAT
 -1.256515e-03  -2.446522e-03  0 
 -1.569775e-03  -3.958789e-03  0 
 -7.187130e-04  -2.413870e-03  0 
 -2.569018e-04  -2.389672e-03  0 
 2.822530e-04  -2.388468e-03  0 
 7.339420e-04  -2.400802e-03  0 
 1.275139e-03  -2.433193e-03  0 
 -9.078126e-04  -3.931138e-03  0 
 -3.186700e-04  -3.913290e-03  0 
 3.403725e-04  -3.912871e-03  0 
 9.254727e-04  -3.923013e-03  0 
 1.586487e-03  -3.950169e-03  0 
VECTORS displacement_ITER5 FLOAT
 -1.254916e-03  -2.449841e-03  0 
 -1.567702e-03  -3.958470e-03  0 
 -7.183042e-04  -2.416998e-03  0 
 -2.581468e-04  -2.392838e-03  0 
 2.803458e-04  -2.391558e-03  0 
 7.336309e-04  -2.401286e-03  0 
 1.276437e-03  -2.433674e-03  0 
 -9.074170e-04  -3.930809e-03  0 
 -3.202769e-04  -3.915313e-03  0 
 3.387167e-04  -3.915153e-03  0 
 9.246247e-04  -3.928872e-03  0 
 1.588578e-03  -3.956435e-03  0 
VECTORS displacement_ITER6 FLOAT
 -1.255623e-03  -2.449735e-03  0 
 -1.568067e-03  -3.960595e-03  0 
 -7.178540e-04  -2.416851e-03  0 
 -2.575849e-04  -2.394440e-03  0 
 2.806717e-04  -2.393358e-03  0 
 7.338795e-04  -2.404545e-03  0 
 1.275238e-03  -2.437071e-03  0 
 -9.069756e-04  -3.932854e-03  0 
 -3.199943e-04  -3.917104e-03  0 
 3.392073e-04  -3.916857e-03  0 
 9.245082e-04  -3.929718e-03  0 
 1.587902e-03  -3.957379e-03  0 
VECTORS displacement_ITER7 FLOAT
 -1.255914e-03  -2.449123e-03  0 
 -1.568192e-03  -3.960733e-03  0 
 -7.176867e-04  -2.416205e-03  0 
 -2.573881e-04  -2.394259e-03  0 
 2.808683e-04  -2.393287e-03  0 
 7.340840e-04  -2.405720e-03  0 
 1.274565e-03  -2.438323e-03  0 
 -9.068430e-04  -3.932976e-03  0 
 -3.198937e-04  -3.917362e-03  0 
 3.395044e-04  -3.917078e-03  0 
 9.245296e-04  -3.929255e-03  0 
 1.587476e-03  -3.956936e-03  0 
VECTORS displacement_ITER8 FLOAT
 -1.255654e-03  -2.449017e-03  0 
 -1.567855e-03  -3.959916e-03  0 
 -7.176353e-04  -2.416048e-03  0 
 -2.576276e-04  -2.393787e-03  0 
 2.806114e-04  -2.392832e-03  0 
 7.341537e-04  -2.405533e-03  0 
 1.274583e-03  -2.438148e-03  0 
 -9.068180e-04  -3.932177e-03  0 
 -3.201773e-04  -3.917084e-03  0 
 3.393259e-04  -3.916828e-03  0 
 9.244925e-04  -3.929139e-03  0 
 1.587615e-03  -3.956856e-03  0 
VECTORS displacement_ITER9 FLOAT
 -1.255409e-03  -2.449135e-03  0 
 -1.567604e-03  -3.959478e-03  0 
 -7.176116e-04  -2.416138e-03  0 
 -2.578188e-04  -2.393632e-03  0 
 2.803575e-04  -2.392665e-03  0 
 7.341471e-04  -2.405187e-03  0 
 1.274746e-03  -2.437786e-03  0 
 -9.067949e-04  -3.931747e-03  0 
 -3.203938e-04  -3.916873e-03  0 
 3.391218e-04  -3.916639e-03  0 
 9.244436e-04  -3.929227e-03  0 
 1.587796e-03  -3.956966e-03  0 
VECTORS displacement_ITER10 FLOAT
 -1.255309e-03  -2.449220e-03  0 
 -1.567530e-03  -3.959479e-03  0 
 -7.175768e-04  -2.416213e-03  0 
 -2.578614e-04  -2.393683e-03  0 
 2.802218e-04  -2.392710e-03  0 
 7.341349e-04  -2.405060e-03  0 
 1.274804e-03  -2.437641e-03  0 
 -9.067434e-04  -3.931741e-03  0 
 -3.204639e-04  -3.916779e-03  0 
 3.390384e-04  -3.916548e-03  0 
 9.244031e-04  -3.929250e-03  0 
 1.587827e-03  -3.956997e-03  0 
VECTORS displacement_ITER11 FLOAT
 -1.255347e-03  -2.449201e-03  0 
 -1.567591e-03  -3.959654e-03  0 
 -7.175622e-04  -2.416196e-03  0 
 -2.577929e-04  -2.393752e-03  0 
 2.802491e-04  -2.392783e-03  0 
 7.341460e-04  -2.405164e-03  0 
 1.274727e-03  -2.437740e-03  0 
 -9.067104e-04  -3.931908e-03  0 
 -3.204100e-04  -3.916801e-03  0 
 3.390986e-04  -3.916560e-03  0 
 9.243953e-04  -3.929140e-03  0 
 1.587725e-03  -3.956877e-03  0 
VECTORS displacement_ITER12 FLOAT
 -1.255319e-03  -2.449230e-03  0 
 -1.567570e-03  -3.959609e-03  0 
 -7.175729e-04  -2.416226e-03  0 
 -2.577991e-04  -2.393736e-03  0 
 2.802413e-04  -2.392763e-03  0 
 7.341514e-04  -2.405138e-03  0 
 1.274728e-03  -2.437711e-03  0 
 -9.067116e-04  -3.931864e-03  0 
 -3.204184e-04  -3.916794e-03  0 
 3.391011e-04  -3.916556e-03  0 
 9.243889e-04  -3.929108e-03  0 
 1.587718e-03  -3.956841e-03  0 
VECTORS displacement_ITER13 FLOAT
 -1.255312e-03  -2.449234e-03  0 
 -1.567565e-03  -3.959594e-03  0 
 -7.175760e-04  -2.416230e-03  0 
 -2.577980e-04  -2.393733e-03  0 
 2.802404e-04  -2.392758e-03  0 
 7.341523e-04  -2.405130e-03  0 
 1.274726e-03  -2.437702e-03  0 
 -9.067116e-04  -3.931851e-03  0 
 -3.204176e-04  -3.916789e-03  0 
 3.391032e-04  -3.916553e-03  0 
 9.243852e-04  -3.929100e-03  0 
 1.587715e-03  -3.956831e-03  0 
VECTORS displacement_ITER14 FLOAT
 -1.255317e-03  -2.449223e-03  0 
 -1.567570e-03  -3.959596e-03  0 
 -7.175762e-04  -2.416221e-03  0 
 -2.577880e-04  -2.393736e-03  0 
 2.802452e-04  -2.392760e-03  0 
 7.341520e-04  -2.405134e-03  0 
 1.274719e-03  -2.437706e-03  0 
 -9.067097e-04  -3.931852e-03  0 
 -3.204077e-04  -3.916782e-03  0 
 3.391102e-04  -3.916547e-03  0 
 9.243802e-04  -3.929095e-03  0 
 1.587709e-03  -3.956825e-03  0 
VECTORS displacement_ITER15 FLOAT
 -1.255320e-03  -2.449218e-03  0 
 -1.567571e-03  -3.959596e-03  0 
 -7.175764e-04  -2.416217e-03  0 
 -2.577844e-04  -2.393736e-03  0 
 2.802471e-04  -2.392761e-03  0 
 7.341519e-04  -2.405136e-03  0 
 1.274716e-03  -2.437707e-03  0 
 -9.067093e-04  -3.931852e-03  0 
 -3.204041e-04  -3.916780e-03  0 
 3.391128e-04  -3.916544e-03  0 
 9.243784e-04  -3.929093e-03  0 
 1.587706e-03  -3.956823e-03  0 
VECTORS displacement_ITER16 FLOAT
 -1.255320e-03  -2.449215e-03  0 
 -1.567570e-03  -3.959593e-03  0 
 -7.175769e-04  -2.416216e-03  0 
 -2.577834e-04  -2.393736e-03  0 
 2.802475e-04  -2.392760e-03  0 
 7.341520e-04  -2.405136e-03  0 
 1.274715e-03  -2.437707e-03  0 
 -9.067096e-04  -3.931849e-03  0 
 -3.204034e-04  -3.916778e-03  0 
 3.391136e-04  -3.916543e-03  0 
 9.243776e-04  -3.929093e-03  0 
 1.587706e-03  -3.956823e-03  0 
VECTORS displacement_ITER17 FLOAT
 -1.255320e-03  -2.449215e-03  0 
 -1.567570e-03  -3.959591e-03  0 
 -7.175773e-04  -2.416215e-03  0 
 -2.577830e-04  -2.393735e-03  0 
 2.802476e-04  -2.392759e-03  0 
 7.341522e-04  -2.405136e-03  0 
 1.274715e-03  -2.437707e-03  0 
 -9.067097e-04  -3.931847e-03  0 
 -3.204032e-04  -3.916777e-03  0 
 3.391139e-04  -3.916542e-03  0 
 9.243771e-04  -3.929093e-03  0 
 1.587706e-03  -3.956823e-03  0 
VECTORS displacement_ITER18 FLOAT
 -1.255320e-03  -2.449214e-03  0 
 -1.567570e-03  -3.959590e-03  0 
 -7.175775e-04  -2.416215e-03  0 
 -2.577828e-04  -2.393735e-03  0 
 2.802476e-04  -2.392759e-03  0 
 7.341522e-04  -2.405136e-03  0 
 1.274715e-03  -2.437707e-03  0 
 -9.067097e-04  -3.931847e-03  0 
 -3.204031e-04  -3.916777e-03  0 
 3.391139e-04  -3.916542e-03  0 
 9.243769e-04  -3.929093e-03  0 
 1.587706e-03  -3.956822e-03  0 
VECTORS displacement_ITER19 FLOAT
 -1.255320e-03  -2.449214e-03  0 
 -1.567570e-03  -3.959590e-03  0 
 -7.175775e-04  -2.416215e-03  0 
 -2.577825e-04  -2.393736e-03  0 
 2.802477e-04  -2.392760e-03  0 
 7.341522e-04  -2.405136e-03  0 
 1.274714e-03  -2.437707e-03  0 
 -9.067096e-04  -3.931847e-03  0 
 -3.204029e-04  -3.916777e-03  0 
 3.391140e-04  -3.916541e-03  0 
 9.243767e-04  -3.929093e-03  0 
 1.587706e-03  -3.956822e-03  0 
VECTORS displacement_ITER20 FLOAT
 -1.255320e-03  -2.449214e-03  0 
 -1.567569e-03  -3.959590e-03  0 
 -7.175776e-04  -2.416215e-03  0 
 -2.577825e-04  -2.393736e-03  0 
 2.802476e-04  -2.392760e-03  0 
 7.341522e-04  -2.405136e-03  0 
 1.274714e-03  -2.437707e-03  0 
 -9.067096e-04  -3.931847e-03  0 
 -3.204029e-04  -3.916777e-03  0 
 3.391139e-04  -3.916541e-03  0 
 9.243766e-04  -3.929093e-03  0 
 1.587706e-03  -3.956822e-03  0 
VECTORS displacement_ITER21 FLOAT
 -1.255320e-03  -2.449214e-03  0 
 -1.567569e-03  -3.959590e-03  0 
 -7.175777e-04  -2.416216e-03  0 
 -2.577825e-04  -2.393736e-03  0 
 2.802476e-04  -2.392760e-03  0 
 7.341523e-04  -2.405136e-03  0 
 1.274714e-03  -2.437707e-03  0 
 -9.067096e-04  -3.931847e-03  0 
 -3.204030e-04  -3.916777e-03  0 
 3.391139e-04  -3.916541e-03  0 
 9.243766e-04  -3.929093e-03  0 
 1.587706e-03  -3.956822e-03  0 
VECTORS displacement_ITER22 FLOAT
 -1.255320e-03  -2.449214e-03  0 
 -1.567569e-03  -3.959590e-03  0 
 -7.175777e-04  -2.416216e-03  0 
 -2.577825e-04  -2.393736e-03  0 
 2.802476e-04  -2.392760e-03  0 
 7.341523e-04  -2.405136e-03  0 
 1.274714e-03  -2.437707e-03  0 
 -9.067096e-04  -3.931847e-03  0 
 -3.204030e-04  -3.916777e-03  0 
 3.391139e-04  -3.916541e-03  0 
 9.243766e-04  -3.929093e-03  0 
 1.587706e-03  -3.956822e-03  0 
VECTORS displacement_ITER23 FLOAT
 -1.255320e-03  -2.449214e-03  0 
 -1.567569e-03  -3.959590e-03  0 
 -7.175777e-04  -2.416216e-03  0 
 -2.577825e-04  -2.393736e-03  0 
 2.802476e-04  -2.392760e-03  0 
 7.341523e-04  -2.405136e-03  0 
 1.274714e-03  -2.437707e-03  0 
 -9.067096e-04  -3.931847e-03  0 
 -3.204030e-04  -3.916777e-03  0 
 3.391139e-04  -3.916541e-03  0 
 9.243766e-04  -3.929093e-03  0 
 1.587706e-03  -3.956822e-03  0 
VECTORS displacement_ITER24 FLOAT
 -1.255320e-03  -2.449214e-03  0 
 -1.567569e-03  -3.959590e-03  0 
 -7.175777e-04  -2.416216e-03  0 
 -2.577825e-04  -2.393736e-03  0 
 2.802476e-04  -2.392760e-03  0 
 7.341523e-04  -2.405136e-03  0 
 1.274714e-03  -2.437707e-03  0 
 -9.067096e-04  -3.931847e-03  0 
 -3.204030e-04  -3.916777e-03  0 
 3.391139e-04  -3.916541e-03  0 
 9.243766e-04  -3.929093e-03  0 
 1.587706e-03  -3.956822e-03  0 
CELL_DATA 5
TENSORS element_stresses FLOAT
 -5.009069e-01  -2.269398e-02  0 
 -2.269398e-02  1.582321e-03  0 
 0  0  0 

 -2.457032e-02  -3.257057e-02  0 
 -3.257057e-02  2.016408e-03  0 
 0  0  0 

 -3.127199e-03  -4.073474e-02  0 
 -4.073474e-02  2.089896e-03  0 
 0  0  0 

 2.531807e-02  -3.460152e-02  0 
 -3.460152e-02  1.363345e-03  0 
 0  0  0 

 5.032863e-01  -2.564918e-02  0 
 -2.564918e-02  2.360830e-04  0 
 0  0  0 

TENSORS element_stresses FLOAT
 -5.009069e-01  -2.269398e-02  0 
 -2.269398e-02  1.582321e-03  0 
 0  0  0 

 -2.457032e-02  -3.257057e-02  0 
 -3.257057e-02  2.016408e-03  0 
 0  0  0 

 -3.127199e-03  -4.073474e-02  0 
 -4.073474e-02  2.089896e-03  0 
 0  0  0 

 2.531807e-02  -3.460152e-02  0 
 -3.460152e-02  1.363345e-03  0 
 0  0  0 

 5.032863e-01  -2.564918e-02  0 
 -2.564918e-02  2.360830e-04  0 
 0  0  0 

