# vtk DataFile Version 3.1
this is an vtk file created by FEMAC
ASCII
DATASET UNSTRUCTURED_GRID
POINTS 12 FLOAT
0.500000 0.000000 0.000000
1.000000 0.000000 0.000000
0.500000 0.200000 0.000000
0.500000 0.400000 0.000000
0.500000 0.600000 0.000000
0.500000 0.800000 0.000000
0.500000 1.000000 0.000000
1.000000 0.200000 0.000000
1.000000 0.400000 0.000000
1.000000 0.600000 0.000000
1.000000 0.800000 0.000000
1.000000 1.000000 0.000000
CELLS 5 25 
4 0 1 7 2
4 2 7 8 3
4 3 8 9 4
4 4  9 10  5
4 5 10 11  6
CELL_TYPES 5
9 9 9 9 9 
POINT_DATA 12
VECTORS displacement_ITER1 FLOAT
 -5.122648e-04  -4.050817e-04  0 
 -9.212224e-04  -1.302331e-03  0 
 -2.317232e-04  -3.669620e-04  0 
 -7.740343e-05  -4.118363e-04  0 
 1.439275e-04  -4.173259e-04  0 
 2.647286e-04  -4.727995e-04  0 
 4.610285e-04  -5.145572e-04  0 
 -4.939113e-04  -1.266911e-03  0 
 -1.589927e-04  -1.208503e-03  0 
 2.259174e-04  -1.205100e-03  0 
 5.205738e-04  -1.195830e-03  0 
 8.811994e-04  -1.228493e-03  0 
VECTORS displacement_ITER2 FLOAT
 -4.831855e-04  -4.413957e-04  0 
 -8.890442e-04  -1.250758e-03  0 
 -2.350311e-04  -3.993167e-04  0 
 -1.014135e-04  -4.074961e-04  0 
 1.191895e-04  -4.101618e-04  0 
 2.626983e-04  -4.386761e-04  0 
 4.869678e-04  -4.799712e-04  0 
 -4.989352e-04  -1.216981e-03  0 
 -1.854024e-04  -1.206357e-03  0 
 2.037608e-04  -1.207155e-03  0 
 5.157485e-04  -1.235469e-03  0 
 9.117401e-04  -1.271280e-03  0 
VECTORS displacement_ITER3 FLOAT
 -4.896815e-04  -4.210284e-04  0 
 -8.925494e-04  -1.249464e-03  0 
 -2.305340e-04  -3.762093e-04  0 
 -9.617755e-05  -3.972101e-04  0 
 1.205926e-04  -4.017025e-04  0 
 2.663077e-04  -4.450176e-04  0 
 4.780790e-04  -4.884064e-04  0 
 -4.960004e-04  -1.214227e-03  0 
 -1.845303e-04  -1.198640e-03  0 
 2.083624e-04  -1.198653e-03  0 
 5.158913e-04  -1.222276e-03  0 
 9.085872e-04  -1.259907e-03  0 
VECTORS displacement_ITER4 FLOAT
 -4.949370e-04  -4.110523e-04  0 
 -8.974248e-04  -1.255757e-03  0 
 -2.288560e-04  -3.659628e-04  0 
 -9.160656e-05  -3.961854e-04  0 
 1.235762e-04  -4.014921e-04  0 
 2.671737e-04  -4.507880e-04  0 
 4.728754e-04  -4.947721e-04  0 
 -4.945705e-04  -1.219776e-03  0 
 -1.807565e-04  -1.196358e-03  0 
 2.123094e-04  -1.195836e-03  0 
 5.158256e-04  -1.216194e-03  0 
 9.045293e-04  -1.254101e-03  0 
VECTORS displacement_ITER5 FLOAT
 -4.954243e-04  -4.114293e-04  0 
 -8.984381e-04  -1.259500e-03  0 
 -2.285981e-04  -3.661515e-04  0 
 -9.065933e-05  -3.982363e-04  0 
 1.234403e-04  -4.035154e-04  0 
 2.669410e-04  -4.513370e-04  0 
 4.726049e-04  -4.953404e-04  0 
 -4.940063e-04  -1.223125e-03  0 
 -1.801923e-04  -1.196335e-03  0 
 2.127112e-04  -1.195735e-03  0 
 5.152270e-04  -1.217095e-03  0 
 9.042021e-04  -1.255232e-03  0 
VECTORS displacement_ITER6 FLOAT
 -4.942344e-04  -4.150239e-04  0 
 -8.979224e-04  -1.261127e-03  0 
 -2.289338e-04  -3.695637e-04  0 
 -9.112120e-05  -4.001500e-04  0 
 1.224850e-04  -4.051553e-04  0 
 2.666316e-04  -4.502887e-04  0 
 4.737029e-04  -4.941723e-04  0 
 -4.938940e-04  -1.224579e-03  0 
 -1.809338e-04  -1.197209e-03  0 
 2.120646e-04  -1.196654e-03  0 
 5.147659e-04  -1.219094e-03  0 
 9.049156e-04  -1.257369e-03  0 
VECTORS displacement_ITER7 FLOAT
 -4.936549e-04  -4.168835e-04  0 
 -8.977061e-04  -1.261684e-03  0 
 -2.292601e-04  -3.713693e-04  0 
 -9.131445e-05  -4.007420e-04  0 
 1.222569e-04  -4.056108e-04  0 
 2.666111e-04  -4.500652e-04  0 
 4.740179e-04  -4.938928e-04  0 
 -4.939356e-04  -1.225085e-03  0 
 -1.812461e-04  -1.197896e-03  0 
 2.119872e-04  -1.197349e-03  0 
 5.146499e-04  -1.219438e-03  0 
 9.049777e-04  -1.257712e-03  0 
VECTORS displacement_ITER8 FLOAT
 -4.936168e-04  -4.174029e-04  0 
 -8.978447e-04  -1.262084e-03  0 
 -2.294618e-04  -3.719082e-04  0 
 -9.116297e-05  -4.008586e-04  0 
 1.224283e-04  -4.056908e-04  0 
 2.666960e-04  -4.504003e-04  0 
 4.738265e-04  -4.942103e-04  0 
 -4.939597e-04  -1.225454e-03  0 
 -1.811442e-04  -1.198279e-03  0 
 2.122742e-04  -1.197714e-03  0 
 5.146206e-04  -1.219077e-03  0 
 9.046628e-04  -1.257310e-03  0 
VECTORS displacement_ITER9 FLOAT
 -4.937075e-04  -4.173938e-04  0 
 -8.979808e-04  -1.262280e-03  0 
 -2.295355e-04  -3.719394e-04  0 
 -9.099452e-05  -4.009009e-04  0 
 1.225636e-04  -4.057319e-04  0 
 2.667485e-04  -4.506717e-04  0 
 4.736482e-04  -4.944687e-04  0 
 -4.939523e-04  -1.225635e-03  0 
 -1.809919e-04  -1.198379e-03  0 
 2.124777e-04  -1.197807e-03  0 
 5.145829e-04  -1.218865e-03  0 
 9.044576e-04  -1.257076e-03  0 
VECTORS displacement_ITER10 FLOAT
 -4.937400e-04  -4.174077e-04  0 
 -8.980201e-04  -1.262361e-03  0 
 -2.295828e-04  -3.720031e-04  0 
 -9.088719e-05  -4.010138e-04  0 
 1.225862e-04  -4.058388e-04  0 
 2.667700e-04  -4.508002e-04  0 
 4.735865e-04  -4.945698e-04  0 
 -4.939341e-04  -1.225710e-03  0 
 -1.809022e-04  -1.198397e-03  0 
 2.125595e-04  -1.197832e-03  0 
 5.145103e-04  -1.218902e-03  0 
 9.043959e-04  -1.257104e-03  0 
VECTORS displacement_ITER11 FLOAT
 -4.937012e-04  -4.174949e-04  0 
 -8.979709e-04  -1.262331e-03  0 
 -2.296115e-04  -3.721198e-04  0 
 -9.087910e-05  -4.011091e-04  0 
 1.225335e-04  -4.059254e-04  0 
 2.667749e-04  -4.507985e-04  0 
 4.736198e-04  -4.945448e-04  0 
 -4.939268e-04  -1.225684e-03  0 
 -1.809122e-04  -1.198397e-03  0 
 2.125382e-04  -1.197841e-03  0 
 5.144609e-04  -1.219041e-03  0 
 9.044360e-04  -1.257243e-03  0 
VECTORS displacement_ITER12 FLOAT
 -4.937145e-04  -4.174630e-04  0 
 -8.979701e-04  -1.262315e-03  0 
 -2.296196e-04  -3.721004e-04  0 
 -9.086023e-05  -4.011149e-04  0 
 1.225374e-04  -4.059349e-04  0 
 2.667899e-04  -4.508454e-04  0 
 4.735970e-04  -4.945863e-04  0 
 -4.939251e-04  -1.225671e-03  0 
 -1.809020e-04  -1.198391e-03  0 
 2.125547e-04  -1.197835e-03  0 
 5.144540e-04  -1.219036e-03  0 
 9.044221e-04  -1.257235e-03  0 
VECTORS displacement_ITER13 FLOAT
 -4.937172e-04  -4.174546e-04  0 
 -8.979682e-04  -1.262308e-03  0 
 -2.296221e-04  -3.720955e-04  0 
 -9.085585e-05  -4.011158e-04  0 
 1.225368e-04  -4.059372e-04  0 
 2.667949e-04  -4.508586e-04  0 
 4.735910e-04  -4.945978e-04  0 
 -4.939242e-04  -1.225666e-03  0 
 -1.809010e-04  -1.198389e-03  0 
 2.125576e-04  -1.197833e-03  0 
 5.144525e-04  -1.219034e-03  0 
 9.044189e-04  -1.257232e-03  0 
VECTORS displacement_ITER14 FLOAT
 -4.937134e-04  -4.174587e-04  0 
 -8.979614e-04  -1.262299e-03  0 
 -2.296243e-04  -3.721015e-04  0 
 -9.085728e-05  -4.011183e-04  0 
 1.225302e-04  -4.059402e-04  0 
 2.667979e-04  -4.508603e-04  0 
 4.735925e-04  -4.945978e-04  0 
 -4.939227e-04  -1.225660e-03  0 
 -1.809060e-04  -1.198387e-03  0 
 2.125528e-04  -1.197831e-03  0 
 5.144513e-04  -1.219037e-03  0 
 9.044219e-04  -1.257235e-03  0 
VECTORS displacement_ITER15 FLOAT
 -4.937117e-04  -4.174610e-04  0 
 -8.979589e-04  -1.262296e-03  0 
 -2.296250e-04  -3.721042e-04  0 
 -9.085807e-05  -4.011189e-04  0 
 1.225276e-04  -4.059411e-04  0 
 2.667989e-04  -4.508601e-04  0 
 4.735934e-04  -4.945971e-04  0 
 -4.939220e-04  -1.225658e-03  0 
 -1.809082e-04  -1.198387e-03  0 
 2.125506e-04  -1.197830e-03  0 
 5.144511e-04  -1.219038e-03  0 
 9.044231e-04  -1.257235e-03  0 
VECTORS displacement_ITER16 FLOAT
 -4.937111e-04  -4.174618e-04  0 
 -8.979581e-04  -1.262295e-03  0 
 -2.296253e-04  -3.721049e-04  0 
 -9.085812e-05  -4.011187e-04  0 
 1.225267e-04  -4.059410e-04  0 
 2.667997e-04  -4.508603e-04  0 
 4.735933e-04  -4.945973e-04  0 
 -4.939215e-04  -1.225657e-03  0 
 -1.809091e-04  -1.198387e-03  0 
 2.125499e-04  -1.197829e-03  0 
 5.144514e-04  -1.219037e-03  0 
 9.044230e-04  -1.257233e-03  0 
VECTORS displacement_ITER17 FLOAT
 -4.937109e-04  -4.174621e-04  0 
 -8.979578e-04  -1.262294e-03  0 
 -2.296254e-04  -3.721050e-04  0 
 -9.085804e-05  -4.011184e-04  0 
 1.225264e-04  -4.059410e-04  0 
 2.668001e-04  -4.508605e-04  0 
 4.735931e-04  -4.945976e-04  0 
 -4.939212e-04  -1.225657e-03  0 
 -1.809094e-04  -1.198387e-03  0 
 2.125496e-04  -1.197829e-03  0 
 5.144516e-04  -1.219036e-03  0 
 9.044229e-04  -1.257232e-03  0 
VECTORS displacement_ITER18 FLOAT
 -4.937107e-04  -4.174624e-04  0 
 -8.979576e-04  -1.262294e-03  0 
 -2.296254e-04  -3.721052e-04  0 
 -9.085808e-05  -4.011185e-04  0 
 1.225261e-04  -4.059411e-04  0 
 2.668002e-04  -4.508604e-04  0 
 4.735930e-04  -4.945975e-04  0 
 -4.939210e-04  -1.225657e-03  0 
 -1.809097e-04  -1.198387e-03  0 
 2.125493e-04  -1.197829e-03  0 
 5.144517e-04  -1.219035e-03  0 
 9.044229e-04  -1.257232e-03  0 
VECTORS displacement_ITER19 FLOAT
 -4.937105e-04  -4.174627e-04  0 
 -8.979574e-04  -1.262294e-03  0 
 -2.296254e-04  -3.721053e-04  0 
 -9.085810e-05  -4.011186e-04  0 
 1.225259e-04  -4.059412e-04  0 
 2.668004e-04  -4.508603e-04  0 
 4.735931e-04  -4.945975e-04  0 
 -4.939209e-04  -1.225657e-03  0 
 -1.809099e-04  -1.198386e-03  0 
 2.125491e-04  -1.197829e-03  0 
 5.144518e-04  -1.219035e-03  0 
 9.044230e-04  -1.257232e-03  0 
VECTORS displacement_ITER20 FLOAT
 -4.937105e-04  -4.174627e-04  0 
 -8.979574e-04  -1.262294e-03  0 
 -2.296254e-04  -3.721053e-04  0 
 -9.085808e-05  -4.011187e-04  0 
 1.225258e-04  -4.059413e-04  0 
 2.668004e-04  -4.508603e-04  0 
 4.735930e-04  -4.945977e-04  0 
 -4.939209e-04  -1.225657e-03  0 
 -1.809099e-04  -1.198386e-03  0 
 2.125491e-04  -1.197829e-03  0 
 5.144518e-04  -1.219035e-03  0 
 9.044229e-04  -1.257231e-03  0 
VECTORS displacement_ITER21 FLOAT
 -4.937105e-04  -4.174627e-04  0 
 -8.979574e-04  -1.262294e-03  0 
 -2.296254e-04  -3.721052e-04  0 
 -9.085803e-05  -4.011187e-04  0 
 1.225259e-04  -4.059414e-04  0 
 2.668004e-04  -4.508604e-04  0 
 4.735930e-04  -4.945978e-04  0 
 -4.939208e-04  -1.225657e-03  0 
 -1.809098e-04  -1.198386e-03  0 
 2.125491e-04  -1.197829e-03  0 
 5.144518e-04  -1.219035e-03  0 
 9.044229e-04  -1.257231e-03  0 
VECTORS displacement_ITER22 FLOAT
 -4.937105e-04  -4.174627e-04  0 
 -8.979574e-04  -1.262294e-03  0 
 -2.296255e-04  -3.721052e-04  0 
 -9.085802e-05  -4.011187e-04  0 
 1.225258e-04  -4.059414e-04  0 
 2.668004e-04  -4.508604e-04  0 
 4.735930e-04  -4.945978e-04  0 
 -4.939208e-04  -1.225657e-03  0 
 -1.809098e-04  -1.198386e-03  0 
 2.125491e-04  -1.197829e-03  0 
 5.144518e-04  -1.219035e-03  0 
 9.044229e-04  -1.257231e-03  0 
VECTORS displacement_ITER23 FLOAT
 -4.937105e-04  -4.174628e-04  0 
 -8.979574e-04  -1.262294e-03  0 
 -2.296255e-04  -3.721052e-04  0 
 -9.085802e-05  -4.011187e-04  0 
 1.225258e-04  -4.059414e-04  0 
 2.668004e-04  -4.508604e-04  0 
 4.735929e-04  -4.945978e-04  0 
 -4.939208e-04  -1.225657e-03  0 
 -1.809098e-04  -1.198386e-03  0 
 2.125491e-04  -1.197829e-03  0 
 5.144518e-04  -1.219035e-03  0 
 9.044229e-04  -1.257231e-03  0 
VECTORS displacement_ITER24 FLOAT
 -4.937105e-04  -4.174628e-04  0 
 -8.979574e-04  -1.262294e-03  0 
 -2.296255e-04  -3.721052e-04  0 
 -9.085802e-05  -4.011187e-04  0 
 1.225259e-04  -4.059414e-04  0 
 2.668004e-04  -4.508604e-04  0 
 4.735929e-04  -4.945978e-04  0 
 -4.939208e-04  -1.225657e-03  0 
 -1.809098e-04  -1.198386e-03  0 
 2.125491e-04  -1.197829e-03  0 
 5.144518e-04  -1.219035e-03  0 
 9.044229e-04  -1.257231e-03  0 
CELL_DATA 5
TENSORS element_stresses FLOAT
 -6.670840e-01  -2.159882e-02  0 
 -2.159882e-02  4.861190e-03  0 
 0  0  0 

 -3.908292e-02  -4.010562e-02  0 
 -4.010562e-02  -1.216065e-02  0 
 0  0  0 

 -3.546561e-03  -5.542152e-02  0 
 -5.542152e-02  -1.172664e-02  0 
 0  0  0 

 3.165720e-02  -3.420148e-02  0 
 -3.420148e-02  -7.034221e-03  0 
 0  0  0 

 6.780563e-01  -2.992255e-02  0 
 -2.992255e-02  -1.416861e-03  0 
 0  0  0 

TENSORS element_stresses FLOAT
 -6.670840e-01  -2.159882e-02  0 
 -2.159882e-02  4.861190e-03  0 
 0  0  0 

 -3.908292e-02  -4.010562e-02  0 
 -4.010562e-02  -1.216065e-02  0 
 0  0  0 

 -3.546561e-03  -5.542152e-02  0 
 -5.542152e-02  -1.172664e-02  0 
 0  0  0 

 3.165720e-02  -3.420148e-02  0 
 -3.420148e-02  -7.034221e-03  0 
 0  0  0 

 6.780563e-01  -2.992255e-02  0 
 -2.992255e-02  -1.416861e-03  0 
 0  0  0 

