# vtk DataFile Version 3.1
this is an vtk file created by FEMAC
ASCII
DATASET UNSTRUCTURED_GRID
POINTS 12 FLOAT
4.500000 0.000000 0.000000
5.000000 0.000000 0.000000
4.500000 0.200000 0.000000
4.500000 0.400000 0.000000
4.500000 0.600000 0.000000
4.500000 0.800000 0.000000
4.500000 1.000000 0.000000
5.000000 0.200000 0.000000
5.000000 0.400000 0.000000
5.000000 0.600000 0.000000
5.000000 0.800000 0.000000
5.000000 1.000000 0.000000
CELLS 5 25 
4 0 1 7 2
4 2 7 8 3
4 3 8 9 4
4 4  9 10  5
4 5 10 11  6
CELL_TYPES 5
9 9 9 9 9 
POINT_DATA 12
VECTORS displacement_ITER1 FLOAT
 -2.496524e-03  -1.493071e-02  0 
 -2.580525e-03  -1.751962e-02  0 
 -1.479011e-03  -1.492150e-02  0 
 -4.999574e-04  -1.491430e-02  0 
 5.176681e-04  -1.491431e-02  0 
 1.496721e-03  -1.492150e-02  0 
 2.514235e-03  -1.493072e-02  0 
 -1.532737e-03  -1.751314e-02  0 
 -5.149277e-04  -1.751163e-02  0 
 5.326407e-04  -1.751163e-02  0 
 1.550450e-03  -1.751315e-02  0 
 2.598238e-03  -1.751962e-02  0 
VECTORS displacement_ITER2 FLOAT
 -2.494742e-03  -1.491169e-02  0 
 -2.578880e-03  -1.750042e-02  0 
 -1.477328e-03  -1.490233e-02  0 
 -4.998845e-04  -1.489479e-02  0 
 5.179090e-04  -1.489479e-02  0 
 1.495352e-03  -1.490233e-02  0 
 2.512767e-03  -1.491170e-02  0 
 -1.530938e-03  -1.749384e-02  0 
 -5.150318e-04  -1.749252e-02  0 
 5.330583e-04  -1.749252e-02  0 
 1.548964e-03  -1.749384e-02  0 
 2.596906e-03  -1.750043e-02  0 
VECTORS displacement_ITER3 FLOAT
 -2.492375e-03  -1.489692e-02  0 
 -2.576699e-03  -1.748887e-02  0 
 -1.473843e-03  -1.488749e-02  0 
 -4.990114e-04  -1.488291e-02  0 
 5.176591e-04  -1.488292e-02  0 
 1.492491e-03  -1.488750e-02  0 
 2.511022e-03  -1.489693e-02  0 
 -1.527270e-03  -1.748193e-02  0 
 -5.145111e-04  -1.747765e-02  0 
 5.331601e-04  -1.747765e-02  0 
 1.545919e-03  -1.748194e-02  0 
 2.595348e-03  -1.748887e-02  0 
VECTORS displacement_ITER4 FLOAT
 -2.491616e-03  -1.489430e-02  0 
 -2.575997e-03  -1.748641e-02  0 
 -1.473051e-03  -1.488483e-02  0 
 -4.988799e-04  -1.488045e-02  0 
 5.176609e-04  -1.488046e-02  0 
 1.491832e-03  -1.488483e-02  0 
 2.510398e-03  -1.489430e-02  0 
 -1.526427e-03  -1.747940e-02  0 
 -5.144631e-04  -1.747487e-02  0 
 5.332449e-04  -1.747487e-02  0 
 1.545209e-03  -1.747940e-02  0 
 2.594779e-03  -1.748641e-02  0 
VECTORS displacement_ITER5 FLOAT
 -2.492051e-03  -1.489044e-02  0 
 -2.576373e-03  -1.748477e-02  0 
 -1.472495e-03  -1.488098e-02  0 
 -4.982482e-04  -1.487765e-02  0 
 5.184459e-04  -1.487785e-02  0 
 1.491790e-03  -1.488455e-02  0 
 2.508722e-03  -1.489416e-02  0 
 -1.525915e-03  -1.747770e-02  0 
 -5.137913e-04  -1.747267e-02  0 
 5.341484e-04  -1.747257e-02  0 
 1.545048e-03  -1.747548e-02  0 
 2.593251e-03  -1.748244e-02  0 
VECTORS displacement_ITER6 FLOAT
 -2.488971e-03  -1.489290e-02  0 
 -2.573467e-03  -1.747917e-02  0 
 -1.472811e-03  -1.488322e-02  0 
 -5.002615e-04  -1.487575e-02  0 
 5.164676e-04  -1.487553e-02  0 
 1.491040e-03  -1.487875e-02  0 
 2.510968e-03  -1.488821e-02  0 
 -1.526104e-03  -1.747224e-02  0 
 -5.159167e-04  -1.747056e-02  0 
 5.321196e-04  -1.747076e-02  0 
 1.544373e-03  -1.747645e-02  0 
 2.595379e-03  -1.748358e-02  0 
VECTORS displacement_ITER7 FLOAT
 -2.490719e-03  -1.488941e-02  0 
 -2.575272e-03  -1.748116e-02  0 
 -1.472390e-03  -1.487986e-02  0 
 -4.986383e-04  -1.487484e-02  0 
 5.179864e-04  -1.487485e-02  0 
 1.491165e-03  -1.488029e-02  0 
 2.508910e-03  -1.488987e-02  0 
 -1.525634e-03  -1.747408e-02  0 
 -5.143530e-04  -1.746966e-02  0 
 5.336248e-04  -1.746960e-02  0 
 1.544525e-03  -1.747278e-02  0 
 2.593280e-03  -1.747979e-02  0 
VECTORS displacement_ITER8 FLOAT
 -2.490620e-03  -1.488878e-02  0 
 -2.575107e-03  -1.748042e-02  0 
 -1.472287e-03  -1.487924e-02  0 
 -4.986260e-04  -1.487444e-02  0 
 5.179000e-04  -1.487446e-02  0 
 1.491066e-03  -1.487986e-02  0 
 2.508821e-03  -1.488944e-02  0 
 -1.525568e-03  -1.747333e-02  0 
 -5.143288e-04  -1.746903e-02  0 
 5.335858e-04  -1.746899e-02  0 
 1.544376e-03  -1.747253e-02  0 
 2.593264e-03  -1.747957e-02  0 
VECTORS displacement_ITER9 FLOAT
 -2.490289e-03  -1.488887e-02  0 
 -2.574760e-03  -1.747968e-02  0 
 -1.472279e-03  -1.487930e-02  0 
 -4.988454e-04  -1.487418e-02  0 
 5.176535e-04  -1.487418e-02  0 
 1.490999e-03  -1.487927e-02  0 
 2.509015e-03  -1.488884e-02  0 
 -1.525565e-03  -1.747261e-02  0 
 -5.145531e-04  -1.746868e-02  0 
 5.333493e-04  -1.746868e-02  0 
 1.544295e-03  -1.747259e-02  0 
 2.593479e-03  -1.747966e-02  0 
VECTORS displacement_ITER10 FLOAT
 -2.490155e-03  -1.488865e-02  0 
 -2.574626e-03  -1.747920e-02  0 
 -1.472254e-03  -1.487907e-02  0 
 -4.989049e-04  -1.487382e-02  0 
 5.175914e-04  -1.487381e-02  0 
 1.490982e-03  -1.487892e-02  0 
 2.508992e-03  -1.488849e-02  0 
 -1.525536e-03  -1.747213e-02  0 
 -5.146173e-04  -1.746832e-02  0 
 5.332874e-04  -1.746832e-02  0 
 1.544270e-03  -1.747224e-02  0 
 2.593468e-03  -1.747931e-02  0 
VECTORS displacement_ITER11 FLOAT
 -2.490180e-03  -1.488829e-02  0 
 -2.574647e-03  -1.747898e-02  0 
 -1.472218e-03  -1.487872e-02  0 
 -4.988535e-04  -1.487358e-02  0 
 5.176225e-04  -1.487358e-02  0 
 1.490977e-03  -1.487879e-02  0 
 2.508893e-03  -1.488836e-02  0 
 -1.525502e-03  -1.747191e-02  0 
 -5.145589e-04  -1.746803e-02  0 
 5.333242e-04  -1.746803e-02  0 
 1.544253e-03  -1.747191e-02  0 
 2.593381e-03  -1.747898e-02  0 
VECTORS displacement_ITER12 FLOAT
 -2.490153e-03  -1.488823e-02  0 
 -2.574626e-03  -1.747890e-02  0 
 -1.472207e-03  -1.487866e-02  0 
 -4.988563e-04  -1.487353e-02  0 
 5.175955e-04  -1.487353e-02  0 
 1.490960e-03  -1.487866e-02  0 
 2.508908e-03  -1.488823e-02  0 
 -1.525486e-03  -1.747182e-02  0 
 -5.145620e-04  -1.746792e-02  0 
 5.332986e-04  -1.746792e-02  0 
 1.544235e-03  -1.747185e-02  0 
 2.593391e-03  -1.747892e-02  0 
VECTORS displacement_ITER13 FLOAT
 -2.490144e-03  -1.488821e-02  0 
 -2.574620e-03  -1.747887e-02  0 
 -1.472206e-03  -1.487864e-02  0 
 -4.988564e-04  -1.487351e-02  0 
 5.175911e-04  -1.487351e-02  0 
 1.490956e-03  -1.487862e-02  0 
 2.508909e-03  -1.488819e-02  0 
 -1.525483e-03  -1.747180e-02  0 
 -5.145626e-04  -1.746789e-02  0 
 5.332952e-04  -1.746789e-02  0 
 1.544232e-03  -1.747182e-02  0 
 2.593389e-03  -1.747890e-02  0 
VECTORS displacement_ITER14 FLOAT
 -2.490140e-03  -1.488821e-02  0 
 -2.574619e-03  -1.747885e-02  0 
 -1.472209e-03  -1.487864e-02  0 
 -4.988526e-04  -1.487349e-02  0 
 5.175975e-04  -1.487349e-02  0 
 1.490956e-03  -1.487862e-02  0 
 2.508899e-03  -1.488819e-02  0 
 -1.525485e-03  -1.747178e-02  0 
 -5.145604e-04  -1.746788e-02  0 
 5.333027e-04  -1.746788e-02  0 
 1.544233e-03  -1.747178e-02  0 
 2.593376e-03  -1.747886e-02  0 
VECTORS displacement_ITER15 FLOAT
 -2.490140e-03  -1.488820e-02  0 
 -2.574619e-03  -1.747885e-02  0 
 -1.472209e-03  -1.487863e-02  0 
 -4.988502e-04  -1.487348e-02  0 
 5.176004e-04  -1.487348e-02  0 
 1.490956e-03  -1.487861e-02  0 
 2.508895e-03  -1.488818e-02  0 
 -1.525485e-03  -1.747177e-02  0 
 -5.145583e-04  -1.746788e-02  0 
 5.333061e-04  -1.746788e-02  0 
 1.544234e-03  -1.747177e-02  0 
 2.593371e-03  -1.747884e-02  0 
VECTORS displacement_ITER16 FLOAT
 -2.490140e-03  -1.488819e-02  0 
 -2.574619e-03  -1.747884e-02  0 
 -1.472209e-03  -1.487862e-02  0 
 -4.988491e-04  -1.487347e-02  0 
 5.176004e-04  -1.487347e-02  0 
 1.490955e-03  -1.487861e-02  0 
 2.508895e-03  -1.488818e-02  0 
 -1.525484e-03  -1.747176e-02  0 
 -5.145574e-04  -1.746787e-02  0 
 5.333063e-04  -1.746787e-02  0 
 1.544233e-03  -1.747176e-02  0 
 2.593370e-03  -1.747884e-02  0 
VECTORS displacement_ITER17 FLOAT
 -2.490140e-03  -1.488819e-02  0 
 -2.574619e-03  -1.747884e-02  0 
 -1.472209e-03  -1.487862e-02  0 
 -4.988484e-04  -1.487347e-02  0 
 5.176003e-04  -1.487347e-02  0 
 1.490955e-03  -1.487860e-02  0 
 2.508895e-03  -1.488817e-02  0 
 -1.525484e-03  -1.747176e-02  0 
 -5.145571e-04  -1.746786e-02  0 
 5.333060e-04  -1.746786e-02  0 
 1.544233e-03  -1.747176e-02  0 
 2.593370e-03  -1.747883e-02  0 
VECTORS displacement_ITER18 FLOAT
 -2.490140e-03  -1.488819e-02  0 
 -2.574619e-03  -1.747883e-02  0 
 -1.472209e-03  -1.487862e-02  0 
 -4.988481e-04  -1.487347e-02  0 
 5.176003e-04  -1.487347e-02  0 
 1.490955e-03  -1.487860e-02  0 
 2.508894e-03  -1.488817e-02  0 
 -1.525484e-03  -1.747176e-02  0 
 -5.145570e-04  -1.746786e-02  0 
 5.333060e-04  -1.746786e-02  0 
 1.544233e-03  -1.747176e-02  0 
 2.593370e-03  -1.747883e-02  0 
VECTORS displacement_ITER19 FLOAT
 -2.490140e-03  -1.488819e-02  0 
 -2.574618e-03  -1.747883e-02  0 
 -1.472209e-03  -1.487862e-02  0 
 -4.988480e-04  -1.487347e-02  0 
 5.176004e-04  -1.487347e-02  0 
 1.490955e-03  -1.487860e-02  0 
 2.508894e-03  -1.488817e-02  0 
 -1.525484e-03  -1.747176e-02  0 
 -5.145570e-04  -1.746786e-02  0 
 5.333061e-04  -1.746786e-02  0 
 1.544233e-03  -1.747176e-02  0 
 2.593370e-03  -1.747883e-02  0 
VECTORS displacement_ITER20 FLOAT
 -2.490140e-03  -1.488819e-02  0 
 -2.574618e-03  -1.747883e-02  0 
 -1.472209e-03  -1.487862e-02  0 
 -4.988480e-04  -1.487347e-02  0 
 5.176004e-04  -1.487346e-02  0 
 1.490955e-03  -1.487860e-02  0 
 2.508894e-03  -1.488817e-02  0 
 -1.525484e-03  -1.747176e-02  0 
 -5.145570e-04  -1.746786e-02  0 
 5.333062e-04  -1.746786e-02  0 
 1.544233e-03  -1.747176e-02  0 
 2.593370e-03  -1.747883e-02  0 
VECTORS displacement_ITER21 FLOAT
 -2.490140e-03  -1.488819e-02  0 
 -2.574618e-03  -1.747883e-02  0 
 -1.472208e-03  -1.487862e-02  0 
 -4.988480e-04  -1.487347e-02  0 
 5.176004e-04  -1.487346e-02  0 
 1.490955e-03  -1.487860e-02  0 
 2.508894e-03  -1.488817e-02  0 
 -1.525484e-03  -1.747176e-02  0 
 -5.145570e-04  -1.746786e-02  0 
 5.333061e-04  -1.746786e-02  0 
 1.544233e-03  -1.747176e-02  0 
 2.593370e-03  -1.747883e-02  0 
VECTORS displacement_ITER22 FLOAT
 -2.490140e-03  -1.488819e-02  0 
 -2.574618e-03  -1.747883e-02  0 
 -1.472208e-03  -1.487862e-02  0 
 -4.988481e-04  -1.487347e-02  0 
 5.176003e-04  -1.487346e-02  0 
 1.490955e-03  -1.487860e-02  0 
 2.508894e-03  -1.488817e-02  0 
 -1.525484e-03  -1.747176e-02  0 
 -5.145571e-04  -1.746786e-02  0 
 5.333060e-04  -1.746786e-02  0 
 1.544233e-03  -1.747176e-02  0 
 2.593370e-03  -1.747883e-02  0 
VECTORS displacement_ITER23 FLOAT
 -2.490140e-03  -1.488819e-02  0 
 -2.574618e-03  -1.747883e-02  0 
 -1.472208e-03  -1.487862e-02  0 
 -4.988481e-04  -1.487347e-02  0 
 5.176003e-04  -1.487346e-02  0 
 1.490955e-03  -1.487860e-02  0 
 2.508894e-03  -1.488817e-02  0 
 -1.525484e-03  -1.747176e-02  0 
 -5.145571e-04  -1.746786e-02  0 
 5.333060e-04  -1.746786e-02  0 
 1.544233e-03  -1.747176e-02  0 
 2.593370e-03  -1.747883e-02  0 
VECTORS displacement_ITER24 FLOAT
 -2.490140e-03  -1.488819e-02  0 
 -2.574618e-03  -1.747883e-02  0 
 -1.472208e-03  -1.487862e-02  0 
 -4.988481e-04  -1.487347e-02  0 
 5.176003e-04  -1.487346e-02  0 
 1.490955e-03  -1.487860e-02  0 
 2.508894e-03  -1.488817e-02  0 
 -1.525484e-03  -1.747176e-02  0 
 -5.145571e-04  -1.746786e-02  0 
 5.333060e-04  -1.746786e-02  0 
 1.544233e-03  -1.747176e-02  0 
 2.593370e-03  -1.747883e-02  0 
CELL_DATA 5
TENSORS element_stresses FLOAT
 -1.376592e-01  -1.240242e-02  0 
 -1.240242e-02  3.144388e-04  0 
 0  0  0 

 -6.834938e-03  -1.744748e-02  0 
 -1.744748e-02  2.116264e-04  0 
 0  0  0 

 -2.443115e-06  -2.154673e-02  0 
 -2.154673e-02  2.733962e-06  0 
 0  0  0 

 6.836144e-03  -1.744980e-02  0 
 -1.744980e-02  -2.074356e-04  0 
 0  0  0 

 1.376604e-01  -1.240357e-02  0 
 -1.240357e-02  -3.128857e-04  0 
 0  0  0 

TENSORS element_stresses FLOAT
 -1.376592e-01  -1.240242e-02  0 
 -1.240242e-02  3.144388e-04  0 
 0  0  0 

 -6.834938e-03  -1.744748e-02  0 
 -1.744748e-02  2.116264e-04  0 
 0  0  0 

 -2.443115e-06  -2.154673e-02  0 
 -2.154673e-02  2.733962e-06  0 
 0  0  0 

 6.836144e-03  -1.744980e-02  0 
 -1.744980e-02  -2.074356e-04  0 
 0  0  0 

 1.376604e-01  -1.240357e-02  0 
 -1.240357e-02  -3.128857e-04  0 
 0  0  0 

