# vtk DataFile Version 3.1
this is an vtk file created by FEMAC
ASCII
DATASET UNSTRUCTURED_GRID
POINTS 12 FLOAT
4.000000 0.000000 0.000000
4.500000 0.000000 0.000000
4.000000 0.200000 0.000000
4.000000 0.400000 0.000000
4.000000 0.600000 0.000000
4.000000 0.800000 0.000000
4.000000 1.000000 0.000000
4.500000 0.200000 0.000000
4.500000 0.400000 0.000000
4.500000 0.600000 0.000000
4.500000 0.800000 0.000000
4.500000 1.000000 0.000000
CELLS 5 25 
4 0 1 7 2
4 2 7 8 3
4 3 8 9 4
4 4  9 10  5
4 5 10 11  6
CELL_TYPES 5
9 9 9 9 9 
POINT_DATA 12
VECTORS displacement_ITER1 FLOAT
 -2.384456e-03  -1.242163e-02  0 
 -2.497423e-03  -1.492906e-02  0 
 -1.404445e-03  -1.240733e-02  0 
 -4.826571e-04  -1.239547e-02  0 
 5.003701e-04  -1.239547e-02  0 
 1.422158e-03  -1.240732e-02  0 
 2.402169e-03  -1.242162e-02  0 
 -1.476493e-03  -1.491926e-02  0 
 -5.030145e-04  -1.491820e-02  0 
 5.207252e-04  -1.491820e-02  0 
 1.494204e-03  -1.491926e-02  0 
 2.515134e-03  -1.492905e-02  0 
VECTORS displacement_ITER2 FLOAT
 -2.382389e-03  -1.240597e-02  0 
 -2.495216e-03  -1.490960e-02  0 
 -1.404268e-03  -1.239211e-02  0 
 -4.815736e-04  -1.238013e-02  0 
 4.996000e-04  -1.238012e-02  0 
 1.422294e-03  -1.239211e-02  0 
 2.400415e-03  -1.240596e-02  0 
 -1.475780e-03  -1.489994e-02  0 
 -5.021617e-04  -1.489928e-02  0 
 5.201862e-04  -1.489927e-02  0 
 1.493804e-03  -1.489994e-02  0 
 2.513240e-03  -1.490959e-02  0 
VECTORS displacement_ITER3 FLOAT
 -2.380157e-03  -1.239352e-02  0 
 -2.492719e-03  -1.489761e-02  0 
 -1.402485e-03  -1.238070e-02  0 
 -4.784075e-04  -1.237478e-02  0 
 4.970566e-04  -1.237477e-02  0 
 1.421134e-03  -1.238070e-02  0 
 2.398806e-03  -1.239352e-02  0 
 -1.473128e-03  -1.488788e-02  0 
 -4.994363e-04  -1.488184e-02  0 
 5.180840e-04  -1.488184e-02  0 
 1.491776e-03  -1.488788e-02  0 
 2.511366e-03  -1.489761e-02  0 
VECTORS displacement_ITER4 FLOAT
 -2.379273e-03  -1.239217e-02  0 
 -2.491783e-03  -1.489506e-02  0 
 -1.402245e-03  -1.237955e-02  0 
 -4.778779e-04  -1.237402e-02  0 
 4.965699e-04  -1.237401e-02  0 
 1.420995e-03  -1.237932e-02  0 
 2.398191e-03  -1.239193e-02  0 
 -1.472654e-03  -1.488536e-02  0 
 -4.990180e-04  -1.487902e-02  0 
 5.176994e-04  -1.487902e-02  0 
 1.491413e-03  -1.488550e-02  0 
 2.510685e-03  -1.489521e-02  0 
VECTORS displacement_ITER5 FLOAT
 -2.378445e-03  -1.239143e-02  0 
 -2.491042e-03  -1.489243e-02  0 
 -1.402450e-03  -1.237887e-02  0 
 -4.779690e-04  -1.237237e-02  0 
 4.964849e-04  -1.237236e-02  0 
 1.421093e-03  -1.237891e-02  0 
 2.397464e-03  -1.239147e-02  0 
 -1.472688e-03  -1.488281e-02  0 
 -4.990803e-04  -1.487755e-02  0 
 5.177532e-04  -1.487755e-02  0 
 1.491395e-03  -1.488284e-02  0 
 2.509825e-03  -1.489246e-02  0 
VECTORS displacement_ITER6 FLOAT
 -2.378057e-03  -1.239059e-02  0 
 -2.490581e-03  -1.489031e-02  0 
 -1.402416e-03  -1.237806e-02  0 
 -4.777569e-04  -1.237095e-02  0 
 4.966150e-04  -1.237094e-02  0 
 1.421194e-03  -1.237792e-02  0 
 2.396872e-03  -1.239045e-02  0 
 -1.472561e-03  -1.488075e-02  0 
 -4.989653e-04  -1.487605e-02  0 
 5.178724e-04  -1.487606e-02  0 
 1.491393e-03  -1.488081e-02  0 
 2.509274e-03  -1.489038e-02  0 
VECTORS displacement_ITER7 FLOAT
 -2.378009e-03  -1.238973e-02  0 
 -2.490426e-03  -1.488962e-02  0 
 -1.402307e-03  -1.237725e-02  0 
 -4.775974e-04  -1.237046e-02  0 
 4.965078e-04  -1.237045e-02  0 
 1.421069e-03  -1.237715e-02  0 
 2.396669e-03  -1.238964e-02  0 
 -1.472427e-03  -1.488005e-02  0 
 -4.989124e-04  -1.487501e-02  0 
 5.177182e-04  -1.487501e-02  0 
 1.491205e-03  -1.487993e-02  0 
 2.509156e-03  -1.488950e-02  0 
VECTORS displacement_ITER8 FLOAT
 -2.377952e-03  -1.238915e-02  0 
 -2.490353e-03  -1.488923e-02  0 
 -1.402205e-03  -1.237670e-02  0 
 -4.775155e-04  -1.237025e-02  0 
 4.963711e-04  -1.237025e-02  0 
 1.420953e-03  -1.237665e-02  0 
 2.396611e-03  -1.238911e-02  0 
 -1.472304e-03  -1.487965e-02  0 
 -4.988485e-04  -1.487434e-02  0 
 5.176069e-04  -1.487433e-02  0 
 1.491053e-03  -1.487954e-02  0 
 2.509100e-03  -1.488912e-02  0 
VECTORS displacement_ITER9 FLOAT
 -2.377868e-03  -1.238895e-02  0 
 -2.490284e-03  -1.488894e-02  0 
 -1.402178e-03  -1.237651e-02  0 
 -4.775178e-04  -1.237006e-02  0 
 4.963300e-04  -1.237006e-02  0 
 1.420929e-03  -1.237648e-02  0 
 2.396561e-03  -1.238893e-02  0 
 -1.472264e-03  -1.487936e-02  0 
 -4.988375e-04  -1.487408e-02  0 
 5.175948e-04  -1.487408e-02  0 
 1.491011e-03  -1.487931e-02  0 
 2.509034e-03  -1.488889e-02  0 
VECTORS displacement_ITER10 FLOAT
 -2.377754e-03  -1.238883e-02  0 
 -2.490187e-03  -1.488854e-02  0 
 -1.402187e-03  -1.237638e-02  0 
 -4.775608e-04  -1.236975e-02  0 
 4.963319e-04  -1.236975e-02  0 
 1.420941e-03  -1.237636e-02  0 
 2.396479e-03  -1.238881e-02  0 
 -1.472262e-03  -1.487898e-02  0 
 -4.988646e-04  -1.487387e-02  0 
 5.176153e-04  -1.487387e-02  0 
 1.491006e-03  -1.487897e-02  0 
 2.508944e-03  -1.488854e-02  0 
VECTORS displacement_ITER11 FLOAT
 -2.377700e-03  -1.238865e-02  0 
 -2.490143e-03  -1.488829e-02  0 
 -1.402180e-03  -1.237620e-02  0 
 -4.775746e-04  -1.236952e-02  0 
 4.963228e-04  -1.236952e-02  0 
 1.420929e-03  -1.237619e-02  0 
 2.396442e-03  -1.238864e-02  0 
 -1.472248e-03  -1.487872e-02  0 
 -4.988717e-04  -1.487365e-02  0 
 5.176113e-04  -1.487365e-02  0 
 1.490987e-03  -1.487872e-02  0 
 2.508905e-03  -1.488828e-02  0 
VECTORS displacement_ITER12 FLOAT
 -2.377704e-03  -1.238852e-02  0 
 -2.490150e-03  -1.488824e-02  0 
 -1.402152e-03  -1.237607e-02  0 
 -4.775495e-04  -1.236948e-02  0 
 4.963031e-04  -1.236948e-02  0 
 1.420902e-03  -1.237605e-02  0 
 2.396449e-03  -1.238850e-02  0 
 -1.472216e-03  -1.487867e-02  0 
 -4.988487e-04  -1.487351e-02  0 
 5.175963e-04  -1.487351e-02  0 
 1.490959e-03  -1.487866e-02  0 
 2.508906e-03  -1.488823e-02  0 
VECTORS displacement_ITER13 FLOAT
 -2.377701e-03  -1.238849e-02  0 
 -2.490148e-03  -1.488822e-02  0 
 -1.402146e-03  -1.237605e-02  0 
 -4.775441e-04  -1.236947e-02  0 
 4.962967e-04  -1.236947e-02  0 
 1.420895e-03  -1.237601e-02  0 
 2.396452e-03  -1.238846e-02  0 
 -1.472209e-03  -1.487865e-02  0 
 -4.988457e-04  -1.487348e-02  0 
 5.175920e-04  -1.487348e-02  0 
 1.490952e-03  -1.487865e-02  0 
 2.508907e-03  -1.488822e-02  0 
VECTORS displacement_ITER14 FLOAT
 -2.377707e-03  -1.238848e-02  0 
 -2.490152e-03  -1.488822e-02  0 
 -1.402144e-03  -1.237603e-02  0 
 -4.775338e-04  -1.236946e-02  0 
 4.963073e-04  -1.236946e-02  0 
 1.420896e-03  -1.237602e-02  0 
 2.396437e-03  -1.238847e-02  0 
 -1.472206e-03  -1.487865e-02  0 
 -4.988403e-04  -1.487348e-02  0 
 5.176036e-04  -1.487348e-02  0 
 1.490955e-03  -1.487861e-02  0 
 2.508891e-03  -1.488818e-02  0 
VECTORS displacement_ITER15 FLOAT
 -2.377694e-03  -1.238849e-02  0 
 -2.490138e-03  -1.488819e-02  0 
 -1.402147e-03  -1.237605e-02  0 
 -4.775428e-04  -1.236945e-02  0 
 4.963004e-04  -1.236945e-02  0 
 1.420895e-03  -1.237601e-02  0 
 2.396445e-03  -1.238845e-02  0 
 -1.472209e-03  -1.487863e-02  0 
 -4.988505e-04  -1.487348e-02  0 
 5.175968e-04  -1.487348e-02  0 
 1.490954e-03  -1.487862e-02  0 
 2.508899e-03  -1.488819e-02  0 
VECTORS displacement_ITER16 FLOAT
 -2.377699e-03  -1.238848e-02  0 
 -2.490143e-03  -1.488819e-02  0 
 -1.402147e-03  -1.237603e-02  0 
 -4.775383e-04  -1.236945e-02  0 
 4.963068e-04  -1.236944e-02  0 
 1.420897e-03  -1.237601e-02  0 
 2.396437e-03  -1.238846e-02  0 
 -1.472209e-03  -1.487863e-02  0 
 -4.988462e-04  -1.487347e-02  0 
 5.176027e-04  -1.487347e-02  0 
 1.490956e-03  -1.487860e-02  0 
 2.508892e-03  -1.488817e-02  0 
VECTORS displacement_ITER17 FLOAT
 -2.377696e-03  -1.238848e-02  0 
 -2.490141e-03  -1.488819e-02  0 
 -1.402148e-03  -1.237603e-02  0 
 -4.775396e-04  -1.236944e-02  0 
 4.963062e-04  -1.236944e-02  0 
 1.420897e-03  -1.237601e-02  0 
 2.396437e-03  -1.238845e-02  0 
 -1.472209e-03  -1.487862e-02  0 
 -4.988477e-04  -1.487347e-02  0 
 5.176015e-04  -1.487347e-02  0 
 1.490955e-03  -1.487860e-02  0 
 2.508893e-03  -1.488817e-02  0 
VECTORS displacement_ITER18 FLOAT
 -2.377695e-03  -1.238848e-02  0 
 -2.490139e-03  -1.488819e-02  0 
 -1.402148e-03  -1.237603e-02  0 
 -4.775406e-04  -1.236944e-02  0 
 4.963050e-04  -1.236944e-02  0 
 1.420897e-03  -1.237600e-02  0 
 2.396438e-03  -1.238845e-02  0 
 -1.472209e-03  -1.487862e-02  0 
 -4.988487e-04  -1.487347e-02  0 
 5.176001e-04  -1.487347e-02  0 
 1.490955e-03  -1.487860e-02  0 
 2.508894e-03  -1.488817e-02  0 
VECTORS displacement_ITER19 FLOAT
 -2.377696e-03  -1.238848e-02  0 
 -2.490140e-03  -1.488819e-02  0 
 -1.402147e-03  -1.237603e-02  0 
 -4.775401e-04  -1.236944e-02  0 
 4.963052e-04  -1.236944e-02  0 
 1.420897e-03  -1.237600e-02  0 
 2.396438e-03  -1.238845e-02  0 
 -1.472209e-03  -1.487862e-02  0 
 -4.988482e-04  -1.487347e-02  0 
 5.176002e-04  -1.487346e-02  0 
 1.490955e-03  -1.487860e-02  0 
 2.508894e-03  -1.488817e-02  0 
VECTORS displacement_ITER20 FLOAT
 -2.377696e-03  -1.238848e-02  0 
 -2.490140e-03  -1.488819e-02  0 
 -1.402147e-03  -1.237603e-02  0 
 -4.775398e-04  -1.236944e-02  0 
 4.963054e-04  -1.236944e-02  0 
 1.420897e-03  -1.237600e-02  0 
 2.396437e-03  -1.238845e-02  0 
 -1.472208e-03  -1.487862e-02  0 
 -4.988480e-04  -1.487347e-02  0 
 5.176004e-04  -1.487346e-02  0 
 1.490955e-03  -1.487860e-02  0 
 2.508894e-03  -1.488817e-02  0 
VECTORS displacement_ITER21 FLOAT
 -2.377696e-03  -1.238848e-02  0 
 -2.490140e-03  -1.488819e-02  0 
 -1.402147e-03  -1.237603e-02  0 
 -4.775400e-04  -1.236944e-02  0 
 4.963053e-04  -1.236944e-02  0 
 1.420897e-03  -1.237600e-02  0 
 2.396438e-03  -1.238845e-02  0 
 -1.472208e-03  -1.487862e-02  0 
 -4.988481e-04  -1.487347e-02  0 
 5.176003e-04  -1.487346e-02  0 
 1.490955e-03  -1.487860e-02  0 
 2.508894e-03  -1.488817e-02  0 
VECTORS displacement_ITER22 FLOAT
 -2.377696e-03  -1.238848e-02  0 
 -2.490140e-03  -1.488819e-02  0 
 -1.402147e-03  -1.237603e-02  0 
 -4.775400e-04  -1.236944e-02  0 
 4.963053e-04  -1.236944e-02  0 
 1.420897e-03  -1.237600e-02  0 
 2.396438e-03  -1.238845e-02  0 
 -1.472208e-03  -1.487862e-02  0 
 -4.988481e-04  -1.487347e-02  0 
 5.176003e-04  -1.487346e-02  0 
 1.490955e-03  -1.487860e-02  0 
 2.508894e-03  -1.488817e-02  0 
VECTORS displacement_ITER23 FLOAT
 -2.377696e-03  -1.238848e-02  0 
 -2.490140e-03  -1.488819e-02  0 
 -1.402147e-03  -1.237603e-02  0 
 -4.775400e-04  -1.236944e-02  0 
 4.963053e-04  -1.236944e-02  0 
 1.420897e-03  -1.237600e-02  0 
 2.396438e-03  -1.238845e-02  0 
 -1.472208e-03  -1.487862e-02  0 
 -4.988481e-04  -1.487347e-02  0 
 5.176003e-04  -1.487346e-02  0 
 1.490955e-03  -1.487860e-02  0 
 2.508894e-03  -1.488817e-02  0 
VECTORS displacement_ITER24 FLOAT
 -2.377696e-03  -1.238848e-02  0 
 -2.490140e-03  -1.488819e-02  0 
 -1.402147e-03  -1.237603e-02  0 
 -4.775400e-04  -1.236944e-02  0 
 4.963053e-04  -1.236944e-02  0 
 1.420897e-03  -1.237600e-02  0 
 2.396438e-03  -1.238845e-02  0 
 -1.472208e-03  -1.487862e-02  0 
 -4.988481e-04  -1.487347e-02  0 
 5.176003e-04  -1.487346e-02  0 
 1.490955e-03  -1.487860e-02  0 
 2.508894e-03  -1.488817e-02  0 
CELL_DATA 5
TENSORS element_stresses FLOAT
 -1.824110e-01  -1.430313e-02  0 
 -1.430313e-02  3.153606e-04  0 
 0  0  0 

 -9.072807e-03  -2.013015e-02  0 
 -2.013015e-02  2.137836e-04  0 
 0  0  0 

 -1.163412e-05  -2.486013e-02  0 
 -2.486013e-02  4.875968e-06  0 
 0  0  0 

 9.074288e-03  -2.013537e-02  0 
 -2.013537e-02  -2.034113e-04  0 
 0  0  0 

 1.824212e-01  -1.432122e-02  0 
 -1.432122e-02  -3.106766e-04  0 
 0  0  0 

TENSORS element_stresses FLOAT
 -1.824110e-01  -1.430313e-02  0 
 -1.430313e-02  3.153606e-04  0 
 0  0  0 

 -9.072807e-03  -2.013015e-02  0 
 -2.013015e-02  2.137836e-04  0 
 0  0  0 

 -1.163412e-05  -2.486013e-02  0 
 -2.486013e-02  4.875968e-06  0 
 0  0  0 

 9.074288e-03  -2.013537e-02  0 
 -2.013537e-02  -2.034113e-04  0 
 0  0  0 

 1.824212e-01  -1.432122e-02  0 
 -1.432122e-02  -3.106766e-04  0 
 0  0  0 

