# vtk DataFile Version 3.1
this is an vtk file created by FEMAC
ASCII
DATASET UNSTRUCTURED_GRID
POINTS 12 FLOAT
3.000000 0.000000 0.000000
3.500000 0.000000 0.000000
3.000000 0.200000 0.000000
3.000000 0.400000 0.000000
3.000000 0.600000 0.000000
3.000000 0.800000 0.000000
3.000000 1.000000 0.000000
3.500000 0.200000 0.000000
3.500000 0.400000 0.000000
3.500000 0.600000 0.000000
3.500000 0.800000 0.000000
3.500000 1.000000 0.000000
CELLS 5 25 
4 0 1 7 2
4 2 7 8 3
4 3 8 9 4
4 4  9 10  5
4 5 10 11  6
CELL_TYPES 5
9 9 9 9 9 
POINT_DATA 12
VECTORS displacement_ITER1 FLOAT
 -2.058527e-03  -7.810039e-03  0 
 -2.239781e-03  -1.003985e-02  0 
 -1.203217e-03  -7.787801e-03  0 
 -4.204591e-04  -7.771047e-03  0 
 4.381721e-04  -7.771046e-03  0 
 1.220930e-03  -7.787797e-03  0 
 2.076240e-03  -7.810031e-03  0 
 -1.317792e-03  -1.002315e-02  0 
 -4.537994e-04  -1.001955e-02  0 
 4.715102e-04  -1.001955e-02  0 
 1.335503e-03  -1.002315e-02  0 
 2.257491e-03  -1.003984e-02  0 
VECTORS displacement_ITER2 FLOAT
 -2.056699e-03  -7.797731e-03  0 
 -2.237697e-03  -1.002386e-02  0 
 -1.203427e-03  -7.776219e-03  0 
 -4.193434e-04  -7.759403e-03  0 
 4.373698e-04  -7.759402e-03  0 
 1.221453e-03  -7.776215e-03  0 
 2.074726e-03  -7.797725e-03  0 
 -1.316981e-03  -1.000755e-02  0 
 -4.530714e-04  -1.000455e-02  0 
 4.710959e-04  -1.000455e-02  0 
 1.335006e-03  -1.000755e-02  0 
 2.255722e-03  -1.002385e-02  0 
VECTORS displacement_ITER3 FLOAT
 -2.055382e-03  -7.785682e-03  0 
 -2.235901e-03  -1.001469e-02  0 
 -1.201909e-03  -7.765758e-03  0 
 -4.156637e-04  -7.756931e-03  0 
 4.346196e-04  -7.756972e-03  0 
 1.220667e-03  -7.766527e-03  0 
 2.073570e-03  -7.786483e-03  0 
 -1.313826e-03  -9.998622e-03  0 
 -4.500876e-04  -9.988929e-03  0 
 4.690753e-04  -9.988906e-03  0 
 1.332548e-03  -9.998136e-03  0 
 2.254134e-03  -1.001419e-02  0 
VECTORS displacement_ITER4 FLOAT
 -2.054833e-03  -7.785582e-03  0 
 -2.234992e-03  -1.001343e-02  0 
 -1.201649e-03  -7.765973e-03  0 
 -4.148119e-04  -7.757556e-03  0 
 4.343708e-04  -7.757581e-03  0 
 1.220821e-03  -7.766268e-03  0 
 2.072871e-03  -7.785885e-03  0 
 -1.313201e-03  -9.997479e-03  0 
 -4.496022e-04  -9.987463e-03  0 
 4.688207e-04  -9.987449e-03  0 
 1.332210e-03  -9.997172e-03  0 
 2.253590e-03  -1.001311e-02  0 
VECTORS displacement_ITER5 FLOAT
 -2.053907e-03  -7.786837e-03  0 
 -2.234032e-03  -1.001235e-02  0 
 -1.202100e-03  -7.767315e-03  0 
 -4.152082e-04  -7.757468e-03  0 
 4.341516e-04  -7.757515e-03  0 
 1.221050e-03  -7.767917e-03  0 
 2.072184e-03  -7.787462e-03  0 
 -1.313413e-03  -9.996560e-03  0 
 -4.500443e-04  -9.988075e-03  0 
 4.687222e-04  -9.988057e-03  0 
 1.332151e-03  -9.996188e-03  0 
 2.252879e-03  -1.001197e-02  0 
VECTORS displacement_ITER6 FLOAT
 -2.053215e-03  -7.787183e-03  0 
 -2.233520e-03  -1.001099e-02  0 
 -1.202297e-03  -7.767712e-03  0 
 -4.154236e-04  -7.756962e-03  0 
 4.340075e-04  -7.757012e-03  0 
 1.221193e-03  -7.768328e-03  0 
 2.071829e-03  -7.787822e-03  0 
 -1.313409e-03  -9.995294e-03  0 
 -4.501275e-04  -9.987871e-03  0 
 4.688016e-04  -9.987873e-03  0 
 1.332135e-03  -9.995378e-03  0 
 2.252335e-03  -1.001108e-02  0 
VECTORS displacement_ITER7 FLOAT
 -2.053073e-03  -7.786509e-03  0 
 -2.233447e-03  -1.001036e-02  0 
 -1.202203e-03  -7.767094e-03  0 
 -4.153089e-04  -7.756648e-03  0 
 4.338405e-04  -7.756694e-03  0 
 1.221088e-03  -7.767639e-03  0 
 2.071774e-03  -7.787073e-03  0 
 -1.313215e-03  -9.994668e-03  0 
 -4.499945e-04  -9.986957e-03  0 
 4.687160e-04  -9.986965e-03  0 
 1.331964e-03  -9.994859e-03  0 
 2.252206e-03  -1.001057e-02  0 
VECTORS displacement_ITER8 FLOAT
 -2.053068e-03  -7.785816e-03  0 
 -2.233460e-03  -1.001012e-02  0 
 -1.202071e-03  -7.766451e-03  0 
 -4.151416e-04  -7.756563e-03  0 
 4.336735e-04  -7.756604e-03  0 
 1.220929e-03  -7.766936e-03  0 
 2.071794e-03  -7.786318e-03  0 
 -1.313019e-03  -9.994404e-03  0 
 -4.498638e-04  -9.986160e-03  0 
 4.685922e-04  -9.986168e-03  0 
 1.331771e-03  -9.994566e-03  0 
 2.252188e-03  -1.001029e-02  0 
VECTORS displacement_ITER9 FLOAT
 -2.053050e-03  -7.785608e-03  0 
 -2.233442e-03  -1.001004e-02  0 
 -1.202023e-03  -7.766264e-03  0 
 -4.150577e-04  -7.756589e-03  0 
 4.336135e-04  -7.756626e-03  0 
 1.220861e-03  -7.766713e-03  0 
 2.071780e-03  -7.786072e-03  0 
 -1.312936e-03  -9.994326e-03  0 
 -4.498224e-04  -9.985916e-03  0 
 4.685592e-04  -9.985923e-03  0 
 1.331693e-03  -9.994448e-03  0 
 2.252151e-03  -1.001017e-02  0 
VECTORS displacement_ITER10 FLOAT
 -2.052992e-03  -7.785645e-03  0 
 -2.233375e-03  -1.000993e-02  0 
 -1.202029e-03  -7.766305e-03  0 
 -4.150155e-04  -7.756571e-03  0 
 4.336325e-04  -7.756604e-03  0 
 1.220858e-03  -7.766717e-03  0 
 2.071703e-03  -7.786070e-03  0 
 -1.312910e-03  -9.994218e-03  0 
 -4.498309e-04  -9.985914e-03  0 
 4.685949e-04  -9.985920e-03  0 
 1.331682e-03  -9.994297e-03  0 
 2.252062e-03  -1.001001e-02  0 
VECTORS displacement_ITER11 FLOAT
 -2.052941e-03  -7.785672e-03  0 
 -2.233316e-03  -1.000975e-02  0 
 -1.202054e-03  -7.766327e-03  0 
 -4.150115e-04  -7.756432e-03  0 
 4.336825e-04  -7.756464e-03  0 
 1.220885e-03  -7.766723e-03  0 
 2.071623e-03  -7.786081e-03  0 
 -1.312915e-03  -9.994050e-03  0 
 -4.498516e-04  -9.985897e-03  0 
 4.686345e-04  -9.985902e-03  0 
 1.331699e-03  -9.994105e-03  0 
 2.251995e-03  -1.000981e-02  0 
VECTORS displacement_ITER12 FLOAT
 -2.052927e-03  -7.785595e-03  0 
 -2.233303e-03  -1.000966e-02  0 
 -1.202053e-03  -7.766248e-03  0 
 -4.150114e-04  -7.756333e-03  0 
 4.336894e-04  -7.756366e-03  0 
 1.220883e-03  -7.766651e-03  0 
 2.071602e-03  -7.786011e-03  0 
 -1.312906e-03  -9.993953e-03  0 
 -4.498500e-04  -9.985796e-03  0 
 4.686284e-04  -9.985802e-03  0 
 1.331690e-03  -9.994013e-03  0 
 2.251989e-03  -1.000972e-02  0 
VECTORS displacement_ITER13 FLOAT
 -2.052924e-03  -7.785569e-03  0 
 -2.233300e-03  -1.000964e-02  0 
 -1.202050e-03  -7.766222e-03  0 
 -4.150101e-04  -7.756314e-03  0 
 4.336879e-04  -7.756346e-03  0 
 1.220880e-03  -7.766629e-03  0 
 2.071599e-03  -7.785988e-03  0 
 -1.312901e-03  -9.993932e-03  0 
 -4.498481e-04  -9.985765e-03  0 
 4.686234e-04  -9.985770e-03  0 
 1.331684e-03  -9.993996e-03  0 
 2.251990e-03  -1.000970e-02  0 
VECTORS displacement_ITER14 FLOAT
 -2.052926e-03  -7.785552e-03  0 
 -2.233301e-03  -1.000964e-02  0 
 -1.202044e-03  -7.766206e-03  0 
 -4.150057e-04  -7.756318e-03  0 
 4.336840e-04  -7.756351e-03  0 
 1.220875e-03  -7.766621e-03  0 
 2.071597e-03  -7.785980e-03  0 
 -1.312894e-03  -9.993937e-03  0 
 -4.498443e-04  -9.985750e-03  0 
 4.686188e-04  -9.985755e-03  0 
 1.331677e-03  -9.993999e-03  0 
 2.251991e-03  -1.000971e-02  0 
VECTORS displacement_ITER15 FLOAT
 -2.052922e-03  -7.785553e-03  0 
 -2.233297e-03  -1.000964e-02  0 
 -1.202043e-03  -7.766207e-03  0 
 -4.150081e-04  -7.756318e-03  0 
 4.336792e-04  -7.756351e-03  0 
 1.220872e-03  -7.766614e-03  0 
 2.071601e-03  -7.785972e-03  0 
 -1.312893e-03  -9.993930e-03  0 
 -4.498470e-04  -9.985746e-03  0 
 4.686146e-04  -9.985752e-03  0 
 1.331674e-03  -9.994005e-03  0 
 2.251995e-03  -1.000971e-02  0 
VECTORS displacement_ITER16 FLOAT
 -2.052927e-03  -7.785543e-03  0 
 -2.233302e-03  -1.000964e-02  0 
 -1.202042e-03  -7.766197e-03  0 
 -4.150042e-04  -7.756315e-03  0 
 4.336830e-04  -7.756348e-03  0 
 1.220873e-03  -7.766618e-03  0 
 2.071595e-03  -7.785978e-03  0 
 -1.312892e-03  -9.993934e-03  0 
 -4.498434e-04  -9.985744e-03  0 
 4.686191e-04  -9.985749e-03  0 
 1.331675e-03  -9.993993e-03  0 
 2.251989e-03  -1.000970e-02  0 
VECTORS displacement_ITER17 FLOAT
 -2.052922e-03  -7.785548e-03  0 
 -2.233297e-03  -1.000963e-02  0 
 -1.202043e-03  -7.766202e-03  0 
 -4.150079e-04  -7.756312e-03  0 
 4.336795e-04  -7.756345e-03  0 
 1.220873e-03  -7.766611e-03  0 
 2.071599e-03  -7.785970e-03  0 
 -1.312893e-03  -9.993926e-03  0 
 -4.498471e-04  -9.985742e-03  0 
 4.686161e-04  -9.985748e-03  0 
 1.331674e-03  -9.993996e-03  0 
 2.251993e-03  -1.000970e-02  0 
VECTORS displacement_ITER18 FLOAT
 -2.052922e-03  -7.785546e-03  0 
 -2.233298e-03  -1.000963e-02  0 
 -1.202043e-03  -7.766200e-03  0 
 -4.150075e-04  -7.756311e-03  0 
 4.336799e-04  -7.756344e-03  0 
 1.220873e-03  -7.766612e-03  0 
 2.071598e-03  -7.785971e-03  0 
 -1.312892e-03  -9.993926e-03  0 
 -4.498464e-04  -9.985741e-03  0 
 4.686168e-04  -9.985747e-03  0 
 1.331674e-03  -9.993994e-03  0 
 2.251992e-03  -1.000970e-02  0 
VECTORS displacement_ITER19 FLOAT
 -2.052923e-03  -7.785545e-03  0 
 -2.233298e-03  -1.000963e-02  0 
 -1.202043e-03  -7.766199e-03  0 
 -4.150071e-04  -7.756311e-03  0 
 4.336802e-04  -7.756344e-03  0 
 1.220873e-03  -7.766612e-03  0 
 2.071597e-03  -7.785972e-03  0 
 -1.312892e-03  -9.993926e-03  0 
 -4.498460e-04  -9.985741e-03  0 
 4.686172e-04  -9.985746e-03  0 
 1.331674e-03  -9.993993e-03  0 
 2.251991e-03  -1.000970e-02  0 
VECTORS displacement_ITER20 FLOAT
 -2.052922e-03  -7.785546e-03  0 
 -2.233298e-03  -1.000963e-02  0 
 -1.202043e-03  -7.766200e-03  0 
 -4.150075e-04  -7.756311e-03  0 
 4.336797e-04  -7.756344e-03  0 
 1.220873e-03  -7.766611e-03  0 
 2.071598e-03  -7.785971e-03  0 
 -1.312892e-03  -9.993926e-03  0 
 -4.498463e-04  -9.985741e-03  0 
 4.686168e-04  -9.985746e-03  0 
 1.331674e-03  -9.993993e-03  0 
 2.251992e-03  -1.000970e-02  0 
VECTORS displacement_ITER21 FLOAT
 -2.052922e-03  -7.785546e-03  0 
 -2.233298e-03  -1.000963e-02  0 
 -1.202043e-03  -7.766199e-03  0 
 -4.150074e-04  -7.756311e-03  0 
 4.336798e-04  -7.756344e-03  0 
 1.220873e-03  -7.766611e-03  0 
 2.071597e-03  -7.785971e-03  0 
 -1.312892e-03  -9.993926e-03  0 
 -4.498462e-04  -9.985741e-03  0 
 4.686169e-04  -9.985746e-03  0 
 1.331674e-03  -9.993993e-03  0 
 2.251991e-03  -1.000970e-02  0 
VECTORS displacement_ITER22 FLOAT
 -2.052922e-03  -7.785546e-03  0 
 -2.233298e-03  -1.000963e-02  0 
 -1.202042e-03  -7.766199e-03  0 
 -4.150074e-04  -7.756311e-03  0 
 4.336798e-04  -7.756344e-03  0 
 1.220873e-03  -7.766611e-03  0 
 2.071597e-03  -7.785971e-03  0 
 -1.312892e-03  -9.993926e-03  0 
 -4.498462e-04  -9.985740e-03  0 
 4.686169e-04  -9.985746e-03  0 
 1.331674e-03  -9.993993e-03  0 
 2.251991e-03  -1.000970e-02  0 
VECTORS displacement_ITER23 FLOAT
 -2.052922e-03  -7.785546e-03  0 
 -2.233298e-03  -1.000963e-02  0 
 -1.202042e-03  -7.766199e-03  0 
 -4.150074e-04  -7.756311e-03  0 
 4.336798e-04  -7.756344e-03  0 
 1.220873e-03  -7.766611e-03  0 
 2.071597e-03  -7.785971e-03  0 
 -1.312892e-03  -9.993926e-03  0 
 -4.498462e-04  -9.985740e-03  0 
 4.686169e-04  -9.985746e-03  0 
 1.331674e-03  -9.993993e-03  0 
 2.251991e-03  -1.000970e-02  0 
VECTORS displacement_ITER24 FLOAT
 -2.052922e-03  -7.785546e-03  0 
 -2.233298e-03  -1.000963e-02  0 
 -1.202042e-03  -7.766199e-03  0 
 -4.150074e-04  -7.756311e-03  0 
 4.336798e-04  -7.756344e-03  0 
 1.220873e-03  -7.766611e-03  0 
 2.071597e-03  -7.785971e-03  0 
 -1.312892e-03  -9.993926e-03  0 
 -4.498462e-04  -9.985740e-03  0 
 4.686169e-04  -9.985746e-03  0 
 1.331674e-03  -9.993993e-03  0 
 2.251991e-03  -1.000970e-02  0 
CELL_DATA 5
TENSORS element_stresses FLOAT
 -2.911377e-01  -1.815390e-02  0 
 -1.815390e-02  2.913997e-04  0 
 0  0  0 

 -1.452014e-02  -2.553487e-02  0 
 -2.553487e-02  1.623515e-04  0 
 0  0  0 

 7.637724e-05  -3.150466e-02  0 
 -3.150466e-02  -7.321766e-05  0 
 0  0  0 

 1.448931e-02  -2.547377e-02  0 
 -2.547377e-02  -2.817361e-04  0 
 0  0  0 

 2.910921e-01  -1.808280e-02  0 
 -1.808280e-02  -3.434578e-04  0 
 0  0  0 

TENSORS element_stresses FLOAT
 -2.911377e-01  -1.815390e-02  0 
 -1.815390e-02  2.913997e-04  0 
 0  0  0 

 -1.452014e-02  -2.553487e-02  0 
 -2.553487e-02  1.623515e-04  0 
 0  0  0 

 7.637724e-05  -3.150466e-02  0 
 -3.150466e-02  -7.321766e-05  0 
 0  0  0 

 1.448931e-02  -2.547377e-02  0 
 -2.547377e-02  -2.817361e-04  0 
 0  0  0 

 2.910921e-01  -1.808280e-02  0 
 -1.808280e-02  -3.434578e-04  0 
 0  0  0 

