# vtk DataFile Version 3.1
this is an vtk file created by FEMAC
ASCII
DATASET UNSTRUCTURED_GRID
POINTS 12 FLOAT
5.000000 0.000000 0.000000
5.500000 0.000000 0.000000
5.000000 0.200000 0.000000
5.000000 0.400000 0.000000
5.000000 0.600000 0.000000
5.000000 0.800000 0.000000
5.000000 1.000000 0.000000
5.500000 0.200000 0.000000
5.500000 0.400000 0.000000
5.500000 0.600000 0.000000
5.500000 0.800000 0.000000
5.500000 1.000000 0.000000
CELLS 5 25 
4 0 1 7 2
4 2 7 8 3
4 3 8 9 4
4 4  9 10  5
4 5 10 11  6
CELL_TYPES 5
9 9 9 9 9 
POINT_DATA 12
VECTORS displacement_ITER1 FLOAT
 -2.582152e-03  -1.752266e-02  0 
 -2.642753e-03  -2.018743e-02  0 
 -1.528576e-03  -1.751474e-02  0 
 -5.192763e-04  -1.750700e-02  0 
 5.369893e-04  -1.750700e-02  0 
 1.546289e-03  -1.751474e-02  0 
 2.599865e-03  -1.752265e-02  0 
 -1.567964e-03  -2.018299e-02  0 
 -5.296989e-04  -2.018369e-02  0 
 5.474096e-04  -2.018369e-02  0 
 1.585675e-03  -2.018299e-02  0 
 2.660464e-03  -2.018742e-02  0 
VECTORS displacement_ITER2 FLOAT
 -2.579938e-03  -1.750341e-02  0 
 -2.640532e-03  -2.016437e-02  0 
 -1.528108e-03  -1.749565e-02  0 
 -5.182260e-04  -1.748773e-02  0 
 5.362525e-04  -1.748773e-02  0 
 1.546135e-03  -1.749565e-02  0 
 2.597965e-03  -1.750340e-02  0 
 -1.567373e-03  -2.015982e-02  0 
 -5.287613e-04  -2.016071e-02  0 
 5.467858e-04  -2.016070e-02  0 
 1.585397e-03  -2.015982e-02  0 
 2.658556e-03  -2.016436e-02  0 
VECTORS displacement_ITER3 FLOAT
 -2.577202e-03  -1.748875e-02  0 
 -2.637743e-03  -2.014869e-02  0 
 -1.526138e-03  -1.748151e-02  0 
 -5.153898e-04  -1.747821e-02  0 
 5.340388e-04  -1.747821e-02  0 
 1.544787e-03  -1.748150e-02  0 
 2.595852e-03  -1.748874e-02  0 
 -1.565204e-03  -2.014374e-02  0 
 -5.261674e-04  -2.014026e-02  0 
 5.448151e-04  -2.014026e-02  0 
 1.583852e-03  -2.014374e-02  0 
 2.656390e-03  -2.014868e-02  0 
VECTORS displacement_ITER4 FLOAT
 -2.576306e-03  -1.748596e-02  0 
 -2.636836e-03  -2.014478e-02  0 
 -1.525783e-03  -1.747882e-02  0 
 -5.148520e-04  -1.747590e-02  0 
 5.336338e-04  -1.747590e-02  0 
 1.544565e-03  -1.747882e-02  0 
 2.595088e-03  -1.748596e-02  0 
 -1.564789e-03  -2.013978e-02  0 
 -5.256820e-04  -2.013594e-02  0 
 5.444631e-04  -2.013594e-02  0 
 1.583571e-03  -2.013978e-02  0 
 2.655617e-03  -2.014478e-02  0 
VECTORS displacement_ITER5 FLOAT
 -2.575565e-03  -1.748358e-02  0 
 -2.636089e-03  -2.014062e-02  0 
 -1.525801e-03  -1.747644e-02  0 
 -5.147935e-04  -1.747268e-02  0 
 5.336248e-04  -1.747269e-02  0 
 1.544607e-03  -1.747654e-02  0 
 2.594297e-03  -1.748369e-02  0 
 -1.564767e-03  -2.013565e-02  0 
 -5.256431e-04  -2.013264e-02  0 
 5.444790e-04  -2.013263e-02  0 
 1.583569e-03  -2.013558e-02  0 
 2.654827e-03  -2.014056e-02  0 
VECTORS displacement_ITER6 FLOAT
 -2.575080e-03  -1.748166e-02  0 
 -2.635555e-03  -2.013749e-02  0 
 -1.525764e-03  -1.747453e-02  0 
 -5.147326e-04  -1.747023e-02  0 
 5.335930e-04  -1.747023e-02  0 
 1.544585e-03  -1.747448e-02  0 
 2.593783e-03  -1.748161e-02  0 
 -1.564710e-03  -2.013253e-02  0 
 -5.256363e-04  -2.013002e-02  0 
 5.444357e-04  -2.013002e-02  0 
 1.583509e-03  -2.013254e-02  0 
 2.654348e-03  -2.013750e-02  0 
VECTORS displacement_ITER7 FLOAT
 -2.574881e-03  -1.748059e-02  0 
 -2.635389e-03  -2.013639e-02  0 
 -1.525700e-03  -1.747349e-02  0 
 -5.147266e-04  -1.746941e-02  0 
 5.333910e-04  -1.746941e-02  0 
 1.544421e-03  -1.747353e-02  0 
 2.593666e-03  -1.748064e-02  0 
 -1.564623e-03  -2.013143e-02  0 
 -5.256116e-04  -2.012875e-02  0 
 5.442866e-04  -2.012875e-02  0 
 1.583338e-03  -2.013142e-02  0 
 2.654180e-03  -2.013639e-02  0 
VECTORS displacement_ITER8 FLOAT
 -2.574785e-03  -1.747999e-02  0 
 -2.635323e-03  -2.013581e-02  0 
 -1.525589e-03  -1.747290e-02  0 
 -5.146350e-04  -1.746903e-02  0 
 5.333087e-04  -1.746903e-02  0 
 1.544320e-03  -1.747291e-02  0 
 2.593601e-03  -1.748000e-02  0 
 -1.564493e-03  -2.013084e-02  0 
 -5.255045e-04  -2.012800e-02  0 
 5.442418e-04  -2.012800e-02  0 
 1.583235e-03  -2.013091e-02  0 
 2.654073e-03  -2.013588e-02  0 
VECTORS displacement_ITER9 FLOAT
 -2.574741e-03  -1.747966e-02  0 
 -2.635262e-03  -2.013544e-02  0 
 -1.525544e-03  -1.747258e-02  0 
 -5.145845e-04  -1.746873e-02  0 
 5.333113e-04  -1.746873e-02  0 
 1.544286e-03  -1.747257e-02  0 
 2.593517e-03  -1.747965e-02  0 
 -1.564441e-03  -2.013047e-02  0 
 -5.254755e-04  -2.012759e-02  0 
 5.442285e-04  -2.012759e-02  0 
 1.583192e-03  -2.013050e-02  0 
 2.654004e-03  -2.013547e-02  0 
VECTORS displacement_ITER10 FLOAT
 -2.574681e-03  -1.747928e-02  0 
 -2.635184e-03  -2.013495e-02  0 
 -1.525524e-03  -1.747220e-02  0 
 -5.145680e-04  -1.746829e-02  0 
 5.333278e-04  -1.746829e-02  0 
 1.544268e-03  -1.747219e-02  0 
 2.593423e-03  -1.747927e-02  0 
 -1.564415e-03  -2.012998e-02  0 
 -5.254779e-04  -2.012715e-02  0 
 5.442276e-04  -2.012715e-02  0 
 1.583165e-03  -2.012997e-02  0 
 2.653928e-03  -2.013493e-02  0 
VECTORS displacement_ITER11 FLOAT
 -2.574642e-03  -1.747900e-02  0 
 -2.635144e-03  -2.013462e-02  0 
 -1.525503e-03  -1.747192e-02  0 
 -5.145605e-04  -1.746801e-02  0 
 5.333189e-04  -1.746801e-02  0 
 1.544249e-03  -1.747191e-02  0 
 2.593389e-03  -1.747899e-02  0 
 -1.564391e-03  -2.012966e-02  0 
 -5.254714e-04  -2.012683e-02  0 
 5.442242e-04  -2.012683e-02  0 
 1.583142e-03  -2.012966e-02  0 
 2.653891e-03  -2.013462e-02  0 
VECTORS displacement_ITER12 FLOAT
 -2.574644e-03  -1.747889e-02  0 
 -2.635144e-03  -2.013456e-02  0 
 -1.525485e-03  -1.747181e-02  0 
 -5.145439e-04  -1.746795e-02  0 
 5.333135e-04  -1.746795e-02  0 
 1.544236e-03  -1.747183e-02  0 
 2.593374e-03  -1.747890e-02  0 
 -1.564374e-03  -2.012960e-02  0 
 -5.254587e-04  -2.012672e-02  0 
 5.442220e-04  -2.012672e-02  0 
 1.583128e-03  -2.012956e-02  0 
 2.653875e-03  -2.013453e-02  0 
VECTORS displacement_ITER13 FLOAT
 -2.574622e-03  -1.747888e-02  0 
 -2.635120e-03  -2.013450e-02  0 
 -1.525485e-03  -1.747181e-02  0 
 -5.145585e-04  -1.746792e-02  0 
 5.332979e-04  -1.746792e-02  0 
 1.544231e-03  -1.747178e-02  0 
 2.593387e-03  -1.747886e-02  0 
 -1.564375e-03  -2.012954e-02  0 
 -5.254726e-04  -2.012669e-02  0 
 5.442083e-04  -2.012669e-02  0 
 1.583122e-03  -2.012956e-02  0 
 2.653889e-03  -2.013453e-02  0 
VECTORS displacement_ITER14 FLOAT
 -2.574634e-03  -1.747884e-02  0 
 -2.635134e-03  -2.013449e-02  0 
 -1.525484e-03  -1.747176e-02  0 
 -5.145477e-04  -1.746788e-02  0 
 5.333176e-04  -1.746788e-02  0 
 1.544238e-03  -1.747180e-02  0 
 2.593359e-03  -1.747887e-02  0 
 -1.564374e-03  -2.012952e-02  0 
 -5.254596e-04  -2.012667e-02  0 
 5.442287e-04  -2.012667e-02  0 
 1.583128e-03  -2.012949e-02  0 
 2.653859e-03  -2.013446e-02  0 
VECTORS displacement_ITER15 FLOAT
 -2.574617e-03  -1.747885e-02  0 
 -2.635118e-03  -2.013446e-02  0 
 -1.525487e-03  -1.747177e-02  0 
 -5.145602e-04  -1.746787e-02  0 
 5.333069e-04  -1.746787e-02  0 
 1.544235e-03  -1.747177e-02  0 
 2.593371e-03  -1.747885e-02  0 
 -1.564376e-03  -2.012949e-02  0 
 -5.254711e-04  -2.012666e-02  0 
 5.442180e-04  -2.012666e-02  0 
 1.583126e-03  -2.012950e-02  0 
 2.653871e-03  -2.013446e-02  0 
VECTORS displacement_ITER16 FLOAT
 -2.574616e-03  -1.747884e-02  0 
 -2.635118e-03  -2.013445e-02  0 
 -1.525485e-03  -1.747177e-02  0 
 -5.145601e-04  -1.746786e-02  0 
 5.333051e-04  -1.746786e-02  0 
 1.544234e-03  -1.747176e-02  0 
 2.593372e-03  -1.747884e-02  0 
 -1.564375e-03  -2.012949e-02  0 
 -5.254703e-04  -2.012665e-02  0 
 5.442163e-04  -2.012665e-02  0 
 1.583124e-03  -2.012950e-02  0 
 2.653872e-03  -2.013446e-02  0 
VECTORS displacement_ITER17 FLOAT
 -2.574619e-03  -1.747883e-02  0 
 -2.635121e-03  -2.013445e-02  0 
 -1.525484e-03  -1.747176e-02  0 
 -5.145575e-04  -1.746786e-02  0 
 5.333061e-04  -1.746786e-02  0 
 1.544233e-03  -1.747176e-02  0 
 2.593370e-03  -1.747883e-02  0 
 -1.564373e-03  -2.012949e-02  0 
 -5.254677e-04  -2.012665e-02  0 
 5.442172e-04  -2.012665e-02  0 
 1.583123e-03  -2.012949e-02  0 
 2.653871e-03  -2.013446e-02  0 
VECTORS displacement_ITER18 FLOAT
 -2.574619e-03  -1.747883e-02  0 
 -2.635121e-03  -2.013445e-02  0 
 -1.525484e-03  -1.747176e-02  0 
 -5.145570e-04  -1.746786e-02  0 
 5.333061e-04  -1.746786e-02  0 
 1.544233e-03  -1.747176e-02  0 
 2.593370e-03  -1.747883e-02  0 
 -1.564373e-03  -2.012949e-02  0 
 -5.254675e-04  -2.012665e-02  0 
 5.442172e-04  -2.012665e-02  0 
 1.583123e-03  -2.012949e-02  0 
 2.653870e-03  -2.013445e-02  0 
VECTORS displacement_ITER19 FLOAT
 -2.574618e-03  -1.747883e-02  0 
 -2.635120e-03  -2.013445e-02  0 
 -1.525484e-03  -1.747176e-02  0 
 -5.145571e-04  -1.746786e-02  0 
 5.333058e-04  -1.746786e-02  0 
 1.544233e-03  -1.747176e-02  0 
 2.593371e-03  -1.747883e-02  0 
 -1.564373e-03  -2.012949e-02  0 
 -5.254678e-04  -2.012665e-02  0 
 5.442171e-04  -2.012665e-02  0 
 1.583123e-03  -2.012949e-02  0 
 2.653871e-03  -2.013445e-02  0 
VECTORS displacement_ITER20 FLOAT
 -2.574618e-03  -1.747883e-02  0 
 -2.635120e-03  -2.013445e-02  0 
 -1.525484e-03  -1.747176e-02  0 
 -5.145571e-04  -1.746786e-02  0 
 5.333060e-04  -1.746786e-02  0 
 1.544233e-03  -1.747176e-02  0 
 2.593370e-03  -1.747883e-02  0 
 -1.564373e-03  -2.012949e-02  0 
 -5.254678e-04  -2.012665e-02  0 
 5.442173e-04  -2.012665e-02  0 
 1.583123e-03  -2.012949e-02  0 
 2.653870e-03  -2.013445e-02  0 
VECTORS displacement_ITER21 FLOAT
 -2.574618e-03  -1.747883e-02  0 
 -2.635120e-03  -2.013445e-02  0 
 -1.525484e-03  -1.747176e-02  0 
 -5.145571e-04  -1.746786e-02  0 
 5.333061e-04  -1.746786e-02  0 
 1.544233e-03  -1.747176e-02  0 
 2.593370e-03  -1.747883e-02  0 
 -1.564373e-03  -2.012949e-02  0 
 -5.254678e-04  -2.012665e-02  0 
 5.442174e-04  -2.012665e-02  0 
 1.583123e-03  -2.012949e-02  0 
 2.653870e-03  -2.013445e-02  0 
VECTORS displacement_ITER22 FLOAT
 -2.574618e-03  -1.747883e-02  0 
 -2.635120e-03  -2.013445e-02  0 
 -1.525484e-03  -1.747176e-02  0 
 -5.145571e-04  -1.746786e-02  0 
 5.333060e-04  -1.746786e-02  0 
 1.544233e-03  -1.747176e-02  0 
 2.593370e-03  -1.747883e-02  0 
 -1.564373e-03  -2.012949e-02  0 
 -5.254679e-04  -2.012665e-02  0 
 5.442173e-04  -2.012665e-02  0 
 1.583123e-03  -2.012949e-02  0 
 2.653870e-03  -2.013445e-02  0 
VECTORS displacement_ITER23 FLOAT
 -2.574618e-03  -1.747883e-02  0 
 -2.635120e-03  -2.013445e-02  0 
 -1.525484e-03  -1.747176e-02  0 
 -5.145571e-04  -1.746786e-02  0 
 5.333060e-04  -1.746786e-02  0 
 1.544233e-03  -1.747176e-02  0 
 2.593370e-03  -1.747883e-02  0 
 -1.564373e-03  -2.012949e-02  0 
 -5.254678e-04  -2.012665e-02  0 
 5.442173e-04  -2.012665e-02  0 
 1.583123e-03  -2.012949e-02  0 
 2.653870e-03  -2.013445e-02  0 
VECTORS displacement_ITER24 FLOAT
 -2.574618e-03  -1.747883e-02  0 
 -2.635120e-03  -2.013445e-02  0 
 -1.525484e-03  -1.747176e-02  0 
 -5.145571e-04  -1.746786e-02  0 
 5.333060e-04  -1.746786e-02  0 
 1.544233e-03  -1.747176e-02  0 
 2.593370e-03  -1.747883e-02  0 
 -1.564373e-03  -2.012949e-02  0 
 -5.254678e-04  -2.012665e-02  0 
 5.442173e-04  -2.012665e-02  0 
 1.583123e-03  -2.012949e-02  0 
 2.653870e-03  -2.013445e-02  0 
CELL_DATA 5
TENSORS element_stresses FLOAT
 -9.929713e-02  -1.049501e-02  0 
 -1.049501e-02  3.132023e-04  0 
 0  0  0 

 -4.917250e-03  -1.476433e-02  0 
 -1.476433e-02  2.091195e-04  0 
 0  0  0 

 5.702475e-07  -1.823293e-02  0 
 -1.823293e-02  2.230604e-07  0 
 0  0  0 

 4.917430e-03  -1.476442e-02  0 
 -1.476442e-02  -2.090767e-04  0 
 0  0  0 

 9.929638e-02  -1.049332e-02  0 
 -1.049332e-02  -3.133400e-04  0 
 0  0  0 

TENSORS element_stresses FLOAT
 -9.929713e-02  -1.049501e-02  0 
 -1.049501e-02  3.132023e-04  0 
 0  0  0 

 -4.917250e-03  -1.476433e-02  0 
 -1.476433e-02  2.091195e-04  0 
 0  0  0 

 5.702475e-07  -1.823293e-02  0 
 -1.823293e-02  2.230604e-07  0 
 0  0  0 

 4.917430e-03  -1.476442e-02  0 
 -1.476442e-02  -2.090767e-04  0 
 0  0  0 

 9.929638e-02  -1.049332e-02  0 
 -1.049332e-02  -3.133400e-04  0 
 0  0  0 

