# vtk DataFile Version 3.1
this is an vtk file created by FEMAC
ASCII
DATASET UNSTRUCTURED_GRID
POINTS 12 FLOAT
2.500000 0.000000 0.000000
3.000000 0.000000 0.000000
2.500000 0.200000 0.000000
2.500000 0.400000 0.000000
2.500000 0.600000 0.000000
2.500000 0.800000 0.000000
2.500000 1.000000 0.000000
3.000000 0.200000 0.000000
3.000000 0.400000 0.000000
3.000000 0.600000 0.000000
3.000000 0.800000 0.000000
3.000000 1.000000 0.000000
CELLS 5 25 
4 0 1 7 2
4 2 7 8 3
4 3 8 9 4
4 4  9 10  5
4 5 10 11  6
CELL_TYPES 5
9 9 9 9 9 
POINT_DATA 12
VECTORS displacement_ITER1 FLOAT
 -1.837889e-03  -5.776879e-03  0 
 -2.055979e-03  -7.802530e-03  0 
 -1.072930e-03  -5.755167e-03  0 
 -3.740149e-04  -5.739879e-03  0 
 3.917256e-04  -5.739881e-03  0 
 1.090641e-03  -5.755171e-03  0 
 1.855600e-03  -5.776887e-03  0 
 -1.209337e-03  -7.785626e-03  0 
 -4.148369e-04  -7.780718e-03  0 
 4.325498e-04  -7.780720e-03  0 
 1.227050e-03  -7.785630e-03  0 
 2.073692e-03  -7.802537e-03  0 
VECTORS displacement_ITER2 FLOAT
 -1.836222e-03  -5.765345e-03  0 
 -2.054961e-03  -7.791066e-03  0 
 -1.071671e-03  -5.743042e-03  0 
 -3.738617e-04  -5.727021e-03  0 
 3.918862e-04  -5.727023e-03  0 
 1.089695e-03  -5.743046e-03  0 
 1.854246e-03  -5.765352e-03  0 
 -1.207702e-03  -7.773537e-03  0 
 -4.152089e-04  -7.768739e-03  0 
 4.332353e-04  -7.768741e-03  0 
 1.225729e-03  -7.773540e-03  0 
 2.072988e-03  -7.791072e-03  0 
VECTORS displacement_ITER3 FLOAT
 -1.842872e-03  -5.738857e-03  0 
 -2.061793e-03  -7.794903e-03  0 
 -1.066275e-03  -5.716555e-03  0 
 -3.667623e-04  -5.719096e-03  0 
 3.962590e-04  -5.720597e-03  0 
 1.088805e-03  -5.744105e-03  0 
 1.845150e-03  -5.767606e-03  0 
 -1.202315e-03  -7.775662e-03  0 
 -4.084673e-04  -7.756541e-03  0 
 4.391968e-04  -7.755760e-03  0 
 1.223604e-03  -7.758502e-03  0 
 2.065677e-03  -7.776985e-03  0 
VECTORS displacement_ITER4 FLOAT
 -1.830976e-03  -5.755546e-03  0 
 -2.050549e-03  -7.780426e-03  0 
 -1.067582e-03  -5.732303e-03  0 
 -3.752051e-04  -5.720044e-03  0 
 3.873372e-04  -5.719950e-03  0 
 1.086196e-03  -5.727401e-03  0 
 1.856021e-03  -5.750314e-03  0 
 -1.203195e-03  -7.761566e-03  0 
 -4.173426e-04  -7.755379e-03  0 
 4.304166e-04  -7.755948e-03  0 
 1.221088e-03  -7.773042e-03  0 
 2.076351e-03  -7.792483e-03  0 
VECTORS displacement_ITER5 FLOAT
 -1.832702e-03  -5.755245e-03  0 
 -2.053008e-03  -7.786335e-03  0 
 -1.067356e-03  -5.731946e-03  0 
 -3.729476e-04  -5.720495e-03  0 
 3.898728e-04  -5.720530e-03  0 
 1.086295e-03  -5.731352e-03  0 
 1.852957e-03  -5.754549e-03  0 
 -1.202462e-03  -7.767143e-03  0 
 -4.155112e-04  -7.757319e-03  0 
 4.328765e-04  -7.757375e-03  0 
 1.221461e-03  -7.768537e-03  0 
 2.072814e-03  -7.787804e-03  0 
VECTORS displacement_ITER6 FLOAT
 -1.832827e-03  -5.755511e-03  0 
 -2.053326e-03  -7.787059e-03  0 
 -1.067422e-03  -5.732141e-03  0 
 -3.723929e-04  -5.720220e-03  0 
 3.907011e-04  -5.720283e-03  0 
 1.086249e-03  -5.732854e-03  0 
 1.851811e-03  -5.756215e-03  0 
 -1.202382e-03  -7.767770e-03  0 
 -4.150452e-04  -7.758004e-03  0 
 4.337955e-04  -7.758004e-03  0 
 1.221374e-03  -7.767466e-03  0 
 2.071677e-03  -7.786715e-03  0 
VECTORS displacement_ITER7 FLOAT
 -1.832423e-03  -5.755499e-03  0 
 -2.052968e-03  -7.786076e-03  0 
 -1.067467e-03  -5.732090e-03  0 
 -3.725165e-04  -5.719665e-03  0 
 3.905790e-04  -5.719679e-03  0 
 1.086092e-03  -5.732078e-03  0 
 1.851855e-03  -5.755459e-03  0 
 -1.202361e-03  -7.766769e-03  0 
 -4.151949e-04  -7.757393e-03  0 
 4.336833e-04  -7.757443e-03  0 
 1.221163e-03  -7.767338e-03  0 
 2.071795e-03  -7.786639e-03  0 
VECTORS displacement_ITER8 FLOAT
 -1.832387e-03  -5.754970e-03  0 
 -2.052967e-03  -7.785740e-03  0 
 -1.067418e-03  -5.731564e-03  0 
 -3.723918e-04  -5.719297e-03  0 
 3.905966e-04  -5.719294e-03  0 
 1.085978e-03  -5.731449e-03  0 
 1.851763e-03  -5.754831e-03  0 
 -1.202239e-03  -7.766400e-03  0 
 -4.151126e-04  -7.756690e-03  0 
 4.336676e-04  -7.756735e-03  0 
 1.221018e-03  -7.766895e-03  0 
 2.071748e-03  -7.786228e-03  0 
VECTORS displacement_ITER9 FLOAT
 -1.832496e-03  -5.754593e-03  0 
 -2.053072e-03  -7.785837e-03  0 
 -1.067361e-03  -5.731203e-03  0 
 -3.722247e-04  -5.719264e-03  0 
 3.906826e-04  -5.719272e-03  0 
 1.085944e-03  -5.731402e-03  0 
 1.851598e-03  -5.754785e-03  0 
 -1.202140e-03  -7.766477e-03  0 
 -4.149766e-04  -7.756442e-03  0 
 4.337345e-04  -7.756469e-03  0 
 1.220955e-03  -7.766651e-03  0 
 2.071623e-03  -7.785995e-03  0 
VECTORS displacement_ITER10 FLOAT
 -1.832528e-03  -5.754451e-03  0 
 -2.053066e-03  -7.785862e-03  0 
 -1.067319e-03  -5.731072e-03  0 
 -3.721513e-04  -5.719358e-03  0 
 3.907038e-04  -5.719379e-03  0 
 1.085943e-03  -5.731541e-03  0 
 1.851481e-03  -5.754925e-03  0 
 -1.202074e-03  -7.766500e-03  0 
 -4.149280e-04  -7.756419e-03  0 
 4.337521e-04  -7.756443e-03  0 
 1.220903e-03  -7.766667e-03  0 
 2.071569e-03  -7.786021e-03  0 
VECTORS displacement_ITER11 FLOAT
 -1.832439e-03  -5.754497e-03  0 
 -2.052945e-03  -7.785653e-03  0 
 -1.067315e-03  -5.731115e-03  0 
 -3.722118e-04  -5.719348e-03  0 
 3.906394e-04  -5.719371e-03  0 
 1.085954e-03  -5.731549e-03  0 
 1.851487e-03  -5.754930e-03  0 
 -1.202063e-03  -7.766305e-03  0 
 -4.149978e-04  -7.756422e-03  0 
 4.336928e-04  -7.756457e-03  0 
 1.220878e-03  -7.766750e-03  0 
 2.071618e-03  -7.786111e-03  0 
VECTORS displacement_ITER12 FLOAT
 -1.832426e-03  -5.754435e-03  0 
 -2.052930e-03  -7.785570e-03  0 
 -1.067310e-03  -5.731051e-03  0 
 -3.722146e-04  -5.719268e-03  0 
 3.906331e-04  -5.719294e-03  0 
 1.085959e-03  -5.731505e-03  0 
 1.851470e-03  -5.754886e-03  0 
 -1.202053e-03  -7.766224e-03  0 
 -4.150038e-04  -7.756353e-03  0 
 4.336882e-04  -7.756387e-03  0 
 1.220877e-03  -7.766655e-03  0 
 2.071605e-03  -7.786016e-03  0 
VECTORS displacement_ITER13 FLOAT
 -1.832421e-03  -5.754417e-03  0 
 -2.052927e-03  -7.785553e-03  0 
 -1.067307e-03  -5.731033e-03  0 
 -3.722147e-04  -5.719249e-03  0 
 3.906289e-04  -5.719274e-03  0 
 1.085960e-03  -5.731488e-03  0 
 1.851467e-03  -5.754868e-03  0 
 -1.202048e-03  -7.766206e-03  0 
 -4.150049e-04  -7.756330e-03  0 
 4.336854e-04  -7.756363e-03  0 
 1.220876e-03  -7.766628e-03  0 
 2.071601e-03  -7.785989e-03  0 
VECTORS displacement_ITER14 FLOAT
 -1.832415e-03  -5.754416e-03  0 
 -2.052924e-03  -7.785550e-03  0 
 -1.067304e-03  -5.731033e-03  0 
 -3.722167e-04  -5.719249e-03  0 
 3.906199e-04  -5.719275e-03  0 
 1.085957e-03  -5.731473e-03  0 
 1.851471e-03  -5.754851e-03  0 
 -1.202044e-03  -7.766204e-03  0 
 -4.150076e-04  -7.756317e-03  0 
 4.336791e-04  -7.756350e-03  0 
 1.220874e-03  -7.766623e-03  0 
 2.071601e-03  -7.785984e-03  0 
VECTORS displacement_ITER15 FLOAT
 -1.832412e-03  -5.754418e-03  0 
 -2.052922e-03  -7.785549e-03  0 
 -1.067303e-03  -5.731034e-03  0 
 -3.722174e-04  -5.719249e-03  0 
 3.906174e-04  -5.719275e-03  0 
 1.085957e-03  -5.731468e-03  0 
 1.851473e-03  -5.754846e-03  0 
 -1.202043e-03  -7.766203e-03  0 
 -4.150084e-04  -7.756314e-03  0 
 4.336777e-04  -7.756347e-03  0 
 1.220873e-03  -7.766620e-03  0 
 2.071601e-03  -7.785981e-03  0 
VECTORS displacement_ITER16 FLOAT
 -1.832411e-03  -5.754418e-03  0 
 -2.052922e-03  -7.785548e-03  0 
 -1.067304e-03  -5.731034e-03  0 
 -3.722174e-04  -5.719247e-03  0 
 3.906174e-04  -5.719272e-03  0 
 1.085957e-03  -5.731466e-03  0 
 1.851472e-03  -5.754844e-03  0 
 -1.202043e-03  -7.766202e-03  0 
 -4.150085e-04  -7.756313e-03  0 
 4.336784e-04  -7.756346e-03  0 
 1.220873e-03  -7.766615e-03  0 
 2.071599e-03  -7.785975e-03  0 
VECTORS displacement_ITER17 FLOAT
 -1.832411e-03  -5.754417e-03  0 
 -2.052922e-03  -7.785547e-03  0 
 -1.067304e-03  -5.731034e-03  0 
 -3.722171e-04  -5.719246e-03  0 
 3.906178e-04  -5.719271e-03  0 
 1.085958e-03  -5.731465e-03  0 
 1.851472e-03  -5.754842e-03  0 
 -1.202043e-03  -7.766200e-03  0 
 -4.150081e-04  -7.756312e-03  0 
 4.336792e-04  -7.756345e-03  0 
 1.220873e-03  -7.766612e-03  0 
 2.071598e-03  -7.785972e-03  0 
VECTORS displacement_ITER18 FLOAT
 -1.832411e-03  -5.754417e-03  0 
 -2.052922e-03  -7.785546e-03  0 
 -1.067304e-03  -5.731033e-03  0 
 -3.722170e-04  -5.719246e-03  0 
 3.906178e-04  -5.719271e-03  0 
 1.085958e-03  -5.731465e-03  0 
 1.851471e-03  -5.754842e-03  0 
 -1.202043e-03  -7.766200e-03  0 
 -4.150079e-04  -7.756312e-03  0 
 4.336795e-04  -7.756344e-03  0 
 1.220873e-03  -7.766611e-03  0 
 2.071598e-03  -7.785971e-03  0 
VECTORS displacement_ITER19 FLOAT
 -1.832411e-03  -5.754416e-03  0 
 -2.052922e-03  -7.785546e-03  0 
 -1.067304e-03  -5.731033e-03  0 
 -3.722167e-04  -5.719246e-03  0 
 3.906178e-04  -5.719271e-03  0 
 1.085958e-03  -5.731465e-03  0 
 1.851471e-03  -5.754842e-03  0 
 -1.202043e-03  -7.766200e-03  0 
 -4.150076e-04  -7.756311e-03  0 
 4.336796e-04  -7.756344e-03  0 
 1.220873e-03  -7.766611e-03  0 
 2.071598e-03  -7.785971e-03  0 
VECTORS displacement_ITER20 FLOAT
 -1.832411e-03  -5.754416e-03  0 
 -2.052922e-03  -7.785546e-03  0 
 -1.067304e-03  -5.731033e-03  0 
 -3.722165e-04  -5.719246e-03  0 
 3.906179e-04  -5.719271e-03  0 
 1.085957e-03  -5.731465e-03  0 
 1.851471e-03  -5.754842e-03  0 
 -1.202042e-03  -7.766200e-03  0 
 -4.150075e-04  -7.756311e-03  0 
 4.336798e-04  -7.756344e-03  0 
 1.220873e-03  -7.766611e-03  0 
 2.071597e-03  -7.785971e-03  0 
VECTORS displacement_ITER21 FLOAT
 -1.832411e-03  -5.754416e-03  0 
 -2.052922e-03  -7.785546e-03  0 
 -1.067304e-03  -5.731032e-03  0 
 -3.722165e-04  -5.719245e-03  0 
 3.906179e-04  -5.719270e-03  0 
 1.085958e-03  -5.731465e-03  0 
 1.851471e-03  -5.754842e-03  0 
 -1.202042e-03  -7.766199e-03  0 
 -4.150074e-04  -7.756311e-03  0 
 4.336798e-04  -7.756344e-03  0 
 1.220873e-03  -7.766611e-03  0 
 2.071597e-03  -7.785971e-03  0 
VECTORS displacement_ITER22 FLOAT
 -1.832411e-03  -5.754416e-03  0 
 -2.052922e-03  -7.785546e-03  0 
 -1.067304e-03  -5.731032e-03  0 
 -3.722165e-04  -5.719245e-03  0 
 3.906179e-04  -5.719270e-03  0 
 1.085958e-03  -5.731465e-03  0 
 1.851471e-03  -5.754842e-03  0 
 -1.202042e-03  -7.766199e-03  0 
 -4.150074e-04  -7.756311e-03  0 
 4.336798e-04  -7.756344e-03  0 
 1.220873e-03  -7.766611e-03  0 
 2.071597e-03  -7.785971e-03  0 
VECTORS displacement_ITER23 FLOAT
 -1.832411e-03  -5.754416e-03  0 
 -2.052922e-03  -7.785546e-03  0 
 -1.067304e-03  -5.731032e-03  0 
 -3.722165e-04  -5.719245e-03  0 
 3.906179e-04  -5.719270e-03  0 
 1.085958e-03  -5.731465e-03  0 
 1.851471e-03  -5.754842e-03  0 
 -1.202042e-03  -7.766199e-03  0 
 -4.150074e-04  -7.756311e-03  0 
 4.336798e-04  -7.756344e-03  0 
 1.220873e-03  -7.766611e-03  0 
 2.071597e-03  -7.785971e-03  0 
VECTORS displacement_ITER24 FLOAT
 -1.832411e-03  -5.754416e-03  0 
 -2.052922e-03  -7.785546e-03  0 
 -1.067304e-03  -5.731032e-03  0 
 -3.722165e-04  -5.719245e-03  0 
 3.906179e-04  -5.719270e-03  0 
 1.085958e-03  -5.731465e-03  0 
 1.851471e-03  -5.754842e-03  0 
 -1.202042e-03  -7.766199e-03  0 
 -4.150074e-04  -7.756311e-03  0 
 4.336798e-04  -7.756344e-03  0 
 1.220873e-03  -7.766611e-03  0 
 2.071597e-03  -7.785971e-03  0 
CELL_DATA 5
TENSORS element_stresses FLOAT
 -3.551677e-01  -2.025297e-02  0 
 -2.025297e-02  2.738437e-04  0 
 0  0  0 

 -1.772232e-02  -2.822511e-02  0 
 -2.822511e-02  1.021727e-04  0 
 0  0  0 

 2.501312e-04  -3.487291e-02  0 
 -3.487291e-02  -6.951306e-05  0 
 0  0  0 

 1.770670e-02  -2.814525e-02  0 
 -2.814525e-02  -3.033762e-04  0 
 0  0  0 

 3.549331e-01  -1.975376e-02  0 
 -1.975376e-02  -3.616082e-04  0 
 0  0  0 

TENSORS element_stresses FLOAT
 -3.551677e-01  -2.025297e-02  0 
 -2.025297e-02  2.738437e-04  0 
 0  0  0 

 -1.772232e-02  -2.822511e-02  0 
 -2.822511e-02  1.021727e-04  0 
 0  0  0 

 2.501312e-04  -3.487291e-02  0 
 -3.487291e-02  -6.951306e-05  0 
 0  0  0 

 1.770670e-02  -2.814525e-02  0 
 -2.814525e-02  -3.033762e-04  0 
 0  0  0 

 3.549331e-01  -1.975376e-02  0 
 -1.975376e-02  -3.616082e-04  0 
 0  0  0 

