# vtk DataFile Version 3.1
this is an vtk file created by FEMAC
ASCII
DATASET UNSTRUCTURED_GRID
POINTS 12 FLOAT
3.500000 0.000000 0.000000
4.000000 0.000000 0.000000
3.500000 0.200000 0.000000
3.500000 0.400000 0.000000
3.500000 0.600000 0.000000
3.500000 0.800000 0.000000
3.500000 1.000000 0.000000
4.000000 0.200000 0.000000
4.000000 0.400000 0.000000
4.000000 0.600000 0.000000
4.000000 0.800000 0.000000
4.000000 1.000000 0.000000
CELLS 5 25 
4 0 1 7 2
4 2 7 8 3
4 3 8 9 4
4 4  9 10  5
4 5 10 11  6
CELL_TYPES 5
9 9 9 9 9 
POINT_DATA 12
VECTORS displacement_ITER1 FLOAT
 -2.239342e-03  -1.004092e-02  0 
 -2.382427e-03  -1.241636e-02  0 
 -1.319330e-03  -1.002623e-02  0 
 -4.513791e-04  -1.001538e-02  0 
 4.690899e-04  -1.001538e-02  0 
 1.337041e-03  -1.002624e-02  0 
 2.257053e-03  -1.004093e-02  0 
 -1.409463e-03  -1.240544e-02  0 
 -4.777513e-04  -1.240262e-02  0 
 4.954642e-04  -1.240262e-02  0 
 1.427176e-03  -1.240545e-02  0 
 2.400140e-03  -1.241636e-02  0 
VECTORS displacement_ITER2 FLOAT
 -2.237564e-03  -1.002582e-02  0 
 -2.381033e-03  -1.240115e-02  0 
 -1.317806e-03  -1.001076e-02  0 
 -4.512643e-04  -9.999368e-03  0 
 4.692888e-04  -9.999370e-03  0 
 1.335831e-03  -1.001076e-02  0 
 2.255588e-03  -1.002583e-02  0 
 -1.407729e-03  -1.238986e-02  0 
 -4.779680e-04  -1.238719e-02  0 
 4.959944e-04  -1.238719e-02  0 
 1.425756e-03  -1.238987e-02  0 
 2.399060e-03  -1.240115e-02  0 
VECTORS displacement_ITER3 FLOAT
 -2.235477e-03  -1.001331e-02  0 
 -2.379534e-03  -1.239343e-02  0 
 -1.314296e-03  -9.997903e-03  0 
 -4.500430e-04  -9.990519e-03  0 
 4.686907e-04  -9.990520e-03  0 
 1.332943e-03  -9.997906e-03  0 
 2.254125e-03  -1.001331e-02  0 
 -1.403874e-03  -1.238131e-02  0 
 -4.773528e-04  -1.237425e-02  0 
 4.960019e-04  -1.237425e-02  0 
 1.422523e-03  -1.238131e-02  0 
 2.398183e-03  -1.239344e-02  0 
VECTORS displacement_ITER4 FLOAT
 -2.232339e-03  -1.001631e-02  0 
 -2.376789e-03  -1.238987e-02  0 
 -1.314129e-03  -1.000061e-02  0 
 -4.514700e-04  -9.989609e-03  0 
 4.670661e-04  -9.989169e-03  0 
 1.331771e-03  -9.992521e-03  0 
 2.255926e-03  -1.000788e-02  0 
 -1.403423e-03  -1.237769e-02  0 
 -4.791075e-04  -1.237267e-02  0 
 4.943426e-04  -1.237290e-02  0 
 1.421430e-03  -1.238273e-02  0 
 2.399906e-03  -1.239514e-02  0 
VECTORS displacement_ITER5 FLOAT
 -2.237222e-03  -1.000775e-02  0 
 -2.381534e-03  -1.239593e-02  0 
 -1.312918e-03  -9.992304e-03  0 
 -4.473620e-04  -9.988006e-03  0 
 4.714477e-04  -9.988373e-03  0 
 1.332627e-03  -1.000046e-02  0 
 2.249691e-03  -1.001631e-02  0 
 -1.402289e-03  -1.238338e-02  0 
 -4.749647e-04  -1.237262e-02  0 
 4.989015e-04  -1.237220e-02  0 
 1.422046e-03  -1.237458e-02  0 
 2.394018e-03  -1.238671e-02  0 
VECTORS displacement_ITER6 FLOAT
 -2.233917e-03  -1.001085e-02  0 
 -2.378103e-03  -1.238998e-02  0 
 -1.313163e-03  -9.995160e-03  0 
 -4.499095e-04  -9.987009e-03  0 
 4.689962e-04  -9.987074e-03  0 
 1.332095e-03  -9.996323e-03  0 
 2.252113e-03  -1.001207e-02  0 
 -1.402606e-03  -1.237761e-02  0 
 -4.774576e-04  -1.237158e-02  0 
 4.966038e-04  -1.237160e-02  0 
 1.421316e-03  -1.237787e-02  0 
 2.396700e-03  -1.239026e-02  0 
VECTORS displacement_ITER7 FLOAT
 -2.233307e-03  -1.001089e-02  0 
 -2.377599e-03  -1.238901e-02  0 
 -1.313077e-03  -9.995161e-03  0 
 -4.502415e-04  -9.986522e-03  0 
 4.685043e-04  -9.986516e-03  0 
 1.331876e-03  -9.994789e-03  0 
 2.252475e-03  -1.001049e-02  0 
 -1.402437e-03  -1.237662e-02  0 
 -4.778582e-04  -1.237070e-02  0 
 4.961126e-04  -1.237074e-02  0 
 1.421112e-03  -1.237758e-02  0 
 2.397002e-03  -1.239002e-02  0 
VECTORS displacement_ITER8 FLOAT
 -2.233440e-03  -1.001011e-02  0 
 -2.377783e-03  -1.238907e-02  0 
 -1.312930e-03  -9.994395e-03  0 
 -4.499979e-04  -9.986289e-03  0 
 4.685627e-04  -9.986303e-03  0 
 1.331774e-03  -9.994452e-03  0 
 2.252240e-03  -1.001016e-02  0 
 -1.402246e-03  -1.237664e-02  0 
 -4.776461e-04  -1.237009e-02  0 
 4.962034e-04  -1.237009e-02  0 
 1.421006e-03  -1.237688e-02  0 
 2.396729e-03  -1.238933e-02  0 
VECTORS displacement_ITER9 FLOAT
 -2.233453e-03  -1.000984e-02  0 
 -2.377811e-03  -1.238899e-02  0 
 -1.312884e-03  -9.994141e-03  0 
 -4.499030e-04  -9.986188e-03  0 
 4.685868e-04  -9.986210e-03  0 
 1.331729e-03  -9.994372e-03  0 
 2.252128e-03  -1.001008e-02  0 
 -1.402187e-03  -1.237655e-02  0 
 -4.775603e-04  -1.236988e-02  0 
 4.962597e-04  -1.236988e-02  0 
 1.420950e-03  -1.237663e-02  0 
 2.396605e-03  -1.238908e-02  0 
VECTORS displacement_ITER10 FLOAT
 -2.233347e-03  -1.000986e-02  0 
 -2.377732e-03  -1.238878e-02  0 
 -1.312896e-03  -9.994155e-03  0 
 -4.498955e-04  -9.986034e-03  0 
 4.685851e-04  -9.986045e-03  0 
 1.331698e-03  -9.994242e-03  0 
 2.252078e-03  -1.000995e-02  0 
 -1.402176e-03  -1.237633e-02  0 
 -4.775690e-04  -1.236976e-02  0 
 4.962776e-04  -1.236976e-02  0 
 1.420921e-03  -1.237640e-02  0 
 2.396528e-03  -1.238885e-02  0 
VECTORS displacement_ITER11 FLOAT
 -2.233300e-03  -1.000981e-02  0 
 -2.377710e-03  -1.238862e-02  0 
 -1.312908e-03  -9.994096e-03  0 
 -4.498705e-04  -9.985848e-03  0 
 4.686161e-04  -9.985851e-03  0 
 1.331684e-03  -9.994102e-03  0 
 2.252024e-03  -1.000981e-02  0 
 -1.402168e-03  -1.237618e-02  0 
 -4.775592e-04  -1.236962e-02  0 
 4.963067e-04  -1.236961e-02  0 
 1.420918e-03  -1.237612e-02  0 
 2.396453e-03  -1.238857e-02  0 
VECTORS displacement_ITER12 FLOAT
 -2.233303e-03  -1.000969e-02  0 
 -2.377709e-03  -1.238853e-02  0 
 -1.312899e-03  -9.993977e-03  0 
 -4.498500e-04  -9.985765e-03  0 
 4.686216e-04  -9.985769e-03  0 
 1.331675e-03  -9.994017e-03  0 
 2.252003e-03  -1.000973e-02  0 
 -1.402156e-03  -1.237608e-02  0 
 -4.775413e-04  -1.236949e-02  0 
 4.963116e-04  -1.236949e-02  0 
 1.420905e-03  -1.237603e-02  0 
 2.396439e-03  -1.238847e-02  0 
VECTORS displacement_ITER13 FLOAT
 -2.233304e-03  -1.000965e-02  0 
 -2.377707e-03  -1.238851e-02  0 
 -1.312895e-03  -9.993944e-03  0 
 -4.498447e-04  -9.985749e-03  0 
 4.686217e-04  -9.985753e-03  0 
 1.331673e-03  -9.993999e-03  0 
 2.251997e-03  -1.000971e-02  0 
 -1.402152e-03  -1.237606e-02  0 
 -4.775370e-04  -1.236946e-02  0 
 4.963114e-04  -1.236945e-02  0 
 1.420901e-03  -1.237601e-02  0 
 2.396437e-03  -1.238846e-02  0 
VECTORS displacement_ITER14 FLOAT
 -2.233302e-03  -1.000964e-02  0 
 -2.377701e-03  -1.238850e-02  0 
 -1.312893e-03  -9.993936e-03  0 
 -4.498438e-04  -9.985750e-03  0 
 4.686197e-04  -9.985755e-03  0 
 1.331673e-03  -9.993999e-03  0 
 2.251993e-03  -1.000971e-02  0 
 -1.402150e-03  -1.237605e-02  0 
 -4.775377e-04  -1.236945e-02  0 
 4.963088e-04  -1.236945e-02  0 
 1.420898e-03  -1.237601e-02  0 
 2.396437e-03  -1.238846e-02  0 
VECTORS displacement_ITER15 FLOAT
 -2.233300e-03  -1.000964e-02  0 
 -2.377699e-03  -1.238849e-02  0 
 -1.312893e-03  -9.993933e-03  0 
 -4.498442e-04  -9.985749e-03  0 
 4.686190e-04  -9.985754e-03  0 
 1.331673e-03  -9.993999e-03  0 
 2.251992e-03  -1.000971e-02  0 
 -1.402149e-03  -1.237604e-02  0 
 -4.775383e-04  -1.236945e-02  0 
 4.963078e-04  -1.236945e-02  0 
 1.420897e-03  -1.237601e-02  0 
 2.396437e-03  -1.238846e-02  0 
VECTORS displacement_ITER16 FLOAT
 -2.233299e-03  -1.000964e-02  0 
 -2.377697e-03  -1.238848e-02  0 
 -1.312893e-03  -9.993929e-03  0 
 -4.498453e-04  -9.985745e-03  0 
 4.686181e-04  -9.985750e-03  0 
 1.331674e-03  -9.993997e-03  0 
 2.251991e-03  -1.000971e-02  0 
 -1.402148e-03  -1.237604e-02  0 
 -4.775393e-04  -1.236944e-02  0 
 4.963066e-04  -1.236944e-02  0 
 1.420897e-03  -1.237601e-02  0 
 2.396438e-03  -1.238845e-02  0 
VECTORS displacement_ITER17 FLOAT
 -2.233298e-03  -1.000963e-02  0 
 -2.377696e-03  -1.238848e-02  0 
 -1.312892e-03  -9.993927e-03  0 
 -4.498458e-04  -9.985742e-03  0 
 4.686177e-04  -9.985747e-03  0 
 1.331674e-03  -9.993995e-03  0 
 2.251991e-03  -1.000970e-02  0 
 -1.402148e-03  -1.237603e-02  0 
 -4.775396e-04  -1.236944e-02  0 
 4.963060e-04  -1.236944e-02  0 
 1.420897e-03  -1.237601e-02  0 
 2.396438e-03  -1.238845e-02  0 
VECTORS displacement_ITER18 FLOAT
 -2.233298e-03  -1.000963e-02  0 
 -2.377696e-03  -1.238848e-02  0 
 -1.312892e-03  -9.993926e-03  0 
 -4.498460e-04  -9.985741e-03  0 
 4.686173e-04  -9.985747e-03  0 
 1.331674e-03  -9.993994e-03  0 
 2.251991e-03  -1.000970e-02  0 
 -1.402148e-03  -1.237603e-02  0 
 -4.775398e-04  -1.236944e-02  0 
 4.963056e-04  -1.236944e-02  0 
 1.420897e-03  -1.237601e-02  0 
 2.396438e-03  -1.238845e-02  0 
VECTORS displacement_ITER19 FLOAT
 -2.233298e-03  -1.000963e-02  0 
 -2.377696e-03  -1.238848e-02  0 
 -1.312892e-03  -9.993926e-03  0 
 -4.498462e-04  -9.985741e-03  0 
 4.686170e-04  -9.985746e-03  0 
 1.331674e-03  -9.993993e-03  0 
 2.251991e-03  -1.000970e-02  0 
 -1.402147e-03  -1.237603e-02  0 
 -4.775399e-04  -1.236944e-02  0 
 4.963053e-04  -1.236944e-02  0 
 1.420897e-03  -1.237600e-02  0 
 2.396438e-03  -1.238845e-02  0 
VECTORS displacement_ITER20 FLOAT
 -2.233298e-03  -1.000963e-02  0 
 -2.377696e-03  -1.238848e-02  0 
 -1.312892e-03  -9.993926e-03  0 
 -4.498462e-04  -9.985741e-03  0 
 4.686169e-04  -9.985746e-03  0 
 1.331674e-03  -9.993993e-03  0 
 2.251991e-03  -1.000970e-02  0 
 -1.402147e-03  -1.237603e-02  0 
 -4.775400e-04  -1.236944e-02  0 
 4.963052e-04  -1.236944e-02  0 
 1.420897e-03  -1.237600e-02  0 
 2.396438e-03  -1.238845e-02  0 
VECTORS displacement_ITER21 FLOAT
 -2.233298e-03  -1.000963e-02  0 
 -2.377696e-03  -1.238848e-02  0 
 -1.312892e-03  -9.993926e-03  0 
 -4.498463e-04  -9.985741e-03  0 
 4.686169e-04  -9.985746e-03  0 
 1.331674e-03  -9.993993e-03  0 
 2.251991e-03  -1.000970e-02  0 
 -1.402147e-03  -1.237603e-02  0 
 -4.775400e-04  -1.236944e-02  0 
 4.963052e-04  -1.236944e-02  0 
 1.420897e-03  -1.237600e-02  0 
 2.396438e-03  -1.238845e-02  0 
VECTORS displacement_ITER22 FLOAT
 -2.233298e-03  -1.000963e-02  0 
 -2.377696e-03  -1.238848e-02  0 
 -1.312892e-03  -9.993926e-03  0 
 -4.498462e-04  -9.985740e-03  0 
 4.686169e-04  -9.985746e-03  0 
 1.331674e-03  -9.993993e-03  0 
 2.251991e-03  -1.000970e-02  0 
 -1.402147e-03  -1.237603e-02  0 
 -4.775400e-04  -1.236944e-02  0 
 4.963053e-04  -1.236944e-02  0 
 1.420897e-03  -1.237600e-02  0 
 2.396438e-03  -1.238845e-02  0 
VECTORS displacement_ITER23 FLOAT
 -2.233298e-03  -1.000963e-02  0 
 -2.377696e-03  -1.238848e-02  0 
 -1.312892e-03  -9.993926e-03  0 
 -4.498462e-04  -9.985740e-03  0 
 4.686169e-04  -9.985746e-03  0 
 1.331674e-03  -9.993993e-03  0 
 2.251991e-03  -1.000970e-02  0 
 -1.402147e-03  -1.237603e-02  0 
 -4.775400e-04  -1.236944e-02  0 
 4.963053e-04  -1.236944e-02  0 
 1.420897e-03  -1.237600e-02  0 
 2.396438e-03  -1.238845e-02  0 
VECTORS displacement_ITER24 FLOAT
 -2.233298e-03  -1.000963e-02  0 
 -2.377696e-03  -1.238848e-02  0 
 -1.312892e-03  -9.993926e-03  0 
 -4.498462e-04  -9.985740e-03  0 
 4.686169e-04  -9.985746e-03  0 
 1.331674e-03  -9.993993e-03  0 
 2.251991e-03  -1.000970e-02  0 
 -1.402147e-03  -1.237603e-02  0 
 -4.775400e-04  -1.236944e-02  0 
 4.963053e-04  -1.236944e-02  0 
 1.420897e-03  -1.237600e-02  0 
 2.396438e-03  -1.238845e-02  0 
CELL_DATA 5
TENSORS element_stresses FLOAT
 -2.335586e-01  -1.620490e-02  0 
 -1.620490e-02  3.147811e-04  0 
 0  0  0 

 -1.163366e-02  -2.282095e-02  0 
 -2.282095e-02  2.040591e-04  0 
 0  0  0 

 -8.776524e-06  -2.816949e-02  0 
 -2.816949e-02  -1.128572e-05  0 
 0  0  0 

 1.162653e-02  -2.281398e-02  0 
 -2.281398e-02  -2.152276e-04  0 
 0  0  0 

 2.335745e-01  -1.624067e-02  0 
 -1.624067e-02  -3.145630e-04  0 
 0  0  0 

TENSORS element_stresses FLOAT
 -2.335586e-01  -1.620490e-02  0 
 -1.620490e-02  3.147811e-04  0 
 0  0  0 

 -1.163366e-02  -2.282095e-02  0 
 -2.282095e-02  2.040591e-04  0 
 0  0  0 

 -8.776524e-06  -2.816949e-02  0 
 -2.816949e-02  -1.128572e-05  0 
 0  0  0 

 1.162653e-02  -2.281398e-02  0 
 -2.281398e-02  -2.152276e-04  0 
 0  0  0 

 2.335745e-01  -1.624067e-02  0 
 -1.624067e-02  -3.145630e-04  0 
 0  0  0 

