# vtk DataFile Version 3.1
this is an vtk file created by FEMAC
ASCII
DATASET UNSTRUCTURED_GRID
POINTS 12 FLOAT
1.000000 0.000000 0.000000
1.500000 0.000000 0.000000
1.000000 0.200000 0.000000
1.000000 0.400000 0.000000
1.000000 0.600000 0.000000
1.000000 0.800000 0.000000
1.000000 1.000000 0.000000
1.500000 0.200000 0.000000
1.500000 0.400000 0.000000
1.500000 0.600000 0.000000
1.500000 0.800000 0.000000
1.500000 1.000000 0.000000
CELLS 5 25 
4 0 1 7 2
4 2 7 8 3
4 3 8 9 4
4 4  9 10  5
4 5 10 11  6
CELL_TYPES 5
9 9 9 9 9 
POINT_DATA 12
VECTORS displacement_ITER1 FLOAT
 -8.957567e-04  -1.271714e-03  0 
 -1.260333e-03  -2.462433e-03  0 
 -4.917661e-04  -1.229716e-03  0 
 -1.908650e-04  -1.204022e-03  0 
 2.115672e-04  -1.203782e-03  0 
 5.089812e-04  -1.227738e-03  0 
 9.114034e-04  -1.270196e-03  0 
 -7.212262e-04  -2.426885e-03  0 
 -2.608012e-04  -2.411131e-03  0 
 2.800512e-04  -2.410875e-03  0 
 7.383904e-04  -2.423572e-03  0 
 1.277051e-03  -2.458859e-03  0 
VECTORS displacement_ITER2 FLOAT
 -8.955518e-04  -1.272234e-03  0 
 -1.257780e-03  -2.452474e-03  0 
 -4.938311e-04  -1.231451e-03  0 
 -1.881568e-04  -1.195800e-03  0 
 2.154080e-04  -1.195306e-03  0 
 5.128386e-04  -1.225844e-03  0 
 9.071606e-04  -1.267364e-03  0 
 -7.214565e-04  -2.417921e-03  0 
 -2.604217e-04  -2.407504e-03  0 
 2.825307e-04  -2.407048e-03  0 
 7.396078e-04  -2.411983e-03  0 
 1.274705e-03  -2.446098e-03  0 
VECTORS displacement_ITER3 FLOAT
 -8.971168e-04  -1.263941e-03  0 
 -1.255841e-03  -2.444628e-03  0 
 -4.951984e-04  -1.225832e-03  0 
 -1.832160e-04  -1.189153e-03  0 
 2.166136e-04  -1.188459e-03  0 
 5.150747e-04  -1.218165e-03  0 
 9.036036e-04  -1.257617e-03  0 
 -7.198955e-04  -2.411003e-03  0 
 -2.588288e-04  -2.394996e-03  0 
 2.819980e-04  -2.394100e-03  0 
 7.374966e-04  -2.398874e-03  0 
 1.273958e-03  -2.431733e-03  0 
VECTORS displacement_ITER4 FLOAT
 -8.977960e-04  -1.261138e-03  0 
 -1.255969e-03  -2.445401e-03  0 
 -4.946478e-04  -1.223861e-03  0 
 -1.817052e-04  -1.191274e-03  0 
 2.153730e-04  -1.190578e-03  0 
 5.147097e-04  -1.216201e-03  0 
 9.039787e-04  -1.254970e-03  0 
 -7.186835e-04  -2.411920e-03  0 
 -2.578195e-04  -2.391867e-03  0 
 2.811447e-04  -2.390921e-03  0 
 7.360622e-04  -2.399830e-03  0 
 1.274469e-03  -2.432589e-03  0 
VECTORS displacement_ITER5 FLOAT
 -8.984111e-04  -1.260642e-03  0 
 -1.256128e-03  -2.448441e-03  0 
 -4.938829e-04  -1.223869e-03  0 
 -1.807668e-04  -1.195763e-03  0 
 2.138187e-04  -1.195117e-03  0 
 5.141069e-04  -1.216648e-03  0 
 9.046388e-04  -1.254982e-03  0 
 -7.177162e-04  -2.415049e-03  0 
 -2.572638e-04  -2.391855e-03  0 
 2.802914e-04  -2.390896e-03  0 
 7.347965e-04  -2.403587e-03  0 
 1.275067e-03  -2.436366e-03  0 
VECTORS displacement_ITER6 FLOAT
 -8.986206e-04  -1.261156e-03  0 
 -1.255953e-03  -2.450183e-03  0 
 -4.935919e-04  -1.224619e-03  0 
 -1.804458e-04  -1.198549e-03  0 
 2.128911e-04  -1.197953e-03  0 
 5.139316e-04  -1.217814e-03  0 
 9.048316e-04  -1.255943e-03  0 
 -7.173646e-04  -2.416921e-03  0 
 -2.572688e-04  -2.392783e-03  0 
 2.799028e-04  -2.391810e-03  0 
 7.341590e-04  -2.405783e-03  0 
 1.275251e-03  -2.438520e-03  0 
VECTORS displacement_ITER7 FLOAT
 -8.984279e-04  -1.261699e-03  0 
 -1.255649e-03  -2.449980e-03  0 
 -4.937247e-04  -1.225175e-03  0 
 -1.806097e-04  -1.198818e-03  0 
 2.126802e-04  -1.198246e-03  0 
 5.141199e-04  -1.218554e-03  0 
 9.046891e-04  -1.256673e-03  0 
 -7.174760e-04  -2.416838e-03  0 
 -2.575322e-04  -2.393409e-03  0 
 2.799769e-04  -2.392429e-03  0 
 7.341306e-04  -2.405798e-03  0 
 1.275078e-03  -2.438461e-03  0 
VECTORS displacement_ITER8 FLOAT
 -8.981673e-04  -1.262054e-03  0 
 -1.255410e-03  -2.449368e-03  0 
 -4.939027e-04  -1.225491e-03  0 
 -1.808357e-04  -1.198456e-03  0 
 2.126443e-04  -1.197896e-03  0 
 5.143404e-04  -1.218935e-03  0 
 9.045301e-04  -1.257086e-03  0 
 -7.176269e-04  -2.416316e-03  0 
 -2.577499e-04  -2.393706e-03  0 
 2.801373e-04  -2.392724e-03  0 
 7.342190e-04  -2.405325e-03  0 
 1.274863e-03  -2.437926e-03  0 
VECTORS displacement_ITER9 FLOAT
 -8.980354e-04  -1.262195e-03  0 
 -1.255330e-03  -2.449114e-03  0 
 -4.939670e-04  -1.225603e-03  0 
 -1.809308e-04  -1.198277e-03  0 
 2.126259e-04  -1.197720e-03  0 
 5.144349e-04  -1.219038e-03  0 
 9.044655e-04  -1.257210e-03  0 
 -7.176671e-04  -2.416100e-03  0 
 -2.578134e-04  -2.393766e-03  0 
 2.802145e-04  -2.392784e-03  0 
 7.342457e-04  -2.405102e-03  0 
 1.274762e-03  -2.437678e-03  0 
VECTORS displacement_ITER10 FLOAT
 -8.979706e-04  -1.262284e-03  0 
 -1.255317e-03  -2.449125e-03  0 
 -4.939633e-04  -1.225668e-03  0 
 -1.809488e-04  -1.198298e-03  0 
 2.125868e-04  -1.197741e-03  0 
 5.144648e-04  -1.219066e-03  0 
 9.044404e-04  -1.257250e-03  0 
 -7.176382e-04  -2.416127e-03  0 
 -2.578056e-04  -2.393767e-03  0 
 2.802419e-04  -2.392785e-03  0 
 7.342152e-04  -2.405077e-03  0 
 1.274717e-03  -2.437645e-03  0 
VECTORS displacement_ITER11 FLOAT
 -8.979635e-04  -1.262314e-03  0 
 -1.255327e-03  -2.449224e-03  0 
 -4.939343e-04  -1.225686e-03  0 
 -1.809248e-04  -1.198391e-03  0 
 2.125558e-04  -1.197834e-03  0 
 5.144568e-04  -1.219061e-03  0 
 9.044353e-04  -1.257251e-03  0 
 -7.175972e-04  -2.416229e-03  0 
 -2.577832e-04  -2.393761e-03  0 
 2.802406e-04  -2.392780e-03  0 
 7.341737e-04  -2.405137e-03  0 
 1.274713e-03  -2.437704e-03  0 
VECTORS displacement_ITER12 FLOAT
 -8.979597e-04  -1.262302e-03  0 
 -1.255324e-03  -2.449220e-03  0 
 -4.939246e-04  -1.225669e-03  0 
 -1.809157e-04  -1.198395e-03  0 
 2.125481e-04  -1.197837e-03  0 
 5.144542e-04  -1.219043e-03  0 
 9.044313e-04  -1.257236e-03  0 
 -7.175847e-04  -2.416225e-03  0 
 -2.577802e-04  -2.393747e-03  0 
 2.802455e-04  -2.392768e-03  0 
 7.341612e-04  -2.405137e-03  0 
 1.274712e-03  -2.437706e-03  0 
VECTORS displacement_ITER13 FLOAT
 -8.979586e-04  -1.262298e-03  0 
 -1.255322e-03  -2.449217e-03  0 
 -4.939220e-04  -1.225663e-03  0 
 -1.809130e-04  -1.198393e-03  0 
 2.125468e-04  -1.197836e-03  0 
 5.144534e-04  -1.219038e-03  0 
 9.044290e-04  -1.257232e-03  0 
 -7.175814e-04  -2.416221e-03  0 
 -2.577803e-04  -2.393742e-03  0 
 2.802470e-04  -2.392764e-03  0 
 7.341575e-04  -2.405137e-03  0 
 1.274712e-03  -2.437706e-03  0 
VECTORS displacement_ITER14 FLOAT
 -8.979582e-04  -1.262295e-03  0 
 -1.255320e-03  -2.449215e-03  0 
 -4.939207e-04  -1.225659e-03  0 
 -1.809110e-04  -1.198391e-03  0 
 2.125473e-04  -1.197833e-03  0 
 5.144527e-04  -1.219037e-03  0 
 9.044257e-04  -1.257232e-03  0 
 -7.175792e-04  -2.416218e-03  0 
 -2.577813e-04  -2.393739e-03  0 
 2.802473e-04  -2.392762e-03  0 
 7.341543e-04  -2.405138e-03  0 
 1.274714e-03  -2.437708e-03  0 
VECTORS displacement_ITER15 FLOAT
 -8.979579e-04  -1.262295e-03  0 
 -1.255320e-03  -2.449214e-03  0 
 -4.939205e-04  -1.225658e-03  0 
 -1.809105e-04  -1.198389e-03  0 
 2.125478e-04  -1.197832e-03  0 
 5.144524e-04  -1.219037e-03  0 
 9.044244e-04  -1.257232e-03  0 
 -7.175786e-04  -2.416217e-03  0 
 -2.577818e-04  -2.393737e-03  0 
 2.802473e-04  -2.392761e-03  0 
 7.341533e-04  -2.405138e-03  0 
 1.274714e-03  -2.437708e-03  0 
VECTORS displacement_ITER16 FLOAT
 -8.979579e-04  -1.262294e-03  0 
 -1.255320e-03  -2.449214e-03  0 
 -4.939206e-04  -1.225657e-03  0 
 -1.809101e-04  -1.198388e-03  0 
 2.125487e-04  -1.197830e-03  0 
 5.144523e-04  -1.219036e-03  0 
 9.044233e-04  -1.257232e-03  0 
 -7.175782e-04  -2.416217e-03  0 
 -2.577819e-04  -2.393736e-03  0 
 2.802476e-04  -2.392760e-03  0 
 7.341529e-04  -2.405137e-03  0 
 1.274714e-03  -2.437707e-03  0 
VECTORS displacement_ITER17 FLOAT
 -8.979570e-04  -1.262295e-03  0 
 -1.255319e-03  -2.449213e-03  0 
 -4.939209e-04  -1.225658e-03  0 
 -1.809106e-04  -1.198387e-03  0 
 2.125485e-04  -1.197829e-03  0 
 5.144521e-04  -1.219035e-03  0 
 9.044236e-04  -1.257231e-03  0 
 -7.175782e-04  -2.416215e-03  0 
 -2.577827e-04  -2.393736e-03  0 
 2.802471e-04  -2.392760e-03  0 
 7.341525e-04  -2.405137e-03  0 
 1.274715e-03  -2.437708e-03  0 
VECTORS displacement_ITER18 FLOAT
 -8.979583e-04  -1.262293e-03  0 
 -1.255320e-03  -2.449215e-03  0 
 -4.939207e-04  -1.225656e-03  0 
 -1.809094e-04  -1.198386e-03  0 
 2.125497e-04  -1.197829e-03  0 
 5.144521e-04  -1.219037e-03  0 
 9.044221e-04  -1.257233e-03  0 
 -7.175778e-04  -2.416217e-03  0 
 -2.577818e-04  -2.393736e-03  0 
 2.802481e-04  -2.392760e-03  0 
 7.341527e-04  -2.405135e-03  0 
 1.274714e-03  -2.437705e-03  0 
VECTORS displacement_ITER19 FLOAT
 -8.979569e-04  -1.262295e-03  0 
 -1.255319e-03  -2.449213e-03  0 
 -4.939210e-04  -1.225658e-03  0 
 -1.809103e-04  -1.198386e-03  0 
 2.125487e-04  -1.197829e-03  0 
 5.144518e-04  -1.219035e-03  0 
 9.044234e-04  -1.257231e-03  0 
 -7.175779e-04  -2.416215e-03  0 
 -2.577829e-04  -2.393736e-03  0 
 2.802471e-04  -2.392760e-03  0 
 7.341523e-04  -2.405137e-03  0 
 1.274715e-03  -2.437708e-03  0 
VECTORS displacement_ITER20 FLOAT
 -8.979577e-04  -1.262293e-03  0 
 -1.255320e-03  -2.449215e-03  0 
 -4.939208e-04  -1.225656e-03  0 
 -1.809096e-04  -1.198386e-03  0 
 2.125493e-04  -1.197829e-03  0 
 5.144518e-04  -1.219036e-03  0 
 9.044226e-04  -1.257232e-03  0 
 -7.175777e-04  -2.416216e-03  0 
 -2.577823e-04  -2.393736e-03  0 
 2.802478e-04  -2.392760e-03  0 
 7.341524e-04  -2.405136e-03  0 
 1.274714e-03  -2.437707e-03  0 
VECTORS displacement_ITER21 FLOAT
 -8.979574e-04  -1.262294e-03  0 
 -1.255320e-03  -2.449214e-03  0 
 -4.939208e-04  -1.225657e-03  0 
 -1.809098e-04  -1.198386e-03  0 
 2.125491e-04  -1.197829e-03  0 
 5.144518e-04  -1.219035e-03  0 
 9.044229e-04  -1.257231e-03  0 
 -7.175777e-04  -2.416216e-03  0 
 -2.577825e-04  -2.393736e-03  0 
 2.802475e-04  -2.392760e-03  0 
 7.341523e-04  -2.405136e-03  0 
 1.274714e-03  -2.437707e-03  0 
VECTORS displacement_ITER22 FLOAT
 -8.979575e-04  -1.262294e-03  0 
 -1.255320e-03  -2.449214e-03  0 
 -4.939208e-04  -1.225657e-03  0 
 -1.809098e-04  -1.198386e-03  0 
 2.125491e-04  -1.197829e-03  0 
 5.144518e-04  -1.219035e-03  0 
 9.044228e-04  -1.257231e-03  0 
 -7.175777e-04  -2.416216e-03  0 
 -2.577825e-04  -2.393736e-03  0 
 2.802476e-04  -2.392760e-03  0 
 7.341523e-04  -2.405136e-03  0 
 1.274714e-03  -2.437707e-03  0 
VECTORS displacement_ITER23 FLOAT
 -8.979574e-04  -1.262294e-03  0 
 -1.255320e-03  -2.449214e-03  0 
 -4.939208e-04  -1.225657e-03  0 
 -1.809098e-04  -1.198386e-03  0 
 2.125491e-04  -1.197829e-03  0 
 5.144518e-04  -1.219035e-03  0 
 9.044229e-04  -1.257231e-03  0 
 -7.175777e-04  -2.416216e-03  0 
 -2.577825e-04  -2.393736e-03  0 
 2.802476e-04  -2.392760e-03  0 
 7.341523e-04  -2.405136e-03  0 
 1.274714e-03  -2.437707e-03  0 
VECTORS displacement_ITER24 FLOAT
 -8.979574e-04  -1.262294e-03  0 
 -1.255320e-03  -2.449214e-03  0 
 -4.939208e-04  -1.225657e-03  0 
 -1.809098e-04  -1.198386e-03  0 
 2.125491e-04  -1.197829e-03  0 
 5.144518e-04  -1.219035e-03  0 
 9.044229e-04  -1.257231e-03  0 
 -7.175777e-04  -2.416216e-03  0 
 -2.577825e-04  -2.393736e-03  0 
 2.802476e-04  -2.392760e-03  0 
 7.341523e-04  -2.405136e-03  0 
 1.274714e-03  -2.437707e-03  0 
CELL_DATA 5
TENSORS element_stresses FLOAT
 -5.810906e-01  -1.771770e-02  0 
 -1.771770e-02  -2.383601e-04  0 
 0  0  0 

 -2.892491e-02  -3.491482e-02  0 
 -3.491482e-02  3.760146e-03  0 
 0  0  0 

 -8.817632e-03  -4.735209e-02  0 
 -4.735209e-02  1.188548e-03  0 
 0  0  0 

 2.881446e-02  -3.780874e-02  0 
 -3.780874e-02  2.485344e-04  0 
 0  0  0 

 5.900187e-01  -3.095664e-02  0 
 -3.095664e-02  8.870144e-05  0 
 0  0  0 

TENSORS element_stresses FLOAT
 -5.810906e-01  -1.771770e-02  0 
 -1.771770e-02  -2.383601e-04  0 
 0  0  0 

 -2.892491e-02  -3.491482e-02  0 
 -3.491482e-02  3.760146e-03  0 
 0  0  0 

 -8.817632e-03  -4.735209e-02  0 
 -4.735209e-02  1.188548e-03  0 
 0  0  0 

 2.881446e-02  -3.780874e-02  0 
 -3.780874e-02  2.485344e-04  0 
 0  0  0 

 5.900187e-01  -3.095664e-02  0 
 -3.095664e-02  8.870144e-05  0 
 0  0  0 

