# vtk DataFile Version 3.1
this is an vtk file created by FEMAC
ASCII
DATASET UNSTRUCTURED_GRID
POINTS 12 FLOAT
5.500000 0.000000 0.000000
6.000000 0.000000 0.000000
5.500000 0.200000 0.000000
5.500000 0.400000 0.000000
5.500000 0.600000 0.000000
5.500000 0.800000 0.000000
5.500000 1.000000 0.000000
6.000000 0.200000 0.000000
6.000000 0.400000 0.000000
6.000000 0.600000 0.000000
6.000000 0.800000 0.000000
6.000000 1.000000 0.000000
CELLS 5 25 
4 0 1 7 2
4 2 7 8 3
4 3 8 9 4
4 4  9 10  5
4 5 10 11  6
CELL_TYPES 5
9 9 9 9 9 
POINT_DATA 12
VECTORS displacement_ITER1 FLOAT
 -2.641509e-03  -2.018966e-02  0 
 -2.682347e-03  -2.288780e-02  0 
 -1.571216e-03  -2.018438e-02  0 
 -5.261641e-04  -2.018007e-02  0 
 5.438749e-04  -2.018007e-02  0 
 1.588926e-03  -2.018438e-02  0 
 2.659220e-03  -2.018966e-02  0 
 -1.598402e-03  -2.288423e-02  0 
 -5.327808e-04  -2.288324e-02  0 
 5.504938e-04  -2.288324e-02  0 
 1.616115e-03  -2.288423e-02  0 
 2.700060e-03  -2.288781e-02  0 
VECTORS displacement_ITER2 FLOAT
 -2.639806e-03  -2.016658e-02  0 
 -2.680551e-03  -2.286459e-02  0 
 -1.569459e-03  -2.016137e-02  0 
 -5.261285e-04  -2.015693e-02  0 
 5.441530e-04  -2.015693e-02  0 
 1.587484e-03  -2.016137e-02  0 
 2.657831e-03  -2.016658e-02  0 
 -1.596549e-03  -2.286116e-02  0 
 -5.328039e-04  -2.286040e-02  0 
 5.508303e-04  -2.286040e-02  0 
 1.614575e-03  -2.286117e-02  0 
 2.698577e-03  -2.286460e-02  0 
VECTORS displacement_ITER3 FLOAT
 -2.637285e-03  -2.014840e-02  0 
 -2.677840e-03  -2.284816e-02  0 
 -1.566155e-03  -2.014342e-02  0 
 -5.256063e-04  -2.014086e-02  0 
 5.442548e-04  -2.014086e-02  0 
 1.584803e-03  -2.014342e-02  0 
 2.655931e-03  -2.014841e-02  0 
 -1.593107e-03  -2.284487e-02  0 
 -5.324492e-04  -2.284261e-02  0 
 5.510991e-04  -2.284261e-02  0 
 1.611756e-03  -2.284487e-02  0 
 2.696488e-03  -2.284816e-02  0 
VECTORS displacement_ITER4 FLOAT
 -2.636522e-03  -2.014428e-02  0 
 -2.677037e-03  -2.284402e-02  0 
 -1.565364e-03  -2.013933e-02  0 
 -5.255256e-04  -2.013689e-02  0 
 5.443063e-04  -2.013689e-02  0 
 1.584145e-03  -2.013933e-02  0 
 2.655304e-03  -2.014428e-02  0 
 -1.592288e-03  -2.284077e-02  0 
 -5.324103e-04  -2.283845e-02  0 
 5.511917e-04  -2.283845e-02  0 
 1.611070e-03  -2.284077e-02  0 
 2.695819e-03  -2.284402e-02  0 
VECTORS displacement_ITER5 FLOAT
 -2.635957e-03  -2.014052e-02  0 
 -2.676465e-03  -2.283972e-02  0 
 -1.564981e-03  -2.013556e-02  0 
 -5.255587e-04  -2.013276e-02  0 
 5.443501e-04  -2.013276e-02  0 
 1.583773e-03  -2.013556e-02  0 
 2.654750e-03  -2.014052e-02  0 
 -1.591892e-03  -2.283650e-02  0 
 -5.324550e-04  -2.283451e-02  0 
 5.512462e-04  -2.283451e-02  0 
 1.610684e-03  -2.283650e-02  0 
 2.695257e-03  -2.283972e-02  0 
VECTORS displacement_ITER6 FLOAT
 -2.635181e-03  -2.013836e-02  0 
 -2.675733e-03  -2.283610e-02  0 
 -1.564813e-03  -2.013337e-02  0 
 -5.258325e-04  -2.012977e-02  0 
 5.440605e-04  -2.012969e-02  0 
 1.583389e-03  -2.013199e-02  0 
 2.654768e-03  -2.013693e-02  0 
 -1.591684e-03  -2.283291e-02  0 
 -5.327602e-04  -2.283143e-02  0 
 5.509257e-04  -2.283147e-02  0 
 1.610320e-03  -2.283376e-02  0 
 2.695240e-03  -2.283699e-02  0 
VECTORS displacement_ITER7 FLOAT
 -2.636229e-03  -2.013524e-02  0 
 -2.676713e-03  -2.283638e-02  0 
 -1.564421e-03  -2.013033e-02  0 
 -5.249239e-04  -2.012858e-02  0 
 5.448856e-04  -2.012869e-02  0 
 1.583467e-03  -2.013263e-02  0 
 2.653401e-03  -2.013765e-02  0 
 -1.591340e-03  -2.283312e-02  0 
 -5.318050e-04  -2.283017e-02  0 
 5.517948e-04  -2.283008e-02  0 
 1.610341e-03  -2.283114e-02  0 
 2.693952e-03  -2.283432e-02  0 
VECTORS displacement_ITER8 FLOAT
 -2.635023e-03  -2.013616e-02  0 
 -2.675509e-03  -2.283413e-02  0 
 -1.564507e-03  -2.013118e-02  0 
 -5.257854e-04  -2.012808e-02  0 
 5.439618e-04  -2.012806e-02  0 
 1.583192e-03  -2.013051e-02  0 
 2.654390e-03  -2.013545e-02  0 
 -1.591427e-03  -2.283093e-02  0 
 -5.326611e-04  -2.282936e-02  0 
 5.508785e-04  -2.282941e-02  0 
 1.610059e-03  -2.283200e-02  0 
 2.694948e-03  -2.283525e-02  0 
VECTORS displacement_ITER9 FLOAT
 -2.635147e-03  -2.013558e-02  0 
 -2.675677e-03  -2.283408e-02  0 
 -1.564452e-03  -2.013061e-02  0 
 -5.255907e-04  -2.012766e-02  0 
 5.441445e-04  -2.012765e-02  0 
 1.583176e-03  -2.013030e-02  0 
 2.654116e-03  -2.013526e-02  0 
 -1.591344e-03  -2.283086e-02  0 
 -5.324921e-04  -2.282893e-02  0 
 5.510425e-04  -2.282894e-02  0 
 1.610074e-03  -2.283110e-02  0 
 2.694631e-03  -2.283434e-02  0 
VECTORS displacement_ITER10 FLOAT
 -2.635260e-03  -2.013486e-02  0 
 -2.675794e-03  -2.283375e-02  0 
 -1.564408e-03  -2.012989e-02  0 
 -5.254201e-04  -2.012712e-02  0 
 5.443126e-04  -2.012712e-02  0 
 1.583173e-03  -2.013008e-02  0 
 2.653846e-03  -2.013505e-02  0 
 -1.591300e-03  -2.283051e-02  0 
 -5.323278e-04  -2.282841e-02  0 
 5.512173e-04  -2.282840e-02  0 
 1.610076e-03  -2.283024e-02  0 
 2.694357e-03  -2.283346e-02  0 
VECTORS displacement_ITER11 FLOAT
 -2.635127e-03  -2.013466e-02  0 
 -2.675654e-03  -2.283324e-02  0 
 -1.564398e-03  -2.012970e-02  0 
 -5.254867e-04  -2.012681e-02  0 
 5.442213e-04  -2.012681e-02  0 
 1.583135e-03  -2.012964e-02  0 
 2.653905e-03  -2.013461e-02  0 
 -1.591295e-03  -2.283000e-02  0 
 -5.323985e-04  -2.282805e-02  0 
 5.511331e-04  -2.282805e-02  0 
 1.610038e-03  -2.283003e-02  0 
 2.694421e-03  -2.283326e-02  0 
VECTORS displacement_ITER12 FLOAT
 -2.635136e-03  -2.013454e-02  0 
 -2.675659e-03  -2.283318e-02  0 
 -1.564379e-03  -2.012957e-02  0 
 -5.254639e-04  -2.012674e-02  0 
 5.442233e-04  -2.012674e-02  0 
 1.583125e-03  -2.012957e-02  0 
 2.653880e-03  -2.013454e-02  0 
 -1.591279e-03  -2.282994e-02  0 
 -5.323784e-04  -2.282794e-02  0 
 5.511359e-04  -2.282794e-02  0 
 1.610027e-03  -2.282992e-02  0 
 2.694399e-03  -2.283316e-02  0 
VECTORS displacement_ITER13 FLOAT
 -2.635136e-03  -2.013450e-02  0 
 -2.675658e-03  -2.283315e-02  0 
 -1.564374e-03  -2.012953e-02  0 
 -5.254589e-04  -2.012671e-02  0 
 5.442253e-04  -2.012671e-02  0 
 1.583124e-03  -2.012955e-02  0 
 2.653871e-03  -2.013451e-02  0 
 -1.591275e-03  -2.282991e-02  0 
 -5.323731e-04  -2.282790e-02  0 
 5.511386e-04  -2.282790e-02  0 
 1.610026e-03  -2.282988e-02  0 
 2.694391e-03  -2.283312e-02  0 
VECTORS displacement_ITER14 FLOAT
 -2.635124e-03  -2.013447e-02  0 
 -2.675646e-03  -2.283309e-02  0 
 -1.564375e-03  -2.012951e-02  0 
 -5.254675e-04  -2.012667e-02  0 
 5.442199e-04  -2.012667e-02  0 
 1.583125e-03  -2.012951e-02  0 
 2.653871e-03  -2.013448e-02  0 
 -1.591276e-03  -2.282985e-02  0 
 -5.323808e-04  -2.282787e-02  0 
 5.511331e-04  -2.282787e-02  0 
 1.610026e-03  -2.282985e-02  0 
 2.694392e-03  -2.283309e-02  0 
VECTORS displacement_ITER15 FLOAT
 -2.635120e-03  -2.013446e-02  0 
 -2.675641e-03  -2.283307e-02  0 
 -1.564374e-03  -2.012950e-02  0 
 -5.254697e-04  -2.012665e-02  0 
 5.442180e-04  -2.012665e-02  0 
 1.583125e-03  -2.012950e-02  0 
 2.653871e-03  -2.013447e-02  0 
 -1.591276e-03  -2.282983e-02  0 
 -5.323828e-04  -2.282785e-02  0 
 5.511309e-04  -2.282785e-02  0 
 1.610026e-03  -2.282984e-02  0 
 2.694394e-03  -2.283308e-02  0 
VECTORS displacement_ITER16 FLOAT
 -2.635120e-03  -2.013446e-02  0 
 -2.675642e-03  -2.283307e-02  0 
 -1.564373e-03  -2.012949e-02  0 
 -5.254689e-04  -2.012665e-02  0 
 5.442172e-04  -2.012665e-02  0 
 1.583124e-03  -2.012949e-02  0 
 2.653871e-03  -2.013446e-02  0 
 -1.591275e-03  -2.282983e-02  0 
 -5.323817e-04  -2.282785e-02  0 
 5.511302e-04  -2.282785e-02  0 
 1.610025e-03  -2.282983e-02  0 
 2.694393e-03  -2.283307e-02  0 
VECTORS displacement_ITER17 FLOAT
 -2.635121e-03  -2.013445e-02  0 
 -2.675642e-03  -2.283307e-02  0 
 -1.564373e-03  -2.012949e-02  0 
 -5.254681e-04  -2.012665e-02  0 
 5.442170e-04  -2.012665e-02  0 
 1.583123e-03  -2.012949e-02  0 
 2.653871e-03  -2.013446e-02  0 
 -1.591274e-03  -2.282983e-02  0 
 -5.323808e-04  -2.282784e-02  0 
 5.511302e-04  -2.282784e-02  0 
 1.610024e-03  -2.282983e-02  0 
 2.694393e-03  -2.283307e-02  0 
VECTORS displacement_ITER18 FLOAT
 -2.635121e-03  -2.013445e-02  0 
 -2.675642e-03  -2.283307e-02  0 
 -1.564373e-03  -2.012949e-02  0 
 -5.254680e-04  -2.012665e-02  0 
 5.442171e-04  -2.012665e-02  0 
 1.583123e-03  -2.012949e-02  0 
 2.653871e-03  -2.013446e-02  0 
 -1.591274e-03  -2.282983e-02  0 
 -5.323806e-04  -2.282784e-02  0 
 5.511303e-04  -2.282784e-02  0 
 1.610024e-03  -2.282983e-02  0 
 2.694392e-03  -2.283307e-02  0 
VECTORS displacement_ITER19 FLOAT
 -2.635120e-03  -2.013445e-02  0 
 -2.675642e-03  -2.283307e-02  0 
 -1.564373e-03  -2.012949e-02  0 
 -5.254680e-04  -2.012665e-02  0 
 5.442173e-04  -2.012665e-02  0 
 1.583123e-03  -2.012949e-02  0 
 2.653870e-03  -2.013445e-02  0 
 -1.591274e-03  -2.282983e-02  0 
 -5.323806e-04  -2.282784e-02  0 
 5.511304e-04  -2.282784e-02  0 
 1.610024e-03  -2.282983e-02  0 
 2.694392e-03  -2.283307e-02  0 
VECTORS displacement_ITER20 FLOAT
 -2.635120e-03  -2.013445e-02  0 
 -2.675642e-03  -2.283307e-02  0 
 -1.564373e-03  -2.012949e-02  0 
 -5.254680e-04  -2.012665e-02  0 
 5.442173e-04  -2.012665e-02  0 
 1.583123e-03  -2.012949e-02  0 
 2.653870e-03  -2.013445e-02  0 
 -1.591274e-03  -2.282982e-02  0 
 -5.323806e-04  -2.282784e-02  0 
 5.511305e-04  -2.282784e-02  0 
 1.610024e-03  -2.282983e-02  0 
 2.694392e-03  -2.283307e-02  0 
VECTORS displacement_ITER21 FLOAT
 -2.635120e-03  -2.013445e-02  0 
 -2.675642e-03  -2.283306e-02  0 
 -1.564373e-03  -2.012949e-02  0 
 -5.254679e-04  -2.012665e-02  0 
 5.442173e-04  -2.012665e-02  0 
 1.583123e-03  -2.012949e-02  0 
 2.653870e-03  -2.013445e-02  0 
 -1.591274e-03  -2.282982e-02  0 
 -5.323805e-04  -2.282784e-02  0 
 5.511305e-04  -2.282784e-02  0 
 1.610024e-03  -2.282982e-02  0 
 2.694392e-03  -2.283307e-02  0 
VECTORS displacement_ITER22 FLOAT
 -2.635120e-03  -2.013445e-02  0 
 -2.675642e-03  -2.283306e-02  0 
 -1.564373e-03  -2.012949e-02  0 
 -5.254678e-04  -2.012665e-02  0 
 5.442173e-04  -2.012665e-02  0 
 1.583123e-03  -2.012949e-02  0 
 2.653870e-03  -2.013445e-02  0 
 -1.591274e-03  -2.282982e-02  0 
 -5.323805e-04  -2.282784e-02  0 
 5.511305e-04  -2.282784e-02  0 
 1.610024e-03  -2.282982e-02  0 
 2.694392e-03  -2.283307e-02  0 
VECTORS displacement_ITER23 FLOAT
 -2.635120e-03  -2.013445e-02  0 
 -2.675642e-03  -2.283306e-02  0 
 -1.564373e-03  -2.012949e-02  0 
 -5.254678e-04  -2.012665e-02  0 
 5.442173e-04  -2.012665e-02  0 
 1.583123e-03  -2.012949e-02  0 
 2.653870e-03  -2.013445e-02  0 
 -1.591274e-03  -2.282982e-02  0 
 -5.323805e-04  -2.282784e-02  0 
 5.511305e-04  -2.282784e-02  0 
 1.610024e-03  -2.282982e-02  0 
 2.694392e-03  -2.283307e-02  0 
VECTORS displacement_ITER24 FLOAT
 -2.635120e-03  -2.013445e-02  0 
 -2.675642e-03  -2.283306e-02  0 
 -1.564373e-03  -2.012949e-02  0 
 -5.254678e-04  -2.012665e-02  0 
 5.442173e-04  -2.012665e-02  0 
 1.583123e-03  -2.012949e-02  0 
 2.653870e-03  -2.013445e-02  0 
 -1.591274e-03  -2.282982e-02  0 
 -5.323805e-04  -2.282784e-02  0 
 5.511305e-04  -2.282784e-02  0 
 1.610024e-03  -2.282982e-02  0 
 2.694392e-03  -2.283307e-02  0 
CELL_DATA 5
TENSORS element_stresses FLOAT
 -6.732838e-02  -8.586487e-03  0 
 -8.586487e-03  3.154496e-04  0 
 0  0  0 

 -3.318099e-03  -1.207958e-02  0 
 -1.207958e-02  2.108995e-04  0 
 0  0  0 

 4.268700e-07  -1.491870e-02  0 
 -1.491870e-02  -2.370697e-07  0 
 0  0  0 

 3.318014e-03  -1.207935e-02  0 
 -1.207935e-02  -2.113570e-04  0 
 0  0  0 

 6.732804e-02  -8.585882e-03  0 
 -8.585882e-03  -3.156523e-04  0 
 0  0  0 

TENSORS element_stresses FLOAT
 -6.732838e-02  -8.586487e-03  0 
 -8.586487e-03  3.154496e-04  0 
 0  0  0 

 -3.318099e-03  -1.207958e-02  0 
 -1.207958e-02  2.108995e-04  0 
 0  0  0 

 4.268700e-07  -1.491870e-02  0 
 -1.491870e-02  -2.370697e-07  0 
 0  0  0 

 3.318014e-03  -1.207935e-02  0 
 -1.207935e-02  -2.113570e-04  0 
 0  0  0 

 6.732804e-02  -8.585882e-03  0 
 -8.585882e-03  -3.156523e-04  0 
 0  0  0 

