# vtk DataFile Version 3.1
this is an vtk file created by FEMAC
ASCII
DATASET UNSTRUCTURED_GRID
POINTS 12 FLOAT
7.500000 0.000000 0.000000
8.000000 0.000000 0.000000
7.500000 0.200000 0.000000
7.500000 0.400000 0.000000
7.500000 0.600000 0.000000
7.500000 0.800000 0.000000
7.500000 1.000000 0.000000
8.000000 0.200000 0.000000
8.000000 0.400000 0.000000
8.000000 0.600000 0.000000
8.000000 0.800000 0.000000
8.000000 1.000000 0.000000
CELLS 5 25 
4 0 1 7 2
4 2 7 8 3
4 3 8 9 4
4 4  9 10  5
4 5 10 11  6
CELL_TYPES 5
9 9 9 9 9 
POINT_DATA 12
VECTORS displacement_ITER1 FLOAT
 -2.722986e-03  -3.111072e-02  0 
 -2.724646e-03  -3.384189e-02  0 
 -1.630383e-03  -3.110747e-02  0 
 -5.377252e-04  -3.110595e-02  0 
 5.554398e-04  -3.110596e-02  0 
 1.648095e-03  -3.110748e-02  0 
 2.740692e-03  -3.111073e-02  0 
 -1.631098e-03  -3.384316e-02  0 
 -5.387359e-04  -3.384297e-02  0 
 5.564517e-04  -3.384297e-02  0 
 1.648811e-03  -3.384316e-02  0 
 2.742352e-03  -3.384188e-02  0 
VECTORS displacement_ITER2 FLOAT
 -2.721835e-03  -3.107899e-02  0 
 -2.723163e-03  -3.381203e-02  0 
 -1.628378e-03  -3.107681e-02  0 
 -5.374378e-04  -3.107639e-02  0 
 5.554620e-04  -3.107640e-02  0 
 1.646403e-03  -3.107681e-02  0 
 2.739860e-03  -3.107899e-02  0 
 -1.629431e-03  -3.381277e-02  0 
 -5.381058e-04  -3.381178e-02  0 
 5.561310e-04  -3.381178e-02  0 
 1.647457e-03  -3.381277e-02  0 
 2.741188e-03  -3.381203e-02  0 
VECTORS displacement_ITER3 FLOAT
 -2.719652e-03  -3.105013e-02  0 
 -2.720542e-03  -3.378545e-02  0 
 -1.625222e-03  -3.104960e-02  0 
 -5.370683e-04  -3.105056e-02  0 
 5.557138e-04  -3.105056e-02  0 
 1.643870e-03  -3.104959e-02  0 
 2.738303e-03  -3.105012e-02  0 
 -1.626720e-03  -3.378539e-02  0 
 -5.370505e-04  -3.378362e-02  0 
 5.556968e-04  -3.378362e-02  0 
 1.645368e-03  -3.378540e-02  0 
 2.739192e-03  -3.378545e-02  0 
VECTORS displacement_ITER4 FLOAT
 -2.718885e-03  -3.104277e-02  0 
 -2.719725e-03  -3.377788e-02  0 
 -1.624559e-03  -3.104255e-02  0 
 -5.371046e-04  -3.104325e-02  0 
 5.558843e-04  -3.104325e-02  0 
 1.643341e-03  -3.104255e-02  0 
 2.737668e-03  -3.104277e-02  0 
 -1.626134e-03  -3.377768e-02  0 
 -5.368688e-04  -3.377613e-02  0 
 5.556490e-04  -3.377613e-02  0 
 1.644915e-03  -3.377768e-02  0 
 2.738509e-03  -3.377789e-02  0 
VECTORS displacement_ITER5 FLOAT
 -2.718263e-03  -3.103641e-02  0 
 -2.719126e-03  -3.377068e-02  0 
 -1.624301e-03  -3.103626e-02  0 
 -5.372357e-04  -3.103627e-02  0 
 5.560264e-04  -3.103627e-02  0 
 1.643093e-03  -3.103625e-02  0 
 2.737056e-03  -3.103641e-02  0 
 -1.625897e-03  -3.377045e-02  0 
 -5.368574e-04  -3.376935e-02  0 
 5.556480e-04  -3.376935e-02  0 
 1.644688e-03  -3.377045e-02  0 
 2.737919e-03  -3.377068e-02  0 
VECTORS displacement_ITER6 FLOAT
 -2.717832e-03  -3.103190e-02  0 
 -2.718717e-03  -3.376554e-02  0 
 -1.624133e-03  -3.103175e-02  0 
 -5.373054e-04  -3.103135e-02  0 
 5.560744e-04  -3.103135e-02  0 
 1.642903e-03  -3.103175e-02  0 
 2.736603e-03  -3.103190e-02  0 
 -1.625744e-03  -3.376530e-02  0 
 -5.368546e-04  -3.376448e-02  0 
 5.556230e-04  -3.376448e-02  0 
 1.644513e-03  -3.376530e-02  0 
 2.737487e-03  -3.376554e-02  0 
VECTORS displacement_ITER7 FLOAT
 -2.717645e-03  -3.103018e-02  0 
 -2.718535e-03  -3.376359e-02  0 
 -1.624024e-03  -3.103000e-02  0 
 -5.372905e-04  -3.102956e-02  0 
 5.560444e-04  -3.102956e-02  0 
 1.642778e-03  -3.102999e-02  0 
 2.736400e-03  -3.103017e-02  0 
 -1.625647e-03  -3.376336e-02  0 
 -5.368314e-04  -3.376256e-02  0 
 5.555846e-04  -3.376256e-02  0 
 1.644401e-03  -3.376336e-02  0 
 2.737289e-03  -3.376359e-02  0 
VECTORS displacement_ITER8 FLOAT
 -2.717468e-03  -3.102932e-02  0 
 -2.718365e-03  -3.376245e-02  0 
 -1.623952e-03  -3.102911e-02  0 
 -5.372940e-04  -3.102863e-02  0 
 5.559624e-04  -3.102862e-02  0 
 1.642671e-03  -3.102891e-02  0 
 2.736336e-03  -3.102911e-02  0 
 -1.625582e-03  -3.376224e-02  0 
 -5.368477e-04  -3.376145e-02  0 
 5.555063e-04  -3.376146e-02  0 
 1.644309e-03  -3.376236e-02  0 
 2.737221e-03  -3.376258e-02  0 
VECTORS displacement_ITER9 FLOAT
 -2.717601e-03  -3.102833e-02  0 
 -2.718479e-03  -3.376194e-02  0 
 -1.623862e-03  -3.102810e-02  0 
 -5.371284e-04  -3.102796e-02  0 
 5.560802e-04  -3.102799e-02  0 
 1.642668e-03  -3.102856e-02  0 
 2.736060e-03  -3.102880e-02  0 
 -1.625510e-03  -3.376173e-02  0 
 -5.366796e-04  -3.376071e-02  0 
 5.556414e-04  -3.376070e-02  0 
 1.644298e-03  -3.376142e-02  0 
 2.736970e-03  -3.376163e-02  0 
VECTORS displacement_ITER10 FLOAT
 -2.717239e-03  -3.102801e-02  0 
 -2.718156e-03  -3.376074e-02  0 
 -1.623878e-03  -3.102774e-02  0 
 -5.373226e-04  -3.102718e-02  0 
 5.558479e-04  -3.102716e-02  0 
 1.642577e-03  -3.102731e-02  0 
 2.736275e-03  -3.102757e-02  0 
 -1.625515e-03  -3.376055e-02  0 
 -5.368842e-04  -3.375982e-02  0 
 5.554117e-04  -3.375984e-02  0 
 1.644226e-03  -3.376086e-02  0 
 2.737157e-03  -3.376106e-02  0 
VECTORS displacement_ITER11 FLOAT
 -2.717369e-03  -3.102729e-02  0 
 -2.718268e-03  -3.376040e-02  0 
 -1.623830e-03  -3.102701e-02  0 
 -5.371729e-04  -3.102669e-02  0 
 5.559761e-04  -3.102669e-02  0 
 1.642586e-03  -3.102709e-02  0 
 2.736055e-03  -3.102737e-02  0 
 -1.625474e-03  -3.376022e-02  0 
 -5.367417e-04  -3.375931e-02  0 
 5.555395e-04  -3.375930e-02  0 
 1.644228e-03  -3.376015e-02  0 
 2.736963e-03  -3.376033e-02  0 
VECTORS displacement_ITER12 FLOAT
 -2.717331e-03  -3.102719e-02  0 
 -2.718235e-03  -3.376023e-02  0 
 -1.623825e-03  -3.102691e-02  0 
 -5.371876e-04  -3.102657e-02  0 
 5.559514e-04  -3.102657e-02  0 
 1.642575e-03  -3.102694e-02  0 
 2.736063e-03  -3.102723e-02  0 
 -1.625467e-03  -3.376005e-02  0 
 -5.367550e-04  -3.375917e-02  0 
 5.555191e-04  -3.375917e-02  0 
 1.644220e-03  -3.376004e-02  0 
 2.736967e-03  -3.376022e-02  0 
VECTORS displacement_ITER13 FLOAT
 -2.717318e-03  -3.102716e-02  0 
 -2.718223e-03  -3.376018e-02  0 
 -1.623823e-03  -3.102688e-02  0 
 -5.371915e-04  -3.102652e-02  0 
 5.559445e-04  -3.102652e-02  0 
 1.642572e-03  -3.102688e-02  0 
 2.736065e-03  -3.102717e-02  0 
 -1.625466e-03  -3.375999e-02  0 
 -5.367598e-04  -3.375911e-02  0 
 5.555121e-04  -3.375911e-02  0 
 1.644216e-03  -3.375999e-02  0 
 2.736970e-03  -3.376017e-02  0 
VECTORS displacement_ITER14 FLOAT
 -2.717312e-03  -3.102711e-02  0 
 -2.718216e-03  -3.376011e-02  0 
 -1.623820e-03  -3.102682e-02  0 
 -5.371928e-04  -3.102647e-02  0 
 5.559410e-04  -3.102647e-02  0 
 1.642571e-03  -3.102682e-02  0 
 2.736063e-03  -3.102711e-02  0 
 -1.625464e-03  -3.375993e-02  0 
 -5.367613e-04  -3.375905e-02  0 
 5.555093e-04  -3.375905e-02  0 
 1.644213e-03  -3.375993e-02  0 
 2.736969e-03  -3.376011e-02  0 
VECTORS displacement_ITER15 FLOAT
 -2.717310e-03  -3.102710e-02  0 
 -2.718215e-03  -3.376009e-02  0 
 -1.623820e-03  -3.102680e-02  0 
 -5.371930e-04  -3.102645e-02  0 
 5.559399e-04  -3.102645e-02  0 
 1.642570e-03  -3.102680e-02  0 
 2.736063e-03  -3.102709e-02  0 
 -1.625463e-03  -3.375991e-02  0 
 -5.367613e-04  -3.375903e-02  0 
 5.555087e-04  -3.375903e-02  0 
 1.644213e-03  -3.375991e-02  0 
 2.736967e-03  -3.376010e-02  0 
VECTORS displacement_ITER16 FLOAT
 -2.717310e-03  -3.102709e-02  0 
 -2.718215e-03  -3.376009e-02  0 
 -1.623819e-03  -3.102680e-02  0 
 -5.371922e-04  -3.102645e-02  0 
 5.559402e-04  -3.102645e-02  0 
 1.642569e-03  -3.102680e-02  0 
 2.736062e-03  -3.102709e-02  0 
 -1.625463e-03  -3.375990e-02  0 
 -5.367605e-04  -3.375903e-02  0 
 5.555091e-04  -3.375903e-02  0 
 1.644213e-03  -3.375991e-02  0 
 2.736966e-03  -3.376009e-02  0 
VECTORS displacement_ITER17 FLOAT
 -2.717310e-03  -3.102708e-02  0 
 -2.718215e-03  -3.376008e-02  0 
 -1.623819e-03  -3.102679e-02  0 
 -5.371915e-04  -3.102644e-02  0 
 5.559408e-04  -3.102644e-02  0 
 1.642569e-03  -3.102679e-02  0 
 2.736061e-03  -3.102708e-02  0 
 -1.625462e-03  -3.375990e-02  0 
 -5.367599e-04  -3.375902e-02  0 
 5.555095e-04  -3.375902e-02  0 
 1.644212e-03  -3.375990e-02  0 
 2.736965e-03  -3.376009e-02  0 
VECTORS displacement_ITER18 FLOAT
 -2.717310e-03  -3.102708e-02  0 
 -2.718215e-03  -3.376008e-02  0 
 -1.623819e-03  -3.102679e-02  0 
 -5.371912e-04  -3.102644e-02  0 
 5.559411e-04  -3.102644e-02  0 
 1.642569e-03  -3.102679e-02  0 
 2.736060e-03  -3.102708e-02  0 
 -1.625462e-03  -3.375990e-02  0 
 -5.367597e-04  -3.375902e-02  0 
 5.555096e-04  -3.375902e-02  0 
 1.644212e-03  -3.375990e-02  0 
 2.736965e-03  -3.376008e-02  0 
VECTORS displacement_ITER19 FLOAT
 -2.717310e-03  -3.102708e-02  0 
 -2.718215e-03  -3.376008e-02  0 
 -1.623819e-03  -3.102679e-02  0 
 -5.371911e-04  -3.102644e-02  0 
 5.559412e-04  -3.102644e-02  0 
 1.642569e-03  -3.102679e-02  0 
 2.736060e-03  -3.102708e-02  0 
 -1.625462e-03  -3.375990e-02  0 
 -5.367596e-04  -3.375902e-02  0 
 5.555097e-04  -3.375902e-02  0 
 1.644212e-03  -3.375990e-02  0 
 2.736965e-03  -3.376008e-02  0 
VECTORS displacement_ITER20 FLOAT
 -2.717310e-03  -3.102708e-02  0 
 -2.718215e-03  -3.376008e-02  0 
 -1.623819e-03  -3.102679e-02  0 
 -5.371911e-04  -3.102644e-02  0 
 5.559412e-04  -3.102644e-02  0 
 1.642569e-03  -3.102679e-02  0 
 2.736060e-03  -3.102708e-02  0 
 -1.625462e-03  -3.375990e-02  0 
 -5.367596e-04  -3.375902e-02  0 
 5.555096e-04  -3.375902e-02  0 
 1.644212e-03  -3.375990e-02  0 
 2.736965e-03  -3.376008e-02  0 
VECTORS displacement_ITER21 FLOAT
 -2.717310e-03  -3.102708e-02  0 
 -2.718215e-03  -3.376008e-02  0 
 -1.623819e-03  -3.102679e-02  0 
 -5.371910e-04  -3.102644e-02  0 
 5.559411e-04  -3.102644e-02  0 
 1.642569e-03  -3.102679e-02  0 
 2.736060e-03  -3.102708e-02  0 
 -1.625462e-03  -3.375990e-02  0 
 -5.367595e-04  -3.375902e-02  0 
 5.555096e-04  -3.375902e-02  0 
 1.644212e-03  -3.375990e-02  0 
 2.736965e-03  -3.376008e-02  0 
VECTORS displacement_ITER22 FLOAT
 -2.717310e-03  -3.102708e-02  0 
 -2.718215e-03  -3.376008e-02  0 
 -1.623819e-03  -3.102679e-02  0 
 -5.371911e-04  -3.102644e-02  0 
 5.559411e-04  -3.102644e-02  0 
 1.642569e-03  -3.102679e-02  0 
 2.736060e-03  -3.102708e-02  0 
 -1.625462e-03  -3.375990e-02  0 
 -5.367596e-04  -3.375902e-02  0 
 5.555096e-04  -3.375902e-02  0 
 1.644212e-03  -3.375990e-02  0 
 2.736965e-03  -3.376008e-02  0 
VECTORS displacement_ITER23 FLOAT
 -2.717310e-03  -3.102708e-02  0 
 -2.718215e-03  -3.376008e-02  0 
 -1.623819e-03  -3.102679e-02  0 
 -5.371911e-04  -3.102644e-02  0 
 5.559411e-04  -3.102644e-02  0 
 1.642569e-03  -3.102679e-02  0 
 2.736060e-03  -3.102708e-02  0 
 -1.625462e-03  -3.375990e-02  0 
 -5.367596e-04  -3.375902e-02  0 
 5.555096e-04  -3.375902e-02  0 
 1.644212e-03  -3.375990e-02  0 
 2.736965e-03  -3.376008e-02  0 
VECTORS displacement_ITER24 FLOAT
 -2.717310e-03  -3.102708e-02  0 
 -2.718215e-03  -3.376008e-02  0 
 -1.623819e-03  -3.102679e-02  0 
 -5.371911e-04  -3.102644e-02  0 
 5.559411e-04  -3.102644e-02  0 
 1.642569e-03  -3.102679e-02  0 
 2.736060e-03  -3.102708e-02  0 
 -1.625462e-03  -3.375990e-02  0 
 -5.367596e-04  -3.375902e-02  0 
 5.555096e-04  -3.375902e-02  0 
 1.644212e-03  -3.375990e-02  0 
 2.736965e-03  -3.376008e-02  0 
CELL_DATA 5
TENSORS element_stresses FLOAT
 -2.410878e-03  -3.829992e-04  0 
 -3.829992e-04  4.559674e-04  0 
 0  0  0 

 -3.174958e-05  -2.104772e-03  0 
 -2.104772e-03  2.979787e-04  0 
 0  0  0 

 -1.748646e-11  -1.274460e-03  0 
 -1.274460e-03  1.402441e-09  0 
 0  0  0 

 3.175000e-05  -2.104773e-03  0 
 -2.104773e-03  -2.979779e-04  0 
 0  0  0 

 2.410878e-03  -3.829954e-04  0 
 -3.829954e-04  -4.559677e-04  0 
 0  0  0 

TENSORS element_stresses FLOAT
 -2.410878e-03  -3.829992e-04  0 
 -3.829992e-04  4.559674e-04  0 
 0  0  0 

 -3.174958e-05  -2.104772e-03  0 
 -2.104772e-03  2.979787e-04  0 
 0  0  0 

 -1.748646e-11  -1.274460e-03  0 
 -1.274460e-03  1.402441e-09  0 
 0  0  0 

 3.175000e-05  -2.104773e-03  0 
 -2.104773e-03  -2.979779e-04  0 
 0  0  0 

 2.410878e-03  -3.829954e-04  0 
 -3.829954e-04  -4.559677e-04  0 
 0  0  0 

