# vtk DataFile Version 3.1
this is an vtk file created by FEMAC
ASCII
DATASET UNSTRUCTURED_GRID
POINTS 572 FLOAT
0.000000 0.000000 0.000000
1.000000 0.000000 0.000000
2.000000 0.000000 0.000000
3.000000 0.000000 0.000000
4.000000 0.000000 0.000000
5.000000 0.000000 0.000000
0.000000 1.000000 0.000000
1.000000 1.000000 0.000000
2.000000 1.000000 0.000000
3.000000 1.000000 0.000000
4.000000 1.000000 0.000000
5.000000 1.000000 0.000000
0.090909 0.000000 0.000000
0.181818 0.000000 0.000000
0.272727 0.000000 0.000000
0.363636 0.000000 0.000000
0.454545 0.000000 0.000000
0.545455 0.000000 0.000000
0.636364 0.000000 0.000000
0.727273 0.000000 0.000000
0.818182 0.000000 0.000000
0.909091 0.000000 0.000000
1.111111 0.000000 0.000000
1.222222 0.000000 0.000000
1.333333 0.000000 0.000000
1.444444 0.000000 0.000000
1.555556 0.000000 0.000000
1.666667 0.000000 0.000000
1.777778 0.000000 0.000000
1.888889 0.000000 0.000000
2.333333 0.000000 0.000000
2.666667 0.000000 0.000000
3.200000 0.000000 0.000000
3.400000 0.000000 0.000000
3.600000 0.000000 0.000000
3.800000 0.000000 0.000000
4.066667 0.000000 0.000000
4.133333 0.000000 0.000000
4.200000 0.000000 0.000000
4.266667 0.000000 0.000000
4.333333 0.000000 0.000000
4.400000 0.000000 0.000000
4.466667 0.000000 0.000000
4.533333 0.000000 0.000000
4.600000 0.000000 0.000000
4.666667 0.000000 0.000000
4.733333 0.000000 0.000000
4.800000 0.000000 0.000000
4.866667 0.000000 0.000000
4.933333 0.000000 0.000000
0.090909 1.000000 0.000000
0.181818 1.000000 0.000000
0.272727 1.000000 0.000000
0.363636 1.000000 0.000000
0.454545 1.000000 0.000000
0.545455 1.000000 0.000000
0.636364 1.000000 0.000000
0.727273 1.000000 0.000000
0.818182 1.000000 0.000000
0.909091 1.000000 0.000000
0.000000 0.090909 0.000000
0.000000 0.181818 0.000000
0.000000 0.272727 0.000000
0.000000 0.363636 0.000000
0.000000 0.454545 0.000000
0.000000 0.545455 0.000000
0.000000 0.636364 0.000000
0.000000 0.727273 0.000000
0.000000 0.818182 0.000000
0.000000 0.909091 0.000000
1.000000 0.111111 0.000000
1.000000 0.222222 0.000000
1.000000 0.333333 0.000000
1.000000 0.444444 0.000000
1.000000 0.555556 0.000000
1.000000 0.666667 0.000000
1.000000 0.777778 0.000000
1.000000 0.888889 0.000000
1.111111 1.000000 0.000000
1.222222 1.000000 0.000000
1.333333 1.000000 0.000000
1.444444 1.000000 0.000000
1.555556 1.000000 0.000000
1.666667 1.000000 0.000000
1.777778 1.000000 0.000000
1.888889 1.000000 0.000000
2.000000 0.333333 0.000000
2.000000 0.666667 0.000000
2.333333 1.000000 0.000000
2.666667 1.000000 0.000000
3.000000 0.200000 0.000000
3.000000 0.400000 0.000000
3.000000 0.600000 0.000000
3.000000 0.800000 0.000000
3.200000 1.000000 0.000000
3.400000 1.000000 0.000000
3.600000 1.000000 0.000000
3.800000 1.000000 0.000000
4.000000 0.066667 0.000000
4.000000 0.133333 0.000000
4.000000 0.200000 0.000000
4.000000 0.266667 0.000000
4.000000 0.333333 0.000000
4.000000 0.400000 0.000000
4.000000 0.466667 0.000000
4.000000 0.533333 0.000000
4.000000 0.600000 0.000000
4.000000 0.666667 0.000000
4.000000 0.733333 0.000000
4.000000 0.800000 0.000000
4.000000 0.866667 0.000000
4.000000 0.933333 0.000000
4.066667 1.000000 0.000000
4.133333 1.000000 0.000000
4.200000 1.000000 0.000000
4.266667 1.000000 0.000000
4.333333 1.000000 0.000000
4.400000 1.000000 0.000000
4.466667 1.000000 0.000000
4.533333 1.000000 0.000000
4.600000 1.000000 0.000000
4.666667 1.000000 0.000000
4.733333 1.000000 0.000000
4.800000 1.000000 0.000000
4.866667 1.000000 0.000000
4.933333 1.000000 0.000000
5.000000 0.066667 0.000000
5.000000 0.133333 0.000000
5.000000 0.200000 0.000000
5.000000 0.266667 0.000000
5.000000 0.333333 0.000000
5.000000 0.400000 0.000000
5.000000 0.466667 0.000000
5.000000 0.533333 0.000000
5.000000 0.600000 0.000000
5.000000 0.666667 0.000000
5.000000 0.733333 0.000000
5.000000 0.800000 0.000000
5.000000 0.866667 0.000000
5.000000 0.933333 0.000000
0.617892 0.527857 0.000000
0.266419 0.312880 0.000000
0.275236 0.737247 0.000000
0.755864 0.810933 0.000000
0.786915 0.198477 0.000000
0.189239 0.867082 0.000000
0.087932 0.135223 0.000000
0.872613 0.095460 0.000000
0.932189 0.857581 0.000000
0.142156 0.067414 0.000000
0.139916 0.934149 0.000000
0.586159 0.215844 0.000000
0.589914 0.738007 0.000000
0.420029 0.178898 0.000000
0.272415 0.535483 0.000000
0.429697 0.396321 0.000000
0.426273 0.826069 0.000000
0.436324 0.633016 0.000000
0.799675 0.547163 0.000000
0.120612 0.472373 0.000000
0.286105 0.152400 0.000000
0.735906 0.700165 0.000000
0.272551 0.890086 0.000000
0.131269 0.640407 0.000000
0.082838 0.297301 0.000000
0.899261 0.492755 0.000000
0.670884 0.054860 0.000000
0.132423 0.206614 0.000000
0.891397 0.207461 0.000000
0.100594 0.866398 0.000000
0.890973 0.684412 0.000000
0.688118 0.912242 0.000000
0.189594 0.783659 0.000000
0.841337 0.905303 0.000000
0.880907 0.386897 0.000000
0.591566 0.378370 0.000000
0.595977 0.641364 0.000000
0.564259 0.140797 0.000000
0.422348 0.280949 0.000000
0.435304 0.516871 0.000000
0.267936 0.425685 0.000000
0.432810 0.742733 0.000000
0.521737 0.317879 0.000000
0.334431 0.240511 0.000000
0.515527 0.690638 0.000000
0.176429 0.390059 0.000000
0.350381 0.468839 0.000000
0.516737 0.574488 0.000000
0.673457 0.610928 0.000000
0.531381 0.447797 0.000000
0.123834 0.552354 0.000000
0.531362 0.792800 0.000000
0.275149 0.637454 0.000000
0.200869 0.591126 0.000000
0.843418 0.630776 0.000000
0.345202 0.354198 0.000000
0.353691 0.580413 0.000000
0.644720 0.128218 0.000000
0.502996 0.206738 0.000000
0.350629 0.781231 0.000000
0.351712 0.687583 0.000000
0.192892 0.497032 0.000000
0.681638 0.202165 0.000000
0.573424 0.851393 0.000000
0.895921 0.571568 0.000000
0.059681 0.594572 0.000000
0.261114 0.229981 0.000000
0.271501 0.825853 0.000000
0.142976 0.716011 0.000000
0.722348 0.293212 0.000000
0.060298 0.215687 0.000000
0.177689 0.278088 0.000000
0.344525 0.867281 0.000000
0.670804 0.720800 0.000000
0.082028 0.402998 0.000000
0.397661 0.913921 0.000000
0.364353 0.148642 0.000000
0.224449 0.940101 0.000000
0.758854 0.621772 0.000000
0.065268 0.502258 0.000000
0.077241 0.682892 0.000000
0.320426 0.935119 0.000000
0.186814 0.158722 0.000000
0.820870 0.724654 0.000000
0.788031 0.465345 0.000000
0.748159 0.095618 0.000000
0.065544 0.059353 0.000000
0.718257 0.540599 0.000000
0.914880 0.294898 0.000000
0.324722 0.077837 0.000000
0.664783 0.372490 0.000000
0.202515 0.684317 0.000000
0.640097 0.821344 0.000000
0.129746 0.342112 0.000000
0.627418 0.296962 0.000000
0.592673 0.070772 0.000000
0.766759 0.927236 0.000000
0.617284 0.441744 0.000000
0.508185 0.898736 0.000000
0.066284 0.941928 0.000000
0.883021 0.775724 0.000000
0.500515 0.098056 0.000000
0.085067 0.765736 0.000000
0.237862 0.076792 0.000000
0.823748 0.289139 0.000000
0.602354 0.913936 0.000000
0.692048 0.450321 0.000000
0.761977 0.376234 0.000000
0.404633 0.083906 0.000000
0.936524 0.930355 0.000000
0.945426 0.051643 0.000000
1.226974 0.720004 0.000000
1.165943 0.918697 0.000000
1.794222 0.150840 0.000000
1.552209 0.776535 0.000000
1.386845 0.493852 0.000000
1.119191 0.577544 0.000000
1.386324 0.651587 0.000000
1.258065 0.119420 0.000000
1.111549 0.705155 0.000000
1.103605 0.337226 0.000000
1.137586 0.109527 0.000000
1.097885 0.812959 0.000000
1.133504 0.224869 0.000000
1.713009 0.522448 0.000000
1.196028 0.837971 0.000000
1.697381 0.320206 0.000000
1.364930 0.209932 0.000000
1.425154 0.824940 0.000000
1.556658 0.659773 0.000000
1.456045 0.712100 0.000000
1.386616 0.368388 0.000000
1.474275 0.128578 0.000000
1.219685 0.341752 0.000000
1.286572 0.884446 0.000000
1.273827 0.269544 0.000000
1.268442 0.563357 0.000000
1.331567 0.769924 0.000000
1.108870 0.454891 0.000000
1.085383 0.918178 0.000000
1.726148 0.713534 0.000000
1.545187 0.432664 0.000000
1.613827 0.147896 0.000000
1.357651 0.114482 0.000000
1.800042 0.894727 0.000000
1.582940 0.287296 0.000000
1.257184 0.427610 0.000000
1.641063 0.885911 0.000000
1.502984 0.903320 0.000000
1.489174 0.556094 0.000000
1.452190 0.248548 0.000000
1.388682 0.919030 0.000000
2.406630 0.422917 0.000000
2.789372 0.371868 0.000000
2.751977 0.661813 0.000000
2.456020 0.712133 0.000000
2.599803 0.486875 0.000000
2.199331 0.522508 0.000000
2.197737 0.780262 0.000000
2.247148 0.244663 0.000000
2.507159 0.254387 0.000000
3.494107 0.526082 0.000000
3.352318 0.164844 0.000000
3.628742 0.795193 0.000000
3.490708 0.155969 0.000000
3.821199 0.286103 0.000000
3.752610 0.693772 0.000000
3.694403 0.324357 0.000000
3.322647 0.709688 0.000000
3.206651 0.436347 0.000000
3.920588 0.648356 0.000000
3.537984 0.279122 0.000000
3.497696 0.877547 0.000000
3.486702 0.703963 0.000000
3.692876 0.192846 0.000000
3.323446 0.868184 0.000000
3.153240 0.676495 0.000000
3.719343 0.459919 0.000000
3.819866 0.497537 0.000000
3.777357 0.583694 0.000000
3.611459 0.397370 0.000000
3.923921 0.209625 0.000000
3.867041 0.109631 0.000000
3.770972 0.371887 0.000000
3.352950 0.571364 0.000000
3.840027 0.669858 0.000000
3.385654 0.358961 0.000000
3.742768 0.825799 0.000000
3.631128 0.689599 0.000000
3.908890 0.744668 0.000000
3.150761 0.844835 0.000000
3.904023 0.389590 0.000000
3.943538 0.308371 0.000000
3.174248 0.175186 0.000000
3.927325 0.533046 0.000000
3.656457 0.565471 0.000000
3.846797 0.595838 0.000000
3.880832 0.854160 0.000000
3.831620 0.419672 0.000000
3.834664 0.743404 0.000000
3.961535 0.907072 0.000000
4.518754 0.228577 0.000000
4.410875 0.160745 0.000000
4.716652 0.785953 0.000000
4.226142 0.628172 0.000000
4.253798 0.273866 0.000000
4.776502 0.211258 0.000000
4.856757 0.858512 0.000000
4.228294 0.834827 0.000000
4.163172 0.839084 0.000000
4.144379 0.130512 0.000000
4.926430 0.865602 0.000000
4.844047 0.063936 0.000000
4.098391 0.068915 0.000000
4.941983 0.910538 0.000000
4.922825 0.956056 0.000000
4.043613 0.078839 0.000000
4.768728 0.513978 0.000000
4.484673 0.776948 0.000000
4.311229 0.720562 0.000000
4.631232 0.327135 0.000000
4.359276 0.409367 0.000000
4.335341 0.564733 0.000000
4.397957 0.277340 0.000000
4.823552 0.715056 0.000000
4.603208 0.892830 0.000000
[...]
POINT_DATA 572
SCALARS CONDID_1 FLOAT
LOOKUP_TABLE default
 1 
 0 
 0 
 0 
 0 
 0 
 0 
 0 
 0 
 0 
 0 
 0 
 0 
 0 
 0 
 0 
 0 
 0 
 0 
 0 
 0 
 0 
 0 
 0 
 0 
 0 
 0 
 0 
 0 
 0 
 0 
 0 
 0 
 0 
 0 
 0 
 0 
 0 
 0 
 0 
 0 
 0 
 0 
 0 
 0 
 0 
 0 
 0 
 0 
 0 
 0 
 0 
 0 
 0 
 0 
 0 
 0 
 0 
 0 
 0 
 0 
 0 
 0 
 0 
 0 
 0 
 0 
 0 
 0 
 0 
 0 
 0 
 0 
 0 
 0 
 0 
 0 
 0 
 0 
 0 
 0 
 0 
 0 
 0 
 0 
 0 
 0 
 0 
 0 
 0 
 0 
 0 
 0 
 0 
 0 
 0 
 0 
 0 
 0 
 0 
 0 
 0 
 0 
 0 
 0 
 0 
 0 
 0 
 0 
 0 
 0 
 0 
 0 
 0 
 0 
 0 
 0 
 0 
 0 
 0 
 0 
 0 
 0 
 0 
 0 
 0 
 0 
 0 
 0 
 0 
 0 
 0 
 0 
 0 
 0 
 0 
 0 
 0 
 0 
 0 
 0 
 0 
 0 
 0 
 0 
 0 
 0 
 0 
 0 
 0 
 0 
 0 
 0 
 0 
 0 
 0 
 0 
 0 
 0 
 0 
 0 
 0 
 0 
 0 
 0 
 0 
 0 
 0 
 0 
 0 
 0 
 0 
 0 
 0 
 0 
 0 
 0 
 0 
 0 
 0 
 0 
 0 
 0 
 0 
 0 
 0 
 0 
 0 
 0 
 0 
 0 
 0 
 0 
 0 
 0 
 0 
 0 
 0 
 0 
 0 
 0 
 0 
 0 
 0 
 0 
 0 
 0 
 0 
 0 
 0 
 0 
 0 
 0 
 0 
 0 
 0 
 0 
 0 
 0 
 0 
 0 
 0 
 0 
 0 
 0 
 0 
 0 
 0 
 0 
 0 
 0 
 0 
 0 
 0 
 0 
 0 
 0 
 0 
 0 
 0 
 0 
 0 
 0 
 0 
 0 
 0 
 0 
 0 
 0 
 0 
 0 
 0 
 0 
 0 
 0 
 0 
 0 
 0 
 0 
 0 
 0 
 0 
 0 
 0 
 0 
 0 
 0 
 0 
 0 
 0 
 0 
 0 
 0 
 0 
 0 
 0 
 0 
 0 
 0 
 0 
 0 
 0 
 0 
 0 
 0 
 0 
 0 
 0 
 0 
 0 
 0 
 0 
 0 
 0 
 0 
 0 
 0 
 0 
 0 
 0 
 0 
 0 
 0 
 0 
 0 
 0 
 0 
 0 
 0 
 0 
 0 
 0 
 0 
 0 
 0 
 0 
 0 
 0 
 0 
 0 
 0 
 0 
 0 
 0 
 0 
 0 
 0 
 0 
 0 
 0 
 0 
 0 
 0 
 0 
 0 
 0 
 0 
 0 
 0 
 0 
 0 
 0 
 0 
 0 
 0 
 0 
 0 
 0 
 0 
 0 
 0 
 0 
 0 
 0 
 0 
 0 
 0 
 0 
 0 
 0 
 0 
 0 
 0 
 0 
 0 
 0 
 0 
 0 
 0 
 0 
 0 
 0 
 0 
 0 
 0 
 0 
 0 
 0 
 0 
 0 
 0 
 0 
 0 
 0 
 0 
 0 
 0 
 0 
 0 
 0 
 0 
 0 
 0 
 0 
 0 
 0 
 0 
 0 
 0 
 0 
 0 
 0 
 0 
 0 
 0 
 0 
 0 
 0 
 0 
 0 
 0 
 0 
 0 
 0 
 0 
 0 
 0 
 0 
 0 
 0 
 0 
 0 
 0 
 0 
 0 
 0 
 0 
 0 
 0 
 0 
 0 
 0 
 0 
 0 
 0 
 0 
 0 
 0 
 0 
 0 
 0 
 0 
 0 
 0 
 0 
 0 
 0 
 0 
 0 
 0 
 0 
 0 
 0 
 0 
 0 
 0 
 0 
 0 
 0 
 0 
 0 
 0 
 0 
 0 
 0 
 0 
 0 
 0 
 0 
 0 
 0 
 0 
 0 
 0 
 0 
 0 
 0 
 0 
 0 
 0 
 0 
 0 
 0 
 0 
 0 
 0 
 0 
 0 
 0 
 0 
 0 
 0 
 0 
 0 
 0 
 0 
 0 
 0 
 0 
 0 
 0 
 0 
 0 
 0 
 0 
 0 
 0 
 0 
 0 
 0 
 0 
 0 
 0 
 0 
 0 
 0 
 0 
 0 
 0 
 0 
 0 
 0 
 0 
 0 
 0 
 0 
 0 
 0 
 0 
 0 
 0 
 0 
 0 
 0 
 0 
 0 
 0 
 0 
 0 
 0 
 0 
 0 
 0 
 0 
 0 
 0 
 0 
 0 
 0 
 0 
 0 
 0 
 0 
 0 
 0 
 0 
 0 
 0 
 0 
 0 
 0 
 0 
 0 
 0 
 0 
 0 
 0 
 0 
 0 
 0 
 0 
 0 
SCALARS CONDID_2 FLOAT
LOOKUP_TABLE default
 1 
 0 
 0 
 0 
 0 
 0 
 1 
 0 
 0 
 0 
 0 
 0 
 0 
 0 
 0 
 0 
 0 
 0 
 0 
 0 
 0 
 0 
 0 
 0 
 0 
 0 
 0 
 0 
 0 
 0 
 0 
 0 
 0 
 0 
 0 
 0 
 0 
 0 
 0 
 0 
 0 
 0 
 0 
 0 
 0 
 0 
 0 
 0 
 0 
 0 
 0 
 0 
 0 
 0 
 0 
 0 
 0 
 0 
 0 
 0 
 1 
 1 
 1 
 1 
 1 
 1 
 1 
 1 
 1 
 1 
 0 
 0 
 0 
 0 
 0 
 0 
 0 
 0 
 0 
 0 
 0 
 0 
 0 
 0 
 0 
 0 
 0 
 0 
 0 
 0 
 0 
 0 
 0 
 0 
 0 
 0 
 0 
 0 
 0 
 0 
 0 
 0 
 0 
 0 
 0 
 0 
 0 
 0 
 0 
 0 
 0 
 0 
 0 
 0 
 0 
 0 
 0 
 0 
 0 
 0 
 0 
 0 
 0 
 0 
 0 
 0 
 0 
 0 
 0 
 0 
 0 
 0 
 0 
 0 
 0 
 0 
 0 
 0 
 0 
 0 
 0 
 0 
 0 
 0 
 0 
 0 
 0 
 0 
 0 
 0 
 0 
 0 
 0 
 0 
 0 
 0 
 0 
 0 
 0 
 0 
 0 
 0 
 0 
 0 
 0 
 0 
 0 
 0 
 0 
 0 
 0 
 0 
 0 
 0 
 0 
 0 
 0 
 0 
 0 
 0 
 0 
 0 
 0 
 0 
 0 
 0 
 0 
 0 
 0 
 0 
 0 
 0 
 0 
 0 
 0 
 0 
 0 
 0 
 0 
 0 
 0 
 0 
 0 
 0 
 0 
 0 
 0 
 0 
 0 
 0 
 0 
 0 
 0 
 0 
 0 
 0 
 0 
 0 
 0 
 0 
 0 
 0 
 0 
 0 
 0 
 0 
 0 
 0 
 0 
 0 
 0 
 0 
 0 
 0 
 0 
 0 
 0 
 0 
 0 
 0 
 0 
 0 
 0 
 0 
 0 
 0 
 0 
 0 
 0 
 0 
 0 
 0 
 0 
 0 
 0 
 0 
 0 
 0 
 0 
 0 
 0 
 0 
 0 
 0 
 0 
 0 
 0 
 0 
 0 
 0 
 0 
 0 
 0 
 0 
 0 
 0 
 0 
 0 
 0 
 0 
 0 
 0 
 0 
 0 
 0 
 0 
 0 
 0 
 0 
 0 
 0 
 0 
 0 
 0 
 0 
 0 
 0 
 0 
 0 
 0 
 0 
 0 
 0 
 0 
 0 
 0 
 0 
 0 
 0 
 0 
 0 
 0 
 0 
 0 
 0 
 0 
 0 
 0 
 0 
 0 
 0 
 0 
 0 
 0 
 0 
 0 
 0 
 0 
 0 
 0 
 0 
 0 
 0 
 0 
 0 
 0 
 0 
 0 
 0 
 0 
 0 
 0 
 0 
 0 
 0 
 0 
 0 
 0 
 0 
 0 
 0 
 0 
 0 
 0 
 0 
 0 
 0 
 0 
 0 
 0 
 0 
 0 
 0 
 0 
 0 
 0 
 0 
 0 
 0 
 0 
 0 
 0 
 0 
 0 
 0 
 0 
 0 
 0 
 0 
 0 
 0 
 0 
 0 
 0 
 0 
 0 
 0 
 0 
 0 
 0 
 0 
 0 
 0 
 0 
 0 
 0 
 0 
 0 
 0 
 0 
 0 
 0 
 0 
 0 
 0 
 0 
 0 
 0 
 0 
 0 
 0 
 0 
 0 
 0 
 0 
 0 
 0 
 0 
 0 
 0 
 0 
 0 
 0 
 0 
 0 
 0 
 0 
 0 
 0 
 0 
 0 
 0 
 0 
 0 
 0 
 0 
 0 
 0 
 0 
 0 
 0 
 0 
 0 
 0 
 0 
 0 
 0 
 0 
 0 
 0 
 0 
 0 
 0 
 0 
 0 
 0 
 0 
 0 
 0 
 0 
 0 
 0 
 0 
 0 
 0 
 0 
 0 
 0 
 0 
 0 
 0 
 0 
 0 
 0 
 0 
 0 
 0 
 0 
 0 
 0 
 0 
 0 
 0 
 0 
 0 
 0 
 0 
 0 
 0 
 0 
 0 
 0 
 0 
 0 
 0 
 0 
 0 
 0 
 0 
 0 
 0 
 0 
 0 
 0 
 0 
 0 
 0 
 0 
 0 
 0 
 0 
 0 
 0 
 0 
 0 
 0 
 0 
 0 
 0 
 0 
 0 
 0 
 0 
 0 
 0 
 0 
 0 
 0 
 0 
 0 
 0 
 0 
 0 
 0 
 0 
 0 
 0 
 0 
 0 
 0 
 0 
 0 
 0 
 0 
 0 
 0 
 0 
 0 
 0 
 0 
 0 
 0 
 0 
 0 
 0 
 0 
 0 
 0 
 0 
 0 
 0 
 0 
 0 
 0 
 0 
 0 
 0 
 0 
 0 
 0 
 0 
 0 
SCALARS CONDID_3 FLOAT
LOOKUP_TABLE default
 0 
 0 
 0 
 0 
 0 
 1 
 0 
 0 
 0 
 0 
 0 
 1 
 0 
 0 
 0 
 0 
 0 
 0 
 0 
 0 
 0 
 0 
 0 
 0 
 0 
 0 
 0 
 0 
 0 
 0 
 0 
 0 
 0 
 0 
 0 
 0 
 0 
 0 
 0 
 0 
 0 
 0 
 0 
 0 
 0 
 0 
 0 
 0 
 0 
 0 
 0 
 0 
 0 
 0 
 0 
 0 
 0 
 0 
 0 
 0 
 0 
 0 
 0 
 0 
 0 
 0 
 0 
 0 
 0 
 0 
 0 
 0 
 0 
 0 
 0 
 0 
 0 
 0 
 0 
 0 
 0 
 0 
 0 
 0 
 0 
 0 
 0 
 0 
 0 
 0 
 0 
 0 
 0 
 0 
 0 
 0 
 0 
 0 
 0 
 0 
 0 
 0 
 0 
 0 
 0 
 0 
 0 
 0 
 0 
 0 
 0 
 0 
 0 
 0 
 0 
 0 
 0 
 0 
 0 
 0 
 0 
 0 
 0 
 0 
 0 
 0 
 1 
 1 
 1 
 1 
 1 
 1 
 1 
 1 
 1 
 1 
 1 
 1 
 1 
 1 
 0 
 0 
 0 
 0 
 0 
 0 
 0 
 0 
 0 
 0 
 0 
 0 
 0 
 0 
 0 
 0 
 0 
 0 
 0 
 0 
 0 
 0 
 0 
 0 
 0 
 0 
 0 
 0 
 0 
 0 
 0 
 0 
 0 
 0 
 0 
 0 
 0 
 0 
 0 
 0 
 0 
 0 
 0 
 0 
 0 
 0 
 0 
 0 
 0 
 0 
 0 
 0 
 0 
 0 
 0 
 0 
 0 
 0 
 0 
 0 
 0 
 0 
 0 
 0 
 0 
 0 
 0 
 0 
 0 
 0 
 0 
 0 
 0 
 0 
 0 
 0 
 0 
 0 
 0 
 0 
 0 
 0 
 0 
 0 
 0 
 0 
 0 
 0 
 0 
 0 
 0 
 0 
 0 
 0 
 0 
 0 
 0 
 0 
 0 
 0 
 0 
 0 
 0 
 0 
 0 
 0 
 0 
 0 
 0 
 0 
 0 
 0 
 0 
 0 
 0 
 0 
 0 
 0 
 0 
 0 
 0 
 0 
 0 
 0 
 0 
 0 
 0 
 0 
 0 
 0 
 0 
 0 
 0 
 0 
 0 
 0 
 0 
 0 
 0 
 0 
 0 
 0 
 0 
 0 
 0 
 0 
 0 
 0 
 0 
 0 
 0 
 0 
 0 
 0 
 0 
 0 
 0 
 0 
 0 
 0 
 0 
 0 
 0 
 0 
 0 
 0 
 0 
 0 
 0 
 0 
 0 
 0 
 0 
 0 
 0 
 0 
 0 
 0 
 0 
 0 
 0 
 0 
 0 
 0 
 0 
 0 
 0 
 0 
 0 
 0 
 0 
 0 
 0 
 0 
 0 
 0 
 0 
 0 
 0 
 0 
 0 
 0 
 0 
 0 
 0 
 0 
 0 
 0 
 0 
 0 
 0 
 0 
 0 
 0 
 0 
 0 
 0 
 0 
 0 
 0 
 0 
 0 
 0 
 0 
 0 
 0 
 0 
 0 
 0 
 0 
 0 
 0 
 0 
 0 
 0 
 0 
 0 
 0 
 0 
 0 
 0 
 0 
 0 
 0 
 0 
 0 
 0 
 0 
 0 
 0 
 0 
 0 
 0 
 0 
 0 
 0 
 0 
 0 
 0 
 0 
 0 
 0 
 0 
 0 
 0 
 0 
 0 
 0 
 0 
 0 
 0 
 0 
 0 
 0 
 0 
 0 
 0 
 0 
 0 
 0 
 0 
 0 
 0 
 0 
 0 
 0 
 0 
 0 
 0 
 0 
 0 
 0 
 0 
 0 
 0 
 0 
 0 
 0 
 0 
 0 
 0 
 0 
 0 
 0 
 0 
 0 
 0 
 0 
 0 
 0 
 0 
 0 
 0 
 0 
 0 
 0 
 0 
 0 
 0 
 0 
 0 
 0 
 0 
 0 
 0 
 0 
 0 
 0 
 0 
 0 
 0 
 0 
 0 
 0 
 0 
 0 
 0 
 0 
 0 
 0 
 0 
 0 
 0 
 0 
 0 
 0 
 0 
 0 
 0 
 0 
 0 
 0 
 0 
 0 
 0 
 0 
 0 
 0 
 0 
 0 
 0 
 0 
 0 
 0 
 0 
 0 
 0 
 0 
 0 
 0 
 0 
 0 
 0 
 0 
 0 
 0 
 0 
 0 
 0 
 0 
 0 
 0 
 0 
 0 
 0 
 0 
 0 
 0 
 0 
 0 
 0 
 0 
 0 
 0 
 0 
 0 
 0 
 0 
 0 
 0 
 0 
 0 
 0 
 0 
 0 
 0 
 0 
 0 
 0 
 0 
 0 
 0 
 0 
 0 
 0 
 0 
 0 
 0 
 0 
 0 
 0 
 0 
 0 
 0 
 0 
 0 
 0 
 0 
 0 
 0 
 0 
 0 
VECTORS displacement FLOAT
 0  -1.979150e-02  0 
 5.000000e-03  -1.979150e-02  0 
 1.000000e-02  -1.979150e-02  0 
 1.500000e-02  -1.979150e-02  0 
 2.000000e-02  -1.979150e-02  0 
 2.500000e-02  -1.979150e-02  0 
 0  -1.979150e-02  0 
 5.000000e-03  -1.979150e-02  0 
 1.000000e-02  -1.979150e-02  0 
 1.500000e-02  -1.979150e-02  0 
 2.000000e-02  -1.979150e-02  0 
 2.500000e-02  -1.979150e-02  0 
 4.545455e-04  -1.979150e-02  0 
 9.090909e-04  -1.979150e-02  0 
 1.363636e-03  -1.979150e-02  0 
 1.818182e-03  -1.979150e-02  0 
 2.272727e-03  -1.979150e-02  0 
 2.727273e-03  -1.979150e-02  0 
 3.181818e-03  -1.979150e-02  0 
 3.636364e-03  -1.979150e-02  0 
 4.090909e-03  -1.979150e-02  0 
 4.545455e-03  -1.979150e-02  0 
 5.555556e-03  -1.979150e-02  0 
 6.111111e-03  -1.979150e-02  0 
 6.666667e-03  -1.979150e-02  0 
 7.222222e-03  -1.979150e-02  0 
 7.777778e-03  -1.979150e-02  0 
 8.333333e-03  -1.979150e-02  0 
 8.888889e-03  -1.979150e-02  0 
 9.444444e-03  -1.979150e-02  0 
 1.166667e-02  -1.979150e-02  0 
 1.333333e-02  -1.979150e-02  0 
 1.600000e-02  -1.979150e-02  0 
 1.700000e-02  -1.979150e-02  0 
 1.800000e-02  -1.979150e-02  0 
 1.900000e-02  -1.979150e-02  0 
 2.033333e-02  -1.979150e-02  0 
 2.066667e-02  -1.979150e-02  0 
 2.100000e-02  -1.979150e-02  0 
 2.133333e-02  -1.979150e-02  0 
 2.166667e-02  -1.979150e-02  0 
 2.200000e-02  -1.979150e-02  0 
 2.233333e-02  -1.979150e-02  0 
 2.266667e-02  -1.979150e-02  0 
 2.300000e-02  -1.979150e-02  0 
 2.333333e-02  -1.979150e-02  0 
 2.366667e-02  -1.979150e-02  0 
 2.400000e-02  -1.979150e-02  0 
 2.433333e-02  -1.979150e-02  0 
 2.466667e-02  -1.979150e-02  0 
 4.545455e-04  -1.979150e-02  0 
 9.090909e-04  -1.979150e-02  0 
 1.363636e-03  -1.979150e-02  0 
 1.818182e-03  -1.979150e-02  0 
 2.272727e-03  -1.979150e-02  0 
 2.727273e-03  -1.979150e-02  0 
 3.181818e-03  -1.979150e-02  0 
 3.636364e-03  -1.979150e-02  0 
 4.090909e-03  -1.979150e-02  0 
 4.545455e-03  -1.979150e-02  0 
 0  -1.979150e-02  0 
 0  -1.979150e-02  0 
 0  -1.979150e-02  0 
 0  -1.979150e-02  0 
 0  -1.979150e-02  0 
 0  -1.979150e-02  0 
 0  -1.979150e-02  0 
 0  -1.979150e-02  0 
 0  -1.979150e-02  0 
 0  -1.979150e-02  0 
 5.000000e-03  -1.979150e-02  0 
 5.000000e-03  -1.979150e-02  0 
 5.000000e-03  -1.979150e-02  0 
 5.000000e-03  -1.979150e-02  0 
 5.000000e-03  -1.979150e-02  0 
 5.000000e-03  -1.979150e-02  0 
 5.000000e-03  -1.979150e-02  0 
 5.000000e-03  -1.979150e-02  0 
 5.555556e-03  -1.979150e-02  0 
 6.111111e-03  -1.979150e-02  0 
 6.666667e-03  -1.979150e-02  0 
 7.222222e-03  -1.979150e-02  0 
 7.777778e-03  -1.979150e-02  0 
 8.333333e-03  -1.979150e-02  0 
 8.888889e-03  -1.979150e-02  0 
 9.444444e-03  -1.979150e-02  0 
 1.000000e-02  -1.979150e-02  0 
 1.000000e-02  -1.979150e-02  0 
 1.166667e-02  -1.979150e-02  0 
 1.333333e-02  -1.979150e-02  0 
 1.500000e-02  -1.979150e-02  0 
 1.500000e-02  -1.979150e-02  0 
 1.500000e-02  -1.979150e-02  0 
 1.500000e-02  -1.979150e-02  0 
 1.600000e-02  -1.979150e-02  0 
 1.700000e-02  -1.979150e-02  0 
 1.800000e-02  -1.979150e-02  0 
 1.900000e-02  -1.979150e-02  0 
 2.000000e-02  -1.979150e-02  0 
 2.000000e-02  -1.979150e-02  0 
 2.000000e-02  -1.979150e-02  0 
 2.000000e-02  -1.979150e-02  0 
 2.000000e-02  -1.979150e-02  0 
 2.000000e-02  -1.979150e-02  0 
 2.000000e-02  -1.979150e-02  0 
 2.000000e-02  -1.979150e-02  0 
 2.000000e-02  -1.979150e-02  0 
 2.000000e-02  -1.979150e-02  0 
 2.000000e-02  -1.979150e-02  0 
 2.000000e-02  -1.979150e-02  0 
 2.000000e-02  -1.979150e-02  0 
 2.000000e-02  -1.979150e-02  0 
 2.033333e-02  -1.979150e-02  0 
 2.066667e-02  -1.979150e-02  0 
 2.100000e-02  -1.979150e-02  0 
 2.133333e-02  -1.979150e-02  0 
 2.166667e-02  -1.979150e-02  0 
 2.200000e-02  -1.979150e-02  0 
 2.233333e-02  -1.979150e-02  0 
 2.266667e-02  -1.979150e-02  0 
 2.300000e-02  -1.979150e-02  0 
 2.333333e-02  -1.979150e-02  0 
 2.366667e-02  -1.979150e-02  0 
 2.400000e-02  -1.979150e-02  0 
 2.433333e-02  -1.979150e-02  0 
 2.466667e-02  -1.979150e-02  0 
 2.500000e-02  -1.979150e-02  0 
 2.500000e-02  -1.979150e-02  0 
 2.500000e-02  -1.979150e-02  0 
 2.500000e-02  -1.979150e-02  0 
 2.500000e-02  -1.979150e-02  0 
 2.500000e-02  -1.979150e-02  0 
 2.500000e-02  -1.979150e-02  0 
 2.500000e-02  -1.979150e-02  0 
 2.500000e-02  -1.979150e-02  0 
 2.500000e-02  -1.979150e-02  0 
 2.500000e-02  -1.979150e-02  0 
 2.500000e-02  -1.979150e-02  0 
 2.500000e-02  -1.979150e-02  0 
 2.500000e-02  -1.979150e-02  0 
 3.089462e-03  -1.979150e-02  0 
 1.332094e-03  -1.979150e-02  0 
 1.376178e-03  -1.979150e-02  0 
 3.779321e-03  -1.979150e-02  0 
 3.934573e-03  -1.979150e-02  0 
 9.461939e-04  -1.979150e-02  0 
 4.396624e-04  -1.979150e-02  0 
 4.363063e-03  -1.979150e-02  0 
 4.660947e-03  -1.979150e-02  0 
 7.107803e-04  -1.979150e-02  0 
 6.995820e-04  -1.979150e-02  0 
 2.930793e-03  -1.979150e-02  0 
 2.949570e-03  -1.979150e-02  0 
 2.100143e-03  -1.979150e-02  0 
 1.362077e-03  -1.979150e-02  0 
 2.148484e-03  -1.979150e-02  0 
 2.131365e-03  -1.979150e-02  0 
 2.181622e-03  -1.979150e-02  0 
 3.998376e-03  -1.979150e-02  0 
 6.030619e-04  -1.979150e-02  0 
 1.430526e-03  -1.979150e-02  0 
 3.679531e-03  -1.979150e-02  0 
 1.362756e-03  -1.979150e-02  0 
 6.563435e-04  -1.979150e-02  0 
 4.141894e-04  -1.979150e-02  0 
 4.496305e-03  -1.979150e-02  0 
 3.354420e-03  -1.979150e-02  0 
 6.621135e-04  -1.979150e-02  0 
 4.456984e-03  -1.979150e-02  0 
 5.029691e-04  -1.979150e-02  0 
 4.454863e-03  -1.979150e-02  0 
 3.440592e-03  -1.979150e-02  0 
 9.479682e-04  -1.979150e-02  0 
 4.206687e-03  -1.979150e-02  0 
 4.404533e-03  -1.979150e-02  0 
 2.957831e-03  -1.979150e-02  0 
 2.979884e-03  -1.979150e-02  0 
 2.821295e-03  -1.979150e-02  0 
 2.111739e-03  -1.979150e-02  0 
 2.176519e-03  -1.979150e-02  0 
 1.339678e-03  -1.979150e-02  0 
 2.164052e-03  -1.979150e-02  0 
 2.608686e-03  -1.979150e-02  0 
 1.672157e-03  -1.979150e-02  0 
 2.577634e-03  -1.979150e-02  0 
 8.821451e-04  -1.979150e-02  0 
 1.751907e-03  -1.979150e-02  0 
 2.583686e-03  -1.979150e-02  0 
 3.367286e-03  -1.979150e-02  0 
 2.656907e-03  -1.979150e-02  0 
 6.191678e-04  -1.979150e-02  0 
 2.656809e-03  -1.979150e-02  0 
 1.375747e-03  -1.979150e-02  0 
 1.004344e-03  -1.979150e-02  0 
 4.217088e-03  -1.979150e-02  0 
 1.726010e-03  -1.979150e-02  0 
 1.768456e-03  -1.979150e-02  0 
 3.223598e-03  -1.979150e-02  0 
 2.514982e-03  -1.979150e-02  0 
 1.753143e-03  -1.979150e-02  0 
 1.758559e-03  -1.979150e-02  0 
 9.644620e-04  -1.979150e-02  0 
 3.408189e-03  -1.979150e-02  0 
 2.867118e-03  -1.979150e-02  0 
 4.479607e-03  -1.979150e-02  0 
 2.984067e-04  -1.979150e-02  0 
 1.305570e-03  -1.979150e-02  0 
 1.357503e-03  -1.979150e-02  0 
 7.148778e-04  -1.979150e-02  0 
 3.611741e-03  -1.979150e-02  0 
 3.014920e-04  -1.979150e-02  0 
 8.884465e-04  -1.979150e-02  0 
 1.722626e-03  -1.979150e-02  0 
 3.354020e-03  -1.979150e-02  0 
 4.101392e-04  -1.979150e-02  0 
 1.988304e-03  -1.979150e-02  0 
 1.821767e-03  -1.979150e-02  0 
 1.122243e-03  -1.979150e-02  0 
 3.794268e-03  -1.979150e-02  0 
 3.263381e-04  -1.979150e-02  0 
 3.862054e-04  -1.979150e-02  0 
 1.602132e-03  -1.979150e-02  0 
 9.340696e-04  -1.979150e-02  0 
 4.104351e-03  -1.979150e-02  0 
 3.940153e-03  -1.979150e-02  0 
 3.740794e-03  -1.979150e-02  0 
 3.277198e-04  -1.979150e-02  0 
 3.591287e-03  -1.979150e-02  0 
 4.574399e-03  -1.979150e-02  0 
 1.623610e-03  -1.979150e-02  0 
 3.323916e-03  -1.979150e-02  0 
 1.012576e-03  -1.979150e-02  0 
 3.200487e-03  -1.979150e-02  0 
 6.487300e-04  -1.979150e-02  0 
 3.137088e-03  -1.979150e-02  0 
 2.963365e-03  -1.979150e-02  0 
 3.833794e-03  -1.979150e-02  0 
 3.086420e-03  -1.979150e-02  0 
 2.540927e-03  -1.979150e-02  0 
 3.314193e-04  -1.979150e-02  0 
 4.415104e-03  -1.979150e-02  0 
 2.502575e-03  -1.979150e-02  0 
 4.253368e-04  -1.979150e-02  0 
 1.189312e-03  -1.979150e-02  0 
 4.118738e-03  -1.979150e-02  0 
 3.011770e-03  -1.979150e-02  0 
 3.460240e-03  -1.979150e-02  0 
 3.809887e-03  -1.979150e-02  0 
 2.023167e-03  -1.979150e-02  0 
 4.682618e-03  -1.979150e-02  0 
 4.727129e-03  -1.979150e-02  0 
 6.134868e-03  -1.979150e-02  0 
 5.829715e-03  -1.979150e-02  0 
 8.971111e-03  -1.979150e-02  0 
 7.761045e-03  -1.979150e-02  0 
 6.934223e-03  -1.979150e-02  0 
 5.595953e-03  -1.979150e-02  0 
 6.931621e-03  -1.979150e-02  0 
 6.290325e-03  -1.979150e-02  0 
 5.557743e-03  -1.979150e-02  0 
 5.518027e-03  -1.979150e-02  0 
 5.687929e-03  -1.979150e-02  0 
 5.489427e-03  -1.979150e-02  0 
 5.667518e-03  -1.979150e-02  0 
 8.565046e-03  -1.979150e-02  0 
 5.980141e-03  -1.979150e-02  0 
 8.486903e-03  -1.979150e-02  0 
 6.824648e-03  -1.979150e-02  0 
 7.125769e-03  -1.979150e-02  0 
 7.783292e-03  -1.979150e-02  0 
 7.280227e-03  -1.979150e-02  0 
 6.933080e-03  -1.979150e-02  0 
 7.371373e-03  -1.979150e-02  0 
 6.098425e-03  -1.979150e-02  0 
 6.432862e-03  -1.979150e-02  0 
 6.369135e-03  -1.979150e-02  0 
 6.342210e-03  -1.979150e-02  0 
 6.657834e-03  -1.979150e-02  0 
 5.544351e-03  -1.979150e-02  0 
 5.426915e-03  -1.979150e-02  0 
 8.630739e-03  -1.979150e-02  0 
 7.725935e-03  -1.979150e-02  0 
 8.069136e-03  -1.979150e-02  0 
 6.788253e-03  -1.979150e-02  0 
 9.000210e-03  -1.979150e-02  0 
 7.914702e-03  -1.979150e-02  0 
 6.285918e-03  -1.979150e-02  0 
 8.205315e-03  -1.979150e-02  0 
 7.514922e-03  -1.979150e-02  0 
 7.445871e-03  -1.979150e-02  0 
 7.260951e-03  -1.979150e-02  0 
 6.943410e-03  -1.979150e-02  0 
 1.203315e-02  -1.979150e-02  0 
 1.394686e-02  -1.979150e-02  0 
 1.375988e-02  -1.979150e-02  0 
 1.228010e-02  -1.979150e-02  0 
 1.299901e-02  -1.979150e-02  0 
 1.099665e-02  -1.979150e-02  0 
 1.098868e-02  -1.979150e-02  0 
 1.123574e-02  -1.979150e-02  0 
 1.253579e-02  -1.979150e-02  0 
 1.747053e-02  -1.979150e-02  0 
 1.676159e-02  -1.979150e-02  0 
 1.814371e-02  -1.979150e-02  0 
 1.745354e-02  -1.979150e-02  0 
 1.910600e-02  -1.979150e-02  0 
 1.876305e-02  -1.979150e-02  0 
 1.847202e-02  -1.979150e-02  0 
 1.661323e-02  -1.979150e-02  0 
 1.603325e-02  -1.979150e-02  0 
 1.960294e-02  -1.979150e-02  0 
 1.768992e-02  -1.979150e-02  0 
 1.748848e-02  -1.979150e-02  0 
 1.743351e-02  -1.979150e-02  0 
 1.846438e-02  -1.979150e-02  0 
 1.661723e-02  -1.979150e-02  0 
 1.576620e-02  -1.979150e-02  0 
 1.859672e-02  -1.979150e-02  0 
 1.909933e-02  -1.979150e-02  0 
 1.888678e-02  -1.979150e-02  0 
 1.805730e-02  -1.979150e-02  0 
 1.961960e-02  -1.979150e-02  0 
 1.933520e-02  -1.979150e-02  0 
 1.885486e-02  -1.979150e-02  0 
 1.676475e-02  -1.979150e-02  0 
 1.920014e-02  -1.979150e-02  0 
 1.692827e-02  -1.979150e-02  0 
 1.871384e-02  -1.979150e-02  0 
 1.815564e-02  -1.979150e-02  0 
 1.954445e-02  -1.979150e-02  0 
 1.575381e-02  -1.979150e-02  0 
 1.952011e-02  -1.979150e-02  0 
 1.971769e-02  -1.979150e-02  0 
 1.587124e-02  -1.979150e-02  0 
 1.963662e-02  -1.979150e-02  0 
 1.828229e-02  -1.979150e-02  0 
 1.923399e-02  -1.979150e-02  0 
 1.940416e-02  -1.979150e-02  0 
 1.915810e-02  -1.979150e-02  0 
 1.917332e-02  -1.979150e-02  0 
 1.980768e-02  -1.979150e-02  0 
 2.259377e-02  -1.979150e-02  0 
 2.205437e-02  -1.979150e-02  0 
 2.358326e-02  -1.979150e-02  0 
 2.113071e-02  -1.979150e-02  0 
 2.126899e-02  -1.979150e-02  0 
 2.388251e-02  -1.979150e-02  0 
 2.428378e-02  -1.979150e-02  0 
 2.114147e-02  -1.979150e-02  0 
 2.081586e-02  -1.979150e-02  0 
 2.072189e-02  -1.979150e-02  0 
 2.463215e-02  -1.979150e-02  0 
 2.422023e-02  -1.979150e-02  0 
 2.049196e-02  -1.979150e-02  0 
 2.470991e-02  -1.979150e-02  0 
 2.461412e-02  -1.979150e-02  0 
 2.021806e-02  -1.979150e-02  0 
 2.384364e-02  -1.979150e-02  0 
 2.242337e-02  -1.979150e-02  0 
 2.155614e-02  -1.979150e-02  0 
 2.315616e-02  -1.979150e-02  0 
 2.179638e-02  -1.979150e-02  0 
 2.167671e-02  -1.979150e-02  0 
 2.198979e-02  -1.979150e-02  0 
 2.411776e-02  -1.979150e-02  0 
 2.301604e-02  -1.979150e-02  0 
 2.424667e-02  -1.979150e-02  0 
 2.248272e-02  -1.979150e-02  0 
 2.275970e-02  -1.979150e-02  0 
 2.167474e-02  -1.979150e-02  0 
 2.321570e-02  -1.979150e-02  0 
 2.349505e-02  -1.979150e-02  0 
 2.167302e-02  -1.979150e-02  0 
 2.037794e-02  -1.979150e-02  0 
 2.400346e-02  -1.979150e-02  0 
 2.414433e-02  -1.979150e-02  0 
 2.169369e-02  -1.979150e-02  0 
 2.478759e-02  -1.979150e-02  0 
 2.032460e-02  -1.979150e-02  0 
 2.472315e-02  -1.979150e-02  0 
 2.092505e-02  -1.979150e-02  0 
 2.227059e-02  -1.979150e-02  0 
 2.221751e-02  -1.979150e-02  0 
 2.033052e-02  -1.979150e-02  0 
 2.439213e-02  -1.979150e-02  0 
 2.036097e-02  -1.979150e-02  0 
 2.396875e-02  -1.979150e-02  0 
 2.416687e-02  -1.979150e-02  0 
 2.066709e-02  -1.979150e-02  0 
 2.066337e-02  -1.979150e-02  0 
 2.440634e-02  -1.979150e-02  0 
 2.322241e-02  -1.979150e-02  0 
 2.191958e-02  -1.979150e-02  0 
 2.246481e-02  -1.979150e-02  0 
 2.295636e-02  -1.979150e-02  0 
 2.297700e-02  -1.979150e-02  0 