# vtk DataFile Version 3.1
this is an vtk file created by FEMAC
ASCII
DATASET UNSTRUCTURED_GRID
POINTS 9 FLOAT
0.000000 0.000000 0.000000
1.000000 0.000000 0.000000
2.000000 0.000000 0.000000
0.000000 1.000000 0.000000
1.000000 1.000000 0.000000
2.000000 1.000000 0.000000
0.000000 2.000000 0.000000
1.000000 2.000000 0.000000
2.000000 2.000000 0.000000
CELLS 4 20 
4 0 1 4 3
4 1 2 5 4
4 3 4 7 6
4 4 5 8 7
CELL_TYPES 4
9 9 9 9 
POINT_DATA 9
SCALARS CONDID_1 FLOAT
LOOKUP_TABLE default
 1 
 0 
 0 
 0 
 0 
 0 
 0 
 0 
 0 
SCALARS CONDID_2 FLOAT
LOOKUP_TABLE default
 1 
 0 
 0 
 1 
 0 
 0 
 1 
 0 
 0 
SCALARS CONDID_3 FLOAT
LOOKUP_TABLE default
 0 
 0 
 1 
 0 
 0 
 1 
 0 
 0 
 1 
VECTORS displacement FLOAT
 0  0  0 
 5.000000e-04  -9.626798e-19  0 
 1.000000e-03  2.534323e-18  0 
 0  -1.500000e-04  0 
 5.000000e-04  -1.500000e-04  0 
 1.000000e-03  -1.500000e-04  0 
 1.473821e-18  -3.000000e-04  0 
 5.000000e-04  -3.000000e-04  0 
 1.000000e-03  -3.000000e-04  0 
CELL_DATA 4
SCALARS MATID_1 FLOAT
LOOKUP_TABLE default
 1 
 1 
 1 
 1 
SCALARS SUB_ID FLOAT
LOOKUP_TABLE default
 4 
 3 
 1 
 2 
VECTORS SubCenter_Diff FLOAT
 -5.000000e-01  -5.000000e-01  0 
 5.000000e-01  -5.000000e-01  0 
 -5.000000e-01  5.000000e-01  0 
 5.000000e-01  5.000000e-01  0 
