# vtk DataFile Version 3.1
this is an vtk file created by FEMAC
ASCII
DATASET UNSTRUCTURED_GRID
POINTS 85 FLOAT
0.000000 0.000000 0.000000
1.000000 0.000000 0.000000
2.000000 0.000000 0.000000
3.000000 0.000000 0.000000
4.000000 0.000000 0.000000
5.000000 0.000000 0.000000
6.000000 0.000000 0.000000
0.000000 1.000000 0.000000
1.000000 1.000000 0.000000
0.000000 2.000000 0.000000
1.000000 2.000000 0.000000
0.000000 3.000000 0.000000
1.000000 3.000000 0.000000
0.000000 4.000000 0.000000
1.000000 4.000000 0.000000
0.000000 5.000000 0.000000
1.000000 5.000000 0.000000
0.000000 6.000000 0.000000
1.000000 6.000000 0.000000
2.000000 1.000000 0.000000
2.000000 2.000000 0.000000
2.000000 3.000000 0.000000
2.000000 4.000000 0.000000
2.000000 5.000000 0.000000
2.000000 6.000000 0.000000
3.000000 1.000000 0.000000
3.000000 2.000000 0.000000
3.000000 3.000000 0.000000
3.000000 4.000000 0.000000
3.000000 5.000000 0.000000
3.000000 6.000000 0.000000
4.000000 1.000000 0.000000
4.000000 2.000000 0.000000
4.000000 3.000000 0.000000
4.000000 4.000000 0.000000
4.000000 5.000000 0.000000
4.000000 6.000000 0.000000
5.000000 1.000000 0.000000
5.000000 2.000000 0.000000
5.000000 3.000000 0.000000
5.000000 4.000000 0.000000
5.000000 5.000000 0.000000
5.000000 6.000000 0.000000
6.000000 1.000000 0.000000
6.000000 2.000000 0.000000
6.000000 3.000000 0.000000
6.000000 4.000000 0.000000
6.000000 5.000000 0.000000
6.000000 6.000000 0.000000
0.500000 0.500000 0.000000
0.500000 1.500000 0.000000
0.500000 2.500000 0.000000
0.500000 3.500000 0.000000
0.500000 4.500000 0.000000
0.500000 5.500000 0.000000
1.500000 0.500000 0.000000
1.500000 1.500000 0.000000
1.500000 2.500000 0.000000
1.500000 3.500000 0.000000
1.500000 4.500000 0.000000
1.500000 5.500000 0.000000
2.500000 0.500000 0.000000
2.500000 1.500000 0.000000
2.500000 2.500000 0.000000
2.500000 3.500000 0.000000
2.500000 4.500000 0.000000
2.500000 5.500000 0.000000
3.500000 0.500000 0.000000
3.500000 1.500000 0.000000
3.500000 2.500000 0.000000
3.500000 3.500000 0.000000
3.500000 4.500000 0.000000
3.500000 5.500000 0.000000
4.500000 0.500000 0.000000
4.500000 1.500000 0.000000
4.500000 2.500000 0.000000
4.500000 3.500000 0.000000
4.500000 4.500000 0.000000
4.500000 5.500000 0.000000
5.500000 0.500000 0.000000
5.500000 1.500000 0.000000
5.500000 2.500000 0.000000
5.500000 3.500000 0.000000
5.500000 4.500000 0.000000
5.500000 5.500000 0.000000
CELLS 144 576 
3 1 49  0
3 7 49  8
3 49  7  0
3 49  1  8
3 8 50  7
3 9 50 10
3 50  9  7
3 50  8 10
3 10 51  9
3 11 51 12
3 51 11  9
3 51 10 12
3 12 52 11
3 13 52 14
3 52 13 11
3 52 12 14
3 14 53 13
3 15 53 16
3 53 15 13
3 53 14 16
3 54 16 18
3 54 17 15
3 17 54 18
3 16 54 15
3 1 55  8
3 19 55  2
3 55 19  8
3 55  1  2
3 56 10  8
3 56 19 20
3 19 56  8
3 10 56 20
3 10 57 12
3 21 57 20
3 57 21 12
3 57 10 20
3 58 14 12
3 58 21 22
3 21 58 12
3 14 58 22
3 14 59 16
3 23 59 22
3 59 23 16
3 59 14 22
3 60 18 16
3 60 23 24
3 23 60 16
3 18 60 24
3 3 61  2
3 19 61 25
3 61 19  2
3 61  3 25
3 19 62 20
3 26 62 25
3 62 26 20
3 62 19 25
3 21 63 27
3 26 63 20
3 63 26 27
3 63 21 20
3 64 22 21
3 64 27 28
3 27 64 21
3 22 64 28
3 22 65 23
3 29 65 28
3 65 29 23
3 65 22 28
3 23 66 24
3 30 66 29
3 66 30 24
3 66 23 29
3 4 67  3
3 25 67 31
3 67 25  3
3 67  4 31
3 68 26 25
3 68 31 32
3 31 68 25
3 26 68 32
3 26 69 27
3 33 69 32
3 69 33 27
3 69 26 32
3 28 70 34
3 33 70 27
3 70 33 34
3 70 28 27
3 71 29 28
3 71 34 35
3 34 71 28
3 29 71 35
3 30 72 36
3 35 72 29
3 72 35 36
3 72 30 29
3 5 73  4
3 31 73 37
3 73 31  4
3 73  5 37
3 31 74 32
3 38 74 37
3 74 38 32
3 74 31 37
3 33 75 39
3 38 75 32
3 75 38 39
3 75 33 32
3 34 76 40
3 39 76 33
3 76 39 40
3 76 34 33
3 77 35 34
3 77 40 41
3 40 77 34
3 35 77 41
3 78 36 35
3 78 41 42
3 41 78 35
3 36 78 42
3 5 79 37
3 43 79  6
3 79 43 37
3 79  5  6
3 80 38 37
3 80 43 44
3 43 80 37
3 38 80 44
3 81 39 38
3 81 44 45
3 44 81 38
3 39 81 45
3 39 82 40
3 46 82 45
3 82 46 40
3 82 39 45
3 40 83 41
3 47 83 46
3 83 47 41
3 83 40 46
3 42 84 48
3 47 84 41
3 84 47 48
3 84 42 41
CELL_TYPES 144
5 5 5 5 5 5 5 5 5 5 5 5 5 5 5 5 5 5 5 5 5 5 5 5 5 5 5 5 5 5 5 5 5 5 5 5 5 5 5 5 5 5 5 5 5 5 5 5 5 5 5 5 5 5 5 5 5 5 5 5 5 5 5 5 5 5 5 5 5 5 5 5 5 5 5 5 5 5 5 5 5 5 5 5 5 5 5 5 5 5 5 5 5 5 5 5 5 5 5 5 5 5 5 5 5 5 5 5 5 5 5 5 5 5 5 5 5 5 5 5 5 5 5 5 5 5 5 5 5 5 5 5 5 5 5 5 5 5 5 5 5 5 5 5 
POINT_DATA 85
SCALARS CONDID_1 FLOAT
LOOKUP_TABLE default
 1 
 0 
 0 
 0 
 0 
 0 
 0 
 0 
 0 
 0 
 0 
 0 
 0 
 0 
 0 
 0 
 0 
 0 
 0 
 0 
 0 
 0 
 0 
 0 
 0 
 0 
 0 
 0 
 0 
 0 
 0 
 0 
 0 
 0 
 0 
 0 
 0 
 0 
 0 
 0 
 0 
 0 
 0 
 0 
 0 
 0 
 0 
 0 
 0 
 0 
 0 
 0 
 0 
 0 
 0 
 0 
 0 
 0 
 0 
 0 
 0 
 0 
 0 
 0 
 0 
 0 
 0 
 0 
 0 
 0 
 0 
 0 
 0 
 0 
 0 
 0 
 0 
 0 
 0 
 0 
 0 
 0 
 0 
 0 
 0 
SCALARS CONDID_2 FLOAT
LOOKUP_TABLE default
 1 
 0 
 0 
 0 
 0 
 0 
 0 
 1 
 0 
 1 
 0 
 1 
 0 
 1 
 0 
 1 
 0 
 1 
 0 
 0 
 0 
 0 
 0 
 0 
 0 
 0 
 0 
 0 
 0 
 0 
 0 
 0 
 0 
 0 
 0 
 0 
 0 
 0 
 0 
 0 
 0 
 0 
 0 
 0 
 0 
 0 
 0 
 0 
 0 
 0 
 0 
 0 
 0 
 0 
 0 
 0 
 0 
 0 
 0 
 0 
 0 
 0 
 0 
 0 
 0 
 0 
 0 
 0 
 0 
 0 
 0 
 0 
 0 
 0 
 0 
 0 
 0 
 0 
 0 
 0 
 0 
 0 
 0 
 0 
 0 
SCALARS CONDID_3 FLOAT
LOOKUP_TABLE default
 1 
 1 
 1 
 1 
 1 
 1 
 1 
 1 
 1 
 1 
 1 
 1 
 1 
 1 
 1 
 1 
 1 
 1 
 1 
 1 
 1 
 1 
 1 
 1 
 1 
 1 
 1 
 1 
 1 
 1 
 1 
 1 
 1 
 1 
 1 
 1 
 1 
 1 
 1 
 1 
 1 
 1 
 1 
 1 
 1 
 1 
 1 
 1 
 1 
 1 
 1 
 1 
 1 
 1 
 1 
 1 
 1 
 1 
 1 
 1 
 1 
 1 
 1 
 1 
 1 
 1 
 1 
 1 
 1 
 1 
 1 
 1 
 1 
 1 
 1 
 1 
 1 
 1 
 1 
 1 
 1 
 1 
 1 
 1 
 1 
VECTORS displacement FLOAT
 0  0  0 
 8.364474e-06  -2.996455e-04  0 
 -3.237416e-03  -1.945789e-03  0 
 -3.138644e-03  -3.876014e-03  0 
 -3.608660e-03  -4.625844e-03  0 
 -3.616279e-03  -6.388982e-03  0 
 -4.226464e-03  -9.998499e-03  0 
 0  0  0 
 -4.738184e-04  -5.009746e-04  0 
 0  0  0 
 -2.908167e-04  -6.204162e-04  0 
 0  0  0 
 1.463849e-04  -7.224177e-04  0 
 0  0  0 
 1.600866e-04  -7.446180e-04  0 
 0  0  0 
 6.425085e-04  -9.565760e-04  0 
 0  0  0 
 2.855044e-03  -1.343516e-03  0 
 -9.598238e-04  -1.622219e-03  0 
 -3.218802e-04  -1.574083e-03  0 
 2.230989e-05  -1.659231e-03  0 
 7.391641e-04  -1.994936e-03  0 
 1.358767e-03  -2.827137e-03  0 
 2.684312e-03  -3.067496e-03  0 
 -1.450182e-03  -3.729064e-03  0 
 -7.452920e-04  -3.112028e-03  0 
 3.298572e-04  -3.063233e-03  0 
 9.808636e-04  -3.403137e-03  0 
 1.798102e-03  -3.428130e-03  0 
 3.570773e-03  -3.620741e-03  0 
 -1.767111e-03  -4.489385e-03  0 
 -8.069244e-04  -4.551504e-03  0 
 2.729430e-04  -4.511311e-03  0 
 1.257429e-03  -4.606014e-03  0 
 2.093243e-03  -5.063907e-03  0 
 3.529837e-03  -5.205063e-03  0 
 -1.875440e-03  -6.334685e-03  0 
 -9.659029e-04  -6.055595e-03  0 
 3.736042e-04  -5.952907e-03  0 
 1.244643e-03  -5.987441e-03  0 
 2.310771e-03  -5.966151e-03  0 
 4.944276e-03  -6.116602e-03  0 
 -1.993520e-03  -7.211746e-03  0 
 -9.523103e-04  -7.253027e-03  0 
 3.172975e-04  -6.965301e-03  0 
 1.313497e-03  -6.960550e-03  0 
 2.326721e-03  -8.727208e-03  0 
 4.983720e-03  -8.698355e-03  0 
 -1.443258e-04  -3.241674e-04  0 
 -2.077479e-04  -5.812639e-04  0 
 -5.027480e-05  -2.298747e-04  0 
 7.353451e-05  -7.100002e-04  0 
 1.712101e-04  -3.081597e-04  0 
 8.206465e-04  -3.685556e-04  0 
 -1.092771e-03  -7.488798e-04  0 
 -4.883101e-04  -9.691542e-04  0 
 -1.086598e-04  -1.513956e-03  0 
 2.234440e-04  -1.107979e-03  0 
 6.389866e-04  -1.943188e-03  0 
 1.905516e-03  -2.273895e-03  0 
 -2.221047e-03  -2.944020e-03  0 
 -7.902806e-04  -2.839278e-03  0 
 -1.601480e-04  -2.172870e-03  0 
 5.174656e-04  -2.893263e-03  0 
 1.331336e-03  -2.867392e-03  0 
 2.359620e-03  -3.470761e-03  0 
 -2.492606e-03  -4.488472e-03  0 
 -1.286705e-03  -3.910137e-03  0 
 -2.385487e-04  -4.155006e-03  0 
 7.443289e-04  -3.816020e-03  0 
 1.472285e-03  -4.467320e-03  0 
 2.755136e-03  -4.416946e-03  0 
 -2.728284e-03  -5.488368e-03  0 
 -1.306454e-03  -5.717121e-03  0 
 -2.728903e-04  -5.206386e-03  0 
 7.955118e-04  -5.639447e-03  0 
 1.793075e-03  -5.351766e-03  0 
 3.218241e-03  -5.635369e-03  0 
 -2.548418e-03  -7.707118e-03  0 
 -1.491289e-03  -6.684312e-03  0 
 -2.811280e-04  -6.920849e-03  0 
 8.177166e-04  -6.438726e-03  0 
 1.550582e-03  -7.270230e-03  0 
 3.666275e-03  -7.374672e-03  0 
CELL_DATA 144
SCALARS MATID_1 FLOAT
LOOKUP_TABLE default
 1 
 1 
 1 
 1 
 0 
 0 
 0 
 0 
 1 
 1 
 1 
 1 
 0 
 0 
 0 
 0 
 1 
 1 
 1 
 1 
 0 
 0 
 0 
 0 
 0 
 0 
 0 
 0 
 1 
 1 
 1 
 1 
 0 
 0 
 0 
 0 
 1 
 1 
 1 
 1 
 0 
 0 
 0 
 0 
 1 
 1 
 1 
 1 
 1 
 1 
 1 
 1 
 0 
 0 
 0 
 0 
 1 
 1 
 1 
 1 
 0 
 0 
 0 
 0 
 1 
 1 
 1 
 1 
 0 
 0 
 0 
 0 
 0 
 0 
 0 
 0 
 1 
 1 
 1 
 1 
 0 
 0 
 0 
 0 
 1 
 1 
 1 
 1 
 0 
 0 
 0 
 0 
 1 
 1 
 1 
 1 
 1 
 1 
 1 
 1 
 0 
 0 
 0 
 0 
 1 
 1 
 1 
 1 
 0 
 0 
 0 
 0 
 1 
 1 
 1 
 1 
 0 
 0 
 0 
 0 
 0 
 0 
 0 
 0 
 1 
 1 
 1 
 1 
 0 
 0 
 0 
 0 
 1 
 1 
 1 
 1 
 0 
 0 
 0 
 0 
 1 
 1 
 1 
 1 
SCALARS MATID_2 FLOAT
LOOKUP_TABLE default
 0 
 0 
 0 
 0 
 1 
 1 
 1 
 1 
 0 
 0 
 0 
 0 
 1 
 1 
 1 
 1 
 0 
 0 
 0 
 0 
 1 
 1 
 1 
 1 
 1 
 1 
 1 
 1 
 0 
 0 
 0 
 0 
 1 
 1 
 1 
 1 
 0 
 0 
 0 
 0 
 1 
 1 
 1 
 1 
 0 
 0 
 0 
 0 
 0 
 0 
 0 
 0 
 1 
 1 
 1 
 1 
 0 
 0 
 0 
 0 
 1 
 1 
 1 
 1 
 0 
 0 
 0 
 0 
 1 
 1 
 1 
 1 
 1 
 1 
 1 
 1 
 0 
 0 
 0 
 0 
 1 
 1 
 1 
 1 
 0 
 0 
 0 
 0 
 1 
 1 
 1 
 1 
 0 
 0 
 0 
 0 
 0 
 0 
 0 
 0 
 1 
 1 
 1 
 1 
 0 
 0 
 0 
 0 
 1 
 1 
 1 
 1 
 0 
 0 
 0 
 0 
 1 
 1 
 1 
 1 
 1 
 1 
 1 
 1 
 0 
 0 
 0 
 0 
 1 
 1 
 1 
 1 
 0 
 0 
 0 
 0 
 1 
 1 
 1 
 1 
 0 
 0 
 0 
 0 
SCALARS SUB_ID FLOAT
LOOKUP_TABLE default
 26 
 26 
 26 
 26 
 25 
 25 
 25 
 25 
 20 
 20 
 20 
 20 
 10 
 10 
 10 
 10 
 5 
 5 
 5 
 5 
 4 
 4 
 4 
 4 
 27 
 27 
 27 
 27 
 24 
 24 
 24 
 24 
 21 
 21 
 21 
 21 
 7 
 9 
 9 
 7 
 7 
 6 
 6 
 7 
 3 
 3 
 3 
 3 
 28 
 28 
 28 
 28 
 23 
 23 
 23 
 23 
 22 
 22 
 22 
 22 
 9 
 8 
 9 
 8 
 6 
 8 
 6 
 8 
 2 
 2 
 2 
 2 
 29 
 29 
 29 
 29 
 30 
 30 
 30 
 30 
 35 
 35 
 35 
 35 
 16 
 16 
 16 
 16 
 13 
 13 
 13 
 13 
 1 
 1 
 1 
 1 
 31 
 31 
 31 
 31 
 32 
 32 
 32 
 32 
 36 
 36 
 36 
 36 
 17 
 17 
 17 
 17 
 14 
 14 
 14 
 14 
 11 
 11 
 11 
 11 
 34 
 34 
 34 
 34 
 33 
 33 
 33 
 33 
 19 
 19 
 19 
 19 
 18 
 18 
 18 
 18 
 15 
 15 
 15 
 15 
 12 
 12 
 12 
 12 
VECTORS SubCenter_Diff FLOAT
 -2.500000e+00  -2.500000e+00  0 
 -2.500000e+00  -2.500000e+00  0 
 -2.500000e+00  -2.500000e+00  0 
 -2.500000e+00  -2.500000e+00  0 
 -2.500000e+00  -1.500000e+00  0 
 -2.500000e+00  -1.500000e+00  0 
 -2.500000e+00  -1.500000e+00  0 
 -2.500000e+00  -1.500000e+00  0 
 -2.500000e+00  -5.000000e-01  0 
 -2.500000e+00  -5.000000e-01  0 
 -2.500000e+00  -5.000000e-01  0 
 -2.500000e+00  -5.000000e-01  0 
 -2.500000e+00  5.000000e-01  0 
 -2.500000e+00  5.000000e-01  0 
 -2.500000e+00  5.000000e-01  0 
 -2.500000e+00  5.000000e-01  0 
 -2.500000e+00  1.500000e+00  0 
 -2.500000e+00  1.500000e+00  0 
 -2.500000e+00  1.500000e+00  0 
 -2.500000e+00  1.500000e+00  0 
 -2.500000e+00  2.500000e+00  0 
 -2.500000e+00  2.500000e+00  0 
 -2.500000e+00  2.500000e+00  0 
 -2.500000e+00  2.500000e+00  0 
 -1.500000e+00  -2.500000e+00  0 
 -1.500000e+00  -2.500000e+00  0 
 -1.500000e+00  -2.500000e+00  0 
 -1.500000e+00  -2.500000e+00  0 
 -1.500000e+00  -1.500000e+00  0 
 -1.500000e+00  -1.500000e+00  0 
 -1.500000e+00  -1.500000e+00  0 
 -1.500000e+00  -1.500000e+00  0 
 -1.500000e+00  -5.000000e-01  0 
 -1.500000e+00  -5.000000e-01  0 
 -1.500000e+00  -5.000000e-01  0 
 -1.500000e+00  -5.000000e-01  0 
 -1.666667e+00  1  0 
 -1  3.333333e-01  0 
 -1  3.333333e-01  0 
 -1.666667e+00  1  0 
 -1.666667e+00  1  0 
 -1  1.666667e+00  0 
 -1  1.666667e+00  0 
 -1.666667e+00  1  0 
 -1.500000e+00  2.500000e+00  0 
 -1.500000e+00  2.500000e+00  0 
 -1.500000e+00  2.500000e+00  0 
 -1.500000e+00  2.500000e+00  0 
 -5.000000e-01  -2.500000e+00  0 
 -5.000000e-01  -2.500000e+00  0 
 -5.000000e-01  -2.500000e+00  0 
 -5.000000e-01  -2.500000e+00  0 
 -5.000000e-01  -1.500000e+00  0 
 -5.000000e-01  -1.500000e+00  0 
 -5.000000e-01  -1.500000e+00  0 
 -5.000000e-01  -1.500000e+00  0 
 -5.000000e-01  -5.000000e-01  0 
 -5.000000e-01  -5.000000e-01  0 
 -5.000000e-01  -5.000000e-01  0 
 -5.000000e-01  -5.000000e-01  0 
 -1  3.333333e-01  0 
 -3.333333e-01  1  0 
 -1  3.333333e-01  0 
 -3.333333e-01  1  0 
 -1  1.666667e+00  0 
 -3.333333e-01  1  0 
 -1  1.666667e+00  0 
 -3.333333e-01  1  0 
 -5.000000e-01  2.500000e+00  0 
 -5.000000e-01  2.500000e+00  0 
 -5.000000e-01  2.500000e+00  0 
 -5.000000e-01  2.500000e+00  0 
 5.000000e-01  -2.500000e+00  0 
 5.000000e-01  -2.500000e+00  0 
 5.000000e-01  -2.500000e+00  0 
 5.000000e-01  -2.500000e+00  0 
 5.000000e-01  -1.500000e+00  0 
 5.000000e-01  -1.500000e+00  0 
 5.000000e-01  -1.500000e+00  0 
 5.000000e-01  -1.500000e+00  0 
 5.000000e-01  -5.000000e-01  0 
 5.000000e-01  -5.000000e-01  0 
 5.000000e-01  -5.000000e-01  0 
 5.000000e-01  -5.000000e-01  0 
 5.000000e-01  5.000000e-01  0 
 5.000000e-01  5.000000e-01  0 
 5.000000e-01  5.000000e-01  0 
 5.000000e-01  5.000000e-01  0 
 5.000000e-01  1.500000e+00  0 
 5.000000e-01  1.500000e+00  0 
 5.000000e-01  1.500000e+00  0 
 5.000000e-01  1.500000e+00  0 
 5.000000e-01  2.500000e+00  0 
 5.000000e-01  2.500000e+00  0 
 5.000000e-01  2.500000e+00  0 
 5.000000e-01  2.500000e+00  0 
 1.500000e+00  -2.500000e+00  0 
 1.500000e+00  -2.500000e+00  0 
 1.500000e+00  -2.500000e+00  0 
 1.500000e+00  -2.500000e+00  0 
 1.500000e+00  -1.500000e+00  0 
 1.500000e+00  -1.500000e+00  0 
 1.500000e+00  -1.500000e+00  0 
 1.500000e+00  -1.500000e+00  0 
 1.500000e+00  -5.000000e-01  0 
 1.500000e+00  -5.000000e-01  0 
 1.500000e+00  -5.000000e-01  0 
 1.500000e+00  -5.000000e-01  0 
 1.500000e+00  5.000000e-01  0 
 1.500000e+00  5.000000e-01  0 
 1.500000e+00  5.000000e-01  0 
 1.500000e+00  5.000000e-01  0 
 1.500000e+00  1.500000e+00  0 
 1.500000e+00  1.500000e+00  0 
 1.500000e+00  1.500000e+00  0 
 1.500000e+00  1.500000e+00  0 
 1.500000e+00  2.500000e+00  0 
 1.500000e+00  2.500000e+00  0 
 1.500000e+00  2.500000e+00  0 
 1.500000e+00  2.500000e+00  0 
 2.500000e+00  -2.500000e+00  0 
 2.500000e+00  -2.500000e+00  0 
 2.500000e+00  -2.500000e+00  0 
 2.500000e+00  -2.500000e+00  0 
 2.500000e+00  -1.500000e+00  0 
 2.500000e+00  -1.500000e+00  0 
 2.500000e+00  -1.500000e+00  0 
 2.500000e+00  -1.500000e+00  0 
 2.500000e+00  -5.000000e-01  0 
 2.500000e+00  -5.000000e-01  0 
 2.500000e+00  -5.000000e-01  0 
 2.500000e+00  -5.000000e-01  0 
 2.500000e+00  5.000000e-01  0 
 2.500000e+00  5.000000e-01  0 
 2.500000e+00  5.000000e-01  0 
 2.500000e+00  5.000000e-01  0 
 2.500000e+00  1.500000e+00  0 
 2.500000e+00  1.500000e+00  0 
 2.500000e+00  1.500000e+00  0 
 2.500000e+00  1.500000e+00  0 
 2.500000e+00  2.500000e+00  0 
 2.500000e+00  2.500000e+00  0 
 2.500000e+00  2.500000e+00  0 
 2.500000e+00  2.500000e+00  0 
