# vtk DataFile Version 3.1
this is an vtk file created by FEMAC
ASCII
DATASET UNSTRUCTURED_GRID
POINTS 12 FLOAT
7.000000 0.000000 0.000000
7.500000 0.000000 0.000000
7.000000 0.200000 0.000000
7.000000 0.400000 0.000000
7.000000 0.600000 0.000000
7.000000 0.800000 0.000000
7.000000 1.000000 0.000000
7.500000 0.200000 0.000000
7.500000 0.400000 0.000000
7.500000 0.600000 0.000000
7.500000 0.800000 0.000000
7.500000 1.000000 0.000000
CELLS 5 25 
4 0 1 7 2
4 2 7 8 3
4 3 8 9 4
4 4  9 10  5
4 5 10 11  6
CELL_TYPES 5
9 9 9 9 9 
POINT_DATA 12
VECTORS displacement_ITER1 FLOAT
 -5.665351e-03  -5.460584e-02  0 
 -5.669478e-03  -6.029824e-02  0 
 -3.388929e-03  -5.460515e-02  0 
 -1.116027e-03  -5.460412e-02  0 
 1.158258e-03  -5.460412e-02  0 
 3.431160e-03  -5.460515e-02  0 
 5.707582e-03  -5.460584e-02  0 
 -3.392437e-03  -6.029841e-02  0 
 -1.118332e-03  -6.030074e-02  0 
 1.160563e-03  -6.030074e-02  0 
 3.434668e-03  -6.029841e-02  0 
 5.711709e-03  -6.029824e-02  0 
VECTORS displacement_ITER2 FLOAT
 -5.328425e-03  -5.274491e-02  0 
 -5.332115e-03  -5.809736e-02  0 
 -3.187049e-03  -5.274463e-02  0 
 -1.050960e-03  -5.274229e-02  0 
 1.086441e-03  -5.274229e-02  0 
 3.222530e-03  -5.274463e-02  0 
 5.363906e-03  -5.274491e-02  0 
 -3.192003e-03  -5.809764e-02  0 
 -1.053213e-03  -5.809700e-02  0 
 1.088694e-03  -5.809700e-02  0 
 3.227484e-03  -5.809764e-02  0 
 5.367596e-03  -5.809736e-02  0 
VECTORS displacement_ITER3 FLOAT
 -5.321574e-03  -5.266652e-02  0 
 -5.325151e-03  -5.800814e-02  0 
 -3.184237e-03  -5.266614e-02  0 
 -1.053728e-03  -5.266727e-02  0 
 1.078016e-03  -5.266727e-02  0 
 3.208525e-03  -5.266614e-02  0 
 5.345863e-03  -5.266652e-02  0 
 -3.189651e-03  -5.800826e-02  0 
 -1.055896e-03  -5.800760e-02  0 
 1.080184e-03  -5.800760e-02  0 
 3.213939e-03  -5.800826e-02  0 
 5.349439e-03  -5.800814e-02  0 
VECTORS displacement_ITER4 FLOAT
 -5.320473e-03  -5.265577e-02  0 
 -5.324075e-03  -5.799603e-02  0 
 -3.183680e-03  -5.265541e-02  0 
 -1.053828e-03  -5.265639e-02  0 
 1.077507e-03  -5.265639e-02  0 
 3.207359e-03  -5.265541e-02  0 
 5.344151e-03  -5.265577e-02  0 
 -3.189123e-03  -5.799613e-02  0 
 -1.055905e-03  -5.799547e-02  0 
 1.079583e-03  -5.799547e-02  0 
 3.212801e-03  -5.799613e-02  0 
 5.347753e-03  -5.799603e-02  0 
VECTORS displacement_ITER5 FLOAT
 -5.321387e-03  -5.265641e-02  0 
 -5.324989e-03  -5.799696e-02  0 
 -3.184478e-03  -5.265605e-02  0 
 -1.054511e-03  -5.265703e-02  0 
 1.076941e-03  -5.265703e-02  0 
 3.206909e-03  -5.265605e-02  0 
 5.343818e-03  -5.265641e-02  0 
 -3.189921e-03  -5.799706e-02  0 
 -1.056587e-03  -5.799640e-02  0 
 1.079017e-03  -5.799640e-02  0 
 3.212351e-03  -5.799706e-02  0 
 5.347419e-03  -5.799696e-02  0 
VECTORS displacement_ITER6 FLOAT
 -5.321710e-03  -5.265657e-02  0 
 -5.325311e-03  -5.799715e-02  0 
 -3.184790e-03  -5.265621e-02  0 
 -1.054811e-03  -5.265720e-02  0 
 1.076651e-03  -5.265720e-02  0 
 3.206629e-03  -5.265621e-02  0 
 5.343549e-03  -5.265657e-02  0 
 -3.190233e-03  -5.799725e-02  0 
 -1.056888e-03  -5.799659e-02  0 
 1.078727e-03  -5.799659e-02  0 
 3.212072e-03  -5.799725e-02  0 
 5.347151e-03  -5.799715e-02  0 
VECTORS displacement_ITER7 FLOAT
 -5.321618e-03  -5.265659e-02  0 
 -5.325220e-03  -5.799717e-02  0 
 -3.184697e-03  -5.265623e-02  0 
 -1.054717e-03  -5.265721e-02  0 
 1.076747e-03  -5.265721e-02  0 
 3.206727e-03  -5.265623e-02  0 
 5.343648e-03  -5.265659e-02  0 
 -3.190140e-03  -5.799727e-02  0 
 -1.056793e-03  -5.799661e-02  0 
 1.078823e-03  -5.799661e-02  0 
 3.212170e-03  -5.799727e-02  0 
 5.347250e-03  -5.799717e-02  0 
VECTORS displacement_ITER8 FLOAT
 -5.321641e-03  -5.265659e-02  0 
 -5.325243e-03  -5.799717e-02  0 
 -3.184720e-03  -5.265623e-02  0 
 -1.054740e-03  -5.265721e-02  0 
 1.076724e-03  -5.265721e-02  0 
 3.206704e-03  -5.265623e-02  0 
 5.343625e-03  -5.265659e-02  0 
 -3.190162e-03  -5.799726e-02  0 
 -1.056816e-03  -5.799660e-02  0 
 1.078800e-03  -5.799660e-02  0 
 3.212146e-03  -5.799726e-02  0 
 5.347226e-03  -5.799717e-02  0 
VECTORS displacement_ITER9 FLOAT
 -5.321641e-03  -5.265659e-02  0 
 -5.325242e-03  -5.799717e-02  0 
 -3.184719e-03  -5.265623e-02  0 
 -1.054739e-03  -5.265721e-02  0 
 1.076724e-03  -5.265721e-02  0 
 3.206704e-03  -5.265623e-02  0 
 5.343625e-03  -5.265659e-02  0 
 -3.190162e-03  -5.799726e-02  0 
 -1.056816e-03  -5.799660e-02  0 
 1.078800e-03  -5.799660e-02  0 
 3.212146e-03  -5.799726e-02  0 
 5.347227e-03  -5.799717e-02  0 
VECTORS displacement_ITER10 FLOAT
 -8.798933e-01  1.051957e+00  0 
 -8.817304e-01  4.831715e-01  0 
 -6.245414e-01  1.044462e+00  0 
 -4.411161e-01  1.004366e+00  0 
 -3.233651e-01  1.006114e+00  0 
 -1.344959e-01  1.046438e+00  0 
 1.190861e-01  1.055542e+00  0 
 -6.871301e-01  4.782201e-01  0 
 -5.268398e-01  4.860133e-01  0 
 -2.327086e-01  4.841198e-01  0 
 -7.111779e-02  4.782376e-01  0 
 1.298777e-01  4.801266e-01  0 
VECTORS displacement_ITER11 FLOAT
 -1.842440e+13  4.444445e+13  0 
 -2.043109e+13  4.508028e+13  0 
 -8.703456e+12  4.677803e+13  0 
 -3.276786e+13  1.122668e+14  0 
 1.182247e+13  1.135197e+14  0 
 6.102790e+12  5.926386e+13  0 
 2.275790e+13  5.724975e+13  0 
 -2.868363e+13  4.176755e+13  0 
 -2.118591e+13  2.718760e+13  0 
 9.964689e+12  2.596818e+13  0 
 2.580182e+13  3.190017e+13  0 
 2.887373e+13  3.448455e+13  0 
VECTORS displacement_ITER12 FLOAT
 8.876317e+28  3.415779e+29  0 
 9.117950e+28  3.809641e+29  0 
 7.206700e+28  3.446571e+29  0 
 4.814525e+28  3.284587e+29  0 
 1.538640e+28  3.278484e+29  0 
 -1.906646e+28  3.232497e+29  0 
 -5.631375e+28  3.198869e+29  0 
 7.547498e+28  3.800101e+29  0 
 4.779628e+28  4.072719e+29  0 
 1.822910e+28  4.089253e+29  0 
 -2.542926e+28  4.075662e+29  0 
 -6.044929e+28  4.090819e+29  0 
VECTORS displacement_ITER13 FLOAT
 6.104333e+42  1.587694e+44  0 
 -1.153526e+41  1.116393e+44  0 
 2.336476e+43  1.583522e+44  0 
 3.078507e+43  1.241183e+44  0 
 1.760562e+43  1.195310e+44  0 
 -2.117637e+43  1.291241e+44  0 
 -2.260930e+43  1.294481e+44  0 
 1.845953e+43  1.120151e+44  0 
 2.474692e+43  1.618400e+44  0 
 4.226920e+42  1.655414e+44  0 
 -1.655452e+43  1.357123e+44  0 
 -2.145725e+43  1.360495e+44  0 
VECTORS displacement_ITER14 FLOAT
 -7.406261e+58  -8.383397e+58  0 
 -5.973392e+58  -2.391628e+59  0 
 -3.307135e+58  -9.478812e+58  0 
 -2.150947e+58  -8.110640e+58  0 
 2.703147e+58  -9.035709e+58  0 
 -1.193397e+58  -9.930930e+58  0 
 -3.390517e+58  -9.301557e+58  0 
 1.604891e+58  -2.268218e+59  0 
 -2.811207e+58  -2.522327e+59  0 
 5.095606e+58  -2.450800e+59  0 
 -7.166897e+58  -8.608907e+58  0 
 -5.575150e+58  -9.657211e+58  0 
VECTORS displacement_ITER15 FLOAT
 -1.159114e+74  -6.216544e+74  0 
 -1.015029e+74  -2.768254e+74  0 
 -2.566907e+74  -6.123957e+74  0 
 -2.359766e+74  -4.928651e+74  0 
 -1.474961e+74  -5.080473e+74  0 
 -6.589596e+73  -5.760249e+74  0 
 -2.494347e+73  -6.033885e+74  0 
 -2.505880e+74  -2.811436e+74  0 
 -2.068793e+74  -7.128726e+74  0 
 -1.485532e+74  -7.075343e+74  0 
 6.679653e+73  -6.559279e+74  0 
 5.717409e+73  -6.384895e+74  0 
VECTORS displacement_ITER16 FLOAT
 -2.018542e+89  -1.653263e+90  0 
 2.432681e+89  -6.496715e+89  0 
 -6.842007e+89  -1.694438e+90  0 
 -9.739673e+89  -1.347843e+90  0 
 -1.090084e+90  -1.249080e+90  0 
 -1.038484e+90  -6.157530e+89  0 
 1.608499e+89  -5.898594e+89  0 
 -1.198407e+89  -6.935831e+89  0 
 -1.141444e+90  -9.578289e+89  0 
 -1.426067e+90  -1.183361e+90  0 
 -7.329582e+89  -3.118954e+90  0 
 1.258714e+89  -3.161262e+90  0 
VECTORS displacement_ITER17 FLOAT
 -2.018542e+89  -1.653263e+90  0 
 2.432681e+89  -6.496715e+89  0 
 -6.842007e+89  -1.694438e+90  0 
 -9.739673e+89  -1.347843e+90  0 
 -1.090084e+90  -1.249080e+90  0 
 -1.038484e+90  -6.157530e+89  0 
 1.608499e+89  -5.898594e+89  0 
 -1.198407e+89  -6.935831e+89  0 
 -1.141444e+90  -9.578289e+89  0 
 -1.426067e+90  -1.183361e+90  0 
 -7.329582e+89  -3.118954e+90  0 
 1.258714e+89  -3.161262e+90  0 
VECTORS displacement_ITER18 FLOAT
 -2.018542e+89  -1.653263e+90  0 
 2.432681e+89  -6.496715e+89  0 
 -6.842007e+89  -1.694438e+90  0 
 -9.739673e+89  -1.347843e+90  0 
 -1.090084e+90  -1.249080e+90  0 
 -1.038484e+90  -6.157530e+89  0 
 1.608499e+89  -5.898594e+89  0 
 -1.198407e+89  -6.935831e+89  0 
 -1.141444e+90  -9.578289e+89  0 
 -1.426067e+90  -1.183361e+90  0 
 -7.329582e+89  -3.118954e+90  0 
 1.258714e+89  -3.161262e+90  0 
VECTORS displacement_ITER19 FLOAT
 -2.018542e+89  -1.653263e+90  0 
 2.432681e+89  -6.496715e+89  0 
 -6.842007e+89  -1.694438e+90  0 
 -9.739673e+89  -1.347843e+90  0 
 -1.090084e+90  -1.249080e+90  0 
 -1.038484e+90  -6.157530e+89  0 
 1.608499e+89  -5.898594e+89  0 
 -1.198407e+89  -6.935831e+89  0 
 -1.141444e+90  -9.578289e+89  0 
 -1.426067e+90  -1.183361e+90  0 
 -7.329582e+89  -3.118954e+90  0 
 1.258714e+89  -3.161262e+90  0 
VECTORS displacement_ITER20 FLOAT
 -2.018542e+89  -1.653263e+90  0 
 2.432681e+89  -6.496715e+89  0 
 -6.842007e+89  -1.694438e+90  0 
 -9.739673e+89  -1.347843e+90  0 
 -1.090084e+90  -1.249080e+90  0 
 -1.038484e+90  -6.157530e+89  0 
 1.608499e+89  -5.898594e+89  0 
 -1.198407e+89  -6.935831e+89  0 
 -1.141444e+90  -9.578289e+89  0 
 -1.426067e+90  -1.183361e+90  0 
 -7.329582e+89  -3.118954e+90  0 
 1.258714e+89  -3.161262e+90  0 
VECTORS displacement_ITER21 FLOAT
 -2.018542e+89  -1.653263e+90  0 
 2.432681e+89  -6.496715e+89  0 
 -6.842007e+89  -1.694438e+90  0 
 -9.739673e+89  -1.347843e+90  0 
 -1.090084e+90  -1.249080e+90  0 
 -1.038484e+90  -6.157530e+89  0 
 1.608499e+89  -5.898594e+89  0 
 -1.198407e+89  -6.935831e+89  0 
 -1.141444e+90  -9.578289e+89  0 
 -1.426067e+90  -1.183361e+90  0 
 -7.329582e+89  -3.118954e+90  0 
 1.258714e+89  -3.161262e+90  0 
VECTORS displacement_ITER22 FLOAT
 -2.018542e+89  -1.653263e+90  0 
 2.432681e+89  -6.496715e+89  0 
 -6.842007e+89  -1.694438e+90  0 
 -9.739673e+89  -1.347843e+90  0 
 -1.090084e+90  -1.249080e+90  0 
 -1.038484e+90  -6.157530e+89  0 
 1.608499e+89  -5.898594e+89  0 
 -1.198407e+89  -6.935831e+89  0 
 -1.141444e+90  -9.578289e+89  0 
 -1.426067e+90  -1.183361e+90  0 
 -7.329582e+89  -3.118954e+90  0 
 1.258714e+89  -3.161262e+90  0 
VECTORS displacement_ITER23 FLOAT
 -2.018542e+89  -1.653263e+90  0 
 2.432681e+89  -6.496715e+89  0 
 -6.842007e+89  -1.694438e+90  0 
 -9.739673e+89  -1.347843e+90  0 
 -1.090084e+90  -1.249080e+90  0 
 -1.038484e+90  -6.157530e+89  0 
 1.608499e+89  -5.898594e+89  0 
 -1.198407e+89  -6.935831e+89  0 
 -1.141444e+90  -9.578289e+89  0 
 -1.426067e+90  -1.183361e+90  0 
 -7.329582e+89  -3.118954e+90  0 
 1.258714e+89  -3.161262e+90  0 
VECTORS displacement_ITER24 FLOAT
 -2.018542e+89  -1.653263e+90  0 
 2.432681e+89  -6.496715e+89  0 
 -6.842007e+89  -1.694438e+90  0 
 -9.739673e+89  -1.347843e+90  0 
 -1.090084e+90  -1.249080e+90  0 
 -1.038484e+90  -6.157530e+89  0 
 1.608499e+89  -5.898594e+89  0 
 -1.198407e+89  -6.935831e+89  0 
 -1.141444e+90  -9.578289e+89  0 
 -1.426067e+90  -1.183361e+90  0 
 -7.329582e+89  -3.118954e+90  0 
 1.258714e+89  -3.161262e+90  0 
VECTORS displacement_ITER25 FLOAT
 -2.018542e+89  -1.653263e+90  0 
 2.432681e+89  -6.496715e+89  0 
 -6.842007e+89  -1.694438e+90  0 
 -9.739673e+89  -1.347843e+90  0 
 -1.090084e+90  -1.249080e+90  0 
 -1.038484e+90  -6.157530e+89  0 
 1.608499e+89  -5.898594e+89  0 
 -1.198407e+89  -6.935831e+89  0 
 -1.141444e+90  -9.578289e+89  0 
 -1.426067e+90  -1.183361e+90  0 
 -7.329582e+89  -3.118954e+90  0 
 1.258714e+89  -3.161262e+90  0 
VECTORS displacement_ITER26 FLOAT
 -2.018542e+89  -1.653263e+90  0 
 2.432681e+89  -6.496715e+89  0 
 -6.842007e+89  -1.694438e+90  0 
 -9.739673e+89  -1.347843e+90  0 
 -1.090084e+90  -1.249080e+90  0 
 -1.038484e+90  -6.157530e+89  0 
 1.608499e+89  -5.898594e+89  0 
 -1.198407e+89  -6.935831e+89  0 
 -1.141444e+90  -9.578289e+89  0 
 -1.426067e+90  -1.183361e+90  0 
 -7.329582e+89  -3.118954e+90  0 
 1.258714e+89  -3.161262e+90  0 
VECTORS displacement_ITER27 FLOAT
 -2.018542e+89  -1.653263e+90  0 
 2.432681e+89  -6.496715e+89  0 
 -6.842007e+89  -1.694438e+90  0 
 -9.739673e+89  -1.347843e+90  0 
 -1.090084e+90  -1.249080e+90  0 
 -1.038484e+90  -6.157530e+89  0 
 1.608499e+89  -5.898594e+89  0 
 -1.198407e+89  -6.935831e+89  0 
 -1.141444e+90  -9.578289e+89  0 
 -1.426067e+90  -1.183361e+90  0 
 -7.329582e+89  -3.118954e+90  0 
 1.258714e+89  -3.161262e+90  0 
VECTORS displacement_ITER28 FLOAT
 -2.018542e+89  -1.653263e+90  0 
 2.432681e+89  -6.496715e+89  0 
 -6.842007e+89  -1.694438e+90  0 
 -9.739673e+89  -1.347843e+90  0 
 -1.090084e+90  -1.249080e+90  0 
 -1.038484e+90  -6.157530e+89  0 
 1.608499e+89  -5.898594e+89  0 
 -1.198407e+89  -6.935831e+89  0 
 -1.141444e+90  -9.578289e+89  0 
 -1.426067e+90  -1.183361e+90  0 
 -7.329582e+89  -3.118954e+90  0 
 1.258714e+89  -3.161262e+90  0 
VECTORS displacement_ITER29 FLOAT
 -2.018542e+89  -1.653263e+90  0 
 2.432681e+89  -6.496715e+89  0 
 -6.842007e+89  -1.694438e+90  0 
 -9.739673e+89  -1.347843e+90  0 
 -1.090084e+90  -1.249080e+90  0 
 -1.038484e+90  -6.157530e+89  0 
 1.608499e+89  -5.898594e+89  0 
 -1.198407e+89  -6.935831e+89  0 
 -1.141444e+90  -9.578289e+89  0 
 -1.426067e+90  -1.183361e+90  0 
 -7.329582e+89  -3.118954e+90  0 
 1.258714e+89  -3.161262e+90  0 
VECTORS displacement_ITER30 FLOAT
 -2.018542e+89  -1.653263e+90  0 
 2.432681e+89  -6.496715e+89  0 
 -6.842007e+89  -1.694438e+90  0 
 -9.739673e+89  -1.347843e+90  0 
 -1.090084e+90  -1.249080e+90  0 
 -1.038484e+90  -6.157530e+89  0 
 1.608499e+89  -5.898594e+89  0 
 -1.198407e+89  -6.935831e+89  0 
 -1.141444e+90  -9.578289e+89  0 
 -1.426067e+90  -1.183361e+90  0 
 -7.329582e+89  -3.118954e+90  0 
 1.258714e+89  -3.161262e+90  0 
VECTORS displacement_ITER31 FLOAT
 -2.018542e+89  -1.653263e+90  0 
 2.432681e+89  -6.496715e+89  0 
 -6.842007e+89  -1.694438e+90  0 
 -9.739673e+89  -1.347843e+90  0 
 -1.090084e+90  -1.249080e+90  0 
 -1.038484e+90  -6.157530e+89  0 
 1.608499e+89  -5.898594e+89  0 
 -1.198407e+89  -6.935831e+89  0 
 -1.141444e+90  -9.578289e+89  0 
 -1.426067e+90  -1.183361e+90  0 
 -7.329582e+89  -3.118954e+90  0 
 1.258714e+89  -3.161262e+90  0 
VECTORS displacement_ITER32 FLOAT
 -2.018542e+89  -1.653263e+90  0 
 2.432681e+89  -6.496715e+89  0 
 -6.842007e+89  -1.694438e+90  0 
 -9.739673e+89  -1.347843e+90  0 
 -1.090084e+90  -1.249080e+90  0 
 -1.038484e+90  -6.157530e+89  0 
 1.608499e+89  -5.898594e+89  0 
 -1.198407e+89  -6.935831e+89  0 
 -1.141444e+90  -9.578289e+89  0 
 -1.426067e+90  -1.183361e+90  0 
 -7.329582e+89  -3.118954e+90  0 
 1.258714e+89  -3.161262e+90  0 
VECTORS displacement_ITER33 FLOAT
 -2.018542e+89  -1.653263e+90  0 
 2.432681e+89  -6.496715e+89  0 
 -6.842007e+89  -1.694438e+90  0 
 -9.739673e+89  -1.347843e+90  0 
 -1.090084e+90  -1.249080e+90  0 
 -1.038484e+90  -6.157530e+89  0 
 1.608499e+89  -5.898594e+89  0 
 -1.198407e+89  -6.935831e+89  0 
 -1.141444e+90  -9.578289e+89  0 
 -1.426067e+90  -1.183361e+90  0 
 -7.329582e+89  -3.118954e+90  0 
 1.258714e+89  -3.161262e+90  0 
VECTORS displacement_ITER34 FLOAT
 -2.018542e+89  -1.653263e+90  0 
 2.432681e+89  -6.496715e+89  0 
 -6.842007e+89  -1.694438e+90  0 
 -9.739673e+89  -1.347843e+90  0 
 -1.090084e+90  -1.249080e+90  0 
 -1.038484e+90  -6.157530e+89  0 
 1.608499e+89  -5.898594e+89  0 
 -1.198407e+89  -6.935831e+89  0 
 -1.141444e+90  -9.578289e+89  0 
 -1.426067e+90  -1.183361e+90  0 
 -7.329582e+89  -3.118954e+90  0 
 1.258714e+89  -3.161262e+90  0 
VECTORS displacement_ITER35 FLOAT
 -2.018542e+89  -1.653263e+90  0 
 2.432681e+89  -6.496715e+89  0 
 -6.842007e+89  -1.694438e+90  0 
 -9.739673e+89  -1.347843e+90  0 
 -1.090084e+90  -1.249080e+90  0 
 -1.038484e+90  -6.157530e+89  0 
 1.608499e+89  -5.898594e+89  0 
 -1.198407e+89  -6.935831e+89  0 
 -1.141444e+90  -9.578289e+89  0 
 -1.426067e+90  -1.183361e+90  0 
 -7.329582e+89  -3.118954e+90  0 
 1.258714e+89  -3.161262e+90  0 
VECTORS displacement_ITER36 FLOAT
 -2.018542e+89  -1.653263e+90  0 
 2.432681e+89  -6.496715e+89  0 
 -6.842007e+89  -1.694438e+90  0 
 -9.739673e+89  -1.347843e+90  0 
 -1.090084e+90  -1.249080e+90  0 
 -1.038484e+90  -6.157530e+89  0 
 1.608499e+89  -5.898594e+89  0 
 -1.198407e+89  -6.935831e+89  0 
 -1.141444e+90  -9.578289e+89  0 
 -1.426067e+90  -1.183361e+90  0 
 -7.329582e+89  -3.118954e+90  0 
 1.258714e+89  -3.161262e+90  0 
VECTORS displacement_ITER37 FLOAT
 -2.018542e+89  -1.653263e+90  0 
 2.432681e+89  -6.496715e+89  0 
 -6.842007e+89  -1.694438e+90  0 
 -9.739673e+89  -1.347843e+90  0 
 -1.090084e+90  -1.249080e+90  0 
 -1.038484e+90  -6.157530e+89  0 
 1.608499e+89  -5.898594e+89  0 
 -1.198407e+89  -6.935831e+89  0 
 -1.141444e+90  -9.578289e+89  0 
 -1.426067e+90  -1.183361e+90  0 
 -7.329582e+89  -3.118954e+90  0 
 1.258714e+89  -3.161262e+90  0 
VECTORS displacement_ITER38 FLOAT
 -2.018542e+89  -1.653263e+90  0 
 2.432681e+89  -6.496715e+89  0 
 -6.842007e+89  -1.694438e+90  0 
 -9.739673e+89  -1.347843e+90  0 
 -1.090084e+90  -1.249080e+90  0 
 -1.038484e+90  -6.157530e+89  0 
 1.608499e+89  -5.898594e+89  0 
 -1.198407e+89  -6.935831e+89  0 
 -1.141444e+90  -9.578289e+89  0 
 -1.426067e+90  -1.183361e+90  0 
 -7.329582e+89  -3.118954e+90  0 
 1.258714e+89  -3.161262e+90  0 
VECTORS displacement_ITER39 FLOAT
 -2.018542e+89  -1.653263e+90  0 
 2.432681e+89  -6.496715e+89  0 
 -6.842007e+89  -1.694438e+90  0 
 -9.739673e+89  -1.347843e+90  0 
 -1.090084e+90  -1.249080e+90  0 
 -1.038484e+90  -6.157530e+89  0 
 1.608499e+89  -5.898594e+89  0 
 -1.198407e+89  -6.935831e+89  0 
 -1.141444e+90  -9.578289e+89  0 
 -1.426067e+90  -1.183361e+90  0 
 -7.329582e+89  -3.118954e+90  0 
 1.258714e+89  -3.161262e+90  0 
VECTORS displacement_ITER40 FLOAT
 -2.018542e+89  -1.653263e+90  0 
 2.432681e+89  -6.496715e+89  0 
 -6.842007e+89  -1.694438e+90  0 
 -9.739673e+89  -1.347843e+90  0 
 -1.090084e+90  -1.249080e+90  0 
 -1.038484e+90  -6.157530e+89  0 
 1.608499e+89  -5.898594e+89  0 
 -1.198407e+89  -6.935831e+89  0 
 -1.141444e+90  -9.578289e+89  0 
 -1.426067e+90  -1.183361e+90  0 
 -7.329582e+89  -3.118954e+90  0 
 1.258714e+89  -3.161262e+90  0 
VECTORS displacement_ITER41 FLOAT
 -2.018542e+89  -1.653263e+90  0 
 2.432681e+89  -6.496715e+89  0 
 -6.842007e+89  -1.694438e+90  0 
 -9.739673e+89  -1.347843e+90  0 
 -1.090084e+90  -1.249080e+90  0 
 -1.038484e+90  -6.157530e+89  0 
 1.608499e+89  -5.898594e+89  0 
 -1.198407e+89  -6.935831e+89  0 
 -1.141444e+90  -9.578289e+89  0 
 -1.426067e+90  -1.183361e+90  0 
 -7.329582e+89  -3.118954e+90  0 
 1.258714e+89  -3.161262e+90  0 
VECTORS displacement_ITER42 FLOAT
 -2.018542e+89  -1.653263e+90  0 
 2.432681e+89  -6.496715e+89  0 
 -6.842007e+89  -1.694438e+90  0 
 -9.739673e+89  -1.347843e+90  0 
 -1.090084e+90  -1.249080e+90  0 
 -1.038484e+90  -6.157530e+89  0 
 1.608499e+89  -5.898594e+89  0 
 -1.198407e+89  -6.935831e+89  0 
 -1.141444e+90  -9.578289e+89  0 
 -1.426067e+90  -1.183361e+90  0 
 -7.329582e+89  -3.118954e+90  0 
 1.258714e+89  -3.161262e+90  0 
VECTORS displacement_ITER43 FLOAT
 -2.018542e+89  -1.653263e+90  0 
 2.432681e+89  -6.496715e+89  0 
 -6.842007e+89  -1.694438e+90  0 
 -9.739673e+89  -1.347843e+90  0 
 -1.090084e+90  -1.249080e+90  0 
 -1.038484e+90  -6.157530e+89  0 
 1.608499e+89  -5.898594e+89  0 
 -1.198407e+89  -6.935831e+89  0 
 -1.141444e+90  -9.578289e+89  0 
 -1.426067e+90  -1.183361e+90  0 
 -7.329582e+89  -3.118954e+90  0 
 1.258714e+89  -3.161262e+90  0 
VECTORS displacement_ITER44 FLOAT
 -2.018542e+89  -1.653263e+90  0 
 2.432681e+89  -6.496715e+89  0 
 -6.842007e+89  -1.694438e+90  0 
 -9.739673e+89  -1.347843e+90  0 
 -1.090084e+90  -1.249080e+90  0 
 -1.038484e+90  -6.157530e+89  0 
 1.608499e+89  -5.898594e+89  0 
 -1.198407e+89  -6.935831e+89  0 
 -1.141444e+90  -9.578289e+89  0 
 -1.426067e+90  -1.183361e+90  0 
 -7.329582e+89  -3.118954e+90  0 
 1.258714e+89  -3.161262e+90  0 
VECTORS displacement_ITER45 FLOAT
 -2.018542e+89  -1.653263e+90  0 
 2.432681e+89  -6.496715e+89  0 
 -6.842007e+89  -1.694438e+90  0 
 -9.739673e+89  -1.347843e+90  0 
 -1.090084e+90  -1.249080e+90  0 
 -1.038484e+90  -6.157530e+89  0 
 1.608499e+89  -5.898594e+89  0 
 -1.198407e+89  -6.935831e+89  0 
 -1.141444e+90  -9.578289e+89  0 
 -1.426067e+90  -1.183361e+90  0 
 -7.329582e+89  -3.118954e+90  0 
 1.258714e+89  -3.161262e+90  0 
VECTORS displacement_ITER46 FLOAT
 -2.018542e+89  -1.653263e+90  0 
 2.432681e+89  -6.496715e+89  0 
 -6.842007e+89  -1.694438e+90  0 
 -9.739673e+89  -1.347843e+90  0 
 -1.090084e+90  -1.249080e+90  0 
 -1.038484e+90  -6.157530e+89  0 
 1.608499e+89  -5.898594e+89  0 
 -1.198407e+89  -6.935831e+89  0 
 -1.141444e+90  -9.578289e+89  0 
 -1.426067e+90  -1.183361e+90  0 
 -7.329582e+89  -3.118954e+90  0 
 1.258714e+89  -3.161262e+90  0 
VECTORS displacement_ITER47 FLOAT
 -2.018542e+89  -1.653263e+90  0 
 2.432681e+89  -6.496715e+89  0 
 -6.842007e+89  -1.694438e+90  0 
 -9.739673e+89  -1.347843e+90  0 
 -1.090084e+90  -1.249080e+90  0 
 -1.038484e+90  -6.157530e+89  0 
 1.608499e+89  -5.898594e+89  0 
 -1.198407e+89  -6.935831e+89  0 
 -1.141444e+90  -9.578289e+89  0 
 -1.426067e+90  -1.183361e+90  0 
 -7.329582e+89  -3.118954e+90  0 
 1.258714e+89  -3.161262e+90  0 
VECTORS displacement_ITER48 FLOAT
 -2.018542e+89  -1.653263e+90  0 
 2.432681e+89  -6.496715e+89  0 
 -6.842007e+89  -1.694438e+90  0 
 -9.739673e+89  -1.347843e+90  0 
 -1.090084e+90  -1.249080e+90  0 
 -1.038484e+90  -6.157530e+89  0 
 1.608499e+89  -5.898594e+89  0 
 -1.198407e+89  -6.935831e+89  0 
 -1.141444e+90  -9.578289e+89  0 
 -1.426067e+90  -1.183361e+90  0 
 -7.329582e+89  -3.118954e+90  0 
 1.258714e+89  -3.161262e+90  0 
VECTORS displacement_ITER49 FLOAT
 -2.018542e+89  -1.653263e+90  0 
 2.432681e+89  -6.496715e+89  0 
 -6.842007e+89  -1.694438e+90  0 
 -9.739673e+89  -1.347843e+90  0 
 -1.090084e+90  -1.249080e+90  0 
 -1.038484e+90  -6.157530e+89  0 
 1.608499e+89  -5.898594e+89  0 
 -1.198407e+89  -6.935831e+89  0 
 -1.141444e+90  -9.578289e+89  0 
 -1.426067e+90  -1.183361e+90  0 
 -7.329582e+89  -3.118954e+90  0 
 1.258714e+89  -3.161262e+90  0 
VECTORS displacement_ITER50 FLOAT
 -2.018542e+89  -1.653263e+90  0 
 2.432681e+89  -6.496715e+89  0 
 -6.842007e+89  -1.694438e+90  0 
 -9.739673e+89  -1.347843e+90  0 
 -1.090084e+90  -1.249080e+90  0 
 -1.038484e+90  -6.157530e+89  0 
 1.608499e+89  -5.898594e+89  0 
 -1.198407e+89  -6.935831e+89  0 
 -1.141444e+90  -9.578289e+89  0 
 -1.426067e+90  -1.183361e+90  0 
 -7.329582e+89  -3.118954e+90  0 
 1.258714e+89  -3.161262e+90  0 
VECTORS displacement_ITER51 FLOAT
 -2.018542e+89  -1.653263e+90  0 
 2.432681e+89  -6.496715e+89  0 
 -6.842007e+89  -1.694438e+90  0 
 -9.739673e+89  -1.347843e+90  0 
 -1.090084e+90  -1.249080e+90  0 
 -1.038484e+90  -6.157530e+89  0 
 1.608499e+89  -5.898594e+89  0 
 -1.198407e+89  -6.935831e+89  0 
 -1.141444e+90  -9.578289e+89  0 
 -1.426067e+90  -1.183361e+90  0 
 -7.329582e+89  -3.118954e+90  0 
 1.258714e+89  -3.161262e+90  0 
VECTORS displacement_ITER52 FLOAT
 -2.018542e+89  -1.653263e+90  0 
 2.432681e+89  -6.496715e+89  0 
 -6.842007e+89  -1.694438e+90  0 
 -9.739673e+89  -1.347843e+90  0 
 -1.090084e+90  -1.249080e+90  0 
 -1.038484e+90  -6.157530e+89  0 
 1.608499e+89  -5.898594e+89  0 
 -1.198407e+89  -6.935831e+89  0 
 -1.141444e+90  -9.578289e+89  0 
 -1.426067e+90  -1.183361e+90  0 
 -7.329582e+89  -3.118954e+90  0 
 1.258714e+89  -3.161262e+90  0 
VECTORS displacement_ITER53 FLOAT
 -2.018542e+89  -1.653263e+90  0 
 2.432681e+89  -6.496715e+89  0 
 -6.842007e+89  -1.694438e+90  0 
 -9.739673e+89  -1.347843e+90  0 
 -1.090084e+90  -1.249080e+90  0 
 -1.038484e+90  -6.157530e+89  0 
 1.608499e+89  -5.898594e+89  0 
 -1.198407e+89  -6.935831e+89  0 
 -1.141444e+90  -9.578289e+89  0 
 -1.426067e+90  -1.183361e+90  0 
 -7.329582e+89  -3.118954e+90  0 
 1.258714e+89  -3.161262e+90  0 
VECTORS displacement_ITER54 FLOAT
 -2.018542e+89  -1.653263e+90  0 
 2.432681e+89  -6.496715e+89  0 
 -6.842007e+89  -1.694438e+90  0 
 -9.739673e+89  -1.347843e+90  0 
 -1.090084e+90  -1.249080e+90  0 
 -1.038484e+90  -6.157530e+89  0 
 1.608499e+89  -5.898594e+89  0 
 -1.198407e+89  -6.935831e+89  0 
 -1.141444e+90  -9.578289e+89  0 
 -1.426067e+90  -1.183361e+90  0 
 -7.329582e+89  -3.118954e+90  0 
 1.258714e+89  -3.161262e+90  0 
VECTORS displacement_ITER55 FLOAT
 -2.018542e+89  -1.653263e+90  0 
 2.432681e+89  -6.496715e+89  0 
 -6.842007e+89  -1.694438e+90  0 
 -9.739673e+89  -1.347843e+90  0 
 -1.090084e+90  -1.249080e+90  0 
 -1.038484e+90  -6.157530e+89  0 
 1.608499e+89  -5.898594e+89  0 
 -1.198407e+89  -6.935831e+89  0 
 -1.141444e+90  -9.578289e+89  0 
 -1.426067e+90  -1.183361e+90  0 
 -7.329582e+89  -3.118954e+90  0 
 1.258714e+89  -3.161262e+90  0 
VECTORS displacement_ITER56 FLOAT
 -2.018542e+89  -1.653263e+90  0 
 2.432681e+89  -6.496715e+89  0 
 -6.842007e+89  -1.694438e+90  0 
 -9.739673e+89  -1.347843e+90  0 
 -1.090084e+90  -1.249080e+90  0 
 -1.038484e+90  -6.157530e+89  0 
 1.608499e+89  -5.898594e+89  0 
 -1.198407e+89  -6.935831e+89  0 
 -1.141444e+90  -9.578289e+89  0 
 -1.426067e+90  -1.183361e+90  0 
 -7.329582e+89  -3.118954e+90  0 
 1.258714e+89  -3.161262e+90  0 
VECTORS displacement_ITER57 FLOAT
 -2.018542e+89  -1.653263e+90  0 
 2.432681e+89  -6.496715e+89  0 
 -6.842007e+89  -1.694438e+90  0 
 -9.739673e+89  -1.347843e+90  0 
 -1.090084e+90  -1.249080e+90  0 
 -1.038484e+90  -6.157530e+89  0 
 1.608499e+89  -5.898594e+89  0 
 -1.198407e+89  -6.935831e+89  0 
 -1.141444e+90  -9.578289e+89  0 
 -1.426067e+90  -1.183361e+90  0 
 -7.329582e+89  -3.118954e+90  0 
 1.258714e+89  -3.161262e+90  0 
VECTORS displacement_ITER58 FLOAT
 -2.018542e+89  -1.653263e+90  0 
 2.432681e+89  -6.496715e+89  0 
 -6.842007e+89  -1.694438e+90  0 
 -9.739673e+89  -1.347843e+90  0 
 -1.090084e+90  -1.249080e+90  0 
 -1.038484e+90  -6.157530e+89  0 
 1.608499e+89  -5.898594e+89  0 
 -1.198407e+89  -6.935831e+89  0 
 -1.141444e+90  -9.578289e+89  0 
 -1.426067e+90  -1.183361e+90  0 
 -7.329582e+89  -3.118954e+90  0 
 1.258714e+89  -3.161262e+90  0 
VECTORS displacement_ITER59 FLOAT
 -2.018542e+89  -1.653263e+90  0 
 2.432681e+89  -6.496715e+89  0 
 -6.842007e+89  -1.694438e+90  0 
 -9.739673e+89  -1.347843e+90  0 
 -1.090084e+90  -1.249080e+90  0 
 -1.038484e+90  -6.157530e+89  0 
 1.608499e+89  -5.898594e+89  0 
 -1.198407e+89  -6.935831e+89  0 
 -1.141444e+90  -9.578289e+89  0 
 -1.426067e+90  -1.183361e+90  0 
 -7.329582e+89  -3.118954e+90  0 
 1.258714e+89  -3.161262e+90  0 
VECTORS displacement_ITER60 FLOAT
 -2.018542e+89  -1.653263e+90  0 
 2.432681e+89  -6.496715e+89  0 
 -6.842007e+89  -1.694438e+90  0 
 -9.739673e+89  -1.347843e+90  0 
 -1.090084e+90  -1.249080e+90  0 
 -1.038484e+90  -6.157530e+89  0 
 1.608499e+89  -5.898594e+89  0 
 -1.198407e+89  -6.935831e+89  0 
 -1.141444e+90  -9.578289e+89  0 
 -1.426067e+90  -1.183361e+90  0 
 -7.329582e+89  -3.118954e+90  0 
 1.258714e+89  -3.161262e+90  0 
VECTORS displacement_ITER61 FLOAT
 -2.018542e+89  -1.653263e+90  0 
 2.432681e+89  -6.496715e+89  0 
 -6.842007e+89  -1.694438e+90  0 
 -9.739673e+89  -1.347843e+90  0 
 -1.090084e+90  -1.249080e+90  0 
 -1.038484e+90  -6.157530e+89  0 
 1.608499e+89  -5.898594e+89  0 
 -1.198407e+89  -6.935831e+89  0 
 -1.141444e+90  -9.578289e+89  0 
 -1.426067e+90  -1.183361e+90  0 
 -7.329582e+89  -3.118954e+90  0 
 1.258714e+89  -3.161262e+90  0 
VECTORS displacement_ITER62 FLOAT
 -2.018542e+89  -1.653263e+90  0 
 2.432681e+89  -6.496715e+89  0 
 -6.842007e+89  -1.694438e+90  0 
 -9.739673e+89  -1.347843e+90  0 
 -1.090084e+90  -1.249080e+90  0 
 -1.038484e+90  -6.157530e+89  0 
 1.608499e+89  -5.898594e+89  0 
 -1.198407e+89  -6.935831e+89  0 
 -1.141444e+90  -9.578289e+89  0 
 -1.426067e+90  -1.183361e+90  0 
 -7.329582e+89  -3.118954e+90  0 
 1.258714e+89  -3.161262e+90  0 
VECTORS displacement_ITER63 FLOAT
 -2.018542e+89  -1.653263e+90  0 
 2.432681e+89  -6.496715e+89  0 
 -6.842007e+89  -1.694438e+90  0 
 -9.739673e+89  -1.347843e+90  0 
 -1.090084e+90  -1.249080e+90  0 
 -1.038484e+90  -6.157530e+89  0 
 1.608499e+89  -5.898594e+89  0 
 -1.198407e+89  -6.935831e+89  0 
 -1.141444e+90  -9.578289e+89  0 
 -1.426067e+90  -1.183361e+90  0 
 -7.329582e+89  -3.118954e+90  0 
 1.258714e+89  -3.161262e+90  0 
VECTORS displacement_ITER64 FLOAT
 -2.018542e+89  -1.653263e+90  0 
 2.432681e+89  -6.496715e+89  0 
 -6.842007e+89  -1.694438e+90  0 
 -9.739673e+89  -1.347843e+90  0 
 -1.090084e+90  -1.249080e+90  0 
 -1.038484e+90  -6.157530e+89  0 
 1.608499e+89  -5.898594e+89  0 
 -1.198407e+89  -6.935831e+89  0 
 -1.141444e+90  -9.578289e+89  0 
 -1.426067e+90  -1.183361e+90  0 
 -7.329582e+89  -3.118954e+90  0 
 1.258714e+89  -3.161262e+90  0 
VECTORS displacement_ITER65 FLOAT
 -2.018542e+89  -1.653263e+90  0 
 2.432681e+89  -6.496715e+89  0 
 -6.842007e+89  -1.694438e+90  0 
 -9.739673e+89  -1.347843e+90  0 
 -1.090084e+90  -1.249080e+90  0 
 -1.038484e+90  -6.157530e+89  0 
 1.608499e+89  -5.898594e+89  0 
 -1.198407e+89  -6.935831e+89  0 
 -1.141444e+90  -9.578289e+89  0 
 -1.426067e+90  -1.183361e+90  0 
 -7.329582e+89  -3.118954e+90  0 
 1.258714e+89  -3.161262e+90  0 
VECTORS displacement_ITER66 FLOAT
 -2.018542e+89  -1.653263e+90  0 
 2.432681e+89  -6.496715e+89  0 
 -6.842007e+89  -1.694438e+90  0 
 -9.739673e+89  -1.347843e+90  0 
 -1.090084e+90  -1.249080e+90  0 
 -1.038484e+90  -6.157530e+89  0 
 1.608499e+89  -5.898594e+89  0 
 -1.198407e+89  -6.935831e+89  0 
 -1.141444e+90  -9.578289e+89  0 
 -1.426067e+90  -1.183361e+90  0 
 -7.329582e+89  -3.118954e+90  0 
 1.258714e+89  -3.161262e+90  0 
VECTORS displacement_ITER67 FLOAT
 -2.018542e+89  -1.653263e+90  0 
 2.432681e+89  -6.496715e+89  0 
 -6.842007e+89  -1.694438e+90  0 
 -9.739673e+89  -1.347843e+90  0 
 -1.090084e+90  -1.249080e+90  0 
 -1.038484e+90  -6.157530e+89  0 
 1.608499e+89  -5.898594e+89  0 
 -1.198407e+89  -6.935831e+89  0 
 -1.141444e+90  -9.578289e+89  0 
 -1.426067e+90  -1.183361e+90  0 
 -7.329582e+89  -3.118954e+90  0 
 1.258714e+89  -3.161262e+90  0 
VECTORS displacement_ITER68 FLOAT
 -2.018542e+89  -1.653263e+90  0 
 2.432681e+89  -6.496715e+89  0 
 -6.842007e+89  -1.694438e+90  0 