# vtk DataFile Version 3.1
this is an vtk file created by FEMAC
ASCII
DATASET UNSTRUCTURED_GRID
POINTS 38 FLOAT
0.000000 0.000000 0.000000
0.000000 1.000000 0.000000
4.000000 0.000000 0.000000
4.000000 1.000000 0.000000
0.000000 0.000000 1.000000
0.000000 1.000000 1.000000
4.000000 1.000000 1.000000
4.000000 0.000000 1.000000
1.000000 0.000000 0.000000
2.000000 0.000000 0.000000
3.000000 0.000000 0.000000
1.000000 1.000000 0.000000
2.000000 1.000000 0.000000
3.000000 1.000000 0.000000
1.000000 1.000000 1.000000
2.000000 1.000000 1.000000
3.000000 1.000000 1.000000
3.000000 0.000000 1.000000
2.000000 0.000000 1.000000
1.000000 0.000000 1.000000
3.500000 0.500000 0.000000
1.500000 0.500000 0.000000
0.700000 0.500000 0.000000
2.300000 0.500000 0.000000
0.000000 0.500000 0.500000
3.500000 1.000000 0.500000
1.500000 1.000000 0.500000
0.700000 1.000000 0.500000
2.300000 1.000000 0.500000
4.000000 0.500000 0.500000
0.500000 0.000000 0.500000
1.500000 0.000000 0.500000
3.300000 0.000000 0.500000
2.660000 0.000000 0.500000
0.500000 0.500000 1.000000
1.500000 0.500000 1.000000
3.300000 0.500000 1.000000
2.660000 0.500000 1.000000
CELLS 80 400 
4 27 26 35 31
4 26 35 31 28
4 27 21 26 31
4 21 26 31 28
4 21 27 22 31
4 31 21 28 23
4 19 27 35 31
4 31 35 18 28
4 22 27 19 31
4 18 31 28 23
4 25 36 13 20
4 34 22 19 30
4 13 37 33 32
4 22 27 34 19
4 13 36 32 20
4 36 37 13 32
4 37 28 13 33
4 28 13 33 23
4 36 25 29 20
4 22 34 24 30
4 37 18 28 33
4 18 28 33 23
4 14 27 26 35
4 8 21 22 31
4 26 15 35 28
4 9 21 31 23
4 27 14 34 19
4 22  8 19 30
4 27 14 19 35
4 8 22 19 31
4 10 13 32 20
4 36 16 25 13
4 9 31 18 23
4 35 15 18 28
4 27 21 11 26
4 21 12 26 28
4 13 33 10 32
4 37 16 36 13
4 36 29 32 20
4 27 22 34 24
4 27 21 22 11
4 21 12 28 23
4 16 37 28 13
4 13 33 23 10
4 9 18 33 23
4 18 15 37 28
4 1 27  5 24
4 22  1  0 24
4 2  7 29 32
4 6  7 36 29
4 25 13  3 20
4 19 34 30  4
4 35 19 31 18
4 3  2 29 20
4 6 25  3 29
4 24  0 30  4
4 34  5 24  4
4 29  2 32 20
4 6 36 25 29
4 5 27 34 24
4 0 22 24 30
4 7 36 29 32
4 22 27  1 24
4 15 14 26 35
4 8  9 21 31
4 37 17 33 32
4 16  6 36 25
4 2 10 32 20
4 5 27 14 34
4 8 22  0 30
4 17 37 36 32
4 21 12 11 26
4 25  3 29 20
4 34 24 30  4
4 17 18 37 33
4 33  9 23 10
4 15 16 37 28
4 28 12 13 23
4 7 17 36 32
4 27 22  1 11
CELL_TYPES 80
10 10 10 10 10 10 10 10 10 10 10 10 10 10 10 10 10 10 10 10 10 10 10 10 10 10 10 10 10 10 10 10 10 10 10 10 10 10 10 10 10 10 10 10 10 10 10 10 10 10 10 10 10 10 10 10 10 10 10 10 10 10 10 10 10 10 10 10 10 10 10 10 10 10 10 10 10 10 10 10 
POINT_DATA 38
SCALARS CONDID_1 FLOAT
LOOKUP_TABLE default
 1 
 0 
 0 
 0 
 0 
 0 
 0 
 0 
 0 
 0 
 0 
 0 
 0 
 0 
 0 
 0 
 0 
 0 
 0 
 0 
 0 
 0 
 0 
 0 
 0 
 0 
 0 
 0 
 0 
 0 
 0 
 0 
 0 
 0 
 0 
 0 
 0 
 0 
SCALARS CONDID_2 FLOAT
LOOKUP_TABLE default
 1 
 1 
 0 
 0 
 0 
 0 
 0 
 0 
 0 
 0 
 0 
 0 
 0 
 0 
 0 
 0 
 0 
 0 
 0 
 0 
 0 
 0 
 0 
 0 
 0 
 0 
 0 
 0 
 0 
 0 
 0 
 0 
 0 
 0 
 0 
 0 
 0 
 0 
SCALARS CONDID_3 FLOAT
LOOKUP_TABLE default
 0 
 0 
 1 
 1 
 0 
 0 
 1 
 1 
 0 
 0 
 0 
 0 
 0 
 0 
 0 
 0 
 0 
 0 
 0 
 0 
 0 
 0 
 0 
 0 
 0 
 0 
 0 
 0 
 0 
 1 
 0 
 0 
 0 
 0 
 0 
 0 
 0 
 0 
VECTORS displacement FLOAT
 0  0  0 
 0  0  0 
 0  0  0 
 0  0  0 
 0  0  0 
 0  0  0 
 0  0  0 
 0  0  0 
 0  0  0 
 0  0  0 
 0  0  0 
 0  0  0 
 0  0  0 
 0  0  0 
 0  0  0 
 0  0  0 
 0  0  0 
 0  0  0 
 0  0  0 
 0  0  0 
 0  0  0 
 0  0  0 
 0  0  0 
 0  0  0 
 0  0  0 
 0  0  0 
 0  0  0 
 0  0  0 
 0  0  0 
 0  0  0 
 0  0  0 
 0  0  0 
 0  0  0 
 0  0  0 
 0  0  0 
 0  0  0 
 0  0  0 
 0  0  0 
CELL_DATA 80
SCALARS MATID_1 FLOAT
LOOKUP_TABLE default
 1 
 1 
 1 
 1 
 1 
 1 
 1 
 1 
 1 
 1 
 1 
 1 
 1 
 1 
 1 
 1 
 1 
 1 
 1 
 1 
 1 
 1 
 1 
 1 
 1 
 1 
 1 
 1 
 1 
 1 
 1 
 1 
 1 
 1 
 1 
 1 
 1 
 1 
 1 
 1 
 1 
 1 
 1 
 1 
 1 
 1 
 1 
 1 
 1 
 1 
 1 
 1 
 1 
 1 
 1 
 1 
 1 
 1 
 1 
 1 
 1 
 1 
 1 
 1 
 1 
 1 
 1 
 1 
 1 
 1 
 1 
 1 
 1 
 1 
 1 
 1 
 1 
 1 
 1 
 1 
