# vtk DataFile Version 3.1
this is an vtk file created by FEMAC
ASCII
DATASET UNSTRUCTURED_GRID
POINTS 48 FLOAT
0.300000 1.000000 0.000000
0.400000 1.000000 0.000000
0.500000 1.000000 0.000000
0.600000 1.000000 0.000000
0.700000 1.000000 0.000000
0.800000 1.000000 0.000000
0.900000 1.000000 0.000000
1.000000 1.000000 0.000000
1.100000 1.000000 0.000000
1.200000 1.000000 0.000000
1.314544 0.533627 0.000000
1.208411 0.481204 0.000000
0.912990 0.785238 0.000000
1.182220 0.728966 0.000000
1.114862 0.780741 0.000000
1.278942 0.731096 0.000000
1.321709 0.636185 0.000000
0.720497 0.905395 0.000000
0.885229 0.886512 0.000000
0.973854 0.872805 0.000000
1.019699 0.646236 0.000000
1.221730 0.642084 0.000000
1.082226 0.855861 0.000000
1.112504 0.613930 0.000000
0.470706 0.766330 0.000000
0.730620 0.693565 0.000000
0.685390 0.796273 0.000000
0.597406 0.708022 0.000000
1.144238 0.917345 0.000000
0.930152 0.690142 0.000000
1.298878 0.815956 0.000000
0.800838 0.822027 0.000000
1.089462 0.716076 0.000000
1.165759 0.561553 0.000000
1.249354 0.907477 0.000000
1.192960 0.819635 0.000000
0.577251 0.826316 0.000000
0.600992 0.928123 0.000000
0.960351 0.938427 0.000000
1.017815 0.766204 0.000000
1.042674 0.932818 0.000000
0.832187 0.731583 0.000000
0.468986 0.901096 0.000000
1.248688 0.571282 0.000000
0.354438 0.922931 0.000000
0.822008 0.923571 0.000000
0.759822 0.758047 0.000000
0.646033 0.864027 0.000000
CELLS 68 272 
3 12 18 19
3 21 13 15
3 15 16 21
3 28  8  9
3 32 23 20
3 15 35 30
3 37  2  3
3 38  6  7
3 38 19 18
3 39 19 22
3 19 39 12
3 40  7  8
3 40 22 19
3 40 38  7
3 19 38 40
3 28 40  8
3 28 22 40
3 22 14 39
3 34 30 35
3 13 35 15
3 35 13 14
3 22 35 14
3 32 14 13
3 17 31 26
3 12 31 18
3 33 23 21
3 34 28  9
3 24 36 27
3 36 26 27
3 23 13 21
3 23 32 13
3 29 41 12
3 2 42  1
3 10 43 16
3 21 43 33
3 43 21 16
3 37 42  2
3 11 43 10
3 11 33 43
3 28 35 22
3 34 35 28
3 29 12 39
3 14 32 39
3 39 20 29
3 39 32 20
3 26 25 27
3 1 44  0
3 42 44  1
3 4 37  3
3 4 17 37
3 36 24 42
3 37 36 42
3 5 17  4
3 31 12 41
3 45 17  5
3 45 18 31
3 17 45 31
3 46 25 26
3 46 31 41
3 31 46 26
3 25 46 41
3 6 45  5
3 18  6 38
3 6 18 45
3 26 47 17
3 37 47 36
3 47 37 17
3 47 26 36
CELL_TYPES 68
5 5 5 5 5 5 5 5 5 5 5 5 5 5 5 5 5 5 5 5 5 5 5 5 5 5 5 5 5 5 5 5 5 5 5 5 5 5 5 5 5 5 5 5 5 5 5 5 5 5 5 5 5 5 5 5 5 5 5 5 5 5 5 5 5 5 5 5 
POINT_DATA 48
VECTORS displacement_ITER1 FLOAT
 -6.153438e-04  8.267592e-03  0 
 -1.393633e-03  6.547793e-03  0 
 -2.414684e-03  5.614124e-03  0 
 -3.397718e-03  5.266251e-03  0 
 -4.318174e-03  5.043379e-03  0 
 -5.062806e-03  5.003187e-03  0 
 -5.719647e-03  4.946312e-03  0 
 -6.283095e-03  4.783746e-03  0 
 -6.796884e-03  4.467978e-03  0 
 -7.308197e-03  3.947340e-03  0 
 -9.752620e-03  2.624350e-03  0 
 -8.096436e-03  1.543630e-03  0 
 -6.178045e-03  3.485915e-03  0 
 -8.122455e-03  3.068353e-03  0 
 -7.637150e-03  3.289379e-03  0 
 -8.515874e-03  2.903653e-03  0 
 -8.960551e-03  2.506855e-03  0 
 -4.591579e-03  4.342158e-03  0 
 -5.779126e-03  4.221482e-03  0 
 -6.430381e-03  4.057290e-03  0 
 -7.324455e-03  2.505796e-03  0 
 -8.540476e-03  2.838956e-03  0 
 -7.218784e-03  3.728412e-03  0 
 -7.937851e-03  2.559271e-03  0 
 -3.231430e-03  3.725647e-03  0 
 -4.705992e-03  2.679820e-03  0 
 -4.401777e-03  3.600543e-03  0 
 -3.809734e-03  3.208436e-03  0 
 -7.372732e-03  3.853159e-03  0 
 -6.615248e-03  2.690094e-03  0 
 -8.396172e-03  3.091557e-03  0 
 -5.237907e-03  3.740845e-03  0 
 -7.630171e-03  2.971324e-03  0 
 -8.383476e-03  2.380072e-03  0 
 -7.935451e-03  3.360583e-03  0 
 -7.938349e-03  3.293269e-03  0 
 -3.784975e-03  3.927750e-03  0 
 -3.669973e-03  4.557431e-03  0 
 -6.192815e-03  4.500167e-03  0 
 -7.048473e-03  3.255787e-03  0 
 -6.717751e-03  4.301390e-03  0 
 -5.536908e-03  2.961515e-03  0 
 -2.869900e-03  4.891097e-03  0 
 -9.090054e-03  2.666269e-03  0 
 -2.028873e-03  6.710410e-03  0 
 -5.297059e-03  4.476098e-03  0 
 -4.962410e-03  3.241249e-03  0 
 -4.117288e-03  4.052338e-03  0 
VECTORS displacement_ITER2 FLOAT
 -2.288147e-03  7.943242e-03  0 
 -2.895343e-03  7.459558e-03  0 
 -3.551516e-03  7.243100e-03  0 
 -4.232993e-03  7.134185e-03  0 
 -4.919222e-03  7.063127e-03  0 
 -5.587866e-03  7.039410e-03  0 
 -6.264471e-03  7.012049e-03  0 
 -6.933871e-03  6.966743e-03  0 
 -7.588961e-03  6.854372e-03  0 
 -8.230181e-03  6.592677e-03  0 
 -8.218138e-03  5.269743e-03  0 
 -6.811286e-03  3.933177e-03  0 
 -6.429961e-03  5.480828e-03  0 
 -8.246264e-03  5.233859e-03  0 
 -7.903864e-03  5.371125e-03  0 
 -8.768969e-03  5.500465e-03  0 
 -8.584756e-03  5.374364e-03  0 
 -5.084818e-03  6.434464e-03  0 
 -6.196601e-03  6.241281e-03  0 
 -6.837281e-03  6.081114e-03  0 
 -7.197288e-03  4.416623e-03  0 
 -8.194934e-03  5.015116e-03  0 
 -7.662606e-03  5.874185e-03  0 
 -7.517703e-03  4.378183e-03  0 
 -3.712359e-03  5.803487e-03  0 
 -5.117991e-03  5.031645e-03  0 
 -4.835419e-03  5.785082e-03  0 
 -4.293720e-03  5.468976e-03  0 
 -8.034691e-03  6.235121e-03  0 
 -6.697434e-03  4.694571e-03  0 
 -8.954774e-03  5.804727e-03  0 
 -5.607878e-03  5.837316e-03  0 
 -7.661771e-03  4.900770e-03  0 
 -7.470546e-03  4.334673e-03  0 
 -8.708457e-03  6.000234e-03  0 
 -8.421605e-03  5.657922e-03  0 
 -4.253509e-03  6.040698e-03  0 
 -4.300499e-03  6.635267e-03  0 
 -6.702651e-03  6.565489e-03  0 
 -7.226311e-03  5.204304e-03  0 
 -7.292475e-03  6.472994e-03  0 
 -5.828739e-03  5.125269e-03  0 
 -3.516742e-03  6.655578e-03  0 
 -8.057318e-03  4.932562e-03  0 
 -2.831796e-03  7.151691e-03  0 
 -5.759295e-03  6.518649e-03  0 
 -5.325471e-03  5.437639e-03  0 
 -4.624468e-03  6.193823e-03  0 
VECTORS displacement_ITER3 FLOAT
 -2.331487e-03  5.653618e-03  0 
 -2.916582e-03  5.970197e-03  0 
 -3.499291e-03  6.224888e-03  0 
 -4.098032e-03  6.379028e-03  0 
 -4.704136e-03  6.540003e-03  0 
 -5.317270e-03  6.636472e-03  0 
 -5.914665e-03  6.694078e-03  0 
 -6.508266e-03  6.689073e-03  0 
 -7.129001e-03  6.627847e-03  0 
 -7.780440e-03  6.502331e-03  0 
 -8.868415e-03  3.387099e-03  0 
 -7.964289e-03  2.927970e-03  0 
 -5.943064e-03  5.328765e-03  0 
 -7.859968e-03  4.738360e-03  0 
 -7.383630e-03  5.124368e-03  0 
 -8.502536e-03  4.726186e-03  0 
 -8.821782e-03  3.935412e-03  0 
 -4.733841e-03  5.967299e-03  0 
 -5.774923e-03  5.988911e-03  0 
 -6.358308e-03  5.890459e-03  0 
 -6.883261e-03  4.286627e-03  0 
 -8.160034e-03  4.142964e-03  0 
 -7.119666e-03  5.675037e-03  0 
 -7.470119e-03  4.020378e-03  0 
 -3.010298e-03  4.712181e-03  0 
 -4.461576e-03  4.510608e-03  0 
 -4.327966e-03  5.199146e-03  0 
 -3.626718e-03  4.613551e-03  0 
 -7.494367e-03  6.036964e-03  0 
 -6.210779e-03  4.609901e-03  0 
 -8.603289e-03  5.330347e-03  0 
 -5.164489e-03  5.516810e-03  0 
 -7.259988e-03  4.689345e-03  0 
 -7.846310e-03  3.641147e-03  0 
 -8.190701e-03  5.864962e-03  0 
 -7.896316e-03  5.351462e-03  0 
 -3.704988e-03  5.225164e-03  0 
 -3.984168e-03  5.946456e-03  0 
 -6.270535e-03  6.320349e-03  0 
 -6.721366e-03  5.090299e-03  0 
 -6.802857e-03  6.243032e-03  0 
 -5.292955e-03  4.883974e-03  0 
 -3.061368e-03  5.549813e-03  0 
 -8.424320e-03  3.645877e-03  0 
 -2.343331e-03  5.296112e-03  0 
 -5.394871e-03  6.182630e-03  0 
 -4.793002e-03  5.020298e-03  0 
 -4.192718e-03  5.575752e-03  0 
VECTORS displacement_ITER4 FLOAT
 -2.016191e-03  6.445558e-03  0 
 -2.611754e-03  6.540427e-03  0 
 -3.239532e-03  6.532199e-03  0 
 -3.893213e-03  6.500604e-03  0 
 -4.558514e-03  6.484756e-03  0 
 -5.231172e-03  6.474553e-03  0 
 -5.890145e-03  6.484627e-03  0 
 -6.541334e-03  6.504898e-03  0 
 -7.186605e-03  6.532382e-03  0 
 -7.828866e-03  6.554465e-03  0 
 -8.597997e-03  3.360895e-03  0 
 -7.917303e-03  3.119461e-03  0 
 -5.944365e-03  5.126184e-03  0 
 -7.642412e-03  4.784041e-03  0 
 -7.229257e-03  5.113593e-03  0 
 -8.272848e-03  4.821859e-03  0 
 -8.543784e-03  4.066609e-03  0 
 -4.710922e-03  5.842472e-03  0 
 -5.784375e-03  5.748189e-03  0 
 -6.345270e-03  5.684815e-03  0 
 -6.626732e-03  4.288871e-03  0 
 -7.884406e-03  4.210909e-03  0 
 -7.037374e-03  5.595099e-03  0 
 -7.200607e-03  4.080598e-03  0 
 -3.163814e-03  5.030138e-03  0 
 -4.773704e-03  4.452627e-03  0 
 -4.482803e-03  5.114454e-03  0 
 -3.987435e-03  4.618853e-03  0 
 -7.455463e-03  6.009725e-03  0 
 -6.060637e-03  4.542878e-03  0 
 -8.451256e-03  5.432611e-03  0 
 -5.234414e-03  5.301613e-03  0 
 -7.059311e-03  4.708040e-03  0 
 -7.581059e-03  3.732848e-03  0 
 -8.137301e-03  5.963937e-03  0 
 -7.751192e-03  5.384864e-03  0 
 -3.792137e-03  5.352519e-03  0 
 -3.906443e-03  6.023705e-03  0 
 -6.273667e-03  6.097850e-03  0 
 -6.609134e-03  5.017632e-03  0 
 -6.801059e-03  6.083286e-03  0 
 -5.397618e-03  4.728499e-03  0 
 -3.034061e-03  5.901699e-03  0 
 -8.121485e-03  3.703215e-03  0 
 -2.254614e-03  6.009595e-03  0 
 -5.376168e-03  5.973705e-03  0 
 -4.954897e-03  4.871802e-03  0 
 -4.224119e-03  5.574058e-03  0 
VECTORS displacement_ITER5 FLOAT
 -1.908489e-03  6.641696e-03  0 
 -2.586538e-03  6.531512e-03  0 
 -3.263229e-03  6.503088e-03  0 
 -3.933813e-03  6.508024e-03  0 
 -4.598316e-03  6.519969e-03  0 
 -5.249110e-03  6.537368e-03  0 
 -5.893173e-03  6.551377e-03  0 
 -6.533727e-03  6.556342e-03  0 
 -7.171442e-03  6.551254e-03  0 
 -7.808923e-03  6.528903e-03  0 
 -8.526507e-03  3.560398e-03  0 
 -7.859289e-03  3.201086e-03  0 
 -5.964248e-03  5.167402e-03  0 
 -7.751407e-03  4.759100e-03  0 
 -7.306213e-03  5.102974e-03  0 
 -8.389263e-03  4.790339e-03  0 
 -8.615588e-03  4.200004e-03  0 
 -4.720352e-03  5.907797e-03  0 
 -5.788579e-03  5.817262e-03  0 
 -6.363112e-03  5.733967e-03  0 
 -6.703132e-03  4.234906e-03  0 
 -7.985768e-03  4.205446e-03  0 
 -7.081278e-03  5.611018e-03  0 
 -7.286421e-03  3.999544e-03  0 
 -3.005795e-03  4.848517e-03  0 
 -4.735401e-03  4.510477e-03  0 
 -4.472699e-03  5.184923e-03  0 
 -3.854071e-03  4.561391e-03  0 
 -7.477221e-03  6.008719e-03  0 
 -6.109375e-03  4.537025e-03  0 
 -8.510331e-03  5.334261e-03  0 
 -5.234415e-03  5.387069e-03  0 
 -7.141930e-03  4.671313e-03  0 
 -7.602937e-03  3.690398e-03  0 
 -8.166873e-03  5.909744e-03  0 
 -7.822233e-03  5.358041e-03  0 
 -3.771532e-03  5.351899e-03  0 
 -3.939930e-03  6.027055e-03  0 
 -6.278351e-03  6.158976e-03  0 
 -6.662256e-03  5.017961e-03  0 
 -6.811506e-03  6.123790e-03  0 
 -5.425189e-03  4.811754e-03  0 
 -3.072306e-03  5.841201e-03  0 
 -8.128899e-03  3.770191e-03  0 
 -2.304701e-03  6.027498e-03  0 
 -5.381912e-03  6.047385e-03  0 
 -4.953856e-03  4.956036e-03  0 
 -4.226761e-03  5.617201e-03  0 
VECTORS displacement_ITER6 FLOAT
 -1.964072e-03  6.495153e-03  0 
 -2.610739e-03  6.487632e-03  0 
 -3.252438e-03  6.502109e-03  0 
 -3.896399e-03  6.504930e-03  0 
 -4.542428e-03  6.505984e-03  0 
 -5.192735e-03  6.502741e-03  0 
 -5.843997e-03  6.499376e-03  0 
 -6.495359e-03  6.497322e-03  0 
 -7.146247e-03  6.496737e-03  0 
 -7.797171e-03  6.498097e-03  0 
 -8.541048e-03  3.473296e-03  0 
 -7.848997e-03  3.129126e-03  0 
 -5.932945e-03  5.102403e-03  0 
 -7.683903e-03  4.735288e-03  0 
 -7.245306e-03  5.071200e-03  0 
 -8.312157e-03  4.748983e-03  0 
 -8.586839e-03  4.134750e-03  0 
 -4.677235e-03  5.889503e-03  0 
 -5.750915e-03  5.760646e-03  0 
 -6.326985e-03  5.670460e-03  0 
 -6.628818e-03  4.198496e-03  0 
 -7.938551e-03  4.173430e-03  0 
 -7.031982e-03  5.559165e-03  0 
 -7.228945e-03  3.985155e-03  0 
 -3.043591e-03  4.991525e-03  0 
 -4.749939e-03  4.503611e-03  0 
 -4.451418e-03  5.174717e-03  0 
 -3.883650e-03  4.599249e-03  0 
 -7.434077e-03  5.958835e-03  0 
 -6.048951e-03  4.482663e-03  0 
 -8.437996e-03  5.300920e-03  0 
 -5.203761e-03  5.341823e-03  0 
 -7.080478e-03  4.650007e-03  0 
 -7.571605e-03  3.652236e-03  0 
 -8.117456e-03  5.893771e-03  0 
 -7.751426e-03  5.323884e-03  0 
 -3.740895e-03  5.379096e-03  0 
 -3.899523e-03  6.041663e-03  0 
 -6.238332e-03  6.097131e-03  0 
 -6.615127e-03  4.975922e-03  0 
 -6.773655e-03  6.059916e-03  0 
 -5.407376e-03  4.753422e-03  0 
 -3.040169e-03  5.861975e-03  0 
 -8.112641e-03  3.715766e-03  0 
 -2.307472e-03  5.982993e-03  0 
 -5.338172e-03  6.003846e-03  0 
 -4.937357e-03  4.924042e-03  0 
 -4.191224e-03  5.622616e-03  0 
VECTORS displacement_ITER7 FLOAT
 -1.949538e-03  6.503523e-03  0 
 -2.598395e-03  6.504239e-03  0 
 -3.249421e-03  6.501315e-03  0 
 -3.899721e-03  6.501467e-03  0 
 -4.549744e-03  6.501440e-03  0 
 -5.199465e-03  6.501640e-03  0 
 -5.849339e-03  6.501588e-03  0 
 -6.499756e-03  6.501645e-03  0 
 -7.150911e-03  6.502375e-03  0 
 -7.802806e-03  6.505143e-03  0 
 -8.544355e-03  3.468722e-03  0 
 -7.853145e-03  3.128595e-03  0 
 -5.933480e-03  5.106162e-03  0 
 -7.683264e-03  4.739551e-03  0 
 -7.245135e-03  5.076395e-03  0 
 -8.311872e-03  4.752565e-03  0 
 -8.589905e-03  4.135664e-03  0 
 -4.682750e-03  5.886908e-03  0 
 -5.753152e-03  5.764096e-03  0 
 -6.329030e-03  5.674642e-03  0 
 -6.627114e-03  4.203467e-03  0 
 -7.939955e-03  4.174822e-03  0 
 -7.033329e-03  5.564354e-03  0 
 -7.229733e-03  3.989907e-03  0 
 -3.060218e-03  4.986377e-03  0 
 -4.747127e-03  4.511436e-03  0 
 -4.454679e-03  5.177457e-03  0 
 -3.883228e-03  4.603665e-03  0 
 -7.437159e-03  5.964688e-03  0 
 -6.046254e-03  4.488114e-03  0 
 -8.440916e-03  5.306999e-03  0 
 -5.204735e-03  5.345590e-03  0 
 -7.079803e-03  4.655632e-03  0 
 -7.575044e-03  3.651818e-03  0 
 -8.120995e-03  5.902053e-03  0 
 -7.752406e-03  5.329385e-03  0 
 -3.751340e-03  5.373034e-03  0 
 -3.906377e-03  6.034181e-03  0 
 -6.241554e-03  6.101191e-03  0 
 -6.614656e-03  4.981550e-03  0 
 -6.776804e-03  6.064638e-03  0 
 -5.408503e-03  4.758085e-03  0 
 -3.048815e-03  5.857656e-03  0 
 -8.115127e-03  3.714555e-03  0 
 -2.299908e-03  6.001529e-03  0 
 -5.342361e-03  6.005046e-03  0 
 -4.937878e-03  4.930188e-03  0 
 -4.198637e-03  5.618058e-03  0 
VECTORS displacement_ITER8 FLOAT
 -1.950259e-03  6.499502e-03  0 
 -2.600084e-03  6.499221e-03  0 
 -3.250100e-03  6.499235e-03  0 
 -3.900020e-03  6.499302e-03  0 
 -4.549899e-03  6.499325e-03  0 
 -5.199746e-03  6.499270e-03  0 
 -5.849625e-03  6.499140e-03  0 
 -6.499567e-03  6.498968e-03  0 
 -7.149558e-03  6.498821e-03  0 
 -7.799517e-03  6.498889e-03  0 
 -8.544303e-03  3.466894e-03  0 
 -7.855338e-03  3.127018e-03  0 
 -5.934476e-03  5.103135e-03  0 
 -7.684188e-03  4.737086e-03  0 
 -7.246532e-03  5.073550e-03  0 
 -8.312564e-03  4.751067e-03  0 
 -8.590924e-03  4.134246e-03  0 
 -4.683134e-03  5.884530e-03  0 
 -5.753756e-03  5.761579e-03  0 
 -6.329858e-03  5.672218e-03  0 
 -6.628148e-03  4.200034e-03  0 
 -7.940868e-03  4.172713e-03  0 
 -7.034298e-03  5.561869e-03  0 
 -7.231256e-03  3.989247e-03  0 
 -3.059613e-03  4.980147e-03  0 
 -4.748952e-03  4.507814e-03  0 
 -4.454955e-03  5.175459e-03  0 
 -3.882921e-03  4.601933e-03  0 
 -7.437267e-03  5.961483e-03  0 
 -6.046446e-03  4.484921e-03  0 
 -8.442388e-03  5.302486e-03  0 
 -5.205315e-03  5.342684e-03  0 
 -7.081331e-03  4.653360e-03  0 
 -7.576673e-03  3.649890e-03  0 
 -8.120695e-03  5.896919e-03  0 
 -7.754115e-03  5.326168e-03  0 
 -3.752193e-03  5.370452e-03  0 
 -3.906473e-03  6.032183e-03  0 
 -6.241956e-03  6.098832e-03  0 
 -6.615850e-03  4.979152e-03  0 
 -6.777067e-03  6.062198e-03  0 
 -5.409484e-03  4.754590e-03  0 
 -3.048440e-03  5.856293e-03  0 
 -8.115934e-03  3.712239e-03  0 
 -2.304108e-03  5.998545e-03  0 
 -5.342834e-03  6.002551e-03  0 
 -4.938846e-03  4.926935e-03  0 
 -4.199217e-03  5.615656e-03  0 
VECTORS displacement_ITER9 FLOAT
 -1.949946e-03  6.500021e-03  0 
 -2.599991e-03  6.499963e-03  0 
 -3.249950e-03  6.500109e-03  0 
 -3.899961e-03  6.500075e-03  0 
 -4.549991e-03  6.500068e-03  0 
 -5.200032e-03  6.500045e-03  0 
 -5.850059e-03  6.500040e-03  0 
 -6.500089e-03  6.500041e-03  0 
 -7.150132e-03  6.500045e-03  0 
 -7.800182e-03  6.500056e-03  0 
 -8.544521e-03  3.468676e-03  0 
 -7.854688e-03  3.127767e-03  0 
 -5.934506e-03  5.104050e-03  0 
 -7.684493e-03  4.738283e-03  0 
 -7.246635e-03  5.074879e-03  0 
 -8.313161e-03  4.752174e-03  0 
 -8.591171e-03  4.135290e-03  0 
 -4.683256e-03  5.885086e-03  0 
 -5.754044e-03  5.762348e-03  0 
 -6.330125e-03  5.673240e-03  0 
 -6.628099e-03  4.200819e-03  0 
 -7.941330e-03  4.173594e-03  0 
 -7.034538e-03  5.563134e-03  0 
 -7.231492e-03  3.990290e-03  0 
 -3.059628e-03  4.981071e-03  0 
 -4.749024e-03  4.508110e-03  0 
 -4.455032e-03  5.175793e-03  0 
 -3.883050e-03  4.602135e-03  0 
 -7.437645e-03  5.962787e-03  0 
 -6.046051e-03  4.485990e-03  0 
 -8.442816e-03  5.303880e-03  0 
 -5.205478e-03  5.343184e-03  0 
 -7.081485e-03  4.654548e-03  0 
 -7.577355e-03  3.650213e-03  0 
 -8.120888e-03  5.898734e-03  0 
 -7.754298e-03  5.327691e-03  0 
 -3.752153e-03  5.371010e-03  0 
 -3.906410e-03  6.032856e-03  0 
 -6.242356e-03  6.099799e-03  0 
 -6.615834e-03  4.980380e-03  0 
 -6.777476e-03  6.063335e-03  0 
 -5.409304e-03  4.755248e-03  0 
 -3.048278e-03  5.857241e-03  0 
 -8.116466e-03  3.713383e-03  0 
 -2.303859e-03  5.999029e-03  0 
 -5.343097e-03  6.003240e-03  0 
 -4.938878e-03  4.927294e-03  0 
 -4.199231e-03  5.616172e-03  0 
VECTORS displacement_ITER10 FLOAT
 -1.949967e-03  6.499970e-03  0 
 -2.599975e-03  6.500024e-03  0 
 -3.249980e-03  6.500005e-03  0 
 -3.899987e-03  6.499995e-03  0 
 -4.549994e-03  6.499984e-03  0 
 -5.200003e-03  6.499980e-03  0 
 -5.850011e-03  6.499982e-03  0 
 -6.500014e-03  6.499990e-03  0 
 -7.150009e-03  6.500003e-03  0 
 -7.800004e-03  6.500016e-03  0 
 -8.544541e-03  3.468596e-03  0 
 -7.854688e-03  3.127734e-03  0 
 -5.934425e-03  5.104040e-03  0 
 -7.684441e-03  4.738271e-03  0 
 -7.246607e-03  5.074814e-03  0 
 -8.313115e-03  4.752106e-03  0 
 -8.591121e-03  4.135233e-03  0 
 -4.683233e-03  5.885043e-03  0 
 -5.753996e-03  5.762302e-03  0 
 -6.330051e-03  5.673226e-03  0 
 -6.628065e-03  4.200531e-03  0 
 -7.941256e-03  4.173564e-03  0 
 -7.034470e-03  5.563105e-03  0 
 -7.231312e-03  3.990506e-03  0 
 -3.059607e-03  4.981166e-03  0 
 -4.749087e-03  4.508144e-03  0 
 -4.455044e-03  5.175748e-03  0 
 -3.883195e-03  4.602148e-03  0 
 -7.437546e-03  5.962756e-03  0 
 -6.045959e-03  4.485918e-03  0 
 -8.442753e-03  5.303725e-03  0 
 -5.205454e-03  5.343136e-03  0 
 -7.081507e-03  4.654479e-03  0 
 -7.577386e-03  3.650149e-03  0 
 -8.120804e-03  5.898618e-03  0 
 -7.754255e-03  5.327622e-03  0 
 -3.752142e-03  5.371052e-03  0 
 -3.906444e-03  6.032791e-03  0 
 -6.242294e-03  6.099761e-03  0 
 -6.615787e-03  4.980332e-03  0 
 -6.777388e-03  6.063315e-03  0 
 -5.409198e-03  4.755268e-03  0 
 -3.048407e-03  5.857132e-03  0 
 -8.116466e-03  3.713332e-03  0 
 -2.303808e-03  5.999062e-03  0 
 -5.343060e-03  6.003187e-03  0 
 -4.938857e-03  4.927258e-03  0 
 -4.199214e-03  5.616157e-03  0 
VECTORS displacement_ITER11 FLOAT
 -1.950017e-03  6.500016e-03  0 
 -2.600005e-03  6.500009e-03  0 
 -3.250009e-03  6.499997e-03  0 
 -3.900009e-03  6.500001e-03  0 
 -4.550008e-03  6.500005e-03  0 
 -5.200005e-03  6.500009e-03  0 
 -5.850005e-03  6.500010e-03  0 
 -6.500004e-03  6.500009e-03  0 
 -7.150003e-03  6.500008e-03  0 
 -7.800000e-03  6.500004e-03  0 
 -8.544533e-03  3.468594e-03  0 
 -7.854663e-03  3.127810e-03  0 
 -5.934437e-03  5.104055e-03  0 
 -7.684428e-03  4.738299e-03  0 
 -7.246605e-03  5.074832e-03  0 
 -8.313117e-03  4.752147e-03  0 
 -8.591113e-03  4.135209e-03  0 
 -4.683236e-03  5.885077e-03  0 
 -5.753992e-03  5.762335e-03  0 
 -6.330054e-03  5.673240e-03  0 
 -6.628042e-03  4.200552e-03  0 
 -7.941243e-03  4.173565e-03  0 
 -7.034476e-03  5.563107e-03  0 
 -7.231274e-03  3.990566e-03  0 
 -3.059570e-03  4.981144e-03  0 
 -4.749030e-03  4.508171e-03  0 
 -4.455033e-03  5.175782e-03  0 
 -3.883126e-03  4.602137e-03  0 
 -7.437552e-03  5.962754e-03  0 
 -6.045988e-03  4.485930e-03  0 
 -8.442710e-03  5.303730e-03  0 
 -5.205447e-03  5.343183e-03  0 
 -7.081500e-03  4.654507e-03  0 
 -7.577427e-03  3.650111e-03  0 
 -8.120806e-03  5.898610e-03  0 
 -7.754244e-03  5.327639e-03  0 
 -3.752131e-03  5.371058e-03  0 
 -3.906458e-03  6.032802e-03  0 
 -6.242289e-03  6.099784e-03  0 
 -6.615800e-03  4.980335e-03  0 
 -6.777388e-03  6.063325e-03  0 
 -5.409222e-03  4.755293e-03  0 
 -3.048422e-03  5.857118e-03  0 
 -8.116472e-03  3.713337e-03  0 
 -2.303857e-03  5.999076e-03  0 
 -5.343057e-03  6.003223e-03  0 
 -4.938847e-03  4.927307e-03  0 
 -4.199213e-03  5.616181e-03  0 
VECTORS displacement_ITER12 FLOAT
 -1.950001e-03  6.500000e-03  0 
 -2.600000e-03  6.500000e-03  0 
 -3.250000e-03  6.500000e-03  0 
 -3.900000e-03  6.500000e-03  0 
 -4.550000e-03  6.500000e-03  0 
 -5.200000e-03  6.500000e-03  0 
 -5.850000e-03  6.500000e-03  0 
 -6.500000e-03  6.500000e-03  0 
 -7.150001e-03  6.500000e-03  0 
 -7.800001e-03  6.500001e-03  0 
 -8.544537e-03  3.468577e-03  0 
 -7.854672e-03  3.127826e-03  0 
 -5.934432e-03  5.104048e-03  0 
 -7.684432e-03  4.738282e-03  0 
 -7.246602e-03  5.074820e-03  0 
 -8.313124e-03  4.752126e-03  0 
 -8.591107e-03  4.135202e-03  0 
 -4.683233e-03  5.885068e-03  0 
 -5.753987e-03  5.762326e-03  0 
 -6.330048e-03  5.673231e-03  0 
 -6.628044e-03  4.200531e-03  0 
 -7.941246e-03  4.173548e-03  0 
 -7.034471e-03  5.563097e-03  0 
 -7.231278e-03  3.990547e-03  0 
 -3.059586e-03  4.981146e-03  0 
 -4.749029e-03  4.508173e-03  0 
 -4.455034e-03  5.175774e-03  0 
 -3.883141e-03  4.602140e-03  0 
 -7.437547e-03  5.962745e-03  0 
 -6.045985e-03  4.485922e-03  0 
 -8.442707e-03  5.303714e-03  0 
 -5.205445e-03  5.343176e-03  0 
 -7.081501e-03  4.654491e-03  0 
 -7.577433e-03  3.650096e-03  0 
 -8.120803e-03  5.898601e-03  0 
 -7.754241e-03  5.327627e-03  0 
 -3.752134e-03  5.371052e-03  0 
 -3.906450e-03  6.032801e-03  0 
 -6.242284e-03  6.099775e-03  0 
 -6.615796e-03  4.980325e-03  0 
 -6.777383e-03  6.063315e-03  0 
 -5.409217e-03  4.755291e-03  0 
 -3.048408e-03  5.857124e-03  0 
 -8.116470e-03  3.713331e-03  0 
 -2.303844e-03  5.999056e-03  0 
 -5.343053e-03  6.003214e-03  0 
 -4.938844e-03  4.927304e-03  0 
 -4.199213e-03  5.616174e-03  0 
CELL_DATA 68
TENSORS element_stresses FLOAT
 -9.999999e-01  -1.324853e-07  0 
 -1.324853e-07  9.999996e-01  0 
 0  0  0 

 -1.000001e+00  -1.005568e-06  0 
 -1.005568e-06  1.000000e+00  0 
 0  0  0 

 -9.999987e-01  -2.456253e-06  0 
 -2.456253e-06  1.000001e+00  0 
 0  0  0 

 -1.000001e+00  -5.123540e-07  0 
 -5.123540e-07  1.000000e+00  0 
 0  0  0 

 -9.999985e-01  6.226451e-07  0 
 6.226451e-07  9.999998e-01  0 
 0  0  0 

 -1.000001e+00  -1.083962e-06  0 
 -1.083962e-06  9.999969e-01  0 
 0  0  0 

 -1.000000e+00  -2.585575e-07  0 
 -2.585575e-07  1.000000e+00  0 
 0  0  0 

 -1.000000e+00  -1.745309e-07  0 
 -1.745309e-07  1.000000e+00  0 
 0  0  0 

 -9.999999e-01  -2.287376e-07  0 
 -2.287376e-07  9.999999e-01  0 
 0  0  0 

 -9.999998e-01  -9.963423e-08  0 
 -9.963423e-08  9.999995e-01  0 
 0  0  0 

 -9.999996e-01  -1.189782e-07  0 
 -1.189782e-07  9.999996e-01  0 
 0  0  0 

 -1.000001e+00  -3.134961e-07  0 
 -3.134961e-07  1.000000e+00  0 
 0  0  0 

 -9.999998e-01  -2.184875e-07  0 
 -2.184875e-07  9.999996e-01  0 
 0  0  0 

 -1.000000e+00  -2.978086e-07  0 
 -2.978086e-07  1.000000e+00  0 
 0  0  0 

 -1.000000e+00  -1.420341e-07  0 
 -1.420341e-07  9.999998e-01  0 
 0  0  0 

 -9.999999e-01  -5.960002e-07  0 
 -5.960002e-07  1.000000e+00  0 
 0  0  0 

 -9.999999e-01  1.742267e-08  0 
 1.742267e-08  9.999998e-01  0 
 0  0  0 

 -1.000000e+00  -2.997154e-07  0 
 -2.997154e-07  9.999998e-01  0 
 0  0  0 

 -9.999984e-01  -2.858991e-06  0 
 -2.858991e-06  1.000005e+00  0 
 0  0  0 

 -1.000001e+00  9.267644e-07  0 
 9.267644e-07  1.000001e+00  0 
 0  0  0 

 -9.999999e-01  9.538125e-07  0 
 9.538125e-07  1.000001e+00  0 
 0  0  0 

 -9.999996e-01  4.877661e-07  0 
 4.877661e-07  1.000000e+00  0 
 0  0  0 

 -9.999997e-01  1.090699e-06  0 
 1.090699e-06  1.000001e+00  0 
 0  0  0 

 -1.000000e+00  -1.537902e-07  0 
 -1.537902e-07  9.999999e-01  0 
 0  0  0 

 -9.999999e-01  -2.156703e-08  0 
 -2.156703e-08  9.999997e-01  0 
 0  0  0 

 -9.999994e-01  -1.552194e-06  0 
 -1.552194e-06  1.000003e+00  0 
 0  0  0 

 -9.999998e-01  -6.229321e-07  0 
 -6.229321e-07  1.000000e+00  0 
 0  0  0 

 -9.999993e-01  -3.046002e-07  0 
 -3.046002e-07  9.999998e-01  0 
 0  0  0 

 -1.000000e+00  -5.333484e-07  0 
 -5.333484e-07  9.999995e-01  0 
 0  0  0 

 -1.000000e+00  -1.631315e-06  0 
 -1.631315e-06  1.000000e+00  0 
 0  0  0 

 -9.999999e-01  -5.173607e-07  0 
 -5.173607e-07  9.999991e-01  0 
 0  0  0 

 -9.999993e-01  -7.847837e-08  0 
 -7.847837e-08  9.999990e-01  0 
 0  0  0 

 -9.999996e-01  -7.287710e-07  0 
 -7.287710e-07  1.000000e+00  0 
 0  0  0 

 -9.999995e-01  2.460007e-06  0 
 2.460007e-06  9.999959e-01  0 
 0  0  0 

 -1.000001e+00  1.138886e-06  0 
 1.138886e-06  1.000000e+00  0 
 0  0  0 

 -9.999989e-01  3.554335e-07  0 
 3.554335e-07  9.999999e-01  0 
 0  0  0 

 -1.000000e+00  -5.195946e-07  0 
 -5.195946e-07  1.000000e+00  0 
 0  0  0 

 -9.999979e-01  4.569986e-06  0 
 4.569986e-06  1.000001e+00  0 
 0  0  0 

 -1.000001e+00  2.285431e-06  0 
 2.285431e-06  1.000002e+00  0 
 0  0  0 

 -9.999999e-01  -6.759215e-08  0 
 -6.759215e-08  1.000000e+00  0 
 0  0  0 

 -9.999993e-01  1.398384e-06  0 
 1.398384e-06  1.000001e+00  0 
 0  0  0 

 -9.999999e-01  -3.857385e-07  0 
 -3.857385e-07  9.999987e-01  0 
 0  0  0 

 -1.000000e+00  6.778433e-07  0 
 6.778433e-07  1.000001e+00  0 
 0  0  0 

 -1.000001e+00  -8.349458e-07  0 
 -8.349458e-07  1.000001e+00  0 
 0  0  0 

 -1.000000e+00  6.328164e-07  0 
 6.328164e-07  1.000001e+00  0 
 0  0  0 

 -1.000000e+00  -1.121370e-06  0 
 -1.121370e-06  1.000001e+00  0 
 0  0  0 

 -9.999978e-01  -8.834978e-07  0 
 -8.834978e-07  9.999987e-01  0 
 0  0  0 

 -9.999998e-01  -1.663776e-06  0 
 -1.663776e-06  9.999995e-01  0 
 0  0  0 

 -1.000000e+00  2.381165e-08  0 
 2.381165e-08  1.000000e+00  0 
 0  0  0 

 -1.000000e+00  8.956575e-08  0 
 8.956575e-08  1.000000e+00  0 
 0  0  0 

 -9.999999e-01  4.349576e-07  0 
 4.349576e-07  1.000001e+00  0 
 0  0  0 

 -1.000000e+00  -1.316345e-08  0 
 -1.316345e-08  1.000001e+00  0 
 0  0  0 

 -1.000000e+00  -2.810316e-09  0 
 -2.810316e-09  1.000000e+00  0 
 0  0  0 

 -9.999998e-01  3.876171e-07  0 
 3.876171e-07  9.999994e-01  0 
 0  0  0 

 -1.000000e+00  1.926550e-08  0 
 1.926550e-08  1.000000e+00  0 
 0  0  0 

 -1.000000e+00  -3.192930e-08  0 
 -3.192930e-08  9.999999e-01  0 
 0  0  0 

 -1.000000e+00  -4.328008e-09  0 
 -4.328008e-09  9.999999e-01  0 
 0  0  0 

 -1.000000e+00  6.633632e-08  0 
 6.633632e-08  1.000002e+00  0 
 0  0  0 

 -1.000000e+00  1.161166e-06  0 
 1.161166e-06  9.999997e-01  0 
 0  0  0 

 -1.000000e+00  3.454769e-07  0 
 3.454769e-07  1.000000e+00  0 
 0  0  0 

 -1.000000e+00  8.204282e-07  0 
 8.204282e-07  1.000001e+00  0 
 0  0  0 

 -1.000000e+00  -2.499781e-08  0 
 -2.499781e-08  1.000000e+00  0 
 0  0  0 

 -1.000000e+00  -1.333136e-07  0 
 -1.333136e-07  1.000000e+00  0 
 0  0  0 

 -1.000000e+00  -6.200141e-08  0 
 -6.200141e-08  9.999999e-01  0 
 0  0  0 

 -9.999998e-01  -2.800204e-08  0 
 -2.800204e-08  9.999999e-01  0 
 0  0  0 

 -9.999999e-01  3.352315e-07  0 
 3.352315e-07  1.000001e+00  0 
 0  0  0 

 -1.000000e+00  2.219527e-07  0 
 2.219527e-07  1.000001e+00  0 
 0  0  0 

 -9.999997e-01  7.489886e-08  0 
 7.489886e-08  1.000000e+00  0 
 0  0  0 

TENSORS element_stresses FLOAT
 -9.999999e-01  -1.324853e-07  0 
 -1.324853e-07  9.999996e-01  0 
 0  0  0 

 -1.000001e+00  -1.005568e-06  0 
 -1.005568e-06  1.000000e+00  0 
 0  0  0 

 -9.999987e-01  -2.456253e-06  0 
 -2.456253e-06  1.000001e+00  0 
 0  0  0 

 -1.000001e+00  -5.123540e-07  0 
 -5.123540e-07  1.000000e+00  0 
 0  0  0 

 -9.999985e-01  6.226451e-07  0 
 6.226451e-07  9.999998e-01  0 
 0  0  0 

 -1.000001e+00  -1.083962e-06  0 
 -1.083962e-06  9.999969e-01  0 
 0  0  0 

 -1.000000e+00  -2.585575e-07  0 
 -2.585575e-07  1.000000e+00  0 
 0  0  0 

 -1.000000e+00  -1.745309e-07  0 
 -1.745309e-07  1.000000e+00  0 
 0  0  0 

 -9.999999e-01  -2.287376e-07  0 
 -2.287376e-07  9.999999e-01  0 
 0  0  0 

 -9.999998e-01  -9.963423e-08  0 
 -9.963423e-08  9.999995e-01  0 
 0  0  0 

 -9.999996e-01  -1.189782e-07  0 
 -1.189782e-07  9.999996e-01  0 
 0  0  0 

 -1.000001e+00  -3.134961e-07  0 
 -3.134961e-07  1.000000e+00  0 
 0  0  0 

 -9.999998e-01  -2.184875e-07  0 
 -2.184875e-07  9.999996e-01  0 
 0  0  0 

 -1.000000e+00  -2.978086e-07  0 
 -2.978086e-07  1.000000e+00  0 
 0  0  0 

 -1.000000e+00  -1.420341e-07  0 
 -1.420341e-07  9.999998e-01  0 
 0  0  0 

 -9.999999e-01  -5.960002e-07  0 
 -5.960002e-07  1.000000e+00  0 
 0  0  0 

 -9.999999e-01  1.742267e-08  0 
 1.742267e-08  9.999998e-01  0 
 0  0  0 

 -1.000000e+00  -2.997154e-07  0 
 -2.997154e-07  9.999998e-01  0 
 0  0  0 

 -9.999984e-01  -2.858991e-06  0 
 -2.858991e-06  1.000005e+00  0 
 0  0  0 

 -1.000001e+00  9.267644e-07  0 
 9.267644e-07  1.000001e+00  0 
 0  0  0 

 -9.999999e-01  9.538125e-07  0 
 9.538125e-07  1.000001e+00  0 
 0  0  0 

 -9.999996e-01  4.877661e-07  0 
 4.877661e-07  1.000000e+00  0 
 0  0  0 

 -9.999997e-01  1.090699e-06  0 
 1.090699e-06  1.000001e+00  0 
 0  0  0 

 -1.000000e+00  -1.537902e-07  0 
 -1.537902e-07  9.999999e-01  0 
 0  0  0 

 -9.999999e-01  -2.156703e-08  0 
 -2.156703e-08  9.999997e-01  0 
 0  0  0 

 -9.999994e-01  -1.552194e-06  0 
 -1.552194e-06  1.000003e+00  0 
 0  0  0 

 -9.999998e-01  -6.229321e-07  0 
 -6.229321e-07  1.000000e+00  0 
 0  0  0 

 -9.999993e-01  -3.046002e-07  0 
 -3.046002e-07  9.999998e-01  0 
 0  0  0 

 -1.000000e+00  -5.333484e-07  0 
 -5.333484e-07  9.999995e-01  0 
 0  0  0 

 -1.000000e+00  -1.631315e-06  0 
 -1.631315e-06  1.000000e+00  0 
 0  0  0 

 -9.999999e-01  -5.173607e-07  0 
 -5.173607e-07  9.999991e-01  0 
 0  0  0 

 -9.999993e-01  -7.847837e-08  0 
 -7.847837e-08  9.999990e-01  0 
 0  0  0 

 -9.999996e-01  -7.287710e-07  0 
 -7.287710e-07  1.000000e+00  0 
 0  0  0 

 -9.999995e-01  2.460007e-06  0 
 2.460007e-06  9.999959e-01  0 
 0  0  0 

 -1.000001e+00  1.138886e-06  0 
 1.138886e-06  1.000000e+00  0 
 0  0  0 

 -9.999989e-01  3.554335e-07  0 
 3.554335e-07  9.999999e-01  0 
 0  0  0 

 -1.000000e+00  -5.195946e-07  0 
 -5.195946e-07  1.000000e+00  0 
 0  0  0 

 -9.999979e-01  4.569986e-06  0 
 4.569986e-06  1.000001e+00  0 