# vtk DataFile Version 3.1
this is an vtk file created by FEMAC
ASCII
DATASET UNSTRUCTURED_GRID
POINTS 47 FLOAT
0.900000 0.000000 0.000000
1.000000 0.000000 0.000000
1.100000 0.000000 0.000000
1.200000 0.000000 0.000000
1.300000 0.000000 0.000000
1.400000 0.000000 0.000000
1.500000 0.000000 0.000000
1.600000 0.000000 0.000000
1.700000 0.000000 0.000000
1.800000 0.000000 0.000000
1.314544 0.533627 0.000000
1.208411 0.481204 0.000000
1.204288 0.278543 0.000000
1.408130 0.248419 0.000000
1.134197 0.209598 0.000000
1.289562 0.211732 0.000000
1.567103 0.157568 0.000000
1.739682 0.095407 0.000000
1.303031 0.094760 0.000000
0.876918 0.147596 0.000000
0.974436 0.154855 0.000000
1.203916 0.374901 0.000000
1.080760 0.128842 0.000000
1.201896 0.140968 0.000000
1.108495 0.411714 0.000000
1.393709 0.409839 0.000000
1.521416 0.267090 0.000000
1.490364 0.095262 0.000000
1.628269 0.246276 0.000000
1.661062 0.157021 0.000000
1.447002 0.340225 0.000000
1.473382 0.187567 0.000000
1.203207 0.210549 0.000000
1.145030 0.065570 0.000000
1.233336 0.061492 0.000000
0.842998 0.062434 0.000000
1.394078 0.139623 0.000000
1.316586 0.328812 0.000000
1.106529 0.305601 0.000000
1.306202 0.436288 0.000000
0.938839 0.063039 0.000000
1.039829 0.064115 0.000000
1.022844 0.246886 0.000000
0.903918 0.249756 0.000000
1.608305 0.072068 0.000000
1.008953 0.368996 0.000000
0.955463 0.309034 0.000000
CELLS 67 268 
3 17  9  8
3 28 16 26
3 13 30 26
3 16 31 26
3 31 13 26
3 27 31 16
3 28 29 16
3 15 18 23
3 22 14 23
3 11 21 24
3 32 12 15
3 32 23 14
3 23 32 15
3 12 32 14
3 2 33  3
3 23 33 22
3 34  4  3
3 34 23 18
3 4 34 18
3 13 36 15
3 36 18 15
3 37 15 12
3 14 38 12
3 0 40  1
3 20 40 19
3 1 41  2
3 22 41 20
3 20 42 22
3 31 36 13
3 35 40  0
3 35 19 40
3 40 41  1
3 40 20 41
3 41 33  2
3 22 33 41
3 33 34  3
3 33 23 34
3 14 22 42
3 38 21 12
3 24 21 38
3 21 37 12
3 39 11 10
3 11 39 21
3 37 13 15
3 37 30 13
3 25 30 37
3 8 44 17
3 7 44  8
3 44 29 17
3 6 44  7
3 16 44 27
3 44 16 29
3 6 27 44
3 24 38 45
3 21 39 37
3 27 36 31
3 25 37 39
3 42 38 14
3 38 42 45
3 42 20 43
3 19 43 20
3 46 45 42
3 43 46 42
3 36  5 18
3 5 36 27
3 27  6  5
3 4 18  5
CELL_TYPES 67
5 5 5 5 5 5 5 5 5 5 5 5 5 5 5 5 5 5 5 5 5 5 5 5 5 5 5 5 5 5 5 5 5 5 5 5 5 5 5 5 5 5 5 5 5 5 5 5 5 5 5 5 5 5 5 5 5 5 5 5 5 5 5 5 5 5 5 
POINT_DATA 47
VECTORS displacement_ITER1 FLOAT
 -6.306693e-03  -1.213742e-03  0 
 -6.940470e-03  -1.517381e-03  0 
 -7.641638e-03  -1.585076e-03  0 
 -8.351508e-03  -1.632446e-03  0 
 -9.062865e-03  -1.727109e-03  0 
 -9.751960e-03  -1.850763e-03  0 
 -1.042569e-02  -2.080153e-03  0 
 -1.110070e-02  -2.391634e-03  0 
 -1.176453e-02  -2.744616e-03  0 
 -1.239262e-02  -3.281545e-03  0 
 -1.025265e-02  2.586458e-03  0 
 -8.112862e-03  8.497215e-04  0 
 -8.283890e-03  1.318571e-04  0 
 -9.416927e-03  -3.908551e-04  0 
 -7.886626e-03  -1.955511e-04  0 
 -8.789227e-03  -3.425452e-04  0 
 -1.043962e-02  -1.281718e-03  0 
 -1.163516e-02  -2.301256e-03  0 
 -8.973548e-03  -1.081787e-03  0 
 -6.275284e-03  -8.140677e-04  0 
 -6.841377e-03  -5.681919e-04  0 
 -8.231976e-03  5.966082e-04  0 
 -7.485861e-03  -6.840524e-04  0 
 -8.294857e-03  -6.637643e-04  0 
 -7.955078e-03  6.801544e-04  0 
 -9.078115e-03  4.638494e-04  0 
 -9.967885e-03  -5.479379e-04  0 
 -1.014292e-02  -1.437963e-03  0 
 -1.062000e-02  -8.842187e-04  0 
 -1.099060e-02  -1.605687e-03  0 
 -9.465203e-03  -6.812947e-05  0 
 -9.857252e-03  -8.601996e-04  0 
 -8.288167e-03  -2.612318e-04  0 
 -7.927375e-03  -1.141102e-03  0 
 -8.537755e-03  -1.226352e-03  0 
 -5.967422e-03  -9.725422e-04  0 
 -9.479465e-03  -9.640466e-04  0 
 -8.829692e-03  2.669765e-04  0 
 -7.809982e-03  3.191528e-04  0 
 -8.600595e-03  9.277495e-04  0 
 -6.480809e-03  -1.046137e-03  0 
 -7.179294e-03  -1.099430e-03  0 
 -7.299291e-03  -5.429703e-05  0 
 -6.747586e-03  -3.386052e-04  0 
 -1.093016e-02  -1.928903e-03  0 
 -7.562266e-03  4.123298e-04  0 
 -7.182129e-03  -3.202343e-06  0 
VECTORS displacement_ITER2 FLOAT
 -5.256058e-03  4.944191e-04  0 
 -5.953824e-03  5.035302e-04  0 
 -6.737929e-03  6.505944e-04  0 
 -7.511232e-03  7.801720e-04  0 
 -8.249487e-03  8.697712e-04  0 
 -8.942242e-03  9.278360e-04  0 
 -9.579630e-03  9.856875e-04  0 
 -1.017428e-02  1.088472e-03  0 
 -1.075543e-02  1.248721e-03  0 
 -1.136936e-02  1.437941e-03  0 
 -8.768216e-03  4.704872e-03  0 
 -7.719039e-03  3.813768e-03  0 
 -7.898121e-03  2.797567e-03  0 
 -9.203394e-03  2.511156e-03  0 
 -7.358702e-03  2.290070e-03  0 
 -8.403119e-03  2.345362e-03  0 
 -1.015491e-02  2.011580e-03  0 
 -1.119359e-02  1.930892e-03  0 
 -8.366737e-03  1.538478e-03  0 
 -5.404771e-03  1.166987e-03  0 
 -6.101335e-03  1.600367e-03  0 
 -7.923606e-03  3.395902e-03  0 
 -6.798125e-03  1.630496e-03  0 
 -7.714038e-03  1.840471e-03  0 
 -7.602180e-03  3.367116e-03  0 
 -8.869057e-03  3.425454e-03  0 
 -9.926276e-03  2.619675e-03  0 
 -9.608715e-03  1.579944e-03  0 
 -1.064975e-02  2.673315e-03  0 
 -1.079204e-02  2.122897e-03  0 
 -9.363883e-03  2.941004e-03  0 
 -9.576871e-03  2.151750e-03  0 
 -7.818669e-03  2.321027e-03  0 
 -7.177547e-03  1.219846e-03  0 
 -7.831837e-03  1.269768e-03  0 
 -4.923862e-03  7.778372e-04  0 
 -9.023982e-03  1.845136e-03  0 
 -8.595383e-03  3.105744e-03  0 
 -7.365941e-03  2.886825e-03  0 
 -8.312564e-03  3.765256e-03  0 
 -5.567513e-03  8.852068e-04  0 
 -6.355289e-03  1.072546e-03  0 
 -6.734680e-03  2.325296e-03  0 
 -6.090860e-03  1.870149e-03  0 
 -1.032592e-02  1.513609e-03  0 
 -7.120413e-03  2.902053e-03  0 
 -6.645489e-03  2.364677e-03  0 
VECTORS displacement_ITER3 FLOAT
 -5.980412e-03  -1.765833e-04  0 
 -6.568039e-03  -2.207735e-04  0 
 -7.259847e-03  -1.749954e-04  0 
 -7.978616e-03  -1.440189e-04  0 
 -8.703488e-03  -1.388886e-04  0 
 -9.412000e-03  -1.575784e-04  0 
 -1.010067e-02  -2.134843e-04  0 
 -1.078337e-02  -2.925818e-04  0 
 -1.146377e-02  -3.682839e-04  0 
 -1.215236e-02  -5.372794e-04  0 
 -8.704655e-03  3.768963e-03  0 
 -7.803089e-03  3.125038e-03  0 
 -8.025347e-03  1.881271e-03  0 
 -9.392436e-03  1.485425e-03  0 
 -7.547516e-03  1.371815e-03  0 
 -8.618523e-03  1.359530e-03  0 
 -1.045574e-02  7.850260e-04  0 
 -1.162689e-02  2.445721e-04  0 
 -8.718894e-03  5.335194e-04  0 
 -5.716292e-03  6.682353e-04  0 
 -6.405830e-03  8.576759e-04  0 
 -7.976546e-03  2.565353e-03  0 
 -7.145415e-03  7.490247e-04  0 
 -8.014007e-03  8.806616e-04  0 
 -7.521981e-03  2.693574e-03  0 
 -8.995539e-03  2.450192e-03  0 
 -1.008094e-02  1.483691e-03  0 
 -9.988792e-03  4.371208e-04  0 
 -1.078131e-02  1.316742e-03  0 
 -1.108241e-02  7.012446e-04  0 
 -9.485601e-03  1.925606e-03  0 
 -9.836185e-03  1.048686e-03  0 
 -8.022437e-03  1.379657e-03  0 
 -7.595688e-03  3.138591e-04  0 
 -8.227152e-03  3.059614e-04  0 
 -5.527359e-03  2.514461e-04  0 
 -9.332039e-03  7.918182e-04  0 
 -8.725971e-03  2.155053e-03  0 
 -7.393655e-03  2.053915e-03  0 
 -8.422144e-03  2.903770e-03  0 
 -6.137767e-03  1.805531e-04  0 
 -6.846740e-03  2.535841e-04  0 
 -6.804833e-03  1.543218e-03  0 
 -6.063017e-03  1.379758e-03  0 
 -1.078605e-02  1.916821e-04  0 
 -6.909609e-03  2.294344e-03  0 
 -6.493061e-03  1.783238e-03  0 
VECTORS displacement_ITER4 FLOAT
 -6.007732e-03  6.810580e-05  0 
 -6.596578e-03  -4.460923e-05  0 
 -7.210789e-03  -9.457001e-05  0 
 -7.829763e-03  -1.255656e-04  0 
 -8.454651e-03  -1.344369e-04  0 
 -9.086277e-03  -1.364147e-04  0 
 -9.720879e-03  -1.158467e-04  0 
 -1.034583e-02  -7.111007e-05  0 
 -1.096886e-02  -7.094483e-06  0 
 -1.160846e-02  8.516419e-05  0 
 -8.738974e-03  3.604916e-03  0 
 -7.799579e-03  2.979852e-03  0 
 -7.798238e-03  1.692464e-03  0 
 -9.165536e-03  1.480350e-03  0 
 -7.343124e-03  1.235819e-03  0 
 -8.377033e-03  1.235763e-03  0 
 -1.019891e-02  9.232256e-04  0 
 -1.131415e-02  6.503289e-04  0 
 -8.471160e-03  4.665305e-04  0 
 -5.691009e-03  9.752013e-04  0 
 -6.327548e-03  9.572516e-04  0 
 -7.783018e-03  2.345729e-03  0 
 -7.026630e-03  7.272829e-04  0 
 -7.808069e-03  7.719206e-04  0 
 -7.214291e-03  2.527610e-03  0 
 -9.020834e-03  2.504899e-03  0 
 -9.908318e-03  1.623077e-03  0 
 -9.681385e-03  4.929835e-04  0 
 -1.063951e-02  1.566917e-03  0 
 -1.083127e-02  9.726703e-04  0 
 -9.377562e-03  2.046889e-03  0 
 -9.588145e-03  1.094382e-03  0 
 -7.802730e-03  1.236918e-03  0 
 -7.465658e-03  2.993527e-04  0 
 -8.028747e-03  2.573921e-04  0 
 -5.558017e-03  5.077084e-04  0 
 -9.063407e-03  7.642056e-04  0 
 -8.545862e-03  2.028009e-03  0 
 -7.143008e-03  1.873090e-03  0 
 -8.423312e-03  2.783734e-03  0 
 -6.158102e-03  3.949164e-04  0 
 -6.801443e-03  3.347654e-04  0 
 -6.596054e-03  1.505178e-03  0 
 -5.832506e-03  1.616014e-03  0 
 -1.043716e-02  3.797943e-04  0 
 -6.520168e-03  2.273728e-03  0 
 -6.163393e-03  1.892741e-03  0 
VECTORS displacement_ITER5 FLOAT
 -5.848698e-03  6.523309e-05  0 
 -6.495694e-03  5.941259e-05  0 
 -7.147336e-03  6.711210e-05  0 
 -7.795730e-03  7.229177e-05  0 
 -8.443727e-03  7.575112e-05  0 
 -9.092644e-03  8.042669e-05  0 
 -9.745874e-03  8.019081e-05  0 
 -1.039939e-02  7.869064e-05  0 
 -1.105185e-02  7.398979e-05  0 
 -1.170015e-02  7.973777e-05  0 
 -8.560180e-03  3.530536e-03  0 
 -7.857475e-03  3.175013e-03  0 
 -7.837644e-03  1.869410e-03  0 
 -9.152942e-03  1.686402e-03  0 
 -7.378395e-03  1.425023e-03  0 
 -8.385440e-03  1.440657e-03  0 
 -1.017869e-02  1.111182e-03  0 
 -1.131764e-02  6.977310e-04  0 
 -8.465810e-03  6.898078e-04  0 
 -5.689948e-03  1.023780e-03  0 
 -6.337952e-03  1.078039e-03  0 
 -7.838505e-03  2.495570e-03  0 
 -7.029858e-03  9.032856e-04  0 
 -7.814938e-03  9.821873e-04  0 
 -7.220946e-03  2.743727e-03  0 
 -9.081618e-03  2.700139e-03  0 
 -9.886294e-03  1.829501e-03  0 
 -9.680963e-03  7.034459e-04  0 
 -1.059332e-02  1.713242e-03  0 
 -1.079403e-02  1.109786e-03  0 
 -9.405712e-03  2.273195e-03  0 
 -9.569882e-03  1.303019e-03  0 
 -7.826069e-03  1.431294e-03  0 
 -7.443039e-03  4.943579e-04  0 
 -8.013764e-03  4.714174e-04  0 
 -5.470229e-03  4.530840e-04  0 
 -9.056256e-03  9.859176e-04  0 
 -8.571588e-03  2.189979e-03  0 
 -7.198847e-03  2.050427e-03  0 
 -8.502571e-03  2.888723e-03  0 
 -6.097020e-03  4.691375e-04  0 
 -6.759689e-03  4.815949e-04  0 
 -6.651874e-03  1.676428e-03  0 
 -5.868527e-03  1.729023e-03  0 
 -1.045260e-02  5.496462e-04  0 
 -6.553463e-03  2.480592e-03  0 
 -6.208783e-03  2.092714e-03  0 
VECTORS displacement_ITER6 FLOAT
 -5.839862e-03  -5.184851e-06  0 
 -6.492295e-03  2.041884e-06  0 
 -7.145013e-03  6.270416e-06  0 
 -7.796137e-03  6.939280e-06  0 
 -8.446253e-03  6.241827e-06  0 
 -9.096226e-03  5.695225e-06  0 
 -9.746240e-03  4.835017e-06  0 
 -1.039695e-02  2.549555e-06  0 
 -1.104765e-02  -1.474850e-06  0 
 -1.169670e-02  -6.879960e-06  0 
 -8.543218e-03  3.469675e-03  0 
 -7.855997e-03  3.134071e-03  0 
 -7.823951e-03  1.813484e-03  0 
 -9.147886e-03  1.620259e-03  0 
 -7.369890e-03  1.366420e-03  0 
 -8.377511e-03  1.380809e-03  0 
 -1.018043e-02  1.027402e-03  0 
 -1.130045e-02  6.153219e-04  0 
 -8.465332e-03  6.219674e-04  0 
 -5.698120e-03  9.598754e-04  0 
 -6.334413e-03  1.012254e-03  0 
 -7.821558e-03  2.440126e-03  0 
 -7.023194e-03  8.436423e-04  0 
 -7.808683e-03  9.220696e-04  0 
 -7.202216e-03  2.674513e-03  0 
 -9.059322e-03  2.666335e-03  0 
 -9.885533e-03  1.742742e-03  0 
 -9.682517e-03  6.238624e-04  0 
 -1.057939e-02  1.602010e-03  0 
 -1.078890e-02  1.021041e-03  0 
 -9.398387e-03  2.216844e-03  0 
 -9.571536e-03  1.224081e-03  0 
 -7.817349e-03  1.372882e-03  0 
 -7.439168e-03  4.333413e-04  0 
 -8.012713e-03  4.062610e-04  0 
 -5.468942e-03  3.960720e-04  0 
 -9.056409e-03  9.129559e-04  0 
 -8.554208e-03  2.141210e-03  0 
 -7.188949e-03  1.987021e-03  0 
 -8.488967e-03  2.843743e-03  0 
 -6.096404e-03  4.099166e-04  0 
 -6.755121e-03  4.224906e-04  0 
 -6.648763e-03  1.608528e-03  0 
 -5.878801e-03  1.633207e-03  0 
 -1.044886e-02  4.715457e-04  0 
 -6.554102e-03  2.397824e-03  0 
 -6.211489e-03  2.011766e-03  0 
VECTORS displacement_ITER7 FLOAT
 -5.849804e-03  6.134449e-07  0 
 -6.498654e-03  -9.470132e-07  0 
 -7.148448e-03  -5.884309e-07  0 
 -7.798419e-03  -2.715387e-07  0 
 -8.448495e-03  2.391356e-07  0 
 -9.098715e-03  8.439751e-07  0 
 -9.748916e-03  1.795330e-06  0 
 -1.039936e-02  2.551898e-06  0 
 -1.104990e-02  2.988843e-06  0 
 -1.169995e-02  5.103926e-06  0 
 -8.539868e-03  3.467647e-03  0 
 -7.856847e-03  3.131568e-03  0 
 -7.826952e-03  1.811558e-03  0 
 -9.153154e-03  1.617127e-03  0 
 -7.370828e-03  1.362096e-03  0 
 -8.381562e-03  1.377327e-03  0 
 -1.018654e-02  1.026648e-03  0 
 -1.130818e-02  6.229924e-04  0 
 -8.468715e-03  6.164188e-04  0 
 -5.698178e-03  9.572514e-04  0 
 -6.332542e-03  1.005548e-03  0 
 -7.825103e-03  2.439157e-03  0 
 -7.023598e-03  8.367530e-04  0 
 -7.811095e-03  9.162556e-04  0 
 -7.205296e-03  2.676315e-03  0 
 -9.060646e-03  2.666730e-03  0 
 -9.890920e-03  1.739144e-03  0 
 -9.687102e-03  6.210588e-04  0 
 -1.058525e-02  1.602576e-03  0 
 -1.079651e-02  1.023883e-03  0 
 -9.404732e-03  2.214486e-03  0 
 -9.577343e-03  1.221208e-03  0 
 -7.819773e-03  1.369002e-03  0 
 -7.441279e-03  4.257634e-04  0 
 -8.015377e-03  3.996449e-04  0 
 -5.479272e-03  4.035243e-04  0 
 -9.061164e-03  9.089043e-04  0 
 -8.557803e-03  2.139563e-03  0 
 -7.190937e-03  1.986283e-03  0 
 -8.490727e-03  2.839521e-03  0 
 -6.101158e-03  4.085027e-04  0 
 -6.757542e-03  4.158765e-04  0 
 -6.646637e-03  1.603855e-03  0 
 -5.873060e-03  1.624029e-03  0 
 -1.045375e-02  4.714490e-04  0 
 -6.556269e-03  2.397961e-03  0 
 -6.208863e-03  2.007082e-03  0 
VECTORS displacement_ITER8 FLOAT
 -5.851788e-03  1.376202e-07  0 
 -6.501149e-03  -8.903081e-07  0 
 -7.150956e-03  -1.052301e-06  0 
 -7.800875e-03  -1.099037e-06  0 
 -8.450780e-03  -1.128401e-06  0 
 -9.100659e-03  -1.140536e-06  0 
 -9.750536e-03  -1.105419e-06  0 
 -1.040063e-02  -1.218141e-06  0 
 -1.105087e-02  -1.480210e-06  0 
 -1.170115e-02  -1.759556e-06  0 
 -8.543918e-03  3.467438e-03  0 
 -7.854137e-03  3.127028e-03  0 
 -7.828379e-03  1.809409e-03  0 
 -9.153329e-03  1.613148e-03  0 
 -7.372981e-03  1.361443e-03  0 
 -8.382788e-03  1.374976e-03  0 
 -1.018646e-02  1.022831e-03  0 
 -1.130832e-02  6.186076e-04  0 
 -8.470477e-03  6.147023e-04  0 
 -5.700561e-03  9.582996e-04  0 
 -6.334473e-03  1.005609e-03  0 
 -7.825497e-03  2.435569e-03  0 
 -7.025707e-03  8.364839e-04  0 
 -7.813100e-03  9.151830e-04  0 
 -7.204926e-03  2.675016e-03  0 
 -9.059527e-03  2.663054e-03  0 
 -9.889775e-03  1.734235e-03  0 
 -9.687889e-03  6.179450e-04  0 
 -1.058392e-02  1.599039e-03  0 
 -1.079685e-02  1.019451e-03  0 
 -9.405870e-03  2.209981e-03  0 
 -9.577512e-03  1.217574e-03  0 
 -7.821507e-03  1.367457e-03  0 
 -7.443550e-03  4.251118e-04  0 
 -8.017517e-03  3.985501e-04  0 
 -5.480823e-03  4.053723e-04  0 
 -9.062180e-03  9.061645e-04  0 
 -8.558002e-03  2.135834e-03  0 
 -7.193005e-03  1.985598e-03  0 
 -8.490391e-03  2.834473e-03  0 
 -6.103371e-03  4.089416e-04  0 
 -6.759763e-03  4.157165e-04  0 
 -6.649128e-03  1.604051e-03  0 
 -5.875828e-03  1.622676e-03  0 
 -1.045439e-02  4.673467e-04  0 
 -6.558751e-03  2.398175e-03  0 
 -6.211419e-03  2.007824e-03  0 
VECTORS displacement_ITER9 FLOAT
 -5.849891e-03  1.517694e-07  0 
 -6.499664e-03  -8.831558e-08  0 
 -7.149608e-03  -6.213577e-08  0 
 -7.799624e-03  1.262627e-08  0 
 -8.449668e-03  6.090730e-08  0 
 -9.099707e-03  8.235357e-08  0 
 -9.749747e-03  6.077894e-08  0 
 -1.039972e-02  1.154000e-07  0 
 -1.104964e-02  2.312060e-07  0 
 -1.169954e-02  6.452709e-07  0 
 -8.544728e-03  3.468537e-03  0 
 -7.854839e-03  3.127771e-03  0 
 -7.827646e-03  1.810574e-03  0 
 -9.152559e-03  1.614903e-03  0 
 -7.372019e-03  1.362441e-03  0 
 -8.381867e-03  1.376382e-03  0 
 -1.018595e-02  1.024338e-03  0 
 -1.130784e-02  6.204173e-04  0 
 -8.469398e-03  6.160427e-04  0 
 -5.699473e-03  9.593354e-04  0 
 -6.333403e-03  1.006490e-03  0 
 -7.825262e-03  2.436753e-03  0 
 -7.024576e-03  8.374626e-04  0 
 -7.812012e-03  9.163680e-04  0 
 -7.205028e-03  2.675860e-03  0 
 -9.059067e-03  2.664314e-03  0 
 -9.888959e-03  1.736271e-03  0 
 -9.687114e-03  6.193180e-04  0 
 -1.058348e-02  1.600917e-03  0 
 -1.079672e-02  1.020745e-03  0 
 -9.405258e-03  2.211745e-03  0 
 -9.576728e-03  1.219333e-03  0 
 -7.820573e-03  1.368634e-03  0 
 -7.442330e-03  4.262010e-04  0 
 -8.016350e-03  3.997597e-04  0 
 -5.479001e-03  4.061274e-04  0 
 -9.061231e-03  9.076867e-04  0 
 -8.557534e-03  2.137381e-03  0 
 -7.192305e-03  1.986425e-03  0 
 -8.490339e-03  2.835953e-03  0 
 -6.102006e-03  4.096957e-04  0 
 -6.758489e-03  4.166606e-04  0 
 -6.648249e-03  1.604794e-03  0 
 -5.875082e-03  1.623310e-03  0 
 -1.045379e-02  4.685189e-04  0 
 -6.558239e-03  2.398551e-03  0 
 -6.210550e-03  2.008555e-03  0 
VECTORS displacement_ITER10 FLOAT
 -5.850011e-03  1.840161e-08  0 
 -6.500022e-03  3.211763e-08  0 
 -7.150013e-03  1.600017e-08  0 
 -7.800005e-03  1.194232e-08  0 
 -8.450001e-03  1.680069e-08  0 
 -9.100001e-03  2.383648e-08  0 
 -9.750002e-03  2.788775e-08  0 
 -1.040000e-02  2.693655e-08  0 
 -1.105001e-02  2.705924e-08  0 
 -1.170001e-02  2.921084e-09  0 
 -8.544478e-03  3.468488e-03  0 
 -7.854710e-03  3.127895e-03  0 
 -7.827895e-03  1.810555e-03  0 
 -9.152864e-03  1.614744e-03  0 
 -7.372283e-03  1.362392e-03  0 
 -8.382166e-03  1.376278e-03  0 
 -1.018618e-02  1.024224e-03  0 
 -1.130792e-02  6.201677e-04  0 
 -8.469710e-03  6.159593e-04  0 
 -5.700035e-03  9.594215e-04  0 
 -6.333857e-03  1.006563e-03  0 
 -7.825497e-03  2.436884e-03  0 
 -7.024949e-03  8.374811e-04  0 
 -7.812328e-03  9.163031e-04  0 
 -7.205236e-03  2.676189e-03  0 
 -9.059134e-03  2.663992e-03  0 
 -9.889205e-03  1.736100e-03  0 
 -9.687372e-03  6.192321e-04  0 
 -1.058374e-02  1.600818e-03  0 
 -1.079691e-02  1.020655e-03  0 
 -9.405525e-03  2.211460e-03  0 
 -9.576995e-03  1.219209e-03  0 
 -7.820853e-03  1.368581e-03  0 
 -7.442698e-03  4.262160e-04  0 
 -8.016691e-03  3.997128e-04  0 
 -5.479465e-03  4.058212e-04  0 
 -9.061518e-03  9.075744e-04  0 
 -8.557830e-03  2.137302e-03  0 
 -7.192462e-03  1.986427e-03  0 
 -8.490371e-03  2.835881e-03  0 
 -6.102469e-03  4.097923e-04  0 
 -6.758901e-03  4.167642e-04  0 
 -6.648479e-03  1.604738e-03  0 
 -5.875458e-03  1.623383e-03  0 
 -1.045399e-02  4.684700e-04  0 
 -6.558204e-03  2.398529e-03  0 
 -6.210505e-03  2.008646e-03  0 
VECTORS displacement_ITER11 FLOAT
 -5.849985e-03  -4.764849e-09  0 
 -6.499996e-03  1.025859e-08  0 
 -7.149999e-03  1.150285e-08  0 
 -7.800001e-03  1.020954e-08  0 
 -8.450001e-03  7.745854e-09  0 
 -9.100001e-03  5.769486e-09  0 
 -9.750000e-03  4.041294e-09  0 
 -1.040000e-02  2.744251e-09  0 
 -1.105000e-02  2.700604e-10  0 
 -1.170000e-02  -1.002708e-09  0 
 -8.544547e-03  3.468594e-03  0 
 -7.854667e-03  3.127834e-03  0 
 -7.827869e-03  1.810537e-03  0 
 -9.152845e-03  1.614729e-03  0 
 -7.372280e-03  1.362395e-03  0 
 -8.382148e-03  1.376262e-03  0 
 -1.018617e-02  1.024198e-03  0 
 -1.130793e-02  6.201458e-04  0 
 -8.469703e-03  6.159494e-04  0 
 -5.699969e-03  9.593847e-04  0 
 -6.333837e-03  1.006570e-03  0 
 -7.825451e-03  2.436866e-03  0 
 -7.024944e-03  8.374884e-04  0 
 -7.812321e-03  9.163029e-04  0 
 -7.205208e-03  2.676148e-03  0 
 -9.059097e-03  2.663965e-03  0 
 -9.889198e-03  1.736086e-03  0 
 -9.687366e-03  6.192079e-04  0 
 -1.058374e-02  1.600792e-03  0 
 -1.079690e-02  1.020638e-03  0 
 -9.405508e-03  2.211463e-03  0 
 -9.576984e-03  1.219187e-03  0 
 -7.820841e-03  1.368573e-03  0 
 -7.442693e-03  4.262191e-04  0 
 -8.016687e-03  3.997103e-04  0 
 -5.479482e-03  4.058105e-04  0 
 -9.061507e-03  9.075564e-04  0 
 -8.557804e-03  2.137283e-03  0 
 -7.192431e-03  1.986416e-03  0 
 -8.490307e-03  2.835882e-03  0 
 -6.102451e-03  4.097597e-04  0 
 -6.758891e-03  4.167583e-04  0 
 -6.648487e-03  1.604774e-03  0 
 -5.875458e-03  1.623431e-03  0 
 -1.045398e-02  4.684445e-04  0 
 -6.558186e-03  2.398486e-03  0 
 -6.210511e-03  2.008742e-03  0 
VECTORS displacement_ITER12 FLOAT
 -5.849999e-03  5.562314e-10  0 
 -6.500000e-03  7.639820e-10  0 
 -7.149999e-03  5.491944e-10  0 
 -7.799999e-03  6.148592e-10  0 
 -8.449999e-03  7.655227e-10  0 
 -9.099999e-03  7.903357e-10  0 
 -9.749999e-03  1.194977e-09  0 
 -1.040000e-02  1.724117e-09  0 
 -1.105000e-02  2.718500e-09  0 
 -1.170000e-02  2.221438e-09  0 
 -8.544537e-03  3.468573e-03  0 
 -7.854671e-03  3.127828e-03  0 
 -7.827874e-03  1.810531e-03  0 
 -9.152846e-03  1.614727e-03  0 
 -7.372280e-03  1.362386e-03  0 
 -8.382151e-03  1.376257e-03  0 
 -1.018617e-02  1.024195e-03  0 
 -1.130793e-02  6.201485e-04  0 
 -8.469703e-03  6.159432e-04  0 
 -5.699963e-03  9.593740e-04  0 
 -6.333833e-03  1.006560e-03  0 
 -7.825457e-03  2.436861e-03  0 
 -7.024941e-03  8.374766e-04  0 
 -7.812321e-03  9.162944e-04  0 
 -7.205214e-03  2.676143e-03  0 
 -9.059105e-03  2.663957e-03  0 
 -9.889201e-03  1.736085e-03  0 
 -9.687367e-03  6.192046e-04  0 
 -1.058375e-02  1.600793e-03  0 
 -1.079690e-02  1.020636e-03  0 
 -9.405510e-03  2.211464e-03  0 
 -9.576985e-03  1.219184e-03  0 
 -7.820843e-03  1.368566e-03  0 
 -7.442692e-03  4.262077e-04  0 
 -8.016686e-03  3.997019e-04  0 
 -5.479489e-03  4.058196e-04  0 
 -9.061509e-03  9.075528e-04  0 
 -8.557808e-03  2.137276e-03  0 
 -7.192436e-03  1.986410e-03  0 
 -8.490312e-03  2.835873e-03  0 
 -6.102451e-03  4.097516e-04  0 
 -6.758891e-03  4.167464e-04  0 
 -6.648485e-03  1.604761e-03  0 
 -5.875463e-03  1.623413e-03  0 
 -1.045398e-02  4.684435e-04  0 
 -6.558197e-03  2.398474e-03  0 
 -6.210511e-03  2.008723e-03  0 
CELL_DATA 67
TENSORS element_stresses FLOAT
 -1.000001e+00  4.828118e-07  0 
 4.828118e-07  1.000000e+00  0 
 0  0  0 

 -1.000001e+00  -9.269884e-08  0 
 -9.269884e-08  1.000000e+00  0 
 0  0  0 

 -1.000000e+00  8.203869e-07  0 
 8.203869e-07  9.999996e-01  0 
 0  0  0 

 -1.000000e+00  3.822071e-07  0 
 3.822071e-07  1.000000e+00  0 
 0  0  0 

 -1.000000e+00  4.128272e-07  0 
 4.128272e-07  1.000000e+00  0 
 0  0  0 

 -1.000001e+00  -4.476352e-07  0 
 -4.476352e-07  1.000001e+00  0 
 0  0  0 

 -1.000001e+00  5.900170e-07  0 
 5.900170e-07  9.999994e-01  0 
 0  0  0 

 -1.000000e+00  2.806848e-08  0 
 2.806848e-08  1.000000e+00  0 
 0  0  0 

 -1.000000e+00  -1.128242e-07  0 
 -1.128242e-07  1.000000e+00  0 
 0  0  0 

 -9.999996e-01  1.055094e-08  0 
 1.055094e-08  1.000001e+00  0 
 0  0  0 

 -1.000000e+00  5.037096e-08  0 
 5.037096e-08  1.000000e+00  0 
 0  0  0 

 -1.000000e+00  -5.123154e-08  0 
 -5.123154e-08  1.000000e+00  0 
 0  0  0 

 -1.000000e+00  -1.292475e-08  0 
 -1.292475e-08  1.000000e+00  0 
 0  0  0 

 -1.000000e+00  1.212644e-08  0 
 1.212644e-08  1.000000e+00  0 
 0  0  0 

 -9.999999e-01  9.508364e-08  0 
 9.508364e-08  9.999999e-01  0 
 0  0  0 

 -1.000000e+00  4.295662e-07  0 
 4.295662e-07  1.000000e+00  0 
 0  0  0 

 -1.000000e+00  4.497421e-08  0 
 4.497421e-08  1.000000e+00  0 
 0  0  0 

 -1.000000e+00  5.069258e-08  0 
 5.069258e-08  1.000000e+00  0 
 0  0  0 

 -1.000000e+00  3.391243e-08  0 
 3.391243e-08  1.000000e+00  0 
 0  0  0 

 -1.000000e+00  1.744183e-07  0 
 1.744183e-07  1.000001e+00  0 
 0  0  0 

 -1.000000e+00  6.015561e-09  0 
 6.015561e-09  1.000000e+00  0 
 0  0  0 

 -1.000000e+00  -1.652218e-09  0 
 -1.652218e-09  1.000000e+00  0 
 0  0  0 

 -1.000000e+00  2.197267e-07  0 
 2.197267e-07  1.000000e+00  0 
 0  0  0 

 -1.000000e+00  -6.354000e-07  0 
 -6.354000e-07  9.999998e-01  0 
 0  0  0 

 -1.000001e+00  7.177722e-07  0 
 7.177722e-07  1.000000e+00  0 
 0  0  0 

 -9.999997e-01  -1.732883e-07  0 
 -1.732883e-07  9.999992e-01  0 
 0  0  0 

 -1.000001e+00  1.213466e-06  0 
 1.213466e-06  1.000000e+00  0 
 0  0  0 

 -1.000001e+00  -5.746234e-07  0 
 -5.746234e-07  1.000001e+00  0 
 0  0  0 

 -1.000000e+00  1.715281e-07  0 
 1.715281e-07  1.000000e+00  0 
 0  0  0 

 -9.999976e-01  -3.333821e-06  0 
 -3.333821e-06  1.000002e+00  0 
 0  0  0 

 -9.999979e-01  2.574734e-06  0 
 2.574734e-06  1.000001e+00  0 
 0  0  0 

 -9.999992e-01  -3.345476e-07  0 
 -3.345476e-07  9.999993e-01  0 
 0  0  0 

 -9.999991e-01  1.552040e-06  0 
 1.552040e-06  9.999999e-01  0 
 0  0  0 

 -9.999998e-01  1.255571e-07  0 
 1.255571e-07  9.999998e-01  0 
 0  0  0 

 -9.999997e-01  7.594239e-07  0 
 7.594239e-07  1.000000e+00  0 
 0  0  0 

 -1.000000e+00  1.718182e-07  0 
 1.718182e-07  1.000000e+00  0 
 0  0  0 

 -1.000000e+00  2.769402e-07  0 
 2.769402e-07  1.000000e+00  0 
 0  0  0 

 -9.999999e-01  -4.238637e-07  0 
 -4.238637e-07  1.000001e+00  0 
 0  0  0 

 -1.000001e+00  -7.185216e-07  0 
 -7.185216e-07  1.000000e+00  0 
 0  0  0 

 -1.000000e+00  -1.383009e-06  0 
 -1.383009e-06  1.000002e+00  0 
 0  0  0 

 -9.999995e-01  -8.925855e-07  0 
 -8.925855e-07  1.000000e+00  0 
 0  0  0 

 -1.000002e+00  -2.885328e-06  0 
 -2.885328e-06  9.999954e-01  0 
 0  0  0 

 -1.000000e+00  -1.077747e-06  0 
 -1.077747e-06  1.000000e+00  0 
 0  0  0 

 -1.000000e+00  2.004579e-07  0 
 2.004579e-07  1.000000e+00  0 
 0  0  0 

 -9.999995e-01  5.166400e-07  0 
 5.166400e-07  9.999999e-01  0 
 0  0  0 

 -9.999999e-01  8.440889e-07  0 
 8.440889e-07  9.999988e-01  0 
 0  0  0 

 -9.999987e-01  1.891268e-06  0 
 1.891268e-06  9.999996e-01  0 
 0  0  0 

 -1.000000e+00  7.419169e-07  0 
 7.419169e-07  9.999993e-01  0 
 0  0  0 

 -9.999981e-01  -1.559018e-06  0 
 -1.559018e-06  9.999987e-01  0 
 0  0  0 

 -9.999996e-01  -8.105722e-10  0 
 -8.105722e-10  9.999996e-01  0 
 0  0  0 

 -9.999999e-01  -7.312753e-07  0 
 -7.312753e-07  9.999994e-01  0 
 0  0  0 

 -1.000001e+00  -1.426286e-06  0 
 -1.426286e-06  9.999988e-01  0 
 0  0  0 

 -9.999996e-01  1.149618e-08  0 
 1.149618e-08  9.999996e-01  0 
 0  0  0 

 -9.999998e-01  1.751122e-06  0 
 1.751122e-06  1.000002e+00  0 
 0  0  0 

 -9.999999e-01  -1.045528e-06  0 
 -1.045528e-06  9.999977e-01  0 
 0  0  0 

 -1.000000e+00  -1.830418e-07  0 
 -1.830418e-07  1.000001e+00  0 
 0  0  0 

 -9.999987e-01  6.378520e-07  0 
 6.378520e-07  9.999982e-01  0 
 0  0  0 

 -9.999999e-01  -3.345422e-08  0 
 -3.345422e-08  1.000000e+00  0 
 0  0  0 

 -1.000000e+00  7.636537e-07  0 
 7.636537e-07  9.999981e-01  0 
 0  0  0 

 -1.000001e+00  1.012164e-07  0 
 1.012164e-07  1.000000e+00  0 
 0  0  0 

 -1.000002e+00  -2.486292e-06  0 
 -2.486292e-06  9.999972e-01  0 
 0  0  0 

 -9.999956e-01  1.571295e-06  0 
 1.571295e-06  9.999996e-01  0 
 0  0  0 

 -1.000002e+00  -3.400784e-06  0 
 -3.400784e-06  9.999973e-01  0 
 0  0  0 

 -1.000000e+00  -6.864953e-08  0 
 -6.864953e-08  1.000000e+00  0 
 0  0  0 

 -1.000000e+00  -3.277189e-07  0 
 -3.277189e-07  1.000000e+00  0 
 0  0  0 

 -9.999997e-01  -1.747881e-07  0 
 -1.747881e-07  9.999995e-01  0 
 0  0  0 

 -1.000000e+00  -1.242695e-07  0 
 -1.242695e-07  1.000000e+00  0 
 0  0  0 

TENSORS element_stresses FLOAT
 -1.000001e+00  4.828118e-07  0 
 4.828118e-07  1.000000e+00  0 
 0  0  0 

 -1.000001e+00  -9.269884e-08  0 
 -9.269884e-08  1.000000e+00  0 
 0  0  0 

 -1.000000e+00  8.203869e-07  0 
 8.203869e-07  9.999996e-01  0 
 0  0  0 

 -1.000000e+00  3.822071e-07  0 
 3.822071e-07  1.000000e+00  0 
 0  0  0 

 -1.000000e+00  4.128272e-07  0 
 4.128272e-07  1.000000e+00  0 
 0  0  0 

 -1.000001e+00  -4.476352e-07  0 
 -4.476352e-07  1.000001e+00  0 
 0  0  0 

 -1.000001e+00  5.900170e-07  0 
 5.900170e-07  9.999994e-01  0 
 0  0  0 

 -1.000000e+00  2.806848e-08  0 
 2.806848e-08  1.000000e+00  0 
 0  0  0 

 -1.000000e+00  -1.128242e-07  0 
 -1.128242e-07  1.000000e+00  0 
 0  0  0 

 -9.999996e-01  1.055094e-08  0 
 1.055094e-08  1.000001e+00  0 
 0  0  0 

 -1.000000e+00  5.037096e-08  0 
 5.037096e-08  1.000000e+00  0 
 0  0  0 

 -1.000000e+00  -5.123154e-08  0 
 -5.123154e-08  1.000000e+00  0 
 0  0  0 

 -1.000000e+00  -1.292475e-08  0 
 -1.292475e-08  1.000000e+00  0 
 0  0  0 

 -1.000000e+00  1.212644e-08  0 
 1.212644e-08  1.000000e+00  0 
 0  0  0 

 -9.999999e-01  9.508364e-08  0 
 9.508364e-08  9.999999e-01  0 
 0  0  0 

 -1.000000e+00  4.295662e-07  0 
 4.295662e-07  1.000000e+00  0 
 0  0  0 

 -1.000000e+00  4.497421e-08  0 
 4.497421e-08  1.000000e+00  0 
 0  0  0 

 -1.000000e+00  5.069258e-08  0 
 5.069258e-08  1.000000e+00  0 
 0  0  0 

 -1.000000e+00  3.391243e-08  0 
 3.391243e-08  1.000000e+00  0 
 0  0  0 

 -1.000000e+00  1.744183e-07  0 
 1.744183e-07  1.000001e+00  0 
 0  0  0 

 -1.000000e+00  6.015561e-09  0 
 6.015561e-09  1.000000e+00  0 
 0  0  0 

 -1.000000e+00  -1.652218e-09  0 
 -1.652218e-09  1.000000e+00  0 
 0  0  0 

 -1.000000e+00  2.197267e-07  0 
 2.197267e-07  1.000000e+00  0 
 0  0  0 

 -1.000000e+00  -6.354000e-07  0 
 -6.354000e-07  9.999998e-01  0 
 0  0  0 

 -1.000001e+00  7.177722e-07  0 
 7.177722e-07  1.000000e+00  0 
 0  0  0 

 -9.999997e-01  -1.732883e-07  0 
 -1.732883e-07  9.999992e-01  0 
 0  0  0 

 -1.000001e+00  1.213466e-06  0 
 1.213466e-06  1.000000e+00  0 
 0  0  0 

 -1.000001e+00  -5.746234e-07  0 
 -5.746234e-07  1.000001e+00  0 
 0  0  0 

 -1.000000e+00  1.715281e-07  0 
 1.715281e-07  1.000000e+00  0 
 0  0  0 

 -9.999976e-01  -3.333821e-06  0 
 -3.333821e-06  1.000002e+00  0 
 0  0  0 

 -9.999979e-01  2.574734e-06  0 
 2.574734e-06  1.000001e+00  0 
 0  0  0 

 -9.999992e-01  -3.345476e-07  0 
 -3.345476e-07  9.999993e-01  0 
 0  0  0 

 -9.999991e-01  1.552040e-06  0 
 1.552040e-06  9.999999e-01  0 
 0  0  0 

 -9.999998e-01  1.255571e-07  0 
 1.255571e-07  9.999998e-01  0 
 0  0  0 

 -9.999997e-01  7.594239e-07  0 
 7.594239e-07  1.000000e+00  0 
 0  0  0 

 -1.000000e+00  1.718182e-07  0 
 1.718182e-07  1.000000e+00  0 
 0  0  0 

 -1.000000e+00  2.769402e-07  0 
 2.769402e-07  1.000000e+00  0 
 0  0  0 

 -9.999999e-01  -4.238637e-07  0 
 -4.238637e-07  1.000001e+00  0 
 0  0  0 

 -1.000001e+00  -7.185216e-07  0 
 -7.185216e-07  1.000000e+00  0 
 0  0  0 

 -1.000000e+00  -1.383009e-06  0 
 -1.383009e-06  1.000002e+00  0 
 0  0  0 

 -9.999995e-01  -8.925855e-07  0 
 -8.925855e-07  1.000000e+00  0 
 0  0  0 

 -1.000002e+00  -2.885328e-06  0 
 -2.885328e-06  9.999954e-01  0 
 0  0  0 

 -1.000000e+00  -1.077747e-06  0 
 -1.077747e-06  1.000000e+00  0 
 0  0  0 

 -1.000000e+00  2.004579e-07  0 
 2.004579e-07  1.000000e+00  0 
 0  0  0 
