# vtk DataFile Version 3.1
this is an vtk file created by FEMAC
ASCII
DATASET UNSTRUCTURED_GRID
POINTS 46 FLOAT
0.000000 1.000000 0.000000
0.000000 0.400000 0.000000
0.000000 0.500000 0.000000
0.000000 0.600000 0.000000
0.000000 0.700000 0.000000
0.000000 0.800000 0.000000
0.000000 0.900000 0.000000
0.100000 1.000000 0.000000
0.200000 1.000000 0.000000
0.300000 1.000000 0.000000
0.368975 0.473192 0.000000
0.208710 0.846196 0.000000
0.281585 0.661748 0.000000
0.166555 0.505516 0.000000
0.094601 0.847208 0.000000
0.075807 0.648449 0.000000
0.252352 0.762951 0.000000
0.254790 0.932420 0.000000
0.149864 0.927913 0.000000
0.393251 0.654821 0.000000
0.419311 0.382189 0.000000
0.397404 0.854615 0.000000
0.470706 0.766330 0.000000
0.139693 0.598332 0.000000
0.313088 0.408029 0.000000
0.264844 0.493670 0.000000
0.075988 0.455083 0.000000
0.082842 0.743009 0.000000
0.223353 0.586283 0.000000
0.323902 0.568645 0.000000
0.170293 0.679241 0.000000
0.362690 0.760430 0.000000
0.151110 0.768164 0.000000
0.605754 0.584343 0.000000
0.513324 0.555407 0.000000
0.503945 0.640382 0.000000
0.567465 0.492317 0.000000
0.597406 0.708022 0.000000
0.425806 0.560587 0.000000
0.667342 0.485567 0.000000
0.470483 0.484496 0.000000
0.305445 0.849458 0.000000
0.076341 0.551230 0.000000
0.068893 0.935024 0.000000
0.468986 0.901096 0.000000
0.354438 0.922931 0.000000
CELLS 67 268 
3 9 17  8
3 18 11 14
3 6 14  5
3 11 18 17
3 18  7  8
3 17 18  8
3 15  3  4
3 25 10 24
3 14 27  5
3 28 13 23
3 30 15 27
3 12 31 19
3 32 14 11
3 16 32 11
3 14 32 27
3 25 29 10
3 28 25 13
3 23 15 30
3 30 32 16
3 30 27 32
3 26  1  2
3 4  5 27
3 15  4 27
3 12 29 28
3 25 28 29
3 29 12 19
3 24 10 20
3 16 31 12
3 35 19 22
3 29 38 10
3 40 20 10
3 15 42  3
3 42 15 23
3 38 40 10
3 42  2  3
3 26  2 42
3 13 42 23
3 13 26 42
3 34 33 36
3 31 22 19
3 21 22 31
3 41 21 31
3 19 38 29
3 35 38 19
3 34 38 35
3 30 16 12
3 28 30 12
3 30 28 23
3 22 37 35
3 43  6  0
3 7 43  0
3 6 43 14
3 18 43  7
3 18 14 43
3 34 36 40
3 40 38 34
3 17 41 11
3 41 16 11
3 16 41 31
3 35 33 34
3 35 37 33
3 41 45 21
3 44 21 45
3 45 17  9
3 41 17 45
3 39 36 33
3 21 44 22
CELL_TYPES 67
5 5 5 5 5 5 5 5 5 5 5 5 5 5 5 5 5 5 5 5 5 5 5 5 5 5 5 5 5 5 5 5 5 5 5 5 5 5 5 5 5 5 5 5 5 5 5 5 5 5 5 5 5 5 5 5 5 5 5 5 5 5 5 5 5 5 5 
POINT_DATA 46
VECTORS displacement_ITER1 FLOAT
 0  6.136152e-03  0 
 3.626373e-16  2.050126e-03  0 
 -1.203001e-16  2.469461e-03  0 
 4.490579e-16  3.376291e-03  0 
 -1.315783e-15  4.147604e-03  0 
 9.684161e-16  4.835507e-03  0 
 -5.988691e-16  5.489854e-03  0 
 -6.189153e-04  6.103453e-03  0 
 -1.245093e-03  6.026060e-03  0 
 -1.858647e-03  5.781061e-03  0 
 -2.954086e-03  2.401539e-03  0 
 -1.403827e-03  5.023107e-03  0 
 -1.959374e-03  3.894179e-03  0 
 -1.203218e-03  2.834538e-03  0 
 -6.397958e-04  5.121799e-03  0 
 -5.746597e-04  3.778325e-03  0 
 -1.699737e-03  4.496225e-03  0 
 -1.695301e-03  5.509044e-03  0 
 -9.862072e-04  5.608374e-03  0 
 -2.758803e-03  3.712931e-03  0 
 -3.102779e-03  2.149980e-03  0 
 -2.574895e-03  5.018086e-03  0 
 -3.005440e-03  4.426683e-03  0 
 -1.073159e-03  3.442688e-03  0 
 -2.931935e-03  2.218772e-03  0 
 -2.275037e-03  2.719089e-03  0 
 -2.807564e-04  2.289530e-03  0 
 -5.907977e-04  4.441718e-03  0 
 -1.669031e-03  3.487744e-03  0 
 -2.454606e-03  3.142399e-03  0 
 -1.238703e-03  4.017852e-03  0 
 -2.361737e-03  4.456252e-03  0 
 -1.044319e-03  4.578805e-03  0 
 -4.060771e-03  3.061345e-03  0 
 -3.714413e-03  3.094331e-03  0 
 -3.601949e-03  3.363535e-03  0 
 -4.233410e-03  2.809343e-03  0 
 -4.213479e-03  3.610144e-03  0 
 -3.209473e-03  2.972712e-03  0 
 -5.048491e-03  2.383652e-03  0 
 -3.438215e-03  2.627041e-03  0 
 -2.019446e-03  4.972312e-03  0 
 -6.046731e-04  3.006631e-03  0 
 -4.501148e-04  5.705477e-03  0 
 -3.182355e-03  5.563647e-03  0 
 -2.358765e-03  5.372380e-03  0 
VECTORS displacement_ITER2 FLOAT
 0  7.123132e-03  0 
 4.521047e-16  3.105888e-03  0 
 -1.515880e-16  3.522943e-03  0 
 5.658497e-16  4.381806e-03  0 
 -1.657994e-15  5.154484e-03  0 
 1.220284e-15  5.857157e-03  0 
 -7.546242e-16  6.507946e-03  0 
 -5.895250e-04  7.101886e-03  0 
 -1.171754e-03  7.045991e-03  0 
 -1.710969e-03  6.849333e-03  0 
 -2.723677e-03  3.449848e-03  0 
 -1.358967e-03  6.080426e-03  0 
 -1.943467e-03  4.863562e-03  0 
 -1.135366e-03  3.825080e-03  0 
 -6.163578e-04  6.152959e-03  0 
 -5.570459e-04  4.775979e-03  0 
 -1.691511e-03  5.519652e-03  0 
 -1.591873e-03  6.580961e-03  0 
 -9.327553e-04  6.643944e-03  0 
 -2.738697e-03  4.704777e-03  0 
 -2.835602e-03  3.191120e-03  0 
 -2.547797e-03  6.001542e-03  0 
 -3.086096e-03  5.411270e-03  0 
 -1.029616e-03  4.429897e-03  0 
 -2.652113e-03  3.260172e-03  0 
 -2.102954e-03  3.702563e-03  0 
 -2.820824e-04  3.343595e-03  0 
 -5.763036e-04  5.457045e-03  0 
 -1.606091e-03  4.437768e-03  0 
 -2.350506e-03  4.128820e-03  0 
 -1.212643e-03  5.008268e-03  0 
 -2.398822e-03  5.447739e-03  0 
 -1.023479e-03  5.605052e-03  0 
 -3.962170e-03  4.329635e-03  0 
 -3.551585e-03  4.195567e-03  0 
 -3.548437e-03  4.465959e-03  0 
 -3.958269e-03  3.970654e-03  0 
 -4.243277e-03  4.857177e-03  0 
 -3.059067e-03  4.012924e-03  0 
 -4.781614e-03  3.850018e-03  0 
 -3.193578e-03  3.686691e-03  0 
 -1.973285e-03  6.035351e-03  0 
 -5.712768e-04  4.019170e-03  0 
 -4.255344e-04  6.717950e-03  0 
 -2.974348e-03  6.257334e-03  0 
 -2.212362e-03  6.441014e-03  0 
VECTORS displacement_ITER3 FLOAT
 0  6.075041e-03  0 
 3.185264e-16  2.124952e-03  0 
 -1.233979e-16  2.570301e-03  0 
 4.606213e-16  3.241722e-03  0 
 -1.349665e-15  3.940578e-03  0 
 9.933533e-16  4.650114e-03  0 
 -6.142903e-16  5.365245e-03  0 
 -7.063763e-04  6.086651e-03  0 
 -1.393492e-03  6.115739e-03  0 
 -2.002624e-03  6.057018e-03  0 
 -2.214056e-03  2.597226e-03  0 
 -1.456225e-03  5.028433e-03  0 
 -1.838983e-03  3.815001e-03  0 
 -9.448773e-04  2.731991e-03  0 
 -6.589884e-04  4.998268e-03  0 
 -5.011804e-04  3.592943e-03  0 
 -1.722292e-03  4.468746e-03  0 
 -1.796416e-03  5.662883e-03  0 
 -1.053292e-03  5.593338e-03  0 
 -2.592013e-03  3.859633e-03  0 
 -2.364818e-03  2.131896e-03  0 
 -2.768397e-03  5.225896e-03  0 
 -3.192919e-03  4.749154e-03  0 
 -8.920470e-04  3.289774e-03  0 
 -1.915274e-03  2.240455e-03  0 
 -1.651363e-03  2.700833e-03  0 
 -3.126829e-04  2.391306e-03  0 
 -5.655444e-04  4.254182e-03  0 
 -1.406574e-03  3.299187e-03  0 
 -2.046691e-03  3.188658e-03  0 
 -1.134833e-03  3.846240e-03  0 
 -2.459692e-03  4.559225e-03  0 
 -1.036197e-03  4.454478e-03  0 
 -3.816156e-03  3.826104e-03  0 
 -3.235727e-03  3.442214e-03  0 
 -3.362243e-03  3.867093e-03  0 
 -3.441899e-03  3.261846e-03  0 
 -4.198944e-03  4.551910e-03  0 
 -2.703915e-03  3.224461e-03  0 
 -4.116733e-03  3.605081e-03  0 
 -2.771552e-03  2.847459e-03  0 
 -2.133466e-03  5.105167e-03  0 
 -4.690373e-04  2.939078e-03  0 
 -4.844397e-04  5.621053e-03  0 
 -3.293042e-03  5.617344e-03  0 
 -2.497454e-03  5.642944e-03  0 
VECTORS displacement_ITER4 FLOAT
 0  6.604783e-03  0 
 3.268563e-16  2.805867e-03  0 
 -1.373370e-16  3.364264e-03  0 
 5.126532e-16  4.048250e-03  0 
 -1.502123e-15  4.698085e-03  0 
 1.105563e-15  5.336940e-03  0 
 -6.836806e-16  5.973385e-03  0 
 -6.245216e-04  6.598700e-03  0 
 -1.248387e-03  6.588225e-03  0 
 -1.853917e-03  6.534417e-03  0 
 -2.585872e-03  2.960953e-03  0 
 -1.341267e-03  5.593077e-03  0 
 -1.826992e-03  4.385095e-03  0 
 -1.097875e-03  3.452458e-03  0 
 -6.055328e-04  5.630782e-03  0 
 -5.007428e-04  4.363089e-03  0 
 -1.629215e-03  5.040336e-03  0 
 -1.628373e-03  6.141078e-03  0 
 -9.504464e-04  6.137942e-03  0 
 -2.582453e-03  4.255246e-03  0 
 -3.056667e-03  2.299076e-03  0 
 -2.569426e-03  5.593115e-03  0 
 -3.043531e-03  5.004820e-03  0 
 -9.283329e-04  4.034500e-03  0 
 -2.460902e-03  2.737231e-03  0 
 -1.863663e-03  3.295447e-03  0 
 -4.186470e-04  3.137236e-03  0 
 -5.372143e-04  4.966676e-03  0 
 -1.474742e-03  3.956084e-03  0 
 -2.160984e-03  3.707994e-03  0 
 -1.112917e-03  4.542204e-03  0 
 -2.338517e-03  4.990232e-03  0 
 -9.760484e-04  5.111120e-03  0 
 -4.126233e-03  3.627693e-03  0 
 -3.510625e-03  3.443406e-03  0 
 -3.368020e-03  4.084786e-03  0 
 -3.847411e-03  3.074340e-03  0 
 -3.959616e-03  4.533943e-03  0 
 -2.872960e-03  3.521217e-03  0 
 -4.493888e-03  3.245634e-03  0 
 -3.226125e-03  2.888025e-03  0 
 -1.971934e-03  5.576780e-03  0 
 -5.151581e-04  3.731940e-03  0 
 -4.357860e-04  6.192425e-03  0 
 -3.049738e-03  5.901139e-03  0 
 -2.292888e-03  6.037166e-03  0 
VECTORS displacement_ITER5 FLOAT
 0  6.498144e-03  0 
 2.820215e-16  2.620342e-03  0 
 -1.359134e-16  3.234185e-03  0 
 5.073392e-16  3.881808e-03  0 
 -1.486553e-15  4.530308e-03  0 
 1.094103e-15  5.183263e-03  0 
 -6.765938e-16  5.840414e-03  0 
 -6.549354e-04  6.497426e-03  0 
 -1.307233e-03  6.495346e-03  0 
 -1.945354e-03  6.456773e-03  0 
 -2.360391e-03  3.107700e-03  0 
 -1.368370e-03  5.488871e-03  0 
 -1.815545e-03  4.307381e-03  0 
 -1.052789e-03  3.285678e-03  0 
 -6.206737e-04  5.493834e-03  0 
 -4.903658e-04  4.198414e-03  0 
 -1.643485e-03  4.953818e-03  0 
 -1.676326e-03  6.049555e-03  0 
 -9.849681e-04  6.024309e-03  0 
 -2.529326e-03  4.280798e-03  0 
 -2.664019e-03  2.522614e-03  0 
 -2.598829e-03  5.565676e-03  0 
 -3.061801e-03  5.028695e-03  0 
 -8.987910e-04  3.880592e-03  0 
 -2.014650e-03  2.732305e-03  0 
 -1.694756e-03  3.241663e-03  0 
 -4.507422e-04  2.980266e-03  0 
 -5.403851e-04  4.811987e-03  0 
 -1.436116e-03  3.821892e-03  0 
 -2.076612e-03  3.720069e-03  0 
 -1.103644e-03  4.405415e-03  0 
 -2.358476e-03  4.954188e-03  0 
 -9.866200e-04  4.979207e-03  0 
 -3.906883e-03  3.801517e-03  0 
 -3.315874e-03  3.643446e-03  0 
 -3.239546e-03  4.206337e-03  0 
 -3.703232e-03  3.208469e-03  0 
 -3.844715e-03  4.645050e-03  0 
 -2.733867e-03  3.676484e-03  0 
 -4.412120e-03  3.160688e-03  0 
 -3.032239e-03  3.156379e-03  0 
 -1.998529e-03  5.520183e-03  0 
 -4.882227e-04  3.573238e-03  0 
 -4.526908e-04  6.071258e-03  0 
 -3.043778e-03  5.834147e-03  0 
 -2.323742e-03  6.002887e-03  0 
VECTORS displacement_ITER6 FLOAT
 0  6.500433e-03  0 
 2.456795e-16  2.566452e-03  0 
 -1.356554e-16  3.242976e-03  0 
 5.063763e-16  3.900230e-03  0 
 -1.483731e-15  4.550386e-03  0 
 1.092026e-15  5.201364e-03  0 
 -6.753097e-16  5.851956e-03  0 
 -6.467974e-04  6.499572e-03  0 
 -1.292411e-03  6.497232e-03  0 
 -1.932239e-03  6.481382e-03  0 
 -2.397200e-03  3.080826e-03  0 
 -1.357513e-03  5.498211e-03  0 
 -1.835963e-03  4.290919e-03  0 
 -1.094009e-03  3.274868e-03  0 
 -6.150017e-04  5.508034e-03  0 
 -4.938724e-04  4.214362e-03  0 
 -1.643892e-03  4.953860e-03  0 
 -1.653636e-03  6.056728e-03  0 
 -9.721399e-04  6.031896e-03  0 
 -2.560725e-03  4.244055e-03  0 
 -2.735446e-03  2.481976e-03  0 
 -2.588464e-03  5.543525e-03  0 
 -3.071407e-03  4.966196e-03  0 
 -9.117809e-04  3.885025e-03  0 
 -2.036562e-03  2.668045e-03  0 
 -1.730871e-03  3.204029e-03  0 
 -4.953107e-04  2.961390e-03  0 
 -5.393376e-04  4.829581e-03  0 
 -1.458966e-03  3.801921e-03  0 
 -2.110148e-03  3.687423e-03  0 
 -1.109524e-03  4.411464e-03  0 
 -2.365371e-03  4.930915e-03  0 
 -9.838565e-04  4.991655e-03  0 
 -3.934122e-03  3.804045e-03  0 
 -3.331610e-03  3.603773e-03  0 
 -3.273872e-03  4.159376e-03  0 
 -3.668871e-03  3.204820e-03  0 
 -3.882168e-03  4.607546e-03  0 
 -2.764252e-03  3.639760e-03  0 
 -4.326657e-03  3.194168e-03  0 
 -3.056124e-03  3.143351e-03  0 
 -1.987182e-03  5.516624e-03  0 
 -5.004189e-04  3.582612e-03  0 
 -4.466994e-04  6.078999e-03  0 
 -3.053569e-03  5.841407e-03  0 
 -2.299769e-03  5.993705e-03  0 
VECTORS displacement_ITER7 FLOAT
 0  6.502783e-03  0 
 2.256292e-16  2.608985e-03  0 
 -1.358437e-16  3.261075e-03  0 
 5.070790e-16  3.907141e-03  0 
 -1.485790e-15  4.554110e-03  0 
 1.093542e-15  5.203208e-03  0 
 -6.762468e-16  5.852963e-03  0 
 -6.495301e-04  6.502701e-03  0 
 -1.298816e-03  6.502608e-03  0 
 -1.946746e-03  6.499780e-03  0 
 -2.397834e-03  3.076610e-03  0 
 -1.356046e-03  5.503090e-03  0 
 -1.830144e-03  4.303754e-03  0 
 -1.083488e-03  3.285954e-03  0 
 -6.146203e-04  5.509907e-03  0 
 -4.914599e-04  4.219820e-03  0 
 -1.639276e-03  4.962560e-03  0 
 -1.656046e-03  6.063086e-03  0 
 -9.738046e-04  6.034329e-03  0 
 -2.557093e-03  4.258320e-03  0 
 -2.718672e-03  2.487799e-03  0 
 -2.580847e-03  5.558985e-03  0 
 -3.058973e-03  4.981777e-03  0 
 -9.060661e-04  3.893151e-03  0 
 -2.030566e-03  2.649610e-03  0 
 -1.721103e-03  3.205195e-03  0 
 -4.940783e-04  2.972649e-03  0 
 -5.378935e-04  4.833138e-03  0 
 -1.451081e-03  3.811200e-03  0 
 -2.106528e-03  3.696559e-03  0 
 -1.105375e-03  4.418725e-03  0 
 -2.356510e-03  4.945979e-03  0 
 -9.815111e-04  4.996338e-03  0 
 -3.935705e-03  3.802699e-03  0 
 -3.336114e-03  3.614522e-03  0 
 -3.275902e-03  4.164488e-03  0 
 -3.689653e-03  3.203298e-03  0 
 -3.882189e-03  4.602403e-03  0 
 -2.768962e-03  3.647140e-03  0 
 -4.345180e-03  3.151620e-03  0 
 -3.059029e-03  3.155632e-03  0 
 -1.984334e-03  5.524101e-03  0 
 -4.951101e-04  3.591470e-03  0 
 -4.476434e-04  6.080591e-03  0 
 -3.046354e-03  5.863892e-03  0 
 -2.304450e-03  6.000829e-03  0 
VECTORS displacement_ITER8 FLOAT
 0  6.499792e-03  0 
 2.154451e-16  2.600335e-03  0 
 -1.357341e-16  3.248921e-03  0 
 5.066701e-16  3.899486e-03  0 
 -1.484592e-15  4.549582e-03  0 
 1.092660e-15  5.199682e-03  0 
 -6.757015e-16  5.849742e-03  0 
 -6.500369e-04  6.499790e-03  0 
 -1.300060e-03  6.499793e-03  0 
 -1.950009e-03  6.499687e-03  0 
 -2.399123e-03  3.074884e-03  0 
 -1.356737e-03  5.499959e-03  0 
 -1.830582e-03  4.300969e-03  0 
 -1.083042e-03  3.284643e-03  0 
 -6.149608e-04  5.506558e-03  0 
 -4.927960e-04  4.214453e-03  0 
 -1.640408e-03  4.958837e-03  0 
 -1.656287e-03  6.060472e-03  0 
 -9.741876e-04  6.031195e-03  0 
 -2.556304e-03  4.256221e-03  0 
 -2.726496e-03  2.483389e-03  0 
 -2.583330e-03  5.554757e-03  0 
 -3.059433e-03  4.981073e-03  0 
 -9.081828e-04  3.888527e-03  0 
 -2.035491e-03  2.649975e-03  0 
 -1.721360e-03  3.209008e-03  0 
 -4.926864e-04  2.957906e-03  0 
 -5.385374e-04  4.829200e-03  0 
 -1.452180e-03  3.810230e-03  0 
 -2.105459e-03  3.696142e-03  0 
 -1.107064e-03  4.414659e-03  0 
 -2.357554e-03  4.942529e-03  0 
 -9.823103e-04  4.992712e-03  0 
 -3.938637e-03  3.797582e-03  0 
 -3.337101e-03  3.609069e-03  0 
 -3.276137e-03  4.162068e-03  0 
 -3.688464e-03  3.198703e-03  0 
 -3.883029e-03  4.601079e-03  0 
 -2.768202e-03  3.643238e-03  0 
 -4.337248e-03  3.156143e-03  0 
 -3.058892e-03  3.148774e-03  0 
 -1.985570e-03  5.521139e-03  0 
 -4.964101e-04  3.582448e-03  0 
 -4.478371e-04  6.077419e-03  0 
 -3.049176e-03  5.857737e-03  0 
 -2.304106e-03  5.998757e-03  0 
VECTORS displacement_ITER9 FLOAT
 0  6.499967e-03  0 
 2.124309e-16  2.599627e-03  0 
 -1.357472e-16  3.249934e-03  0 
 5.067190e-16  3.900027e-03  0 
 -1.484735e-15  4.550004e-03  0 
 1.092765e-15  5.199983e-03  0 
 -6.757667e-16  5.849972e-03  0 
 -6.499990e-04  6.499967e-03  0 
 -1.300003e-03  6.499966e-03  0 
 -1.950031e-03  6.499995e-03  0 
 -2.398231e-03  3.075817e-03  0 
 -1.356608e-03  5.500247e-03  0 
 -1.830292e-03  4.301342e-03  0 
 -1.082683e-03  3.285844e-03  0 
 -6.149040e-04  5.506827e-03  0 
 -4.927401e-04  4.214932e-03  0 
 -1.640267e-03  4.959150e-03  0 
 -1.656124e-03  6.060698e-03  0 
 -9.741064e-04  6.031405e-03  0 
 -2.556055e-03  4.256393e-03  0 
 -2.725502e-03  2.484294e-03  0 
 -2.583183e-03  5.554881e-03  0 
 -3.059449e-03  4.981187e-03  0 
 -9.080124e-04  3.889163e-03  0 
 -2.035070e-03  2.652327e-03  0 
 -1.721329e-03  3.209062e-03  0 
 -4.938895e-04  2.958130e-03  0 
 -5.384640e-04  4.829552e-03  0 
 -1.451798e-03  3.810816e-03  0 
 -2.105258e-03  3.696298e-03  0 
 -1.106894e-03  4.415056e-03  0 
 -2.357449e-03  4.942744e-03  0 
 -9.822048e-04  4.993046e-03  0 
 -3.937255e-03  3.798295e-03  0 
 -3.336509e-03  3.610220e-03  0 
 -3.275614e-03  4.162453e-03  0 
 -3.688438e-03  3.200183e-03  0 
 -3.883074e-03  4.601892e-03  0 
 -2.767654e-03  3.643841e-03  0 
 -4.337414e-03  3.156306e-03  0 
 -3.057991e-03  3.149271e-03  0 
 -1.985397e-03  5.521437e-03  0 
 -4.962493e-04  3.583032e-03  0 
 -4.478016e-04  6.077627e-03  0 
 -3.048580e-03  5.857025e-03  0 
 -2.303815e-03  5.999048e-03  0 
VECTORS displacement_ITER10 FLOAT
 0  6.500015e-03  0 
 2.115794e-16  2.599976e-03  0 
 -1.357477e-16  3.250021e-03  0 
 5.067208e-16  3.900031e-03  0 
 -1.484741e-15  4.550025e-03  0 
 1.092769e-15  5.200018e-03  0 
 -6.757692e-16  5.850014e-03  0 
 -6.500043e-04  6.500016e-03  0 
 -1.300012e-03  6.500021e-03  0 
 -1.950031e-03  6.500052e-03  0 
 -2.398359e-03  3.075764e-03  0 
 -1.356611e-03  5.500295e-03  0 
 -1.830299e-03  4.301375e-03  0 
 -1.082616e-03  3.285879e-03  0 
 -6.149074e-04  5.506868e-03  0 
 -4.927444e-04  4.214946e-03  0 
 -1.640282e-03  4.959199e-03  0 
 -1.656139e-03  6.060751e-03  0 
 -9.741142e-04  6.031453e-03  0 
 -2.556124e-03  4.256338e-03  0 
 -2.725517e-03  2.484293e-03  0 
 -2.583124e-03  5.555025e-03  0 
 -3.059596e-03  4.981160e-03  0 
 -9.080071e-04  3.889187e-03  0 
 -2.035098e-03  2.652206e-03  0 
 -1.721510e-03  3.208861e-03  0 
 -4.939201e-04  2.958084e-03  0 
 -5.384695e-04  4.829582e-03  0 
 -1.451795e-03  3.810861e-03  0 
 -2.105370e-03  3.696201e-03  0 
 -1.106902e-03  4.415089e-03  0 
 -2.357485e-03  4.942807e-03  0 
 -9.822136e-04  4.993087e-03  0 
 -3.937389e-03  3.798179e-03  0 
 -3.336607e-03  3.610146e-03  0 
 -3.275625e-03  4.162481e-03  0 
 -3.688575e-03  3.200011e-03  0 
 -3.883149e-03  4.602177e-03  0 
 -2.767738e-03  3.643820e-03  0 
 -4.337752e-03  3.156083e-03  0 
 -3.058143e-03  3.149228e-03  0 
 -1.985389e-03  5.521497e-03  0 
 -4.962180e-04  3.583028e-03  0 
 -4.478053e-04  6.077672e-03  0 
 -3.048389e-03  5.857133e-03  0 
 -2.303851e-03  5.999079e-03  0 
VECTORS displacement_ITER11 FLOAT
 0  6.500009e-03  0 
 2.112968e-16  2.599991e-03  0 
 -1.357474e-16  3.249996e-03  0 
 5.067197e-16  3.900000e-03  0 
 -1.484738e-15  4.550005e-03  0 
 1.092767e-15  5.200009e-03  0 
 -6.757677e-16  5.850010e-03  0 
 -6.499970e-04  6.500008e-03  0 
 -1.299993e-03  6.500005e-03  0 
 -1.949985e-03  6.499995e-03  0 
 -2.398341e-03  3.075757e-03  0 
 -1.356616e-03  5.500283e-03  0 
 -1.830310e-03  4.301364e-03  0 
 -1.082605e-03  3.285856e-03  0 
 -6.149098e-04  5.506861e-03  0 
 -4.927483e-04  4.214921e-03  0 
 -1.640292e-03  4.959186e-03  0 
 -1.656134e-03  6.060733e-03  0 
 -9.741112e-04  6.031446e-03  0 
 -2.556141e-03  4.256334e-03  0 
 -2.725527e-03  2.484231e-03  0 
 -2.583124e-03  5.555001e-03  0 
 -3.059599e-03  4.981142e-03  0 
 -9.080098e-04  3.889163e-03  0 
 -2.035069e-03  2.652197e-03  0 
 -1.721496e-03  3.208852e-03  0 
 -4.939198e-04  2.958041e-03  0 
 -5.384746e-04  4.829567e-03  0 
 -1.451798e-03  3.810844e-03  0 
 -2.105371e-03  3.696193e-03  0 
 -1.106912e-03  4.415071e-03  0 
 -2.357494e-03  4.942795e-03  0 
 -9.822209e-04  4.993073e-03  0 
 -3.937401e-03  3.798246e-03  0 
 -3.336608e-03  3.610151e-03  0 
 -3.275649e-03  4.162482e-03  0 
 -3.688520e-03  3.200073e-03  0 
 -3.883159e-03  4.602153e-03  0 
 -2.767741e-03  3.643820e-03  0 
 -4.337719e-03  3.156184e-03  0 
 -3.058144e-03  3.149232e-03  0 
 -1.985393e-03  5.521480e-03  0 
 -4.962150e-04  3.582995e-03  0 
 -4.478034e-04  6.077667e-03  0 
 -3.048395e-03  5.857121e-03  0 
 -2.303841e-03  5.999049e-03  0 
VECTORS displacement_ITER12 FLOAT
 0  6.500000e-03  0 
 2.111910e-16  2.600000e-03  0 
 -1.357473e-16  3.250000e-03  0 
 5.067193e-16  3.900000e-03  0 
 -1.484736e-15  4.550000e-03  0 
 1.092766e-15  5.200000e-03  0 
 -6.757671e-16  5.850000e-03  0 
 -6.499999e-04  6.500000e-03  0 
 -1.300000e-03  6.500000e-03  0 
 -1.949999e-03  6.499999e-03  0 
 -2.398339e-03  3.075748e-03  0 
 -1.356615e-03  5.500276e-03  0 
 -1.830305e-03  4.301360e-03  0 
 -1.082609e-03  3.285854e-03  0 
 -6.149093e-04  5.506851e-03  0 
 -4.927460e-04  4.214918e-03  0 
 -1.640287e-03  4.959181e-03  0 
 -1.656137e-03  6.060728e-03  0 
 -9.741130e-04  6.031437e-03  0 
 -2.556131e-03  4.256336e-03  0 
 -2.725521e-03  2.484224e-03  0 
 -2.583128e-03  5.554998e-03  0 
 -3.059585e-03  4.981147e-03  0 
 -9.080067e-04  3.889160e-03  0 
 -2.035075e-03  2.652191e-03  0 
 -1.721486e-03  3.208854e-03  0 
 -4.939250e-04  2.958038e-03  0 
 -5.384725e-04  4.829560e-03  0 
 -1.451794e-03  3.810838e-03  0 
 -2.105362e-03  3.696193e-03  0 
 -1.106907e-03  4.415067e-03  0 
 -2.357487e-03  4.942792e-03  0 
 -9.822179e-04  4.993066e-03  0 
 -3.937404e-03  3.798228e-03  0 
 -3.336608e-03  3.610143e-03  0 
 -3.275642e-03  4.162481e-03  0 
 -3.688522e-03  3.200063e-03  0 
 -3.883142e-03  4.602141e-03  0 
 -2.767737e-03  3.643816e-03  0 
 -4.337724e-03  3.156184e-03  0 
 -3.058143e-03  3.149222e-03  0 
 -1.985392e-03  5.521477e-03  0 
 -4.962142e-04  3.582995e-03  0 
 -4.478044e-04  6.077658e-03  0 
 -3.048410e-03  5.857125e-03  0 
 -2.303845e-03  5.999054e-03  0 
CELL_DATA 67
TENSORS element_stresses FLOAT
 -9.999987e-01  6.755172e-07  0 
 6.755172e-07  9.999993e-01  0 
 0  0  0 

 -1.000000e+00  3.355658e-08  0 
 3.355658e-08  1.000000e+00  0 
 0  0  0 

 -1.000000e+00  -1.765164e-08  0 
 -1.765164e-08  1.000000e+00  0 
 0  0  0 

 -1.000000e+00  -1.959857e-08  0 
 -1.959857e-08  1.000000e+00  0 
 0  0  0 

 -9.999996e-01  4.260326e-07  0 
 4.260326e-07  1.000000e+00  0 
 0  0  0 

 -1.000000e+00  6.160025e-07  0 
 6.160025e-07  1.000000e+00  0 
 0  0  0 

 -1.000000e+00  -4.503367e-08  0 
 -4.503367e-08  9.999999e-01  0 
 0  0  0 

 -9.999999e-01  -2.591311e-07  0 
 -2.591311e-07  9.999990e-01  0 
 0  0  0 

 -1.000000e+00  -1.868312e-08  0 
 -1.868312e-08  1.000000e+00  0 
 0  0  0 

 -9.999999e-01  2.596262e-08  0 
 2.596262e-08  1.000000e+00  0 
 0  0  0 

 -1.000000e+00  -1.173056e-07  0 
 -1.173056e-07  1.000000e+00  0 
 0  0  0 

 -9.999999e-01  1.864075e-07  0 
 1.864075e-07  9.999996e-01  0 
 0  0  0 

 -1.000000e+00  -2.737999e-07  0 
 -2.737999e-07  1.000000e+00  0 
 0  0  0 

 -1.000000e+00  -2.941099e-07  0 
 -2.941099e-07  1.000000e+00  0 
 0  0  0 

 -1.000000e+00  -1.297292e-07  0 
 -1.297292e-07  1.000000e+00  0 
 0  0  0 

 -9.999996e-01  -5.923914e-07  0 
 -5.923914e-07  1.000000e+00  0 
 0  0  0 

 -1.000000e+00  2.463615e-07  0 
 2.463615e-07  1.000000e+00  0 
 0  0  0 

 -1.000000e+00  -2.219128e-07  0 
 -2.219128e-07  9.999999e-01  0 
 0  0  0 

 -1.000000e+00  -2.934013e-07  0 
 -2.934013e-07  9.999999e-01  0 
 0  0  0 

 -1.000000e+00  -2.073456e-07  0 
 -2.073456e-07  9.999999e-01  0 
 0  0  0 

 -1.000000e+00  -1.462241e-07  0 
 -1.462241e-07  9.999999e-01  0 
 0  0  0 

 -1.000000e+00  -4.318721e-08  0 
 -4.318721e-08  1.000000e+00  0 
 0  0  0 

 -1.000000e+00  -9.458257e-08  0 
 -9.458257e-08  1.000000e+00  0 
 0  0  0 

 -9.999999e-01  8.757872e-09  0 
 8.757872e-09  9.999999e-01  0 
 0  0  0 

 -9.999999e-01  -8.371022e-09  0 
 -8.371022e-09  9.999998e-01  0 
 0  0  0 

 -9.999998e-01  3.040383e-07  0 
 3.040383e-07  1.000000e+00  0 
 0  0  0 

 -9.999990e-01  -2.195089e-06  0 
 -2.195089e-06  1.000001e+00  0 
 0  0  0 

 -9.999998e-01  5.676274e-09  0 
 5.676274e-09  9.999997e-01  0 
 0  0  0 

 -9.999998e-01  -8.296319e-08  0 
 -8.296319e-08  1.000001e+00  0 
 0  0  0 

 -1.000000e+00  7.721291e-10  0 
 7.721291e-10  1.000001e+00  0 
 0  0  0 

 -1.000000e+00  4.274989e-07  0 
 4.274989e-07  1.000003e+00  0 
 0  0  0 

 -9.999999e-01  -1.621924e-07  0 
 -1.621924e-07  9.999998e-01  0 
 0  0  0 

 -1.000000e+00  -2.533277e-07  0 
 -2.533277e-07  9.999997e-01  0 
 0  0  0 

 -1.000001e+00  1.174614e-06  0 
 1.174614e-06  9.999998e-01  0 
 0  0  0 

 -9.999998e-01  -1.981215e-07  0 
 -1.981215e-07  9.999993e-01  0 
 0  0  0 

 -1.000000e+00  1.481223e-07  0 
 1.481223e-07  9.999995e-01  0 
 0  0  0 

 -9.999999e-01  -3.856235e-07  0 
 -3.856235e-07  1.000000e+00  0 
 0  0  0 

 -9.999996e-01  9.583820e-08  0 
 9.583820e-08  9.999997e-01  0 
 0  0  0 

 -9.999999e-01  -3.099116e-07  0 
 -3.099116e-07  1.000000e+00  0 
 0  0  0 

 -9.999995e-01  5.795803e-07  0 
 5.795803e-07  9.999998e-01  0 
 0  0  0 

 -9.999996e-01  -1.738929e-07  0 
 -1.738929e-07  9.999993e-01  0 
 0  0  0 

 -1.000000e+00  -4.509678e-07  0 
 -4.509678e-07  9.999994e-01  0 
 0  0  0 

 -1.000000e+00  6.309150e-07  0 
 6.309150e-07  9.999999e-01  0 
 0  0  0 

 -1.000000e+00  -5.873927e-08  0 
 -5.873927e-08  9.999997e-01  0 
 0  0  0 

 -9.999996e-01  -4.004348e-07  0 
 -4.004348e-07  9.999999e-01  0 
 0  0  0 

 -1.000000e+00  -1.734789e-07  0 
 -1.734789e-07  9.999996e-01  0 
 0  0  0 

 -9.999999e-01  3.456770e-09  0 
 3.456770e-09  9.999999e-01  0 
 0  0  0 

 -1.000000e+00  -1.051250e-07  0 
 -1.051250e-07  9.999998e-01  0 
 0  0  0 

 -1.000001e+00  4.151241e-07  0 
 4.151241e-07  1.000001e+00  0 
 0  0  0 

 -1.000000e+00  2.827656e-08  0 
 2.827656e-08  1.000000e+00  0 
 0  0  0 

 -9.999998e-01  1.151298e-07  0 
 1.151298e-07  1.000000e+00  0 
 0  0  0 

 -1.000000e+00  7.228692e-08  0 
 7.228692e-08  1.000000e+00  0 
 0  0  0 

 -1.000000e+00  2.159645e-07  0 
 2.159645e-07  9.999999e-01  0 
 0  0  0 

 -1.000000e+00  1.328875e-07  0 
 1.328875e-07  1.000000e+00  0 
 0  0  0 

 -9.999995e-01  -6.886413e-07  0 
 -6.886413e-07  9.999995e-01  0 
 0  0  0 

 -9.999999e-01  1.180167e-07  0 
 1.180167e-07  9.999988e-01  0 
 0  0  0 

 -1.000000e+00  -1.324179e-07  0 
 -1.324179e-07  1.000000e+00  0 
 0  0  0 

 -1.000000e+00  -7.137583e-07  0 
 -7.137583e-07  9.999998e-01  0 
 0  0  0 

 -9.999999e-01  -3.388836e-07  0 
 -3.388836e-07  9.999994e-01  0 
 0  0  0 

 -9.999999e-01  -3.625116e-07  0 
 -3.625116e-07  9.999998e-01  0 
 0  0  0 

 -1.000000e+00  -4.680671e-07  0 
 -4.680671e-07  1.000001e+00  0 
 0  0  0 

 -1.000000e+00  4.138178e-08  0 
 4.138178e-08  9.999990e-01  0 
 0  0  0 

 -1.000002e+00  1.277321e-06  0 
 1.277321e-06  1.000000e+00  0 
 0  0  0 

 -1.000001e+00  1.973670e-06  0 
 1.973670e-06  9.999984e-01  0 
 0  0  0 

 -1.000001e+00  -7.705637e-07  0 
 -7.705637e-07  9.999999e-01  0 
 0  0  0 

 -9.999989e-01  3.936396e-07  0 
 3.936396e-07  1.000000e+00  0 
 0  0  0 

 -1.000001e+00  3.787018e-07  0 
 3.787018e-07  1.000001e+00  0 
 0  0  0 

TENSORS element_stresses FLOAT
 -9.999987e-01  6.755172e-07  0 
 6.755172e-07  9.999993e-01  0 
 0  0  0 

 -1.000000e+00  3.355658e-08  0 
 3.355658e-08  1.000000e+00  0 
 0  0  0 

 -1.000000e+00  -1.765164e-08  0 
 -1.765164e-08  1.000000e+00  0 
 0  0  0 

 -1.000000e+00  -1.959857e-08  0 
 -1.959857e-08  1.000000e+00  0 
 0  0  0 

 -9.999996e-01  4.260326e-07  0 
 4.260326e-07  1.000000e+00  0 
 0  0  0 

 -1.000000e+00  6.160025e-07  0 
 6.160025e-07  1.000000e+00  0 
 0  0  0 

 -1.000000e+00  -4.503367e-08  0 
 -4.503367e-08  9.999999e-01  0 
 0  0  0 

 -9.999999e-01  -2.591311e-07  0 
 -2.591311e-07  9.999990e-01  0 
 0  0  0 

 -1.000000e+00  -1.868312e-08  0 
 -1.868312e-08  1.000000e+00  0 
 0  0  0 

 -9.999999e-01  2.596262e-08  0 
 2.596262e-08  1.000000e+00  0 
 0  0  0 

 -1.000000e+00  -1.173056e-07  0 
 -1.173056e-07  1.000000e+00  0 
 0  0  0 

 -9.999999e-01  1.864075e-07  0 
 1.864075e-07  9.999996e-01  0 
 0  0  0 

 -1.000000e+00  -2.737999e-07  0 
 -2.737999e-07  1.000000e+00  0 
 0  0  0 

 -1.000000e+00  -2.941099e-07  0 
 -2.941099e-07  1.000000e+00  0 
 0  0  0 

 -1.000000e+00  -1.297292e-07  0 
 -1.297292e-07  1.000000e+00  0 
 0  0  0 

 -9.999996e-01  -5.923914e-07  0 
 -5.923914e-07  1.000000e+00  0 
 0  0  0 

 -1.000000e+00  2.463615e-07  0 
 2.463615e-07  1.000000e+00  0 
 0  0  0 

 -1.000000e+00  -2.219128e-07  0 
 -2.219128e-07  9.999999e-01  0 
 0  0  0 

 -1.000000e+00  -2.934013e-07  0 
 -2.934013e-07  9.999999e-01  0 
 0  0  0 

 -1.000000e+00  -2.073456e-07  0 
 -2.073456e-07  9.999999e-01  0 
 0  0  0 

 -1.000000e+00  -1.462241e-07  0 
 -1.462241e-07  9.999999e-01  0 
 0  0  0 

 -1.000000e+00  -4.318721e-08  0 
 -4.318721e-08  1.000000e+00  0 
 0  0  0 

 -1.000000e+00  -9.458257e-08  0 
 -9.458257e-08  1.000000e+00  0 
 0  0  0 

 -9.999999e-01  8.757872e-09  0 
 8.757872e-09  9.999999e-01  0 
 0  0  0 

 -9.999999e-01  -8.371022e-09  0 
 -8.371022e-09  9.999998e-01  0 
 0  0  0 

 -9.999998e-01  3.040383e-07  0 
 3.040383e-07  1.000000e+00  0 
 0  0  0 

 -9.999990e-01  -2.195089e-06  0 
 -2.195089e-06  1.000001e+00  0 
 0  0  0 

 -9.999998e-01  5.676274e-09  0 
 5.676274e-09  9.999997e-01  0 
 0  0  0 

 -9.999998e-01  -8.296319e-08  0 
 -8.296319e-08  1.000001e+00  0 
 0  0  0 

 -1.000000e+00  7.721291e-10  0 
 7.721291e-10  1.000001e+00  0 
 0  0  0 

 -1.000000e+00  4.274989e-07  0 
 4.274989e-07  1.000003e+00  0 
 0  0  0 

 -9.999999e-01  -1.621924e-07  0 
 -1.621924e-07  9.999998e-01  0 
 0  0  0 

 -1.000000e+00  -2.533277e-07  0 
 -2.533277e-07  9.999997e-01  0 
 0  0  0 

 -1.000001e+00  1.174614e-06  0 
 1.174614e-06  9.999998e-01  0 
 0  0  0 

 -9.999998e-01  -1.981215e-07  0 
 -1.981215e-07  9.999993e-01  0 
 0  0  0 

 -1.000000e+00  1.481223e-07  0 
 1.481223e-07  9.999995e-01  0 
 0  0  0 

 -9.999999e-01  -3.856235e-07  0 
 -3.856235e-07  1.000000e+00  0 
 0  0  0 

 -9.999996e-01  9.583820e-08  0 
 9.583820e-08  9.999997e-01  0 
 0  0  0 

 -9.999999e-01  -3.099116e-07  0 
 -3.099116e-07  1.000000e+00  0 
 0  0  0 

 -9.999995e-01  5.795803e-07  0 
 5.795803e-07  9.999998e-01  0 
 0  0  0 

 -9.999996e-01  -1.738929e-07  0 
 -1.738929e-07  9.999993e-01  0 
 0  0  0 

 -1.000000e+00  -4.509678e-07  0 
 -4.509678e-07  9.999994e-01  0 
 0  0  0 

 -1.000000e+00  6.309150e-07  0 
 6.309150e-07  9.999999e-01  0 
 0  0  0 

 -1.000000e+00  -5.873927e-08  0 
 -5.873927e-08  9.999997e-01  0 
 0  0  0 

 -9.999996e-01  -4.004348e-07  0 
 -4.004348e-07  9.999999e-01  0 
 0  0  0 

 -1.000000e+00  -1.734789e-07  0 
 -1.734789e-07  9.999996e-01  0 
 0  0  0 

 -9.999999e-01  3.456770e-09  0 
 3.456770e-09  9.999999e-01  0 
 0  0  0 

 -1.000000e+00  -1.051250e-07  0 
 -1.051250e-07  9.999998e-01  0 
 0  0  0 

 -1.000001e+00  4.151241e-07  0 
 4.151241e-07  1.000001e+00  0 
 0  0  0 

 -1.000000e+00  2.827656e-08  0 
 2.827656e-08  1.000000e+00  0 
 0  0  0 

 -9.999998e-01  1.151298e-07  0 
 1.151298e-07  1.000000e+00  0 
 0  0  0 

 -1.000000e+00  7.228692e-08  0 
 7.228692e-08  1.000000e+00  0 
 0  0  0 

 -1.000000e+00  2.159645e-07  0 