# vtk DataFile Version 3.1
this is an vtk file created by FEMAC
ASCII
DATASET UNSTRUCTURED_GRID
POINTS 47 FLOAT
0.500000 0.000000 0.000000
0.600000 0.000000 0.000000
0.700000 0.000000 0.000000
0.800000 0.000000 0.000000
0.900000 0.000000 0.000000
0.761229 0.500083 0.000000
1.208411 0.481204 0.000000
1.124681 0.486741 0.000000
0.796284 0.302439 0.000000
0.735549 0.209215 0.000000
0.658961 0.219617 0.000000
0.547654 0.090918 0.000000
0.886137 0.370499 0.000000
0.919625 0.580176 0.000000
0.727430 0.588462 0.000000
0.671690 0.108199 0.000000
0.876918 0.147596 0.000000
0.780943 0.127056 0.000000
1.019699 0.646236 0.000000
1.112504 0.613930 0.000000
1.108495 0.411714 0.000000
0.605754 0.584343 0.000000
0.572423 0.197502 0.000000
0.730620 0.693565 0.000000
0.656421 0.645759 0.000000
0.760528 0.059148 0.000000
0.842998 0.062434 0.000000
0.597406 0.708022 0.000000
0.651276 0.382861 0.000000
0.930152 0.690142 0.000000
0.816142 0.216247 0.000000
0.605293 0.298303 0.000000
0.667342 0.485567 0.000000
1.040662 0.467905 0.000000
0.756781 0.406419 0.000000
1.165759 0.561553 0.000000
1.071252 0.556630 0.000000
0.701794 0.302272 0.000000
0.998760 0.540177 0.000000
0.943346 0.470597 0.000000
0.903918 0.249756 0.000000
0.832187 0.731583 0.000000
0.821910 0.558787 0.000000
1.008953 0.368996 0.000000
0.842566 0.484735 0.000000
0.955463 0.309034 0.000000
0.826987 0.640453 0.000000
CELLS 67 268 
3 15  9 17
3 0 11  1
3 1 15  2
3 1 11 15
3 9 15 10
3 20  7  6
3 22 10 15
3 11 22 15
3 14 24 23
3 24 14 21
3 2 25  3
3 17 25 15
3 25  2 15
3 26  4  3
3 26 17 16
3 8 30  9
3 30 17  9
3 20 33  7
3 19 36 18
3 9 37  8
3 38 18 36
3 25 26  3
3 25 17 26
3 23 24 27
3 10 37  9
3 10 31 37
3 28 37 31
3 34 32  5
3 18 38 13
3 13 29 18
3 17 30 16
3 35  6  7
3 19 35 36
3 36 35  7
3 22 31 10
3 40  8 12
3 39 43 12
3 30  8 40
3 33 20 43
3 43 39 33
3 14 42  5
3 12  8 34
3 37 34  8
3 32 34 28
3 28 34 37
3 27 24 21
3 33 36  7
3 33 38 36
3 42 13 44
3 5 44 34
3 44  5 42
3 44 12 34
3 38 39 13
3 44 13 39
3 12 44 39
3 39 38 33
3 32 21 14
3 32 14  5
3 30 40 16
3 45 40 12
3 43 45 12
3 13 46 29
3 46 41 29
3 42 46 13
3 46 42 14
3 46 23 41
3 23 46 14
CELL_TYPES 67
5 5 5 5 5 5 5 5 5 5 5 5 5 5 5 5 5 5 5 5 5 5 5 5 5 5 5 5 5 5 5 5 5 5 5 5 5 5 5 5 5 5 5 5 5 5 5 5 5 5 5 5 5 5 5 5 5 5 5 5 5 5 5 5 5 5 5 
POINT_DATA 47
VECTORS displacement_ITER1 FLOAT
 -1.398395e-03  -5.278080e-03  0 
 -2.432171e-03  -3.719671e-03  0 
 -3.459053e-03  -2.765867e-03  0 
 -4.716019e-03  -2.245086e-03  0 
 -6.066774e-03  -3.144039e-03  0 
 -5.573688e-03  2.697602e-03  0 
 -9.414282e-03  5.344281e-05  0 
 -8.466053e-03  8.981426e-04  0 
 -6.263275e-03  5.663049e-04  0 
 -5.290010e-03  -6.016083e-04  0 
 -4.751788e-03  -9.960609e-04  0 
 -2.931919e-03  -3.465595e-03  0 
 -6.977304e-03  1.180891e-03  0 
 -6.445493e-03  2.707949e-03  0 
 -4.962757e-03  3.807557e-03  0 
 -4.102001e-03  -1.950318e-03  0 
 -5.948558e-03  -2.385341e-04  0 
 -5.009266e-03  -1.082200e-03  0 
 -6.560556e-03  2.539547e-03  0 
 -7.288279e-03  1.630274e-03  0 
 -8.363979e-03  4.943059e-04  0 
 -4.167408e-03  4.419603e-03  0 
 -3.930547e-03  -1.943188e-03  0 
 -4.573080e-03  4.696250e-03  0 
 -4.205580e-03  4.638561e-03  0 
 -4.462544e-03  -1.744244e-03  0 
 -5.116782e-03  -1.572935e-03  0 
 -3.414610e-03  5.543157e-03  0 
 -5.257602e-03  1.189931e-03  0 
 -5.688816e-03  3.456506e-03  0 
 -5.933302e-03  -5.159908e-05  0 
 -4.700475e-03  -4.502027e-04  0 
 -4.748713e-03  3.065899e-03  0 
 -7.808626e-03  1.277102e-03  0 
 -6.115271e-03  1.510012e-03  0 
 -8.022706e-03  8.797961e-04  0 
 -7.546322e-03  1.703677e-03  0 
 -5.555361e-03  2.308093e-04  0 
 -7.188175e-03  1.980583e-03  0 
 -7.148295e-03  1.699062e-03  0 
 -6.693655e-03  5.648231e-04  0 
 -5.031802e-03  4.421111e-03  0 
 -5.816972e-03  3.036262e-03  0 
 -7.676293e-03  9.122724e-04  0 
 -6.411424e-03  2.135309e-03  0 
 -7.181559e-03  8.885262e-04  0 
 -5.429081e-03  3.789461e-03  0 
VECTORS displacement_ITER2 FLOAT
 -3.283215e-03  -2.509676e-04  0 
 -4.133268e-03  2.153100e-04  0 
 -4.974626e-03  1.678205e-04  0 
 -5.975926e-03  -1.326278e-04  0 
 -6.957924e-03  -1.028327e-03  0 
 -4.667856e-03  3.963964e-03  0 
 -8.474194e-03  4.329786e-03  0 
 -7.653742e-03  4.299540e-03  0 
 -5.078048e-03  2.367166e-03  0 
 -4.810604e-03  1.737905e-03  0 
 -4.322458e-03  1.813123e-03  0 
 -3.823676e-03  8.356060e-04  0 
 -5.592260e-03  2.884714e-03  0 
 -6.052923e-03  4.792026e-03  0 
 -4.659997e-03  4.615362e-03  0 
 -4.623366e-03  1.072994e-03  0 
 -6.013870e-03  1.103885e-03  0 
 -5.292301e-03  1.065653e-03  0 
 -6.746642e-03  5.368539e-03  0 
 -7.418221e-03  5.115020e-03  0 
 -7.085603e-03  3.703309e-03  0 
 -4.030922e-03  4.344992e-03  0 
 -3.827337e-03  1.696978e-03  0 
 -5.059870e-03  5.297959e-03  0 
 -4.375440e-03  4.739385e-03  0 
 -5.372370e-03  5.793277e-04  0 
 -6.020235e-03  1.919837e-04  0 
 -3.976553e-03  5.104706e-03  0 
 -4.155824e-03  2.968583e-03  0 
 -6.153665e-03  5.640704e-03  0 
 -5.309628e-03  1.794940e-03  0 
 -3.930891e-03  2.283802e-03  0 
 -3.827892e-03  3.872050e-03  0 
 -6.878148e-03  3.914695e-03  0 
 -4.763517e-03  3.052407e-03  0 
 -7.830974e-03  4.745951e-03  0 
 -7.209197e-03  4.738097e-03  0 
 -4.524341e-03  2.380200e-03  0 
 -6.648048e-03  4.490871e-03  0 
 -6.139935e-03  3.775413e-03  0 
 -5.750411e-03  1.996671e-03  0 
 -5.815926e-03  5.784085e-03  0 
 -5.263924e-03  4.517237e-03  0 
 -6.342955e-03  3.097377e-03  0 
 -5.372168e-03  3.797073e-03  0 
 -5.991854e-03  2.565535e-03  0 
 -5.464770e-03  5.201939e-03  0 
VECTORS displacement_ITER3 FLOAT
 -3.578694e-03  5.214646e-04  0 
 -4.091404e-03  1.486084e-04  0 
 -4.666565e-03  1.267041e-05  0 
 -5.207915e-03  -3.386664e-05  0 
 -5.698510e-03  2.018604e-04  0 
 -5.024488e-03  3.127607e-03  0 
 -8.118744e-03  2.892972e-03  0 
 -7.424043e-03  3.021236e-03  0 
 -5.228694e-03  1.991758e-03  0 
 -4.788445e-03  1.398411e-03  0 
 -4.255104e-03  1.441804e-03  0 
 -3.576749e-03  7.792950e-04  0 
 -5.796114e-03  2.381958e-03  0 
 -6.028185e-03  3.671173e-03  0 
 -4.833753e-03  3.623680e-03  0 
 -4.346709e-03  6.927735e-04  0 
 -5.798251e-03  1.037970e-03  0 
 -5.112310e-03  8.252651e-04  0 
 -6.604390e-03  4.051795e-03  0 
 -7.201957e-03  3.794266e-03  0 
 -7.106790e-03  2.521040e-03  0 
 -4.183573e-03  3.638978e-03  0 
 -3.644901e-03  1.302423e-03  0 
 -4.961720e-03  4.314351e-03  0 
 -4.382333e-03  3.890073e-03  0 
 -4.981073e-03  3.290161e-04  0 
 -5.551149e-03  3.739277e-04  0 
 -3.879408e-03  4.269927e-03  0 
 -4.456836e-03  2.390354e-03  0 
 -6.086130e-03  4.335208e-03  0 
 -5.342989e-03  1.469557e-03  0 
 -4.027931e-03  1.821513e-03  0 
 -4.444442e-03  3.029190e-03  0 
 -6.788826e-03  2.876097e-03  0 
 -5.041053e-03  2.565973e-03  0 
 -7.568227e-03  3.402889e-03  0 
 -6.998063e-03  3.490804e-03  0 
 -4.640122e-03  1.981912e-03  0 
 -6.528409e-03  3.387071e-03  0 
 -6.165221e-03  2.946427e-03  0 
 -5.883588e-03  1.662460e-03  0 
 -5.660145e-03  4.603559e-03  0 
 -5.409572e-03  3.512204e-03  0 
 -6.521300e-03  2.314866e-03  0 
 -5.538840e-03  3.037291e-03  0 
 -6.199992e-03  2.050043e-03  0 
 -5.492280e-03  4.047175e-03  0 
VECTORS displacement_ITER4 FLOAT
 -3.346589e-03  1.290365e-04  0 
 -4.026711e-03  1.120079e-04  0 
 -4.646653e-03  3.786866e-06  0 
 -5.255843e-03  -6.256527e-05  0 
 -5.854125e-03  -9.381799e-05  0 
 -4.974026e-03  3.227885e-03  0 
 -7.955184e-03  3.175842e-03  0 
 -7.373587e-03  3.201455e-03  0 
 -5.196076e-03  1.957934e-03  0 
 -4.764546e-03  1.348414e-03  0 
 -4.240407e-03  1.433416e-03  0 
 -3.622660e-03  7.636586e-04  0 
 -5.804312e-03  2.411813e-03  0 
 -6.031436e-03  3.758988e-03  0 
 -4.730528e-03  3.828621e-03  0 
 -4.375653e-03  6.968650e-04  0 
 -5.737951e-03  9.030979e-04  0 
 -5.093253e-03  7.738927e-04  0 
 -6.656499e-03  4.156713e-03  0 
 -7.271228e-03  3.966131e-03  0 
 -7.173320e-03  2.738134e-03  0 
 -3.930356e-03  3.860091e-03  0 
 -3.655816e-03  1.333421e-03  0 
 -4.769109e-03  4.584465e-03  0 
 -4.234383e-03  4.202068e-03  0 
 -4.982317e-03  3.292617e-04  0 
 -5.516624e-03  3.162553e-04  0 
 -3.860107e-03  4.522979e-03  0 
 -4.372951e-03  2.427996e-03  0 
 -6.053127e-03  4.460081e-03  0 
 -5.313738e-03  1.380219e-03  0 
 -3.975144e-03  1.852873e-03  0 
 -4.336614e-03  3.126680e-03  0 
 -6.806952e-03  3.030219e-03  0 
 -4.995113e-03  2.593440e-03  0 
 -7.605564e-03  3.641247e-03  0 
 -7.015298e-03  3.611697e-03  0 
 -4.592339e-03  1.966545e-03  0 
 -6.545016e-03  3.495457e-03  0 
 -6.180502e-03  3.045767e-03  0 
 -5.896566e-03  1.585622e-03  0 
 -5.449026e-03  4.798384e-03  0 
 -5.374967e-03  3.627973e-03  0 
 -6.586325e-03  2.416979e-03  0 
 -5.529084e-03  3.117023e-03  0 
 -6.248276e-03  2.051998e-03  0 
 -5.411853e-03  4.195779e-03  0 
VECTORS displacement_ITER5 FLOAT
 -3.176987e-03  -2.312841e-05  0 
 -3.859547e-03  2.854775e-05  0 
 -4.527037e-03  5.775669e-05  0 
 -5.186368e-03  8.419164e-05  0 
 -5.845593e-03  6.694124e-05  0 
 -4.963534e-03  3.282962e-03  0 
 -7.848690e-03  3.206096e-03  0 
 -7.308469e-03  3.209613e-03  0 
 -5.202333e-03  2.018187e-03  0 
 -4.813902e-03  1.431561e-03  0 
 -4.316690e-03  1.498586e-03  0 
 -3.542524e-03  6.278966e-04  0 
 -5.777133e-03  2.447852e-03  0 
 -5.987950e-03  3.791268e-03  0 
 -4.754394e-03  3.863997e-03  0 
 -4.376839e-03  7.705783e-04  0 
 -5.723470e-03  1.042846e-03  0 
 -5.096820e-03  9.011469e-04  0 
 -6.621830e-03  4.212048e-03  0 
 -7.239054e-03  4.043915e-03  0 
 -7.182910e-03  2.723107e-03  0 
 -3.975491e-03  3.871109e-03  0 
 -3.747551e-03  1.354445e-03  0 
 -4.765867e-03  4.545705e-03  0 
 -4.291542e-03  4.242441e-03  0 
 -4.944737e-03  4.607110e-04  0 
 -5.479746e-03  5.009957e-04  0 
 -3.924217e-03  4.621331e-03  0 
 -4.300218e-03  2.503716e-03  0 
 -6.037469e-03  4.488855e-03  0 
 -5.338227e-03  1.469177e-03  0 
 -3.997619e-03  1.990278e-03  0 
 -4.341246e-03  3.182089e-03  0 
 -6.763705e-03  3.068072e-03  0 
 -4.955096e-03  2.664454e-03  0 
 -7.583289e-03  3.700858e-03  0 
 -6.963964e-03  3.649990e-03  0 
 -4.603303e-03  2.019615e-03  0 
 -6.496392e-03  3.535375e-03  0 
 -6.141214e-03  3.088802e-03  0 
 -5.900122e-03  1.658084e-03  0 
 -5.423030e-03  4.759568e-03  0 
 -5.359945e-03  3.661789e-03  0 
 -6.568866e-03  2.434205e-03  0 
 -5.496987e-03  3.175571e-03  0 
 -6.227017e-03  2.051846e-03  0 
 -5.389354e-03  4.185411e-03  0 
VECTORS displacement_ITER6 FLOAT
 -3.250041e-03  -6.225055e-06  0 
 -3.896194e-03  -7.172552e-06  0 
 -4.545242e-03  -4.789394e-06  0 
 -5.192838e-03  -1.770918e-06  0 
 -5.838506e-03  8.420270e-06  0 
 -4.947991e-03  3.252121e-03  0 
 -7.857110e-03  3.120051e-03  0 
 -7.312924e-03  3.162830e-03  0 
 -5.166500e-03  1.961304e-03  0 
 -4.773947e-03  1.357049e-03  0 
 -4.274327e-03  1.426892e-03  0 
 -3.553422e-03  5.841978e-04  0 
 -5.757370e-03  2.408041e-03  0 
 -5.979058e-03  3.775546e-03  0 
 -4.729050e-03  3.830895e-03  0 
 -4.361914e-03  6.986466e-04  0 
 -5.693963e-03  9.540493e-04  0 
 -5.072317e-03  8.232060e-04  0 
 -6.626848e-03  4.201866e-03  0 
 -7.234138e-03  3.996417e-03  0 
 -7.209154e-03  2.679679e-03  0 
 -3.935839e-03  3.812890e-03  0 
 -3.710291e-03  1.286024e-03  0 
 -4.744938e-03  4.518724e-03  0 
 -4.263320e-03  4.209519e-03  0 
 -4.939535e-03  3.808142e-04  0 
 -5.477182e-03  4.061770e-04  0 
 -3.879142e-03  4.614794e-03  0 
 -4.231606e-03  2.482360e-03  0 
 -6.041567e-03  4.490209e-03  0 
 -5.297037e-03  1.401140e-03  0 
 -3.921729e-03  1.942714e-03  0 
 -4.335093e-03  3.152054e-03  0 
 -6.767438e-03  3.045107e-03  0 
 -4.915733e-03  2.639512e-03  0 
 -7.581206e-03  3.647057e-03  0 
 -6.964143e-03  3.619848e-03  0 
 -4.551217e-03  1.963685e-03  0 
 -6.493776e-03  3.514797e-03  0 
 -6.134123e-03  3.063204e-03  0 
 -5.864707e-03  1.614741e-03  0 
 -5.407041e-03  4.761269e-03  0 
 -5.343670e-03  3.636455e-03  0 
 -6.560418e-03  2.403054e-03  0 
 -5.477799e-03  3.153553e-03  0 
 -6.204584e-03  2.010203e-03  0 
 -5.374696e-03  4.168746e-03  0 
VECTORS displacement_ITER7 FLOAT
 -3.249856e-03  -2.349096e-06  0 
 -3.900184e-03  9.242385e-07  0 
 -4.548891e-03  1.053335e-06  0 
 -5.198278e-03  1.351711e-06  0 
 -5.850234e-03  -6.848367e-06  0 
 -4.948041e-03  3.252626e-03  0 
 -7.851477e-03  3.128211e-03  0 
 -7.308968e-03  3.163948e-03  0 
 -5.174711e-03  1.966608e-03  0 
 -4.779700e-03  1.359265e-03  0 
 -4.281172e-03  1.427089e-03  0 
 -3.560765e-03  5.917068e-04  0 
 -5.760311e-03  2.410306e-03  0 
 -5.977727e-03  3.771951e-03  0 
 -4.729110e-03  3.827402e-03  0 
 -4.365387e-03  7.025755e-04  0 
 -5.698906e-03  9.612094e-04  0 
 -5.074699e-03  8.254783e-04  0 
 -6.627848e-03  4.199868e-03  0 
 -7.232993e-03  3.994484e-03  0 
 -7.204136e-03  2.678080e-03  0 
 -3.938822e-03  3.799249e-03  0 
 -3.718538e-03  1.284090e-03  0 
 -4.749986e-03  4.508560e-03  0 
 -4.268203e-03  4.199999e-03  0 
 -4.941574e-03  3.850156e-04  0 
 -5.476152e-03  4.068805e-04  0 
 -3.881237e-03  4.610540e-03  0 
 -4.233501e-03  2.487864e-03  0 
 -6.044347e-03  4.486554e-03  0 
 -5.304328e-03  1.405855e-03  0 
 -3.930556e-03  1.939347e-03  0 
 -4.336965e-03  3.158379e-03  0 
 -6.763830e-03  3.042369e-03  0 
 -4.919521e-03  2.642888e-03  0 
 -7.578561e-03  3.650612e-03  0 
 -6.962561e-03  3.618508e-03  0 
 -4.559468e-03  1.965153e-03  0 
 -6.491712e-03  3.511767e-03  0 
 -6.131941e-03  3.060553e-03  0 
 -5.875036e-03  1.623269e-03  0 
 -5.408752e-03  4.755470e-03  0 
 -5.342791e-03  3.634047e-03  0 
 -6.559033e-03  2.400571e-03  0 
 -5.477209e-03  3.152457e-03  0 
 -6.210556e-03  2.011829e-03  0 
 -5.375103e-03  4.164487e-03  0 
VECTORS displacement_ITER8 FLOAT
 -3.250039e-03  -5.793883e-07  0 
 -3.900549e-03  6.703541e-07  0 
 -4.550545e-03  8.652241e-07  0 
 -5.200516e-03  9.172392e-07  0 
 -5.850660e-03  -1.043980e-06  0 
 -4.947645e-03  3.250359e-03  0 
 -7.855402e-03  3.125958e-03  0 
 -7.311066e-03  3.162463e-03  0 
 -5.176211e-03  1.965927e-03  0 
 -4.781854e-03  1.360290e-03  0 
 -4.284059e-03  1.428019e-03  0 
 -3.560636e-03  5.917925e-04  0 
 -5.759855e-03  2.407688e-03  0 
 -5.977418e-03  3.770972e-03  0 
 -4.727576e-03  3.824845e-03  0 
 -4.366857e-03  7.040372e-04  0 
 -5.700623e-03  9.602494e-04  0 
 -5.076778e-03  8.263832e-04  0 
 -6.627621e-03  4.199700e-03  0 
 -7.231149e-03  3.990227e-03  0 
 -7.206164e-03  2.675098e-03  0 
 -3.936309e-03  3.796875e-03  0 
 -3.721859e-03  1.284682e-03  0 
 -4.749096e-03  4.507893e-03  0 
 -4.266647e-03  4.196533e-03  0 
 -4.943999e-03  3.852695e-04  0 
 -5.479714e-03  4.065517e-04  0 
 -3.884895e-03  4.599267e-03  0 
 -4.233439e-03  2.489281e-03  0 
 -6.045091e-03  4.485872e-03  0 
 -5.305685e-03  1.405932e-03  0 
 -3.934490e-03  1.939838e-03  0 
 -4.337437e-03  3.156101e-03  0 
 -6.764793e-03  3.040689e-03  0 
 -4.918951e-03  2.641704e-03  0 
 -7.578101e-03  3.648449e-03  0 
 -6.963179e-03  3.617413e-03  0 
 -4.562021e-03  1.965224e-03  0 
 -6.492019e-03  3.510691e-03  0 
 -6.131774e-03  3.058298e-03  0 
 -5.875928e-03  1.623191e-03  0 
 -5.408564e-03  4.755194e-03  0 
 -5.342007e-03  3.631990e-03  0 
 -6.558347e-03  2.397268e-03  0 
 -5.476443e-03  3.150431e-03  0 
 -6.210281e-03  2.008228e-03  0 
 -5.374931e-03  4.163211e-03  0 
VECTORS displacement_ITER9 FLOAT
 -3.249961e-03  2.591056e-08  0 
 -3.900002e-03  -1.686158e-07  0 
 -4.550055e-03  -3.536588e-07  0 
 -5.199986e-03  -4.696511e-07  0 
 -5.849551e-03  7.982028e-08  0 
 -4.948056e-03  3.250422e-03  0 
 -7.854408e-03  3.128106e-03  0 
 -7.310365e-03  3.163922e-03  0 
 -5.175801e-03  1.965728e-03  0 
 -4.781014e-03  1.359656e-03  0 
 -4.283212e-03  1.427118e-03  0 
 -3.559679e-03  5.908570e-04  0 
 -5.759786e-03  2.408136e-03  0 
 -5.977656e-03  3.771025e-03  0 
 -4.728385e-03  3.824949e-03  0 
 -4.365899e-03  7.030607e-04  0 
 -5.700045e-03  9.590998e-04  0 
 -5.076122e-03  8.255681e-04  0 
 -6.628085e-03  4.200256e-03  0 
 -7.231168e-03  3.990899e-03  0 
 -7.205254e-03  2.676437e-03  0 
 -3.937472e-03  3.798172e-03  0 
 -3.720857e-03  1.283378e-03  0 
 -4.749020e-03  4.508154e-03  0 
 -4.266780e-03  4.197514e-03  0 
 -4.943480e-03  3.840553e-04  0 
 -5.479682e-03  4.053274e-04  0 
 -3.882943e-03  4.602633e-03  0 
 -4.233278e-03  2.488460e-03  0 
 -6.046005e-03  4.485773e-03  0 
 -5.304912e-03  1.405415e-03  0 
 -3.934218e-03  1.938486e-03  0 
 -4.337808e-03  3.156062e-03  0 
 -6.764322e-03  3.041514e-03  0 
 -4.919074e-03  2.641587e-03  0 
 -7.577471e-03  3.650115e-03  0 
 -6.963040e-03  3.618224e-03  0 
 -4.561609e-03  1.964527e-03  0 
 -6.491942e-03  3.511164e-03  0 
 -6.131723e-03  3.058823e-03  0 
 -5.875478e-03  1.623259e-03  0 
 -5.409135e-03  4.755262e-03  0 
 -5.342500e-03  3.632008e-03  0 
 -6.558046e-03  2.398347e-03  0 
 -5.476711e-03  3.150653e-03  0 
 -6.210279e-03  2.008733e-03  0 
 -5.375471e-03  4.162862e-03  0 
VECTORS displacement_ITER10 FLOAT
 -3.250031e-03  8.882612e-09  0 
 -3.900016e-03  -8.030287e-09  0 
 -4.550027e-03  -5.340442e-09  0 
 -5.200039e-03  -1.992623e-08  0 
 -5.850010e-03  1.143252e-08  0 
 -4.948004e-03  3.250541e-03  0 
 -7.854630e-03  3.127894e-03  0 
 -7.310440e-03  3.163766e-03  0 
 -5.175863e-03  1.965865e-03  0 
 -4.781070e-03  1.359902e-03  0 
 -4.283246e-03  1.427523e-03  0 
 -3.559752e-03  5.909613e-04  0 
 -5.759927e-03  2.408281e-03  0 
 -5.977554e-03  3.771142e-03  0 
 -4.728323e-03  3.824973e-03  0 
 -4.365999e-03  7.033066e-04  0 
 -5.699922e-03  9.593395e-04  0 
 -5.076133e-03  8.258764e-04  0 
 -6.628030e-03  4.200526e-03  0 
 -7.231251e-03  3.990546e-03  0 
 -7.205208e-03  2.676100e-03  0 
 -3.937462e-03  3.798209e-03  0 
 -3.720757e-03  1.283801e-03  0 
 -4.749043e-03  4.508136e-03  0 
 -4.266758e-03  4.197379e-03  0 
 -4.943468e-03  3.844636e-04  0 
 -5.479550e-03  4.058015e-04  0 
 -3.883148e-03  4.602053e-03  0 
 -4.233311e-03  2.488643e-03  0 
 -6.046037e-03  4.485911e-03  0 
 -5.304916e-03  1.405595e-03  0 
 -3.934405e-03  1.938985e-03  0 
 -4.337754e-03  3.156191e-03  0 
 -6.764306e-03  3.041349e-03  0 
 -4.919092e-03  2.641748e-03  0 
 -7.577480e-03  3.649999e-03  0 
 -6.963139e-03  3.618084e-03  0 
 -4.561672e-03  1.964787e-03  0 
 -6.491933e-03  3.511138e-03  0 
 -6.131746e-03  3.058875e-03  0 
 -5.875493e-03  1.623456e-03  0 
 -5.409294e-03  4.755263e-03  0 
 -5.342427e-03  3.632105e-03  0 
 -6.558221e-03  2.398442e-03  0 
 -5.476682e-03  3.150789e-03  0 
 -6.210537e-03  2.008807e-03  0 
 -5.375443e-03  4.162904e-03  0 
VECTORS displacement_ITER11 FLOAT
 -3.249998e-03  8.421103e-09  0 
 -3.899998e-03  7.441508e-09  0 
 -4.549997e-03  7.384526e-09  0 
 -5.199996e-03  1.030357e-08  0 
 -5.850004e-03  1.240383e-08  0 
 -4.947988e-03  3.250543e-03  0 
 -7.854663e-03  3.127865e-03  0 
 -7.310427e-03  3.163823e-03  0 
 -5.175845e-03  1.965853e-03  0 
 -4.781070e-03  1.359901e-03  0 
 -4.283245e-03  1.427513e-03  0 
 -3.559752e-03  5.909755e-04  0 
 -5.759891e-03  2.408244e-03  0 
 -5.977562e-03  3.771146e-03  0 
 -4.728295e-03  3.825012e-03  0 
 -4.365981e-03  7.032955e-04  0 
 -5.699957e-03  9.593770e-04  0 
 -5.076128e-03  8.258711e-04  0 
 -6.628043e-03  4.200526e-03  0 
 -7.231277e-03  3.990538e-03  0 
 -7.205206e-03  2.676153e-03  0 
 -3.937403e-03  3.798223e-03  0 
 -3.720746e-03  1.283766e-03  0 
 -4.749024e-03  4.508182e-03  0 
 -4.266739e-03  4.197439e-03  0 
 -4.943431e-03  3.844705e-04  0 
 -5.479484e-03  4.058313e-04  0 
 -3.883141e-03  4.602148e-03  0 
 -4.233293e-03  2.488603e-03  0 
 -6.045979e-03  4.485924e-03  0 
 -5.304923e-03  1.405608e-03  0 
 -3.934411e-03  1.938967e-03  0 
 -4.337723e-03  3.156190e-03  0 
 -6.764302e-03  3.041386e-03  0 
 -4.919073e-03  2.641723e-03  0 
 -7.577435e-03  3.650095e-03  0 
 -6.963140e-03  3.618095e-03  0 
 -4.561662e-03  1.964768e-03  0 
 -6.491940e-03  3.511149e-03  0 
 -6.131749e-03  3.058882e-03  0 
 -5.875465e-03  1.623416e-03  0 
 -5.409207e-03  4.755299e-03  0 
 -5.342417e-03  3.632121e-03  0 
 -6.558199e-03  2.398478e-03  0 
 -5.476678e-03  3.150777e-03  0 
 -6.210502e-03  2.008722e-03  0 
 -5.375415e-03  4.162949e-03  0 
VECTORS displacement_ITER12 FLOAT
 -3.250000e-03  -6.589028e-10  0 
 -3.900000e-03  -1.598398e-10  0 
 -4.550000e-03  3.474167e-10  0 
 -5.200000e-03  5.828285e-10  0 
 -5.850001e-03  3.716923e-10  0 
 -4.947988e-03  3.250539e-03  0 
 -7.854671e-03  3.127828e-03  0 
 -7.310426e-03  3.163815e-03  0 
 -5.175844e-03  1.965851e-03  0 
 -4.781071e-03  1.359897e-03  0 
 -4.283246e-03  1.427510e-03  0 
 -3.559752e-03  5.909696e-04  0 
 -5.759892e-03  2.408246e-03  0 
 -5.977560e-03  3.771144e-03  0 
 -4.728297e-03  3.825005e-03  0 
 -4.365984e-03  7.032916e-04  0 
 -5.699966e-03  9.593714e-04  0 
 -5.076132e-03  8.258639e-04  0 
 -6.628043e-03  4.200533e-03  0 
 -7.231278e-03  3.990546e-03  0 
 -7.205214e-03  2.676141e-03  0 
 -3.937404e-03  3.798229e-03  0 
 -3.720749e-03  1.283767e-03  0 
 -4.749028e-03  4.508175e-03  0 
 -4.266739e-03  4.197435e-03  0 
 -4.943435e-03  3.844625e-04  0 
 -5.479487e-03  4.058183e-04  0 
 -3.883142e-03  4.602139e-03  0 
 -4.233296e-03  2.488597e-03  0 
 -6.045985e-03  4.485921e-03  0 
 -5.304925e-03  1.405606e-03  0 
 -3.934406e-03  1.938968e-03  0 
 -4.337725e-03  3.156184e-03  0 
 -6.764301e-03  3.041385e-03  0 
 -4.919074e-03  2.641721e-03  0 
 -7.577434e-03  3.650098e-03  0 
 -6.963137e-03  3.618096e-03  0 
 -4.561660e-03  1.964765e-03  0 
 -6.491937e-03  3.511150e-03  0 
 -6.131746e-03  3.058881e-03  0 
 -5.875464e-03  1.623413e-03  0 
 -5.409215e-03  4.755290e-03  0 
 -5.342417e-03  3.632116e-03  0 
 -6.558197e-03  2.398475e-03  0 
 -5.476677e-03  3.150775e-03  0 
 -6.210508e-03  2.008724e-03  0 
 -5.375417e-03  4.162942e-03  0 
CELL_DATA 67
TENSORS element_stresses FLOAT
 -1.000000e+00  3.572389e-07  0 
 3.572389e-07  1.000001e+00  0 
 0  0  0 

 -9.999995e-01  1.311309e-06  0 
 1.311309e-06  1.000002e+00  0 
 0  0  0 

 -1.000000e+00  3.916408e-07  0 
 3.916408e-07  1.000000e+00  0 
 0  0  0 

 -1.000001e+00  1.667230e-07  0 
 1.667230e-07  1.000001e+00  0 
 0  0  0 

 -1.000000e+00  1.040010e-06  0 
 1.040010e-06  9.999999e-01  0 
 0  0  0 

 -9.999996e-01  1.591614e-06  0 
 1.591614e-06  1.000002e+00  0 
 0  0  0 

 -9.999991e-01  -1.076268e-06  0 
 -1.076268e-06  9.999998e-01  0 
 0  0  0 

 -1.000000e+00  -4.382046e-07  0 
 -4.382046e-07  1.000003e+00  0 
 0  0  0 

 -9.999998e-01  1.005987e-06  0 
 1.005987e-06  1.000001e+00  0 
 0  0  0 

 -1.000000e+00  2.871997e-08  0 
 2.871997e-08  9.999993e-01  0 
 0  0  0 

 -1.000000e+00  4.662419e-07  0 
 4.662419e-07  9.999990e-01  0 
 0  0  0 

 -1.000000e+00  -1.776258e-06  0 
 -1.776258e-06  9.999986e-01  0 
 0  0  0 

 -9.999994e-01  -5.662957e-07  0 
 -5.662957e-07  1.000000e+00  0 
 0  0  0 

 -1.000002e+00  2.545073e-06  0 
 2.545073e-06  9.999986e-01  0 
 0  0  0 

 -1.000002e+00  -4.395216e-06  0 
 -4.395216e-06  9.999967e-01  0 
 0  0  0 

 -1.000000e+00  4.562596e-07  0 
 4.562596e-07  1.000000e+00  0 
 0  0  0 

 -1.000000e+00  1.519469e-06  0 
 1.519469e-06  1.000001e+00  0 
 0  0  0 

 -9.999995e-01  -2.940032e-07  0 
 -2.940032e-07  1.000002e+00  0 
 0  0  0 

 -1.000001e+00  -3.940721e-07  0 
 -3.940721e-07  1.000001e+00  0 
 0  0  0 

 -1.000000e+00  2.715542e-07  0 
 2.715542e-07  1.000000e+00  0 
 0  0  0 

 -1.000001e+00  1.229441e-07  0 
 1.229441e-07  1.000001e+00  0 
 0  0  0 

 -9.999982e-01  1.124507e-06  0 
 1.124507e-06  9.999994e-01  0 
 0  0  0 

 -9.999982e-01  -1.347656e-06  0 
 -1.347656e-06  9.999989e-01  0 
 0  0  0 

 -9.999993e-01  9.639451e-07  0 
 9.639451e-07  9.999983e-01  0 
 0  0  0 

 -1.000000e+00  -1.710330e-08  0 
 -1.710330e-08  1.000000e+00  0 
 0  0  0 

 -1.000001e+00  1.456208e-06  0 
 1.456208e-06  9.999989e-01  0 
 0  0  0 

 -9.999998e-01  1.298173e-06  0 
 1.298173e-06  1.000002e+00  0 
 0  0  0 

 -9.999999e-01  -2.437163e-07  0 
 -2.437163e-07  1.000000e+00  0 
 0  0  0 

 -9.999995e-01  8.018538e-07  0 
 8.018538e-07  1.000001e+00  0 
 0  0  0 

 -9.999993e-01  1.082603e-06  0 
 1.082603e-06  9.999983e-01  0 
 0  0  0 

 -1.000002e+00  4.091687e-07  0 
 4.091687e-07  1.000002e+00  0 
 0  0  0 

 -9.999996e-01  -5.069097e-07  0 
 -5.069097e-07  1.000002e+00  0 
 0  0  0 

 -1.000002e+00  2.712406e-06  0 
 2.712406e-06  9.999974e-01  0 
 0  0  0 

 -1.000001e+00  3.729672e-07  0 
 3.729672e-07  1.000002e+00  0 
 0  0  0 

 -1.000000e+00  -9.005521e-07  0 
 -9.005521e-07  9.999963e-01  0 
 0  0  0 

 -9.999999e-01  1.750967e-07  0 
 1.750967e-07  9.999997e-01  0 
 0  0  0 

 -1.000001e+00  1.101494e-06  0 
 1.101494e-06  9.999996e-01  0 
 0  0  0 

 -9.999997e-01  4.873186e-07  0 
 4.873186e-07  1.000000e+00  0 
 0  0  0 

 -9.999996e-01  -1.445683e-06  0 
 -1.445683e-06  9.999991e-01  0 
 0  0  0 

 -9.999998e-01  4.519418e-08  0 
 4.519418e-08  9.999984e-01  0 
 0  0  0 

 -9.999999e-01  -7.713295e-08  0 
 -7.713295e-08  1.000000e+00  0 
 0  0  0 

 -9.999998e-01  -1.107803e-08  0 
 -1.107803e-08  1.000000e+00  0 
 0  0  0 

 -1.000000e+00  2.001807e-07  0 
 2.001807e-07  1.000000e+00  0 
 0  0  0 

 -1.000000e+00  -4.388303e-07  0 
 -4.388303e-07  9.999998e-01  0 
 0  0  0 

 -1.000000e+00  -3.662426e-08  0 
 -3.662426e-08  1.000000e+00  0 
 0  0  0 

 -9.999989e-01  8.031767e-07  0 
 8.031767e-07  9.999976e-01  0 
 0  0  0 

 -1.000000e+00  -9.369017e-07  0 
 -9.369017e-07  9.999997e-01  0 
 0  0  0 

 -1.000001e+00  -1.448361e-06  0 
 -1.448361e-06  9.999998e-01  0 
 0  0  0 

 -9.999997e-01  2.583847e-07  0 
 2.583847e-07  1.000000e+00  0 
 0  0  0 

 -1.000000e+00  -1.917442e-07  0 
 -1.917442e-07  1.000000e+00  0 
 0  0  0 

 -1.000000e+00  7.633134e-08  0 
 7.633134e-08  9.999998e-01  0 
 0  0  0 

 -9.999999e-01  -4.405326e-07  0 
 -4.405326e-07  1.000000e+00  0 
 0  0  0 

 -1.000000e+00  -3.022600e-07  0 
 -3.022600e-07  9.999995e-01  0 
 0  0  0 

 -1.000000e+00  5.555356e-07  0 
 5.555356e-07  9.999998e-01  0 
 0  0  0 

 -1.000000e+00  -9.749491e-08  0 
 -9.749491e-08  1.000001e+00  0 
 0  0  0 

 -9.999993e-01  -1.087978e-06  0 
 -1.087978e-06  1.000000e+00  0 
 0  0  0 

 -1.000000e+00  -5.756861e-08  0 
 -5.756861e-08  1.000000e+00  0 
 0  0  0 

 -1.000000e+00  -2.401122e-08  0 
 -2.401122e-08  1.000000e+00  0 
 0  0  0 

 -1.000000e+00  2.144597e-06  0 
 2.144597e-06  1.000003e+00  0 
 0  0  0 

 -9.999956e-01  2.395803e-06  0 
 2.395803e-06  1.000001e+00  0 
 0  0  0 

 -1.000002e+00  -2.804874e-06  0 
 -2.804874e-06  9.999986e-01  0 
 0  0  0 

 -9.999998e-01  -7.274378e-07  0 
 -7.274378e-07  9.999984e-01  0 
 0  0  0 

 -1.000001e+00  8.624063e-07  0 
 8.624063e-07  9.999991e-01  0 
 0  0  0 

 -9.999996e-01  -3.164219e-07  0 
 -3.164219e-07  9.999997e-01  0 
 0  0  0 

 -1.000000e+00  -6.202442e-07  0 
 -6.202442e-07  9.999996e-01  0 
 0  0  0 

 -9.999993e-01  8.236502e-08  0 
 8.236502e-08  9.999997e-01  0 
 0  0  0 

 -1.000000e+00  -8.282736e-07  0 
 -8.282736e-07  1.000001e+00  0 
 0  0  0 

TENSORS element_stresses FLOAT
 -1.000000e+00  3.572389e-07  0 
 3.572389e-07  1.000001e+00  0 
 0  0  0 

 -9.999995e-01  1.311309e-06  0 
 1.311309e-06  1.000002e+00  0 
 0  0  0 

 -1.000000e+00  3.916408e-07  0 
 3.916408e-07  1.000000e+00  0 
 0  0  0 

 -1.000001e+00  1.667230e-07  0 
 1.667230e-07  1.000001e+00  0 
 0  0  0 

 -1.000000e+00  1.040010e-06  0 
 1.040010e-06  9.999999e-01  0 
 0  0  0 

 -9.999996e-01  1.591614e-06  0 
 1.591614e-06  1.000002e+00  0 
 0  0  0 

 -9.999991e-01  -1.076268e-06  0 
 -1.076268e-06  9.999998e-01  0 
 0  0  0 

 -1.000000e+00  -4.382046e-07  0 
 -4.382046e-07  1.000003e+00  0 
 0  0  0 

 -9.999998e-01  1.005987e-06  0 
 1.005987e-06  1.000001e+00  0 
 0  0  0 

 -1.000000e+00  2.871997e-08  0 
 2.871997e-08  9.999993e-01  0 
 0  0  0 

 -1.000000e+00  4.662419e-07  0 
 4.662419e-07  9.999990e-01  0 
 0  0  0 

 -1.000000e+00  -1.776258e-06  0 
 -1.776258e-06  9.999986e-01  0 
 0  0  0 

 -9.999994e-01  -5.662957e-07  0 
 -5.662957e-07  1.000000e+00  0 
 0  0  0 

 -1.000002e+00  2.545073e-06  0 
 2.545073e-06  9.999986e-01  0 
 0  0  0 

 -1.000002e+00  -4.395216e-06  0 
 -4.395216e-06  9.999967e-01  0 
 0  0  0 

 -1.000000e+00  4.562596e-07  0 
 4.562596e-07  1.000000e+00  0 
 0  0  0 

 -1.000000e+00  1.519469e-06  0 
 1.519469e-06  1.000001e+00  0 
 0  0  0 

 -9.999995e-01  -2.940032e-07  0 
 -2.940032e-07  1.000002e+00  0 
 0  0  0 

 -1.000001e+00  -3.940721e-07  0 
 -3.940721e-07  1.000001e+00  0 
 0  0  0 

 -1.000000e+00  2.715542e-07  0 
 2.715542e-07  1.000000e+00  0 
 0  0  0 

 -1.000001e+00  1.229441e-07  0 
 1.229441e-07  1.000001e+00  0 
 0  0  0 

 -9.999982e-01  1.124507e-06  0 
 1.124507e-06  9.999994e-01  0 
 0  0  0 

 -9.999982e-01  -1.347656e-06  0 
 -1.347656e-06  9.999989e-01  0 
 0  0  0 

 -9.999993e-01  9.639451e-07  0 
 9.639451e-07  9.999983e-01  0 
 0  0  0 

 -1.000000e+00  -1.710330e-08  0 
 -1.710330e-08  1.000000e+00  0 
 0  0  0 

 -1.000001e+00  1.456208e-06  0 
 1.456208e-06  9.999989e-01  0 
 0  0  0 

 -9.999998e-01  1.298173e-06  0 
 1.298173e-06  1.000002e+00  0 
 0  0  0 

 -9.999999e-01  -2.437163e-07  0 
 -2.437163e-07  1.000000e+00  0 
 0  0  0 

 -9.999995e-01  8.018538e-07  0 
 8.018538e-07  1.000001e+00  0 
 0  0  0 

 -9.999993e-01  1.082603e-06  0 
 1.082603e-06  9.999983e-01  0 
 0  0  0 

 -1.000002e+00  4.091687e-07  0 
 4.091687e-07  1.000002e+00  0 
 0  0  0 

 -9.999996e-01  -5.069097e-07  0 
 -5.069097e-07  1.000002e+00  0 
 0  0  0 

 -1.000002e+00  2.712406e-06  0 
 2.712406e-06  9.999974e-01  0 
 0  0  0 

 -1.000001e+00  3.729672e-07  0 
 3.729672e-07  1.000002e+00  0 
 0  0  0 

 -1.000000e+00  -9.005521e-07  0 
 -9.005521e-07  9.999963e-01  0 
 0  0  0 

 -9.999999e-01  1.750967e-07  0 
 1.750967e-07  9.999997e-01  0 
 0  0  0 

 -1.000001e+00  1.101494e-06  0 
 1.101494e-06  9.999996e-01  0 
 0  0  0 

 -9.999997e-01  4.873186e-07  0 
 4.873186e-07  1.000000e+00  0 
 0  0  0 

 -9.999996e-01  -1.445683e-06  0 
 -1.445683e-06  9.999991e-01  0 
 0  0  0 

 -9.999998e-01  4.519418e-08  0 
 4.519418e-08  9.999984e-01  0 
 0  0  0 

 -9.999999e-01  -7.713295e-08  0 
 -7.713295e-08  1.000000e+00  0 
 0  0  0 

 -9.999998e-01  -1.107803e-08  0 
 -1.107803e-08  1.000000e+00  0 
 0  0  0 

 -1.000000e+00  2.001807e-07  0 
 2.001807e-07  1.000000e+00  0 
 0  0  0 

 -1.000000e+00  -4.388303e-07  0 
 -4.388303e-07  9.999998e-01  0 
 0  0  0 

 -1.000000e+00  -3.662426e-08  0 