# vtk DataFile Version 3.1
this is an vtk file created by FEMAC
ASCII
DATASET UNSTRUCTURED_GRID
POINTS 47 FLOAT
2.000000 0.000000 0.000000
2.000000 0.100000 0.000000
2.000000 0.200000 0.000000
2.000000 0.300000 0.000000
2.000000 0.400000 0.000000
2.000000 0.500000 0.000000
2.000000 0.600000 0.000000
2.000000 0.700000 0.000000
1.800000 0.000000 0.000000
1.900000 0.000000 0.000000
1.314544 0.533627 0.000000
1.411400 0.484352 0.000000
1.690504 0.306242 0.000000
1.916516 0.185634 0.000000
1.764880 0.505088 0.000000
1.739682 0.095407 0.000000
1.676461 0.577534 0.000000
1.701699 0.401559 0.000000
1.827347 0.161850 0.000000
1.937676 0.267177 0.000000
1.393709 0.409839 0.000000
1.872017 0.479201 0.000000
1.521416 0.267090 0.000000
1.488494 0.422293 0.000000
1.819955 0.087479 0.000000
1.628269 0.246276 0.000000
1.899985 0.334072 0.000000
1.661062 0.157021 0.000000
1.894831 0.076423 0.000000
1.645606 0.509048 0.000000
1.447002 0.340225 0.000000
1.897903 0.641045 0.000000
1.740147 0.219519 0.000000
1.848369 0.242709 0.000000
1.612421 0.332644 0.000000
1.419647 0.582434 0.000000
1.788437 0.318434 0.000000
1.847775 0.556946 0.000000
1.826521 0.406209 0.000000
1.306202 0.436288 0.000000
1.919705 0.423896 0.000000
1.582321 0.608275 0.000000
1.936134 0.579455 0.000000
1.786119 0.605583 0.000000
1.518207 0.517537 0.000000
1.536637 0.357446 0.000000
1.584138 0.424715 0.000000
CELLS 68 272 
3 1 13  2
3 19  3  2
3 13 19  2
3 11 23 20
3 24  8 15
3 18 24 15
3 29 14 17
3 14 29 16
3 26 19 33
3 0  9 28
3 28 13  1
3 0 28  1
3 32 33 18
3 4  3 26
3 3 19 26
3 31  7  6
3 24 18 28
3 18 33 13
3 18 13 28
3 13 33 19
3 25 12 32
3 15 32 18
3 15 27 32
3 25 32 27
3 12 34 17
3 25 34 12
3 25 22 34
3 24  9  8
3 28  9 24
3 35 11 10
3 32 36 33
3 36 32 12
3 21 38 14
3 38 17 14
3 37 21 14
3 23 30 20
3 40  4 26
3 38 40 26
3 42 31  6
3 31 42 37
3 16 43 14
3 43 37 14
3 30 45 22
3 45 34 22
3 45 30 23
3 40  5  4
3 21 40 38
3 40 21  5
3 5 42  6
3 16 29 41
3 44 41 29
3 36 12 17
3 36 17 38
3 36 38 26
3 26 33 36
3 11 39 10
3 39 11 20
3 21 42  5
3 21 37 42
3 46 29 17
3 34 46 17
3 46 45 23
3 34 45 46
3 44 46 23
3 44 29 46
3 37 43 31
3 11 35 44
3 11 44 23
CELL_TYPES 68
5 5 5 5 5 5 5 5 5 5 5 5 5 5 5 5 5 5 5 5 5 5 5 5 5 5 5 5 5 5 5 5 5 5 5 5 5 5 5 5 5 5 5 5 5 5 5 5 5 5 5 5 5 5 5 5 5 5 5 5 5 5 5 5 5 5 5 5 
POINT_DATA 47
VECTORS displacement_ITER1 FLOAT
 -1.392701e-02  -2.706669e-03  0 
 -1.378098e-02  -2.031866e-03  0 
 -1.369215e-02  -1.271403e-03  0 
 -1.370700e-02  -4.277653e-04  0 
 -1.383038e-02  4.554656e-04  0 
 -1.410165e-02  1.397254e-03  0 
 -1.458307e-02  2.317750e-03  0 
 -1.542359e-02  2.985607e-03  0 
 -1.274222e-02  -2.288852e-03  0 
 -1.330300e-02  -2.541375e-03  0 
 -6.929269e-03  1.645631e-03  0 
 -8.751203e-03  5.901727e-04  0 
 -1.160820e-02  -7.109804e-04  0 
 -1.311562e-02  -1.353229e-03  0 
 -1.236197e-02  7.561747e-04  0 
 -1.215690e-02  -1.749174e-03  0 
 -1.168503e-02  1.516297e-03  0 
 -1.169942e-02  -1.108702e-04  0 
 -1.255798e-02  -1.471988e-03  0 
 -1.324444e-02  -7.416203e-04  0 
 -9.448792e-03  4.685662e-04  0 
 -1.308826e-02  7.828623e-04  0 
 -1.074953e-02  -8.411451e-04  0 
 -9.876553e-03  -2.237081e-05  0 
 -1.264249e-02  -1.889086e-03  0 
 -1.131099e-02  -1.042690e-03  0 
 -1.300272e-02  -2.629098e-04  0 
 -1.161630e-02  -1.372694e-03  0 
 -1.312335e-02  -2.065833e-03  0 
 -1.128665e-02  8.650598e-04  0 
 -1.014170e-02  -1.037672e-04  0 
 -1.417813e-02  2.012550e-03  0 
 -1.195764e-02  -1.133586e-03  0 
 -1.262824e-02  -9.649490e-04  0 
 -1.108900e-02  -6.503683e-04  0 
 -8.113621e-03  1.961871e-03  0 
 -1.223425e-02  -5.252078e-04  0 
 -1.323394e-02  1.302161e-03  0 
 -1.259205e-02  1.488800e-04  0 
 -8.760152e-03  1.372972e-03  0 
 -1.328172e-02  4.845766e-04  0 
 -1.098941e-02  1.906623e-03  0 
 -1.399060e-02  1.808303e-03  0 
 -1.289754e-02  1.663550e-03  0 
 -9.951763e-03  8.379890e-04  0 
 -1.052335e-02  -4.419344e-04  0 
 -1.070483e-02  -5.074269e-06  0 
VECTORS displacement_ITER2 FLOAT
 -1.289672e-02  1.482491e-03  0 
 -1.291999e-02  2.153602e-03  0 
 -1.295126e-02  2.828391e-03  0 
 -1.297620e-02  3.481768e-03  0 
 -1.298412e-02  4.084557e-03  0 
 -1.295341e-02  4.595661e-03  0 
 -1.284703e-02  5.011395e-03  0 
 -1.260271e-02  5.320641e-03  0 
 -1.162660e-02  1.474806e-03  0 
 -1.224993e-02  1.465565e-03  0 
 -8.770544e-03  3.739663e-03  0 
 -9.235158e-03  4.089113e-03  0 
 -1.088241e-02  3.505979e-03  0 
 -1.239365e-02  2.706914e-03  0 
 -1.153711e-02  4.882142e-03  0 
 -1.120202e-02  2.039666e-03  0 
 -1.093410e-02  5.495344e-03  0 
 -1.105408e-02  4.219310e-03  0 
 -1.178831e-02  2.511718e-03  0 
 -1.256068e-02  3.264156e-03  0 
 -8.961317e-03  3.674262e-03  0 
 -1.219885e-02  4.594169e-03  0 
 -9.636591e-03  3.182371e-03  0 
 -9.537444e-03  4.111851e-03  0 
 -1.172683e-02  2.016538e-03  0 
 -1.041474e-02  3.062398e-03  0 
 -1.234436e-02  3.703175e-03  0 
 -1.065154e-02  2.490803e-03  0 
 -1.221789e-02  1.962583e-03  0 
 -1.075505e-02  5.041075e-03  0 
 -9.176247e-03  3.620119e-03  0 
 -1.222591e-02  5.427247e-03  0 
 -1.118915e-02  2.900617e-03  0 
 -1.195476e-02  3.085549e-03  0 
 -1.032951e-02  3.679121e-03  0 
 -9.743169e-03  4.784891e-03  0 
 -1.158766e-02  3.609126e-03  0 
 -1.200351e-02  5.051839e-03  0 
 -1.189680e-02  4.190302e-03  0 
 -8.549434e-03  3.215311e-03  0 
 -1.249298e-02  4.245938e-03  0 
 -1.051953e-02  5.620148e-03  0 
 -1.252002e-02  5.048854e-03  0 
 -1.157090e-02  5.440359e-03  0 
 -1.002956e-02  4.903140e-03  0 
 -9.790910e-03  3.793451e-03  0 
 -1.022506e-02  4.373102e-03  0 
VECTORS displacement_ITER3 FLOAT
 -1.331829e-02  -3.575549e-04  0 
 -1.328936e-02  2.864688e-04  0 
 -1.325713e-02  9.107480e-04  0 
 -1.320991e-02  1.528899e-03  0 
 -1.315320e-02  2.149408e-03  0 
 -1.311368e-02  2.798554e-03  0 
 -1.311375e-02  3.471170e-03  0 
 -1.322676e-02  4.113486e-03  0 
 -1.201979e-02  -2.814202e-04  0 
 -1.266693e-02  -3.289226e-04  0 
 -8.760382e-03  3.307465e-03  0 
 -9.426052e-03  2.981140e-03  0 
 -1.124173e-02  1.731165e-03  0 
 -1.273060e-02  8.564937e-04  0 
 -1.160177e-02  2.912894e-03  0 
 -1.160165e-02  3.169191e-04  0 
 -1.092538e-02  3.498729e-03  0 
 -1.126768e-02  2.332116e-03  0 
 -1.216549e-02  7.412361e-04  0 
 -1.282892e-02  1.355838e-03  0 
 -9.348373e-03  2.574006e-03  0 
 -1.229280e-02  2.692434e-03  0 
 -1.016236e-02  1.630351e-03  0 
 -9.891344e-03  2.634255e-03  0 
 -1.212349e-02  2.605836e-04  0 
 -1.086605e-02  1.373429e-03  0 
 -1.255532e-02  1.790812e-03  0 
 -1.105755e-02  7.686139e-04  0 
 -1.261546e-02  1.691244e-04  0 
 -1.082247e-02  3.082486e-03  0 
 -9.683265e-03  2.211647e-03  0 
 -1.247013e-02  3.706362e-03  0 
 -1.158230e-02  1.157201e-03  0 
 -1.227092e-02  1.249770e-03  0 
 -1.072356e-02  1.964883e-03  0 
 -9.383124e-03  3.586476e-03  0 
 -1.185927e-02  1.757372e-03  0 
 -1.210933e-02  3.176179e-03  0 
 -1.204910e-02  2.274528e-03  0 
 -8.836749e-03  2.586100e-03  0 
 -1.262507e-02  2.333879e-03  0 
 -1.031162e-02  3.743887e-03  0 
 -1.268823e-02  3.322605e-03  0 
 -1.165973e-02  3.534381e-03  0 
 -1.003985e-02  3.207313e-03  0 
 -1.022441e-02  2.198144e-03  0 
 -1.049039e-02  2.591756e-03  0 
VECTORS displacement_ITER4 FLOAT
 -1.293613e-02  3.716920e-05  0 
 -1.296349e-02  6.921759e-04  0 
 -1.299265e-02  1.344863e-03  0 
 -1.302114e-02  1.997546e-03  0 
 -1.305157e-02  2.648778e-03  0 
 -1.308632e-02  3.297572e-03  0 
 -1.308778e-02  3.903550e-03  0 
 -1.296440e-02  4.456184e-03  0 
 -1.164231e-02  -1.254690e-05  0 
 -1.228517e-02  8.733545e-06  0 
 -8.579235e-03  3.464045e-03  0 
 -9.240375e-03  3.105138e-03  0 
 -1.101683e-02  1.952684e-03  0 
 -1.244527e-02  1.227778e-03  0 
 -1.153294e-02  3.276116e-03  0 
 -1.125656e-02  5.758572e-04  0 
 -1.096626e-02  3.723625e-03  0 
 -1.110650e-02  2.576644e-03  0 
 -1.185776e-02  1.048224e-03  0 
 -1.260586e-02  1.765320e-03  0 
 -9.116823e-03  2.644769e-03  0 
 -1.223773e-02  3.133650e-03  0 
 -9.933310e-03  1.686423e-03  0 
 -9.725399e-03  2.696866e-03  0 
 -1.178207e-02  5.541514e-04  0 
 -1.059410e-02  1.540536e-03  0 
 -1.238106e-02  2.189147e-03  0 
 -1.076102e-02  9.729588e-04  0 
 -1.227047e-02  5.071744e-04  0 
 -1.075287e-02  3.274483e-03  0 
 -9.478386e-03  2.202662e-03  0 
 -1.242726e-02  4.243487e-03  0 
 -1.130634e-02  1.404562e-03  0 
 -1.201778e-02  1.581851e-03  0 
 -1.051951e-02  2.105646e-03  0 
 -9.252926e-03  3.751937e-03  0 
 -1.165274e-02  2.056990e-03  0 
 -1.209189e-02  3.652898e-03  0 
 -1.192238e-02  2.638434e-03  0 
 -8.563556e-03  2.769744e-03  0 
 -1.253685e-02  2.779944e-03  0 
 -1.038913e-02  3.885910e-03  0 
 -1.268464e-02  3.809597e-03  0 
 -1.169840e-02  3.954419e-03  0 
 -9.929088e-03  3.286852e-03  0 
 -1.003726e-02  2.273533e-03  0 
 -1.033985e-02  2.707713e-03  0 
VECTORS displacement_ITER5 FLOAT
 -1.298525e-02  9.286434e-05  0 
 -1.298829e-02  7.450077e-04  0 
 -1.299363e-02  1.396838e-03  0 
 -1.300213e-02  2.045972e-03  0 
 -1.301072e-02  2.692447e-03  0 
 -1.301817e-02  3.340199e-03  0 
 -1.302328e-02  3.987934e-03  0 
 -1.304128e-02  4.636010e-03  0 
 -1.168879e-02  9.076712e-05  0 
 -1.233566e-02  9.013074e-05  0 
 -8.565230e-03  3.539997e-03  0 
 -9.177866e-03  3.244784e-03  0 
 -1.099858e-02  2.059304e-03  0 
 -1.244974e-02  1.298560e-03  0 
 -1.148734e-02  3.356943e-03  0 
 -1.129234e-02  7.070178e-04  0 
 -1.091141e-02  3.824748e-03  0 
 -1.107588e-02  2.678784e-03  0 
 -1.186797e-02  1.139855e-03  0 
 -1.259463e-02  1.828229e-03  0 
 -9.046367e-03  2.759474e-03  0 
 -1.218454e-02  3.196569e-03  0 
 -9.907360e-03  1.787452e-03  0 
 -9.678136e-03  2.822645e-03  0 
 -1.181565e-02  6.561862e-04  0 
 -1.058750e-02  1.660384e-03  0 
 -1.235671e-02  2.257638e-03  0 
 -1.079683e-02  1.095592e-03  0 
 -1.230283e-02  5.868413e-04  0 
 -1.071018e-02  3.384118e-03  0 
 -9.422392e-03  2.289030e-03  0 
 -1.235979e-02  4.254281e-03  0 
 -1.131062e-02  1.502957e-03  0 
 -1.201343e-02  1.663360e-03  0 
 -1.049604e-02  2.221176e-03  0 
 -9.225253e-03  3.880217e-03  0 
 -1.163326e-02  2.146796e-03  0 
 -1.203078e-02  3.702392e-03  0 
 -1.188562e-02  2.718220e-03  0 
 -8.474346e-03  2.899217e-03  0 
 -1.249148e-02  2.840734e-03  0 
 -1.031493e-02  4.030317e-03  0 
 -1.260740e-02  3.853113e-03  0 
 -1.163107e-02  4.016707e-03  0 
 -9.876252e-03  3.437362e-03  0 
 -1.000215e-02  2.386431e-03  0 
 -1.030605e-02  2.827960e-03  0 
VECTORS displacement_ITER6 FLOAT
 -1.301501e-02  -9.955457e-06  0 
 -1.300777e-02  6.406054e-04  0 
 -1.300129e-02  1.292863e-03  0 
 -1.299662e-02  1.945764e-03  0 
 -1.299338e-02  2.597849e-03  0 
 -1.299040e-02  3.248113e-03  0 
 -1.298741e-02  3.898043e-03  0 
 -1.299344e-02  4.550693e-03  0 
 -1.171660e-02  6.301637e-06  0 
 -1.236557e-02  -2.140206e-06  0 
 -8.537420e-03  3.463497e-03  0 
 -9.168201e-03  3.147484e-03  0 
 -1.098226e-02  1.998374e-03  0 
 -1.245859e-02  1.203758e-03  0 
 -1.146261e-02  3.287560e-03  0 
 -1.131737e-02  6.304265e-04  0 
 -1.088865e-02  3.755968e-03  0 
 -1.105396e-02  2.616742e-03  0 
 -1.187987e-02  1.053614e-03  0 
 -1.259224e-02  1.734293e-03  0 
 -9.048743e-03  2.664267e-03  0 
 -1.215936e-02  3.117245e-03  0 
 -9.878707e-03  1.735380e-03  0 
 -9.667644e-03  2.746918e-03  0 
 -1.183875e-02  5.721421e-04  0 
 -1.057736e-02  1.609885e-03  0 
 -1.234442e-02  2.171741e-03  0 
 -1.080241e-02  1.033015e-03  0 
 -1.232562e-02  4.943291e-04  0 
 -1.068995e-02  3.314273e-03  0 
 -9.401160e-03  2.211958e-03  0 
 -1.232112e-02  4.167981e-03  0 
 -1.130868e-02  1.432268e-03  0 
 -1.201208e-02  1.578908e-03  0 
 -1.047499e-02  2.169531e-03  0 
 -9.226104e-03  3.786403e-03  0 
 -1.161915e-02  2.074249e-03  0 
 -1.200002e-02  3.623461e-03  0 
 -1.186490e-02  2.643653e-03  0 
 -8.482581e-03  2.824459e-03  0 
 -1.247063e-02  2.755958e-03  0 
 -1.028362e-02  3.957035e-03  0 
 -1.257292e-02  3.766362e-03  0 
 -1.159922e-02  3.940301e-03  0 
 -9.863781e-03  3.367309e-03  0 
 -9.982749e-03  2.325798e-03  0 
 -1.029070e-02  2.765628e-03  0 
VECTORS displacement_ITER7 FLOAT
 -1.299644e-02  5.467638e-06  0 
 -1.299777e-02  6.551595e-04  0 
 -1.299876e-02  1.304788e-03  0 
 -1.299959e-02  1.954318e-03  0 
 -1.300034e-02  2.603927e-03  0 
 -1.300055e-02  3.252872e-03  0 
 -1.300007e-02  3.901093e-03  0 
 -1.300237e-02  4.550076e-03  0 
 -1.169548e-02  1.503245e-06  0 
 -1.234634e-02  4.036489e-06  0 
 -8.543449e-03  3.472914e-03  0 
 -9.174903e-03  3.149680e-03  0 
 -1.098784e-02  1.993619e-03  0 
 -1.245611e-02  1.210684e-03  0 
 -1.147255e-02  3.285695e-03  0 
 -1.130584e-02  6.229936e-04  0 
 -1.089850e-02  3.754732e-03  0 
 -1.106140e-02  2.612691e-03  0 
 -1.187631e-02  1.055292e-03  0 
 -1.259434e-02  1.740634e-03  0 
 -9.059829e-03  2.666154e-03  0 
 -1.216911e-02  3.118196e-03  0 
 -9.886960e-03  1.736043e-03  0 
 -9.676115e-03  2.745892e-03  0 
 -1.182758e-02  5.718133e-04  0 
 -1.058217e-02  1.603631e-03  0 
 -1.234986e-02  2.175018e-03  0 
 -1.079627e-02  1.022652e-03  0 
 -1.231402e-02  5.007657e-04  0 
 -1.069783e-02  3.310001e-03  0 
 -9.407714e-03  2.212277e-03  0 
 -1.233605e-02  4.168820e-03  0 
 -1.131024e-02  1.429296e-03  0 
 -1.201378e-02  1.580935e-03  0 
 -1.048093e-02  2.164665e-03  0 
 -9.226901e-03  3.787984e-03  0 
 -1.162464e-02  2.072806e-03  0 
 -1.201194e-02  3.623619e-03  0 
 -1.187280e-02  2.643393e-03  0 
 -8.492995e-03  2.838610e-03  0 
 -1.247874e-02  2.758875e-03  0 
 -1.028620e-02  3.955744e-03  0 
 -1.258558e-02  3.768627e-03  0 
 -1.161186e-02  3.939819e-03  0 
 -9.869193e-03  3.365532e-03  0 
 -9.989365e-03  2.324113e-03  0 
 -1.029811e-02  2.761743e-03  0 
VECTORS displacement_ITER8 FLOAT
 -1.300011e-02  -1.597561e-06  0 
 -1.300040e-02  6.482256e-04  0 
 -1.300052e-02  1.297953e-03  0 
 -1.300045e-02  1.947728e-03  0 
 -1.300027e-02  2.597808e-03  0 
 -1.300027e-02  3.248164e-03  0 
 -1.300024e-02  3.898113e-03  0 
 -1.299999e-02  4.547253e-03  0 
 -1.169976e-02  -2.560237e-06  0 
 -1.235006e-02  -1.926223e-06  0 
 -8.544485e-03  3.467405e-03  0 
 -9.173913e-03  3.147184e-03  0 
 -1.098855e-02  1.988865e-03  0 
 -1.245796e-02  1.204565e-03  0 
 -1.147144e-02  3.281302e-03  0 
 -1.130850e-02  6.178675e-04  0 
 -1.089635e-02  3.752340e-03  0 
 -1.106101e-02  2.608577e-03  0 
 -1.187841e-02  1.049908e-03  0 
 -1.259543e-02  1.734458e-03  0 
 -9.058814e-03  2.662583e-03  0 
 -1.216810e-02  3.112890e-03  0 
 -9.889208e-03  1.735275e-03  0 
 -9.675040e-03  2.743855e-03  0 
 -1.183021e-02  5.665025e-04  0 
 -1.058424e-02  1.599252e-03  0 
 -1.235027e-02  2.169293e-03  0 
 -1.079781e-02  1.018361e-03  0 
 -1.231682e-02  4.948155e-04  0 
 -1.069612e-02  3.307380e-03  0 
 -9.405507e-03  2.210507e-03  0 
 -1.233659e-02  4.165745e-03  0 
 -1.131172e-02  1.424694e-03  0 
 -1.201504e-02  1.575457e-03  0 
 -1.048074e-02  2.160959e-03  0 
 -9.227659e-03  3.784796e-03  0 
 -1.162522e-02  2.067809e-03  0 
 -1.201044e-02  3.618534e-03  0 
 -1.187247e-02  2.638363e-03  0 
 -8.490013e-03  2.834848e-03  0 
 -1.247822e-02  2.753247e-03  0 
 -1.028441e-02  3.952310e-03  0 
 -1.258510e-02  3.764922e-03  0 
 -1.160952e-02  3.934785e-03  0 
 -9.868190e-03  3.363019e-03  0 
 -9.988083e-03  2.322358e-03  0 
 -1.029679e-02  2.759516e-03  0 
VECTORS displacement_ITER9 FLOAT
 -1.299961e-02  4.726277e-07  0 
 -1.299966e-02  6.504971e-04  0 
 -1.299972e-02  1.300511e-03  0 
 -1.299980e-02  1.950502e-03  0 
 -1.299986e-02  2.600471e-03  0 
 -1.299995e-02  3.250471e-03  0 
 -1.300008e-02  3.900506e-03  0 
 -1.300030e-02  4.550512e-03  0 
 -1.169960e-02  3.104472e-07  0 
 -1.234960e-02  4.038423e-07  0 
 -8.544500e-03  3.468704e-03  0 
 -9.174064e-03  3.148382e-03  0 
 -1.098814e-02  1.990857e-03  0 
 -1.245707e-02  1.207086e-03  0 
 -1.147172e-02  3.283324e-03  0 
 -1.130750e-02  6.204926e-04  0 
 -1.089701e-02  3.754237e-03  0 
 -1.106099e-02  2.610400e-03  0 
 -1.187744e-02  1.052445e-03  0 
 -1.259467e-02  1.737114e-03  0 
 -9.059074e-03  2.664008e-03  0 
 -1.216805e-02  3.115137e-03  0 
 -9.889076e-03  1.736282e-03  0 
 -9.675179e-03  2.745009e-03  0 
 -1.182932e-02  5.689817e-04  0 
 -1.058359e-02  1.601055e-03  0 
 -1.234974e-02  2.171891e-03  0 
 -1.079661e-02  1.020983e-03  0 
 -1.231604e-02  4.971751e-04  0 
 -1.069644e-02  3.309077e-03  0 
 -9.405522e-03  2.211587e-03  0 
 -1.233650e-02  4.167173e-03  0 
 -1.131072e-02  1.427228e-03  0 
 -1.201417e-02  1.578028e-03  0 
 -1.048064e-02  2.162409e-03  0 
 -9.227764e-03  3.785980e-03  0 
 -1.162469e-02  2.070177e-03  0 
 -1.201052e-02  3.620417e-03  0 
 -1.187229e-02  2.640699e-03  0 
 -8.490280e-03  2.836098e-03  0 
 -1.247797e-02  2.755722e-03  0 
 -1.028523e-02  3.954040e-03  0 
 -1.258490e-02  3.766871e-03  0 
 -1.160978e-02  3.936460e-03  0 
 -9.868347e-03  3.364113e-03  0 
 -9.988088e-03  2.323562e-03  0 
 -1.029686e-02  2.760833e-03  0 
VECTORS displacement_ITER10 FLOAT
 -1.300002e-02  1.002894e-08  0 
 -1.300002e-02  6.500080e-04  0 
 -1.300002e-02  1.300007e-03  0 
 -1.300002e-02  1.950010e-03  0 
 -1.300002e-02  2.600011e-03  0 
 -1.300001e-02  3.250009e-03  0 
 -1.300000e-02  3.899997e-03  0 
 -1.300002e-02  4.549979e-03  0 
 -1.170002e-02  1.045670e-08  0 
 -1.235002e-02  1.010097e-08  0 
 -8.544542e-03  3.468567e-03  0 
 -9.174087e-03  3.148292e-03  0 
 -1.098829e-02  1.990581e-03  0 
 -1.245737e-02  1.206631e-03  0 
 -1.147173e-02  3.283096e-03  0 
 -1.130795e-02  6.201521e-04  0 
 -1.089699e-02  3.754045e-03  0 
 -1.106105e-02  2.610151e-03  0 
 -1.187777e-02  1.052031e-03  0 
 -1.259491e-02  1.736657e-03  0 
 -9.059084e-03  2.663945e-03  0 
 -1.216813e-02  3.114824e-03  0 
 -9.889223e-03  1.736120e-03  0 
 -9.675189e-03  2.744929e-03  0 
 -1.182973e-02  5.686238e-04  0 
 -1.058377e-02  1.600796e-03  0 
 -1.234992e-02  2.171480e-03  0 
 -1.079691e-02  1.020645e-03  0 
 -1.231642e-02  4.967606e-04  0 
 -1.069643e-02  3.308868e-03  0 
 -9.405509e-03  2.211522e-03  0 
 -1.233637e-02  4.166817e-03  0 
 -1.131097e-02  1.426886e-03  0 
 -1.201442e-02  1.577618e-03  0 
 -1.048073e-02  2.162195e-03  0 
 -9.227712e-03  3.785797e-03  0 
 -1.162485e-02  2.069834e-03  0 
 -1.201055e-02  3.620171e-03  0 
 -1.187240e-02  2.640372e-03  0 
 -8.490251e-03  2.835840e-03  0 
 -1.247810e-02  2.755340e-03  0 
 -1.028510e-02  3.953874e-03  0 
 -1.258488e-02  3.766473e-03  0 
 -1.160979e-02  3.936307e-03  0 
 -9.868312e-03  3.363991e-03  0 
 -9.988128e-03  2.323431e-03  0 
 -1.029688e-02  2.760671e-03  0 
VECTORS displacement_ITER11 FLOAT
 -1.300000e-02  8.805408e-09  0 
 -1.300000e-02  6.500099e-04  0 
 -1.300000e-02  1.300010e-03  0 
 -1.300000e-02  1.950010e-03  0 
 -1.300000e-02  2.600009e-03  0 
 -1.300000e-02  3.250005e-03  0 
 -1.300000e-02  3.900003e-03  0 
 -1.300000e-02  4.550008e-03  0 
 -1.170000e-02  9.405028e-09  0 
 -1.235000e-02  8.030754e-09  0 
 -8.544535e-03  3.468586e-03  0 
 -9.174101e-03  3.148291e-03  0 
 -1.098828e-02  1.990581e-03  0 
 -1.245735e-02  1.206632e-03  0 
 -1.147172e-02  3.283079e-03  0 
 -1.130792e-02  6.201515e-04  0 
 -1.089700e-02  3.753980e-03  0 
 -1.106104e-02  2.610140e-03  0 
 -1.187775e-02  1.052032e-03  0 
 -1.259489e-02  1.736657e-03  0 
 -9.059111e-03  2.663961e-03  0 
 -1.216811e-02  3.114816e-03  0 
 -9.889203e-03  1.736092e-03  0 
 -9.675212e-03  2.744909e-03  0 
 -1.182970e-02  5.686218e-04  0 
 -1.058375e-02  1.600795e-03  0 
 -1.234991e-02  2.171477e-03  0 
 -1.079690e-02  1.020634e-03  0 
 -1.231640e-02  4.967601e-04  0 
 -1.069644e-02  3.308814e-03  0 
 -9.405509e-03  2.211474e-03  0 
 -1.233636e-02  4.166803e-03  0 
 -1.131095e-02  1.426878e-03  0 
 -1.201440e-02  1.577617e-03  0 
 -1.048073e-02  2.162191e-03  0 
 -9.227700e-03  3.785833e-03  0 
 -1.162484e-02  2.069830e-03  0 
 -1.201054e-02  3.620159e-03  0 
 -1.187239e-02  2.640364e-03  0 
 -8.490311e-03  2.835883e-03  0 
 -1.247808e-02  2.755335e-03  0 
 -1.028509e-02  3.953787e-03  0 
 -1.258487e-02  3.766466e-03  0 
 -1.160978e-02  3.936297e-03  0 
 -9.868344e-03  3.363989e-03  0 
 -9.988136e-03  2.323409e-03  0 
 -1.029690e-02  2.760653e-03  0 
VECTORS displacement_ITER12 FLOAT
 -1.300000e-02  2.673248e-09  0 
 -1.300000e-02  6.500024e-04  0 
 -1.300000e-02  1.300002e-03  0 
 -1.300000e-02  1.950002e-03  0 
 -1.300000e-02  2.600002e-03  0 
 -1.300000e-02  3.250003e-03  0 
 -1.300000e-02  3.900002e-03  0 
 -1.300000e-02  4.550001e-03  0 
 -1.170000e-02  8.775863e-10  0 
 -1.235000e-02  1.983262e-09  0 
 -8.544538e-03  3.468575e-03  0 
 -9.174100e-03  3.148286e-03  0 
 -1.098827e-02  1.990578e-03  0 
 -1.245735e-02  1.206625e-03  0 
 -1.147172e-02  3.283070e-03  0 
 -1.130793e-02  6.201466e-04  0 
 -1.089700e-02  3.753971e-03  0 
 -1.106105e-02  2.610136e-03  0 
 -1.187775e-02  1.052025e-03  0 
 -1.259489e-02  1.736650e-03  0 
 -9.059106e-03  2.663957e-03  0 
 -1.216811e-02  3.114808e-03  0 
 -9.889202e-03  1.736084e-03  0 
 -9.675211e-03  2.744904e-03  0 
 -1.182970e-02  5.686161e-04  0 
 -1.058375e-02  1.600793e-03  0 
 -1.234991e-02  2.171471e-03  0 
 -1.079690e-02  1.020636e-03  0 
 -1.231640e-02  4.967536e-04  0 
 -1.069644e-02  3.308810e-03  0 
 -9.405511e-03  2.211463e-03  0 
 -1.233637e-02  4.166798e-03  0 
 -1.131095e-02  1.426875e-03  0 
 -1.201440e-02  1.577611e-03  0 
 -1.048073e-02  2.162186e-03  0 
 -9.227703e-03  3.785825e-03  0 
 -1.162484e-02  2.069826e-03  0 
 -1.201054e-02  3.620150e-03  0 
 -1.187239e-02  2.640358e-03  0 
 -8.490311e-03  2.835874e-03  0 
 -1.247808e-02  2.755328e-03  0 
 -1.028509e-02  3.953792e-03  0 
 -1.258487e-02  3.766463e-03  0 
 -1.160978e-02  3.936291e-03  0 
 -9.868343e-03  3.363990e-03  0 
 -9.988137e-03  2.323402e-03  0 
 -1.029690e-02  2.760648e-03  0 
CELL_DATA 68
TENSORS element_stresses FLOAT
 -9.999999e-01  -7.146480e-08  0 
 -7.146480e-08  9.999993e-01  0 
 0  0  0 

 -1.000000e+00  2.403708e-07  0 
 2.403708e-07  1.000000e+00  0 
 0  0  0 

 -9.999998e-01  4.929210e-07  0 
 4.929210e-07  1.000000e+00  0 
 0  0  0 

 -1.000000e+00  6.666720e-07  0 
 6.666720e-07  1.000001e+00  0 
 0  0  0 

 -9.999991e-01  -1.219828e-06  0 
 -1.219828e-06  1.000001e+00  0 
 0  0  0 

 -9.999992e-01  7.807673e-07  0 
 7.807673e-07  9.999998e-01  0 
 0  0  0 

 -9.999996e-01  -7.840336e-07  0 
 -7.840336e-07  9.999993e-01  0 
 0  0  0 

 -9.999994e-01  -2.653108e-07  0 
 -2.653108e-07  1.000000e+00  0 
 0  0  0 

 -1.000000e+00  1.595926e-08  0 
 1.595926e-08  1.000000e+00  0 
 0  0  0 

 -1.000000e+00  -4.033124e-07  0 
 -4.033124e-07  9.999998e-01  0 
 0  0  0 

 -9.999999e-01  1.398442e-07  0 
 1.398442e-07  9.999997e-01  0 
 0  0  0 

 -9.999999e-01  -2.549899e-07  0 
 -2.549899e-07  9.999994e-01  0 
 0  0  0 

 -1.000001e+00  1.925665e-07  0 
 1.925665e-07  1.000001e+00  0 
 0  0  0 

 -1.000000e+00  4.494659e-08  0 
 4.494659e-08  1.000000e+00  0 
 0  0  0 

 -1.000000e+00  1.747456e-07  0 
 1.747456e-07  1.000000e+00  0 
 0  0  0 

 -1.000000e+00  -1.253008e-06  0 
 -1.253008e-06  9.999983e-01  0 
 0  0  0 

 -9.999995e-01  3.542525e-07  0 
 3.542525e-07  9.999998e-01  0 
 0  0  0 

 -9.999998e-01  8.955651e-07  0 
 8.955651e-07  1.000001e+00  0 
 0  0  0 

 -9.999998e-01  1.781578e-07  0 
 1.781578e-07  9.999997e-01  0 
 0  0  0 

 -1.000000e+00  2.692091e-07  0 
 2.692091e-07  1.000000e+00  0 
 0  0  0 

 -1.000000e+00  -5.781926e-07  0 
 -5.781926e-07  9.999997e-01  0 
 0  0  0 

 -1.000000e+00  9.086005e-07  0 
 9.086005e-07  1.000002e+00  0 
 0  0  0 

 -1.000002e+00  4.999145e-07  0 
 4.999145e-07  1.000001e+00  0 
 0  0  0 

 -1.000000e+00  -9.147154e-07  0 
 -9.147154e-07  1.000000e+00  0 
 0  0  0 

 -9.999995e-01  -1.874171e-07  0 
 -1.874171e-07  9.999994e-01  0 
 0  0  0 

 -9.999998e-01  -6.343138e-07  0 
 -6.343138e-07  9.999993e-01  0 
 0  0  0 

 -9.999993e-01  -2.608923e-08  0 
 -2.608923e-08  9.999996e-01  0 
 0  0  0 

 -1.000001e+00  -6.120281e-07  0 
 -6.120281e-07  1.000001e+00  0 
 0  0  0 

 -9.999997e-01  -6.314269e-07  0 
 -6.314269e-07  9.999999e-01  0 
 0  0  0 

 -9.999993e-01  1.818408e-06  0 
 1.818408e-06  1.000001e+00  0 
 0  0  0 

 -1.000001e+00  -7.772407e-07  0 
 -7.772407e-07  9.999999e-01  0 
 0  0  0 

 -9.999998e-01  -4.292179e-07  0 
 -4.292179e-07  9.999998e-01  0 
 0  0  0 

 -9.999998e-01  8.703365e-07  0 
 8.703365e-07  9.999993e-01  0 
 0  0  0 

 -9.999996e-01  1.070418e-07  0 
 1.070418e-07  9.999985e-01  0 
 0  0  0 

 -9.999991e-01  1.707838e-06  0 
 1.707838e-06  1.000001e+00  0 
 0  0  0 

 -1.000000e+00  2.450563e-07  0 
 2.450563e-07  1.000001e+00  0 
 0  0  0 

 -1.000000e+00  1.617439e-07  0 
 1.617439e-07  9.999998e-01  0 
 0  0  0 

 -1.000000e+00  1.139986e-08  0 
 1.139986e-08  9.999999e-01  0 
 0  0  0 

 -9.999996e-01  -8.206702e-07  0 
 -8.206702e-07  1.000003e+00  0 
 0  0  0 

 -1.000000e+00  1.353835e-06  0 
 1.353835e-06  1.000005e+00  0 
 0  0  0 

 -1.000002e+00  -3.849317e-06  0 
 -3.849317e-06  9.999964e-01  0 
 0  0  0 

 -9.999991e-01  2.287816e-06  0 
 2.287816e-06  9.999955e-01  0 
 0  0  0 

 -9.999998e-01  -3.968714e-07  0 
 -3.968714e-07  1.000001e+00  0 
 0  0  0 

 -9.999998e-01  2.016394e-07  0 
 2.016394e-07  1.000001e+00  0 
 0  0  0 

 -9.999998e-01  3.743805e-07  0 
 3.743805e-07  1.000001e+00  0 
 0  0  0 

 -1.000000e+00  -2.397031e-07  0 
 -2.397031e-07  1.000001e+00  0 
 0  0  0 

 -1.000000e+00  3.894664e-08  0 
 3.894664e-08  1.000000e+00  0 
 0  0  0 

 -1.000000e+00  7.716488e-08  0 
 7.716488e-08  1.000000e+00  0 
 0  0  0 

 -1.000000e+00  -1.385619e-06  0 
 -1.385619e-06  9.999992e-01  0 
 0  0  0 

 -1.000001e+00  -1.428027e-06  0 
 -1.428027e-06  1.000001e+00  0 
 0  0  0 

 -9.999999e-01  3.069864e-07  0 
 3.069864e-07  1.000002e+00  0 
 0  0  0 

 -9.999999e-01  -4.773610e-07  0 
 -4.773610e-07  9.999993e-01  0 
 0  0  0 

 -9.999994e-01  -1.700672e-07  0 
 -1.700672e-07  9.999993e-01  0 
 0  0  0 

 -1.000000e+00  -3.477843e-07  0 
 -3.477843e-07  9.999993e-01  0 
 0  0  0 

 -9.999998e-01  -2.721137e-07  0 
 -2.721137e-07  1.000000e+00  0 
 0  0  0 

 -1.000000e+00  3.001007e-07  0 
 3.001007e-07  9.999979e-01  0 
 0  0  0 

 -1.000001e+00  1.639230e-06  0 
 1.639230e-06  1.000001e+00  0 
 0  0  0 

 -1.000000e+00  9.478782e-08  0 
 9.478782e-08  1.000001e+00  0 
 0  0  0 

 -1.000001e+00  9.811528e-07  0 
 9.811528e-07  1.000000e+00  0 
 0  0  0 

 -9.999998e-01  -1.082655e-07  0 
 -1.082655e-07  9.999998e-01  0 
 0  0  0 

 -9.999997e-01  -3.244478e-07  0 
 -3.244478e-07  1.000000e+00  0 
 0  0  0 

 -1.000001e+00  -8.817032e-08  0 
 -8.817032e-08  1.000001e+00  0 
 0  0  0 

 -9.999998e-01  1.427343e-07  0 
 1.427343e-07  1.000000e+00  0 
 0  0  0 

 -1.000000e+00  3.653298e-08  0 
 3.653298e-08  1.000002e+00  0 
 0  0  0 

 -1.000000e+00  -1.115712e-06  0 
 -1.115712e-06  1.000001e+00  0 
 0  0  0 

 -9.999967e-01  5.808875e-06  0 
 5.808875e-06  1.000001e+00  0 
 0  0  0 

 -1.000000e+00  -4.930934e-08  0 
 -4.930934e-08  1.000001e+00  0 
 0  0  0 

 -1.000001e+00  6.644615e-07  0 
 6.644615e-07  1.000002e+00  0 
 0  0  0 

TENSORS element_stresses FLOAT
 -9.999999e-01  -7.146480e-08  0 
 -7.146480e-08  9.999993e-01  0 
 0  0  0 

 -1.000000e+00  2.403708e-07  0 
 2.403708e-07  1.000000e+00  0 
 0  0  0 

 -9.999998e-01  4.929210e-07  0 
 4.929210e-07  1.000000e+00  0 
 0  0  0 

 -1.000000e+00  6.666720e-07  0 
 6.666720e-07  1.000001e+00  0 
 0  0  0 

 -9.999991e-01  -1.219828e-06  0 
 -1.219828e-06  1.000001e+00  0 
 0  0  0 

 -9.999992e-01  7.807673e-07  0 
 7.807673e-07  9.999998e-01  0 
 0  0  0 

 -9.999996e-01  -7.840336e-07  0 
 -7.840336e-07  9.999993e-01  0 
 0  0  0 

 -9.999994e-01  -2.653108e-07  0 
 -2.653108e-07  1.000000e+00  0 
 0  0  0 

 -1.000000e+00  1.595926e-08  0 
 1.595926e-08  1.000000e+00  0 
 0  0  0 

 -1.000000e+00  -4.033124e-07  0 
 -4.033124e-07  9.999998e-01  0 
 0  0  0 

 -9.999999e-01  1.398442e-07  0 
 1.398442e-07  9.999997e-01  0 
 0  0  0 

 -9.999999e-01  -2.549899e-07  0 
 -2.549899e-07  9.999994e-01  0 
 0  0  0 

 -1.000001e+00  1.925665e-07  0 
 1.925665e-07  1.000001e+00  0 
 0  0  0 

 -1.000000e+00  4.494659e-08  0 
 4.494659e-08  1.000000e+00  0 
 0  0  0 

 -1.000000e+00  1.747456e-07  0 
 1.747456e-07  1.000000e+00  0 
 0  0  0 

 -1.000000e+00  -1.253008e-06  0 
 -1.253008e-06  9.999983e-01  0 
 0  0  0 

 -9.999995e-01  3.542525e-07  0 
 3.542525e-07  9.999998e-01  0 
 0  0  0 

 -9.999998e-01  8.955651e-07  0 
 8.955651e-07  1.000001e+00  0 
 0  0  0 

 -9.999998e-01  1.781578e-07  0 
 1.781578e-07  9.999997e-01  0 
 0  0  0 

 -1.000000e+00  2.692091e-07  0 
 2.692091e-07  1.000000e+00  0 
 0  0  0 

 -1.000000e+00  -5.781926e-07  0 
 -5.781926e-07  9.999997e-01  0 
 0  0  0 

 -1.000000e+00  9.086005e-07  0 
 9.086005e-07  1.000002e+00  0 
 0  0  0 

 -1.000002e+00  4.999145e-07  0 
 4.999145e-07  1.000001e+00  0 
 0  0  0 

 -1.000000e+00  -9.147154e-07  0 
 -9.147154e-07  1.000000e+00  0 
 0  0  0 

 -9.999995e-01  -1.874171e-07  0 
 -1.874171e-07  9.999994e-01  0 
 0  0  0 

 -9.999998e-01  -6.343138e-07  0 
 -6.343138e-07  9.999993e-01  0 
 0  0  0 

 -9.999993e-01  -2.608923e-08  0 
 -2.608923e-08  9.999996e-01  0 
 0  0  0 

 -1.000001e+00  -6.120281e-07  0 
 -6.120281e-07  1.000001e+00  0 
 0  0  0 

 -9.999997e-01  -6.314269e-07  0 
 -6.314269e-07  9.999999e-01  0 
 0  0  0 

 -9.999993e-01  1.818408e-06  0 
 1.818408e-06  1.000001e+00  0 
 0  0  0 

 -1.000001e+00  -7.772407e-07  0 
 -7.772407e-07  9.999999e-01  0 
 0  0  0 

 -9.999998e-01  -4.292179e-07  0 
 -4.292179e-07  9.999998e-01  0 
 0  0  0 

 -9.999998e-01  8.703365e-07  0 
 8.703365e-07  9.999993e-01  0 
 0  0  0 

 -9.999996e-01  1.070418e-07  0 
 1.070418e-07  9.999985e-01  0 
 0  0  0 

 -9.999991e-01  1.707838e-06  0 
 1.707838e-06  1.000001e+00  0 
 0  0  0 

 -1.000000e+00  2.450563e-07  0 
 2.450563e-07  1.000001e+00  0 
 0  0  0 

 -1.000000e+00  1.617439e-07  0 
 1.617439e-07  9.999998e-01  0 
 0  0  0 

 -1.000000e+00  1.139986e-08  0 
 1.139986e-08  9.999999e-01  0 
 0  0  0 

 -9.999996e-01  -8.206702e-07  0 
 -8.206702e-07  1.000003e+00  0 
 0  0  0 

 -1.000000e+00  1.353835e-06  0 
 1.353835e-06  1.000005e+00  0 
 0  0  0 

 -1.000002e+00  -3.849317e-06  0 
 -3.849317e-06  9.999964e-01  0 
 0  0  0 

 -9.999991e-01  2.287816e-06  0 
 2.287816e-06  9.999955e-01  0 
 0  0  0 

 -9.999998e-01  -3.968714e-07  0 
 -3.968714e-07  1.000001e+00  0 
 0  0  0 

 -9.999998e-01  2.016394e-07  0 