# vtk DataFile Version 3.1
this is an vtk file created by FEMAC
ASCII
DATASET UNSTRUCTURED_GRID
POINTS 46 FLOAT
0.000000 0.000000 0.000000
0.000000 0.100000 0.000000
0.000000 0.200000 0.000000
0.000000 0.300000 0.000000
0.000000 0.400000 0.000000
0.100000 0.000000 0.000000
0.200000 0.000000 0.000000
0.300000 0.000000 0.000000
0.400000 0.000000 0.000000
0.500000 0.000000 0.000000
0.262551 0.186228 0.000000
0.150805 0.078689 0.000000
0.418378 0.275086 0.000000
0.166555 0.505516 0.000000
0.354893 0.110295 0.000000
0.264465 0.350987 0.000000
0.131326 0.312579 0.000000
0.240465 0.092912 0.000000
0.093107 0.157838 0.000000
0.460382 0.177748 0.000000
0.547654 0.090918 0.000000
0.419311 0.382189 0.000000
0.143927 0.398827 0.000000
0.313088 0.408029 0.000000
0.264844 0.493670 0.000000
0.171576 0.239901 0.000000
0.075988 0.455083 0.000000
0.500050 0.292927 0.000000
0.225486 0.411224 0.000000
0.338140 0.320457 0.000000
0.345707 0.224542 0.000000
0.068660 0.359390 0.000000
0.077445 0.261618 0.000000
0.200208 0.331085 0.000000
0.263774 0.275533 0.000000
0.183701 0.151114 0.000000
0.068782 0.067305 0.000000
0.452586 0.075792 0.000000
0.572423 0.197502 0.000000
0.567465 0.492317 0.000000
0.547256 0.394638 0.000000
0.651276 0.382861 0.000000
0.605293 0.298303 0.000000
0.667342 0.485567 0.000000
0.470483 0.484496 0.000000
0.608335 0.438846 0.000000
CELLS 68 272 
3 11  6  5
3 17  6 11
3 7 14  8
3 17  7  6
3 7 17 14
3 17 10 14
3 18  1  2
3 12 27 19
3 13 28 22
3 15 28 23
3 12 30 29
3 4 31  3
3 16 31 22
3 32  2  3
3 2 32 18
3 16 33 25
3 33 16 22
3 34 10 25
3 34 15 29
3 35 10 17
3 35 18 25
3 10 35 25
3 1 36  0
3 5 36 11
3 36  5  0
3 11 35 17
3 11 18 35
3 25 32 16
3 25 18 32
3 18 36  1
3 18 11 36
3 31 32  3
3 31 16 32
3 21 27 12
3 23 29 15
3 33 28 15
3 22 28 33
3 24 28 13
3 24 23 28
3 34 33 15
3 25 33 34
3 34 30 10
3 29 30 34
3 26 31  4
3 26 13 22
3 26 22 31
3 12 29 21
3 23 21 29
3 30 12 19
3 14 30 19
3 30 14 10
3 9 37 20
3 37 19 20
3 21 44 40
3 40 39 45
3 43 41 45
3 37  8 14
3 8 37  9
3 19 37 14
3 19 38 20
3 38 19 27
3 38 27 42
3 40 44 39
3 43 45 39
3 21 40 27
3 40 42 27
3 40 45 41
3 41 42 40
CELL_TYPES 68
5 5 5 5 5 5 5 5 5 5 5 5 5 5 5 5 5 5 5 5 5 5 5 5 5 5 5 5 5 5 5 5 5 5 5 5 5 5 5 5 5 5 5 5 5 5 5 5 5 5 5 5 5 5 5 5 5 5 5 5 5 5 5 5 5 5 5 5 
POINT_DATA 46
VECTORS displacement_ITER1 FLOAT
 0  0  0 
 0  8.201694e-04  0 
 0  1.619152e-03  0 
 0  2.317539e-03  0 
 1.160888e-17  2.848199e-03  0 
 -8.417240e-04  -5.040121e-05  0 
 -1.644050e-03  -1.513946e-04  0 
 -2.385856e-03  -2.802521e-04  0 
 -3.066921e-03  -3.676745e-04  0 
 -3.707277e-03  -2.606780e-04  0 
 -1.905792e-03  1.107610e-03  0 
 -1.192355e-03  5.296735e-04  0 
 -2.589050e-03  9.902622e-04  0 
 -4.267292e-04  3.050418e-03  0 
 -2.669423e-03  4.031069e-04  0 
 -1.350882e-03  2.190429e-03  0 
 -7.412242e-04  2.311309e-03  0 
 -1.857832e-03  4.850940e-04  0 
 -6.957563e-04  1.235931e-03  0 
 -3.187559e-03  5.077320e-04  0 
 -3.880525e-03  7.268393e-05  0 
 -2.138440e-03  1.335073e-03  0 
 -6.748036e-04  2.816380e-03  0 
 -1.190873e-03  2.208701e-03  0 
 -5.823443e-04  2.644075e-03  0 
 -1.162909e-03  1.733666e-03  0 
 -4.015601e-04  3.121687e-03  0 
 -2.915529e-03  6.318995e-04  0 
 -9.035217e-04  2.622904e-03  0 
 -1.979929e-03  1.545999e-03  0 
 -2.369494e-03  1.074357e-03  0 
 -3.374184e-04  2.642134e-03  0 
 -4.902377e-04  2.030684e-03  0 
 -1.102392e-03  2.325446e-03  0 
 -1.707648e-03  1.699222e-03  0 
 -1.374880e-03  1.026406e-03  0 
 -5.504297e-04  5.270978e-04  0 
 -3.353393e-03  7.289184e-05  0 
 -3.624819e-03  1.680682e-04  0 
 -1.990594e-03  3.018377e-04  0 
 -2.599006e-03  4.142126e-04  0 
 -2.815986e-03  -3.221882e-04  0 
 -3.247157e-03  1.158485e-04  0 
 -2.636471e-03  -6.321836e-04  0 
 -1.779594e-03  1.181478e-03  0 
 -2.553720e-03  -1.671466e-04  0 
VECTORS displacement_ITER2 FLOAT
 0  0  0 
 0  6.247628e-04  0 
 0  1.353394e-03  0 
 0  2.085059e-03  0 
 1.947618e-17  2.704940e-03  0 
 -5.716293e-04  3.767066e-05  0 
 -1.124680e-03  1.493385e-04  0 
 -1.665309e-03  3.325138e-04  0 
 -2.200823e-03  6.100511e-04  0 
 -2.747145e-03  1.043169e-03  0 
 -1.834045e-03  1.314314e-03  0 
 -9.550680e-04  5.404798e-04  0 
 -2.948737e-03  1.988113e-03  0 
 -1.240724e-03  3.517431e-03  0 
 -2.233567e-03  1.068779e-03  0 
 -1.894325e-03  2.572796e-03  0 
 -9.136765e-04  2.229518e-03  0 
 -1.518820e-03  7.368454e-04  0 
 -6.512249e-04  1.033260e-03  0 
 -2.962589e-03  1.667485e-03  0 
 -3.226073e-03  1.547211e-03  0 
 -3.355800e-03  2.417038e-03  0 
 -1.099974e-03  2.984048e-03  0 
 -2.034847e-03  2.892344e-03  0 
 -1.532401e-03  3.365401e-03  0 
 -1.249205e-03  1.646428e-03  0 
 -8.588281e-04  3.255671e-03  0 
 -3.463487e-03  2.305552e-03  0 
 -1.549014e-03  3.051641e-03  0 
 -2.580311e-03  2.057240e-03  0 
 -2.428128e-03  1.630016e-03  0 
 -4.605367e-04  2.510753e-03  0 
 -5.459503e-04  1.821525e-03  0 
 -1.450219e-03  2.467041e-03  0 
 -1.997940e-03  1.906514e-03  0 
 -1.257577e-03  1.033306e-03  0 
 -4.302088e-04  4.252337e-04  0 
 -2.699925e-03  1.188156e-03  0 
 -3.609942e-03  2.110416e-03  0 
 -5.080692e-03  3.417718e-03  0 
 -4.306252e-03  3.004748e-03  0 
 -4.699153e-03  3.488493e-03  0 
 -4.085952e-03  2.900093e-03  0 
 -5.744587e-03  3.808433e-03  0 
 -4.595559e-03  3.065040e-03  0 
 -4.976343e-03  3.370306e-03  0 
VECTORS displacement_ITER3 FLOAT
 0  0  0 
 0  6.936575e-04  0 
 0  1.370044e-03  0 
 0  2.004404e-03  0 
 6.535684e-17  2.590583e-03  0 
 -7.023917e-04  -1.209928e-05  0 
 -1.399981e-03  -4.082330e-05  0 
 -2.090446e-03  -8.361604e-05  0 
 -2.768717e-03  -1.326924e-04  0 
 -3.409594e-03  -1.923540e-04  0 
 -1.778526e-03  1.232335e-03  0 
 -1.037753e-03  5.220161e-04  0 
 -2.839452e-03  1.810898e-03  0 
 -1.231479e-03  3.364168e-03  0 
 -2.435553e-03  6.500337e-04  0 
 -1.756332e-03  2.444973e-03  0 
 -8.492475e-04  2.128089e-03  0 
 -1.651753e-03  5.874832e-04  0 
 -6.262006e-04  1.080670e-03  0 
 -3.181048e-03  1.100731e-03  0 
 -3.791602e-03  4.544313e-04  0 
 -2.829316e-03  2.542035e-03  0 
 -1.020344e-03  2.772066e-03  0 
 -1.989915e-03  2.773074e-03  0 
 -1.638388e-03  3.240433e-03  0 
 -1.136074e-03  1.629830e-03  0 
 -7.414501e-04  3.041643e-03  0 
 -3.392157e-03  1.920585e-03  0 
 -1.497754e-03  2.857819e-03  0 
 -2.286117e-03  2.140179e-03  0 
 -2.361676e-03  1.486909e-03  0 
 -4.400500e-04  2.383892e-03  0 
 -5.001825e-04  1.774760e-03  0 
 -1.335938e-03  2.320852e-03  0 
 -1.792204e-03  1.887032e-03  0 
 -1.245984e-03  1.011319e-03  0 
 -4.748535e-04  4.624158e-04  0 
 -3.114546e-03  3.568364e-04  0 
 -3.984127e-03  1.209777e-03  0 
 -3.518802e-03  2.806482e-03  0 
 -3.578748e-03  2.478349e-03  0 
 -4.110617e-03  2.196272e-03  0 
 -4.058375e-03  1.873839e-03  0 
 -3.939046e-03  2.464178e-03  0 
 -3.144033e-03  3.051319e-03  0 
 -3.796614e-03  2.508555e-03  0 
VECTORS displacement_ITER4 FLOAT
 0  0  0 
 0  6.375802e-04  0 
 0  1.254825e-03  0 
 0  1.837674e-03  0 
 1.003904e-16  2.395354e-03  0 
 -6.425009e-04  -1.857246e-06  0 
 -1.288685e-03  -9.678024e-06  0 
 -1.942701e-03  -1.857220e-05  0 
 -2.604664e-03  -2.759540e-05  0 
 -3.265605e-03  -2.518739e-05  0 
 -1.668237e-03  1.209920e-03  0 
 -9.619718e-04  5.013608e-04  0 
 -2.709767e-03  1.860348e-03  0 
 -1.259398e-03  3.171267e-03  0 
 -2.292432e-03  7.075594e-04  0 
 -1.695574e-03  2.322820e-03  0 
 -8.147802e-04  1.964336e-03  0 
 -1.541412e-03  5.938580e-04  0 
 -5.835229e-04  1.001555e-03  0 
 -2.993430e-03  1.159479e-03  0 
 -3.560682e-03  5.099831e-04  0 
 -2.759760e-03  2.647188e-03  0 
 -9.723028e-04  2.538666e-03  0 
 -1.999566e-03  2.707263e-03  0 
 -1.802920e-03  3.217317e-03  0 
 -1.070094e-03  1.529214e-03  0 
 -6.663876e-04  2.777671e-03  0 
 -3.279190e-03  2.034460e-03  0 
 -1.477290e-03  2.683918e-03  0 
 -2.177295e-03  2.130456e-03  0 
 -2.218079e-03  1.486410e-03  0 
 -4.285708e-04  2.190900e-03  0 
 -4.757224e-04  1.631651e-03  0 
 -1.274316e-03  2.153424e-03  0 
 -1.682799e-03  1.809409e-03  0 
 -1.163333e-03  9.673083e-04  0 
 -4.391254e-04  4.297561e-04  0 
 -2.945174e-03  4.697333e-04  0 
 -3.809076e-03  1.333571e-03  0 
 -3.663511e-03  3.311153e-03  0 
 -3.605747e-03  2.724850e-03  0 
 -4.176169e-03  2.628130e-03  0 
 -3.978652e-03  2.122545e-03  0 
 -4.323356e-03  3.161462e-03  0 
 -3.057168e-03  3.449800e-03  0 
 -3.956627e-03  2.930709e-03  0 
VECTORS displacement_ITER5 FLOAT
 0  0  0 
 0  6.468581e-04  0 
 0  1.287958e-03  0 
 0  1.924938e-03  0 
 1.407965e-16  2.563107e-03  0 
 -6.486241e-04  1.591785e-06  0 
 -1.301784e-03  2.631144e-06  0 
 -1.961547e-03  2.584271e-06  0 
 -2.630535e-03  -7.775173e-06  0 
 -3.305355e-03  -2.266227e-05  0 
 -1.700728e-03  1.224979e-03  0 
 -9.777784e-04  5.148783e-04  0 
 -2.704975e-03  1.819207e-03  0 
 -1.134762e-03  3.284775e-03  0 
 -2.312930e-03  7.338907e-04  0 
 -1.734161e-03  2.281391e-03  0 
 -8.553397e-04  2.018050e-03  0 
 -1.562667e-03  6.131834e-04  0 
 -6.022601e-04  1.021336e-03  0 
 -2.993185e-03  1.174805e-03  0 
 -3.599128e-03  5.652732e-04  0 
 -2.731567e-03  2.524871e-03  0 
 -9.623888e-04  2.594696e-03  0 
 -2.053483e-03  2.632200e-03  0 
 -1.748473e-03  3.200156e-03  0 
 -1.111746e-03  1.555399e-03  0 
 -5.637412e-04  2.921947e-03  0 
 -3.231829e-03  1.945092e-03  0 
 -1.490755e-03  2.675989e-03  0 
 -2.194165e-03  2.095561e-03  0 
 -2.239306e-03  1.483580e-03  0 
 -4.484303e-04  2.305835e-03  0 
 -5.017120e-04  1.684149e-03  0 
 -1.313522e-03  2.152863e-03  0 
 -1.715242e-03  1.802093e-03  0 
 -1.189520e-03  9.868644e-04  0 
 -4.459153e-04  4.368910e-04  0 
 -2.969900e-03  4.932887e-04  0 
 -3.728842e-03  1.278669e-03  0 
 -3.705978e-03  3.285399e-03  0 
 -3.561675e-03  2.629883e-03  0 
 -4.216648e-03  2.611119e-03  0 
 -3.916245e-03  1.997059e-03  0 
 -4.343136e-03  3.225866e-03  0 
 -3.057677e-03  3.250059e-03  0 
 -3.966722e-03  2.937981e-03  0 
VECTORS displacement_ITER6 FLOAT
 0  0  0 
 0  6.510794e-04  0 
 0  1.303658e-03  0 
 0  1.960018e-03  0 
 1.763360e-16  2.625848e-03  0 
 -6.507804e-04  -1.709380e-07  0 
 -1.301055e-03  -4.685482e-07  0 
 -1.950011e-03  -1.000249e-06  0 
 -2.597084e-03  3.131272e-07  0 
 -3.240239e-03  8.186485e-06  0 
 -1.708310e-03  1.209385e-03  0 
 -9.815543e-04  5.116780e-04  0 
 -2.716770e-03  1.783029e-03  0 
 -1.052241e-03  3.292690e-03  0 
 -2.308436e-03  7.141703e-04  0 
 -1.718673e-03  2.270586e-03  0 
 -8.561424e-04  2.036374e-03  0 
 -1.564649e-03  6.029244e-04  0 
 -6.065896e-04  1.027700e-03  0 
 -2.994655e-03  1.151497e-03  0 
 -3.558454e-03  5.952482e-04  0 
 -2.717790e-03  2.479869e-03  0 
 -9.276143e-04  2.595396e-03  0 
 -2.031903e-03  2.630472e-03  0 
 -1.691185e-03  3.197601e-03  0 
 -1.118102e-03  1.560835e-03  0 
 -4.846093e-04  2.951114e-03  0 
 -3.247412e-03  1.898155e-03  0 
 -1.457600e-03  2.668207e-03  0 
 -2.193317e-03  2.075312e-03  0 
 -2.247421e-03  1.456314e-03  0 
 -4.475297e-04  2.346355e-03  0 
 -5.053967e-04  1.705729e-03  0 
 -1.302175e-03  2.148778e-03  0 
 -1.714703e-03  1.787274e-03  0 
 -1.195752e-03  9.826992e-04  0 
 -4.476913e-04  4.380052e-04  0 
 -2.941211e-03  4.920850e-04  0 
 -3.722037e-03  1.275912e-03  0 
 -3.696127e-03  3.204440e-03  0 
 -3.551440e-03  2.562999e-03  0 
 -4.230707e-03  2.496366e-03  0 
 -3.934110e-03  1.929987e-03  0 
 -4.323566e-03  3.150063e-03  0 
 -3.051895e-03  3.152361e-03  0 
 -3.952521e-03  2.860092e-03  0 
VECTORS displacement_ITER7 FLOAT
 0  0  0 
 0  6.495791e-04  0 
 0  1.299238e-03  0 
 0  1.948029e-03  0 
 1.969720e-16  2.595531e-03  0 
 -6.493663e-04  4.203193e-08  0 
 -1.298507e-03  2.681195e-07  0 
 -1.947479e-03  9.267752e-07  0 
 -2.596133e-03  3.015679e-06  0 
 -3.244380e-03  6.824203e-06  0 
 -1.706148e-03  1.210449e-03  0 
 -9.795470e-04  5.110585e-04  0 
 -2.721873e-03  1.790973e-03  0 
 -1.086869e-03  3.293292e-03  0 
 -2.305818e-03  7.176043e-04  0 
 -1.719887e-03  2.284961e-03  0 
 -8.522543e-04  2.030868e-03  0 
 -1.562048e-03  6.037472e-04  0 
 -6.047671e-04  1.025323e-03  0 
 -2.993207e-03  1.157586e-03  0 
 -3.556169e-03  5.962327e-04  0 
 -2.728409e-03  2.488305e-03  0 
 -9.341079e-04  2.592413e-03  0 
 -2.037883e-03  2.658904e-03  0 
 -1.728799e-03  3.222460e-03  0 
 -1.114375e-03  1.558860e-03  0 
 -4.967473e-04  2.947776e-03  0 
 -3.253770e-03  1.907599e-03  0 
 -1.466568e-03  2.678105e-03  0 
 -2.199862e-03  2.086738e-03  0 
 -2.247701e-03  1.460876e-03  0 
 -4.451382e-04  2.332542e-03  0 
 -5.026747e-04  1.699369e-03  0 
 -1.300427e-03  2.152971e-03  0 
 -1.714471e-03  1.792045e-03  0 
 -1.193457e-03  9.817214e-04  0 
 -4.467612e-04  4.371613e-04  0 
 -2.939219e-03  4.960243e-04  0 
 -3.722744e-03  1.288592e-03  0 
 -3.688733e-03  3.199439e-03  0 
 -3.557266e-03  2.565608e-03  0 
 -4.232479e-03  2.490302e-03  0 
 -3.937469e-03  1.940721e-03  0 
 -4.333884e-03  3.151880e-03  0 
 -3.056709e-03  3.147643e-03  0 
 -3.953656e-03  2.852694e-03  0 
VECTORS displacement_ITER8 FLOAT
 0  0  0 
 0  6.500381e-04  0 
 0  1.299999e-03  0 
 0  1.949724e-03  0 
 2.068153e-16  2.599222e-03  0 
 -6.500528e-04  -1.080457e-08  0 
 -1.300106e-03  -3.491698e-08  0 
 -1.950189e-03  -5.339168e-08  0 
 -2.600309e-03  -9.133128e-08  0 
 -3.250341e-03  9.921745e-08  0 
 -1.706684e-03  1.210609e-03  0 
 -9.802834e-04  5.114912e-04  0 
 -2.719690e-03  1.787933e-03  0 
 -1.082601e-03  3.287084e-03  0 
 -2.307006e-03  7.169770e-04  0 
 -1.719145e-03  2.282166e-03  0 
 -8.535532e-04  2.031853e-03  0 
 -1.563126e-03  6.039562e-04  0 
 -6.051850e-04  1.025986e-03  0 
 -2.992552e-03  1.155202e-03  0 
 -3.559942e-03  5.903917e-04  0 
 -2.725426e-03  2.483689e-03  0 
 -9.362673e-04  2.593221e-03  0 
 -2.035120e-03  2.653282e-03  0 
 -1.722027e-03  3.207963e-03  0 
 -1.115186e-03  1.559462e-03  0 
 -4.957621e-04  2.957776e-03  0 
 -3.250412e-03  1.903547e-03  0 
 -1.466390e-03  2.673153e-03  0 
 -2.198199e-03  2.083366e-03  0 
 -2.247295e-03  1.459631e-03  0 
 -4.462552e-04  2.335668e-03  0 
 -5.033054e-04  1.700465e-03  0 
 -1.301584e-03  2.152583e-03  0 
 -1.714704e-03  1.791388e-03  0 
 -1.194100e-03  9.822879e-04  0 
 -4.471113e-04  4.375096e-04  0 
 -2.942118e-03  4.925562e-04  0 
 -3.720581e-03  1.283180e-03  0 
 -3.689327e-03  3.200279e-03  0 
 -3.557011e-03  2.564731e-03  0 
 -4.233497e-03  2.488342e-03  0 
 -3.934714e-03  1.938393e-03  0 
 -4.338139e-03  3.156235e-03  0 
 -3.058549e-03  3.147821e-03  0 
 -3.954521e-03  2.852592e-03  0 
VECTORS displacement_ITER9 FLOAT
 0  0  0 
 0  6.499863e-04  0 
 0  1.299965e-03  0 
 0  1.949960e-03  0 
 2.098702e-16  2.600146e-03  0 
 -6.499947e-04  4.612019e-09  0 
 -1.300006e-03  1.153056e-08  0 
 -1.950043e-03  5.920614e-09  0 
 -2.600130e-03  -1.036346e-07  0 
 -3.250294e-03  -3.765148e-07  0 
 -1.706542e-03  1.210468e-03  0 
 -9.802165e-04  5.114865e-04  0 
 -2.719417e-03  1.788038e-03  0 
 -1.082487e-03  3.285783e-03  0 
 -2.306750e-03  7.169404e-04  0 
 -1.718989e-03  2.281313e-03  0 
 -8.536386e-04  2.031702e-03  0 
 -1.562998e-03  6.039481e-04  0 
 -6.051891e-04  1.025927e-03  0 
 -2.992308e-03  1.155349e-03  0 
 -3.559827e-03  5.906677e-04  0 
 -2.725520e-03  2.484299e-03  0 
 -9.355340e-04  2.592267e-03  0 
 -2.035064e-03  2.652120e-03  0 
 -1.721591e-03  3.208607e-03  0 
 -1.115234e-03  1.559320e-03  0 
 -4.939709e-04  2.957814e-03  0 
 -3.250353e-03  1.904087e-03  0 
 -1.465686e-03  2.672747e-03  0 
 -2.197858e-03  2.082928e-03  0 
 -2.247012e-03  1.459468e-03  0 
 -4.463300e-04  2.335980e-03  0 
 -5.033944e-04  1.700469e-03  0 
 -1.301348e-03  2.151941e-03  0 
 -1.714480e-03  1.790904e-03  0 
 -1.194036e-03  9.822326e-04  0 
 -4.470793e-04  4.374811e-04  0 
 -2.941843e-03  4.925366e-04  0 
 -3.720565e-03  1.283880e-03  0 
 -3.688218e-03  3.200011e-03  0 
 -3.557204e-03  2.565307e-03  0 
 -4.233199e-03  2.488404e-03  0 
 -3.934566e-03  1.939258e-03  0 
 -4.337642e-03  3.156158e-03  0 
 -3.058102e-03  3.149384e-03  0 
 -3.954025e-03  2.852372e-03  0 
VECTORS displacement_ITER10 FLOAT
 0  0  0 
 0  6.500068e-04  0 
 0  1.300016e-03  0 
 0  1.950024e-03  0 
 2.107233e-16  2.600043e-03  0 
 -6.500059e-04  -1.509877e-09  0 
 -1.300009e-03  -3.647096e-09  0 
 -1.950007e-03  -5.428855e-09  0 
 -2.600000e-03  -3.657251e-10  0 
 -3.249981e-03  2.509707e-08  0 
 -1.706592e-03  1.210482e-03  0 
 -9.802385e-04  5.114795e-04  0 
 -2.719466e-03  1.788043e-03  0 
 -1.082595e-03  3.285863e-03  0 
 -2.306822e-03  7.169077e-04  0 
 -1.719013e-03  2.281426e-03  0 
 -8.536203e-04  2.031785e-03  0 
 -1.563034e-03  6.039235e-04  0 
 -6.052013e-04  1.025957e-03  0 
 -2.992500e-03  1.155355e-03  0 
 -3.559767e-03  5.909955e-04  0 
 -2.725523e-03  2.484189e-03  0 
 -9.355096e-04  2.592391e-03  0 
 -2.035052e-03  2.652200e-03  0 
 -1.721453e-03  3.208875e-03  0 
 -1.115253e-03  1.559370e-03  0 
 -4.939286e-04  2.958019e-03  0 
 -3.250329e-03  1.903998e-03  0 
 -1.465636e-03  2.672975e-03  0 
 -2.197919e-03  2.082961e-03  0 
 -2.247109e-03  1.459518e-03  0 
 -4.462889e-04  2.336053e-03  0 
 -5.033936e-04  1.700537e-03  0 
 -1.301348e-03  2.152070e-03  0 
 -1.714543e-03  1.790970e-03  0 
 -1.194065e-03  9.822421e-04  0 
 -4.470892e-04  4.374887e-04  0 
 -2.941819e-03  4.926496e-04  0 
 -3.720752e-03  1.283729e-03  0 
 -3.688516e-03  3.200073e-03  0 
 -3.557181e-03  2.565144e-03  0 
 -4.233309e-03  2.488537e-03  0 
 -3.934428e-03  1.938948e-03  0 
 -4.337816e-03  3.156246e-03  0 
 -3.058169e-03  3.149222e-03  0 
 -3.954194e-03  2.852473e-03  0 
VECTORS displacement_ITER11 FLOAT
 0  0  0 
 0  6.499981e-04  0 
 0  1.299995e-03  0 
 0  1.949993e-03  0 
 2.110050e-16  2.599995e-03  0 
 -6.499980e-04  4.371173e-10  0 
 -1.299997e-03  1.141241e-09  0 
 -1.949996e-03  2.184269e-09  0 
 -2.599997e-03  3.202389e-09  0 
 -3.249998e-03  1.528016e-09  0 
 -1.706576e-03  1.210485e-03  0 
 -9.802278e-04  5.114786e-04  0 
 -2.719453e-03  1.788066e-03  0 
 -1.082626e-03  3.285849e-03  0 
 -2.306803e-03  7.169180e-04  0 
 -1.719024e-03  2.281414e-03  0 
 -8.536225e-04  2.031760e-03  0 
 -1.563020e-03  6.039283e-04  0 
 -6.051946e-04  1.025945e-03  0 
 -2.992478e-03  1.155367e-03  0 
 -3.559749e-03  5.909733e-04  0 
 -2.725519e-03  2.484233e-03  0 
 -9.355288e-04  2.592373e-03  0 
 -2.035083e-03  2.652189e-03  0 
 -1.721487e-03  3.208853e-03  0 
 -1.115244e-03  1.559356e-03  0 
 -4.939391e-04  2.958027e-03  0 
 -3.250323e-03  1.904035e-03  0 
 -1.465662e-03  2.672957e-03  0 
 -2.197910e-03  2.082977e-03  0 
 -2.247091e-03  1.459529e-03  0 
 -4.462911e-04  2.336025e-03  0 
 -5.033917e-04  1.700512e-03  0 
 -1.301355e-03  2.152052e-03  0 
 -1.714533e-03  1.790969e-03  0 
 -1.194052e-03  9.822386e-04  0 
 -4.470841e-04  4.374844e-04  0 
 -2.941804e-03  4.926531e-04  0 
 -3.720749e-03  1.283774e-03  0 
 -3.688515e-03  3.200073e-03  0 
 -3.557162e-03  2.565155e-03  0 
 -4.233295e-03  2.488598e-03  0 
 -3.934402e-03  1.938977e-03  0 
 -4.337731e-03  3.156198e-03  0 
 -3.058133e-03  3.149229e-03  0 
 -3.954175e-03  2.852503e-03  0 
VECTORS displacement_ITER12 FLOAT
 0  0  0 
 0  6.500000e-04  0 
 0  1.300000e-03  0 
 0  1.950000e-03  0 
 2.111104e-16  2.600000e-03  0 
 -6.500000e-04  5.323552e-12  0 
 -1.300000e-03  1.041187e-11  0 
 -1.950000e-03  2.707371e-11  0 
 -2.600000e-03  1.357007e-10  0 
 -3.249999e-03  1.189491e-09  0 
 -1.706579e-03  1.210484e-03  0 
 -9.802302e-04  5.114790e-04  0 
 -2.719455e-03  1.788060e-03  0 
 -1.082608e-03  3.285854e-03  0 
 -2.306807e-03  7.169151e-04  0 
 -1.719020e-03  2.281413e-03  0 
 -8.536219e-04  2.031765e-03  0 
 -1.563023e-03  6.039272e-04  0 
 -6.051962e-04  1.025948e-03  0 
 -2.992480e-03  1.155362e-03  0 
 -3.559752e-03  5.909698e-04  0 
 -2.725522e-03  2.484226e-03  0 
 -9.355229e-04  2.592376e-03  0 
 -2.035075e-03  2.652191e-03  0 
 -1.721486e-03  3.208854e-03  0 
 -1.115246e-03  1.559358e-03  0 
 -4.939244e-04  2.958038e-03  0 
 -3.250325e-03  1.904027e-03  0 
 -1.465656e-03  2.672954e-03  0 
 -2.197910e-03  2.082971e-03  0 
 -2.247093e-03  1.459525e-03  0 
 -4.462896e-04  2.336033e-03  0 
 -5.033923e-04  1.700517e-03  0 
 -1.301353e-03  2.152053e-03  0 
 -1.714533e-03  1.790967e-03  0 
 -1.194055e-03  9.822392e-04  0 
 -4.470853e-04  4.374854e-04  0 
 -2.941808e-03  4.926494e-04  0 
 -3.720748e-03  1.283765e-03  0 
 -3.688522e-03  3.200063e-03  0 
 -3.557165e-03  2.565149e-03  0 
 -4.233297e-03  2.488596e-03  0 
 -3.934407e-03  1.938969e-03  0 
 -4.337725e-03  3.156184e-03  0 
 -3.058142e-03  3.149221e-03  0 
 -3.954177e-03  2.852498e-03  0 
CELL_DATA 68
TENSORS element_stresses FLOAT
 -9.999999e-01  -5.592771e-08  0 
 -5.592771e-08  1.000000e+00  0 
 0  0  0 

 -1.000000e+00  -8.890409e-08  0 
 -8.890409e-08  1.000000e+00  0 
 0  0  0 

 -9.999998e-01  -2.217271e-07  0 
 -2.217271e-07  1.000000e+00  0 
 0  0  0 

 -9.999999e-01  -1.308135e-07  0 
 -1.308135e-07  1.000000e+00  0 
 0  0  0 

 -1.000000e+00  -1.516067e-07  0 
 -1.516067e-07  1.000000e+00  0 
 0  0  0 

 -1.000000e+00  1.219537e-07  0 
 1.219537e-07  1.000000e+00  0 
 0  0  0 

 -1.000000e+00  3.842934e-09  0 
 3.842934e-09  1.000000e+00  0 
 0  0  0 

 -1.000000e+00  1.067654e-07  0 
 1.067654e-07  1.000000e+00  0 
 0  0  0 

 -1.000000e+00  1.742386e-07  0 
 1.742386e-07  1.000000e+00  0 
 0  0  0 

 -1.000000e+00  -3.174193e-07  0 
 -3.174193e-07  9.999998e-01  0 
 0  0  0 

 -1.000000e+00  4.829520e-07  0 
 4.829520e-07  9.999997e-01  0 
 0  0  0 

 -9.999999e-01  1.568410e-08  0 
 1.568410e-08  1.000000e+00  0 
 0  0  0 

 -9.999998e-01  8.375134e-08  0 
 8.375134e-08  9.999999e-01  0 
 0  0  0 

 -1.000000e+00  -3.270596e-08  0 
 -3.270596e-08  1.000000e+00  0 
 0  0  0 

 -1.000000e+00  -2.751826e-08  0 
 -2.751826e-08  1.000000e+00  0 
 0  0  0 

 -1.000000e+00  -1.146126e-07  0 
 -1.146126e-07  9.999999e-01  0 
 0  0  0 

 -1.000000e+00  1.693709e-07  0 
 1.693709e-07  9.999998e-01  0 
 0  0  0 

 -1.000000e+00  1.023670e-07  0 
 1.023670e-07  9.999999e-01  0 
 0  0  0 

 -9.999998e-01  1.030825e-07  0 
 1.030825e-07  9.999997e-01  0 
 0  0  0 

 -1.000000e+00  6.144071e-08  0 
 6.144071e-08  1.000000e+00  0 
 0  0  0 

 -1.000000e+00  -1.753219e-08  0 
 -1.753219e-08  1.000000e+00  0 
 0  0  0 

 -1.000000e+00  5.911809e-08  0 
 5.911809e-08  1.000000e+00  0 
 0  0  0 

 -1.000000e+00  -2.039128e-09  0 
 -2.039128e-09  1.000000e+00  0 
 0  0  0 

 -1.000000e+00  -2.581665e-08  0 
 -2.581665e-08  1.000000e+00  0 
 0  0  0 

 -9.999999e-01  -1.539938e-08  0 
 -1.539938e-08  1.000000e+00  0 
 0  0  0 

 -1.000000e+00  -1.458248e-09  0 
 -1.458248e-09  1.000000e+00  0 
 0  0  0 

 -1.000000e+00  2.321303e-08  0 
 2.321303e-08  1.000000e+00  0 
 0  0  0 

 -1.000000e+00  1.127411e-08  0 
 1.127411e-08  1.000000e+00  0 
 0  0  0 

 -1.000000e+00  -3.269023e-08  0 
 -3.269023e-08  1.000000e+00  0 
 0  0  0 

 -1.000000e+00  -8.874027e-09  0 
 -8.874027e-09  1.000000e+00  0 
 0  0  0 

 -1.000000e+00  -1.153657e-08  0 
 -1.153657e-08  1.000000e+00  0 
 0  0  0 

 -1.000000e+00  2.046056e-08  0 
 2.046056e-08  1.000000e+00  0 
 0  0  0 

 -1.000000e+00  -3.459817e-08  0 
 -3.459817e-08  1.000000e+00  0 
 0  0  0 

 -9.999997e-01  -7.034669e-07  0 
 -7.034669e-07  1.000001e+00  0 
 0  0  0 

 -1.000000e+00  -3.405652e-08  0 
 -3.405652e-08  9.999993e-01  0 
 0  0  0 

 -1.000000e+00  3.279506e-08  0 
 3.279506e-08  1.000000e+00  0 
 0  0  0 

 -1.000000e+00  2.433653e-07  0 
 2.433653e-07  1.000000e+00  0 
 0  0  0 

 -9.999996e-01  -1.971275e-07  0 
 -1.971275e-07  1.000000e+00  0 
 0  0  0 

 -1.000000e+00  1.884018e-07  0 
 1.884018e-07  9.999997e-01  0 
 0  0  0 

 -1.000000e+00  -3.736441e-08  0 
 -3.736441e-08  9.999996e-01  0 
 0  0  0 

 -1.000000e+00  1.208558e-07  0 
 1.208558e-07  9.999997e-01  0 
 0  0  0 

 -1.000000e+00  2.140817e-07  0 
 2.140817e-07  9.999998e-01  0 
 0  0  0 

 -1.000000e+00  2.620688e-07  0 
 2.620688e-07  9.999998e-01  0 
 0  0  0 

 -9.999995e-01  5.038349e-07  0 
 5.038349e-07  9.999999e-01  0 
 0  0  0 

 -1.000000e+00  3.405851e-07  0 
 3.405851e-07  1.000000e+00  0 
 0  0  0 

 -1.000000e+00  3.908564e-07  0 
 3.908564e-07  9.999998e-01  0 
 0  0  0 

 -1.000000e+00  4.292386e-07  0 
 4.292386e-07  1.000001e+00  0 
 0  0  0 

 -1.000001e+00  1.260697e-06  0 
 1.260697e-06  9.999996e-01  0 
 0  0  0 

 -1.000000e+00  3.697294e-07  0 
 3.697294e-07  1.000000e+00  0 
 0  0  0 

 -1.000000e+00  2.181488e-07  0 
 2.181488e-07  1.000000e+00  0 
 0  0  0 

 -1.000000e+00  2.116840e-07  0 
 2.116840e-07  1.000000e+00  0 
 0  0  0 

 -1.000001e+00  -1.306746e-06  0 
 -1.306746e-06  9.999978e-01  0 
 0  0  0 

 -1.000000e+00  4.707775e-07  0 
 4.707775e-07  9.999997e-01  0 
 0  0  0 

 -1.000000e+00  4.867323e-07  0 
 4.867323e-07  9.999978e-01  0 
 0  0  0 

 -1.000000e+00  -2.611038e-07  0 
 -2.611038e-07  1.000001e+00  0 
 0  0  0 

 -1.000000e+00  -3.078009e-07  0 
 -3.078009e-07  1.000000e+00  0 
 0  0  0 

 -1.000000e+00  -3.516282e-07  0 
 -3.516282e-07  9.999999e-01  0 
 0  0  0 

 -9.999991e-01  2.047481e-07  0 
 2.047481e-07  9.999991e-01  0 
 0  0  0 

 -1.000000e+00  2.539677e-07  0 
 2.539677e-07  9.999998e-01  0 
 0  0  0 

 -1.000000e+00  -3.248307e-07  0 
 -3.248307e-07  9.999981e-01  0 
 0  0  0 

 -9.999993e-01  -1.222149e-06  0 
 -1.222149e-06  1.000001e+00  0 
 0  0  0 

 -9.999996e-01  2.064780e-07  0 
 2.064780e-07  1.000003e+00  0 
 0  0  0 

 -1.000000e+00  1.923180e-06  0 
 1.923180e-06  9.999999e-01  0 
 0  0  0 

 -1.000001e+00  -1.098629e-07  0 
 -1.098629e-07  1.000001e+00  0 
 0  0  0 

 -9.999994e-01  -9.671729e-07  0 
 -9.671729e-07  1.000000e+00  0 
 0  0  0 

 -1.000001e+00  1.050521e-06  0 
 1.050521e-06  9.999990e-01  0 
 0  0  0 

 -9.999999e-01  -4.993966e-07  0 
 -4.993966e-07  1.000000e+00  0 
 0  0  0 

 -1.000000e+00  -2.907978e-07  0 
 -2.907978e-07  9.999978e-01  0 
 0  0  0 

TENSORS element_stresses FLOAT
 -9.999999e-01  -5.592771e-08  0 
 -5.592771e-08  1.000000e+00  0 
 0  0  0 

 -1.000000e+00  -8.890409e-08  0 
 -8.890409e-08  1.000000e+00  0 
 0  0  0 

 -9.999998e-01  -2.217271e-07  0 
 -2.217271e-07  1.000000e+00  0 
 0  0  0 

 -9.999999e-01  -1.308135e-07  0 
 -1.308135e-07  1.000000e+00  0 
 0  0  0 

 -1.000000e+00  -1.516067e-07  0 
 -1.516067e-07  1.000000e+00  0 
 0  0  0 

 -1.000000e+00  1.219537e-07  0 
 1.219537e-07  1.000000e+00  0 
 0  0  0 

 -1.000000e+00  3.842934e-09  0 
 3.842934e-09  1.000000e+00  0 
 0  0  0 

 -1.000000e+00  1.067654e-07  0 
 1.067654e-07  1.000000e+00  0 
 0  0  0 

 -1.000000e+00  1.742386e-07  0 
 1.742386e-07  1.000000e+00  0 
 0  0  0 

 -1.000000e+00  -3.174193e-07  0 
 -3.174193e-07  9.999998e-01  0 
 0  0  0 

 -1.000000e+00  4.829520e-07  0 
 4.829520e-07  9.999997e-01  0 
 0  0  0 

 -9.999999e-01  1.568410e-08  0 
 1.568410e-08  1.000000e+00  0 
 0  0  0 

 -9.999998e-01  8.375134e-08  0 
 8.375134e-08  9.999999e-01  0 
 0  0  0 

 -1.000000e+00  -3.270596e-08  0 
 -3.270596e-08  1.000000e+00  0 
 0  0  0 

 -1.000000e+00  -2.751826e-08  0 
 -2.751826e-08  1.000000e+00  0 
 0  0  0 

 -1.000000e+00  -1.146126e-07  0 
 -1.146126e-07  9.999999e-01  0 
 0  0  0 

 -1.000000e+00  1.693709e-07  0 
 1.693709e-07  9.999998e-01  0 
 0  0  0 

 -1.000000e+00  1.023670e-07  0 
 1.023670e-07  9.999999e-01  0 
 0  0  0 

 -9.999998e-01  1.030825e-07  0 
 1.030825e-07  9.999997e-01  0 
 0  0  0 

 -1.000000e+00  6.144071e-08  0 
 6.144071e-08  1.000000e+00  0 
 0  0  0 

 -1.000000e+00  -1.753219e-08  0 
 -1.753219e-08  1.000000e+00  0 
 0  0  0 

 -1.000000e+00  5.911809e-08  0 
 5.911809e-08  1.000000e+00  0 
 0  0  0 

 -1.000000e+00  -2.039128e-09  0 
 -2.039128e-09  1.000000e+00  0 
 0  0  0 

 -1.000000e+00  -2.581665e-08  0 
 -2.581665e-08  1.000000e+00  0 
 0  0  0 

 -9.999999e-01  -1.539938e-08  0 
 -1.539938e-08  1.000000e+00  0 
 0  0  0 

 -1.000000e+00  -1.458248e-09  0 
 -1.458248e-09  1.000000e+00  0 
 0  0  0 

 -1.000000e+00  2.321303e-08  0 
 2.321303e-08  1.000000e+00  0 
 0  0  0 

 -1.000000e+00  1.127411e-08  0 
 1.127411e-08  1.000000e+00  0 
 0  0  0 

 -1.000000e+00  -3.269023e-08  0 
 -3.269023e-08  1.000000e+00  0 
 0  0  0 

 -1.000000e+00  -8.874027e-09  0 
 -8.874027e-09  1.000000e+00  0 
 0  0  0 

 -1.000000e+00  -1.153657e-08  0 
 -1.153657e-08  1.000000e+00  0 
 0  0  0 

 -1.000000e+00  2.046056e-08  0 
 2.046056e-08  1.000000e+00  0 
 0  0  0 

 -1.000000e+00  -3.459817e-08  0 
 -3.459817e-08  1.000000e+00  0 
 0  0  0 

 -9.999997e-01  -7.034669e-07  0 
 -7.034669e-07  1.000001e+00  0 
 0  0  0 

 -1.000000e+00  -3.405652e-08  0 
 -3.405652e-08  9.999993e-01  0 
 0  0  0 

 -1.000000e+00  3.279506e-08  0 
 3.279506e-08  1.000000e+00  0 
 0  0  0 

 -1.000000e+00  2.433653e-07  0 
 2.433653e-07  1.000000e+00  0 
 0  0  0 

 -9.999996e-01  -1.971275e-07  0 
 -1.971275e-07  1.000000e+00  0 
 0  0  0 

 -1.000000e+00  1.884018e-07  0 
 1.884018e-07  9.999997e-01  0 
 0  0  0 

 -1.000000e+00  -3.736441e-08  0 
 -3.736441e-08  9.999996e-01  0 
 0  0  0 

 -1.000000e+00  1.208558e-07  0 
 1.208558e-07  9.999997e-01  0 
 0  0  0 

 -1.000000e+00  2.140817e-07  0 
 2.140817e-07  9.999998e-01  0 
 0  0  0 

 -1.000000e+00  2.620688e-07  0 
 2.620688e-07  9.999998e-01  0 
 0  0  0 

 -9.999995e-01  5.038349e-07  0 
 5.038349e-07  9.999999e-01  0 
 0  0  0 

 -1.000000e+00  3.405851e-07  0 
 3.405851e-07  1.000000e+00  0 
 0  0  0 

 -1.000000e+00  3.908564e-07  0 
 3.908564e-07  9.999998e-01  0 
 0  0  0 

 -1.000000e+00  4.292386e-07  0 
 4.292386e-07  1.000001e+00  0 
 0  0  0 

 -1.000001e+00  1.260697e-06  0 
 1.260697e-06  9.999996e-01  0 
 0  0  0 

 -1.000000e+00  3.697294e-07  0 
 3.697294e-07  1.000000e+00  0 
 0  0  0 

 -1.000000e+00  2.181488e-07  0 
 2.181488e-07  1.000000e+00  0 
 0  0  0 

 -1.000000e+00  2.116840e-07  0 
 2.116840e-07  1.000000e+00  0 
 0  0  0 

 -1.000001e+00  -1.306746e-06  0 
 -1.306746e-06  9.999978e-01  0 
 0  0  0 

 -1.000000e+00  4.707775e-07  0 
 4.707775e-07  9.999997e-01  0 
 0  0  0 

 -1.000000e+00  4.867323e-07  0 
 4.867323e-07  9.999978e-01  0 
 0  0  0 

 -1.000000e+00  -2.611038e-07  0 
 -2.611038e-07  1.000001e+00  0 
 0  0  0 

 -1.000000e+00  -3.078009e-07  0 
 -3.078009e-07  1.000000e+00  0 
 0  0  0 

 -1.000000e+00  -3.516282e-07  0 
 -3.516282e-07  9.999999e-01  0 
 0  0  0 

 -9.999991e-01  2.047481e-07  0 
 2.047481e-07  9.999991e-01  0 
 0  0  0 
