# vtk DataFile Version 3.1
this is an vtk file created by FEMAC
ASCII
DATASET UNSTRUCTURED_GRID
POINTS 46 FLOAT
2.000000 1.000000 0.000000
2.000000 0.700000 0.000000
2.000000 0.800000 0.000000
2.000000 0.900000 0.000000
1.200000 1.000000 0.000000
1.300000 1.000000 0.000000
1.400000 1.000000 0.000000
1.500000 1.000000 0.000000
1.600000 1.000000 0.000000
1.700000 1.000000 0.000000
1.800000 1.000000 0.000000
1.900000 1.000000 0.000000
1.314544 0.533627 0.000000
1.907977 0.751443 0.000000
1.278942 0.731096 0.000000
1.588987 0.838877 0.000000
1.693092 0.882839 0.000000
1.676461 0.577534 0.000000
1.913740 0.848154 0.000000
1.321709 0.636185 0.000000
1.356104 0.898605 0.000000
1.501210 0.864398 0.000000
1.695804 0.771569 0.000000
1.384257 0.730548 0.000000
1.897903 0.641045 0.000000
1.692587 0.664962 0.000000
1.933923 0.934442 0.000000
1.419647 0.582434 0.000000
1.298878 0.815956 0.000000
1.249354 0.907477 0.000000
1.425898 0.844623 0.000000
1.481840 0.666162 0.000000
1.582321 0.608275 0.000000
1.582057 0.719785 0.000000
1.490313 0.780040 0.000000
1.786119 0.605583 0.000000
1.518207 0.517537 0.000000
1.463157 0.922800 0.000000
1.549028 0.927292 0.000000
1.627923 0.931588 0.000000
1.796584 0.711022 0.000000
1.769625 0.917211 0.000000
1.500504 0.593602 0.000000
1.401863 0.653832 0.000000
1.854750 0.919654 0.000000
1.804510 0.828842 0.000000
CELLS 67 268 
3 13  2  1
3 2 18  3
3 13 18  2
3 3 26  0
3 26 11  0
3 18 26  3
3 6 20  5
3 1 24 13
3 23 19 14
3 16 22 15
3 19 27 12
3 14 28 23
3 29 20 28
3 5 29  4
3 29  5 20
3 33 22 25
3 22 33 15
3 37  6  7
3 25 32 33
3 6 37 20
3 30 37 21
3 37 30 20
3 21 38 15
3 38 21 37
3 8 38  7
3 38 37  7
3 30 34 23
3 21 34 30
3 34 21 15
3 33 34 15
3 25 17 32
3 23 34 31
3 30 28 20
3 23 28 30
3 25 35 17
3 32 31 33
3 34 33 31
3 8 39 38
3 16 39  9
3 39  8  9
3 40 24 35
3 24 40 13
3 31 42 27
3 36 42 32
3 42 36 27
3 42 31 32
3 43 19 23
3 43 31 27
3 31 43 23
3 19 43 27
3 15 39 16
3 15 38 39
3 41  9 10
3 16  9 41
3 44 41 10
3 26 18 44
3 11 44 10
3 11 26 44
3 45 18 13
3 44 18 45
3 45 22 16
3 41 45 16
3 45 41 44
3 40 25 22
3 22 45 40
3 40 45 13
3 40 35 25
CELL_TYPES 67
5 5 5 5 5 5 5 5 5 5 5 5 5 5 5 5 5 5 5 5 5 5 5 5 5 5 5 5 5 5 5 5 5 5 5 5 5 5 5 5 5 5 5 5 5 5 5 5 5 5 5 5 5 5 5 5 5 5 5 5 5 5 5 5 5 5 5 
POINT_DATA 46
VECTORS displacement_ITER1 FLOAT
 -1.379380e-02  4.665545e-03  0 
 -1.271791e-02  3.198650e-03  0 
 -1.327162e-02  3.539382e-03  0 
 -1.355862e-02  4.046857e-03  0 
 -7.750913e-03  5.402525e-03  0 
 -8.445160e-03  4.694873e-03  0 
 -9.234865e-03  4.231993e-03  0 
 -1.005361e-02  4.018017e-03  0 
 -1.086836e-02  3.967289e-03  0 
 -1.166257e-02  4.036527e-03  0 
 -1.241972e-02  4.215342e-03  0 
 -1.313247e-02  4.426873e-03  0 
 -9.563519e-03  1.697278e-03  0 
 -1.255760e-02  2.899508e-03  0 
 -9.069347e-03  2.688713e-03  0 
 -1.077017e-02  2.799786e-03  0 
 -1.148535e-02  3.169412e-03  0 
 -1.103608e-02  1.333970e-03  0 
 -1.289475e-02  3.489531e-03  0 
 -9.494868e-03  2.177095e-03  0 
 -9.283181e-03  3.630731e-03  0 
 -1.022238e-02  3.049181e-03  0 
 -1.138072e-02  2.399381e-03  0 
 -9.635889e-03  2.476506e-03  0 
 -1.192094e-02  2.383442e-03  0 
 -1.124618e-02  1.747277e-03  0 
 -1.321612e-02  4.081628e-03  0 
 -1.009307e-02  1.681393e-03  0 
 -9.106743e-03  3.190500e-03  0 
 -8.542931e-03  4.346562e-03  0 
 -9.795093e-03  3.074744e-03  0 
 -1.019378e-02  1.866275e-03  0 
 -1.072178e-02  1.344405e-03  0 
 -1.070950e-02  2.046414e-03  0 
 -1.019322e-02  2.539839e-03  0 
 -1.140156e-02  1.792634e-03  0 
 -1.074318e-02  9.191910e-04  0 
 -9.913017e-03  3.487227e-03  0 
 -1.050443e-02  3.415923e-03  0 
 -1.106582e-02  3.457068e-03  0 
 -1.182328e-02  2.245960e-03  0 
 -1.206439e-02  3.547204e-03  0 
 -1.041337e-02  1.449034e-03  0 
 -9.851526e-03  2.060214e-03  0 
 -1.266559e-02  3.763892e-03  0 
 -1.215568e-02  2.999376e-03  0 
VECTORS displacement_ITER2 FLOAT
 -1.389160e-02  8.330687e-03  0 
 -1.312054e-02  6.716666e-03  0 
 -1.345720e-02  7.135115e-03  0 
 -1.368193e-02  7.697544e-03  0 
 -7.791975e-03  8.246585e-03  0 
 -8.553028e-03  7.824751e-03  0 
 -9.395770e-03  7.566327e-03  0 
 -1.024195e-02  7.508420e-03  0 
 -1.105547e-02  7.571136e-03  0 
 -1.182569e-02  7.715982e-03  0 
 -1.254881e-02  7.913794e-03  0 
 -1.323601e-02  8.116106e-03  0 
 -8.607385e-03  3.939284e-03  0 
 -1.277996e-02  6.578067e-03  0 
 -8.670207e-03  5.484766e-03  0 
 -1.082876e-02  6.371810e-03  0 
 -1.159949e-02  6.858272e-03  0 
 -1.102882e-02  4.724236e-03  0 
 -1.302867e-02  7.174353e-03  0 
 -8.986960e-03  4.826013e-03  0 
 -9.231181e-03  6.815905e-03  0 
 -1.024938e-02  6.479647e-03  0 
 -1.145569e-02  6.085427e-03  0 
 -9.390910e-03  5.495091e-03  0 
 -1.233192e-02  5.950510e-03  0 
 -1.126177e-02  5.355967e-03  0 
 -1.332720e-02  7.763702e-03  0 
 -9.502679e-03  4.562823e-03  0 
 -8.866480e-03  6.179091e-03  0 
 -8.406403e-03  7.284046e-03  0 
 -9.739290e-03  6.342271e-03  0 
 -9.940726e-03  5.080927e-03  0 
 -1.047066e-02  4.775453e-03  0 
 -1.064755e-02  5.550070e-03  0 
 -1.012528e-02  5.884926e-03  0 
 -1.163725e-02  5.319599e-03  0 
 -9.993869e-03  4.090875e-03  0 
 -9.981770e-03  6.892549e-03  0 
 -1.061826e-02  6.958452e-03  0 
 -1.119875e-02  7.091038e-03  0 
 -1.198684e-02  5.947681e-03  0 
 -1.219022e-02  7.266734e-03  0 
 -9.972417e-03  4.617904e-03  0 
 -9.465126e-03  4.992231e-03  0 
 -1.278045e-02  7.477030e-03  0 
 -1.228171e-02  6.740267e-03  0 
VECTORS displacement_ITER3 FLOAT
 -1.299805e-02  6.039923e-03  0 
 -1.311793e-02  4.179934e-03  0 
 -1.311914e-02  4.764992e-03  0 
 -1.306144e-02  5.393538e-03  0 
 -7.600298e-03  6.896631e-03  0 
 -8.298269e-03  6.660568e-03  0 
 -8.999363e-03  6.493741e-03  0 
 -9.686582e-03  6.387884e-03  0 
 -1.035984e-02  6.304632e-03  0 
 -1.102578e-02  6.232703e-03  0 
 -1.168867e-02  6.167588e-03  0 
 -1.234641e-02  6.102488e-03  0 
 -8.511864e-03  3.082195e-03  0 
 -1.255065e-02  4.481627e-03  0 
 -8.447603e-03  4.754404e-03  0 
 -1.041730e-02  5.257076e-03  0 
 -1.106420e-02  5.463887e-03  0 
 -1.127584e-02  3.455086e-03  0 
 -1.253588e-02  5.106568e-03  0 
 -8.853621e-03  4.128788e-03  0 
 -8.853888e-03  5.855510e-03  0 
 -9.826638e-03  5.493527e-03  0 
 -1.116958e-02  4.731303e-03  0 
 -9.155582e-03  4.697908e-03  0 
 -1.251917e-02  3.805443e-03  0 
 -1.126197e-02  4.039540e-03  0 
 -1.261034e-02  5.654607e-03  0 
 -9.528375e-03  3.749318e-03  0 
 -8.533239e-03  5.305922e-03  0 
 -8.117039e-03  6.115188e-03  0 
 -9.358713e-03  5.434169e-03  0 
 -9.856884e-03  4.214223e-03  0 
 -1.058903e-02  3.753931e-03  0 
 -1.047838e-02  4.495401e-03  0 
 -9.827036e-03  4.961558e-03  0 
 -1.190280e-02  3.650365e-03  0 
 -1.022827e-02  3.171803e-03  0 
 -9.524109e-03  5.903870e-03  0 
 -1.008409e-02  5.861656e-03  0 
 -1.059895e-02  5.831336e-03  0 
 -1.186861e-02  4.270049e-03  0 
 -1.154399e-02  5.639327e-03  0 
 -1.004939e-02  3.715336e-03  0 
 -9.352967e-03  4.198144e-03  0 
 -1.210370e-02  5.603733e-03  0 
 -1.183502e-02  5.032552e-03  0 
VECTORS displacement_ITER4 FLOAT
 -1.299428e-02  6.417909e-03  0 
 -1.306590e-02  4.481398e-03  0 
 -1.304146e-02  5.116626e-03  0 
 -1.301664e-02  5.766996e-03  0 
 -7.827162e-03  6.544241e-03  0 
 -8.465708e-03  6.535691e-03  0 
 -9.114784e-03  6.512695e-03  0 
 -9.759670e-03  6.501223e-03  0 
 -1.040369e-02  6.491190e-03  0 
 -1.104831e-02  6.478060e-03  0 
 -1.169591e-02  6.460659e-03  0 
 -1.234430e-02  6.440093e-03  0 
 -8.517643e-03  3.450324e-03  0 
 -1.245310e-02  4.811399e-03  0 
 -8.356792e-03  4.784303e-03  0 
 -1.034849e-02  5.453848e-03  0 
 -1.102040e-02  5.719734e-03  0 
 -1.100203e-02  3.735256e-03  0 
 -1.246690e-02  5.447309e-03  0 
 -8.686411e-03  4.212489e-03  0 
 -8.848723e-03  5.861870e-03  0 
 -9.781360e-03  5.631147e-03  0 
 -1.104809e-02  4.992193e-03  0 
 -9.032327e-03  4.774068e-03  0 
 -1.239250e-02  4.052827e-03  0 
 -1.105214e-02  4.304596e-03  0 
 -1.257888e-02  6.005961e-03  0 
 -9.305354e-03  3.861484e-03  0 
 -8.470484e-03  5.305118e-03  0 
 -8.150745e-03  5.949487e-03  0 
 -9.299669e-03  5.512891e-03  0 
 -9.681752e-03  4.364340e-03  0 
 -1.034180e-02  3.985768e-03  0 
 -1.032256e-02  4.693489e-03  0 
 -9.720155e-03  5.094276e-03  0 
 -1.169013e-02  3.870055e-03  0 
 -9.935503e-03  3.438353e-03  0 
 -9.532255e-03  6.008691e-03  0 
 -1.008324e-02  6.028459e-03  0 
 -1.059173e-02  6.046854e-03  0 
 -1.171600e-02  4.558664e-03  0 
 -1.151267e-02  5.928617e-03  0 
 -9.818115e-03  3.910740e-03  0 
 -9.179400e-03  4.299876e-03  0 
 -1.206651e-02  5.928097e-03  0 
 -1.175516e-02  5.345077e-03  0 
VECTORS displacement_ITER5 FLOAT
 -1.303567e-02  6.595612e-03  0 
 -1.301186e-02  4.653721e-03  0 
 -1.302434e-02  5.297682e-03  0 
 -1.303043e-02  5.945852e-03  0 
 -7.882843e-03  6.485687e-03  0 
 -8.508586e-03  6.538277e-03  0 
 -9.147428e-03  6.557615e-03  0 
 -9.789426e-03  6.568856e-03  0 
 -1.043558e-02  6.575753e-03  0 
 -1.108472e-02  6.580394e-03  0 
 -1.173505e-02  6.585267e-03  0 
 -1.238547e-02  6.590386e-03  0 
 -8.594062e-03  3.547304e-03  0 
 -1.242223e-02  4.972344e-03  0 
 -8.312522e-03  4.804984e-03  0 
 -1.035287e-02  5.526400e-03  0 
 -1.103329e-02  5.817910e-03  0 
 -1.091384e-02  3.832569e-03  0 
 -1.246691e-02  5.603333e-03  0 
 -8.618883e-03  4.203419e-03  0 
 -8.841840e-03  5.897381e-03  0 
 -9.781883e-03  5.688407e-03  0 
 -1.104538e-02  5.093025e-03  0 
 -8.999668e-03  4.797627e-03  0 
 -1.235418e-02  4.250196e-03  0 
 -1.101584e-02  4.402219e-03  0 
 -1.260270e-02  6.165856e-03  0 
 -9.257594e-03  3.833574e-03  0 
 -8.446465e-03  5.344787e-03  0 
 -8.150472e-03  5.934759e-03  0 
 -9.287333e-03  5.553831e-03  0 
 -9.646572e-03  4.378410e-03  0 
 -1.029026e-02  4.023703e-03  0 
 -1.030286e-02  4.745652e-03  0 
 -9.703510e-03  5.134333e-03  0 
 -1.162484e-02  4.015205e-03  0 
 -9.856931e-03  3.449306e-03  0 
 -9.541079e-03  6.066952e-03  0 
 -1.009910e-02  6.101547e-03  0 
 -1.061242e-02  6.132496e-03  0 
 -1.169553e-02  4.704888e-03  0 
 -1.153296e-02  6.045025e-03  0 
 -9.767244e-03  3.919480e-03  0 
 -9.130475e-03  4.301221e-03  0 
 -1.208700e-02  6.065373e-03  0 
 -1.175496e-02  5.471112e-03  0 
VECTORS displacement_ITER6 FLOAT
 -1.299308e-02  6.499857e-03  0 
 -1.299594e-02  4.549567e-03  0 
 -1.299604e-02  5.199159e-03  0 
 -1.299448e-02  5.849660e-03  0 
 -7.802368e-03  6.490481e-03  0 
 -8.450225e-03  6.498046e-03  0 
 -9.099178e-03  6.500484e-03  0 
 -9.747574e-03  6.502322e-03  0 
 -1.039583e-02  6.503258e-03  0 
 -1.104433e-02  6.503277e-03  0 
 -1.169352e-02  6.502436e-03  0 
 -1.234310e-02  6.501279e-03  0 
 -8.534802e-03  3.468412e-03  0 
 -1.239799e-02  4.883516e-03  0 
 -8.304992e-03  4.754544e-03  0 
 -1.032339e-02  5.458023e-03  0 
 -1.099973e-02  5.742776e-03  0 
 -1.089636e-02  3.756946e-03  0 
 -1.243429e-02  5.513567e-03  0 
 -8.582345e-03  4.138961e-03  0 
 -8.812192e-03  5.841371e-03  0 
 -9.753632e-03  5.622783e-03  0 
 -1.101791e-02  5.020130e-03  0 
 -8.989892e-03  4.752439e-03  0 
 -1.233863e-02  4.164171e-03  0 
 -1.099732e-02  4.326696e-03  0 
 -1.256441e-02  6.074591e-03  0 
 -9.219106e-03  3.788772e-03  0 
 -8.439873e-03  5.303218e-03  0 
 -8.118840e-03  5.896905e-03  0 
 -9.264381e-03  5.493059e-03  0 
 -9.624551e-03  4.333728e-03  0 
 -1.027770e-02  3.957909e-03  0 
 -1.027772e-02  4.683676e-03  0 
 -9.681099e-03  5.075176e-03  0 
 -1.160940e-02  3.935031e-03  0 
 -9.859269e-03  3.366940e-03  0 
 -9.507473e-03  6.001077e-03  0 
 -1.006468e-02  6.031428e-03  0 
 -1.057664e-02  6.059605e-03  0 
 -1.167456e-02  4.624276e-03  0 
 -1.149673e-02  5.965030e-03  0 
 -9.745180e-03  3.861776e-03  0 
 -9.103966e-03  4.253405e-03  0 
 -1.204986e-02  5.979808e-03  0 
 -1.172392e-02  5.390178e-03  0 
VECTORS displacement_ITER7 FLOAT
 -1.300093e-02  6.503478e-03  0 
 -1.299726e-02  4.556265e-03  0 
 -1.299964e-02  5.204199e-03  0 
 -1.300036e-02  5.853570e-03  0 
 -7.796827e-03  6.500781e-03  0 
 -8.447577e-03  6.501438e-03  0 
 -9.098575e-03  6.500940e-03  0 
 -9.749331e-03  6.500984e-03  0 
 -1.039989e-02  6.501266e-03  0 
 -1.105033e-02  6.501725e-03  0 
 -1.170068e-02  6.502313e-03  0 
 -1.235088e-02  6.502875e-03  0 
 -8.547202e-03  3.469993e-03  0 
 -1.240114e-02  4.887125e-03  0 
 -8.312828e-03  4.755840e-03  0 
 -1.032781e-02  5.453441e-03  0 
 -1.100488e-02  5.739737e-03  0 
 -1.089548e-02  3.756402e-03  0 
 -1.243942e-02  5.515909e-03  0 
 -8.591140e-03  4.138272e-03  0 
 -8.813709e-03  5.841358e-03  0 
 -9.757187e-03  5.619180e-03  0 
 -1.102233e-02  5.016162e-03  0 
 -8.996950e-03  4.750592e-03  0 
 -1.233555e-02  4.169938e-03  0 
 -1.100071e-02  4.322927e-03  0 
 -1.257105e-02  6.076932e-03  0 
 -9.228905e-03  3.787288e-03  0 
 -8.443210e-03  5.304640e-03  0 
 -8.119271e-03  5.900391e-03  0 
 -9.267666e-03  5.490573e-03  0 
 -9.631764e-03  4.330709e-03  0 
 -1.028521e-02  3.953831e-03  0 
 -1.028268e-02  4.678732e-03  0 
 -9.686067e-03  5.070935e-03  0 
 -1.160731e-02  3.937210e-03  0 
 -9.870636e-03  3.363581e-03  0 
 -9.509753e-03  5.998745e-03  0 
 -1.006819e-02  6.028178e-03  0 
 -1.058127e-02  6.056440e-03  0 
 -1.167717e-02  4.623509e-03  0 
 -1.150273e-02  5.963729e-03  0 
 -9.753984e-03  3.858827e-03  0 
 -9.112087e-03  4.251777e-03  0 
 -1.205629e-02  5.980215e-03  0 
 -1.172917e-02  5.389269e-03  0 
VECTORS displacement_ITER8 FLOAT
 -1.299931e-02  6.498028e-03  0 
 -1.299905e-02  4.548740e-03  0 
 -1.299946e-02  5.198169e-03  0 
 -1.299940e-02  5.848041e-03  0 
 -7.800201e-03  6.497452e-03  0 
 -8.449571e-03  6.498700e-03  0 
 -9.099395e-03  6.498662e-03  0 
 -9.749272e-03  6.498525e-03  0 
 -1.039923e-02  6.498381e-03  0 
 -1.104923e-02  6.498266e-03  0 
 -1.169927e-02  6.498193e-03  0 
 -1.234929e-02  6.498115e-03  0 
 -8.544835e-03  3.468000e-03  0 
 -1.240128e-02  4.882260e-03  0 
 -8.312935e-03  4.750915e-03  0 
 -1.032780e-02  5.451148e-03  0 
 -1.100442e-02  5.736710e-03  0 
 -1.089726e-02  3.752567e-03  0 
 -1.243875e-02  5.511049e-03  0 
 -8.590284e-03  4.133953e-03  0 
 -8.814069e-03  5.839715e-03  0 
 -9.757282e-03  5.617183e-03  0 
 -1.102208e-02  5.013442e-03  0 
 -8.997350e-03  4.747419e-03  0 
 -1.233566e-02  4.164242e-03  0 
 -1.100147e-02  4.320717e-03  0 
 -1.256986e-02  6.071948e-03  0 
 -9.227180e-03  3.784055e-03  0 
 -8.442321e-03  5.302536e-03  0 
 -8.120104e-03  5.897552e-03  0 
 -9.267832e-03  5.488759e-03  0 
 -9.631683e-03  4.328822e-03  0 
 -1.028495e-02  3.952739e-03  0 
 -1.028298e-02  4.677284e-03  0 
 -9.686609e-03  5.068953e-03  0 
 -1.160964e-02  3.934413e-03  0 
 -9.867412e-03  3.362430e-03  0 
 -9.509885e-03  5.996842e-03  0 
 -1.006800e-02  6.025879e-03  0 
 -1.058079e-02  6.053677e-03  0 
 -1.167713e-02  4.619541e-03  0 
 -1.150187e-02  5.960037e-03  0 
 -9.752867e-03  3.856971e-03  0 
 -9.111570e-03  4.248555e-03  0 
 -1.205522e-02  5.975879e-03  0 
 -1.172867e-02  5.385541e-03  0 
VECTORS displacement_ITER9 FLOAT
 -1.300031e-02  6.500463e-03  0 
 -1.300006e-02  4.550497e-03  0 
 -1.300017e-02  5.200468e-03  0 
 -1.300024e-02  5.850463e-03  0 
 -7.799988e-03  6.500386e-03  0 
 -8.450152e-03  6.500091e-03  0 
 -9.100234e-03  6.500056e-03  0 
 -9.750284e-03  6.500099e-03  0 
 -1.040030e-02  6.500164e-03  0 
 -1.105031e-02  6.500239e-03  0 
 -1.170031e-02  6.500315e-03  0 
 -1.235031e-02  6.500390e-03  0 
 -8.544627e-03  3.468699e-03  0 
 -1.240198e-02  4.884759e-03  0 
 -8.313319e-03  4.752065e-03  0 
 -1.032862e-02  5.452870e-03  0 
 -1.100532e-02  5.738692e-03  0 
 -1.089711e-02  3.754158e-03  0 
 -1.243951e-02  5.513397e-03  0 
 -8.591159e-03  4.135212e-03  0 
 -8.814935e-03  5.840941e-03  0 
 -9.758089e-03  5.618688e-03  0 
 -1.102288e-02  5.015461e-03  0 
 -8.997815e-03  4.748577e-03  0 
 -1.233643e-02  4.167157e-03  0 
 -1.100194e-02  4.322544e-03  0 
 -1.257076e-02  6.074289e-03  0 
 -9.227701e-03  3.785864e-03  0 
 -8.442903e-03  5.303640e-03  0 
 -8.121047e-03  5.898644e-03  0 
 -9.268564e-03  5.490103e-03  0 
 -9.632032e-03  4.330159e-03  0 
 -1.028509e-02  3.953942e-03  0 
 -1.028351e-02  4.678795e-03  0 
 -9.687221e-03  5.070368e-03  0 
 -1.160991e-02  3.936717e-03  0 
 -9.868316e-03  3.364187e-03  0 
 -9.510779e-03  5.998260e-03  0 
 -1.006894e-02  6.027525e-03  0 
 -1.058176e-02  6.055507e-03  0 
 -1.167790e-02  4.621978e-03  0 
 -1.150281e-02  5.962161e-03  0 
 -9.753287e-03  3.858549e-03  0 
 -9.112172e-03  4.249950e-03  0 
 -1.205613e-02  5.978106e-03  0 
 -1.172950e-02  5.387790e-03  0 
VECTORS displacement_ITER10 FLOAT
 -1.300001e-02  6.500022e-03  0 
 -1.299996e-02  4.550062e-03  0 
 -1.300000e-02  5.200033e-03  0 
 -1.300000e-02  5.850023e-03  0 
 -7.800043e-03  6.499936e-03  0 
 -8.450033e-03  6.499963e-03  0 
 -9.100010e-03  6.499999e-03  0 
 -9.749997e-03  6.500011e-03  0 
 -1.039999e-02  6.500013e-03  0 
 -1.105000e-02  6.500011e-03  0 
 -1.170000e-02  6.500014e-03  0 
 -1.235001e-02  6.500017e-03  0 
 -8.544520e-03  3.468560e-03  0 
 -1.240184e-02  4.884390e-03  0 
 -8.313150e-03  4.752197e-03  0 
 -1.032841e-02  5.452703e-03  0 
 -1.100509e-02  5.738459e-03  0 
 -1.089700e-02  3.753926e-03  0 
 -1.243931e-02  5.513017e-03  0 
 -8.591132e-03  4.135232e-03  0 
 -8.814664e-03  5.840943e-03  0 
 -9.757845e-03  5.618601e-03  0 
 -1.102272e-02  5.015196e-03  0 
 -8.997672e-03  4.748576e-03  0 
 -1.233635e-02  4.166807e-03  0 
 -1.100180e-02  4.322229e-03  0 
 -1.257050e-02  6.073894e-03  0 
 -9.227723e-03  3.785895e-03  0 
 -8.442661e-03  5.303734e-03  0 
 -8.120819e-03  5.898559e-03  0 
 -9.268312e-03  5.490062e-03  0 
 -9.631948e-03  4.330079e-03  0 
 -1.028507e-02  3.953760e-03  0 
 -1.028336e-02  4.678593e-03  0 
 -9.687024e-03  5.070262e-03  0 
 -1.160974e-02  3.936305e-03  0 
 -9.868436e-03  3.364068e-03  0 
 -9.510511e-03  5.998214e-03  0 
 -1.006867e-02  6.027414e-03  0 
 -1.058149e-02  6.055331e-03  0 
 -1.167778e-02  4.621647e-03  0 
 -1.150256e-02  5.961877e-03  0 
 -9.753290e-03  3.858460e-03  0 
 -9.112119e-03  4.249949e-03  0 
 -1.205588e-02  5.977763e-03  0 
 -1.172931e-02  5.387476e-03  0 
VECTORS displacement_ITER11 FLOAT
 -1.300000e-02  6.500006e-03  0 
 -1.300000e-02  4.550004e-03  0 
 -1.300000e-02  5.200005e-03  0 
 -1.300000e-02  5.850006e-03  0 
 -7.799995e-03  6.500030e-03  0 
 -8.449996e-03  6.500021e-03  0 
 -9.099996e-03  6.500017e-03  0 
 -9.749997e-03  6.500014e-03  0 
 -1.040000e-02  6.500011e-03  0 
 -1.105000e-02  6.500010e-03  0 
 -1.170000e-02  6.500008e-03  0 
 -1.235000e-02  6.500007e-03  0 
 -8.544539e-03  3.468575e-03  0 
 -1.240185e-02  4.884383e-03  0 
 -8.313128e-03  4.752132e-03  0 
 -1.032842e-02  5.452714e-03  0 
 -1.100510e-02  5.738465e-03  0 
 -1.089700e-02  3.753979e-03  0 
 -1.243931e-02  5.513007e-03  0 
 -8.591105e-03  4.135210e-03  0 
 -8.814674e-03  5.840951e-03  0 
 -9.757863e-03  5.618603e-03  0 
 -1.102273e-02  5.015213e-03  0 
 -8.997674e-03  4.748575e-03  0 
 -1.233638e-02  4.166799e-03  0 
 -1.100181e-02  4.322265e-03  0 
 -1.257050e-02  6.073882e-03  0 
 -9.227703e-03  3.785827e-03  0 
 -8.442706e-03  5.303732e-03  0 
 -8.120801e-03  5.898621e-03  0 
 -9.268337e-03  5.490062e-03  0 
 -9.631962e-03  4.330068e-03  0 
 -1.028509e-02  3.953805e-03  0 
 -1.028337e-02  4.678614e-03  0 
 -9.687040e-03  5.070271e-03  0 
 -1.160977e-02  3.936304e-03  0 
 -9.868339e-03  3.364004e-03  0 
 -9.510522e-03  5.998214e-03  0 
 -1.006868e-02  6.027413e-03  0 
 -1.058150e-02  6.055333e-03  0 
 -1.167780e-02  4.621658e-03  0 
 -1.150256e-02  5.961878e-03  0 
 -9.753274e-03  3.858427e-03  0 
 -9.112110e-03  4.249920e-03  0 
 -1.205587e-02  5.977758e-03  0 
 -1.172932e-02  5.387481e-03  0 
VECTORS displacement_ITER12 FLOAT
 -1.300000e-02  6.500002e-03  0 
 -1.300000e-02  4.550002e-03  0 
 -1.300000e-02  5.200002e-03  0 
 -1.300000e-02  5.850002e-03  0 
 -7.800000e-03  6.500000e-03  0 
 -8.450001e-03  6.499999e-03  0 
 -9.100001e-03  6.500000e-03  0 
 -9.750001e-03  6.500001e-03  0 
 -1.040000e-02  6.500001e-03  0 
 -1.105000e-02  6.500001e-03  0 
 -1.170000e-02  6.500001e-03  0 
 -1.235000e-02  6.500002e-03  0 
 -8.544537e-03  3.468577e-03  0 
 -1.240185e-02  4.884378e-03  0 
 -8.313123e-03  4.752126e-03  0 
 -1.032842e-02  5.452703e-03  0 
 -1.100510e-02  5.738456e-03  0 
 -1.089700e-02  3.753972e-03  0 
 -1.243931e-02  5.513002e-03  0 
 -8.591109e-03  4.135203e-03  0 
 -8.814676e-03  5.840934e-03  0 
 -9.757862e-03  5.618591e-03  0 
 -1.102273e-02  5.015203e-03  0 
 -8.997670e-03  4.748564e-03  0 
 -1.233637e-02  4.166794e-03  0 
 -1.100181e-02  4.322256e-03  0 
 -1.257050e-02  6.073877e-03  0 
 -9.227703e-03  3.785824e-03  0 
 -8.442708e-03  5.303717e-03  0 
 -8.120804e-03  5.898598e-03  0 
 -9.268337e-03  5.490049e-03  0 
 -9.631959e-03  4.330056e-03  0 
 -1.028509e-02  3.953789e-03  0 
 -1.028337e-02  4.678602e-03  0 
 -9.687037e-03  5.070260e-03  0 
 -1.160977e-02  3.936296e-03  0 
 -9.868343e-03  3.363987e-03  0 
 -9.510523e-03  5.998201e-03  0 
 -1.006868e-02  6.027402e-03  0 
 -1.058150e-02  6.055323e-03  0 
 -1.167779e-02  4.621647e-03  0 
 -1.150257e-02  5.961870e-03  0 
 -9.753273e-03  3.858414e-03  0 
 -9.112110e-03  4.249912e-03  0 
 -1.205588e-02  5.977751e-03  0 
 -1.172932e-02  5.387472e-03  0 
CELL_DATA 67
TENSORS element_stresses FLOAT
 -1.000000e+00  4.271937e-07  0 
 4.271937e-07  9.999999e-01  0 
 0  0  0 

 -1.000000e+00  4.256426e-08  0 
 4.256426e-08  1.000000e+00  0 
 0  0  0 

 -1.000000e+00  5.506871e-08  0 
 5.506871e-08  1.000000e+00  0 
 0  0  0 

 -1.000000e+00  1.269697e-09  0 
 1.269697e-09  1.000000e+00  0 
 0  0  0 

 -1.000000e+00  -1.580739e-08  0 
 -1.580739e-08  1.000000e+00  0 
 0  0  0 

 -1.000000e+00  1.169645e-08  0 
 1.169645e-08  1.000000e+00  0 
 0  0  0 

 -9.999999e-01  8.206229e-07  0 
 8.206229e-07  9.999990e-01  0 
 0  0  0 

 -9.999992e-01  1.860481e-06  0 
 1.860481e-06  1.000002e+00  0 
 0  0  0 

 -1.000001e+00  2.374109e-06  0 
 2.374109e-06  9.999977e-01  0 
 0  0  0 

 -1.000000e+00  3.122768e-07  0 
 3.122768e-07  9.999999e-01  0 
 0  0  0 

 -1.000001e+00  -3.715425e-06  0 
 -3.715425e-06  9.999994e-01  0 
 0  0  0 

 -1.000000e+00  -4.677698e-07  0 
 -4.677698e-07  1.000002e+00  0 
 0  0  0 

 -1.000000e+00  1.960579e-06  0 
 1.960579e-06  9.999953e-01  0 
 0  0  0 

 -1.000002e+00  -2.500883e-07  0 
 -2.500883e-07  1.000002e+00  0 
 0  0  0 

 -9.999989e-01  2.125346e-06  0 
 2.125346e-06  1.000000e+00  0 
 0  0  0 

 -1.000000e+00  9.074502e-07  0 
 9.074502e-07  9.999996e-01  0 
 0  0  0 

 -9.999999e-01  5.709601e-07  0 
 5.709601e-07  1.000000e+00  0 
 0  0  0 

 -9.999998e-01  6.764197e-08  0 
 6.764197e-08  9.999998e-01  0 
 0  0  0 

 -9.999999e-01  1.297506e-06  0 
 1.297506e-06  1.000001e+00  0 
 0  0  0 

 -1.000000e+00  -1.852954e-07  0 
 -1.852954e-07  9.999996e-01  0 
 0  0  0 

 -1.000000e+00  -2.412746e-08  0 
 -2.412746e-08  1.000000e+00  0 
 0  0  0 

 -1.000000e+00  1.531894e-07  0 
 1.531894e-07  9.999999e-01  0 
 0  0  0 

 -1.000000e+00  7.028318e-08  0 
 7.028318e-08  1.000000e+00  0 
 0  0  0 

 -1.000000e+00  6.393121e-08  0 
 6.393121e-08  1.000000e+00  0 
 0  0  0 

 -9.999999e-01  -7.610760e-08  0 
 -7.610760e-08  9.999999e-01  0 
 0  0  0 

 -1.000000e+00  -1.410435e-07  0 
 -1.410435e-07  9.999999e-01  0 
 0  0  0 

 -1.000000e+00  -6.011483e-08  0 
 -6.011483e-08  9.999998e-01  0 
 0  0  0 

 -1.000000e+00  1.626715e-07  0 
 1.626715e-07  1.000000e+00  0 
 0  0  0 

 -1.000000e+00  1.288828e-07  0 
 1.288828e-07  1.000000e+00  0 
 0  0  0 

 -1.000000e+00  2.729786e-07  0 
 2.729786e-07  1.000000e+00  0 
 0  0  0 

 -9.999992e-01  3.115603e-07  0 
 3.115603e-07  9.999998e-01  0 
 0  0  0 

 -1.000000e+00  -2.011825e-07  0 
 -2.011825e-07  1.000001e+00  0 
 0  0  0 

 -1.000000e+00  -5.781459e-07  0 
 -5.781459e-07  9.999980e-01  0 
 0  0  0 

 -9.999996e-01  -1.137968e-06  0 
 -1.137968e-06  1.000000e+00  0 
 0  0  0 

 -9.999992e-01  1.931234e-06  0 
 1.931234e-06  9.999994e-01  0 
 0  0  0 

 -1.000000e+00  -1.963173e-08  0 
 -1.963173e-08  1.000001e+00  0 
 0  0  0 

 -1.000000e+00  3.218541e-07  0 
 3.218541e-07  1.000000e+00  0 
 0  0  0 

 -1.000000e+00  -9.023082e-08  0 
 -9.023082e-08  1.000000e+00  0 
 0  0  0 

 -1.000000e+00  1.619849e-08  0 
 1.619849e-08  1.000000e+00  0 
 0  0  0 

 -9.999999e-01  -4.220622e-08  0 
 -4.220622e-08  1.000000e+00  0 
 0  0  0 

 -1.000003e+00  -5.304060e-06  0 
 -5.304060e-06  9.999963e-01  0 
 0  0  0 

 -9.999998e-01  -1.184195e-06  0 
 -1.184195e-06  1.000002e+00  0 
 0  0  0 

 -9.999995e-01  -1.287914e-06  0 
 -1.287914e-06  1.000000e+00  0 
 0  0  0 

 -9.999997e-01  -5.434339e-07  0 
 -5.434339e-07  1.000001e+00  0 
 0  0  0 

 -9.999992e-01  -1.788178e-06  0 
 -1.788178e-06  1.000001e+00  0 
 0  0  0 

 -1.000000e+00  -3.814682e-08  0 
 -3.814682e-08  1.000001e+00  0 
 0  0  0 

 -9.999991e-01  -6.021415e-08  0 
 -6.021415e-08  9.999997e-01  0 
 0  0  0 

 -9.999994e-01  -6.563717e-07  0 
 -6.563717e-07  9.999995e-01  0 
 0  0  0 

 -9.999996e-01  2.310396e-07  0 
 2.310396e-07  9.999997e-01  0 
 0  0  0 

 -9.999989e-01  -9.158411e-07  0 
 -9.158411e-07  9.999996e-01  0 
 0  0  0 

 -1.000000e+00  8.275199e-08  0 
 8.275199e-08  1.000000e+00  0 
 0  0  0 

 -1.000000e+00  1.966457e-08  0 
 1.966457e-08  1.000000e+00  0 
 0  0  0 

 -9.999999e-01  -2.069900e-09  0 
 -2.069900e-09  9.999999e-01  0 
 0  0  0 

 -9.999999e-01  5.654659e-08  0 
 5.654659e-08  1.000000e+00  0 
 0  0  0 

 -9.999999e-01  -5.379038e-09  0 
 -5.379038e-09  9.999999e-01  0 
 0  0  0 

 -1.000000e+00  -7.239031e-08  0 
 -7.239031e-08  1.000000e+00  0 
 0  0  0 

 -1.000000e+00  -4.676538e-09  0 
 -4.676538e-09  9.999999e-01  0 
 0  0  0 

 -1.000000e+00  -6.267191e-08  0 
 -6.267191e-08  1.000000e+00  0 
 0  0  0 

 -9.999999e-01  -4.260203e-07  0 
 -4.260203e-07  1.000000e+00  0 
 0  0  0 

 -1.000000e+00  -2.238465e-07  0 
 -2.238465e-07  9.999999e-01  0 
 0  0  0 

 -9.999998e-01  3.402391e-07  0 
 3.402391e-07  1.000000e+00  0 
 0  0  0 

 -1.000000e+00  5.528213e-08  0 
 5.528213e-08  9.999999e-01  0 
 0  0  0 

 -9.999999e-01  -4.877498e-08  0 
 -4.877498e-08  9.999998e-01  0 
 0  0  0 

 -9.999992e-01  1.144396e-06  0 
 1.144396e-06  9.999999e-01  0 
 0  0  0 

 -9.999998e-01  3.713908e-07  0 
 3.713908e-07  9.999990e-01  0 
 0  0  0 

 -1.000000e+00  -1.222714e-06  0 
 -1.222714e-06  9.999990e-01  0 
 0  0  0 

 -9.999996e-01  1.158416e-06  0 
 1.158416e-06  9.999964e-01  0 
 0  0  0 

TENSORS element_stresses FLOAT
 -1.000000e+00  4.271937e-07  0 
 4.271937e-07  9.999999e-01  0 
 0  0  0 

 -1.000000e+00  4.256426e-08  0 
 4.256426e-08  1.000000e+00  0 
 0  0  0 

 -1.000000e+00  5.506871e-08  0 
 5.506871e-08  1.000000e+00  0 
 0  0  0 

 -1.000000e+00  1.269697e-09  0 
 1.269697e-09  1.000000e+00  0 
 0  0  0 

 -1.000000e+00  -1.580739e-08  0 
 -1.580739e-08  1.000000e+00  0 
 0  0  0 

 -1.000000e+00  1.169645e-08  0 
 1.169645e-08  1.000000e+00  0 
 0  0  0 

 -9.999999e-01  8.206229e-07  0 
 8.206229e-07  9.999990e-01  0 
 0  0  0 

 -9.999992e-01  1.860481e-06  0 
 1.860481e-06  1.000002e+00  0 
 0  0  0 

 -1.000001e+00  2.374109e-06  0 
 2.374109e-06  9.999977e-01  0 
 0  0  0 

 -1.000000e+00  3.122768e-07  0 
 3.122768e-07  9.999999e-01  0 
 0  0  0 

 -1.000001e+00  -3.715425e-06  0 
 -3.715425e-06  9.999994e-01  0 
 0  0  0 

 -1.000000e+00  -4.677698e-07  0 
 -4.677698e-07  1.000002e+00  0 
 0  0  0 

 -1.000000e+00  1.960579e-06  0 
 1.960579e-06  9.999953e-01  0 
 0  0  0 

 -1.000002e+00  -2.500883e-07  0 
 -2.500883e-07  1.000002e+00  0 
 0  0  0 

 -9.999989e-01  2.125346e-06  0 
 2.125346e-06  1.000000e+00  0 
 0  0  0 

 -1.000000e+00  9.074502e-07  0 
 9.074502e-07  9.999996e-01  0 
 0  0  0 

 -9.999999e-01  5.709601e-07  0 
 5.709601e-07  1.000000e+00  0 
 0  0  0 

 -9.999998e-01  6.764197e-08  0 
 6.764197e-08  9.999998e-01  0 
 0  0  0 

 -9.999999e-01  1.297506e-06  0 
 1.297506e-06  1.000001e+00  0 
 0  0  0 

 -1.000000e+00  -1.852954e-07  0 
 -1.852954e-07  9.999996e-01  0 
 0  0  0 

 -1.000000e+00  -2.412746e-08  0 
 -2.412746e-08  1.000000e+00  0 
 0  0  0 

 -1.000000e+00  1.531894e-07  0 
 1.531894e-07  9.999999e-01  0 
 0  0  0 

 -1.000000e+00  7.028318e-08  0 
 7.028318e-08  1.000000e+00  0 
 0  0  0 

 -1.000000e+00  6.393121e-08  0 
 6.393121e-08  1.000000e+00  0 
 0  0  0 

 -9.999999e-01  -7.610760e-08  0 
 -7.610760e-08  9.999999e-01  0 
 0  0  0 

 -1.000000e+00  -1.410435e-07  0 
 -1.410435e-07  9.999999e-01  0 
 0  0  0 

 -1.000000e+00  -6.011483e-08  0 
 -6.011483e-08  9.999998e-01  0 
 0  0  0 

 -1.000000e+00  1.626715e-07  0 
 1.626715e-07  1.000000e+00  0 
 0  0  0 

 -1.000000e+00  1.288828e-07  0 
 1.288828e-07  1.000000e+00  0 
 0  0  0 

 -1.000000e+00  2.729786e-07  0 
 2.729786e-07  1.000000e+00  0 
 0  0  0 

 -9.999992e-01  3.115603e-07  0 
 3.115603e-07  9.999998e-01  0 
 0  0  0 

 -1.000000e+00  -2.011825e-07  0 
 -2.011825e-07  1.000001e+00  0 
 0  0  0 

 -1.000000e+00  -5.781459e-07  0 
 -5.781459e-07  9.999980e-01  0 
 0  0  0 

 -9.999996e-01  -1.137968e-06  0 
 -1.137968e-06  1.000000e+00  0 
 0  0  0 

 -9.999992e-01  1.931234e-06  0 
 1.931234e-06  9.999994e-01  0 
 0  0  0 

 -1.000000e+00  -1.963173e-08  0 
 -1.963173e-08  1.000001e+00  0 
 0  0  0 

 -1.000000e+00  3.218541e-07  0 
 3.218541e-07  1.000000e+00  0 
 0  0  0 

 -1.000000e+00  -9.023082e-08  0 
 -9.023082e-08  1.000000e+00  0 
 0  0  0 

 -1.000000e+00  1.619849e-08  0 
 1.619849e-08  1.000000e+00  0 
 0  0  0 

 -9.999999e-01  -4.220622e-08  0 
 -4.220622e-08  1.000000e+00  0 
 0  0  0 

 -1.000003e+00  -5.304060e-06  0 
 -5.304060e-06  9.999963e-01  0 
 0  0  0 

 -9.999998e-01  -1.184195e-06  0 
 -1.184195e-06  1.000002e+00  0 
 0  0  0 

 -9.999995e-01  -1.287914e-06  0 
 -1.287914e-06  1.000000e+00  0 
 0  0  0 

 -9.999997e-01  -5.434339e-07  0 
 -5.434339e-07  1.000001e+00  0 
 0  0  0 

 -9.999992e-01  -1.788178e-06  0 
 -1.788178e-06  1.000001e+00  0 
 0  0  0 

 -1.000000e+00  -3.814682e-08  0 
 -3.814682e-08  1.000001e+00  0 
 0  0  0 

 -9.999991e-01  -6.021415e-08  0 
 -6.021415e-08  9.999997e-01  0 
 0  0  0 

 -9.999994e-01  -6.563717e-07  0 
 -6.563717e-07  9.999995e-01  0 
 0  0  0 

 -9.999996e-01  2.310396e-07  0 
 2.310396e-07  9.999997e-01  0 
 0  0  0 

 -9.999989e-01  -9.158411e-07  0 
 -9.158411e-07  9.999996e-01  0 
 0  0  0 

 -1.000000e+00  8.275199e-08  0 