# vtk DataFile Version 3.1
this is an vtk file created by FEMAC
ASCII
DATASET UNSTRUCTURED_GRID
POINTS 267 FLOAT
0.000000 0.000000 0.000000
0.000000 1.000000 0.000000
2.000000 0.000000 0.000000
2.000000 1.000000 0.000000
0.000000 0.100000 0.000000
0.000000 0.200000 0.000000
0.000000 0.300000 0.000000
0.000000 0.400000 0.000000
0.000000 0.500000 0.000000
0.000000 0.600000 0.000000
0.000000 0.700000 0.000000
0.000000 0.800000 0.000000
0.000000 0.900000 0.000000
2.000000 0.100000 0.000000
2.000000 0.200000 0.000000
2.000000 0.300000 0.000000
2.000000 0.400000 0.000000
2.000000 0.500000 0.000000
2.000000 0.600000 0.000000
2.000000 0.700000 0.000000
2.000000 0.800000 0.000000
2.000000 0.900000 0.000000
0.100000 0.000000 0.000000
0.200000 0.000000 0.000000
0.300000 0.000000 0.000000
0.400000 0.000000 0.000000
0.500000 0.000000 0.000000
0.600000 0.000000 0.000000
0.700000 0.000000 0.000000
0.800000 0.000000 0.000000
0.900000 0.000000 0.000000
1.000000 0.000000 0.000000
1.100000 0.000000 0.000000
1.200000 0.000000 0.000000
1.300000 0.000000 0.000000
1.400000 0.000000 0.000000
1.500000 0.000000 0.000000
1.600000 0.000000 0.000000
1.700000 0.000000 0.000000
1.800000 0.000000 0.000000
1.900000 0.000000 0.000000
0.100000 1.000000 0.000000
0.200000 1.000000 0.000000
0.300000 1.000000 0.000000
0.400000 1.000000 0.000000
0.500000 1.000000 0.000000
0.600000 1.000000 0.000000
0.700000 1.000000 0.000000
0.800000 1.000000 0.000000
0.900000 1.000000 0.000000
1.000000 1.000000 0.000000
1.100000 1.000000 0.000000
1.200000 1.000000 0.000000
1.300000 1.000000 0.000000
1.400000 1.000000 0.000000
1.500000 1.000000 0.000000
1.600000 1.000000 0.000000
1.700000 1.000000 0.000000
1.800000 1.000000 0.000000
1.900000 1.000000 0.000000
0.368975 0.473192 0.000000
0.761229 0.500083 0.000000
1.314544 0.533627 0.000000
1.411400 0.484352 0.000000
1.208411 0.481204 0.000000
1.124681 0.486741 0.000000
1.690504 0.306242 0.000000
0.262551 0.186228 0.000000
0.208710 0.846196 0.000000
1.907977 0.751443 0.000000
1.916516 0.185634 0.000000
0.150805 0.078689 0.000000
0.418378 0.275086 0.000000
0.912990 0.785238 0.000000
0.796284 0.302439 0.000000
0.735549 0.209215 0.000000
1.182220 0.728966 0.000000
1.204288 0.278543 0.000000
1.408130 0.248419 0.000000
1.114862 0.780741 0.000000
1.134197 0.209598 0.000000
0.658961 0.219617 0.000000
1.278942 0.731096 0.000000
1.289562 0.211732 0.000000
1.764880 0.505088 0.000000
0.281585 0.661748 0.000000
0.166555 0.505516 0.000000
1.567103 0.157568 0.000000
1.588987 0.838877 0.000000
0.354893 0.110295 0.000000
0.264465 0.350987 0.000000
1.693092 0.882839 0.000000
1.739682 0.095407 0.000000
1.676461 0.577534 0.000000
1.701699 0.401559 0.000000
0.131326 0.312579 0.000000
0.094601 0.847208 0.000000
0.240465 0.092912 0.000000
0.075807 0.648449 0.000000
0.252352 0.762951 0.000000
0.093107 0.157838 0.000000
1.827347 0.161850 0.000000
0.254790 0.932420 0.000000
1.937676 0.267177 0.000000
1.913740 0.848154 0.000000
0.149864 0.927913 0.000000
0.393251 0.654821 0.000000
0.460382 0.177748 0.000000
1.321709 0.636185 0.000000
0.547654 0.090918 0.000000
0.886137 0.370499 0.000000
0.919625 0.580176 0.000000
0.727430 0.588462 0.000000
1.303031 0.094760 0.000000
0.720497 0.905395 0.000000
0.671690 0.108199 0.000000
0.885229 0.886512 0.000000
0.876918 0.147596 0.000000
0.780943 0.127056 0.000000
0.973854 0.872805 0.000000
0.974436 0.154855 0.000000
1.019699 0.646236 0.000000
1.221730 0.642084 0.000000
1.203916 0.374901 0.000000
1.082226 0.855861 0.000000
1.080760 0.128842 0.000000
1.201896 0.140968 0.000000
1.112504 0.613930 0.000000
1.108495 0.411714 0.000000
0.419311 0.382189 0.000000
1.393709 0.409839 0.000000
1.356104 0.898605 0.000000
1.872017 0.479201 0.000000
0.397404 0.854615 0.000000
1.501210 0.864398 0.000000
1.521416 0.267090 0.000000
1.490364 0.095262 0.000000
0.470706 0.766330 0.000000
0.143927 0.398827 0.000000
0.139693 0.598332 0.000000
0.313088 0.408029 0.000000
1.488494 0.422293 0.000000
1.819955 0.087479 0.000000
0.264844 0.493670 0.000000
1.628269 0.246276 0.000000
0.171576 0.239901 0.000000
1.899985 0.334072 0.000000
0.075988 0.455083 0.000000
0.500050 0.292927 0.000000
0.225486 0.411224 0.000000
1.661062 0.157021 0.000000
0.338140 0.320457 0.000000
1.894831 0.076423 0.000000
0.345707 0.224542 0.000000
0.082842 0.743009 0.000000
0.223353 0.586283 0.000000
0.068660 0.359390 0.000000
0.323902 0.568645 0.000000
1.695804 0.771569 0.000000
0.077445 0.261618 0.000000
1.384257 0.730548 0.000000
1.645606 0.509048 0.000000
1.447002 0.340225 0.000000
1.897903 0.641045 0.000000
1.473382 0.187567 0.000000
1.740147 0.219519 0.000000
0.200208 0.331085 0.000000
1.848369 0.242709 0.000000
0.263774 0.275533 0.000000
0.183701 0.151114 0.000000
0.170293 0.679241 0.000000
1.612421 0.332644 0.000000
0.362690 0.760430 0.000000
1.692587 0.664962 0.000000
0.151110 0.768164 0.000000
1.933923 0.934442 0.000000
0.068782 0.067305 0.000000
0.452586 0.075792 0.000000
0.605754 0.584343 0.000000
0.513324 0.555407 0.000000
1.203207 0.210549 0.000000
0.503945 0.640382 0.000000
0.572423 0.197502 0.000000
1.145030 0.065570 0.000000
0.567465 0.492317 0.000000
0.547256 0.394638 0.000000
0.730620 0.693565 0.000000
0.656421 0.645759 0.000000
1.233336 0.061492 0.000000
0.685390 0.796273 0.000000
0.760528 0.059148 0.000000
0.842998 0.062434 0.000000
0.597406 0.708022 0.000000
1.144238 0.917345 0.000000
1.419647 0.582434 0.000000
0.651276 0.382861 0.000000
0.930152 0.690142 0.000000
0.425806 0.560587 0.000000
1.394078 0.139623 0.000000
0.816142 0.216247 0.000000
1.298878 0.815956 0.000000
0.605293 0.298303 0.000000
0.800838 0.822027 0.000000
1.316586 0.328812 0.000000
0.667342 0.485567 0.000000
1.089462 0.716076 0.000000
1.788437 0.318434 0.000000
0.470483 0.484496 0.000000
0.608335 0.438846 0.000000
1.040662 0.467905 0.000000
0.756781 0.406419 0.000000
1.165759 0.561553 0.000000
1.071252 0.556630 0.000000
1.249354 0.907477 0.000000
0.701794 0.302272 0.000000
1.847775 0.556946 0.000000
1.106529 0.305601 0.000000
1.826521 0.406209 0.000000
1.192960 0.819635 0.000000
1.306202 0.436288 0.000000
1.425898 0.844623 0.000000
0.577251 0.826316 0.000000
0.305445 0.849458 0.000000
1.481840 0.666162 0.000000
0.600992 0.928123 0.000000
0.960351 0.938427 0.000000
0.938839 0.063039 0.000000
1.039829 0.064115 0.000000
0.076341 0.551230 0.000000
1.022844 0.246886 0.000000
1.017815 0.766204 0.000000
1.042674 0.932818 0.000000
0.998760 0.540177 0.000000
0.943346 0.470597 0.000000
1.919705 0.423896 0.000000
1.582321 0.608275 0.000000
1.936134 0.579455 0.000000
1.582057 0.719785 0.000000
1.490313 0.780040 0.000000
1.786119 0.605583 0.000000
0.903918 0.249756 0.000000
1.608305 0.072068 0.000000
0.832187 0.731583 0.000000
1.518207 0.517537 0.000000
1.463157 0.922800 0.000000
1.536637 0.357446 0.000000
1.549028 0.927292 0.000000
0.821910 0.558787 0.000000
0.068893 0.935024 0.000000
0.468986 0.901096 0.000000
1.248688 0.571282 0.000000
1.008953 0.368996 0.000000
0.842566 0.484735 0.000000
0.354438 0.922931 0.000000
1.584138 0.424715 0.000000
1.627923 0.931588 0.000000
1.796584 0.711022 0.000000
1.769625 0.917211 0.000000
1.500504 0.593602 0.000000
0.955463 0.309034 0.000000
1.401863 0.653832 0.000000
0.822008 0.923571 0.000000
1.854750 0.919654 0.000000
0.759822 0.758047 0.000000
1.804510 0.828842 0.000000
0.826987 0.640453 0.000000
0.646033 0.864027 0.000000
CELLS 472 1888 
3 71 23 22
3 69 20 19
3 13 70 14
3 97 23 71
3 43 102  42
3 103  15  14
3 20 104  21
3 105  68  96
3 12 96 11
3 70 103  14
3 24 89 25
3 68 105 102
3 105  41  42
3 102 105  42
3 97 24 23
3 24 97 89
3 97 67 89
3 92 39 38
3 98  9 10
3 100   4   5
3 69 104  20
3 63 141 130
3 142  39  92
3 101 142  92
3 143  60 140
3 144  87 135
3 72 148 107
3 86 149 138
3 90 149 140
3 72 153 151
3 96 154  11
3 155  86 139
3 7 156   6
3 95 156 138
3 159   5   6
3 5 159 100
3 161  84  94
3 84 161  93
3 78 162 135
3 87 164 135
3 164  78 135
3 95 166 145
3 166  95 138
3 168  67 145
3 168  90 151
3 169  67  97
3 169 100 145
3 67 169 145
3 170  98 154
3 85 172 106
3 174  96  68
3 99 174  68
3 96 174 154
3 21 175   3
3 175  59   3
3 4 176   0
3 22 176  71
3 176  22   0
3 104 175  21
3 143 157  60
3 155 143  86
3 139  98 170
3 71 169  97
3 71 100 169
3 145 159  95
3 145 100 159
3 146 103 167
3 100 176   4
3 100  71 176
3 156 159   6
3 156  95 159
3 129 148  72
3 136 164  87
3 140 151  90
3 166 149  90
3 138 149 166
3 143 149  86
3 143 140 149
3 144 150  87
3 168 166  90
3 145 166 168
3 168 153  67
3 151 153 168
3 170 174  99
3 170 154 174
3 2  40 152
3 152  70  13
3 2 152  13
3 73 116 119
3 165 167 101
3 16  15 146
3 15 103 146
3 115  75 118
3 147   7   8
3 147 156   7
3 147  86 138
3 147 138 156
3 26 109  27
3 27 115  28
3 27 109 115
3 75 115  81
3 54 131  53
3 83 113 126
3 125  80 126
3 163  19  18
3 19 163  69
3 142 101 152
3 128  65  64
3 64 123 128
3 122  76  82
3 82 108 122
3 160 108  82
3 101 167  70
3 101  70 152
3 70 167 103
3 10  11 154
3 98  10 154
3 144  66 165
3 92 165 101
3 92 150 165
3 144 165 150
3 66 171  94
3 144 171  66
3 144 135 171
3 91 158  88
3 85 157 155
3 143 155 157
3 157  85 106
3 140  60 129
3 72 151 129
3 140 129 151
3 153  72 107
3 89 153 107
3 153  89  67
3 99 172  85
3 142  40  39
3 152  40 142
3 26 177 109
3 177 107 109
3 180  77  83
3 180 126  80
3 126 180  83
3 77 180  80
3 181 106 137
3 182  81 115
3 109 182 115
3 32 183  33
3 126 183 125
3 112 187 186
3 187 112 178
3 188  34  33
3 188 126 113
3 34 188 113
3 28 190  29
3 118 190 115
3 190  28 115
3 191  30  29
3 191 118 117
3 193  51  52
3 194  63  62
3 108 194  62
3 157 197  60
3 78 198  83
3 198 113  83
3 74 199  75
3 199 118  75
3 82 200 160
3 203  83  77
3 205 127 121
3 165 206 167
3 206 165  66
3 129 207 185
3 207 129  60
3 128 209  65
3 127 212 121
3 213 131 200
3 75 214  74
3 80 216  77
3 132 217  84
3 82 218 200
3 224  45  46
3 225  49  50
3 225 119 116
3 30 226  31
3 120 226 117
3 31 227  32
3 125 227 120
3 98 228   9
3 228  98 139
3 120 229 125
3 230 119 124
3 119 230  73
3 231  50  51
3 231 124 119
3 232 121 212
3 197 207  60
3 164 198  78
3 191 226  30
3 191 117 226
3 190 191  29
3 190 118 191
3 231 225  50
3 119 225 231
3 226 227  31
3 226 120 227
3 193 231  51
3 193 124 231
3 227 183  32
3 125 183 227
3 183 188  33
3 183 126 188
3 80 125 229
3 124  79 230
3 228   8   9
3 147   8 228
3 86 228 139
3 86 147 228
3 216 123  77
3 128 123 216
3 123 203  77
3 217  94  84
3 179 178 184
3 185 184 208
3 186 187 192
3 204 195 208
3 213 200 218
3 76 218  82
3 218  76  79
3 124 218  79
3 205  79  76
3 177  25  89
3 25 177  26
3 107 177  89
3 215 132  84
3 172 137 106
3 133 137 172
3 222 133 172
3 81 214  75
3 81 201 214
3 195 214 201
3 219  64  62
3 64 219 123
3 141 162 130
3 210 204  61
3 121 232 111
3 111 196 121
3 114 202 189
3 106 197 157
3 181 197 106
3 179 197 181
3 118 199 117
3 73 202 116
3 211  64  65
3 211 127 122
3 127 211 212
3 212 211  65
3 53 213  52
3 213  53 131
3 213 193  52
3 182 201  81
3 107 182 109
3 182 107 148
3 182 148 201
3 170  99  85
3 155 170  85
3 170 155 139
3 137 221 192
3 137 192 181
3 221 189 192
3 203  78  83
3 203 162  78
3 130 162 203
3 127  76 122
3 127 205  76
3 234  16 146
3 217 234 146
3 236 163  18
3 163 236 215
3 237 158 173
3 158 237  88
3 93 239  84
3 239 215  84
3 240  74 110
3 196 242  73
3 244  54  55
3 162 245 135
3 245 171 135
3 245 162 141
3 248  12   1
3 41 248   1
3 12 248  96
3 45 249  44
3 62 250 108
3 122 250 211
3 250 122 108
3 233 251 110
3 199  74 240
3 224 249  45
3 64 250  62
3 64 211 250
3 173 235 237
3 105 248  41
3 105  96 248
3 234  17  16
3 132 234 217
3 54 244 131
3 220 244 134
3 244 220 131
3 38 241  92
3 37 241  38
3 241 150  92
3 36 241  37
3 87 241 136
3 241  87 150
3 36 136 241
3 209 128 251
3 128 216 251
3 251 233 209
3 134 246  88
3 246 134 244
3 56 246  55
3 246 244  55
3 123 219 203
3 220 238 160
3 134 238 220
3 238 134  88
3 237 238  88
3 179 184 207
3 207 197 179
3 185 207 184
3 112 247  61
3 102 222  68
3 222  99  68
3 99 222 172
3 110  74 210
3 214 210  74
3 204 210 195
3 195 210 214
3 193 218 124
3 213 218 193
3 234 132  17
3 17 236  18
3 93 161 235
3 243 235 161
3 173  93 235
3 196  73 230
3 79 205 230
3 230 121 196
3 230 205 121
3 136 198 164
3 206  66  94
3 206  94 217
3 206 217 146
3 146 167 206
3 181 178 179
3 181 192 178
3 192 187 178
3 63 219  62
3 219  63 130
3 130 203 219
3 160 238 223
3 209 212  65
3 209 232 212
3 229 216  80
3 216 229 251
3 189 186 192
3 220 200 131
3 160 200 220
3 132 236  17
3 132 215 236
3 44 253  43
3 222 253 133
3 254 161  94
3 171 254  94
3 249 253  44
3 249 133 253
3 254 245 141
3 171 245 254
3 243 254 141
3 243 161 254
3 247 111 252
3 253 102  43
3 222 102 253
3 61 252 210
3 252  61 247
3 252 110 210
3 47 224  46
3 47 114 224
3 173 239  93
3 215 239 163
3 232 233 111
3 252 111 233
3 110 252 233
3 233 232 209
3 235 223 237
3 238 237 223
3 204 178 112
3 204 112  61
3 204 184 178
3 204 208 184
3 229 120 240
3 117 240 120
3 199 240 117
3 133 249 137
3 221 137 249
3 224 221 249
3 129 185 148
3 185 201 148
3 185 208 195
3 195 201 185
3 63 194 243
3 63 243 141
3 56 255 246
3 91 255  57
3 255  56  57
3 256 163 239
3 163 256  69
3 223 258 194
3 243 258 235
3 258 243 194
3 258 223 235
3 259 240 110
3 259 251 229
3 251 259 110
3 240 259 229
3 260 108 160
3 260 223 194
3 223 260 160
3 108 260 194
3 88 255  91
3 88 246 255
3 198  35 113
3 35 198 136
3 136  36  35
3 34 113  35
3 48 114  47
3 202  73 242
3 257  57  58
3 91  57 257
3 261 114  48
3 261 116 202
3 114 261 202
3 262 257  58
3 263 186 189
3 263 202 242
3 202 263 189
3 186 263 242
3 175 104 262
3 59 262  58
3 59 175 262
3 49 261  48
3 116  49 225
3 49 116 261
3 111 265 196
3 265 242 196
3 189 266 114
3 224 266 221
3 266 224 114
3 266 189 221
3 247 265 111
3 264 104  69
3 262 104 264
3 264 158  91
3 257 264  91
3 264 257 262
3 265 247 112
3 265 186 242
3 186 265 112
3 256 173 158
3 158 264 256
3 256 264  69
3 256 239 173
CELL_TYPES 472
5 5 5 5 5 5 5 5 5 5 5 5 5 5 5 5 5 5 5 5 5 5 5 5 5 5 5 5 5 5 5 5 5 5 5 5 5 5 5 5 5 5 5 5 5 5 5 5 5 5 5 5 5 5 5 5 5 5 5 5 5 5 5 5 5 5 5 5 5 5 5 5 5 5 5 5 5 5 5 5 5 5 5 5 5 5 5 5 5 5 5 5 5 5 5 5 5 5 5 5 5 5 5 5 5 5 5 5 5 5 5 5 5 5 5 5 5 5 5 5 5 5 5 5 5 5 5 5 5 5 5 5 5 5 5 5 5 5 5 5 5 5 5 5 5 5 5 5 5 5 5 5 5 5 5 5 5 5 5 5 5 5 5 5 5 5 5 5 5 5 5 5 5 5 5 5 5 5 5 5 5 5 5 5 5 5 5 5 5 5 5 5 5 5 5 5 5 5 5 5 5 5 5 5 5 5 5 5 5 5 5 5 5 5 5 5 5 5 5 5 5 5 5 5 5 5 5 5 5 5 5 5 5 5 5 5 5 5 5 5 5 5 5 5 5 5 5 5 5 5 5 5 5 5 5 5 5 5 5 5 5 5 5 5 5 5 5 5 5 5 5 5 5 5 5 5 5 5 5 5 5 5 5 5 5 5 5 5 5 5 5 5 5 5 5 5 5 5 5 5 5 5 5 5 5 5 5 5 5 5 5 5 5 5 5 5 5 5 5 5 5 5 5 5 5 5 5 5 5 5 5 5 5 5 5 5 5 5 5 5 5 5 5 5 5 5 5 5 5 5 5 5 5 5 5 5 5 5 5 5 5 5 5 5 5 5 5 5 5 5 5 5 5 5 5 5 5 5 5 5 5 5 5 5 5 5 5 5 5 5 5 5 5 5 5 5 5 5 5 5 5 5 5 5 5 5 5 5 5 5 5 5 5 5 5 5 5 5 5 5 5 5 5 5 5 5 5 5 5 5 5 5 5 5 5 5 5 5 5 5 5 5 5 5 5 5 5 5 5 5 5 5 5 5 5 5 5 5 5 5 5 5 5 5 5 5 5 5 5 5 5 5 
POINT_DATA 267
SCALARS CONDID_1 FLOAT
LOOKUP_TABLE default
 1 
 0 
 0 
 0 
 0 
 0 
 0 
 0 
 0 
 0 
 0 
 0 
 0 
 0 
 0 
 0 
 0 
 0 
 0 
 0 
 0 
 0 
 0 
 0 
 0 
 0 
 0 
 0 
 0 
 0 
 0 
 0 
 0 
 0 
 0 
 0 
 0 
 0 
 0 
 0 
 0 
 0 
 0 
 0 
 0 
 0 
 0 
 0 
 0 
 0 
 0 
 0 
 0 
 0 
 0 
 0 
 0 
 0 
 0 
 0 
 0 
 0 
 0 
 0 
 0 
 0 
 0 
 0 
 0 
 0 
 0 
 0 
 0 
 0 
 0 
 0 
 0 
 0 
 0 
 0 
 0 
 0 
 0 
 0 
 0 
 0 
 0 
 0 
 0 
 0 
 0 
 0 
 0 
 0 
 0 
 0 
 0 
 0 
 0 
 0 
 0 
 0 
 0 
 0 
 0 
 0 
 0 
 0 
 0 
 0 
 0 
 0 
 0 
 0 
 0 
 0 
 0 
 0 
 0 
 0 
 0 
 0 
 0 
 0 
 0 
 0 
 0 
 0 
 0 
 0 
 0 
 0 
 0 
 0 
 0 
 0 
 0 
 0 
 0 
 0 
 0 
 0 
 0 
 0 
 0 
 0 
 0 
 0 
 0 
 0 
 0 
 0 
 0 
 0 
 0 
 0 
 0 
 0 
 0 
 0 
 0 
 0 
 0 
 0 
 0 
 0 
 0 
 0 
 0 
 0 
 0 
 0 
 0 
 0 
 0 
 0 
 0 
 0 
 0 
 0 
 0 
 0 
 0 
 0 
 0 
 0 
 0 
 0 
 0 
 0 
 0 
 0 
 0 
 0 
 0 
 0 
 0 
 0 
 0 
 0 
 0 
 0 
 0 
 0 
 0 
 0 
 0 
 0 
 0 
 0 
 0 
 0 
 0 
 0 
 0 
 0 
 0 
 0 
 0 
 0 
 0 
 0 
 0 
 0 
 0 
 0 
 0 
 0 
 0 
 0 
 0 
 0 
 0 
 0 
 0 
 0 
 0 
 0 
 0 
 0 
 0 
 0 
 0 
 0 
 0 
 0 
 0 
 0 
 0 
 0 
 0 
 0 
 0 
 0 
 0 
 0 
 0 
 0 
 0 
 0 
 0 
 0 
 0 
 0 
 0 
 0 
 0 
SCALARS CONDID_2 FLOAT
LOOKUP_TABLE default
 1 
 1 
 0 
 0 
 1 
 1 
 1 
 1 
 1 
 1 
 1 
 1 
 1 
 0 
 0 
 0 
 0 
 0 
 0 
 0 
 0 
 0 
 0 
 0 
 0 
 0 
 0 
 0 
 0 
 0 
 0 
 0 
 0 
 0 
 0 
 0 
 0 
 0 
 0 
 0 
 0 
 0 
 0 
 0 
 0 
 0 
 0 
 0 
 0 
 0 
 0 
 0 
 0 
 0 
 0 
 0 
 0 
 0 
 0 
 0 
 0 
 0 
 0 
 0 
 0 
 0 
 0 
 0 
 0 
 0 
 0 
 0 
 0 
 0 
 0 
 0 
 0 
 0 
 0 
 0 
 0 
 0 
 0 
 0 
 0 
 0 
 0 
 0 
 0 
 0 
 0 
 0 
 0 
 0 
 0 
 0 
 0 
 0 
 0 
 0 
 0 
 0 
 0 
 0 
 0 
 0 
 0 
 0 
 0 
 0 
 0 
 0 
 0 
 0 
 0 
 0 
 0 
 0 
 0 
 0 
 0 
 0 
 0 
 0 
 0 
 0 
 0 
 0 
 0 
 0 
 0 
 0 
 0 
 0 
 0 
 0 
 0 
 0 
 0 
 0 
 0 
 0 
 0 
 0 
 0 
 0 
 0 
 0 
 0 
 0 
 0 
 0 
 0 
 0 
 0 
 0 
 0 
 0 
 0 
 0 
 0 
 0 
 0 
 0 
 0 
 0 
 0 
 0 
 0 
 0 
 0 
 0 
 0 
 0 
 0 
 0 
 0 
 0 
 0 
 0 
 0 
 0 
 0 
 0 
 0 
 0 
 0 
 0 
 0 
 0 
 0 
 0 
 0 
 0 
 0 
 0 
 0 
 0 
 0 
 0 
 0 
 0 
 0 
 0 
 0 
 0 
 0 
 0 
 0 
 0 
 0 
 0 
 0 
 0 
 0 
 0 
 0 
 0 
 0 
 0 
 0 
 0 
 0 
 0 
 0 
 0 
 0 
 0 
 0 
 0 
 0 
 0 
 0 
 0 
 0 
 0 
 0 
 0 
 0 
 0 
 0 
 0 
 0 
 0 
 0 
 0 
 0 
 0 
 0 
 0 
 0 
 0 
 0 
 0 
 0 
 0 
 0 
 0 
 0 
 0 
 0 
 0 
 0 
 0 
 0 
 0 
 0 
SCALARS CONDID_3 FLOAT
LOOKUP_TABLE default
 0 
 0 
 1 
 1 
 0 
 0 
 0 
 0 
 0 
 0 
 0 
 0 
 0 
 1 
 1 
 1 
 1 
 1 
 1 
 1 
 1 
 1 
 0 
 0 
 0 
 0 
 0 
 0 
 0 
 0 
 0 
 0 
 0 
 0 
 0 
 0 
 0 
 0 
 0 
 0 
 0 
 0 
 0 
 0 
 0 
 0 
 0 
 0 
 0 
 0 
 0 
 0 
 0 
 0 
 0 
 0 
 0 
 0 
 0 
 0 
 0 
 0 
 0 
 0 
 0 
 0 
 0 
 0 
 0 
 0 
 0 
 0 
 0 
 0 
 0 
 0 
 0 
 0 
 0 
 0 
 0 
 0 
 0 
 0 
 0 
 0 
 0 
 0 
 0 
 0 
 0 
 0 
 0 
 0 
 0 
 0 
 0 
 0 
 0 
 0 
 0 
 0 
 0 
 0 
 0 
 0 
 0 
 0 
 0 
 0 
 0 
 0 
 0 
 0 
 0 
 0 
 0 
 0 
 0 
 0 
 0 
 0 
 0 
 0 
 0 
 0 
 0 
 0 
 0 
 0 
 0 
 0 
 0 
 0 
 0 
 0 
 0 
 0 
 0 
 0 
 0 
 0 
 0 
 0 
 0 
 0 
 0 
 0 
 0 
 0 
 0 
 0 
 0 
 0 
 0 
 0 
 0 
 0 
 0 
 0 
 0 
 0 
 0 
 0 
 0 
 0 
 0 
 0 
 0 
 0 
 0 
 0 
 0 
 0 
 0 
 0 
 0 
 0 
 0 
 0 
 0 
 0 
 0 
 0 
 0 
 0 
 0 
 0 
 0 
 0 
 0 
 0 
 0 
 0 
 0 
 0 
 0 
 0 
 0 
 0 
 0 
 0 
 0 
 0 
 0 
 0 
 0 
 0 
 0 
 0 
 0 
 0 
 0 
 0 
 0 
 0 
 0 
 0 
 0 
 0 
 0 
 0 
 0 
 0 
 0 
 0 
 0 
 0 
 0 
 0 
 0 
 0 
 0 
 0 
 0 
 0 
 0 
 0 
 0 
 0 
 0 
 0 
 0 
 0 
 0 
 0 
 0 
 0 
 0 
 0 
 0 
 0 
 0 
 0 
 0 
 0 
 0 
 0 
 0 
 0 
 0 
 0 
 0 
 0 
 0 
 0 
 0 
VECTORS displacement FLOAT
 0  0  0 
 0  6.500000e-03  0 
 -1.300000e-02  2.673248e-09  0 
 -1.300000e-02  6.500002e-03  0 
 0  6.500000e-04  0 
 0  1.300000e-03  0 
 0  1.950000e-03  0 
 2.111910e-16  2.600000e-03  0 
 -1.357473e-16  3.250000e-03  0 
 5.067193e-16  3.900000e-03  0 
 -1.484736e-15  4.550000e-03  0 
 1.092766e-15  5.200000e-03  0 
 -6.757671e-16  5.850000e-03  0 
 -1.300000e-02  6.500024e-04  0 
 -1.300000e-02  1.300002e-03  0 
 -1.300000e-02  1.950002e-03  0 
 -1.300000e-02  2.600002e-03  0 
 -1.300000e-02  3.250003e-03  0 
 -1.300000e-02  3.900002e-03  0 
 -1.300000e-02  4.550002e-03  0 
 -1.300000e-02  5.200002e-03  0 
 -1.300000e-02  5.850002e-03  0 
 -6.500000e-04  5.323552e-12  0 
 -1.300000e-03  1.041187e-11  0 
 -1.950000e-03  2.707371e-11  0 
 -2.600000e-03  1.357007e-10  0 
 -3.250000e-03  -6.589028e-10  0 
 -3.900000e-03  -1.598398e-10  0 
 -4.550000e-03  3.474167e-10  0 
 -5.200000e-03  5.828285e-10  0 
 -5.849999e-03  5.562314e-10  0 
 -6.500000e-03  7.639820e-10  0 
 -7.149999e-03  5.491944e-10  0 
 -7.799999e-03  6.148592e-10  0 
 -8.449999e-03  7.655227e-10  0 
 -9.099999e-03  7.903357e-10  0 
 -9.749999e-03  1.194977e-09  0 
 -1.040000e-02  1.724117e-09  0 
 -1.105000e-02  2.718500e-09  0 
 -1.170000e-02  8.775863e-10  0 
 -1.235000e-02  1.983262e-09  0 
 -6.499999e-04  6.500000e-03  0 
 -1.300000e-03  6.500000e-03  0 
 -1.950001e-03  6.500000e-03  0 
 -2.600000e-03  6.500000e-03  0 
 -3.250000e-03  6.500000e-03  0 
 -3.900000e-03  6.500000e-03  0 
 -4.550000e-03  6.500000e-03  0 
 -5.200000e-03  6.500000e-03  0 
 -5.850000e-03  6.500000e-03  0 
 -6.500000e-03  6.500000e-03  0 
 -7.150001e-03  6.500000e-03  0 
 -7.800000e-03  6.500000e-03  0 
 -8.450001e-03  6.499999e-03  0 
 -9.100001e-03  6.500000e-03  0 
 -9.750001e-03  6.500001e-03  0 
 -1.040000e-02  6.500001e-03  0 
 -1.105000e-02  6.500001e-03  0 
 -1.170000e-02  6.500001e-03  0 
 -1.235000e-02  6.500002e-03  0 
 -2.398339e-03  3.075748e-03  0 
 -4.947988e-03  3.250539e-03  0 
 -8.544537e-03  3.468577e-03  0 
 -9.174100e-03  3.148286e-03  0 
 -7.854671e-03  3.127828e-03  0 
 -7.310426e-03  3.163815e-03  0 
 -1.098827e-02  1.990578e-03  0 
 -1.706579e-03  1.210484e-03  0 
 -1.356615e-03  5.500276e-03  0 
 -1.240185e-02  4.884378e-03  0 
 -1.245735e-02  1.206625e-03  0 
 -9.802302e-04  5.114790e-04  0 
 -2.719455e-03  1.788060e-03  0 
 -5.934432e-03  5.104048e-03  0 
 -5.175844e-03  1.965851e-03  0 
 -4.781071e-03  1.359897e-03  0 
 -7.684432e-03  4.738282e-03  0 
 -7.827874e-03  1.810531e-03  0 
 -9.152846e-03  1.614727e-03  0 
 -7.246602e-03  5.074820e-03  0 
 -7.372280e-03  1.362386e-03  0 
 -4.283246e-03  1.427510e-03  0 
 -8.313123e-03  4.752126e-03  0 
 -8.382151e-03  1.376257e-03  0 
 -1.147172e-02  3.283070e-03  0 
 -1.830305e-03  4.301360e-03  0 
 -1.082609e-03  3.285854e-03  0 
 -1.018617e-02  1.024195e-03  0 
 -1.032842e-02  5.452703e-03  0 
 -2.306807e-03  7.169151e-04  0 
 -1.719020e-03  2.281413e-03  0 
 -1.100510e-02  5.738456e-03  0 
 -1.130793e-02  6.201466e-04  0 
 -1.089700e-02  3.753972e-03  0 
 -1.106105e-02  2.610136e-03  0 
 -8.536219e-04  2.031765e-03  0 
 -6.149093e-04  5.506851e-03  0 
 -1.563023e-03  6.039272e-04  0 
 -4.927460e-04  4.214918e-03  0 
 -1.640287e-03  4.959181e-03  0 
 -6.051962e-04  1.025948e-03  0 
 -1.187775e-02  1.052025e-03  0 
 -1.656137e-03  6.060728e-03  0 
 -1.259489e-02  1.736650e-03  0 
 -1.243931e-02  5.513002e-03  0 
 -9.741130e-04  6.031437e-03  0 
 -2.556131e-03  4.256336e-03  0 
 -2.992480e-03  1.155362e-03  0 
 -8.591109e-03  4.135203e-03  0 
 -3.559752e-03  5.909696e-04  0 
 -5.759892e-03  2.408246e-03  0 
 -5.977560e-03  3.771144e-03  0 
 -4.728297e-03  3.825005e-03  0 
 -8.469703e-03  6.159432e-04  0 
 -4.683233e-03  5.885068e-03  0 
 -4.365984e-03  7.032916e-04  0 
 -5.753987e-03  5.762326e-03  0 
 -5.699963e-03  9.593740e-04  0 
 -5.076132e-03  8.258639e-04  0 
 -6.330048e-03  5.673231e-03  0 
 -6.333833e-03  1.006560e-03  0 
 -6.628044e-03  4.200531e-03  0 
 -7.941246e-03  4.173548e-03  0 
 -7.825457e-03  2.436861e-03  0 
 -7.034471e-03  5.563097e-03  0 
 -7.024941e-03  8.374766e-04  0 
 -7.812321e-03  9.162944e-04  0 
 -7.231278e-03  3.990547e-03  0 
 -7.205214e-03  2.676143e-03  0 
 -2.725521e-03  2.484224e-03  0 
 -9.059106e-03  2.663957e-03  0 
 -8.814676e-03  5.840934e-03  0 
 -1.216811e-02  3.114808e-03  0 
 -2.583128e-03  5.554998e-03  0 
 -9.757862e-03  5.618591e-03  0 
 -9.889202e-03  1.736084e-03  0 
 -9.687367e-03  6.192046e-04  0 
 -3.059586e-03  4.981146e-03  0 
 -9.355229e-04  2.592376e-03  0 
 -9.080067e-04  3.889160e-03  0 
 -2.035075e-03  2.652191e-03  0 
 -9.675211e-03  2.744904e-03  0 
 -1.182970e-02  5.686161e-04  0 
 -1.721486e-03  3.208854e-03  0 
 -1.058375e-02  1.600793e-03  0 
 -1.115246e-03  1.559358e-03  0 
 -1.234991e-02  2.171471e-03  0 
 -4.939250e-04  2.958038e-03  0 
 -3.250325e-03  1.904027e-03  0 
 -1.465656e-03  2.672954e-03  0 
 -1.079690e-02  1.020636e-03  0 
 -2.197910e-03  2.082971e-03  0 
 -1.231640e-02  4.967536e-04  0 
 -2.247093e-03  1.459525e-03  0 
 -5.384725e-04  4.829560e-03  0 
 -1.451794e-03  3.810838e-03  0 
 -4.462896e-04  2.336033e-03  0 
 -2.105362e-03  3.696193e-03  0 
 -1.102273e-02  5.015203e-03  0 
 -5.033923e-04  1.700517e-03  0 
 -8.997670e-03  4.748564e-03  0 
 -1.069644e-02  3.308810e-03  0 
 -9.405511e-03  2.211463e-03  0 
 -1.233637e-02  4.166794e-03  0 
 -9.576985e-03  1.219184e-03  0 
 -1.131095e-02  1.426875e-03  0 
 -1.301353e-03  2.152053e-03  0 
 -1.201440e-02  1.577611e-03  0 
 -1.714533e-03  1.790967e-03  0 
 -1.194055e-03  9.822392e-04  0 
 -1.106907e-03  4.415067e-03  0 
 -1.048073e-02  2.162186e-03  0 
 -2.357487e-03  4.942792e-03  0 
 -1.100181e-02  4.322256e-03  0 
 -9.822179e-04  4.993066e-03  0 
 -1.257050e-02  6.073877e-03  0 
 -4.470853e-04  4.374854e-04  0 
 -2.941808e-03  4.926494e-04  0 
 -3.937404e-03  3.798229e-03  0 
 -3.336608e-03  3.610143e-03  0 
 -7.820843e-03  1.368566e-03  0 
 -3.275642e-03  4.162481e-03  0 
 -3.720749e-03  1.283767e-03  0 
 -7.442692e-03  4.262077e-04  0 
 -3.688522e-03  3.200063e-03  0 
 -3.557165e-03  2.565149e-03  0 
 -4.749029e-03  4.508173e-03  0 
 -4.266739e-03  4.197435e-03  0 
 -8.016686e-03  3.997019e-04  0 
 -4.455034e-03  5.175774e-03  0 
 -4.943435e-03  3.844625e-04  0 
 -5.479489e-03  4.058196e-04  0 
 -3.883141e-03  4.602140e-03  0 
 -7.437547e-03  5.962745e-03  0 
 -9.227703e-03  3.785824e-03  0 
 -4.233296e-03  2.488597e-03  0 
 -6.045985e-03  4.485922e-03  0 
 -2.767737e-03  3.643816e-03  0 
 -9.061509e-03  9.075528e-04  0 
 -5.304925e-03  1.405606e-03  0 
 -8.442708e-03  5.303717e-03  0 
 -3.934406e-03  1.938968e-03  0 
 -5.205445e-03  5.343176e-03  0 
 -8.557808e-03  2.137276e-03  0 
 -4.337725e-03  3.156184e-03  0 
 -7.081501e-03  4.654491e-03  0 
 -1.162484e-02  2.069826e-03  0 
 -3.058143e-03  3.149222e-03  0 
 -3.954177e-03  2.852498e-03  0 
 -6.764301e-03  3.041385e-03  0 
 -4.919074e-03  2.641721e-03  0 
 -7.577433e-03  3.650096e-03  0 
 -6.963137e-03  3.618096e-03  0 
 -8.120804e-03  5.898598e-03  0 
 -4.561660e-03  1.964765e-03  0 
 -1.201054e-02  3.620150e-03  0 
 -7.192436e-03  1.986410e-03  0 
 -1.187239e-02  2.640358e-03  0 
 -7.754241e-03  5.327627e-03  0 
 -8.490311e-03  2.835874e-03  0 
 -9.268337e-03  5.490049e-03  0 
 -3.752134e-03  5.371052e-03  0 
 -1.985392e-03  5.521477e-03  0 
 -9.631959e-03  4.330056e-03  0 
 -3.906450e-03  6.032801e-03  0 
 -6.242284e-03  6.099775e-03  0 
 -6.102451e-03  4.097516e-04  0 
 -6.758891e-03  4.167464e-04  0 
 -4.962142e-04  3.582995e-03  0 
 -6.648485e-03  1.604761e-03  0 
 -6.615796e-03  4.980325e-03  0 
 -6.777383e-03  6.063315e-03  0 
 -6.491937e-03  3.511150e-03  0 
 -6.131746e-03  3.058881e-03  0 
 -1.247808e-02  2.755328e-03  0 
 -1.028509e-02  3.953789e-03  0 
 -1.258487e-02  3.766463e-03  0 
 -1.028337e-02  4.678602e-03  0 
 -9.687037e-03  5.070260e-03  0 
 -1.160977e-02  3.936296e-03  0 
 -5.875463e-03  1.623413e-03  0 
 -1.045398e-02  4.684435e-04  0 
 -5.409217e-03  4.755291e-03  0 
 -9.868343e-03  3.363987e-03  0 
 -9.510523e-03  5.998201e-03  0 
 -9.988137e-03  2.323402e-03  0 
 -1.006868e-02  6.027402e-03  0 
 -5.342417e-03  3.632116e-03  0 
 -4.478044e-04  6.077658e-03  0 
 -3.048408e-03  5.857124e-03  0 
 -8.116470e-03  3.713331e-03  0 
 -6.558197e-03  2.398474e-03  0 
 -5.476677e-03  3.150775e-03  0 
 -2.303844e-03  5.999056e-03  0 
 -1.029690e-02  2.760648e-03  0 
 -1.058150e-02  6.055323e-03  0 
 -1.167779e-02  4.621647e-03  0 
 -1.150257e-02  5.961870e-03  0 
 -9.753273e-03  3.858414e-03  0 
 -6.210511e-03  2.008723e-03  0 
 -9.112110e-03  4.249912e-03  0 
 -5.343053e-03  6.003214e-03  0 
 -1.205588e-02  5.977751e-03  0 
 -4.938844e-03  4.927304e-03  0 
 -1.172932e-02  5.387472e-03  0 
 -5.375417e-03  4.162942e-03  0 
 -4.199213e-03  5.616174e-03  0 
CELL_DATA 472
SCALARS MATID_1 FLOAT
LOOKUP_TABLE default
 1 
 1 
 1 
 1 
 1 
 1 
 1 
 1 
 1 
 1 
 1 
 1 
 1 
 1 
 1 
 1 
 1 
 1 
 1 
 1 
 1 
 1 
 1 
 1 
 1 
 1 
 1 
 1 
 1 
 1 
 1 
 1 
 1 
 1 
 1 
 1 
 1 
 1 
 1 
 1 
 1 
 1 
 1 
 1 
 1 
 1 
 1 
 1 
 1 
 1 
 1 
 1 
 1 
 1 
 1 
 1 
 1 
 1 
 1 
 1 
 1 
 1 
 1 
 1 
 1 
 1 
 1 
 1 
 1 
 1 
 1 
 1 
 1 
 1 
 1 
 1 
 1 
 1 
 1 
 1 
 1 
 1 
 1 
 1 
 1 
 1 
 1 
 1 
 1 
 1 
 1 
 1 
 1 
 1 
 1 
 1 
 1 
 1 
 1 
 1 
 1 
 1 
 1 
 1 
 1 
 1 
 1 
 1 
 1 
 1 
 1 
 1 
 1 
 1 
 1 
 1 
 1 
 1 
 1 
 1 
 1 
 1 
 1 
 1 
 1 
 1 
 1 
 1 
 1 
 1 
 1 
 1 
 1 
 1 
 1 
 1 
 1 
 1 
 1 
 1 
 1 
 1 
 1 
 1 
 1 
 1 
 1 
 1 
 1 
 1 
 1 
 1 
 1 
 1 
 1 
 1 
 1 
 1 
 1 
 1 
 1 
 1 
 1 
 1 
 1 
 1 
 1 
 1 
 1 
 1 
 1 
 1 
 1 
 1 
 1 
 1 
 1 
 1 
 1 
 1 
 1 
 1 
 1 
 1 
 1 
 1 
 1 
 1 
 1 
 1 
 1 
 1 
 1 
 1 
 1 
 1 
 1 
 1 
 1 
 1 
 1 
 1 
 1 
 1 
 1 
 1 
 1 
 1 
 1 
 1 
 1 
 1 
 1 
 1 
 1 
 1 
 1 
 1 
 1 
 1 
 1 
 1 
 1 
 1 
 1 
 1 
 1 
 1 
 1 
 1 
 1 
 1 
 1 
 1 
 1 
 1 
 1 
 1 
 1 
 1 
 1 
 1 
 1 
 1 
 1 
 1 
 1 
 1 
 1 
 1 
 1 
 1 
 1 
 1 
 1 
 1 
 1 
 1 
 1 
 1 
 1 
 1 
 1 
 1 
 1 
 1 
 1 
 1 
 1 
 1 
 1 
 1 
 1 
 1 
 1 
 1 
 1 
 1 
 1 
 1 
 1 
 1 
 1 
 1 
 1 
 1 
 1 
 1 
 1 
 1 
 1 
 1 
 1 
 1 
 1 
 1 
 1 
 1 
 1 
 1 
 1 
 1 
 1 
 1 
 1 
 1 
 1 
 1 
 1 
 1 
 1 
 1 
 1 
 1 
 1 
 1 
 1 
 1 
 1 
 1 
 1 
 1 
 1 
 1 
 1 
 1 
 1 
 1 
 1 
 1 
 1 
 1 
 1 
 1 
 1 
 1 
 1 
 1 
 1 
 1 
 1 
 1 
 1 
 1 
 1 
 1 
 1 
 1 
 1 
 1 
 1 
 1 
 1 
 1 
 1 
 1 
 1 
 1 
 1 
 1 
 1 
 1 
 1 
 1 
 1 
 1 
 1 
 1 
 1 
 1 
 1 
 1 
 1 
 1 
 1 
 1 
 1 
 1 
 1 
 1 
 1 
 1 
 1 
 1 
 1 
 1 
 1 
 1 
 1 
 1 
 1 
 1 
 1 
 1 
 1 
 1 
 1 
 1 
 1 
 1 
 1 
 1 
 1 
 1 
 1 
 1 
 1 
 1 
 1 
 1 
 1 
 1 
 1 
 1 
 1 
 1 
 1 
 1 
 1 
 1 
 1 
 1 
 1 
 1 
 1 
 1 
 1 
 1 
 1 
 1 
 1 
 1 
 1 
 1 
 1 
 1 
 1 
 1 
 1 
 1 
 1 
 1 
 1 
 1 
 1 
 1 
 1 
 1 
 1 
 1 
 1 
 1 
 1 
 1 
 1 
 1 
 1 
 1 
 1 
 1 
 1 
 1 
 1 
 1 
 1 
 1 
 1 
 1 
 1 
 1 
 1 
 1 
SCALARS SUB_ID FLOAT
LOOKUP_TABLE default
 1 
 7 
 6 
 1 
 2 
 6 
 7 
 2 
 2 
 6 
 1 
 2 
 2 
 2 
 1 
 1 
 1 
 5 
 2 
 1 
 7 
 6 
 6 
 6 
 2 
 5 
 1 
 1 
 1 
 1 
 2 
 2 
 1 
 1 
 1 
 1 
 6 
 6 
 5 
 5 
 5 
 1 
 1 
 1 
 1 
 1 
 1 
 1 
 2 
 2 
 2 
 2 
 2 
 7 
 7 
 1 
 1 
 1 
 7 
 2 
 2 
 2 
 1 
 1 
 1 
 1 
 6 
 1 
 1 
 1 
 1 
 1 
 5 
 1 
 1 
 1 
 1 
 1 
 5 
 1 
 1 
 1 
 1 
 2 
 2 
 6 
 6 
 6 
 4 
 6 
 6 
 6 
 3 
 2 
 1 
 1 
 1 
 3 
 3 
 3 
 3 
 7 
 5 
 5 
 6 
 7 
 6 
 3 
 5 
 4 
 4 
 7 
 6 
 6 
 6 
 2 
 2 
 6 
 6 
 6 
 6 
 6 
 6 
 6 
 7 
 2 
 2 
 2 
 2 
 1 
 1 
 1 
 1 
 1 
 2 
 6 
 6 
 1 
 1 
 5 
 5 
 5 
 5 
 2 
 3 
 3 
 5 
 5 
 3 
 3 
 5 
 5 
 5 
 3 
 3 
 3 
 3 
 3 
 4 
 6 
 7 
 2 
 5 
 5 
 3 
 3 
 7 
 5 
 4 
 6 
 6 
 1 
 2 
 3 
 3 
 7 
 3 
 5 
 6 
 4 
 4 
 4 
 4 
 5 
 5 
 5 
 5 
 2 
 2 
 5 
 4 
 4 
 4 
 4 
 3 
 2 
 5 
 5 
 5 
 3 
 3 
 4 
 4 
 5 
 5 
 4 
 4 
 5 
 5 
 5 
 5 
 5 
 4 
 2 
 2 
 2 
 2 
 5 
 5 
 5 
 6 
 2 
 1 
 3 
 1 
 4 
 4 
 4 
 4 
 4 
 1 
 1 
 1 
 6 
 2 
 2 
 2 
 3 
 3 
 3 
 5 
 5 
 6 
 3 
 3 
 3 
 4 
 2 
 2 
 2 
 3 
 4 
 3 
 4 
 3 
 3 
 7 
 7 
 4 
 3 
 1 
 1 
 1 
 2 
 2 
 2 
 4 
 2 
 4 
 5 
 5 
 5 
 4 
 4 
 6 
 6 
 6 
 6 
 7 
 7 
 6 
 6 
 3 
 4 
 7 