# vtk DataFile Version 3.1
this is an vtk file created by FEMAC
ASCII
DATASET UNSTRUCTURED_GRID
POINTS 12 FLOAT
4.500000 0.000000 0.000000
5.000000 0.000000 0.000000
4.500000 0.200000 0.000000
4.500000 0.400000 0.000000
4.500000 0.600000 0.000000
4.500000 0.800000 0.000000
4.500000 1.000000 0.000000
5.000000 0.200000 0.000000
5.000000 0.400000 0.000000
5.000000 0.600000 0.000000
5.000000 0.800000 0.000000
5.000000 1.000000 0.000000
CELLS 5 25 
4 0 1 7 2
4 2 7 8 3
4 3 8 9 4
4 4  9 10  5
4 5 10 11  6
CELL_TYPES 5
9 9 9 9 9 
POINT_DATA 12
VECTORS displacement_ITER1 FLOAT
 -4.959684e-03  -2.768430e-02  0 
 -5.256487e-03  -3.283714e-02  0 
 -3.002532e-03  -2.766825e-02  0 
 -9.760001e-04  -2.765347e-02  0 
 1.018308e-03  -2.765681e-02  0 
 3.043553e-03  -2.766922e-02  0 
 5.008911e-03  -2.769146e-02  0 
 -3.114904e-03  -3.282185e-02  0 
 -1.033541e-03  -3.281608e-02  0 
 1.076039e-03  -3.281364e-02  0 
 3.156275e-03  -3.282179e-02  0 
 5.302998e-03  -3.283425e-02  0 
VECTORS displacement_ITER2 FLOAT
 -4.968538e-03  -2.767477e-02  0 
 -5.270966e-03  -3.283373e-02  0 
 -3.008458e-03  -2.766388e-02  0 
 -9.815277e-04  -2.765026e-02  0 
 1.024891e-03  -2.764998e-02  0 
 3.052021e-03  -2.766352e-02  0 
 5.011902e-03  -2.767488e-02  0 
 -3.119387e-03  -3.282429e-02  0 
 -1.033703e-03  -3.281815e-02  0 
 1.077236e-03  -3.281775e-02  0 
 3.162803e-03  -3.282398e-02  0 
 5.314143e-03  -3.283370e-02  0 
VECTORS displacement_ITER3 FLOAT
 -4.968061e-03  -2.768455e-02  0 
 -5.266167e-03  -3.283917e-02  0 
 -3.005717e-03  -2.767096e-02  0 
 -9.805881e-04  -2.765766e-02  0 
 1.024799e-03  -2.765764e-02  0 
 3.050051e-03  -2.767108e-02  0 
 5.011954e-03  -2.768411e-02  0 
 -3.117469e-03  -3.282927e-02  0 
 -1.031932e-03  -3.282281e-02  0 
 1.076163e-03  -3.282316e-02  0 
 3.161772e-03  -3.282949e-02  0 
 5.310091e-03  -3.283942e-02  0 
VECTORS displacement_ITER4 FLOAT
 -4.967669e-03  -2.768300e-02  0 
 -5.266050e-03  -3.283795e-02  0 
 -3.005899e-03  -2.766992e-02  0 
 -9.809365e-04  -2.765652e-02  0 
 1.024873e-03  -2.765645e-02  0 
 3.049861e-03  -2.766987e-02  0 
 5.011548e-03  -2.768290e-02  0 
 -3.117603e-03  -3.282780e-02  0 
 -1.032172e-03  -3.282146e-02  0 
 1.076107e-03  -3.282146e-02  0 
 3.161557e-03  -3.282778e-02  0 
 5.309972e-03  -3.283798e-02  0 
VECTORS displacement_ITER5 FLOAT
 -4.967645e-03  -2.768291e-02  0 
 -5.266050e-03  -3.283791e-02  0 
 -3.005875e-03  -2.766984e-02  0 
 -9.808876e-04  -2.765644e-02  0 
 1.024908e-03  -2.765643e-02  0 
 3.049899e-03  -2.766984e-02  0 
 5.011663e-03  -2.768291e-02  0 
 -3.117573e-03  -3.282779e-02  0 
 -1.032108e-03  -3.282145e-02  0 
 1.076130e-03  -3.282145e-02  0 
 3.161597e-03  -3.282779e-02  0 
 5.310060e-03  -3.283792e-02  0 
VECTORS displacement_ITER6 FLOAT
 -4.967663e-03  -2.768294e-02  0 
 -5.266057e-03  -3.283794e-02  0 
 -3.005890e-03  -2.766986e-02  0 
 -9.809015e-04  -2.765646e-02  0 
 1.024896e-03  -2.765646e-02  0 
 3.049884e-03  -2.766986e-02  0 
 5.011660e-03  -2.768294e-02  0 
 -3.117590e-03  -3.282781e-02  0 
 -1.032122e-03  -3.282148e-02  0 
 1.076116e-03  -3.282147e-02  0 
 3.161585e-03  -3.282781e-02  0 
 5.310052e-03  -3.283794e-02  0 
VECTORS displacement_ITER7 FLOAT
 -4.967661e-03  -2.768293e-02  0 
 -5.266054e-03  -3.283793e-02  0 
 -3.005886e-03  -2.766985e-02  0 
 -9.808989e-04  -2.765645e-02  0 
 1.024899e-03  -2.765645e-02  0 
 3.049887e-03  -2.766985e-02  0 
 5.011662e-03  -2.768293e-02  0 
 -3.117587e-03  -3.282781e-02  0 
 -1.032119e-03  -3.282147e-02  0 
 1.076119e-03  -3.282147e-02  0 
 3.161587e-03  -3.282781e-02  0 
 5.310054e-03  -3.283793e-02  0 
VECTORS displacement_ITER8 FLOAT
 -4.967661e-03  -2.768293e-02  0 
 -5.266055e-03  -3.283793e-02  0 
 -3.005887e-03  -2.766985e-02  0 
 -9.808997e-04  -2.765645e-02  0 
 1.024898e-03  -2.765645e-02  0 
 3.049886e-03  -2.766985e-02  0 
 5.011662e-03  -2.768293e-02  0 
 -3.117588e-03  -3.282781e-02  0 
 -1.032119e-03  -3.282147e-02  0 
 1.076118e-03  -3.282147e-02  0 
 3.161586e-03  -3.282781e-02  0 
 5.310054e-03  -3.283793e-02  0 
VECTORS displacement_ITER9 FLOAT
 -4.967661e-03  -2.768293e-02  0 
 -5.266055e-03  -3.283793e-02  0 
 -3.005887e-03  -2.766985e-02  0 
 -9.808997e-04  -2.765645e-02  0 
 1.024898e-03  -2.765645e-02  0 
 3.049886e-03  -2.766985e-02  0 
 5.011662e-03  -2.768293e-02  0 
 -3.117588e-03  -3.282781e-02  0 
 -1.032119e-03  -3.282147e-02  0 
 1.076119e-03  -3.282147e-02  0 
 3.161586e-03  -3.282781e-02  0 
 5.310054e-03  -3.283793e-02  0 
VECTORS displacement_ITER10 FLOAT
 -4.967661e-03  -2.768293e-02  0 
 -5.266055e-03  -3.283793e-02  0 
 -3.005887e-03  -2.766985e-02  0 
 -9.808997e-04  -2.765645e-02  0 
 1.024898e-03  -2.765645e-02  0 
 3.049886e-03  -2.766985e-02  0 
 5.011662e-03  -2.768293e-02  0 
 -3.117588e-03  -3.282781e-02  0 
 -1.032119e-03  -3.282147e-02  0 
 1.076118e-03  -3.282147e-02  0 
 3.161586e-03  -3.282781e-02  0 
 5.310054e-03  -3.283793e-02  0 
CELL_DATA 5
TENSORS element_stresses FLOAT
 -4.315294e-02  -2.873157e-03  0 
 -2.873157e-03  -7.145130e-03  0 
 0  0  0 

 -1.627657e-01  -3.602373e-02  0 
 -3.602373e-02  5.151626e-04  0 
 0  0  0 

 4.376314e-09  -3.457076e-03  0 
 -3.457076e-03  -1.117137e-07  0 
 0  0  0 

 1.627659e-01  -3.602313e-02  0 
 -3.602313e-02  -5.153520e-04  0 
 0  0  0 

 4.315274e-02  -2.872900e-03  0 
 -2.872900e-03  7.145076e-03  0 
 0  0  0 

TENSORS element_stresses FLOAT
 -4.315294e-02  -2.873157e-03  0 
 -2.873157e-03  -7.145130e-03  0 
 0  0  0 

 -1.627657e-01  -3.602373e-02  0 
 -3.602373e-02  5.151626e-04  0 
 0  0  0 

 4.376314e-09  -3.457076e-03  0 
 -3.457076e-03  -1.117137e-07  0 
 0  0  0 

 1.627659e-01  -3.602313e-02  0 
 -3.602313e-02  -5.153520e-04  0 
 0  0  0 

 4.315274e-02  -2.872900e-03  0 
 -2.872900e-03  7.145076e-03  0 
 0  0  0 

