# vtk DataFile Version 3.1
this is an vtk file created by FEMAC
ASCII
DATASET UNSTRUCTURED_GRID
POINTS 12 FLOAT
4.000000 0.000000 0.000000
4.500000 0.000000 0.000000
4.000000 0.200000 0.000000
4.000000 0.400000 0.000000
4.000000 0.600000 0.000000
4.000000 0.800000 0.000000
4.000000 1.000000 0.000000
4.500000 0.200000 0.000000
4.500000 0.400000 0.000000
4.500000 0.600000 0.000000
4.500000 0.800000 0.000000
4.500000 1.000000 0.000000
CELLS 5 25 
4 0 1 7 2
4 2 7 8 3
4 3 8 9 4
4 4  9 10  5
4 5 10 11  6
CELL_TYPES 5
9 9 9 9 9 
POINT_DATA 12
VECTORS displacement_ITER1 FLOAT
 -4.878571e-03  -2.270786e-02  0 
 -4.961538e-03  -2.768431e-02  0 
 -2.861026e-03  -2.269132e-02  0 
 -9.502404e-04  -2.267997e-02  0 
 9.937510e-04  -2.268049e-02  0 
 2.906658e-03  -2.269273e-02  0 
 4.922453e-03  -2.271123e-02  0 
 -3.000435e-03  -2.767120e-02  0 
 -9.820301e-04  -2.765824e-02  0 
 1.026719e-03  -2.765727e-02  0 
 3.045702e-03  -2.767078e-02  0 
 5.004137e-03  -2.768171e-02  0 
VECTORS displacement_ITER2 FLOAT
 -4.885950e-03  -2.269421e-02  0 
 -4.969666e-03  -2.767621e-02  0 
 -2.865757e-03  -2.267650e-02  0 
 -9.535710e-04  -2.266450e-02  0 
 9.966366e-04  -2.266466e-02  0 
 2.909529e-03  -2.267668e-02  0 
 4.929354e-03  -2.269443e-02  0 
 -3.006585e-03  -2.766282e-02  0 
 -9.818869e-04  -2.764955e-02  0 
 1.025629e-03  -2.764956e-02  0 
 3.049772e-03  -2.766295e-02  0 
 5.013028e-03  -2.767620e-02  0 
VECTORS displacement_ITER3 FLOAT
 -4.884334e-03  -2.270386e-02  0 
 -4.967737e-03  -2.768407e-02  0 
 -2.864205e-03  -2.268595e-02  0 
 -9.534936e-04  -2.267393e-02  0 
 9.975679e-04  -2.267388e-02  0 
 2.908357e-03  -2.268596e-02  0 
 4.928530e-03  -2.270373e-02  0 
 -3.005975e-03  -2.767112e-02  0 
 -9.809790e-04  -2.765770e-02  0 
 1.025086e-03  -2.765775e-02  0 
 3.050064e-03  -2.767113e-02  0 
 5.011980e-03  -2.768424e-02  0 
VECTORS displacement_ITER4 FLOAT
 -4.884188e-03  -2.270281e-02  0 
 -4.967654e-03  -2.768294e-02  0 
 -2.864146e-03  -2.268501e-02  0 
 -9.535653e-04  -2.267295e-02  0 
 9.974833e-04  -2.267293e-02  0 
 2.908062e-03  -2.268500e-02  0 
 4.928132e-03  -2.270277e-02  0 
 -3.005901e-03  -2.766988e-02  0 
 -9.809328e-04  -2.765647e-02  0 
 1.024858e-03  -2.765650e-02  0 
 3.049809e-03  -2.766989e-02  0 
 5.011597e-03  -2.768299e-02  0 
VECTORS displacement_ITER5 FLOAT
 -4.884179e-03  -2.270272e-02  0 
 -4.967645e-03  -2.768291e-02  0 
 -2.864111e-03  -2.268492e-02  0 
 -9.535278e-04  -2.267286e-02  0 
 9.975467e-04  -2.267286e-02  0 
 2.908131e-03  -2.268492e-02  0 
 4.928202e-03  -2.270272e-02  0 
 -3.005872e-03  -2.766983e-02  0 
 -9.808886e-04  -2.765643e-02  0 
 1.024909e-03  -2.765644e-02  0 
 3.049891e-03  -2.766984e-02  0 
 5.011669e-03  -2.768291e-02  0 
VECTORS displacement_ITER6 FLOAT
 -4.884199e-03  -2.270274e-02  0 
 -4.967664e-03  -2.768294e-02  0 
 -2.864126e-03  -2.268494e-02  0 
 -9.535412e-04  -2.267288e-02  0 
 9.975350e-04  -2.267288e-02  0 
 2.908121e-03  -2.268494e-02  0 
 4.928196e-03  -2.270274e-02  0 
 -3.005889e-03  -2.766986e-02  0 
 -9.809023e-04  -2.765646e-02  0 
 1.024897e-03  -2.765646e-02  0 
 3.049884e-03  -2.766986e-02  0 
 5.011660e-03  -2.768294e-02  0 
VECTORS displacement_ITER7 FLOAT
 -4.884196e-03  -2.270273e-02  0 
 -4.967661e-03  -2.768293e-02  0 
 -2.864123e-03  -2.268494e-02  0 
 -9.535385e-04  -2.267287e-02  0 
 9.975377e-04  -2.267287e-02  0 
 2.908124e-03  -2.268493e-02  0 
 4.928198e-03  -2.270273e-02  0 
 -3.005886e-03  -2.766985e-02  0 
 -9.808992e-04  -2.765645e-02  0 
 1.024899e-03  -2.765645e-02  0 
 3.049887e-03  -2.766985e-02  0 
 5.011662e-03  -2.768293e-02  0 
VECTORS displacement_ITER8 FLOAT
 -4.884196e-03  -2.270273e-02  0 
 -4.967661e-03  -2.768293e-02  0 
 -2.864123e-03  -2.268494e-02  0 
 -9.535392e-04  -2.267287e-02  0 
 9.975371e-04  -2.267287e-02  0 
 2.908123e-03  -2.268493e-02  0 
 4.928197e-03  -2.270273e-02  0 
 -3.005887e-03  -2.766985e-02  0 
 -9.808997e-04  -2.765645e-02  0 
 1.024898e-03  -2.765645e-02  0 
 3.049886e-03  -2.766985e-02  0 
 5.011662e-03  -2.768293e-02  0 
VECTORS displacement_ITER9 FLOAT
 -4.884196e-03  -2.270273e-02  0 
 -4.967661e-03  -2.768293e-02  0 
 -2.864123e-03  -2.268494e-02  0 
 -9.535391e-04  -2.267287e-02  0 
 9.975372e-04  -2.267287e-02  0 
 2.908123e-03  -2.268493e-02  0 
 4.928197e-03  -2.270273e-02  0 
 -3.005887e-03  -2.766985e-02  0 
 -9.808997e-04  -2.765645e-02  0 
 1.024898e-03  -2.765645e-02  0 
 3.049886e-03  -2.766985e-02  0 
 5.011662e-03  -2.768293e-02  0 
VECTORS displacement_ITER10 FLOAT
 -4.884196e-03  -2.270273e-02  0 
 -4.967661e-03  -2.768293e-02  0 
 -2.864123e-03  -2.268494e-02  0 
 -9.535391e-04  -2.267287e-02  0 
 9.975372e-04  -2.267287e-02  0 
 2.908123e-03  -2.268493e-02  0 
 4.928197e-03  -2.270273e-02  0 
 -3.005887e-03  -2.766985e-02  0 
 -9.808997e-04  -2.765645e-02  0 
 1.024898e-03  -2.765645e-02  0 
 3.049886e-03  -2.766985e-02  0 
 5.011662e-03  -2.768293e-02  0 
CELL_DATA 5
TENSORS element_stresses FLOAT
 -2.220575e-01  -8.072895e-03  0 
 -8.072895e-03  1.057145e-02  0 
 0  0  0 

 -1.648652e-02  -9.966635e-03  0 
 -9.966635e-03  1.419684e-03  0 
 0  0  0 

 1.193961e-06  -5.767103e-02  0 
 -5.767103e-02  1.784451e-06  0 
 0  0  0 

 1.648669e-02  -9.966587e-03  0 
 -9.966587e-03  -1.419113e-03  0 
 0  0  0 

 2.220561e-01  -8.072851e-03  0 
 -8.072851e-03  -1.057109e-02  0 
 0  0  0 

TENSORS element_stresses FLOAT
 -2.220575e-01  -8.072895e-03  0 
 -8.072895e-03  1.057145e-02  0 
 0  0  0 

 -1.648652e-02  -9.966635e-03  0 
 -9.966635e-03  1.419684e-03  0 
 0  0  0 

 1.193961e-06  -5.767103e-02  0 
 -5.767103e-02  1.784451e-06  0 
 0  0  0 

 1.648669e-02  -9.966587e-03  0 
 -9.966587e-03  -1.419113e-03  0 
 0  0  0 

 2.220561e-01  -8.072851e-03  0 
 -8.072851e-03  -1.057109e-02  0 
 0  0  0 

