# vtk DataFile Version 3.1
this is an vtk file created by FEMAC
ASCII
DATASET UNSTRUCTURED_GRID
POINTS 12 FLOAT
1.500000 0.000000 0.000000
2.000000 0.000000 0.000000
1.500000 0.200000 0.000000
1.500000 0.400000 0.000000
1.500000 0.600000 0.000000
1.500000 0.800000 0.000000
1.500000 1.000000 0.000000
2.000000 0.200000 0.000000
2.000000 0.400000 0.000000
2.000000 0.600000 0.000000
2.000000 0.800000 0.000000
2.000000 1.000000 0.000000
CELLS 5 25 
4 0 1 7 2
4 2 7 8 3
4 3 8 9 4
4 4  9 10  5
4 5 10 11  6
CELL_TYPES 5
9 9 9 9 9 
POINT_DATA 12
VECTORS displacement_ITER1 FLOAT
 -2.161488e-03  -3.573288e-03  0 
 -3.267649e-03  -6.339059e-03  0 
 -1.417282e-03  -3.518458e-03  0 
 -4.257379e-04  -3.475529e-03  0 
 4.711445e-04  -3.472891e-03  0 
 1.462461e-03  -3.516352e-03  0 
 2.202066e-03  -3.563451e-03  0 
 -1.826490e-03  -6.294246e-03  0 
 -6.270524e-04  -6.264970e-03  0 
 6.712560e-04  -6.264030e-03  0 
 1.871061e-03  -6.292997e-03  0 
 3.315641e-03  -6.330211e-03  0 
VECTORS displacement_ITER2 FLOAT
 -2.155214e-03  -3.563366e-03  0 
 -3.262311e-03  -6.324970e-03  0 
 -1.414652e-03  -3.517244e-03  0 
 -4.294787e-04  -3.474020e-03  0 
 4.733300e-04  -3.473240e-03  0 
 1.457456e-03  -3.516535e-03  0 
 2.200204e-03  -3.562898e-03  0 
 -1.823648e-03  -6.284430e-03  0 
 -6.248718e-04  -6.255746e-03  0 
 6.679584e-04  -6.255386e-03  0 
 1.867301e-03  -6.284015e-03  0 
 3.305934e-03  -6.324689e-03  0 
VECTORS displacement_ITER3 FLOAT
 -2.155601e-03  -3.565785e-03  0 
 -3.264915e-03  -6.328219e-03  0 
 -1.415367e-03  -3.520183e-03  0 
 -4.306254e-04  -3.477186e-03  0 
 4.750729e-04  -3.476648e-03  0 
 1.458783e-03  -3.519660e-03  0 
 2.201170e-03  -3.566060e-03  0 
 -1.824040e-03  -6.288959e-03  0 
 -6.237167e-04  -6.260336e-03  0 
 6.674374e-04  -6.260208e-03  0 
 1.868314e-03  -6.288757e-03  0 
 3.309042e-03  -6.328453e-03  0 
VECTORS displacement_ITER4 FLOAT
 -2.155826e-03  -3.566198e-03  0 
 -3.264757e-03  -6.328330e-03  0 
 -1.415161e-03  -3.520037e-03  0 
 -4.305380e-04  -3.477097e-03  0 
 4.750029e-04  -3.476519e-03  0 
 1.458651e-03  -3.519525e-03  0 
 2.201163e-03  -3.566107e-03  0 
 -1.823943e-03  -6.288798e-03  0 
 -6.235546e-04  -6.260136e-03  0 
 6.672998e-04  -6.260083e-03  0 
 1.868228e-03  -6.288639e-03  0 
 3.308886e-03  -6.328277e-03  0 
VECTORS displacement_ITER5 FLOAT
 -2.155870e-03  -3.566235e-03  0 
 -3.264664e-03  -6.328360e-03  0 
 -1.415149e-03  -3.520029e-03  0 
 -4.305586e-04  -3.477086e-03  0 
 4.750283e-04  -3.476469e-03  0 
 1.458653e-03  -3.519480e-03  0 
 2.201127e-03  -3.565998e-03  0 
 -1.823954e-03  -6.288749e-03  0 
 -6.235647e-04  -6.260093e-03  0 
 6.673089e-04  -6.259996e-03  0 
 1.868226e-03  -6.288549e-03  0 
 3.308893e-03  -6.328171e-03  0 
VECTORS displacement_ITER6 FLOAT
 -2.155872e-03  -3.566219e-03  0 
 -3.264676e-03  -6.328351e-03  0 
 -1.415157e-03  -3.520027e-03  0 
 -4.305681e-04  -3.477083e-03  0 
 4.750296e-04  -3.476465e-03  0 
 1.458653e-03  -3.519475e-03  0 
 2.201129e-03  -3.565990e-03  0 
 -1.823961e-03  -6.288747e-03  0 
 -6.235694e-04  -6.260092e-03  0 
 6.673068e-04  -6.259993e-03  0 
 1.868225e-03  -6.288545e-03  0 
 3.308890e-03  -6.328167e-03  0 
VECTORS displacement_ITER7 FLOAT
 -2.155873e-03  -3.566216e-03  0 
 -3.264675e-03  -6.328348e-03  0 
 -1.415156e-03  -3.520023e-03  0 
 -4.305676e-04  -3.477079e-03  0 
 4.750309e-04  -3.476461e-03  0 
 1.458654e-03  -3.519471e-03  0 
 2.201130e-03  -3.565985e-03  0 
 -1.823960e-03  -6.288745e-03  0 
 -6.235677e-04  -6.260089e-03  0 
 6.673067e-04  -6.259990e-03  0 
 1.868226e-03  -6.288543e-03  0 
 3.308894e-03  -6.328162e-03  0 
VECTORS displacement_ITER8 FLOAT
 -2.155873e-03  -3.566215e-03  0 
 -3.264676e-03  -6.328347e-03  0 
 -1.415156e-03  -3.520022e-03  0 
 -4.305678e-04  -3.477078e-03  0 
 4.750307e-04  -3.476461e-03  0 
 1.458654e-03  -3.519471e-03  0 
 2.201131e-03  -3.565986e-03  0 
 -1.823960e-03  -6.288744e-03  0 
 -6.235678e-04  -6.260089e-03  0 
 6.673065e-04  -6.259990e-03  0 
 1.868226e-03  -6.288542e-03  0 
 3.308893e-03  -6.328162e-03  0 
VECTORS displacement_ITER9 FLOAT
 -2.155873e-03  -3.566215e-03  0 
 -3.264676e-03  -6.328347e-03  0 
 -1.415156e-03  -3.520022e-03  0 
 -4.305678e-04  -3.477078e-03  0 
 4.750307e-04  -3.476461e-03  0 
 1.458654e-03  -3.519471e-03  0 
 2.201131e-03  -3.565986e-03  0 
 -1.823960e-03  -6.288744e-03  0 
 -6.235678e-04  -6.260089e-03  0 
 6.673065e-04  -6.259990e-03  0 
 1.868226e-03  -6.288542e-03  0 
 3.308893e-03  -6.328162e-03  0 
VECTORS displacement_ITER10 FLOAT
 -2.155873e-03  -3.566215e-03  0 
 -3.264676e-03  -6.328347e-03  0 
 -1.415156e-03  -3.520022e-03  0 
 -4.305678e-04  -3.477078e-03  0 
 4.750307e-04  -3.476461e-03  0 
 1.458654e-03  -3.519471e-03  0 
 2.201131e-03  -3.565986e-03  0 
 -1.823960e-03  -6.288744e-03  0 
 -6.235678e-04  -6.260089e-03  0 
 6.673065e-04  -6.259990e-03  0 
 1.868226e-03  -6.288542e-03  0 
 3.308893e-03  -6.328162e-03  0 
CELL_DATA 5
TENSORS element_stresses FLOAT
 -1.596989e-01  -5.943980e-03  0 
 -5.943980e-03  -2.646066e-02  0 
 0  0  0 

 -6.023130e-01  -6.867658e-02  0 
 -6.867658e-02  -1.696179e-03  0 
 0  0  0 

 -2.049727e-05  -5.796703e-03  0 
 -5.796703e-03  1.730781e-04  0 
 0  0  0 

 6.023913e-01  -7.018762e-02  0 
 -7.018762e-02  1.810075e-03  0 
 0  0  0 

 1.596411e-01  -5.645115e-03  0 
 -5.645115e-03  2.635870e-02  0 
 0  0  0 

TENSORS element_stresses FLOAT
 -1.596989e-01  -5.943980e-03  0 
 -5.943980e-03  -2.646066e-02  0 
 0  0  0 

 -6.023130e-01  -6.867658e-02  0 
 -6.867658e-02  -1.696179e-03  0 
 0  0  0 

 -2.049727e-05  -5.796703e-03  0 
 -5.796703e-03  1.730781e-04  0 
 0  0  0 

 6.023913e-01  -7.018762e-02  0 
 -7.018762e-02  1.810075e-03  0 
 0  0  0 

 1.596411e-01  -5.645115e-03  0 
 -5.645115e-03  2.635870e-02  0 
 0  0  0 

