# vtk DataFile Version 3.1
this is an vtk file created by FEMAC
ASCII
DATASET UNSTRUCTURED_GRID
POINTS 12 FLOAT
6.500000 0.000000 0.000000
7.000000 0.000000 0.000000
6.500000 0.200000 0.000000
6.500000 0.400000 0.000000
6.500000 0.600000 0.000000
6.500000 0.800000 0.000000
6.500000 1.000000 0.000000
7.000000 0.200000 0.000000
7.000000 0.400000 0.000000
7.000000 0.600000 0.000000
7.000000 0.800000 0.000000
7.000000 1.000000 0.000000
CELLS 5 25 
4 0 1 7 2
4 2 7 8 3
4 3 8 9 4
4 4  9 10  5
4 5 10 11  6
CELL_TYPES 5
9 9 9 9 9 
POINT_DATA 12
VECTORS displacement_ITER1 FLOAT
 -5.463574e-03  -4.905944e-02  0 
 -5.506050e-03  -5.457055e-02  0 
 -3.272571e-03  -4.905482e-02  0 
 -1.075559e-03  -4.905196e-02  0 
 1.118257e-03  -4.905115e-02  0 
 3.315854e-03  -4.905427e-02  0 
 5.505359e-03  -4.905724e-02  0 
 -3.290584e-03  -5.456866e-02  0 
 -1.082867e-03  -5.456803e-02  0 
 1.125698e-03  -5.456798e-02  0 
 3.333418e-03  -5.456844e-02  0 
 5.549510e-03  -5.456956e-02  0 
VECTORS displacement_ITER2 FLOAT
 -5.477765e-03  -4.909800e-02  0 
 -5.521553e-03  -5.462583e-02  0 
 -3.282695e-03  -4.909601e-02  0 
 -1.079913e-03  -4.909289e-02  0 
 1.123464e-03  -4.909268e-02  0 
 3.326336e-03  -4.909590e-02  0 
 5.520604e-03  -4.909732e-02  0 
 -3.300292e-03  -5.462451e-02  0 
 -1.086319e-03  -5.462421e-02  0 
 1.129842e-03  -5.462423e-02  0 
 3.343829e-03  -5.462443e-02  0 
 5.565100e-03  -5.462565e-02  0 
VECTORS displacement_ITER3 FLOAT
 -5.472047e-03  -4.908931e-02  0 
 -5.515885e-03  -5.461151e-02  0 
 -3.278801e-03  -4.908682e-02  0 
 -1.078252e-03  -4.908378e-02  0 
 1.122356e-03  -4.908387e-02  0 
 3.322885e-03  -4.908689e-02  0 
 5.516358e-03  -4.908960e-02  0 
 -3.296477e-03  -5.461027e-02  0 
 -1.084395e-03  -5.460991e-02  0 
 1.128520e-03  -5.460995e-02  0 
 3.340601e-03  -5.461033e-02  0 
 5.559876e-03  -5.461169e-02  0 
VECTORS displacement_ITER4 FLOAT
 -5.472218e-03  -4.908776e-02  0 
 -5.515985e-03  -5.461016e-02  0 
 -3.279018e-03  -4.908540e-02  0 
 -1.078474e-03  -4.908234e-02  0 
 1.122437e-03  -4.908235e-02  0 
 3.322974e-03  -4.908541e-02  0 
 5.516201e-03  -4.908779e-02  0 
 -3.296687e-03  -5.460883e-02  0 
 -1.084600e-03  -5.460850e-02  0 
 1.128563e-03  -5.460849e-02  0 
 3.340645e-03  -5.460882e-02  0 
 5.559960e-03  -5.461015e-02  0 
VECTORS displacement_ITER5 FLOAT
 -5.472260e-03  -4.908791e-02  0 
 -5.516046e-03  -5.461032e-02  0 
 -3.279014e-03  -4.908550e-02  0 
 -1.078436e-03  -4.908244e-02  0 
 1.122450e-03  -4.908245e-02  0 
 3.323027e-03  -4.908550e-02  0 
 5.516280e-03  -4.908792e-02  0 
 -3.296682e-03  -5.460901e-02  0 
 -1.084566e-03  -5.460867e-02  0 
 1.128580e-03  -5.460867e-02  0 
 3.340695e-03  -5.460901e-02  0 
 5.560060e-03  -5.461032e-02  0 
VECTORS displacement_ITER6 FLOAT
 -5.472266e-03  -4.908793e-02  0 
 -5.516037e-03  -5.461032e-02  0 
 -3.279014e-03  -4.908551e-02  0 
 -1.078443e-03  -4.908246e-02  0 
 1.122439e-03  -4.908246e-02  0 
 3.323010e-03  -4.908551e-02  0 
 5.516260e-03  -4.908793e-02  0 
 -3.296685e-03  -5.460901e-02  0 
 -1.084575e-03  -5.460867e-02  0 
 1.128570e-03  -5.460867e-02  0 
 3.340680e-03  -5.460901e-02  0 
 5.560034e-03  -5.461032e-02  0 
VECTORS displacement_ITER7 FLOAT
 -5.472264e-03  -4.908792e-02  0 
 -5.516037e-03  -5.461032e-02  0 
 -3.279013e-03  -4.908551e-02  0 
 -1.078442e-03  -4.908245e-02  0 
 1.122442e-03  -4.908245e-02  0 
 3.323013e-03  -4.908551e-02  0 
 5.516264e-03  -4.908792e-02  0 
 -3.296683e-03  -5.460900e-02  0 
 -1.084574e-03  -5.460866e-02  0 
 1.128574e-03  -5.460866e-02  0 
 3.340683e-03  -5.460900e-02  0 
 5.560037e-03  -5.461032e-02  0 
VECTORS displacement_ITER8 FLOAT
 -5.472264e-03  -4.908792e-02  0 
 -5.516038e-03  -5.461031e-02  0 
 -3.279014e-03  -4.908550e-02  0 
 -1.078442e-03  -4.908245e-02  0 
 1.122441e-03  -4.908245e-02  0 
 3.323012e-03  -4.908550e-02  0 
 5.516263e-03  -4.908792e-02  0 
 -3.296684e-03  -5.460900e-02  0 
 -1.084574e-03  -5.460866e-02  0 
 1.128573e-03  -5.460866e-02  0 
 3.340682e-03  -5.460900e-02  0 
 5.560037e-03  -5.461031e-02  0 
VECTORS displacement_ITER9 FLOAT
 -5.472264e-03  -4.908792e-02  0 
 -5.516038e-03  -5.461031e-02  0 
 -3.279014e-03  -4.908550e-02  0 
 -1.078442e-03  -4.908245e-02  0 
 1.122441e-03  -4.908245e-02  0 
 3.323013e-03  -4.908550e-02  0 
 5.516263e-03  -4.908792e-02  0 
 -3.296683e-03  -5.460900e-02  0 
 -1.084574e-03  -5.460866e-02  0 
 1.128573e-03  -5.460866e-02  0 
 3.340683e-03  -5.460900e-02  0 
 5.560037e-03  -5.461031e-02  0 
VECTORS displacement_ITER10 FLOAT
 -5.472264e-03  -4.908792e-02  0 
 -5.516038e-03  -5.461031e-02  0 
 -3.279014e-03  -4.908550e-02  0 
 -1.078442e-03  -4.908245e-02  0 
 1.122441e-03  -4.908245e-02  0 
 3.323013e-03  -4.908550e-02  0 
 5.516263e-03  -4.908792e-02  0 
 -3.296684e-03  -5.460900e-02  0 
 -1.084574e-03  -5.460866e-02  0 
 1.128573e-03  -5.460866e-02  0 
 3.340683e-03  -5.460900e-02  0 
 5.560037e-03  -5.461031e-02  0 
CELL_DATA 5
TENSORS element_stresses FLOAT
 -6.444635e-03  -1.106010e-03  0 
 -1.106010e-03  -1.000983e-03  0 
 0  0  0 

 -2.336027e-02  -1.385164e-02  0 
 -1.385164e-02  1.472325e-03  0 
 0  0  0 

 9.050005e-11  -1.334702e-03  0 
 -1.334702e-03  -6.830376e-10  0 
 0  0  0 

 2.336027e-02  -1.385164e-02  0 
 -1.385164e-02  -1.472327e-03  0 
 0  0  0 

 6.444634e-03  -1.106008e-03  0 
 -1.106008e-03  1.000983e-03  0 
 0  0  0 

TENSORS element_stresses FLOAT
 -6.444635e-03  -1.106010e-03  0 
 -1.106010e-03  -1.000983e-03  0 
 0  0  0 

 -2.336027e-02  -1.385164e-02  0 
 -1.385164e-02  1.472325e-03  0 
 0  0  0 

 9.050005e-11  -1.334702e-03  0 
 -1.334702e-03  -6.830376e-10  0 
 0  0  0 

 2.336027e-02  -1.385164e-02  0 
 -1.385164e-02  -1.472327e-03  0 
 0  0  0 

 6.444634e-03  -1.106008e-03  0 
 -1.106008e-03  1.000983e-03  0 
 0  0  0 

