# vtk DataFile Version 3.1
this is an vtk file created by FEMAC
ASCII
DATASET UNSTRUCTURED_GRID
POINTS 12 FLOAT
7.500000 0.000000 0.000000
8.000000 0.000000 0.000000
7.500000 0.200000 0.000000
7.500000 0.400000 0.000000
7.500000 0.600000 0.000000
7.500000 0.800000 0.000000
7.500000 1.000000 0.000000
8.000000 0.200000 0.000000
8.000000 0.400000 0.000000
8.000000 0.600000 0.000000
8.000000 0.800000 0.000000
8.000000 1.000000 0.000000
CELLS 5 25 
4 0 1 7 2
4 2 7 8 3
4 3 8 9 4
4 4  9 10  5
4 5 10 11  6
CELL_TYPES 5
9 9 9 9 9 
POINT_DATA 12
VECTORS displacement_ITER1 FLOAT
 -5.509357e-03  -6.010485e-02  0 
 -5.511780e-03  -6.563907e-02  0 
 -3.296685e-03  -6.010473e-02  0 
 -1.085700e-03  -6.010400e-02  0 
 1.128701e-03  -6.010408e-02  0 
 3.339647e-03  -6.010478e-02  0 
 5.552584e-03  -6.010528e-02  0 
 -3.298553e-03  -6.563761e-02  0 
 -1.084342e-03  -6.563785e-02  0 
 1.127351e-03  -6.563786e-02  0 
 3.341566e-03  -6.563765e-02  0 
 5.554614e-03  -6.563896e-02  0 
VECTORS displacement_ITER2 FLOAT
 -5.525409e-03  -6.017728e-02  0 
 -5.527169e-03  -6.572740e-02  0 
 -3.305773e-03  -6.017711e-02  0 
 -1.088421e-03  -6.017641e-02  0 
 1.131974e-03  -6.017635e-02  0 
 3.349352e-03  -6.017707e-02  0 
 5.568893e-03  -6.017717e-02  0 
 -3.307721e-03  -6.572592e-02  0 
 -1.087165e-03  -6.572611e-02  0 
 1.130717e-03  -6.572612e-02  0 
 3.351289e-03  -6.572591e-02  0 
 5.570794e-03  -6.572741e-02  0 
VECTORS displacement_ITER3 FLOAT
 -5.519381e-03  -6.015768e-02  0 
 -5.521474e-03  -6.570207e-02  0 
 -3.302290e-03  -6.015739e-02  0 
 -1.087153e-03  -6.015669e-02  0 
 1.131219e-03  -6.015668e-02  0 
 3.346361e-03  -6.015739e-02  0 
 5.563469e-03  -6.015767e-02  0 
 -3.304199e-03  -6.570067e-02  0 
 -1.085845e-03  -6.570087e-02  0 
 1.129913e-03  -6.570088e-02  0 
 3.348270e-03  -6.570067e-02  0 
 5.565549e-03  -6.570208e-02  0 
VECTORS displacement_ITER4 FLOAT
 -5.519603e-03  -6.015634e-02  0 
 -5.521641e-03  -6.570092e-02  0 
 -3.302401e-03  -6.015609e-02  0 
 -1.087209e-03  -6.015538e-02  0 
 1.131180e-03  -6.015538e-02  0 
 3.346372e-03  -6.015609e-02  0 
 5.563558e-03  -6.015634e-02  0 
 -3.304316e-03  -6.569950e-02  0 
 -1.085911e-03  -6.569970e-02  0 
 1.129882e-03  -6.569970e-02  0 
 3.348285e-03  -6.569949e-02  0 
 5.565613e-03  -6.570091e-02  0 
VECTORS displacement_ITER5 FLOAT
 -5.519637e-03  -6.015658e-02  0 
 -5.521687e-03  -6.570120e-02  0 
 -3.302422e-03  -6.015631e-02  0 
 -1.087204e-03  -6.015561e-02  0 
 1.131218e-03  -6.015561e-02  0 
 3.346435e-03  -6.015631e-02  0 
 5.563652e-03  -6.015658e-02  0 
 -3.304336e-03  -6.569979e-02  0 
 -1.085904e-03  -6.569999e-02  0 
 1.129918e-03  -6.569999e-02  0 
 3.348350e-03  -6.569979e-02  0 
 5.565700e-03  -6.570120e-02  0 
VECTORS displacement_ITER6 FLOAT
 -5.519631e-03  -6.015656e-02  0 
 -5.521681e-03  -6.570117e-02  0 
 -3.302422e-03  -6.015630e-02  0 
 -1.087210e-03  -6.015559e-02  0 
 1.131206e-03  -6.015559e-02  0 
 3.346417e-03  -6.015630e-02  0 
 5.563627e-03  -6.015656e-02  0 
 -3.304336e-03  -6.569976e-02  0 
 -1.085910e-03  -6.569996e-02  0 
 1.129906e-03  -6.569996e-02  0 
 3.348331e-03  -6.569976e-02  0 
 5.565676e-03  -6.570117e-02  0 
VECTORS displacement_ITER7 FLOAT
 -5.519630e-03  -6.015656e-02  0 
 -5.521680e-03  -6.570117e-02  0 
 -3.302420e-03  -6.015630e-02  0 
 -1.087208e-03  -6.015559e-02  0 
 1.131208e-03  -6.015559e-02  0 
 3.346420e-03  -6.015630e-02  0 
 5.563630e-03  -6.015656e-02  0 
 -3.304334e-03  -6.569976e-02  0 
 -1.085908e-03  -6.569996e-02  0 
 1.129908e-03  -6.569996e-02  0 
 3.348335e-03  -6.569976e-02  0 
 5.565680e-03  -6.570117e-02  0 
VECTORS displacement_ITER8 FLOAT
 -5.519631e-03  -6.015656e-02  0 
 -5.521681e-03  -6.570117e-02  0 
 -3.302421e-03  -6.015629e-02  0 
 -1.087209e-03  -6.015559e-02  0 
 1.131208e-03  -6.015559e-02  0 
 3.346420e-03  -6.015629e-02  0 
 5.563630e-03  -6.015656e-02  0 
 -3.304335e-03  -6.569976e-02  0 
 -1.085909e-03  -6.569996e-02  0 
 1.129908e-03  -6.569996e-02  0 
 3.348334e-03  -6.569976e-02  0 
 5.565680e-03  -6.570117e-02  0 
VECTORS displacement_ITER9 FLOAT
 -5.519631e-03  -6.015656e-02  0 
 -5.521681e-03  -6.570117e-02  0 
 -3.302421e-03  -6.015629e-02  0 
 -1.087209e-03  -6.015559e-02  0 
 1.131208e-03  -6.015559e-02  0 
 3.346420e-03  -6.015629e-02  0 
 5.563630e-03  -6.015656e-02  0 
 -3.304335e-03  -6.569976e-02  0 
 -1.085909e-03  -6.569996e-02  0 
 1.129908e-03  -6.569996e-02  0 
 3.348334e-03  -6.569976e-02  0 
 5.565680e-03  -6.570117e-02  0 
VECTORS displacement_ITER10 FLOAT
 -5.519631e-03  -6.015656e-02  0 
 -5.521681e-03  -6.570117e-02  0 
 -3.302421e-03  -6.015629e-02  0 
 -1.087209e-03  -6.015559e-02  0 
 1.131208e-03  -6.015559e-02  0 
 3.346420e-03  -6.015629e-02  0 
 5.563630e-03  -6.015656e-02  0 
 -3.304335e-03  -6.569976e-02  0 
 -1.085909e-03  -6.569996e-02  0 
 1.129908e-03  -6.569996e-02  0 
 3.348334e-03  -6.569976e-02  0 
 5.565680e-03  -6.570117e-02  0 
CELL_DATA 5
TENSORS element_stresses FLOAT
 -2.972011e-04  -1.295558e-04  0 
 -1.295558e-04  3.307016e-04  0 
 0  0  0 

 -2.624335e-04  -2.873954e-03  0 
 -2.873954e-03  1.173564e-03  0 
 0  0  0 

 1.774403e-11  -2.429806e-04  0 
 -2.429806e-04  1.663665e-10  0 
 0  0  0 

 2.624334e-04  -2.873954e-03  0 
 -2.873954e-03  -1.173564e-03  0 
 0  0  0 

 2.972012e-04  -1.295559e-04  0 
 -1.295559e-04  -3.307016e-04  0 
 0  0  0 

TENSORS element_stresses FLOAT
 -2.972011e-04  -1.295558e-04  0 
 -1.295558e-04  3.307016e-04  0 
 0  0  0 

 -2.624335e-04  -2.873954e-03  0 
 -2.873954e-03  1.173564e-03  0 
 0  0  0 

 1.774403e-11  -2.429806e-04  0 
 -2.429806e-04  1.663665e-10  0 
 0  0  0 

 2.624334e-04  -2.873954e-03  0 
 -2.873954e-03  -1.173564e-03  0 
 0  0  0 

 2.972012e-04  -1.295559e-04  0 
 -1.295559e-04  -3.307016e-04  0 
 0  0  0 

