# vtk DataFile Version 3.1
this is an vtk file created by FEMAC
ASCII
DATASET UNSTRUCTURED_GRID
POINTS 12 FLOAT
3.000000 0.000000 0.000000
3.500000 0.000000 0.000000
3.000000 0.200000 0.000000
3.000000 0.400000 0.000000
3.000000 0.600000 0.000000
3.000000 0.800000 0.000000
3.000000 1.000000 0.000000
3.500000 0.200000 0.000000
3.500000 0.400000 0.000000
3.500000 0.600000 0.000000
3.500000 0.800000 0.000000
3.500000 1.000000 0.000000
CELLS 5 25 
4 0 1 7 2
4 2 7 8 3
4 3 8 9 4
4 4  9 10  5
4 5 10 11  6
CELL_TYPES 5
9 9 9 9 9 
POINT_DATA 12
VECTORS displacement_ITER1 FLOAT
 -4.241037e-03  -1.367602e-02  0 
 -4.372030e-03  -1.804271e-02  0 
 -2.446461e-03  -1.364771e-02  0 
 -8.197574e-04  -1.362814e-02  0 
 8.638677e-04  -1.362847e-02  0 
 2.490664e-03  -1.364756e-02  0 
 4.285353e-03  -1.367475e-02  0 
 -2.675314e-03  -1.802310e-02  0 
 -8.667567e-04  -1.800125e-02  0 
 9.098120e-04  -1.800097e-02  0 
 2.720358e-03  -1.802139e-02  0 
 4.416588e-03  -1.804226e-02  0 
VECTORS displacement_ITER2 FLOAT
 -4.239281e-03  -1.365469e-02  0 
 -4.373436e-03  -1.802341e-02  0 
 -2.447054e-03  -1.362719e-02  0 
 -8.218164e-04  -1.360748e-02  0 
 8.651100e-04  -1.360738e-02  0 
 2.490082e-03  -1.362700e-02  0 
 4.282377e-03  -1.365464e-02  0 
 -2.673767e-03  -1.800139e-02  0 
 -8.648525e-04  -1.798004e-02  0 
 9.081642e-04  -1.798015e-02  0 
 2.716799e-03  -1.800151e-02  0 
 4.416493e-03  -1.802338e-02  0 
VECTORS displacement_ITER3 FLOAT
 -4.240036e-03  -1.366177e-02  0 
 -4.373770e-03  -1.803166e-02  0 
 -2.446723e-03  -1.363416e-02  0 
 -8.217524e-04  -1.361457e-02  0 
 8.659512e-04  -1.361457e-02  0 
 2.490881e-03  -1.363420e-02  0 
 4.284129e-03  -1.366189e-02  0 
 -2.674129e-03  -1.800997e-02  0 
 -8.646904e-04  -1.798866e-02  0 
 9.088988e-04  -1.798867e-02  0 
 2.718277e-03  -1.800996e-02  0 
 4.417891e-03  -1.803159e-02  0 
VECTORS displacement_ITER4 FLOAT
 -4.239888e-03  -1.366121e-02  0 
 -4.373618e-03  -1.803084e-02  0 
 -2.446661e-03  -1.363358e-02  0 
 -8.218089e-04  -1.361398e-02  0 
 8.657949e-04  -1.361399e-02  0 
 2.490620e-03  -1.363362e-02  0 
 4.283836e-03  -1.366126e-02  0 
 -2.674075e-03  -1.800917e-02  0 
 -8.647649e-04  -1.798787e-02  0 
 9.087394e-04  -1.798786e-02  0 
 2.718054e-03  -1.800916e-02  0 
 4.417557e-03  -1.803081e-02  0 
VECTORS displacement_ITER5 FLOAT
 -4.239865e-03  -1.366111e-02  0 
 -4.373596e-03  -1.803071e-02  0 
 -2.446648e-03  -1.363347e-02  0 
 -8.217925e-04  -1.361387e-02  0 
 8.658195e-04  -1.361388e-02  0 
 2.490652e-03  -1.363351e-02  0 
 4.283853e-03  -1.366115e-02  0 
 -2.674055e-03  -1.800906e-02  0 
 -8.647415e-04  -1.798776e-02  0 
 9.087615e-04  -1.798776e-02  0 
 2.718067e-03  -1.800905e-02  0 
 4.417594e-03  -1.803071e-02  0 
VECTORS displacement_ITER6 FLOAT
 -4.239880e-03  -1.366111e-02  0 
 -4.373615e-03  -1.803073e-02  0 
 -2.446665e-03  -1.363348e-02  0 
 -8.218042e-04  -1.361387e-02  0 
 8.658110e-04  -1.361389e-02  0 
 2.490647e-03  -1.363351e-02  0 
 4.283851e-03  -1.366115e-02  0 
 -2.674068e-03  -1.800907e-02  0 
 -8.647535e-04  -1.798777e-02  0 
 9.087522e-04  -1.798777e-02  0 
 2.718062e-03  -1.800907e-02  0 
 4.417591e-03  -1.803072e-02  0 
VECTORS displacement_ITER7 FLOAT
 -4.239878e-03  -1.366111e-02  0 
 -4.373612e-03  -1.803072e-02  0 
 -2.446662e-03  -1.363347e-02  0 
 -8.218013e-04  -1.361387e-02  0 
 8.658129e-04  -1.361388e-02  0 
 2.490650e-03  -1.363351e-02  0 
 4.283853e-03  -1.366115e-02  0 
 -2.674065e-03  -1.800906e-02  0 
 -8.647513e-04  -1.798777e-02  0 
 9.087547e-04  -1.798776e-02  0 
 2.718064e-03  -1.800906e-02  0 
 4.417593e-03  -1.803072e-02  0 
VECTORS displacement_ITER8 FLOAT
 -4.239879e-03  -1.366111e-02  0 
 -4.373613e-03  -1.803072e-02  0 
 -2.446663e-03  -1.363347e-02  0 
 -8.218017e-04  -1.361387e-02  0 
 8.658122e-04  -1.361388e-02  0 
 2.490649e-03  -1.363351e-02  0 
 4.283852e-03  -1.366115e-02  0 
 -2.674065e-03  -1.800906e-02  0 
 -8.647519e-04  -1.798777e-02  0 
 9.087542e-04  -1.798776e-02  0 
 2.718063e-03  -1.800906e-02  0 
 4.417593e-03  -1.803072e-02  0 
VECTORS displacement_ITER9 FLOAT
 -4.239878e-03  -1.366111e-02  0 
 -4.373613e-03  -1.803072e-02  0 
 -2.446663e-03  -1.363347e-02  0 
 -8.218016e-04  -1.361387e-02  0 
 8.658123e-04  -1.361388e-02  0 
 2.490649e-03  -1.363351e-02  0 
 4.283853e-03  -1.366115e-02  0 
 -2.674065e-03  -1.800906e-02  0 
 -8.647518e-04  -1.798777e-02  0 
 9.087543e-04  -1.798776e-02  0 
 2.718064e-03  -1.800906e-02  0 
 4.417593e-03  -1.803072e-02  0 
VECTORS displacement_ITER10 FLOAT
 -4.239878e-03  -1.366111e-02  0 
 -4.373613e-03  -1.803072e-02  0 
 -2.446663e-03  -1.363347e-02  0 
 -8.218016e-04  -1.361387e-02  0 
 8.658123e-04  -1.361388e-02  0 
 2.490649e-03  -1.363351e-02  0 
 4.283853e-03  -1.366115e-02  0 
 -2.674065e-03  -1.800906e-02  0 
 -8.647518e-04  -1.798777e-02  0 
 9.087543e-04  -1.798776e-02  0 
 2.718063e-03  -1.800906e-02  0 
 4.417593e-03  -1.803072e-02  0 
CELL_DATA 5
TENSORS element_stresses FLOAT
 -3.562269e-01  -1.022655e-02  0 
 -1.022655e-02  1.636625e-02  0 
 0  0  0 

 -2.633827e-02  -1.261926e-02  0 
 -1.261926e-02  2.323347e-03  0 
 0  0  0 

 -1.461395e-05  -7.306034e-02  0 
 -7.306034e-02  -2.124995e-05  0 
 0  0  0 

 2.633640e-02  -1.262059e-02  0 
 -1.262059e-02  -2.330735e-03  0 
 0  0  0 

 3.562434e-01  -1.022327e-02  0 
 -1.022327e-02  -1.637052e-02  0 
 0  0  0 

TENSORS element_stresses FLOAT
 -3.562269e-01  -1.022655e-02  0 
 -1.022655e-02  1.636625e-02  0 
 0  0  0 

 -2.633827e-02  -1.261926e-02  0 
 -1.261926e-02  2.323347e-03  0 
 0  0  0 

 -1.461395e-05  -7.306034e-02  0 
 -7.306034e-02  -2.124995e-05  0 
 0  0  0 

 2.633640e-02  -1.262059e-02  0 
 -1.262059e-02  -2.330735e-03  0 
 0  0  0 

 3.562434e-01  -1.022327e-02  0 
 -1.022327e-02  -1.637052e-02  0 
 0  0  0 

