# vtk DataFile Version 3.1
this is an vtk file created by FEMAC
ASCII
DATASET UNSTRUCTURED_GRID
POINTS 12 FLOAT
3.500000 0.000000 0.000000
4.000000 0.000000 0.000000
3.500000 0.200000 0.000000
3.500000 0.400000 0.000000
3.500000 0.600000 0.000000
3.500000 0.800000 0.000000
3.500000 1.000000 0.000000
4.000000 0.200000 0.000000
4.000000 0.400000 0.000000
4.000000 0.600000 0.000000
4.000000 0.800000 0.000000
4.000000 1.000000 0.000000
CELLS 5 25 
4 0 1 7 2
4 2 7 8 3
4 3 8 9 4
4 4  9 10  5
4 5 10 11  6
CELL_TYPES 5
9 9 9 9 9 
POINT_DATA 12
VECTORS displacement_ITER1 FLOAT
 -4.377968e-03  -1.804999e-02  0 
 -4.877957e-03  -2.271508e-02  0 
 -2.668731e-03  -1.801793e-02  0 
 -8.595177e-04  -1.799685e-02  0 
 9.044981e-04  -1.799914e-02  0 
 2.712626e-03  -1.802035e-02  0 
 4.421750e-03  -1.804744e-02  0 
 -2.861300e-03  -2.269144e-02  0 
 -9.534876e-04  -2.267827e-02  0 
 9.986953e-04  -2.267796e-02  0 
 2.904536e-03  -2.269132e-02  0 
 4.922538e-03  -2.270953e-02  0 
VECTORS displacement_ITER2 FLOAT
 -4.372189e-03  -1.802164e-02  0 
 -4.886081e-03  -2.269451e-02  0 
 -2.675405e-03  -1.800264e-02  0 
 -8.660682e-04  -1.798112e-02  0 
 9.092089e-04  -1.798061e-02  0 
 2.718668e-03  -1.800202e-02  0 
 4.415185e-03  -1.802184e-02  0 
 -2.864792e-03  -2.267695e-02  0 
 -9.554610e-04  -2.266513e-02  0 
 9.987535e-04  -2.266442e-02  0 
 2.907756e-03  -2.267632e-02  0 
 4.930065e-03  -2.269367e-02  0 
VECTORS displacement_ITER3 FLOAT
 -4.373743e-03  -1.803157e-02  0 
 -4.884386e-03  -2.270347e-02  0 
 -2.674130e-03  -1.800998e-02  0 
 -8.647434e-04  -1.798871e-02  0 
 9.088910e-04  -1.798863e-02  0 
 2.718320e-03  -1.800995e-02  0 
 4.417882e-03  -1.803167e-02  0 
 -2.864171e-03  -2.268602e-02  0 
 -9.535641e-04  -2.267391e-02  0 
 9.977295e-04  -2.267400e-02  0 
 2.908370e-03  -2.268603e-02  0 
 4.928444e-03  -2.270386e-02  0 
VECTORS displacement_ITER4 FLOAT
 -4.373602e-03  -1.803078e-02  0 
 -4.884222e-03  -2.270276e-02  0 
 -2.674067e-03  -1.800916e-02  0 
 -8.647727e-04  -1.798786e-02  0 
 9.087175e-04  -1.798787e-02  0 
 2.718008e-03  -1.800917e-02  0 
 4.417609e-03  -1.803087e-02  0 
 -2.864122e-03  -2.268497e-02  0 
 -9.535701e-04  -2.267290e-02  0 
 9.975160e-04  -2.267295e-02  0 
 2.908089e-03  -2.268500e-02  0 
 4.928089e-03  -2.270289e-02  0 
VECTORS displacement_ITER5 FLOAT
 -4.373603e-03  -1.803072e-02  0 
 -4.884182e-03  -2.270272e-02  0 
 -2.674047e-03  -1.800906e-02  0 
 -8.647384e-04  -1.798776e-02  0 
 9.087610e-04  -1.798775e-02  0 
 2.718068e-03  -1.800905e-02  0 
 4.417591e-03  -1.803071e-02  0 
 -2.864106e-03  -2.268492e-02  0 
 -9.535252e-04  -2.267286e-02  0 
 9.975431e-04  -2.267286e-02  0 
 2.908126e-03  -2.268492e-02  0 
 4.928207e-03  -2.270271e-02  0 
VECTORS displacement_ITER6 FLOAT
 -4.373614e-03  -1.803073e-02  0 
 -4.884199e-03  -2.270274e-02  0 
 -2.674068e-03  -1.800907e-02  0 
 -8.647547e-04  -1.798777e-02  0 
 9.087529e-04  -1.798777e-02  0 
 2.718062e-03  -1.800907e-02  0 
 4.417592e-03  -1.803072e-02  0 
 -2.864126e-03  -2.268494e-02  0 
 -9.535417e-04  -2.267288e-02  0 
 9.975358e-04  -2.267288e-02  0 
 2.908121e-03  -2.268494e-02  0 
 4.928195e-03  -2.270274e-02  0 
VECTORS displacement_ITER7 FLOAT
 -4.373612e-03  -1.803072e-02  0 
 -4.884195e-03  -2.270274e-02  0 
 -2.674065e-03  -1.800906e-02  0 
 -8.647514e-04  -1.798777e-02  0 
 9.087549e-04  -1.798776e-02  0 
 2.718064e-03  -1.800906e-02  0 
 4.417593e-03  -1.803072e-02  0 
 -2.864123e-03  -2.268494e-02  0 
 -9.535386e-04  -2.267287e-02  0 
 9.975378e-04  -2.267287e-02  0 
 2.908124e-03  -2.268493e-02  0 
 4.928198e-03  -2.270273e-02  0 
VECTORS displacement_ITER8 FLOAT
 -4.373613e-03  -1.803072e-02  0 
 -4.884196e-03  -2.270273e-02  0 
 -2.674065e-03  -1.800906e-02  0 
 -8.647519e-04  -1.798777e-02  0 
 9.087542e-04  -1.798776e-02  0 
 2.718063e-03  -1.800906e-02  0 
 4.417593e-03  -1.803072e-02  0 
 -2.864123e-03  -2.268494e-02  0 
 -9.535392e-04  -2.267287e-02  0 
 9.975371e-04  -2.267287e-02  0 
 2.908123e-03  -2.268493e-02  0 
 4.928197e-03  -2.270273e-02  0 
VECTORS displacement_ITER9 FLOAT
 -4.373613e-03  -1.803072e-02  0 
 -4.884196e-03  -2.270273e-02  0 
 -2.674065e-03  -1.800906e-02  0 
 -8.647518e-04  -1.798777e-02  0 
 9.087543e-04  -1.798776e-02  0 
 2.718064e-03  -1.800906e-02  0 
 4.417593e-03  -1.803072e-02  0 
 -2.864123e-03  -2.268494e-02  0 
 -9.535391e-04  -2.267287e-02  0 
 9.975372e-04  -2.267287e-02  0 
 2.908123e-03  -2.268493e-02  0 
 4.928197e-03  -2.270273e-02  0 
VECTORS displacement_ITER10 FLOAT
 -4.373613e-03  -1.803072e-02  0 
 -4.884196e-03  -2.270273e-02  0 
 -2.674065e-03  -1.800906e-02  0 
 -8.647518e-04  -1.798777e-02  0 
 9.087543e-04  -1.798776e-02  0 
 2.718063e-03  -1.800906e-02  0 
 4.417593e-03  -1.803072e-02  0 
 -2.864123e-03  -2.268494e-02  0 
 -9.535391e-04  -2.267287e-02  0 
 9.975372e-04  -2.267287e-02  0 
 2.908123e-03  -2.268493e-02  0 
 4.928197e-03  -2.270273e-02  0 
CELL_DATA 5
TENSORS element_stresses FLOAT
 -7.374175e-02  -3.756505e-03  0 
 -3.756505e-03  -1.225871e-02  0 
 0  0  0 

 -2.789297e-01  -4.710351e-02  0 
 -4.710351e-02  -2.816263e-04  0 
 0  0  0 

 -7.252275e-08  -4.520004e-03  0 
 -4.520004e-03  1.207326e-06  0 
 0  0  0 

 2.789273e-01  -4.711045e-02  0 
 -4.711045e-02  2.826583e-04  0 
 0  0  0 

 7.374416e-02  -3.759529e-03  0 
 -3.759529e-03  1.225921e-02  0 
 0  0  0 

TENSORS element_stresses FLOAT
 -7.374175e-02  -3.756505e-03  0 
 -3.756505e-03  -1.225871e-02  0 
 0  0  0 

 -2.789297e-01  -4.710351e-02  0 
 -4.710351e-02  -2.816263e-04  0 
 0  0  0 

 -7.252275e-08  -4.520004e-03  0 
 -4.520004e-03  1.207326e-06  0 
 0  0  0 

 2.789273e-01  -4.711045e-02  0 
 -4.711045e-02  2.826583e-04  0 
 0  0  0 

 7.374416e-02  -3.759529e-03  0 
 -3.759529e-03  1.225921e-02  0 
 0  0  0 

