# vtk DataFile Version 3.1
this is an vtk file created by FEMAC
ASCII
DATASET UNSTRUCTURED_GRID
POINTS 12 FLOAT
5.500000 0.000000 0.000000
6.000000 0.000000 0.000000
5.500000 0.200000 0.000000
5.500000 0.400000 0.000000
5.500000 0.600000 0.000000
5.500000 0.800000 0.000000
5.500000 1.000000 0.000000
6.000000 0.200000 0.000000
6.000000 0.400000 0.000000
6.000000 0.600000 0.000000
6.000000 0.800000 0.000000
6.000000 1.000000 0.000000
CELLS 5 25 
4 0 1 7 2
4 2 7 8 3
4 3 8 9 4
4 4  9 10  5
4 5 10 11  6
CELL_TYPES 5
9 9 9 9 9 
POINT_DATA 12
VECTORS displacement_ITER1 FLOAT
 -5.304316e-03  -3.815851e-02  0 
 -5.445136e-03  -4.356576e-02  0 
 -3.187773e-03  -3.815050e-02  0 
 -1.043108e-03  -3.814308e-02  0 
 1.086534e-03  -3.814477e-02  0 
 3.231019e-03  -3.815204e-02  0 
 5.348272e-03  -3.816228e-02  0 
 -3.242518e-03  -4.356159e-02  0 
 -1.069092e-03  -4.355868e-02  0 
 1.112810e-03  -4.356016e-02  0 
 3.286111e-03  -4.356295e-02  0 
 5.485833e-03  -4.356934e-02  0 
VECTORS displacement_ITER2 FLOAT
 -5.314497e-03  -3.817127e-02  0 
 -5.459260e-03  -4.359249e-02  0 
 -3.197697e-03  -3.816601e-02  0 
 -1.049154e-03  -3.815845e-02  0 
 1.092347e-03  -3.815855e-02  0 
 3.240873e-03  -3.816599e-02  0 
 5.358191e-03  -3.817144e-02  0 
 -3.251533e-03  -4.358810e-02  0 
 -1.073146e-03  -4.358591e-02  0 
 1.116393e-03  -4.358566e-02  0 
 3.294674e-03  -4.358796e-02  0 
 5.502804e-03  -4.359255e-02  0 
VECTORS displacement_ITER3 FLOAT
 -5.311173e-03  -3.817397e-02  0 
 -5.453607e-03  -4.358939e-02  0 
 -3.193650e-03  -3.816693e-02  0 
 -1.047345e-03  -3.815965e-02  0 
 1.091459e-03  -3.815955e-02  0 
 3.237838e-03  -3.816684e-02  0 
 5.355309e-03  -3.817383e-02  0 
 -3.247976e-03  -4.358475e-02  0 
 -1.071065e-03  -4.358228e-02  0 
 1.115208e-03  -4.358226e-02  0 
 3.292115e-03  -4.358473e-02  0 
 5.497837e-03  -4.358923e-02  0 
VECTORS displacement_ITER4 FLOAT
 -5.311087e-03  -3.817215e-02  0 
 -5.453798e-03  -4.358779e-02  0 
 -3.193860e-03  -3.816550e-02  0 
 -1.047609e-03  -3.815817e-02  0 
 1.091566e-03  -3.815813e-02  0 
 3.237825e-03  -3.816546e-02  0 
 5.354981e-03  -3.817204e-02  0 
 -3.248108e-03  -4.358310e-02  0 
 -1.071281e-03  -4.358068e-02  0 
 1.115233e-03  -4.358065e-02  0 
 3.292058e-03  -4.358307e-02  0 
 5.497795e-03  -4.358772e-02  0 
VECTORS displacement_ITER5 FLOAT
 -5.311063e-03  -3.817214e-02  0 
 -5.453862e-03  -4.358778e-02  0 
 -3.193847e-03  -3.816548e-02  0 
 -1.047560e-03  -3.815816e-02  0 
 1.091577e-03  -3.815816e-02  0 
 3.237864e-03  -3.816548e-02  0 
 5.355085e-03  -3.817214e-02  0 
 -3.248081e-03  -4.358317e-02  0 
 -1.071227e-03  -4.358074e-02  0 
 1.115244e-03  -4.358074e-02  0 
 3.292099e-03  -4.358317e-02  0 
 5.497876e-03  -4.358778e-02  0 
VECTORS displacement_ITER6 FLOAT
 -5.311079e-03  -3.817217e-02  0 
 -5.453859e-03  -4.358781e-02  0 
 -3.193856e-03  -3.816550e-02  0 
 -1.047571e-03  -3.815818e-02  0 
 1.091566e-03  -3.815818e-02  0 
 3.237851e-03  -3.816550e-02  0 
 5.355073e-03  -3.817217e-02  0 
 -3.248093e-03  -4.358319e-02  0 
 -1.071241e-03  -4.358076e-02  0 
 1.115236e-03  -4.358076e-02  0 
 3.292088e-03  -4.358319e-02  0 
 5.497854e-03  -4.358781e-02  0 
VECTORS displacement_ITER7 FLOAT
 -5.311075e-03  -3.817216e-02  0 
 -5.453857e-03  -4.358780e-02  0 
 -3.193854e-03  -3.816550e-02  0 
 -1.047568e-03  -3.815818e-02  0 
 1.091569e-03  -3.815818e-02  0 
 3.237854e-03  -3.816550e-02  0 
 5.355075e-03  -3.817216e-02  0 
 -3.248091e-03  -4.358318e-02  0 
 -1.071240e-03  -4.358075e-02  0 
 1.115240e-03  -4.358075e-02  0 
 3.292091e-03  -4.358318e-02  0 
 5.497858e-03  -4.358780e-02  0 
VECTORS displacement_ITER8 FLOAT
 -5.311076e-03  -3.817216e-02  0 
 -5.453858e-03  -4.358780e-02  0 
 -3.193854e-03  -3.816550e-02  0 
 -1.047569e-03  -3.815818e-02  0 
 1.091568e-03  -3.815818e-02  0 
 3.237853e-03  -3.816550e-02  0 
 5.355075e-03  -3.817216e-02  0 
 -3.248091e-03  -4.358318e-02  0 
 -1.071240e-03  -4.358075e-02  0 
 1.115239e-03  -4.358075e-02  0 
 3.292090e-03  -4.358318e-02  0 
 5.497857e-03  -4.358780e-02  0 
VECTORS displacement_ITER9 FLOAT
 -5.311076e-03  -3.817216e-02  0 
 -5.453858e-03  -4.358780e-02  0 
 -3.193854e-03  -3.816550e-02  0 
 -1.047569e-03  -3.815818e-02  0 
 1.091568e-03  -3.815818e-02  0 
 3.237853e-03  -3.816550e-02  0 
 5.355075e-03  -3.817216e-02  0 
 -3.248091e-03  -4.358318e-02  0 
 -1.071240e-03  -4.358075e-02  0 
 1.115239e-03  -4.358075e-02  0 
 3.292090e-03  -4.358318e-02  0 
 5.497857e-03  -4.358780e-02  0 
VECTORS displacement_ITER10 FLOAT
 -5.311076e-03  -3.817216e-02  0 
 -5.453858e-03  -4.358780e-02  0 
 -3.193854e-03  -3.816550e-02  0 
 -1.047569e-03  -3.815818e-02  0 
 1.091568e-03  -3.815818e-02  0 
 3.237853e-03  -3.816550e-02  0 
 5.355075e-03  -3.817216e-02  0 
 -3.248091e-03  -4.358318e-02  0 
 -1.071240e-03  -4.358075e-02  0 
 1.115239e-03  -4.358075e-02  0 
 3.292090e-03  -4.358318e-02  0 
 5.497857e-03  -4.358780e-02  0 
CELL_DATA 5
TENSORS element_stresses FLOAT
 -2.072046e-02  -1.989103e-03  0 
 -1.989103e-03  -3.395048e-03  0 
 0  0  0 

 -7.757865e-02  -2.493924e-02  0 
 -2.493924e-02  1.099699e-03  0 
 0  0  0 

 -5.231362e-10  -2.393238e-03  0 
 -2.393238e-03  9.691099e-09  0 
 0  0  0 

 7.757863e-02  -2.493930e-02  0 
 -2.493930e-02  -1.099680e-03  0 
 0  0  0 

 2.072048e-02  -1.989123e-03  0 
 -1.989123e-03  3.395051e-03  0 
 0  0  0 

TENSORS element_stresses FLOAT
 -2.072046e-02  -1.989103e-03  0 
 -1.989103e-03  -3.395048e-03  0 
 0  0  0 

 -7.757865e-02  -2.493924e-02  0 
 -2.493924e-02  1.099699e-03  0 
 0  0  0 

 -5.231362e-10  -2.393238e-03  0 
 -2.393238e-03  9.691099e-09  0 
 0  0  0 

 7.757863e-02  -2.493930e-02  0 
 -2.493930e-02  -1.099680e-03  0 
 0  0  0 

 2.072048e-02  -1.989123e-03  0 
 -1.989123e-03  3.395051e-03  0 
 0  0  0 

