# vtk DataFile Version 3.1
this is an vtk file created by FEMAC
ASCII
DATASET UNSTRUCTURED_GRID
POINTS 12 FLOAT
6.000000 0.000000 0.000000
6.500000 0.000000 0.000000
6.000000 0.200000 0.000000
6.000000 0.400000 0.000000
6.000000 0.600000 0.000000
6.000000 0.800000 0.000000
6.000000 1.000000 0.000000
6.500000 0.200000 0.000000
6.500000 0.400000 0.000000
6.500000 0.600000 0.000000
6.500000 0.800000 0.000000
6.500000 1.000000 0.000000
CELLS 5 25 
4 0 1 7 2
4 2 7 8 3
4 3 8 9 4
4 4  9 10  5
4 5 10 11  6
CELL_TYPES 5
9 9 9 9 9 
POINT_DATA 12
VECTORS displacement_ITER1 FLOAT
 -5.444122e-03  -4.356762e-02  0 
 -5.462265e-03  -4.905686e-02  0 
 -3.242489e-03  -4.356273e-02  0 
 -1.069880e-03  -4.356027e-02  0 
 1.111931e-03  -4.355975e-02  0 
 3.285045e-03  -4.356203e-02  0 
 5.487523e-03  -4.356609e-02  0 
 -3.273500e-03  -4.905492e-02  0 
 -1.077813e-03  -4.905185e-02  0 
 1.120317e-03  -4.905228e-02  0 
 3.315670e-03  -4.905519e-02  0 
 5.505359e-03  -4.905777e-02  0 
VECTORS displacement_ITER2 FLOAT
 -5.459425e-03  -4.359273e-02  0 
 -5.477785e-03  -4.909809e-02  0 
 -3.251579e-03  -4.358811e-02  0 
 -1.072475e-03  -4.358558e-02  0 
 1.115769e-03  -4.358562e-02  0 
 3.294919e-03  -4.358804e-02  0 
 5.502724e-03  -4.359259e-02  0 
 -3.282369e-03  -4.909562e-02  0 
 -1.079931e-03  -4.909256e-02  0 
 1.123256e-03  -4.909259e-02  0 
 3.325600e-03  -4.909566e-02  0 
 5.521260e-03  -4.909826e-02  0 
VECTORS displacement_ITER3 FLOAT
 -5.453660e-03  -4.358930e-02  0 
 -5.472054e-03  -4.908936e-02  0 
 -3.247898e-03  -4.358470e-02  0 
 -1.071142e-03  -4.358227e-02  0 
 1.115310e-03  -4.358230e-02  0 
 3.292091e-03  -4.358472e-02  0 
 5.497810e-03  -4.358937e-02  0 
 -3.278851e-03  -4.908694e-02  0 
 -1.078340e-03  -4.908389e-02  0 
 1.122531e-03  -4.908386e-02  0 
 3.323037e-03  -4.908692e-02  0 
 5.516176e-03  -4.908928e-02  0 
VECTORS displacement_ITER4 FLOAT
 -5.453837e-03  -4.358771e-02  0 
 -5.472242e-03  -4.908782e-02  0 
 -3.248074e-03  -4.358311e-02  0 
 -1.071244e-03  -4.358068e-02  0 
 1.115214e-03  -4.358068e-02  0 
 3.292044e-03  -4.358311e-02  0 
 5.497796e-03  -4.358773e-02  0 
 -3.278998e-03  -4.908539e-02  0 
 -1.078443e-03  -4.908233e-02  0 
 1.122413e-03  -4.908233e-02  0 
 3.322972e-03  -4.908538e-02  0 
 5.516201e-03  -4.908780e-02  0 
VECTORS displacement_ITER5 FLOAT
 -5.453856e-03  -4.358779e-02  0 
 -5.472265e-03  -4.908792e-02  0 
 -3.248088e-03  -4.358317e-02  0 
 -1.071235e-03  -4.358074e-02  0 
 1.115251e-03  -4.358074e-02  0 
 3.292103e-03  -4.358317e-02  0 
 5.497872e-03  -4.358779e-02  0 
 -3.279008e-03  -4.908550e-02  0 
 -1.078435e-03  -4.908244e-02  0 
 1.122450e-03  -4.908244e-02  0 
 3.323025e-03  -4.908550e-02  0 
 5.516279e-03  -4.908791e-02  0 
VECTORS displacement_ITER6 FLOAT
 -5.453859e-03  -4.358781e-02  0 
 -5.472265e-03  -4.908793e-02  0 
 -3.248092e-03  -4.358319e-02  0 
 -1.071242e-03  -4.358076e-02  0 
 1.115237e-03  -4.358076e-02  0 
 3.292087e-03  -4.358319e-02  0 
 5.497854e-03  -4.358781e-02  0 
 -3.279015e-03  -4.908551e-02  0 
 -1.078444e-03  -4.908246e-02  0 
 1.122439e-03  -4.908246e-02  0 
 3.323010e-03  -4.908551e-02  0 
 5.516260e-03  -4.908793e-02  0 
VECTORS displacement_ITER7 FLOAT
 -5.453858e-03  -4.358780e-02  0 
 -5.472264e-03  -4.908792e-02  0 
 -3.248091e-03  -4.358318e-02  0 
 -1.071240e-03  -4.358075e-02  0 
 1.115240e-03  -4.358075e-02  0 
 3.292091e-03  -4.358318e-02  0 
 5.497858e-03  -4.358780e-02  0 
 -3.279013e-03  -4.908551e-02  0 
 -1.078441e-03  -4.908245e-02  0 
 1.122442e-03  -4.908245e-02  0 
 3.323013e-03  -4.908551e-02  0 
 5.516264e-03  -4.908792e-02  0 
VECTORS displacement_ITER8 FLOAT
 -5.453858e-03  -4.358780e-02  0 
 -5.472265e-03  -4.908792e-02  0 
 -3.248091e-03  -4.358318e-02  0 
 -1.071240e-03  -4.358075e-02  0 
 1.115239e-03  -4.358075e-02  0 
 3.292090e-03  -4.358318e-02  0 
 5.497857e-03  -4.358780e-02  0 
 -3.279014e-03  -4.908550e-02  0 
 -1.078442e-03  -4.908245e-02  0 
 1.122441e-03  -4.908245e-02  0 
 3.323012e-03  -4.908550e-02  0 
 5.516263e-03  -4.908792e-02  0 
VECTORS displacement_ITER9 FLOAT
 -5.453858e-03  -4.358780e-02  0 
 -5.472264e-03  -4.908792e-02  0 
 -3.248091e-03  -4.358318e-02  0 
 -1.071240e-03  -4.358075e-02  0 
 1.115239e-03  -4.358075e-02  0 
 3.292090e-03  -4.358318e-02  0 
 5.497857e-03  -4.358780e-02  0 
 -3.279014e-03  -4.908550e-02  0 
 -1.078442e-03  -4.908245e-02  0 
 1.122441e-03  -4.908245e-02  0 
 3.323013e-03  -4.908550e-02  0 
 5.516263e-03  -4.908792e-02  0 
VECTORS displacement_ITER10 FLOAT
 -5.453858e-03  -4.358780e-02  0 
 -5.472264e-03  -4.908792e-02  0 
 -3.248091e-03  -4.358318e-02  0 
 -1.071240e-03  -4.358075e-02  0 
 1.115239e-03  -4.358075e-02  0 
 3.292090e-03  -4.358318e-02  0 
 5.497857e-03  -4.358780e-02  0 
 -3.279014e-03  -4.908550e-02  0 
 -1.078442e-03  -4.908245e-02  0 
 1.122441e-03  -4.908245e-02  0 
 3.323013e-03  -4.908550e-02  0 
 5.516263e-03  -4.908792e-02  0 
CELL_DATA 5
TENSORS element_stresses FLOAT
 -4.840766e-02  -3.766406e-03  0 
 -3.766406e-03  3.069294e-03  0 
 0  0  0 

 -3.737468e-03  -4.651081e-03  0 
 -4.651081e-03  2.497823e-04  0 
 0  0  0 

 1.086053e-08  -2.691503e-02  0 
 -2.691503e-02  1.346609e-08  0 
 0  0  0 

 3.737469e-03  -4.651079e-03  0 
 -4.651079e-03  -2.497786e-04  0 
 0  0  0 

 4.840765e-02  -3.766405e-03  0 
 -3.766405e-03  -3.069292e-03  0 
 0  0  0 

TENSORS element_stresses FLOAT
 -4.840766e-02  -3.766406e-03  0 
 -3.766406e-03  3.069294e-03  0 
 0  0  0 

 -3.737468e-03  -4.651081e-03  0 
 -4.651081e-03  2.497823e-04  0 
 0  0  0 

 1.086053e-08  -2.691503e-02  0 
 -2.691503e-02  1.346609e-08  0 
 0  0  0 

 3.737469e-03  -4.651079e-03  0 
 -4.651079e-03  -2.497786e-04  0 
 0  0  0 

 4.840765e-02  -3.766405e-03  0 
 -3.766405e-03  -3.069292e-03  0 
 0  0  0 

