# vtk DataFile Version 3.1
this is an vtk file created by FEMAC
ASCII
DATASET UNSTRUCTURED_GRID
POINTS 12 FLOAT
7.000000 0.000000 0.000000
7.500000 0.000000 0.000000
7.000000 0.200000 0.000000
7.000000 0.400000 0.000000
7.000000 0.600000 0.000000
7.000000 0.800000 0.000000
7.000000 1.000000 0.000000
7.500000 0.200000 0.000000
7.500000 0.400000 0.000000
7.500000 0.600000 0.000000
7.500000 0.800000 0.000000
7.500000 1.000000 0.000000
CELLS 5 25 
4 0 1 7 2
4 2 7 8 3
4 3 8 9 4
4 4  9 10  5
4 5 10 11  6
CELL_TYPES 5
9 9 9 9 9 
POINT_DATA 12
VECTORS displacement_ITER1 FLOAT
 -5.505937e-03  -5.456964e-02  0 
 -5.509544e-03  -6.010514e-02  0 
 -3.291069e-03  -5.456850e-02  0 
 -1.082692e-03  -5.456820e-02  0 
 1.125745e-03  -5.456827e-02  0 
 3.334174e-03  -5.456864e-02  0 
 5.548903e-03  -5.456999e-02  0 
 -3.296558e-03  -6.010480e-02  0 
 -1.085505e-03  -6.010407e-02  0 
 1.128594e-03  -6.010403e-02  0 
 3.339706e-03  -6.010474e-02  0 
 5.552499e-03  -6.010494e-02  0 
VECTORS displacement_ITER2 FLOAT
 -5.521706e-03  -5.462582e-02  0 
 -5.525244e-03  -6.017733e-02  0 
 -3.300215e-03  -5.462450e-02  0 
 -1.085750e-03  -5.462414e-02  0 
 1.129252e-03  -5.462410e-02  0 
 3.343755e-03  -5.462448e-02  0 
 5.565270e-03  -5.462581e-02  0 
 -3.305956e-03  -6.017707e-02  0 
 -1.088583e-03  -6.017630e-02  0 
 1.132094e-03  -6.017633e-02  0 
 3.349505e-03  -6.017705e-02  0 
 5.568799e-03  -6.017731e-02  0 
VECTORS displacement_ITER3 FLOAT
 -5.515793e-03  -5.461162e-02  0 
 -5.519403e-03  -6.015765e-02  0 
 -3.296537e-03  -5.461029e-02  0 
 -1.084514e-03  -5.460995e-02  0 
 1.128587e-03  -5.460995e-02  0 
 3.340607e-03  -5.461028e-02  0 
 5.559891e-03  -5.461158e-02  0 
 -3.302265e-03  -6.015739e-02  0 
 -1.087127e-03  -6.015669e-02  0 
 1.131199e-03  -6.015669e-02  0 
 3.346335e-03  -6.015740e-02  0 
 5.563486e-03  -6.015767e-02  0 
VECTORS displacement_ITER4 FLOAT
 -5.516007e-03  -5.461015e-02  0 
 -5.519595e-03  -6.015635e-02  0 
 -3.296663e-03  -5.460883e-02  0 
 -1.084579e-03  -5.460850e-02  0 
 1.128544e-03  -5.460850e-02  0 
 3.340631e-03  -5.460884e-02  0 
 5.559969e-03  -5.461015e-02  0 
 -3.302405e-03  -6.015608e-02  0 
 -1.087218e-03  -6.015538e-02  0 
 1.131183e-03  -6.015538e-02  0 
 3.346370e-03  -6.015608e-02  0 
 5.563562e-03  -6.015635e-02  0 
VECTORS displacement_ITER5 FLOAT
 -5.516044e-03  -5.461032e-02  0 
 -5.519638e-03  -6.015658e-02  0 
 -3.296685e-03  -5.460901e-02  0 
 -1.084570e-03  -5.460867e-02  0 
 1.128585e-03  -5.460867e-02  0 
 3.340699e-03  -5.460901e-02  0 
 5.560057e-03  -5.461032e-02  0 
 -3.302422e-03  -6.015631e-02  0 
 -1.087203e-03  -6.015561e-02  0 
 1.131217e-03  -6.015561e-02  0 
 3.346436e-03  -6.015631e-02  0 
 5.563651e-03  -6.015658e-02  0 
VECTORS displacement_ITER6 FLOAT
 -5.516038e-03  -5.461032e-02  0 
 -5.519631e-03  -6.015656e-02  0 
 -3.296684e-03  -5.460901e-02  0 
 -1.084576e-03  -5.460867e-02  0 
 1.128571e-03  -5.460867e-02  0 
 3.340680e-03  -5.460901e-02  0 
 5.560033e-03  -5.461032e-02  0 
 -3.302421e-03  -6.015630e-02  0 
 -1.087210e-03  -6.015559e-02  0 
 1.131206e-03  -6.015559e-02  0 
 3.346417e-03  -6.015630e-02  0 
 5.563627e-03  -6.015656e-02  0 
VECTORS displacement_ITER7 FLOAT
 -5.516037e-03  -5.461032e-02  0 
 -5.519630e-03  -6.015656e-02  0 
 -3.296683e-03  -5.460900e-02  0 
 -1.084573e-03  -5.460866e-02  0 
 1.128574e-03  -5.460866e-02  0 
 3.340683e-03  -5.460900e-02  0 
 5.560037e-03  -5.461032e-02  0 
 -3.302420e-03  -6.015630e-02  0 
 -1.087208e-03  -6.015559e-02  0 
 1.131208e-03  -6.015559e-02  0 
 3.346420e-03  -6.015630e-02  0 
 5.563631e-03  -6.015656e-02  0 
VECTORS displacement_ITER8 FLOAT
 -5.516038e-03  -5.461031e-02  0 
 -5.519631e-03  -6.015656e-02  0 
 -3.296684e-03  -5.460900e-02  0 
 -1.084574e-03  -5.460866e-02  0 
 1.128573e-03  -5.460866e-02  0 
 3.340682e-03  -5.460900e-02  0 
 5.560037e-03  -5.461031e-02  0 
 -3.302421e-03  -6.015629e-02  0 
 -1.087209e-03  -6.015559e-02  0 
 1.131208e-03  -6.015559e-02  0 
 3.346420e-03  -6.015629e-02  0 
 5.563630e-03  -6.015656e-02  0 
VECTORS displacement_ITER9 FLOAT
 -5.516038e-03  -5.461031e-02  0 
 -5.519631e-03  -6.015656e-02  0 
 -3.296683e-03  -5.460900e-02  0 
 -1.084574e-03  -5.460866e-02  0 
 1.128573e-03  -5.460866e-02  0 
 3.340683e-03  -5.460900e-02  0 
 5.560037e-03  -5.461031e-02  0 
 -3.302421e-03  -6.015629e-02  0 
 -1.087209e-03  -6.015559e-02  0 
 1.131208e-03  -6.015559e-02  0 
 3.346420e-03  -6.015629e-02  0 
 5.563630e-03  -6.015656e-02  0 
VECTORS displacement_ITER10 FLOAT
 -5.516038e-03  -5.461031e-02  0 
 -5.519631e-03  -6.015656e-02  0 
 -3.296684e-03  -5.460900e-02  0 
 -1.084574e-03  -5.460866e-02  0 
 1.128573e-03  -5.460866e-02  0 
 3.340683e-03  -5.460900e-02  0 
 5.560037e-03  -5.461031e-02  0 
 -3.302421e-03  -6.015629e-02  0 
 -1.087209e-03  -6.015559e-02  0 
 1.131208e-03  -6.015559e-02  0 
 3.346420e-03  -6.015629e-02  0 
 5.563630e-03  -6.015656e-02  0 
CELL_DATA 5
TENSORS element_stresses FLOAT
 -8.954296e-03  -1.634250e-03  0 
 -1.634250e-03  1.254729e-03  0 
 0  0  0 

 -8.340028e-04  -1.993473e-03  0 
 -1.993473e-03  1.064283e-05  0 
 0  0  0 

 -9.346621e-10  -1.149455e-02  0 
 -1.149455e-02  -1.313310e-09  0 
 0  0  0 

 8.340027e-04  -1.993473e-03  0 
 -1.993473e-03  -1.064319e-05  0 
 0  0  0 

 8.954297e-03  -1.634250e-03  0 
 -1.634250e-03  -1.254730e-03  0 
 0  0  0 

TENSORS element_stresses FLOAT
 -8.954296e-03  -1.634250e-03  0 
 -1.634250e-03  1.254729e-03  0 
 0  0  0 

 -8.340028e-04  -1.993473e-03  0 
 -1.993473e-03  1.064283e-05  0 
 0  0  0 

 -9.346621e-10  -1.149455e-02  0 
 -1.149455e-02  -1.313310e-09  0 
 0  0  0 

 8.340027e-04  -1.993473e-03  0 
 -1.993473e-03  -1.064319e-05  0 
 0  0  0 

 8.954297e-03  -1.634250e-03  0 
 -1.634250e-03  -1.254730e-03  0 
 0  0  0 

