# vtk DataFile Version 3.1
this is an vtk file created by FEMAC
ASCII
DATASET UNSTRUCTURED_GRID
POINTS 12 FLOAT
2.500000 0.000000 0.000000
3.000000 0.000000 0.000000
2.500000 0.200000 0.000000
2.500000 0.400000 0.000000
2.500000 0.600000 0.000000
2.500000 0.800000 0.000000
2.500000 1.000000 0.000000
3.000000 0.200000 0.000000
3.000000 0.400000 0.000000
3.000000 0.600000 0.000000
3.000000 0.800000 0.000000
3.000000 1.000000 0.000000
CELLS 5 25 
4 0 1 7 2
4 2 7 8 3
4 3 8 9 4
4 4  9 10  5
4 5 10 11  6
CELL_TYPES 5
9 9 9 9 9 
POINT_DATA 12
VECTORS displacement_ITER1 FLOAT
 -3.462117e-03  -9.771498e-03  0 
 -4.237095e-03  -1.367516e-02  0 
 -2.161172e-03  -9.741174e-03  0 
 -6.848959e-04  -9.708648e-03  0 
 7.293043e-04  -9.709232e-03  0 
 2.204696e-03  -9.740737e-03  0 
 3.510907e-03  -9.777808e-03  0 
 -2.451125e-03  -1.364756e-02  0 
 -8.266109e-04  -1.362846e-02  0 
 8.711659e-04  -1.362651e-02  0 
 2.495571e-03  -1.364656e-02  0 
 4.280722e-03  -1.367838e-02  0 
VECTORS displacement_ITER2 FLOAT
 -3.458657e-03  -9.756251e-03  0 
 -4.240425e-03  -1.365443e-02  0 
 -2.156410e-03  -9.724454e-03  0 
 -6.839662e-04  -9.693396e-03  0 
 7.270959e-04  -9.694162e-03  0 
 2.199538e-03  -9.725081e-03  0 
 3.502664e-03  -9.756890e-03  0 
 -2.445261e-03  -1.362680e-02  0 
 -8.214823e-04  -1.360716e-02  0 
 8.646794e-04  -1.360775e-02  0 
 2.488488e-03  -1.362755e-02  0 
 4.283419e-03  -1.365470e-02  0 
VECTORS displacement_ITER3 FLOAT
 -3.460969e-03  -9.763544e-03  0 
 -4.239991e-03  -1.366191e-02  0 
 -2.157321e-03  -9.730777e-03  0 
 -6.852592e-04  -9.699807e-03  0 
 7.293336e-04  -9.699732e-03  0 
 2.201521e-03  -9.730732e-03  0 
 3.504785e-03  -9.762880e-03  0 
 -2.446702e-03  -1.363422e-02  0 
 -8.217457e-04  -1.361457e-02  0 
 8.658382e-04  -1.361461e-02  0 
 2.490776e-03  -1.363423e-02  0 
 4.284274e-03  -1.366161e-02  0 
VECTORS displacement_ITER4 FLOAT
 -3.460611e-03  -9.762947e-03  0 
 -4.239869e-03  -1.366124e-02  0 
 -2.157329e-03  -9.730469e-03  0 
 -6.854322e-04  -9.699464e-03  0 
 7.293669e-04  -9.699478e-03  0 
 2.201342e-03  -9.730469e-03  0 
 3.504750e-03  -9.762880e-03  0 
 -2.446693e-03  -1.363357e-02  0 
 -8.218299e-04  -1.361397e-02  0 
 8.658206e-04  -1.361398e-02  0 
 2.490669e-03  -1.363361e-02  0 
 4.283796e-03  -1.366128e-02  0 
VECTORS displacement_ITER5 FLOAT
 -3.460565e-03  -9.762821e-03  0 
 -4.239855e-03  -1.366112e-02  0 
 -2.157302e-03  -9.730386e-03  0 
 -6.854175e-04  -9.699378e-03  0 
 7.293852e-04  -9.699419e-03  0 
 2.201339e-03  -9.730400e-03  0 
 3.504742e-03  -9.762782e-03  0 
 -2.446656e-03  -1.363347e-02  0 
 -8.217964e-04  -1.361387e-02  0 
 8.658178e-04  -1.361388e-02  0 
 2.490653e-03  -1.363351e-02  0 
 4.283856e-03  -1.366114e-02  0 
VECTORS displacement_ITER6 FLOAT
 -3.460571e-03  -9.762812e-03  0 
 -4.239882e-03  -1.366111e-02  0 
 -2.157312e-03  -9.730382e-03  0 
 -6.854247e-04  -9.699375e-03  0 
 7.293773e-04  -9.699422e-03  0 
 2.201332e-03  -9.730402e-03  0 
 3.504749e-03  -9.762792e-03  0 
 -2.446664e-03  -1.363348e-02  0 
 -8.218020e-04  -1.361387e-02  0 
 8.658099e-04  -1.361389e-02  0 
 2.490648e-03  -1.363351e-02  0 
 4.283850e-03  -1.366115e-02  0 
VECTORS displacement_ITER7 FLOAT
 -3.460573e-03  -9.762812e-03  0 
 -4.239878e-03  -1.366111e-02  0 
 -2.157310e-03  -9.730379e-03  0 
 -6.854229e-04  -9.699372e-03  0 
 7.293795e-04  -9.699419e-03  0 
 2.201334e-03  -9.730398e-03  0 
 3.504751e-03  -9.762789e-03  0 
 -2.446662e-03  -1.363347e-02  0 
 -8.218010e-04  -1.361387e-02  0 
 8.658125e-04  -1.361388e-02  0 
 2.490650e-03  -1.363351e-02  0 
 4.283853e-03  -1.366115e-02  0 
VECTORS displacement_ITER8 FLOAT
 -3.460573e-03  -9.762811e-03  0 
 -4.239878e-03  -1.366111e-02  0 
 -2.157310e-03  -9.730379e-03  0 
 -6.854236e-04  -9.699371e-03  0 
 7.293792e-04  -9.699418e-03  0 
 2.201333e-03  -9.730398e-03  0 
 3.504751e-03  -9.762788e-03  0 
 -2.446663e-03  -1.363347e-02  0 
 -8.218017e-04  -1.361387e-02  0 
 8.658122e-04  -1.361388e-02  0 
 2.490649e-03  -1.363351e-02  0 
 4.283852e-03  -1.366115e-02  0 
VECTORS displacement_ITER9 FLOAT
 -3.460572e-03  -9.762811e-03  0 
 -4.239878e-03  -1.366111e-02  0 
 -2.157310e-03  -9.730379e-03  0 
 -6.854235e-04  -9.699371e-03  0 
 7.293792e-04  -9.699418e-03  0 
 2.201333e-03  -9.730398e-03  0 
 3.504751e-03  -9.762788e-03  0 
 -2.446663e-03  -1.363347e-02  0 
 -8.218016e-04  -1.361387e-02  0 
 8.658123e-04  -1.361388e-02  0 
 2.490649e-03  -1.363351e-02  0 
 4.283853e-03  -1.366115e-02  0 
VECTORS displacement_ITER10 FLOAT
 -3.460572e-03  -9.762811e-03  0 
 -4.239878e-03  -1.366111e-02  0 
 -2.157310e-03  -9.730379e-03  0 
 -6.854235e-04  -9.699371e-03  0 
 7.293792e-04  -9.699418e-03  0 
 2.201333e-03  -9.730398e-03  0 
 3.504751e-03  -9.762788e-03  0 
 -2.446663e-03  -1.363347e-02  0 
 -8.218016e-04  -1.361387e-02  0 
 8.658123e-04  -1.361388e-02  0 
 2.490649e-03  -1.363351e-02  0 
 4.283853e-03  -1.366115e-02  0 
CELL_DATA 5
TENSORS element_stresses FLOAT
 -1.124843e-01  -4.630630e-03  0 
 -4.630630e-03  -1.872804e-02  0 
 0  0  0 

 -4.261244e-01  -5.824894e-02  0 
 -5.824894e-02  -1.312648e-03  0 
 0  0  0 

 1.285673e-06  -5.609222e-03  0 
 -5.609222e-03  -1.403089e-05  0 
 0  0  0 

 4.261462e-01  -5.815200e-02  0 
 -5.815200e-02  1.323250e-03  0 
 0  0  0 

 1.124611e-01  -4.609214e-03  0 
 -4.609214e-03  1.873101e-02  0 
 0  0  0 

TENSORS element_stresses FLOAT
 -1.124843e-01  -4.630630e-03  0 
 -4.630630e-03  -1.872804e-02  0 
 0  0  0 

 -4.261244e-01  -5.824894e-02  0 
 -5.824894e-02  -1.312648e-03  0 
 0  0  0 

 1.285673e-06  -5.609222e-03  0 
 -5.609222e-03  -1.403089e-05  0 
 0  0  0 

 4.261462e-01  -5.815200e-02  0 
 -5.815200e-02  1.323250e-03  0 
 0  0  0 

 1.124611e-01  -4.609214e-03  0 
 -4.609214e-03  1.873101e-02  0 
 0  0  0 

