# vtk DataFile Version 3.1
this is an vtk file created by FEMAC
ASCII
DATASET UNSTRUCTURED_GRID
POINTS 12 FLOAT
1.000000 0.000000 0.000000
1.500000 0.000000 0.000000
1.000000 0.200000 0.000000
1.000000 0.400000 0.000000
1.000000 0.600000 0.000000
1.000000 0.800000 0.000000
1.000000 1.000000 0.000000
1.500000 0.200000 0.000000
1.500000 0.400000 0.000000
1.500000 0.600000 0.000000
1.500000 0.800000 0.000000
1.500000 1.000000 0.000000
CELLS 5 25 
4 0 1 7 2
4 2 7 8 3
4 3 8 9 4
4 4  9 10  5
4 5 10 11  6
CELL_TYPES 5
9 9 9 9 9 
POINT_DATA 12
VECTORS displacement_ITER1 FLOAT
 -1.892315e-03  -1.467683e-03  0 
 -2.158749e-03  -3.562838e-03  0 
 -9.606761e-04  -1.413110e-03  0 
 -3.373640e-04  -1.356990e-03  0 
 3.875403e-04  -1.355932e-03  0 
 9.981358e-04  -1.403455e-03  0 
 1.936159e-03  -1.456368e-03  0 
 -1.416036e-03  -3.519340e-03  0 
 -4.355414e-04  -3.476388e-03  0 
 4.786412e-04  -3.476537e-03  0 
 1.458200e-03  -3.519329e-03  0 
 2.204649e-03  -3.565537e-03  0 
VECTORS displacement_ITER2 FLOAT
 -1.888334e-03  -1.467645e-03  0 
 -2.154969e-03  -3.563127e-03  0 
 -9.551404e-04  -1.415196e-03  0 
 -3.381101e-04  -1.358955e-03  0 
 3.885299e-04  -1.358490e-03  0 
 9.936978e-04  -1.406188e-03  0 
 1.931938e-03  -1.458520e-03  0 
 -1.414400e-03  -3.516984e-03  0 
 -4.316736e-04  -3.474098e-03  0 
 4.755283e-04  -3.473572e-03  0 
 1.457409e-03  -3.516473e-03  0 
 2.199750e-03  -3.563048e-03  0 
VECTORS displacement_ITER3 FLOAT
 -1.888924e-03  -1.469479e-03  0 
 -2.155915e-03  -3.566405e-03  0 
 -9.549346e-04  -1.417000e-03  0 
 -3.390758e-04  -1.360737e-03  0 
 3.900469e-04  -1.360487e-03  0 
 9.943295e-04  -1.408290e-03  0 
 1.932791e-03  -1.461003e-03  0 
 -1.415011e-03  -3.520054e-03  0 
 -4.305635e-04  -3.477128e-03  0 
 4.751345e-04  -3.476461e-03  0 
 1.458624e-03  -3.519480e-03  0 
 2.201165e-03  -3.565994e-03  0 
VECTORS displacement_ITER4 FLOAT
 -1.888908e-03  -1.469658e-03  0 
 -2.155864e-03  -3.566277e-03  0 
 -9.549564e-04  -1.417060e-03  0 
 -3.391495e-04  -1.360805e-03  0 
 3.900652e-04  -1.360519e-03  0 
 9.942586e-04  -1.408322e-03  0 
 1.932769e-03  -1.461045e-03  0 
 -1.415119e-03  -3.520070e-03  0 
 -4.305677e-04  -3.477129e-03  0 
 4.750588e-04  -3.476497e-03  0 
 1.458653e-03  -3.519506e-03  0 
 2.201131e-03  -3.566004e-03  0 
VECTORS displacement_ITER5 FLOAT
 -1.888910e-03  -1.469672e-03  0 
 -2.155866e-03  -3.566225e-03  0 
 -9.549808e-04  -1.417060e-03  0 
 -3.391597e-04  -1.360807e-03  0 
 3.900477e-04  -1.360508e-03  0 
 9.942507e-04  -1.408312e-03  0 
 1.932767e-03  -1.461020e-03  0 
 -1.415149e-03  -3.520034e-03  0 
 -4.305679e-04  -3.477090e-03  0 
 4.750343e-04  -3.476472e-03  0 
 1.458650e-03  -3.519482e-03  0 
 2.201129e-03  -3.565996e-03  0 
VECTORS displacement_ITER6 FLOAT
 -1.888914e-03  -1.469671e-03  0 
 -2.155873e-03  -3.566220e-03  0 
 -9.549892e-04  -1.417058e-03  0 
 -3.391605e-04  -1.360806e-03  0 
 3.900431e-04  -1.360505e-03  0 
 9.942531e-04  -1.408309e-03  0 
 1.932769e-03  -1.461015e-03  0 
 -1.415155e-03  -3.520026e-03  0 
 -4.305687e-04  -3.477083e-03  0 
 4.750305e-04  -3.476465e-03  0 
 1.458651e-03  -3.519475e-03  0 
 2.201130e-03  -3.565990e-03  0 
VECTORS displacement_ITER7 FLOAT
 -1.888914e-03  -1.469669e-03  0 
 -2.155873e-03  -3.566216e-03  0 
 -9.549904e-04  -1.417057e-03  0 
 -3.391588e-04  -1.360804e-03  0 
 3.900426e-04  -1.360503e-03  0 
 9.942556e-04  -1.408307e-03  0 
 1.932769e-03  -1.461014e-03  0 
 -1.415156e-03  -3.520023e-03  0 
 -4.305678e-04  -3.477079e-03  0 
 4.750308e-04  -3.476461e-03  0 
 1.458653e-03  -3.519471e-03  0 
 2.201131e-03  -3.565986e-03  0 
VECTORS displacement_ITER8 FLOAT
 -1.888914e-03  -1.469668e-03  0 
 -2.155873e-03  -3.566215e-03  0 
 -9.549908e-04  -1.417056e-03  0 
 -3.391588e-04  -1.360804e-03  0 
 3.900424e-04  -1.360503e-03  0 
 9.942559e-04  -1.408307e-03  0 
 1.932770e-03  -1.461014e-03  0 
 -1.415156e-03  -3.520022e-03  0 
 -4.305678e-04  -3.477078e-03  0 
 4.750307e-04  -3.476461e-03  0 
 1.458654e-03  -3.519471e-03  0 
 2.201131e-03  -3.565986e-03  0 
VECTORS displacement_ITER9 FLOAT
 -1.888914e-03  -1.469668e-03  0 
 -2.155873e-03  -3.566215e-03  0 
 -9.549909e-04  -1.417056e-03  0 
 -3.391588e-04  -1.360804e-03  0 
 3.900425e-04  -1.360503e-03  0 
 9.942560e-04  -1.408307e-03  0 
 1.932770e-03  -1.461014e-03  0 
 -1.415156e-03  -3.520022e-03  0 
 -4.305678e-04  -3.477078e-03  0 
 4.750307e-04  -3.476461e-03  0 
 1.458654e-03  -3.519471e-03  0 
 2.201131e-03  -3.565986e-03  0 
VECTORS displacement_ITER10 FLOAT
 -1.888914e-03  -1.469668e-03  0 
 -2.155873e-03  -3.566215e-03  0 
 -9.549909e-04  -1.417056e-03  0 
 -3.391588e-04  -1.360804e-03  0 
 3.900425e-04  -1.360503e-03  0 
 9.942560e-04  -1.408307e-03  0 
 1.932770e-03  -1.461014e-03  0 
 -1.415156e-03  -3.520022e-03  0 
 -4.305678e-04  -3.477078e-03  0 
 4.750307e-04  -3.476461e-03  0 
 1.458654e-03  -3.519471e-03  0 
 2.201131e-03  -3.565986e-03  0 
CELL_DATA 5
TENSORS element_stresses FLOAT
 -7.176053e-01  -9.931812e-03  0 
 -9.931812e-03  3.173115e-02  0 
 0  0  0 

 -5.243704e-02  -1.678378e-02  0 
 -1.678378e-02  9.068003e-03  0 
 0  0  0 

 -6.298734e-03  -1.117177e-01  0 
 -1.117177e-01  4.068704e-04  0 
 0  0  0 

 5.288739e-02  -1.981005e-02  0 
 -1.981005e-02  -6.837335e-03  0 
 0  0  0 

 7.234537e-01  -1.050670e-02  0 
 -1.050670e-02  -3.101796e-02  0 
 0  0  0 

TENSORS element_stresses FLOAT
 -7.176053e-01  -9.931812e-03  0 
 -9.931812e-03  3.173115e-02  0 
 0  0  0 

 -5.243704e-02  -1.678378e-02  0 
 -1.678378e-02  9.068003e-03  0 
 0  0  0 

 -6.298734e-03  -1.117177e-01  0 
 -1.117177e-01  4.068704e-04  0 
 0  0  0 

 5.288739e-02  -1.981005e-02  0 
 -1.981005e-02  -6.837335e-03  0 
 0  0  0 

 7.234537e-01  -1.050670e-02  0 
 -1.050670e-02  -3.101796e-02  0 
 0  0  0 

