# vtk DataFile Version 3.1
this is an vtk file created by FEMAC
ASCII
DATASET UNSTRUCTURED_GRID
POINTS 12 FLOAT
0.500000 0.000000 0.000000
1.000000 0.000000 0.000000
0.500000 0.200000 0.000000
0.500000 0.400000 0.000000
0.500000 0.600000 0.000000
0.500000 0.800000 0.000000
0.500000 1.000000 0.000000
1.000000 0.200000 0.000000
1.000000 0.400000 0.000000
1.000000 0.600000 0.000000
1.000000 0.800000 0.000000
1.000000 1.000000 0.000000
CELLS 5 25 
4 0 1 7 2
4 2 7 8 3
4 3 8 9 4
4 4  9 10  5
4 5 10 11  6
CELL_TYPES 5
9 9 9 9 9 
POINT_DATA 12
VECTORS displacement_ITER1 FLOAT
 -4.469705e-04  -1.893567e-04  0 
 -1.895878e-03  -1.460505e-03  0 
 -4.125002e-04  -1.427375e-04  0 
 -6.274633e-05  -1.267621e-04  0 
 1.093380e-04  -1.386560e-04  0 
 4.560745e-04  -1.738706e-04  0 
 4.002676e-04  -2.192013e-04  0 
 -9.539350e-04  -1.414165e-03  0 
 -3.425765e-04  -1.356978e-03  0 
 3.929751e-04  -1.358288e-03  0 
 9.937552e-04  -1.406404e-03  0 
 1.937139e-03  -1.457198e-03  0 
VECTORS displacement_ITER2 FLOAT
 -4.472578e-04  -1.912166e-04  0 
 -1.888022e-03  -1.467762e-03  0 
 -4.117260e-04  -1.428576e-04  0 
 -6.276281e-05  -1.261657e-04  0 
 1.094748e-04  -1.382876e-04  0 
 4.553891e-04  -1.738452e-04  0 
 4.004077e-04  -2.209509e-04  0 
 -9.551243e-04  -1.414299e-03  0 
 -3.411849e-04  -1.358011e-03  0 
 3.919312e-04  -1.358356e-03  0 
 9.944946e-04  -1.406096e-03  0 
 1.930486e-03  -1.460470e-03  0 
VECTORS displacement_ITER3 FLOAT
 -4.474799e-04  -1.916913e-04  0 
 -1.888791e-03  -1.469951e-03  0 
 -4.116760e-04  -1.431192e-04  0 
 -6.235999e-05  -1.265419e-04  0 
 1.092887e-04  -1.384518e-04  0 
 4.555219e-04  -1.737229e-04  0 
 4.002968e-04  -2.205183e-04  0 
 -9.550100e-04  -1.416959e-03  0 
 -3.392340e-04  -1.360746e-03  0 
 3.901487e-04  -1.360342e-03  0 
 9.942369e-04  -1.408161e-03  0 
 1.932882e-03  -1.460837e-03  0 
VECTORS displacement_ITER4 FLOAT
 -4.474702e-04  -1.916764e-04  0 
 -1.888867e-03  -1.469723e-03  0 
 -4.116856e-04  -1.431093e-04  0 
 -6.235216e-05  -1.265644e-04  0 
 1.092587e-04  -1.384401e-04  0 
 4.555184e-04  -1.737123e-04  0 
 4.003133e-04  -2.205837e-04  0 
 -9.549947e-04  -1.417082e-03  0 
 -3.391422e-04  -1.360835e-03  0 
 3.900328e-04  -1.360499e-03  0 
 9.942519e-04  -1.408311e-03  0 
 1.932798e-03  -1.460959e-03  0 
VECTORS displacement_ITER5 FLOAT
 -4.474635e-04  -1.916622e-04  0 
 -1.888902e-03  -1.469676e-03  0 
 -4.116886e-04  -1.431031e-04  0 
 -6.235750e-05  -1.265628e-04  0 
 1.092544e-04  -1.384363e-04  0 
 4.555169e-04  -1.737153e-04  0 
 4.003182e-04  -2.205976e-04  0 
 -9.549919e-04  -1.417064e-03  0 
 -3.391526e-04  -1.360811e-03  0 
 3.900369e-04  -1.360506e-03  0 
 9.942560e-04  -1.408311e-03  0 
 1.932769e-03  -1.461012e-03  0 
VECTORS displacement_ITER6 FLOAT
 -4.474620e-04  -1.916578e-04  0 
 -1.888914e-03  -1.469669e-03  0 
 -4.116894e-04  -1.431027e-04  0 
 -6.235870e-05  -1.265630e-04  0 
 1.092539e-04  -1.384356e-04  0 
 4.555171e-04  -1.737156e-04  0 
 4.003188e-04  -2.205997e-04  0 
 -9.549908e-04  -1.417058e-03  0 
 -3.391569e-04  -1.360805e-03  0 
 3.900404e-04  -1.360505e-03  0 
 9.942563e-04  -1.408309e-03  0 
 1.932767e-03  -1.461017e-03  0 
VECTORS displacement_ITER7 FLOAT
 -4.474620e-04  -1.916580e-04  0 
 -1.888914e-03  -1.469669e-03  0 
 -4.116896e-04  -1.431028e-04  0 
 -6.235879e-05  -1.265628e-04  0 
 1.092543e-04  -1.384360e-04  0 
 4.555175e-04  -1.737158e-04  0 
 4.003184e-04  -2.205985e-04  0 
 -9.549909e-04  -1.417056e-03  0 
 -3.391586e-04  -1.360804e-03  0 
 3.900423e-04  -1.360503e-03  0 
 9.942560e-04  -1.408307e-03  0 
 1.932769e-03  -1.461014e-03  0 
VECTORS displacement_ITER8 FLOAT
 -4.474620e-04  -1.916579e-04  0 
 -1.888914e-03  -1.469668e-03  0 
 -4.116897e-04  -1.431028e-04  0 
 -6.235881e-05  -1.265628e-04  0 
 1.092543e-04  -1.384360e-04  0 
 4.555175e-04  -1.737158e-04  0 
 4.003184e-04  -2.205986e-04  0 
 -9.549909e-04  -1.417056e-03  0 
 -3.391588e-04  -1.360804e-03  0 
 3.900425e-04  -1.360503e-03  0 
 9.942560e-04  -1.408307e-03  0 
 1.932769e-03  -1.461014e-03  0 
VECTORS displacement_ITER9 FLOAT
 -4.474620e-04  -1.916579e-04  0 
 -1.888914e-03  -1.469669e-03  0 
 -4.116897e-04  -1.431028e-04  0 
 -6.235880e-05  -1.265628e-04  0 
 1.092543e-04  -1.384360e-04  0 
 4.555175e-04  -1.737158e-04  0 
 4.003184e-04  -2.205985e-04  0 
 -9.549909e-04  -1.417056e-03  0 
 -3.391588e-04  -1.360804e-03  0 
 3.900425e-04  -1.360503e-03  0 
 9.942560e-04  -1.408307e-03  0 
 1.932770e-03  -1.461014e-03  0 
VECTORS displacement_ITER10 FLOAT
 -4.474620e-04  -1.916579e-04  0 
 -1.888914e-03  -1.469668e-03  0 
 -4.116897e-04  -1.431028e-04  0 
 -6.235880e-05  -1.265629e-04  0 
 1.092543e-04  -1.384360e-04  0 
 4.555175e-04  -1.737158e-04  0 
 4.003184e-04  -2.205985e-04  0 
 -9.549909e-04  -1.417056e-03  0 
 -3.391588e-04  -1.360804e-03  0 
 3.900425e-04  -1.360503e-03  0 
 9.942560e-04  -1.408307e-03  0 
 1.932770e-03  -1.461014e-03  0 
CELL_DATA 5
TENSORS element_stresses FLOAT
 -2.097668e-01  -9.825004e-03  0 
 -9.825004e-03  -3.763824e-02  0 
 0  0  0 

 -8.412162e-01  -7.329779e-02  0 
 -7.329779e-02  -7.038344e-02  0 
 0  0  0 

 -5.154966e-04  -1.571325e-02  0 
 -1.571325e-02  -3.047728e-03  0 
 0  0  0 

 8.321032e-01  -6.189702e-02  0 
 -6.189702e-02  4.192184e-02  0 
 0  0  0 

 2.193953e-01  -2.051695e-02  0 
 -2.051695e-02  4.092113e-02  0 
 0  0  0 

TENSORS element_stresses FLOAT
 -2.097668e-01  -9.825004e-03  0 
 -9.825004e-03  -3.763824e-02  0 
 0  0  0 

 -8.412162e-01  -7.329779e-02  0 
 -7.329779e-02  -7.038344e-02  0 
 0  0  0 

 -5.154966e-04  -1.571325e-02  0 
 -1.571325e-02  -3.047728e-03  0 
 0  0  0 

 8.321032e-01  -6.189702e-02  0 
 -6.189702e-02  4.192184e-02  0 
 0  0  0 

 2.193953e-01  -2.051695e-02  0 
 -2.051695e-02  4.092113e-02  0 
 0  0  0 

