# vtk DataFile Version 3.1
this is an vtk file created by FEMAC
ASCII
DATASET UNSTRUCTURED_GRID
POINTS 12 FLOAT
2.000000 0.000000 0.000000
2.500000 0.000000 0.000000
2.000000 0.200000 0.000000
2.000000 0.400000 0.000000
2.000000 0.600000 0.000000
2.000000 0.800000 0.000000
2.000000 1.000000 0.000000
2.500000 0.200000 0.000000
2.500000 0.400000 0.000000
2.500000 0.600000 0.000000
2.500000 0.800000 0.000000
2.500000 1.000000 0.000000
CELLS 5 25 
4 0 1 7 2
4 2 7 8 3
4 3 8 9 4
4 4  9 10  5
4 5 10 11  6
CELL_TYPES 5
9 9 9 9 9 
POINT_DATA 12
VECTORS displacement_ITER1 FLOAT
 -3.269542e-03  -6.331811e-03  0 
 -3.464985e-03  -9.774492e-03  0 
 -1.826864e-03  -6.294131e-03  0 
 -6.211480e-04  -6.265440e-03  0 
 6.669863e-04  -6.265845e-03  0 
 1.872851e-03  -6.294142e-03  0 
 3.314484e-03  -6.334146e-03  0 
 -2.157617e-03  -9.740845e-03  0 
 -6.874041e-04  -9.710345e-03  0 
 7.336932e-04  -9.709889e-03  0 
 2.203562e-03  -9.741093e-03  0 
 3.509473e-03  -9.772432e-03  0 
VECTORS displacement_ITER2 FLOAT
 -3.263149e-03  -6.323990e-03  0 
 -3.458673e-03  -9.757071e-03  0 
 -1.823094e-03  -6.284701e-03  0 
 -6.225924e-04  -6.256042e-03  0 
 6.658418e-04  -6.256078e-03  0 
 1.866665e-03  -6.284545e-03  0 
 3.306690e-03  -6.323881e-03  0 
 -2.155886e-03  -9.724489e-03  0 
 -6.861731e-04  -9.693668e-03  0 
 7.294877e-04  -9.693516e-03  0 
 2.199362e-03  -9.724483e-03  0 
 3.502148e-03  -9.757005e-03  0 
VECTORS displacement_ITER3 FLOAT
 -3.264868e-03  -6.328634e-03  0 
 -3.460712e-03  -9.763082e-03  0 
 -1.824129e-03  -6.288930e-03  0 
 -6.235704e-04  -6.260268e-03  0 
 6.672723e-04  -6.260148e-03  0 
 1.868327e-03  -6.288687e-03  0 
 3.309090e-03  -6.328264e-03  0 
 -2.157434e-03  -9.730754e-03  0 
 -6.855717e-04  -9.699750e-03  0 
 7.294600e-04  -9.699835e-03  0 
 2.201376e-03  -9.730798e-03  0 
 3.504973e-03  -9.763253e-03  0 
VECTORS displacement_ITER4 FLOAT
 -3.264697e-03  -6.328436e-03  0 
 -3.460599e-03  -9.762884e-03  0 
 -1.823995e-03  -6.288814e-03  0 
 -6.235834e-04  -6.260159e-03  0 
 6.672961e-04  -6.260045e-03  0 
 1.868228e-03  -6.288599e-03  0 
 3.308911e-03  -6.328211e-03  0 
 -2.157331e-03  -9.730467e-03  0 
 -6.854504e-04  -9.699457e-03  0 
 7.293774e-04  -9.699518e-03  0 
 2.201323e-03  -9.730494e-03  0 
 3.504766e-03  -9.762886e-03  0 
VECTORS displacement_ITER5 FLOAT
 -3.264667e-03  -6.328354e-03  0 
 -3.460562e-03  -9.762814e-03  0 
 -1.823953e-03  -6.288753e-03  0 
 -6.235617e-04  -6.260097e-03  0 
 6.673086e-04  -6.259997e-03  0 
 1.868226e-03  -6.288550e-03  0 
 3.308891e-03  -6.328168e-03  0 
 -2.157302e-03  -9.730381e-03  0 
 -6.854192e-04  -9.699374e-03  0 
 7.293828e-04  -9.699422e-03  0 
 2.201331e-03  -9.730401e-03  0 
 3.504750e-03  -9.762794e-03  0 
VECTORS displacement_ITER6 FLOAT
 -3.264676e-03  -6.328350e-03  0 
 -3.460573e-03  -9.762815e-03  0 
 -1.823961e-03  -6.288748e-03  0 
 -6.235681e-04  -6.260092e-03  0 
 6.673050e-04  -6.259993e-03  0 
 1.868224e-03  -6.288546e-03  0 
 3.308892e-03  -6.328165e-03  0 
 -2.157310e-03  -9.730382e-03  0 
 -6.854246e-04  -9.699375e-03  0 
 7.293785e-04  -9.699421e-03  0 
 2.201331e-03  -9.730401e-03  0 
 3.504749e-03  -9.762791e-03  0 
VECTORS displacement_ITER7 FLOAT
 -3.264676e-03  -6.328347e-03  0 
 -3.460572e-03  -9.762812e-03  0 
 -1.823960e-03  -6.288744e-03  0 
 -6.235675e-04  -6.260089e-03  0 
 6.673069e-04  -6.259990e-03  0 
 1.868227e-03  -6.288543e-03  0 
 3.308894e-03  -6.328163e-03  0 
 -2.157310e-03  -9.730379e-03  0 
 -6.854233e-04  -9.699372e-03  0 
 7.293797e-04  -9.699419e-03  0 
 2.201333e-03  -9.730399e-03  0 
 3.504751e-03  -9.762789e-03  0 
VECTORS displacement_ITER8 FLOAT
 -3.264676e-03  -6.328347e-03  0 
 -3.460573e-03  -9.762811e-03  0 
 -1.823960e-03  -6.288744e-03  0 
 -6.235679e-04  -6.260089e-03  0 
 6.673065e-04  -6.259990e-03  0 
 1.868226e-03  -6.288542e-03  0 
 3.308893e-03  -6.328162e-03  0 
 -2.157310e-03  -9.730379e-03  0 
 -6.854236e-04  -9.699371e-03  0 
 7.293792e-04  -9.699418e-03  0 
 2.201333e-03  -9.730398e-03  0 
 3.504751e-03  -9.762788e-03  0 
VECTORS displacement_ITER9 FLOAT
 -3.264676e-03  -6.328347e-03  0 
 -3.460572e-03  -9.762811e-03  0 
 -1.823960e-03  -6.288744e-03  0 
 -6.235678e-04  -6.260089e-03  0 
 6.673065e-04  -6.259990e-03  0 
 1.868226e-03  -6.288542e-03  0 
 3.308893e-03  -6.328162e-03  0 
 -2.157310e-03  -9.730379e-03  0 
 -6.854235e-04  -9.699371e-03  0 
 7.293792e-04  -9.699418e-03  0 
 2.201333e-03  -9.730398e-03  0 
 3.504751e-03  -9.762788e-03  0 
VECTORS displacement_ITER10 FLOAT
 -3.264676e-03  -6.328347e-03  0 
 -3.460572e-03  -9.762811e-03  0 
 -1.823960e-03  -6.288744e-03  0 
 -6.235678e-04  -6.260089e-03  0 
 6.673065e-04  -6.259990e-03  0 
 1.868226e-03  -6.288542e-03  0 
 3.308893e-03  -6.328162e-03  0 
 -2.157310e-03  -9.730379e-03  0 
 -6.854235e-04  -9.699371e-03  0 
 7.293792e-04  -9.699418e-03  0 
 2.201333e-03  -9.730398e-03  0 
 3.504751e-03  -9.762788e-03  0 
CELL_DATA 5
TENSORS element_stresses FLOAT
 -5.222196e-01  -1.242661e-02  0 
 -1.242661e-02  2.342302e-02  0 
 0  0  0 

 -3.851196e-02  -1.540146e-02  0 
 -1.540146e-02  3.362017e-03  0 
 0  0  0 

 2.814558e-04  -8.809124e-02  0 
 -8.809124e-02  2.148384e-04  0 
 0  0  0 

 3.851984e-02  -1.531547e-02  0 
 -1.531547e-02  -3.327080e-03  0 
 0  0  0 

 5.219303e-01  -1.251523e-02  0 
 -1.251523e-02  -2.344679e-02  0 
 0  0  0 

TENSORS element_stresses FLOAT
 -5.222196e-01  -1.242661e-02  0 
 -1.242661e-02  2.342302e-02  0 
 0  0  0 

 -3.851196e-02  -1.540146e-02  0 
 -1.540146e-02  3.362017e-03  0 
 0  0  0 

 2.814558e-04  -8.809124e-02  0 
 -8.809124e-02  2.148384e-04  0 
 0  0  0 

 3.851984e-02  -1.531547e-02  0 
 -1.531547e-02  -3.327080e-03  0 
 0  0  0 

 5.219303e-01  -1.251523e-02  0 
 -1.251523e-02  -2.344679e-02  0 
 0  0  0 

