# vtk DataFile Version 3.1
this is an vtk file created by FEMAC
ASCII
DATASET UNSTRUCTURED_GRID
POINTS 12 FLOAT
5.000000 0.000000 0.000000
5.500000 0.000000 0.000000
5.000000 0.200000 0.000000
5.000000 0.400000 0.000000
5.000000 0.600000 0.000000
5.000000 0.800000 0.000000
5.000000 1.000000 0.000000
5.500000 0.200000 0.000000
5.500000 0.400000 0.000000
5.500000 0.600000 0.000000
5.500000 0.800000 0.000000
5.500000 1.000000 0.000000
CELLS 5 25 
4 0 1 7 2
4 2 7 8 3
4 3 8 9 4
4 4  9 10  5
4 5 10 11  6
CELL_TYPES 5
9 9 9 9 9 
POINT_DATA 12
VECTORS displacement_ITER1 FLOAT
 -5.259551e-03  -3.283210e-02  0 
 -5.302926e-03  -3.815914e-02  0 
 -3.113599e-03  -3.282323e-02  0 
 -1.028368e-03  -3.281632e-02  0 
 1.072808e-03  -3.281741e-02  0 
 3.157317e-03  -3.282294e-02  0 
 5.301773e-03  -3.283276e-02  0 
 -3.189160e-03  -3.815220e-02  0 
 -1.047397e-03  -3.814529e-02  0 
 1.091601e-03  -3.814442e-02  0 
 3.232350e-03  -3.815202e-02  0 
 5.346159e-03  -3.815810e-02  0 
VECTORS displacement_ITER2 FLOAT
 -5.270230e-03  -3.283423e-02  0 
 -5.315574e-03  -3.817225e-02  0 
 -3.120764e-03  -3.282407e-02  0 
 -1.032799e-03  -3.281758e-02  0 
 1.076152e-03  -3.281772e-02  0 
 3.164084e-03  -3.282395e-02  0 
 5.313682e-03  -3.283406e-02  0 
 -3.196274e-03  -3.816541e-02  0 
 -1.048815e-03  -3.815818e-02  0 
 1.092356e-03  -3.815809e-02  0 
 3.239531e-03  -3.816550e-02  0 
 5.358839e-03  -3.817229e-02  0 
VECTORS displacement_ITER3 FLOAT
 -5.266001e-03  -3.283948e-02  0 
 -5.311021e-03  -3.817358e-02  0 
 -3.117582e-03  -3.282929e-02  0 
 -1.032046e-03  -3.282299e-02  0 
 1.076194e-03  -3.282290e-02  0 
 3.161673e-03  -3.282925e-02  0 
 5.310220e-03  -3.283941e-02  0 
 -3.193852e-03  -3.816700e-02  0 
 -1.047536e-03  -3.815969e-02  0 
 1.091707e-03  -3.815975e-02  0 
 3.237965e-03  -3.816707e-02  0 
 5.355176e-03  -3.817368e-02  0 
VECTORS displacement_ITER4 FLOAT
 -5.266050e-03  -3.283794e-02  0 
 -5.311070e-03  -3.817212e-02  0 
 -3.117603e-03  -3.282781e-02  0 
 -1.032140e-03  -3.282148e-02  0 
 1.076072e-03  -3.282147e-02  0 
 3.161532e-03  -3.282781e-02  0 
 5.310000e-03  -3.283791e-02  0 
 -3.193869e-03  -3.816546e-02  0 
 -1.047590e-03  -3.815813e-02  0 
 1.091525e-03  -3.815815e-02  0 
 3.237801e-03  -3.816546e-02  0 
 5.355019e-03  -3.817215e-02  0 
VECTORS displacement_ITER5 FLOAT
 -5.266043e-03  -3.283791e-02  0 
 -5.311067e-03  -3.817214e-02  0 
 -3.117579e-03  -3.282779e-02  0 
 -1.032110e-03  -3.282145e-02  0 
 1.076128e-03  -3.282145e-02  0 
 3.161596e-03  -3.282779e-02  0 
 5.310064e-03  -3.283791e-02  0 
 -3.193845e-03  -3.816548e-02  0 
 -1.047558e-03  -3.815816e-02  0 
 1.091577e-03  -3.815816e-02  0 
 3.237863e-03  -3.816548e-02  0 
 5.355085e-03  -3.817214e-02  0 
VECTORS displacement_ITER6 FLOAT
 -5.266057e-03  -3.283794e-02  0 
 -5.311078e-03  -3.817217e-02  0 
 -3.117590e-03  -3.282781e-02  0 
 -1.032122e-03  -3.282148e-02  0 
 1.076116e-03  -3.282148e-02  0 
 3.161584e-03  -3.282781e-02  0 
 5.310052e-03  -3.283794e-02  0 
 -3.193857e-03  -3.816550e-02  0 
 -1.047571e-03  -3.815818e-02  0 
 1.091565e-03  -3.815818e-02  0 
 3.237852e-03  -3.816550e-02  0 
 5.355073e-03  -3.817217e-02  0 
VECTORS displacement_ITER7 FLOAT
 -5.266054e-03  -3.283793e-02  0 
 -5.311075e-03  -3.817216e-02  0 
 -3.117587e-03  -3.282781e-02  0 
 -1.032119e-03  -3.282147e-02  0 
 1.076119e-03  -3.282147e-02  0 
 3.161587e-03  -3.282781e-02  0 
 5.310054e-03  -3.283793e-02  0 
 -3.193854e-03  -3.816550e-02  0 
 -1.047568e-03  -3.815818e-02  0 
 1.091568e-03  -3.815818e-02  0 
 3.237854e-03  -3.816550e-02  0 
 5.355075e-03  -3.817216e-02  0 
VECTORS displacement_ITER8 FLOAT
 -5.266055e-03  -3.283793e-02  0 
 -5.311076e-03  -3.817216e-02  0 
 -3.117588e-03  -3.282781e-02  0 
 -1.032119e-03  -3.282147e-02  0 
 1.076118e-03  -3.282147e-02  0 
 3.161586e-03  -3.282781e-02  0 
 5.310053e-03  -3.283793e-02  0 
 -3.193854e-03  -3.816550e-02  0 
 -1.047569e-03  -3.815818e-02  0 
 1.091568e-03  -3.815818e-02  0 
 3.237853e-03  -3.816550e-02  0 
 5.355074e-03  -3.817216e-02  0 
VECTORS displacement_ITER9 FLOAT
 -5.266055e-03  -3.283793e-02  0 
 -5.311076e-03  -3.817216e-02  0 
 -3.117588e-03  -3.282781e-02  0 
 -1.032119e-03  -3.282147e-02  0 
 1.076119e-03  -3.282147e-02  0 
 3.161586e-03  -3.282781e-02  0 
 5.310054e-03  -3.283793e-02  0 
 -3.193854e-03  -3.816550e-02  0 
 -1.047569e-03  -3.815818e-02  0 
 1.091568e-03  -3.815818e-02  0 
 3.237853e-03  -3.816550e-02  0 
 5.355075e-03  -3.817216e-02  0 
VECTORS displacement_ITER10 FLOAT
 -5.266055e-03  -3.283793e-02  0 
 -5.311076e-03  -3.817216e-02  0 
 -3.117588e-03  -3.282781e-02  0 
 -1.032119e-03  -3.282147e-02  0 
 1.076118e-03  -3.282147e-02  0 
 3.161586e-03  -3.282781e-02  0 
 5.310054e-03  -3.283793e-02  0 
 -3.193854e-03  -3.816550e-02  0 
 -1.047569e-03  -3.815818e-02  0 
 1.091568e-03  -3.815818e-02  0 
 3.237853e-03  -3.816550e-02  0 
 5.355075e-03  -3.817216e-02  0 
CELL_DATA 5
TENSORS element_stresses FLOAT
 -1.194458e-01  -5.920150e-03  0 
 -5.920150e-03  6.139548e-03  0 
 0  0  0 

 -8.953095e-03  -7.308739e-03  0 
 -7.308739e-03  7.283727e-04  0 
 0  0  0 

 -1.168590e-07  -4.229220e-02  0 
 -4.229220e-02  -1.518577e-07  0 
 0  0  0 

 8.953082e-03  -7.308749e-03  0 
 -7.308749e-03  -7.284157e-04  0 
 0  0  0 

 1.194459e-01  -5.920162e-03  0 
 -5.920162e-03  -6.139574e-03  0 
 0  0  0 

TENSORS element_stresses FLOAT
 -1.194458e-01  -5.920150e-03  0 
 -5.920150e-03  6.139548e-03  0 
 0  0  0 

 -8.953095e-03  -7.308739e-03  0 
 -7.308739e-03  7.283727e-04  0 
 0  0  0 

 -1.168590e-07  -4.229220e-02  0 
 -4.229220e-02  -1.518577e-07  0 
 0  0  0 

 8.953082e-03  -7.308749e-03  0 
 -7.308749e-03  -7.284157e-04  0 
 0  0  0 

 1.194459e-01  -5.920162e-03  0 
 -5.920162e-03  -6.139574e-03  0 
 0  0  0 

