# vtk DataFile Version 3.1
this is an vtk file created by FEMAC
ASCII
DATASET UNSTRUCTURED_GRID
POINTS 32 FLOAT
3.000000 3.000000 0.000000
3.000000 4.000000 0.000000
2.750000 3.000000 0.000000
3.000000 2.500000 0.000000
3.000000 2.750000 0.000000
3.000000 3.250000 0.000000
3.000000 3.500000 0.000000
3.000000 3.750000 0.000000
3.250000 3.000000 0.000000
3.500000 3.000000 0.000000
3.250000 4.000000 0.000000
3.500000 4.000000 0.000000
2.805000 2.745000 0.000000
2.808904 3.785023 0.000000
2.769602 3.187596 0.000000
2.818560 3.488721 0.000000
3.255000 2.805000 0.000000
3.183310 2.629173 0.000000
3.447447 3.528256 0.000000
3.255000 3.805000 0.000000
3.255000 3.195000 0.000000
3.169567 3.378219 0.000000
3.242859 3.565925 0.000000
3.413341 3.323754 0.000000
3.453287 3.717271 0.000000
3.630781 4.172236 0.000000
3.755447 4.375936 0.000000
3.512466 4.547863 0.000000
3.336997 4.345660 0.000000
3.536362 4.315974 0.000000
3.396523 4.159812 0.000000
3.186855 4.186208 0.000000
CELLS 42 168 
3 12  3  4
3 12  0  2
3 4  0 12
3 0 14  2
3 0  5 14
3 7  1 13
3 7 15  6
3 7 13 15
3 15  5  6
3 15 14  5
3 16  9  8
3 17  4  3
3 17 16  4
3 16  0  4
3 8  0 16
3 19 11 10
3 9 20  8
3 5 21  6
3 22  7  6
3 22 24 19
3 23 21 20
3 22 19  7
3 20 21  5
3 9 23 20
3 24 11 19
3 19  1  7
3 10  1 19
3 0 20  5
3 0  8 20
3 6 21 22
3 23 18 22
3 18 24 22
3 22 21 23
3 28 29 27
3 29 26 27
3 30 11 25
3 30 10 11
3 29 30 25
3 29 28 30
3 10 31  1
3 30 31 10
3 30 28 31
CELL_TYPES 42
5 5 5 5 5 5 5 5 5 5 5 5 5 5 5 5 5 5 5 5 5 5 5 5 5 5 5 5 5 5 5 5 5 5 5 5 5 5 5 5 5 5 
POINT_DATA 32
VECTORS displacement_ITER1 FLOAT
 -2.303743e-03  -1.339247e-01  0 
 4.063948e-02  -1.340661e-01  0 
 -2.251100e-03  -1.261765e-01  0 
 -1.748340e-02  -1.338345e-01  0 
 -9.920442e-03  -1.338727e-01  0 
 8.441970e-03  -1.339950e-01  0 
 1.918284e-02  -1.340462e-01  0 
 2.990960e-02  -1.340658e-01  0 
 -2.317388e-03  -1.447592e-01  0 
 -2.314727e-03  -1.555721e-01  0 
 4.066265e-02  -1.448404e-01  0 
 4.068554e-02  -1.556268e-01  0 
 -1.009375e-02  -1.279402e-01  0 
 2.994021e-02  -1.170727e-01  0 
 1.842448e-03  -1.103847e-01  0 
 1.715249e-02  -1.183319e-01  0 
 -6.328573e-03  -1.463671e-01  0 
 -1.178006e-02  -1.429557e-01  0 
 2.041605e-02  -1.532820e-01  0 
 3.227576e-02  -1.450307e-01  0 
 6.103579e-03  -1.449741e-01  0 
 1.396754e-02  -1.413212e-01  0 
 2.202206e-02  -1.444912e-01  0 
 1.164440e-02  -1.518004e-01  0 
 2.852290e-02  -1.535541e-01  0 
 5.206281e-02  -1.907768e-01  0 
 6.878448e-02  -2.887406e-01  0 
 1.026112e-01  -1.998122e-01  0 
 5.203551e-02  -1.570482e-01  0 
 5.075302e-02  -1.993593e-01  0 
 3.830171e-02  -1.612019e-01  0 
 3.821798e-02  -1.427538e-01  0 
VECTORS displacement_ITER2 FLOAT
 1.720189e-02  -1.177954e-01  0 
 8.318540e-02  -1.180496e-01  0 
 1.723924e-02  -9.940689e-02  0 
 -1.927416e-02  -1.176682e-01  0 
 -1.062840e-03  -1.177220e-01  0 
 3.376233e-02  -1.178864e-01  0 
 5.028688e-02  -1.179767e-01  0 
 6.675611e-02  -1.180283e-01  0 
 1.718794e-02  -1.344533e-01  0 
 1.719163e-02  -1.510870e-01  0 
 8.320865e-02  -1.345185e-01  0 
 8.322716e-02  -1.509841e-01  0 
 -1.455648e-03  -1.034837e-01  0 
 6.797698e-02  -9.681804e-02  0 
 2.764827e-02  -8.935664e-02  0 
 4.841535e-02  -9.803549e-02  0 
 5.285704e-03  -1.372984e-01  0 
 -7.982038e-03  -1.323474e-01  0 
 5.216524e-02  -1.475206e-01  0 
 7.038369e-02  -1.348271e-01  0 
 3.015215e-02  -1.347844e-01  0 
 4.226528e-02  -1.291543e-01  0 
 5.465261e-02  -1.340145e-01  0 
 3.868069e-02  -1.452798e-01  0 
 6.461665e-02  -1.478940e-01  0 
 7.640780e-02  -1.470217e-01  0 
 5.860076e-02  -1.528268e-01  0 
 4.602630e-02  -1.435618e-01  0 
 6.375372e-02  -1.497384e-01  0 
 6.525913e-02  -1.467538e-01  0 
 7.847017e-02  -1.457966e-01  0 
 7.463511e-02  -1.393821e-01  0 
VECTORS displacement_ITER3 FLOAT
 6.338291e-03  -7.693857e-02  0 
 4.567115e-02  -7.717172e-02  0 
 6.371069e-03  -6.865146e-02  0 
 -9.882785e-03  -7.674694e-02  0 
 -1.796996e-03  -7.682825e-02  0 
 1.621065e-02  -7.705975e-02  0 
 2.605906e-02  -7.715097e-02  0 
 3.587512e-02  -7.717905e-02  0 
 6.324090e-03  -8.693907e-02  0 
 6.334664e-03  -9.689882e-02  0 
 4.570839e-02  -8.703427e-02  0 
 4.573284e-02  -9.690903e-02  0 
 -1.996545e-03  -7.048399e-02  0 
 3.678251e-02  -6.182831e-02  0 
 1.257305e-02  -5.824685e-02  0 
 2.480254e-02  -6.320543e-02  0 
 1.171731e-03  -8.771011e-02  0 
 -4.794000e-03  -8.436866e-02  0 
 2.718780e-02  -9.477187e-02  0 
 3.803309e-02  -8.720343e-02  0 
 1.408030e-02  -8.714465e-02  0 
 2.129007e-02  -8.380693e-02  0 
 2.866029e-02  -8.671974e-02  0 
 1.916875e-02  -9.342014e-02  0 
 3.459392e-02  -9.501561e-02  0 
 5.304433e-02  -1.084356e-01  0 
 5.381233e-02  -1.225685e-01  0 
 4.837409e-02  -1.089681e-01  0 
 4.797548e-02  -1.006370e-01  0 
 5.141110e-02  -1.078090e-01  0 
 4.768555e-02  -9.613185e-02  0 
 4.391672e-02  -8.820182e-02  0 
VECTORS displacement_ITER4 FLOAT
 1.892811e-03  -6.431793e-02  0 
 8.952035e-03  -6.451883e-02  0 
 1.928325e-03  -6.901735e-02  0 
 1.170486e-02  -6.408146e-02  0 
 6.776808e-03  -6.418118e-02  0 
 3.663117e-03  -6.446489e-02  0 
 5.428460e-03  -6.455142e-02  0 
 7.188012e-03  -6.455472e-02  0 
 1.876869e-03  -6.624696e-02  0 
 1.892223e-03  -6.812054e-02  0 
 9.003553e-03  -6.637655e-02  0 
 9.035865e-03  -6.826371e-02  0 
 6.831792e-03  -6.798415e-02  0 
 7.298453e-03  -5.625661e-02  0 
 1.506867e-03  -5.564033e-02  0 
 4.650202e-03  -5.770448e-02  0 
 5.606384e-03  -6.478324e-02  0 
 9.049164e-03  -6.353210e-02  0 
 5.651170e-03  -6.773486e-02  0 
 7.569430e-03  -6.637659e-02  0 
 3.322391e-03  -6.629712e-02  0 
 4.596033e-03  -6.573315e-02  0 
 5.895063e-03  -6.628662e-02  0 
 4.244618e-03  -6.746002e-02  0 
 6.952789e-03  -6.782036e-02  0 
 3.288609e-02  -1.038158e-01  0 
 6.029329e-02  -1.541796e-01  0 
 7.503654e-02  -1.130826e-01  0 
 3.764890e-02  -7.714049e-02  0 
 4.201412e-02  -1.062316e-01  0 
 1.667806e-02  -7.464065e-02  0 
 1.407674e-02  -6.253869e-02  0 
VECTORS displacement_ITER5 FLOAT
 -3.811286e-04  -4.893790e-02  0 
 4.435390e-02  -4.933640e-02  0 
 -3.607992e-04  -3.760115e-02  0 
 -2.265541e-02  -4.866937e-02  0 
 -1.153855e-02  -4.878057e-02  0 
 1.089925e-02  -4.911772e-02  0 
 2.212790e-02  -4.927083e-02  0 
 3.327571e-02  -4.933477e-02  0 
 -4.018577e-04  -6.039590e-02  0 
 -3.899866e-04  -7.179736e-02  0 
 4.440837e-02  -6.050589e-02  0 
 4.443787e-02  -7.167905e-02  0 
 -1.181022e-02  -4.006860e-02  0 
 3.467565e-02  -3.509268e-02  0 
 7.195318e-03  -3.064151e-02  0 
 2.125730e-02  -3.612120e-02  0 
 -8.518560e-03  -6.120938e-02  0 
 -1.685279e-02  -5.766510e-02  0 
 2.341002e-02  -6.931222e-02  0 
 3.572252e-02  -6.069550e-02  0 
 8.478798e-03  -6.063152e-02  0 
 1.670490e-02  -5.683374e-02  0 
 2.509472e-02  -6.015221e-02  0 
 1.428955e-02  -6.779601e-02  0 
 3.182033e-02  -6.956269e-02  0 
 4.272650e-02  -5.892754e-02  0 
 3.160629e-02  -1.770718e-02  0 
 -2.047038e-04  -5.655130e-02  0 
 3.317560e-02  -7.301728e-02  0 
 3.918729e-02  -5.318488e-02  0 
 4.668816e-02  -6.417298e-02  0 
 4.091275e-02  -6.475124e-02  0 
VECTORS displacement_ITER6 FLOAT
 -1.485784e-03  -3.552570e-02  0 
 4.062897e-02  -3.598403e-02  0 
 -1.473657e-03  -2.354772e-02  0 
 -2.503606e-02  -3.522769e-02  0 
 -1.328175e-02  -3.535064e-02  0 
 9.167826e-03  -3.572277e-02  0 
 1.975590e-02  -3.589939e-02  0 
 3.023941e-02  -3.598017e-02  0 
 -1.509723e-03  -4.637020e-02  0 
 -1.499823e-03  -5.715529e-02  0 
 4.069191e-02  -4.648060e-02  0 
 4.072468e-02  -5.697436e-02  0 
 -1.357135e-02  -2.613863e-02  0 
 3.162983e-02  -2.380724e-02  0 
 6.324289e-03  -1.953573e-02  0 
 1.915447e-02  -2.443725e-02  0 
 -1.001622e-02  -4.748523e-02  0 
 -1.885866e-02  -4.417210e-02  0 
 2.096374e-02  -5.476983e-02  0 
 3.253822e-02  -4.665343e-02  0 
 6.890833e-03  -4.659176e-02  0 
 1.465168e-02  -4.301509e-02  0 
 2.255468e-02  -4.614377e-02  0 
 1.237637e-02  -5.335432e-02  0 
 2.887374e-02  -5.499139e-02  0 
 3.479028e-02  -3.780554e-02  0 
 2.284643e-02  7.002379e-03  0 
 -9.502790e-03  -3.694373e-02  0 
 2.514246e-02  -5.603403e-02  0 
 3.067237e-02  -3.253197e-02  0 
 4.143522e-02  -4.823488e-02  0 
 3.621917e-02  -5.102362e-02  0 
VECTORS displacement_ITER7 FLOAT
 7.732169e-03  -1.438789e-02  0 
 -2.143854e-03  -1.474683e-02  0 
 7.747016e-03  -2.000861e-02  0 
 1.940895e-02  -1.407366e-02  0 
 1.354862e-02  -1.420395e-02  0 
 5.342936e-03  -1.458596e-02  0 
 2.911924e-03  -1.473718e-02  0 
 4.126792e-04  -1.478276e-02  0 
 7.708075e-03  -1.219715e-02  0 
 7.719647e-03  -9.941740e-03  0 
 -2.067097e-03  -1.233350e-02  0 
 -2.024638e-03  -9.933755e-03  0 
 1.360908e-02  -1.872744e-02  0 
 1.892084e-04  -1.376813e-02  0 
 5.552258e-03  -1.346320e-02  0 
 2.948663e-03  -1.414366e-02  0 
 1.221234e-02  -1.153714e-02  0 
 1.607084e-02  -1.176168e-02  0 
 2.656318e-03  -1.034638e-02  0 
 -1.488232e-04  -1.223732e-02  0 
 5.934420e-03  -1.216111e-02  0 
 4.142450e-03  -1.303888e-02  0 
 2.273614e-03  -1.235802e-02  0 
 4.708407e-03  -1.067729e-02  0 
 7.414609e-04  -1.030014e-02  0 
 1.262510e-02  -3.385522e-02  0 
 4.103553e-02  -8.547420e-02  0 
 5.982761e-02  -4.937161e-02  0 
 1.806131e-02  -1.485749e-02  0 
 2.089847e-02  -3.924403e-02  0 
 1.207988e-03  -1.552305e-02  0 
 4.332272e-04  -8.811857e-03  0 
VECTORS displacement_ITER8 FLOAT
 5.731268e-03  -1.287356e-02  0 
 1.407895e-02  -1.333568e-02  0 
 5.737154e-03  -9.320543e-03  0 
 -9.615943e-04  -1.255357e-02  0 
 2.363583e-03  -1.268517e-02  0 
 7.954866e-03  -1.308380e-02  0 
 1.010739e-02  -1.327164e-02  0 
 1.214493e-02  -1.335316e-02  0 
 5.704188e-03  -1.529963e-02  0 
 5.711841e-03  -1.766395e-02  0 
 1.415918e-02  -1.541969e-02  0 
 1.420160e-02  -1.749742e-02  0 
 2.238913e-03  -1.004501e-02  0 
 1.254783e-02  -9.769164e-03  0 
 7.591353e-03  -7.071656e-03  0 
 1.013474e-02  -9.787039e-03  0 
 3.566312e-03  -1.640289e-02  0 
 6.031394e-04  -1.570011e-02  0 
 1.036306e-02  -1.703540e-02  0 
 1.258082e-02  -1.541374e-02  0 
 7.536691e-03  -1.535101e-02  0 
 9.115721e-03  -1.466030e-02  0 
 1.068037e-02  -1.531566e-02  0 
 8.680372e-03  -1.677299e-02  0 
 1.188654e-02  -1.706065e-02  0 
 1.220970e-02  -1.560729e-02  0 
 1.574887e-02  -2.418815e-02  0 
 1.367011e-02  -2.443604e-02  0 
 9.111205e-03  -1.849038e-02  0 
 1.127614e-02  -1.818101e-02  0 
 1.212906e-02  -1.674922e-02  0 
 1.043117e-02  -1.678545e-02  0 
VECTORS displacement_ITER9 FLOAT
 -2.994503e-03  -1.271832e-02  0 
 1.843569e-02  -1.317005e-02  0 
 -2.988562e-03  -6.635054e-03  0 
 -1.475388e-02  -1.240778e-02  0 
 -8.896231e-03  -1.253464e-02  0 
 2.503116e-03  -1.291963e-02  0 
 7.932310e-03  -1.310362e-02  0 
 1.324286e-02  -1.318754e-02  0 
 -3.023830e-03  -1.841249e-02  0 
 -3.020779e-03  -2.404704e-02  0 
 1.852072e-02  -1.852159e-02  0 
 1.856614e-02  -2.385786e-02  0 
 -9.070290e-03  -7.918071e-03  0 
 1.412298e-02  -8.416303e-03  0 
 1.728419e-03  -5.561496e-03  0 
 7.928370e-03  -8.317329e-03  0 
 -6.984230e-03  -1.930689e-02  0 
 -1.149827e-02  -1.753162e-02  0 
 8.555989e-03  -2.272709e-02  0 
 1.439767e-02  -1.857947e-02  0 
 1.360297e-03  -1.852646e-02  0 
 5.343139e-03  -1.671370e-02  0 
 9.369474e-03  -1.832618e-02  0 
 4.191184e-03  -2.202273e-02  0 
 1.255572e-02  -2.282120e-02  0 
 1.179045e-02  -1.226945e-02  0 
 6.718537e-03  -1.029753e-04  0 
 -2.327074e-03  -1.473100e-02  0 
 7.976958e-03  -2.092413e-02  0 
 9.155349e-03  -1.175145e-02  0 
 1.650317e-02  -1.939527e-02  0 
 1.510829e-02  -2.055116e-02  0 
VECTORS displacement_ITER10 FLOAT
 -3.405091e-04  -4.843053e-03  0 
 2.545937e-03  -5.220760e-03  0 
 -3.328559e-04  -6.218367e-03  0 
 2.819481e-03  -4.538943e-03  0 
 1.217994e-03  -4.662773e-03  0 
 4.938762e-04  -5.035838e-03  0 
 1.275748e-03  -5.198620e-03  0 
 1.961605e-03  -5.259879e-03  0 
 -3.689170e-04  -5.869864e-03  0 
 -3.653354e-04  -6.835734e-03  0 
 2.637392e-03  -5.981486e-03  0 
 2.687306e-03  -6.731491e-03  0 
 1.194714e-03  -5.863683e-03  0 
 2.444494e-03  -4.719474e-03  0 
 8.948406e-04  -3.941088e-03  0 
 1.569616e-03  -4.662303e-03  0 
 1.036519e-03  -5.712721e-03  0 
 2.013366e-03  -5.165414e-03  0 
 1.375487e-03  -6.528135e-03  0 
 2.095543e-03  -5.943777e-03  0 
 3.728851e-04  -5.892263e-03  0 
 9.442895e-04  -5.668100e-03  0 
 1.484270e-03  -5.919587e-03  0 
 8.056494e-04  -6.443547e-03  0 
 1.873281e-03  -6.529418e-03  0 
 3.883842e-03  -9.908953e-03  0 
 1.217364e-02  -2.576079e-02  0 
 2.043725e-02  -1.403056e-02  0 
 6.656282e-03  -4.431504e-03  0 
 6.411307e-03  -1.133709e-02  0 
 2.630494e-03  -6.616161e-03  0 
 3.185255e-03  -4.230175e-03  0 
VECTORS displacement_ITER11 FLOAT
 -1.762167e-03  -4.451690e-03  0 
 2.827890e-03  -4.830830e-03  0 
 -1.758204e-03  -5.016715e-03  0 
 -2.329534e-04  -4.148227e-03  0 
 -1.018159e-03  -4.270951e-03  0 
 -4.966385e-04  -4.644243e-03  0 
 7.142063e-04  -4.808764e-03  0 
 1.825247e-03  -4.871182e-03  0 
 -1.790196e-03  -5.908098e-03  0 
 -1.786652e-03  -7.303044e-03  0 
 2.920532e-03  -6.013687e-03  0 
 2.970683e-03  -7.181767e-03  0 
 -1.057547e-03  -4.835312e-03  0 
 2.491575e-03  -4.357452e-03  0 
 1.204483e-04  -3.933512e-03  0 
 1.062121e-03  -4.314008e-03  0 
 -9.897067e-04  -5.893545e-03  0 
 -5.821544e-04  -5.276688e-03  0 
 8.602179e-04  -6.901714e-03  0 
 2.051168e-03  -5.984936e-03  0 
 -7.127823e-04  -5.939195e-03  0 
 1.742974e-04  -5.567778e-03  0 
 1.035270e-03  -5.943308e-03  0 
 -5.833990e-05  -6.762622e-03  0 
 1.679288e-03  -6.907722e-03  0 
 1.371820e-03  -5.350606e-03  0 
 4.526262e-03  -1.018721e-02  0 
 8.789521e-03  -5.308285e-03  0 
 3.370480e-03  -3.010123e-03  0 
 2.605838e-03  -5.117504e-03  0 
 2.417190e-03  -5.520835e-03  0 
 3.136631e-03  -4.362955e-03  0 
VECTORS displacement_ITER12 FLOAT
 -6.563309e-03  3.158999e-04  0 
 3.555051e-03  -4.273428e-05  0 
 -6.557896e-03  -2.015750e-04  0 
 -5.126581e-03  6.138474e-04  0 
 -5.864581e-03  4.946365e-04  0 
 -3.925643e-03  1.273707e-04  0 
 -1.334908e-03  -2.964456e-05  0 
 1.163187e-03  -8.659308e-05  0 
 -6.592627e-03  -2.512818e-03  0 
 -6.590596e-03  -5.278815e-03  0 
 3.649082e-03  -2.618233e-03  0 
 3.700752e-03  -5.178287e-03  0 
 -5.903751e-03  -3.226897e-05  0 
 2.181957e-03  1.568790e-03  0 
 -3.575069e-03  1.313454e-03  0 
 -1.018790e-03  1.354783e-03  0 
 -5.909742e-03  -2.167936e-03  0 
 -5.387758e-03  -1.096553e-03  0 
 -1.032501e-03  -4.600018e-03  0 
 1.693718e-03  -2.616376e-03  0 
 -4.446022e-03  -2.570873e-03  0 
 -2.549196e-03  -1.728100e-03  0 
 -6.503594e-04  -2.508729e-03  0 
 -3.082488e-03  -4.268377e-03  0 
 8.340076e-04  -4.641780e-03  0 
 3.273679e-03  -4.675331e-03  0 
 7.089496e-03  -1.041418e-02  0 
 1.258991e-02  -2.863267e-03  0 
 6.347986e-03  9.305233e-05  0 
 5.205545e-03  -3.650720e-03  0 
 4.096100e-03  -3.013461e-03  0 
 5.095981e-03  -3.999168e-04  0 
VECTORS displacement_ITER13 FLOAT
 -5.288445e-03  -4.037094e-04  0 
 3.207825e-03  -7.832589e-04  0 
 -5.283504e-03  -1.353692e-03  0 
 -2.986926e-03  -1.073956e-04  0 
 -4.154500e-03  -2.243269e-04  0 
 -3.051717e-03  -5.984308e-04  0 
 -8.627745e-04  -7.620521e-04  0 
 1.228259e-03  -8.241673e-04  0 
 -5.319107e-03  -2.838330e-03  0 
 -5.317498e-03  -5.208016e-03  0 
 3.303395e-03  -2.948480e-03  0 
 3.356587e-03  -5.096351e-03  0 
 -4.184170e-03  -1.087106e-03  0 
 2.144036e-03  7.147058e-04  0 
 -3.127318e-03  5.156407e-04  0 
 -6.407748e-04  4.134837e-04  0 
 -4.451547e-03  -2.678038e-03  0 
 -3.710817e-03  -1.895453e-03  0 
 -6.049531e-04  -4.608075e-03  0 
 1.669725e-03  -2.936927e-03  0 
 -3.481596e-03  -2.888038e-03  0 
 -1.879141e-03  -2.184576e-03  0 
 -2.832854e-04  -2.848118e-03  0 
 -2.323515e-03  -4.332930e-03  0 
 9.542010e-04  -4.638117e-03  0 
 1.028393e-03  -3.108025e-03  0 
 1.637208e-03  -7.532849e-03  0 
 4.699418e-03  -2.198520e-03  0 
 1.861527e-03  -1.175736e-03  0 
 1.002828e-03  -2.835306e-03  0 
 2.294178e-03  -3.330738e-03  0 
 2.849414e-03  -1.839934e-03  0 
VECTORS displacement_ITER14 FLOAT
 -4.831751e-03  1.053716e-03  0 
 1.462484e-03  6.826678e-04  0 
 -4.827548e-03  -9.987889e-04  0 
 -3.285871e-04  1.349914e-03  0 
 -2.595382e-03  1.234038e-03  0 
 -3.152208e-03  8.594378e-04  0 
 -1.515400e-03  6.993906e-04  0 
 2.809172e-05  6.400376e-04  0 
 -4.863912e-03  -8.265896e-04  0 
 -4.863253e-03  -2.640614e-03  0 
 1.559405e-03  -9.400313e-04  0 
 1.614121e-03  -2.545264e-03  0 
 -2.602657e-03  -4.862171e-04  0 
 9.118869e-04  2.013489e-03  0 
 -3.083156e-03  8.215399e-04  0 
 -1.353649e-03  1.537092e-03  0 
 -3.231004e-03  -5.695979e-04  0 
 -1.727217e-03  3.666776e-05  0 
 -1.318660e-03  -2.163629e-03  0 
 3.493209e-04  -9.160530e-04  0 
 -3.460207e-03  -8.645957e-04  0 
 -2.263768e-03  -3.505652e-04  0 
 -1.081320e-03  -8.533714e-04  0 
 -2.587320e-03  -1.960183e-03  0 
 -1.741554e-04  -2.184360e-03  0 
 -8.360319e-05  -2.352859e-03  0 
 5.523843e-04  -9.439560e-03  0 
 3.411564e-03  -3.117204e-03  0 
 -1.439896e-04  -5.554436e-04  0 
 -5.872159e-04  -2.944802e-03  0 
 2.659821e-04  -1.821814e-03  0 
 4.731421e-04  -4.178620e-04  0 
VECTORS displacement_ITER15 FLOAT
 -3.674196e-03  -2.681555e-04  0 
 2.205128e-03  -6.284302e-04  0 
 -3.668039e-03  -2.392626e-03  0 
 9.700032e-04  2.243998e-05  0 
 -1.364416e-03  -8.959651e-05  0 
 -2.106054e-03  -4.619566e-04  0 
 -5.746794e-04  -6.180888e-04  0 
 8.681489e-04  -6.737719e-04  0 
 -3.709237e-03  -2.041904e-03  0 
 -3.710145e-03  -3.748245e-03  0 
 2.301811e-03  -2.154411e-03  0 
 2.355972e-03  -3.662795e-03  0 
 -1.368798e-03  -1.864133e-03  0 
 1.697431e-03  6.912195e-04  0 
 -2.357104e-03  -4.569735e-04  0 
 -4.940303e-04  1.527559e-04  0 
 -2.058617e-03  -1.827361e-03  0 
 -5.712272e-04  -1.274099e-03  0 
 -3.889999e-04  -3.297596e-03  0 
 1.167057e-03  -2.128910e-03  0 
 -2.390440e-03  -2.076202e-03  0 
 -1.272747e-03  -1.598757e-03  0 
 -1.685188e-04  -2.071492e-03  0 
 -1.572899e-03  -3.105468e-03  0 
 6.781488e-04  -3.318987e-03  0 
 8.218290e-04  -3.061180e-03  0 
 3.568994e-04  -6.317417e-03  0 
 1.094152e-03  -3.188615e-03  0 
 3.025914e-04  -2.261188e-03  0 
 1.521460e-04  -3.201491e-03  0 
 1.265647e-03  -2.886975e-03  0 
 1.203849e-03  -1.859129e-03  0 
VECTORS displacement_ITER16 FLOAT
 -2.333685e-03  -2.335997e-03  0 
 1.083195e-03  -2.675325e-03  0 
 -2.327556e-03  -4.036680e-03  0 
 1.453472e-03  -2.048738e-03  0 
 -4.504777e-04  -2.158431e-03  0 
 -1.389343e-03  -2.527656e-03  0 
 -4.774800e-04  -2.677989e-03  0 
 3.523535e-04  -2.726664e-03  0 
 -2.370269e-03  -3.487539e-03  0 
 -2.371415e-03  -4.571000e-03  0 
 1.178198e-03  -3.594949e-03  0 
 1.230203e-03  -4.498329e-03  0 
 -4.626747e-04  -3.598772e-03  0 
 1.013525e-03  -1.967420e-03  0 
 -1.572359e-03  -2.883340e-03  0 
 -4.095411e-04  -2.403861e-03  0 
 -8.895571e-04  -3.586952e-03  0 
 1.951182e-04  -3.235835e-03  0 
 -3.620376e-04  -4.255586e-03  0 
 5.153337e-04  -3.559405e-03  0 
 -1.537796e-03  -3.508486e-03  0 
 -8.754551e-04  -3.242178e-03  0 
 -2.357582e-04  -3.533501e-03  0 
 -1.040648e-03  -4.145046e-03  0 
 2.396647e-04  -4.266186e-03  0 
 1.412688e-03  -5.241128e-03  0 
 3.153565e-03  -8.189088e-03  0 
 4.357296e-03  -4.476806e-03  0 
 2.120555e-03  -2.649752e-03  0 
 2.077256e-03  -4.686576e-03  0 
 1.188007e-03  -3.729072e-03  0 
 1.280564e-03  -2.367688e-03  0 
VECTORS displacement_ITER17 FLOAT
 -1.328641e-03  -3.279699e-03  0 
 1.308111e-03  -3.616163e-03  0 
 -1.323172e-03  -2.904068e-03  0 
 -1.706559e-03  -2.996470e-03  0 
 -1.525585e-03  -3.103278e-03  0 
 -5.790742e-04  -3.471467e-03  0 
 1.372894e-04  -3.622162e-03  0 
 7.714110e-04  -3.669468e-03  0 
 -1.367098e-03  -4.239012e-03  0 
 -1.368679e-03  -5.129526e-03  0 
 1.401562e-03  -4.340772e-03  0 
 1.451760e-03  -5.048711e-03  0 
 -1.578660e-03  -2.919651e-03  0 
 1.283444e-03  -3.139311e-03  0 
 -7.638425e-04  -3.065508e-03  0 
 2.114294e-04  -3.368309e-03  0 
 -1.183748e-03  -5.122480e-03  0 
 -1.763935e-03  -4.950783e-03  0 
 2.295471e-04  -4.849976e-03  0 
 8.906569e-04  -4.303018e-03  0 
 -6.849404e-04  -4.254548e-03  0 
 -1.653782e-04  -4.054231e-03  0 
 3.268558e-04  -4.287772e-03  0 
 -2.881980e-04  -4.767524e-03  0 
 6.828225e-04  -4.855133e-03  0 
 1.552690e-03  -4.874591e-03  0 
 3.178591e-03  -5.070433e-03  0 
 2.632875e-03  -3.961395e-03  0 
 1.989764e-03  -3.148389e-03  0 
 2.261765e-03  -3.964559e-03  0 
 1.549009e-03  -3.991557e-03  0 
 1.470040e-03  -3.116054e-03  0 
VECTORS displacement_ITER18 FLOAT
 -4.556689e-04  -3.461304e-03  0 
 6.043661e-04  -3.792246e-03  0 
 -4.491593e-04  -2.606382e-03  0 
 -1.796849e-03  -3.181374e-03  0 
 -1.132351e-03  -3.285947e-03  0 
 -1.038088e-04  -3.652677e-03  0 
 2.173419e-04  -3.801809e-03  0 
 4.584177e-04  -3.847270e-03  0 
 -4.960266e-04  -4.025792e-03  0 
 -4.984626e-04  -4.520412e-03  0 
 6.978765e-04  -4.127648e-03  0 
 7.482330e-04  -4.445635e-03  0 
 -1.194265e-03  -2.726636e-03  0 
 8.660316e-04  -3.439386e-03  0 
 -2.958467e-04  -3.021331e-03  0 
 2.992669e-04  -3.624051e-03  0 
 -6.063324e-04  -5.212634e-03  0 
 -1.615449e-03  -5.229113e-03  0 
 2.652240e-04  -4.325337e-03  0 
 4.911758e-04  -4.081654e-03  0 
 -1.227677e-04  -4.032239e-03  0 
 1.067368e-04  -3.967049e-03  0 
 3.025640e-04  -4.085281e-03  0 
 7.022891e-05  -4.295373e-03  0 
 4.210687e-04  -4.322942e-03  0 
 8.506914e-04  -5.149655e-03  0 
 2.299366e-03  -6.866419e-03  0 
 1.636835e-03  -5.795396e-03  0 
 5.365406e-04  -4.088684e-03  0 
 1.105221e-03  -5.010402e-03  0 
 4.225878e-04  -4.151379e-03  0 
 5.503788e-05  -3.569290e-03  0 
VECTORS displacement_ITER19 FLOAT
 -6.335522e-04  -2.905252e-03  0 
 1.085899e-03  -3.216657e-03  0 
 -6.244090e-04  -2.893384e-03  0 
 -2.899710e-04  -2.632319e-03  0 
 -4.668508e-04  -2.733503e-03  0 
 -1.263183e-04  -3.091742e-03  0 
 3.576853e-04  -3.233314e-03  0 
 7.679939e-04  -3.274091e-03  0 
 -6.752310e-04  -3.624511e-03  0 
 -6.790019e-04  -4.273954e-03  0 
 1.179651e-03  -3.725055e-03  0 
 1.230464e-03  -4.214739e-03  0 
 -5.104077e-04  -2.831009e-03  0 
 1.024887e-03  -2.870877e-03  0 
 -6.379076e-04  -2.644143e-03  0 
 3.226919e-04  -3.042095e-03  0 
 -3.101897e-04  -4.440022e-03  0 
 -6.260207e-04  -4.372819e-03  0 
 4.247240e-04  -4.055205e-03  0 
 8.381696e-04  -3.682529e-03  0 
 -1.818397e-04  -3.633383e-03  0 
 1.656079e-04  -3.512332e-03  0 
 4.858126e-04  -3.678558e-03  0 
 9.334203e-05  -3.999319e-03  0 
 7.079922e-04  -4.059550e-03  0 
 1.231424e-03  -4.572232e-03  0 
 2.637374e-03  -5.418483e-03  0 
 1.583000e-03  -5.039990e-03  0 
 8.981554e-04  -3.713576e-03  0 
 1.521504e-03  -4.264036e-03  0 
 9.636368e-04  -3.730210e-03  0 
 5.487058e-04  -3.208430e-03  0 
VECTORS displacement_ITER20 FLOAT
 -1.331410e-04  -2.489687e-03  0 
 1.991146e-03  -2.783736e-03  0 
 -1.219797e-04  -2.752005e-03  0 
 7.561819e-04  -2.222078e-03  0 
 3.077749e-04  -2.320586e-03  0 
 4.671403e-04  -2.672026e-03  0 
 1.050460e-03  -2.807002e-03  0 
 1.565873e-03  -2.843373e-03  0 
 -1.761810e-04  -3.301868e-03  0 
 -1.809593e-04  -4.043830e-03  0 
 2.085484e-03  -3.400896e-03  0 
 2.137145e-03  -3.998287e-03  0 
 2.708696e-04  -2.630913e-03  0 
 1.727868e-03  -2.467102e-03  0 
 -1.814738e-04  -2.323184e-03  0 
 9.580480e-04  -2.608088e-03  0 
 3.303640e-04  -3.921893e-03  0 
 2.623215e-04  -3.790045e-03  0 
 1.128970e-03  -3.813053e-03  0 
 1.659211e-03  -3.360203e-03  0 
 3.889256e-04  -3.311946e-03  0 
 8.080524e-04  -3.156483e-03  0 
 1.204565e-03  -3.351942e-03  0 
 7.136770e-04  -3.740538e-03  0 
 1.491316e-03  -3.822223e-03  0 
 2.167315e-03  -4.274538e-03  0 
 3.580383e-03  -4.704632e-03  0 
 2.452051e-03  -4.575200e-03  0 
 1.910941e-03  -3.384769e-03  0 
 2.519860e-03  -3.858049e-03  0 
 1.960178e-03  -3.424479e-03  0 
 1.560764e-03  -2.869221e-03  0 
VECTORS displacement_ITER21 FLOAT
 2.342554e-04  -1.989982e-03  0 
 2.234867e-03  -2.276030e-03  0 
 2.462457e-04  -1.635395e-03  0 
 -1.163461e-04  -1.725445e-03  0 
 5.751894e-05  -1.821988e-03  0 
 7.993016e-04  -2.170615e-03  0 
 1.351188e-03  -2.302439e-03  0 
 1.838134e-03  -2.336675e-03  0 
 1.896075e-04  -2.768646e-03  0 
 1.841950e-04  -3.475880e-03  0 
 2.330800e-03  -2.867308e-03  0 
 2.384139e-03  -3.437586e-03  0 
 9.069534e-06  -1.648918e-03  0 
 1.954596e-03  -1.988019e-03  0 
 1.203953e-04  -1.670312e-03  0 
 1.255472e-03  -2.090133e-03  0 
 2.883865e-04  -3.472508e-03  0 
 -2.359843e-04  -3.329856e-03  0 
 1.426046e-03  -3.255996e-03  0 
 1.925229e-03  -2.824836e-03  0 
 7.274964e-04  -2.777318e-03  0 
 1.123095e-03  -2.632239e-03  0 
 1.496879e-03  -2.818562e-03  0 
 1.035170e-03  -3.186258e-03  0 
 1.766898e-03  -3.265557e-03  0 
 2.322121e-03  -3.821042e-03  0 
 3.356698e-03  -4.323442e-03  0 
 2.180136e-03  -4.418385e-03  0 
 1.843727e-03  -3.239679e-03  0 
 2.460278e-03  -3.604124e-03  0 
 2.089737e-03  -3.056046e-03  0 
 1.644741e-03  -2.581078e-03  0 
VECTORS displacement_ITER22 FLOAT
 7.517291e-04  -1.874687e-03  0 
 1.757002e-03  -2.152821e-03  0 
 7.650164e-04  -1.348084e-03  0 
 5.177433e-05  -1.613457e-03  0 
 4.028571e-04  -1.707943e-03  0 
 1.063402e-03  -2.053865e-03  0 
 1.366290e-03  -2.182571e-03  0 
 1.607142e-03  -2.214755e-03  0 
 7.050862e-04  -2.402459e-03  0 
 6.987288e-04  -2.857600e-03  0 
 1.855147e-03  -2.500852e-03  0 
 1.910507e-03  -2.826688e-03  0 
 3.519275e-04  -1.398734e-03  0 
 1.633950e-03  -2.112894e-03  0 
 3.191980e-04  -1.659004e-03  0 
 1.250509e-03  -2.174549e-03  0 
 6.560315e-04  -3.120438e-03  0 
 -1.418075e-05  -3.048886e-03  0 
 1.413104e-03  -2.694176e-03  0 
 1.640053e-03  -2.452033e-03  0 
 1.046029e-03  -2.405166e-03  0 
 1.258539e-03  -2.345013e-03  0 
 1.446271e-03  -2.458453e-03  0 
 1.224566e-03  -2.656804e-03  0 
 1.567808e-03  -2.699095e-03  0 
 1.951475e-03  -3.587456e-03  0 
 3.161515e-03  -5.143072e-03  0 
 2.476102e-03  -4.468014e-03  0 
 1.488950e-03  -2.840473e-03  0 
 2.065501e-03  -3.594994e-03  0 
 1.538945e-03  -2.687837e-03  0 
 1.135231e-03  -2.229269e-03  0 
VECTORS displacement_ITER23 FLOAT
 3.385674e-04  -2.205533e-03  0 
 2.398957e-03  -2.465173e-03  0 
 3.545897e-04  -1.867496e-03  0 
 1.318425e-05  -1.950668e-03  0 
 1.787125e-04  -2.041914e-03  0 
 9.054548e-04  -2.379847e-03  0 
 1.470893e-03  -2.501137e-03  0 
 1.980353e-03  -2.528960e-03  0 
 2.900200e-04  -2.988709e-03  0 
 2.823122e-04  -3.698869e-03  0 
 2.499057e-03  -3.084811e-03  0 
 2.556242e-03  -3.680825e-03  0 
 1.330083e-04  -1.878793e-03  0 
 1.990041e-03  -2.334481e-03  0 
 -2.384069e-05  -1.968277e-03  0 
 1.300170e-03  -2.408540e-03  0 
 2.759925e-04  -3.422807e-03  0 
 -1.919174e-04  -3.218129e-03  0 
 1.547424e-03  -3.489395e-03  0 
 2.072317e-03  -3.040439e-03  0 
 8.291784e-04  -2.995612e-03  0 
 1.232997e-03  -2.844965e-03  0 
 1.619927e-03  -3.035201e-03  0 
 1.140937e-03  -3.413255e-03  0 
 1.904922e-03  -3.502565e-03  0 
 2.655744e-03  -3.712079e-03  0 
 3.679447e-03  -2.956620e-03  0 
 2.310212e-03  -3.796401e-03  0 
 2.460469e-03  -3.140701e-03  0 
 3.002335e-03  -3.208426e-03  0 
 2.561360e-03  -3.096513e-03  0 
 2.208394e-03  -2.649127e-03  0 
VECTORS displacement_ITER24 FLOAT
 3.601368e-04  -2.902828e-03  0 
 1.667788e-03  -3.142170e-03  0 
 3.794489e-04  -2.635811e-03  0 
 1.740739e-04  -2.654803e-03  0 
 2.720724e-04  -2.742413e-03  0 
 7.300681e-04  -3.072085e-03  0 
 1.105947e-03  -3.185604e-03  0 
 1.432331e-03  -3.208509e-03  0 
 3.093531e-04  -3.489780e-03  0 
 3.004890e-04  -4.002893e-03  0 
 1.770656e-03  -3.583499e-03  0 
 1.830329e-03  -3.999378e-03  0 
 2.293084e-04  -2.633837e-03  0 
 1.428900e-03  -3.059722e-03  0 
 -1.710589e-04  -2.683029e-03  0 
 9.452776e-04  -3.152784e-03  0 
 3.347577e-04  -3.763512e-03  0 
 -4.549914e-05  -3.546474e-03  0 
 1.160779e-03  -3.842470e-03  0 
 1.483786e-03  -3.533890e-03  0 
 6.940806e-04  -3.491738e-03  0 
 9.579459e-04  -3.404684e-03  0 
 1.204623e-03  -3.539134e-03  0 
 9.060203e-04  -3.789167e-03  0 
 1.379680e-03  -3.853521e-03  0 
 2.138393e-03  -4.208456e-03  0 
 3.336616e-03  -3.469327e-03  0 
 2.482475e-03  -4.211571e-03  0 
 2.266342e-03  -3.432112e-03  0 
 2.676623e-03  -3.713491e-03  0 
 1.992796e-03  -3.516318e-03  0 
 1.767970e-03  -3.046997e-03  0 
VECTORS displacement_ITER25 FLOAT
 5.389848e-04  -3.062219e-03  0 
 1.338462e-03  -3.290923e-03  0 
 5.597688e-04  -2.207103e-03  0 
 -8.277321e-04  -2.818815e-03  0 
 -1.379000e-04  -2.903815e-03  0 
 7.782505e-04  -3.228062e-03  0 
 1.026805e-03  -3.337371e-03  0 
 1.228765e-03  -3.357986e-03  0 
 4.867222e-04  -3.518686e-03  0 
 4.772850e-04  -3.900781e-03  0 
 1.443287e-03  -3.609679e-03  0 
 1.504960e-03  -3.901236e-03  0 
 -1.915347e-04  -2.335046e-03  0 
 1.232731e-03  -3.193061e-03  0 
 2.661295e-05  -2.652547e-03  0 
 9.027129e-04  -3.264793e-03  0 
 1.652417e-04  -3.933430e-03  0 
 -6.555005e-04  -3.741418e-03  0 
 1.066375e-03  -3.770268e-03  0 
 1.252743e-03  -3.556275e-03  0 
 7.689363e-04  -3.517183e-03  0 
 9.393965e-04  -3.472208e-03  0 
 1.091600e-03  -3.568680e-03  0 
 9.139505e-04  -3.733710e-03  0 
 1.191782e-03  -3.778538e-03  0 
 1.590947e-03  -4.048453e-03  0 
 2.523225e-03  -3.556211e-03  0 
 1.943885e-03  -4.234946e-03  0 
 1.648119e-03  -3.471593e-03  0 
 1.968377e-03  -3.739934e-03  0 
 1.497447e-03  -3.553934e-03  0 
 1.320969e-03  -3.189679e-03  0 
VECTORS displacement_ITER26 FLOAT
 1.380347e-04  -2.656993e-03  0 
 1.250349e-03  -2.870243e-03  0 
 1.611400e-04  -2.043456e-03  0 
 -7.432997e-04  -2.416762e-03  0 
 -2.960712e-04  -2.500148e-03  0 
 4.489308e-04  -2.818578e-03  0 
 7.743938e-04  -2.921542e-03  0 
 1.058367e-03  -2.938463e-03  0 
 8.485089e-05  -3.184326e-03  0 
 7.496016e-05  -3.636995e-03  0 
 1.356690e-03  -3.273430e-03  0 
 1.420150e-03  -3.648082e-03  0 
 -3.442884e-04  -2.120617e-03  0 
 1.046502e-03  -2.771999e-03  0 
 -2.773404e-04  -2.339896e-03  0 
 6.344779e-04  -2.834242e-03  0 
 -5.245887e-05  -3.395042e-03  0 
 -6.327480e-04  -3.102759e-03  0 
 8.223024e-04  -3.497925e-03  0 
 1.100481e-03  -3.220709e-03  0 
 4.214811e-04  -3.183961e-03  0 
 6.474975e-04  -3.111520e-03  0 
 8.592237e-04  -3.230139e-03  0 
 6.040993e-04  -3.448645e-03  0 
 1.009995e-03  -3.509566e-03  0 
 1.463969e-03  -3.721777e-03  0 
 2.326064e-03  -3.050881e-03  0 
 2.061724e-03  -3.511391e-03  0 
 1.722605e-03  -2.939164e-03  0 