# vtk DataFile Version 3.1
this is an vtk file created by FEMAC
ASCII
DATASET UNSTRUCTURED_GRID
POINTS 24 FLOAT
1.000000 3.000000 0.000000
0.000000 4.000000 0.000000
1.000000 4.000000 0.000000
0.333333 4.000000 0.000000
0.666667 4.000000 0.000000
0.000000 3.333333 0.000000
0.000000 3.666667 0.000000
1.000000 3.333333 0.000000
1.000000 3.666667 0.000000
0.000000 4.333333 0.000000
0.000000 4.666667 0.000000
1.333333 4.000000 0.000000
0.775322 3.206402 0.000000
0.488340 3.795578 0.000000
0.696366 3.537083 0.000000
0.783178 3.799145 0.000000
0.291353 3.524024 0.000000
0.222605 3.797254 0.000000
0.291353 4.475976 0.000000
1.265001 3.472948 0.000000
1.523802 3.285974 0.000000
1.220626 3.759097 0.000000
1.238185 3.214413 0.000000
1.232308 4.217759 0.000000
CELLS 25 100 
3 7 12  0
3 14 12  7
3 8 14  7
3 13  4  3
3 4 15  2
3 15  8  2
3 8 15 14
3 13 15  4
3 14 15 13
3 16  6  5
3 16 14 13
3 17  3  1
3 17  6 16
3 6 17  1
3 17 13  3
3 16 13 17
3 9 18 10
3 19  8  7
3 21 11  2
3 8 21  2
3 19 21  8
3 7 22 19
3 22  7  0
3 20 19 22
3 11 23  2
CELL_TYPES 25
5 5 5 5 5 5 5 5 5 5 5 5 5 5 5 5 5 5 5 5 5 5 5 5 5 
POINT_DATA 24
VECTORS displacement_ITER1 FLOAT
 5.924665e-01  -4.444308e-01  0 
 0  0  0 
 4.938600e-01  -4.448148e-01  0 
 2.924556e-01  -3.510883e-01  0 
 4.061941e-01  -4.761498e-01  0 
 0  0  0 
 0  0  0 
 5.593949e-01  -4.444145e-01  0 
 5.266117e-01  -4.447003e-01  0 
 0  0  0 
 0  0  0 
 4.941900e-01  -4.123796e-01  0 
 5.737436e-01  -4.332894e-01  0 
 3.010301e-01  -3.581667e-01  0 
 4.189456e-01  -3.539159e-01  0 
 4.455930e-01  -4.359011e-01  0 
 5.422576e-02  -1.978330e-02  0 
 1.055606e-01  -1.047606e-01  0 
 2.834760e-08  -1.482694e-06  0 
 5.458340e-01  -4.185625e-01  0 
 5.643703e-01  -3.933796e-01  0 
 5.176281e-01  -4.231078e-01  0 
 5.711818e-01  -4.210201e-01  0 
 4.729447e-01  -4.226719e-01  0 
VECTORS displacement_ITER2 FLOAT
 -2.474124e-02  4.150356e-02  0 
 0  0  0 
 6.770826e-02  4.153383e-02  0 
 3.626790e-03  9.669720e-03  0 
 2.306027e-02  3.568807e-02  0 
 0  0  0 
 0  0  0 
 5.774737e-03  4.144537e-02  0 
 3.684138e-02  4.138570e-02  0 
 0  0  0 
 0  0  0 
 6.800091e-02  1.015615e-02  0 
 -5.497838e-03  5.837691e-02  0 
 1.805775e-02  3.121826e-02  0 
 2.748810e-02  5.914199e-02  0 
 3.732643e-02  5.259201e-02  0 
 1.349232e-02  2.071048e-02  0 
 5.799002e-03  8.165727e-03  0 
 -8.972677e-07  6.827936e-06  0 
 1.882308e-02  1.674791e-02  0 
 1.630380e-03  -7.361741e-03  0 
 4.544244e-02  2.081458e-02  0 
 -5.164395e-03  1.948768e-02  0 
 8.830666e-02  1.933514e-02  0 
VECTORS displacement_ITER3 FLOAT
 -1.988849e-05  -2.423811e-03  0 
 0  0  0 
 1.609725e-03  -1.943949e-03  0 
 8.048838e-05  -4.529615e-03  0 
 -3.667502e-03  -1.152633e-03  0 
 0  0  0 
 0  0  0 
 -3.858339e-05  -2.494290e-03  0 
 7.456541e-04  -2.284052e-03  0 
 0  0  0 
 0  0  0 
 1.921657e-03  -3.451183e-03  0 
 2.809366e-04  -4.306743e-03  0 
 1.804690e-04  -5.542625e-03  0 
 4.985507e-04  -4.092203e-03  0 
 -1.759517e-04  -1.969081e-03  0 
 -6.161666e-04  -4.317919e-03  0 
 8.306184e-05  -3.523016e-03  0 
 -1.188130e-05  4.233074e-05  0 
 2.005480e-04  -2.988231e-03  0 
 1.359550e-04  -3.353114e-03  0 
 1.002626e-03  -2.954826e-03  0 
 -6.229705e-05  -2.676751e-03  0 
 2.665578e-03  -3.297796e-03  0 
VECTORS displacement_ITER4 FLOAT
 9.479244e-04  -2.250488e-03  0 
 0  0  0 
 2.713091e-04  -2.130273e-03  0 
 -5.831439e-04  -2.337128e-04  0 
 -9.665826e-05  -8.738988e-04  0 
 0  0  0 
 0  0  0 
 4.087542e-04  -2.448301e-03  0 
 6.220766e-04  -2.339778e-03  0 
 0  0  0 
 0  0  0 
 6.359887e-04  -2.360410e-03  0 
 1.113551e-03  -4.140564e-03  0 
 1.233485e-04  -2.719301e-03  0 
 1.385194e-04  -4.152867e-03  0 
 -1.367480e-04  -3.046575e-03  0 
 2.260463e-06  -2.909771e-03  0 
 3.759968e-04  -1.892333e-03  0 
 1.830901e-06  6.865463e-05  0 
 4.455864e-04  -2.539378e-03  0 
 6.405709e-04  -2.692417e-03  0 
 5.755789e-04  -2.329463e-03  0 
 5.830741e-04  -2.261157e-03  0 
 4.757182e-04  -3.093226e-03  0 
VECTORS displacement_ITER5 FLOAT
 4.067828e-04  -1.578125e-03  0 
 0  0  0 
 4.100284e-04  -1.670959e-03  0 
 1.406579e-03  9.770122e-04  0 
 6.623415e-05  -9.626953e-04  0 
 0  0  0 
 0  0  0 
 4.988586e-04  -1.788823e-03  0 
 1.042578e-03  -1.824025e-03  0 
 0  0  0 
 0  0  0 
 7.280259e-04  -1.578417e-03  0 
 8.869842e-04  -2.748812e-03  0 
 3.334271e-04  -2.892421e-03  0 
 5.179210e-04  -3.869123e-03  0 
 1.639424e-04  -2.868955e-03  0 
 7.224267e-05  -2.899818e-03  0 
 8.161356e-04  -1.082916e-03  0 
 7.029656e-06  2.375077e-05  0 
 7.390353e-04  -2.224954e-03  0 
 5.844747e-04  -2.922179e-03  0 
 9.275304e-04  -1.729057e-03  0 
 4.499611e-04  -1.998302e-03  0 
 5.567712e-04  -2.600932e-03  0 
VECTORS displacement_ITER6 FLOAT
 2.593051e-04  -1.533713e-03  0 
 0  0  0 
 6.629974e-05  -1.495581e-03  0 
 1.220385e-04  -6.141953e-04  0 
 4.188890e-04  -4.263796e-04  0 
 0  0  0 
 0  0  0 
 4.187009e-04  -1.739102e-03  0 
 5.514189e-04  -1.827542e-03  0 
 0  0  0 
 0  0  0 
 4.967478e-04  -1.854211e-03  0 
 7.431259e-04  -2.836351e-03  0 
 4.068735e-04  -2.788946e-03  0 
 2.364537e-04  -4.124304e-03  0 
 -8.551748e-05  -2.838514e-03  0 
 8.155224e-05  -3.150718e-03  0 
 5.255188e-04  -1.922598e-03  0 
 3.426150e-05  -7.441372e-05  0 
 5.159744e-04  -1.914871e-03  0 
 3.579989e-04  -2.505706e-03  0 
 4.151011e-04  -1.701611e-03  0 
 3.653963e-04  -1.900709e-03  0 
 -7.745114e-05  -3.188534e-03  0 
VECTORS displacement_ITER7 FLOAT
 1.744955e-04  -1.188330e-03  0 
 0  0  0 
 5.411786e-04  -1.178712e-03  0 
 -9.570251e-05  -2.470138e-04  0 
 4.508113e-05  -6.484386e-04  0 
 0  0  0 
 0  0  0 
 4.667635e-04  -1.529293e-03  0 
 7.118565e-04  -1.595888e-03  0 
 0  0  0 
 0  0  0 
 1.054082e-03  -1.995407e-03  0 
 6.717767e-04  -2.467969e-03  0 
 2.716776e-04  -2.785024e-03  0 
 4.382900e-04  -3.888323e-03  0 
 6.020765e-05  -2.529413e-03  0 
 1.667907e-04  -3.297638e-03  0 
 5.241701e-04  -1.911807e-03  0 
 8.048747e-05  -1.600550e-04  0 
 6.014332e-04  -1.818564e-03  0 
 4.634845e-04  -2.343092e-03  0 
 6.227824e-04  -1.607446e-03  0 
 4.172754e-04  -1.745625e-03  0 
 2.219720e-04  -3.767116e-03  0 
VECTORS displacement_ITER8 FLOAT
 1.639883e-04  -1.211134e-03  0 
 0  0  0 
 5.222921e-04  -1.171932e-03  0 
 -8.969196e-05  -2.469450e-04  0 
 2.893733e-05  -6.205022e-04  0 
 0  0  0 
 0  0  0 
 4.268887e-04  -1.567276e-03  0 
 6.789806e-04  -1.593452e-03  0 
 0  0  0 
 0  0  0 
 1.039822e-03  -2.018792e-03  0 
 6.388149e-04  -2.543090e-03  0 
 2.430983e-04  -2.729897e-03  0 
 3.266999e-04  -3.785956e-03  0 
 3.767451e-05  -2.500848e-03  0 
 1.219646e-04  -3.231672e-03  0 
 5.038381e-04  -1.878368e-03  0 
 9.004094e-05  -1.882260e-04  0 
 5.451311e-04  -1.844196e-03  0 
 4.311231e-04  -2.282066e-03  0 
 5.926981e-04  -1.610220e-03  0 
 3.935444e-04  -1.768372e-03  0 
 1.808829e-04  -3.573067e-03  0 
VECTORS displacement_ITER9 FLOAT
 1.733076e-04  -1.212821e-03  0 
 0  0  0 
 5.069567e-04  -1.200632e-03  0 
 -9.024178e-05  -2.451643e-04  0 
 2.263582e-05  -6.114736e-04  0 
 0  0  0 
 0  0  0 
 4.250437e-04  -1.565093e-03  0 
 6.820714e-04  -1.596881e-03  0 
 0  0  0 
 0  0  0 
 1.016484e-03  -2.010701e-03  0 
 6.508183e-04  -2.507956e-03  0 
 2.402529e-04  -2.738344e-03  0 
 3.285084e-04  -3.807408e-03  0 
 2.606117e-05  -2.513817e-03  0 
 1.393896e-04  -3.269931e-03  0 
 5.079986e-04  -1.890839e-03  0 
 9.293385e-05  -1.884884e-04  0 
 5.458689e-04  -1.841596e-03  0 
 4.222808e-04  -2.294300e-03  0 
 6.018794e-04  -1.616666e-03  0 
 3.901211e-04  -1.767125e-03  0 
 1.198268e-04  -3.496301e-03  0 
CELL_DATA 25
TENSORS element_stresses FLOAT
 -1.921516e-03  4.268278e-03  0 
 4.268278e-03  -1.633269e-03  0 
 0  0  0 

 -1.290267e-03  3.525876e-03  0 
 3.525876e-03  -2.966743e-03  0 
 0  0  0 

 8.865392e-04  6.224638e-03  0 
 6.224638e-03  1.705991e-04  0 
 0  0  0 

 4.118146e-03  -1.891444e-03  0 
 -1.891444e-03  1.259838e-02  0 
 0  0  0 

 4.381044e-03  -7.243850e-04  0 
 -7.243850e-04  9.760271e-03  0 
 0  0  0 

 3.363961e-03  3.407655e-03  0 
 3.407655e-03  2.197935e-03  0 
 0  0  0 

 3.089971e-03  3.255429e-03  0 
 3.255429e-03  3.867198e-03  0 
 0  0  0 

 2.452700e-03  1.592436e-04  0 
 1.592436e-04  1.057969e-02  0 
 0  0  0 

 7.642406e-04  -1.634610e-04  0 
 -1.634610e-04  4.932061e-03  0 
 0  0  0 

 5.257376e-04  -8.633271e-03  0 
 -8.633271e-03  1.577213e-04  0 
 0  0  0 

 1.497713e-03  -1.069219e-03  0 
 -1.069219e-03  3.439492e-03  0 
 0  0  0 

 2.510829e-03  -2.721788e-03  0 
 -2.721788e-03  9.271846e-03  0 
 0  0  0 

 2.263381e-03  -6.389099e-03  0 
 -6.389099e-03  3.214866e-03  0 
 0  0  0 

 2.507757e-03  -6.533945e-03  0 
 -6.533945e-03  7.523271e-04  0 
 0  0  0 

 2.115171e-03  -4.245761e-03  0 
 -4.245761e-03  1.045942e-02  0 
 0  0  0 

 3.020365e-04  -1.588586e-03  0 
 -1.588586e-03  4.342273e-03  0 
 0  0  0 

 3.505199e-01  -4.976470e-01  0 
 -4.976470e-01  1.051560e-01  0 
 0  0  0 

 2.317846e-02  -1.708306e-01  0 
 -1.708306e-01  -8.840909e-02  0 
 0  0  0 

 1.515360e+00  -1.095626e+00  0 
 -1.095626e+00  -4.407327e-02  0 
 0  0  0 

 2.343300e-01  -8.561872e-01  0 
 -8.561872e-01  1.259046e+00  0 
 0  0  0 

 -2.206459e-01  -2.019725e-01  0 
 -2.019725e-01  6.588534e-01  0 
 0  0  0 

 9.835283e-02  -2.738194e-01  0 
 -2.738194e-01  -1.607142e-01  0 
 0  0  0 

 -9.517123e-02  -4.774233e-01  0 
 -4.774233e-01  -1.085366e+00  0 
 0  0  0 

 -7.595346e-02  -9.341421e-01  0 
 -9.341421e-01  -1.219668e-01  0 
 0  0  0 

 -9.410069e-04  -4.491313e-03  0 
 -4.491313e-03  -8.231964e-03  0 
 0  0  0 

TENSORS element_stresses FLOAT
 -1.921516e-03  4.268278e-03  0 
 4.268278e-03  -1.633269e-03  0 
 0  0  0 

 -1.290267e-03  3.525876e-03  0 
 3.525876e-03  -2.966743e-03  0 
 0  0  0 

 8.865392e-04  6.224638e-03  0 
 6.224638e-03  1.705991e-04  0 
 0  0  0 

 4.118146e-03  -1.891444e-03  0 
 -1.891444e-03  1.259838e-02  0 
 0  0  0 

 4.381044e-03  -7.243850e-04  0 
 -7.243850e-04  9.760271e-03  0 
 0  0  0 

 3.363961e-03  3.407655e-03  0 
 3.407655e-03  2.197935e-03  0 
 0  0  0 

 3.089971e-03  3.255429e-03  0 
 3.255429e-03  3.867198e-03  0 
 0  0  0 

 2.452700e-03  1.592436e-04  0 
 1.592436e-04  1.057969e-02  0 
 0  0  0 

 7.642406e-04  -1.634610e-04  0 
 -1.634610e-04  4.932061e-03  0 
 0  0  0 

 5.257376e-04  -8.633271e-03  0 
 -8.633271e-03  1.577213e-04  0 
 0  0  0 

 1.497713e-03  -1.069219e-03  0 
 -1.069219e-03  3.439492e-03  0 
 0  0  0 

 2.510829e-03  -2.721788e-03  0 
 -2.721788e-03  9.271846e-03  0 
 0  0  0 

 2.263381e-03  -6.389099e-03  0 
 -6.389099e-03  3.214866e-03  0 
 0  0  0 

 2.507757e-03  -6.533945e-03  0 
 -6.533945e-03  7.523271e-04  0 
 0  0  0 

 2.115171e-03  -4.245761e-03  0 
 -4.245761e-03  1.045942e-02  0 
 0  0  0 

 3.020365e-04  -1.588586e-03  0 
 -1.588586e-03  4.342273e-03  0 
 0  0  0 

 3.505199e-01  -4.976470e-01  0 
 -4.976470e-01  1.051560e-01  0 
 0  0  0 

 2.317846e-02  -1.708306e-01  0 
 -1.708306e-01  -8.840909e-02  0 
 0  0  0 

 1.515360e+00  -1.095626e+00  0 
 -1.095626e+00  -4.407327e-02  0 
 0  0  0 

 2.343300e-01  -8.561872e-01  0 
 -8.561872e-01  1.259046e+00  0 
 0  0  0 

 -2.206459e-01  -2.019725e-01  0 
 -2.019725e-01  6.588534e-01  0 
 0  0  0 

 9.835283e-02  -2.738194e-01  0 
 -2.738194e-01  -1.607142e-01  0 
 0  0  0 

 -9.517123e-02  -4.774233e-01  0 
 -4.774233e-01  -1.085366e+00  0 
 0  0  0 

 -7.595346e-02  -9.341421e-01  0 
 -9.341421e-01  -1.219668e-01  0 
 0  0  0 

 -9.410069e-04  -4.491313e-03  0 
 -4.491313e-03  -8.231964e-03  0 
 0  0  0 

