# vtk DataFile Version 3.1
this is an vtk file created by FEMAC
ASCII
DATASET UNSTRUCTURED_GRID
POINTS 33 FLOAT
1.000000 3.000000 0.000000
1.000000 4.000000 0.000000
1.000000 3.250000 0.000000
1.000000 3.500000 0.000000
1.000000 3.750000 0.000000
1.000000 4.250000 0.000000
1.500000 3.000000 0.000000
1.250000 4.000000 0.000000
1.500000 4.000000 0.000000
0.825570 3.361866 0.000000
0.825957 3.628272 0.000000
0.847252 3.832715 0.000000
0.847123 3.164854 0.000000
1.805000 3.255000 0.000000
1.361666 3.785642 0.000000
1.171305 3.165198 0.000000
1.630982 3.182178 0.000000
1.161848 3.344773 0.000000
1.223020 3.573994 0.000000
1.460006 3.535834 0.000000
1.681647 3.425464 0.000000
1.631588 3.748141 0.000000
1.155331 3.836478 0.000000
1.384851 3.278430 0.000000
1.175045 4.338476 0.000000
1.500000 4.775000 0.000000
1.341824 4.175618 0.000000
1.613228 4.205045 0.000000
1.200764 4.609959 0.000000
1.396983 4.637131 0.000000
1.561048 4.603297 0.000000
1.418444 4.423893 0.000000
1.153374 4.152819 0.000000
CELLS 42 168 
3 3 10  9
3 9 2 3
3 4 10  3
3 11  4  1
3 2 12  0
3 11 10  4
3 9 12  2
3 14  8  7
3 2 17  3
3 18  4  3
3 20 16 13
3 18 19 14
3 15 17  2
3 0 15  2
3 4 22  1
3 7 22 14
3 22  7  1
3 18 22  4
3 18 14 22
3 3 17 18
3 20 21 19
3 16 23  6
3 23 17 15
3 18 17 23
3 23 16 20
3 20 19 23
3 23 19 18
3 14 21  8
3 14 19 21
3 26  7  8
3 26 31 24
3 25 29 30
3 24 31 28
3 29 28 31
3 32  5  1
3 7 32  1
3 5 32 24
3 26 32  7
3 26 24 32
3 30 29 31
3 26  8 27
3 26 27 31
CELL_TYPES 42
5 5 5 5 5 5 5 5 5 5 5 5 5 5 5 5 5 5 5 5 5 5 5 5 5 5 5 5 5 5 5 5 5 5 5 5 5 5 5 5 5 5 
POINT_DATA 33
VECTORS displacement_ITER1 FLOAT
 -3.651298e-03  -9.402993e-03  0 
 1.838006e-02  -9.560157e-03  0 
 1.910403e-03  -9.450474e-03  0 
 7.439926e-03  -9.500548e-03  0 
 1.292820e-02  -9.533675e-03  0 
 -3.522239e-03  -1.615293e-02  0 
 -3.523683e-03  -2.056707e-02  0 
 1.839970e-02  -1.502446e-02  0 
 1.841027e-02  -2.050445e-02  0 
 2.019483e-03  4.510303e-03  0 
 8.344100e-03  4.465698e-04  0 
 1.249024e-02  -1.215524e-03  0 
 -1.488152e-03  1.992735e-03  0 
 2.059329e-03  -2.729028e-02  0 
 1.371745e-02  -1.747243e-02  0 
 3.942420e-05  -1.325334e-02  0 
 4.550177e-04  -2.342984e-02  0 
 4.023485e-03  -1.306147e-02  0 
 9.078202e-03  -1.442383e-02  0 
 8.237308e-03  -1.965084e-02  0 
 5.809001e-03  -2.454532e-02  0 
 1.289258e-02  -2.341115e-02  0 
 1.482431e-02  -1.294371e-02  0 
 2.568743e-03  -1.800245e-02  0 
 -3.744427e-03  -1.546124e-02  0 
 5.535044e-02  -8.186483e-02  0 
 1.165697e-02  -1.595539e-02  0 
 2.011892e-02  -2.703865e-02  0 
 -1.085517e-02  -9.671498e-03  0 
 1.252831e-02  -4.071943e-02  0 
 2.017892e-02  -6.960929e-02  0 
 -3.219410e-03  -2.279168e-02  0 
 9.204239e-03  -1.230052e-02  0 
VECTORS displacement_ITER2 FLOAT
 -2.446983e-04  -1.970589e-02  0 
 1.642616e-02  -1.968226e-02  0 
 3.890733e-03  -1.968972e-02  0 
 8.096153e-03  -1.970201e-02  0 
 1.228515e-02  -1.970779e-02  0 
 1.884506e-02  1.201602e-02  0 
 -2.582075e-04  -2.817837e-02  0 
 1.646161e-02  -2.389072e-02  0 
 1.647729e-02  -2.810260e-02  0 
 4.246459e-03  -1.431355e-02  0 
 8.593848e-03  -1.550813e-02  0 
 1.096660e-02  -1.693585e-02  0 
 2.215894e-03  -1.510996e-02  0 
 3.987018e-03  -3.332175e-02  0 
 1.287746e-02  -2.577192e-02  0 
 2.474714e-03  -2.255052e-02  0 
 2.769910e-03  -3.034605e-02  0 
 5.492844e-03  -2.241570e-02  0 
 9.342257e-03  -2.345028e-02  0 
 8.703404e-03  -2.744422e-02  0 
 6.853272e-03  -3.119578e-02  0 
 1.225482e-02  -3.032344e-02  0 
 1.371983e-02  -2.229403e-02  0 
 4.386612e-03  -2.618467e-02  0 
 1.642074e-02  -9.937365e-03  0 
 2.670817e-02  -1.907745e-02  0 
 1.695738e-02  -1.936555e-02  0 
 2.260076e-02  -3.221279e-02  0 
 -4.497809e-04  -4.718860e-03  0 
 1.069721e-02  -1.162547e-02  0 
 1.521763e-02  -1.863803e-02  0 
 1.465034e-02  -1.155323e-02  0 
 1.390768e-02  -1.324344e-02  0 
VECTORS displacement_ITER3 FLOAT
 -3.384851e-03  1.411536e-03  0 
 4.109431e-03  1.371882e-03  0 
 -1.565787e-03  1.429793e-03  0 
 4.068827e-04  1.372042e-03  0 
 2.321235e-03  1.329831e-03  0 
 -4.349520e-03  9.089620e-03  0 
 -3.500897e-03  -2.670272e-03  0 
 4.198673e-03  -5.820344e-04  0 
 4.233101e-03  -2.505438e-03  0 
 6.083990e-04  4.139800e-04  0 
 1.408516e-03  1.323470e-03  0 
 2.398066e-03  1.030613e-03  0 
 -8.024798e-04  3.736322e-04  0 
 -1.524968e-03  -5.118013e-03  0 
 2.586875e-03  -1.427778e-03  0 
 -2.211196e-03  1.395594e-04  0 
 -2.069874e-03  -3.657018e-03  0 
 -7.927717e-04  1.404446e-04  0 
 9.942894e-04  -3.653165e-04  0 
 7.007993e-04  -2.224949e-03  0 
 -1.636552e-04  -4.020774e-03  0 
 2.310553e-03  -3.532787e-03  0 
 2.946897e-03  1.813080e-04  0 
 -1.286851e-03  -1.646578e-03  0 
 9.043179e-05  -2.240745e-03  0 
 1.179961e-02  -1.964746e-02  0 
 1.773088e-03  -2.221849e-03  0 
 5.426254e-03  -1.066095e-02  0 
 -3.526784e-03  -7.154067e-03  0 
 2.635273e-03  -1.117948e-02  0 
 5.656377e-03  -1.626254e-02  0 
 2.503416e-03  -6.134346e-03  0 
 -9.915477e-04  2.250232e-03  0 
VECTORS displacement_ITER4 FLOAT
 -1.574101e-03  4.101930e-03  0 
 5.173172e-03  4.130233e-03  0 
 9.136363e-05  4.104295e-03  0 
 1.849475e-03  4.083291e-03  0 
 3.579854e-03  4.070759e-03  0 
 -9.794547e-04  -6.885329e-04  0 
 -1.740291e-03  4.390205e-04  0 
 5.298884e-03  2.318804e-03  0 
 5.357515e-03  5.483396e-04  0 
 8.679276e-04  3.269388e-03  0 
 2.517140e-03  3.959391e-03  0 
 3.488722e-03  3.643933e-03  0 
 -1.126276e-04  3.575615e-03  0 
 6.938907e-05  -1.824825e-03  0 
 3.822924e-03  1.560831e-03  0 
 -4.887354e-04  2.933994e-03  0 
 -4.183802e-04  -4.914788e-04  0 
 7.682479e-04  2.963281e-03  0 
 2.369920e-03  2.527611e-03  0 
 2.105182e-03  8.394496e-04  0 
 1.315428e-03  -8.076522e-04  0 
 3.586143e-03  -3.788761e-04  0 
 4.140152e-03  3.039921e-03  0 
 3.119925e-04  1.369211e-03  0 
 3.014633e-03  -3.395074e-03  0 
 -2.548530e-03  -4.858698e-03  0 
 5.933590e-03  1.514927e-07  0 
 1.012179e-02  -6.806914e-03  0 
 -6.959126e-04  -1.021831e-02  0 
 2.169875e-04  -6.254822e-03  0 
 1.988926e-03  -2.587879e-03  0 
 6.270359e-03  -4.708740e-03  0 
 3.544931e-03  1.817756e-03  0 
VECTORS displacement_ITER5 FLOAT
 1.634503e-03  -3.977965e-04  0 
 3.029935e-04  -3.136270e-04  0 
 1.314089e-03  -4.038610e-04  0 
 1.024867e-03  -3.954052e-04  0 
 7.393089e-04  -3.779659e-04  0 
 1.358074e-04  -4.185572e-04  0 
 1.482460e-03  6.141286e-05  0 
 4.699931e-04  -1.463811e-04  0 
 5.537005e-04  5.259466e-05  0 
 4.288732e-04  4.060684e-04  0 
 6.213129e-04  -3.139319e-05  0 
 4.081939e-04  -1.034548e-04  0 
 8.579426e-04  3.916762e-04  0 
 1.235608e-03  2.790942e-04  0 
 7.046827e-04  -1.131096e-06  0 
 1.419558e-03  -1.986048e-04  0 
 1.334016e-03  1.658950e-04  0 
 1.203510e-03  -2.153645e-04  0 
 9.334869e-04  -1.350752e-04  0 
 9.764198e-04  9.101005e-05  0 
 1.088637e-03  2.622163e-04  0 
 7.968313e-04  1.763165e-04  0 
 6.041112e-04  -1.584204e-04  0 
 1.277195e-03  1.940963e-05  0 
 8.008147e-05  -7.920042e-04  0 
 2.267915e-04  -3.683705e-03  0 
 5.850249e-04  -4.536537e-04  0 
 1.629208e-03  -3.947560e-04  0 
 7.705617e-04  -1.500073e-03  0 
 9.052503e-04  -2.740746e-03  0 
 1.031059e-03  -2.947847e-03  0 
 5.223111e-04  -1.963029e-03  0 
 3.037893e-04  -4.179707e-04  0 
VECTORS displacement_ITER6 FLOAT
 -2.697457e-04  7.727788e-05  0 
 3.725112e-04  6.644881e-05  0 
 -8.533101e-05  6.162232e-05  0 
 1.524755e-04  3.575969e-05  0 
 3.556768e-04  1.904627e-05  0 
 1.079722e-04  -1.314357e-04  0 
 -4.148335e-04  -5.219310e-04  0 
 5.451422e-04  -2.157485e-04  0 
 6.244348e-04  -4.669716e-04  0 
 1.221016e-04  -4.297356e-05  0 
 2.828677e-04  -3.547120e-05  0 
 3.055110e-04  -5.804325e-05  0 
 -7.565436e-05  3.101139e-05  0 
 -1.291751e-04  -9.653601e-04  0 
 3.850734e-04  -2.832667e-04  0 
 -1.538272e-04  -8.108627e-05  0 
 -1.778840e-04  -6.882826e-04  0 
 1.533181e-05  -1.010032e-04  0 
 2.202923e-04  -1.583268e-04  0 
 1.852200e-04  -4.090229e-04  0 
 7.453729e-05  -6.981153e-04  0 
 3.872184e-04  -6.074601e-04  0 
 3.809758e-04  -5.339018e-05  0 
 -4.137863e-05  -3.391666e-04  0 
 5.909281e-04  -4.646071e-04  0 
 6.055332e-04  -4.937267e-04  0 
 6.479916e-04  -4.563450e-04  0 
 1.142979e-03  -1.461554e-03  0 
 9.270401e-04  -9.320047e-04  0 
 1.037210e-03  -9.585422e-04  0 
 1.156905e-03  -7.106347e-04  0 
 1.107527e-03  -9.926450e-04  0 
 4.048248e-04  -1.557174e-04  0 
VECTORS displacement_ITER7 FLOAT
 -1.457833e-04  -3.162070e-04  0 
 2.242841e-04  -3.125757e-04  0 
 3.642810e-06  -3.355531e-04  0 
 1.697313e-04  -3.663142e-04  0 
 2.898952e-04  -3.782372e-04  0 
 6.236285e-05  -2.456931e-04  0 
 -1.838162e-04  -7.528431e-04  0 
 3.947361e-04  -5.272598e-04  0 
 4.711872e-04  -6.950366e-04  0 
 7.899736e-05  -2.619535e-04  0 
 1.888409e-04  -3.059096e-04  0 
 1.796429e-04  -3.569354e-04  0 
 -6.680580e-05  -2.212287e-04  0 
 -5.567256e-06  -1.068975e-03  0 
 3.018707e-04  -5.621358e-04  0 
 -4.694598e-05  -4.409443e-04  0 
 -4.142962e-05  -8.696948e-04  0 
 7.883634e-05  -4.572629e-04  0 
 2.114727e-04  -4.888348e-04  0 
 1.858588e-04  -6.666919e-04  0 
 1.139778e-04  -8.800327e-04  0 
 3.108558e-04  -7.969475e-04  0 
 2.823297e-04  -3.960617e-04  0 
 4.064146e-05  -6.311487e-04  0 
 2.541868e-04  -5.047289e-04  0 
 1.040118e-03  -1.079130e-03  0 
 4.171197e-04  -6.029905e-04  0 
 7.939088e-04  -1.053296e-03  0 
 5.170348e-04  -3.785951e-04  0 
 8.203161e-04  -9.828021e-04  0 
 9.493062e-04  -1.288712e-03  0 
 4.971417e-04  -8.943303e-04  0 
 2.463163e-04  -4.162092e-04  0 
VECTORS displacement_ITER8 FLOAT
 1.314368e-05  -1.936767e-04  0 
 3.035004e-04  -2.058990e-04  0 
 1.234655e-04  -2.119831e-04  0 
 2.794838e-04  -2.332152e-04  0 
 3.946056e-04  -2.491858e-04  0 
 8.070335e-05  -1.713478e-04  0 
 -5.414687e-05  -6.021260e-04  0 
 4.986809e-04  -3.967838e-04  0 
 5.991234e-04  -5.740805e-04  0 
 1.432760e-04  -1.050619e-04  0 
 2.525001e-04  -1.662728e-04  0 
 2.519832e-04  -2.395278e-04  0 
 4.075511e-05  -7.837874e-05  0 
 1.052434e-04  -8.745997e-04  0 
 4.073439e-04  -4.179951e-04  0 
 8.066253e-05  -3.046423e-04  0 
 7.416527e-05  -7.148829e-04  0 
 1.912045e-04  -3.203209e-04  0 
 3.207973e-04  -3.487115e-04  0 
 2.947380e-04  -5.197357e-04  0 
 2.228376e-04  -7.277105e-04  0 
 4.203585e-04  -6.463558e-04  0 
 3.850195e-04  -2.595026e-04  0 
 1.509606e-04  -4.892908e-04  0 
 3.638842e-04  -5.004349e-04  0 
 6.666345e-04  -9.500749e-04  0 
 5.703897e-04  -4.931493e-04  0 
 1.000447e-03  -8.100247e-04  0 
 5.765216e-04  -6.388803e-04  0 
 7.037943e-04  -8.887247e-04  0 
 8.458487e-04  -9.140682e-04  0 
 6.918115e-04  -8.510700e-04  0 
 3.292943e-04  -3.110172e-04  0 
VECTORS displacement_ITER9 FLOAT
 1.927933e-05  -1.949987e-04  0 
 2.874050e-04  -1.995263e-04  0 
 1.389390e-04  -2.259836e-04  0 
 2.729905e-04  -2.400393e-04  0 
 3.761659e-04  -2.445193e-04  0 
 7.801428e-05  -1.732076e-04  0 
 -2.016012e-05  -5.737341e-04  0 
 4.778223e-04  -3.822746e-04  0 
 5.826216e-04  -5.556761e-04  0 
 1.480897e-04  -9.159503e-05  0 
 2.694443e-04  -1.153226e-04  0 
 2.989977e-04  -1.370839e-04  0 
 7.700913e-05  -9.394466e-05  0 
 1.329702e-04  -7.793747e-04  0 
 3.846566e-04  -3.999673e-04  0 
 9.917602e-05  -3.168460e-04  0 
 9.298873e-05  -6.644883e-04  0 
 1.950820e-04  -3.208305e-04  0 
 3.055493e-04  -3.395968e-04  0 
 2.816038e-04  -4.972737e-04  0 
 2.212823e-04  -6.844727e-04  0 
 3.930718e-04  -6.210128e-04  0 
 3.651042e-04  -2.502290e-04  0 
 1.569501e-04  -4.648133e-04  0 
 2.764431e-04  -4.434003e-04  0 
 9.781237e-04  -1.380224e-03  0 
 4.980748e-04  -4.596406e-04  0 
 8.346254e-04  -6.475080e-04  0 
 3.499184e-04  -6.440134e-04  0 
 5.980521e-04  -9.509450e-04  0 
 7.884189e-04  -1.199908e-03  0 
 5.526490e-04  -7.590332e-04  0 
 3.009649e-04  -3.066768e-04  0 
VECTORS displacement_ITER10 FLOAT
 -1.953041e-05  -1.247463e-04  0 
 2.905730e-04  -1.711598e-04  0 
 1.419210e-04  -1.750968e-04  0 
 2.799235e-04  -1.984710e-04  0 
 3.800948e-04  -2.055114e-04  0 
 7.889663e-05  -1.569714e-04  0 
 1.626290e-06  -5.177591e-04  0 
 4.795220e-04  -3.408707e-04  0 
 5.853113e-04  -5.125285e-04  0 
 1.707102e-04  -5.759261e-05  0 
 2.635721e-04  -8.558607e-05  0 
 2.729966e-04  -1.339387e-04  0 
 6.773721e-05  -5.026857e-05  0 
 1.481722e-04  -7.176094e-04  0 
 3.899433e-04  -3.551428e-04  0 
 9.720595e-05  -2.799172e-04  0 
 1.081461e-04  -6.055373e-04  0 
 2.017325e-04  -2.799269e-04  0 
 3.114958e-04  -2.962509e-04  0 
 2.845462e-04  -4.484708e-04  0 
 2.211370e-04  -6.274177e-04  0 
 4.008124e-04  -5.692144e-04  0 
 3.705636e-04  -2.117796e-04  0 
 1.619266e-04  -4.270106e-04  0 
 2.393853e-04  -3.866787e-04  0 
 8.687633e-04  -1.356002e-03  0 
 4.605016e-04  -4.203765e-04  0 
 7.802626e-04  -7.145980e-04  0 
 3.215981e-04  -6.691668e-04  0 
 6.357065e-04  -1.000109e-03  0 
 8.669473e-04  -1.191906e-03  0 
 5.749477e-04  -7.418596e-04  0 
 2.905479e-04  -2.782325e-04  0 
VECTORS displacement_ITER11 FLOAT
 8.595166e-06  -1.325109e-04  0 
 2.940055e-04  -1.625136e-04  0 
 1.459683e-04  -1.729300e-04  0 
 2.795813e-04  -1.874294e-04  0 
 3.817045e-04  -1.946754e-04  0 
 8.012990e-05  -1.510981e-04  0 
 -2.194108e-05  -4.930278e-04  0 
 4.837945e-04  -3.322812e-04  0 
 5.910907e-04  -5.072630e-04  0 
 1.604810e-04  -8.863272e-05  0 
 2.639764e-04  -8.422220e-05  0 
 2.778267e-04  -1.159941e-04  0 
 8.750104e-05  -7.885841e-05  0 
 1.430533e-04  -7.149146e-04  0 
 3.924469e-04  -3.463623e-04  0 
 1.047137e-04  -2.694801e-04  0 
 1.008173e-04  -5.991813e-04  0 
 2.010573e-04  -2.687511e-04  0 
 3.122414e-04  -2.855915e-04  0 
 2.872950e-04  -4.383828e-04  0 
 2.231181e-04  -6.218476e-04  0 
 4.040978e-04  -5.586668e-04  0 
 3.732970e-04  -2.021573e-04  0 
 1.602514e-04  -4.117089e-04  0 
 2.491378e-04  -3.444362e-04  0 
 9.321962e-04  -1.228137e-03  0 
 4.496362e-04  -4.018426e-04  0 
 7.291106e-04  -6.629789e-04  0 
 3.846363e-04  -5.736440e-04  0 
 6.915752e-04  -9.317484e-04  0 
 8.974172e-04  -1.112506e-03  0 
 5.758032e-04  -6.897407e-04  0 
 2.922653e-04  -2.612026e-04  0 
VECTORS displacement_ITER12 FLOAT
 1.039835e-05  -1.322665e-04  0 
 2.940128e-04  -1.637013e-04  0 
 1.448633e-04  -1.721796e-04  0 
 2.802860e-04  -1.889413e-04  0 
 3.822631e-04  -1.965866e-04  0 
 8.020437e-05  -1.518530e-04  0 
 -8.026240e-06  -5.002440e-04  0 
 4.840213e-04  -3.337470e-04  0 
 5.916959e-04  -5.093470e-04  0 
 1.652599e-04  -7.334926e-05  0 
 2.614364e-04  -8.268173e-05  0 
 2.733384e-04  -1.216630e-04  0 
 7.491323e-05  -7.369506e-05  0 
 1.461587e-04  -7.148101e-04  0 
 3.923892e-04  -3.477308e-04  0 
 1.036409e-04  -2.683141e-04  0 
 1.052429e-04  -5.988410e-04  0 
 2.017634e-04  -2.699894e-04  0 
 3.130893e-04  -2.875937e-04  0 
 2.876391e-04  -4.402141e-04  0 
 2.239226e-04  -6.220678e-04  0 
 4.037125e-04  -5.597653e-04  0 
 3.734084e-04  -2.035986e-04  0 
 1.618595e-04  -4.153732e-04  0 
 2.535489e-04  -3.582320e-04  0 
 9.166670e-04  -1.247650e-03  0 
 4.519675e-04  -4.057475e-04  0 
 7.242325e-04  -6.623623e-04  0 
 3.635756e-04  -5.988112e-04  0 
 6.895466e-04  -9.484122e-04  0 
 9.114006e-04  -1.127562e-03  0 
 5.753875e-04  -6.832954e-04  0 
 2.920801e-04  -2.651440e-04  0 
VECTORS displacement_ITER13 FLOAT
 1.026574e-05  -1.343184e-04  0 
 2.938441e-04  -1.643102e-04  0 
 1.456076e-04  -1.735089e-04  0 
 2.806184e-04  -1.900047e-04  0 
 3.822894e-04  -1.974744e-04  0 
 8.015593e-05  -1.522382e-04  0 
 -7.358631e-06  -5.009604e-04  0 
 4.838482e-04  -3.344047e-04  0 
 5.915317e-04  -5.099273e-04  0 
 1.638981e-04  -7.424655e-05  0 
 2.628828e-04  -8.501986e-05  0 
 2.735221e-04  -1.200267e-04  0 
 7.616050e-05  -7.832283e-05  0 
 1.467561e-04  -7.151315e-04  0 
 3.923423e-04  -3.483106e-04  0 
 1.042496e-04  -2.696156e-04  0 
 1.056598e-04  -5.990087e-04  0 
 2.022418e-04  -2.709659e-04  0 
 3.132701e-04  -2.883245e-04  0 
 2.879159e-04  -4.406611e-04  0 
 2.242726e-04  -6.224213e-04  0 
 4.037849e-04  -5.599357e-04  0 
 3.733096e-04  -2.042975e-04  0 
 1.623241e-04  -4.158716e-04  0 
 2.636281e-04  -3.564139e-04  0 
 9.057964e-04  -1.250926e-03  0 
 4.576818e-04  -4.055471e-04  0 
 7.360549e-04  -6.721838e-04  0 
 3.599031e-04  -6.073703e-04  0 
 6.811190e-04  -9.400802e-04  0 
 9.061005e-04  -1.105496e-03  0 
 5.863024e-04  -6.802390e-04  0 
 2.945458e-04  -2.629332e-04  0 
VECTORS displacement_ITER14 FLOAT
 1.021666e-05  -1.342603e-04  0 
 2.938517e-04  -1.643050e-04  0 
 1.456721e-04  -1.735174e-04  0 
 2.806352e-04  -1.899918e-04  0 
 3.822983e-04  -1.974597e-04  0 
 8.015865e-05  -1.522312e-04  0 
 -7.264796e-06  -5.011398e-04  0 
 4.838569e-04  -3.343897e-04  0 
 5.915428e-04  -5.099111e-04  0 
 1.632180e-04  -7.534857e-05  0 
 2.633138e-04  -8.472303e-05  0 
 2.727454e-04  -1.185918e-04  0 
 7.597517e-05  -7.995888e-05  0 
 1.467500e-04  -7.150755e-04  0 
 3.923556e-04  -3.482910e-04  0 
 1.043388e-04  -2.695987e-04  0 
 1.056594e-04  -5.989783e-04  0 
 2.022699e-04  -2.709453e-04  0 
 3.132856e-04  -2.883007e-04  0 
 2.879246e-04  -4.406444e-04  0 
 2.242779e-04  -6.224001e-04  0 
 4.037971e-04  -5.599193e-04  0 
 3.733205e-04  -2.042830e-04  0 
 1.623310e-04  -4.158680e-04  0 
 2.644976e-04  -3.571915e-04  0 
 9.045045e-04  -1.249166e-03  0 
 4.579892e-04  -4.057262e-04  0 
 7.361937e-04  -6.728809e-04  0 
 3.608129e-04  -6.083790e-04  0 
 6.813304e-04  -9.410476e-04  0 
 9.067331e-04  -1.105956e-03  0 
 5.879118e-04  -6.804188e-04  0 
 2.946082e-04  -2.629979e-04  0 
CELL_DATA 42
TENSORS element_stresses FLOAT
 4.019279e-04  -1.960955e-04  0 
 -1.960955e-04  8.630624e-05  0 
 0  0  0 

 2.481961e-04  -5.015800e-05  0 
 -5.015800e-05  8.561242e-06  0 
 0  0  0 

 4.288694e-04  -1.693900e-04  0 
 -1.693900e-04  9.878944e-05  0 
 0  0  0 

 6.213397e-04  -6.140753e-04  0 
 -6.140753e-04  3.190207e-04  0 
 0  0  0 

 1.176056e-04  1.330345e-05  0 
 1.330345e-05  -1.217467e-04  0 
 0  0  0 

 7.371362e-04  -4.620944e-04  0 
 -4.620944e-04  1.152310e-04  0 
 0  0  0 

 2.032197e-04  -9.593292e-05  0 
 -9.593292e-05  1.991638e-05  0 
 0  0  0 

 3.741513e-01  -3.910486e-02  0 
 -3.910486e-02  -1.886413e-01  0 
 0  0  0 

 1.517411e-02  -1.810214e-02  0 
 -1.810214e-02  -6.134537e-02  0 
 0  0  0 

 2.768774e-03  -1.864965e-02  0 
 -1.864965e-02  -2.904076e-02  0 
 0  0  0 

 5.404412e-02  -1.588216e-01  0 
 -1.588216e-01  6.295124e-02  0 
 0  0  0 

 -5.525065e-03  -1.703285e-01  0 
 -1.703285e-01  1.228717e-01  0 
 0  0  0 

 1.982620e-02  -2.523359e-02  0 
 -2.523359e-02  -3.208039e-02  0 
 0  0  0 

 -2.216788e-02  -7.445578e-02  0 
 -7.445578e-02  -1.636788e-01  0 
 0  0  0 

 1.966502e-01  -3.627289e-01  0 
 -3.627289e-01  1.916139e-01  0 
 0  0  0 

 1.359103e-01  -1.827092e-01  0 
 -1.827092e-01  -3.019361e-01  0 
 0  0  0 

 7.027333e-01  -3.418237e-01  0 
 -3.418237e-01  -1.909584e-01  0 
 0  0  0 

 -8.889196e-02  -5.594446e-03  0 
 -5.594446e-03  2.433286e-01  0 
 0  0  0 

 2.237032e-01  -3.011026e-01  0 
 -3.011026e-01  2.167217e-01  0 
 0  0  0 

 -2.061110e-03  2.494708e-02  0 
 2.494708e-02  4.537801e-02  0 
 0  0  0 

 1.167503e-02  -1.765856e-01  0 
 -1.765856e-01  7.547775e-02  0 
 0  0  0 

 9.865316e-03  -1.012141e-01  0 
 -1.012141e-01  1.272040e-03  0 
 0  0  0 

 -3.279155e-02  -9.079194e-02  0 
 -9.079194e-02  -5.222491e-02  0 
 0  0  0 

 -5.801349e-03  -9.997120e-02  0 
 -9.997120e-02  8.878787e-02  0 
 0  0  0 

 -2.233913e-02  -1.750406e-01  0 
 -1.750406e-01  4.753942e-02  0 
 0  0  0 

 -1.188402e-03  -1.989300e-01  0 
 -1.989300e-01  1.246454e-01  0 
 0  0  0 

 -1.066928e-03  -1.022449e-01  0 
 -1.022449e-01  8.701063e-02  0 
 0  0  0 

 9.791040e-02  9.239228e-03  0 
 9.239228e-03  -1.982236e-01  0 
 0  0  0 

 1.380839e-01  -2.424426e-01  0 
 -2.424426e-01  1.060099e-01  0 
 0  0  0 

 4.604514e-04  -8.266148e-04  0 
 -8.266148e-04  9.902564e-05  0 
 0  0  0 

 1.153651e-03  -7.129548e-04  0 
 -7.129548e-04  -4.350846e-04  0 
 0  0  0 

 1.202164e-03  -5.824415e-04  0 
 -5.824415e-04  -9.250450e-04  0 
 0  0  0 

 1.096232e-03  -6.161571e-04  0 
 -6.161571e-04  -4.980622e-04  0 
 0  0  0 

 1.251717e-03  -7.007266e-04  0 
 -7.007266e-04  -9.982173e-04  0 
 0  0  0 

 9.572535e-04  -1.189517e-03  0 
 -1.189517e-03  3.354712e-04  0 
 0  0  0 

 8.473833e-04  -1.106284e-03  0 
 -1.106284e-03  2.912084e-04  0 
 0  0  0 

 1.195672e-03  -9.806006e-04  0 
 -9.806006e-04  -3.521408e-05  0 
 0  0  0 

 1.034370e-03  -1.074786e-03  0 
 -1.074786e-03  2.994242e-04  0 
 0  0  0 

 8.481438e-04  -7.485591e-04  0 
 -7.485591e-04  -1.705020e-04  0 
 0  0  0 

 1.197588e-03  -5.348142e-04  0 
 -5.348142e-04  -9.921812e-04  0 
 0  0  0 

 1.020667e-03  -6.208275e-04  0 
 -6.208275e-04  3.896318e-05  0 
 0  0  0 

 8.271619e-04  -5.232186e-04  0 
 -5.232186e-04  -5.822626e-04  0 
 0  0  0 

TENSORS element_stresses FLOAT
 4.019279e-04  -1.960955e-04  0 
 -1.960955e-04  8.630624e-05  0 
 0  0  0 

 2.481961e-04  -5.015800e-05  0 
 -5.015800e-05  8.561242e-06  0 
 0  0  0 

 4.288694e-04  -1.693900e-04  0 
 -1.693900e-04  9.878944e-05  0 
 0  0  0 

 6.213397e-04  -6.140753e-04  0 
 -6.140753e-04  3.190207e-04  0 
 0  0  0 

 1.176056e-04  1.330345e-05  0 
 1.330345e-05  -1.217467e-04  0 
 0  0  0 

 7.371362e-04  -4.620944e-04  0 
 -4.620944e-04  1.152310e-04  0 
 0  0  0 

 2.032197e-04  -9.593292e-05  0 
 -9.593292e-05  1.991638e-05  0 
 0  0  0 

 3.741513e-01  -3.910486e-02  0 
 -3.910486e-02  -1.886413e-01  0 
 0  0  0 

 1.517411e-02  -1.810214e-02  0 
 -1.810214e-02  -6.134537e-02  0 
 0  0  0 

 2.768774e-03  -1.864965e-02  0 
 -1.864965e-02  -2.904076e-02  0 
 0  0  0 

 5.404412e-02  -1.588216e-01  0 
 -1.588216e-01  6.295124e-02  0 
 0  0  0 

 -5.525065e-03  -1.703285e-01  0 
 -1.703285e-01  1.228717e-01  0 
 0  0  0 

 1.982620e-02  -2.523359e-02  0 
 -2.523359e-02  -3.208039e-02  0 
 0  0  0 

 -2.216788e-02  -7.445578e-02  0 
 -7.445578e-02  -1.636788e-01  0 
 0  0  0 

 1.966502e-01  -3.627289e-01  0 
 -3.627289e-01  1.916139e-01  0 
 0  0  0 

 1.359103e-01  -1.827092e-01  0 
 -1.827092e-01  -3.019361e-01  0 
 0  0  0 

 7.027333e-01  -3.418237e-01  0 
 -3.418237e-01  -1.909584e-01  0 
 0  0  0 

 -8.889196e-02  -5.594446e-03  0 
 -5.594446e-03  2.433286e-01  0 
 0  0  0 

 2.237032e-01  -3.011026e-01  0 
 -3.011026e-01  2.167217e-01  0 
 0  0  0 

 -2.061110e-03  2.494708e-02  0 
 2.494708e-02  4.537801e-02  0 
 0  0  0 

 1.167503e-02  -1.765856e-01  0 
 -1.765856e-01  7.547775e-02  0 
 0  0  0 

 9.865316e-03  -1.012141e-01  0 
 -1.012141e-01  1.272040e-03  0 
 0  0  0 

 -3.279155e-02  -9.079194e-02  0 
 -9.079194e-02  -5.222491e-02  0 
 0  0  0 

 -5.801349e-03  -9.997120e-02  0 
 -9.997120e-02  8.878787e-02  0 
 0  0  0 

 -2.233913e-02  -1.750406e-01  0 
 -1.750406e-01  4.753942e-02  0 
 0  0  0 

 -1.188402e-03  -1.989300e-01  0 
 -1.989300e-01  1.246454e-01  0 
 0  0  0 

 -1.066928e-03  -1.022449e-01  0 
 -1.022449e-01  8.701063e-02  0 
 0  0  0 

 9.791040e-02  9.239228e-03  0 
 9.239228e-03  -1.982236e-01  0 
 0  0  0 

 1.380839e-01  -2.424426e-01  0 
 -2.424426e-01  1.060099e-01  0 
 0  0  0 

 4.604514e-04  -8.266148e-04  0 
 -8.266148e-04  9.902564e-05  0 
 0  0  0 

 1.153651e-03  -7.129548e-04  0 
 -7.129548e-04  -4.350846e-04  0 
 0  0  0 

 1.202164e-03  -5.824415e-04  0 
 -5.824415e-04  -9.250450e-04  0 
 0  0  0 

 1.096232e-03  -6.161571e-04  0 
 -6.161571e-04  -4.980622e-04  0 
 0  0  0 

 1.251717e-03  -7.007266e-04  0 
 -7.007266e-04  -9.982173e-04  0 
 0  0  0 

 9.572535e-04  -1.189517e-03  0 
 -1.189517e-03  3.354712e-04  0 
 0  0  0 

 8.473833e-04  -1.106284e-03  0 
 -1.106284e-03  2.912084e-04  0 
 0  0  0 

 1.195672e-03  -9.806006e-04  0 
 -9.806006e-04  -3.521408e-05  0 
 0  0  0 

 1.034370e-03  -1.074786e-03  0 
 -1.074786e-03  2.994242e-04  0 
 0  0  0 

 8.481438e-04  -7.485591e-04  0 
 -7.485591e-04  -1.705020e-04  0 
 0  0  0 

 1.197588e-03  -5.348142e-04  0 
 -5.348142e-04  -9.921812e-04  0 
 0  0  0 

 1.020667e-03  -6.208275e-04  0 
 -6.208275e-04  3.896318e-05  0 
 0  0  0 

 8.271619e-04  -5.232186e-04  0 
 -5.232186e-04  -5.822626e-04  0 
 0  0  0 

