# vtk DataFile Version 3.1
this is an vtk file created by FEMAC
ASCII
DATASET UNSTRUCTURED_GRID
POINTS 20 FLOAT
5.000000 5.000000 0.000000
5.000000 6.000000 0.000000
4.666667 5.000000 0.000000
5.000000 4.333333 0.000000
5.000000 4.666667 0.000000
5.000000 5.333333 0.000000
5.000000 5.666667 0.000000
5.333333 5.000000 0.000000
4.672762 4.468141 0.000000
4.741627 4.786241 0.000000
4.515642 5.353540 0.000000
4.818534 5.471368 0.000000
4.723211 5.710771 0.000000
4.782241 5.232308 0.000000
5.491944 4.720470 0.000000
5.227263 4.494519 0.000000
5.208173 4.780690 0.000000
5.236657 5.502947 0.000000
5.205935 5.229635 0.000000
5.220171 5.768283 0.000000
CELLS 25 100 
3 8 3 4
3 2 9 0
3 4 9 8
3 9 4 0
3 6 11  5
3 12  6  1
3 13  2  0
3 13  5 11
3 5 13  0
3 12 11  6
3 11 10 13
3 10 11 12
3 13 10  2
3 15  4  3
3 4 16  0
3 16  7  0
3 7 16 14
3 16 15 14
3 15 16  4
3 17  6  5
3 18  5  0
3 7 18  0
3 18 17  5
3 6 19  1
3 17 19  6
CELL_TYPES 25
5 5 5 5 5 5 5 5 5 5 5 5 5 5 5 5 5 5 5 5 5 5 5 5 5 
POINT_DATA 20
VECTORS displacement_ITER1 FLOAT
 2.242828e-01  -3.768018e-01  0 
 3.250841e-01  -3.769639e-01  0 
 2.243404e-01  -3.975832e-01  0 
 2.668589e-01  -3.763591e-01  0 
 2.453679e-01  -3.764823e-01  0 
 2.577404e-01  -3.769197e-01  0 
 2.913960e-01  -3.769455e-01  0 
 2.243563e-01  -4.102510e-01  0 
 2.581309e-01  -3.974096e-01  0 
 2.376873e-01  -3.929763e-01  0 
 2.644384e-01  -3.453467e-01  0 
 2.716209e-01  -3.679763e-01  0 
 2.952961e-01  -3.555793e-01  0 
 2.425969e-01  -3.763563e-01  0 
 2.466104e-01  -3.737713e-01  0 
 2.540327e-01  -3.738685e-01  0 
 2.345433e-01  -3.858002e-01  0 
 2.748749e-01  -4.008171e-01  0 
 2.473607e-01  -3.975734e-01  0 
 3.016758e-01  -3.991958e-01  0 
VECTORS displacement_ITER2 FLOAT
 1.489351e-02  -8.510281e-02  0 
 8.430953e-02  -8.537179e-02  0 
 1.493295e-02  -9.465797e-02  0 
 3.462268e-02  -8.477017e-02  0 
 2.472276e-02  -8.482439e-02  0 
 3.811840e-02  -8.525217e-02  0 
 6.127114e-02  -8.534424e-02  0 
 1.493026e-02  -1.083786e-01  0 
 3.062897e-02  -9.444857e-02  0 
 2.108155e-02  -9.255142e-02  0 
 4.182421e-02  -6.330741e-02  0 
 4.743729e-02  -7.896533e-02  0 
 6.377626e-02  -7.054976e-02  0 
 2.806874e-02  -8.351863e-02  0 
 2.307727e-02  -9.265566e-02  0 
 2.737046e-02  -8.751580e-02  0 
 1.870795e-02  -9.330618e-02  0 
 4.993331e-02  -1.017350e-01  0 
 3.093306e-02  -9.954620e-02  0 
 6.830481e-02  -1.005844e-01  0 
VECTORS displacement_ITER3 FLOAT
 -1.822885e-03  -3.391781e-02  0 
 3.250432e-02  -3.432993e-02  0 
 -1.870637e-03  -4.227395e-02  0 
 1.515810e-02  -3.435480e-02  0 
 6.821360e-03  -3.376449e-02  0 
 9.915872e-03  -3.411857e-02  0 
 2.135051e-02  -3.428901e-02  0 
 -1.777932e-03  -4.572224e-02  0 
 1.206672e-02  -4.204098e-02  0 
 3.614843e-03  -4.040681e-02  0 
 1.255446e-02  -2.752975e-02  0 
 1.479122e-02  -3.332624e-02  0 
 2.380389e-02  -2.904344e-02  0 
 5.044464e-03  -3.601287e-02  0 
 7.069735e-04  -4.516117e-02  0 
 8.045868e-03  -3.848516e-02  0 
 1.682575e-03  -3.927385e-02  0 
 1.579637e-02  -4.232758e-02  0 
 6.319417e-03  -4.127430e-02  0 
 2.476308e-02  -4.170725e-02  0 
VECTORS displacement_ITER4 FLOAT
 -2.270640e-03  -1.749429e-02  0 
 2.546217e-02  -1.772259e-02  0 
 -2.332481e-03  -2.286919e-02  0 
 9.031278e-03  -1.765348e-02  0 
 3.214777e-03  -1.738693e-02  0 
 6.965795e-03  -1.761972e-02  0 
 1.625225e-02  -1.769012e-02  0 
 -2.181711e-03  -2.671374e-02  0 
 6.774004e-03  -2.306192e-02  0 
 1.207323e-03  -2.164277e-02  0 
 9.834625e-03  -1.076061e-02  0 
 1.116887e-02  -1.655289e-02  0 
 1.915737e-02  -1.202800e-02  0 
 3.414189e-03  -1.871128e-02  0 
 -3.511341e-03  -3.058566e-02  0 
 2.802621e-03  -2.272630e-02  0 
 -6.718056e-04  -2.237921e-02  0 
 1.171218e-02  -2.424912e-02  0 
 4.123787e-03  -2.329406e-02  0 
 1.907184e-02  -2.379607e-02  0 
VECTORS displacement_ITER5 FLOAT
 5.483999e-03  -1.414850e-02  0 
 2.816525e-02  -1.452675e-02  0 
 5.307994e-03  -1.426600e-02  0 
 5.261211e-03  -1.422095e-02  0 
 5.508790e-03  -1.415210e-02  0 
 1.330749e-02  -1.436914e-02  0 
 2.080351e-02  -1.449681e-02  0 
 5.478854e-03  -2.214185e-02  0 
 5.388453e-03  -1.391240e-02  0 
 5.517089e-03  -1.407335e-02  0 
 1.153380e-02  -1.659060e-02  0 
 1.557396e-02  -1.589897e-02  0 
 1.993014e-02  -1.667419e-02  0 
 1.044701e-02  -1.532647e-02  0 
 3.652704e-03  -2.638286e-02  0 
 3.826489e-03  -2.002346e-02  0 
 4.969657e-03  -1.955761e-02  0 
 1.716381e-02  -1.976800e-02  0 
 1.093618e-02  -1.910296e-02  0 
 2.305625e-02  -1.938414e-02  0 
VECTORS displacement_ITER6 FLOAT
 5.271347e-03  -1.271200e-02  0 
 2.702787e-02  -1.289350e-02  0 
 5.242805e-03  -1.182224e-02  0 
 3.772160e-03  -1.262123e-02  0 
 4.541691e-03  -1.255892e-02  0 
 1.253306e-02  -1.285758e-02  0 
 1.976342e-02  -1.287119e-02  0 
 5.288654e-03  -2.011287e-02  0 
 4.118576e-03  -1.176517e-02  0 
 4.746649e-03  -1.200368e-02  0 
 9.724230e-03  -1.347733e-02  0 
 1.440896e-02  -1.380981e-02  0 
 1.792114e-02  -1.504729e-02  0 
 9.525205e-03  -1.290009e-02  0 
 3.895477e-03  -2.487229e-02  0 
 2.941744e-03  -1.839717e-02  0 
 4.728144e-03  -1.808629e-02  0 
 1.620889e-02  -1.800384e-02  0 
 1.031209e-02  -1.730629e-02  0 
 2.198751e-02  -1.766786e-02  0 
VECTORS displacement_ITER7 FLOAT
 4.763972e-03  -1.176125e-02  0 
 2.630675e-02  -1.201776e-02  0 
 4.732995e-03  -1.083601e-02  0 
 3.198608e-03  -1.166968e-02  0 
 3.977837e-03  -1.162891e-02  0 
 1.198932e-02  -1.190548e-02  0 
 1.915901e-02  -1.198037e-02  0 
 4.794804e-03  -1.908611e-02  0 
 3.549796e-03  -1.085248e-02  0 
 4.220420e-03  -1.102894e-02  0 
 9.123609e-03  -1.267454e-02  0 
 1.380999e-02  -1.289685e-02  0 
 1.698716e-02  -1.444223e-02  0 
 8.995209e-03  -1.196492e-02  0 
 3.243853e-03  -2.294434e-02  0 
 2.450544e-03  -1.713549e-02  0 
 4.071028e-03  -1.689941e-02  0 
 1.566098e-02  -1.703574e-02  0 
 9.774826e-03  -1.633142e-02  0 
 2.135267e-02  -1.671629e-02  0 
VECTORS displacement_ITER8 FLOAT
 5.109198e-03  -1.250404e-02  0 
 2.652805e-02  -1.274383e-02  0 
 5.060978e-03  -1.160123e-02  0 
 3.517744e-03  -1.244051e-02  0 
 4.316849e-03  -1.238642e-02  0 
 1.229913e-02  -1.264140e-02  0 
 1.943487e-02  -1.270725e-02  0 
 5.145935e-03  -1.978006e-02  0 
 3.874609e-03  -1.158312e-02  0 
 4.566996e-03  -1.176866e-02  0 
 9.546052e-03  -1.287613e-02  0 
 1.418404e-02  -1.355078e-02  0 
 1.712516e-02  -1.536400e-02  0 
 9.290959e-03  -1.262557e-02  0 
 3.516312e-03  -2.378873e-02  0 
 2.736145e-03  -1.776067e-02  0 
 4.396696e-03  -1.760265e-02  0 
 1.595039e-02  -1.774155e-02  0 
 1.009229e-02  -1.705058e-02  0 
 2.161216e-02  -1.740907e-02  0 
VECTORS displacement_ITER9 FLOAT
 5.074711e-03  -1.261901e-02  0 
 2.651230e-02  -1.286404e-02  0 
 5.028966e-03  -1.171521e-02  0 
 3.489768e-03  -1.255088e-02  0 
 4.286265e-03  -1.249857e-02  0 
 1.226886e-02  -1.276260e-02  0 
 1.940455e-02  -1.282819e-02  0 
 5.107611e-03  -1.990809e-02  0 
 3.845470e-03  -1.169744e-02  0 
 4.533592e-03  -1.188564e-02  0 
 9.518072e-03  -1.293966e-02  0 
 1.416475e-02  -1.367366e-02  0 
 1.709043e-02  -1.553319e-02  0 
 9.254621e-03  -1.273400e-02  0 
 3.464201e-03  -2.398952e-02  0 
 2.690749e-03  -1.784147e-02  0 
 4.360457e-03  -1.772095e-02  0 
 1.591957e-02  -1.786443e-02  0 
 1.006383e-02  -1.717023e-02  0 
 2.158464e-02  -1.753546e-02  0 
CELL_DATA 25
TENSORS element_stresses FLOAT
 -6.103531e-02  -1.183679e-01  0 
 -1.183679e-01  1.386073e-01  0 
 0  0  0 

 1.002015e-01  -2.660255e-01  0 
 -2.660255e-01  -1.234507e-01  0 
 0  0  0 

 2.044002e-02  -1.927140e-01  0 
 -1.927140e-01  -6.483982e-02  0 
 0  0  0 

 3.190542e-02  -1.339583e-01  0 
 -1.339583e-01  -3.517373e-01  0 
 0  0  0 

 6.348267e-03  2.021382e-02  0 
 2.021382e-02  1.707691e-03  0 
 0  0  0 

 1.288580e-02  2.390680e-02  0 
 2.390680e-02  3.758209e-03  0 
 0  0  0 

 -8.502657e-04  1.185399e-02  0 
 1.185399e-02  -3.291674e-03  0 
 0  0  0 

 3.712039e-03  1.665796e-02  0 
 1.665796e-02  -3.093390e-03  0 
 0  0  0 

 4.066031e-03  1.665460e-02  0 
 1.665460e-02  7.890526e-04  0 
 0  0  0 

 1.073032e-02  1.978178e-02  0 
 1.978178e-02  -9.196036e-04  0 
 0  0  0 

 7.336795e-03  1.415610e-02  0 
 1.415610e-02  -1.585309e-03  0 
 0  0  0 

 7.581102e-03  1.260679e-02  0 
 1.260679e-02  -5.286732e-03  0 
 0  0  0 

 5.244829e-03  1.095206e-02  0 
 1.095206e-02  -2.315958e-03  0 
 0  0  0 

 -5.674163e-03  -1.615487e-02  0 
 -1.615487e-02  -1.545331e-03  0 
 0  0  0 

 -1.151184e-03  -1.732577e-02  0 
 -1.732577e-02  -7.066641e-04  0 
 0  0  0 

 9.349002e-04  -1.424362e-02  0 
 -1.424362e-02  2.787337e-03  0 
 0  0  0 

 -1.612558e-03  -1.303465e-02  0 
 -1.303465e-02  1.865814e-03  0 
 0  0  0 

 -2.492356e-03  -1.277854e-02  0 
 -1.277854e-02  -1.815343e-03  0 
 0  0  0 

 -3.408609e-03  -1.444080e-02  0 
 -1.444080e-02  -2.230854e-03  0 
 0  0  0 

 2.690366e-02  -7.532704e-03  0 
 -7.532704e-03  -1.887178e-01  0 
 0  0  0 

 3.424627e-02  -2.880437e-02  0 
 -2.880437e-02  -4.204828e-01  0 
 0  0  0 

 3.957645e-02  -1.765039e-01  0 
 -1.765039e-01  -1.970758e-01  0 
 0  0  0 

 4.254424e-02  -3.882119e-02  0 
 -3.882119e-02  -1.142022e-01  0 
 0  0  0 

 3.097029e-02  -5.529581e-03  0 
 -5.529581e-03  -9.823813e-02  0 
 0  0  0 

 2.267124e-02  1.016337e-02  0 
 1.016337e-02  -7.930591e-02  0 
 0  0  0 

TENSORS element_stresses FLOAT
 -6.103531e-02  -1.183679e-01  0 
 -1.183679e-01  1.386073e-01  0 
 0  0  0 

 1.002015e-01  -2.660255e-01  0 
 -2.660255e-01  -1.234507e-01  0 
 0  0  0 

 2.044002e-02  -1.927140e-01  0 
 -1.927140e-01  -6.483982e-02  0 
 0  0  0 

 3.190542e-02  -1.339583e-01  0 
 -1.339583e-01  -3.517373e-01  0 
 0  0  0 

 6.348267e-03  2.021382e-02  0 
 2.021382e-02  1.707691e-03  0 
 0  0  0 

 1.288580e-02  2.390680e-02  0 
 2.390680e-02  3.758209e-03  0 
 0  0  0 

 -8.502657e-04  1.185399e-02  0 
 1.185399e-02  -3.291674e-03  0 
 0  0  0 

 3.712039e-03  1.665796e-02  0 
 1.665796e-02  -3.093390e-03  0 
 0  0  0 

 4.066031e-03  1.665460e-02  0 
 1.665460e-02  7.890526e-04  0 
 0  0  0 

 1.073032e-02  1.978178e-02  0 
 1.978178e-02  -9.196036e-04  0 
 0  0  0 

 7.336795e-03  1.415610e-02  0 
 1.415610e-02  -1.585309e-03  0 
 0  0  0 

 7.581102e-03  1.260679e-02  0 
 1.260679e-02  -5.286732e-03  0 
 0  0  0 

 5.244829e-03  1.095206e-02  0 
 1.095206e-02  -2.315958e-03  0 
 0  0  0 

 -5.674163e-03  -1.615487e-02  0 
 -1.615487e-02  -1.545331e-03  0 
 0  0  0 

 -1.151184e-03  -1.732577e-02  0 
 -1.732577e-02  -7.066641e-04  0 
 0  0  0 

 9.349002e-04  -1.424362e-02  0 
 -1.424362e-02  2.787337e-03  0 
 0  0  0 

 -1.612558e-03  -1.303465e-02  0 
 -1.303465e-02  1.865814e-03  0 
 0  0  0 

 -2.492356e-03  -1.277854e-02  0 
 -1.277854e-02  -1.815343e-03  0 
 0  0  0 

 -3.408609e-03  -1.444080e-02  0 
 -1.444080e-02  -2.230854e-03  0 
 0  0  0 

 2.690366e-02  -7.532704e-03  0 
 -7.532704e-03  -1.887178e-01  0 
 0  0  0 

 3.424627e-02  -2.880437e-02  0 
 -2.880437e-02  -4.204828e-01  0 
 0  0  0 

 3.957645e-02  -1.765039e-01  0 
 -1.765039e-01  -1.970758e-01  0 
 0  0  0 

 4.254424e-02  -3.882119e-02  0 
 -3.882119e-02  -1.142022e-01  0 
 0  0  0 

 3.097029e-02  -5.529581e-03  0 
 -5.529581e-03  -9.823813e-02  0 
 0  0  0 

 2.267124e-02  1.016337e-02  0 
 1.016337e-02  -7.930591e-02  0 
 0  0  0 

