# vtk DataFile Version 3.1
this is an vtk file created by FEMAC
ASCII
DATASET UNSTRUCTURED_GRID
POINTS 20 FLOAT
1.000000 5.000000 0.000000
1.000000 6.000000 0.000000
0.333333 6.000000 0.000000
0.666667 6.000000 0.000000
1.000000 5.333333 0.000000
1.000000 5.666667 0.000000
1.333333 5.000000 0.000000
1.333333 6.000000 0.000000
1.666667 6.000000 0.000000
0.775322 5.793598 0.000000
0.478822 5.750065 0.000000
0.696366 5.462917 0.000000
0.783178 5.200855 0.000000
1.735450 5.578520 0.000000
1.353540 5.484358 0.000000
1.471368 5.181466 0.000000
1.710771 5.276789 0.000000
1.232308 5.217759 0.000000
1.514832 5.788257 0.000000
1.240341 5.787856 0.000000
CELLS 24 96 
3 3 9 1
3 9 5 1
3 9 11  5
3 11  4  5
3 3 10  9
3 10  3  2
3 9 10 11
3 4 12  0
3 12  4 11
3 17  4  0
3 17  6 15
3 6 17  0
3 15 14 17
3 14 15 16
3 14 16 13
3 14  5  4
3 17 14  4
3 18  8  7
3 18 14 13
3 5 19  1
3 19  7  1
3 19  5 14
3 19 18  7
3 14 18 19
CELL_TYPES 24
5 5 5 5 5 5 5 5 5 5 5 5 5 5 5 5 5 5 5 5 5 5 5 5 
POINT_DATA 20
VECTORS displacement_ITER1 FLOAT
 3.678401e-02  -8.834359e-02  0 
 1.841239e-01  -8.905407e-02  0 
 1.762371e-01  -8.940279e-03  0 
 1.788024e-01  -4.997474e-02  0 
 8.629125e-02  -8.871185e-02  0 
 1.353048e-01  -8.897532e-02  0 
 3.723081e-02  -1.374721e-01  0 
 1.841031e-01  -1.378657e-01  0 
 1.839814e-01  -1.865553e-01  0 
 1.529957e-01  -6.069573e-02  0 
 1.454753e-01  -2.401184e-02  0 
 1.057167e-01  -4.851381e-02  0 
 6.683909e-02  -5.888395e-02  0 
 1.223908e-01  -1.968350e-01  0 
 1.086128e-01  -1.408870e-01  0 
 6.412354e-02  -1.580831e-01  0 
 7.827368e-02  -1.932617e-01  0 
 6.930104e-02  -1.229175e-01  0 
 1.531033e-01  -1.644816e-01  0 
 1.530684e-01  -1.242583e-01  0 
VECTORS displacement_ITER2 FLOAT
 -6.426317e-04  -1.237005e-02  0 
 3.503980e-02  -1.351260e-02  0 
 1.547084e-02  -2.536268e-02  0 
 2.360232e-02  -1.833553e-02  0 
 1.197355e-02  -1.310834e-02  0 
 2.361589e-02  -1.341676e-02  0 
 1.422535e-04  -2.460198e-02  0 
 3.501559e-02  -2.492553e-02  0 
 3.490524e-02  -3.626338e-02  0 
 2.570204e-02  -1.207956e-02  0 
 2.115210e-02  -1.414483e-02  0 
 1.658561e-02  -7.892448e-03  0 
 6.517880e-03  -7.387386e-03  0 
 2.055359e-02  -3.883210e-02  0 
 1.735576e-02  -2.574116e-02  0 
 6.827348e-03  -2.982040e-02  0 
 1.025458e-02  -3.801619e-02  0 
 7.916692e-03  -2.139561e-02  0 
 2.775250e-02  -3.119159e-02  0 
 2.778360e-02  -2.176074e-02  0 
VECTORS displacement_ITER3 FLOAT
 2.018642e-03  2.708571e-03  0 
 2.549546e-02  1.573823e-03  0 
 -2.673716e-04  -2.750974e-02  0 
 1.071485e-02  -1.100310e-02  0 
 1.051939e-02  2.009542e-03  0 
 1.812394e-02  1.698409e-03  0 
 2.632050e-03  -5.593657e-03  0 
 2.547477e-02  -5.782857e-03  0 
 2.529973e-02  -1.293373e-02  0 
 1.783217e-02  -7.866857e-04  0 
 1.260929e-02  -9.399134e-03  0 
 1.337089e-02  2.830573e-03  0 
 6.584076e-03  4.858210e-03  0 
 1.612193e-02  -1.486111e-02  0 
 1.407738e-02  -6.322156e-03  0 
 7.149871e-03  -9.000876e-03  0 
 9.410566e-03  -1.442370e-02  0 
 7.857826e-03  -3.458809e-03  0 
 2.081852e-02  -9.838115e-03  0 
 2.083342e-02  -3.737492e-03  0 
VECTORS displacement_ITER4 FLOAT
 9.997274e-04  -1.504655e-03  0 
 1.068442e-02  -2.416486e-03  0 
 3.692422e-03  -1.013931e-02  0 
 4.888838e-03  -1.066757e-02  0 
 4.809203e-03  -2.093051e-03  0 
 7.822288e-03  -2.341771e-03  0 
 1.550648e-03  -5.112004e-03  0 
 1.066834e-02  -5.271995e-03  0 
 1.057768e-02  -8.062565e-03  0 
 7.024425e-03  -5.940742e-03  0 
 3.505791e-03  -9.491945e-03  0 
 4.979484e-03  -4.258763e-03  0 
 3.134515e-03  -2.484132e-03  0 
 7.053051e-03  -8.815139e-03  0 
 6.262470e-03  -5.514101e-03  0 
 3.516735e-03  -6.568102e-03  0 
 4.428515e-03  -8.699628e-03  0 
 3.736465e-03  -4.348566e-03  0 
 8.848999e-03  -6.865587e-03  0 
 8.874698e-03  -4.485678e-03  0 
VECTORS displacement_ITER5 FLOAT
 1.652083e-03  -3.137154e-03  0 
 6.578301e-03  -3.870595e-03  0 
 5.184989e-03  -5.508916e-03  0 
 4.059060e-03  -9.919940e-03  0 
 3.792076e-03  -3.642718e-03  0 
 5.253900e-03  -3.815845e-03  0 
 2.199881e-03  -5.051277e-03  0 
 6.559154e-03  -5.178080e-03  0 
 6.515390e-03  -6.456685e-03  0 
 4.525258e-03  -7.377321e-03  0 
 2.079408e-03  -8.660999e-03  0 
 3.211499e-03  -6.575651e-03  0 
 2.707625e-03  -4.662560e-03  0 
 4.807206e-03  -6.848633e-03  0 
 4.505644e-03  -5.369106e-03  0 
 3.215736e-03  -5.850527e-03  0 
 3.699037e-03  -6.828430e-03  0 
 3.267352e-03  -4.791221e-03  0 
 5.707360e-03  -5.920391e-03  0 
 5.741920e-03  -4.832437e-03  0 
VECTORS displacement_ITER6 FLOAT
 1.213604e-03  -1.955228e-03  0 
 6.542782e-03  -2.627781e-03  0 
 2.955680e-03  -8.043052e-03  0 
 3.405496e-03  -8.766151e-03  0 
 3.441036e-03  -2.429632e-03  0 
 5.041955e-03  -2.587470e-03  0 
 1.751789e-03  -3.957517e-03  0 
 6.530920e-03  -4.120096e-03  0 
 6.512519e-03  -5.631990e-03  0 
 4.595140e-03  -5.905310e-03  0 
 2.718614e-03  -7.801508e-03  0 
 3.296427e-03  -5.335109e-03  0 
 2.411239e-03  -3.396027e-03  0 
 4.596474e-03  -5.962932e-03  0 
 4.212458e-03  -4.292068e-03  0 
 2.804463e-03  -4.791554e-03  0 
 3.335958e-03  -5.872284e-03  0 
 2.872948e-03  -3.661835e-03  0 
 5.558235e-03  -4.959438e-03  0 
 5.589576e-03  -3.718538e-03  0 
VECTORS displacement_ITER7 FLOAT
 1.397378e-03  -1.627602e-03  0 
 5.787583e-03  -2.304354e-03  0 
 2.750240e-03  -7.483103e-03  0 
 2.827710e-03  -8.672287e-03  0 
 3.311801e-03  -2.097129e-03  0 
 4.603465e-03  -2.264407e-03  0 
 1.934974e-03  -3.308600e-03  0 
 5.775159e-03  -3.480383e-03  0 
 5.760317e-03  -4.689837e-03  0 
 4.000378e-03  -5.809461e-03  0 
 2.043318e-03  -7.791386e-03  0 
 3.000564e-03  -5.248983e-03  0 
 2.407457e-03  -3.062372e-03  0 
 4.238357e-03  -4.932564e-03  0 
 3.949496e-03  -3.635312e-03  0 
 2.812934e-03  -4.035282e-03  0 
 3.253698e-03  -4.900447e-03  0 
 2.849200e-03  -3.114127e-03  0 
 5.001275e-03  -4.148436e-03  0 
 5.035087e-03  -3.168031e-03  0 
VECTORS displacement_ITER8 FLOAT
 1.402131e-03  -1.757294e-03  0 
 6.059531e-03  -2.443905e-03  0 
 2.891212e-03  -7.611390e-03  0 
 3.183473e-03  -8.531838e-03  0 
 3.411663e-03  -2.236845e-03  0 
 4.789218e-03  -2.402781e-03  0 
 1.940008e-03  -3.531024e-03  0 
 6.046319e-03  -3.705499e-03  0 
 6.028073e-03  -4.995049e-03  0 
 4.281925e-03  -5.812524e-03  0 
 2.459912e-03  -7.551657e-03  0 
 3.150834e-03  -5.370702e-03  0 
 2.514914e-03  -3.116008e-03  0 
 4.397407e-03  -5.265384e-03  0 
 4.086230e-03  -3.867549e-03  0 
 2.879918e-03  -4.308042e-03  0 
 3.332393e-03  -5.219977e-03  0 
 2.920828e-03  -3.314090e-03  0 
 5.219317e-03  -4.420140e-03  0 
 5.252709e-03  -3.369472e-03  0 
VECTORS displacement_ITER9 FLOAT
 1.390622e-03  -1.722620e-03  0 
 6.010603e-03  -2.403845e-03  0 
 2.842212e-03  -7.611981e-03  0 
 3.125564e-03  -8.515397e-03  0 
 3.385593e-03  -2.197931e-03  0 
 4.751112e-03  -2.361851e-03  0 
 1.928879e-03  -3.483438e-03  0 
 5.997559e-03  -3.654455e-03  0 
 5.976146e-03  -4.925760e-03  0 
 4.239460e-03  -5.781451e-03  0 
 2.417255e-03  -7.555057e-03  0 
 3.123535e-03  -5.328501e-03  0 
 2.488607e-03  -3.102116e-03  0 
 4.364396e-03  -5.207131e-03  0 
 4.053796e-03  -3.813703e-03  0 
 2.855641e-03  -4.248705e-03  0 
 3.304478e-03  -5.159801e-03  0 
 2.897854e-03  -3.267468e-03  0 
 5.179260e-03  -4.362731e-03  0 
 5.211330e-03  -3.320818e-03  0 
CELL_DATA 24
TENSORS element_stresses FLOAT
 8.326311e-03  1.345708e-02  0 
 1.345708e-02  -1.096017e-03  0 
 0  0  0 

 4.806723e-03  1.455946e-02  0 
 1.455946e-02  1.316037e-03  0 
 0  0  0 

 2.597555e-03  1.171041e-02  0 
 1.171041e-02  -3.629762e-03  0 
 0  0  0 

 2.707537e-03  1.092080e-02  0 
 1.092080e-02  3.204989e-04  0 
 0  0  0 

 3.987462e-03  4.116544e-03  0 
 4.116544e-03  -8.176130e-03  0 
 0  0  0 

 3.389420e-04  -3.962765e-04  0 
 -3.962765e-04  -1.703717e-03  0 
 0  0  0 

 5.478695e-03  6.449286e-03  0 
 6.449286e-03  -1.256041e-03  0 
 0  0  0 

 5.758918e-05  8.481789e-03  0 
 8.481789e-03  -1.408654e-03  0 
 0  0  0 

 4.773944e-04  8.415365e-03  0 
 8.415365e-03  -5.773464e-03  0 
 0  0  0 

 4.947248e-01  5.165747e-01  0 
 5.165747e-01  -1.277514e+00  0 
 0  0  0 

 2.662629e-01  3.424571e-01  0 
 3.424571e-01  -9.017064e-01  0 
 0  0  0 

 1.293513e+00  -6.427561e-02  0 
 -6.427561e-02  -1.070854e+00  0 
 0  0  0 

 4.388831e-01  3.977933e-04  0 
 3.977933e-04  -3.897144e-02  0 
 0  0  0 

 2.725887e-01  2.048167e-01  0 
 2.048167e-01  4.342357e-02  0 
 0  0  0 

 -1.160532e-02  -1.284532e-01  0 
 -1.284532e-01  1.409820e-01  0 
 0  0  0 

 -8.196119e-03  -2.028056e-01  0 
 -2.028056e-01  -4.942211e-01  0 
 0  0  0 

 6.361111e-02  -2.086983e-01  0 
 -2.086983e-01  5.551585e-02  0 
 0  0  0 

 -4.559373e-02  -3.372142e-03  0 
 -3.372142e-03  6.215900e-02  0 
 0  0  0 

 -7.694642e-02  6.073282e-02  0 
 6.073282e-02  1.263022e-01  0 
 0  0  0 

 -3.098688e-02  -1.138671e-01  0 
 -1.138671e-01  -1.352761e-01  0 
 0  0  0 

 -1.929495e-02  -2.196910e-02  0 
 -2.196910e-02  6.611841e-02  0 
 0  0  0 

 3.000428e-02  -1.817691e-01  0 
 -1.817691e-01  1.233165e-01  0 
 0  0  0 

 -1.043465e-01  -2.784690e-02  0 
 -2.784690e-02  5.993867e-02  0 
 0  0  0 

 -6.582254e-02  -2.135940e-02  0 
 -2.135940e-02  1.883937e-01  0 
 0  0  0 

TENSORS element_stresses FLOAT
 8.326311e-03  1.345708e-02  0 
 1.345708e-02  -1.096017e-03  0 
 0  0  0 

 4.806723e-03  1.455946e-02  0 
 1.455946e-02  1.316037e-03  0 
 0  0  0 

 2.597555e-03  1.171041e-02  0 
 1.171041e-02  -3.629762e-03  0 
 0  0  0 

 2.707537e-03  1.092080e-02  0 
 1.092080e-02  3.204989e-04  0 
 0  0  0 

 3.987462e-03  4.116544e-03  0 
 4.116544e-03  -8.176130e-03  0 
 0  0  0 

 3.389420e-04  -3.962765e-04  0 
 -3.962765e-04  -1.703717e-03  0 
 0  0  0 

 5.478695e-03  6.449286e-03  0 
 6.449286e-03  -1.256041e-03  0 
 0  0  0 

 5.758918e-05  8.481789e-03  0 
 8.481789e-03  -1.408654e-03  0 
 0  0  0 

 4.773944e-04  8.415365e-03  0 
 8.415365e-03  -5.773464e-03  0 
 0  0  0 

 4.947248e-01  5.165747e-01  0 
 5.165747e-01  -1.277514e+00  0 
 0  0  0 

 2.662629e-01  3.424571e-01  0 
 3.424571e-01  -9.017064e-01  0 
 0  0  0 

 1.293513e+00  -6.427561e-02  0 
 -6.427561e-02  -1.070854e+00  0 
 0  0  0 

 4.388831e-01  3.977933e-04  0 
 3.977933e-04  -3.897144e-02  0 
 0  0  0 

 2.725887e-01  2.048167e-01  0 
 2.048167e-01  4.342357e-02  0 
 0  0  0 

 -1.160532e-02  -1.284532e-01  0 
 -1.284532e-01  1.409820e-01  0 
 0  0  0 

 -8.196119e-03  -2.028056e-01  0 
 -2.028056e-01  -4.942211e-01  0 
 0  0  0 

 6.361111e-02  -2.086983e-01  0 
 -2.086983e-01  5.551585e-02  0 
 0  0  0 

 -4.559373e-02  -3.372142e-03  0 
 -3.372142e-03  6.215900e-02  0 
 0  0  0 

 -7.694642e-02  6.073282e-02  0 
 6.073282e-02  1.263022e-01  0 
 0  0  0 

 -3.098688e-02  -1.138671e-01  0 
 -1.138671e-01  -1.352761e-01  0 
 0  0  0 

 -1.929495e-02  -2.196910e-02  0 
 -2.196910e-02  6.611841e-02  0 
 0  0  0 

 3.000428e-02  -1.817691e-01  0 
 -1.817691e-01  1.233165e-01  0 
 0  0  0 

 -1.043465e-01  -2.784690e-02  0 
 -2.784690e-02  5.993867e-02  0 
 0  0  0 

 -6.582254e-02  -2.135940e-02  0 
 -2.135940e-02  1.883937e-01  0 
 0  0  0 

