# vtk DataFile Version 3.1
this is an vtk file created by FEMAC
ASCII
DATASET UNSTRUCTURED_GRID
POINTS 32 FLOAT
5.000000 3.000000 0.000000
6.000000 3.000000 0.000000
6.000000 4.000000 0.000000
5.000000 2.750000 0.000000
5.250000 3.000000 0.000000
5.500000 3.000000 0.000000
5.750000 3.000000 0.000000
6.000000 2.500000 0.000000
6.000000 2.750000 0.000000
5.500000 4.000000 0.000000
5.750000 4.000000 0.000000
6.000000 3.250000 0.000000
6.000000 3.500000 0.000000
6.000000 3.750000 0.000000
4.761003 2.832250 0.000000
5.808128 2.581646 0.000000
5.507893 2.661856 0.000000
5.761003 2.832250 0.000000
5.245757 2.832172 0.000000
5.528256 3.447447 0.000000
5.669072 3.813081 0.000000
5.805000 3.255000 0.000000
5.195000 3.255000 0.000000
5.500000 3.775000 0.000000
5.805846 3.660928 0.000000
5.378219 3.169567 0.000000
5.565925 3.242859 0.000000
5.323754 3.413341 0.000000
5.717271 3.453287 0.000000
5.404183 3.616917 0.000000
5.598598 3.613486 0.000000
5.844984 3.844802 0.000000
CELLS 43 172 
3 14  3  0
3 8 15  7
3 6 17  1
3 17  8  1
3 3 18  0
3 18  4  0
3 17 15  8
3 5 17  6
3 16 17  5
3 16 15 17
3 18  5  4
3 18 16  5
3 9 20 10
3 12 21 11
3 23 20  9
3 30 20 23
3 25  4  5
3 6 26  5
3 13 24 12
3 30 24 20
3 28 26 21
3 25 27 22
3 30 29 19
3 23 29 30
3 21 26  6
3 25 22  4
3 19 29 27
3 12 28 21
3 12 24 28
3 30 19 28
3 28 24 30
3 1 21  6
3 1 11 21
3 0  4 22
3 10 31  2
3 31 13  2
3 31 10 20
3 31 24 13
3 20 24 31
3 25  5 26
3 19 27 26
3 28 19 26
3 25 26 27
CELL_TYPES 43
5 5 5 5 5 5 5 5 5 5 5 5 5 5 5 5 5 5 5 5 5 5 5 5 5 5 5 5 5 5 5 5 5 5 5 5 5 5 5 5 5 5 5 
POINT_DATA 32
VECTORS displacement_ITER1 FLOAT
 -2.816189e-03  -3.244706e-01  0 
 -2.788564e-03  -4.045730e-01  0 
 7.703734e-02  -4.045282e-01  0 
 -3.081797e-02  -3.243857e-01  0 
 -2.813712e-03  -3.445634e-01  0 
 -2.794636e-03  -3.645947e-01  0 
 -2.787225e-03  -3.845867e-01  0 
 -6.961866e-03  -4.092827e-01  0 
 -1.013926e-02  -4.085487e-01  0 
 7.702612e-02  -3.646316e-01  0 
 7.703687e-02  -3.845772e-01  0 
 1.718649e-02  -4.045627e-01  0 
 3.715503e-02  -4.045460e-01  0 
 5.710385e-02  -4.045292e-01  0 
 -2.163781e-02  -2.975898e-01  0 
 -1.113118e-02  -3.977990e-01  0 
 -8.766176e-03  -3.653125e-01  0 
 -5.629755e-03  -3.872077e-01  0 
 -1.203088e-02  -3.462511e-01  0 
 3.296817e-02  -3.668532e-01  0 
 6.213411e-02  -3.781118e-01  0 
 1.759097e-02  -3.889771e-01  0 
 1.760238e-02  -3.401771e-01  0 
 5.909457e-02  -3.646185e-01  0 
 5.000160e-02  -3.890306e-01  0 
 1.076774e-02  -3.548502e-01  0 
 1.662464e-02  -3.698664e-01  0 
 3.024759e-02  -3.505012e-01  0 
 3.343116e-02  -3.819591e-01  0 
 4.648738e-02  -3.569516e-01  0 
 4.621767e-02  -3.724789e-01  0 
 6.466382e-02  -3.921555e-01  0 
VECTORS displacement_ITER2 FLOAT
 1.631397e-02  -2.576303e-01  0 
 1.632698e-02  -3.164336e-01  0 
 7.488833e-02  -3.163970e-01  0 
 7.046248e-04  -2.575551e-01  0 
 1.631312e-02  -2.723874e-01  0 
 1.632622e-02  -2.870917e-01  0 
 1.632964e-02  -3.017644e-01  0 
 1.433040e-02  -3.269422e-01  0 
 1.169961e-02  -3.233782e-01  0 
 7.486796e-02  -2.871370e-01  0 
 7.488336e-02  -3.017633e-01  0 
 3.098322e-02  -3.164221e-01  0 
 4.563272e-02  -3.164070e-01  0 
 6.026543e-02  -3.163958e-01  0 
 5.814200e-03  -2.426045e-01  0 
 1.203599e-02  -3.152187e-01  0 
 1.586603e-02  -2.879970e-01  0 
 1.617723e-02  -3.043161e-01  0 
 1.196631e-02  -2.731635e-01  0 
 4.256113e-02  -2.887487e-01  0 
 6.395237e-02  -2.970154e-01  0 
 3.128129e-02  -3.049840e-01  0 
 3.129207e-02  -2.691705e-01  0 
 6.171938e-02  -2.871170e-01  0 
 5.505523e-02  -3.050234e-01  0 
 2.627780e-02  -2.799392e-01  0 
 3.057356e-02  -2.909589e-01  0 
 4.056558e-02  -2.767501e-01  0 
 4.290117e-02  -2.998333e-01  0 
 5.247308e-02  -2.814871e-01  0 
 5.227824e-02  -2.928788e-01  0 
 6.581017e-02  -3.073183e-01  0 
VECTORS displacement_ITER3 FLOAT
 -1.325256e-03  -1.723533e-01  0 
 -1.334427e-03  -2.213024e-01  0 
 4.739016e-02  -2.212609e-01  0 
 -5.633386e-03  -1.722877e-01  0 
 -1.330268e-03  -1.846363e-01  0 
 -1.324346e-03  -1.968736e-01  0 
 -1.327863e-03  -2.090877e-01  0 
 -2.083640e-02  -2.512751e-01  0 
 -1.022190e-02  -2.373515e-01  0 
 4.735905e-02  -1.969263e-01  0 
 4.738029e-02  -2.090890e-01  0 
 1.086326e-02  -2.212831e-01  0 
 2.305158e-02  -2.212640e-01  0 
 3.522315e-02  -2.212566e-01  0 
 -4.233944e-03  -1.681375e-01  0 
 -1.371199e-02  -2.276475e-01  0 
 -2.731237e-03  -1.977971e-01  0 
 -1.620630e-03  -2.124419e-01  0 
 -2.896751e-03  -1.839077e-01  0 
 2.049673e-02  -1.982499e-01  0 
 3.828639e-02  -2.051335e-01  0 
 1.111437e-02  -2.117618e-01  0 
 1.112806e-02  -1.819608e-01  0 
 3.642468e-02  -1.968988e-01  0 
 3.088818e-02  -2.117928e-01  0 
 6.956696e-03  -1.909196e-01  0 
 1.052809e-02  -2.000882e-01  0 
 1.883744e-02  -1.882678e-01  0 
 2.078005e-02  -2.074730e-01  0 
 2.873548e-02  -1.922111e-01  0 
 2.857658e-02  -2.016879e-01  0 
 3.983487e-02  -2.137051e-01  0 
VECTORS displacement_ITER4 FLOAT
 -3.170217e-03  -1.293771e-01  0 
 -3.190033e-03  -1.660252e-01  0 
 3.321520e-02  -1.659776e-01  0 
 -2.186236e-03  -1.293076e-01  0 
 -3.177115e-03  -1.385880e-01  0 
 -3.173130e-03  -1.477482e-01  0 
 -3.180614e-03  -1.568849e-01  0 
 -3.162915e-02  -2.074945e-01  0 
 -1.370821e-02  -1.878176e-01  0 
 3.317974e-02  -1.478009e-01  0 
 3.320361e-02  -1.568845e-01  0 
 5.930774e-03  -1.659989e-01  0 
 1.503915e-02  -1.659744e-01  0 
 2.412867e-02  -1.659682e-01  0 
 -2.527215e-03  -1.302133e-01  0 
 -1.911802e-02  -1.777927e-01  0 
 -4.239004e-03  -1.483356e-01  0 
 -2.953371e-03  -1.606310e-01  0 
 -3.009866e-03  -1.372708e-01  0 
 1.313371e-02  -1.487732e-01  0 
 2.641172e-02  -1.539234e-01  0 
 6.122648e-03  -1.588779e-01  0 
 6.142156e-03  -1.365910e-01  0 
 2.501802e-02  -1.477715e-01  0 
 2.089108e-02  -1.588959e-01  0 
 3.021599e-03  -1.432928e-01  0 
 5.687974e-03  -1.501480e-01  0 
 1.189631e-02  -1.413116e-01  0 
 1.334446e-02  -1.556675e-01  0 
 1.928003e-02  -1.442645e-01  0 
 1.916410e-02  -1.513444e-01  0 
 2.757068e-02  -1.603284e-01  0 
VECTORS displacement_ITER5 FLOAT
 -1.552302e-03  -9.303284e-02  0 
 -1.559105e-03  -1.243628e-01  0 
 2.947806e-02  -1.243283e-01  0 
 -5.308489e-03  -9.294210e-02  0 
 -1.556682e-03  -1.009353e-01  0 
 -1.545800e-03  -1.087667e-01  0 
 -1.550819e-03  -1.165628e-01  0 
 -2.766279e-02  -1.595914e-01  0 
 -1.055487e-02  -1.442469e-01  0 
 2.944207e-02  -1.088203e-01  0 
 2.946673e-02  -1.165698e-01  0 
 6.221577e-03  -1.243366e-01  0 
 1.398821e-02  -1.243114e-01  0 
 2.173502e-02  -1.243083e-01  0 
 -4.099157e-03  -8.931500e-02  0 
 -1.672448e-02  -1.331514e-01  0 
 -3.275880e-03  -1.058422e-01  0 
 -8.772910e-04  -1.192188e-01  0 
 -2.931127e-03  -9.960411e-02  0 
 1.236674e-02  -1.096405e-01  0 
 2.367521e-02  -1.140391e-01  0 
 6.386879e-03  -1.182617e-01  0 
 6.412559e-03  -9.923767e-02  0 
 2.248561e-02  -1.087928e-01  0 
 1.897449e-02  -1.182762e-01  0 
 3.745016e-03  -1.049637e-01  0 
 6.017844e-03  -1.108143e-01  0 
 1.131457e-02  -1.032740e-01  0 
 1.254468e-02  -1.155217e-01  0 
 1.760011e-02  -1.057995e-01  0 
 1.750251e-02  -1.118353e-01  0 
 2.466515e-02  -1.195036e-01  0 
VECTORS displacement_ITER6 FLOAT
 4.531855e-03  -6.933521e-02  0 
 4.527994e-03  -9.007776e-02  0 
 2.495390e-02  -9.005695e-02  0 
 -1.702969e-03  -6.922825e-02  0 
 4.527474e-03  -7.460531e-02  0 
 4.541316e-03  -7.978994e-02  0 
 4.536434e-03  -8.493128e-02  0 
 -1.786457e-02  -1.223401e-01  0 
 -2.287172e-03  -1.093004e-01  0 
 2.491552e-02  -7.983533e-02  0 
 2.494124e-02  -8.494132e-02  0 
 9.655419e-03  -9.005043e-02  0 
 1.476726e-02  -9.002444e-02  0 
 1.986071e-02  -9.002605e-02  0 
 3.147669e-04  -6.323076e-02  0 
 -8.047953e-03  -9.869904e-02  0 
 4.081684e-03  -7.489219e-02  0 
 6.362019e-03  -8.699006e-02  0 
 2.923447e-03  -7.353720e-02  0 
 1.370592e-02  -8.036056e-02  0 
 2.112799e-02  -8.326557e-02  0 
 9.768087e-03  -8.604552e-02  0 
 9.801097e-03  -7.349317e-02  0 
 2.034205e-02  -7.981115e-02  0 
 1.804377e-02  -8.605111e-02  0 
 8.036147e-03  -7.727840e-02  0 
 9.529153e-03  -8.113656e-02  0 
 1.301838e-02  -7.616449e-02  0 
 1.382023e-02  -8.423589e-02  0 
 1.713760e-02  -7.783656e-02  0 
 1.707572e-02  -8.180807e-02  0 
 2.178307e-02  -8.686763e-02  0 
VECTORS displacement_ITER7 FLOAT
 6.652148e-03  -5.159372e-02  0 
 6.631179e-03  -6.627104e-02  0 
 2.103143e-02  -6.626015e-02  0 
 3.120134e-03  -5.149040e-02  0 
 6.643365e-03  -5.534060e-02  0 
 6.651254e-03  -5.900743e-02  0 
 6.641972e-03  -6.263555e-02  0 
 -1.874073e-02  -1.055966e-01  0 
 -7.034754e-04  -8.852473e-02  0 
 2.098612e-02  -5.903715e-02  0 
 2.101411e-02  -6.264240e-02  0 
 1.024735e-02  -6.624123e-02  0 
 1.384741e-02  -6.621526e-02  0 
 1.743446e-02  -6.622279e-02  0 
 4.250531e-03  -4.807708e-02  0 
 -6.458877e-03  -7.868977e-02  0 
 7.025759e-03  -5.517197e-02  0 
 8.875120e-03  -6.533223e-02  0 
 6.085090e-03  -5.437459e-02  0 
 1.310420e-02  -5.940040e-02  0 
 1.832062e-02  -6.145202e-02  0 
 1.033026e-02  -6.341413e-02  0 
 1.036786e-02  -5.455746e-02  0 
 1.776293e-02  -5.901508e-02  0 
 1.615214e-02  -6.341430e-02  0 
 9.119595e-03  -5.723097e-02  0 
 1.016637e-02  -5.995059e-02  0 
 1.262422e-02  -5.644308e-02  0 
 1.318263e-02  -6.213341e-02  0 
 1.551196e-02  -5.762286e-02  0 
 1.547002e-02  -6.042049e-02  0 
 1.878684e-02  -6.399668e-02  0 
VECTORS displacement_ITER8 FLOAT
 -1.967479e-03  -4.170868e-02  0 
 -2.001038e-03  -5.061380e-02  0 
 6.674711e-03  -5.061524e-02  0 
 -2.044274e-03  -4.161137e-02  0 
 -1.979636e-03  -4.400331e-02  0 
 -1.977083e-03  -4.622616e-02  0 
 -1.989215e-03  -4.841579e-02  0 
 -2.411110e-02  -9.109427e-02  0 
 -8.035561e-03  -7.320268e-02  0 
 6.623330e-03  -4.624443e-02  0 
 6.652873e-03  -4.842219e-02  0 
 1.782587e-04  -5.058465e-02  0 
 2.342192e-03  -5.056121e-02  0 
 4.498899e-03  -5.057413e-02  0 
 -2.048464e-03  -4.150247e-02  0 
 -1.227308e-02  -6.509134e-02  0 
 5.972844e-04  -4.375557e-02  0 
 1.087498e-03  -5.143779e-02  0 
 -1.018059e-03  -4.322388e-02  0 
 1.899791e-03  -4.645247e-02  0 
 5.024110e-03  -4.769369e-02  0 
 2.318512e-04  -4.887722e-02  0 
 2.707071e-04  -4.353259e-02  0 
 4.683429e-03  -4.622357e-02  0 
 3.724444e-03  -4.887401e-02  0 
 -4.854802e-04  -4.514909e-02  0 
 1.382479e-04  -4.678729e-02  0 
 1.615932e-03  -4.467166e-02  0 
 1.944733e-03  -4.810030e-02  0 
 3.336434e-03  -4.538389e-02  0 
 3.313580e-03  -4.706700e-02  0 
 5.310530e-03  -4.923299e-02  0 
VECTORS displacement_ITER9 FLOAT
 1.938372e-03  -3.419224e-02  0 
 1.909640e-03  -3.918904e-02  0 
 6.674718e-03  -3.918856e-02  0 
 1.287429e-03  -3.409247e-02  0 
 1.927878e-03  -3.551147e-02  0 
 1.932184e-03  -3.675803e-02  0 
 1.921100e-03  -3.796956e-02  0 
 -1.403678e-02  -7.560865e-02  0 
 -2.098858e-03  -6.004655e-02  0 
 6.625078e-03  -3.676886e-02  0 
 6.652521e-03  -3.797100e-02  0 
 3.111208e-03  -3.916042e-02  0 
 4.297562e-03  -3.913645e-02  0 
 5.476256e-03  -3.914732e-02  0 
 1.469092e-03  -3.343724e-02  0 
 -4.671265e-03  -5.331684e-02  0 
 6.154658e-03  -3.451593e-02  0 
 5.749342e-03  -4.086737e-02  0 
 3.153412e-03  -3.512551e-02  0 
 4.061961e-03  -3.687306e-02  0 
 5.756167e-03  -3.756050e-02  0 
 3.145229e-03  -3.821604e-02  0 
 3.184614e-03  -3.525576e-02  0 
 5.566301e-03  -3.675189e-02  0 
 5.051102e-03  -3.820744e-02  0 
 2.761510e-03  -3.615710e-02  0 
 3.099052e-03  -3.706156e-02  0 
 3.911774e-03  -3.589142e-02  0 
 4.083452e-03  -3.778174e-02  0 
 4.837636e-03  -3.628861e-02  0 
 4.826916e-03  -3.721152e-02  0 
 5.917371e-03  -3.841166e-02  0 
VECTORS displacement_ITER10 FLOAT
 3.376388e-03  -2.263008e-02  0 
 3.355817e-03  -3.003262e-02  0 
 1.050555e-02  -3.002031e-02  0 
 2.678045e-04  -2.252717e-02  0 
 3.368887e-03  -2.455443e-02  0 
 3.376536e-03  -2.640338e-02  0 
 3.367000e-03  -2.821414e-02  0 
 -1.144120e-02  -6.308930e-02  0 
 -8.220863e-04  -4.970694e-02  0 
 1.045951e-02  -2.641047e-02  0 
 1.048420e-02  -2.820804e-02  0 
 5.156560e-03  -3.000299e-02  0 
 6.941534e-03  -2.997611e-02  0 
 8.715131e-03  -2.998127e-02  0 
 1.254736e-03  -1.952498e-02  0 
 -3.447797e-03  -4.263559e-02  0 
 6.366264e-03  -2.408478e-02  0 
 6.630944e-03  -3.103020e-02  0 
 3.521631e-03  -2.440438e-02  0 
 6.582445e-03  -2.658638e-02  0 
 9.147284e-03  -2.760720e-02  0 
 5.203253e-03  -2.859228e-02  0 
 5.243031e-03  -2.416816e-02  0 
 8.869430e-03  -2.639685e-02  0 
 8.080094e-03  -2.858156e-02  0 
 4.613843e-03  -2.551077e-02  0 
 5.127975e-03  -2.686579e-02  0 
 6.350907e-03  -2.511419e-02  0 
 6.617187e-03  -2.794703e-02  0 
 7.764589e-03  -2.570537e-02  0 
 7.744461e-03  -2.709250e-02  0 
 9.381772e-03  -2.887609e-02  0 
VECTORS displacement_ITER11 FLOAT
 -2.821861e-03  -1.679975e-02  0 
 -2.842337e-03  -2.534042e-02  0 
 5.468936e-03  -2.533212e-02  0 
 -4.596178e-03  -1.670352e-02  0 
 -2.829138e-03  -1.900231e-02  0 
 -2.822688e-03  -2.113572e-02  0 
 -2.832024e-03  -2.323418e-02  0 
 -1.379305e-02  -5.226650e-02  0 
 -6.185634e-03  -4.263717e-02  0 
 5.419175e-03  -2.114691e-02  0 
 5.444971e-03  -2.323138e-02  0 
 -7.533027e-04  -2.531343e-02  0 
 1.321138e-03  -2.528917e-02  0 
 3.385643e-03  -2.529489e-02  0 
 -4.046273e-03  -1.497897e-02  0 
 -8.266023e-03  -3.565303e-02  0 
 9.073477e-06  -1.888893e-02  0 
 2.175636e-04  -2.568298e-02  0 
 -2.571692e-03  -1.870660e-02  0 
 8.995476e-04  -2.135244e-02  0 
 3.892197e-03  -2.253648e-02  0 
 -7.018153e-04  -2.367750e-02  0 
 -6.644327e-04  -1.855165e-02  0 
 3.569891e-03  -2.113035e-02  0 
 2.646971e-03  -2.366963e-02  0 
 -1.391188e-03  -2.010360e-02  0 
 -7.920149e-04  -2.167476e-02  0 
 6.276229e-04  -1.964397e-02  0 
 9.417543e-04  -2.293193e-02  0 
 2.279522e-03  -2.032709e-02  0 
 2.255753e-03  -2.194031e-02  0 
 4.163554e-03  -2.400845e-02  0 
VECTORS displacement_ITER12 FLOAT
 -3.788012e-03  -1.332717e-02  0 
 -3.813962e-03  -2.261284e-02  0 
 5.279664e-03  -2.261405e-02  0 
 -3.145818e-03  -1.324016e-02  0 
 -3.796875e-03  -1.570677e-02  0 
 -3.793872e-03  -1.802585e-02  0 
 -3.804144e-03  -2.031527e-02  0 
 -1.163702e-02  -4.514218e-02  0 
 -6.480510e-03  -3.815136e-02  0 
 5.224539e-03  -1.804064e-02  0 
 5.252475e-03  -2.031813e-02  0 
 -1.533065e-03  -2.258875e-02  0 
 7.346649e-04  -2.256831e-02  0 
 2.995860e-03  -2.257725e-02  0 
 -3.387269e-03  -1.382673e-02  0 
 -7.953539e-03  -3.145802e-02  0 
 -7.505260e-04  -1.630246e-02  0 
 -8.819061e-04  -2.255148e-02  0 
 -2.989948e-03  -1.525189e-02  0 
 2.698681e-04  -1.826442e-02  0 
 3.552269e-03  -1.955871e-02  0 
 -1.478968e-03  -2.080227e-02  0 
 -1.443740e-03  -1.521164e-02  0 
 3.198887e-03  -1.802005e-02  0 
 2.186171e-03  -2.079853e-02  0 
 -2.234494e-03  -1.690090e-02  0 
 -1.579263e-03  -1.861512e-02  0 
 -2.932949e-05  -1.639887e-02  0 
 3.175369e-04  -1.999036e-02  0 
 1.782488e-03  -1.714166e-02  0 
 1.756715e-03  -1.890707e-02  0 
 3.849443e-03  -2.116803e-02  0 
VECTORS displacement_ITER13 FLOAT
 -7.240325e-03  -1.101303e-02  0 
 -7.271097e-03  -1.943513e-02  0 
 9.779487e-04  -1.944548e-02  0 
 -5.275862e-03  -1.092941e-02  0 
 -7.250980e-03  -1.317298e-02  0 
 -7.250365e-03  -1.527571e-02  0 
 -7.261455e-03  -1.735115e-02  0 
 -1.272931e-02  -3.921248e-02  0 
 -9.289968e-03  -3.391647e-02  0 
 9.199816e-04  -1.529239e-02  0 
 9.492385e-04  -1.735888e-02  0 
 -5.203401e-03  -1.941263e-02  0 
 -3.148253e-03  -1.939457e-02  0 
 -1.097466e-03  -1.940657e-02  0 
 -5.950731e-03  -1.277921e-02  0 
 -1.024752e-02  -2.758823e-02  0 
 -3.775658e-03  -1.393040e-02  0 
 -4.276717e-03  -1.944526e-02  0 
 -5.997990e-03  -1.271848e-02  0 
 -3.569884e-03  -1.548971e-02  0 
 -5.948357e-04  -1.666625e-02  0 
 -5.154275e-03  -1.779191e-02  0 
 -5.119208e-03  -1.272305e-02  0 
 -9.170573e-04  -1.526934e-02  0 
 -1.833195e-03  -1.779018e-02  0 
 -5.836612e-03  -1.425459e-02  0 
 -5.244484e-03  -1.580811e-02  0 
 -3.840264e-03  -1.379833e-02  0 
 -3.526753e-03  -1.705545e-02  0 
 -2.200993e-03  -1.447152e-02  0 
 -2.223404e-03  -1.607307e-02  0 
 -3.236072e-04  -1.812793e-02  0 
VECTORS displacement_ITER14 FLOAT
 -5.052325e-03  -9.381645e-03  0 
 -5.084216e-03  -1.572550e-02  0 
 1.074784e-03  -1.573865e-02  0 
 -4.669423e-03  -9.292553e-03  0 
 -5.063947e-03  -1.102693e-02  0 
 -5.063076e-03  -1.261005e-02  0 
 -5.074345e-03  -1.416327e-02  0 
 -9.576110e-03  -3.460486e-02  0 
 -6.729783e-03  -3.000787e-02  0 
 1.017819e-03  -1.262554e-02  0 
 1.047010e-03  -1.417158e-02  0 
 -3.538084e-03  -1.570235e-02  0 
 -2.005107e-03  -1.568362e-02  0 
 -4.769612e-04  -1.569639e-02  0 
 -4.826201e-03  -9.628290e-03  0 
 -7.518867e-03  -2.386956e-02  0 
 -1.431591e-03  -1.117497e-02  0 
 -1.963677e-03  -1.619510e-02  0 
 -4.057861e-03  -1.085993e-02  0 
 -2.316242e-03  -1.276361e-02  0 
 -1.072544e-04  -1.364721e-02  0 
 -3.499122e-03  -1.448867e-02  0 
 -3.461340e-03  -1.069142e-02  0 
 -3.499764e-04  -1.260259e-02  0 
 -1.026827e-03  -1.448517e-02  0 
 -4.001884e-03  -1.184221e-02  0 
 -3.563516e-03  -1.300404e-02  0 
 -2.514488e-03  -1.149872e-02  0 
 -2.285823e-03  -1.393500e-02  0 
 -1.302510e-03  -1.200464e-02  0 
 -1.317809e-03  -1.320026e-02  0 
 9.772082e-05  -1.474269e-02  0 
VECTORS displacement_ITER15 FLOAT
 -2.895339e-03  -9.823509e-03  0 
 -2.932151e-03  -1.350354e-02  0 
 5.608021e-04  -1.351651e-02  0 
 -3.501065e-03  -9.731601e-03  0 
 -2.908729e-03  -1.080477e-02  0 
 -2.909050e-03  -1.172148e-02  0 
 -2.921474e-03  -1.260751e-02  0 
 -8.105297e-03  -3.408006e-02  0 
 -4.663279e-03  -2.865968e-02  0 
 5.029891e-04  -1.173529e-02  0 
 5.330881e-04  -1.261446e-02  0 
 -2.052289e-03  -1.347896e-02  0 
 -1.186187e-03  -1.345921e-02  0 
 -3.247751e-04  -1.347266e-02  0 
 -3.333392e-03  -9.120299e-03  0 
 -5.485935e-03  -2.273736e-02  0 
 8.552438e-04  -1.040831e-02  0 
 3.221077e-04  -1.479282e-02  0 
 -1.987881e-03  -1.087752e-02  0 
 -1.356479e-03  -1.179717e-02  0 
 -1.238710e-04  -1.230546e-02  0 
 -2.026193e-03  -1.278497e-02  0 
 -1.985683e-03  -1.061498e-02  0 
 -2.657502e-04  -1.171134e-02  0 
 -6.374037e-04  -1.277861e-02  0 
 -2.299273e-03  -1.127742e-02  0 
 -2.057484e-03  -1.193795e-02  0 
 -1.462933e-03  -1.107810e-02  0 
 -1.342034e-03  -1.246455e-02  0 
 -7.959567e-04  -1.136895e-02  0 
 -8.019412e-04  -1.204592e-02  0 
 -3.153592e-06  -1.293254e-02  0 
VECTORS displacement_ITER16 FLOAT
 -1.721820e-03  -9.816589e-03  0 
 -1.764392e-03  -1.275833e-02  0 
 1.000063e-03  -1.277217e-02  0 
 -1.429241e-03  -9.727770e-03  0 
 -1.736940e-03  -1.061015e-02  0 
 -1.739472e-03  -1.134174e-02  0 
 -1.753148e-03  -1.204471e-02  0 
 -7.988255e-03  -3.487788e-02  0 
 -3.853855e-03  -2.863085e-02  0 
 9.414643e-04  -1.135568e-02  0 
 9.720829e-04  -1.205152e-02  0 
 -1.067112e-03  -1.273321e-02  0 
 -3.836355e-04  -1.271353e-02  0 
 2.957073e-04  -1.272784e-02  0 
 -1.555288e-03  -9.974164e-03  0 
 -4.789244e-03  -2.277893e-02  0 
 1.954385e-03  -1.042054e-02  0 
 1.418948e-03  -1.440250e-02  0 
 -5.809167e-04  -1.066251e-02  0 
 -5.159235e-04  -1.139559e-02  0 
 4.506154e-04  -1.180148e-02  0 
 -1.044585e-03  -1.218137e-02  0 
 -1.003587e-03  -1.045923e-02  0 
 3.358025e-04  -1.133026e-02  0 
 4.765022e-05  -1.217484e-02  0 
 -1.254287e-03  -1.098641e-02  0 
 -1.066762e-03  -1.150889e-02  0 
 -5.973885e-04  -1.082646e-02  0 
 -5.055983e-04  -1.192494e-02  0 
 -7.946118e-05  -1.105759e-02  0 
 -8.266346e-05  -1.159293e-02  0 
 5.484136e-04  -1.230051e-02  0 
VECTORS displacement_ITER17 FLOAT
 -1.300928e-03  -8.045720e-03  0 
 -1.343819e-03  -1.188708e-02  0 
 2.316987e-03  -1.189922e-02  0 
 -8.453985e-04  -7.958257e-03  0 
 -1.316248e-03  -9.063503e-03  0 
 -1.318981e-03  -1.002004e-02  0 
 -1.332604e-03  -1.094825e-02  0 
 -7.728626e-03  -3.365775e-02  0 
 -3.639151e-03  -2.764882e-02  0 
 2.260273e-03  -1.003585e-02  0 
 2.289979e-03  -1.095478e-02  0 
 -4.214038e-04  -1.186186e-02  0 
 4.871650e-04  -1.184188e-02  0 
 1.390453e-03  -1.185519e-02  0 
 -1.024409e-03  -8.359834e-03  0 
 -4.648799e-03  -2.168969e-02  0 
 2.048680e-03  -9.240415e-03  0 
 1.649032e-03  -1.333079e-02  0 
 -2.430445e-04  -9.094126e-03  0 
 3.075033e-04  -1.009981e-02  0 
 1.602160e-03  -1.063290e-02  0 
 -3.943044e-04  -1.113452e-02  0 
 -3.537279e-04  -8.862804e-03  0 
 1.453451e-03  -1.000998e-02  0 
 1.062974e-03  -1.112879e-02  0 
 -6.812040e-04  -9.555032e-03  0 
 -4.275332e-04  -1.024675e-02  0 
 1.952063e-04  -9.346278e-03  0 
 3.231938e-04  -1.079926e-02  0 
 8.963217e-04  -9.650474e-03  0 
 8.901168e-04  -1.036082e-02  0 
 1.727739e-03  -1.128931e-02  0 
VECTORS displacement_ITER18 FLOAT
 -1.478436e-03  -8.052120e-03  0 
 -1.521942e-03  -1.100013e-02  0 
 1.243073e-03  -1.100636e-02  0 
 -9.424204e-04  -7.965570e-03  0 
 -1.493921e-03  -8.845654e-03  0 
 -1.496956e-03  -9.578756e-03  0 
 -1.510633e-03  -1.028403e-02  0 
 -7.319576e-03  -3.260051e-02  0 
 -3.666398e-03  -2.675390e-02  0 
 1.186559e-03  -9.597799e-03  0 
 1.216189e-03  -1.028900e-02  0 
 -8.223508e-04  -1.097449e-02  0 
 -1.366457e-04  -1.095373e-02  0 
 5.423375e-04  -1.096490e-02  0 
 -1.147669e-03  -8.443847e-03  0 
 -4.467274e-03  -2.103628e-02  0 
 2.052670e-03  -8.991990e-03  0 
 1.535985e-03  -1.271375e-02  0 
 -3.398485e-04  -8.955454e-03  0 
 -2.693343e-04  -9.633452e-03  0 
 6.982655e-04  -1.004071e-02  0 
 -7.995062e-04  -1.042113e-02  0 
 -7.593966e-04  -8.693729e-03  0 
 5.837626e-04  -9.570184e-03  0 
 2.955523e-04  -1.041380e-02  0 
 -1.010461e-03  -9.222338e-03  0 
 -8.219793e-04  -9.746596e-03  0 
 -3.514567e-04  -9.062350e-03  0 
 -2.586983e-04  -1.016400e-02  0 
 1.680845e-04  -9.295366e-03  0 
 1.652373e-04  -9.831887e-03  0 
 7.947392e-04  -1.053795e-02  0 
VECTORS displacement_ITER19 FLOAT
 -8.269073e-04  -7.940927e-03  0 
 -8.702122e-04  -1.081872e-02  0 
 1.820240e-03  -1.082059e-02  0 
 -9.847921e-04  -7.853941e-03  0 
 -8.425549e-04  -8.717384e-03  0 
 -8.455404e-04  -9.432949e-03  0 
 -8.589959e-04  -1.012038e-02  0 
 -5.463473e-03  -3.101157e-02  0 
 -2.759012e-03  -2.603160e-02  0 
 1.763936e-03  -9.455012e-03  0 
 1.793662e-03  -1.012482e-02  0 
 -1.882462e-04  -1.079307e-02  0 
 4.798307e-04  -1.077183e-02  0 
 1.140017e-03  -1.078132e-02  0 
 -9.619833e-04  -7.668397e-03  0 
 -3.304263e-03  -2.046358e-02  0 
 2.668744e-03  -8.964701e-03  0 
 2.148862e-03  -1.252483e-02  0 
 1.210384e-04  -8.978312e-03  0 
 3.509793e-04  -9.485783e-03  0 
 1.291645e-03  -9.883117e-03  0 
 -1.656734e-04  -1.025366e-02  0 
 -1.257659e-04  -8.569136e-03  0 
 1.180048e-03  -9.425900e-03  0 
 9.005286e-04  -1.024571e-02  0 
 -3.708493e-04  -9.085044e-03  0 
 -1.873893e-04  -9.596138e-03  0 
 2.711211e-04  -8.929002e-03  0 
 3.612777e-04  -1.000274e-02  0 
 7.761042e-04  -9.157078e-03  0 
 7.737626e-04  -9.679469e-03  0 
 1.385293e-03  -1.036610e-02  0 
VECTORS displacement_ITER20 FLOAT
 3.215660e-04  -7.648136e-03  0 
 2.751730e-04  -1.044069e-02  0 
 2.877689e-03  -1.043754e-02  0 
 7.533730e-05  -7.561211e-03  0 
 3.049815e-04  -8.402822e-03  0 
 3.010458e-04  -9.096803e-03  0 
 2.869339e-04  -9.763079e-03  0 
 -5.375612e-03  -3.210789e-02  0 
 -2.065145e-03  -2.630976e-02  0 
 2.821706e-03  -9.119149e-03  0 
 2.851597e-03  -9.765568e-03  0 
 9.362243e-04  -1.041385e-02  0 
 1.583008e-03  -1.039136e-02  0 
 2.220921e-03  -1.039958e-02  0 
 1.275363e-04  -7.290132e-03  0 
 -2.705972e-03  -2.079336e-02  0 
 3.575659e-03  -9.129429e-03  0 
 3.127791e-03  -1.238448e-02  0 
 1.239944e-03  -8.800992e-03  0 
 1.459111e-03  -9.146391e-03  0 
 2.367116e-03  -9.531314e-03  0 
 9.588136e-04  -9.890902e-03  0 
 9.992763e-04  -8.258549e-03  0 
 2.258949e-03  -9.089426e-03  0 
 1.989760e-03  -9.881774e-03  0 
 7.614704e-04  -8.758747e-03  0 
 9.384275e-04  -9.253648e-03  0 
 1.382261e-03  -8.607180e-03  0 
 1.468850e-03  -9.646984e-03  0 
 1.869270e-03  -8.828578e-03  0 
 1.867309e-03  -9.333975e-03  0 
 2.457709e-03  -9.998243e-03  0 
VECTORS displacement_ITER21 FLOAT
 6.183952e-04  -7.478042e-03  0 
 5.702786e-04  -1.013081e-02  0 
 3.030302e-03  -1.012625e-02  0 
 2.610405e-04  -7.390938e-03  0 
 6.010316e-04  -8.197820e-03  0 
 5.965142e-04  -8.856640e-03  0 
 5.821532e-04  -9.487912e-03  0 
 -5.327842e-03  -3.156213e-02  0 
 -1.912605e-03  -2.601229e-02  0 
 2.974406e-03  -8.881050e-03  0 
 3.004786e-03  -9.491010e-03  0 
 1.196508e-03  -1.010363e-02  0 
 1.808267e-03  -1.008075e-02  0 
 2.410519e-03  -1.008862e-02  0 
 3.500579e-04  -7.012629e-03  0 
 -2.685762e-03  -2.038108e-02  0 
 3.559306e-03  -8.899765e-03  0 
 3.289795e-03  -1.210976e-02  0 
 1.412234e-03  -8.622329e-03  0 
 1.691761e-03  -8.902227e-03  0 
 2.547418e-03  -9.268010e-03  0 
 1.218539e-03  -9.607929e-03  0 
 1.259233e-03  -8.060848e-03  0 
 2.444526e-03  -8.850319e-03  0 
 2.192138e-03  -9.598671e-03  0 
 1.033336e-03  -8.535413e-03  0 
 1.199894e-03  -9.004052e-03  0 
 1.619694e-03  -8.391529e-03  0 
 1.700727e-03  -9.376288e-03  0 
 2.077623e-03  -8.602254e-03  0 
 2.076367e-03  -9.080239e-03  0 
 2.633472e-03  -9.709828e-03  0 
VECTORS displacement_ITER22 FLOAT
 -4.735631e-04  -6.704834e-03  0 
 -5.250418e-04  -1.014741e-02  0 
 2.733401e-03  -1.014592e-02  0 
 -8.454442e-05  -6.621293e-03  0 
 -4.923293e-04  -7.619037e-03  0 
 -4.985177e-04  -8.475054e-03  0 
 -5.132831e-04  -9.305374e-03  0 
 -5.669184e-03  -3.022232e-02  0 
 -2.952895e-03  -2.548604e-02  0 
 2.677065e-03  -8.502065e-03  0 
 2.707991e-03  -9.311286e-03  0 
 3.004308e-04  -1.012101e-02  0 
 1.111747e-03  -1.009919e-02  0 
 1.914042e-03  -1.010805e-02  0 
 -2.389776e-04  -6.955666e-03  0 
 -3.601617e-03  -1.985768e-02  0 
 2.232166e-03  -8.717788e-03  0 
 2.026589e-03  -1.190530e-02  0 
 3.564669e-04  -7.972753e-03  0 
 9.523763e-04  -8.543503e-03  0 
 2.101032e-03  -9.022995e-03  0 
 3.261157e-04  -9.469669e-03  0 
 3.660272e-04  -7.437077e-03  0 
 1.967313e-03  -8.469869e-03  0 
 1.624054e-03  -9.462547e-03  0 
 7.267035e-05  -8.056746e-03  0 
 2.975268e-04  -8.674893e-03  0 
 8.527378e-04  -7.869505e-03  0 
 9.663773e-04  -9.168595e-03  0 
 1.473637e-03  -8.144387e-03  0 
 1.469950e-03  -8.778186e-03  0 
 2.212663e-03  -9.605613e-03  0 
VECTORS displacement_ITER23 FLOAT
 8.847523e-05  -6.417343e-03  0 
 3.288457e-05  -9.400362e-03  0 
 2.838401e-03  -9.399707e-03  0 
 1.156649e-03  -6.336527e-03  0 
 6.818517e-05  -7.214035e-03  0 
 6.022699e-05  -7.954783e-03  0 
 4.482695e-05  -8.671580e-03  0 
 -5.027041e-03  -2.981972e-02  0 
 -2.403124e-03  -2.488851e-02  0 
 2.781305e-03  -7.983264e-03  0 
 2.812654e-03  -8.678350e-03  0 
 7.450333e-04  -9.373953e-03  0 
 1.443108e-03  -9.352388e-03  0 
 2.132203e-03  -9.361555e-03  0 
 7.804577e-04  -7.318839e-03  0 
 -2.921651e-03  -1.944255e-02  0 
 2.924555e-03  -8.529951e-03  0 
 2.592079e-03  -1.135825e-02  0 
 1.131893e-03  -7.601945e-03  0 
 1.307091e-03  -8.010213e-03  0 
 2.290572e-03  -8.426491e-03  0 
 7.684071e-04  -8.810860e-03  0 
 8.079721e-04  -7.055790e-03  0 
 2.173899e-03  -7.949891e-03  0 
 1.882458e-03  -8.803896e-03  0 
 5.538992e-04  -7.591487e-03  0 
 7.452736e-04  -8.124256e-03  0 
 1.222683e-03  -7.428884e-03  0 
 1.318686e-03  -8.549720e-03  0 
 1.751595e-03  -7.667201e-03  0 
 1.749652e-03  -8.213288e-03  0 
 2.387852e-03  -8.929376e-03  0 
VECTORS displacement_ITER24 FLOAT
 3.010176e-04  -6.728366e-03  0 
 2.428712e-04  -8.912729e-03  0 
 2.247408e-03  -8.908883e-03  0 
 -8.753854e-05  -6.646966e-03  0 
 2.794562e-04  -7.325969e-03  0 
 2.707077e-04  -7.866831e-03  0 
 2.550582e-04  -8.383587e-03  0 
 -4.345533e-03  -2.938111e-02  0 
 -2.094126e-03  -2.447477e-02  0 
 2.188792e-03  -7.896723e-03  0 
 2.220894e-03  -8.388725e-03  0 
 7.554210e-04  -8.885686e-03  0 
 1.253679e-03  -8.863235e-03  0 
 1.742013e-03  -8.871140e-03  0 
 1.567531e-05  -6.234812e-03  0 
 -2.430489e-03  -1.923628e-02  0 
 3.138514e-03  -8.522510e-03  0 
 2.842528e-03  -1.115781e-02  0 
 1.018581e-03  -7.979001e-03  0 
 1.160149e-03  -7.898801e-03  0 
 1.850121e-03  -8.202121e-03  0 
 7.750723e-04  -8.478462e-03  0 
 8.152669e-04  -7.210756e-03  0 
 1.763994e-03  -7.861901e-03  0 
 1.564274e-03  -8.469817e-03  0 
 6.292284e-04  -7.600274e-03  0 
 7.618113e-04  -7.982954e-03  0 
 1.103092e-03  -7.480832e-03  0 
 1.166971e-03  -8.287093e-03  0 
 1.468816e-03  -7.655260e-03  0 
 1.469727e-03  -8.045612e-03  0 
 1.921606e-03  -8.563188e-03  0 
VECTORS displacement_ITER25 FLOAT
 2.083351e-04  -6.378150e-03  0 
 1.453695e-04  -8.385561e-03  0 
 1.981605e-03  -8.383308e-03  0 
 5.562739e-05  -6.299572e-03  0 
 1.849954e-04  -6.928696e-03  0 
 1.742320e-04  -7.424907e-03  0 
 1.578365e-04  -7.898873e-03  0 
 -4.576173e-03  -2.933784e-02  0 
 -2.329070e-03  -2.417811e-02  0 
 1.922307e-03  -7.453641e-03  0 
 1.954542e-03  -7.903698e-03  0 
 6.154220e-04  -8.358356e-03  0 
 1.071210e-03  -8.336030e-03  0 
 1.517393e-03  -8.344427e-03  0 
 8.303409e-05  -6.111451e-03  0 
 -2.584855e-03  -1.908576e-02  0 
 3.031431e-03  -8.447611e-03  0 
 2.685503e-03  -1.079441e-02  0 
 1.001747e-03  -7.666035e-03  0 
 9.864086e-04  -7.451429e-03  0 
 1.614945e-03  -7.730700e-03  0 
 6.342290e-04  -7.984137e-03  0 
 6.743369e-04  -6.821332e-03  0 
 1.535280e-03  -7.418851e-03  0 
 1.354539e-03  -7.975551e-03  0 
 5.033073e-04  -7.178740e-03  0 
 6.230831e-04  -7.529126e-03  0 
 9.350325e-04  -7.068250e-03  0 
 9.923342e-04  -7.807689e-03  0 
 1.266666e-03  -7.228478e-03  0 
 1.268028e-03  -7.586226e-03  0 
 1.681057e-03  -8.062407e-03  0 
VECTORS displacement_ITER26 FLOAT
 1.653650e-04  -6.241240e-03  0 
 9.827265e-05  -8.243546e-03  0 
 1.938800e-03  -8.244280e-03  0 
 5.447711e-05  -6.165074e-03  0 
 1.403854e-04  -6.788056e-03  0 
 1.278102e-04  -7.282610e-03  0 
 1.108388e-04  -7.756570e-03  0 
 -4.311120e-03  -2.884772e-02  0 
 -2.366183e-03  -2.392194e-02  0 
 1.878907e-03  -7.310143e-03  0 
 1.911287e-03  -7.762086e-03  0 
 5.686724e-04  -8.216614e-03  0 
 1.024964e-03  -8.194875e-03  0 
 1.472380e-03  -8.204244e-03  0 
 6.972011e-05  -6.015757e-03  0 
 -2.523395e-03  -1.891538e-02  0 
 2.941687e-03  -8.511807e-03  0 
 2.579105e-03  -1.068532e-02  0 
 9.577437e-04  -7.599087e-03  0 
 9.396617e-04  -7.308686e-03  0 
 1.570118e-03  -7.588414e-03  0 
 5.873322e-04  -7.841932e-03  0 
 6.273169e-04  -6.679241e-03  0 
 1.490227e-03  -7.275501e-03  0 
 1.308778e-03  -7.833988e-03  0 
 4.565594e-04  -7.036034e-03  0 