# vtk DataFile Version 3.1
this is an vtk file created by FEMAC
ASCII
DATASET UNSTRUCTURED_GRID
POINTS 34 FLOAT
3.000000 1.000000 0.000000
4.000000 1.000000 0.000000
3.000000 1.250000 0.000000
3.000000 1.500000 0.000000
3.000000 1.750000 0.000000
3.500000 1.000000 0.000000
3.750000 1.000000 0.000000
4.000000 1.250000 0.000000
4.000000 1.500000 0.000000
4.250000 1.000000 0.000000
4.500000 1.000000 0.000000
2.661856 1.507893 0.000000
2.832250 1.761003 0.000000
2.832172 1.245757 0.000000
3.638134 0.825570 0.000000
3.835146 0.847123 0.000000
3.218472 1.189265 0.000000
3.400214 1.786986 0.000000
3.624223 1.213075 0.000000
3.182276 1.370472 0.000000
3.378554 1.338380 0.000000
3.237145 1.579099 0.000000
3.809442 1.354171 0.000000
3.817501 1.632951 0.000000
3.559152 1.528294 0.000000
3.836733 1.163449 0.000000
4.178278 1.324222 0.000000
4.225000 1.500000 0.000000
4.391405 1.203564 0.000000
4.408689 1.438835 0.000000
4.358519 1.602133 0.000000
4.628796 1.390176 0.000000
4.544074 1.619719 0.000000
4.163937 1.155557 0.000000
CELLS 42 168 
3 2 13  0
3 12  3  4
3 12 11  3
3 3 13  2
3 11 13  3
3 14  6  5
3 6 15  1
3 14 15  6
3 2 19  3
3 6 18  5
3 20 19 16
3 16 19  2
3 0 16  2
3 19 21  3
3 21  4  3
3 21 19 20
3 8 22  7
3 8 23 22
3 6 25 18
3 7 25  1
3 25  6  1
3 22 25  7
3 22 18 25
3 18 24 20
3 24 18 22
3 24 22 23
3 24 21 20
3 21 24 17
3 26  8  7
3 26 27  8
3 26 29 27
3 28  9 10
3 28 29 26
3 27 29 30
3 33  7  1
3 9 33  1
3 7 33 26
3 28 33  9
3 28 26 33
3 32 30 29
3 32 29 31
3 31 29 28
CELL_TYPES 42
5 5 5 5 5 5 5 5 5 5 5 5 5 5 5 5 5 5 5 5 5 5 5 5 5 5 5 5 5 5 5 5 5 5 5 5 5 5 5 5 5 5 
POINT_DATA 34
VECTORS displacement_ITER1 FLOAT
 -1.006167e-01  -1.303772e-01  0 
 -1.012452e-01  -2.006111e-01  0 
 -8.333090e-02  -1.303554e-01  0 
 -6.593306e-02  -1.302852e-01  0 
 -4.852094e-02  -1.303117e-01  0 
 -1.012027e-01  -1.652258e-01  0 
 -1.012132e-01  -1.829157e-01  0 
 -8.356866e-02  -2.005634e-01  0 
 -6.590516e-02  -2.005470e-01  0 
 -1.205564e-01  -2.484481e-01  0 
 -1.359800e-01  -3.070565e-01  0 
 -5.966956e-02  -9.988289e-02  0 
 -4.979589e-02  -1.144884e-01  0 
 -8.082833e-02  -1.158623e-01  0 
 -1.046752e-01  -1.718664e-01  0 
 -1.068731e-01  -1.872362e-01  0 
 -8.755370e-02  -1.455188e-01  0 
 -4.584936e-02  -1.582707e-01  0 
 -8.613128e-02  -1.740122e-01  0 
 -7.497987e-02  -1.429994e-01  0 
 -7.723864e-02  -1.566830e-01  0 
 -6.040476e-02  -1.468262e-01  0 
 -7.620190e-02  -1.870742e-01  0 
 -5.651952e-02  -1.876476e-01  0 
 -6.391503e-02  -1.693706e-01  0 
 -8.966413e-02  -1.890316e-01  0 
 -8.172118e-02  -2.289930e-01  0 
 -7.319906e-02  -2.345889e-01  0 
 -9.370261e-02  -2.623270e-01  0 
 -8.224188e-02  -2.596974e-01  0 
 -7.710026e-02  -2.499419e-01  0 
 -8.726940e-02  -2.766051e-01  0 
 -8.562341e-02  -2.704700e-01  0 
 -9.406838e-02  -2.248310e-01  0 
VECTORS displacement_ITER2 FLOAT
 -6.222970e-02  -1.210262e-01  0 
 -6.280319e-02  -1.741084e-01  0 
 -4.921764e-02  -1.210031e-01  0 
 -3.609100e-02  -1.209261e-01  0 
 -2.292572e-02  -1.209279e-01  0 
 -6.276500e-02  -1.473331e-01  0 
 -6.277605e-02  -1.607161e-01  0 
 -4.943170e-02  -1.740629e-01  0 
 -3.607173e-02  -1.740541e-01  0 
 -7.365817e-02  -2.074958e-01  0 
 -7.861079e-02  -2.367268e-01  0 
 -2.859293e-02  -9.369589e-02  0 
 -2.333603e-02  -1.050015e-01  0 
 -4.683944e-02  -1.092962e-01  0 
 -6.576659e-02  -1.518938e-01  0 
 -6.796570e-02  -1.644349e-01  0 
 -5.240203e-02  -1.324332e-01  0 
 -2.093256e-02  -1.420704e-01  0 
 -5.136497e-02  -1.539784e-01  0 
 -4.292517e-02  -1.305339e-01  0 
 -4.463153e-02  -1.408652e-01  0 
 -3.191945e-02  -1.334243e-01  0 
 -4.386063e-02  -1.638582e-01  0 
 -2.897288e-02  -1.642972e-01  0 
 -3.456753e-02  -1.504574e-01  0 
 -5.403943e-02  -1.653417e-01  0 
 -4.854896e-02  -1.947993e-01  0 
 -4.087783e-02  -2.000752e-01  0 
 -5.801542e-02  -2.183350e-01  0 
 -4.739492e-02  -2.194178e-01  0 
 -4.207072e-02  -2.131086e-01  0 
 -5.077067e-02  -2.352224e-01  0 
 -4.700733e-02  -2.311653e-01  0 
 -5.732719e-02  -1.923745e-01  0 
VECTORS displacement_ITER3 FLOAT
 -6.247129e-02  -8.375774e-02  0 
 -6.298204e-02  -1.216056e-01  0 
 -5.325407e-02  -8.372935e-02  0 
 -4.391448e-02  -8.363815e-02  0 
 -3.449804e-02  -8.360189e-02  0 
 -6.294945e-02  -1.024874e-01  0 
 -6.296162e-02  -1.120386e-01  0 
 -5.344074e-02  -1.215590e-01  0 
 -4.391049e-02  -1.215583e-01  0 
 -6.326901e-02  -1.377295e-01  0 
 -5.693348e-02  -1.300571e-01  0 
 -3.466557e-02  -6.022344e-02  0 
 -3.376562e-02  -6.715215e-02  0 
 -5.091057e-02  -7.509313e-02  0 
 -6.720912e-02  -1.060358e-01  0 
 -6.914612e-02  -1.157290e-01  0 
 -5.551799e-02  -9.184651e-02  0 
 -3.313311e-02  -9.871656e-02  0 
 -5.481584e-02  -1.072267e-01  0 
 -4.878856e-02  -9.049744e-02  0 
 -5.000374e-02  -9.785735e-02  0 
 -4.094900e-02  -9.255729e-02  0 
 -4.946784e-02  -1.142783e-01  0 
 -3.884506e-02  -1.145987e-01  0 
 -4.283649e-02  -1.047021e-01  0 
 -5.672521e-02  -1.153395e-01  0 
 -5.345491e-02  -1.321703e-01  0 
 -4.758184e-02  -1.350699e-01  0 
 -6.069175e-02  -1.425730e-01  0 
 -5.158130e-02  -1.454882e-01  0 
 -4.702721e-02  -1.425813e-01  0 
 -5.393426e-02  -1.575177e-01  0 
 -4.859864e-02  -1.540038e-01  0 
 -5.849836e-02  -1.324317e-01  0 
VECTORS displacement_ITER4 FLOAT
 -6.018812e-02  -7.849353e-02  0 
 -6.072919e-02  -1.078660e-01  0 
 -5.310390e-02  -7.845683e-02  0 
 -4.588483e-02  -7.834937e-02  0 
 -3.856366e-02  -7.829181e-02  0 
 -6.069494e-02  -9.296639e-02  0 
 -6.070812e-02  -1.004081e-01  0 
 -5.329731e-02  -1.078116e-01  0 
 -4.588157e-02  -1.078131e-01  0 
 -5.763566e-02  -1.154157e-01  0 
 -4.683809e-02  -9.130940e-02  0 
 -3.575259e-02  -5.939892e-02  0 
 -3.737364e-02  -6.289577e-02  0 
 -5.057217e-02  -7.221377e-02  0 
 -6.655271e-02  -9.683177e-02  0 
 -6.819040e-02  -1.044664e-01  0 
 -5.485310e-02  -8.471474e-02  0 
 -3.754503e-02  -9.004099e-02  0 
 -5.435880e-02  -9.665673e-02  0 
 -4.966493e-02  -8.367213e-02  0 
 -5.060778e-02  -8.936805e-02  0 
 -4.359286e-02  -8.526665e-02  0 
 -5.020608e-02  -1.021435e-01  0 
 -4.194436e-02  -1.024032e-01  0 
 -4.505186e-02  -9.468535e-02  0 
 -5.584984e-02  -1.029751e-01  0 
 -5.336602e-02  -1.124214e-01  0 
 -4.727473e-02  -1.147825e-01  0 
 -6.001105e-02  -1.171548e-01  0 
 -4.974224e-02  -1.210481e-01  0 
 -4.411250e-02  -1.200722e-01  0 
 -5.192134e-02  -1.327198e-01  0 
 -4.318392e-02  -1.285437e-01  0 
 -5.709038e-02  -1.141299e-01  0 
VECTORS displacement_ITER5 FLOAT
 -4.615949e-02  -6.161288e-02  0 
 -4.688945e-02  -7.983976e-02  0 
 -4.192862e-02  -6.156123e-02  0 
 -3.753710e-02  -6.142774e-02  0 
 -3.302708e-02  -6.136649e-02  0 
 -4.684132e-02  -7.039447e-02  0 
 -4.685626e-02  -7.511125e-02  0 
 -4.218822e-02  -7.975972e-02  0 
 -3.751917e-02  -7.974889e-02  0 
 -5.331518e-02  -9.241543e-02  0 
 -5.339072e-02  -8.375979e-02  0 
 -2.749398e-02  -5.060187e-02  0 
 -3.211005e-02  -5.061971e-02  0 
 -3.891051e-02  -5.858735e-02  0 
 -5.254130e-02  -7.416906e-02  0 
 -5.400532e-02  -7.870214e-02  0 
 -4.299214e-02  -6.533588e-02  0 
 -3.242025e-02  -6.862119e-02  0 
 -4.282654e-02  -7.273157e-02  0 
 -3.986290e-02  -6.469832e-02  0 
 -4.045019e-02  -6.817459e-02  0 
 -3.613515e-02  -6.567174e-02  0 
 -4.023700e-02  -7.617607e-02  0 
 -3.505481e-02  -7.635467e-02  0 
 -3.701336e-02  -7.147941e-02  0 
 -4.378492e-02  -7.672032e-02  0 
 -4.285124e-02  -8.305904e-02  0 
 -3.995530e-02  -8.376797e-02  0 
 -4.992330e-02  -8.948487e-02  0 
 -4.267539e-02  -8.765068e-02  0 
 -4.061848e-02  -8.534767e-02  0 
 -4.632305e-02  -9.388239e-02  0 
 -4.255314e-02  -8.698558e-02  0 
 -4.594048e-02  -8.469084e-02  0 
VECTORS displacement_ITER6 FLOAT
 -3.153777e-02  -4.806954e-02  0 
 -3.249297e-02  -5.562752e-02  0 
 -3.004997e-02  -4.800390e-02  0 
 -2.837744e-02  -4.784457e-02  0 
 -2.657182e-02  -4.778392e-02  0 
 -3.242680e-02  -5.137103e-02  0 
 -3.244352e-02  -5.349709e-02  0 
 -3.038871e-02  -5.551750e-02  0 
 -2.833565e-02  -5.549171e-02  0 
 -4.922408e-02  -7.425359e-02  0 
 -5.910639e-02  -8.262838e-02  0 
 -1.895530e-02  -4.516836e-02  0 
 -2.596934e-02  -4.209251e-02  0 
 -2.663965e-02  -4.805455e-02  0 
 -3.843839e-02  -5.498229e-02  0 
 -3.951976e-02  -5.677294e-02  0 
 -3.045397e-02  -4.939093e-02  0 
 -2.635456e-02  -5.071816e-02  0 
 -3.061846e-02  -5.242239e-02  0 
 -2.930563e-02  -4.914155e-02  0 
 -2.955247e-02  -5.048194e-02  0 
 -2.782939e-02  -4.951832e-02  0 
 -2.952247e-02  -5.391690e-02  0 
 -2.727875e-02  -5.402105e-02  0 
 -2.814521e-02  -5.185808e-02  0 
 -3.107338e-02  -5.419098e-02  0 
 -3.143862e-02  -5.860840e-02  0 
 -2.943077e-02  -6.006824e-02  0 
 -3.925513e-02  -6.903553e-02  0 
 -3.208968e-02  -6.450088e-02  0 
 -3.062867e-02  -6.183133e-02  0 
 -3.660715e-02  -6.960677e-02  0 
 -3.354722e-02  -6.180690e-02  0 
 -3.444296e-02  -5.978846e-02  0 
VECTORS displacement_ITER7 FLOAT
 -1.896919e-02  -2.522195e-02  0 
 -2.006456e-02  -2.720090e-02  0 
 -1.891813e-02  -2.515028e-02  0 
 -1.867456e-02  -2.497870e-02  0 
 -1.829500e-02  -2.492241e-02  0 
 -1.998467e-02  -2.564002e-02  0 
 -2.000284e-02  -2.642081e-02  0 
 -1.930848e-02  -2.706988e-02  0 
 -1.861902e-02  -2.703244e-02  0 
 -3.982203e-02  -4.689326e-02  0 
 -5.135746e-02  -5.884840e-02  0 
 -1.074788e-02  -2.726492e-02  0 
 -1.813719e-02  -2.327520e-02  0 
 -1.548363e-02  -2.647461e-02  0 
 -2.724997e-02  -2.897127e-02  0 
 -2.774694e-02  -2.981647e-02  0 
 -1.897569e-02  -2.528517e-02  0 
 -1.827579e-02  -2.557966e-02  0 
 -1.932166e-02  -2.602395e-02  0 
 -1.886832e-02  -2.523736e-02  0 
 -1.893805e-02  -2.545437e-02  0 
 -1.857472e-02  -2.529872e-02  0 
 -1.900648e-02  -2.650013e-02  0 
 -1.829742e-02  -2.656472e-02  0 
 -1.859412e-02  -2.581805e-02  0 
 -1.951727e-02  -2.663616e-02  0 
 -2.062402e-02  -3.003878e-02  0 
 -1.765054e-02  -3.334218e-02  0 
 -2.851772e-02  -4.195330e-02  0 
 -1.982226e-02  -3.916702e-02  0 
 -1.663862e-02  -3.763192e-02  0 
 -2.388243e-02  -4.615473e-02  0 
 -1.819427e-02  -4.039431e-02  0 
 -2.339487e-02  -3.096295e-02  0 
VECTORS displacement_ITER8 FLOAT
 -2.300903e-02  -1.932526e-02  0 
 -2.413544e-02  -2.381753e-02  0 
 -2.233257e-02  -1.925306e-02  0 
 -2.146670e-02  -1.907871e-02  0 
 -2.046597e-02  -1.902358e-02  0 
 -2.404879e-02  -2.098004e-02  0 
 -2.406847e-02  -2.240082e-02  0 
 -2.273709e-02  -2.368157e-02  0 
 -2.141643e-02  -2.363951e-02  0 
 -3.847140e-02  -3.730231e-02  0 
 -4.542391e-02  -4.151230e-02  0 
 -1.503062e-02  -2.154321e-02  0 
 -2.059573e-02  -1.936629e-02  0 
 -1.912883e-02  -1.983063e-02  0 
 -3.391105e-02  -2.469697e-02  0 
 -3.367162e-02  -2.661407e-02  0 
 -2.254174e-02  -1.993397e-02  0 
 -2.034911e-02  -2.067405e-02  0 
 -2.284025e-02  -2.168156e-02  0 
 -2.198459e-02  -1.979196e-02  0 
 -2.213751e-02  -2.049684e-02  0 
 -2.117012e-02  -1.998624e-02  0 
 -2.216976e-02  -2.262670e-02  0 
 -2.075914e-02  -2.271028e-02  0 
 -2.131749e-02  -2.131204e-02  0 
 -2.316570e-02  -2.283371e-02  0 
 -2.411091e-02  -2.584010e-02  0 
 -2.150414e-02  -2.866624e-02  0 
 -3.061184e-02  -3.378123e-02  0 
 -2.334062e-02  -3.285712e-02  0 
 -2.087866e-02  -3.221305e-02  0 
 -2.631947e-02  -3.831007e-02  0 
 -2.190653e-02  -3.465233e-02  0 
 -2.645211e-02  -2.643462e-02  0 
VECTORS displacement_ITER9 FLOAT
 -1.600245e-02  -1.331024e-02  0 
 -1.708638e-02  -2.157827e-02  0 
 -1.436054e-02  -1.323847e-02  0 
 -1.253568e-02  -1.306110e-02  0 
 -1.056232e-02  -1.299352e-02  0 
 -1.699639e-02  -1.688094e-02  0 
 -1.701834e-02  -1.923266e-02  0 
 -1.474844e-02  -2.145154e-02  0 
 -1.249473e-02  -2.141287e-02  0 
 -2.112868e-02  -2.380951e-02  0 
 -2.117750e-02  -1.712476e-02  0 
 -6.882876e-03  -1.258049e-02  0 
 -1.046337e-02  -1.205866e-02  0 
 -1.165896e-02  -1.265534e-02  0 
 -2.904464e-02  -2.070059e-02  0 
 -2.804270e-02  -2.412480e-02  0 
 -1.480255e-02  -1.476132e-02  0 
 -1.032184e-02  -1.619098e-02  0 
 -1.499553e-02  -1.804287e-02  0 
 -1.355043e-02  -1.447803e-02  0 
 -1.382530e-02  -1.593468e-02  0 
 -1.193842e-02  -1.488180e-02  0 
 -1.379262e-02  -1.968647e-02  0 
 -1.133572e-02  -1.980031e-02  0 
 -1.228496e-02  -1.743631e-02  0 
 -1.550513e-02  -1.998963e-02  0 
 -1.607394e-02  -2.194725e-02  0 
 -1.555704e-02  -2.225378e-02  0 
 -1.962365e-02  -2.246360e-02  0 
 -1.705287e-02  -2.253341e-02  0 
 -1.745449e-02  -2.230488e-02  0 
 -1.864794e-02  -2.345471e-02  0 
 -1.889653e-02  -2.161732e-02  0 
 -1.741810e-02  -2.206737e-02  0 
VECTORS displacement_ITER10 FLOAT
 -1.106351e-02  -8.211299e-03  0 
 -1.216573e-02  -1.282572e-02  0 
 -1.033047e-02  -8.138207e-03  0 
 -9.420607e-03  -7.957651e-03  0 
 -8.361654e-03  -7.890252e-03  0 
 -1.206596e-02  -9.942055e-03  0 
 -1.209005e-02  -1.138815e-02  0 
 -1.072161e-02  -1.270341e-02  0 
 -9.372091e-03  -1.266960e-02  0 
 -1.222839e-02  -1.021294e-02  0 
 -8.955298e-03  -4.882628e-03  0 
 -5.394453e-03  -8.653439e-03  0 
 -8.739265e-03  -8.212746e-03  0 
 -8.112128e-03  -7.815006e-03  0 
 -2.381620e-02  -1.225809e-02  0 
 -2.228329e-02  -1.575719e-02  0 
 -1.055080e-02  -8.865071e-03  0 
 -8.249611e-03  -9.626002e-03  0 
 -1.083712e-02  -1.065325e-02  0 
 -9.962508e-03  -8.709299e-03  0 
 -1.012221e-02  -9.445720e-03  0 
 -9.112065e-03  -8.909883e-03  0 
 -1.014450e-02  -1.162777e-02  0 
 -8.697162e-03  -1.171895e-02  0 
 -9.271384e-03  -1.028929e-02  0 
 -1.116885e-02  -1.182836e-02  0 
 -1.126144e-02  -1.258571e-02  0 
 -8.627246e-03  -1.460458e-02  0 
 -1.320311e-02  -1.306308e-02  0 
 -9.273259e-03  -1.640133e-02  0 
 -6.445766e-03  -1.713723e-02  0 
 -1.005784e-02  -2.128761e-02  0 
 -5.556719e-03  -2.081270e-02  0 
 -1.243498e-02  -1.236794e-02  0 
VECTORS displacement_ITER11 FLOAT
 -1.024387e-02  -9.030764e-03  0 
 -1.137507e-02  -8.042435e-03  0 
 -1.091264e-02  -8.954838e-03  0 
 -1.140677e-02  -8.768382e-03  0 
 -1.174791e-02  -8.699311e-03  0 
 -1.126398e-02  -7.944109e-03  0 
 -1.129092e-02  -7.997835e-03  0 
 -1.131092e-02  -7.924034e-03  0 
 -1.135053e-02  -7.893247e-03  0 
 -1.212750e-02  -5.932644e-03  0 
 -1.021479e-02  -9.393534e-03  0 
 -8.435838e-03  -1.080762e-02  0 
 -1.242146e-02  -9.950343e-03  0 
 -9.111982e-03  -9.312519e-03  0 
 -2.131566e-02  -8.322389e-03  0 
 -1.950122e-02  -1.122462e-02  0 
 -1.079240e-02  -8.456519e-03  0 
 -1.183957e-02  -8.195403e-03  0 
 -1.122206e-02  -7.961886e-03  0 
 -1.122335e-02  -8.499574e-03  0 
 -1.120509e-02  -8.132185e-03  0 
 -1.154152e-02  -8.390324e-03  0 
 -1.131412e-02  -7.906653e-03  0 
 -1.141833e-02  -7.958509e-03  0 
 -1.141385e-02  -7.965856e-03  0 
 -1.127993e-02  -7.952602e-03  0 
 -1.138016e-02  -8.363647e-03  0 
 -8.074116e-03  -1.161862e-02  0 
 -1.229629e-02  -1.087455e-02  0 
 -8.217429e-03  -1.484717e-02  0 
 -4.127028e-03  -1.577055e-02  0 
 -8.761222e-03  -2.151490e-02  0 
 -2.425104e-03  -2.147456e-02  0 
 -1.233528e-02  -7.694425e-03  0 
VECTORS displacement_ITER12 FLOAT
 -7.795041e-03  -2.918054e-03  0 
 -8.911214e-03  -2.301616e-03  0 
 -8.360396e-03  -2.840402e-03  0 
 -8.752959e-03  -2.649102e-03  0 
 -8.982167e-03  -2.571454e-03  0 
 -8.791975e-03  -2.033674e-03  0 
 -8.822547e-03  -2.171295e-03  0 
 -8.750526e-03  -2.191504e-03  0 
 -8.698971e-03  -2.162535e-03  0 
 -9.193331e-03  -7.992642e-04  0 
 -8.732812e-03  -9.237664e-03  0 
 -6.358728e-03  -3.434957e-03  0 
 -9.649233e-03  -3.008959e-03  0 
 -6.963080e-03  -2.833601e-03  0 
 -1.796603e-02  -1.724581e-03  0 
 -1.593295e-02  -4.815895e-03  0 
 -8.264923e-03  -2.432489e-03  0 
 -9.067651e-03  -2.242575e-03  0 
 -8.679354e-03  -2.089618e-03  0 
 -8.623104e-03  -2.458522e-03  0 
 -8.617652e-03  -2.170130e-03  0 
 -8.856679e-03  -2.370928e-03  0 
 -8.716360e-03  -2.104910e-03  0 
 -8.717183e-03  -2.160631e-03  0 
 -8.751290e-03  -2.075361e-03  0 
 -8.754703e-03  -2.156084e-03  0 
 -8.722240e-03  -3.461097e-03  0 
 -7.320509e-03  -5.330723e-03  0 
 -8.676696e-03  -5.427589e-03  0 
 -7.578596e-03  -7.321127e-03  0 
 -6.037540e-03  -7.585105e-03  0 
 -8.030796e-03  -1.057030e-02  0 
 -5.659748e-03  -1.041463e-02  0 
 -9.404296e-03  -2.402267e-03  0 
VECTORS displacement_ITER13 FLOAT
 -5.142996e-03  -6.189293e-03  0 
 -6.237904e-03  -5.175506e-03  0 
 -5.797017e-03  -6.110492e-03  0 
 -6.279391e-03  -5.916749e-03  0 
 -6.595156e-03  -5.834933e-03  0 
 -6.109819e-03  -5.132140e-03  0 
 -6.145011e-03  -5.155061e-03  0 
 -6.177839e-03  -5.072794e-03  0 
 -6.231982e-03  -5.044065e-03  0 
 -6.539446e-03  -5.283328e-03  0 
 -6.521643e-03  -1.384610e-02  0 
 -4.752551e-03  -6.466391e-03  0 
 -7.631241e-03  -6.418350e-03  0 
 -4.691451e-03  -5.827420e-03  0 
 -1.386643e-02  -4.514546e-03  0 
 -1.195308e-02  -7.262096e-03  0 
 -5.680013e-03  -5.625748e-03  0 
 -6.694027e-03  -5.366156e-03  0 
 -6.095899e-03  -5.126116e-03  0 
 -6.103405e-03  -5.662856e-03  0 
 -6.086767e-03  -5.304605e-03  0 
 -6.412534e-03  -5.553660e-03  0 
 -6.187817e-03  -5.066700e-03  0 
 -6.304654e-03  -5.116987e-03  0 
 -6.291876e-03  -5.141543e-03  0 
 -6.149045e-03  -5.101822e-03  0 
 -6.309364e-03  -6.724512e-03  0 
 -6.685549e-03  -7.258439e-03  0 
 -5.899099e-03  -8.010002e-03  0 
 -7.036877e-03  -7.891397e-03  0 
 -7.804735e-03  -7.641404e-03  0 
 -7.432329e-03  -7.950346e-03  0 
 -8.531439e-03  -7.702353e-03  0 
 -6.491375e-03  -5.825234e-03  0 
VECTORS displacement_ITER14 FLOAT
 -3.252195e-03  -5.984846e-03  0 
 -4.309035e-03  -5.497600e-03  0 
 -3.761283e-03  -5.904022e-03  0 
 -4.096273e-03  -5.705539e-03  0 
 -4.252238e-03  -5.612046e-03  0 
 -4.169592e-03  -5.236188e-03  0 
 -4.211847e-03  -5.363738e-03  0 
 -4.125215e-03  -5.404303e-03  0 
 -4.058139e-03  -5.377304e-03  0 
 -4.390788e-03  -7.091336e-03  0 
 -3.236576e-03  -1.093098e-02  0 
 -2.610388e-03  -4.367287e-03  0 
 -5.097819e-03  -4.675225e-03  0 
 -2.951755e-03  -5.133396e-03  0 
 -1.005909e-02  -5.208533e-03  0 
 -8.619145e-03  -7.168172e-03  0 
 -3.679939e-03  -5.548184e-03  0 
 -4.345684e-03  -5.390705e-03  0 
 -4.067871e-03  -5.273774e-03  0 
 -3.997128e-03  -5.563705e-03  0 
 -3.997868e-03  -5.322270e-03  0 
 -4.185023e-03  -5.486575e-03  0 
 -4.085450e-03  -5.307660e-03  0 
 -4.063565e-03  -5.359410e-03  0 
 -4.098718e-03  -5.258670e-03  0 
 -4.142168e-03  -5.350105e-03  0 
 -4.440442e-03  -6.854684e-03  0 
 -5.827801e-03  -6.227363e-03  0 
 -4.332644e-03  -7.440446e-03  0 
 -6.295269e-03  -5.888615e-03  0 
 -8.215112e-03  -5.245750e-03  0 
 -6.753007e-03  -4.193441e-03  0 
 -9.478859e-03  -3.630672e-03  0 
 -4.273995e-03  -6.586697e-03  0 
VECTORS displacement_ITER15 FLOAT
 -3.230689e-03  -6.085362e-03  0 
 -4.259697e-03  -5.437597e-03  0 
 -3.771694e-03  -6.002295e-03  0 
 -4.134060e-03  -5.800022e-03  0 
 -4.306432e-03  -5.697170e-03  0 
 -4.108509e-03  -5.295487e-03  0 
 -4.157985e-03  -5.359074e-03  0 
 -4.120969e-03  -5.353103e-03  0 
 -4.098959e-03  -5.330852e-03  0 
 -4.958063e-03  -8.431414e-03  0 
 -2.719253e-03  -8.782102e-03  0 
 -2.566879e-03  -3.288925e-03  0 
 -4.825751e-03  -3.805430e-03  0 
 -3.158129e-03  -4.933921e-03  0 
 -7.532929e-03  -6.309511e-03  0 
 -6.833474e-03  -6.859008e-03  0 
 -3.683386e-03  -5.621196e-03  0 
 -4.419514e-03  -5.441685e-03  0 
 -4.062801e-03  -5.292685e-03  0 
 -4.021114e-03  -5.641581e-03  0 
 -4.016625e-03  -5.379225e-03  0 
 -4.232987e-03  -5.559277e-03  0 
 -4.102023e-03  -5.294414e-03  0 
 -4.127848e-03  -5.345842e-03  0 
 -4.143702e-03  -5.290762e-03  0 
 -4.125007e-03  -5.326152e-03  0 
 -4.290884e-03  -6.387052e-03  0 
 -4.577466e-03  -6.238159e-03  0 
 -5.040935e-03  -7.979137e-03  0 
 -4.989546e-03  -6.726789e-03  0 
 -5.267351e-03  -6.122209e-03  0 
 -5.734184e-03  -7.099848e-03  0 
 -5.777150e-03  -5.878065e-03  0 
 -4.324326e-03  -6.769389e-03  0 
VECTORS displacement_ITER16 FLOAT
 -1.499708e-03  -8.688601e-03  0 
 -2.520139e-03  -6.088362e-03  0 
 -2.528953e-03  -8.602021e-03  0 
 -3.372771e-03  -8.394958e-03  0 
 -4.019548e-03  -8.286689e-03  0 
 -2.360460e-03  -6.946723e-03  0 
 -2.415471e-03  -6.506843e-03  0 
 -2.871783e-03  -6.010562e-03  0 
 -3.338413e-03  -5.993383e-03  0 
 -3.517245e-03  -9.181248e-03  0 
 -1.075076e-03  -8.190283e-03  0 
 -1.799019e-03  -6.415775e-03  0 
 -4.625412e-03  -6.333205e-03  0 
 -1.913164e-03  -7.877622e-03  0 
 -3.285356e-03  -8.583775e-03  0 
 -3.310666e-03  -7.583094e-03  0 
 -2.323823e-03  -7.797600e-03  0 
 -4.209851e-03  -7.269221e-03  0 
 -2.745382e-03  -6.687155e-03  0 
 -3.011514e-03  -7.888303e-03  0 
 -2.944663e-03  -7.249258e-03  0 
 -3.624314e-03  -7.700843e-03  0 
 -3.058406e-03  -6.327423e-03  0 
 -3.626735e-03  -6.364802e-03  0 
 -3.438499e-03  -6.812563e-03  0 
 -2.708090e-03  -6.301595e-03  0 
 -3.037518e-03  -6.723330e-03  0 
 -2.415434e-03  -7.491911e-03  0 
 -4.011465e-03  -8.878877e-03  0 
 -2.545948e-03  -8.697800e-03  0 
 -1.519036e-03  -8.588667e-03  0 
 -3.261963e-03  -1.097394e-02  0 
 -1.131167e-03  -9.815876e-03  0 
 -2.992596e-03  -7.316776e-03  0 
VECTORS displacement_ITER17 FLOAT
 -2.357083e-03  -6.970817e-03  0 
 -3.345790e-03  -6.677987e-03  0 
 -2.800503e-03  -6.882910e-03  0 
 -3.056379e-03  -6.674234e-03  0 
 -3.110960e-03  -6.560007e-03  0 
 -3.182723e-03  -6.417617e-03  0 
 -3.241459e-03  -6.534397e-03  0 
 -3.132303e-03  -6.607403e-03  0 
 -3.030692e-03  -6.594494e-03  0 
 -3.066305e-03  -8.570201e-03  0 
 -1.283944e-03  -7.045658e-03  0 
 -1.747906e-03  -4.367540e-03  0 
 -3.883708e-03  -4.675562e-03  0 
 -2.203127e-03  -5.742355e-03  0 
 -3.319382e-03  -8.585310e-03  0 
 -3.627112e-03  -7.538542e-03  0 
 -2.738417e-03  -6.591857e-03  0 
 -3.221350e-03  -6.486648e-03  0 
 -3.094580e-03  -6.429902e-03  0 
 -2.999757e-03  -6.597801e-03  0 
 -3.007620e-03  -6.421788e-03  0 
 -3.123772e-03  -6.538283e-03  0 
 -3.083333e-03  -6.493815e-03  0 
 -3.012568e-03  -6.547639e-03  0 
 -3.061036e-03  -6.404739e-03  0 
 -3.166908e-03  -6.525867e-03  0 
 -3.377194e-03  -7.382598e-03  0 
 -3.417669e-03  -7.514703e-03  0 
 -4.044466e-03  -8.201390e-03  0 
 -3.638062e-03  -7.824655e-03  0 
 -3.724536e-03  -7.708246e-03  0 
 -4.225019e-03  -8.685594e-03  0 
 -3.789020e-03  -7.645203e-03  0 
 -3.302620e-03  -7.803667e-03  0 
VECTORS displacement_ITER18 FLOAT
 -1.651250e-03  -6.128230e-03  0 
 -2.619441e-03  -5.668051e-03  0 
 -2.129837e-03  -6.039669e-03  0 
 -2.420947e-03  -5.830188e-03  0 
 -2.507277e-03  -5.711041e-03  0 
 -2.455279e-03  -5.508817e-03  0 
 -2.515513e-03  -5.573217e-03  0 
 -2.454366e-03  -5.600400e-03  0 
 -2.398827e-03  -5.591077e-03  0 
 -2.452463e-03  -6.825258e-03  0 
 -2.767569e-03  -7.659942e-03  0 
 -1.447763e-03  -4.268969e-03  0 
 -3.387228e-03  -4.478422e-03  0 
 -1.544050e-03  -5.004886e-03  0 
 -2.351369e-03  -7.196831e-03  0 
 -2.602036e-03  -6.261463e-03  0 
 -2.059449e-03  -5.718098e-03  0 
 -2.630540e-03  -5.582923e-03  0 
 -2.412499e-03  -5.493457e-03  0 
 -2.345942e-03  -5.729059e-03  0 
 -2.348680e-03  -5.525788e-03  0 
 -2.501075e-03  -5.660897e-03  0 
 -2.425787e-03  -5.524139e-03  0 
 -2.403538e-03  -5.576678e-03  0 
 -2.433083e-03  -5.479182e-03  0 
 -2.473490e-03  -5.548776e-03  0 
 -2.651766e-03  -5.999936e-03  0 
 -2.511485e-03  -6.156767e-03  0 
 -3.198635e-03  -6.538835e-03  0 
 -2.696517e-03  -6.475239e-03  0 
 -2.400024e-03  -6.436834e-03  0 
 -3.199868e-03  -7.576727e-03  0 
 -2.240959e-03  -6.824250e-03  0 
 -2.620190e-03  -6.345036e-03  0 
VECTORS displacement_ITER19 FLOAT
 -9.159394e-04  -5.470383e-03  0 
 -1.875950e-03  -4.461076e-03  0 
 -1.530036e-03  -5.380130e-03  0 
 -1.955055e-03  -5.168757e-03  0 
 -2.170645e-03  -5.045248e-03  0 
 -1.711223e-03  -4.581056e-03  0 
 -1.772301e-03  -4.504373e-03  0 
 -1.850500e-03  -4.393677e-03  0 
 -1.933582e-03  -4.386083e-03  0 
 -2.195267e-03  -5.814762e-03  0 
 -4.049497e-03  -8.952047e-03  0 
 -1.033013e-03  -4.235909e-03  0 
 -2.949841e-03  -4.127810e-03  0 
 -9.407662e-04  -4.624765e-03  0 
 -1.518357e-03  -5.707892e-03  0 
 -1.678513e-03  -4.871327e-03  0 
 -1.427379e-03  -4.940756e-03  0 
 -2.321927e-03  -4.705883e-03  0 
 -1.789421e-03  -4.495045e-03  0 
 -1.810970e-03  -4.971192e-03  0 
 -1.795955e-03  -4.662649e-03  0 
 -2.078419e-03  -4.873576e-03  0 
 -1.880299e-03  -4.423821e-03  0 
 -2.011754e-03  -4.472427e-03  0 
 -1.983853e-03  -4.517242e-03  0 
 -1.821678e-03  -4.432381e-03  0 
 -1.985704e-03  -4.757872e-03  0 
 -1.563329e-03  -5.153502e-03  0 
 -2.516472e-03  -5.634446e-03  0 
 -1.720620e-03  -5.812415e-03  0 
 -1.006687e-03  -5.778524e-03  0 
 -2.190352e-03  -7.385803e-03  0 
 -7.228422e-04  -6.727881e-03  0 
 -2.002816e-03  -5.057673e-03  0 
VECTORS displacement_ITER20 FLOAT
 -1.113094e-03  -4.872879e-03  0 
 -2.043238e-03  -5.566069e-03  0 
 -1.293499e-03  -4.781544e-03  0 
 -1.283792e-03  -4.569572e-03  0 
 -1.059527e-03  -4.440132e-03  0 
 -1.879231e-03  -4.855161e-03  0 
 -1.941670e-03  -5.191789e-03  0 
 -1.602709e-03  -5.500668e-03  0 
 -1.268969e-03  -5.493899e-03  0 
 -8.243121e-04  -5.846134e-03  0 
 -1.755573e-03  -6.302610e-03  0 
 -2.345019e-04  -3.167851e-03  0 
 -1.609126e-03  -3.195442e-03  0 
 -7.040311e-04  -3.871072e-03  0 
 -2.164799e-03  -5.944253e-03  0 
 -2.224383e-03  -5.550225e-03  0 
 -1.296667e-03  -4.721667e-03  0 
 -1.158331e-03  -4.798012e-03  0 
 -1.606236e-03  -4.972951e-03  0 
 -1.364536e-03  -4.689926e-03  0 
 -1.403937e-03  -4.722953e-03  0 
 -1.271400e-03  -4.687531e-03  0 
 -1.458866e-03  -5.213631e-03  0 
 -1.122477e-03  -5.273049e-03  0 
 -1.267716e-03  -4.885733e-03  0 
 -1.718996e-03  -5.266061e-03  0 
 -1.831041e-03  -5.842127e-03  0 
 -1.968850e-03  -5.647796e-03  0 
 -2.091835e-03  -5.450523e-03  0 
 -2.162843e-03  -5.552548e-03  0 
 -2.314220e-03  -5.534918e-03  0 
 -2.425219e-03  -5.976068e-03  0 
 -2.309648e-03  -5.585532e-03  0 
 -1.699522e-03  -6.146706e-03  0 
VECTORS displacement_ITER21 FLOAT
 -1.315495e-03  -4.441979e-03  0 
 -2.229965e-03  -3.382350e-03  0 
 -1.930544e-03  -4.349529e-03  0 
 -2.354177e-03  -4.137066e-03  0 
 -2.558643e-03  -4.002983e-03  0 
 -2.064537e-03  -3.556701e-03  0 
 -2.128550e-03  -3.448453e-03  0 
 -2.231985e-03  -3.316637e-03  0 
 -2.339236e-03  -3.311087e-03  0 
 -1.705138e-03  -4.049724e-03  0 
 -1.866821e-03  -3.938884e-03  0 
 -1.224563e-03  -3.383586e-03  0 
 -2.858178e-03  -2.951485e-03  0 
 -1.348861e-03  -3.868816e-03  0 
 -2.192083e-03  -3.937330e-03  0 
 -2.193768e-03  -3.434248e-03  0 
 -1.828579e-03  -3.910342e-03  0 
 -2.732404e-03  -3.668939e-03  0 
 -2.171677e-03  -3.452099e-03  0 
 -2.210044e-03  -3.942122e-03  0 
 -2.192478e-03  -3.634568e-03  0 
 -2.479999e-03  -3.845077e-03  0 
 -2.272468e-03  -3.366536e-03  0 
 -2.427731e-03  -3.412128e-03  0 
 -2.388749e-03  -3.480547e-03  0 
 -2.195410e-03  -3.370068e-03  0 
 -2.445668e-03  -3.559101e-03  0 
 -1.770739e-03  -4.142023e-03  0 
 -2.943096e-03  -4.157392e-03  0 
 -1.840703e-03  -5.078622e-03  0 
 -6.631275e-04  -5.283160e-03  0 
 -2.080847e-03  -7.314463e-03  0 
 2.052099e-05  -7.184717e-03  0 
 -2.339067e-03  -3.956000e-03  0 
VECTORS displacement_ITER22 FLOAT
 -1.843772e-03  -3.763693e-03  0 
 -2.711085e-03  -5.627405e-03  0 
 -1.714011e-03  -3.670936e-03  0 
 -1.393650e-03  -3.459866e-03  0 
 -8.507844e-04  -3.319534e-03  0 
 -2.545991e-03  -4.372489e-03  0 
 -2.612191e-03  -4.976108e-03  0 
 -1.997919e-03  -5.565299e-03  0 
 -1.386840e-03  -5.561255e-03  0 
 -1.564720e-03  -5.780582e-03  0 
 -1.106353e-03  -4.643656e-03  0 
 -3.742998e-04  -2.067730e-03  0 
 -1.108252e-03  -1.962925e-03  0 
 -1.161871e-03  -2.814364e-03  0 
 -3.509864e-03  -4.746784e-03  0 
 -3.343941e-03  -5.071247e-03  0 
 -1.793117e-03  -3.882499e-03  0 
 -9.253794e-04  -4.175866e-03  0 
 -2.047831e-03  -4.619001e-03  0 
 -1.633663e-03  -3.807569e-03  0 
 -1.709590e-03  -4.084693e-03  0 
 -1.286547e-03  -3.873143e-03  0 
 -1.739290e-03  -5.069160e-03  0 
 -1.089969e-03  -5.135098e-03  0 
 -1.349888e-03  -4.459957e-03  0 
 -2.211010e-03  -5.148544e-03  0 
 -2.223934e-03  -5.998699e-03  0 
 -2.518131e-03  -5.495849e-03  0 
 -2.587496e-03  -5.684182e-03  0 
 -2.899113e-03  -5.459338e-03  0 
 -3.258807e-03  -5.148535e-03  0 
 -3.208043e-03  -5.518489e-03  0 
 -3.655284e-03  -5.040024e-03  0 
 -2.268690e-03  -6.210653e-03  0 
VECTORS displacement_ITER23 FLOAT
 -1.370740e-03  -3.700588e-03  0 
 -2.221351e-03  -2.919572e-03  0 
 -1.897492e-03  -3.606527e-03  0 
 -2.232976e-03  -3.395054e-03  0 
 -2.342651e-03  -3.250373e-03  0 
 -2.053565e-03  -2.997891e-03  0 
 -2.122024e-03  -2.932684e-03  0 
 -2.173472e-03  -2.857629e-03  0 
 -2.225659e-03  -2.855112e-03  0 
 -2.848101e-03  -3.654227e-03  0 
 -2.588031e-03  -4.145657e-03  0 
 -1.196037e-03  -3.039904e-03  0 
 -2.489865e-03  -2.302584e-03  0 
 -1.356496e-03  -3.349538e-03  0 
 -2.812277e-03  -2.689528e-03  0 
 -2.615796e-03  -2.724457e-03  0 
 -1.817606e-03  -3.244713e-03  0 
 -2.522850e-03  -3.058097e-03  0 
 -2.126536e-03  -2.909908e-03  0 
 -2.132795e-03  -3.265138e-03  0 
 -2.123369e-03  -3.027101e-03  0 
 -2.334614e-03  -3.186702e-03  0 
 -2.191908e-03  -2.868406e-03  0 
 -2.282574e-03  -2.913846e-03  0 
 -2.265278e-03  -2.924733e-03  0 
 -2.156620e-03  -2.874494e-03  0 
 -2.343334e-03  -3.123638e-03  0 
 -1.856142e-03  -3.613460e-03  0 
 -2.882946e-03  -4.080476e-03  0 
 -1.968889e-03  -4.558501e-03  0 
 -1.064823e-03  -4.632970e-03  0 
 -2.220537e-03  -6.276621e-03  0 
 -6.361471e-04  -6.167900e-03  0 
 -2.489852e-03  -3.229071e-03  0 
VECTORS displacement_ITER24 FLOAT
 -1.327760e-03  -3.891055e-03  0 
 -2.129045e-03  -4.023820e-03  0 
 -1.612396e-03  -3.794979e-03  0 
 -1.704284e-03  -3.583692e-03  0 
 -1.565904e-03  -3.431453e-03  0 
 -1.957997e-03  -3.683668e-03  0 
 -2.030965e-03  -3.823781e-03  0 
 -1.868025e-03  -3.967003e-03  0 
 -1.703087e-03  -3.967901e-03  0 
 -3.258324e-03  -4.714431e-03  0 
 -3.503543e-03  -7.378218e-03  0 
 -6.205095e-04  -3.085753e-03  0 
 -1.659384e-03  -2.251309e-03  0 
 -1.094322e-03  -3.539587e-03  0 
 -2.842021e-03  -3.534722e-03  0 
 -2.716082e-03  -3.660144e-03  0 
 -1.592245e-03  -3.645671e-03  0 
 -1.722428e-03  -3.630247e-03  0 
 -1.858164e-03  -3.692479e-03  0 
 -1.729199e-03  -3.632091e-03  0 
 -1.748701e-03  -3.585975e-03  0 
 -1.731451e-03  -3.606608e-03  0 
 -1.797053e-03  -3.814912e-03  0 
 -1.642248e-03  -3.866101e-03  0 
 -1.714860e-03  -3.651191e-03  0 
 -1.927512e-03  -3.841096e-03  0 
 -1.869399e-03  -4.347935e-03  0 
 -1.793520e-03  -4.425128e-03  0 
 -2.233510e-03  -5.348253e-03  0 