# vtk DataFile Version 3.1
this is an vtk file created by FEMAC
ASCII
DATASET UNSTRUCTURED_GRID
POINTS 21 FLOAT
0.000000 0.000000 0.000000
1.000000 0.000000 0.000000
0.000000 1.000000 0.000000
1.000000 1.000000 0.000000
0.333333 0.000000 0.000000
0.666667 0.000000 0.000000
1.333333 0.000000 0.000000
0.000000 0.333333 0.000000
0.000000 0.666667 0.000000
1.000000 0.333333 0.000000
1.000000 0.666667 0.000000
0.480477 0.680774 0.000000
0.362231 0.275821 0.000000
0.723785 0.353877 0.000000
0.205499 0.555406 0.000000
0.207486 0.777989 0.000000
0.811821 0.672442 0.000000
1.603416 0.689810 0.000000
1.391228 0.312519 0.000000
1.229401 0.674408 0.000000
1.181140 0.161463 0.000000
CELLS 25 100 
3 4 12  0
3 12  7  0
3 13  5  1
3 9 13  1
3 5 12  4
3 13 12  5
3 11 12 13
3 14  8  7
3 14 12 11
3 12 14  7
3 15  8 14
3 8 15  2
3 14 11 15
3 16 10  3
3 16  9 10
3 16 11 13
3 13  9 16
3 10 19  3
3 17 19 18
3 10  9 19
3 9 18 19
3 6 20  1
3 9 20 18
3 20  9  1
3 20  6 18
CELL_TYPES 25
5 5 5 5 5 5 5 5 5 5 5 5 5 5 5 5 5 5 5 5 5 5 5 5 5 
POINT_DATA 21
VECTORS displacement_ITER1 FLOAT
 0  0  0 
 -2.954223e-04  -7.191484e-04  0 
 0  0  0 
 -1.350316e-03  -8.292416e-04  0 
 -2.686207e-04  -4.931170e-04  0 
 -3.463644e-04  -7.415899e-04  0 
 -3.498823e-03  -7.128864e-03  0 
 0  0  0 
 0  0  0 
 -3.074673e-04  -6.910056e-04  0 
 -6.384421e-04  -6.494897e-04  0 
 -2.343189e-04  -4.882502e-04  0 
 -1.843074e-04  -4.264260e-04  0 
 -3.190084e-04  -7.988058e-04  0 
 -8.890239e-05  -1.782829e-04  0 
 9.713194e-06  -6.552801e-05  0 
 -6.462142e-04  -8.834857e-04  0 
 -1.586117e-03  -7.940608e-03  0 
 -2.745399e-03  -6.270148e-03  0 
 -3.770681e-04  -3.419264e-03  0 
 -1.444654e-03  -3.820646e-03  0 
VECTORS displacement_ITER2 FLOAT
 0  0  0 
 -2.229854e-04  -5.160097e-04  0 
 0  0  0 
 -9.196010e-04  -8.513176e-04  0 
 -1.966732e-04  -3.688827e-04  0 
 -2.494725e-04  -5.318267e-04  0 
 -7.957500e-03  -1.248213e-02  0 
 0  0  0 
 0  0  0 
 -2.270452e-04  -4.962954e-04  0 
 -4.257077e-04  -5.249913e-04  0 
 -2.472747e-04  -4.165418e-04  0 
 -1.419197e-04  -3.270169e-04  0 
 -2.357764e-04  -5.607364e-04  0 
 -9.238627e-05  -1.336716e-04  0 
 3.942281e-05  2.771888e-05  0 
 -4.604970e-04  -6.445313e-04  0 
 -7.615172e-04  -8.978303e-03  0 
 -2.334116e-03  -6.989912e-03  0 
 8.502367e-05  -3.682656e-03  0 
 -1.604128e-03  -4.029214e-03  0 
VECTORS displacement_ITER3 FLOAT
 0  0  0 
 -1.234818e-04  -3.291811e-04  0 
 0  0  0 
 -1.440501e-03  -2.590912e-04  0 
 -1.547773e-04  -3.277514e-04  0 
 -1.684349e-04  -4.397068e-04  0 
 -2.856693e-03  -6.393932e-03  0 
 0  0  0 
 0  0  0 
 -2.249210e-04  -2.925789e-04  0 
 -6.131369e-04  -1.864390e-04  0 
 -3.110877e-04  -3.810554e-04  0 
 -1.304295e-04  -3.178718e-04  0 
 -2.345735e-04  -4.696254e-04  0 
 -1.090341e-04  -1.394695e-04  0 
 1.830270e-05  3.771237e-05  0 
 -5.992468e-04  -4.769699e-04  0 
 -1.057855e-03  -7.796617e-03  0 
 -2.120597e-03  -5.936118e-03  0 
 -2.194794e-04  -3.131490e-03  0 
 -1.129180e-03  -3.353420e-03  0 
VECTORS displacement_ITER4 FLOAT
 0  0  0 
 -1.816508e-04  -5.743302e-04  0 
 0  0  0 
 -8.629422e-04  -6.560990e-04  0 
 -1.681994e-04  -3.367277e-04  0 
 -2.157854e-04  -5.068757e-04  0 
 -5.042537e-03  -1.026786e-02  0 
 0  0  0 
 0  0  0 
 -9.690079e-05  -5.838846e-04  0 
 -2.251594e-04  -5.314482e-04  0 
 -1.028757e-04  -4.699829e-04  0 
 -9.787941e-05  -2.999775e-04  0 
 -1.200212e-04  -5.690113e-04  0 
 -5.284756e-05  -1.683646e-04  0 
 -3.699047e-06  -1.454156e-04  0 
 -2.171988e-04  -6.953386e-04  0 
 1.533215e-04  -9.476638e-03  0 
 -6.097405e-04  -7.075133e-03  0 
 4.934561e-04  -3.894535e-03  0 
 -7.823049e-04  -3.900954e-03  0 
VECTORS displacement_ITER5 FLOAT
 0  0  0 
 -1.893482e-04  -5.117722e-04  0 
 0  0  0 
 -9.335751e-04  -7.718396e-04  0 
 -1.692055e-04  -3.363527e-04  0 
 -2.143436e-04  -4.943679e-04  0 
 -3.170597e-03  -8.453874e-03  0 
 0  0  0 
 0  0  0 
 -1.502572e-04  -5.112534e-04  0 
 -2.963823e-04  -4.999027e-04  0 
 -1.711232e-04  -4.017833e-04  0 
 -1.070953e-04  -3.021780e-04  0 
 -1.704197e-04  -5.293931e-04  0 
 -6.900885e-05  -1.654469e-04  0 
 -3.680331e-05  -1.291403e-04  0 
 -3.114364e-04  -6.451628e-04  0 
 -1.077693e-03  -8.443037e-03  0 
 -2.709244e-03  -7.542236e-03  0 
 -3.329696e-05  -3.777051e-03  0 
 -1.242711e-03  -4.463995e-03  0 
VECTORS displacement_ITER6 FLOAT
 0  0  0 
 -2.125596e-04  -5.319007e-04  0 
 0  0  0 
 -5.435074e-04  -9.121962e-04  0 
 -1.726375e-04  -3.325525e-04  0 
 -2.258919e-04  -4.911769e-04  0 
 -2.868900e-03  -8.000587e-03  0 
 0  0  0 
 0  0  0 
 -1.561831e-04  -5.309286e-04  0 
 -2.298202e-04  -5.919556e-04  0 
 -1.679660e-04  -3.966647e-04  0 
 -1.071131e-04  -2.927187e-04  0 
 -1.687283e-04  -5.154970e-04  0 
 -6.887854e-05  -1.583176e-04  0 
 -4.121774e-05  -1.166237e-04  0 
 -2.672599e-04  -6.357460e-04  0 
 -2.378141e-03  -4.773656e-03  0 
 -2.481290e-03  -7.218490e-03  0 
 -3.675112e-04  -3.480922e-03  0 
 -1.147926e-03  -4.310139e-03  0 
VECTORS displacement_ITER7 FLOAT
 0  0  0 
 -1.943370e-04  -5.012928e-04  0 
 0  0  0 
 -7.093276e-04  -9.074359e-04  0 
 -1.656780e-04  -3.236990e-04  0 
 -2.130149e-04  -4.760416e-04  0 
 -3.071578e-03  -7.838253e-03  0 
 0  0  0 
 0  0  0 
 -1.542283e-04  -4.965431e-04  0 
 -2.530778e-04  -5.371698e-04  0 
 -1.659561e-04  -3.853877e-04  0 
 -1.048353e-04  -2.880024e-04  0 
 -1.670138e-04  -5.039855e-04  0 
 -6.748502e-05  -1.555640e-04  0 
 -4.298717e-05  -1.154799e-04  0 
 -2.899546e-04  -6.102211e-04  0 
 -2.223258e-03  -5.156451e-03  0 
 -2.294207e-03  -7.127126e-03  0 
 -3.731279e-04  -3.436663e-03  0 
 -1.157143e-03  -4.128213e-03  0 
VECTORS displacement_ITER8 FLOAT
 0  0  0 
 -1.972109e-04  -5.038438e-04  0 
 0  0  0 
 -7.082370e-04  -9.004901e-04  0 
 -1.664667e-04  -3.244760e-04  0 
 -2.146850e-04  -4.774451e-04  0 
 -3.504272e-03  -8.419787e-03  0 
 0  0  0 
 0  0  0 
 -1.531144e-04  -5.020768e-04  0 
 -2.490579e-04  -5.424798e-04  0 
 -1.683129e-04  -3.836288e-04  0 
 -1.049910e-04  -2.881897e-04  0 
 -1.679779e-04  -5.041512e-04  0 
 -6.805533e-05  -1.556161e-04  0 
 -4.373032e-05  -1.149109e-04  0 
 -2.841737e-04  -6.182269e-04  0 
 -2.603343e-03  -4.538935e-03  0 
 -2.205144e-03  -7.182065e-03  0 
 -4.034316e-04  -3.457378e-03  0 
 -1.152305e-03  -4.162956e-03  0 
VECTORS displacement_ITER9 FLOAT
 0  0  0 
 -1.984994e-04  -5.053401e-04  0 
 0  0  0 
 -7.036055e-04  -9.085735e-04  0 
 -1.669677e-04  -3.248939e-04  0 
 -2.156572e-04  -4.784222e-04  0 
 -3.528449e-03  -8.414223e-03  0 
 0  0  0 
 0  0  0 
 -1.536973e-04  -5.038210e-04  0 
 -2.475195e-04  -5.461964e-04  0 
 -1.680319e-04  -3.827132e-04  0 
 -1.051782e-04  -2.882132e-04  0 
 -1.686096e-04  -5.047950e-04  0 
 -6.789282e-05  -1.554827e-04  0 
 -4.361340e-05  -1.152298e-04  0 
 -2.833871e-04  -6.198866e-04  0 
 -2.550904e-03  -4.860479e-03  0 
 -2.158381e-03  -7.207344e-03  0 
 -4.081733e-04  -3.558569e-03  0 
 -1.151007e-03  -4.151360e-03  0 
CELL_DATA 25
TENSORS element_stresses FLOAT
 -4.729354e-01  -5.370623e-01  0 
 -5.370623e-01  9.322557e-02  0 
 0  0  0 

 -3.190790e-01  -6.120465e-01  0 
 -6.120465e-01  -9.572371e-02  0 
 0  0  0 

 3.629258e-02  3.375954e-02  0 
 3.375954e-02  -5.060334e-02  0 
 0  0  0 

 7.181513e-02  1.063627e-01  0 
 1.063627e-01  2.610176e-02  0 
 0  0  0 

 -1.007644e-01  -1.702005e-01  0 
 -1.702005e-01  1.510143e-01  0 
 0  0  0 

 -2.248633e-01  -3.360767e-01  0 
 -3.360767e-01  -4.449638e-02  0 
 0  0  0 

 -1.870269e-01  -5.358034e-01  0 
 -5.358034e-01  -1.184838e-01  0 
 0  0  0 

 -3.630553e-01  -5.820081e-01  0 
 -5.820081e-01  -1.089166e-01  0 
 0  0  0 

 -3.689223e-01  -6.822396e-01  0 
 -6.822396e-01  -1.015225e-01  0 
 0  0  0 

 -3.143258e-01  -6.330354e-01  0 
 -6.330354e-01  -6.279121e-02  0 
 0  0  0 

 -2.351746e-01  -4.184923e-01  0 
 -4.184923e-01  1.161430e-01  0 
 0  0  0 

 -2.309884e-01  -4.272016e-01  0 
 -4.272016e-01  -6.929652e-02  0 
 0  0  0 

 -3.943920e-01  -6.151784e-01  0 
 -6.151784e-01  7.067179e-02  0 
 0  0  0 

 -1.950842e-01  -7.769419e-01  0 
 -7.769419e-01  -1.145656e+00  0 
 0  0  0 

 1.580530e-01  8.171483e-02  0 
 8.171483e-02  -7.971031e-02  0 
 0  0  0 

 -4.433417e-01  -7.554897e-01  0 
 -7.554897e-01  -2.953439e-01  0 
 0  0  0 

 -8.774138e-02  -3.004097e-01  0 
 -3.004097e-01  -3.812827e-01  0 
 0  0  0 

 -1.077234e-03  -1.112540e-02  0 
 -1.112540e-02  -1.410301e-03  0 
 0  0  0 

 -3.636731e-03  -1.224870e-03  0 
 -1.224870e-03  7.280830e-03  0 
 0  0  0 

 -8.010511e-04  -1.031432e-02  0 
 -1.031432e-02  -3.674415e-04  0 
 0  0  0 

 -4.661037e-03  -1.107360e-02  0 
 -1.107360e-02  1.081170e-03  0 
 0  0  0 

 -9.646968e-03  -1.416815e-02  0 
 -1.416815e-02  1.142937e-03  0 
 0  0  0 

 -4.500954e-03  -1.271549e-02  0 
 -1.271549e-02  2.001537e-03  0 
 0  0  0 

 -5.908614e-03  -1.538294e-02  0 
 -1.538294e-02  -1.768027e-03  0 
 0  0  0 

 -7.581493e-03  -1.069421e-02  0 
 -1.069421e-02  5.289539e-03  0 
 0  0  0 

TENSORS element_stresses FLOAT
 -4.729354e-01  -5.370623e-01  0 
 -5.370623e-01  9.322557e-02  0 
 0  0  0 

 -3.190790e-01  -6.120465e-01  0 
 -6.120465e-01  -9.572371e-02  0 
 0  0  0 

 3.629258e-02  3.375954e-02  0 
 3.375954e-02  -5.060334e-02  0 
 0  0  0 

 7.181513e-02  1.063627e-01  0 
 1.063627e-01  2.610176e-02  0 
 0  0  0 

 -1.007644e-01  -1.702005e-01  0 
 -1.702005e-01  1.510143e-01  0 
 0  0  0 

 -2.248633e-01  -3.360767e-01  0 
 -3.360767e-01  -4.449638e-02  0 
 0  0  0 

 -1.870269e-01  -5.358034e-01  0 
 -5.358034e-01  -1.184838e-01  0 
 0  0  0 

 -3.630553e-01  -5.820081e-01  0 
 -5.820081e-01  -1.089166e-01  0 
 0  0  0 

 -3.689223e-01  -6.822396e-01  0 
 -6.822396e-01  -1.015225e-01  0 
 0  0  0 

 -3.143258e-01  -6.330354e-01  0 
 -6.330354e-01  -6.279121e-02  0 
 0  0  0 

 -2.351746e-01  -4.184923e-01  0 
 -4.184923e-01  1.161430e-01  0 
 0  0  0 

 -2.309884e-01  -4.272016e-01  0 
 -4.272016e-01  -6.929652e-02  0 
 0  0  0 

 -3.943920e-01  -6.151784e-01  0 
 -6.151784e-01  7.067179e-02  0 
 0  0  0 

 -1.950842e-01  -7.769419e-01  0 
 -7.769419e-01  -1.145656e+00  0 
 0  0  0 

 1.580530e-01  8.171483e-02  0 
 8.171483e-02  -7.971031e-02  0 
 0  0  0 

 -4.433417e-01  -7.554897e-01  0 
 -7.554897e-01  -2.953439e-01  0 
 0  0  0 

 -8.774138e-02  -3.004097e-01  0 
 -3.004097e-01  -3.812827e-01  0 
 0  0  0 

 -1.077234e-03  -1.112540e-02  0 
 -1.112540e-02  -1.410301e-03  0 
 0  0  0 

 -3.636731e-03  -1.224870e-03  0 
 -1.224870e-03  7.280830e-03  0 
 0  0  0 

 -8.010511e-04  -1.031432e-02  0 
 -1.031432e-02  -3.674415e-04  0 
 0  0  0 

 -4.661037e-03  -1.107360e-02  0 
 -1.107360e-02  1.081170e-03  0 
 0  0  0 

 -9.646968e-03  -1.416815e-02  0 
 -1.416815e-02  1.142937e-03  0 
 0  0  0 

 -4.500954e-03  -1.271549e-02  0 
 -1.271549e-02  2.001537e-03  0 
 0  0  0 

 -5.908614e-03  -1.538294e-02  0 
 -1.538294e-02  -1.768027e-03  0 
 0  0  0 

 -7.581493e-03  -1.069421e-02  0 
 -1.069421e-02  5.289539e-03  0 
 0  0  0 

