# vtk DataFile Version 3.1
this is an vtk file created by FEMAC
ASCII
DATASET UNSTRUCTURED_GRID
POINTS 33 FLOAT
5.000000 0.000000 0.000000
6.000000 0.000000 0.000000
6.000000 1.000000 0.000000
4.750000 0.000000 0.000000
5.250000 0.000000 0.000000
5.500000 0.000000 0.000000
5.750000 0.000000 0.000000
5.000000 0.250000 0.000000
5.000000 0.500000 0.000000
5.500000 1.000000 0.000000
5.750000 1.000000 0.000000
6.000000 0.250000 0.000000
6.000000 0.500000 0.000000
6.000000 0.750000 0.000000
6.000000 1.250000 0.000000
6.000000 1.500000 0.000000
4.828307 0.162952 0.000000
4.746177 0.372389 0.000000
5.462570 0.272476 0.000000
5.214699 0.660302 0.000000
5.787596 0.660045 0.000000
5.828307 0.162952 0.000000
5.638134 0.825570 0.000000
5.371728 0.825957 0.000000
5.502535 0.594871 0.000000
5.217467 0.400442 0.000000
5.746177 0.372389 0.000000
5.660592 0.165804 0.000000
5.835146 0.847123 0.000000
5.238340 0.153820 0.000000
5.805000 1.255000 0.000000
5.565925 1.242859 0.000000
5.717271 1.453287 0.000000
CELLS 43 172 
3 16  3  0
3 7 16  0
3 17  7  8
3 16  7 17
3 20 12 13
3 21  6  1
3 11 21  1
3 9 23 22
3 24 20 22
3 25 19  8
3 20 26 12
3 24 25 18
3 24 19 25
3 26 24 18
3 20 24 26
3 22 10  9
3 7 25  8
3 26 11 12
3 21 11 26
3 24 23 19
3 22 23 24
3 21 27  6
3 10 28  2
3 13 28 20
3 28 13  2
3 27 26 18
3 21 26 27
3 22 28 10
3 22 20 28
3 27  5  6
3 5 27 18
3 4 29  0
3 29  7  0
3 5 29  4
3 25 29 18
3 29 25  7
3 5 18 29
3 15 30 14
3 32 31 30
3 30 31 10
3 15 32 30
3 2 30 10
3 2 14 30
CELL_TYPES 43
5 5 5 5 5 5 5 5 5 5 5 5 5 5 5 5 5 5 5 5 5 5 5 5 5 5 5 5 5 5 5 5 5 5 5 5 5 5 5 5 5 5 5 
POINT_DATA 33
VECTORS displacement_ITER1 FLOAT
 -2.167017e-01  -3.272703e-01  0 
 -2.487921e-01  -4.923978e-01  0 
 -1.376726e-01  -4.214958e-01  0 
 -2.166850e-01  -2.998800e-01  0 
 -2.266569e-01  -3.656089e-01  0 
 -2.348296e-01  -4.018191e-01  0 
 -2.430709e-01  -4.428791e-01  0 
 -1.893131e-01  -3.272497e-01  0 
 -1.619437e-01  -3.272376e-01  0 
 -1.326199e-01  -3.818928e-01  0 
 -1.376590e-01  -3.941371e-01  0 
 -2.069153e-01  -4.815212e-01  0 
 -1.768754e-01  -4.633055e-01  0 
 -1.576814e-01  -4.408202e-01  0 
 -1.103247e-01  -4.214725e-01  0 
 -8.298196e-02  -4.214495e-01  0 
 -1.988408e-01  -3.084482e-01  0 
 -1.759047e-01  -2.994489e-01  0 
 -1.933534e-01  -3.890535e-01  0 
 -1.481529e-01  -3.537517e-01  0 
 -1.556904e-01  -4.221938e-01  0 
 -2.172488e-01  -4.525861e-01  0 
 -1.396813e-01  -3.968112e-01  0 
 -1.366740e-01  -3.725256e-01  0 
 -1.555235e-01  -3.892933e-01  0 
 -1.745991e-01  -3.541365e-01  0 
 -1.844101e-01  -4.305240e-01  0 
 -2.133258e-01  -4.228880e-01  0 
 -1.451623e-01  -4.122547e-01  0 
 -2.045591e-01  -3.586070e-01  0 
 -1.097696e-01  -4.001324e-01  0 
 -1.110885e-01  -3.739703e-01  0 
 -8.808165e-02  -3.905190e-01  0 
VECTORS displacement_ITER2 FLOAT
 -1.448210e-01  -2.937942e-01  0 
 -1.863475e-01  -3.772383e-01  0 
 -1.203473e-01  -3.570166e-01  0 
 -1.447980e-01  -2.912252e-01  0 
 -1.587518e-01  -3.104242e-01  0 
 -1.703754e-01  -3.259241e-01  0 
 -1.802482e-01  -3.472697e-01  0 
 -1.422476e-01  -2.937662e-01  0 
 -1.396891e-01  -2.937489e-01  0 
 -1.285273e-01  -2.926672e-01  0 
 -1.203392e-01  -2.838522e-01  0 
 -1.640820e-01  -3.671290e-01  0 
 -1.532084e-01  -3.524850e-01  0 
 -1.476415e-01  -3.411412e-01  0 
 -4.716313e-02  -3.570129e-01  0 
 2.602307e-02  -3.570022e-01  0 
 -1.431327e-01  -2.920123e-01  0 
 -1.409858e-01  -2.911617e-01  0 
 -1.511714e-01  -3.128566e-01  0 
 -1.343549e-01  -2.933259e-01  0 
 -1.440305e-01  -3.257117e-01  0 
 -1.676662e-01  -3.506935e-01  0 
 -1.303164e-01  -2.984691e-01  0 
 -1.286334e-01  -2.949053e-01  0 
 -1.374850e-01  -3.061068e-01  0 
 -1.418406e-01  -2.966353e-01  0 
 -1.519373e-01  -3.351577e-01  0 
 -1.637418e-01  -3.335841e-01  0 
 -1.409496e-01  -3.164368e-01  0 
 -1.498429e-01  -3.020123e-01  0 
 -4.569723e-02  -2.999214e-01  0 
 -4.923612e-02  -2.299145e-01  0 
 1.235738e-02  -2.742157e-01  0 
VECTORS displacement_ITER3 FLOAT
 -1.309245e-01  -1.531835e-01  0 
 -1.601272e-01  -3.387185e-01  0 
 -4.390337e-02  -2.126041e-01  0 
 -1.309100e-01  -1.209928e-01  0 
 -1.392357e-01  -1.948119e-01  0 
 -1.462557e-01  -2.351294e-01  0 
 -1.544588e-01  -2.823252e-01  0 
 -9.873211e-02  -1.531684e-01  0 
 -6.655098e-02  -1.531562e-01  0 
 -2.415590e-02  -2.242286e-01  0 
 -4.388150e-02  -2.576070e-01  0 
 -1.111749e-01  -3.278986e-01  0 
 -7.300530e-02  -3.086212e-01  0 
 -4.820771e-02  -2.782714e-01  0 
 -8.896376e-02  -2.125521e-01  0 
 -1.340466e-01  -2.125148e-01  0 
 -1.099347e-01  -1.310654e-01  0 
 -8.296918e-02  -1.204851e-01  0 
 -9.922123e-02  -2.236033e-01  0 
 -4.631873e-02  -1.874841e-01  0 
 -4.687542e-02  -2.630008e-01  0 
 -1.241212e-01  -2.942837e-01  0 
 -3.485583e-02  -2.476964e-01  0 
 -3.150015e-02  -2.119060e-01  0 
 -5.345677e-02  -2.297657e-01  0 
 -8.006163e-02  -1.851787e-01  0 
 -8.490372e-02  -2.700274e-01  0 
 -1.203644e-01  -2.600270e-01  0 
 -3.134798e-02  -2.521184e-01  0 
 -1.145721e-01  -1.883820e-01  0 
 -8.984823e-02  -2.476898e-01  0 
 -8.765836e-02  -2.907898e-01  0 
 -1.256164e-01  -2.635025e-01  0 
VECTORS displacement_ITER4 FLOAT
 -1.003534e-01  -1.585679e-01  0 
 -1.436234e-01  -2.312454e-01  0 
 -8.496114e-02  -1.860651e-01  0 
 -1.003299e-01  -1.609193e-01  0 
 -1.146542e-01  -1.703927e-01  0 
 -1.268293e-01  -1.822197e-01  0 
 -1.373980e-01  -2.020700e-01  0 
 -1.026955e-01  -1.585408e-01  0 
 -1.050455e-01  -1.585213e-01  0 
 -8.736992e-02  -1.511654e-01  0 
 -8.494839e-02  -1.533261e-01  0 
 -1.220061e-01  -2.215286e-01  0 
 -1.106822e-01  -2.075821e-01  0 
 -1.041252e-01  -1.946559e-01  0 
 -5.222965e-02  -1.860447e-01  0 
 -1.950859e-02  -1.860265e-01  0 
 -1.018699e-01  -1.601635e-01  0 
 -1.038379e-01  -1.609247e-01  0 
 -1.105678e-01  -1.697736e-01  0 
 -9.682381e-02  -1.546997e-01  0 
 -1.012897e-01  -1.815525e-01  0 
 -1.255262e-01  -2.052550e-01  0 
 -9.074639e-02  -1.609335e-01  0 
 -8.955648e-02  -1.548881e-01  0 
 -9.823127e-02  -1.652957e-01  0 
 -1.040485e-01  -1.569000e-01  0 
 -1.102566e-01  -1.900695e-01  0 
 -1.217152e-01  -1.884885e-01  0 
 -9.544201e-02  -1.724084e-01  0 
 -1.081711e-01  -1.617467e-01  0 
 -5.156776e-02  -1.605065e-01  0 
 -5.314613e-02  -1.291954e-01  0 
 -2.561565e-02  -1.490077e-01  0 
VECTORS displacement_ITER5 FLOAT
 -8.559962e-02  -9.442772e-02  0 
 -1.208210e-01  -2.167421e-01  0 
 -4.267052e-02  -1.185552e-01  0 
 -8.558329e-02  -8.081797e-02  0 
 -9.632356e-02  -1.191733e-01  0 
 -1.055396e-01  -1.434089e-01  0 
 -1.148733e-01  -1.753910e-01  0 
 -7.198660e-02  -9.440583e-02  0 
 -5.838859e-02  -9.438869e-02  0 
 -3.307856e-02  -1.243579e-01  0 
 -4.265179e-02  -1.456574e-01  0 
 -8.692556e-02  -2.064746e-01  0 
 -6.330283e-02  -1.896908e-01  0 
 -4.841850e-02  -1.669812e-01  0 
 -6.981823e-02  -1.185121e-01  0 
 -9.698820e-02  -1.184813e-01  0 
 -7.671804e-02  -8.506813e-02  0 
 -6.532093e-02  -8.059312e-02  0 
 -7.569242e-02  -1.321245e-01  0 
 -4.524861e-02  -1.089444e-01  0 
 -4.614063e-02  -1.550373e-01  0 
 -9.469075e-02  -1.825099e-01  0 
 -3.775078e-02  -1.408898e-01  0 
 -3.567825e-02  -1.208324e-01  0 
 -4.861903e-02  -1.334312e-01  0 
 -6.400042e-02  -1.084285e-01  0 
 -6.850330e-02  -1.631765e-01  0 
 -9.093482e-02  -1.579891e-01  0 
 -3.553626e-02  -1.451299e-01  0 
 -8.180895e-02  -1.119977e-01  0 
 -7.034705e-02  -1.396789e-01  0 
 -6.902472e-02  -1.656442e-01  0 
 -9.190595e-02  -1.492052e-01  0 
VECTORS displacement_ITER6 FLOAT
 -6.536409e-02  -9.128622e-02  0 
 -1.053205e-01  -1.554132e-01  0 
 -5.958903e-02  -1.008547e-01  0 
 -6.534705e-02  -9.329707e-02  0 
 -7.801949e-02  -1.014290e-01  0 
 -8.905729e-02  -1.114217e-01  0 
 -9.914777e-02  -1.288484e-01  0 
 -6.737235e-02  -9.125815e-02  0 
 -6.940268e-02  -9.123644e-02  0 
 -6.364801e-02  -8.133667e-02  0 
 -5.957580e-02  -8.395104e-02  0 
 -8.630409e-02  -1.454927e-01  0 
 -7.760157e-02  -1.309213e-01  0 
 -7.295750e-02  -1.169604e-01  0 
 -4.270199e-02  -1.008304e-01  0 
 -2.582922e-02  -1.008113e-01  0 
 -6.666279e-02  -9.265373e-02  0 
 -6.835647e-02  -9.331419e-02  0 
 -7.490128e-02  -9.999702e-02  0 
 -6.480603e-02  -8.680286e-02  0 
 -6.939069e-02  -1.065905e-01  0 
 -8.885501e-02  -1.311851e-01  0 
 -6.210668e-02  -8.902921e-02  0 
 -6.093742e-02  -8.622296e-02  0 
 -6.563858e-02  -9.456451e-02  0 
 -6.894246e-02  -8.929731e-02  0 
 -7.559897e-02  -1.165867e-01  0 
 -8.501305e-02  -1.163324e-01  0 
 -6.489303e-02  -9.734582e-02  0 
 -7.235126e-02  -9.372829e-02  0 
 -4.235587e-02  -8.765090e-02  0 
 -4.316695e-02  -7.149404e-02  0 
 -2.897623e-02  -8.171706e-02  0 
VECTORS displacement_ITER7 FLOAT
 -5.960979e-02  -5.616001e-02  0 
 -9.408622e-02  -1.448514e-01  0 
 -3.579597e-02  -7.089514e-02  0 
 -5.959912e-02  -4.857396e-02  0 
 -6.964336e-02  -7.292745e-02  0 
 -7.878548e-02  -8.937333e-02  0 
 -8.806035e-02  -1.126300e-01  0 
 -5.202563e-02  -5.613609e-02  0 
 -4.447004e-02  -5.611376e-02  0 
 -3.579927e-02  -6.225470e-02  0 
 -3.578013e-02  -7.086765e-02  0 
 -6.938624e-02  -1.345639e-01  0 
 -5.511633e-02  -1.185110e-01  0 
 -4.637872e-02  -1.001418e-01  0 
 -3.579611e-02  -7.086377e-02  0 
 -3.581269e-02  -7.084088e-02  0 
 -5.465785e-02  -5.094256e-02  0 
 -4.831543e-02  -4.845715e-02  0 
 -5.765214e-02  -7.847789e-02  0 
 -3.821202e-02  -5.963351e-02  0 
 -4.292544e-02  -8.946515e-02  0 
 -7.384872e-02  -1.167624e-01  0 
 -3.506807e-02  -7.254192e-02  0 
 -3.322800e-02  -6.394256e-02  0 
 -4.079343e-02  -7.423094e-02  0 
 -4.823577e-02  -6.210983e-02  0 
 -5.551333e-02  -1.000798e-01  0 
 -6.996440e-02  -9.838452e-02  0 
 -3.621924e-02  -7.925922e-02  0 
 -5.958153e-02  -6.631594e-02  0 
 -3.578573e-02  -7.085542e-02  0 
 -3.577883e-02  -7.085147e-02  0 
 -3.580432e-02  -7.085036e-02  0 
VECTORS displacement_ITER8 FLOAT
 -5.868785e-02  -4.708962e-02  0 
 -9.238463e-02  -1.296857e-01  0 
 -3.728541e-02  -5.991038e-02  0 
 -5.867981e-02  -4.003377e-02  0 
 -6.820823e-02  -6.233468e-02  0 
 -7.714201e-02  -7.740996e-02  0 
 -8.634877e-02  -9.911005e-02  0 
 -5.163557e-02  -4.706554e-02  0 
 -4.461636e-02  -4.704024e-02  0 
 -3.867912e-02  -4.861767e-02  0 
 -3.726958e-02  -5.342549e-02  0 
 -6.933793e-02  -1.193726e-01  0 
 -5.670858e-02  -1.033888e-01  0 
 -4.921170e-02  -8.536373e-02  0 
 -3.082359e-02  -5.988110e-02  0 
 -2.437632e-02  -5.985928e-02  0 
 -5.408291e-02  -4.223859e-02  0 
 -4.818664e-02  -3.993095e-02  0 
 -5.748905e-02  -6.666051e-02  0 
 -3.958460e-02  -4.819850e-02  0 
 -4.525257e-02  -7.517989e-02  0 
 -7.319951e-02  -1.026982e-01  0 
 -3.710632e-02  -5.744068e-02  0 
 -3.531765e-02  -5.098766e-02  0 
 -4.221167e-02  -6.107545e-02  0 
 -4.828516e-02  -5.158403e-02  0 
 -5.625339e-02  -8.645168e-02  0 
 -6.928262e-02  -8.544833e-02  0 
 -3.941274e-02  -6.431440e-02  0 
 -5.884548e-02  -5.598600e-02  0 
 -3.068465e-02  -5.483222e-02  0 
 -3.099062e-02  -4.864681e-02  0 
 -2.557543e-02  -5.255760e-02  0 
VECTORS displacement_ITER9 FLOAT
 -4.424473e-02  -3.396762e-02  0 
 -7.904052e-02  -1.169654e-01  0 
 -2.390876e-02  -4.540919e-02  0 
 -4.423666e-02  -2.784085e-02  0 
 -5.431941e-02  -4.907685e-02  0 
 -6.359967e-02  -6.405978e-02  0 
 -7.298431e-02  -8.601164e-02  0 
 -3.812250e-02  -3.394047e-02  0 
 -3.203714e-02  -3.391206e-02  0 
 -2.442011e-02  -3.748308e-02  0 
 -2.389257e-02  -4.198483e-02  0 
 -5.560072e-02  -1.067372e-01  0 
 -4.242583e-02  -9.094026e-02  0 
 -3.490129e-02  -7.267142e-02  0 
 -2.050917e-02  -4.537881e-02  0 
 -1.712441e-02  -4.535626e-02  0 
 -4.024488e-02  -2.975445e-02  0 
 -3.512994e-02  -2.775345e-02  0 
 -4.395893e-02  -5.320338e-02  0 
 -2.634081e-02  -3.530503e-02  0 
 -3.091191e-02  -6.280761e-02  0 
 -5.963408e-02  -8.973217e-02  0 
 -2.297307e-02  -4.588049e-02  0 
 -2.165447e-02  -3.869669e-02  0 
 -2.855238e-02  -4.838972e-02  0 
 -3.514347e-02  -3.814566e-02  0 
 -4.238587e-02  -7.345117e-02  0 
 -5.574811e-02  -7.217340e-02  0 
 -2.503625e-02  -5.189475e-02  0 
 -4.514221e-02  -4.245580e-02  0 
 -2.043114e-02  -4.271839e-02  0 
 -2.058879e-02  -3.946196e-02  0 
 -1.775133e-02  -4.151884e-02  0 
VECTORS displacement_ITER10 FLOAT
 -2.977386e-02  -2.400242e-02  0 
 -6.786036e-02  -1.030882e-01  0 
 -1.599245e-02  -3.411795e-02  0 
 -2.976346e-02  -2.153374e-02  0 
 -4.159474e-02  -3.794413e-02  0 
 -5.192930e-02  -5.162347e-02  0 
 -6.174899e-02  -7.275921e-02  0 
 -2.731096e-02  -2.396824e-02  0 
 -2.489058e-02  -2.393650e-02  0 
 -1.653499e-02  -2.814525e-02  0 
 -1.597710e-02  -3.186927e-02  0 
 -4.504141e-02  -9.305465e-02  0 
 -3.233359e-02  -7.784706e-02  0 
 -2.568373e-02  -6.058853e-02  0 
 -1.376893e-02  -3.408910e-02  0 
 -1.155978e-02  -3.406822e-02  0 
 -2.815624e-02  -2.229920e-02  0 
 -2.611203e-02  -2.150091e-02  0 
 -3.371313e-02  -4.041191e-02  0 
 -1.893924e-02  -2.474359e-02  0 
 -2.181161e-02  -5.105825e-02  0 
 -4.892013e-02  -7.630504e-02  0 
 -1.473323e-02  -3.540025e-02  0 
 -1.424169e-02  -2.835323e-02  0 
 -2.003405e-02  -3.676679e-02  0 
 -2.626203e-02  -2.641914e-02  0 
 -3.232339e-02  -6.044128e-02  0 
 -4.509150e-02  -5.902270e-02  0 
 -1.650306e-02  -4.090080e-02  0 
 -3.357645e-02  -3.055303e-02  0 
 -1.371500e-02  -3.234580e-02  0 
 -1.381628e-02  -3.021391e-02  0 
 -1.196801e-02  -3.156007e-02  0 
VECTORS displacement_ITER11 FLOAT
 -2.252852e-02  -2.013522e-02  0 
 -6.240295e-02  -9.488625e-02  0 
 -1.612824e-02  -2.815486e-02  0 
 -2.251730e-02  -2.021790e-02  0 
 -3.539184e-02  -3.315511e-02  0 
 -4.627915e-02  -4.564092e-02  0 
 -5.627444e-02  -6.564158e-02  0 
 -2.261953e-02  -2.009514e-02  0 
 -2.276041e-02  -2.006147e-02  0 
 -1.672988e-02  -2.449837e-02  0 
 -1.611382e-02  -2.651797e-02  0 
 -4.067663e-02  -8.492451e-02  0 
 -2.904540e-02  -6.996459e-02  0 
 -2.392645e-02  -5.325847e-02  0 
 -1.451592e-02  -2.812889e-02  0 
 -1.291646e-02  -2.811139e-02  0 
 -2.257295e-02  -2.018326e-02  0 
 -2.267391e-02  -2.022599e-02  0 
 -2.949920e-02  -3.433699e-02  0 
 -1.768938e-02  -2.060726e-02  0 
 -1.970866e-02  -4.472691e-02  0 
 -4.419676e-02  -6.886115e-02  0 
 -1.386122e-02  -3.032316e-02  0 
 -1.388833e-02  -2.423669e-02  0 
 -1.791994e-02  -3.128974e-02  0 
 -2.309242e-02  -2.145815e-02  0 
 -2.859206e-02  -5.346932e-02  0 
 -4.040424e-02  -5.224575e-02  0 
 -1.574260e-02  -3.494512e-02  0 
 -2.832181e-02  -2.536890e-02  0 
 -1.447537e-02  -2.686160e-02  0 
 -1.454774e-02  -2.531326e-02  0 
 -1.321242e-02  -2.629133e-02  0 
VECTORS displacement_ITER12 FLOAT
 -1.972516e-02  -1.445781e-02  0 
 -5.905122e-02  -8.921656e-02  0 
 -1.520809e-02  -2.218503e-02  0 
 -1.971552e-02  -1.415479e-02  0 
 -3.240560e-02  -2.778702e-02  0 
 -4.308868e-02  -4.038281e-02  0 
 -5.294663e-02  -6.021591e-02  0 
 -1.943346e-02  -1.441540e-02  0 
 -1.919828e-02  -1.438106e-02  0 
 -1.532382e-02  -2.013841e-02  0 
 -1.519384e-02  -2.064662e-02  0 
 -3.757702e-02  -7.918758e-02  0 
 -2.625276e-02  -6.404206e-02  0 
 -2.191375e-02  -4.688068e-02  0 
 -1.369344e-02  -2.216116e-02  0 
 -1.218988e-02  -2.214651e-02  0 
 -1.951909e-02  -1.424227e-02  0 
 -1.930317e-02  -1.416248e-02  0 
 -2.632482e-02  -2.921340e-02  0 
 -1.505955e-02  -1.561476e-02  0 
 -1.719051e-02  -3.918420e-02  0 
 -4.098973e-02  -6.335977e-02  0 
 -1.186289e-02  -2.522519e-02  0 
 -1.198104e-02  -1.953773e-02  0 
 -1.519516e-02  -2.612430e-02  0 
 -1.985729e-02  -1.634210e-02  0 
 -2.557575e-02  -4.801806e-02  0 
 -3.719300e-02  -4.695101e-02  0 
 -1.417177e-02  -2.908845e-02  0 
 -2.523690e-02  -2.013600e-02  0 
 -1.365581e-02  -2.096910e-02  0 
 -1.372383e-02  -1.951315e-02  0 
 -1.246936e-02  -2.043341e-02  0 
VECTORS displacement_ITER13 FLOAT
 -1.511556e-02  -1.283353e-02  0 
 -5.222719e-02  -8.548238e-02  0 
 -1.251518e-02  -1.711789e-02  0 
 -1.510947e-02  -1.125388e-02  0 
 -2.669026e-02  -2.598011e-02  0 
 -3.664261e-02  -3.831650e-02  0 
 -4.616469e-02  -5.739931e-02  0 
 -1.355039e-02  -1.279166e-02  0 
 -1.204784e-02  -1.275728e-02  0 
 -1.203689e-02  -1.713422e-02  0 
 -1.250057e-02  -1.545627e-02  0 
 -3.167723e-02  -7.530196e-02  0 
 -2.134988e-02  -5.974415e-02  0 
 -1.821713e-02  -4.166736e-02  0 
 -1.087614e-02  -1.709535e-02  0 
 -9.246604e-03  -1.708280e-02  0 
 -1.407972e-02  -1.174438e-02  0 
 -1.279901e-02  -1.125052e-02  0 
 -2.026492e-02  -2.758341e-02  0 
 -9.571218e-03  -1.386301e-02  0 
 -1.262218e-02  -3.534010e-02  0 
 -3.471821e-02  -6.023838e-02  0 
 -7.820897e-03  -2.161981e-02  0 
 -7.687160e-03  -1.720337e-02  0 
 -9.929282e-03  -2.357305e-02  0 
 -1.351679e-02  -1.516831e-02  0 
 -1.999557e-02  -4.504142e-02  0 
 -3.089006e-02  -4.455537e-02  0 
 -1.084152e-02  -2.430279e-02  0 
 -1.945429e-02  -1.890517e-02  0 
 -1.083670e-02  -1.580538e-02  0 
 -1.091073e-02  -1.422948e-02  0 
 -9.550695e-03  -1.522582e-02  0 
VECTORS displacement_ITER14 FLOAT
 -1.266204e-02  -1.018253e-02  0 
 -4.796493e-02  -8.235593e-02  0 
 -8.385998e-03  -1.234587e-02  0 
 -1.265906e-02  -7.197729e-03  0 
 -2.323368e-02  -2.325289e-02  0 
 -3.260807e-02  -3.563361e-02  0 
 -4.191823e-02  -5.454191e-02  0 
 -9.693609e-03  -1.014250e-02  0 
 -6.791075e-03  -1.010821e-02  0 
 -7.418195e-03  -1.270037e-02  0 
 -8.370664e-03  -1.066289e-02  0 
 -2.767892e-02  -7.208894e-02  0 
 -1.758240e-02  -5.631012e-02  0 
 -1.448664e-02  -3.763438e-02  0 
 -6.725637e-03  -1.232267e-02  0 
 -5.074915e-03  -1.231005e-02  0 
 -1.071249e-02  -8.131316e-03  0 
 -8.256574e-03  -7.179939e-03  0 
 -1.613920e-02  -2.517519e-02  0 
 -4.967440e-03  -1.090288e-02  0 
 -8.616341e-03  -3.161856e-02  0 
 -3.059573e-02  -5.727342e-02  0 
 -3.585580e-03  -1.759950e-02  0 
 -3.252696e-03  -1.360603e-02  0 
 -5.634756e-03  -2.031954e-02  0 
 -8.949091e-03  -1.283680e-02  0 
 -1.602459e-02  -4.201469e-02  0 
 -2.672882e-02  -4.184441e-02  0 
 -6.821115e-03  -1.991533e-02  0 
 -1.575798e-02  -1.663957e-02  0 
 -6.685641e-03  -1.101584e-02  0 
 -6.760401e-03  -9.419536e-03  0 
 -5.383307e-03  -1.042888e-02  0 
VECTORS displacement_ITER15 FLOAT
 -1.028675e-02  -1.058906e-02  0 
 -4.657734e-02  -8.097834e-02  0 
 -5.329517e-03  -1.101464e-02  0 
 -1.028348e-02  -8.786198e-03  0 
 -2.123451e-02  -2.280186e-02  0 
 -3.095395e-02  -3.455537e-02  0 
 -4.048644e-02  -5.325577e-02  0 
 -8.499850e-03  -1.054905e-02  0 
 -6.778228e-03  -1.051454e-02  0 
 -4.620363e-03  -1.084971e-02  0 
 -5.313792e-03  -1.041117e-02  0 
 -2.636704e-02  -7.082400e-02  0 
 -1.618231e-02  -5.539188e-02  0 
 -1.243577e-02  -3.735842e-02  0 
 -4.750479e-03  -1.098906e-02  0 
 -4.183466e-03  -1.097412e-02  0 
 -9.107548e-03  -9.349623e-03  0 
 -7.641382e-03  -8.786948e-03  0 
 -1.497511e-02  -2.395970e-02  0 
 -4.241277e-03  -1.039536e-02  0 
 -7.129769e-03  -3.060193e-02  0 
 -2.928769e-02  -5.595092e-02  0 
 -1.759632e-03  -1.651914e-02  0 
 -1.701569e-03  -1.247375e-02  0 
 -4.546309e-03  -1.919393e-02  0 
 -8.190128e-03  -1.212003e-02  0 
 -1.481627e-02  -4.075079e-02  0 
 -2.542418e-02  -4.051592e-02  0 
 -4.283942e-03  -1.926559e-02  0 
 -1.421111e-02  -1.597273e-02  0 
 -4.731140e-03  -1.052646e-02  0 
 -4.753154e-03  -9.965472e-03  0 
 -4.288865e-03  -1.031990e-02  0 
VECTORS displacement_ITER16 FLOAT
 -5.418988e-03  -1.147104e-02  0 
 -4.307621e-02  -7.927523e-02  0 
 -1.991860e-03  -1.000734e-02  0 
 -5.414606e-03  -1.142242e-02  0 
 -1.701347e-02  -2.274522e-02  0 
 -2.718901e-02  -3.366360e-02  0 
 -3.695058e-02  -5.190216e-02  0 
 -5.385899e-03  -1.143029e-02  0 
 -5.417415e-03  -1.139560e-02  0 
 -1.940730e-03  -1.000958e-02  0 
 -1.976143e-03  -1.058273e-02  0 
 -2.320790e-02  -6.922816e-02  0 
 -1.329255e-02  -5.410348e-02  0 
 -9.392169e-03  -3.682586e-02  0 
 -2.593090e-03  -9.980112e-03  0 
 -3.208408e-03  -9.963412e-03  0 
 -5.382725e-03  -1.143573e-02  0 
 -5.386143e-03  -1.144917e-02  0 
 -1.199998e-02  -2.293263e-02  0 
 -2.423502e-03  -1.060900e-02  0 
 -4.512851e-03  -2.965506e-02  0 
 -2.604169e-02  -5.449234e-02  0 
 7.430890e-04  -1.582693e-02  0 
 4.857771e-04  -1.223240e-02  0 
 -2.172723e-03  -1.848875e-02  0 
 -5.868709e-03  -1.180819e-02  0 
 -1.190697e-02  -3.948550e-02  0 
 -2.220034e-02  -3.921833e-02  0 
 -1.129219e-03  -1.883197e-02  0 
 -1.063283e-02  -1.560958e-02  0 
 -2.596627e-03  -1.043890e-02  0 
 -2.561219e-03  -1.100745e-02  0 
 -3.092369e-03  -1.064738e-02  0 
VECTORS displacement_ITER17 FLOAT
 -5.421967e-03  -1.053336e-02  0 
 -4.272932e-02  -7.775539e-02  0 
 -2.537605e-03  -8.201034e-03  0 
 -5.418205e-03  -1.042708e-02  0 
 -1.686579e-02  -2.172258e-02  0 
 -2.692398e-02  -3.252654e-02  0 
 -3.661900e-02  -5.058771e-02  0 
 -5.332096e-03  -1.049290e-02  0 
 -5.308068e-03  -1.045849e-02  0 
 -2.931122e-03  -8.826044e-03  0 
 -2.521817e-03  -8.947456e-03  0 
 -2.307092e-02  -6.767364e-02  0 
 -1.345675e-02  -5.241483e-02  0 
 -9.787736e-03  -3.504436e-02  0 
 -3.309814e-03  -8.173349e-03  0 
 -4.096709e-03  -8.156176e-03  0 
 -5.348845e-03  -1.045930e-02  0 
 -5.305220e-03  -1.045535e-02  0 
 -1.186876e-02  -2.190120e-02  0 
 -2.599260e-03  -9.962609e-03  0 
 -4.788994e-03  -2.808431e-02  0 
 -2.582389e-02  -5.311855e-02  0 
 2.789417e-04  -1.430001e-02  0 
 2.522039e-06  -1.148453e-02  0 
 -2.217813e-03  -1.737622e-02  0 
 -5.774913e-03  -1.096140e-02  0 
 -1.184694e-02  -3.817528e-02  0 
 -2.198831e-02  -3.800179e-02  0 
 -1.594167e-03  -1.716371e-02  0 
 -1.053168e-02  -1.467699e-02  0 
 -3.316569e-03  -8.765726e-03  0 
 -3.272640e-03  -9.497599e-03  0 
 -3.948349e-03  -9.034240e-03  0 
VECTORS displacement_ITER18 FLOAT
 -6.011056e-03  -9.949992e-03  0 
 -4.182822e-02  -7.842743e-02  0 
 -2.765033e-03  -7.902788e-03  0 
 -6.009046e-03  -8.456043e-03  0 
 -1.678358e-02  -2.177671e-02  0 
 -2.634017e-02  -3.307784e-02  0 
 -3.576697e-02  -5.126205e-02  0 
 -4.535360e-03  -9.910414e-03  0 
 -3.128173e-03  -9.876694e-03  0 
 -3.136608e-03  -9.186609e-03  0 
 -2.749144e-03  -8.111676e-03  0 
 -2.218482e-02  -6.821440e-02  0 
 -1.277835e-02  -5.252672e-02  0 
 -9.549796e-03  -3.446097e-02  0 
 -2.998661e-03  -7.875869e-03  0 
 -3.246176e-03  -7.859680e-03  0 
 -5.034958e-03  -8.924726e-03  0 
 -3.831211e-03  -8.467695e-03  0 
 -1.085312e-02  -2.270330e-02  0 
 -1.173919e-03  -1.045099e-02  0 
 -4.067296e-03  -2.810867e-02  0 
 -2.489738e-02  -5.379701e-02  0 
 7.875174e-04  -1.422966e-02  0 
 7.285554e-04  -1.215874e-02  0 
 -9.947522e-04  -1.786611e-02  0 
 -4.328788e-03  -1.147084e-02  0 
 -1.086993e-02  -3.879365e-02  0 
 -2.105443e-02  -3.876483e-02  0 
 -1.546115e-03  -1.668790e-02  0 
 -1.002017e-02  -1.507929e-02  0 
 -2.994998e-03  -8.047774e-03  0 
 -2.977062e-03  -8.263751e-03  0 
 -3.198914e-03  -8.126919e-03  0 
VECTORS displacement_ITER19 FLOAT
 -5.565040e-03  -9.215902e-03  0 
 -4.179099e-02  -7.837340e-02  0 
 -2.330707e-03  -8.471981e-03  0 
 -5.562693e-03  -7.906741e-03  0 
 -1.658890e-02  -2.127517e-02  0 
 -2.626994e-02  -3.272504e-02  0 
 -3.572849e-02  -5.105626e-02  0 
 -4.274726e-03  -9.175395e-03  0 
 -3.054185e-03  -9.141971e-03  0 
 -2.500450e-03  -8.835130e-03  0 
 -2.315065e-03  -8.364035e-03  0 
 -2.199981e-02  -6.817137e-02  0 
 -1.247190e-02  -5.252042e-02  0 
 -9.157865e-03  -3.464917e-02  0 
 -2.247413e-03  -8.445794e-03  0 
 -2.177711e-03  -8.430525e-03  0 
 -4.709339e-03  -8.317410e-03  0 
 -3.662174e-03  -7.922004e-03  0 
 -1.065998e-02  -2.227265e-02  0 
 -1.020705e-03  -1.014368e-02  0 
 -3.785324e-03  -2.810949e-02  0 
 -2.476734e-02  -5.364311e-02  0 
 1.033676e-03  -1.424094e-02  0 
 9.678206e-04  -1.195165e-02  0 
 -7.677043e-04  -1.764516e-02  0 
 -4.169580e-03  -1.090097e-02  0 
 -1.063304e-02  -3.861899e-02  0 
 -2.092885e-02  -3.849719e-02  0 
 -1.225902e-03  -1.692127e-02  0 
 -9.786650e-03  -1.446695e-02  0 
 -2.237709e-03  -8.370321e-03  0 
 -2.235335e-03  -8.283138e-03  0 
 -2.190281e-03  -8.338635e-03  0 
VECTORS displacement_ITER20 FLOAT
 -5.195627e-03  -8.082354e-03  0 
 -4.248017e-02  -7.799530e-02  0 
 -1.524389e-03  -8.792574e-03  0 
 -5.192196e-03  -7.447219e-03  0 
 -1.676101e-02  -2.021636e-02  0 
 -2.678497e-02  -3.173577e-02  0 
 -3.639625e-02  -5.033748e-02  0 
 -4.579123e-03  -8.040603e-03  0 
 -4.032303e-03  -8.007394e-03  0 
 -1.264922e-03  -7.996113e-03  0 
 -1.508886e-03  -8.671989e-03  0 
 -2.234504e-02  -6.786333e-02  0 
 -1.241173e-02  -5.242291e-02  0 
 -8.702152e-03  -3.493836e-02  0 
 -1.428877e-03  -8.766582e-03  0 
 -1.347129e-03  -8.751758e-03  0 
 -4.778572e-03  -7.645875e-03  0 
 -4.296859e-03  -7.471665e-03  0 
 -1.106886e-02  -2.108921e-02  0 
 -1.403588e-03  -9.182111e-03  0 
 -3.647550e-03  -2.791579e-02  0 
 -2.525385e-02  -5.303605e-02  0 
 1.334700e-03  -1.406837e-02  0 
 1.138686e-03  -1.108941e-02  0 
 -9.837215e-04  -1.688870e-02  0 
 -4.753577e-03  -9.580477e-03  0 
 -1.087256e-02  -3.796362e-02  0 
 -2.142616e-02  -3.761221e-02  0 
 -6.687458e-04  -1.709787e-02  0 
 -1.002571e-02  -1.313809e-02  0 
 -1.419021e-03  -8.681537e-03  0 
 -1.417386e-03  -8.582954e-03  0 
 -1.362383e-03  -8.646092e-03  0 
VECTORS displacement_ITER21 FLOAT
 -5.072354e-03  -7.157393e-03  0 
 -4.280234e-02  -7.743110e-02  0 
 -2.105040e-03  -8.820575e-03  0 
 -5.068493e-03  -6.844576e-03  0 
 -1.692591e-02  -1.947227e-02  0 
 -2.708215e-02  -3.105925e-02  0 
 -3.672012e-02  -4.971573e-02  0 
 -4.778876e-03  -7.114162e-03  0 
 -4.556346e-03  -7.081400e-03  0 
 -1.843566e-03  -7.855618e-03  0 
 -2.089860e-03  -8.550994e-03  0 
 -2.261479e-02  -6.730635e-02  0 
 -1.266810e-02  -5.188469e-02  0 
 -9.064823e-03  -3.454720e-02  0 
 -1.860385e-03  -8.795164e-03  0 
 -1.629639e-03  -8.781093e-03  0 
 -4.865105e-03  -6.941869e-03  0 
 -4.655658e-03  -6.874037e-03  0 
 -1.134471e-02  -2.035481e-02  0 
 -1.992888e-03  -8.782006e-03  0 
 -4.028499e-03  -2.752064e-02  0 
 -2.554537e-02  -5.243925e-02  0 
 7.734997e-04  -1.382627e-02  0 
 4.513286e-04  -1.087954e-02  0 
 -1.390158e-03  -1.641063e-02  0 
 -5.137910e-03  -8.801312e-03  0 
 -1.113757e-02  -3.738514e-02  0 
 -2.172661e-02  -3.696590e-02  0 
 -1.203872e-03  -1.689699e-02  0 
 -1.021188e-02  -1.227702e-02  0 
 -1.847757e-03  -8.593776e-03  0 
 -1.853406e-03  -8.352280e-03  0 
 -1.673039e-03  -8.506366e-03  0 
VECTORS displacement_ITER22 FLOAT
 -5.753334e-03  -7.502068e-03  0 
 -4.232026e-02  -7.724236e-02  0 
 -3.671255e-03  -8.101190e-03  0 
 -5.750938e-03  -6.413384e-03  0 
 -1.706273e-02  -1.994115e-02  0 
 -2.682914e-02  -3.155025e-02  0 
 -3.626766e-02  -4.991881e-02  0 
 -4.685471e-03  -7.458983e-03  0 
 -3.690683e-03  -7.426972e-03  0 
 -3.499601e-03  -8.126796e-03  0 
 -3.656094e-03  -7.680413e-03  0 
 -2.253273e-02  -6.702362e-02  0 
 -1.308318e-02  -5.133356e-02  0 
 -1.006663e-02  -3.356886e-02  0 
 -3.274727e-03  -8.075853e-03  0 
 -2.892263e-03  -8.061784e-03  0 
 -5.041294e-03  -6.754879e-03  0 
 -4.184183e-03  -6.433985e-03  0 
 -1.115642e-02  -2.106944e-02  0 
 -2.048784e-03  -9.464174e-03  0 
 -4.615325e-03  -2.717422e-02  0 
 -2.529452e-02  -5.251452e-02  0 
 -1.550237e-04  -1.357224e-02  0 
 -3.795789e-04  -1.141799e-02  0 
 -1.542336e-03  -1.670824e-02  0 
 -4.753395e-03  -9.632564e-03  0 
 -1.117756e-02  -3.751635e-02  0 
 -2.146164e-02  -3.736748e-02  0 
 -2.451560e-03  -1.618351e-02  0 
 -1.022673e-02  -1.303911e-02  0 
 -3.259063e-03  -7.756094e-03  0 
 -3.271783e-03  -7.368881e-03  0 
 -2.963759e-03  -7.615070e-03  0 
VECTORS displacement_ITER23 FLOAT
 -6.664388e-03  -7.060530e-03  0 
 -4.268678e-02  -7.776975e-02  0 
 -3.041088e-03  -8.292067e-03  0 
 -6.662697e-03  -5.254464e-03  0 
 -1.767982e-02  -1.979528e-02  0 
 -2.726976e-02  -3.170901e-02  0 
 -3.663821e-02  -5.028139e-02  0 
 -4.879522e-03  -7.017976e-03  0 
 -3.167772e-03  -6.986450e-03  0 
 -2.862630e-03  -7.765890e-03  0 
 -3.025841e-03  -7.625147e-03  0 
 -2.273421e-02  -6.752224e-02  0 
 -1.310997e-02  -5.177377e-02  0 
 -9.808862e-03  -3.390761e-02  0 
 -2.398491e-03  -8.266136e-03  0 
 -1.770724e-03  -8.251468e-03  0 
 -5.485202e-03  -5.821239e-03  0 
 -4.027354e-03  -5.265092e-03  0 
 -1.127117e-02  -2.126351e-02  0 
 -1.646191e-03  -9.209832e-03  0 
 -4.418209e-03  -2.731402e-02  0 
 -2.554118e-02  -5.291920e-02  0 
 2.457767e-04  -1.346545e-02  0 
 5.934011e-05  -1.112969e-02  0 
 -1.312315e-03  -1.666176e-02  0 
 -4.579358e-03  -9.572616e-03  0 
 -1.126697e-02  -3.781345e-02  0 
 -2.168907e-02  -3.768582e-02  0 
 -2.028902e-03  -1.627294e-02  0 
 -1.059182e-02  -1.302002e-02  0 
 -2.377647e-03  -7.754718e-03  0 
 -2.402047e-03  -7.132221e-03  0 
 -1.887678e-03  -7.527312e-03  0 
VECTORS displacement_ITER24 FLOAT
 -6.184221e-03  -7.884431e-03  0 
 -4.322140e-02  -7.712880e-02  0 
 -2.618408e-03  -8.490107e-03  0 
 -6.181539e-03  -7.124070e-03  0 
 -1.762998e-02  -2.001266e-02  0 
 -2.756431e-02  -3.143690e-02  0 
 -3.712951e-02  -4.978427e-02  0 
 -5.444059e-03  -7.841361e-03  0 
 -4.775099e-03  -7.809983e-03  0 
 -2.585855e-03  -7.116510e-03  0 
 -2.603214e-03  -8.301469e-03  0 
 -2.340199e-02  -6.698143e-02  0 
 -1.373595e-02  -5.159494e-02  0 
 -9.999380e-03  -3.441100e-02  0 
 -2.455172e-03  -8.462612e-03  0 
 -2.308803e-03  -8.446148e-03  0 
 -5.685790e-03  -7.362304e-03  0 
 -5.102885e-03  -7.148237e-03  0 
 -1.200503e-02  -2.081702e-02  0 
 -2.869883e-03  -9.121503e-03  0 
 -5.086914e-03  -2.719763e-02  0 
 -2.618481e-02  -5.236418e-02  0 
 -2.426579e-04  -1.336672e-02  0 
 -6.607559e-04  -1.060072e-02  0 
 -2.335145e-03  -1.627102e-02  0 
 -5.636213e-03  -9.480645e-03  0 
 -1.206859e-02  -3.731919e-02  0 
 -2.232563e-02  -3.716805e-02  0 
 -1.997431e-03  -1.663009e-02  0 
 -1.091393e-02  -1.301179e-02  0 
 -2.443198e-03  -8.325922e-03  0 
 -2.444049e-03  -8.162675e-03  0 
 -2.334980e-03  -8.267148e-03  0 
VECTORS displacement_ITER25 FLOAT
 -6.496586e-03  -7.559505e-03  0 
 -4.356314e-02  -7.711356e-02  0 
 -2.580847e-03  -8.415946e-03  0 
 -6.493685e-03  -6.731855e-03  0 
 -1.794815e-02  -1.975252e-02  0 
 -2.789188e-02  -3.124891e-02  0 
 -3.746710e-02  -4.968072e-02  0 
 -5.688755e-03  -7.516573e-03  0 
 -4.951035e-03  -7.485413e-03  0 
 -2.530136e-03  -7.179697e-03  0 
 -2.565619e-03  -8.208213e-03  0 
 -2.365348e-02  -6.697283e-02  0 
 -1.386126e-02  -5.161869e-02  0 
 -1.003815e-02  -3.441163e-02  0 
 -2.398514e-03  -8.388169e-03  0 
 -2.233566e-03  -8.371521e-03  0 
 -5.954074e-03  -6.990872e-03  0 
 -5.314078e-03  -6.753880e-03  0 
 -1.224699e-02  -2.060818e-02  0 