# vtk DataFile Version 3.1
this is an vtk file created by FEMAC
ASCII
DATASET UNSTRUCTURED_GRID
POINTS 20 FLOAT
2.000000 1.000000 0.000000
3.000000 1.000000 0.000000
1.666667 1.000000 0.000000
2.000000 0.333333 0.000000
2.000000 0.666667 0.000000
2.333333 1.000000 0.000000
2.666667 1.000000 0.000000
1.603416 0.689810 0.000000
1.769946 0.341745 0.000000
1.391228 0.312519 0.000000
1.817521 0.839119 0.000000
2.285399 0.534889 0.000000
2.463214 0.275245 0.000000
2.207479 0.221713 0.000000
2.687618 0.527325 0.000000
2.770442 0.799727 0.000000
2.485021 0.782546 0.000000
2.220751 0.796820 0.000000
2.472948 1.265001 0.000000
2.759097 1.220626 0.000000
CELLS 24 96 
3 7 9 8
3 8 3 4
3 4 7 8
3 10  2  7
3 10  4  0
3 4 10  7
3 2 10  0
3 13 12 11
3 11  3 13
3 3 11  4
3 12 14 11
3 6 15  1
3 5 16  6
3 14 16 11
3 4 17  0
3 17  5  0
3 16 15  6
3 14 15 16
3 5 17 16
3 17 11 16
3 11 17  4
3 6 18  5
3 19  6  1
3 19 18  6
CELL_TYPES 24
5 5 5 5 5 5 5 5 5 5 5 5 5 5 5 5 5 5 5 5 5 5 5 5 
POINT_DATA 20
VECTORS displacement_ITER1 FLOAT
 5.794489e-02  -6.433893e-02  0 
 5.711369e-02  -2.405424e-01  0 
 1.163928e-01  -5.703689e-02  0 
 -5.975358e-02  -6.471451e-02  0 
 -9.272077e-04  -6.455855e-02  0 
 5.779084e-02  -1.230556e-01  0 
 5.747558e-02  -1.819011e-01  0 
 -3.664965e-03  -1.355240e-02  0 
 -5.398315e-02  -3.139817e-02  0 
 -5.736628e-02  1.821508e-02  0 
 4.769687e-02  -6.811013e-02  0 
 -2.426402e-02  -1.149637e-01  0 
 -7.001288e-02  -1.463319e-01  0 
 -7.942909e-02  -1.012904e-01  0 
 -2.565241e-02  -1.857990e-01  0 
 2.221968e-02  -2.002839e-01  0 
 1.930522e-02  -1.500524e-01  0 
 2.196780e-02  -1.033943e-01  0 
 1.034603e-01  -1.489444e-01  0 
 9.593952e-02  -1.986556e-01  0 
VECTORS displacement_ITER2 FLOAT
 -5.479187e-03  -2.140361e-02  0 
 -6.537830e-03  -4.495571e-02  0 
 4.398919e-02  -2.257505e-02  0 
 -2.153875e-02  -2.178726e-02  0 
 -1.361290e-02  -2.173479e-02  0 
 -5.755546e-03  -2.954006e-02  0 
 -6.050952e-03  -3.735952e-02  0 
 -1.641690e-02  -1.917113e-02  0 
 -1.948266e-02  -1.903130e-02  0 
 -1.907210e-02  -1.662344e-02  0 
 2.189688e-03  -3.569965e-02  0 
 -1.675126e-02  -2.853357e-02  0 
 -2.276898e-02  -3.261604e-02  0 
 -2.409292e-02  -2.659525e-02  0 
 -1.685263e-02  -3.792157e-02  0 
 -1.059575e-02  -3.985958e-02  0 
 -1.095347e-02  -3.325401e-02  0 
 -1.055908e-02  -2.696359e-02  0 
 -6.257682e-04  -3.387737e-02  0 
 -1.387721e-03  -3.994982e-02  0 
VECTORS displacement_ITER3 FLOAT
 -7.605364e-04  7.688933e-04  0 
 -2.087173e-03  -1.030749e-02  0 
 3.312280e-03  -1.212747e-02  0 
 -8.916179e-03  3.162534e-04  0 
 -5.024801e-03  4.038777e-04  0 
 -1.148309e-03  -3.423911e-03  0 
 -1.542876e-03  -7.137113e-03  0 
 -4.408981e-03  -3.070337e-03  0 
 -6.315587e-03  -2.523292e-03  0 
 -4.678641e-03  -3.800701e-03  0 
 -1.310400e-04  -5.095904e-03  0 
 -6.575600e-03  -2.993314e-03  0 
 -9.501358e-03  -4.964476e-03  0 
 -1.015473e-02  -2.039556e-03  0 
 -6.594187e-03  -7.566271e-03  0 
 -3.618734e-03  -8.381545e-03  0 
 -3.732625e-03  -5.317093e-03  0 
 -3.504265e-03  -2.220667e-03  0 
 9.732194e-04  -5.799921e-03  0 
 4.463296e-04  -8.381891e-03  0 
VECTORS displacement_ITER4 FLOAT
 -3.555629e-04  -4.548416e-03  0 
 -1.664447e-03  -7.772306e-03  0 
 -1.383403e-04  -2.671328e-03  0 
 -3.231539e-03  -4.974353e-03  0 
 -1.992848e-03  -4.887257e-03  0 
 -7.619647e-04  -6.061853e-03  0 
 -1.151033e-03  -7.126705e-03  0 
 3.356294e-05  -6.166954e-03  0 
 -2.619185e-03  -7.166046e-03  0 
 -3.539170e-03  -3.587512e-03  0 
 -1.100817e-03  -4.535507e-03  0 
 -2.494565e-03  -6.026146e-03  0 
 -3.367711e-03  -6.600024e-03  0 
 -3.593614e-03  -5.698049e-03  0 
 -2.466058e-03  -7.401934e-03  0 
 -1.662014e-03  -7.548916e-03  0 
 -1.623895e-03  -6.752792e-03  0 
 -1.497181e-03  -5.768711e-03  0 
 -1.072451e-03  -7.539130e-03  0 
 -1.061585e-03  -7.594960e-03  0 
VECTORS displacement_ITER5 FLOAT
 -1.530927e-03  -2.041170e-03  0 
 -2.600124e-03  -8.247130e-03  0 
 -1.073877e-03  -1.661730e-03  0 
 -6.192327e-03  -2.518515e-03  0 
 -4.073595e-03  -2.385370e-03  0 
 -1.894778e-03  -4.487271e-03  0 
 -2.207983e-03  -6.551690e-03  0 
 -2.352230e-03  -4.395606e-03  0 
 -3.835494e-03  -5.832702e-03  0 
 -1.865729e-04  -8.610063e-03  0 
 -2.604974e-03  -2.750925e-03  0 
 -4.950702e-03  -4.309683e-03  0 
 -6.545918e-03  -5.399251e-03  0 
 -6.874906e-03  -3.823992e-03  0 
 -4.972394e-03  -6.821298e-03  0 
 -3.356998e-03  -7.267119e-03  0 
 -3.385291e-03  -5.590127e-03  0 
 -3.221258e-03  -3.863308e-03  0 
 -1.163582e-03  -6.833907e-03  0 
 -1.197061e-03  -7.576124e-03  0 
VECTORS displacement_ITER6 FLOAT
 -1.992919e-03  -2.431491e-03  0 
 -3.020215e-03  -7.954591e-03  0 
 -1.805789e-03  -1.691322e-03  0 
 -6.196906e-03  -2.902821e-03  0 
 -4.302612e-03  -2.783490e-03  0 
 -2.358540e-03  -4.648759e-03  0 
 -2.668738e-03  -6.483560e-03  0 
 -2.642808e-03  -5.140830e-03  0 
 -4.754150e-03  -6.023615e-03  0 
 -1.841991e-03  -6.942522e-03  0 
 -3.138521e-03  -3.067988e-03  0 
 -5.084530e-03  -4.511640e-03  0 
 -6.496402e-03  -5.478202e-03  0 
 -6.804258e-03  -4.060394e-03  0 
 -5.097712e-03  -6.738938e-03  0 
 -3.702571e-03  -7.127872e-03  0 
 -3.705019e-03  -5.649696e-03  0 
 -3.545153e-03  -4.105638e-03  0 
 -1.955004e-03  -7.424189e-03  0 
 -2.104894e-03  -8.060630e-03  0 
VECTORS displacement_ITER7 FLOAT
 -1.702511e-03  -2.310696e-03  0 
 -2.737533e-03  -7.854283e-03  0 
 -1.432873e-03  -1.679478e-03  0 
 -5.883344e-03  -2.815688e-03  0 
 -4.014707e-03  -2.675277e-03  0 
 -2.071830e-03  -4.530552e-03  0 
 -2.375179e-03  -6.376814e-03  0 
 -2.331813e-03  -4.877279e-03  0 
 -4.853460e-03  -6.111097e-03  0 
 -1.837717e-03  -7.064295e-03  0 
 -2.784313e-03  -2.963088e-03  0 
 -4.795169e-03  -4.391469e-03  0 
 -6.182563e-03  -5.337300e-03  0 
 -6.478956e-03  -3.951932e-03  0 
 -4.804760e-03  -6.594625e-03  0 
 -3.405628e-03  -7.021586e-03  0 
 -3.420145e-03  -5.528448e-03  0 
 -3.260281e-03  -3.988903e-03  0 
 -2.138596e-03  -7.847256e-03  0 
 -2.172850e-03  -8.193122e-03  0 
VECTORS displacement_ITER8 FLOAT
 -1.942282e-03  -2.593821e-03  0 
 -2.979357e-03  -7.977531e-03  0 
 -1.675931e-03  -1.999747e-03  0 
 -6.027814e-03  -3.089823e-03  0 
 -4.201887e-03  -2.956925e-03  0 
 -2.313844e-03  -4.759603e-03  0 
 -2.622046e-03  -6.545717e-03  0 
 -2.478957e-03  -4.897993e-03  0 
 -4.970853e-03  -6.110725e-03  0 
 -2.200220e-03  -6.804794e-03  0 
 -2.946119e-03  -3.183350e-03  0 
 -4.961388e-03  -4.631558e-03  0 
 -6.316183e-03  -5.554778e-03  0 
 -6.610440e-03  -4.198593e-03  0 
 -4.967989e-03  -6.772647e-03  0 
 -3.621588e-03  -7.172488e-03  0 
 -3.627136e-03  -5.735075e-03  0 
 -3.468120e-03  -4.237500e-03  0 
 -2.169459e-03  -7.985056e-03  0 
 -2.259648e-03  -8.530513e-03  0 
VECTORS displacement_ITER9 FLOAT
 -1.929548e-03  -2.676611e-03  0 
 -2.968425e-03  -8.090832e-03  0 
 -1.663271e-03  -2.066514e-03  0 
 -6.040913e-03  -3.172000e-03  0 
 -4.202965e-03  -3.039503e-03  0 
 -2.300780e-03  -4.856412e-03  0 
 -2.609307e-03  -6.657066e-03  0 
 -2.501569e-03  -4.816830e-03  0 
 -5.073465e-03  -6.210904e-03  0 
 -2.145023e-03  -7.140290e-03  0 
 -2.925889e-03  -3.228302e-03  0 
 -4.967419e-03  -4.725120e-03  0 
 -6.335210e-03  -5.656269e-03  0 
 -6.630755e-03  -4.290447e-03  0 
 -4.973379e-03  -6.883200e-03  0 
 -3.616275e-03  -7.288774e-03  0 
 -3.622980e-03  -5.838309e-03  0 
 -3.463677e-03  -4.329255e-03  0 
 -2.054454e-03  -7.996425e-03  0 
 -2.177583e-03  -8.659192e-03  0 
CELL_DATA 24
TENSORS element_stresses FLOAT
 -7.152323e-03  4.328247e-03  0 
 4.328247e-03  2.849210e-03  0 
 0  0  0 

 -4.268634e-03  1.441379e-02  0 
 1.441379e-02  -8.830993e-04  0 
 0  0  0 

 -2.276859e-03  7.954279e-03  0 
 7.954279e-03  5.642981e-03  0 
 0  0  0 

 -2.127058e-03  3.894421e-03  0 
 3.894421e-03  7.934590e-03  0 
 0  0  0 

 -2.487582e-04  6.833645e-03  0 
 6.833645e-03  1.014050e-03  0 
 0  0  0 

 -3.236977e-03  5.971439e-03  0 
 5.971439e-03  2.916328e-03  0 
 0  0  0 

 9.370684e-04  4.052942e-03  0 
 4.052942e-03  5.786326e-03  0 
 0  0  0 

 3.034552e-02  -2.157893e-02  0 
 -2.157893e-02  -5.328204e-02  0 
 0  0  0 

 3.953690e-04  -8.060540e-02  0 
 -8.060540e-02  -4.109475e-02  0 
 0  0  0 

 -1.470349e-02  -1.606118e-01  0 
 -1.606118e-01  3.930799e-01  0 
 0  0  0 

 6.432747e-02  -3.132750e-02  0 
 -3.132750e-02  -7.006571e-02  0 
 0  0  0 

 -8.788112e-01  1.295611e-01  0 
 1.295611e-01  6.618005e-01  0 
 0  0  0 

 -7.707862e-01  2.518819e-02  0 
 2.518819e-02  5.159837e-01  0 
 0  0  0 

 3.922352e-02  -7.107073e-03  0 
 -7.107073e-03  -1.558115e-01  0 
 0  0  0 

 -3.797924e-01  2.583078e-01  0 
 2.583078e-01  9.747395e-01  0 
 0  0  0 

 -8.846216e-01  -1.529344e-01  0 
 -1.529344e-01  7.635863e-01  0 
 0  0  0 

 -1.309492e-01  -1.727485e-01  0 
 -1.727485e-01  4.659433e-01  0 
 0  0  0 

 -2.905198e-01  -1.361827e-02  0 
 -1.361827e-02  -2.985979e-02  0 
 0  0  0 

 -1.310087e-01  1.546712e-01  0 
 1.546712e-01  5.136911e-01  0 
 0  0  0 

 -2.919340e-01  -2.840485e-02  0 
 -2.840485e-02  1.575197e-02  0 
 0  0  0 

 -1.447588e-02  -1.115330e-01  0 
 -1.115330e-01  5.615330e-02  0 
 0  0  0 

 -3.985162e-03  -3.065228e-03  0 
 -3.065228e-03  -1.019860e-02  0 
 0  0  0 

 -3.581505e-03  -1.456259e-03  0 
 -1.456259e-03  -8.347178e-03  0 
 0  0  0 

 -2.639669e-03  -1.145828e-03  0 
 -1.145828e-03  -8.401884e-03  0 
 0  0  0 

TENSORS element_stresses FLOAT
 -7.152323e-03  4.328247e-03  0 
 4.328247e-03  2.849210e-03  0 
 0  0  0 

 -4.268634e-03  1.441379e-02  0 
 1.441379e-02  -8.830993e-04  0 
 0  0  0 

 -2.276859e-03  7.954279e-03  0 
 7.954279e-03  5.642981e-03  0 
 0  0  0 

 -2.127058e-03  3.894421e-03  0 
 3.894421e-03  7.934590e-03  0 
 0  0  0 

 -2.487582e-04  6.833645e-03  0 
 6.833645e-03  1.014050e-03  0 
 0  0  0 

 -3.236977e-03  5.971439e-03  0 
 5.971439e-03  2.916328e-03  0 
 0  0  0 

 9.370684e-04  4.052942e-03  0 
 4.052942e-03  5.786326e-03  0 
 0  0  0 

 3.034552e-02  -2.157893e-02  0 
 -2.157893e-02  -5.328204e-02  0 
 0  0  0 

 3.953690e-04  -8.060540e-02  0 
 -8.060540e-02  -4.109475e-02  0 
 0  0  0 

 -1.470349e-02  -1.606118e-01  0 
 -1.606118e-01  3.930799e-01  0 
 0  0  0 

 6.432747e-02  -3.132750e-02  0 
 -3.132750e-02  -7.006571e-02  0 
 0  0  0 

 -8.788112e-01  1.295611e-01  0 
 1.295611e-01  6.618005e-01  0 
 0  0  0 

 -7.707862e-01  2.518819e-02  0 
 2.518819e-02  5.159837e-01  0 
 0  0  0 

 3.922352e-02  -7.107073e-03  0 
 -7.107073e-03  -1.558115e-01  0 
 0  0  0 

 -3.797924e-01  2.583078e-01  0 
 2.583078e-01  9.747395e-01  0 
 0  0  0 

 -8.846216e-01  -1.529344e-01  0 
 -1.529344e-01  7.635863e-01  0 
 0  0  0 

 -1.309492e-01  -1.727485e-01  0 
 -1.727485e-01  4.659433e-01  0 
 0  0  0 

 -2.905198e-01  -1.361827e-02  0 
 -1.361827e-02  -2.985979e-02  0 
 0  0  0 

 -1.310087e-01  1.546712e-01  0 
 1.546712e-01  5.136911e-01  0 
 0  0  0 

 -2.919340e-01  -2.840485e-02  0 
 -2.840485e-02  1.575197e-02  0 
 0  0  0 

 -1.447588e-02  -1.115330e-01  0 
 -1.115330e-01  5.615330e-02  0 
 0  0  0 

 -3.985162e-03  -3.065228e-03  0 
 -3.065228e-03  -1.019860e-02  0 
 0  0  0 

 -3.581505e-03  -1.456259e-03  0 
 -1.456259e-03  -8.347178e-03  0 
 0  0  0 

 -2.639669e-03  -1.145828e-03  0 
 -1.145828e-03  -8.401884e-03  0 
 0  0  0 

