# vtk DataFile Version 3.1
this is an vtk file created by FEMAC
ASCII
DATASET UNSTRUCTURED_GRID
POINTS 33 FLOAT
1.000000 3.000000 0.000000
1.000000 4.000000 0.000000
1.000000 3.250000 0.000000
1.000000 3.500000 0.000000
1.000000 3.750000 0.000000
1.000000 4.250000 0.000000
1.500000 3.000000 0.000000
1.250000 4.000000 0.000000
1.500000 4.000000 0.000000
0.825570 3.361866 0.000000
0.825957 3.628272 0.000000
0.847252 3.832715 0.000000
0.847123 3.164854 0.000000
1.805000 3.255000 0.000000
1.361666 3.785642 0.000000
1.171305 3.165198 0.000000
1.630982 3.182178 0.000000
1.161848 3.344773 0.000000
1.223020 3.573994 0.000000
1.460006 3.535834 0.000000
1.681647 3.425464 0.000000
1.631588 3.748141 0.000000
1.155331 3.836478 0.000000
1.384851 3.278430 0.000000
1.175045 4.338476 0.000000
1.500000 4.775000 0.000000
1.341824 4.175618 0.000000
1.613228 4.205045 0.000000
1.200764 4.609959 0.000000
1.396983 4.637131 0.000000
1.561048 4.603297 0.000000
1.418444 4.423893 0.000000
1.153374 4.152819 0.000000
CELLS 42 168 
3 3 10  9
3 9 2 3
3 4 10  3
3 11  4  1
3 2 12  0
3 11 10  4
3 9 12  2
3 14  8  7
3 2 17  3
3 18  4  3
3 20 16 13
3 18 19 14
3 15 17  2
3 0 15  2
3 4 22  1
3 7 22 14
3 22  7  1
3 18 22  4
3 18 14 22
3 3 17 18
3 20 21 19
3 16 23  6
3 23 17 15
3 18 17 23
3 23 16 20
3 20 19 23
3 23 19 18
3 14 21  8
3 14 19 21
3 26  7  8
3 26 31 24
3 25 29 30
3 24 31 28
3 29 28 31
3 32  5  1
3 7 32  1
3 5 32 24
3 26 32  7
3 26 24 32
3 30 29 31
3 26  8 27
3 26 27 31
CELL_TYPES 42
5 5 5 5 5 5 5 5 5 5 5 5 5 5 5 5 5 5 5 5 5 5 5 5 5 5 5 5 5 5 5 5 5 5 5 5 5 5 5 5 5 5 
POINT_DATA 33
VECTORS displacement_ITER1 FLOAT
 -5.243465e-03  -8.846162e-03  0 
 1.365191e-02  -8.992415e-03  0 
 -4.673786e-04  -8.893088e-03  0 
 4.276585e-03  -8.940635e-03  0 
 8.981178e-03  -8.970658e-03  0 
 -7.322998e-03  -1.310992e-02  0 
 -5.118527e-03  -1.843844e-02  0 
 1.367070e-02  -1.367847e-02  0 
 1.368139e-02  -1.837870e-02  0 
 -6.066267e-04  4.376621e-03  0 
 4.821138e-03  3.831625e-04  0 
 8.327661e-03  -1.187775e-03  0 
 -3.525511e-03  1.934589e-03  0 
 -3.362711e-04  -2.420353e-02  0 
 9.657793e-03  -1.577774e-02  0 
 -2.072140e-03  -1.215800e-02  0 
 -1.711254e-03  -2.089033e-02  0 
 1.347094e-03  -1.199469e-02  0 
 5.681710e-03  -1.316378e-02  0 
 4.960348e-03  -1.764780e-02  0 
 2.878367e-03  -2.184677e-02  0 
 8.950841e-03  -2.087180e-02  0 
 1.060590e-02  -1.189379e-02  0 
 1.000659e-04  -1.623556e-02  0 
 -7.091256e-03  -1.317832e-02  0 
 6.139365e-02  -8.536853e-02  0 
 7.039941e-03  -1.465894e-02  0 
 1.667887e-02  -2.708994e-02  0 
 -9.431451e-03  -6.765770e-03  0 
 1.490698e-02  -4.148039e-02  0 
 2.206619e-02  -7.403362e-02  0 
 -5.417982e-03  -2.334256e-02  0 
 4.539632e-03  -1.062712e-02  0 
VECTORS displacement_ITER2 FLOAT
 1.873422e-02  -2.546216e-02  0 
 1.286407e-02  -2.557751e-02  0 
 1.729805e-02  -2.549939e-02  0 
 1.585432e-02  -2.554595e-02  0 
 1.437489e-02  -2.557098e-02  0 
 -5.864756e-03  -1.905928e-02  0 
 1.885348e-02  -2.266845e-02  0 
 1.288440e-02  -2.409610e-02  0 
 1.289764e-02  -2.262504e-02  0 
 1.426784e-02  -1.856983e-02  0 
 1.319403e-02  -2.184795e-02  0 
 1.145121e-02  -2.290054e-02  0 
 1.645117e-02  -1.995261e-02  0 
 1.731746e-02  -2.087974e-02  0 
 1.416786e-02  -2.343521e-02  0 
 1.779504e-02  -2.451444e-02  0 
 1.774338e-02  -2.187330e-02  0 
 1.676788e-02  -2.459235e-02  0 
 1.542822e-02  -2.424987e-02  0 
 1.565302e-02  -2.286970e-02  0 
 1.630574e-02  -2.158173e-02  0 
 1.439222e-02  -2.185530e-02  0 
 1.385835e-02  -2.464943e-02  0 
 1.716634e-02  -2.331504e-02  0 
 -5.644424e-03  -2.065541e-02  0 
 8.911431e-02  -1.043763e-01  0 
 4.874302e-03  -2.395794e-02  0 
 1.803840e-02  -3.842661e-02  0 
 6.527475e-03  -1.160255e-02  0 
 3.290730e-02  -5.497110e-02  0 
 3.799336e-02  -9.767451e-02  0 
 -6.376427e-04  -3.781834e-02  0 
 2.701856e-03  -2.100930e-02  0 
VECTORS displacement_ITER3 FLOAT
 1.393109e-03  -1.454582e-02  0 
 2.412212e-02  -1.467615e-02  0 
 7.118744e-03  -1.458569e-02  0 
 1.283667e-02  -1.464056e-02  0 
 1.850782e-02  -1.467161e-02  0 
 1.054808e-02  -3.758888e-03  0 
 1.498059e-03  -2.609242e-02  0 
 2.415564e-02  -2.033756e-02  0 
 2.416979e-02  -2.600653e-02  0 
 6.741128e-03  -4.240809e-03  0 
 1.361808e-02  -7.060825e-03  0 
 1.748583e-02  -8.848457e-03  0 
 3.651852e-03  -5.700539e-03  0 
 7.276799e-03  -3.304709e-02  0 
 1.931858e-02  -2.287164e-02  0 
 5.186852e-03  -1.850634e-02  0 
 5.618918e-03  -2.905180e-02  0 
 9.306686e-03  -1.831726e-02  0 
 1.453028e-02  -1.972571e-02  0 
 1.366195e-02  -2.513071e-02  0 
 1.115254e-02  -3.020027e-02  0 
 1.846972e-02  -2.901556e-02  0 
 2.045861e-02  -1.818368e-02  0 
 7.806375e-03  -2.342977e-02  0 
 8.757546e-03  -1.309402e-02  0 
 3.806810e-02  -4.196610e-02  0 
 1.841699e-02  -1.773594e-02  0 
 2.150368e-02  -2.537180e-02  0 
 -5.688515e-03  -4.684367e-03  0 
 1.056396e-02  -2.084068e-02  0 
 1.587385e-02  -3.699283e-02  0 
 5.852338e-03  -1.323388e-02  0 
 1.634045e-02  -1.329781e-02  0 
VECTORS displacement_ITER4 FLOAT
 -2.753795e-03  -1.375794e-02  0 
 1.928691e-02  -1.387540e-02  0 
 2.792274e-03  -1.378933e-02  0 
 8.348926e-03  -1.384766e-02  0 
 1.385445e-02  -1.388150e-02  0 
 7.130328e-03  2.595282e-03  0 
 -2.683843e-03  -2.497997e-02  0 
 1.933140e-02  -1.937862e-02  0 
 1.934932e-02  -2.488455e-02  0 
 2.467034e-03  -6.079190e-03  0 
 9.112915e-03  -7.992776e-03  0 
 1.263680e-02  -9.733588e-03  0 
 -3.325066e-04  -6.935273e-03  0 
 2.946086e-03  -3.175249e-02  0 
 1.464001e-02  -2.183898e-02  0 
 9.166710e-04  -1.759055e-02  0 
 1.336092e-03  -2.786542e-02  0 
 4.921029e-03  -1.741463e-02  0 
 9.995661e-03  -1.878559e-02  0 
 9.154162e-03  -2.403703e-02  0 
 6.716844e-03  -2.897161e-02  0 
 1.381943e-02  -2.780725e-02  0 
 1.574240e-02  -1.728336e-02  0 
 3.466445e-03  -2.238355e-02  0 
 6.975046e-03  -9.917774e-03  0 
 3.362174e-02  -2.732606e-02  0 
 1.386424e-02  -1.596396e-02  0 
 1.578798e-02  -2.338771e-02  0 
 -4.704599e-03  -3.295376e-05  0 
 9.150250e-03  -1.261222e-02  0 
 1.280785e-02  -2.672110e-02  0 
 4.313503e-03  -9.277918e-03  0 
 1.152614e-02  -1.071368e-02  0 
VECTORS displacement_ITER5 FLOAT
 1.269103e-02  -1.284635e-02  0 
 -8.052311e-04  -1.290704e-02  0 
 9.332655e-03  -1.286618e-02  0 
 6.009389e-03  -1.291905e-02  0 
 2.639927e-03  -1.294328e-02  0 
 -1.455827e-02  1.183843e-02  0 
 1.272364e-02  -6.301331e-03  0 
 -7.518787e-04  -9.570628e-03  0 
 -7.268077e-04  -6.225098e-03  0 
 5.685210e-03  -1.400682e-02  0 
 2.577873e-03  -1.485447e-02  0 
 -1.222850e-03  -1.562855e-02  0 
 9.779125e-03  -1.360241e-02  0 
 9.307989e-03  -2.254264e-03  0 
 2.155613e-03  -8.069726e-03  0 
 1.047107e-02  -1.057254e-02  0 
 1.028354e-02  -4.542766e-03  0 
 8.094436e-03  -1.073799e-02  0 
 5.026471e-03  -9.936416e-03  0 
 5.541854e-03  -6.776534e-03  0 
 7.025207e-03  -3.847343e-03  0 
 2.672204e-03  -4.465157e-03  0 
 1.451828e-03  -1.082525e-02  0 
 8.997909e-03  -7.788644e-03  0 
 -9.917706e-03  1.011598e-03  0 
 7.259968e-02  -4.568236e-02  0 
 -7.872882e-03  -6.296729e-03  0 
 2.154571e-03  -1.889979e-02  0 
 9.604685e-03  1.426461e-02  0 
 2.793466e-02  -1.715348e-02  0 
 2.812825e-02  -5.170287e-02  0 
 -4.384979e-03  -1.319285e-02  0 
 -1.079668e-02  -1.764754e-03  0 
VECTORS displacement_ITER6 FLOAT
 3.937047e-04  -4.801339e-03  0 
 1.494693e-02  -4.870540e-03  0 
 4.058378e-03  -4.821944e-03  0 
 7.758876e-03  -4.878219e-03  0 
 1.140509e-02  -4.907105e-03  0 
 6.714397e-04  9.403283e-03  0 
 3.985710e-04  -1.231894e-02  0 
 1.502122e-02  -8.546965e-03  0 
 1.505296e-02  -1.220932e-02  0 
 3.788314e-03  -2.637392e-03  0 
 8.101401e-03  -2.905594e-03  0 
 9.993739e-03  -4.181844e-03  0 
 2.321179e-03  -2.490225e-03  0 
 4.160172e-03  -1.685278e-02  0 
 1.192015e-02  -1.017578e-02  0 
 2.813985e-03  -7.339460e-03  0 
 3.091769e-03  -1.424432e-02  0 
 5.483819e-03  -7.240770e-03  0 
 8.854231e-03  -8.155077e-03  0 
 8.296104e-03  -1.165282e-02  0 
 6.674861e-03  -1.496247e-02  0 
 1.138440e-02  -1.415305e-02  0 
 1.263743e-02  -7.138817e-03  0 
 4.522662e-03  -1.055890e-02  0 
 6.501875e-03  -2.340519e-03  0 
 2.578007e-02  -3.550868e-03  0 
 1.118944e-02  -5.454331e-03  0 
 1.428016e-02  -1.165727e-02  0 
 9.697135e-04  4.099128e-03  0 
 9.913265e-03  1.784522e-04  0 
 1.187341e-02  -6.687615e-03  0 
 7.045956e-03  -6.476630e-04  0 
 7.267272e-03  -5.202209e-04  0 
VECTORS displacement_ITER7 FLOAT
 -1.723594e-03  -1.971185e-03  0 
 2.203411e-02  -2.035401e-03  0 
 4.238354e-03  -1.982943e-03  0 
 1.025099e-02  -2.037814e-03  0 
 1.620668e-02  -2.071617e-03  0 
 4.966014e-03  1.194619e-03  0 
 -1.763673e-03  -1.411075e-02  0 
 2.212866e-02  -8.022232e-03  0 
 2.216920e-02  -1.399076e-02  0 
 5.648446e-03  -6.020736e-04  0 
 1.210898e-02  7.484306e-05  0 
 1.581358e-02  -1.226128e-03  0 
 2.248948e-03  -2.160485e-04  0 
 4.373429e-03  -2.148351e-02  0 
 1.705214e-02  -1.067589e-02  0 
 2.210096e-03  -6.077835e-03  0 
 2.631730e-03  -1.725600e-02  0 
 6.539715e-03  -5.894234e-03  0 
 1.203182e-02  -7.374292e-03  0 
 1.112122e-02  -1.306500e-02  0 
 8.475857e-03  -1.843580e-02  0 
 1.617336e-02  -1.715131e-02  0 
 1.823306e-02  -5.730823e-03  0 
 4.964182e-03  -1.127492e-02  0 
 1.268031e-02  -7.737459e-03  0 
 1.668247e-03  1.287079e-02  0 
 1.977173e-02  -5.939145e-03  0 
 2.019269e-02  -8.502338e-03  0 
 -3.521799e-03  -7.257819e-03  0 
 5.084090e-04  4.094988e-03  0 
 3.489162e-03  1.174439e-02  0 
 1.215970e-02  2.019234e-03  0 
 1.514025e-02  -1.907163e-03  0 
VECTORS displacement_ITER8 FLOAT
 4.552963e-03  -1.021029e-03  0 
 -1.541728e-03  -1.032912e-03  0 
 3.041437e-03  -1.025743e-03  0 
 1.590389e-03  -1.071178e-03  0 
 8.898824e-05  -1.094667e-03  0 
 -1.904692e-02  5.447092e-03  0 
 4.477000e-03  1.767414e-03  0 
 -1.437199e-03  4.023194e-04  0 
 -1.388855e-03  1.868408e-03  0 
 1.976786e-03  -6.277036e-03  0 
 7.336048e-05  -4.937690e-03  0 
 -2.232381e-03  -5.342328e-03  0 
 4.143472e-03  -5.107653e-03  0 
 3.015040e-03  3.484827e-03  0 
 -1.317514e-04  1.078844e-03  0 
 3.544800e-03  -2.727448e-06  0 
 3.446052e-03  2.524905e-03  0 
 2.510434e-03  -1.003636e-04  0 
 1.160188e-03  2.481570e-04  0 
 1.389152e-03  1.624210e-03  0 
 2.036276e-03  2.859840e-03  0 
 1.139328e-04  2.645227e-03  0 
 -4.687403e-04  -1.171928e-04  0 
 2.913530e-03  1.174288e-03  0 
 -7.596831e-03  4.554919e-04  0 
 4.056316e-02  -1.647291e-02  0 
 -4.766820e-03  1.079607e-03  0 
 3.878827e-03  -8.204427e-03  0 
 7.425756e-03  3.093420e-03  0 
 1.711439e-02  -7.248982e-03  0 
 1.727618e-02  -2.203117e-02  0 
 2.090948e-04  -6.216968e-03  0 
 -9.461524e-03  4.572013e-03  0 
VECTORS displacement_ITER9 FLOAT
 -8.052011e-03  5.317456e-03  0 
 2.102983e-02  5.276832e-03  0 
 -7.591872e-04  5.312921e-03  0 
 6.594160e-03  5.263104e-03  0 
 1.389035e-02  5.228699e-03  0 
 7.510128e-03  -1.964850e-03  0 
 -8.154692e-03  -9.507480e-03  0 
 2.115618e-02  -2.074102e-03  0 
 2.121107e-02  -9.392425e-03  0 
 2.637550e-03  5.460057e-03  0 
 9.842312e-03  7.113870e-03  0 
 1.476770e-02  6.080907e-03  0 
 -2.324179e-03  5.928561e-03  0 
 -6.210890e-04  -1.854811e-02  0 
 1.492737e-02  -5.317476e-03  0 
 -3.242773e-03  3.045475e-04  0 
 -2.752783e-03  -1.337385e-02  0 
 2.048172e-03  5.385923e-04  0 
 8.771431e-03  -1.268098e-03  0 
 7.656800e-03  -8.236486e-03  0 
 4.413826e-03  -1.481502e-02  0 
 1.385476e-02  -1.325226e-02  0 
 1.637271e-02  7.455598e-04  0 
 1.142483e-04  -6.039239e-03  0 
 1.522560e-02  -9.489656e-03  0 
 -1.654158e-02  1.390711e-02  0 
 2.204328e-02  -3.350134e-03  0 
 2.250233e-02  -6.778018e-03  0 
 -6.178459e-03  -2.031864e-02  0 
 -5.790455e-03  1.360774e-04  0 
 -1.303200e-03  1.769573e-02  0 
 1.614937e-02  9.122327e-04  0 
 1.733637e-02  2.408823e-04  0 
VECTORS displacement_ITER10 FLOAT
 1.522439e-03  6.848010e-03  0 
 -4.301888e-03  6.855790e-03  0 
 8.049781e-05  6.846888e-03  0 
 -1.296846e-03  6.806721e-03  0 
 -2.722905e-03  6.783020e-03  0 
 -1.389880e-02  7.383648e-03  0 
 1.390139e-03  9.487034e-03  0 
 -4.167030e-03  8.188909e-03  0 
 -4.105089e-03  9.567683e-03  0 
 3.439484e-04  4.881218e-04  0 
 -2.116219e-03  2.436840e-03  0 
 -4.155828e-03  2.387868e-03  0 
 1.897554e-03  1.623300e-03  0 
 3.392842e-05  1.108136e-02  0 
 -2.931277e-03  8.841373e-03  0 
 5.581884e-04  7.821968e-03  0 
 4.434859e-04  1.018342e-02  0 
 -4.251585e-04  7.728395e-03  0 
 -1.705397e-03  8.059538e-03  0 
 -1.486350e-03  9.358000e-03  0 
 -8.765673e-04  1.051145e-02  0 
 -2.688549e-03  1.031481e-02  0 
 -3.260797e-03  7.720068e-03  0 
 -4.449871e-05  8.936915e-03  0 
 -6.039213e-03  1.415054e-03  0 
 2.558757e-02  -2.451574e-02  0 
 -4.489746e-03  5.085382e-03  0 
 4.995465e-03  -6.375724e-03  0 
 4.008809e-03  -8.444226e-03  0 
 1.154413e-02  -1.451502e-02  0 
 1.368998e-02  -2.323654e-02  0 
 3.010627e-03  -8.174643e-03  0 
 -8.339228e-03  7.966760e-03  0 
VECTORS displacement_ITER11 FLOAT
 -8.720340e-03  8.241272e-03  0 
 1.711486e-02  8.222035e-03  0 
 -2.232209e-03  8.235008e-03  0 
 4.309465e-03  8.193039e-03  0 
 1.079814e-02  8.162580e-03  0 
 1.345332e-02  -8.452836e-04  0 
 -8.861645e-03  -4.961994e-03  0 
 1.726479e-02  1.652534e-03  0 
 1.732944e-02  -4.871051e-03  0 
 1.736007e-03  7.877912e-03  0 
 7.633260e-03  9.662443e-03  0 
 1.214759e-02  8.975371e-03  0 
 -3.083837e-03  8.179063e-03  0 
 -2.129654e-03  -1.304003e-02  0 
 1.172085e-02  -1.224075e-03  0 
 -4.442003e-03  3.779813e-03  0 
 -4.025654e-03  -8.423440e-03  0 
 2.638029e-04  3.988896e-03  0 
 6.245351e-03  2.383677e-03  0 
 5.254833e-03  -3.824538e-03  0 
 2.365745e-03  -9.697179e-03  0 
 1.077582e-02  -8.298539e-03  0 
 1.299670e-02  4.185023e-03  0 
 -1.459275e-03  -1.865779e-03  0 
 1.572673e-02  -8.426018e-03  0 
 -2.643923e-02  6.763390e-03  0 
 2.048154e-02  -1.849818e-03  0 
 2.122591e-02  -6.535781e-03  0 
 -7.739593e-03  -2.589065e-02  0 
 -9.211764e-03  -5.262135e-03  0 
 -4.109383e-03  1.441440e-02  0 
 1.666857e-02  -1.553454e-03  0 
 1.748684e-02  6.410170e-04  0 
VECTORS displacement_ITER12 FLOAT
 -1.072726e-03  5.703234e-03  0 
 -3.496956e-03  5.725042e-03  0 
 -1.650309e-03  5.695631e-03  0 
 -2.181170e-03  5.663278e-03  0 
 -2.757204e-03  5.645091e-03  0 
 -3.692460e-03  5.028080e-03  0 
 -1.224105e-03  6.646242e-03  0 
 -3.346531e-03  6.193012e-03  0 
 -3.280840e-03  6.715803e-03  0 
 -6.379964e-04  8.790916e-04  0 
 -2.326753e-03  2.559569e-03  0 
 -3.439245e-03  2.583747e-03  0 
 -7.605520e-05  1.630729e-03  0 
 -1.696536e-03  7.186888e-03  0 
 -2.844908e-03  6.467422e-03  0 
 -1.462184e-03  6.082633e-03  0 
 -1.533535e-03  6.881484e-03  0 
 -1.838755e-03  6.030208e-03  0 
 -2.341064e-03  6.159425e-03  0 
 -2.252499e-03  6.647273e-03  0 
 -2.020538e-03  7.039641e-03  0 
 -2.727425e-03  7.013713e-03  0 
 -3.004149e-03  6.056743e-03  0 
 -1.688225e-03  6.482573e-03  0 
 -1.680424e-03  1.499584e-03  0 
 9.441742e-03  -1.195660e-02  0 
 -1.685147e-03  3.594928e-03  0 
 4.271538e-03  -4.919986e-03  0 
 2.401241e-03  -7.088949e-03  0 
 5.641929e-03  -8.482475e-03  0 
 6.888035e-03  -1.119041e-02  0 
 3.869306e-03  -5.096135e-03  0 
 -3.293508e-03  4.866487e-03  0 
VECTORS displacement_ITER13 FLOAT
 -3.543774e-03  5.894886e-03  0 
 3.510013e-03  5.902110e-03  0 
 -1.737334e-03  5.880195e-03  0 
 1.004230e-04  5.848237e-03  0 
 1.891628e-03  5.828308e-03  0 
 4.710245e-03  6.515514e-04  0 
 -3.696375e-03  2.096501e-03  0 
 3.667335e-03  4.009061e-03  0 
 3.733540e-03  2.170315e-03  0 
 9.997784e-05  3.614374e-03  0 
 1.121872e-03  4.943183e-03  0 
 2.046542e-03  4.750441e-03  0 
 -1.234557e-03  4.016481e-03  0 
 -1.743318e-03  -2.624553e-04  0 
 2.142388e-03  3.227602e-03  0 
 -2.354078e-03  4.637855e-03  0 
 -2.269535e-03  1.081419e-03  0 
 -1.028750e-03  4.680165e-03  0 
 6.414619e-04  4.232138e-03  0 
 3.678162e-04  2.473406e-03  0 
 -4.476487e-04  7.620173e-04  0 
 1.904265e-03  1.215903e-03  0 
 2.462913e-03  4.770458e-03  0 
 -1.509332e-03  3.020395e-03  0 
 4.384488e-03  -1.719265e-06  0 
 -9.085577e-03  6.718827e-03  0 
 5.907006e-03  2.504917e-03  0 
 7.401623e-03  -1.134517e-03  0 
 -2.034917e-03  -6.627028e-03  0 
 -2.593899e-03  9.398066e-04  0 
 -1.355187e-03  7.451960e-03  0 
 5.827913e-03  1.195881e-03  0 
 5.186528e-03  2.633827e-03  0 
VECTORS displacement_ITER14 FLOAT
 -1.768145e-03  3.340479e-03  0 
 5.664929e-04  3.344806e-03  0 
 -1.131351e-03  3.320047e-03  0 
 -4.774294e-04  3.292405e-03  0 
 1.325250e-04  3.273753e-03  0 
 7.243699e-04  -3.791770e-03  0 
 -1.919306e-03  1.908238e-03  0 
 7.284696e-04  2.632711e-03  0 
 7.971905e-04  1.973565e-03  0 
 3.494071e-05  1.291921e-03  0 
 -4.103157e-05  2.237924e-03  0 
 8.119578e-05  2.176669e-03  0 
 -4.743444e-04  1.589211e-03  0 
 -1.167394e-03  9.857605e-04  0 
 2.160024e-04  2.380082e-03  0 
 -1.347935e-03  2.882415e-03  0 
 -1.349897e-03  1.507840e-03  0 
 -8.738324e-04  2.886748e-03  0 
 -2.869771e-04  2.730889e-03  0 
 -3.803698e-04  2.090839e-03  0 
 -6.749638e-04  1.425634e-03  0 
 1.564729e-04  1.640640e-03  0 
 2.954214e-04  2.949494e-03  0 
 -1.043807e-03  2.283874e-03  0 
 5.369932e-04  -9.659624e-04  0 
 -1.048763e-03  -9.683110e-04  0 
 2.218046e-03  1.291026e-03  0 
 4.113360e-03  -1.371950e-03  0 
 -3.211810e-04  -4.609519e-03  0 
 2.741956e-04  -2.339830e-03  0 
 8.368212e-04  -9.463200e-04  0 
 2.358357e-03  -1.516251e-03  0 
 1.948222e-03  6.866292e-04  0 
VECTORS displacement_ITER15 FLOAT
 -1.272104e-03  4.056538e-03  0 
 1.841648e-03  4.052927e-03  0 
 -4.319985e-04  4.031962e-03  0 
 4.140438e-04  4.007823e-03  0 
 1.218091e-03  3.988230e-03  0 
 1.243178e-03  -3.684609e-03  0 
 -1.427286e-03  2.238999e-03  0 
 2.007685e-03  3.151716e-03  0 
 2.078670e-03  2.299781e-03  0 
 6.470102e-04  3.100939e-03  0 
 9.525132e-04  3.690476e-03  0 
 1.376925e-03  3.630420e-03  0 
 -9.280005e-05  3.205941e-03  0 
 -4.713343e-04  1.071538e-03  0 
 1.330879e-03  2.814045e-03  0 
 -7.148093e-04  3.457520e-03  0 
 -7.104307e-04  1.730379e-03  0 
 -1.036524e-04  3.474923e-03  0 
 6.619061e-04  3.273520e-03  0 
 5.391139e-04  2.448668e-03  0 
 1.577256e-04  1.608919e-03  0 
 1.243302e-03  1.863503e-03  0 
 1.448653e-03  3.543097e-03  0 
 -3.277152e-04  2.702164e-03  0 
 1.040833e-03  -9.578832e-04  0 
 -2.032394e-03  -2.974871e-03  0 
 3.154533e-03  1.694918e-03  0 
 4.435921e-03  4.138199e-04  0 
 -1.413725e-03  -5.113948e-03  0 
 -6.681177e-04  -2.983029e-03  0 
 4.790277e-04  -1.113307e-03  0 
 2.238889e-03  -7.969621e-04  0 
 2.882931e-03  1.080270e-03  0 
VECTORS displacement_ITER16 FLOAT
 -1.173486e-03  1.996006e-03  0 
 5.100111e-04  2.000793e-03  0 
 -6.880824e-04  1.971461e-03  0 
 -2.033746e-04  1.954466e-03  0 
 2.436830e-04  1.937642e-03  0 
 6.247225e-04  -2.209919e-03  0 
 -1.336098e-03  9.032746e-04  0 
 6.766864e-04  1.458364e-03  0 
 7.486592e-04  9.621953e-04  0 
 1.084011e-04  1.278133e-03  0 
 1.416633e-04  1.688689e-03  0 
 3.446212e-04  1.665306e-03  0 
 -3.753490e-04  1.331957e-03  0 
 -7.426157e-04  1.683428e-04  0 
 3.057870e-04  1.279306e-03  0 
 -8.494824e-04  1.640687e-03  0 
 -8.776561e-04  5.796283e-04  0 
 -4.996729e-04  1.650881e-03  0 
 -6.243689e-05  1.540525e-03  0 
 -1.307107e-04  1.054124e-03  0 
 -3.550780e-04  5.299170e-04  0 
 2.722759e-04  7.126808e-04  0 
 3.512204e-04  1.714088e-03  0 
 -6.315766e-04  1.201053e-03  0 
 6.361593e-04  -9.244530e-04  0 
 2.884559e-04  -3.569420e-03  0 
 1.613974e-03  5.106203e-04  0 
 2.705902e-03  -4.822359e-04  0 
 -1.420410e-04  -3.733490e-03  0 
 5.826075e-04  -3.070857e-03  0 
 1.338138e-03  -2.354006e-03  0 
 1.664611e-03  -1.414435e-03  0 
 1.359266e-03  2.781746e-04  0 
VECTORS displacement_ITER17 FLOAT
 -1.015401e-03  4.563825e-04  0 
 -1.713977e-04  4.684109e-04  0 
 -7.376216e-04  4.320103e-04  0 
 -4.658031e-04  4.210421e-04  0 
 -2.281738e-04  4.066549e-04  0 
 5.488026e-04  5.178755e-05  0 
 -1.185743e-03  -2.091583e-04  0 
 -4.947598e-06  1.381855e-04  0 
 6.740489e-05  -1.485964e-04  0 
 -2.148710e-04  -7.531230e-05  0 
 -2.807823e-04  1.998486e-04  0 
 -2.212399e-04  1.742360e-04  0 
 -5.051899e-04  -3.566596e-05  0 
 -8.036254e-04  -6.920989e-04  0 
 -1.959569e-04  5.146531e-05  0 
 -8.277329e-04  2.438825e-04  0 
 -8.774205e-04  -4.254556e-04  0 
 -6.323550e-04  2.514410e-04  0 
 -3.878577e-04  1.956045e-04  0 
 -4.243393e-04  -9.230118e-05  0 
 -5.571371e-04  -4.323910e-04  0 
 -1.981487e-04  -2.900087e-04  0 
 -1.926982e-04  3.132156e-04  0 
 -7.109140e-04  -8.173612e-06  0 
 5.656870e-04  -1.380174e-04  0 
 -2.132257e-04  3.268829e-04  0 
 5.891548e-04  -4.090444e-07  0 
 1.009002e-03  -2.785107e-04  0 
 3.360494e-04  -1.015777e-03  0 
 4.767682e-04  -4.798524e-04  0 
 6.366549e-04  2.201936e-04  0 
 9.598985e-04  -2.974795e-04  0 
 4.040574e-04  5.518408e-05  0 
VECTORS displacement_ITER18 FLOAT
 -4.879443e-04  -2.124220e-04  0 
 3.673368e-04  -2.049794e-04  0 
 -2.035168e-04  -2.386075e-04  0 
 6.974338e-05  -2.473018e-04  0 
 3.098193e-04  -2.623354e-04  0 
 1.563806e-04  6.332130e-04  0 
 -6.620947e-04  -8.823072e-04  0 
 5.343951e-04  -5.325595e-04  0 
 6.078575e-04  -8.198124e-04  0 
 1.182457e-04  -2.920595e-04  0 
 1.953377e-04  -2.024770e-04  0 
 2.942362e-04  -2.544709e-04  0 
 -1.488106e-04  -3.063829e-04  0 
 -2.739396e-04  -1.372979e-03  0 
 3.432881e-04  -6.198126e-04  0 
 -2.945820e-04  -4.303808e-04  0 
 -3.487250e-04  -1.102459e-03  0 
 -9.888336e-05  -4.194491e-04  0 
 1.485709e-04  -4.746165e-04  0 
 1.116095e-04  -7.651373e-04  0 
 -2.354110e-05  -1.109599e-03  0 
 3.407241e-04  -9.639296e-04  0 
 3.467272e-04  -3.575429e-04  0 
 -1.797060e-04  -6.797290e-04  0 
 3.760319e-04  -3.677519e-04  0 
 -1.321548e-04  -2.939059e-04  0 
 4.591228e-04  -5.320239e-04  0 
 5.266844e-04  -3.345498e-04  0 
 1.897155e-04  -5.684178e-04  0 
 3.594314e-04  -6.695694e-04  0 
 4.280880e-04  -4.585213e-04  0 
 4.408205e-04  -5.296754e-04  0 
 2.344895e-04  -2.020428e-04  0 
VECTORS displacement_ITER19 FLOAT
 4.210604e-05  -4.313771e-04  0 
 4.348810e-04  -4.345151e-04  0 
 2.163678e-04  -4.611518e-04  0 
 3.735502e-04  -4.709161e-04  0 
 4.965365e-04  -4.878947e-04  0 
 -1.007482e-03  2.728256e-04  0 
 -1.287148e-04  -8.725091e-04  0 
 6.028163e-04  -6.407603e-04  0 
 6.771213e-04  -8.088481e-04  0 
 2.315672e-04  -1.608816e-04  0 
 3.595660e-04  -2.607279e-04  0 
 3.940097e-04  -3.384208e-04  0 
 1.021490e-04  -1.985152e-04  0 
 1.432452e-04  -1.223974e-03  0 
 5.142607e-04  -6.747679e-04  0 
 1.644657e-04  -5.757202e-04  0 
 1.017596e-04  -1.033114e-03  0 
 2.770745e-04  -5.677515e-04  0 
 4.184594e-04  -5.944023e-04  0 
 3.994241e-04  -7.743745e-04  0 
 3.152435e-04  -1.016564e-03  0 
 5.293816e-04  -8.918750e-04  0 
 4.933158e-04  -5.105295e-04  0 
 2.265599e-04  -7.236862e-04  0 
 -5.620288e-04  -4.439186e-04  0 
 1.394652e-03  -2.059995e-03  0 
 -1.610204e-04  -6.161386e-04  0 
 -2.794138e-04  -2.247189e-04  0 
 -1.235629e-04  -7.997874e-06  0 
 5.050612e-04  -1.213731e-03  0 
 5.764295e-04  -2.165029e-03  0 
 -5.554164e-04  -7.270906e-04  0 
 -3.441502e-04  -2.590585e-04  0 
VECTORS displacement_ITER20 FLOAT
 7.366382e-04  -5.255729e-04  0 
 5.514394e-04  -5.345312e-04  0 
 7.703213e-04  -5.586988e-04  0 
 7.818851e-04  -5.692046e-04  0 
 7.590495e-04  -5.864626e-04  0 
 -4.267070e-04  4.749853e-04  0 
 5.721039e-04  -6.778753e-04  0 
 7.198942e-04  -5.940490e-04  0 
 7.946388e-04  -6.161684e-04  0 
 5.273586e-04  -9.704608e-06  0 
 6.291003e-04  -2.596668e-04  0 
 5.663533e-04  -3.533363e-04  0 
 5.490104e-04  -6.567177e-05  0 
 6.956830e-04  -8.520317e-04  0 
 7.563303e-04  -5.624839e-04  0 
 7.676582e-04  -5.754768e-04  0 
 6.959989e-04  -7.624512e-04  0 
 7.759312e-04  -5.719817e-04  0 
 7.837192e-04  -5.627968e-04  0 
 7.869575e-04  -6.046699e-04  0 
 7.672164e-04  -7.173575e-04  0 
 7.932232e-04  -6.220950e-04  0 
 7.056921e-04  -5.188162e-04  0 
 7.638317e-04  -5.976774e-04  0 
 -4.711893e-04  -2.372925e-04  0 
 2.523284e-03  -3.554285e-03  0 
 -1.237502e-04  -5.552088e-04  0 
 -2.654414e-04  -3.175764e-04  0 
 -1.657331e-04  7.195633e-05  0 
 8.450791e-04  -1.747587e-03  0 
 1.100018e-03  -3.175445e-03  0 
 -5.157068e-04  -7.367048e-04  0 
 -1.400274e-04  -3.078194e-04  0 
VECTORS displacement_ITER21 FLOAT
 1.141930e-03  -1.120082e-03  0 
 8.632384e-05  -1.127531e-03  0 
 9.600395e-04  -1.154740e-03  0 
 7.523460e-04  -1.164846e-03  0 
 5.110670e-04  -1.180431e-03  0 
 6.318786e-04  1.691005e-04  0 
 9.853959e-04  -8.334493e-04  0 
 2.549341e-04  -9.700190e-04  0 
 3.296780e-04  -7.749000e-04  0 
 4.882314e-04  -7.175260e-04  0 
 4.335883e-04  -9.987024e-04  0 
 1.774722e-04  -1.099313e-03  0 
 7.333500e-04  -7.294773e-04  0 
 8.834795e-04  -7.385558e-04  0 
 4.768291e-04  -8.412087e-04  0 
 1.031390e-03  -1.022748e-03  0 
 9.470391e-04  -8.025457e-04  0 
 8.824227e-04  -1.026467e-03  0 
 6.888848e-04  -9.629238e-04  0 
 7.253630e-04  -7.974018e-04  0 
 8.027379e-04  -7.147334e-04  0 
 5.460665e-04  -6.654112e-04  0 
 3.822905e-04  -9.771650e-04  0 
 9.282996e-04  -8.565072e-04  0 
 -1.410048e-04  2.224278e-04  0 
 3.337790e-03  -1.717148e-03  0 
 -1.904234e-04  -5.697766e-04  0 
 -4.043877e-04  -4.510079e-04  0 
 5.282355e-04  1.324975e-03  0 
 1.437525e-03  -4.892875e-04  0 
 1.452844e-03  -1.988889e-03  0 
 -2.940519e-04  -1.377428e-04  0 
 9.678858e-05  -7.039615e-04  0 
VECTORS displacement_ITER22 FLOAT
 9.145405e-04  -7.703433e-04  0 
 3.400461e-04  -7.829138e-04  0 
 8.555824e-04  -8.062270e-04  0 
 7.681839e-04  -8.177038e-04  0 
 6.464161e-04  -8.340851e-04  0 
 6.769739e-04  -1.365532e-03  0 
 7.657908e-04  -7.235866e-04  0 
 5.102783e-04  -7.439720e-04  0 
 5.861300e-04  -6.680466e-04  0 
 4.176325e-04  -3.440343e-04  0 
 4.976193e-04  -6.095380e-04  0 
 3.257264e-04  -7.286763e-04  0 
 5.846711e-04  -3.460985e-04  0 
 7.844589e-04  -7.732168e-04  0 
 6.296743e-04  -6.673431e-04  0 
 8.858406e-04  -7.573337e-04  0 
 8.125292e-04  -7.547110e-04  0 
 8.239883e-04  -7.565555e-04  0 
 7.403204e-04  -7.225477e-04  0 
 7.584987e-04  -6.702269e-04  0 
 7.833933e-04  -6.925574e-04  0 
 6.810507e-04  -6.207114e-04  0 
 5.591140e-04  -7.050262e-04  0 
 8.382560e-04  -6.934051e-04  0 
 -1.955666e-04  -2.245620e-04  0 
 3.256420e-03  -2.427517e-03  0 
 2.211268e-04  -5.561268e-04  0 
 1.680589e-04  -6.638042e-04  0 
 2.336117e-04  6.320710e-04  0 
 1.265429e-03  -1.026160e-03  0 
 1.410424e-03  -2.488632e-03  0 
 -2.166138e-04  -4.573337e-04  0 
 5.534243e-04  -9.253226e-04  0 
VECTORS displacement_ITER23 FLOAT
 5.354075e-04  -1.142834e-04  0 
 4.784672e-04  -1.295838e-04  0 
 6.073927e-04  -1.502746e-04  0 
 6.499824e-04  -1.625991e-04  0 
 6.572772e-04  -1.795865e-04  0 
 2.570218e-04  -1.692703e-03  0 
 3.912117e-04  -3.263152e-04  0 
 6.501787e-04  -2.187895e-04  0 
 7.273346e-04  -2.718146e-04  0 
 3.000616e-04  2.456437e-04  0 
 4.657473e-04  4.337124e-05  0 
 3.846341e-04  -7.948236e-05  0 
 3.554032e-04  2.509311e-04  0 
 5.405010e-04  -5.320883e-04  0 
 6.591301e-04  -1.989149e-04  0 
 5.932671e-04  -1.905748e-04  0 
 5.306061e-04  -4.243663e-04  0 
 6.253472e-04  -1.850626e-04  0 
 6.604493e-04  -1.826787e-04  0 
 6.585902e-04  -2.528073e-04  0 
 6.264244e-04  -3.891497e-04  0 
 6.911759e-04  -2.921203e-04  0 
 6.145168e-04  -1.304010e-04  0 
 6.052726e-04  -2.377596e-04  0 
 -3.473477e-04  -3.532130e-04  0 
 3.021369e-03  -3.133661e-03  0 
 3.857712e-04  -2.837236e-04  0 
 5.591024e-04  -6.726114e-04  0 
 -1.012721e-04  -4.981275e-06  0 
 1.039958e-03  -1.518346e-03  0 
 1.340460e-03  -2.910789e-03  0 
 -1.641255e-04  -6.490635e-04  0 
 5.955281e-04  -6.091631e-04  0 
VECTORS displacement_ITER24 FLOAT
 2.237463e-04  1.357990e-04  0 
 4.178272e-04  1.255644e-04  0 
 3.570060e-04  1.023965e-04  0 
 4.631889e-04  9.130432e-05  0 
 5.340883e-04  7.534020e-05  0 
 2.397452e-04  -5.594322e-04  0 
 8.076498e-05  -1.993881e-04  0 
 5.907710e-04  -2.701155e-05  0 
 6.695942e-04  -1.445776e-04  0 
 2.707442e-04  1.432342e-04  0 
 3.653439e-04  1.078671e-04  0 
 2.988954e-04  1.148215e-06  0 
 2.514322e-04  1.847649e-04  0 
 2.916870e-04  -4.789505e-04  0 
 5.445461e-04  -3.532650e-05  0 
 3.209299e-04  1.927599e-05  0 
 2.634043e-04  -3.285896e-04  0 
 3.987579e-04  2.731546e-05  0 
 4.919519e-04  1.519084e-05  0 
 4.795327e-04  -1.151574e-04  0 
 4.190531e-04  -3.070334e-04  0 
 5.667615e-04  -1.985424e-04  0 
 5.130096e-04  8.569944e-05  0 
 3.614514e-04  -8.275965e-05  0 
 -6.542324e-05  -2.615271e-04  0 
 2.178848e-03  -2.562014e-03  0 
 4.634042e-04  -1.714091e-04  0 
 8.511729e-04  -9.062838e-04  0 
 -1.629865e-04  -5.604345e-04  0 
 8.339808e-04  -1.478332e-03  0 
 1.201442e-03  -2.305610e-03  0 
 2.792489e-04  -6.689709e-04  0 
 4.589789e-04  -2.255351e-04  0 
VECTORS displacement_ITER25 FLOAT
 2.800400e-05  2.888052e-04  0 
 6.351738e-04  2.815329e-04  0 
 2.623953e-04  2.580055e-04  0 
 4.731190e-04  2.474618e-04  0 
 6.482787e-04  2.317707e-04  0 
 4.186268e-04  4.496788e-04  0 
 -1.128094e-04  -2.517520e-04  0 
 8.090261e-04  2.561307e-05  0 
 8.891424e-04  -1.966722e-04  0 
 3.839732e-04  1.399443e-04  0 
 4.796671e-04  2.078598e-04  0 
 4.833373e-04  1.144369e-04  0 
 2.484464e-04  1.825332e-04  0 
 2.006382e-04  -6.545162e-04  0 
 6.733133e-04  -2.898868e-05  0 
 1.907671e-04  1.044011e-04  0 
 1.421940e-04  -4.332917e-04  0 
 3.437249e-04  1.158844e-04  0 
 5.325156e-04  7.864468e-05  0 
 5.035504e-04  -1.504218e-04  0 
 3.970533e-04  -4.337371e-04  0 
 6.796847e-04  -3.057190e-04  0 
 6.630413e-04  1.778413e-04  0 
 2.787043e-04  -8.795934e-05  0 
 3.189868e-04  -2.814800e-04  0 
 1.314136e-03  -2.391494e-03  0 
 6.814186e-04  -2.109252e-04  0 
 1.099376e-03  -1.112447e-03  0 
 -2.634437e-04  -1.125425e-03  0 
 5.929839e-04  -1.610643e-03  0 
 1.048468e-03  -1.964642e-03  0 
 6.777583e-04  -7.508075e-04  0 
 5.254488e-04  1.483660e-05  0 
VECTORS displacement_ITER26 FLOAT
 -3.295207e-04  1.676521e-04  0 
 5.788075e-04  1.597831e-04  0 
 -2.053169e-05  1.381642e-04  0 
 2.668289e-04  1.272213e-04  0 
 5.176692e-04  1.110832e-04  0 
 -2.576109e-04  2.811195e-04  0 
 -4.654285e-04  -5.239522e-04  0 
 7.533993e-04  -1.702356e-04  0 
 8.343171e-04  -4.679418e-04  0 
 2.334095e-04  8.239612e-05  0 
 3.490601e-04  1.596942e-04  0 