# vtk DataFile Version 3.1
this is an vtk file created by FEMAC
ASCII
DATASET UNSTRUCTURED_GRID
POINTS 30 FLOAT
4.000000 4.000000 0.000000
3.500000 4.000000 0.000000
3.750000 4.000000 0.000000
4.000000 3.500000 0.000000
4.000000 3.750000 0.000000
4.000000 4.250000 0.000000
4.000000 4.500000 0.000000
4.250000 4.000000 0.000000
4.500000 4.000000 0.000000
4.750000 4.000000 0.000000
3.813081 3.669072 0.000000
3.660928 3.805846 0.000000
3.844802 3.844984 0.000000
3.630781 4.172236 0.000000
3.755447 4.375936 0.000000
3.824845 4.167874 0.000000
3.536362 4.315974 0.000000
4.195000 3.745000 0.000000
4.375084 3.791072 0.000000
4.300774 3.567728 0.000000
4.588195 3.700568 0.000000
4.178472 4.325972 0.000000
4.225000 4.500000 0.000000
4.341551 4.171968 0.000000
4.581177 4.216647 0.000000
4.398247 4.399662 0.000000
4.401594 4.630720 0.000000
4.661856 4.507893 0.000000
4.832172 4.245757 0.000000
4.154005 4.149588 0.000000
CELLS 43 172 
3 10  3  4
3 11  2  1
3 2 12  0
3 4 12 10
3 12  4  0
3 11 12  2
3 11 10 12
3 2 13  1
3 15  2  0
3 5 15  0
3 15 13  2
3 6 14  5
3 15  5 14
3 14 13 15
3 14 16 13
3 3 17  4
3 7 18  8
3 17 18  7
3 3 19 17
3 17 19 18
3 17  0  4
3 7  0 17
3 19 20 18
3 8 20  9
3 18 20  8
3 21  6  5
3 21 22  6
3 21 25 22
3 23  7  8
3 9 24  8
3 23 25 21
3 22 25 26
3 29  5  0
3 7 29  0
3 5 29 21
3 28 24  9
3 23 29  7
3 23 21 29
3 23  8 24
3 23 24 25
3 26 25 27
3 27 25 24
3 27 24 28
CELL_TYPES 43
5 5 5 5 5 5 5 5 5 5 5 5 5 5 5 5 5 5 5 5 5 5 5 5 5 5 5 5 5 5 5 5 5 5 5 5 5 5 5 5 5 5 5 
POINT_DATA 30
VECTORS displacement_ITER1 FLOAT
 4.929706e-02  -2.323337e-01  0 
 4.938112e-02  -1.981359e-01  0 
 4.933897e-02  -2.152417e-01  0 
 1.533882e-02  -2.322635e-01  0 
 3.229831e-02  -2.322882e-01  0 
 7.089124e-02  -2.323639e-01  0 
 9.251586e-02  -2.323768e-01  0 
 4.927631e-02  -2.539970e-01  0 
 4.927047e-02  -2.756448e-01  0 
 4.926926e-02  -2.972887e-01  0 
 2.679554e-02  -2.195836e-01  0 
 3.609162e-02  -2.091975e-01  0 
 3.874805e-02  -2.217411e-01  0 
 6.177778e-02  -1.946158e-01  0 
 7.732835e-02  -1.998670e-01  0 
 6.087742e-02  -2.139539e-01  0 
 7.694241e-02  -1.715972e-01  0 
 3.321570e-02  -2.495309e-01  0 
 3.812938e-02  -2.656307e-01  0 
 2.354691e-02  -2.557205e-01  0 
 3.571481e-02  -2.845261e-01  0 
 7.747106e-02  -2.478080e-01  0 
 9.252469e-02  -2.518428e-01  0 
 6.415538e-02  -2.619201e-01  0 
 6.801888e-02  -2.826706e-01  0 
 8.384982e-02  -2.668342e-01  0 
 1.038362e-01  -2.671291e-01  0 
 9.321488e-02  -2.896569e-01  0 
 7.053865e-02  -3.044073e-01  0 
 6.222249e-02  -2.456762e-01  0 
VECTORS displacement_ITER2 FLOAT
 4.038070e-02  -1.070017e-01  0 
 4.045495e-02  -8.663651e-02  0 
 4.041826e-02  -9.682093e-02  0 
 2.039468e-02  -1.068051e-01  0 
 3.034448e-02  -1.068787e-01  0 
 5.114000e-02  -1.070984e-01  0 
 6.189267e-02  -1.071610e-01  0 
 4.036678e-02  -1.178818e-01  0 
 4.037066e-02  -1.286987e-01  0 
 4.037871e-02  -1.395037e-01  0 
 2.709264e-02  -9.938902e-02  0 
 3.255791e-02  -9.324210e-02  0 
 3.412966e-02  -1.006813e-01  0 
 4.241506e-02  -9.271781e-02  0 
 4.381770e-02  -9.768252e-02  0 
 4.490796e-02  -9.796892e-02  0 
 3.581870e-02  -9.922040e-02  0 
 3.146198e-02  -1.159998e-01  0 
 3.487516e-02  -1.243233e-01  0 
 2.668440e-02  -1.181514e-01  0 
 3.437492e-02  -1.347365e-01  0 
 5.443179e-02  -1.148055e-01  0 
 6.192378e-02  -1.168392e-01  0 
 4.780080e-02  -1.218436e-01  0 
 4.972728e-02  -1.322079e-01  0 
 5.761441e-02  -1.243048e-01  0 
 6.756118e-02  -1.244624e-01  0 
 6.227936e-02  -1.356890e-01  0 
 5.098396e-02  -1.430591e-01  0 
 4.683824e-02  -1.137179e-01  0 
VECTORS displacement_ITER3 FLOAT
 1.758663e-02  -4.141876e-02  0 
 1.763818e-02  -3.063650e-02  0 
 1.761340e-02  -3.600448e-02  0 
 7.179293e-03  -4.117166e-02  0 
 1.235008e-02  -4.124995e-02  0 
 2.353539e-02  -4.156416e-02  0 
 2.945714e-02  -4.163702e-02  0 
 1.757786e-02  -4.752429e-02  0 
 1.758734e-02  -5.353127e-02  0 
 1.760369e-02  -5.953244e-02  0 
 1.064815e-02  -3.733498e-02  0 
 1.347699e-02  -3.412460e-02  0 
 1.430064e-02  -3.803970e-02  0 
 1.753416e-02  -3.513443e-02  0 
 1.781778e-02  -3.847620e-02  0 
 1.975018e-02  -3.694082e-02  0 
 1.088748e-02  -4.292176e-02  0 
 1.266896e-02  -4.640882e-02  0 
 1.399953e-02  -5.141012e-02  0 
 8.601120e-03  -4.959997e-02  0 
 1.268282e-02  -5.748761e-02  0 
 2.536174e-02  -4.583135e-02  0 
 2.948955e-02  -4.697150e-02  0 
 2.170529e-02  -4.972730e-02  0 
 2.277110e-02  -5.547950e-02  0 
 2.711950e-02  -5.109889e-02  0 
 3.259844e-02  -5.118722e-02  0 
 2.968385e-02  -5.739635e-02  0 
 2.346194e-02  -6.148251e-02  0 
 2.117582e-02  -4.520627e-02  0 
VECTORS displacement_ITER4 FLOAT
 3.182718e-03  -1.518454e-02  0 
 3.181576e-03  -9.515460e-03  0 
 3.182780e-03  -1.232632e-02  0 
 -2.078260e-03  -1.489999e-02  0 
 5.162758e-04  -1.497603e-02  0 
 4.742509e-03  -1.537309e-02  0 
 6.251562e-03  -1.545146e-02  0 
 3.194530e-03  -1.691195e-02  0 
 3.212488e-03  -1.850132e-02  0 
 3.224847e-03  -2.008196e-02  0 
 -3.494507e-04  -1.298480e-02  0 
 1.055730e-03  -1.135751e-02  0 
 1.478258e-03  -1.337211e-02  0 
 4.232574e-03  -1.223284e-02  0 
 5.665944e-03  -1.409321e-02  0 
 4.386988e-03  -1.383226e-02  0 
 4.319717e-03  -1.334563e-02  0 
 9.520599e-04  -1.736491e-02  0 
 1.346942e-03  -1.970730e-02  0 
 -2.344125e-03  -2.079540e-02  0 
 -7.607453e-04  -2.467813e-02  0 
 5.224796e-03  -1.649200e-02  0 
 6.264535e-03  -1.680275e-02  0 
 4.292103e-03  -1.750148e-02  0 
 4.565186e-03  -1.900623e-02  0 
 5.668514e-03  -1.786407e-02  0 
 7.032345e-03  -1.788136e-02  0 
 6.296598e-03  -1.947471e-02  0 
 4.734984e-03  -2.055299e-02  0 
 4.156948e-03  -1.629239e-02  0 
VECTORS displacement_ITER5 FLOAT
 9.994877e-04  -9.060391e-03  0 
 9.831907e-04  -5.637735e-03  0 
 9.894722e-04  -7.319559e-03  0 
 -2.020701e-03  -8.760368e-03  0 
 -5.585863e-04  -8.846370e-03  0 
 1.625365e-03  -9.252430e-03  0 
 2.195309e-03  -9.331538e-03  0 
 1.025139e-03  -9.842460e-03  0 
 1.055924e-03  -1.047718e-02  0 
 1.081635e-03  -1.108752e-02  0 
 -1.061946e-03  -7.695369e-03  0 
 -2.694510e-04  -6.747142e-03  0 
 -2.051713e-05  -7.937375e-03  0 
 1.600064e-03  -6.723786e-03  0 
 2.037801e-03  -7.174575e-03  0 
 1.446112e-03  -7.895205e-03  0 
 1.554580e-03  -6.937035e-03  0 
 6.004815e-05  -1.012421e-02  0 
 6.417394e-04  -1.076628e-02  0 
 -5.770360e-04  -1.074599e-02  0 
 1.180136e-03  -1.103232e-02  0 
 1.822166e-03  -9.701553e-03  0 
 2.207636e-03  -9.838549e-03  0 
 1.472375e-03  -1.009111e-02  0 
 1.579055e-03  -1.068089e-02  0 
 1.988586e-03  -1.024164e-02  0 
 2.479586e-03  -1.024920e-02  0 
 2.207728e-03  -1.084971e-02  0 
 1.641756e-03  -1.126306e-02  0 
 1.417950e-03  -9.592720e-03  0 
VECTORS displacement_ITER6 FLOAT
 1.909715e-03  -5.323950e-03  0 
 1.883648e-03  -3.325438e-03  0 
 1.893007e-03  -4.283993e-03  0 
 3.707717e-04  -4.959970e-03  0 
 1.087942e-03  -5.061954e-03  0 
 2.472515e-03  -5.556328e-03  0 
 2.974738e-03  -5.647839e-03  0 
 1.944693e-03  -6.073504e-03  0 
 1.988886e-03  -6.640498e-03  0 
 2.028095e-03  -7.166969e-03  0 
 8.220352e-04  -4.459325e-03  0 
 1.196581e-03  -3.969337e-03  0 
 1.333509e-03  -4.623010e-03  0 
 2.486753e-03  -4.268423e-03  0 
 2.440685e-03  -4.537537e-03  0 
 2.336501e-03  -4.742135e-03  0 
 1.891345e-03  -5.458333e-03  0 
 1.449939e-03  -6.042222e-03  0 
 1.718555e-03  -6.476518e-03  0 
 1.249882e-03  -6.448173e-03  0 
 2.099025e-03  -6.384313e-03  0 
 2.651480e-03  -5.962287e-03  0 
 2.984059e-03  -6.088388e-03  0 
 2.348624e-03  -6.305095e-03  0 
 2.439170e-03  -6.823545e-03  0 
 2.791371e-03  -6.439207e-03  0 
 3.205188e-03  -6.436295e-03  0 
 2.961226e-03  -6.956585e-03  0 
 2.484772e-03  -7.311376e-03  0 
 2.299859e-03  -5.849041e-03  0 
VECTORS displacement_ITER7 FLOAT
 2.299387e-03  -5.045232e-03  0 
 2.297656e-03  -2.971949e-03  0 
 2.288905e-03  -3.972296e-03  0 
 7.203941e-04  -4.655547e-03  0 
 1.439524e-03  -4.781525e-03  0 
 2.555739e-03  -5.270618e-03  0 
 2.747357e-03  -5.366009e-03  0 
 2.335517e-03  -5.477849e-03  0 
 2.377435e-03  -5.736102e-03  0 
 2.412483e-03  -5.957870e-03  0 
 1.163237e-03  -4.165723e-03  0 
 1.553873e-03  -3.650486e-03  0 
 1.698096e-03  -4.328662e-03  0 
 2.122288e-03  -3.516097e-03  0 
 2.364498e-03  -3.978085e-03  0 
 2.281461e-03  -4.272053e-03  0 
 1.872889e-03  -3.490513e-03  0 
 1.668009e-03  -5.207342e-03  0 
 2.095531e-03  -5.556723e-03  0 
 1.474933e-03  -4.904155e-03  0 
 2.359857e-03  -5.749828e-03  0 
 2.641661e-03  -5.455288e-03  0 
 2.758407e-03  -5.524638e-03  0 
 2.527375e-03  -5.595176e-03  0 
 2.563225e-03  -5.817518e-03  0 
 2.692399e-03  -5.657706e-03  0 
 2.812313e-03  -5.653059e-03  0 
 2.732820e-03  -5.847759e-03  0 
 2.573347e-03  -6.004524e-03  0 
 2.505197e-03  -5.373910e-03  0 
VECTORS displacement_ITER8 FLOAT
 1.528814e-03  -4.395651e-03  0 
 1.485075e-03  -3.235794e-03  0 
 1.503186e-03  -3.761400e-03  0 
 7.722707e-04  -4.027879e-03  0 
 1.092814e-03  -4.144136e-03  0 
 1.882081e-03  -4.628126e-03  0 
 2.159447e-03  -4.731610e-03  0 
 1.570622e-03  -4.922350e-03  0 
 1.613478e-03  -5.270064e-03  0 
 1.645672e-03  -5.579647e-03  0 
 9.524950e-04  -3.839640e-03  0 
 1.123988e-03  -3.586052e-03  0 
 1.195360e-03  -3.945182e-03  0 
 1.465451e-03  -3.539028e-03  0 
 1.859876e-03  -4.064440e-03  0 
 1.628066e-03  -4.035346e-03  0 
 1.590606e-03  -3.305366e-03  0 
 1.124426e-03  -4.444922e-03  0 
 1.380620e-03  -4.927772e-03  0 
 8.764314e-04  -4.296665e-03  0 
 1.382741e-03  -5.418631e-03  0 
 1.996401e-03  -4.876864e-03  0 
 2.174104e-03  -4.964977e-03  0 
 1.826605e-03  -5.073646e-03  0 
 1.880552e-03  -5.381020e-03  0 
 2.075036e-03  -5.158641e-03  0 
 2.282854e-03  -5.162632e-03  0 
 2.163929e-03  -5.454666e-03  0 
 1.908407e-03  -5.661900e-03  0 
 1.795136e-03  -4.785800e-03  0 
VECTORS displacement_ITER9 FLOAT
 1.505513e-03  -4.218628e-03  0 
 1.429270e-03  -3.209051e-03  0 
 1.470048e-03  -3.634682e-03  0 
 7.981061e-04  -3.882503e-03  0 
 1.105861e-03  -3.983929e-03  0 
 1.895765e-03  -4.451229e-03  0 
 2.206062e-03  -4.558726e-03  0 
 1.548030e-03  -4.781986e-03  0 
 1.593022e-03  -5.163404e-03  0 
 1.629777e-03  -5.493855e-03  0 
 9.740855e-04  -3.695967e-03  0 
 1.141986e-03  -3.465582e-03  0 
 1.201610e-03  -3.795306e-03  0 
 1.583840e-03  -3.463724e-03  0 
 1.843513e-03  -3.760287e-03  0 
 1.654296e-03  -3.858903e-03  0 
 1.587406e-03  -3.434469e-03  0 
 1.207466e-03  -4.528428e-03  0 
 1.302043e-03  -4.882365e-03  0 
 1.042266e-03  -4.747030e-03  0 
 1.236107e-03  -5.147355e-03  0 
 2.021424e-03  -4.724696e-03  0 
 2.223929e-03  -4.820730e-03  0 
 1.827130e-03  -4.946374e-03  0 
 1.884370e-03  -5.286930e-03  0 
 2.111031e-03  -5.036878e-03  0 
 2.355031e-03  -5.045600e-03  0 
 2.224842e-03  -5.382410e-03  0 
 1.918466e-03  -5.607017e-03  0 
 1.793652e-03  -4.631393e-03  0 
VECTORS displacement_ITER10 FLOAT
 1.537938e-03  -4.120817e-03  0 
 1.451958e-03  -3.096924e-03  0 
 1.499473e-03  -3.521297e-03  0 
 7.692814e-04  -3.801419e-03  0 
 1.122100e-03  -3.890439e-03  0 
 1.905820e-03  -4.358771e-03  0 
 2.195429e-03  -4.470822e-03  0 
 1.578866e-03  -4.667850e-03  0 
 1.621676e-03  -5.030619e-03  0 
 1.654294e-03  -5.344635e-03  0 
 9.812604e-04  -3.577482e-03  0 
 1.165152e-03  -3.344141e-03  0 
 1.226199e-03  -3.684953e-03  0 
 1.530730e-03  -3.383128e-03  0 
 1.873695e-03  -3.812414e-03  0 
 1.662088e-03  -3.797024e-03  0 
 1.652259e-03  -3.156515e-03  0 
 1.170144e-03  -4.320164e-03  0 
 1.319381e-03  -4.706482e-03  0 
 9.644155e-04  -4.364169e-03  0 
 1.239428e-03  -5.070138e-03  0 
 2.025969e-03  -4.617480e-03  0 
 2.211941e-03  -4.708216e-03  0 
 1.845141e-03  -4.824479e-03  0 
 1.898500e-03  -5.145994e-03  0 
 2.107088e-03  -4.909727e-03  0 
 2.340880e-03  -4.911387e-03  0 
 2.206737e-03  -5.232713e-03  0 
 1.931928e-03  -5.449795e-03  0 
 1.813678e-03  -4.524065e-03  0 
VECTORS displacement_ITER11 FLOAT
 1.553385e-03  -4.110833e-03  0 
 1.469248e-03  -3.073620e-03  0 
 1.515216e-03  -3.507510e-03  0 
 7.826924e-04  -3.800945e-03  0 
 1.134524e-03  -3.879962e-03  0 
 1.914112e-03  -4.348311e-03  0 
 2.198377e-03  -4.459022e-03  0 
 1.594212e-03  -4.650522e-03  0 
 1.636729e-03  -5.006599e-03  0 
 1.668704e-03  -5.315666e-03  0 
 9.942993e-04  -3.563008e-03  0 
 1.176030e-03  -3.329350e-03  0 
 1.239101e-03  -3.672380e-03  0 
 1.583151e-03  -3.359233e-03  0 
 1.871645e-03  -3.764512e-03  0 
 1.685070e-03  -3.777174e-03  0 
 1.653897e-03  -3.230277e-03  0 
 1.197747e-03  -4.344271e-03  0 
 1.326120e-03  -4.712909e-03  0 
 9.793627e-04  -4.470417e-03  0 
 1.246709e-03  -5.018934e-03  0 
 2.032192e-03  -4.602730e-03  0 
 2.213582e-03  -4.692379e-03  0 
 1.855903e-03  -4.804591e-03  0 
 1.908185e-03  -5.119325e-03  0 
 2.111422e-03  -4.888340e-03  0 
 2.339141e-03  -4.888698e-03  0 
 2.206760e-03  -5.201803e-03  0 
 1.939737e-03  -5.414626e-03  0 
 1.824793e-03  -4.509544e-03  0 
VECTORS displacement_ITER12 FLOAT
 1.553468e-03  -4.107119e-03  0 
 1.468925e-03  -3.073346e-03  0 
 1.515204e-03  -3.504433e-03  0 
 7.808789e-04  -3.798496e-03  0 
 1.135377e-03  -3.876219e-03  0 
 1.914850e-03  -4.344768e-03  0 
 2.199173e-03  -4.455729e-03  0 
 1.594230e-03  -4.647655e-03  0 
 1.636765e-03  -5.004370e-03  0 
 1.668829e-03  -5.314100e-03  0 
 9.952714e-04  -3.558902e-03  0 
 1.176027e-03  -3.325689e-03  0 
 1.239527e-03  -3.668817e-03  0 
 1.573612e-03  -3.344391e-03  0 
 1.878999e-03  -3.775054e-03  0 
 1.683108e-03  -3.775765e-03  0 
 1.626443e-03  -3.258827e-03  0 
 1.195263e-03  -4.337027e-03  0 
 1.324524e-03  -4.709062e-03  0 
 9.680427e-04  -4.464708e-03  0 
 1.245601e-03  -5.012668e-03  0 
 2.033074e-03  -4.599434e-03  0 
 2.214906e-03  -4.689262e-03  0 
 1.856364e-03  -4.801974e-03  0 
 1.908913e-03  -5.117470e-03  0 
 2.112659e-03  -4.886261e-03  0 
 2.341136e-03  -4.888169e-03  0 
 2.208771e-03  -5.200356e-03  0 
 1.940644e-03  -5.413751e-03  0 
 1.825280e-03  -4.506323e-03  0 
VECTORS displacement_ITER13 FLOAT
 1.552981e-03  -4.107470e-03  0 
 1.468219e-03  -3.073743e-03  0 
 1.514830e-03  -3.504688e-03  0 
 7.812608e-04  -3.798707e-03  0 
 1.135095e-03  -3.876425e-03  0 
 1.914498e-03  -4.345121e-03  0 
 2.199069e-03  -4.456132e-03  0 
 1.593755e-03  -4.648150e-03  0 
 1.636317e-03  -5.004966e-03  0 
 1.668406e-03  -5.314577e-03  0 
 9.953443e-04  -3.559821e-03  0 
 1.175605e-03  -3.325630e-03  0 
 1.239107e-03  -3.669232e-03  0 
 1.577037e-03  -3.350291e-03  0 
 1.876952e-03  -3.773501e-03  0 
 1.684027e-03  -3.776410e-03  0 
 1.643221e-03  -3.250879e-03  0 
 1.194364e-03  -4.335755e-03  0 
 1.324543e-03  -4.710278e-03  0 
 9.627489e-04  -4.465569e-03  0 
 1.247012e-03  -5.013306e-03  0 
 2.032788e-03  -4.599915e-03  0 
 2.214592e-03  -4.689657e-03  0 
 1.855959e-03  -4.802518e-03  0 
 1.908442e-03  -5.118068e-03  0 
 2.112349e-03  -4.886719e-03  0 
 2.341021e-03  -4.888724e-03  0 
 2.208643e-03  -5.201038e-03  0 
 1.940208e-03  -5.414648e-03  0 
 1.824870e-03  -4.506771e-03  0 
VECTORS displacement_ITER14 FLOAT
 1.552999e-03  -4.107412e-03  0 
 1.468225e-03  -3.073776e-03  0 
 1.514847e-03  -3.504660e-03  0 
 7.812900e-04  -3.798622e-03  0 
 1.135136e-03  -3.876374e-03  0 
 1.914495e-03  -4.345052e-03  0 
 2.199084e-03  -4.456016e-03  0 
 1.593778e-03  -4.648064e-03  0 
 1.636349e-03  -5.004856e-03  0 
 1.668445e-03  -5.314452e-03  0 
 9.953874e-04  -3.559794e-03  0 
 1.175646e-03  -3.325602e-03  0 
 1.239142e-03  -3.669194e-03  0 
 1.577561e-03  -3.349534e-03  0 
 1.877098e-03  -3.772387e-03  0 
 1.684122e-03  -3.776066e-03  0 
 1.640636e-03  -3.256155e-03  0 
 1.194405e-03  -4.335646e-03  0 
 1.324647e-03  -4.710032e-03  0 
 9.635435e-04  -4.464523e-03  0 
 1.246738e-03  -5.014199e-03  0 
 2.032777e-03  -4.599847e-03  0 
 2.214586e-03  -4.689593e-03  0 
 1.855967e-03  -4.802430e-03  0 
 1.908451e-03  -5.117951e-03  0 
 2.112338e-03  -4.886633e-03  0 
 2.341000e-03  -4.888619e-03  0 
 2.208612e-03  -5.200923e-03  0 
 1.940199e-03  -5.414435e-03  0 
 1.824875e-03  -4.506699e-03  0 
CELL_DATA 43
TENSORS element_stresses FLOAT
 4.564555e-02  -1.104921e-01  0 
 -1.104921e-01  -2.973151e-01  0 
 0  0  0 

 1.615646e-01  -4.770566e-02  0 
 -4.770566e-02  -8.306999e-02  0 
 0  0  0 

 3.152315e-02  -4.147136e-01  0 
 -4.147136e-01  -4.036198e-01  0 
 0  0  0 

 6.288617e-02  -1.448233e-01  0 
 -1.448233e-01  -3.244335e-01  0 
 0  0  0 

 8.303192e-02  -1.762160e-01  0 
 -1.762160e-01  -8.992429e-01  0 
 0  0  0 

 -5.606224e-02  -7.133692e-02  0 
 -7.133692e-02  -8.882373e-02  0 
 0  0  0 

 -4.011311e-02  -3.302620e-01  0 
 -3.302620e-01  -3.083570e-01  0 
 0  0  0 

 1.085514e-04  -9.464083e-04  0 
 -9.464083e-04  -2.597805e-04  0 
 0  0  0 

 -1.091415e-05  -1.131306e-03  0 
 -1.131306e-03  -5.450775e-04  0 
 0  0  0 

 3.869169e-04  -1.043682e-03  0 
 -1.043682e-03  -8.344836e-04  0 
 0  0  0 

 4.142270e-04  -1.120079e-03  0 
 -1.120079e-03  -5.062329e-04  0 
 0  0  0 

 6.659081e-04  -1.101460e-03  0 
 -1.101460e-03  -2.440855e-04  0 
 0  0  0 

 5.327548e-04  -1.257610e-03  0 
 -1.257610e-03  -7.618541e-04  0 
 0  0  0 

 3.934206e-04  -8.423580e-04  0 
 -8.423580e-04  -6.027881e-04  0 
 0  0  0 

 6.424688e-04  -9.038802e-04  0 
 -9.038802e-04  -5.685619e-04  0 
 0  0  0 

 2.713572e-04  -7.291029e-04  0 
 -7.291029e-04  -2.296016e-04  0 
 0  0  0 

 3.224440e-06  -2.851524e-05  0 
 -2.851524e-05  -5.568690e-04  0 
 0  0  0 

 1.041181e-04  -2.892974e-04  0 
 -2.892974e-04  -7.908963e-04  0 
 0  0  0 

 1.302837e-04  -4.840408e-04  0 
 -4.840408e-04  -4.845768e-04  0 
 0  0  0 

 2.250083e-04  -3.544350e-04  0 
 -3.544350e-04  -3.779637e-04  0 
 0  0  0 

 7.643712e-05  -5.442205e-04  0 
 -5.442205e-04  -9.012214e-04  0 
 0  0  0 

 -7.087966e-05  -4.858633e-04  0 
 -4.858633e-04  -7.799868e-04  0 
 0  0  0 

 1.287644e-04  -1.049050e-04  0 
 -1.049050e-04  -5.084447e-04  0 
 0  0  0 

 3.111577e-05  7.738196e-05  0 
 7.738196e-05  -3.242208e-04  0 
 0  0  0 

 8.822359e-05  -1.938875e-04  0 
 -1.938875e-04  -4.183637e-04  0 
 0  0  0 

 4.946304e-02  -7.719075e-02  0 
 -7.719075e-02  -4.290190e-01  0 
 0  0  0 

 -2.802313e-03  -9.099469e-03  0 
 -9.099469e-03  -2.389937e-01  0 
 0  0  0 

 -4.626057e-02  -1.555362e-01  0 
 -1.555362e-01  -1.971306e-01  0 
 0  0  0 

 1.416784e-01  5.245417e-03  0 
 5.245417e-03  -9.535590e-02  0 
 0  0  0 

 1.219561e-01  -2.348081e-02  0 
 -2.348081e-02  -2.141986e-02  0 
 0  0  0 

 -3.474468e-02  -1.217918e-01  0 
 -1.217918e-01  -5.939459e-02  0 
 0  0  0 

 -1.597985e-02  -1.099468e-01  0 
 -1.099468e-01  3.022870e-03  0 
 0  0  0 

 8.317726e-02  -1.718538e-01  0 
 -1.718538e-01  -9.256055e-01  0 
 0  0  0 

 3.327567e-02  -3.946463e-01  0 
 -3.946463e-01  -4.328024e-01  0 
 0  0  0 

 7.238756e-02  -9.490471e-02  0 
 -9.490471e-02  -3.290518e-01  0 
 0  0  0 

 -6.076534e-03  -5.646423e-02  0 
 -5.646423e-02  -1.417759e-02  0 
 0  0  0 

 -3.943201e-02  -2.738904e-02  0 
 -2.738904e-02  -7.395286e-02  0 
 0  0  0 

 -7.562114e-02  -2.801247e-01  0 
 -2.801247e-01  -3.372525e-01  0 
 0  0  0 

 -2.806566e-02  -3.762252e-02  0 
 -3.762252e-02  -3.922526e-02  0 
 0  0  0 

 -4.031800e-03  -1.422696e-01  0 
 -1.422696e-01  -4.519208e-02  0 
 0  0  0 

 -4.255518e-02  -1.581644e-01  0 
 -1.581644e-01  -4.036571e-03  0 
 0  0  0 

 -5.494100e-02  -1.265866e-01  0 
 -1.265866e-01  3.473003e-02  0 
 0  0  0 

 2.232788e-02  -1.212952e-01  0 
 -1.212952e-01  5.043731e-02  0 
 0  0  0 

TENSORS element_stresses FLOAT
 4.564555e-02  -1.104921e-01  0 
 -1.104921e-01  -2.973151e-01  0 
 0  0  0 

 1.615646e-01  -4.770566e-02  0 
 -4.770566e-02  -8.306999e-02  0 
 0  0  0 

 3.152315e-02  -4.147136e-01  0 
 -4.147136e-01  -4.036198e-01  0 
 0  0  0 

 6.288617e-02  -1.448233e-01  0 
 -1.448233e-01  -3.244335e-01  0 
 0  0  0 

 8.303192e-02  -1.762160e-01  0 
 -1.762160e-01  -8.992429e-01  0 
 0  0  0 

 -5.606224e-02  -7.133692e-02  0 
 -7.133692e-02  -8.882373e-02  0 
 0  0  0 

 -4.011311e-02  -3.302620e-01  0 
 -3.302620e-01  -3.083570e-01  0 
 0  0  0 

 1.085514e-04  -9.464083e-04  0 
 -9.464083e-04  -2.597805e-04  0 
 0  0  0 

 -1.091415e-05  -1.131306e-03  0 
 -1.131306e-03  -5.450775e-04  0 
 0  0  0 

 3.869169e-04  -1.043682e-03  0 
 -1.043682e-03  -8.344836e-04  0 
 0  0  0 

 4.142270e-04  -1.120079e-03  0 
 -1.120079e-03  -5.062329e-04  0 
 0  0  0 

 6.659081e-04  -1.101460e-03  0 
 -1.101460e-03  -2.440855e-04  0 
 0  0  0 

 5.327548e-04  -1.257610e-03  0 
 -1.257610e-03  -7.618541e-04  0 
 0  0  0 

 3.934206e-04  -8.423580e-04  0 
 -8.423580e-04  -6.027881e-04  0 
 0  0  0 

 6.424688e-04  -9.038802e-04  0 
 -9.038802e-04  -5.685619e-04  0 
 0  0  0 

 2.713572e-04  -7.291029e-04  0 
 -7.291029e-04  -2.296016e-04  0 
 0  0  0 

 3.224440e-06  -2.851524e-05  0 
 -2.851524e-05  -5.568690e-04  0 
 0  0  0 

 1.041181e-04  -2.892974e-04  0 
 -2.892974e-04  -7.908963e-04  0 
 0  0  0 

 1.302837e-04  -4.840408e-04  0 
 -4.840408e-04  -4.845768e-04  0 
 0  0  0 

 2.250083e-04  -3.544350e-04  0 
 -3.544350e-04  -3.779637e-04  0 
 0  0  0 

 7.643712e-05  -5.442205e-04  0 
 -5.442205e-04  -9.012214e-04  0 
 0  0  0 

 -7.087966e-05  -4.858633e-04  0 
 -4.858633e-04  -7.799868e-04  0 
 0  0  0 

 1.287644e-04  -1.049050e-04  0 
 -1.049050e-04  -5.084447e-04  0 
 0  0  0 

 3.111577e-05  7.738196e-05  0 
 7.738196e-05  -3.242208e-04  0 
 0  0  0 

 8.822359e-05  -1.938875e-04  0 
 -1.938875e-04  -4.183637e-04  0 
 0  0  0 

 4.946304e-02  -7.719075e-02  0 
 -7.719075e-02  -4.290190e-01  0 
 0  0  0 

 -2.802313e-03  -9.099469e-03  0 
 -9.099469e-03  -2.389937e-01  0 
 0  0  0 

 -4.626057e-02  -1.555362e-01  0 
 -1.555362e-01  -1.971306e-01  0 
 0  0  0 

 1.416784e-01  5.245417e-03  0 
 5.245417e-03  -9.535590e-02  0 
 0  0  0 

 1.219561e-01  -2.348081e-02  0 
 -2.348081e-02  -2.141986e-02  0 
 0  0  0 

 -3.474468e-02  -1.217918e-01  0 
 -1.217918e-01  -5.939459e-02  0 
 0  0  0 

 -1.597985e-02  -1.099468e-01  0 
 -1.099468e-01  3.022870e-03  0 
 0  0  0 

 8.317726e-02  -1.718538e-01  0 
 -1.718538e-01  -9.256055e-01  0 
 0  0  0 

 3.327567e-02  -3.946463e-01  0 
 -3.946463e-01  -4.328024e-01  0 
 0  0  0 

 7.238756e-02  -9.490471e-02  0 
 -9.490471e-02  -3.290518e-01  0 
 0  0  0 

 -6.076534e-03  -5.646423e-02  0 
 -5.646423e-02  -1.417759e-02  0 
 0  0  0 

 -3.943201e-02  -2.738904e-02  0 
 -2.738904e-02  -7.395286e-02  0 
 0  0  0 

 -7.562114e-02  -2.801247e-01  0 
 -2.801247e-01  -3.372525e-01  0 
 0  0  0 

 -2.806566e-02  -3.762252e-02  0 
 -3.762252e-02  -3.922526e-02  0 
 0  0  0 

 -4.031800e-03  -1.422696e-01  0 
 -1.422696e-01  -4.519208e-02  0 
 0  0  0 

 -4.255518e-02  -1.581644e-01  0 
 -1.581644e-01  -4.036571e-03  0 
 0  0  0 

 -5.494100e-02  -1.265866e-01  0 
 -1.265866e-01  3.473003e-02  0 
 0  0  0 

 2.232788e-02  -1.212952e-01  0 
 -1.212952e-01  5.043731e-02  0 
 0  0  0 

