# vtk DataFile Version 3.1
this is an vtk file created by FEMAC
ASCII
DATASET UNSTRUCTURED_GRID
POINTS 31 FLOAT
4.000000 6.000000 0.000000
5.000000 5.000000 0.000000
5.000000 6.000000 0.000000
3.500000 6.000000 0.000000
3.750000 6.000000 0.000000
4.000000 5.500000 0.000000
4.000000 5.750000 0.000000
4.500000 5.000000 0.000000
4.750000 5.000000 0.000000
4.250000 6.000000 0.000000
4.500000 6.000000 0.000000
4.750000 6.000000 0.000000
5.000000 5.250000 0.000000
5.000000 5.500000 0.000000
5.000000 5.750000 0.000000
3.745000 5.805000 0.000000
3.757141 5.565925 0.000000
3.546713 5.717271 0.000000
4.500000 5.500000 0.000000
4.805000 5.745000 0.000000
4.745000 5.195000 0.000000
4.255000 5.805000 0.000000
4.195000 5.255000 0.000000
4.799000 5.384000 0.000000
4.616000 5.799000 0.000000
4.384000 5.201000 0.000000
4.201000 5.616000 0.000000
4.325714 5.438857 0.000000
4.433602 5.681622 0.000000
4.555888 5.333051 0.000000
4.672784 5.563239 0.000000
CELLS 42 168 
3 3 15  4
3 6 16  5
3 17 16 15
3 15 16  6
3 3 17 15
3 15  0  4
3 6  0 15
3 19 13 14
3 20  7  8
3 21 10  9
3 26  6  5
3 23 12 13
3 24 11 10
3 23 29 20
3 24 30 19
3 25 27 22
3 26 28 21
3 23 20 12
3 24 19 11
3 26 21  6
3 27  5 22
3 26  5 27
3 18 28 27
3 26 27 28
3 29  7 20
3 25  7 29
3 18 27 29
3 25 29 27
3 28 10 21
3 24 10 28
3 18 30 28
3 24 28 30
3 30 13 19
3 23 13 30
3 18 29 30
3 23 30 29
3 1 20  8
3 1 12 20
3 19  2 11
3 14  2 19
3 21  0  6
3 9  0 21
CELL_TYPES 42
5 5 5 5 5 5 5 5 5 5 5 5 5 5 5 5 5 5 5 5 5 5 5 5 5 5 5 5 5 5 5 5 5 5 5 5 5 5 5 5 5 5 
POINT_DATA 31
VECTORS displacement_ITER1 FLOAT
 1.765812e-01  -2.486708e-01  0 
 1.362419e-01  -3.134257e-01  0 
 2.284060e-01  -3.621793e-01  0 
 1.765443e-01  -2.108039e-01  0 
 1.765637e-01  -2.297360e-01  0 
 1.387480e-01  -2.486083e-01  0 
 1.576476e-01  -2.486460e-01  0 
 1.245570e-01  -2.722305e-01  0 
 1.290273e-01  -2.916933e-01  0 
 1.894263e-01  -2.796083e-01  0 
 2.005160e-01  -3.046123e-01  0 
 2.144037e-01  -3.311047e-01  0 
 1.537493e-01  -3.242578e-01  0 
 1.701197e-01  -3.332563e-01  0 
 1.960355e-01  -3.482997e-01  0 
 1.617972e-01  -2.293425e-01  0 
 1.437029e-01  -2.302512e-01  0 
 1.551482e-01  -2.143282e-01  0 
 1.563186e-01  -2.841998e-01  0 
 1.873615e-01  -3.233943e-01  0 
 1.417192e-01  -2.973760e-01  0 
 1.696023e-01  -2.720148e-01  0 
 1.359779e-01  -2.542958e-01  0 
 1.567229e-01  -3.094584e-01  0 
 1.853838e-01  -3.063999e-01  0 
 1.356902e-01  -2.669311e-01  0 
 1.529100e-01  -2.638576e-01  0 
 1.469496e-01  -2.668890e-01  0 
 1.664585e-01  -2.837235e-01  0 
 1.466511e-01  -2.839000e-01  0 
 1.661195e-01  -3.022222e-01  0 
VECTORS displacement_ITER2 FLOAT
 9.019080e-02  -1.070583e-01  0 
 5.886443e-02  -1.517682e-01  0 
 1.511355e-01  -1.604987e-01  0 
 9.014991e-02  -1.084326e-01  0 
 9.016988e-02  -1.077410e-01  0 
 9.155461e-02  -1.070066e-01  0 
 9.086903e-02  -1.070311e-01  0 
 6.122855e-02  -1.013575e-01  0 
 5.898913e-02  -1.227605e-01  0 
 1.077056e-01  -1.229567e-01  0 
 1.228578e-01  -1.344892e-01  0 
 1.374904e-01  -1.474679e-01  0 
 8.913855e-02  -1.535222e-01  0 
 1.131149e-01  -1.499876e-01  0 
 1.316390e-01  -1.535642e-01  0 
 9.070425e-02  -1.077370e-01  0 
 9.136364e-02  -1.076901e-01  0 
 9.094239e-02  -1.082915e-01  0 
 1.002123e-01  -1.110029e-01  0 
 1.251144e-01  -1.383672e-01  0 
 8.069146e-02  -1.230660e-01  0 
 9.976481e-02  -1.113464e-01  0 
 8.307883e-02  -9.432415e-02  0 
 1.000011e-01  -1.306412e-01  0 
 1.194243e-01  -1.295552e-01  0 
 7.969198e-02  -9.653738e-02  0 
 9.456183e-02  -1.050570e-01  0 
 9.379612e-02  -1.015384e-01  0 
 1.045244e-01  -1.133375e-01  0 
 9.172498e-02  -1.100151e-01  0 
 1.088633e-01  -1.234559e-01  0 
VECTORS displacement_ITER3 FLOAT
 5.340048e-02  -4.500994e-02  0 
 2.736764e-02  -6.092711e-02  0 
 8.796765e-02  -6.386422e-02  0 
 5.336570e-02  -3.911286e-02  0 
 5.338317e-02  -4.205270e-02  0 
 4.743240e-02  -4.502560e-02  0 
 5.044393e-02  -4.499836e-02  0 
 3.832090e-02  -6.354256e-02  0 
 3.309966e-02  -5.713959e-02  0 
 6.133415e-02  -5.475251e-02  0 
 6.870662e-02  -6.158390e-02  0 
 7.710254e-02  -6.586897e-02  0 
 4.807836e-02  -6.070125e-02  0 
 6.247335e-02  -6.508132e-02  0 
 7.599285e-02  -6.455107e-02  0 
 5.108278e-02  -4.197663e-02  0 
 4.824545e-02  -4.209234e-02  0 
 5.004703e-02  -3.965466e-02  0 
 5.268380e-02  -4.967239e-02  0 
 7.172550e-02  -5.914350e-02  0 
 4.047580e-02  -5.180318e-02  0 
 5.556424e-02  -4.953253e-02  0 
 4.135452e-02  -4.742373e-02  0 
 5.155860e-02  -5.578471e-02  0 
 6.699368e-02  -5.757842e-02  0 
 4.226642e-02  -5.116103e-02  0 
 5.126053e-02  -4.649029e-02  0 
 4.786298e-02  -4.778972e-02  0 
 5.720826e-02  -5.071616e-02  0 
 4.512641e-02  -4.996206e-02  0 
 5.903224e-02  -5.334947e-02  0 
VECTORS displacement_ITER4 FLOAT
 2.312642e-02  -2.405497e-02  0 
 1.257541e-02  -2.294736e-02  0 
 6.340098e-02  -2.930106e-02  0 
 2.310726e-02  -1.500051e-02  0 
 2.311638e-02  -1.952207e-02  0 
 1.401723e-02  -2.407369e-02  0 
 1.860019e-02  -2.404130e-02  0 
 1.040952e-02  -1.968605e-02  0 
 1.472195e-02  -2.645922e-02  0 
 2.949935e-02  -3.107812e-02  0 
 3.677904e-02  -3.480337e-02  0 
 4.813520e-02  -3.526910e-02  0 
 2.301967e-02  -2.525644e-02  0 
 3.392216e-02  -3.020437e-02  0 
 4.937986e-02  -3.055818e-02  0 
 1.958375e-02  -1.942173e-02  0 
 1.525003e-02  -1.961795e-02  0 
 1.798619e-02  -1.583204e-02  0 
 2.643981e-02  -1.968391e-02  0 
 4.455645e-02  -2.471862e-02  0 
 1.851967e-02  -2.322591e-02  0 
 2.441409e-02  -2.654235e-02  0 
 1.561299e-02  -1.677569e-02  0 
 2.552302e-02  -2.351933e-02  0 
 3.799702e-02  -2.692410e-02  0 
 1.628442e-02  -1.623535e-02  0 
 2.005772e-02  -2.310948e-02  0 
 2.095383e-02  -1.817297e-02  0 
 2.827401e-02  -2.311084e-02  0 
 2.191782e-02  -1.880443e-02  0 
 3.227755e-02  -2.034888e-02  0 
VECTORS displacement_ITER5 FLOAT
 1.119480e-02  -9.282796e-03  0 
 4.469120e-03  -1.295167e-02  0 
 4.811889e-02  -1.294546e-02  0 
 1.116847e-02  -5.611680e-03  0 
 1.118087e-02  -7.438557e-03  0 
 7.464227e-03  -9.284761e-03  0 
 9.350425e-03  -9.271871e-03  0 
 5.252550e-03  -1.010018e-02  0 
 4.335624e-03  -1.124364e-02  0 
 1.839447e-02  -1.621317e-02  0 
 2.551428e-02  -1.962772e-02  0 
 3.510568e-02  -1.958309e-02  0 
 1.361354e-02  -1.244889e-02  0 
 2.604458e-02  -1.375523e-02  0 
 3.792912e-02  -1.338299e-02  0 
 9.746893e-03  -7.388032e-03  0 
 7.973949e-03  -7.457062e-03  0 
 9.091829e-03  -5.927453e-03  0 
 1.687078e-02  -6.480985e-03  0 
 3.326487e-02  -1.033853e-02  0 
 9.907813e-03  -8.348747e-03  0 
 1.451962e-02  -1.144469e-02  0 
 8.310035e-03  -7.971806e-03  0 
 1.742855e-02  -8.452915e-03  0 
 2.702479e-02  -1.276466e-02  0 
 9.257535e-03  -6.368435e-03  0 
 1.171058e-02  -8.617408e-03  0 
 1.190390e-02  -6.391111e-03  0 
 1.831530e-02  -9.191030e-03  0 
 1.295328e-02  -5.553079e-03  0 
 2.253794e-02  -6.830903e-03  0 
VECTORS displacement_ITER6 FLOAT
 6.270415e-03  -6.394146e-03  0 
 3.211661e-03  -8.449645e-03  0 
 4.387901e-02  -7.184176e-03  0 
 6.243809e-03  -4.742680e-03  0 
 6.255570e-03  -5.557483e-03  0 
 4.534841e-03  -6.394077e-03  0 
 5.429660e-03  -6.384400e-03  0 
 3.883925e-03  -6.416503e-03  0 
 4.095582e-03  -7.306804e-03  0 
 1.389977e-02  -1.311643e-02  0 
 2.115127e-02  -1.589239e-02  0 
 3.075054e-02  -1.489392e-02  0 
 1.377853e-02  -7.359084e-03  0 
 2.376919e-02  -7.922171e-03  0 
 3.450421e-02  -7.554399e-03  0 
 5.607522e-03  -5.526114e-03  0 
 4.790204e-03  -5.547966e-03  0 
 5.305548e-03  -4.863398e-03  0 
 1.448714e-02  -2.759235e-03  0 
 2.985105e-02  -5.383252e-03  0 
 9.225417e-03  -3.878215e-03  0 
 1.066969e-02  -8.204066e-03  0 
 6.331573e-03  -4.734840e-03  0 
 1.617802e-02  -4.100256e-03  0 
 2.341207e-02  -8.639224e-03  0 
 7.793263e-03  -2.371500e-03  0 
 8.518422e-03  -5.419820e-03  0 
 9.534798e-03  -2.987943e-03  0 
 1.509154e-02  -5.603047e-03  0 
 1.151978e-02  -1.640794e-03  0 
 2.004966e-02  -2.703466e-03  0 
VECTORS displacement_ITER7 FLOAT
 5.052575e-03  -5.791527e-03  0 
 2.652208e-03  -6.175672e-03  0 
 4.348508e-02  -6.522855e-03  0 
 5.047204e-03  -4.487825e-03  0 
 5.048952e-03  -5.141175e-03  0 
 3.775262e-03  -5.749749e-03  0 
 4.409794e-03  -5.769863e-03  0 
 2.886336e-03  -5.501418e-03  0 
 2.646727e-03  -6.379650e-03  0 
 1.259519e-02  -1.205667e-02  0 
 1.987325e-02  -1.435406e-02  0 
 2.987642e-02  -1.340023e-02  0 
 1.286365e-02  -6.147712e-03  0 
 2.280546e-02  -5.515008e-03  0 
 3.320780e-02  -5.810285e-03  0 
 4.538517e-03  -5.126628e-03  0 
 3.935285e-03  -5.147476e-03  0 
 4.306587e-03  -4.615246e-03  0 
 1.386352e-02  -1.424350e-03  0 
 2.842895e-02  -3.574359e-03  0 
 8.130591e-03  -2.877408e-03  0 
 9.608383e-03  -7.164249e-03  0 
 6.346927e-03  -2.897640e-03  0 
 1.544946e-02  -2.701661e-03  0 
 2.220890e-02  -6.934426e-03  0 
 7.124140e-03  -2.188504e-03  0 
 7.698882e-03  -4.491848e-03  0 
 9.269603e-03  -1.619600e-03  0 
 1.417805e-02  -4.211997e-03  0 
 1.073889e-02  -6.798100e-04  0 
 1.914811e-02  -1.334845e-03  0 
VECTORS displacement_ITER8 FLOAT
 4.864270e-03  -5.150177e-03  0 
 2.608631e-03  -5.952869e-03  0 
 4.321008e-02  -6.183456e-03  0 
 4.846526e-03  -3.846226e-03  0 
 4.854648e-03  -4.494238e-03  0 
 3.553267e-03  -5.110017e-03  0 
 4.205497e-03  -5.138002e-03  0 
 2.621408e-03  -5.316263e-03  0 
 2.668568e-03  -5.533700e-03  0 
 1.260270e-02  -1.175056e-02  0 
 1.997068e-02  -1.434148e-02  0 
 2.983555e-02  -1.346080e-02  0 
 1.278907e-02  -6.075721e-03  0 
 2.298827e-02  -6.145960e-03  0 
 3.303690e-02  -6.223596e-03  0 
 4.344179e-03  -4.472650e-03  0 
 3.712128e-03  -4.498106e-03  0 
 4.111957e-03  -3.956316e-03  0 
 1.360713e-02  -1.260075e-03  0 
 2.844619e-02  -3.943430e-03  0 
 7.882733e-03  -2.465265e-03  0 
 9.485456e-03  -6.760077e-03  0 
 5.839476e-03  -2.338865e-03  0 
 1.519590e-02  -2.709039e-03  0 
 2.222839e-02  -7.045327e-03  0 
 6.414602e-03  -2.172850e-03  0 
 7.495231e-03  -3.998115e-03  0 
 8.968112e-03  -1.253935e-03  0 
 1.404549e-02  -4.002373e-03  0 
 1.018361e-02  -6.377213e-04  0 
 1.901130e-02  -1.443361e-03  0 
VECTORS displacement_ITER9 FLOAT
 4.776097e-03  -5.035297e-03  0 
 2.855414e-03  -5.924966e-03  0 
 4.321356e-02  -6.160001e-03  0 
 4.762686e-03  -3.769979e-03  0 
 4.769063e-03  -4.402497e-03  0 
 3.514883e-03  -5.001249e-03  0 
 4.146258e-03  -5.017893e-03  0 
 2.730180e-03  -5.171060e-03  0 
 2.791129e-03  -5.481217e-03  0 
 1.255703e-02  -1.167867e-02  0 
 1.994530e-02  -1.428373e-02  0 
 2.981948e-02  -1.340489e-02  0 
 1.285611e-02  -5.898740e-03  0 
 2.301300e-02  -6.061140e-03  0 
 3.307903e-02  -6.027977e-03  0 
 4.274749e-03  -4.384548e-03  0 
 3.677683e-03  -4.405743e-03  0 
 4.055958e-03  -3.897803e-03  0 
 1.358426e-02  -1.201050e-03  0 
 2.845248e-02  -3.842454e-03  0 
 7.983487e-03  -2.408448e-03  0 
 9.441229e-03  -6.669833e-03  0 
 5.599833e-03  -2.122335e-03  0 
 1.519491e-02  -2.623016e-03  0 
 2.221071e-02  -6.978303e-03  0 
 6.322638e-03  -2.064890e-03  0 
 7.455227e-03  -3.905086e-03  0 
 8.926599e-03  -1.197493e-03  0 
 1.401336e-02  -3.933129e-03  0 
 1.016346e-02  -6.002809e-04  0 
 1.900202e-02  -1.364957e-03  0 
VECTORS displacement_ITER10 FLOAT
 4.723032e-03  -4.910148e-03  0 
 2.770121e-03  -5.738261e-03  0 
 4.310396e-02  -5.952564e-03  0 
 4.711326e-03  -3.677146e-03  0 
 4.716383e-03  -4.292568e-03  0 
 3.502935e-03  -4.860708e-03  0 
 4.105068e-03  -4.894916e-03  0 
 2.712163e-03  -5.040107e-03  0 
 2.753209e-03  -5.347794e-03  0 
 1.252396e-02  -1.157158e-02  0 
 1.992201e-02  -1.420263e-02  0 
 2.976252e-02  -1.330194e-02  0 
 1.285271e-02  -5.813626e-03  0 
 2.295749e-02  -5.780611e-03  0 
 3.315553e-02  -6.065755e-03  0 
 4.233658e-03  -4.275214e-03  0 
 3.645948e-03  -4.300515e-03  0 
 4.017661e-03  -3.793328e-03  0 
 1.354117e-02  -1.084488e-03  0 
 2.847483e-02  -3.771150e-03  0 
 7.954913e-03  -2.249121e-03  0 
 9.402305e-03  -6.549825e-03  0 
 5.541290e-03  -2.093695e-03  0 
 1.522456e-02  -2.464683e-03  0 
 2.220187e-02  -6.898143e-03  0 
 6.391963e-03  -1.871393e-03  0 
 7.429367e-03  -3.780698e-03  0 
 8.866506e-03  -1.121308e-03  0 
 1.397722e-02  -3.824247e-03  0 
 1.019091e-02  -4.105536e-04  0 
 1.896752e-02  -1.237623e-03  0 
VECTORS displacement_ITER11 FLOAT
 4.723163e-03  -4.900228e-03  0 
 2.757997e-03  -5.698981e-03  0 
 4.311102e-02  -5.923331e-03  0 
 4.709777e-03  -3.664156e-03  0 
 4.715748e-03  -4.280536e-03  0 
 3.494055e-03  -4.854159e-03  0 
 4.102708e-03  -4.885618e-03  0 
 2.699371e-03  -5.017058e-03  0 
 2.737989e-03  -5.313664e-03  0 
 1.250074e-02  -1.153774e-02  0 
 1.988176e-02  -1.413954e-02  0 
 2.973483e-02  -1.323434e-02  0 
 1.284721e-02  -5.772022e-03  0 
 2.295997e-02  -5.838351e-03  0 
 3.304766e-02  -5.879280e-03  0 
 4.231945e-03  -4.262263e-03  0 
 3.640448e-03  -4.286721e-03  0 
 4.015727e-03  -3.780081e-03  0 
 1.353302e-02  -1.058527e-03  0 
 2.841378e-02  -3.679241e-03  0 
 7.941928e-03  -2.222741e-03  0 
 9.392609e-03  -6.532381e-03  0 
 5.476302e-03  -2.026886e-03  0 
 1.519789e-02  -2.450080e-03  0 
 2.215871e-02  -6.834025e-03  0 
 6.383245e-03  -1.851872e-03  0 
 7.421145e-03  -3.770803e-03  0 
 8.858853e-03  -1.109823e-03  0 
 1.396301e-02  -3.801670e-03  0 
 1.017821e-02  -3.869091e-04  0 
 1.896255e-02  -1.200627e-03  0 
VECTORS displacement_ITER12 FLOAT
 4.720767e-03  -4.896990e-03  0 
 2.749455e-03  -5.686453e-03  0 
 4.312150e-02  -5.904428e-03  0 
 4.707371e-03  -3.662504e-03  0 
 4.713359e-03  -4.278129e-03  0 
 3.493161e-03  -4.851098e-03  0 
 4.101157e-03  -4.882367e-03  0 
 2.701118e-03  -5.012975e-03  0 
 2.738220e-03  -5.307271e-03  0 
 1.250075e-02  -1.153572e-02  0 
 1.988387e-02  -1.413700e-02  0 
 2.973972e-02  -1.322806e-02  0 
 1.285535e-02  -5.775815e-03  0 
 2.296111e-02  -5.836360e-03  0 
 3.305017e-02  -5.874148e-03  0 
 4.230200e-03  -4.259884e-03  0 
 3.639564e-03  -4.284327e-03  0 
 4.014365e-03  -3.778495e-03  0 
 1.353407e-02  -1.052778e-03  0 
 2.841900e-02  -3.671536e-03  0 
 7.941176e-03  -2.213882e-03  0 
 9.392652e-03  -6.528949e-03  0 
 5.484876e-03  -2.037002e-03  0 
 1.520241e-02  -2.448417e-03  0 
 2.216252e-02  -6.828810e-03  0 
 6.386270e-03  -1.846418e-03  0 
 7.420817e-03  -3.766376e-03  0 
 8.857489e-03  -1.105315e-03  0 
 1.396494e-02  -3.797143e-03  0 
 1.017914e-02  -3.785518e-04  0 
 1.896657e-02  -1.195632e-03  0 
VECTORS displacement_ITER13 FLOAT
 4.720705e-03  -4.897395e-03  0 
 2.749479e-03  -5.687400e-03  0 
 4.312159e-02  -5.905184e-03  0 
 4.707301e-03  -3.662902e-03  0 
 4.713293e-03  -4.278527e-03  0 
 3.493065e-03  -4.851540e-03  0 
 4.101096e-03  -4.882767e-03  0 
 2.701166e-03  -5.013597e-03  0 
 2.738277e-03  -5.308075e-03  0 
 1.250078e-02  -1.153631e-02  0 
 1.988395e-02  -1.413771e-02  0 
 2.973980e-02  -1.322881e-02  0 
 1.285551e-02  -5.776701e-03  0 
 2.296113e-02  -5.837152e-03  0 
 3.305024e-02  -5.874876e-03  0 
 4.230132e-03  -4.260278e-03  0 
 3.639500e-03  -4.284709e-03  0 
 4.014276e-03  -3.778861e-03  0 
 1.353406e-02  -1.053463e-03  0 
 2.841905e-02  -3.672277e-03  0 
 7.941258e-03  -2.214623e-03  0 
 9.392640e-03  -6.529507e-03  0 
 5.484550e-03  -2.037307e-03  0 
 1.520247e-02  -2.449226e-03  0 
 2.216256e-02  -6.829539e-03  0 
 6.386168e-03  -1.847050e-03  0 
 7.420765e-03  -3.766915e-03  0 
 8.857445e-03  -1.105931e-03  0 
 1.396493e-02  -3.797795e-03  0 
 1.017912e-02  -3.792741e-04  0 
 1.896660e-02  -1.196384e-03  0 
VECTORS displacement_ITER14 FLOAT
 4.720612e-03  -4.897283e-03  0 
 2.749470e-03  -5.687280e-03  0 
 4.312157e-02  -5.905068e-03  0 
 4.707209e-03  -3.662836e-03  0 
 4.713201e-03  -4.278438e-03  0 
 3.493020e-03  -4.851427e-03  0 
 4.101026e-03  -4.882655e-03  0 
 2.701160e-03  -5.013494e-03  0 
 2.738285e-03  -5.307963e-03  0 
 1.250072e-02  -1.153621e-02  0 
 1.988390e-02  -1.413761e-02  0 
 2.973976e-02  -1.322871e-02  0 
 1.285549e-02  -5.776586e-03  0 
 2.296111e-02  -5.837035e-03  0 
 3.305022e-02  -5.874755e-03  0 
 4.230058e-03  -4.260190e-03  0 
 3.639447e-03  -4.284620e-03  0 
 4.014210e-03  -3.778791e-03  0 
 1.353403e-02  -1.053341e-03  0 
 2.841903e-02  -3.672160e-03  0 
 7.941244e-03  -2.214505e-03  0 
 9.392580e-03  -6.529392e-03  0 
 5.484531e-03  -2.037188e-03  0 
 1.520246e-02  -2.449106e-03  0 
 2.216253e-02  -6.829428e-03  0 
 6.386152e-03  -1.846934e-03  0 
 7.420716e-03  -3.766797e-03  0 
 8.857414e-03  -1.105809e-03  0 
 1.396489e-02  -3.797675e-03  0 
 1.017910e-02  -3.791529e-04  0 
 1.896657e-02  -1.196263e-03  0 
CELL_DATA 42
TENSORS element_stresses FLOAT
 1.630215e-02  1.125740e-02  0 
 1.125740e-02  -2.555320e-02  0 
 0  0  0 

 2.173182e-02  4.940442e-02  0 
 4.940442e-02  -1.183915e-01  0 
 0  0  0 

 -1.156336e-02  3.962922e-02  0 
 3.962922e-02  -2.410862e-02  0 
 0  0  0 

 2.254559e-02  1.998944e-02  0 
 1.998944e-02  -1.525362e-02  0 
 0  0  0 

 6.971074e-03  1.556602e-02  0 
 1.556602e-02  1.047784e-02  0 
 0  0  0 

 2.265159e-02  1.167968e-03  0 
 1.167968e-03  -2.331579e-02  0 
 0  0  0 

 1.207158e-02  1.898846e-02  0 
 1.898846e-02  -5.489063e-02  0 
 0  0  0 

 2.491170e-02  2.235765e-02  0 
 2.235765e-02  7.322628e-03  0 
 0  0  0 

 5.383086e-03  1.962136e-02  0 
 1.962136e-02  1.744861e-02  0 
 0  0  0 

 2.390097e-02  4.839112e-03  0 
 4.839112e-03  -1.877252e-02  0 
 0  0  0 

 1.988983e-02  6.077143e-03  0 
 6.077143e-03  5.842039e-03  0 
 0  0  0 

 1.670257e-02  1.823589e-02  0 
 1.823589e-02  4.768977e-03  0 
 0  0  0 

 3.202765e-02  1.157768e-02  0 
 1.157768e-02  -2.465265e-02  0 
 0  0  0 

 1.515893e-02  1.985112e-02  0 
 1.985112e-02  5.814967e-03  0 
 0  0  0 

 3.660150e-02  2.594495e-02  0 
 2.594495e-02  -1.035800e-02  0 
 0  0  0 

 1.033657e-02  1.112964e-02  0 
 1.112964e-02  6.716625e-03  0 
 0  0  0 

 2.488206e-02  5.342726e-03  0 
 5.342726e-03  -8.392555e-03  0 
 0  0  0 

 1.383036e-02  1.574877e-02  0 
 1.574877e-02  7.079548e-03  0 
 0  0  0 

 2.859855e-02  1.501510e-02  0 
 1.501510e-02  -2.751856e-02  0 
 0  0  0 

 1.717881e-02  9.829612e-04  0 
 9.829612e-04  -8.456927e-03  0 
 0  0  0 

 1.840166e-02  1.295326e-02  0 
 1.295326e-02  2.776681e-03  0 
 0  0  0 

 1.629598e-02  1.078239e-02  0 
 1.078239e-02  -3.091414e-03  0 
 0  0  0 

 2.094146e-02  1.212489e-02  0 
 1.212489e-02  -7.012490e-03  0 
 0  0  0 

 2.373438e-02  1.014145e-02  0 
 1.014145e-02  -5.490119e-03  0 
 0  0  0 

 9.026176e-03  1.705758e-02  0 
 1.705758e-02  1.655499e-02  0 
 0  0  0 

 1.080101e-02  1.465833e-02  0 
 1.465833e-02  1.756943e-02  0 
 0  0  0 

 1.829328e-02  2.119951e-02  0 
 2.119951e-02  1.964294e-03  0 
 0  0  0 

 1.447055e-02  1.420471e-02  0 
 1.420471e-02  8.724341e-03  0 
 0  0  0 

 2.664800e-02  4.109625e-03  0 
 4.109625e-03  -2.318101e-02  0 
 0  0  0 

 3.081301e-02  1.199096e-02  0 
 1.199096e-02  -2.426355e-02  0 
 0  0  0 

 2.515036e-02  1.259867e-02  0 
 1.259867e-02  -6.048521e-03  0 
 0  0  0 

 2.649839e-02  1.540817e-02  0 
 1.540817e-02  -1.620377e-02  0 
 0  0  0 

 2.048963e-02  1.774372e-02  0 
 1.774372e-02  3.249183e-03  0 
 0  0  0 

 1.954717e-02  1.492781e-02  0 
 1.492781e-02  2.394738e-03  0 
 0  0  0 

 2.231203e-02  2.142952e-02  0 
 2.142952e-02  2.849415e-03  0 
 0  0  0 

 1.585751e-02  1.714082e-02  0 
 1.714082e-02  5.623570e-03  0 
 0  0  0 

 5.266193e-03  1.935825e-02  0 
 1.935825e-02  1.740484e-02  0 
 0  0  0 

 1.147855e-02  2.040938e-02  0 
 2.040938e-02  3.086337e-03  0 
 0  0  0 

 4.854918e-02  3.539921e-02  0 
 3.539921e-02  -1.659346e-02  0 
 0  0  0 

 2.492347e-02  2.230240e-02  0 
 2.230240e-02  7.355793e-03  0 
 0  0  0 

 2.219680e-02  -3.051406e-03  0 
 -3.051406e-03  6.600529e-03  0 
 0  0  0 

 2.550918e-02  -7.552753e-03  0 
 -7.552753e-03  -1.870416e-02  0 
 0  0  0 

TENSORS element_stresses FLOAT
 1.630215e-02  1.125740e-02  0 
 1.125740e-02  -2.555320e-02  0 
 0  0  0 

 2.173182e-02  4.940442e-02  0 
 4.940442e-02  -1.183915e-01  0 
 0  0  0 

 -1.156336e-02  3.962922e-02  0 
 3.962922e-02  -2.410862e-02  0 
 0  0  0 

 2.254559e-02  1.998944e-02  0 
 1.998944e-02  -1.525362e-02  0 
 0  0  0 

 6.971074e-03  1.556602e-02  0 
 1.556602e-02  1.047784e-02  0 
 0  0  0 

 2.265159e-02  1.167968e-03  0 
 1.167968e-03  -2.331579e-02  0 
 0  0  0 

 1.207158e-02  1.898846e-02  0 
 1.898846e-02  -5.489063e-02  0 
 0  0  0 

 2.491170e-02  2.235765e-02  0 
 2.235765e-02  7.322628e-03  0 
 0  0  0 

 5.383086e-03  1.962136e-02  0 
 1.962136e-02  1.744861e-02  0 
 0  0  0 

 2.390097e-02  4.839112e-03  0 
 4.839112e-03  -1.877252e-02  0 
 0  0  0 

 1.988983e-02  6.077143e-03  0 
 6.077143e-03  5.842039e-03  0 
 0  0  0 

 1.670257e-02  1.823589e-02  0 
 1.823589e-02  4.768977e-03  0 
 0  0  0 

 3.202765e-02  1.157768e-02  0 
 1.157768e-02  -2.465265e-02  0 
 0  0  0 

 1.515893e-02  1.985112e-02  0 
 1.985112e-02  5.814967e-03  0 
 0  0  0 

 3.660150e-02  2.594495e-02  0 
 2.594495e-02  -1.035800e-02  0 
 0  0  0 

 1.033657e-02  1.112964e-02  0 
 1.112964e-02  6.716625e-03  0 
 0  0  0 

 2.488206e-02  5.342726e-03  0 
 5.342726e-03  -8.392555e-03  0 
 0  0  0 

 1.383036e-02  1.574877e-02  0 
 1.574877e-02  7.079548e-03  0 
 0  0  0 

 2.859855e-02  1.501510e-02  0 
 1.501510e-02  -2.751856e-02  0 
 0  0  0 

 1.717881e-02  9.829612e-04  0 
 9.829612e-04  -8.456927e-03  0 
 0  0  0 

 1.840166e-02  1.295326e-02  0 
 1.295326e-02  2.776681e-03  0 
 0  0  0 

 1.629598e-02  1.078239e-02  0 
 1.078239e-02  -3.091414e-03  0 
 0  0  0 

 2.094146e-02  1.212489e-02  0 
 1.212489e-02  -7.012490e-03  0 
 0  0  0 

 2.373438e-02  1.014145e-02  0 
 1.014145e-02  -5.490119e-03  0 
 0  0  0 

 9.026176e-03  1.705758e-02  0 
 1.705758e-02  1.655499e-02  0 
 0  0  0 

 1.080101e-02  1.465833e-02  0 
 1.465833e-02  1.756943e-02  0 
 0  0  0 

 1.829328e-02  2.119951e-02  0 
 2.119951e-02  1.964294e-03  0 
 0  0  0 

 1.447055e-02  1.420471e-02  0 
 1.420471e-02  8.724341e-03  0 
 0  0  0 

 2.664800e-02  4.109625e-03  0 
 4.109625e-03  -2.318101e-02  0 
 0  0  0 

 3.081301e-02  1.199096e-02  0 
 1.199096e-02  -2.426355e-02  0 
 0  0  0 

 2.515036e-02  1.259867e-02  0 
 1.259867e-02  -6.048521e-03  0 
 0  0  0 

 2.649839e-02  1.540817e-02  0 
 1.540817e-02  -1.620377e-02  0 
 0  0  0 

 2.048963e-02  1.774372e-02  0 
 1.774372e-02  3.249183e-03  0 
 0  0  0 

 1.954717e-02  1.492781e-02  0 
 1.492781e-02  2.394738e-03  0 
 0  0  0 

 2.231203e-02  2.142952e-02  0 
 2.142952e-02  2.849415e-03  0 
 0  0  0 

 1.585751e-02  1.714082e-02  0 
 1.714082e-02  5.623570e-03  0 
 0  0  0 

 5.266193e-03  1.935825e-02  0 
 1.935825e-02  1.740484e-02  0 
 0  0  0 

 1.147855e-02  2.040938e-02  0 
 2.040938e-02  3.086337e-03  0 
 0  0  0 

 4.854918e-02  3.539921e-02  0 
 3.539921e-02  -1.659346e-02  0 
 0  0  0 

 2.492347e-02  2.230240e-02  0 
 2.230240e-02  7.355793e-03  0 
 0  0  0 

 2.219680e-02  -3.051406e-03  0 
 -3.051406e-03  6.600529e-03  0 
 0  0  0 

 2.550918e-02  -7.552753e-03  0 
 -7.552753e-03  -1.870416e-02  0 
 0  0  0 

