# vtk DataFile Version 3.1
this is an vtk file created by FEMAC
ASCII
DATASET UNSTRUCTURED_GRID
POINTS 32 FLOAT
0.000000 2.000000 0.000000
0.000000 3.000000 0.000000
1.000000 3.000000 0.000000
0.250000 2.000000 0.000000
0.500000 2.000000 0.000000
0.750000 2.000000 0.000000
0.250000 3.000000 0.000000
0.500000 3.000000 0.000000
0.750000 3.000000 0.000000
0.000000 2.250000 0.000000
0.000000 2.500000 0.000000
0.000000 2.750000 0.000000
0.000000 3.250000 0.000000
0.000000 3.500000 0.000000
0.272476 2.537430 0.000000
0.660302 2.785301 0.000000
0.660045 2.212404 0.000000
0.162952 2.171693 0.000000
0.594871 2.497465 0.000000
0.400442 2.782533 0.000000
0.372389 2.253823 0.000000
0.165804 2.339408 0.000000
0.847252 2.832715 0.000000
0.153820 2.761660 0.000000
0.272476 3.537430 0.000000
0.660045 3.212404 0.000000
0.162952 3.171693 0.000000
0.825570 3.361866 0.000000
0.594871 3.497465 0.000000
0.372389 3.253823 0.000000
0.165804 3.339408 0.000000
0.847123 3.164854 0.000000
CELLS 43 172 
3 7 15  8
3 16  4  5
3 3 17  0
3 17  9  0
3 19 15  7
3 16 20  4
3 18 19 14
3 18 15 19
3 20 18 14
3 16 18 20
3 20  3  4
3 17  3 20
3 6 19  7
3 17 21  9
3 8 22  2
3 22  8 15
3 21 20 14
3 17 20 21
3 21 10  9
3 10 21 14
3 23  6  1
3 11 23  1
3 10 23 11
3 19 23 14
3 23 19  6
3 10 14 23
3 25  7  8
3 6 26  1
3 26 12  1
3 28 25 27
3 25 29  7
3 29 28 24
3 25 28 29
3 29  6  7
3 26  6 29
3 26 30 12
3 31  8  2
3 8 31 25
3 30 29 24
3 26 29 30
3 27 25 31
3 30 13 12
3 13 30 24
CELL_TYPES 43
5 5 5 5 5 5 5 5 5 5 5 5 5 5 5 5 5 5 5 5 5 5 5 5 5 5 5 5 5 5 5 5 5 5 5 5 5 5 5 5 5 5 5 
POINT_DATA 32
VECTORS displacement_ITER1 FLOAT
 0  0  0 
 0  0  0 
 2.357368e-04  -5.873810e-04  0 
 -3.028093e-05  -4.449867e-05  0 
 -4.384309e-05  -7.525643e-05  0 
 -6.183254e-05  -1.364545e-04  0 
 5.457128e-05  -5.111842e-05  0 
 1.145614e-04  -1.332590e-04  0 
 1.939322e-04  -3.011422e-04  0 
 0  0  0 
 0  0  0 
 0  0  0 
 0  0  0 
 0  0  0 
 -3.780421e-06  -2.975436e-05  0 
 3.298724e-05  -1.705184e-04  0 
 -1.506518e-05  -9.525282e-05  0 
 -6.730548e-06  -1.663048e-05  0 
 -6.974852e-06  -8.770964e-05  0 
 1.888639e-05  -6.453304e-05  0 
 -1.162928e-05  -4.875993e-05  0 
 -3.763204e-06  -1.760632e-05  0 
 6.300714e-05  -3.784562e-04  0 
 4.827879e-06  -8.289510e-06  0 
 3.846278e-03  -2.915341e-03  0 
 1.864618e-03  -4.035818e-03  0 
 2.273942e-04  8.696963e-05  0 
 9.128886e-03  -1.564255e-02  0 
 7.614108e-03  -7.392386e-03  0 
 7.877329e-04  -6.040932e-04  0 
 4.482060e-04  1.241606e-04  0 
 3.628581e-03  -7.726011e-03  0 
VECTORS displacement_ITER2 FLOAT
 0  0  0 
 0  0  0 
 1.967609e-04  -5.002624e-04  0 
 -3.654340e-05  -4.640475e-05  0 
 -5.897393e-05  -8.266201e-05  0 
 -8.629740e-05  -1.533614e-04  0 
 4.458948e-05  -4.102219e-05  0 
 9.369135e-05  -1.082821e-04  0 
 1.593290e-04  -2.501075e-04  0 
 0  0  0 
 0  0  0 
 0  0  0 
 0  0  0 
 0  0  0 
 -4.270801e-06  -2.494939e-05  0 
 2.277528e-05  -1.419188e-04  0 
 -3.013627e-05  -9.746613e-05  0 
 -8.439897e-06  -1.475578e-05  0 
 -1.002726e-05  -7.776298e-05  0 
 1.417981e-05  -5.302992e-05  0 
 -1.615131e-05  -4.469634e-05  0 
 -5.088141e-06  -1.459133e-05  0 
 4.617332e-05  -3.160356e-04  0 
 3.640333e-06  -6.496093e-06  0 
 3.434182e-03  -2.621768e-03  0 
 1.972956e-03  -3.276343e-03  0 
 2.501231e-04  1.083460e-04  0 
 8.517488e-03  -1.309261e-02  0 
 6.841344e-03  -6.435902e-03  0 
 8.425235e-04  -4.917408e-04  0 
 4.387414e-04  9.557497e-05  0 
 3.460751e-03  -6.472653e-03  0 
VECTORS displacement_ITER3 FLOAT
 0  0  0 
 0  0  0 
 1.964915e-04  -4.903251e-04  0 
 -4.505564e-05  -4.894320e-05  0 
 -7.613315e-05  -9.122345e-05  0 
 -1.124083e-04  -1.737616e-04  0 
 4.166929e-05  -3.510349e-05  0 
 8.973652e-05  -9.720800e-05  0 
 1.557074e-04  -2.375307e-04  0 
 0  0  0 
 0  0  0 
 0  0  0 
 0  0  0 
 0  0  0 
 -5.902638e-06  -2.105809e-05  0 
 1.825579e-05  -1.306093e-04  0 
 -4.532202e-05  -1.052947e-04  0 
 -1.110989e-05  -1.324359e-05  0 
 -1.618188e-05  -7.362169e-05  0 
 1.225074e-05  -4.542713e-05  0 
 -2.189757e-05  -4.356564e-05  0 
 -6.844339e-06  -1.237151e-05  0 
 4.193147e-05  -3.022835e-04  0 
 3.086060e-06  -3.944853e-06  0 
 3.440357e-03  -2.673695e-03  0 
 2.525595e-03  -2.779379e-03  0 
 3.322840e-04  1.546034e-04  0 
 9.098339e-03  -1.166292e-02  0 
 6.911255e-03  -6.189506e-03  0 
 1.090950e-03  -4.365261e-04  0 
 5.088018e-04  5.886589e-05  0 
 3.935079e-03  -5.777536e-03  0 
VECTORS displacement_ITER4 FLOAT
 0  0  0 
 0  0  0 
 1.803763e-04  -4.442517e-04  0 
 -4.502987e-05  -4.104330e-05  0 
 -7.708876e-05  -8.280240e-05  0 
 -1.143871e-04  -1.712099e-04  0 
 3.917512e-05  -3.313306e-05  0 
 8.379412e-05  -8.897116e-05  0 
 1.435584e-04  -2.147466e-04  0 
 0  0  0 
 0  0  0 
 0  0  0 
 0  0  0 
 0  0  0 
 -4.278473e-06  -1.825565e-05  0 
 1.953661e-05  -1.190548e-04  0 
 -4.153108e-05  -9.958827e-05  0 
 -1.097302e-05  -9.099552e-06  0 
 -1.195188e-05  -6.745657e-05  0 
 1.318700e-05  -4.172274e-05  0 
 -1.968456e-05  -3.724927e-05  0 
 -6.184281e-06  -9.556446e-06  0 
 4.105315e-05  -2.734290e-04  0 
 3.298040e-06  -3.600863e-06  0 
 2.750347e-03  -2.170250e-03  0 
 2.406930e-03  -1.825077e-03  0 
 3.280237e-04  1.522270e-04  0 
 7.726414e-03  -8.198759e-03  0 
 5.571883e-03  -4.744309e-03  0 
 1.051754e-03  -3.065153e-04  0 
 4.574077e-04  1.930589e-05  0 
 3.389539e-03  -4.104696e-03  0 
VECTORS displacement_ITER5 FLOAT
 0  0  0 
 0  0  0 
 1.567407e-04  -3.993083e-04  0 
 -4.779299e-05  -3.869424e-05  0 
 -8.253723e-05  -8.247851e-05  0 
 -1.230575e-04  -1.807844e-04  0 
 3.794022e-05  -3.434461e-05  0 
 7.870708e-05  -8.693128e-05  0 
 1.292540e-04  -1.986041e-04  0 
 0  0  0 
 0  0  0 
 0  0  0 
 0  0  0 
 0  0  0 
 -2.938270e-06  -1.835540e-05  0 
 2.082642e-05  -1.163750e-04  0 
 -4.141360e-05  -1.030374e-04  0 
 -1.147662e-05  -7.040857e-06  0 
 -8.313751e-06  -6.879302e-05  0 
 1.434300e-05  -4.303158e-05  0 
 -1.929009e-05  -3.550583e-05  0 
 -6.108939e-06  -8.422602e-06  0 
 3.905439e-05  -2.529532e-04  0 
 3.539667e-06  -4.675053e-06  0 
 1.679572e-03  -1.356620e-03  0 
 1.805301e-03  -7.575656e-04  0 
 2.582824e-04  1.114702e-04  0 
 5.134008e-03  -3.970493e-03  0 
 3.443516e-03  -2.710000e-03  0 
 8.028545e-04  -1.565188e-04  0 
 3.252647e-04  -1.669129e-05  0 
 2.216899e-03  -2.069632e-03  0 
VECTORS displacement_ITER6 FLOAT
 0  0  0 
 0  0  0 
 1.475408e-04  -3.880640e-04  0 
 -5.556997e-05  -4.301462e-05  0 
 -9.776857e-05  -9.036142e-05  0 
 -1.464888e-04  -1.974316e-04  0 
 3.597764e-05  -3.134372e-05  0 
 7.516019e-05  -8.163956e-05  0 
 1.230160e-04  -1.911815e-04  0 
 0  0  0 
 0  0  0 
 0  0  0 
 0  0  0 
 0  0  0 
 -4.606921e-06  -1.648827e-05  0 
 1.700426e-05  -1.124938e-04  0 
 -5.594735e-05  -1.112031e-04  0 
 -1.407825e-05  -6.785440e-06  0 
 -1.347974e-05  -6.897772e-05  0 
 1.260431e-05  -3.984235e-05  0 
 -2.555369e-05  -3.579837e-05  0 
 -8.168609e-06  -7.173962e-06  0 
 3.388434e-05  -2.463299e-04  0 
 2.938357e-06  -3.386283e-06  0 
 1.158182e-03  -9.697002e-04  0 
 1.619314e-03  -1.567375e-04  0 
 2.393784e-04  1.009607e-04  0 
 3.963495e-03  -1.654473e-03  0 
 2.416072e-03  -1.674417e-03  0 
 7.294993e-04  -7.549415e-05  0 
 2.745782e-04  -4.165917e-05  0 
 1.754570e-03  -9.557536e-04  0 
VECTORS displacement_ITER7 FLOAT
 0  0  0 
 0  0  0 
 1.262226e-04  -3.486818e-04  0 
 -5.759765e-05  -4.479419e-05  0 
 -1.023302e-04  -9.340287e-05  0 
 -1.554318e-04  -2.067481e-04  0 
 3.518935e-05  -3.282036e-05  0 
 7.124113e-05  -8.094667e-05  0 
 1.109072e-04  -1.786791e-04  0 
 0  0  0 
 0  0  0 
 0  0  0 
 0  0  0 
 0  0  0 
 -3.621572e-06  -1.710002e-05  0 
 1.845958e-05  -1.115757e-04  0 
 -5.771138e-05  -1.152531e-04  0 
 -1.427886e-05  -6.702624e-06  0 
 -1.096738e-05  -7.107522e-05  0 
 1.370363e-05  -4.154696e-05  0 
 -2.600520e-05  -3.593529e-05  0 
 -8.257178e-06  -6.962809e-06  0 
 3.272018e-05  -2.304212e-04  0 
 3.184441e-06  -4.451488e-06  0 
 1.452706e-04  -1.954889e-04  0 
 1.014191e-03  8.262613e-04  0 
 1.685384e-04  5.997120e-05  0 
 1.480070e-03  2.261958e-03  0 
 4.003618e-04  2.381132e-04  0 
 4.786465e-04  6.483996e-05  0 
 1.452978e-04  -7.263018e-05  0 
 6.056798e-04  9.259283e-04  0 
VECTORS displacement_ITER8 FLOAT
 0  0  0 
 0  0  0 
 1.051063e-04  -3.148631e-04  0 
 -5.804417e-05  -4.607731e-05  0 
 -1.039085e-04  -9.309142e-05  0 
 -1.595565e-04  -2.053293e-04  0 
 3.285782e-05  -3.182005e-05  0 
 6.532018e-05  -7.731105e-05  0 
 9.819691e-05  -1.655182e-04  0 
 0  0  0 
 0  0  0 
 0  0  0 
 0  0  0 
 0  0  0 
 -3.765640e-06  -1.668790e-05  0 
 1.699520e-05  -1.074314e-04  0 
 -6.025340e-05  -1.143939e-04  0 
 -1.445028e-05  -6.940419e-06  0 
 -1.117632e-05  -6.990650e-05  0 
 1.279666e-05  -4.070914e-05  0 
 -2.719265e-05  -3.514001e-05  0 
 -8.681955e-06  -6.638930e-06  0 
 2.833570e-05  -2.154962e-04  0 
 2.863434e-06  -4.651762e-06  0 
 -7.778387e-04  5.345248e-04  0 
 2.060155e-04  1.478382e-03  0 
 6.451597e-05  4.080225e-06  0 
 -1.059855e-03  5.130375e-03  0 
 -1.462974e-03  1.859358e-03  0 
 1.338249e-04  1.690477e-04  0 
 -5.162869e-06  -8.162526e-05  0 
 -6.419358e-04  2.304434e-03  0 
VECTORS displacement_ITER9 FLOAT
 0  0  0 
 0  0  0 
 9.648212e-05  -3.003287e-04  0 
 -5.678526e-05  -4.670583e-05  0 
 -1.025933e-04  -9.138459e-05  0 
 -1.602889e-04  -2.016984e-04  0 
 3.252734e-05  -3.245519e-05  0 
 6.388763e-05  -7.732460e-05  0 
 9.397136e-05  -1.608385e-04  0 
 0  0  0 
 0  0  0 
 0  0  0 
 0  0  0 
 0  0  0 
 -3.199536e-06  -1.659926e-05  0 
 1.830845e-05  -1.065714e-04  0 
 -5.913260e-05  -1.112554e-04  0 
 -1.389011e-05  -7.186885e-06  0 
 -9.234725e-06  -6.883051e-05  0 
 1.331156e-05  -4.120233e-05  0 
 -2.675398e-05  -3.397565e-05  0 
 -8.536288e-06  -6.469911e-06  0 
 2.835343e-05  -2.101450e-04  0 
 2.952585e-06  -5.046762e-06  0 
 -1.308752e-03  9.582601e-04  0 
 -2.881023e-04  1.831132e-03  0 
 1.088157e-06  -3.054015e-05  0 
 -2.547152e-03  6.713478e-03  0 
 -2.536653e-03  2.783493e-03  0 
 -7.660197e-05  2.273096e-04  0 
 -9.495259e-05  -8.454199e-05  0 
 -1.392163e-03  3.061173e-03  0 
VECTORS displacement_ITER10 FLOAT
 0  0  0 
 0  0  0 
 7.161413e-05  -2.612916e-04  0 
 -5.626824e-05  -4.840229e-05  0 
 -1.028574e-04  -9.113898e-05  0 
 -1.633120e-04  -1.980023e-04  0 
 2.825424e-05  -2.954756e-05  0 
 5.416099e-05  -6.988958e-05  0 
 7.657178e-05  -1.418510e-04  0 
 0  0  0 
 0  0  0 
 0  0  0 
 0  0  0 
 0  0  0 
 -3.518740e-06  -1.597517e-05  0 
 1.389816e-05  -9.793233e-05  0 
 -6.132919e-05  -1.080647e-04  0 
 -1.368539e-05  -7.737740e-06  0 
 -9.849897e-06  -6.547833e-05  0 
 1.078491e-05  -3.870109e-05  0 
 -2.753797e-05  -3.288837e-05  0 
 -8.834301e-06  -6.277823e-06  0 
 1.965232e-05  -1.884907e-04  0 
 2.269212e-06  -5.135352e-06  0 
 -1.930263e-03  1.470047e-03  0 
 -1.012014e-03  2.108476e-03  0 
 -9.626401e-05  -7.916857e-05  0 
 -4.445535e-03  8.161958e-03  0 
 -3.806747e-03  3.797241e-03  0 
 -3.897942e-04  2.863000e-04  0 
 -2.190997e-04  -7.509553e-05  0 
 -2.372293e-03  3.762617e-03  0 
VECTORS displacement_ITER11 FLOAT
 0  0  0 
 0  0  0 
 6.014055e-05  -2.424391e-04  0 
 -5.426319e-05  -4.782909e-05  0 
 -9.972737e-05  -8.843821e-05  0 
 -1.605835e-04  -1.916633e-04  0 
 2.581498e-05  -2.794047e-05  0 
 4.864376e-05  -6.561711e-05  0 
 6.751241e-05  -1.314330e-04  0 
 0  0  0 
 0  0  0 
 0  0  0 
 0  0  0 
 0  0  0 
 -3.293431e-06  -1.582255e-05  0 
 1.135039e-05  -9.252018e-05  0 
 -5.874875e-05  -1.033153e-04  0 
 -1.294633e-05  -7.771275e-06  0 
 -8.865377e-06  -6.278852e-05  0 
 9.320654e-06  -3.741326e-05  0 
 -2.634188e-05  -3.162944e-05  0 
 -8.490937e-06  -6.251356e-06  0 
 1.464467e-05  -1.761849e-04  0 
 1.928848e-06  -5.377546e-06  0 
 -1.926651e-03  1.486827e-03  0 
 -1.164634e-03  1.970284e-03  0 
 -1.189416e-04  -8.776712e-05  0 
 -4.596371e-03  7.739455e-03  0 
 -3.811262e-03  3.729415e-03  0 
 -4.577799e-04  2.787904e-04  0 
 -2.379672e-04  -6.073764e-05  0 
 -2.491249e-03  3.564241e-03  0 
VECTORS displacement_ITER12 FLOAT
 0  0  0 
 0  0  0 
 4.163639e-05  -2.103713e-04  0 
 -5.335707e-05  -4.800658e-05  0 
 -9.863824e-05  -8.800940e-05  0 
 -1.606303e-04  -1.888384e-04  0 
 2.155747e-05  -2.458052e-05  0 
 3.933811e-05  -5.743388e-05  0 
 5.241589e-05  -1.135832e-04  0 
 0  0  0 
 0  0  0 
 0  0  0 
 0  0  0 
 0  0  0 
 -3.437900e-06  -1.533314e-05  0 
 6.309086e-06  -8.295497e-05  0 
 -5.869013e-05  -1.003569e-04  0 
 -1.254747e-05  -7.863240e-06  0 
 -9.287086e-06  -5.922607e-05  0 
 6.631900e-06  -3.444825e-05  0 
 -2.590316e-05  -3.077339e-05  0 
 -8.367037e-06  -6.170508e-06  0 
 6.063457e-06  -1.549713e-04  0 
 1.294356e-06  -5.404734e-06  0 
 -1.947112e-03  1.521797e-03  0 
 -1.338795e-03  1.836115e-03  0 
 -1.454460e-04  -9.730978e-05  0 
 -4.830742e-03  7.364984e-03  0 
 -3.866340e-03  3.698158e-03  0 
 -5.360147e-04  2.724082e-04  0 
 -2.611811e-04  -4.662881e-05  0 
 -2.619426e-03  3.396846e-03  0 
VECTORS displacement_ITER13 FLOAT
 0  0  0 
 0  0  0 
 2.969033e-05  -1.858653e-04  0 
 -5.304983e-05  -4.806566e-05  0 
 -9.879904e-05  -8.847914e-05  0 
 -1.628801e-04  -1.886038e-04  0 
 1.729948e-05  -2.029770e-05  0 
 3.077316e-05  -4.789220e-05  0 
 4.025951e-05  -9.655454e-05  0 
 0  0  0 
 0  0  0 
 0  0  0 
 0  0  0 
 0  0  0 
 -3.661160e-06  -1.419399e-05  0 
 8.941046e-07  -7.176070e-05  0 
 -5.975154e-05  -9.766331e-05  0 
 -1.230357e-05  -7.664888e-06  0 
 -1.023248e-05  -5.454864e-05  0 
 3.838240e-06  -3.014134e-05  0 
 -2.570219e-05  -2.962242e-05  0 
 -8.275837e-06  -5.781126e-06  0 
 -2.052809e-06  -1.345052e-04  0 
 6.671466e-07  -4.935851e-06  0 
 -1.561206e-03  1.229300e-03  0 
 -1.081813e-03  1.478021e-03  0 
 -1.151740e-04  -7.561794e-05  0 
 -3.878266e-03  5.916240e-03  0 
 -3.093990e-03  2.988094e-03  0 
 -4.286239e-04  2.274915e-04  0 
 -2.085941e-04  -3.347624e-05  0 
 -2.122867e-03  2.717202e-03  0 
VECTORS displacement_ITER14 FLOAT
 0  0  0 
 0  0  0 
 1.426907e-05  -1.541920e-04  0 
 -5.185158e-05  -4.568532e-05  0 
 -9.690626e-05  -8.549999e-05  0 
 -1.614309e-04  -1.836877e-04  0 
 1.260301e-05  -1.589698e-05  0 
 2.108720e-05  -3.781817e-05  0 
 2.582181e-05  -7.710869e-05  0 
 0  0  0 
 0  0  0 
 0  0  0 
 0  0  0 
 0  0  0 
 -3.775175e-06  -1.284777e-05  0 
 -4.569418e-06  -5.968125e-05  0 
 -5.892441e-05  -9.263625e-05  0 
 -1.197250e-05  -6.709202e-06  0 
 -1.059331e-05  -4.906394e-05  0 
 9.194841e-07  -2.573249e-05  0 
 -2.484051e-05  -2.731968e-05  0 
 -8.051120e-06  -5.048484e-06  0 
 -1.054981e-05  -1.107281e-04  0 
 -2.107292e-08  -4.536602e-06  0 
 -1.194802e-03  9.568332e-04  0 
 -9.030645e-04  1.069995e-03  0 
 -9.671028e-05  -6.014207e-05  0 
 -3.053231e-03  4.351913e-03  0 
 -2.368839e-03  2.280662e-03  0 
 -3.564688e-04  1.772383e-04  0 
 -1.670342e-04  -1.661903e-05  0 
 -1.690983e-03  1.985601e-03  0 
VECTORS displacement_ITER15 FLOAT
 0  0  0 
 0  0  0 
 5.456864e-06  -1.330465e-04  0 
 -5.118470e-05  -4.293361e-05  0 
 -9.620075e-05  -8.197338e-05  0 
 -1.617731e-04  -1.794738e-04  0 
 9.102338e-06  -1.208300e-05  0 
 1.433610e-05  -2.961293e-05  0 
 1.662022e-05  -6.282836e-05  0 
 0  0  0 
 0  0  0 
 0  0  0 
 0  0  0 
 0  0  0 
 -3.944228e-06  -1.101806e-05  0 
 -8.396713e-06  -4.958975e-05  0 
 -5.925776e-05  -8.766592e-05  0 
 -1.192385e-05  -5.426950e-06  0 
 -1.102747e-05  -4.358968e-05  0 
 -1.201600e-06  -2.148184e-05  0 
 -2.460869e-05  -2.442745e-05  0 
 -8.041756e-06  -3.912439e-06  0 
 -1.616938e-05  -9.332419e-05  0 
 -5.566143e-07  -3.819297e-06  0 
 -8.290011e-04  6.799228e-04  0 
 -6.923299e-04  6.882383e-04  0 
 -7.345166e-05  -4.348158e-05  0 
 -2.198942e-03  2.874920e-03  0 
 -1.643411e-03  1.586184e-03  0 
 -2.699059e-04  1.269949e-04  0 
 -1.214139e-04  -3.385689e-06  0 
 -1.234740e-03  1.292903e-03  0 
VECTORS displacement_ITER16 FLOAT
 0  0  0 
 0  0  0 
 7.019163e-07  -1.191668e-04  0 
 -4.989819e-05  -4.060964e-05  0 
 -9.428369e-05  -7.822957e-05  0 
 -1.597304e-04  -1.745926e-04  0 
 7.654806e-06  -1.065751e-05  0 
 1.141357e-05  -2.618214e-05  0 
 1.219102e-05  -5.565226e-05  0 
 0  0  0 
 0  0  0 
 0  0  0 
 0  0  0 
 0  0  0 
 -3.774984e-06  -1.004666e-05  0 
 -9.282262e-06  -4.496150e-05  0 
 -5.802059e-05  -8.363409e-05  0 
 -1.167010e-05  -4.594552e-06  0 
 -1.038472e-05  -4.064316e-05  0 
 -1.775214e-06  -1.971611e-05  0 
 -2.400117e-05  -2.232129e-05  0 
 -7.894352e-06  -3.209018e-06  0 
 -1.766921e-05  -8.394526e-05  0 
 -7.144102e-07  -3.564796e-06  0 
 -6.183112e-04  5.179436e-04  0 
 -5.493829e-04  4.894520e-04  0 
 -5.647340e-05  -3.265269e-05  0 
 -1.684887e-03  2.086844e-03  0 
 -1.223590e-03  1.197944e-03  0 
 -2.098493e-04  9.977773e-05  0 
 -9.227635e-05  2.296733e-06  0 
 -9.559851e-04  9.243589e-04  0 
VECTORS displacement_ITER17 FLOAT
 0  0  0 
 0  0  0 
 -3.529329e-06  -1.068442e-04  0 
 -4.861438e-05  -3.981578e-05  0 
 -9.274999e-05  -7.613990e-05  0 
 -1.585270e-04  -1.713134e-04  0 
 6.151022e-06  -9.051070e-06  0 
 8.448777e-06  -2.246618e-05  0 
 7.869365e-06  -4.852218e-05  0 
 0  0  0 
 0  0  0 
 0  0  0 
 0  0  0 
 0  0  0 
 -3.727917e-06  -9.252167e-06  0 
 -1.056932e-05  -4.024755e-05  0 
 -5.750401e-05  -8.065734e-05  0 
 -1.134262e-05  -4.413903e-06  0 
 -1.026308e-05  -3.806598e-05  0 
 -2.500137e-06  -1.782636e-05  0 
 -2.366403e-05  -2.099865e-05  0 
 -7.784760e-06  -2.837312e-06  0 
 -1.960726e-05  -7.482379e-05  0 
 -8.833794e-07  -3.281127e-06  0 
 -4.094598e-04  3.535166e-04  0 
 -3.604042e-04  3.416769e-04  0 
 -3.243670e-05  -1.790595e-05  0 
 -1.118276e-03  1.440257e-03  0 
 -8.015389e-04  8.363216e-04  0 
 -1.290832e-04  7.864477e-05  0 
 -5.750315e-05  4.960982e-06  0 
 -6.483126e-04  6.227940e-04  0 
VECTORS displacement_ITER18 FLOAT
 0  0  0 
 0  0  0 
 -9.425667e-06  -9.368275e-05  0 
 -4.655758e-05  -3.864617e-05  0 
 -8.998310e-05  -7.266159e-05  0 
 -1.553902e-04  -1.649035e-04  0 
 3.775709e-06  -6.457066e-06  0 
 3.839548e-06  -1.690430e-05  0 
 1.523491e-06  -3.882919e-05  0 
 0  0  0 
 0  0  0 
 0  0  0 
 0  0  0 
 0  0  0 
 -3.872543e-06  -8.283188e-06  0 
 -1.340251e-05  -3.359974e-05  0 
 -5.626810e-05  -7.598866e-05  0 
 -1.085064e-05  -4.276394e-06  0 
 -1.055018e-05  -3.451090e-05  0 
 -4.056938e-06  -1.508191e-05  0 
 -2.312867e-05  -1.929828e-05  0 
 -7.644097e-06  -2.475187e-06  0 
 -2.388362e-05  -6.320153e-05  0 
 -1.249044e-06  -2.862814e-06  0 
 -1.579802e-04  1.575417e-04  0 
 -1.514660e-04  1.474627e-04  0 
 -6.641139e-06  -1.190514e-06  0 
 -4.521189e-04  6.101248e-04  0 
 -2.948795e-04  3.902871e-04  0 
 -4.083619e-05  5.193871e-05  0 
 -1.821232e-05  9.888701e-06  0 
 -2.940375e-04  2.346932e-04  0 
VECTORS displacement_ITER19 FLOAT
 0  0  0 
 0  0  0 
 -1.359277e-05  -8.415634e-05  0 
 -4.477604e-05  -3.714789e-05  0 
 -8.740944e-05  -6.904465e-05  0 
 -1.521655e-04  -1.582798e-04  0 
 1.549141e-06  -3.791892e-06  0 
 -2.929664e-07  -1.146753e-05  0 
 -3.744197e-06  -3.023574e-05  0 
 0  0  0 
 0  0  0 
 0  0  0 
 0  0  0 
 0  0  0 
 -4.106335e-06  -7.240909e-06  0 
 -1.631176e-05  -2.724650e-05  0 
 -5.511204e-05  -7.134444e-05  0 
 -1.047957e-05  -3.967688e-06  0 
 -1.109828e-05  -3.100512e-05  0 
 -5.641498e-06  -1.224467e-05  0 
 -2.267556e-05  -1.758505e-05  0 
 -7.541046e-06  -2.048543e-06  0 
 -2.806684e-05  -5.310050e-05  0 
 -1.622953e-06  -2.341335e-06  0 
 1.265930e-04  -6.745675e-05  0 
 1.113679e-04  -5.131878e-05  0 
 2.642985e-05  1.913267e-05  0 
 3.274293e-04  -2.628403e-04  0 
 2.803079e-04  -1.047060e-04  0 
 7.077769e-05  2.248753e-05  0 
 2.960528e-05  1.297252e-05  0 
 1.294702e-04  -1.740915e-04  0 
VECTORS displacement_ITER20 FLOAT
 0  0  0 
 0  0  0 
 -1.614884e-05  -7.937155e-05  0 
 -4.410228e-05  -3.695260e-05  0 
 -8.640888e-05  -6.823111e-05  0 
 -1.511182e-04  -1.559816e-04  0 
 1.312534e-07  -2.076544e-06  0 
 -2.905336e-06  -8.148903e-06  0 
 -7.006986e-06  -2.541177e-05  0 
 0  0  0 
 0  0  0 
 0  0  0 
 0  0  0 
 0  0  0 
 -4.384134e-06  -6.781554e-06  0 
 -1.848158e-05  -2.359771e-05  0 
 -5.512857e-05  -6.955127e-05  0 
 -1.034805e-05  -4.032190e-06  0 
 -1.191411e-05  -2.926926e-05  0 
 -6.798859e-06  -1.054719e-05  0 
 -2.264089e-05  -1.716259e-05  0 
 -7.538396e-06  -1.982811e-06  0 
 -3.099463e-05  -4.752502e-05  0 
 -1.888460e-06  -2.029379e-06  0 
 3.466214e-04  -2.410861e-04  0 
 3.084940e-04  -2.100717e-04  0 
 5.118594e-05  3.411946e-05  0 
 9.249900e-04  -9.518381e-04  0 
 7.243954e-04  -4.902819e-04  0 
 1.544408e-04  -1.171339e-06  0 
 6.584861e-05  1.559843e-05  0 
 4.494010e-04  -4.980810e-04  0 
VECTORS displacement_ITER21 FLOAT
 0  0  0 
 0  0  0 
 -1.567728e-05  -7.843712e-05  0 
 -4.375231e-05  -3.626633e-05  0 
 -8.559202e-05  -6.722586e-05  0 
 -1.500311e-04  -1.536552e-04  0 
 -4.353419e-08  -1.577581e-06  0 
 -2.978669e-06  -7.385418e-06  0 
 -6.807931e-06  -2.470016e-05  0 
 0  0  0 
 0  0  0 
 0  0  0 
 0  0  0 
 0  0  0 
 -4.468705e-06  -6.351727e-06  0 
 -1.850592e-05  -2.262963e-05  0 
 -5.503419e-05  -6.797343e-05  0 
 -1.033442e-05  -3.817942e-06  0 
 -1.216805e-05  -2.824509e-05  0 
 -6.894460e-06  -9.819409e-06  0 
 -2.260953e-05  -1.664033e-05  0 
 -7.532720e-06  -1.771931e-06  0 
 -3.072649e-05  -4.656256e-05  0 
 -1.919170e-06  -1.777698e-06  0 
 4.476117e-04  -3.246614e-04  0 
 4.381253e-04  -2.456655e-04  0 
 6.864342e-05  4.376115e-05  0 
 1.241073e-03  -1.159331e-03  0 
 9.322195e-04  -6.481781e-04  0 
 2.107750e-04  -8.577079e-06  0 
 8.752727e-05  1.375228e-05  0 
 6.255268e-04  -5.949830e-04  0 
VECTORS displacement_ITER22 FLOAT
 0  0  0 
 0  0  0 
 -1.344317e-05  -8.045541e-05  0 
 -4.356503e-05  -3.528221e-05  0 
 -8.504620e-05  -6.570357e-05  0 
 -1.491836e-04  -1.505271e-04  0 
 3.801577e-07  -1.595907e-06  0 
 -1.737582e-06  -7.918761e-06  0 
 -4.645413e-06  -2.638995e-05  0 
 0  0  0 
 0  0  0 
 0  0  0 
 0  0  0 
 0  0  0 
 -4.556261e-06  -5.787307e-06  0 
 -1.750385e-05  -2.299619e-05  0 
 -5.514020e-05  -6.602332e-05  0 
 -1.042322e-05  -3.426225e-06  0 
 -1.231405e-05  -2.731727e-05  0 
 -6.540304e-06  -9.451000e-06  0 
 -2.276922e-05  -1.580871e-05  0 
 -7.607321e-06  -1.395597e-06  0 
 -2.885983e-05  -4.845436e-05  0 
 -1.873331e-06  -1.471883e-06  0 
 4.470529e-04  -3.262184e-04  0 
 4.560067e-04  -2.283631e-04  0 
 7.143119e-05  4.491401e-05  0 
 1.258611e-03  -1.106545e-03  0 
 9.328088e-04  -6.385805e-04  0 
 2.190302e-04  -7.281986e-06  0 
 8.983280e-05  1.217641e-05  0 
 6.380246e-04  -5.700689e-04  0 
VECTORS displacement_ITER23 FLOAT
 0  0  0 
 0  0  0 
 -1.214817e-05  -8.109104e-05  0 
 -4.383136e-05  -3.525308e-05  0 
 -8.560826e-05  -6.559396e-05  0 
 -1.500908e-04  -1.497198e-04  0 
 8.168588e-07  -1.787554e-06  0 
 -6.146120e-07  -8.673046e-06  0 
 -2.973727e-06  -2.798114e-05  0 
 0  0  0 
 0  0  0 
 0  0  0 
 0  0  0 
 0  0  0 
 -4.670858e-06  -5.408092e-06  0 
 -1.649087e-05  -2.368335e-05  0 
 -5.598323e-05  -6.535767e-05  0 
 -1.056920e-05  -3.310578e-06  0 
 -1.261269e-05  -2.693145e-05  0 
 -6.150487e-06  -9.330149e-06  0 
 -2.319460e-05  -1.545601e-05  0 
 -7.748029e-06  -1.170096e-06  0 
 -2.699423e-05  -5.011456e-05  0 
 -1.818974e-06  -1.255529e-06  0 
 3.572163e-04  -2.552502e-04  0 
 3.791332e-04  -1.588206e-04  0 
 6.184703e-05  3.943137e-05  0 
 1.019649e-03  -8.137595e-04  0 
 7.523652e-04  -4.787913e-04  0 
 1.865306e-04  3.407905e-06  0 
 7.548624e-05  1.114003e-05  0 
 5.091326e-04  -4.314869e-04  0 
VECTORS displacement_ITER24 FLOAT
 0  0  0 
 0  0  0 
 -1.436980e-05  -7.396676e-05  0 
 -4.448353e-05  -3.562151e-05  0 
 -8.730780e-05  -6.610224e-05  0 
 -1.529707e-04  -1.503647e-04  0 
 6.831692e-07  -1.560384e-06  0 
 -8.008011e-07  -8.200920e-06  0 
 -3.822658e-06  -2.631977e-05  0 
 0  0  0 
 0  0  0 
 0  0  0 
 0  0  0 
 0  0  0 
 -4.817252e-06  -4.807736e-06  0 
 -1.581134e-05  -2.286950e-05  0 
 -5.762662e-05  -6.501517e-05  0 
 -1.077960e-05  -3.181003e-06  0 
 -1.310152e-05  -2.608304e-05  0 
 -5.936127e-06  -8.693411e-06  0 
 -2.387497e-05  -1.495017e-05  0 
 -7.960907e-06  -8.263511e-07  0 
 -2.569485e-05  -4.756172e-05  0 
 -1.819646e-06  -9.908050e-07  0 
 1.205886e-04  -6.633265e-05  0 
 1.724168e-04  2.592807e-05  0 
 3.587592e-05  2.596275e-05  0 
 3.908980e-04  -5.073226e-05  0 
 2.782877e-04  -5.727919e-05  0 
 9.873696e-05  3.435862e-05  0 
 3.696015e-05  9.987422e-06  0 
 1.659547e-04  -6.777980e-05  0 
VECTORS displacement_ITER25 FLOAT
 0  0  0 
 0  0  0 
 -1.386619e-05  -7.176863e-05  0 
 -4.533336e-05  -3.633008e-05  0 
 -8.936836e-05  -6.721295e-05  0 
 -1.566227e-04  -1.528708e-04  0 
 1.001621e-06  -1.746984e-06  0 
 -2.926021e-08  -8.663862e-06  0 
 -2.892448e-06  -2.684861e-05  0 
 0  0  0 
 0  0  0 
 0  0  0 
 0  0  0 
 0  0  0 
 -4.900861e-06  -4.416780e-06  0 
 -1.475157e-05  -2.311471e-05  0 
 -5.923182e-05  -6.563241e-05  0 
 -1.099413e-05  -3.156624e-06  0 
 -1.344791e-05  -2.585043e-05  0 
 -5.474187e-06  -8.503771e-06  0 
 -2.452656e-05  -1.478735e-05  0 
 -8.150216e-06  -6.005834e-07  0 
 -2.369336e-05  -4.752842e-05  0 
 -1.747575e-06  -7.987566e-07  0 
 -5.053170e-05  7.151091e-05  0 
 4.101734e-06  1.396779e-04  0 
 1.428496e-05  1.429580e-05  0 
 -8.587264e-05  4.483071e-04  0 
 -6.706420e-05  2.377633e-04  0 
 2.683626e-05  5.383249e-05  0 
 6.788519e-06  1.007224e-05  0 
 -9.662192e-05  1.689111e-04  0 
VECTORS displacement_ITER26 FLOAT
 0  0  0 
 0  0  0 
 -9.450336e-06  -7.750974e-05  0 
 -4.656319e-05  -3.783410e-05  0 
 -9.193362e-05  -6.953993e-05  0 
 -1.611531e-04  -1.574291e-04  0 
 2.064771e-06  -2.571595e-06  0 
 2.356618e-06  -1.081937e-05  0 
 8.846945e-07  -3.138198e-05  0 
 0  0  0 
 0  0  0 
 0  0  0 
 0  0  0 
 0  0  0 
 -5.037430e-06  -4.393489e-06  0 
 -1.319324e-05  -2.548420e-05  0 
 -6.123901e-05  -6.767206e-05  0 
 -1.129338e-05  -3.447791e-06  0 
 -1.396978e-05  -2.676926e-05  0 
 -4.717915e-06  -9.072547e-06  0 
 -2.539709e-05  -1.538479e-05  0 
 -8.393422e-06  -6.353256e-07  0 
 -2.060804e-05  -5.224483e-05  0 
 -1.595184e-06  -6.835744e-07  0 
 -1.157953e-04  1.260929e-04  0 
 -9.296779e-05  1.486880e-04  0 
 1.220347e-06  6.342655e-06  0 
 -3.057376e-04  5.480669e-04  0 
 -2.031555e-04  3.333405e-04  0 
 -1.514953e-05  5.598255e-05  0 
 -8.707802e-06  1.158317e-05  0 
 -2.235124e-04  2.133325e-04  0 
VECTORS displacement_ITER27 FLOAT
 0  0  0 
 0  0  0 
 -4.637697e-06  -8.510559e-05  0 
 -4.755416e-05  -3.841584e-05  0 
 -9.376295e-05  -7.029212e-05  0 
 -1.643401e-04  -1.597089e-04  0 
 3.094332e-06  -3.286374e-06  0 
 4.738641e-06  -1.295267e-05  0 
 4.822499e-06  -3.627944e-05  0 
 0  0  0 
 0  0  0 
 0  0  0 
 0  0  0 
 0  0  0 
 -5.238243e-06  -4.275545e-06  0 
 -1.189772e-05  -2.795192e-05  0 
 -6.268749e-05  -6.866233e-05  0 
 -1.163468e-05  -3.456262e-06  0 
 -1.449495e-05  -2.751852e-05  0 
 -4.118769e-06  -9.600240e-06  0 
 -2.620012e-05  -1.554492e-05  0 
 -8.660796e-06  -5.299514e-07  0 
 -1.794233e-05  -5.763465e-05  0 
 -1.494901e-06  -5.181129e-07  0 
 -1.328814e-04  1.427644e-04  0 
 -1.539850e-04  1.151037e-04  0 
 -7.483586e-06  7.652338e-07  0 
 -4.034583e-04  4.774775e-04  0 
 -2.432285e-04  3.404520e-04  0 
 -4.198071e-05  5.145133e-05  0 
 -1.714595e-05  1.381941e-05  0 
 -2.861943e-04  1.765487e-04  0 
VECTORS displacement_ITER28 FLOAT
 0  0  0 
 0  0  0 
 -2.063059e-06  -8.948150e-05  0 
 -4.790946e-05  -3.842033e-05  0 
 -9.428667e-05  -6.994131e-05  0 
 -1.653728e-04  -1.594393e-04  0 
 3.447774e-06  -3.324903e-06  0 
 5.738982e-06  -1.359255e-05  0 
 6.706639e-06  -3.847201e-05  0 
 0  0  0 
 0  0  0 
 0  0  0 
 0  0  0 
 0  0  0 
 -5.470537e-06  -4.052050e-06  0 
 -1.158602e-05  -2.879597e-05  0 
 -6.337464e-05  -6.840069e-05  0 
 -1.183513e-05  -3.396755e-06  0 
 -1.508170e-05  -2.753919e-05  0 
 -4.028071e-06  -9.525296e-06  0 
 -2.668723e-05  -1.542277e-05  0 
 -8.839448e-06  -4.093368e-07  0 
 -1.695201e-05  -6.011949e-05  0 
 -1.504444e-06  -3.082467e-07  0 
 -1.131754e-04  1.281014e-04  0 
 -1.546660e-04  8.152274e-05  0 
 -8.034857e-06  1.848091e-07  0 
 -3.716065e-04  3.655078e-04  0 
 -2.059780e-04  2.960808e-04  0 
 -4.266460e-05  4.626965e-05  0 
 -1.616831e-05  1.482822e-05  0 
 -2.724879e-04  1.222434e-04  0 
VECTORS displacement_ITER29 FLOAT
 0  0  0 
 0  0  0 
 2.540199e-07  -9.436923e-05  0 
 -4.785618e-05  -3.856927e-05  0 
 -9.393732e-05  -6.960182e-05  0 
 -1.649067e-04  -1.581789e-04  0 
 3.740565e-06  -3.327883e-06  0 
 6.600923e-06  -1.420405e-05  0 
 8.386118e-06  -4.067695e-05  0 
 0  0  0 
 0  0  0 
 0  0  0 
 0  0  0 
 0  0  0 
 -5.721044e-06  -4.009367e-06  0 
 -1.152183e-05  -2.972108e-05  0 
 -6.353762e-05  -6.788505e-05  0 
 -1.190847e-05  -3.546152e-06  0 
 -1.572655e-05  -2.767223e-05  0 
 -4.068405e-06  -9.524859e-06  0 
 -2.696089e-05  -1.558117e-05  0 
 -8.941896e-06  -4.807768e-07  0 
 -1.637275e-05  -6.277807e-05  0 
 -1.529849e-06  -1.534510e-07  0 
 -6.143597e-05  8.603238e-05  0 
 -1.106894e-04  3.777053e-05  0 
 -2.635646e-06  2.674552e-06  0 
 -2.380681e-04  1.941542e-04  0 
 -1.030502e-04  2.018172e-04  0 
 -2.404375e-05  3.821770e-05  0 
 -7.916222e-06  1.469490e-05  0 
 -1.976326e-04  4.049807e-05  0 
VECTORS displacement_ITER30 FLOAT
 0  0  0 
 0  0  0 
 1.519635e-06  -9.835222e-05  0 
 -4.740830e-05  -3.848834e-05  0 
 -9.281784e-05  -6.881826e-05  0 
 -1.628705e-04  -1.554841e-04  0 
 3.961026e-06  -3.340690e-06  0 
 7.243976e-06  -1.479980e-05  0 
 9.521840e-06  -4.253573e-05  0 
 0  0  0 
 0  0  0 
 0  0  0 
 0  0  0 
 0  0  0 
 -5.958307e-06  -4.063170e-06  0 
 -1.156908e-05  -3.070041e-05  0 
 -6.310831e-05  -6.681683e-05  0 
 -1.188316e-05  -3.726570e-06  0 
 -1.627487e-05  -2.779697e-05  0 
 -4.184918e-06  -9.619853e-06  0 
 -2.701245e-05  -1.572626e-05  0 
 -8.982104e-06  -6.221723e-07  0 
 -1.613987e-05  -6.519671e-05  0 
 -1.569839e-06  -5.747323e-08  0 
 -2.321426e-05  5.257469e-05  0 
 -5.826304e-05  2.349904e-05  0 
 4.285197e-06  5.909365e-06  0 
 -1.193308e-04  1.212573e-04  0 
 -2.531275e-05  1.407302e-04  0 
 -1.393564e-06  3.370715e-05  0 
 6.375657e-07  1.294627e-05  0 
 -1.256376e-04  6.469030e-06  0 
VECTORS displacement_ITER31 FLOAT
 0  0  0 
 0  0  0 
 2.860164e-06  -1.038410e-04  0 
 -4.662324e-05  -3.813873e-05  0 
 -9.102130e-05  -6.737585e-05  0 
 -1.591243e-04  -1.506190e-04  0 
 4.327545e-06  -3.424704e-06  0 