# vtk DataFile Version 3.1
this is an vtk file created by FEMAC
ASCII
DATASET UNSTRUCTURED_GRID
POINTS 32 FLOAT
0.000000 2.000000 0.000000
0.000000 3.000000 0.000000
1.000000 3.000000 0.000000
0.250000 2.000000 0.000000
0.500000 2.000000 0.000000
0.750000 2.000000 0.000000
0.250000 3.000000 0.000000
0.500000 3.000000 0.000000
0.750000 3.000000 0.000000
0.000000 2.250000 0.000000
0.000000 2.500000 0.000000
0.000000 2.750000 0.000000
0.000000 3.250000 0.000000
0.000000 3.500000 0.000000
0.272476 2.537430 0.000000
0.660302 2.785301 0.000000
0.660045 2.212404 0.000000
0.162952 2.171693 0.000000
0.594871 2.497465 0.000000
0.400442 2.782533 0.000000
0.372389 2.253823 0.000000
0.165804 2.339408 0.000000
0.847252 2.832715 0.000000
0.153820 2.761660 0.000000
0.272476 3.537430 0.000000
0.660045 3.212404 0.000000
0.162952 3.171693 0.000000
0.825570 3.361866 0.000000
0.594871 3.497465 0.000000
0.372389 3.253823 0.000000
0.165804 3.339408 0.000000
0.847123 3.164854 0.000000
CELLS 43 172 
3 7 15  8
3 16  4  5
3 3 17  0
3 17  9  0
3 19 15  7
3 16 20  4
3 18 19 14
3 18 15 19
3 20 18 14
3 16 18 20
3 20  3  4
3 17  3 20
3 6 19  7
3 17 21  9
3 8 22  2
3 22  8 15
3 21 20 14
3 17 20 21
3 21 10  9
3 10 21 14
3 23  6  1
3 11 23  1
3 10 23 11
3 19 23 14
3 23 19  6
3 10 14 23
3 25  7  8
3 6 26  1
3 26 12  1
3 28 25 27
3 25 29  7
3 29 28 24
3 25 28 29
3 29  6  7
3 26  6 29
3 26 30 12
3 31  8  2
3 8 31 25
3 30 29 24
3 26 29 30
3 27 25 31
3 30 13 12
3 13 30 24
CELL_TYPES 43
5 5 5 5 5 5 5 5 5 5 5 5 5 5 5 5 5 5 5 5 5 5 5 5 5 5 5 5 5 5 5 5 5 5 5 5 5 5 5 5 5 5 5 
POINT_DATA 32
VECTORS displacement_ITER1 FLOAT
 0  0  0 
 0  0  0 
 2.333742e-04  -5.881740e-04  0 
 -3.129359e-05  -4.427808e-05  0 
 -4.603826e-05  -7.630500e-05  0 
 -6.518786e-05  -1.454203e-04  0 
 5.261253e-05  -4.856774e-05  0 
 1.111097e-04  -1.281977e-04  0 
 1.904861e-04  -2.950540e-04  0 
 0  0  0 
 0  0  0 
 0  0  0 
 0  0  0 
 0  0  0 
 -4.033754e-06  -2.885499e-05  0 
 2.974670e-05  -1.647881e-04  0 
 -1.712545e-05  -9.573953e-05  0 
 -6.972769e-06  -1.611648e-05  0 
 -7.900145e-06  -8.509373e-05  0 
 1.729096e-05  -6.184775e-05  0 
 -1.200987e-05  -4.803990e-05  0 
 -3.880371e-06  -1.712978e-05  0 
 5.837757e-05  -3.727605e-04  0 
 4.466059e-06  -7.765855e-06  0 
 3.950702e-03  -2.996644e-03  0 
 1.965238e-03  -4.100866e-03  0 
 2.398985e-04  9.616048e-05  0 
 9.424512e-03  -1.594912e-02  0 
 7.827211e-03  -7.570643e-03  0 
 8.302047e-04  -6.117303e-04  0 
 4.660923e-04  1.262690e-04  0 
 3.784612e-03  -7.869659e-03  0 
VECTORS displacement_ITER2 FLOAT
 0  0  0 
 0  0  0 
 1.534889e-04  -4.267301e-04  0 
 -3.938921e-05  -3.694389e-05  0 
 -6.658009e-05  -7.508251e-05  0 
 -1.039870e-04  -1.772156e-04  0 
 3.541839e-05  -3.274050e-05  0 
 7.365810e-05  -8.463309e-05  0 
 1.268004e-04  -2.012776e-04  0 
 0  0  0 
 0  0  0 
 0  0  0 
 0  0  0 
 0  0  0 
 -2.861930e-06  -2.146419e-05  0 
 1.362059e-05  -1.134960e-04  0 
 -2.369961e-05  -9.681475e-05  0 
 -8.296086e-06  -8.758220e-06  0 
 -7.242987e-06  -6.734011e-05  0 
 1.038326e-05  -4.357182e-05  0 
 -1.195589e-05  -3.756253e-05  0 
 -3.834504e-06  -1.136848e-05  0 
 2.882936e-05  -2.624444e-04  0 
 2.861360e-06  -5.901161e-06  0 
 1.491989e-03  -1.143072e-03  0 
 1.059012e-03  -1.065035e-03  0 
 1.522420e-04  6.279613e-05  0 
 4.128883e-03  -4.797232e-03  0 
 3.026199e-03  -2.614514e-03  0 
 4.722944e-04  -1.612945e-04  0 
 2.203976e-04  3.207571e-05  0 
 1.357877e-03  -2.490268e-03  0 
VECTORS displacement_ITER3 FLOAT
 0  0  0 
 0  0  0 
 1.271878e-04  -4.610074e-04  0 
 -4.173983e-05  -3.945242e-05  0 
 -6.809353e-05  -7.397484e-05  0 
 -1.036624e-04  -1.582282e-04  0 
 2.765383e-05  -2.253801e-05  0 
 6.007557e-05  -7.287527e-05  0 
 1.081930e-04  -1.954964e-04  0 
 0  0  0 
 0  0  0 
 0  0  0 
 0  0  0 
 0  0  0 
 -1.045355e-05  -2.098536e-05  0 
 -9.094255e-06  -1.104874e-04  0 
 -3.801672e-05  -9.027866e-05  0 
 -1.167699e-05  -1.135647e-05  0 
 -2.612576e-05  -6.767233e-05  0 
 -2.214298e-06  -3.750020e-05  0 
 -2.135367e-05  -4.069219e-05  0 
 -7.662624e-06  -1.268228e-05  0 
 -1.048890e-06  -2.698929e-04  0 
 -6.523586e-07  -3.306533e-06  0 
 -1.498292e-03  1.187945e-03  0 
 -1.466303e-03  1.008702e-03  0 
 -1.786520e-04  -1.202747e-04  0 
 -4.133282e-03  4.591322e-03  0 
 -3.034617e-03  2.608192e-03  0 
 -6.100957e-04  1.408309e-04  0 
 -2.570110e-04  -1.718959e-05  0 
 -2.507492e-03  1.991068e-03  0 
VECTORS displacement_ITER4 FLOAT
 0  0  0 
 0  0  0 
 1.059790e-04  -4.582928e-04  0 
 -4.627342e-05  -4.395245e-05  0 
 -7.998447e-05  -8.263986e-05  0 
 -1.188106e-04  -1.578703e-04  0 
 1.950837e-05  -1.174377e-05  0 
 4.526960e-05  -5.713341e-05  0 
 8.908511e-05  -1.828864e-04  0 
 0  0  0 
 0  0  0 
 0  0  0 
 0  0  0 
 0  0  0 
 -1.571018e-05  -2.061870e-05  0 
 -3.105211e-05  -1.014459e-04  0 
 -5.201311e-05  -9.495022e-05  0 
 -1.422034e-05  -1.319094e-05  0 
 -3.975827e-05  -6.741664e-05  0 
 -1.344318e-05  -3.059088e-05  0 
 -2.817755e-05  -4.352886e-05  0 
 -1.035007e-05  -1.362561e-05  0 
 -2.781385e-05  -2.627122e-04  0 
 -3.476985e-06  -1.247563e-06  0 
 -4.495270e-04  3.039967e-04  0 
 -6.069341e-06  6.327673e-04  0 
 1.431347e-05  -1.296795e-05  0 
 -8.528271e-04  2.549527e-03  0 
 -8.809363e-04  9.756559e-04  0 
 2.178363e-05  5.218983e-05  0 
 -1.765484e-05  -4.858244e-05  0 
 -4.374878e-04  1.055002e-03  0 
VECTORS displacement_ITER5 FLOAT
 0  0  0 
 0  0  0 
 6.083632e-05  -3.825657e-04  0 
 -8.451608e-06  -3.105411e-05  0 
 -3.325149e-07  -1.804302e-05  0 
 5.134899e-05  1.005671e-04  0 
 7.205695e-06  5.127076e-06  0 
 2.537992e-05  -3.418114e-05  0 
 5.877570e-05  -1.468652e-04  0 
 0  0  0 
 0  0  0 
 0  0  0 
 0  0  0 
 0  0  0 
 -2.323444e-05  -1.252182e-05  0 
 -4.468078e-05  -7.725485e-05  0 
 -3.951947e-05  -1.172294e-05  0 
 -9.796284e-06  -1.987050e-05  0 
 -5.623420e-05  -3.985397e-05  0 
 -2.528813e-05  -1.279553e-05  0 
 -3.051613e-05  -3.219886e-05  0 
 -1.184445e-05  -1.377855e-05  0 
 -4.760698e-05  -2.250075e-04  0 
 -7.033564e-06  4.514863e-06  0 
 8.717351e-04  -6.976735e-04  0 
 8.800800e-04  -6.167721e-04  0 
 1.223145e-04  6.303504e-05  0 
 2.341771e-03  -2.391302e-03  0 
 1.763499e-03  -1.419429e-03  0 
 4.034966e-04  -1.029344e-04  0 
 1.671519e-04  -5.963244e-06  0 
 1.301220e-03  -1.260691e-03  0 
VECTORS displacement_ITER6 FLOAT
 0  0  0 
 0  0  0 
 9.783136e-05  -4.265856e-04  0 
 -3.512151e-05  -4.720323e-05  0 
 -5.658939e-05  -6.049285e-05  0 
 -7.807912e-05  -7.100631e-05  0 
 1.651833e-05  -5.597519e-06  0 
 4.282248e-05  -5.347637e-05  0 
 8.447902e-05  -1.796823e-04  0 
 0  0  0 
 0  0  0 
 0  0  0 
 0  0  0 
 0  0  0 
 -2.042693e-05  -1.587340e-05  0 
 -3.266490e-05  -9.847133e-05  0 
 -5.460247e-05  -5.910339e-05  0 
 -1.314448e-05  -1.767879e-05  0 
 -5.033671e-05  -5.401343e-05  0 
 -1.761180e-05  -2.326712e-05  0 
 -3.339858e-05  -3.892920e-05  0 
 -1.235450e-05  -1.351016e-05  0 
 -2.066467e-05  -2.501955e-04  0 
 -5.057919e-06  2.294727e-06  0 
 -2.455186e-04  2.316153e-04  0 
 -3.816144e-05  7.354568e-05  0 
 4.965920e-06  -7.251072e-06  0 
 -2.705992e-04  3.733653e-04  0 
 -3.882258e-04  4.004254e-04  0 
 8.569267e-07  1.686825e-05  0 
 -2.434895e-06  -1.063787e-05  0 
 -1.120642e-04  1.165780e-05  0 
VECTORS displacement_ITER7 FLOAT
 0  0  0 
 0  0  0 
 9.025814e-05  -3.541575e-04  0 
 -4.997693e-05  -5.148854e-05  0 
 -8.837159e-05  -8.199920e-05  0 
 -1.460336e-04  -1.541620e-04  0 
 1.268966e-05  -2.585007e-06  0 
 3.408307e-05  -3.775404e-05  0 
 7.179173e-05  -1.428135e-04  0 
 0  0  0 
 0  0  0 
 0  0  0 
 0  0  0 
 0  0  0 
 -1.638091e-05  -1.216475e-05  0 
 -2.830568e-05  -7.280729e-05  0 
 -6.163799e-05  -8.310254e-05  0 
 -1.393099e-05  -1.282899e-05  0 
 -4.404465e-05  -4.659635e-05  0 
 -1.385795e-05  -1.555533e-05  0 
 -3.136068e-05  -3.698275e-05  0 
 -1.087491e-05  -1.018942e-05  0 
 -1.504478e-05  -1.970821e-04  0 
 -3.807237e-06  2.573365e-06  0 
 -1.603322e-05  3.189398e-05  0 
 8.878839e-05  -5.713173e-05  0 
 1.991363e-05  3.332713e-06  0 
 9.471229e-05  -5.724030e-05  0 
 1.753834e-05  4.737075e-05  0 
 5.645667e-05  -7.474309e-06  0 
 2.204540e-05  -7.669166e-06  0 
 9.535890e-05  -1.607530e-04  0 
VECTORS displacement_ITER8 FLOAT
 0  0  0 
 0  0  0 
 6.314763e-05  -3.061378e-04  0 
 -5.635026e-05  -5.522443e-05  0 
 -1.033872e-04  -8.462559e-05  0 
 -1.681088e-04  -1.506002e-04  0 
 2.543436e-05  -2.215178e-05  0 
 5.345235e-05  -7.331299e-05  0 
 7.326208e-05  -1.598112e-04  0 
 0  0  0 
 0  0  0 
 0  0  0 
 0  0  0 
 0  0  0 
 -1.367615e-05  -1.250737e-05  0 
 4.800719e-06  -1.108216e-04  0 
 -7.753117e-05  -8.237885e-05  0 
 -1.661310e-05  -1.207896e-05  0 
 -3.360827e-05  -5.901764e-05  0 
 1.461619e-06  -3.373577e-05  0 
 -3.983601e-05  -3.247093e-05  0 
 -1.383440e-05  -7.061157e-06  0 
 1.755865e-05  -2.026576e-04  0 
 -1.019801e-06  -4.533394e-07  0 
 1.106267e-04  -8.774705e-05  0 
 1.471383e-04  -1.176507e-04  0 
 3.823243e-05  -8.854915e-07  0 
 2.608790e-04  -2.191796e-04  0 
 2.448556e-04  -8.380594e-05  0 
 1.023622e-04  -2.454973e-05  0 
 4.000274e-05  -1.481360e-05  0 
 1.656273e-04  -2.272048e-04  0 
VECTORS displacement_ITER9 FLOAT
 0  0  0 
 0  0  0 
 -8.823511e-07  -1.648800e-04  0 
 -4.857244e-05  -4.712602e-05  0 
 -9.013717e-05  -7.281941e-05  0 
 -1.455150e-04  -1.269348e-04  0 
 1.742927e-05  -1.926720e-05  0 
 3.273942e-05  -5.822275e-05  0 
 2.943778e-05  -1.039953e-04  0 
 0  0  0 
 0  0  0 
 0  0  0 
 0  0  0 
 0  0  0 
 -1.090904e-05  -1.050147e-05  0 
 5.507163e-06  -8.880716e-05  0 
 -7.057942e-05  -6.907742e-05  0 
 -1.448371e-05  -9.918853e-06  0 
 -2.617981e-05  -4.928115e-05  0 
 1.391795e-06  -2.969284e-05  0 
 -3.531236e-05  -2.583105e-05  0 
 -1.230194e-05  -5.149911e-06  0 
 9.412598e-06  -1.293307e-04  0 
 -1.063940e-06  -1.825736e-06  0 
 5.524739e-05  -3.473361e-05  0 
 7.102517e-05  -6.636293e-05  0 
 2.009679e-05  -5.150563e-06  0 
 1.548957e-04  -1.400018e-04  0 
 1.243573e-04  -5.901914e-05  0 
 4.956374e-05  -1.940437e-05  0 
 2.166118e-05  -7.405639e-06  0 
 6.760560e-05  -1.376738e-04  0 
VECTORS displacement_ITER10 FLOAT
 0  0  0 
 0  0  0 
 2.227127e-05  -1.727050e-04  0 
 -4.596265e-05  -4.260524e-05  0 
 -8.608708e-05  -6.447069e-05  0 
 -1.413272e-04  -1.161572e-04  0 
 1.523689e-05  -1.662974e-05  0 
 2.740319e-05  -4.376368e-05  0 
 2.905720e-05  -8.179141e-05  0 
 0  0  0 
 0  0  0 
 0  0  0 
 0  0  0 
 0  0  0 
 -7.591584e-06  -8.668352e-06  0 
 2.453363e-06  -6.825296e-05  0 
 -6.488412e-05  -6.192622e-05  0 
 -1.375272e-05  -7.987840e-06  0 
 -1.932675e-05  -5.028962e-05  0 
 3.282834e-06  -2.483391e-05  0 
 -3.357542e-05  -2.174591e-05  0 
 -1.140649e-05  -3.016502e-06  0 
 -5.549051e-07  -1.051012e-04  0 
 -1.774809e-07  -1.800860e-06  0 
 6.555811e-05  -4.574149e-05  0 
 7.912572e-05  -4.679199e-05  0 
 2.402128e-05  8.383124e-07  0 
 1.552022e-04  -8.844936e-05  0 
 1.534937e-04  -3.161283e-05  0 
 5.951379e-05  -3.199518e-06  0 
 2.315082e-05  -5.104292e-06  0 
 7.398241e-05  -1.091578e-04  0 
VECTORS displacement_ITER11 FLOAT
 0  0  0 
 0  0  0 
 1.229129e-05  -1.330795e-04  0 
 -3.795002e-05  -3.477176e-05  0 
 -7.274101e-05  -5.093844e-05  0 
 -1.198928e-04  -8.844181e-05  0 
 1.035686e-05  -9.446103e-06  0 
 2.034993e-05  -3.198864e-05  0 
 2.206474e-05  -6.621131e-05  0 
 0  0  0 
 0  0  0 
 0  0  0 
 0  0  0 
 0  0  0 
 -8.205452e-06  -3.856814e-06  0 
 -9.262843e-07  -5.239851e-05  0 
 -6.187737e-05  -4.233401e-05  0 
 -1.208453e-05  -6.142274e-06  0 
 -1.991223e-05  -3.274781e-05  0 
 -2.895397e-07  -1.567326e-05  0 
 -3.106306e-05  -1.392993e-05  0 
 -1.072766e-05  -8.873568e-07  0 
 1.694718e-06  -8.340219e-05  0 
 -1.162206e-06  5.081232e-07  0 
 5.398279e-05  -2.194549e-05  0 
 7.411983e-05  -1.963217e-05  0 
 2.060571e-05  5.814842e-06  0 
 1.454022e-04  -2.944903e-05  0 
 1.286268e-04  -1.724249e-05  0 
 5.161902e-05  5.714297e-06  0 
 2.133286e-05  1.723399e-06  0 
 5.729227e-05  -7.470692e-05  0 
VECTORS displacement_ITER12 FLOAT
 0  0  0 
 0  0  0 
 1.003237e-05  -1.302571e-04  0 
 -3.808612e-05  -3.503851e-05  0 
 -7.291001e-05  -5.127676e-05  0 
 -1.191308e-04  -8.656570e-05  0 
 1.023123e-05  -9.349397e-06  0 
 2.004425e-05  -3.178637e-05  0 
 2.121681e-05  -6.524575e-05  0 
 0  0  0 
 0  0  0 
 0  0  0 
 0  0  0 
 0  0  0 
 -8.308470e-06  -3.835956e-06  0 
 -9.335928e-07  -5.225018e-05  0 
 -6.239142e-05  -4.285699e-05  0 
 -1.215899e-05  -6.258492e-06  0 
 -2.029078e-05  -3.283176e-05  0 
 -3.189892e-07  -1.556305e-05  0 
 -3.128814e-05  -1.415485e-05  0 
 -1.079024e-05  -9.331484e-07  0 
 -2.639438e-07  -8.437703e-05  0 
 -1.176387e-06  5.424142e-07  0 
 6.135608e-05  -6.769533e-06  0 
 7.478451e-05  -2.661909e-05  0 
 2.333804e-05  1.041221e-05  0 
 1.559927e-04  -7.125931e-05  0 
 1.516434e-04  -6.972420e-06  0 
 5.613224e-05  1.638212e-05  0 
 2.505383e-05  9.259588e-06  0 
 7.303446e-05  -8.119762e-05  0 
VECTORS displacement_ITER13 FLOAT
 0  0  0 
 0  0  0 
 1.024156e-05  -1.342906e-04  0 
 -3.800373e-05  -3.485591e-05  0 
 -7.280602e-05  -5.087490e-05  0 
 -1.196924e-04  -8.721868e-05  0 
 1.021232e-05  -9.235341e-06  0 
 2.010189e-05  -3.174428e-05  0 
 2.186540e-05  -6.629293e-05  0 
 0  0  0 
 0  0  0 
 0  0  0 
 0  0  0 
 0  0  0 
 -8.329234e-06  -3.870372e-06  0 
 -1.404563e-06  -5.229266e-05  0 
 -6.201109e-05  -4.233768e-05  0 
 -1.212859e-05  -6.193802e-06  0 
 -2.021982e-05  -3.278020e-05  0 
 -5.376257e-07  -1.556095e-05  0 
 -3.118714e-05  -1.400378e-05  0 
 -1.078096e-05  -9.254243e-07  0 
 -1.299073e-06  -8.708276e-05  0 
 -1.224521e-06  5.500133e-07  0 
 6.089775e-05  -1.287549e-05  0 
 7.653114e-05  -2.778073e-05  0 
 2.317222e-05  9.592090e-06  0 
 1.615549e-04  -7.782024e-05  0 
 1.516149e-04  -1.106409e-05  0 
 5.660988e-05  1.422603e-05  0 
 2.446262e-05  7.060273e-06  0 
 7.548976e-05  -8.210449e-05  0 
VECTORS displacement_ITER14 FLOAT
 0  0  0 
 0  0  0 
 1.020676e-05  -1.342372e-04  0 
 -3.799924e-05  -3.485249e-05  0 
 -7.279768e-05  -5.086873e-05  0 
 -1.196905e-04  -8.723244e-05  0 
 1.020929e-05  -9.230109e-06  0 
 2.009847e-05  -3.173990e-05  0 
 2.185253e-05  -6.628053e-05  0 
 0  0  0 
 0  0  0 
 0  0  0 
 0  0  0 
 0  0  0 
 -8.332574e-06  -3.866947e-06  0 
 -1.403195e-06  -5.228984e-05  0 
 -6.200725e-05  -4.232344e-05  0 
 -1.212761e-05  -6.193595e-06  0 
 -2.022870e-05  -3.276638e-05  0 
 -5.403821e-07  -1.555417e-05  0 
 -3.118531e-05  -1.400157e-05  0 
 -1.078054e-05  -9.254900e-07  0 
 -1.293890e-06  -8.706568e-05  0 
 -1.225510e-06  5.526761e-07  0 
 6.059960e-05  -1.245356e-05  0 
 7.755437e-05  -2.664244e-05  0 
 2.324461e-05  9.632135e-06  0 
 1.630093e-04  -7.514068e-05  0 
 1.510120e-04  -1.094783e-05  0 
 5.684377e-05  1.420301e-05  0 
 2.456156e-05  7.044529e-06  0 
 7.623965e-05  -8.067206e-05  0 
CELL_DATA 43
TENSORS element_stresses FLOAT
 5.256789e-03  -2.521213e-02  0 
 -2.521213e-02  -5.864812e-03  0 
 0  0  0 

 -1.567276e-01  3.590814e-02  0 
 3.590814e-02  1.028125e-01  0 
 0  0  0 

 -1.353027e-01  -5.060548e-02  0 
 -5.060548e-02  5.564761e-02  0 
 0  0  0 

 -8.178531e-02  -2.923755e-02  0 
 -2.923755e-02  -2.453559e-02  0 
 0  0  0 

 -7.999721e-03  -3.412677e-02  0 
 -3.412677e-02  -1.215676e-02  0 
 0  0  0 

 -6.494147e-02  2.697542e-02  0 
 2.697542e-02  8.373735e-02  0 
 0  0  0 

 -3.428977e-02  -3.214608e-02  0 
 -3.214608e-02  -1.111629e-02  0 
 0  0  0 

 -1.622063e-02  -5.743608e-02  0 
 -5.743608e-02  -4.064583e-02  0 
 0  0  0 

 -2.949001e-02  -1.418135e-02  0 
 -1.418135e-02  -4.502166e-03  0 
 0  0  0 

 -9.401945e-02  2.261537e-02  0 
 2.261537e-02  -1.681497e-02  0 
 0  0  0 

 -1.156947e-01  2.299797e-02  0 
 2.299797e-02  7.833027e-02  0 
 0  0  0 

 -9.687150e-02  1.164065e-03  0 
 1.164065e-03  9.440864e-02  0 
 0  0  0 

 3.252134e-02  -1.018695e-02  0 
 -1.018695e-02  -2.345121e-02  0 
 0  0  0 

 -6.643258e-02  -1.038945e-02  0 
 -1.038945e-02  1.186776e-02  0 
 0  0  0 

 -6.232562e-02  -1.234946e-01  0 
 -1.234946e-01  -5.247514e-02  0 
 0  0  0 

 -2.841891e-02  -5.284242e-02  0 
 -5.284242e-02  5.512863e-03  0 
 0  0  0 

 -7.894905e-02  -2.440443e-03  0 
 -2.440443e-03  -7.952787e-03  0 
 0  0  0 

 -9.351444e-02  -3.099050e-02  0 
 -3.099050e-02  4.205780e-03  0 
 0  0  0 

 -7.145050e-02  -4.293729e-03  0 
 -4.293729e-03  -2.143515e-02  0 
 0  0  0 

 -4.087278e-02  1.385978e-02  0 
 1.385978e-02  -2.004711e-02  0 
 0  0  0 

 3.625626e-02  -4.171593e-03  0 
 -4.171593e-03  -1.526970e-02  0 
 0  0  0 

 -8.755152e-03  2.763857e-03  0 
 2.763857e-03  -2.626546e-03  0 
 0  0  0 

 -8.755152e-03  2.763857e-03  0 
 2.763857e-03  -2.626546e-03  0 
 0  0  0 

 -4.585220e-03  -2.489476e-02  0 
 -2.489476e-02  -1.558901e-02  0 
 0  0  0 

 -6.473206e-03  -1.193070e-02  0 
 -1.193070e-02  -1.715162e-02  0 
 0  0  0 

 -3.203897e-02  -9.943938e-04  0 
 -9.943938e-04  1.761780e-03  0 
 0  0  0 

 4.994209e-05  9.773385e-05  0 
 9.773385e-05  1.430862e-04  0 
 0  0  0 

 7.492268e-05  4.592788e-05  0 
 4.592788e-05  1.136184e-04  0 
 0  0  0 

 1.567554e-04  4.546957e-05  0 
 4.546957e-05  4.702661e-05  0 
 0  0  0 

 2.550443e-04  2.104976e-05  0 
 2.104976e-05  6.662360e-05  0 
 0  0  0 

 1.489441e-04  5.392931e-05  0 
 5.392931e-05  1.628533e-04  0 
 0  0  0 

 2.923012e-04  8.450553e-05  0 
 8.450553e-05  -8.872444e-06  0 
 0  0  0 

 1.316755e-04  1.114257e-04  0 
 1.114257e-04  6.286436e-05  0 
 0  0  0 

 8.821714e-05  5.739668e-05  0 
 5.739668e-05  1.622015e-04  0 
 0  0  0 

 1.530177e-04  8.726648e-05  0 
 8.726648e-05  1.467758e-04  0 
 0  0  0 

 1.542240e-04  4.358445e-05  0 
 4.358445e-05  2.996666e-05  0 
 0  0  0 

 -2.717477e-05  6.579126e-05  0 
 6.579126e-05  6.469435e-05  0 
 0  0  0 

 9.718537e-05  1.542442e-05  0 
 1.542442e-05  1.012163e-04  0 
 0  0  0 

 1.765558e-04  5.764997e-05  0 
 5.764997e-05  -4.279311e-05  0 
 0  0  0 

 1.688249e-04  2.555427e-05  0 
 2.555427e-05  3.474171e-05  0 
 0  0  0 

 1.173975e-04  1.250053e-04  0 
 1.250053e-04  3.159902e-05  0 
 0  0  0 

 1.627874e-04  3.268247e-05  0 
 3.268247e-05  4.883623e-05  0 
 0  0  0 

 2.079727e-04  2.492469e-05  0 
 2.492469e-05  -1.735263e-05  0 
 0  0  0 

TENSORS element_stresses FLOAT
 5.256789e-03  -2.521213e-02  0 
 -2.521213e-02  -5.864812e-03  0 
 0  0  0 

 -1.567276e-01  3.590814e-02  0 
 3.590814e-02  1.028125e-01  0 
 0  0  0 

 -1.353027e-01  -5.060548e-02  0 
 -5.060548e-02  5.564761e-02  0 
 0  0  0 

 -8.178531e-02  -2.923755e-02  0 
 -2.923755e-02  -2.453559e-02  0 
 0  0  0 

 -7.999721e-03  -3.412677e-02  0 
 -3.412677e-02  -1.215676e-02  0 
 0  0  0 

 -6.494147e-02  2.697542e-02  0 
 2.697542e-02  8.373735e-02  0 
 0  0  0 

 -3.428977e-02  -3.214608e-02  0 
 -3.214608e-02  -1.111629e-02  0 
 0  0  0 

 -1.622063e-02  -5.743608e-02  0 
 -5.743608e-02  -4.064583e-02  0 
 0  0  0 

 -2.949001e-02  -1.418135e-02  0 
 -1.418135e-02  -4.502166e-03  0 
 0  0  0 

 -9.401945e-02  2.261537e-02  0 
 2.261537e-02  -1.681497e-02  0 
 0  0  0 

 -1.156947e-01  2.299797e-02  0 
 2.299797e-02  7.833027e-02  0 
 0  0  0 

 -9.687150e-02  1.164065e-03  0 
 1.164065e-03  9.440864e-02  0 
 0  0  0 

 3.252134e-02  -1.018695e-02  0 
 -1.018695e-02  -2.345121e-02  0 
 0  0  0 

 -6.643258e-02  -1.038945e-02  0 
 -1.038945e-02  1.186776e-02  0 
 0  0  0 

 -6.232562e-02  -1.234946e-01  0 
 -1.234946e-01  -5.247514e-02  0 
 0  0  0 

 -2.841891e-02  -5.284242e-02  0 
 -5.284242e-02  5.512863e-03  0 
 0  0  0 

 -7.894905e-02  -2.440443e-03  0 
 -2.440443e-03  -7.952787e-03  0 
 0  0  0 

 -9.351444e-02  -3.099050e-02  0 
 -3.099050e-02  4.205780e-03  0 
 0  0  0 

 -7.145050e-02  -4.293729e-03  0 
 -4.293729e-03  -2.143515e-02  0 
 0  0  0 

 -4.087278e-02  1.385978e-02  0 
 1.385978e-02  -2.004711e-02  0 
 0  0  0 

 3.625626e-02  -4.171593e-03  0 
 -4.171593e-03  -1.526970e-02  0 
 0  0  0 

 -8.755152e-03  2.763857e-03  0 
 2.763857e-03  -2.626546e-03  0 
 0  0  0 

 -8.755152e-03  2.763857e-03  0 
 2.763857e-03  -2.626546e-03  0 
 0  0  0 

 -4.585220e-03  -2.489476e-02  0 
 -2.489476e-02  -1.558901e-02  0 
 0  0  0 

 -6.473206e-03  -1.193070e-02  0 
 -1.193070e-02  -1.715162e-02  0 
 0  0  0 

 -3.203897e-02  -9.943938e-04  0 
 -9.943938e-04  1.761780e-03  0 
 0  0  0 

 4.994209e-05  9.773385e-05  0 
 9.773385e-05  1.430862e-04  0 
 0  0  0 

 7.492268e-05  4.592788e-05  0 
 4.592788e-05  1.136184e-04  0 
 0  0  0 

 1.567554e-04  4.546957e-05  0 
 4.546957e-05  4.702661e-05  0 
 0  0  0 

 2.550443e-04  2.104976e-05  0 
 2.104976e-05  6.662360e-05  0 
 0  0  0 

 1.489441e-04  5.392931e-05  0 
 5.392931e-05  1.628533e-04  0 
 0  0  0 

 2.923012e-04  8.450553e-05  0 
 8.450553e-05  -8.872444e-06  0 
 0  0  0 

 1.316755e-04  1.114257e-04  0 
 1.114257e-04  6.286436e-05  0 
 0  0  0 

 8.821714e-05  5.739668e-05  0 
 5.739668e-05  1.622015e-04  0 
 0  0  0 

 1.530177e-04  8.726648e-05  0 
 8.726648e-05  1.467758e-04  0 
 0  0  0 

 1.542240e-04  4.358445e-05  0 
 4.358445e-05  2.996666e-05  0 
 0  0  0 

 -2.717477e-05  6.579126e-05  0 
 6.579126e-05  6.469435e-05  0 
 0  0  0 

 9.718537e-05  1.542442e-05  0 
 1.542442e-05  1.012163e-04  0 
 0  0  0 

 1.765558e-04  5.764997e-05  0 
 5.764997e-05  -4.279311e-05  0 
 0  0  0 

 1.688249e-04  2.555427e-05  0 
 2.555427e-05  3.474171e-05  0 
 0  0  0 

 1.173975e-04  1.250053e-04  0 
 1.250053e-04  3.159902e-05  0 
 0  0  0 

 1.627874e-04  3.268247e-05  0 
 3.268247e-05  4.883623e-05  0 
 0  0  0 

 2.079727e-04  2.492469e-05  0 
 2.492469e-05  -1.735263e-05  0 
 0  0  0 

