# vtk DataFile Version 3.1
this is an vtk file created by FEMAC
ASCII
DATASET UNSTRUCTURED_GRID
POINTS 814 FLOAT
0.000000 0.000000 0.000000
1.000000 0.000000 0.000000
2.000000 0.000000 0.000000
3.000000 0.000000 0.000000
4.000000 0.000000 0.000000
5.000000 0.000000 0.000000
6.000000 0.000000 0.000000
0.000000 1.000000 0.000000
1.000000 1.000000 0.000000
0.000000 2.000000 0.000000
1.000000 2.000000 0.000000
0.000000 3.000000 0.000000
1.000000 3.000000 0.000000
0.000000 4.000000 0.000000
1.000000 4.000000 0.000000
0.000000 5.000000 0.000000
1.000000 5.000000 0.000000
0.000000 6.000000 0.000000
1.000000 6.000000 0.000000
2.000000 1.000000 0.000000
2.000000 2.000000 0.000000
2.000000 3.000000 0.000000
2.000000 4.000000 0.000000
2.000000 5.000000 0.000000
2.000000 6.000000 0.000000
3.000000 1.000000 0.000000
3.000000 2.000000 0.000000
3.000000 3.000000 0.000000
3.000000 4.000000 0.000000
3.000000 5.000000 0.000000
3.000000 6.000000 0.000000
4.000000 1.000000 0.000000
4.000000 2.000000 0.000000
4.000000 3.000000 0.000000
4.000000 4.000000 0.000000
4.000000 5.000000 0.000000
4.000000 6.000000 0.000000
5.000000 1.000000 0.000000
5.000000 2.000000 0.000000
5.000000 3.000000 0.000000
5.000000 4.000000 0.000000
5.000000 5.000000 0.000000
5.000000 6.000000 0.000000
6.000000 1.000000 0.000000
6.000000 2.000000 0.000000
6.000000 3.000000 0.000000
6.000000 4.000000 0.000000
6.000000 5.000000 0.000000
6.000000 6.000000 0.000000
0.250000 0.000000 0.000000
0.500000 0.000000 0.000000
0.750000 0.000000 0.000000
1.250000 0.000000 0.000000
1.500000 0.000000 0.000000
1.750000 0.000000 0.000000
2.250000 0.000000 0.000000
2.500000 0.000000 0.000000
2.750000 0.000000 0.000000
3.250000 0.000000 0.000000
3.500000 0.000000 0.000000
3.750000 0.000000 0.000000
4.250000 0.000000 0.000000
4.500000 0.000000 0.000000
4.750000 0.000000 0.000000
5.250000 0.000000 0.000000
5.500000 0.000000 0.000000
5.750000 0.000000 0.000000
0.250000 1.000000 0.000000
0.500000 1.000000 0.000000
0.750000 1.000000 0.000000
0.000000 0.250000 0.000000
0.000000 0.500000 0.000000
0.000000 0.750000 0.000000
1.000000 0.250000 0.000000
1.000000 0.500000 0.000000
1.000000 0.750000 0.000000
0.250000 2.000000 0.000000
0.500000 2.000000 0.000000
0.750000 2.000000 0.000000
0.000000 1.250000 0.000000
0.000000 1.500000 0.000000
0.000000 1.750000 0.000000
1.000000 1.250000 0.000000
1.000000 1.500000 0.000000
1.000000 1.750000 0.000000
0.250000 3.000000 0.000000
0.500000 3.000000 0.000000
0.750000 3.000000 0.000000
0.000000 2.250000 0.000000
0.000000 2.500000 0.000000
0.000000 2.750000 0.000000
1.000000 2.250000 0.000000
1.000000 2.500000 0.000000
1.000000 2.750000 0.000000
0.250000 4.000000 0.000000
0.500000 4.000000 0.000000
0.750000 4.000000 0.000000
0.000000 3.250000 0.000000
0.000000 3.500000 0.000000
0.000000 3.750000 0.000000
1.000000 3.250000 0.000000
1.000000 3.500000 0.000000
1.000000 3.750000 0.000000
0.250000 5.000000 0.000000
0.500000 5.000000 0.000000
0.750000 5.000000 0.000000
0.000000 4.250000 0.000000
0.000000 4.500000 0.000000
0.000000 4.750000 0.000000
1.000000 4.250000 0.000000
1.000000 4.500000 0.000000
1.000000 4.750000 0.000000
0.250000 6.000000 0.000000
0.500000 6.000000 0.000000
0.750000 6.000000 0.000000
0.000000 5.250000 0.000000
0.000000 5.500000 0.000000
0.000000 5.750000 0.000000
1.000000 5.250000 0.000000
1.000000 5.500000 0.000000
1.000000 5.750000 0.000000
1.250000 1.000000 0.000000
1.500000 1.000000 0.000000
1.750000 1.000000 0.000000
2.000000 0.250000 0.000000
2.000000 0.500000 0.000000
2.000000 0.750000 0.000000
1.250000 2.000000 0.000000
1.500000 2.000000 0.000000
1.750000 2.000000 0.000000
2.000000 1.250000 0.000000
2.000000 1.500000 0.000000
2.000000 1.750000 0.000000
1.250000 3.000000 0.000000
1.500000 3.000000 0.000000
1.750000 3.000000 0.000000
2.000000 2.250000 0.000000
2.000000 2.500000 0.000000
2.000000 2.750000 0.000000
1.250000 4.000000 0.000000
1.500000 4.000000 0.000000
1.750000 4.000000 0.000000
2.000000 3.250000 0.000000
2.000000 3.500000 0.000000
2.000000 3.750000 0.000000
1.250000 5.000000 0.000000
1.500000 5.000000 0.000000
1.750000 5.000000 0.000000
2.000000 4.250000 0.000000
2.000000 4.500000 0.000000
2.000000 4.750000 0.000000
1.250000 6.000000 0.000000
1.500000 6.000000 0.000000
1.750000 6.000000 0.000000
2.000000 5.250000 0.000000
2.000000 5.500000 0.000000
2.000000 5.750000 0.000000
2.250000 1.000000 0.000000
2.500000 1.000000 0.000000
2.750000 1.000000 0.000000
3.000000 0.250000 0.000000
3.000000 0.500000 0.000000
3.000000 0.750000 0.000000
2.250000 2.000000 0.000000
2.500000 2.000000 0.000000
2.750000 2.000000 0.000000
3.000000 1.250000 0.000000
3.000000 1.500000 0.000000
3.000000 1.750000 0.000000
2.250000 3.000000 0.000000
2.500000 3.000000 0.000000
2.750000 3.000000 0.000000
3.000000 2.250000 0.000000
3.000000 2.500000 0.000000
3.000000 2.750000 0.000000
2.250000 4.000000 0.000000
2.500000 4.000000 0.000000
2.750000 4.000000 0.000000
3.000000 3.250000 0.000000
3.000000 3.500000 0.000000
3.000000 3.750000 0.000000
2.250000 5.000000 0.000000
2.500000 5.000000 0.000000
2.750000 5.000000 0.000000
3.000000 4.250000 0.000000
3.000000 4.500000 0.000000
3.000000 4.750000 0.000000
2.250000 6.000000 0.000000
2.500000 6.000000 0.000000
2.750000 6.000000 0.000000
3.000000 5.250000 0.000000
3.000000 5.500000 0.000000
3.000000 5.750000 0.000000
3.250000 1.000000 0.000000
3.500000 1.000000 0.000000
3.750000 1.000000 0.000000
4.000000 0.250000 0.000000
4.000000 0.500000 0.000000
4.000000 0.750000 0.000000
3.250000 2.000000 0.000000
3.500000 2.000000 0.000000
3.750000 2.000000 0.000000
4.000000 1.250000 0.000000
4.000000 1.500000 0.000000
4.000000 1.750000 0.000000
3.250000 3.000000 0.000000
3.500000 3.000000 0.000000
3.750000 3.000000 0.000000
4.000000 2.250000 0.000000
4.000000 2.500000 0.000000
4.000000 2.750000 0.000000
3.250000 4.000000 0.000000
3.500000 4.000000 0.000000
3.750000 4.000000 0.000000
4.000000 3.250000 0.000000
4.000000 3.500000 0.000000
4.000000 3.750000 0.000000
3.250000 5.000000 0.000000
3.500000 5.000000 0.000000
3.750000 5.000000 0.000000
4.000000 4.250000 0.000000
4.000000 4.500000 0.000000
4.000000 4.750000 0.000000
3.250000 6.000000 0.000000
3.500000 6.000000 0.000000
3.750000 6.000000 0.000000
4.000000 5.250000 0.000000
4.000000 5.500000 0.000000
4.000000 5.750000 0.000000
4.250000 1.000000 0.000000
4.500000 1.000000 0.000000
4.750000 1.000000 0.000000
5.000000 0.250000 0.000000
5.000000 0.500000 0.000000
5.000000 0.750000 0.000000
4.250000 2.000000 0.000000
4.500000 2.000000 0.000000
4.750000 2.000000 0.000000
5.000000 1.250000 0.000000
5.000000 1.500000 0.000000
5.000000 1.750000 0.000000
4.250000 3.000000 0.000000
4.500000 3.000000 0.000000
4.750000 3.000000 0.000000
5.000000 2.250000 0.000000
5.000000 2.500000 0.000000
5.000000 2.750000 0.000000
4.250000 4.000000 0.000000
4.500000 4.000000 0.000000
4.750000 4.000000 0.000000
5.000000 3.250000 0.000000
5.000000 3.500000 0.000000
5.000000 3.750000 0.000000
4.250000 5.000000 0.000000
4.500000 5.000000 0.000000
4.750000 5.000000 0.000000
5.000000 4.250000 0.000000
5.000000 4.500000 0.000000
5.000000 4.750000 0.000000
4.250000 6.000000 0.000000
4.500000 6.000000 0.000000
4.750000 6.000000 0.000000
5.000000 5.250000 0.000000
5.000000 5.500000 0.000000
5.000000 5.750000 0.000000
5.250000 1.000000 0.000000
5.500000 1.000000 0.000000
5.750000 1.000000 0.000000
6.000000 0.250000 0.000000
6.000000 0.500000 0.000000
6.000000 0.750000 0.000000
5.250000 2.000000 0.000000
5.500000 2.000000 0.000000
5.750000 2.000000 0.000000
6.000000 1.250000 0.000000
6.000000 1.500000 0.000000
6.000000 1.750000 0.000000
5.250000 3.000000 0.000000
5.500000 3.000000 0.000000
5.750000 3.000000 0.000000
6.000000 2.250000 0.000000
6.000000 2.500000 0.000000
6.000000 2.750000 0.000000
5.250000 4.000000 0.000000
5.500000 4.000000 0.000000
5.750000 4.000000 0.000000
6.000000 3.250000 0.000000
6.000000 3.500000 0.000000
6.000000 3.750000 0.000000
5.250000 5.000000 0.000000
5.500000 5.000000 0.000000
5.750000 5.000000 0.000000
6.000000 4.250000 0.000000
6.000000 4.500000 0.000000
6.000000 4.750000 0.000000
5.250000 6.000000 0.000000
5.500000 6.000000 0.000000
5.750000 6.000000 0.000000
6.000000 5.250000 0.000000
6.000000 5.500000 0.000000
6.000000 5.750000 0.000000
0.354092 0.524248 0.000000
0.804015 0.668485 0.000000
0.176539 0.642203 0.000000
0.279348 0.239607 0.000000
0.653111 0.819895 0.000000
0.376524 0.781795 0.000000
0.167416 0.439302 0.000000
0.576925 0.611220 0.000000
0.521903 0.318733 0.000000
0.757669 0.416286 0.000000
0.132337 0.122402 0.000000
0.841425 0.847676 0.000000
0.160613 0.834800 0.000000
0.734095 0.185003 0.000000
0.871024 0.108751 0.000000
0.272476 1.537430 0.000000
0.660302 1.785301 0.000000
0.660045 1.212404 0.000000
0.162952 1.171693 0.000000
0.825570 1.361866 0.000000
0.825957 1.628272 0.000000
0.594871 1.497465 0.000000
0.400442 1.782533 0.000000
0.372389 1.253823 0.000000
0.165804 1.339408 0.000000
0.847252 1.832715 0.000000
0.847123 1.164854 0.000000
0.153820 1.761660 0.000000
0.272476 2.537430 0.000000
0.660302 2.785301 0.000000
0.660045 2.212404 0.000000
0.162952 2.171693 0.000000
0.825570 2.361866 0.000000
0.825957 2.628272 0.000000
0.594871 2.497465 0.000000
0.400442 2.782533 0.000000
0.372389 2.253823 0.000000
0.165804 2.339408 0.000000
0.847252 2.832715 0.000000
0.847123 2.164854 0.000000
0.153820 2.761660 0.000000
0.272476 3.537430 0.000000
0.660302 3.785301 0.000000
0.660045 3.212404 0.000000
0.162952 3.171693 0.000000
0.825570 3.361866 0.000000
0.825957 3.628272 0.000000
0.594871 3.497465 0.000000
0.400442 3.782533 0.000000
0.372389 3.253823 0.000000
0.165804 3.339408 0.000000
0.847252 3.832715 0.000000
0.847123 3.164854 0.000000
0.153820 3.761660 0.000000
0.272476 4.537430 0.000000
0.660302 4.785301 0.000000
0.660045 4.212404 0.000000
0.162952 4.171693 0.000000
0.825570 4.361866 0.000000
0.825957 4.628272 0.000000
0.594871 4.497465 0.000000
0.400442 4.782533 0.000000
0.372389 4.253823 0.000000
0.165804 4.339408 0.000000
0.847252 4.832715 0.000000
[...]
POINT_DATA 814
SCALARS CONDID_1 FLOAT
LOOKUP_TABLE default
 1 
 0 
 0 
 0 
 0 
 0 
 0 
 0 
 0 
 0 
 0 
 0 
 0 
 0 
 0 
 0 
 0 
 0 
 0 
 0 
 0 
 0 
 0 
 0 
 0 
 0 
 0 
 0 
 0 
 0 
 0 
 0 
 0 
 0 
 0 
 0 
 0 
 0 
 0 
 0 
 0 
 0 
 0 
 0 
 0 
 0 
 0 
 0 
 0 
 0 
 0 
 0 
 0 
 0 
 0 
 0 
 0 
 0 
 0 
 0 
 0 
 0 
 0 
 0 
 0 
 0 
 0 
 0 
 0 
 0 
 0 
 0 
 0 
 0 
 0 
 0 
 0 
 0 
 0 
 0 
 0 
 0 
 0 
 0 
 0 
 0 
 0 
 0 
 0 
 0 
 0 
 0 
 0 
 0 
 0 
 0 
 0 
 0 
 0 
 0 
 0 
 0 
 0 
 0 
 0 
 0 
 0 
 0 
 0 
 0 
 0 
 0 
 0 
 0 
 0 
 0 
 0 
 0 
 0 
 0 
 0 
 0 
 0 
 0 
 0 
 0 
 0 
 0 
 0 
 0 
 0 
 0 
 0 
 0 
 0 
 0 
 0 
 0 
 0 
 0 
 0 
 0 
 0 
 0 
 0 
 0 
 0 
 0 
 0 
 0 
 0 
 0 
 0 
 0 
 0 
 0 
 0 
 0 
 0 
 0 
 0 
 0 
 0 
 0 
 0 
 0 
 0 
 0 
 0 
 0 
 0 
 0 
 0 
 0 
 0 
 0 
 0 
 0 
 0 
 0 
 0 
 0 
 0 
 0 
 0 
 0 
 0 
 0 
 0 
 0 
 0 
 0 
 0 
 0 
 0 
 0 
 0 
 0 
 0 
 0 
 0 
 0 
 0 
 0 
 0 
 0 
 0 
 0 
 0 
 0 
 0 
 0 
 0 
 0 
 0 
 0 
 0 
 0 
 0 
 0 
 0 
 0 
 0 
 0 
 0 
 0 
 0 
 0 
 0 
 0 
 0 
 0 
 0 
 0 
 0 
 0 
 0 
 0 
 0 
 0 
 0 
 0 
 0 
 0 
 0 
 0 
 0 
 0 
 0 
 0 
 0 
 0 
 0 
 0 
 0 
 0 
 0 
 0 
 0 
 0 
 0 
 0 
 0 
 0 
 0 
 0 
 0 
 0 
 0 
 0 
 0 
 0 
 0 
 0 
 0 
 0 
 0 
 0 
 0 
 0 
 0 
 0 
 0 
 0 
 0 
 0 
 0 
 0 
 0 
 0 
 0 
 0 
 0 
 0 
 0 
 0 
 0 
 0 
 0 
 0 
 0 
 0 
 0 
 0 
 0 
 0 
 0 
 0 
 0 
 0 
 0 
 0 
 0 
 0 
 0 
 0 
 0 
 0 
 0 
 0 
 0 
 0 
 0 
 0 
 0 
 0 
 0 
 0 
 0 
 0 
 0 
 0 
 0 
 0 
 0 
 0 
 0 
 0 
 0 
 0 
 0 
 0 
 0 
 0 
 0 
 0 
 0 
 0 
 0 
 0 
 0 
 0 
 0 
 0 
 0 
 0 
 0 
 0 
 0 
 0 
 0 
 0 
 0 
 0 
 0 
 0 
 0 
 0 
 0 
 0 
 0 
 0 
 0 
 0 
 0 
 0 
 0 
 0 
 0 
 0 
 0 
 0 
 0 
 0 
 0 
 0 
 0 
 0 
 0 
 0 
 0 
 0 
 0 
 0 
 0 
 0 
 0 
 0 
 0 
 0 
 0 
 0 
 0 
 0 
 0 
 0 
 0 
 0 
 0 
 0 
 0 
 0 
 0 
 0 
 0 
 0 
 0 
 0 
 0 
 0 
 0 
 0 
 0 
 0 
 0 
 0 
 0 
 0 
 0 
 0 
 0 
 0 
 0 
 0 
 0 
 0 
 0 
 0 
 0 
 0 
 0 
 0 
 0 
 0 
 0 
 0 
 0 
 0 
 0 
 0 
 0 
 0 
 0 
 0 
 0 
 0 
 0 
 0 
 0 
 0 
 0 
 0 
 0 
 0 
 0 
 0 
 0 
 0 
 0 
 0 
 0 
 0 
 0 
 0 
 0 
 0 
 0 
 0 
 0 
 0 
 0 
 0 
 0 
 0 
 0 
 0 
 0 
 0 
 0 
 0 
 0 
 0 
 0 
 0 
 0 
 0 
 0 
 0 
 0 
 0 
 0 
 0 
 0 
 0 
 0 
 0 
 0 
 0 
 0 
 0 
 0 
 0 
 0 
 0 
 0 
 0 
 0 
 0 
 0 
 0 
 0 
 0 
 0 
 0 
 0 
 0 
 0 
 0 
 0 
 0 
 0 
 0 
 0 
 0 
 0 
 0 
 0 
 0 
 0 
 0 
 0 
 0 
 0 
 0 
 0 
 0 
 0 
 0 
 0 
 0 
 0 
 0 
 0 
 0 
 0 
 0 
 0 
 0 
 0 
 0 
 0 
 0 
 0 
 0 
 0 
 0 
 0 
 0 
 0 
 0 
 0 
 0 
 0 
 0 
 0 
 0 
 0 
 0 
 0 
 0 
 0 
 0 
 0 
 0 
 0 
 0 
 0 
 0 
 0 
 0 
 0 
 0 
 0 
 0 
 0 
 0 
 0 
 0 
 0 
 0 
 0 
 0 
 0 
 0 
 0 
 0 
 0 
 0 
 0 
 0 
 0 
 0 
 0 
 0 
 0 
 0 
 0 
 0 
 0 
 0 
 0 
 0 
 0 
 0 
 0 
 0 
 0 
 0 
 0 
 0 
 0 
 0 
 0 
 0 
 0 
 0 
 0 
 0 
 0 
 0 
 0 
 0 
 0 
 0 
 0 
 0 
 0 
 0 
 0 
 0 
 0 
 0 
 0 
 0 
 0 
 0 
 0 
 0 
 0 
 0 
 0 
 0 
 0 
 0 
 0 
 0 
 0 
 0 
 0 
 0 
 0 
 0 
 0 
 0 
 0 
 0 
 0 
 0 
 0 
 0 
 0 
 0 
 0 
 0 
 0 
 0 
 0 
 0 
 0 
 0 
 0 
 0 
 0 
 0 
 0 
 0 
 0 
 0 
 0 
 0 
 0 
 0 
 0 
 0 
 0 
 0 
 0 
 0 
 0 
 0 
 0 
 0 
 0 
 0 
 0 
 0 
 0 
 0 
 0 
 0 
 0 
 0 
 0 
 0 
 0 
 0 
 0 
 0 
 0 
 0 
 0 
 0 
 0 
 0 
 0 
 0 
 0 
 0 
 0 
 0 
 0 
 0 
 0 
 0 
 0 
 0 
 0 
 0 
 0 
 0 
 0 
 0 
 0 
 0 
 0 
 0 
 0 
 0 
 0 
 0 
 0 
 0 
 0 
 0 
 0 
 0 
 0 
 0 
 0 
 0 
 0 
 0 
 0 
 0 
 0 
 0 
 0 
 0 
 0 
 0 
 0 
 0 
 0 
 0 
 0 
 0 
 0 
 0 
 0 
 0 
 0 
 0 
 0 
 0 
 0 
 0 
 0 
 0 
 0 
 0 
 0 
 0 
 0 
 0 
 0 
 0 
 0 
 0 
 0 
 0 
 0 
 0 
 0 
 0 
SCALARS CONDID_2 FLOAT
LOOKUP_TABLE default
 1 
 0 
 0 
 0 
 0 
 0 
 0 
 1 
 0 
 1 
 0 
 1 
 0 
 1 
 0 
 1 
 0 
 1 
 0 
 0 
 0 
 0 
 0 
 0 
 0 
 0 
 0 
 0 
 0 
 0 
 0 
 0 
 0 
 0 
 0 
 0 
 0 
 0 
 0 
 0 
 0 
 0 
 0 
 0 
 0 
 0 
 0 
 0 
 0 
 0 
 0 
 0 
 0 
 0 
 0 
 0 
 0 
 0 
 0 
 0 
 0 
 0 
 0 
 0 
 0 
 0 
 0 
 0 
 0 
 0 
 1 
 1 
 1 
 0 
 0 
 0 
 0 
 0 
 0 
 1 
 1 
 1 
 0 
 0 
 0 
 0 
 0 
 0 
 1 
 1 
 1 
 0 
 0 
 0 
 0 
 0 
 0 
 1 
 1 
 1 
 0 
 0 
 0 
 0 
 0 
 0 
 1 
 1 
 1 
 0 
 0 
 0 
 0 
 0 
 0 
 1 
 1 
 1 
 0 
 0 
 0 
 0 
 0 
 0 
 0 
 0 
 0 
 0 
 0 
 0 
 0 
 0 
 0 
 0 
 0 
 0 
 0 
 0 
 0 
 0 
 0 
 0 
 0 
 0 
 0 
 0 
 0 
 0 
 0 
 0 
 0 
 0 
 0 
 0 
 0 
 0 
 0 
 0 
 0 
 0 
 0 
 0 
 0 
 0 
 0 
 0 
 0 
 0 
 0 
 0 
 0 
 0 
 0 
 0 
 0 
 0 
 0 
 0 
 0 
 0 
 0 
 0 
 0 
 0 
 0 
 0 
 0 
 0 
 0 
 0 
 0 
 0 
 0 
 0 
 0 
 0 
 0 
 0 
 0 
 0 
 0 
 0 
 0 
 0 
 0 
 0 
 0 
 0 
 0 
 0 
 0 
 0 
 0 
 0 
 0 
 0 
 0 
 0 
 0 
 0 
 0 
 0 
 0 
 0 
 0 
 0 
 0 
 0 
 0 
 0 
 0 
 0 
 0 
 0 
 0 
 0 
 0 
 0 
 0 
 0 
 0 
 0 
 0 
 0 
 0 
 0 
 0 
 0 
 0 
 0 
 0 
 0 
 0 
 0 
 0 
 0 
 0 
 0 
 0 
 0 
 0 
 0 
 0 
 0 
 0 
 0 
 0 
 0 
 0 
 0 
 0 
 0 
 0 
 0 
 0 
 0 
 0 
 0 
 0 
 0 
 0 
 0 
 0 
 0 
 0 
 0 
 0 
 0 
 0 
 0 
 0 
 0 
 0 
 0 
 0 
 0 
 0 
 0 
 0 
 0 
 0 
 0 
 0 
 0 
 0 
 0 
 0 
 0 
 0 
 0 
 0 
 0 
 0 
 0 
 0 
 0 
 0 
 0 
 0 
 0 
 0 
 0 
 0 
 0 
 0 
 0 
 0 
 0 
 0 
 0 
 0 
 0 
 0 
 0 
 0 
 0 
 0 
 0 
 0 
 0 
 0 
 0 
 0 
 0 
 0 
 0 
 0 
 0 
 0 
 0 
 0 
 0 
 0 
 0 
 0 
 0 
 0 
 0 
 0 
 0 
 0 
 0 
 0 
 0 
 0 
 0 
 0 
 0 
 0 
 0 
 0 
 0 
 0 
 0 
 0 
 0 
 0 
 0 
 0 
 0 
 0 
 0 
 0 
 0 
 0 
 0 
 0 
 0 
 0 
 0 
 0 
 0 
 0 
 0 
 0 
 0 
 0 
 0 
 0 
 0 
 0 
 0 
 0 
 0 
 0 
 0 
 0 
 0 
 0 
 0 
 0 
 0 
 0 
 0 
 0 
 0 
 0 
 0 
 0 
 0 
 0 
 0 
 0 
 0 
 0 
 0 
 0 
 0 
 0 
 0 
 0 
 0 
 0 
 0 
 0 
 0 
 0 
 0 
 0 
 0 
 0 
 0 
 0 
 0 
 0 
 0 
 0 
 0 
 0 
 0 
 0 
 0 
 0 
 0 
 0 
 0 
 0 
 0 
 0 
 0 
 0 
 0 
 0 
 0 
 0 
 0 
 0 
 0 
 0 
 0 
 0 
 0 
 0 
 0 
 0 
 0 
 0 
 0 
 0 
 0 
 0 
 0 
 0 
 0 
 0 
 0 
 0 
 0 
 0 
 0 
 0 
 0 
 0 
 0 
 0 
 0 
 0 
 0 
 0 
 0 
 0 
 0 
 0 
 0 
 0 
 0 
 0 
 0 
 0 
 0 
 0 
 0 
 0 
 0 
 0 
 0 
 0 
 0 
 0 
 0 
 0 
 0 
 0 
 0 
 0 
 0 
 0 
 0 
 0 
 0 
 0 
 0 
 0 
 0 
 0 
 0 
 0 
 0 
 0 
 0 
 0 
 0 
 0 
 0 
 0 
 0 
 0 
 0 
 0 
 0 
 0 
 0 
 0 
 0 
 0 
 0 
 0 
 0 
 0 
 0 
 0 
 0 
 0 
 0 
 0 
 0 
 0 
 0 
 0 
 0 
 0 
 0 
 0 
 0 
 0 
 0 
 0 
 0 
 0 
 0 
 0 
 0 
 0 
 0 
 0 
 0 
 0 
 0 
 0 
 0 
 0 
 0 
 0 
 0 
 0 
 0 
 0 
 0 
 0 
 0 
 0 
 0 
 0 
 0 
 0 
 0 
 0 
 0 
 0 
 0 
 0 
 0 
 0 
 0 
 0 
 0 
 0 
 0 
 0 
 0 
 0 
 0 
 0 
 0 
 0 
 0 
 0 
 0 
 0 
 0 
 0 
 0 
 0 
 0 
 0 
 0 
 0 
 0 
 0 
 0 
 0 
 0 
 0 
 0 
 0 
 0 
 0 
 0 
 0 
 0 
 0 
 0 
 0 
 0 
 0 
 0 
 0 
 0 
 0 
 0 
 0 
 0 
 0 
 0 
 0 
 0 
 0 
 0 
 0 
 0 
 0 
 0 
 0 
 0 
 0 
 0 
 0 
 0 
 0 
 0 
 0 
 0 
 0 
 0 
 0 
 0 
 0 
 0 
 0 
 0 
 0 
 0 
 0 
 0 
 0 
 0 
 0 
 0 
 0 
 0 
 0 
 0 
 0 
 0 
 0 
 0 
 0 
 0 
 0 
 0 
 0 
 0 
 0 
 0 
 0 
 0 
 0 
 0 
 0 
 0 
 0 
 0 
 0 
 0 
 0 
 0 
 0 
 0 
 0 
 0 
 0 
 0 
 0 
 0 
 0 
 0 
 0 
 0 
 0 
 0 
 0 
 0 
 0 
 0 
 0 
 0 
 0 
 0 
 0 
 0 
 0 
 0 
 0 
 0 
 0 
 0 
 0 
 0 
 0 
 0 
 0 
 0 
 0 
 0 
 0 
 0 
 0 
 0 
 0 
 0 
 0 
 0 
 0 
 0 
 0 
 0 
 0 
 0 
 0 
 0 
 0 
 0 
 0 
 0 
 0 
 0 
 0 
 0 
 0 
 0 
 0 
 0 
 0 
 0 
 0 
 0 
 0 
 0 
 0 
 0 
 0 
 0 
 0 
 0 
 0 
 0 
 0 
 0 
 0 
 0 
 0 
 0 
 0 
 0 
SCALARS CONDID_3 FLOAT
LOOKUP_TABLE default
 0 
 0 
 0 
 0 
 0 
 0 
 1 
 0 
 0 
 0 
 0 
 0 
 0 
 0 
 0 
 0 
 0 
 0 
 0 
 0 
 0 
 0 
 0 
 0 
 0 
 0 
 0 
 0 
 0 
 0 
 0 
 0 
 0 
 0 
 0 
 0 
 0 
 0 
 0 
 0 
 0 
 0 
 0 
 1 
 1 
 1 
 1 
 1 
 1 
 0 
 0 
 0 
 0 
 0 
 0 
 0 
 0 
 0 
 0 
 0 
 0 
 0 
 0 
 0 
 0 
 0 
 0 
 0 
 0 
 0 
 0 
 0 
 0 
 0 
 0 
 0 
 0 
 0 
 0 
 0 
 0 
 0 
 0 
 0 
 0 
 0 
 0 
 0 
 0 
 0 
 0 
 0 
 0 
 0 
 0 
 0 
 0 
 0 
 0 
 0 
 0 
 0 
 0 
 0 
 0 
 0 
 0 
 0 
 0 
 0 
 0 
 0 
 0 
 0 
 0 
 0 
 0 
 0 
 0 
 0 
 0 
 0 
 0 
 0 
 0 
 0 
 0 
 0 
 0 
 0 
 0 
 0 
 0 
 0 
 0 
 0 
 0 
 0 
 0 
 0 
 0 
 0 
 0 
 0 
 0 
 0 
 0 
 0 
 0 
 0 
 0 
 0 
 0 
 0 
 0 
 0 
 0 
 0 
 0 
 0 
 0 
 0 
 0 
 0 
 0 
 0 
 0 
 0 
 0 
 0 
 0 
 0 
 0 
 0 
 0 
 0 
 0 
 0 
 0 
 0 
 0 
 0 
 0 
 0 
 0 
 0 
 0 
 0 
 0 
 0 
 0 
 0 
 0 
 0 
 0 
 0 
 0 
 0 
 0 
 0 
 0 
 0 
 0 
 0 
 0 
 0 
 0 
 0 
 0 
 0 
 0 
 0 
 0 
 0 
 0 
 0 
 0 
 0 
 0 
 0 
 0 
 0 
 0 
 0 
 0 
 0 
 0 
 0 
 0 
 0 
 0 
 0 
 0 
 0 
 0 
 0 
 0 
 0 
 0 
 0 
 0 
 0 
 0 
 0 
 0 
 0 
 0 
 0 
 0 
 0 
 0 
 0 
 0 
 0 
 0 
 0 
 0 
 0 
 0 
 0 
 0 
 0 
 0 
 0 
 0 
 0 
 0 
 0 
 1 
 1 
 1 
 0 
 0 
 0 
 1 
 1 
 1 
 0 
 0 
 0 
 1 
 1 
 1 
 0 
 0 
 0 
 1 
 1 
 1 
 0 
 0 
 0 
 1 
 1 
 1 
 0 
 0 
 0 
 1 
 1 
 1 
 0 
 0 
 0 
 0 
 0 
 0 
 0 
 0 
 0 
 0 
 0 
 0 
 0 
 0 
 0 
 0 
 0 
 0 
 0 
 0 
 0 
 0 
 0 
 0 
 0 
 0 
 0 
 0 
 0 
 0 
 0 
 0 
 0 
 0 
 0 
 0 
 0 
 0 
 0 
 0 
 0 
 0 
 0 
 0 
 0 
 0 
 0 
 0 
 0 
 0 
 0 
 0 
 0 
 0 
 0 
 0 
 0 
 0 
 0 
 0 
 0 
 0 
 0 
 0 
 0 
 0 
 0 
 0 
 0 
 0 
 0 
 0 
 0 
 0 
 0 
 0 
 0 
 0 
 0 
 0 
 0 
 0 
 0 
 0 
 0 
 0 
 0 
 0 
 0 
 0 
 0 
 0 
 0 
 0 
 0 
 0 
 0 
 0 
 0 
 0 
 0 
 0 
 0 
 0 
 0 
 0 
 0 
 0 
 0 
 0 
 0 
 0 
 0 
 0 
 0 
 0 
 0 
 0 
 0 
 0 
 0 
 0 
 0 
 0 
 0 
 0 
 0 
 0 
 0 
 0 
 0 
 0 
 0 
 0 
 0 
 0 
 0 
 0 
 0 
 0 
 0 
 0 
 0 
 0 
 0 
 0 
 0 
 0 
 0 
 0 
 0 
 0 
 0 
 0 
 0 
 0 
 0 
 0 
 0 
 0 
 0 
 0 
 0 
 0 
 0 
 0 
 0 
 0 
 0 
 0 
 0 
 0 
 0 
 0 
 0 
 0 
 0 
 0 
 0 
 0 
 0 
 0 
 0 
 0 
 0 
 0 
 0 
 0 
 0 
 0 
 0 
 0 
 0 
 0 
 0 
 0 
 0 
 0 
 0 
 0 
 0 
 0 
 0 
 0 
 0 
 0 
 0 
 0 
 0 
 0 
 0 
 0 
 0 
 0 
 0 
 0 
 0 
 0 
 0 
 0 
 0 
 0 
 0 
 0 
 0 
 0 
 0 
 0 
 0 
 0 
 0 
 0 
 0 
 0 
 0 
 0 
 0 
 0 
 0 
 0 
 0 
 0 
 0 
 0 
 0 
 0 
 0 
 0 
 0 
 0 
 0 
 0 
 0 
 0 
 0 
 0 
 0 
 0 
 0 
 0 
 0 
 0 
 0 
 0 
 0 
 0 
 0 
 0 
 0 
 0 
 0 
 0 
 0 
 0 
 0 
 0 
 0 
 0 
 0 
 0 
 0 
 0 
 0 
 0 
 0 
 0 
 0 
 0 
 0 
 0 
 0 
 0 
 0 
 0 
 0 
 0 
 0 
 0 
 0 
 0 
 0 
 0 
 0 
 0 
 0 
 0 
 0 
 0 
 0 
 0 
 0 
 0 
 0 
 0 
 0 
 0 
 0 
 0 
 0 
 0 
 0 
 0 
 0 
 0 
 0 
 0 
 0 
 0 
 0 
 0 
 0 
 0 
 0 
 0 
 0 
 0 
 0 
 0 
 0 
 0 
 0 
 0 
 0 
 0 
 0 
 0 
 0 
 0 
 0 
 0 
 0 
 0 
 0 
 0 
 0 
 0 
 0 
 0 
 0 
 0 
 0 
 0 
 0 
 0 
 0 
 0 
 0 
 0 
 0 
 0 
 0 
 0 
 0 
 0 
 0 
 0 
 0 
 0 
 0 
 0 
 0 
 0 
 0 
 0 
 0 
 0 
 0 
 0 
 0 
 0 
 0 
 0 
 0 
 0 
 0 
 0 
 0 
 0 
 0 
 0 
 0 
 0 
 0 
 0 
 0 
 0 
 0 
 0 
 0 
 0 
 0 
 0 
 0 
 0 
 0 
 0 
 0 
 0 
 0 
 0 
 0 
 0 
 0 
 0 
 0 
 0 
 0 
 0 
 0 
 0 
 0 
 0 
 0 
 0 
 0 
 0 
 0 
 0 
 0 
 0 
 0 
 0 
 0 
 0 
 0 
 0 
 0 
 0 
 0 
 0 
 0 
 0 
 0 
 0 
 0 
 0 
 0 
 0 
 0 
 0 
 0 
 0 
 0 
 0 
 0 
 0 
 0 
 0 
 0 
 0 
 0 
 0 
 0 
 0 
 0 
 0 
 0 
 0 
 0 
 0 
 0 
 0 
 0 
 0 
 0 
 0 
 0 
 0 
 0 
 0 
 0 
 0 
 0 
 0 
 0 
 0 
 0 
 0 
 0 
 0 
 0 
 0 
 0 
 0 
 0 
 0 
 0 
 0 
 0 
 0 
 0 
 0 
 0 
VECTORS displacement FLOAT
 0  0  0 
 -2.283289e-05  -7.251988e-05  0 
 -3.340482e-03  -1.205030e-03  0 
 -3.331512e-03  -3.055531e-03  0 
 -5.214459e-03  -3.784684e-03  0 
 -5.244142e-03  -6.567315e-03  0 
 -4.231126e-02  -7.603970e-02  0 
 0  0  0 
 -4.842352e-04  -8.199647e-05  0 
 0  0  0 
 -2.021838e-04  -1.473814e-04  0 
 0  0  0 
 1.016149e-05  -1.342398e-04  0 
 0  0  0 
 2.938637e-04  -1.642763e-04  0 
 0  0  0 
 5.845770e-04  -5.657634e-04  0 
 0  0  0 
 2.213676e-03  -8.959469e-04  0 
 -1.131915e-03  -9.265669e-04  0 
 -5.236301e-04  -8.147854e-04  0 
 6.956502e-05  -8.654416e-04  0 
 8.439436e-04  -1.157315e-03  0 
 1.430178e-03  -1.770027e-03  0 
 2.205320e-03  -2.097545e-03  0 
 -1.834937e-03  -2.794232e-03  0 
 -9.307276e-04  -2.223287e-03  0 
 1.398248e-04  -2.133047e-03  0 
 1.281661e-03  -2.302093e-03  0 
 2.036796e-03  -2.321782e-03  0 
 4.702540e-03  -2.456544e-03  0 
 -2.311508e-03  -3.699466e-03  0 
 -1.122038e-03  -3.847567e-03  0 
 1.810824e-04  -3.915332e-03  0 
 1.552992e-03  -4.107297e-03  0 
 2.497194e-03  -4.676417e-03  0 
 4.720624e-03  -4.897176e-03  0 
 -2.655039e-03  -6.345233e-03  0 
 -1.215212e-03  -5.832142e-03  0 
 1.955298e-04  -5.580444e-03  0 
 1.705690e-03  -5.634074e-03  0 
 2.749550e-03  -5.687235e-03  0 
 4.312164e-02  -5.905002e-03  0 
 -2.869988e-03  -7.822824e-03  0 
 -1.198364e-03  -7.870724e-03  0 
 8.868528e-05  -7.428504e-03  0 
 1.858633e-03  -7.449025e-03  0 
 2.772194e-03  -4.627395e-02  0 
 4.319372e-02  -4.627638e-02  0 
 -2.656526e-05  -5.488459e-05  0 
 -2.887455e-05  -8.079903e-05  0 
 -2.311891e-05  -7.715556e-05  0 
 -1.012339e-03  -1.172726e-03  0 
 -1.755430e-03  -1.724811e-03  0 
 -2.429514e-03  -1.766915e-03  0 
 -3.339963e-03  -1.662313e-03  0 
 -3.336662e-03  -2.121579e-03  0 
 -3.333813e-03  -2.586640e-03  0 
 -3.619938e-03  -3.676256e-03  0 
 -3.940059e-03  -4.043330e-03  0 
 -4.413687e-03  -4.130494e-03  0 
 -5.216382e-03  -4.470501e-03  0 
 -5.219155e-03  -5.156318e-03  0 
 -5.229027e-03  -5.853785e-03  0 
 -1.677230e-02  -1.891687e-02  0 
 -2.670278e-02  -3.043061e-02  0 
 -3.622851e-02  -4.875415e-02  0 
 -3.710500e-05  4.779121e-06  0 
 -1.070436e-04  -2.365487e-05  0 
 -2.330719e-04  -3.695067e-05  0 
 0  0  0 
 0  0  0 
 0  0  0 
 -3.006826e-05  -6.298951e-05  0 
 -5.543942e-05  -4.331445e-05  0 
 -1.387975e-04  -1.678763e-05  0 
 -3.800253e-05  -3.485557e-05  0 
 -7.280362e-05  -5.087762e-05  0 
 -1.197060e-04  -8.725666e-05  0 
 0  0  0 
 0  0  0 
 0  0  0 
 -6.199774e-04  -1.870735e-04  0 
 -5.983874e-04  -1.860647e-04  0 
 -4.468927e-04  -1.517437e-04  0 
 1.020529e-05  -9.227881e-06  0 
 2.008814e-05  -3.172772e-05  0 
 2.183604e-05  -6.625315e-05  0 
 0  0  0 
 0  0  0 
 0  0  0 
 -6.705214e-05  -1.176704e-04  0 
 -2.239941e-05  -9.290880e-05  0 
 2.393278e-06  -9.287578e-05  0 
 -2.039432e-07  -2.054243e-05  0 
 2.668848e-05  -7.596011e-05  0 
 1.086248e-04  -1.165518e-04  0 
 0  0  0 
 0  0  0 
 0  0  0 
 1.456605e-04  -1.735071e-04  0 
 2.806226e-04  -1.899764e-04  0 
 3.822944e-04  -1.974371e-04  0 
 1.023825e-04  -9.899539e-05  0 
 2.059537e-04  -1.616172e-04  0 
 3.448747e-04  -2.903903e-04  0 
 0  0  0 
 0  0  0 
 0  0  0 
 8.015871e-05  -1.522232e-04  0 
 8.243294e-05  -2.345764e-04  0 
 1.898078e-04  -3.739727e-04  0 
 6.301238e-04  -7.612660e-04  0 
 1.163169e-03  -1.125688e-03  0 
 1.638770e-03  -1.249806e-03  0 
 0  0  0 
 0  0  0 
 0  0  0 
 1.254672e-03  -7.684854e-04  0 
 1.621044e-03  -8.727342e-04  0 
 1.924245e-03  -8.965110e-04  0 
 -6.659913e-04  -2.952408e-04  0 
 -8.102960e-04  -4.276641e-04  0 
 -9.637946e-04  -6.755926e-04  0 
 -2.886925e-03  -1.203325e-03  0 
 -2.421227e-03  -1.176261e-03  0 
 -1.895883e-03  -1.092341e-03  0 
 -2.731326e-04  -2.939459e-04  0 
 -3.336537e-04  -4.634010e-04  0 
 -4.075934e-04  -5.988144e-04  0 
 -7.277649e-04  -8.331667e-04  0 
 -5.249617e-04  -7.230044e-04  0 
 -4.712435e-04  -7.159665e-04  0 
 -4.729421e-06  -3.327587e-04  0 
 -7.318574e-06  -5.010271e-04  0 
 2.066347e-05  -6.658329e-04  0 
 -4.959640e-04  -9.221214e-04  0 
 -3.121719e-04  -9.348735e-04  0 
 -1.010946e-04  -9.231322e-04  0 
 4.838705e-04  -3.343798e-04  0 
 5.915635e-04  -5.099258e-04  0 
 6.895089e-04  -7.489652e-04  0 
 1.424474e-04  -8.167963e-04  0 
 2.592805e-04  -8.295630e-04  0 
 4.619528e-04  -9.464130e-04  0 
 8.396874e-04  -1.114913e-03  0 
 1.009020e-03  -1.493080e-03  0 
 1.176602e-03  -1.714512e-03  0 
 1.242682e-03  -1.325145e-03  0 
 1.479601e-03  -1.518872e-03  0 
 1.573642e-03  -1.660722e-03  0 
 2.212879e-03  -1.190388e-03  0 
 2.209475e-03  -1.487746e-03  0 
 2.205999e-03  -1.790779e-03  0 
 1.363664e-03  -1.970038e-03  0 
 1.597092e-03  -2.072781e-03  0 
 1.894033e-03  -2.098318e-03  0 
 -1.339141e-03  -1.592474e-03  0 
 -1.483219e-03  -2.116460e-03  0 
 -1.627255e-03  -2.523528e-03  0 
 -2.862796e-03  -3.052242e-03  0 
 -2.401296e-03  -3.031101e-03  0 
 -1.998627e-03  -2.951488e-03  0 
 -6.859270e-04  -1.152520e-03  0 
 -7.702922e-04  -1.421995e-03  0 
 -8.425333e-04  -1.744563e-03  0 
 -1.839961e-03  -2.687255e-03  0 
 -1.644314e-03  -2.542249e-03  0 
 -1.351162e-03  -2.420167e-03  0 
 1.228549e-04  -1.170226e-03  0 
 1.604831e-04  -1.444093e-03  0 
 1.687078e-04  -1.738662e-03  0 
 -5.449540e-04  -2.017327e-03  0 
 -2.866835e-04  -1.942735e-03  0 
 -6.206072e-05  -1.995185e-03  0 
 9.568403e-04  -1.542276e-03  0 
 1.071548e-03  -1.867939e-03  0 
 1.153814e-03  -2.070243e-03  0 
 4.476552e-04  -2.279705e-03  0 
 7.841723e-04  -2.358904e-03  0 
 1.093048e-03  -2.365816e-03  0 
 1.614555e-03  -1.811746e-03  0 
 1.770181e-03  -1.856261e-03  0 
 1.882659e-03  -2.054760e-03  0 
 1.301133e-03  -2.238787e-03  0 
 1.440284e-03  -2.226762e-03  0 
 1.657522e-03  -2.253878e-03  0 
 2.674541e-03  -2.828982e-03  0 
 3.129584e-03  -3.091227e-03  0 
 3.737521e-03  -3.053128e-03  0 
 2.849559e-03  -2.396111e-03  0 
 3.497353e-03  -2.442731e-03  0 
 4.100943e-03  -2.454406e-03  0 
 -1.998115e-03  -2.917976e-03  0 
 -2.132566e-03  -3.108912e-03  0 
 -2.213300e-03  -3.377073e-03  0 
 -4.531406e-03  -3.784374e-03  0 
 -3.843694e-03  -3.778950e-03  0 
 -3.131130e-03  -3.752603e-03  0 
 -1.002388e-03  -2.731906e-03  0 
 -1.045993e-03  -3.096110e-03  0 
 -1.073227e-03  -3.426854e-03  0 
 -1.920999e-03  -3.661495e-03  0 
 -1.626034e-03  -3.662069e-03  0 
 -1.361179e-03  -3.716187e-03  0 
 9.717932e-05  -2.643468e-03  0 
 1.027886e-04  -3.067709e-03  0 
 1.229520e-04  -3.457307e-03  0 
 -7.980482e-04  -3.976047e-03  0 
 -4.514018e-04  -4.013784e-03  0 
 -1.038747e-04  -4.000148e-03  0 
 1.396137e-03  -2.716780e-03  0 
 1.468226e-03  -3.073639e-03  0 
 1.514842e-03  -3.504541e-03  0 
 4.574229e-04  -3.809214e-03  0 
 7.812971e-04  -3.798492e-03  0 
 1.135130e-03  -3.876253e-03  0 
 2.188601e-03  -3.021904e-03  0 
 2.286766e-03  -3.652009e-03  0 
 2.390572e-03  -4.173745e-03  0 
 1.914500e-03  -4.344939e-03  0 
 2.199111e-03  -4.455886e-03  0 
 2.425894e-03  -4.544731e-03  0 
 4.704587e-03  -3.058324e-03  0 
 4.707222e-03  -3.662765e-03  0 
 4.713214e-03  -4.278350e-03  0 
 2.937248e-03  -4.763839e-03  0 
 3.493077e-03  -4.851313e-03  0 
 4.101056e-03  -4.882548e-03  0 
 -2.408631e-03  -4.451053e-03  0 
 -2.476003e-03  -5.152918e-03  0 
 -2.548239e-03  -5.796369e-03  0 
 -4.530481e-03  -6.542480e-03  0 
 -3.833398e-03  -6.515795e-03  0 
 -3.176397e-03  -6.459035e-03  0 
 -1.169554e-03  -4.354276e-03  0 
 -1.192101e-03  -4.777241e-03  0 
 -1.209955e-03  -5.226158e-03  0 
 -2.381908e-03  -6.259357e-03  0 
 -2.047403e-03  -6.158926e-03  0 
 -1.648524e-03  -6.050839e-03  0 
 2.392963e-04  -4.366970e-03  0 
 2.543542e-04  -4.769520e-03  0 
 2.418251e-04  -5.161721e-03  0 
 -8.157055e-04  -5.613462e-03  0 
 -4.555405e-04  -5.534583e-03  0 
 -1.036853e-04  -5.529569e-03  0 
 1.593771e-03  -4.647963e-03  0 
 1.636341e-03  -5.004768e-03  0 
 1.668411e-03  -5.314386e-03  0 
 5.644873e-04  -5.635300e-03  0 
 9.658817e-04  -5.655060e-03  0 
 1.363800e-03  -5.661402e-03  0 
 2.627183e-03  -4.783885e-03  0 
 2.701341e-03  -5.013381e-03  0 
 2.738335e-03  -5.307994e-03  0 
 1.935489e-03  -5.588647e-03  0 
 2.187778e-03  -5.573215e-03  0 
 2.455944e-03  -5.604080e-03  0 
 1.250075e-02  -1.153612e-02  0 
 1.988395e-02  -1.413751e-02  0 
 2.973983e-02  -1.322863e-02  0 
 1.285553e-02  -5.776521e-03  0 
 2.296116e-02  -5.836968e-03  0 
 3.305028e-02  -5.874689e-03  0 
 -2.732345e-03  -6.647659e-03  0 
 -2.809060e-03  -7.000399e-03  0 
 -2.849099e-03  -7.399742e-03  0 
 -2.255763e-02  -6.587001e-02  0 
 -1.298859e-02  -5.043695e-02  0 
 -9.603869e-03  -3.315675e-02  0 
 -1.213433e-03  -6.475765e-03  0 
 -1.221557e-03  -6.961079e-03  0 
 -1.214236e-03  -7.407386e-03  0 
 -2.462451e-03  -7.800749e-03  0 
 -2.060942e-03  -7.797354e-03  0 
 -1.643871e-03  -7.830657e-03  0 
 1.531612e-04  -6.064634e-03  0 
 1.225785e-04  -6.516088e-03  0 
 1.017863e-04  -6.965917e-03  0 
 1.827407e-04  -2.222770e-02  0 
 -5.407167e-04  -2.553079e-02  0 
 -1.057298e-03  -2.110707e-02  0 
 1.769008e-03  -6.087584e-03  0 
 1.804599e-03  -6.524438e-03  0 
 1.832484e-03  -6.975015e-03  0 
 5.352510e-04  -7.404687e-03  0 
 9.692442e-04  -7.388457e-03  0 
 1.401646e-03  -7.405401e-03  0 
 2.749291e-03  -1.587775e-02  0 
 2.763661e-03  -2.602797e-02  0 
 2.769427e-03  -3.615089e-02  0 
 6.124610e-03  -2.648483e-02  0 
 6.063198e-03  -3.815246e-02  0 
 5.083146e-03  -4.377576e-02  0 
 4.314583e-02  -1.597770e-02  0 
 4.317026e-02  -2.606058e-02  0 
 4.318602e-02  -3.616344e-02  0 
 1.288062e-02  -4.627341e-02  0 
 2.298643e-02  -4.626896e-02  0 
 3.308816e-02  -4.627003e-02  0 
 -4.181374e-05  -7.673250e-05  0 
 -1.063702e-04  -1.030786e-04  0 
 -2.395805e-05  -3.931686e-05  0 
 -1.602309e-05  -5.686926e-05  0 
 -1.567035e-04  -1.110944e-04  0 
 -7.044433e-05  -6.397256e-05  0 
 -1.794973e-05  -4.039602e-05  0 
 -7.787574e-05  -1.088367e-04  0 
 -2.758186e-05  -8.417970e-05  0 
 -4.091777e-05  -8.463448e-05  0 
 -9.955185e-06  -2.476296e-05  0 
 -2.403673e-04  -1.385642e-04  0 
 -2.073438e-05  -1.474621e-05  0 
 -2.711289e-05  -8.316917e-05  0 
 -2.366965e-05  -7.425209e-05  0 
 -1.337855e-04  1.201879e-05  0 