# vtk DataFile Version 3.1
this is an vtk file created by FEMAC
ASCII
DATASET UNSTRUCTURED_GRID
POINTS 19 FLOAT
0.000000 3.000000 0.000000
1.000000 3.000000 0.000000
0.333333 3.000000 0.000000
0.666667 3.000000 0.000000
0.000000 2.333333 0.000000
0.000000 2.666667 0.000000
0.000000 3.333333 0.000000
0.488340 2.795578 0.000000
0.478822 2.249935 0.000000
0.696366 2.537083 0.000000
0.783178 2.799145 0.000000
0.209278 2.252241 0.000000
0.291353 2.524024 0.000000
0.222605 2.797254 0.000000
0.775322 3.206402 0.000000
0.478822 3.249935 0.000000
0.696366 3.537083 0.000000
0.209278 3.252241 0.000000
0.291353 3.524024 0.000000
CELLS 24 96 
3 7 3 2
3 3 10  1
3 7 10  3
3 9 10  7
3 12  5  4
3 8 12 11
3 8  9 12
3 11 12  4
3 12  9  7
3 13  2  0
3 13  5 12
3 5 13  0
3 13  7  2
3 12  7 13
3 14  3  1
3 15  3 14
3 3 15  2
3 15 14 16
3 2 17  0
3 17  6  0
3 17  2 15
3 15 18 17
3 15 16 18
3 17 18  6
CELL_TYPES 24
5 5 5 5 5 5 5 5 5 5 5 5 5 5 5 5 5 5 5 5 5 5 5 5 
POINT_DATA 19
VECTORS displacement_ITER1 FLOAT
 0  0  0 
 3.401951e-04  -1.398858e-03  0 
 2.107857e-04  -2.830910e-04  0 
 3.476869e-04  -6.810147e-04  0 
 0  0  0 
 0  0  0 
 0  0  0 
 6.906218e-05  -3.818221e-04  0 
 -3.426560e-04  -4.598316e-04  0 
 -1.416047e-04  -6.516555e-04  0 
 8.021167e-05  -8.572767e-04  0 
 -2.119079e-04  -2.507187e-04  0 
 -6.899064e-05  -1.681097e-04  0 
 3.273224e-05  -1.075045e-04  0 
 1.620156e-03  -3.278330e-03  0 
 6.618340e-04  -3.760292e-03  0 
 2.391879e-03  -6.500285e-03  0 
 -1.639546e-04  -2.194403e-03  0 
 1.764171e-03  -4.485374e-03  0 
VECTORS displacement_ITER2 FLOAT
 0  0  0 
 2.168901e-04  -1.280506e-03  0 
 1.675294e-04  -2.475378e-04  0 
 2.578515e-04  -5.854872e-04  0 
 0  0  0 
 0  0  0 
 0  0  0 
 3.758833e-05  -3.482522e-04  0 
 -2.812086e-04  -4.344751e-04  0 
 -1.265036e-04  -5.843916e-04  0 
 2.221950e-05  -7.514732e-04  0 
 -1.759567e-04  -2.315163e-04  0 
 -5.812047e-05  -1.704217e-04  0 
 2.174068e-05  -1.042345e-04  0 
 1.794658e-03  -3.489994e-03  0 
 6.805956e-04  -3.739453e-03  0 
 3.634427e-03  -7.700815e-03  0 
 -1.390832e-04  -2.128846e-03  0 
 2.234420e-03  -4.527833e-03  0 
VECTORS displacement_ITER3 FLOAT
 0  0  0 
 2.893195e-04  -1.311996e-03  0 
 1.667611e-04  -2.630190e-04  0 
 2.510340e-04  -5.747868e-04  0 
 0  0  0 
 0  0  0 
 0  0  0 
 3.247925e-05  -3.688412e-04  0 
 -2.410935e-04  -5.044217e-04  0 
 -1.041565e-04  -6.212513e-04  0 
 -1.637313e-05  -7.315013e-04  0 
 -1.853654e-04  -2.577918e-04  0 
 -4.150695e-05  -2.115058e-04  0 
 2.338310e-05  -1.234286e-04  0 
 2.069656e-03  -3.477686e-03  0 
 8.397000e-04  -3.601937e-03  0 
 4.801273e-03  -8.247092e-03  0 
 -4.318330e-05  -2.026257e-03  0 
 2.666626e-03  -4.449789e-03  0 
VECTORS displacement_ITER4 FLOAT
 0  0  0 
 5.404843e-04  -2.079448e-03  0 
 2.735411e-04  -3.651537e-04  0 
 4.680697e-04  -8.809854e-04  0 
 0  0  0 
 0  0  0 
 0  0  0 
 7.878027e-05  -4.950229e-04  0 
 -3.369485e-04  -5.988583e-04  0 
 -1.403709e-04  -8.326556e-04  0 
 6.020854e-05  -1.117111e-03  0 
 -1.919528e-04  -2.602129e-04  0 
 -5.936416e-05  -2.257059e-04  0 
 4.120722e-05  -1.441340e-04  0 
 1.275010e-03  -3.193733e-03  0 
 5.194771e-04  -3.663421e-03  0 
 1.793338e-03  -5.892839e-03  0 
 -2.404643e-04  -2.306985e-03  0 
 1.020723e-03  -4.460048e-03  0 
VECTORS displacement_ITER5 FLOAT
 0  0  0 
 2.511487e-04  -1.438770e-03  0 
 1.772491e-04  -2.605155e-04  0 
 2.702256e-04  -5.974899e-04  0 
 0  0  0 
 0  0  0 
 0  0  0 
 4.366860e-05  -3.645534e-04  0 
 -1.794669e-04  -3.979278e-04  0 
 -5.592542e-05  -5.858865e-04  0 
 9.921656e-07  -7.779460e-04  0 
 -6.241474e-05  -1.186676e-04  0 
 -2.362965e-05  -1.537354e-04  0 
 2.380976e-05  -1.088712e-04  0 
 5.967382e-04  -2.649409e-03  0 
 1.118367e-04  -3.106252e-03  0 
 1.847167e-04  -4.031480e-03  0 
 -3.684644e-04  -2.089997e-03  0 
 4.680948e-06  -3.471757e-03  0 
VECTORS displacement_ITER6 FLOAT
 0  0  0 
 1.793102e-04  -1.244829e-03  0 
 1.669761e-04  -2.457723e-04  0 
 2.489093e-04  -5.662484e-04  0 
 0  0  0 
 0  0  0 
 0  0  0 
 4.813918e-05  -3.407316e-04  0 
 -1.510862e-04  -3.381332e-04  0 
 -4.874042e-05  -5.295592e-04  0 
 3.149378e-05  -7.324475e-04  0 
 -5.224575e-05  -1.007696e-04  0 
 -2.410071e-05  -1.369063e-04  0 
 2.391873e-05  -1.007499e-04  0 
 6.865904e-04  -2.554171e-03  0 
 1.811717e-04  -3.089343e-03  0 
 3.826709e-04  -4.034202e-03  0 
 -3.258670e-04  -2.032231e-03  0 
 2.660526e-04  -3.422612e-03  0 
VECTORS displacement_ITER7 FLOAT
 0  0  0 
 2.024129e-04  -1.253204e-03  0 
 1.733562e-04  -2.554987e-04  0 
 2.581004e-04  -5.818627e-04  0 
 0  0  0 
 0  0  0 
 0  0  0 
 5.069925e-05  -3.535496e-04  0 
 -1.460880e-04  -3.467272e-04  0 
 -4.847076e-05  -5.532666e-04  0 
 2.951629e-05  -7.511795e-04  0 
 -4.980855e-05  -1.084548e-04  0 
 -2.420858e-05  -1.449413e-04  0 
 2.535874e-05  -1.055266e-04  0 
 4.748736e-04  -2.276455e-03  0 
 9.609413e-05  -2.931584e-03  0 
 -5.093452e-04  -3.004197e-03  0 
 -3.567035e-04  -2.007743e-03  0 
 -2.342386e-04  -3.141376e-03  0 
VECTORS displacement_ITER8 FLOAT
 0  0  0 
 1.748085e-04  -1.214986e-03  0 
 1.695652e-04  -2.533373e-04  0 
 2.449679e-04  -5.718936e-04  0 
 0  0  0 
 0  0  0 
 0  0  0 
 4.925980e-05  -3.528054e-04  0 
 -1.556236e-04  -3.436763e-04  0 
 -5.269817e-05  -5.577483e-04  0 
 2.445277e-05  -7.416783e-04  0 
 -5.569757e-05  -1.097533e-04  0 
 -2.719295e-05  -1.428306e-04  0 
 2.437301e-05  -1.047077e-04  0 
 6.989675e-04  -2.515175e-03  0 
 1.879519e-04  -3.012663e-03  0 
 4.336828e-04  -3.931886e-03  0 
 -3.143602e-04  -2.001577e-03  0 
 2.104931e-04  -3.314440e-03  0 
VECTORS displacement_ITER9 FLOAT
 0  0  0 
 1.736035e-04  -1.212387e-03  0 
 1.699037e-04  -2.542098e-04  0 
 2.447045e-04  -5.728761e-04  0 
 0  0  0 
 0  0  0 
 0  0  0 
 4.951383e-05  -3.540835e-04  0 
 -1.564683e-04  -3.460931e-04  0 
 -5.458692e-05  -5.621261e-04  0 
 2.391146e-05  -7.434132e-04  0 
 -5.601537e-05  -1.101037e-04  0 
 -2.757840e-05  -1.435504e-04  0 
 2.447234e-05  -1.051562e-04  0 
 6.363118e-04  -2.498141e-03  0 
 1.564212e-04  -2.977639e-03  0 
 3.109311e-04  -3.788189e-03  0 
 -3.240327e-04  -1.992040e-03  0 
 1.207163e-04  -3.241993e-03  0 
CELL_DATA 24
TENSORS element_stresses FLOAT
 1.686819e-01  -1.514727e-01  0 
 -1.514727e-01  -1.857342e-01  0 
 0  0  0 

 -3.213779e-01  -7.253839e-01  0 
 -7.253839e-01  -3.602504e-01  0 
 0  0  0 

 -8.207723e-02  -2.153113e-01  0 
 -2.153113e-01  5.787027e-02  0 
 0  0  0 

 -1.839935e-01  -7.598253e-01  0 
 -7.598253e-01  -3.105651e-01  0 
 0  0  0 

 -1.040179e-01  -3.790017e-01  0 
 -3.790017e-01  -3.120536e-02  0 
 0  0  0 

 -3.610263e-01  -5.059166e-01  0 
 -5.059166e-01  3.265982e-02  0 
 0  0  0 

 -7.764950e-02  -4.761724e-01  0 
 -4.761724e-01  8.106795e-03  0 
 0  0  0 

 -2.128632e-01  -2.674275e-01  0 
 -2.674275e-01  -3.179422e-02  0 
 0  0  0 

 -9.397433e-02  -5.326279e-01  0 
 -5.326279e-01  -5.439677e-02  0 
 0  0  0 

 4.550660e-01  -2.489969e-01  0 
 -2.489969e-01  -1.821506e-01  0 
 0  0  0 

 4.481569e-03  -2.256599e-01  0 
 -2.256599e-01  2.021983e-02  0 
 0  0  0 

 1.208088e-01  -3.633756e-01  0 
 -3.633756e-01  3.624263e-02  0 
 0  0  0 

 3.470066e-02  -2.112302e-01  0 
 -2.112302e-01  -2.123984e-01  0 
 0  0  0 

 7.361477e-02  -5.559986e-01  0 
 -5.559986e-01  -7.324450e-02  0 
 0  0  0 

 -2.976530e-03  7.004914e-05  0 
 7.004914e-05  -9.210757e-03  0 
 0  0  0 

 -1.179840e-03  9.231960e-04  0 
 9.231960e-04  -9.802729e-03  0 
 0  0  0 

 -3.162211e-03  -8.773603e-04  0 
 -8.773603e-04  -1.128871e-02  0 
 0  0  0 

 4.777711e-04  3.562396e-04  0 
 3.562396e-04  -3.499422e-03  0 
 0  0  0 

 -1.834814e-03  -1.900108e-03  0 
 -1.900108e-03  -7.815083e-03  0 
 0  0  0 

 -1.701472e-03  -7.322037e-03  0 
 -7.322037e-03  -5.104415e-04  0 
 0  0  0 

 -9.276971e-04  -3.705606e-03  0 
 -3.705606e-03  -9.002919e-03  0 
 0  0  0 

 8.198757e-04  -1.993126e-03  0 
 -1.993126e-03  -3.239873e-03  0 
 0  0  0 

 -9.914474e-05  -8.478661e-04  0 
 -8.478661e-04  -1.875905e-03  0 
 0  0  0 

 -1.408397e-03  -6.333312e-03  0 
 -6.333312e-03  -1.966405e-03  0 
 0  0  0 

TENSORS element_stresses FLOAT
 1.686819e-01  -1.514727e-01  0 
 -1.514727e-01  -1.857342e-01  0 
 0  0  0 

 -3.213779e-01  -7.253839e-01  0 
 -7.253839e-01  -3.602504e-01  0 
 0  0  0 

 -8.207723e-02  -2.153113e-01  0 
 -2.153113e-01  5.787027e-02  0 
 0  0  0 

 -1.839935e-01  -7.598253e-01  0 
 -7.598253e-01  -3.105651e-01  0 
 0  0  0 

 -1.040179e-01  -3.790017e-01  0 
 -3.790017e-01  -3.120536e-02  0 
 0  0  0 

 -3.610263e-01  -5.059166e-01  0 
 -5.059166e-01  3.265982e-02  0 
 0  0  0 

 -7.764950e-02  -4.761724e-01  0 
 -4.761724e-01  8.106795e-03  0 
 0  0  0 

 -2.128632e-01  -2.674275e-01  0 
 -2.674275e-01  -3.179422e-02  0 
 0  0  0 

 -9.397433e-02  -5.326279e-01  0 
 -5.326279e-01  -5.439677e-02  0 
 0  0  0 

 4.550660e-01  -2.489969e-01  0 
 -2.489969e-01  -1.821506e-01  0 
 0  0  0 

 4.481569e-03  -2.256599e-01  0 
 -2.256599e-01  2.021983e-02  0 
 0  0  0 

 1.208088e-01  -3.633756e-01  0 
 -3.633756e-01  3.624263e-02  0 
 0  0  0 

 3.470066e-02  -2.112302e-01  0 
 -2.112302e-01  -2.123984e-01  0 
 0  0  0 

 7.361477e-02  -5.559986e-01  0 
 -5.559986e-01  -7.324450e-02  0 
 0  0  0 

 -2.976530e-03  7.004914e-05  0 
 7.004914e-05  -9.210757e-03  0 
 0  0  0 

 -1.179840e-03  9.231960e-04  0 
 9.231960e-04  -9.802729e-03  0 
 0  0  0 

 -3.162211e-03  -8.773603e-04  0 
 -8.773603e-04  -1.128871e-02  0 
 0  0  0 

 4.777711e-04  3.562396e-04  0 
 3.562396e-04  -3.499422e-03  0 
 0  0  0 

 -1.834814e-03  -1.900108e-03  0 
 -1.900108e-03  -7.815083e-03  0 
 0  0  0 

 -1.701472e-03  -7.322037e-03  0 
 -7.322037e-03  -5.104415e-04  0 
 0  0  0 

 -9.276971e-04  -3.705606e-03  0 
 -3.705606e-03  -9.002919e-03  0 
 0  0  0 

 8.198757e-04  -1.993126e-03  0 
 -1.993126e-03  -3.239873e-03  0 
 0  0  0 

 -9.914474e-05  -8.478661e-04  0 
 -8.478661e-04  -1.875905e-03  0 
 0  0  0 

 -1.408397e-03  -6.333312e-03  0 
 -6.333312e-03  -1.966405e-03  0 
 0  0  0 

