# vtk DataFile Version 3.1
this is an vtk file created by FEMAC
ASCII
DATASET UNSTRUCTURED_GRID
POINTS 20 FLOAT
4.000000 3.000000 0.000000
4.000000 4.000000 0.000000
3.333333 3.000000 0.000000
3.666667 3.000000 0.000000
4.000000 2.666667 0.000000
3.666667 4.000000 0.000000
4.000000 3.333333 0.000000
4.000000 3.666667 0.000000
4.333333 3.000000 0.000000
4.666667 3.000000 0.000000
3.466342 2.734179 0.000000
3.783162 2.605840 0.000000
3.515789 3.340031 0.000000
3.466342 3.734179 0.000000
3.783162 3.605840 0.000000
3.793124 3.255841 0.000000
4.394160 2.783162 0.000000
4.509726 3.248421 0.000000
4.265821 3.466342 0.000000
4.214111 3.242347 0.000000
CELLS 25 100 
3 2 10  3
3 3 11  0
3 11  4  0
3 11  3 10
3 12  2  3
3 5 14  1
3 14  7  1
3 14  5 13
3 15  3  0
3 6 15  0
3 15 12  3
3 7 14  6
3 12 14 13
3 12 15 14
3 15  6 14
3 4 16  0
3 16  8  0
3 8 16  9
3 8  9 17
3 6 18  7
3 8 19  0
3 19  8 17
3 19  6  0
3 19 18  6
3 17 18 19
CELL_TYPES 25
5 5 5 5 5 5 5 5 5 5 5 5 5 5 5 5 5 5 5 5 5 5 5 5 5 
POINT_DATA 20
VECTORS displacement_ITER1 FLOAT
 2.093365e-01  -2.691266e-01  0 
 2.430793e-01  -2.687322e-01  0 
 2.092612e-01  -2.460701e-01  0 
 2.092858e-01  -2.575256e-01  0 
 1.606975e-01  -2.692955e-01  0 
 2.431205e-01  -2.574031e-01  0 
 2.205864e-01  -2.688228e-01  0 
 2.318037e-01  -2.687468e-01  0 
 2.094109e-01  -3.180724e-01  0 
 2.094165e-01  -3.668824e-01  0 
 1.824054e-01  -2.429508e-01  0 
 1.628802e-01  -2.589343e-01  0 
 2.208998e-01  -2.523853e-01  0 
 2.340812e-01  -2.505364e-01  0 
 2.297585e-01  -2.613866e-01  0 
 2.180376e-01  -2.618698e-01  0 
 1.776691e-01  -3.269879e-01  0 
 2.244169e-01  -3.311680e-01  0 
 2.319037e-01  -2.963221e-01  0 
 2.218056e-01  -2.945367e-01  0 
VECTORS displacement_ITER2 FLOAT
 3.867383e-02  -6.604095e-02  0 
 5.352011e-02  -6.558273e-02  0 
 3.857710e-02  -5.547355e-02  0 
 3.861602e-02  -6.068383e-02  0 
 6.245731e-03  -6.625868e-02  0 
 5.357192e-02  -6.047474e-02  0 
 4.363378e-02  -6.568553e-02  0 
 4.855198e-02  -6.559384e-02  0 
 3.876559e-02  -9.881571e-02  0 
 3.879040e-02  -1.314744e-01  0 
 2.169643e-02  -5.229643e-02  0 
 8.455636e-03  -6.115312e-02  0 
 4.385014e-02  -5.838049e-02  0 
 4.960967e-02  -5.739250e-02  0 
 4.766641e-02  -6.231608e-02  0 
 4.256295e-02  -6.264802e-02  0 
 1.753795e-02  -1.047647e-01  0 
 4.736824e-02  -1.071252e-01  0 
 5.068535e-02  -8.391899e-02  0 
 4.537514e-02  -8.297705e-02  0 
VECTORS displacement_ITER3 FLOAT
 2.739621e-03  -2.262405e-02  0 
 1.507307e-02  -2.288297e-02  0 
 2.641446e-03  -1.430787e-02  0 
 2.650716e-03  -1.842843e-02  0 
 9.952354e-04  -2.237848e-02  0 
 1.514685e-02  -1.823299e-02  0 
 6.682172e-03  -2.249531e-02  0 
 1.082631e-02  -2.263258e-02  0 
 2.771912e-03  -2.426706e-02  0 
 2.570181e-03  -2.553932e-02  0 
 1.273112e-03  -1.794863e-02  0 
 1.649212e-04  -2.158006e-02  0 
 6.817906e-03  -1.653887e-02  0 
 1.173718e-02  -1.550383e-02  0 
 1.000103e-02  -1.981636e-02  0 
 5.788611e-03  -2.001304e-02  0 
 1.929971e-03  -2.462034e-02  0 
 5.376049e-03  -2.758289e-02  0 
 7.959117e-03  -2.700407e-02  0 
 5.033088e-03  -2.559353e-02  0 
VECTORS displacement_ITER4 FLOAT
 1.949960e-03  -1.351584e-02  0 
 6.870311e-03  -1.380209e-02  0 
 1.757561e-03  -9.829054e-03  0 
 1.828498e-03  -1.169150e-02  0 
 1.365384e-03  -1.347346e-02  0 
 6.894674e-03  -1.171197e-02  0 
 3.507400e-03  -1.337645e-02  0 
 5.180823e-03  -1.350174e-02  0 
 2.091456e-03  -1.418774e-02  0 
 2.136134e-03  -1.493979e-02  0 
 1.767496e-03  -1.245114e-02  0 
 8.814770e-04  -1.445603e-02  0 
 3.612804e-03  -1.092774e-02  0 
 5.466023e-03  -1.051405e-02  0 
 4.805207e-03  -1.230284e-02  0 
 3.179169e-03  -1.240635e-02  0 
 1.730563e-03  -1.423212e-02  0 
 3.280248e-03  -1.664181e-02  0 
 4.180651e-03  -1.656734e-02  0 
 2.763616e-03  -1.558173e-02  0 
VECTORS displacement_ITER5 FLOAT
 5.267741e-04  -1.141463e-02  0 
 3.814254e-03  -1.164839e-02  0 
 3.627419e-04  -8.720298e-03  0 
 4.206429e-04  -1.007029e-02  0 
 -4.151391e-04  -1.137465e-02  0 
 3.810355e-03  -1.012640e-02  0 
 1.572023e-03  -1.121946e-02  0 
 2.694523e-03  -1.132861e-02  0 
 6.314224e-04  -1.243329e-02  0 
 6.214982e-04  -1.336591e-02  0 
 2.305336e-04  -1.093252e-02  0 
 -5.681575e-04  -1.228607e-02  0 
 1.684057e-03  -9.528159e-03  0 
 2.827657e-03  -9.282030e-03  0 
 2.421058e-03  -1.048566e-02  0 
 1.377340e-03  -1.058371e-02  0 
 7.979720e-05  -1.258024e-02  0 
 1.535502e-03  -1.465356e-02  0 
 2.172801e-03  -1.431022e-02  0 
 1.044574e-03  -1.347927e-02  0 
VECTORS displacement_ITER6 FLOAT
 6.153598e-04  -9.047952e-03  0 
 2.613969e-03  -9.343976e-03  0 
 4.957983e-04  -7.289970e-03  0 
 5.146223e-04  -8.146731e-03  0 
 -4.811836e-04  -9.123835e-03  0 
 2.582581e-03  -8.287598e-03  0 
 1.217163e-03  -8.875588e-03  0 
 1.920588e-03  -9.008663e-03  0 
 7.258200e-04  -1.037864e-02  0 
 7.620341e-04  -1.163998e-02  0 
 -1.000374e-04  -9.621316e-03  0 
 -9.812851e-04  -1.098001e-02  0 
 1.291559e-03  -7.777610e-03  0 
 1.937698e-03  -7.671312e-03  0 
 1.719737e-03  -8.440582e-03  0 
 1.111030e-03  -8.490801e-03  0 
 -5.718742e-05  -1.056863e-02  0 
 1.434278e-03  -1.265995e-02  0 
 1.757556e-03  -1.209512e-02  0 
 8.834534e-04  -1.124849e-02  0 
VECTORS displacement_ITER7 FLOAT
 5.025741e-04  -8.618412e-03  0 
 2.193609e-03  -8.905833e-03  0 
 3.826697e-04  -7.068278e-03  0 
 3.994554e-04  -7.817766e-03  0 
 -3.258426e-04  -8.721634e-03  0 
 2.161590e-03  -7.964733e-03  0 
 1.001580e-03  -8.451204e-03  0 
 1.607112e-03  -8.578585e-03  0 
 6.141012e-04  -9.724729e-03  0 
 6.591888e-04  -1.075972e-02  0 
 -1.830386e-04  -9.259625e-03  0 
 -8.062946e-04  -1.044944e-02  0 
 1.067018e-03  -7.494009e-03  0 
 1.611770e-03  -7.400591e-03  0 
 1.427624e-03  -8.080708e-03  0 
 9.158909e-04  -8.124962e-03  0 
 -2.750136e-05  -9.871277e-03  0 
 1.143260e-03  -1.214661e-02  0 
 1.401782e-03  -1.169598e-02  0 
 6.252580e-04  -1.079183e-02  0 
VECTORS displacement_ITER8 FLOAT
 8.010982e-04  -9.213491e-03  0 
 2.652838e-03  -9.512315e-03  0 
 6.824570e-04  -7.572476e-03  0 
 6.991266e-04  -8.368416e-03  0 
 -1.007219e-04  -9.301929e-03  0 
 2.618343e-03  -8.511560e-03  0 
 1.348041e-03  -9.045670e-03  0 
 2.005245e-03  -9.179049e-03  0 
 9.122618e-04  -1.037375e-02  0 
 9.523655e-04  -1.147128e-02  0 
 1.117639e-04  -1.004706e-02  0 
 -5.929353e-04  -1.087864e-02  0 
 1.419924e-03  -8.020568e-03  0 
 2.015899e-03  -7.908104e-03  0 
 1.813049e-03  -8.642073e-03  0 
 1.253015e-03  -8.691502e-03  0 
 2.373973e-04  -1.053055e-02  0 
 1.250636e-03  -1.324740e-02  0 
 1.589002e-03  -1.266986e-02  0 
 8.213332e-04  -1.161654e-02  0 
VECTORS displacement_ITER9 FLOAT
 6.781361e-04  -9.285605e-03  0 
 2.645767e-03  -9.584532e-03  0 
 5.699068e-04  -7.587404e-03  0 
 5.794011e-04  -8.406256e-03  0 
 -2.442100e-04  -9.378119e-03  0 
 2.612602e-03  -8.542214e-03  0 
 1.260529e-03  -9.119060e-03  0 
 1.957050e-03  -9.253759e-03  0 
 7.909780e-04  -1.046753e-02  0 
 8.380142e-04  -1.157676e-02  0 
 1.797494e-04  -1.027963e-02  0 
 -6.665253e-04  -1.105897e-02  0 
 1.330102e-03  -8.037476e-03  0 
 1.977293e-03  -7.922872e-03  0 
 1.757703e-03  -8.691759e-03  0 
 1.155840e-03  -8.740021e-03  0 
 1.007055e-04  -1.062659e-02  0 
 1.154994e-03  -1.354160e-02  0 
 1.487355e-03  -1.281015e-02  0 
 7.093509e-04  -1.174120e-02  0 
CELL_DATA 25
TENSORS element_stresses FLOAT
 2.964963e-03  -7.496583e-04  0 
 -7.496583e-04  9.788267e-03  0 
 0  0  0 

 2.287154e-03  4.695839e-04  0 
 4.695839e-04  6.636497e-03  0 
 0  0  0 

 1.378748e-03  8.031387e-03  0 
 8.031387e-03  6.911669e-04  0 
 0  0  0 

 5.120939e-04  2.305100e-03  0 
 2.305100e-03  6.973090e-03  0 
 0  0  0 

 2.949777e-02  -1.816700e-01  0 
 -1.816700e-01  3.382669e-03  0 
 0  0  0 

 -7.026363e-02  -7.143346e-01  0 
 -7.143346e-01  -5.658540e-01  0 
 0  0  0 

 4.620708e-02  -1.902145e-01  0 
 -1.902145e-01  -9.784549e-01  0 
 0  0  0 

 1.050240e-01  -2.701405e-01  0 
 -2.701405e-01  -3.523163e-01  0 
 0  0  0 

 3.252854e-01  -4.087225e-01  0 
 -4.087225e-01  9.693456e-02  0 
 0  0  0 

 1.614943e-03  -2.093666e-01  0 
 -2.093666e-01  5.001177e-01  0 
 0  0  0 

 3.811384e-02  -2.445007e-01  0 
 -2.445007e-01  -3.419095e-02  0 
 0  0  0 

 2.329071e-01  -2.991294e-01  0 
 -2.991294e-01  -3.342253e-01  0 
 0  0  0 

 -3.712283e-02  -6.111029e-01  0 
 -6.111029e-01  -2.557066e-02  0 
 0  0  0 

 -9.598135e-02  -6.126922e-01  0 
 -6.126922e-01  3.756809e-02  0 
 0  0  0 

 -1.221846e-01  -1.140400e-01  0 
 -1.140400e-01  4.818186e-02  0 
 0  0  0 

 1.544206e-01  -3.710863e-01  0 
 -3.710863e-01  3.238686e-01  0 
 0  0  0 

 2.859219e-01  -2.057481e-01  0 
 -2.057481e-01  -1.753459e-01  0 
 0  0  0 

 8.915067e-02  -8.057072e-02  0 
 -8.057072e-02  -1.731934e-01  0 
 0  0  0 

 -3.145472e-03  -1.509655e-03  0 
 -1.509655e-03  -1.095527e-02  0 
 0  0  0 

 -3.444800e-04  -8.918367e-03  0 
 -8.918367e-03  -5.074415e-04  0 
 0  0  0 

 -1.935654e-03  -2.858512e-03  0 
 -2.858512e-03  -7.580600e-03  0 
 0  0  0 

 -1.045569e-03  -4.247516e-03  0 
 -4.247516e-03  -8.482814e-03  0 
 0  0  0 

 -1.848253e-03  -7.913197e-03  0 
 -7.913197e-03  -5.484269e-05  0 
 0  0  0 

 -1.683009e-03  -7.150120e-03  0 
 -7.150120e-03  -2.276166e-03  0 
 0  0  0 

 4.706637e-04  -2.215917e-03  0 
 -2.215917e-03  -3.241079e-03  0 
 0  0  0 

TENSORS element_stresses FLOAT
 2.964963e-03  -7.496583e-04  0 
 -7.496583e-04  9.788267e-03  0 
 0  0  0 

 2.287154e-03  4.695839e-04  0 
 4.695839e-04  6.636497e-03  0 
 0  0  0 

 1.378748e-03  8.031387e-03  0 
 8.031387e-03  6.911669e-04  0 
 0  0  0 

 5.120939e-04  2.305100e-03  0 
 2.305100e-03  6.973090e-03  0 
 0  0  0 

 2.949777e-02  -1.816700e-01  0 
 -1.816700e-01  3.382669e-03  0 
 0  0  0 

 -7.026363e-02  -7.143346e-01  0 
 -7.143346e-01  -5.658540e-01  0 
 0  0  0 

 4.620708e-02  -1.902145e-01  0 
 -1.902145e-01  -9.784549e-01  0 
 0  0  0 

 1.050240e-01  -2.701405e-01  0 
 -2.701405e-01  -3.523163e-01  0 
 0  0  0 

 3.252854e-01  -4.087225e-01  0 
 -4.087225e-01  9.693456e-02  0 
 0  0  0 

 1.614943e-03  -2.093666e-01  0 
 -2.093666e-01  5.001177e-01  0 
 0  0  0 

 3.811384e-02  -2.445007e-01  0 
 -2.445007e-01  -3.419095e-02  0 
 0  0  0 

 2.329071e-01  -2.991294e-01  0 
 -2.991294e-01  -3.342253e-01  0 
 0  0  0 

 -3.712283e-02  -6.111029e-01  0 
 -6.111029e-01  -2.557066e-02  0 
 0  0  0 

 -9.598135e-02  -6.126922e-01  0 
 -6.126922e-01  3.756809e-02  0 
 0  0  0 

 -1.221846e-01  -1.140400e-01  0 
 -1.140400e-01  4.818186e-02  0 
 0  0  0 

 1.544206e-01  -3.710863e-01  0 
 -3.710863e-01  3.238686e-01  0 
 0  0  0 

 2.859219e-01  -2.057481e-01  0 
 -2.057481e-01  -1.753459e-01  0 
 0  0  0 

 8.915067e-02  -8.057072e-02  0 
 -8.057072e-02  -1.731934e-01  0 
 0  0  0 

 -3.145472e-03  -1.509655e-03  0 
 -1.509655e-03  -1.095527e-02  0 
 0  0  0 

 -3.444800e-04  -8.918367e-03  0 
 -8.918367e-03  -5.074415e-04  0 
 0  0  0 

 -1.935654e-03  -2.858512e-03  0 
 -2.858512e-03  -7.580600e-03  0 
 0  0  0 

 -1.045569e-03  -4.247516e-03  0 
 -4.247516e-03  -8.482814e-03  0 
 0  0  0 

 -1.848253e-03  -7.913197e-03  0 
 -7.913197e-03  -5.484269e-05  0 
 0  0  0 

 -1.683009e-03  -7.150120e-03  0 
 -7.150120e-03  -2.276166e-03  0 
 0  0  0 

 4.706637e-04  -2.215917e-03  0 
 -2.215917e-03  -3.241079e-03  0 
 0  0  0 

