# vtk DataFile Version 3.1
this is an vtk file created by FEMAC
ASCII
DATASET UNSTRUCTURED_GRID
POINTS 21 FLOAT
4.000000 4.000000 0.000000
5.000000 3.000000 0.000000
5.000000 4.000000 0.000000
4.000000 3.666667 0.000000
4.666667 3.000000 0.000000
5.000000 2.666667 0.000000
4.333333 4.000000 0.000000
4.666667 4.000000 0.000000
5.000000 3.333333 0.000000
5.000000 3.666667 0.000000
4.394160 2.783162 0.000000
4.744159 2.793124 0.000000
4.509726 3.248421 0.000000
4.659969 3.515789 0.000000
4.265821 3.466342 0.000000
4.772591 3.221251 0.000000
4.394160 3.783162 0.000000
4.744159 3.793124 0.000000
4.672762 4.468141 0.000000
4.266180 4.353162 0.000000
4.554455 4.197594 0.000000
CELLS 24 96 
3 4 11  1
3 11  5  1
3 11  4 10
3 14 12 13
3 13  8  9
3 15  4  1
3 8 15  1
3 3 16  0
3 16  6  0
3 16  3 14
3 15  8 13
3 12 15 13
3 15 12  4
3 7 17  2
3 17  9  2
3 17 13  9
3 6 16  7
3 13 16 14
3 13 17 16
3 17  7 16
3 6 19  0
3 6 20 19
3 20 18 19
3 7 20  6
CELL_TYPES 24
5 5 5 5 5 5 5 5 5 5 5 5 5 5 5 5 5 5 5 5 5 5 5 5 
POINT_DATA 21
VECTORS displacement_ITER1 FLOAT
 2.269614e-01  -3.265619e-01  0 
 2.068026e-01  -3.351666e-01  0 
 2.527230e-01  -4.384715e-01  0 
 2.126924e-01  -3.187049e-01  0 
 2.068027e-01  -2.824688e-01  0 
 1.541954e-01  -3.350524e-01  0 
 2.269291e-01  -3.597007e-01  0 
 2.269406e-01  -3.928001e-01  0 
 2.316488e-01  -3.585774e-01  0 
 2.230791e-01  -3.988972e-01  0 
 1.724376e-01  -2.391646e-01  0 
 1.740873e-01  -2.947002e-01  0 
 1.982357e-01  -3.415186e-01  0 
 2.068820e-01  -3.679390e-01  0 
 1.950483e-01  -3.494239e-01  0 
 2.177807e-01  -3.283989e-01  0 
 2.148568e-01  -3.630973e-01  0 
 2.206731e-01  -3.868367e-01  0 
 2.733725e-01  -3.934638e-01  0 
 2.619796e-01  -3.530053e-01  0 
 2.465283e-01  -3.816700e-01  0 
VECTORS displacement_ITER2 FLOAT
 3.559210e-02  -6.154487e-02  0 
 1.379443e-02  -9.048060e-02  0 
 2.776473e-02  -9.848649e-02  0 
 6.304440e-02  -3.103338e-02  0 
 1.381208e-02  -1.244313e-01  0 
 4.788686e-02  -9.038652e-02  0 
 3.555432e-02  -6.007365e-02  0 
 3.552616e-02  -5.863851e-02  0 
 6.914323e-03  -1.276300e-01  0 
 1.307454e-02  -1.190719e-01  0 
 3.589286e-02  -1.521445e-01  0 
 3.489905e-02  -1.165479e-01  0 
 4.619177e-03  -1.067938e-01  0 
 1.642248e-02  -1.041665e-01  0 
 2.694364e-02  -7.181369e-02  0 
 -2.018788e-04  -1.143861e-01  0 
 4.936289e-02  -6.111473e-02  0 
 2.761895e-02  -8.642015e-02  0 
 3.334756e-02  -5.854252e-02  0 
 3.394505e-02  -6.033633e-02  0 
 3.463983e-02  -5.908379e-02  0 
VECTORS displacement_ITER3 FLOAT
 1.298752e-02  -3.153359e-02  0 
 4.015810e-03  -1.516863e-02  0 
 3.545144e-03  -3.547076e-02  0 
 2.966895e-02  -3.947124e-02  0 
 4.016234e-03  -1.096129e-02  0 
 1.027354e-05  -1.503175e-02  0 
 1.286434e-02  -3.154173e-02  0 
 1.278960e-02  -3.152550e-02  0 
 -2.838917e-03  -2.566580e-02  0 
 6.911603e-03  -4.831613e-02  0 
 1.123209e-03  -7.522747e-03  0 
 1.361242e-03  -1.189871e-02  0 
 -1.564289e-03  -3.595965e-02  0 
 -5.245895e-04  -3.549552e-02  0 
 9.126386e-03  -4.041406e-02  0 
 7.195075e-04  -2.509607e-02  0 
 1.359067e-02  -3.030474e-02  0 
 1.013824e-02  -3.941376e-02  0 
 1.254664e-02  -3.160264e-02  0 
 1.251045e-02  -3.160406e-02  0 
 1.271535e-02  -3.149481e-02  0 
VECTORS displacement_ITER4 FLOAT
 8.019326e-03  -1.814584e-02  0 
 2.766204e-03  -1.923844e-02  0 
 7.550411e-03  -1.294576e-02  0 
 5.038327e-03  -1.292516e-02  0 
 2.771400e-03  -1.501603e-02  0 
 -1.289964e-03  -1.925419e-02  0 
 7.913579e-03  -1.579969e-02  0 
 7.820590e-03  -1.354293e-02  0 
 2.295369e-03  -1.336093e-02  0 
 7.740846e-03  -1.420582e-02  0 
 6.893372e-05  -1.175267e-02  0 
 1.951894e-04  -1.599425e-02  0 
 4.374597e-03  -1.665674e-02  0 
 5.671674e-03  -1.705870e-02  0 
 4.927948e-03  -1.588637e-02  0 
 4.587238e-03  -1.736997e-02  0 
 8.146882e-03  -1.713993e-02  0 
 7.362397e-03  -1.586360e-02  0 
 4.574521e-03  -1.350978e-02  0 
 5.292344e-03  -1.623298e-02  0 
 6.455219e-03  -1.423605e-02  0 
VECTORS displacement_ITER5 FLOAT
 3.859057e-03  -1.160886e-02  0 
 7.553982e-04  -1.384674e-02  0 
 5.161241e-03  -1.363607e-02  0 
 2.851855e-03  -1.100332e-02  0 
 7.648303e-04  -1.264237e-02  0 
 -3.481528e-04  -1.384910e-02  0 
 3.799160e-03  -1.266387e-02  0 
 3.673400e-03  -1.379957e-02  0 
 3.910210e-03  -1.501687e-02  0 
 2.643613e-03  -1.693469e-02  0 
 -2.432502e-05  -1.174466e-02  0 
 4.152214e-05  -1.290841e-02  0 
 1.319156e-03  -1.635591e-02  0 
 2.304566e-03  -1.791895e-02  0 
 1.632631e-03  -1.542175e-02  0 
 2.539973e-03  -1.516112e-02  0 
 3.913541e-03  -1.542467e-02  0 
 3.565230e-03  -1.580409e-02  0 
 4.976067e-03  -1.353487e-02  0 
 4.793068e-03  -1.246958e-02  0 
 4.354077e-03  -1.330854e-02  0 
VECTORS displacement_ITER6 FLOAT
 2.752919e-03  -8.930784e-03  0 
 9.520698e-04  -1.274676e-02  0 
 2.623245e-03  -1.269738e-02  0 
 2.066297e-03  -8.614915e-03  0 
 9.701883e-04  -1.142044e-02  0 
 -3.216848e-04  -1.271359e-02  0 
 2.736197e-03  -1.032246e-02  0 
 2.688354e-03  -1.160855e-02  0 
 1.495137e-03  -1.285011e-02  0 
 2.113750e-03  -1.283916e-02  0 
 7.410463e-05  -1.029733e-02  0 
 1.611036e-04  -1.172202e-02  0 
 6.282356e-04  -1.452744e-02  0 
 1.388249e-03  -1.542575e-02  0 
 9.228817e-04  -1.325758e-02  0 
 1.538613e-03  -1.384143e-02  0 
 2.629163e-03  -1.303758e-02  0 
 1.852572e-03  -1.393092e-02  0 
 4.234658e-03  -1.144549e-02  0 
 3.967960e-03  -1.016296e-02  0 
 3.445427e-03  -1.113767e-02  0 
VECTORS displacement_ITER7 FLOAT
 2.454697e-03  -8.702444e-03  0 
 6.006709e-04  -1.160541e-02  0 
 2.506140e-03  -1.162050e-02  0 
 1.759546e-03  -8.337190e-03  0 
 6.085107e-04  -1.057487e-02  0 
 -3.427524e-04  -1.156903e-02  0 
 2.427981e-03  -9.816489e-03  0 
 2.407803e-03  -1.076603e-02  0 
 1.249007e-03  -1.162685e-02  0 
 1.954561e-03  -1.171633e-02  0 
 -3.866644e-05  -9.752120e-03  0 
 2.149172e-06  -1.080372e-02  0 
 6.167764e-04  -1.329610e-02  0 
 1.331193e-03  -1.428623e-02  0 
 9.252802e-04  -1.235252e-02  0 
 1.334927e-03  -1.279028e-02  0 
 2.397311e-03  -1.233047e-02  0 
 1.698148e-03  -1.288428e-02  0 
 3.590813e-03  -1.072885e-02  0 
 3.351535e-03  -9.703389e-03  0 
 2.960331e-03  -1.044366e-02  0 
VECTORS displacement_ITER8 FLOAT
 2.713928e-03  -9.441978e-03  0 
 9.429259e-04  -1.260414e-02  0 
 2.719430e-03  -1.252123e-02  0 
 2.034369e-03  -9.108755e-03  0 
 9.663359e-04  -1.142870e-02  0 
 -1.420029e-04  -1.255182e-02  0 
 2.703133e-03  -1.062058e-02  0 
 2.715126e-03  -1.157433e-02  0 
 1.516475e-03  -1.261271e-02  0 
 2.114088e-03  -1.258097e-02  0 
 2.043615e-04  -1.046061e-02  0 
 2.562060e-04  -1.170273e-02  0 
 1.247582e-03  -1.362013e-02  0 
 1.820598e-03  -1.488820e-02  0 
 1.555547e-03  -1.270848e-02  0 
 1.738580e-03  -1.363046e-02  0 
 2.706566e-03  -1.299360e-02  0 
 1.979757e-03  -1.361015e-02  0 
 3.884614e-03  -1.154442e-02  0 
 3.659615e-03  -1.052399e-02  0 
 3.255528e-03  -1.126985e-02  0 
VECTORS displacement_ITER9 FLOAT
 2.656399e-03  -9.576147e-03  0 
 8.174746e-04  -1.272553e-02  0 
 2.664081e-03  -1.267200e-02  0 
 1.962290e-03  -9.244824e-03  0 
 8.345967e-04  -1.157679e-02  0 
 -2.419841e-04  -1.267876e-02  0 
 2.644031e-03  -1.076625e-02  0 
 2.659832e-03  -1.172624e-02  0 
 1.418599e-03  -1.275456e-02  0 
 2.046972e-03  -1.273282e-02  0 
 9.391378e-05  -1.062452e-02  0 
 1.463551e-04  -1.183899e-02  0 
 1.189442e-03  -1.353892e-02  0 
 1.792071e-03  -1.494195e-02  0 
 1.530130e-03  -1.276119e-02  0 
 1.633609e-03  -1.373350e-02  0 
 2.641786e-03  -1.310902e-02  0 
 1.932369e-03  -1.372473e-02  0 
 3.841434e-03  -1.169808e-02  0 
 3.615478e-03  -1.066268e-02  0 
 3.202168e-03  -1.142278e-02  0 
CELL_DATA 24
TENSORS element_stresses FLOAT
 -6.418694e-02  -1.066391e-01  0 
 -1.066391e-01  -4.273607e-02  0 
 0  0  0 

 1.210798e-02  -1.333573e-01  0 
 -1.333573e-01  -1.366807e-01  0 
 0  0  0 

 4.940038e-02  -9.365536e-02  0 
 -9.365536e-02  -1.720021e-02  0 
 0  0  0 

 -3.070619e-04  -2.477773e-03  0 
 -2.477773e-03  -2.392767e-03  0 
 0  0  0 

 -7.390319e-05  6.425423e-03  0 
 6.425423e-03  4.305109e-05  0 
 0  0  0 

 -2.726082e-03  1.459350e-04  0 
 1.459350e-04  -8.915719e-03  0 
 0  0  0 

 -2.044425e-03  4.731591e-03  0 
 4.731591e-03  -7.004072e-04  0 
 0  0  0 

 8.904167e-04  -5.713480e-03  0 
 -5.713480e-03  -7.268441e-04  0 
 0  0  0 

 3.190893e-03  -2.746423e-03  0 
 -2.746423e-03  1.075999e-02  0 
 0  0  0 

 1.933593e-03  -5.827437e-03  0 
 -5.827437e-03  3.844329e-03  0 
 0  0  0 

 -1.800933e-03  4.209353e-03  0 
 4.209353e-03  -2.607548e-03  0 
 0  0  0 

 4.914522e-04  1.585884e-05  0 
 1.585884e-05  -4.418939e-03  0 
 0  0  0 

 -7.905960e-04  7.730088e-04  0 
 7.730088e-04  -9.187673e-03  0 
 0  0  0 

 2.848348e-03  5.260634e-04  0 
 5.260634e-04  9.452003e-03  0 
 0  0  0 

 1.557969e-03  4.475818e-03  0 
 4.475818e-03  6.498254e-04  0 
 0  0  0 

 1.587715e-03  4.291701e-03  0 
 4.291701e-03  3.269296e-03  0 
 0  0  0 

 3.347599e-03  -2.197170e-03  0 
 -2.197170e-03  1.100065e-02  0 
 0  0  0 

 6.569020e-04  -1.746865e-03  0 
 -1.746865e-03  1.401690e-03  0 
 0  0  0 

 -6.256241e-04  -5.919582e-04  0 
 -5.919582e-04  4.778263e-03  0 
 0  0  0 

 6.234702e-04  5.503218e-04  0 
 5.503218e-04  9.093439e-03  0 
 0  0  0 

 -1.679077e-01  -6.358717e-01  0 
 -6.358717e-01  -4.360118e-01  0 
 0  0  0 

 -1.438436e-02  -3.274852e-04  0 
 -3.274852e-04  -2.362369e-01  0 
 0  0  0 

 -1.048895e-01  -1.219975e-01  0 
 -1.219975e-01  7.813448e-02  0 
 0  0  0 

 1.919976e-02  -8.334612e-02  0 
 -8.334612e-02  -9.401099e-02  0 
 0  0  0 

TENSORS element_stresses FLOAT
 -6.418694e-02  -1.066391e-01  0 
 -1.066391e-01  -4.273607e-02  0 
 0  0  0 

 1.210798e-02  -1.333573e-01  0 
 -1.333573e-01  -1.366807e-01  0 
 0  0  0 

 4.940038e-02  -9.365536e-02  0 
 -9.365536e-02  -1.720021e-02  0 
 0  0  0 

 -3.070619e-04  -2.477773e-03  0 
 -2.477773e-03  -2.392767e-03  0 
 0  0  0 

 -7.390319e-05  6.425423e-03  0 
 6.425423e-03  4.305109e-05  0 
 0  0  0 

 -2.726082e-03  1.459350e-04  0 
 1.459350e-04  -8.915719e-03  0 
 0  0  0 

 -2.044425e-03  4.731591e-03  0 
 4.731591e-03  -7.004072e-04  0 
 0  0  0 

 8.904167e-04  -5.713480e-03  0 
 -5.713480e-03  -7.268441e-04  0 
 0  0  0 

 3.190893e-03  -2.746423e-03  0 
 -2.746423e-03  1.075999e-02  0 
 0  0  0 

 1.933593e-03  -5.827437e-03  0 
 -5.827437e-03  3.844329e-03  0 
 0  0  0 

 -1.800933e-03  4.209353e-03  0 
 4.209353e-03  -2.607548e-03  0 
 0  0  0 

 4.914522e-04  1.585884e-05  0 
 1.585884e-05  -4.418939e-03  0 
 0  0  0 

 -7.905960e-04  7.730088e-04  0 
 7.730088e-04  -9.187673e-03  0 
 0  0  0 

 2.848348e-03  5.260634e-04  0 
 5.260634e-04  9.452003e-03  0 
 0  0  0 

 1.557969e-03  4.475818e-03  0 
 4.475818e-03  6.498254e-04  0 
 0  0  0 

 1.587715e-03  4.291701e-03  0 
 4.291701e-03  3.269296e-03  0 
 0  0  0 

 3.347599e-03  -2.197170e-03  0 
 -2.197170e-03  1.100065e-02  0 
 0  0  0 

 6.569020e-04  -1.746865e-03  0 
 -1.746865e-03  1.401690e-03  0 
 0  0  0 

 -6.256241e-04  -5.919582e-04  0 
 -5.919582e-04  4.778263e-03  0 
 0  0  0 

 6.234702e-04  5.503218e-04  0 
 5.503218e-04  9.093439e-03  0 
 0  0  0 

 -1.679077e-01  -6.358717e-01  0 
 -6.358717e-01  -4.360118e-01  0 
 0  0  0 

 -1.438436e-02  -3.274852e-04  0 
 -3.274852e-04  -2.362369e-01  0 
 0  0  0 

 -1.048895e-01  -1.219975e-01  0 
 -1.219975e-01  7.813448e-02  0 
 0  0  0 

 1.919976e-02  -8.334612e-02  0 
 -8.334612e-02  -9.401099e-02  0 
 0  0  0 

