# vtk DataFile Version 3.1
this is an vtk file created by FEMAC
ASCII
DATASET UNSTRUCTURED_GRID
POINTS 32 FLOAT
5.000000 3.000000 0.000000
6.000000 3.000000 0.000000
6.000000 4.000000 0.000000
5.000000 2.750000 0.000000
5.250000 3.000000 0.000000
5.500000 3.000000 0.000000
5.750000 3.000000 0.000000
6.000000 2.500000 0.000000
6.000000 2.750000 0.000000
5.500000 4.000000 0.000000
5.750000 4.000000 0.000000
6.000000 3.250000 0.000000
6.000000 3.500000 0.000000
6.000000 3.750000 0.000000
4.761003 2.832250 0.000000
5.808128 2.581646 0.000000
5.507893 2.661856 0.000000
5.761003 2.832250 0.000000
5.245757 2.832172 0.000000
5.528256 3.447447 0.000000
5.669072 3.813081 0.000000
5.805000 3.255000 0.000000
5.195000 3.255000 0.000000
5.500000 3.775000 0.000000
5.805846 3.660928 0.000000
5.378219 3.169567 0.000000
5.565925 3.242859 0.000000
5.323754 3.413341 0.000000
5.717271 3.453287 0.000000
5.404183 3.616917 0.000000
5.598598 3.613486 0.000000
5.844984 3.844802 0.000000
CELLS 43 172 
3 14  3  0
3 8 15  7
3 6 17  1
3 17  8  1
3 3 18  0
3 18  4  0
3 17 15  8
3 5 17  6
3 16 17  5
3 16 15 17
3 18  5  4
3 18 16  5
3 9 20 10
3 12 21 11
3 23 20  9
3 30 20 23
3 25  4  5
3 6 26  5
3 13 24 12
3 30 24 20
3 28 26 21
3 25 27 22
3 30 29 19
3 23 29 30
3 21 26  6
3 25 22  4
3 19 29 27
3 12 28 21
3 12 24 28
3 30 19 28
3 28 24 30
3 1 21  6
3 1 11 21
3 0  4 22
3 10 31  2
3 31 13  2
3 31 10 20
3 31 24 13
3 20 24 31
3 25  5 26
3 19 27 26
3 28 19 26
3 25 26 27
CELL_TYPES 43
5 5 5 5 5 5 5 5 5 5 5 5 5 5 5 5 5 5 5 5 5 5 5 5 5 5 5 5 5 5 5 5 5 5 5 5 5 5 5 5 5 5 5 
POINT_DATA 32
VECTORS displacement_ITER1 FLOAT
 1.688380e-04  -3.223149e-01  0 
 1.972319e-04  -4.016593e-01  0 
 7.925411e-02  -4.016092e-01  0 
 -2.822784e-02  -3.222301e-01  0 
 1.714071e-04  -3.422198e-01  0 
 1.910825e-04  -3.620617e-01  0 
 1.987119e-04  -3.818633e-01  0 
 -4.381643e-03  -4.072347e-01  0 
 -7.224760e-03  -4.060358e-01  0 
 7.924279e-02  -3.621015e-01  0 
 7.925386e-02  -3.818524e-01  0 
 1.998166e-02  -4.016480e-01  0 
 3.975914e-02  -4.016299e-01  0 
 5.951505e-02  -4.016112e-01  0 
 -1.891677e-02  -2.950557e-01  0 
 -8.275218e-03  -3.953135e-01  0 
 -5.821342e-03  -3.626462e-01  0 
 -2.583156e-03  -3.845518e-01  0 
 -9.168281e-03  -3.439158e-01  0 
 3.561307e-02  -3.642990e-01  0 
 6.449692e-02  -3.754498e-01  0 
 2.038275e-02  -3.862115e-01  0 
 2.039424e-02  -3.378759e-01  0 
 6.148698e-02  -3.620874e-01  0 
 5.248219e-02  -3.862631e-01  0 
 1.362461e-02  -3.524100e-01  0 
 1.942580e-02  -3.672833e-01  0 
 3.291858e-02  -3.481031e-01  0 
 3.607152e-02  -3.792602e-01  0 
 4.900194e-02  -3.544933e-01  0 
 4.873505e-02  -3.698711e-01  0 
 6.700165e-02  -3.893572e-01  0 
VECTORS displacement_ITER2 FLOAT
 4.718819e-03  -1.458594e-01  0 
 4.726497e-03  -1.896988e-01  0 
 4.825298e-02  -1.896329e-01  0 
 7.772744e-03  -1.457933e-01  0 
 4.719330e-03  -1.568735e-01  0 
 4.732760e-03  -1.678349e-01  0 
 4.732679e-03  -1.787679e-01  0 
 -1.922143e-02  -2.266742e-01  0 
 -4.715465e-03  -2.088682e-01  0 
 4.822952e-02  -1.679105e-01  0 
 4.824768e-02  -1.787637e-01  0 
 1.563742e-02  -1.896743e-01  0 
 2.653596e-02  -1.896469e-01  0 
 3.740265e-02  -1.896277e-01  0 
 6.750430e-03  -1.486746e-01  0 
 -9.140408e-03  -1.989635e-01  0 
 3.879146e-03  -1.673421e-01  0 
 5.163215e-03  -1.822586e-01  0 
 4.688419e-03  -1.547239e-01  0 
 2.425484e-02  -1.690760e-01  0 
 4.013796e-02  -1.752348e-01  0 
 1.586524e-02  -1.811591e-01  0 
 1.587337e-02  -1.544886e-01  0 
 3.847815e-02  -1.678854e-01  0 
 3.353676e-02  -1.811812e-01  0 
 1.214283e-02  -1.625091e-01  0 
 1.534082e-02  -1.707166e-01  0 
 2.277060e-02  -1.601454e-01  0 
 2.450846e-02  -1.773227e-01  0 
 3.161326e-02  -1.636861e-01  0 
 3.147398e-02  -1.721550e-01  0 
 4.151636e-02  -1.828872e-01  0 
VECTORS displacement_ITER3 FLOAT
 -3.674660e-03  -6.381417e-02  0 
 -3.669471e-03  -8.666210e-02  0 
 1.888271e-02  -8.661413e-02  0 
 -1.345765e-02  -6.374992e-02  0 
 -3.678367e-03  -6.959718e-02  0 
 -3.664706e-03  -7.530865e-02  0 
 -3.663967e-03  -8.098440e-02  0 
 -1.527620e-02  -1.081238e-01  0 
 -7.476867e-03  -1.009041e-01  0 
 1.882768e-02  -7.535110e-02  0 
 1.886469e-02  -8.098648e-02  0 
 1.989716e-03  -8.663772e-02  0 
 7.634804e-03  -8.660973e-02  0 
 1.325968e-02  -8.659976e-02  0 
 -1.024937e-02  -5.436048e-02  0 
 -1.083978e-02  -9.149068e-02  0 
 -3.117628e-03  -6.999603e-02  0 
 -1.361727e-03  -8.255456e-02  0 
 -6.460171e-03  -6.944824e-02  0 
 6.464349e-03  -7.594649e-02  0 
 1.466547e-02  -7.913624e-02  0 
 2.112720e-03  -8.221976e-02  0 
 2.131946e-03  -6.836488e-02  0 
 1.380760e-02  -7.533541e-02  0 
 1.125751e-02  -8.221752e-02  0 
 1.891522e-04  -7.253953e-02  0 
 1.845191e-03  -7.680194e-02  0 
 5.701153e-03  -7.131334e-02  0 
 6.591310e-03  -8.022321e-02  0 
 1.026614e-02  -7.315750e-02  0 
 1.019411e-02  -7.754200e-02  0 
 1.538683e-02  -8.310822e-02  0 
VECTORS displacement_ITER4 FLOAT
 -8.721964e-03  -2.686911e-02  0 
 -8.758523e-03  -3.660520e-02  0 
 8.310039e-04  -3.662484e-02  0 
 -7.406827e-03  -2.684367e-02  0 
 -8.740683e-03  -2.933750e-02  0 
 -8.746655e-03  -3.176707e-02  0 
 -8.752585e-03  -3.418419e-02  0 
 -1.698016e-02  -6.216137e-02  0 
 -9.841251e-03  -5.222456e-02  0 
 7.654801e-04  -3.179477e-02  0 
 8.030242e-04  -3.419830e-02  0 
 -6.356241e-03  -3.658705e-02  0 
 -3.964553e-03  -3.657204e-02  0 
 -1.578183e-03  -3.658301e-02  0 
 -7.821442e-03  -2.806981e-02  0 
 -1.145730e-02  -4.517260e-02  0 
 -2.975469e-03  -2.693436e-02  0 
 -4.092633e-03  -3.569684e-02  0 
 -7.273257e-03  -2.852207e-02  0 
 -4.459253e-03  -3.203391e-02  0 
 -9.898881e-04  -3.339521e-02  0 
 -6.301817e-03  -3.470530e-02  0 
 -6.286846e-03  -2.880837e-02  0 
 -1.357394e-03  -3.177801e-02  0 
 -2.432942e-03  -3.470654e-02  0 
 -7.110618e-03  -3.058399e-02  0 
 -6.412291e-03  -3.239784e-02  0 
 -4.780061e-03  -3.006435e-02  0 
 -4.406205e-03  -3.385435e-02  0 
 -2.855128e-03  -3.084929e-02  0 
 -2.883824e-03  -3.271376e-02  0 
 -6.776423e-04  -3.509615e-02  0 
VECTORS displacement_ITER5 FLOAT
 -1.910855e-03  -1.193879e-02  0 
 -1.939412e-03  -1.600343e-02  0 
 1.834570e-03  -1.596442e-02  0 
 -2.360546e-03  -1.186086e-02  0 
 -1.925932e-03  -1.302777e-02  0 
 -1.923086e-03  -1.403938e-02  0 
 -1.929763e-03  -1.501837e-02  0 
 -1.003637e-02  -3.924123e-02  0 
 -4.595475e-03  -3.234727e-02  0 
 1.765653e-03  -1.409533e-02  0 
 1.805177e-03  -1.501656e-02  0 
 -9.734814e-04  -1.597267e-02  0 
 -2.497550e-05  -1.594064e-02  0 
 8.994791e-04  -1.593315e-02  0 
 -2.223356e-03  -1.138109e-02  0 
 -6.111818e-03  -2.595581e-02  0 
 1.015987e-03  -1.266470e-02  0 
 1.015608e-03  -1.738690e-02  0 
 -1.390156e-03  -1.333758e-02  0 
 -2.077608e-04  -1.413967e-02  0 
 1.119911e-03  -1.468879e-02  0 
 -9.423305e-04  -1.521550e-02  0 
 -9.162320e-04  -1.282466e-02  0 
 9.727584e-04  -1.406302e-02  0 
 5.716459e-04  -1.519801e-02  0 
 -1.253808e-03  -1.355394e-02  0 
 -9.790641e-04  -1.428745e-02  0 
 -3.285798e-04  -1.335035e-02  0 
 -1.907131e-04  -1.486521e-02  0 
 4.035704e-04  -1.368401e-02  0 
 3.981376e-04  -1.441427e-02  0 
 1.244013e-03  -1.535378e-02  0 
VECTORS displacement_ITER6 FLOAT
 -7.744017e-05  -7.680603e-03  0 
 -1.261793e-04  -1.019142e-02  0 
 2.156029e-03  -1.014199e-02  0 
 -1.414648e-04  -7.632468e-03  0 
 -9.675406e-05  -8.351938e-03  0 
 -1.048784e-04  -8.973224e-03  0 
 -1.152317e-04  -9.577908e-03  0 
 -5.696240e-03  -3.205150e-02  0 
 -2.464025e-03  -2.606143e-02  0 
 2.064441e-03  -9.094719e-03  0 
 2.121497e-03  -9.584812e-03  0 
 4.687601e-04  -1.016218e-02  0 
 1.049886e-03  -1.013260e-02  0 
 1.604184e-03  -1.012005e-02  0 
 -1.256553e-04  -7.542683e-03  0 
 -3.010702e-03  -2.059372e-02  0 
 2.816384e-03  -9.171945e-03  0 
 2.613064e-03  -1.232499e-02  0 
 8.165031e-04  -8.614540e-03  0 
 9.430852e-04  -9.024855e-03  0 
 1.735598e-03  -9.374374e-03  0 
 4.915534e-04  -9.692666e-03  0 
 5.151424e-04  -8.223142e-03  0 
 1.635269e-03  -8.993897e-03  0 
 1.410351e-03  -9.677344e-03  0 
 3.073678e-04  -8.668798e-03  0 
 4.722613e-04  -9.119985e-03  0 
 8.739725e-04  -8.536975e-03  0 
 9.508052e-04  -9.472151e-03  0 
 1.300997e-03  -8.753240e-03  0 
 1.302771e-03  -9.195656e-03  0 
 1.807782e-03  -9.771406e-03  0 
VECTORS displacement_ITER7 FLOAT
 5.118999e-05  -6.043228e-03  0 
 -5.629644e-05  -8.750855e-03  0 
 2.564737e-03  -8.750269e-03  0 
 -2.666274e-04  -5.966639e-03  0 
 9.225150e-06  -6.734936e-03  0 
 -2.389443e-05  -7.399447e-03  0 
 -4.461780e-05  -8.067372e-03  0 
 -1.629623e-03  -2.703990e-02  0 
 -1.657978e-03  -2.298982e-02  0 
 2.493344e-03  -7.466219e-03  0 
 2.534654e-03  -8.084982e-03  0 
 6.095813e-04  -8.728684e-03  0 
 1.265211e-03  -8.712614e-03  0 
 1.909531e-03  -8.718815e-03  0 
 -1.755061e-04  -5.591694e-03  0 
 -1.019137e-03  -1.829840e-02  0 
 2.355741e-03  -8.746188e-03  0 
 2.348390e-03  -1.109490e-02  0 
 6.159973e-04  -7.497349e-03  0 
 1.130828e-03  -7.451491e-03  0 
 2.061578e-03  -7.847686e-03  0 
 6.301149e-04  -8.199790e-03  0 
 6.553134e-04  -6.574471e-03  0 
 1.951630e-03  -7.404211e-03  0 
 1.677370e-03  -8.199817e-03  0 
 4.281579e-04  -7.057421e-03  0 
 6.058035e-04  -7.553642e-03  0 
 1.046439e-03  -6.903765e-03  0 
 1.145602e-03  -7.958419e-03  0 
 1.549429e-03  -7.130417e-03  0 
 1.551008e-03  -7.646582e-03  0 
 2.148903e-03  -8.313789e-03  0 
VECTORS displacement_ITER8 FLOAT
 7.280288e-05  -5.777139e-03  0 
 -3.205610e-05  -7.754619e-03  0 
 1.860842e-03  -7.755957e-03  0 
 -2.344465e-04  -5.705434e-03  0 
 3.231443e-05  -6.286469e-03  0 
 7.771236e-07  -6.769631e-03  0 
 -2.002086e-05  -7.254398e-03  0 
 -7.506757e-04  -2.569781e-02  0 
 -1.501316e-03  -2.184108e-02  0 
 1.793352e-03  -6.803899e-03  0 
 1.831717e-03  -7.264409e-03  0 
 4.505845e-04  -7.730817e-03  0 
 9.216284e-04  -7.712460e-03  0 
 1.382861e-03  -7.719734e-03  0 
 -1.479950e-04  -5.350047e-03  0 
 -5.293625e-04  -1.743211e-02  0 
 2.079611e-03  -8.526121e-03  0 
 2.255929e-03  -1.046490e-02  0 
 5.788770e-04  -7.148693e-03  0 
 8.284535e-04  -6.799157e-03  0 
 1.487054e-03  -7.085922e-03  0 
 4.682085e-04  -7.345606e-03  0 
 4.961271e-04  -6.165197e-03  0 
 1.410412e-03  -6.770728e-03  0 
 1.215390e-03  -7.340898e-03  0 
 3.297753e-04  -6.516424e-03  0 
 4.533313e-04  -6.874913e-03  0 
 7.701164e-04  -6.401554e-03  0 
 8.382736e-04  -7.167599e-03  0 
 1.123809e-03  -6.567189e-03  0 
 1.126898e-03  -6.942049e-03  0 
 1.553060e-03  -7.427322e-03  0 
VECTORS displacement_ITER9 FLOAT
 2.824392e-04  -5.798025e-03  0 
 1.703060e-04  -7.498463e-03  0 
 1.815088e-03  -7.521457e-03  0 
 -4.971201e-05  -5.738099e-03  0 
 2.395809e-04  -6.239652e-03  0 
 2.060863e-04  -6.653174e-03  0 
 1.833888e-04  -7.068248e-03  0 
 -6.063518e-04  -2.586999e-02  0 
 -1.034077e-03  -2.133439e-02  0 
 1.759695e-03  -6.658969e-03  0 
 1.788623e-03  -7.078598e-03  0 
 5.842864e-04  -7.475753e-03  0 
 9.869010e-04  -7.461234e-03  0 
 1.388722e-03  -7.478732e-03  0 
 5.879103e-05  -5.376584e-03  0 
 7.737336e-05  -1.690314e-02  0 
 1.774564e-03  -8.484321e-03  0 
 2.360956e-03  -1.041485e-02  0 
 7.640719e-04  -6.883125e-03  0 
 9.072493e-04  -6.670807e-03  0 
 1.475420e-03  -6.919549e-03  0 
 5.997106e-04  -7.142809e-03  0 
 6.310760e-04  -6.133257e-03  0 
 1.405389e-03  -6.636755e-03  0 
 1.238687e-03  -7.141564e-03  0 
 4.880802e-04  -6.432919e-03  0 
 5.896940e-04  -6.738202e-03  0 
 8.602319e-04  -6.332350e-03  0 
 9.144996e-04  -6.988230e-03  0 
 1.158973e-03  -6.467214e-03  0 
 1.160291e-03  -6.791172e-03  0 
 1.536924e-03  -7.223183e-03  0 
VECTORS displacement_ITER10 FLOAT
 1.812231e-04  -5.626587e-03  0 
 7.345889e-05  -7.465532e-03  0 
 1.847223e-03  -7.488489e-03  0 
 -1.151282e-04  -5.572269e-03  0 
 1.384976e-04  -6.104221e-03  0 
 1.071140e-04  -6.553575e-03  0 
 8.666762e-05  -7.003527e-03  0 
 -5.692679e-04  -2.563457e-02  0 
 -1.033066e-03  -2.111342e-02  0 
 1.794699e-03  -6.556319e-03  0 
 1.821356e-03  -7.011240e-03  0 
 5.196363e-04  -7.441833e-03  0 
 9.534514e-04  -7.425890e-03  0 
 1.387396e-03  -7.443970e-03  0 
 -1.822431e-05  -5.242927e-03  0 
 1.429881e-04  -1.669760e-02  0 
 1.608253e-03  -8.416826e-03  0 
 2.240756e-03  -1.035455e-02  0 
 7.316732e-04  -6.750291e-03  0 
 8.698660e-04  -6.577420e-03  0 
 1.480788e-03  -6.841499e-03  0 
 5.361822e-04  -7.084318e-03  0 
 5.653094e-04  -5.990164e-03  0 
 1.403439e-03  -6.533065e-03  0 
 1.225587e-03  -7.080954e-03  0 
 4.117463e-04  -6.317839e-03  0 
 5.255842e-04  -6.650483e-03  0 
 8.202833e-04  -6.215253e-03  0 
 8.760781e-04  -6.917351e-03  0 
 1.144247e-03  -6.357856e-03  0 
 1.141543e-03  -6.702951e-03  0 
 1.547474e-03  -7.168795e-03  0 
VECTORS displacement_ITER11 FLOAT
 1.972361e-04  -5.582780e-03  0 
 9.000007e-05  -7.429710e-03  0 
 1.856516e-03  -7.448527e-03  0 
 -1.040936e-04  -5.531839e-03  0 
 1.541501e-04  -6.065199e-03  0 
 1.232138e-04  -6.516506e-03  0 
 1.029984e-04  -6.967043e-03  0 
 -5.151211e-04  -2.552773e-02  0 
 -1.063748e-03  -2.111750e-02  0 
 1.802387e-03  -6.526814e-03  0 
 1.830316e-03  -6.976174e-03  0 
 5.364823e-04  -7.405592e-03  0 
 9.701651e-04  -7.388689e-03  0 
 1.401195e-03  -7.404935e-03  0 
 -2.933158e-06  -5.195242e-03  0 
 1.229865e-04  -1.674659e-02  0 
 1.605946e-03  -8.355518e-03  0 
 2.252271e-03  -1.033091e-02  0 
 7.356639e-04  -6.708844e-03  0 
 8.862578e-04  -6.542173e-03  0 
 1.493925e-03  -6.807488e-03  0 
 5.532955e-04  -7.048235e-03  0 
 5.820224e-04  -5.951698e-03  0 
 1.417425e-03  -6.502958e-03  0 
 1.241065e-03  -7.044876e-03  0 
 4.284118e-04  -6.280420e-03  0 
 5.423567e-04  -6.613792e-03  0 
 8.356319e-04  -6.178898e-03  0 
 8.930993e-04  -6.881726e-03  0 
 1.158620e-03  -6.325559e-03  0 
 1.157413e-03  -6.669338e-03  0 
 1.559877e-03  -7.131817e-03  0 
VECTORS displacement_ITER12 FLOAT
 1.954148e-04  -5.579916e-03  0 
 8.877896e-05  -7.428844e-03  0 
 1.859372e-03  -7.449352e-03  0 
 -1.034432e-04  -5.529514e-03  0 
 1.531140e-04  -6.064408e-03  0 
 1.226208e-04  -6.516116e-03  0 
 1.018961e-04  -6.966151e-03  0 
 -5.353336e-04  -2.552883e-02  0 
 -1.058804e-03  -2.110923e-02  0 
 1.805366e-03  -6.524322e-03  0 
 1.833195e-03  -6.975190e-03  0 
 5.354796e-04  -7.405000e-03  0 
 9.695888e-04  -7.388747e-03  0 
 1.402154e-03  -7.405760e-03  0 
 -3.529694e-06  -5.194603e-03  0 
 1.306128e-04  -1.674490e-02  0 
 1.605076e-03  -8.349112e-03  0 
 2.253373e-03  -1.033048e-02  0 
 7.402183e-04  -6.710268e-03  0 
 8.850720e-04  -6.540571e-03  0 
 1.495524e-03  -6.806002e-03  0 
 5.521288e-04  -7.047232e-03  0 
 5.822163e-04  -5.951725e-03  0 
 1.418855e-03  -6.500036e-03  0 
 1.241234e-03  -7.044381e-03  0 
 4.280850e-04  -6.280003e-03  0 
 5.412935e-04  -6.612502e-03  0 
 8.344171e-04  -6.177436e-03  0 
 8.920896e-04  -6.880628e-03  0 
 1.158512e-03  -6.322344e-03  0 
 1.157180e-03  -6.667667e-03  0 
 1.561603e-03  -7.131549e-03  0 
VECTORS displacement_ITER13 FLOAT
 1.954994e-04  -5.580411e-03  0 
 8.868577e-05  -7.428552e-03  0 
 1.858706e-03  -7.449013e-03  0 
 -1.037523e-04  -5.529451e-03  0 
 1.531544e-04  -6.064610e-03  0 
 1.225774e-04  -6.516094e-03  0 
 1.017878e-04  -6.965947e-03  0 
 -5.410960e-04  -2.553203e-02  0 
 -1.056485e-03  -2.110647e-02  0 
 1.804621e-03  -6.524518e-03  0 
 1.832511e-03  -6.975084e-03  0 
 5.352726e-04  -7.404735e-03  0 
 9.692857e-04  -7.388507e-03  0 
 1.401703e-03  -7.405456e-03  0 
 -3.883641e-06  -5.194362e-03  0 
 1.326060e-04  -1.674114e-02  0 
 1.603382e-03  -8.347537e-03  0 
 2.253420e-03  -1.033012e-02  0 
 7.409356e-04  -6.711423e-03  0 
 8.847106e-04  -6.540609e-03  0 
 1.495037e-03  -6.805939e-03  0 
 5.519094e-04  -7.047052e-03  0 
 5.820295e-04  -5.951922e-03  0 
 1.418387e-03  -6.500098e-03  0 
 1.240865e-03  -7.044232e-03  0 
 4.279376e-04  -6.280023e-03  0 
 5.410325e-04  -6.612361e-03  0 
 8.338570e-04  -6.177393e-03  0 
 8.917917e-04  -6.880541e-03  0 
 1.158305e-03  -6.322460e-03  0 
 1.156867e-03  -6.667665e-03  0 
 1.561082e-03  -7.131350e-03  0 
VECTORS displacement_ITER14 FLOAT
 1.955613e-04  -5.580448e-03  0 
 8.874643e-05  -7.428471e-03  0 
 1.858677e-03  -7.448931e-03  0 
 -1.036878e-04  -5.529565e-03  0 
 1.532199e-04  -6.064620e-03  0 
 1.226405e-04  -6.516071e-03  0 
 1.018483e-04  -6.965893e-03  0 
 -5.401325e-04  -2.553035e-02  0 
 -1.057211e-03  -2.110690e-02  0 
 1.804594e-03  -6.524446e-03  0 
 1.832484e-03  -6.975012e-03  0 
 5.353049e-04  -7.404654e-03  0 
 9.692902e-04  -7.388425e-03  0 
 1.401688e-03  -7.405372e-03  0 
 -3.782276e-06  -5.194449e-03  0 
 1.322036e-04  -1.674249e-02  0 
 1.603689e-03  -8.348133e-03  0 
 2.253330e-03  -1.033027e-02  0 
 7.409743e-04  -6.711257e-03  0 
 8.847247e-04  -6.540587e-03  0 
 1.495018e-03  -6.805871e-03  0 
 5.519413e-04  -7.046993e-03  0 
 5.820587e-04  -5.951948e-03  0 
 1.418374e-03  -6.500036e-03  0 
 1.240857e-03  -7.044163e-03  0 
 4.279799e-04  -6.280015e-03  0 
 5.410645e-04  -6.612327e-03  0 
 8.338604e-04  -6.177383e-03  0 
 8.918042e-04  -6.880491e-03  0 
 1.158335e-03  -6.322444e-03  0 
 1.156872e-03  -6.667617e-03  0 
 1.561061e-03  -7.131275e-03  0 
CELL_DATA 43
TENSORS element_stresses FLOAT
 -7.377519e-02  -2.117118e-01  0 
 -2.117118e-01  -2.256650e-01  0 
 0  0  0 

 1.015304e-03  -3.103065e-02  0 
 -3.103065e-02  1.799836e-02  0 
 0  0  0 

 6.514238e-03  -1.129177e-02  0 
 -1.129177e-02  2.188882e-02  0 
 0  0  0 

 4.549231e-03  -1.667514e-02  0 
 -1.667514e-02  5.607850e-02  0 
 0  0  0 

 3.269992e-03  -2.725639e-03  0 
 -2.725639e-03  7.774652e-04  0 
 0  0  0 

 1.100238e-03  -4.180411e-03  0 
 -4.180411e-03  4.232014e-03  0 
 0  0  0 

 -6.822360e-03  -2.502417e-02  0 
 -2.502417e-02  1.624495e-02  0 
 0  0  0 

 6.481538e-03  -1.125408e-02  0 
 -1.125408e-02  2.188236e-02  0 
 0  0  0 

 7.666094e-03  -1.196470e-02  0 
 -1.196470e-02  7.454050e-03  0 
 0  0  0 

 4.002125e-03  -1.099954e-02  0 
 -1.099954e-02  2.260543e-02  0 
 0  0  0 

 1.150849e-03  -4.080646e-03  0 
 -4.080646e-03  4.243887e-03  0 
 0  0  0 

 2.261798e-03  -5.488855e-03  0 
 -5.488855e-03  6.031972e-03  0 
 0  0  0 

 8.152179e-02  -3.473144e-02  0 
 -3.473144e-02  -1.001262e-01  0 
 0  0  0 

 -2.343787e-02  -7.427306e-02  0 
 -7.427306e-02  5.788589e-02  0 
 0  0  0 

 3.752925e-02  -5.226012e-02  0 
 -5.226012e-02  -9.723249e-02  0 
 0  0  0 

 6.631213e-02  -9.927405e-02  0 
 -9.927405e-02  -3.874610e-02  0 
 0  0  0 

 -1.030275e-01  -7.149792e-02  0 
 -7.149792e-02  6.430010e-02  0 
 0  0  0 

 -6.103866e-02  -4.138624e-02  0 
 -4.138624e-02  7.376696e-02  0 
 0  0  0 

 1.598268e-02  -7.671488e-02  0 
 -7.671488e-02  -6.299270e-02  0 
 0  0  0 

 2.484975e-03  -8.975344e-02  0 
 -8.975344e-02  -5.491163e-02  0 
 0  0  0 

 -3.326847e-02  -9.526710e-02  0 
 -9.526710e-02  2.454824e-02  0 
 0  0  0 

 -7.151732e-02  -1.006027e-01  0 
 -1.006027e-01  1.933880e-03  0 
 0  0  0 

 1.911659e-02  -1.120064e-01  0 
 -1.120064e-01  -7.070469e-03  0 
 0  0  0 

 7.956081e-03  -1.109333e-01  0 
 -1.109333e-01  -4.438947e-02  0 
 0  0  0 

 -2.434164e-02  -3.632472e-02  0 
 -3.632472e-02  6.762238e-02  0 
 0  0  0 

 -4.897929e-02  -7.201052e-02  0 
 -7.201052e-02  4.717814e-02  0 
 0  0  0 

 -2.396017e-02  -1.330671e-01  0 
 -1.330671e-01  -1.884152e-02  0 
 0  0  0 

 4.432176e-03  -7.170033e-02  0 
 -7.170033e-02  4.312424e-02  0 
 0  0  0 

 -1.211453e-02  -8.455285e-02  0 
 -8.455285e-02  -2.717893e-02  0 
 0  0  0 

 -1.575477e-02  -1.180576e-01  0 
 -1.180576e-01  -7.990134e-03  0 
 0  0  0 

 2.005570e-02  -1.093509e-01  0 
 -1.093509e-01  -8.616731e-03  0 
 0  0  0 

 -3.087138e-02  -5.687444e-02  0 
 -5.687444e-02  7.178733e-02  0 
 0  0  0 

 -1.201544e-02  -3.498784e-02  0 
 -3.498784e-02  9.166217e-02  0 
 0  0  0 

 -1.781603e-01  -2.242293e-01  0 
 -2.242293e-01  -2.931507e-02  0 
 0  0  0 

 6.459159e-02  -6.359674e-02  0 
 -6.359674e-02  -1.339384e-01  0 
 0  0  0 

 4.123848e-02  -3.597941e-02  0 
 -3.597941e-02  -1.618646e-01  0 
 0  0  0 

 2.226656e-02  -3.652856e-02  0 
 -3.652856e-02  -1.061208e-01  0 
 0  0  0 

 7.450269e-03  -6.645760e-02  0 
 -6.645760e-02  -8.394888e-02  0 
 0  0  0 

 4.274886e-02  -8.228559e-02  0 
 -8.228559e-02  -7.039459e-02  0 
 0  0  0 

 -5.532306e-02  -4.840923e-02  0 
 -4.840923e-02  7.762408e-02  0 
 0  0  0 

 -2.594086e-02  -8.131718e-02  0 
 -8.131718e-02  1.516421e-02  0 
 0  0  0 

 -9.369203e-03  -9.366890e-02  0 
 -9.366890e-02  1.663238e-02  0 
 0  0  0 

 -4.045298e-02  -9.564670e-02  0 
 -9.564670e-02  1.128197e-02  0 
 0  0  0 

TENSORS element_stresses FLOAT
 -7.377519e-02  -2.117118e-01  0 
 -2.117118e-01  -2.256650e-01  0 
 0  0  0 

 1.015304e-03  -3.103065e-02  0 
 -3.103065e-02  1.799836e-02  0 
 0  0  0 

 6.514238e-03  -1.129177e-02  0 
 -1.129177e-02  2.188882e-02  0 
 0  0  0 

 4.549231e-03  -1.667514e-02  0 
 -1.667514e-02  5.607850e-02  0 
 0  0  0 

 3.269992e-03  -2.725639e-03  0 
 -2.725639e-03  7.774652e-04  0 
 0  0  0 

 1.100238e-03  -4.180411e-03  0 
 -4.180411e-03  4.232014e-03  0 
 0  0  0 

 -6.822360e-03  -2.502417e-02  0 
 -2.502417e-02  1.624495e-02  0 
 0  0  0 

 6.481538e-03  -1.125408e-02  0 
 -1.125408e-02  2.188236e-02  0 
 0  0  0 

 7.666094e-03  -1.196470e-02  0 
 -1.196470e-02  7.454050e-03  0 
 0  0  0 

 4.002125e-03  -1.099954e-02  0 
 -1.099954e-02  2.260543e-02  0 
 0  0  0 

 1.150849e-03  -4.080646e-03  0 
 -4.080646e-03  4.243887e-03  0 
 0  0  0 

 2.261798e-03  -5.488855e-03  0 
 -5.488855e-03  6.031972e-03  0 
 0  0  0 

 8.152179e-02  -3.473144e-02  0 
 -3.473144e-02  -1.001262e-01  0 
 0  0  0 

 -2.343787e-02  -7.427306e-02  0 
 -7.427306e-02  5.788589e-02  0 
 0  0  0 

 3.752925e-02  -5.226012e-02  0 
 -5.226012e-02  -9.723249e-02  0 
 0  0  0 

 6.631213e-02  -9.927405e-02  0 
 -9.927405e-02  -3.874610e-02  0 
 0  0  0 

 -1.030275e-01  -7.149792e-02  0 
 -7.149792e-02  6.430010e-02  0 
 0  0  0 

 -6.103866e-02  -4.138624e-02  0 
 -4.138624e-02  7.376696e-02  0 
 0  0  0 

 1.598268e-02  -7.671488e-02  0 
 -7.671488e-02  -6.299270e-02  0 
 0  0  0 

 2.484975e-03  -8.975344e-02  0 
 -8.975344e-02  -5.491163e-02  0 
 0  0  0 

 -3.326847e-02  -9.526710e-02  0 
 -9.526710e-02  2.454824e-02  0 
 0  0  0 

 -7.151732e-02  -1.006027e-01  0 
 -1.006027e-01  1.933880e-03  0 
 0  0  0 

 1.911659e-02  -1.120064e-01  0 
 -1.120064e-01  -7.070469e-03  0 
 0  0  0 

 7.956081e-03  -1.109333e-01  0 
 -1.109333e-01  -4.438947e-02  0 
 0  0  0 

 -2.434164e-02  -3.632472e-02  0 
 -3.632472e-02  6.762238e-02  0 
 0  0  0 

 -4.897929e-02  -7.201052e-02  0 
 -7.201052e-02  4.717814e-02  0 
 0  0  0 

 -2.396017e-02  -1.330671e-01  0 
 -1.330671e-01  -1.884152e-02  0 
 0  0  0 

 4.432176e-03  -7.170033e-02  0 
 -7.170033e-02  4.312424e-02  0 
 0  0  0 

 -1.211453e-02  -8.455285e-02  0 
 -8.455285e-02  -2.717893e-02  0 
 0  0  0 

 -1.575477e-02  -1.180576e-01  0 
 -1.180576e-01  -7.990134e-03  0 
 0  0  0 

 2.005570e-02  -1.093509e-01  0 
 -1.093509e-01  -8.616731e-03  0 
 0  0  0 

 -3.087138e-02  -5.687444e-02  0 
 -5.687444e-02  7.178733e-02  0 
 0  0  0 

 -1.201544e-02  -3.498784e-02  0 
 -3.498784e-02  9.166217e-02  0 
 0  0  0 

 -1.781603e-01  -2.242293e-01  0 
 -2.242293e-01  -2.931507e-02  0 
 0  0  0 

 6.459159e-02  -6.359674e-02  0 
 -6.359674e-02  -1.339384e-01  0 
 0  0  0 

 4.123848e-02  -3.597941e-02  0 
 -3.597941e-02  -1.618646e-01  0 
 0  0  0 

 2.226656e-02  -3.652856e-02  0 
 -3.652856e-02  -1.061208e-01  0 
 0  0  0 

 7.450269e-03  -6.645760e-02  0 
 -6.645760e-02  -8.394888e-02  0 
 0  0  0 

 4.274886e-02  -8.228559e-02  0 
 -8.228559e-02  -7.039459e-02  0 
 0  0  0 

 -5.532306e-02  -4.840923e-02  0 
 -4.840923e-02  7.762408e-02  0 
 0  0  0 

 -2.594086e-02  -8.131718e-02  0 
 -8.131718e-02  1.516421e-02  0 
 0  0  0 

 -9.369203e-03  -9.366890e-02  0 
 -9.366890e-02  1.663238e-02  0 
 0  0  0 

 -4.045298e-02  -9.564670e-02  0 
 -9.564670e-02  1.128197e-02  0 
 0  0  0 

