# vtk DataFile Version 3.1
this is an vtk file created by FEMAC
ASCII
DATASET UNSTRUCTURED_GRID
POINTS 31 FLOAT
4.000000 0.000000 0.000000
4.000000 1.000000 0.000000
3.500000 0.000000 0.000000
3.750000 0.000000 0.000000
4.250000 0.000000 0.000000
4.500000 0.000000 0.000000
4.750000 0.000000 0.000000
4.000000 0.250000 0.000000
4.000000 0.500000 0.000000
4.000000 0.750000 0.000000
4.250000 1.000000 0.000000
4.500000 1.000000 0.000000
3.462570 0.272476 0.000000
3.787596 0.660045 0.000000
3.828307 0.162952 0.000000
3.638134 0.825570 0.000000
3.502535 0.594871 0.000000
3.746177 0.372389 0.000000
3.660592 0.165804 0.000000
3.835146 0.847123 0.000000
4.462570 0.272476 0.000000
4.214699 0.660302 0.000000
4.828307 0.162952 0.000000
4.638134 0.825570 0.000000
4.371728 0.825957 0.000000
4.502535 0.594871 0.000000
4.217467 0.400442 0.000000
4.746177 0.372389 0.000000
4.660592 0.165804 0.000000
4.167285 0.847252 0.000000
4.238340 0.153820 0.000000
CELLS 43 172 
3 13  8  9
3 14  3  0
3 7 14  0
3 16 13 15
3 13 17  8
3 17 16 12
3 13 16 17
3 17  7  8
3 14  7 17
3 14 18  3
3 9 19 13
3 19  9  1
3 18 17 12
3 14 17 18
3 15 13 19
3 18  2  3
3 2 18 12
3 8 21  9
3 11 24 23
3 26 21  8
3 25 26 20
3 25 21 26
3 27 25 20
3 10 24 11
3 7 26  8
3 25 24 21
3 23 24 25
3 22 28  6
3 9 29  1
3 29 10  1
3 29  9 21
3 28 27 20
3 22 27 28
3 29 24 10
3 21 24 29
3 28  5  6
3 5 28 20
3 4 30  0
3 30  7  0
3 5 30  4
3 26 30 20
3 30 26  7
3 5 20 30
CELL_TYPES 43
5 5 5 5 5 5 5 5 5 5 5 5 5 5 5 5 5 5 5 5 5 5 5 5 5 5 5 5 5 5 5 5 5 5 5 5 5 5 5 5 5 5 5 
POINT_DATA 31
VECTORS displacement_ITER1 FLOAT
 -2.156653e-01  -2.251957e-01  0 
 -1.108702e-01  -2.251206e-01  0 
 -1.771291e-01  -1.972259e-01  0 
 -1.986361e-01  -2.114999e-01  0 
 -2.156869e-01  -2.513848e-01  0 
 -2.157069e-01  -2.775830e-01  0 
 -2.157240e-01  -3.037961e-01  0 
 -1.894785e-01  -2.251685e-01  0 
 -1.632813e-01  -2.251516e-01  0 
 -1.370767e-01  -2.251370e-01  0 
 -1.108817e-01  -2.513345e-01  0 
 -1.108958e-01  -2.775417e-01  0 
 -1.701031e-01  -1.761666e-01  0 
 -1.425722e-01  -1.993138e-01  0 
 -1.928948e-01  -2.078306e-01  0 
 -1.167412e-01  -1.744296e-01  0 
 -1.430079e-01  -1.649227e-01  0 
 -1.719445e-01  -1.964087e-01  0 
 -1.842119e-01  -1.939442e-01  0 
 -1.227553e-01  -2.022564e-01  0 
 -1.871440e-01  -2.736469e-01  0 
 -1.464869e-01  -2.476499e-01  0 
 -1.986389e-01  -3.119983e-01  0 
 -1.291793e-01  -2.920271e-01  0 
 -1.291296e-01  -2.641049e-01  0 
 -1.533520e-01  -2.778249e-01  0 
 -1.737232e-01  -2.479493e-01  0 
 -1.766798e-01  -3.033778e-01  0 
 -1.983335e-01  -2.944115e-01  0 
 -1.268899e-01  -2.426700e-01  0 
 -1.995703e-01  -2.501492e-01  0 
VECTORS displacement_ITER2 FLOAT
 -1.595072e-01  -1.984189e-01  0 
 -7.095159e-02  -1.983131e-01  0 
 -1.218417e-01  -1.775211e-01  0 
 -1.429293e-01  -1.883118e-01  0 
 -1.595275e-01  -2.205373e-01  0 
 -1.595456e-01  -2.426641e-01  0 
 -1.595611e-01  -2.648029e-01  0 
 -1.373915e-01  -1.983922e-01  0 
 -1.152612e-01  -1.983700e-01  0 
 -9.311359e-02  -1.983443e-01  0 
 -7.096947e-02  -2.204872e-01  0 
 -7.098614e-02  -2.426524e-01  0 
 -1.183952e-01  -1.570859e-01  0 
 -9.665383e-02  -1.756810e-01  0 
 -1.394929e-01  -1.837154e-01  0 
 -7.137463e-02  -1.513103e-01  0 
 -9.565620e-02  -1.446723e-01  0 
 -1.218399e-01  -1.735552e-01  0 
 -1.309969e-01  -1.722632e-01  0 
 -7.921541e-02  -1.771086e-01  0 
 -1.354205e-01  -2.393408e-01  0 
 -1.010728e-01  -2.173786e-01  0 
 -1.451283e-01  -2.717322e-01  0 
 -8.644272e-02  -2.548928e-01  0 
 -8.640252e-02  -2.312879e-01  0 
 -1.068757e-01  -2.428788e-01  0 
 -1.240856e-01  -2.176340e-01  0 
 -1.265781e-01  -2.644549e-01  0 
 -1.448713e-01  -2.568777e-01  0 
 -8.450527e-02  -2.131641e-01  0 
 -1.459162e-01  -2.194926e-01  0 
VECTORS displacement_ITER3 FLOAT
 -1.127158e-01  -1.263973e-01  0 
 -7.638365e-02  -1.262577e-01  0 
 -7.839099e-02  -1.311338e-01  0 
 -9.738958e-02  -1.289265e-01  0 
 -1.127348e-01  -1.354532e-01  0 
 -1.127513e-01  -1.445179e-01  0 
 -1.127642e-01  -1.535947e-01  0 
 -1.036626e-01  -1.263722e-01  0 
 -9.459402e-02  -1.263477e-01  0 
 -8.550217e-02  -1.263101e-01  0 
 -7.640980e-02  -1.353956e-01  0 
 -7.643156e-02  -1.445186e-01  0 
 -8.702945e-02  -1.133254e-01  0 
 -8.389117e-02  -1.155598e-01  0 
 -1.017101e-01  -1.210144e-01  0 
 -6.508324e-02  -9.806405e-02  0 
 -7.961283e-02  -9.898535e-02  0 
 -9.487868e-02  -1.156437e-01  0 
 -9.412946e-02  -1.185564e-01  0 
 -7.554066e-02  -1.133707e-01  0 
 -1.028642e-01  -1.431515e-01  0 
 -8.878198e-02  -1.341380e-01  0 
 -1.068474e-01  -1.564330e-01  0 
 -8.278299e-02  -1.495394e-01  0 
 -8.276381e-02  -1.398470e-01  0 
 -9.116702e-02  -1.446025e-01  0 
 -9.821725e-02  -1.342512e-01  0 
 -9.924192e-02  -1.534460e-01  0 
 -1.067398e-01  -1.503415e-01  0 
 -8.197471e-02  -1.323930e-01  0 
 -1.071607e-01  -1.350187e-01  0 
VECTORS displacement_ITER4 FLOAT
 -1.085215e-01  -1.149644e-01  0 
 -6.851538e-02  -1.147942e-01  0 
 -7.837920e-02  -1.181719e-01  0 
 -9.465193e-02  -1.163764e-01  0 
 -1.085385e-01  -1.249258e-01  0 
 -1.085527e-01  -1.348951e-01  0 
 -1.085639e-01  -1.448732e-01  0 
 -9.856317e-02  -1.149408e-01  0 
 -8.858316e-02  -1.149097e-01  0 
 -7.856911e-02  -1.148602e-01  0 
 -6.854685e-02  -1.248689e-01  0 
 -6.856965e-02  -1.349271e-01  0 
 -8.371530e-02  -1.013010e-01  0 
 -7.726212e-02  -1.047709e-01  0 
 -9.758229e-02  -1.095843e-01  0 
 -5.718075e-02  -8.750007e-02  0 
 -7.387235e-02  -8.798546e-02  0 
 -8.993717e-02  -1.047135e-01  0 
 -9.101640e-02  -1.071465e-01  0 
 -6.793199e-02  -1.019178e-01  0 
 -9.767954e-02  -1.333973e-01  0 
 -8.218421e-02  -1.234844e-01  0 
 -1.020552e-01  -1.479979e-01  0 
 -7.557006e-02  -1.404571e-01  0 
 -7.555252e-02  -1.297742e-01  0 
 -8.481068e-02  -1.350065e-01  0 
 -9.257164e-02  -1.236095e-01  0 
 -9.368863e-02  -1.447206e-01  0 
 -1.019396e-01  -1.413005e-01  0 
 -7.468225e-02  -1.215608e-01  0 
 -1.024079e-01  -1.244504e-01  0 
VECTORS displacement_ITER5 FLOAT
 -8.143258e-02  -8.155580e-02  0 
 -5.922124e-02  -8.137720e-02  0 
 -5.457705e-02  -9.705865e-02  0 
 -6.829852e-02  -8.845122e-02  0 
 -8.144970e-02  -8.706708e-02  0 
 -8.146395e-02  -9.258734e-02  0 
 -8.147456e-02  -9.811777e-02  0 
 -7.592434e-02  -8.153247e-02  0 
 -7.039268e-02  -8.150000e-02  0 
 -6.482772e-02  -8.144714e-02  0 
 -5.925400e-02  -8.700140e-02  0 
 -5.927841e-02  -9.260623e-02  0 
 -6.359940e-02  -8.163830e-02  0 
 -6.246038e-02  -7.769538e-02  0 
 -7.399601e-02  -8.043964e-02  0 
 -4.695715e-02  -6.664141e-02  0 
 -5.926748e-02  -6.892688e-02  0 
 -7.025659e-02  -7.826278e-02  0 
 -6.846902e-02  -8.264055e-02  0 
 -5.684246e-02  -7.369289e-02  0 
 -7.544038e-02  -9.175500e-02  0 
 -6.684710e-02  -8.625024e-02  0 
 -7.786755e-02  -9.984823e-02  0 
 -6.317857e-02  -9.568338e-02  0 
 -6.316411e-02  -8.974187e-02  0 
 -6.831055e-02  -9.265025e-02  0 
 -7.260999e-02  -8.632914e-02  0 
 -7.322902e-02  -9.802982e-02  0 
 -7.780194e-02  -9.613503e-02  0 
 -6.267171e-02  -8.516819e-02  0 
 -7.805682e-02  -8.679908e-02  0 
VECTORS displacement_ITER6 FLOAT
 -7.493501e-02  -6.346040e-02  0 
 -4.434972e-02  -6.327231e-02  0 
 -5.305533e-02  -7.575050e-02  0 
 -6.346427e-02  -6.821964e-02  0 
 -7.495042e-02  -7.105900e-02  0 
 -7.496285e-02  -7.866623e-02  0 
 -7.497214e-02  -8.628259e-02  0 
 -6.733953e-02  -6.343894e-02  0 
 -5.971697e-02  -6.340340e-02  0 
 -5.205752e-02  -6.334594e-02  0 
 -4.438570e-02  -7.099192e-02  0 
 -4.441189e-02  -7.868947e-02  0 
 -5.753471e-02  -6.170923e-02  0 
 -5.111357e-02  -5.993179e-02  0 
 -6.696459e-02  -6.176633e-02  0 
 -3.597656e-02  -5.084563e-02  0 
 -4.990612e-02  -5.128800e-02  0 
 -6.154847e-02  -5.999907e-02  0 
 -6.270248e-02  -6.356643e-02  0 
 -4.419611e-02  -5.619764e-02  0 
 -6.666503e-02  -7.752373e-02  0 
 -5.482938e-02  -6.994835e-02  0 
 -7.000459e-02  -8.866739e-02  0 
 -4.977756e-02  -8.293005e-02  0 
 -4.975753e-02  -7.475378e-02  0 
 -5.684186e-02  -7.875864e-02  0 
 -6.276780e-02  -7.005203e-02  0 
 -6.361675e-02  -8.616565e-02  0 
 -6.991592e-02  -8.355486e-02  0 
 -4.908530e-02  -6.846797e-02  0 
 -7.027352e-02  -7.069480e-02  0 
VECTORS displacement_ITER7 FLOAT
 -5.804757e-02  -3.368088e-02  0 
 -3.398093e-02  -3.349026e-02  0 
 -4.184088e-02  -4.562246e-02  0 
 -4.908646e-02  -3.821971e-02  0 
 -5.805968e-02  -3.964722e-02  0 
 -5.806892e-02  -4.562096e-02  0 
 -5.807601e-02  -5.160366e-02  0 
 -5.208416e-02  -3.366346e-02  0 
 -4.609470e-02  -3.362923e-02  0 
 -4.006697e-02  -3.356966e-02  0 
 -3.402474e-02  -3.958292e-02  0 
 -3.405637e-02  -4.564671e-02  0 
 -4.485381e-02  -3.423926e-02  0 
 -3.897580e-02  -3.198971e-02  0 
 -5.197772e-02  -3.300501e-02  0 
 -2.559284e-02  -2.474459e-02  0 
 -3.818253e-02  -2.559261e-02  0 
 -4.776983e-02  -3.216424e-02  0 
 -4.896093e-02  -3.534446e-02  0 
 -3.312508e-02  -2.800248e-02  0 
 -5.155295e-02  -4.472551e-02  0 
 -4.225367e-02  -3.877247e-02  0 
 -5.417442e-02  -5.347604e-02  0 
 -3.828395e-02  -4.898674e-02  0 
 -3.826364e-02  -4.255240e-02  0 
 -4.383788e-02  -4.570190e-02  0 
 -4.849410e-02  -3.885704e-02  0 
 -4.915693e-02  -5.151076e-02  0 
 -5.410480e-02  -4.946061e-02  0 
 -3.772835e-02  -3.760132e-02  0 
 -5.438758e-02  -3.936133e-02  0 
VECTORS displacement_ITER8 FLOAT
 -5.410523e-02  -2.597613e-02  0 
 -3.605561e-02  -2.578287e-02  0 
 -4.344586e-02  -3.523920e-02  0 
 -4.787808e-02  -2.939187e-02  0 
 -5.411336e-02  -3.043401e-02  0 
 -5.411881e-02  -3.489736e-02  0 
 -5.412370e-02  -3.936832e-02  0 
 -4.965013e-02  -2.596349e-02  0 
 -4.517058e-02  -2.593119e-02  0 
 -4.064966e-02  -2.586964e-02  0 
 -3.611108e-02  -3.037788e-02  0 
 -3.614931e-02  -3.493499e-02  0 
 -4.459020e-02  -2.662700e-02  0 
 -3.923961e-02  -2.509852e-02  0 
 -4.978465e-02  -2.574487e-02  0 
 -2.672225e-02  -1.817868e-02  0 
 -3.846097e-02  -1.957297e-02  0 
 -4.656264e-02  -2.538419e-02  0 
 -4.786916e-02  -2.777249e-02  0 
 -3.411911e-02  -2.089189e-02  0 
 -4.925033e-02  -3.423131e-02  0 
 -4.229607e-02  -2.978118e-02  0 
 -5.120724e-02  -4.076759e-02  0 
 -3.932400e-02  -3.744002e-02  0 
 -3.930464e-02  -3.261583e-02  0 
 -4.348349e-02  -3.497191e-02  0 
 -4.696733e-02  -2.984593e-02  0 
 -4.745570e-02  -3.929982e-02  0 
 -5.115560e-02  -3.776688e-02  0 
 -3.889535e-02  -2.889677e-02  0 
 -5.137010e-02  -3.022115e-02  0 
VECTORS displacement_ITER9 FLOAT
 -3.787083e-02  -1.901479e-02  0 
 -2.673788e-02  -1.882774e-02  0 
 -3.040453e-02  -2.715909e-02  0 
 -3.340773e-02  -2.207755e-02  0 
 -3.787634e-02  -2.174120e-02  0 
 -3.787963e-02  -2.447147e-02  0 
 -3.788401e-02  -2.720883e-02  0 
 -3.514744e-02  -1.900597e-02  0 
 -3.240242e-02  -1.897746e-02  0 
 -2.961470e-02  -1.891816e-02  0 
 -2.680673e-02  -2.169689e-02  0 
 -2.685144e-02  -2.451701e-02  0 
 -3.146544e-02  -2.057759e-02  0 
 -2.796203e-02  -1.871611e-02  0 
 -3.512441e-02  -1.927113e-02  0 
 -1.699941e-02  -1.222963e-02  0 
 -2.701389e-02  -1.447173e-02  0 
 -3.320653e-02  -1.920635e-02  0 
 -3.381407e-02  -2.123220e-02  0 
 -2.382831e-02  -1.458972e-02  0 
 -3.490012e-02  -2.406653e-02  0 
 -3.063773e-02  -2.134282e-02  0 
 -3.609739e-02  -2.806550e-02  0 
 -2.881244e-02  -2.605963e-02  0 
 -2.879455e-02  -2.309070e-02  0 
 -3.136813e-02  -2.453414e-02  0 
 -3.350630e-02  -2.138301e-02  0 
 -3.379600e-02  -2.716659e-02  0 
 -3.606532e-02  -2.622743e-02  0 
 -2.853156e-02  -2.079105e-02  0 
 -3.619878e-02  -2.161079e-02  0 
VECTORS displacement_ITER10 FLOAT
 -2.833855e-02  -1.186012e-02  0 
 -1.770437e-02  -1.168990e-02  0 
 -2.135088e-02  -1.854852e-02  0 
 -2.430232e-02  -1.424588e-02  0 
 -2.834353e-02  -1.446220e-02  0 
 -2.834690e-02  -1.706739e-02  0 
 -2.835255e-02  -1.967997e-02  0 
 -2.574001e-02  -1.185313e-02  0 
 -2.312268e-02  -1.182905e-02  0 
 -2.046420e-02  -1.177637e-02  0 
 -1.778460e-02  -1.442862e-02  0 
 -1.783460e-02  -1.710925e-02  0 
 -2.256840e-02  -1.277646e-02  0 
 -1.942435e-02  -1.112884e-02  0 
 -2.577166e-02  -1.177728e-02  0 
 -1.030996e-02  -5.499373e-03  0 
 -1.891005e-02  -7.445748e-03  0 
 -2.402988e-02  -1.151601e-02  0 
 -2.454969e-02  -1.328781e-02  0 
 -1.551433e-02  -7.824658e-03  0 
 -2.550260e-02  -1.668059e-02  0 
 -2.143740e-02  -1.408918e-02  0 
 -2.664753e-02  -2.049777e-02  0 
 -1.969975e-02  -1.857733e-02  0 
 -1.967956e-02  -1.575669e-02  0 
 -2.213114e-02  -1.712920e-02  0 
 -2.417348e-02  -1.412221e-02  0 
 -2.444724e-02  -1.963774e-02  0 
 -2.661565e-02  -1.874230e-02  0 
 -1.942734e-02  -1.356816e-02  0 
 -2.674233e-02  -1.433783e-02  0 
VECTORS displacement_ITER11 FLOAT
 -2.615540e-02  -9.978239e-03  0 
 -1.436024e-02  -9.826584e-03  0 
 -1.802548e-02  -1.651162e-02  0 
 -2.168334e-02  -1.223024e-02  0 
 -2.616105e-02  -1.287263e-02  0 
 -2.616546e-02  -1.577016e-02  0 
 -2.617233e-02  -1.867542e-02  0 
 -2.326493e-02  -9.971309e-03  0 
 -2.035773e-02  -9.950383e-03  0 
 -1.741247e-02  -9.904819e-03  0 
 -1.444698e-02  -1.284392e-02  0 
 -1.450006e-02  -1.579995e-02  0 
 -2.010150e-02  -1.080599e-02  0 
 -1.721278e-02  -8.896789e-03  0 
 -2.328317e-02  -9.560656e-03  0 
 -1.034270e-02  -4.812843e-03  0 
 -1.731835e-02  -6.027381e-03  0 
 -2.148665e-02  -9.078691e-03  0 
 -2.185634e-02  -1.090632e-02  0 
 -1.352963e-02  -6.670108e-03  0 
 -2.300166e-02  -1.533802e-02  0 
 -1.848502e-02  -1.246180e-02  0 
 -2.427753e-02  -1.958478e-02  0 
 -1.656098e-02  -1.742671e-02  0 
 -1.653716e-02  -1.430869e-02  0 
 -1.925266e-02  -1.583154e-02  0 
 -2.152246e-02  -1.249439e-02  0 
 -2.182985e-02  -1.862639e-02  0 
 -2.424097e-02  -1.763214e-02  0 
 -1.626067e-02  -1.189178e-02  0 
 -2.437970e-02  -1.273410e-02  0 
VECTORS displacement_ITER12 FLOAT
 -2.358705e-02  -4.268293e-03  0 
 -1.084258e-02  -4.130072e-03  0 
 -1.524479e-02  -1.008727e-02  0 
 -1.908746e-02  -6.149694e-03  0 
 -2.359267e-02  -7.401464e-03  0 
 -2.359718e-02  -1.053765e-02  0 
 -2.360402e-02  -1.368139e-02  0 
 -2.045789e-02  -4.261697e-03  0 
 -1.731360e-02  -4.242703e-03  0 
 -1.413337e-02  -4.201703e-03  0 
 -1.093380e-02  -7.374562e-03  0 
 -1.098927e-02  -1.055815e-02  0 
 -1.754668e-02  -4.749481e-03  0 
 -1.464233e-02  -2.921631e-03  0 
 -2.055902e-02  -3.553684e-03  0 
 -9.678775e-03  -1.580860e-04  0 
 -1.528340e-02  -7.004815e-04  0 
 -1.866967e-02  -2.925487e-03  0 
 -1.910568e-02  -4.649953e-03  0 
 -1.117630e-02  -1.610590e-03  0 
 -2.017333e-02  -1.006915e-02  0 
 -1.528790e-02  -6.959146e-03  0 
 -2.155486e-02  -1.466524e-02  0 
 -1.321142e-02  -1.231591e-02  0 
 -1.318460e-02  -8.952599e-03  0 
 -1.611655e-02  -1.059929e-02  0 
 -1.857177e-02  -6.992286e-03  0 
 -1.890693e-02  -1.362732e-02  0 
 -2.151493e-02  -1.255252e-02  0 
 -1.288771e-02  -6.347876e-03  0 
 -2.166436e-02  -7.251782e-03  0 
VECTORS displacement_ITER13 FLOAT
 -1.696657e-02  -5.753648e-03  0 
 -8.043889e-03  -5.621050e-03  0 
 -9.309614e-03  -1.213266e-02  0 
 -1.288834e-02  -8.018979e-03  0 
 -1.697134e-02  -7.931163e-03  0 
 -1.697487e-02  -1.011137e-02  0 
 -1.698042e-02  -1.229836e-02  0 
 -1.479290e-02  -5.747768e-03  0 
 -1.260505e-02  -5.729177e-03  0 
 -1.038146e-02  -5.689056e-03  0 
 -8.139164e-03  -7.902621e-03  0 
 -8.197786e-03  -1.012715e-02  0 
 -1.232224e-02  -7.606848e-03  0 
 -1.092159e-02  -4.977959e-03  0 
 -1.465057e-02  -5.471542e-03  0 
 -7.883506e-03  -3.510032e-03  0 
 -1.153257e-02  -4.160075e-03  0 
 -1.353565e-02  -5.056817e-03  0 
 -1.332038e-02  -6.831842e-03  0 
 -8.451908e-03  -4.096809e-03  0 
 -1.459394e-02  -9.786515e-03  0 
 -1.119216e-02  -7.625224e-03  0 
 -1.555587e-02  -1.298237e-02  0 
 -9.751291e-03  -1.135795e-02  0 
 -9.723562e-03  -9.016567e-03  0 
 -1.177047e-02  -1.016352e-02  0 
 -1.348199e-02  -7.647157e-03  0 
 -1.371033e-02  -1.225873e-02  0 
 -1.552693e-02  -1.151205e-02  0 
 -9.506431e-03  -7.196155e-03  0 
 -1.563127e-02  -7.826672e-03  0 
VECTORS displacement_ITER14 FLOAT
 -1.145008e-02  -4.816302e-03  0 
 -6.049693e-03  -4.686610e-03  0 
 -5.773394e-03  -1.032201e-02  0 
 -8.411191e-03  -6.837460e-03  0 
 -1.145316e-02  -6.111804e-03  0 
 -1.145488e-02  -7.409269e-03  0 
 -1.145899e-02  -8.712942e-03  0 
 -1.015820e-02  -4.812079e-03  0 
 -8.852920e-03  -4.793604e-03  0 
 -7.510524e-03  -4.752470e-03  0 
 -6.149280e-03  -6.082102e-03  0 
 -6.211820e-03  -7.426509e-03  0 
 -8.424708e-03  -7.054714e-03  0 
 -7.992815e-03  -4.364233e-03  0 
 -9.954266e-03  -4.822028e-03  0 
 -6.385845e-03  -3.607141e-03  0 
 -8.435059e-03  -4.480186e-03  0 
 -9.422423e-03  -4.592051e-03  0 
 -8.975970e-03  -6.099061e-03  0 
 -6.388432e-03  -3.748552e-03  0 
 -1.003715e-02  -7.218096e-03  0 
 -8.005331e-03  -5.933200e-03  0 
 -1.061051e-02  -9.120031e-03  0 
 -7.149683e-03  -8.171055e-03  0 
 -7.121555e-03  -6.770285e-03  0 
 -8.352675e-03  -7.455586e-03  0 
 -9.378068e-03  -5.944678e-03  0 
 -9.506184e-03  -8.687137e-03  0 
 -1.059215e-02  -8.243061e-03  0 
 -6.976939e-03  -5.671009e-03  0 
 -1.065617e-02  -6.049639e-03  0 
VECTORS displacement_ITER15 FLOAT
 -9.744863e-03  -5.434779e-03  0 
 -4.552377e-03  -5.312388e-03  0 
 -6.684997e-03  -8.459467e-03  0 
 -7.958056e-03  -6.378632e-03  0 
 -9.746390e-03  -6.677717e-03  0 
 -9.746854e-03  -7.921749e-03  0 
 -9.750985e-03  -9.172459e-03  0 
 -8.505513e-03  -5.432701e-03  0 
 -7.253661e-03  -5.415494e-03  0 
 -5.964020e-03  -5.374919e-03  0 
 -4.655037e-03  -6.650585e-03  0 
 -4.720273e-03  -7.942516e-03  0 
 -7.668338e-03  -6.482837e-03  0 
 -6.666230e-03  -4.806734e-03  0 
 -8.617908e-03  -5.276036e-03  0 
 -5.939914e-03  -4.445224e-03  0 
 -7.183061e-03  -5.087387e-03  0 
 -7.939637e-03  -5.085621e-03  0 
 -8.128019e-03  -6.013641e-03  0 
 -5.369791e-03  -4.494394e-03  0 
 -8.387285e-03  -7.739758e-03  0 
 -6.439473e-03  -6.510832e-03  0 
 -8.936488e-03  -9.562571e-03  0 
 -5.619932e-03  -8.657132e-03  0 
 -5.591068e-03  -7.314745e-03  0 
 -6.771974e-03  -7.970824e-03  0 
 -7.756731e-03  -6.519959e-03  0 
 -7.876578e-03  -9.147012e-03  0 
 -8.918896e-03  -8.721363e-03  0 
 -5.449398e-03  -6.259508e-03  0 
 -8.981919e-03  -6.618993e-03  0 
VECTORS displacement_ITER16 FLOAT
 -6.310371e-03  -7.515568e-03  0 
 -1.772491e-03  -7.400927e-03  0 
 -4.866931e-03  -9.125659e-03  0 
 -5.310081e-03  -7.886541e-03  0 
 -6.311097e-03  -8.595453e-03  0 
 -6.311142e-03  -9.675850e-03  0 
 -6.316124e-03  -1.076400e-02  0 
 -5.234147e-03  -7.514987e-03  0 
 -4.146441e-03  -7.499478e-03  0 
 -3.021450e-03  -7.460664e-03  0 
 -1.876995e-03  -8.571920e-03  0 
 -1.943236e-03  -9.698190e-03  0 
 -4.904607e-03  -7.974022e-03  0 
 -3.795312e-03  -6.809966e-03  0 
 -5.485750e-03  -7.324870e-03  0 
 -3.717320e-03  -6.695930e-03  0 
 -4.242307e-03  -7.297421e-03  0 
 -4.800680e-03  -7.175996e-03  0 
 -5.283849e-03  -7.766645e-03  0 
 -2.835973e-03  -6.678455e-03  0 
 -5.129331e-03  -9.518731e-03  0 
 -3.436943e-03  -8.455031e-03  0 
 -5.607165e-03  -1.110254e-02  0 
 -2.726752e-03  -1.032091e-02  0 
 -2.697773e-03  -9.155854e-03  0 
 -3.725318e-03  -9.724611e-03  0 
 -4.583278e-03  -8.460533e-03  0 
 -4.683251e-03  -1.073963e-02  0 
 -5.591189e-03  -1.037039e-02  0 
 -2.569765e-03  -8.236333e-03  0 
 -5.646926e-03  -8.544787e-03  0 
VECTORS displacement_ITER17 FLOAT
 -5.930637e-03  -7.374146e-03  0 
 -2.336383e-03  -7.264433e-03  0 
 -5.573164e-03  -7.843784e-03  0 
 -5.514220e-03  -7.328091e-03  0 
 -5.930691e-03  -8.219191e-03  0 
 -5.930292e-03  -9.064318e-03  0 
 -5.935565e-03  -9.917851e-03  0 
 -5.089198e-03  -7.374663e-03  0 
 -4.237375e-03  -7.360599e-03  0 
 -3.349299e-03  -7.323278e-03  0 
 -2.442021e-03  -8.198226e-03  0 
 -2.508141e-03  -9.086712e-03  0 
 -5.050353e-03  -7.321910e-03  0 
 -4.061476e-03  -6.631611e-03  0 
 -5.378489e-03  -7.157901e-03  0 
 -4.311177e-03  -6.551104e-03  0 
 -4.380500e-03  -7.111986e-03  0 
 -4.773141e-03  -7.015911e-03  0 
 -5.349981e-03  -7.328984e-03  0 
 -3.371467e-03  -6.628945e-03  0 
 -5.004813e-03  -8.942638e-03  0 
 -3.679130e-03  -8.114028e-03  0 
 -5.379681e-03  -1.018222e-02  0 
 -3.126012e-03  -9.578229e-03  0 
 -3.097114e-03  -8.666306e-03  0 
 -3.904933e-03  -9.110794e-03  0 
 -4.579633e-03  -8.115891e-03  0 
 -4.652810e-03  -9.895685e-03  0 
 -5.366183e-03  -9.607708e-03  0 
 -2.989394e-03  -7.941175e-03  0 
 -5.411033e-03  -8.179881e-03  0 
VECTORS displacement_ITER18 FLOAT
 -5.021147e-03  -6.599068e-03  0 
 -2.101160e-03  -6.493001e-03  0 
 -5.159011e-03  -6.428140e-03  0 
 -4.901620e-03  -6.340189e-03  0 
 -5.020864e-03  -7.277185e-03  0 
 -5.020247e-03  -7.955195e-03  0 
 -5.025556e-03  -8.642077e-03  0 
 -4.346530e-03  -6.600151e-03  0 
 -3.662497e-03  -6.587274e-03  0 
 -2.943886e-03  -6.551517e-03  0 
 -2.206670e-03  -7.257525e-03  0 
 -2.271648e-03  -7.975030e-03  0 
 -4.456986e-03  -6.291535e-03  0 
 -3.606412e-03  -5.936123e-03  0 
 -4.627691e-03  -6.367621e-03  0 
 -4.104241e-03  -6.023946e-03  0 
 -3.909687e-03  -6.387929e-03  0 
 -4.112096e-03  -6.233297e-03  0 
 -4.672991e-03  -6.375079e-03  0 
 -3.093997e-03  -6.090384e-03  0 
 -4.277065e-03  -7.858416e-03  0 
 -3.212295e-03  -7.196207e-03  0 
 -4.578912e-03  -8.853500e-03  0 
 -2.771825e-03  -8.373523e-03  0 
 -2.742734e-03  -7.642002e-03  0 
 -3.393712e-03  -7.998568e-03  0 
 -3.937502e-03  -7.195945e-03  0 
 -3.992618e-03  -8.620942e-03  0 
 -4.567066e-03  -8.391167e-03  0 
 -2.650021e-03  -7.056110e-03  0 
 -4.603912e-03  -7.245857e-03  0 
VECTORS displacement_ITER19 FLOAT
 -5.061760e-03  -5.505313e-03  0 
 -1.433355e-03  -5.399827e-03  0 
 -4.628198e-03  -5.620690e-03  0 
 -4.650055e-03  -5.378962e-03  0 
 -5.062088e-03  -6.361606e-03  0 
 -5.062209e-03  -7.218055e-03  0 
 -5.068382e-03  -8.084282e-03  0 
 -4.209090e-03  -5.505999e-03  0 
 -3.347077e-03  -5.493541e-03  0 
 -2.451572e-03  -5.458646e-03  0 
 -1.537943e-03  -6.341688e-03  0 
 -1.601566e-03  -7.235541e-03  0 
 -4.132315e-03  -5.254249e-03  0 
 -3.160762e-03  -4.922283e-03  0 
 -4.472058e-03  -5.243135e-03  0 
 -3.684929e-03  -5.263513e-03  0 
 -3.562114e-03  -5.311515e-03  0 
 -3.848279e-03  -5.095431e-03  0 
 -4.410219e-03  -5.294968e-03  0 
 -2.608832e-03  -5.199877e-03  0 
 -4.124007e-03  -7.093832e-03  0 
 -2.783121e-03  -6.254712e-03  0 
 -4.505087e-03  -8.351419e-03  0 
 -2.225828e-03  -7.732180e-03  0 
 -2.196436e-03  -6.811550e-03  0 
 -3.010895e-03  -7.261463e-03  0 
 -3.692880e-03  -6.256515e-03  0 
 -3.768511e-03  -8.059013e-03  0 
 -4.490742e-03  -7.768606e-03  0 
 -2.089264e-03  -6.081182e-03  0 
 -4.535303e-03  -6.321510e-03  0 
VECTORS displacement_ITER20 FLOAT
 -4.934609e-03  -4.740623e-03  0 
 -1.340907e-03  -4.632562e-03  0 
 -4.179365e-03  -5.585558e-03  0 
 -4.307487e-03  -4.951708e-03  0 
 -4.935518e-03  -5.588511e-03  0 
 -4.936360e-03  -6.436826e-03  0 
 -4.943417e-03  -7.295721e-03  0 
 -4.090497e-03  -4.740981e-03  0 
 -3.236852e-03  -4.728658e-03  0 
 -2.349834e-03  -4.693413e-03  0 
 -1.444694e-03  -5.568114e-03  0 
 -1.507384e-03  -6.455192e-03  0 
 -3.905979e-03  -5.021657e-03  0 
 -2.958422e-03  -4.487680e-03  0 
 -4.304518e-03  -4.634328e-03  0 
 -3.351760e-03  -5.068497e-03  0 
 -3.379290e-03  -4.973957e-03  0 
 -3.710804e-03  -4.590937e-03  0 
 -4.195283e-03  -4.909968e-03  0 
 -2.453659e-03  -4.697893e-03  0 
 -4.006376e-03  -6.313209e-03  0 
 -2.678544e-03  -5.482165e-03  0 
 -4.384862e-03  -7.560415e-03  0 
 -2.126184e-03  -6.946237e-03  0 
 -2.097568e-03  -6.033957e-03  0 
 -2.903835e-03  -6.479212e-03  0 
 -3.579325e-03  -5.483964e-03  0 
 -3.653903e-03  -7.269721e-03  0 
 -4.370241e-03  -6.982152e-03  0 
 -1.991446e-03  -5.309697e-03  0 
 -4.413687e-03  -5.548362e-03  0 
VECTORS displacement_ITER21 FLOAT
 -5.798694e-03  -3.308235e-03  0 
 -1.259506e-03  -3.199501e-03  0 
 -4.137884e-03  -4.722010e-03  0 
 -4.706496e-03  -3.775710e-03  0 
 -5.800497e-03  -4.393525e-03  0 
 -5.802344e-03  -5.479680e-03  0 
 -5.810195e-03  -6.576991e-03  0 
 -4.717310e-03  -3.307885e-03  0 
 -3.626509e-03  -3.295899e-03  0 
 -2.502940e-03  -3.260940e-03  0 
 -1.361512e-03  -4.372198e-03  0 
 -1.423611e-03  -5.496381e-03  0 
 -4.192338e-03  -3.716339e-03  0 
 -3.102145e-03  -3.128609e-03  0 
 -4.886619e-03  -3.181852e-03  0 
 -3.253556e-03  -3.801188e-03  0 
 -3.573893e-03  -3.439614e-03  0 
 -4.147532e-03  -3.115833e-03  0 
 -4.604806e-03  -3.560330e-03  0 
 -2.477442e-03  -3.371999e-03  0 
 -4.612595e-03  -5.319378e-03  0 
 -2.916544e-03  -4.252450e-03  0 
 -5.096627e-03  -6.916221e-03  0 
 -2.207614e-03  -6.116943e-03  0 
 -2.179039e-03  -4.952941e-03  0 
 -3.203571e-03  -5.521972e-03  0 
 -4.063386e-03  -4.256965e-03  0 
 -4.165361e-03  -6.546371e-03  0 
 -5.078762e-03  -6.177642e-03  0 
 -2.053173e-03  -4.034732e-03  0 
 -5.132330e-03  -4.341651e-03  0 
VECTORS displacement_ITER22 FLOAT
 -5.912776e-03  -4.124861e-03  0 
 -2.013748e-03  -4.013277e-03  0 
 -3.874412e-03  -6.070122e-03  0 
 -4.650563e-03  -4.893233e-03  0 
 -5.914856e-03  -5.050765e-03  0 
 -5.916912e-03  -5.977790e-03  0 
 -5.924399e-03  -6.915649e-03  0 
 -4.990697e-03  -4.124137e-03  0 
 -4.059346e-03  -4.111998e-03  0 
 -3.095434e-03  -4.076290e-03  0 
 -2.113906e-03  -5.027658e-03  0 
 -2.175606e-03  -5.993464e-03  0 
 -4.266365e-03  -4.907056e-03  0 
 -3.477362e-03  -4.178185e-03  0 
 -5.038511e-03  -4.135449e-03  0 
 -3.334275e-03  -4.767578e-03  0 
 -3.818295e-03  -4.420467e-03  0 
 -4.430477e-03  -4.121622e-03  0 
 -4.671624e-03  -4.650954e-03  0 
 -2.924025e-03  -4.321651e-03  0 
 -4.900893e-03  -5.840854e-03  0 
 -3.452277e-03  -4.930776e-03  0 
 -5.315398e-03  -7.205018e-03  0 
 -2.849105e-03  -6.525311e-03  0 
 -2.820920e-03  -5.530929e-03  0 
 -3.697719e-03  -6.016757e-03  0 
 -4.432898e-03  -4.934255e-03  0 
 -4.517842e-03  -6.887481e-03  0 
 -5.299254e-03  -6.573437e-03  0 
 -2.708738e-03  -4.742242e-03  0 
 -5.344701e-03  -5.006138e-03  0 
VECTORS displacement_ITER23 FLOAT
 -5.872529e-03  -2.975318e-03  0 
 -2.161290e-03  -2.863760e-03  0 
 -3.940542e-03  -4.458756e-03  0 
 -4.715283e-03  -3.592432e-03  0 
 -5.874423e-03  -3.854985e-03  0 
 -5.876273e-03  -4.735715e-03  0 
 -5.883380e-03  -5.626947e-03  0 
 -4.996609e-03  -2.974759e-03  0 
 -4.111595e-03  -2.962708e-03  0 
 -3.194275e-03  -2.926844e-03  0 
 -2.259531e-03  -3.831633e-03  0 
 -2.321072e-03  -4.750852e-03  0 
 -4.216652e-03  -3.383879e-03  0 
 -3.444772e-03  -2.971247e-03  0 
 -5.025234e-03  -2.925469e-03  0 
 -2.979363e-03  -3.249958e-03  0 
 -3.679762e-03  -2.879794e-03  0 
 -4.417329e-03  -2.867882e-03  0 
 -4.653196e-03  -3.288961e-03  0 
 -2.848433e-03  -3.085364e-03  0 
 -4.910978e-03  -4.605756e-03  0 
 -3.534679e-03  -3.741219e-03  0 
 -5.304916e-03  -5.901801e-03  0 
 -2.962926e-03  -5.257172e-03  0 
 -2.934479e-03  -4.312043e-03  0 
 -3.768168e-03  -4.773865e-03  0 
 -4.466753e-03  -3.744598e-03  0 
 -4.546594e-03  -5.599863e-03  0 
 -5.289422e-03  -5.301614e-03  0 
 -2.826351e-03  -3.560916e-03  0 
 -5.332760e-03  -3.812645e-03  0 
VECTORS displacement_ITER24 FLOAT
 -6.290709e-03  -4.189933e-03  0 
 -2.418386e-03  -4.077700e-03  0 
 -4.456999e-03  -5.395129e-03  0 
 -5.183561e-03  -4.721450e-03  0 
 -6.292626e-03  -5.110324e-03  0 
 -6.294549e-03  -6.031786e-03  0 
 -6.301704e-03  -6.963553e-03  0 
 -5.374081e-03  -4.189429e-03  0 
 -4.448046e-03  -4.177177e-03  0 
 -3.489826e-03  -4.141005e-03  0 
 -2.514512e-03  -5.086653e-03  0 
 -2.575308e-03  -6.046877e-03  0 
 -4.505845e-03  -4.299357e-03  0 
 -3.587657e-03  -4.157708e-03  0 
 -5.411711e-03  -4.112664e-03  0 
 -2.616850e-03  -4.063621e-03  0 
 -3.691740e-03  -3.712323e-03  0 
 -4.724748e-03  -4.041768e-03  0 
 -5.039985e-03  -4.391592e-03  0 
 -2.898339e-03  -4.146373e-03  0 
 -5.284713e-03  -5.895685e-03  0 
 -3.845220e-03  -4.990305e-03  0 
 -5.696474e-03  -7.251489e-03  0 
 -3.246904e-03  -6.576395e-03  0 
 -3.218146e-03  -5.586673e-03  0 
 -4.089768e-03  -6.070513e-03  0 
 -4.819747e-03  -4.994681e-03  0 
 -4.903616e-03  -6.936616e-03  0 
 -5.680632e-03  -6.623873e-03  0 
 -3.106749e-03  -4.801591e-03  0 
 -5.725868e-03  -5.066053e-03  0 
VECTORS displacement_ITER25 FLOAT
 -6.221870e-03  -4.318585e-03  0 
 -3.078638e-03  -4.204927e-03  0 
 -4.143354e-03  -5.672927e-03  0 
 -5.046733e-03  -4.996571e-03  0 
 -6.223869e-03  -5.056887e-03  0 
 -6.225867e-03  -5.796300e-03  0 
 -6.232949e-03  -6.545819e-03  0 
 -5.487318e-03  -4.317973e-03  0 
 -4.743359e-03  -4.305583e-03  0 
 -3.967135e-03  -4.268937e-03  0 
 -3.174249e-03  -5.032444e-03  0 
 -3.234746e-03  -5.811657e-03  0 
 -4.386978e-03  -4.469411e-03  0 
 -3.825319e-03  -4.272213e-03  0 
 -5.404648e-03  -4.307318e-03  0 
 -2.453793e-03  -3.736106e-03  0 
 -3.659080e-03  -3.625127e-03  0 
 -4.829043e-03  -4.217341e-03  0 
 -4.951195e-03  -4.598208e-03  0 
 -3.188203e-03  -4.107709e-03  0 
 -5.414462e-03  -5.687350e-03  0 
 -4.257586e-03  -4.962141e-03  0 
 -5.746430e-03  -6.776904e-03  0 
 -3.779935e-03  -6.240367e-03  0 
 -3.751439e-03  -5.444132e-03  0 
 -4.454646e-03  -5.832924e-03  0 
 -5.042688e-03  -4.964800e-03  0 
 -5.106044e-03  -6.522135e-03  0 
 -5.732742e-03  -6.271443e-03  0 
 -3.655408e-03  -4.807372e-03  0 
 -5.769133e-03  -5.021054e-03  0 
VECTORS displacement_ITER26 FLOAT
 -6.687624e-03  -4.027144e-03  0 
 -2.855548e-03  -3.915211e-03  0 
 -4.161049e-03  -5.502891e-03  0 
 -5.286426e-03  -4.761366e-03  0 
 -6.690028e-03  -4.938523e-03  0 
 -6.692463e-03  -5.851207e-03  0 
 -6.699712e-03  -6.773948e-03  0 
 -5.779988e-03  -4.026136e-03  0 
 -4.863054e-03  -4.013904e-03  0 
 -3.914631e-03  -3.977932e-03  0 
 -2.950321e-03  -4.913095e-03  0 
 -3.009960e-03  -5.864012e-03  0 
 -4.483451e-03  -4.074848e-03  0 
 -3.798775e-03  -3.899873e-03  0 
 -5.690964e-03  -3.957650e-03  0 
 -2.306673e-03  -3.319007e-03  0 
 -3.627461e-03  -3.118419e-03  0 
 -4.986443e-03  -3.821332e-03  0 
 -5.144504e-03  -4.245164e-03  0 
 -3.080342e-03  -3.766026e-03  0 
 -5.692088e-03  -5.715772e-03  0 
 -4.266652e-03  -4.818507e-03  0 
 -6.100436e-03  -7.059368e-03  0 
 -3.675506e-03  -6.387896e-03  0 
 -3.646603e-03  -5.408255e-03  0 
 -4.509037e-03  -5.887869e-03  0 
 -5.231275e-03  -4.823285e-03  0 
 -5.314789e-03  -6.747571e-03  0 
 -6.084638e-03  -6.437565e-03  0 
 -3.536082e-03  -4.631199e-03  0 
 -6.128695e-03  -4.894328e-03  0 
VECTORS displacement_ITER27 FLOAT
 -6.620894e-03  -3.678281e-03  0 
 -2.550142e-03  -3.568004e-03  0 
 -3.803827e-03  -5.187792e-03  0 
 -5.093602e-03  -4.440487e-03  0 