# vtk DataFile Version 3.1
this is an vtk file created by FEMAC
ASCII
DATASET UNSTRUCTURED_GRID
POINTS 31 FLOAT
4.000000 5.000000 0.000000
5.000000 5.000000 0.000000
3.500000 5.000000 0.000000
3.750000 5.000000 0.000000
4.000000 4.500000 0.000000
4.000000 4.750000 0.000000
4.000000 5.250000 0.000000
4.000000 5.500000 0.000000
4.250000 5.000000 0.000000
4.500000 5.000000 0.000000
4.750000 5.000000 0.000000
3.779581 4.617843 0.000000
3.755447 4.375936 0.000000
3.782363 4.813195 0.000000
3.612492 4.786998 0.000000
3.512466 4.547863 0.000000
3.371004 4.799680 0.000000
3.745000 5.195000 0.000000
3.830433 5.378219 0.000000
3.757141 5.565925 0.000000
3.586659 5.323754 0.000000
4.178356 4.674167 0.000000
4.225000 4.500000 0.000000
4.341416 4.828194 0.000000
4.581646 4.808128 0.000000
4.401594 4.630720 0.000000
4.661856 4.507893 0.000000
4.832250 4.761003 0.000000
4.153954 4.850472 0.000000
4.195000 5.255000 0.000000
4.384000 5.201000 0.000000
CELLS 43 172 
3 5 11  4
3 3 13  0
3 13  5  0
3 13 11  5
3 14  3  2
3 13  3 14
3 11 12  4
3 11 15 12
3 11 13 14
3 11 14 15
3 16 15 14
3 14  2 16
3 17  2  3
3 18  6  7
3 18 20 17
3 18 17  6
3 20  2 17
3 0 17  3
3 0  6 17
3 18  7 19
3 18 19 20
3 4 21  5
3 22 21  4
3 25 21 22
3 8 23  9
3 24 10  9
3 25 23 21
3 10 27  1
3 5 28  0
3 28  8  0
3 28  5 21
3 24 27 10
3 28 23  8
3 21 23 28
3 9 23 24
3 24 23 25
3 25 26 24
3 24 26 27
3 29  7  6
3 30  8  9
3 30 29  8
3 0 29  6
3 0  8 29
CELL_TYPES 43
5 5 5 5 5 5 5 5 5 5 5 5 5 5 5 5 5 5 5 5 5 5 5 5 5 5 5 5 5 5 5 5 5 5 5 5 5 5 5 5 5 5 5 
POINT_DATA 31
VECTORS displacement_ITER1 FLOAT
 1.245313e-01  -2.512550e-01  0 
 1.246689e-01  -3.063572e-01  0 
 1.244444e-01  -2.343570e-01  0 
 1.244805e-01  -2.428051e-01  0 
 9.714624e-02  -2.512514e-01  0 
 1.108551e-01  -2.512516e-01  0 
 1.328978e-01  -2.512332e-01  0 
 1.412851e-01  -2.512231e-01  0 
 1.245847e-01  -2.649919e-01  0 
 1.246238e-01  -2.787505e-01  0 
 1.246510e-01  -2.925358e-01  0 
 1.019879e-01  -2.343973e-01  0 
 9.257074e-02  -2.254356e-01  0 
 1.125428e-01  -2.401992e-01  0 
 1.070102e-01  -2.292952e-01  0 
 8.945854e-02  -2.069226e-01  0 
 9.452249e-02  -2.046545e-01  0 
 1.310558e-01  -2.426723e-01  0 
 1.372016e-01  -2.455337e-01  0 
 1.434897e-01  -2.430731e-01  0 
 1.353781e-01  -2.373487e-01  0 
 1.066933e-01  -2.610347e-01  0 
 9.713568e-02  -2.636045e-01  0 
 1.151525e-01  -2.699990e-01  0 
 1.140614e-01  -2.832339e-01  0 
 1.043007e-01  -2.733096e-01  0 
 9.753524e-02  -2.876615e-01  0 
 1.114672e-01  -2.970588e-01  0 
 1.163616e-01  -2.596923e-01  0 
 1.342024e-01  -2.614551e-01  0 
 1.328994e-01  -2.725336e-01  0 
VECTORS displacement_ITER2 FLOAT
 6.862521e-02  -1.050944e-01  0 
 6.885382e-02  -1.423207e-01  0 
 6.850941e-02  -8.953416e-02  0 
 6.855892e-02  -9.731187e-02  0 
 5.029123e-02  -1.050709e-01  0 
 5.947818e-02  -1.050696e-01  0 
 7.632547e-02  -1.051010e-01  0 
 8.408518e-02  -1.051183e-01  0 
 6.871413e-02  -1.143174e-01  0 
 6.878222e-02  -1.235921e-01  0 
 6.882789e-02  -1.329213e-01  0 
 5.554230e-02  -9.730366e-02  0 
 6.541952e-02  -1.014181e-01  0 
 6.052469e-02  -9.870516e-02  0 
 5.803296e-02  -9.461495e-02  0 
 5.718151e-02  -9.781566e-02  0 
 5.692453e-02  -9.122173e-02  0 
 7.461198e-02  -9.719911e-02  0 
 8.029789e-02  -9.984797e-02  0 
 8.612849e-02  -9.757130e-02  0 
 7.860414e-02  -9.227082e-02  0 
 5.668409e-02  -1.116298e-01  0 
 5.026585e-02  -1.133666e-01  0 
 6.237475e-02  -1.176661e-01  0 
 6.164805e-02  -1.266074e-01  0 
 5.506390e-02  -1.198969e-01  0 
 5.047704e-02  -1.296177e-01  0 
 5.988802e-02  -1.359767e-01  0 
 6.317461e-02  -1.107324e-01  0 
 7.826408e-02  -1.131615e-01  0 
 7.806090e-02  -1.218932e-01  0 
VECTORS displacement_ITER3 FLOAT
 3.499557e-02  -4.436567e-02  0 
 3.531085e-02  -6.449547e-02  0 
 3.484888e-02  -3.570268e-02  0 
 3.491439e-02  -4.002739e-02  0 
 2.531422e-02  -4.433328e-02  0 
 3.018277e-02  -4.432619e-02  0 
 3.926211e-02  -4.441239e-02  0 
 4.361450e-02  -4.445156e-02  0 
 3.510741e-02  -4.925648e-02  0 
 3.519865e-02  -5.422458e-02  0 
 3.527018e-02  -5.930167e-02  0 
 2.790408e-02  -4.234626e-02  0 
 3.181299e-02  -4.495196e-02  0 
 3.103380e-02  -4.179233e-02  0 
 3.069170e-02  -4.090558e-02  0 
 2.875729e-02  -4.524658e-02  0 
 3.324894e-02  -4.382955e-02  0 
 3.827750e-02  -3.999383e-02  0 
 4.147751e-02  -4.149546e-02  0 
 4.476394e-02  -4.023568e-02  0 
 4.050385e-02  -3.722619e-02  0 
 2.869547e-02  -4.780390e-02  0 
 2.528690e-02  -4.874272e-02  0 
 3.173107e-02  -5.102103e-02  0 
 3.134751e-02  -5.584203e-02  0 
 2.781392e-02  -5.222252e-02  0 
 2.531115e-02  -5.749784e-02  0 
 3.038483e-02  -6.095502e-02  0 
 3.214400e-02  -4.732511e-02  0 
 4.295502e-02  -4.610229e-02  0 
 4.384929e-02  -5.209626e-02  0 
VECTORS displacement_ITER4 FLOAT
 1.083128e-02  -1.648683e-02  0 
 1.108316e-02  -2.563232e-02  0 
 1.065547e-02  -1.404847e-02  0 
 1.073594e-02  -1.526996e-02  0 
 6.531901e-03  -1.639785e-02  0 
 8.733087e-03  -1.643231e-02  0 
 1.195638e-02  -1.652254e-02  0 
 1.316038e-02  -1.654942e-02  0 
 1.094187e-02  -1.866247e-02  0 
 1.101632e-02  -2.091203e-02  0 
 1.106038e-02  -2.322115e-02  0 
 7.279262e-03  -1.537647e-02  0 
 3.618626e-03  -1.380642e-02  0 
 9.288940e-03  -1.543257e-02  0 
 9.201329e-03  -1.482676e-02  0 
 5.490520e-03  -1.335196e-02  0 
 9.726829e-03  -1.485512e-02  0 
 1.166999e-02  -1.531526e-02  0 
 1.255967e-02  -1.573655e-02  0 
 1.345239e-02  -1.541979e-02  0 
 1.227414e-02  -1.455258e-02  0 
 8.070744e-03  -1.798698e-02  0 
 6.531324e-03  -1.840325e-02  0 
 9.434459e-03  -1.944250e-02  0 
 9.270815e-03  -2.163722e-02  0 
 7.676976e-03  -1.998595e-02  0 
 6.539777e-03  -2.239790e-02  0 
 8.830226e-03  -2.397900e-02  0 
 9.606880e-03  -1.777325e-02  0 
 1.496610e-02  -1.606913e-02  0 
 1.611694e-02  -1.939972e-02  0 
VECTORS displacement_ITER5 FLOAT
 3.986253e-03  -9.032993e-03  0 
 4.243298e-03  -1.230365e-02  0 
 3.800540e-03  -5.287426e-03  0 
 3.889769e-03  -7.169923e-03  0 
 2.592553e-03  -8.895364e-03  0 
 3.346251e-03  -8.943451e-03  0 
 5.782954e-03  -9.097773e-03  0 
 7.666068e-03  -9.152300e-03  0 
 4.099346e-03  -9.720239e-03  0 
 4.174381e-03  -1.050607e-02  0 
 4.223613e-03  -1.136007e-02  0 
 2.369944e-03  -8.137354e-03  0 
 9.291943e-04  -7.914754e-03  0 
 3.309012e-03  -7.769159e-03  0 
 3.290859e-03  -6.718125e-03  0 
 1.328957e-03  -6.566250e-03  0 
 3.847094e-03  -4.477334e-03  0 
 5.339888e-03  -7.208531e-03  0 
 6.728437e-03  -7.866356e-03  0 
 8.147225e-03  -7.343385e-03  0 
 6.296001e-03  -6.018335e-03  0 
 3.128035e-03  -9.457717e-03  0 
 2.595728e-03  -9.595538e-03  0 
 3.598435e-03  -9.964915e-03  0 
 3.551759e-03  -1.075483e-02  0 
 2.990211e-03  -1.015349e-02  0 
 2.571770e-03  -1.104417e-02  0 
 3.388994e-03  -1.163493e-02  0 
 3.641793e-03  -9.394846e-03  0 
 8.316926e-03  -6.639058e-03  0 
 8.769433e-03  -8.474409e-03  0 
VECTORS displacement_ITER6 FLOAT
 3.387132e-03  -6.183908e-03  0 
 3.682106e-03  -7.593583e-03  0 
 3.171921e-03  -5.026115e-03  0 
 3.275563e-03  -5.619646e-03  0 
 2.921477e-03  -5.987929e-03  0 
 3.230082e-03  -6.058191e-03  0 
 3.881220e-03  -6.270670e-03  0 
 4.495012e-03  -6.363861e-03  0 
 3.521577e-03  -6.383871e-03  0 
 3.607238e-03  -6.708454e-03  0 
 3.658997e-03  -7.105941e-03  0 
 3.005103e-03  -5.367675e-03  0 
 2.357643e-03  -5.064852e-03  0 
 3.270168e-03  -5.476843e-03  0 
 3.249157e-03  -4.899022e-03  0 
 2.607143e-03  -3.940779e-03  0 
 3.137177e-03  -3.830189e-03  0 
 3.715356e-03  -5.698261e-03  0 
 4.162040e-03  -5.920485e-03  0 
 4.618366e-03  -5.778703e-03  0 
 4.004907e-03  -5.327873e-03  0 
 3.154015e-03  -6.241350e-03  0 
 2.931333e-03  -6.285035e-03  0 
 3.345046e-03  -6.454369e-03  0 
 3.338768e-03  -6.806357e-03  0 
 3.100209e-03  -6.531032e-03  0 
 2.918019e-03  -6.939901e-03  0 
 3.269116e-03  -7.224751e-03  0 
 3.342971e-03  -6.230110e-03  0 
 6.674312e-03  -3.163276e-03  0 
 7.504746e-03  -4.885550e-03  0 
VECTORS displacement_ITER7 FLOAT
 2.730224e-03  -5.580359e-03  0 
 2.994247e-03  -5.930777e-03  0 
 2.515334e-03  -4.424610e-03  0 
 2.620147e-03  -5.019801e-03  0 
 2.763987e-03  -5.377542e-03  0 
 2.823507e-03  -5.454628e-03  0 
 3.222559e-03  -5.659855e-03  0 
 3.807764e-03  -5.730475e-03  0 
 2.857838e-03  -5.523374e-03  0 
 2.934732e-03  -5.585836e-03  0 
 2.979917e-03  -5.715417e-03  0 
 2.467680e-03  -5.264622e-03  0 
 1.765099e-03  -5.401802e-03  0 
 2.679521e-03  -5.109867e-03  0 
 2.664402e-03  -4.562245e-03  0 
 1.868497e-03  -3.827850e-03  0 
 2.541413e-03  -3.155544e-03  0 
 3.061809e-03  -5.099122e-03  0 
 3.499350e-03  -5.314406e-03  0 
 3.952354e-03  -5.163653e-03  0 
 3.353901e-03  -4.729995e-03  0 
 2.825727e-03  -5.457911e-03  0 
 2.774692e-03  -5.453871e-03  0 
 2.857663e-03  -5.503531e-03  0 
 2.869444e-03  -5.600595e-03  0 
 2.818676e-03  -5.519323e-03  0 
 2.761960e-03  -5.650415e-03  0 
 2.848784e-03  -5.750479e-03  0 
 2.834770e-03  -5.471567e-03  0 
 5.531823e-03  -2.739813e-03  0 
 6.195025e-03  -2.452682e-03  0 
VECTORS displacement_ITER8 FLOAT
 2.491368e-03  -4.933398e-03  0 
 2.741575e-03  -5.981158e-03  0 
 2.288113e-03  -3.818843e-03  0 
 2.387011e-03  -4.389202e-03  0 
 2.167958e-03  -4.726252e-03  0 
 2.404955e-03  -4.806286e-03  0 
 2.975608e-03  -5.020241e-03  0 
 3.563471e-03  -5.103516e-03  0 
 2.618526e-03  -5.054455e-03  0 
 2.694023e-03  -5.297329e-03  0 
 2.734928e-03  -5.607038e-03  0 
 2.118907e-03  -4.261880e-03  0 
 1.826163e-03  -4.001780e-03  0 
 2.282156e-03  -4.391297e-03  0 
 2.157846e-03  -3.997736e-03  0 
 1.787348e-03  -3.552407e-03  0 
 2.015371e-03  -3.413449e-03  0 
 2.813018e-03  -4.462681e-03  0 
 3.249657e-03  -4.678988e-03  0 
 3.714185e-03  -4.520765e-03  0 
 3.102666e-03  -4.092672e-03  0 
 2.353334e-03  -4.937514e-03  0 
 2.178121e-03  -4.967776e-03  0 
 2.494794e-03  -5.101161e-03  0 
 2.490135e-03  -5.373987e-03  0 
 2.312805e-03  -5.161886e-03  0 
 2.165209e-03  -5.483434e-03  0 
 2.432429e-03  -5.711019e-03  0 
 2.488514e-03  -4.934213e-03  0 
 5.410106e-03  -2.314056e-03  0 
 6.411424e-03  -2.068847e-03  0 
VECTORS displacement_ITER9 FLOAT
 2.514914e-03  -4.807780e-03  0 
 2.759989e-03  -5.824712e-03  0 
 2.311169e-03  -3.759064e-03  0 
 2.411384e-03  -4.294187e-03  0 
 2.203951e-03  -4.594600e-03  0 
 2.435680e-03  -4.679796e-03  0 
 2.968974e-03  -4.893667e-03  0 
 3.534117e-03  -4.977378e-03  0 
 2.640863e-03  -4.920885e-03  0 
 2.713462e-03  -5.153528e-03  0 
 2.752416e-03  -5.453213e-03  0 
 2.139271e-03  -4.203862e-03  0 
 1.822266e-03  -4.066151e-03  0 
 2.305380e-03  -4.301035e-03  0 
 2.179385e-03  -3.896822e-03  0 
 1.808266e-03  -3.423937e-03  0 
 1.991321e-03  -3.222061e-03  0 
 2.814078e-03  -4.367545e-03  0 
 3.230477e-03  -4.569218e-03  0 
 3.678117e-03  -4.412402e-03  0 
 3.091534e-03  -4.014880e-03  0 
 2.387297e-03  -4.805997e-03  0 
 2.213258e-03  -4.834048e-03  0 
 2.522895e-03  -4.966066e-03  0 
 2.515969e-03  -5.228843e-03  0 
 2.349176e-03  -5.027770e-03  0 
 2.208066e-03  -5.336901e-03  0 
 2.458272e-03  -5.552152e-03  0 
 2.516342e-03  -4.804087e-03  0 
 5.501950e-03  -2.227489e-03  0 
 6.552366e-03  -2.020694e-03  0 
VECTORS displacement_ITER10 FLOAT
 2.508203e-03  -4.690343e-03  0 
 2.763381e-03  -5.734447e-03  0 
 2.299301e-03  -3.674159e-03  0 
 2.402118e-03  -4.191967e-03  0 
 2.195965e-03  -4.468073e-03  0 
 2.430452e-03  -4.558479e-03  0 
 2.944361e-03  -4.778261e-03  0 
 3.497803e-03  -4.868843e-03  0 
 2.638032e-03  -4.804069e-03  0 
 2.711996e-03  -5.039662e-03  0 
 2.750344e-03  -5.342941e-03  0 
 2.136250e-03  -4.035619e-03  0 
 1.837399e-03  -3.764694e-03  0 
 2.293810e-03  -4.181153e-03  0 
 2.154913e-03  -3.808649e-03  0 
 1.800225e-03  -3.370862e-03  0 
 1.978842e-03  -3.212301e-03  0 
 2.792201e-03  -4.267237e-03  0 
 3.198741e-03  -4.462946e-03  0 
 3.646188e-03  -4.299429e-03  0 
 3.065938e-03  -3.918165e-03  0 
 2.382361e-03  -4.685694e-03  0 
 2.210514e-03  -4.710587e-03  0 
 2.519421e-03  -4.849511e-03  0 
 2.511637e-03  -5.117185e-03  0 
 2.342474e-03  -4.914222e-03  0 
 2.209022e-03  -5.226180e-03  0 
 2.456100e-03  -5.432651e-03  0 
 2.512067e-03  -4.684688e-03  0 
 5.485292e-03  -2.050252e-03  0 
 6.429227e-03  -1.893261e-03  0 
VECTORS displacement_ITER11 FLOAT
 2.495449e-03  -4.679939e-03  0 
 2.746695e-03  -5.685660e-03  0 
 2.285113e-03  -3.653221e-03  0 
 2.388899e-03  -4.176079e-03  0 
 2.196797e-03  -4.458650e-03  0 
 2.424126e-03  -4.548062e-03  0 
 2.936743e-03  -4.767260e-03  0 
 3.493555e-03  -4.854504e-03  0 
 2.625226e-03  -4.787350e-03  0 
 2.698582e-03  -5.016043e-03  0 
 2.735250e-03  -5.308904e-03  0 
 2.141066e-03  -4.031939e-03  0 
 1.892869e-03  -3.803262e-03  0 
 2.285527e-03  -4.170407e-03  0 
 2.148552e-03  -3.798379e-03  0 
 1.839126e-03  -3.398726e-03  0 
 1.978547e-03  -3.210740e-03  0 
 2.783614e-03  -4.251703e-03  0 
 3.194035e-03  -4.448350e-03  0 
 3.640396e-03  -4.286664e-03  0 
 3.061006e-03  -3.898651e-03  0 
 2.378003e-03  -4.670197e-03  0 
 2.212871e-03  -4.691922e-03  0 
 2.511555e-03  -4.830399e-03  0 
 2.505164e-03  -5.091473e-03  0 
 2.339824e-03  -4.892662e-03  0 
 2.207822e-03  -5.203539e-03  0 
 2.450391e-03  -5.397393e-03  0 
 2.503260e-03  -4.670306e-03  0 
 5.484296e-03  -2.046634e-03  0 
 6.382644e-03  -1.847742e-03  0 
VECTORS displacement_ITER12 FLOAT
 2.497102e-03  -4.676281e-03  0 
 2.749451e-03  -5.686516e-03  0 
 2.286697e-03  -3.651743e-03  0 
 2.390497e-03  -4.173533e-03  0 
 2.199452e-03  -4.455910e-03  0 
 2.425915e-03  -4.544635e-03  0 
 2.937250e-03  -4.763689e-03  0 
 3.493100e-03  -4.851125e-03  0 
 2.627082e-03  -4.783626e-03  0 
 2.701160e-03  -5.013032e-03  0 
 2.738291e-03  -5.307423e-03  0 
 2.141823e-03  -4.022919e-03  0 
 1.875425e-03  -3.767574e-03  0 
 2.287853e-03  -4.166181e-03  0 
 2.150990e-03  -3.797727e-03  0 
 1.825335e-03  -3.379489e-03  0 
 1.981161e-03  -3.234717e-03  0 
 2.784322e-03  -4.249216e-03  0 
 3.193962e-03  -4.445563e-03  0 
 3.639483e-03  -4.284331e-03  0 
 3.061061e-03  -3.896928e-03  0 
 2.379723e-03  -4.666604e-03  0 
 2.214675e-03  -4.689350e-03  0 
 2.513222e-03  -4.826386e-03  0 
 2.507116e-03  -5.088461e-03  0 
 2.341100e-03  -4.888189e-03  0 
 2.208736e-03  -5.200286e-03  0 
 2.452221e-03  -5.396498e-03  0 
 2.504940e-03  -4.666562e-03  0 
 5.484464e-03  -2.036800e-03  0 
 6.386108e-03  -1.846595e-03  0 
VECTORS displacement_ITER13 FLOAT
 2.497117e-03  -4.676649e-03  0 
 2.749475e-03  -5.687399e-03  0 
 2.286685e-03  -3.652131e-03  0 
 2.390494e-03  -4.173922e-03  0 
 2.199075e-03  -4.456081e-03  0 
 2.425846e-03  -4.544959e-03  0 
 2.937224e-03  -4.764070e-03  0 
 3.493065e-03  -4.851540e-03  0 
 2.627106e-03  -4.784087e-03  0 
 2.701167e-03  -5.013600e-03  0 
 2.738291e-03  -5.308082e-03  0 
 2.143975e-03  -4.023011e-03  0 
 1.877896e-03  -3.772420e-03  0 
 2.288686e-03  -4.165968e-03  0 
 2.152494e-03  -3.797415e-03  0 
 1.832423e-03  -3.378696e-03  0 
 1.982575e-03  -3.241511e-03  0 
 2.784297e-03  -4.249622e-03  0 
 3.193913e-03  -4.445977e-03  0 
 3.639503e-03  -4.284705e-03  0 
 3.060984e-03  -3.897392e-03  0 
 2.379619e-03  -4.667074e-03  0 
 2.214565e-03  -4.689737e-03  0 
 2.513167e-03  -4.826904e-03  0 
 2.507037e-03  -5.089073e-03  0 
 2.340994e-03  -4.888733e-03  0 
 2.208588e-03  -5.201042e-03  0 
 2.452068e-03  -5.397186e-03  0 
 2.504913e-03  -4.666987e-03  0 
 5.484550e-03  -2.037300e-03  0 
 6.386168e-03  -1.847047e-03  0 
VECTORS displacement_ITER14 FLOAT
 2.497114e-03  -4.676542e-03  0 
 2.749470e-03  -5.687279e-03  0 
 2.286686e-03  -3.652064e-03  0 
 2.390492e-03  -4.173835e-03  0 
 2.199082e-03  -4.456013e-03  0 
 2.425838e-03  -4.544858e-03  0 
 2.937202e-03  -4.763961e-03  0 
 3.493020e-03  -4.851427e-03  0 
 2.627101e-03  -4.783983e-03  0 
 2.701160e-03  -5.013493e-03  0 
 2.738285e-03  -5.307964e-03  0 
 2.143947e-03  -4.023132e-03  0 
 1.876931e-03  -3.772644e-03  0 
 2.288707e-03  -4.165937e-03  0 
 2.152578e-03  -3.797378e-03  0 
 1.832381e-03  -3.378590e-03  0 
 1.982708e-03  -3.241527e-03  0 
 2.784280e-03  -4.249533e-03  0 
 3.193880e-03  -4.445881e-03  0 
 3.639446e-03  -4.284620e-03  0 
 3.060958e-03  -3.897317e-03  0 
 2.379609e-03  -4.666964e-03  0 
 2.214587e-03  -4.689592e-03  0 
 2.513163e-03  -4.826800e-03  0 
 2.507038e-03  -5.088960e-03  0 
 2.341000e-03  -4.888619e-03  0 
 2.208614e-03  -5.200921e-03  0 
 2.452074e-03  -5.397059e-03  0 
 2.504906e-03  -4.666882e-03  0 
 5.484530e-03  -2.037187e-03  0 
 6.386152e-03  -1.846934e-03  0 
CELL_DATA 43
TENSORS element_stresses FLOAT
 6.906022e-04  -9.591366e-04  0 
 -9.591366e-04  -1.482004e-04  0 
 0  0  0 

 3.398809e-04  -1.070819e-03  0 
 -1.070819e-03  -2.886838e-04  0 
 0  0  0 

 6.097319e-04  -1.237628e-03  0 
 -1.237628e-03  -3.438155e-04  0 
 0  0  0 

 6.931717e-04  -9.355823e-04  0 
 -9.355823e-04  -4.953647e-04  0 
 0  0  0 

 3.178219e-04  -9.524526e-04  0 
 -9.524526e-04  -3.246804e-04  0 
 0  0  0 

 6.335008e-04  -1.108397e-03  0 
 -1.108397e-03  -2.172303e-04  0 
 0  0  0 

 6.138534e-04  -1.050622e-03  0 
 -1.050622e-03  -6.128678e-04  0 
 0  0  0 

 7.208307e-04  -9.117235e-04  0 
 -9.117235e-04  -5.998150e-04  0 
 0  0  0 

 5.253852e-04  -1.023243e-03  0 
 -1.023243e-03  -5.440469e-04  0 
 0  0  0 

 7.318846e-04  -9.529451e-04  0 
 -9.529451e-04  -6.137019e-04  0 
 0  0  0 

 5.776525e-04  -1.015385e-03  0 
 -1.015385e-03  -5.982209e-04  0 
 0  0  0 

 6.515586e-04  -1.000708e-03  0 
 -1.000708e-03  -3.531583e-04  0 
 0  0  0 

 3.106737e-01  -4.385556e-02  0 
 -4.385556e-02  -3.485077e-01  0 
 0  0  0 

 6.862635e-02  6.375307e-02  0 
 6.375307e-02  -3.292785e-01  0 
 0  0  0 

 4.793910e-02  -2.536789e-02  0 
 -2.536789e-02  -1.057931e-02  0 
 0  0  0 

 9.556214e-02  1.451563e-01  0 
 1.451563e-01  -1.169535e-01  0 
 0  0  0 

 1.341830e-01  1.191179e-02  0 
 1.191179e-02  -9.288293e-02  0 
 0  0  0 

 3.236920e-01  1.502856e-02  0 
 1.502856e-02  -3.426468e-01  0 
 0  0  0 

 1.264893e-01  -1.396837e-01  0 
 -1.396837e-01  -3.117283e-01  0 
 0  0  0 

 3.168473e-02  3.238592e-02  0 
 3.238592e-02  -4.886920e-02  0 
 0  0  0 

 9.150806e-03  1.021704e-01  0 
 1.021704e-01  -1.523247e-02  0 
 0  0  0 

 2.180044e-02  5.485134e-02  0 
 5.485134e-02  -3.488410e-01  0 
 0  0  0 

 2.690170e-02  -5.552146e-02  0 
 -5.552146e-02  -1.400306e-01  0 
 0  0  0 

 -3.402131e-02  -5.392066e-02  0 
 -5.392066e-02  -1.536742e-01  0 
 0  0  0 

 2.466587e-01  -7.479653e-02  0 
 -7.479653e-02  -1.652642e-01  0 
 0  0  0 

 1.276174e-01  -7.920284e-02  0 
 -7.920284e-02  -6.960999e-02  0 
 0  0  0 

 -1.592549e-04  -9.229215e-02  0 
 -9.229215e-02  1.107811e-02  0 
 0  0  0 

 -7.737662e-05  -2.340827e-01  0 
 -2.340827e-01  -1.493946e-01  0 
 0  0  0 

 1.862635e-01  -1.259582e-01  0 
 -1.259582e-01  -4.708560e-01  0 
 0  0  0 

 4.041993e-01  4.112242e-02  0 
 4.112242e-02  -3.858305e-01  0 
 0  0  0 

 1.714513e-02  -7.857869e-03  0 
 -7.857869e-03  -9.504366e-02  0 
 0  0  0 

 -1.084289e-02  -3.063557e-02  0 
 -3.063557e-02  -5.704705e-02  0 
 0  0  0 

 7.208343e-02  -1.123678e-01  0 
 -1.123678e-01  -1.968856e-01  0 
 0  0  0 

 1.041520e-01  -1.065522e-01  0 
 -1.065522e-01  -8.832781e-02  0 
 0  0  0 

 4.295503e-02  -4.590509e-02  0 
 -4.590509e-02  -6.077951e-02  0 
 0  0  0 

 4.676578e-02  -1.587208e-01  0 
 -1.587208e-01  -5.994462e-03  0 
 0  0  0 

 -3.002050e-02  -1.460178e-01  0 
 -1.460178e-01  5.087454e-02  0 
 0  0  0 

 -2.207739e-02  -1.813649e-01  0 
 -1.813649e-01  4.018542e-02  0 
 0  0  0 

 1.417721e-02  1.247361e-02  0 
 1.247361e-02  3.903295e-03  0 
 0  0  0 

 5.344507e-03  1.352786e-02  0 
 1.352786e-02  1.682756e-02  0 
 0  0  0 

 1.319647e-02  1.337730e-02  0 
 1.337730e-02  1.566946e-02  0 
 0  0  0 

 1.419031e-02  1.211752e-02  0 
 1.211752e-02  3.907419e-03  0 
 0  0  0 

 4.091939e-03  8.375374e-03  0 
 8.375374e-03  1.190664e-02  0 
 0  0  0 

TENSORS element_stresses FLOAT
 6.906022e-04  -9.591366e-04  0 
 -9.591366e-04  -1.482004e-04  0 
 0  0  0 

 3.398809e-04  -1.070819e-03  0 
 -1.070819e-03  -2.886838e-04  0 
 0  0  0 

 6.097319e-04  -1.237628e-03  0 
 -1.237628e-03  -3.438155e-04  0 
 0  0  0 

 6.931717e-04  -9.355823e-04  0 
 -9.355823e-04  -4.953647e-04  0 
 0  0  0 

 3.178219e-04  -9.524526e-04  0 
 -9.524526e-04  -3.246804e-04  0 
 0  0  0 

 6.335008e-04  -1.108397e-03  0 
 -1.108397e-03  -2.172303e-04  0 
 0  0  0 

 6.138534e-04  -1.050622e-03  0 
 -1.050622e-03  -6.128678e-04  0 
 0  0  0 

 7.208307e-04  -9.117235e-04  0 
 -9.117235e-04  -5.998150e-04  0 
 0  0  0 

 5.253852e-04  -1.023243e-03  0 
 -1.023243e-03  -5.440469e-04  0 
 0  0  0 

 7.318846e-04  -9.529451e-04  0 
 -9.529451e-04  -6.137019e-04  0 
 0  0  0 

 5.776525e-04  -1.015385e-03  0 
 -1.015385e-03  -5.982209e-04  0 
 0  0  0 

 6.515586e-04  -1.000708e-03  0 
 -1.000708e-03  -3.531583e-04  0 
 0  0  0 

 3.106737e-01  -4.385556e-02  0 
 -4.385556e-02  -3.485077e-01  0 
 0  0  0 

 6.862635e-02  6.375307e-02  0 
 6.375307e-02  -3.292785e-01  0 
 0  0  0 

 4.793910e-02  -2.536789e-02  0 
 -2.536789e-02  -1.057931e-02  0 
 0  0  0 

 9.556214e-02  1.451563e-01  0 
 1.451563e-01  -1.169535e-01  0 
 0  0  0 

 1.341830e-01  1.191179e-02  0 
 1.191179e-02  -9.288293e-02  0 
 0  0  0 

 3.236920e-01  1.502856e-02  0 
 1.502856e-02  -3.426468e-01  0 
 0  0  0 

 1.264893e-01  -1.396837e-01  0 
 -1.396837e-01  -3.117283e-01  0 
 0  0  0 

 3.168473e-02  3.238592e-02  0 
 3.238592e-02  -4.886920e-02  0 
 0  0  0 

 9.150806e-03  1.021704e-01  0 
 1.021704e-01  -1.523247e-02  0 
 0  0  0 

 2.180044e-02  5.485134e-02  0 
 5.485134e-02  -3.488410e-01  0 
 0  0  0 

 2.690170e-02  -5.552146e-02  0 
 -5.552146e-02  -1.400306e-01  0 
 0  0  0 

 -3.402131e-02  -5.392066e-02  0 
 -5.392066e-02  -1.536742e-01  0 
 0  0  0 

 2.466587e-01  -7.479653e-02  0 
 -7.479653e-02  -1.652642e-01  0 
 0  0  0 

 1.276174e-01  -7.920284e-02  0 
 -7.920284e-02  -6.960999e-02  0 
 0  0  0 

 -1.592549e-04  -9.229215e-02  0 
 -9.229215e-02  1.107811e-02  0 
 0  0  0 

 -7.737662e-05  -2.340827e-01  0 
 -2.340827e-01  -1.493946e-01  0 
 0  0  0 

 1.862635e-01  -1.259582e-01  0 
 -1.259582e-01  -4.708560e-01  0 
 0  0  0 

 4.041993e-01  4.112242e-02  0 
 4.112242e-02  -3.858305e-01  0 
 0  0  0 

 1.714513e-02  -7.857869e-03  0 
 -7.857869e-03  -9.504366e-02  0 
 0  0  0 

 -1.084289e-02  -3.063557e-02  0 
 -3.063557e-02  -5.704705e-02  0 
 0  0  0 

 7.208343e-02  -1.123678e-01  0 
 -1.123678e-01  -1.968856e-01  0 
 0  0  0 

 1.041520e-01  -1.065522e-01  0 
 -1.065522e-01  -8.832781e-02  0 
 0  0  0 

 4.295503e-02  -4.590509e-02  0 
 -4.590509e-02  -6.077951e-02  0 
 0  0  0 

 4.676578e-02  -1.587208e-01  0 
 -1.587208e-01  -5.994462e-03  0 
 0  0  0 

 -3.002050e-02  -1.460178e-01  0 
 -1.460178e-01  5.087454e-02  0 
 0  0  0 

 -2.207739e-02  -1.813649e-01  0 
 -1.813649e-01  4.018542e-02  0 
 0  0  0 

 1.417721e-02  1.247361e-02  0 
 1.247361e-02  3.903295e-03  0 
 0  0  0 

 5.344507e-03  1.352786e-02  0 
 1.352786e-02  1.682756e-02  0 
 0  0  0 

 1.319647e-02  1.337730e-02  0 
 1.337730e-02  1.566946e-02  0 
 0  0  0 

 1.419031e-02  1.211752e-02  0 
 1.211752e-02  3.907419e-03  0 
 0  0  0 

 4.091939e-03  8.375374e-03  0 
 8.375374e-03  1.190664e-02  0 
 0  0  0 

