# vtk DataFile Version 3.1
this is an vtk file created by FEMAC
ASCII
DATASET UNSTRUCTURED_GRID
POINTS 31 FLOAT
1.000000 2.000000 0.000000
1.000000 3.000000 0.000000
0.750000 2.000000 0.000000
1.000000 2.250000 0.000000
1.000000 2.500000 0.000000
1.000000 2.750000 0.000000
1.250000 2.000000 0.000000
1.500000 2.000000 0.000000
1.250000 3.000000 0.000000
1.500000 3.000000 0.000000
0.660302 2.785301 0.000000
0.660045 2.212404 0.000000
0.825570 2.361866 0.000000
0.825957 2.628272 0.000000
0.594871 2.497465 0.000000
0.847252 2.832715 0.000000
0.847123 2.164854 0.000000
1.255000 1.805000 0.000000
1.556014 2.528684 0.000000
1.187778 2.667801 0.000000
1.187083 2.332917 0.000000
1.225000 2.500000 0.000000
1.340769 2.803850 0.000000
1.339859 2.197089 0.000000
1.387500 2.413333 0.000000
1.391667 2.590972 0.000000
1.548715 2.715781 0.000000
1.155709 2.844330 0.000000
1.155388 2.156001 0.000000
1.171305 3.165198 0.000000
1.384851 3.278430 0.000000
CELLS 42 168 
3 4 13 12
3 14 11 12
3 12  3  4
3 5 13  4
3 14 13 10
3 12 13 14
3 15  5  1
3 2 16 11
3 15 13  5
3 10 13 15
3 12 16  3
3 12 11 16
3 17  7  6
3 6  0 17
3 4 19  5
3 20  4  3
3 21 19  4
3 20 21  4
3 20 24 21
3 25 19 21
3 23  6  7
3 8 22  9
3 25 22 19
3 23 24 20
3 25 24 18
3 21 24 25
3 9 22 26
3 25 18 26
3 26 22 25
3 5 27  1
3 27  8  1
3 27  5 19
3 28  3  0
3 6 28  0
3 3 28 20
3 27 22  8
3 19 22 27
3 23 28  6
3 23 20 28
3 1  8 29
3 30  8  9
3 29  8 30
CELL_TYPES 42
5 5 5 5 5 5 5 5 5 5 5 5 5 5 5 5 5 5 5 5 5 5 5 5 5 5 5 5 5 5 5 5 5 5 5 5 5 5 5 5 5 5 
POINT_DATA 31
VECTORS displacement_ITER1 FLOAT
 -4.051679e-02  4.659614e-06  0 
 -1.687250e-02  2.336736e-02  0 
 -3.190302e-02  2.716111e-02  0 
 -2.817058e-02  2.337447e-02  0 
 -2.442755e-02  2.337686e-02  0 
 -2.066763e-02  2.337412e-02  0 
 -4.054535e-02  -1.443141e-02  0 
 -4.056747e-02  -2.887591e-02  0 
 -1.685960e-02  6.635498e-03  0 
 -1.685703e-02  -1.008167e-02  0 
 -2.012862e-02  2.851183e-02  0 
 -2.874530e-02  2.849631e-02  0 
 -2.649806e-02  2.600378e-02  0 
 -2.249866e-02  2.600312e-02  0 
 -2.446088e-02  2.947982e-02  0 
 -1.941565e-02  2.569156e-02  0 
 -2.944976e-02  2.569587e-02  0 
 -5.180305e-02  -1.474287e-02  0 
 -3.519950e-02  -2.526649e-02  0 
 -2.302632e-02  1.105690e-02  0 
 -3.092105e-02  4.077167e-03  0 
 -2.835033e-02  5.989940e-03  0 
 -2.025385e-02  4.898682e-05  0 
 -4.112045e-02  -1.533471e-02  0 
 -3.579613e-02  -9.902016e-03  0 
 -2.755408e-02  -5.756291e-03  0 
 -2.360236e-02  -1.714346e-02  0 
 -1.938645e-02  1.313535e-02  0 
 -3.882968e-02  -2.718329e-03  0 
 -5.817572e-03  1.189376e-02  0 
 1.752573e-03  -2.384839e-03  0 
VECTORS displacement_ITER2 FLOAT
 1.119272e-03  -3.467259e-03  0 
 -2.311980e-03  -8.375807e-03  0 
 -1.067702e-02  -6.264891e-03  0 
 -8.599869e-03  -8.345877e-03  0 
 -6.546540e-03  -8.349382e-03  0 
 -4.463718e-03  -8.367891e-03  0 
 1.119045e-03  3.264728e-03  0 
 1.109555e-03  1.000836e-02  0 
 -2.268841e-03  -2.847277e-02  0 
 -2.252487e-03  -4.850819e-02  0 
 -4.155901e-03  -5.500028e-03  0 
 -8.904621e-03  -5.540503e-03  0 
 -7.679957e-03  -6.907607e-03  0 
 -5.480126e-03  -6.901134e-03  0 
 -6.556079e-03  -4.987648e-03  0 
 -3.758491e-03  -7.067075e-03  0 
 -9.288321e-03  -7.091978e-03  0 
 6.389389e-03  3.400811e-03  0 
 -1.165041e-02  -3.978191e-02  0 
 -7.515220e-03  -1.769374e-02  0 
 -1.167274e-02  -1.153425e-02  0 
 -8.669021e-03  -1.609611e-02  0 
 -5.860123e-03  -3.027737e-02  0 
 -6.482987e-03  -3.750212e-03  0 
 -1.191982e-02  -2.288696e-02  0 
 -7.521484e-03  -2.620309e-02  0 
 -3.971941e-03  -3.815161e-02  0 
 -5.186323e-03  -1.814357e-02  0 
 -5.814429e-03  -4.734352e-03  0 
 1.098371e-02  -2.217802e-02  0 
 2.006954e-02  -3.931345e-02  0 
VECTORS displacement_ITER3 FLOAT
 -1.026700e-03  -3.861592e-03  0 
 1.375800e-03  -8.188243e-04  0 
 -1.032168e-03  -9.447607e-05  0 
 -3.565714e-04  -7.784093e-04  0 
 2.590468e-04  -7.525676e-04  0 
 8.385203e-04  -7.447307e-04  0 
 -1.044367e-03  -3.516259e-03  0 
 -1.050448e-03  -3.183163e-03  0 
 1.435911e-03  -5.477774e-05  0 
 1.450681e-03  9.764218e-04  0 
 9.139699e-04  3.708982e-05  0 
 -4.574507e-04  1.078616e-04  0 
 -7.037902e-05  -3.322889e-04  0 
 5.616331e-04  -3.404611e-04  0 
 2.562034e-04  2.234174e-04  0 
 1.009763e-03  -4.078302e-04  0 
 -5.789624e-04  -3.806303e-04  0 
 -7.894257e-04  -3.514594e-03  0 
 -1.054858e-02  -7.977898e-03  0 
 -1.051172e-03  -1.800950e-04  0 
 -2.946771e-03  -4.008386e-03  0 
 -3.360898e-03  -2.682016e-03  0 
 -1.226829e-03  2.862824e-04  0 
 -3.880912e-03  -5.177872e-03  0 
 -7.007415e-03  -6.034040e-03  0 
 -5.907475e-03  -3.601813e-03  0 
 -6.873930e-03  -5.018381e-03  0 
 2.443644e-04  2.272269e-04  0 
 -2.504831e-03  -4.245188e-03  0 
 8.186105e-04  -3.645208e-04  0 
 3.350563e-04  4.719992e-04  0 
VECTORS displacement_ITER4 FLOAT
 3.957911e-03  2.052981e-03  0 
 -1.056428e-03  1.866330e-03  0 
 1.323260e-05  1.681329e-03  0 
 -5.540469e-05  1.745217e-03  0 
 -2.329703e-04  1.808439e-03  0 
 -5.176040e-04  1.875412e-03  0 
 3.926901e-03  -6.970714e-04  0 
 3.919430e-03  -3.509173e-03  0 
 -1.068580e-03  1.385967e-03  0 
 -1.058813e-03  1.134823e-03  0 
 -5.749058e-04  1.419927e-03  0 
 -5.429644e-05  1.600783e-03  0 
 -1.128689e-04  1.654538e-03  0 
 -3.575285e-04  1.641311e-03  0 
 -2.297865e-04  1.447834e-03  0 
 -6.660619e-04  1.627561e-03  0 
 -3.490300e-05  1.684127e-03  0 
 1.737698e-03  -7.559019e-04  0 
 -4.107326e-03  -3.905879e-03  0 
 -9.018989e-04  1.305874e-03  0 
 -5.815185e-04  -5.429337e-04  0 
 -1.458093e-03  1.853093e-04  0 
 -1.138572e-03  9.003751e-04  0 
 1.272321e-03  -9.077701e-04  0 
 -2.648020e-03  -1.712445e-03  0 
 -2.372628e-03  -8.660709e-04  0 
 -2.791434e-03  -2.093967e-03  0 
 -8.749634e-04  1.610882e-03  0 
 1.703586e-03  4.131917e-04  0 
 -8.577027e-04  1.504942e-03  0 
 -7.822472e-04  1.219134e-03  0 
VECTORS displacement_ITER5 FLOAT
 -5.365835e-04  -2.421720e-04  0 
 1.372175e-03  -4.570966e-04  0 
 -1.924438e-03  3.917166e-04  0 
 -8.839020e-04  -7.607673e-04  0 
 9.356836e-05  -6.402408e-04  0 
 9.162470e-04  -5.144986e-04  0 
 -5.694828e-04  1.973065e-03  0 
 -5.834903e-04  4.112697e-03  0 
 1.306328e-03  -2.879811e-04  0 
 1.309722e-03  2.637309e-05  0 
 1.014910e-03  4.838384e-04  0 
 -1.054003e-03  7.024923e-04  0 
 -4.079113e-04  -1.754637e-05  0 
 5.549785e-04  -1.208363e-05  0 
 1.004823e-04  8.310121e-04  0 
 1.120445e-03  -1.158055e-04  0 
 -1.261314e-03  -9.492352e-05  0 
 1.109283e-03  2.014807e-03  0 
 -9.010972e-04  -2.547019e-03  0 
 4.970922e-04  -3.841157e-04  0 
 -1.265117e-03  -1.287215e-04  0 
 -3.348266e-04  -4.749211e-04  0 
 1.046000e-03  -5.601083e-04  0 
 -1.506182e-03  1.235971e-03  0 
 -1.100381e-03  -9.364781e-04  0 
 -1.072984e-04  -1.042916e-03  0 
 3.622340e-04  -1.834052e-03  0 
 1.102601e-03  -4.124186e-04  0 
 -1.152286e-03  3.206980e-04  0 
 1.120248e-03  -3.382597e-04  0 
 9.349825e-04  -1.452157e-04  0 
VECTORS displacement_ITER6 FLOAT
 5.276105e-05  -8.130532e-04  0 
 -2.875421e-04  -1.560579e-04  0 
 -8.091545e-04  -1.088176e-05  0 
 -4.379904e-04  -3.782418e-04  0 
 -1.959973e-04  -2.823268e-04  0 
 -9.666403e-05  -1.836497e-04  0 
 1.570326e-06  -7.517872e-05  0 
 -2.537855e-05  5.748595e-04  0 
 -3.268278e-04  -4.870125e-04  0 
 -3.434641e-04  -6.755031e-04  0 
 -8.804281e-05  -1.295105e-04  0 
 -4.837980e-04  5.469469e-05  0 
 -2.944225e-04  -1.669695e-04  0 
 -1.136063e-04  -1.681467e-04  0 
 -1.881887e-04  -2.824784e-07  0 
 -1.201287e-04  -2.044605e-04  0 
 -5.531375e-04  -1.951119e-04  0 
 5.180507e-04  -7.423163e-05  0 
 8.445865e-05  -7.218847e-04  0 
 -1.381090e-04  -2.763020e-04  0 
 -5.228415e-04  -3.106464e-05  0 
 -2.172611e-04  -8.692655e-05  0 
 1.580201e-05  -5.837055e-04  0 
 -7.824636e-04  2.800604e-04  0 
 -3.714796e-04  -1.856003e-05  0 
 9.855157e-05  -2.683070e-04  0 
 4.558626e-04  -5.817384e-04  0 
 -1.387654e-04  -3.538929e-04  0 
 -4.583501e-04  -2.524989e-04  0 
 -1.852387e-04  -3.920901e-04  0 
 -1.502041e-04  -5.698290e-04  0 
VECTORS displacement_ITER7 FLOAT
 -3.095113e-04  -5.128392e-04  0 
 -1.918762e-04  -1.584239e-04  0 
 -3.678816e-04  -1.467219e-04  0 
 -1.165120e-04  -3.679575e-04  0 
 3.319275e-05  -2.812621e-04  0 
 4.619356e-05  -1.918257e-04  0 
 -3.709218e-04  -2.783080e-04  0 
 -4.053325e-04  -1.413999e-04  0 
 -2.261766e-04  -5.246581e-04  0 
 -2.434565e-04  -7.818111e-04  0 
 4.199430e-05  -2.544984e-04  0 
 -1.470410e-04  -7.490922e-05  0 
 -1.769539e-05  -2.245234e-04  0 
 6.894094e-05  -2.313745e-04  0 
 3.874405e-05  -1.502356e-04  0 
 1.302984e-06  -2.573657e-04  0 
 -1.988028e-04  -2.320243e-04  0 
 -2.540669e-04  -2.923416e-04  0 
 3.894633e-05  -1.065523e-03  0 
 -5.549897e-06  -1.277025e-04  0 
 -4.717590e-04  1.374892e-04  0 
 -1.547934e-04  1.603649e-04  0 
 2.809600e-04  -6.447554e-04  0 
 -1.185467e-03  2.512647e-04  0 
 -5.752030e-04  2.326109e-04  0 
 2.640154e-04  -1.234544e-04  0 
 9.056172e-04  -7.680707e-04  0 
 1.895071e-05  -3.497982e-04  0 
 -5.216232e-04  -3.460887e-04  0 
 -4.593998e-05  -4.160088e-04  0 
 2.822819e-05  -6.408730e-04  0 
VECTORS displacement_ITER8 FLOAT
 -3.038993e-04  -4.588827e-04  0 
 -4.085863e-05  -1.039460e-04  0 
 -1.490637e-04  -1.164909e-04  0 
 -5.535255e-05  -1.895268e-04  0 
 1.003756e-05  -1.120368e-04  0 
 8.557976e-06  -7.690532e-05  0 
 -3.768391e-04  -2.946103e-04  0 
 -4.201592e-04  -2.209012e-04  0 
 -5.133469e-05  -3.853712e-04  0 
 -6.061869e-05  -5.909575e-04  0 
 1.097595e-05  -7.839297e-05  0 
 -4.539765e-05  -4.547960e-05  0 
 -4.223745e-07  -9.682430e-05  0 
 2.100969e-05  -8.677818e-05  0 
 2.431236e-05  -6.178389e-05  0 
 -8.956233e-06  -9.402167e-05  0 
 -8.834464e-05  -1.092930e-04  0 
 -3.149772e-04  -3.193713e-04  0 
 -2.957947e-04  -8.348735e-04  0 
 -6.248243e-05  -2.211626e-04  0 
 -2.241494e-04  -2.830600e-04  0 
 -1.480067e-04  -2.755121e-04  0 
 -1.571164e-05  -4.474198e-04  0 
 -4.551493e-04  -4.227647e-04  0 
 -3.293815e-04  -4.801273e-04  0 
 -1.541627e-04  -4.812166e-04  0 
 -5.645822e-05  -7.840478e-04  0 
 -2.432073e-05  -2.363351e-04  0 
 -3.375972e-04  -3.778039e-04  0 
 8.967557e-05  -3.073216e-04  0 
 1.553916e-04  -4.778483e-04  0 
VECTORS displacement_ITER9 FLOAT
 -2.783516e-04  -1.255739e-04  0 
 2.142206e-05  -1.817602e-04  0 
 -1.791484e-04  -1.395692e-04  0 
 -9.194686e-05  -2.042833e-04  0 
 -2.749270e-05  -1.442525e-04  0 
 -2.495303e-06  -1.318773e-04  0 
 -3.551434e-04  -4.557179e-04  0 
 -4.048705e-04  -8.701688e-04  0 
 -3.878143e-06  -3.831988e-04  0 
 -5.403526e-06  -5.285409e-04  0 
 1.450814e-06  -7.774806e-05  0 
 -8.433557e-05  -7.200443e-05  0 
 -4.384295e-05  -1.188394e-04  0 
 -1.032099e-05  -1.100626e-04  0 
 -1.560678e-05  -7.202649e-05  0 
 -4.582941e-06  -1.199169e-04  0 
 -1.254929e-04  -1.304591e-04  0 
 -6.739709e-04  -4.957319e-04  0 
 -1.476174e-04  -2.681520e-04  0 
 -6.545722e-05  -3.127603e-04  0 
 -2.207973e-05  -4.331747e-04  0 
 -6.895531e-05  -4.088538e-04  0 
 -1.295323e-04  -3.493290e-04  0 
 3.027571e-05  -6.515159e-04  0 
 -4.973516e-05  -5.139831e-04  0 
 -1.764576e-04  -4.384989e-04  0 
 -2.802072e-04  -4.353146e-04  0 
 -4.574498e-05  -2.611395e-04  0 
 -1.131233e-04  -3.222893e-04  0 
 1.011739e-04  -3.181858e-04  0 
 1.483300e-04  -4.678171e-04  0 
VECTORS displacement_ITER10 FLOAT
 -2.109876e-04  -2.506473e-04  0 
 1.278987e-05  -1.323044e-04  0 
 -1.406804e-04  -1.091316e-04  0 
 -8.783388e-05  -1.480001e-04  0 
 -2.633679e-05  -1.156732e-04  0 
 1.602954e-05  -1.084321e-04  0 
 -2.968778e-04  -3.277194e-04  0 
 -3.605069e-04  -4.635524e-04  0 
 -1.060822e-05  -3.358892e-04  0 
 -1.543785e-05  -5.123361e-04  0 
 8.617915e-06  -5.293963e-05  0 
 -8.070766e-05  -4.906608e-05  0 
 -5.144930e-05  -8.067770e-05  0 
 -2.541067e-06  -7.796624e-05  0 
 -2.032332e-05  -2.275112e-05  0 
 1.384511e-05  -1.018668e-04  0 
 -1.148023e-04  -9.066526e-05  0 
 -4.039617e-04  -3.764669e-04  0 
 -1.640989e-04  -5.092888e-04  0 
 -4.625970e-05  -2.444774e-04  0 
 -1.408454e-04  -2.638325e-04  0 
 -9.666485e-05  -2.837050e-04  0 
 -4.721867e-05  -3.640061e-04  0 
 -2.419909e-04  -3.722406e-04  0 
 -1.685411e-04  -4.135472e-04  0 
 -1.194947e-04  -4.064553e-04  0 
 -1.143388e-04  -5.441173e-04  0 
 -1.435503e-05  -2.289585e-04  0 
 -2.061886e-04  -2.757652e-04  0 
 1.039917e-04  -2.672982e-04  0 
 1.648118e-04  -4.238466e-04  0 
VECTORS displacement_ITER11 FLOAT
 -1.935809e-04  -1.564286e-04  0 
 9.876779e-06  -1.337933e-04  0 
 -1.180823e-04  -8.729710e-05  0 
 -6.703181e-05  -1.180278e-04  0 
 -2.327253e-05  -9.450491e-05  0 
 1.063619e-06  -9.472221e-05  0 
 -2.688567e-04  -2.929696e-04  0 
 -3.274779e-04  -4.730437e-04  0 
 -5.078943e-06  -3.323248e-04  0 
 -6.497068e-06  -5.027915e-04  0 
 -4.945824e-07  -5.193533e-05  0 
 -6.224229e-05  -4.464556e-05  0 
 -4.061792e-05  -6.861578e-05  0 
 -1.038640e-05  -7.244636e-05  0 
 -2.160641e-05  -3.444633e-05  0 
 -2.284614e-06  -8.900057e-05  0 
 -9.330962e-05  -7.151352e-05  0 
 -4.105355e-04  -3.396713e-04  0 
 -2.025249e-04  -4.786700e-04  0 
 -5.093401e-05  -1.963624e-04  0 
 -1.281227e-04  -2.036618e-04  0 
 -8.915143e-05  -2.044129e-04  0 
 -3.860699e-05  -3.230653e-04  0 
 -2.495450e-04  -3.300761e-04  0 
 -1.862493e-04  -3.187274e-04  0 
 -9.261448e-05  -2.966083e-04  0 
 -4.904893e-05  -3.969369e-04  0 
 -1.961763e-05  -2.104501e-04  0 
 -1.823342e-04  -2.317673e-04  0 
 1.034005e-04  -2.686133e-04  0 
 1.611723e-04  -4.161680e-04  0 
VECTORS displacement_ITER12 FLOAT
 -2.012006e-04  -1.479733e-04  0 
 8.674583e-06  -1.341832e-04  0 
 -1.206925e-04  -8.692671e-05  0 
 -6.669993e-05  -1.177521e-04  0 
 -2.188885e-05  -9.221685e-05  0 
 2.236795e-06  -9.231483e-05  0 
 -2.726882e-04  -2.933141e-04  0 
 -3.338085e-04  -4.632715e-04  0 
 -5.699098e-06  -3.318214e-04  0 
 -8.274732e-06  -5.001488e-04  0 
 -1.641291e-06  -5.197267e-05  0 
 -6.151626e-05  -4.114049e-05  0 
 -3.891783e-05  -6.662980e-05  0 
 -9.133796e-06  -6.994903e-05  0 
 -1.979015e-05  -3.268891e-05  0 
 -1.957827e-06  -8.722782e-05  0 
 -9.364756e-05  -7.043949e-05  0 
 -4.075049e-04  -3.432546e-04  0 
 -1.638355e-04  -4.527869e-04  0 
 -4.863304e-05  -2.033401e-04  0 
 -1.210052e-04  -2.130027e-04  0 
 -8.853888e-05  -2.187481e-04  0 
 -3.787475e-05  -3.325144e-04  0 
 -2.388701e-04  -3.475038e-04  0 
 -1.716730e-04  -3.281528e-04  0 
 -9.644384e-05  -3.237254e-04  0 
 -6.579631e-05  -4.452397e-04  0 
 -1.750973e-05  -2.128585e-04  0 
 -1.807779e-04  -2.337084e-04  0 
 1.034954e-04  -2.687516e-04  0 
 1.616351e-04  -4.148922e-04  0 
VECTORS displacement_ITER13 FLOAT
 -2.021835e-04  -1.473727e-04  0 
 1.015182e-05  -1.341840e-04  0 
 -1.197116e-04  -8.732942e-05  0 
 -6.707035e-05  -1.177044e-04  0 
 -2.239665e-05  -9.293705e-05  0 
 2.429599e-06  -9.288769e-05  0 
 -2.731349e-04  -2.939309e-04  0 
 -3.337775e-04  -4.633634e-04  0 
 -4.695082e-06  -3.327648e-04  0 
 -7.262582e-06  -5.011475e-04  0 
 -1.390431e-06  -5.229454e-05  0 
 -6.200959e-05  -4.236093e-05  0 
 -3.969256e-05  -6.712619e-05  0 
 -9.205568e-06  -7.021338e-05  0 
 -2.022816e-05  -3.276712e-05  0 
 -1.271437e-06  -8.707322e-05  0 
 -9.373140e-05  -7.066792e-05  0 
 -4.081877e-04  -3.438393e-04  0 
 -1.690876e-04  -4.511532e-04  0 
 -5.016196e-05  -2.043539e-04  0 
 -1.207663e-04  -2.170727e-04  0 
 -9.086295e-05  -2.221162e-04  0 
 -3.952785e-05  -3.332037e-04  0 
 -2.316154e-04  -3.474900e-04  0 
 -1.734473e-04  -3.314319e-04  0 
 -1.021536e-04  -3.266962e-04  0 
 -7.224842e-05  -4.514870e-04  0 
 -1.777724e-05  -2.132275e-04  0 
 -1.787057e-04  -2.337291e-04  0 
 1.044084e-04  -2.695192e-04  0 
 1.623138e-04  -4.158541e-04  0 
VECTORS displacement_ITER14 FLOAT
 -2.021529e-04  -1.473105e-04  0 
 1.019420e-05  -1.342422e-04  0 
 -1.196988e-04  -8.725522e-05  0 
 -6.705140e-05  -1.176698e-04  0 
 -2.239783e-05  -9.291108e-05  0 
 2.415983e-06  -9.288156e-05  0 
 -2.731025e-04  -2.938975e-04  0 
 -3.337286e-04  -4.633654e-04  0 
 -4.688435e-06  -3.327687e-04  0 
 -7.257667e-06  -5.011256e-04  0 
 -1.403822e-06  -5.227940e-05  0 
 -6.200770e-05  -4.234135e-05  0 
 -3.968519e-05  -6.710936e-05  0 
 -9.217325e-06  -7.019968e-05  0 
 -2.022641e-05  -3.277097e-05  0 
 -1.286445e-06  -8.705826e-05  0 
 -9.371784e-05  -7.062881e-05  0 
 -4.081948e-04  -3.437979e-04  0 
 -1.699616e-04  -4.517400e-04  0 
 -4.979490e-05  -2.039464e-04  0 
 -1.206314e-04  -2.170787e-04  0 
 -9.026708e-05  -2.210077e-04  0 
 -3.885454e-05  -3.326965e-04  0 
 -2.312449e-04  -3.484453e-04  0 
 -1.744447e-04  -3.316339e-04  0 
 -1.004825e-04  -3.244882e-04  0 
 -6.902541e-05  -4.467729e-04  0 
 -1.758564e-05  -2.132234e-04  0 
 -1.786283e-04  -2.337587e-04  0 
 1.043497e-04  -2.695924e-04  0 
 1.623342e-04  -4.158668e-04  0 
CELL_DATA 42
TENSORS element_stresses FLOAT
 5.636778e-03  -1.887690e-02  0 
 -1.887690e-02  -9.706963e-03  0 
 0  0  0 

 2.114842e-03  -1.623359e-03  0 
 -1.623359e-03  1.057571e-04  0 
 0  0  0 

 -1.387894e-02  -3.671766e-02  0 
 -3.671766e-02  9.487104e-02  0 
 0  0  0 

 -2.794982e-03  -2.396220e-02  0 
 -2.396220e-02  -7.204161e-04  0 
 0  0  0 

 1.686543e-03  -6.095058e-02  0 
 -6.095058e-02  -3.502334e-02  0 
 0  0  0 

 -2.255253e-02  -3.164589e-02  0 
 -3.164589e-02  -1.813956e-02  0 
 0  0  0 

 -9.391332e-03  -7.430733e-02  0 
 -7.430733e-02  -1.682601e-01  0 
 0  0  0 

 -6.925901e-02  8.823967e-02  0 
 8.823967e-02  1.444228e-01  0 
 0  0  0 

 2.257121e-02  -3.386607e-02  0 
 -3.386607e-02  -6.752813e-02  0 
 0  0  0 

 -3.175732e-02  -9.986286e-02  0 
 -9.986286e-02  -7.432292e-02  0 
 0  0  0 

 1.754511e-02  -1.762599e-02  0 
 -1.762599e-02  -9.628187e-03  0 
 0  0  0 

 -1.123508e-01  8.628475e-02  0 
 8.628475e-02  -3.234549e-02  0 
 0  0  0 

 -1.878561e-01  6.685748e-03  0 
 6.685748e-03  1.821616e-01  0 
 0  0  0 

 -2.324602e-01  7.627427e-02  0 
 7.627427e-02  1.711271e-01  0 
 0  0  0 

 -2.577605e-04  -3.785868e-04  0 
 -3.785868e-04  -7.721008e-05  0 
 0  0  0 

 -3.690648e-04  -3.051079e-04  0 
 -3.051079e-04  -1.168473e-05  0 
 0  0  0 

 -3.395879e-04  -3.038751e-04  0 
 -3.038751e-04  -1.264892e-04  0 
 0  0  0 

 -2.966336e-04  -2.454881e-04  0 
 -2.454881e-04  1.669170e-05  0 
 0  0  0 

 -3.742629e-04  -2.703778e-04  0 
 -2.703778e-04  4.555993e-06  0 
 0  0  0 

 -1.997277e-04  -3.079354e-04  0 
 -3.079354e-04  -9.207597e-05  0 
 0  0  0 

 -2.558417e-04  -2.730210e-04  0 
 -2.730210e-04  -4.445709e-05  0 
 0  0  0 

 -1.141498e-04  -3.876920e-04  0 
 -3.876920e-04  -3.462428e-04  0 
 0  0  0 

 -2.336804e-04  -3.176019e-04  0 
 -3.176019e-04  -2.678330e-04  0 
 0  0  0 

 -3.770697e-04  -2.370787e-04  0 
 -2.370787e-04  1.102982e-04  0 
 0  0  0 

 -2.695145e-04  -2.537138e-04  0 
 -2.537138e-04  -2.298129e-05  0 
 0  0  0 

 -3.029114e-04  -1.753529e-04  0 
 -1.753529e-04  -3.537346e-05  0 
 0  0  0 

 -1.642617e-04  -3.625656e-04  0 
 -3.625656e-04  -3.568703e-04  0 
 0  0  0 

 -2.447036e-04  -1.883451e-04  0 
 -1.883451e-04  -7.712368e-05  0 
 0  0  0 

 -8.974464e-05  -2.654199e-04  0 
 -2.654199e-04  -2.157683e-04  0 
 0  0  0 

 -2.164134e-04  -4.934791e-04  0 
 -4.934791e-04  -2.303667e-04  0 
 0  0  0 

 -1.600149e-04  -5.193828e-04  0 
 -5.193828e-04  -3.349480e-04  0 
 0  0  0 

 -2.938932e-04  -4.032401e-04  0 
 -4.032401e-04  -2.619897e-04  0 
 0  0  0 

 -3.907424e-04  -1.038158e-04  0 
 -1.038158e-04  1.340231e-06  0 
 0  0  0 

 -3.020112e-04  -1.175895e-04  0 
 -1.175895e-04  -6.070954e-05  0 
 0  0  0 

 -4.474472e-04  -1.621163e-04  0 
 -1.621163e-04  7.158564e-05  0 
 0  0  0 

 -2.036520e-04  -4.490492e-04  0 
 -4.490492e-04  -3.939002e-04  0 
 0  0  0 

 -1.441553e-04  -3.969332e-04  0 
 -3.969332e-04  -2.201057e-04  0 
 0  0  0 

 -4.042722e-04  -1.863353e-04  0 
 -1.863353e-04  -1.138377e-04  0 
 0  0  0 

 -3.394220e-04  -2.113444e-04  0 
 -2.113444e-04  1.123840e-04  0 
 0  0  0 

 -6.405338e-02  -1.249379e-01  0 
 -1.249379e-01  -1.507611e-02  0 
 0  0  0 

 -2.159444e-03  -5.275235e-02  0 
 -5.275235e-02  2.705828e-02  0 
 0  0  0 

 -5.405742e-02  -6.040676e-02  0 
 -6.040676e-02  2.858983e-02  0 
 0  0  0 

TENSORS element_stresses FLOAT
 5.636778e-03  -1.887690e-02  0 
 -1.887690e-02  -9.706963e-03  0 
 0  0  0 

 2.114842e-03  -1.623359e-03  0 
 -1.623359e-03  1.057571e-04  0 
 0  0  0 

 -1.387894e-02  -3.671766e-02  0 
 -3.671766e-02  9.487104e-02  0 
 0  0  0 

 -2.794982e-03  -2.396220e-02  0 
 -2.396220e-02  -7.204161e-04  0 
 0  0  0 

 1.686543e-03  -6.095058e-02  0 
 -6.095058e-02  -3.502334e-02  0 
 0  0  0 

 -2.255253e-02  -3.164589e-02  0 
 -3.164589e-02  -1.813956e-02  0 
 0  0  0 

 -9.391332e-03  -7.430733e-02  0 
 -7.430733e-02  -1.682601e-01  0 
 0  0  0 

 -6.925901e-02  8.823967e-02  0 
 8.823967e-02  1.444228e-01  0 
 0  0  0 

 2.257121e-02  -3.386607e-02  0 
 -3.386607e-02  -6.752813e-02  0 
 0  0  0 

 -3.175732e-02  -9.986286e-02  0 
 -9.986286e-02  -7.432292e-02  0 
 0  0  0 

 1.754511e-02  -1.762599e-02  0 
 -1.762599e-02  -9.628187e-03  0 
 0  0  0 

 -1.123508e-01  8.628475e-02  0 
 8.628475e-02  -3.234549e-02  0 
 0  0  0 

 -1.878561e-01  6.685748e-03  0 
 6.685748e-03  1.821616e-01  0 
 0  0  0 

 -2.324602e-01  7.627427e-02  0 
 7.627427e-02  1.711271e-01  0 
 0  0  0 

 -2.577605e-04  -3.785868e-04  0 
 -3.785868e-04  -7.721008e-05  0 
 0  0  0 

 -3.690648e-04  -3.051079e-04  0 
 -3.051079e-04  -1.168473e-05  0 
 0  0  0 

 -3.395879e-04  -3.038751e-04  0 
 -3.038751e-04  -1.264892e-04  0 
 0  0  0 

 -2.966336e-04  -2.454881e-04  0 
 -2.454881e-04  1.669170e-05  0 
 0  0  0 

 -3.742629e-04  -2.703778e-04  0 
 -2.703778e-04  4.555993e-06  0 
 0  0  0 

 -1.997277e-04  -3.079354e-04  0 
 -3.079354e-04  -9.207597e-05  0 
 0  0  0 

 -2.558417e-04  -2.730210e-04  0 
 -2.730210e-04  -4.445709e-05  0 
 0  0  0 

 -1.141498e-04  -3.876920e-04  0 
 -3.876920e-04  -3.462428e-04  0 
 0  0  0 

 -2.336804e-04  -3.176019e-04  0 
 -3.176019e-04  -2.678330e-04  0 
 0  0  0 

 -3.770697e-04  -2.370787e-04  0 
 -2.370787e-04  1.102982e-04  0 
 0  0  0 

 -2.695145e-04  -2.537138e-04  0 
 -2.537138e-04  -2.298129e-05  0 
 0  0  0 

 -3.029114e-04  -1.753529e-04  0 
 -1.753529e-04  -3.537346e-05  0 
 0  0  0 

 -1.642617e-04  -3.625656e-04  0 
 -3.625656e-04  -3.568703e-04  0 
 0  0  0 

 -2.447036e-04  -1.883451e-04  0 
 -1.883451e-04  -7.712368e-05  0 
 0  0  0 

 -8.974464e-05  -2.654199e-04  0 
 -2.654199e-04  -2.157683e-04  0 
 0  0  0 

 -2.164134e-04  -4.934791e-04  0 
 -4.934791e-04  -2.303667e-04  0 
 0  0  0 

 -1.600149e-04  -5.193828e-04  0 
 -5.193828e-04  -3.349480e-04  0 
 0  0  0 

 -2.938932e-04  -4.032401e-04  0 
 -4.032401e-04  -2.619897e-04  0 
 0  0  0 

 -3.907424e-04  -1.038158e-04  0 
 -1.038158e-04  1.340231e-06  0 
 0  0  0 

 -3.020112e-04  -1.175895e-04  0 
 -1.175895e-04  -6.070954e-05  0 
 0  0  0 

 -4.474472e-04  -1.621163e-04  0 
 -1.621163e-04  7.158564e-05  0 
 0  0  0 

 -2.036520e-04  -4.490492e-04  0 
 -4.490492e-04  -3.939002e-04  0 
 0  0  0 

 -1.441553e-04  -3.969332e-04  0 
 -3.969332e-04  -2.201057e-04  0 
 0  0  0 

 -4.042722e-04  -1.863353e-04  0 
 -1.863353e-04  -1.138377e-04  0 
 0  0  0 

 -3.394220e-04  -2.113444e-04  0 
 -2.113444e-04  1.123840e-04  0 
 0  0  0 

 -6.405338e-02  -1.249379e-01  0 
 -1.249379e-01  -1.507611e-02  0 
 0  0  0 

 -2.159444e-03  -5.275235e-02  0 
 -5.275235e-02  2.705828e-02  0 
 0  0  0 

 -5.405742e-02  -6.040676e-02  0 
 -6.040676e-02  2.858983e-02  0 
 0  0  0 

