# vtk DataFile Version 3.1
this is an vtk file created by FEMAC
ASCII
DATASET UNSTRUCTURED_GRID
POINTS 21 FLOAT
6.000000 1.000000 0.000000
6.000000 2.000000 0.000000
5.000000 1.333333 0.000000
5.000000 1.666667 0.000000
5.333333 1.000000 0.000000
5.666667 1.000000 0.000000
5.333333 2.000000 0.000000
5.666667 2.000000 0.000000
6.000000 1.333333 0.000000
6.000000 1.666667 0.000000
4.690581 1.518186 0.000000
5.793598 0.775322 0.000000
5.472948 1.265001 0.000000
5.285974 1.523802 0.000000
5.690581 1.518186 0.000000
5.759097 1.220626 0.000000
5.496093 1.784776 0.000000
5.214413 1.238185 0.000000
5.770668 1.793926 0.000000
5.223080 1.795049 0.000000
5.817521 2.160881 0.000000
CELLS 25 100 
3 3 10  2
3 5 11  0
3 9 14  8
3 14 13 12
3 3  2 13
3 5 12  4
3 8 15  0
3 15  8 14
3 15  5  0
3 15 12  5
3 14 12 15
3 16 13 14
3 17  4 12
3 17 13  2
3 12 13 17
3 16  7  6
3 7 18  1
3 9 18 14
3 18  9  1
3 19  3 13
3 19 16  6
3 13 16 19
3 16 18  7
3 16 14 18
3 20  7  1
CELL_TYPES 25
5 5 5 5 5 5 5 5 5 5 5 5 5 5 5 5 5 5 5 5 5 5 5 5 5 
POINT_DATA 21
VECTORS displacement_ITER1 FLOAT
 2.289581e-02  -4.725510e-01  0 
 9.852602e-02  -4.725296e-01  0 
 4.812277e-02  -3.968875e-01  0 
 7.329886e-02  -3.968247e-01  0 
 2.292081e-02  -4.221285e-01  0 
 2.289573e-02  -4.473363e-01  0 
 9.852599e-02  -4.220684e-01  0 
 9.852543e-02  -4.472986e-01  0 
 4.809108e-02  -4.725284e-01  0 
 7.330392e-02  -4.725246e-01  0 
 6.211560e-02  -3.750664e-01  0 
 5.939999e-03  -4.575509e-01  0 
 4.293904e-02  -4.326561e-01  0 
 6.249642e-02  -4.184909e-01  0 
 6.207398e-02  -4.491163e-01  0 
 3.957728e-02  -4.543168e-01  0 
 8.223968e-02  -4.343921e-01  0 
 4.092896e-02  -4.131025e-01  0 
 8.293119e-02  -4.551721e-01  0 
 8.301558e-02  -4.137224e-01  0 
 1.106975e-01  -4.590123e-01  0 
VECTORS displacement_ITER2 FLOAT
 -9.560731e-03  -1.457637e-01  0 
 2.967855e-02  -1.457749e-01  0 
 3.543008e-03  -1.065707e-01  0 
 1.659792e-02  -1.064423e-01  0 
 -9.508011e-03  -1.196868e-01  0 
 -9.547818e-03  -1.327217e-01  0 
 2.968605e-02  -1.195500e-01  0 
 2.967858e-02  -1.326647e-01  0 
 3.492485e-03  -1.457602e-01  0 
 1.657134e-02  -1.457688e-01  0 
 1.083176e-02  -9.603921e-02  0 
 -1.920137e-02  -1.363405e-01  0 
 8.290483e-04  -1.250977e-01  0 
 1.096645e-02  -1.177310e-01  0 
 1.074123e-02  -1.336194e-01  0 
 -9.187926e-04  -1.363221e-01  0 
 2.121162e-02  -1.259670e-01  0 
 -1.942159e-04  -1.149790e-01  0 
 2.157165e-02  -1.367586e-01  0 
 2.161951e-02  -1.152245e-01  0 
 3.607346e-02  -1.388825e-01  0 
VECTORS displacement_ITER3 FLOAT
 -3.312689e-03  -3.630479e-02  0 
 7.121685e-03  -3.627787e-02  0 
 2.133589e-04  -2.587413e-02  0 
 3.653020e-03  -2.578994e-02  0 
 -3.243518e-03  -2.937271e-02  0 
 -3.287436e-03  -3.283333e-02  0 
 7.140230e-03  -2.926364e-02  0 
 7.124248e-03  -3.277728e-02  0 
 1.616588e-04  -3.627363e-02  0 
 3.636031e-03  -3.626717e-02  0 
 2.147665e-03  -2.443373e-02  0 
 -1.021017e-02  -4.791736e-02  0 
 -5.258821e-04  -3.077791e-02  0 
 2.152430e-03  -2.880494e-02  0 
 2.090023e-03  -3.303565e-02  0 
 -1.001325e-03  -3.377096e-02  0 
 4.864801e-03  -3.099283e-02  0 
 -7.790611e-04  -2.809970e-02  0 
 4.962461e-03  -3.387094e-02  0 
 4.971556e-03  -2.811770e-02  0 
 8.803502e-03  -3.461753e-02  0 
VECTORS displacement_ITER4 FLOAT
 -1.717371e-03  -1.836243e-02  0 
 1.642522e-03  -1.840913e-02  0 
 -5.881101e-04  -1.506344e-02  0 
 5.260522e-04  -1.490419e-02  0 
 -1.632707e-03  -1.621582e-02  0 
 -1.693576e-03  -1.726798e-02  0 
 1.668475e-03  -1.604771e-02  0 
 1.642575e-03  -1.726019e-02  0 
 -6.217703e-04  -1.835353e-02  0 
 4.966556e-04  -1.838332e-02  0 
 8.351218e-05  -1.562336e-02  0 
 -3.432075e-03  -2.512341e-02  0 
 -8.404735e-04  -1.660043e-02  0 
 -1.190248e-06  -1.595320e-02  0 
 -1.621985e-05  -1.732277e-02  0 
 -9.889289e-04  -1.755478e-02  0 
 8.799647e-04  -1.665804e-02  0 
 -9.011187e-04  -1.577094e-02  0 
 9.240783e-04  -1.761025e-02  0 
 9.227887e-04  -1.567974e-02  0 
 2.187574e-03  -1.796820e-02  0 
VECTORS displacement_ITER5 FLOAT
 -2.404271e-03  -1.621383e-02  0 
 -3.094224e-04  -1.627736e-02  0 
 -1.704644e-03  -1.419833e-02  0 
 -1.024595e-03  -1.404162e-02  0 
 -2.312332e-03  -1.492834e-02  0 
 -2.378777e-03  -1.554299e-02  0 
 -2.818115e-04  -1.474902e-02  0 
 -3.093483e-04  -1.554266e-02  0 
 -1.734210e-03  -1.620767e-02  0 
 -1.039048e-03  -1.624588e-02  0 
 -1.300218e-03  -1.514609e-02  0 
 -4.864650e-03  -2.181072e-02  0 
 -1.870247e-03  -1.512566e-02  0 
 -1.362603e-03  -1.471588e-02  0 
 -1.367195e-03  -1.557384e-02  0 
 -1.958780e-03  -1.571367e-02  0 
 -8.057507e-04  -1.515646e-02  0 
 -1.894925e-03  -1.463152e-02  0 
 -7.723203e-04  -1.576275e-02  0 
 -7.765303e-04  -1.452072e-02  0 
 1.472728e-04  -1.627278e-02  0 
VECTORS displacement_ITER6 FLOAT
 -3.116092e-03  -1.460812e-02  0 
 -1.820043e-03  -1.468920e-02  0 
 -2.689401e-03  -1.340275e-02  0 
 -2.270083e-03  -1.323481e-02  0 
 -3.027511e-03  -1.386956e-02  0 
 -3.093237e-03  -1.421106e-02  0 
 -1.793351e-03  -1.367847e-02  0 
 -1.823567e-03  -1.421181e-02  0 
 -2.718424e-03  -1.460816e-02  0 
 -2.290503e-03  -1.465131e-02  0 
 -2.363768e-03  -1.452282e-02  0 
 -4.959565e-03  -2.075584e-02  0 
 -2.801259e-03  -1.395226e-02  0 
 -2.500111e-03  -1.369093e-02  0 
 -2.501268e-03  -1.422497e-02  0 
 -2.852888e-03  -1.430805e-02  0 
 -2.150703e-03  -1.396152e-02  0 
 -2.803912e-03  -1.366697e-02  0 
 -2.124777e-03  -1.434994e-02  0 
 -2.127347e-03  -1.354200e-02  0 
 -9.709428e-04  -1.547717e-02  0 
VECTORS displacement_ITER7 FLOAT
 -3.482889e-03  -1.348225e-02  0 
 -2.527446e-03  -1.355896e-02  0 
 -3.162882e-03  -1.261963e-02  0 
 -2.854032e-03  -1.244817e-02  0 
 -3.398955e-03  -1.295651e-02  0 
 -3.460731e-03  -1.319602e-02  0 
 -2.498581e-03  -1.277816e-02  0 
 -2.529745e-03  -1.319703e-02  0 
 -3.196961e-03  -1.347974e-02  0 
 -2.882523e-03  -1.352079e-02  0 
 -2.879871e-03  -1.388989e-02  0 
 -5.665584e-03  -1.970829e-02  0 
 -3.254248e-03  -1.300262e-02  0 
 -3.041280e-03  -1.280630e-02  0 
 -3.041825e-03  -1.320022e-02  0 
 -3.292475e-03  -1.326201e-02  0 
 -2.785975e-03  -1.300390e-02  0 
 -3.249436e-03  -1.280756e-02  0 
 -2.761379e-03  -1.329895e-02  0 
 -2.770131e-03  -1.267473e-02  0 
 -1.530942e-03  -1.494280e-02  0 
VECTORS displacement_ITER8 FLOAT
 -4.081644e-03  -1.489308e-02  0 
 -2.652890e-03  -1.496357e-02  0 
 -3.590601e-03  -1.356587e-02  0 
 -3.134736e-03  -1.338942e-02  0 
 -4.002130e-03  -1.403821e-02  0 
 -4.060371e-03  -1.444555e-02  0 
 -2.628888e-03  -1.388952e-02  0 
 -2.655960e-03  -1.444751e-02  0 
 -3.634864e-03  -1.488977e-02  0 
 -3.162594e-03  -1.492779e-02  0 
 -3.256085e-03  -1.485781e-02  0 
 -5.889282e-03  -2.072335e-02  0 
 -3.724942e-03  -1.415982e-02  0 
 -3.388665e-03  -1.387423e-02  0 
 -3.390831e-03  -1.446246e-02  0 
 -3.784547e-03  -1.455681e-02  0 
 -3.009244e-03  -1.417594e-02  0 
 -3.734341e-03  -1.384569e-02  0 
 -2.981481e-03  -1.459783e-02  0 
 -2.993658e-03  -1.371262e-02  0 
 -1.740508e-03  -1.682604e-02  0 
VECTORS displacement_ITER9 FLOAT
 -3.952279e-03  -1.484404e-02  0 
 -2.531210e-03  -1.491679e-02  0 
 -3.464264e-03  -1.353429e-02  0 
 -3.022029e-03  -1.336718e-02  0 
 -3.872459e-03  -1.399436e-02  0 
 -3.931091e-03  -1.439890e-02  0 
 -2.504817e-03  -1.385072e-02  0 
 -2.534068e-03  -1.440366e-02  0 
 -3.508229e-03  -1.484049e-02  0 
 -3.038395e-03  -1.488011e-02  0 
 -3.052535e-03  -1.504219e-02  0 
 -5.762445e-03  -2.068859e-02  0 
 -3.597233e-03  -1.411400e-02  0 
 -3.266752e-03  -1.382974e-02  0 
 -3.266382e-03  -1.441605e-02  0 
 -3.656784e-03  -1.450951e-02  0 
 -2.887354e-03  -1.413310e-02  0 
 -3.604212e-03  -1.380473e-02  0 
 -2.858665e-03  -1.455255e-02  0 
 -2.874747e-03  -1.366462e-02  0 
 -2.079504e-03  -1.680288e-02  0 
CELL_DATA 25
TENSORS element_stresses FLOAT
 -4.259947e-04  4.999645e-03  0 
 4.999645e-03  3.735375e-04  0 
 0  0  0 

 8.910298e-03  5.215153e-03  0 
 5.215153e-03  2.991287e-02  0 
 0  0  0 

 2.722925e-02  -2.555835e-02  0 
 -2.555835e-02  -1.107105e-01  0 
 0  0  0 

 3.782880e-02  -1.213922e-01  0 
 -1.213922e-01  6.333622e-02  0 
 0  0  0 

 -4.677375e-02  -3.101393e-02  0 
 -3.101393e-02  4.873038e-01  0 
 0  0  0 

 -1.313378e-01  -6.335054e-02  0 
 -6.335054e-02  1.485276e-01  0 
 0  0  0 

 -3.732183e-03  -3.594666e-02  0 
 -3.594666e-02  9.529015e-03  0 
 0  0  0 

 2.128261e-03  -4.640916e-02  0 
 -4.640916e-02  -1.415638e-03  0 
 0  0  0 

 -5.068964e-02  -5.035884e-02  0 
 -5.035884e-02  4.290825e-02  0 
 0  0  0 

 8.264373e-03  -9.348986e-02  0 
 -9.348986e-02  7.545107e-02  0 
 0  0  0 

 -6.729803e-03  -5.534833e-02  0 
 -5.534833e-02  -6.357849e-03  0 
 0  0  0 

 2.431699e-02  -9.281556e-03  0 
 -9.281556e-03  1.152295e-02  0 
 0  0  0 

 -3.149534e-02  -1.017644e-01  0 
 -1.017644e-01  1.796704e-01  0 
 0  0  0 

 -5.919589e-02  3.109035e-02  0 
 3.109035e-02  1.878352e-01  0 
 0  0  0 

 -3.599853e-02  -9.808213e-03  0 
 -9.808213e-03  2.070208e-01  0 
 0  0  0 

 -7.744594e-02  4.014388e-02  0 
 4.014388e-02  3.435735e-02  0 
 0  0  0 

 -8.512666e-03  3.084110e-02  0 
 3.084110e-02  -5.695994e-02  0 
 0  0  0 

 1.206257e-02  2.136540e-03  0 
 2.136540e-03  -6.541698e-02  0 
 0  0  0 

 3.033811e-02  2.473998e-02  0 
 2.473998e-02  -1.009294e-01  0 
 0  0  0 

 -7.913063e-02  -5.794653e-02  0 
 -5.794653e-02  2.405513e-01  0 
 0  0  0 

 2.829918e-02  6.006647e-02  0 
 6.006647e-02  2.329478e-02  0 
 0  0  0 

 7.921376e-02  -2.006584e-01  0 
 -2.006584e-01  2.364574e-01  0 
 0  0  0 

 4.047672e-02  5.763438e-02  0 
 5.763438e-02  -3.552425e-02  0 
 0  0  0 

 4.417688e-02  -4.880913e-02  0 
 -4.880913e-02  -3.857662e-02  0 
 0  0  0 

 -4.431090e-03  9.831192e-04  0 
 9.831192e-04  -1.479888e-02  0 
 0  0  0 

TENSORS element_stresses FLOAT
 -4.259947e-04  4.999645e-03  0 
 4.999645e-03  3.735375e-04  0 
 0  0  0 

 8.910298e-03  5.215153e-03  0 
 5.215153e-03  2.991287e-02  0 
 0  0  0 

 2.722925e-02  -2.555835e-02  0 
 -2.555835e-02  -1.107105e-01  0 
 0  0  0 

 3.782880e-02  -1.213922e-01  0 
 -1.213922e-01  6.333622e-02  0 
 0  0  0 

 -4.677375e-02  -3.101393e-02  0 
 -3.101393e-02  4.873038e-01  0 
 0  0  0 

 -1.313378e-01  -6.335054e-02  0 
 -6.335054e-02  1.485276e-01  0 
 0  0  0 

 -3.732183e-03  -3.594666e-02  0 
 -3.594666e-02  9.529015e-03  0 
 0  0  0 

 2.128261e-03  -4.640916e-02  0 
 -4.640916e-02  -1.415638e-03  0 
 0  0  0 

 -5.068964e-02  -5.035884e-02  0 
 -5.035884e-02  4.290825e-02  0 
 0  0  0 

 8.264373e-03  -9.348986e-02  0 
 -9.348986e-02  7.545107e-02  0 
 0  0  0 

 -6.729803e-03  -5.534833e-02  0 
 -5.534833e-02  -6.357849e-03  0 
 0  0  0 

 2.431699e-02  -9.281556e-03  0 
 -9.281556e-03  1.152295e-02  0 
 0  0  0 

 -3.149534e-02  -1.017644e-01  0 
 -1.017644e-01  1.796704e-01  0 
 0  0  0 

 -5.919589e-02  3.109035e-02  0 
 3.109035e-02  1.878352e-01  0 
 0  0  0 

 -3.599853e-02  -9.808213e-03  0 
 -9.808213e-03  2.070208e-01  0 
 0  0  0 

 -7.744594e-02  4.014388e-02  0 
 4.014388e-02  3.435735e-02  0 
 0  0  0 

 -8.512666e-03  3.084110e-02  0 
 3.084110e-02  -5.695994e-02  0 
 0  0  0 

 1.206257e-02  2.136540e-03  0 
 2.136540e-03  -6.541698e-02  0 
 0  0  0 

 3.033811e-02  2.473998e-02  0 
 2.473998e-02  -1.009294e-01  0 
 0  0  0 

 -7.913063e-02  -5.794653e-02  0 
 -5.794653e-02  2.405513e-01  0 
 0  0  0 

 2.829918e-02  6.006647e-02  0 
 6.006647e-02  2.329478e-02  0 
 0  0  0 

 7.921376e-02  -2.006584e-01  0 
 -2.006584e-01  2.364574e-01  0 
 0  0  0 

 4.047672e-02  5.763438e-02  0 
 5.763438e-02  -3.552425e-02  0 
 0  0  0 

 4.417688e-02  -4.880913e-02  0 
 -4.880913e-02  -3.857662e-02  0 
 0  0  0 

 -4.431090e-03  9.831192e-04  0 
 9.831192e-04  -1.479888e-02  0 
 0  0  0 

