# vtk DataFile Version 3.1
this is an vtk file created by FEMAC
ASCII
DATASET UNSTRUCTURED_GRID
POINTS 31 FLOAT
2.000000 1.000000 0.000000
3.000000 1.000000 0.000000
1.750000 1.000000 0.000000
2.000000 0.750000 0.000000
2.000000 1.250000 0.000000
2.000000 1.500000 0.000000
2.000000 1.750000 0.000000
2.250000 1.000000 0.000000
2.500000 1.000000 0.000000
2.750000 1.000000 0.000000
1.638134 0.825570 0.000000
1.835146 0.847123 0.000000
1.745000 1.195000 0.000000
1.799000 1.384000 0.000000
2.214699 0.660302 0.000000
2.638134 0.825570 0.000000
2.371728 0.825957 0.000000
2.502535 0.594871 0.000000
2.835146 0.847123 0.000000
2.167285 0.847252 0.000000
2.178356 1.674167 0.000000
2.178472 1.325972 0.000000
2.225000 1.500000 0.000000
2.341551 1.171968 0.000000
2.581177 1.216647 0.000000
2.398247 1.399662 0.000000
2.401594 1.630720 0.000000
2.661856 1.507893 0.000000
2.832172 1.245757 0.000000
2.153954 1.850472 0.000000
2.154005 1.149588 0.000000
CELLS 42 168 
3 2 11  0
3 11  3  0
3 10 11  2
3 13  4  5
3 13 12  4
3 0 12  2
3 0  4 12
3 8 16 15
3 7 16  8
3 15  9  8
3 17 16 14
3 15 16 17
3 9 18  1
3 3 19  0
3 19  7  0
3 19  3 14
3 19 16  7
3 14 16 19
3 15 18  9
3 5 20  6
3 21  5  4
3 22 20  5
3 21 22  5
3 21 25 22
3 26 20 22
3 23  7  8
3 9 24  8
3 23 25 21
3 22 25 26
3 28  9  1
3 29  6 20
3 30  4  0
3 7 30  0
3 4 30 21
3 28 24  9
3 23 30  7
3 23 21 30
3 23  8 24
3 23 24 25
3 26 25 27
3 27 25 24
3 27 24 28
CELL_TYPES 42
5 5 5 5 5 5 5 5 5 5 5 5 5 5 5 5 5 5 5 5 5 5 5 5 5 5 5 5 5 5 5 5 5 5 5 5 5 5 5 5 5 5 
POINT_DATA 31
VECTORS displacement_ITER1 FLOAT
 -7.652121e-02  -4.122774e-02  0 
 -7.673174e-02  -1.477088e-01  0 
 -7.650954e-02  -1.902483e-02  0 
 -1.031642e-01  -4.131548e-02  0 
 -5.433916e-02  -4.119272e-02  0 
 -3.221121e-02  -4.114549e-02  0 
 -3.460751e-02  -3.538344e-02  0 
 -7.656974e-02  -6.791136e-02  0 
 -7.661840e-02  -9.453956e-02  0 
 -7.667040e-02  -1.211259e-01  0 
 -4.568740e-02  -3.874395e-02  0 
 -7.707132e-02  -2.627871e-02  0 
 -5.920237e-02  -1.857568e-02  0 
 -4.245570e-02  -2.336241e-02  0 
 -1.127435e-01  -6.419458e-02  0 
 -9.519233e-02  -1.092623e-01  0 
 -9.512473e-02  -8.090528e-02  0 
 -1.197216e-01  -9.484718e-02  0 
 -9.293585e-02  -1.302139e-01  0 
 -9.283482e-02  -5.911662e-02  0 
 -3.764908e-02  -3.998722e-02  0 
 -5.097774e-02  -5.999947e-02  0 
 -4.342063e-02  -5.505625e-02  0 
 -6.454441e-02  -7.852364e-02  0 
 -6.601948e-02  -1.009457e-01  0 
 -5.475921e-02  -7.789828e-02  0 
 -4.370885e-02  -6.712086e-02  0 
 -5.985870e-02  -9.862526e-02  0 
 -7.009728e-02  -1.216009e-01  0 
 -5.830669e-02  -1.482936e-02  0 
 -6.456177e-02  -5.857073e-02  0 
VECTORS displacement_ITER2 FLOAT
 -4.361994e-02  -4.596505e-02  0 
 -4.387193e-02  -1.407426e-01  0 
 -4.359929e-02  -2.640446e-02  0 
 -6.736212e-02  -4.606763e-02  0 
 -2.407780e-02  -4.591605e-02  0 
 -4.604733e-03  -4.585400e-02  0 
 4.406398e-03  -2.845993e-02  0 
 -4.368304e-02  -6.974662e-02  0 
 -4.374454e-02  -9.345310e-02  0 
 -4.380844e-02  -1.171005e-01  0 
 -1.245529e-02  -4.622182e-02  0 
 -4.294060e-02  -3.267850e-02  0 
 -2.835380e-02  -2.600022e-02  0 
 -1.361296e-02  -3.021222e-02  0 
 -7.589380e-02  -6.644956e-02  0 
 -6.027701e-02  -1.065602e-01  0 
 -6.021069e-02  -8.132551e-02  0 
 -8.210384e-02  -9.373862e-02  0 
 -5.827759e-02  -1.251862e-01  0 
 -5.816637e-02  -6.192131e-02  0 
 -5.968031e-03  -4.563915e-02  0 
 -2.116638e-02  -6.283735e-02  0 
 -1.375486e-02  -5.918430e-02  0 
 -3.326547e-02  -7.943028e-02  0 
 -3.453976e-02  -9.974275e-02  0 
 -2.426706e-02  -7.952452e-02  0 
 -1.329678e-02  -7.006196e-02  0 
 -2.896518e-02  -9.827600e-02  0 
 -3.832025e-02  -1.181894e-01  0 
 -6.853125e-03  -2.276794e-02  0 
 -3.318706e-02  -6.150217e-02  0 
VECTORS displacement_ITER3 FLOAT
 -4.695059e-02  -3.178531e-02  0 
 -4.728403e-02  -9.617284e-02  0 
 -4.691179e-02  -1.755463e-02  0 
 -6.315571e-02  -3.191183e-02  0 
 -3.273068e-02  -3.171320e-02  0 
 -1.861222e-02  -3.162932e-02  0 
 -2.840660e-03  -7.532396e-03  0 
 -4.704364e-02  -4.802015e-02  0 
 -4.713011e-02  -6.413981e-02  0 
 -4.721694e-02  -8.016207e-02  0 
 -1.785274e-02  -3.289999e-02  0 
 -4.388602e-02  -2.137737e-02  0 
 -3.582409e-02  -1.724270e-02  0 
 -2.512798e-02  -2.029977e-02  0 
 -6.896357e-02  -4.580521e-02  0 
 -5.836118e-02  -7.304911e-02  0 
 -5.830359e-02  -5.591880e-02  0 
 -7.317670e-02  -6.435636e-02  0 
 -5.702428e-02  -8.564658e-02  0 
 -5.690020e-02  -4.270961e-02  0 
 -1.755284e-02  -3.236640e-02  0 
 -3.125868e-02  -4.405948e-02  0 
 -2.537715e-02  -4.197735e-02  0 
 -4.025280e-02  -5.553285e-02  0 
 -4.159840e-02  -6.976986e-02  0 
 -3.404485e-02  -5.639206e-02  0 
 -2.527654e-02  -4.933927e-02  0 
 -3.891694e-02  -6.942614e-02  0 
 -4.507103e-02  -8.192485e-02  0 
 -4.185933e-04  -1.712470e-02  0 
 -3.980918e-02  -4.291793e-02  0 
VECTORS displacement_ITER4 FLOAT
 -4.555933e-02  -3.982373e-02  0 
 -4.597720e-02  -8.572824e-02  0 
 -4.550340e-02  -2.744087e-02  0 
 -5.720997e-02  -3.996942e-02  0 
 -3.317916e-02  -3.973196e-02  0 
 -2.093385e-02  -3.963216e-02  0 
 -1.250828e-02  -2.382826e-02  0 
 -4.568106e-02  -5.149127e-02  0 
 -4.579159e-02  -6.300573e-02  0 
 -4.590308e-02  -7.438069e-02  0 
 -2.233843e-02  -3.462125e-02  0 
 -4.245955e-02  -2.985088e-02  0 
 -3.585721e-02  -2.715355e-02  0 
 -2.657334e-02  -2.981057e-02  0 
 -6.136249e-02  -4.993502e-02  0 
 -5.379931e-02  -6.936364e-02  0 
 -5.374816e-02  -5.716042e-02  0 
 -6.435746e-02  -6.318015e-02  0 
 -5.286637e-02  -7.827787e-02  0 
 -5.273276e-02  -4.770835e-02  0 
 -2.207311e-02  -4.043945e-02  0 
 -3.249955e-02  -4.939339e-02  0 
 -2.761850e-02  -4.739420e-02  0 
 -4.039656e-02  -5.774260e-02  0 
 -4.204663e-02  -6.798387e-02  0 
 -3.561763e-02  -5.837376e-02  0 
 -2.860988e-02  -5.201946e-02  0 
 -4.104034e-02  -6.742790e-02  0 
 -4.564613e-02  -7.611303e-02  0 
 -7.766313e-03  -3.321354e-02  0 
 -3.970341e-02  -4.839674e-02  0 
VECTORS displacement_ITER5 FLOAT
 -3.403854e-02  -3.014919e-02  0 
 -3.456555e-02  -6.847871e-02  0 
 -3.396184e-02  -1.655298e-02  0 
 -4.387889e-02  -3.031185e-02  0 
 -2.043200e-02  -3.003723e-02  0 
 -7.005514e-03  -2.992026e-02  0 
 -1.694506e-02  -3.305907e-02  0 
 -3.419375e-02  -3.998680e-02  0 
 -3.433281e-02  -4.963108e-02  0 
 -3.447702e-02  -5.908323e-02  0 
 -2.221183e-02  -1.093116e-02  0 
 -3.358358e-02  -1.849876e-02  0 
 -2.336813e-02  -1.622742e-02  0 
 -1.318413e-02  -1.914884e-02  0 
 -4.735657e-02  -3.870352e-02  0 
 -4.102229e-02  -5.494859e-02  0 
 -4.097357e-02  -4.476037e-02  0 
 -4.984768e-02  -4.979212e-02  0 
 -4.025872e-02  -6.232154e-02  0 
 -4.011232e-02  -3.682764e-02  0 
 -1.440301e-02  -2.831953e-02  0 
 -1.997075e-02  -3.847677e-02  0 
 -1.590181e-02  -3.467333e-02  0 
 -2.856664e-02  -4.563105e-02  0 
 -3.097543e-02  -5.355976e-02  0 
 -2.435403e-02  -4.455259e-02  0 
 -1.907123e-02  -3.651160e-02  0 
 -3.133631e-02  -5.044381e-02  0 
 -3.548347e-02  -5.947963e-02  0 
 -2.118374e-02  -2.706400e-02  0 
 -2.767374e-02  -3.775874e-02  0 
VECTORS displacement_ITER6 FLOAT
 -2.687351e-02  -2.766282e-02  0 
 -2.750142e-02  -5.300665e-02  0 
 -2.677573e-02  -1.547962e-02  0 
 -3.354272e-02  -2.784309e-02  0 
 -1.466763e-02  -2.752848e-02  0 
 -2.687130e-03  -2.738999e-02  0 
 -1.875717e-02  -3.749164e-02  0 
 -2.706077e-02  -3.431168e-02  0 
 -2.722643e-02  -4.072959e-02  0 
 -2.740012e-02  -4.690836e-02  0 
 -2.477700e-02  -6.379628e-06  0 
 -2.796236e-02  -1.627889e-02  0 
 -1.728323e-02  -1.516745e-02  0 
 -8.185435e-03  -1.778425e-02  0 
 -3.585943e-02  -3.349327e-02  0 
 -3.165299e-02  -4.425842e-02  0 
 -3.160803e-02  -3.752856e-02  0 
 -3.749329e-02  -4.086396e-02  0 
 -3.117594e-02  -4.902869e-02  0 
 -3.101642e-02  -3.222526e-02  0 
 -1.216418e-02  -2.431480e-02  0 
 -1.480173e-02  -3.386541e-02  0 
 -1.188757e-02  -2.957149e-02  0 
 -2.254022e-02  -3.886821e-02  0 
 -2.539486e-02  -4.367182e-02  0 
 -1.978207e-02  -3.702818e-02  0 
 -1.643066e-02  -2.883219e-02  0 
 -2.780603e-02  -3.914435e-02  0 
 -3.039810e-02  -4.631002e-02  0 
 -2.627075e-02  -2.604365e-02  0 
 -2.143971e-02  -3.339180e-02  0 
VECTORS displacement_ITER7 FLOAT
 -1.927826e-02  -1.531516e-02  0 
 -1.995109e-02  -2.542145e-02  0 
 -1.916533e-02  -8.119874e-03  0 
 -2.216843e-02  -1.550836e-02  0 
 -1.205177e-02  -1.516399e-02  0 
 -5.073183e-03  -1.500644e-02  0 
 1.780633e-04  -7.701395e-03  0 
 -1.948344e-02  -1.817774e-02  0 
 -1.966233e-02  -2.079042e-02  0 
 -1.984728e-02  -2.314653e-02  0 
 -1.837727e-02  5.864848e-03  0 
 -1.926437e-02  -7.313886e-03  0 
 -1.356326e-02  -7.894575e-03  0 
 -8.245430e-03  -9.430359e-03  0 
 -2.311934e-02  -1.790375e-02  0 
 -2.143036e-02  -2.221504e-02  0 
 -2.138845e-02  -1.954954e-02  0 
 -2.375299e-02  -2.089197e-02  0 
 -2.128698e-02  -2.396409e-02  0 
 -2.111727e-02  -1.735432e-02  0 
 -6.231691e-03  -1.507839e-02  0 
 -1.295612e-02  -1.928084e-02  0 
 -1.028309e-02  -1.801417e-02  0 
 -1.776822e-02  -2.157713e-02  0 
 -1.990727e-02  -2.392149e-02  0 
 -1.634614e-02  -2.183606e-02  0 
 -1.316690e-02  -1.694682e-02  0 
 -2.316758e-02  -2.189413e-02  0 
 -2.403284e-02  -2.352420e-02  0 
 6.326779e-03  -1.605440e-02  0 
 -1.664692e-02  -1.867409e-02  0 
VECTORS displacement_ITER8 FLOAT
 -2.218591e-02  -1.319852e-02  0 
 -2.288099e-02  -1.337222e-02  0 
 -2.206065e-02  -9.746940e-03  0 
 -2.260889e-02  -1.339720e-02  0 
 -1.869295e-02  -1.303850e-02  0 
 -1.546053e-02  -1.287149e-02  0 
 1.493918e-03  2.117366e-03  0 
 -2.240229e-02  -1.358651e-02  0 
 -2.258845e-02  -1.371619e-02  0 
 -2.277812e-02  -1.358265e-02  0 
 -2.127676e-02  6.206629e-04  0 
 -2.137615e-02  -8.084095e-03  0 
 -1.937780e-02  -9.585673e-03  0 
 -1.689257e-02  -1.031135e-02  0 
 -2.266902e-02  -1.366754e-02  0 
 -2.262351e-02  -1.376874e-02  0 
 -2.258276e-02  -1.375382e-02  0 
 -2.265186e-02  -1.379714e-02  0 
 -2.269755e-02  -1.355198e-02  0 
 -2.252031e-02  -1.358770e-02  0 
 -1.139944e-02  -1.559779e-02  0 
 -2.013940e-02  -1.566454e-02  0 
 -1.775075e-02  -1.655391e-02  0 
 -2.274638e-02  -1.619923e-02  0 
 -2.430603e-02  -1.708558e-02  0 
 -2.235893e-02  -1.801925e-02  0 
 -1.931899e-02  -1.558833e-02  0 
 -2.796134e-02  -1.748581e-02  0 
 -2.748427e-02  -1.502872e-02  0 
 1.537707e-02  -1.718547e-02  0 
 -2.162693e-02  -1.496678e-02  0 
VECTORS displacement_ITER9 FLOAT
 -1.350005e-02  -8.922479e-03  0 
 -1.422429e-02  -1.492556e-02  0 
 -1.336357e-02  -4.622883e-03  0 
 -1.540336e-02  -9.117808e-03  0 
 -9.143856e-03  -8.762920e-03  0 
 -5.063719e-03  -8.599312e-03  0 
 -9.761512e-03  -1.544547e-02  0 
 -1.372648e-02  -1.077588e-02  0 
 -1.392004e-02  -1.236887e-02  0 
 -1.411835e-02  -1.368943e-02  0 
 -1.796378e-02  8.152931e-03  0 
 -1.494218e-02  -3.504711e-03  0 
 -1.001680e-02  -4.436851e-03  0 
 -6.889394e-03  -5.351546e-03  0 
 -1.598875e-02  -1.065343e-02  0 
 -1.497519e-02  -1.323171e-02  0 
 -1.492950e-02  -1.166051e-02  0 
 -1.635538e-02  -1.247166e-02  0 
 -1.492524e-02  -1.415411e-02  0 
 -1.473946e-02  -1.029628e-02  0 
 -7.805000e-03  -9.662797e-03  0 
 -1.020161e-02  -1.156720e-02  0 
 -8.851664e-03  -1.063024e-02  0 
 -1.323642e-02  -1.314549e-02  0 
 -1.513965e-02  -1.461232e-02  0 
 -1.307988e-02  -1.318717e-02  0 
 -1.153620e-02  -9.293079e-03  0 
 -1.862444e-02  -1.317502e-02  0 
 -1.840018e-02  -1.402176e-02  0 
 -9.598066e-03  -1.503256e-02  0 
 -1.221304e-02  -1.121817e-02  0 
VECTORS displacement_ITER10 FLOAT
 -6.723028e-03  -1.619514e-03  0 
 -7.456809e-03  -1.135045e-02  0 
 -6.576757e-03  2.360603e-03  0 
 -9.571536e-03  -1.810335e-03  0 
 -2.671312e-03  -1.461660e-03  0 
 1.091897e-03  -1.298720e-03  0 
 -1.125697e-02  -1.629014e-02  0 
 -6.956257e-03  -4.404434e-03  0 
 -7.152757e-03  -6.930758e-03  0 
 -7.352570e-03  -9.183869e-03  0 
 -1.490542e-02  1.559917e-02  0 
 -9.677447e-03  3.207407e-03  0 
 -3.476440e-03  2.547424e-03  0 
 -5.869051e-04  1.696654e-03  0 
 -1.049202e-02  -4.151814e-03  0 
 -8.860026e-03  -8.310684e-03  0 
 -8.811302e-03  -5.745872e-03  0 
 -1.110434e-02  -7.046928e-03  0 
 -8.729191e-03  -9.965550e-03  0 
 -8.539815e-03  -3.618873e-03  0 
 -3.615373e-03  -2.357991e-03  0 
 -3.407097e-03  -4.343610e-03  0 
 -2.544968e-03  -3.085586e-03  0 
 -6.175452e-03  -6.506343e-03  0 
 -7.879148e-03  -8.571612e-03  0 
 -5.996414e-03  -6.069790e-03  0 
 -5.045653e-03  -2.361183e-03  0 
 -1.052108e-02  -6.983850e-03  0 
 -1.063252e-02  -9.166035e-03  0 
 -1.669303e-02  -8.908792e-03  0 
 -5.339778e-03  -4.136066e-03  0 
VECTORS displacement_ITER11 FLOAT
 -8.857223e-03  -3.947259e-03  0 
 -9.589515e-03  -7.234283e-03  0 
 -8.702606e-03  -3.162827e-03  0 
 -1.009822e-02  -4.140157e-03  0 
 -7.988851e-03  -3.787248e-03  0 
 -7.419028e-03  -3.613573e-03  0 
 -3.621213e-04  1.976508e-03  0 
 -9.096103e-03  -5.117476e-03  0 
 -9.293600e-03  -6.029109e-03  0 
 -9.489934e-03  -6.672630e-03  0 
 -1.384497e-02  3.199234e-03  0 
 -1.042392e-02  -2.073652e-03  0 
 -8.092184e-03  -3.031967e-03  0 
 -7.613735e-03  -3.193259e-03  0 
 -1.044068e-02  -5.095190e-03  0 
 -9.876636e-03  -6.517600e-03  0 
 -9.828907e-03  -5.674013e-03  0 
 -1.063172e-02  -6.130956e-03  0 
 -9.883974e-03  -6.905491e-03  0 
 -9.693351e-03  -4.868720e-03  0 
 -5.738158e-03  -5.494239e-03  0 
 -8.938020e-03  -5.406497e-03  0 
 -8.273921e-03  -5.884451e-03  0 
 -9.805623e-03  -6.404432e-03  0 
 -1.089110e-02  -7.486820e-03  0 
 -1.029296e-02  -7.075425e-03  0 
 -9.354168e-03  -5.439325e-03  0 
 -1.361629e-02  -7.123491e-03  0 
 -1.287136e-02  -7.013157e-03  0 
 4.414343e-03  -7.363131e-03  0 
 -9.085171e-03  -5.215210e-03  0 
VECTORS displacement_ITER12 FLOAT
 -8.208320e-03  -4.315911e-04  0 
 -8.941513e-03  -1.236626e-03  0 
 -8.046716e-03  -1.113542e-03  0 
 -8.832159e-03  -6.232175e-04  0 
 -8.793325e-03  -2.738996e-04  0 
 -9.684314e-03  -9.682159e-05  0 
 1.549027e-03  1.136303e-02  0 
 -8.451675e-03  -9.761802e-04  0 
 -8.650273e-03  -1.264634e-03  0 
 -8.844680e-03  -1.289546e-03  0 
 -1.088249e-02  1.618846e-04  0 
 -9.046620e-03  -2.498854e-04  0 
 -8.577117e-03  -1.005901e-03  0 
 -9.200423e-03  -8.536898e-04  0 
 -8.952484e-03  -1.043744e-03  0 
 -8.801192e-03  -1.410334e-03  0 
 -8.752393e-03  -1.230619e-03  0 
 -8.982453e-03  -1.363064e-03  0 
 -8.862065e-03  -1.312180e-03  0 
 -8.668097e-03  -9.359625e-04  0 
 -6.838425e-03  -1.573908e-03  0 
 -9.777324e-03  -1.147653e-03  0 
 -9.628273e-03  -1.896718e-03  0 
 -9.747888e-03  -1.710710e-03  0 
 -1.063769e-02  -2.255984e-03  0 
 -1.074241e-02  -2.387371e-03  0 
 -1.034195e-02  -1.486014e-03  0 
 -1.340648e-02  -2.010975e-03  0 
 -1.222313e-02  -1.512051e-03  0 
 7.927631e-03  -1.556487e-03  0 
 -9.101114e-03  -1.085562e-03  0 
VECTORS displacement_ITER13 FLOAT
 -3.410464e-03  1.460879e-03  0 
 -4.144561e-03  -8.151636e-03  0 
 -3.242917e-03  3.178928e-03  0 
 -6.241033e-03  1.278756e-03  0 
 -1.579611e-03  1.607820e-03  0 
 -5.824509e-05  1.775454e-03  0 
 -5.365158e-03  -3.946689e-03  0 
 -3.656617e-03  -1.277048e-03  0 
 -3.855723e-03  -3.766305e-03  0 
 -4.049147e-03  -5.996335e-03  0 
 -8.044904e-03  5.262821e-03  0 
 -5.805775e-03  2.986017e-03  0 
 -1.897867e-03  3.338103e-03  0 
 -6.958414e-04  2.963886e-03  0 
 -7.151827e-03  -1.033882e-03  0 
 -5.545170e-03  -5.130018e-03  0 
 -5.490857e-03  -2.603821e-03  0 
 -7.760427e-03  -3.889620e-03  0 
 -5.416341e-03  -6.771124e-03  0 
 -5.217184e-03  -5.106049e-04  0 
 -2.321768e-03  3.876930e-04  0 
 -1.997445e-03  -5.314358e-04  0 
 -1.674957e-03  -1.166751e-04  0 
 -3.319927e-03  -2.540459e-03  0 
 -4.221863e-03  -4.691279e-03  0 
 -3.253914e-03  -2.439141e-03  0 
 -2.733258e-03  -7.207212e-04  0 
 -5.318600e-03  -4.216910e-03  0 
 -5.563079e-03  -6.219981e-03  0 
 -9.045414e-03  -2.758249e-03  0 
 -2.830330e-03  -4.622533e-04  0 
VECTORS displacement_ITER14 FLOAT
 -2.469970e-03  2.362883e-03  0 
 -3.199803e-03  -7.927261e-03  0 
 -2.296763e-03  4.219074e-03  0 
 -5.468746e-03  2.188331e-03  0 
 -4.848253e-04  2.499916e-03  0 
 1.190232e-03  2.663550e-03  0 
 -4.689166e-03  -4.016261e-03  0 
 -2.718219e-03  -5.323291e-04  0 
 -2.916964e-03  -3.186886e-03  0 
 -3.107057e-03  -5.590388e-03  0 
 -5.228953e-03  3.049260e-03  0 
 -4.552256e-03  3.548392e-03  0 
 -8.401126e-04  4.385444e-03  0 
 4.799504e-04  3.975366e-03  0 
 -6.440379e-03  -2.664899e-04  0 
 -4.726054e-03  -4.644225e-03  0 
 -4.668663e-03  -1.939961e-03  0 
 -7.095565e-03  -3.314440e-03  0 
 -4.583385e-03  -6.425826e-03  0 
 -4.378772e-03  2.867733e-04  0 
 -1.073353e-03  9.659594e-04  0 
 -7.654601e-04  2.969076e-04  0 
 -3.005003e-04  6.089956e-04  0 
 -2.163701e-03  -1.789822e-03  0 
 -2.898018e-03  -4.155873e-03  0 
 -1.779336e-03  -1.778196e-03  0 
 -1.073917e-03  -3.348658e-04  0 
 -3.293943e-03  -4.076106e-03  0 
 -3.918986e-03  -6.174110e-03  0 
 -9.260833e-03  -2.100621e-03  0 
 -1.747085e-03  3.866338e-04  0 
VECTORS displacement_ITER15 FLOAT
 -3.401567e-03  1.396077e-03  0 
 -4.117367e-03  -4.750318e-03  0 
 -3.226247e-03  9.120558e-04  0 
 -5.355016e-03  1.223310e-03  0 
 -3.749758e-03  1.528902e-03  0 
 -4.406201e-03  1.695687e-03  0 
 3.433433e-03  9.003411e-03  0 
 -3.649766e-03  -4.507865e-04  0 
 -3.845934e-03  -2.062684e-03  0 
 -4.029187e-03  -3.434355e-03  0 
 -2.772152e-03  -3.531439e-03  0 
 -3.949156e-03  9.418004e-04  0 
 -3.593511e-03  1.033516e-03  0 
 -4.034956e-03  1.127648e-03  0 
 -5.953850e-03  -3.329274e-04  0 
 -4.931121e-03  -2.945168e-03  0 
 -4.873898e-03  -1.349852e-03  0 
 -6.338300e-03  -2.179660e-03  0 
 -4.877771e-03  -3.919557e-03  0 
 -4.671888e-03  2.205666e-05  0 
 -1.898502e-03  -1.121042e-03  0 
 -4.280898e-03  2.706745e-05  0 
 -3.836432e-03  -1.066905e-03  0 
 -4.338260e-03  -1.358130e-03  0 
 -4.643953e-03  -3.322969e-03  0 
 -4.440162e-03  -2.478629e-03  0 
 -3.245548e-03  -2.801871e-03  0 
 -4.937759e-03  -5.046576e-03  0 
 -5.019221e-03  -4.797072e-03  0 
 6.744990e-03  -9.668614e-04  0 
 -3.937647e-03  1.579352e-04  0 
VECTORS displacement_ITER16 FLOAT
 -3.285372e-05  7.162289e-04  0 
 -7.549188e-04  -1.068791e-02  0 
 1.435288e-04  1.930937e-03  0 
 -3.308544e-03  5.482587e-04  0 
 1.323013e-03  8.432648e-04  0 
 2.367451e-03  1.005691e-03  0 
 -3.105205e-03  -3.676034e-03  0 
 -2.828491e-04  -2.445980e-03  0 
 -4.799631e-04  -5.375190e-03  0 
 -6.648552e-04  -8.062008e-03  0 
 -2.766870e-03  2.912142e-03  0 
 -1.879640e-03  1.847476e-03  0 
 1.102432e-03  2.085396e-03  0 
 1.948898e-03  1.807978e-03  0 
 -4.379491e-03  -2.141582e-03  0 
 -2.483611e-03  -6.985410e-03  0 
 -2.424732e-03  -3.986907e-03  0 
 -5.107984e-03  -5.504830e-03  0 
 -2.316046e-03  -8.995212e-03  0 
 -2.110060e-03  -1.537943e-03  0 
 -1.115222e-05  3.227557e-04  0 
 1.026969e-03  -1.224455e-03  0 
 1.012486e-03  -6.243365e-04  0 
 1.875916e-06  -3.580665e-03  0 
 -7.431552e-04  -6.148737e-03  0 
 -5.334957e-05  -3.392716e-03  0 
 4.896357e-04  -2.147828e-03  0 
 -1.205961e-03  -6.374019e-03  0 
 -1.538549e-03  -8.554567e-03  0 
 -9.607736e-03  4.265430e-04  0 
 4.198003e-04  -1.269564e-03  0 
VECTORS displacement_ITER17 FLOAT
 -1.269968e-03  4.998533e-04  0 
 -1.986496e-03  -7.338452e-03  0 
 -1.093445e-03  3.263747e-04  0 
 -3.649056e-03  3.301386e-04  0 
 -1.301664e-03  6.263302e-04  0 
 -1.641106e-03  7.908660e-04  0 
 6.533214e-04  3.314039e-03  0 
 -1.519845e-03  -1.766957e-03  0 
 -1.715968e-03  -3.801599e-03  0 
 -1.897973e-03  -5.598171e-03  0 
 -1.471915e-03  -4.721627e-04  0 
 -1.964100e-03  7.214694e-04  0 
 -1.217509e-03  4.535553e-04  0 
 -1.417836e-03  4.770103e-04  0 
 -4.399715e-03  -1.589660e-03  0 
 -3.096772e-03  -4.917799e-03  0 
 -3.038789e-03  -2.871947e-03  0 
 -4.894622e-03  -3.921756e-03  0 
 -3.006178e-03  -6.228711e-03  0 
 -2.800018e-03  -1.155313e-03  0 
 -1.197808e-03  -5.026595e-04  0 
 -1.792561e-03  -8.980386e-04  0 
 -1.822597e-03  -1.131215e-03  0 
 -2.024314e-03  -2.649731e-03  0 
 -2.550537e-03  -4.737075e-03  0 
 -2.410767e-03  -3.120303e-03  0 
 -1.646178e-03  -2.893390e-03  0 
 -3.076701e-03  -5.963146e-03  0 
 -3.024452e-03  -6.531767e-03  0 
 -1.220287e-03  1.366728e-03  0 
 -1.594826e-03  -9.163305e-04  0 
VECTORS displacement_ITER18 FLOAT
 -6.671954e-04  6.851421e-04  0 
 -1.383871e-03  -6.508678e-03  0 
 -4.907159e-04  7.093977e-04  0 
 -2.885937e-03  5.156349e-04  0 
 -5.003127e-04  8.095461e-04  0 
 -6.368533e-04  9.711454e-04  0 
 -1.246725e-03  -8.713916e-04  0 
 -9.172028e-04  -1.420684e-03  0 
 -1.113306e-03  -3.294440e-03  0 
 -1.295129e-03  -4.930270e-03  0 
 -7.635260e-04  9.580058e-04  0 
 -1.241918e-03  1.198370e-03  0 
 -4.607254e-04  8.403784e-04  0 
 -5.090426e-04  8.208436e-04  0 
 -3.578794e-03  -1.266162e-03  0 
 -2.381946e-03  -4.321513e-03  0 
 -2.324379e-03  -2.447272e-03  0 
 -4.031212e-03  -3.412178e-03  0 
 -2.304794e-03  -5.505827e-03  0 
 -2.099236e-03  -8.623513e-04  0 
 -7.110912e-04  -6.139030e-04  0 
 -9.427055e-04  -6.413065e-04  0 
 -8.824942e-04  -8.753574e-04  0 
 -1.291328e-03  -2.268032e-03  0 
 -1.771147e-03  -4.245031e-03  0 
 -1.487148e-03  -2.738661e-03  0 
 -6.477254e-04  -2.628303e-03  0 
 -1.897187e-03  -5.685364e-03  0 
 -2.118365e-03  -6.046285e-03  0 
 -4.051675e-03  3.721721e-05  0 
 -8.809357e-04  -6.490579e-04  0 
VECTORS displacement_ITER19 FLOAT
 -3.372873e-04  1.725178e-04  0 
 -1.054236e-03  -5.213945e-03  0 
 -1.612778e-04  -7.695745e-05  0 
 -2.106155e-03  2.571616e-06  0 
 -4.444104e-04  2.965884e-04  0 
 -8.532687e-04  4.584844e-04  0 
 -2.609104e-05  -4.748691e-05  0 
 -5.873109e-04  -1.483272e-03  0 
 -7.830768e-04  -2.906424e-03  0 
 -9.647654e-04  -4.090952e-03  0 
 -8.028236e-04  1.460072e-03  0 
 -7.785436e-04  6.805572e-04  0 
 -3.449076e-04  4.811264e-05  0 
 -5.993489e-04  8.800520e-05  0 
 -2.636825e-03  -1.392042e-03  0 
 -1.736617e-03  -3.683817e-03  0 
 -1.680737e-03  -2.290105e-03  0 
 -2.970273e-03  -3.017758e-03  0 
 -1.697127e-03  -4.512033e-03  0 
 -1.494358e-03  -1.073947e-03  0 
 -4.080790e-04  -8.894253e-04  0 
 -9.017768e-04  -8.038881e-04  0 
 -8.843578e-04  -1.098150e-03  0 
 -1.094497e-03  -2.126937e-03  0 
 -1.561130e-03  -3.690945e-03  0 
 -1.363519e-03  -2.547334e-03  0 
 -6.177260e-04  -2.521368e-03  0 
 -1.757202e-03  -4.921715e-03  0 
 -1.930755e-03  -5.075266e-03  0 
 -1.755295e-03  1.218822e-04  0 
 -6.879159e-04  -8.555012e-04  0 
VECTORS displacement_ITER20 FLOAT
 -1.077777e-04  2.284287e-04  0 
 -8.231280e-04  -4.681421e-03  0 
 6.789033e-05  4.606746e-06  0 
 -1.756784e-03  6.130547e-05  0 
 -1.872879e-04  3.494181e-04  0 
 -5.653442e-04  5.087768e-04  0 
 -3.239311e-04  -7.693954e-04  0 
 -3.565633e-04  -1.305997e-03  0 
 -5.511845e-04  -2.610892e-03  0 
 -7.323697e-04  -3.678607e-03  0 
 -8.083979e-04  2.060748e-03  0 
 -5.684677e-04  8.396632e-04  0 
 -9.515244e-05  1.298705e-04  0 
 -3.267768e-04  1.632711e-04  0 
 -2.244865e-03  -1.230752e-03  0 
 -1.422435e-03  -3.323224e-03  0 
 -1.367032e-03  -2.054505e-03  0 
 -2.547867e-03  -2.720060e-03  0 
 -1.392218e-03  -4.059811e-03  0 
 -1.190851e-03  -9.357907e-04  0 
 -2.344241e-04  -7.442736e-04  0 
 -6.120915e-04  -6.255532e-04  0 
 -5.945291e-04  -8.659443e-04  0 
 -8.242015e-04  -1.863212e-03  0 
 -1.310051e-03  -3.269141e-03  0 
 -1.064042e-03  -2.161740e-03  0 
 -3.913991e-04  -2.029860e-03  0 
 -1.510902e-03  -4.195982e-03  0 
 -1.754982e-03  -4.505884e-03  0 
 -1.805596e-03  -2.415541e-04  0 
 -4.267848e-04  -7.049392e-04  0 
VECTORS displacement_ITER21 FLOAT
 -5.175657e-04  2.233935e-04  0 
 -1.228578e-03  -4.186856e-03  0 
 -3.421656e-04  3.273717e-06  0 
 -2.038851e-03  6.057843e-05  0 
 -5.900012e-04  3.402609e-04  0 
 -9.582000e-04  4.970619e-04  0 
 -7.523313e-04  -2.433340e-04  0 
 -7.642019e-04  -1.181089e-03  0 
 -9.566687e-04  -2.361335e-03  0 
 -1.136372e-03  -3.308083e-03  0 
 -1.272353e-03  1.714639e-03  0 
 -9.905197e-04  7.510646e-04  0 
 -5.011130e-04  1.285041e-04  0 
 -7.251729e-04  1.595464e-04  0 
 -2.482095e-03  -1.122178e-03  0 
 -1.741919e-03  -3.005619e-03  0 
 -1.686829e-03  -1.867597e-03  0 
 -2.753748e-03  -2.468149e-03  0 
 -1.721256e-03  -3.648381e-03  0 
 -1.521471e-03  -8.521074e-04  0 
 -7.564908e-04  -3.283588e-04  0 
 -9.830063e-04  -4.632797e-04  0 
 -1.035543e-03  -5.525930e-04  0 
 -1.198133e-03  -1.622949e-03  0 
 -1.719522e-03  -2.834641e-03  0 
 -1.469903e-03  -1.728277e-03  0 
 -9.226215e-04  -1.453944e-03  0 
 -1.988464e-03  -3.388435e-03  0 
 -2.240816e-03  -3.903845e-03  0 
 -1.993680e-03  2.103677e-04  0 
 -8.084887e-04  -5.950711e-04  0 
VECTORS displacement_ITER22 FLOAT
 -5.636650e-04  -8.007820e-05  0 
 -1.270408e-03  -4.119680e-03  0 
 -3.879869e-04  -1.261605e-04  0 
 -1.988923e-03  -2.379262e-04  0 
 -4.571270e-04  3.174802e-05  0 
 -6.441286e-04  1.855393e-04  0 
 -6.726622e-04  -1.018714e-04  0 
 -8.083581e-04  -1.385377e-03  0 
 -9.987412e-04  -2.472420e-03  0 
 -1.176747e-03  -3.330657e-03  0 
 -1.055637e-03  6.928537e-04  0 
 -1.007181e-03  3.908546e-04  0 
 -4.095188e-04  2.886786e-06  0 
 -4.960944e-04  -5.907814e-06  0 
 -2.398814e-03  -1.338380e-03  0 
 -1.720630e-03  -3.066420e-03  0 
 -1.665250e-03  -2.025274e-03  0 
 -2.647840e-03  -2.577742e-03  0 
 -1.707242e-03  -3.641622e-03  0 
 -1.507763e-03  -1.087366e-03  0 
 -7.137133e-04  -2.689904e-04  0 
 -8.147083e-04  -6.865529e-04  0 
 -8.888104e-04  -6.226889e-04  0 
 -1.121484e-03  -1.772505e-03  0 
 -1.656769e-03  -2.834211e-03  0 
 -1.347290e-03  -1.736884e-03  0 
 -8.923965e-04  -1.364649e-03  0 
 -1.901137e-03  -3.153597e-03  0 
 -2.202473e-03  -3.792882e-03  0 
 -1.948180e-03  2.852824e-04  0 
 -7.452845e-04  -8.367501e-04  0 
VECTORS displacement_ITER23 FLOAT
 -5.231556e-04  -3.689589e-04  0 
 -1.227814e-03  -4.028287e-03  0 
 -3.472267e-04  -2.816945e-04  0 
 -1.852264e-03  -5.231291e-04  0 
 -2.792251e-04  -2.612807e-04  0 
 -3.271360e-04  -1.098772e-04  0 
 -9.755457e-04  -1.468913e-05  0 
 -7.665328e-04  -1.575367e-03  0 
 -9.553054e-04  -2.567978e-03  0 
 -1.132273e-03  -3.334736e-03  0 
 -7.149753e-04  -1.393405e-05  0 
 -8.951641e-04  8.509465e-05  0 
 -2.634228e-04  -1.497560e-04  0 
 -2.443477e-04  -1.892212e-04  0 
 -2.228270e-03  -1.540570e-03  0 
 -1.612135e-03  -3.110458e-03  0 
 -1.557005e-03  -2.168247e-03  0 
 -2.453558e-03  -2.671229e-03  0 
 -1.605688e-03  -3.614827e-03  0 
 -1.407633e-03  -1.308718e-03  0 
 -8.944337e-04  -6.470769e-05  0 
 -6.188115e-04  -8.697240e-04  0 
 -8.009288e-04  -5.735881e-04  0 
 -9.844243e-04  -1.881541e-03  0 
 -1.572737e-03  -2.739115e-03  0 
 -1.267298e-03  -1.617435e-03  0 
 -1.049722e-03  -1.023641e-03  0 
 -2.004835e-03  -2.606662e-03  0 
 -2.215109e-03  -3.495913e-03  0 
 -2.230158e-03  3.930083e-04  0 
 -6.159087e-04  -1.054015e-03  0 
VECTORS displacement_ITER24 FLOAT
 -4.781640e-04  -8.384161e-04  0 
 -1.179266e-03  -4.555758e-03  0 
 -3.015977e-04  -7.122389e-04  0 
 -1.818430e-03  -9.883054e-04  0 
 -1.898269e-04  -7.363490e-04  0 
 -1.900115e-04  -5.885094e-04  0 
 -8.750471e-04  1.415614e-04  0 
 -7.199324e-04  -2.052682e-03  0 
 -9.064442e-04  -3.059388e-03  0 
 -1.081352e-03  -3.845620e-03  0 
 2.460212e-04  -1.597893e-03  0 
 -6.228157e-04  -4.793480e-04  0 
 -1.858958e-04  -5.789557e-04  0 
 -1.306804e-04  -6.290859e-04  0 
 -2.199822e-03  -2.014802e-03  0 
 -1.574742e-03  -3.610861e-03  0 
 -1.519293e-03  -2.651088e-03  0 
 -2.430557e-03  -3.161718e-03  0 
 -1.565883e-03  -4.133350e-03  0 
 -1.368594e-03  -1.781755e-03  0 
 -9.348082e-04  -4.257999e-04  0 
 -4.904617e-04  -1.314438e-03  0 
 -7.121344e-04  -9.582294e-04  0 
 -8.589204e-04  -2.303819e-03  0 
 -1.444188e-03  -3.085594e-03  0 
 -1.136746e-03  -1.930055e-03  0 
 -1.083433e-03  -1.240982e-03  0 
 -1.963448e-03  -2.585032e-03  0 
 -2.154553e-03  -3.739530e-03  0 
 -1.387450e-03  -3.272254e-04  0 
 -5.184108e-04  -1.504538e-03  0 
VECTORS displacement_ITER25 FLOAT
 -7.541567e-04  -8.306897e-04  0 
 -1.448935e-03  -4.281259e-03  0 
 -5.773455e-04  -7.610787e-04  0 
 -2.023190e-03  -9.773614e-04  0 
 -5.189438e-04  -7.327704e-04  0 
 -5.677641e-04  -5.884173e-04  0 
 -8.954526e-04  -3.590529e-04  0 
 -9.940733e-04  -1.971674e-03  0 
 -1.178070e-03  -2.910041e-03  0 
 -1.350162e-03  -3.633657e-03  0 
 1.251377e-04  -1.788690e-03  0 
 -8.174288e-04  -5.626805e-04  0 
 -5.049358e-04  -6.286368e-04  0 
 -4.874202e-04  -6.677667e-04  0 
 -2.379971e-03  -1.942161e-03  0 
 -1.800387e-03  -3.424685e-03  0 
 -1.744928e-03  -2.535329e-03  0 
 -2.594167e-03  -3.010398e-03  0 
 -1.796352e-03  -3.900875e-03  0 
 -1.600259e-03  -1.723442e-03  0 
 -9.311086e-04  -8.079357e-04  0 
 -7.673897e-04  -1.271084e-03  0 
 -8.688026e-04  -1.109458e-03  0 
 -1.098339e-03  -2.177891e-03  0 
 -1.588499e-03  -2.934673e-03  0 
 -1.228444e-03  -1.908827e-03  0 
 -1.094920e-03  -1.383160e-03  0 
 -1.872214e-03  -2.490756e-03  0 
 -2.219271e-03  -3.584115e-03  0 
 -9.762533e-04  -1.061507e-03  0 
 -7.975268e-04  -1.436102e-03  0 
VECTORS displacement_ITER26 FLOAT
 -9.392990e-04  -7.288885e-04  0 
 -1.630162e-03  -3.538847e-03  0 
 -7.624223e-04  -7.197934e-04  0 
 -2.044018e-03  -8.722392e-04  0 
 -7.617315e-04  -6.348430e-04  0 
 -8.634705e-04  -4.938332e-04  0 
 -7.250721e-04  -9.845463e-04  0 
 -1.177355e-03  -1.703997e-03  0 
 -1.359414e-03  -2.481158e-03  0 
 -1.529849e-03  -3.048161e-03  0 
 -7.543405e-05  -1.512444e-03  0 
 -9.449499e-04  -5.240374e-04  0 
 -7.365501e-04  -5.884566e-04  0 
 -7.600695e-04  -6.155094e-04  0 
 -2.342939e-03  -1.696158e-03  0 
 -1.870812e-03  -2.907884e-03  0 
 -1.815105e-03  -2.188002e-03  0 
 -2.516572e-03  -2.579505e-03  0 
 -1.880205e-03  -3.262946e-03  0 
 -1.684227e-03  -1.509117e-03  0 
 -8.003144e-04  -1.060027e-03  0 
 -9.957876e-04  -1.114413e-03  0 
 -9.828213e-04  -1.152639e-03  0 
 -1.287861e-03  -1.876521e-03  0 
 -1.705304e-03  -2.536688e-03  0 
 -1.314264e-03  -1.734341e-03  0 
 -1.123411e-03  -1.356753e-03  0 
 -1.865573e-03  -2.158134e-03  0 
 -2.288903e-03  -3.075999e-03  0 
 -9.290174e-04  -1.295671e-03  0 
 -1.010182e-03  -1.244418e-03  0 
VECTORS displacement_ITER27 FLOAT
 -8.301814e-04  -1.279815e-03  0 
 -1.519298e-03  -3.010002e-03  0 
 -6.536966e-04  -1.257543e-03  0 
 -1.663169e-03  -1.420909e-03  0 
 -6.380172e-04  -1.188107e-03  0 
 -7.225614e-04  -1.048475e-03  0 
 -1.322241e-04  -1.120837e-03  0 
 -1.066783e-03  -1.982113e-03  0 