# vtk DataFile Version 3.1
this is an vtk file created by FEMAC
ASCII
DATASET UNSTRUCTURED_GRID
POINTS 32 FLOAT
2.000000 6.000000 0.000000
3.000000 6.000000 0.000000
1.500000 6.000000 0.000000
1.750000 6.000000 0.000000
2.000000 5.250000 0.000000
2.000000 5.500000 0.000000
2.000000 5.750000 0.000000
2.250000 6.000000 0.000000
2.500000 6.000000 0.000000
2.750000 6.000000 0.000000
3.000000 5.750000 0.000000
1.500000 5.225000 0.000000
1.828194 5.341416 0.000000
1.808128 5.581646 0.000000
1.399662 5.398247 0.000000
1.630720 5.401594 0.000000
1.507893 5.661856 0.000000
1.761003 5.832250 0.000000
2.779567 5.382160 0.000000
2.630775 5.827766 0.000000
2.755439 5.624066 0.000000
2.824828 5.832129 0.000000
2.612481 5.213004 0.000000
2.512458 5.452138 0.000000
2.226064 5.411783 0.000000
2.371000 5.200321 0.000000
2.336993 5.654341 0.000000
2.536356 5.684027 0.000000
2.137611 5.638225 0.000000
2.396521 5.840189 0.000000
2.186854 5.813792 0.000000
2.169413 5.172421 0.000000
CELLS 43 172 
3 12  4  5
3 6 13  5
3 14 11 15
3 3 17  0
3 17  6  0
3 17 13  6
3 12  5 13
3 12 13 15
3 14 15 16
3 16 15 13
3 2 17  3
3 16 17  2
3 16 13 17
3 19  9  8
3 9 21  1
3 21 10  1
3 19 21  9
3 10 21 20
3 19 20 21
3 23 18 20
3 4 24  5
3 26 24 23
3 22 18 23
3 23 25 22
3 23 24 25
3 27 20 19
3 27 26 23
3 20 27 23
3 8 29 19
3 7 29  8
3 29 27 19
3 26 27 29
3 28  5 24
3 5 28  6
3 26 28 24
3 6 30  0
3 30  7  0
3 30  6 28
3 28 26 30
3 30 29  7
3 26 29 30
3 24 31 25
3 31 24  4
CELL_TYPES 43
5 5 5 5 5 5 5 5 5 5 5 5 5 5 5 5 5 5 5 5 5 5 5 5 5 5 5 5 5 5 5 5 5 5 5 5 5 5 5 5 5 5 5 
POINT_DATA 32
VECTORS displacement_ITER1 FLOAT
 8.934465e-02  -9.459954e-02  0 
 1.809343e-01  -2.185921e-01  0 
 8.927297e-02  -6.190432e-02  0 
 8.930975e-02  -7.824519e-02  0 
 4.045432e-02  -9.438643e-02  0 
 5.667381e-02  -9.449845e-02  0 
 7.298334e-02  -9.456196e-02  0 
 1.093126e-01  -1.309892e-01  0 
 1.289162e-01  -1.565092e-01  0 
 1.538103e-01  -1.835589e-01  0 
 1.425623e-01  -1.946356e-01  0 
 3.854799e-02  -6.181937e-02  0 
 4.632834e-02  -8.327649e-02  0 
 6.197103e-02  -8.201165e-02  0 
 4.994496e-02  -5.525917e-02  0 
 5.019644e-02  -7.041727e-02  0 
 6.720546e-02  -6.239618e-02  0 
 7.834408e-02  -7.893858e-02  0 
 1.067829e-01  -1.165963e-01  0 
 1.217035e-01  -1.534554e-01  0 
 1.100798e-01  -1.458649e-01  0 
 1.398524e-01  -1.753482e-01  0 
 1.022385e-01  -9.910189e-02  0 
 8.579675e-02  -1.169806e-01  0 
 6.393627e-02  -1.047447e-01  0 
 7.947381e-02  -9.138905e-02  0 
 8.341446e-02  -1.187795e-01  0 
 1.000138e-01  -1.339132e-01  0 
 7.154734e-02  -1.048318e-01  0 
 1.036953e-01  -1.341781e-01  0 
 8.569709e-02  -1.119385e-01  0 
 6.054493e-02  -8.251334e-02  0 
VECTORS displacement_ITER2 FLOAT
 7.813173e-02  -8.694741e-02  0 
 1.442393e-01  -1.618644e-01  0 
 7.806361e-02  -6.356027e-02  0 
 7.809852e-02  -7.524694e-02  0 
 4.320100e-02  -8.673669e-02  0 
 5.477066e-02  -8.684664e-02  0 
 6.642482e-02  -8.691146e-02  0 
 9.613278e-02  -1.186860e-01  0 
 1.109211e-01  -1.378424e-01  0 
 1.273105e-01  -1.520325e-01  0 
 1.363104e-01  -1.417093e-01  0 
 4.176224e-02  -6.347766e-02  0 
 4.737704e-02  -7.882098e-02  0 
 5.854738e-02  -7.793260e-02  0 
 4.993541e-02  -5.878524e-02  0 
 5.012428e-02  -6.964047e-02  0 
 6.228974e-02  -6.390694e-02  0 
 7.025549e-02  -7.573663e-02  0 
 9.822561e-02  -1.055831e-01  0 
 1.094213e-01  -1.335419e-01  0 
 1.065639e-01  -1.238697e-01  0 
 1.246933e-01  -1.435412e-01  0 
 9.311361e-02  -9.196673e-02  0 
 8.275225e-02  -1.026507e-01  0 
 6.264232e-02  -9.404203e-02  0 
 7.494868e-02  -8.372020e-02  0 
 7.798382e-02  -1.063606e-01  0 
 9.386139e-02  -1.183365e-01  0 
 6.677663e-02  -9.523597e-02  0 
 9.331519e-02  -1.207588e-01  0 
 7.719312e-02  -1.017752e-01  0 
 5.946469e-02  -7.735535e-02  0 
VECTORS displacement_ITER3 FLOAT
 6.432559e-02  -5.941377e-02  0 
 9.200811e-02  -8.046150e-02  0 
 6.426603e-02  -4.010447e-02  0 
 6.429650e-02  -4.975223e-02  0 
 3.550632e-02  -5.920956e-02  0 
 4.504355e-02  -5.931741e-02  0 
 5.465789e-02  -5.938275e-02  0 
 7.846946e-02  -8.785323e-02  0 
 8.565589e-02  -1.017917e-01  0 
 8.943595e-02  -1.017847e-01  0 
 1.202241e-01  -6.802181e-02  0 
 3.427216e-02  -4.002776e-02  0 
 3.894220e-02  -5.268956e-02  0 
 4.815457e-02  -5.196887e-02  0 
 4.103765e-02  -3.615180e-02  0 
 4.119807e-02  -4.512312e-02  0 
 5.124683e-02  -4.039074e-02  0 
 5.782115e-02  -5.015507e-02  0 
 7.560973e-02  -8.670874e-02  0 
 8.897259e-02  -9.832860e-02  0 
 9.462728e-02  -8.874839e-02  0 
 9.945978e-02  -9.451032e-02  0 
 6.653053e-02  -7.587615e-02  0 
 6.937675e-02  -7.482299e-02  0 
 5.171157e-02  -6.629342e-02  0 
 5.485864e-02  -6.331257e-02  0 
 6.537619e-02  -7.775290e-02  0 
 8.004646e-02  -8.834872e-02  0 
 5.526692e-02  -6.728851e-02  0 
 7.659500e-02  -9.107736e-02  0 
 6.344181e-02  -7.368519e-02  0 
 4.419347e-02  -5.705269e-02  0 
VECTORS displacement_ITER4 FLOAT
 6.009130e-02  -4.898343e-02  0 
 7.661287e-02  -5.681147e-02  0 
 6.003740e-02  -3.358119e-02  0 
 6.006458e-02  -4.127524e-02  0 
 3.712313e-02  -4.878604e-02  0 
 4.471431e-02  -4.889002e-02  0 
 5.237645e-02  -4.895502e-02  0 
 7.305730e-02  -7.482416e-02  0 
 7.814992e-02  -8.713354e-02  0 
 7.809191e-02  -8.444873e-02  0 
 1.091869e-01  -5.050788e-02  0 
 3.609838e-02  -3.351550e-02  0 
 3.985151e-02  -4.360281e-02  0 
 4.718868e-02  -4.304054e-02  0 
 4.150824e-02  -3.042240e-02  0 
 4.163916e-02  -3.758295e-02  0 
 4.965740e-02  -3.380934e-02  0 
 5.489920e-02  -4.159397e-02  0 
 6.469919e-02  -8.312868e-02  0 
 8.172547e-02  -8.501529e-02  0 
 8.766820e-02  -7.811753e-02  0 
 8.968673e-02  -7.873102e-02  0 
 5.310816e-02  -7.296865e-02  0 
 6.347183e-02  -6.607001e-02  0 
 4.943741e-02  -5.577702e-02  0 
 4.559598e-02  -5.864741e-02  0 
 6.183678e-02  -6.603542e-02  0 
 7.471423e-02  -7.702832e-02  0 
 5.315174e-02  -5.596617e-02  0 
 7.150969e-02  -7.835931e-02  0 
 5.991534e-02  -6.184720e-02  0 
 3.922764e-02  -5.235134e-02  0 
VECTORS displacement_ITER5 FLOAT
 3.489347e-02  -2.770229e-02  0 
 7.409951e-02  -4.757339e-02  0 
 3.484517e-02  -2.964169e-02  0 
 3.486842e-02  -2.866478e-02  0 
 3.792689e-02  -2.751106e-02  0 
 3.685346e-02  -2.760992e-02  0 
 3.584833e-02  -2.767403e-02  0 
 4.960544e-02  -4.435901e-02  0 
 5.936912e-02  -5.267818e-02  0 
 6.650208e-02  -5.558571e-02  0 
 7.478377e-02  -4.731397e-02  0 
 3.780712e-02  -2.960266e-02  0 
 3.749248e-02  -2.828331e-02  0 
 3.649875e-02  -2.841510e-02  0 
 3.719219e-02  -2.998886e-02  0 
 3.719899e-02  -2.911836e-02  0 
 3.618775e-02  -2.960199e-02  0 
 3.551927e-02  -2.860376e-02  0 
 5.133875e-02  -4.535032e-02  0 
 6.165901e-02  -4.935975e-02  0 
 6.231824e-02  -4.584530e-02  0 
 6.936704e-02  -5.027121e-02  0 
 4.373512e-02  -3.764108e-02  0 
 4.789681e-02  -3.536589e-02  0 
 4.064079e-02  -2.840978e-02  0 
 3.782942e-02  -3.144617e-02  0 
 4.560357e-02  -3.388619e-02  0 
 5.458258e-02  -4.206374e-02  0 
 3.953335e-02  -2.931878e-02  0 
 5.178122e-02  -4.325456e-02  0 
 4.112257e-02  -3.273505e-02  0 
 3.615770e-02  -3.051528e-02  0 
VECTORS displacement_ITER6 FLOAT
 1.843162e-02  -1.084562e-02  0 
 7.402602e-02  -4.948202e-02  0 
 1.839543e-02  -1.856294e-02  0 
 1.841158e-02  -1.469767e-02  0 
 3.013111e-02  -1.065707e-02  0 
 2.616687e-02  -1.075807e-02  0 
 2.227569e-02  -1.082100e-02  0 
 3.265691e-02  -2.166654e-02  0 
 4.521720e-02  -2.871191e-02  0 
 5.817491e-02  -3.828149e-02  0 
 4.320497e-02  -5.548287e-02  0 
 3.032206e-02  -1.855169e-02  0 
 2.864082e-02  -1.342017e-02  0 
 2.487108e-02  -1.378184e-02  0 
 2.769485e-02  -2.009447e-02  0 
 2.765584e-02  -1.654308e-02  0 
 2.363730e-02  -1.844037e-02  0 
 2.099895e-02  -1.451380e-02  0 
 3.733998e-02  -1.904475e-02  0 
 4.456822e-02  -2.558466e-02  0 
 3.883234e-02  -2.592604e-02  0 
 5.180709e-02  -3.385197e-02  0 
 3.190803e-02  -1.151194e-02  0 
 3.128284e-02  -1.483009e-02  0 
 2.822649e-02  -8.832224e-03  0 
 2.579829e-02  -1.094208e-02  0 
 3.039697e-02  -1.170565e-02  0 
 3.623350e-02  -1.843744e-02  0 
 2.633199e-02  -9.767543e-03  0 
 3.562010e-02  -1.853179e-02  0 
 2.628123e-02  -1.166940e-02  0 
 2.626401e-02  -1.282214e-02  0 
VECTORS displacement_ITER7 FLOAT
 2.199196e-02  -9.736358e-03  0 
 6.206911e-02  -3.735397e-02  0 
 2.197535e-02  -8.834827e-03  0 
 2.198117e-02  -9.280600e-03  0 
 2.078107e-02  -9.543006e-03  0 
 2.111233e-02  -9.656918e-03  0 
 2.152971e-02  -9.719938e-03  0 
 3.115758e-02  -1.922438e-02  0 
 3.948769e-02  -2.522706e-02  0 
 4.875038e-02  -3.161223e-02  0 
 3.419613e-02  -4.766136e-02  0 
 2.052651e-02  -8.841553e-03  0 
 2.085548e-02  -9.361314e-03  0 
 2.122402e-02  -9.377410e-03  0 
 2.088914e-02  -8.650240e-03  0 
 2.090571e-02  -9.084816e-03  0 
 2.137793e-02  -8.858112e-03  0 
 2.167553e-02  -9.293483e-03  0 
 3.210016e-02  -1.765748e-02  0 
 3.874036e-02  -2.293464e-02  0 
 3.400365e-02  -2.383754e-02  0 
 4.395427e-02  -2.773018e-02  0 
 2.580749e-02  -9.589198e-03  0 
 2.638972e-02  -1.432026e-02  0 
 2.203249e-02  -8.822031e-03  0 
 1.904192e-02  -8.724884e-03  0 
 2.686426e-02  -1.252168e-02  0 
 3.191547e-02  -1.775516e-02  0 
 2.315136e-02  -9.901873e-03  0 
 3.208682e-02  -1.788210e-02  0 
 2.517689e-02  -1.204465e-02  0 
 1.801132e-02  -1.031693e-02  0 
VECTORS displacement_ITER8 FLOAT
 2.074933e-02  -1.423461e-02  0 
 3.761669e-02  -1.215910e-02  0 
 2.074911e-02  -8.097219e-03  0 
 2.074634e-02  -1.116232e-02  0 
 1.170892e-02  -1.403009e-02  0 
 1.464107e-02  -1.415824e-02  0 
 1.767286e-02  -1.422394e-02  0 
 2.518267e-02  -2.208623e-02  0 
 2.812306e-02  -2.499257e-02  0 
 3.096572e-02  -2.281099e-02  0 
 3.050840e-02  -2.279662e-02  0 
 1.117259e-02  -8.116557e-03  0 
 1.272742e-02  -1.206757e-02  0 
 1.560575e-02  -1.187552e-02  0 
 1.335213e-02  -6.872141e-03  0 
 1.340355e-02  -9.728620e-03  0 
 1.660206e-02  -8.211723e-03  0 
 1.868298e-02  -1.129637e-02  0 
 2.613156e-02  -1.937854e-02  0 
 3.030240e-02  -2.225582e-02  0 
 3.130804e-02  -2.095827e-02  0 
 3.356440e-02  -1.854129e-02  0 
 1.954447e-02  -1.248963e-02  0 
 2.239580e-02  -1.572970e-02  0 
 1.583565e-02  -1.299279e-02  0 
 1.342533e-02  -1.028257e-02  0 
 2.185662e-02  -1.742644e-02  0 
 2.704123e-02  -1.993316e-02  0 
 1.793245e-02  -1.515283e-02  0 
 2.549330e-02  -2.184442e-02  0 
 2.073798e-02  -1.764053e-02  0 
 1.099302e-02  -1.237124e-02  0 
VECTORS displacement_ITER9 FLOAT
 1.645136e-02  -1.400924e-02  0 
 2.033473e-02  3.753667e-03  0 
 1.645943e-02  -6.366774e-03  0 
 1.645214e-02  -1.018507e-02  0 
 5.167273e-03  -1.379788e-02  0 
 8.843188e-03  -1.393189e-02  0 
 1.262486e-02  -1.400001e-02  0 
 1.887649e-02  -2.110496e-02  0 
 1.905523e-02  -2.246632e-02  0 
 1.806873e-02  -1.569206e-02  0 
 2.786013e-02  -3.298330e-03  0 
 4.555288e-03  -6.396406e-03  0 
 6.455303e-03  -1.132693e-02  0 
 1.005211e-02  -1.107541e-02  0 
 7.250982e-03  -4.850445e-03  0 
 7.311190e-03  -8.397744e-03  0 
 1.128944e-02  -6.510259e-03  0 
 1.388300e-02  -1.035523e-02  0 
 1.761031e-02  -2.082183e-02  0 
 2.280996e-02  -1.973973e-02  0 
 2.707517e-02  -1.739819e-02  0 
 2.492716e-02  -1.140833e-02  0 
 1.038992e-02  -1.483414e-02  0 
 1.692274e-02  -1.450060e-02  0 
 9.978272e-03  -1.268479e-02  0 
 6.301331e-03  -1.041231e-02  0 
 1.631041e-02  -1.728921e-02  0 
 2.155508e-02  -1.891018e-02  0 
 1.241569e-02  -1.517936e-02  0 
 1.904253e-02  -2.144721e-02  0 
 1.528830e-02  -1.780797e-02  0 
 4.181365e-03  -1.227404e-02  0 
VECTORS displacement_ITER10 FLOAT
 1.050935e-02  -1.260089e-02  0 
 2.111559e-02  2.559934e-03  0 
 1.051989e-02  -1.151270e-02  0 
 1.051067e-02  -1.205394e-02  0 
 9.064136e-03  -1.238384e-02  0 
 9.459158e-03  -1.251719e-02  0 
 9.961406e-03  -1.258867e-02  0 
 1.418128e-02  -1.719209e-02  0 
 1.606803e-02  -1.730491e-02  0 
 1.703934e-02  -1.172628e-02  0 
 2.625129e-02  1.128961e-03  0 
 8.797922e-03  -1.155696e-02  0 
 9.153965e-03  -1.216755e-02  0 
 9.596172e-03  -1.217966e-02  0 
 9.208229e-03  -1.132883e-02  0 
 9.221589e-03  -1.183298e-02  0 
 9.779171e-03  -1.155708e-02  0 
 1.013933e-02  -1.208076e-02  0 
 1.408767e-02  -1.650330e-02  0 
 1.996030e-02  -1.399239e-02  0 
 2.359591e-02  -1.171926e-02  0 
 2.243475e-02  -7.269370e-03  0 
 7.694297e-03  -1.181101e-02  0 
 1.503025e-02  -9.639265e-03  0 
 1.049399e-02  -9.135492e-03  0 
 6.138487e-03  -8.268006e-03  0 
 1.423617e-02  -1.205968e-02  0 
 1.877043e-02  -1.315353e-02  0 
 1.102343e-02  -1.190124e-02  0 
 1.589344e-02  -1.588145e-02  0 
 1.196381e-02  -1.380648e-02  0 
 6.323456e-03  -1.145881e-02  0 
VECTORS displacement_ITER11 FLOAT
 -1.127132e-03  -6.012579e-03  0 
 2.330409e-02  -4.767450e-03  0 
 -1.114432e-03  -1.028353e-02  0 
 -1.125364e-03  -8.145411e-03  0 
 5.472798e-03  -5.791149e-03  0 
 3.184597e-03  -5.923948e-03  0 
 1.005684e-03  -5.997768e-03  0 
 4.066015e-03  -8.327031e-03  0 
 8.938582e-03  -8.248431e-03  0 
 1.434745e-02  -7.176211e-03  0 
 1.535200e-02  -2.785289e-03  0 
 5.489508e-03  -1.034046e-02  0 
 4.582436e-03  -7.418588e-03  0 
 2.445326e-03  -7.645976e-03  0 
 4.030608e-03  -1.119013e-02  0 
 4.005522e-03  -9.205399e-03  0 
 1.766116e-03  -1.024730e-02  0 
 3.002234e-04  -8.055109e-03  0 
 5.903581e-03  -5.071105e-03  0 
 1.155750e-02  -4.506519e-03  0 
 1.201389e-02  -2.974391e-03  0 
 1.503479e-02  -2.647916e-03  0 
 1.087377e-03  -1.302556e-03  0 
 6.132252e-03  -4.381970e-04  0 
 4.034303e-03  -9.415277e-04  0 
 4.580481e-04  -5.210670e-04  0 
 5.491864e-03  -2.063433e-03  0 
 9.042554e-03  -2.839521e-03  0 
 3.065730e-03  -3.636229e-03  0 
 6.869583e-03  -5.318608e-03  0 
 2.589147e-03  -4.690852e-03  0 
 2.128688e-03  -4.786967e-03  0 
VECTORS displacement_ITER12 FLOAT
 5.208546e-04  -3.774195e-03  0 
 2.700220e-02  -6.562429e-03  0 
 5.402979e-04  -7.777014e-03  0 
 5.255722e-04  -5.773711e-03  0 
 6.731825e-03  -3.546592e-03  0 
 4.569131e-03  -3.684161e-03  0 
 2.521762e-03  -3.760001e-03  0 
 4.924806e-03  -4.809682e-03  0 
 9.980474e-03  -4.446415e-03  0 
 1.653920e-02  -4.779213e-03  0 
 1.362796e-02  -4.699839e-03  0 
 6.732896e-03  -7.843277e-03  0 
 5.884977e-03  -5.089171e-03  0 
 3.872058e-03  -5.306990e-03  0 
 5.362383e-03  -8.640001e-03  0 
 5.338314e-03  -6.774134e-03  0 
 3.235023e-03  -7.750189e-03  0 
 1.860331e-03  -5.691819e-03  0 
 7.657173e-03  6.225906e-04  0 
 1.192471e-02  -7.112623e-04  0 
 1.116541e-02  6.282378e-04  0 
 1.545429e-02  -3.792954e-04  0 
 3.945589e-03  3.616977e-03  0 
 6.860143e-03  2.696517e-03  0 
 5.330186e-03  1.297239e-03  0 
 3.072044e-03  2.473784e-03  0 
 6.316369e-03  8.858058e-04  0 
 9.170482e-03  8.565095e-04  0 
 4.342653e-03  -1.225032e-03  0 
 7.564334e-03  -1.586294e-03  0 
 3.847689e-03  -1.900389e-03  0 
 4.479264e-03  -1.847590e-03  0 
VECTORS displacement_ITER13 FLOAT
 3.664428e-03  -2.444357e-03  0 
 1.791428e-02  2.346377e-03  0 
 3.692669e-03  -9.958679e-04  0 
 3.673447e-03  -1.719307e-03  0 
 1.717019e-03  -2.209414e-03  0 
 2.267701e-03  -2.355657e-03  0 
 2.942658e-03  -2.432891e-03  0 
 5.333769e-03  -3.841699e-03  0 
 7.488522e-03  -3.339159e-03  0 
 1.090642e-02  -1.394696e-03  0 
 1.081627e-02  1.077584e-03  0 
 1.433267e-03  -1.067127e-03  0 
 1.857427e-03  -1.889710e-03  0 
 2.459061e-03  -1.889934e-03  0 
 1.951002e-03  -7.704680e-04  0 
 1.963683e-03  -1.423997e-03  0 
 2.696348e-03  -1.060211e-03  0 
 3.178869e-03  -1.760666e-03  0 
 6.810562e-03  9.849984e-04  0 
 9.531230e-03  -3.602137e-04  0 
 1.008658e-02  1.215661e-03  0 
 1.189690e-02  2.360015e-03  0 
 3.548526e-03  3.297490e-03  0 
 5.828066e-03  2.052207e-03  0 
 3.083788e-03  6.174960e-04  0 
 2.074859e-03  2.780773e-03  0 
 5.337858e-03  -4.138894e-04  0 
 7.901344e-03  1.832385e-04  0 
 3.427315e-03  -1.452745e-03  0 
 6.548881e-03  -2.170594e-03  0 
 4.195838e-03  -2.328320e-03  0 
 1.773112e-03  1.214731e-04  0 
VECTORS displacement_ITER14 FLOAT
 3.942498e-03  -3.076233e-03  0 
 1.059307e-02  7.401278e-03  0 
 3.973373e-03  -3.192284e-04  0 
 3.952751e-03  -1.697382e-03  0 
 4.743745e-05  -2.832548e-03  0 
 1.242343e-03  -2.984781e-03  0 
 2.568471e-03  -3.064144e-03  0 
 4.808052e-03  -4.936621e-03  0 
 5.572862e-03  -4.402987e-03  0 
 6.850325e-03  -9.224061e-04  0 
 1.035715e-02  4.202323e-03  0 
 -3.019901e-04  -3.946040e-04  0 
 4.202228e-04  -2.071533e-03  0 
 1.645596e-03  -2.019642e-03  0 
 6.621115e-04  1.622219e-04  0 
 6.824818e-04  -1.091360e-03  0 
 2.090666e-03  -4.068991e-04  0 
 3.018943e-03  -1.768563e-03  0 
 6.363423e-03  -7.605576e-04  0 
 8.014930e-03  -1.850962e-03  0 
 9.815820e-03  1.467857e-04  0 
 9.832744e-03  2.243626e-03  0 
 3.868054e-03  8.439652e-04  0 
 5.685373e-03  4.154375e-04  0 
 2.448642e-03  -1.063806e-03  0 
 2.711944e-03  1.358321e-03  0 
 4.664592e-03  -2.367992e-03  0 
 7.185741e-03  -1.649260e-03  0 
 2.765592e-03  -2.858139e-03  0 
 5.590815e-03  -3.993536e-03  0 
 3.736365e-03  -3.806201e-03  0 
 1.648682e-03  -1.544998e-04  0 
VECTORS displacement_ITER15 FLOAT
 -1.038885e-03  -1.086004e-03  0 
 1.283412e-02  1.600081e-03  0 
 -1.013620e-03  -2.687143e-03  0 
 -1.031562e-03  -1.885753e-03  0 
 1.605321e-03  -8.374003e-04  0 
 6.196917e-04  -9.886147e-04  0 
 -2.340145e-04  -1.069539e-03  0 
 2.076381e-03  -3.110333e-03  0 
 4.989235e-03  -3.263645e-03  0 
 8.211429e-03  -2.306404e-03  0 
 9.985957e-03  3.291088e-06  0 
 1.490646e-03  -2.764829e-03  0 
 1.181653e-03  -1.574172e-03  0 
 3.106490e-04  -1.696224e-03  0 
 9.324236e-04  -3.086251e-03  0 
 9.211110e-04  -2.316428e-03  0 
 5.315850e-05  -2.704834e-03  0 
 -5.032550e-04  -1.859007e-03  0 
 4.687066e-03  8.914419e-04  0 
 6.977425e-03  -6.705401e-04  0 
 7.511254e-03  1.164659e-03  0 
 9.643404e-03  5.672014e-04  0 
 3.186175e-03  2.188288e-03  0 
 4.189549e-03  2.655333e-03  0 
 2.161344e-03  1.437840e-03  0 
 3.127350e-03  2.899793e-03  0 
 2.763404e-03  7.479463e-04  0 
 5.256660e-03  6.675296e-04  0 
 1.022956e-03  -1.687288e-04  0 
 3.693722e-03  -1.349459e-03  0 
 9.288789e-04  -8.257263e-04  0 
 2.979323e-03  1.525871e-03  0 
VECTORS displacement_ITER16 FLOAT
 -8.499962e-04  -1.401345e-03  0 
 1.101307e-02  2.986443e-04  0 
 -8.252156e-04  -2.942031e-03  0 
 -8.428883e-04  -2.170881e-03  0 
 1.704450e-03  -1.152733e-03  0 
 7.489204e-04  -1.303459e-03  0 
 -7.499760e-05  -1.384362e-03  0 
 2.232260e-03  -3.757518e-03  0 
 4.792103e-03  -4.198039e-03  0 
 7.340603e-03  -3.382143e-03  0 
 8.919609e-03  -1.414355e-03  0 
 1.592163e-03  -3.020758e-03  0 
 1.292109e-03  -1.868263e-03  0 
 4.496644e-04  -1.987545e-03  0 
 1.051217e-03  -3.331062e-03  0 
 1.039509e-03  -2.586552e-03  0 
 2.009453e-04  -2.960694e-03  0 
 -3.348098e-04  -2.145306e-03  0 
 4.236829e-03  -1.461091e-03  0 
 6.452301e-03  -2.135378e-03  0 
 7.010013e-03  -7.951021e-04  0 
 8.637888e-03  -1.039057e-03  0 
 2.916873e-03  -2.877351e-04  0 
 4.032922e-03  8.627504e-04  0 
 2.231920e-03  3.828549e-04  0 
 3.105091e-03  1.182931e-03  0 
 2.718954e-03  -3.973255e-04  0 
 4.978240e-03  -8.803360e-04  0 
 1.124480e-03  -8.360855e-04  0 
 3.592637e-03  -2.404022e-03  0 
 1.028926e-03  -1.481317e-03  0 
 2.992556e-03  5.691474e-04  0 
VECTORS displacement_ITER17 FLOAT
 1.181022e-03  -1.300877e-03  0 
 6.892949e-03  2.749964e-03  0 
 1.208707e-03  -5.965769e-04  0 
 1.189636e-03  -9.482496e-04  0 
 3.694911e-04  -1.054095e-03  0 
 5.360716e-04  -1.205248e-03  0 
 8.342287e-04  -1.285532e-03  0 
 3.000818e-03  -3.837262e-03  0 
 4.026667e-03  -4.227059e-03  0 
 4.809474e-03  -2.400360e-03  0 
 6.848041e-03  4.208751e-04  0 
 1.440076e-04  -6.776545e-04  0 
 3.672736e-04  -9.985515e-04  0 
 6.035087e-04  -1.027705e-03  0 
 3.816084e-04  -5.366225e-04  0 
 3.848423e-04  -8.301175e-04  0 
 7.155570e-04  -6.519744e-04  0 
 9.445212e-04  -9.731503e-04  0 
 3.897488e-03  -3.406180e-03  0 
 5.460801e-03  -2.855556e-03  0 
 6.663440e-03  -2.066494e-03  0 
 6.576661e-03  -6.169627e-04  0 
 2.466087e-03  -2.268107e-03  0 
 3.920972e-03  -8.253181e-04  0 
 1.767539e-03  -5.682402e-04  0 
 2.373568e-03  1.719910e-04  0 
 2.879214e-03  -1.801570e-03  0 
 4.788286e-03  -2.294119e-03  0 
 1.409572e-03  -1.476794e-03  0 
 3.619308e-03  -3.378857e-03  0 
 1.834621e-03  -2.237981e-03  0 
 1.801450e-03  3.406466e-04  0 
VECTORS displacement_ITER18 FLOAT
 -1.253240e-04  -7.660210e-04  0 
 1.088063e-02  -4.038447e-03  0 
 -9.825417e-05  -1.436782e-03  0 
 -1.171101e-04  -1.100851e-03  0 
 1.121062e-03  -5.229798e-04  0 
 6.035541e-04  -6.706897e-04  0 
 2.150024e-04  -7.502448e-04  0 
 2.357503e-03  -2.857990e-03  0 
 4.542429e-03  -3.569537e-03  0 
 6.975047e-03  -3.831141e-03  0 
 5.933408e-03  -3.805092e-03  0 
 9.736153e-04  -1.522850e-03  0 
 8.708160e-04  -9.368619e-04  0 
 4.471297e-04  -1.020152e-03  0 
 7.319010e-04  -1.656937e-03  0 
 7.246363e-04  -1.311836e-03  0 
 3.387587e-04  -1.470750e-03  0 
 9.897944e-05  -1.095267e-03  0 
 2.954183e-03  -2.567008e-03  0 
 5.215585e-03  -2.273075e-03  0 
 5.066371e-03  -2.003674e-03  0 
 6.634668e-03  -2.163302e-03  0 
 1.661900e-03  -1.168780e-03  0 
 2.939894e-03  -5.217734e-06  0 
 1.507146e-03  5.167751e-04  0 
 1.770547e-03  1.112710e-03  0 
 2.261341e-03  -4.422861e-04  0 
 3.895080e-03  -1.223899e-03  0 
 1.006294e-03  -4.144326e-04  0 
 3.172250e-03  -1.975658e-03  0 
 1.168875e-03  -1.003186e-03  0 
 1.802241e-03  7.955439e-04  0 
VECTORS displacement_ITER19 FLOAT
 1.943784e-03  -2.312257e-03  0 
 5.626991e-03  6.299211e-04  0 
 1.972908e-03  -1.466247e-03  0 
 1.953242e-03  -1.889048e-03  0 
 9.113193e-04  -2.076784e-03  0 
 1.155731e-03  -2.221367e-03  0 
 1.526154e-03  -2.298617e-03  0 
 3.126819e-03  -4.216054e-03  0 
 3.646329e-03  -4.432815e-03  0 
 3.978722e-03  -2.834196e-03  0 
 5.550425e-03  5.038103e-05  0 
 6.892538e-04  -1.552553e-03  0 
 9.408865e-04  -1.965598e-03  0 
 1.247988e-03  -1.986819e-03  0 
 9.752212e-04  -1.380826e-03  0 
 9.783435e-04  -1.739257e-03  0 
 1.383873e-03  -1.524342e-03  0 
 1.660727e-03  -1.917627e-03  0 
 3.254334e-03  -4.819000e-03  0 
 4.651337e-03  -3.527436e-03  0 
 5.750832e-03  -3.213419e-03  0 
 5.168660e-03  -1.524520e-03  0 
 1.862895e-03  -3.733246e-03  0 
 3.607181e-03  -2.263864e-03  0 
 1.924428e-03  -1.750813e-03  0 
 1.863421e-03  -1.273404e-03  0 
 2.977067e-03  -2.862381e-03  0 
 4.363393e-03  -3.307273e-03  0 
 1.865658e-03  -2.475033e-03  0 
 3.495435e-03  -3.998887e-03  0 
 2.268526e-03  -3.112168e-03  0 
 1.553183e-03  -1.287849e-03  0 
VECTORS displacement_ITER20 FLOAT
 9.686927e-04  -2.344567e-03  0 
 8.221285e-03  -3.338525e-03  0 
 9.966523e-04  -2.618743e-03  0 
 9.776641e-04  -2.481473e-03  0 
 1.610055e-03  -2.115890e-03  0 
 1.299059e-03  -2.255828e-03  0 
 1.110722e-03  -2.331079e-03  0 
 2.589919e-03  -3.773909e-03  0 
 3.997876e-03  -4.126794e-03  0 
 5.586147e-03  -3.928280e-03  0 
 5.497944e-03  -3.246973e-03  0 
 1.451026e-03  -2.706208e-03  0 
 1.438645e-03  -2.384763e-03  0 
 1.209575e-03  -2.449142e-03  0 
 1.348142e-03  -2.758354e-03  0 
 1.343241e-03  -2.599008e-03  0 
 1.166032e-03  -2.658379e-03  0 
 1.061146e-03  -2.485012e-03  0 
 3.557353e-03  -2.798529e-03  0 
 4.673410e-03  -3.079080e-03  0 
 4.885390e-03  -2.630648e-03  0 
 5.711507e-03  -2.624370e-03  0 
 2.608560e-03  -1.688274e-03  0 
 3.236557e-03  -1.389841e-03  0 
 2.012411e-03  -1.341645e-03  0 
 2.372829e-03  -5.648829e-04  0 
 2.598136e-03  -2.033874e-03  0 
 3.848962e-03  -2.403989e-03  0 
 1.654933e-03  -2.087408e-03  0 
 3.193030e-03  -3.126493e-03  0 
 1.794002e-03  -2.531550e-03  0 
 2.195496e-03  -1.185637e-03  0 
VECTORS displacement_ITER21 FLOAT
 2.848173e-03  -2.512362e-03  0 
 6.941062e-03  -1.349345e-03  0 
 2.877880e-03  -1.247996e-03  0 
 2.858187e-03  -1.880318e-03  0 
 1.177508e-03  -2.290758e-03  0 
 1.638981e-03  -2.428062e-03  0 
 2.220986e-03  -2.500913e-03  0 
 3.648599e-03  -3.763397e-03  0 
 4.423230e-03  -4.069582e-03  0 
 5.391968e-03  -3.486311e-03  0 
 6.936373e-03  -1.514506e-03  0 
 9.421500e-04  -1.336850e-03  0 
 1.289524e-03  -2.028055e-03  0 
 1.801925e-03  -2.029196e-03  0 
 1.375095e-03  -1.078208e-03  0 
 1.380468e-03  -1.632667e-03  0 
 2.006621e-03  -1.312170e-03  0 
 2.425694e-03  -1.918389e-03  0 
 4.229870e-03  -2.021446e-03  0 
 5.177160e-03  -3.104561e-03  0 
 5.596642e-03  -2.158780e-03  0 
 6.240864e-03  -2.304874e-03  0 
 3.287300e-03  -9.896588e-04  0 
 3.733481e-03  -1.346040e-03  0 
 2.223095e-03  -1.712069e-03  0 
 2.698796e-03  -4.051042e-04  0 
 3.232874e-03  -2.471493e-03  0 
 4.446818e-03  -2.525960e-03  0 
 2.345122e-03  -2.475854e-03  0 
 3.906309e-03  -3.400859e-03  0 
 2.858247e-03  -2.948477e-03  0 
 2.101387e-03  -1.103726e-03  0 
VECTORS displacement_ITER22 FLOAT
 2.683296e-03  -2.414102e-03  0 
 6.715869e-03  -2.015109e-03  0 
 2.712349e-03  -1.817513e-03  0 
 2.693145e-03  -2.115998e-03  0 
 2.005430e-03  -2.201759e-03  0 
 2.139909e-03  -2.333292e-03  0 
 2.389577e-03  -2.403508e-03  0 
 3.442574e-03  -3.212695e-03  0 
 4.294000e-03  -3.480270e-03  0 
 5.336734e-03  -3.368719e-03  0 
 6.291037e-03  -2.288473e-03  0 
 1.811858e-03  -1.907700e-03  0 
 2.000723e-03  -2.161758e-03  0 
 2.195315e-03  -2.187963e-03  0 
 2.013436e-03  -1.781780e-03  0 
 2.013702e-03  -2.027834e-03  0 
 2.293620e-03  -1.870379e-03  0 
 2.484957e-03  -2.139162e-03  0 
 3.643276e-03  -1.798210e-03  0 
 4.821883e-03  -2.696113e-03  0 
 4.825124e-03  -1.915348e-03  0 
 5.842147e-03  -2.437656e-03  0 
 2.715975e-03  -1.082663e-03  0 
 3.343666e-03  -1.351356e-03  0 
 2.483706e-03  -1.661928e-03  0 
 2.361892e-03  -1.069425e-03  0 
 3.166849e-03  -2.060345e-03  0 
 4.056884e-03  -2.141601e-03  0 
 2.555139e-03  -2.215589e-03  0 
 3.731728e-03  -2.795666e-03  0 
 2.856740e-03  -2.525801e-03  0 
 2.184255e-03  -1.733746e-03  0 
VECTORS displacement_ITER23 FLOAT
 2.547291e-03  -2.446308e-03  0 
 6.470522e-03  -2.841391e-03  0 
 2.575623e-03  -2.373511e-03  0 
 2.556948e-03  -2.410144e-03  0 
 2.647766e-03  -2.241573e-03  0 
 2.526100e-03  -2.368503e-03  0 
 2.515142e-03  -2.436451e-03  0 
 3.204680e-03  -2.875107e-03  0 
 4.015124e-03  -3.041806e-03  0 
 5.064656e-03  -3.227398e-03  0 
 5.187506e-03  -2.981666e-03  0 
 2.487233e-03  -2.464292e-03  0 
 2.551646e-03  -2.375940e-03  0 
 2.497228e-03  -2.421761e-03  0 
 2.507376e-03  -2.442554e-03  0 
 2.503591e-03  -2.446819e-03  0 
 2.512069e-03  -2.417314e-03  0 
 2.524769e-03  -2.421544e-03  0 
 3.287210e-03  -1.827237e-03  0 
 4.320120e-03  -2.438364e-03  0 
 4.064299e-03  -1.925562e-03  0 
 5.148928e-03  -2.497932e-03  0 
 2.511468e-03  -1.472997e-03  0 
 3.077299e-03  -1.666859e-03  0 
 2.726449e-03  -1.868497e-03  0 
 2.275581e-03  -1.871308e-03  0 
 3.093037e-03  -1.968320e-03  0 
 3.655446e-03  -2.032699e-03  0 
 2.715856e-03  -2.189888e-03  0 
 3.493104e-03  -2.457644e-03  0 
 2.830367e-03  -2.355371e-03  0 
 2.346530e-03  -2.375193e-03  0 
VECTORS displacement_ITER24 FLOAT
 3.635643e-03  -3.253846e-03  0 
 5.413589e-03  -3.006249e-03  0 
 3.664532e-03  -1.882356e-03  0 
 3.645797e-03  -2.568560e-03  0 
 1.784147e-03  -3.054815e-03  0 
 2.314882e-03  -3.179697e-03  0 
 2.954131e-03  -3.245500e-03  0 
 3.636241e-03  -3.685678e-03  0 
 3.855908e-03  -3.799547e-03  0 
 4.422685e-03  -3.666443e-03  0 
 5.196870e-03  -2.435913e-03  0 
 1.560044e-03  -1.973768e-03  0 
 1.927350e-03  -2.740294e-03  0 
 2.499083e-03  -2.732775e-03  0 
 2.032144e-03  -1.689964e-03  0 
 2.036778e-03  -2.296374e-03  0 
 2.723326e-03  -1.946453e-03  0 
 3.178224e-03  -2.608785e-03  0 
 3.496099e-03  -2.521053e-03  0 
 4.094026e-03  -3.337824e-03  0 
 4.086702e-03  -2.712636e-03  0 
 4.697166e-03  -3.011561e-03  0 
 2.903718e-03  -2.365749e-03  0 
 3.150388e-03  -2.827414e-03  0 
 2.510741e-03  -3.106947e-03  0 
 2.368898e-03  -2.794110e-03  0 
 3.186884e-03  -3.311502e-03  0 
 3.658466e-03  -3.170612e-03  0 
 2.832947e-03  -3.329063e-03  0 
 3.589868e-03  -3.584434e-03  0 
 3.254085e-03  -3.522403e-03  0 
 1.983575e-03  -3.018711e-03  0 
VECTORS displacement_ITER25 FLOAT
 3.198166e-03  -3.023525e-03  0 
 5.284612e-03  -3.977091e-03  0 
 3.226135e-03  -1.890571e-03  0 
 3.208009e-03  -2.457541e-03  0 
 1.700087e-03  -2.829079e-03  0 
 2.114917e-03  -2.951328e-03  0 
 2.635700e-03  -3.015529e-03  0 
 3.203326e-03  -3.342150e-03  0 
 3.480699e-03  -3.486782e-03  0 
 4.176311e-03  -3.686451e-03  0 
 4.288961e-03  -3.149789e-03  0 
 1.492625e-03  -1.982300e-03  0 
 1.802120e-03  -2.593281e-03  0 
 2.261013e-03  -2.594258e-03  0 
 1.881804e-03  -1.745964e-03  0 
 1.884248e-03  -2.242067e-03  0 
 2.447293e-03  -1.950294e-03  0 
 2.820717e-03  -2.492211e-03  0 
 3.222746e-03  -2.192199e-03  0 
 3.536457e-03  -3.126607e-03  0 
 3.319584e-03  -2.654870e-03  0 
 4.070829e-03  -3.157771e-03  0 
 2.922819e-03  -2.169211e-03  0 
 2.751258e-03  -2.775881e-03  0 
 2.305980e-03  -3.038276e-03  0 
 2.390172e-03  -2.797096e-03  0 
 2.782926e-03  -3.098450e-03  0 
 3.097053e-03  -2.959850e-03  0 
 2.539439e-03  -3.115657e-03  0 
 3.134487e-03  -3.248117e-03  0 
 2.880324e-03  -3.228417e-03  0 
 1.993406e-03  -2.949184e-03  0 
VECTORS displacement_ITER26 FLOAT
 2.987932e-03  -2.704131e-03  0 
 3.898314e-03  -2.886961e-03  0 
 3.015050e-03  -1.611746e-03  0 
 2.997498e-03  -2.158450e-03  0 
 1.547178e-03  -2.513292e-03  0 
 1.944548e-03  -2.633529e-03  0 
 2.445610e-03  -2.696441e-03  0 
 2.897350e-03  -3.042985e-03  0 
 2.953507e-03  -3.167149e-03  0 
 3.290367e-03  -3.169603e-03  0 
 3.717301e-03  -2.448096e-03  0 
 1.345342e-03  -1.703156e-03  0 
 1.643757e-03  -2.288736e-03  0 
 2.084663e-03  -2.290581e-03  0 
 1.720353e-03  -1.474813e-03  0 
 1.722113e-03  -1.952226e-03  0 
 2.264626e-03  -1.670209e-03  0 
 2.624070e-03  -2.191939e-03  0 
 2.951328e-03  -2.173930e-03  0 
 3.023558e-03  -2.928428e-03  0 
 2.932922e-03  -2.514624e-03  0 
 3.402399e-03  -2.784075e-03  0 
 2.822870e-03  -2.300880e-03  0 
 2.517022e-03  -2.796164e-03  0 
 2.159752e-03  -3.007171e-03  0 
 2.323851e-03  -2.968125e-03  0 
 2.517660e-03  -2.995935e-03  0 
 2.741396e-03  -2.866803e-03  0 
 2.344925e-03  -2.919310e-03  0 
 2.775159e-03  -3.069088e-03  0 
 2.637712e-03  -2.999602e-03  0 
 1.869326e-03  -2.951392e-03  0 
VECTORS displacement_ITER27 FLOAT
 2.880472e-03  -2.389412e-03  0 
 4.642444e-03  -3.870184e-03  0 
 2.906432e-03  -1.511126e-03  0 