# vtk DataFile Version 3.1
this is an vtk file created by FEMAC
ASCII
DATASET UNSTRUCTURED_GRID
POINTS 21 FLOAT
2.000000 2.000000 0.000000
3.000000 2.000000 0.000000
1.666667 2.000000 0.000000
2.000000 2.333333 0.000000
2.000000 2.666667 0.000000
2.333333 2.000000 0.000000
2.666667 2.000000 0.000000
2.666667 3.000000 0.000000
1.523802 2.285974 0.000000
1.784776 2.496093 0.000000
1.795049 2.223080 0.000000
2.690581 1.518186 0.000000
2.496093 1.784776 0.000000
2.770668 1.793926 0.000000
2.223080 1.795049 0.000000
2.248421 2.490274 0.000000
2.515789 2.340031 0.000000
2.466342 2.734179 0.000000
2.783162 2.605840 0.000000
2.221251 2.227409 0.000000
2.793124 2.255841 0.000000
CELLS 25 100 
3 4 9 3
3 10  2  0
3 3 10  0
3 2 10  8
3 9 10  3
3 9  8 10
3 12  6  5
3 6 13  1
3 14  5  0
3 14 12  5
3 12 13  6
3 12 11 13
3 4  3 15
3 17 15 16
3 16  5  6
3 19  3  0
3 5 19  0
3 18  7 17
3 19  5 16
3 15 19 16
3 19 15  3
3 20  6  1
3 20 16  6
3 16 18 17
3 16 20 18
CELL_TYPES 25
5 5 5 5 5 5 5 5 5 5 5 5 5 5 5 5 5 5 5 5 5 5 5 5 5 
POINT_DATA 21
VECTORS displacement_ITER1 FLOAT
 1.610660e-01  -6.732531e-02  0 
 1.604125e-01  -2.122620e-01  0 
 3.174299e-01  -1.029275e-01  0 
 2.087119e-01  -6.747119e-02  0 
 2.564335e-01  -6.756758e-02  0 
 1.607086e-01  -1.155329e-01  0 
 1.605162e-01  -1.637210e-01  0 
 3.046195e-01  -1.636222e-01  0 
 2.129372e-01  -7.752341e-02  0 
 2.226401e-01  -3.606893e-02  0 
 2.097718e-01  -2.684285e-02  0 
 9.196424e-02  -1.695189e-01  0 
 1.298362e-01  -1.404254e-01  0 
 1.306005e-01  -1.799729e-01  0 
 1.316768e-01  -1.003809e-01  0 
 2.312222e-01  -1.031330e-01  0 
 2.096576e-01  -1.417184e-01  0 
 2.662639e-01  -1.345663e-01  0 
 2.478437e-01  -1.802987e-01  0 
 1.935520e-01  -9.918752e-02  0 
 1.974510e-01  -1.819435e-01  0 
VECTORS displacement_ITER2 FLOAT
 2.257047e-03  -1.808956e-02  0 
 1.311806e-03  -3.608697e-02  0 
 8.974394e-03  -2.686408e-02  0 
 7.290924e-03  -1.854076e-02  0 
 1.239616e-02  -1.879366e-02  0 
 1.789919e-03  -2.407241e-02  0 
 1.531205e-03  -2.986302e-02  0 
 1.815544e-02  -2.972571e-02  0 
 7.594904e-03  -2.127374e-02  0 
 8.636200e-03  -1.849968e-02  0 
 5.749202e-03  -1.976590e-02  0 
 -6.373070e-03  -3.310876e-02  0 
 -1.747275e-03  -2.825409e-02  0 
 -2.261317e-03  -3.308215e-02  0 
 -1.180842e-03  -2.283668e-02  0 
 9.813184e-03  -2.252164e-02  0 
 7.457901e-03  -2.700772e-02  0 
 1.380387e-02  -2.628862e-02  0 
 1.177619e-02  -3.157555e-02  0 
 5.729661e-03  -2.193605e-02  0 
 5.943332e-03  -3.196505e-02  0 
VECTORS displacement_ITER3 FLOAT
 -5.117371e-04  -5.354708e-03  0 
 -1.295852e-03  -1.054476e-02  0 
 2.220811e-03  -7.118113e-03  0 
 2.083487e-04  -5.853733e-03  0 
 1.147292e-03  -5.967188e-03  0 
 -9.223436e-04  -7.028765e-03  0 
 -1.133416e-03  -8.494955e-03  0 
 2.273515e-03  -8.340478e-03  0 
 1.667900e-04  -8.751046e-03  0 
 6.941013e-05  -7.010618e-03  0 
 3.899823e-04  -6.621725e-03  0 
 -4.991823e-03  -1.202634e-02  0 
 -1.786530e-03  -8.832360e-03  0 
 -2.735923e-03  -1.091094e-02  0 
 -1.275328e-03  -7.184453e-03  0 
 6.946672e-04  -6.661506e-03  0 
 3.465524e-04  -7.633309e-03  0 
 1.362036e-03  -7.437610e-03  0 
 1.006267e-03  -8.520841e-03  0 
 4.641316e-05  -6.381428e-03  0 
 -3.802039e-05  -8.974966e-03  0 
VECTORS displacement_ITER4 FLOAT
 -1.121366e-03  -3.769992e-03  0 
 -2.034826e-03  -7.427365e-03  0 
 -1.278500e-03  -3.283106e-03  0 
 -9.649998e-04  -4.247663e-03  0 
 -5.069569e-04  -4.302076e-03  0 
 -1.560462e-03  -4.886555e-03  0 
 -1.801664e-03  -5.834592e-03  0 
 -2.214305e-04  -5.485357e-03  0 
 -1.180795e-03  -5.956333e-03  0 
 -1.069925e-03  -5.597319e-03  0 
 -7.890933e-04  -5.143568e-03  0 
 -1.706373e-03  -8.955269e-03  0 
 -1.611410e-03  -6.827073e-03  0 
 -2.344838e-03  -7.674943e-03  0 
 -1.235399e-03  -5.370844e-03  0 
 -7.265289e-04  -4.673886e-03  0 
 -8.204912e-04  -5.185818e-03  0 
 -5.314167e-04  -5.079924e-03  0 
 -6.331412e-04  -5.591529e-03  0 
 -9.499621e-04  -4.414604e-03  0 
 -1.087645e-03  -6.091930e-03  0 
VECTORS displacement_ITER5 FLOAT
 -9.174618e-04  -2.050353e-03  0 
 -1.688499e-03  -6.876707e-03  0 
 -1.266922e-03  -4.559814e-04  0 
 -2.728476e-04  -2.526337e-03  0 
 7.634066e-04  -2.509849e-03  0 
 -1.341513e-03  -3.684061e-03  0 
 -1.525220e-03  -5.052527e-03  0 
 1.765089e-03  -5.020205e-03  0 
 2.658750e-05  -4.278249e-03  0 
 2.985222e-04  -4.167240e-03  0 
 1.018114e-04  -3.403754e-03  0 
 -2.432557e-03  -8.248949e-03  0 
 -1.569109e-03  -6.113405e-03  0 
 -2.424860e-03  -7.040945e-03  0 
 -9.895675e-04  -4.364812e-03  0 
 2.045835e-04  -3.339409e-03  0 
 -1.535232e-04  -4.283737e-03  0 
 8.675747e-04  -4.158493e-03  0 
 5.240950e-04  -5.262619e-03  0 
 -4.231589e-04  -3.050842e-03  0 
 -4.987970e-04  -5.507034e-03  0 
VECTORS displacement_ITER6 FLOAT
 -7.532536e-04  -2.076077e-03  0 
 -1.502359e-03  -6.829926e-03  0 
 -4.995064e-04  -2.265817e-03  0 
 -1.152016e-04  -2.605740e-03  0 
 7.178026e-04  -2.761386e-03  0 
 -1.175568e-03  -3.734453e-03  0 
 -1.368996e-03  -5.087367e-03  0 
 1.819646e-03  -4.964649e-03  0 
 -2.130795e-05  -5.366240e-03  0 
 1.103060e-04  -4.548457e-03  0 
 9.494180e-05  -3.898111e-03  0 
 -3.061218e-03  -7.447229e-03  0 
 -1.602049e-03  -6.099221e-03  0 
 -2.197890e-03  -7.222884e-03  0 
 -8.016167e-04  -4.547795e-03  0 
 3.436003e-04  -3.358978e-03  0 
 -2.002366e-05  -4.304055e-03  0 
 1.057546e-03  -4.230744e-03  0 
 7.349318e-04  -5.355629e-03  0 
 -2.591554e-04  -3.095135e-03  0 
 -3.834464e-04  -5.531302e-03  0 
VECTORS displacement_ITER7 FLOAT
 -1.289939e-03  -2.731877e-03  0 
 -2.022907e-03  -6.384997e-03  0 
 -1.030049e-03  -1.988110e-03  0 
 -9.964796e-04  -3.224798e-03  0 
 -3.787833e-04  -3.285166e-03  0 
 -1.706465e-03  -4.024965e-03  0 
 -1.883563e-03  -5.009829e-03  0 
 2.668855e-04  -4.942372e-03  0 
 -9.843129e-04  -4.873758e-03  0 
 -6.328470e-04  -4.920318e-03  0 
 -6.808214e-04  -4.065957e-03  0 
 -1.238740e-03  -8.219902e-03  0 
 -1.553130e-03  -6.844299e-03  0 
 -2.324345e-03  -6.960587e-03  0 
 -7.440513e-04  -5.240360e-03  0 
 -6.873341e-04  -3.752608e-03  0 
 -9.119439e-04  -4.417757e-03  0 
 -2.867432e-04  -4.344285e-03  0 
 -4.825871e-04  -5.179835e-03  0 
 -1.038328e-03  -3.510154e-03  0 
 -1.168384e-03  -5.319223e-03  0 
VECTORS displacement_ITER8 FLOAT
 -1.024506e-03  -2.772634e-03  0 
 -1.773078e-03  -6.498647e-03  0 
 -7.116032e-04  -1.981249e-03  0 
 -7.100135e-04  -3.272933e-03  0 
 -1.181634e-04  -3.366905e-03  0 
 -1.440391e-03  -4.084912e-03  0 
 -1.622631e-03  -5.087988e-03  0 
 6.418080e-04  -5.055767e-03  0 
 -5.716257e-04  -4.822563e-03  0 
 -3.486771e-04  -4.998063e-03  0 
 -3.505338e-04  -4.098494e-03  0 
 -2.331025e-03  -9.230637e-03  0 
 -1.414425e-03  -6.861219e-03  0 
 -2.349510e-03  -7.452297e-03  0 
 -5.716189e-04  -5.249043e-03  0 
 -3.951352e-04  -3.805467e-03  0 
 -6.257223e-04  -4.482687e-03  0 
 5.497093e-06  -4.389518e-03  0 
 -1.963035e-04  -5.247176e-03  0 
 -7.571670e-04  -3.563970e-03  0 
 -8.858933e-04  -5.403964e-03  0 
VECTORS displacement_ITER9 FLOAT
 -1.170990e-03  -2.773360e-03  0 
 -1.911894e-03  -6.706541e-03  0 
 -8.045357e-04  -2.102382e-03  0 
 -7.818916e-04  -3.274229e-03  0 
 -1.117537e-04  -3.367225e-03  0 
 -1.585351e-03  -4.160025e-03  0 
 -1.767156e-03  -5.236801e-03  0 
 7.208397e-04  -5.199567e-03  0 
 -5.975598e-04  -4.781987e-03  0 
 -3.834049e-04  -4.978545e-03  0 
 -4.434250e-04  -4.113459e-03  0 
 -2.163604e-03  -9.056181e-03  0 
 -1.534631e-03  -6.978633e-03  0 
 -2.393546e-03  -7.542851e-03  0 
 -8.036510e-04  -5.228390e-03  0 
 -4.315773e-04  -3.862763e-03  0 
 -6.966865e-04  -4.597261e-03  0 
 2.309065e-05  -4.490237e-03  0 
 -2.072640e-04  -5.418684e-03  0 
 -8.525553e-04  -3.614872e-03  0 
 -9.780122e-04  -5.580897e-03  0 
CELL_DATA 25
TENSORS element_stresses FLOAT
 -4.558838e-04  7.475553e-03  0 
 7.475553e-03  -4.157534e-04  0 
 0  0  0 

 -3.798183e-03  1.834581e-04  0 
 1.834581e-04  -8.996064e-03  0 
 0  0  0 

 -3.000196e-03  4.669540e-03  0 
 4.669540e-03  -2.402667e-03  0 
 0  0  0 

 -2.119818e-03  1.130688e-03  0 
 1.130688e-03  -9.841050e-03  0 
 0  0  0 

 -2.880256e-03  4.491437e-03  0 
 4.491437e-03  -3.818848e-03  0 
 0  0  0 

 -3.365146e-04  1.529613e-03  0 
 1.529613e-03  -3.203951e-03  0 
 0  0  0 

 2.912708e-03  -2.983423e-03  0 
 -2.983423e-03  1.152708e-02  0 
 0  0  0 

 2.478380e-03  -1.222096e-03  0 
 -1.222096e-03  9.708647e-03  0 
 0  0  0 

 1.090232e-03  -5.619507e-03  0 
 -5.619507e-03  7.777711e-03  0 
 0  0  0 

 -2.396891e-04  -6.475417e-03  0 
 -6.475417e-03  8.417730e-03  0 
 0  0  0 

 -1.982643e-04  -7.314406e-04  0 
 -7.314406e-04  9.925908e-03  0 
 0  0  0 

 -1.414623e-03  -1.680203e-03  0 
 -1.680203e-03  5.720157e-03  0 
 0  0  0 

 6.195547e-02  -1.403330e-01  0 
 -1.403330e-01  -2.604017e-01  0 
 0  0  0 

 1.501393e-02  -7.388502e-01  0 
 -7.388502e-01  -7.414951e-02  0 
 0  0  0 

 -4.518359e-01  -2.493720e-01  0 
 -2.493720e-01  3.119288e-01  0 
 0  0  0 

 -2.322175e-01  -8.397685e-01  0 
 -8.397685e-01  -1.572273e+00  0 
 0  0  0 

 -1.251655e+00  -1.192534e+00  0 
 -1.192534e+00  -2.857782e-02  0 
 0  0  0 

 1.668854e-01  -4.942368e-01  0 
 -4.942368e-01  -3.023401e-01  0 
 0  0  0 

 -4.409906e-01  -4.975992e-01  0 
 -4.975992e-01  5.015969e-01  0 
 0  0  0 

 -3.005039e-01  -1.143639e+00  0 
 -1.143639e+00  -7.130630e-01  0 
 0  0  0 

 2.221585e-01  -2.613683e-01  0 
 -2.613683e-01  -6.802910e-01  0 
 0  0  0 

 -2.020735e-01  -8.539103e-01  0 
 -8.539103e-01  7.738033e-01  0 
 0  0  0 

 4.243173e-02  -2.469041e-01  0 
 -2.469041e-01  3.676076e-01  0 
 0  0  0 

 -1.871539e-02  -8.797730e-01  0 
 -8.797730e-01  -1.068752e-01  0 
 0  0  0 

 -2.628586e-01  -9.565623e-01  0 
 -9.565623e-01  2.868210e-01  0 
 0  0  0 

TENSORS element_stresses FLOAT
 -4.558838e-04  7.475553e-03  0 
 7.475553e-03  -4.157534e-04  0 
 0  0  0 

 -3.798183e-03  1.834581e-04  0 
 1.834581e-04  -8.996064e-03  0 
 0  0  0 

 -3.000196e-03  4.669540e-03  0 
 4.669540e-03  -2.402667e-03  0 
 0  0  0 

 -2.119818e-03  1.130688e-03  0 
 1.130688e-03  -9.841050e-03  0 
 0  0  0 

 -2.880256e-03  4.491437e-03  0 
 4.491437e-03  -3.818848e-03  0 
 0  0  0 

 -3.365146e-04  1.529613e-03  0 
 1.529613e-03  -3.203951e-03  0 
 0  0  0 

 2.912708e-03  -2.983423e-03  0 
 -2.983423e-03  1.152708e-02  0 
 0  0  0 

 2.478380e-03  -1.222096e-03  0 
 -1.222096e-03  9.708647e-03  0 
 0  0  0 

 1.090232e-03  -5.619507e-03  0 
 -5.619507e-03  7.777711e-03  0 
 0  0  0 

 -2.396891e-04  -6.475417e-03  0 
 -6.475417e-03  8.417730e-03  0 
 0  0  0 

 -1.982643e-04  -7.314406e-04  0 
 -7.314406e-04  9.925908e-03  0 
 0  0  0 

 -1.414623e-03  -1.680203e-03  0 
 -1.680203e-03  5.720157e-03  0 
 0  0  0 

 6.195547e-02  -1.403330e-01  0 
 -1.403330e-01  -2.604017e-01  0 
 0  0  0 

 1.501393e-02  -7.388502e-01  0 
 -7.388502e-01  -7.414951e-02  0 
 0  0  0 

 -4.518359e-01  -2.493720e-01  0 
 -2.493720e-01  3.119288e-01  0 
 0  0  0 

 -2.322175e-01  -8.397685e-01  0 
 -8.397685e-01  -1.572273e+00  0 
 0  0  0 

 -1.251655e+00  -1.192534e+00  0 
 -1.192534e+00  -2.857782e-02  0 
 0  0  0 

 1.668854e-01  -4.942368e-01  0 
 -4.942368e-01  -3.023401e-01  0 
 0  0  0 

 -4.409906e-01  -4.975992e-01  0 
 -4.975992e-01  5.015969e-01  0 
 0  0  0 

 -3.005039e-01  -1.143639e+00  0 
 -1.143639e+00  -7.130630e-01  0 
 0  0  0 

 2.221585e-01  -2.613683e-01  0 
 -2.613683e-01  -6.802910e-01  0 
 0  0  0 

 -2.020735e-01  -8.539103e-01  0 
 -8.539103e-01  7.738033e-01  0 
 0  0  0 

 4.243173e-02  -2.469041e-01  0 
 -2.469041e-01  3.676076e-01  0 
 0  0  0 

 -1.871539e-02  -8.797730e-01  0 
 -8.797730e-01  -1.068752e-01  0 
 0  0  0 

 -2.628586e-01  -9.565623e-01  0 
 -9.565623e-01  2.868210e-01  0 
 0  0  0 

