# vtk DataFile Version 3.1
this is an vtk file created by FEMAC
ASCII
DATASET UNSTRUCTURED_GRID
POINTS 20 FLOAT
1.000000 2.000000 0.000000
1.000000 3.000000 0.000000
0.666667 2.000000 0.000000
1.000000 2.333333 0.000000
1.000000 2.666667 0.000000
1.333333 2.000000 0.000000
1.666667 2.000000 0.000000
1.333333 3.000000 0.000000
1.666667 3.000000 0.000000
0.775322 2.206402 0.000000
0.478822 2.249935 0.000000
0.696366 2.537083 0.000000
0.783178 2.799145 0.000000
1.265001 2.472948 0.000000
1.523802 2.285974 0.000000
1.518186 2.690581 0.000000
1.220626 2.759097 0.000000
1.238185 2.214413 0.000000
1.523802 3.285974 0.000000
1.238185 3.214413 0.000000
CELLS 25 100 
3 9 2 0
3 3 9 0
3 11  9  3
3 4 11  3
3 10  2  9
3 10  9 11
3 12  4  1
3 4 12 11
3 15  8  7
3 14 15 13
3 5  6 14
3 13  4  3
3 16  7  1
3 7 16 15
3 4 16  1
3 13 16  4
3 13 15 16
3 3 17 13
3 5 17  0
3 17  3  0
3 14 17  5
3 14 13 17
3 7  8 18
3 7 19  1
3 18 19  7
CELL_TYPES 25
5 5 5 5 5 5 5 5 5 5 5 5 5 5 5 5 5 5 5 5 5 5 5 5 5 
POINT_DATA 20
VECTORS displacement_ITER1 FLOAT
 5.913362e-02  -1.988121e-02  0 
 1.851644e-01  -1.989222e-02  0 
 5.921872e-02  2.242900e-02  0 
 1.013147e-01  -1.978394e-02  0 
 1.431234e-01  -1.974712e-02  0 
 1.732752e-01  -4.601150e-02  0 
 4.018363e-01  2.179510e-01  0 
 1.851640e-01  -3.419873e-01  0 
 1.855260e-01  -6.636663e-01  0 
 8.532565e-02  8.651952e-03  0 
 9.087306e-02  4.622493e-02  0 
 1.269372e-01  1.854523e-02  0 
 1.597951e-01  7.609884e-03  0 
 8.487971e-02  -1.417784e-01  0 
 1.096491e-01  -1.096005e-01  0 
 1.256943e-01  -3.167694e-01  0 
 1.275101e-01  -1.684260e-01  0 
 9.753468e-02  -1.062010e-01  0 
 4.613749e-01  -5.264196e-01  0 
 3.922612e-01  -2.500857e-01  0 
VECTORS displacement_ITER2 FLOAT
 1.898279e-02  -7.058998e-03  0 
 1.094468e-03  -7.833821e-03  0 
 1.903028e-02  -1.273491e-02  0 
 1.322920e-02  -6.990384e-03  0 
 7.242838e-03  -7.123714e-03  0 
 -8.062994e-03  -8.697577e-03  0 
 -1.503733e-02  -4.463804e-02  0 
 1.165002e-03  -1.006693e-02  0 
 1.474962e-03  -1.060954e-02  0 
 1.545655e-02  -1.089536e-02  0 
 1.467682e-02  -1.600157e-02  0 
 9.534402e-03  -1.244393e-02  0 
 4.634674e-03  -1.120847e-02  0 
 1.202591e-02  -8.590217e-03  0 
 1.261496e-02  -1.717449e-02  0 
 7.280249e-03  -8.388224e-03  0 
 5.682931e-03  -9.370182e-03  0 
 1.008110e-02  -2.237794e-03  0 
 1.925251e-03  -1.076784e-02  0 
 2.053368e-03  -9.584014e-03  0 
VECTORS displacement_ITER3 FLOAT
 6.170537e-04  -1.440286e-03  0 
 9.121269e-04  -1.912085e-03  0 
 6.943719e-04  -9.616300e-04  0 
 9.978199e-04  -1.317775e-03  0 
 1.174892e-03  -1.431600e-03  0 
 -1.673561e-03  -5.262769e-03  0 
 1.543612e-04  -6.181766e-03  0 
 1.008900e-03  -2.657553e-03  0 
 1.264026e-03  -2.187357e-03  0 
 9.004087e-04  -1.101361e-03  0 
 9.189001e-04  -7.715497e-04  0 
 1.051547e-03  -1.168717e-03  0 
 1.000800e-03  -1.564713e-03  0 
 1.276635e-03  -5.115716e-03  0 
 2.526227e-04  -7.785433e-03  0 
 1.048932e-03  -5.214467e-03  0 
 1.500136e-03  -3.929769e-03  0 
 1.240550e-04  -4.471500e-03  0 
 8.676823e-04  -2.709078e-03  0 
 1.054042e-03  -2.625029e-03  0 
VECTORS displacement_ITER4 FLOAT
 -1.207420e-03  -1.341787e-03  0 
 -1.140447e-04  -1.595588e-03  0 
 -1.057170e-03  -5.957150e-04  0 
 -5.679131e-04  -1.103967e-03  0 
 -2.259487e-04  -1.133992e-03  0 
 1.369941e-04  -1.794992e-03  0 
 2.227300e-05  -2.094156e-03  0 
 2.238122e-05  -2.893277e-03  0 
 1.683296e-04  -3.326430e-03  0 
 -7.254902e-04  -7.656514e-04  0 
 -6.558872e-04  -2.567162e-04  0 
 -3.744625e-04  -7.328206e-04  0 
 -2.651682e-04  -1.054090e-03  0 
 -5.107160e-04  -4.647590e-03  0 
 -2.765278e-04  -4.475561e-03  0 
 -3.529772e-04  -5.411526e-03  0 
 1.400358e-04  -3.765383e-03  0 
 -9.276860e-04  -3.749072e-03  0 
 4.680172e-04  -3.233745e-03  0 
 4.402789e-04  -2.736212e-03  0 
VECTORS displacement_ITER5 FLOAT
 -7.821369e-04  -6.247183e-04  0 
 -9.888302e-05  -9.894557e-04  0 
 -6.543723e-04  -2.123993e-04  0 
 -4.355312e-04  -4.511874e-04  0 
 -2.244177e-04  -5.669293e-04  0 
 -1.006896e-03  -1.131726e-03  0 
 -1.150965e-03  -1.923116e-03  0 
 -6.066835e-05  -2.024159e-03  0 
 -1.485849e-05  -2.467083e-03  0 
 -4.947151e-04  -2.781775e-04  0 
 -4.318147e-04  1.678714e-07  0 
 -3.651321e-04  -2.503279e-04  0 
 -2.449734e-04  -4.968694e-04  0 
 -3.904082e-04  -3.793833e-03  0 
 -4.035521e-04  -4.104971e-03  0 
 -1.780343e-04  -4.717068e-03  0 
 2.080599e-04  -3.087253e-03  0 
 -1.026229e-03  -2.648855e-03  0 
 3.185642e-04  -2.278420e-03  0 
 2.917720e-04  -1.870349e-03  0 
VECTORS displacement_ITER6 FLOAT
 -5.071212e-04  -1.026202e-03  0 
 2.256932e-04  -1.118326e-03  0 
 -3.781188e-04  -5.537830e-04  0 
 -1.182753e-04  -7.927546e-04  0 
 7.275643e-05  -7.848065e-04  0 
 -7.421150e-04  -1.643145e-03  0 
 -4.969399e-04  -1.499315e-03  0 
 1.459030e-04  -2.143471e-03  0 
 2.405974e-04  -2.711947e-03  0 
 -1.834645e-04  -6.161470e-04  0 
 -1.079953e-04  -2.769456e-04  0 
 -2.563885e-07  -5.418399e-04  0 
 6.752247e-05  -6.936482e-04  0 
 -2.270397e-04  -3.981889e-03  0 
 -5.160110e-04  -4.382413e-03  0 
 6.467870e-05  -4.929370e-03  0 
 4.749540e-04  -3.276995e-03  0 
 -8.448896e-04  -3.071828e-03  0 
 5.789021e-04  -2.520937e-03  0 
 5.580601e-04  -1.881759e-03  0 
VECTORS displacement_ITER7 FLOAT
 -6.783821e-04  -1.113871e-03  0 
 1.187653e-04  -1.242984e-03  0 
 -5.378127e-04  -6.042169e-04  0 
 -2.582681e-04  -8.710084e-04  0 
 -3.121914e-05  -8.789278e-04  0 
 -7.008057e-04  -1.648901e-03  0 
 -7.098744e-04  -2.198555e-03  0 
 1.034548e-05  -2.043895e-03  0 
 5.044804e-05  -2.535462e-03  0 
 -3.303486e-04  -6.766908e-04  0 
 -2.522073e-04  -3.370008e-04  0 
 -1.278550e-04  -5.934162e-04  0 
 -3.358458e-05  -7.742606e-04  0 
 -2.738522e-04  -4.199977e-03  0 
 -5.466014e-04  -4.850366e-03  0 
 -6.448876e-05  -5.078018e-03  0 
 4.011050e-04  -3.370992e-03  0 
 -9.692672e-04  -3.254009e-03  0 
 3.668089e-04  -2.338919e-03  0 
 3.380098e-04  -1.827142e-03  0 
VECTORS displacement_ITER8 FLOAT
 -5.301120e-04  -1.018317e-03  0 
 1.500072e-04  -1.182593e-03  0 
 -3.917412e-04  -5.747795e-04  0 
 -1.723975e-04  -7.883326e-04  0 
 1.764176e-05  -8.081253e-04  0 
 -6.284335e-04  -1.570391e-03  0 
 -6.897332e-04  -2.136163e-03  0 
 3.038886e-05  -1.945680e-03  0 
 7.291157e-05  -2.427877e-03  0 
 -2.250542e-04  -6.276885e-04  0 
 -1.552924e-04  -3.439480e-04  0 
 -6.911246e-05  -5.505655e-04  0 
 3.797227e-06  -7.237124e-04  0 
 -2.093469e-04  -4.090199e-03  0 
 -5.334957e-04  -4.799935e-03  0 
 1.006255e-06  -4.975891e-03  0 
 4.515548e-04  -3.287177e-03  0 
 -8.977104e-04  -3.156951e-03  0 
 3.724326e-04  -2.238104e-03  0 
 3.497696e-04  -1.723981e-03  0 
VECTORS displacement_ITER9 FLOAT
 -5.560274e-04  -1.051938e-03  0 
 1.734682e-04  -1.220530e-03  0 
 -4.186250e-04  -5.897210e-04  0 
 -1.794026e-04  -8.233769e-04  0 
 3.174570e-05  -8.416721e-04  0 
 -6.531508e-04  -1.631612e-03  0 
 -7.751633e-04  -2.030257e-03  0 
 5.969459e-05  -2.005922e-03  0 
 1.020840e-04  -2.518214e-03  0 
 -2.401121e-04  -6.489040e-04  0 
 -1.681216e-04  -3.467404e-04  0 
 -6.227998e-05  -5.659372e-04  0 
 2.124974e-05  -7.493395e-04  0 
 -2.410568e-04  -4.122824e-03  0 
 -6.125143e-04  -4.825039e-03  0 
 -9.024970e-06  -5.049745e-03  0 
 4.591790e-04  -3.325869e-03  0 
 -9.308036e-04  -3.210657e-03  0 
 4.272163e-04  -2.313326e-03  0 
 3.957858e-04  -1.779739e-03  0 
CELL_DATA 25
TENSORS element_stresses FLOAT
 -3.068539e-01  -2.344408e-01  0 
 -2.344408e-01  3.511774e-01  0 
 0  0  0 

 -1.784731e-01  -2.619165e-02  0 
 -2.619165e-02  6.321422e-01  0 
 0  0  0 

 -1.352134e-02  -2.141848e-01  0 
 -2.141848e-01  5.364379e-02  0 
 0  0  0 

 2.512427e-02  -1.932680e-01  0 
 -1.932680e-01  -4.734847e-02  0 
 0  0  0 

 -4.171113e-02  -4.891334e-02  0 
 -4.891334e-02  2.193130e-01  0 
 0  0  0 

 -1.840011e-01  -4.005502e-01  0 
 -4.005502e-01  -4.735567e-02  0 
 0  0  0 

 -3.602980e-02  -5.347100e-01  0 
 -5.347100e-01  -1.147383e+00  0 
 0  0  0 

 6.902404e-02  -3.523359e-01  0 
 -3.523359e-01  -4.440106e-01  0 
 0  0  0 

 3.080098e-03  -9.529326e-04  0 
 -9.529326e-04  9.843100e-03  0 
 0  0  0 

 -5.945672e-04  -1.276615e-03  0 
 -1.276615e-03  -7.774091e-04  0 
 0  0  0 

 -3.821017e-03  -6.231111e-04  0 
 -6.231111e-04  -1.151660e-02  0 
 0  0  0 

 -6.404932e-04  -9.067940e-03  0 
 -9.067940e-03  -2.470337e-04  0 
 0  0  0 

 1.794650e-03  -2.965206e-03  0 
 -2.965206e-03  7.119905e-03  0 
 0  0  0 

 4.975716e-04  -3.787296e-03  0 
 -3.787296e-03  7.542441e-03  0 
 0  0  0 

 1.558536e-03  -7.968010e-03  0 
 -7.968010e-03  -6.690134e-04  0 
 0  0  0 

 1.262851e-03  -6.991189e-03  0 
 -6.991189e-03  1.354457e-03  0 
 0  0  0 

 -5.059875e-04  -2.352466e-03  0 
 -2.352466e-03  1.804753e-03  0 
 0  0  0 

 -2.684340e-03  -6.428057e-03  0 
 -6.428057e-03  -3.171379e-03  0 
 0  0  0 

 -3.002456e-03  -2.433279e-03  0 
 -2.433279e-03  -9.036952e-03  0 
 0  0  0 

 -2.620735e-03  -6.577369e-03  0 
 -6.577369e-03  -1.005365e-04  0 
 0  0  0 

 -1.506151e-03  -3.189598e-03  0 
 -3.189598e-03  -9.336744e-03  0 
 0  0  0 

 -4.926207e-04  -1.750059e-03  0 
 -1.750059e-03  -3.168222e-03  0 
 0  0  0 

 1.228251e-01  -2.587847e-01  0 
 -2.587847e-01  -1.447761e-02  0 
 0  0  0 

 -3.720079e-01  -7.231892e-01  0 
 -7.231892e-01  -1.022897e-01  0 
 0  0  0 

 -2.125582e-01  -3.573244e-01  0 
 -3.573244e-01  1.394936e-01  0 
 0  0  0 

TENSORS element_stresses FLOAT
 -3.068539e-01  -2.344408e-01  0 
 -2.344408e-01  3.511774e-01  0 
 0  0  0 

 -1.784731e-01  -2.619165e-02  0 
 -2.619165e-02  6.321422e-01  0 
 0  0  0 

 -1.352134e-02  -2.141848e-01  0 
 -2.141848e-01  5.364379e-02  0 
 0  0  0 

 2.512427e-02  -1.932680e-01  0 
 -1.932680e-01  -4.734847e-02  0 
 0  0  0 

 -4.171113e-02  -4.891334e-02  0 
 -4.891334e-02  2.193130e-01  0 
 0  0  0 

 -1.840011e-01  -4.005502e-01  0 
 -4.005502e-01  -4.735567e-02  0 
 0  0  0 

 -3.602980e-02  -5.347100e-01  0 
 -5.347100e-01  -1.147383e+00  0 
 0  0  0 

 6.902404e-02  -3.523359e-01  0 
 -3.523359e-01  -4.440106e-01  0 
 0  0  0 

 3.080098e-03  -9.529326e-04  0 
 -9.529326e-04  9.843100e-03  0 
 0  0  0 

 -5.945672e-04  -1.276615e-03  0 
 -1.276615e-03  -7.774091e-04  0 
 0  0  0 

 -3.821017e-03  -6.231111e-04  0 
 -6.231111e-04  -1.151660e-02  0 
 0  0  0 

 -6.404932e-04  -9.067940e-03  0 
 -9.067940e-03  -2.470337e-04  0 
 0  0  0 

 1.794650e-03  -2.965206e-03  0 
 -2.965206e-03  7.119905e-03  0 
 0  0  0 

 4.975716e-04  -3.787296e-03  0 
 -3.787296e-03  7.542441e-03  0 
 0  0  0 

 1.558536e-03  -7.968010e-03  0 
 -7.968010e-03  -6.690134e-04  0 
 0  0  0 

 1.262851e-03  -6.991189e-03  0 
 -6.991189e-03  1.354457e-03  0 
 0  0  0 

 -5.059875e-04  -2.352466e-03  0 
 -2.352466e-03  1.804753e-03  0 
 0  0  0 

 -2.684340e-03  -6.428057e-03  0 
 -6.428057e-03  -3.171379e-03  0 
 0  0  0 

 -3.002456e-03  -2.433279e-03  0 
 -2.433279e-03  -9.036952e-03  0 
 0  0  0 

 -2.620735e-03  -6.577369e-03  0 
 -6.577369e-03  -1.005365e-04  0 
 0  0  0 

 -1.506151e-03  -3.189598e-03  0 
 -3.189598e-03  -9.336744e-03  0 
 0  0  0 

 -4.926207e-04  -1.750059e-03  0 
 -1.750059e-03  -3.168222e-03  0 
 0  0  0 

 1.228251e-01  -2.587847e-01  0 
 -2.587847e-01  -1.447761e-02  0 
 0  0  0 

 -3.720079e-01  -7.231892e-01  0 
 -7.231892e-01  -1.022897e-01  0 
 0  0  0 

 -2.125582e-01  -3.573244e-01  0 
 -3.573244e-01  1.394936e-01  0 
 0  0  0 

