# vtk DataFile Version 3.1
this is an vtk file created by FEMAC
ASCII
DATASET UNSTRUCTURED_GRID
POINTS 21 FLOAT
1.000000 1.000000 0.000000
1.000000 2.000000 0.000000
0.666667 1.000000 0.000000
1.000000 1.333333 0.000000
1.000000 1.666667 0.000000
1.333333 1.000000 0.000000
1.666667 1.000000 0.000000
1.333333 2.000000 0.000000
1.666667 2.000000 0.000000
0.811821 0.672442 0.000000
0.586533 1.401885 0.000000
0.761942 1.235632 0.000000
0.673964 1.728155 0.000000
0.810985 1.468884 0.000000
0.528710 1.177328 0.000000
1.603416 0.689810 0.000000
1.229401 0.674408 0.000000
1.335792 1.499955 0.000000
1.513673 1.780627 0.000000
1.240535 1.788665 0.000000
1.331389 1.181612 0.000000
CELLS 25 100 
3 2 9 0
3 11  2  0
3 3 11  0
3 12  4  1
3 4 13  3
3 10 13 12
3 13  4 12
3 13 11  3
3 10 11 13
3 11 14  2
3 11 10 14
3 6  5 15
3 16  5  0
3 16 15  5
3 17  4  3
3 7 18  8
3 4 19  1
3 19  7  1
3 19  4 17
3 18 19 17
3 19 18  7
3 20  3  0
3 5 20  0
3 6 20  5
3 20 17  3
CELL_TYPES 25
5 5 5 5 5 5 5 5 5 5 5 5 5 5 5 5 5 5 5 5 5 5 5 5 5 
POINT_DATA 21
VECTORS displacement_ITER1 FLOAT
 -1.778885e-02  1.908378e-01  0 
 2.381421e-01  1.899846e-01  0 
 -1.732365e-02  -8.198724e-02  0 
 6.706594e-02  1.898115e-01  0 
 1.523436e-01  1.897930e-01  0 
 -1.882988e-02  1.040215e-01  0 
 -1.966173e-02  1.634746e-02  0 
 2.380879e-01  1.041556e-01  0 
 2.380673e-01  1.806291e-02  0 
 2.518306e-01  3.679912e-02  0 
 9.505445e-02  2.070127e-01  0 
 2.079827e-02  1.184707e-01  0 
 1.669485e-01  2.397688e-01  0 
 9.630100e-02  1.853495e-01  0 
 8.107778e-02  1.061278e-01  0 
 -1.026799e-01  3.013403e-02  0 
 -1.049976e-01  1.294565e-01  0 
 1.096617e-01  1.037663e-01  0 
 1.816453e-01  5.775588e-02  0 
 1.836849e-01  1.280344e-01  0 
 2.860436e-02  1.051269e-01  0 
VECTORS displacement_ITER2 FLOAT
 6.068441e-03  -2.200761e-02  0 
 2.767253e-03  -2.342576e-02  0 
 6.459455e-03  -3.113832e-03  0 
 5.350386e-03  -2.298700e-02  0 
 4.099064e-03  -2.344046e-02  0 
 5.138538e-03  -2.291462e-02  0 
 4.283678e-03  -2.477309e-02  0 
 2.666920e-03  -2.218274e-02  0 
 2.395427e-03  -2.098059e-02  0 
 -1.154544e-02  -1.139827e-02  0 
 4.083132e-03  -2.215212e-02  0 
 6.817128e-03  -1.762718e-02  0 
 3.512637e-03  -2.556446e-02  0 
 5.046134e-03  -2.275444e-02  0 
 2.113792e-03  -1.463848e-02  0 
 1.476295e-03  -2.735895e-02  0 
 3.191420e-03  -2.459269e-02  0 
 4.867496e-03  -2.221297e-02  0 
 3.581560e-03  -2.152446e-02  0 
 3.586243e-03  -2.257863e-02  0 
 5.861734e-03  -2.232435e-02  0 
VECTORS displacement_ITER3 FLOAT
 7.442747e-04  -1.806724e-03  0 
 6.637833e-04  -3.052780e-03  0 
 1.124514e-03  -8.862034e-04  0 
 1.032139e-03  -2.744317e-03  0 
 8.414138e-04  -3.092590e-03  0 
 -2.249546e-04  -3.760066e-03  0 
 -1.125912e-03  -6.597768e-03  0 
 5.483433e-04  -2.909402e-03  0 
 3.561446e-04  -2.807566e-03  0 
 9.198662e-04  -1.286915e-03  0 
 6.370937e-04  -5.170432e-03  0 
 1.108011e-03  -3.623263e-03  0 
 4.472339e-04  -5.837035e-03  0 
 9.113729e-04  -4.585510e-03  0 
 2.903658e-04  -3.672081e-03  0 
 -4.857583e-03  -9.119491e-03  0 
 -3.249781e-03  -5.059310e-03  0 
 1.026123e-03  -2.981331e-03  0 
 6.877852e-04  -2.862383e-03  0 
 7.374363e-04  -3.014726e-03  0 
 1.053466e-03  -3.147229e-03  0 
VECTORS displacement_ITER4 FLOAT
 1.020066e-03  -1.217526e-03  0 
 -7.028693e-04  -1.954735e-03  0 
 1.445768e-03  -1.118373e-03  0 
 4.595406e-04  -1.956511e-03  0 
 -2.283495e-04  -2.131616e-03  0 
 1.005216e-04  -2.199124e-03  0 
 -7.552140e-04  -3.855529e-03  0 
 -8.647241e-04  -1.545065e-03  0 
 -1.078307e-03  -1.093075e-03  0 
 1.914853e-03  -1.254483e-03  0 
 6.277268e-04  -4.738293e-03  0 
 1.056299e-03  -3.372961e-03  0 
 -5.013599e-05  -3.869609e-03  0 
 2.712158e-04  -3.745321e-03  0 
 7.306382e-04  -3.540995e-03  0 
 -3.724015e-03  -6.754685e-03  0 
 -1.440040e-03  -5.080471e-03  0 
 1.425023e-04  -1.573004e-03  0 
 -5.080692e-04  -1.314257e-03  0 
 -4.795746e-04  -1.750345e-03  0 
 7.942363e-04  -1.638924e-03  0 
VECTORS displacement_ITER5 FLOAT
 -1.639785e-04  -1.003466e-03  0 
 -8.204219e-04  -1.209324e-03  0 
 2.109690e-04  -6.471882e-04  0 
 -1.096499e-03  -1.481953e-03  0 
 -1.206806e-03  -1.392142e-03  0 
 -7.730713e-04  -1.349806e-03  0 
 -1.192977e-03  -1.601689e-03  0 
 -8.912570e-04  -1.667508e-03  0 
 -1.020645e-03  -2.034526e-03  0 
 4.626199e-04  -7.949409e-04  0 
 -4.980415e-04  -4.030770e-03  0 
 -2.024371e-04  -2.911198e-03  0 
 -1.063242e-03  -2.827555e-03  0 
 -9.608683e-04  -2.936019e-03  0 
 -4.145311e-04  -2.882531e-03  0 
 -2.450578e-03  -4.195078e-03  0 
 -6.610995e-04  -2.990206e-03  0 
 -1.231018e-03  -1.450064e-03  0 
 -1.102599e-03  -1.881083e-03  0 
 -1.125886e-03  -1.555746e-03  0 
 -7.065088e-04  -1.075927e-03  0 
VECTORS displacement_ITER6 FLOAT
 -7.507592e-04  -8.758473e-04  0 
 -5.338731e-04  -1.039367e-03  0 
 -3.313178e-04  -3.447379e-04  0 
 -1.223926e-03  -1.235661e-03  0 
 -1.031123e-03  -1.241644e-03  0 
 -1.340364e-03  -1.572723e-03  0 
 -1.701781e-03  -2.080049e-03  0 
 -6.295338e-04  -1.630431e-03  0 
 -8.001827e-04  -1.994077e-03  0 
 -2.988252e-04  -5.714183e-04  0 
 -4.348397e-04  -3.783234e-03  0 
 -2.837215e-04  -2.621420e-03  0 
 -9.864166e-04  -2.865514e-03  0 
 -9.056820e-04  -2.683092e-03  0 
 -4.121370e-04  -2.252365e-03  0 
 -2.414327e-03  -4.156323e-03  0 
 -3.628244e-04  -3.463230e-03  0 
 -1.148680e-03  -1.553137e-03  0 
 -9.326383e-04  -1.924469e-03  0 
 -9.190959e-04  -1.518473e-03  0 
 -1.129667e-03  -1.327883e-03  0 
VECTORS displacement_ITER7 FLOAT
 -6.838040e-04  -9.701374e-04  0 
 -4.884040e-04  -1.096115e-03  0 
 -2.697321e-04  -4.629952e-04  0 
 -1.140250e-03  -1.294378e-03  0 
 -9.621652e-04  -1.320768e-03  0 
 -1.267495e-03  -1.647768e-03  0 
 -1.628784e-03  -2.107854e-03  0 
 -5.966781e-04  -1.663669e-03  0 
 -7.446142e-04  -2.065265e-03  0 
 -2.738684e-04  -6.921269e-04  0 
 -4.329677e-04  -3.876484e-03  0 
 -2.127611e-04  -2.681229e-03  0 
 -9.639169e-04  -2.976474e-03  0 
 -8.611729e-04  -2.764080e-03  0 
 -3.423099e-04  -2.236053e-03  0 
 -2.383164e-03  -4.289190e-03  0 
 -1.128611e-04  -3.811439e-03  0 
 -1.056354e-03  -1.607500e-03  0 
 -8.997709e-04  -1.946123e-03  0 
 -8.711219e-04  -1.570597e-03  0 
 -1.071961e-03  -1.407501e-03  0 
VECTORS displacement_ITER8 FLOAT
 -6.856279e-04  -8.855793e-04  0 
 -5.212112e-04  -1.021081e-03  0 
 -2.793501e-04  -3.911425e-04  0 
 -1.149698e-03  -1.215251e-03  0 
 -9.921131e-04  -1.249604e-03  0 
 -1.270446e-03  -1.558973e-03  0 
 -1.632010e-03  -2.019821e-03  0 
 -6.198663e-04  -1.593219e-03  0 
 -7.504876e-04  -2.030260e-03  0 
 -2.624685e-04  -5.962121e-04  0 
 -4.626700e-04  -3.868076e-03  0 
 -2.067657e-04  -2.617105e-03  0 
 -1.021606e-03  -2.936409e-03  0 
 -8.893409e-04  -2.704730e-03  0 
 -3.237004e-04  -2.182786e-03  0 
 -2.624569e-03  -4.694692e-03  0 
 -4.527544e-04  -3.592568e-03  0 
 -1.071749e-03  -1.514575e-03  0 
 -9.336851e-04  -1.880219e-03  0 
 -9.044322e-04  -1.493470e-03  0 
 -1.076531e-03  -1.317782e-03  0 
VECTORS displacement_ITER9 FLOAT
 -7.070960e-04  -9.233595e-04  0 
 -5.474630e-04  -1.056080e-03  0 
 -2.994573e-04  -4.261199e-04  0 
 -1.172009e-03  -1.252292e-03  0 
 -1.017096e-03  -1.284551e-03  0 
 -1.291489e-03  -1.595414e-03  0 
 -1.653972e-03  -2.050460e-03  0 
 -6.442411e-04  -1.628267e-03  0 
 -7.735402e-04  -2.063074e-03  0 
 -2.869493e-04  -6.354097e-04  0 
 -4.934187e-04  -3.895053e-03  0 
 -2.396260e-04  -2.653063e-03  0 
 -1.033480e-03  -2.959637e-03  0 
 -9.151918e-04  -2.742503e-03  0 
 -3.660984e-04  -2.239096e-03  0 
 -2.585675e-03  -4.792706e-03  0 
 -4.064167e-04  -3.594132e-03  0 
 -1.096676e-03  -1.547887e-03  0 
 -9.581047e-04  -1.915080e-03  0 
 -9.295286e-04  -1.527560e-03  0 
 -1.098940e-03  -1.354555e-03  0 
CELL_DATA 25
TENSORS element_stresses FLOAT
 -1.351151e+00  -1.593716e+00  0 
 -1.593716e+00  -4.274493e-01  0 
 0  0  0 

 -4.260718e-03  -5.717893e-04  0 
 -5.717893e-04  -1.012600e-02  0 
 0  0  0 

 -4.000267e-03  3.764932e-03  0 
 3.764932e-03  -2.186878e-03  0 
 0  0  0 

 5.731755e-04  5.135309e-03  0 
 5.135309e-03  8.573664e-04  0 
 0  0  0 

 -1.158751e-03  6.368799e-03  0 
 6.368799e-03  -4.444018e-04  0 
 0  0  0 

 -1.120072e-03  2.614884e-03  0 
 2.614884e-03  1.284582e-03  0 
 0  0  0 

 6.438815e-04  3.887563e-03  0 
 3.887563e-03  2.278774e-03  0 
 0  0  0 

 -3.865598e-03  3.341200e-03  0 
 3.341200e-03  -2.933383e-03  0 
 0  0  0 

 -1.704230e-03  2.255569e-03  0 
 2.255569e-03  -2.072362e-03  0 
 0  0  0 

 -2.617540e-03  5.325233e-04  0 
 5.325233e-04  -1.050054e-02  0 
 0  0  0 

 -1.633959e-03  -5.246036e-04  0 
 -5.246036e-04  -7.883378e-03  0 
 0  0  0 

 1.811237e-03  1.430968e-03  0 
 1.430968e-03  9.662283e-03  0 
 0  0  0 

 3.093529e-04  -3.211447e-03  0 
 -3.211447e-03  6.875107e-03  0 
 0  0  0 

 -3.971135e-03  -3.364100e-03  0 
 -3.364100e-03  6.065724e-03  0 
 0  0  0 

 -3.878624e-02  -2.827152e-01  0 
 -2.827152e-01  -1.084125e-01  0 
 0  0  0 

 -3.487560e-01  -1.481300e-01  0 
 -1.481300e-01  1.304711e-01  0 
 0  0  0 

 -1.592443e-01  3.921142e-02  0 
 3.921142e-02  6.376405e-01  0 
 0  0  0 

 -2.276567e-01  -1.839564e-01  0 
 -1.839564e-01  2.089254e-01  0 
 0  0  0 

 -7.969513e-03  -2.286144e-01  0 
 -2.286144e-01  -2.276259e-01  0 
 0  0  0 

 -2.295863e-01  -6.775577e-01  0 
 -6.775577e-01  -4.704785e-01  0 
 0  0  0 

 -2.273542e-02  -2.804073e-02  0 
 -2.804073e-02  1.377720e-01  0 
 0  0  0 

 -7.847333e-01  -1.657783e+00  0 
 -1.657783e+00  -1.222218e+00  0 
 0  0  0 

 -1.496470e+00  -7.497779e-01  0 
 -7.497779e-01  8.556988e-01  0 
 0  0  0 

 -7.625985e-01  -2.435091e-01  0 
 -2.435091e-01  1.082830e+00  0 
 0  0  0 

 4.677690e-02  -4.453130e-01  0 
 -4.453130e-01  -5.852099e-01  0 
 0  0  0 

TENSORS element_stresses FLOAT
 -1.351151e+00  -1.593716e+00  0 
 -1.593716e+00  -4.274493e-01  0 
 0  0  0 

 -4.260718e-03  -5.717893e-04  0 
 -5.717893e-04  -1.012600e-02  0 
 0  0  0 

 -4.000267e-03  3.764932e-03  0 
 3.764932e-03  -2.186878e-03  0 
 0  0  0 

 5.731755e-04  5.135309e-03  0 
 5.135309e-03  8.573664e-04  0 
 0  0  0 

 -1.158751e-03  6.368799e-03  0 
 6.368799e-03  -4.444018e-04  0 
 0  0  0 

 -1.120072e-03  2.614884e-03  0 
 2.614884e-03  1.284582e-03  0 
 0  0  0 

 6.438815e-04  3.887563e-03  0 
 3.887563e-03  2.278774e-03  0 
 0  0  0 

 -3.865598e-03  3.341200e-03  0 
 3.341200e-03  -2.933383e-03  0 
 0  0  0 

 -1.704230e-03  2.255569e-03  0 
 2.255569e-03  -2.072362e-03  0 
 0  0  0 

 -2.617540e-03  5.325233e-04  0 
 5.325233e-04  -1.050054e-02  0 
 0  0  0 

 -1.633959e-03  -5.246036e-04  0 
 -5.246036e-04  -7.883378e-03  0 
 0  0  0 

 1.811237e-03  1.430968e-03  0 
 1.430968e-03  9.662283e-03  0 
 0  0  0 

 3.093529e-04  -3.211447e-03  0 
 -3.211447e-03  6.875107e-03  0 
 0  0  0 

 -3.971135e-03  -3.364100e-03  0 
 -3.364100e-03  6.065724e-03  0 
 0  0  0 

 -3.878624e-02  -2.827152e-01  0 
 -2.827152e-01  -1.084125e-01  0 
 0  0  0 

 -3.487560e-01  -1.481300e-01  0 
 -1.481300e-01  1.304711e-01  0 
 0  0  0 

 -1.592443e-01  3.921142e-02  0 
 3.921142e-02  6.376405e-01  0 
 0  0  0 

 -2.276567e-01  -1.839564e-01  0 
 -1.839564e-01  2.089254e-01  0 
 0  0  0 

 -7.969513e-03  -2.286144e-01  0 
 -2.286144e-01  -2.276259e-01  0 
 0  0  0 

 -2.295863e-01  -6.775577e-01  0 
 -6.775577e-01  -4.704785e-01  0 
 0  0  0 

 -2.273542e-02  -2.804073e-02  0 
 -2.804073e-02  1.377720e-01  0 
 0  0  0 

 -7.847333e-01  -1.657783e+00  0 
 -1.657783e+00  -1.222218e+00  0 
 0  0  0 

 -1.496470e+00  -7.497779e-01  0 
 -7.497779e-01  8.556988e-01  0 
 0  0  0 

 -7.625985e-01  -2.435091e-01  0 
 -2.435091e-01  1.082830e+00  0 
 0  0  0 

 4.677690e-02  -4.453130e-01  0 
 -4.453130e-01  -5.852099e-01  0 
 0  0  0 

