# vtk DataFile Version 3.1
this is an vtk file created by FEMAC
ASCII
DATASET UNSTRUCTURED_GRID
POINTS 33 FLOAT
5.000000 0.000000 0.000000
6.000000 0.000000 0.000000
6.000000 1.000000 0.000000
4.750000 0.000000 0.000000
5.250000 0.000000 0.000000
5.500000 0.000000 0.000000
5.750000 0.000000 0.000000
5.000000 0.250000 0.000000
5.000000 0.500000 0.000000
5.500000 1.000000 0.000000
5.750000 1.000000 0.000000
6.000000 0.250000 0.000000
6.000000 0.500000 0.000000
6.000000 0.750000 0.000000
6.000000 1.250000 0.000000
6.000000 1.500000 0.000000
4.828307 0.162952 0.000000
4.746177 0.372389 0.000000
5.462570 0.272476 0.000000
5.214699 0.660302 0.000000
5.787596 0.660045 0.000000
5.828307 0.162952 0.000000
5.638134 0.825570 0.000000
5.371728 0.825957 0.000000
5.502535 0.594871 0.000000
5.217467 0.400442 0.000000
5.746177 0.372389 0.000000
5.660592 0.165804 0.000000
5.835146 0.847123 0.000000
5.238340 0.153820 0.000000
5.805000 1.255000 0.000000
5.565925 1.242859 0.000000
5.717271 1.453287 0.000000
CELLS 43 172 
3 16  3  0
3 7 16  0
3 17  7  8
3 16  7 17
3 20 12 13
3 21  6  1
3 11 21  1
3 9 23 22
3 24 20 22
3 25 19  8
3 20 26 12
3 24 25 18
3 24 19 25
3 26 24 18
3 20 24 26
3 22 10  9
3 7 25  8
3 26 11 12
3 21 11 26
3 24 23 19
3 22 23 24
3 21 27  6
3 10 28  2
3 13 28 20
3 28 13  2
3 27 26 18
3 21 26 27
3 22 28 10
3 22 20 28
3 27  5  6
3 5 27 18
3 4 29  0
3 29  7  0
3 5 29  4
3 25 29 18
3 29 25  7
3 5 18 29
3 15 30 14
3 32 31 30
3 30 31 10
3 15 32 30
3 2 30 10
3 2 14 30
CELL_TYPES 43
5 5 5 5 5 5 5 5 5 5 5 5 5 5 5 5 5 5 5 5 5 5 5 5 5 5 5 5 5 5 5 5 5 5 5 5 5 5 5 5 5 5 5 
POINT_DATA 33
VECTORS displacement_ITER1 FLOAT
 -2.116594e-01  -3.233573e-01  0 
 -2.438228e-01  -4.913113e-01  0 
 -1.304608e-01  -4.173926e-01  0 
 -2.116439e-01  -2.953276e-01  0 
 -2.216049e-01  -3.622839e-01  0 
 -2.297894e-01  -3.991400e-01  0 
 -2.380836e-01  -4.409689e-01  0 
 -1.836330e-01  -3.233356e-01  0 
 -1.556300e-01  -3.233238e-01  0 
 -1.235775e-01  -3.791022e-01  0 
 -1.304470e-01  -3.942356e-01  0 
 -2.011047e-01  -4.804715e-01  0 
 -1.700214e-01  -4.623668e-01  0 
 -1.499178e-01  -4.395872e-01  0 
 -1.073180e-01  -4.173672e-01  0 
 -8.418092e-02  -4.173419e-01  0 
 -1.933824e-01  -3.040974e-01  0 
 -1.699157e-01  -2.948937e-01  0 
 -1.875584e-01  -3.862996e-01  0 
 -1.411458e-01  -3.501068e-01  0 
 -1.482557e-01  -4.206396e-01  0 
 -2.117426e-01  -4.509249e-01  0 
 -1.321548e-01  -3.956913e-01  0 
 -1.289839e-01  -3.692567e-01  0 
 -1.488281e-01  -3.868932e-01  0 
 -1.685431e-01  -3.507099e-01  0 
 -1.781903e-01  -4.285655e-01  0 
 -2.078060e-01  -4.206635e-01  0 
 -1.369572e-01  -4.109025e-01  0 
 -1.991112e-01  -3.552447e-01  0 
 -1.068462e-01  -3.993073e-01  0 
 -1.079616e-01  -3.771674e-01  0 
 -8.849161e-02  -3.911676e-01  0 
VECTORS displacement_ITER2 FLOAT
 -1.062298e-01  -1.782879e-01  0 
 -1.454281e-01  -2.650762e-01  0 
 -8.775781e-02  -2.133213e-01  0 
 -1.062074e-01  -1.741632e-01  0 
 -1.189332e-01  -1.953604e-01  0 
 -1.296200e-01  -2.113740e-01  0 
 -1.393292e-01  -2.337834e-01  0 
 -1.021004e-01  -1.782653e-01  0 
 -9.797006e-02  -1.782563e-01  0 
 -8.936964e-02  -1.890132e-01  0 
 -8.774707e-02  -1.848266e-01  0 
 -1.217185e-01  -2.549609e-01  0 
 -1.083751e-01  -2.399452e-01  0 
 -1.024241e-01  -2.238555e-01  0 
 -5.927254e-02  -2.133033e-01  0 
 -3.079711e-02  -2.132873e-01  0 
 -1.035287e-01  -1.754383e-01  0 
 -1.000744e-01  -1.740708e-01  0 
 -1.095293e-01  -1.993623e-01  0 
 -9.366432e-02  -1.811066e-01  0 
 -9.804069e-02  -2.129425e-01  0 
 -1.258463e-01  -2.376108e-01  0 
 -8.873403e-02  -1.938021e-01  0 
 -8.887325e-02  -1.863485e-01  0 
 -9.520831e-02  -1.950552e-01  0 
 -1.007024e-01  -1.830765e-01  0 
 -1.086569e-01  -2.214346e-01  0 
 -1.219388e-01  -2.197034e-01  0 
 -9.462225e-02  -2.027160e-01  0 
 -1.095853e-01  -1.875761e-01  0 
 -5.869638e-02  -1.910770e-01  0 
 -6.006954e-02  -1.638276e-01  0 
 -3.610677e-02  -1.810644e-01  0 
VECTORS displacement_ITER3 FLOAT
 -6.764182e-02  -6.591434e-02  0 
 -1.031698e-01  -1.538088e-01  0 
 -4.877925e-02  -8.508540e-02  0 
 -6.760635e-02  -5.942599e-02  0 
 -7.839192e-02  -8.276992e-02  0 
 -8.787435e-02  -9.904491e-02  0 
 -9.717625e-02  -1.219504e-01  0 
 -6.110076e-02  -6.590673e-02  0 
 -5.457362e-02  -6.586688e-02  0 
 -4.433943e-02  -6.959074e-02  0 
 -4.875394e-02  -7.756430e-02  0 
 -7.886139e-02  -1.435043e-01  0 
 -6.523471e-02  -1.273472e-01  0 
 -5.847009e-02  -1.087363e-01  0 
 -4.126547e-02  -8.509215e-02  0 
 -3.371186e-02  -8.512626e-02  0 
 -6.337947e-02  -6.142012e-02  0 
 -5.788571e-02  -5.927575e-02  0 
 -6.716518e-02  -8.799720e-02  0 
 -4.758361e-02  -6.877176e-02  0 
 -5.392614e-02  -9.938605e-02  0 
 -8.319507e-02  -1.260118e-01  0 
 -4.626766e-02  -8.227717e-02  0 
 -4.280937e-02  -7.226438e-02  0 
 -5.117694e-02  -8.421423e-02  0 
 -5.808241e-02  -7.165531e-02  0 
 -6.524803e-02  -1.096304e-01  0 
 -7.937070e-02  -1.078553e-01  0 
 -4.961733e-02  -8.853997e-02  0 
 -6.858984e-02  -7.587718e-02  0 
 -4.112494e-02  -7.919443e-02  0 
 -4.148609e-02  -7.199997e-02  0 
 -3.514604e-02  -7.653637e-02  0 
VECTORS displacement_ITER4 FLOAT
 -2.423338e-02  -2.577077e-02  0 
 -6.328890e-02  -9.948534e-02  0 
 -1.927273e-02  -3.526196e-02  0 
 -2.416353e-02  -2.583625e-02  0 
 -3.691928e-02  -3.909727e-02  0 
 -4.752797e-02  -5.153426e-02  0 
 -5.723934e-02  -7.098417e-02  0 
 -2.418418e-02  -2.578673e-02  0 
 -2.409471e-02  -2.573096e-02  0 
 -2.262062e-02  -2.549045e-02  0 
 -1.923607e-02  -3.317018e-02  0 
 -4.235840e-02  -8.935372e-02  0 
 -3.228848e-02  -7.378380e-02  0 
 -2.706904e-02  -5.840174e-02  0 
 -1.717868e-02  -3.532069e-02  0 
 -1.496879e-02  -3.543621e-02  0 
 -2.421288e-02  -2.573887e-02  0 
 -2.410441e-02  -2.567942e-02  0 
 -3.102446e-02  -4.044124e-02  0 
 -1.887762e-02  -2.747547e-02  0 
 -2.353686e-02  -4.884881e-02  0 
 -4.555582e-02  -7.400346e-02  0 
 -1.867503e-02  -3.367731e-02  0 
 -1.707244e-02  -2.909434e-02  0 
 -2.008300e-02  -3.704410e-02  0 
 -2.458783e-02  -2.789709e-02  0 
 -3.058343e-02  -5.890076e-02  0 
 -4.178854e-02  -5.795796e-02  0 
 -1.942394e-02  -4.066583e-02  0 
 -2.986047e-02  -3.149300e-02  0 
 -1.717454e-02  -3.361009e-02  0 
 -1.727898e-02  -3.162723e-02  0 
 -1.545956e-02  -3.284342e-02  0 
VECTORS displacement_ITER5 FLOAT
 -1.057106e-02  -1.448273e-02  0 
 -4.717822e-02  -8.270614e-02  0 
 -5.349932e-03  -1.326299e-02  0 
 -1.058322e-02  -1.322177e-02  0 
 -2.155685e-02  -2.594913e-02  0 
 -3.140243e-02  -3.711805e-02  0 
 -4.105081e-02  -5.538109e-02  0 
 -9.337149e-03  -1.440938e-02  0 
 -8.266122e-03  -1.430889e-02  0 
 -6.615783e-03  -1.343360e-02  0 
 -5.328903e-03  -1.357282e-02  0 
 -2.735604e-02  -7.261691e-02  0 
 -1.742422e-02  -5.745548e-02  0 
 -1.314398e-02  -4.015926e-02  0 
 -5.677736e-03  -1.323955e-02  0 
 -6.010128e-03  -1.323296e-02  0 
 -9.742759e-03  -1.362148e-02  0 
 -8.764704e-03  -1.327590e-02  0 
 -1.597067e-02  -2.644375e-02  0 
 -5.711300e-03  -1.312149e-02  0 
 -8.400366e-03  -3.266891e-02  0 
 -3.014986e-02  -5.793034e-02  0 
 -2.921588e-03  -1.844219e-02  0 
 -3.264123e-03  -1.469280e-02  0 
 -5.904906e-03  -2.132322e-02  0 
 -9.360303e-03  -1.506839e-02  0 
 -1.602508e-02  -4.281904e-02  0 
 -2.626515e-02  -4.272949e-02  0 
 -4.712341e-03  -2.189839e-02  0 
 -1.487482e-02  -1.907784e-02  0 
 -5.678825e-03  -1.347880e-02  0 
 -5.651893e-03  -1.378167e-02  0 
 -5.938464e-03  -1.357087e-02  0 
VECTORS displacement_ITER6 FLOAT
 -7.370091e-03  -8.406483e-03  0 
 -4.444958e-02  -7.862243e-02  0 
 -3.197583e-03  -9.290602e-03  0 
 -7.391123e-03  -7.402552e-03  0 
 -1.880712e-02  -2.063172e-02  0 
 -2.876495e-02  -3.225486e-02  0 
 -3.836055e-02  -5.091652e-02  0 
 -6.424064e-03  -8.324388e-03  0 
 -5.614390e-03  -8.244362e-03  0 
 -3.058970e-03  -9.059798e-03  0 
 -3.179449e-03  -9.009923e-03  0 
 -2.426315e-02  -6.848823e-02  0 
 -1.420921e-02  -5.307795e-02  0 
 -1.045039e-02  -3.548203e-02  0 
 -2.937432e-03  -9.264268e-03  0 
 -2.692229e-03  -9.253663e-03  0 
 -6.722147e-03  -7.734751e-03  0 
 -5.990969e-03  -7.459829e-03  0 
 -1.294059e-02  -2.160645e-02  0 
 -3.185134e-03  -9.514590e-03  0 
 -5.355148e-03  -2.848055e-02  0 
 -2.718546e-02  -5.362083e-02  0 
 -2.876048e-04  -1.462498e-02  0 
 -7.428041e-04  -1.151330e-02  0 
 -2.767639e-03  -1.726546e-02  0 
 -6.496996e-03  -9.991709e-03  0 
 -1.275729e-02  -3.849689e-02  0 
 -2.334353e-02  -3.817226e-02  0 
 -2.373778e-03  -1.756364e-02  0 
 -1.197465e-02  -1.360566e-02  0 
 -2.924815e-03  -9.049198e-03  0 
 -2.919177e-03  -8.817446e-03  0 
 -2.732850e-03  -8.935485e-03  0 
VECTORS displacement_ITER7 FLOAT
 -5.565356e-03  -7.149956e-03  0 
 -4.265276e-02  -7.677939e-02  0 
 -3.091971e-03  -8.592939e-03  0 
 -5.574047e-03  -6.338965e-03  0 
 -1.709866e-02  -1.951935e-02  0 
 -2.703874e-02  -3.107197e-02  0 
 -3.657017e-02  -4.944203e-02  0 
 -4.799463e-03  -7.098047e-03  0 
 -4.079678e-03  -7.072353e-03  0 
 -3.010389e-03  -7.693652e-03  0 
 -3.075089e-03  -8.076736e-03  0 
 -2.284714e-02  -6.661191e-02  0 
 -1.322743e-02  -5.117957e-02  0 
 -9.822448e-03  -3.387871e-02  0 
 -2.599107e-03  -8.577720e-03  0 
 -2.100937e-03  -8.575244e-03  0 
 -5.046135e-03  -6.607988e-03  0 
 -4.452876e-03  -6.387677e-03  0 
 -1.141127e-02  -2.044713e-02  0 
 -2.107416e-03  -8.672441e-03  0 
 -4.716130e-03  -2.696530e-02  0 
 -2.561957e-02  -5.202352e-02  0 
 -1.406370e-04  -1.332202e-02  0 
 -6.172590e-04  -1.006257e-02  0 
 -1.882698e-03  -1.596973e-02  0 
 -5.024084e-03  -9.022268e-03  0 
 -1.152149e-02  -3.699247e-02  0 
 -2.176255e-02  -3.684129e-02  0 
 -2.145126e-03  -1.641817e-02  0 
 -1.032507e-02  -1.249747e-02  0 
 -2.586630e-03  -8.175186e-03  0 
 -2.600438e-03  -7.733395e-03  0 
 -2.207602e-03  -7.989244e-03  0 
VECTORS displacement_ITER8 FLOAT
 -5.291536e-03  -6.817303e-03  0 
 -4.235678e-02  -7.625156e-02  0 
 -2.947832e-03  -8.048666e-03  0 
 -5.277054e-03  -6.099149e-03  0 
 -1.681648e-02  -1.915536e-02  0 
 -2.674698e-02  -3.066152e-02  0 
 -3.627375e-02  -4.897511e-02  0 
 -4.572666e-03  -6.786679e-03  0 
 -3.881877e-03  -6.762975e-03  0 
 -2.877237e-03  -7.226536e-03  0 
 -2.928206e-03  -7.616601e-03  0 
 -2.261209e-02  -6.608246e-02  0 
 -1.305035e-02  -5.065138e-02  0 
 -9.675937e-03  -3.337127e-02  0 
 -2.533239e-03  -8.027898e-03  0 
 -2.126133e-03  -8.026529e-03  0 
 -4.811832e-03  -6.311783e-03  0 
 -4.227756e-03  -6.085912e-03  0 
 -1.117236e-02  -2.004891e-02  0 
 -2.011564e-03  -8.391229e-03  0 
 -4.569728e-03  -2.647468e-02  0 
 -2.536204e-02  -5.153596e-02  0 
 -2.680842e-05  -1.286066e-02  0 
 -5.367184e-04  -9.713846e-03  0 
 -1.725677e-03  -1.554702e-02  0 
 -4.811818e-03  -8.692451e-03  0 
 -1.131412e-02  -3.651848e-02  0 
 -2.150308e-02  -3.639634e-02  0 
 -2.000910e-03  -1.593128e-02  0 
 -1.006858e-02  -1.214276e-02  0 
 -2.520561e-03  -7.688073e-03  0 
 -2.529565e-03  -7.281034e-03  0 
 -2.203402e-03  -7.530954e-03  0 
VECTORS displacement_ITER9 FLOAT
 -5.327133e-03  -6.740842e-03  0 
 -4.233461e-02  -7.621770e-02  0 
 -2.801437e-03  -7.879964e-03  0 
 -5.310677e-03  -5.993059e-03  0 
 -1.681962e-02  -1.907455e-02  0 
 -2.673222e-02  -3.058785e-02  0 
 -3.625283e-02  -4.892177e-02  0 
 -4.574487e-03  -6.711958e-03  0 
 -3.840323e-03  -6.682714e-03  0 
 -2.738985e-03  -7.108896e-03  0 
 -2.780520e-03  -7.485218e-03  0 
 -2.257019e-02  -6.604578e-02  0 
 -1.299353e-02  -5.060074e-02  0 
 -9.585270e-03  -3.328934e-02  0 
 -2.422326e-03  -7.858306e-03  0 
 -2.049280e-03  -7.855961e-03  0 
 -4.826141e-03  -6.212478e-03  0 
 -4.205157e-03  -5.965322e-03  0 
 -1.113403e-02  -1.998813e-02  0 
 -1.867892e-03  -8.386223e-03  0 
 -4.479742e-03  -2.638149e-02  0 
 -2.532661e-02  -5.148910e-02  0 
 8.706259e-05  -1.274292e-02  0 
 -4.435886e-04  -9.562652e-03  0 
 -1.627018e-03  -1.546630e-02  0 
 -4.764692e-03  -8.644160e-03  0 
 -1.125893e-02  -3.646363e-02  0 
 -2.146789e-02  -3.633841e-02  0 
 -1.875302e-03  -1.581073e-02  0 
 -1.006197e-02  -1.207557e-02  0 
 -2.410157e-03  -7.545651e-03  0 
 -2.416562e-03  -7.173535e-03  0 
 -2.124480e-03  -7.403343e-03  0 
VECTORS displacement_ITER10 FLOAT
 -5.285735e-03  -6.619352e-03  0 
 -4.233543e-02  -7.608940e-02  0 
 -2.868021e-03  -7.840394e-03  0 
 -5.271255e-03  -5.892677e-03  0 
 -1.680334e-02  -1.896484e-02  0 
 -2.672843e-02  -3.047810e-02  0 
 -3.625266e-02  -4.880301e-02  0 
 -4.560669e-03  -6.594283e-03  0 
 -3.850309e-03  -6.568809e-03  0 
 -2.808196e-03  -7.037870e-03  0 
 -2.846706e-03  -7.427485e-03  0 
 -2.258078e-02  -6.591922e-02  0 
 -1.300918e-02  -5.048502e-02  0 
 -9.616862e-03  -3.319791e-02  0 
 -2.470058e-03  -7.818325e-03  0 
 -2.077460e-03  -7.815147e-03  0 
 -4.804180e-03  -6.111164e-03  0 
 -4.204364e-03  -5.873396e-03  0 
 -1.114021e-02  -1.986980e-02  0 
 -1.943560e-03  -8.250311e-03  0 
 -4.515288e-03  -2.629128e-02  0 
 -2.533383e-02  -5.136679e-02  0 
 3.978318e-05  -1.266656e-02  0 
 -4.773032e-04  -9.486823e-03  0 
 -1.672314e-03  -1.536057e-02  0 
 -4.777508e-03  -8.520297e-03  0 
 -1.127672e-02  -3.634452e-02  0 
 -2.147438e-02  -3.622138e-02  0 
 -1.927555e-03  -1.574254e-02  0 
 -1.005001e-02  -1.195583e-02  0 
 -2.457360e-03  -7.490885e-03  0 
 -2.464838e-03  -7.098527e-03  0 
 -2.154632e-03  -7.340534e-03  0 
VECTORS displacement_ITER11 FLOAT
 -5.252374e-03  -6.568156e-03  0 
 -4.231987e-02  -7.604403e-02  0 
 -2.877688e-03  -7.826991e-03  0 
 -5.236711e-03  -5.856088e-03  0 
 -1.678100e-02  -1.891891e-02  0 
 -2.671155e-02  -3.043344e-02  0 
 -3.623718e-02  -4.875774e-02  0 
 -4.539120e-03  -6.543992e-03  0 
 -3.841476e-03  -6.517143e-03  0 
 -2.816112e-03  -7.003319e-03  0 
 -2.856842e-03  -7.403198e-03  0 
 -2.256552e-02  -6.587426e-02  0 
 -1.299623e-02  -5.044075e-02  0 
 -9.611652e-03  -3.316032e-02  0 
 -2.469551e-03  -7.805068e-03  0 
 -2.067075e-03  -7.801684e-03  0 
 -4.779063e-03  -6.068512e-03  0 
 -4.187786e-03  -5.834796e-03  0 
 -1.112548e-02  -1.982203e-02  0 
 -1.942782e-03  -8.198587e-03  0 
 -4.509766e-03  -2.625576e-02  0 
 -2.531869e-02  -5.132185e-02  0 
 3.785637e-05  -1.263585e-02  0 
 -4.716484e-04  -9.459728e-03  0 
 -1.666088e-03  -1.532356e-02  0 
 -4.766703e-03  -8.468605e-03  0 
 -1.126255e-02  -3.630146e-02  0 
 -2.145977e-02  -3.617594e-02  0 
 -1.931953e-03  -1.571497e-02  0 
 -1.002910e-02  -1.190531e-02  0 
 -2.456619e-03  -7.469963e-03  0 
 -2.465425e-03  -7.066998e-03  0 
 -2.146329e-03  -7.317461e-03  0 
VECTORS displacement_ITER12 FLOAT
 -5.244664e-03  -6.567120e-03  0 
 -4.231229e-02  -7.604013e-02  0 
 -2.871011e-03  -7.823903e-03  0 
 -5.229612e-03  -5.853599e-03  0 
 -1.677311e-02  -1.891673e-02  0 
 -2.670377e-02  -3.043061e-02  0 
 -3.622956e-02  -4.875434e-02  0 
 -4.531147e-03  -6.542173e-03  0 
 -3.834241e-03  -6.515532e-03  0 
 -2.810115e-03  -7.000891e-03  0 
 -2.850119e-03  -7.400513e-03  0 
 -2.255843e-02  -6.587045e-02  0 
 -1.298931e-02  -5.043734e-02  0 
 -9.604642e-03  -3.315723e-02  0 
 -2.463156e-03  -7.801814e-03  0 
 -2.061347e-03  -7.798408e-03  0 
 -4.770831e-03  -6.067074e-03  0 
 -4.180556e-03  -5.834052e-03  0 
 -1.111837e-02  -1.981904e-02  0 
 -1.935720e-03  -8.193802e-03  0 
 -4.502927e-03  -2.625254e-02  0 
 -2.531144e-02  -5.131827e-02  0 
 4.477681e-05  -1.263267e-02  0 
 -4.646452e-04  -9.455759e-03  0 
 -1.659456e-03  -1.532000e-02  0 
 -4.759421e-03  -8.465541e-03  0 
 -1.125575e-02  -3.629798e-02  0 
 -2.145249e-02  -3.617265e-02  0 
 -1.925002e-03  -1.571200e-02  0 
 -1.002155e-02  -1.190313e-02  0 
 -2.450168e-03  -7.467004e-03  0 
 -2.458656e-03  -7.064716e-03  0 
 -2.140937e-03  -7.314941e-03  0 
VECTORS displacement_ITER13 FLOAT
 -5.243788e-03  -6.567156e-03  0 
 -4.231106e-02  -7.603935e-02  0 
 -2.870123e-03  -7.822916e-03  0 
 -5.228688e-03  -5.853708e-03  0 
 -1.677204e-02  -1.891673e-02  0 
 -2.670257e-02  -3.043044e-02  0 
 -3.622831e-02  -4.875390e-02  0 
 -4.530252e-03  -6.542295e-03  0 
 -3.833265e-03  -6.515621e-03  0 
 -2.809216e-03  -7.000386e-03  0 
 -2.849235e-03  -7.399771e-03  0 
 -2.255753e-02  -6.586967e-02  0 
 -1.298854e-02  -5.043669e-02  0 
 -9.603864e-03  -3.315663e-02  0 
 -2.462524e-03  -7.800843e-03  0 
 -2.060954e-03  -7.797452e-03  0 
 -4.769984e-03  -6.067128e-03  0 
 -4.179579e-03  -5.834063e-03  0 
 -1.111734e-02  -1.981895e-02  0 
 -1.935368e-03  -8.194905e-03  0 
 -4.502178e-03  -2.625197e-02  0 
 -2.531041e-02  -5.131768e-02  0 
 4.577916e-05  -1.263202e-02  0 
 -4.634854e-04  -9.454218e-03  0 
 -1.658874e-03  -1.531941e-02  0 
 -4.758417e-03  -8.465923e-03  0 
 -1.125499e-02  -3.629737e-02  0 
 -2.145141e-02  -3.617232e-02  0 
 -1.924071e-03  -1.571128e-02  0 
 -1.002053e-02  -1.190325e-02  0 
 -2.449547e-03  -7.466227e-03  0 
 -2.458026e-03  -7.064253e-03  0 
 -2.140553e-03  -7.314284e-03  0 
VECTORS displacement_ITER14 FLOAT
 -5.244068e-03  -6.567298e-03  0 
 -4.231124e-02  -7.603965e-02  0 
 -2.870071e-03  -7.822946e-03  0 
 -5.228950e-03  -5.853808e-03  0 
 -1.677226e-02  -1.891686e-02  0 
 -2.670276e-02  -3.043060e-02  0 
 -3.622849e-02  -4.875412e-02  0 
 -4.530442e-03  -6.542468e-03  0 
 -3.833386e-03  -6.515784e-03  0 
 -2.809154e-03  -7.000466e-03  0 
 -2.849183e-03  -7.399837e-03  0 
 -2.255764e-02  -6.586995e-02  0 
 -1.298862e-02  -5.043692e-02  0 
 -9.603909e-03  -3.315677e-02  0 
 -2.462509e-03  -7.800869e-03  0 
 -2.060978e-03  -7.797472e-03  0 
 -4.770224e-03  -6.067225e-03  0 
 -4.179727e-03  -5.834173e-03  0 
 -1.111748e-02  -1.981913e-02  0 
 -1.935243e-03  -8.194946e-03  0 
 -4.502203e-03  -2.625212e-02  0 
 -2.531055e-02  -5.131793e-02  0 
 4.574719e-05  -1.263215e-02  0 
 -4.635913e-04  -9.454558e-03  0 
 -1.658843e-03  -1.531963e-02  0 
 -4.758542e-03  -8.466055e-03  0 
 -1.125506e-02  -3.629762e-02  0 
 -2.145155e-02  -3.617252e-02  0 
 -1.924073e-03  -1.571137e-02  0 
 -1.002072e-02  -1.190340e-02  0 
 -2.449530e-03  -7.466282e-03  0 
 -2.458003e-03  -7.064348e-03  0 
 -2.140564e-03  -7.314344e-03  0 
CELL_DATA 43
TENSORS element_stresses FLOAT
 -4.608545e-02  -7.531174e-03  0 
 -7.531174e-03  4.796039e-02  0 
 0  0  0 

 -2.292974e-02  2.782277e-02  0 
 2.782277e-02  9.244000e-02  0 
 0  0  0 

 -5.790828e-03  3.782966e-02  0 
 3.782966e-02  1.049990e-01  0 
 0  0  0 

 -2.263135e-02  2.242278e-02  0 
 2.242278e-02  1.598538e-02  0 
 0  0  0 

 -9.908291e-03  -3.710888e-02  0 
 -3.710888e-02  6.614811e-02  0 
 0  0  0 

 -1.463351e-02  -2.342196e-02  0 
 -2.342196e-02  3.232500e-02  0 
 0  0  0 

 -1.299213e-02  -2.028136e-02  0 
 -2.028136e-02  3.678114e-02  0 
 0  0  0 

 9.615708e-03  -2.058800e-02  0 
 -2.058800e-02  2.575150e-02  0 
 0  0  0 

 -1.785468e-03  -2.467173e-02  0 
 -2.467173e-02  3.896395e-02  0 
 0  0  0 

 1.108751e-03  1.800218e-03  0 
 1.800218e-03  1.285008e-03  0 
 0  0  0 

 -6.811029e-03  -4.047103e-02  0 
 -4.047103e-02  4.425082e-02  0 
 0  0  0 

 -4.868517e-03  -4.680467e-03  0 
 -4.680467e-03  1.704043e-02  0 
 0  0  0 

 4.036019e-03  -1.051816e-02  0 
 -1.051816e-02  1.992261e-03  0 
 0  0  0 

 -5.140111e-03  -2.704349e-02  0 
 -2.704349e-02  2.058328e-02  0 
 0  0  0 

 -3.645907e-03  -1.704092e-02  0 
 -1.704092e-02  4.072707e-02  0 
 0  0  0 

 1.005077e-02  -1.391637e-02  0 
 -1.391637e-02  3.403628e-02  0 
 0  0  0 

 -3.237073e-03  -4.716176e-03  0 
 -4.716176e-03  -8.643858e-04  0 
 0  0  0 

 -8.300711e-03  -3.728111e-02  0 
 -3.728111e-02  5.924191e-02  0 
 0  0  0 

 -5.909641e-03  -3.061904e-02  0 
 -3.061904e-02  3.032604e-02  0 
 0  0  0 

 6.995534e-03  -1.171267e-02  0 
 -1.171267e-02  1.514686e-02  0 
 0  0  0 

 8.257414e-03  -4.339055e-03  0 
 -4.339055e-03  2.112142e-02  0 
 0  0  0 

 -1.479243e-02  -9.547824e-03  0 
 -9.547824e-03  2.300059e-02  0 
 0  0  0 

 1.752077e-02  -5.992543e-03  0 
 -5.992543e-03  5.868108e-02  0 
 0  0  0 

 -1.289749e-02  -3.144957e-02  0 
 -3.144957e-02  6.853078e-02  0 
 0  0  0 

 -3.475642e-04  -1.475908e-02  0 
 -1.475908e-02  1.012310e-01  0 
 0  0  0 

 -1.393959e-02  -7.504294e-03  0 
 -7.504294e-03  2.329395e-02  0 
 0  0  0 

 -1.214308e-02  -2.400411e-02  0 
 -2.400411e-02  3.290578e-02  0 
 0  0  0 

 4.518363e-03  -2.407000e-02  0 
 -2.407000e-02  4.439539e-02  0 
 0  0  0 

 7.447623e-03  -4.329154e-03  0 
 -4.329154e-03  6.427627e-02  0 
 0  0  0 

 -2.988473e-02  -3.628903e-03  0 
 -3.628903e-03  2.739396e-02  0 
 0  0  0 

 -1.553897e-02  -9.615240e-03  0 
 -9.615240e-03  2.514400e-02  0 
 0  0  0 

 -3.687646e-02  -6.924079e-03  0 
 -6.924079e-03  3.078773e-02  0 
 0  0  0 

 -2.401519e-02  -1.507559e-02  0 
 -1.507559e-02  -7.105239e-03  0 
 0  0  0 

 -2.977007e-02  -3.979637e-03  0 
 -3.979637e-03  3.317309e-02  0 
 0  0  0 

 -1.356518e-02  -1.601662e-02  0 
 -1.601662e-02  6.411105e-03  0 
 0  0  0 

 -1.230474e-02  2.006287e-03  0 
 2.006287e-03  8.768205e-03  0 
 0  0  0 

 -2.553974e-02  4.422075e-04  0 
 4.422075e-04  2.412278e-02  0 
 0  0  0 

 -2.340287e-02  -8.412136e-02  0 
 -8.412136e-02  6.563983e-03  0 
 0  0  0 

 -3.972335e-02  -1.100338e-01  0 
 -1.100338e-01  1.001924e-02  0 
 0  0  0 

 -1.504067e-02  -8.427109e-02  0 
 -8.427109e-02  9.866250e-02  0 
 0  0  0 

 2.776036e-02  -1.094474e-01  0 
 -1.094474e-01  1.785167e-02  0 
 0  0  0 

 -5.737542e-02  -8.242019e-02  0 
 -8.242019e-02  8.725330e-02  0 
 0  0  0 

 1.910962e-03  -6.408683e-02  0 
 -6.408683e-02  8.888111e-02  0 
 0  0  0 

TENSORS element_stresses FLOAT
 -4.608545e-02  -7.531174e-03  0 
 -7.531174e-03  4.796039e-02  0 
 0  0  0 

 -2.292974e-02  2.782277e-02  0 
 2.782277e-02  9.244000e-02  0 
 0  0  0 

 -5.790828e-03  3.782966e-02  0 
 3.782966e-02  1.049990e-01  0 
 0  0  0 

 -2.263135e-02  2.242278e-02  0 
 2.242278e-02  1.598538e-02  0 
 0  0  0 

 -9.908291e-03  -3.710888e-02  0 
 -3.710888e-02  6.614811e-02  0 
 0  0  0 

 -1.463351e-02  -2.342196e-02  0 
 -2.342196e-02  3.232500e-02  0 
 0  0  0 

 -1.299213e-02  -2.028136e-02  0 
 -2.028136e-02  3.678114e-02  0 
 0  0  0 

 9.615708e-03  -2.058800e-02  0 
 -2.058800e-02  2.575150e-02  0 
 0  0  0 

 -1.785468e-03  -2.467173e-02  0 
 -2.467173e-02  3.896395e-02  0 
 0  0  0 

 1.108751e-03  1.800218e-03  0 
 1.800218e-03  1.285008e-03  0 
 0  0  0 

 -6.811029e-03  -4.047103e-02  0 
 -4.047103e-02  4.425082e-02  0 
 0  0  0 

 -4.868517e-03  -4.680467e-03  0 
 -4.680467e-03  1.704043e-02  0 
 0  0  0 

 4.036019e-03  -1.051816e-02  0 
 -1.051816e-02  1.992261e-03  0 
 0  0  0 

 -5.140111e-03  -2.704349e-02  0 
 -2.704349e-02  2.058328e-02  0 
 0  0  0 

 -3.645907e-03  -1.704092e-02  0 
 -1.704092e-02  4.072707e-02  0 
 0  0  0 

 1.005077e-02  -1.391637e-02  0 
 -1.391637e-02  3.403628e-02  0 
 0  0  0 

 -3.237073e-03  -4.716176e-03  0 
 -4.716176e-03  -8.643858e-04  0 
 0  0  0 

 -8.300711e-03  -3.728111e-02  0 
 -3.728111e-02  5.924191e-02  0 
 0  0  0 

 -5.909641e-03  -3.061904e-02  0 
 -3.061904e-02  3.032604e-02  0 
 0  0  0 

 6.995534e-03  -1.171267e-02  0 
 -1.171267e-02  1.514686e-02  0 
 0  0  0 

 8.257414e-03  -4.339055e-03  0 
 -4.339055e-03  2.112142e-02  0 
 0  0  0 

 -1.479243e-02  -9.547824e-03  0 
 -9.547824e-03  2.300059e-02  0 
 0  0  0 

 1.752077e-02  -5.992543e-03  0 
 -5.992543e-03  5.868108e-02  0 
 0  0  0 

 -1.289749e-02  -3.144957e-02  0 
 -3.144957e-02  6.853078e-02  0 
 0  0  0 

 -3.475642e-04  -1.475908e-02  0 
 -1.475908e-02  1.012310e-01  0 
 0  0  0 

 -1.393959e-02  -7.504294e-03  0 
 -7.504294e-03  2.329395e-02  0 
 0  0  0 

 -1.214308e-02  -2.400411e-02  0 
 -2.400411e-02  3.290578e-02  0 
 0  0  0 

 4.518363e-03  -2.407000e-02  0 
 -2.407000e-02  4.439539e-02  0 
 0  0  0 

 7.447623e-03  -4.329154e-03  0 
 -4.329154e-03  6.427627e-02  0 
 0  0  0 

 -2.988473e-02  -3.628903e-03  0 
 -3.628903e-03  2.739396e-02  0 
 0  0  0 

 -1.553897e-02  -9.615240e-03  0 
 -9.615240e-03  2.514400e-02  0 
 0  0  0 

 -3.687646e-02  -6.924079e-03  0 
 -6.924079e-03  3.078773e-02  0 
 0  0  0 

 -2.401519e-02  -1.507559e-02  0 
 -1.507559e-02  -7.105239e-03  0 
 0  0  0 

 -2.977007e-02  -3.979637e-03  0 
 -3.979637e-03  3.317309e-02  0 
 0  0  0 

 -1.356518e-02  -1.601662e-02  0 
 -1.601662e-02  6.411105e-03  0 
 0  0  0 

 -1.230474e-02  2.006287e-03  0 
 2.006287e-03  8.768205e-03  0 
 0  0  0 

 -2.553974e-02  4.422075e-04  0 
 4.422075e-04  2.412278e-02  0 
 0  0  0 

 -2.340287e-02  -8.412136e-02  0 
 -8.412136e-02  6.563983e-03  0 
 0  0  0 

 -3.972335e-02  -1.100338e-01  0 
 -1.100338e-01  1.001924e-02  0 
 0  0  0 

 -1.504067e-02  -8.427109e-02  0 
 -8.427109e-02  9.866250e-02  0 
 0  0  0 

 2.776036e-02  -1.094474e-01  0 
 -1.094474e-01  1.785167e-02  0 
 0  0  0 

 -5.737542e-02  -8.242019e-02  0 
 -8.242019e-02  8.725330e-02  0 
 0  0  0 

 1.910962e-03  -6.408683e-02  0 
 -6.408683e-02  8.888111e-02  0 
 0  0  0 

