# vtk DataFile Version 3.1
this is an vtk file created by FEMAC
ASCII
DATASET UNSTRUCTURED_GRID
POINTS 30 FLOAT
5.000000 6.000000 0.000000
6.000000 5.000000 0.000000
6.000000 6.000000 0.000000
5.000000 5.250000 0.000000
5.000000 5.500000 0.000000
5.000000 5.750000 0.000000
5.500000 5.000000 0.000000
5.750000 5.000000 0.000000
5.250000 6.000000 0.000000
5.500000 6.000000 0.000000
5.750000 6.000000 0.000000
6.000000 5.250000 0.000000
6.000000 5.500000 0.000000
6.000000 5.750000 0.000000
5.447447 5.528256 0.000000
5.813081 5.669072 0.000000
5.813653 5.331392 0.000000
5.255000 5.805000 0.000000
5.255000 5.195000 0.000000
5.775000 5.500000 0.000000
5.660928 5.805846 0.000000
5.661595 5.194695 0.000000
5.169567 5.378219 0.000000
5.242859 5.565925 0.000000
5.413341 5.323754 0.000000
5.453287 5.717271 0.000000
5.616917 5.404183 0.000000
5.613486 5.598598 0.000000
5.844802 5.844984 0.000000
5.845050 5.155217 0.000000
CELLS 43 172 
3 15 12 13
3 12 16 11
3 17  9  8
3 15 19 12
3 19 16 12
3 26 16 19
3 15 27 19
3 3 22  4
3 23  5  4
3 7 21  6
3 20 10  9
3 20 27 15
3 26 21 16
3 23 25 17
3 24 22 18
3 26 27 14
3 26 19 27
3 23 17  5
3 18 22  3
3 6 24 18
3 6 21 24
3 26 14 24
3 24 21 26
3 25  9 17
3 20  9 25
3 14 27 25
3 20 25 27
3 17  0  5
3 8  0 17
3 10 28  2
3 13 28 15
3 28 13  2
3 29  7  1
3 29 11 16
3 11 29  1
3 20 28 10
3 20 15 28
3 29 21  7
3 16 21 29
3 4 22 23
3 24 14 23
3 14 25 23
3 23 22 24
CELL_TYPES 43
5 5 5 5 5 5 5 5 5 5 5 5 5 5 5 5 5 5 5 5 5 5 5 5 5 5 5 5 5 5 5 5 5 5 5 5 5 5 5 5 5 5 5 
POINT_DATA 30
VECTORS displacement_ITER1 FLOAT
 2.352198e-01  -3.390117e-01  0 
 1.191598e-01  -4.550857e-01  0 
 2.352567e-01  -4.551649e-01  0 
 1.481510e-01  -3.390025e-01  0 
 1.771716e-01  -3.390056e-01  0 
 2.061962e-01  -3.390073e-01  0 
 1.191384e-01  -3.970550e-01  0 
 1.191460e-01  -4.260753e-01  0 
 2.352313e-01  -3.680451e-01  0 
 2.352414e-01  -3.970768e-01  0 
 2.352505e-01  -4.261164e-01  0 
 1.481654e-01  -4.551163e-01  0 
 1.771858e-01  -4.551377e-01  0 
 2.062161e-01  -4.551546e-01  0 
 1.804574e-01  -3.909627e-01  0 
 1.968135e-01  -4.334344e-01  0 
 1.576068e-01  -4.334843e-01  0 
 2.125876e-01  -3.686176e-01  0 
 1.417687e-01  -3.686115e-01  0 
 1.771812e-01  -4.290035e-01  0 
 2.126959e-01  -4.157633e-01  0 
 1.417373e-01  -4.158223e-01  0 
 1.630366e-01  -3.586926e-01  0 
 1.848285e-01  -3.672047e-01  0 
 1.567152e-01  -3.869991e-01  0 
 2.024047e-01  -3.916438e-01  0 
 1.660541e-01  -4.106407e-01  0 
 1.886266e-01  -4.102475e-01  0 
 2.172457e-01  -4.371261e-01  0 
 1.371600e-01  -4.371190e-01  0 
VECTORS displacement_ITER2 FLOAT
 2.065809e-01  -2.595368e-01  0 
 1.081594e-01  -3.579789e-01  0 
 2.066253e-01  -3.580353e-01  0 
 1.327493e-01  -2.595046e-01  0 
 1.573569e-01  -2.595157e-01  0 
 1.819703e-01  -2.595264e-01  0 
 1.081400e-01  -3.087438e-01  0 
 1.081466e-01  -3.333652e-01  0 
 2.065949e-01  -2.841536e-01  0 
 2.066080e-01  -3.087714e-01  0 
 2.066187e-01  -3.333987e-01  0 
 1.327619e-01  -3.579993e-01  0 
 1.573763e-01  -3.580131e-01  0 
 1.819965e-01  -3.580259e-01  0 
 1.601507e-01  -3.035798e-01  0 
 1.740226e-01  -3.396038e-01  0 
 1.407714e-01  -3.396483e-01  0 
 1.873945e-01  -2.846351e-01  0 
 1.273386e-01  -2.846130e-01  0 
 1.573732e-01  -3.358459e-01  0 
 1.874909e-01  -3.246166e-01  0 
 1.273113e-01  -3.246664e-01  0 
 1.453740e-01  -2.762063e-01  0 
 1.638553e-01  -2.834314e-01  0 
 1.400165e-01  -3.002141e-01  0 
 1.787622e-01  -3.041603e-01  0 
 1.479369e-01  -3.202697e-01  0 
 1.670794e-01  -3.199372e-01  0 
 1.913501e-01  -3.427352e-01  0 
 1.234283e-01  -3.427342e-01  0 
VECTORS displacement_ITER3 FLOAT
 1.608012e-01  -1.697095e-01  0 
 7.851544e-02  -2.520212e-01  0 
 1.608574e-01  -2.520450e-01  0 
 9.908426e-02  -1.696401e-01  0 
 1.196540e-01  -1.696641e-01  0 
 1.402308e-01  -1.696890e-01  0 
 7.849943e-02  -2.108205e-01  0 
 7.850460e-02  -2.314230e-01  0 
 1.608190e-01  -1.902802e-01  0 
 1.608371e-01  -2.108566e-01  0 
 1.608503e-01  -2.314459e-01  0 
 9.909465e-02  -2.520276e-01  0 
 1.196805e-01  -2.520304e-01  0 
 1.402659e-01  -2.520371e-01  0 
 1.220009e-01  -2.065068e-01  0 
 1.335999e-01  -2.366327e-01  0 
 1.057962e-01  -2.366750e-01  0 
 1.447719e-01  -1.906765e-01  0 
 9.456328e-02  -1.906305e-01  0 
 1.196796e-01  -2.334914e-01  0 
 1.448588e-01  -2.241010e-01  0 
 9.453887e-02  -2.241437e-01  0 
 1.096416e-01  -1.836102e-01  0 
 1.250949e-01  -1.896612e-01  0 
 1.051675e-01  -2.036859e-01  0 
 1.375599e-01  -2.069965e-01  0 
 1.117903e-01  -2.204637e-01  0 
 1.277948e-01  -2.201868e-01  0 
 1.480860e-01  -2.392513e-01  0 
 9.128987e-02  -2.392609e-01  0 
VECTORS displacement_ITER4 FLOAT
 1.340296e-01  -1.300205e-01  0 
 6.160760e-02  -2.024658e-01  0 
 1.340937e-01  -2.024734e-01  0 
 7.971849e-02  -1.299266e-01  0 
 9.782203e-02  -1.299592e-01  0 
 1.159306e-01  -1.299930e-01  0 
 6.159389e-02  -1.661813e-01  0 
 6.159867e-02  -1.843250e-01  0 
 1.340500e-01  -1.481163e-01  0 
 1.340714e-01  -1.662212e-01  0 
 1.340862e-01  -1.843422e-01  0 
 7.972781e-02  -2.024663e-01  0 
 9.785082e-02  -2.024634e-01  0 
 1.159699e-01  -2.024665e-01  0 
 9.989405e-02  -1.623869e-01  0 
 1.101032e-01  -1.889067e-01  0 
 8.562928e-02  -1.889472e-01  0 
 1.199313e-01  -1.484601e-01  0 
 7.574133e-02  -1.484013e-01  0 
 9.785108e-02  -1.861423e-01  0 
 1.200118e-01  -1.778758e-01  0 
 7.571843e-02  -1.779144e-01  0 
 8.901311e-02  -1.422279e-01  0 
 1.026157e-01  -1.475603e-01  0 
 8.507793e-02  -1.598998e-01  0 
 1.135873e-01  -1.628205e-01  0 
 9.090737e-02  -1.746729e-01  0 
 1.049941e-01  -1.744297e-01  0 
 1.228527e-01  -1.912118e-01  0 
 7.285702e-02  -1.912263e-01  0 
VECTORS displacement_ITER5 FLOAT
 1.221633e-01  -9.483741e-02  0 
 4.973499e-02  -1.672790e-01  0 
 1.222324e-01  -1.672882e-01  0 
 6.785124e-02  -9.473219e-02  0 
 8.596084e-02  -9.476987e-02  0 
 1.040686e-01  -9.480629e-02  0 
 4.972241e-02  -1.309959e-01  0 
 4.972821e-02  -1.491392e-01  0 
 1.221857e-01  -1.129295e-01  0 
 1.222092e-01  -1.310325e-01  0 
 1.222247e-01  -1.491552e-01  0 
 6.785993e-02  -1.672825e-01  0 
 8.598530e-02  -1.672797e-01  0 
 1.041068e-01  -1.672817e-01  0 
 8.803066e-02  -1.271989e-01  0 
 9.823968e-02  -1.537205e-01  0 
 7.376201e-02  -1.537620e-01  0 
 1.080691e-01  -1.132713e-01  0 
 6.387400e-02  -1.132128e-01  0 
 8.598599e-02  -1.509564e-01  0 
 1.081494e-01  -1.426879e-01  0 
 6.384940e-02  -1.427290e-01  0 
 7.714969e-02  -1.070388e-01  0 
 9.075388e-02  -1.123710e-01  0 
 7.321226e-02  -1.247124e-01  0 
 1.017250e-01  -1.276317e-01  0 
 7.904178e-02  -1.394863e-01  0 
 9.313047e-02  -1.392422e-01  0 
 1.109904e-01  -1.560254e-01  0 
 6.098716e-02  -1.560401e-01  0 
VECTORS displacement_ITER6 FLOAT
 1.055041e-01  -7.392599e-02  0 
 3.932579e-02  -1.401124e-01  0 
 1.055782e-01  -1.401238e-01  0 
 5.588268e-02  -7.381304e-02  0 
 7.243424e-02  -7.385548e-02  0 
 8.897726e-02  -7.389275e-02  0 
 3.931357e-02  -1.069599e-01  0 
 3.932088e-02  -1.235381e-01  0 
 1.055288e-01  -9.045265e-02  0 
 1.055542e-01  -1.069912e-01  0 
 1.055704e-01  -1.235524e-01  0 
 5.589017e-02  -1.401187e-01  0 
 7.245364e-02  -1.401164e-01  0 
 8.901399e-02  -1.401177e-01  0 
 7.432450e-02  -1.034873e-01  0 
 8.365253e-02  -1.277239e-01  0 
 6.128343e-02  -1.277631e-01  0 
 9.263336e-02  -9.076135e-02  0 
 5.224935e-02  -9.070571e-02  0 
 7.245479e-02  -1.251983e-01  0 
 9.270805e-02  -1.176412e-01  0 
 5.222462e-02  -1.176814e-01  0 
 6.438271e-02  -8.506448e-02  0 
 7.681380e-02  -8.993738e-02  0 
 6.078343e-02  -1.012154e-01  0 
 8.683760e-02  -1.038824e-01  0 
 6.610957e-02  -1.147165e-01  0 
 7.898402e-02  -1.144926e-01  0 
 9.530448e-02  -1.298305e-01  0 
 4.960880e-02  -1.298439e-01  0 
VECTORS displacement_ITER7 FLOAT
 8.991746e-02  -5.580114e-02  0 
 3.634609e-02  -1.093878e-01  0 
 8.999539e-02  -1.093940e-01  0 
 4.975340e-02  -5.568303e-02  0 
 6.315401e-02  -5.572992e-02  0 
 7.654467e-02  -5.576750e-02  0 
 3.633311e-02  -8.253530e-02  0 
 3.634184e-02  -9.596294e-02  0 
 8.994414e-02  -6.917648e-02  0 
 8.997088e-02  -8.256335e-02  0 
 8.998751e-02  -9.597355e-02  0 
 4.975958e-02  -1.093917e-01  0 
 6.317229e-02  -1.093880e-01  0 
 7.658216e-02  -1.093882e-01  0 
 6.468833e-02  -7.972148e-02  0 
 7.224089e-02  -9.935018e-02  0 
 5.412740e-02  -9.938424e-02  0 
 7.950757e-02  -6.942093e-02  0 
 4.681432e-02  -6.936473e-02  0 
 6.317413e-02  -9.730516e-02  0 
 7.957240e-02  -9.118484e-02  0 
 4.679167e-02  -9.122008e-02  0 
 5.663854e-02  -6.480045e-02  0 
 6.670278e-02  -6.874993e-02  0 
 5.372571e-02  -7.787974e-02  0 
 7.481830e-02  -8.004278e-02  0 
 5.803720e-02  -8.881580e-02  0 
 6.846085e-02  -8.863429e-02  0 
 8.167556e-02  -1.010568e-01  0 
 4.467335e-02  -1.010704e-01  0 
VECTORS displacement_ITER8 FLOAT
 7.289156e-02  -3.587627e-02  0 
 2.360897e-02  -8.518238e-02  0 
 7.297097e-02  -8.518198e-02  0 
 3.594405e-02  -3.575454e-02  0 
 4.827136e-02  -3.580470e-02  0 
 6.059090e-02  -3.584276e-02  0 
 2.359492e-02  -6.046785e-02  0 
 2.360486e-02  -7.282566e-02  0 
 7.291901e-02  -4.818045e-02  0 
 7.294620e-02  -6.049566e-02  0 
 7.296304e-02  -7.283371e-02  0 
 3.595066e-02  -8.518242e-02  0 
 4.829189e-02  -8.517705e-02  0 
 6.062996e-02  -8.517628e-02  0 
 4.968706e-02  -5.787782e-02  0 
 5.663591e-02  -7.593975e-02  0 
 3.997013e-02  -7.597301e-02  0 
 6.331848e-02  -4.840309e-02  0 
 3.324271e-02  -4.834298e-02  0 
 4.829426e-02  -7.405835e-02  0 
 6.338059e-02  -6.842683e-02  0 
 3.322051e-02  -6.846096e-02  0 
 4.228003e-02  -4.414666e-02  0 
 5.153897e-02  -4.778365e-02  0 
 3.960237e-02  -5.618135e-02  0 
 5.900597e-02  -5.817478e-02  0 
 4.356859e-02  -6.624629e-02  0 
 5.315807e-02  -6.607935e-02  0 
 6.531599e-02  -7.751034e-02  0 
 3.127154e-02  -7.752595e-02  0 
VECTORS displacement_ITER9 FLOAT
 6.388253e-02  -2.683243e-02  0 
 1.511033e-02  -7.562655e-02  0 
 6.395886e-02  -7.562681e-02  0 
 2.731337e-02  -2.671114e-02  0 
 3.951250e-02  -2.676157e-02  0 
 5.170729e-02  -2.679945e-02  0 
 1.509532e-02  -5.116687e-02  0 
 1.510629e-02  -6.339659e-02  0 
 6.390847e-02  -3.900934e-02  0 
 6.393454e-02  -5.119733e-02  0 
 6.395100e-02  -6.340699e-02  0 
 2.732391e-02  -7.562608e-02  0 
 3.953678e-02  -7.562128e-02  0 
 5.174635e-02  -7.562088e-02  0 
 4.091638e-02  -4.860568e-02  0 
 4.779378e-02  -6.648033e-02  0 
 3.130133e-02  -6.651253e-02  0 
 5.440674e-02  -3.923045e-02  0 
 2.464281e-02  -3.916652e-02  0 
 3.953895e-02  -6.461808e-02  0 
 5.446807e-02  -5.904600e-02  0 
 2.462153e-02  -5.907798e-02  0 
 3.358441e-02  -3.501624e-02  0 
 4.274793e-02  -3.861727e-02  0 
 3.093671e-02  -4.692522e-02  0 
 5.013866e-02  -4.890071e-02  0 
 3.486219e-02  -5.688669e-02  0 
 4.435187e-02  -5.672240e-02  0 
 5.638346e-02  -6.803488e-02  0 
 2.269339e-02  -6.804883e-02  0 
VECTORS displacement_ITER10 FLOAT
 6.316642e-02  -2.213340e-02  0 
 1.312413e-02  -7.219155e-02  0 
 6.323856e-02  -7.219649e-02  0 
 2.563978e-02  -2.201554e-02  0 
 3.815699e-02  -2.206466e-02  0 
 5.067166e-02  -2.210147e-02  0 
 1.310916e-02  -4.710084e-02  0 
 1.312044e-02  -5.964581e-02  0 
 6.319038e-02  -3.462801e-02  0 
 6.321494e-02  -4.713374e-02  0 
 6.323080e-02  -5.966008e-02  0 
 2.565460e-02  -7.219280e-02  0 
 3.818366e-02  -7.218965e-02  0 
 5.070950e-02  -7.219022e-02  0 
 3.959775e-02  -4.447559e-02  0 
 4.665427e-02  -6.281301e-02  0 
 2.973438e-02  -6.284413e-02  0 
 5.344030e-02  -3.485684e-02  0 
 2.290185e-02  -3.479161e-02  0 
 3.818531e-02  -6.090189e-02  0 
 5.350174e-02  -5.518654e-02  0 
 2.288118e-02  -5.521652e-02  0 
 3.207419e-02  -3.053470e-02  0 
 4.147652e-02  -3.422897e-02  0 
 2.935872e-02  -4.275102e-02  0 
 4.906005e-02  -4.477866e-02  0 
 3.338675e-02  -5.297018e-02  0 
 4.312283e-02  -5.280255e-02  0 
 5.546678e-02  -6.440800e-02  0 
 2.090358e-02  -6.441873e-02  0 
VECTORS displacement_ITER11 FLOAT
 5.588661e-02  -1.819088e-02  0 
 9.186321e-03  -6.490844e-02  0 
 5.595866e-02  -6.491205e-02  0 
 2.086717e-02  -1.807531e-02  0 
 3.254930e-02  -1.812428e-02  0 
 4.422776e-02  -1.816018e-02  0 
 9.173233e-03  -4.148851e-02  0 
 9.183281e-03  -5.319813e-02  0 
 5.591066e-02  -2.985072e-02  0 
 5.593510e-02  -4.152104e-02  0 
 5.595092e-02  -5.321154e-02  0 
 2.088199e-02  -6.490909e-02  0 
 3.257560e-02  -6.490527e-02  0 
 4.426552e-02  -6.490575e-02  0 
 3.389515e-02  -3.903848e-02  0 
 4.048090e-02  -5.615350e-02  0 
 2.469003e-02  -5.618279e-02  0 
 4.681217e-02  -3.006299e-02  0 
 1.831423e-02  -2.999816e-02  0 
 3.257725e-02  -5.436965e-02  0 
 4.687097e-02  -4.903581e-02  0 
 1.829384e-02  -4.906344e-02  0 
 2.687337e-02  -2.602747e-02  0 
 3.564787e-02  -2.947616e-02  0 
 2.434014e-02  -3.742790e-02  0 
 4.272526e-02  -3.932203e-02  0 
 2.809910e-02  -4.696639e-02  0 
 3.718501e-02  -4.681027e-02  0 
 4.870518e-02  -5.764247e-02  0 
 1.644773e-02  -5.765286e-02  0 
VECTORS displacement_ITER12 FLOAT
 5.505226e-02  -1.558438e-02  0 
 1.210295e-02  -5.855447e-02  0 
 5.512616e-02  -5.855347e-02  0 
 2.284951e-02  -1.546869e-02  0 
 3.359380e-02  -1.551843e-02  0 
 4.433264e-02  -1.555434e-02  0 
 1.209240e-02  -3.700711e-02  0 
 1.210065e-02  -4.778054e-02  0 
 5.507724e-02  -2.630659e-02  0 
 5.510226e-02  -3.703877e-02  0 
 5.511836e-02  -4.779109e-02  0 
 2.286249e-02  -5.855332e-02  0 
 3.361914e-02  -5.854763e-02  0 
 4.437115e-02  -5.854733e-02  0 
 3.483314e-02  -3.475287e-02  0 
 4.089034e-02  -5.049641e-02  0 
 2.636616e-02  -5.052458e-02  0 
 4.671068e-02  -2.649961e-02  0 
 2.050343e-02  -2.643459e-02  0 
 3.362107e-02  -4.885569e-02  0 
 4.676705e-02  -4.394946e-02  0 
 2.048271e-02  -4.397555e-02  0 
 2.837482e-02  -2.278491e-02  0 
 3.644447e-02  -2.595823e-02  0 
 2.604586e-02  -3.327025e-02  0 
 4.295353e-02  -3.501447e-02  0 
 2.950266e-02  -4.204530e-02  0 
 3.785890e-02  -4.190178e-02  0 
 4.845441e-02  -5.186627e-02  0 
 1.878371e-02  -5.187822e-02  0 
VECTORS displacement_ITER13 FLOAT
 5.169438e-02  -1.360300e-02  0 
 7.899173e-03  -5.741866e-02  0 
 5.176989e-02  -5.741341e-02  0 
 1.886088e-02  -1.348494e-02  0 
 2.981610e-02  -1.353543e-02  0 
 4.076478e-02  -1.357261e-02  0 
 7.891070e-03  -3.544555e-02  0 
 7.897508e-03  -4.643192e-02  0 
 5.171993e-02  -2.453518e-02  0 
 5.174555e-02  -3.547758e-02  0 
 5.176200e-02  -4.644042e-02  0 
 1.887226e-02  -5.741628e-02  0 
 2.984124e-02  -5.740870e-02  0 
 4.080424e-02  -5.740748e-02  0 
 3.107944e-02  -3.314653e-02  0 
 3.725538e-02  -4.919894e-02  0 
 2.244573e-02  -4.922848e-02  0 
 4.318947e-02  -2.473190e-02  0 
 1.646869e-02  -2.466493e-02  0 
 2.984343e-02  -4.752629e-02  0 
 4.324722e-02  -4.252355e-02  0 
 1.644634e-02  -4.255054e-02  0 
 2.449446e-02  -2.094413e-02  0 
 3.272241e-02  -2.417958e-02  0 
 2.211970e-02  -3.163463e-02  0 
 3.935894e-02  -3.341336e-02  0 
 2.564424e-02  -4.058210e-02  0 
 3.416453e-02  -4.043571e-02  0 
 4.496758e-02  -5.059545e-02  0 
 1.471297e-02  -5.060973e-02  0 
VECTORS displacement_ITER14 FLOAT
 5.025740e-02  -1.260515e-02  0 
 3.889805e-03  -5.898958e-02  0 
 5.033227e-02  -5.898377e-02  0 
 1.549527e-02  -1.248634e-02  0 
 2.709268e-02  -1.253587e-02  0 
 3.868448e-02  -1.257427e-02  0 
 3.882412e-03  -3.572995e-02  0 
 3.887956e-03  -4.735954e-02  0 
 5.028239e-02  -2.417898e-02  0 
 5.030785e-02  -3.576359e-02  0 
 5.032436e-02  -4.736857e-02  0 
 1.550668e-02  -5.898748e-02  0 
 2.711897e-02  -5.897939e-02  0 
 3.872439e-02  -5.897789e-02  0 
 2.842953e-02  -3.329683e-02  0 
 3.496765e-02  -5.028906e-02  0 
 1.928978e-02  -5.031999e-02  0 
 4.125080e-02  -2.438871e-02  0 
 1.296205e-02  -2.431933e-02  0 
 2.712115e-02  -4.851846e-02  0 
 4.131081e-02  -4.322284e-02  0 
 1.293847e-02  -4.325054e-02  0 
 2.145806e-02  -2.038009e-02  0 
 3.016900e-02  -2.380459e-02  0 
 1.894397e-02  -3.169642e-02  0 
 3.719489e-02  -3.357925e-02  0 
 2.267552e-02  -4.116762e-02  0 
 3.169563e-02  -4.101288e-02  0 
 4.313174e-02  -5.176711e-02  0 
 1.110329e-02  -5.178207e-02  0 
VECTORS displacement_ITER15 FLOAT
 4.620456e-02  -1.054398e-02  0 
 3.006643e-03  -5.376080e-02  0 
 4.627788e-02  -5.375557e-02  0 
 1.381803e-02  -1.042858e-02  0 
 2.462148e-02  -1.047577e-02  0 
 3.542212e-02  -1.051374e-02  0 
 2.997688e-03  -3.208592e-02  0 
 3.003588e-03  -4.292291e-02  0 
 4.622887e-02  -2.132678e-02  0 
 4.625371e-02  -3.212000e-02  0 
 4.627001e-02  -4.293269e-02  0 
 1.382956e-02  -5.375857e-02  0 
 2.464930e-02  -5.375082e-02  0 
 3.546235e-02  -5.374956e-02  0 
 2.586985e-02  -2.981941e-02  0 
 3.196203e-02  -4.565313e-02  0 
 1.735454e-02  -4.568204e-02  0 
 3.781434e-02  -2.152127e-02  0 
 1.145920e-02  -2.145119e-02  0 
 2.465143e-02  -4.400306e-02  0 
 3.787167e-02  -3.906931e-02  0 
 1.143660e-02  -3.909444e-02  0 
 1.937329e-02  -1.778303e-02  0 
 2.748943e-02  -2.097567e-02  0 
 1.703271e-02  -2.832667e-02  0 
 3.403627e-02  -3.008371e-02  0 
 2.050944e-02  -3.715307e-02  0 
 2.891324e-02  -3.700948e-02  0 
 3.956861e-02  -4.703075e-02  0 
 9.726981e-03  -4.704472e-02  0 
VECTORS displacement_ITER16 FLOAT
 4.459340e-02  -9.313330e-03  0 
 4.240531e-03  -4.968696e-02  0 
 4.466601e-02  -4.968232e-02  0 
 1.434026e-02  -9.200678e-03  0 
 2.443107e-02  -9.246280e-03  0 
 3.452115e-02  -9.283574e-03  0 
 4.230571e-03  -2.943540e-02  0 
 4.236912e-03  -3.956057e-02  0 
 4.461745e-02  -1.938602e-02  0 
 4.464197e-02  -2.946876e-02  0 
 4.465816e-02  -3.957046e-02  0 
 1.435112e-02  -4.968480e-02  0 
 2.445950e-02  -4.967737e-02  0 
 3.456151e-02  -4.967624e-02  0 
 2.559955e-02  -2.731753e-02  0 
 3.129134e-02  -4.211142e-02  0 
 1.764438e-02  -4.213872e-02  0 
 3.675700e-02  -1.956659e-02  0 
 1.213762e-02  -1.949672e-02  0 
 2.446165e-02  -4.056961e-02  0 
 3.681193e-02  -3.596045e-02  0 
 1.211545e-02  -3.598388e-02  0 
 1.952972e-02  -1.607146e-02  0 
 2.711172e-02  -1.905572e-02  0 
 1.734447e-02  -2.592175e-02  0 
 3.322835e-02  -2.756535e-02  0 
 2.059227e-02  -3.416924e-02  0 
 2.844294e-02  -3.403544e-02  0 
 3.839760e-02  -4.339890e-02  0 
 1.051845e-02  -4.341208e-02  0 
VECTORS displacement_ITER17 FLOAT
 4.598724e-02  -8.857130e-03  0 
 3.944724e-03  -5.091805e-02  0 
 4.605979e-02  -5.091492e-02  0 
 1.446754e-02  -8.745065e-03  0 
 2.498050e-02  -8.790054e-03  0 
 3.549293e-02  -8.827125e-03  0 
 3.934928e-03  -2.982406e-02  0 
 3.941442e-03  -4.037044e-02  0 
 4.601123e-02  -1.935175e-02  0 
 4.603577e-02  -2.985661e-02  0 
 4.605194e-02  -4.038069e-02  0 
 1.447782e-02  -5.091693e-02  0 
 2.500848e-02  -5.090993e-02  0 
 3.553292e-02  -5.090884e-02  0 
 2.619638e-02  -2.761681e-02  0 
 3.212600e-02  -4.302820e-02  0 
 1.790840e-02  -4.305635e-02  0 
 3.782155e-02  -1.954075e-02  0 
 1.217168e-02  -1.947138e-02  0 
 2.501063e-02  -4.142204e-02  0 
 3.787770e-02  -3.662020e-02  0 
 1.214846e-02  -3.664484e-02  0 
 1.987326e-02  -1.590170e-02  0 
 2.777231e-02  -1.900952e-02  0 
 1.759581e-02  -2.616355e-02  0 
 3.414455e-02  -2.787443e-02  0 
 2.097937e-02  -3.475469e-02  0 
 2.915856e-02  -3.461510e-02  0 
 3.952948e-02  -4.436929e-02  0 
 1.048481e-02  -4.438226e-02  0 
VECTORS displacement_ITER18 FLOAT
 4.437451e-02  -8.741853e-03  0 
 2.928422e-03  -5.020709e-02  0 
 4.444847e-02  -5.020310e-02  0 
 1.330329e-02  -8.628901e-03  0 
 2.366811e-02  -8.674443e-03  0 
 3.403059e-02  -8.711475e-03  0 
 2.918907e-03  -2.941080e-02  0 
 2.925554e-03  -3.980828e-02  0 
 4.439922e-02  -1.908704e-02  0 
 4.442427e-02  -2.944248e-02  0 
 4.444059e-02  -3.981772e-02  0 
 1.331303e-02  -5.020570e-02  0 
 2.369481e-02  -5.019842e-02  0 
 3.407044e-02  -5.019711e-02  0 
 2.486632e-02  -2.723425e-02  0 
 3.071176e-02  -4.242777e-02  0 
 1.669521e-02  -4.245598e-02  0 
 3.632630e-02  -1.927256e-02  0 
 1.104003e-02  -1.920390e-02  0 
 2.369708e-02  -4.084446e-02  0 
 3.638203e-02  -3.611022e-02  0 
 1.101671e-02  -3.613527e-02  0 
 1.863301e-02  -1.568500e-02  0 
 2.642009e-02  -1.874869e-02  0 
 1.638756e-02  -2.580164e-02  0 
 3.270172e-02  -2.748808e-02  0 
 1.972302e-02  -3.427139e-02  0 
 2.778639e-02  -3.413352e-02  0 
 3.801048e-02  -4.374989e-02  0 
 9.376448e-03  -4.376330e-02  0 
VECTORS displacement_ITER19 FLOAT
 4.398742e-02  -7.732362e-03  0 
 2.510650e-03  -4.922811e-02  0 
 4.406257e-02  -4.922249e-02  0 
 1.289358e-02  -7.616324e-03  0 
 2.326705e-02  -7.663134e-03  0 
 3.363684e-02  -7.701080e-03  0 
 2.501074e-03  -2.841437e-02  0 
 2.508009e-03  -3.882038e-02  0 
 4.401260e-02  -1.808416e-02  0 
 4.403815e-02  -2.844662e-02  0 
 4.405465e-02  -3.882948e-02  0 
 1.290378e-02  -4.922600e-02  0 
 2.329350e-02  -4.921824e-02  0 
 3.367689e-02  -4.921660e-02  0 
 2.446615e-02  -2.623668e-02  0 
 3.031579e-02  -4.144153e-02  0 
 1.628868e-02  -4.147015e-02  0 
 3.593437e-02  -1.826935e-02  0 
 1.062880e-02  -1.819962e-02  0 
 2.329589e-02  -3.985721e-02  0 
 3.599024e-02  -3.511918e-02  0 
 1.060574e-02  -3.514457e-02  0 
 1.822803e-02  -1.467854e-02  0 
 2.602116e-02  -1.774478e-02  0 
 1.598087e-02  -2.480286e-02  0 
 3.230730e-02  -2.649070e-02  0 
 1.931889e-02  -3.327920e-02  0 
 2.738834e-02  -3.314111e-02  0 
 3.761987e-02  -4.276454e-02  0 
 8.964175e-03  -4.277861e-02  0 
VECTORS displacement_ITER20 FLOAT
 4.434402e-02  -6.543855e-03  0 
 2.651894e-03  -4.825502e-02  0 
 4.441948e-02  -4.824931e-02  0 
 1.308812e-02  -6.426346e-03  0 
 2.351591e-02  -6.473832e-03  0 
 3.393971e-02  -6.512194e-03  0 
 2.641551e-03  -2.733307e-02  0 
 2.649119e-03  -3.779311e-02  0 
 4.436932e-02  -1.694925e-02  0 
 4.439501e-02  -2.736548e-02  0 
 4.441156e-02  -3.780231e-02  0 
 1.309879e-02  -4.825283e-02  0 
 2.354239e-02  -4.824516e-02  0 
 3.397981e-02  -4.824345e-02  0 
 2.472126e-02  -2.514419e-02  0 
 3.060125e-02  -4.042801e-02  0 
 1.650118e-02  -4.045689e-02  0 
 3.624919e-02  -1.713539e-02  0 
 1.081161e-02  -1.706522e-02  0 
 2.354483e-02  -3.883552e-02  0 
 3.630524e-02  -3.407276e-02  0 
 1.078870e-02  -3.409853e-02  0 
 1.845063e-02  -1.352577e-02  0 
 2.628442e-02  -1.660806e-02  0 
 1.619174e-02  -2.370297e-02  0 
 3.260323e-02  -2.539947e-02  0 
 1.954717e-02  -3.222339e-02  0 
 2.765862e-02  -3.208450e-02  0 
 3.794332e-02  -4.175785e-02  0 
 9.138785e-03  -4.177204e-02  0 
VECTORS displacement_ITER21 FLOAT
 4.462392e-02  -6.459534e-03  0 
 2.813465e-03  -4.828874e-02  0 
 4.469864e-02  -4.828603e-02  0 
 1.327800e-02  -6.344134e-03  0 
 2.373556e-02  -6.390964e-03  0 
 3.418936e-02  -6.428475e-03  0 
 2.801900e-03  -2.731075e-02  0 
 2.810294e-03  -3.779912e-02  0 
 4.464897e-02  -1.689552e-02  0 
 4.467435e-02  -2.734204e-02  0 
 4.469075e-02  -3.780896e-02  0 
 1.328867e-02  -4.828801e-02  0 
 2.376153e-02  -4.828139e-02  0 
 3.422891e-02  -4.828009e-02  0 
 2.494378e-02  -2.511492e-02  0 
 3.084054e-02  -4.044221e-02  0 
 1.670022e-02  -4.047081e-02  0 
 3.650517e-02  -1.708254e-02  0 
 1.099474e-02  -1.701406e-02  0 
 2.376388e-02  -3.884509e-02  0 
 3.656104e-02  -3.406878e-02  0 
 1.097175e-02  -3.409485e-02  0 
 1.865560e-02  -1.346369e-02  0 
 2.651163e-02  -1.655424e-02  0 
 1.638993e-02  -2.367009e-02  0 
 3.284844e-02  -2.537064e-02  0 
 1.975480e-02  -3.221434e-02  0 
 2.788948e-02  -3.207492e-02  0 
 3.820382e-02  -4.177591e-02  0 
 9.317526e-03  -4.178911e-02  0 
VECTORS displacement_ITER22 FLOAT
 4.494651e-02  -6.495411e-03  0 
 2.994551e-03  -4.846608e-02  0 
 4.502069e-02  -4.846477e-02  0 
 1.349397e-02  -6.381529e-03  0 
 2.398666e-02  -6.427726e-03  0 
 3.447605e-02  -6.464792e-03  0 
 2.982491e-03  -2.741886e-02  0 
 2.991127e-03  -3.794210e-02  0 
 4.497135e-02  -1.696738e-02  0 
 4.499649e-02  -2.744968e-02  0 
 4.501281e-02  -3.795216e-02  0 
 1.350445e-02  -4.846607e-02  0 
 2.401254e-02  -4.845989e-02  0 
 3.451541e-02  -4.845878e-02  0 
 2.519875e-02  -2.521525e-02  0 
 3.111551e-02  -4.059435e-02  0 
 1.692733e-02  -4.062284e-02  0 
 3.679957e-02  -1.715534e-02  0 
 1.120278e-02  -1.708760e-02  0 
 2.401485e-02  -3.899176e-02  0 
 3.685547e-02  -3.419935e-02  0 
 1.117963e-02  -3.422555e-02  0 
 1.888944e-02  -1.352479e-02  0 
 2.677197e-02  -1.662552e-02  0 
 1.661599e-02  -2.376575e-02  0 
 3.313027e-02  -2.547172e-02  0 
 1.999218e-02  -3.233868e-02  0 
 2.815441e-02  -3.219875e-02  0 
 3.850381e-02  -4.193258e-02  0 
 9.519945e-03  -4.194538e-02  0 
VECTORS displacement_ITER23 FLOAT
 4.489891e-02  -6.873871e-03  0 
 3.320068e-03  -4.847144e-02  0 
 4.497250e-02  -4.847028e-02  0 
 1.372566e-02  -6.761077e-03  0 
 2.412503e-02  -6.806529e-03  0 
 3.452129e-02  -6.843464e-03  0 
 3.308135e-03  -2.761044e-02  0 
 3.316476e-03  -3.804062e-02  0 
 4.492349e-02  -1.725279e-02  0 
 4.494841e-02  -2.764196e-02  0 
 4.496465e-02  -3.805106e-02  0 
 1.373654e-02  -4.847134e-02  0 
 2.415124e-02  -4.846519e-02  0 
 3.456063e-02  -4.846423e-02  0 
 2.532665e-02  -2.542713e-02  0 
 3.119094e-02  -4.066965e-02  0 
 1.712903e-02  -4.069767e-02  0 
 3.682427e-02  -1.743908e-02  0 
 1.145514e-02  -1.737136e-02  0 
 2.415345e-02  -3.908119e-02  0 
 3.687980e-02  -3.433156e-02  0 
 1.143241e-02  -3.435698e-02  0 
 1.907315e-02  -1.384054e-02  0 
 2.688572e-02  -1.691385e-02  0 
 1.682020e-02  -2.399026e-02  0 
 3.318764e-02  -2.568149e-02  0 
 2.016650e-02  -3.248713e-02  0 
 2.825612e-02  -3.234863e-02  0 
 3.851353e-02  -4.199606e-02  0 
 9.787453e-03  -4.200852e-02  0 
VECTORS displacement_ITER24 FLOAT
 4.368811e-02  -6.956939e-03  0 
 3.089205e-03  -4.757524e-02  0 
 4.376119e-02  -4.757316e-02  0 
 1.324961e-02  -6.845450e-03  0 
 2.340398e-02  -6.889962e-03  0 
 3.355512e-02  -6.926735e-03  0 
 3.078155e-03  -2.720274e-02  0 
 3.085624e-03  -3.738860e-02  0 
 4.371249e-02  -1.709107e-02  0 
 4.373721e-02  -2.723533e-02  0 
 4.375336e-02  -3.739920e-02  0 
 1.326095e-02  -4.757439e-02  0 
 2.343059e-02  -4.756789e-02  0 
 3.359459e-02  -4.756706e-02  0 
 2.457793e-02  -2.507193e-02  0 
 3.030428e-02  -3.995588e-02  0 
 1.657382e-02  -3.998309e-02  0 
 3.580423e-02  -1.727265e-02  0 
 1.103335e-02  -1.720492e-02  0 
 2.343269e-02  -3.840468e-02  0 
 3.585894e-02  -3.376711e-02  0 
 1.101124e-02  -3.379111e-02  0 
 1.847132e-02  -1.375806e-02  0 
 2.609993e-02  -1.675935e-02  0 
 1.627199e-02  -2.366832e-02  0 
 3.225359e-02  -2.532068e-02  0 
 1.953962e-02  -3.196555e-02  0 
 2.743852e-02  -3.183062e-02  0 
 3.745428e-02  -4.125120e-02  0 
 9.404824e-03  -4.126345e-02  0 
VECTORS displacement_ITER25 FLOAT
 4.349892e-02  -6.658019e-03  0 
 2.332216e-03  -4.784318e-02  0 
 4.357177e-02  -4.784091e-02  0 
 1.263527e-02  -6.546996e-03  0 
 2.293128e-02  -6.591166e-03  0 
 3.322400e-02  -6.627792e-03  0 
 2.322258e-03  -2.718707e-02  0 
 2.329025e-03  -3.751473e-02  0 
 4.352316e-02  -1.693382e-02  0 
 4.354781e-02  -2.721980e-02  0 
 4.356394e-02  -3.752530e-02  0 
 1.264637e-02  -4.784230e-02  0 
 2.295791e-02  -4.783563e-02  0 
 3.326353e-02  -4.783480e-02  0 
 2.412113e-02  -2.502655e-02  0 
 2.992736e-02  -4.011771e-02  0 
 1.600550e-02  -4.014510e-02  0 
 3.550432e-02  -1.711832e-02  0 
 1.038794e-02  -1.705082e-02  0 
 2.295995e-02  -3.854487e-02  0 
 3.555950e-02  -3.384275e-02  0 
 1.036537e-02  -3.386677e-02  0 
 1.792953e-02  -1.355547e-02  0 
 2.566446e-02  -1.659811e-02  0 
 1.569928e-02  -2.360358e-02  0 
 3.190395e-02  -2.527867e-02  0 
 1.901252e-02  -3.201610e-02  0 
 2.702163e-02  -3.187934e-02  0 
 3.717703e-02  -4.143101e-02  0 
 8.736338e-03  -4.144330e-02  0 
VECTORS displacement_ITER26 FLOAT
 4.292102e-02  -6.835841e-03  0 
 2.527456e-03  -4.724829e-02  0 
 4.299348e-02  -4.724682e-02  0 
 1.263658e-02  -6.726012e-03  0 
 2.273953e-02  -6.769838e-03  0 
 3.283903e-02  -6.805881e-03  0 
 2.517207e-03  -2.697937e-02  0 
 2.524120e-03  -3.711342e-02  0 
 4.294515e-02  -1.691889e-02  0 
 4.296963e-02  -2.701193e-02  0 
 4.298567e-02  -3.712434e-02  0 
 1.264790e-02  -4.724762e-02  0 
 2.276597e-02  -4.724128e-02  0 
 3.287836e-02  -4.724066e-02  0 
 2.390726e-02  -2.485948e-02  0 
 2.960469e-02  -3.966800e-02  0 
 1.594394e-02  -3.969475e-02  0 
 3.507677e-02  -1.709967e-02  0 
 1.043178e-02  -1.703295e-02  0 
 2.276795e-02  -3.812453e-02  0 
 3.513119e-02  -3.351064e-02  0 
 1.040959e-02  -3.353404e-02  0 
 1.783175e-02  -1.360337e-02  0 
 2.542152e-02  -1.658907e-02  0 
 1.564349e-02  -2.346304e-02  0 
 3.154406e-02  -2.510699e-02  0 
 1.889456e-02  -3.171802e-02  0 
 2.675339e-02  -3.158390e-02  0 
 3.671848e-02  -4.095682e-02  0 
 8.811228e-03  -4.096853e-02  0 
VECTORS displacement_ITER27 FLOAT
 4.318041e-02  -6.376658e-03  0 
 2.617268e-03  -4.695923e-02  0 
 4.325314e-02  -4.695665e-02  0 
 1.276873e-02  -6.265232e-03  0 
 2.291396e-02  -6.309875e-03  0 
 3.305598e-02  -6.346319e-03  0 
 2.606604e-03  -2.660403e-02  0 
 2.613867e-03  -3.678110e-02  0 
 4.320460e-02  -1.650181e-02  0 
 4.322920e-02  -2.663712e-02  0 
 4.324531e-02  -3.679183e-02  0 
 1.278027e-02  -4.695795e-02  0 
 2.294087e-02  -4.695133e-02  0 
 3.309569e-02  -4.695052e-02  0 
 2.408699e-02  -2.447548e-02  0 
 2.980834e-02  -3.934618e-02  0 
 1.609023e-02  -3.937328e-02  0 
 3.530327e-02  -1.668333e-02  0 
 1.055473e-02  -1.661553e-02  0 
 2.294293e-02  -3.779632e-02  0 
 3.535797e-02  -3.316301e-02  0 
 1.053261e-02  -3.318667e-02  0 
 1.798583e-02  -1.317179e-02  0 
 2.560748e-02  -1.617036e-02  0 
 1.578856e-02  -2.307300e-02  0 
 3.175581e-02  -2.472414e-02  0 
 1.905331e-02  -3.136287e-02  0 
 2.694510e-02  -3.122819e-02  0 
 3.695189e-02  -4.064036e-02  0 
 8.927578e-03  -4.065257e-02  0 
VECTORS displacement_ITER28 FLOAT
 4.281324e-02  -6.864967e-03  0 
 2.939681e-03  -4.675716e-02  0 
 4.288620e-02  -4.675475e-02  0 
 1.291918e-02  -6.752726e-03  0 
 2.289207e-02  -6.797995e-03  0 
 3.286151e-02  -6.834440e-03  0 
 2.929199e-03  -2.674733e-02  0 
 2.936588e-03  -3.675178e-02  0 
 4.283751e-02  -1.681740e-02  0 
 4.286221e-02  -2.678009e-02  0 
 4.287836e-02  -3.676237e-02  0 
 1.293053e-02  -4.675612e-02  0 
 2.291874e-02  -4.674953e-02  0 
 3.290118e-02  -4.674866e-02  0 
 2.404549e-02  -2.465474e-02  0 
 2.966965e-02  -3.927322e-02  0 
 1.618434e-02  -3.929998e-02  0 
 3.507085e-02  -1.699537e-02  0 
 1.074312e-02  -1.692773e-02  0 
 2.292083e-02  -3.774965e-02  0 
 3.512496e-02  -3.319497e-02  0 
 1.072097e-02  -3.321838e-02  0 
 1.804800e-02  -1.354278e-02  0 
 2.554006e-02  -1.649074e-02  0 