# vtk DataFile Version 3.1
this is an vtk file created by FEMAC
ASCII
DATASET UNSTRUCTURED_GRID
POINTS 30 FLOAT
5.000000 3.000000 0.000000
5.000000 4.000000 0.000000
4.500000 3.000000 0.000000
4.750000 3.000000 0.000000
4.750000 4.000000 0.000000
5.000000 3.250000 0.000000
5.000000 3.500000 0.000000
5.000000 3.750000 0.000000
5.000000 4.250000 0.000000
5.250000 4.000000 0.000000
5.500000 4.000000 0.000000
4.761003 2.832250 0.000000
4.675053 3.181152 0.000000
4.828465 3.345163 0.000000
4.825859 3.583418 0.000000
4.649535 3.397124 0.000000
4.588195 3.700568 0.000000
4.832811 3.806797 0.000000
4.850704 3.155263 0.000000
4.832172 4.245757 0.000000
5.331392 3.813653 0.000000
5.195000 3.255000 0.000000
5.500000 3.775000 0.000000
5.194695 3.661595 0.000000
5.323754 3.413341 0.000000
5.404183 3.616917 0.000000
5.155217 3.845050 0.000000
5.171305 4.165198 0.000000
5.161848 4.344773 0.000000
5.384851 4.278430 0.000000
CELLS 42 168 
3 3 11  0
3 2 11  3
3 12  2  3
3 13  5  6
3 7 14  6
3 13 15 12
3 4 17  1
3 17  7  1
3 18  3  0
3 5 18  0
3 3 18 12
3 17 14  7
3 13 18  5
3 13 12 18
3 13  6 14
3 13 14 15
3 16 15 14
3 17  4 16
3 16 14 17
3 19  4  1
3 8 19  1
3 20 10  9
3 21  6  5
3 20 22 10
3 20 25 22
3 23  7  6
3 23 25 20
3 24  6 21
3 23  6 24
3 23 24 25
3 0 21  5
3 7 26  1
3 9 26 20
3 26  9  1
3 23 26  7
3 23 20 26
3 27 28  8
3 1 27  8
3 1  9 27
3 29  9 10
3 27  9 29
3 29 28 27
CELL_TYPES 42
5 5 5 5 5 5 5 5 5 5 5 5 5 5 5 5 5 5 5 5 5 5 5 5 5 5 5 5 5 5 5 5 5 5 5 5 5 5 5 5 5 5 
POINT_DATA 30
VECTORS displacement_ITER1 FLOAT
 1.463052e-03  -3.252746e-01  0 
 6.557818e-02  -3.252982e-01  0 
 1.466566e-03  -2.675195e-01  0 
 1.467982e-03  -2.963994e-01  0 
 6.555782e-02  -3.128135e-01  0 
 1.749950e-02  -3.252845e-01  0 
 3.353442e-02  -3.252935e-01  0 
 4.956838e-02  -3.253047e-01  0 
 7.800966e-02  -3.252945e-01  0 
 6.560021e-02  -3.413511e-01  0 
 6.561205e-02  -3.574088e-01  0 
 -1.789676e-02  -2.976709e-01  0 
 1.483651e-02  -2.887332e-01  0 
 2.407994e-02  -3.061782e-01  0 
 3.788042e-02  -3.073820e-01  0 
 2.641614e-02  -2.887242e-01  0 
 4.442544e-02  -2.791773e-01  0 
 5.475403e-02  -3.114376e-01  0 
 1.220529e-02  -3.086830e-01  0 
 7.780130e-02  -3.169373e-01  0 
 5.364704e-02  -3.465663e-01  0 
 1.782274e-02  -3.378025e-01  0 
 5.117297e-02  -3.573905e-01  0 
 4.389929e-02  -3.377916e-01  0 
 2.797947e-02  -3.460699e-01  0 
 4.103505e-02  -3.512343e-01  0 
 5.565611e-02  -3.352558e-01  0 
 7.287172e-02  -3.383397e-01  0 
 8.119858e-02  -3.400475e-01  0 
 7.803204e-02  -3.542138e-01  0 
VECTORS displacement_ITER2 FLOAT
 1.439521e-02  -1.536341e-01  0 
 4.385943e-02  -1.536529e-01  0 
 1.440089e-02  -1.188143e-01  0 
 1.440038e-02  -1.362349e-01  0 
 4.382659e-02  -1.510680e-01  0 
 2.178759e-02  -1.536347e-01  0 
 2.917296e-02  -1.536404e-01  0 
 3.654377e-02  -1.536556e-01  0 
 4.637328e-02  -1.536467e-01  0 
 4.390853e-02  -1.610382e-01  0 
 4.394321e-02  -1.684324e-01  0 
 2.727019e-03  -1.370053e-01  0 
 2.026222e-02  -1.320766e-01  0 
 2.458631e-02  -1.425271e-01  0 
 3.057368e-02  -1.438142e-01  0 
 2.490526e-02  -1.328310e-01  0 
 3.287429e-02  -1.271164e-01  0 
 3.939644e-02  -1.472053e-01  0 
 1.931502e-02  -1.436766e-01  0 
 4.633176e-02  -1.519379e-01  0 
 3.841677e-02  -1.634216e-01  0 
 2.193671e-02  -1.594032e-01  0 
 3.728252e-02  -1.684100e-01  0 
 3.393997e-02  -1.593892e-01  0 
 2.661301e-02  -1.632077e-01  0 
 3.262042e-02  -1.655775e-01  0 
 3.933118e-02  -1.582176e-01  0 
 4.507620e-02  -1.610197e-01  0 
 4.748082e-02  -1.643286e-01  0 
 4.706657e-02  -1.701460e-01  0 
VECTORS displacement_ITER3 FLOAT
 -1.938131e-03  -6.505578e-02  0 
 1.598739e-02  -6.486730e-02  0 
 -1.857030e-03  -5.008869e-02  0 
 -1.886091e-03  -5.758527e-02  0 
 1.594435e-02  -5.430294e-02  0 
 2.401397e-03  -6.502970e-02  0 
 6.849523e-03  -6.496627e-02  0 
 1.141657e-02  -6.491426e-02  0 
 2.644000e-02  -6.482539e-02  0 
 1.604882e-02  -6.954443e-02  0 
 1.610767e-02  -7.422981e-02  0 
 -6.890250e-03  -5.794515e-02  0 
 1.321916e-03  -5.548850e-02  0 
 3.839088e-03  -5.955533e-02  0 
 7.443165e-03  -5.917713e-02  0 
 4.240285e-03  -5.493859e-02  0 
 8.240376e-03  -5.185320e-02  0 
 1.136739e-02  -5.923934e-02  0 
 7.920182e-04  -6.050405e-02  0 
 2.627958e-02  -5.779661e-02  0 
 1.258731e-02  -7.102018e-02  0 
 2.465242e-03  -6.847384e-02  0 
 1.190151e-02  -7.414935e-02  0 
 9.784061e-03  -6.849172e-02  0 
 5.297413e-03  -7.081194e-02  0 
 8.987383e-03  -7.232242e-02  0 
 1.315173e-02  -6.775065e-02  0 
 2.124518e-02  -7.143395e-02  0 
 2.872199e-02  -7.370533e-02  0 
 2.586099e-02  -8.244116e-02  0 
VECTORS displacement_ITER4 FLOAT
 -7.328695e-03  -2.592910e-02  0 
 1.173323e-03  -2.582786e-02  0 
 -7.278960e-03  -2.791186e-02  0 
 -7.295427e-03  -2.689280e-02  0 
 1.119167e-03  -2.220186e-02  0 
 -5.284548e-03  -2.594615e-02  0 
 -3.173522e-03  -2.592025e-02  0 
 -9.949974e-04  -2.588194e-02  0 
 4.656265e-03  -2.577265e-02  0 
 1.232101e-03  -2.811184e-02  0 
 1.284244e-03  -3.039003e-02  0 
 -6.616884e-03  -2.685838e-02  0 
 -5.797138e-03  -2.496777e-02  0 
 -4.820812e-03  -2.449069e-02  0 
 -3.035729e-03  -2.344173e-02  0 
 -4.052183e-03  -2.235886e-02  0 
 -2.731615e-03  -1.940183e-02  0 
 -8.790957e-04  -2.360270e-02  0 
 -6.358971e-03  -2.564522e-02  0 
 4.619399e-03  -2.343266e-02  0 
 -4.371827e-04  -2.881140e-02  0 
 -5.249396e-03  -2.758424e-02  0 
 -7.574336e-04  -3.032725e-02  0 
 -1.779381e-03  -2.759472e-02  0 
 -3.909538e-03  -2.869995e-02  0 
 -2.155498e-03  -2.943105e-02  0 
 -1.744720e-04  -2.722902e-02  0 
 2.374044e-03  -3.013982e-02  0 
 5.773251e-03  -3.237095e-02  0 
 4.425953e-03  -3.805939e-02  0 
VECTORS displacement_ITER5 FLOAT
 -1.617719e-03  -1.156016e-02  0 
 1.690053e-03  -1.153540e-02  0 
 -1.568475e-03  -9.777648e-03  0 
 -1.582911e-03  -1.065081e-02  0 
 1.637448e-03  -1.131468e-02  0 
 -8.605447e-04  -1.157930e-02  0 
 -3.191863e-05  -1.156260e-02  0 
 8.485449e-04  -1.155250e-02  0 
 1.802343e-03  -1.150338e-02  0 
 1.759074e-03  -1.247422e-02  0 
 1.815573e-03  -1.342358e-02  0 
 -2.164655e-03  -1.070051e-02  0 
 -4.703969e-04  -1.014151e-02  0 
 -4.554050e-04  -1.051606e-02  0 
 -3.571701e-04  -1.044954e-02  0 
 -3.911532e-04  -1.006329e-02  0 
 -2.200310e-03  -1.087075e-02  0 
 1.630687e-04  -1.165987e-02  0 
 -9.696361e-04  -1.098625e-02  0 
 1.810976e-03  -1.142194e-02  0 
 1.080246e-03  -1.274139e-02  0 
 -8.503835e-04  -1.221323e-02  0 
 9.596366e-04  -1.337415e-02  0 
 5.328260e-04  -1.223962e-02  0 
 -3.186633e-04  -1.267398e-02  0 
 3.873584e-04  -1.298624e-02  0 
 1.175029e-03  -1.209027e-02  0 
 9.933455e-04  -1.498189e-02  0 
 2.367074e-03  -1.814477e-02  0 
 2.136395e-03  -2.132398e-02  0 
VECTORS displacement_ITER6 FLOAT
 -2.918712e-05  -7.813331e-03  0 
 2.261186e-03  -7.695309e-03  0 
 5.588324e-05  -6.233793e-03  0 
 2.876761e-05  -7.002436e-03  0 
 2.191253e-03  -6.938357e-03  0 
 4.337883e-04  -7.817951e-03  0 
 9.985046e-04  -7.771782e-03  0 
 1.648219e-03  -7.739224e-03  0 
 2.869185e-03  -7.611510e-03  0 
 2.319604e-03  -8.419397e-03  0 
 2.362603e-03  -9.097715e-03  0 
 -4.771369e-04  -7.058395e-03  0 
 1.115163e-03  -6.574953e-03  0 
 9.160343e-04  -6.949589e-03  0 
 1.034893e-03  -6.835090e-03  0 
 1.157363e-03  -6.497567e-03  0 
 2.339615e-04  -6.899950e-03  0 
 1.342669e-03  -7.412543e-03  0 
 5.332290e-04  -7.378052e-03  0 
 2.890031e-03  -7.232462e-03  0 
 1.816312e-03  -8.620094e-03  0 
 4.282895e-04  -8.239958e-03  0 
 1.718629e-03  -9.110371e-03  0 
 1.407479e-03  -8.252858e-03  0 
 7.882001e-04  -8.577105e-03  0 
 1.299426e-03  -8.810315e-03  0 
 1.882150e-03  -8.128890e-03  0 
 1.229311e-03  -9.914745e-03  0 
 5.726872e-04  -1.019256e-02  0 
 -5.186199e-05  -1.341935e-02  0 
VECTORS displacement_ITER7 FLOAT
 5.627249e-05  -5.954931e-03  0 
 2.465394e-03  -6.058219e-03  0 
 1.001574e-04  -5.454136e-03  0 
 8.934037e-05  -5.700683e-03  0 
 2.398212e-03  -5.909873e-03  0 
 6.627467e-04  -6.028638e-03  0 
 1.299421e-03  -6.061082e-03  0 
 1.915684e-03  -6.077640e-03  0 
 2.484894e-03  -6.001779e-03  0 
 2.526804e-03  -6.709708e-03  0 
 2.563292e-03  -7.336936e-03  0 
 -6.190452e-05  -5.724786e-03  0 
 4.257870e-04  -5.526946e-03  0 
 8.442949e-04  -5.705332e-03  0 
 1.353695e-03  -5.689966e-03  0 
 9.399465e-04  -5.389908e-03  0 
 1.185020e-03  -5.489811e-03  0 
 1.866396e-03  -5.948947e-03  0 
 3.859555e-04  -5.758569e-03  0 
 2.504032e-03  -6.004887e-03  0 
 2.070762e-03  -6.894308e-03  0 
 6.905769e-04  -6.532663e-03  0 
 1.977037e-03  -7.341710e-03  0 
 1.701679e-03  -6.552518e-03  0 
 1.088492e-03  -6.883800e-03  0 
 1.591999e-03  -7.090228e-03  0 
 2.130923e-03  -6.441669e-03  0 
 1.258205e-03  -8.217601e-03  0 
 6.135726e-04  -8.832280e-03  0 
 1.732633e-04  -1.172547e-02  0 
VECTORS displacement_ITER8 FLOAT
 9.278870e-05  -5.762382e-03  0 
 1.701398e-03  -5.847307e-03  0 
 1.452149e-04  -5.004220e-03  0 
 1.327675e-04  -5.369275e-03  0 
 1.650052e-03  -5.542033e-03  0 
 4.752092e-04  -5.837293e-03  0 
 9.079251e-04  -5.862499e-03  0 
 1.334807e-03  -5.871894e-03  0 
 1.907551e-03  -5.816961e-03  0 
 1.768341e-03  -6.323087e-03  0 
 1.813429e-03  -6.792572e-03  0 
 -9.997593e-05  -5.398573e-03  0 
 5.471943e-04  -5.206963e-03  0 
 6.988116e-04  -5.467803e-03  0 
 1.017763e-03  -5.472054e-03  0 
 8.207332e-04  -5.177460e-03  0 
 1.001419e-03  -5.210467e-03  0 
 1.343691e-03  -5.623459e-03  0 
 3.850275e-04  -5.555109e-03  0 
 1.906484e-03  -5.666322e-03  0 
 1.440789e-03  -6.445063e-03  0 
 4.959182e-04  -6.177994e-03  0 
 1.382360e-03  -6.764217e-03  0 
 1.185107e-03  -6.202620e-03  0 
 7.675975e-04  -6.428666e-03  0 
 1.112842e-03  -6.578840e-03  0 
 1.478796e-03  -6.119375e-03  0 
 5.407369e-04  -8.015813e-03  0 
 4.051003e-06  -8.711388e-03  0 
 -5.474171e-04  -1.151710e-02  0 
VECTORS displacement_ITER9 FLOAT
 2.709782e-04  -5.760213e-03  0 
 1.645736e-03  -5.862120e-03  0 
 3.336472e-04  -4.899219e-03  0 
 3.192860e-04  -5.319423e-03  0 
 1.604216e-03  -5.518767e-03  0 
 6.094234e-04  -5.832716e-03  0 
 9.859189e-04  -5.864093e-03  0 
 1.348538e-03  -5.881827e-03  0 
 1.900477e-03  -5.814435e-03  0 
 1.711373e-03  -6.267523e-03  0 
 1.748949e-03  -6.663778e-03  0 
 5.674094e-05  -5.355444e-03  0 
 5.358264e-04  -5.151988e-03  0 
 7.460845e-04  -5.475967e-03  0 
 1.091960e-03  -5.532035e-03  0 
 7.960737e-04  -5.140991e-03  0 
 1.178066e-03  -5.196569e-03  0 
 1.385925e-03  -5.607348e-03  0 
 4.812218e-04  -5.499808e-03  0 
 1.907115e-03  -5.630199e-03  0 
 1.440499e-03  -6.368934e-03  0 
 6.308347e-04  -6.130770e-03  0 
 1.395469e-03  -6.638290e-03  0 
 1.224601e-03  -6.159039e-03  0 
 8.675285e-04  -6.349643e-03  0 
 1.165577e-03  -6.481267e-03  0 
 1.468005e-03  -6.090076e-03  0 
 4.054514e-04  -7.970896e-03  0 
 3.233145e-04  -8.295456e-03  0 
 -9.415155e-04  -1.147583e-02  0 
VECTORS displacement_ITER10 FLOAT
 1.907973e-04  -5.614532e-03  0 
 1.691164e-03  -5.671690e-03  0 
 2.537944e-04  -4.794655e-03  0 
 2.396878e-04  -5.194132e-03  0 
 1.655442e-03  -5.344758e-03  0 
 5.509356e-04  -5.674723e-03  0 
 9.469990e-04  -5.694197e-03  0 
 1.346168e-03  -5.698692e-03  0 
 1.928294e-03  -5.622698e-03  0 
 1.754536e-03  -6.128147e-03  0 
 1.789550e-03  -6.567799e-03  0 
 -8.434503e-06  -5.229283e-03  0 
 4.653304e-04  -5.048260e-03  0 
 6.964509e-04  -5.349343e-03  0 
 1.079566e-03  -5.396461e-03  0 
 7.523962e-04  -5.043266e-03  0 
 1.225038e-03  -5.078594e-03  0 
 1.410455e-03  -5.437234e-03  0 
 4.157387e-04  -5.366439e-03  0 
 1.935213e-03  -5.443305e-03  0 
 1.451129e-03  -6.244495e-03  0 
 5.688944e-04  -5.988431e-03  0 
 1.403377e-03  -6.542954e-03  0 
 1.204849e-03  -6.008561e-03  0 
 8.155361e-04  -6.213038e-03  0 
 1.140583e-03  -6.361902e-03  0 
 1.482618e-03  -5.933230e-03  0 
 4.308916e-04  -7.864195e-03  0 
 4.302848e-04  -8.347999e-03  0 
 -1.026995e-03  -1.108703e-02  0 
VECTORS displacement_ITER11 FLOAT
 1.935620e-04  -5.581225e-03  0 
 1.704064e-03  -5.636569e-03  0 
 2.517199e-04  -4.765372e-03  0 
 2.400687e-04  -5.161960e-03  0 
 1.666397e-03  -5.314168e-03  0 
 5.652851e-04  -5.637707e-03  0 
 9.664423e-04  -5.658030e-03  0 
 1.363161e-03  -5.663826e-03  0 
 1.936170e-03  -5.591813e-03  0 
 1.767558e-03  -6.089076e-03  0 
 1.803438e-03  -6.525518e-03  0 
 -6.485688e-06  -5.195132e-03  0 
 4.559878e-04  -5.031122e-03  0 
 7.115354e-04  -5.327443e-03  0 
 1.089759e-03  -5.362494e-03  0 
 7.731123e-04  -5.034392e-03  0 
 1.233623e-03  -5.023985e-03  0 
 1.425574e-03  -5.401690e-03  0 
 4.202049e-04  -5.334805e-03  0 
 1.940607e-03  -5.416003e-03  0 
 1.466243e-03  -6.204058e-03  0 
 5.834757e-04  -5.955914e-03  0 
 1.417916e-03  -6.500222e-03  0 
 1.223176e-03  -5.971476e-03  0 
 8.332918e-04  -6.179442e-03  0 
 1.157819e-03  -6.323082e-03  0 
 1.497799e-03  -5.895795e-03  0 
 4.299731e-04  -7.834957e-03  0 
 5.188106e-04  -8.294946e-03  0 
 -1.065155e-03  -1.104329e-02  0 
VECTORS displacement_ITER12 FLOAT
 1.956199e-04  -5.579954e-03  0 
 1.706624e-03  -5.633609e-03  0 
 2.534113e-04  -4.770842e-03  0 
 2.416936e-04  -5.162117e-03  0 
 1.669240e-03  -5.313847e-03  0 
 5.646480e-04  -5.634764e-03  0 
 9.661074e-04  -5.654372e-03  0 
 1.364485e-03  -5.660843e-03  0 
 1.936011e-03  -5.588131e-03  0 
 1.769941e-03  -6.087340e-03  0 
 1.805431e-03  -6.524418e-03  0 
 -2.839192e-06  -5.194446e-03  0 
 4.468892e-04  -5.032830e-03  0 
 7.068339e-04  -5.327883e-03  0 
 1.092073e-03  -5.365106e-03  0 
 7.654659e-04  -5.032692e-03  0 
 1.247283e-03  -5.022960e-03  0 
 1.431325e-03  -5.398672e-03  0 
 4.174709e-04  -5.332718e-03  0 
 1.940925e-03  -5.414149e-03  0 
 1.467823e-03  -6.202964e-03  0 
 5.821528e-04  -5.951516e-03  0 
 1.419064e-03  -6.499982e-03  0 
 1.224144e-03  -5.969609e-03  0 
 8.338394e-04  -6.176987e-03  0 
 1.159006e-03  -6.322443e-03  0 
 1.499583e-03  -5.893711e-03  0 
 4.361257e-04  -7.828332e-03  0 
 4.845124e-04  -8.300803e-03  0 
 -1.047982e-03  -1.102985e-02  0 
VECTORS displacement_ITER13 FLOAT
 1.954520e-04  -5.580414e-03  0 
 1.705733e-03  -5.634117e-03  0 
 2.544032e-04  -4.769278e-03  0 
 2.417770e-04  -5.161588e-03  0 
 1.668493e-03  -5.314550e-03  0 
 5.644787e-04  -5.635281e-03  0 
 9.659427e-04  -5.655043e-03  0 
 1.363880e-03  -5.661430e-03  0 
 1.935535e-03  -5.588753e-03  0 
 1.769044e-03  -6.087585e-03  0 
 1.804588e-03  -6.524380e-03  0 
 -3.985045e-06  -5.194369e-03  0 
 4.491113e-04  -5.038007e-03  0 
 7.067214e-04  -5.328959e-03  0 
 1.090319e-03  -5.365126e-03  0 
 7.655207e-04  -5.036518e-03  0 
 1.246703e-03  -5.016049e-03  0 
 1.431313e-03  -5.398059e-03  0 
 4.187649e-04  -5.334136e-03  0 
 1.940218e-03  -5.414435e-03  0 
 1.467118e-03  -6.203088e-03  0 
 5.820170e-04  -5.951993e-03  0 
 1.418392e-03  -6.499997e-03  0 
 1.223623e-03  -5.969984e-03  0 
 8.338503e-04  -6.177413e-03  0 
 1.158393e-03  -6.322485e-03  0 
 1.498849e-03  -5.894078e-03  0 
 4.361126e-04  -7.829806e-03  0 
 4.831805e-04  -8.308105e-03  0 
 -1.047523e-03  -1.102523e-02  0 
VECTORS displacement_ITER14 FLOAT
 1.955661e-04  -5.580444e-03  0 
 1.705719e-03  -5.634090e-03  0 
 2.543761e-04  -4.769519e-03  0 
 2.418538e-04  -5.161719e-03  0 
 1.668440e-03  -5.314460e-03  0 
 5.645193e-04  -5.635303e-03  0 
 9.659138e-04  -5.655063e-03  0 
 1.363833e-03  -5.661411e-03  0 
 1.935478e-03  -5.588700e-03  0 
 1.769037e-03  -6.087593e-03  0 
 1.804599e-03  -6.524446e-03  0 
 -3.782819e-06  -5.194445e-03  0 
 4.496552e-04  -5.039449e-03  0 
 7.064076e-04  -5.328943e-03  0 
 1.089974e-03  -5.364951e-03  0 
 7.650532e-04  -5.036593e-03  0 
 1.246767e-03  -5.014041e-03  0 
 1.431459e-03  -5.397651e-03  0 
 4.190975e-04  -5.334445e-03  0 
 1.940198e-03  -5.414441e-03  0 
 1.467081e-03  -6.203095e-03  0 
 5.820542e-04  -5.951958e-03  0 
 1.418368e-03  -6.500035e-03  0 
 1.223563e-03  -5.969975e-03  0 
 8.338562e-04  -6.177373e-03  0 
 1.158335e-03  -6.322454e-03  0 
 1.498814e-03  -5.894069e-03  0 
 4.360993e-04  -7.829729e-03  0 
 4.830700e-04  -8.307898e-03  0 
 -1.047455e-03  -1.102536e-02  0 
CELL_DATA 42
TENSORS element_stresses FLOAT
 -1.753665e-01  -1.713393e-01  0 
 -1.713393e-01  3.261436e-02  0 
 0  0  0 

 -2.465290e-02  -8.290928e-02  0 
 -8.290928e-02  8.478800e-02  0 
 0  0  0 

 -4.650275e-05  -3.403177e-04  0 
 -3.403177e-04  1.195516e-05  0 
 0  0  0 

 4.379501e-05  -1.725103e-04  0 
 -1.725103e-04  -6.590227e-05  0 
 0  0  0 

 4.662167e-05  -6.649964e-05  0 
 -6.649964e-05  -1.140573e-05  0 
 0  0  0 

 4.823036e-05  -1.660093e-04  0 
 -1.660093e-04  -1.717415e-04  0 
 0  0  0 

 1.251553e-04  9.221264e-06  0 
 9.221264e-06  -7.986658e-05  0 
 0  0  0 

 1.020658e-04  -1.330368e-04  0 
 -1.330368e-04  1.399037e-04  0 
 0  0  0 

 -2.120778e-04  -3.178783e-04  0 
 -3.178783e-04  -8.975672e-05  0 
 0  0  0 

 -3.106534e-05  -3.077818e-04  0 
 -3.077818e-04  -2.287558e-04  0 
 0  0  0 

 -1.270814e-05  -4.135486e-04  0 
 -4.135486e-04  -2.497390e-05  0 
 0  0  0 

 9.315034e-05  -6.548977e-05  0 
 -6.548977e-05  -6.832849e-05  0 
 0  0  0 

 -4.921273e-05  -2.910903e-04  0 
 -2.910903e-04  -2.074623e-04  0 
 0  0  0 

 -1.439983e-06  -1.429265e-04  0 
 -1.429265e-04  -1.710795e-04  0 
 0  0  0 

 8.800097e-06  -1.053616e-04  0 
 -1.053616e-04  -1.676048e-04  0 
 0  0  0 

 9.817435e-05  -5.514377e-05  0 
 -5.514377e-05  -1.400883e-04  0 
 0  0  0 

 6.778720e-05  1.218652e-05  0 
 1.218652e-05  -2.286207e-04  0 
 0  0  0 

 1.388590e-04  -1.329393e-04  0 
 -1.329393e-04  -1.620137e-04  0 
 0  0  0 

 6.892793e-05  4.544135e-07  0 
 4.544135e-07  -7.824257e-05  0 
 0  0  0 

 1.706748e-01  -1.712152e-01  0 
 -1.712152e-01  7.186523e-02  0 
 0  0  0 

 3.411476e-03  -9.529082e-02  0 
 -9.529082e-02  1.825844e-01  0 
 0  0  0 

 1.090425e-01  -4.991161e-02  0 
 -4.991161e-02  -1.106868e-01  0 
 0  0  0 

 2.751839e-02  -1.251034e-02  0 
 -1.251034e-02  -7.078526e-02  0 
 0  0  0 

 7.918643e-02  -5.338969e-02  0 
 -5.338969e-02  -8.473656e-02  0 
 0  0  0 

 6.889762e-02  -1.341450e-01  0 
 -1.341450e-01  -2.840086e-02  0 
 0  0  0 

 -5.874959e-03  -3.621909e-03  0 
 -3.621909e-03  -2.715472e-02  0 
 0  0  0 

 2.216192e-02  -8.272099e-02  0 
 -8.272099e-02  -1.055634e-02  0 
 0  0  0 

 -1.422423e-02  -4.574711e-02  0 
 -4.574711e-02  -9.605744e-02  0 
 0  0  0 

 1.443734e-02  -2.853505e-02  0 
 -2.853505e-02  5.309331e-04  0 
 0  0  0 

 1.438530e-02  -8.347285e-02  0 
 -8.347285e-02  -3.987509e-02  0 
 0  0  0 

 -1.510942e-02  -1.095606e-01  0 
 -1.095606e-01  -2.239690e-01  0 
 0  0  0 

 7.139761e-02  -1.525324e-01  0 
 -1.525324e-01  1.307033e-01  0 
 0  0  0 

 7.717104e-02  -8.500922e-02  0 
 -8.500922e-02  -1.355178e-01  0 
 0  0  0 

 2.323918e-01  -1.730770e-01  0 
 -1.730770e-01  -6.959957e-02  0 
 0  0  0 

 -2.115837e-02  -4.402759e-02  0 
 -4.402759e-02  7.424136e-02  0 
 0  0  0 

 1.121627e-01  -1.749754e-01  0 
 -1.749754e-01  7.139217e-02  0 
 0  0  0 

 -1.086427e-02  -1.153115e-02  0 
 -1.153115e-02  -6.700747e-03  0 
 0  0  0 

 -9.058542e-03  -9.287079e-03  0 
 -9.287079e-03  -2.536002e-03  0 
 0  0  0 

 -3.483178e-03  -7.509295e-03  0 
 -7.509295e-03  -1.245483e-02  0 
 0  0  0 

 -5.411156e-03  -9.178399e-03  0 
 -9.178399e-03  -1.851135e-02  0 
 0  0  0 

 -6.993089e-03  -1.274337e-02  0 
 -1.274337e-02  -1.620819e-02  0 
 0  0  0 

 -8.681941e-03  -1.021997e-02  0 
 -1.021997e-02  -5.961719e-03  0 
 0  0  0 

TENSORS element_stresses FLOAT
 -1.753665e-01  -1.713393e-01  0 
 -1.713393e-01  3.261436e-02  0 
 0  0  0 

 -2.465290e-02  -8.290928e-02  0 
 -8.290928e-02  8.478800e-02  0 
 0  0  0 

 -4.650275e-05  -3.403177e-04  0 
 -3.403177e-04  1.195516e-05  0 
 0  0  0 

 4.379501e-05  -1.725103e-04  0 
 -1.725103e-04  -6.590227e-05  0 
 0  0  0 

 4.662167e-05  -6.649964e-05  0 
 -6.649964e-05  -1.140573e-05  0 
 0  0  0 

 4.823036e-05  -1.660093e-04  0 
 -1.660093e-04  -1.717415e-04  0 
 0  0  0 

 1.251553e-04  9.221264e-06  0 
 9.221264e-06  -7.986658e-05  0 
 0  0  0 

 1.020658e-04  -1.330368e-04  0 
 -1.330368e-04  1.399037e-04  0 
 0  0  0 

 -2.120778e-04  -3.178783e-04  0 
 -3.178783e-04  -8.975672e-05  0 
 0  0  0 

 -3.106534e-05  -3.077818e-04  0 
 -3.077818e-04  -2.287558e-04  0 
 0  0  0 

 -1.270814e-05  -4.135486e-04  0 
 -4.135486e-04  -2.497390e-05  0 
 0  0  0 

 9.315034e-05  -6.548977e-05  0 
 -6.548977e-05  -6.832849e-05  0 
 0  0  0 

 -4.921273e-05  -2.910903e-04  0 
 -2.910903e-04  -2.074623e-04  0 
 0  0  0 

 -1.439983e-06  -1.429265e-04  0 
 -1.429265e-04  -1.710795e-04  0 
 0  0  0 

 8.800097e-06  -1.053616e-04  0 
 -1.053616e-04  -1.676048e-04  0 
 0  0  0 

 9.817435e-05  -5.514377e-05  0 
 -5.514377e-05  -1.400883e-04  0 
 0  0  0 

 6.778720e-05  1.218652e-05  0 
 1.218652e-05  -2.286207e-04  0 
 0  0  0 

 1.388590e-04  -1.329393e-04  0 
 -1.329393e-04  -1.620137e-04  0 
 0  0  0 

 6.892793e-05  4.544135e-07  0 
 4.544135e-07  -7.824257e-05  0 
 0  0  0 

 1.706748e-01  -1.712152e-01  0 
 -1.712152e-01  7.186523e-02  0 
 0  0  0 

 3.411476e-03  -9.529082e-02  0 
 -9.529082e-02  1.825844e-01  0 
 0  0  0 

 1.090425e-01  -4.991161e-02  0 
 -4.991161e-02  -1.106868e-01  0 
 0  0  0 

 2.751839e-02  -1.251034e-02  0 
 -1.251034e-02  -7.078526e-02  0 
 0  0  0 

 7.918643e-02  -5.338969e-02  0 
 -5.338969e-02  -8.473656e-02  0 
 0  0  0 

 6.889762e-02  -1.341450e-01  0 
 -1.341450e-01  -2.840086e-02  0 
 0  0  0 

 -5.874959e-03  -3.621909e-03  0 
 -3.621909e-03  -2.715472e-02  0 
 0  0  0 

 2.216192e-02  -8.272099e-02  0 
 -8.272099e-02  -1.055634e-02  0 
 0  0  0 

 -1.422423e-02  -4.574711e-02  0 
 -4.574711e-02  -9.605744e-02  0 
 0  0  0 

 1.443734e-02  -2.853505e-02  0 
 -2.853505e-02  5.309331e-04  0 
 0  0  0 

 1.438530e-02  -8.347285e-02  0 
 -8.347285e-02  -3.987509e-02  0 
 0  0  0 

 -1.510942e-02  -1.095606e-01  0 
 -1.095606e-01  -2.239690e-01  0 
 0  0  0 

 7.139761e-02  -1.525324e-01  0 
 -1.525324e-01  1.307033e-01  0 
 0  0  0 

 7.717104e-02  -8.500922e-02  0 
 -8.500922e-02  -1.355178e-01  0 
 0  0  0 

 2.323918e-01  -1.730770e-01  0 
 -1.730770e-01  -6.959957e-02  0 
 0  0  0 

 -2.115837e-02  -4.402759e-02  0 
 -4.402759e-02  7.424136e-02  0 
 0  0  0 

 1.121627e-01  -1.749754e-01  0 
 -1.749754e-01  7.139217e-02  0 
 0  0  0 

 -1.086427e-02  -1.153115e-02  0 
 -1.153115e-02  -6.700747e-03  0 
 0  0  0 

 -9.058542e-03  -9.287079e-03  0 
 -9.287079e-03  -2.536002e-03  0 
 0  0  0 

 -3.483178e-03  -7.509295e-03  0 
 -7.509295e-03  -1.245483e-02  0 
 0  0  0 

 -5.411156e-03  -9.178399e-03  0 
 -9.178399e-03  -1.851135e-02  0 
 0  0  0 

 -6.993089e-03  -1.274337e-02  0 
 -1.274337e-02  -1.620819e-02  0 
 0  0  0 

 -8.681941e-03  -1.021997e-02  0 
 -1.021997e-02  -5.961719e-03  0 
 0  0  0 

