# vtk DataFile Version 3.1
this is an vtk file created by FEMAC
ASCII
DATASET UNSTRUCTURED_GRID
POINTS 31 FLOAT
2.000000 3.000000 0.000000
1.500000 2.000000 0.000000
1.500000 3.000000 0.000000
1.750000 3.000000 0.000000
2.000000 2.250000 0.000000
2.000000 2.500000 0.000000
2.000000 2.750000 0.000000
2.000000 3.250000 0.000000
2.250000 3.000000 0.000000
2.500000 3.000000 0.000000
2.750000 3.000000 0.000000
1.556014 2.528684 0.000000
1.745000 2.805000 0.000000
1.745000 2.195000 0.000000
1.831148 2.378957 0.000000
1.758843 2.566179 0.000000
1.339859 2.197089 0.000000
1.387500 2.413333 0.000000
1.588338 2.325606 0.000000
1.548715 2.715781 0.000000
1.805000 3.255000 0.000000
1.630982 3.182178 0.000000
2.195000 2.745000 0.000000
2.378957 2.831148 0.000000
2.566179 2.758843 0.000000
2.325606 2.588338 0.000000
2.769602 3.187596 0.000000
2.368420 3.207407 0.000000
2.275508 3.443567 0.000000
2.567037 3.328363 0.000000
2.181111 3.179494 0.000000
CELLS 42 168 
3 2 12  3
3 14  4  5
3 6 15  5
3 19 15 12
3 14 18 13
3 12 15  6
3 14 13  4
3 18  1 13
3 16  1 18
3 11 17 18
3 16 18 17
3 2 19 12
3 12  0  3
3 6  0 12
3 14  5 15
3 11 18 15
3 19 11 15
3 14 15 18
3 3 21  2
3 20 21  3
3 0 20  3
3 0  7 20
3 5 22  6
3 8 23  9
3 24 10  9
3 25 23 22
3 22 23  8
3 5 25 22
3 22  0  6
3 8  0 22
3 9 23 24
3 24 23 25
3 26  9 10
3 27  8  9
3 29  9 26
3 27  9 29
3 30  7  0
3 8 30  0
3 27 30  8
3 27 29 28
3 27 28 30
3 7 30 28
CELL_TYPES 42
5 5 5 5 5 5 5 5 5 5 5 5 5 5 5 5 5 5 5 5 5 5 5 5 5 5 5 5 5 5 5 5 5 5 5 5 5 5 5 5 5 5 
POINT_DATA 31
VECTORS displacement_ITER1 FLOAT
 -8.902874e-03  -4.399732e-02  0 
 3.842616e-03  -1.482822e-02  0 
 -8.979745e-03  2.740991e-03  0 
 -8.943942e-03  -2.063968e-02  0 
 -2.776084e-02  -2.699647e-02  0 
 -5.615473e-02  -4.403367e-02  0 
 -3.253480e-02  -4.402782e-02  0 
 1.435688e-02  -4.395946e-02  0 
 -8.855267e-03  -6.771893e-02  0 
 -8.805341e-03  -9.146749e-02  0 
 -8.775751e-03  -1.152805e-01  0 
 -3.477363e-02  -1.251086e-02  0 
 -2.567100e-02  -1.850514e-02  0 
 -1.939507e-02  -2.479929e-02  0 
 -4.192182e-02  -3.127393e-02  0 
 -4.346008e-02  -1.917716e-02  0 
 -1.822077e-02  -2.934940e-02  0 
 -2.515767e-02  -1.825627e-02  0 
 -3.026435e-02  -2.382130e-02  0 
 -3.259196e-02  6.193393e-04  0 
 1.483940e-02  -2.579668e-02  0 
 8.046404e-03  -9.538355e-03  0 
 -3.301701e-02  -6.247396e-02  0 
 -2.485053e-02  -7.993670e-02  0 
 -3.171300e-02  -9.772566e-02  0 
 -4.785887e-02  -7.487168e-02  0 
 -8.344871e-04  -1.266280e-01  0 
 6.055087e-03  -7.950841e-02  0 
 2.071970e-02  -7.055576e-02  0 
 1.270503e-02  -9.772362e-02  0 
 5.768683e-03  -6.283184e-02  0 
VECTORS displacement_ITER2 FLOAT
 4.248907e-03  -4.757708e-02  0 
 -2.665515e-02  1.661904e-03  0 
 4.165026e-03  -3.876129e-02  0 
 4.202654e-03  -4.316571e-02  0 
 -1.367617e-02  -7.660532e-02  0 
 -5.238361e-03  -4.774842e-02  0 
 -5.065754e-04  -4.766844e-02  0 
 8.519450e-03  -4.749597e-02  0 
 4.286040e-03  -5.245485e-02  0 
 4.336094e-03  -5.734208e-02  0 
 4.370341e-03  -6.230209e-02  0 
 6.676993e-03  -2.652286e-02  0 
 3.790637e-03  -3.911088e-02  0 
 -4.137485e-03  -4.441002e-02  0 
 8.477115e-04  -4.674990e-02  0 
 3.165222e-03  -3.802041e-02  0 
 -1.183743e-02  6.103350e-03  0 
 8.701312e-03  -9.175852e-03  0 
 3.767716e-03  -2.899238e-02  0 
 3.533684e-03  -3.109729e-02  0 
 8.640117e-03  -4.415486e-02  0 
 7.358647e-03  -4.110716e-02  0 
 -6.359464e-04  -5.138308e-02  0 
 1.026351e-03  -5.494589e-02  0 
 -3.784328e-04  -5.860006e-02  0 
 -3.635718e-03  -5.390831e-02  0 
 2.820165e-03  -6.858164e-02  0 
 6.009873e-03  -5.398298e-02  0 
 7.072657e-03  -5.045905e-02  0 
 6.080352e-03  -5.713416e-02  0 
 6.677854e-03  -5.109365e-02  0 
VECTORS displacement_ITER3 FLOAT
 -1.995707e-03  -1.209258e-02  0 
 -6.235875e-03  -4.383402e-03  0 
 -2.075506e-03  -1.194402e-02  0 
 -2.044054e-03  -1.197302e-02  0 
 -1.435666e-02  -1.174276e-02  0 
 -7.985043e-03  -1.231950e-02  0 
 -4.998449e-03  -1.222155e-02  0 
 -2.037022e-03  -1.199827e-02  0 
 -1.952327e-03  -1.526176e-02  0 
 -1.903183e-03  -1.841193e-02  0 
 -1.871487e-03  -2.161304e-02  0 
 3.250691e-04  -5.069063e-03  0 
 -1.542813e-03  -8.494430e-03  0 
 -3.811427e-03  -8.759596e-03  0 
 -7.423979e-03  -7.819547e-03  0 
 -3.432270e-03  -7.117981e-03  0 
 -2.360118e-03  -6.665591e-04  0 
 2.444229e-03  -1.981881e-04  0 
 -2.613792e-03  -7.274223e-03  0 
 -1.474173e-04  -6.833823e-03  0 
 -2.016214e-03  -1.200490e-02  0 
 -2.064594e-03  -1.199614e-02  0 
 -5.100648e-03  -1.457614e-02  0 
 -4.035266e-03  -1.686082e-02  0 
 -4.931877e-03  -1.921355e-02  0 
 -7.002187e-03  -1.619440e-02  0 
 -3.333259e-03  -2.601238e-02  0 
 -1.802608e-03  -1.565990e-02  0 
 -1.221716e-03  -1.258629e-02  0 
 -1.752954e-03  -1.763655e-02  0 
 -1.700858e-03  -1.352114e-02  0 
VECTORS displacement_ITER4 FLOAT
 -9.197846e-04  -3.545440e-03  0 
 9.278241e-03  -7.668189e-03  0 
 -1.006516e-03  -2.946406e-03  0 
 -9.747419e-04  -3.208948e-03  0 
 -3.236815e-03  3.567053e-03  0 
 -3.288490e-03  -3.761566e-03  0 
 -2.110911e-03  -3.671231e-03  0 
 -7.714751e-04  -3.414814e-03  0 
 -8.762666e-04  -4.902612e-03  0 
 -8.331934e-04  -6.230551e-03  0 
 -8.059458e-04  -7.592951e-03  0 
 -3.055829e-03  3.499820e-03  0 
 -9.196794e-04  -1.338716e-03  0 
 -3.343697e-03  7.038109e-03  0 
 -4.393044e-03  1.966012e-03  0 
 -2.813286e-03  2.622980e-04  0 
 3.526222e-03  -5.472897e-03  0 
 -3.140375e-03  3.205211e-03  0 
 -5.261344e-03  3.551106e-03  0 
 -1.701530e-03  1.547981e-03  0 
 -7.229854e-04  -3.293281e-03  0 
 -8.249468e-04  -3.111778e-03  0 
 -2.173148e-03  -4.614206e-03  0 
 -1.730713e-03  -5.564116e-03  0 
 -2.095801e-03  -6.549401e-03  0 
 -2.933687e-03  -5.279754e-03  0 
 -1.979341e-03  -1.324849e-02  0 
 -4.285874e-04  -6.111819e-03  0 
 1.766674e-03  -5.043423e-03  0 
 4.975953e-04  -8.579482e-03  0 
 -6.589437e-04  -4.376314e-03  0 
VECTORS displacement_ITER5 FLOAT
 2.167793e-04  -8.312504e-04  0 
 -7.107703e-04  -4.625237e-03  0 
 1.508724e-04  -2.503611e-04  0 
 1.658161e-04  -5.001247e-04  0 
 -5.251922e-03  7.932215e-04  0 
 4.700663e-04  -1.017141e-03  0 
 3.398089e-04  -9.419938e-04  0 
 3.274895e-04  -6.711120e-04  0 
 2.631434e-04  -8.647392e-04  0 
 3.096879e-04  -8.735093e-04  0 
 3.405584e-04  -9.222348e-04  0 
 -1.063900e-03  2.280813e-03  0 
 2.733766e-04  -3.630169e-05  0 
 -3.867138e-03  3.050795e-03  0 
 -2.378452e-03  2.199663e-03  0 
 -4.784199e-04  8.845260e-04  0 
 4.317940e-04  -1.488056e-03  0 
 -1.695676e-03  1.980442e-03  0 
 -2.949768e-03  2.294006e-03  0 
 -3.328246e-04  1.222099e-03  0 
 4.087987e-04  -5.772084e-04  0 
 3.223972e-04  -3.832163e-04  0 
 3.103819e-04  -8.616293e-04  0 
 3.004805e-04  -8.428098e-04  0 
 3.180008e-04  -8.389822e-04  0 
 3.739868e-04  -8.378904e-04  0 
 -1.657800e-03  -6.773343e-03  0 
 -1.138427e-04  -1.657049e-03  0 
 4.284368e-04  -1.394656e-03  0 
 5.065062e-05  -3.142559e-03  0 
 4.201274e-05  -1.123419e-03  0 
VECTORS displacement_ITER6 FLOAT
 -1.890088e-04  -1.525741e-03  0 
 1.220041e-03  -2.174788e-03  0 
 -2.379593e-04  -9.837312e-05  0 
 -2.261234e-04  -7.711162e-04  0 
 -1.399790e-03  -6.513004e-04  0 
 -2.345922e-04  -1.700659e-03  0 
 -2.091821e-04  -1.635009e-03  0 
 3.723724e-04  -1.392910e-03  0 
 -1.457347e-04  -1.707463e-03  0 
 -1.230012e-04  -1.836240e-03  0 
 -1.238937e-04  -1.974517e-03  0 
 -1.692434e-03  3.286039e-04  0 
 -5.215464e-04  -9.185699e-04  0 
 -2.150290e-03  2.004982e-03  0 
 -1.215731e-03  1.237950e-04  0 
 -9.075874e-04  -5.729550e-04  0 
 1.237240e-04  -2.643278e-03  0 
 -2.165676e-03  -5.676524e-04  0 
 -2.227868e-03  9.164477e-04  0 
 -1.091826e-03  -1.036916e-04  0 
 4.385222e-04  -9.228155e-04  0 
 2.277187e-04  -4.651717e-04  0 
 -2.384418e-04  -1.674613e-03  0 
 -1.984511e-04  -1.762862e-03  0 
 -2.141195e-04  -1.857503e-03  0 
 -2.623574e-04  -1.724270e-03  0 
 6.096484e-04  -2.083088e-03  0 
 2.908269e-04  -1.748574e-03  0 
 8.875354e-04  -1.498879e-03  0 
 6.854956e-04  -2.115771e-03  0 
 2.221682e-04  -1.579194e-03  0 
VECTORS displacement_ITER7 FLOAT
 1.218062e-05  -1.023160e-03  0 
 -6.223599e-04  1.878587e-04  0 
 -4.721109e-05  -8.768585e-04  0 
 -3.030801e-05  -9.095985e-04  0 
 -3.340824e-04  -8.695287e-04  0 
 -3.498113e-04  -1.176779e-03  0 
 -1.589261e-04  -1.123483e-03  0 
 -5.539299e-05  -9.193962e-04  0 
 6.931998e-05  -1.366989e-03  0 
 1.063766e-04  -1.661266e-03  0 
 1.149461e-04  -1.962419e-03  0 
 -5.151685e-04  -3.267409e-04  0 
 -3.189241e-04  -8.932561e-04  0 
 -4.223522e-04  -1.425269e-04  0 
 -3.094143e-04  -5.204680e-04  0 
 -4.850548e-04  -4.013141e-04  0 
 3.773496e-04  -9.945286e-04  0 
 -4.738400e-05  -1.270684e-03  0 
 -4.144611e-05  -2.546271e-04  0 
 -1.003024e-03  -2.070670e-04  0 
 -2.286300e-05  -9.201823e-04  0 
 -3.834691e-05  -9.018261e-04  0 
 -1.867406e-04  -1.287456e-03  0 
 -8.708130e-05  -1.500382e-03  0 
 -1.499847e-04  -1.724919e-03  0 
 -3.150208e-04  -1.424892e-03  0 
 3.669021e-04  -2.015941e-03  0 
 1.957372e-04  -1.632774e-03  0 
 3.494313e-04  -1.849974e-03  0 
 3.980952e-04  -1.947598e-03  0 
 2.881456e-05  -1.299192e-03  0 
VECTORS displacement_ITER8 FLOAT
 -2.640279e-05  -1.161161e-03  0 
 -5.902310e-04  -6.968242e-04  0 
 -1.123474e-04  -5.509171e-04  0 
 -8.316479e-05  -8.208878e-04  0 
 -5.150266e-04  -1.122768e-03  0 
 -3.502147e-04  -1.310640e-03  0 
 -1.784317e-04  -1.260089e-03  0 
 1.252612e-04  -1.048301e-03  0 
 3.197666e-05  -1.487013e-03  0 
 6.792348e-05  -1.762591e-03  0 
 7.249341e-05  -2.041287e-03  0 
 -1.842615e-04  -4.664386e-04  0 
 -1.065379e-04  -7.628273e-04  0 
 -4.889817e-04  -6.817789e-04  0 
 -4.046340e-04  -8.898690e-04  0 
 -2.551966e-04  -7.617168e-04  0 
 -2.064428e-04  -3.323062e-04  0 
 -1.123991e-04  -3.342532e-04  0 
 -3.152825e-04  -5.654880e-04  0 
 -1.781179e-04  -4.158213e-04  0 
 1.653026e-04  -8.983560e-04  0 
 8.086435e-05  -7.015276e-04  0 
 -2.052309e-04  -1.409870e-03  0 
 -1.115248e-04  -1.611381e-03  0 
 -1.699348e-04  -1.826104e-03  0 
 -3.216833e-04  -1.537478e-03  0 
 2.305141e-04  -1.860465e-03  0 
 1.568421e-04  -1.629785e-03  0 
 1.623875e-04  -1.704915e-03  0 
 2.328197e-04  -1.773670e-03  0 
 8.301812e-05  -1.417664e-03  0 
VECTORS displacement_ITER9 FLOAT
 6.748876e-05  -9.276033e-04  0 
 -4.045247e-04  -5.443897e-04  0 
 1.101001e-05  -5.840144e-04  0 
 2.296522e-05  -7.246278e-04  0 
 -5.211985e-04  -1.042751e-03  0 
 -3.197020e-04  -1.023499e-03  0 
 -1.132769e-04  -1.000157e-03  0 
 1.327458e-04  -8.676430e-04  0 
 1.206582e-04  -1.255169e-03  0 
 1.501211e-04  -1.542621e-03  0 
 1.483030e-04  -1.842342e-03  0 
 -1.578363e-04  -6.876661e-04  0 
 1.313127e-05  -6.976928e-04  0 
 -4.120427e-04  -9.034180e-04  0 
 -3.839981e-04  -9.161412e-04  0 
 -1.794977e-04  -8.476882e-04  0 
 -5.743992e-04  -2.778109e-04  0 
 -2.993639e-04  -3.208712e-04  0 
 -4.027141e-04  -7.210811e-04  0 
 1.035590e-04  -6.461676e-04  0 
 1.414683e-04  -7.684871e-04  0 
 1.010187e-04  -6.554260e-04  0 
 -1.312339e-04  -1.174166e-03  0 
 -3.411007e-05  -1.388165e-03  0 
 -9.790566e-05  -1.610764e-03  0 
 -2.648688e-04  -1.313580e-03  0 
 3.179697e-04  -1.785557e-03  0 
 2.376592e-04  -1.419695e-03  0 
 3.267204e-04  -1.452166e-03  0 
 3.549465e-04  -1.644541e-03  0 
 1.502477e-04  -1.171279e-03  0 
VECTORS displacement_ITER10 FLOAT
 7.317694e-05  -8.687438e-04  0 
 -3.587923e-04  -5.311642e-04  0 
 -1.186106e-06  -5.069925e-04  0 
 2.323754e-05  -6.712106e-04  0 
 -5.254785e-04  -9.389164e-04  0 
 -3.319279e-04  -9.348575e-04  0 
 -1.104621e-04  -9.273051e-04  0 
 1.389961e-04  -8.169680e-04  0 
 1.245617e-04  -1.185565e-03  0 
 1.606346e-04  -1.472528e-03  0 
 1.678462e-04  -1.778872e-03  0 
 -1.721543e-04  -5.096639e-04  0 
 -2.316085e-05  -6.175691e-04  0 
 -4.604924e-04  -8.651324e-04  0 
 -3.860747e-04  -8.090923e-04  0 
 -2.209357e-04  -6.728139e-04  0 
 -2.828968e-04  -4.505538e-04  0 
 -1.705940e-04  -3.915014e-04  0 
 -3.068989e-04  -6.041389e-04  0 
 -4.716555e-05  -4.303869e-04  0 
 1.452207e-04  -7.222476e-04  0 
 1.041810e-04  -6.051017e-04  0 
 -1.225666e-04  -1.108610e-03  0 
 -3.009086e-05  -1.315656e-03  0 
 -9.935908e-05  -1.538595e-03  0 
 -2.579691e-04  -1.250971e-03  0 
 3.355446e-04  -1.838330e-03  0 
 2.724132e-04  -1.233960e-03  0 
 5.834152e-04  -9.100782e-04  0 
 4.430566e-04  -1.504293e-03  0 
 2.065311e-04  -9.745930e-04  0 
VECTORS displacement_ITER11 FLOAT
 6.441323e-05  -8.666402e-04  0 
 -3.326875e-04  -4.488428e-04  0 
 -1.548941e-05  -4.928036e-04  0 
 1.447508e-05  -6.645917e-04  0 
 -4.999936e-04  -9.208149e-04  0 
 -3.129277e-04  -9.349387e-04  0 
 -1.050518e-04  -9.239892e-04  0 
 1.399493e-04  -8.179394e-04  0 
 1.183975e-04  -1.170274e-03  0 
 1.570368e-04  -1.444849e-03  0 
 1.651317e-04  -1.741664e-03  0 
 -1.671958e-04  -4.397460e-04  0 
 -5.054731e-05  -6.229780e-04  0 
 -4.123986e-04  -5.898670e-04  0 
 -3.454640e-04  -7.032971e-04  0 
 -1.937884e-04  -6.186989e-04  0 
 -2.149025e-04  -3.665888e-04  0 
 -1.816161e-04  -3.365677e-04  0 
 -2.964550e-04  -4.659038e-04  0 
 -8.493498e-05  -4.791704e-04  0 
 1.442560e-04  -7.154424e-04  0 
 1.030660e-04  -5.955347e-04  0 
 -1.171694e-04  -1.092427e-03  0 
 -2.595472e-05  -1.291194e-03  0 
 -8.837258e-05  -1.504704e-03  0 
 -2.414369e-04  -1.220776e-03  0 
 3.100303e-04  -1.785634e-03  0 
 2.144154e-04  -1.325638e-03  0 
 4.007165e-04  -1.198799e-03  0 
 3.322930e-04  -1.611979e-03  0 
 1.555496e-04  -1.064349e-03  0 
VECTORS displacement_ITER12 FLOAT
 6.911573e-05  -8.650945e-04  0 
 -3.348731e-04  -4.698351e-04  0 
 -7.292678e-06  -5.026800e-04  0 
 2.010057e-05  -6.656041e-04  0 
 -4.954714e-04  -9.215191e-04  0 
 -3.124920e-04  -9.337108e-04  0 
 -1.013971e-04  -9.224324e-04  0 
 1.416716e-04  -8.165459e-04  0 
 1.224338e-04  -1.169607e-03  0 
 1.598676e-04  -1.443107e-03  0 
 1.676920e-04  -1.737101e-03  0 
 -1.749033e-04  -4.485760e-04  0 
 -3.558692e-05  -6.158505e-04  0 
 -4.099315e-04  -6.198696e-04  0 
 -3.461382e-04  -7.128226e-04  0 
 -2.013543e-04  -6.236956e-04  0 
 -2.209100e-04  -3.475309e-04  0 
 -1.789164e-04  -3.342513e-04  0 
 -2.924967e-04  -4.797673e-04  0 
 -7.299812e-05  -4.451719e-04  0 
 1.460479e-04  -7.150518e-04  0 
 1.046785e-04  -5.987346e-04  0 
 -1.134203e-04  -1.092321e-03  0 
 -2.187268e-05  -1.290627e-03  0 
 -8.317463e-05  -1.502294e-03  0 
 -2.373335e-04  -1.219690e-03  0 
 3.179734e-04  -1.792429e-03  0 
 2.352505e-04  -1.289496e-03  0 
 3.431216e-04  -1.192750e-03  0 
 3.723676e-04  -1.558687e-03  0 
 1.667889e-04  -1.057925e-03  0 
VECTORS displacement_ITER13 FLOAT
 6.958477e-05  -8.654259e-04  0 
 -3.337094e-04  -4.633345e-04  0 
 -7.245909e-06  -5.013180e-04  0 
 2.070025e-05  -6.658816e-04  0 
 -4.960536e-04  -9.220887e-04  0 
 -3.121528e-04  -9.348886e-04  0 
 -1.010878e-04  -9.231179e-04  0 
 1.424034e-04  -8.167711e-04  0 
 1.228485e-04  -1.170181e-03  0 
 1.605470e-04  -1.444119e-03  0 
 1.688264e-04  -1.739069e-03  0 
 -1.707972e-04  -4.524767e-04  0 
 -3.312053e-05  -6.149891e-04  0 
 -4.083291e-04  -6.268512e-04  0 
 -3.469890e-04  -7.163911e-04  0 
 -2.000666e-04  -6.269282e-04  0 
 -2.317708e-04  -3.514850e-04  0 
 -1.762588e-04  -3.338927e-04  0 
 -2.942710e-04  -4.871581e-04  0 
 -6.759719e-05  -4.436812e-04  0 
 1.467368e-04  -7.150666e-04  0 
 1.056587e-04  -5.989648e-04  0 
 -1.132698e-04  -1.093005e-03  0 
 -2.170486e-05  -1.291282e-03  0 
 -8.311760e-05  -1.502976e-03  0 
 -2.372858e-04  -1.220511e-03  0 
 3.043756e-04  -1.795643e-03  0 
 2.410850e-04  -1.291024e-03  0 
 3.634605e-04  -1.196995e-03  0 
 3.783348e-04  -1.550767e-03  0 
 1.695658e-04  -1.057028e-03  0 
VECTORS displacement_ITER14 FLOAT
 6.961714e-05  -8.654039e-04  0 
 -3.337054e-04  -4.633663e-04  0 
 -7.265360e-06  -5.011340e-04  0 
 2.071698e-05  -6.658667e-04  0 
 -4.959890e-04  -9.221031e-04  0 
 -3.121710e-04  -9.348540e-04  0 
 -1.010939e-04  -9.230862e-04  0 
 1.424251e-04  -8.167552e-04  0 
 1.229058e-04  -1.170234e-03  0 
 1.605293e-04  -1.444143e-03  0 
 1.687139e-04  -1.738771e-03  0 
 -1.696449e-04  -4.522646e-04  0 
 -3.445631e-05  -6.160575e-04  0 
 -4.081425e-04  -6.278415e-04  0 
 -3.467581e-04  -7.166431e-04  0 
 -1.993240e-04  -6.264232e-04  0 
 -2.313914e-04  -3.485773e-04  0 
 -1.740300e-04  -3.310330e-04  0 
 -2.933531e-04  -4.870730e-04  0 
 -6.963677e-05  -4.467552e-04  0 
 1.467499e-04  -7.150746e-04  0 
 1.056681e-04  -5.989712e-04  0 
 -1.132764e-04  -1.092992e-03  0 
 -2.165555e-05  -1.291370e-03  0 
 -8.305605e-05  -1.503123e-03  0 
 -2.373564e-04  -1.220537e-03  0 
 3.033879e-04  -1.794634e-03  0 
 2.422690e-04  -1.291053e-03  0 
 3.638281e-04  -1.199337e-03  0 
 3.808879e-04  -1.551002e-03  0 
 1.699455e-04  -1.057310e-03  0 
CELL_DATA 42
TENSORS element_stresses FLOAT
 4.436099e-05  -2.914314e-04  0 
 -2.914314e-04  -2.252279e-04  0 
 0  0  0 

 -3.709333e-04  -4.003719e-04  0 
 -4.003719e-04  -1.622838e-04  0 
 0  0  0 

 -2.440871e-04  -3.244122e-04  0 
 -3.244122e-04  -2.615488e-05  0 
 0  0  0 

 -1.461842e-04  -1.360565e-04  0 
 -1.360565e-04  -5.027756e-05  0 
 0  0  0 

 -3.739184e-04  -3.453131e-04  0 
 -3.453131e-04  -1.567221e-04  0 
 0  0  0 

 -1.339187e-04  -4.046579e-04  0 
 -4.046579e-04  -6.689564e-05  0 
 0  0  0 

 -4.879273e-04  -4.747462e-04  0 
 -4.747462e-04  -8.222225e-05  0 
 0  0  0 

 -5.181016e-04  -3.993190e-04  0 
 -3.993190e-04  -1.599754e-05  0 
 0  0  0 

 -3.706214e-04  -2.936115e-04  0 
 -2.936115e-04  -1.997895e-05  0 
 0  0  0 

 -3.705038e-04  -1.549871e-04  0 
 -1.549871e-04  -5.984432e-05  0 
 0  0  0 

 -4.035480e-04  -2.423350e-04  0 
 -2.423350e-04  1.090888e-04  0 
 0  0  0 

 -2.269954e-05  -3.749429e-04  0 
 -3.749429e-04  -3.214623e-04  0 
 0  0  0 

 1.374843e-04  -4.001725e-04  0 
 -4.001725e-04  -1.937212e-04  0 
 0  0  0 

 -4.925817e-05  -3.626347e-04  0 
 -3.626347e-04  2.159519e-04  0 
 0  0  0 

 -3.139907e-04  -4.645891e-04  0 
 -4.645891e-04  -1.076705e-04  0 
 0  0  0 

 -2.652901e-04  -2.275056e-04  0 
 -2.275056e-04  -4.584468e-05  0 
 0  0  0 

 -2.687811e-04  -2.560578e-04  0 
 -2.560578e-04  -8.465534e-05  0 
 0  0  0 

 -3.625831e-04  -2.473316e-04  0 
 -2.473316e-04  -1.159441e-06  0 
 0  0  0 

 1.021360e-01  -9.192266e-02  0 
 -9.192266e-02  -3.264441e-02  0 
 0  0  0 

 1.754996e-02  -1.210067e-01  0 
 -1.210067e-01  -4.867138e-02  0 
 0  0  0 

 2.080812e-01  -2.662235e-01  0 
 -2.662235e-01  4.160190e-02  0 
 0  0  0 

 4.798661e-02  -1.732441e-01  0 
 -1.732441e-01  2.089908e-01  0 
 0  0  0 

 -2.934495e-02  -1.984287e-02  0 
 -1.984287e-02  3.826778e-02  0 
 0  0  0 

 1.260287e-01  -9.581429e-02  0 
 -9.581429e-02  -8.155198e-02  0 
 0  0  0 

 9.983758e-03  -1.226583e-01  0 
 -1.226583e-01  -7.584787e-02  0 
 0  0  0 

 8.036233e-02  -1.396467e-01  0 
 -1.396467e-01  -3.694882e-02  0 
 0  0  0 

 5.282598e-02  -1.007609e-01  0 
 -1.007609e-01  -6.236986e-02  0 
 0  0  0 

 3.557626e-02  -7.194874e-02  0 
 -7.194874e-02  7.810128e-02  0 
 0  0  0 

 2.665209e-02  -1.404238e-01  0 
 -1.404238e-01  2.387249e-01  0 
 0  0  0 

 2.210750e-01  -2.608402e-01  0 
 -2.608402e-01  2.640169e-02  0 
 0  0  0 

 5.210150e-02  -1.002395e-01  0 
 -1.002395e-01  -5.798281e-02  0 
 0  0  0 

 2.189022e-03  -2.008585e-01  0 
 -2.008585e-01  -3.917442e-02  0 
 0  0  0 

 -2.159882e-05  -3.569501e-04  0 
 -3.569501e-04  -1.811231e-04  0 
 0  0  0 

 1.795671e-04  -4.661979e-04  0 
 -4.661979e-04  9.690927e-05  0 
 0  0  0 

 5.754223e-05  -4.578803e-04  0 
 -4.578803e-04  -5.269471e-05  0 
 0  0  0 

 3.410470e-04  -5.112666e-04  0 
 -5.112666e-04  3.581594e-05  0 
 0  0  0 

 3.557223e-04  -7.394061e-04  0 
 -7.394061e-04  3.013115e-04  0 
 0  0  0 

 2.873648e-04  -6.734197e-04  0 
 -6.734197e-04  2.473678e-04  0 
 0  0  0 

 4.075925e-04  -6.776987e-04  0 
 -6.776987e-04  2.643419e-04  0 
 0  0  0 

 3.071617e-04  -4.691311e-04  0 
 -4.691311e-04  -9.942407e-06  0 
 0  0  0 

 2.892351e-04  -4.644150e-04  0 
 -4.644150e-04  -1.014289e-05  0 
 0  0  0 

 4.040599e-04  -5.791784e-04  0 
 -5.791784e-04  6.587744e-05  0 
 0  0  0 

TENSORS element_stresses FLOAT
 4.436099e-05  -2.914314e-04  0 
 -2.914314e-04  -2.252279e-04  0 
 0  0  0 

 -3.709333e-04  -4.003719e-04  0 
 -4.003719e-04  -1.622838e-04  0 
 0  0  0 

 -2.440871e-04  -3.244122e-04  0 
 -3.244122e-04  -2.615488e-05  0 
 0  0  0 

 -1.461842e-04  -1.360565e-04  0 
 -1.360565e-04  -5.027756e-05  0 
 0  0  0 

 -3.739184e-04  -3.453131e-04  0 
 -3.453131e-04  -1.567221e-04  0 
 0  0  0 

 -1.339187e-04  -4.046579e-04  0 
 -4.046579e-04  -6.689564e-05  0 
 0  0  0 

 -4.879273e-04  -4.747462e-04  0 
 -4.747462e-04  -8.222225e-05  0 
 0  0  0 

 -5.181016e-04  -3.993190e-04  0 
 -3.993190e-04  -1.599754e-05  0 
 0  0  0 

 -3.706214e-04  -2.936115e-04  0 
 -2.936115e-04  -1.997895e-05  0 
 0  0  0 

 -3.705038e-04  -1.549871e-04  0 
 -1.549871e-04  -5.984432e-05  0 
 0  0  0 

 -4.035480e-04  -2.423350e-04  0 
 -2.423350e-04  1.090888e-04  0 
 0  0  0 

 -2.269954e-05  -3.749429e-04  0 
 -3.749429e-04  -3.214623e-04  0 
 0  0  0 

 1.374843e-04  -4.001725e-04  0 
 -4.001725e-04  -1.937212e-04  0 
 0  0  0 

 -4.925817e-05  -3.626347e-04  0 
 -3.626347e-04  2.159519e-04  0 
 0  0  0 

 -3.139907e-04  -4.645891e-04  0 
 -4.645891e-04  -1.076705e-04  0 
 0  0  0 

 -2.652901e-04  -2.275056e-04  0 
 -2.275056e-04  -4.584468e-05  0 
 0  0  0 

 -2.687811e-04  -2.560578e-04  0 
 -2.560578e-04  -8.465534e-05  0 
 0  0  0 

 -3.625831e-04  -2.473316e-04  0 
 -2.473316e-04  -1.159441e-06  0 
 0  0  0 

 1.021360e-01  -9.192266e-02  0 
 -9.192266e-02  -3.264441e-02  0 
 0  0  0 

 1.754996e-02  -1.210067e-01  0 
 -1.210067e-01  -4.867138e-02  0 
 0  0  0 

 2.080812e-01  -2.662235e-01  0 
 -2.662235e-01  4.160190e-02  0 
 0  0  0 

 4.798661e-02  -1.732441e-01  0 
 -1.732441e-01  2.089908e-01  0 
 0  0  0 

 -2.934495e-02  -1.984287e-02  0 
 -1.984287e-02  3.826778e-02  0 
 0  0  0 

 1.260287e-01  -9.581429e-02  0 
 -9.581429e-02  -8.155198e-02  0 
 0  0  0 

 9.983758e-03  -1.226583e-01  0 
 -1.226583e-01  -7.584787e-02  0 
 0  0  0 

 8.036233e-02  -1.396467e-01  0 
 -1.396467e-01  -3.694882e-02  0 
 0  0  0 

 5.282598e-02  -1.007609e-01  0 
 -1.007609e-01  -6.236986e-02  0 
 0  0  0 

 3.557626e-02  -7.194874e-02  0 
 -7.194874e-02  7.810128e-02  0 
 0  0  0 

 2.665209e-02  -1.404238e-01  0 
 -1.404238e-01  2.387249e-01  0 
 0  0  0 

 2.210750e-01  -2.608402e-01  0 
 -2.608402e-01  2.640169e-02  0 
 0  0  0 

 5.210150e-02  -1.002395e-01  0 
 -1.002395e-01  -5.798281e-02  0 
 0  0  0 

 2.189022e-03  -2.008585e-01  0 
 -2.008585e-01  -3.917442e-02  0 
 0  0  0 

 -2.159882e-05  -3.569501e-04  0 
 -3.569501e-04  -1.811231e-04  0 
 0  0  0 

 1.795671e-04  -4.661979e-04  0 
 -4.661979e-04  9.690927e-05  0 
 0  0  0 

 5.754223e-05  -4.578803e-04  0 
 -4.578803e-04  -5.269471e-05  0 
 0  0  0 

 3.410470e-04  -5.112666e-04  0 
 -5.112666e-04  3.581594e-05  0 
 0  0  0 

 3.557223e-04  -7.394061e-04  0 
 -7.394061e-04  3.013115e-04  0 
 0  0  0 

 2.873648e-04  -6.734197e-04  0 
 -6.734197e-04  2.473678e-04  0 
 0  0  0 

 4.075925e-04  -6.776987e-04  0 
 -6.776987e-04  2.643419e-04  0 
 0  0  0 

 3.071617e-04  -4.691311e-04  0 
 -4.691311e-04  -9.942407e-06  0 
 0  0  0 

 2.892351e-04  -4.644150e-04  0 
 -4.644150e-04  -1.014289e-05  0 
 0  0  0 

 4.040599e-04  -5.791784e-04  0 
 -5.791784e-04  6.587744e-05  0 
 0  0  0 

