# vtk DataFile Version 3.1
this is an vtk file created by FEMAC
ASCII
DATASET UNSTRUCTURED_GRID
POINTS 20 FLOAT
2.000000 3.000000 0.000000
1.666667 3.000000 0.000000
2.000000 2.666667 0.000000
2.000000 3.333333 0.000000
2.000000 3.666667 0.000000
2.333333 3.000000 0.000000
2.666667 3.000000 0.000000
1.523802 2.285974 0.000000
1.518186 2.690581 0.000000
1.784776 2.496093 0.000000
1.793926 2.770668 0.000000
1.523802 3.285974 0.000000
1.784776 3.496093 0.000000
1.795049 3.223080 0.000000
2.248421 2.490274 0.000000
2.466342 2.734179 0.000000
2.242347 2.785889 0.000000
2.248421 3.490274 0.000000
2.515789 3.340031 0.000000
2.221251 3.227409 0.000000
CELLS 25 100 
3 7 9 8
3 1 10  0
3 10  2  0
3 10  1  8
3 10  9  2
3 8  9 10
3 4 12  3
3 13  1  0
3 3 13  0
3 1 13 11
3 12 13  3
3 12 11 13
3 5 15  6
3 2 16  0
3 16  5  0
3 16  2 14
3 16 15  5
3 14 15 16
3 4  3 17
3 18  5  6
3 19  3  0
3 5 19  0
3 19  5 18
3 17 19 18
3 19 17  3
CELL_TYPES 25
5 5 5 5 5 5 5 5 5 5 5 5 5 5 5 5 5 5 5 5 5 5 5 5 5 
POINT_DATA 20
VECTORS displacement_ITER1 FLOAT
 2.838748e-01  -1.871532e-01  0 
 2.837430e-01  -2.205677e-01  0 
 2.599771e-01  -1.875570e-01  0 
 2.498882e-01  -1.869381e-01  0 
 2.157347e-01  -1.868307e-01  0 
 2.841547e-01  -2.117716e-01  0 
 2.843339e-01  -2.364022e-01  0 
 2.718841e-01  -2.067565e-01  0 
 2.693761e-01  -2.022042e-01  0 
 2.691790e-01  -2.039098e-01  0 
 2.730479e-01  -2.003596e-01  0 
 2.544960e-01  -2.350234e-01  0 
 2.333030e-01  -2.088300e-01  0 
 2.610830e-01  -2.077004e-01  0 
 2.472091e-01  -2.055841e-01  0 
 2.647361e-01  -2.214228e-01  0 
 2.684633e-01  -2.049965e-01  0 
 2.449785e-01  -1.904961e-01  0 
 2.637162e-01  -1.993636e-01  0 
 2.680287e-01  -1.942733e-01  0 
VECTORS displacement_ITER2 FLOAT
 1.690038e-02  -1.050196e-02  0 
 1.670823e-02  -1.033216e-02  0 
 6.707722e-03  -1.074574e-02  0 
 1.667624e-02  -1.023487e-02  0 
 1.643868e-02  -1.001694e-02  0 
 1.716789e-02  -2.128290e-02  0 
 1.731432e-02  -3.218102e-02  0 
 1.188893e-02  -1.740684e-02  0 
 1.198143e-02  -1.352755e-02  0 
 1.061103e-02  -1.580157e-02  0 
 1.090387e-02  -1.168561e-02  0 
 1.678630e-02  -1.009013e-02  0 
 1.666736e-02  -1.020940e-02  0 
 1.676904e-02  -1.035455e-02  0 
 1.214993e-03  -1.853550e-02  0 
 8.723177e-03  -2.543695e-02  0 
 1.032335e-02  -1.825718e-02  0 
 1.888957e-02  -1.731812e-02  0 
 1.956698e-02  -2.458430e-02  0 
 1.787082e-02  -1.717958e-02  0 
VECTORS displacement_ITER3 FLOAT
 3.615252e-03  -1.221997e-03  0 
 3.418298e-03  -1.804647e-03  0 
 -3.041755e-03  -1.663733e-03  0 
 2.514934e-03  -8.765954e-04  0 
 1.564806e-03  -6.127179e-04  0 
 3.945883e-03  -8.676141e-03  0 
 4.177981e-03  -1.624611e-02  0 
 4.334479e-03  -1.161772e-02  0 
 1.798351e-03  -7.518883e-03  0 
 1.706977e-03  -7.807694e-03  0 
 -1.999879e-04  -3.482708e-03  0 
 2.718448e-03  -1.917266e-03  0 
 2.144147e-03  -1.344036e-03  0 
 2.896853e-03  -1.509399e-03  0 
 -6.575432e-03  -6.787981e-03  0 
 -1.803853e-03  -1.142367e-02  0 
 -7.409029e-04  -6.553257e-03  0 
 3.995194e-03  -6.241881e-03  0 
 4.879690e-03  -1.139262e-02  0 
 3.696083e-03  -6.127220e-03  0 
VECTORS displacement_ITER4 FLOAT
 -1.047237e-03  -2.124801e-03  0 
 -1.287998e-03  4.558294e-04  0 
 -3.106720e-03  -2.520459e-03  0 
 9.082204e-04  -1.774901e-03  0 
 2.983211e-03  -1.492141e-03  0 
 -7.322204e-04  -4.953296e-03  0 
 -5.630123e-04  -7.775938e-03  0 
 2.712882e-03  -1.105709e-02  0 
 1.400863e-04  -8.059930e-03  0 
 5.083413e-04  -7.449010e-03  0 
 -2.528331e-03  -3.559293e-03  0 
 6.025809e-04  1.378852e-03  0 
 2.018445e-03  -2.937245e-04  0 
 2.796370e-04  -5.332410e-04  0 
 -4.244932e-03  -4.223052e-03  0 
 -2.737823e-03  -5.869291e-03  0 
 -2.419291e-03  -4.097143e-03  0 
 2.464009e-03  -5.849454e-03  0 
 1.546691e-03  -8.788928e-03  0 
 1.530380e-04  -5.318168e-03  0 
VECTORS displacement_ITER5 FLOAT
 1.961504e-03  -3.851018e-03  0 
 1.756447e-03  -4.514147e-03  0 
 2.910088e-03  -4.240022e-03  0 
 7.107901e-04  -3.563531e-03  0 
 -2.906853e-05  -3.670377e-03  0 
 2.267192e-03  -3.618330e-03  0 
 2.481301e-03  -3.501195e-03  0 
 -6.560423e-03  5.962427e-04  0 
 1.710041e-03  -4.086313e-03  0 
 -2.781444e-04  -5.608310e-03  0 
 2.219395e-03  -5.472754e-03  0 
 9.152707e-04  -4.881483e-03  0 
 2.740030e-04  -4.109680e-03  0 
 1.148707e-03  -4.250495e-03  0 
 3.415311e-03  -3.632986e-03  0 
 2.662820e-03  -3.289605e-03  0 
 2.514812e-03  -3.589471e-03  0 
 7.045368e-04  -6.035502e-03  0 
 8.043613e-04  -7.022562e-03  0 
 7.001139e-04  -5.458803e-03  0 
VECTORS displacement_ITER6 FLOAT
 1.017060e-03  -2.635520e-03  0 
 7.482572e-04  -2.276435e-03  0 
 7.460633e-04  -2.894835e-03  0 
 7.567953e-04  -2.364148e-03  0 
 8.446548e-04  -2.552146e-03  0 
 1.320226e-03  -3.550892e-03  0 
 1.475237e-03  -4.524468e-03  0 
 -9.940405e-04  -3.861389e-03  0 
 9.338364e-04  -4.952089e-03  0 
 4.168745e-04  -5.035011e-03  0 
 4.959141e-04  -4.068460e-03  0 
 8.503624e-04  -2.268181e-03  0 
 7.374507e-04  -2.329339e-03  0 
 8.766395e-04  -2.461778e-03  0 
 5.328459e-04  -3.258336e-03  0 
 7.890919e-04  -3.739395e-03  0 
 8.264216e-04  -3.200427e-03  0 
 1.001460e-03  -5.710544e-03  0 
 6.860132e-04  -7.563262e-03  0 
 3.717995e-04  -5.050606e-03  0 
VECTORS displacement_ITER7 FLOAT
 -4.826981e-05  -2.996517e-03  0 
 -3.002505e-04  -2.333786e-03  0 
 -5.899791e-04  -3.234719e-03  0 
 5.820358e-06  -2.755244e-03  0 
 4.517104e-04  -3.077349e-03  0 
 2.451665e-04  -4.160370e-03  0 
 3.671030e-04  -5.259468e-03  0 
 -3.193544e-04  -5.543290e-03  0 
 -3.469117e-04  -5.282933e-03  0 
 -5.802970e-04  -5.134373e-03  0 
 -7.776386e-04  -4.267637e-03  0 
 4.481932e-05  -2.100260e-03  0 
 1.358297e-04  -2.511565e-03  0 
 8.945064e-06  -2.624985e-03  0 
 -9.460243e-04  -3.790063e-03  0 
 -4.495722e-04  -4.459164e-03  0 
 -3.928394e-04  -3.748143e-03  0 
 5.372020e-04  -6.341175e-03  0 
 6.021722e-04  -7.742420e-03  0 
 -2.224812e-04  -5.408237e-03  0 
VECTORS displacement_ITER8 FLOAT
 3.373133e-04  -3.078795e-03  0 
 8.785085e-05  -2.459304e-03  0 
 -9.356968e-05  -3.304016e-03  0 
 3.465257e-04  -2.831989e-03  0 
 7.604287e-04  -3.140260e-03  0 
 6.210456e-04  -4.124523e-03  0 
 7.168095e-04  -5.087642e-03  0 
 -5.602012e-04  -4.841261e-03  0 
 -5.454016e-05  -5.001408e-03  0 
 -3.754284e-04  -4.930957e-03  0 
 -3.357295e-04  -4.285255e-03  0 
 3.917496e-04  -2.261815e-03  0 
 4.602584e-04  -2.611746e-03  0 
 3.665541e-04  -2.732538e-03  0 
 -4.056228e-04  -3.784323e-03  0 
 3.198017e-05  -4.388051e-03  0 
 6.859421e-05  -3.748067e-03  0 
 8.232297e-04  -6.504672e-03  0 
 7.621893e-04  -8.007012e-03  0 
 3.684494e-05  -5.531569e-03  0 
VECTORS displacement_ITER9 FLOAT
 3.417347e-04  -3.168687e-03  0 
 9.038493e-05  -2.523405e-03  0 
 -1.143740e-04  -3.389199e-03  0 
 3.764811e-04  -2.920297e-03  0 
 7.889527e-04  -3.211639e-03  0 
 6.238988e-04  -4.234957e-03  0 
 7.160955e-04  -5.218003e-03  0 
 -6.044220e-04  -4.819534e-03  0 
 -5.154602e-05  -5.013616e-03  0 
 -3.947897e-04  -4.967196e-03  0 
 -3.373037e-04  -4.338387e-03  0 
 4.175054e-04  -2.317670e-03  0 
 4.948244e-04  -2.695883e-03  0 
 3.885401e-04  -2.809281e-03  0 
 -4.360461e-04  -3.883727e-03  0 
 1.983143e-05  -4.508134e-03  0 
 5.858314e-05  -3.852531e-03  0 
 8.480615e-04  -6.567671e-03  0 
 7.828563e-04  -8.068380e-03  0 
 6.129540e-05  -5.617786e-03  0 
CELL_DATA 25
TENSORS element_stresses FLOAT
 -4.816113e-04  9.113526e-04  0 
 9.113526e-04  -6.266286e-04  0 
 0  0  0 

 3.083569e-03  2.673212e-04  0 
 2.673212e-04  7.765065e-03  0 
 0  0  0 

 2.165734e-03  4.852490e-03  0 
 4.852490e-03  1.311257e-03  0 
 0  0  0 

 1.139373e-03  9.539550e-04  0 
 9.539550e-04  8.327787e-03  0 
 0  0  0 

 1.976041e-03  4.489974e-03  0 
 4.489974e-03  2.694093e-03  0 
 0  0  0 

 -4.822343e-04  1.574887e-03  0 
 1.574887e-03  2.085422e-03  0 
 0  0  0 

 1.359381e-01  -3.586520e-01  0 
 -3.586520e-01  -8.332434e-01  0 
 0  0  0 

 7.734311e-01  -7.948163e-01  0 
 -7.948163e-01  6.460553e-02  0 
 0  0  0 

 1.193815e-01  -6.448395e-01  0 
 -6.448395e-01  7.809830e-01  0 
 0  0  0 

 1.275712e-01  -4.829136e-01  0 
 -4.829136e-01  -1.721145e-01  0 
 0  0  0 

 -1.613163e-01  -2.850170e-01  0 
 -2.850170e-01  3.387459e-01  0 
 0  0  0 

 9.714467e-02  -1.032716e+00  0 
 -1.032716e+00  3.793599e-01  0 
 0  0  0 

 1.562591e-01  -4.140603e-01  0 
 -4.140603e-01  -4.011031e-01  0 
 0  0  0 

 2.626235e-01  -6.684436e-01  0 
 -6.684436e-01  7.403236e-01  0 
 0  0  0 

 7.895167e-01  -7.063328e-01  0 
 -7.063328e-01  -1.899185e-01  0 
 0  0  0 

 -9.746944e-02  -2.100981e-01  0 
 -2.100981e-01  3.633982e-02  0 
 0  0  0 

 2.740207e-01  -4.380855e-01  0 
 -4.380855e-01  -4.116808e-01  0 
 0  0  0 

 2.505122e-01  -9.528561e-01  0 
 -9.528561e-01  1.207578e-01  0 
 0  0  0 

 9.388595e-04  -9.917430e-03  0 
 -9.917430e-03  -5.923670e-04  0 
 0  0  0 

 -2.890985e-03  -2.023131e-03  0 
 -2.023131e-03  -1.055858e-02  0 
 0  0  0 

 -1.264951e-03  -9.023836e-03  0 
 -9.023836e-03  3.656833e-04  0 
 0  0  0 

 -1.594206e-03  -4.042754e-03  0 
 -4.042754e-03  -8.135662e-03  0 
 0  0  0 

 3.155973e-04  -4.700060e-03  0 
 -4.700060e-03  -8.472334e-03  0 
 0  0  0 

 5.483529e-04  -3.362573e-03  0 
 -3.362573e-03  -2.702410e-03  0 
 0  0  0 

 -7.305140e-04  -7.902578e-03  0 
 -7.902578e-03  -2.461610e-03  0 
 0  0  0 

TENSORS element_stresses FLOAT
 -4.816113e-04  9.113526e-04  0 
 9.113526e-04  -6.266286e-04  0 
 0  0  0 

 3.083569e-03  2.673212e-04  0 
 2.673212e-04  7.765065e-03  0 
 0  0  0 

 2.165734e-03  4.852490e-03  0 
 4.852490e-03  1.311257e-03  0 
 0  0  0 

 1.139373e-03  9.539550e-04  0 
 9.539550e-04  8.327787e-03  0 
 0  0  0 

 1.976041e-03  4.489974e-03  0 
 4.489974e-03  2.694093e-03  0 
 0  0  0 

 -4.822343e-04  1.574887e-03  0 
 1.574887e-03  2.085422e-03  0 
 0  0  0 

 1.359381e-01  -3.586520e-01  0 
 -3.586520e-01  -8.332434e-01  0 
 0  0  0 

 7.734311e-01  -7.948163e-01  0 
 -7.948163e-01  6.460553e-02  0 
 0  0  0 

 1.193815e-01  -6.448395e-01  0 
 -6.448395e-01  7.809830e-01  0 
 0  0  0 

 1.275712e-01  -4.829136e-01  0 
 -4.829136e-01  -1.721145e-01  0 
 0  0  0 

 -1.613163e-01  -2.850170e-01  0 
 -2.850170e-01  3.387459e-01  0 
 0  0  0 

 9.714467e-02  -1.032716e+00  0 
 -1.032716e+00  3.793599e-01  0 
 0  0  0 

 1.562591e-01  -4.140603e-01  0 
 -4.140603e-01  -4.011031e-01  0 
 0  0  0 

 2.626235e-01  -6.684436e-01  0 
 -6.684436e-01  7.403236e-01  0 
 0  0  0 

 7.895167e-01  -7.063328e-01  0 
 -7.063328e-01  -1.899185e-01  0 
 0  0  0 

 -9.746944e-02  -2.100981e-01  0 
 -2.100981e-01  3.633982e-02  0 
 0  0  0 

 2.740207e-01  -4.380855e-01  0 
 -4.380855e-01  -4.116808e-01  0 
 0  0  0 

 2.505122e-01  -9.528561e-01  0 
 -9.528561e-01  1.207578e-01  0 
 0  0  0 

 9.388595e-04  -9.917430e-03  0 
 -9.917430e-03  -5.923670e-04  0 
 0  0  0 

 -2.890985e-03  -2.023131e-03  0 
 -2.023131e-03  -1.055858e-02  0 
 0  0  0 

 -1.264951e-03  -9.023836e-03  0 
 -9.023836e-03  3.656833e-04  0 
 0  0  0 

 -1.594206e-03  -4.042754e-03  0 
 -4.042754e-03  -8.135662e-03  0 
 0  0  0 

 3.155973e-04  -4.700060e-03  0 
 -4.700060e-03  -8.472334e-03  0 
 0  0  0 

 5.483529e-04  -3.362573e-03  0 
 -3.362573e-03  -2.702410e-03  0 
 0  0  0 

 -7.305140e-04  -7.902578e-03  0 
 -7.902578e-03  -2.461610e-03  0 
 0  0  0 

