# vtk DataFile Version 3.1
this is an vtk file created by FEMAC
ASCII
DATASET UNSTRUCTURED_GRID
POINTS 23 FLOAT
2.000000 0.000000 0.000000
3.000000 0.000000 0.000000
3.000000 1.000000 0.000000
1.333333 0.000000 0.000000
1.666667 0.000000 0.000000
2.333333 0.000000 0.000000
2.666667 0.000000 0.000000
3.333333 0.000000 0.000000
2.000000 0.333333 0.000000
3.000000 0.333333 0.000000
3.000000 0.666667 0.000000
3.333333 1.000000 0.000000
1.769946 0.341745 0.000000
1.391228 0.312519 0.000000
2.463214 0.275245 0.000000
2.734498 0.257510 0.000000
2.207479 0.221713 0.000000
2.687618 0.527325 0.000000
2.770442 0.799727 0.000000
3.206402 0.775322 0.000000
3.249935 0.478822 0.000000
3.252241 0.209278 0.000000
3.524024 0.291353 0.000000
CELLS 25 100 
3 12  4  0
3 8 12  0
3 4 13  3
3 12 13  4
3 14  5  6
3 15  6  1
3 9 15  1
3 6 15 14
3 5 16  0
3 16  8  0
3 14 16  5
3 10 17  9
3 17 15  9
3 17 14 15
3 10 18 17
3 18 10  2
3 10 19  2
3 19 11  2
3 10 20 19
3 20 10  9
3 7 21  1
3 9 21 20
3 21  9  1
3 22 20 21
3 22 21  7
CELL_TYPES 25
5 5 5 5 5 5 5 5 5 5 5 5 5 5 5 5 5 5 5 5 5 5 5 5 5 
POINT_DATA 23
VECTORS displacement_ITER1 FLOAT
 -8.365665e-02  -6.489943e-02  0 
 -8.357526e-02  -2.316615e-01  0 
 8.149534e-02  -2.312543e-01  0 
 -7.426073e-02  2.057072e-02  0 
 -7.710480e-02  -2.417316e-02  0 
 -8.367060e-02  -1.205529e-01  0 
 -8.361734e-02  -1.761389e-01  0 
 -8.496365e-02  -2.903232e-01  0 
 -2.800361e-02  -6.484334e-02  0 
 -2.806478e-02  -2.316121e-01  0 
 2.720622e-02  -2.314111e-01  0 
 -2.300596e-02  -1.067373e-01  0 
 -2.866584e-02  -3.298616e-02  0 
 -3.013882e-02  1.535668e-02  0 
 -3.775713e-02  -1.422605e-01  0 
 -4.068981e-02  -1.874765e-01  0 
 -4.666218e-02  -9.951416e-02  0 
 4.169603e-03  -1.797729e-01  0 
 4.896637e-02  -1.937769e-01  0 
 5.086966e-02  -2.519100e-01  0 
 -4.036873e-03  -2.719273e-01  0 
 -4.908202e-02  -2.751666e-01  0 
 -3.617032e-02  -3.215528e-01  0 
VECTORS displacement_ITER2 FLOAT
 -3.426555e-02  -1.575800e-02  0 
 -3.429035e-02  -5.148018e-02  0 
 2.476723e-03  -5.158442e-02  0 
 -2.258157e-02  -1.795827e-02  0 
 -2.624449e-02  -1.952083e-02  0 
 -3.421767e-02  -2.776861e-02  0 
 -3.425494e-02  -3.959786e-02  0 
 -3.575206e-02  -6.673985e-02  0 
 -2.208684e-02  -1.559000e-02  0 
 -2.240327e-02  -5.148458e-02  0 
 -1.034004e-02  -5.160782e-02  0 
 4.589507e-03  -3.011235e-02  0 
 -2.391745e-02  -1.362919e-02  0 
 -2.041814e-02  -1.637743e-02  0 
 -2.443643e-02  -3.232636e-02  0 
 -2.509629e-02  -4.197583e-02  0 
 -2.625437e-02  -2.325279e-02  0 
 -1.544246e-02  -4.021869e-02  0 
 -5.291084e-03  -4.300216e-02  0 
 -3.863471e-03  -5.179498e-02  0 
 -1.686115e-02  -6.059723e-02  0 
 -2.697488e-02  -6.242999e-02  0 
 -2.409062e-02  -7.389304e-02  0 
VECTORS displacement_ITER3 FLOAT
 -1.260407e-02  3.508161e-03  0 
 -1.259840e-02  -8.699949e-03  0 
 -2.857243e-04  -8.600143e-03  0 
 -5.052398e-03  -1.108135e-02  0 
 -7.141626e-03  -5.747035e-03  0 
 -1.258298e-02  -6.345214e-04  0 
 -1.258568e-02  -4.664584e-03  0 
 -1.442908e-02  -1.709118e-02  0 
 -8.367386e-03  3.615196e-03  0 
 -8.564539e-03  -8.683109e-03  0 
 -4.498299e-03  -8.691366e-03  0 
 -1.313479e-03  -1.460971e-02  0 
 -1.032578e-02  1.877015e-04  0 
 -8.125102e-03  -8.230651e-03  0 
 -9.241993e-03  -2.194438e-03  0 
 -9.471487e-03  -5.468309e-03  0 
 -9.842228e-03  9.277250e-04  0 
 -6.206944e-03  -4.869147e-03  0 
 -2.807852e-03  -5.813492e-03  0 
 -3.381964e-03  -1.282329e-02  0 
 -6.381481e-03  -1.411279e-02  0 
 -1.029043e-02  -1.464842e-02  0 
 -9.160247e-03  -1.994508e-02  0 
VECTORS displacement_ITER4 FLOAT
 -7.124841e-03  1.220561e-04  0 
 -7.127753e-03  -8.699312e-03  0 
 1.570944e-03  -8.431249e-03  0 
 -2.262889e-03  -1.212404e-02  0 
 -2.972296e-03  -8.468764e-03  0 
 -7.117924e-03  -2.852006e-03  0 
 -7.123085e-03  -5.769072e-03  0 
 -9.353401e-03  -1.690818e-02  0 
 -4.100127e-03  1.878629e-04  0 
 -4.197742e-03  -8.686763e-03  0 
 -1.272628e-03  -8.650826e-03  0 
 -1.920856e-03  -7.927036e-03  0 
 -6.355315e-03  -3.888037e-03  0 
 -5.279412e-03  -1.200237e-02  0 
 -4.704774e-03  -3.979072e-03  0 
 -4.861045e-03  -6.360453e-03  0 
 -5.145674e-03  -1.726711e-03  0 
 -2.490805e-03  -5.944626e-03  0 
 -8.849629e-05  -6.653622e-03  0 
 -2.870792e-04  -1.130713e-02  0 
 -2.574017e-03  -1.345459e-02  0 
 -5.557795e-03  -1.431336e-02  0 
 -4.568144e-03  -2.010542e-02  0 
VECTORS displacement_ITER5 FLOAT
 -7.126266e-03  -3.120700e-03  0 
 -7.106283e-03  -8.373360e-03  0 
 -2.430561e-03  -7.952849e-03  0 
 -3.503324e-03  -8.407054e-03  0 
 -4.353900e-03  -9.869623e-03  0 
 -7.135472e-03  -4.853986e-03  0 
 -7.117201e-03  -6.618349e-03  0 
 -8.999325e-03  -1.632207e-02  0 
 -5.387291e-03  -3.098361e-03  0 
 -5.352126e-03  -8.354785e-03  0 
 -3.695517e-03  -8.221859e-03  0 
 -3.944197e-03  -5.695831e-03  0 
 -5.479546e-03  -5.975319e-03  0 
 -1.980168e-03  -7.558612e-03  0 
 -5.675955e-03  -5.561853e-03  0 
 -5.753491e-03  -6.988007e-03  0 
 -5.976706e-03  -4.191489e-03  0 
 -4.340165e-03  -6.771548e-03  0 
 -3.090839e-03  -7.191575e-03  0 
 -3.216205e-03  -9.647280e-03  0 
 -4.509363e-03  -1.234706e-02  0 
 -6.290031e-03  -1.353782e-02  0 
 -6.299835e-03  -1.717868e-02  0 
VECTORS displacement_ITER6 FLOAT
 -7.792692e-03  -2.964241e-03  0 
 -7.806259e-03  -8.369543e-03  0 
 -2.820115e-03  -7.985000e-03  0 
 -4.258837e-03  -7.880806e-03  0 
 -4.920914e-03  -9.814724e-03  0 
 -7.803932e-03  -4.730432e-03  0 
 -7.811023e-03  -6.537449e-03  0 
 -8.236645e-03  -1.461167e-02  0 
 -6.027086e-03  -2.946334e-03  0 
 -5.971858e-03  -8.368991e-03  0 
 -4.169096e-03  -8.281032e-03  0 
 -3.427206e-03  -7.524965e-03  0 
 -5.349674e-03  -6.188435e-03  0 
 -2.017738e-03  -7.406634e-03  0 
 -6.319311e-03  -5.428826e-03  0 
 -6.397507e-03  -6.920294e-03  0 
 -6.619884e-03  -4.057647e-03  0 
 -4.901871e-03  -6.684830e-03  0 
 -3.493135e-03  -7.140427e-03  0 
 -3.389748e-03  -1.030654e-02  0 
 -5.035543e-03  -1.235772e-02  0 
 -6.728675e-03  -1.299826e-02  0 
 -6.878687e-03  -1.446763e-02  0 
VECTORS displacement_ITER7 FLOAT
 -7.587170e-03  -2.909539e-03  0 
 -7.573528e-03  -8.143812e-03  0 
 -2.819522e-03  -7.716028e-03  0 
 -3.377618e-03  -8.321840e-03  0 
 -4.595837e-03  -9.288619e-03  0 
 -7.592731e-03  -4.634362e-03  0 
 -7.582589e-03  -6.386272e-03  0 
 -7.525729e-03  -1.369238e-02  0 
 -5.855694e-03  -2.878610e-03  0 
 -5.814798e-03  -8.135030e-03  0 
 -4.118422e-03  -8.018300e-03  0 
 -3.153289e-03  -7.850436e-03  0 
 -4.848267e-03  -5.829961e-03  0 
 -2.011013e-03  -6.966303e-03  0 
 -6.145536e-03  -5.328333e-03  0 
 -6.220752e-03  -6.755636e-03  0 
 -6.441491e-03  -3.979398e-03  0 
 -4.790898e-03  -6.532319e-03  0 
 -3.465804e-03  -6.920420e-03  0 
 -3.377708e-03  -1.015476e-02  0 
 -4.960086e-03  -1.208963e-02  0 
 -6.446191e-03  -1.257170e-02  0 
 -6.459223e-03  -1.381828e-02  0 
VECTORS displacement_ITER8 FLOAT
 -7.854852e-03  -2.986837e-03  0 
 -7.842573e-03  -8.394352e-03  0 
 -2.959688e-03  -7.959473e-03  0 
 -3.609355e-03  -8.315144e-03  0 
 -4.784824e-03  -9.594416e-03  0 
 -7.859476e-03  -4.776996e-03  0 
 -7.851833e-03  -6.582448e-03  0 
 -8.047019e-03  -1.446908e-02  0 
 -6.057194e-03  -2.952482e-03  0 
 -6.030365e-03  -8.384052e-03  0 
 -4.277868e-03  -8.275595e-03  0 
 -3.223155e-03  -8.117208e-03  0 
 -5.197287e-03  -6.035205e-03  0 
 -2.133589e-03  -7.243927e-03  0 
 -6.368446e-03  -5.488247e-03  0 
 -6.447698e-03  -6.963003e-03  0 
 -6.666411e-03  -4.097171e-03  0 
 -4.980230e-03  -6.735359e-03  0 
 -3.611424e-03  -7.155505e-03  0 
 -3.522188e-03  -1.032506e-02  0 
 -5.109310e-03  -1.246287e-02  0 
 -6.681636e-03  -1.307363e-02  0 
 -6.575902e-03  -1.501709e-02  0 
VECTORS displacement_ITER9 FLOAT
 -7.809935e-03  -3.181402e-03  0 
 -7.800674e-03  -8.544881e-03  0 
 -2.930135e-03  -8.123965e-03  0 
 -3.568233e-03  -8.374741e-03  0 
 -4.796428e-03  -9.582241e-03  0 
 -7.816676e-03  -4.953011e-03  0 
 -7.809476e-03  -6.746213e-03  0 
 -7.793303e-03  -1.435053e-02  0 
 -6.038094e-03  -3.152402e-03  0 
 -6.001994e-03  -8.535119e-03  0 
 -4.258550e-03  -8.432001e-03  0 
 -3.261676e-03  -8.125582e-03  0 
 -5.085908e-03  -6.146444e-03  0 
 -2.178352e-03  -7.203782e-03  0 
 -6.336737e-03  -5.659630e-03  0 
 -6.416036e-03  -7.123534e-03  0 
 -6.634932e-03  -4.279514e-03  0 
 -4.959391e-03  -6.896323e-03  0 
 -3.588553e-03  -7.306569e-03  0 
 -3.558796e-03  -1.042710e-02  0 
 -5.095072e-03  -1.263441e-02  0 
 -6.593157e-03  -1.314595e-02  0 
 -6.429683e-03  -1.490329e-02  0 
CELL_DATA 25
TENSORS element_stresses FLOAT
 -8.533396e-03  1.622124e-02  0 
 1.622124e-02  1.690419e-03  0 
 0  0  0 

 -4.306063e-03  1.410250e-02  0 
 1.410250e-02  -1.204817e-03  0 
 0  0  0 

 -2.592541e-03  1.159553e-03  0 
 1.159553e-03  3.640151e-03  0 
 0  0  0 

 -5.455809e-03  2.748059e-03  0 
 2.748059e-03  7.793122e-03  0 
 0  0  0 

 1.425826e-02  -9.987096e-03  0 
 -9.987096e-03  -2.447274e-02  0 
 0  0  0 

 1.454452e-02  6.345540e-03  0 
 6.345540e-03  -3.953398e-02  0 
 0  0  0 

 2.991696e-02  5.462746e-02  0 
 5.462746e-02  3.826031e-02  0 
 0  0  0 

 5.216060e-02  -2.863382e-03  0 
 -2.863382e-03  -2.745427e-02  0 
 0  0  0 

 -1.537680e-02  2.884019e-03  0 
 2.884019e-03  1.615308e-02  0 
 0  0  0 

 1.004273e-02  -5.390973e-02  0 
 -5.390973e-02  9.001513e-02  0 
 0  0  0 

 4.186306e-02  -2.790529e-02  0 
 -2.790529e-02  -1.040664e-02  0 
 0  0  0 

 3.622268e-03  1.356235e-01  0 
 1.356235e-01  3.104421e-01  0 
 0  0  0 

 -7.129570e-03  8.242938e-02  0 
 8.242938e-02  -7.993319e-02  0 
 0  0  0 

 3.554117e-02  5.238951e-03  0 
 5.238951e-03  -8.590930e-02  0 
 0  0  0 

 -5.874742e-03  9.434765e-02  0 
 9.434765e-02  -1.486310e-02  0 
 0  0  0 

 -3.641844e-01  -2.936185e-01  0 
 -2.936185e-01  8.148512e-01  0 
 0  0  0 

 1.724776e-03  -4.744103e-03  0 
 -4.744103e-03  1.441539e-03  0 
 0  0  0 

 2.284929e-03  1.445760e-03  0 
 1.445760e-03  1.093184e-02  0 
 0  0  0 

 2.519789e-03  -5.645188e-03  0 
 -5.645188e-03  6.348961e-03  0 
 0  0  0 

 7.437739e-04  -8.731662e-03  0 
 -8.731662e-03  5.324876e-04  0 
 0  0  0 

 -3.030442e-04  -8.979757e-03  0 
 -8.979757e-03  -1.083864e-03  0 
 0  0  0 

 1.006671e-03  -9.121695e-03  0 
 -9.121695e-03  2.050800e-03  0 
 0  0  0 

 3.505399e-04  -9.899261e-03  0 
 -9.899261e-03  1.344472e-04  0 
 0  0  0 

 -5.745325e-04  -1.132519e-03  0 
 -1.132519e-03  1.665384e-03  0 
 0  0  0 

 -1.526860e-04  -1.540092e-03  0 
 -1.540092e-03  2.864113e-03  0 
 0  0  0 

TENSORS element_stresses FLOAT
 -8.533396e-03  1.622124e-02  0 
 1.622124e-02  1.690419e-03  0 
 0  0  0 

 -4.306063e-03  1.410250e-02  0 
 1.410250e-02  -1.204817e-03  0 
 0  0  0 

 -2.592541e-03  1.159553e-03  0 
 1.159553e-03  3.640151e-03  0 
 0  0  0 

 -5.455809e-03  2.748059e-03  0 
 2.748059e-03  7.793122e-03  0 
 0  0  0 

 1.425826e-02  -9.987096e-03  0 
 -9.987096e-03  -2.447274e-02  0 
 0  0  0 

 1.454452e-02  6.345540e-03  0 
 6.345540e-03  -3.953398e-02  0 
 0  0  0 

 2.991696e-02  5.462746e-02  0 
 5.462746e-02  3.826031e-02  0 
 0  0  0 

 5.216060e-02  -2.863382e-03  0 
 -2.863382e-03  -2.745427e-02  0 
 0  0  0 

 -1.537680e-02  2.884019e-03  0 
 2.884019e-03  1.615308e-02  0 
 0  0  0 

 1.004273e-02  -5.390973e-02  0 
 -5.390973e-02  9.001513e-02  0 
 0  0  0 

 4.186306e-02  -2.790529e-02  0 
 -2.790529e-02  -1.040664e-02  0 
 0  0  0 

 3.622268e-03  1.356235e-01  0 
 1.356235e-01  3.104421e-01  0 
 0  0  0 

 -7.129570e-03  8.242938e-02  0 
 8.242938e-02  -7.993319e-02  0 
 0  0  0 

 3.554117e-02  5.238951e-03  0 
 5.238951e-03  -8.590930e-02  0 
 0  0  0 

 -5.874742e-03  9.434765e-02  0 
 9.434765e-02  -1.486310e-02  0 
 0  0  0 

 -3.641844e-01  -2.936185e-01  0 
 -2.936185e-01  8.148512e-01  0 
 0  0  0 

 1.724776e-03  -4.744103e-03  0 
 -4.744103e-03  1.441539e-03  0 
 0  0  0 

 2.284929e-03  1.445760e-03  0 
 1.445760e-03  1.093184e-02  0 
 0  0  0 

 2.519789e-03  -5.645188e-03  0 
 -5.645188e-03  6.348961e-03  0 
 0  0  0 

 7.437739e-04  -8.731662e-03  0 
 -8.731662e-03  5.324876e-04  0 
 0  0  0 

 -3.030442e-04  -8.979757e-03  0 
 -8.979757e-03  -1.083864e-03  0 
 0  0  0 

 1.006671e-03  -9.121695e-03  0 
 -9.121695e-03  2.050800e-03  0 
 0  0  0 

 3.505399e-04  -9.899261e-03  0 
 -9.899261e-03  1.344472e-04  0 
 0  0  0 

 -5.745325e-04  -1.132519e-03  0 
 -1.132519e-03  1.665384e-03  0 
 0  0  0 

 -1.526860e-04  -1.540092e-03  0 
 -1.540092e-03  2.864113e-03  0 
 0  0  0 

