# vtk DataFile Version 3.1
this is an vtk file created by FEMAC
ASCII
DATASET UNSTRUCTURED_GRID
POINTS 32 FLOAT
2.000000 6.000000 0.000000
3.000000 6.000000 0.000000
1.500000 6.000000 0.000000
1.750000 6.000000 0.000000
2.000000 5.250000 0.000000
2.000000 5.500000 0.000000
2.000000 5.750000 0.000000
2.250000 6.000000 0.000000
2.500000 6.000000 0.000000
2.750000 6.000000 0.000000
3.000000 5.750000 0.000000
1.500000 5.225000 0.000000
1.828194 5.341416 0.000000
1.808128 5.581646 0.000000
1.399662 5.398247 0.000000
1.630720 5.401594 0.000000
1.507893 5.661856 0.000000
1.761003 5.832250 0.000000
2.779567 5.382160 0.000000
2.630775 5.827766 0.000000
2.755439 5.624066 0.000000
2.824828 5.832129 0.000000
2.612481 5.213004 0.000000
2.512458 5.452138 0.000000
2.226064 5.411783 0.000000
2.371000 5.200321 0.000000
2.336993 5.654341 0.000000
2.536356 5.684027 0.000000
2.137611 5.638225 0.000000
2.396521 5.840189 0.000000
2.186854 5.813792 0.000000
2.169413 5.172421 0.000000
CELLS 43 172 
3 12  4  5
3 6 13  5
3 14 11 15
3 3 17  0
3 17  6  0
3 17 13  6
3 12  5 13
3 12 13 15
3 14 15 16
3 16 15 13
3 2 17  3
3 16 17  2
3 16 13 17
3 19  9  8
3 9 21  1
3 21 10  1
3 19 21  9
3 10 21 20
3 19 20 21
3 23 18 20
3 4 24  5
3 26 24 23
3 22 18 23
3 23 25 22
3 23 24 25
3 27 20 19
3 27 26 23
3 20 27 23
3 8 29 19
3 7 29  8
3 29 27 19
3 26 27 29
3 28  5 24
3 5 28  6
3 26 28 24
3 6 30  0
3 30  7  0
3 30  6 28
3 28 26 30
3 30 29  7
3 26 29 30
3 24 31 25
3 31 24  4
CELL_TYPES 43
5 5 5 5 5 5 5 5 5 5 5 5 5 5 5 5 5 5 5 5 5 5 5 5 5 5 5 5 5 5 5 5 5 5 5 5 5 5 5 5 5 5 5 
POINT_DATA 32
VECTORS displacement_ITER1 FLOAT
 8.902923e-02  -9.422145e-02  0 
 1.825805e-01  -2.201825e-01  0 
 8.895794e-02  -6.151409e-02  0 
 8.899454e-02  -7.786114e-02  0 
 4.012076e-02  -9.400908e-02  0 
 5.634611e-02  -9.412111e-02  0 
 7.266191e-02  -9.418418e-02  0 
 1.089744e-01  -1.303518e-01  0 
 1.288979e-01  -1.558306e-01  0 
 1.545188e-01  -1.834364e-01  0 
 1.419023e-01  -1.959605e-01  0 
 3.821370e-02  -6.142986e-02  0 
 4.599674e-02  -8.289522e-02  0 
 6.164551e-02  -8.162949e-02  0 
 4.961510e-02  -5.486686e-02  0 
 4.986643e-02  -7.003093e-02  0 
 6.688213e-02  -6.200637e-02  0 
 7.802481e-02  -7.855496e-02  0 
 1.073676e-01  -1.144707e-01  0 
 1.215364e-01  -1.526011e-01  0 
 1.095580e-01  -1.449120e-01  0 
 1.398990e-01  -1.750821e-01  0 
 1.032597e-01  -9.696892e-02  0 
 8.564622e-02  -1.159594e-01  0 
 6.369693e-02  -1.041504e-01  0 
 8.001855e-02  -9.005561e-02  0 
 8.308301e-02  -1.180670e-01  0 
 9.963885e-02  -1.329399e-01  0 
 7.122460e-02  -1.043363e-01  0 
 1.033978e-01  -1.333460e-01  0 
 8.538554e-02  -1.113730e-01  0 
 6.076639e-02  -8.150232e-02  0 
VECTORS displacement_ITER2 FLOAT
 4.073930e-02  -4.616607e-02  0 
 9.550901e-02  -8.844449e-02  0 
 4.068442e-02  -3.878595e-02  0 
 4.071296e-02  -4.247635e-02  0 
 2.997327e-02  -4.590258e-02  0 
 3.343167e-02  -4.604972e-02  0 
 3.704433e-02  -4.612594e-02  0 
 5.967315e-02  -7.099839e-02  0 
 7.381076e-02  -8.492842e-02  0 
 8.567104e-02  -9.235499e-02  0 
 1.062297e-01  -7.026810e-02  0 
 2.931883e-02  -3.883424e-02  0 
 3.116700e-02  -4.357934e-02  0 
 3.458228e-02  -4.332216e-02  0 
 3.191616e-02  -3.735926e-02  0 
 3.197723e-02  -4.077585e-02  0 
 3.576750e-02  -3.894585e-02  0 
 3.823986e-02  -4.262040e-02  0 
 5.758590e-02  -6.809674e-02  0 
 7.603294e-02  -8.008493e-02  0 
 7.699898e-02  -7.142884e-02  0 
 8.912503e-02  -8.479779e-02  0 
 4.723442e-02  -5.505548e-02  0 
 5.316184e-02  -5.285735e-02  0 
 3.907338e-02  -4.537192e-02  0 
 4.031552e-02  -4.173018e-02  0 
 4.962942e-02  -5.571971e-02  0 
 6.413206e-02  -6.709106e-02  0 
 3.997817e-02  -4.908444e-02  0 
 6.089895e-02  -7.016449e-02  0 
 4.543730e-02  -5.477070e-02  0 
 3.538412e-02  -3.975473e-02  0 
VECTORS displacement_ITER3 FLOAT
 3.066107e-02  -2.629091e-02  0 
 3.890646e-02  -1.810137e-02  0 
 3.068647e-02  -1.135353e-02  0 
 3.067219e-02  -1.883188e-02  0 
 8.693117e-03  -2.598779e-02  0 
 1.584226e-02  -2.618544e-02  0 
 2.320510e-02  -2.627475e-02  0 
 3.276892e-02  -3.563957e-02  0 
 3.363269e-02  -3.904076e-02  0 
 3.449620e-02  -3.432978e-02  0 
 4.156902e-02  -2.611601e-02  0 
 7.542216e-03  -1.149374e-02  0 
 1.121372e-02  -2.114804e-02  0 
 1.821476e-02  -2.059927e-02  0 
 1.279899e-02  -8.491452e-03  0 
 1.290874e-02  -1.540811e-02  0 
 2.062896e-02  -1.170178e-02  0 
 2.565695e-02  -1.917213e-02  0 
 3.396093e-02  -2.720262e-02  0 
 3.662170e-02  -3.601270e-02  0 
 4.066748e-02  -3.204789e-02  0 
 4.020464e-02  -2.933415e-02  0 
 2.398915e-02  -1.602116e-02  0 
 2.698720e-02  -2.567896e-02  0 
 1.653579e-02  -2.465457e-02  0 
 1.384344e-02  -1.699394e-02  0 
 2.655756e-02  -3.125783e-02  0 
 3.362661e-02  -3.337816e-02  0 
 2.159755e-02  -2.814297e-02  0 
 3.162384e-02  -3.664588e-02  0 
 2.695945e-02  -3.169148e-02  0 
 9.176006e-03  -2.268193e-02  0 
VECTORS displacement_ITER4 FLOAT
 8.569462e-03  -6.025928e-03  0 
 2.858363e-02  -5.658980e-03  0 
 8.575416e-03  -3.004919e-03  0 
 8.566343e-03  -4.502133e-03  0 
 4.282573e-03  -5.674679e-03  0 
 5.544333e-03  -5.911387e-03  0 
 7.024357e-03  -6.031840e-03  0 
 1.148086e-02  -9.825963e-03  0 
 1.445154e-02  -1.057939e-02  0 
 1.896329e-02  -9.211392e-03  0 
 1.895939e-02  -4.467601e-03  0 
 3.585206e-03  -2.893545e-03  0 
 4.634417e-03  -4.883144e-03  0 
 5.978818e-03  -4.860360e-03  0 
 4.796816e-03  -2.275162e-03  0 
 4.867070e-03  -3.799276e-03  0 
 6.495711e-03  -3.014936e-03  0 
 7.544029e-03  -4.566899e-03  0 
 1.030917e-02  -7.345448e-03  0 
 1.627296e-02  -7.353816e-03  0 
 1.598334e-02  -5.995118e-03  0 
 1.945187e-02  -4.408037e-03  0 
 6.366606e-03  -4.772038e-03  0 
 9.723062e-03  -4.722090e-03  0 
 6.637812e-03  -5.068765e-03  0 
 4.440962e-03  -5.108852e-03  0 
 1.000521e-02  -5.945649e-03  0 
 1.344320e-02  -6.418521e-03  0 
 7.596543e-03  -5.998461e-03  0 
 1.240450e-02  -8.470611e-03  0 
 9.008550e-03  -7.145274e-03  0 
 3.633194e-03  -7.121878e-03  0 
VECTORS displacement_ITER5 FLOAT
 3.051706e-03  -3.041660e-03  0 
 1.334689e-02  6.365914e-04  0 
 3.091123e-03  -1.901425e-03  0 
 3.065799e-03  -2.474380e-03  0 
 1.765036e-03  -2.688556e-03  0 
 2.002142e-03  -2.917171e-03  0 
 2.488066e-03  -3.027224e-03  0 
 4.431768e-03  -4.402046e-03  0 
 6.203738e-03  -4.508798e-03  0 
 8.835428e-03  -3.718859e-03  0 
 9.247938e-03  -2.431719e-03  0 
 1.391031e-03  -2.016229e-03  0 
 1.745522e-03  -2.604855e-03  0 
 2.120696e-03  -2.620148e-03  0 
 1.770121e-03  -1.795476e-03  0 
 1.775274e-03  -2.304704e-03  0 
 2.309901e-03  -1.989192e-03  0 
 2.673314e-03  -2.513831e-03  0 
 4.414112e-03  -1.784520e-03  0 
 7.573409e-03  -2.407743e-03  0 
 6.745836e-03  -1.227729e-03  0 
 9.855527e-03  -1.140344e-03  0 
 3.511686e-03  -1.488115e-03  0 
 4.322874e-03  -1.149622e-03  0 
 2.927835e-03  -2.192284e-03  0 
 3.097531e-03  -1.654371e-03  0 
 4.109834e-03  -2.194719e-03  0 
 5.728591e-03  -1.788001e-03  0 
 2.933785e-03  -2.778666e-03  0 
 5.177665e-03  -3.307471e-03  0 
 3.443738e-03  -3.203925e-03  0 
 2.535926e-03  -2.809947e-03  0 
VECTORS displacement_ITER6 FLOAT
 2.360698e-03  -2.256082e-03  0 
 6.688001e-03  -2.462822e-03  0 
 2.353004e-03  -1.632843e-03  0 
 2.356734e-03  -1.941412e-03  0 
 1.418869e-03  -2.216940e-03  0 
 1.728966e-03  -2.245891e-03  0 
 2.038604e-03  -2.259895e-03  0 
 3.282651e-03  -3.493785e-03  0 
 4.103709e-03  -3.929035e-03  0 
 5.107564e-03  -3.845601e-03  0 
 5.507434e-03  -3.203791e-03  0 
 1.393294e-03  -1.626509e-03  0 
 1.526973e-03  -2.025112e-03  0 
 1.823816e-03  -2.019171e-03  0 
 1.597546e-03  -1.515800e-03  0 
 1.593630e-03  -1.809642e-03  0 
 1.939905e-03  -1.638092e-03  0 
 2.147847e-03  -1.951630e-03  0 
 3.574926e-03  -2.625024e-03  0 
 4.536249e-03  -3.229932e-03  0 
 4.415936e-03  -2.684359e-03  0 
 5.477618e-03  -2.904465e-03  0 
 3.023747e-03  -2.262412e-03  0 
 3.168975e-03  -2.271096e-03  0 
 2.199361e-03  -2.070177e-03  0 
 2.283308e-03  -1.846195e-03  0 
 2.911065e-03  -2.540515e-03  0 
 3.757708e-03  -2.759117e-03  0 
 2.236109e-03  -2.370547e-03  0 
 3.489138e-03  -3.229008e-03  0 
 2.577673e-03  -2.695738e-03  0 
 1.835866e-03  -1.689374e-03  0 
VECTORS displacement_ITER7 FLOAT
 2.593226e-03  -2.543081e-03  0 
 5.063063e-03  -3.230831e-03  0 
 2.602750e-03  -1.785091e-03  0 
 2.596337e-03  -2.164109e-03  0 
 1.518232e-03  -2.440462e-03  0 
 1.854402e-03  -2.513761e-03  0 
 2.214716e-03  -2.539313e-03  0 
 3.084852e-03  -3.376139e-03  0 
 3.540818e-03  -3.723328e-03  0 
 4.133943e-03  -3.756945e-03  0 
 4.413426e-03  -3.288730e-03  0 
 1.492602e-03  -1.871420e-03  0 
 1.627691e-03  -2.270046e-03  0 
 1.964505e-03  -2.257677e-03  0 
 1.723621e-03  -1.708625e-03  0 
 1.713390e-03  -2.030429e-03  0 
 2.097676e-03  -1.829266e-03  0 
 2.339217e-03  -2.184073e-03  0 
 3.166084e-03  -2.851507e-03  0 
 3.731970e-03  -3.349867e-03  0 
 3.724640e-03  -2.964070e-03  0 
 4.290206e-03  -3.213205e-03  0 
 2.483504e-03  -2.482181e-03  0 
 2.816021e-03  -2.584951e-03  0 
 2.124394e-03  -2.451211e-03  0 
 2.100788e-03  -2.241833e-03  0 
 2.691737e-03  -2.830960e-03  0 
 3.255290e-03  -3.015782e-03  0 
 2.258184e-03  -2.660035e-03  0 
 3.121442e-03  -3.287036e-03  0 
 2.573931e-03  -2.896771e-03  0 
 1.796474e-03  -2.191755e-03  0 
VECTORS displacement_ITER8 FLOAT
 2.331441e-03  -2.216972e-03  0 
 4.817777e-03  -2.611357e-03  0 
 2.335295e-03  -1.545417e-03  0 
 2.332020e-03  -1.879272e-03  0 
 1.401443e-03  -2.089903e-03  0 
 1.660875e-03  -2.192912e-03  0 
 1.989042e-03  -2.218005e-03  0 
 2.781253e-03  -2.943664e-03  0 
 3.233057e-03  -3.214352e-03  0 
 3.845516e-03  -3.189059e-03  0 
 4.208171e-03  -2.579986e-03  0 
 1.311258e-03  -1.609496e-03  0 
 1.464725e-03  -1.982046e-03  0 
 1.761876e-03  -1.965321e-03  0 
 1.543119e-03  -1.460112e-03  0 
 1.536510e-03  -1.761929e-03  0 
 1.887121e-03  -1.571556e-03  0 
 2.104643e-03  -1.894830e-03  0 
 2.906673e-03  -2.250718e-03  0 
 3.464898e-03  -2.798133e-03  0 
 3.468169e-03  -2.386997e-03  0 
 4.032330e-03  -2.611281e-03  0 
 2.266585e-03  -1.930661e-03  0 
 2.572020e-03  -2.070485e-03  0 
 1.951852e-03  -2.078621e-03  0 
 1.954904e-03  -1.882730e-03  0 
 2.450189e-03  -2.374506e-03  0 
 3.002795e-03  -2.493155e-03  0 
 2.040221e-03  -2.298311e-03  0 
 2.850707e-03  -2.809359e-03  0 
 2.321442e-03  -2.504531e-03  0 
 1.648030e-03  -1.888536e-03  0 
VECTORS displacement_ITER9 FLOAT
 2.309177e-03  -2.207672e-03  0 
 4.761532e-03  -2.563121e-03  0 
 2.313724e-03  -1.554422e-03  0 
 2.309948e-03  -1.878984e-03  0 
 1.400834e-03  -2.080191e-03  0 
 1.656515e-03  -2.182743e-03  0 
 1.976153e-03  -2.208362e-03  0 
 2.745550e-03  -2.921283e-03  0 
 3.180124e-03  -3.169592e-03  0 
 3.784032e-03  -3.128153e-03  0 
 4.127369e-03  -2.530579e-03  0 
 1.314248e-03  -1.612845e-03  0 
 1.465707e-03  -1.978940e-03  0 
 1.754677e-03  -1.962076e-03  0 
 1.544138e-03  -1.470266e-03  0 
 1.537050e-03  -1.766053e-03  0 
 1.876277e-03  -1.579829e-03  0 
 2.088465e-03  -1.894336e-03  0 
 2.923548e-03  -2.215077e-03  0 
 3.413675e-03  -2.752900e-03  0 
 3.429972e-03  -2.337040e-03  0 
 3.968961e-03  -2.548890e-03  0 
 2.298716e-03  -2.000277e-03  0 
 2.587282e-03  -2.092794e-03  0 
 1.957620e-03  -2.073169e-03  0 
 1.962997e-03  -1.892645e-03  0 
 2.443891e-03  -2.376967e-03  0 
 2.975315e-03  -2.474228e-03  0 
 2.032437e-03  -2.293729e-03  0 
 2.817815e-03  -2.787306e-03  0 
 2.304681e-03  -2.498775e-03  0 
 1.683862e-03  -1.869823e-03  0 
VECTORS displacement_ITER10 FLOAT
 2.216707e-03  -2.109790e-03  0 
 4.704024e-03  -2.476698e-03  0 
 2.220683e-03  -1.497674e-03  0 
 2.217309e-03  -1.801789e-03  0 
 1.370754e-03  -1.982125e-03  0 
 1.605840e-03  -2.084942e-03  0 
 1.903998e-03  -2.110715e-03  0 
 2.687650e-03  -2.846014e-03  0 
 3.142195e-03  -3.112503e-03  0 
 3.745960e-03  -3.075312e-03  0 
 4.109681e-03  -2.475462e-03  0 
 1.284618e-03  -1.555862e-03  0 
 1.428163e-03  -1.895274e-03  0 
 1.696856e-03  -1.880917e-03  0 
 1.499421e-03  -1.422380e-03  0 
 1.492765e-03  -1.698682e-03  0 
 1.812585e-03  -1.523053e-03  0 
 2.009814e-03  -1.816075e-03  0 
 2.878936e-03  -2.133028e-03  0 
 3.381119e-03  -2.696594e-03  0 
 3.396860e-03  -2.291664e-03  0 
 3.941405e-03  -2.501800e-03  0 
 2.271742e-03  -1.875062e-03  0 
 2.533216e-03  -1.987284e-03  0 
 1.908998e-03  -1.981032e-03  0 
 1.946074e-03  -1.781066e-03  0 
 2.383875e-03  -2.277677e-03  0 
 2.931614e-03  -2.396741e-03  0 
 1.972305e-03  -2.193363e-03  0 
 2.767838e-03  -2.709398e-03  0 
 2.235535e-03  -2.398621e-03  0 
 1.661852e-03  -1.801649e-03  0 
VECTORS displacement_ITER11 FLOAT
 2.204941e-03  -2.096759e-03  0 
 4.705159e-03  -2.455969e-03  0 
 2.209117e-03  -1.486735e-03  0 
 2.205638e-03  -1.789885e-03  0 
 1.363703e-03  -1.968828e-03  0 
 1.596666e-03  -2.071844e-03  0 
 1.893538e-03  -2.097525e-03  0 
 2.673772e-03  -2.827676e-03  0 
 3.129277e-03  -3.089584e-03  0 
 3.738847e-03  -3.053104e-03  0 
 4.102403e-03  -2.453560e-03  0 
 1.278013e-03  -1.545485e-03  0 
 1.419943e-03  -1.883130e-03  0 
 1.687326e-03  -1.868722e-03  0 
 1.490878e-03  -1.413258e-03  0 
 1.484466e-03  -1.687620e-03  0 
 1.802529e-03  -1.512698e-03  0 
 1.998827e-03  -1.804217e-03  0 
 2.860428e-03  -2.113630e-03  0 
 3.369518e-03  -2.669958e-03  0 
 3.383240e-03  -2.257719e-03  0 
 3.934463e-03  -2.475110e-03  0 
 2.260295e-03  -1.874316e-03  0 
 2.524447e-03  -1.972423e-03  0 
 1.900125e-03  -1.965520e-03  0 
 1.930489e-03  -1.769180e-03  0 
 2.374674e-03  -2.260452e-03  0 
 2.919514e-03  -2.373296e-03  0 
 1.962734e-03  -2.178513e-03  0 
 2.755771e-03  -2.688085e-03  0 
 2.224843e-03  -2.383124e-03  0 
 1.645322e-03  -1.791765e-03  0 
VECTORS displacement_ITER12 FLOAT
 2.205743e-03  -2.097793e-03  0 
 4.702590e-03  -2.456233e-03  0 
 2.209876e-03  -1.487666e-03  0 
 2.206420e-03  -1.790852e-03  0 
 1.363456e-03  -1.970330e-03  0 
 1.597115e-03  -2.073084e-03  0 
 1.894289e-03  -2.098563e-03  0 
 2.674727e-03  -2.829178e-03  0 
 3.129658e-03  -3.091428e-03  0 
 3.737559e-03  -3.053380e-03  0 
 4.101067e-03  -2.454125e-03  0 
 1.278559e-03  -1.545355e-03  0 
 1.420140e-03  -1.884211e-03  0 
 1.687965e-03  -1.869607e-03  0 
 1.491205e-03  -1.413553e-03  0 
 1.484917e-03  -1.688193e-03  0 
 1.803105e-03  -1.513415e-03  0 
 1.999578e-03  -1.805166e-03  0 
 2.861317e-03  -2.113955e-03  0 
 3.370144e-03  -2.672291e-03  0 
 3.387633e-03  -2.259910e-03  0 
 3.933829e-03  -2.475639e-03  0 
 2.252233e-03  -1.869779e-03  0 
 2.523429e-03  -1.969561e-03  0 
 1.901230e-03  -1.968235e-03  0 
 1.932433e-03  -1.775109e-03  0 
 2.374360e-03  -2.260611e-03  0 
 2.921157e-03  -2.374916e-03  0 
 1.963203e-03  -2.180018e-03  0 
 2.756536e-03  -2.690046e-03  0 
 2.225162e-03  -2.384000e-03  0 
 1.643340e-03  -1.792783e-03  0 
VECTORS displacement_ITER13 FLOAT
 2.205475e-03  -2.097678e-03  0 
 4.702615e-03  -2.456608e-03  0 
 2.209607e-03  -1.487846e-03  0 
 2.206151e-03  -1.790882e-03  0 
 1.363699e-03  -1.970172e-03  0 
 1.597166e-03  -2.072926e-03  0 
 1.894154e-03  -2.098454e-03  0 
 2.674711e-03  -2.829178e-03  0 
 3.129717e-03  -3.091449e-03  0 
 3.737620e-03  -3.053253e-03  0 
 4.100976e-03  -2.454469e-03  0 
 1.278527e-03  -1.545734e-03  0 
 1.420312e-03  -1.884162e-03  0 
 1.687930e-03  -1.869619e-03  0 
 1.491332e-03  -1.413783e-03  0 
 1.484985e-03  -1.688327e-03  0 
 1.803039e-03  -1.513584e-03  0 
 1.999408e-03  -1.805189e-03  0 
 2.859081e-03  -2.115838e-03  0 
 3.370312e-03  -2.672243e-03  0 
 3.388585e-03  -2.259532e-03  0 
 3.933938e-03  -2.475475e-03  0 
 2.251388e-03  -1.872202e-03  0 
 2.523925e-03  -1.968599e-03  0 
 1.900764e-03  -1.967505e-03  0 
 1.932532e-03  -1.771359e-03  0 
 2.374448e-03  -2.260400e-03  0 
 2.921552e-03  -2.374701e-03  0 
 1.963139e-03  -2.179602e-03  0 
 2.756607e-03  -2.690025e-03  0 
 2.225096e-03  -2.383814e-03  0 
 1.643581e-03  -1.793882e-03  0 
VECTORS displacement_ITER14 FLOAT
 2.205466e-03  -2.097667e-03  0 
 4.702520e-03  -2.456589e-03  0 
 2.209603e-03  -1.487795e-03  0 
 2.206145e-03  -1.790853e-03  0 
 1.363654e-03  -1.970166e-03  0 
 1.597138e-03  -2.072906e-03  0 
 1.894131e-03  -2.098441e-03  0 
 2.674598e-03  -2.829011e-03  0 
 3.129616e-03  -3.091217e-03  0 
 3.737578e-03  -3.053120e-03  0 
 4.100909e-03  -2.454451e-03  0 
 1.278556e-03  -1.545719e-03  0 
 1.420282e-03  -1.884137e-03  0 
 1.687900e-03  -1.869597e-03  0 
 1.491295e-03  -1.413792e-03  0 
 1.484949e-03  -1.688299e-03  0 
 1.803011e-03  -1.513546e-03  0 
 1.999388e-03  -1.805164e-03  0 
 2.859159e-03  -2.115095e-03  0 
 3.370192e-03  -2.672002e-03  0 
 3.388294e-03  -2.259305e-03  0 
 3.933847e-03  -2.475394e-03  0 
 2.250756e-03  -1.872892e-03  0 
 2.523918e-03  -1.968484e-03  0 
 1.900893e-03  -1.967345e-03  0 
 1.932794e-03  -1.771631e-03  0 
 2.374408e-03  -2.260248e-03  0 
 2.921406e-03  -2.374466e-03  0 
 1.963106e-03  -2.179564e-03  0 
 2.756506e-03  -2.689803e-03  0 
 2.225048e-03  -2.383741e-03  0 
 1.644785e-03  -1.793212e-03  0 
CELL_DATA 43
TENSORS element_stresses FLOAT
 4.839890e-02  1.650274e-01  0 
 1.650274e-01  -3.964407e-01  0 
 0  0  0 

 2.016427e-03  6.530720e-02  0 
 6.530720e-02  -1.015331e-01  0 
 0  0  0 

 -2.531189e-02  9.893072e-03  0 
 9.893072e-03  6.522498e-02  0 
 0  0  0 

 -1.398072e-03  3.922625e-03  0 
 3.922625e-03  4.387981e-03  0 
 0  0  0 

 -1.198108e-02  1.483837e-02  0 
 1.483837e-02  -4.979082e-04  0 
 0  0  0 

 -5.578019e-03  1.768120e-02  0 
 1.768120e-02  2.651050e-02  0 
 0  0  0 

 -8.422625e-03  3.241335e-02  0 
 3.241335e-02  -3.154011e-02  0 
 0  0  0 

 6.001683e-03  8.949397e-02  0 
 8.949397e-02  -2.109329e-02  0 
 0  0  0 

 -1.303296e-02  8.675561e-03  0 
 8.675561e-03  1.061044e-01  0 
 0  0  0 

 -2.940081e-02  3.047496e-02  0 
 3.047496e-02  1.190810e-01  0 
 0  0  0 

 -1.329073e-02  1.491558e-02  0 
 1.491558e-02  1.805422e-03  0 
 0  0  0 

 -2.038057e-02  1.297386e-02  0 
 1.297386e-02  4.238769e-02  0 
 0  0  0 

 -4.756269e-02  4.344159e-02  0 
 4.344159e-02  2.164540e-02  0 
 0  0  0 

 1.908094e-03  4.631195e-04  0 
 4.631195e-04  -1.745844e-03  0 
 0  0  0 

 3.457588e-03  2.259572e-03  0 
 2.259572e-03  -1.340597e-03  0 
 0  0  0 

 2.285047e-03  1.939994e-03  0 
 1.939994e-03  6.769635e-04  0 
 0  0  0 

 2.212945e-03  9.261910e-04  0 
 9.261910e-04  -2.296315e-03  0 
 0  0  0 

 1.767113e-03  1.288272e-03  0 
 1.288272e-03  -4.024876e-04  0 
 0  0  0 

 2.693537e-03  2.084768e-03  0 
 2.084768e-03  -5.788019e-04  0 
 0  0  0 

 1.842495e-03  1.269702e-03  0 
 1.269702e-03  -1.156026e-04  0 
 0  0  0 

 1.741568e-03  9.542443e-04  0 
 9.542443e-04  1.115101e-04  0 
 0  0  0 

 1.807250e-03  9.237363e-04  0 
 9.237363e-04  -7.466167e-04  0 
 0  0  0 

 1.685261e-03  8.756909e-04  0 
 8.756909e-04  -2.011958e-04  0 
 0  0  0 

 1.165794e-03  9.745226e-04  0 
 9.745226e-04  -2.130351e-04  0 
 0  0  0 

 1.922261e-03  1.028804e-03  0 
 1.028804e-03  -2.698191e-04  0 
 0  0  0 

 2.106041e-03  1.096338e-03  0 
 1.096338e-03  -1.415406e-03  0 
 0  0  0 

 2.210823e-03  8.743039e-04  0 
 8.743039e-04  -1.054836e-03  0 
 0  0  0 

 2.200315e-03  1.152850e-03  0 
 1.152850e-03  -1.095324e-03  0 
 0  0  0 

 2.098553e-03  4.322040e-04  0 
 4.322040e-04  -1.846418e-03  0 
 0  0  0 

 1.395902e-03  8.258090e-05  0 
 8.258090e-05  -1.413911e-03  0 
 0  0  0 

 2.282422e-03  1.016582e-03  0 
 1.016582e-03  -1.363813e-03  0 
 0  0  0 

 2.076215e-03  7.660821e-04  0 
 7.660821e-04  -1.611521e-03  0 
 0  0  0 

 1.587531e-03  8.175779e-04  0 
 8.175779e-04  -4.142736e-04  0 
 0  0  0 

 1.577501e-03  3.965381e-04  0 
 3.965381e-04  3.711122e-04  0 
 0  0  0 

 1.823841e-03  5.604811e-04  0 
 5.604811e-04  -5.145849e-04  0 
 0  0  0 

 1.479958e-03  -2.173664e-04  0 
 -2.173664e-04  4.470838e-04  0 
 0  0  0 

 1.600835e-03  -8.826936e-04  0 
 -8.826936e-04  -9.189659e-04  0 
 0  0  0 

 1.265365e-03  -1.144837e-04  0 
 -1.144837e-04  -4.328982e-04  0 
 0  0  0 

 1.829894e-03  4.743791e-04  0 
 4.743791e-04  -5.248305e-04  0 
 0  0  0 

 1.907781e-03  3.181636e-04  0 
 3.181636e-04  -1.408466e-03  0 
 0  0  0 

 1.972746e-03  6.036796e-05  0 
 6.036796e-05  -1.329410e-03  0 
 0  0  0 

 1.198344e-03  7.472125e-04  0 
 7.472125e-04  -4.188188e-04  0 
 0  0  0 

 1.841114e-03  9.636965e-04  0 
 9.636965e-04  -3.270585e-04  0 
 0  0  0 

TENSORS element_stresses FLOAT
 4.839890e-02  1.650274e-01  0 
 1.650274e-01  -3.964407e-01  0 
 0  0  0 

 2.016427e-03  6.530720e-02  0 
 6.530720e-02  -1.015331e-01  0 
 0  0  0 

 -2.531189e-02  9.893072e-03  0 
 9.893072e-03  6.522498e-02  0 
 0  0  0 

 -1.398072e-03  3.922625e-03  0 
 3.922625e-03  4.387981e-03  0 
 0  0  0 

 -1.198108e-02  1.483837e-02  0 
 1.483837e-02  -4.979082e-04  0 
 0  0  0 

 -5.578019e-03  1.768120e-02  0 
 1.768120e-02  2.651050e-02  0 
 0  0  0 

 -8.422625e-03  3.241335e-02  0 
 3.241335e-02  -3.154011e-02  0 
 0  0  0 

 6.001683e-03  8.949397e-02  0 
 8.949397e-02  -2.109329e-02  0 
 0  0  0 

 -1.303296e-02  8.675561e-03  0 
 8.675561e-03  1.061044e-01  0 
 0  0  0 

 -2.940081e-02  3.047496e-02  0 
 3.047496e-02  1.190810e-01  0 
 0  0  0 

 -1.329073e-02  1.491558e-02  0 
 1.491558e-02  1.805422e-03  0 
 0  0  0 

 -2.038057e-02  1.297386e-02  0 
 1.297386e-02  4.238769e-02  0 
 0  0  0 

 -4.756269e-02  4.344159e-02  0 
 4.344159e-02  2.164540e-02  0 
 0  0  0 

 1.908094e-03  4.631195e-04  0 
 4.631195e-04  -1.745844e-03  0 
 0  0  0 

 3.457588e-03  2.259572e-03  0 
 2.259572e-03  -1.340597e-03  0 
 0  0  0 

 2.285047e-03  1.939994e-03  0 
 1.939994e-03  6.769635e-04  0 
 0  0  0 

 2.212945e-03  9.261910e-04  0 
 9.261910e-04  -2.296315e-03  0 
 0  0  0 

 1.767113e-03  1.288272e-03  0 
 1.288272e-03  -4.024876e-04  0 
 0  0  0 

 2.693537e-03  2.084768e-03  0 
 2.084768e-03  -5.788019e-04  0 
 0  0  0 

 1.842495e-03  1.269702e-03  0 
 1.269702e-03  -1.156026e-04  0 
 0  0  0 

 1.741568e-03  9.542443e-04  0 
 9.542443e-04  1.115101e-04  0 
 0  0  0 

 1.807250e-03  9.237363e-04  0 
 9.237363e-04  -7.466167e-04  0 
 0  0  0 

 1.685261e-03  8.756909e-04  0 
 8.756909e-04  -2.011958e-04  0 
 0  0  0 

 1.165794e-03  9.745226e-04  0 
 9.745226e-04  -2.130351e-04  0 
 0  0  0 

 1.922261e-03  1.028804e-03  0 
 1.028804e-03  -2.698191e-04  0 
 0  0  0 

 2.106041e-03  1.096338e-03  0 
 1.096338e-03  -1.415406e-03  0 
 0  0  0 

 2.210823e-03  8.743039e-04  0 
 8.743039e-04  -1.054836e-03  0 
 0  0  0 

 2.200315e-03  1.152850e-03  0 
 1.152850e-03  -1.095324e-03  0 
 0  0  0 

 2.098553e-03  4.322040e-04  0 
 4.322040e-04  -1.846418e-03  0 
 0  0  0 

 1.395902e-03  8.258090e-05  0 
 8.258090e-05  -1.413911e-03  0 
 0  0  0 

 2.282422e-03  1.016582e-03  0 
 1.016582e-03  -1.363813e-03  0 
 0  0  0 

 2.076215e-03  7.660821e-04  0 
 7.660821e-04  -1.611521e-03  0 
 0  0  0 

 1.587531e-03  8.175779e-04  0 
 8.175779e-04  -4.142736e-04  0 
 0  0  0 

 1.577501e-03  3.965381e-04  0 
 3.965381e-04  3.711122e-04  0 
 0  0  0 

 1.823841e-03  5.604811e-04  0 
 5.604811e-04  -5.145849e-04  0 
 0  0  0 

 1.479958e-03  -2.173664e-04  0 
 -2.173664e-04  4.470838e-04  0 
 0  0  0 

 1.600835e-03  -8.826936e-04  0 
 -8.826936e-04  -9.189659e-04  0 
 0  0  0 

 1.265365e-03  -1.144837e-04  0 
 -1.144837e-04  -4.328982e-04  0 
 0  0  0 

 1.829894e-03  4.743791e-04  0 
 4.743791e-04  -5.248305e-04  0 
 0  0  0 

 1.907781e-03  3.181636e-04  0 
 3.181636e-04  -1.408466e-03  0 
 0  0  0 

 1.972746e-03  6.036796e-05  0 
 6.036796e-05  -1.329410e-03  0 
 0  0  0 

 1.198344e-03  7.472125e-04  0 
 7.472125e-04  -4.188188e-04  0 
 0  0  0 

 1.841114e-03  9.636965e-04  0 
 9.636965e-04  -3.270585e-04  0 
 0  0  0 

