# vtk DataFile Version 3.1
this is an vtk file created by FEMAC
ASCII
DATASET UNSTRUCTURED_GRID
POINTS 31 FLOAT
2.000000 4.000000 0.000000
3.000000 4.000000 0.000000
1.500000 4.000000 0.000000
1.750000 4.000000 0.000000
2.000000 3.250000 0.000000
2.000000 3.500000 0.000000
2.000000 3.750000 0.000000
2.250000 4.000000 0.000000
2.500000 4.000000 0.000000
2.750000 4.000000 0.000000
1.805000 3.255000 0.000000
1.824607 3.643596 0.000000
1.681647 3.425464 0.000000
1.631588 3.748141 0.000000
1.841239 3.828347 0.000000
1.613228 4.205045 0.000000
1.837660 4.158674 0.000000
2.808904 3.785023 0.000000
2.769602 3.187596 0.000000
2.410643 3.818050 0.000000
2.626359 3.825025 0.000000
2.275508 3.443567 0.000000
2.567037 3.328363 0.000000
2.549450 3.615319 0.000000
2.182184 3.732871 0.000000
2.818560 3.488721 0.000000
2.354447 3.652452 0.000000
2.255000 4.195000 0.000000
2.661595 4.194695 0.000000
2.413341 4.323754 0.000000
2.845050 4.155217 0.000000
CELLS 42 168 
3 5 10  4
3 6 11  5
3 5 12 10
3 5 11 12
3 12 11 13
3 3 14  0
3 14  6  0
3 14 11  6
3 2 13  3
3 14  3 13
3 13 11 14
3 3 15  2
3 16  3  0
3 16 15  3
3 7 19  8
3 20  9  8
3 20 23 17
3 20 17  9
3 17  1  9
3 6 24  0
3 24  7  0
3 24 19  7
3 20  8 19
3 20 19 23
3 21 22 23
3 23 25 17
3 21  5  4
3 25 22 18
3 25 23 22
3 26 21 23
3 19 26 23
3 5 24  6
3 21 24  5
3 26 19 24
3 21 26 24
3 8 27  7
3 9 28  8
3 8 29 27
3 8 28 29
3 0  7 27
3 30  9  1
3 30 28  9
CELL_TYPES 42
5 5 5 5 5 5 5 5 5 5 5 5 5 5 5 5 5 5 5 5 5 5 5 5 5 5 5 5 5 5 5 5 5 5 5 5 5 5 5 5 5 5 
POINT_DATA 31
VECTORS displacement_ITER1 FLOAT
 2.405039e-02  -4.414117e-02  0 
 2.418029e-02  -1.515654e-01  0 
 2.398924e-02  -2.783797e-02  0 
 2.401367e-02  -3.596515e-02  0 
 -4.455262e-04  -4.410517e-02  0 
 7.712186e-03  -4.412192e-02  0 
 1.586658e-02  -4.413123e-02  0 
 2.409813e-02  -7.102722e-02  0 
 2.413898e-02  -9.789780e-02  0 
 2.416054e-02  -1.247229e-01  0 
 -2.861942e-04  -3.773141e-02  0 
 1.239457e-02  -3.839366e-02  0 
 5.269705e-03  -3.371303e-02  0 
 1.580673e-02  -3.208824e-02  0 
 1.842558e-02  -3.893253e-02  0 
 4.973777e-03  -3.088488e-02  0 
 1.251220e-02  -3.321323e-02  0 
 2.017368e-02  -1.235274e-01  0 
 4.584599e-02  -9.385451e-02  0 
 1.842214e-02  -8.816953e-02  0 
 1.901788e-02  -1.095536e-01  0 
 8.226102e-03  -7.302704e-02  0 
 2.255819e-02  -9.829548e-02  0 
 1.453273e-02  -1.009557e-01  0 
 1.567642e-02  -6.422283e-02  0 
 2.193224e-02  -1.079556e-01  0 
 1.425574e-02  -8.179501e-02  0 
 4.505739e-02  -7.160235e-02  0 
 4.503895e-02  -1.152536e-01  0 
 5.887657e-02  -8.860562e-02  0 
 4.081898e-02  -1.349391e-01  0 
VECTORS displacement_ITER2 FLOAT
 2.533528e-02  -3.489795e-02  0 
 2.541975e-02  -4.768580e-02  0 
 2.526672e-02  -2.452321e-02  0 
 2.529123e-02  -2.966063e-02  0 
 9.956604e-03  -3.471160e-02  0 
 1.506883e-02  -3.472072e-02  0 
 2.017472e-02  -3.477495e-02  0 
 2.535331e-02  -3.818256e-02  0 
 2.540040e-02  -4.136586e-02  0 
 2.541488e-02  -4.448326e-02  0 
 1.005206e-02  -3.070056e-02  0 
 1.798220e-02  -3.115217e-02  0 
 1.352696e-02  -2.819448e-02  0 
 2.010123e-02  -2.720478e-02  0 
 2.175747e-02  -3.152839e-02  0 
 1.091266e-02  -2.757728e-02  0 
 1.777475e-02  -2.882951e-02  0 
 2.197528e-02  -5.770075e-02  0 
 9.111975e-03  -9.054380e-02  0 
 2.504096e-02  -4.485607e-02  0 
 2.452088e-02  -4.944192e-02  0 
 1.732409e-02  -4.343371e-02  0 
 1.501180e-02  -6.532751e-02  0 
 2.299605e-02  -5.544885e-02  0 
 2.237456e-02  -4.042348e-02  0 
 1.649640e-02  -7.664811e-02  0 
 2.262243e-02  -4.593952e-02  0 
 2.784297e-02  -3.828832e-02  0 
 2.783573e-02  -4.338765e-02  0 
 2.942671e-02  -4.026841e-02  0 
 2.737130e-02  -4.568283e-02  0 
VECTORS displacement_ITER3 FLOAT
 6.741490e-03  -1.390300e-02  0 
 6.753302e-03  3.081121e-03  0 
 6.699723e-03  -3.911871e-03  0 
 6.717415e-03  -8.855619e-03  0 
 -8.077762e-03  -1.374747e-02  0 
 -3.079857e-03  -1.371000e-02  0 
 1.821386e-03  -1.374677e-02  0 
 6.715194e-03  -9.771252e-03  0 
 6.742615e-03  -5.500410e-03  0 
 6.750482e-03  -1.179250e-03  0 
 -7.959218e-03  -9.828077e-03  0 
 -2.807653e-04  -1.026843e-02  0 
 -4.568139e-03  -7.382923e-03  0 
 1.730509e-03  -6.497599e-03  0 
 3.321047e-03  -1.065308e-02  0 
 1.168896e-02  -5.714341e-04  0 
 1.007611e-02  -9.740191e-03  0 
 5.204512e-03  -1.417624e-02  0 
 3.633341e-03  -4.237809e-02  0 
 7.419057e-03  -1.254785e-02  0 
 7.274264e-03  -1.067507e-02  0 
 2.013817e-03  -1.607548e-02  0 
 4.894815e-03  -2.624745e-02  0 
 7.213766e-03  -1.923980e-02  0 
 4.792888e-03  -1.527847e-02  0 
 4.184048e-03  -3.110653e-02  0 
 6.046627e-03  -1.569791e-02  0 
 3.383869e-03  -9.709574e-03  0 
 3.378430e-03  -2.712417e-03  0 
 1.123051e-03  -6.974929e-03  0 
 4.098045e-03  4.411555e-04  0 
VECTORS displacement_ITER4 FLOAT
 5.380318e-03  -5.597235e-03  0 
 5.504897e-03  -5.078166e-03  0 
 5.266903e-03  -4.345160e-03  0 
 5.309305e-03  -4.891844e-03  0 
 3.744181e-03  -5.371716e-03  0 
 4.303709e-03  -5.318485e-03  0 
 4.793984e-03  -5.389164e-03  0 
 5.387641e-03  -5.568684e-03  0 
 5.437735e-03  -5.407665e-03  0 
 5.460073e-03  -5.189174e-03  0 
 3.780394e-03  -4.887410e-03  0 
 4.560406e-03  -4.977408e-03  0 
 4.146711e-03  -4.630791e-03  0 
 4.729383e-03  -4.596455e-03  0 
 4.920195e-03  -5.075017e-03  0 
 4.550058e-03  1.690949e-03  0 
 3.954807e-03  -1.533281e-03  0 
 2.242315e-03  -7.570338e-03  0 
 -3.727706e-03  -8.369973e-03  0 
 4.460814e-03  -5.240210e-03  0 
 3.920519e-03  -5.660709e-03  0 
 2.637976e-03  -6.036496e-03  0 
 -1.663588e-03  -7.532206e-03  0 
 2.237884e-03  -6.156720e-03  0 
 4.445218e-03  -5.058549e-03  0 
 -1.066564e-03  -1.016497e-02  0 
 3.368846e-03  -5.506541e-03  0 
 5.272164e-03  -5.616090e-03  0 
 5.272944e-03  -5.291523e-03  0 
 5.108625e-03  -5.465267e-03  0 
 5.377644e-03  -5.173596e-03  0 
VECTORS displacement_ITER5 FLOAT
 1.355332e-03  -8.541662e-04  0 
 1.541955e-03  -4.253286e-03  0 
 1.194056e-03  -6.528498e-05  0 
 1.247975e-03  -3.743394e-04  0 
 8.644098e-04  -3.883738e-04  0 
 8.375223e-04  -4.082500e-04  0 
 9.809699e-04  -5.877769e-04  0 
 1.387432e-03  -1.700311e-03  0 
 1.438810e-03  -2.478026e-03  0 
 1.467625e-03  -3.266192e-03  0 
 8.397646e-04  -3.682365e-04  0 
 8.547108e-04  -3.620377e-04  0 
 8.473919e-04  -3.471237e-04  0 
 8.965535e-04  -1.842240e-04  0 
 1.021782e-03  -4.499166e-04  0 
 -7.609147e-04  -1.594456e-03  0 
 2.537541e-04  -4.686779e-06  0 
 -9.905772e-04  -4.473875e-03  0 
 -1.020809e-03  -9.531284e-04  0 
 6.392891e-04  -1.761585e-03  0 
 2.209474e-04  -2.714010e-03  0 
 -2.125073e-04  -1.483822e-03  0 
 -2.097158e-03  -2.654892e-03  0 
 -8.152183e-04  -2.461079e-03  0 
 6.749494e-04  -8.730532e-04  0 
 -2.261711e-03  -4.375454e-03  0 
 -9.357963e-06  -1.541888e-03  0 
 2.002529e-03  -1.763402e-03  0 
 2.052249e-03  -3.023927e-03  0 
 2.342800e-03  -2.224270e-03  0 
 2.042236e-03  -3.678674e-03  0 
VECTORS displacement_ITER6 FLOAT
 1.229475e-03  -1.824528e-03  0 
 1.534776e-03  -2.405277e-03  0 
 1.054174e-03  -5.097319e-04  0 
 1.119264e-03  -1.077997e-03  0 
 -2.901140e-04  -1.414567e-03  0 
 9.106258e-05  -1.441311e-03  0 
 5.723564e-04  -1.583222e-03  0 
 1.305999e-03  -2.013689e-03  0 
 1.396858e-03  -2.127417e-03  0 
 1.455348e-03  -2.181771e-03  0 
 -3.030419e-04  -1.090726e-03  0 
 3.183024e-04  -1.146010e-03  0 
 -2.858769e-05  -8.823111e-04  0 
 4.936025e-04  -7.452897e-04  0 
 7.085534e-04  -1.251106e-03  0 
 1.772596e-03  -2.294624e-04  0 
 1.854607e-03  -1.577766e-03  0 
 1.521021e-03  -2.252162e-03  0 
 7.928795e-04  -1.482407e-03  0 
 1.116296e-03  -2.078206e-03  0 
 1.339525e-03  -2.202635e-03  0 
 2.871930e-04  -1.746888e-03  0 
 6.277259e-04  -1.658920e-03  0 
 9.451871e-04  -2.009209e-03  0 
 7.476468e-04  -1.847205e-03  0 
 1.122210e-03  -2.016331e-03  0 
 7.783264e-04  -1.934327e-03  0 
 1.412088e-03  -2.097054e-03  0 
 1.472723e-03  -2.215055e-03  0 
 1.419015e-03  -2.135144e-03  0 
 1.569542e-03  -2.302863e-03  0 
VECTORS displacement_ITER7 FLOAT
 7.518134e-04  -1.478884e-03  0 
 1.110122e-03  -3.183166e-03  0 
 5.630997e-04  -7.322034e-04  0 
 6.335463e-04  -1.015030e-03  0 
 5.026970e-05  -1.062173e-03  0 
 1.466599e-04  -1.100046e-03  0 
 3.613377e-04  -1.244624e-03  0 
 8.607695e-04  -1.982509e-03  0 
 9.676868e-04  -2.428896e-03  0 
 1.035482e-03  -2.731924e-03  0 
 3.257887e-05  -9.709408e-04  0 
 2.217285e-04  -9.978075e-04  0 
 1.095461e-04  -8.929215e-04  0 
 2.874667e-04  -8.100501e-04  0 
 4.152148e-04  -1.082224e-03  0 
 6.626555e-04  -9.286846e-04  0 
 9.682071e-04  -1.432491e-03  0 
 1.205185e-03  -2.521254e-03  0 
 2.377096e-04  -1.694675e-03  0 
 7.480074e-04  -2.050326e-03  0 
 9.818369e-04  -2.396469e-03  0 
 2.768742e-04  -1.238142e-03  0 
 3.963153e-04  -1.484113e-03  0 
 7.119901e-04  -1.883606e-03  0 
 4.451819e-04  -1.545711e-03  0 
 8.365474e-04  -2.055028e-03  0 
 5.407757e-04  -1.683379e-03  0 
 1.236584e-03  -2.087947e-03  0 
 1.253439e-03  -2.675562e-03  0 
 1.395078e-03  -2.309216e-03  0 
 1.276027e-03  -2.913617e-03  0 
VECTORS displacement_ITER8 FLOAT
 8.454818e-04  -1.269006e-03  0 
 1.287772e-03  -2.466591e-03  0 
 6.122926e-04  -5.946155e-04  0 
 7.016501e-04  -8.476024e-04  0 
 1.407812e-04  -9.315646e-04  0 
 2.557871e-04  -9.318129e-04  0 
 4.591655e-04  -1.054415e-03  0 
 9.569276e-04  -1.682556e-03  0 
 1.072036e-03  -2.023369e-03  0 
 1.157754e-03  -2.219642e-03  0 
 1.443883e-04  -8.093215e-04  0 
 3.321601e-04  -8.249456e-04  0 
 2.166732e-04  -7.189249e-04  0 
 3.945593e-04  -6.524331e-04  0 
 5.142874e-04  -8.939074e-04  0 
 6.291785e-04  -8.907332e-04  0 
 9.657405e-04  -1.177449e-03  0 
 1.098686e-03  -2.201238e-03  0 
 3.491519e-05  -2.242839e-03  0 
 8.478405e-04  -1.756094e-03  0 
 1.009941e-03  -2.027844e-03  0 
 3.995747e-04  -1.152257e-03  0 
 3.456740e-04  -1.696003e-03  0 
 7.478720e-04  -1.748079e-03  0 
 5.631492e-04  -1.340136e-03  0 
 6.520939e-04  -2.159077e-03  0 
 6.356970e-04  -1.490957e-03  0 
 1.250816e-03  -1.793226e-03  0 
 1.277723e-03  -2.202888e-03  0 
 1.377634e-03  -1.940566e-03  0 
 1.291739e-03  -2.346240e-03  0 
VECTORS displacement_ITER9 FLOAT
 8.495858e-04  -1.224954e-03  0 
 1.281304e-03  -2.432051e-03  0 
 5.924191e-04  -5.814144e-04  0 
 6.966435e-04  -8.080339e-04  0 
 1.384268e-04  -8.806216e-04  0 
 2.533011e-04  -8.952754e-04  0 
 4.665059e-04  -1.011020e-03  0 
 9.596696e-04  -1.630519e-03  0 
 1.072496e-03  -1.968905e-03  0 
 1.151483e-03  -2.179755e-03  0 
 1.408955e-04  -7.790807e-04  0 
 3.400063e-04  -7.828279e-04  0 
 2.162768e-04  -6.759195e-04  0 
 4.102276e-04  -6.088473e-04  0 
 5.225111e-04  -8.474371e-04  0 
 6.581813e-04  -7.441851e-04  0 
 9.571432e-04  -1.113585e-03  0 
 1.165581e-03  -2.189603e-03  0 
 1.658355e-04  -2.116114e-03  0 
 8.710574e-04  -1.729097e-03  0 
 1.047318e-03  -2.009301e-03  0 
 3.978076e-04  -1.141093e-03  0 
 4.308780e-04  -1.586296e-03  0 
 8.004092e-04  -1.728387e-03  0 
 5.832980e-04  -1.308811e-03  0 
 7.885269e-04  -2.131598e-03  0 
 6.632061e-04  -1.475402e-03  0 
 1.250300e-03  -1.738520e-03  0 
 1.286763e-03  -2.150070e-03  0 
 1.391173e-03  -1.899127e-03  0 
 1.294771e-03  -2.312921e-03  0 
VECTORS displacement_ITER10 FLOAT
 8.406078e-04  -1.163122e-03  0 
 1.274652e-03  -2.319073e-03  0 
 5.892302e-04  -5.192418e-04  0 
 6.876139e-04  -7.540224e-04  0 
 1.414791e-04  -8.207450e-04  0 
 2.576441e-04  -8.331844e-04  0 
 4.594188e-04  -9.516418e-04  0 
 9.517081e-04  -1.556025e-03  0 
 1.065468e-03  -1.886460e-03  0 
 1.147922e-03  -2.091300e-03  0 
 1.454945e-04  -7.181871e-04  0 
 3.362724e-04  -7.288540e-04  0 
 2.228162e-04  -6.289609e-04  0 
 4.009202e-04  -5.626663e-04  0 
 5.140511e-04  -7.925415e-04  0 
 7.358413e-04  -5.507605e-04  0 
 9.397724e-04  -9.385252e-04  0 
 9.590246e-04  -2.187761e-03  0 
 6.395574e-04  -1.628888e-03  0 
 8.152323e-04  -1.695171e-03  0 
 9.317108e-04  -1.971319e-03  0 
 2.815327e-04  -1.465403e-03  0 
 3.420290e-04  -1.822779e-03  0 
 5.943814e-04  -1.819337e-03  0 
 5.843262e-04  -1.285712e-03  0 
 5.562225e-04  -2.090241e-03  0 
 5.527482e-04  -1.564588e-03  0 
 1.234351e-03  -1.663622e-03  0 
 1.277817e-03  -2.066543e-03  0 
 1.377034e-03  -1.826553e-03  0 
 1.280712e-03  -2.213691e-03  0 
VECTORS displacement_ITER11 FLOAT
 8.437345e-04  -1.157820e-03  0 
 1.281306e-03  -2.299894e-03  0 
 5.909287e-04  -5.104801e-04  0 
 6.891914e-04  -7.489848e-04  0 
 1.385209e-04  -8.193195e-04  0 
 2.574476e-04  -8.299833e-04  0 
 4.608998e-04  -9.469313e-04  0 
 9.566385e-04  -1.542020e-03  0 
 1.071263e-03  -1.867047e-03  0 
 1.152920e-03  -2.068506e-03  0 
 1.442464e-04  -7.148765e-04  0 
 3.378298e-04  -7.238790e-04  0 
 2.220400e-04  -6.215001e-04  0 
 4.025350e-04  -5.589463e-04  0 
 5.158427e-04  -7.872032e-04  0 
 7.312858e-04  -6.605485e-04  0 
 9.572514e-04  -1.002334e-03  0 
 1.036159e-03  -2.100794e-03  0 
 2.714719e-04  -1.850984e-03  0 
 8.344705e-04  -1.641633e-03  0 
 9.778212e-04  -1.902769e-03  0 
 3.530404e-04  -1.201106e-03  0 
 4.466437e-04  -1.484218e-03  0 
 7.065057e-04  -1.668106e-03  0 
 5.754988e-04  -1.242387e-03  0 
 7.342743e-04  -1.964164e-03  0 
 6.099579e-04  -1.436557e-03  0 
 1.234752e-03  -1.649870e-03  0 
 1.280881e-03  -2.044088e-03  0 
 1.376035e-03  -1.813219e-03  0 
 1.287606e-03  -2.194167e-03  0 
VECTORS displacement_ITER12 FLOAT
 8.444118e-04  -1.157421e-03  0 
 1.282491e-03  -2.301173e-03  0 
 5.919038e-04  -5.095154e-04  0 
 6.899680e-04  -7.486804e-04  0 
 1.422592e-04  -8.163721e-04  0 
 2.588955e-04  -8.295843e-04  0 
 4.619688e-04  -9.465803e-04  0 
 9.575087e-04  -1.542229e-03  0 
 1.072314e-03  -1.868016e-03  0 
 1.154476e-03  -2.070154e-03  0 
 1.463289e-04  -7.149488e-04  0 
 3.391196e-04  -7.239565e-04  0 
 2.238358e-04  -6.223084e-04  0 
 4.039098e-04  -5.593161e-04  0 
 5.168391e-04  -7.870332e-04  0 
 7.456093e-04  -6.707749e-04  0 
 9.266146e-04  -9.576052e-04  0 
 1.043455e-03  -2.102160e-03  0 
 3.124071e-04  -1.770018e-03  0 
 8.371666e-04  -1.642497e-03  0 
 9.813012e-04  -1.906984e-03  0 
 3.650724e-04  -1.205552e-03  0 
 3.646271e-04  -1.568462e-03  0 
 7.042017e-04  -1.675369e-03  0 
 5.773352e-04  -1.245142e-03  0 
 6.714989e-04  -2.033948e-03  0 
 6.125957e-04  -1.438328e-03  0 
 1.236169e-03  -1.650206e-03  0 
 1.282578e-03  -2.046042e-03  0 
 1.377450e-03  -1.813753e-03  0 
 1.288385e-03  -2.194735e-03  0 
VECTORS displacement_ITER13 FLOAT
 8.439312e-04  -1.157339e-03  0 
 1.281630e-03  -2.302161e-03  0 
 5.915264e-04  -5.099691e-04  0 
 6.894916e-04  -7.489967e-04  0 
 1.423986e-04  -8.167474e-04  0 
 2.592628e-04  -8.295822e-04  0 
 4.619379e-04  -9.464364e-04  0 
 9.568261e-04  -1.542320e-03  0 
 1.071533e-03  -1.867984e-03  0 
 1.153817e-03  -2.070253e-03  0 
 1.466907e-04  -7.150856e-04  0 
 3.393008e-04  -7.240986e-04  0 
 2.242728e-04  -6.223903e-04  0 
 4.037837e-04  -5.599444e-04  0 
 5.166195e-04  -7.872140e-04  0 
 7.359233e-04  -6.727478e-04  0 
 9.287282e-04  -9.594267e-04  0 
 1.049818e-03  -2.096552e-03  0 
 2.983502e-04  -1.796854e-03  0 
 8.399518e-04  -1.645239e-03  0 
 9.845071e-04  -1.906886e-03  0 
 3.643702e-04  -1.199595e-03  0 
 3.847646e-04  -1.549508e-03  0 
 7.170379e-04  -1.677803e-03  0 
 5.791002e-04  -1.245374e-03  0 
 7.099117e-04  -2.017971e-03  0 
 6.183020e-04  -1.439679e-03  0 
 1.235392e-03  -1.650237e-03  0 
 1.281999e-03  -2.046297e-03  0 
 1.376868e-03  -1.813611e-03  0 
 1.288044e-03  -2.194988e-03  0 
VECTORS displacement_ITER14 FLOAT
 8.439446e-04  -1.157333e-03  0 
 1.281650e-03  -2.302168e-03  0 
 5.915528e-04  -5.099233e-04  0 
 6.895094e-04  -7.489732e-04  0 
 1.424220e-04  -8.167550e-04  0 
 2.592763e-04  -8.295539e-04  0 
 4.619449e-04  -9.464197e-04  0 
 9.568472e-04  -1.542296e-03  0 
 1.071561e-03  -1.867960e-03  0 
 1.153827e-03  -2.070256e-03  0 
 1.467403e-04  -7.150801e-04  0 
 3.393064e-04  -7.240800e-04  0 
 2.242908e-04  -6.223830e-04  0 
 4.037883e-04  -5.599237e-04  0 
 5.166260e-04  -7.871981e-04  0 
 7.362182e-04  -6.724928e-04  0 
 9.305468e-04  -9.609227e-04  0 
 1.050438e-03  -2.098762e-03  0 
 3.034760e-04  -1.794322e-03  0 
 8.398873e-04  -1.644601e-03  0 
 9.849760e-04  -1.907363e-03  0 
 3.638470e-04  -1.198769e-03  0 
 3.809008e-04  -1.551713e-03  0 
 7.153119e-04  -1.677002e-03  0 
 5.787548e-04  -1.244766e-03  0 
 7.050327e-04  -2.018994e-03  0 
 6.174711e-04  -1.438737e-03  0 
 1.235407e-03  -1.650215e-03  0 
 1.282030e-03  -2.046270e-03  0 
 1.376876e-03  -1.813622e-03  0 
 1.288060e-03  -2.195001e-03  0 
CELL_DATA 42
TENSORS element_stresses FLOAT
 -2.804255e-02  -4.254222e-02  0 
 -4.254222e-02  -5.960840e-02  0 
 0  0  0 

 7.382530e-02  -1.333874e-01  0 
 -1.333874e-01  -4.453156e-01  0 
 0  0  0 

 2.372419e-02  -1.602472e-01  0 
 -1.602472e-01  6.944228e-02  0 
 0  0  0 

 -3.306378e-02  -7.846506e-02  0 
 -7.846506e-02  -5.683958e-02  0 
 0  0  0 

 -1.714030e-02  -2.025383e-01  0 
 -2.025383e-01  6.213968e-02  0 
 0  0  0 

 4.660201e-01  -2.291679e-01  0 
 -2.291679e-01  -5.057348e-01  0 
 0  0  0 

 1.720187e-01  8.366083e-02  0 
 8.366083e-02  -7.920476e-01  0 
 0  0  0 

 5.661921e-02  -1.330994e-01  0 
 -1.330994e-01  -2.236776e-01  0 
 0  0  0 

 3.313286e-01  -4.591442e-03  0 
 -4.591442e-03  -2.016602e-01  0 
 0  0  0 

 4.277745e-02  7.926290e-02  0 
 7.926290e-02  -2.809534e-01  0 
 0  0  0 

 1.113274e-01  -3.348838e-02  0 
 -3.348838e-02  -2.193554e-01  0 
 0  0  0 

 3.432736e-04  -3.592616e-04  0 
 -3.592616e-04  -1.618434e-04  0 
 0  0  0 

 5.359702e-04  -3.504883e-04  0 
 -3.504883e-04  -2.725677e-04  0 
 0  0  0 

 9.784313e-04  -3.593097e-04  0 
 -3.593097e-04  -2.681290e-04  0 
 0  0  0 

 3.104430e-04  -1.959416e-04  0 
 -1.959416e-04  -4.947087e-04  0 
 0  0  0 

 2.432012e-04  -5.900275e-05  0 
 -5.900275e-05  -2.862062e-04  0 
 0  0  0 

 4.335221e-04  -9.600071e-05  0 
 -9.600071e-05  -5.307925e-04  0 
 0  0  0 

 4.882033e-04  -3.602924e-04  0 
 -3.602924e-04  -1.811262e-05  0 
 0  0  0 

 5.217802e-04  -2.358635e-04  0 
 -2.358635e-04  3.495671e-05  0 
 0  0  0 

 5.843164e-04  -1.453291e-04  0 
 -1.453291e-04  -6.683583e-04  0 
 0  0  0 

 2.579610e-04  -1.839297e-04  0 
 -1.839297e-04  -6.454987e-04  0 
 0  0  0 

 5.030592e-04  -1.781315e-04  0 
 -1.781315e-04  -5.885786e-04  0 
 0  0  0 

 4.942273e-04  -1.840211e-04  0 
 -1.840211e-04  -4.912604e-04  0 
 0  0  0 

 4.842910e-04  -1.115753e-04  0 
 -1.115753e-04  -5.142994e-04  0 
 0  0  0 

 4.119299e-04  -1.688925e-04  0 
 -1.688925e-04  -3.999133e-04  0 
 0  0  0 

 4.653813e-04  -1.820171e-04  0 
 -1.820171e-04  -1.758509e-04  0 
 0  0  0 

 5.054274e-04  -6.793786e-04  0 
 -6.793786e-04  1.004326e-04  0 
 0  0  0 

 3.742598e-04  -2.215193e-04  0 
 -2.215193e-04  -3.831313e-04  0 
 0  0  0 

 4.024598e-04  -2.480668e-04  0 
 -2.480668e-04  -4.090372e-04  0 
 0  0  0 

 5.400655e-04  -2.985414e-04  0 
 -2.985414e-04  -4.789206e-04  0 
 0  0  0 

 5.253273e-04  -2.064523e-04  0 
 -2.064523e-04  -6.206297e-04  0 
 0  0  0 

 6.342230e-04  -6.699102e-04  0 
 -6.699102e-04  -2.771963e-04  0 
 0  0  0 

 4.169180e-04  -4.179294e-04  0 
 -4.179294e-04  -5.080484e-04  0 
 0  0  0 

 5.629690e-04  -2.918689e-04  0 
 -2.918689e-04  -5.743921e-04  0 
 0  0  0 

 5.367393e-04  -3.485685e-04  0 
 -3.485685e-04  -4.537897e-04  0 
 0  0  0 

 3.327981e-01  8.776167e-02  0 
 8.776167e-02  -4.201918e-01  0 
 0  0  0 

 2.810936e-01  -9.879194e-04  0 
 -9.879194e-04  -1.598983e-01  0 
 0  0  0 

 8.491701e-02  8.670567e-03  0 
 8.670567e-03  -6.354347e-02  0 
 0  0  0 

 1.063404e-01  -8.132295e-03  0 
 -8.132295e-03  -6.451928e-02  0 
 0  0  0 

 3.268416e-01  -9.455319e-02  0 
 -9.455319e-02  -4.158968e-01  0 
 0  0  0 

 4.841838e-01  -2.891827e-01  0 
 -2.891827e-01  -9.036442e-02  0 
 0  0  0 

 1.231199e-01  -9.446561e-02  0 
 -9.446561e-02  -2.345138e-01  0 
 0  0  0 

TENSORS element_stresses FLOAT
 -2.804255e-02  -4.254222e-02  0 
 -4.254222e-02  -5.960840e-02  0 
 0  0  0 

 7.382530e-02  -1.333874e-01  0 
 -1.333874e-01  -4.453156e-01  0 
 0  0  0 

 2.372419e-02  -1.602472e-01  0 
 -1.602472e-01  6.944228e-02  0 
 0  0  0 

 -3.306378e-02  -7.846506e-02  0 
 -7.846506e-02  -5.683958e-02  0 
 0  0  0 

 -1.714030e-02  -2.025383e-01  0 
 -2.025383e-01  6.213968e-02  0 
 0  0  0 

 4.660201e-01  -2.291679e-01  0 
 -2.291679e-01  -5.057348e-01  0 
 0  0  0 

 1.720187e-01  8.366083e-02  0 
 8.366083e-02  -7.920476e-01  0 
 0  0  0 

 5.661921e-02  -1.330994e-01  0 
 -1.330994e-01  -2.236776e-01  0 
 0  0  0 

 3.313286e-01  -4.591442e-03  0 
 -4.591442e-03  -2.016602e-01  0 
 0  0  0 

 4.277745e-02  7.926290e-02  0 
 7.926290e-02  -2.809534e-01  0 
 0  0  0 

 1.113274e-01  -3.348838e-02  0 
 -3.348838e-02  -2.193554e-01  0 
 0  0  0 

 3.432736e-04  -3.592616e-04  0 
 -3.592616e-04  -1.618434e-04  0 
 0  0  0 

 5.359702e-04  -3.504883e-04  0 
 -3.504883e-04  -2.725677e-04  0 
 0  0  0 

 9.784313e-04  -3.593097e-04  0 
 -3.593097e-04  -2.681290e-04  0 
 0  0  0 

 3.104430e-04  -1.959416e-04  0 
 -1.959416e-04  -4.947087e-04  0 
 0  0  0 

 2.432012e-04  -5.900275e-05  0 
 -5.900275e-05  -2.862062e-04  0 
 0  0  0 

 4.335221e-04  -9.600071e-05  0 
 -9.600071e-05  -5.307925e-04  0 
 0  0  0 

 4.882033e-04  -3.602924e-04  0 
 -3.602924e-04  -1.811262e-05  0 
 0  0  0 

 5.217802e-04  -2.358635e-04  0 
 -2.358635e-04  3.495671e-05  0 
 0  0  0 

 5.843164e-04  -1.453291e-04  0 
 -1.453291e-04  -6.683583e-04  0 
 0  0  0 

 2.579610e-04  -1.839297e-04  0 
 -1.839297e-04  -6.454987e-04  0 
 0  0  0 

 5.030592e-04  -1.781315e-04  0 
 -1.781315e-04  -5.885786e-04  0 
 0  0  0 

 4.942273e-04  -1.840211e-04  0 
 -1.840211e-04  -4.912604e-04  0 
 0  0  0 

 4.842910e-04  -1.115753e-04  0 
 -1.115753e-04  -5.142994e-04  0 
 0  0  0 

 4.119299e-04  -1.688925e-04  0 
 -1.688925e-04  -3.999133e-04  0 
 0  0  0 

 4.653813e-04  -1.820171e-04  0 
 -1.820171e-04  -1.758509e-04  0 
 0  0  0 

 5.054274e-04  -6.793786e-04  0 
 -6.793786e-04  1.004326e-04  0 
 0  0  0 

 3.742598e-04  -2.215193e-04  0 
 -2.215193e-04  -3.831313e-04  0 
 0  0  0 

 4.024598e-04  -2.480668e-04  0 
 -2.480668e-04  -4.090372e-04  0 
 0  0  0 

 5.400655e-04  -2.985414e-04  0 
 -2.985414e-04  -4.789206e-04  0 
 0  0  0 

 5.253273e-04  -2.064523e-04  0 
 -2.064523e-04  -6.206297e-04  0 
 0  0  0 

 6.342230e-04  -6.699102e-04  0 
 -6.699102e-04  -2.771963e-04  0 
 0  0  0 

 4.169180e-04  -4.179294e-04  0 
 -4.179294e-04  -5.080484e-04  0 
 0  0  0 

 5.629690e-04  -2.918689e-04  0 
 -2.918689e-04  -5.743921e-04  0 
 0  0  0 

 5.367393e-04  -3.485685e-04  0 
 -3.485685e-04  -4.537897e-04  0 
 0  0  0 

 3.327981e-01  8.776167e-02  0 
 8.776167e-02  -4.201918e-01  0 
 0  0  0 

 2.810936e-01  -9.879194e-04  0 
 -9.879194e-04  -1.598983e-01  0 
 0  0  0 

 8.491701e-02  8.670567e-03  0 
 8.670567e-03  -6.354347e-02  0 
 0  0  0 

 1.063404e-01  -8.132295e-03  0 
 -8.132295e-03  -6.451928e-02  0 
 0  0  0 

 3.268416e-01  -9.455319e-02  0 
 -9.455319e-02  -4.158968e-01  0 
 0  0  0 

 4.841838e-01  -2.891827e-01  0 
 -2.891827e-01  -9.036442e-02  0 
 0  0  0 

 1.231199e-01  -9.446561e-02  0 
 -9.446561e-02  -2.345138e-01  0 
 0  0  0 

