# vtk DataFile Version 3.1
this is an vtk file created by FEMAC
ASCII
DATASET UNSTRUCTURED_GRID
POINTS 32 FLOAT
1.000000 1.000000 0.000000
1.000000 2.000000 0.000000
2.000000 2.000000 0.000000
1.000000 0.750000 0.000000
1.000000 1.250000 0.000000
1.000000 1.500000 0.000000
1.000000 1.750000 0.000000
1.250000 1.000000 0.000000
1.500000 1.000000 0.000000
1.750000 1.000000 0.000000
1.500000 2.000000 0.000000
1.750000 2.000000 0.000000
2.000000 1.500000 0.000000
2.000000 1.750000 0.000000
1.638134 0.825570 0.000000
1.371728 0.825957 0.000000
1.167285 0.847252 0.000000
1.500000 1.500000 0.000000
1.805000 1.745000 0.000000
1.745000 1.195000 0.000000
1.255000 1.805000 0.000000
1.195000 1.255000 0.000000
1.799000 1.384000 0.000000
1.616000 1.799000 0.000000
1.384000 1.201000 0.000000
1.201000 1.616000 0.000000
1.325714 1.438857 0.000000
1.433602 1.681622 0.000000
1.555888 1.333051 0.000000
1.672784 1.563239 0.000000
1.745000 2.195000 0.000000
2.153954 1.850472 0.000000
CELLS 43 172 
3 8 15 14
3 7 15  8
3 14  9  8
3 3 16  0
3 16  7  0
3 16 15  7
3 18 12 13
3 19  8  9
3 21  5  4
3 24  7  8
3 25  6  5
3 23 11 10
3 22 28 19
3 23 29 18
3 24 26 21
3 25 27 20
3 24 21  7
3 23 18 11
3 25 20  6
3 26  5 21
3 25  5 26
3 17 27 26
3 25 26 27
3 28  8 19
3 24  8 28
3 17 26 28
3 24 28 26
3 27 10 20
3 23 10 27
3 17 29 27
3 23 27 29
3 29 12 18
3 22 12 29
3 17 28 29
3 22 29 28
3 0 21  4
3 0  7 21
3 18  2 11
3 13  2 18
3 20  1  6
3 30 10 11
3 2 30 11
3 13 31  2
CELL_TYPES 43
5 5 5 5 5 5 5 5 5 5 5 5 5 5 5 5 5 5 5 5 5 5 5 5 5 5 5 5 5 5 5 5 5 5 5 5 5 5 5 5 5 5 5 
POINT_DATA 32
VECTORS displacement_ITER1 FLOAT
 -4.944582e-02  1.021926e-02  0 
 -2.292790e-02  1.027481e-02  0 
 -2.300420e-02  -1.634284e-02  0 
 -4.225157e-03  4.412833e-03  0 
 -4.285695e-02  1.021091e-02  0 
 -3.624597e-02  1.021991e-02  0 
 -2.960648e-02  1.024431e-02  0 
 -4.946975e-02  3.588760e-03  0 
 -4.950227e-02  -3.057956e-03  0 
 -4.954192e-02  -9.743228e-03  0 
 -2.300367e-02  -3.074564e-03  0 
 -2.300764e-02  -9.712144e-03  0 
 -3.625720e-02  -1.634956e-02  0 
 -2.963514e-02  -1.635159e-02  0 
 -5.817833e-02  -1.246501e-02  0 
 -4.767176e-02  -1.194116e-04  0 
 -3.714035e-02  1.093333e-02  0 
 -3.624641e-02  -3.059638e-03  0 
 -2.976051e-02  -1.116633e-02  0 
 -4.433719e-02  -9.572712e-03  0 
 -2.815745e-02  3.445763e-03  0 
 -4.273015e-02  5.051196e-03  0 
 -3.932667e-02  -1.100613e-02  0 
 -2.832800e-02  -6.149511e-03  0 
 -4.416419e-02  3.619757e-05  0 
 -3.317497e-02  4.882502e-03  0 
 -3.786603e-02  1.576282e-03  0 
 -3.143424e-02  -1.302763e-03  0 
 -4.066934e-02  -4.539588e-03  0 
 -3.457284e-02  -7.651702e-03  0 
 -4.033444e-02  -1.668475e-02  0 
 -3.367407e-02  -4.861566e-02  0 
VECTORS displacement_ITER2 FLOAT
 -4.140267e-02  1.924793e-03  0 
 -4.740399e-04  2.009026e-03  0 
 -5.909176e-04  -3.903887e-02  0 
 3.151976e-02  -3.074229e-02  0 
 -3.122452e-02  1.929109e-03  0 
 -2.101224e-02  1.944361e-03  0 
 -1.075778e-02  1.973928e-03  0 
 -4.145421e-02  -8.302844e-03  0 
 -4.153446e-02  -1.856901e-02  0 
 -4.166865e-02  -2.899737e-02  0 
 -5.292507e-04  -1.859931e-02  0 
 -5.630383e-04  -2.881974e-02  0 
 -2.100027e-02  -3.909361e-02  0 
 -1.078371e-02  -3.906109e-02  0 
 -3.956091e-02  -1.565732e-02  0 
 -3.574940e-02  -1.055155e-02  0 
 -2.388833e-02  5.806773e-04  0 
 -2.099943e-02  -1.856765e-02  0 
 -1.097255e-02  -3.108852e-02  0 
 -3.353492e-02  -2.865078e-02  0 
 -8.510001e-03  -8.527572e-03  0 
 -3.103378e-02  -6.031218e-03  0 
 -2.574232e-02  -3.085876e-02  0 
 -8.758593e-03  -2.335179e-02  0 
 -3.325400e-02  -1.377251e-02  0 
 -1.626318e-02  -6.300456e-03  0 
 -2.350969e-02  -1.140166e-02  0 
 -1.356430e-02  -1.585873e-02  0 
 -2.783795e-02  -2.084878e-02  0 
 -1.840232e-02  -2.567245e-02  0 
 -1.312186e-02  -3.054745e-02  0 
 -1.286936e-02  -5.021795e-02  0 
VECTORS displacement_ITER3 FLOAT
 -2.035694e-02  2.287048e-03  0 
 -1.286326e-03  2.277358e-03  0 
 -1.490855e-03  -1.690951e-02  0 
 4.269864e-03  1.920801e-02  0 
 -1.566530e-02  2.243711e-03  0 
 -1.093060e-02  2.222942e-03  0 
 -6.142671e-03  2.246581e-03  0 
 -2.044123e-02  -2.536514e-03  0 
 -2.054245e-02  -7.363656e-03  0 
 -2.070559e-02  -1.236566e-02  0 
 -1.393001e-03  -7.370602e-03  0 
 -1.433242e-03  -1.212783e-02  0 
 -1.090855e-02  -1.694098e-02  0 
 -6.171552e-03  -1.689909e-02  0 
 -1.859379e-02  -1.394251e-03  0 
 -1.735671e-02  -8.130460e-04  0 
 -1.138572e-02  7.326520e-03  0 
 -1.090485e-02  -7.350249e-03  0 
 -6.254839e-03  -1.320653e-02  0 
 -1.679863e-02  -1.209930e-02  0 
 -5.085813e-03  -2.684822e-03  0 
 -1.557504e-02  -1.451914e-03  0 
 -1.311556e-02  -1.311186e-02  0 
 -5.218765e-03  -9.596854e-03  0 
 -1.662700e-02  -5.078712e-03  0 
 -8.714328e-03  -1.626302e-03  0 
 -1.207630e-02  -3.982023e-03  0 
 -7.442991e-03  -6.100407e-03  0 
 -1.409537e-02  -8.408676e-03  0 
 -9.693722e-03  -1.068371e-02  0 
 -6.027624e-03  -1.139836e-02  0 
 -6.221357e-03  -1.410290e-02  0 
VECTORS displacement_ITER4 FLOAT
 -1.096712e-02  3.168233e-03  0 
 3.346299e-05  3.169177e-03  0 
 -2.264878e-04  -7.996632e-03  0 
 4.383366e-03  6.206226e-03  0 
 -8.352447e-03  3.130481e-03  0 
 -5.636680e-03  3.126628e-03  0 
 -2.845367e-03  3.147302e-03  0 
 -1.109695e-02  3.543556e-04  0 
 -1.122792e-02  -2.448865e-03  0 
 -1.141499e-02  -5.444840e-03  0 
 -1.139540e-04  -2.435166e-03  0 
 -1.556614e-04  -5.201779e-03  0 
 -5.602454e-03  -8.001620e-03  0 
 -2.887267e-03  -7.970671e-03  0 
 -8.255577e-03  3.763028e-03  0 
 -9.693071e-03  1.629667e-03  0 
 -6.638919e-03  5.482913e-03  0 
 -5.608971e-03  -2.428096e-03  0 
 -2.932917e-03  -5.844786e-03  0 
 -9.065412e-03  -5.198602e-03  0 
 -2.227074e-03  2.541400e-04  0 
 -8.305320e-03  1.024617e-03  0 
 -6.890529e-03  -5.778839e-03  0 
 -2.327774e-03  -3.742734e-03  0 
 -8.926592e-03  -1.084068e-03  0 
 -4.347678e-03  8.877805e-04  0 
 -6.289542e-03  -4.574074e-04  0 
 -3.600120e-03  -1.718469e-03  0 
 -7.462569e-03  -3.030377e-03  0 
 -4.905736e-03  -4.376294e-03  0 
 3.672997e-04  -5.476146e-03  0 
 -1.750067e-03  -4.069317e-03  0 
VECTORS displacement_ITER5 FLOAT
 -2.564214e-03  5.739896e-04  0 
 -1.782688e-03  5.624920e-04  0 
 -2.016362e-03  -4.959140e-04  0 
 2.561235e-04  -4.319299e-04  0 
 -2.536272e-03  5.244568e-04  0 
 -2.367082e-03  5.267318e-04  0 
 -2.100957e-03  5.466202e-04  0 
 -2.733775e-03  2.780959e-04  0 
 -2.889606e-03  1.710696e-05  0 
 -3.126948e-03  -4.974142e-04  0 
 -1.877437e-03  1.285821e-05  0 
 -1.931274e-03  -2.255458e-04  0 
 -2.313530e-03  -5.030617e-04  0 
 -2.126624e-03  -4.649270e-04  0 
 -3.678273e-03  1.407845e-03  0 
 -3.024846e-03  1.161546e-03  0 
 -2.239069e-03  1.317600e-03  0 
 -2.328166e-03  3.719790e-05  0 
 -2.122263e-03  -3.166401e-04  0 
 -2.701414e-03  -2.456674e-04  0 
 -2.036271e-03  2.371783e-04  0 
 -2.539520e-03  4.144674e-04  0 
 -2.432880e-03  -3.025022e-04  0 
 -2.065389e-03  -1.245462e-04  0 
 -2.619399e-03  2.159475e-04  0 
 -2.247694e-03  3.248016e-04  0 
 -2.391787e-03  2.516102e-04  0 
 -2.159025e-03  6.995318e-05  0 
 -2.495361e-03  4.599487e-06  0 
 -2.260191e-03  -1.747685e-04  0 
 -2.735662e-03  -3.122386e-04  0 
 -3.323357e-03  -3.609300e-04  0 
VECTORS displacement_ITER6 FLOAT
 -7.422780e-04  2.334156e-04  0 
 -9.865304e-04  2.904564e-04  0 
 -1.330861e-03  2.567238e-04  0 
 7.266621e-04  2.265063e-04  0 
 -1.002376e-03  1.826216e-04  0 
 -1.116356e-03  2.067621e-04  0 
 -1.103299e-03  2.518780e-04  0 
 -9.166767e-04  2.171034e-04  0 
 -1.071305e-03  2.403755e-04  0 
 -1.296752e-03  2.975047e-05  0 
 -1.164873e-03  2.304932e-04  0 
 -1.230776e-03  2.610259e-04  0 
 -1.052088e-03  2.627486e-04  0 
 -1.147656e-03  2.985697e-04  0 
 -2.376977e-03  -5.912441e-04  0 
 -8.978687e-04  5.574497e-04  0 
 -4.104558e-04  5.575371e-04  0 
 -1.075120e-03  2.512783e-04  0 
 -1.138566e-03  2.245716e-04  0 
 -1.107978e-03  2.596914e-04  0 
 -1.100011e-03  1.816473e-04  0 
 -1.015023e-03  2.952005e-04  0 
 -1.048521e-03  2.459016e-04  0 
 -1.138406e-03  2.113236e-04  0 
 -1.033758e-03  3.067912e-04  0 
 -1.121962e-03  2.175716e-04  0 
 -1.075557e-03  2.789422e-04  0 
 -1.099400e-03  2.049776e-04  0 
 -1.060915e-03  2.878321e-04  0 
 -1.073753e-03  2.250920e-04  0 
 -7.037088e-04  -1.073167e-03  0 
 -1.614437e-03  -2.091889e-03  0 
VECTORS displacement_ITER7 FLOAT
 -4.884444e-04  -2.244723e-04  0 
 -4.008736e-04  -1.258583e-04  0 
 -8.222235e-04  -4.871736e-04  0 
 2.743863e-04  -1.258990e-04  0 
 -6.902664e-04  -2.765788e-04  0 
 -7.417166e-04  -2.458989e-04  0 
 -6.386830e-04  -1.803985e-04  0 
 -6.683117e-04  -3.095036e-04  0 
 -8.243405e-04  -3.543467e-04  0 
 -1.032806e-03  -6.080221e-04  0 
 -6.349131e-04  -3.699127e-04  0 
 -7.114611e-04  -4.097221e-04  0 
 -6.632948e-04  -4.786016e-04  0 
 -6.951892e-04  -4.417729e-04  0 
 -1.344572e-03  -2.902381e-04  0 
 -7.518497e-04  1.064298e-04  0 
 -3.940459e-04  2.573093e-05  0 
 -6.929440e-04  -3.496712e-04  0 
 -6.869207e-04  -4.674577e-04  0 
 -8.123859e-04  -4.006523e-04  0 
 -6.202958e-04  -3.536182e-04  0 
 -7.023599e-04  -2.137881e-04  0 
 -6.960755e-04  -4.368090e-04  0 
 -6.699317e-04  -4.277267e-04  0 
 -7.349143e-04  -2.555581e-04  0 
 -7.103815e-04  -2.966726e-04  0 
 -7.144274e-04  -2.681385e-04  0 
 -6.624492e-04  -3.831009e-04  0 
 -7.274091e-04  -3.230164e-04  0 
 -6.708870e-04  -4.278971e-04  0 
 -3.142215e-04  -9.815017e-04  0 
 -7.594142e-04  -1.355674e-03  0 
VECTORS displacement_ITER8 FLOAT
 -4.373660e-04  -2.716134e-04  0 
 -2.315260e-04  -9.335715e-05  0 
 -7.153170e-04  -6.449382e-04  0 
 -7.875082e-05  1.594038e-04  0 
 -6.323372e-04  -3.202939e-04  0 
 -6.700926e-04  -2.758232e-04  0 
 -5.327239e-04  -1.785092e-04  0 
 -6.218326e-04  -3.723976e-04  0 
 -7.744596e-04  -4.309483e-04  0 
 -9.308666e-04  -6.199787e-04  0 
 -5.078402e-04  -4.519901e-04  0 
 -5.930985e-04  -5.246428e-04  0 
 -5.884463e-04  -6.158301e-04  0 
 -5.994923e-04  -5.838117e-04  0 
 -1.081195e-03  -2.550946e-04  0 
 -6.281311e-04  1.080543e-05  0 
 -3.595628e-04  -1.146957e-04  0 
 -6.250738e-04  -4.290929e-04  0 
 -5.942753e-04  -5.919155e-04  0 
 -7.667842e-04  -4.840109e-04  0 
 -5.133859e-04  -4.032229e-04  0 
 -6.473082e-04  -2.694081e-04  0 
 -6.312097e-04  -5.446271e-04  0 
 -5.704226e-04  -5.286484e-04  0 
 -6.833212e-04  -3.260045e-04  0 
 -6.323919e-04  -3.417339e-04  0 
 -6.531947e-04  -3.286803e-04  0 
 -5.757712e-04  -4.593433e-04  0 
 -6.751269e-04  -4.011125e-04  0 
 -5.947634e-04  -5.310251e-04  0 
 -3.624062e-04  -7.938380e-04  0 
 -6.240934e-04  -1.370464e-03  0 
VECTORS displacement_ITER9 FLOAT
 -3.412600e-04  -4.971361e-04  0 
 -2.435646e-04  -3.768373e-04  0 
 -6.222718e-04  -9.063958e-04  0 
 -8.722097e-05  5.703031e-04  0 
 -5.463052e-04  -5.559529e-04  0 
 -5.907934e-04  -5.183086e-04  0 
 -4.739563e-04  -4.400431e-04  0 
 -5.283886e-04  -6.025751e-04  0 
 -6.804938e-04  -6.565325e-04  0 
 -8.367123e-04  -8.384044e-04  0 
 -4.305473e-04  -6.819448e-04  0 
 -5.075053e-04  -7.628171e-04  0 
 -5.114604e-04  -8.391430e-04  0 
 -5.175625e-04  -8.233744e-04  0 
 -1.056711e-03  -6.803769e-04  0 
 -5.318077e-04  -2.024731e-04  0 
 -2.113201e-04  -2.599627e-04  0 
 -5.497838e-04  -6.511306e-04  0 
 -5.194609e-04  -8.225314e-04  0 
 -6.787679e-04  -7.035054e-04  0 
 -4.539640e-04  -6.237537e-04  0 
 -5.589502e-04  -5.003262e-04  0 
 -5.551502e-04  -7.614900e-04  0 
 -4.969005e-04  -7.547403e-04  0 
 -5.955147e-04  -5.545159e-04  0 
 -5.574670e-04  -5.727233e-04  0 
 -5.719227e-04  -5.564511e-04  0 
 -5.087197e-04  -6.774805e-04  0 
 -5.933642e-04  -6.255352e-04  0 
 -5.237484e-04  -7.513424e-04  0 
 -5.485689e-04  -6.442821e-04  0 
 -7.072507e-04  -1.289910e-03  0 
VECTORS displacement_ITER10 FLOAT
 -4.583782e-04  -1.730163e-04  0 
 -2.541223e-04  -1.443686e-04  0 
 -5.552233e-04  -8.198777e-04  0 
 1.762724e-04  2.914766e-05  0 
 -6.179530e-04  -2.536831e-04  0 
 -6.154237e-04  -2.320901e-04  0 
 -4.708789e-04  -1.787021e-04  0 
 -6.458644e-04  -3.461829e-04  0 
 -7.961918e-04  -4.528444e-04  0 
 -9.487897e-04  -6.792649e-04  0 
 -3.649814e-04  -4.829322e-04  0 
 -4.402024e-04  -6.131024e-04  0 
 -5.414287e-04  -7.273085e-04  0 
 -4.974894e-04  -7.215367e-04  0 
 -1.441648e-03  -4.999973e-04  0 
 -8.442827e-04  -1.244612e-04  0 
 -4.311120e-04  -5.228526e-05  0 
 -5.766188e-04  -4.455467e-04  0 
 -5.043912e-04  -6.800422e-04  0 
 -7.541487e-04  -5.514017e-04  0 
 -4.388612e-04  -3.688907e-04  0 
 -6.233822e-04  -2.366401e-04  0 
 -6.032081e-04  -6.071551e-04  0 
 -4.717696e-04  -5.741189e-04  0 
 -6.711993e-04  -3.287725e-04  0 
 -5.626005e-04  -3.172901e-04  0 
 -6.040613e-04  -3.211821e-04  0 
 -5.099309e-04  -4.549879e-04  0 
 -6.443496e-04  -4.344476e-04  0 
 -5.443908e-04  -5.762256e-04  0 
 -3.121473e-04  -4.252837e-04  0 
 -6.842533e-04  -1.117212e-03  0 
VECTORS displacement_ITER11 FLOAT
 -4.884153e-04  -7.650364e-05  0 
 -2.082124e-04  -1.380280e-04  0 
 -5.187502e-04  -8.199399e-04  0 
 -1.274187e-04  -2.191543e-05  0 
 -6.220854e-04  -1.820960e-04  0 
 -5.982564e-04  -1.814486e-04  0 
 -4.442685e-04  -1.469244e-04  0 
 -6.704066e-04  -2.926223e-04  0 
 -8.149299e-04  -4.275462e-04  0 
 -9.688859e-04  -6.784020e-04  0 
 -3.289767e-04  -4.631404e-04  0 
 -4.027654e-04  -6.012971e-04  0 
 -5.235930e-04  -7.262680e-04  0 
 -4.683777e-04  -7.202264e-04  0 
 -1.065504e-03  -3.725289e-04  0 
 -7.806541e-04  -1.402577e-04  0 
 -5.114645e-04  -6.743988e-05  0 
 -5.540697e-04  -4.247787e-04  0 
 -4.753120e-04  -6.708414e-04  0 
 -7.526471e-04  -5.472865e-04  0 
 -4.046971e-04  -3.427235e-04  0 
 -6.189508e-04  -1.859417e-04  0 
 -5.850511e-04  -6.056635e-04  0 
 -4.394256e-04  -5.575486e-04  0 
 -6.704192e-04  -2.953067e-04  0 
 -5.354950e-04  -2.831286e-04  0 
 -5.847204e-04  -2.882322e-04  0 
 -4.786192e-04  -4.327351e-04  0 
 -6.308927e-04  -4.163228e-04  0 
 -5.189263e-04  -5.658170e-04  0 
 -3.948956e-04  -6.578843e-04  0 
 -5.984344e-04  -1.021063e-03  0 
VECTORS displacement_ITER12 FLOAT
 -4.848307e-04  -8.090086e-05  0 
 -2.032213e-04  -1.467036e-04  0 
 -5.226217e-04  -8.153057e-04  0 
 -1.414975e-04  -2.071811e-05  0 
 -6.202293e-04  -1.859687e-04  0 
 -5.983022e-04  -1.850339e-04  0 
 -4.466269e-04  -1.509714e-04  0 
 -6.666170e-04  -2.945464e-04  0 
 -8.110473e-04  -4.274594e-04  0 
 -9.646422e-04  -6.758218e-04  0 
 -3.324918e-04  -4.627518e-04  0 
 -4.065371e-04  -5.988248e-04  0 
 -5.245662e-04  -7.228713e-04  0 
 -4.706181e-04  -7.162440e-04  0 
 -1.091678e-03  -3.921952e-04  0 
 -7.598922e-04  -1.568078e-04  0 
 -5.118469e-04  -6.382816e-05  0 
 -5.546499e-04  -4.239224e-04  0 
 -4.772881e-04  -6.680454e-04  0 
 -7.508748e-04  -5.447776e-04  0 
 -4.078076e-04  -3.430289e-04  0 
 -6.172539e-04  -1.882864e-04  0 
 -5.847100e-04  -6.022517e-04  0 
 -4.418461e-04  -5.561050e-04  0 
 -6.682905e-04  -2.960218e-04  0 
 -5.365888e-04  -2.847115e-04  0 
 -5.845868e-04  -2.891413e-04  0 
 -4.807341e-04  -4.320531e-04  0 
 -6.300584e-04  -4.152035e-04  0 
 -5.201296e-04  -5.634939e-04  0 
 -4.078811e-04  -6.353138e-04  0 
 -5.993876e-04  -9.723308e-04  0 
VECTORS displacement_ITER13 FLOAT
 -4.842044e-04  -8.205914e-05  0 
 -2.021655e-04  -1.473382e-04  0 
 -5.237574e-04  -8.147007e-04  0 
 -1.387215e-04  -1.783972e-05  0 
 -6.199418e-04  -1.871104e-04  0 
 -5.983871e-04  -1.861155e-04  0 
 -4.468525e-04  -1.517218e-04  0 
 -6.659364e-04  -2.953007e-04  0 
 -8.102907e-04  -4.277814e-04  0 
 -9.637608e-04  -6.756753e-04  0 
 -3.337788e-04  -4.633733e-04  0 
 -4.076724e-04  -5.987711e-04  0 
 -5.249999e-04  -7.228950e-04  0 
 -4.712854e-04  -7.158860e-04  0 
 -1.097136e-03  -3.963139e-04  0 
 -7.580079e-04  -1.567304e-04  0 
 -5.122569e-04  -6.772130e-05  0 
 -5.547320e-04  -4.244110e-04  0 
 -4.778263e-04  -6.679144e-04  0 
 -7.503208e-04  -5.448203e-04  0 
 -4.082043e-04  -3.438436e-04  0 
 -6.169831e-04  -1.891698e-04  0 
 -5.846372e-04  -6.020904e-04  0 
 -4.424941e-04  -5.562967e-04  0 
 -6.679000e-04  -2.966104e-04  0 
 -5.368452e-04  -2.855772e-04  0 
 -5.845875e-04  -2.898647e-04  0 
 -4.810633e-04  -4.326926e-04  0 
 -6.298253e-04  -4.155937e-04  0 
 -5.203833e-04  -5.635744e-04  0 
 -4.040892e-04  -6.293919e-04  0 
 -5.883849e-04  -9.816932e-04  0 
VECTORS displacement_ITER14 FLOAT
 -4.842485e-04  -8.200282e-05  0 
 -2.021591e-04  -1.472925e-04  0 
 -5.236920e-04  -8.147719e-04  0 
 -1.388729e-04  -1.679167e-05  0 
 -6.199857e-04  -1.870545e-04  0 
 -5.984146e-04  -1.860487e-04  0 
 -4.468578e-04  -1.516559e-04  0 
 -6.659724e-04  -2.952575e-04  0 
 -8.102738e-04  -4.276653e-04  0 
 -9.637735e-04  -6.755850e-04  0 
 -3.337299e-04  -4.633774e-04  0 
 -4.076099e-04  -5.988153e-04  0 
 -5.249738e-04  -7.230098e-04  0 
 -4.712574e-04  -7.159665e-04  0 
 -1.098798e-03  -3.981176e-04  0 
 -7.566056e-04  -1.579252e-04  0 
 -5.127388e-04  -6.748242e-05  0 
 -5.547658e-04  -4.243831e-04  0 
 -4.777945e-04  -6.679684e-04  0 
 -7.502672e-04  -5.446997e-04  0 
 -4.081975e-04  -3.437938e-04  0 
 -6.170299e-04  -1.891252e-04  0 
 -5.847645e-04  -6.020725e-04  0 
 -4.424688e-04  -5.563031e-04  0 
 -6.679549e-04  -2.965800e-04  0 
 -5.368628e-04  -2.855216e-04  0 
 -5.846271e-04  -2.898194e-04  0 
 -4.810728e-04  -4.326596e-04  0 
 -6.298922e-04  -4.155836e-04  0 
 -5.204128e-04  -5.635514e-04  0 
 -4.080489e-04  -6.277930e-04  0 
 -5.850677e-04  -9.813749e-04  0 
CELL_DATA 43
TENSORS element_stresses FLOAT
 -1.702053e-03  -2.040449e-04  0 
 -2.040449e-04  -1.395023e-03  0 
 0  0  0 

 -1.016545e-03  -3.173729e-04  0 
 -3.173729e-04  -1.464466e-03  0 
 0  0  0 

 -9.894680e-04  1.355197e-04  0 
 1.355197e-04  -1.251564e-03  0 
 0  0  0 

 -1.659355e-03  -1.179138e-03  0 
 -1.179138e-03  -7.586511e-04  0 
 0  0  0 

 -1.138103e-03  -1.125057e-03  0 
 -1.125057e-03  -1.370692e-03  0 
 0  0  0 

 -1.740109e-03  -6.953580e-04  0 
 -6.953580e-04  -1.706829e-03  0 
 0  0  0 

 4.007238e-02  -2.461652e-02  0 
 -2.461652e-02  4.019478e-02  0 
 0  0  0 

 -4.618298e-01  6.729333e-02  0 
 6.729333e-02  5.072302e-01  0 
 0  0  0 

 1.555207e-02  5.812462e-02  0 
 5.812462e-02  8.688870e-03  0 
 0  0  0 

 -5.200585e-01  -1.189930e-01  0 
 -1.189930e-01  1.904904e-01  0 
 0  0  0 

 -2.596703e-03  2.457156e-02  0 
 2.457156e-02  1.367925e-01  0 
 0  0  0 

 -2.754072e-01  -1.317776e-01  0 
 -1.317776e-01  6.704204e-02  0 
 0  0  0 

 -2.712709e-02  9.750584e-02  0 
 9.750584e-02  -9.790444e-02  0 
 0  0  0 

 -1.485958e-01  -2.448901e-01  0 
 -2.448901e-01  -1.643812e-01  0 
 0  0  0 

 -2.394219e-01  -2.283917e-01  0 
 -2.283917e-01  -1.910713e-01  0 
 0  0  0 

 1.137429e-02  5.576366e-02  0 
 5.576366e-02  -1.353563e-01  0 
 0  0  0 

 -1.481796e-01  -2.588861e-01  0 
 -2.588861e-01  2.684036e-01  0 
 0  0  0 

 -7.628702e-02  -2.282331e-01  0 
 -2.282331e-01  1.303109e-01  0 
 0  0  0 

 -2.709253e-02  -4.060225e-02  0 
 -4.060225e-02  -1.072754e-01  0 
 0  0  0 

 -2.029900e-02  -1.868069e-01  0 
 -1.868069e-01  -2.894432e-01  0 
 0  0  0 

 4.170345e-02  -1.294165e-02  0 
 -1.294165e-02  -2.179911e-01  0 
 0  0  0 

 -6.755417e-02  -1.961602e-01  0 
 -1.961602e-01  -3.108315e-01  0 
 0  0  0 

 3.433758e-02  -1.289415e-01  0 
 -1.289415e-01  -3.410105e-01  0 
 0  0  0 

 -1.917876e-01  -5.380250e-03  0 
 -5.380250e-03  7.684669e-02  0 
 0  0  0 

 -1.878497e-01  -1.905292e-01  0 
 -1.905292e-01  1.186601e-01  0 
 0  0  0 

 -7.855799e-02  -1.695108e-01  0 
 -1.695108e-01  -3.020348e-01  0 
 0  0  0 

 -8.329237e-02  -2.004101e-01  0 
 -2.004101e-01  -1.438431e-01  0 
 0  0  0 

 -8.274957e-02  -1.097621e-02  0 
 -1.097621e-02  -1.845714e-02  0 
 0  0  0 

 -9.228017e-02  -1.751488e-01  0 
 -1.751488e-01  2.416419e-02  0 
 0  0  0 

 -5.010077e-02  -2.105462e-01  0 
 -2.105462e-01  -3.149295e-01  0 
 0  0  0 

 -3.887957e-02  -2.105102e-01  0 
 -2.105102e-01  -1.264054e-01  0 
 0  0  0 

 -3.335515e-02  -2.385622e-01  0 
 -2.385622e-01  -2.028822e-01  0 
 0  0  0 

 2.159286e-02  -8.598842e-02  0 
 -8.598842e-02  -1.419677e-01  0 
 0  0  0 

 -6.126312e-02  -1.847500e-01  0 
 -1.847500e-01  -3.055341e-01  0 
 0  0  0 

 1.226537e-02  -2.161012e-01  0 
 -2.161012e-01  -2.797453e-01  0 
 0  0  0 

 -1.065742e-01  -4.175331e-01  0 
 -4.175331e-01  -4.521791e-01  0 
 0  0  0 

 -7.222301e-01  -6.291297e-01  0 
 -6.291297e-01  1.555137e-02  0 
 0  0  0 

 -4.822710e-01  -5.298014e-01  0 
 -5.298014e-01  -5.980845e-02  0 
 0  0  0 

 -8.754424e-02  -3.428837e-01  0 
 -3.428837e-01  -4.214849e-01  0 
 0  0  0 

 -5.963480e-02  1.704215e-01  0 
 1.704215e-01  -4.371596e-04  0 
 0  0  0 

 -3.783167e-04  -4.242928e-04  0 
 -4.242928e-04  -2.759895e-04  0 
 0  0  0 

 -5.665432e-04  -6.753721e-04  0 
 -6.753721e-04  -3.407158e-04  0 
 0  0  0 

 -7.922370e-04  -1.289041e-03  0 
 -1.289041e-03  -6.328927e-04  0 
 0  0  0 

TENSORS element_stresses FLOAT
 -1.702053e-03  -2.040449e-04  0 
 -2.040449e-04  -1.395023e-03  0 
 0  0  0 

 -1.016545e-03  -3.173729e-04  0 
 -3.173729e-04  -1.464466e-03  0 
 0  0  0 

 -9.894680e-04  1.355197e-04  0 
 1.355197e-04  -1.251564e-03  0 
 0  0  0 

 -1.659355e-03  -1.179138e-03  0 
 -1.179138e-03  -7.586511e-04  0 
 0  0  0 

 -1.138103e-03  -1.125057e-03  0 
 -1.125057e-03  -1.370692e-03  0 
 0  0  0 

 -1.740109e-03  -6.953580e-04  0 
 -6.953580e-04  -1.706829e-03  0 
 0  0  0 

 4.007238e-02  -2.461652e-02  0 
 -2.461652e-02  4.019478e-02  0 
 0  0  0 

 -4.618298e-01  6.729333e-02  0 
 6.729333e-02  5.072302e-01  0 
 0  0  0 

 1.555207e-02  5.812462e-02  0 
 5.812462e-02  8.688870e-03  0 
 0  0  0 

 -5.200585e-01  -1.189930e-01  0 
 -1.189930e-01  1.904904e-01  0 
 0  0  0 

 -2.596703e-03  2.457156e-02  0 
 2.457156e-02  1.367925e-01  0 
 0  0  0 

 -2.754072e-01  -1.317776e-01  0 
 -1.317776e-01  6.704204e-02  0 
 0  0  0 

 -2.712709e-02  9.750584e-02  0 
 9.750584e-02  -9.790444e-02  0 
 0  0  0 

 -1.485958e-01  -2.448901e-01  0 
 -2.448901e-01  -1.643812e-01  0 
 0  0  0 

 -2.394219e-01  -2.283917e-01  0 
 -2.283917e-01  -1.910713e-01  0 
 0  0  0 

 1.137429e-02  5.576366e-02  0 
 5.576366e-02  -1.353563e-01  0 
 0  0  0 

 -1.481796e-01  -2.588861e-01  0 
 -2.588861e-01  2.684036e-01  0 
 0  0  0 

 -7.628702e-02  -2.282331e-01  0 
 -2.282331e-01  1.303109e-01  0 
 0  0  0 

 -2.709253e-02  -4.060225e-02  0 
 -4.060225e-02  -1.072754e-01  0 
 0  0  0 

 -2.029900e-02  -1.868069e-01  0 
 -1.868069e-01  -2.894432e-01  0 
 0  0  0 

 4.170345e-02  -1.294165e-02  0 
 -1.294165e-02  -2.179911e-01  0 
 0  0  0 

 -6.755417e-02  -1.961602e-01  0 
 -1.961602e-01  -3.108315e-01  0 
 0  0  0 

 3.433758e-02  -1.289415e-01  0 
 -1.289415e-01  -3.410105e-01  0 
 0  0  0 

 -1.917876e-01  -5.380250e-03  0 
 -5.380250e-03  7.684669e-02  0 
 0  0  0 

 -1.878497e-01  -1.905292e-01  0 
 -1.905292e-01  1.186601e-01  0 
 0  0  0 

 -7.855799e-02  -1.695108e-01  0 
 -1.695108e-01  -3.020348e-01  0 
 0  0  0 

 -8.329237e-02  -2.004101e-01  0 
 -2.004101e-01  -1.438431e-01  0 
 0  0  0 

 -8.274957e-02  -1.097621e-02  0 
 -1.097621e-02  -1.845714e-02  0 
 0  0  0 

 -9.228017e-02  -1.751488e-01  0 
 -1.751488e-01  2.416419e-02  0 
 0  0  0 

 -5.010077e-02  -2.105462e-01  0 
 -2.105462e-01  -3.149295e-01  0 
 0  0  0 

 -3.887957e-02  -2.105102e-01  0 
 -2.105102e-01  -1.264054e-01  0 
 0  0  0 

 -3.335515e-02  -2.385622e-01  0 
 -2.385622e-01  -2.028822e-01  0 
 0  0  0 

 2.159286e-02  -8.598842e-02  0 
 -8.598842e-02  -1.419677e-01  0 
 0  0  0 

 -6.126312e-02  -1.847500e-01  0 
 -1.847500e-01  -3.055341e-01  0 
 0  0  0 

 1.226537e-02  -2.161012e-01  0 
 -2.161012e-01  -2.797453e-01  0 
 0  0  0 

 -1.065742e-01  -4.175331e-01  0 
 -4.175331e-01  -4.521791e-01  0 
 0  0  0 

 -7.222301e-01  -6.291297e-01  0 
 -6.291297e-01  1.555137e-02  0 
 0  0  0 

 -4.822710e-01  -5.298014e-01  0 
 -5.298014e-01  -5.980845e-02  0 
 0  0  0 

 -8.754424e-02  -3.428837e-01  0 
 -3.428837e-01  -4.214849e-01  0 
 0  0  0 

 -5.963480e-02  1.704215e-01  0 
 1.704215e-01  -4.371596e-04  0 
 0  0  0 

 -3.783167e-04  -4.242928e-04  0 
 -4.242928e-04  -2.759895e-04  0 
 0  0  0 

 -5.665432e-04  -6.753721e-04  0 
 -6.753721e-04  -3.407158e-04  0 
 0  0  0 

 -7.922370e-04  -1.289041e-03  0 
 -1.289041e-03  -6.328927e-04  0 
 0  0  0 

