# vtk DataFile Version 3.1
this is an vtk file created by FEMAC
ASCII
DATASET UNSTRUCTURED_GRID
POINTS 31 FLOAT
2.000000 4.000000 0.000000
2.000000 5.000000 0.000000
1.500000 5.000000 0.000000
1.750000 5.000000 0.000000
2.000000 4.250000 0.000000
2.000000 4.500000 0.000000
2.000000 4.750000 0.000000
2.000000 5.250000 0.000000
2.250000 5.000000 0.000000
1.668552 4.802393 0.000000
1.825071 4.338322 0.000000
1.500000 4.775000 0.000000
1.800052 4.608882 0.000000
1.613228 4.205045 0.000000
1.561048 4.603297 0.000000
1.418444 4.423893 0.000000
1.643569 4.435888 0.000000
1.843721 4.832255 0.000000
1.837660 4.158674 0.000000
1.674167 5.178356 0.000000
1.500000 5.225000 0.000000
1.828194 5.341416 0.000000
1.630720 5.401594 0.000000
1.850472 5.153954 0.000000
2.255000 4.805000 0.000000
2.255000 4.195000 0.000000
2.169567 4.378219 0.000000
2.242859 4.565925 0.000000
2.413341 4.323754 0.000000
2.371000 5.200321 0.000000
2.169413 5.172421 0.000000
CELLS 42 168 
3 2 9 3
3 5 10  4
3 11  9  2
3 14  9 11
3 6 12  5
3 16 13 10
3 9 14 12
3 12 10  5
3 16 10 12
3 12 14 16
3 3 17  1
3 17  6  1
3 17  3  9
3 18  4 10
3 4 18  0
3 17 12  6
3 9 12 17
3 10 13 18
3 16 14 15
3 16 15 13
3 19  2  3
3 19 20  2
3 19 22 20
3 21 22 19
3 23  3  1
3 7 23  1
3 3 23 19
3 21 23  7
3 21 19 23
3 4 26  5
3 27  6  5
3 28 26 25
3 27 24  6
3 25 26  4
3 24  1  6
3 8  1 24
3 0 25  4
3 5 26 27
3 27 26 28
3 30  7  1
3 8 30  1
3 30  8 29
CELL_TYPES 42
5 5 5 5 5 5 5 5 5 5 5 5 5 5 5 5 5 5 5 5 5 5 5 5 5 5 5 5 5 5 5 5 5 5 5 5 5 5 5 5 5 5 
POINT_DATA 31
VECTORS displacement_ITER1 FLOAT
 3.645428e-02  -7.728828e-02  0 
 3.390132e-02  -7.736714e-02  0 
 3.382515e-02  -5.142460e-02  0 
 3.385688e-02  -6.441963e-02  0 
 3.582791e-02  -7.729686e-02  0 
 3.519445e-02  -7.732010e-02  0 
 3.454714e-02  -7.734829e-02  0 
 4.683854e-02  -7.740776e-02  0 
 3.395107e-02  -7.677996e-02  0 
 2.387506e-02  -6.282205e-02  0 
 3.311675e-02  -6.704688e-02  0 
 1.481490e-02  -4.822315e-02  0 
 2.962419e-02  -6.666889e-02  0 
 3.210877e-02  -5.553369e-02  0 
 2.210732e-02  -5.552838e-02  0 
 2.477326e-02  -5.600098e-02  0 
 2.818349e-02  -5.847685e-02  0 
 2.991870e-02  -7.181627e-02  0 
 3.473675e-02  -6.949591e-02  0 
 4.310725e-02  -6.049367e-02  0 
 4.552304e-02  -5.143297e-02  0 
 5.158078e-02  -6.849858e-02  0 
 5.470873e-02  -5.823722e-02  0 
 4.185105e-02  -6.964815e-02  0 
 3.442130e-02  -7.671184e-02  0 
 3.597309e-02  -7.666746e-02  0 
 3.551367e-02  -7.688764e-02  0 
 3.504006e-02  -7.671565e-02  0 
 3.566307e-02  -7.628731e-02  0 
 7.972511e-02  -1.379931e-01  0 
 4.910012e-02  -8.520011e-02  0 
VECTORS displacement_ITER2 FLOAT
 4.795963e-02  -7.508070e-02  0 
 4.349003e-02  -7.526799e-02  0 
 4.337691e-02  -6.603202e-02  0 
 4.342245e-02  -7.068036e-02  0 
 4.693226e-02  -7.510444e-02  0 
 4.586620e-02  -7.516945e-02  0 
 4.472119e-02  -7.523935e-02  0 
 4.804717e-02  -7.531708e-02  0 
 4.353751e-02  -7.409922e-02  0 
 3.509831e-02  -6.777651e-02  0 
 4.359712e-02  -6.621589e-02  0 
 2.411838e-02  -5.363042e-02  0 
 4.057576e-02  -6.760922e-02  0 
 4.049666e-02  -5.360305e-02  0 
 3.185868e-02  -5.710534e-02  0 
 3.357129e-02  -5.502328e-02  0 
 3.814722e-02  -5.839837e-02  0 
 4.083686e-02  -7.326243e-02  0 
 4.505644e-02  -6.713141e-02  0 
 4.671125e-02  -6.929865e-02  0 
 4.756531e-02  -6.605436e-02  0 
 4.973349e-02  -7.215889e-02  0 
 5.085061e-02  -6.849781e-02  0 
 4.627498e-02  -7.256199e-02  0 
 4.446761e-02  -7.403490e-02  0 
 4.717208e-02  -7.405308e-02  0 
 4.640789e-02  -7.441549e-02  0 
 4.559809e-02  -7.409944e-02  0 
 4.664361e-02  -7.339788e-02  0 
 7.329626e-02  -1.107491e-01  0 
 5.236392e-02  -7.857144e-02  0 
VECTORS displacement_ITER3 FLOAT
 2.459744e-02  -4.962088e-02  0 
 4.053406e-02  -4.997757e-02  0 
 4.035951e-02  -5.121782e-02  0 
 4.042759e-02  -5.064091e-02  0 
 2.878777e-02  -4.966681e-02  0 
 3.289444e-02  -4.979447e-02  0 
 3.682425e-02  -4.993029e-02  0 
 3.981010e-02  -5.004402e-02  0 
 4.058128e-02  -5.375657e-02  0 
 2.980932e-02  -4.497851e-02  0 
 2.711343e-02  -3.993152e-02  0 
 1.651034e-02  -2.880217e-02  0 
 3.050827e-02  -4.265636e-02  0 
 2.041656e-02  -2.518178e-02  0 
 2.082446e-02  -2.957087e-02  0 
 1.864678e-02  -2.401418e-02  0 
 2.368018e-02  -3.073338e-02  0 
 3.570192e-02  -4.936612e-02  0 
 2.470483e-02  -3.992744e-02  0 
 3.997723e-02  -5.086257e-02  0 
 3.985097e-02  -5.125716e-02  0 
 3.958188e-02  -5.050022e-02  0 
 3.944208e-02  -5.097430e-02  0 
 4.005900e-02  -5.043397e-02  0 
 3.766163e-02  -5.381146e-02  0 
 2.788760e-02  -5.391818e-02  0 
 3.093389e-02  -5.250592e-02  0 
 3.399272e-02  -5.368222e-02  0 
 3.003114e-02  -5.654102e-02  0 
 5.163366e-02  -5.633855e-02  0 
 4.462019e-02  -5.053374e-02  0 
VECTORS displacement_ITER4 FLOAT
 1.330839e-02  -4.331623e-02  0 
 4.290318e-02  -4.381354e-02  0 
 4.267934e-02  -4.985276e-02  0 
 4.276511e-02  -4.688842e-02  0 
 2.099928e-02  -4.338008e-02  0 
 2.857372e-02  -4.355711e-02  0 
 3.589733e-02  -4.374650e-02  0 
 3.974896e-02  -4.390126e-02  0 
 4.295421e-02  -5.089550e-02  0 
 3.052572e-02  -3.964216e-02  0 
 2.037024e-02  -3.302769e-02  0 
 1.604365e-02  -2.219714e-02  0 
 2.803568e-02  -3.642738e-02  0 
 1.111015e-02  -1.674890e-02  0 
 1.782981e-02  -2.155427e-02  0 
 1.288227e-02  -1.362938e-02  0 
 1.828265e-02  -2.278712e-02  0 
 3.650469e-02  -4.369578e-02  0 
 1.536552e-02  -3.244144e-02  0 
 4.060239e-02  -4.784728e-02  0 
 4.002794e-02  -4.990058e-02  0 
 3.864616e-02  -4.601381e-02  0 
 3.793488e-02  -4.837459e-02  0 
 4.092335e-02  -4.573104e-02  0 
 3.746568e-02  -5.102533e-02  0 
 1.933544e-02  -5.118786e-02  0 
 2.493795e-02  -4.858708e-02  0 
 3.059009e-02  -5.076432e-02  0 
 2.327239e-02  -5.601028e-02  0 
 4.433491e-02  -3.557446e-02  0 
 4.479664e-02  -4.343231e-02  0 
VECTORS displacement_ITER5 FLOAT
 2.439197e-02  -3.056556e-02  0 
 3.925571e-02  -3.116843e-02  0 
 3.899111e-02  -4.204943e-02  0 
 3.909057e-02  -3.667692e-02  0 
 2.844772e-02  -3.064271e-02  0 
 3.237022e-02  -3.085240e-02  0 
 3.599825e-02  -3.107972e-02  0 
 3.366225e-02  -3.128752e-02  0 
 3.932034e-02  -3.451472e-02  0 
 3.006088e-02  -3.149516e-02  0 
 2.635460e-02  -2.374996e-02  0 
 1.721430e-02  -1.768746e-02  0 
 3.017320e-02  -2.712960e-02  0 
 1.859722e-02  -1.168662e-02  0 
 2.062464e-02  -1.675422e-02  0 
 1.774587e-02  -1.103022e-02  0 
 2.299649e-02  -1.683496e-02  0 
 3.529478e-02  -3.303614e-02  0 
 2.404458e-02  -2.274119e-02  0 
 3.520222e-02  -3.837281e-02  0 
 3.417933e-02  -4.209258e-02  0 
 3.168066e-02  -3.506080e-02  0 
 3.039712e-02  -3.931223e-02  0 
 3.576307e-02  -3.455918e-02  0 
 3.675119e-02  -3.455980e-02  0 
 2.758809e-02  -3.473556e-02  0 
 3.052301e-02  -3.338392e-02  0 
 3.342914e-02  -3.448571e-02  0 
 2.965111e-02  -3.725123e-02  0 
 4.173365e-02  -2.293462e-02  0 
 4.013918e-02  -2.936360e-02  0 
VECTORS displacement_ITER6 FLOAT
 1.843681e-02  -1.491481e-02  0 
 2.548178e-02  -1.556774e-02  0 
 2.518695e-02  -2.025496e-02  0 
 2.529639e-02  -1.799038e-02  0 
 2.054741e-02  -1.499725e-02  0 
 2.252508e-02  -1.521788e-02  0 
 2.419656e-02  -1.546245e-02  0 
 2.297610e-02  -1.571575e-02  0 
 2.556217e-02  -1.695335e-02  0 
 1.777135e-02  -1.591409e-02  0 
 1.829409e-02  -1.131286e-02  0 
 8.417857e-03  -6.201491e-03  0 
 1.937051e-02  -1.324164e-02  0 
 1.428307e-02  -6.739958e-03  0 
 1.196506e-02  -7.755767e-03  0 
 1.166010e-02  -7.209399e-03  0 
 1.503515e-02  -8.061518e-03  0 
 2.230833e-02  -1.708298e-02  0 
 1.816723e-02  -1.135179e-02  0 
 2.362028e-02  -1.874534e-02  0 
 2.318028e-02  -2.028640e-02  0 
 2.213524e-02  -1.735387e-02  0 
 2.160944e-02  -1.913447e-02  0 
 2.388096e-02  -1.712635e-02  0 
 2.452452e-02  -1.694297e-02  0 
 2.011533e-02  -1.710531e-02  0 
 2.162845e-02  -1.642229e-02  0 
 2.307656e-02  -1.695705e-02  0 
 2.118138e-02  -1.839787e-02  0 
 3.634694e-02  -1.646030e-02  0 
 2.926270e-02  -1.469399e-02  0 
VECTORS displacement_ITER7 FLOAT
 1.217909e-02  -8.009919e-03  0 
 1.494521e-02  -8.653545e-03  0 
 1.463402e-02  -5.674977e-03  0 
 1.474994e-02  -7.248239e-03  0 
 1.320606e-02  -8.090432e-03  0 
 1.410910e-02  -8.304176e-03  0 
 1.471604e-02  -8.544903e-03  0 
 1.626935e-02  -8.814453e-03  0 
 1.503616e-02  -8.991812e-03  0 
 8.011875e-03  -7.773753e-03  0 
 1.116121e-02  -6.631437e-03  0 
 1.822857e-03  -1.393268e-03  0 
 1.044490e-02  -7.113608e-03  0 
 1.045709e-02  -8.139859e-03  0 
 5.032393e-03  -5.235228e-03  0 
 6.687137e-03  -9.035135e-03  0 
 8.305414e-03  -6.046118e-03  0 
 1.198986e-02  -9.236635e-03  0 
 1.251133e-02  -7.834329e-03  0 
 1.580990e-02  -6.839266e-03  0 
 1.608773e-02  -5.698547e-03  0 
 1.683529e-02  -7.814827e-03  0 
 1.723936e-02  -6.554089e-03  0 
 1.569792e-02  -7.928606e-03  0 
 1.481525e-02  -8.949070e-03  0 
 1.300939e-02  -9.096606e-03  0 
 1.373392e-02  -8.783285e-03  0 
 1.437902e-02  -9.007306e-03  0 
 1.352244e-02  -9.713807e-03  0 
 3.250362e-02  -1.485670e-02  0 
 2.163190e-02  -8.431300e-03  0 
VECTORS displacement_ITER8 FLOAT
 1.482273e-02  -9.498247e-03  0 
 1.012447e-02  -1.014104e-02  0 
 9.796315e-03  -6.707333e-03  0 
 9.919573e-03  -8.511016e-03  0 
 1.398437e-02  -9.577374e-03  0 
 1.302374e-02  -9.789994e-03  0 
 1.176576e-02  -1.003149e-02  0 
 1.166918e-02  -1.030848e-02  0 
 1.022351e-02  -8.619300e-03  0 
 4.882168e-03  -1.049360e-02  0 
 1.150651e-02  -9.853159e-03  0 
 3.178472e-04  -6.621835e-03  0 
 8.636747e-03  -9.948511e-03  0 
 1.253118e-02  -1.424324e-02  0 
 4.115069e-03  -1.060668e-02  0 
 7.147655e-03  -1.617182e-02  0 
 8.249367e-03  -1.108441e-02  0 
 8.324254e-03  -1.111587e-02  0 
 1.437887e-02  -1.133159e-02  0 
 1.114156e-02  -8.035122e-03  0 
 1.146161e-02  -6.730899e-03  0 
 1.232022e-02  -9.153177e-03  0 
 1.278168e-02  -7.707024e-03  0 
 1.100972e-02  -9.286849e-03  0 
 1.145497e-02  -8.532390e-03  0 
 1.419661e-02  -8.681946e-03  0 
 1.355599e-02  -9.005101e-03  0 
 1.280256e-02  -8.682289e-03  0 
 1.374983e-02  -8.120549e-03  0 
 2.894845e-02  -1.609013e-02  0 
 1.693383e-02  -9.201237e-03  0 
VECTORS displacement_ITER9 FLOAT
 7.134947e-03  -5.967449e-03  0 
 5.382060e-03  -6.620640e-03  0 
 5.035966e-03  -4.289855e-03  0 
 5.166414e-03  -5.543817e-03  0 
 7.049307e-03  -6.045089e-03  0 
 6.837208e-03  -6.261879e-03  0 
 6.313749e-03  -6.510419e-03  0 
 6.364547e-03  -6.792698e-03  0 
 5.485539e-03  -5.817771e-03  0 
 9.188712e-04  -7.310388e-03  0 
 5.524792e-03  -6.873728e-03  0 
 -2.543671e-03  -4.962842e-03  0 
 3.666110e-03  -6.735369e-03  0 
 7.335423e-03  -1.232459e-02  0 
 4.270159e-04  -7.879344e-03  0 
 3.203709e-03  -1.322499e-02  0 
 3.409922e-03  -8.440490e-03  0 
 3.679349e-03  -7.547966e-03  0 
 7.770326e-03  -8.672023e-03  0 
 5.993780e-03  -5.239411e-03  0 
 6.209773e-03  -4.317176e-03  0 
 6.814329e-03  -6.019267e-03  0 
 7.143767e-03  -5.005988e-03  0 
 5.918484e-03  -6.103145e-03  0 
 6.158868e-03  -5.744797e-03  0 
 7.094094e-03  -5.914873e-03  0 
 7.005387e-03  -5.979758e-03  0 
 6.812282e-03  -5.870772e-03  0 
 7.032348e-03  -5.827054e-03  0 
 2.147130e-02  -9.056925e-03  0 
 1.145115e-02  -5.540563e-03  0 
VECTORS displacement_ITER10 FLOAT
 1.125563e-02  -8.298016e-03  0 
 8.405324e-03  -8.998420e-03  0 
 8.031421e-03  -1.225910e-02  0 
 8.172709e-03  -1.072023e-02  0 
 1.094082e-02  -8.381001e-03  0 
 1.048071e-02  -8.617722e-03  0 
 9.671557e-03  -8.886094e-03  0 
 6.572088e-03  -9.176912e-03  0 
 8.514315e-03  -7.877131e-03  0 
 5.751262e-03  -1.097947e-02  0 
 9.265432e-03  -8.693708e-03  0 
 2.002832e-03  -8.534649e-03  0 
 8.065123e-03  -9.260820e-03  0 
 8.736472e-03  -9.872518e-03  0 
 4.885222e-03  -8.873724e-03  0 
 6.040960e-03  -1.006360e-02  0 
 7.242805e-03  -8.832808e-03  0 
 7.824076e-03  -1.049992e-02  0 
 1.064483e-02  -9.315467e-03  0 
 7.002273e-03  -1.127153e-02  0 
 6.693821e-03  -1.229503e-02  0 
 5.998710e-03  -1.033109e-02  0 
 5.654664e-03  -1.152479e-02  0 
 7.204210e-03  -1.016425e-02  0 
 9.442406e-03  -7.798377e-03  0 
 1.103900e-02  -8.010128e-03  0 
 1.077511e-02  -8.153954e-03  0 
 1.038834e-02  -7.959927e-03  0 
 1.085006e-02  -7.761715e-03  0 
 1.871180e-02  -5.487173e-03  0 
 1.196475e-02  -6.949822e-03  0 
VECTORS displacement_ITER11 FLOAT
 4.882676e-03  -3.338245e-03  0 
 3.659344e-03  -4.074845e-03  0 
 3.263942e-03  -9.559191e-03  0 
 3.413654e-03  -6.911152e-03  0 
 5.007174e-03  -3.424206e-03  0 
 4.973212e-03  -3.675180e-03  0 
 4.562698e-03  -3.959147e-03  0 
 6.993645e-04  -4.259433e-03  0 
 3.774089e-03  -3.329646e-03  0 
 2.452246e-03  -6.168752e-03  0 
 4.000123e-03  -3.730722e-03  0 
 -4.696802e-04  -4.135330e-03  0 
 3.727709e-03  -4.366451e-03  0 
 3.238864e-03  -3.895479e-03  0 
 1.604075e-03  -3.496773e-03  0 
 2.046757e-03  -3.145798e-03  0 
 2.867482e-03  -3.442165e-03  0 
 3.670382e-03  -5.488827e-03  0 
 4.588705e-03  -4.114124e-03  0 
 1.447747e-03  -7.805288e-03  0 
 9.299769e-04  -9.601134e-03  0 
 -2.805299e-04  -6.181968e-03  0 
 -8.919116e-04  -8.251918e-03  0 
 1.761395e-03  -5.914784e-03  0 
 4.413710e-03  -3.256321e-03  0 
 5.009601e-03  -3.495418e-03  0 
 5.063599e-03  -3.490091e-03  0 
 4.991981e-03  -3.412605e-03  0 
 5.041154e-03  -3.515522e-03  0 
 1.031762e-02  6.311530e-04  0 
 5.744939e-03  -2.180911e-03  0 
VECTORS displacement_ITER12 FLOAT
 6.838428e-03  -2.694803e-03  0 
 5.548651e-03  -3.458781e-03  0 
 5.136157e-03  -9.120625e-03  0 
 5.293206e-03  -6.386556e-03  0 
 6.969199e-03  -2.783878e-03  0 
 6.930444e-03  -3.045668e-03  0 
 6.496701e-03  -3.340119e-03  0 
 2.488370e-03  -3.647025e-03  0 
 5.669160e-03  -2.679514e-03  0 
 5.227069e-03  -5.052854e-03  0 
 6.061640e-03  -2.618530e-03  0 
 2.757853e-03  -2.722208e-03  0 
 6.032190e-03  -3.458938e-03  0 
 4.638291e-03  -1.064762e-03  0 
 4.177031e-03  -1.905145e-03  0 
 3.950121e-03  -2.699901e-04  0 
 5.048960e-03  -1.746638e-03  0 
 5.992943e-03  -4.576045e-03  0 
 6.268432e-03  -2.577019e-03  0 
 3.262356e-03  -7.311863e-03  0 
 2.726466e-03  -9.167858e-03  0 
 1.476568e-03  -5.634549e-03  0 
 8.444243e-04  -7.773897e-03  0 
 3.586951e-03  -5.358846e-03  0 
 6.338794e-03  -2.601673e-03  0 
 6.972012e-03  -2.857129e-03  0 
 7.026141e-03  -2.850675e-03  0 
 6.947219e-03  -2.766454e-03  0 
 7.002163e-03  -2.872826e-03  0 
 9.623914e-03  1.563352e-03  0 
 6.657947e-03  -1.696387e-03  0 
VECTORS displacement_ITER13 FLOAT
 2.404393e-03  7.454757e-04  0 
 2.586414e-03  -2.746835e-05  0 
 2.165531e-03  -2.719285e-03  0 
 2.326635e-03  -1.472083e-03  0 
 2.909121e-03  6.563776e-04  0 
 3.240633e-03  3.918266e-04  0 
 3.172644e-03  9.397936e-05  0 
 1.005575e-03  -2.163306e-04  0 
 2.712143e-03  3.836040e-04  0 
 2.461867e-03  -3.285775e-04  0 
 2.621124e-03  9.039068e-04  0 
 1.099889e-03  1.577678e-03  0 
 2.747358e-03  3.685801e-04  0 
 2.338046e-03  1.460995e-03  0 
 1.696178e-03  1.567366e-03  0 
 1.720998e-03  2.182557e-03  0 
 2.134533e-03  1.467348e-03  0 
 2.894364e-03  -3.938953e-04  0 
 2.701612e-03  5.222083e-04  0 
 1.354975e-03  -1.948358e-03  0 
 1.095969e-03  -2.768508e-03  0 
 5.385373e-04  -1.185297e-03  0 
 2.654189e-04  -2.150571e-03  0 
 1.535230e-03  -1.042585e-03  0 
 3.095892e-03  4.596479e-04  0 
 2.829371e-03  2.040225e-04  0 
 3.156573e-03  3.374310e-04  0 
 3.355064e-03  3.137188e-04  0 
 3.051413e-03  -4.667542e-05  0 
 5.249612e-03  3.282525e-03  0 
 3.483338e-03  1.046419e-03  0 
VECTORS displacement_ITER14 FLOAT
 2.248459e-03  -4.936743e-04  0 
 1.262573e-03  -1.273981e-03  0 
 8.383494e-04  -1.627499e-03  0 
 1.000931e-03  -1.551154e-03  0 
 2.463367e-03  -5.838668e-04  0 
 2.501938e-03  -8.501320e-04  0 
 2.140199e-03  -1.149096e-03  0 
 8.478560e-04  -1.463236e-03  0 
 1.392380e-03  -5.744593e-04  0 
 1.402992e-03  -8.937961e-04  0 
 2.285606e-03  -3.015846e-04  0 
 8.104659e-04  2.695125e-04  0 
 1.945021e-03  -6.777460e-04  0 
 2.499916e-03  5.572993e-05  0 
 1.317272e-03  1.781210e-06  0 
 1.569133e-03  1.747923e-04  0 
 1.827376e-03  -1.246997e-05  0 
 1.682245e-03  -1.199155e-03  0 
 2.513306e-03  -7.018366e-04  0 
 8.640423e-04  -1.672162e-03  0 
 8.244953e-04  -1.675875e-03  0 
 8.112126e-04  -1.628876e-03  0 
 8.222207e-04  -1.667370e-03  0 
 9.295444e-04  -1.591746e-03  0 
 2.001210e-03  -4.875218e-04  0 
 2.448106e-03  -7.388869e-04  0 
 2.561045e-03  -7.054813e-04  0 
 2.539109e-03  -6.437048e-04  0 
 2.519947e-03  -8.036633e-04  0 
 1.645553e-03  2.101065e-03  0 
 1.499739e-03  -4.061850e-04  0 
VECTORS displacement_ITER15 FLOAT
 2.935342e-03  -6.637573e-04  0 
 1.801068e-03  -1.453177e-03  0 
 1.377670e-03  -8.706654e-04  0 
 1.539250e-03  -1.263985e-03  0 
 3.113181e-03  -7.545035e-04  0 
 3.113391e-03  -1.021888e-03  0 
 2.713931e-03  -1.322742e-03  0 
 1.854512e-03  -1.644790e-03  0 
 1.933006e-03  -7.164677e-04  0 
 1.858053e-03  -1.055039e-03  0 
 3.113231e-03  -5.029162e-04  0 
 1.616401e-03  -7.732750e-04  0 
 2.599514e-03  -8.405618e-04  0 
 3.718449e-03  -4.267265e-04  0 
 2.189348e-03  -7.129492e-04  0 
 2.584641e-03  -8.587803e-04  0 
 2.733373e-03  -5.243013e-04  0 
 2.139917e-03  -1.277217e-03  0 
 3.341503e-03  -9.448391e-04  0 
 1.737916e-03  -1.240982e-03  0 
 1.788085e-03  -9.160951e-04  0 
 1.992067e-03  -1.486716e-03  0 
 2.118839e-03  -1.150522e-03  0 
 1.756270e-03  -1.492486e-03  0 
 2.569663e-03  -6.255732e-04  0 
 3.106424e-03  -8.704080e-04  0 
 3.191403e-03  -8.506573e-04  0 
 3.141004e-03  -7.786947e-04  0 
 3.158969e-03  -9.104247e-04  0 
 -2.200407e-04  2.458781e-03  0 
 1.252647e-03  -7.886245e-04  0 
VECTORS displacement_ITER16 FLOAT
 1.284866e-03  -1.416807e-03  0 
 2.312600e-03  -2.211637e-03  0 
 1.886952e-03  -1.765642e-03  0 
 2.049241e-03  -2.091876e-03  0 
 2.004527e-03  -1.507312e-03  0 
 2.546037e-03  -1.775389e-03  0 
 2.687160e-03  -2.078002e-03  0 
 2.296749e-03  -2.405135e-03  0 
 2.446289e-03  -2.012600e-03  0 
 1.989248e-03  -1.874932e-03  0 
 2.257608e-03  -1.145991e-03  0 
 1.709082e-03  -1.740435e-03  0 
 2.312589e-03  -1.563552e-03  0 
 2.716643e-03  -1.024478e-03  0 
 1.884755e-03  -1.421222e-03  0 
 1.935079e-03  -1.455430e-03  0 
 2.097994e-03  -1.162220e-03  0 
 2.315165e-03  -2.043675e-03  0 
 2.118661e-03  -1.571230e-03  0 
 2.199878e-03  -2.089656e-03  0 
 2.237863e-03  -1.811463e-03  0 
 2.410009e-03  -2.293751e-03  0 
 2.521122e-03  -2.010102e-03  0 
 2.224689e-03  -2.293530e-03  0 
 2.662747e-03  -1.930941e-03  0 
 1.878383e-03  -2.175222e-03  0 
 2.360439e-03  -1.970407e-03  0 
 2.716641e-03  -2.056850e-03  0 
 2.209618e-03  -2.557550e-03  0 
 -8.812822e-04  1.606247e-03  0 
 1.396997e-03  -1.856552e-03  0 
VECTORS displacement_ITER17 FLOAT
 -3.464892e-04  -4.631996e-04  0 
 1.469982e-03  -1.257570e-03  0 
 1.041130e-03  -8.477996e-04  0 
 1.204877e-03  -1.156439e-03  0 
 5.695130e-04  -5.534890e-04  0 
 1.307836e-03  -8.210078e-04  0 
 1.646594e-03  -1.123296e-03  0 
 1.435198e-03  -1.452854e-03  0 
 1.606158e-03  -1.258719e-03  0 
 1.128243e-03  -9.057296e-04  0 
 8.844278e-04  -2.415576e-04  0 
 9.484117e-04  -7.635230e-04  0 
 1.199279e-03  -6.549463e-04  0 
 1.138470e-03  -1.013583e-04  0 
 8.330076e-04  -5.256181e-04  0 
 6.728407e-04  -4.782887e-04  0 
 8.394480e-04  -2.703363e-04  0 
 1.396146e-03  -1.073779e-03  0 
 5.633513e-04  -5.899086e-04  0 
 1.342427e-03  -1.160612e-03  0 
 1.376596e-03  -8.947195e-04  0 
 1.541128e-03  -1.354186e-03  0 
 1.647399e-03  -1.084810e-03  0 
 1.369638e-03  -1.351695e-03  0 
 1.666317e-03  -1.178461e-03  0 
 4.000582e-04  -1.421662e-03  0 
 1.026164e-03  -1.149607e-03  0 
 1.530290e-03  -1.293667e-03  0 
 8.323383e-04  -1.928218e-03  0 
 -4.569603e-04  -1.787832e-04  0 
 8.544696e-04  -1.335707e-03  0 
VECTORS displacement_ITER18 FLOAT
 1.023654e-03  -5.056537e-04  0 
 5.657614e-04  -1.289901e-03  0 
 1.369359e-04  -3.390815e-04  0 
 3.006624e-04  -9.176080e-04  0 
 1.364929e-03  -5.967918e-04  0 
 1.530104e-03  -8.612210e-04  0 
 1.301362e-03  -1.158194e-03  0 
 8.022258e-04  -1.486154e-03  0 
 7.041521e-04  -7.355438e-04  0 
 7.642943e-04  -7.313605e-04  0 
 1.323788e-03  -4.371512e-04  0 
 8.499726e-04  -6.593787e-04  0 
 1.213374e-03  -7.078682e-04  0 
 1.007345e-03  3.016978e-04  0 
 1.007086e-03  -5.828999e-04  0 
 8.007457e-04  -5.674107e-05  0 
 1.127331e-03  -3.278289e-04  0 
 8.837468e-04  -9.916331e-04  0 
 1.098401e-03  -4.434705e-04  0 
 6.306427e-04  -8.396843e-04  0 
 7.152094e-04  -3.847073e-04  0 
 1.006324e-03  -1.200928e-03  0 
 1.177291e-03  -7.168406e-04  0 
 6.319611e-04  -1.221933e-03  0 
 1.197573e-03  -6.409666e-04  0 
 1.322726e-03  -8.795887e-04  0 
 1.526871e-03  -8.037158e-04  0 
 1.600611e-03  -7.806355e-04  0 
 1.458758e-03  -1.021961e-03  0 
 1.344618e-03  -3.714612e-03  0 
 6.627325e-04  -1.600709e-03  0 
VECTORS displacement_ITER19 FLOAT
 3.258044e-04  -1.345460e-03  0 
 1.263164e-03  -2.112646e-03  0 
 8.336841e-04  -2.039035e-03  0 
 9.978181e-04  -2.177488e-03  0 
 1.010436e-03  -1.435752e-03  0 
 1.521090e-03  -1.695467e-03  0 
 1.643938e-03  -1.985860e-03  0 
 1.058904e-03  -2.304973e-03  0 
 1.402291e-03  -1.915536e-03  0 
 1.200641e-03  -1.754011e-03  0 
 1.018515e-03  -1.125183e-03  0 
 9.449751e-04  -1.470049e-03  0 
 1.389079e-03  -1.496368e-03  0 
 2.188403e-04  9.370221e-05  0 
 1.010470e-03  -1.019645e-03  0 
 4.838236e-04  -2.643629e-05  0 
 9.273890e-04  -7.536667e-04  0 
 1.397746e-03  -1.938620e-03  0 
 4.460199e-04  -9.987635e-04  0 
 1.013871e-03  -2.233758e-03  0 
 1.015545e-03  -2.086372e-03  0 
 1.101001e-03  -2.323192e-03  0 
 1.164583e-03  -2.188419e-03  0 
 1.058664e-03  -2.305435e-03  0 
 1.616636e-03  -1.828891e-03  0 
 8.924767e-04  -2.069857e-03  0 
 1.348171e-03  -1.875384e-03  0 
 1.681323e-03  -1.953381e-03  0 
 1.204705e-03  -2.429514e-03  0 
 1.099245e-03  -2.021538e-03  0 
 1.145763e-03  -2.100951e-03  0 
VECTORS displacement_ITER20 FLOAT
 8.931193e-04  -1.573140e-03  0 
 1.659898e-03  -2.318845e-03  0 
 1.231622e-03  -2.440620e-03  0 
 1.395178e-03  -2.479881e-03  0 
 1.523544e-03  -1.662402e-03  0 
 1.984490e-03  -1.915156e-03  0 
 2.069071e-03  -2.196583e-03  0 
 1.357308e-03  -2.507945e-03  0 
 1.800912e-03  -2.095869e-03  0 
 1.503503e-03  -2.147907e-03  0 
 1.518121e-03  -1.400208e-03  0 
 1.160801e-03  -1.994730e-03  0 
 1.805227e-03  -1.775477e-03  0 
 8.527609e-04  -3.979201e-04  0 
 1.376071e-03  -1.420508e-03  0 
 9.947397e-04  -6.072139e-04  0 
 1.395465e-03  -1.127403e-03  0 
 1.763544e-03  -2.237149e-03  0 
 1.012358e-03  -1.310359e-03  0 
 1.340857e-03  -2.565829e-03  0 
 1.323892e-03  -2.487674e-03  0 
 1.362731e-03  -2.594006e-03  0 
 1.401699e-03  -2.537623e-03  0 
 1.395469e-03  -2.568087e-03  0 
 2.034545e-03  -2.007327e-03  0 
 1.417094e-03  -2.243211e-03  0 
 1.833754e-03  -2.066280e-03  0 
 2.130605e-03  -2.131675e-03  0 
 1.702079e-03  -2.570669e-03  0 
 1.394927e-03  -1.068653e-03  0 
 1.546352e-03  -2.108453e-03  0 
VECTORS displacement_ITER21 FLOAT
 1.049117e-03  -8.443353e-04  0 
 1.386618e-03  -1.562362e-03  0 
 9.600765e-04  -6.632966e-04  0 
 1.123189e-03  -1.211478e-03  0 
 1.553813e-03  -9.322142e-04  0 
 1.896133e-03  -1.175448e-03  0 
 1.879420e-03  -1.444925e-03  0 
 1.595155e-03  -1.748243e-03  0 
 1.530908e-03  -1.258904e-03  0 
 1.100437e-03  -1.193973e-03  0 
 1.582932e-03  -8.033329e-04  0 
 9.512931e-04  -1.185318e-03  0 
 1.549898e-03  -1.050956e-03  0 
 1.616766e-03  -7.606100e-04  0 
 1.192177e-03  -1.090383e-03  0 
 1.256723e-03  -1.185395e-03  0 
 1.410514e-03  -8.934880e-04  0 
 1.411980e-03  -1.377053e-03  0 
 1.393066e-03  -9.808826e-04  0 
 1.432449e-03  -1.142425e-03  0 
 1.510314e-03  -7.096115e-04  0 
 1.786234e-03  -1.483979e-03  0 
 1.947065e-03  -1.025719e-03  0 
 1.437533e-03  -1.503966e-03  0 
 1.825932e-03  -1.164879e-03  0 
 1.474304e-03  -1.387684e-03  0 
 1.800459e-03  -1.253039e-03  0 
 2.010251e-03  -1.287880e-03  0 
 1.696792e-03  -1.640304e-03  0 
 2.431033e-03  -1.389576e-03  0 
 1.811949e-03  -1.418467e-03  0 
VECTORS displacement_ITER22 FLOAT
 8.092985e-04  -1.001019e-03  0 
 1.931867e-03  -1.705959e-03  0 
 1.503541e-03  -1.767098e-03  0 
 1.667378e-03  -1.834346e-03  0 
 1.501814e-03  -1.088775e-03  0 
 2.035249e-03  -1.327723e-03  0 
 2.218254e-03  -1.591206e-03  0 
 1.658509e-03  -1.890366e-03  0 
 2.079297e-03  -1.612398e-03  0 
 1.500917e-03  -1.616512e-03  0 
 1.596079e-03  -8.620080e-04  0 
 1.062679e-03  -1.404158e-03  0 
 1.787738e-03  -1.230730e-03  0 
 1.596391e-03  -7.108148e-04  0 
 1.271227e-03  -1.068298e-03  0 
 1.248433e-03  -1.020293e-03  0 
 1.445432e-03  -8.527654e-04  0 
 1.869045e-03  -1.683605e-03  0 
 1.322629e-03  -1.072568e-03  0 
 1.633361e-03  -1.911978e-03  0 
 1.620942e-03  -1.814436e-03  0 
 1.672576e-03  -1.957242e-03  0 
 1.716561e-03  -1.879639e-03  0 
 1.686043e-03  -1.934332e-03  0 
 2.209967e-03  -1.519908e-03  0 
 1.380952e-03  -1.737077e-03  0 
 1.845204e-03  -1.538077e-03  0 
 2.199119e-03  -1.630765e-03  0 
 1.700892e-03  -2.110402e-03  0 
 2.859568e-03  -1.694940e-03  0 
 2.255700e-03  -1.537899e-03  0 
VECTORS displacement_ITER23 FLOAT
 7.227307e-04  -1.307342e-03  0 
 2.421674e-03  -1.999520e-03  0 
 1.992087e-03  -2.768377e-03  0 
 2.156555e-03  -2.481240e-03  0 
 1.549619e-03  -1.394920e-03  0 
 2.221328e-03  -1.629157e-03  0 
 2.552135e-03  -1.886532e-03  0 
 1.793504e-03  -2.183047e-03  0 
 2.571942e-03  -2.064070e-03  0 
 1.884505e-03  -2.078104e-03  0 
 1.664224e-03  -1.060602e-03  0 
 1.201395e-03  -1.662967e-03  0 
 2.051372e-03  -1.517609e-03  0 
 1.503292e-03  -6.457642e-04  0 
 1.401557e-03  -1.122640e-03  0 
 1.244740e-03  -8.212721e-04  0 
 1.523561e-03  -8.960013e-04  0 
 2.297003e-03  -2.082820e-03  0 
 1.289015e-03  -1.248772e-03  0 
 1.869666e-03  -2.667015e-03  0 
 1.790824e-03  -2.816502e-03  0 
 1.677142e-03  -2.493911e-03  0 
 1.635135e-03  -2.696796e-03  0 
 1.957363e-03  -2.439313e-03  0 
 2.578264e-03  -1.971990e-03  0 
 1.399186e-03  -2.181781e-03  0 
 1.962531e-03  -1.936677e-03  0 
 2.421180e-03  -2.072087e-03  0 
 1.789210e-03  -2.642229e-03  0 
 3.154664e-03  -2.217581e-03  0 
 2.617721e-03  -1.832127e-03  0 
VECTORS displacement_ITER24 FLOAT
 1.181065e-03  -1.573903e-03  0 
 1.619793e-03  -2.237921e-03  0 
 1.191751e-03  -1.873830e-03  0 
 1.356229e-03  -2.152242e-03  0 
 1.669327e-03  -1.661032e-03  0 
 2.011380e-03  -1.884373e-03  0 
 2.034389e-03  -2.128008e-03  0 
 1.559877e-03  -2.419686e-03  0 
 1.774265e-03  -2.020275e-03  0 
 1.192988e-03  -1.925506e-03  0 
 1.630926e-03  -1.371631e-03  0 
 7.009988e-04  -1.494670e-03  0 
 1.631506e-03  -1.672225e-03  0 
 1.598504e-03  -1.093710e-03  0 
 1.066882e-03  -1.378382e-03  0 
 1.123830e-03  -1.320538e-03  0 
 1.367931e-03  -1.247786e-03  0 
 1.595857e-03  -2.129298e-03  0 
 1.496352e-03  -1.582512e-03  0 
 1.473369e-03  -2.166065e-03  0 
 1.500294e-03  -1.921192e-03  0 
 1.650136e-03  -2.341265e-03  0 
 1.744233e-03  -2.097217e-03  0 
 1.505832e-03  -2.337222e-03  0 
 1.998373e-03  -1.916694e-03  0 
 1.593365e-03  -2.106086e-03  0 
 1.910079e-03  -1.976444e-03  0 
 2.123753e-03  -2.021044e-03  0 
 1.811630e-03  -2.357493e-03  0 
 3.403056e-03  -4.296576e-03  0 
 2.162197e-03  -2.203728e-03  0 
VECTORS displacement_ITER25 FLOAT
 1.376457e-03  -1.721553e-03  0 
 1.531389e-03  -2.371018e-03  0 
 1.103040e-03  -1.865274e-03  0 
 1.268026e-03  -2.214232e-03  0 
 1.779742e-03  -1.809670e-03  0 
 2.041832e-03  -2.027100e-03  0 
 1.998591e-03  -2.262418e-03  0 
 1.542330e-03  -2.551912e-03  0 
 1.688492e-03  -2.101321e-03  0 
 1.177223e-03  -1.925153e-03  0 
 1.671471e-03  -1.455513e-03  0 
 6.865098e-04  -1.389365e-03  0 
 1.647982e-03  -1.737146e-03  0 
 1.445012e-03  -8.856228e-04  0 
 1.093254e-03  -1.307103e-03  0 
 1.079491e-03  -1.036121e-03  0 
 1.385401e-03  -1.200920e-03  0 
 1.558613e-03  -2.201966e-03  0 
 1.516919e-03  -1.563964e-03  0 
 1.435674e-03  -2.206893e-03  0 
 1.475940e-03  -1.912706e-03  0 
 1.658336e-03  -2.425243e-03  0 
 1.769568e-03  -2.125514e-03  0 
 1.461285e-03  -2.427575e-03  0 
 1.951470e-03  -1.993594e-03  0 
 1.723096e-03  -2.169905e-03  0 
 1.977776e-03  -2.069657e-03  0 
 2.132705e-03  -2.094621e-03  0 
 1.898789e-03  -2.370140e-03  0 
 2.585854e-03  -3.669457e-03  0 
 1.854535e-03  -2.227359e-03  0 
VECTORS displacement_ITER26 FLOAT
 6.270639e-04  -1.797660e-03  0 
 1.795640e-03  -2.437093e-03  0 
 1.365604e-03  -2.180902e-03  0 
 1.531574e-03  -2.405154e-03  0 
 1.272785e-03  -1.886875e-03  0 
 1.781526e-03  -2.099919e-03  0 
 1.995964e-03  -2.329079e-03  0 
 1.681123e-03  -2.617825e-03  0 
 1.954807e-03  -2.434096e-03  0 
 1.328076e-03  -1.953025e-03  0 
 1.277833e-03  -1.398131e-03  0 
 7.536588e-04  -1.275310e-03  0 
 1.551965e-03  -1.727754e-03  0 
 9.493042e-04  -6.450908e-04  0 
 9.775487e-04  -1.091677e-03  0 
 8.018383e-04  -6.614894e-04  0 
 1.104049e-03  -1.011171e-03  0 
 1.706283e-03  -2.254086e-03  0 
 9.326168e-04  -1.492010e-03  0 
 1.610252e-03  -2.436366e-03  0 
 1.627220e-03  -2.229116e-03  0 
 1.751311e-03  -2.577542e-03  0 
 1.832542e-03  -2.376692e-03  0 
 1.648249e-03  -2.568675e-03  0 
 2.008110e-03  -2.329874e-03  0 
 1.163264e-03  -2.495807e-03  0 
 1.595977e-03  -2.313224e-03  0 
 1.937203e-03  -2.413721e-03  0 
 1.464870e-03  -2.852053e-03  0 
 1.630629e-03  -1.928094e-03  0 
 1.807059e-03  -2.142026e-03  0 
VECTORS displacement_ITER27 FLOAT
 9.364420e-04  -1.793428e-03  0 
 1.459193e-03  -2.421742e-03  0 
 1.028745e-03  -1.482122e-03  0 
 1.195097e-03  -2.048150e-03  0 
 1.406552e-03  -1.884031e-03  0 
 1.744862e-03  -2.091980e-03  0 
 1.802248e-03  -2.314006e-03  0 
 1.687555e-03  -2.603665e-03  0 
 1.621356e-03  -2.276520e-03  0 
 1.093249e-03  -1.748544e-03  0 
 1.372205e-03  -1.450511e-03  0 
 7.323022e-04  -1.213335e-03  0 
 1.435701e-03  -1.700155e-03  0 
 1.177172e-03  -8.489837e-04  0 
 9.731698e-04  -1.233452e-03  0 
 9.034023e-04  -9.836452e-04  0 
 1.163376e-03  -1.165323e-03  0 
 1.429332e-03  -2.126236e-03  0 
 1.152012e-03  -1.546710e-03  0 
 1.517843e-03  -1.975545e-03  0 
 1.598972e-03  -1.529329e-03  0 
 1.882832e-03  -2.327791e-03  0 
 2.046810e-03  -1.855771e-03  0 
 1.522564e-03  -2.349149e-03  0 
 1.783960e-03  -2.165459e-03  0 
 1.336296e-03  -2.315611e-03  0 
 1.640870e-03  -2.193943e-03  0 
 1.855692e-03  -2.249005e-03  0 
 1.549302e-03  -2.564251e-03  0 
 2.014868e-03  -2.855632e-03  0 