# vtk DataFile Version 3.1
this is an vtk file created by FEMAC
ASCII
DATASET UNSTRUCTURED_GRID
POINTS 20 FLOAT
2.000000 1.000000 0.000000
2.000000 2.000000 0.000000
1.666667 1.000000 0.000000
1.666667 2.000000 0.000000
2.000000 1.333333 0.000000
2.000000 1.666667 0.000000
2.333333 1.000000 0.000000
1.335792 1.499955 0.000000
1.813580 1.816049 0.000000
1.746122 1.538348 0.000000
1.513673 1.780627 0.000000
1.652541 1.256384 0.000000
1.331389 1.181612 0.000000
2.472948 1.265001 0.000000
2.285974 1.523802 0.000000
2.690581 1.518186 0.000000
2.759097 1.220626 0.000000
2.496093 1.784776 0.000000
2.214413 1.238185 0.000000
2.223080 1.795049 0.000000
CELLS 25 100 
3 3 8 1
3 8 5 1
3 9 4 5
3 8 9 5
3 10  8  3
3 9  8 10
3 9 10  7
3 11  2  0
3 4 11  0
3 9 11  4
3 7 11  9
3 7 12 11
3 2 11 12
3 15 14 13
3 5  4 14
3 15 13 16
3 17 14 15
3 6 18  0
3 18  6 13
3 18  4  0
3 18 14  4
3 13 14 18
3 5 19  1
3 19  5 14
3 14 17 19
CELL_TYPES 25
5 5 5 5 5 5 5 5 5 5 5 5 5 5 5 5 5 5 5 5 5 5 5 5 5 
POINT_DATA 20
VECTORS displacement_ITER1 FLOAT
 1.548362e-01  4.471443e-02  0 
 1.878920e-01  4.504568e-02  0 
 1.551050e-01  5.623608e-02  0 
 1.879814e-01  5.622691e-02  0 
 1.663748e-01  4.498014e-02  0 
 1.772834e-01  4.528286e-02  0 
 -1.579863e-01  -4.361664e-01  0 
 1.718502e-01  6.715202e-02  0 
 1.820018e-01  5.129805e-02  0 
 1.731761e-01  5.355770e-02  0 
 1.809372e-01  6.108613e-02  0 
 1.638732e-01  5.679706e-02  0 
 1.614599e-01  6.754644e-02  0 
 6.941093e-02  -1.893116e-01  0 
 1.744701e-01  -2.192514e-02  0 
 1.233877e-01  -2.059792e-01  0 
 5.365998e-02  -2.403451e-01  0 
 2.231267e-01  -7.470650e-02  0 
 1.479519e-01  -4.325853e-02  0 
 2.023643e-01  -6.621616e-03  0 
VECTORS displacement_ITER2 FLOAT
 1.465002e-02  -1.537077e-02  0 
 -5.212388e-03  -1.592383e-02  0 
 1.480392e-02  -2.176883e-02  0 
 -4.690588e-03  -2.160567e-02  0 
 8.202745e-03  -1.527713e-02  0 
 1.570604e-03  -1.537501e-02  0 
 -7.686153e-03  -5.930950e-02  0 
 4.822908e-03  -2.825876e-02  0 
 -1.543187e-03  -1.921586e-02  0 
 4.075591e-03  -2.030776e-02  0 
 -7.703581e-04  -2.482643e-02  0 
 9.736388e-03  -2.201218e-02  0 
 1.127886e-02  -2.829477e-02  0 
 -4.042052e-05  -3.468775e-02  0 
 4.563289e-03  -2.184109e-02  0 
 8.087428e-04  -3.522797e-02  0 
 -2.540677e-03  -3.938502e-02  0 
 5.261146e-03  -2.559862e-02  0 
 8.785724e-03  -2.562304e-02  0 
 2.490540e-03  -2.039926e-02  0 
VECTORS displacement_ITER3 FLOAT
 2.002785e-03  -3.116657e-03  0 
 -2.144614e-03  -3.555407e-03  0 
 2.233085e-03  -4.259311e-03  0 
 -1.722941e-03  -4.236310e-03  0 
 9.148326e-04  -3.008635e-03  0 
 -4.803078e-04  -3.050653e-03  0 
 -3.646170e-04  1.344515e-03  0 
 1.641312e-04  -5.539540e-03  0 
 -1.280471e-03  -3.996167e-03  0 
 3.303391e-05  -4.033663e-03  0 
 -1.052314e-03  -4.969923e-03  0 
 1.236031e-03  -4.243644e-03  0 
 1.580111e-03  -5.405064e-03  0 
 4.536695e-05  -7.936906e-03  0 
 2.376103e-04  -6.904238e-03  0 
 9.224688e-04  -1.118616e-02  0 
 -2.621066e-03  -1.436129e-02  0 
 1.045714e-03  -9.985954e-03  0 
 -5.163430e-04  -3.893582e-03  0 
 2.149958e-04  -6.602897e-03  0 
VECTORS displacement_ITER4 FLOAT
 1.978408e-03  -1.762172e-04  0 
 -3.336666e-03  -5.773477e-04  0 
 2.244668e-03  -1.763293e-03  0 
 -2.875576e-03  -1.670536e-03  0 
 5.205628e-04  -8.015998e-05  0 
 -1.256894e-03  -1.128096e-04  0 
 9.280546e-04  -1.014769e-03  0 
 -4.091296e-04  -3.377062e-03  0 
 -2.229556e-03  -1.272225e-03  0 
 -5.945186e-04  -1.395241e-03  0 
 -1.954936e-03  -2.587268e-03  0 
 9.321818e-04  -1.726505e-03  0 
 1.390706e-03  -3.284374e-03  0 
 -9.017470e-04  -6.622195e-03  0 
 -3.891715e-04  -4.786443e-03  0 
 3.626716e-04  -1.040691e-02  0 
 -4.196664e-03  -1.470129e-02  0 
 7.197493e-04  -8.383260e-03  0 
 -4.058956e-04  -3.040999e-03  0 
 -4.066577e-04  -4.182879e-03  0 
VECTORS displacement_ITER5 FLOAT
 -7.685740e-04  -1.141392e-03  0 
 -2.201724e-03  -1.237729e-03  0 
 -5.196312e-04  -1.297931e-03  0 
 -1.787073e-03  -1.192700e-03  0 
 -8.031884e-04  -9.079511e-04  0 
 -1.280245e-03  -8.073028e-04  0 
 -1.029192e-03  -2.771002e-03  0 
 -9.915205e-04  -1.506247e-03  0 
 -1.714147e-03  -1.266058e-03  0 
 -1.075447e-03  -1.141583e-03  0 
 -1.559345e-03  -1.424782e-03  0 
 -6.490976e-04  -1.149353e-03  0 
 -4.359003e-04  -1.371220e-03  0 
 -1.475241e-03  -7.381186e-03  0 
 -1.340065e-03  -5.915912e-03  0 
 -1.954285e-03  -9.241036e-03  0 
 -1.335178e-03  -8.646424e-03  0 
 -1.236160e-03  -7.204638e-03  0 
 -1.608966e-03  -4.275987e-03  0 
 -9.006127e-04  -4.334647e-03  0 
VECTORS displacement_ITER6 FLOAT
 -2.007830e-03  -2.382944e-03  0 
 -1.149384e-03  -2.524970e-03  0 
 -1.748080e-03  -1.742359e-03  0 
 -7.756327e-04  -1.785999e-03  0 
 -1.227784e-03  -2.136460e-03  0 
 -9.498198e-04  -2.064770e-03  0 
 -2.408260e-03  -4.616049e-03  0 
 -1.116540e-03  -1.202672e-03  0 
 -1.060959e-03  -2.124670e-03  0 
 -1.051336e-03  -1.802988e-03  0 
 -9.992804e-04  -1.597097e-03  0 
 -1.256987e-03  -1.537574e-03  0 
 -1.178517e-03  -1.013285e-03  0 
 -1.983619e-03  -8.085966e-03  0 
 -1.549487e-03  -6.932642e-03  0 
 -2.717660e-03  -8.762760e-03  0 
 -1.437951e-03  -7.248604e-03  0 
 -1.561933e-03  -7.282662e-03  0 
 -2.135932e-03  -5.490219e-03  0 
 -7.487638e-04  -5.167499e-03  0 
VECTORS displacement_ITER7 FLOAT
 -1.600919e-03  -2.493765e-03  0 
 -1.167259e-03  -2.599901e-03  0 
 -1.333364e-03  -1.994343e-03  0 
 -7.855257e-04  -2.017084e-03  0 
 -9.506204e-04  -2.247593e-03  0 
 -8.200574e-04  -2.167139e-03  0 
 -1.967586e-03  -4.567160e-03  0 
 -9.311693e-04  -1.596284e-03  0 
 -9.897088e-04  -2.299552e-03  0 
 -8.620570e-04  -2.024278e-03  0 
 -8.994410e-04  -1.923619e-03  0 
 -9.514026e-04  -1.787203e-03  0 
 -8.351570e-04  -1.405578e-03  0 
 -1.873911e-03  -7.723789e-03  0 
 -1.272439e-03  -6.621861e-03  0 
 -2.289851e-03  -8.679443e-03  0 
 -2.179034e-03  -8.504320e-03  0 
 -1.515157e-03  -6.580948e-03  0 
 -1.860104e-03  -5.423078e-03  0 
 -7.748583e-04  -4.896860e-03  0 
VECTORS displacement_ITER8 FLOAT
 -1.978042e-03  -2.677296e-03  0 
 -1.046908e-03  -2.789203e-03  0 
 -1.709709e-03  -2.020030e-03  0 
 -6.705097e-04  -2.029447e-03  0 
 -1.169464e-03  -2.431079e-03  0 
 -8.774979e-04  -2.355651e-03  0 
 -2.349220e-03  -4.910712e-03  0 
 -1.072592e-03  -1.468204e-03  0 
 -9.674055e-04  -2.389348e-03  0 
 -9.839344e-04  -2.086987e-03  0 
 -8.895215e-04  -1.862444e-03  0 
 -1.206160e-03  -1.805766e-03  0 
 -1.124281e-03  -1.274452e-03  0 
 -2.066919e-03  -8.052857e-03  0 
 -1.367885e-03  -6.909713e-03  0 
 -2.350689e-03  -9.082236e-03  0 
 -1.983030e-03  -8.403069e-03  0 
 -1.430371e-03  -6.956809e-03  0 
 -2.095123e-03  -5.677073e-03  0 
 -7.432196e-04  -5.209804e-03  0 
VECTORS displacement_ITER9 FLOAT
 -1.931310e-03  -2.663030e-03  0 
 -1.153786e-03  -2.775074e-03  0 
 -1.663645e-03  -2.055751e-03  0 
 -7.799705e-04  -2.068855e-03  0 
 -1.173557e-03  -2.416330e-03  0 
 -9.327023e-04  -2.340884e-03  0 
 -2.302587e-03  -4.840274e-03  0 
 -1.101737e-03  -1.556037e-03  0 
 -1.045910e-03  -2.403541e-03  0 
 -1.019484e-03  -2.111003e-03  0 
 -9.630351e-04  -1.922387e-03  0 
 -1.198184e-03  -1.844337e-03  0 
 -1.107134e-03  -1.358207e-03  0 
 -2.071856e-03  -8.012115e-03  0 
 -1.371947e-03  -6.910195e-03  0 
 -2.233902e-03  -9.045223e-03  0 
 -2.153874e-03  -8.639545e-03  0 
 -1.500977e-03  -6.997626e-03  0 
 -2.095217e-03  -5.648052e-03  0 
 -7.829406e-04  -5.241167e-03  0 
CELL_DATA 25
TENSORS element_stresses FLOAT
 -1.190373e+00  -1.206615e+00  0 
 -1.206615e+00  -2.297574e-01  0 
 0  0  0 

 -3.461293e-01  -1.054556e+00  0 
 -1.054556e+00  -1.406410e+00  0 
 0  0  0 

 4.892104e-02  -2.287025e-01  0 
 -2.287025e-01  2.410163e-01  0 
 0  0  0 

 1.752293e-01  -4.833714e-01  0 
 -4.833714e-01  -8.975575e-01  0 
 0  0  0 

 -2.868477e-01  -4.176958e-01  0 
 -4.176958e-01  4.056762e-01  0 
 0  0  0 

 -5.251855e-01  -1.194229e+00  0 
 -1.194229e+00  -8.408643e-01  0 
 0  0  0 

 2.311559e-02  -7.058763e-01  0 
 -7.058763e-01  -4.694065e-01  0 
 0  0  0 

 -6.436588e-01  -3.891908e-02  0 
 -3.891908e-02  5.311265e-01  0 
 0  0  0 

 -2.313599e-01  3.562586e-01  0 
 3.562586e-01  6.706914e-01  0 
 0  0  0 

 -2.245173e-01  -6.862275e-01  0 
 -6.862275e-01  -4.984219e-01  0 
 0  0  0 

 -8.965696e-03  -5.531446e-01  0 
 -5.531446e-01  -5.154823e-01  0 
 0  0  0 

 -5.155158e-01  -1.040385e+00  0 
 -1.040385e+00  -7.570952e-01  0 
 0  0  0 

 -5.249565e-01  7.152283e-02  0 
 7.152283e-02  5.743265e-01  0 
 0  0  0 

 -2.174730e-03  -3.148775e-03  0 
 -3.148775e-03  -2.023895e-04  0 
 0  0  0 

 -1.216574e-03  -1.164800e-02  0 
 -1.164800e-02  -1.386322e-04  0 
 0  0  0 

 -1.012875e-03  -2.184969e-03  0 
 -2.184969e-03  -2.241280e-03  0 
 0  0  0 

 -1.046727e-03  -3.089059e-03  0 
 -3.089059e-03  3.556225e-03  0 
 0  0  0 

 -3.417130e-03  -4.782475e-03  0 
 -4.782475e-03  -7.677671e-03  0 
 0  0  0 

 -2.493916e-03  -5.760584e-03  0 
 -5.760584e-03  -8.313224e-03  0 
 0  0  0 

 -3.371112e-03  -9.592864e-03  0 
 -9.592864e-03  -2.712341e-04  0 
 0  0  0 

 -3.330340e-03  -9.292984e-03  0 
 -9.292984e-03  -1.577412e-03  0 
 0  0  0 

 -9.146379e-04  -4.877571e-03  0 
 -4.877571e-03  -2.459124e-03  0 
 0  0  0 

 7.277622e-04  -9.934390e-03  0 
 -9.934390e-03  -1.084243e-03  0 
 0  0  0 

 3.521642e-04  -9.647325e-03  0 
 -9.647325e-03  2.874728e-03  0 
 0  0  0 

 -1.274772e-03  -3.600990e-03  0 
 -3.600990e-03  4.319991e-03  0 
 0  0  0 

TENSORS element_stresses FLOAT
 -1.190373e+00  -1.206615e+00  0 
 -1.206615e+00  -2.297574e-01  0 
 0  0  0 

 -3.461293e-01  -1.054556e+00  0 
 -1.054556e+00  -1.406410e+00  0 
 0  0  0 

 4.892104e-02  -2.287025e-01  0 
 -2.287025e-01  2.410163e-01  0 
 0  0  0 

 1.752293e-01  -4.833714e-01  0 
 -4.833714e-01  -8.975575e-01  0 
 0  0  0 

 -2.868477e-01  -4.176958e-01  0 
 -4.176958e-01  4.056762e-01  0 
 0  0  0 

 -5.251855e-01  -1.194229e+00  0 
 -1.194229e+00  -8.408643e-01  0 
 0  0  0 

 2.311559e-02  -7.058763e-01  0 
 -7.058763e-01  -4.694065e-01  0 
 0  0  0 

 -6.436588e-01  -3.891908e-02  0 
 -3.891908e-02  5.311265e-01  0 
 0  0  0 

 -2.313599e-01  3.562586e-01  0 
 3.562586e-01  6.706914e-01  0 
 0  0  0 

 -2.245173e-01  -6.862275e-01  0 
 -6.862275e-01  -4.984219e-01  0 
 0  0  0 

 -8.965696e-03  -5.531446e-01  0 
 -5.531446e-01  -5.154823e-01  0 
 0  0  0 

 -5.155158e-01  -1.040385e+00  0 
 -1.040385e+00  -7.570952e-01  0 
 0  0  0 

 -5.249565e-01  7.152283e-02  0 
 7.152283e-02  5.743265e-01  0 
 0  0  0 

 -2.174730e-03  -3.148775e-03  0 
 -3.148775e-03  -2.023895e-04  0 
 0  0  0 

 -1.216574e-03  -1.164800e-02  0 
 -1.164800e-02  -1.386322e-04  0 
 0  0  0 

 -1.012875e-03  -2.184969e-03  0 
 -2.184969e-03  -2.241280e-03  0 
 0  0  0 

 -1.046727e-03  -3.089059e-03  0 
 -3.089059e-03  3.556225e-03  0 
 0  0  0 

 -3.417130e-03  -4.782475e-03  0 
 -4.782475e-03  -7.677671e-03  0 
 0  0  0 

 -2.493916e-03  -5.760584e-03  0 
 -5.760584e-03  -8.313224e-03  0 
 0  0  0 

 -3.371112e-03  -9.592864e-03  0 
 -9.592864e-03  -2.712341e-04  0 
 0  0  0 

 -3.330340e-03  -9.292984e-03  0 
 -9.292984e-03  -1.577412e-03  0 
 0  0  0 

 -9.146379e-04  -4.877571e-03  0 
 -4.877571e-03  -2.459124e-03  0 
 0  0  0 

 7.277622e-04  -9.934390e-03  0 
 -9.934390e-03  -1.084243e-03  0 
 0  0  0 

 3.521642e-04  -9.647325e-03  0 
 -9.647325e-03  2.874728e-03  0 
 0  0  0 

 -1.274772e-03  -3.600990e-03  0 
 -3.600990e-03  4.319991e-03  0 
 0  0  0 

