# vtk DataFile Version 3.1
this is an vtk file created by FEMAC
ASCII
DATASET UNSTRUCTURED_GRID
POINTS 34 FLOAT
3.000000 1.000000 0.000000
4.000000 1.000000 0.000000
3.000000 1.250000 0.000000
3.000000 1.500000 0.000000
3.000000 1.750000 0.000000
3.500000 1.000000 0.000000
3.750000 1.000000 0.000000
4.000000 1.250000 0.000000
4.000000 1.500000 0.000000
4.250000 1.000000 0.000000
4.500000 1.000000 0.000000
2.661856 1.507893 0.000000
2.832250 1.761003 0.000000
2.832172 1.245757 0.000000
3.638134 0.825570 0.000000
3.835146 0.847123 0.000000
3.218472 1.189265 0.000000
3.400214 1.786986 0.000000
3.624223 1.213075 0.000000
3.182276 1.370472 0.000000
3.378554 1.338380 0.000000
3.237145 1.579099 0.000000
3.809442 1.354171 0.000000
3.817501 1.632951 0.000000
3.559152 1.528294 0.000000
3.836733 1.163449 0.000000
4.178278 1.324222 0.000000
4.225000 1.500000 0.000000
4.391405 1.203564 0.000000
4.408689 1.438835 0.000000
4.358519 1.602133 0.000000
4.628796 1.390176 0.000000
4.544074 1.619719 0.000000
4.163937 1.155557 0.000000
CELLS 42 168 
3 2 13  0
3 12  3  4
3 12 11  3
3 3 13  2
3 11 13  3
3 14  6  5
3 6 15  1
3 14 15  6
3 2 19  3
3 6 18  5
3 20 19 16
3 16 19  2
3 0 16  2
3 19 21  3
3 21  4  3
3 21 19 20
3 8 22  7
3 8 23 22
3 6 25 18
3 7 25  1
3 25  6  1
3 22 25  7
3 22 18 25
3 18 24 20
3 24 18 22
3 24 22 23
3 24 21 20
3 21 24 17
3 26  8  7
3 26 27  8
3 26 29 27
3 28  9 10
3 28 29 26
3 27 29 30
3 33  7  1
3 9 33  1
3 7 33 26
3 28 33  9
3 28 26 33
3 32 30 29
3 32 29 31
3 31 29 28
CELL_TYPES 42
5 5 5 5 5 5 5 5 5 5 5 5 5 5 5 5 5 5 5 5 5 5 5 5 5 5 5 5 5 5 5 5 5 5 5 5 5 5 5 5 5 5 
POINT_DATA 34
VECTORS displacement_ITER1 FLOAT
 -9.656975e-02  -1.297795e-01  0 
 -9.718674e-02  -2.009550e-01  0 
 -7.904534e-02  -1.297571e-01  0 
 -6.140803e-02  -1.296864e-01  0 
 -4.375471e-02  -1.297111e-01  0 
 -9.714506e-02  -1.651070e-01  0 
 -9.715576e-02  -1.830281e-01  0 
 -7.927893e-02  -2.009082e-01  0 
 -6.138453e-02  -2.008903e-01  0 
 -1.152484e-01  -2.479612e-01  0 
 -1.286273e-01  -3.019381e-01  0 
 -5.496954e-02  -9.861406e-02  0 
 -4.485849e-02  -1.133840e-01  0 
 -7.657703e-02  -1.151206e-01  0 
 -1.009243e-01  -1.720743e-01  0 
 -1.031382e-01  -1.876041e-01  0 
 -8.332632e-02  -1.451294e-01  0 
 -4.105107e-02  -1.580534e-01  0 
 -8.187678e-02  -1.740079e-01  0 
 -7.057885e-02  -1.425757e-01  0 
 -7.286796e-02  -1.564476e-01  0 
 -5.580452e-02  -1.464548e-01  0 
 -7.181529e-02  -1.872429e-01  0 
 -5.187526e-02  -1.878223e-01  0 
 -5.936511e-02  -1.693059e-01  0 
 -8.545504e-02  -1.892249e-01  0 
 -7.762921e-02  -2.290898e-01  0 
 -6.953800e-02  -2.340985e-01  0 
 -8.964543e-02  -2.614267e-01  0 
 -7.871022e-02  -2.586748e-01  0 
 -7.409109e-02  -2.487987e-01  0 
 -8.369853e-02  -2.749246e-01  0 
 -8.291059e-02  -2.687993e-01  0 
 -8.977605e-02  -2.251457e-01  0 
VECTORS displacement_ITER2 FLOAT
 -4.958269e-02  -8.258697e-02  0 
 -5.044479e-02  -1.063652e-01  0 
 -4.405335e-02  -8.253263e-02  0 
 -3.829511e-02  -8.238901e-02  0 
 -3.239811e-02  -8.233546e-02  0 
 -5.042830e-02  -9.409322e-02  0 
 -5.042268e-02  -1.002372e-01  0 
 -4.434760e-02  -1.063011e-01  0 
 -3.826408e-02  -1.063001e-01  0 
 -5.724701e-02  -1.248688e-01  0 
 -5.635145e-02  -1.280634e-01  0 
 -3.051554e-02  -5.951832e-02  0 
 -2.950925e-02  -6.887962e-02  0 
 -4.251254e-02  -7.371610e-02  0 
 -5.325709e-02  -9.434233e-02  0 
 -5.475908e-02  -1.019766e-01  0 
 -4.544026e-02  -8.747977e-02  0 
 -3.159719e-02  -9.180437e-02  0 
 -4.519516e-02  -9.716399e-02  0 
 -4.133234e-02  -8.665914e-02  0 
 -4.209203e-02  -9.121401e-02  0 
 -3.645030e-02  -8.794734e-02  0 
 -4.181155e-02  -1.016452e-01  0 
 -3.503777e-02  -1.018654e-01  0 
 -3.759546e-02  -9.552364e-02  0 
 -4.643099e-02  -1.023415e-01  0 
 -4.495910e-02  -1.147262e-01  0 
 -3.885688e-02  -1.180370e-01  0 
 -5.352552e-02  -1.289307e-01  0 
 -4.284639e-02  -1.305168e-01  0 
 -3.521239e-02  -1.271380e-01  0 
 -4.699878e-02  -1.474512e-01  0 
 -3.577462e-02  -1.414209e-01  0 
 -4.937979e-02  -1.158061e-01  0 
VECTORS displacement_ITER3 FLOAT
 -2.692493e-02  -3.824809e-02  0 
 -2.809788e-02  -4.086566e-02  0 
 -2.678151e-02  -3.815819e-02  0 
 -2.638309e-02  -3.798754e-02  0 
 -2.587326e-02  -3.797310e-02  0 
 -2.807157e-02  -3.894186e-02  0 
 -2.806073e-02  -3.992655e-02  0 
 -2.719694e-02  -4.073644e-02  0 
 -2.637369e-02  -4.067896e-02  0 
 -4.036800e-02  -4.727421e-02  0 
 -4.853595e-02  -4.592105e-02  0 
 -1.765689e-02  -2.932496e-02  0 
 -2.148969e-02  -2.969852e-02  0 
 -2.517391e-02  -3.791696e-02  0 
 -3.813265e-02  -4.342418e-02  0 
 -3.847353e-02  -4.522388e-02  0 
 -2.687352e-02  -3.840298e-02  0 
 -2.571632e-02  -3.885615e-02  0 
 -2.723053e-02  -3.945783e-02  0 
 -2.665674e-02  -3.834541e-02  0 
 -2.674654e-02  -3.869134e-02  0 
 -2.622172e-02  -3.844334e-02  0 
 -2.682565e-02  -4.005274e-02  0 
 -2.595869e-02  -4.007850e-02  0 
 -2.627421e-02  -3.919102e-02  0 
 -2.745773e-02  -4.020865e-02  0 
 -3.044047e-02  -4.073958e-02  0 
 -2.991205e-02  -4.161204e-02  0 
 -3.685422e-02  -4.491189e-02  0 
 -3.225148e-02  -4.585287e-02  0 
 -3.041942e-02  -4.506473e-02  0 
 -3.482351e-02  -5.276404e-02  0 
 -3.154772e-02  -5.055150e-02  0 
 -3.165140e-02  -4.121228e-02  0 
VECTORS displacement_ITER4 FLOAT
 -1.452583e-02  -1.825653e-02  0 
 -1.538458e-02  -2.006621e-02  0 
 -1.439669e-02  -1.817405e-02  0 
 -1.410280e-02  -1.801959e-02  0 
 -1.374179e-02  -1.799040e-02  0 
 -1.521884e-02  -1.889574e-02  0 
 -1.528960e-02  -1.945359e-02  0 
 -1.470883e-02  -2.000211e-02  0 
 -1.414949e-02  -1.997749e-02  0 
 -1.856407e-02  -2.135415e-02  0 
 -1.376544e-02  -2.271586e-02  0 
 -9.950406e-03  -1.187185e-02  0 
 -1.216724e-02  -1.402775e-02  0 
 -1.355732e-02  -1.724764e-02  0 
 -1.685241e-02  -2.408853e-02  0 
 -1.718667e-02  -2.178754e-02  0 
 -1.447515e-02  -1.837537e-02  0 
 -1.357882e-02  -1.864496e-02  0 
 -1.475102e-02  -1.910427e-02  0 
 -1.431600e-02  -1.829993e-02  0 
 -1.440165e-02  -1.856105e-02  0 
 -1.399594e-02  -1.833664e-02  0 
 -1.445948e-02  -1.953300e-02  0 
 -1.386909e-02  -1.955934e-02  0 
 -1.406535e-02  -1.893047e-02  0 
 -1.490937e-02  -1.961165e-02  0 
 -1.549039e-02  -2.051192e-02  0 
 -1.590424e-02  -2.010105e-02  0 
 -1.758330e-02  -2.263747e-02  0 
 -1.711855e-02  -2.098312e-02  0 
 -1.702035e-02  -2.012810e-02  0 
 -1.899686e-02  -2.235050e-02  0 
 -1.801478e-02  -2.024646e-02  0 
 -1.633096e-02  -2.037606e-02  0 
VECTORS displacement_ITER5 FLOAT
 -4.558363e-03  -8.436253e-03  0 
 -5.509981e-03  -8.334394e-03  0 
 -4.922696e-03  -8.343529e-03  0 
 -5.123524e-03  -8.165326e-03  0 
 -5.242175e-03  -8.120743e-03  0 
 -5.332743e-03  -8.053256e-03  0 
 -5.403062e-03  -8.164052e-03  0 
 -5.269033e-03  -8.264471e-03  0 
 -5.174371e-03  -8.233642e-03  0 
 -6.062943e-03  -1.075364e-02  0 
 -7.243414e-03  -1.066887e-02  0 
 -3.503898e-03  -4.097613e-03  0 
 -4.473670e-03  -5.363408e-03  0 
 -4.651267e-03  -7.101919e-03  0 
 -5.925701e-03  -8.868724e-03  0 
 -5.946994e-03  -8.528870e-03  0 
 -4.880215e-03  -8.109741e-03  0 
 -5.165890e-03  -8.036632e-03  0 
 -5.247711e-03  -8.046809e-03  0 
 -5.089177e-03  -8.099170e-03  0 
 -5.118021e-03  -7.977299e-03  0 
 -5.171205e-03  -8.024034e-03  0 
 -5.211582e-03  -8.141604e-03  0 
 -5.137471e-03  -8.152217e-03  0 
 -5.138766e-03  -8.002592e-03  0 
 -5.316236e-03  -8.165342e-03  0 
 -5.570750e-03  -8.721651e-03  0 
 -6.036806e-03  -8.060277e-03  0 
 -6.250160e-03  -9.640742e-03  0 
 -6.295520e-03  -8.911130e-03  0 
 -6.238678e-03  -8.358156e-03  0 
 -6.521047e-03  -9.919503e-03  0 
 -6.222462e-03  -9.465774e-03  0 
 -5.473662e-03  -9.274011e-03  0 
VECTORS displacement_ITER6 FLOAT
 -2.402231e-03  -3.677523e-03  0 
 -2.927006e-03  -4.341530e-03  0 
 -2.472957e-03  -3.530355e-03  0 
 -2.342442e-03  -3.371132e-03  0 
 -2.106888e-03  -3.283682e-03  0 
 -2.693123e-03  -4.013428e-03  0 
 -2.815842e-03  -4.107302e-03  0 
 -2.614061e-03  -4.312376e-03  0 
 -2.405079e-03  -4.322078e-03  0 
 -2.424333e-03  -5.138518e-03  0 
 -3.128670e-03  -6.294317e-03  0 
 -1.480463e-03  -2.659494e-03  0 
 -1.670555e-03  -2.425772e-03  0 
 -2.156014e-03  -3.243910e-03  0 
 -3.188648e-03  -3.707875e-03  0 
 -3.165348e-03  -3.979395e-03  0 
 -2.523475e-03  -3.567041e-03  0 
 -2.092749e-03  -3.704022e-03  0 
 -2.645521e-03  -3.940513e-03  0 
 -2.460684e-03  -3.533795e-03  0 
 -2.497725e-03  -3.670436e-03  0 
 -2.303056e-03  -3.539218e-03  0 
 -2.524997e-03  -4.129670e-03  0 
 -2.289662e-03  -4.149705e-03  0 
 -2.350122e-03  -3.860772e-03  0 
 -2.704878e-03  -4.136192e-03  0 
 -2.628631e-03  -5.109156e-03  0 
 -2.583983e-03  -5.236782e-03  0 
 -2.504348e-03  -5.471907e-03  0 
 -2.702495e-03  -5.787248e-03  0 
 -2.743455e-03  -5.707337e-03  0 
 -2.502855e-03  -5.844836e-03  0 
 -2.936667e-03  -6.366333e-03  0 
 -2.624496e-03  -5.040936e-03  0 
VECTORS displacement_ITER7 FLOAT
 -2.006665e-03  -3.253628e-03  0 
 -2.532578e-03  -4.195519e-03  0 
 -2.023709e-03  -3.086782e-03  0 
 -1.800963e-03  -2.883208e-03  0 
 -1.339140e-03  -2.693426e-03  0 
 -2.357776e-03  -3.542567e-03  0 
 -2.435505e-03  -3.841340e-03  0 
 -2.110727e-03  -4.154144e-03  0 
 -1.790727e-03  -4.146209e-03  0 
 -2.630113e-03  -4.801111e-03  0 
 -2.651120e-03  -5.550739e-03  0 
 -1.148456e-03  -2.333783e-03  0 
 -1.098988e-03  -2.026077e-03  0 
 -1.765014e-03  -2.848682e-03  0 
 -2.760042e-03  -3.527520e-03  0 
 -2.835933e-03  -3.856799e-03  0 
 -2.095947e-03  -3.190799e-03  0 
 -1.493419e-03  -3.413259e-03  0 
 -2.142388e-03  -3.635883e-03  0 
 -1.974400e-03  -3.150560e-03  0 
 -2.005309e-03  -3.350085e-03  0 
 -1.744543e-03  -3.196453e-03  0 
 -1.974634e-03  -3.890071e-03  0 
 -1.658526e-03  -3.966509e-03  0 
 -1.795977e-03  -3.599653e-03  0 
 -2.232674e-03  -3.918272e-03  0 
 -2.124182e-03  -4.534182e-03  0 
 -1.903929e-03  -4.578525e-03  0 
 -2.460537e-03  -5.106008e-03  0 
 -2.088664e-03  -5.127974e-03  0 
 -1.771364e-03  -4.971813e-03  0 
 -2.268742e-03  -5.835536e-03  0 
 -1.785449e-03  -5.584079e-03  0 
 -2.369786e-03  -4.576390e-03  0 
VECTORS displacement_ITER8 FLOAT
 -1.860004e-03  -2.998034e-03  0 
 -2.355886e-03  -3.912626e-03  0 
 -1.867186e-03  -2.869860e-03  0 
 -1.669651e-03  -2.715149e-03  0 
 -1.358449e-03  -2.597045e-03  0 
 -2.169579e-03  -3.320678e-03  0 
 -2.256379e-03  -3.584301e-03  0 
 -1.956770e-03  -3.877857e-03  0 
 -1.650666e-03  -3.882020e-03  0 
 -2.464414e-03  -4.686434e-03  0 
 -2.506564e-03  -5.462436e-03  0 
 -1.158645e-03  -2.104125e-03  0 
 -1.176112e-03  -2.020629e-03  0 
 -1.690085e-03  -2.593360e-03  0 
 -2.644457e-03  -3.404234e-03  0 
 -2.754183e-03  -3.888229e-03  0 
 -1.932787e-03  -2.975267e-03  0 
 -1.338076e-03  -3.177901e-03  0 
 -1.989662e-03  -3.387513e-03  0 
 -1.818521e-03  -2.931360e-03  0 
 -1.857554e-03  -3.114556e-03  0 
 -1.617705e-03  -2.952339e-03  0 
 -1.830436e-03  -3.628702e-03  0 
 -1.523002e-03  -3.703460e-03  0 
 -1.660097e-03  -3.352013e-03  0 
 -2.073215e-03  -3.651961e-03  0 
 -1.897588e-03  -4.371703e-03  0 
 -1.631406e-03  -4.558053e-03  0 
 -2.147059e-03  -4.972892e-03  0 
 -1.759392e-03  -4.979693e-03  0 
 -1.621151e-03  -4.848691e-03  0 
 -1.903548e-03  -5.428628e-03  0 
 -1.742774e-03  -5.073779e-03  0 
 -2.149511e-03  -4.363384e-03  0 
VECTORS displacement_ITER9 FLOAT
 -1.762513e-03  -2.959861e-03  0 
 -2.244098e-03  -3.728364e-03  0 
 -1.795751e-03  -2.853488e-03  0 
 -1.638988e-03  -2.707465e-03  0 
 -1.381987e-03  -2.589152e-03  0 
 -2.061556e-03  -3.208150e-03  0 
 -2.145067e-03  -3.437618e-03  0 
 -1.885078e-03  -3.689464e-03  0 
 -1.623059e-03  -3.688348e-03  0 
 -2.338077e-03  -4.509011e-03  0 
 -2.400210e-03  -5.229116e-03  0 
 -1.252873e-03  -2.220733e-03  0 
 -1.308288e-03  -2.188185e-03  0 
 -1.578793e-03  -2.536737e-03  0 
 -2.521015e-03  -3.236757e-03  0 
 -2.591113e-03  -3.513916e-03  0 
 -1.850469e-03  -2.937358e-03  0 
 -1.380158e-03  -3.076304e-03  0 
 -1.910150e-03  -3.262503e-03  0 
 -1.764719e-03  -2.892753e-03  0 
 -1.800546e-03  -3.038020e-03  0 
 -1.601980e-03  -2.902123e-03  0 
 -1.775417e-03  -3.471729e-03  0 
 -1.521432e-03  -3.544203e-03  0 
 -1.636944e-03  -3.240210e-03  0 
 -1.986354e-03  -3.491916e-03  0 
 -1.849993e-03  -4.182323e-03  0 
 -1.671443e-03  -4.283426e-03  0 
 -2.071623e-03  -4.810326e-03  0 
 -1.795501e-03  -4.782184e-03  0 
 -1.562399e-03  -4.633317e-03  0 
 -1.913396e-03  -5.321804e-03  0 
 -1.587193e-03  -5.143474e-03  0 
 -2.062979e-03  -4.186444e-03  0 
VECTORS displacement_ITER10 FLOAT
 -1.826650e-03  -2.837908e-03  0 
 -2.308322e-03  -3.703475e-03  0 
 -1.850605e-03  -2.730785e-03  0 
 -1.664475e-03  -2.585714e-03  0 
 -1.376242e-03  -2.467801e-03  0 
 -2.128859e-03  -3.135010e-03  0 
 -2.209872e-03  -3.392059e-03  0 
 -1.928980e-03  -3.664910e-03  0 
 -1.645265e-03  -3.665767e-03  0 
 -2.405955e-03  -4.471868e-03  0 
 -2.472013e-03  -5.175682e-03  0 
 -1.235384e-03  -2.012764e-03  0 
 -1.272165e-03  -1.972537e-03  0 
 -1.662243e-03  -2.477807e-03  0 
 -2.598246e-03  -3.252788e-03  0 
 -2.666315e-03  -3.415541e-03  0 
 -1.911603e-03  -2.834152e-03  0 
 -1.373269e-03  -3.004264e-03  0 
 -1.956633e-03  -3.208313e-03  0 
 -1.804213e-03  -2.790681e-03  0 
 -1.840152e-03  -2.958187e-03  0 
 -1.616476e-03  -2.811556e-03  0 
 -1.810782e-03  -3.430874e-03  0 
 -1.527902e-03  -3.500459e-03  0 
 -1.656317e-03  -3.178564e-03  0 
 -2.037173e-03  -3.453967e-03  0 
 -1.893278e-03  -4.132298e-03  0 
 -1.713858e-03  -4.198242e-03  0 
 -2.165925e-03  -4.787105e-03  0 
 -1.858326e-03  -4.696412e-03  0 
 -1.587297e-03  -4.521700e-03  0 
 -2.043659e-03  -5.331419e-03  0 
 -1.592644e-03  -5.032381e-03  0 
 -2.129198e-03  -4.156032e-03  0 
VECTORS displacement_ITER11 FLOAT
 -1.840315e-03  -2.789598e-03  0 
 -2.318616e-03  -3.700996e-03  0 
 -1.844769e-03  -2.682701e-03  0 
 -1.647945e-03  -2.538827e-03  0 
 -1.353815e-03  -2.417795e-03  0 
 -2.139377e-03  -3.105846e-03  0 
 -2.220363e-03  -3.376187e-03  0 
 -1.925840e-03  -3.662920e-03  0 
 -1.627683e-03  -3.664531e-03  0 
 -2.416186e-03  -4.451926e-03  0 
 -2.481807e-03  -5.154798e-03  0 
 -1.238959e-03  -1.938813e-03  0 
 -1.155236e-03  -1.978767e-03  0 
 -1.686235e-03  -2.474142e-03  0 
 -2.595666e-03  -3.206355e-03  0 
 -2.686051e-03  -3.434702e-03  0 
 -1.907924e-03  -2.796282e-03  0 
 -1.347722e-03  -2.974378e-03  0 
 -1.955684e-03  -3.185601e-03  0 
 -1.792762e-03  -2.751800e-03  0 
 -1.829364e-03  -2.927191e-03  0 
 -1.596656e-03  -2.776300e-03  0 
 -1.801901e-03  -3.418263e-03  0 
 -1.503984e-03  -3.488220e-03  0 
 -1.637901e-03  -3.152120e-03  0 
 -2.038850e-03  -3.442869e-03  0 
 -1.878469e-03  -4.136011e-03  0 
 -1.666328e-03  -4.242517e-03  0 
 -2.150980e-03  -4.778010e-03  0 
 -1.806848e-03  -4.706222e-03  0 
 -1.582370e-03  -4.542338e-03  0 
 -2.001497e-03  -5.305720e-03  0 
 -1.627179e-03  -4.926478e-03  0 
 -2.129289e-03  -4.147317e-03  0 
VECTORS displacement_ITER12 FLOAT
 -1.835879e-03  -2.793525e-03  0 
 -2.312466e-03  -3.699546e-03  0 
 -1.840725e-03  -2.686612e-03  0 
 -1.644932e-03  -2.541442e-03  0 
 -1.351371e-03  -2.419270e-03  0 
 -2.133640e-03  -3.108530e-03  0 
 -2.214290e-03  -3.376979e-03  0 
 -1.921818e-03  -3.661531e-03  0 
 -1.626969e-03  -3.661937e-03  0 
 -2.409708e-03  -4.450922e-03  0 
 -2.477009e-03  -5.152445e-03  0 
 -1.248710e-03  -1.933483e-03  0 
 -1.169218e-03  -2.016009e-03  0 
 -1.668028e-03  -2.462638e-03  0 
 -2.589237e-03  -3.197547e-03  0 
 -2.680179e-03  -3.451863e-03  0 
 -1.903590e-03  -2.799470e-03  0 
 -1.343844e-03  -2.977970e-03  0 
 -1.951743e-03  -3.187919e-03  0 
 -1.789769e-03  -2.754575e-03  0 
 -1.826757e-03  -2.929420e-03  0 
 -1.594044e-03  -2.778523e-03  0 
 -1.798759e-03  -3.418918e-03  0 
 -1.504462e-03  -3.486995e-03  0 
 -1.635562e-03  -3.155175e-03  0 
 -2.034188e-03  -3.443008e-03  0 
 -1.874384e-03  -4.133020e-03  0 
 -1.672715e-03  -4.227281e-03  0 
 -2.135301e-03  -4.768099e-03  0 
 -1.811785e-03  -4.695035e-03  0 
 -1.580652e-03  -4.528703e-03  0 
 -1.992837e-03  -5.280013e-03  0 
 -1.619582e-03  -4.942298e-03  0 
 -2.120293e-03  -4.143242e-03  0 
VECTORS displacement_ITER13 FLOAT
 -1.835039e-03  -2.794166e-03  0 
 -2.311586e-03  -3.699619e-03  0 
 -1.839977e-03  -2.687186e-03  0 
 -1.644283e-03  -2.542182e-03  0 
 -1.351137e-03  -2.420100e-03  0 
 -2.132626e-03  -3.109007e-03  0 
 -2.213373e-03  -3.377178e-03  0 
 -1.921019e-03  -3.661655e-03  0 
 -1.626005e-03  -3.662269e-03  0 
 -2.408763e-03  -4.451129e-03  0 
 -2.476151e-03  -5.152947e-03  0 
 -1.243271e-03  -1.932047e-03  0 
 -1.175282e-03  -2.011230e-03  0 
 -1.668570e-03  -2.464590e-03  0 
 -2.589994e-03  -3.198239e-03  0 
 -2.676241e-03  -3.450813e-03  0 
 -1.902886e-03  -2.800038e-03  0 
 -1.343440e-03  -2.978333e-03  0 
 -1.950916e-03  -3.188093e-03  0 
 -1.788990e-03  -2.755126e-03  0 
 -1.825902e-03  -2.929753e-03  0 
 -1.593442e-03  -2.779057e-03  0 
 -1.797975e-03  -3.419011e-03  0 
 -1.503342e-03  -3.487178e-03  0 
 -1.634840e-03  -3.155336e-03  0 
 -2.033369e-03  -3.443135e-03  0 
 -1.873682e-03  -4.131946e-03  0 
 -1.674993e-03  -4.223043e-03  0 
 -2.136086e-03  -4.768994e-03  0 
 -1.812183e-03  -4.692758e-03  0 
 -1.579624e-03  -4.528268e-03  0 
 -1.993488e-03  -5.282043e-03  0 
 -1.614143e-03  -4.943146e-03  0 
 -2.119863e-03  -4.143310e-03  0 
VECTORS displacement_ITER14 FLOAT
 -1.834989e-03  -2.794233e-03  0 
 -2.311537e-03  -3.699494e-03  0 
 -1.839998e-03  -2.687262e-03  0 
 -1.644331e-03  -2.542267e-03  0 
 -1.351202e-03  -2.420174e-03  0 
 -2.132590e-03  -3.108949e-03  0 
 -2.213328e-03  -3.377101e-03  0 
 -1.921026e-03  -3.661525e-03  0 
 -1.626089e-03  -3.662116e-03  0 
 -2.408708e-03  -4.451082e-03  0 
 -2.476109e-03  -5.153003e-03  0 
 -1.243144e-03  -1.930690e-03  0 
 -1.176045e-03  -2.013835e-03  0 
 -1.668700e-03  -2.463779e-03  0 
 -2.589990e-03  -3.197991e-03  0 
 -2.676475e-03  -3.450902e-03  0 
 -1.902893e-03  -2.800074e-03  0 
 -1.343562e-03  -2.978309e-03  0 
 -1.950919e-03  -3.188051e-03  0 
 -1.789019e-03  -2.755187e-03  0 
 -1.825915e-03  -2.929797e-03  0 
 -1.593503e-03  -2.779122e-03  0 
 -1.798009e-03  -3.418939e-03  0 
 -1.503454e-03  -3.487137e-03  0 
 -1.634910e-03  -3.155302e-03  0 
 -2.033356e-03  -3.443046e-03  0 
 -1.873925e-03  -4.131715e-03  0 
 -1.674800e-03  -4.223798e-03  0 
 -2.136404e-03  -4.768063e-03  0 
 -1.811410e-03  -4.693415e-03  0 
 -1.579711e-03  -4.530185e-03  0 
 -1.992091e-03  -5.281937e-03  0 
 -1.614740e-03  -4.942881e-03  0 
 -2.119878e-03  -4.143169e-03  0 
CELL_DATA 42
TENSORS element_stresses FLOAT
 -9.800070e-04  -1.048060e-03  0 
 -1.048060e-03  1.338792e-04  0 
 0  0  0 

 -9.019065e-04  -9.367244e-04  0 
 -9.367244e-04  2.177993e-04  0 
 0  0  0 

 -9.883466e-04  -5.698827e-04  0 
 -5.698827e-04  5.788168e-04  0 
 0  0  0 

 -9.521663e-04  -4.335549e-04  0 
 -4.335549e-04  2.943326e-04  0 
 0  0  0 

 -9.941851e-04  -7.096882e-04  0 
 -7.096882e-04  5.734892e-04  0 
 0  0  0 

 -4.666334e-04  9.953011e-04  0 
 9.953011e-04  -4.789377e-04  0 
 0  0  0 

 -5.093212e-04  1.170134e-03  0 
 1.170134e-03  -3.882875e-04  0 
 0  0  0 

 -8.701554e-04  1.050232e-03  0 
 1.050232e-03  -4.799511e-04  0 
 0  0  0 

 -6.990654e-02  2.053240e-02  0 
 2.053240e-02  5.590106e-01  0 
 0  0  0 

 -2.711259e-01  -2.439138e-02  0 
 -2.439138e-02  1.727541e-01  0 
 0  0  0 

 -7.296176e-02  -2.053467e-01  0 
 -2.053467e-01  5.049088e-02  0 
 0  0  0 

 -8.123232e-02  1.005146e-01  0 
 1.005146e-01  1.287003e-01  0 
 0  0  0 

 -1.814219e-01  -3.211171e-01  0 
 -3.211171e-01  3.734547e-01  0 
 0  0  0 

 -6.488757e-02  -6.722532e-02  0 
 -6.722532e-02  1.427112e-01  0 
 0  0  0 

 -3.323718e-02  8.338943e-03  0 
 8.338943e-03  4.784001e-01  0 
 0  0  0 

 1.074365e-03  5.769402e-02  0 
 5.769402e-02  1.146454e-01  0 
 0  0  0 

 -1.475974e-03  -7.275055e-02  0 
 -7.275055e-02  -2.805282e-03  0 
 0  0  0 

 3.516993e-02  -4.595421e-02  0 
 -4.595421e-02  -2.018872e-01  0 
 0  0  0 

 -5.945787e-02  8.759896e-03  0 
 8.759896e-03  1.897121e-01  0 
 0  0  0 

 -1.038360e-01  1.102803e-01  0 
 1.102803e-01  1.207221e-01  0 
 0  0  0 

 -3.391023e-01  1.536531e-02  0 
 1.536531e-02  1.791090e-01  0 
 0  0  0 

 1.464360e-02  -5.201487e-02  0 
 -5.201487e-02  -5.609976e-02  0 
 0  0  0 

 -1.288655e-01  6.419162e-03  0 
 6.419162e-03  -8.552481e-02  0 
 0  0  0 

 -3.860348e-02  -8.663706e-02  0 
 -8.663706e-02  -1.380042e-01  0 
 0  0  0 

 1.504453e-02  -1.015563e-01  0 
 -1.015563e-01  -1.280727e-01  0 
 0  0  0 

 2.063758e-02  -1.116680e-01  0 
 -1.116680e-01  -2.037656e-01  0 
 0  0  0 

 6.829901e-03  -1.522036e-01  0 
 -1.522036e-01  -6.444966e-02  0 
 0  0  0 

 4.749539e-02  -1.111869e-02  0 
 -1.111869e-02  -2.292338e-02  0 
 0  0  0 

 -2.501932e-04  -1.120515e-03  0 
 -1.120515e-03  -7.742044e-05  0 
 0  0  0 

 -1.918548e-04  -1.004610e-03  0 
 -1.004610e-03  8.212684e-05  0 
 0  0  0 

 -3.228374e-04  -9.897256e-04  0 
 -9.897256e-04  4.618109e-05  0 
 0  0  0 

 -1.666433e-04  -9.867093e-04  0 
 -9.867093e-04  3.432042e-04  0 
 0  0  0 

 -3.044120e-04  -9.854004e-04  0 
 -9.854004e-04  4.238742e-04  0 
 0  0  0 

 -2.534039e-04  -8.854836e-04  0 
 -8.854836e-04  1.625069e-04  0 
 0  0  0 

 -2.939984e-04  -9.911143e-04  0 
 -9.911143e-04  6.367340e-05  0 
 0  0  0 

 -3.229076e-04  -1.049733e-03  0 
 -1.049733e-03  2.192560e-04  0 
 0  0  0 

 -2.908006e-04  -9.807999e-04  0 
 -9.807999e-04  2.156399e-04  0 
 0  0  0 

 -3.214295e-04  -9.287599e-04  0 
 -9.287599e-04  3.150520e-04  0 
 0  0  0 

 -3.244602e-04  -1.015990e-03  0 
 -1.015990e-03  2.096621e-04  0 
 0  0  0 

 -2.438628e-04  -7.160670e-04  0 
 -7.160670e-04  2.341622e-04  0 
 0  0  0 

 -3.714026e-04  -8.428626e-04  0 
 -8.428626e-04  4.223433e-04  0 
 0  0  0 

 -3.907899e-04  -8.795514e-04  0 
 -8.795514e-04  3.882606e-04  0 
 0  0  0 

TENSORS element_stresses FLOAT
 -9.800070e-04  -1.048060e-03  0 
 -1.048060e-03  1.338792e-04  0 
 0  0  0 

 -9.019065e-04  -9.367244e-04  0 
 -9.367244e-04  2.177993e-04  0 
 0  0  0 

 -9.883466e-04  -5.698827e-04  0 
 -5.698827e-04  5.788168e-04  0 
 0  0  0 

 -9.521663e-04  -4.335549e-04  0 
 -4.335549e-04  2.943326e-04  0 
 0  0  0 

 -9.941851e-04  -7.096882e-04  0 
 -7.096882e-04  5.734892e-04  0 
 0  0  0 

 -4.666334e-04  9.953011e-04  0 
 9.953011e-04  -4.789377e-04  0 
 0  0  0 

 -5.093212e-04  1.170134e-03  0 
 1.170134e-03  -3.882875e-04  0 
 0  0  0 

 -8.701554e-04  1.050232e-03  0 
 1.050232e-03  -4.799511e-04  0 
 0  0  0 

 -6.990654e-02  2.053240e-02  0 
 2.053240e-02  5.590106e-01  0 
 0  0  0 

 -2.711259e-01  -2.439138e-02  0 
 -2.439138e-02  1.727541e-01  0 
 0  0  0 

 -7.296176e-02  -2.053467e-01  0 
 -2.053467e-01  5.049088e-02  0 
 0  0  0 

 -8.123232e-02  1.005146e-01  0 
 1.005146e-01  1.287003e-01  0 
 0  0  0 

 -1.814219e-01  -3.211171e-01  0 
 -3.211171e-01  3.734547e-01  0 
 0  0  0 

 -6.488757e-02  -6.722532e-02  0 
 -6.722532e-02  1.427112e-01  0 
 0  0  0 

 -3.323718e-02  8.338943e-03  0 
 8.338943e-03  4.784001e-01  0 
 0  0  0 

 1.074365e-03  5.769402e-02  0 
 5.769402e-02  1.146454e-01  0 
 0  0  0 

 -1.475974e-03  -7.275055e-02  0 
 -7.275055e-02  -2.805282e-03  0 
 0  0  0 

 3.516993e-02  -4.595421e-02  0 
 -4.595421e-02  -2.018872e-01  0 
 0  0  0 

 -5.945787e-02  8.759896e-03  0 
 8.759896e-03  1.897121e-01  0 
 0  0  0 

 -1.038360e-01  1.102803e-01  0 
 1.102803e-01  1.207221e-01  0 
 0  0  0 

 -3.391023e-01  1.536531e-02  0 
 1.536531e-02  1.791090e-01  0 
 0  0  0 

 1.464360e-02  -5.201487e-02  0 
 -5.201487e-02  -5.609976e-02  0 
 0  0  0 

 -1.288655e-01  6.419162e-03  0 
 6.419162e-03  -8.552481e-02  0 
 0  0  0 

 -3.860348e-02  -8.663706e-02  0 
 -8.663706e-02  -1.380042e-01  0 
 0  0  0 

 1.504453e-02  -1.015563e-01  0 
 -1.015563e-01  -1.280727e-01  0 
 0  0  0 

 2.063758e-02  -1.116680e-01  0 
 -1.116680e-01  -2.037656e-01  0 
 0  0  0 

 6.829901e-03  -1.522036e-01  0 
 -1.522036e-01  -6.444966e-02  0 
 0  0  0 

 4.749539e-02  -1.111869e-02  0 
 -1.111869e-02  -2.292338e-02  0 
 0  0  0 

 -2.501932e-04  -1.120515e-03  0 
 -1.120515e-03  -7.742044e-05  0 
 0  0  0 

 -1.918548e-04  -1.004610e-03  0 
 -1.004610e-03  8.212684e-05  0 
 0  0  0 

 -3.228374e-04  -9.897256e-04  0 
 -9.897256e-04  4.618109e-05  0 
 0  0  0 

 -1.666433e-04  -9.867093e-04  0 
 -9.867093e-04  3.432042e-04  0 
 0  0  0 

 -3.044120e-04  -9.854004e-04  0 
 -9.854004e-04  4.238742e-04  0 
 0  0  0 

 -2.534039e-04  -8.854836e-04  0 
 -8.854836e-04  1.625069e-04  0 
 0  0  0 

 -2.939984e-04  -9.911143e-04  0 
 -9.911143e-04  6.367340e-05  0 
 0  0  0 

 -3.229076e-04  -1.049733e-03  0 
 -1.049733e-03  2.192560e-04  0 
 0  0  0 

 -2.908006e-04  -9.807999e-04  0 
 -9.807999e-04  2.156399e-04  0 
 0  0  0 

 -3.214295e-04  -9.287599e-04  0 
 -9.287599e-04  3.150520e-04  0 
 0  0  0 

 -3.244602e-04  -1.015990e-03  0 
 -1.015990e-03  2.096621e-04  0 
 0  0  0 

 -2.438628e-04  -7.160670e-04  0 
 -7.160670e-04  2.341622e-04  0 
 0  0  0 

 -3.714026e-04  -8.428626e-04  0 
 -8.428626e-04  4.223433e-04  0 
 0  0  0 

 -3.907899e-04  -8.795514e-04  0 
 -8.795514e-04  3.882606e-04  0 
 0  0  0 

