# vtk DataFile Version 3.1
this is an vtk file created by FEMAC
ASCII
DATASET UNSTRUCTURED_GRID
POINTS 21 FLOAT
3.000000 1.000000 0.000000
4.000000 1.000000 0.000000
4.000000 2.000000 0.000000
3.333333 1.000000 0.000000
3.666667 1.000000 0.000000
4.000000 0.666667 0.000000
4.000000 1.333333 0.000000
4.000000 1.666667 0.000000
4.333333 1.000000 0.000000
3.472948 1.265001 0.000000
3.285974 1.523802 0.000000
3.690581 1.518186 0.000000
3.759097 1.220626 0.000000
3.496093 1.784776 0.000000
3.214413 1.238185 0.000000
3.770668 1.793926 0.000000
4.235156 0.483910 0.000000
4.498790 0.682145 0.000000
4.213456 0.766544 0.000000
4.285974 1.523802 0.000000
4.214413 1.238185 0.000000
CELLS 24 96 
3 7 11  6
3 11 10  9
3 4 9 3
3 6 12  1
3 12  6 11
3 12  4  1
3 12  9  4
3 11  9 12
3 13 10 11
3 3 14  0
3 14  3  9
3 9 10 14
3 7 15 11
3 15  7  2
3 13 11 15
3 5 18  1
3 18  8  1
3 18  5 16
3 18 17  8
3 17 18 16
3 7  6 19
3 8 20  1
3 20  6  1
3 20 19  6
CELL_TYPES 24
5 5 5 5 5 5 5 5 5 5 5 5 5 5 5 5 5 5 5 5 5 5 5 5 
POINT_DATA 21
VECTORS displacement_ITER1 FLOAT
 1.209619e-01  -2.349142e-01  0 
 1.203309e-01  -1.963877e-01  0 
 8.163918e-02  -1.960908e-01  0 
 1.207207e-01  -2.220665e-01  0 
 1.205271e-01  -2.091290e-01  0 
 -1.074342e-01  -1.963841e-01  0 
 1.077314e-01  -1.963112e-01  0 
 9.479104e-02  -1.961761e-01  0 
 1.200854e-01  -4.238420e-01  0 
 1.103617e-01  -2.165181e-01  0 
 1.003354e-01  -2.237548e-01  0 
 1.005800e-01  -2.081577e-01  0 
 1.120341e-01  -2.055038e-01  0 
 9.020596e-02  -2.156742e-01  0 
 1.114663e-01  -2.265418e-01  0 
 8.982977e-02  -2.050645e-01  0 
 -2.322868e-01  -3.570536e-01  0 
 -9.690992e-02  -5.370681e-01  0 
 -3.920367e-02  -3.422005e-01  0 
 1.047774e-01  -2.171882e-01  0 
 1.258724e-01  -2.438176e-01  0 
VECTORS displacement_ITER2 FLOAT
 -8.351374e-03  -3.781943e-02  0 
 -8.739059e-03  -6.998111e-02  0 
 2.325143e-02  -6.972635e-02  0 
 -8.588289e-03  -4.846937e-02  0 
 -8.665690e-03  -5.918925e-02  0 
 -2.175225e-02  -7.001715e-02  0 
 2.049756e-03  -6.989832e-02  0 
 1.276778e-02  -6.986175e-02  0 
 -8.856995e-03  -8.292639e-02  0 
 -1.270895e-04  -5.290001e-02  0 
 8.198754e-03  -4.686695e-02  0 
 8.003726e-03  -5.991490e-02  0 
 -1.569359e-03  -6.213482e-02  0 
 1.657743e-02  -5.361947e-02  0 
 -9.715588e-04  -4.455009e-02  0 
 1.685188e-02  -6.250698e-02  0 
 -2.890826e-02  -7.923054e-02  0 
 -2.115180e-02  -8.950485e-02  0 
 -1.785793e-02  -7.836183e-02  0 
 8.450882e-03  -8.106726e-02  0 
 -1.071972e-03  -7.835436e-02  0 
VECTORS displacement_ITER3 FLOAT
 1.764511e-03  -1.310948e-02  0 
 1.250548e-03  -1.041352e-02  0 
 -1.731440e-03  -1.009485e-02  0 
 1.502523e-03  -1.216702e-02  0 
 1.361973e-03  -1.120215e-02  0 
 -1.119931e-02  -1.060343e-02  0 
 3.673696e-04  -1.018910e-02  0 
 -6.941735e-04  -1.010228e-02  0 
 1.104570e-03  -2.289782e-02  0 
 6.322140e-04  -1.169570e-02  0 
 -2.525852e-04  -1.235205e-02  0 
 -1.863556e-04  -1.106689e-02  0 
 7.374530e-04  -1.090253e-02  0 
 -1.131538e-03  -1.174701e-02  0 
 7.249934e-04  -1.246004e-02  0 
 -1.114577e-03  -1.082943e-02  0 
 -1.797281e-02  -1.939313e-02  0 
 -1.067057e-02  -2.914582e-02  0 
 -7.519287e-03  -1.852949e-02  0 
 2.736535e-04  -1.289792e-02  0 
 1.243366e-03  -1.379294e-02  0 
VECTORS displacement_ITER4 FLOAT
 -1.966498e-03  -7.830784e-03  0 
 -2.584453e-03  -9.990429e-03  0 
 -4.221745e-04  -9.783732e-03  0 
 -2.305967e-03  -8.381692e-03  0 
 -2.480059e-03  -9.107859e-03  0 
 -4.571297e-03  -1.007115e-02  0 
 -1.737275e-03  -9.875037e-03  0 
 -9.371184e-04  -9.906820e-03  0 
 -2.721174e-03  -1.194730e-02  0 
 -1.879432e-03  -8.581031e-03  0 
 -1.385936e-03  -8.185626e-03  0 
 -1.331765e-03  -9.147538e-03  0 
 -1.986395e-03  -9.294224e-03  0 
 -7.821472e-04  -8.742620e-03  0 
 -1.902191e-03  -8.030720e-03  0 
 -6.947042e-04  -9.476019e-03  0 
 -5.690805e-03  -1.152321e-02  0 
 -4.496796e-03  -1.303306e-02  0 
 -3.995704e-03  -1.134891e-02  0 
 -1.082887e-03  -1.239618e-02  0 
 -2.109729e-03  -1.173028e-02  0 
VECTORS displacement_ITER5 FLOAT
 -2.724105e-03  -7.456218e-03  0 
 -3.420608e-03  -9.180671e-03  0 
 -1.152731e-03  -9.279210e-03  0 
 -3.092080e-03  -7.749189e-03  0 
 -3.305001e-03  -8.361613e-03  0 
 -5.902917e-03  -9.253189e-03  0 
 -2.640298e-03  -9.085594e-03  0 
 -1.831348e-03  -9.213047e-03  0 
 -3.549358e-03  -1.162890e-02  0 
 -2.766986e-03  -7.860472e-03  0 
 -2.297025e-03  -7.433726e-03  0 
 -2.266888e-03  -8.374752e-03  0 
 -2.869946e-03  -8.524823e-03  0 
 -1.705562e-03  -7.931285e-03  0 
 -2.750521e-03  -7.404147e-03  0 
 -1.575675e-03  -8.729363e-03  0 
 -7.274563e-03  -1.102913e-02  0 
 -5.785230e-03  -1.295151e-02  0 
 -5.171554e-03  -1.084571e-02  0 
 -1.983142e-03  -1.170379e-02  0 
 -2.955684e-03  -1.102124e-02  0 
VECTORS displacement_ITER6 FLOAT
 -2.931863e-03  -7.933136e-03  0 
 -3.556431e-03  -9.419658e-03  0 
 -1.738122e-03  -9.528382e-03  0 
 -3.260755e-03  -8.195220e-03  0 
 -3.450017e-03  -8.714680e-03  0 
 -5.543515e-03  -9.506048e-03  0 
 -2.884650e-03  -9.320057e-03  0 
 -2.250250e-03  -9.397242e-03  0 
 -3.670995e-03  -1.137354e-02  0 
 -2.988562e-03  -8.281964e-03  0 
 -2.594062e-03  -7.898668e-03  0 
 -2.577962e-03  -8.738121e-03  0 
 -3.076471e-03  -8.852216e-03  0 
 -2.114128e-03  -8.361229e-03  0 
 -2.955524e-03  -7.880041e-03  0 
 -2.068491e-03  -9.019775e-03  0 
 -6.604787e-03  -1.089336e-02  0 
 -5.453110e-03  -1.243403e-02  0 
 -4.964248e-03  -1.075827e-02  0 
 -2.353376e-03  -1.182262e-02  0 
 -3.205277e-03  -1.115802e-02  0 
VECTORS displacement_ITER7 FLOAT
 -2.803433e-03  -7.633860e-03  0 
 -3.457721e-03  -8.535238e-03  0 
 -2.179167e-03  -8.690061e-03  0 
 -3.154361e-03  -7.688997e-03  0 
 -3.351217e-03  -8.017573e-03  0 
 -5.276622e-03  -8.629160e-03  0 
 -2.973749e-03  -8.440417e-03  0 
 -2.529320e-03  -8.524113e-03  0 
 -3.566340e-03  -1.032279e-02  0 
 -3.043249e-03  -7.692763e-03  0 
 -2.795025e-03  -7.413890e-03  0 
 -2.773365e-03  -8.034637e-03  0 
 -3.103823e-03  -8.104931e-03  0 
 -2.435536e-03  -7.752546e-03  0 
 -2.994759e-03  -7.436014e-03  0 
 -2.415871e-03  -8.263156e-03  0 
 -6.237525e-03  -9.887582e-03  0 
 -5.194117e-03  -1.128590e-02  0 
 -4.749323e-03  -9.764175e-03  0 
 -2.683547e-03  -1.121770e-02  0 
 -3.332448e-03  -1.047102e-02  0 
VECTORS displacement_ITER8 FLOAT
 -2.990081e-03  -7.960237e-03  0 
 -3.628358e-03  -9.161166e-03  0 
 -2.052344e-03  -9.342152e-03  0 
 -3.329647e-03  -8.132788e-03  0 
 -3.523882e-03  -8.554028e-03  0 
 -5.388477e-03  -9.267126e-03  0 
 -3.054208e-03  -9.067519e-03  0 
 -2.527177e-03  -9.147550e-03  0 
 -3.720843e-03  -1.092467e-02  0 
 -3.140562e-03  -8.175075e-03  0 
 -2.826038e-03  -7.843321e-03  0 
 -2.803697e-03  -8.578532e-03  0 
 -3.214598e-03  -8.667147e-03  0 
 -2.384769e-03  -8.241975e-03  0 
 -3.095005e-03  -7.847002e-03  0 
 -2.377453e-03  -8.815174e-03  0 
 -6.310739e-03  -1.048030e-02  0 
 -5.322303e-03  -1.181532e-02  0 
 -4.888325e-03  -1.035742e-02  0 
 -2.802793e-03  -1.287256e-02  0 
 -3.632026e-03  -1.171968e-02  0 
VECTORS displacement_ITER9 FLOAT
 -2.930656e-03  -8.078552e-03  0 
 -3.566368e-03  -9.027362e-03  0 
 -2.243270e-03  -9.209263e-03  0 
 -3.266104e-03  -8.170991e-03  0 
 -3.460679e-03  -8.505918e-03  0 
 -5.222817e-03  -9.140607e-03  0 
 -3.078265e-03  -8.931834e-03  0 
 -2.635198e-03  -9.013050e-03  0 
 -3.653171e-03  -1.070241e-02  0 
 -3.144519e-03  -8.176107e-03  0 
 -2.900546e-03  -7.895259e-03  0 
 -2.875043e-03  -8.520635e-03  0 
 -3.208530e-03  -8.593961e-03  0 
 -2.530829e-03  -8.239555e-03  0 
 -3.091052e-03  -7.917232e-03  0 
 -2.517955e-03  -8.738606e-03  0 
 -6.089359e-03  -1.027790e-02  0 
 -5.164287e-03  -1.151666e-02  0 
 -4.757731e-03  -1.016004e-02  0 
 -2.884049e-03  -1.309536e-02  0 
 -3.664226e-03  -1.172847e-02  0 
CELL_DATA 24
TENSORS element_stresses FLOAT
 7.055844e-02  -1.117672e-01  0 
 -1.117672e-01  -2.224818e-01  0 
 0  0  0 

 7.401046e-02  -4.214054e-01  0 
 -4.214054e-01  -9.589160e-03  0 
 0  0  0 

 -4.733056e-01  -1.834168e-01  0 
 -1.834168e-01  3.680662e-01  0 
 0  0  0 

 -6.414047e-02  -5.561505e-02  0 
 -5.561505e-02  2.673416e-01  0 
 0  0  0 

 -6.508995e-03  -1.892765e-01  0 
 -1.892765e-01  -7.103261e-02  0 
 0  0  0 

 -2.639258e-01  -2.220154e-01  0 
 -2.220154e-01  1.771349e-01  0 
 0  0  0 

 1.790056e-02  -2.062574e-01  0 
 -2.062574e-01  2.051085e-01  0 
 0  0  0 

 -8.757117e-02  -2.814487e-01  0 
 -2.814487e-01  -1.194136e-01  0 
 0  0  0 

 6.547166e-02  -1.506386e-01  0 
 -1.506386e-01  -5.436503e-02  0 
 0  0  0 

 -8.002912e-01  -3.447574e-02  0 
 -3.447574e-02  6.868381e-01  0 
 0  0  0 

 -1.184826e-01  -3.511482e-01  0 
 -3.511482e-01  5.020634e-01  0 
 0  0  0 

 -2.004244e-01  -2.294074e-01  0 
 -2.294074e-01  2.764331e-01  0 
 0  0  0 

 7.051218e-02  -1.271003e-01  0 
 -1.271003e-01  -3.602874e-01  0 
 0  0  0 

 -3.887286e-02  -2.673622e-01  0 
 -2.673622e-01  -6.003000e-01  0 
 0  0  0 

 -8.327543e-02  -3.959805e-01  0 
 -3.959805e-01  -2.901527e-01  0 
 0  0  0 

 -4.883490e-02  2.655697e-02  0 
 2.655697e-02  3.250846e-01  0 
 0  0  0 

 -2.013845e-01  -1.231251e-01  0 
 -1.231251e-01  1.967478e-01  0 
 0  0  0 

 -1.125817e-02  -6.846052e-02  0 
 -6.846052e-02  4.519192e-02  0 
 0  0  0 

 9.643996e-03  1.424006e-02  0 
 1.424006e-02  1.054990e-01  0 
 0  0  0 

 -1.758184e-02  -2.286607e-02  0 
 -2.286607e-02  4.788770e-02  0 
 0  0  0 

 -3.068667e-04  -1.005200e-02  0 
 -1.005200e-02  -3.357093e-04  0 
 0  0  0 

 -2.533450e-03  -4.001200e-03  0 
 -4.001200e-03  -7.576805e-03  0 
 0  0  0 

 -2.194592e-03  -8.809019e-03  0 
 -8.809019e-03  -3.717938e-04  0 
 0  0  0 

 -1.954187e-03  -8.134543e-03  0 
 -8.134543e-03  -1.952163e-03  0 
 0  0  0 

TENSORS element_stresses FLOAT
 7.055844e-02  -1.117672e-01  0 
 -1.117672e-01  -2.224818e-01  0 
 0  0  0 

 7.401046e-02  -4.214054e-01  0 
 -4.214054e-01  -9.589160e-03  0 
 0  0  0 

 -4.733056e-01  -1.834168e-01  0 
 -1.834168e-01  3.680662e-01  0 
 0  0  0 

 -6.414047e-02  -5.561505e-02  0 
 -5.561505e-02  2.673416e-01  0 
 0  0  0 

 -6.508995e-03  -1.892765e-01  0 
 -1.892765e-01  -7.103261e-02  0 
 0  0  0 

 -2.639258e-01  -2.220154e-01  0 
 -2.220154e-01  1.771349e-01  0 
 0  0  0 

 1.790056e-02  -2.062574e-01  0 
 -2.062574e-01  2.051085e-01  0 
 0  0  0 

 -8.757117e-02  -2.814487e-01  0 
 -2.814487e-01  -1.194136e-01  0 
 0  0  0 

 6.547166e-02  -1.506386e-01  0 
 -1.506386e-01  -5.436503e-02  0 
 0  0  0 

 -8.002912e-01  -3.447574e-02  0 
 -3.447574e-02  6.868381e-01  0 
 0  0  0 

 -1.184826e-01  -3.511482e-01  0 
 -3.511482e-01  5.020634e-01  0 
 0  0  0 

 -2.004244e-01  -2.294074e-01  0 
 -2.294074e-01  2.764331e-01  0 
 0  0  0 

 7.051218e-02  -1.271003e-01  0 
 -1.271003e-01  -3.602874e-01  0 
 0  0  0 

 -3.887286e-02  -2.673622e-01  0 
 -2.673622e-01  -6.003000e-01  0 
 0  0  0 

 -8.327543e-02  -3.959805e-01  0 
 -3.959805e-01  -2.901527e-01  0 
 0  0  0 

 -4.883490e-02  2.655697e-02  0 
 2.655697e-02  3.250846e-01  0 
 0  0  0 

 -2.013845e-01  -1.231251e-01  0 
 -1.231251e-01  1.967478e-01  0 
 0  0  0 

 -1.125817e-02  -6.846052e-02  0 
 -6.846052e-02  4.519192e-02  0 
 0  0  0 

 9.643996e-03  1.424006e-02  0 
 1.424006e-02  1.054990e-01  0 
 0  0  0 

 -1.758184e-02  -2.286607e-02  0 
 -2.286607e-02  4.788770e-02  0 
 0  0  0 

 -3.068667e-04  -1.005200e-02  0 
 -1.005200e-02  -3.357093e-04  0 
 0  0  0 

 -2.533450e-03  -4.001200e-03  0 
 -4.001200e-03  -7.576805e-03  0 
 0  0  0 

 -2.194592e-03  -8.809019e-03  0 
 -8.809019e-03  -3.717938e-04  0 
 0  0  0 

 -1.954187e-03  -8.134543e-03  0 
 -8.134543e-03  -1.952163e-03  0 
 0  0  0 

