# vtk DataFile Version 3.1
this is an vtk file created by FEMAC
ASCII
DATASET UNSTRUCTURED_GRID
POINTS 31 FLOAT
2.000000 2.000000 0.000000
2.000000 2.250000 0.000000
2.000000 2.500000 0.000000
2.250000 2.000000 0.000000
2.500000 2.000000 0.000000
2.750000 2.000000 0.000000
2.750000 3.000000 0.000000
3.000000 2.250000 0.000000
3.000000 2.500000 0.000000
1.745000 2.195000 0.000000
2.178356 1.674167 0.000000
2.341416 1.828194 0.000000
2.581646 1.808128 0.000000
2.401594 1.630720 0.000000
2.661856 1.507893 0.000000
2.832250 1.761003 0.000000
2.153954 1.850472 0.000000
2.528684 2.556014 0.000000
2.805000 2.745000 0.000000
2.667801 2.187778 0.000000
2.332917 2.187083 0.000000
2.500000 2.225000 0.000000
2.803850 2.340769 0.000000
2.566179 2.758843 0.000000
2.197089 2.339859 0.000000
2.413333 2.387500 0.000000
2.325606 2.588338 0.000000
2.590972 2.391667 0.000000
2.715781 2.548715 0.000000
2.844330 2.155709 0.000000
2.156001 2.155388 0.000000
CELLS 43 172 
3 0 1 9
3 3 11  4
3 12  5  4
3 13 11 10
3 16  3  0
3 12 15  5
3 16 11  3
3 10 11 16
3 4 11 12
3 12 11 13
3 13 14 12
3 12 14 15
3 19  4  5
3 4 20  3
3 19 21  4
3 21 20  4
3 25 20 21
3 19 27 21
3 1 24  2
3 22  7  8
3 22 27 19
3 23 28 18
3 25 24 20
3 25 27 17
3 25 21 27
3 23 18  6
3 2 24 26
3 25 17 26
3 26 24 25
3 28  8 18
3 22  8 28
3 17 27 28
3 22 28 27
3 5 29 19
3 30  1  0
3 30  3 20
3 3 30  0
3 22 29  7
3 22 19 29
3 30 24  1
3 20 24 30
3 26 17 23
3 17 28 23
CELL_TYPES 43
5 5 5 5 5 5 5 5 5 5 5 5 5 5 5 5 5 5 5 5 5 5 5 5 5 5 5 5 5 5 5 5 5 5 5 5 5 5 5 5 5 5 5 
POINT_DATA 31
VECTORS displacement_ITER1 FLOAT
 -5.131012e-02  -5.033191e-02  0 
 -3.646576e-02  -5.031861e-02  0 
 -2.162879e-02  -5.032078e-02  0 
 -5.131520e-02  -6.518284e-02  0 
 -5.132848e-02  -8.004843e-02  0 
 -5.134193e-02  -9.492460e-02  0 
 8.013477e-03  -9.488644e-02  0 
 -3.649411e-02  -1.097863e-01  0 
 -2.163842e-02  -1.097732e-01  0 
 -3.502162e-02  -8.846113e-03  0 
 -4.550778e-02  -6.765658e-02  0 
 -4.879222e-02  -7.150410e-02  0 
 -5.265585e-02  -8.625129e-02  0 
 -5.168661e-02  -7.917946e-02  0 
 -5.653002e-02  -9.338344e-02  0 
 -5.649273e-02  -1.052828e-01  0 
 -4.324914e-02  -5.922382e-02  0 
 -1.830450e-02  -8.174700e-02  0 
 -7.089188e-03  -9.815767e-02  0 
 -4.017884e-02  -9.002423e-02  0 
 -4.021094e-02  -7.010801e-02  0 
 -3.796287e-02  -8.004299e-02  0 
 -3.109317e-02  -9.811222e-02  0 
 -6.265215e-03  -8.398056e-02  0 
 -3.113570e-02  -6.203231e-02  0 
 -2.830997e-02  -7.488769e-02  0 
 -1.638413e-02  -6.967134e-02  0 
 -2.806420e-02  -8.544939e-02  0 
 -1.873715e-02  -9.286700e-02  0 
 -4.209197e-02  -1.005301e-01  0 
 -4.208917e-02  -5.959515e-02  0 
VECTORS displacement_ITER2 FLOAT
 -1.213218e-02  -5.439109e-02  0 
 -1.746651e-03  -5.437565e-02  0 
 8.634686e-03  -5.437887e-02  0 
 -1.214979e-02  -6.479536e-02  0 
 -1.216788e-02  -7.521715e-02  0 
 -1.218217e-02  -8.565504e-02  0 
 2.941579e-02  -8.562739e-02  0 
 -1.776480e-03  -9.606873e-02  0 
 8.632625e-03  -9.605816e-02  0 
 2.483557e-03  -2.213390e-02  0 
 -6.606101e-03  -6.664521e-02  0 
 -9.322002e-03  -6.930314e-02  0 
 -1.383376e-02  -8.162747e-02  0 
 -1.342482e-02  -7.665341e-02  0 
 -2.353519e-02  -9.521016e-02  0 
 -2.179340e-02  -1.032322e-01  0 
 -4.099325e-03  -5.998881e-02  0 
 1.096559e-02  -7.640315e-02  0 
 1.882670e-02  -8.791739e-02  0 
 -4.354686e-03  -8.221163e-02  0 
 -4.373758e-03  -6.824304e-02  0 
 -2.801080e-03  -7.521021e-02  0 
 2.008689e-03  -8.788154e-02  0 
 1.940004e-02  -7.797147e-02  0 
 1.982367e-03  -6.258121e-02  0 
 3.959460e-03  -7.159292e-02  0 
 1.230827e-02  -6.793445e-02  0 
 4.130961e-03  -7.900016e-02  0 
 1.066368e-02  -8.420250e-02  0 
 -5.696432e-03  -8.958224e-02  0 
 -5.685305e-03  -6.087449e-02  0 
VECTORS displacement_ITER3 FLOAT
 -1.511513e-02  -3.950679e-02  0 
 -8.678436e-03  -3.950847e-02  0 
 -2.244025e-03  -3.951556e-02  0 
 -1.514489e-02  -4.598971e-02  0 
 -1.516474e-02  -5.247962e-02  0 
 -1.517449e-02  -5.898388e-02  0 
 1.068233e-02  -5.896769e-02  0 
 -8.704056e-03  -6.545469e-02  0 
 -2.247171e-03  -6.545066e-02  0 
 -2.043309e-03  -1.252128e-02  0 
 -1.497158e-02  -4.296291e-02  0 
 -1.419089e-02  -4.764139e-02  0 
 -1.926095e-02  -5.823673e-02  0 
 -2.188571e-02  -5.351892e-02  0 
 -3.814716e-02  -7.688240e-02  0 
 -3.151566e-02  -8.226271e-02  0 
 -9.819523e-03  -3.999484e-02  0 
 -7.975023e-04  -5.321447e-02  0 
 4.082109e-03  -6.039465e-02  0 
 -1.030423e-02  -5.683643e-02  0 
 -1.031292e-02  -4.813263e-02  0 
 -9.338655e-03  -5.247387e-02  0 
 -6.356110e-03  -6.036457e-02  0 
 4.438718e-03  -5.418998e-02  0 
 -6.366906e-03  -4.460874e-02  0 
 -5.142663e-03  -5.021926e-02  0 
 3.627421e-05  -4.793982e-02  0 
 -5.038238e-03  -5.483398e-02  0 
 -9.869844e-04  -5.807437e-02  0 
 -1.113574e-02  -6.142669e-02  0 
 -1.112176e-02  -4.354317e-02  0 
VECTORS displacement_ITER4 FLOAT
 -1.886691e-02  -4.527876e-02  0 
 -1.492836e-02  -4.530367e-02  0 
 -1.098782e-02  -4.531247e-02  0 
 -1.890298e-02  -4.929029e-02  0 
 -1.892236e-02  -5.329248e-02  0 
 -1.892744e-02  -5.730408e-02  0 
 -3.049047e-03  -5.728805e-02  0 
 -1.494829e-02  -6.127881e-02  0 
 -1.099732e-02  -6.127873e-02  0 
 -7.928670e-03  -1.907145e-02  0 
 -2.197841e-02  -4.318288e-02  0 
 -1.929046e-02  -4.895414e-02  0 
 -2.438479e-02  -5.761079e-02  0 
 -2.833764e-02  -5.328512e-02  0 
 -4.619926e-02  -7.603769e-02  0 
 -3.775418e-02  -8.006797e-02  0 
 -1.561571e-02  -4.255326e-02  0 
 -1.010336e-02  -5.374392e-02  0 
 -7.118278e-03  -5.817520e-02  0 
 -1.592993e-02  -5.598012e-02  0 
 -1.593223e-02  -5.060895e-02  0 
 -1.533656e-02  -5.328865e-02  0 
 -1.351115e-02  -5.815225e-02  0 
 -6.894515e-03  -5.434212e-02  0 
 -1.351225e-02  -4.843923e-02  0 
 -1.276384e-02  -5.189804e-02  0 
 -9.589384e-03  -5.049248e-02  0 
 -1.270220e-02  -5.474435e-02  0 
 -1.022351e-02  -5.674163e-02  0 
 -1.643770e-02  -5.880859e-02  0 
 -1.642285e-02  -4.777602e-02  0 
VECTORS displacement_ITER5 FLOAT
 -1.677948e-02  -3.152348e-02  0 
 -1.424080e-02  -3.156283e-02  0 
 -1.167986e-02  -3.156573e-02  0 
 -1.683223e-02  -3.416734e-02  0 
 -1.685932e-02  -3.679271e-02  0 
 -1.686747e-02  -3.943300e-02  0 
 -6.476218e-03  -3.942194e-02  0 
 -1.426002e-02  -4.203479e-02  0 
 -1.168110e-02  -4.203499e-02  0 
 -7.178976e-03  -1.329855e-02  0 
 -2.018558e-02  -2.937532e-02  0 
 -1.797888e-02  -3.342872e-02  0 
 -2.288483e-02  -4.001356e-02  0 
 -2.624523e-02  -3.712860e-02  0 
 -4.330541e-02  -5.635687e-02  0 
 -3.581762e-02  -5.969251e-02  0 
 -1.459349e-02  -2.892939e-02  0 
 -1.109931e-02  -3.708684e-02  0 
 -9.150292e-03  -4.000884e-02  0 
 -1.489864e-02  -3.855801e-02  0 
 -1.489380e-02  -3.502360e-02  0 
 -1.450881e-02  -3.678685e-02  0 
 -1.332108e-02  -3.998390e-02  0 
 -9.004394e-03  -3.748071e-02  0 
 -1.332000e-02  -3.360405e-02  0 
 -1.283254e-02  -3.587282e-02  0 
 -1.076522e-02  -3.495120e-02  0 
 -1.279312e-02  -3.774414e-02  0 
 -1.117831e-02  -3.905922e-02  0 
 -1.523109e-02  -4.041980e-02  0 
 -1.520481e-02  -3.316291e-02  0 
VECTORS displacement_ITER6 FLOAT
 -1.384570e-02  -2.563420e-02  0 
 -1.191409e-02  -2.568464e-02  0 
 -9.934569e-03  -2.568011e-02  0 
 -1.392002e-02  -2.770716e-02  0 
 -1.395728e-02  -2.975535e-02  0 
 -1.396877e-02  -3.182446e-02  0 
 -5.849777e-03  -3.183035e-02  0 
 -1.193185e-02  -3.385865e-02  0 
 -9.922947e-03  -3.386207e-02  0 
 -4.821423e-03  -1.764461e-02  0 
 -1.759393e-02  -2.390247e-02  0 
 -1.581942e-02  -2.678212e-02  0 
 -2.008380e-02  -3.159978e-02  0 
 -2.285030e-02  -2.951252e-02  0 
 -3.732484e-02  -4.357814e-02  0 
 -3.102821e-02  -4.723283e-02  0 
 -1.292393e-02  -2.367360e-02  0 
 -9.476057e-03  -2.998523e-02  0 
 -7.953450e-03  -3.228977e-02  0 
 -1.242816e-02  -3.113601e-02  0 
 -1.241753e-02  -2.836457e-02  0 
 -1.212246e-02  -2.974703e-02  0 
 -1.120098e-02  -3.225397e-02  0 
 -7.841896e-03  -3.029740e-02  0 
 -1.120183e-02  -2.726023e-02  0 
 -1.082272e-02  -2.903163e-02  0 
 -9.219686e-03  -2.831261e-02  0 
 -1.079171e-02  -3.049851e-02  0 
 -9.536237e-03  -3.153439e-02  0 
 -1.268769e-02  -3.259772e-02  0 
 -1.264908e-02  -2.691023e-02  0 
VECTORS displacement_ITER7 FLOAT
 -2.665973e-03  -1.201387e-02  0 
 -4.969408e-04  -1.206708e-02  0 
 1.744045e-03  -1.205650e-02  0 
 -2.760901e-03  -1.435342e-02  0 
 -2.807862e-03  -1.666717e-02  0 
 -2.822037e-03  -1.900569e-02  0 
 6.392634e-03  -1.902839e-02  0 
 -5.157400e-04  -2.131563e-02  0 
 1.764099e-03  -2.132286e-02  0 
 6.013520e-03  -1.189156e-02  0 
 -6.170951e-03  -1.090754e-02  0 
 -4.824504e-03  -1.344551e-02  0 
 -8.061920e-03  -1.695410e-02  0 
 -1.005878e-02  -1.483944e-02  0 
 -1.982236e-02  -2.227929e-02  0 
 -1.538635e-02  -2.741349e-02  0 
 -2.445038e-03  -1.103394e-02  0 
 2.267730e-03  -1.692861e-02  0 
 3.999359e-03  -1.954487e-02  0 
 -1.079287e-03  -1.822837e-02  0 
 -1.064825e-03  -1.509204e-02  0 
 -7.320249e-04  -1.665641e-02  0 
 3.126954e-04  -1.949696e-02  0 
 4.125209e-03  -1.728503e-02  0 
 3.092342e-04  -1.384373e-02  0 
 7.396692e-04  -1.584715e-02  0 
 2.556428e-03  -1.503406e-02  0 
 7.756385e-04  -1.750829e-02  0 
 2.200928e-03  -1.868500e-02  0 
 -1.373982e-03  -1.988388e-02  0 
 -1.324267e-03  -1.344802e-02  0 
VECTORS displacement_ITER8 FLOAT
 -5.063731e-03  -5.212475e-03  0 
 -2.657743e-03  -5.265562e-03  0 
 -1.569583e-04  -5.250542e-03  0 
 -5.178394e-03  -7.813056e-03  0 
 -5.236454e-03  -1.039039e-02  0 
 -5.258654e-03  -1.300029e-02  0 
 5.040442e-03  -1.302650e-02  0 
 -2.684533e-03  -1.557986e-02  0 
 -1.287330e-04  -1.558391e-02  0 
 3.408207e-03  -1.371420e-02  0 
 -8.809330e-03  -4.758585e-03  0 
 -7.522275e-03  -7.095952e-03  0 
 -1.017313e-02  -1.024495e-02  0 
 -1.205678e-02  -7.870947e-03  0 
 -1.972299e-02  -1.270834e-02  0 
 -1.593199e-02  -1.927090e-02  0 
 -5.503096e-03  -5.156935e-03  0 
 4.315525e-04  -1.067881e-02  0 
 2.371524e-03  -1.359772e-02  0 
 -3.310695e-03  -1.212809e-02  0 
 -3.290158e-03  -8.631282e-03  0 
 -2.920500e-03  -1.037474e-02  0 
 -1.754166e-03  -1.354349e-02  0 
 2.509115e-03  -1.107882e-02  0 
 -1.758024e-03  -7.241108e-03  0 
 -1.276717e-03  -9.472105e-03  0 
 7.519045e-04  -8.567089e-03  0 
 -1.236059e-03  -1.132386e-02  0 
 3.588586e-04  -1.263748e-02  0 
 -3.644506e-03  -1.397796e-02  0 
 -3.577620e-03  -6.800891e-03  0 
VECTORS displacement_ITER9 FLOAT
 -7.277463e-03  -5.970896e-03  0 
 -6.551385e-03  -6.023607e-03  0 
 -5.714590e-03  -6.007813e-03  0 
 -7.404716e-03  -6.907923e-03  0 
 -7.469560e-03  -7.822698e-03  0 
 -7.499993e-03  -8.775150e-03  0 
 -3.842320e-03  -8.794901e-03  0 
 -6.582763e-03  -9.693501e-03  0 
 -5.681331e-03  -9.690166e-03  0 
 -1.197629e-03  -2.029937e-02  0 
 -9.063744e-03  -5.833585e-03  0 
 -8.753635e-03  -6.315487e-03  0 
 -1.109597e-02  -8.427625e-03  0 
 -1.236354e-02  -7.384854e-03  0 
 -2.073828e-02  -1.351364e-02  0 
 -1.733741e-02  -1.825946e-02  0 
 -7.112205e-03  -6.075769e-03  0 
 -5.495714e-03  -7.916513e-03  0 
 -4.811081e-03  -8.998485e-03  0 
 -6.793222e-03  -8.441433e-03  0 
 -6.763308e-03  -7.169451e-03  0 
 -6.647879e-03  -7.802581e-03  0 
 -6.250990e-03  -8.952921e-03  0 
 -4.766786e-03  -8.068958e-03  0 
 -6.248998e-03  -6.683986e-03  0 
 -6.084072e-03  -7.475582e-03  0 
 -5.391640e-03  -7.155372e-03  0 
 -6.070773e-03  -8.146481e-03  0 
 -5.518543e-03  -8.631532e-03  0 
 -6.918536e-03  -9.122615e-03  0 
 -6.837051e-03  -6.515466e-03  0 
VECTORS displacement_ITER10 FLOAT
 -4.051335e-03  2.339943e-03  0 
 -2.729047e-03  2.289372e-03  0 
 -1.282637e-03  2.304904e-03  0 
 -4.188832e-03  7.937779e-04  0 
 -4.258757e-03  -7.306795e-04  0 
 -4.293981e-03  -2.294099e-03  0 
 1.816816e-03  -2.316255e-03  0 
 -2.763164e-03  -3.826900e-03  0 
 -1.247523e-03  -3.819958e-03  0 
 1.162163e-03  -1.284719e-02  0 
 -5.138666e-03  6.819312e-04  0 
 -5.348473e-03  6.836743e-04  0 
 -7.047586e-03  -1.386875e-03  0 
 -7.793764e-03  -3.549429e-04  0 
 -1.363326e-02  -4.576934e-03  0 
 -1.138082e-02  -9.259908e-03  0 
 -4.036385e-03  8.705079e-04  0 
 -9.253847e-04  -8.929336e-04  0 
 2.218715e-04  -2.652733e-03  0 
 -3.125314e-03  -1.757011e-03  0 
 -3.093460e-03  3.337604e-04  0 
 -2.887158e-03  -7.079626e-04  0 
 -2.207223e-03  -2.602565e-03  0 
 3.002119e-04  -1.137985e-03  0 
 -2.207100e-03  1.150181e-03  0 
 -1.925873e-03  -1.690843e-04  0 
 -7.426797e-04  3.644482e-04  0 
 -1.902503e-03  -1.274520e-03  0 
 -9.658767e-04  -2.066281e-03  0 
 -3.331492e-03  -2.872302e-03  0 
 -3.242117e-03  1.420221e-03  0 
VECTORS displacement_ITER11 FLOAT
 -3.070932e-03  5.911497e-04  0 
 -2.054599e-03  5.465490e-04  0 
 -9.038545e-04  5.620572e-04  0 
 -3.217122e-03  -6.558057e-04  0 
 -3.291751e-03  -1.885766e-03  0 
 -3.331873e-03  -3.157693e-03  0 
 1.616685e-03  -3.182304e-03  0 
 -2.091387e-03  -4.399724e-03  0 
 -8.659499e-04  -4.388931e-03  0 
 1.429562e-03  -1.485388e-02  0 
 -3.363767e-03  -1.119454e-03  0 
 -3.805743e-03  -9.174150e-04  0 
 -5.207883e-03  -2.812873e-03  0 
 -5.731744e-03  -1.968406e-03  0 
 -1.088953e-02  -6.241164e-03  0 
 -9.001926e-03  -1.028993e-02  0 
 -2.731701e-03  -1.023610e-03  0 
 -6.111632e-04  -2.012458e-03  0 
 3.161765e-04  -3.452320e-03  0 
 -2.380044e-03  -2.713393e-03  0 
 -2.344742e-03  -1.015027e-03  0 
 -2.184325e-03  -1.860895e-03  0 
 -1.639892e-03  -3.400694e-03  0 
 3.771044e-04  -2.214034e-03  0 
 -1.638764e-03  -3.587701e-04  0 
 -1.413764e-03  -1.423273e-03  0 
 -4.671819e-04  -9.930864e-04  0 
 -1.395279e-03  -2.320906e-03  0 
 -6.426616e-04  -2.967827e-03  0 
 -2.550801e-03  -3.624849e-03  0 
 -2.454305e-03  -1.370143e-04  0 
VECTORS displacement_ITER12 FLOAT
 -4.971661e-03  2.762384e-03  0 
 -4.763997e-03  2.717568e-03  0 
 -4.418206e-03  2.731917e-03  0 
 -5.119751e-03  2.321004e-03  0 
 -5.195372e-03  1.896541e-03  0 
 -5.238794e-03  1.429667e-03  0 
 -3.516964e-03  1.410052e-03  0 
 -4.800424e-03  9.928451e-04  0 
 -4.381024e-03  1.008918e-03  0 
 -1.962545e-03  -1.018011e-02  0 
 -4.715545e-03  2.080379e-03  0 
 -5.124391e-03  2.267548e-03  0 
 -6.297685e-03  6.595607e-04  0 
 -6.869590e-03  1.276387e-03  0 
 -1.223682e-02  -3.961313e-03  0 
 -1.014897e-02  -7.068371e-03  0 
 -4.373336e-03  1.842322e-03  0 
 -4.306979e-03  1.862806e-03  0 
 -3.992426e-03  1.315932e-03  0 
 -4.888883e-03  1.611277e-03  0 
 -4.850539e-03  2.229393e-03  0 
 -4.812672e-03  1.922184e-03  0 
 -4.640517e-03  1.362201e-03  0 
 -3.975319e-03  1.783211e-03  0 
 -4.637164e-03  2.447066e-03  0 
 -4.565673e-03  2.079912e-03  0 
 -4.266681e-03  2.226480e-03  0 
 -4.560578e-03  1.755383e-03  0 
 -4.315300e-03  1.511303e-03  0 
 -4.957552e-03  1.267326e-03  0 
 -4.857788e-03  2.537559e-03  0 
VECTORS displacement_ITER13 FLOAT
 -4.816871e-03  1.544975e-03  0 
 -4.530299e-03  1.498518e-03  0 
 -4.105786e-03  1.512381e-03  0 
 -4.964256e-03  1.023699e-03  0 
 -5.040273e-03  5.217330e-04  0 
 -5.085635e-03  -2.108116e-05  0 
 -3.055785e-03  -3.727431e-05  0 
 -4.568195e-03  -5.373403e-04  0 
 -4.072927e-03  -5.178243e-04  0 
 -2.662579e-03  -6.082299e-03  0 
 -3.417699e-03  9.064588e-04  0 
 -4.297390e-03  9.632877e-04  0 
 -5.069376e-03  -3.556365e-04  0 
 -4.929757e-03  2.685788e-04  0 
 -8.005074e-03  -2.965882e-03  0 
 -7.390761e-03  -5.998554e-03  0 
 -3.753888e-03  7.731845e-04  0 
 -3.979684e-03  4.798319e-04  0 
 -3.610327e-03  -1.515417e-04  0 
 -4.676313e-03  1.857517e-04  0 
 -4.637051e-03  9.063351e-04  0 
 -4.587973e-03  5.476860e-04  0 
 -4.379773e-03  -1.060444e-04  0 
 -3.587020e-03  3.906790e-04  0 
 -4.375605e-03  1.166149e-03  0 
 -4.289942e-03  7.319502e-04  0 
 -3.927852e-03  9.056589e-04  0 
 -4.284166e-03  3.526973e-04  0 
 -3.991610e-03  7.048645e-05  0 
 -4.755613e-03  -2.134828e-04  0 
 -4.653752e-03  1.269651e-03  0 
VECTORS displacement_ITER14 FLOAT
 -2.702450e-03  5.572585e-04  0 
 -2.661372e-03  5.131623e-04  0 
 -2.483726e-03  5.268437e-04  0 
 -2.853199e-03  2.798966e-04  0 
 -2.932174e-03  2.082672e-05  0 
 -2.981118e-03  -2.807799e-04  0 
 -1.915561e-03  -2.970194e-04  0 
 -2.703451e-03  -5.558714e-04  0 
 -2.451348e-03  -5.326495e-04  0 
 -1.037514e-03  -3.530369e-03  0 
 -1.363722e-03  7.996957e-04  0 
 -1.919075e-03  3.606689e-04  0 
 -2.672590e-03  -1.185878e-03  0 
 -2.847327e-03  -3.879134e-04  0 
 -6.514534e-03  -5.093196e-03  0 
 -5.339515e-03  -7.508130e-03  0 
 -1.501801e-03  3.776031e-04  0 
 -2.412747e-03  8.820718e-06  0 
 -2.227261e-03  -3.580163e-04  0 
 -2.751179e-03  -1.511634e-04  0 
 -2.709284e-03  2.449306e-04  0 
 -2.698209e-03  4.824130e-05  0 
 -2.602480e-03  -3.120192e-04  0 
 -2.217557e-03  -4.368782e-05  0 
 -2.596172e-03  3.735657e-04  0 
 -2.558048e-03  1.492667e-04  0 
 -2.392459e-03  2.383514e-04  0 
 -2.556788e-03  -5.855377e-05  0 
 -2.417872e-03  -2.205827e-04  0 
 -2.800468e-03  -3.815971e-04  0 
 -2.693463e-03  4.358660e-04  0 
VECTORS displacement_ITER15 FLOAT
 -1.158837e-03  -1.076502e-03  0 
 -1.499576e-03  -1.125350e-03  0 
 -1.705352e-03  -1.112548e-03  0 
 -1.308468e-03  -9.734758e-04  0 
 -1.387238e-03  -8.495393e-04  0 
 -1.437750e-03  -7.687567e-04  0 
 -1.920054e-03  -7.761728e-04  0 
 -1.541324e-03  -6.592376e-04  0 
 -1.675890e-03  -6.297329e-04  0 
 -6.609901e-04  -1.756229e-03  0 
 -9.379597e-04  1.218932e-03  0 
 -6.614203e-04  -2.798979e-04  0 
 -1.301558e-03  -1.755897e-03  0 
 -2.063584e-03  -5.271262e-04  0 
 -5.865121e-03  -5.541976e-03  0 
 -4.043733e-03  -7.845837e-03  0 
 -5.557636e-04  8.848359e-05  0 
 -1.721787e-03  -8.187725e-04  0 
 -1.832377e-03  -7.560095e-04  0 
 -1.493284e-03  -7.641053e-04  0 
 -1.450560e-03  -8.822340e-04  0 
 -1.497517e-03  -8.226845e-04  0 
 -1.579061e-03  -7.158233e-04  0 
 -1.841907e-03  -8.126639e-04  0 
 -1.572147e-03  -9.629772e-04  0 
 -1.607007e-03  -8.556531e-04  0 
 -1.750270e-03  -9.022472e-04  0 
 -1.612048e-03  -7.901343e-04  0 
 -1.716431e-03  -7.591120e-04  0 
 -1.493944e-03  -7.249155e-04  0 
 -1.386214e-03  -9.623281e-04  0 
VECTORS displacement_ITER16 FLOAT
 -1.611259e-03  -1.516484e-03  0 
 -1.481730e-03  -1.565847e-03  0 
 -1.215308e-03  -1.552779e-03  0 
 -1.762590e-03  -1.886962e-03  0 
 -1.842652e-03  -2.235348e-03  0 
 -1.894629e-03  -2.628533e-03  0 
 -4.878943e-04  -2.634289e-03  0 
 -1.522934e-03  -2.994046e-03  0 
 -1.184298e-03  -2.960950e-03  0 
 -1.098075e-03  -2.698977e-04  0 
 -7.181074e-04  -7.326145e-04  0 
 -1.067576e-03  -1.635841e-03  0 
 -1.679956e-03  -3.106848e-03  0 
 -1.791162e-03  -2.192814e-03  0 
 -4.524091e-03  -6.200724e-03  0 
 -3.816801e-03  -7.998152e-03  0 
 -8.381550e-04  -1.054449e-03  0 
 -1.124958e-03  -2.260221e-03  0 
 -8.789911e-04  -2.719638e-03  0 
 -1.592903e-03  -2.467545e-03  0 
 -1.551440e-03  -1.951590e-03  0 
 -1.526686e-03  -2.208500e-03  0 
 -1.388090e-03  -2.677669e-03  0 
 -8.619453e-04  -2.326056e-03  0 
 -1.384541e-03  -1.775791e-03  0 
 -1.328918e-03  -2.077903e-03  0 
 -1.092764e-03  -1.959133e-03  0 
 -1.325543e-03  -2.348795e-03  0 
 -1.132950e-03  -2.554526e-03  0 
 -1.654656e-03  -2.764512e-03  0 
 -1.546462e-03  -1.697084e-03  0 
VECTORS displacement_ITER17 FLOAT
 -1.692594e-03  -1.475542e-03  0 
 -1.528080e-03  -1.527117e-03  0 
 -1.223244e-03  -1.514966e-03  0 
 -1.845483e-03  -1.884835e-03  0 
 -1.926209e-03  -2.271547e-03  0 
 -1.979300e-03  -2.705091e-03  0 
 -4.297744e-04  -2.705718e-03  0 
 -1.567465e-03  -3.109522e-03  0 
 -1.190260e-03  -3.072133e-03  0 
 -1.348547e-03  -4.650915e-04  0 
 -1.178529e-03  -3.585004e-04  0 
 -1.359846e-03  -1.486224e-03  0 
 -1.838538e-03  -2.726536e-03  0 
 -1.913882e-03  -1.712026e-03  0 
 -3.702065e-03  -4.386114e-03  0 
 -3.379819e-03  -6.491877e-03  0 
 -1.209995e-03  -7.410080e-04  0 
 -1.123080e-03  -2.303359e-03  0 
 -8.507758e-04  -2.801344e-03  0 
 -1.646539e-03  -2.530267e-03  0 
 -1.605674e-03  -1.962258e-03  0 
 -1.574767e-03  -2.245287e-03  0 
 -1.417497e-03  -2.761527e-03  0 
 -8.310694e-04  -2.376042e-03  0 
 -1.416384e-03  -1.767121e-03  0 
 -1.352561e-03  -2.102460e-03  0 
 -1.086486e-03  -1.971810e-03  0 
 -1.347770e-03  -2.400264e-03  0 
 -1.131554e-03  -2.624959e-03  0 
 -1.713834e-03  -2.856331e-03  0 
 -1.605627e-03  -1.680367e-03  0 
VECTORS displacement_ITER18 FLOAT
 -1.770952e-03  -1.812723e-03  0 
 -1.515225e-03  -1.867005e-03  0 
 -1.117270e-03  -1.857311e-03  0 
 -1.925633e-03  -2.318370e-03  0 
 -2.006867e-03  -2.799415e-03  0 
 -2.060614e-03  -3.327990e-03  0 
 -1.462595e-04  -3.323675e-03  0 
 -1.553881e-03  -3.826340e-03  0 
 -1.083441e-03  -3.785967e-03  0 
 -1.452365e-03  -1.003682e-03  0 
 -1.475581e-03  -8.272069e-04  0 
 -1.602875e-03  -1.928249e-03  0 
 -1.903959e-03  -2.896713e-03  0 
 -1.888756e-03  -1.886656e-03  0 
 -2.635073e-03  -3.065672e-03  0 
 -2.687443e-03  -5.399110e-03  0 
 -1.495626e-03  -1.138952e-03  0 
 -9.953633e-04  -2.843471e-03  0 
 -6.552212e-04  -3.441749e-03  0 
 -1.655873e-03  -3.121623e-03  0 
 -1.615228e-03  -2.427022e-03  0 
 -1.570066e-03  -2.773340e-03  0 
 -1.369168e-03  -3.404005e-03  0 
 -6.295134e-04  -2.931083e-03  0 
 -1.369231e-03  -2.181683e-03  0 
 -1.287255e-03  -2.598569e-03  0 
 -9.469852e-04  -2.436269e-03  0 
 -1.280583e-03  -2.962914e-03  0 
 -1.006253e-03  -3.234194e-03  0 
 -1.735599e-03  -3.515295e-03  0 
 -1.626901e-03  -2.077657e-03  0 
VECTORS displacement_ITER19 FLOAT
 -1.038394e-03  -1.722515e-03  0 
 -8.840030e-04  -1.780447e-03  0 
 -5.855886e-04  -1.772607e-03  0 
 -1.195041e-03  -2.132918e-03  0 
 -1.276922e-03  -2.515928e-03  0 
 -1.331568e-03  -2.947060e-03  0 
 1.784062e-04  -2.935865e-03  0 
 -9.229141e-04  -3.345421e-03  0 
 -5.521538e-04  -3.302117e-03  0 
 -9.456592e-04  -1.139248e-03  0 
 -9.298695e-04  -9.531151e-04  0 
 -1.011875e-03  -1.805369e-03  0 
 -1.257358e-03  -2.588345e-03  0 
 -1.302226e-03  -1.746730e-03  0 
 -2.022005e-03  -2.659579e-03  0 
 -1.931916e-03  -4.787379e-03  0 
 -9.141585e-04  -1.177929e-03  0 
 -4.856499e-04  -2.548556e-03  0 
 -2.234683e-04  -3.033827e-03  0 
 -9.994883e-04  -2.771876e-03  0 
 -9.580375e-04  -2.208611e-03  0 
 -9.280894e-04  -2.489429e-03  0 
 -7.734234e-04  -3.000020e-03  0 
 -2.022944e-04  -2.621530e-03  0 
 -7.730876e-04  -2.017491e-03  0 
 -7.098839e-04  -2.349077e-03  0 
 -4.501868e-04  -2.222371e-03  0 
 -7.048159e-04  -2.643007e-03  0 
 -4.936075e-04  -2.864216e-03  0 
 -1.067121e-03  -3.096852e-03  0 
 -9.567800e-04  -1.927994e-03  0 
VECTORS displacement_ITER20 FLOAT
 -1.963725e-04  -1.079577e-03  0 
 -8.185192e-05  -1.141822e-03  0 
 1.793116e-04  -1.134455e-03  0 
 -3.554688e-04  -1.456968e-03  0 
 -4.385669e-04  -1.804174e-03  0 
 -4.946973e-04  -2.200878e-03  0 
 8.637679e-04  -2.184089e-03  0 
 -1.213752e-04  -2.561956e-03  0 
 2.130691e-04  -2.515609e-03  0 
 -1.609872e-04  -1.185288e-03  0 
 -4.782049e-04  -4.477665e-04  0 
 -3.775617e-04  -1.196585e-03  0 
 -6.433171e-04  -2.004759e-03  0 
 -9.470418e-04  -1.202895e-03  0 
 -2.166041e-03  -2.562623e-03  0 
 -1.544278e-03  -4.542009e-03  0 
 -2.660502e-04  -6.733374e-04  0 
 2.713286e-04  -1.832166e-03  0 
 5.036609e-04  -2.274885e-03  0 
 -1.879380e-04  -2.035640e-03  0 
 -1.455549e-04  -1.519910e-03  0 
 -1.215480e-04  -1.776949e-03  0 
 1.585967e-05  -2.243699e-03  0 
 5.233625e-04  -1.899947e-03  0 
 1.614358e-05  -1.349250e-03  0 
 7.248673e-05  -1.649212e-03  0 
 3.017674e-04  -1.535901e-03  0 
 7.707223e-05  -1.917283e-03  0 
 2.646467e-04  -2.120030e-03  0 
 -2.517614e-04  -2.336515e-03  0 
 -1.389454e-04  -1.264286e-03  0 
VECTORS displacement_ITER21 FLOAT
 -5.055975e-04  -2.211509e-04  0 
 -3.238251e-04  -2.885543e-04  0 
 6.197990e-06  -2.819509e-04  0 
 -6.664461e-04  -6.726675e-04  0 
 -7.503675e-04  -1.090114e-03  0 
 -8.078169e-04  -1.558475e-03  0 
 8.236684e-04  -1.537915e-03  0 
 -3.629381e-04  -1.989345e-03  0 
 4.142904e-05  -1.939583e-03  0 
 -6.055950e-04  -1.106507e-03  0 
 -1.058480e-03  1.069225e-05  0 
 -8.865411e-04  -5.591334e-04  0 
 -1.114410e-03  -1.378269e-03  0 
 -1.565334e-03  -6.364562e-04  0 
 -2.969383e-03  -2.140546e-03  0 
 -2.006120e-03  -3.904442e-03  0 
 -7.851987e-04  -1.311318e-04  0 
 1.142938e-04  -1.126410e-03  0 
 3.970856e-04  -1.644676e-03  0 
 -4.464467e-04  -1.368546e-03  0 
 -4.038691e-04  -7.582550e-04  0 
 -3.695215e-04  -1.062462e-03  0 
 -1.995436e-04  -1.614674e-03  0 
 4.210370e-04  -1.205249e-03  0 
 -2.005070e-04  -5.503287e-04  0 
 -1.307425e-04  -9.106619e-04  0 
 1.532314e-04  -7.734365e-04  0 
 -1.246395e-04  -1.228496e-03  0 
 1.060310e-04  -1.466199e-03  0 
 -5.198126e-04  -1.720623e-03  0 
 -4.054831e-04  -4.523561e-04  0 
VECTORS displacement_ITER22 FLOAT
 -7.152733e-04  -8.557773e-05  0 
 -4.128935e-04  -1.572998e-04  0 
 3.758831e-05  -1.525325e-04  0 
 -8.768904e-04  -6.630139e-04  0 
 -9.611815e-04  -1.202346e-03  0 
 -1.019518e-03  -1.793189e-03  0 
 1.091222e-03  -1.770284e-03  0 
 -4.515642e-04  -2.346506e-03  0 
 7.383330e-05  -2.293701e-03  0 
 -8.899299e-04  -1.147879e-03  0 
 -8.735206e-04  -4.102004e-04  0 
 -9.939476e-04  -7.001924e-04  0 
 -1.086232e-03  -1.308570e-03  0 
 -1.207672e-03  -7.266961e-04  0 
 -1.733093e-03  -1.139311e-03  0 
 -1.321780e-03  -2.753708e-03  0 
 -9.035548e-04  -3.716521e-04  0 
 1.731862e-04  -1.253457e-03  0 
 5.453352e-04  -1.904465e-03  0 
 -5.652605e-04  -1.562575e-03  0 
 -5.228285e-04  -7.887945e-04  0 
 -4.702001e-04  -1.174628e-03  0 
 -2.435392e-04  -1.875240e-03  0 
 5.766268e-04  -1.351255e-03  0 
 -2.457058e-04  -5.151935e-04  0 
 -1.528658e-04  -9.809313e-04  0 
 2.274354e-04  -8.016574e-04  0 
 -1.444640e-04  -1.385331e-03  0 
 1.617312e-04  -1.683904e-03  0 
 -6.544682e-04  -2.002113e-03  0 
 -5.394185e-04  -3.958901e-04  0 
VECTORS displacement_ITER23 FLOAT
 -1.303942e-03  -4.957458e-05  0 
 -9.385953e-04  -1.247449e-04  0 
 -4.256461e-04  -1.220288e-04  0 
 -1.465374e-03  -6.933402e-04  0 
 -1.549441e-03  -1.295928e-03  0 
 -1.608454e-03  -1.950475e-03  0 
 7.437188e-04  -1.922437e-03  0 
 -9.767703e-04  -2.566061e-03  0 
 -3.899947e-04  -2.509682e-03  0 
 -1.367730e-03  -6.656647e-04  0 
 -1.232045e-03  -7.607658e-04  0 
 -1.509816e-03  -8.530059e-04  0 
 -1.589492e-03  -1.381161e-03  0 
 -1.551045e-03  -9.479341e-04  0 
 -1.823809e-03  -1.052881e-03  0 
 -1.612760e-03  -2.343367e-03  0 
 -1.371865e-03  -5.790300e-04  0 
 -2.764707e-04  -1.354684e-03  0 
 1.396066e-04  -2.071509e-03  0 
 -1.105663e-03  -1.698421e-03  0 
 -1.063538e-03  -8.403443e-04  0 
 -1.001346e-03  -1.268298e-03  0 
 -7.455437e-04  -2.044935e-03  0 
 1.752415e-04  -1.461859e-03  0 
 -7.483634e-04  -5.330751e-04  0 
 -6.436476e-04  -1.053168e-03  0 
 -2.141590e-04  -8.524676e-04  0 
 -6.340537e-04  -1.501878e-03  0 
 -2.897179e-04  -1.831001e-03  0 
 -1.203140e-03  -2.183412e-03  0 
 -1.088148e-03  -4.020890e-04  0 
VECTORS displacement_ITER24 FLOAT
 -1.168304e-03  -6.633242e-04  0 
 -8.584910e-04  -7.433716e-04  0 
 -4.024102e-04  -7.435475e-04  0 
 -1.328754e-03  -1.255065e-03  0 
 -1.412271e-03  -1.801720e-03  0 
 -1.472302e-03  -2.400991e-03  0 
 6.391974e-04  -2.365456e-03  0 
 -8.964539e-04  -2.958528e-03  0 
 -3.679916e-04  -2.897038e-03  0 
 -1.056347e-03  -4.235978e-04  0 
 -8.685301e-04  -1.449696e-03  0 
 -1.242755e-03  -1.440010e-03  0 
 -1.348797e-03  -1.853260e-03  0 
 -1.178522e-03  -1.573332e-03  0 
 -1.321981e-03  -1.495191e-03  0 
 -1.278286e-03  -2.419252e-03  0 
 -1.050555e-03  -1.224560e-03  0 
 -2.669553e-04  -1.854347e-03  0 
 1.013621e-04  -2.503144e-03  0 
 -1.010207e-03  -2.166218e-03  0 
 -9.680996e-04  -1.384118e-03  0 
 -9.144329e-04  -1.774221e-03  0 
 -6.849986e-04  -2.481032e-03  0 
 1.348016e-04  -1.952720e-03  0 
 -6.879190e-04  -1.108396e-03  0 
 -5.941758e-04  -1.579250e-03  0 
 -2.119566e-04  -1.399345e-03  0 
 -5.854039e-04  -1.986981e-03  0 
 -2.785558e-04  -2.286344e-03  0 
 -1.100905e-03  -2.612552e-03  0 
 -9.858076e-04  -9.848743e-04  0 
VECTORS displacement_ITER25 FLOAT
 -1.117774e-03  -1.013893e-03  0 
 -9.269620e-04  -1.098334e-03  0 
 -5.925274e-04  -1.101165e-03  0 
 -1.277053e-03  -1.489022e-03  0 
 -1.360030e-03  -1.915439e-03  0 
 -1.420922e-03  -2.394877e-03  0 
 1.962771e-04  -2.353346e-03  0 
 -9.657290e-04  -2.829739e-03  0 
 -5.590841e-04  -2.764492e-03  0 
 -9.340234e-04  -4.464959e-04  0 
 -9.364326e-04  -1.636055e-03  0 
 -1.205638e-03  -1.642715e-03  0 
 -1.316546e-03  -2.009086e-03  0 
 -1.237827e-03  -1.771926e-03  0 
 -1.529877e-03  -1.881194e-03  0 
 -1.339574e-03  -2.633705e-03  0 
 -1.030390e-03  -1.480485e-03  0 
 -4.851193e-04  -1.953730e-03  0 
 -2.116969e-04  -2.464869e-03  0 
 -1.048243e-03  -2.198507e-03  0 
 -1.005662e-03  -1.578619e-03  0 
 -9.704326e-04  -1.887741e-03  0 
 -7.974285e-04  -2.446448e-03  0 
 -1.846576e-04  -2.033667e-03  0 
 -7.995179e-04  -1.369023e-03  0 
 -7.292338e-04  -1.734867e-03  0 
 -4.458308e-04  -1.598027e-03  0 
 -7.225420e-04  -2.056012e-03  0 
 -4.931624e-04  -2.293677e-03  0 
 -1.123957e-03  -2.560306e-03  0 
 -1.008186e-03  -1.264118e-03  0 
VECTORS displacement_ITER26 FLOAT
 -1.132870e-03  -1.010544e-03  0 
 -1.010236e-03  -1.098598e-03  0 
 -7.457331e-04  -1.103365e-03  0 
 -1.291441e-03  -1.419858e-03  0 
 -1.374157e-03  -1.777587e-03  0 
 -1.435628e-03  -2.188429e-03  0 
 -1.026395e-04  -2.143107e-03  0 
 -1.049639e-03  -2.553035e-03  0 
 -7.131976e-04  -2.485419e-03  0 
 -7.866610e-04  -3.446462e-04  0 
 -8.685114e-04  -1.566191e-03  0 
 -1.149669e-03  -1.555168e-03  0 
 -1.230450e-03  -1.847648e-03  0 
 -1.119146e-03  -1.653770e-03  0 
 -1.287419e-03  -1.609319e-03  0 
 -1.154629e-03  -2.314910e-03  0 
 -9.853972e-04  -1.413751e-03  0 
 -6.545642e-04  -1.807450e-03  0 
 -4.357558e-04  -2.239427e-03  0 
 -1.114117e-03  -2.014020e-03  0 
 -1.071086e-03  -1.486904e-03  0 
 -1.046534e-03  -1.749667e-03  0 
 -9.061110e-04  -2.223644e-03  0 
 -4.124628e-04  -1.876824e-03  0 
 -9.074758e-04  -1.315272e-03  0 
 -8.507648e-04  -1.620840e-03  0 
 -6.243561e-04  -1.508714e-03  0 
 -8.453151e-04  -1.892384e-03  0 
 -6.605618e-04  -2.094584e-03  0 
 -1.181221e-03  -2.327563e-03  0 
 -1.064835e-03  -1.220765e-03  0 
VECTORS displacement_ITER27 FLOAT
 -1.095699e-03  -1.077710e-03  0 
 -9.683194e-04  -1.168939e-03  0 
 -6.994160e-04  -1.175082e-03  0 
 -1.253909e-03  -1.494287e-03  0 
 -1.336368e-03  -1.856843e-03  0 
 -1.398097e-03  -2.272366e-03  0 
 -5.329154e-05  -2.224160e-03  0 
 -1.007633e-03  -2.640635e-03  0 
 -6.679981e-04  -2.571296e-03  0 