# vtk DataFile Version 3.1
this is an vtk file created by FEMAC
ASCII
DATASET UNSTRUCTURED_GRID
POINTS 32 FLOAT
3.000000 3.000000 0.000000
3.000000 4.000000 0.000000
2.750000 3.000000 0.000000
3.000000 2.500000 0.000000
3.000000 2.750000 0.000000
3.000000 3.250000 0.000000
3.000000 3.500000 0.000000
3.000000 3.750000 0.000000
3.250000 3.000000 0.000000
3.500000 3.000000 0.000000
3.250000 4.000000 0.000000
3.500000 4.000000 0.000000
2.805000 2.745000 0.000000
2.808904 3.785023 0.000000
2.769602 3.187596 0.000000
2.818560 3.488721 0.000000
3.255000 2.805000 0.000000
3.183310 2.629173 0.000000
3.447447 3.528256 0.000000
3.255000 3.805000 0.000000
3.255000 3.195000 0.000000
3.169567 3.378219 0.000000
3.242859 3.565925 0.000000
3.413341 3.323754 0.000000
3.453287 3.717271 0.000000
3.630781 4.172236 0.000000
3.755447 4.375936 0.000000
3.512466 4.547863 0.000000
3.336997 4.345660 0.000000
3.536362 4.315974 0.000000
3.396523 4.159812 0.000000
3.186855 4.186208 0.000000
CELLS 42 168 
3 12  3  4
3 12  0  2
3 4  0 12
3 0 14  2
3 0  5 14
3 7  1 13
3 7 15  6
3 7 13 15
3 15  5  6
3 15 14  5
3 16  9  8
3 17  4  3
3 17 16  4
3 16  0  4
3 8  0 16
3 19 11 10
3 9 20  8
3 5 21  6
3 22  7  6
3 22 24 19
3 23 21 20
3 22 19  7
3 20 21  5
3 9 23 20
3 24 11 19
3 19  1  7
3 10  1 19
3 0 20  5
3 0  8 20
3 6 21 22
3 23 18 22
3 18 24 22
3 22 21 23
3 28 29 27
3 29 26 27
3 30 11 25
3 30 10 11
3 29 30 25
3 29 28 30
3 10 31  1
3 30 31 10
3 30 28 31
CELL_TYPES 42
5 5 5 5 5 5 5 5 5 5 5 5 5 5 5 5 5 5 5 5 5 5 5 5 5 5 5 5 5 5 5 5 5 5 5 5 5 5 5 5 5 5 
POINT_DATA 32
VECTORS displacement_ITER1 FLOAT
 8.369984e-04  -1.326377e-01  0 
 4.210747e-02  -1.327684e-01  0 
 8.905485e-04  -1.259953e-01  0 
 -1.213031e-02  -1.325504e-01  0 
 -5.672729e-03  -1.325877e-01  0 
 1.115995e-02  -1.327069e-01  0 
 2.148001e-02  -1.327544e-01  0 
 3.179008e-02  -1.327702e-01  0 
 8.238054e-04  -1.430486e-01  0 
 8.269735e-04  -1.534392e-01  0 
 4.213218e-02  -1.431321e-01  0 
 4.215688e-02  -1.535101e-01  0 
 -5.823194e-03  -1.275182e-01  0 
 3.171668e-02  -1.160398e-01  0 
 4.507247e-03  -1.095994e-01  0 
 1.942588e-02  -1.173285e-01  0 
 -2.413225e-03  -1.444229e-01  0 
 -7.010773e-03  -1.411062e-01  0 
 2.266617e-02  -1.512412e-01  0 
 3.406469e-02  -1.433125e-01  0 
 8.914383e-03  -1.432554e-01  0 
 1.646868e-02  -1.397462e-01  0 
 2.420780e-02  -1.427930e-01  0 
 1.423730e-02  -1.498142e-01  0 
 3.045758e-02  -1.515073e-01  0 
 5.364597e-02  -1.892981e-01  0 
 7.106874e-02  -2.896891e-01  0 
 1.060791e-01  -1.987248e-01  0 
 5.381704e-02  -1.549173e-01  0 
 5.242633e-02  -1.982084e-01  0 
 3.958902e-02  -1.593832e-01  0 
 3.963420e-02  -1.408585e-01  0 
VECTORS displacement_ITER2 FLOAT
 3.890670e-03  -7.323657e-02  0 
 4.949741e-02  -7.362843e-02  0 
 3.929976e-03  -6.435936e-02  0 
 -1.346557e-02  -7.303500e-02  0 
 -4.808725e-03  -7.311333e-02  0 
 1.538673e-02  -7.339780e-02  0 
 2.683818e-02  -7.354486e-02  0 
 3.820004e-02  -7.361752e-02  0 
 3.862491e-03  -8.490473e-02  0 
 3.863774e-03  -9.652824e-02  0 
 4.954996e-02  -8.500954e-02  0 
 4.957995e-02  -9.640622e-02  0 
 -5.019708e-03  -6.631824e-02  0 
 3.967194e-02  -5.512982e-02  0 
 9.540445e-03  -5.033245e-02  0 
 2.549899e-02  -5.723891e-02  0 
 -3.186434e-03  -8.568694e-02  0 
 -9.620715e-03  -8.273830e-02  0 
 2.814679e-02  -9.397759e-02  0 
 4.069680e-02  -8.520096e-02  0 
 1.291340e-02  -8.513531e-02  0 
 2.130586e-02  -8.125876e-02  0 
 2.986628e-02  -8.464004e-02  0 
 1.884113e-02  -9.244037e-02  0 
 3.672635e-02  -9.422823e-02  0 
 4.938859e-02  -9.044495e-02  0 
 4.099406e-02  -7.429994e-02  0 
 1.630959e-02  -9.136928e-02  0 
 3.861283e-02  -9.834831e-02  0 
 4.432170e-02  -8.772806e-02  0 
 5.004349e-02  -9.086421e-02  0 
 4.440761e-02  -8.858296e-02  0 
VECTORS displacement_ITER3 FLOAT
 -3.115142e-03  -2.049180e-02  0 
 3.009294e-03  -2.073240e-02  0 
 -3.078607e-03  -2.324821e-02  0 
 2.802624e-03  -2.027578e-02  0 
 -1.851206e-04  -2.036199e-02  0 
 -1.537588e-03  -2.063854e-02  0 
 1.973120e-05  -2.074511e-02  0 
 1.530376e-03  -2.077090e-02  0 
 -3.133789e-03  -2.222652e-02  0 
 -3.122435e-03  -2.391198e-02  0 
 3.068327e-03  -2.232849e-02  0 
 3.096980e-03  -2.394284e-02  0 
 -1.673505e-04  -2.264356e-02  0 
 1.330202e-03  -1.188829e-02  0 
 -5.056589e-03  -9.913313e-03  0 
 -9.629254e-04  -1.337428e-02  0 
 -6.775229e-04  -2.161145e-02  0 
 1.540218e-03  -2.076759e-02  0 
 2.121993e-04  -2.351739e-02  0 
 1.852207e-03  -2.232600e-02  0 
 -1.834803e-03  -2.226815e-02  0 
 -7.046388e-04  -2.177159e-02  0 
 4.319428e-04  -2.225395e-02  0 
 -1.013188e-03  -2.330201e-02  0 
 1.332456e-03  -2.356499e-02  0 
 1.419092e-02  -3.703985e-02  0 
 3.194802e-02  -5.458427e-02  0 
 3.264621e-02  -4.440788e-02  0 
 1.563131e-02  -2.582388e-02  0 
 2.017225e-02  -3.697712e-02  0 
 6.824740e-03  -2.427327e-02  0 
 4.105604e-03  -1.874140e-02  0 
VECTORS displacement_ITER4 FLOAT
 2.438549e-04  -8.760267e-03  0 
 3.135233e-03  -8.921083e-03  0 
 2.552560e-04  -4.531020e-03  0 
 -7.887818e-03  -8.537519e-03  0 
 -3.845367e-03  -8.621963e-03  0 
 1.052214e-03  -8.904443e-03  0 
 1.813225e-03  -9.016034e-03  0 
 2.504619e-03  -9.021688e-03  0 
 2.110177e-04  -9.728507e-03  0 
 2.100053e-04  -1.065762e-02  0 
 3.228161e-03  -9.766985e-03  0 
 3.276872e-03  -1.060202e-02  0 
 -3.969093e-03  -5.422037e-03  0 
 4.007181e-03  -6.600593e-03  0 
 2.480900e-03  -4.302239e-03  0 
 2.628140e-03  -7.013428e-03  0 
 -2.332923e-03  -1.307328e-02  0 
 -6.051429e-03  -1.389897e-02  0 
 1.891370e-03  -1.033477e-02  0 
 2.623301e-03  -9.731498e-03  0 
 9.192883e-04  -9.738504e-03  0 
 1.476874e-03  -9.500623e-03  0 
 2.000664e-03  -9.729787e-03  0 
 1.333420e-03  -1.026448e-02  0 
 2.388434e-03  -1.034119e-02  0 
 2.012924e-03  -9.381169e-03  0 
 4.989710e-03  -1.271747e-02  0 
 5.260159e-03  -1.234488e-02  0 
 1.373644e-03  -8.766159e-03  0 
 2.312896e-03  -9.848039e-03  0 
 1.966245e-03  -9.364142e-03  0 
 1.289637e-03  -8.623473e-03  0 
VECTORS displacement_ITER5 FLOAT
 -4.615630e-03  -3.793025e-03  0 
 7.811681e-04  -3.821149e-03  0 
 -4.590468e-03  -7.631568e-03  0 
 3.397846e-03  -3.608570e-03  0 
 -6.347264e-04  -3.677666e-03  0 
 -3.230303e-03  -3.902165e-03  0 
 -1.853861e-03  -3.965543e-03  0 
 -5.087400e-04  -3.942331e-03  0 
 -4.643618e-03  -5.312727e-03  0 
 -4.645017e-03  -6.795799e-03  0 
 8.863295e-04  -5.354336e-03  0 
 9.439515e-04  -6.865851e-03  0 
 -5.899190e-04  -6.774865e-03  0 
 9.994048e-04  -9.697934e-04  0 
 -2.839459e-03  -1.689802e-03  0 
 -1.383959e-03  -2.016576e-03  0 
 -1.808587e-03  -4.963696e-03  0 
 1.048019e-03  -4.584122e-03  0 
 -1.700845e-03  -6.429100e-03  0 
 -2.474545e-04  -5.326373e-03  0 
 -3.504465e-03  -5.338783e-03  0 
 -2.503956e-03  -4.888312e-03  0 
 -1.504855e-03  -5.298771e-03  0 
 -2.784109e-03  -6.249871e-03  0 
 -7.141133e-04  -6.468510e-03  0 
 8.398780e-05  -6.135905e-03  0 
 2.362816e-03  -9.102679e-03  0 
 4.317441e-03  -5.270417e-03  0 
 9.058328e-04  -3.436468e-03  0 
 8.372737e-04  -5.393818e-03  0 
 4.179515e-04  -5.193404e-03  0 
 4.672144e-04  -3.658614e-03  0 
VECTORS displacement_ITER6 FLOAT
 -8.105219e-05  -2.389692e-03  0 
 1.813259e-03  -2.351931e-03  0 
 -5.125884e-05  -1.767487e-03  0 
 -1.031787e-03  -2.224681e-03  0 
 -5.606266e-04  -2.276255e-03  0 
 3.694664e-04  -2.493706e-03  0 
 8.570336e-04  -2.531928e-03  0 
 1.349299e-03  -2.486438e-03  0 
 -1.308919e-04  -3.008958e-03  0 
 -1.455886e-04  -3.570078e-03  0 
 1.919159e-03  -3.060810e-03  0 
 1.978710e-03  -3.748210e-03  0 
 -5.992152e-04  -1.873513e-03  0 
 1.162905e-03  -2.271389e-03  0 
 2.474717e-05  -2.005354e-03  0 
 7.219209e-04  -2.190914e-03  0 
 -1.304422e-04  -4.788177e-03  0 
 -9.307772e-04  -5.207964e-03  0 
 9.188563e-04  -3.444725e-03  0 
 1.425548e-03  -3.013918e-03  0 
 2.920234e-04  -3.005209e-03  0 
 6.330616e-04  -2.865423e-03  0 
 9.732783e-04  -3.025243e-03  0 
 5.515461e-04  -3.360885e-03  0 
 1.254394e-03  -3.488804e-03  0 
 1.760939e-03  -3.686369e-03  0 
 2.628208e-03  -5.102602e-03  0 
 2.504107e-03  -4.325020e-03  0 
 1.885007e-03  -3.336953e-03  0 
 2.002580e-03  -3.639044e-03  0 
 1.957086e-03  -3.426479e-03  0 
 1.969968e-03  -3.070839e-03  0 
VECTORS displacement_ITER7 FLOAT
 -8.531433e-05  -2.353432e-03  0 
 1.715756e-03  -2.377895e-03  0 
 -6.454478e-05  -1.986929e-03  0 
 -5.391103e-04  -2.204090e-03  0 
 -3.198591e-04  -2.244046e-03  0 
 3.787742e-04  -2.465024e-03  0 
 8.572691e-04  -2.524538e-03  0 
 1.312979e-03  -2.500539e-03  0 
 -1.233462e-04  -2.971745e-03  0 
 -1.291683e-04  -3.536653e-03  0 
 1.817870e-03  -3.021060e-03  0 
 1.871397e-03  -3.633243e-03  0 
 -3.511187e-04  -2.033145e-03  0 
 1.186797e-03  -2.254447e-03  0 
 2.123015e-04  -2.042116e-03  0 
 7.693652e-04  -2.159897e-03  0 
 -1.890202e-04  -2.982991e-03  0 
 -2.834487e-04  -2.630021e-03  0 
 9.148802e-04  -3.392787e-03  0 
 1.380849e-03  -2.978628e-03  0 
 3.039813e-04  -2.976925e-03  0 
 6.439028e-04  -2.839238e-03  0 
 9.729418e-04  -2.992183e-03  0 
 5.627298e-04  -3.327321e-03  0 
 1.226770e-03  -3.414790e-03  0 
 2.966699e-03  -4.680583e-03  0 
 3.522957e-03  -6.073684e-04  0 
 1.079342e-04  -5.318662e-03  0 
 2.342454e-03  -4.942327e-03  0 
 3.367735e-03  -4.063755e-03  0 
 2.536109e-03  -3.587320e-03  0 
 1.853347e-03  -3.377711e-03  0 
VECTORS displacement_ITER8 FLOAT
 3.175512e-05  -2.277160e-03  0 
 1.272499e-03  -2.460971e-03  0 
 5.190972e-05  -2.000847e-03  0 
 -1.771119e-04  -2.051643e-03  0 
 -7.999698e-05  -2.126556e-03  0 
 3.898079e-04  -2.433460e-03  0 
 7.480331e-04  -2.540620e-03  0 
 1.056537e-03  -2.549681e-03  0 
 -1.599059e-05  -2.834336e-03  0 
 -2.623079e-05  -3.324978e-03  0 
 1.392591e-03  -2.918266e-03  0 
 1.468115e-03  -3.348058e-03  0 
 -1.212309e-04  -2.007746e-03  0 
 1.012658e-03  -2.318000e-03  0 
 1.994122e-04  -2.073082e-03  0 
 6.769131e-04  -2.268620e-03  0 
 -2.885845e-04  -2.629982e-03  0 
 -2.889799e-04  -2.314854e-03  0 
 7.951745e-04  -3.163616e-03  0 
 1.095843e-03  -2.855964e-03  0 
 3.532585e-04  -2.835470e-03  0 
 6.077146e-04  -2.751665e-03  0 
 8.367743e-04  -2.876308e-03  0 
 5.610910e-04  -3.123817e-03  0 
 9.924098e-04  -3.173738e-03  0 
 1.735277e-03  -3.686330e-03  0 
 1.861240e-03  -3.739122e-03  0 
 1.721101e-03  -3.677023e-03  0 
 1.556515e-03  -3.205726e-03  0 
 1.734230e-03  -3.563628e-03  0 
 1.530732e-03  -3.192295e-03  0 
 1.395716e-03  -2.809742e-03  0 
VECTORS displacement_ITER9 FLOAT
 1.460650e-04  -2.315209e-03  0 
 1.252659e-03  -2.435686e-03  0 
 1.772980e-04  -1.927447e-03  0 
 -2.816901e-04  -2.074732e-03  0 
 -6.207764e-05  -2.168565e-03  0 
 4.481707e-04  -2.456435e-03  0 
 7.683423e-04  -2.536390e-03  0 
 1.059108e-03  -2.527834e-03  0 
 9.870785e-05  -2.812667e-03  0 
 9.393745e-05  -3.240584e-03  0 
 1.375060e-03  -2.876630e-03  0 
 1.455210e-03  -3.274428e-03  0 
 -1.057096e-04  -1.975316e-03  0 
 9.773129e-04  -2.271394e-03  0 
 2.944959e-04  -2.009840e-03  0 
 6.849702e-04  -2.209891e-03  0 
 -1.113746e-04  -2.601809e-03  0 
 -2.084607e-04  -2.305063e-03  0 
 8.046253e-04  -3.114452e-03  0 
 1.094391e-03  -2.814327e-03  0 
 4.148900e-04  -2.815409e-03  0 
 6.374741e-04  -2.735602e-03  0 
 8.441232e-04  -2.843630e-03  0 
 5.907956e-04  -3.074943e-03  0 
 9.913054e-04  -3.125213e-03  0 
 1.595022e-03  -3.484677e-03  0 
 1.966988e-03  -3.720477e-03  0 
 1.778818e-03  -3.554088e-03  0 
 1.558286e-03  -3.092124e-03  0 
 1.712018e-03  -3.372317e-03  0 
 1.502914e-03  -3.103501e-03  0 
 1.407533e-03  -2.788573e-03  0 
VECTORS displacement_ITER10 FLOAT
 1.386238e-04  -2.171343e-03  0 
 1.262666e-03  -2.339620e-03  0 
 1.661732e-04  -1.760411e-03  0 
 -3.364066e-04  -1.971780e-03  0 
 -8.422580e-05  -2.032767e-03  0 
 4.487954e-04  -2.315803e-03  0 
 7.854525e-04  -2.400076e-03  0 
 1.084210e-03  -2.409158e-03  0 
 9.525220e-05  -2.681536e-03  0 
 9.779526e-05  -3.104282e-03  0 
 1.377425e-03  -2.748075e-03  0 
 1.450037e-03  -3.100885e-03  0 
 -1.202142e-04  -1.810327e-03  0 
 1.048422e-03  -2.136485e-03  0 
 2.612313e-04  -1.820119e-03  0 
 7.154430e-04  -2.072024e-03  0 
 -1.038249e-05  -2.597470e-03  0 
 -1.017934e-04  -2.345615e-03  0 
 8.219459e-04  -3.003298e-03  0 
 1.126541e-03  -2.693486e-03  0 
 4.111917e-04  -2.692225e-03  0 
 6.466783e-04  -2.605510e-03  0 
 8.701250e-04  -2.717207e-03  0 
 5.910643e-04  -2.965193e-03  0 
 1.025907e-03  -2.998861e-03  0 
 1.591502e-03  -3.302202e-03  0 
 1.863736e-03  -3.699242e-03  0 
 1.814636e-03  -3.374397e-03  0 
 1.524814e-03  -2.889681e-03  0 
 1.645647e-03  -3.267112e-03  0 
 1.453258e-03  -2.950435e-03  0 
 1.364886e-03  -2.611794e-03  0 
VECTORS displacement_ITER11 FLOAT
 1.384548e-04  -2.133768e-03  0 
 1.281793e-03  -2.301418e-03  0 
 1.661041e-04  -1.741852e-03  0 
 -2.883193e-04  -1.943254e-03  0 
 -6.296276e-05  -1.995662e-03  0 
 4.470670e-04  -2.279152e-03  0 
 7.849211e-04  -2.358117e-03  0 
 1.093239e-03  -2.365566e-03  0 
 9.668883e-05  -2.643417e-03  0 
 1.030389e-04  -3.065310e-03  0 
 1.396636e-03  -2.716592e-03  0 
 1.468885e-03  -3.075248e-03  0 
 -9.741444e-05  -1.788375e-03  0 
 1.064538e-03  -2.075884e-03  0 
 2.982893e-04  -1.789305e-03  0 
 7.162202e-04  -2.018543e-03  0 
 -3.041767e-05  -2.573919e-03  0 
 -1.899924e-04  -2.351471e-03  0 
 8.227100e-04  -2.976082e-03  0 
 1.141329e-03  -2.662392e-03  0 
 4.098189e-04  -2.656221e-03  0 
 6.432885e-04  -2.567677e-03  0 
 8.708506e-04  -2.681045e-03  0 
 5.850813e-04  -2.925985e-03  0 
 1.039322e-03  -2.975001e-03  0 
 1.567838e-03  -3.321935e-03  0 
 1.892460e-03  -3.768999e-03  0 
 1.840617e-03  -3.394673e-03  0 
 1.516451e-03  -2.882553e-03  0 
 1.638963e-03  -3.255181e-03  0 
 1.452580e-03  -2.931941e-03  0 
 1.365798e-03  -2.593452e-03  0 
VECTORS displacement_ITER12 FLOAT
 1.395233e-04  -2.132568e-03  0 
 1.282153e-03  -2.301721e-03  0 
 1.678776e-04  -1.739427e-03  0 
 -2.861619e-04  -1.941627e-03  0 
 -6.210489e-05  -1.994231e-03  0 
 4.475117e-04  -2.279182e-03  0 
 7.841812e-04  -2.358502e-03  0 
 1.093187e-03  -2.365192e-03  0 
 9.690565e-05  -2.643050e-03  0 
 1.024214e-04  -3.067168e-03  0 
 1.396475e-03  -2.716473e-03  0 
 1.468363e-03  -3.073287e-03  0 
 -9.675371e-05  -1.787316e-03  0 
 1.052526e-03  -2.098581e-03  0 
 2.927979e-04  -1.795267e-03  0 
 7.146564e-04  -2.012933e-03  0 
 -2.774664e-05  -2.566128e-03  0 
 -1.845110e-04  -2.353193e-03  0 
 8.223027e-04  -2.976590e-03  0 
 1.141850e-03  -2.662891e-03  0 
 4.111622e-04  -2.654952e-03  0 
 6.432811e-04  -2.567484e-03  0 
 8.697757e-04  -2.681415e-03  0 
 5.860771e-04  -2.923595e-03  0 
 1.039072e-03  -2.976857e-03  0 
 1.581377e-03  -3.355219e-03  0 
 1.861446e-03  -3.768380e-03  0 
 1.832727e-03  -3.369136e-03  0 
 1.525988e-03  -2.883213e-03  0 
 1.643380e-03  -3.259961e-03  0 
 1.456601e-03  -2.933435e-03  0 
 1.367827e-03  -2.584292e-03  0 
VECTORS displacement_ITER13 FLOAT
 1.397702e-04  -2.133119e-03  0 
 1.281626e-03  -2.302186e-03  0 
 1.686218e-04  -1.738753e-03  0 
 -2.868025e-04  -1.942721e-03  0 
 -6.213988e-05  -1.995213e-03  0 
 4.476004e-04  -2.279817e-03  0 
 7.840761e-04  -2.359052e-03  0 
 1.092952e-03  -2.365885e-03  0 
 9.710465e-05  -2.643581e-03  0 
 1.026676e-04  -3.067872e-03  0 
 1.396103e-03  -2.716909e-03  0 
 1.468206e-03  -3.073849e-03  0 
 -9.667863e-05  -1.788107e-03  0 
 1.050824e-03  -2.100706e-03  0 
 3.030164e-04  -1.794143e-03  0 
 7.045019e-04  -2.018736e-03  0 
 -2.886592e-05  -2.564586e-03  0 
 -1.831332e-04  -2.357248e-03  0 
 8.224312e-04  -2.977382e-03  0 
 1.141381e-03  -2.663151e-03  0 
 4.113168e-04  -2.655445e-03  0 
 6.432014e-04  -2.567962e-03  0 
 8.697700e-04  -2.681958e-03  0 
 5.859015e-04  -2.923712e-03  0 
 1.038613e-03  -2.976881e-03  0 
 1.577771e-03  -3.347351e-03  0 
 1.877953e-03  -3.770635e-03  0 
 1.833493e-03  -3.379584e-03  0 
 1.523432e-03  -2.883006e-03  0 
 1.640989e-03  -3.256723e-03  0 
 1.455911e-03  -2.933272e-03  0 
 1.368047e-03  -2.587095e-03  0 
VECTORS displacement_ITER14 FLOAT
 1.398250e-04  -2.133136e-03  0 
 1.281646e-03  -2.302172e-03  0 
 1.687047e-04  -1.738762e-03  0 
 -2.866761e-04  -1.942807e-03  0 
 -6.205448e-05  -1.995268e-03  0 
 4.476488e-04  -2.279796e-03  0 
 7.841582e-04  -2.358994e-03  0 
 1.093035e-03  -2.365898e-03  0 
 9.717923e-05  -2.643552e-03  0 
 1.027651e-04  -3.067781e-03  0 
 1.396126e-03  -2.716863e-03  0 
 1.468227e-03  -3.073779e-03  0 
 -9.658139e-05  -1.788194e-03  0 
 1.050863e-03  -2.098255e-03  0 
 3.033014e-04  -1.794606e-03  0 
 7.050394e-04  -2.019169e-03  0 
 -2.863289e-05  -2.565004e-03  0 
 -1.830093e-04  -2.356124e-03  0 
 8.225809e-04  -2.977447e-03  0 
 1.141427e-03  -2.663102e-03  0 
 4.113470e-04  -2.655435e-03  0 
 6.432465e-04  -2.567926e-03  0 
 8.699002e-04  -2.681946e-03  0 
 5.859013e-04  -2.923678e-03  0 
 1.038669e-03  -2.976786e-03  0 
 1.578115e-03  -3.348717e-03  0 
 1.876757e-03  -3.772890e-03  0 
 1.832361e-03  -3.378481e-03  0 
 1.523088e-03  -2.882834e-03  0 
 1.640565e-03  -3.256171e-03  0 
 1.456536e-03  -2.933379e-03  0 
 1.369268e-03  -2.587918e-03  0 
CELL_DATA 42
TENSORS element_stresses FLOAT
 1.000767e-01  -1.215778e-01  0 
 -1.215778e-01  -1.798210e-01  0 
 0  0  0 

 -1.752049e-01  -4.323653e-01  0 
 -4.323653e-01  -1.989538e-01  0 
 0  0  0 

 -9.984487e-03  -1.848153e-01  0 
 -1.848153e-01  -5.544667e-01  0 
 0  0  0 

 -1.707405e-04  -6.522640e-04  0 
 -6.522640e-04  -1.840725e-04  0 
 0  0  0 

 1.285931e-04  -5.505304e-04  0 
 -5.505304e-04  -5.480633e-04  0 
 0  0  0 

 4.784864e-04  -4.610792e-04  0 
 -4.610792e-04  3.984507e-04  0 
 0  0  0 

 3.856883e-04  -4.890127e-04  0 
 -4.890127e-04  8.809337e-05  0 
 0  0  0 

 3.767781e-04  -2.129319e-04  0 
 -2.129319e-04  -2.013982e-04  0 
 0  0  0 

 2.828037e-04  -3.901603e-04  0 
 -3.901603e-04  -2.319527e-04  0 
 0  0  0 

 1.657062e-04  -5.404382e-04  0 
 -5.404382e-04  -3.722326e-04  0 
 0  0  0 

 -1.225864e-04  -8.085788e-04  0 
 -8.085788e-04  -4.830992e-04  0 
 0  0  0 

 -1.434778e-04  -9.295277e-04  0 
 -9.295277e-04  -2.528873e-04  0 
 0  0  0 

 -1.703807e-04  -9.728295e-04  0 
 -9.728295e-04  -3.548336e-04  0 
 0  0  0 

 -2.291724e-04  -1.005996e-03  0 
 -1.005996e-03  -6.202231e-04  0 
 0  0  0 

 -3.375077e-04  -1.077576e-03  0 
 -1.077576e-03  -5.564153e-04  0 
 0  0  0 

 2.139736e-01  -8.778664e-02  0 
 -8.778664e-02  -2.481121e-01  0 
 0  0  0 

 1.880840e-02  -6.644000e-02  0 
 -6.644000e-02  -1.178307e-02  0 
 0  0  0 

 4.468228e-02  -8.740775e-02  0 
 -8.740775e-02  -3.033891e-01  0 
 0  0  0 

 1.031447e-02  -6.676089e-02  0 
 -6.676089e-02  -2.451879e-02  0 
 0  0  0 

 3.440173e-02  -2.896760e-01  0 
 -2.896760e-01  1.659814e-01  0 
 0  0  0 

 -1.632875e-02  -1.688498e-01  0 
 -1.688498e-01  -2.313571e-01  0 
 0  0  0 

 -1.531608e-02  -4.386818e-02  0 
 -4.386818e-02  1.349427e-01  0 
 0  0  0 

 8.289947e-02  -1.460439e-01  0 
 -1.460439e-01  -2.078027e-01  0 
 0  0  0 

 -1.024871e-01  -1.697144e-01  0 
 -1.697144e-01  -3.761181e-02  0 
 0  0  0 

 1.325828e-01  -9.232847e-02  0 
 -9.232847e-02  -3.634252e-02  0 
 0  0  0 

 1.137621e-01  -3.584914e-01  0 
 -3.584914e-01  2.890334e-01  0 
 0  0  0 

 3.982950e-01  -2.622146e-01  0 
 -2.622146e-01  -1.987414e-01  0 
 0  0  0 

 -5.799881e-02  -2.833290e-01  0 
 -2.833290e-01  -6.040408e-01  0 
 0  0  0 

 -1.902844e-01  -3.278266e-01  0 
 -3.278266e-01  -6.567119e-02  0 
 0  0  0 

 -1.459599e-03  -8.196378e-02  0 
 -8.196378e-02  -9.910019e-02  0 
 0  0  0 

 -2.645118e-02  -2.215510e-01  0 
 -2.215510e-01  -2.931357e-02  0 
 0  0  0 

 -6.950392e-03  -2.243744e-01  0 
 -2.243744e-01  4.576457e-02  0 
 0  0  0 

 2.350996e-02  -2.092277e-01  0 
 -2.092277e-01  -2.754376e-02  0 
 0  0  0 

 5.538675e-04  -8.307053e-04  0 
 -8.307053e-04  -5.654862e-04  0 
 0  0  0 

 6.632339e-04  -9.545912e-04  0 
 -9.545912e-04  -5.503857e-04  0 
 0  0  0 

 4.696260e-04  -1.157707e-03  0 
 -1.157707e-03  -1.196330e-04  0 
 0  0  0 

 3.018102e-04  -1.010830e-03  0 
 -1.010830e-03  4.467654e-05  0 
 0  0  0 

 3.607415e-04  -7.669360e-04  0 
 -7.669360e-04  -3.950499e-04  0 
 0  0  0 

 6.280021e-04  -1.038206e-03  0 
 -1.038206e-03  -1.558483e-04  0 
 0  0  0 

 5.460556e-04  -1.267475e-03  0 
 -1.267475e-03  2.937938e-04  0 
 0  0  0 

 5.029965e-04  -1.256383e-03  0 
 -1.256383e-03  2.906077e-04  0 
 0  0  0 

 4.403646e-04  -8.993436e-04  0 
 -8.993436e-04  -1.344098e-04  0 
 0  0  0 

TENSORS element_stresses FLOAT
 1.000767e-01  -1.215778e-01  0 
 -1.215778e-01  -1.798210e-01  0 
 0  0  0 

 -1.752049e-01  -4.323653e-01  0 
 -4.323653e-01  -1.989538e-01  0 
 0  0  0 

 -9.984487e-03  -1.848153e-01  0 
 -1.848153e-01  -5.544667e-01  0 
 0  0  0 

 -1.707405e-04  -6.522640e-04  0 
 -6.522640e-04  -1.840725e-04  0 
 0  0  0 

 1.285931e-04  -5.505304e-04  0 
 -5.505304e-04  -5.480633e-04  0 
 0  0  0 

 4.784864e-04  -4.610792e-04  0 
 -4.610792e-04  3.984507e-04  0 
 0  0  0 

 3.856883e-04  -4.890127e-04  0 
 -4.890127e-04  8.809337e-05  0 
 0  0  0 

 3.767781e-04  -2.129319e-04  0 
 -2.129319e-04  -2.013982e-04  0 
 0  0  0 

 2.828037e-04  -3.901603e-04  0 
 -3.901603e-04  -2.319527e-04  0 
 0  0  0 

 1.657062e-04  -5.404382e-04  0 
 -5.404382e-04  -3.722326e-04  0 
 0  0  0 

 -1.225864e-04  -8.085788e-04  0 
 -8.085788e-04  -4.830992e-04  0 
 0  0  0 

 -1.434778e-04  -9.295277e-04  0 
 -9.295277e-04  -2.528873e-04  0 
 0  0  0 

 -1.703807e-04  -9.728295e-04  0 
 -9.728295e-04  -3.548336e-04  0 
 0  0  0 

 -2.291724e-04  -1.005996e-03  0 
 -1.005996e-03  -6.202231e-04  0 
 0  0  0 

 -3.375077e-04  -1.077576e-03  0 
 -1.077576e-03  -5.564153e-04  0 
 0  0  0 

 2.139736e-01  -8.778664e-02  0 
 -8.778664e-02  -2.481121e-01  0 
 0  0  0 

 1.880840e-02  -6.644000e-02  0 
 -6.644000e-02  -1.178307e-02  0 
 0  0  0 

 4.468228e-02  -8.740775e-02  0 
 -8.740775e-02  -3.033891e-01  0 
 0  0  0 

 1.031447e-02  -6.676089e-02  0 
 -6.676089e-02  -2.451879e-02  0 
 0  0  0 

 3.440173e-02  -2.896760e-01  0 
 -2.896760e-01  1.659814e-01  0 
 0  0  0 

 -1.632875e-02  -1.688498e-01  0 
 -1.688498e-01  -2.313571e-01  0 
 0  0  0 

 -1.531608e-02  -4.386818e-02  0 
 -4.386818e-02  1.349427e-01  0 
 0  0  0 

 8.289947e-02  -1.460439e-01  0 
 -1.460439e-01  -2.078027e-01  0 
 0  0  0 

 -1.024871e-01  -1.697144e-01  0 
 -1.697144e-01  -3.761181e-02  0 
 0  0  0 

 1.325828e-01  -9.232847e-02  0 
 -9.232847e-02  -3.634252e-02  0 
 0  0  0 

 1.137621e-01  -3.584914e-01  0 
 -3.584914e-01  2.890334e-01  0 
 0  0  0 

 3.982950e-01  -2.622146e-01  0 
 -2.622146e-01  -1.987414e-01  0 
 0  0  0 

 -5.799881e-02  -2.833290e-01  0 
 -2.833290e-01  -6.040408e-01  0 
 0  0  0 

 -1.902844e-01  -3.278266e-01  0 
 -3.278266e-01  -6.567119e-02  0 
 0  0  0 

 -1.459599e-03  -8.196378e-02  0 
 -8.196378e-02  -9.910019e-02  0 
 0  0  0 

 -2.645118e-02  -2.215510e-01  0 
 -2.215510e-01  -2.931357e-02  0 
 0  0  0 

 -6.950392e-03  -2.243744e-01  0 
 -2.243744e-01  4.576457e-02  0 
 0  0  0 

 2.350996e-02  -2.092277e-01  0 
 -2.092277e-01  -2.754376e-02  0 
 0  0  0 

 5.538675e-04  -8.307053e-04  0 
 -8.307053e-04  -5.654862e-04  0 
 0  0  0 

 6.632339e-04  -9.545912e-04  0 
 -9.545912e-04  -5.503857e-04  0 
 0  0  0 

 4.696260e-04  -1.157707e-03  0 
 -1.157707e-03  -1.196330e-04  0 
 0  0  0 

 3.018102e-04  -1.010830e-03  0 
 -1.010830e-03  4.467654e-05  0 
 0  0  0 

 3.607415e-04  -7.669360e-04  0 
 -7.669360e-04  -3.950499e-04  0 
 0  0  0 

 6.280021e-04  -1.038206e-03  0 
 -1.038206e-03  -1.558483e-04  0 
 0  0  0 

 5.460556e-04  -1.267475e-03  0 
 -1.267475e-03  2.937938e-04  0 
 0  0  0 

 5.029965e-04  -1.256383e-03  0 
 -1.256383e-03  2.906077e-04  0 
 0  0  0 

 4.403646e-04  -8.993436e-04  0 
 -8.993436e-04  -1.344098e-04  0 
 0  0  0 

