# vtk DataFile Version 3.1
this is an vtk file created by FEMAC
ASCII
DATASET UNSTRUCTURED_GRID
POINTS 22 FLOAT
2.000000 4.000000 0.000000
3.000000 4.000000 0.000000
2.000000 3.666667 0.000000
2.333333 4.000000 0.000000
2.666667 4.000000 0.000000
3.000000 3.333333 0.000000
3.000000 3.666667 0.000000
3.000000 4.333333 0.000000
3.000000 4.666667 0.000000
3.333333 4.000000 0.000000
2.248421 3.490274 0.000000
2.515789 3.340031 0.000000
2.466342 3.734179 0.000000
2.242347 3.785889 0.000000
2.783162 3.605840 0.000000
2.687481 4.391228 0.000000
2.838537 4.181140 0.000000
3.248421 3.490274 0.000000
3.466342 3.734179 0.000000
3.242347 3.785889 0.000000
3.319226 4.519523 0.000000
3.327558 4.188179 0.000000
CELLS 25 100 
3 3 12  4
3 2 13  0
3 13  3  0
3 13  2 10
3 13 12  3
3 10 12 13
3 12 10 11
3 4 14  1
3 14  6  1
3 14  4 12
3 6 14  5
3 11 14 12
3 8 15  7
3 16  4  1
3 16  7 15
3 7 16  1
3 4 16 15
3 6  5 17
3 6 19  1
3 19  9  1
3 19  6 17
3 19 18  9
3 21  7  1
3 9 21  1
3 21 20  7
CELL_TYPES 25
5 5 5 5 5 5 5 5 5 5 5 5 5 5 5 5 5 5 5 5 5 5 5 5 5 
POINT_DATA 22
VECTORS displacement_ITER1 FLOAT
 3.100917e-01  -1.403181e-01  0 
 2.696406e-01  -2.722851e-01  0 
 1.727667e-01  -3.184821e-02  0 
 3.064960e-01  -2.627146e-01  0 
 2.697360e-01  -3.376063e-01  0 
 3.531264e-01  -2.725148e-01  0 
 3.112940e-01  -2.723912e-01  0 
 2.040896e-01  -2.720260e-01  0 
 1.383429e-01  -2.720279e-01  0 
 2.696219e-01  -2.307266e-01  0 
 1.560912e-01  -1.682933e-01  0 
 1.729081e-01  -2.085647e-01  0 
 2.613478e-01  -2.932657e-01  0 
 2.574456e-01  -2.107768e-01  0 
 2.991350e-01  -3.079402e-01  0 
 1.926763e-01  -3.335603e-01  0 
 2.340791e-01  -3.038407e-01  0 
 3.333751e-01  -2.413259e-01  0 
 3.029510e-01  -2.140913e-01  0 
 2.964021e-01  -2.420796e-01  0 
 1.820840e-01  -2.326839e-01  0 
 2.341327e-01  -2.248504e-01  0 
VECTORS displacement_ITER2 FLOAT
 -1.218923e-02  -9.393453e-02  0 
 5.940219e-02  -3.290813e-02  0 
 1.382483e-02  2.229617e-04  0 
 1.673370e-02  -6.085615e-02  0 
 5.933657e-02  -5.208696e-02  0 
 2.535175e-02  -3.324313e-02  0 
 4.240446e-02  -3.311757e-02  0 
 3.994046e-02  -3.275871e-02  0 
 2.057650e-02  -3.274320e-02  0 
 5.962934e-02  -5.037797e-02  0 
 2.378244e-02  -1.776186e-02  0 
 2.420194e-02  -2.439652e-02  0 
 3.947525e-02  -3.079056e-02  0 
 3.036154e-02  -3.799375e-02  0 
 4.086354e-02  -3.554213e-02  0 
 3.658961e-02  -5.085397e-02  0 
 4.883213e-02  -4.217341e-02  0 
 3.331920e-02  -4.592191e-02  0 
 4.590241e-02  -5.707108e-02  0 
 4.844845e-02  -4.546533e-02  0 
 5.164264e-02  -4.967445e-02  0 
 5.105142e-02  -3.940115e-02  0 
VECTORS displacement_ITER3 FLOAT
 1.425562e-02  -1.810370e-02  0 
 1.030706e-02  -9.732318e-03  0 
 8.977772e-03  6.219905e-03  0 
 8.060988e-03  -1.502511e-02  0 
 1.028909e-02  -1.628807e-02  0 
 1.082809e-03  -1.015321e-02  0 
 5.623620e-03  -9.973376e-03  0 
 3.606105e-03  -9.617155e-03  0 
 -2.873299e-03  -9.563946e-03  0 
 1.050232e-02  -1.486442e-02  0 
 4.268801e-03  -1.356333e-02  0 
 4.243498e-03  -1.665900e-02  0 
 9.597514e-03  -1.656816e-02  0 
 1.326390e-02  -1.431284e-02  0 
 6.879347e-03  -1.429626e-02  0 
 2.502289e-03  -1.567629e-02  0 
 6.666270e-03  -1.284737e-02  0 
 3.134885e-03  -1.349457e-02  0 
 6.639220e-03  -1.671562e-02  0 
 7.245862e-03  -1.333003e-02  0 
 9.802276e-03  -1.907004e-02  0 
 7.416022e-03  -1.293174e-02  0 
VECTORS displacement_ITER4 FLOAT
 1.294342e-03  3.552455e-04  0 
 5.315304e-03  -8.210399e-03  0 
 2.702541e-03  -2.527504e-03  0 
 -1.957181e-03  -7.954744e-03  0 
 5.202669e-03  -9.454826e-03  0 
 3.606695e-03  -8.360720e-03  0 
 4.695037e-03  -8.246201e-03  0 
 3.917281e-03  -8.131918e-03  0 
 2.825283e-03  -8.028642e-03  0 
 5.516736e-03  -9.251264e-03  0 
 1.538863e-03  -7.892305e-03  0 
 1.581792e-03  -8.354429e-03  0 
 2.439196e-03  -7.677440e-03  0 
 1.279896e-03  -7.313222e-03  0 
 3.657036e-03  -9.512829e-03  0 
 3.789375e-03  -9.134547e-03  0 
 4.532978e-03  -8.786242e-03  0 
 4.055798e-03  -9.130902e-03  0 
 5.172504e-03  -9.205194e-03  0 
 4.956213e-03  -8.810037e-03  0 
 8.651068e-03  -1.580219e-02  0 
 4.817330e-03  -1.085983e-02  0 
VECTORS displacement_ITER5 FLOAT
 1.592184e-03  -5.132527e-03  0 
 3.161983e-03  -7.233310e-03  0 
 2.908610e-05  -2.346946e-03  0 
 3.481914e-03  -8.641110e-03  0 
 2.955557e-03  -7.324801e-03  0 
 1.690890e-03  -7.292308e-03  0 
 2.740915e-03  -7.244828e-03  0 
 2.838512e-03  -7.123776e-03  0 
 2.790138e-03  -6.900445e-03  0 
 3.399106e-03  -8.096131e-03  0 
 5.255102e-04  -7.298772e-03  0 
 1.088446e-03  -9.044898e-03  0 
 2.546556e-03  -9.728030e-03  0 
 2.141441e-03  -7.646946e-03  0 
 2.399520e-03  -9.244293e-03  0 
 2.957171e-03  -7.101495e-03  0 
 2.959242e-03  -7.284048e-03  0 
 2.151806e-03  -8.057015e-03  0 
 3.111085e-03  -7.941165e-03  0 
 2.949175e-03  -7.713080e-03  0 
 7.606086e-03  -1.426909e-02  0 
 3.159652e-03  -1.015102e-02  0 
VECTORS displacement_ITER6 FLOAT
 1.487025e-03  -3.281798e-03  0 
 2.363874e-03  -6.624469e-03  0 
 9.355763e-04  -2.494208e-03  0 
 1.815709e-03  -4.410853e-03  0 
 2.135665e-03  -5.900564e-03  0 
 1.428347e-03  -6.610606e-03  0 
 2.024824e-03  -6.708245e-03  0 
 2.787043e-03  -6.533264e-03  0 
 3.495713e-03  -6.395114e-03  0 
 2.575264e-03  -7.314285e-03  0 
 1.170820e-03  -6.272026e-03  0 
 1.391808e-03  -7.646547e-03  0 
 1.663380e-03  -7.284127e-03  0 
 1.871718e-03  -5.614116e-03  0 
 1.440424e-03  -8.084974e-03  0 
 3.002345e-03  -5.811825e-03  0 
 2.560980e-03  -6.302510e-03  0 
 1.742986e-03  -7.121799e-03  0 
 2.084835e-03  -7.606553e-03  0 
 2.180158e-03  -7.084169e-03  0 
 4.362289e-03  -1.111418e-02  0 
 2.487509e-03  -9.256356e-03  0 
VECTORS displacement_ITER7 FLOAT
 8.450610e-04  -3.802448e-03  0 
 1.319858e-03  -6.027369e-03  0 
 2.087826e-06  -3.073845e-03  0 
 9.381680e-04  -4.867295e-03  0 
 1.090028e-03  -5.427916e-03  0 
 6.341438e-04  -6.019872e-03  0 
 1.117597e-03  -6.144375e-03  0 
 1.608394e-03  -5.937388e-03  0 
 2.133701e-03  -5.824647e-03  0 
 1.568656e-03  -6.662377e-03  0 
 3.094107e-04  -6.613498e-03  0 
 3.024702e-04  -8.209646e-03  0 
 9.597739e-04  -7.514894e-03  0 
 1.055706e-03  -6.141349e-03  0 
 6.933318e-04  -7.821591e-03  0 
 1.792305e-03  -5.357374e-03  0 
 1.444512e-03  -5.770861e-03  0 
 9.135596e-04  -6.461730e-03  0 
 1.172522e-03  -6.850547e-03  0 
 1.204620e-03  -6.402305e-03  0 
 4.130417e-03  -1.105190e-02  0 
 1.421283e-03  -8.646319e-03  0 
VECTORS displacement_ITER8 FLOAT
 1.474706e-03  -3.987145e-03  0 
 2.163970e-03  -6.693941e-03  0 
 6.793272e-04  -3.187233e-03  0 
 1.677094e-03  -5.136689e-03  0 
 1.931176e-03  -6.053821e-03  0 
 1.270347e-03  -6.666187e-03  0 
 1.823658e-03  -6.795667e-03  0 
 2.460843e-03  -6.609200e-03  0 
 2.976530e-03  -6.533786e-03  0 
 2.414294e-03  -7.468483e-03  0 
 8.972596e-04  -6.598633e-03  0 
 8.814091e-04  -8.109218e-03  0 
 1.620254e-03  -7.754237e-03  0 
 1.719335e-03  -6.268100e-03  0 
 1.344056e-03  -8.383368e-03  0 
 2.623561e-03  -6.049353e-03  0 
 2.294153e-03  -6.430002e-03  0 
 1.574966e-03  -7.174316e-03  0 
 1.933897e-03  -7.655763e-03  0 
 1.968754e-03  -7.160779e-03  0 
 3.816356e-03  -1.138655e-02  0 
 2.190296e-03  -9.343773e-03  0 
VECTORS displacement_ITER9 FLOAT
 1.609428e-03  -3.942179e-03  0 
 2.280604e-03  -6.860122e-03  0 
 7.344244e-04  -3.160356e-03  0 
 1.800497e-03  -5.166739e-03  0 
 2.042626e-03  -6.127485e-03  0 
 1.233863e-03  -6.830177e-03  0 
 1.867373e-03  -6.962261e-03  0 
 2.656605e-03  -6.769362e-03  0 
 3.246594e-03  -6.682660e-03  0 
 2.531588e-03  -7.709343e-03  0 
 8.650067e-04  -6.615726e-03  0 
 7.648483e-04  -8.164959e-03  0 
 1.686698e-03  -7.819932e-03  0 
 1.797820e-03  -6.282567e-03  0 
 1.373589e-03  -8.555298e-03  0 
 2.832874e-03  -6.148351e-03  0 
 2.455563e-03  -6.555764e-03  0 
 1.574482e-03  -7.405090e-03  0 
 1.991441e-03  -7.928865e-03  0 
 2.038160e-03  -7.381636e-03  0 
 3.201792e-03  -1.081784e-02  0 
 2.319411e-03  -9.473400e-03  0 
CELL_DATA 25
TENSORS element_stresses FLOAT
 3.613269e-03  -1.608209e-03  0 
 -1.608209e-03  9.622935e-03  0 
 0  0  0 

 2.629553e-03  -7.003367e-03  0 
 -7.003367e-03  -1.556602e-03  0 
 0  0  0 

 2.862624e-03  -3.003663e-03  0 
 -3.003663e-03  7.631385e-03  0 
 0  0  0 

 3.366241e-03  -7.761555e-03  0 
 -7.761555e-03  1.863529e-03  0 
 0  0  0 

 1.946631e-03  -3.808655e-03  0 
 -3.808655e-03  7.985916e-03  0 
 0  0  0 

 5.831652e-04  -2.672608e-03  0 
 -2.672608e-03  1.165627e-03  0 
 0  0  0 

 1.163566e-03  -2.491512e-03  0 
 -2.491512e-03  5.087714e-04  0 
 0  0  0 

 2.600979e-03  -2.227184e-04  0 
 -2.227184e-04  6.290149e-03  0 
 0  0  0 

 2.221278e-03  6.538764e-03  0 
 6.538764e-03  9.728004e-04  0 
 0  0  0 

 1.674468e-03  1.380087e-03  0 
 1.380087e-03  6.720224e-03  0 
 0  0  0 

 1.785919e-03  7.198722e-03  0 
 7.198722e-03  1.395236e-04  0 
 0  0  0 

 1.556025e-04  2.012845e-04  0 
 2.012845e-04  6.621408e-04  0 
 0  0  0 

 -1.737447e-01  -1.299704e-01  0 
 -1.299704e-01  2.079828e-01  0 
 0  0  0 

 6.925915e-01  -4.581969e-01  0 
 -4.581969e-01  -7.114201e-02  0 
 0  0  0 

 -9.910823e-02  -2.107116e-01  0 
 -2.107116e-01  5.592018e-01  0 
 0  0  0 

 2.896356e-01  -3.473362e-01  0 
 -3.473362e-01  3.591701e-01  0 
 0  0  0 

 3.463612e-01  -4.429681e-01  0 
 -4.429681e-01  1.878540e-01  0 
 0  0  0 

 5.669821e-02  -1.256982e-01  0 
 -1.256982e-01  -3.792426e-01  0 
 0  0  0 

 2.052500e-01  -4.934807e-01  0 
 -4.934807e-01  3.679919e-01  0 
 0  0  0 

 6.797561e-01  -4.331378e-01  0 
 -4.331378e-01  -2.439854e-01  0 
 0  0  0 

 -5.850486e-02  -1.420344e-01  0 
 -1.420344e-01  2.579168e-02  0 
 0  0  0 

 1.758612e-01  -2.824363e-01  0 
 -2.824363e-01  -3.956268e-01  0 
 0  0  0 

 -4.921639e-04  -5.389598e-03  0 
 -5.389598e-03  1.246302e-04  0 
 0  0  0 

 -2.288812e-03  -2.809298e-03  0 
 -2.809298e-03  -1.013921e-02  0 
 0  0  0 

 -1.254478e-03  -5.768944e-03  0 
 -5.768944e-03  -4.689536e-03  0 
 0  0  0 

TENSORS element_stresses FLOAT
 3.613269e-03  -1.608209e-03  0 
 -1.608209e-03  9.622935e-03  0 
 0  0  0 

 2.629553e-03  -7.003367e-03  0 
 -7.003367e-03  -1.556602e-03  0 
 0  0  0 

 2.862624e-03  -3.003663e-03  0 
 -3.003663e-03  7.631385e-03  0 
 0  0  0 

 3.366241e-03  -7.761555e-03  0 
 -7.761555e-03  1.863529e-03  0 
 0  0  0 

 1.946631e-03  -3.808655e-03  0 
 -3.808655e-03  7.985916e-03  0 
 0  0  0 

 5.831652e-04  -2.672608e-03  0 
 -2.672608e-03  1.165627e-03  0 
 0  0  0 

 1.163566e-03  -2.491512e-03  0 
 -2.491512e-03  5.087714e-04  0 
 0  0  0 

 2.600979e-03  -2.227184e-04  0 
 -2.227184e-04  6.290149e-03  0 
 0  0  0 

 2.221278e-03  6.538764e-03  0 
 6.538764e-03  9.728004e-04  0 
 0  0  0 

 1.674468e-03  1.380087e-03  0 
 1.380087e-03  6.720224e-03  0 
 0  0  0 

 1.785919e-03  7.198722e-03  0 
 7.198722e-03  1.395236e-04  0 
 0  0  0 

 1.556025e-04  2.012845e-04  0 
 2.012845e-04  6.621408e-04  0 
 0  0  0 

 -1.737447e-01  -1.299704e-01  0 
 -1.299704e-01  2.079828e-01  0 
 0  0  0 

 6.925915e-01  -4.581969e-01  0 
 -4.581969e-01  -7.114201e-02  0 
 0  0  0 

 -9.910823e-02  -2.107116e-01  0 
 -2.107116e-01  5.592018e-01  0 
 0  0  0 

 2.896356e-01  -3.473362e-01  0 
 -3.473362e-01  3.591701e-01  0 
 0  0  0 

 3.463612e-01  -4.429681e-01  0 
 -4.429681e-01  1.878540e-01  0 
 0  0  0 

 5.669821e-02  -1.256982e-01  0 
 -1.256982e-01  -3.792426e-01  0 
 0  0  0 

 2.052500e-01  -4.934807e-01  0 
 -4.934807e-01  3.679919e-01  0 
 0  0  0 

 6.797561e-01  -4.331378e-01  0 
 -4.331378e-01  -2.439854e-01  0 
 0  0  0 

 -5.850486e-02  -1.420344e-01  0 
 -1.420344e-01  2.579168e-02  0 
 0  0  0 

 1.758612e-01  -2.824363e-01  0 
 -2.824363e-01  -3.956268e-01  0 
 0  0  0 

 -4.921639e-04  -5.389598e-03  0 
 -5.389598e-03  1.246302e-04  0 
 0  0  0 

 -2.288812e-03  -2.809298e-03  0 
 -2.809298e-03  -1.013921e-02  0 
 0  0  0 

 -1.254478e-03  -5.768944e-03  0 
 -5.768944e-03  -4.689536e-03  0 
 0  0  0 

