# vtk DataFile Version 3.1
this is an vtk file created by FEMAC
ASCII
DATASET UNSTRUCTURED_GRID
POINTS 31 FLOAT
5.000000 2.000000 0.000000
4.500000 2.000000 0.000000
4.750000 2.000000 0.000000
5.000000 1.500000 0.000000
5.000000 1.750000 0.000000
5.000000 2.250000 0.000000
5.000000 2.500000 0.000000
5.000000 2.750000 0.000000
5.250000 2.000000 0.000000
4.654136 1.816702 0.000000
4.789602 1.627399 0.000000
4.544074 1.619719 0.000000
4.840801 1.845599 0.000000
4.674167 2.178356 0.000000
4.500000 2.225000 0.000000
4.828194 2.341416 0.000000
4.808128 2.581646 0.000000
4.399662 2.398247 0.000000
4.630720 2.401594 0.000000
4.507893 2.661856 0.000000
4.761003 2.832250 0.000000
4.850472 2.153954 0.000000
5.194695 1.661595 0.000000
5.155217 1.845050 0.000000
5.325972 2.178472 0.000000
5.171968 2.341551 0.000000
5.216647 2.581177 0.000000
5.399662 2.398247 0.000000
5.507893 2.661856 0.000000
5.245757 2.832172 0.000000
5.149588 2.154005 0.000000
CELLS 43 172 
3 1 9 2
3 4 10  3
3 11 10  9
3 2 12  0
3 12  4  0
3 12  2  9
3 12 10  4
3 9 10 12
3 13  1  2
3 13 14  1
3 13 18 14
3 15  5  6
3 7 16  6
3 15 18 13
3 17 14 18
3 21  2  0
3 5 21  0
3 2 21 13
3 20 16  7
3 15 21  5
3 15 13 21
3 15  6 16
3 15 16 18
3 17 18 19
3 19 18 16
3 19 16 20
3 22  4  3
3 4 23  0
3 23  8  0
3 22 23  4
3 5 25  6
3 26  7  6
3 27 25 24
3 30  5  0
3 30  8 24
3 8 30  0
3 26 29  7
3 30 25  5
3 24 25 30
3 6 25 26
3 26 25 27
3 27 28 26
3 26 28 29
CELL_TYPES 43
5 5 5 5 5 5 5 5 5 5 5 5 5 5 5 5 5 5 5 5 5 5 5 5 5 5 5 5 5 5 5 5 5 5 5 5 5 5 5 5 5 5 5 
POINT_DATA 31
VECTORS displacement_ITER1 FLOAT
 -5.714973e-02  -3.101522e-01  0 
 -5.717244e-02  -2.816307e-01  0 
 -5.715962e-02  -2.958697e-01  0 
 -7.632520e-02  -3.103221e-01  0 
 -6.679610e-02  -3.102686e-01  0 
 -4.294817e-02  -3.101029e-01  0 
 -2.874036e-02  -3.101006e-01  0 
 -1.452260e-02  -3.101087e-01  0 
 -5.710694e-02  -3.199659e-01  0 
 -5.795334e-02  -2.801024e-01  0 
 -6.809137e-02  -2.948128e-01  0 
 -6.405980e-02  -2.458534e-01  0 
 -5.988608e-02  -2.976503e-01  0 
 -4.701210e-02  -2.915644e-01  0 
 -4.436225e-02  -2.816476e-01  0 
 -3.774968e-02  -3.003289e-01  0 
 -2.409854e-02  -2.991815e-01  0 
 -3.451695e-02  -2.759431e-01  0 
 -3.432759e-02  -2.890882e-01  0 
 -1.954179e-02  -2.820957e-01  0 
 -9.859475e-03  -2.965071e-01  0 
 -4.839395e-02  -3.016070e-01  0 
 -7.018298e-02  -3.177269e-01  0 
 -6.316549e-02  -3.162169e-01  0 
 -4.599691e-02  -3.404736e-01  0 
 -3.870837e-02  -3.281734e-01  0 
 -2.421001e-02  -3.362906e-01  0 
 -3.511760e-02  -3.546168e-01  0 
 -1.111674e-02  -3.855756e-01  0 
 1.939305e-03  -3.503812e-01  0 
 -5.019552e-02  -3.212564e-01  0 
VECTORS displacement_ITER2 FLOAT
 -1.722122e-02  -1.449412e-01  0 
 -1.724312e-02  -1.328349e-01  0 
 -1.723892e-02  -1.388551e-01  0 
 -5.414830e-02  -1.451079e-01  0 
 -3.566419e-02  -1.450599e-01  0 
 -1.128429e-02  -1.448141e-01  0 
 -5.375150e-03  -1.447583e-01  0 
 5.192227e-04  -1.447586e-01  0 
 -1.716611e-02  -1.635680e-01  0 
 -2.730909e-02  -1.294750e-01  0 
 -4.034422e-02  -1.381658e-01  0 
 -3.684507e-02  -1.208400e-01  0 
 -2.676049e-02  -1.387559e-01  0 
 -1.295704e-02  -1.370423e-01  0 
 -1.185053e-02  -1.328751e-01  0 
 -9.103103e-03  -1.407095e-01  0 
 -3.445735e-03  -1.402121e-01  0 
 -7.759356e-03  -1.305181e-01  0 
 -7.677265e-03  -1.360010e-01  0 
 -1.565452e-03  -1.330900e-01  0 
 2.451439e-03  -1.391109e-01  0 
 -1.353792e-02  -1.412813e-01  0 
 -4.221537e-02  -1.594646e-01  0 
 -2.867835e-02  -1.564898e-01  0 
 -1.708699e-02  -1.662803e-01  0 
 -1.142375e-02  -1.567453e-01  0 
 -5.461310e-03  -1.606115e-01  0 
 -1.214465e-02  -1.727555e-01  0 
 -1.467420e-03  -1.905226e-01  0 
 7.317534e-03  -1.677830e-01  0 
 -1.483232e-02  -1.563153e-01  0 
VECTORS displacement_ITER3 FLOAT
 -1.990955e-02  -5.707645e-02  0 
 -1.988690e-02  -5.006093e-02  0 
 -1.990851e-02  -5.349033e-02  0 
 -3.631807e-02  -5.747714e-02  0 
 -2.819859e-02  -5.736565e-02  0 
 -1.652255e-02  -5.688028e-02  0 
 -1.315935e-02  -5.681438e-02  0 
 -9.778245e-03  -5.681608e-02  0 
 -1.982797e-02  -6.571673e-02  0 
 -2.327638e-02  -4.988650e-02  0 
 -2.904056e-02  -5.438831e-02  0 
 -2.475880e-02  -4.673015e-02  0 
 -2.383786e-02  -5.386629e-02  0 
 -1.745530e-02  -5.243615e-02  0 
 -1.681743e-02  -5.003966e-02  0 
 -1.527092e-02  -5.452187e-02  0 
 -1.205358e-02  -5.420732e-02  0 
 -1.448513e-02  -4.868436e-02  0 
 -1.445225e-02  -5.180971e-02  0 
 -1.097974e-02  -5.009649e-02  0 
 -8.678680e-03  -5.357728e-02  0 
 -1.778351e-02  -5.488575e-02  0 
 -3.108089e-02  -6.371213e-02  0 
 -2.512930e-02  -6.241610e-02  0 
 -2.017912e-02  -6.627436e-02  0 
 -1.681753e-02  -6.251262e-02  0 
 -1.337152e-02  -6.512329e-02  0 
 -1.692337e-02  -7.043740e-02  0 
 -1.066751e-02  -8.173009e-02  0 
 -6.152820e-03  -6.985780e-02  0 
 -1.866657e-02  -6.240601e-02  0 
VECTORS displacement_ITER4 FLOAT
 -1.301558e-02  -2.733122e-02  0 
 -1.296421e-02  -2.374593e-02  0 
 -1.300490e-02  -2.543341e-02  0 
 -1.401491e-02  -2.785962e-02  0 
 -1.369849e-02  -2.771529e-02  0 
 -1.133187e-02  -2.711924e-02  0 
 -9.644990e-03  -2.706832e-02  0 
 -7.902475e-03  -2.708438e-02  0 
 -1.289430e-02  -2.849152e-02  0 
 -1.170496e-02  -2.436597e-02  0 
 -1.364910e-02  -2.739734e-02  0 
 -1.400245e-02  -1.774095e-02  0 
 -1.279407e-02  -2.621125e-02  0 
 -1.177690e-02  -2.488440e-02  0 
 -1.144359e-02  -2.366065e-02  0 
 -1.069824e-02  -2.592109e-02  0 
 -9.079294e-03  -2.573118e-02  0 
 -1.026738e-02  -2.294911e-02  0 
 -1.027713e-02  -2.452367e-02  0 
 -8.522285e-03  -2.357377e-02  0 
 -7.343822e-03  -2.540608e-02  0 
 -1.193675e-02  -2.614036e-02  0 
 -1.380573e-02  -2.797333e-02  0 
 -1.355406e-02  -2.799173e-02  0 
 -1.495739e-02  -3.031826e-02  0 
 -1.249240e-02  -2.959896e-02  0 
 -1.114287e-02  -3.150842e-02  0 
 -1.315612e-02  -3.387292e-02  0 
 -1.244981e-02  -3.960474e-02  0 
 -9.390559e-03  -3.255692e-02  0 
 -1.340542e-02  -2.928808e-02  0 
VECTORS displacement_ITER5 FLOAT
 -5.456168e-03  -1.206246e-02  0 
 -5.412582e-03  -9.811051e-03  0 
 -5.449797e-03  -1.084436e-02  0 
 -5.138743e-03  -1.251796e-02  0 
 -5.434230e-03  -1.238727e-02  0 
 -4.437850e-03  -1.186691e-02  0 
 -3.419023e-03  -1.182909e-02  0 
 -2.354909e-03  -1.186563e-02  0 
 -5.375694e-03  -1.240576e-02  0 
 -4.585042e-03  -1.122135e-02  0 
 -5.466494e-03  -1.285735e-02  0 
 -6.647340e-03  -8.186868e-03  0 
 -5.250072e-03  -1.174504e-02  0 
 -4.696900e-03  -1.049980e-02  0 
 -4.493711e-03  -9.746508e-03  0 
 -4.052948e-03  -1.113226e-02  0 
 -3.082673e-03  -1.101731e-02  0 
 -3.782208e-03  -9.308392e-03  0 
 -3.800570e-03  -1.026630e-02  0 
 -2.754069e-03  -9.652516e-03  0 
 -2.010392e-03  -1.084303e-02  0 
 -4.791104e-03  -1.128384e-02  0 
 -5.355779e-03  -1.222070e-02  0 
 -5.534382e-03  -1.225817e-02  0 
 -5.271969e-03  -1.368375e-02  0 
 -4.409614e-03  -1.305426e-02  0 
 -3.579009e-03  -1.367365e-02  0 
 -4.289705e-03  -1.497297e-02  0 
 -4.108774e-03  -1.648232e-02  0 
 -3.037111e-03  -1.331940e-02  0 
 -5.200082e-03  -1.273307e-02  0 
VECTORS displacement_ITER6 FLOAT
 -1.868778e-03  -7.571793e-03  0 
 -1.840040e-03  -6.343496e-03  0 
 -1.861824e-03  -6.870752e-03  0 
 -2.512662e-03  -8.024281e-03  0 
 -2.301365e-03  -7.891803e-03  0 
 -1.366007e-03  -7.364312e-03  0 
 -8.864984e-04  -7.296545e-03  0 
 -3.910459e-04  -7.295187e-03  0 
 -1.796451e-03  -8.360898e-03  0 
 -1.671769e-03  -6.696254e-03  0 
 -2.327985e-03  -7.331648e-03  0 
 -2.380105e-03  -5.284062e-03  0 
 -1.921174e-03  -7.187968e-03  0 
 -1.470803e-03  -6.690460e-03  0 
 -1.366540e-03  -6.303860e-03  0 
 -1.169840e-03  -6.989924e-03  0 
 -7.219977e-04  -6.902291e-03  0 
 -1.030394e-03  -6.089611e-03  0 
 -1.043470e-03  -6.553680e-03  0 
 -5.643681e-04  -6.236379e-03  0 
 -2.361183e-04  -6.808794e-03  0 
 -1.516852e-03  -7.100470e-03  0 
 -2.407172e-03  -8.124698e-03  0 
 -2.228160e-03  -8.048372e-03  0 
 -1.183124e-03  -9.745149e-03  0 
 -1.122680e-03  -8.769364e-03  0 
 -8.951261e-04  -9.300017e-03  0 
 -8.786985e-04  -1.045065e-02  0 
 -1.167992e-03  -1.141800e-02  0 
 -8.538963e-04  -9.354190e-03  0 
 -1.595945e-03  -8.292927e-03  0 
VECTORS displacement_ITER7 FLOAT
 -1.229491e-03  -6.329096e-03  0 
 -1.206150e-03  -5.350409e-03  0 
 -1.222529e-03  -5.758675e-03  0 
 -2.168226e-03  -6.690434e-03  0 
 -1.713952e-03  -6.596011e-03  0 
 -8.649740e-04  -6.107318e-03  0 
 -5.415919e-04  -6.023871e-03  0 
 -2.339884e-04  -6.009014e-03  0 
 -1.202226e-03  -7.086906e-03  0 
 -1.248999e-03  -5.674701e-03  0 
 -1.806790e-03  -6.300900e-03  0 
 -1.685751e-03  -5.124318e-03  0 
 -1.400062e-03  -6.073505e-03  0 
 -9.246158e-04  -5.622604e-03  0 
 -8.535374e-04  -5.339133e-03  0 
 -7.209275e-04  -5.833689e-03  0 
 -4.326703e-04  -5.763933e-03  0 
 -6.314607e-04  -5.202191e-03  0 
 -6.364234e-04  -5.524542e-03  0 
 -3.316940e-04  -5.308195e-03  0 
 -1.291537e-04  -5.704864e-03  0 
 -9.584028e-04  -5.933802e-03  0 
 -1.899270e-03  -6.999404e-03  0 
 -1.599507e-03  -6.827345e-03  0 
 -1.598353e-03  -7.575539e-03  0 
 -9.462656e-04  -6.719752e-03  0 
 -3.837197e-04  -6.861030e-03  0 
 -9.690124e-04  -8.031523e-03  0 
 3.633216e-04  -9.695612e-03  0 
 5.480145e-04  -7.136273e-03  0 
 -1.282048e-03  -6.880081e-03  0 
VECTORS displacement_ITER8 FLOAT
 -1.241937e-03  -6.029012e-03  0 
 -1.223073e-03  -4.990241e-03  0 
 -1.237276e-03  -5.432886e-03  0 
 -2.131906e-03  -6.341310e-03  0 
 -1.665576e-03  -6.238158e-03  0 
 -8.541337e-04  -5.806496e-03  0 
 -5.093926e-04  -5.722908e-03  0 
 -1.830584e-04  -5.710766e-03  0 
 -1.252834e-03  -6.636799e-03  0 
 -1.347298e-03  -5.353059e-03  0 
 -1.778276e-03  -5.832497e-03  0 
 -1.634629e-03  -5.128224e-03  0 
 -1.423563e-03  -5.739554e-03  0 
 -9.200010e-04  -5.290251e-03  0 
 -8.479218e-04  -4.991918e-03  0 
 -7.019375e-04  -5.517812e-03  0 
 -3.958080e-04  -5.450395e-03  0 
 -6.160677e-04  -4.849023e-03  0 
 -6.146437e-04  -5.193930e-03  0 
 -2.970486e-04  -4.984394e-03  0 
 -7.542124e-05  -5.394926e-03  0 
 -9.562538e-04  -5.619513e-03  0 
 -1.868081e-03  -6.654409e-03  0 
 -1.546724e-03  -6.466945e-03  0 
 -2.042959e-03  -7.181554e-03  0 
 -1.035948e-03  -6.144901e-03  0 
 -1.956788e-04  -6.073077e-03  0 
 -1.252577e-03  -7.337367e-03  0 
 1.113790e-03  -8.955019e-03  0 
 1.016437e-03  -6.570489e-03  0 
 -1.447357e-03  -6.536843e-03  0 
VECTORS displacement_ITER9 FLOAT
 -1.262779e-03  -6.011645e-03  0 
 -1.245341e-03  -4.892548e-03  0 
 -1.259178e-03  -5.377054e-03  0 
 -2.024183e-03  -6.334689e-03  0 
 -1.669112e-03  -6.222849e-03  0 
 -8.360384e-04  -5.791625e-03  0 
 -4.496267e-04  -5.713570e-03  0 
 -6.825487e-05  -5.715045e-03  0 
 -1.265060e-03  -6.616242e-03  0 
 -1.381190e-03  -5.227248e-03  0 
 -1.752719e-03  -5.748221e-03  0 
 -1.606562e-03  -5.009363e-03  0 
 -1.437634e-03  -5.683694e-03  0 
 -9.133751e-04  -5.222443e-03  0 
 -8.336811e-04  -4.896554e-03  0 
 -6.698967e-04  -5.475292e-03  0 
 -3.229768e-04  -5.404534e-03  0 
 -5.765744e-04  -4.725083e-03  0 
 -5.721778e-04  -5.117700e-03  0 
 -2.186866e-04  -4.900094e-03  0 
 3.764211e-05  -5.347936e-03  0 
 -9.536608e-04  -5.580082e-03  0 
 -1.833979e-03  -6.557938e-03  0 
 -1.555912e-03  -6.435130e-03  0 
 -2.060475e-03  -7.448502e-03  0 
 -9.588510e-04  -6.176660e-03  0 
 1.200821e-05  -6.123478e-03  0 
 -1.177331e-03  -7.387616e-03  0 
 1.549431e-03  -8.490933e-03  0 
 9.702173e-04  -6.929270e-03  0 
 -1.477031e-03  -6.574134e-03  0 
VECTORS displacement_ITER10 FLOAT
 -1.249003e-03  -5.882903e-03  0 
 -1.227075e-03  -4.809471e-03  0 
 -1.244094e-03  -5.267767e-03  0 
 -2.059258e-03  -6.208907e-03  0 
 -1.673082e-03  -6.102311e-03  0 
 -8.405422e-04  -5.664037e-03  0 
 -4.716004e-04  -5.584656e-03  0 
 -1.120222e-04  -5.579452e-03  0 
 -1.246190e-03  -6.519679e-03  0 
 -1.462243e-03  -5.091563e-03  0 
 -1.773894e-03  -5.525131e-03  0 
 -1.582028e-03  -5.025802e-03  0 
 -1.454458e-03  -5.553377e-03  0 
 -9.143804e-04  -5.118046e-03  0 
 -8.379799e-04  -4.804024e-03  0 
 -6.806368e-04  -5.360282e-03  0 
 -3.498042e-04  -5.290304e-03  0 
 -5.927065e-04  -4.638182e-03  0 
 -5.868982e-04  -5.017198e-03  0 
 -2.505536e-04  -4.812288e-03  0 
 -9.982198e-06  -5.234871e-03  0 
 -9.518645e-04  -5.462536e-03  0 
 -1.843597e-03  -6.454522e-03  0 
 -1.557657e-03  -6.321997e-03  0 
 -2.100061e-03  -7.169305e-03  0 
 -9.991622e-04  -6.005316e-03  0 
 -2.330455e-05  -5.989062e-03  0 
 -1.199262e-03  -7.212397e-03  0 
 1.580731e-03  -8.484556e-03  0 
 7.675272e-04  -6.786685e-03  0 
 -1.469760e-03  -6.432079e-03  0 
VECTORS displacement_ITER11 FLOAT
 -1.219678e-03  -5.833169e-03  0 
 -1.196446e-03  -4.776462e-03  0 
 -1.214397e-03  -5.226094e-03  0 
 -2.054437e-03  -6.159660e-03  0 
 -1.654370e-03  -6.052228e-03  0 
 -8.189502e-04  -5.614604e-03  0 
 -4.581450e-04  -5.535246e-03  0 
 -1.054709e-04  -5.530506e-03  0 
 -1.217838e-03  -6.478176e-03  0 
 -1.407785e-03  -5.083018e-03  0 
 -1.751322e-03  -5.505798e-03  0 
 -1.607076e-03  -4.969623e-03  0 
 -1.422485e-03  -5.512669e-03  0 
 -8.909463e-04  -5.078586e-03  0 
 -8.165407e-04  -4.770552e-03  0 
 -6.619643e-04  -5.316375e-03  0 
 -3.390613e-04  -5.247004e-03  0 
 -5.753402e-04  -4.610067e-03  0 
 -5.701035e-04  -4.979771e-03  0 
 -2.437995e-04  -4.779157e-03  0 
 -6.351072e-06  -5.194457e-03  0 
 -9.274450e-04  -5.417537e-03  0 
 -1.829585e-03  -6.414052e-03  0 
 -1.534755e-03  -6.278740e-03  0 
 -2.090259e-03  -7.177678e-03  0 
 -9.844354e-04  -5.975715e-03  0 
 2.297185e-05  -5.955401e-03  0 
 -1.182028e-03  -7.278379e-03  0 
 1.605547e-03  -8.348599e-03  0 
 7.629280e-04  -6.728445e-03  0 
 -1.455164e-03  -6.400193e-03  0 
VECTORS displacement_ITER12 FLOAT
 -1.214871e-03  -5.831754e-03  0 
 -1.191654e-03  -4.777458e-03  0 
 -1.209591e-03  -5.226002e-03  0 
 -2.047411e-03  -6.158416e-03  0 
 -1.648387e-03  -6.050351e-03  0 
 -8.155563e-04  -5.613135e-03  0 
 -4.555433e-04  -5.534251e-03  0 
 -1.039429e-04  -5.529015e-03  0 
 -1.213026e-03  -6.475841e-03  0 
 -1.384960e-03  -5.095473e-03  0 
 -1.735358e-03  -5.534333e-03  0 
 -1.616687e-03  -4.940763e-03  0 
 -1.413246e-03  -5.516389e-03  0 
 -8.869567e-04  -5.078831e-03  0 
 -8.127060e-04  -4.771975e-03  0 
 -6.590896e-04  -5.315724e-03  0 
 -3.367260e-04  -5.246897e-03  0 
 -5.730339e-04  -4.610099e-03  0 
 -5.677209e-04  -4.979883e-03  0 
 -2.413547e-04  -4.779019e-03  0 
 -4.049582e-06  -5.194435e-03  0 
 -9.234451e-04  -5.416890e-03  0 
 -1.823730e-03  -6.411925e-03  0 
 -1.528960e-03  -6.276336e-03  0 
 -2.078975e-03  -7.169703e-03  0 
 -9.829854e-04  -5.975954e-03  0 
 2.347411e-05  -5.952356e-03  0 
 -1.184398e-03  -7.278709e-03  0 
 1.603876e-03  -8.348516e-03  0 
 7.444804e-04  -6.714084e-03  0 
 -1.448250e-03  -6.396961e-03  0 
VECTORS displacement_ITER13 FLOAT
 -1.215141e-03  -5.832022e-03  0 
 -1.192064e-03  -4.777170e-03  0 
 -1.209889e-03  -5.226065e-03  0 
 -2.047465e-03  -6.158737e-03  0 
 -1.648456e-03  -6.050682e-03  0 
 -8.156667e-04  -5.613324e-03  0 
 -4.555611e-04  -5.534413e-03  0 
 -1.037989e-04  -5.529391e-03  0 
 -1.213365e-03  -6.475692e-03  0 
 -1.384905e-03  -5.095609e-03  0 
 -1.737038e-03  -5.532000e-03  0 
 -1.614693e-03  -4.943037e-03  0 
 -1.413154e-03  -5.516218e-03  0 
 -8.870474e-04  -5.078873e-03  0 
 -8.127461e-04  -4.771912e-03  0 
 -6.591473e-04  -5.315804e-03  0 
 -3.367293e-04  -5.246921e-03  0 
 -5.729403e-04  -4.609977e-03  0 
 -5.677268e-04  -4.979841e-03  0 
 -2.412212e-04  -4.778705e-03  0 
 -3.958552e-06  -5.194363e-03  0 
 -9.235842e-04  -5.417033e-03  0 
 -1.823709e-03  -6.412079e-03  0 
 -1.529138e-03  -6.276518e-03  0 
 -2.080279e-03  -7.171290e-03  0 
 -9.827122e-04  -5.975904e-03  0 
 2.391808e-05  -5.952346e-03  0 
 -1.183455e-03  -7.279521e-03  0 
 1.603495e-03  -8.347994e-03  0 
 7.403344e-04  -6.710434e-03  0 
 -1.449000e-03  -6.397356e-03  0 
VECTORS displacement_ITER14 FLOAT
 -1.215181e-03  -5.832136e-03  0 
 -1.192072e-03  -4.777266e-03  0 
 -1.209924e-03  -5.226168e-03  0 
 -2.047420e-03  -6.158876e-03  0 
 -1.648550e-03  -6.050828e-03  0 
 -8.156914e-04  -5.613453e-03  0 
 -4.555434e-04  -5.534575e-03  0 
 -1.036907e-04  -5.529565e-03  0 
 -1.213418e-03  -6.475796e-03  0 
 -1.385349e-03  -5.095902e-03  0 
 -1.736619e-03  -5.531869e-03  0 
 -1.614669e-03  -4.942917e-03  0 
 -1.413350e-03  -5.516301e-03  0 
 -8.870850e-04  -5.078962e-03  0 
 -8.127934e-04  -4.772004e-03  0 
 -6.591682e-04  -5.315918e-03  0 
 -3.366943e-04  -5.247041e-03  0 
 -5.729699e-04  -4.610061e-03  0 
 -5.677486e-04  -4.979938e-03  0 
 -2.411626e-04  -4.778762e-03  0 
 -3.790293e-06  -5.194446e-03  0 
 -9.236197e-04  -5.417140e-03  0 
 -1.823759e-03  -6.412150e-03  0 
 -1.529223e-03  -6.276676e-03  0 
 -2.080620e-03  -7.171248e-03  0 
 -9.826856e-04  -5.975833e-03  0 
 2.390137e-05  -5.952485e-03  0 
 -1.183315e-03  -7.279009e-03  0 
 1.603693e-03  -8.348035e-03  0 
 7.409605e-04  -6.711265e-03  0 
 -1.449120e-03  -6.397443e-03  0 
CELL_DATA 43
TENSORS element_stresses FLOAT
 -3.165583e-06  -6.163156e-04  0 
 -6.163156e-04  2.274700e-04  0 
 0  0  0 

 -4.191866e-04  -8.637839e-04  0 
 -8.637839e-04  3.064366e-04  0 
 0  0  0 

 -4.071293e-04  -7.302544e-04  0 
 -7.302544e-04  4.515042e-04  0 
 0  0  0 

 1.264443e-04  -8.605576e-04  0 
 -8.605576e-04  4.915747e-04  0 
 0  0  0 

 -1.912249e-04  -8.452560e-04  0 
 -8.452560e-04  8.174001e-04  0 
 0  0  0 

 -1.889273e-04  -9.262488e-04  0 
 -9.262488e-04  4.516712e-04  0 
 0  0  0 

 -3.178341e-04  -1.002290e-03  0 
 -1.002290e-03  6.577291e-04  0 
 0  0  0 

 -2.273971e-04  -5.958527e-04  0 
 -5.958527e-04  5.541924e-04  0 
 0  0  0 

 -5.806426e-02  -1.222198e-02  0 
 -1.222198e-02  4.447438e-02  0 
 0  0  0 

 3.505885e-02  -5.422081e-02  0 
 -5.422081e-02  3.390398e-02  0 
 0  0  0 

 -1.540406e-02  -2.403584e-01  0 
 -2.403584e-01  1.014847e-01  0 
 0  0  0 

 -5.480431e-02  -9.487471e-02  0 
 -9.487471e-02  2.990693e-01  0 
 0  0  0 

 -1.595632e-02  -6.356370e-02  0 
 -6.356370e-02  1.525437e-02  0 
 0  0  0 

 7.847337e-03  -1.846715e-01  0 
 -1.846715e-01  1.219004e-01  0 
 0  0  0 

 5.268734e-03  -1.655066e-01  0 
 -1.655066e-01  9.151439e-03  0 
 0  0  0 

 8.944077e-02  -4.234487e-01  0 
 -4.234487e-01  3.682294e-01  0 
 0  0  0 

 -4.636822e-02  -2.129159e-01  0 
 -2.129159e-01  8.608233e-01  0 
 0  0  0 

 5.399411e-02  -6.696667e-02  0 
 -6.696667e-02  2.660616e-02  0 
 0  0  0 

 2.705858e-02  -6.592895e-02  0 
 -6.592895e-02  -4.940453e-02  0 
 0  0  0 

 -7.060208e-02  -1.166632e-01  0 
 -1.166632e-01  3.355279e-01  0 
 0  0  0 

 9.120395e-02  -3.576761e-01  0 
 -3.576761e-01  3.445886e-01  0 
 0  0  0 

 2.796785e-04  -6.855557e-02  0 
 -6.855557e-02  1.675750e-01  0 
 0  0  0 

 -1.183358e-02  -2.449513e-01  0 
 -2.449513e-01  1.448234e-01  0 
 0  0  0 

 1.055292e-02  -2.647212e-01  0 
 -2.647212e-01  2.054428e-02  0 
 0  0  0 

 3.535525e-02  -2.187572e-01  0 
 -2.187572e-01  5.281715e-02  0 
 0  0  0 

 1.351271e-02  -1.903834e-01  0 
 -1.903834e-01  -8.377771e-02  0 
 0  0  0 

 -5.032777e-02  -4.931616e-02  0 
 -4.931616e-02  4.170942e-01  0 
 0  0  0 

 -3.331053e-02  -1.978786e-01  0 
 -1.978786e-01  8.647744e-01  0 
 0  0  0 

 1.033027e-01  -4.160386e-01  0 
 -4.160386e-01  3.208329e-01  0 
 0  0  0 

 -8.424869e-02  -9.265049e-02  0 
 -9.265049e-02  3.505531e-01  0 
 0  0  0 

 -1.805889e-03  -6.420276e-04  0 
 -6.420276e-04  -2.262561e-04  0 
 0  0  0 

 1.858989e-03  -4.069878e-04  0 
 -4.069878e-04  5.777379e-04  0 
 0  0  0 

 -1.761536e-03  -1.026466e-03  0 
 -1.026466e-03  1.030374e-03  0 
 0  0  0 

 -3.238032e-03  -2.370533e-03  0 
 -2.370533e-03  -9.667578e-05  0 
 0  0  0 

 -4.105019e-03  -5.870895e-03  0 
 -5.870895e-03  -3.388065e-03  0 
 0  0  0 

 -3.779345e-04  -3.154252e-03  0 
 -3.154252e-03  -1.283291e-03  0 
 0  0  0 

 1.991605e-03  -1.071826e-03  0 
 -1.071826e-03  -1.967406e-03  0 
 0  0  0 

 -1.813287e-03  -5.759216e-04  0 
 -5.759216e-04  2.125058e-03  0 
 0  0  0 

 -3.456992e-03  -1.395890e-03  0 
 -1.395890e-03  1.781081e-03  0 
 0  0  0 

 9.170136e-04  1.507252e-03  0 
 1.507252e-03  7.665457e-04  0 
 0  0  0 

 -1.818186e-03  -1.115379e-03  0 
 -1.115379e-03  6.758416e-04  0 
 0  0  0 

 2.841943e-03  1.079415e-03  0 
 1.079415e-03  8.724175e-05  0 
 0  0  0 

 4.555273e-03  -4.100964e-03  0 
 -4.100964e-03  -7.712651e-04  0 
 0  0  0 

TENSORS element_stresses FLOAT
 -3.165583e-06  -6.163156e-04  0 
 -6.163156e-04  2.274700e-04  0 
 0  0  0 

 -4.191866e-04  -8.637839e-04  0 
 -8.637839e-04  3.064366e-04  0 
 0  0  0 

 -4.071293e-04  -7.302544e-04  0 
 -7.302544e-04  4.515042e-04  0 
 0  0  0 

 1.264443e-04  -8.605576e-04  0 
 -8.605576e-04  4.915747e-04  0 
 0  0  0 

 -1.912249e-04  -8.452560e-04  0 
 -8.452560e-04  8.174001e-04  0 
 0  0  0 

 -1.889273e-04  -9.262488e-04  0 
 -9.262488e-04  4.516712e-04  0 
 0  0  0 

 -3.178341e-04  -1.002290e-03  0 
 -1.002290e-03  6.577291e-04  0 
 0  0  0 

 -2.273971e-04  -5.958527e-04  0 
 -5.958527e-04  5.541924e-04  0 
 0  0  0 

 -5.806426e-02  -1.222198e-02  0 
 -1.222198e-02  4.447438e-02  0 
 0  0  0 

 3.505885e-02  -5.422081e-02  0 
 -5.422081e-02  3.390398e-02  0 
 0  0  0 

 -1.540406e-02  -2.403584e-01  0 
 -2.403584e-01  1.014847e-01  0 
 0  0  0 

 -5.480431e-02  -9.487471e-02  0 
 -9.487471e-02  2.990693e-01  0 
 0  0  0 

 -1.595632e-02  -6.356370e-02  0 
 -6.356370e-02  1.525437e-02  0 
 0  0  0 

 7.847337e-03  -1.846715e-01  0 
 -1.846715e-01  1.219004e-01  0 
 0  0  0 

 5.268734e-03  -1.655066e-01  0 
 -1.655066e-01  9.151439e-03  0 
 0  0  0 

 8.944077e-02  -4.234487e-01  0 
 -4.234487e-01  3.682294e-01  0 
 0  0  0 

 -4.636822e-02  -2.129159e-01  0 
 -2.129159e-01  8.608233e-01  0 
 0  0  0 

 5.399411e-02  -6.696667e-02  0 
 -6.696667e-02  2.660616e-02  0 
 0  0  0 

 2.705858e-02  -6.592895e-02  0 
 -6.592895e-02  -4.940453e-02  0 
 0  0  0 

 -7.060208e-02  -1.166632e-01  0 
 -1.166632e-01  3.355279e-01  0 
 0  0  0 

 9.120395e-02  -3.576761e-01  0 
 -3.576761e-01  3.445886e-01  0 
 0  0  0 

 2.796785e-04  -6.855557e-02  0 
 -6.855557e-02  1.675750e-01  0 
 0  0  0 

 -1.183358e-02  -2.449513e-01  0 
 -2.449513e-01  1.448234e-01  0 
 0  0  0 

 1.055292e-02  -2.647212e-01  0 
 -2.647212e-01  2.054428e-02  0 
 0  0  0 

 3.535525e-02  -2.187572e-01  0 
 -2.187572e-01  5.281715e-02  0 
 0  0  0 

 1.351271e-02  -1.903834e-01  0 
 -1.903834e-01  -8.377771e-02  0 
 0  0  0 

 -5.032777e-02  -4.931616e-02  0 
 -4.931616e-02  4.170942e-01  0 
 0  0  0 

 -3.331053e-02  -1.978786e-01  0 
 -1.978786e-01  8.647744e-01  0 
 0  0  0 

 1.033027e-01  -4.160386e-01  0 
 -4.160386e-01  3.208329e-01  0 
 0  0  0 

 -8.424869e-02  -9.265049e-02  0 
 -9.265049e-02  3.505531e-01  0 
 0  0  0 

 -1.805889e-03  -6.420276e-04  0 
 -6.420276e-04  -2.262561e-04  0 
 0  0  0 

 1.858989e-03  -4.069878e-04  0 
 -4.069878e-04  5.777379e-04  0 
 0  0  0 

 -1.761536e-03  -1.026466e-03  0 
 -1.026466e-03  1.030374e-03  0 
 0  0  0 

 -3.238032e-03  -2.370533e-03  0 
 -2.370533e-03  -9.667578e-05  0 
 0  0  0 

 -4.105019e-03  -5.870895e-03  0 
 -5.870895e-03  -3.388065e-03  0 
 0  0  0 

 -3.779345e-04  -3.154252e-03  0 
 -3.154252e-03  -1.283291e-03  0 
 0  0  0 

 1.991605e-03  -1.071826e-03  0 
 -1.071826e-03  -1.967406e-03  0 
 0  0  0 

 -1.813287e-03  -5.759216e-04  0 
 -5.759216e-04  2.125058e-03  0 
 0  0  0 

 -3.456992e-03  -1.395890e-03  0 
 -1.395890e-03  1.781081e-03  0 
 0  0  0 

 9.170136e-04  1.507252e-03  0 
 1.507252e-03  7.665457e-04  0 
 0  0  0 

 -1.818186e-03  -1.115379e-03  0 
 -1.115379e-03  6.758416e-04  0 
 0  0  0 

 2.841943e-03  1.079415e-03  0 
 1.079415e-03  8.724175e-05  0 
 0  0  0 

 4.555273e-03  -4.100964e-03  0 
 -4.100964e-03  -7.712651e-04  0 
 0  0  0 

