# vtk DataFile Version 3.1
this is an vtk file created by FEMAC
ASCII
DATASET UNSTRUCTURED_GRID
POINTS 31 FLOAT
4.000000 2.000000 0.000000
4.000000 3.000000 0.000000
3.750000 2.000000 0.000000
4.000000 1.500000 0.000000
4.000000 1.750000 0.000000
4.000000 2.250000 0.000000
4.000000 2.500000 0.000000
4.000000 2.750000 0.000000
4.250000 2.000000 0.000000
4.500000 2.000000 0.000000
3.817501 1.632951 0.000000
3.842898 1.835270 0.000000
3.786897 2.360864 0.000000
3.749641 2.630999 0.000000
3.828962 2.840667 0.000000
3.836478 2.155331 0.000000
4.654136 1.816702 0.000000
4.195291 1.666492 0.000000
4.225000 1.500000 0.000000
4.384426 1.792836 0.000000
4.358519 1.602133 0.000000
4.544074 1.619719 0.000000
4.165943 1.841866 0.000000
4.325972 2.178472 0.000000
4.500000 2.225000 0.000000
4.171968 2.341551 0.000000
4.216647 2.581177 0.000000
4.399662 2.398247 0.000000
4.507893 2.661856 0.000000
4.245757 2.832172 0.000000
4.149588 2.154005 0.000000
CELLS 42 168 
3 4 10  3
3 2 11  0
3 11  4  0
3 11 10  4
3 6 12  5
3 14  7  1
3 15  2  0
3 15  5 12
3 5 15  0
3 13 12  6
3 13  6  7
3 7 14 13
3 3 17  4
3 18 17  3
3 20 17 18
3 8 19  9
3 19 16  9
3 21 16 19
3 17 20 19
3 19 20 21
3 4 22  0
3 22  8  0
3 22  4 17
3 22 19  8
3 17 19 22
3 9 23  8
3 24 23  9
3 27 23 24
3 5 25  6
3 26  7  6
3 27 25 23
3 7 29  1
3 30  5  0
3 30  8 23
3 8 30  0
3 26 29  7
3 30 25  5
3 23 25 30
3 6 25 26
3 26 25 27
3 27 28 26
3 26 28 29
CELL_TYPES 42
5 5 5 5 5 5 5 5 5 5 5 5 5 5 5 5 5 5 5 5 5 5 5 5 5 5 5 5 5 5 5 5 5 5 5 5 5 5 5 5 5 5 
POINT_DATA 31
VECTORS displacement_ITER1 FLOAT
 -5.581349e-02  -2.207214e-01  0 
 5.039832e-03  -2.207148e-01  0 
 -5.577500e-02  -2.111394e-01  0 
 -7.466743e-02  -2.206276e-01  0 
 -6.526795e-02  -2.206424e-01  0 
 -4.060584e-02  -2.207616e-01  0 
 -2.539669e-02  -2.207628e-01  0 
 -1.018282e-02  -2.207436e-01  0 
 -5.582654e-02  -2.359966e-01  0 
 -5.583871e-02  -2.512545e-01  0 
 -6.967139e-02  -2.137591e-01  0 
 -6.206787e-02  -2.147240e-01  0 
 -3.407698e-02  -2.006013e-01  0 
 -1.695589e-02  -1.958167e-01  0 
 -3.004002e-03  -2.020571e-01  0 
 -4.728332e-02  -2.077607e-01  0 
 -6.793034e-02  -2.794605e-01  0 
 -6.828765e-02  -2.340823e-01  0 
 -7.514583e-02  -2.360467e-01  0 
 -6.086431e-02  -2.512549e-01  0 
 -7.197057e-02  -2.498251e-01  0 
 -7.178894e-02  -2.816155e-01  0 
 -6.035213e-02  -2.323280e-01  0 
 -4.495312e-02  -2.406187e-01  0 
 -4.212887e-02  -2.512264e-01  0 
 -3.503369e-02  -2.312333e-01  0 
 -2.046315e-02  -2.339506e-01  0 
 -3.158820e-02  -2.450991e-01  0 
 -1.556389e-02  -2.516847e-01  0 
 -5.190709e-03  -2.357100e-01  0 
 -4.643791e-02  -2.298623e-01  0 
VECTORS displacement_ITER2 FLOAT
 -2.626469e-02  -1.859359e-01  0 
 2.526905e-02  -1.859325e-01  0 
 -2.620858e-02  -1.805369e-01  0 
 -3.665577e-02  -1.858041e-01  0 
 -3.149310e-02  -1.858325e-01  0 
 -1.340582e-02  -1.859906e-01  0 
 -5.300454e-04  -1.859911e-01  0 
 1.235945e-02  -1.859678e-01  0 
 -2.628443e-02  -1.988861e-01  0 
 -2.629499e-02  -2.118071e-01  0 
 -3.391667e-02  -1.820330e-01  0 
 -2.974008e-02  -1.825761e-01  0 
 -8.136017e-03  -1.680344e-01  0 
 6.547705e-03  -1.635524e-01  0 
 1.862574e-02  -1.690744e-01  0 
 -1.960921e-02  -1.749899e-01  0 
 -3.274327e-02  -2.304940e-01  0 
 -3.343010e-02  -1.959289e-01  0 
 -3.752828e-02  -1.969838e-01  0 
 -2.833017e-02  -2.100888e-01  0 
 -3.558703e-02  -2.077072e-01  0 
 -3.459407e-02  -2.317740e-01  0 
 -2.860635e-02  -1.951684e-01  0 
 -1.707964e-02  -2.028013e-01  0 
 -1.468896e-02  -2.117873e-01  0 
 -8.688002e-03  -1.948570e-01  0 
 3.647788e-03  -1.971630e-01  0 
 -5.770106e-03  -2.066034e-01  0 
 7.799705e-03  -2.121947e-01  0 
 1.658881e-02  -1.986559e-01  0 
 -1.833445e-02  -1.936875e-01  0 
VECTORS displacement_ITER3 FLOAT
 -3.480992e-02  -1.249028e-01  0 
 8.543232e-03  -1.249192e-01  0 
 -3.472843e-02  -1.221528e-01  0 
 -3.978166e-02  -1.247213e-01  0 
 -3.733130e-02  -1.247677e-01  0 
 -2.401459e-02  -1.249817e-01  0 
 -1.318548e-02  -1.249869e-01  0 
 -2.334583e-03  -1.249610e-01  0 
 -3.484030e-02  -1.358253e-01  0 
 -3.484918e-02  -1.467037e-01  0 
 -3.849009e-02  -1.229376e-01  0 
 -3.650799e-02  -1.232195e-01  0 
 -2.011382e-02  -1.095429e-01  0 
 -7.628909e-03  -1.056790e-01  0 
 2.735392e-03  -1.105573e-01  0 
 -2.994995e-02  -1.157993e-01  0 
 -3.697191e-02  -1.544974e-01  0 
 -3.898067e-02  -1.317026e-01  0 
 -4.172995e-02  -1.325946e-01  0 
 -3.607859e-02  -1.421096e-01  0 
 -4.061744e-02  -1.396020e-01  0 
 -3.970630e-02  -1.534712e-01  0 
 -3.628735e-02  -1.316933e-01  0 
 -2.709485e-02  -1.391234e-01  0 
 -2.508422e-02  -1.466917e-01  0 
 -2.004419e-02  -1.324425e-01  0 
 -9.669776e-03  -1.343911e-01  0 
 -1.758832e-02  -1.423338e-01  0 
 -6.174893e-03  -1.470543e-01  0 
 1.225294e-03  -1.356489e-01  0 
 -2.814788e-02  -1.314441e-01  0 
VECTORS displacement_ITER4 FLOAT
 -3.366156e-02  -1.028880e-01  0 
 1.675484e-03  -1.029393e-01  0 
 -3.356251e-02  -1.005237e-01  0 
 -3.778221e-02  -1.026709e-01  0 
 -3.575612e-02  -1.027291e-01  0 
 -2.487190e-02  -1.029899e-01  0 
 -1.604466e-02  -1.030062e-01  0 
 -7.196515e-03  -1.029834e-01  0 
 -3.370016e-02  -1.118344e-01  0 
 -3.370976e-02  -1.207260e-01  0 
 -3.671972e-02  -1.012027e-01  0 
 -3.508293e-02  -1.014539e-01  0 
 -2.223268e-02  -9.005234e-02  0 
 -1.196142e-02  -8.697615e-02  0 
 -3.354123e-03  -9.119861e-02  0 
 -3.026046e-02  -9.514934e-02  0 
 -3.515345e-02  -1.235021e-01  0 
 -3.764291e-02  -1.077045e-01  0 
 -4.049395e-02  -1.088983e-01  0 
 -3.575572e-02  -1.152300e-01  0 
 -3.963465e-02  -1.134877e-01  0 
 -3.944110e-02  -1.212429e-01  0 
 -3.540240e-02  -1.078679e-01  0 
 -2.737486e-02  -1.145286e-01  0 
 -2.573680e-02  -1.207131e-01  0 
 -2.163075e-02  -1.090793e-01  0 
 -1.317763e-02  -1.106767e-01  0 
 -1.962756e-02  -1.171544e-01  0 
 -1.033120e-02  -1.210100e-01  0 
 -4.295861e-03  -1.117004e-01  0 
 -2.823157e-02  -1.082498e-01  0 
VECTORS displacement_ITER5 FLOAT
 -2.575336e-02  -7.455137e-02  0 
 -6.334458e-03  -7.467179e-02  0 
 -2.564708e-02  -7.017361e-02  0 
 -3.386834e-02  -7.431159e-02  0 
 -2.984107e-02  -7.437556e-02  0 
 -2.091423e-02  -7.468036e-02  0 
 -1.605829e-02  -7.472255e-02  0 
 -1.119891e-02  -7.471351e-02  0 
 -2.579589e-02  -7.957055e-02  0 
 -2.580910e-02  -8.452873e-02  0 
 -3.174396e-02  -7.138677e-02  0 
 -2.849120e-02  -7.185130e-02  0 
 -2.029238e-02  -6.585085e-02  0 
 -1.446013e-02  -6.417912e-02  0 
 -9.385881e-03  -6.710574e-02  0 
 -2.449238e-02  -6.850867e-02  0 
 -3.120528e-02  -8.973696e-02  0 
 -3.226362e-02  -7.772747e-02  0 
 -3.618310e-02  -7.935302e-02  0 
 -3.042472e-02  -8.169158e-02  0 
 -3.538508e-02  -8.240894e-02  0 
 -3.757168e-02  -8.792753e-02  0 
 -2.886555e-02  -7.731712e-02  0 
 -2.228109e-02  -8.106393e-02  0 
 -2.138296e-02  -8.450024e-02  0 
 -1.911913e-02  -7.805128e-02  0 
 -1.448101e-02  -7.894485e-02  0 
 -1.801589e-02  -8.251524e-02  0 
 -1.292881e-02  -8.463133e-02  0 
 -9.613490e-03  -7.949840e-02  0 
 -2.275127e-02  -7.756758e-02  0 
VECTORS displacement_ITER6 FLOAT
 -1.597843e-02  -5.415588e-02  0 
 -2.416807e-03  -5.431859e-02  0 
 -1.586759e-02  -4.658765e-02  0 
 -3.046168e-02  -5.390389e-02  0 
 -2.324852e-02  -5.397261e-02  0 
 -1.258307e-02  -5.429860e-02  0 
 -9.184742e-03  -5.435744e-02  0 
 -5.795571e-03  -5.435802e-02  0 
 -1.602446e-02  -5.774283e-02  0 
 -1.604071e-02  -6.126714e-02  0 
 -2.664567e-02  -4.865702e-02  0 
 -2.081434e-02  -4.945034e-02  0 
 -1.268383e-02  -4.761515e-02  0 
 -8.654740e-03  -4.688695e-02  0 
 -5.074778e-03  -4.923210e-02  0 
 -1.520176e-02  -4.858272e-02  0 
 -2.427218e-02  -6.677645e-02  0 
 -2.622267e-02  -5.697326e-02  0 
 -3.086063e-02  -5.763878e-02  0 
 -2.353541e-02  -5.914432e-02  0 
 -2.920575e-02  -6.019223e-02  0 
 -3.194511e-02  -6.365398e-02  0 
 -2.108939e-02  -5.621787e-02  0 
 -1.353431e-02  -5.879654e-02  0 
 -1.290786e-02  -6.122891e-02  0 
 -1.131657e-02  -5.667508e-02  0 
 -8.081098e-03  -5.731115e-02  0 
 -1.054346e-02  -5.981501e-02  0 
 -7.008708e-03  -6.128451e-02  0 
 -4.696652e-03  -5.768799e-02  0 
 -1.386306e-02  -5.631666e-02  0 
VECTORS displacement_ITER7 FLOAT
 -6.889166e-03  -3.398045e-02  0 
 7.601175e-03  -3.416369e-02  0 
 -6.778142e-03  -2.495453e-02  0 
 -2.426338e-02  -3.371305e-02  0 
 -1.561340e-02  -3.378878e-02  0 
 -3.252958e-03  -3.412816e-02  0 
 3.801235e-04  -3.419381e-02  0 
 3.999108e-03  -3.420003e-02  0 
 -6.935019e-03  -3.780983e-02  0 
 -6.952049e-03  -4.157389e-02  0 
 -1.968654e-02  -2.741979e-02  0 
 -1.268586e-02  -2.835738e-02  0 
 -3.097121e-03  -2.832676e-02  0 
 9.850950e-04  -2.797950e-02  0 
 4.503396e-03  -3.016401e-02  0 
 -5.631767e-03  -2.864707e-02  0 
 -1.419768e-02  -4.402223e-02  0 
 -1.844556e-02  -3.657542e-02  0 
 -2.219320e-02  -3.514508e-02  0 
 -1.510492e-02  -3.836635e-02  0 
 -1.974479e-02  -3.757035e-02  0 
 -2.106876e-02  -3.866404e-02  0 
 -1.281161e-02  -3.611940e-02  0 
 -4.272440e-03  -3.893591e-02  0 
 -3.602005e-03  -4.153461e-02  0 
 -1.898641e-03  -3.666865e-02  0 
 1.560492e-03  -3.734876e-02  0 
 -1.071524e-03  -4.002339e-02  0 
 2.706594e-03  -4.159112e-02  0 
 5.172954e-03  -3.775153e-02  0 
 -4.624467e-03  -3.628755e-02  0 
VECTORS displacement_ITER8 FLOAT
 -1.096297e-02  -3.073123e-02  0 
 1.303092e-04  -3.092605e-02  0 
 -1.085125e-02  -2.362504e-02  0 
 -2.444767e-02  -3.043916e-02  0 
 -1.775485e-02  -3.052347e-02  0 
 -8.174216e-03  -3.088602e-02  0 
 -5.391057e-03  -3.095492e-02  0 
 -2.622965e-03  -3.096336e-02  0 
 -1.100772e-02  -3.371785e-02  0 
 -1.102537e-02  -3.663335e-02  0 
 -2.091441e-02  -2.557638e-02  0 
 -1.549154e-02  -2.631363e-02  0 
 -8.148255e-03  -2.652528e-02  0 
 -5.011045e-03  -2.633547e-02  0 
 -2.312282e-03  -2.802438e-02  0 
 -1.008083e-02  -2.664929e-02  0 
 -1.568321e-02  -3.679971e-02  0 
 -1.984957e-02  -3.211619e-02  0 
 -2.192358e-02  -2.978968e-02  0 
 -1.722951e-02  -3.330434e-02  0 
 -2.002072e-02  -3.160820e-02  0 
 -2.059119e-02  -3.129508e-02  0 
 -1.562470e-02  -3.214944e-02  0 
 -8.950381e-03  -3.458611e-02  0 
 -8.438187e-03  -3.659434e-02  0 
 -7.130343e-03  -3.284289e-02  0 
 -4.486048e-03  -3.337351e-02  0 
 -6.495290e-03  -3.542439e-02  0 
 -3.612473e-03  -3.662788e-02  0 
 -1.728789e-03  -3.367939e-02  0 
 -9.218909e-03  -3.253608e-02  0 
VECTORS displacement_ITER9 FLOAT
 -9.650718e-03  -2.200836e-02  0 
 6.278692e-03  -2.213403e-02  0 
 -9.538431e-03  -1.828938e-02  0 
 -1.637555e-02  -2.172844e-02  0 
 -1.306456e-02  -2.181249e-02  0 
 -5.677949e-03  -2.214160e-02  0 
 -1.690675e-03  -2.218834e-02  0 
 2.295710e-03  -2.218114e-02  0 
 -9.697418e-03  -2.616574e-02  0 
 -9.714712e-03  -3.026017e-02  0 
 -1.464025e-02  -1.933355e-02  0 
 -1.195072e-02  -1.972296e-02  0 
 -4.877106e-03  -1.681030e-02  0 
 -4.568125e-04  -1.601463e-02  0 
 3.262299e-03  -1.799553e-02  0 
 -8.177684e-03  -1.819120e-02  0 
 -1.179577e-02  -2.869321e-02  0 
 -1.470342e-02  -2.348717e-02  0 
 -1.589015e-02  -2.221465e-02  0 
 -1.349985e-02  -2.566778e-02  0 
 -1.510848e-02  -2.392172e-02  0 
 -1.564913e-02  -2.388090e-02  0 
 -1.244186e-02  -2.377835e-02  0 
 -6.798776e-03  -2.739487e-02  0 
 -6.062407e-03  -3.023127e-02  0 
 -4.199908e-03  -2.491575e-02  0 
 -3.958580e-04  -2.565489e-02  0 
 -3.293000e-03  -2.859116e-02  0 
 8.737749e-04  -3.033112e-02  0 
 3.590620e-03  -2.610075e-02  0 
 -7.182634e-03  -2.450849e-02  0 
VECTORS displacement_ITER10 FLOAT
 -5.682133e-03  -1.414918e-02  0 
 2.691053e-03  -1.426952e-02  0 
 -5.572870e-03  -1.410779e-02  0 
 -5.038978e-03  -1.386044e-02  0 
 -5.416829e-03  -1.394693e-02  0 
 -3.598750e-03  -1.428410e-02  0 
 -1.501205e-03  -1.432825e-02  0 
 5.975843e-04  -1.431816e-02  0 
 -5.726755e-03  -1.641736e-02  0 
 -5.744391e-03  -1.862120e-02  0 
 -5.265321e-03  -1.415844e-02  0 
 -5.560068e-03  -1.417250e-02  0 
 -3.579358e-03  -1.097726e-02  0 
 -1.226926e-03  -1.042499e-02  0 
 8.641373e-04  -1.171083e-02  0 
 -5.472593e-03  -1.220116e-02  0 
 -6.812489e-03  -1.921328e-02  0 
 -6.568048e-03  -1.425910e-02  0 
 -7.330185e-03  -1.489462e-02  0 
 -6.885204e-03  -1.581524e-02  0 
 -8.180307e-03  -1.572362e-02  0 
 -9.872037e-03  -1.711921e-02  0 
 -6.241534e-03  -1.465744e-02  0 
 -4.178629e-03  -1.707169e-02  0 
 -3.794411e-03  -1.859118e-02  0 
 -2.813519e-03  -1.575717e-02  0 
 -8.205020e-04  -1.615726e-02  0 
 -2.335740e-03  -1.771088e-02  0 
 -1.593990e-04  -1.863742e-02  0 
 1.271909e-03  -1.638187e-02  0 
 -4.377305e-03  -1.551978e-02  0 
VECTORS displacement_ITER11 FLOAT
 -7.551017e-03  -1.183725e-02  0 
 -4.775206e-03  -1.195286e-02  0 
 -7.443524e-03  -1.390133e-02  0 
 -2.678434e-03  -1.153859e-02  0 
 -5.177095e-03  -1.162801e-02  0 
 -6.866747e-03  -1.197405e-02  0 
 -6.169834e-03  -1.201681e-02  0 
 -5.469961e-03  -1.200425e-02  0 
 -7.593892e-03  -1.270687e-02  0 
 -7.611634e-03  -1.350977e-02  0 
 -4.033372e-03  -1.338495e-02  0 
 -6.042139e-03  -1.318218e-02  0 
 -7.348487e-03  -9.944154e-03  0 
 -6.492037e-03  -9.513879e-03  0 
 -5.582899e-03  -1.029332e-02  0 
 -8.164430e-03  -1.102951e-02  0 
 -7.542617e-03  -1.475317e-02  0 
 -5.716475e-03  -1.104717e-02  0 
 -5.746301e-03  -1.221398e-02  0 
 -6.790196e-03  -1.209287e-02  0 
 -7.359629e-03  -1.255411e-02  0 
 -9.153064e-03  -1.458455e-02  0 
 -6.650726e-03  -1.156347e-02  0 
 -7.045978e-03  -1.293518e-02  0 
 -6.922555e-03  -1.347890e-02  0 
 -6.594936e-03  -1.248344e-02  0 
 -5.944364e-03  -1.263267e-02  0 
 -6.435163e-03  -1.316153e-02  0 
 -5.734084e-03  -1.348592e-02  0 
 -5.255767e-03  -1.269384e-02  0 
 -7.107427e-03  -1.237185e-02  0 
VECTORS displacement_ITER12 FLOAT
 -9.478243e-03  -5.095926e-03  0 
 -1.836259e-03  -5.172771e-03  0 
 -9.370340e-03  -7.279514e-03  0 
 -4.369551e-03  -4.802245e-03  0 
 -6.989560e-03  -4.892122e-03  0 
 -7.589697e-03  -5.220708e-03  0 
 -5.679470e-03  -5.251919e-03  0 
 -3.758526e-03  -5.230539e-03  0 
 -9.522125e-03  -7.162240e-03  0 
 -9.539795e-03  -9.165321e-03  0 
 -5.789605e-03  -6.736868e-03  0 
 -7.892985e-03  -6.517931e-03  0 
 -7.317028e-03  -1.968605e-03  0 
 -5.130941e-03  -1.109645e-03  0 
 -3.187055e-03  -2.231123e-03  0 
 -9.252829e-03  -3.710073e-03  0 
 -8.239940e-03  -8.860454e-03  0 
 -7.170339e-03  -5.109770e-03  0 
 -6.746462e-03  -5.806306e-03  0 
 -8.079969e-03  -7.076223e-03  0 
 -7.974176e-03  -6.642901e-03  0 
 -8.642742e-03  -8.759125e-03  0 
 -8.339692e-03  -5.670876e-03  0 
 -8.116905e-03  -7.756192e-03  0 
 -7.767442e-03  -9.139323e-03  0 
 -6.877242e-03  -6.559440e-03  0 
 -5.060837e-03  -6.922026e-03  0 
 -6.443053e-03  -8.341442e-03  0 
 -4.455141e-03  -9.199545e-03  0 
 -3.143049e-03  -7.124432e-03  0 
 -8.295732e-03  -6.343523e-03  0 
VECTORS displacement_ITER13 FLOAT
 -9.589306e-03  -7.057143e-03  0 
 -5.707654e-03  -7.146390e-03  0 
 -9.480954e-03  -9.236415e-03  0 
 -4.458785e-03  -6.748768e-03  0 
 -7.096977e-03  -6.843045e-03  0 
 -8.635593e-03  -7.187616e-03  0 
 -7.665452e-03  -7.223183e-03  0 
 -6.686610e-03  -7.204147e-03  0 
 -9.632732e-03  -8.192796e-03  0 
 -9.651654e-03  -9.261158e-03  0 
 -5.890336e-03  -8.697691e-03  0 
 -8.005180e-03  -8.475632e-03  0 
 -8.642868e-03  -4.834946e-03  0 
 -7.439017e-03  -4.147329e-03  0 
 -6.305825e-03  -4.894208e-03  0 
 -9.751156e-03  -6.172873e-03  0 
 -7.535075e-03  -8.512075e-03  0 
 -6.678878e-03  -6.745660e-03  0 
 -5.510416e-03  -6.617161e-03  0 
 -7.427372e-03  -8.203760e-03  0 
 -6.427302e-03  -7.325244e-03  0 
 -6.188251e-03  -8.987507e-03  0 
 -8.110319e-03  -7.347993e-03  0 
 -8.894539e-03  -8.501193e-03  0 
 -8.720221e-03  -9.232083e-03  0 
 -8.266240e-03  -7.882029e-03  0 
 -7.351918e-03  -8.078347e-03  0 
 -8.045025e-03  -8.808728e-03  0 
 -7.050090e-03  -9.259727e-03  0 
 -6.381068e-03  -8.171945e-03  0 
 -8.981377e-03  -7.748996e-03  0 
VECTORS displacement_ITER14 FLOAT
 -7.150412e-03  -6.198744e-03  0 
 -4.578396e-03  -6.308246e-03  0 
 -7.041511e-03  -6.741581e-03  0 
 -5.277935e-03  -5.880829e-03  0 
 -6.289835e-03  -5.978004e-03  0 
 -6.514794e-03  -6.335475e-03  0 
 -5.870319e-03  -6.378313e-03  0 
 -5.221972e-03  -6.364022e-03  0 
 -7.194294e-03  -7.020963e-03  0 
 -7.215409e-03  -7.773710e-03  0 
 -5.846035e-03  -6.643957e-03  0 
 -6.643582e-03  -6.587786e-03  0 
 -6.636323e-03  -4.428899e-03  0 
 -5.793989e-03  -3.976242e-03  0 
 -4.986496e-03  -4.574011e-03  0 
 -7.314106e-03  -5.215492e-03  0 
 -6.265833e-03  -8.454782e-03  0 
 -5.915230e-03  -6.381012e-03  0 
 -5.350854e-03  -6.048033e-03  0 
 -5.875796e-03  -7.754407e-03  0 
 -5.486962e-03  -7.014928e-03  0 
 -4.850531e-03  -9.105430e-03  0 
 -6.417201e-03  -6.695757e-03  0 
 -6.681675e-03  -7.230845e-03  0 
 -6.568336e-03  -7.738961e-03  0 
 -6.262569e-03  -6.809505e-03  0 
 -5.662377e-03  -6.949589e-03  0 
 -6.114911e-03  -7.440564e-03  0 
 -5.468177e-03  -7.746069e-03  0 
 -5.025614e-03  -7.004672e-03  0 
 -6.737010e-03  -6.703869e-03  0 
VECTORS displacement_ITER15 FLOAT
 -3.258985e-03  -6.019219e-03  0 
 -3.245827e-03  -6.162931e-03  0 
 -3.150158e-03  -4.738468e-03  0 
 -5.026528e-03  -5.691758e-03  0 
 -4.217602e-03  -5.791406e-03  0 
 -3.249119e-03  -6.167136e-03  0 
 -3.241582e-03  -6.221978e-03  0 
 -3.238078e-03  -6.215556e-03  0 
 -3.302641e-03  -6.222925e-03  0 
 -3.325577e-03  -6.354050e-03  0 
 -4.627225e-03  -5.127592e-03  0 
 -3.952528e-03  -5.260017e-03  0 
 -3.748038e-03  -5.070221e-03  0 
 -3.618032e-03  -5.017397e-03  0 
 -3.404429e-03  -5.393968e-03  0 
 -3.688966e-03  -5.067749e-03  0 
 -4.814877e-03  -9.667476e-03  0 
 -4.367218e-03  -6.497073e-03  0 
 -5.204598e-03  -6.794483e-03  0 
 -3.640930e-03  -7.502616e-03  0 
 -4.835349e-03  -7.805545e-03  0 
 -4.860087e-03  -1.063447e-02  0 
 -3.599250e-03  -6.408436e-03  0 
 -3.234177e-03  -6.241341e-03  0 
 -3.239588e-03  -6.312135e-03  0 
 -3.226440e-03  -6.208873e-03  0 
 -3.239997e-03  -6.238617e-03  0 
 -3.222467e-03  -6.261361e-03  0 
 -3.255285e-03  -6.283535e-03  0 
 -3.254361e-03  -6.218976e-03  0 
 -3.228355e-03  -6.156530e-03  0 
VECTORS displacement_ITER16 FLOAT
 -1.731943e-03  -7.367281e-03  0 
 -1.475506e-03  -7.521400e-03  0 
 -1.621763e-03  -6.078790e-03  0 
 -3.496884e-03  -7.030204e-03  0 
 -2.692283e-03  -7.133527e-03  0 
 -1.660831e-03  -7.519810e-03  0 
 -1.592620e-03  -7.577712e-03  0 
 -1.528947e-03  -7.573565e-03  0 
 -1.775313e-03  -7.635629e-03  0 
 -1.797754e-03  -7.827990e-03  0 
 -3.101110e-03  -6.470469e-03  0 
 -2.428231e-03  -6.603300e-03  0 
 -2.197701e-03  -6.594059e-03  0 
 -2.018492e-03  -6.618207e-03  0 
 -1.774419e-03  -6.995380e-03  0 
 -2.185891e-03  -6.505985e-03  0 
 -2.643822e-03  -9.225174e-03  0 
 -2.785377e-03  -7.609500e-03  0 
 -3.304259e-03  -7.478530e-03  0 
 -2.125418e-03  -8.348681e-03  0 
 -2.856502e-03  -8.200053e-03  0 
 -2.558644e-03  -9.752890e-03  0 
 -2.133508e-03  -7.660187e-03  0 
 -1.662258e-03  -7.673495e-03  0 
 -1.655769e-03  -7.787689e-03  0 
 -1.614967e-03  -7.604435e-03  0 
 -1.570441e-03  -7.647507e-03  0 
 -1.596228e-03  -7.713262e-03  0 
 -1.565310e-03  -7.763212e-03  0 
 -1.524926e-03  -7.636905e-03  0 
 -1.662615e-03  -7.544633e-03  0 
VECTORS displacement_ITER17 FLOAT
 -3.647111e-03  -6.851323e-03  0 
 -5.824259e-04  -6.994772e-03  0 
 -3.535360e-03  -6.319152e-03  0 
 -3.881997e-03  -6.507938e-03  0 
 -3.847438e-03  -6.614915e-03  0 
 -2.881470e-03  -7.001525e-03  0 
 -2.112910e-03  -7.055361e-03  0 
 -1.344728e-03  -7.048712e-03  0 
 -3.690544e-03  -7.813107e-03  0 
 -3.711906e-03  -8.697519e-03  0 
 -3.897044e-03  -6.511006e-03  0 
 -3.843619e-03  -6.564044e-03  0 
 -3.075914e-03  -5.640320e-03  0 
 -2.153121e-03  -5.484106e-03  0 
 -1.328974e-03  -6.044280e-03  0 
 -3.756552e-03  -5.942437e-03  0 
 -2.747096e-03  -6.862626e-03  0 
 -3.619912e-03  -7.002612e-03  0 
 -3.177216e-03  -6.133900e-03  0 
 -3.312122e-03  -7.874887e-03  0 
 -2.798442e-03  -6.707010e-03  0 
 -1.766286e-03  -6.724056e-03  0 
 -3.649021e-03  -7.337835e-03  0 
 -3.082334e-03  -8.063298e-03  0 
 -2.944782e-03  -8.662738e-03  0 
 -2.580395e-03  -7.565549e-03  0 
 -1.862762e-03  -7.734170e-03  0 
 -2.402242e-03  -8.312436e-03  0 
 -1.628573e-03  -8.671593e-03  0 
 -1.108372e-03  -7.807144e-03  0 
 -3.150680e-03  -7.443406e-03  0 
VECTORS displacement_ITER18 FLOAT
 -2.502342e-03  -6.112557e-03  0 
 -6.601403e-04  -6.258878e-03  0 
 -2.391947e-03  -5.685684e-03  0 
 -2.530715e-03  -5.767000e-03  0 
 -2.599193e-03  -5.875400e-03  0 
 -2.040330e-03  -6.264179e-03  0 
 -1.577629e-03  -6.319332e-03  0 
 -1.115773e-03  -6.313064e-03  0 
 -2.545167e-03  -6.770801e-03  0 
 -2.567054e-03  -7.351755e-03  0 
 -2.601023e-03  -5.846141e-03  0 
 -2.630831e-03  -5.890051e-03  0 
 -2.352253e-03  -5.286134e-03  0 
 -1.761974e-03  -5.215519e-03  0 
 -1.212690e-03  -5.647365e-03  0 
 -2.766893e-03  -5.437132e-03  0 
 -2.323757e-03  -7.268363e-03  0 
 -2.533020e-03  -6.232747e-03  0 
 -2.536964e-03  -6.003995e-03  0 
 -2.280769e-03  -7.091504e-03  0 
 -2.365299e-03  -6.586129e-03  0 
 -1.913111e-03  -7.480713e-03  0 
 -2.467170e-03  -6.453447e-03  0 
 -2.153778e-03  -6.928167e-03  0 
 -2.073199e-03  -7.315116e-03  0 
 -1.850867e-03  -6.618523e-03  0 
 -1.426820e-03  -6.732917e-03  0 
 -1.741976e-03  -7.086781e-03  0 
 -1.291278e-03  -7.314189e-03  0 
 -9.801069e-04  -6.770459e-03  0 
 -2.192473e-03  -6.523460e-03  0 
VECTORS displacement_ITER19 FLOAT
 -1.261214e-03  -5.205938e-03  0 
 -6.690891e-04  -5.360071e-03  0 
 -1.152850e-03  -4.655729e-03  0 
 -1.536530e-03  -4.855998e-03  0 
 -1.482786e-03  -4.966163e-03  0 
 -1.107239e-03  -5.360765e-03  0 
 -9.571228e-04  -5.418995e-03  0 
 -8.095544e-04  -5.414257e-03  0 
 -1.302450e-03  -5.556332e-03  0 
 -1.324300e-03  -5.828329e-03  0 
 -1.542461e-03  -4.846626e-03  0 
 -1.472720e-03  -4.903884e-03  0 
 -1.491046e-03  -4.721034e-03  0 
 -1.238901e-03  -4.724551e-03  0 
 -9.741449e-04  -5.018872e-03  0 
 -1.617323e-03  -4.698566e-03  0 
 -1.946389e-03  -7.184556e-03  0 
 -1.585111e-03  -5.321598e-03  0 
 -1.992100e-03  -5.561062e-03  0 
 -1.341319e-03  -6.075913e-03  0 
 -1.942608e-03  -6.140134e-03  0 
 -2.011361e-03  -7.671648e-03  0 
 -1.330279e-03  -5.407905e-03  0 
 -1.131368e-03  -5.619499e-03  0 
 -1.108810e-03  -5.789867e-03  0 
 -1.031358e-03  -5.501762e-03  0 
 -9.078217e-04  -5.561246e-03  0 
 -9.931472e-04  -5.685493e-03  0 
 -8.737820e-04  -5.776809e-03  0 
 -7.773618e-04  -5.562644e-03  0 
 -1.140089e-03  -5.433885e-03  0 
VECTORS displacement_ITER20 FLOAT
 -2.061777e-03  -5.297403e-03  0 
 6.425503e-04  -5.444150e-03  0 
 -1.954025e-03  -5.144073e-03  0 
 -1.532452e-03  -4.941980e-03  0 
 -1.885659e-03  -5.054812e-03  0 
 -1.383745e-03  -5.450696e-03  0 
 -7.072475e-04  -5.506223e-03  0 
 -3.043828e-05  -5.499687e-03  0 
 -2.102049e-03  -6.169828e-03  0 
 -2.122954e-03  -6.962324e-03  0 
 -1.755805e-03  -5.229898e-03  0 
 -2.012461e-03  -5.244409e-03  0 
 -1.372869e-03  -4.483015e-03  0 
 -5.572274e-04  -4.311385e-03  0 
 1.249549e-04  -4.694173e-03  0 
 -2.013229e-03  -4.744893e-03  0 
 -1.584268e-03  -6.424186e-03  0 
 -1.752781e-03  -5.476302e-03  0 
 -1.560082e-03  -5.222898e-03  0 
 -1.660743e-03  -6.420928e-03  0 
 -1.474925e-03  -5.780425e-03  0 
 -9.455055e-04  -6.472902e-03  0 
 -1.888829e-03  -5.720367e-03  0 
 -1.558267e-03  -6.392592e-03  0 
 -1.437239e-03  -6.927448e-03  0 
 -1.116076e-03  -5.952350e-03  0 
 -4.867937e-04  -6.106118e-03  0 
 -9.582331e-04  -6.615415e-03  0 
 -2.807500e-04  -6.938966e-03  0 
 1.762366e-04  -6.170511e-03  0 
 -1.618199e-03  -5.837932e-03  0 
VECTORS displacement_ITER21 FLOAT
 -1.488320e-03  -4.619078e-03  0 
 4.577092e-04  -4.771263e-03  0 
 -1.382724e-03  -4.263825e-03  0 
 -1.368741e-03  -4.262054e-03  0 
 -1.516498e-03  -4.375331e-03  0 
 -9.965978e-04  -4.774311e-03  0 
 -5.095721e-04  -4.831824e-03  0 
 -2.316499e-05  -4.826328e-03  0 
 -1.527615e-03  -5.305154e-03  0 
 -1.548707e-03  -5.910453e-03  0 
 -1.482994e-03  -4.400248e-03  0 
 -1.573969e-03  -4.436998e-03  0 
 -9.966307e-04  -4.104150e-03  0 
 -4.161432e-04  -4.013040e-03  0 
 6.167094e-05  -4.288550e-03  0 
 -1.439441e-03  -4.200878e-03  0 
 -1.553265e-03  -6.363576e-03  0 
 -1.500316e-03  -4.827597e-03  0 
 -1.625467e-03  -4.869717e-03  0 
 -1.313079e-03  -5.738142e-03  0 
 -1.553850e-03  -5.432583e-03  0 
 -1.285476e-03  -6.608966e-03  0 
 -1.432401e-03  -4.984786e-03  0 
 -1.117197e-03  -5.470690e-03  0 
 -1.031320e-03  -5.874289e-03  0 
 -7.977876e-04  -5.146698e-03  0 
 -3.506296e-04  -5.267241e-03  0 
 -6.827663e-04  -5.637378e-03  0 
 -2.062236e-04  -5.878632e-03  0 
 1.208866e-04  -5.309541e-03  0 
 -1.158913e-03  -5.048838e-03  0 
VECTORS displacement_ITER22 FLOAT
 -1.696659e-03  -4.389765e-03  0 
 -3.774261e-04  -4.549531e-03  0 
 -1.593535e-03  -3.818791e-03  0 
 -2.012050e-03  -4.030071e-03  0 
 -1.943369e-03  -4.144591e-03  0 
 -1.357160e-03  -4.547410e-03  0 
 -1.026552e-03  -4.607960e-03  0 
 -6.983449e-04  -4.604351e-03  0 
 -1.734140e-03  -4.922689e-03  0 
 -1.754762e-03  -5.373576e-03  0 
 -2.011741e-03  -4.010694e-03  0 
 -1.926849e-03  -4.069886e-03  0 
 -1.373301e-03  -4.066621e-03  0 
 -9.832615e-04  -4.032860e-03  0 
 -6.658758e-04  -4.233252e-03  0 
 -1.650192e-03  -4.037950e-03  0 
 -2.246497e-03  -5.886410e-03  0 
 -1.974003e-03  -4.643596e-03  0 
 -2.174010e-03  -4.738679e-03  0 
 -1.844900e-03  -5.306572e-03  0 
 -2.101541e-03  -5.227221e-03  0 
 -2.078442e-03  -6.172044e-03  0 
 -1.805916e-03  -4.688917e-03  0 
 -1.433061e-03  -5.041602e-03  0 
 -1.375692e-03  -5.337228e-03  0 
 -1.214746e-03  -4.813741e-03  0 
 -9.182476e-04  -4.907466e-03  0 
 -1.134665e-03  -5.162337e-03  0 
 -8.251747e-04  -5.334608e-03  0 
 -6.065359e-04  -4.931576e-03  0 
 -1.460171e-03  -4.729143e-03  0 
VECTORS displacement_ITER23 FLOAT
 -1.485174e-03  -4.304240e-03  0 
 9.019891e-04  -4.459631e-03  0 
 -1.383156e-03  -3.636483e-03  0 
 -2.006144e-03  -3.947751e-03  0 
 -1.831950e-03  -4.061482e-03  0 
 -8.813638e-04  -4.459903e-03  0 
 -2.844683e-04  -4.518953e-03  0 
 3.117044e-04  -4.514689e-03  0 
 -1.523070e-03  -5.100173e-03  0 
 -1.543965e-03  -5.814212e-03  0 
 -1.949511e-03  -3.851275e-03  0 
 -1.780493e-03  -3.922534e-03  0 
 -7.133594e-04  -3.901649e-03  0 
 -5.433499e-05  -3.836738e-03  0 
 4.558902e-04  -4.071937e-03  0 
 -1.217433e-03  -3.914581e-03  0 
 -1.592998e-03  -5.579065e-03  0 
 -1.824623e-03  -4.610451e-03  0 
 -1.890297e-03  -4.430920e-03  0 
 -1.590702e-03  -5.396818e-03  0 
 -1.672509e-03  -4.923827e-03  0 
 -1.274031e-03  -5.516858e-03  0 
 -1.642325e-03  -4.734778e-03  0 
 -1.033587e-03  -5.299329e-03  0 
 -9.264177e-04  -5.779349e-03  0 
 -6.419847e-04  -4.908448e-03  0 
 -8.939747e-05  -5.050080e-03  0 
 -5.012087e-04  -5.499507e-03  0 
 9.103661e-05  -5.789800e-03  0 
 4.920845e-04  -5.106385e-03  0 
 -1.086441e-03  -4.800475e-03  0 
VECTORS displacement_ITER24 FLOAT
 -1.410078e-03  -4.272801e-03  0 
 6.205370e-04  -4.431374e-03  0 
 -1.310781e-03  -3.666486e-03  0 
 -1.821169e-03  -3.917459e-03  0 
 -1.699578e-03  -4.030951e-03  0 
 -8.942566e-04  -4.429500e-03  0 
 -3.869031e-04  -4.489824e-03  0 
 1.197215e-04  -4.486399e-03  0 
 -1.446818e-03  -4.979829e-03  0 
 -1.467426e-03  -5.603938e-03  0 
 -1.792390e-03  -3.859475e-03  0 
 -1.667306e-03  -3.927273e-03  0 
 -7.445859e-04  -4.021452e-03  0 
 -1.914531e-04  -3.987436e-03  0 
 2.295084e-04  -4.173800e-03  0 
 -1.170035e-03  -3.984021e-03  0 
 -1.718726e-03  -5.277119e-03  0 
 -1.715634e-03  -4.585724e-03  0 
 -1.848066e-03  -4.578295e-03  0 
 -1.613230e-03  -5.214724e-03  0 
 -1.689192e-03  -4.961032e-03  0 
 -1.477767e-03  -5.343055e-03  0 
 -1.572913e-03  -4.642147e-03  0 
 -1.020669e-03  -5.152129e-03  0 
 -9.295509e-04  -5.569907e-03  0 
 -6.873077e-04  -4.817002e-03  0 
 -2.205465e-04  -4.943774e-03  0 
 -5.662018e-04  -5.326779e-03  0 
 -6.871877e-05  -5.579112e-03  0 
 2.709056e-04  -4.990600e-03  0 
 -1.065131e-03  -4.716584e-03  0 
VECTORS displacement_ITER25 FLOAT
 -1.573552e-03  -4.378100e-03  0 
 3.102536e-04  -4.539256e-03  0 
 -1.476452e-03  -3.795527e-03  0 
 -1.944507e-03  -4.021581e-03  0 
 -1.841323e-03  -4.135517e-03  0 
 -1.093983e-03  -4.536769e-03  0 
 -6.243547e-04  -4.598165e-03  0 
 -1.549243e-04  -4.594909e-03  0 
 -1.609133e-03  -5.049159e-03  0 
 -1.629339e-03  -5.635663e-03  0 
 -1.925601e-03  -3.977341e-03  0 
 -1.816588e-03  -4.045356e-03  0 
 -9.393909e-04  -4.146514e-03  0 
 -4.052010e-04  -4.097221e-03  0 
 -3.915399e-06  -4.262148e-03  0 
 -1.343677e-03  -4.109440e-03  0 
 -1.978308e-03  -5.571171e-03  0 
 -1.878768e-03  -4.691348e-03  0 
 -2.079820e-03  -4.776295e-03  0 
 -1.781260e-03  -5.333407e-03  0 
 -1.942799e-03  -5.168717e-03  0 
 -1.797634e-03  -5.691846e-03  0 
 -1.724196e-03  -4.732369e-03  0 
 -1.209223e-03  -5.210416e-03  0 
 -1.124692e-03  -5.601982e-03  0 
 -9.005432e-04  -4.898972e-03  0 
 -4.699794e-04  -5.020138e-03  0 
 -7.875339e-04  -5.374741e-03  0 
 -3.297367e-04  -5.612402e-03  0 
 -1.569366e-05  -5.063823e-03  0 
 -1.250317e-03  -4.801279e-03  0 
VECTORS displacement_ITER26 FLOAT
 -1.142204e-03  -3.971778e-03  0 
 -1.702801e-05  -4.138765e-03  0 
 -1.047999e-03  -3.191760e-03  0 
 -1.921809e-03  -3.616523e-03  0 
 -1.611424e-03  -3.729850e-03  0 
 -8.491631e-04  -4.132644e-03  0 
 -5.692682e-04  -4.196309e-03  0 
 -2.906647e-04  -4.194262e-03  0 
 -1.176386e-03  -4.456156e-03  0 
 -1.196225e-03  -4.854890e-03  0 
 -1.792480e-03  -3.421126e-03  0 
 -1.517652e-03  -3.512356e-03  0 
 -7.772496e-04  -3.855281e-03  0 
 -4.349048e-04  -3.845026e-03  0 
 -1.851449e-04  -3.955975e-03  0 
 -9.996279e-04  -3.718284e-03  0 
 -2.073283e-03  -5.563315e-03  0 
 -1.741484e-03  -4.289970e-03  0 
 -2.154021e-03  -4.525751e-03  0 
 -1.575148e-03  -4.864111e-03  0 
 -2.028865e-03  -4.959718e-03  0 
 -2.134058e-03  -5.858555e-03  0 
 -1.413264e-03  -4.257824e-03  0 
 -9.100366e-04  -4.560432e-03  0 
 -8.604735e-04  -4.820559e-03  0 
 -7.245218e-04  -4.365595e-03  0 
 -4.763945e-04  -4.453724e-03  0 
 -6.542193e-04  -4.668793e-03  0 
 -3.979605e-04  -4.823422e-03  0 
 -2.142052e-04  -4.475631e-03  0 
 -9.331095e-04  -4.284252e-03  0 
VECTORS displacement_ITER27 FLOAT
 -1.577523e-03  -4.155653e-03  0 
 5.656581e-04  -4.321305e-03  0 
 -1.485566e-03  -3.554523e-03  0 
 -2.012047e-03  -3.803397e-03  0 
 -1.871966e-03  -3.915884e-03  0 
 -1.030957e-03  -4.315590e-03  0 