# vtk DataFile Version 3.1
this is an vtk file created by FEMAC
ASCII
DATASET UNSTRUCTURED_GRID
POINTS 33 FLOAT
3.000000 2.000000 0.000000
4.000000 3.000000 0.000000
2.750000 2.000000 0.000000
3.000000 1.750000 0.000000
3.000000 2.250000 0.000000
3.000000 2.500000 0.000000
3.250000 2.000000 0.000000
3.500000 2.000000 0.000000
3.750000 2.000000 0.000000
3.500000 3.000000 0.000000
3.750000 3.000000 0.000000
2.832250 1.761003 0.000000
2.844330 2.155709 0.000000
3.165495 1.828528 0.000000
3.400214 1.786986 0.000000
3.237145 1.579099 0.000000
3.646988 1.793399 0.000000
3.817501 1.632951 0.000000
3.559152 1.528294 0.000000
3.842898 1.835270 0.000000
3.786897 2.360864 0.000000
3.255000 2.805000 0.000000
3.165198 2.171305 0.000000
3.645168 2.822337 0.000000
3.344773 2.161848 0.000000
3.574936 2.222548 0.000000
3.183310 2.629173 0.000000
3.436531 2.678490 0.000000
3.532441 2.462106 0.000000
3.749641 2.630999 0.000000
3.828962 2.840667 0.000000
3.836478 2.155331 0.000000
3.279649 2.384434 0.000000
CELLS 43 172 
3 2 11  0
3 11  3  0
3 12  2  0
3 4 12  0
3 6 14  7
3 13 14  6
3 13  0  3
3 6  0 13
3 13  3 15
3 15 14 13
3 7 16  8
3 16  7 14
3 18 16 14
3 19  8 16
3 16 17 19
3 17 16 18
3 24  6  7
3 8 25  7
3 23 10  9
3 28 25 20
3 26 27 21
3 24 22  6
3 27  9 21
3 23  9 27
3 23 27 29
3 0 22  4
3 0  6 22
3 10 30  1
3 23 30 10
3 31 25  8
3 20 25 31
3 24  7 25
3 28 29 27
3 32 26  5
3 4 32  5
3 4 22 32
3 28 20 29
3 24 32 22
3 24 25 32
3 26 32 27
3 28 27 32
3 28 32 25
3 23 29 30
CELL_TYPES 43
5 5 5 5 5 5 5 5 5 5 5 5 5 5 5 5 5 5 5 5 5 5 5 5 5 5 5 5 5 5 5 5 5 5 5 5 5 5 5 5 5 5 5 
POINT_DATA 33
VECTORS displacement_ITER1 FLOAT
 -2.248185e-02  -1.105504e-01  0 
 -1.179511e-02  -2.310874e-01  0 
 -2.251755e-02  -8.589260e-02  0 
 -5.330290e-02  -1.105672e-01  0 
 2.074680e-03  -1.105320e-01  0 
 -6.688096e-03  -1.239828e-01  0 
 -2.246918e-02  -1.414132e-01  0 
 -2.246494e-02  -1.722718e-01  0 
 -2.247219e-02  -2.031361e-01  0 
 -1.847459e-02  -1.719036e-01  0 
 -1.154331e-02  -1.885856e-01  0 
 -4.533736e-02  -8.074877e-02  0 
 -7.173549e-03  -9.522429e-02  0 
 -4.362630e-02  -1.309778e-01  0 
 -4.875216e-02  -1.599513e-01  0 
 -7.439135e-02  -1.398257e-01  0 
 -4.796501e-02  -1.904273e-01  0 
 -6.777443e-02  -2.114905e-01  0 
 -8.069221e-02  -1.795875e-01  0 
 -4.280297e-02  -2.146150e-01  0 
 -6.301436e-03  -1.893307e-01  0 
 -1.087580e-02  -1.616802e-01  0 
 -8.158324e-03  -1.338817e-01  0 
 -1.392332e-02  -1.767873e-01  0 
 -1.007841e-02  -1.532498e-01  0 
 -8.201475e-03  -1.769166e-01  0 
 -6.355572e-03  -1.491602e-01  0 
 -6.254423e-03  -1.663216e-01  0 
 -2.437395e-03  -1.697771e-01  0 
 -7.335964e-03  -1.799806e-01  0 
 -1.639389e-02  -1.935308e-01  0 
 -1.708694e-02  -2.037893e-01  0 
 -9.252440e-04  -1.463812e-01  0 
VECTORS displacement_ITER2 FLOAT
 -2.877125e-02  -8.616231e-02  0 
 9.321730e-03  -1.184327e-01  0 
 -2.878580e-02  -8.119001e-02  0 
 -3.145987e-02  -8.624111e-02  0 
 -2.388147e-02  -8.608502e-02  0 
 -1.131665e-02  -7.558276e-02  0 
 -2.877180e-02  -8.893197e-02  0 
 -2.878905e-02  -9.164112e-02  0 
 -2.880791e-02  -9.435703e-02  0 
 1.542750e-02  -6.784920e-02  0 
 1.368516e-02  -9.668398e-02  0 
 -2.691344e-02  -8.302928e-02  0 
 -2.570967e-02  -8.306017e-02  0 
 -3.063245e-02  -8.801192e-02  0 
 -3.107827e-02  -9.057151e-02  0 
 -3.330351e-02  -8.880660e-02  0 
 -3.101895e-02  -9.323538e-02  0 
 -3.271989e-02  -9.504992e-02  0 
 -3.382683e-02  -9.228483e-02  0 
 -3.057502e-02  -9.534482e-02  0 
 -1.884366e-02  -1.072006e-01  0 
 6.105438e-03  -6.939916e-02  0 
 -2.527165e-02  -8.705919e-02  0 
 -8.981886e-04  -9.163247e-02  0 
 -2.620104e-02  -8.954089e-02  0 
 -2.480071e-02  -9.527102e-02  0 
 -6.475123e-03  -7.421481e-02  0 
 -5.946793e-03  -8.446016e-02  0 
 -1.722638e-02  -9.450504e-02  0 
 -1.131725e-02  -1.042587e-01  0 
 -1.337929e-04  -1.080890e-01  0 
 -2.204772e-02  -1.057458e-01  0 
 -2.029427e-02  -8.589971e-02  0 
VECTORS displacement_ITER3 FLOAT
 -1.736624e-02  -2.829931e-02  0 
 1.252022e-03  -4.601250e-02  0 
 -1.738436e-02  -2.744971e-02  0 
 -2.170048e-02  -2.835813e-02  0 
 -1.664866e-02  -2.819766e-02  0 
 -1.150604e-02  -2.427583e-02  0 
 -1.737805e-02  -3.270339e-02  0 
 -1.742631e-02  -3.702495e-02  0 
 -1.747856e-02  -4.126360e-02  0 
 -7.994904e-04  -1.353393e-02  0 
 3.553704e-03  -2.978810e-02  0 
 -1.876808e-02  -2.542367e-02  0 
 -1.688965e-02  -2.777982e-02  0 
 -2.034954e-02  -3.123025e-02  0 
 -2.106004e-02  -3.533558e-02  0 
 -2.466288e-02  -3.248039e-02  0 
 -2.093975e-02  -3.954002e-02  0 
 -2.360103e-02  -4.240158e-02  0 
 -2.538460e-02  -3.802425e-02  0 
 -2.024928e-02  -4.281764e-02  0 
 -1.598321e-02  -3.962521e-02  0 
 -4.769591e-03  -1.896857e-02  0 
 -1.619322e-02  -2.974548e-02  0 
 -7.738759e-03  -2.578861e-02  0 
 -1.648834e-02  -3.297229e-02  0 
 -1.651691e-02  -3.655686e-02  0 
 -9.603261e-03  -2.301558e-02  0 
 -9.524653e-03  -2.510003e-02  0 
 -1.419353e-02  -3.254926e-02  0 
 -1.351836e-02  -3.421113e-02  0 
 -6.583671e-03  -3.708093e-02  0 
 -1.720327e-02  -4.237439e-02  0 
 -1.411622e-02  -2.921120e-02  0 
VECTORS displacement_ITER4 FLOAT
 -1.298347e-02  -1.822472e-02  0 
 -3.248194e-03  -1.060949e-02  0 
 -1.298201e-02  -1.298267e-02  0 
 -1.414183e-02  -1.829867e-02  0 
 -7.889589e-03  -1.807753e-02  0 
 -3.104857e-03  -6.573616e-03  0 
 -1.303215e-02  -1.943986e-02  0 
 -1.313038e-02  -2.049339e-02  0 
 -1.319876e-02  -2.137788e-02  0 
 -5.165060e-03  -6.493877e-03  0 
 -7.821499e-03  -1.081306e-02  0 
 -1.263741e-02  -1.305725e-02  0 
 -9.762705e-03  -1.495696e-02  0 
 -1.378881e-02  -1.906311e-02  0 
 -1.395702e-02  -2.014582e-02  0 
 -1.492174e-02  -1.939660e-02  0 
 -1.390133e-02  -2.103817e-02  0 
 -1.438577e-02  -2.158632e-02  0 
 -1.478137e-02  -2.067530e-02  0 
 -1.376700e-02  -2.166696e-02  0 
 -9.951777e-03  -2.310672e-02  0 
 -2.290969e-03  -6.365512e-03  0 
 -9.879409e-03  -1.841091e-02  0 
 -6.058523e-03  -1.214368e-02  0 
 -1.121140e-02  -1.860172e-02  0 
 -1.151788e-02  -1.990849e-02  0 
 -3.411880e-03  -6.977620e-03  0 
 -4.730932e-03  -1.220646e-02  0 
 -8.283188e-03  -1.707635e-02  0 
 -7.036690e-03  -1.753492e-02  0 
 -6.720093e-03  -1.159574e-02  0 
 -1.100597e-02  -2.439939e-02  0 
 -9.133880e-03  -1.476035e-02  0 
VECTORS displacement_ITER5 FLOAT
 -5.461346e-03  -6.795563e-03  0 
 -1.705549e-04  -6.631878e-03  0 
 -5.418876e-03  -3.341460e-03  0 
 -5.792254e-03  -6.891133e-03  0 
 -2.134523e-03  -6.628527e-03  0 
 -9.898866e-04  -6.126133e-03  0 
 -5.528262e-03  -7.187821e-03  0 
 -5.643147e-03  -7.383258e-03  0 
 -5.718801e-03  -7.386255e-03  0 
 -5.174640e-03  -4.632304e-03  0 
 -4.278888e-03  -4.880220e-03  0 
 -5.308877e-03  -6.088657e-03  0 
 -3.340250e-03  -4.611764e-03  0 
 -5.702810e-03  -7.102016e-03  0 
 -5.728820e-03  -7.388536e-03  0 
 -6.017553e-03  -7.209602e-03  0 
 -5.687123e-03  -7.405499e-03  0 
 -5.581722e-03  -7.321461e-03  0 
 -5.619300e-03  -7.336189e-03  0 
 -5.694050e-03  -7.334565e-03  0 
 -1.808875e-03  -9.991245e-03  0 
 -2.982818e-03  -4.242447e-03  0 
 -3.413203e-03  -6.876507e-03  0 
 -2.569336e-03  -5.104288e-03  0 
 -3.950048e-03  -6.853531e-03  0 
 -3.524227e-03  -7.506865e-03  0 
 -2.241566e-03  -3.955718e-03  0 
 -1.833311e-03  -5.351899e-03  0 
 -1.482728e-03  -6.390333e-03  0 
 -8.843630e-04  -6.531325e-03  0 
 -2.039060e-03  -4.411017e-03  0 
 -2.794605e-03  -1.080328e-02  0 
 -2.050760e-03  -5.684427e-03  0 
VECTORS displacement_ITER6 FLOAT
 -1.724062e-03  -3.066087e-03  0 
 -1.710816e-04  -3.647466e-03  0 
 -1.680287e-03  -1.738955e-03  0 
 -2.173544e-03  -3.210112e-03  0 
 -5.860682e-04  -2.836689e-03  0 
 -8.429441e-04  -5.391998e-03  0 
 -1.794205e-03  -3.605684e-03  0 
 -1.892530e-03  -3.931716e-03  0 
 -1.956937e-03  -4.096284e-03  0 
 -4.080926e-04  -4.624530e-03  0 
 1.547233e-04  -4.731111e-03  0 
 -2.489038e-03  -2.782405e-03  0 
 -9.449497e-04  -2.199719e-03  0 
 -2.058036e-03  -3.482076e-03  0 
 -2.103631e-03  -3.870634e-03  0 
 -2.453675e-03  -3.631527e-03  0 
 -2.063474e-03  -4.045589e-03  0 
 -2.077404e-03  -4.082983e-03  0 
 -2.175089e-03  -3.930998e-03  0 
 -2.040018e-03  -4.116327e-03  0 
 -1.016762e-03  -5.556133e-03  0 
 -1.231799e-03  -3.542783e-04  0 
 -1.097561e-03  -3.202610e-03  0 
 6.975468e-05  -4.423806e-03  0 
 -1.432342e-03  -3.501731e-03  0 
 -1.506982e-03  -4.082736e-03  0 
 -1.629565e-03  -1.371477e-03  0 
 -1.297395e-03  -2.528210e-03  0 
 -8.777774e-04  -3.292047e-03  0 
 -3.224710e-04  -4.791257e-03  0 
 6.149808e-04  -5.228406e-03  0 
 -1.170651e-03  -5.787713e-03  0 
 -6.381071e-04  -2.649814e-03  0 
VECTORS displacement_ITER7 FLOAT
 -9.409679e-04  -2.424730e-03  0 
 -5.990986e-04  -4.762955e-03  0 
 -8.810674e-04  -2.213779e-03  0 
 -1.475457e-03  -2.642606e-03  0 
 -9.267569e-04  -2.163979e-03  0 
 3.633404e-04  -2.139346e-03  0 
 -1.012597e-03  -3.059958e-03  0 
 -1.041353e-03  -3.524686e-03  0 
 -1.052373e-03  -3.994354e-03  0 
 -5.325256e-04  -3.039581e-03  0 
 -3.582486e-04  -3.945521e-03  0 
 -1.465133e-03  -2.210366e-03  0 
 -8.513756e-04  -2.241481e-03  0 
 -1.358330e-03  -2.920246e-03  0 
 -1.435166e-03  -3.351982e-03  0 
 -1.749218e-03  -3.096226e-03  0 
 -1.424249e-03  -3.790393e-03  0 
 -1.664021e-03  -4.053562e-03  0 
 -1.832904e-03  -3.604806e-03  0 
 -1.354788e-03  -4.154376e-03  0 
 -2.898094e-04  -4.286412e-03  0 
 -1.371617e-04  -2.918880e-03  0 
 -8.948393e-04  -2.655988e-03  0 
 -3.230493e-04  -3.569764e-03  0 
 -8.127181e-04  -3.200480e-03  0 
 -5.980208e-04  -3.726933e-03  0 
 -2.276198e-05  -2.663964e-03  0 
 -9.919135e-05  -3.319811e-03  0 
 -1.958140e-04  -3.572504e-03  0 
 -7.651432e-05  -3.839470e-03  0 
 -2.040950e-04  -4.130228e-03  0 
 -6.277496e-04  -4.539273e-03  0 
 -2.821990e-04  -3.190148e-03  0 
VECTORS displacement_ITER8 FLOAT
 -9.201896e-04  -2.377317e-03  0 
 -1.142835e-04  -4.323169e-03  0 
 -8.615280e-04  -1.801937e-03  0 
 -1.364873e-03  -2.580398e-03  0 
 -5.326642e-04  -2.125218e-03  0 
 -6.156181e-04  -1.592297e-03  0 
 -9.959071e-04  -2.916731e-03  0 
 -1.041761e-03  -3.297943e-03  0 
 -1.066682e-03  -3.647979e-03  0 
 -2.633056e-05  -3.569432e-03  0 
 1.516002e-04  -3.196544e-03  0 
 -1.131788e-03  -2.267288e-03  0 
 -5.967203e-04  -1.968689e-03  0 
 -1.277611e-03  -2.809999e-03  0 
 -1.353760e-03  -3.175167e-03  0 
 -1.609472e-03  -2.978648e-03  0 
 -1.347971e-03  -3.511247e-03  0 
 -1.513178e-03  -3.701653e-03  0 
 -1.640807e-03  -3.368931e-03  0 
 -1.308850e-03  -3.781111e-03  0 
 -5.577837e-04  -3.873279e-03  0 
 3.879591e-04  -3.078712e-03  0 
 -7.588880e-04  -2.622546e-03  0 
 9.270378e-05  -3.386251e-03  0 
 -8.498293e-04  -2.968750e-03  0 
 -8.303160e-04  -3.400758e-03  0 
 9.082453e-05  -2.720592e-03  0 
 1.978888e-04  -3.333656e-03  0 
 -3.460090e-04  -3.442297e-03  0 
 -1.055062e-04  -3.767590e-03  0 
 -1.663338e-04  -3.616540e-03  0 
 -9.007536e-04  -3.882062e-03  0 
 -6.228006e-04  -2.700559e-03  0 
VECTORS displacement_ITER9 FLOAT
 -9.895391e-04  -2.373865e-03  0 
 2.179928e-04  -4.008144e-03  0 
 -9.075828e-04  -1.857172e-03  0 
 -1.379379e-03  -2.575532e-03  0 
 -5.916002e-04  -2.161514e-03  0 
 -3.965899e-04  -2.162360e-03  0 
 -1.062892e-03  -2.856798e-03  0 
 -1.105472e-03  -3.190667e-03  0 
 -1.130261e-03  -3.493221e-03  0 
 7.859603e-05  -3.042499e-03  0 
 1.304515e-04  -3.575678e-03  0 
 -1.157471e-03  -1.988353e-03  0 
 -6.811398e-04  -1.982888e-03  0 
 -1.309842e-03  -2.766666e-03  0 
 -1.378131e-03  -3.083583e-03  0 
 -1.591393e-03  -2.916040e-03  0 
 -1.371771e-03  -3.376439e-03  0 
 -1.519773e-03  -3.539253e-03  0 
 -1.643384e-03  -3.233923e-03  0 
 -1.335033e-03  -3.627259e-03  0 
 -7.110262e-04  -3.621746e-03  0 
 1.397498e-04  -2.964391e-03  0 
 -8.087698e-04  -2.608183e-03  0 
 -1.654453e-05  -3.332552e-03  0 
 -8.840291e-04  -2.946819e-03  0 
 -8.671760e-04  -3.305948e-03  0 
 -9.412760e-05  -2.771434e-03  0 
 -4.411241e-05  -3.118454e-03  0 
 -4.510118e-04  -3.243510e-03  0 
 -2.563028e-04  -3.559910e-03  0 
 6.034535e-05  -3.751375e-03  0 
 -9.974987e-04  -3.618217e-03  0 
 -5.245278e-04  -2.776901e-03  0 
VECTORS displacement_ITER10 FLOAT
 -9.654956e-04  -2.259215e-03  0 
 1.938070e-04  -3.935299e-03  0 
 -8.754134e-04  -1.766225e-03  0 
 -1.383466e-03  -2.453469e-03  0 
 -5.615610e-04  -2.059125e-03  0 
 -2.468872e-04  -1.994090e-03  0 
 -1.037741e-03  -2.764940e-03  0 
 -1.082460e-03  -3.122495e-03  0 
 -1.107722e-03  -3.446236e-03  0 
 1.362030e-04  -3.134782e-03  0 
 1.325634e-04  -3.483681e-03  0 
 -1.160167e-03  -2.025313e-03  0 
 -6.577910e-04  -1.872189e-03  0 
 -1.302982e-03  -2.664176e-03  0 
 -1.374211e-03  -3.008626e-03  0 
 -1.617767e-03  -2.815580e-03  0 
 -1.368513e-03  -3.322047e-03  0 
 -1.525422e-03  -3.498711e-03  0 
 -1.652591e-03  -3.177405e-03  0 
 -1.331804e-03  -3.584495e-03  0 
 -7.079523e-04  -3.536243e-03  0 
 -1.314198e-04  -2.543183e-03  0 
 -7.732913e-04  -2.492662e-03  0 
 -1.486155e-05  -3.307609e-03  0 
 -8.600189e-04  -2.829365e-03  0 
 -8.565246e-04  -3.190498e-03  0 
 -3.120260e-04  -2.349532e-03  0 
 -2.505433e-04  -2.850374e-03  0 
 -5.124715e-04  -3.039300e-03  0 
 -2.972006e-04  -3.476860e-03  0 
 4.136687e-05  -3.666022e-03  0 
 -9.607894e-04  -3.607221e-03  0 
 -5.317149e-04  -2.594400e-03  0 
VECTORS displacement_ITER11 FLOAT
 -9.320914e-04  -2.217517e-03  0 
 1.817663e-04  -3.909496e-03  0 
 -8.439971e-04  -1.742483e-03  0 
 -1.354790e-03  -2.414194e-03  0 
 -5.510677e-04  -2.007465e-03  0 
 -2.929588e-04  -1.940020e-03  0 
 -1.003948e-03  -2.728432e-03  0 
 -1.048119e-03  -3.094091e-03  0 
 -1.075193e-03  -3.426900e-03  0 
 9.849892e-05  -3.065097e-03  0 
 1.190472e-04  -3.453959e-03  0 
 -1.190839e-03  -2.025097e-03  0 
 -6.328652e-04  -1.840075e-03  0 
 -1.274019e-03  -2.625176e-03  0 
 -1.346736e-03  -2.976346e-03  0 
 -1.597613e-03  -2.775704e-03  0 
 -1.341989e-03  -3.300877e-03  0 
 -1.507723e-03  -3.485939e-03  0 
 -1.639279e-03  -3.154974e-03  0 
 -1.303771e-03  -3.571458e-03  0 
 -6.286488e-04  -3.559416e-03  0 
 -2.109858e-05  -2.548297e-03  0 
 -7.526499e-04  -2.451046e-03  0 
 -2.038312e-05  -3.259330e-03  0 
 -8.305354e-04  -2.797877e-03  0 
 -8.159091e-04  -3.173554e-03  0 
 -1.758880e-04  -2.361944e-03  0 
 -1.507001e-04  -2.872848e-03  0 
 -4.445535e-04  -3.059918e-03  0 
 -2.447288e-04  -3.464950e-03  0 
 -2.478688e-06  -3.599479e-03  0 
 -9.175878e-04  -3.612167e-03  0 
 -5.050557e-04  -2.574443e-03  0 
VECTORS displacement_ITER12 FLOAT
 -9.307661e-04  -2.222293e-03  0 
 1.805402e-04  -3.916292e-03  0 
 -8.429497e-04  -1.742391e-03  0 
 -1.351599e-03  -2.419169e-03  0 
 -5.450524e-04  -2.015818e-03  0 
 -2.875523e-04  -1.941787e-03  0 
 -1.002459e-03  -2.731307e-03  0 
 -1.046090e-03  -3.095808e-03  0 
 -1.073314e-03  -3.426604e-03  0 
 1.014069e-04  -3.067385e-03  0 
 1.231733e-04  -3.457485e-03  0 
 -1.177572e-03  -2.014410e-03  0 
 -6.312015e-04  -1.845030e-03  0 
 -1.271462e-03  -2.628574e-03  0 
 -1.343861e-03  -2.977889e-03  0 
 -1.594132e-03  -2.778593e-03  0 
 -1.338480e-03  -3.301723e-03  0 
 -1.503596e-03  -3.486822e-03  0 
 -1.635430e-03  -3.154926e-03  0 
 -1.300612e-03  -3.571754e-03  0 
 -6.378398e-04  -3.550297e-03  0 
 -3.011056e-05  -2.560626e-03  0 
 -7.490706e-04  -2.456556e-03  0 
 -1.497804e-05  -3.261477e-03  0 
 -8.292772e-04  -2.800387e-03  0 
 -8.183242e-04  -3.172846e-03  0 
 -1.816065e-04  -2.357216e-03  0 
 -1.529337e-04  -2.869588e-03  0 
 -4.507018e-04  -3.057155e-03  0 
 -2.483980e-04  -3.466980e-03  0 
 1.066585e-05  -3.613253e-03  0 
 -9.218396e-04  -3.601550e-03  0 
 -5.068455e-04  -2.573772e-03  0 
VECTORS displacement_ITER13 FLOAT
 -9.306568e-04  -2.223300e-03  0 
 1.809223e-04  -3.915427e-03  0 
 -8.423729e-04  -1.744707e-03  0 
 -1.351084e-03  -2.420170e-03  0 
 -5.448725e-04  -2.017459e-03  0 
 -2.866589e-04  -1.942747e-03  0 
 -1.002321e-03  -2.731899e-03  0 
 -1.045918e-03  -3.096109e-03  0 
 -1.073071e-03  -3.426877e-03  0 
 1.028234e-04  -3.067991e-03  0 
 1.227503e-04  -3.457402e-03  0 
 -1.175432e-03  -2.013784e-03  0 
 -6.314155e-04  -1.846397e-03  0 
 -1.271093e-03  -2.629279e-03  0 
 -1.343462e-03  -2.978285e-03  0 
 -1.593399e-03  -2.779146e-03  0 
 -1.338142e-03  -3.301887e-03  0 
 -1.503399e-03  -3.487225e-03  0 
 -1.634858e-03  -3.155253e-03  0 
 -1.300346e-03  -3.571682e-03  0 
 -6.420837e-04  -3.558478e-03  0 
 -2.878514e-05  -2.565986e-03  0 
 -7.492988e-04  -2.457425e-03  0 
 -1.519204e-05  -3.262093e-03  0 
 -8.306055e-04  -2.801464e-03  0 
 -8.211015e-04  -3.175639e-03  0 
 -1.835042e-04  -2.355128e-03  0 
 -1.518897e-04  -2.871973e-03  0 
 -4.501619e-04  -3.058134e-03  0 
 -2.462838e-04  -3.467221e-03  0 
 8.534400e-06  -3.607040e-03  0 
 -9.222152e-04  -3.603694e-03  0 
 -5.073824e-04  -2.572847e-03  0 
VECTORS displacement_ITER14 FLOAT
 -9.307574e-04  -2.223292e-03  0 
 1.810558e-04  -3.915427e-03  0 
 -8.425546e-04  -1.744517e-03  0 
 -1.351205e-03  -2.420166e-03  0 
 -5.449072e-04  -2.017339e-03  0 
 -2.866574e-04  -1.942796e-03  0 
 -1.002421e-03  -2.731919e-03  0 
 -1.046036e-03  -3.096120e-03  0 
 -1.073200e-03  -3.426849e-03  0 
 1.027711e-04  -3.067778e-03  0 
 1.229256e-04  -3.457380e-03  0 
 -1.176091e-03  -2.014056e-03  0 
 -6.314675e-04  -1.846371e-03  0 
 -1.271205e-03  -2.629284e-03  0 
 -1.343562e-03  -2.978318e-03  0 
 -1.593510e-03  -2.779118e-03  0 
 -1.338246e-03  -3.301889e-03  0 
 -1.503445e-03  -3.487139e-03  0 
 -1.634907e-03  -3.155293e-03  0 
 -1.300443e-03  -3.571660e-03  0 
 -6.421811e-04  -3.559539e-03  0 
 -2.857558e-05  -2.564977e-03  0 
 -7.493745e-04  -2.457440e-03  0 
 -1.522069e-05  -3.261727e-03  0 
 -8.306472e-04  -2.801619e-03  0 
 -8.209868e-04  -3.176097e-03  0 
 -1.830750e-04  -2.356006e-03  0 
 -1.518727e-04  -2.871826e-03  0 
 -4.498940e-04  -3.058217e-03  0 
 -2.462281e-04  -3.466830e-03  0 
 8.567781e-06  -3.606038e-03  0 
 -9.215492e-04  -3.604723e-03  0 
 -5.070262e-04  -2.573178e-03  0 
CELL_DATA 43
TENSORS element_stresses FLOAT
 -2.331834e-04  -4.930388e-04  0 
 -4.930388e-04  3.987595e-04  0 
 0  0  0 

 -7.663044e-04  -5.288366e-04  0 
 -5.288366e-04  5.576070e-04  0 
 0  0  0 

 -2.208722e-01  -2.659347e-01  0 
 -2.659347e-01  4.397968e-01  0 
 0  0  0 

 -1.446805e-01  -4.143616e-02  0 
 -4.143616e-02  7.804063e-01  0 
 0  0  0 

 -1.490523e-01  1.666128e-02  0 
 1.666128e-02  8.469630e-02  0 
 0  0  0 

 9.552733e-03  8.947797e-02  0 
 8.947797e-02  1.263786e-01  0 
 0  0  0 

 -8.612415e-02  3.425305e-02  0 
 3.425305e-02  7.616610e-01  0 
 0  0  0 

 -1.817864e-01  -2.505583e-01  0 
 -2.505583e-01  3.495610e-01  0 
 0  0  0 

 -5.650074e-02  -7.961029e-02  0 
 -7.961029e-02  1.922683e-01  0 
 0  0  0 

 -3.184118e-02  -1.435216e-01  0 
 -1.435216e-01  1.732951e-01  0 
 0  0  0 

 -1.013452e-01  1.088089e-02  0 
 1.088089e-02  2.437017e-02  0 
 0  0  0 

 4.010290e-03  6.994003e-02  0 
 6.994003e-02  6.316314e-02  0 
 0  0  0 

 -4.777667e-02  -1.434918e-01  0 
 -1.434918e-01  -1.339042e-01  0 
 0  0  0 

 -6.974007e-02  -5.258416e-02  0 
 -5.258416e-02  7.057775e-02  0 
 0  0  0 

 -1.072286e-01  -2.439077e-01  0 
 -2.439077e-01  -2.838302e-01  0 
 0  0  0 

 2.198102e-02  -9.776655e-02  0 
 -9.776655e-02  -1.405483e-01  0 
 0  0  0 

 -5.245934e-05  -2.256259e-04  0 
 -2.256259e-04  4.066727e-04  0 
 0  0  0 

 -9.102435e-05  -2.116062e-04  0 
 -2.116062e-04  5.877285e-05  0 
 0  0  0 

 2.868888e-05  -6.372310e-04  0 
 -6.372310e-04  -1.730974e-04  0 
 0  0  0 

 -1.141723e-04  -2.974211e-04  0 
 -2.974211e-04  1.191643e-04  0 
 0  0  0 

 -1.853739e-04  -8.164482e-04  0 
 -8.164482e-04  -4.444292e-04  0 
 0  0  0 

 -2.016794e-04  -4.574045e-04  0 
 -4.574045e-04  6.104767e-04  0 
 0  0  0 

 -2.028386e-04  -8.039901e-04  0 
 -8.039901e-04  -3.032871e-04  0 
 0  0  0 

 4.673099e-05  -6.997532e-04  0 
 -6.997532e-04  -2.644382e-04  0 
 0  0  0 

 -1.293042e-04  -5.828345e-04  0 
 -5.828345e-04  -1.340964e-06  0 
 0  0  0 

 -2.805917e-04  -5.601831e-04  0 
 -5.601831e-04  7.396330e-04  0 
 0  0  0 

 -1.188069e-04  -5.378786e-04  0 
 -5.378786e-04  5.594927e-04  0 
 0  0  0 

 2.637633e-04  -7.686355e-04  0 
 -7.686355e-04  1.041421e-04  0 
 0  0  0 

 6.202652e-05  -8.682653e-04  0 
 -8.682653e-04  2.300217e-05  0 
 0  0  0 

 -1.955422e-04  -4.998449e-04  0 
 -4.998449e-04  -2.622652e-04  0 
 0  0  0 

 -1.028830e-04  -2.590263e-04  0 
 -2.590263e-04  -2.179615e-04  0 
 0  0  0 

 -2.028225e-04  -4.517564e-04  0 
 -4.517564e-04  1.459969e-04  0 
 0  0  0 

 -1.021626e-04  -4.337327e-04  0 
 -4.337327e-04  -1.016985e-05  0 
 0  0  0 

 -3.162930e-04  -8.029471e-04  0 
 -8.029471e-04  -9.485842e-05  0 
 0  0  0 

 -2.985447e-04  -8.445961e-04  0 
 -8.445961e-04  2.086106e-04  0 
 0  0  0 

 -3.760648e-04  -6.866654e-04  0 
 -6.866654e-04  5.939477e-04  0 
 0  0  0 

 -1.756224e-04  -3.842226e-04  0 
 -3.842226e-04  2.293825e-05  0 
 0  0  0 

 -2.637958e-04  -4.227353e-04  0 
 -4.227353e-04  3.936779e-04  0 
 0  0  0 

 -1.799461e-04  -3.081356e-04  0 
 -3.081356e-04  4.568663e-04  0 
 0  0  0 

 -1.111667e-04  -5.984947e-04  0 
 -5.984947e-04  4.607020e-05  0 
 0  0  0 

 -1.875273e-04  -4.779411e-04  0 
 -4.779411e-04  -4.663072e-05  0 
 0  0  0 

 -2.130516e-04  -3.506929e-04  0 
 -3.506929e-04  7.995698e-05  0 
 0  0  0 

 2.474298e-05  -5.123087e-04  0 
 -5.123087e-04  5.395299e-05  0 
 0  0  0 

TENSORS element_stresses FLOAT
 -2.331834e-04  -4.930388e-04  0 
 -4.930388e-04  3.987595e-04  0 
 0  0  0 

 -7.663044e-04  -5.288366e-04  0 
 -5.288366e-04  5.576070e-04  0 
 0  0  0 

 -2.208722e-01  -2.659347e-01  0 
 -2.659347e-01  4.397968e-01  0 
 0  0  0 

 -1.446805e-01  -4.143616e-02  0 
 -4.143616e-02  7.804063e-01  0 
 0  0  0 

 -1.490523e-01  1.666128e-02  0 
 1.666128e-02  8.469630e-02  0 
 0  0  0 

 9.552733e-03  8.947797e-02  0 
 8.947797e-02  1.263786e-01  0 
 0  0  0 

 -8.612415e-02  3.425305e-02  0 
 3.425305e-02  7.616610e-01  0 
 0  0  0 

 -1.817864e-01  -2.505583e-01  0 
 -2.505583e-01  3.495610e-01  0 
 0  0  0 

 -5.650074e-02  -7.961029e-02  0 
 -7.961029e-02  1.922683e-01  0 
 0  0  0 

 -3.184118e-02  -1.435216e-01  0 
 -1.435216e-01  1.732951e-01  0 
 0  0  0 

 -1.013452e-01  1.088089e-02  0 
 1.088089e-02  2.437017e-02  0 
 0  0  0 

 4.010290e-03  6.994003e-02  0 
 6.994003e-02  6.316314e-02  0 
 0  0  0 

 -4.777667e-02  -1.434918e-01  0 
 -1.434918e-01  -1.339042e-01  0 
 0  0  0 

 -6.974007e-02  -5.258416e-02  0 
 -5.258416e-02  7.057775e-02  0 
 0  0  0 

 -1.072286e-01  -2.439077e-01  0 
 -2.439077e-01  -2.838302e-01  0 
 0  0  0 

 2.198102e-02  -9.776655e-02  0 
 -9.776655e-02  -1.405483e-01  0 
 0  0  0 

 -5.245934e-05  -2.256259e-04  0 
 -2.256259e-04  4.066727e-04  0 
 0  0  0 

 -9.102435e-05  -2.116062e-04  0 
 -2.116062e-04  5.877285e-05  0 
 0  0  0 

 2.868888e-05  -6.372310e-04  0 
 -6.372310e-04  -1.730974e-04  0 
 0  0  0 

 -1.141723e-04  -2.974211e-04  0 
 -2.974211e-04  1.191643e-04  0 
 0  0  0 

 -1.853739e-04  -8.164482e-04  0 
 -8.164482e-04  -4.444292e-04  0 
 0  0  0 

 -2.016794e-04  -4.574045e-04  0 
 -4.574045e-04  6.104767e-04  0 
 0  0  0 

 -2.028386e-04  -8.039901e-04  0 
 -8.039901e-04  -3.032871e-04  0 
 0  0  0 

 4.673099e-05  -6.997532e-04  0 
 -6.997532e-04  -2.644382e-04  0 
 0  0  0 

 -1.293042e-04  -5.828345e-04  0 
 -5.828345e-04  -1.340964e-06  0 
 0  0  0 

 -2.805917e-04  -5.601831e-04  0 
 -5.601831e-04  7.396330e-04  0 
 0  0  0 

 -1.188069e-04  -5.378786e-04  0 
 -5.378786e-04  5.594927e-04  0 
 0  0  0 

 2.637633e-04  -7.686355e-04  0 
 -7.686355e-04  1.041421e-04  0 
 0  0  0 

 6.202652e-05  -8.682653e-04  0 
 -8.682653e-04  2.300217e-05  0 
 0  0  0 

 -1.955422e-04  -4.998449e-04  0 
 -4.998449e-04  -2.622652e-04  0 
 0  0  0 

 -1.028830e-04  -2.590263e-04  0 
 -2.590263e-04  -2.179615e-04  0 
 0  0  0 

 -2.028225e-04  -4.517564e-04  0 
 -4.517564e-04  1.459969e-04  0 
 0  0  0 

 -1.021626e-04  -4.337327e-04  0 
 -4.337327e-04  -1.016985e-05  0 
 0  0  0 

 -3.162930e-04  -8.029471e-04  0 
 -8.029471e-04  -9.485842e-05  0 
 0  0  0 

 -2.985447e-04  -8.445961e-04  0 
 -8.445961e-04  2.086106e-04  0 
 0  0  0 

 -3.760648e-04  -6.866654e-04  0 
 -6.866654e-04  5.939477e-04  0 
 0  0  0 

 -1.756224e-04  -3.842226e-04  0 
 -3.842226e-04  2.293825e-05  0 
 0  0  0 

 -2.637958e-04  -4.227353e-04  0 
 -4.227353e-04  3.936779e-04  0 
 0  0  0 

 -1.799461e-04  -3.081356e-04  0 
 -3.081356e-04  4.568663e-04  0 
 0  0  0 

 -1.111667e-04  -5.984947e-04  0 
 -5.984947e-04  4.607020e-05  0 
 0  0  0 

 -1.875273e-04  -4.779411e-04  0 
 -4.779411e-04  -4.663072e-05  0 
 0  0  0 

 -2.130516e-04  -3.506929e-04  0 
 -3.506929e-04  7.995698e-05  0 
 0  0  0 

 2.474298e-05  -5.123087e-04  0 
 -5.123087e-04  5.395299e-05  0 
 0  0  0 

