# vtk DataFile Version 3.1
this is an vtk file created by FEMAC
ASCII
DATASET UNSTRUCTURED_GRID
POINTS 32 FLOAT
1.000000 1.000000 0.000000
1.000000 2.000000 0.000000
2.000000 2.000000 0.000000
1.000000 0.750000 0.000000
1.000000 1.250000 0.000000
1.000000 1.500000 0.000000
1.000000 1.750000 0.000000
1.250000 1.000000 0.000000
1.500000 1.000000 0.000000
1.750000 1.000000 0.000000
1.500000 2.000000 0.000000
1.750000 2.000000 0.000000
2.000000 1.500000 0.000000
2.000000 1.750000 0.000000
1.638134 0.825570 0.000000
1.371728 0.825957 0.000000
1.167285 0.847252 0.000000
1.500000 1.500000 0.000000
1.805000 1.745000 0.000000
1.745000 1.195000 0.000000
1.255000 1.805000 0.000000
1.195000 1.255000 0.000000
1.799000 1.384000 0.000000
1.616000 1.799000 0.000000
1.384000 1.201000 0.000000
1.201000 1.616000 0.000000
1.325714 1.438857 0.000000
1.433602 1.681622 0.000000
1.555888 1.333051 0.000000
1.672784 1.563239 0.000000
1.745000 2.195000 0.000000
2.153954 1.850472 0.000000
CELLS 43 172 
3 8 15 14
3 7 15  8
3 14  9  8
3 3 16  0
3 16  7  0
3 16 15  7
3 18 12 13
3 19  8  9
3 21  5  4
3 24  7  8
3 25  6  5
3 23 11 10
3 22 28 19
3 23 29 18
3 24 26 21
3 25 27 20
3 24 21  7
3 23 18 11
3 25 20  6
3 26  5 21
3 25  5 26
3 17 27 26
3 25 26 27
3 28  8 19
3 24  8 28
3 17 26 28
3 24 28 26
3 27 10 20
3 23 10 27
3 17 29 27
3 23 27 29
3 29 12 18
3 22 12 29
3 17 28 29
3 22 29 28
3 0 21  4
3 0  7 21
3 18  2 11
3 13  2 18
3 20  1  6
3 30 10 11
3 2 30 11
3 13 31  2
CELL_TYPES 43
5 5 5 5 5 5 5 5 5 5 5 5 5 5 5 5 5 5 5 5 5 5 5 5 5 5 5 5 5 5 5 5 5 5 5 5 5 5 5 5 5 5 5 
POINT_DATA 32
VECTORS displacement_ITER1 FLOAT
 -5.531138e-02  7.649316e-03  0 
 -3.047724e-02  7.728145e-03  0 
 -3.054975e-02  -1.722723e-02  0 
 -6.901234e-03  -2.448098e-03  0 
 -4.914493e-02  7.646384e-03  0 
 -4.295436e-02  7.661090e-03  0 
 -3.673315e-02  7.690267e-03  0 
 -5.533611e-02  1.445706e-03  0 
 -5.536978e-02  -4.777003e-03  0 
 -5.540981e-02  -1.103992e-02  0 
 -3.055122e-02  -4.788621e-03  0 
 -3.055361e-02  -1.101145e-02  0 
 -4.296807e-02  -1.722887e-02  0 
 -3.676416e-02  -1.723330e-02  0 
 -6.358100e-02  -1.381245e-02  0 
 -5.305049e-02  -1.996456e-03  0 
 -4.241517e-02  8.456312e-03  0 
 -4.295764e-02  -4.777413e-03  0 
 -3.688230e-02  -1.237321e-02  0 
 -5.053467e-02  -1.087786e-02  0 
 -3.537909e-02  1.320206e-03  0 
 -4.902840e-02  2.816748e-03  0 
 -4.584300e-02  -1.222138e-02  0 
 -3.554019e-02  -7.671225e-03  0 
 -5.037156e-02  -1.878645e-03  0 
 -4.007926e-02  2.663273e-03  0 
 -4.447401e-02  -4.355195e-04  0 
 -3.844996e-02  -3.130411e-03  0 
 -4.709989e-02  -6.163888e-03  0 
 -4.139059e-02  -9.079147e-03  0 
 -4.656756e-02  -1.794663e-02  0 
 -4.069753e-02  -4.945895e-02  0 
VECTORS displacement_ITER2 FLOAT
 -1.903997e-02  2.070628e-03  0 
 1.207620e-02  2.137709e-03  0 
 1.198700e-02  -2.910393e-02  0 
 2.730187e-02  -2.923700e-03  0 
 -1.130807e-02  2.055143e-03  0 
 -3.548931e-03  2.064936e-03  0 
 4.244474e-03  2.097537e-03  0 
 -1.906767e-02  -5.711291e-03  0 
 -1.910506e-02  -1.350820e-02  0 
 -1.915023e-02  -2.134809e-02  0 
 1.200479e-02  -1.353557e-02  0 
 1.199299e-02  -2.132094e-02  0 
 -3.552209e-03  -2.910928e-02  0 
 4.216487e-03  -2.911042e-02  0 
 -2.786831e-02  -2.187259e-02  0 
 -1.773081e-02  -9.042187e-03  0 
 -6.783234e-03  3.180184e-03  0 
 -3.548006e-03  -1.351276e-02  0 
 4.068321e-03  -2.303257e-02  0 
 -1.304355e-02  -2.115153e-02  0 
 5.941765e-03  -5.880219e-03  0 
 -1.115781e-02  -3.996813e-03  0 
 -7.158450e-03  -2.283740e-02  0 
 5.749787e-03  -1.714552e-02  0 
 -1.284051e-02  -9.879424e-03  0 
 5.480860e-05  -4.195701e-03  0 
 -5.449421e-03  -8.073570e-03  0 
 2.098385e-03  -1.145174e-02  0 
 -8.738646e-03  -1.524748e-02  0 
 -1.581626e-03  -1.890442e-02  0 
 -1.664099e-03  -2.738366e-02  0 
 5.207939e-04  -5.786664e-02  0 
VECTORS displacement_ITER3 FLOAT
 -2.489771e-02  6.424782e-03  0 
 -2.431333e-03  6.472325e-03  0 
 -2.554889e-03  -1.613127e-02  0 
 8.895641e-03  1.795329e-02  0 
 -1.933752e-02  6.397275e-03  0 
 -1.374679e-02  6.398789e-03  0 
 -8.112453e-03  6.431404e-03  0 
 -2.493815e-02  7.896972e-04  0 
 -2.498590e-02  -4.852608e-03  0 
 -2.504264e-02  -1.054527e-02  0 
 -2.512502e-03  -4.887190e-03  0 
 -2.533890e-03  -1.050746e-02  0 
 -1.373709e-02  -1.613748e-02  0 
 -8.139839e-03  -1.613182e-02  0 
 -3.110444e-02  -9.423276e-03  0 
 -2.286571e-02  -6.184789e-05  0 
 -1.393770e-02  1.062871e-02  0 
 -1.373793e-02  -4.859745e-03  0 
 -8.243642e-03  -1.175010e-02  0 
 -2.060764e-02  -1.038357e-02  0 
 -6.882048e-03  6.487379e-04  0 
 -1.922958e-02  2.033961e-03  0 
 -1.634325e-02  -1.160453e-02  0 
 -7.028167e-03  -7.497259e-03  0 
 -2.044906e-02  -2.219059e-03  0 
 -1.114338e-02  1.874008e-03  0 
 -1.511304e-02  -9.194106e-04  0 
 -9.661236e-03  -3.378894e-03  0 
 -1.748729e-02  -6.107233e-03  0 
 -1.231608e-02  -8.764252e-03  0 
 -1.668470e-02  -1.645084e-02  0 
 -1.278880e-02  -3.840061e-02  0 
VECTORS displacement_ITER4 FLOAT
 -2.606047e-02  -1.152765e-02  0 
 -8.821616e-03  -1.151403e-02  0 
 -8.977939e-03  -2.888829e-02  0 
 -9.101786e-03  1.626720e-02  0 
 -2.181375e-02  -1.156368e-02  0 
 -1.753739e-02  -1.157465e-02  0 
 -1.320802e-02  -1.154887e-02  0 
 -2.611629e-02  -1.587556e-02  0 
 -2.617536e-02  -2.022185e-02  0 
 -2.624584e-02  -2.462675e-02  0 
 -8.919146e-03  -2.025638e-02  0 
 -8.945464e-03  -2.456592e-02  0 
 -1.752005e-02  -2.889550e-02  0 
 -1.323588e-02  -2.888137e-02  0 
 -3.100164e-02  -2.231452e-02  0 
 -2.466464e-02  -1.500796e-02  0 
 -1.814261e-02  -5.477958e-03  0 
 -1.752111e-02  -2.022596e-02  0 
 -1.331298e-02  -2.552648e-02  0 
 -2.281214e-02  -2.447937e-02  0 
 -1.226108e-02  -1.600840e-02  0 
 -2.173189e-02  -1.490924e-02  0 
 -1.952174e-02  -2.541521e-02  0 
 -1.237909e-02  -2.226119e-02  0 
 -2.267494e-02  -1.818333e-02  0 
 -1.553719e-02  -1.505543e-02  0 
 -1.857742e-02  -1.718897e-02  0 
 -1.439360e-02  -1.909695e-02  0 
 -2.040096e-02  -2.117997e-02  0 
 -1.642914e-02  -2.323269e-02  0 
 -2.341269e-02  -2.954661e-02  0 
 -1.817692e-02  -4.691005e-02  0 
VECTORS displacement_ITER5 FLOAT
 -2.244824e-02  -6.428936e-04  0 
 -2.567455e-03  -6.172192e-04  0 
 -2.758715e-03  -2.066256e-02  0 
 3.763893e-03  1.448501e-02  0 
 -1.756361e-02  -6.743088e-04  0 
 -1.263348e-02  -6.791540e-04  0 
 -7.636366e-03  -6.502015e-04  0 
 -2.252340e-02  -5.650864e-03  0 
 -2.260079e-02  -1.065917e-02  0 
 -2.268797e-02  -1.573865e-02  0 
 -2.683697e-03  -1.068740e-02  0 
 -2.714879e-03  -1.566335e-02  0 
 -1.261107e-02  -2.066184e-02  0 
 -7.665415e-03  -2.064248e-02  0 
 -2.548368e-02  -1.157074e-02  0 
 -2.039523e-02  -4.857487e-03  0 
 -1.338434e-02  4.305705e-03  0 
 -1.261516e-02  -1.065725e-02  0 
 -7.757427e-03  -1.677515e-02  0 
 -1.872654e-02  -1.556531e-02  0 
 -6.543718e-03  -5.793698e-03  0 
 -1.747216e-02  -4.527144e-03  0 
 -1.492450e-02  -1.664503e-02  0 
 -6.679243e-03  -1.300490e-02  0 
 -1.856151e-02  -8.303082e-03  0 
 -1.032463e-02  -4.693997e-03  0 
 -1.383410e-02  -7.154378e-03  0 
 -9.004529e-03  -9.354556e-03  0 
 -1.594014e-02  -1.175720e-02  0 
 -1.135423e-02  -1.412724e-02  0 
 -1.292896e-02  -1.900892e-02  0 
 -1.152122e-02  -3.477621e-02  0 
VECTORS displacement_ITER6 FLOAT
 -2.568033e-02  -9.331287e-05  0 
 -4.516758e-03  -2.069297e-05  0 
 -4.741650e-03  -2.141308e-02  0 
 1.959777e-02  -8.509260e-03  0 
 -2.050590e-02  -1.122894e-04  0 
 -1.525988e-02  -9.857789e-05  0 
 -9.931809e-03  -5.826597e-05  0 
 -2.577760e-02  -5.411167e-03  0 
 -2.587647e-02  -1.073583e-02  0 
 -2.598043e-02  -1.614760e-02  0 
 -4.649930e-03  -1.075388e-02  0 
 -4.685737e-03  -1.606805e-02  0 
 -1.523223e-02  -2.139561e-02  0 
 -9.963326e-03  -2.137621e-02  0 
 -2.578269e-02  -1.019720e-02  0 
 -2.180687e-02  -4.958017e-03  0 
 -1.352102e-02  3.127366e-03  0 
 -1.524284e-02  -1.072903e-02  0 
 -1.006469e-02  -1.725704e-02  0 
 -2.175876e-02  -1.595606e-02  0 
 -8.763922e-03  -5.540746e-03  0 
 -2.041404e-02  -4.202690e-03  0 
 -1.770173e-02  -1.711101e-02  0 
 -8.914261e-03  -1.323271e-02  0 
 -2.157519e-02  -8.220617e-03  0 
 -1.280037e-02  -4.371437e-03  0 
 -1.654257e-02  -6.995501e-03  0 
 -1.139236e-02  -9.340970e-03  0 
 -1.878697e-02  -1.189827e-02  0 
 -1.389762e-02  -1.443056e-02  0 
 -9.453689e-03  -1.875775e-02  0 
 -1.247570e-02  -3.138584e-02  0 
VECTORS displacement_ITER7 FLOAT
 -1.641034e-02  9.444708e-03  0 
 4.734374e-03  9.516369e-03  0 
 4.463001e-03  -1.186943e-02  0 
 1.904109e-02  6.612137e-03  0 
 -1.126167e-02  9.418286e-03  0 
 -6.023323e-03  9.432791e-03  0 
 -6.948328e-04  9.475848e-03  0 
 -1.652442e-02  4.122917e-03  0 
 -1.663607e-02  -1.197614e-03  0 
 -1.675345e-02  -6.618468e-03  0 
 4.575212e-03  -1.212271e-03  0 
 4.532438e-03  -6.522138e-03  0 
 -5.988704e-03  -1.184804e-02  0 
 -7.364048e-04  -1.182580e-02  0 
 -1.662973e-02  5.890104e-04  0 
 -1.390654e-02  4.789325e-03  0 
 -6.919592e-03  1.237530e-02  0 
 -6.003978e-03  -1.190328e-03  0 
 -8.369405e-04  -7.717734e-03  0 
 -1.252082e-02  -6.415721e-03  0 
 4.695611e-04  3.992120e-03  0 
 -1.116935e-02  5.338496e-03  0 
 -8.457165e-03  -7.569662e-03  0 
 3.145812e-04  -3.694432e-03  0 
 -1.233162e-02  1.322274e-03  0 
 -3.565116e-03  5.161863e-03  0 
 -7.302490e-03  2.543641e-03  0 
 -2.157498e-03  1.944844e-04  0 
 -9.544834e-03  -2.356246e-03  0 
 -4.659485e-03  -4.893539e-03  0 
 2.855152e-03  -8.155015e-03  0 
 -2.634377e-03  -1.750685e-02  0 
VECTORS displacement_ITER8 FLOAT
 -1.580596e-02  1.024913e-03  0 
 -2.990408e-03  1.087924e-03  0 
 -3.299277e-03  -1.197276e-02  0 
 2.056468e-03  1.065730e-02  0 
 -1.275566e-02  9.911379e-04  0 
 -9.601069e-03  1.004142e-03  0 
 -6.350361e-03  1.046994e-03  0 
 -1.593685e-02  -2.227612e-03  0 
 -1.605973e-02  -5.468876e-03  0 
 -1.618934e-02  -8.823437e-03  0 
 -3.170231e-03  -5.475616e-03  0 
 -3.218093e-03  -8.703375e-03  0 
 -9.561509e-03  -1.195294e-02  0 
 -6.400604e-03  -1.192514e-02  0 
 -1.593347e-02  -1.998837e-03  0 
 -1.450039e-02  -4.719237e-04  0 
 -1.005056e-02  4.880220e-03  0 
 -9.578394e-03  -5.459162e-03  0 
 -6.458332e-03  -9.448060e-03  0 
 -1.356454e-02  -8.650732e-03  0 
 -5.642393e-03  -2.318300e-03  0 
 -1.270410e-02  -1.460279e-03  0 
 -1.106438e-02  -9.352524e-03  0 
 -5.754671e-03  -6.996819e-03  0 
 -1.341990e-02  -3.906967e-03  0 
 -8.106835e-03  -1.595447e-03  0 
 -1.036811e-02  -3.171945e-03  0 
 -7.243770e-03  -4.629094e-03  0 
 -1.173021e-02  -6.158800e-03  0 
 -8.760297e-03  -7.727269e-03  0 
 -3.477192e-03  -9.459625e-03  0 
 -8.637514e-03  -1.261981e-02  0 
VECTORS displacement_ITER9 FLOAT
 -1.204761e-02  -1.564735e-03  0 
 -3.552503e-03  -1.507488e-03  0 
 -3.882802e-03  -1.025695e-02  0 
 -2.722795e-03  1.224663e-02  0 
 -1.009432e-02  -1.605571e-03  0 
 -8.021091e-03  -1.591952e-03  0 
 -5.844178e-03  -1.548273e-03  0 
 -1.219379e-02  -3.747820e-03  0 
 -1.232821e-02  -5.913267e-03  0 
 -1.246961e-02  -8.202088e-03  0 
 -3.745951e-03  -5.914992e-03  0 
 -3.795494e-03  -8.063993e-03  0 
 -7.975757e-03  -1.024009e-02  0 
 -5.894251e-03  -1.020545e-02  0 
 -1.155599e-02  -2.005034e-03  0 
 -1.114785e-02  -1.665109e-03  0 
 -8.226103e-03  2.380052e-03  0 
 -7.993654e-03  -5.898739e-03  0 
 -5.930879e-03  -8.574050e-03  0 
 -1.067399e-02  -8.039991e-03  0 
 -5.372488e-03  -3.818607e-03  0 
 -1.006314e-02  -3.209065e-03  0 
 -8.980448e-03  -8.506656e-03  0 
 -5.460861e-03  -6.937586e-03  0 
 -1.054828e-02  -4.843309e-03  0 
 -7.024751e-03  -3.325843e-03  0 
 -8.520677e-03  -4.360167e-03  0 
 -6.441793e-03  -5.357499e-03  0 
 -9.427476e-03  -6.356453e-03  0 
 -7.447209e-03  -7.423893e-03  0 
 -2.710632e-03  -8.194414e-03  0 
 -7.531802e-03  -8.184744e-03  0 
VECTORS displacement_ITER10 FLOAT
 -7.350697e-03  2.032603e-03  0 
 -1.044477e-03  2.093581e-03  0 
 -1.393443e-03  -4.485025e-03  0 
 1.013767e-03  1.151502e-02  0 
 -5.962843e-03  1.986305e-03  0 
 -4.439425e-03  2.003777e-03  0 
 -2.801950e-03  2.051467e-03  0 
 -7.510425e-03  3.905241e-04  0 
 -7.655072e-03  -1.228904e-03  0 
 -7.805922e-03  -2.980451e-03  0 
 -1.248723e-03  -1.230973e-03  0 
 -1.300765e-03  -2.835059e-03  0 
 -4.385325e-03  -4.467833e-03  0 
 -2.850974e-03  -4.430479e-03  0 
 -6.296206e-03  2.744613e-03  0 
 -6.541700e-03  2.324121e-03  0 
 -4.272531e-03  5.274737e-03  0 
 -4.406812e-03  -1.212589e-03  0 
 -2.877198e-03  -3.227407e-03  0 
 -6.427633e-03  -2.821024e-03  0 
 -2.448857e-03  3.307511e-04  0 
 -5.941903e-03  8.165355e-04  0 
 -5.139738e-03  -3.170893e-03  0 
 -2.525401e-03  -2.002313e-03  0 
 -6.310219e-03  -4.061846e-04  0 
 -3.693605e-03  7.077528e-04  0 
 -4.802069e-03  -5.118063e-05  0 
 -3.250378e-03  -8.189250e-04  0 
 -5.477803e-03  -1.546271e-03  0 
 -3.996579e-03  -2.363799e-03  0 
 1.073209e-03  -2.506983e-03  0 
 -3.707246e-03  -8.212317e-04  0 
VECTORS displacement_ITER11 FLOAT
 -7.457469e-03  -3.285053e-04  0 
 -2.286849e-03  -2.716547e-04  0 
 -2.653806e-03  -5.721259e-03  0 
 -1.357560e-03  5.716538e-03  0 
 -6.365338e-03  -3.813453e-04  0 
 -5.130075e-03  -3.637510e-04  0 
 -3.770825e-03  -3.142942e-04  0 
 -7.626775e-03  -1.694555e-03  0 
 -7.777471e-03  -3.030720e-03  0 
 -7.934831e-03  -4.505274e-03  0 
 -2.499053e-03  -3.040438e-03  0 
 -2.555737e-03  -4.357299e-03  0 
 -5.065819e-03  -5.706603e-03  0 
 -3.820636e-03  -5.669314e-03  0 
 -6.856557e-03  6.906656e-04  0 
 -7.281910e-03  -1.446135e-04  0 
 -5.567011e-03  1.966708e-03  0 
 -5.091815e-03  -3.015732e-03  0 
 -3.839700e-03  -4.690219e-03  0 
 -6.770138e-03  -4.345646e-03  0 
 -3.478808e-03  -1.752406e-03  0 
 -6.349236e-03  -1.325625e-03  0 
 -5.690929e-03  -4.636328e-03  0 
 -3.548627e-03  -3.679798e-03  0 
 -6.657436e-03  -2.335969e-03  0 
 -4.513109e-03  -1.434141e-03  0 
 -5.419239e-03  -2.048367e-03  0 
 -4.141305e-03  -2.700391e-03  0 
 -5.974191e-03  -3.283662e-03  0 
 -4.751674e-03  -3.974529e-03  0 
 -2.412277e-04  -3.933822e-03  0 
 -4.367335e-03  -8.644133e-04  0 
VECTORS displacement_ITER12 FLOAT
 -6.539821e-03  1.263971e-03  0 
 -3.083636e-03  1.314982e-03  0 
 -3.456491e-03  -2.427716e-03  0 
 1.632747e-05  2.364157e-03  0 
 -5.883331e-03  1.205229e-03  0 
 -5.079274e-03  1.223027e-03  0 
 -4.144201e-03  1.272980e-03  0 
 -6.716306e-03  3.184667e-04  0 
 -6.871877e-03  -5.912550e-04  0 
 -7.035107e-03  -1.643793e-03  0 
 -3.297777e-03  -6.037858e-04  0 
 -3.356228e-03  -1.491855e-03  0 
 -5.009167e-03  -2.414567e-03  0 
 -4.192618e-03  -2.376985e-03  0 
 -6.211438e-03  2.622573e-03  0 
 -6.552529e-03  1.464056e-03  0 
 -5.063999e-03  2.720200e-03  0 
 -5.037155e-03  -5.749169e-04  0 
 -4.202674e-03  -1.731821e-03  0 
 -6.197852e-03  -1.487092e-03  0 
 -3.945033e-03  2.677354e-04  0 
 -5.875189e-03  5.977743e-04  0 
 -5.437814e-03  -1.685935e-03  0 
 -4.004052e-03  -1.044371e-03  0 
 -6.092508e-03  -9.119423e-05  0 
 -4.658652e-03  4.952147e-04  0 
 -5.260893e-03  9.678614e-05  0 
 -4.396961e-03  -3.749321e-04  0 
 -5.635117e-03  -7.462468e-04  0 
 -4.804180e-03  -1.240370e-03  0 
 -1.510357e-03  -9.910984e-04  0 
 -4.428559e-03  2.389082e-03  0 
VECTORS displacement_ITER13 FLOAT
 -4.681794e-03  3.334326e-03  0 
 -5.612274e-05  3.376448e-03  0 
 -4.311276e-04  -1.539326e-03  0 
 2.476466e-03  5.161719e-04  0 
 -3.737316e-03  3.268080e-03  0 
 -2.642727e-03  3.285266e-03  0 
 -1.412112e-03  3.335049e-03  0 
 -4.863630e-03  2.087356e-03  0 
 -5.023137e-03  8.817057e-04  0 
 -5.191545e-03  -4.683601e-04  0 
 -2.716662e-04  8.683149e-04  0 
 -3.305284e-04  -3.114204e-04  0 
 -2.570246e-03  -1.528869e-03  0 
 -1.457751e-03  -1.488625e-03  0 
 -4.726892e-03  3.129649e-03  0 
 -4.991370e-03  2.598543e-03  0 
 -3.553899e-03  3.776946e-03  0 
 -2.597758e-03  9.014477e-04  0 
 -1.473798e-03  -6.151460e-04  0 
 -4.121302e-03  -3.007558e-04  0 
 -1.147812e-03  2.028561e-03  0 
 -3.722381e-03  2.434445e-03  0 
 -3.136696e-03  -5.619902e-04  0 
 -1.212819e-03  2.932393e-04  0 
 -4.004749e-03  1.521850e-03  0 
 -2.084569e-03  2.321016e-03  0 
 -2.893703e-03  1.779006e-03  0 
 -1.744255e-03  1.177632e-03  0 
 -3.393151e-03  6.648243e-04  0 
 -2.290067e-03  3.265982e-05  0 
 1.026304e-03  1.816659e-07  0 
 -1.259521e-03  1.474330e-03  0 
VECTORS displacement_ITER14 FLOAT
 -3.497972e-03  1.773997e-03  0 
 -2.503135e-03  1.797245e-03  0 
 -2.884539e-03  5.181433e-04  0 
 -1.225940e-03  1.629024e-03  0 
 -3.463953e-03  1.697802e-03  0 
 -3.278885e-03  1.711283e-03  0 
 -2.953445e-03  1.758779e-03  0 
 -3.684132e-03  1.422756e-03  0 
 -3.845216e-03  1.121432e-03  0 
 -4.016613e-03  6.755850e-04  0 
 -2.717616e-03  1.100090e-03  0 
 -2.780574e-03  8.338290e-04  0 
 -3.200900e-03  5.237234e-04  0 
 -2.997282e-03  5.661247e-04  0 
 -3.629376e-03  3.288137e-03  0 
 -3.940732e-03  2.036890e-03  0 
 -3.302397e-03  2.274610e-03  0 
 -3.229691e-03  1.140946e-03  0 
 -2.993830e-03  7.287197e-04  0 
 -3.649906e-03  8.280569e-04  0 
 -2.886919e-03  1.374890e-03  0 
 -3.465319e-03  1.572487e-03  0 
 -3.348108e-03  7.624130e-04  0 
 -2.928961e-03  9.488224e-04  0 
 -3.553184e-03  1.342993e-03  0 
 -3.139656e-03  1.474330e-03  0 
 -3.304607e-03  1.388309e-03  0 
 -3.035437e-03  1.173346e-03  0 
 -3.420436e-03  1.108411e-03  0 
 -3.150652e-03  8.977945e-04  0 
 -3.054095e-03  8.851251e-04  0 
 -3.083104e-03  3.285664e-03  0 
VECTORS displacement_ITER15 FLOAT
 -1.408663e-03  2.347414e-03  0 
 4.981508e-04  2.357965e-03  0 
 1.104738e-04  1.690910e-04  0 
 -2.511204e-03  3.493591e-03  0 
 -1.150963e-03  2.263276e-03  0 
 -7.387847e-04  2.274721e-03  0 
 -1.835321e-04  2.321673e-03  0 
 -1.596714e-03  1.761717e-03  0 
 -1.757602e-03  1.232338e-03  0 
 -1.930287e-03  5.573734e-04  0 
 2.791639e-04  1.205843e-03  0 
 2.156999e-04  7.124884e-04  0 
 -6.555809e-04  1.769668e-04  0 
 -2.277436e-04  2.168708e-04  0 
 -2.302039e-03  2.724697e-03  0 
 -2.438505e-03  2.023232e-03  0 
 -2.152767e-03  2.347147e-03  0 
 -6.863427e-04  1.248189e-03  0 
 -2.286269e-04  5.567889e-04  0 
 -1.383231e-03  7.157764e-04  0 
 -6.541255e-05  1.701848e-03  0 
 -1.145692e-03  1.961382e-03  0 
 -9.086384e-04  5.992205e-04  0 
 -1.144345e-04  9.490721e-04  0 
 -1.282406e-03  1.559029e-03  0 
 -4.923531e-04  1.852976e-03  0 
 -8.176911e-04  1.655675e-03  0 
 -3.266801e-04  1.338985e-03  0 
 -1.028756e-03  1.166553e-03  0 
 -5.493437e-04  8.470160e-04  0 
 9.360748e-05  6.273248e-04  0 
 -4.360371e-05  1.251681e-03  0 
VECTORS displacement_ITER16 FLOAT
 -1.608060e-03  1.636347e-03  0 
 -8.945136e-04  1.648779e-03  0 
 -1.281651e-03  6.437964e-04  0 
 1.494820e-03  -1.866442e-03  0 
 -1.653540e-03  1.552072e-03  0 
 -1.540278e-03  1.565828e-03  0 
 -1.281748e-03  1.614551e-03  0 
 -1.798465e-03  1.349100e-03  0 
 -1.961008e-03  1.118574e-03  0 
 -2.135108e-03  7.424417e-04  0 
 -1.114075e-03  1.092407e-03  0 
 -1.176748e-03  8.935726e-04  0 
 -1.456735e-03  6.562414e-04  0 
 -1.323356e-03  6.950578e-04  0 
 -1.813485e-03  2.117603e-03  0 
 -1.842333e-03  1.524501e-03  0 
 -1.350736e-03  1.457902e-03  0 
 -1.487688e-03  1.135315e-03  0 
 -1.319505e-03  8.044219e-04  0 
 -1.821484e-03  8.960247e-04  0 
 -1.227965e-03  1.297108e-03  0 
 -1.654336e-03  1.484628e-03  0 
 -1.572870e-03  8.425632e-04  0 
 -1.269932e-03  9.730203e-04  0 
 -1.726677e-03  1.307721e-03  0 
 -1.431775e-03  1.384204e-03  0 
 -1.546463e-03  1.335545e-03  0 
 -1.343487e-03  1.146669e-03  0 
 -1.631853e-03  1.120684e-03  0 
 -1.425811e-03  9.396466e-04  0 
 -9.913621e-04  5.356967e-04  0 
 -1.002499e-03  7.673086e-05  0 
VECTORS displacement_ITER17 FLOAT
 -6.915338e-04  9.344776e-04  0 
 -6.999641e-04  9.394086e-04  0 
 -1.092515e-03  6.599384e-04  0 
 -7.497547e-04  -7.291752e-05  0 
 -9.182852e-04  8.462867e-04  0 
 -9.849789e-04  8.579144e-04  0 
 -9.081279e-04  9.067364e-04  0 
 -8.821414e-04  8.244694e-04  0 
 -1.043879e-03  7.746378e-04  0 
 -1.218843e-03  5.777769e-04  0 
 -9.239467e-04  7.501024e-04  0 
 -9.864353e-04  7.307521e-04  0 
 -9.019534e-04  6.752139e-04  0 
 -9.519869e-04  7.126932e-04  0 
 -1.703208e-03  1.401288e-03  0 
 -1.439774e-03  1.058026e-03  0 
 -1.185347e-03  8.823051e-04  0 
 -9.326400e-04  7.900297e-04  0 
 -9.445963e-04  6.807258e-04  0 
 -1.044136e-03  7.291427e-04  0 
 -8.937349e-04  7.739972e-04  0 
 -9.215501e-04  9.195848e-04  0 
 -9.330016e-04  7.150425e-04  0 
 -9.336467e-04  7.132776e-04  0 
 -9.548190e-04  8.791844e-04  0 
 -9.608619e-04  8.222084e-04  0 
 -9.467220e-04  8.642344e-04  0 
 -9.203038e-04  7.532829e-04  0 
 -9.551075e-04  8.159911e-04  0 
 -9.172560e-04  7.197282e-04  0 
 -3.466570e-04  3.149898e-04  0 
 -7.970480e-04  -7.259607e-04  0 
VECTORS displacement_ITER18 FLOAT
 -1.090333e-04  -9.419775e-05  0 
 -1.022989e-03  -9.662255e-05  0 
 -1.420401e-03  5.346042e-04  0 
 -1.270484e-03  4.252955e-04  0 
 -5.616729e-04  -1.847778e-04  0 
 -8.540990e-04  -1.753510e-04  0 
 -1.005435e-03  -1.267530e-04  0 
 -2.990605e-04  2.006589e-05  0 
 -4.599173e-04  1.962070e-04  0 
 -6.350892e-04  2.251366e-04  0 
 -1.249349e-03  1.724677e-04  0 
 -1.312631e-03  3.799461e-04  0 
 -7.720086e-04  5.513646e-04  0 
 -1.049906e-03  5.895841e-04  0 
 -1.433810e-03  6.896024e-04  0 
 -9.840599e-04  4.185633e-04  0 
 -7.725730e-04  1.373735e-04  0 
 -8.020791e-04  2.106833e-04  0 
 -1.038189e-03  3.791973e-04  0 
 -6.361695e-04  3.725361e-04  0 
 -1.039969e-03  -2.857721e-05  0 
 -5.686584e-04  6.441320e-05  0 
 -6.969937e-04  4.078147e-04  0 
 -1.076025e-03  2.401009e-04  0 
 -5.529298e-04  1.951408e-04  0 
 -9.358084e-04  -2.847876e-05  0 
 -7.604734e-04  1.269497e-04  0 
 -9.547645e-04  1.134353e-04  0 
 -6.726731e-04  2.874276e-04  0 
 -8.445341e-04  2.975020e-04  0 
 -5.984559e-04  5.019688e-05  0 
 -1.138569e-03  -1.121770e-03  0 
VECTORS displacement_ITER19 FLOAT
 1.364702e-04  -1.430309e-04  0 
 -4.967437e-04  -1.485212e-04  0 
 -8.990766e-04  2.028330e-04  0 
 -4.587958e-05  -1.778625e-04  0 
 -2.461460e-04  -2.338895e-04  0 
 -4.687385e-04  -2.255617e-04  0 
 -5.507504e-04  -1.767480e-04  0 
 -5.263390e-05  -9.870490e-05  0 
 -2.123575e-04  7.943901e-06  0 
 -3.865183e-04  -3.166385e-05  0 
 -7.244254e-04  -1.765376e-05  0 
 -7.892599e-04  1.202218e-04  0 
 -3.856971e-04  2.230598e-04  0 
 -5.953124e-04  2.604110e-04  0 
 -1.166006e-03  4.277306e-04  0 
 -6.567791e-04  2.948794e-04  0 
 -3.022908e-04  9.792661e-05  0 
 -4.165714e-04  2.028840e-05  0 
 -5.853662e-04  1.031838e-04  0 
 -3.340372e-04  1.160810e-04  0 
 -5.689066e-04  -1.512597e-04  0 
 -2.514529e-04  -3.994647e-05  0 
 -3.428177e-04  1.352337e-04  0 
 -6.076918e-04  1.687983e-05  0 
 -2.503327e-04  3.812825e-05  0 
 -5.182848e-04  -1.351006e-04  0 
 -3.921347e-04  -1.441687e-05  0 
 -5.186304e-04  -5.895901e-05  0 
 -3.332452e-04  8.215554e-05  0 
 -4.414458e-04  5.864766e-05  0 
 2.605881e-05  7.594423e-05  0 
 -6.948172e-04  -1.328259e-03  0 
VECTORS displacement_ITER20 FLOAT
 5.011981e-04  -4.055435e-04  0 
 -3.524430e-04  -4.152871e-04  0 
 -7.600902e-04  1.585757e-04  0 
 -5.417252e-04  4.739523e-04  0 
 6.445178e-05  -4.972065e-04  0 
 -2.138856e-04  -4.908039e-04  0 
 -3.517751e-04  -4.425879e-04  0 
 3.131182e-04  -3.067962e-04  0 
 1.549084e-04  -1.444943e-04  0 
 -1.779203e-05  -1.266721e-04  0 
 -5.816172e-04  -1.715291e-04  0 
 -6.480670e-04  2.259058e-05  0 
 -1.303868e-04  1.825423e-04  0 
 -3.969282e-04  2.191075e-04  0 
 -8.659232e-04  4.435976e-04  0 
 -4.031720e-04  2.290009e-04  0 
 -1.287953e-04  -1.353776e-05  0 
 -1.616696e-04  -1.338697e-04  0 
 -3.863696e-04  1.689327e-05  0 
 -9.872546e-06  1.848184e-05  0 
 -3.817830e-04  -3.607775e-04  0 
 5.831422e-05  -2.611290e-04  0 
 -6.139451e-05  4.911434e-05  0 
 -4.203024e-04  -1.116657e-04  0 
 7.156315e-05  -1.412485e-04  0 
 -2.893161e-04  -3.560259e-04  0 
 -1.234757e-04  -2.072146e-04  0 
 -3.043622e-04  -2.283642e-04  0 
 -4.072757e-05  -5.904897e-05  0 
 -2.009012e-04  -5.703278e-05  0 
 1.273011e-04  2.725346e-04  0 
 -5.740810e-04  -8.013960e-04  0 
VECTORS displacement_ITER21 FLOAT
 2.312019e-04  -4.754610e-04  0 
 -7.374398e-04  -4.831042e-04  0 
 -1.148575e-03  2.016813e-04  0 
 -7.163381e-04  -3.058878e-04  0 
 -2.344259e-04  -5.656480e-04  0 
 -5.425899e-04  -5.585782e-04  0 
 -7.091697e-04  -5.101004e-04  0 
 4.364812e-05  -3.464717e-04  0 
 -1.133433e-04  -1.534697e-04  0 
 -2.840340e-04  -1.026330e-04  0 
 -9.678774e-04  -1.800722e-04  0 
 -1.035110e-03  4.139925e-05  0 
 -4.592050e-04  2.324607e-04  0 
 -7.548347e-04  2.664420e-04  0 
 -9.788889e-04  5.034696e-04  0 
 -6.173457e-04  1.509240e-04  0 
 -4.183803e-04  -2.151154e-04  0 
 -4.910606e-04  -1.438510e-04  0 
 -7.448496e-04  4.151755e-05  0 
 -3.018270e-04  3.976036e-05  0 
 -7.454612e-04  -3.989041e-04  0 
 -2.416388e-04  -3.072205e-04  0 
 -3.767462e-04  7.563632e-05  0 
 -7.845088e-04  -1.080837e-04  0 
 -2.219266e-04  -1.650890e-04  0 
 -6.315881e-04  -4.005686e-04  0 
 -4.455046e-04  -2.376604e-04  0 
 -6.546259e-04  -2.459841e-04  0 
 -3.503087e-04  -6.211771e-05  0 
 -5.379894e-04  -4.687977e-05  0 
 1.187339e-05  6.049155e-04  0 
 -8.424920e-04  -1.431716e-04  0 
VECTORS displacement_ITER22 FLOAT
 2.789452e-05  -7.378019e-04  0 
 -9.367783e-04  -7.398250e-04  0 
 -1.350182e-03  -6.589397e-05  0 
 2.046522e-04  -1.947587e-03  0 
 -4.377056e-04  -8.257700e-04  0 
 -7.461169e-04  -8.162942e-04  0 
 -9.113264e-04  -7.666463e-04  0 
 -1.593802e-04  -6.070081e-04  0 
 -3.155950e-04  -4.124351e-04  0 
 -4.842474e-04  -3.575298e-04  0 
 -1.168285e-03  -4.387833e-04  0 
 -1.236014e-03  -2.203915e-04  0 
 -6.631291e-04  -2.781510e-05  0 
 -9.571812e-04  2.966735e-06  0 
 -8.951222e-04  3.113044e-04  0 
 -6.010705e-04  -1.994800e-04  0 
 -3.655875e-04  -6.401807e-04  0 
 -6.956472e-04  -4.035618e-04  0 
 -9.484572e-04  -2.205791e-04  0 
 -5.053651e-04  -2.175396e-04  0 
 -9.473375e-04  -6.571426e-04  0 
 -4.458044e-04  -5.674431e-04  0 
 -5.813546e-04  -1.833072e-04  0 
 -9.874263e-04  -3.684473e-04  0 
 -4.259973e-04  -4.251199e-04  0 
 -8.350029e-04  -6.588428e-04  0 
 -6.501236e-04  -4.971165e-04  0 
 -8.581239e-04  -5.053629e-04  0 
 -5.551806e-04  -3.214918e-04  0 
 -7.425944e-04  -3.071426e-04  0 
 -9.592638e-05  5.275567e-04  0 
 -9.506934e-04  -3.292713e-05  0 
VECTORS displacement_ITER23 FLOAT
 2.424129e-04  -1.208279e-03  0 
 -1.170363e-03  -1.208736e-03  0 
 -1.585124e-03  -9.026948e-05  0 
 -1.650096e-03  -4.963683e-05  0 
 -3.352700e-04  -1.296236e-03  0 
 -7.566254e-04  -1.285803e-03  0 
 -1.033899e-03  -1.235263e-03  0 
 5.536947e-05  -9.650647e-04  0 
 -9.998178e-05  -6.570884e-04  0 
 -2.672163e-04  -4.865731e-04  0 
 -1.402546e-03  -6.832238e-04  0 
 -1.470706e-03  -3.538732e-04  0 
 -6.742546e-04  -4.734930e-05  0 
 -1.079840e-03  -1.880233e-05  0 
 -5.602557e-04  1.145324e-04  0 
 -3.784729e-04  -5.227608e-04  0 
 -4.094870e-04  -9.867994e-04  0 
 -7.069131e-04  -6.483951e-04  0 
 -1.069695e-03  -3.292955e-04  0 
 -3.784678e-04  -3.503926e-04  0 
 -1.094613e-03  -1.011654e-03  0 
 -3.459669e-04  -9.501782e-04  0 
 -5.405123e-04  -2.926750e-04  0 
 -1.132611e-03  -5.614625e-04  0 
 -3.019937e-04  -7.227387e-04  0 
 -8.979090e-04  -1.037806e-03  0 
 -6.336955e-04  -8.204188e-04  0 
 -9.507567e-04  -7.799597e-04  0 
 -4.913376e-04  -5.410171e-04  0 
 -7.825281e-04  -4.742924e-04  0 
 -7.480862e-04  4.903854e-04  0 
 -1.159058e-03  2.558203e-04  0 
VECTORS displacement_ITER24 FLOAT
 1.794226e-04  -1.342124e-03  0 
 -7.407692e-04  -1.337953e-03  0 
 -1.158194e-03  -7.176751e-04  0 
 -7.623917e-04  -5.317163e-04  0 
 -2.766580e-04  -1.429230e-03  0 
 -5.767344e-04  -1.417150e-03  0 
 -7.302583e-04  -1.364502e-03  0 
 -7.219066e-06  -1.219405e-03  0 
 -1.619342e-04  -1.032051e-03  0 
 -3.277151e-04  -9.803197e-04  0 
 -9.748533e-04  -1.060277e-03  0 
 -1.043739e-03  -8.551212e-04  0 
 -4.936449e-04  -6.686704e-04  0 
 -7.757659e-04  -6.430765e-04  0 
 -5.946303e-04  -3.036891e-04  0 
 -3.222418e-04  -8.623502e-04  0 
 -2.010171e-04  -1.161711e-03  0 
 -5.272139e-04  -1.024819e-03  0 
 -7.690900e-04  -8.571049e-04  0 
 -3.463441e-04  -8.435734e-04  0 
 -7.639533e-04  -1.267710e-03  0 
 -2.854457e-04  -1.177964e-03  0 
 -4.171023e-04  -8.142769e-04  0 
 -8.053187e-04  -9.960516e-04  0 
 -2.675855e-04  -1.042273e-03  0 
 -6.612255e-04  -1.267437e-03  0 
 -4.840888e-04  -1.111426e-03  0 
 -6.817099e-04  -1.124203e-03  0 
 -3.932437e-04  -9.440186e-04  0 
 -5.717423e-04  -9.356547e-04  0 
 -8.858632e-04  1.288221e-05  0 
 -9.606982e-04  -2.713234e-04  0 
VECTORS displacement_ITER25 FLOAT
 -2.877785e-04  -9.035805e-04  0 
 -4.548266e-04  -8.961523e-04  0 
 -8.745959e-04  -1.032591e-03  0 
 -2.764507e-04  -8.132719e-04  0 
 -5.574073e-04  -9.901161e-04  0 
 -6.704290e-04  -9.773334e-04  0 
 -6.349932e-04  -9.231054e-04  0 
 -4.738762e-04  -9.669323e-04  0 
 -6.278325e-04  -9.657791e-04  0 
 -7.923232e-04  -1.098898e-03  0 
 -6.912479e-04  -9.958113e-04  0 
 -7.602982e-04  -9.796898e-04  0 
 -5.860617e-04  -9.787648e-04  0 
 -6.802130e-04  -9.551309e-04  0 
 -9.230566e-04  -3.795552e-04  0 
 -6.448969e-04  -7.541759e-04  0 
 -4.262896e-04  -8.710280e-04  0 
 -6.204938e-04  -9.602875e-04  0 
 -6.781039e-04  -1.022433e-03  0 
 -6.667309e-04  -9.599786e-04  0 
 -6.272697e-04  -1.019661e-03  0 
 -5.624561e-04  -8.847752e-04  0 
 -5.966486e-04  -9.728895e-04  0 
 -6.737051e-04  -1.019225e-03  0 
 -5.844895e-04  -8.902396e-04  0 
 -6.676097e-04  -9.785761e-04  0 
 -6.235337e-04  -9.160918e-04  0 
 -6.384203e-04  -1.010321e-03  0 
 -6.115499e-04  -9.206116e-04  0 
 -6.173843e-04  -1.000875e-03  0 
 -6.364763e-04  -1.299094e-04  0 
 -8.510668e-04  -5.484536e-04  0 
VECTORS displacement_ITER26 FLOAT
 -4.072726e-04  -7.705864e-04  0 
 -4.934620e-04  -7.630204e-04  0 
 -9.146816e-04  -9.829739e-04  0 
 -5.633997e-04  -2.790924e-04  0 
 -6.572505e-04  -8.581507e-04  0 
 -7.506002e-04  -8.460602e-04  0 
 -6.950943e-04  -7.909977e-04  0 
 -5.926266e-04  -8.539792e-04  0 
 -7.455047e-04  -8.719647e-04  0 
 -9.090506e-04  -1.022879e-03  0 
 -7.319617e-04  -9.029165e-04  0 
 -8.006687e-04  -9.077872e-04  0 
 -6.661450e-04  -9.244368e-04  0 
 -7.405644e-04  -9.025861e-04  0 
 -1.097776e-03  -4.170019e-04  0 
 -7.817288e-04  -6.260427e-04  0 
 -5.587545e-04  -6.593717e-04  0 
 -7.007850e-04  -8.676479e-04  0 
 -7.395464e-04  -9.541675e-04  0 
 -7.694262e-04  -8.845472e-04  0 