# vtk DataFile Version 3.1
this is an vtk file created by FEMAC
ASCII
DATASET UNSTRUCTURED_GRID
POINTS 31 FLOAT
5.000000 1.000000 0.000000
4.500000 1.000000 0.000000
4.750000 1.000000 0.000000
5.000000 0.500000 0.000000
5.000000 0.750000 0.000000
5.000000 1.250000 0.000000
5.000000 1.500000 0.000000
5.250000 1.000000 0.000000
5.500000 1.000000 0.000000
5.750000 1.000000 0.000000
4.787596 0.660045 0.000000
4.638134 0.825570 0.000000
4.502535 0.594871 0.000000
4.746177 0.372389 0.000000
4.835146 0.847123 0.000000
4.810944 1.214033 0.000000
4.789602 1.627399 0.000000
4.391405 1.203564 0.000000
4.627460 1.174425 0.000000
4.628796 1.390176 0.000000
4.544074 1.619719 0.000000
4.845868 1.396322 0.000000
5.214699 0.660302 0.000000
5.371728 0.825957 0.000000
5.167285 0.847252 0.000000
5.528256 1.447447 0.000000
5.195000 1.255000 0.000000
5.378219 1.169567 0.000000
5.565925 1.242859 0.000000
5.323754 1.413341 0.000000
5.717271 1.453287 0.000000
CELLS 42 168 
3 10  3  4
3 12 10 11
3 10 13  3
3 10 12 13
3 11  2  1
3 2 14  0
3 4 14 10
3 14  4  0
3 11 14  2
3 11 10 14
3 2 18  1
3 19 18 15
3 15 18  2
3 19 16 20
3 0 15  2
3 0  5 15
3 1 18 17
3 17 18 19
3 19 21 16
3 21 19 15
3 21  6 16
3 21  5  6
3 15  5 21
3 3 22  4
3 7 23  8
3 4 24  0
3 24  7  0
3 24  4 22
3 24 23  7
3 22 23 24
3 26  6  5
3 27  7  8
3 9 28  8
3 27 29 26
3 27 26  7
3 29  6 26
3 0 26  5
3 0  7 26
3 27  8 28
3 25 29 28
3 30 25 28
3 27 28 29
CELL_TYPES 42
5 5 5 5 5 5 5 5 5 5 5 5 5 5 5 5 5 5 5 5 5 5 5 5 5 5 5 5 5 5 5 5 5 5 5 5 5 5 5 5 5 5 
POINT_DATA 31
VECTORS displacement_ITER1 FLOAT
 -1.236978e-01  -3.275621e-01  0 
 -1.236108e-01  -2.822367e-01  0 
 -1.236573e-01  -3.049258e-01  0 
 -1.688781e-01  -3.275427e-01  0 
 -1.462760e-01  -3.275467e-01  0 
 -1.028987e-01  -3.275741e-01  0 
 -8.209257e-02  -3.275731e-01  0 
 -1.237230e-01  -3.484139e-01  0 
 -1.237409e-01  -3.692630e-01  0 
 -1.237483e-01  -3.901217e-01  0 
 -1.544122e-01  -3.083406e-01  0 
 -1.394489e-01  -2.948164e-01  0 
 -1.602949e-01  -2.825713e-01  0 
 -1.804068e-01  -3.046016e-01  0 
 -1.375040e-01  -3.126501e-01  0 
 -1.063147e-01  -3.076883e-01  0 
 -7.640031e-02  -2.985849e-01  0 
 -9.941735e-02  -2.621047e-01  0 
 -1.076705e-01  -2.903306e-01  0 
 -9.001225e-02  -2.834062e-01  0 
 -7.908537e-02  -2.677750e-01  0 
 -9.110856e-02  -3.084326e-01  0 
 -1.544806e-01  -3.494846e-01  0 
 -1.391655e-01  -3.624887e-01  0 
 -1.368508e-01  -3.430157e-01  0 
 -8.645090e-02  -3.716015e-01  0 
 -1.024800e-01  -3.438118e-01  0 
 -1.096020e-01  -3.590945e-01  0 
 -1.034966e-01  -3.747497e-01  0 
 -8.929035e-02  -3.545485e-01  0 
 -8.596916e-02  -3.873561e-01  0 
VECTORS displacement_ITER2 FLOAT
 -8.090804e-02  -2.647334e-01  0 
 -8.080678e-02  -2.314554e-01  0 
 -8.085858e-02  -2.481230e-01  0 
 -1.140186e-01  -2.647113e-01  0 
 -9.744761e-02  -2.647160e-01  0 
 -6.488904e-02  -2.647445e-01  0 
 -4.885620e-02  -2.647363e-01  0 
 -8.094110e-02  -2.808158e-01  0 
 -8.096481e-02  -2.968968e-01  0 
 -8.097715e-02  -3.129922e-01  0 
 -1.034141e-01  -2.506331e-01  0 
 -9.244368e-02  -2.407129e-01  0 
 -1.077250e-01  -2.317366e-01  0 
 -1.224717e-01  -2.478901e-01  0 
 -9.102058e-02  -2.537980e-01  0 
 -6.773018e-02  -2.494900e-01  0 
 -4.545449e-02  -2.416368e-01  0 
 -6.163584e-02  -2.149921e-01  0 
 -6.855345e-02  -2.366560e-01  0 
 -5.523949e-02  -2.302443e-01  0 
 -4.813039e-02  -2.177596e-01  0 
 -5.603115e-02  -2.496587e-01  0 
 -1.033385e-01  -2.818599e-01  0 
 -9.193420e-02  -2.919952e-01  0 
 -9.037746e-02  -2.767940e-01  0 
 -5.221562e-02  -2.986890e-01  0 
 -6.456779e-02  -2.772578e-01  0 
 -7.006080e-02  -2.890470e-01  0 
 -6.535690e-02  -3.011225e-01  0 
 -5.440254e-02  -2.855359e-01  0 
 -5.184711e-02  -3.108379e-01  0 
VECTORS displacement_ITER3 FLOAT
 -7.424459e-02  -1.825587e-01  0 
 -7.412228e-02  -1.606736e-01  0 
 -7.418154e-02  -1.716557e-01  0 
 -9.598163e-02  -1.825829e-01  0 
 -8.508881e-02  -1.825727e-01  0 
 -6.084058e-02  -1.825467e-01  0 
 -4.741065e-02  -1.825182e-01  0 
 -7.428797e-02  -1.960126e-01  0 
 -7.433460e-02  -2.094892e-01  0 
 -7.435720e-02  -2.229962e-01  0 
 -8.900618e-02  -1.733219e-01  0 
 -8.179351e-02  -1.667956e-01  0 
 -9.183560e-02  -1.609001e-01  0 
 -1.015365e-01  -1.715249e-01  0 
 -8.086441e-02  -1.753981e-01  0 
 -6.345744e-02  -1.717606e-01  0 
 -3.953852e-02  -1.631461e-01  0 
 -5.742022e-02  -1.461613e-01  0 
 -6.390535e-02  -1.626465e-01  0 
 -5.199450e-02  -1.555898e-01  0 
 -3.822130e-02  -1.405526e-01  0 
 -5.316787e-02  -1.715685e-01  0 
 -9.017998e-02  -1.969241e-01  0 
 -8.262247e-02  -2.053556e-01  0 
 -8.082519e-02  -1.923698e-01  0 
 -5.023016e-02  -2.109805e-01  0 
 -6.057997e-02  -1.930199e-01  0 
 -6.518330e-02  -2.028947e-01  0 
 -6.124231e-02  -2.130166e-01  0 
 -5.206433e-02  -1.999511e-01  0 
 -4.992085e-02  -2.211673e-01  0 
VECTORS displacement_ITER4 FLOAT
 -7.301515e-02  -1.414192e-01  0 
 -7.288217e-02  -1.307752e-01  0 
 -7.294414e-02  -1.361357e-01  0 
 -8.349552e-02  -1.414396e-01  0 
 -7.822706e-02  -1.414307e-01  0 
 -6.362431e-02  -1.414042e-01  0 
 -5.419827e-02  -1.413641e-01  0 
 -7.306613e-02  -1.508700e-01  0 
 -7.311672e-02  -1.603439e-01  0 
 -7.314514e-02  -1.698533e-01  0 
 -8.012142e-02  -1.369573e-01  0 
 -7.663225e-02  -1.337924e-01  0 
 -8.148654e-02  -1.309424e-01  0 
 -8.618425e-02  -1.360868e-01  0 
 -7.618986e-02  -1.379666e-01  0 
 -6.573111e-02  -1.349730e-01  0 
 -4.624568e-02  -1.263413e-01  0 
 -6.006611e-02  -1.192743e-01  0 
 -6.565099e-02  -1.299016e-01  0 
 -5.697204e-02  -1.228602e-01  0 
 -4.313608e-02  -1.081557e-01  0 
 -5.824606e-02  -1.341808e-01  0 
 -8.091578e-02  -1.512960e-01  0 
 -7.695220e-02  -1.574036e-01  0 
 -7.609936e-02  -1.482869e-01  0 
 -5.618730e-02  -1.613731e-01  0 
 -6.344711e-02  -1.487527e-01  0 
 -6.668321e-02  -1.556961e-01  0 
 -6.392016e-02  -1.628127e-01  0 
 -5.747128e-02  -1.536191e-01  0 
 -5.597473e-02  -1.685303e-01  0 
VECTORS displacement_ITER5 FLOAT
 -6.340965e-02  -1.078013e-01  0 
 -6.327465e-02  -1.044263e-01  0 
 -6.333444e-02  -1.061517e-01  0 
 -6.665500e-02  -1.078503e-01  0 
 -6.499804e-02  -1.078320e-01  0 
 -5.699464e-02  -1.077717e-01  0 
 -5.053795e-02  -1.077173e-01  0 
 -6.346387e-02  -1.142659e-01  0 
 -6.352240e-02  -1.207643e-01  0 
 -6.355477e-02  -1.273036e-01  0 
 -6.558911e-02  -1.064332e-01  0 
 -6.449056e-02  -1.054299e-01  0 
 -6.601430e-02  -1.045348e-01  0 
 -6.750167e-02  -1.061624e-01  0 
 -6.436259e-02  -1.067499e-01  0 
 -5.848566e-02  -1.043461e-01  0 
 -3.935920e-02  -9.378266e-02  0 
 -5.173940e-02  -9.353713e-02  0 
 -5.771211e-02  -1.015111e-01  0 
 -5.045646e-02  -9.362841e-02  0 
 -3.234517e-02  -7.526290e-02  0 
 -5.280471e-02  -1.029858e-01  0 
 -6.676284e-02  -1.152389e-01  0 
 -6.523531e-02  -1.194091e-01  0 
 -6.442737e-02  -1.126216e-01  0 
 -5.191127e-02  -1.214555e-01  0 
 -5.688260e-02  -1.127999e-01  0 
 -5.910199e-02  -1.175610e-01  0 
 -5.721046e-02  -1.224444e-01  0 
 -5.279006e-02  -1.161323e-01  0 
 -5.176758e-02  -1.263662e-01  0 
VECTORS displacement_ITER6 FLOAT
 -5.403210e-02  -7.964206e-02  0 
 -5.390163e-02  -7.900616e-02  0 
 -5.395488e-02  -7.935474e-02  0 
 -5.456596e-02  -7.970114e-02  0 
 -5.425861e-02  -7.967916e-02  0 
 -4.994456e-02  -7.960595e-02  0 
 -4.581206e-02  -7.954030e-02  0 
 -5.409002e-02  -8.378039e-02  0 
 -5.414856e-02  -8.795236e-02  0 
 -5.418319e-02  -9.216663e-02  0 
 -5.436284e-02  -7.943116e-02  0 
 -5.415842e-02  -7.923871e-02  0 
 -5.444049e-02  -7.906591e-02  0 
 -5.472890e-02  -7.937931e-02  0 
 -5.414941e-02  -7.949008e-02  0 
 -5.057691e-02  -7.812329e-02  0 
 -3.652010e-02  -6.924979e-02  0 
 -4.473018e-02  -7.110487e-02  0 
 -4.971315e-02  -7.658076e-02  0 
 -4.416610e-02  -7.064843e-02  0 
 -3.023540e-02  -5.777166e-02  0 
 -4.677885e-02  -7.672658e-02  0 
 -5.501857e-02  -8.532648e-02  0 
 -5.433295e-02  -8.806563e-02  0 
 -5.396097e-02  -8.313200e-02  0 
 -4.670521e-02  -8.837687e-02  0 
 -4.988287e-02  -8.282164e-02  0 
 -5.130836e-02  -8.588126e-02  0 
 -5.010072e-02  -8.901880e-02  0 
 -4.726497e-02  -8.495519e-02  0 
 -4.661732e-02  -9.152882e-02  0 
VECTORS displacement_ITER7 FLOAT
 -3.857035e-02  -5.384504e-02  0 
 -3.844584e-02  -4.721315e-02  0 
 -3.849159e-02  -5.055603e-02  0 
 -4.515099e-02  -5.393488e-02  0 
 -4.181191e-02  -5.390215e-02  0 
 -3.367239e-02  -5.379663e-02  0 
 -2.873067e-02  -5.372048e-02  0 
 -3.863185e-02  -5.878548e-02  0 
 -3.869495e-02  -6.376614e-02  0 
 -3.873129e-02  -6.879294e-02  0 
 -4.300306e-02  -5.108756e-02  0 
 -4.079215e-02  -4.908870e-02  0 
 -4.387513e-02  -4.726248e-02  0 
 -4.686549e-02  -5.053270e-02  0 
 -4.052520e-02  -5.171714e-02  0 
 -3.363756e-02  -5.159413e-02  0 
 -2.326565e-02  -4.762492e-02  0 
 -3.052557e-02  -4.316462e-02  0 
 -3.362326e-02  -4.866744e-02  0 
 -2.768445e-02  -4.706491e-02  0 
 -2.140898e-02  -4.634449e-02  0 
 -2.978118e-02  -5.115959e-02  0 
 -4.352728e-02  -6.138436e-02  0 
 -4.088723e-02  -6.450677e-02  0 
 -4.015069e-02  -5.832402e-02  0 
 -2.979534e-02  -6.428133e-02  0 
 -3.359913e-02  -5.764309e-02  0 
 -3.530274e-02  -6.129745e-02  0 
 -3.385724e-02  -6.504455e-02  0 
 -3.046751e-02  -6.019238e-02  0 
 -2.968754e-02  -6.805026e-02  0 
VECTORS displacement_ITER8 FLOAT
 -3.527430e-02  -4.130623e-02  0 
 -3.514921e-02  -3.100267e-02  0 
 -3.519195e-02  -3.618093e-02  0 
 -4.555848e-02  -4.142102e-02  0 
 -4.036006e-02  -4.137924e-02  0 
 -3.081151e-02  -4.124842e-02  0 
 -2.630536e-02  -4.116386e-02  0 
 -3.533966e-02  -4.580759e-02  0 
 -3.540577e-02  -5.035258e-02  0 
 -3.544290e-02  -5.494699e-02  0 
 -4.221721e-02  -3.699256e-02  0 
 -3.877596e-02  -3.388638e-02  0 
 -4.357732e-02  -3.104455e-02  0 
 -4.822608e-02  -3.612894e-02  0 
 -3.835175e-02  -3.797126e-02  0 
 -3.013809e-02  -3.878500e-02  0 
 -2.449435e-02  -3.841017e-02  0 
 -2.920934e-02  -3.069724e-02  0 
 -3.059342e-02  -3.523521e-02  0 
 -2.544763e-02  -3.691460e-02  0 
 -2.611510e-02  -4.498013e-02  0 
 -2.708005e-02  -3.898179e-02  0 
 -4.243926e-02  -4.955888e-02  0 
 -3.859243e-02  -5.231567e-02  0 
 -3.772286e-02  -4.596204e-02  0 
 -2.727935e-02  -5.081780e-02  0 
 -3.075053e-02  -4.475537e-02  0 
 -3.230708e-02  -4.809353e-02  0 
 -3.098882e-02  -5.151624e-02  0 
 -2.789337e-02  -4.708050e-02  0 
 -2.718131e-02  -5.426171e-02  0 
VECTORS displacement_ITER9 FLOAT
 -2.357574e-02  -3.042563e-02  0 
 -2.344123e-02  -2.009914e-02  0 
 -2.348777e-02  -2.529468e-02  0 
 -3.389321e-02  -3.056373e-02  0 
 -2.867316e-02  -3.051365e-02  0 
 -2.007329e-02  -3.035829e-02  0 
 -1.652513e-02  -3.026591e-02  0 
 -2.364390e-02  -3.396191e-02  0 
 -2.371296e-02  -3.754584e-02  0 
 -2.375013e-02  -4.118315e-02  0 
 -3.053550e-02  -2.611387e-02  0 
 -2.707973e-02  -2.299533e-02  0 
 -3.190235e-02  -2.014048e-02  0 
 -3.657389e-02  -2.524860e-02  0 
 -2.665580e-02  -2.709215e-02  0 
 -1.925091e-02  -2.791324e-02  0 
 -1.473172e-02  -2.719529e-02  0 
 -1.844080e-02  -2.055356e-02  0 
 -1.953915e-02  -2.443010e-02  0 
 -1.527670e-02  -2.609187e-02  0 
 -1.626989e-02  -3.326477e-02  0 
 -1.692688e-02  -2.810247e-02  0 
 -3.058102e-02  -3.839684e-02  0 
 -2.672531e-02  -4.049781e-02  0 
 -2.588993e-02  -3.468005e-02  0 
 -1.729848e-02  -3.790407e-02  0 
 -2.003460e-02  -3.311686e-02  0 
 -2.126388e-02  -3.575301e-02  0 
 -2.022598e-02  -3.845730e-02  0 
 -1.778309e-02  -3.494844e-02  0 
 -1.722190e-02  -4.062606e-02  0 
VECTORS displacement_ITER10 FLOAT
 -1.622990e-02  -2.326004e-02  0 
 -1.608221e-02  -1.633107e-02  0 
 -1.613620e-02  -1.983578e-02  0 
 -2.314170e-02  -2.341381e-02  0 
 -1.962270e-02  -2.335817e-02  0 
 -1.392839e-02  -2.318608e-02  0 
 -1.157714e-02  -2.308817e-02  0 
 -1.629929e-02  -2.559223e-02  0 
 -1.636971e-02  -2.797487e-02  0 
 -1.640610e-02  -3.041411e-02  0 
 -2.087136e-02  -2.040561e-02  0 
 -1.854074e-02  -1.830143e-02  0 
 -2.179408e-02  -1.637235e-02  0 
 -2.495440e-02  -1.982527e-02  0 
 -1.826468e-02  -2.105694e-02  0 
 -1.351703e-02  -2.101951e-02  0 
 -7.296778e-03  -1.744587e-02  0 
 -1.122156e-02  -1.465515e-02  0 
 -1.319533e-02  -1.829708e-02  0 
 -9.915792e-03  -1.721156e-02  0 
 -6.341058e-03  -1.647632e-02  0 
 -1.170195e-02  -2.077310e-02  0 
 -2.079496e-02  -3.002071e-02  0 
 -1.804032e-02  -3.137918e-02  0 
 -1.747062e-02  -2.667919e-02  0 
 -1.209848e-02  -2.820146e-02  0 
 -1.391545e-02  -2.500936e-02  0 
 -1.473449e-02  -2.676671e-02  0 
 -1.404714e-02  -2.857211e-02  0 
 -1.242143e-02  -2.622432e-02  0 
 -1.204836e-02  -3.002011e-02  0 
VECTORS displacement_ITER11 FLOAT
 -1.598807e-02  -2.104857e-02  0 
 -1.583261e-02  -1.836338e-02  0 
 -1.589120e-02  -1.975054e-02  0 
 -1.864902e-02  -2.120970e-02  0 
 -1.725533e-02  -2.115180e-02  0 
 -1.470126e-02  -2.097091e-02  0 
 -1.336193e-02  -2.086960e-02  0 
 -1.605792e-02  -2.236415e-02  0 
 -1.612884e-02  -2.373217e-02  0 
 -1.616428e-02  -2.515907e-02  0 
 -1.773860e-02  -2.000512e-02  0 
 -1.681399e-02  -1.916920e-02  0 
 -1.810641e-02  -1.839588e-02  0 
 -1.937625e-02  -1.977906e-02  0 
 -1.672170e-02  -2.025039e-02  0 
 -1.468292e-02  -1.946301e-02  0 
 -7.720575e-03  -1.371955e-02  0 
 -1.104706e-02  -1.457494e-02  0 
 -1.386035e-02  -1.785503e-02  0 
 -1.146413e-02  -1.440562e-02  0 
 -4.940060e-03  -7.737863e-03  0 
 -1.330585e-02  -1.871086e-02  0 
 -1.760870e-02  -2.641206e-02  0 
 -1.623673e-02  -2.716937e-02  0 
 -1.597277e-02  -2.361326e-02  0 
 -1.366848e-02  -2.384885e-02  0 
 -1.470943e-02  -2.200363e-02  0 
 -1.518164e-02  -2.301840e-02  0 
 -1.479042e-02  -2.406460e-02  0 
 -1.385558e-02  -2.269766e-02  0 
 -1.364012e-02  -2.490559e-02  0 
VECTORS displacement_ITER12 FLOAT
 -1.457291e-02  -1.523607e-02  0 
 -1.441609e-02  -1.375406e-02  0 
 -1.447485e-02  -1.454002e-02  0 
 -1.603611e-02  -1.540317e-02  0 
 -1.524050e-02  -1.534381e-02  0 
 -1.322916e-02  -1.515521e-02  0 
 -1.183235e-02  -1.505104e-02  0 
 -1.464366e-02  -1.660659e-02  0 
 -1.471568e-02  -1.803189e-02  0 
 -1.475074e-02  -1.951844e-02  0 
 -1.550797e-02  -1.470612e-02  0 
 -1.497867e-02  -1.422757e-02  0 
 -1.572009e-02  -1.377876e-02  0 
 -1.645793e-02  -1.457985e-02  0 
 -1.493852e-02  -1.483626e-02  0 
 -1.336882e-02  -1.386401e-02  0 
 -7.154157e-03  -8.293173e-03  0 
 -9.762362e-03  -9.634904e-03  0 
 -1.257868e-02  -1.269423e-02  0 
 -1.037111e-02  -9.061854e-03  0 
 -4.794132e-03  -2.498458e-03  0 
 -1.198184e-02  -1.298198e-02  0 
 -1.532909e-02  -2.027141e-02  0 
 -1.434496e-02  -2.108722e-02  0 
 -1.422146e-02  -1.771410e-02  0 
 -1.214798e-02  -1.815838e-02  0 
 -1.323704e-02  -1.623216e-02  0 
 -1.372903e-02  -1.728978e-02  0 
 -1.332009e-02  -1.838124e-02  0 
 -1.234541e-02  -1.695642e-02  0 
 -1.211646e-02  -1.926347e-02  0 
VECTORS displacement_ITER13 FLOAT
 -1.043473e-02  -1.204036e-02  0 
 -1.027899e-02  -1.099751e-02  0 
 -1.033545e-02  -1.156124e-02  0 
 -1.147113e-02  -1.221245e-02  0 
 -1.088647e-02  -1.215185e-02  0 
 -9.404300e-03  -1.195807e-02  0 
 -8.321874e-03  -1.185251e-02  0 
 -1.050777e-02  -1.309832e-02  0 
 -1.058205e-02  -1.421300e-02  0 
 -1.061760e-02  -1.539119e-02  0 
 -1.107746e-02  -1.169529e-02  0 
 -1.068757e-02  -1.134436e-02  0 
 -1.123582e-02  -1.100716e-02  0 
 -1.178607e-02  -1.160311e-02  0 
 -1.066684e-02  -1.178449e-02  0 
 -9.360224e-03  -1.117767e-02  0 
 -7.528078e-03  -8.228427e-03  0 
 -7.121519e-03  -8.845120e-03  0 
 -8.890654e-03  -1.061368e-02  0 
 -7.580469e-03  -8.775927e-03  0 
 -7.715991e-03  -7.964140e-03  0 
 -8.552695e-03  -1.043802e-02  0 
 -1.077454e-02  -1.668495e-02  0 
 -9.930785e-03  -1.731872e-02  0 
 -9.919933e-03  -1.429621e-02  0 
 -8.566755e-03  -1.430571e-02  0 
 -9.418930e-03  -1.279013e-02  0 
 -9.805158e-03  -1.362084e-02  0 
 -9.487105e-03  -1.448069e-02  0 
 -8.724124e-03  -1.335434e-02  0 
 -8.540939e-03  -1.518016e-02  0 
VECTORS displacement_ITER14 FLOAT
 -6.049056e-03  -7.869411e-03  0 
 -5.891141e-03  -5.626444e-03  0 
 -5.946675e-03  -6.788028e-03  0 
 -8.296262e-03  -8.047562e-03  0 
 -7.102492e-03  -7.985242e-03  0 
 -4.959796e-03  -7.785886e-03  0 
 -3.818750e-03  -7.678977e-03  0 
 -6.125517e-03  -8.988642e-03  0 
 -6.203361e-03  -1.016671e-02  0 
 -6.240642e-03  -1.141084e-02  0 
 -7.512035e-03  -7.013748e-03  0 
 -6.718591e-03  -6.300272e-03  0 
 -7.830872e-03  -5.628967e-03  0 
 -8.923767e-03  -6.819268e-03  0 
 -6.647095e-03  -7.218100e-03  0 
 -4.717919e-03  -7.031127e-03  0 
 -6.606591e-03  -6.779929e-03  0 
 -4.097174e-03  -5.750676e-03  0 
 -4.668247e-03  -6.543080e-03  0 
 -3.933024e-03  -6.788248e-03  0 
 -9.346210e-03  -1.175672e-02  0 
 -4.255979e-03  -6.590099e-03  0 
 -6.978080e-03  -1.250279e-02  0 
 -5.720513e-03  -1.321169e-02  0 
 -5.816033e-03  -1.020418e-02  0 
 -4.072869e-03  -1.026499e-02  0 
 -4.973838e-03  -8.663922e-03  0 
 -5.382092e-03  -9.541375e-03  0 
 -5.045958e-03  -1.044944e-02  0 
 -4.239961e-03  -9.260141e-03  0 
 -4.044857e-03  -1.118896e-02  0 
VECTORS displacement_ITER15 FLOAT
 -4.647888e-03  -8.696222e-03  0 
 -4.482515e-03  -6.741981e-03  0 
 -4.541266e-03  -7.760551e-03  0 
 -6.605264e-03  -8.880089e-03  0 
 -5.553928e-03  -8.815942e-03  0 
 -4.002523e-03  -8.611008e-03  0 
 -3.302582e-03  -8.502370e-03  0 
 -4.726488e-03  -9.373023e-03  0 
 -4.807018e-03  -1.011028e-02  0 
 -4.846441e-03  -1.091540e-02  0 
 -5.911824e-03  -7.967014e-03  0 
 -5.212040e-03  -7.338371e-03  0 
 -6.194512e-03  -6.743025e-03  0 
 -7.161652e-03  -7.795669e-03  0 
 -5.154123e-03  -8.143499e-03  0 
 -3.762178e-03  -7.899841e-03  0 
 -5.477536e-03  -7.135421e-03  0 
 -3.188589e-03  -7.089326e-03  0 
 -3.627405e-03  -7.490369e-03  0 
 -3.255073e-03  -7.507285e-03  0 
 -7.524380e-03  -1.079416e-02  0 
 -3.588631e-03  -7.448315e-03  0 
 -5.103948e-03  -1.267820e-02  0 
 -3.906662e-03  -1.318648e-02  0 
 -4.241460e-03  -1.071211e-02  0 
 -3.466813e-03  -1.015474e-02  0 
 -4.026169e-03  -9.144102e-03  0 
 -4.283712e-03  -9.697915e-03  0 
 -4.077540e-03  -1.027416e-02  0 
 -3.572315e-03  -9.512655e-03  0 
 -3.449882e-03  -1.074249e-02  0 
VECTORS displacement_ITER16 FLOAT
 -2.595678e-03  -1.068064e-02  0 
 -2.424501e-03  -9.712336e-03  0 
 -2.486386e-03  -1.023987e-02  0 
 -3.564304e-03  -1.086863e-02  0 
 -3.006206e-03  -1.080310e-02  0 
 -2.740632e-03  -1.059386e-02  0 
 -2.828246e-03  -1.048384e-02  0 
 -2.674751e-03  -1.056695e-02  0 
 -2.756028e-03  -1.051427e-02  0 
 -2.796759e-03  -1.052982e-02  0 
 -3.186410e-03  -1.037412e-02  0 
 -2.812633e-03  -1.003969e-02  0 
 -3.341084e-03  -9.711781e-03  0 
 -3.869986e-03  -1.028454e-02  0 
 -2.797903e-03  -1.045605e-02  0 
 -2.490355e-03  -1.007563e-02  0 
 -3.134502e-03  -7.845199e-03  0 
 -1.368459e-03  -9.570594e-03  0 
 -2.072128e-03  -9.804434e-03  0 
 -2.058009e-03  -8.901394e-03  0 
 -3.766281e-03  -8.927056e-03  0 
 -2.706601e-03  -9.490738e-03  0 
 -2.134010e-03  -1.374326e-02  0 
 -1.234273e-03  -1.382219e-02  0 
 -1.812098e-03  -1.214716e-02  0 
 -2.831865e-03  -1.046591e-02  0 
 -2.780717e-03  -1.051171e-02  0 
 -2.768219e-03  -1.048609e-02  0 
 -2.794152e-03  -1.046810e-02  0 
 -2.827441e-03  -1.047301e-02  0 
 -2.834578e-03  -1.045285e-02  0 
VECTORS displacement_ITER17 FLOAT
 -2.948842e-03  -1.005718e-02  0 
 -2.776929e-03  -8.919849e-03  0 
 -2.839063e-03  -9.531910e-03  0 
 -4.091084e-03  -1.024848e-02  0 
 -3.445296e-03  -1.018194e-02  0 
 -3.548543e-03  -9.968976e-03  0 
 -4.089886e-03  -9.857902e-03  0 
 -3.027641e-03  -9.487388e-03  0 
 -3.108496e-03  -8.978523e-03  0 
 -3.149611e-03  -8.537519e-03  0 
 -3.656806e-03  -9.679610e-03  0 
 -3.224759e-03  -9.293284e-03  0 
 -3.835130e-03  -8.916934e-03  0 
 -4.442319e-03  -9.575279e-03  0 
 -3.202898e-03  -9.777476e-03  0 
 -3.157142e-03  -9.503201e-03  0 
 -3.356650e-03  -6.671783e-03  0 
 -1.891500e-03  -8.907612e-03  0 
 -2.621753e-03  -9.101417e-03  0 
 -2.711915e-03  -8.084257e-03  0 
 -3.415345e-03  -7.196426e-03  0 
 -3.634746e-03  -8.916811e-03  0 
 -2.413207e-03  -1.265326e-02  0 
 -1.446085e-03  -1.248268e-02  0 
 -2.148963e-03  -1.124148e-02  0 
 -4.002174e-03  -8.876432e-03  0 
 -3.598328e-03  -9.532516e-03  0 
 -3.430133e-03  -9.172617e-03  0 
 -3.590021e-03  -8.811510e-03  0 
 -3.933900e-03  -9.258588e-03  0 
 -4.016415e-03  -8.516456e-03  0 
VECTORS displacement_ITER18 FLOAT
 -2.120523e-03  -9.399547e-03  0 
 -1.951439e-03  -7.593462e-03  0 
 -2.011804e-03  -8.538435e-03  0 
 -3.940288e-03  -9.592956e-03  0 
 -2.955384e-03  -9.525999e-03  0 
 -2.698491e-03  -9.310499e-03  0 
 -3.218684e-03  -9.199121e-03  0 
 -2.198678e-03  -8.849636e-03  0 
 -2.278646e-03  -8.360676e-03  0 
 -2.319414e-03  -7.939027e-03  0 
 -3.288696e-03  -8.736504e-03  0 
 -2.631940e-03  -8.148443e-03  0 
 -3.556147e-03  -7.587231e-03  0 
 -4.465011e-03  -8.575658e-03  0 
 -2.581093e-03  -8.898175e-03  0 
 -2.223486e-03  -8.781337e-03  0 
 -2.417908e-03  -6.404206e-03  0 
 -1.198367e-03  -8.000194e-03  0 
 -1.751767e-03  -8.193658e-03  0 
 -1.797058e-03  -7.578205e-03  0 
 -2.584052e-03  -7.407846e-03  0 
 -2.703544e-03  -8.341984e-03  0 
 -1.927340e-03  -1.185841e-02  0 
 -7.325946e-04  -1.173606e-02  0 
 -1.500825e-03  -1.057190e-02  0 
 -3.136531e-03  -8.260655e-03  0 
 -2.748119e-03  -8.890506e-03  0 
 -2.586994e-03  -8.545479e-03  0 
 -2.740967e-03  -8.199379e-03  0 
 -3.070793e-03  -8.626587e-03  0 
 -3.150255e-03  -7.916115e-03  0 
VECTORS displacement_ITER19 FLOAT
 -1.668070e-03  -8.807026e-03  0 
 -1.499899e-03  -6.929811e-03  0 
 -1.559725e-03  -7.910097e-03  0 
 -3.559894e-03  -9.000416e-03  0 
 -2.539349e-03  -8.933668e-03  0 
 -1.892743e-03  -8.717992e-03  0 
 -2.060445e-03  -8.606863e-03  0 
 -1.746221e-03  -8.610017e-03  0 
 -1.826214e-03  -8.474741e-03  0 
 -1.866735e-03  -8.406768e-03  0 
 -2.885577e-03  -8.113595e-03  0 
 -2.204912e-03  -7.504010e-03  0 
 -3.162574e-03  -6.923561e-03  0 
 -4.103088e-03  -7.946518e-03  0 
 -2.150920e-03  -8.281948e-03  0 
 -1.512570e-03  -8.095331e-03  0 
 -1.988854e-03  -6.150092e-03  0 
 -5.993912e-04  -7.204218e-03  0 
 -1.134207e-03  -7.529621e-03  0 
 -1.063572e-03  -7.026394e-03  0 
 -2.532419e-03  -7.474093e-03  0 
 -1.785939e-03  -7.669439e-03  0 
 -1.441921e-03  -1.119009e-02  0 
 -1.969028e-04  -1.135405e-02  0 
 -1.080350e-03  -1.010342e-02  0 
 -2.049943e-03  -8.415718e-03  0 
 -1.935131e-03  -8.573049e-03  0 
 -1.894799e-03  -8.487274e-03  0 
 -1.945022e-03  -8.406970e-03  0 
 -2.033628e-03  -8.491308e-03  0 
 -2.054524e-03  -8.340096e-03  0 
VECTORS displacement_ITER20 FLOAT
 -1.595338e-03  -7.686987e-03  0 
 -1.427400e-03  -5.624332e-03  0 
 -1.487196e-03  -6.698201e-03  0 
 -3.671187e-03  -7.880405e-03  0 
 -2.559218e-03  -7.813894e-03  0 
 -1.275946e-03  -7.597364e-03  0 
 -9.001645e-04  -7.485969e-03  0 
 -1.673796e-03  -8.033257e-03  0 
 -1.754493e-03  -8.442616e-03  0 
 -1.795058e-03  -8.919937e-03  0 
 -2.938491e-03  -6.915589e-03  0 
 -2.197059e-03  -6.250884e-03  0 
 -3.239417e-03  -5.621371e-03  0 
 -4.261308e-03  -6.733145e-03  0 
 -2.134877e-03  -7.101326e-03  0 
 -9.932673e-04  -6.901483e-03  0 
 -1.735572e-03  -5.680936e-03  0 
 -3.430720e-04  -5.863654e-03  0 
 -7.848958e-04  -6.339388e-03  0 
 -4.403031e-04  -6.158605e-03  0 
 -3.008704e-03  -8.077075e-03  0 
 -9.380326e-04  -6.527463e-03  0 
 -1.428754e-03  -1.012723e-02  0 
 -8.867484e-05  -1.070534e-02  0 
 -1.081709e-03  -9.221264e-03  0 
 -1.001750e-03  -8.445707e-03  0 
 -1.307519e-03  -7.876127e-03  0 
 -1.453373e-03  -8.189462e-03  0 
 -1.343924e-03  -8.518385e-03  0 
 -1.060906e-03  -8.074630e-03  0 
 -9.927788e-04  -8.783464e-03  0 
VECTORS displacement_ITER21 FLOAT
 -2.275621e-03  -7.418963e-03  0 
 -2.106658e-03  -6.003117e-03  0 
 -2.167877e-03  -6.755418e-03  0 
 -3.697261e-03  -7.609595e-03  0 
 -2.913775e-03  -7.544255e-03  0 
 -1.869028e-03  -7.329776e-03  0 
 -1.405468e-03  -7.218869e-03  0 
 -2.353301e-03  -7.851969e-03  0 
 -2.433178e-03  -8.347576e-03  0 
 -2.473261e-03  -8.910656e-03  0 
 -3.175304e-03  -6.923932e-03  0 
 -2.651070e-03  -6.454649e-03  0 
 -3.389909e-03  -6.005584e-03  0 
 -4.119127e-03  -6.796298e-03  0 
 -2.616653e-03  -7.047530e-03  0 
 -1.744777e-03  -6.666424e-03  0 
 -1.216966e-03  -4.958598e-03  0 
 -7.146951e-04  -5.356514e-03  0 
 -1.465950e-03  -6.161330e-03  0 
 -9.464301e-04  -5.341796e-03  0 
 -1.719729e-03  -5.427798e-03  0 
 -1.480981e-03  -6.267236e-03  0 
 -1.592055e-03  -9.524388e-03  0 
 -4.299238e-04  -1.023628e-02  0 
 -1.575172e-03  -8.888055e-03  0 
 -1.526178e-03  -8.360890e-03  0 
 -1.898634e-03  -7.676543e-03  0 
 -2.073979e-03  -8.053001e-03  0 
 -1.939276e-03  -8.446615e-03  0 
 -1.597157e-03  -7.919336e-03  0 
 -1.514985e-03  -8.764260e-03  0 
VECTORS displacement_ITER22 FLOAT
 -2.920339e-03  -7.427958e-03  0 
 -2.754193e-03  -6.315086e-03  0 
 -2.814235e-03  -6.915241e-03  0 
 -4.038773e-03  -7.615219e-03  0 
 -3.407573e-03  -7.551069e-03  0 
 -2.864837e-03  -7.340282e-03  0 
 -2.753010e-03  -7.231008e-03  0 
 -2.996963e-03  -7.510031e-03  0 
 -3.075306e-03  -7.653020e-03  0 
 -3.114719e-03  -7.862123e-03  0 
 -3.614651e-03  -7.059828e-03  0 
 -3.191405e-03  -6.682080e-03  0 
 -3.789396e-03  -6.316191e-03  0 
 -4.382618e-03  -6.957086e-03  0 
 -3.169826e-03  -7.154914e-03  0 
 -2.643194e-03  -6.882331e-03  0 
 -2.459622e-03  -5.099618e-03  0 
 -1.689605e-03  -5.911868e-03  0 
 -2.335528e-03  -6.484257e-03  0 
 -2.015077e-03  -5.799150e-03  0 
 -2.620179e-03  -5.621155e-03  0 
 -2.633650e-03  -6.466614e-03  0 
 -1.934796e-03  -9.153492e-03  0 
 -8.438210e-04  -9.695280e-03  0 
 -2.088479e-03  -8.663553e-03  0 
 -2.800531e-03  -7.626325e-03  0 
 -2.900949e-03  -7.412977e-03  0 
 -2.955928e-03  -7.531110e-03  0 
 -2.924745e-03  -7.659519e-03  0 
 -2.822845e-03  -7.474134e-03  0 
 -2.797826e-03  -7.762486e-03  0 
VECTORS displacement_ITER23 FLOAT
 -2.320296e-03  -6.894240e-03  0 
 -2.156299e-03  -4.991250e-03  0 
 -2.215028e-03  -5.985254e-03  0 
 -4.229778e-03  -7.079637e-03  0 
 -3.203008e-03  -7.015930e-03  0 
 -2.041355e-03  -6.808150e-03  0 
 -1.706322e-03  -6.700543e-03  0 
 -2.396666e-03  -7.200853e-03  0 
 -2.474605e-03  -7.567176e-03  0 
 -2.514068e-03  -7.998828e-03  0 
 -3.552507e-03  -6.188676e-03  0 
 -2.867487e-03  -5.574904e-03  0 
 -3.830452e-03  -4.994206e-03  0 
 -4.775795e-03  -6.019805e-03  0 
 -2.811954e-03  -6.359261e-03  0 
 -1.843701e-03  -6.150575e-03  0 
 -1.346001e-03  -4.833273e-03  0 
 -1.210867e-03  -4.744168e-03  0 
 -1.656180e-03  -5.495277e-03  0 
 -1.171028e-03  -5.126679e-03  0 
 -1.776485e-03  -5.582600e-03  0 
 -1.674285e-03  -5.906990e-03  0 
 -1.790955e-03  -8.782247e-03  0 
 -4.063182e-04  -9.510846e-03  0 
 -1.689702e-03  -8.295734e-03  0 
 -1.801542e-03  -7.564398e-03  0 
 -2.072484e-03  -7.055008e-03  0 
 -2.203957e-03  -7.336638e-03  0 
 -2.107785e-03  -7.632034e-03  0 
 -1.853523e-03  -7.230621e-03  0 
 -1.794116e-03  -7.868341e-03  0 
VECTORS displacement_ITER24 FLOAT
 -2.807068e-03  -7.665691e-03  0 
 -2.645355e-03  -5.977384e-03  0 
 -2.702567e-03  -6.862586e-03  0 
 -4.500779e-03  -7.848556e-03  0 
 -3.581917e-03  -7.785139e-03  0 
 -2.695141e-03  -7.582113e-03  0 
 -2.527260e-03  -7.477176e-03  0 
 -2.883336e-03  -7.807507e-03  0 
 -2.961224e-03  -8.007570e-03  0 
 -3.001089e-03  -8.272175e-03  0 
 -3.892715e-03  -7.049247e-03  0 
 -3.279365e-03  -6.500098e-03  0 
 -4.142755e-03  -5.977290e-03  0 
 -4.992497e-03  -6.897198e-03  0 
 -3.233293e-03  -7.199812e-03  0 
 -2.508093e-03  -6.986795e-03  0 
 -1.840047e-03  -5.458509e-03  0 
 -1.944011e-03  -5.754348e-03  0 
 -2.311209e-03  -6.378402e-03  0 
 -1.925204e-03  -5.949626e-03  0 
 -1.822125e-03  -5.498711e-03  0 
 -2.435505e-03  -6.743316e-03  0 
 -2.020213e-03  -9.382910e-03  0 
 -6.538004e-04  -1.006958e-02  0 
 -2.050293e-03  -8.983810e-03  0 
 -2.587897e-03  -7.983740e-03  0 
 -2.728709e-03  -7.698671e-03  0 
 -2.803458e-03  -7.857987e-03  0 
 -2.756783e-03  -8.027316e-03  0 
 -2.615901e-03  -7.788034e-03  0 
 -2.585221e-03  -8.159717e-03  0 
VECTORS displacement_ITER25 FLOAT
 -2.802847e-03  -7.352487e-03  0 
 -2.643443e-03  -5.245527e-03  0 
 -2.699246e-03  -6.339218e-03  0 
 -4.916407e-03  -7.534550e-03  0 
 -3.787613e-03  -7.471070e-03  0 
 -2.601113e-03  -7.270167e-03  0 
 -2.344144e-03  -7.166962e-03  0 
 -2.879066e-03  -7.584955e-03  0 
 -2.956802e-03  -7.874664e-03  0 
 -2.996604e-03  -8.228675e-03  0 
 -4.173887e-03  -6.556885e-03  0 
 -3.421790e-03  -5.882600e-03  0 
 -4.478695e-03  -5.245670e-03  0 
 -5.515537e-03  -6.369628e-03  0 
 -3.357683e-03  -6.747468e-03  0 
 -2.413603e-03  -6.616392e-03  0 
 -1.910749e-03  -5.600724e-03  0 
 -2.217255e-03  -5.319338e-03  0 
 -2.330295e-03  -5.911808e-03  0 
 -1.932927e-03  -5.867783e-03  0 
 -2.101193e-03  -6.032019e-03  0 
 -2.307996e-03  -6.499167e-03  0 
 -2.277379e-03  -9.226379e-03  0 
 -7.460238e-04  -9.994288e-03  0 
 -2.143936e-03  -8.771222e-03  0 
 -2.423002e-03  -7.860462e-03  0 
 -2.632369e-03  -7.456291e-03  0 
 -2.738174e-03  -7.681468e-03  0 
 -2.665502e-03  -7.917989e-03  0 
 -2.462998e-03  -7.591374e-03  0 
 -2.418464e-03  -8.104605e-03  0 
VECTORS displacement_ITER26 FLOAT
 -3.183968e-03  -7.604451e-03  0 
 -3.026517e-03  -5.892647e-03  0 
 -3.081618e-03  -6.788557e-03  0 
 -4.902164e-03  -7.785176e-03  0 
 -3.971855e-03  -7.722086e-03  0 
 -2.998644e-03  -7.522775e-03  0 
 -2.758460e-03  -7.420640e-03  0 
 -3.259411e-03  -7.820103e-03  0 
 -3.336168e-03  -8.092043e-03  0 
 -3.375321e-03  -8.427829e-03  0 
 -4.286753e-03  -6.976138e-03  0 
 -3.666130e-03  -6.420475e-03  0 
 -4.539395e-03  -5.892148e-03  0 
 -5.399503e-03  -6.821977e-03  0 
 -3.618859e-03  -7.128982e-03  0 
 -2.880249e-03  -6.934081e-03  0 
 -1.975154e-03  -5.772769e-03  0 
 -2.603503e-03  -5.600573e-03  0 
 -2.786733e-03  -6.296346e-03  0 
 -2.363446e-03  -6.044087e-03  0 
 -1.752242e-03  -5.333714e-03  0 
 -2.728186e-03  -6.810052e-03  0 
 -2.437273e-03  -9.435068e-03  0 
 -1.017188e-03  -1.021517e-02  0 
 -2.419239e-03  -8.993939e-03  0 
 -2.833458e-03  -8.076859e-03  0 
 -3.029859e-03  -7.695678e-03  0 
 -3.129899e-03  -7.908159e-03  0 
 -3.062328e-03  -8.131652e-03  0 
 -2.871294e-03  -7.821589e-03  0 
 -2.829181e-03  -8.308935e-03  0 
VECTORS displacement_ITER27 FLOAT
 -3.001610e-03  -7.465597e-03  0 
 -2.845548e-03  -5.801722e-03  0 
 -2.900066e-03  -6.673449e-03  0 
 -4.672648e-03  -7.645952e-03  0 