# vtk DataFile Version 3.1
this is an vtk file created by FEMAC
ASCII
DATASET UNSTRUCTURED_GRID
POINTS 20 FLOAT
5.000000 0.000000 0.000000
6.000000 0.000000 0.000000
6.000000 1.000000 0.000000
5.333333 0.000000 0.000000
5.666667 0.000000 0.000000
5.000000 0.333333 0.000000
5.000000 0.666667 0.000000
5.333333 1.000000 0.000000
5.666667 1.000000 0.000000
6.000000 0.333333 0.000000
6.000000 0.666667 0.000000
4.790750 0.217904 0.000000
5.793598 0.775322 0.000000
5.204422 0.488340 0.000000
5.750065 0.478822 0.000000
5.462917 0.696366 0.000000
5.200855 0.783178 0.000000
5.747759 0.209278 0.000000
5.475976 0.291353 0.000000
5.202746 0.222605 0.000000
CELLS 24 96 
3 5 11  0
3 12 10  2
3 15 12  8
3 7 15  8
3 14 10 12
3 10 14  9
3 14 12 15
3 13  6  5
3 17  4  1
3 17  9 14
3 9 17  1
3 7 16 15
3 13 16  6
3 15 16 13
3 18  3  4
3 14 18 17
3 14 15 18
3 17 18  4
3 18 15 13
3 3 19  0
3 19  5  0
3 19  3 18
3 19 13  5
3 18 13 19
CELL_TYPES 24
5 5 5 5 5 5 5 5 5 5 5 5 5 5 5 5 5 5 5 5 5 5 5 5 
POINT_DATA 20
VECTORS displacement_ITER1 FLOAT
 -1.032362e-01  -4.041038e-01  0 
 -8.778141e-02  -5.541107e-01  0 
 -9.303697e-02  -4.112752e-01  0 
 -9.463800e-02  -4.582659e-01  0 
 -8.911783e-02  -5.083808e-01  0 
 -4.263695e-02  -4.041206e-01  0 
 1.854818e-02  -4.007844e-01  0 
 5.728956e-02  -4.446188e-01  0 
 4.401173e-02  -4.728022e-01  0 
 -4.324002e-02  -5.466241e-01  0 
 -8.179929e-03  -5.116024e-01  0 
 -6.362842e-02  -3.660664e-01  0 
 -5.078379e-04  -5.131035e-01  0 
 -1.623200e-02  -4.426842e-01  0 
 -2.010362e-02  -5.155749e-01  0 
 8.714628e-03  -4.757866e-01  0 
 2.864930e-02  -4.324826e-01  0 
 -5.805756e-02  -5.193068e-01  0 
 -4.630548e-02  -4.834523e-01  0 
 -6.078899e-02  -4.411486e-01  0 
VECTORS displacement_ITER2 FLOAT
 -4.763755e-02  -1.211110e-01  0 
 -6.182829e-02  -1.657878e-01  0 
 -5.722659e-03  -1.604095e-01  0 
 -5.493009e-02  -1.375440e-01  0 
 -6.037423e-02  -1.505715e-01  0 
 -3.922892e-02  -1.210727e-01  0 
 -3.082527e-02  -1.000201e-01  0 
 2.867602e-03  -1.020955e-01  0 
 -6.914779e-03  -1.141315e-01  0 
 -4.734698e-02  -1.640552e-01  0 
 -3.458269e-02  -1.597935e-01  0 
 -4.212633e-02  -1.158145e-01  0 
 -2.656326e-02  -1.439012e-01  0 
 -3.824395e-02  -1.174147e-01  0 
 -3.992117e-02  -1.506568e-01  0 
 -2.467889e-02  -1.277407e-01  0 
 -1.581084e-02  -1.101311e-01  0 
 -5.211287e-02  -1.528855e-01  0 
 -4.748228e-02  -1.367394e-01  0 
 -4.417780e-02  -1.266015e-01  0 
VECTORS displacement_ITER3 FLOAT
 -2.987497e-02  -3.408069e-02  0 
 -3.253342e-02  -6.907859e-02  0 
 -8.867163e-03  -3.926724e-02  0 
 -3.104857e-02  -4.716440e-02  0 
 -3.180589e-02  -5.860397e-02  0 
 -2.003447e-02  -3.405080e-02  0 
 -1.101681e-02  -3.318440e-02  0 
 3.118168e-03  -3.313714e-02  0 
 8.700711e-04  -2.662365e-02  0 
 -2.299461e-02  -6.522922e-02  0 
 -1.681661e-02  -5.317607e-02  0 
 -2.343239e-02  -2.788826e-02  0 
 -9.932969e-03  -4.198805e-02  0 
 -1.401916e-02  -3.892474e-02  0 
 -1.633627e-02  -5.528504e-02  0 
 -5.590444e-03  -4.216464e-02  0 
 -3.031510e-03  -3.758790e-02  0 
 -2.526365e-02  -5.978469e-02  0 
 -2.150461e-02  -5.030801e-02  0 
 -2.322488e-02  -4.118308e-02  0 
VECTORS displacement_ITER4 FLOAT
 -1.774051e-02  -1.976591e-02  0 
 -1.904843e-02  -4.727441e-02  0 
 -3.232568e-03  -1.764007e-02  0 
 -1.745535e-02  -3.340032e-02  0 
 -1.836585e-02  -4.096326e-02  0 
 -5.352752e-03  -1.974971e-02  0 
 -5.162661e-03  -1.955478e-02  0 
 1.475250e-04  -1.418275e-02  0 
 -1.603800e-03  -1.454550e-02  0 
 -1.410158e-02  -4.289193e-02  0 
 -1.137016e-02  -3.285048e-02  0 
 -9.635174e-03  -1.197368e-02  0 
 -5.758361e-03  -2.470927e-02  0 
 -4.668917e-03  -2.338457e-02  0 
 -9.605001e-03  -3.590203e-02  0 
 -2.195721e-03  -2.472567e-02  0 
 -3.071038e-04  -2.214563e-02  0 
 -1.425618e-02  -4.097987e-02  0 
 -1.083204e-02  -3.432718e-02  0 
 -1.019059e-02  -2.787969e-02  0 
VECTORS displacement_ITER5 FLOAT
 -1.194683e-02  -1.464327e-02  0 
 -1.867400e-02  -4.205019e-02  0 
 -1.004541e-03  -1.407919e-02  0 
 -1.649135e-02  -2.663586e-02  0 
 -1.793622e-02  -3.526652e-02  0 
 -9.324618e-03  -1.464484e-02  0 
 -5.956342e-03  -1.497753e-02  0 
 -1.638398e-03  -1.587169e-02  0 
 -3.564353e-03  -1.618172e-02  0 
 -1.333923e-02  -3.821689e-02  0 
 -1.031015e-02  -2.943507e-02  0 
 -1.023348e-02  -1.299387e-02  0 
 -5.138686e-03  -2.225175e-02  0 
 -6.742125e-03  -1.954297e-02  0 
 -9.056071e-03  -3.128015e-02  0 
 -3.780387e-03  -2.267925e-02  0 
 -3.382263e-03  -1.817569e-02  0 
 -1.386089e-02  -3.559301e-02  0 
 -1.066540e-02  -2.836107e-02  0 
 -1.074433e-02  -2.028131e-02  0 
VECTORS displacement_ITER6 FLOAT
 -9.092911e-03  -1.334674e-02  0 
 -1.625116e-02  -3.917197e-02  0 
 -3.390521e-03  -1.534305e-02  0 
 -1.390606e-02  -2.537736e-02  0 
 -1.552377e-02  -3.325653e-02  0 
 -6.832054e-03  -1.330876e-02  0 
 -4.661377e-03  -1.295639e-02  0 
 -2.885824e-03  -1.356880e-02  0 
 -3.819481e-03  -1.497793e-02  0 
 -1.191901e-02  -3.527187e-02  0 
 -9.591815e-03  -2.718799e-02  0 
 -7.603149e-03  -1.190475e-02  0 
 -5.465974e-03  -2.095583e-02  0 
 -5.275405e-03  -1.786751e-02  0 
 -8.195193e-03  -2.905979e-02  0 
 -3.661735e-03  -2.050843e-02  0 
 -3.025658e-03  -1.611439e-02  0 
 -1.199144e-02  -3.336743e-02  0 
 -8.870693e-03  -2.659959e-02  0 
 -8.362283e-03  -1.892582e-02  0 
VECTORS displacement_ITER7 FLOAT
 -8.627625e-03  -1.269600e-02  0 
 -1.587450e-02  -3.767848e-02  0 
 -3.895332e-03  -1.422443e-02  0 
 -1.352237e-02  -2.438938e-02  0 
 -1.514230e-02  -3.204584e-02  0 
 -6.879023e-03  -1.267461e-02  0 
 -4.918450e-03  -1.272646e-02  0 
 -3.319321e-03  -1.214821e-02  0 
 -3.594158e-03  -1.342131e-02  0 
 -1.185048e-02  -3.376953e-02  0 
 -9.628852e-03  -2.585857e-02  0 
 -7.476858e-03  -1.158187e-02  0 
 -5.605050e-03  -1.976147e-02  0 
 -5.249062e-03  -1.718356e-02  0 
 -8.254750e-03  -2.773050e-02  0 
 -3.854413e-03  -1.920053e-02  0 
 -3.401472e-03  -1.577659e-02  0 
 -1.179078e-02  -3.207945e-02  0 
 -8.710774e-03  -2.553474e-02  0 
 -8.210815e-03  -1.806034e-02  0 
VECTORS displacement_ITER8 FLOAT
 -8.415244e-03  -1.398572e-02  0 
 -1.580046e-02  -3.846900e-02  0 
 -4.109965e-03  -1.483098e-02  0 
 -1.338223e-02  -2.551219e-02  0 
 -1.506343e-02  -3.296515e-02  0 
 -6.871102e-03  -1.396307e-02  0 
 -5.369713e-03  -1.392124e-02  0 
 -4.071455e-03  -1.407011e-02  0 
 -4.116698e-03  -1.442070e-02  0 
 -1.188506e-02  -3.459893e-02  0 
 -9.889391e-03  -2.665258e-02  0 
 -7.397318e-03  -1.300094e-02  0 
 -5.909212e-03  -2.069696e-02  0 
 -5.461553e-03  -1.818319e-02  0 
 -8.361490e-03  -2.869704e-02  0 
 -4.038239e-03  -2.030871e-02  0 
 -3.770425e-03  -1.676595e-02  0 
 -1.180936e-02  -3.297736e-02  0 
 -8.792284e-03  -2.650637e-02  0 
 -8.168989e-03  -1.919718e-02  0 
VECTORS displacement_ITER9 FLOAT
 -8.407975e-03  -1.382933e-02  0 
 -1.580068e-02  -3.849524e-02  0 
 -3.961024e-03  -1.489203e-02  0 
 -1.338032e-02  -2.541780e-02  0 
 -1.506361e-02  -3.293078e-02  0 
 -6.809798e-03  -1.380821e-02  0 
 -5.243081e-03  -1.375245e-02  0 
 -3.869133e-03  -1.395252e-02  0 
 -3.937937e-03  -1.439114e-02  0 
 -1.182485e-02  -3.462596e-02  0 
 -9.769398e-03  -2.668167e-02  0 
 -7.357737e-03  -1.281113e-02  0 
 -5.777584e-03  -2.069374e-02  0 
 -5.375641e-03  -1.806060e-02  0 
 -8.275985e-03  -2.868010e-02  0 
 -3.916138e-03  -2.023992e-02  0 
 -3.617711e-03  -1.662452e-02  0 
 -1.177197e-02  -3.295807e-02  0 
 -8.740310e-03  -2.643603e-02  0 
 -8.126567e-03  -1.907633e-02  0 
CELL_DATA 24
TENSORS element_stresses FLOAT
 -7.927800e-03  -4.192114e-03  0 
 -4.192114e-03  6.101001e-02  0 
 0  0  0 

 4.875620e-04  5.410153e-03  0 
 5.410153e-03  3.551518e-02  0 
 0  0  0 

 5.798076e-04  -2.075722e-03  0 
 -2.075722e-03  2.420831e-02  0 
 0  0  0 

 6.414584e-03  -9.608641e-04  0 
 -9.608641e-04  2.206999e-02  0 
 0  0  0 

 -5.656958e-03  -2.546008e-03  0 
 -2.546008e-03  2.725973e-02  0 
 0  0  0 

 -3.801984e-03  -2.884654e-03  0 
 -2.884654e-03  2.269228e-02  0 
 0  0  0 

 5.694554e-04  1.155229e-03  0 
 1.155229e-03  2.829365e-02  0 
 0  0  0 

 3.848196e-03  -1.248360e-02  0 
 -1.248360e-02  1.321722e-03  0 
 0  0  0 

 -3.404379e-04  -8.305716e-05  0 
 -8.305716e-05  6.235968e-03  0 
 0  0  0 

 -1.997581e-03  -1.117137e-03  0 
 -1.117137e-03  1.539570e-02  0 
 0  0  0 

 -2.849889e-03  -3.028412e-04  0 
 -3.028412e-04  1.075287e-02  0 
 0  0  0 

 4.298124e-03  -6.510988e-03  0 
 -6.510988e-03  1.854888e-02  0 
 0  0  0 

 6.594327e-03  -8.451710e-03  0 
 -8.451710e-03  6.643293e-03  0 
 0  0  0 

 2.479711e-03  -4.814580e-03  0 
 -4.814580e-03  5.466669e-03  0 
 0  0  0 

 -3.063594e-03  -3.185278e-03  0 
 -3.185278e-03  6.620855e-03  0 
 0  0  0 

 -2.646982e-03  -4.710045e-03  0 
 -4.710045e-03  1.524087e-02  0 
 0  0  0 

 -2.088476e-03  -5.031605e-03  0 
 -5.031605e-03  1.408361e-02  0 
 0  0  0 

 -3.595092e-03  -2.744731e-03  0 
 -2.744731e-03  7.129260e-03  0 
 0  0  0 

 6.089961e-04  -6.485002e-03  0 
 -6.485002e-03  1.482936e-02  0 
 0  0  0 

 -1.372431e-02  -1.531922e-02  0 
 -1.531922e-02  3.975805e-03  0 
 0  0  0 

 -4.238638e-03  -1.627281e-02  0 
 -1.627281e-02  -1.208203e-03  0 
 0  0  0 

 -4.192955e-03  -7.923067e-03  0 
 -7.923067e-03  9.796524e-03  0 
 0  0  0 

 3.886852e-04  -1.035140e-02  0 
 -1.035140e-02  4.089135e-03  0 
 0  0  0 

 -4.021010e-03  -1.350714e-02  0 
 -1.350714e-02  2.792263e-03  0 
 0  0  0 

TENSORS element_stresses FLOAT
 -7.927800e-03  -4.192114e-03  0 
 -4.192114e-03  6.101001e-02  0 
 0  0  0 

 4.875620e-04  5.410153e-03  0 
 5.410153e-03  3.551518e-02  0 
 0  0  0 

 5.798076e-04  -2.075722e-03  0 
 -2.075722e-03  2.420831e-02  0 
 0  0  0 

 6.414584e-03  -9.608641e-04  0 
 -9.608641e-04  2.206999e-02  0 
 0  0  0 

 -5.656958e-03  -2.546008e-03  0 
 -2.546008e-03  2.725973e-02  0 
 0  0  0 

 -3.801984e-03  -2.884654e-03  0 
 -2.884654e-03  2.269228e-02  0 
 0  0  0 

 5.694554e-04  1.155229e-03  0 
 1.155229e-03  2.829365e-02  0 
 0  0  0 

 3.848196e-03  -1.248360e-02  0 
 -1.248360e-02  1.321722e-03  0 
 0  0  0 

 -3.404379e-04  -8.305716e-05  0 
 -8.305716e-05  6.235968e-03  0 
 0  0  0 

 -1.997581e-03  -1.117137e-03  0 
 -1.117137e-03  1.539570e-02  0 
 0  0  0 

 -2.849889e-03  -3.028412e-04  0 
 -3.028412e-04  1.075287e-02  0 
 0  0  0 

 4.298124e-03  -6.510988e-03  0 
 -6.510988e-03  1.854888e-02  0 
 0  0  0 

 6.594327e-03  -8.451710e-03  0 
 -8.451710e-03  6.643293e-03  0 
 0  0  0 

 2.479711e-03  -4.814580e-03  0 
 -4.814580e-03  5.466669e-03  0 
 0  0  0 

 -3.063594e-03  -3.185278e-03  0 
 -3.185278e-03  6.620855e-03  0 
 0  0  0 

 -2.646982e-03  -4.710045e-03  0 
 -4.710045e-03  1.524087e-02  0 
 0  0  0 

 -2.088476e-03  -5.031605e-03  0 
 -5.031605e-03  1.408361e-02  0 
 0  0  0 

 -3.595092e-03  -2.744731e-03  0 
 -2.744731e-03  7.129260e-03  0 
 0  0  0 

 6.089961e-04  -6.485002e-03  0 
 -6.485002e-03  1.482936e-02  0 
 0  0  0 

 -1.372431e-02  -1.531922e-02  0 
 -1.531922e-02  3.975805e-03  0 
 0  0  0 

 -4.238638e-03  -1.627281e-02  0 
 -1.627281e-02  -1.208203e-03  0 
 0  0  0 

 -4.192955e-03  -7.923067e-03  0 
 -7.923067e-03  9.796524e-03  0 
 0  0  0 

 3.886852e-04  -1.035140e-02  0 
 -1.035140e-02  4.089135e-03  0 
 0  0  0 

 -4.021010e-03  -1.350714e-02  0 
 -1.350714e-02  2.792263e-03  0 
 0  0  0 

