# vtk DataFile Version 3.1
this is an vtk file created by FEMAC
ASCII
DATASET UNSTRUCTURED_GRID
POINTS 31 FLOAT
5.000000 1.000000 0.000000
4.500000 1.000000 0.000000
4.750000 1.000000 0.000000
5.000000 0.500000 0.000000
5.000000 0.750000 0.000000
5.000000 1.250000 0.000000
5.000000 1.500000 0.000000
5.250000 1.000000 0.000000
5.500000 1.000000 0.000000
5.750000 1.000000 0.000000
4.787596 0.660045 0.000000
4.638134 0.825570 0.000000
4.502535 0.594871 0.000000
4.746177 0.372389 0.000000
4.835146 0.847123 0.000000
4.810944 1.214033 0.000000
4.789602 1.627399 0.000000
4.391405 1.203564 0.000000
4.627460 1.174425 0.000000
4.628796 1.390176 0.000000
4.544074 1.619719 0.000000
4.845868 1.396322 0.000000
5.214699 0.660302 0.000000
5.371728 0.825957 0.000000
5.167285 0.847252 0.000000
5.528256 1.447447 0.000000
5.195000 1.255000 0.000000
5.378219 1.169567 0.000000
5.565925 1.242859 0.000000
5.323754 1.413341 0.000000
5.717271 1.453287 0.000000
CELLS 42 168 
3 10  3  4
3 12 10 11
3 10 13  3
3 10 12 13
3 11  2  1
3 2 14  0
3 4 14 10
3 14  4  0
3 11 14  2
3 11 10 14
3 2 18  1
3 19 18 15
3 15 18  2
3 19 16 20
3 0 15  2
3 0  5 15
3 1 18 17
3 17 18 19
3 19 21 16
3 21 19 15
3 21  6 16
3 21  5  6
3 15  5 21
3 3 22  4
3 7 23  8
3 4 24  0
3 24  7  0
3 24  4 22
3 24 23  7
3 22 23 24
3 26  6  5
3 27  7  8
3 9 28  8
3 27 29 26
3 27 26  7
3 29  6 26
3 0 26  5
3 0  7 26
3 27  8 28
3 25 29 28
3 30 25 28
3 27 28 29
CELL_TYPES 42
5 5 5 5 5 5 5 5 5 5 5 5 5 5 5 5 5 5 5 5 5 5 5 5 5 5 5 5 5 5 5 5 5 5 5 5 5 5 5 5 5 5 
POINT_DATA 31
VECTORS displacement_ITER1 FLOAT
 -1.188023e-01  -3.255551e-01  0 
 -1.187125e-01  -2.800632e-01  0 
 -1.187610e-01  -3.028376e-01  0 
 -1.641454e-01  -3.255356e-01  0 
 -1.414615e-01  -3.255396e-01  0 
 -9.826861e-02  -3.255667e-01  0 
 -7.772868e-02  -3.255649e-01  0 
 -1.188280e-01  -3.461416e-01  0 
 -1.188468e-01  -3.667260e-01  0 
 -1.188538e-01  -3.873204e-01  0 
 -1.496273e-01  -3.062639e-01  0 
 -1.346105e-01  -2.926918e-01  0 
 -1.555312e-01  -2.804033e-01  0 
 -1.757144e-01  -3.025107e-01  0 
 -1.326581e-01  -3.105897e-01  0 
 -1.015780e-01  -3.057138e-01  0 
 -7.227539e-02  -2.967351e-01  0 
 -9.473645e-02  -2.602896e-01  0 
 -1.028988e-01  -2.883505e-01  0 
 -8.547273e-02  -2.816148e-01  0 
 -7.506511e-02  -2.663395e-01  0 
 -8.660204e-02  -3.064724e-01  0 
 -1.496942e-01  -3.476288e-01  0 
 -1.343076e-01  -3.604493e-01  0 
 -1.319455e-01  -3.409727e-01  0 
 -8.203123e-02  -3.690341e-01  0 
 -9.785547e-02  -3.415974e-01  0 
 -1.048866e-01  -3.566859e-01  0 
 -9.885843e-02  -3.721425e-01  0 
 -8.483336e-02  -3.521984e-01  0 
 -8.155802e-02  -3.845890e-01  0 
VECTORS displacement_ITER2 FLOAT
 -7.386936e-02  -1.686982e-01  0 
 -7.373401e-02  -1.567530e-01  0 
 -7.381196e-02  -1.627819e-01  0 
 -8.559985e-02  -1.686776e-01  0 
 -7.972380e-02  -1.686895e-01  0 
 -6.596451e-02  -1.686888e-01  0 
 -5.802918e-02  -1.686646e-01  0 
 -7.390185e-02  -1.766458e-01  0 
 -7.393964e-02  -1.846087e-01  0 
 -7.396571e-02  -1.926172e-01  0 
 -8.184512e-02  -1.636893e-01  0 
 -7.795497e-02  -1.601582e-01  0 
 -8.335981e-02  -1.570051e-01  0 
 -8.857848e-02  -1.627316e-01  0 
 -7.744790e-02  -1.648204e-01  0 
 -6.803727e-02  -1.604530e-01  0 
 -3.892037e-02  -1.411496e-01  0 
 -5.590451e-02  -1.387019e-01  0 
 -6.593445e-02  -1.535096e-01  0 
 -5.637638e-02  -1.393460e-01  0 
 -2.849331e-02  -1.049981e-01  0 
 -6.060230e-02  -1.585301e-01  0 
 -8.163769e-02  -1.786832e-01  0 
 -7.727463e-02  -1.836137e-01  0 
 -7.676845e-02  -1.752879e-01  0 
 -5.973269e-02  -1.854536e-01  0 
 -6.581289e-02  -1.748747e-01  0 
 -6.853041e-02  -1.807048e-01  0 
 -6.620561e-02  -1.866808e-01  0 
 -6.079001e-02  -1.789644e-01  0 
 -5.957040e-02  -1.914344e-01  0 
VECTORS displacement_ITER3 FLOAT
 -4.776856e-02  -5.829524e-02  0 
 -4.763126e-02  -5.440686e-02  0 
 -4.769150e-02  -5.639741e-02  0 
 -5.156636e-02  -5.838436e-02  0 
 -4.962694e-02  -5.835048e-02  0 
 -4.059957e-02  -5.824538e-02  0 
 -3.339296e-02  -5.816768e-02  0 
 -4.782218e-02  -6.548674e-02  0 
 -4.790430e-02  -7.274931e-02  0 
 -4.796492e-02  -8.009143e-02  0 
 -5.031431e-02  -5.671799e-02  0 
 -4.903472e-02  -5.555474e-02  0 
 -5.081459e-02  -5.450526e-02  0 
 -5.255460e-02  -5.639728e-02  0 
 -4.888101e-02  -5.708387e-02  0 
 -4.132255e-02  -5.566918e-02  0 
 -3.003700e-02  -5.026727e-02  0 
 -3.502069e-02  -4.530820e-02  0 
 -4.091506e-02  -5.335760e-02  0 
 -3.348197e-02  -4.864218e-02  0 
 -3.018507e-02  -4.862528e-02  0 
 -3.570217e-02  -5.426152e-02  0 
 -5.217603e-02  -6.681909e-02  0 
 -5.049685e-02  -7.140323e-02  0 
 -4.916978e-02  -6.360586e-02  0 
 -3.493691e-02  -7.350652e-02  0 
 -4.048019e-02  -6.386003e-02  0 
 -4.294635e-02  -6.916216e-02  0 
 -4.081692e-02  -7.461839e-02  0 
 -3.590247e-02  -6.759547e-02  0 
 -3.477452e-02  -7.893983e-02  0 
VECTORS displacement_ITER4 FLOAT
 -1.950953e-02  -2.401028e-02  0 
 -1.933251e-02  -2.159511e-02  0 
 -1.940708e-02  -2.287095e-02  0 
 -2.185923e-02  -2.417564e-02  0 
 -2.062772e-02  -2.412051e-02  0 
 -1.669526e-02  -2.393748e-02  0 
 -1.385535e-02  -2.383667e-02  0 
 -1.957542e-02  -2.682566e-02  0 
 -1.971428e-02  -2.978316e-02  0 
 -1.983750e-02  -3.292388e-02  0 
 -2.105493e-02  -2.310657e-02  0 
 -2.023282e-02  -2.236029e-02  0 
 -2.138120e-02  -2.168570e-02  0 
 -2.250365e-02  -2.290742e-02  0 
 -2.015104e-02  -2.332059e-02  0 
 -1.624814e-02  -2.322954e-02  0 
 -1.527371e-02  -2.108114e-02  0 
 -1.350228e-02  -2.034192e-02  0 
 -1.593031e-02  -2.249119e-02  0 
 -1.295247e-02  -2.175476e-02  0 
 -1.807778e-02  -2.920133e-02  0 
 -1.448367e-02  -2.218612e-02  0 
 -2.187607e-02  -2.904405e-02  0 
 -2.008314e-02  -3.174315e-02  0 
 -1.978492e-02  -2.690116e-02  0 
 -1.447455e-02  -3.001988e-02  0 
 -1.667029e-02  -2.615235e-02  0 
 -1.763890e-02  -2.826058e-02  0 
 -1.675583e-02  -3.047133e-02  0 
 -1.483009e-02  -2.767837e-02  0 
 -1.439523e-02  -3.210105e-02  0 
VECTORS displacement_ITER5 FLOAT
 -5.496369e-03  -1.331681e-02  0 
 -5.353748e-03  -1.109043e-02  0 
 -5.391430e-03  -1.223488e-02  0 
 -7.777139e-03  -1.355789e-02  0 
 -6.549295e-03  -1.345444e-02  0 
 -5.707967e-03  -1.323090e-02  0 
 -5.863598e-03  -1.311566e-02  0 
 -5.574893e-03  -1.313837e-02  0 
 -5.656773e-03  -1.302106e-02  0 
 -5.700476e-03  -1.296896e-02  0 
 -6.958069e-03  -1.246580e-02  0 
 -6.152874e-03  -1.174272e-02  0 
 -7.296524e-03  -1.102722e-02  0 
 -8.441852e-03  -1.224380e-02  0 
 -6.086131e-03  -1.266912e-02  0 
 -5.630249e-03  -1.207449e-02  0 
 -6.166149e-03  -9.559896e-03  0 
 -4.971926e-03  -1.061723e-02  0 
 -5.320601e-03  -1.132431e-02  0 
 -5.474335e-03  -1.036411e-02  0 
 -6.849050e-03  -8.913773e-03  0 
 -5.892304e-03  -1.160718e-02  0 
 -6.143439e-03  -1.726192e-02  0 
 -4.710300e-03  -1.734488e-02  0 
 -5.029031e-03  -1.505044e-02  0 
 -5.849551e-03  -1.297317e-02  0 
 -5.749772e-03  -1.309974e-02  0 
 -5.710897e-03  -1.302609e-02  0 
 -5.749966e-03  -1.296118e-02  0 
 -5.831224e-03  -1.304109e-02  0 
 -5.851890e-03  -1.289741e-02  0 
VECTORS displacement_ITER6 FLOAT
 -3.062849e-03  -8.164812e-03  0 
 -2.909860e-03  -5.945951e-03  0 
 -2.959806e-03  -7.099506e-03  0 
 -5.288189e-03  -8.374664e-03  0 
 -4.099674e-03  -8.290006e-03  0 
 -2.869628e-03  -8.077254e-03  0 
 -2.613541e-03  -7.966689e-03  0 
 -3.138941e-03  -8.388318e-03  0 
 -3.210030e-03  -8.662223e-03  0 
 -3.244464e-03  -8.999758e-03  0 
 -4.501439e-03  -7.326606e-03  0 
 -3.716509e-03  -6.617775e-03  0 
 -4.824185e-03  -5.941618e-03  0 
 -5.923231e-03  -7.122303e-03  0 
 -3.647871e-03  -7.526099e-03  0 
 -2.781287e-03  -7.369871e-03  0 
 -2.135833e-03  -7.101492e-03  0 
 -2.853048e-03  -5.775909e-03  0 
 -2.790003e-03  -6.601645e-03  0 
 -2.522228e-03  -6.721309e-03  0 
 -2.108602e-03  -6.286654e-03  0 
 -2.626181e-03  -7.472003e-03  0 
 -2.938520e-03  -1.062565e-02  0 
 -1.475778e-03  -1.120274e-02  0 
 -2.524785e-03  -9.691725e-03  0 
 -2.720508e-03  -8.644900e-03  0 
 -2.903706e-03  -8.260337e-03  0 
 -3.007430e-03  -8.479918e-03  0 
 -2.943918e-03  -8.699567e-03  0 
 -2.738798e-03  -8.390838e-03  0 
 -2.726959e-03  -8.889892e-03  0 
VECTORS displacement_ITER7 FLOAT
 -2.821649e-03  -6.868075e-03  0 
 -2.656081e-03  -5.627211e-03  0 
 -2.718220e-03  -6.296092e-03  0 
 -4.071944e-03  -7.066556e-03  0 
 -3.369924e-03  -6.990870e-03  0 
 -2.487672e-03  -6.778859e-03  0 
 -2.086062e-03  -6.672996e-03  0 
 -2.896365e-03  -7.226707e-03  0 
 -2.975491e-03  -7.644015e-03  0 
 -3.019387e-03  -8.143896e-03  0 
 -3.598307e-03  -6.441604e-03  0 
 -3.140219e-03  -6.035800e-03  0 
 -3.787619e-03  -5.636441e-03  0 
 -4.427262e-03  -6.324538e-03  0 
 -3.109710e-03  -6.553420e-03  0 
 -2.417917e-03  -6.308212e-03  0 
 -1.781297e-03  -5.658636e-03  0 
 -2.028640e-03  -5.334660e-03  0 
 -2.314042e-03  -5.886701e-03  0 
 -1.960823e-03  -5.599708e-03  0 
 -1.888233e-03  -5.471689e-03  0 
 -2.170450e-03  -6.197495e-03  0 
 -2.229845e-03  -8.936003e-03  0 
 -7.242363e-04  -1.010960e-02  0 
 -1.987438e-03  -8.336325e-03  0 
 -2.226573e-03  -7.637809e-03  0 
 -2.518777e-03  -7.070356e-03  0 
 -2.670231e-03  -7.385667e-03  0 
 -2.567022e-03  -7.707727e-03  0 
 -2.272549e-03  -7.261041e-03  0 
 -2.226228e-03  -8.021461e-03  0 
VECTORS displacement_ITER8 FLOAT
 -2.725898e-03  -6.560698e-03  0 
 -2.559006e-03  -5.397775e-03  0 
 -2.621431e-03  -6.028108e-03  0 
 -3.889271e-03  -6.748202e-03  0 
 -3.234039e-03  -6.682838e-03  0 
 -2.454865e-03  -6.475551e-03  0 
 -2.128242e-03  -6.373660e-03  0 
 -2.803482e-03  -6.860156e-03  0 
 -2.883751e-03  -7.217202e-03  0 
 -2.926737e-03  -7.633410e-03  0 
 -3.448843e-03  -6.172244e-03  0 
 -3.013087e-03  -5.787511e-03  0 
 -3.631948e-03  -5.401621e-03  0 
 -4.241221e-03  -6.061394e-03  0 
 -2.988798e-03  -6.273370e-03  0 
 -2.402316e-03  -6.060919e-03  0 
 -1.721212e-03  -5.647182e-03  0 
 -2.185981e-03  -5.174238e-03  0 
 -2.339640e-03  -5.662498e-03  0 
 -2.060547e-03  -5.501062e-03  0 
 -1.599386e-03  -5.144583e-03  0 
 -2.190206e-03  -6.031359e-03  0 
 -1.991769e-03  -8.459198e-03  0 
 -5.247536e-04  -9.632425e-03  0 
 -1.852302e-03  -7.969356e-03  0 
 -2.215897e-03  -7.212480e-03  0 
 -2.484959e-03  -6.713558e-03  0 
 -2.616705e-03  -6.989976e-03  0 
 -2.524413e-03  -7.279057e-03  0 
 -2.270157e-03  -6.882533e-03  0 
 -2.206470e-03  -7.527466e-03  0 
VECTORS displacement_ITER9 FLOAT
 -2.586567e-03  -6.517117e-03  0 
 -2.410312e-03  -5.263386e-03  0 
 -2.480285e-03  -5.934962e-03  0 
 -3.833614e-03  -6.689765e-03  0 
 -3.141440e-03  -6.631852e-03  0 
 -2.345202e-03  -6.432254e-03  0 
 -2.043743e-03  -6.332715e-03  0 
 -2.664271e-03  -6.788936e-03  0 
 -2.741291e-03  -7.111275e-03  0 
 -2.781848e-03  -7.482348e-03  0 
 -3.373377e-03  -6.083979e-03  0 
 -2.911816e-03  -5.672176e-03  0 
 -3.562892e-03  -5.282508e-03  0 
 -4.199332e-03  -5.967029e-03  0 
 -2.880697e-03  -6.196250e-03  0 
 -2.293281e-03  -5.984864e-03  0 
 -1.699660e-03  -5.602790e-03  0 
 -2.126530e-03  -4.948143e-03  0 
 -2.247104e-03  -5.539876e-03  0 
 -1.974646e-03  -5.420117e-03  0 
 -1.577112e-03  -5.007988e-03  0 
 -2.098058e-03  -5.966695e-03  0 
 -1.937755e-03  -8.330417e-03  0 
 -3.760879e-04  -9.620164e-03  0 
 -1.730277e-03  -7.897718e-03  0 
 -2.136555e-03  -7.101635e-03  0 
 -2.375806e-03  -6.647921e-03  0 
 -2.499644e-03  -6.902597e-03  0 
 -2.420256e-03  -7.165660e-03  0 
 -2.181887e-03  -6.796730e-03  0 
 -2.126669e-03  -7.402963e-03  0 
VECTORS displacement_ITER10 FLOAT
 -2.655948e-03  -6.396018e-03  0 
 -2.477511e-03  -5.184014e-03  0 
 -2.549060e-03  -5.836287e-03  0 
 -3.855255e-03  -6.566071e-03  0 
 -3.188158e-03  -6.510066e-03  0 
 -2.390558e-03  -6.309339e-03  0 
 -2.062915e-03  -6.206862e-03  0 
 -2.732881e-03  -6.690168e-03  0 
 -2.808962e-03  -7.034371e-03  0 
 -2.848653e-03  -7.424509e-03  0 
 -3.411573e-03  -5.983161e-03  0 
 -2.965932e-03  -5.583665e-03  0 
 -3.590689e-03  -5.216041e-03  0 
 -4.206009e-03  -5.874949e-03  0 
 -2.936557e-03  -6.090331e-03  0 
 -2.339329e-03  -5.880102e-03  0 
 -1.734924e-03  -5.598463e-03  0 
 -2.123141e-03  -4.772704e-03  0 
 -2.289999e-03  -5.440758e-03  0 
 -1.993939e-03  -5.314336e-03  0 
 -1.645999e-03  -4.994709e-03  0 
 -2.115005e-03  -5.872060e-03  0 
 -1.949745e-03  -8.233372e-03  0 
 -4.607760e-04  -9.504288e-03  0 
 -1.795410e-03  -7.790259e-03  0 
 -2.165734e-03  -7.029464e-03  0 
 -2.421646e-03  -6.544957e-03  0 
 -2.552671e-03  -6.815868e-03  0 
 -2.465845e-03  -7.096558e-03  0 
 -2.213039e-03  -6.705996e-03  0 
 -2.156040e-03  -7.342913e-03  0 
VECTORS displacement_ITER11 FLOAT
 -2.661881e-03  -6.347466e-03  0 
 -2.484371e-03  -5.157477e-03  0 
 -2.555262e-03  -5.798329e-03  0 
 -3.841274e-03  -6.518675e-03  0 
 -3.183791e-03  -6.461858e-03  0 
 -2.388307e-03  -6.261804e-03  0 
 -2.053756e-03  -6.161671e-03  0 
 -2.739250e-03  -6.650391e-03  0 
 -2.816280e-03  -7.003968e-03  0 
 -2.856678e-03  -7.404491e-03  0 
 -3.403405e-03  -5.943447e-03  0 
 -2.964646e-03  -5.550193e-03  0 
 -3.580489e-03  -5.185165e-03  0 
 -4.188161e-03  -5.836733e-03  0 
 -2.936124e-03  -6.048665e-03  0 
 -2.340803e-03  -5.836327e-03  0 
 -1.731876e-03  -5.555890e-03  0 
 -2.123733e-03  -4.762272e-03  0 
 -2.291096e-03  -5.407490e-03  0 
 -1.996389e-03  -5.274703e-03  0 
 -1.631058e-03  -4.949435e-03  0 
 -2.112650e-03  -5.827246e-03  0 
 -1.942552e-03  -8.197172e-03  0 
 -4.696368e-04  -9.455519e-03  0 
 -1.798713e-03  -7.746603e-03  0 
 -2.157558e-03  -6.998388e-03  0 
 -2.418576e-03  -6.502752e-03  0 
 -2.553143e-03  -6.780135e-03  0 
 -2.464036e-03  -7.067841e-03  0 
 -2.205197e-03  -6.666834e-03  0 
 -2.147964e-03  -7.318051e-03  0 
VECTORS displacement_ITER12 FLOAT
 -2.656121e-03  -6.344804e-03  0 
 -2.477281e-03  -5.153041e-03  0 
 -2.549345e-03  -5.796072e-03  0 
 -3.834162e-03  -6.515373e-03  0 
 -3.177390e-03  -6.458689e-03  0 
 -2.382537e-03  -6.258907e-03  0 
 -2.047524e-03  -6.158444e-03  0 
 -2.733416e-03  -6.647670e-03  0 
 -2.810100e-03  -7.000832e-03  0 
 -2.850128e-03  -7.400488e-03  0 
 -3.396797e-03  -5.940729e-03  0 
 -2.959027e-03  -5.548369e-03  0 
 -3.573579e-03  -5.183672e-03  0 
 -4.180406e-03  -5.833891e-03  0 
 -2.930215e-03  -6.046211e-03  0 
 -2.334928e-03  -5.834213e-03  0 
 -1.740007e-03  -5.526218e-03  0 
 -2.140048e-03  -4.771380e-03  0 
 -2.290732e-03  -5.405252e-03  0 
 -1.990744e-03  -5.283150e-03  0 
 -1.614116e-03  -4.941866e-03  0 
 -2.109902e-03  -5.817986e-03  0 
 -1.936817e-03  -8.196437e-03  0 
 -4.641375e-04  -9.453483e-03  0 
 -1.792531e-03  -7.744210e-03  0 
 -2.151540e-03  -6.996175e-03  0 
 -2.412930e-03  -6.500072e-03  0 
 -2.547488e-03  -6.777380e-03  0 
 -2.458602e-03  -7.064813e-03  0 
 -2.199726e-03  -6.663899e-03  0 
 -2.140837e-03  -7.314945e-03  0 
VECTORS displacement_ITER13 FLOAT
 -2.655190e-03  -6.345010e-03  0 
 -2.476169e-03  -5.152988e-03  0 
 -2.548396e-03  -5.796284e-03  0 
 -3.833271e-03  -6.515612e-03  0 
 -3.176413e-03  -6.458815e-03  0 
 -2.381984e-03  -6.259140e-03  0 
 -2.047422e-03  -6.158712e-03  0 
 -2.732498e-03  -6.647515e-03  0 
 -2.809211e-03  -7.000359e-03  0 
 -2.849248e-03  -7.399780e-03  0 
 -3.395788e-03  -5.940833e-03  0 
 -2.958210e-03  -5.548575e-03  0 
 -3.572467e-03  -5.183716e-03  0 
 -4.179617e-03  -5.834039e-03  0 
 -2.929306e-03  -6.046397e-03  0 
 -2.334741e-03  -5.834052e-03  0 
 -1.735558e-03  -5.531013e-03  0 
 -2.136847e-03  -4.765130e-03  0 
 -2.289950e-03  -5.404295e-03  0 
 -1.990986e-03  -5.280941e-03  0 
 -1.615668e-03  -4.944785e-03  0 
 -2.109187e-03  -5.819544e-03  0 
 -1.935065e-03  -8.194577e-03  0 
 -4.637612e-04  -9.454567e-03  0 
 -1.791830e-03  -7.743868e-03  0 
 -2.151108e-03  -6.995664e-03  0 
 -2.412370e-03  -6.499981e-03  0 
 -2.546807e-03  -6.777040e-03  0 
 -2.458013e-03  -7.064237e-03  0 
 -2.199396e-03  -6.663624e-03  0 
 -2.140528e-03  -7.314282e-03  0 
VECTORS displacement_ITER14 FLOAT
 -2.655141e-03  -6.345207e-03  0 
 -2.476109e-03  -5.152995e-03  0 
 -2.548341e-03  -5.796386e-03  0 
 -3.833379e-03  -6.515786e-03  0 
 -3.176457e-03  -6.459010e-03  0 
 -2.381968e-03  -6.259326e-03  0 
 -2.047413e-03  -6.158886e-03  0 
 -2.732445e-03  -6.647671e-03  0 
 -2.809153e-03  -7.000469e-03  0 
 -2.849184e-03  -7.399837e-03  0 
 -3.395867e-03  -5.940960e-03  0 
 -2.958222e-03  -5.548636e-03  0 
 -3.572570e-03  -5.183749e-03  0 
 -4.179727e-03  -5.834178e-03  0 
 -2.929313e-03  -6.046535e-03  0 
 -2.334687e-03  -5.834050e-03  0 
 -1.736338e-03  -5.531781e-03  0 
 -2.136756e-03  -4.768725e-03  0 
 -2.289606e-03  -5.404946e-03  0 
 -1.992125e-03  -5.281631e-03  0 
 -1.614691e-03  -4.942781e-03  0 
 -2.109551e-03  -5.819729e-03  0 
 -1.935292e-03  -8.195005e-03  0 
 -4.635479e-04  -9.454499e-03  0 
 -1.791750e-03  -7.744092e-03  0 
 -2.151122e-03  -6.995790e-03  0 
 -2.412360e-03  -6.500151e-03  0 
 -2.546783e-03  -6.777174e-03  0 
 -2.458004e-03  -7.064340e-03  0 
 -2.199426e-03  -6.663754e-03  0 
 -2.140559e-03  -7.314343e-03  0 
CELL_DATA 42
TENSORS element_stresses FLOAT
 -1.289431e-02  7.116720e-02  0 
 7.116720e-02  2.232362e-01  0 
 0  0  0 

 6.259985e-03  3.509921e-03  0 
 3.509921e-03  -2.162234e-02  0 
 0  0  0 

 -9.975540e-04  2.469307e-02  0 
 2.469307e-02  1.635279e-02  0 
 0  0  0 

 2.680246e-04  5.114848e-02  0 
 5.114848e-02  1.172540e-02  0 
 0  0  0 

 -2.416352e-01  -2.956944e-02  0 
 -2.956944e-02  1.576499e-01  0 
 0  0  0 

 -3.330976e-01  4.523006e-02  0 
 4.523006e-02  3.136656e-01  0 
 0  0  0 

 -8.042044e-03  2.703256e-02  0 
 2.703256e-02  5.987704e-02  0 
 0  0  0 

 -1.473414e-01  -1.143177e-01  0 
 -1.143177e-01  4.110108e-01  0 
 0  0  0 

 -5.933213e-02  -9.608632e-02  0 
 -9.608632e-02  1.977674e-01  0 
 0  0  0 

 -1.160776e-01  -7.049620e-03  0 
 -7.049620e-03  4.542735e-02  0 
 0  0  0 

 -1.737226e-04  -9.947546e-04  0 
 -9.947546e-04  3.840253e-04  0 
 0  0  0 

 -4.044105e-04  -8.331838e-04  0 
 -8.331838e-04  4.655138e-04  0 
 0  0  0 

 -3.678904e-04  -1.010140e-03  0 
 -1.010140e-03  4.116473e-04  0 
 0  0  0 

 -4.015726e-04  -7.480320e-04  0 
 -7.480320e-04  4.635589e-04  0 
 0  0  0 

 -3.213899e-04  -8.272413e-04  0 
 -8.272413e-04  3.526913e-04  0 
 0  0  0 

 -3.900148e-04  -9.401007e-04  0 
 -9.401007e-04  2.265179e-04  0 
 0  0  0 

 -3.608681e-04  -9.392210e-04  0 
 -9.392210e-04  3.733492e-04  0 
 0  0  0 

 -3.303365e-04  -9.545415e-04  0 
 -9.545415e-04  4.887108e-04  0 
 0  0  0 

 -4.299254e-04  -7.874869e-04  0 
 -7.874869e-04  5.091323e-04  0 
 0  0  0 

 -4.528666e-04  -8.835791e-04  0 
 -8.835791e-04  4.206551e-04  0 
 0  0  0 

 -4.439574e-04  -8.760403e-04  0 
 -8.760403e-04  4.771547e-04  0 
 0  0  0 

 -4.137271e-04  -8.711307e-04  0 
 -8.711307e-04  2.776417e-04  0 
 0  0  0 

 -3.788537e-04  -7.835187e-04  0 
 -7.835187e-04  4.151599e-04  0 
 0  0  0 

 7.633968e-03  -4.125510e-03  0 
 -4.125510e-03  2.517295e-03  0 
 0  0  0 

 4.654098e-03  -1.127863e-02  0 
 -1.127863e-02  1.653644e-02  0 
 0  0  0 

 7.914073e-03  -4.508730e-03  0 
 -4.508730e-03  2.829435e-03  0 
 0  0  0 

 2.242547e-03  -5.539135e-03  0 
 -5.539135e-03  8.505876e-03  0 
 0  0  0 

 7.633101e-03  -4.167847e-03  0 
 -4.167847e-03  2.694033e-03  0 
 0  0  0 

 9.744588e-03  -1.259355e-02  0 
 -1.259355e-02  1.400659e-02  0 
 0  0  0 

 7.521459e-03  -4.503188e-03  0 
 -4.503188e-03  2.554466e-03  0 
 0  0  0 

 -7.653018e-02  7.147685e-02  0 
 7.147685e-02  3.788008e-01  0 
 0  0  0 

 -2.371732e-01  -6.481656e-02  0 
 -6.481656e-02  2.322032e-01  0 
 0  0  0 

 -1.197032e-01  -8.316249e-02  0 
 -8.316249e-02  1.347317e-01  0 
 0  0  0 

 -3.804389e-02  -2.922326e-02  0 
 -2.922326e-02  1.308633e-01  0 
 0  0  0 

 -8.876383e-02  -1.242094e-01  0 
 -1.242094e-01  2.539900e-01  0 
 0  0  0 

 -3.531728e-02  -6.911170e-02  0 
 -6.911170e-02  1.822341e-01  0 
 0  0  0 

 -8.881107e-02  -1.162437e-01  0 
 -1.162437e-01  3.168790e-01  0 
 0  0  0 

 -2.351078e-01  -1.639730e-02  0 
 -1.639730e-02  2.470274e-01  0 
 0  0  0 

 -5.643629e-02  -9.436955e-02  0 
 -9.436955e-02  1.534177e-01  0 
 0  0  0 

 -3.334927e-03  -1.015163e-01  0 
 -1.015163e-01  3.404604e-02  0 
 0  0  0 

 1.854938e-02  -1.418085e-01  0 
 -1.418085e-01  3.018596e-02  0 
 0  0  0 

 -4.686970e-02  -1.280291e-01  0 
 -1.280291e-01  9.948794e-02  0 
 0  0  0 

TENSORS element_stresses FLOAT
 -1.289431e-02  7.116720e-02  0 
 7.116720e-02  2.232362e-01  0 
 0  0  0 

 6.259985e-03  3.509921e-03  0 
 3.509921e-03  -2.162234e-02  0 
 0  0  0 

 -9.975540e-04  2.469307e-02  0 
 2.469307e-02  1.635279e-02  0 
 0  0  0 

 2.680246e-04  5.114848e-02  0 
 5.114848e-02  1.172540e-02  0 
 0  0  0 

 -2.416352e-01  -2.956944e-02  0 
 -2.956944e-02  1.576499e-01  0 
 0  0  0 

 -3.330976e-01  4.523006e-02  0 
 4.523006e-02  3.136656e-01  0 
 0  0  0 

 -8.042044e-03  2.703256e-02  0 
 2.703256e-02  5.987704e-02  0 
 0  0  0 

 -1.473414e-01  -1.143177e-01  0 
 -1.143177e-01  4.110108e-01  0 
 0  0  0 

 -5.933213e-02  -9.608632e-02  0 
 -9.608632e-02  1.977674e-01  0 
 0  0  0 

 -1.160776e-01  -7.049620e-03  0 
 -7.049620e-03  4.542735e-02  0 
 0  0  0 

 -1.737226e-04  -9.947546e-04  0 
 -9.947546e-04  3.840253e-04  0 
 0  0  0 

 -4.044105e-04  -8.331838e-04  0 
 -8.331838e-04  4.655138e-04  0 
 0  0  0 

 -3.678904e-04  -1.010140e-03  0 
 -1.010140e-03  4.116473e-04  0 
 0  0  0 

 -4.015726e-04  -7.480320e-04  0 
 -7.480320e-04  4.635589e-04  0 
 0  0  0 

 -3.213899e-04  -8.272413e-04  0 
 -8.272413e-04  3.526913e-04  0 
 0  0  0 

 -3.900148e-04  -9.401007e-04  0 
 -9.401007e-04  2.265179e-04  0 
 0  0  0 

 -3.608681e-04  -9.392210e-04  0 
 -9.392210e-04  3.733492e-04  0 
 0  0  0 

 -3.303365e-04  -9.545415e-04  0 
 -9.545415e-04  4.887108e-04  0 
 0  0  0 

 -4.299254e-04  -7.874869e-04  0 
 -7.874869e-04  5.091323e-04  0 
 0  0  0 

 -4.528666e-04  -8.835791e-04  0 
 -8.835791e-04  4.206551e-04  0 
 0  0  0 

 -4.439574e-04  -8.760403e-04  0 
 -8.760403e-04  4.771547e-04  0 
 0  0  0 

 -4.137271e-04  -8.711307e-04  0 
 -8.711307e-04  2.776417e-04  0 
 0  0  0 

 -3.788537e-04  -7.835187e-04  0 
 -7.835187e-04  4.151599e-04  0 
 0  0  0 

 7.633968e-03  -4.125510e-03  0 
 -4.125510e-03  2.517295e-03  0 
 0  0  0 

 4.654098e-03  -1.127863e-02  0 
 -1.127863e-02  1.653644e-02  0 
 0  0  0 

 7.914073e-03  -4.508730e-03  0 
 -4.508730e-03  2.829435e-03  0 
 0  0  0 

 2.242547e-03  -5.539135e-03  0 
 -5.539135e-03  8.505876e-03  0 
 0  0  0 

 7.633101e-03  -4.167847e-03  0 
 -4.167847e-03  2.694033e-03  0 
 0  0  0 

 9.744588e-03  -1.259355e-02  0 
 -1.259355e-02  1.400659e-02  0 
 0  0  0 

 7.521459e-03  -4.503188e-03  0 
 -4.503188e-03  2.554466e-03  0 
 0  0  0 

 -7.653018e-02  7.147685e-02  0 
 7.147685e-02  3.788008e-01  0 
 0  0  0 

 -2.371732e-01  -6.481656e-02  0 
 -6.481656e-02  2.322032e-01  0 
 0  0  0 

 -1.197032e-01  -8.316249e-02  0 
 -8.316249e-02  1.347317e-01  0 
 0  0  0 

 -3.804389e-02  -2.922326e-02  0 
 -2.922326e-02  1.308633e-01  0 
 0  0  0 

 -8.876383e-02  -1.242094e-01  0 
 -1.242094e-01  2.539900e-01  0 
 0  0  0 

 -3.531728e-02  -6.911170e-02  0 
 -6.911170e-02  1.822341e-01  0 
 0  0  0 

 -8.881107e-02  -1.162437e-01  0 
 -1.162437e-01  3.168790e-01  0 
 0  0  0 

 -2.351078e-01  -1.639730e-02  0 
 -1.639730e-02  2.470274e-01  0 
 0  0  0 

 -5.643629e-02  -9.436955e-02  0 
 -9.436955e-02  1.534177e-01  0 
 0  0  0 

 -3.334927e-03  -1.015163e-01  0 
 -1.015163e-01  3.404604e-02  0 
 0  0  0 

 1.854938e-02  -1.418085e-01  0 
 -1.418085e-01  3.018596e-02  0 
 0  0  0 

 -4.686970e-02  -1.280291e-01  0 
 -1.280291e-01  9.948794e-02  0 
 0  0  0 

