# vtk DataFile Version 3.1
this is an vtk file created by FEMAC
ASCII
DATASET UNSTRUCTURED_GRID
POINTS 19 FLOAT
2.000000 5.000000 0.000000
2.000000 6.000000 0.000000
3.000000 5.000000 0.000000
1.666667 6.000000 0.000000
2.000000 5.333333 0.000000
2.000000 5.666667 0.000000
2.333333 5.000000 0.000000
2.666667 5.000000 0.000000
2.333333 6.000000 0.000000
1.735450 5.578520 0.000000
1.710771 5.276789 0.000000
1.514832 5.788257 0.000000
1.783390 5.806689 0.000000
2.248421 5.509726 0.000000
2.515789 5.659969 0.000000
2.466342 5.265821 0.000000
2.242347 5.214111 0.000000
2.783162 5.394160 0.000000
2.221251 5.772591 0.000000
CELLS 24 96 
3 9 4 5
3 4 10  0
3 10  4  9
3 3 12  1
3 5 12  9
3 12  5  1
3 11 12  3
3 11  9 12
3 5  4 13
3 15  6  7
3 16  4  0
3 6 16  0
3 4 16 13
3 15 16  6
3 15 13 16
3 13 15 14
3 17  7  2
3 5 18  1
3 18  8  1
3 7 17 15
3 8 18 14
3 18 13 14
3 13 18  5
3 17 14 15
CELL_TYPES 24
5 5 5 5 5 5 5 5 5 5 5 5 5 5 5 5 5 5 5 5 5 5 5 5 
POINT_DATA 19
VECTORS displacement_ITER1 FLOAT
 -6.029731e-02  -2.849219e-01  0 
 3.009466e-01  -2.853065e-01  0 
 2.978696e-01  -9.905202e-02  0 
 3.010336e-01  -1.645633e-01  0 
 5.963230e-02  -2.851497e-01  0 
 1.802078e-01  -2.853405e-01  0 
 7.423645e-02  -2.944451e-01  0 
 2.247520e-01  -2.909723e-01  0 
 2.814057e-01  -3.766948e-01  0 
 1.482533e-01  -1.895788e-01  0 
 3.916570e-02  -1.807898e-01  0 
 2.243136e-01  -1.095396e-01  0 
 2.309519e-01  -2.068981e-01  0 
 1.247684e-01  -3.794691e-01  0 
 1.453064e-01  -4.158228e-01  0 
 9.469174e-02  -4.037996e-01  0 
 4.734935e-02  -3.609248e-01  0 
 1.003660e-01  -3.617393e-01  0 
 2.053530e-01  -3.520482e-01  0 
VECTORS displacement_ITER2 FLOAT
 -1.114960e-02  -5.593720e-02  0 
 2.737314e-02  -5.641651e-02  0 
 2.444333e-02  -6.113646e-02  0 
 2.741705e-02  -4.315151e-02  0 
 1.061026e-03  -5.610727e-02  0 
 1.411715e-02  -5.637255e-02  0 
 3.854392e-02  5.772165e-02  0 
 3.249605e-02  1.023551e-03  0 
 2.109683e-02  -6.007663e-02  0 
 1.057289e-02  -4.594363e-02  0 
 -1.105876e-03  -4.519051e-02  0 
 1.899589e-02  -3.713780e-02  0 
 1.968756e-02  -4.782246e-02  0 
 9.881242e-03  -5.212149e-02  0 
 1.861761e-02  -4.910994e-02  0 
 3.449022e-02  -4.441664e-03  0 
 6.484210e-03  -2.086612e-02  0 
 4.899034e-02  -1.372102e-02  0 
 1.765794e-02  -5.884243e-02  0 
VECTORS displacement_ITER3 FLOAT
 5.360292e-03  -1.768491e-02  0 
 2.411036e-02  -1.851804e-02  0 
 6.101030e-03  -1.909813e-02  0 
 2.415639e-02  -1.166121e-02  0 
 1.080483e-02  -1.799766e-02  0 
 1.727573e-02  -1.840672e-02  0 
 -6.060043e-03  -1.181144e-02  0 
 4.561967e-03  -1.337556e-02  0 
 2.395753e-02  -2.963713e-02  0 
 1.542223e-02  -1.314265e-02  0 
 9.744821e-03  -1.287211e-02  0 
 1.978312e-02  -8.530443e-03  0 
 2.012850e-02  -1.408254e-02  0 
 1.305902e-02  -2.264525e-02  0 
 1.672267e-02  -3.042433e-02  0 
 7.561283e-03  -2.318615e-02  0 
 4.987705e-03  -1.597267e-02  0 
 1.286414e-02  -2.710114e-02  0 
 1.879950e-02  -2.477399e-02  0 
VECTORS displacement_ITER4 FLOAT
 5.795038e-03  -8.308922e-03  0 
 9.250283e-03  -9.095180e-03  0 
 1.938672e-03  -5.745242e-04  0 
 9.298382e-03  -7.329465e-03  0 
 6.216658e-03  -8.593511e-03  0 
 7.527292e-03  -8.991837e-03  0 
 5.502123e-03  -7.642345e-03  0 
 3.107243e-03  -5.583592e-03  0 
 1.053082e-02  -1.360636e-02  0 
 7.036804e-03  -7.810932e-03  0 
 6.018938e-03  -7.868015e-03  0 
 8.200482e-03  -6.568010e-03  0 
 8.237049e-03  -7.984211e-03  0 
 6.206332e-03  -1.125377e-02  0 
 7.422570e-03  -1.350623e-02  0 
 4.893276e-03  -9.570713e-03  0 
 5.162579e-03  -9.829566e-03  0 
 6.147816e-03  -9.998329e-03  0 
 8.105218e-03  -1.173267e-02  0 
VECTORS displacement_ITER5 FLOAT
 3.201123e-03  -7.364006e-03  0 
 6.472559e-03  -7.800781e-03  0 
 5.749126e-03  -7.234627e-03  0 
 6.460965e-03  -6.686691e-03  0 
 4.128476e-03  -7.685491e-03  0 
 5.346501e-03  -7.780535e-03  0 
 4.647742e-03  -6.848869e-03  0 
 4.425892e-03  -5.580375e-03  0 
 7.772719e-03  -1.417390e-02  0 
 5.019950e-03  -6.861978e-03  0 
 3.832790e-03  -6.711157e-03  0 
 5.734446e-03  -6.153648e-03  0 
 5.812404e-03  -7.059766e-03  0 
 4.744269e-03  -1.123419e-02  0 
 6.379798e-03  -1.377945e-02  0 
 4.551720e-03  -9.972291e-03  0 
 3.790081e-03  -9.563195e-03  0 
 6.903180e-03  -1.138588e-02  0 
 5.982194e-03  -1.170679e-02  0 
VECTORS displacement_ITER6 FLOAT
 3.332620e-03  -6.236819e-03  0 
 5.857503e-03  -6.685342e-03  0 
 4.192751e-03  -6.579783e-03  0 
 5.861307e-03  -5.618799e-03  0 
 3.803068e-03  -6.493188e-03  0 
 4.801108e-03  -6.649342e-03  0 
 3.927745e-03  -5.971082e-03  0 
 4.430959e-03  -6.316403e-03  0 
 7.079574e-03  -1.325150e-02  0 
 4.498826e-03  -5.848547e-03  0 
 3.606841e-03  -5.845537e-03  0 
 5.192840e-03  -5.143016e-03  0 
 5.238190e-03  -5.994969e-03  0 
 4.408772e-03  -1.038051e-02  0 
 5.657986e-03  -1.285972e-02  0 
 4.488946e-03  -9.638260e-03  0 
 3.544507e-03  -8.425466e-03  0 
 6.225218e-03  -1.034222e-02  0 
 5.346570e-03  -1.072768e-02  0 
VECTORS displacement_ITER7 FLOAT
 2.735444e-03  -5.298256e-03  0 
 5.608151e-03  -5.787250e-03  0 
 3.989832e-03  -5.657482e-03  0 
 5.618449e-03  -4.584431e-03  0 
 3.335299e-03  -5.567655e-03  0 
 4.426432e-03  -5.742566e-03  0 
 3.340964e-03  -4.933111e-03  0 
 3.649722e-03  -5.362196e-03  0 
 6.626173e-03  -1.235005e-02  0 
 4.093924e-03  -4.861881e-03  0 
 3.109717e-03  -4.810700e-03  0 
 4.865955e-03  -4.054738e-03  0 
 4.913900e-03  -5.014458e-03  0 
 4.123569e-03  -9.304852e-03  0 
 5.704549e-03  -1.173869e-02  0 
 4.064254e-03  -8.462050e-03  0 
 3.073436e-03  -7.367146e-03  0 
 5.927186e-03  -9.071298e-03  0 
 5.092942e-03  -9.893410e-03  0 
VECTORS displacement_ITER8 FLOAT
 2.949188e-03  -5.780895e-03  0 
 5.983276e-03  -6.254045e-03  0 
 4.126354e-03  -6.850325e-03  0 
 5.992649e-03  -5.000515e-03  0 
 3.593770e-03  -6.042669e-03  0 
 4.749591e-03  -6.210236e-03  0 
 3.555515e-03  -5.624293e-03  0 
 3.856706e-03  -6.236848e-03  0 
 6.828960e-03  -1.259460e-02  0 
 4.403235e-03  -5.282408e-03  0 
 3.359067e-03  -5.233829e-03  0 
 5.204433e-03  -4.445771e-03  0 
 5.258485e-03  -5.446631e-03  0 
 4.323898e-03  -9.982085e-03  0 
 5.783968e-03  -1.262469e-02  0 
 4.321257e-03  -9.190886e-03  0 
 3.320006e-03  -8.003238e-03  0 
 6.121264e-03  -9.614031e-03  0 
 5.401462e-03  -1.041053e-02  0 
VECTORS displacement_ITER9 FLOAT
 2.868408e-03  -5.717744e-03  0 
 5.962180e-03  -6.186823e-03  0 
 4.049075e-03  -6.762112e-03  0 
 5.970426e-03  -4.918930e-03  0 
 3.536366e-03  -5.976372e-03  0 
 4.711497e-03  -6.143915e-03  0 
 3.482122e-03  -5.568078e-03  0 
 3.796139e-03  -6.153901e-03  0 
 6.787386e-03  -1.254471e-02  0 
 4.359131e-03  -5.199357e-03  0 
 3.300410e-03  -5.152059e-03  0 
 5.172522e-03  -4.356471e-03  0 
 5.227958e-03  -5.368764e-03  0 
 4.314408e-03  -9.886870e-03  0 
 5.848932e-03  -1.251303e-02  0 
 4.269080e-03  -9.111384e-03  0 
 3.262710e-03  -7.929663e-03  0 
 6.095548e-03  -9.552256e-03  0 
 5.391519e-03  -1.036106e-02  0 
CELL_DATA 24
TENSORS element_stresses FLOAT
 7.152697e-03  9.418212e-02  0 
 9.418212e-02  -5.004814e-01  0 
 0  0  0 

 2.102093e-01  -5.342175e-01  0 
 -5.342175e-01  -7.128213e-01  0 
 0  0  0 

 1.705759e-01  4.867929e-01  0 
 4.867929e-01  1.287605e-01  0 
 0  0  0 

 -1.719474e-02  1.705818e-02  0 
 1.705818e-02  2.514001e-02  0 
 0  0  0 

 7.740342e-02  1.695023e-01  0 
 1.695023e-01  3.151047e-02  0 
 0  0  0 

 2.758972e-03  6.945431e-02  0 
 6.945431e-02  -1.278972e-01  0 
 0  0  0 

 -4.418269e-02  2.685581e-02  0 
 2.685581e-02  3.573219e-02  0 
 0  0  0 

 -4.466898e-02  3.593449e-02  0 
 3.593449e-02  3.683074e-02  0 
 0  0  0 

 5.252141e-04  -9.122419e-03  0 
 -9.122419e-03  -3.450630e-04  0 
 0  0  0 

 -3.069272e-03  5.628009e-04  0 
 5.628009e-04  -1.337108e-02  0 
 0  0  0 

 -4.133507e-04  -4.952098e-03  0 
 -4.952098e-03  -8.998893e-04  0 
 0  0  0 

 -1.550045e-03  1.589496e-04  0 
 1.589496e-04  -1.130396e-02  0 
 0  0  0 

 -1.431194e-03  -5.891335e-03  0 
 -5.891335e-03  -6.819947e-03  0 
 0  0  0 

 7.484442e-04  -1.292380e-03  0 
 -1.292380e-03  -1.186145e-02  0 
 0  0  0 

 1.896691e-03  -2.178563e-04  0 
 -2.178563e-04  -5.974427e-03  0 
 0  0  0 

 1.498536e-03  -1.393891e-03  0 
 -1.393891e-03  -7.509676e-03  0 
 0  0  0 

 -1.830700e-03  2.911373e-03  0 
 2.911373e-03  -8.631691e-03  0 
 0  0  0 

 1.361107e-03  -1.172828e-02  0 
 -1.172828e-02  2.796073e-04  0 
 0  0  0 

 2.654010e-03  -1.088898e-02  0 
 -1.088898e-02  5.946450e-04  0 
 0  0  0 

 1.171846e-03  5.444829e-03  0 
 5.444829e-03  -8.975613e-03  0 
 0  0  0 

 1.941404e-03  -3.627958e-03  0 
 -3.627958e-03  -4.467252e-03  0 
 0  0  0 

 2.691009e-03  -2.993659e-03  0 
 -2.993659e-03  -1.857087e-03  0 
 0  0  0 

 -2.135063e-05  -1.010135e-02  0 
 -1.010135e-02  -3.602450e-03  0 
 0  0  0 

 1.857665e-03  4.367756e-03  0 
 4.367756e-03  -8.351234e-03  0 
 0  0  0 

TENSORS element_stresses FLOAT
 7.152697e-03  9.418212e-02  0 
 9.418212e-02  -5.004814e-01  0 
 0  0  0 

 2.102093e-01  -5.342175e-01  0 
 -5.342175e-01  -7.128213e-01  0 
 0  0  0 

 1.705759e-01  4.867929e-01  0 
 4.867929e-01  1.287605e-01  0 
 0  0  0 

 -1.719474e-02  1.705818e-02  0 
 1.705818e-02  2.514001e-02  0 
 0  0  0 

 7.740342e-02  1.695023e-01  0 
 1.695023e-01  3.151047e-02  0 
 0  0  0 

 2.758972e-03  6.945431e-02  0 
 6.945431e-02  -1.278972e-01  0 
 0  0  0 

 -4.418269e-02  2.685581e-02  0 
 2.685581e-02  3.573219e-02  0 
 0  0  0 

 -4.466898e-02  3.593449e-02  0 
 3.593449e-02  3.683074e-02  0 
 0  0  0 

 5.252141e-04  -9.122419e-03  0 
 -9.122419e-03  -3.450630e-04  0 
 0  0  0 

 -3.069272e-03  5.628009e-04  0 
 5.628009e-04  -1.337108e-02  0 
 0  0  0 

 -4.133507e-04  -4.952098e-03  0 
 -4.952098e-03  -8.998893e-04  0 
 0  0  0 

 -1.550045e-03  1.589496e-04  0 
 1.589496e-04  -1.130396e-02  0 
 0  0  0 

 -1.431194e-03  -5.891335e-03  0 
 -5.891335e-03  -6.819947e-03  0 
 0  0  0 

 7.484442e-04  -1.292380e-03  0 
 -1.292380e-03  -1.186145e-02  0 
 0  0  0 

 1.896691e-03  -2.178563e-04  0 
 -2.178563e-04  -5.974427e-03  0 
 0  0  0 

 1.498536e-03  -1.393891e-03  0 
 -1.393891e-03  -7.509676e-03  0 
 0  0  0 

 -1.830700e-03  2.911373e-03  0 
 2.911373e-03  -8.631691e-03  0 
 0  0  0 

 1.361107e-03  -1.172828e-02  0 
 -1.172828e-02  2.796073e-04  0 
 0  0  0 

 2.654010e-03  -1.088898e-02  0 
 -1.088898e-02  5.946450e-04  0 
 0  0  0 

 1.171846e-03  5.444829e-03  0 
 5.444829e-03  -8.975613e-03  0 
 0  0  0 

 1.941404e-03  -3.627958e-03  0 
 -3.627958e-03  -4.467252e-03  0 
 0  0  0 

 2.691009e-03  -2.993659e-03  0 
 -2.993659e-03  -1.857087e-03  0 
 0  0  0 

 -2.135063e-05  -1.010135e-02  0 
 -1.010135e-02  -3.602450e-03  0 
 0  0  0 

 1.857665e-03  4.367756e-03  0 
 4.367756e-03  -8.351234e-03  0 
 0  0  0 

