# vtk DataFile Version 3.1
this is an vtk file created by FEMAC
ASCII
DATASET UNSTRUCTURED_GRID
POINTS 21 FLOAT
3.000000 1.000000 0.000000
3.000000 2.000000 0.000000
4.000000 2.000000 0.000000
3.000000 1.333333 0.000000
3.000000 1.666667 0.000000
3.333333 2.000000 0.000000
3.666667 2.000000 0.000000
2.690581 1.518186 0.000000
2.759097 1.220626 0.000000
2.770668 1.793926 0.000000
3.285974 1.523802 0.000000
3.496093 1.784776 0.000000
3.214413 1.238185 0.000000
3.770668 1.793926 0.000000
3.223080 1.795049 0.000000
3.248421 2.490274 0.000000
3.515789 2.340031 0.000000
3.466342 2.734179 0.000000
3.783162 2.605840 0.000000
3.221251 2.227409 0.000000
3.793124 2.255841 0.000000
CELLS 25 100 
3 4 7 3
3 3 8 0
3 8 3 7
3 4 9 7
3 9 4 1
3 4  3 10
3 12  3  0
3 12 10  3
3 11  6  5
3 6 13  2
3 4 14  1
3 14  5  1
3 14  4 10
3 14 11  5
3 10 11 14
3 11 13  6
3 17 15 16
3 16  5  6
3 5 19  1
3 19  5 16
3 15 19 16
3 20  6  2
3 20 16  6
3 16 18 17
3 16 20 18
CELL_TYPES 25
5 5 5 5 5 5 5 5 5 5 5 5 5 5 5 5 5 5 5 5 5 5 5 5 5 
POINT_DATA 21
VECTORS displacement_ITER1 FLOAT
 9.164212e-02  -2.017797e-01  0 
 1.401290e-01  -2.004305e-01  0 
 1.405081e-01  -2.542448e-01  0 
 1.067152e-01  -2.016592e-01  0 
 1.229782e-01  -2.010231e-01  0 
 1.402448e-01  -2.180445e-01  0 
 1.405482e-01  -2.358134e-01  0 
 1.163188e-01  -1.876620e-01  0 
 1.021674e-01  -1.914962e-01  0 
 1.294751e-01  -1.904734e-01  0 
 1.157332e-01  -2.153504e-01  0 
 1.289375e-01  -2.264765e-01  0 
 1.023756e-01  -2.116239e-01  0 
 1.292840e-01  -2.415984e-01  0 
 1.294397e-01  -2.122324e-01  0 
 1.660593e-01  -2.200175e-01  0 
 1.586582e-01  -2.337450e-01  0 
 1.802410e-01  -2.340801e-01  0 
 1.741006e-01  -2.508314e-01  0 
 1.512179e-01  -2.152540e-01  0 
 1.556773e-01  -2.466611e-01  0 
VECTORS displacement_ITER2 FLOAT
 -7.326850e-03  -4.234598e-02  0 
 1.029019e-02  -4.093331e-02  0 
 1.011968e-02  -6.183201e-02  0 
 -2.185290e-03  -4.214860e-02  0 
 3.627870e-03  -4.157042e-02  0 
 1.019004e-02  -4.791887e-02  0 
 1.022738e-02  -5.471460e-02  0 
 1.626077e-03  -3.792830e-02  0 
 -3.383504e-03  -3.936947e-02  0 
 6.079354e-03  -3.829692e-02  0 
 8.984082e-04  -4.690410e-02  0 
 5.808760e-03  -5.117777e-02  0 
 -3.691491e-03  -4.562664e-02  0 
 5.860399e-03  -5.699806e-02  0 
 6.016133e-03  -4.572860e-02  0 
 1.948547e-02  -5.246445e-02  0 
 1.717505e-02  -5.721909e-02  0 
 2.518218e-02  -5.903755e-02  0 
 2.339550e-02  -6.501860e-02  0 
 1.370511e-02  -4.862333e-02  0 
 1.677795e-02  -6.106859e-02  0 
VECTORS displacement_ITER3 FLOAT
 -1.054201e-03  -1.115279e-02  0 
 -5.244499e-04  -9.063701e-03  0 
 -4.073001e-04  -1.409614e-02  0 
 -1.622827e-03  -1.054284e-02  0 
 -1.484890e-03  -9.815268e-03  0 
 -5.133563e-04  -1.053288e-02  0 
 -2.993079e-04  -1.194955e-02  0 
 -6.417795e-04  -1.175403e-02  0 
 -5.968524e-04  -1.227794e-02  0 
 -9.758184e-04  -1.023215e-02  0 
 -1.828730e-03  -1.031007e-02  0 
 -1.319458e-03  -1.103423e-02  0 
 -1.584814e-03  -1.039597e-02  0 
 -1.454677e-03  -1.264783e-02  0 
 -1.302308e-03  -1.014595e-02  0 
 -1.129482e-03  -1.768663e-02  0 
 -1.015568e-04  -1.721761e-02  0 
 -5.305273e-04  -2.012852e-02  0 
 3.794480e-04  -2.000853e-02  0 
 -1.559073e-03  -1.354801e-02  0 
 1.184191e-03  -1.605618e-02  0 
VECTORS displacement_ITER4 FLOAT
 1.933252e-04  -8.664404e-03  0 
 -3.433092e-03  -6.704374e-03  0 
 -3.277155e-03  -7.795579e-03  0 
 -1.647567e-03  -8.212755e-03  0 
 -2.921759e-03  -7.559401e-03  0 
 -3.476125e-03  -6.733753e-03  0 
 -3.271456e-03  -6.673391e-03  0 
 -1.787317e-03  -1.024468e-02  0 
 -2.847463e-04  -1.052438e-02  0 
 -3.103180e-03  -8.715057e-03  0 
 -2.624349e-03  -6.835518e-03  0 
 -3.375186e-03  -6.540503e-03  0 
 -1.216653e-03  -7.218457e-03  0 
 -3.651551e-03  -6.943332e-03  0 
 -3.350155e-03  -6.879582e-03  0 
 4.152543e-04  -1.102574e-02  0 
 -6.417133e-04  -1.231774e-02  0 
 3.343038e-03  -1.451107e-02  0 
 2.991975e-03  -1.637317e-02  0 
 -2.533266e-03  -8.685688e-03  0 
 3.279717e-04  -1.178609e-02  0 
VECTORS displacement_ITER5 FLOAT
 -2.274037e-03  -7.054270e-03  0 
 -1.121875e-03  -5.767621e-03  0 
 -1.398888e-03  -9.026220e-03  0 
 -2.242765e-03  -6.808656e-03  0 
 -1.882766e-03  -6.436869e-03  0 
 -1.240964e-03  -6.963588e-03  0 
 -1.315650e-03  -7.728740e-03  0 
 -1.267623e-03  -8.100027e-03  0 
 -1.869497e-03  -8.421591e-03  0 
 -1.519404e-03  -6.855515e-03  0 
 -2.164759e-03  -6.961458e-03  0 
 -1.803678e-03  -7.380027e-03  0 
 -2.322833e-03  -6.971530e-03  0 
 -1.988776e-03  -8.123443e-03  0 
 -1.764793e-03  -6.732971e-03  0 
 -1.780378e-03  -1.090276e-02  0 
 -1.573549e-03  -1.187956e-02  0 
 -4.893006e-04  -1.334654e-02  0 
 -2.606932e-04  -1.470925e-02  0 
 -2.258088e-03  -9.172948e-03  0 
 -5.160101e-04  -1.098938e-02  0 
VECTORS displacement_ITER6 FLOAT
 -3.645975e-03  -7.604603e-03  0 
 -7.018075e-04  -6.198881e-03  0 
 -1.050396e-03  -1.085640e-02  0 
 -3.151948e-03  -7.288054e-03  0 
 -2.123313e-03  -6.865236e-03  0 
 -8.504479e-04  -8.026515e-03  0 
 -9.639030e-04  -9.362830e-03  0 
 -1.621590e-03  -8.976773e-03  0 
 -2.522139e-03  -8.690354e-03  0 
 -1.611119e-03  -6.911797e-03  0 
 -2.710065e-03  -7.970866e-03  0 
 -1.795138e-03  -8.740631e-03  0 
 -3.398844e-03  -7.820677e-03  0 
 -1.813602e-03  -9.808215e-03  0 
 -1.746276e-03  -7.600553e-03  0 
 -4.521347e-04  -9.610547e-03  0 
 -9.274952e-05  -1.081838e-02  0 
 -9.806942e-04  -9.581730e-03  0 
 -6.225489e-04  -9.418349e-03  0 
 -4.164251e-04  -8.626598e-03  0 
 -2.711746e-04  -1.091031e-02  0 
VECTORS displacement_ITER7 FLOAT
 -2.691322e-03  -7.545275e-03  0 
 -2.072270e-03  -6.182925e-03  0 
 -2.443331e-03  -8.211986e-03  0 
 -2.871459e-03  -7.241131e-03  0 
 -2.655252e-03  -6.851788e-03  0 
 -2.225488e-03  -7.178293e-03  0 
 -2.351635e-03  -7.676006e-03  0 
 -2.113059e-03  -8.859498e-03  0 
 -1.927547e-03  -8.417422e-03  0 
 -2.430026e-03  -7.254852e-03  0 
 -2.878258e-03  -7.246816e-03  0 
 -2.630878e-03  -7.489796e-03  0 
 -2.919470e-03  -7.310423e-03  0 
 -2.633911e-03  -7.826538e-03  0 
 -2.603471e-03  -7.031169e-03  0 
 -6.652228e-04  -8.709221e-03  0 
 -1.344443e-03  -1.048194e-02  0 
 3.323881e-04  -9.810410e-03  0 
 -4.228294e-04  -1.076387e-02  0 
 -1.877693e-03  -8.143418e-03  0 
 -1.197593e-03  -1.002939e-02  0 
VECTORS displacement_ITER8 FLOAT
 -2.855631e-03  -7.972770e-03  0 
 -1.905830e-03  -6.576233e-03  0 
 -2.269204e-03  -8.976781e-03  0 
 -2.958588e-03  -7.639913e-03  0 
 -2.613245e-03  -7.249255e-03  0 
 -2.054729e-03  -7.702579e-03  0 
 -2.171819e-03  -8.348206e-03  0 
 -2.094855e-03  -8.902087e-03  0 
 -2.136067e-03  -8.536366e-03  0 
 -2.362272e-03  -7.458013e-03  0 
 -2.889273e-03  -7.750418e-03  0 
 -2.546755e-03  -8.076843e-03  0 
 -3.039854e-03  -7.777786e-03  0 
 -2.519353e-03  -8.530394e-03  0 
 -2.514678e-03  -7.510950e-03  0 
 -5.845148e-04  -9.405917e-03  0 
 -1.342900e-03  -1.115551e-02  0 
 3.954321e-04  -1.033566e-02  0 
 -5.612159e-04  -1.135385e-02  0 
 -1.894034e-03  -8.846528e-03  0 
 -1.195854e-03  -1.051889e-02  0 
VECTORS displacement_ITER9 FLOAT
 -2.904972e-03  -8.082552e-03  0 
 -1.890582e-03  -6.686919e-03  0 
 -2.262248e-03  -9.150458e-03  0 
 -2.992947e-03  -7.743604e-03  0 
 -2.619691e-03  -7.356253e-03  0 
 -2.040190e-03  -7.832100e-03  0 
 -2.159567e-03  -8.494580e-03  0 
 -2.223658e-03  -9.080355e-03  0 
 -2.175012e-03  -8.617754e-03  0 
 -2.373578e-03  -7.519359e-03  0 
 -2.905659e-03  -7.878028e-03  0 
 -2.544097e-03  -8.216216e-03  0 
 -3.081094e-03  -7.895428e-03  0 
 -2.527291e-03  -8.691907e-03  0 
 -2.511685e-03  -7.634070e-03  0 
 -5.951766e-04  -9.553181e-03  0 
 -1.295626e-03  -1.121369e-02  0 
 1.797221e-04  -1.038793e-02  0 
 -6.653550e-04  -1.116762e-02  0 
 -1.863134e-03  -8.955423e-03  0 
 -1.188451e-03  -1.052738e-02  0 
CELL_DATA 25
TENSORS element_stresses FLOAT
 -1.613903e-03  4.718615e-03  0 
 4.718615e-03  6.778814e-04  0 
 0  0  0 

 -3.260178e-03  2.222297e-03  0 
 2.222297e-03  3.878988e-05  0 
 0  0  0 

 -3.506377e-03  2.368469e-03  0 
 2.368469e-03  -1.701097e-03  0 
 0  0  0 

 2.474637e-04  2.398534e-03  0 
 2.398534e-03  4.771692e-03  0 
 0  0  0 

 8.164836e-04  3.086779e-03  0 
 3.086779e-03  2.252948e-03  0 
 0  0  0 

 -1.010518e-01  -9.557736e-02  0 
 -9.557736e-02  1.131737e+00  0 
 0  0  0 

 -2.452489e-01  -4.005996e-01  0 
 -4.005996e-01  9.432685e-01  0 
 0  0  0 

 -6.629493e-02  2.504646e-02  0 
 2.504646e-02  1.945974e-01  0 
 0  0  0 

 -3.006632e-01  6.387870e-02  0 
 6.387870e-02  1.915597e-01  0 
 0  0  0 

 -3.502014e-01  -2.605170e-01  0 
 -2.605170e-01  -1.405321e-01  0 
 0  0  0 

 -1.892803e-01  -1.643435e-01  0 
 -1.643435e-01  1.951219e+00  0 
 0  0  0 

 -2.024708e-01  -6.873672e-01  0 
 -6.873672e-01  8.211752e-01  0 
 0  0  0 

 -1.634049e-01  -1.345481e-01  0 
 -1.345481e-01  4.897156e-01  0 
 0  0  0 

 2.380194e-02  1.475722e-01  0 
 1.475722e-01  1.843918e-01  0 
 0  0  0 

 6.366126e-02  -5.226640e-01  0 
 -5.226640e-01  4.276354e-01  0 
 0  0  0 

 2.886360e-02  3.853976e-02  0 
 3.853976e-02  9.049822e-02  0 
 0  0  0 

 -1.437922e-04  -1.339686e-03  0 
 -1.339686e-03  1.372561e-03  0 
 0  0  0 

 -3.320533e-03  3.034058e-04  0 
 3.034058e-04  -9.874674e-03  0 
 0  0  0 

 -2.679894e-03  -2.213980e-03  0 
 -2.213980e-03  -7.436901e-03  0 
 0  0  0 

 -9.121578e-04  -2.621462e-03  0 
 -2.621462e-03  -7.609669e-03  0 
 0  0  0 

 -4.142577e-04  -1.740468e-03  0 
 -1.740468e-03  -1.666774e-03  0 
 0  0  0 

 -2.637304e-03  1.523391e-03  0 
 1.523391e-03  -7.764208e-03  0 
 0  0  0 

 -1.158001e-03  2.453004e-03  0 
 2.453004e-03  -8.319893e-03  0 
 0  0  0 

 -7.122310e-04  1.455656e-03  0 
 1.455656e-03  1.668267e-03  0 
 0  0  0 

 3.464018e-04  2.657509e-03  0 
 2.657509e-03  -1.670231e-03  0 
 0  0  0 

TENSORS element_stresses FLOAT
 -1.613903e-03  4.718615e-03  0 
 4.718615e-03  6.778814e-04  0 
 0  0  0 

 -3.260178e-03  2.222297e-03  0 
 2.222297e-03  3.878988e-05  0 
 0  0  0 

 -3.506377e-03  2.368469e-03  0 
 2.368469e-03  -1.701097e-03  0 
 0  0  0 

 2.474637e-04  2.398534e-03  0 
 2.398534e-03  4.771692e-03  0 
 0  0  0 

 8.164836e-04  3.086779e-03  0 
 3.086779e-03  2.252948e-03  0 
 0  0  0 

 -1.010518e-01  -9.557736e-02  0 
 -9.557736e-02  1.131737e+00  0 
 0  0  0 

 -2.452489e-01  -4.005996e-01  0 
 -4.005996e-01  9.432685e-01  0 
 0  0  0 

 -6.629493e-02  2.504646e-02  0 
 2.504646e-02  1.945974e-01  0 
 0  0  0 

 -3.006632e-01  6.387870e-02  0 
 6.387870e-02  1.915597e-01  0 
 0  0  0 

 -3.502014e-01  -2.605170e-01  0 
 -2.605170e-01  -1.405321e-01  0 
 0  0  0 

 -1.892803e-01  -1.643435e-01  0 
 -1.643435e-01  1.951219e+00  0 
 0  0  0 

 -2.024708e-01  -6.873672e-01  0 
 -6.873672e-01  8.211752e-01  0 
 0  0  0 

 -1.634049e-01  -1.345481e-01  0 
 -1.345481e-01  4.897156e-01  0 
 0  0  0 

 2.380194e-02  1.475722e-01  0 
 1.475722e-01  1.843918e-01  0 
 0  0  0 

 6.366126e-02  -5.226640e-01  0 
 -5.226640e-01  4.276354e-01  0 
 0  0  0 

 2.886360e-02  3.853976e-02  0 
 3.853976e-02  9.049822e-02  0 
 0  0  0 

 -1.437922e-04  -1.339686e-03  0 
 -1.339686e-03  1.372561e-03  0 
 0  0  0 

 -3.320533e-03  3.034058e-04  0 
 3.034058e-04  -9.874674e-03  0 
 0  0  0 

 -2.679894e-03  -2.213980e-03  0 
 -2.213980e-03  -7.436901e-03  0 
 0  0  0 

 -9.121578e-04  -2.621462e-03  0 
 -2.621462e-03  -7.609669e-03  0 
 0  0  0 

 -4.142577e-04  -1.740468e-03  0 
 -1.740468e-03  -1.666774e-03  0 
 0  0  0 

 -2.637304e-03  1.523391e-03  0 
 1.523391e-03  -7.764208e-03  0 
 0  0  0 

 -1.158001e-03  2.453004e-03  0 
 2.453004e-03  -8.319893e-03  0 
 0  0  0 

 -7.122310e-04  1.455656e-03  0 
 1.455656e-03  1.668267e-03  0 
 0  0  0 

 3.464018e-04  2.657509e-03  0 
 2.657509e-03  -1.670231e-03  0 
 0  0  0 

