# vtk DataFile Version 3.1
this is an vtk file created by FEMAC
ASCII
DATASET UNSTRUCTURED_GRID
POINTS 31 FLOAT
3.000000 0.000000 0.000000
3.000000 1.000000 0.000000
2.500000 0.000000 0.000000
2.750000 0.000000 0.000000
3.250000 0.000000 0.000000
3.500000 0.000000 0.000000
3.000000 0.250000 0.000000
3.000000 0.500000 0.000000
3.000000 0.750000 0.000000
3.250000 1.000000 0.000000
3.500000 1.000000 0.000000
2.462570 0.272476 0.000000
2.787596 0.660045 0.000000
2.828307 0.162952 0.000000
2.638134 0.825570 0.000000
2.502535 0.594871 0.000000
2.746177 0.372389 0.000000
2.660592 0.165804 0.000000
2.835146 0.847123 0.000000
3.462570 0.272476 0.000000
3.214699 0.660302 0.000000
3.638134 0.825570 0.000000
3.371728 0.825957 0.000000
3.502535 0.594871 0.000000
3.217467 0.400442 0.000000
3.167285 0.847252 0.000000
3.238340 0.153820 0.000000
3.218472 1.189265 0.000000
3.624223 1.213075 0.000000
3.378554 1.338380 0.000000
3.394250 1.148144 0.000000
CELLS 43 172 
3 12  7  8
3 13  3  0
3 6 13  0
3 15 12 14
3 12 16  7
3 16 15 11
3 12 15 16
3 16  6  7
3 13  6 16
3 13 17  3
3 8 18 12
3 18  8  1
3 17 16 11
3 13 16 17
3 14 12 18
3 17  2  3
3 2 17 11
3 7 20  8
3 10 22 21
3 24 20  7
3 23 24 19
3 23 20 24
3 9 22 10
3 6 24  7
3 23 22 20
3 21 22 23
3 8 25  1
3 25  9  1
3 25  8 20
3 25 22  9
3 20 22 25
3 4 26  0
3 26  6  0
3 5 26  4
3 24 26 19
3 26 24  6
3 5 19 26
3 1  9 27
3 29 30 28
3 30 29 27
3 30 10 28
3 30  9 10
3 27  9 30
CELL_TYPES 43
5 5 5 5 5 5 5 5 5 5 5 5 5 5 5 5 5 5 5 5 5 5 5 5 5 5 5 5 5 5 5 5 5 5 5 5 5 5 5 5 5 5 5 
POINT_DATA 31
VECTORS displacement_ITER1 FLOAT
 -1.344574e-01  -1.268072e-01  0 
 -8.969426e-02  -1.265698e-01  0 
 -1.343880e-01  -1.042578e-01  0 
 -1.344208e-01  -1.155210e-01  0 
 -1.622511e-01  -1.664598e-01  0 
 -1.876091e-01  -2.053105e-01  0 
 -1.231749e-01  -1.267559e-01  0 
 -1.119292e-01  -1.267097e-01  0 
 -1.007303e-01  -1.266486e-01  0 
 -8.973267e-02  -1.431677e-01  0 
 -8.975888e-02  -1.597631e-01  0 
 -1.221329e-01  -1.025652e-01  0 
 -1.047387e-01  -1.171660e-01  0 
 -1.270814e-01  -1.190314e-01  0 
 -9.733714e-02  -1.104684e-01  0 
 -1.076465e-01  -1.043745e-01  0 
 -1.176456e-01  -1.153189e-01  0 
 -1.269405e-01  -1.114752e-01  0 
 -9.639814e-02  -1.192936e-01  0 
 -1.370004e-01  -1.710154e-01  0 
 -1.089498e-01  -1.412160e-01  0 
 -1.141655e-01  -1.821855e-01  0 
 -1.037695e-01  -1.513549e-01  0 
 -1.206526e-01  -1.667614e-01  0 
 -1.216967e-01  -1.441957e-01  0 
 -9.879816e-02  -1.365757e-01  0 
 -1.385059e-01  -1.484378e-01  0 
 -7.718807e-02  -1.410630e-01  0 
 -7.561825e-02  -1.680000e-01  0 
 -6.730163e-02  -1.516881e-01  0 
 -7.992046e-02  -1.527308e-01  0 
VECTORS displacement_ITER2 FLOAT
 -8.277628e-02  -8.119534e-02  0 
 -4.085095e-02  -8.106233e-02  0 
 -8.273709e-02  -6.007883e-02  0 
 -8.275824e-02  -7.063088e-02  0 
 -9.666227e-02  -1.039273e-01  0 
 -1.105495e-01  -1.253120e-01  0 
 -7.221395e-02  -8.117304e-02  0 
 -6.165628e-02  -8.116450e-02  0 
 -5.111264e-02  -8.115210e-02  0 
 -4.093023e-02  -7.894452e-02  0 
 -4.097042e-02  -7.677473e-02  0 
 -7.125473e-02  -5.849183e-02  0 
 -5.491446e-02  -7.222763e-02  0 
 -7.588182e-02  -7.392847e-02  0 
 -4.794102e-02  -6.591691e-02  0 
 -5.766575e-02  -6.018360e-02  0 
 -6.704289e-02  -7.045868e-02  0 
 -7.575618e-02  -6.684667e-02  0 
 -4.705950e-02  -7.427772e-02  0 
 -8.106233e-02  -1.071919e-01  0 
 -5.684383e-02  -8.496820e-02  0 
 -6.651451e-02  -1.003559e-01  0 
 -5.244310e-02  -8.338828e-02  0 
 -6.879015e-02  -1.008843e-01  0 
 -6.944301e-02  -9.081326e-02  0 
 -4.795843e-02  -8.104934e-02  0 
 -8.249006e-02  -9.452572e-02  0 
 -4.259601e-02  -7.919181e-02  0 
 -4.283350e-02  -7.564736e-02  0 
 -4.394714e-02  -7.780044e-02  0 
 -4.224855e-02  -7.766759e-02  0 
VECTORS displacement_ITER3 FLOAT
 -5.137217e-02  -4.102516e-02  0 
 -2.632519e-02  -4.104710e-02  0 
 -5.136511e-02  -2.837605e-02  0 
 -5.137078e-02  -3.470763e-02  0 
 -5.260238e-02  -4.550794e-02  0 
 -5.602856e-02  -4.702741e-02  0 
 -4.505836e-02  -4.102450e-02  0 
 -3.872803e-02  -4.105388e-02  0 
 -3.236552e-02  -4.109546e-02  0 
 -2.643299e-02  -4.015665e-02  0 
 -2.646237e-02  -3.913092e-02  0 
 -4.449015e-02  -2.744498e-02  0 
 -3.468605e-02  -3.570318e-02  0 
 -4.725496e-02  -3.668550e-02  0 
 -3.048191e-02  -3.189002e-02  0 
 -3.634896e-02  -2.843138e-02  0 
 -4.197428e-02  -3.461395e-02  0 
 -4.718075e-02  -3.244572e-02  0 
 -2.994859e-02  -3.699192e-02  0 
 -4.837394e-02  -4.624948e-02  0 
 -3.561898e-02  -4.134704e-02  0 
 -3.743937e-02  -3.772066e-02  0 
 -3.277191e-02  -4.013385e-02  0 
 -4.010250e-02  -4.406356e-02  0 
 -4.262970e-02  -4.280026e-02  0 
 -3.072952e-02  -4.044078e-02  0 
 -4.929637e-02  -4.426012e-02  0 
 -2.722136e-02  -4.025097e-02  0 
 -2.737078e-02  -3.858955e-02  0 
 -2.790506e-02  -3.962045e-02  0 
 -2.707332e-02  -3.955304e-02  0 
VECTORS displacement_ITER4 FLOAT
 -2.484725e-02  -2.029860e-02  0 
 -1.412404e-02  -2.011840e-02  0 
 -2.488696e-02  -1.467326e-02  0 
 -2.485299e-02  -1.751250e-02  0 
 -2.417749e-02  -2.011207e-02  0 
 -2.523687e-02  -1.941518e-02  0 
 -2.206659e-02  -2.028658e-02  0 
 -1.926703e-02  -2.030106e-02  0 
 -1.644756e-02  -2.031135e-02  0 
 -1.429674e-02  -1.989936e-02  0 
 -1.439378e-02  -1.965069e-02  0 
 -2.178865e-02  -1.432275e-02  0 
 -1.749059e-02  -1.795908e-02  0 
 -2.302812e-02  -1.838347e-02  0 
 -1.564696e-02  -1.626794e-02  0 
 -1.823381e-02  -1.470490e-02  0 
 -2.070829e-02  -1.745764e-02  0 
 -2.298796e-02  -1.652358e-02  0 
 -1.542581e-02  -1.859160e-02  0 
 -2.226644e-02  -2.023242e-02  0 
 -1.685435e-02  -1.988047e-02  0 
 -1.285946e-02  -1.567708e-02  0 
 -1.472537e-02  -1.973615e-02  0 
 -1.634838e-02  -1.896599e-02  0 
 -1.996151e-02  -1.940228e-02  0 
 -1.523745e-02  -2.019538e-02  0 
 -2.331105e-02  -2.003642e-02  0 
 -1.452641e-02  -1.984642e-02  0 
 -1.456954e-02  -1.959469e-02  0 
 -1.468367e-02  -1.974334e-02  0 
 -1.451168e-02  -1.971939e-02  0 
VECTORS displacement_ITER5 FLOAT
 -1.223938e-02  -9.268972e-03  0 
 -4.530294e-03  -8.791133e-03  0 
 -1.228893e-02  -4.848810e-03  0 
 -1.225504e-02  -7.082368e-03  0 
 -1.068818e-02  -9.062446e-03  0 
 -9.825558e-03  -8.659665e-03  0 
 -1.006182e-02  -9.250692e-03  0 
 -7.932379e-03  -9.195618e-03  0 
 -5.904644e-03  -9.071275e-03  0 
 -4.722509e-03  -8.314166e-03  0 
 -4.846007e-03  -7.847517e-03  0 
 -9.905074e-03  -4.634774e-03  0 
 -6.608500e-03  -7.457190e-03  0 
 -1.081718e-02  -7.777857e-03  0 
 -5.339015e-03  -6.288848e-03  0 
 -7.138505e-03  -5.089111e-03  0 
 -9.003019e-03  -7.090419e-03  0 
 -1.080178e-02  -6.317652e-03  0 
 -5.212606e-03  -7.896130e-03  0 
 -9.575034e-03  -1.014517e-02  0 
 -6.512198e-03  -9.217571e-03  0 
 -5.804075e-03  -8.118003e-03  0 
 -5.531897e-03  -8.705038e-03  0 
 -7.019898e-03  -9.661349e-03  0 
 -8.616252e-03  -9.589242e-03  0 
 -5.351329e-03  -8.841639e-03  0 
 -1.048203e-02  -9.827753e-03  0 
 -5.138092e-03  -8.280883e-03  0 
 -5.181193e-03  -7.704647e-03  0 
 -5.409139e-03  -8.032167e-03  0 
 -5.081839e-03  -7.994630e-03  0 
VECTORS displacement_ITER6 FLOAT
 -5.584048e-03  -4.122076e-03  0 
 -2.309144e-03  -3.887315e-03  0 
 -5.564156e-03  -2.299305e-03  0 
 -5.584140e-03  -3.196521e-03  0 
 -5.426138e-03  -4.336732e-03  0 
 -5.748080e-03  -4.391460e-03  0 
 -4.655495e-03  -4.132594e-03  0 
 -3.722066e-03  -4.133101e-03  0 
 -2.818524e-03  -4.081286e-03  0 
 -2.488708e-03  -3.820260e-03  0 
 -2.617525e-03  -3.720811e-03  0 
 -4.602745e-03  -2.131148e-03  0 
 -3.138235e-03  -3.377319e-03  0 
 -4.984964e-03  -3.490952e-03  0 
 -2.551137e-03  -2.847154e-03  0 
 -3.386933e-03  -2.326749e-03  0 
 -4.203952e-03  -3.202228e-03  0 
 -4.982977e-03  -2.862747e-03  0 
 -2.511734e-03  -3.572454e-03  0 
 -4.732019e-03  -4.306369e-03  0 
 -3.348418e-03  -4.119591e-03  0 
 -3.508572e-03  -4.118860e-03  0 
 -3.096709e-03  -3.910663e-03  0 
 -3.853706e-03  -4.183718e-03  0 
 -4.209423e-03  -4.272120e-03  0 
 -2.804808e-03  -3.923418e-03  0 
 -5.026756e-03  -4.288866e-03  0 
 -2.598917e-03  -3.745113e-03  0 
 -2.652407e-03  -3.715014e-03  0 
 -2.686999e-03  -3.710034e-03  0 
 -2.621821e-03  -3.708991e-03  0 
VECTORS displacement_ITER7 FLOAT
 -3.895379e-03  -3.355124e-03  0 
 -2.058925e-03  -3.061146e-03  0 
 -3.903052e-03  -2.235514e-03  0 
 -3.897080e-03  -2.791992e-03  0 
 -4.089803e-03  -3.868412e-03  0 
 -4.476275e-03  -4.445011e-03  0 
 -3.330860e-03  -3.352867e-03  0 
 -2.762539e-03  -3.334075e-03  0 
 -2.239156e-03  -3.255145e-03  0 
 -2.232039e-03  -3.310045e-03  0 
 -2.351690e-03  -3.533735e-03  0 
 -3.282849e-03  -2.149221e-03  0 
 -2.408505e-03  -2.880300e-03  0 
 -3.527995e-03  -2.969540e-03  0 
 -2.053574e-03  -2.559784e-03  0 
 -2.556475e-03  -2.252671e-03  0 
 -3.049793e-03  -2.784463e-03  0 
 -3.523716e-03  -2.593616e-03  0 
 -2.065828e-03  -2.971946e-03  0 
 -3.511729e-03  -3.753694e-03  0 
 -2.709095e-03  -3.451491e-03  0 
 -3.015659e-03  -3.884356e-03  0 
 -2.677619e-03  -3.420623e-03  0 
 -3.174051e-03  -3.594175e-03  0 
 -3.144045e-03  -3.612349e-03  0 
 -2.393057e-03  -3.248576e-03  0 
 -3.611255e-03  -3.651637e-03  0 
 -2.101698e-03  -3.194965e-03  0 
 -2.159800e-03  -3.622961e-03  0 
 -2.027940e-03  -3.349124e-03  0 
 -2.180102e-03  -3.381469e-03  0 
VECTORS displacement_ITER8 FLOAT
 -3.574116e-03  -3.228590e-03  0 
 -1.859205e-03  -2.947607e-03  0 
 -3.583552e-03  -2.157965e-03  0 
 -3.577745e-03  -2.694768e-03  0 
 -3.830658e-03  -3.798537e-03  0 
 -4.219317e-03  -4.340922e-03  0 
 -3.041478e-03  -3.223944e-03  0 
 -2.519237e-03  -3.201181e-03  0 
 -2.063947e-03  -3.113435e-03  0 
 -2.031560e-03  -3.114014e-03  0 
 -2.167325e-03  -3.313225e-03  0 
 -3.012370e-03  -2.103514e-03  0 
 -2.199936e-03  -2.792054e-03  0 
 -3.227162e-03  -2.865357e-03  0 
 -1.889859e-03  -2.519244e-03  0 
 -2.333065e-03  -2.231573e-03  0 
 -2.781173e-03  -2.700732e-03  0 
 -3.225789e-03  -2.508596e-03  0 
 -1.908302e-03  -2.858563e-03  0 
 -3.431716e-03  -3.627379e-03  0 
 -2.506064e-03  -3.236010e-03  0 
 -2.699957e-03  -3.546003e-03  0 
 -2.440145e-03  -3.200369e-03  0 
 -2.991235e-03  -3.347213e-03  0 
 -2.929145e-03  -3.420343e-03  0 
 -2.185515e-03  -3.078559e-03  0 
 -3.386732e-03  -3.574456e-03  0 
 -1.927903e-03  -2.995739e-03  0 
 -1.976590e-03  -3.406476e-03  0 
 -1.849385e-03  -3.127922e-03  0 
 -2.000468e-03  -3.162343e-03  0 
VECTORS displacement_ITER9 FLOAT
 -3.292222e-03  -3.247579e-03  0 
 -1.739064e-03  -2.979474e-03  0 
 -3.297403e-03  -2.279193e-03  0 
 -3.294536e-03  -2.762154e-03  0 
 -3.559294e-03  -3.820361e-03  0 
 -3.900025e-03  -4.155935e-03  0 
 -2.807104e-03  -3.244439e-03  0 
 -2.327696e-03  -3.225291e-03  0 
 -1.907218e-03  -3.146712e-03  0 
 -1.912011e-03  -3.053347e-03  0 
 -2.050806e-03  -3.196709e-03  0 
 -2.778775e-03  -2.219996e-03  0 
 -2.035451e-03  -2.851990e-03  0 
 -2.976602e-03  -2.916737e-03  0 
 -1.732238e-03  -2.585472e-03  0 
 -2.161542e-03  -2.336921e-03  0 
 -2.569069e-03  -2.765407e-03  0 
 -2.975202e-03  -2.591921e-03  0 
 -1.760706e-03  -2.909526e-03  0 
 -3.426495e-03  -3.625544e-03  0 
 -2.359356e-03  -3.179739e-03  0 
 -2.580677e-03  -3.310526e-03  0 
 -2.307614e-03  -3.100457e-03  0 
 -2.906378e-03  -3.265293e-03  0 
 -2.786396e-03  -3.385947e-03  0 
 -2.049577e-03  -3.042591e-03  0 
 -3.225304e-03  -3.640622e-03  0 
 -1.855565e-03  -2.935942e-03  0 
 -1.903693e-03  -3.267765e-03  0 
 -1.800836e-03  -3.041330e-03  0 
 -1.917062e-03  -3.068398e-03  0 
VECTORS displacement_ITER10 FLOAT
 -3.378076e-03  -3.109387e-03  0 
 -1.836807e-03  -2.839697e-03  0 
 -3.386113e-03  -2.140186e-03  0 
 -3.381039e-03  -2.623418e-03  0 
 -3.670981e-03  -3.723301e-03  0 
 -4.019727e-03  -4.114472e-03  0 
 -2.892514e-03  -3.104953e-03  0 
 -2.418061e-03  -3.079164e-03  0 
 -2.004635e-03  -3.000729e-03  0 
 -1.999336e-03  -2.951812e-03  0 
 -2.133029e-03  -3.134711e-03  0 
 -2.863253e-03  -2.080315e-03  0 
 -2.130421e-03  -2.709526e-03  0 
 -3.062015e-03  -2.778544e-03  0 
 -1.840520e-03  -2.451266e-03  0 
 -2.250323e-03  -2.206758e-03  0 
 -2.653137e-03  -2.627479e-03  0 
 -3.061102e-03  -2.453975e-03  0 
 -1.862524e-03  -2.769678e-03  0 
 -3.501436e-03  -3.576020e-03  0 
 -2.432506e-03  -3.064972e-03  0 
 -2.589276e-03  -3.190680e-03  0 
 -2.364684e-03  -3.015558e-03  0 
 -2.944919e-03  -3.186118e-03  0 
 -2.857335e-03  -3.264433e-03  0 
 -2.130750e-03  -2.929659e-03  0 
 -3.317750e-03  -3.529479e-03  0 
 -1.908354e-03  -2.832987e-03  0 
 -1.962385e-03  -3.206208e-03  0 
 -1.836531e-03  -2.958279e-03  0 
 -1.977642e-03  -2.990562e-03  0 
VECTORS displacement_ITER11 FLOAT
 -3.328433e-03  -3.051830e-03  0 
 -1.840941e-03  -2.790835e-03  0 
 -3.333122e-03  -2.123301e-03  0 
 -3.330683e-03  -2.585215e-03  0 
 -3.633254e-03  -3.683715e-03  0 
 -3.971049e-03  -4.086413e-03  0 
 -2.861865e-03  -3.048783e-03  0 
 -2.402459e-03  -3.027545e-03  0 
 -2.002525e-03  -2.947472e-03  0 
 -2.004281e-03  -2.915013e-03  0 
 -2.139269e-03  -3.106336e-03  0 
 -2.835144e-03  -2.063241e-03  0 
 -2.121713e-03  -2.668574e-03  0 
 -3.025101e-03  -2.733994e-03  0 
 -1.842302e-03  -2.421800e-03  0 
 -2.238813e-03  -2.177005e-03  0 
 -2.632347e-03  -2.588963e-03  0 
 -3.024261e-03  -2.421716e-03  0 
 -1.865577e-03  -2.724306e-03  0 
 -3.500144e-03  -3.524652e-03  0 
 -2.436330e-03  -3.013016e-03  0 
 -2.598596e-03  -3.194234e-03  0 
 -2.372199e-03  -2.973558e-03  0 
 -2.962339e-03  -3.136543e-03  0 
 -2.847790e-03  -3.215205e-03  0 
 -2.135295e-03  -2.881649e-03  0 
 -3.286329e-03  -3.490276e-03  0 
 -1.908429e-03  -2.796747e-03  0 
 -1.957001e-03  -3.186735e-03  0 
 -1.831860e-03  -2.925508e-03  0 
 -1.977825e-03  -2.957999e-03  0 
VECTORS displacement_ITER12 FLOAT
 -3.331366e-03  -3.055234e-03  0 
 -1.835910e-03  -2.793723e-03  0 
 -3.336578e-03  -2.121869e-03  0 
 -3.333680e-03  -2.586651e-03  0 
 -3.616220e-03  -3.672512e-03  0 
 -3.931847e-03  -4.035147e-03  0 
 -2.862965e-03  -3.051924e-03  0 
 -2.401848e-03  -3.030702e-03  0 
 -1.999493e-03  -2.951161e-03  0 
 -1.999145e-03  -2.917530e-03  0 
 -2.133636e-03  -3.108638e-03  0 
 -2.835837e-03  -2.062959e-03  0 
 -2.119875e-03  -2.670037e-03  0 
 -3.026704e-03  -2.736008e-03  0 
 -1.838827e-03  -2.421582e-03  0 
 -2.237468e-03  -2.176317e-03  0 
 -2.632611e-03  -2.590236e-03  0 
 -3.025711e-03  -2.422555e-03  0 
 -1.861547e-03  -2.726594e-03  0 
 -3.508807e-03  -3.523885e-03  0 
 -2.434613e-03  -3.015254e-03  0 
 -2.591123e-03  -3.209298e-03  0 
 -2.365650e-03  -2.977943e-03  0 
 -2.967157e-03  -3.150933e-03  0 
 -2.853488e-03  -3.219206e-03  0 
 -2.130597e-03  -2.884726e-03  0 
 -3.289471e-03  -3.496602e-03  0 
 -1.903873e-03  -2.799561e-03  0 
 -1.951882e-03  -3.187738e-03  0 
 -1.826537e-03  -2.929296e-03  0 
 -1.972659e-03  -2.960762e-03  0 
VECTORS displacement_ITER13 FLOAT
 -3.331236e-03  -3.055428e-03  0 
 -1.834994e-03  -2.794128e-03  0 
 -3.336354e-03  -2.121707e-03  0 
 -3.333531e-03  -2.586635e-03  0 
 -3.620218e-03  -3.676817e-03  0 
 -3.940332e-03  -4.044463e-03  0 
 -2.862613e-03  -3.052153e-03  0 
 -2.401191e-03  -3.031031e-03  0 
 -1.998560e-03  -2.951433e-03  0 
 -1.998167e-03  -2.917974e-03  0 
 -2.132569e-03  -3.108943e-03  0 
 -2.835512e-03  -2.062680e-03  0 
 -2.119010e-03  -2.670129e-03  0 
 -3.026440e-03  -2.736054e-03  0 
 -1.837790e-03  -2.421586e-03  0 
 -2.236739e-03  -2.175976e-03  0 
 -2.632168e-03  -2.590223e-03  0 
 -3.025449e-03  -2.422440e-03  0 
 -1.860556e-03  -2.726692e-03  0 
 -3.505359e-03  -3.532719e-03  0 
 -2.432625e-03  -3.017032e-03  0 
 -2.589858e-03  -3.198115e-03  0 
 -2.364006e-03  -2.978731e-03  0 
 -2.964177e-03  -3.154129e-03  0 
 -2.850759e-03  -3.221648e-03  0 
 -2.129197e-03  -2.885734e-03  0 
 -3.290191e-03  -3.497921e-03  0 
 -1.902862e-03  -2.800020e-03  0 
 -1.950900e-03  -3.188073e-03  0 
 -1.825862e-03  -2.929814e-03  0 
 -1.971679e-03  -2.961199e-03  0 
VECTORS displacement_ITER14 FLOAT
 -3.331538e-03  -3.055546e-03  0 
 -1.834985e-03  -2.794228e-03  0 
 -3.336695e-03  -2.121622e-03  0 
 -3.333839e-03  -2.586673e-03  0 
 -3.620040e-03  -3.676323e-03  0 
 -3.939971e-03  -4.043087e-03  0 
 -2.862841e-03  -3.052255e-03  0 
 -2.401355e-03  -3.031117e-03  0 
 -1.998683e-03  -2.951521e-03  0 
 -1.998152e-03  -2.918005e-03  0 
 -2.132585e-03  -3.108954e-03  0 
 -2.835708e-03  -2.062642e-03  0 
 -2.119146e-03  -2.670173e-03  0 
 -3.026687e-03  -2.736115e-03  0 
 -1.837901e-03  -2.421614e-03  0 
 -2.236897e-03  -2.175954e-03  0 
 -2.632357e-03  -2.590248e-03  0 
 -3.025688e-03  -2.422457e-03  0 
 -1.860654e-03  -2.726741e-03  0 
 -3.505162e-03  -3.532326e-03  0 
 -2.432607e-03  -3.017271e-03  0 
 -2.590115e-03  -3.198310e-03  0 
 -2.363958e-03  -2.979057e-03  0 
 -2.964087e-03  -3.155167e-03  0 
 -2.851020e-03  -3.221779e-03  0 
 -2.129179e-03  -2.885910e-03  0 
 -3.290300e-03  -3.497693e-03  0 
 -1.902876e-03  -2.800057e-03  0 
 -1.950918e-03  -3.188052e-03  0 
 -1.825917e-03  -2.929785e-03  0 
 -1.971690e-03  -2.961192e-03  0 
CELL_DATA 43
TENSORS element_stresses FLOAT
 -2.141005e-02  1.163506e-01  0 
 1.163506e-01  3.119610e-01  0 
 0  0  0 

 4.895761e-03  3.857921e-03  0 
 3.857921e-03  -1.435645e-02  0 
 0  0  0 

 8.488931e-03  2.062360e-02  0 
 2.062360e-02  1.571107e-02  0 
 0  0  0 

 4.963556e-03  -3.153872e-03  0 
 -3.153872e-03  -5.142688e-02  0 
 0  0  0 

 5.680286e-03  4.631061e-02  0 
 4.631061e-02  -2.821452e-02  0 
 0  0  0 

 3.035298e-02  2.572263e-02  0 
 2.572263e-02  -1.172695e-01  0 
 0  0  0 

 -3.744314e-03  4.329709e-02  0 
 4.329709e-02  -3.029536e-02  0 
 0  0  0 

 8.132456e-03  5.116981e-02  0 
 5.116981e-02  8.699180e-02  0 
 0  0  0 

 -7.298054e-03  4.017159e-02  0 
 4.017159e-02  -2.353145e-02  0 
 0  0  0 

 2.244181e-02  1.532983e-03  0 
 1.532983e-03  -1.149382e-02  0 
 0  0  0 

 -9.541853e-03  3.538994e-02  0 
 3.538994e-02  3.556676e-02  0 
 0  0  0 

 -2.887504e-01  -2.600315e-01  0 
 -2.600315e-01  5.425464e-01  0 
 0  0  0 

 4.350611e-02  2.946076e-02  0 
 2.946076e-02  -3.553937e-02  0 
 0  0  0 

 1.658540e-02  1.713305e-02  0 
 1.713305e-02  -3.218298e-02  0 
 0  0  0 

 -2.704586e-01  -8.276939e-02  0 
 -8.276939e-02  1.274822e-02  0 
 0  0  0 

 8.373941e-03  3.449153e-03  0 
 3.449153e-03  -1.016426e-02  0 
 0  0  0 

 2.507003e-02  5.324841e-03  0 
 5.324841e-03  -2.827804e-02  0 
 0  0  0 

 -1.376533e-03  1.105735e-03  0 
 1.105735e-03  -9.457595e-05  0 
 0  0  0 

 -9.757878e-04  8.690533e-04  0 
 8.690533e-04  -4.323743e-04  0 
 0  0  0 

 -1.211739e-03  8.283989e-04  0 
 8.283989e-04  4.179414e-04  0 
 0  0  0 

 -1.439321e-03  9.774370e-04  0 
 9.774370e-04  8.144721e-04  0 
 0  0  0 

 -1.372425e-03  9.949427e-04  0 
 9.949427e-04  3.720590e-04  0 
 0  0  0 

 -6.513813e-04  7.399416e-04  0 
 7.399416e-04  -3.788383e-04  0 
 0  0  0 

 -1.315696e-03  7.753162e-04  0 
 7.753162e-04  -3.101566e-04  0 
 0  0  0 

 -1.398457e-03  1.099965e-03  0 
 1.099965e-03  1.438773e-04  0 
 0  0  0 

 -8.317479e-04  9.966401e-04  0 
 9.966401e-04  4.695751e-05  0 
 0  0  0 

 -1.068120e-03  5.240233e-04  0 
 5.240233e-04  3.087355e-04  0 
 0  0  0 

 -6.981003e-04  5.508534e-04  0 
 5.508534e-04  -1.514414e-04  0 
 0  0  0 

 -1.420267e-03  9.445284e-04  0 
 9.445284e-04  2.729767e-04  0 
 0  0  0 

 -1.090224e-03  7.297310e-04  0 
 7.297310e-04  -2.924199e-04  0 
 0  0  0 

 -9.065891e-04  7.501017e-04  0 
 7.501017e-04  3.310587e-04  0 
 0  0  0 

 -9.473508e-04  -3.283924e-04  0 
 -3.283924e-04  6.888557e-04  0 
 0  0  0 

 -1.135144e-03  8.600531e-06  0 
 8.600531e-06  -3.273790e-04  0 
 0  0  0 

 -1.060110e-03  4.458526e-04  0 
 4.458526e-04  7.320506e-04  0 
 0  0  0 

 -1.650338e-03  7.021064e-04  0 
 7.021064e-04  5.632002e-04  0 
 0  0  0 

 -8.948739e-04  1.688054e-04  0 
 1.688054e-04  7.261032e-04  0 
 0  0  0 

 -1.277126e-03  2.278527e-04  0 
 2.278527e-04  1.344571e-03  0 
 0  0  0 

 -5.389603e-01  -7.725379e-02  0 
 -7.725379e-02  3.790254e-01  0 
 0  0  0 

 -1.083724e-01  -1.949571e-01  0 
 -1.949571e-01  4.929029e-02  0 
 0  0  0 

 -2.077270e-01  -1.130262e-01  0 
 -1.130262e-01  2.890648e-02  0 
 0  0  0 

 -1.173801e-01  -7.524484e-02  0 
 -7.524484e-02  2.088469e-01  0 
 0  0  0 

 -4.418357e-01  -4.736707e-02  0 
 -4.736707e-02  3.196468e-01  0 
 0  0  0 

 -1.515922e-01  -2.663197e-01  0 
 -2.663197e-01  4.440855e-01  0 
 0  0  0 

TENSORS element_stresses FLOAT
 -2.141005e-02  1.163506e-01  0 
 1.163506e-01  3.119610e-01  0 
 0  0  0 

 4.895761e-03  3.857921e-03  0 
 3.857921e-03  -1.435645e-02  0 
 0  0  0 

 8.488931e-03  2.062360e-02  0 
 2.062360e-02  1.571107e-02  0 
 0  0  0 

 4.963556e-03  -3.153872e-03  0 
 -3.153872e-03  -5.142688e-02  0 
 0  0  0 

 5.680286e-03  4.631061e-02  0 
 4.631061e-02  -2.821452e-02  0 
 0  0  0 

 3.035298e-02  2.572263e-02  0 
 2.572263e-02  -1.172695e-01  0 
 0  0  0 

 -3.744314e-03  4.329709e-02  0 
 4.329709e-02  -3.029536e-02  0 
 0  0  0 

 8.132456e-03  5.116981e-02  0 
 5.116981e-02  8.699180e-02  0 
 0  0  0 

 -7.298054e-03  4.017159e-02  0 
 4.017159e-02  -2.353145e-02  0 
 0  0  0 

 2.244181e-02  1.532983e-03  0 
 1.532983e-03  -1.149382e-02  0 
 0  0  0 

 -9.541853e-03  3.538994e-02  0 
 3.538994e-02  3.556676e-02  0 
 0  0  0 

 -2.887504e-01  -2.600315e-01  0 
 -2.600315e-01  5.425464e-01  0 
 0  0  0 

 4.350611e-02  2.946076e-02  0 
 2.946076e-02  -3.553937e-02  0 
 0  0  0 

 1.658540e-02  1.713305e-02  0 
 1.713305e-02  -3.218298e-02  0 
 0  0  0 

 -2.704586e-01  -8.276939e-02  0 
 -8.276939e-02  1.274822e-02  0 
 0  0  0 

 8.373941e-03  3.449153e-03  0 
 3.449153e-03  -1.016426e-02  0 
 0  0  0 

 2.507003e-02  5.324841e-03  0 
 5.324841e-03  -2.827804e-02  0 
 0  0  0 

 -1.376533e-03  1.105735e-03  0 
 1.105735e-03  -9.457595e-05  0 
 0  0  0 

 -9.757878e-04  8.690533e-04  0 
 8.690533e-04  -4.323743e-04  0 
 0  0  0 

 -1.211739e-03  8.283989e-04  0 
 8.283989e-04  4.179414e-04  0 
 0  0  0 

 -1.439321e-03  9.774370e-04  0 
 9.774370e-04  8.144721e-04  0 
 0  0  0 

 -1.372425e-03  9.949427e-04  0 
 9.949427e-04  3.720590e-04  0 
 0  0  0 

 -6.513813e-04  7.399416e-04  0 
 7.399416e-04  -3.788383e-04  0 
 0  0  0 

 -1.315696e-03  7.753162e-04  0 
 7.753162e-04  -3.101566e-04  0 
 0  0  0 

 -1.398457e-03  1.099965e-03  0 
 1.099965e-03  1.438773e-04  0 
 0  0  0 

 -8.317479e-04  9.966401e-04  0 
 9.966401e-04  4.695751e-05  0 
 0  0  0 

 -1.068120e-03  5.240233e-04  0 
 5.240233e-04  3.087355e-04  0 
 0  0  0 

 -6.981003e-04  5.508534e-04  0 
 5.508534e-04  -1.514414e-04  0 
 0  0  0 

 -1.420267e-03  9.445284e-04  0 
 9.445284e-04  2.729767e-04  0 
 0  0  0 

 -1.090224e-03  7.297310e-04  0 
 7.297310e-04  -2.924199e-04  0 
 0  0  0 

 -9.065891e-04  7.501017e-04  0 
 7.501017e-04  3.310587e-04  0 
 0  0  0 

 -9.473508e-04  -3.283924e-04  0 
 -3.283924e-04  6.888557e-04  0 
 0  0  0 

 -1.135144e-03  8.600531e-06  0 
 8.600531e-06  -3.273790e-04  0 
 0  0  0 

 -1.060110e-03  4.458526e-04  0 
 4.458526e-04  7.320506e-04  0 
 0  0  0 

 -1.650338e-03  7.021064e-04  0 
 7.021064e-04  5.632002e-04  0 
 0  0  0 

 -8.948739e-04  1.688054e-04  0 
 1.688054e-04  7.261032e-04  0 
 0  0  0 

 -1.277126e-03  2.278527e-04  0 
 2.278527e-04  1.344571e-03  0 
 0  0  0 

 -5.389603e-01  -7.725379e-02  0 
 -7.725379e-02  3.790254e-01  0 
 0  0  0 

 -1.083724e-01  -1.949571e-01  0 
 -1.949571e-01  4.929029e-02  0 
 0  0  0 

 -2.077270e-01  -1.130262e-01  0 
 -1.130262e-01  2.890648e-02  0 
 0  0  0 

 -1.173801e-01  -7.524484e-02  0 
 -7.524484e-02  2.088469e-01  0 
 0  0  0 

 -4.418357e-01  -4.736707e-02  0 
 -4.736707e-02  3.196468e-01  0 
 0  0  0 

 -1.515922e-01  -2.663197e-01  0 
 -2.663197e-01  4.440855e-01  0 
 0  0  0 

