# vtk DataFile Version 3.1
this is an vtk file created by FEMAC
ASCII
DATASET UNSTRUCTURED_GRID
POINTS 31 FLOAT
2.000000 2.000000 0.000000
2.000000 2.250000 0.000000
2.000000 2.500000 0.000000
2.250000 2.000000 0.000000
2.500000 2.000000 0.000000
2.750000 2.000000 0.000000
2.750000 3.000000 0.000000
3.000000 2.250000 0.000000
3.000000 2.500000 0.000000
1.745000 2.195000 0.000000
2.178356 1.674167 0.000000
2.341416 1.828194 0.000000
2.581646 1.808128 0.000000
2.401594 1.630720 0.000000
2.661856 1.507893 0.000000
2.832250 1.761003 0.000000
2.153954 1.850472 0.000000
2.528684 2.556014 0.000000
2.805000 2.745000 0.000000
2.667801 2.187778 0.000000
2.332917 2.187083 0.000000
2.500000 2.225000 0.000000
2.803850 2.340769 0.000000
2.566179 2.758843 0.000000
2.197089 2.339859 0.000000
2.413333 2.387500 0.000000
2.325606 2.588338 0.000000
2.590972 2.391667 0.000000
2.715781 2.548715 0.000000
2.844330 2.155709 0.000000
2.156001 2.155388 0.000000
CELLS 43 172 
3 0 1 9
3 3 11  4
3 12  5  4
3 13 11 10
3 16  3  0
3 12 15  5
3 16 11  3
3 10 11 16
3 4 11 12
3 12 11 13
3 13 14 12
3 12 14 15
3 19  4  5
3 4 20  3
3 19 21  4
3 21 20  4
3 25 20 21
3 19 27 21
3 1 24  2
3 22  7  8
3 22 27 19
3 23 28 18
3 25 24 20
3 25 27 17
3 25 21 27
3 23 18  6
3 2 24 26
3 25 17 26
3 26 24 25
3 28  8 18
3 22  8 28
3 17 27 28
3 22 28 27
3 5 29 19
3 30  1  0
3 30  3 20
3 3 30  0
3 22 29  7
3 22 19 29
3 30 24  1
3 20 24 30
3 26 17 23
3 17 28 23
CELL_TYPES 43
5 5 5 5 5 5 5 5 5 5 5 5 5 5 5 5 5 5 5 5 5 5 5 5 5 5 5 5 5 5 5 5 5 5 5 5 5 5 5 5 5 5 5 
POINT_DATA 31
VECTORS displacement_ITER1 FLOAT
 -4.600725e-02  -5.024557e-02  0 
 -3.153901e-02  -5.023255e-02  0 
 -1.707856e-02  -5.023498e-02  0 
 -4.601125e-02  -6.471951e-02  0 
 -4.602403e-02  -7.920802e-02  0 
 -4.603775e-02  -9.370687e-02  0 
 1.180031e-02  -9.366522e-02  0 
 -3.156740e-02  -1.081902e-01  0 
 -1.708881e-02  -1.081764e-01  0 
 -2.992343e-02  -7.557521e-03  0 
 -3.962811e-02  -6.729162e-02  0 
 -4.310280e-02  -7.094048e-02  0 
 -4.705383e-02  -8.547687e-02  0 
 -4.590205e-02  -7.867550e-02  0 
 -5.106194e-02  -9.321120e-02  0 
 -5.114297e-02  -1.046215e-01  0 
 -3.748927e-02  -5.890793e-02  0 
 -1.383914e-02  -8.086373e-02  0 
 -2.911422e-03  -9.685350e-02  0 
 -3.515783e-02  -8.893027e-02  0 
 -3.518903e-02  -6.952005e-02  0 
 -3.299800e-02  -7.920266e-02  0 
 -2.630304e-02  -9.681235e-02  0 
 -2.107523e-03  -8.304075e-02  0 
 -2.634427e-02  -6.164956e-02  0 
 -2.359020e-02  -7.417864e-02  0 
 -1.196726e-02  -6.909531e-02  0 
 -2.335065e-02  -8.447155e-02  0 
 -1.426075e-02  -9.169998e-02  0 
 -3.702293e-02  -9.916937e-02  0 
 -3.701981e-02  -5.927412e-02  0 
VECTORS displacement_ITER2 FLOAT
 -2.106301e-02  -5.402376e-02  0 
 -1.489886e-02  -5.402044e-02  0 
 -8.719814e-03  -5.401958e-02  0 
 -2.108324e-02  -6.022376e-02  0 
 -2.108745e-02  -6.643168e-02  0 
 -2.107652e-02  -7.264436e-02  0 
 3.598199e-03  -7.263833e-02  0 
 -1.488646e-02  -7.884738e-02  0 
 -8.719849e-03  -7.884489e-02  0 
 -1.215062e-02  -3.245695e-02  0 
 -2.023621e-02  -5.338704e-02  0 
 -2.023476e-02  -5.971389e-02  0 
 -2.304013e-02  -6.588957e-02  0 
 -2.271822e-02  -6.032992e-02  0 
 -2.513898e-02  -6.485978e-02  0 
 -2.620815e-02  -7.292749e-02  0 
 -1.748774e-02  -5.381481e-02  0 
 -7.331032e-03  -6.717433e-02  0 
 -2.679862e-03  -7.402830e-02  0 
 -1.642575e-02  -7.061481e-02  0 
 -1.645431e-02  -6.228635e-02  0 
 -1.551108e-02  -6.644546e-02  0 
 -1.264457e-02  -7.399529e-02  0 
 -2.324132e-03  -6.811209e-02  0 
 -1.267899e-02  -5.891666e-02  0 
 -1.149608e-02  -6.430055e-02  0 
 -6.528246e-03  -6.212726e-02  0 
 -1.139044e-02  -6.871536e-02  0 
 -7.514055e-03  -7.181764e-02  0 
 -1.721023e-02  -7.500196e-02  0 
 -1.723671e-02  -5.788838e-02  0 
VECTORS displacement_ITER3 FLOAT
 -5.824296e-03  -1.306197e-02  0 
 -5.062014e-03  -1.308796e-02  0 
 -4.231843e-03  -1.304977e-02  0 
 -5.903565e-03  -1.394817e-02  0 
 -5.945235e-03  -1.482574e-02  0 
 -5.969271e-03  -1.574529e-02  0 
 -2.557516e-03  -1.568991e-02  0 
 -5.080913e-03  -1.660125e-02  0 
 -4.228494e-03  -1.658042e-02  0 
 -4.599656e-03  -2.672886e-02  0 
 -1.078217e-02  -1.260123e-02  0 
 -8.298797e-03  -1.406074e-02  0 
 -1.242385e-02  -1.963466e-02  0 
 -1.704826e-02  -1.815711e-02  0 
 -3.734039e-02  -4.180520e-02  0 
 -2.674599e-02  -4.132821e-02  0 
 -6.199101e-03  -1.321963e-02  0 
 -4.033506e-03  -1.492422e-02  0 
 -3.400029e-03  -1.590163e-02  0 
 -5.286791e-03  -1.542112e-02  0 
 -5.275267e-03  -1.421144e-02  0 
 -5.153154e-03  -1.481523e-02  0 
 -4.763608e-03  -1.590194e-02  0 
 -3.344480e-03  -1.506460e-02  0 
 -4.770667e-03  -1.373970e-02  0 
 -4.604729e-03  -1.450738e-02  0 
 -3.925149e-03  -1.420135e-02  0 
 -4.589094e-03  -1.514194e-02  0 
 -4.058378e-03  -1.558873e-02  0 
 -5.405727e-03  -1.606037e-02  0 
 -5.359337e-03  -1.358895e-02  0 
VECTORS displacement_ITER4 FLOAT
 -8.543714e-03  1.170214e-03  0 
 -5.891497e-03  1.158754e-03  0 
 -3.128461e-03  1.205177e-03  0 
 -8.655779e-03  -1.641412e-03  0 
 -8.716430e-03  -4.454322e-03  0 
 -8.751582e-03  -7.317361e-03  0 
 2.500424e-03  -7.301045e-03  0 
 -5.916159e-03  -1.013527e-02  0 
 -3.107310e-03  -1.012291e-02  0 
 -3.822225e-03  -1.038184e-02  0 
 -3.788320e-03  -5.102915e-03  0 
 -7.176113e-03  -3.557263e-03  0 
 -9.493484e-03  -7.035506e-03  0 
 -7.388790e-03  -7.126898e-03  0 
 -1.276223e-02  -1.547115e-02  0 
 -1.441029e-02  -1.517313e-02  0 
 -5.324138e-03  -3.062927e-03  0 
 -2.485079e-03  -4.775086e-03  0 
 -3.606808e-04  -7.935895e-03  0 
 -6.607466e-03  -6.350609e-03  0 
 -6.591141e-03  -2.533808e-03  0 
 -6.180198e-03  -4.438086e-03  0 
 -4.890672e-03  -7.899178e-03  0 
 -2.046137e-04  -5.213699e-03  0 
 -4.906156e-03  -1.009297e-03  0 
 -4.369969e-03  -3.455252e-03  0 
 -2.130212e-03  -2.468755e-03  0 
 -4.321593e-03  -5.475847e-03  0 
 -2.564023e-03  -6.906363e-03  0 
 -6.980253e-03  -8.369520e-03  0 
 -6.911798e-03  -5.407098e-04  0 
VECTORS displacement_ITER5 FLOAT
 -4.885803e-03  1.482855e-03  0 
 -3.193431e-03  1.460253e-03  0 
 -1.383626e-03  1.490022e-03  0 
 -5.016431e-03  -3.965533e-04  0 
 -5.091239e-03  -2.271943e-03  0 
 -5.147010e-03  -4.218085e-03  0 
 2.348730e-03  -4.160498e-03  0 
 -3.232534e-03  -6.099287e-03  0 
 -1.356646e-03  -6.051832e-03  0 
 -1.884993e-03  -3.848387e-03  0 
 -3.711460e-03  -1.880855e-03  0 
 -4.877578e-03  -1.385582e-03  0 
 -5.600694e-03  -2.681014e-03  0 
 -4.603510e-03  -2.343932e-03  0 
 -4.627262e-03  -2.984424e-03  0 
 -6.121996e-03  -3.680392e-03  0 
 -3.930333e-03  -6.060529e-04  0 
 -9.409289e-04  -2.483798e-03  0 
 4.629305e-04  -4.589555e-03  0 
 -3.677578e-03  -3.540963e-03  0 
 -3.654205e-03  -9.711898e-04  0 
 -3.387201e-03  -2.252676e-03  0 
 -2.533546e-03  -4.579942e-03  0 
 5.685628e-04  -2.783921e-03  0 
 -2.545608e-03  3.775926e-05  0 
 -2.187750e-03  -1.595064e-03  0 
 -7.112627e-04  -9.443745e-04  0 
 -2.154274e-03  -2.949414e-03  0 
 -9.907799e-04  -3.908332e-03  0 
 -3.935742e-03  -4.918384e-03  0 
 -3.851166e-03  3.584041e-04  0 
VECTORS displacement_ITER6 FLOAT
 -1.208713e-03  -1.211080e-03  0 
 -1.028942e-03  -1.244730e-03  0 
 -7.095327e-04  -1.223103e-03  0 
 -1.354849e-03  -1.609097e-03  0 
 -1.434804e-03  -1.997958e-03  0 
 -1.500714e-03  -2.465998e-03  0 
 4.642352e-06  -2.377031e-03  0 
 -1.068534e-03  -2.853922e-03  0 
 -6.894614e-04  -2.775926e-03  0 
 -1.272014e-04  -8.994443e-04  0 
 -2.377665e-03  -7.205575e-06  0 
 -1.641412e-03  -1.272730e-03  0 
 -1.707973e-03  -1.885696e-03  0 
 -2.413869e-03  -9.946092e-04  0 
 -3.075673e-03  -1.570181e-03  0 
 -1.819540e-03  -2.711650e-03  0 
 -1.623319e-03  -4.185272e-04  0 
 -6.121787e-04  -2.037090e-03  0 
 -3.584081e-04  -2.491796e-03  0 
 -1.137752e-03  -2.266249e-03  0 
 -1.107877e-03  -1.689552e-03  0 
 -1.069078e-03  -1.977313e-03  0 
 -9.059026e-04  -2.492257e-03  0 
 -3.319410e-04  -2.107592e-03  0 
 -9.144790e-04  -1.494982e-03  0 
 -8.433012e-04  -1.837124e-03  0 
 -5.740285e-04  -1.710419e-03  0 
 -8.350255e-04  -2.132594e-03  0 
 -6.205821e-04  -2.345238e-03  0 
 -1.209680e-03  -2.603186e-03  0 
 -1.113954e-03  -1.408619e-03  0 
VECTORS displacement_ITER7 FLOAT
 -5.142485e-04  -1.123059e-03  0 
 -5.052298e-04  -1.160286e-03  0 
 -3.436704e-04  -1.143261e-03  0 
 -6.741998e-04  -1.369762e-03  0 
 -7.638314e-04  -1.605454e-03  0 
 -8.416790e-04  -1.927250e-03  0 
 6.533804e-05  -1.844760e-03  0 
 -5.534421e-04  -2.167368e-03  0 
 -3.236063e-04  -2.078441e-03  0 
 -2.734868e-04  -1.045085e-03  0 
 -9.000338e-04  -5.414201e-04  0 
 -6.884312e-04  -1.216060e-03  0 
 -7.955306e-04  -1.706199e-03  0 
 -1.114256e-03  -1.206217e-03  0 
 -1.846965e-03  -1.981783e-03  0 
 -1.046333e-03  -2.668570e-03  0 
 -6.680582e-04  -7.763512e-04  0 
 -2.804072e-04  -1.619941e-03  0 
 -1.386146e-04  -1.910636e-03  0 
 -5.825046e-04  -1.768058e-03  0 
 -5.447398e-04  -1.393426e-03  0 
 -5.328860e-04  -1.579406e-03  0 
 -4.418876e-04  -1.913574e-03  0 
 -1.247365e-04  -1.667784e-03  0 
 -4.462157e-04  -1.284452e-03  0 
 -4.062549e-04  -1.490243e-03  0 
 -2.640905e-04  -1.417953e-03  0 
 -4.012488e-04  -1.678261e-03  0 
 -2.836081e-04  -1.815836e-03  0 
 -6.396316e-04  -2.005303e-03  0 
 -5.271289e-04  -1.221017e-03  0 
VECTORS displacement_ITER8 FLOAT
 -4.460353e-04  -1.202943e-03  0 
 -4.770069e-04  -1.257782e-03  0 
 -3.431733e-04  -1.245970e-03  0 
 -6.203040e-04  -1.445524e-03  0 
 -7.153354e-04  -1.664595e-03  0 
 -7.924657e-04  -1.961278e-03  0 
 4.130678e-05  -1.898603e-03  0 
 -5.258755e-04  -2.186387e-03  0 
 -3.139126e-04  -2.111903e-03  0 
 -6.514032e-04  -7.435289e-04  0 
 -5.848554e-04  -1.106358e-03  0 
 -7.159289e-04  -1.341537e-03  0 
 -8.949592e-04  -1.651338e-03  0 
 -8.737910e-04  -1.416468e-03  0 
 -1.320256e-03  -1.769785e-03  0 
 -1.172400e-03  -2.113976e-03  0 
 -6.229522e-04  -1.005927e-03  0 
 -2.808202e-04  -1.675223e-03  0 
 -1.516294e-04  -1.962495e-03  0 
 -5.539650e-04  -1.811165e-03  0 
 -5.083689e-04  -1.459539e-03  0 
 -5.041562e-04  -1.634411e-03  0 
 -4.250903e-04  -1.949296e-03  0 
 -1.383395e-04  -1.723064e-03  0 
 -4.260629e-04  -1.361922e-03  0 
 -3.919078e-04  -1.550965e-03  0 
 -2.687409e-04  -1.487506e-03  0 
 -3.886532e-04  -1.728031e-03  0 
 -2.830987e-04  -1.863591e-03  0 
 -6.101544e-04  -2.031905e-03  0 
 -4.827531e-04  -1.296142e-03  0 
VECTORS displacement_ITER9 FLOAT
 -5.824792e-04  -9.140641e-04  0 
 -5.404940e-04  -1.002238e-03  0 
 -3.544776e-04  -1.015663e-03  0 
 -7.445708e-04  -1.243652e-03  0 
 -8.336096e-04  -1.523578e-03  0 
 -9.107253e-04  -1.871804e-03  0 
 1.363125e-04  -1.799872e-03  0 
 -5.936404e-04  -2.151870e-03  0 
 -3.194103e-04  -2.080554e-03  0 
 -6.121394e-04  -6.210377e-04  0 
 -4.367030e-04  -1.435051e-03  0 
 -7.381520e-04  -1.344839e-03  0 
 -9.089673e-04  -1.679731e-03  0 
 -8.045129e-04  -1.561131e-03  0 
 -1.321944e-03  -2.027901e-03  0 
 -1.190594e-03  -2.388723e-03  0 
 -5.800254e-04  -1.161832e-03  0 
 -2.764312e-04  -1.540014e-03  0 
 -1.149023e-04  -1.874817e-03  0 
 -6.256785e-04  -1.708093e-03  0 
 -5.808107e-04  -1.282386e-03  0 
 -5.679349e-04  -1.493997e-03  0 
 -4.681145e-04  -1.872800e-03  0 
 -9.714246e-05  -1.597187e-03  0 
 -4.635504e-04  -1.156863e-03  0 
 -4.207741e-04  -1.391469e-03  0 
 -2.587375e-04  -1.311314e-03  0 
 -4.177624e-04  -1.605456e-03  0 
 -2.787577e-04  -1.765583e-03  0 
 -6.850898e-04  -1.971259e-03  0 
 -5.647455e-04  -1.073107e-03  0 
VECTORS displacement_ITER10 FLOAT
 -5.568949e-04  -8.180031e-04  0 
 -5.194381e-04  -9.249443e-04  0 
 -3.362926e-04  -9.465415e-04  0 
 -7.184039e-04  -1.161409e-03  0 
 -8.045506e-04  -1.438720e-03  0 
 -8.784785e-04  -1.772644e-03  0 
 1.645849e-04  -1.759753e-03  0 
 -5.696032e-04  -2.054993e-03  0 
 -2.988479e-04  -1.984422e-03  0 
 -4.315006e-04  -7.850829e-04  0 
 -8.351695e-04  -7.513801e-04  0 
 -7.092271e-04  -1.230705e-03  0 
 -8.930724e-04  -1.587035e-03  0 
 -9.023080e-04  -1.354035e-03  0 
 -1.268814e-03  -1.899781e-03  0 
 -1.161245e-03  -2.158642e-03  0 
 -6.183864e-04  -9.191894e-04  0 
 -2.652716e-04  -1.459104e-03  0 
 -9.796739e-05  -1.813771e-03  0 
 -6.020660e-04  -1.617995e-03  0 
 -5.555947e-04  -1.201608e-03  0 
 -5.457835e-04  -1.408971e-03  0 
 -4.459801e-04  -1.782825e-03  0 
 -8.172552e-05  -1.524513e-03  0 
 -4.418732e-04  -1.079238e-03  0 
 -4.045649e-04  -1.307695e-03  0 
 -2.506416e-04  -1.225792e-03  0 
 -4.014745e-04  -1.521654e-03  0 
 -2.659075e-04  -1.688138e-03  0 
 -6.588521e-04  -1.879122e-03  0 
 -5.382166e-04  -9.900657e-04  0 
VECTORS displacement_ITER11 FLOAT
 -5.277193e-04  -8.129700e-04  0 
 -5.001112e-04  -9.216375e-04  0 
 -3.194091e-04  -9.370666e-04  0 
 -6.898150e-04  -1.151205e-03  0 
 -7.742338e-04  -1.420687e-03  0 
 -8.449436e-04  -1.740301e-03  0 
 1.679524e-04  -1.735408e-03  0 
 -5.476079e-04  -2.016765e-03  0 
 -2.900063e-04  -1.942944e-03  0 
 -4.150456e-04  -6.316731e-04  0 
 -6.111265e-04  -1.028004e-03  0 
 -7.018538e-04  -1.225374e-03  0 
 -8.989902e-04  -1.548526e-03  0 
 -8.292644e-04  -1.408564e-03  0 
 -1.220041e-03  -1.915312e-03  0 
 -1.189725e-03  -2.020952e-03  0 
 -5.754776e-04  -9.746567e-04  0 
 -2.568971e-04  -1.441133e-03  0 
 -9.895581e-05  -1.787771e-03  0 
 -5.802245e-04  -1.592800e-03  0 
 -5.333222e-04  -1.189835e-03  0 
 -5.249263e-04  -1.391452e-03  0 
 -4.285326e-04  -1.752441e-03  0 
 -8.460319e-05  -1.501178e-03  0 
 -4.255944e-04  -1.072518e-03  0 
 -3.890643e-04  -1.294931e-03  0 
 -2.414844e-04  -1.219047e-03  0 
 -3.866012e-04  -1.501401e-03  0 
 -2.595324e-04  -1.662066e-03  0 
 -6.365702e-04  -1.845477e-03  0 
 -5.149745e-04  -9.824384e-04  0 
VECTORS displacement_ITER12 FLOAT
 -5.235317e-04  -8.142014e-04  0 
 -4.959014e-04  -9.217281e-04  0 
 -3.123596e-04  -9.348260e-04  0 
 -6.857608e-04  -1.151943e-03  0 
 -7.701222e-04  -1.421323e-03  0 
 -8.423710e-04  -1.743671e-03  0 
 1.689372e-04  -1.736423e-03  0 
 -5.447818e-04  -2.016057e-03  0 
 -2.869276e-04  -1.941647e-03  0 
 -4.072402e-04  -6.198057e-04  0 
 -6.221275e-04  -1.006284e-03  0 
 -7.005147e-04  -1.214852e-03  0 
 -8.951154e-04  -1.547293e-03  0 
 -8.527782e-04  -1.377529e-03  0 
 -1.247745e-03  -1.923729e-03  0 
 -1.185288e-03  -2.011948e-03  0 
 -5.740413e-04  -9.878954e-04  0 
 -2.536426e-04  -1.441832e-03  0 
 -9.675212e-05  -1.787218e-03  0 
 -5.752257e-04  -1.593592e-03  0 
 -5.290239e-04  -1.190840e-03  0 
 -5.203645e-04  -1.392454e-03  0 
 -4.250181e-04  -1.751786e-03  0 
 -8.303221e-05  -1.501777e-03  0 
 -4.212927e-04  -1.073769e-03  0 
 -3.850683e-04  -1.296068e-03  0 
 -2.376462e-04  -1.219722e-03  0 
 -3.828031e-04  -1.501990e-03  0 
 -2.565063e-04  -1.661669e-03  0 
 -6.315200e-04  -1.845202e-03  0 
 -5.109888e-04  -9.832444e-04  0 
VECTORS displacement_ITER13 FLOAT
 -5.236552e-04  -8.148137e-04  0 
 -4.959722e-04  -9.221578e-04  0 
 -3.121264e-04  -9.348933e-04  0 
 -6.859507e-04  -1.152577e-03  0 
 -7.703146e-04  -1.422067e-03  0 
 -8.425158e-04  -1.744532e-03  0 
 1.684545e-04  -1.738412e-03  0 
 -5.448193e-04  -2.017265e-03  0 
 -2.866628e-04  -1.942769e-03  0 
 -4.117854e-04  -6.241328e-04  0 
 -6.187012e-04  -1.009018e-03  0 
 -7.021637e-04  -1.215451e-03  0 
 -8.903523e-04  -1.549148e-03  0 
 -8.446956e-04  -1.378330e-03  0 
 -1.238344e-03  -1.930740e-03  0 
 -1.176423e-03  -2.016800e-03  0 
 -5.829024e-04  -9.814058e-04  0 
 -2.534416e-04  -1.443005e-03  0 
 -9.664651e-05  -1.788140e-03  0 
 -5.751852e-04  -1.594559e-03  0 
 -5.291330e-04  -1.191527e-03  0 
 -5.203666e-04  -1.393307e-03  0 
 -4.248767e-04  -1.752873e-03  0 
 -8.303167e-05  -1.503272e-03  0 
 -4.213538e-04  -1.074362e-03  0 
 -3.850192e-04  -1.296979e-03  0 
 -2.373694e-04  -1.220568e-03  0 
 -3.826503e-04  -1.502998e-03  0 
 -2.562108e-04  -1.662747e-03  0 
 -6.314077e-04  -1.846420e-03  0 
 -5.111251e-04  -9.838192e-04  0 
VECTORS displacement_ITER14 FLOAT
 -5.236906e-04  -8.147689e-04  0 
 -4.959961e-04  -9.221064e-04  0 
 -3.121760e-04  -9.348631e-04  0 
 -6.859886e-04  -1.152534e-03  0 
 -7.703550e-04  -1.422038e-03  0 
 -8.425553e-04  -1.744530e-03  0 
 1.687098e-04  -1.738758e-03  0 
 -5.449032e-04  -2.017327e-03  0 
 -2.866700e-04  -1.942796e-03  0 
 -4.082162e-04  -6.281088e-04  0 
 -6.180534e-04  -1.007479e-03  0 
 -7.025229e-04  -1.214687e-03  0 
 -8.906990e-04  -1.548331e-03  0 
 -8.457210e-04  -1.379054e-03  0 
 -1.243556e-03  -1.930521e-03  0 
 -1.175952e-03  -2.014098e-03  0 
 -5.843655e-04  -9.803314e-04  0 
 -2.534502e-04  -1.442940e-03  0 
 -9.659166e-05  -1.788201e-03  0 
 -5.752253e-04  -1.594532e-03  0 
 -5.291673e-04  -1.191482e-03  0 
 -5.204000e-04  -1.393275e-03  0 
 -4.249220e-04  -1.752832e-03  0 
 -8.305430e-05  -1.503137e-03  0 
 -4.213782e-04  -1.074301e-03  0 
 -3.850353e-04  -1.296939e-03  0 
 -2.373516e-04  -1.220528e-03  0 
 -3.826813e-04  -1.502959e-03  0 
 -2.562455e-04  -1.662700e-03  0 
 -6.314621e-04  -1.846369e-03  0 
 -5.111560e-04  -9.837706e-04  0 
CELL_DATA 43
TENSORS element_stresses FLOAT
 -5.460802e-04  -7.304220e-04  0 
 -7.304220e-04  -5.931737e-04  0 
 0  0  0 

 -4.406767e-04  -8.933380e-04  0 
 -8.933380e-04  -3.440366e-04  0 
 0  0  0 

 -2.813292e-04  -6.043452e-04  0 
 -6.043452e-04  2.490598e-05  0 
 0  0  0 

 -9.125641e-04  -8.897932e-04  0 
 -8.897932e-04  7.183839e-05  0 
 0  0  0 

 -8.069650e-04  -1.241302e-03  0 
 -1.241302e-03  -5.259105e-04  0 
 0  0  0 

 -8.570608e-04  -5.290240e-04  0 
 -5.290240e-04  2.649601e-04  0 
 0  0  0 

 -8.327609e-04  -1.187638e-03  0 
 -1.187638e-03  -5.737371e-04  0 
 0  0  0 

 -6.852374e-04  -8.822168e-04  0 
 -8.822168e-04  -2.249381e-04  0 
 0  0  0 

 -8.098365e-04  -8.294660e-04  0 
 -8.294660e-04  -1.732455e-04  0 
 0  0  0 

 -6.765773e-04  -6.574150e-04  0 
 -6.574150e-04  2.168180e-04  0 
 0  0  0 

 -9.580137e-04  -6.612475e-04  0 
 -6.612475e-04  5.214705e-04  0 
 0  0  0 

 -7.917828e-04  -6.058419e-04  0 
 -6.058419e-04  5.799706e-04  0 
 0  0  0 

 -2.401799e-01  5.585924e-03  0 
 5.585924e-03  1.620703e-01  0 
 0  0  0 

 -2.819638e-01  -6.938909e-02  0 
 -6.938909e-02  1.850064e-01  0 
 0  0  0 

 -4.610061e-02  -4.624057e-02  0 
 -4.624057e-02  1.140047e-01  0 
 0  0  0 

 -1.772296e-01  -9.679561e-02  0 
 -9.679561e-02  7.466602e-02  0 
 0  0  0 

 -1.489526e-01  -3.302392e-01  0 
 -3.302392e-01  -9.043836e-02  0 
 0  0  0 

 -1.416081e-01  -2.337810e-01  0 
 -2.337810e-01  -4.555423e-02  0 
 0  0  0 

 3.082911e-02  -1.051287e-02  0 
 -1.051287e-02  -4.177822e-02  0 
 0  0  0 

 -4.863002e-02  -1.365733e-01  0 
 -1.365733e-01  2.835366e-01  0 
 0  0  0 

 3.552332e-02  -1.663841e-01  0 
 -1.663841e-01  1.816349e-02  0 
 0  0  0 

 -4.131519e-02  -2.934601e-01  0 
 -2.934601e-01  -1.067402e-01  0 
 0  0  0 

 -2.929002e-02  -2.210121e-01  0 
 -2.210121e-01  -1.328278e-01  0 
 0  0  0 

 -2.995235e-02  -2.874330e-01  0 
 -2.874330e-01  -8.268643e-02  0 
 0  0  0 

 -1.519406e-02  -2.534401e-01  0 
 -2.534401e-01  -2.994844e-02  0 
 0  0  0 

 -1.718880e-02  -1.201347e-01  0 
 -1.201347e-01  -6.951803e-02  0 
 0  0  0 

 -1.475864e-02  -8.582585e-02  0 
 -8.582585e-02  -1.611373e-01  0 
 0  0  0 

 9.908990e-03  -2.760653e-01  0 
 -2.760653e-01  -1.022749e-01  0 
 0  0  0 

 -1.475311e-02  -2.137656e-01  0 
 -2.137656e-01  -6.760688e-02  0 
 0  0  0 

 -2.555155e-02  -1.663122e-01  0 
 -1.663122e-01  -1.852669e-01  0 
 0  0  0 

 4.361166e-02  -1.205902e-01  0 
 -1.205902e-01  3.040620e-02  0 
 0  0  0 

 -9.208242e-03  -2.964337e-01  0 
 -2.964337e-01  -8.393125e-02  0 
 0  0  0 

 -2.884108e-02  -2.936048e-01  0 
 -2.936048e-01  -7.950570e-02  0 
 0  0  0 

 -9.136533e-03  2.264911e-03  0 
 2.264911e-03  1.866325e-01  0 
 0  0  0 

 -1.745034e-01  -4.191494e-01  0 
 -4.191494e-01  -4.817007e-01  0 
 0  0  0 

 -1.889957e-01  -2.117444e-01  0 
 -2.117444e-01  2.823947e-01  0 
 0  0  0 

 -6.247892e-01  -4.758775e-01  0 
 -4.758775e-01  8.134213e-02  0 
 0  0  0 

 -3.921223e-02  -1.132017e-01  0 
 -1.132017e-01  2.224254e-01  0 
 0  0  0 

 -6.615147e-02  -2.310171e-01  0 
 -2.310171e-01  1.815435e-01  0 
 0  0  0 

 7.470793e-02  -1.250956e-01  0 
 -1.250956e-01  -3.323764e-01  0 
 0  0  0 

 -2.950393e-01  -4.621320e-01  0 
 -4.621320e-01  -3.272905e-01  0 
 0  0  0 

 2.791029e-02  -2.149734e-01  0 
 -2.149734e-01  -8.325734e-02  0 
 0  0  0 

 -6.615172e-03  -2.621834e-01  0 
 -2.621834e-01  -8.106709e-02  0 
 0  0  0 

TENSORS element_stresses FLOAT
 -5.460802e-04  -7.304220e-04  0 
 -7.304220e-04  -5.931737e-04  0 
 0  0  0 

 -4.406767e-04  -8.933380e-04  0 
 -8.933380e-04  -3.440366e-04  0 
 0  0  0 

 -2.813292e-04  -6.043452e-04  0 
 -6.043452e-04  2.490598e-05  0 
 0  0  0 

 -9.125641e-04  -8.897932e-04  0 
 -8.897932e-04  7.183839e-05  0 
 0  0  0 

 -8.069650e-04  -1.241302e-03  0 
 -1.241302e-03  -5.259105e-04  0 
 0  0  0 

 -8.570608e-04  -5.290240e-04  0 
 -5.290240e-04  2.649601e-04  0 
 0  0  0 

 -8.327609e-04  -1.187638e-03  0 
 -1.187638e-03  -5.737371e-04  0 
 0  0  0 

 -6.852374e-04  -8.822168e-04  0 
 -8.822168e-04  -2.249381e-04  0 
 0  0  0 

 -8.098365e-04  -8.294660e-04  0 
 -8.294660e-04  -1.732455e-04  0 
 0  0  0 

 -6.765773e-04  -6.574150e-04  0 
 -6.574150e-04  2.168180e-04  0 
 0  0  0 

 -9.580137e-04  -6.612475e-04  0 
 -6.612475e-04  5.214705e-04  0 
 0  0  0 

 -7.917828e-04  -6.058419e-04  0 
 -6.058419e-04  5.799706e-04  0 
 0  0  0 

 -2.401799e-01  5.585924e-03  0 
 5.585924e-03  1.620703e-01  0 
 0  0  0 

 -2.819638e-01  -6.938909e-02  0 
 -6.938909e-02  1.850064e-01  0 
 0  0  0 

 -4.610061e-02  -4.624057e-02  0 
 -4.624057e-02  1.140047e-01  0 
 0  0  0 

 -1.772296e-01  -9.679561e-02  0 
 -9.679561e-02  7.466602e-02  0 
 0  0  0 

 -1.489526e-01  -3.302392e-01  0 
 -3.302392e-01  -9.043836e-02  0 
 0  0  0 

 -1.416081e-01  -2.337810e-01  0 
 -2.337810e-01  -4.555423e-02  0 
 0  0  0 

 3.082911e-02  -1.051287e-02  0 
 -1.051287e-02  -4.177822e-02  0 
 0  0  0 

 -4.863002e-02  -1.365733e-01  0 
 -1.365733e-01  2.835366e-01  0 
 0  0  0 

 3.552332e-02  -1.663841e-01  0 
 -1.663841e-01  1.816349e-02  0 
 0  0  0 

 -4.131519e-02  -2.934601e-01  0 
 -2.934601e-01  -1.067402e-01  0 
 0  0  0 

 -2.929002e-02  -2.210121e-01  0 
 -2.210121e-01  -1.328278e-01  0 
 0  0  0 

 -2.995235e-02  -2.874330e-01  0 
 -2.874330e-01  -8.268643e-02  0 
 0  0  0 

 -1.519406e-02  -2.534401e-01  0 
 -2.534401e-01  -2.994844e-02  0 
 0  0  0 

 -1.718880e-02  -1.201347e-01  0 
 -1.201347e-01  -6.951803e-02  0 
 0  0  0 

 -1.475864e-02  -8.582585e-02  0 
 -8.582585e-02  -1.611373e-01  0 
 0  0  0 

 9.908990e-03  -2.760653e-01  0 
 -2.760653e-01  -1.022749e-01  0 
 0  0  0 

 -1.475311e-02  -2.137656e-01  0 
 -2.137656e-01  -6.760688e-02  0 
 0  0  0 

 -2.555155e-02  -1.663122e-01  0 
 -1.663122e-01  -1.852669e-01  0 
 0  0  0 

 4.361166e-02  -1.205902e-01  0 
 -1.205902e-01  3.040620e-02  0 
 0  0  0 

 -9.208242e-03  -2.964337e-01  0 
 -2.964337e-01  -8.393125e-02  0 
 0  0  0 

 -2.884108e-02  -2.936048e-01  0 
 -2.936048e-01  -7.950570e-02  0 
 0  0  0 

 -9.136533e-03  2.264911e-03  0 
 2.264911e-03  1.866325e-01  0 
 0  0  0 

 -1.745034e-01  -4.191494e-01  0 
 -4.191494e-01  -4.817007e-01  0 
 0  0  0 

 -1.889957e-01  -2.117444e-01  0 
 -2.117444e-01  2.823947e-01  0 
 0  0  0 

 -6.247892e-01  -4.758775e-01  0 
 -4.758775e-01  8.134213e-02  0 
 0  0  0 

 -3.921223e-02  -1.132017e-01  0 
 -1.132017e-01  2.224254e-01  0 
 0  0  0 

 -6.615147e-02  -2.310171e-01  0 
 -2.310171e-01  1.815435e-01  0 
 0  0  0 

 7.470793e-02  -1.250956e-01  0 
 -1.250956e-01  -3.323764e-01  0 
 0  0  0 

 -2.950393e-01  -4.621320e-01  0 
 -4.621320e-01  -3.272905e-01  0 
 0  0  0 

 2.791029e-02  -2.149734e-01  0 
 -2.149734e-01  -8.325734e-02  0 
 0  0  0 

 -6.615172e-03  -2.621834e-01  0 
 -2.621834e-01  -8.106709e-02  0 
 0  0  0 

