# vtk DataFile Version 3.1
this is an vtk file created by FEMAC
ASCII
DATASET UNSTRUCTURED_GRID
POINTS 32 FLOAT
0.000000 4.000000 0.000000
1.000000 4.000000 0.000000
0.250000 4.000000 0.000000
0.500000 4.000000 0.000000
0.750000 4.000000 0.000000
0.000000 3.500000 0.000000
0.000000 3.750000 0.000000
0.000000 4.250000 0.000000
0.000000 4.500000 0.000000
1.000000 4.250000 0.000000
1.000000 4.500000 0.000000
1.000000 4.750000 0.000000
0.272476 3.537430 0.000000
0.660302 3.785301 0.000000
0.825570 3.361866 0.000000
0.825957 3.628272 0.000000
0.594871 3.497465 0.000000
0.400442 3.782533 0.000000
0.847252 3.832715 0.000000
0.153820 3.761660 0.000000
0.272476 4.537430 0.000000
0.660045 4.212404 0.000000
0.162952 4.171693 0.000000
0.825570 4.361866 0.000000
0.825957 4.628272 0.000000
0.594871 4.497465 0.000000
0.372389 4.253823 0.000000
0.165804 4.339408 0.000000
0.847252 4.832715 0.000000
0.847123 4.164854 0.000000
1.175045 4.338476 0.000000
1.200764 4.609959 0.000000
CELLS 43 172 
3 3 13  4
3 17 13  3
3 16 17 12
3 16 13 17
3 2 17  3
3 16 15 13
3 14 15 16
3 4 18  1
3 18  4 13
3 13 15 18
3 19  2  0
3 6 19  0
3 5 19  6
3 17 19 12
3 19 17  2
3 5 12 19
3 21  3  4
3 2 22  0
3 22  7  0
3 10 24 23
3 25 21 23
3 21 26  3
3 26 25 20
3 21 25 26
3 23  9 10
3 11 24 10
3 26  2  3
3 22  2 26
3 23 24 25
3 22 27  7
3 29  4  1
3 9 29  1
3 4 29 21
3 27 26 20
3 22 26 27
3 28 24 11
3 23 29  9
3 23 21 29
3 27  8  7
3 8 27 20
3 30 10  9
3 31 11 10
3 30 31 10
CELL_TYPES 43
5 5 5 5 5 5 5 5 5 5 5 5 5 5 5 5 5 5 5 5 5 5 5 5 5 5 5 5 5 5 5 5 5 5 5 5 5 5 5 5 5 5 5 
POINT_DATA 32
VECTORS displacement_ITER1 FLOAT
 0  0  0 
 -3.747458e-04  -1.381631e-03  0 
 -1.884882e-04  -1.849903e-04  0 
 -3.082454e-04  -5.007786e-04  0 
 -3.662978e-04  -9.420906e-04  0 
 0  0  0 
 0  0  0 
 0  0  0 
 0  0  0 
 5.018415e-05  -1.414633e-03  0 
 5.968818e-04  -1.577026e-03  0 
 1.374497e-03  -1.830013e-03  0 
 1.008350e-03  -1.499293e-04  0 
 4.815797e-03  -5.370434e-03  0 
 -4.989874e-03  -2.521731e-02  0 
 5.022609e-03  -1.370624e-02  0 
 2.464751e-03  -5.168400e-03  0 
 2.732843e-03  -1.878302e-03  0 
 3.993645e-03  -5.897534e-03  0 
 8.365120e-04  -5.103012e-04  0 
 2.869322e-04  -2.796315e-04  0 
 -2.492046e-05  -7.468400e-04  0 
 -9.878974e-06  -2.542348e-05  0 
 2.359550e-04  -1.080500e-03  0 
 8.875366e-04  -1.172352e-03  0 
 4.568182e-04  -6.217873e-04  0 
 3.980113e-05  -2.260845e-04  0 
 3.584528e-05  -3.645796e-05  0 
 1.719416e-03  -1.229361e-03  0 
 -1.050491e-04  -1.110161e-03  0 
 2.809047e-03  -1.372418e-02  0 
 1.684870e-02  -3.139826e-02  0 
VECTORS displacement_ITER2 FLOAT
 0  0  0 
 -3.333846e-04  -1.310017e-03  0 
 -1.761912e-04  -1.732786e-04  0 
 -2.864746e-04  -4.733456e-04  0 
 -3.356407e-04  -8.922809e-04  0 
 0  0  0 
 0  0  0 
 0  0  0 
 0  0  0 
 5.991306e-05  -1.345631e-03  0 
 5.782354e-04  -1.501958e-03  0 
 1.319731e-03  -1.750242e-03  0 
 1.814011e-03  2.320815e-04  0 
 4.931043e-03  -3.831965e-03  0 
 2.899437e-03  -1.507265e-02  0 
 6.953573e-03  -8.471269e-03  0 
 4.974277e-03  -3.026760e-03  0 
 2.745299e-03  -1.765595e-03  0 
 4.794633e-03  -3.850083e-03  0 
 8.678190e-04  -6.508206e-04  0 
 2.768372e-04  -2.701768e-04  0 
 -1.441025e-05  -7.118772e-04  0 
 -7.930769e-06  -2.384921e-05  0 
 2.346288e-04  -1.030163e-03  0 
 8.538135e-04  -1.117909e-03  0 
 4.426028e-04  -5.957670e-04  0 
 4.245043e-05  -2.158628e-04  0 
 3.565419e-05  -3.552638e-05  0 
 1.653201e-03  -1.170557e-03  0 
 -8.674977e-05  -1.057479e-03  0 
 3.177196e-03  -1.153277e-02  0 
 1.652784e-02  -2.783326e-02  0 
VECTORS displacement_ITER3 FLOAT
 0  0  0 
 -3.085107e-04  -1.347047e-03  0 
 -1.780515e-04  -1.777424e-04  0 
 -2.854697e-04  -4.861134e-04  0 
 -3.268944e-04  -9.156774e-04  0 
 0  0  0 
 0  0  0 
 0  0  0 
 0  0  0 
 7.537824e-05  -1.383494e-03  0 
 5.981383e-04  -1.535782e-03  0 
 1.336083e-03  -1.786398e-03  0 
 3.054806e-03  6.970574e-04  0 
 5.553004e-03  -2.341974e-03  0 
 1.389740e-02  -3.635532e-03  0 
 1.012612e-02  -2.796534e-03  0 
 8.797122e-03  -8.477782e-04  0 
 3.070723e-03  -1.882907e-03  0 
 6.211341e-03  -1.715463e-03  0 
 1.011861e-03  -9.227115e-04  0 
 2.890420e-04  -2.850033e-04  0 
 -2.253986e-06  -7.379060e-04  0 
 -6.723571e-06  -2.591840e-05  0 
 2.525427e-04  -1.063513e-03  0 
 8.735181e-04  -1.151030e-03  0 
 4.609982e-04  -6.239615e-04  0 
 4.862147e-05  -2.278090e-04  0 
 3.850246e-05  -3.925956e-05  0 
 1.670512e-03  -1.203704e-03  0 
 -7.090861e-05  -1.093140e-03  0 
 3.850628e-03  -9.501335e-03  0 
 1.685250e-02  -2.436412e-02  0 
VECTORS displacement_ITER4 FLOAT
 0  0  0 
 -2.533508e-04  -1.291163e-03  0 
 -1.659471e-04  -1.678958e-04  0 
 -2.610260e-04  -4.630612e-04  0 
 -2.891119e-04  -8.730980e-04  0 
 0  0  0 
 0  0  0 
 0  0  0 
 0  0  0 
 9.373236e-05  -1.323517e-03  0 
 5.806009e-04  -1.463639e-03  0 
 1.267409e-03  -1.703248e-03  0 
 3.685317e-03  1.056338e-03  0 
 5.386747e-03  -6.426068e-04  0 
 2.076673e-02  6.813665e-03  0 
 1.154902e-02  2.719537e-03  0 
 1.079848e-02  1.495538e-03  0 
 2.894256e-03  -1.641567e-03  0 
 6.755525e-03  4.562464e-04  0 
 9.775770e-04  -1.009956e-03  0 
 2.831529e-04  -2.821079e-04  0 
 1.513456e-05  -7.131170e-04  0 
 -4.347114e-06  -2.580227e-05  0 
 2.581932e-04  -1.024313e-03  0 
 8.365962e-04  -1.104952e-03  0 
 4.514890e-04  -6.110691e-04  0 
 5.384542e-05  -2.241789e-04  0 
 3.948511e-05  -4.061326e-05  0 
 1.582653e-03  -1.153092e-03  0 
 -4.241124e-05  -1.052442e-03  0 
 4.163596e-03  -6.947718e-03  0 
 1.616225e-02  -1.991819e-02  0 
VECTORS displacement_ITER5 FLOAT
 0  0  0 
 -1.740866e-04  -1.178466e-03  0 
 -1.451481e-04  -1.509267e-04  0 
 -2.201974e-04  -4.189382e-04  0 
 -2.297710e-04  -7.887174e-04  0 
 0  0  0 
 0  0  0 
 0  0  0 
 0  0  0 
 1.132182e-04  -1.195931e-03  0 
 5.278828e-04  -1.311321e-03  0 
 1.113689e-03  -1.521218e-03  0 
 3.554289e-03  1.170364e-03  0 
 4.441366e-03  7.457279e-04  0 
 2.219075e-02  1.355389e-02  0 
 1.082880e-02  6.508375e-03  0 
 1.052554e-02  3.181430e-03  0 
 2.278169e-03  -1.174559e-03  0 
 6.198171e-03  2.012304e-03  0 
 7.840037e-04  -9.121603e-04  0 
 2.644867e-04  -2.689229e-04  0 
 3.666312e-05  -6.579500e-04  0 
 -1.565565e-06  -2.580556e-05  0 
 2.534003e-04  -9.375759e-04  0 
 7.466765e-04  -1.003105e-03  0 
 4.191204e-04  -5.754513e-04  0 
 5.774891e-05  -2.144128e-04  0 
 3.911313e-05  -4.186788e-05  0 
 1.385826e-03  -1.043418e-03  0 
 -3.449317e-06  -9.632149e-04  0 
 3.894885e-03  -4.376963e-03  0 
 1.403466e-02  -1.494357e-02  0 
VECTORS displacement_ITER6 FLOAT
 0  0  0 
 -1.079812e-04  -1.090951e-03  0 
 -1.291923e-04  -1.398665e-04  0 
 -1.876515e-04  -3.866985e-04  0 
 -1.815375e-04  -7.233421e-04  0 
 0  0  0 
 0  0  0 
 0  0  0 
 0  0  0 
 1.246924e-04  -1.091047e-03  0 
 4.781742e-04  -1.184326e-03  0 
 9.744124e-04  -1.367031e-03  0 
 3.639018e-03  1.276648e-03  0 
 3.988321e-03  1.664273e-03  0 
 2.447700e-02  1.859281e-02  0 
 1.079763e-02  9.201910e-03  0 
 1.086030e-02  4.276244e-03  0 
 1.993001e-03  -9.523513e-04  0 
 6.023483e-03  3.098320e-03  0 
 7.015417e-04  -8.959803e-04  0 
 2.483058e-04  -2.588800e-04  0 
 5.286973e-05  -6.164987e-04  0 
 3.034918e-07  -2.719834e-05  0 
 2.455396e-04  -8.678966e-04  0 
 6.642360e-04  -9.199210e-04  0 
 3.886859e-04  -5.488963e-04  0 
 5.988030e-05  -2.097450e-04  0 
 3.856737e-05  -4.399246e-05  0 
 1.205839e-03  -9.552445e-04  0 
 2.715825e-05  -8.937627e-04  0 
 3.742396e-03  -2.663525e-03  0 
 1.238464e-02  -1.157278e-02  0 
VECTORS displacement_ITER7 FLOAT
 0  0  0 
 -1.732984e-05  -9.125978e-04  0 
 -1.003926e-04  -1.150076e-04  0 
 -1.347989e-04  -3.206129e-04  0 
 -1.091816e-04  -5.960174e-04  0 
 0  0  0 
 0  0  0 
 0  0  0 
 0  0  0 
 1.351766e-04  -8.953703e-04  0 
 3.968925e-04  -9.635263e-04  0 
 7.713045e-04  -1.112631e-03  0 
 3.480928e-03  1.396170e-03  0 
 3.126743e-03  2.935130e-03  0 
 2.525126e-02  2.435798e-02  0 
 1.004230e-02  1.252781e-02  0 
 1.046668e-02  5.826972e-03  0 
 1.425009e-03  -4.804656e-04  0 
 5.499969e-03  4.511553e-03  0 
 5.200374e-04  -7.826494e-04  0 
 2.145987e-04  -2.305751e-04  0 
 7.149127e-05  -5.257346e-04  0 
 3.221373e-06  -2.594926e-05  0 
 2.244449e-04  -7.290128e-04  0 
 5.355553e-04  -7.636530e-04  0 
 3.323459e-04  -4.800152e-04  0 
 6.060150e-05  -1.883123e-04  0 
 3.603684e-05  -4.306578e-05  0 
 9.487705e-04  -7.909567e-04  0 
 6.551534e-05  -7.518197e-04  0 
 3.476682e-03  -4.403068e-04  0 
 1.037800e-02  -7.571407e-03  0 
VECTORS displacement_ITER8 FLOAT
 0  0  0 
 5.677469e-05  -7.884297e-04  0 
 -7.963019e-05  -9.872200e-05  0 
 -9.438099e-05  -2.750733e-04  0 
 -5.212999e-05  -5.059413e-04  0 
 0  0  0 
 0  0  0 
 0  0  0 
 0  0  0 
 1.447394e-04  -7.519497e-04  0 
 3.290310e-04  -7.934308e-04  0 
 5.958236e-04  -9.065778e-04  0 
 2.656766e-03  1.222211e-03  0 
 1.925157e-03  3.300745e-03  0 
 2.031473e-02  2.378735e-02  0 
 7.577837e-03  1.261283e-02  0 
 8.047130e-03  6.028484e-03  0 
 6.969149e-04  -1.156213e-05  0 
 4.175526e-03  4.655461e-03  0 
 2.683183e-04  -5.440166e-04  0 
 1.904007e-04  -2.126407e-04  0 
 8.771034e-05  -4.641728e-04  0 
 5.207627e-06  -2.651215e-05  0 
 2.091928e-04  -6.301506e-04  0 
 4.279739e-04  -6.476016e-04  0 
 2.890022e-04  -4.362699e-04  0 
 6.140981e-05  -1.774310e-04  0 
 3.443526e-05  -4.408951e-05  0 
 7.229571e-04  -6.681322e-04  0 
 9.808819e-05  -6.522665e-04  0 
 2.825907e-03  8.168487e-04  0 
 8.066369e-03  -4.631332e-03  0 
VECTORS displacement_ITER9 FLOAT
 0  0  0 
 1.094430e-04  -6.700513e-04  0 
 -6.349947e-05  -8.668985e-05  0 
 -6.419544e-05  -2.363759e-04  0 
 -1.154513e-05  -4.257803e-04  0 
 0  0  0 
 0  0  0 
 0  0  0 
 0  0  0 
 1.351718e-04  -6.181786e-04  0 
 2.574118e-04  -6.367181e-04  0 
 4.310257e-04  -7.171689e-04  0 
 2.147925e-03  1.124531e-03  0 
 1.256399e-03  3.463221e-03  0 
 1.695953e-02  2.291066e-02  0 
 6.087350e-03  1.242412e-02  0 
 6.527748e-03  6.094981e-03  0 
 2.865097e-04  2.772864e-04  0 
 3.411006e-03  4.674972e-03  0 
 1.232934e-04  -3.917282e-04  0 
 1.631406e-04  -1.907235e-04  0 
 9.174781e-05  -4.053801e-04  0 
 5.618924e-06  -2.737922e-05  0 
 1.818802e-04  -5.339808e-04  0 
 3.221249e-04  -5.370624e-04  0 
 2.395115e-04  -3.881608e-04  0 
 5.729238e-05  -1.658365e-04  0 
 3.126468e-05  -4.403081e-05  0 
 5.120010e-04  -5.533442e-04  0 
 1.124202e-04  -5.593561e-04  0 
 2.466820e-03  1.376283e-03  0 
 6.398343e-03  -3.214930e-03  0 
VECTORS displacement_ITER10 FLOAT
 0  0  0 
 1.639091e-04  -5.775013e-04  0 
 -4.973135e-05  -7.752260e-05  0 
 -3.632865e-05  -2.063061e-04  0 
 2.811217e-05  -3.622448e-04  0 
 0  0  0 
 0  0  0 
 0  0  0 
 0  0  0 
 1.332857e-04  -5.098622e-04  0 
 1.958471e-04  -5.035990e-04  0 
 2.789448e-04  -5.491022e-04  0 
 1.118167e-03  8.164137e-04  0 
 1.616637e-04  3.165663e-03  0 
 9.657685e-03  1.842225e-02  0 
 3.182409e-03  1.041792e-02  0 
 3.452405e-03  5.388681e-03  0 
 -3.464695e-04  6.291690e-04  0 
 1.928207e-03  3.987509e-03  0 
 -1.054473e-04  -1.325060e-04  0 
 1.426630e-04  -1.763990e-04  0 
 9.980481e-05  -3.618627e-04  0 
 6.257676e-06  -2.910116e-05  0 
 1.632280e-04  -4.591987e-04  0 
 2.286916e-04  -4.472063e-04  0 
 2.003267e-04  -3.558649e-04  0 
 5.552516e-05  -1.603987e-04  0 
 2.935409e-05  -4.552805e-05  0 
 3.142689e-04  -4.594421e-04  0 
 1.314134e-04  -4.875140e-04  0 
 1.743856e-03  1.743757e-03  0 
 4.230832e-03  -1.475799e-03  0 
VECTORS displacement_ITER11 FLOAT
 0  0  0 
 1.869850e-04  -5.232035e-04  0 
 -4.368661e-05  -7.427685e-05  0 
 -2.474853e-05  -1.922349e-04  0 
 4.373973e-05  -3.294350e-04  0 
 0  0  0 
 0  0  0 
 0  0  0 
 0  0  0 
 1.208001e-04  -4.488140e-04  0 
 1.582792e-04  -4.330574e-04  0 
 2.000564e-04  -4.640755e-04  0 
 7.199041e-04  6.685122e-04  0 
 -5.694996e-05  2.714455e-03  0 
 6.204622e-03  1.484857e-02  0 
 2.136915e-03  8.643143e-03  0 
 2.223295e-03  4.686534e-03  0 
 -4.542376e-04  6.745536e-04  0 
 1.447533e-03  3.336576e-03  0 
 -1.521811e-04  -4.247155e-05  0 
 1.285775e-04  -1.654919e-04  0 
 9.795158e-05  -3.372272e-04  0 
 5.918409e-06  -3.031630e-05  0 
 1.448471e-04  -4.152127e-04  0 
 1.759216e-04  -3.969441e-04  0 
 1.734425e-04  -3.330387e-04  0 
 5.204055e-05  -1.566077e-04  0 
 2.743010e-05  -4.587381e-05  0 
 2.124026e-04  -4.099154e-04  0 
 1.328365e-04  -4.478272e-04  0 
 1.517065e-03  1.433406e-03  0 
 3.619657e-03  -1.391747e-03  0 
VECTORS displacement_ITER12 FLOAT
 0  0  0 
 2.166025e-04  -4.818651e-04  0 
 -3.701115e-05  -7.022758e-05  0 
 -1.098845e-05  -1.799733e-04  0 
 6.410643e-05  -3.027631e-04  0 
 0  0  0 
 0  0  0 
 0  0  0 
 0  0  0 
 1.222679e-04  -4.023939e-04  0 
 1.347017e-04  -3.787334e-04  0 
 1.406028e-04  -3.981005e-04  0 
 1.844616e-04  4.506244e-04  0 
 -4.675921e-04  2.193770e-03  0 
 2.074842e-03  1.078180e-02  0 
 6.642574e-04  6.575400e-03  0 
 6.085255e-04  3.782446e-03  0 
 -6.519049e-04  7.310146e-04  0 
 6.956499e-04  2.557077e-03  0 
 -2.279038e-04  7.125368e-05  0 
 1.207587e-04  -1.606337e-04  0 
 1.033612e-04  -3.200102e-04  0 
 6.585887e-06  -3.127284e-05  0 
 1.385763e-04  -3.845071e-04  0 
 1.390915e-04  -3.607162e-04  0 
 1.583315e-04  -3.204767e-04  0 
 5.246145e-05  -1.551665e-04  0 
 2.704870e-05  -4.698127e-05  0 
 1.339906e-04  -3.742009e-04  0 
 1.437774e-04  -4.181709e-04  0 
 1.104405e-03  1.388935e-03  0 
 2.794237e-03  -4.670474e-04  0 
VECTORS displacement_ITER13 FLOAT
 0  0  0 
 2.384739e-04  -4.372745e-04  0 
 -3.086989e-05  -6.634341e-05  0 
 4.131991e-07  -1.679237e-04  0 
 8.003786e-05  -2.761074e-04  0 
 0  0  0 
 0  0  0 
 0  0  0 
 0  0  0 
 1.200630e-04  -3.570221e-04  0 
 1.143175e-04  -3.315537e-04  0 
 9.644912e-05  -3.463867e-04  0 
 1.322714e-04  3.605212e-04  0 
 -3.259402e-04  1.708780e-03  0 
 1.314973e-03  8.279550e-03  0 
 5.394254e-04  5.119516e-03  0 
 4.273526e-04  3.015985e-03  0 
 -5.080555e-04  5.873479e-04  0 
 6.182464e-04  1.981890e-03  0 
 -1.810544e-04  6.008994e-05  0 
 1.120839e-04  -1.537957e-04  0 
 1.052599e-04  -3.009962e-04  0 
 7.068977e-06  -3.178848e-05  0 
 1.298776e-04  -3.530869e-04  0 
 1.087806e-04  -3.268900e-04  0 
 1.428432e-04  -3.040640e-04  0 
 5.181207e-05  -1.515857e-04  0 
 2.626133e-05  -4.721201e-05  0 
 7.673634e-05  -3.425244e-04  0 
 1.494857e-04  -3.868396e-04  0 
 9.572865e-04  1.083315e-03  0 
 2.539150e-03  -4.031577e-04  0 
VECTORS displacement_ITER14 FLOAT
 0  0  0 
 2.648662e-04  -3.765248e-04  0 
 -2.254711e-05  -6.065104e-05  0 
 1.581804e-05  -1.504529e-04  0 
 1.010628e-04  -2.386168e-04  0 
 0  0  0 
 0  0  0 
 0  0  0 
 0  0  0 
 1.196545e-04  -2.957591e-04  0 
 8.561818e-05  -2.654169e-04  0 
 3.073834e-05  -2.703774e-04  0 
 -1.411544e-04  1.808292e-04  0 
 -3.689957e-04  1.026497e-03  0 
 -1.098630e-03  4.210138e-03  0 
 -2.006707e-04  2.865422e-03  0 
 -4.170976e-04  1.896226e-03  0 
 -4.546310e-04  4.703723e-04  0 
 2.194815e-04  1.104716e-03  0 
 -1.680299e-04  9.588419e-05  0 
 1.003546e-04  -1.443081e-04  0 
 1.079848e-04  -2.740594e-04  0 
 7.627676e-06  -3.229186e-05  0 
 1.192189e-04  -3.104876e-04  0 
 6.575892e-05  -2.800415e-04  0 
 1.220556e-04  -2.822570e-04  0 
 5.068816e-05  -1.462578e-04  0 
 2.509728e-05  -4.729258e-05  0 
 -7.893896e-06  -2.964565e-04  0 
 1.575918e-04  -3.425140e-04  0 
 6.152303e-04  5.973334e-04  0 
 1.730539e-03  -4.938155e-04  0 
VECTORS displacement_ITER15 FLOAT
 0  0  0 
 2.816618e-04  -3.315584e-04  0 
 -1.730178e-05  -5.773845e-05  0 
 2.572438e-05  -1.391126e-04  0 
 1.144854e-04  -2.125998e-04  0 
 0  0  0 
 0  0  0 
 0  0  0 
 0  0  0 
 1.172410e-04  -2.526010e-04  0 
 6.113924e-05  -2.160379e-04  0 
 -2.596591e-05  -2.099903e-04  0 
 -3.339332e-04  2.933442e-05  0 
 -3.682011e-04  4.337060e-04  0 
 -2.808770e-03  8.721127e-04  0 
 -7.258090e-04  9.743948e-04  0 
 -1.010467e-03  9.201243e-04  0 
 -3.806340e-04  3.415853e-04  0 
 -8.077252e-05  3.585751e-04  0 
 -1.460606e-04  1.118252e-04  0 
 9.108748e-05  -1.369742e-04  0 
 1.081294e-04  -2.551979e-04  0 
 7.651578e-06  -3.310366e-05  0 
 1.094865e-04  -2.801133e-04  0 
 2.987239e-05  -2.458041e-04  0 
 1.048321e-04  -2.670576e-04  0 
 4.873054e-05  -1.431847e-04  0 
 2.391438e-05  -4.747205e-05  0 
 -8.107006e-05  -2.620883e-04  0 
 1.610379e-04  -3.108693e-04  0 
 3.259938e-04  1.048811e-04  0 
 8.280006e-04  -6.983279e-04  0 
VECTORS displacement_ITER16 FLOAT
 0  0  0 
 2.904294e-04  -3.108675e-04  0 
 -1.508154e-05  -5.660077e-05  0 
 2.997231e-05  -1.348275e-04  0 
 1.206334e-04  -2.023867e-04  0 
 0  0  0 
 0  0  0 
 0  0  0 
 0  0  0 
 1.173853e-04  -2.369248e-04  0 
 5.263114e-05  -1.982030e-04  0 
 -4.667637e-05  -1.887463e-04  0 
 -3.899566e-04  -3.653815e-05  0 
 -3.356851e-04  1.551796e-04  0 
 -3.323671e-03  -5.611713e-04  0 
 -8.815741e-04  1.313613e-04  0 
 -1.182623e-03  4.573074e-04  0 
 -3.226502e-04  2.618394e-04  0 
 -1.845220e-04  2.062640e-05  0 
 -1.269368e-04  1.088629e-04  0 
 8.773213e-05  -1.342942e-04  0 
 1.084597e-04  -2.481370e-04  0 
 7.730472e-06  -3.346601e-05  0 
 1.064300e-04  -2.691140e-04  0 
 1.696921e-05  -2.337296e-04  0 
 9.868168e-05  -2.616219e-04  0 
 4.813184e-05  -1.421150e-04  0 
 2.353346e-05  -4.757970e-05  0 
 -1.077812e-04  -2.502588e-04  0 
 1.627584e-04  -2.986322e-04  0 
 2.047167e-04  -6.842341e-05  0 
 4.281094e-04  -5.868038e-04  0 
VECTORS displacement_ITER17 FLOAT
 0  0  0 
 2.925674e-04  -3.099495e-04  0 
 -1.533488e-05  -5.724687e-05  0 
 2.967123e-05  -1.365906e-04  0 
 1.209528e-04  -2.049156e-04  0 
 0  0  0 
 0  0  0 
 0  0  0 
 0  0  0 
 1.188204e-04  -2.421775e-04  0 
 5.575186e-05  -2.049774e-04  0 
 -4.003320e-05  -1.982098e-04  0 
 -2.917459e-04  -4.039086e-05  0 
 -1.910509e-04  3.356965e-05  0 
 -2.622757e-03  -7.666258e-04  0 
 -6.138589e-04  -8.782762e-05  0 
 -8.869705e-04  2.644883e-04  0 
 -2.119310e-04  1.661959e-04  0 
 -7.372081e-05  -8.505826e-05  0 
 -8.720901e-05  7.257645e-05  0 
 8.878798e-05  -1.352407e-04  0 
 1.086237e-04  -2.506587e-04  0 
 7.807987e-06  -3.366555e-05  0 
 1.078324e-04  -2.732415e-04  0 
 2.111867e-05  -2.389808e-04  0 
 1.005470e-04  -2.638618e-04  0 
 4.843342e-05  -1.429720e-04  0 
 2.373636e-05  -4.776087e-05  0 
 -9.934277e-05  -2.564960e-04  0 
 1.628676e-04  -3.017512e-04  0 
 2.078080e-04  -1.263954e-04  0 
 4.310079e-04  -4.760053e-04  0 
VECTORS displacement_ITER18 FLOAT
 0  0  0 
 2.908741e-04  -3.148283e-04  0 
 -1.643404e-05  -5.860833e-05  0 
 2.774996e-05  -1.400223e-04  0 
 1.188404e-04  -2.106099e-04  0 
 0  0  0 
 0  0  0 
 0  0  0 
 0  0  0 
 1.194665e-04  -2.516856e-04  0 
 6.005111e-05  -2.168043e-04  0 
 -2.900876e-05  -2.133515e-04  0 
 -2.048365e-04  -5.790794e-05  0 
 -2.743200e-05  -1.591898e-04  0 
 -2.074593e-03  -1.340356e-03  0 
 -3.677402e-04  -5.163311e-04  0 
 -6.280551e-04  -2.910103e-05  0 
 -8.453123e-05  5.134568e-05  0 
 2.838465e-05  -2.774789e-04  0 
 -4.236911e-05  3.496059e-05  0 
 9.038535e-05  -1.365744e-04  0 
 1.079430e-04  -2.552585e-04  0 
 7.746439e-06  -3.390066e-05  0 
 1.091224e-04  -2.804838e-04  0 
 2.770083e-05  -2.476089e-04  0 
 1.032541e-04  -2.674442e-04  0 
 4.850126e-05  -1.442776e-04  0 
 2.392552e-05  -4.791721e-05  0 
 -8.488026e-05  -2.658610e-04  0 
 1.616291e-04  -3.081569e-04  0 
 1.936056e-04  -3.286426e-04  0 
 4.171759e-04  -6.661119e-04  0 
VECTORS displacement_ITER19 FLOAT
 0  0  0 
 2.908203e-04  -3.162584e-04  0 
 -1.679447e-05  -5.929223e-05  0 
 2.705048e-05  -1.417983e-04  0 
 1.183207e-04  -2.131808e-04  0 
 0  0  0 
 0  0  0 
 0  0  0 
 0  0  0 
 1.202151e-04  -2.561076e-04  0 
 6.295751e-05  -2.240936e-04  0 
 -2.039225e-05  -2.240428e-04  0 
 -4.516546e-05  -5.313580e-05  0 
 1.893060e-04  -3.014635e-04  0 
 -9.209417e-04  -1.431690e-03  0 
 6.552409e-05  -7.229988e-04  0 
 -1.483391e-04  -2.519770e-04  0 
 7.644947e-05  -8.189849e-05  0 
 2.137496e-04  -3.879044e-04  0 
 1.570881e-05  -1.991798e-05  0 
 9.115806e-05  -1.371091e-04  0 
 1.076802e-04  -2.575521e-04  0 
 7.794580e-06  -3.403883e-05  0 
 1.097985e-04  -2.842412e-04  0 
 3.226487e-05  -2.526580e-04  0 
 1.047494e-04  -2.689524e-04  0 
 4.865805e-05  -1.448528e-04  0 
 2.407110e-05  -4.799072e-05  0 
 -7.302125e-05  -2.713771e-04  0 
 1.613198e-04  -3.110655e-04  0 
 1.997820e-04  -5.017689e-04  0 
 3.960360e-04  -8.896549e-04  0 
VECTORS displacement_ITER20 FLOAT
 0  0  0 
 2.877132e-04  -3.236293e-04  0 
 -1.829592e-05  -6.087169e-05  0 
 2.419499e-05  -1.457789e-04  0 
 1.148521e-04  -2.198296e-04  0 
 0  0  0 
 0  0  0 
 0  0  0 
 0  0  0 
 1.186507e-04  -2.657570e-04  0 
 6.710703e-05  -2.376415e-04  0 
 -5.822939e-06  -2.425585e-04  0 
 7.459962e-05  -5.107785e-05  0 
 3.625632e-04  -4.239503e-04  0 
 -9.092351e-05  -1.577129e-03  0 
 3.987186e-04  -9.181626e-04  0 
 2.106128e-04  -4.322318e-04  0 
 2.023239e-04  -1.865390e-04  0 
 3.616483e-04  -4.887567e-04  0 
 6.068026e-05  -6.223746e-05  0 
 9.241907e-05  -1.379591e-04  0 
 1.060771e-04  -2.625646e-04  0 
 7.633844e-06  -3.420586e-05  0 
 1.096765e-04  -2.915433e-04  0 
 3.981732e-05  -2.616294e-04  0 
 1.069243e-04  -2.717229e-04  0 
 4.845030e-05  -1.459703e-04  0 
 2.417030e-05  -4.802209e-05  0 
 -5.275999e-05  -2.807732e-04  0 
 1.588411e-04  -3.185227e-04  0 
 2.109480e-04  -6.974941e-04  0 
 4.166779e-04  -1.222734e-03  0 
VECTORS displacement_ITER21 FLOAT
 0  0  0 
 2.868248e-04  -3.267367e-04  0 
 -1.887329e-05  -6.096999e-05  0 
 2.251404e-05  -1.473849e-04  0 
 1.128977e-04  -2.230615e-04  0 
 0  0  0 
 0  0  0 
 0  0  0 
 0  0  0 
 1.176297e-04  -2.713435e-04  0 
 7.306139e-05  -2.498843e-04  0 
 1.530457e-05  -2.638570e-04  0 
 2.375105e-04  -5.705519e-06  0 
 5.110476e-04  -3.581254e-04  0 
 1.177545e-03  -7.301340e-04  0 
 8.379782e-04  -5.454657e-04  0 
 7.030085e-04  -3.225314e-04  0 
 2.940049e-04  -2.421488e-04  0 
 5.683842e-04  -3.578319e-04  0 
 9.511759e-05  -1.036517e-04  0 
 9.319497e-05  -1.377293e-04  0 
 1.051292e-04  -2.648061e-04  0 
 7.721297e-06  -3.380095e-05  0 
 1.098343e-04  -2.956239e-04  0 
 5.001273e-05  -2.683684e-04  0 
 1.093341e-04  -2.714711e-04  0 
 4.873525e-05  -1.453359e-04  0 
 2.434105e-05  -4.760509e-05  0 
 -2.264015e-05  -2.880893e-04  0 
 1.573646e-04  -3.226431e-04  0 
 2.887969e-04  -6.573845e-04  0 
 6.126832e-04  -1.244882e-03  0 
VECTORS displacement_ITER22 FLOAT
 0  0  0 
 2.869638e-04  -3.270393e-04  0 
 -1.884443e-05  -6.039507e-05  0 
 2.195908e-05  -1.472740e-04  0 
 1.123225e-04  -2.233263e-04  0 
 0  0  0 
 0  0  0 
 0  0  0 
 0  0  0 
 1.172881e-04  -2.724730e-04  0 
 7.683235e-05  -2.566387e-04  0 
 3.044303e-05  -2.780616e-04  0 
 2.908348e-04  1.650004e-05  0 
 5.462209e-04  -2.982560e-04  0 
 1.611705e-03  -2.818177e-04  0 
 9.805713e-04  -3.185270e-04  0 
 8.645467e-04  -2.264621e-04  0 
 3.109721e-04  -2.456538e-04  0 
 6.385448e-04  -2.710993e-04  0 
 1.019952e-04  -1.143768e-04  0 
 9.314811e-05  -1.367342e-04  0 
 1.046840e-04  -2.648515e-04  0 
 7.843254e-06  -3.330957e-05  0 
 1.096658e-04  -2.965951e-04  0 
 5.672549e-05  -2.713958e-04  0 
 1.103973e-04  -2.697622e-04  0 
 4.898947e-05  -1.441404e-04  0 
 2.443926e-05  -4.711602e-05  0 
 -2.499342e-08  -2.910318e-04  0 
 1.569386e-04  -3.234170e-04  0 
 3.298999e-04  -6.174161e-04  0 
 6.671670e-04  -1.224248e-03  0 
VECTORS displacement_ITER23 FLOAT
 0  0  0 
 2.843028e-04  -3.376256e-04  0 
 -2.025833e-05  -6.120339e-05  0 
 1.921776e-05  -1.505706e-04  0 
 1.091339e-04  -2.301638e-04  0 
 0  0  0 
 0  0  0 
 0  0  0 
 0  0  0 
 1.176079e-04  -2.837228e-04  0 
 8.342972e-05  -2.724228e-04  0 
 4.988023e-05  -3.005188e-04  0 
 2.571881e-04  1.873394e-05  0 
 4.866564e-04  -2.386991e-04  0 
 1.403222e-03  -9.836090e-05  0 
 8.906431e-04  -1.802492e-04  0 
 7.671717e-04  -1.298545e-04  0 
 2.640349e-04  -2.090330e-04  0 
 6.010235e-04  -2.139250e-04  0 
 8.553579e-05  -1.022992e-04  0 
 9.502116e-05  -1.377472e-04  0 
 1.041871e-04  -2.701809e-04  0 
 7.810331e-06  -3.306979e-05  0 
 1.112800e-04  -3.051646e-04  0 
 6.732078e-05  -2.819471e-04  0 
 1.142453e-04  -2.730476e-04  0 
 4.936125e-05  -1.448067e-04  0 
 2.474220e-05  -4.694753e-05  0 
 2.724215e-05  -3.014981e-04  0 
 1.559695e-04  -3.320400e-04  0 
 3.466800e-04  -5.745379e-04  0 
 6.690482e-04  -1.174810e-03  0 
VECTORS displacement_ITER24 FLOAT
 0  0  0 
 2.766306e-04  -3.647049e-04  0 
 -2.413634e-05  -6.390945e-05  0 
 1.216247e-05  -1.595168e-04  0 
 1.006846e-04  -2.482871e-04  0 
 0  0  0 
 0  0  0 
 0  0  0 
 0  0  0 
 1.181251e-04  -3.130914e-04  0 
 9.782875e-05  -3.085320e-04  0 
 8.877114e-05  -3.477852e-04  0 
 1.629097e-04  2.262719e-05  0 
 3.298665e-04  -9.192785e-05  0 
 7.911537e-04  3.088491e-04  0 
 6.409453e-04  1.480004e-04  0 
 4.927499e-04  1.115676e-04  0 
 1.405258e-04  -1.127203e-04  0 
 4.978346e-04  -7.601891e-05  0 
 4.188186e-05  -6.938900e-05  0 
 1.001083e-04  -1.413902e-04  0 
 1.029214e-04  -2.842070e-04  0 
 7.588395e-06  -3.284359e-05  0 
 1.155846e-04  -3.269703e-04  0 
 8.989342e-05  -3.071773e-04  0 
 1.236409e-04  -2.831224e-04  0 
 5.003145e-05  -1.475219e-04  0 
 2.541703e-05  -4.689021e-05  0 
 8.005515e-05  -3.269873e-04  0 
 1.530561e-04  -3.543187e-04  0 
 3.817737e-04  -4.573148e-04  0 
 7.637689e-04  -1.072454e-03  0 
VECTORS displacement_ITER25 FLOAT
 0  0  0 
 2.700862e-04  -3.846430e-04  0 
 -2.716584e-05  -6.603282e-05  0 
 6.577115e-06  -1.662673e-04  0 
 9.380069e-05  -2.618609e-04  0 
 0  0  0 
 0  0  0 
 0  0  0 
 0  0  0 
 1.178255e-04  -3.349632e-04  0 
 1.077921e-04  -3.351515e-04  0 
 1.168028e-04  -3.824631e-04  0 
 4.143956e-05  3.501541e-06  0 
 1.821912e-04  -4.533357e-05  0 
 -8.928626e-05  1.571273e-04  0 
 3.197039e-04  1.601747e-04  0 
 1.327547e-04  1.930743e-04  0 
 3.397151e-05  -3.918307e-05  0 
 3.551513e-04  -6.274462e-05  0 
 3.369412e-06  -3.475375e-05  0 
 1.035517e-04  -1.436862e-04  0 
 1.014468e-04  -2.944859e-04  0 
 7.340708e-06  -3.267928e-05  0 
 1.181521e-04  -3.429832e-04  0 
 1.059770e-04  -3.256165e-04  0 
 1.300394e-04  -2.902227e-04  0 
 5.025540e-05  -1.494333e-04  0 
 2.582833e-05  -4.677368e-05  0 
 1.185705e-04  -3.453778e-04  0 
 1.501711e-04  -3.707709e-04  0 
 3.761194e-04  -4.239731e-04  0 
 7.580801e-04  -1.012563e-03  0 
VECTORS displacement_ITER26 FLOAT
 0  0  0 
 2.657033e-04  -3.976642e-04  0 
 -2.905847e-05  -6.724170e-05  0 
 2.923544e-06  -1.705890e-04  0 
 8.924608e-05  -2.706880e-04  0 
 0  0  0 
 0  0  0 
 0  0  0 
 0  0  0 
 1.177261e-04  -3.492533e-04  0 
 1.148980e-04  -3.537820e-04  0 
 1.384063e-04  -4.080778e-04  0 
 -9.095535e-05  -3.908349e-05  0 
 7.496772e-05  -1.281373e-04  0 
 -1.149014e-03  -6.439196e-04  0 
 -2.567102e-05  -2.093392e-04  0 
 -2.660428e-04  7.330265e-05  0 
 -3.304923e-05  -5.549607e-06  0 
 1.962642e-04  -2.029527e-04  0 
 -2.217909e-05  -4.148520e-06  0 
 1.056576e-04  -1.447913e-04  0 
 1.004033e-04  -3.010537e-04  0 
 7.220609e-06  -3.245827e-05  0 
 1.197344e-04  -3.534885e-04  0 
 1.177582e-04  -3.380096e-04  0 
 1.343053e-04  -2.942656e-04  0 
 5.046708e-05  -1.503497e-04  0 
 2.612192e-05  -4.657446e-05  0 
 1.489558e-04  -3.575278e-04  0 
 1.482615e-04  -3.814365e-04  0 
 3.321447e-04  -5.020294e-04  0 
 7.191313e-04  -1.038642e-03  0 
VECTORS displacement_ITER27 FLOAT
 0  0  0 
 2.632131e-04  -4.018823e-04  0 
 -2.986379e-05  -6.744497e-05  0 
 9.146920e-07  -1.720965e-04  0 
 8.652397e-05  -2.739277e-04  0 
 0  0  0 
 0  0  0 
 0  0  0 
 0  0  0 
 1.162911e-04  -3.545514e-04  0 
 1.180772e-04  -3.632425e-04  0 
 1.534128e-04  -4.240368e-04  0 
 -2.131741e-04  -8.482264e-05  0 
 -2.328500e-06  -2.524512e-04  0 
 -2.175364e-03  -1.625132e-03  0 
 -3.421921e-04  -6.928627e-04  0 
 -6.379422e-04  -1.112561e-04  0 
 -7.612894e-05  1.019611e-05  0 
 5.029099e-05  -3.876987e-04  0 
 -3.960776e-05  2.225524e-05  0 
 1.057403e-04  -1.438859e-04  0 
 9.898481e-05  -3.029861e-04  0 
 7.133793e-06  -3.209775e-05  0 
 1.190700e-04  -3.570538e-04  0 
 1.243256e-04  -3.429750e-04  0 
 1.353455e-04  -2.938417e-04  0 
 5.028621e-05  -1.497656e-04  0 
 2.614113e-05  -4.611264e-05  0 
 1.715423e-04  -3.620665e-04  0 
 1.462717e-04  -3.852486e-04  0 
 2.745574e-04  -6.351064e-04  0 
 6.795887e-04  -1.175533e-03  0 
VECTORS displacement_ITER28 FLOAT
 0  0  0 
 2.638385e-04  -3.965230e-04  0 
 -2.932744e-05  -6.649077e-05  0 
 1.149150e-06  -1.703641e-04  0 
 8.659054e-05  -2.708544e-04  0 
 0  0  0 
 0  0  0 
 0  0  0 
 0  0  0 
 1.145101e-04  -3.502239e-04  0 
 1.172923e-04  -3.620184e-04  0 
 1.595181e-04  -4.276834e-04  0 
 -2.457399e-04  -1.004418e-04  0 
 -1.160689e-05  -3.114037e-04  0 
 -2.471337e-03  -2.016484e-03  0 
 -4.262085e-04  -8.998799e-04  0 
 -7.392230e-04  -2.017641e-04  0 
 -7.731650e-05  6.207010e-06  0 
 1.068096e-05  -4.669978e-04  0 
 -4.081683e-05  2.848099e-05  0 
 1.039836e-04  -1.412993e-04  0 
 9.786140e-05  -3.000167e-04  0 
 7.152758e-06  -3.163563e-05  0 
 1.168692e-04  -3.533191e-04  0 
 1.249498e-04  -3.399154e-04  0 
 1.334043e-04  -2.893318e-04  0 
 4.992796e-05  -1.478030e-04  0 
 2.594898e-05  -4.548712e-05  0 
 1.827921e-04  -3.582801e-04  0 
 1.451461e-04  -3.816474e-04  0 
 2.481030e-04  -7.133810e-04  0 
 6.516524e-04  -1.297927e-03  0 
VECTORS displacement_ITER29 FLOAT
 0  0  0 
 2.670941e-04  -3.846262e-04  0 
 -2.770290e-05  -6.447393e-05  0 
 3.144797e-06  -1.661324e-04  0 
 8.889941e-05  -2.632524e-04  0 
 0  0  0 
 0  0  0 
 0  0  0 
 0  0  0 
 1.131499e-04  -3.394755e-04  0 
 1.145952e-04  -3.541282e-04  0 
 1.615971e-04  -4.244655e-04  0 
 -2.267385e-04  -1.014040e-04  0 
 1.758803e-05  -3.407653e-04  0 
 -2.331213e-03  -2.092674e-03  0 
 -3.799418e-04  -9.690009e-04  0 
 -6.839655e-04  -2.561544e-04  0 
 -5.216855e-05  -1.331769e-05  0 
 2.637131e-05  -4.953052e-04  0 
 -3.170825e-05  2.231833e-05  0 
 1.010321e-04  -1.374308e-04  0 
 9.727006e-05  -2.935511e-04  0 
 7.322647e-06  -3.098591e-05  0 
 1.140848e-04  -3.446929e-04  0 
 1.226161e-04  -3.316076e-04  0 
 1.298415e-04  -2.818193e-04  0 
 4.965729e-05  -1.446430e-04  0 
 2.568364e-05  -4.467067e-05  0 
 1.895183e-04  -3.487579e-04  0 
 1.450887e-04  -3.729360e-04  0 
 2.347527e-04  -7.347073e-04  0 
 6.044567e-04  -1.299420e-03  0 
VECTORS displacement_ITER30 FLOAT
 0  0  0 
 2.718680e-04  -3.675133e-04  0 
 -2.527106e-05  -6.148211e-05  0 