# vtk DataFile Version 3.1
this is an vtk file created by FEMAC
ASCII
DATASET UNSTRUCTURED_GRID
POINTS 31 FLOAT
1.000000 5.000000 0.000000
1.000000 6.000000 0.000000
0.750000 5.000000 0.000000
1.000000 4.750000 0.000000
0.750000 6.000000 0.000000
1.000000 5.250000 0.000000
1.000000 5.500000 0.000000
1.000000 5.750000 0.000000
1.250000 5.000000 0.000000
1.500000 5.000000 0.000000
1.250000 6.000000 0.000000
1.500000 6.000000 0.000000
0.847252 4.832715 0.000000
0.660302 5.785301 0.000000
0.825570 5.361866 0.000000
0.825957 5.628272 0.000000
0.847252 5.832715 0.000000
0.847123 5.164854 0.000000
1.332147 4.803316 0.000000
1.500000 4.775000 0.000000
1.200764 4.609959 0.000000
1.396983 4.637131 0.000000
1.156582 4.832655 0.000000
1.325972 5.178472 0.000000
1.500000 5.225000 0.000000
1.171968 5.341551 0.000000
1.216647 5.581177 0.000000
1.399662 5.398247 0.000000
1.507893 5.661856 0.000000
1.245757 5.832172 0.000000
1.149588 5.154005 0.000000
CELLS 42 168 
3 2 12  0
3 12  3  0
3 6 15 14
3 14  5  6
3 7 15  6
3 4 16  1
3 16  7  1
3 16  4 13
3 17  2  0
3 5 17  0
3 16 15  7
3 13 15 16
3 14 17  5
3 18  9  8
3 18 19  9
3 18 21 19
3 21 18 20
3 3 22  0
3 8 22 18
3 22  8  0
3 20 22  3
3 20 18 22
3 9 23  8
3 24 23  9
3 27 23 24
3 5 25  6
3 26  7  6
3 27 25 23
3 7 29  1
3 29 10  1
3 30  5  0
3 30  8 23
3 8 30  0
3 26 29  7
3 30 25  5
3 23 25 30
3 6 25 26
3 26 25 27
3 27 28 26
3 29 11 10
3 29 28 11
3 26 28 29
CELL_TYPES 42
5 5 5 5 5 5 5 5 5 5 5 5 5 5 5 5 5 5 5 5 5 5 5 5 5 5 5 5 5 5 5 5 5 5 5 5 5 5 5 5 5 5 
POINT_DATA 31
VECTORS displacement_ITER1 FLOAT
 2.730349e-02  -3.531932e-02  0 
 9.740489e-02  -3.566911e-02  0 
 2.724432e-02  -3.668085e-03  0 
 -4.344171e-03  -3.522776e-02  0 
 5.170052e-02  -5.467696e-02  0 
 4.496784e-02  -3.543180e-02  0 
 6.250471e-02  -3.553154e-02  0 
 7.998543e-02  -3.560592e-02  0 
 2.737483e-02  -5.300139e-02  0 
 2.741472e-02  -7.061062e-02  0 
 9.745719e-02  -5.310506e-02  0 
 9.750363e-02  -7.056281e-02  0 
 6.089760e-03  -1.592839e-02  0 
 5.722431e-02  -2.809957e-02  0 
 4.640978e-02  -1.941254e-02  0 
 6.408579e-02  -1.947967e-02  0 
 7.535032e-02  -2.716088e-02  0 
 3.434894e-02  -1.809076e-02  0 
 2.298135e-02  -5.612173e-02  0 
 3.508697e-02  -5.963841e-02  0 
 6.241606e-03  -2.997448e-02  0 
 2.150068e-02  -4.549709e-02  0 
 1.310633e-02  -4.784652e-02  0 
 3.996839e-02  -5.836998e-02  0 
 4.325205e-02  -7.061294e-02  0 
 5.142538e-02  -4.755067e-02  0 
 6.821560e-02  -5.072033e-02  0 
 5.542040e-02  -6.354021e-02  0 
 7.386244e-02  -7.109249e-02  0 
 8.574841e-02  -5.277257e-02  0 
 3.822507e-02  -4.594907e-02  0 
VECTORS displacement_ITER2 FLOAT
 7.454655e-03  -8.166634e-03  0 
 6.292118e-02  -8.391950e-03  0 
 7.277643e-03  -1.707171e-02  0 
 1.628631e-02  -8.030926e-03  0 
 3.285492e-02  -2.347770e-02  0 
 2.138995e-02  -8.306416e-03  0 
 3.521623e-02  -8.341266e-03  0 
 4.906593e-02  -8.355588e-03  0 
 7.596625e-03  -2.208069e-02  0 
 7.668978e-03  -3.585702e-02  0 
 6.296812e-02  -2.226149e-02  0 
 6.301321e-02  -3.616535e-02  0 
 1.331888e-02  -1.347998e-02  0 
 3.539486e-02  -5.636672e-03  0 
 2.327043e-02  -4.179663e-04  0 
 3.791702e-02  7.909964e-04  0 
 4.728161e-02  -3.888863e-03  0 
 1.099867e-02  -4.370145e-03  0 
 1.742830e-02  -3.362886e-02  0 
 2.424387e-02  -4.490516e-02  0 
 6.268519e-03  -2.532723e-02  0 
 1.306933e-02  -3.590300e-02  0 
 1.543246e-02  -1.837747e-02  0 
 1.747716e-02  -2.632078e-02  0 
 2.008252e-02  -3.591187e-02  0 
 2.646507e-02  -1.784098e-02  0 
 3.972164e-02  -2.034283e-02  0 
 2.961605e-02  -3.043972e-02  0 
 4.422158e-02  -3.651468e-02  0 
 5.364600e-02  -2.198975e-02  0 
 1.609390e-02  -1.657666e-02  0 
VECTORS displacement_ITER3 FLOAT
 1.217977e-03  -2.945448e-03  0 
 2.646069e-02  -3.381438e-03  0 
 8.861165e-04  -1.667030e-03  0 
 -2.902339e-04  -2.804487e-03  0 
 1.554400e-02  -8.846791e-03  0 
 7.806113e-03  -3.193834e-03  0 
 1.406797e-02  -3.327341e-03  0 
 2.026421e-02  -3.371401e-03  0 
 1.483050e-03  -9.439278e-03  0 
 1.642031e-03  -1.574725e-02  0 
 2.647798e-02  -9.590492e-03  0 
 2.648691e-02  -1.582973e-02  0 
 1.520325e-04  -1.930422e-03  0 
 1.566500e-02  -2.615882e-03  0 
 9.058338e-03  3.345670e-04  0 
 1.577778e-02  1.333190e-04  0 
 2.006304e-02  -1.697190e-03  0 
 3.833991e-03  -3.208315e-04  0 
 4.196885e-03  -1.155227e-02  0 
 8.866558e-03  -1.329400e-02  0 
 8.465121e-04  -5.709309e-03  0 
 4.937640e-03  -8.711596e-03  0 
 1.789981e-03  -7.259905e-03  0 
 6.054619e-03  -1.144619e-02  0 
 7.253466e-03  -1.577580e-02  0 
 1.013871e-02  -7.589171e-03  0 
 1.609531e-02  -8.730697e-03  0 
 1.155828e-02  -1.328041e-02  0 
 1.809541e-02  -1.596815e-02  0 
 2.230560e-02  -9.471587e-03  0 
 5.374725e-03  -6.988531e-03  0 
VECTORS displacement_ITER4 FLOAT
 1.026166e-03  8.967036e-04  0 
 8.740502e-03  2.451066e-04  0 
 6.507108e-04  -7.549282e-04  0 
 2.360846e-03  1.029165e-03  0 
 4.211438e-03  -3.459578e-03  0 
 3.424430e-03  6.167962e-04  0 
 5.356410e-03  3.847124e-04  0 
 7.098372e-03  2.744861e-04  0 
 1.310182e-03  -1.385156e-03  0 
 1.460315e-03  -3.536557e-03  0 
 8.723007e-03  -1.387319e-03  0 
 8.693797e-03  -2.996054e-03  0 
 1.866994e-03  1.608579e-04  0 
 4.941657e-03  -1.950099e-03  0 
 3.382279e-03  9.966418e-04  0 
 5.532721e-03  5.909021e-04  0 
 6.610801e-03  -7.457751e-05  0 
 1.520522e-03  9.660552e-04  0 
 1.435124e-03  -3.572743e-03  0 
 1.276701e-03  -6.690426e-03  0 
 -1.731799e-03  -2.646080e-03  0 
 -1.065963e-03  -5.129994e-03  0 
 1.900962e-03  -4.815400e-04  0 
 2.880424e-03  -2.098516e-03  0 
 3.246619e-03  -3.465984e-03  0 
 4.205790e-03  -8.454244e-04  0 
 5.961345e-03  -1.201282e-03  0 
 4.638655e-03  -2.572754e-03  0 
 6.474925e-03  -3.195954e-03  0 
 7.645067e-03  -1.379163e-03  0 
 2.612920e-03  -6.350519e-04  0 
VECTORS displacement_ITER5 FLOAT
 7.742002e-04  -7.291381e-04  0 
 2.984810e-03  -1.154884e-03  0 
 4.505500e-04  -4.035549e-04  0 
 1.952709e-04  -5.785036e-04  0 
 2.383434e-03  -1.657748e-03  0 
 1.631404e-03  -9.479477e-04  0 
 2.150943e-03  -1.078978e-03  0 
 2.580330e-03  -1.140176e-03  0 
 1.062119e-03  -1.439044e-03  0 
 1.253258e-03  -1.950607e-03  0 
 2.973957e-03  -1.551120e-03  0 
 2.951290e-03  -1.947509e-03  0 
 3.224432e-04  -3.074105e-04  0 
 2.096698e-03  -2.082426e-03  0 
 1.613761e-03  -8.226716e-04  0 
 2.162037e-03  -1.207676e-03  0 
 2.439458e-03  -1.369668e-03  0 
 1.139736e-03  -5.700605e-04  0 
 -3.155737e-05  -9.028765e-04  0 
 -3.719850e-04  -8.505309e-04  0 
 -5.745087e-06  -8.118109e-04  0 
 -1.360102e-04  -8.531302e-04  0 
 2.149061e-04  -7.800743e-04  0 
 1.511925e-03  -1.707645e-03  0 
 1.640987e-03  -2.016246e-03  0 
 1.857734e-03  -1.389140e-03  0 
 2.311705e-03  -1.494217e-03  0 
 1.972978e-03  -1.845279e-03  0 
 2.445544e-03  -1.998674e-03  0 
 2.717509e-03  -1.555734e-03  0 
 1.394425e-03  -1.316145e-03  0 
VECTORS displacement_ITER6 FLOAT
 6.940635e-04  -6.877392e-04  0 
 2.362741e-03  -9.927971e-04  0 
 4.117431e-04  -3.452682e-04  0 
 2.086810e-04  -4.956745e-04  0 
 2.154042e-03  -8.789658e-04  0 
 1.377723e-03  -9.022854e-04  0 
 1.740861e-03  -9.904933e-04  0 
 2.052379e-03  -9.949809e-04  0 
 9.844027e-04  -1.231131e-03  0 
 1.194315e-03  -1.576159e-03  0 
 2.364651e-03  -1.308392e-03  0 
 2.366809e-03  -1.626350e-03  0 
 2.848349e-04  -3.085623e-04  0 
 1.423979e-03  -1.206042e-03  0 
 1.234948e-03  -7.632544e-04  0 
 1.593145e-03  -9.770404e-04  0 
 1.853146e-03  -1.077895e-03  0 
 9.222130e-04  -5.504592e-04  0 
 8.346480e-04  -1.036630e-03  0 
 1.110043e-03  -1.055633e-03  0 
 3.782571e-04  -3.826990e-04  0 
 7.621780e-04  -8.054695e-04  0 
 5.660359e-04  -8.133346e-04  0 
 1.307030e-03  -1.455470e-03  0 
 1.400582e-03  -1.644353e-03  0 
 1.533975e-03  -1.225132e-03  0 
 1.838459e-03  -1.274588e-03  0 
 1.595452e-03  -1.531111e-03  0 
 1.923639e-03  -1.646774e-03  0 
 2.151731e-03  -1.301292e-03  0 
 1.206637e-03  -1.174958e-03  0 
VECTORS displacement_ITER7 FLOAT
 6.549571e-04  -6.908549e-04  0 
 2.596964e-03  -1.063752e-03  0 
 3.929403e-04  -3.610333e-04  0 
 2.075894e-04  -4.916698e-04  0 
 2.006248e-03  -1.398988e-03  0 
 1.436022e-03  -9.130181e-04  0 
 1.882618e-03  -1.033890e-03  0 
 2.249241e-03  -1.067409e-03  0 
 9.287906e-04  -1.342901e-03  0 
 1.106621e-03  -1.815927e-03  0 
 2.597339e-03  -1.420774e-03  0 
 2.594621e-03  -1.784571e-03  0 
 2.694600e-04  -3.348588e-04  0 
 1.477283e-03  -6.879452e-04  0 
 1.316116e-03  -6.778157e-04  0 
 1.781303e-03  -8.467879e-04  0 
 2.085680e-03  -1.033372e-03  0 
 9.150038e-04  -5.207440e-04  0 
 6.792311e-04  -1.210793e-03  0 
 8.894934e-04  -1.196677e-03  0 
 5.933107e-04  -8.802050e-04  0 
 8.898989e-04  -9.915768e-04  0 
 5.184318e-04  -9.662017e-04  0 
 1.340041e-03  -1.588002e-03  0 
 1.455869e-03  -1.862431e-03  0 
 1.634027e-03  -1.304766e-03  0 
 2.011518e-03  -1.384450e-03  0 
 1.725698e-03  -1.696103e-03  0 
 2.103492e-03  -1.802240e-03  0 
 2.357754e-03  -1.414453e-03  0 
 1.228825e-03  -1.237275e-03  0 
VECTORS displacement_ITER8 FLOAT
 5.860980e-04  -5.637157e-04  0 
 2.340748e-03  -8.935505e-04  0 
 3.446860e-04  -2.868233e-04  0 
 1.869786e-04  -3.705232e-04  0 
 1.746861e-03  -1.227852e-03  0 
 1.286306e-03  -7.661857e-04  0 
 1.683900e-03  -8.703644e-04  0 
 2.019282e-03  -8.941003e-04  0 
 8.405220e-04  -1.143603e-03  0 
 1.009601e-03  -1.553761e-03  0 
 2.340077e-03  -1.220087e-03  0 
 2.336854e-03  -1.549591e-03  0 
 2.403861e-04  -2.473293e-04  0 
 1.384325e-03  -7.273869e-04  0 
 1.169776e-03  -5.598814e-04  0 
 1.600916e-03  -7.237751e-04  0 
 1.878230e-03  -8.772449e-04  0 
 8.139996e-04  -4.274782e-04  0 
 6.439760e-04  -1.054627e-03  0 
 8.003984e-04  -1.167150e-03  0 
 4.914094e-04  -6.860614e-04  0 
 7.178184e-04  -9.467679e-04  0 
 4.812377e-04  -8.006503e-04  0 
 1.202480e-03  -1.365244e-03  0 
 1.306090e-03  -1.602882e-03  0 
 1.461280e-03  -1.114919e-03  0 
 1.798419e-03  -1.185792e-03  0 
 1.542047e-03  -1.461997e-03  0 
 1.886483e-03  -1.576372e-03  0 
 2.121877e-03  -1.215405e-03  0 
 1.102233e-03  -1.055356e-03  0 
VECTORS displacement_ITER9 FLOAT
 5.991776e-04  -5.875152e-04  0 
 2.317883e-03  -9.204579e-04  0 
 3.557451e-04  -3.050593e-04  0 
 1.961436e-04  -3.934901e-04  0 
 1.698986e-03  -1.274220e-03  0 
 1.292922e-03  -7.926715e-04  0 
 1.681482e-03  -8.958444e-04  0 
 2.006606e-03  -9.199200e-04  0 
 8.585629e-04  -1.158506e-03  0 
 1.032016e-03  -1.554487e-03  0 
 2.316520e-03  -1.235672e-03  0 
 2.312297e-03  -1.552954e-03  0 
 2.519605e-04  -2.712983e-04  0 
 1.419080e-03  -8.683599e-04  0 
 1.165106e-03  -5.513532e-04  0 
 1.603011e-03  -7.167303e-04  0 
 1.872128e-03  -9.024602e-04  0 
 8.182931e-04  -4.455424e-04  0 
 7.057997e-04  -1.156756e-03  0 
 9.056654e-04  -1.327913e-03  0 
 3.830518e-04  -7.562989e-04  0 
 7.102624e-04  -1.037056e-03  0 
 5.221719e-04  -8.419370e-04  0 
 1.212894e-03  -1.379070e-03  0 
 1.315968e-03  -1.608978e-03  0 
 1.463950e-03  -1.135055e-03  0 
 1.792661e-03  -1.202358e-03  0 
 1.540991e-03  -1.472593e-03  0 
 1.878981e-03  -1.582016e-03  0 
 2.106493e-03  -1.231895e-03  0 
 1.112654e-03  -1.076456e-03  0 
VECTORS displacement_ITER10 FLOAT
 5.882707e-04  -5.703727e-04  0 
 2.225215e-03  -9.023348e-04  0 
 3.470713e-04  -2.930722e-04  0 
 1.916464e-04  -3.777353e-04  0 
 1.662664e-03  -1.251710e-03  0 
 1.261420e-03  -7.742490e-04  0 
 1.629730e-03  -8.789344e-04  0 
 1.934470e-03  -9.028945e-04  0 
 8.441662e-04  -1.122478e-03  0 
 1.013594e-03  -1.503365e-03  0 
 2.224394e-03  -1.198094e-03  0 
 2.220982e-03  -1.496697e-03  0 
 2.449432e-04  -2.571302e-04  0 
 1.354594e-03  -8.055281e-04  0 
 1.137140e-03  -5.391908e-04  0 
 1.524701e-03  -7.411338e-04  0 
 1.804776e-03  -9.012745e-04  0 
 7.861819e-04  -4.161620e-04  0 
 7.183363e-04  -1.116588e-03  0 
 9.037503e-04  -1.334813e-03  0 
 3.682535e-04  -6.437714e-04  0 
 6.768508e-04  -1.024625e-03  0 
 5.178441e-04  -8.006658e-04  0 
 1.186453e-03  -1.335897e-03  0 
 1.285920e-03  -1.555525e-03  0 
 1.425784e-03  -1.103324e-03  0 
 1.734308e-03  -1.168063e-03  0 
 1.499144e-03  -1.423013e-03  0 
 1.812484e-03  -1.522839e-03  0 
 2.026932e-03  -1.194068e-03  0 
 1.088427e-03  -1.046217e-03  0 
VECTORS displacement_ITER11 FLOAT
 5.840701e-04  -5.647237e-04  0 
 2.213226e-03  -8.951327e-04  0 
 3.444636e-04  -2.897294e-04  0 
 1.897747e-04  -3.730537e-04  0 
 1.635545e-03  -1.245454e-03  0 
 1.254238e-03  -7.675160e-04  0 
 1.620592e-03  -8.719307e-04  0 
 1.923769e-03  -8.957284e-04  0 
 8.389970e-04  -1.114079e-03  0 
 1.007993e-03  -1.492846e-03  0 
 2.212454e-03  -1.189634e-03  0 
 2.209069e-03  -1.487114e-03  0 
 2.434963e-04  -2.547025e-04  0 
 1.353845e-03  -8.203133e-04  0 
 1.138274e-03  -5.456602e-04  0 
 1.530455e-03  -7.347401e-04  0 
 1.793874e-03  -8.907469e-04  0 
 7.904886e-04  -4.288891e-04  0 
 7.101818e-04  -1.073507e-03  0 
 9.227737e-04  -1.245354e-03  0 
 3.595713e-04  -5.957812e-04  0 
 6.900901e-04  -9.154461e-04  0 
 5.081628e-04  -7.781701e-04  0 
 1.179397e-03  -1.326541e-03  0 
 1.278118e-03  -1.544893e-03  0 
 1.417842e-03  -1.094986e-03  0 
 1.724611e-03  -1.159582e-03  0 
 1.490954e-03  -1.412881e-03  0 
 1.802460e-03  -1.512732e-03  0 
 2.015806e-03  -1.185582e-03  0 
 1.081927e-03  -1.038311e-03  0 
VECTORS displacement_ITER12 FLOAT
 5.844627e-04  -5.654830e-04  0 
 2.214041e-03  -8.956017e-04  0 
 3.448278e-04  -2.901076e-04  0 
 1.898097e-04  -3.736944e-04  0 
 1.637543e-03  -1.250896e-03  0 
 1.254658e-03  -7.681746e-04  0 
 1.621148e-03  -8.724032e-04  0 
 1.924475e-03  -8.961678e-04  0 
 8.396065e-04  -1.114711e-03  0 
 1.009025e-03  -1.492870e-03  0 
 2.213246e-03  -1.190178e-03  0 
 2.209844e-03  -1.487670e-03  0 
 2.436600e-04  -2.553122e-04  0 
 1.355939e-03  -8.246861e-04  0 
 1.131691e-03  -5.443733e-04  0 
 1.532710e-03  -7.303532e-04  0 
 1.795872e-03  -8.919496e-04  0 
 7.888506e-04  -4.270731e-04  0 
 7.063013e-04  -1.078299e-03  0 
 9.123894e-04  -1.247917e-03  0 
 3.615597e-04  -6.111931e-04  0 
 6.876220e-04  -9.333577e-04  0 
 5.078737e-04  -7.819660e-04  0 
 1.179728e-03  -1.327289e-03  0 
 1.278445e-03  -1.545554e-03  0 
 1.418243e-03  -1.095642e-03  0 
 1.725204e-03  -1.160140e-03  0 
 1.491324e-03  -1.413608e-03  0 
 1.803141e-03  -1.513419e-03  0 
 2.016565e-03  -1.186149e-03  0 
 1.082303e-03  -1.039073e-03  0 
VECTORS displacement_ITER13 FLOAT
 5.845649e-04  -5.657513e-04  0 
 2.213812e-03  -8.959247e-04  0 
 3.448652e-04  -2.903710e-04  0 
 1.897879e-04  -3.739908e-04  0 
 1.638374e-03  -1.250016e-03  0 
 1.254688e-03  -7.684751e-04  0 
 1.621106e-03  -8.727103e-04  0 
 1.924346e-03  -8.964860e-04  0 
 8.396732e-04  -1.114934e-03  0 
 1.009003e-03  -1.493135e-03  0 
 2.213014e-03  -1.190399e-03  0 
 2.209610e-03  -1.487786e-03  0 
 2.436677e-04  -2.554641e-04  0 
 1.353421e-03  -8.270981e-04  0 
 1.132099e-03  -5.465062e-04  0 
 1.532670e-03  -7.280946e-04  0 
 1.794742e-03  -8.924901e-04  0 
 7.921530e-04  -4.305874e-04  0 
 7.042390e-04  -1.077586e-03  0 
 9.054666e-04  -1.248371e-03  0 
 3.597931e-04  -6.082725e-04  0 
 6.796869e-04  -9.423452e-04  0 
 5.068042e-04  -7.809644e-04  0 
 1.179819e-03  -1.327478e-03  0 
 1.278563e-03  -1.545737e-03  0 
 1.418246e-03  -1.095901e-03  0 
 1.725139e-03  -1.160379e-03  0 
 1.491299e-03  -1.413814e-03  0 
 1.803042e-03  -1.513549e-03  0 
 2.016403e-03  -1.186374e-03  0 
 1.082377e-03  -1.039306e-03  0 
VECTORS displacement_ITER14 FLOAT
 5.845643e-04  -5.657473e-04  0 
 2.213798e-03  -8.959177e-04  0 
 3.448710e-04  -2.903772e-04  0 
 1.898055e-04  -3.739816e-04  0 
 1.638761e-03  -1.249702e-03  0 
 1.254683e-03  -7.684709e-04  0 
 1.621083e-03  -8.727129e-04  0 
 1.924321e-03  -8.964814e-04  0 
 8.396740e-04  -1.114924e-03  0 
 1.009006e-03  -1.493123e-03  0 
 2.213002e-03  -1.190403e-03  0 
 2.209599e-03  -1.487805e-03  0 
 2.436818e-04  -2.554779e-04  0 
 1.353449e-03  -8.265711e-04  0 
 1.132321e-03  -5.466932e-04  0 
 1.532150e-03  -7.278275e-04  0 
 1.794799e-03  -8.924077e-04  0 
 7.921779e-04  -4.309187e-04  0 
 7.039712e-04  -1.077767e-03  0 
 9.048458e-04  -1.249001e-03  0 
 3.603659e-04  -6.085822e-04  0 
 6.815789e-04  -9.411018e-04  0 
 5.067327e-04  -7.810570e-04  0 
 1.179811e-03  -1.327464e-03  0 
 1.278544e-03  -1.545710e-03  0 
 1.418238e-03  -1.095889e-03  0 
 1.725113e-03  -1.160377e-03  0 
 1.491295e-03  -1.413787e-03  0 
 1.803018e-03  -1.513555e-03  0 
 2.016382e-03  -1.186375e-03  0 
 1.082373e-03  -1.039298e-03  0 
CELL_DATA 42
TENSORS element_stresses FLOAT
 7.737166e-01  4.676528e-02  0 
 4.676528e-02  -6.168552e-01  0 
 0  0  0 

 2.991553e-01  2.983481e-01  0 
 2.983481e-01  -6.773165e-01  0 
 0  0  0 

 1.551634e-03  1.279418e-04  0 
 1.279418e-04  -2.124892e-04  0 
 0  0  0 

 1.666290e-03  -5.634549e-05  0 
 -5.634549e-05  8.291877e-05  0 
 0  0  0 

 1.512555e-03  2.387784e-04  0 
 2.387784e-04  3.586928e-04  0 
 0  0  0 

 2.094727e-03  1.399670e-03  0 
 1.399670e-03  -6.847270e-04  0 
 0  0  0 

 1.621584e-03  8.711206e-04  0 
 8.711206e-04  4.887301e-04  0 
 0  0  0 

 1.815012e-03  4.218135e-04  0 
 4.218135e-04  -1.495316e-03  0 
 0  0  0 

 9.864796e-04  8.053973e-04  0 
 8.053973e-04  9.235492e-05  0 
 0  0  0 

 1.416660e-03  7.108557e-04  0 
 7.108557e-04  -3.858962e-04  0 
 0  0  0 

 1.355373e-03  5.343162e-04  0 
 5.343162e-04  -3.527960e-04  0 
 0  0  0 

 2.036735e-03  7.038313e-04  0 
 7.038313e-04  -1.781648e-04  0 
 0  0  0 

 1.879939e-03  1.281808e-04  0 
 1.281808e-04  -2.176055e-04  0 
 0  0  0 

 4.737411e-04  -4.153477e-04  0 
 -4.153477e-04  -6.786290e-04  0 
 0  0  0 

 1.043217e-03  -5.694130e-04  0 
 -5.694130e-04  -7.720254e-04  0 
 0  0  0 

 1.003812e-03  -4.588388e-04  0 
 -4.588388e-04  -1.005202e-03  0 
 0  0  0 

 1.223251e-03  -5.892002e-04  0 
 -5.892002e-04  -1.040501e-03  0 
 0  0  0 

 1.055372e-03  -4.737013e-04  0 
 -4.737013e-04  -4.504516e-04  0 
 0  0  0 

 1.146290e-03  -4.650977e-04  0 
 -4.650977e-04  -6.180241e-04  0 
 0  0  0 

 8.679105e-04  -5.975385e-04  0 
 -5.975385e-04  -5.084287e-04  0 
 0  0  0 

 1.283209e-03  -7.883076e-04  0 
 -7.883076e-04  -7.829839e-04  0 
 0  0  0 

 1.023325e-03  -7.473311e-04  0 
 -7.473311e-04  -8.408349e-04  0 
 0  0  0 

 5.640165e-01  8.053805e-02  0 
 8.053805e-02  -3.777112e-01  0 
 0  0  0 

 1.944447e-01  4.878956e-03  0 
 4.878956e-03  -1.753829e-01  0 
 0  0  0 

 2.374728e-01  6.589792e-02  0 
 6.589792e-02  1.016770e-01  0 
 0  0  0 

 5.026645e-02  -1.664403e-01  0 
 -1.664403e-01  -4.018883e-01  0 
 0  0  0 

 -3.112919e-03  -6.093838e-02  0 
 -6.093838e-02  -9.600764e-02  0 
 0  0  0 

 -1.132833e-02  9.523492e-03  0 
 9.523492e-03  7.880901e-02  0 
 0  0  0 

 -1.306076e-02  -1.726666e-02  0 
 -1.726666e-02  -1.663287e-03  0 
 0  0  0 

 -1.591467e-03  -4.848890e-03  0 
 -4.848890e-03  5.306704e-03  0 
 0  0  0 

 3.571168e-01  2.689315e-01  0 
 2.689315e-01  -7.037592e-01  0 
 0  0  0 

 1.628220e-01  1.652419e-01  0 
 1.652419e-01  -4.776796e-01  0 
 0  0  0 

 8.110737e-01  3.426525e-02  0 
 3.426525e-02  -6.978846e-01  0 
 0  0  0 

 -3.942792e-03  -2.236766e-02  0 
 -2.236766e-02  3.337849e-02  0 
 0  0  0 

 -2.896210e-02  -5.418380e-02  0 
 -5.418380e-02  -8.829547e-02  0 
 0  0  0 

 3.038889e-01  1.040621e-01  0 
 1.040621e-01  -1.742523e-02  0 
 0  0  0 

 -7.247549e-03  -2.965008e-02  0 
 -2.965008e-02  -2.533121e-02  0 
 0  0  0 

 -7.643992e-04  -8.739447e-02  0 
 -8.739447e-02  -9.449133e-03  0 
 0  0  0 

 -3.008336e-02  -3.047860e-02  0 
 -3.047860e-02  1.257123e-01  0 
 0  0  0 

 -1.295353e-02  -1.362100e-02  0 
 -1.362100e-02  2.193081e-03  0 
 0  0  0 

 -2.077305e-02  -1.191937e-02  0 
 -1.191937e-02  4.151125e-02  0 
 0  0  0 

 -4.866057e-02  -4.333264e-02  0 
 -4.333264e-02  2.368635e-02  0 
 0  0  0 

TENSORS element_stresses FLOAT
 7.737166e-01  4.676528e-02  0 
 4.676528e-02  -6.168552e-01  0 
 0  0  0 

 2.991553e-01  2.983481e-01  0 
 2.983481e-01  -6.773165e-01  0 
 0  0  0 

 1.551634e-03  1.279418e-04  0 
 1.279418e-04  -2.124892e-04  0 
 0  0  0 

 1.666290e-03  -5.634549e-05  0 
 -5.634549e-05  8.291877e-05  0 
 0  0  0 

 1.512555e-03  2.387784e-04  0 
 2.387784e-04  3.586928e-04  0 
 0  0  0 

 2.094727e-03  1.399670e-03  0 
 1.399670e-03  -6.847270e-04  0 
 0  0  0 

 1.621584e-03  8.711206e-04  0 
 8.711206e-04  4.887301e-04  0 
 0  0  0 

 1.815012e-03  4.218135e-04  0 
 4.218135e-04  -1.495316e-03  0 
 0  0  0 

 9.864796e-04  8.053973e-04  0 
 8.053973e-04  9.235492e-05  0 
 0  0  0 

 1.416660e-03  7.108557e-04  0 
 7.108557e-04  -3.858962e-04  0 
 0  0  0 

 1.355373e-03  5.343162e-04  0 
 5.343162e-04  -3.527960e-04  0 
 0  0  0 

 2.036735e-03  7.038313e-04  0 
 7.038313e-04  -1.781648e-04  0 
 0  0  0 

 1.879939e-03  1.281808e-04  0 
 1.281808e-04  -2.176055e-04  0 
 0  0  0 

 4.737411e-04  -4.153477e-04  0 
 -4.153477e-04  -6.786290e-04  0 
 0  0  0 

 1.043217e-03  -5.694130e-04  0 
 -5.694130e-04  -7.720254e-04  0 
 0  0  0 

 1.003812e-03  -4.588388e-04  0 
 -4.588388e-04  -1.005202e-03  0 
 0  0  0 

 1.223251e-03  -5.892002e-04  0 
 -5.892002e-04  -1.040501e-03  0 
 0  0  0 

 1.055372e-03  -4.737013e-04  0 
 -4.737013e-04  -4.504516e-04  0 
 0  0  0 

 1.146290e-03  -4.650977e-04  0 
 -4.650977e-04  -6.180241e-04  0 
 0  0  0 

 8.679105e-04  -5.975385e-04  0 
 -5.975385e-04  -5.084287e-04  0 
 0  0  0 

 1.283209e-03  -7.883076e-04  0 
 -7.883076e-04  -7.829839e-04  0 
 0  0  0 

 1.023325e-03  -7.473311e-04  0 
 -7.473311e-04  -8.408349e-04  0 
 0  0  0 

 5.640165e-01  8.053805e-02  0 
 8.053805e-02  -3.777112e-01  0 
 0  0  0 

 1.944447e-01  4.878956e-03  0 
 4.878956e-03  -1.753829e-01  0 
 0  0  0 

 2.374728e-01  6.589792e-02  0 
 6.589792e-02  1.016770e-01  0 
 0  0  0 

 5.026645e-02  -1.664403e-01  0 
 -1.664403e-01  -4.018883e-01  0 
 0  0  0 

 -3.112919e-03  -6.093838e-02  0 
 -6.093838e-02  -9.600764e-02  0 
 0  0  0 

 -1.132833e-02  9.523492e-03  0 
 9.523492e-03  7.880901e-02  0 
 0  0  0 

 -1.306076e-02  -1.726666e-02  0 
 -1.726666e-02  -1.663287e-03  0 
 0  0  0 

 -1.591467e-03  -4.848890e-03  0 
 -4.848890e-03  5.306704e-03  0 
 0  0  0 

 3.571168e-01  2.689315e-01  0 
 2.689315e-01  -7.037592e-01  0 
 0  0  0 

 1.628220e-01  1.652419e-01  0 
 1.652419e-01  -4.776796e-01  0 
 0  0  0 

 8.110737e-01  3.426525e-02  0 
 3.426525e-02  -6.978846e-01  0 
 0  0  0 

 -3.942792e-03  -2.236766e-02  0 
 -2.236766e-02  3.337849e-02  0 
 0  0  0 

 -2.896210e-02  -5.418380e-02  0 
 -5.418380e-02  -8.829547e-02  0 
 0  0  0 

 3.038889e-01  1.040621e-01  0 
 1.040621e-01  -1.742523e-02  0 
 0  0  0 

 -7.247549e-03  -2.965008e-02  0 
 -2.965008e-02  -2.533121e-02  0 
 0  0  0 

 -7.643992e-04  -8.739447e-02  0 
 -8.739447e-02  -9.449133e-03  0 
 0  0  0 

 -3.008336e-02  -3.047860e-02  0 
 -3.047860e-02  1.257123e-01  0 
 0  0  0 

 -1.295353e-02  -1.362100e-02  0 
 -1.362100e-02  2.193081e-03  0 
 0  0  0 

 -2.077305e-02  -1.191937e-02  0 
 -1.191937e-02  4.151125e-02  0 
 0  0  0 

 -4.866057e-02  -4.333264e-02  0 
 -4.333264e-02  2.368635e-02  0 
 0  0  0 

