# vtk DataFile Version 3.1
this is an vtk file created by FEMAC
ASCII
DATASET UNSTRUCTURED_GRID
POINTS 482 FLOAT
0.000000 0.000000 0.000000
1.000000 0.000000 0.000000
2.000000 0.000000 0.000000
3.000000 0.000000 0.000000
4.000000 0.000000 0.000000
5.000000 0.000000 0.000000
6.000000 0.000000 0.000000
0.000000 1.000000 0.000000
1.000000 1.000000 0.000000
0.000000 2.000000 0.000000
1.000000 2.000000 0.000000
0.000000 3.000000 0.000000
1.000000 3.000000 0.000000
0.000000 4.000000 0.000000
1.000000 4.000000 0.000000
0.000000 5.000000 0.000000
1.000000 5.000000 0.000000
0.000000 6.000000 0.000000
1.000000 6.000000 0.000000
2.000000 1.000000 0.000000
2.000000 2.000000 0.000000
2.000000 3.000000 0.000000
2.000000 4.000000 0.000000
2.000000 5.000000 0.000000
2.000000 6.000000 0.000000
3.000000 1.000000 0.000000
3.000000 2.000000 0.000000
3.000000 3.000000 0.000000
3.000000 4.000000 0.000000
3.000000 5.000000 0.000000
3.000000 6.000000 0.000000
4.000000 1.000000 0.000000
4.000000 2.000000 0.000000
4.000000 3.000000 0.000000
4.000000 4.000000 0.000000
4.000000 5.000000 0.000000
4.000000 6.000000 0.000000
5.000000 1.000000 0.000000
5.000000 2.000000 0.000000
5.000000 3.000000 0.000000
5.000000 4.000000 0.000000
5.000000 5.000000 0.000000
5.000000 6.000000 0.000000
6.000000 1.000000 0.000000
6.000000 2.000000 0.000000
6.000000 3.000000 0.000000
6.000000 4.000000 0.000000
6.000000 5.000000 0.000000
6.000000 6.000000 0.000000
0.333333 0.000000 0.000000
0.666667 0.000000 0.000000
1.333333 0.000000 0.000000
1.666667 0.000000 0.000000
2.333333 0.000000 0.000000
2.666667 0.000000 0.000000
3.333333 0.000000 0.000000
3.666667 0.000000 0.000000
4.333333 0.000000 0.000000
4.666667 0.000000 0.000000
5.333333 0.000000 0.000000
5.666667 0.000000 0.000000
0.333333 1.000000 0.000000
0.666667 1.000000 0.000000
0.000000 0.333333 0.000000
0.000000 0.666667 0.000000
1.000000 0.333333 0.000000
1.000000 0.666667 0.000000
0.333333 2.000000 0.000000
0.666667 2.000000 0.000000
0.000000 1.333333 0.000000
0.000000 1.666667 0.000000
1.000000 1.333333 0.000000
1.000000 1.666667 0.000000
0.333333 3.000000 0.000000
0.666667 3.000000 0.000000
0.000000 2.333333 0.000000
0.000000 2.666667 0.000000
1.000000 2.333333 0.000000
1.000000 2.666667 0.000000
0.333333 4.000000 0.000000
0.666667 4.000000 0.000000
0.000000 3.333333 0.000000
0.000000 3.666667 0.000000
1.000000 3.333333 0.000000
1.000000 3.666667 0.000000
0.333333 5.000000 0.000000
0.666667 5.000000 0.000000
0.000000 4.333333 0.000000
0.000000 4.666667 0.000000
1.000000 4.333333 0.000000
1.000000 4.666667 0.000000
0.333333 6.000000 0.000000
0.666667 6.000000 0.000000
0.000000 5.333333 0.000000
0.000000 5.666667 0.000000
1.000000 5.333333 0.000000
1.000000 5.666667 0.000000
1.333333 1.000000 0.000000
1.666667 1.000000 0.000000
2.000000 0.333333 0.000000
2.000000 0.666667 0.000000
1.333333 2.000000 0.000000
1.666667 2.000000 0.000000
2.000000 1.333333 0.000000
2.000000 1.666667 0.000000
1.333333 3.000000 0.000000
1.666667 3.000000 0.000000
2.000000 2.333333 0.000000
2.000000 2.666667 0.000000
1.333333 4.000000 0.000000
1.666667 4.000000 0.000000
2.000000 3.333333 0.000000
2.000000 3.666667 0.000000
1.333333 5.000000 0.000000
1.666667 5.000000 0.000000
2.000000 4.333333 0.000000
2.000000 4.666667 0.000000
1.333333 6.000000 0.000000
1.666667 6.000000 0.000000
2.000000 5.333333 0.000000
2.000000 5.666667 0.000000
2.333333 1.000000 0.000000
2.666667 1.000000 0.000000
3.000000 0.333333 0.000000
3.000000 0.666667 0.000000
2.333333 2.000000 0.000000
2.666667 2.000000 0.000000
3.000000 1.333333 0.000000
3.000000 1.666667 0.000000
2.333333 3.000000 0.000000
2.666667 3.000000 0.000000
3.000000 2.333333 0.000000
3.000000 2.666667 0.000000
2.333333 4.000000 0.000000
2.666667 4.000000 0.000000
3.000000 3.333333 0.000000
3.000000 3.666667 0.000000
2.333333 5.000000 0.000000
2.666667 5.000000 0.000000
3.000000 4.333333 0.000000
3.000000 4.666667 0.000000
2.333333 6.000000 0.000000
2.666667 6.000000 0.000000
3.000000 5.333333 0.000000
3.000000 5.666667 0.000000
3.333333 1.000000 0.000000
3.666667 1.000000 0.000000
4.000000 0.333333 0.000000
4.000000 0.666667 0.000000
3.333333 2.000000 0.000000
3.666667 2.000000 0.000000
4.000000 1.333333 0.000000
4.000000 1.666667 0.000000
3.333333 3.000000 0.000000
3.666667 3.000000 0.000000
4.000000 2.333333 0.000000
4.000000 2.666667 0.000000
3.333333 4.000000 0.000000
3.666667 4.000000 0.000000
4.000000 3.333333 0.000000
4.000000 3.666667 0.000000
3.333333 5.000000 0.000000
3.666667 5.000000 0.000000
4.000000 4.333333 0.000000
4.000000 4.666667 0.000000
3.333333 6.000000 0.000000
3.666667 6.000000 0.000000
4.000000 5.333333 0.000000
4.000000 5.666667 0.000000
4.333333 1.000000 0.000000
4.666667 1.000000 0.000000
5.000000 0.333333 0.000000
5.000000 0.666667 0.000000
4.333333 2.000000 0.000000
4.666667 2.000000 0.000000
5.000000 1.333333 0.000000
5.000000 1.666667 0.000000
4.333333 3.000000 0.000000
4.666667 3.000000 0.000000
5.000000 2.333333 0.000000
5.000000 2.666667 0.000000
4.333333 4.000000 0.000000
4.666667 4.000000 0.000000
5.000000 3.333333 0.000000
5.000000 3.666667 0.000000
4.333333 5.000000 0.000000
4.666667 5.000000 0.000000
5.000000 4.333333 0.000000
5.000000 4.666667 0.000000
4.333333 6.000000 0.000000
4.666667 6.000000 0.000000
5.000000 5.333333 0.000000
5.000000 5.666667 0.000000
5.333333 1.000000 0.000000
5.666667 1.000000 0.000000
6.000000 0.333333 0.000000
6.000000 0.666667 0.000000
5.333333 2.000000 0.000000
5.666667 2.000000 0.000000
6.000000 1.333333 0.000000
6.000000 1.666667 0.000000
5.333333 3.000000 0.000000
5.666667 3.000000 0.000000
6.000000 2.333333 0.000000
6.000000 2.666667 0.000000
5.333333 4.000000 0.000000
5.666667 4.000000 0.000000
6.000000 3.333333 0.000000
6.000000 3.666667 0.000000
5.333333 5.000000 0.000000
5.666667 5.000000 0.000000
6.000000 4.333333 0.000000
6.000000 4.666667 0.000000
5.333333 6.000000 0.000000
5.666667 6.000000 0.000000
6.000000 5.333333 0.000000
6.000000 5.666667 0.000000
0.480477 0.680774 0.000000
0.362231 0.275821 0.000000
0.723785 0.353877 0.000000
0.205499 0.555406 0.000000
0.207486 0.777989 0.000000
0.811821 0.672442 0.000000
0.293653 1.601785 0.000000
0.586533 1.401885 0.000000
0.761942 1.235632 0.000000
0.673964 1.728155 0.000000
0.295077 1.249124 0.000000
0.810985 1.468884 0.000000
0.528710 1.177328 0.000000
0.156747 1.817113 0.000000
0.775322 2.206402 0.000000
0.488340 2.795578 0.000000
0.478822 2.249935 0.000000
0.696366 2.537083 0.000000
0.783178 2.799145 0.000000
0.209278 2.252241 0.000000
0.291353 2.524024 0.000000
0.222605 2.797254 0.000000
0.775322 3.206402 0.000000
0.488340 3.795578 0.000000
0.478822 3.249935 0.000000
0.696366 3.537083 0.000000
0.783178 3.799145 0.000000
0.209278 3.252241 0.000000
0.291353 3.524024 0.000000
0.222605 3.797254 0.000000
0.775322 4.793598 0.000000
0.488340 4.204422 0.000000
0.478822 4.750065 0.000000
0.696366 4.462917 0.000000
0.783178 4.200855 0.000000
0.209278 4.747759 0.000000
0.291353 4.475976 0.000000
0.222605 4.202746 0.000000
0.775322 5.793598 0.000000
0.488340 5.204422 0.000000
0.478822 5.750065 0.000000
0.696366 5.462917 0.000000
0.783178 5.200855 0.000000
0.209278 5.747759 0.000000
0.291353 5.475976 0.000000
0.222605 5.202746 0.000000
1.603416 0.689810 0.000000
1.769946 0.341745 0.000000
1.391228 0.312519 0.000000
1.229401 0.674408 0.000000
1.181140 0.161463 0.000000
1.817521 0.839119 0.000000
1.335792 1.499955 0.000000
1.813580 1.816049 0.000000
1.746122 1.538348 0.000000
1.513673 1.780627 0.000000
1.652541 1.256384 0.000000
1.240535 1.788665 0.000000
1.331389 1.181612 0.000000
1.265001 2.472948 0.000000
1.523802 2.285974 0.000000
1.518186 2.690581 0.000000
1.220626 2.759097 0.000000
1.784776 2.496093 0.000000
1.238185 2.214413 0.000000
1.793926 2.770668 0.000000
1.795049 2.223080 0.000000
1.265001 3.472948 0.000000
1.523802 3.285974 0.000000
1.518186 3.690581 0.000000
1.220626 3.759097 0.000000
1.784776 3.496093 0.000000
1.238185 3.214413 0.000000
1.793926 3.770668 0.000000
1.795049 3.223080 0.000000
1.735450 4.578520 0.000000
1.353540 4.484358 0.000000
1.471368 4.181466 0.000000
1.710771 4.276789 0.000000
1.232308 4.217759 0.000000
1.514832 4.788257 0.000000
1.783390 4.806689 0.000000
1.240341 4.787856 0.000000
1.735450 5.578520 0.000000
1.353540 5.484358 0.000000
1.471368 5.181466 0.000000
1.710771 5.276789 0.000000
1.232308 5.217759 0.000000
1.514832 5.788257 0.000000
1.783390 5.806689 0.000000
1.240341 5.787856 0.000000
2.285399 0.534889 0.000000
2.463214 0.275245 0.000000
2.734498 0.257510 0.000000
2.207479 0.221713 0.000000
2.687618 0.527325 0.000000
2.770442 0.799727 0.000000
2.485021 0.782546 0.000000
2.220751 0.796820 0.000000
2.472948 1.265001 0.000000
2.285974 1.523802 0.000000
2.690581 1.518186 0.000000
2.759097 1.220626 0.000000
2.496093 1.784776 0.000000
2.214413 1.238185 0.000000
2.770668 1.793926 0.000000
2.223080 1.795049 0.000000
2.248421 2.490274 0.000000
2.515789 2.340031 0.000000
2.466342 2.734179 0.000000
2.242347 2.785889 0.000000
2.783162 2.605840 0.000000
2.221251 2.227409 0.000000
2.793124 2.255841 0.000000
2.248421 3.490274 0.000000
2.515789 3.340031 0.000000
2.466342 3.734179 0.000000
2.242347 3.785889 0.000000
2.783162 3.605840 0.000000
2.221251 3.227409 0.000000
2.793124 3.255841 0.000000
2.310190 4.603416 0.000000
2.658255 4.769946 0.000000
2.687481 4.391228 0.000000
2.325592 4.229401 0.000000
2.838537 4.181140 0.000000
2.160881 4.817521 0.000000
2.248421 5.509726 0.000000
2.515789 5.659969 0.000000
2.466342 5.265821 0.000000
2.242347 5.214111 0.000000
2.783162 5.394160 0.000000
2.221251 5.772591 0.000000
2.793124 5.744159 0.000000
3.206402 0.775322 0.000000
3.795578 0.488340 0.000000
3.249935 0.478822 0.000000
3.537083 0.696366 0.000000
3.799145 0.783178 0.000000
3.252241 0.209278 0.000000
3.524024 0.291353 0.000000
3.797254 0.222605 0.000000
3.472948 1.265001 0.000000
3.285974 1.523802 0.000000
3.690581 1.518186 0.000000
3.759097 1.220626 0.000000
3.496093 1.784776 0.000000
3.214413 1.238185 0.000000
3.770668 1.793926 0.000000
[...]
POINT_DATA 482
SCALARS CONDID_1 FLOAT
LOOKUP_TABLE default
 1 
 0 
 0 
 0 
 0 
 0 
 0 
 0 
 0 
 0 
 0 
 0 
 0 
 0 
 0 
 0 
 0 
 0 
 0 
 0 
 0 
 0 
 0 
 0 
 0 
 0 
 0 
 0 
 0 
 0 
 0 
 0 
 0 
 0 
 0 
 0 
 0 
 0 
 0 
 0 
 0 
 0 
 0 
 0 
 0 
 0 
 0 
 0 
 0 
 0 
 0 
 0 
 0 
 0 
 0 
 0 
 0 
 0 
 0 
 0 
 0 
 0 
 0 
 0 
 0 
 0 
 0 
 0 
 0 
 0 
 0 
 0 
 0 
 0 
 0 
 0 
 0 
 0 
 0 
 0 
 0 
 0 
 0 
 0 
 0 
 0 
 0 
 0 
 0 
 0 
 0 
 0 
 0 
 0 
 0 
 0 
 0 
 0 
 0 
 0 
 0 
 0 
 0 
 0 
 0 
 0 
 0 
 0 
 0 
 0 
 0 
 0 
 0 
 0 
 0 
 0 
 0 
 0 
 0 
 0 
 0 
 0 
 0 
 0 
 0 
 0 
 0 
 0 
 0 
 0 
 0 
 0 
 0 
 0 
 0 
 0 
 0 
 0 
 0 
 0 
 0 
 0 
 0 
 0 
 0 
 0 
 0 
 0 
 0 
 0 
 0 
 0 
 0 
 0 
 0 
 0 
 0 
 0 
 0 
 0 
 0 
 0 
 0 
 0 
 0 
 0 
 0 
 0 
 0 
 0 
 0 
 0 
 0 
 0 
 0 
 0 
 0 
 0 
 0 
 0 
 0 
 0 
 0 
 0 
 0 
 0 
 0 
 0 
 0 
 0 
 0 
 0 
 0 
 0 
 0 
 0 
 0 
 0 
 0 
 0 
 0 
 0 
 0 
 0 
 0 
 0 
 0 
 0 
 0 
 0 
 0 
 0 
 0 
 0 
 0 
 0 
 0 
 0 
 0 
 0 
 0 
 0 
 0 
 0 
 0 
 0 
 0 
 0 
 0 
 0 
 0 
 0 
 0 
 0 
 0 
 0 
 0 
 0 
 0 
 0 
 0 
 0 
 0 
 0 
 0 
 0 
 0 
 0 
 0 
 0 
 0 
 0 
 0 
 0 
 0 
 0 
 0 
 0 
 0 
 0 
 0 
 0 
 0 
 0 
 0 
 0 
 0 
 0 
 0 
 0 
 0 
 0 
 0 
 0 
 0 
 0 
 0 
 0 
 0 
 0 
 0 
 0 
 0 
 0 
 0 
 0 
 0 
 0 
 0 
 0 
 0 
 0 
 0 
 0 
 0 
 0 
 0 
 0 
 0 
 0 
 0 
 0 
 0 
 0 
 0 
 0 
 0 
 0 
 0 
 0 
 0 
 0 
 0 
 0 
 0 
 0 
 0 
 0 
 0 
 0 
 0 
 0 
 0 
 0 
 0 
 0 
 0 
 0 
 0 
 0 
 0 
 0 
 0 
 0 
 0 
 0 
 0 
 0 
 0 
 0 
 0 
 0 
 0 
 0 
 0 
 0 
 0 
 0 
 0 
 0 
 0 
 0 
 0 
 0 
 0 
 0 
 0 
 0 
 0 
 0 
 0 
 0 
 0 
 0 
 0 
 0 
 0 
 0 
 0 
 0 
 0 
 0 
 0 
 0 
 0 
 0 
 0 
 0 
 0 
 0 
 0 
 0 
 0 
 0 
 0 
 0 
 0 
 0 
 0 
 0 
 0 
 0 
 0 
 0 
 0 
 0 
 0 
 0 
 0 
 0 
 0 
 0 
 0 
 0 
 0 
 0 
 0 
 0 
 0 
 0 
 0 
 0 
 0 
 0 
 0 
 0 
 0 
 0 
 0 
 0 
 0 
 0 
 0 
 0 
 0 
 0 
 0 
 0 
 0 
 0 
 0 
 0 
 0 
 0 
 0 
 0 
 0 
 0 
 0 
 0 
 0 
 0 
 0 
 0 
 0 
 0 
 0 
 0 
 0 
 0 
 0 
 0 
 0 
 0 
 0 
 0 
 0 
 0 
 0 
 0 
 0 
 0 
 0 
 0 
 0 
 0 
 0 
 0 
 0 
 0 
 0 
 0 
 0 
 0 
 0 
 0 
 0 
 0 
 0 
 0 
 0 
 0 
SCALARS CONDID_2 FLOAT
LOOKUP_TABLE default
 1 
 0 
 0 
 0 
 0 
 0 
 0 
 1 
 0 
 1 
 0 
 1 
 0 
 1 
 0 
 1 
 0 
 1 
 0 
 0 
 0 
 0 
 0 
 0 
 0 
 0 
 0 
 0 
 0 
 0 
 0 
 0 
 0 
 0 
 0 
 0 
 0 
 0 
 0 
 0 
 0 
 0 
 0 
 0 
 0 
 0 
 0 
 0 
 0 
 0 
 0 
 0 
 0 
 0 
 0 
 0 
 0 
 0 
 0 
 0 
 0 
 0 
 0 
 1 
 1 
 0 
 0 
 0 
 0 
 1 
 1 
 0 
 0 
 0 
 0 
 1 
 1 
 0 
 0 
 0 
 0 
 1 
 1 
 0 
 0 
 0 
 0 
 1 
 1 
 0 
 0 
 0 
 0 
 1 
 1 
 0 
 0 
 0 
 0 
 0 
 0 
 0 
 0 
 0 
 0 
 0 
 0 
 0 
 0 
 0 
 0 
 0 
 0 
 0 
 0 
 0 
 0 
 0 
 0 
 0 
 0 
 0 
 0 
 0 
 0 
 0 
 0 
 0 
 0 
 0 
 0 
 0 
 0 
 0 
 0 
 0 
 0 
 0 
 0 
 0 
 0 
 0 
 0 
 0 
 0 
 0 
 0 
 0 
 0 
 0 
 0 
 0 
 0 
 0 
 0 
 0 
 0 
 0 
 0 
 0 
 0 
 0 
 0 
 0 
 0 
 0 
 0 
 0 
 0 
 0 
 0 
 0 
 0 
 0 
 0 
 0 
 0 
 0 
 0 
 0 
 0 
 0 
 0 
 0 
 0 
 0 
 0 
 0 
 0 
 0 
 0 
 0 
 0 
 0 
 0 
 0 
 0 
 0 
 0 
 0 
 0 
 0 
 0 
 0 
 0 
 0 
 0 
 0 
 0 
 0 
 0 
 0 
 0 
 0 
 0 
 0 
 0 
 0 
 0 
 0 
 0 
 0 
 0 
 0 
 0 
 0 
 0 
 0 
 0 
 0 
 0 
 0 
 0 
 0 
 0 
 0 
 0 
 0 
 0 
 0 
 0 
 0 
 0 
 0 
 0 
 0 
 0 
 0 
 0 
 0 
 0 
 0 
 0 
 0 
 0 
 0 
 0 
 0 
 0 
 0 
 0 
 0 
 0 
 0 
 0 
 0 
 0 
 0 
 0 
 0 
 0 
 0 
 0 
 0 
 0 
 0 
 0 
 0 
 0 
 0 
 0 
 0 
 0 
 0 
 0 
 0 
 0 
 0 
 0 
 0 
 0 
 0 
 0 
 0 
 0 
 0 
 0 
 0 
 0 
 0 
 0 
 0 
 0 
 0 
 0 
 0 
 0 
 0 
 0 
 0 
 0 
 0 
 0 
 0 
 0 
 0 
 0 
 0 
 0 
 0 
 0 
 0 
 0 
 0 
 0 
 0 
 0 
 0 
 0 
 0 
 0 
 0 
 0 
 0 
 0 
 0 
 0 
 0 
 0 
 0 
 0 
 0 
 0 
 0 
 0 
 0 
 0 
 0 
 0 
 0 
 0 
 0 
 0 
 0 
 0 
 0 
 0 
 0 
 0 
 0 
 0 
 0 
 0 
 0 
 0 
 0 
 0 
 0 
 0 
 0 
 0 
 0 
 0 
 0 
 0 
 0 
 0 
 0 
 0 
 0 
 0 
 0 
 0 
 0 
 0 
 0 
 0 
 0 
 0 
 0 
 0 
 0 
 0 
 0 
 0 
 0 
 0 
 0 
 0 
 0 
 0 
 0 
 0 
 0 
 0 
 0 
 0 
 0 
 0 
 0 
 0 
 0 
 0 
 0 
 0 
 0 
 0 
 0 
 0 
 0 
 0 
 0 
 0 
 0 
 0 
 0 
 0 
 0 
 0 
 0 
 0 
 0 
 0 
 0 
 0 
 0 
 0 
 0 
 0 
 0 
 0 
 0 
 0 
 0 
 0 
 0 
 0 
 0 
 0 
 0 
 0 
 0 
 0 
 0 
 0 
 0 
 0 
 0 
 0 
 0 
 0 
 0 
 0 
 0 
 0 
 0 
 0 
 0 
 0 
 0 
 0 
 0 
 0 
 0 
 0 
 0 
 0 
 0 
 0 
 0 
 0 
 0 
SCALARS CONDID_3 FLOAT
LOOKUP_TABLE default
 1 
 1 
 1 
 1 
 1 
 1 
 1 
 1 
 1 
 1 
 1 
 1 
 1 
 1 
 1 
 1 
 1 
 1 
 1 
 1 
 1 
 1 
 1 
 1 
 1 
 1 
 1 
 1 
 1 
 1 
 1 
 1 
 1 
 1 
 1 
 1 
 1 
 1 
 1 
 1 
 1 
 1 
 1 
 1 
 1 
 1 
 1 
 1 
 1 
 1 
 1 
 1 
 1 
 1 
 1 
 1 
 1 
 1 
 1 
 1 
 1 
 1 
 1 
 1 
 1 
 1 
 1 
 1 
 1 
 1 
 1 
 1 
 1 
 1 
 1 
 1 
 1 
 1 
 1 
 1 
 1 
 1 
 1 
 1 
 1 
 1 
 1 
 1 
 1 
 1 
 1 
 1 
 1 
 1 
 1 
 1 
 1 
 1 
 1 
 1 
 1 
 1 
 1 
 1 
 1 
 1 
 1 
 1 
 1 
 1 
 1 
 1 
 1 
 1 
 1 
 1 
 1 
 1 
 1 
 1 
 1 
 1 
 1 
 1 
 1 
 1 
 1 
 1 
 1 
 1 
 1 
 1 
 1 
 1 
 1 
 1 
 1 
 1 
 1 
 1 
 1 
 1 
 1 
 1 
 1 
 1 
 1 
 1 
 1 
 1 
 1 
 1 
 1 
 1 
 1 
 1 
 1 
 1 
 1 
 1 
 1 
 1 
 1 
 1 
 1 
 1 
 1 
 1 
 1 
 1 
 1 
 1 
 1 
 1 
 1 
 1 
 1 
 1 
 1 
 1 
 1 
 1 
 1 
 1 
 1 
 1 
 1 
 1 
 1 
 1 
 1 
 1 
 1 
 1 
 1 
 1 
 1 
 1 
 1 
 1 
 1 
 1 
 1 
 1 
 1 
 1 
 1 
 1 
 1 
 1 
 1 
 1 
 1 
 1 
 1 
 1 
 1 
 1 
 1 
 1 
 1 
 1 
 1 
 1 
 1 
 1 
 1 
 1 
 1 
 1 
 1 
 1 
 1 
 1 
 1 
 1 
 1 
 1 
 1 
 1 
 1 
 1 
 1 
 1 
 1 
 1 
 1 
 1 
 1 
 1 
 1 
 1 
 1 
 1 
 1 
 1 
 1 
 1 
 1 
 1 
 1 
 1 
 1 
 1 
 1 
 1 
 1 
 1 
 1 
 1 
 1 
 1 
 1 
 1 
 1 
 1 
 1 
 1 
 1 
 1 
 1 
 1 
 1 
 1 
 1 
 1 
 1 
 1 
 1 
 1 
 1 
 1 
 1 
 1 
 1 
 1 
 1 
 1 
 1 
 1 
 1 
 1 
 1 
 1 
 1 
 1 
 1 
 1 
 1 
 1 
 1 
 1 
 1 
 1 
 1 
 1 
 1 
 1 
 1 
 1 
 1 
 1 
 1 
 1 
 1 
 1 
 1 
 1 
 1 
 1 
 1 
 1 
 1 
 1 
 1 
 1 
 1 
 1 
 1 
 1 
 1 
 1 
 1 
 1 
 1 
 1 
 1 
 1 
 1 
 1 
 1 
 1 
 1 
 1 
 1 
 1 
 1 
 1 
 1 
 1 
 1 
 1 
 1 
 1 
 1 
 1 
 1 
 1 
 1 
 1 
 1 
 1 
 1 
 1 
 1 
 1 
 1 
 1 
 1 
 1 
 1 
 1 
 1 
 1 
 1 
 1 
 1 
 1 
 1 
 1 
 1 
 1 
 1 
 1 
 1 
 1 
 1 
 1 
 1 
 1 
 1 
 1 
 1 
 1 
 1 
 1 
 1 
 1 
 1 
 1 
 1 
 1 
 1 
 1 
 1 
 1 
 1 
 1 
 1 
 1 
 1 
 1 
 1 
 1 
 1 
 1 
 1 
 1 
 1 
 1 
 1 
 1 
 1 
 1 
 1 
 1 
 1 
 1 
 1 
 1 
 1 
 1 
 1 
 1 
 1 
 1 
 1 
 1 
 1 
 1 
 1 
 1 
 1 
 1 
 1 
 1 
 1 
 1 
 1 
 1 
 1 
 1 
 1 
 1 
 1 
 1 
 1 
 1 
 1 
 1 
 1 
 1 
 1 
 1 
 1 
 1 
 1 
 1 
 1 
 1 
 1 
 1 
VECTORS displacement FLOAT
 0  0  0 
 -1.984994e-04  -5.053401e-04  0 
 -7.809935e-03  -3.181402e-03  0 
 -7.800674e-03  -8.544881e-03  0 
 -8.316946e-03  -9.161817e-03  0 
 -8.422344e-03  -1.381814e-02  0 
 -1.580068e-02  -3.849524e-02  0 
 0  0  0 
 -7.070960e-04  -9.233595e-04  0 
 0  0  0 
 -5.560274e-04  -1.051938e-03  0 
 0  0  0 
 1.736035e-04  -1.212387e-03  0 
 0  0  0 
 5.069567e-04  -1.200632e-03  0 
 0  0  0 
 1.390343e-03  -1.725209e-03  0 
 0  0  0 
 6.010603e-03  -2.403845e-03  0 
 -1.929548e-03  -2.676611e-03  0 
 -1.170990e-03  -2.773360e-03  0 
 3.417347e-04  -3.168687e-03  0 
 1.609428e-03  -3.942179e-03  0 
 2.876509e-03  -5.716446e-03  0 
 5.962180e-03  -6.186823e-03  0 
 -2.930135e-03  -8.123965e-03  0 
 -1.890582e-03  -6.686919e-03  0 
 6.600795e-04  -6.366720e-03  0 
 2.280604e-03  -6.860122e-03  0 
 4.009799e-03  -6.760363e-03  0 
 8.100503e-03  -7.059296e-03  0 
 -3.577657e-03  -8.978063e-03  0 
 -2.243270e-03  -9.209263e-03  0 
 6.781361e-04  -9.285605e-03  0 
 2.645767e-03  -9.584532e-03  0 
 4.610397e-03  -1.057162e-02  0 
 8.096726e-03  -1.081434e-02  0 
 -3.771224e-03  -1.362319e-02  0 
 -2.482284e-03  -1.305479e-02  0 
 8.174746e-04  -1.272553e-02  0 
 2.664081e-03  -1.267200e-02  0 
 5.074711e-03  -1.261901e-02  0 
 2.650503e-02  -1.285549e-02  0 
 -3.952279e-03  -1.484404e-02  0 
 -2.546970e-03  -1.489779e-02  0 
 7.582592e-04  -1.469136e-02  0 
 2.718238e-03  -1.473428e-02  0 
 5.124807e-03  -3.422842e-02  0 
 2.654501e-02  -3.420591e-02  0 
 -1.669677e-04  -3.248939e-04  0 
 -2.156572e-04  -4.784222e-04  0 
 -3.568233e-03  -8.374741e-03  0 
 -4.796428e-03  -9.582241e-03  0 
 -7.816676e-03  -4.953011e-03  0 
 -7.809476e-03  -6.746213e-03  0 
 -7.898518e-03  -1.440112e-02  0 
 -6.716748e-03  -1.461207e-02  0 
 -8.327852e-03  -1.069280e-02  0 
 -8.340349e-03  -1.224290e-02  0 
 -1.338032e-02  -2.541780e-02  0 
 -1.506361e-02  -3.293078e-02  0 
 -6.097298e-05  -1.395954e-04  0 
 -2.994573e-04  -4.261199e-04  0 
 0  0  0 
 0  0  0 
 -1.536973e-04  -5.038210e-04  0 
 -2.475195e-04  -5.461964e-04  0 
 -2.433492e-04  -3.301261e-04  0 
 -4.186250e-04  -5.897210e-04  0 
 0  0  0 
 0  0  0 
 -1.172009e-03  -1.252292e-03  0 
 -1.017096e-03  -1.284551e-03  0 
 1.699037e-04  -2.542098e-04  0 
 2.447045e-04  -5.728761e-04  0 
 0  0  0 
 0  0  0 
 -1.794026e-04  -8.233769e-04  0 
 3.174570e-05  -8.416721e-04  0 
 -9.024178e-05  -2.451643e-04  0 
 2.263582e-05  -6.114736e-04  0 
 0  0  0 
 0  0  0 
 4.250437e-04  -1.565093e-03  0 
 6.820714e-04  -1.596881e-03  0 
 4.470748e-04  -5.167086e-04  0 
 8.375419e-04  -8.847152e-04  0 
 0  0  0 
 0  0  0 
 1.390796e-04  -9.562602e-04  0 
 3.967840e-04  -1.176839e-03  0 
 2.845149e-03  -7.618345e-03  0 
 3.125564e-03  -8.515397e-03  0 
 0  0  0 
 0  0  0 
 3.385593e-03  -2.197931e-03  0 
 4.751112e-03  -2.361851e-03  0 
 -1.291489e-03  -1.595414e-03  0 
 -1.663271e-03  -2.066514e-03  0 
 -6.038094e-03  -3.152402e-03  0 
 -4.202965e-03  -3.039503e-03  0 
 -6.531508e-04  -1.631612e-03  0 
 -7.751633e-04  -2.030257e-03  0 
 -1.173557e-03  -2.416330e-03  0 
 -9.327023e-04  -2.340884e-03  0 
 5.969459e-05  -2.005922e-03  0 
 1.020840e-04  -2.518214e-03  0 
 -7.818916e-04  -3.274229e-03  0 
 -1.143740e-04  -3.389199e-03  0 
 1.003916e-03  -2.040045e-03  0 
 1.302934e-03  -2.712394e-03  0 
 3.764811e-04  -2.920297e-03  0 
 7.889527e-04  -3.211639e-03  0 
 1.930674e-03  -3.491701e-03  0 
 2.450196e-03  -4.739272e-03  0 
 2.605838e-03  -4.619495e-03  0 
 3.176853e-03  -5.020425e-03  0 
 5.997559e-03  -3.654455e-03  0 
 5.976146e-03  -4.925760e-03  0 
 3.536366e-03  -5.976372e-03  0 
 4.711497e-03  -6.143915e-03  0 
 -2.300780e-03  -4.856412e-03  0 
 -2.609307e-03  -6.657066e-03  0 
 -6.001994e-03  -8.535119e-03  0 
 -4.258550e-03  -8.432001e-03  0 
 -1.585351e-03  -4.160025e-03  0 
 -1.767156e-03  -5.236801e-03  0 
 -2.992947e-03  -7.743604e-03  0 
 -2.619691e-03  -7.356253e-03  0 
 6.238988e-04  -4.234957e-03  0 
 7.160955e-04  -5.218003e-03  0 
 -8.725995e-04  -6.106736e-03  0 
 -3.719505e-05  -6.049338e-03  0 
 1.800497e-03  -5.166739e-03  0 
 2.042626e-03  -6.127485e-03  0 
 1.252934e-03  -6.828997e-03  0 
 1.867373e-03  -6.962261e-03  0 
 3.488411e-03  -5.554136e-03  0 
 3.800138e-03  -6.134506e-03  0 
 2.656605e-03  -6.769362e-03  0 
 3.246594e-03  -6.682660e-03  0 
 6.835229e-03  -1.254532e-02  0 
 6.331778e-03  -1.278174e-02  0 
 5.563651e-03  -6.950345e-03  0 
 6.857662e-03  -7.032351e-03  0 
 -3.282707e-03  -8.245339e-03  0 
 -3.470629e-03  -8.460588e-03  0 
 -6.784849e-03  -9.149120e-03  0 
 -5.232713e-03  -9.108104e-03  0 
 -2.040190e-03  -7.832100e-03  0 
 -2.159567e-03  -8.494580e-03  0 
 -3.078265e-03  -8.931834e-03  0 
 -2.635198e-03  -9.013050e-03  0 
 5.699068e-04  -7.587404e-03  0 
 5.794011e-04  -8.406256e-03  0 
 -1.273365e-03  -9.334842e-03  0 
 -2.442100e-04  -9.378119e-03  0 
 2.495535e-03  -7.643164e-03  0 
 2.612602e-03  -8.542214e-03  0 
 1.260529e-03  -9.119060e-03  0 
 1.957050e-03  -9.253759e-03  0 
 4.246022e-03  -8.175460e-03  0 
 4.461873e-03  -9.465357e-03  0 
 3.455322e-03  -9.952446e-03  0 
 4.240108e-03  -1.022064e-02  0 
 8.103650e-03  -8.295303e-03  0 
 8.105619e-03  -9.546682e-03  0 
 5.641405e-03  -1.069339e-02  0 
 6.858197e-03  -1.077586e-02  0 
 -3.653171e-03  -1.070241e-02  0 
 -3.679665e-03  -1.217787e-02  0 
 -6.815005e-03  -1.379897e-02  0 
 -5.239731e-03  -1.374760e-02  0 
 -2.366511e-03  -1.044590e-02  0 
 -2.440333e-03  -1.164091e-02  0 
 -3.464264e-03  -1.353429e-02  0 
 -3.057218e-03  -1.332547e-02  0 
 7.909780e-04  -1.046753e-02  0 
 8.380142e-04  -1.157676e-02  0 
 -1.320366e-03  -1.276017e-02  0 
 -2.419841e-04  -1.267876e-02  0 
 2.644031e-03  -1.076625e-02  0 
 2.659832e-03  -1.172624e-02  0 
 1.418599e-03  -1.275456e-02  0 
 2.046972e-03  -1.273282e-02  0 
 4.904715e-03  -1.099738e-02  0 
 5.028966e-03  -1.171521e-02  0 
 3.501192e-03  -1.254065e-02  0 
 4.286265e-03  -1.249857e-02  0 
 1.329065e-02  -2.042198e-02  0 
 1.757433e-02  -2.153880e-02  0 
 1.226886e-02  -1.276260e-02  0 
 1.940455e-02  -1.282819e-02  0 
 -3.872459e-03  -1.399436e-02  0 
 -3.931091e-03  -1.439890e-02  0 
 -1.182485e-02  -3.462596e-02  0 
 -9.769398e-03  -2.668167e-02  0 
 -2.528041e-03  -1.381972e-02  0 
 -2.555541e-03  -1.437978e-02  0 
 -3.508229e-03  -1.484049e-02  0 
 -3.038395e-03  -1.488011e-02  0 
 7.865600e-04  -1.339631e-02  0 
 7.689087e-04  -1.404409e-02  0 
 -8.019775e-04  -1.930924e-02  0 
 -1.053105e-03  -1.878337e-02  0 
 2.698643e-03  -1.338816e-02  0 
 2.707374e-03  -1.406624e-02  0 
 1.402888e-03  -1.467782e-02  0 
 2.052399e-03  -1.468947e-02  0 
 5.105095e-03  -1.989953e-02  0 
 5.123341e-03  -2.707782e-02  0 
 6.184492e-03  -2.297525e-02  0 
 5.042144e-03  -2.857450e-02  0 
 2.652889e-02  -1.995635e-02  0 
 2.654148e-02  -2.707929e-02  0 
 1.227885e-02  -3.422245e-02  0 
 1.941755e-02  -3.421045e-02  0 
 -1.677712e-04  -3.832630e-04  0 
 -1.051782e-04  -2.882132e-04  0 
 -1.686096e-04  -5.047950e-04  0 
 -6.789282e-05  -1.554827e-04  0 
 -4.380372e-05  -1.148464e-04  0 
 -2.869493e-04  -6.354097e-04  0 
 -9.497550e-05  -3.228310e-03  0 
 -4.934187e-04  -3.895053e-03  0 
 -2.396260e-04  -2.653063e-03  0 
 -1.033480e-03  -2.959637e-03  0 
 -7.036946e-04  -2.512690e-03  0 
 -9.151918e-04  -2.742503e-03  0 
 -3.660984e-04  -2.239096e-03  0 
 2.678739e-04  -1.315949e-03  0 
 -2.401121e-04  -6.489040e-04  0 
 4.951383e-05  -3.540835e-04  0 
 -1.564683e-04  -3.460931e-04  0 
 -5.458692e-05  -5.621261e-04  0 
 2.391146e-05  -7.434132e-04  0 
 -5.601537e-05  -1.101037e-04  0 
 -2.757840e-05  -1.435504e-04  0 
 2.447234e-05  -1.051562e-04  0 
 6.363118e-04  -2.498141e-03  0 
 2.402529e-04  -2.738344e-03  0 
 1.564212e-04  -2.977639e-03  0 
 3.109311e-04  -3.788189e-03  0 
 2.606117e-05  -2.513817e-03  0 
 -3.240327e-04  -1.992040e-03  0 
 1.207163e-04  -3.241993e-03  0 
 5.079986e-04  -1.890839e-03  0 
 5.379465e-04  -8.573817e-04  0 
 8.523639e-05  -4.616752e-04  0 
 3.359904e-04  -4.472668e-04  0 
 1.749554e-04  -7.333140e-04  0 
 2.360660e-04  -9.401823e-04  0 
 1.203990e-04  -1.487604e-04  0 
 9.293385e-05  -1.884884e-04  0 
 2.610425e-05  -1.243748e-04  0 
 4.239460e-03  -5.781451e-03  0 
 1.065016e-03  -2.816933e-03  0 
 2.434086e-03  -7.538752e-03  0 
 3.128994e-03  -5.325771e-03  0 
 2.488960e-03  -3.104150e-03  0 
 8.327024e-04  -3.986551e-03  0 
 5.271654e-04  -4.315362e-03  0 
 -4.097167e-05  -2.115296e-03  0 
 -2.501569e-03  -4.816830e-03  0 
 -5.085908e-03  -6.146444e-03  0 
 -2.178352e-03  -7.203782e-03  0 
 -4.064167e-04  -3.594132e-03  0 
 -1.151007e-03  -4.151360e-03  0 
 -2.925889e-03  -3.228302e-03  0 
 -1.101737e-03  -1.556037e-03  0 
 -1.045910e-03  -2.403541e-03  0 
 -1.019484e-03  -2.111003e-03  0 
 -9.630351e-04  -1.922387e-03  0 
 -1.198184e-03  -1.844337e-03  0 
 -9.295286e-04  -1.527560e-03  0 
 -1.107134e-03  -1.358207e-03  0 
 -2.410568e-04  -4.122824e-03  0 
 -6.125143e-04  -4.825039e-03  0 
 -9.024970e-06  -5.049745e-03  0 
 4.591790e-04  -3.325869e-03  0 
 -3.947897e-04  -4.967196e-03  0 
 -9.308036e-04  -3.210657e-03  0 
 -3.373037e-04  -4.338387e-03  0 
 -4.434250e-04  -4.113459e-03  0 
 5.443232e-04  -1.872089e-03  0 
 4.272163e-04  -2.313326e-03  0 
 6.258810e-04  -2.197649e-03  0 
 5.920764e-04  -1.649056e-03  0 
 4.948244e-04  -2.695883e-03  0 
 3.957858e-04  -1.779739e-03  0 
 8.388506e-04  -2.877671e-03  0 
 3.885401e-04  -2.809281e-03  0 
 2.248431e-03  -6.617965e-03  0 
 1.097229e-03  -5.882912e-03  0 
 1.075005e-03  -4.168707e-03  0 
 2.162900e-03  -5.562310e-03  0 
 1.977890e-04  -3.471090e-03  0 
 1.859284e-03  -6.058657e-03  0 
 2.128874e-03  -6.373034e-03  0 
 1.716742e-03  -4.446431e-03  0 
 4.364396e-03  -5.207131e-03  0 
 4.053796e-03  -3.813703e-03  0 
 2.853523e-03  -4.259317e-03  0 
 3.298939e-03  -5.161444e-03  0 
 2.897854e-03  -3.267468e-03  0 
 5.179260e-03  -4.362731e-03  0 
 5.227958e-03  -5.368764e-03  0 
 5.211330e-03  -3.320818e-03  0 
 -4.967419e-03  -4.725120e-03  0 
 -6.336737e-03  -5.659630e-03  0 
 -6.416036e-03  -7.123534e-03  0 
 -6.634932e-03  -4.279514e-03  0 
 -4.959391e-03  -6.896323e-03  0 
 -3.588553e-03  -7.306569e-03  0 
 -3.622980e-03  -5.838309e-03  0 
 -3.463677e-03  -4.329255e-03  0 
 -2.054454e-03  -7.996425e-03  0 
 -1.371947e-03  -6.910195e-03  0 
 -2.223658e-03  -9.080355e-03  0 
 -2.175012e-03  -8.617754e-03  0 
 -1.534631e-03  -6.978633e-03  0 
 -2.095217e-03  -5.648052e-03  0 
 -2.373578e-03  -7.519359e-03  0 
 -8.036510e-04  -5.228390e-03  0 
 -4.360461e-04  -3.883727e-03  0 
 -6.966865e-04  -4.597261e-03  0 
 1.983143e-05  -4.508134e-03  0 
 5.858314e-05  -3.852531e-03  0 
 -2.072640e-04  -5.418684e-03  0 
 -8.525553e-04  -3.614872e-03  0 
 -9.780122e-04  -5.580897e-03  0 
 8.480615e-04  -6.567671e-03  0 
 7.828563e-04  -8.068380e-03  0 
 1.686698e-03  -7.819932e-03  0 
 1.797820e-03  -6.282567e-03  0 
 1.394815e-03  -8.551863e-03  0 
 6.129540e-05  -5.617786e-03  0 
 1.285477e-03  -7.599512e-03  0 
 3.205694e-03  -5.376933e-03  0 
 3.430966e-03  -5.918233e-03  0 
 2.832874e-03  -6.148351e-03  0 
 2.512252e-03  -5.347693e-03  0 
 2.455563e-03  -6.555764e-03  0 
 3.277991e-03  -5.273650e-03  0 
 4.314408e-03  -9.886870e-03  0 
 5.857149e-03  -1.255687e-02  0 
 4.269080e-03  -9.111384e-03  0 
 3.262710e-03  -7.929663e-03  0 
 6.060796e-03  -9.549834e-03  0 
 5.391519e-03  -1.036106e-02  0 
 6.774432e-03  -1.030530e-02  0 
 -3.509042e-03  -1.040170e-02  0 
 -6.252508e-03  -1.213064e-02  0 
 -4.978301e-03  -1.249935e-02  0 
 -4.789637e-03  -1.218498e-02  0 
 -5.027048e-03  -1.064822e-02  0 
 -6.593157e-03  -1.314595e-02  0 
 -6.518588e-03  -1.492769e-02  0 
 -7.088984e-03  -1.233908e-02  0 
 -3.144519e-03  -8.176107e-03  0 
 -2.900546e-03  -7.895259e-03  0 
 -2.875043e-03  -8.520635e-03  0 
 -3.208530e-03  -8.593961e-03  0 
 -2.530829e-03  -8.239555e-03  0 
 -3.091052e-03  -7.917232e-03  0 
 -2.517955e-03  -8.738606e-03  0 
 -2.511685e-03  -7.634070e-03  0 
 -5.951766e-04  -9.553181e-03  0 
 -1.295626e-03  -1.121369e-02  0 
 1.797494e-04  -1.027963e-02  0 
 5.816496e-04  -8.816209e-03  0 
 -6.665253e-04  -1.105897e-02  0 
 -1.863134e-03  -8.955423e-03  0 
 -1.188451e-03  -1.052738e-02  0 
 1.583229e-03  -7.395317e-03  0 
 1.330102e-03  -8.037476e-03  0 
 1.977293e-03  -7.922872e-03  0 
 2.024782e-03  -7.369127e-03  0 
 1.757703e-03  -8.691759e-03  0 
 1.145746e-03  -7.209492e-03  0 
 1.155840e-03  -8.740021e-03  0 
 3.261398e-03  -1.096839e-02  0 
 3.546120e-03  -1.184480e-02  0 
 3.326950e-03  -1.123902e-02  0 
 3.970763e-03  -1.047940e-02  0 
 4.122112e-03  -9.244053e-03  0 
 2.266067e-03  -9.487338e-03  0 
 6.312022e-03  -8.257115e-03  0 
 6.738555e-03  -9.759981e-03  0 
 5.397564e-03  -9.487890e-03  0 
 7.333236e-03  -8.712958e-03  0 
 7.332529e-03  -7.881101e-03  0 
 5.014659e-03  -8.290258e-03  0 
 -4.727279e-03  -1.280106e-02  0 
 -6.094389e-03  -1.022785e-02  0 
 -6.137061e-03  -1.276335e-02  0 
 -5.160837e-03  -1.146587e-02  0 
 -7.024418e-03  -1.146772e-02  0 
 -4.757731e-03  -1.016004e-02  0 
 -7.365366e-03  -1.280071e-02  0 
 -7.309977e-03  -1.013768e-02  0 
 -3.291098e-03  -1.387458e-02  0 
 -2.884049e-03  -1.309536e-02  0 
 -3.146959e-03  -1.516270e-02  0 
 -3.010763e-03  -1.431086e-02  0 
 -2.565149e-03  -1.338037e-02  0 
 -3.664226e-03  -1.172847e-02  0 
 -3.102111e-03  -1.389227e-02  0 
 -2.075489e-03  -1.169042e-02  0 
 -1.532926e-03  -1.103227e-02  0 
 -7.021730e-04  -1.152814e-02  0 
 -8.464453e-04  -1.019172e-02  0 
 -1.524196e-03  -9.987683e-03  0 
 -1.641488e-03  -1.199985e-02  0 
 1.007055e-04  -1.062659e-02  0 
 1.463551e-04  -1.183899e-02  0 
 1.154994e-03  -1.354160e-02  0 
 1.792071e-03  -1.494195e-02  0 
 1.487355e-03  -1.281015e-02  0 
 7.093509e-04  -1.174120e-02  0 
 1.633609e-03  -1.373350e-02  0 
 2.641786e-03  -1.310902e-02  0 
 1.932369e-03  -1.372473e-02  0 
 3.841434e-03  -1.169808e-02  0 
 3.615478e-03  -1.066268e-02  0 
 4.405361e-03  -1.105462e-02  0 
 4.533592e-03  -1.188564e-02  0 
 3.202168e-03  -1.142278e-02  0 
 3.204835e-03  -1.201571e-02  0 
 4.571803e-03  -1.064699e-02  0 
 1.217878e-02  -1.737605e-02  0 
 9.518072e-03  -1.293966e-02  0 