# vtk DataFile Version 3.1
this is an vtk file created by FEMAC
ASCII
DATASET UNSTRUCTURED_GRID
POINTS 30 FLOAT
5.000000 3.000000 0.000000
5.000000 4.000000 0.000000
4.500000 3.000000 0.000000
4.750000 3.000000 0.000000
4.750000 4.000000 0.000000
5.000000 3.250000 0.000000
5.000000 3.500000 0.000000
5.000000 3.750000 0.000000
5.000000 4.250000 0.000000
5.250000 4.000000 0.000000
5.500000 4.000000 0.000000
4.761003 2.832250 0.000000
4.675053 3.181152 0.000000
4.828465 3.345163 0.000000
4.825859 3.583418 0.000000
4.649535 3.397124 0.000000
4.588195 3.700568 0.000000
4.832811 3.806797 0.000000
4.850704 3.155263 0.000000
4.832172 4.245757 0.000000
5.331392 3.813653 0.000000
5.195000 3.255000 0.000000
5.500000 3.775000 0.000000
5.194695 3.661595 0.000000
5.323754 3.413341 0.000000
5.404183 3.616917 0.000000
5.155217 3.845050 0.000000
5.171305 4.165198 0.000000
5.161848 4.344773 0.000000
5.384851 4.278430 0.000000
CELLS 42 168 
3 3 11  0
3 2 11  3
3 12  2  3
3 13  5  6
3 7 14  6
3 13 15 12
3 4 17  1
3 17  7  1
3 18  3  0
3 5 18  0
3 3 18 12
3 17 14  7
3 13 18  5
3 13 12 18
3 13  6 14
3 13 14 15
3 16 15 14
3 17  4 16
3 16 14 17
3 19  4  1
3 8 19  1
3 20 10  9
3 21  6  5
3 20 22 10
3 20 25 22
3 23  7  6
3 23 25 20
3 24  6 21
3 23  6 24
3 23 24 25
3 0 21  5
3 7 26  1
3 9 26 20
3 26  9  1
3 23 26  7
3 23 20 26
3 27 28  8
3 1 27  8
3 1  9 27
3 29  9 10
3 27  9 29
3 29 28 27
CELL_TYPES 42
5 5 5 5 5 5 5 5 5 5 5 5 5 5 5 5 5 5 5 5 5 5 5 5 5 5 5 5 5 5 5 5 5 5 5 5 5 5 5 5 5 5 
POINT_DATA 30
VECTORS displacement_ITER1 FLOAT
 -1.000456e-03  -3.276010e-01  0 
 6.327884e-02  -3.276299e-01  0 
 -9.986266e-04  -2.685744e-01  0 
 -9.971680e-04  -2.980896e-01  0 
 6.325817e-02  -3.149544e-01  0 
 1.508302e-02  -3.276113e-01  0 
 3.116024e-02  -3.276229e-01  0 
 4.723211e-02  -3.276359e-01  0 
 7.589898e-02  -3.276243e-01  0 
 6.330031e-02  -3.437194e-01  0 
 6.331062e-02  -3.598128e-01  0 
 -2.078955e-02  -2.993881e-01  0 
 1.247385e-02  -2.906587e-01  0 
 2.173747e-02  -3.083978e-01  0 
 3.555936e-02  -3.097237e-01  0 
 2.400935e-02  -2.910438e-01  0 
 4.229626e-02  -2.814804e-01  0 
 5.246863e-02  -3.136751e-01  0 
 9.851925e-03  -3.107887e-01  0 
 7.568887e-02  -3.191413e-01  0 
 5.132033e-02  -3.489472e-01  0 
 1.540793e-02  -3.401636e-01  0 
 4.884020e-02  -3.597961e-01  0 
 4.155018e-02  -3.401520e-01  0 
 2.559094e-02  -3.484514e-01  0 
 3.867872e-02  -3.536271e-01  0 
 5.333399e-02  -3.376104e-01  0 
 7.060783e-02  -3.406841e-01  0 
 7.882899e-02  -3.422412e-01  0 
 7.562052e-02  -3.564574e-01  0 
VECTORS displacement_ITER2 FLOAT
 2.470959e-02  -2.605808e-01  0 
 6.874047e-02  -2.606364e-01  0 
 2.470995e-02  -2.103303e-01  0 
 2.471176e-02  -2.354596e-01  0 
 6.871306e-02  -2.533487e-01  0 
 3.575014e-02  -2.605952e-01  0 
 4.677405e-02  -2.606151e-01  0 
 5.777716e-02  -2.606373e-01  0 
 7.596131e-02  -2.606283e-01  0 
 6.877207e-02  -2.716518e-01  0 
 6.878814e-02  -2.826712e-01  0 
 7.863162e-03  -2.365649e-01  0 
 3.402060e-02  -2.302133e-01  0 
 4.022951e-02  -2.450393e-01  0 
 4.919421e-02  -2.468184e-01  0 
 4.089978e-02  -2.319820e-01  0 
 5.302111e-02  -2.246184e-01  0 
 6.149266e-02  -2.506934e-01  0 
 3.234841e-02  -2.465645e-01  0 
 7.584380e-02  -2.557684e-01  0 
 6.057622e-02  -2.752246e-01  0 
 3.597712e-02  -2.692085e-01  0 
 5.888042e-02  -2.826558e-01  0 
 5.389092e-02  -2.692016e-01  0 
 4.295840e-02  -2.748899e-01  0 
 5.192420e-02  -2.784327e-01  0 
 6.194952e-02  -2.674616e-01  0 
 7.253662e-02  -2.704546e-01  0 
 7.718402e-02  -2.726610e-01  0 
 7.541851e-02  -2.823816e-01  0 
VECTORS displacement_ITER3 FLOAT
 9.313137e-03  -1.767759e-01  0 
 4.630563e-02  -1.767815e-01  0 
 9.331876e-03  -1.408819e-01  0 
 9.326409e-03  -1.588369e-01  0 
 4.627059e-02  -1.689195e-01  0 
 1.856783e-02  -1.767830e-01  0 
 2.782985e-02  -1.767875e-01  0 
 3.708930e-02  -1.767977e-01  0 
 5.407512e-02  -1.767558e-01  0 
 4.634882e-02  -1.860765e-01  0 
 4.637359e-02  -1.953655e-01  0 
 -2.705653e-03  -1.596347e-01  0 
 1.660003e-02  -1.540632e-01  0 
 2.193289e-02  -1.646759e-01  0 
 2.972814e-02  -1.654247e-01  0 
 2.272166e-02  -1.538949e-01  0 
 3.351571e-02  -1.459813e-01  0 
 4.014125e-02  -1.678551e-01  0 
 1.533600e-02  -1.662763e-01  0 
 5.395454e-02  -1.715254e-01  0 
 3.944524e-02  -1.890796e-01  0 
 1.875424e-02  -1.840126e-01  0 
 3.802317e-02  -1.953409e-01  0 
 3.381667e-02  -1.840069e-01  0 
 2.462275e-02  -1.887912e-01  0 
 3.216542e-02  -1.917773e-01  0 
 4.059630e-02  -1.825365e-01  0 
 5.007557e-02  -1.858601e-01  0 
 5.480441e-02  -1.880790e-01  0 
 5.286667e-02  -1.974055e-01  0 
VECTORS displacement_ITER4 FLOAT
 2.718256e-03  -1.343511e-01  0 
 3.324393e-02  -1.342718e-01  0 
 2.765381e-03  -1.176281e-01  0 
 2.749351e-03  -1.259997e-01  0 
 3.320573e-02  -1.251207e-01  0 
 1.029759e-02  -1.343464e-01  0 
 1.793189e-02  -1.343227e-01  0 
 2.560484e-02  -1.343096e-01  0 
 4.228366e-02  -1.342280e-01  0 
 3.329224e-02  -1.420118e-01  0 
 3.332305e-02  -1.497351e-01  0 
 -2.849268e-03  -1.263878e-01  0 
 8.270905e-03  -1.209170e-01  0 
 1.266550e-02  -1.261850e-01  0 
 1.964147e-02  -1.252605e-01  0 
 1.423836e-02  -1.172746e-01  0 
 2.397230e-02  -1.080948e-01  0 
 2.823059e-02  -1.259157e-01  0 
 7.078368e-03  -1.283456e-01  0 
 4.214765e-02  -1.281443e-01  0 
 2.755716e-02  -1.444998e-01  0 
 1.044115e-02  -1.402898e-01  0 
 2.638549e-02  -1.496973e-01  0 
 2.288674e-02  -1.402901e-01  0 
 1.528504e-02  -1.442426e-01  0 
 2.152576e-02  -1.467271e-01  0 
 2.850828e-02  -1.390630e-01  0 
 3.747339e-02  -1.425834e-01  0 
 4.277177e-02  -1.445315e-01  0 
 4.043533e-02  -1.538050e-01  0 
VECTORS displacement_ITER5 FLOAT
 -4.065043e-04  -9.369445e-02  0 
 2.550377e-02  -9.356151e-02  0 
 -3.304137e-04  -9.569360e-02  0 
 -3.561013e-04  -9.470244e-02  0 
 2.546512e-02  -8.436648e-02  0 
 5.955379e-03  -9.368444e-02  0 
 1.242739e-02  -9.363607e-02  0 
 1.897870e-02  -9.360757e-02  0 
 3.458554e-02  -9.351077e-02  0 
 2.555434e-02  -1.001936e-01  0 
 2.559037e-02  -1.068075e-01  0 
 3.303379e-04  -9.468971e-02  0 
 3.809331e-03  -8.886970e-02  0 
 7.521977e-03  -8.915684e-02  0 
 1.407745e-02  -8.678441e-02  0 
 9.928578e-03  -8.173019e-02  0 
 1.821610e-02  -7.296462e-02  0 
 2.107373e-02  -8.641219e-02  0 
 2.559972e-03  -9.196880e-02  0 
 3.445037e-02  -8.740087e-02  0 
 2.064728e-02  -1.023163e-01  0 
 6.066381e-03  -9.870280e-02  0 
 1.965369e-02  -1.067591e-01  0 
 1.665329e-02  -9.871724e-02  0 
 1.018213e-02  -1.020732e-01  0 
 1.549976e-02  -1.042069e-01  0 
 2.145721e-02  -9.766496e-02  0 
 2.990673e-02  -1.011932e-01  0 
 3.590725e-02  -1.033552e-01  0 
 3.347556e-02  -1.123381e-01  0 
VECTORS displacement_ITER6 FLOAT
 5.746167e-04  -6.671227e-02  0 
 2.105289e-02  -6.656312e-02  0 
 6.686053e-04  -8.065477e-02  0 
 6.376425e-04  -7.369012e-02  0 
 2.101214e-02  -5.914342e-02  0 
 5.544293e-03  -6.670192e-02  0 
 1.065811e-02  -6.664164e-02  0 
 1.586993e-02  -6.660944e-02  0 
 2.835704e-02  -6.650876e-02  0 
 2.110781e-02  -7.185679e-02  0 
 2.114817e-02  -7.713301e-02  0 
 5.334405e-03  -7.342072e-02  0 
 3.694344e-03  -6.816788e-02  0 
 6.569037e-03  -6.513553e-02  0 
 1.209305e-02  -6.209874e-02  0 
 9.342003e-03  -5.969826e-02  0 
 1.531068e-02  -5.257707e-02  0 
 1.732964e-02  -6.140832e-02  0 
 2.452871e-03  -6.804317e-02  0 
 2.825249e-02  -6.159354e-02  0 
 1.719909e-02  -7.354155e-02  0 
 5.623144e-03  -7.064927e-02  0 
 1.641543e-02  -7.708126e-02  0 
 1.401766e-02  -7.067451e-02  0 
 8.883779e-03  -7.332989e-02  0 
 1.310707e-02  -7.503788e-02  0 
 1.783915e-02  -6.983376e-02  0 
 2.459771e-02  -7.312239e-02  0 
 3.005334e-02  -7.549461e-02  0 
 2.801131e-02  -8.328667e-02  0 
VECTORS displacement_ITER7 FLOAT
 3.056042e-03  -4.880968e-02  0 
 2.359093e-02  -4.873506e-02  0 
 3.137835e-03  -5.208595e-02  0 
 3.112490e-03  -5.045388e-02  0 
 2.354428e-02  -4.450328e-02  0 
 8.082807e-03  -4.881096e-02  0 
 1.322824e-02  -4.877195e-02  0 
 1.843585e-02  -4.876329e-02  0 
 2.770457e-02  -4.868599e-02  0 
 2.365492e-02  -5.399897e-02  0 
 2.369806e-02  -5.925201e-02  0 
 4.231623e-03  -5.041261e-02  0 
 6.705160e-03  -4.702534e-02  0 
 9.649324e-03  -4.654011e-02  0 
 1.448087e-02  -4.492478e-02  0 
 1.162366e-02  -4.246105e-02  0 
 1.599933e-02  -3.890420e-02  0 
 1.940005e-02  -4.554421e-02  0 
 5.645038e-03  -4.834958e-02  0 
 2.765192e-02  -4.591213e-02  0 
 1.976537e-02  -5.567676e-02  0 
 8.169115e-03  -5.279117e-02  0 
 1.898060e-02  -5.921124e-02  0 
 1.659233e-02  -5.281545e-02  0 
 1.144670e-02  -5.548042e-02  0 
 1.567777e-02  -5.718088e-02  0 
 2.040061e-02  -5.198066e-02  0 
 2.557232e-02  -5.489784e-02  0 
 2.952504e-02  -5.764847e-02  0 
 2.830043e-02  -6.419782e-02  0 
VECTORS displacement_ITER8 FLOAT
 2.174351e-04  -3.869896e-02  0 
 1.578586e-02  -3.873077e-02  0 
 2.783332e-04  -2.656232e-02  0 
 2.617929e-04  -3.263644e-02  0 
 1.573411e-02  -3.933900e-02  0 
 4.063186e-03  -3.871744e-02  0 
 7.986895e-03  -3.871024e-02  0 
 1.192493e-02  -3.873283e-02  0 
 1.506471e-02  -3.869375e-02  0 
 1.585764e-02  -4.269038e-02  0 
 1.590255e-02  -4.665117e-02  0 
 -3.789173e-03  -3.292421e-02  0 
 3.385339e-03  -3.198665e-02  0 
 5.623847e-03  -3.525259e-02  0 
 8.330671e-03  -3.591783e-02  0 
 5.751081e-03  -3.309712e-02  0 
 6.871579e-03  -3.432308e-02  0 
 1.192079e-02  -3.839113e-02  0 
 2.890144e-03  -3.548549e-02  0 
 1.508954e-02  -3.916600e-02  0 
 1.293351e-02  -4.394856e-02  0 
 4.135818e-03  -4.175916e-02  0 
 1.234197e-02  -4.662319e-02  0 
 1.053986e-02  -4.178492e-02  0 
 6.634636e-03  -4.380882e-02  0 
 9.845948e-03  -4.509348e-02  0 
 1.340530e-02  -4.115893e-02  0 
 1.524500e-02  -4.367746e-02  0 
 1.682210e-02  -4.717518e-02  0 
 1.688123e-02  -5.116154e-02  0 
VECTORS displacement_ITER9 FLOAT
 4.260302e-03  -3.212839e-02  0 
 1.130308e-02  -3.213635e-02  0 
 4.325060e-03  -2.311700e-02  0 
 4.308002e-03  -2.762862e-02  0 
 1.125471e-02  -3.325042e-02  0 
 5.951461e-03  -3.214629e-02  0 
 7.734767e-03  -3.213187e-02  0 
 9.550050e-03  -3.214480e-02  0 
 1.008189e-02  -3.209697e-02  0 
 1.137036e-02  -3.398566e-02  0 
 1.141418e-02  -3.583678e-02  0 
 1.307818e-03  -2.784859e-02  0 
 5.921831e-03  -2.789641e-02  0 
 6.753939e-03  -3.008258e-02  0 
 7.404976e-03  -3.081251e-02  0 
 6.365486e-03  -2.965044e-02  0 
 4.879108e-03  -3.194428e-02  0 
 8.770916e-03  -3.290133e-02  0 
 5.673866e-03  -3.000778e-02  0 
 1.011574e-02  -3.290740e-02  0 
 1.001914e-02  -3.455599e-02  0 
 5.978516e-03  -3.351583e-02  0 
 9.756792e-03  -3.580194e-02  0 
 8.912533e-03  -3.354895e-02  0 
 7.123422e-03  -3.446973e-02  0 
 8.600707e-03  -3.507716e-02  0 
 1.022661e-02  -3.325698e-02  0 
 1.041932e-02  -3.562268e-02  0 
 1.177178e-02  -3.900904e-02  0 
 1.192166e-02  -4.175003e-02  0 
VECTORS displacement_ITER10 FLOAT
 9.035744e-04  -2.191619e-02  0 
 7.013404e-03  -2.183616e-02  0 
 9.844005e-04  -1.931581e-02  0 
 9.616911e-04  -2.062301e-02  0 
 6.971484e-03  -1.912785e-02  0 
 2.302193e-03  -2.192411e-02  0 
 3.830503e-03  -2.188435e-02  0 
 5.437206e-03  -2.186827e-02  0 
 9.616369e-03  -2.178540e-02  0 
 7.071933e-03  -2.351401e-02  0 
 7.113995e-03  -2.518758e-02  0 
 1.144893e-04  -2.070828e-02  0 
 2.423162e-03  -2.047717e-02  0 
 3.000750e-03  -2.089927e-02  0 
 3.803946e-03  -2.068445e-02  0 
 3.244791e-03  -2.058885e-02  0 
 2.382658e-03  -2.162800e-02  0 
 4.578620e-03  -2.132732e-02  0 
 1.977491e-03  -2.123576e-02  0 
 9.589076e-03  -2.003117e-02  0 
 5.853116e-03  -2.402401e-02  0 
 2.314950e-03  -2.308454e-02  0 
 5.625992e-03  -2.513630e-02  0 
 4.864284e-03  -2.312320e-02  0 
 3.302870e-03  -2.392055e-02  0 
 4.596303e-03  -2.447211e-02  0 
 6.039218e-03  -2.285765e-02  0 
 8.265393e-03  -2.539413e-02  0 
 1.197575e-02  -2.818585e-02  0 
 1.104082e-02  -3.242421e-02  0 
VECTORS displacement_ITER11 FLOAT
 -3.985230e-03  -1.636931e-02  0 
 1.836618e-03  -1.626709e-02  0 
 -3.903761e-03  -1.377370e-02  0 
 -3.926770e-03  -1.508003e-02  0 
 1.796589e-03  -1.230765e-02  0 
 -2.666819e-03  -1.637502e-02  0 
 -1.216247e-03  -1.633128e-02  0 
 3.207357e-04  -1.630763e-02  0 
 5.688934e-03  -1.621098e-02  0 
 1.892695e-03  -1.788814e-02  0 
 1.934021e-03  -1.950198e-02  0 
 -4.772432e-03  -1.516585e-02  0 
 -2.537526e-03  -1.497171e-02  0 
 -2.006184e-03  -1.536789e-02  0 
 -1.214898e-03  -1.508739e-02  0 
 -1.773731e-03  -1.508702e-02  0 
 -2.468422e-03  -1.608114e-02  0 
 -6.486666e-04  -1.537482e-02  0 
 -2.962266e-03  -1.569620e-02  0 
 5.642371e-03  -1.361861e-02  0 
 7.186388e-04  -1.837792e-02  0 
 -2.656878e-03  -1.747459e-02  0 
 5.027639e-04  -1.944595e-02  0 
 -2.299831e-04  -1.751259e-02  0 
 -1.718127e-03  -1.827198e-02  0 
 -4.842274e-04  -1.880338e-02  0 
 8.973649e-04  -1.725574e-02  0 
 3.758731e-03  -1.988551e-02  0 
 8.243019e-03  -2.248653e-02  0 
 6.931429e-03  -2.730119e-02  0 
VECTORS displacement_ITER12 FLOAT
 -1.881132e-03  -1.373658e-02  0 
 4.147993e-03  -1.363642e-02  0 
 -1.804775e-03  -9.360674e-03  0 
 -1.825954e-03  -1.155870e-02  0 
 4.107543e-03  -9.856913e-03  0 
 -4.983827e-04  -1.374247e-02  0 
 1.005605e-03  -1.370258e-02  0 
 2.588000e-03  -1.368006e-02  0 
 7.815379e-03  -1.357669e-02  0 
 4.203947e-03  -1.530524e-02  0 
 4.244233e-03  -1.696369e-02  0 
 -3.269699e-03  -1.168228e-02  0 
 -3.873195e-04  -1.155277e-02  0 
 2.011366e-04  -1.243651e-02  0 
 1.001953e-03  -1.234339e-02  0 
 3.077481e-04  -1.206467e-02  0 
 -2.626752e-04  -1.317628e-02  0 
 1.661124e-03  -1.273587e-02  0 
 -7.687154e-04  -1.266387e-02  0 
 7.773324e-03  -1.110823e-02  0 
 2.996435e-03  -1.581041e-02  0 
 -4.857424e-04  -1.488697e-02  0 
 2.772807e-03  -1.690946e-02  0 
 2.021453e-03  -1.492067e-02  0 
 4.850875e-04  -1.570793e-02  0 
 1.757896e-03  -1.625163e-02  0 
 3.180752e-03  -1.465557e-02  0 
 5.910537e-03  -1.723541e-02  0 
 1.014525e-02  -1.969143e-02  0 
 8.848691e-03  -2.452944e-02  0 
VECTORS displacement_ITER13 FLOAT
 -4.353688e-03  -1.212397e-02  0 
 7.451747e-04  -1.203387e-02  0 
 -4.280562e-03  -6.408147e-03  0 
 -4.300535e-03  -9.277230e-03  0 
 7.032635e-04  -9.831930e-03  0 
 -3.190405e-03  -1.213120e-02  0 
 -1.914682e-03  -1.209609e-02  0 
 -5.707984e-04  -1.207778e-02  0 
 2.830465e-03  -1.197271e-02  0 
 8.012772e-04  -1.346078e-02  0 
 8.401916e-04  -1.487519e-02  0 
 -6.194110e-03  -9.429303e-03  0 
 -2.904246e-03  -9.425944e-03  0 
 -2.486571e-03  -1.072125e-02  0 
 -1.935577e-03  -1.092257e-02  0 
 -2.526171e-03  -1.043365e-02  0 
 -3.281252e-03  -1.187412e-02  0 
 -1.328373e-03  -1.162425e-02  0 
 -3.282311e-03  -1.081788e-02  0 
 2.815579e-03  -1.056652e-02  0 
 -2.246430e-04  -1.388828e-02  0 
 -3.180626e-03  -1.310017e-02  0 
 -4.124061e-04  -1.482540e-02  0 
 -1.051905e-03  -1.313096e-02  0 
 -2.355793e-03  -1.379987e-02  0 
 -1.274552e-03  -1.426361e-02  0 
 -7.075230e-05  -1.290316e-02  0 
 1.598204e-03  -1.529127e-02  0 
 4.795886e-03  -1.775193e-02  0 
 3.891994e-03  -2.187888e-02  0 
VECTORS displacement_ITER14 FLOAT
 -4.665309e-03  -1.019881e-02  0 
 -9.447729e-04  -1.009860e-02  0 
 -4.586554e-03  -9.208501e-03  0 
 -4.608403e-03  -9.715215e-03  0 
 -9.873827e-04  -9.496266e-03  0 
 -3.853612e-03  -1.020421e-02  0 
 -2.921027e-03  -1.016498e-02  0 
 -1.917570e-03  -1.014544e-02  0 
 -4.624878e-04  -1.003568e-02  0 
 -8.904347e-04  -1.118360e-02  0 
 -8.537332e-04  -1.225236e-02  0 
 -4.915980e-03  -9.765886e-03  0 
 -3.373128e-03  -9.413937e-03  0 
 -3.253575e-03  -9.591928e-03  0 
 -2.794086e-03  -9.475762e-03  0 
 -2.931786e-03  -9.356351e-03  0 
 -3.729278e-03  -1.034559e-02  0 
 -2.304651e-03  -1.013620e-02  0 
 -3.921326e-03  -9.952771e-03  0 
 -4.498263e-04  -9.706404e-03  0 
 -1.660187e-03  -1.150115e-02  0 
 -3.852336e-03  -1.090202e-02  0 
 -1.795688e-03  -1.220668e-02  0 
 -2.278738e-03  -1.093262e-02  0 
 -3.243915e-03  -1.142570e-02  0 
 -2.440669e-03  -1.177851e-02  0 
 -1.548861e-03  -1.075726e-02  0 
 -1.037540e-03  -1.280618e-02  0 
 8.909785e-04  -1.502586e-02  0 
 3.946549e-04  -1.824828e-02  0 
VECTORS displacement_ITER15 FLOAT
 -3.579071e-03  -8.887957e-03  0 
 7.009658e-04  -8.806386e-03  0 
 -3.498714e-03  -9.323845e-03  0 
 -3.521136e-03  -9.117843e-03  0 
 6.561607e-04  -9.734183e-03  0 
 -2.618048e-03  -8.894570e-03  0 
 -1.538128e-03  -8.858588e-03  0 
 -3.974872e-04  -8.846777e-03  0 
 -3.484700e-04  -8.746389e-03  0 
 7.568579e-04  -1.001488e-02  0 
 7.924603e-04  -1.120646e-02  0 
 -3.350245e-03  -9.138035e-03  0 
 -2.133089e-03  -8.536402e-03  0 
 -1.951196e-03  -8.446279e-03  0 
 -1.307520e-03  -8.303986e-03  0 
 -1.463470e-03  -8.083492e-03  0 
 -2.218726e-03  -9.146963e-03  0 
 -5.454159e-04  -9.291811e-03  0 
 -2.785877e-03  -8.925500e-03  0 
 -3.107326e-04  -9.445050e-03  0 
 -1.061738e-04  -1.037525e-02  0 
 -2.612833e-03  -9.706771e-03  0 
 -2.641235e-04  -1.116944e-02  0 
 -8.045927e-04  -9.736032e-03  0 
 -1.911242e-03  -1.030379e-02  0 
 -9.928350e-04  -1.069682e-02  0 
 2.098565e-05  -9.540389e-03  0 
 -3.031821e-04  -1.124678e-02  0 
 2.409580e-04  -1.319009e-02  0 
 1.729214e-04  -1.564771e-02  0 
VECTORS displacement_ITER16 FLOAT
 -1.712423e-03  -8.952022e-03  0 
 2.899066e-03  -8.887665e-03  0 
 -1.633723e-03  -7.539409e-03  0 
 -1.655747e-03  -8.258508e-03  0 
 2.852631e-03  -1.015997e-02  0 
 -6.555435e-04  -8.960022e-03  0 
 5.126009e-04  -8.928756e-03  0 
 1.730798e-03  -8.923044e-03  0 
 1.504076e-03  -8.829633e-03  0 
 2.957008e-03  -1.016521e-02  0 
 2.992321e-03  -1.142546e-02  0 
 -2.105428e-03  -8.318832e-03  0 
 -1.839244e-04  -7.850309e-03  0 
 6.815159e-05  -8.241652e-03  0 
 7.194827e-04  -8.320613e-03  0 
 4.085982e-04  -7.880595e-03  0 
 -2.939298e-04  -9.184904e-03  0 
 1.591105e-03  -9.477305e-03  0 
 -7.950537e-04  -8.596619e-03  0 
 1.547242e-03  -9.759435e-03  0 
 2.041696e-03  -1.054933e-02  0 
 -6.469233e-04  -9.843098e-03  0 
 1.870584e-03  -1.139417e-02  0 
 1.298272e-03  -9.869909e-03  0 
 1.094512e-04  -1.048228e-02  0 
 1.094392e-03  -1.089720e-02  0 
 2.177471e-03  -9.663075e-03  0 
 1.606900e-03  -1.122515e-02  0 
 1.521900e-03  -1.288989e-02  0 
 1.564654e-03  -1.509554e-02  0 
VECTORS displacement_ITER17 FLOAT
 -1.302789e-03  -8.293659e-03  0 
 2.281114e-03  -8.216161e-03  0 
 -1.221419e-03  -7.545180e-03  0 
 -1.244590e-03  -7.932976e-03  0 
 2.235337e-03  -8.496979e-03  0 
 -5.093014e-04  -8.299688e-03  0 
 3.992661e-04  -8.264793e-03  0 
 1.363218e-03  -8.254756e-03  0 
 1.877757e-03  -8.156590e-03  0 
 2.338326e-03  -9.244741e-03  0 
 2.373230e-03  -1.025406e-02  0 
 -1.471273e-03  -7.979856e-03  0 
 1.851237e-05  -7.547192e-03  0 
 9.887778e-05  -7.726625e-03  0 
 5.845176e-04  -7.684346e-03  0 
 4.354643e-04  -7.446463e-03  0 
 -1.755727e-04  -8.365380e-03  0 
 1.175988e-03  -8.444585e-03  0 
 -5.666271e-04  -8.100323e-03  0 
 1.904801e-03  -8.420450e-03  0 
 1.609321e-03  -9.547077e-03  0 
 -5.071381e-04  -8.979442e-03  0 
 1.477493e-03  -1.022161e-02  0 
 1.019269e-03  -9.005765e-03  0 
 8.502777e-05  -9.486014e-03  0 
 8.613258e-04  -9.820086e-03  0 
 1.713781e-03  -8.837865e-03  0 
 1.403410e-03  -1.043075e-02  0 
 1.558808e-03  -1.174693e-02  0 
 1.335905e-03  -1.416784e-02  0 
VECTORS displacement_ITER18 FLOAT
 -1.263245e-03  -8.116115e-03  0 
 1.287460e-03  -8.037099e-03  0 
 -1.181493e-03  -6.980083e-03  0 
 -1.204891e-03  -7.562074e-03  0 
 1.242058e-03  -7.614311e-03  0 
 -7.285312e-04  -8.121970e-03  0 
 -7.901926e-05  -8.086752e-03  0 
 6.266125e-04  -8.075698e-03  0 
 1.588684e-03  -7.977841e-03  0 
 1.344937e-03  -8.808835e-03  0 
 1.379942e-03  -9.561200e-03  0 
 -1.561505e-03  -7.617622e-03  0 
 -8.057805e-05  -7.288862e-03  0 
 -1.828948e-04  -7.537329e-03  0 
 6.225807e-05  -7.483466e-03  0 
 9.869098e-05  -7.336492e-03  0 
 -6.154189e-04  -8.103424e-03  0 
 3.659798e-04  -8.013252e-03  0 
 -6.475960e-04  -7.873274e-03  0 
 1.603967e-03  -7.768018e-03  0 
 8.071684e-04  -9.027144e-03  0 
 -7.316622e-04  -8.600092e-03  0 
 7.150791e-04  -9.528121e-03  0 
 3.736834e-04  -8.626436e-03  0 
 -3.037364e-04  -8.973439e-03  0 
 2.619168e-04  -9.224796e-03  0 
 8.793950e-04  -8.499147e-03  0 
 6.369088e-04  -1.018524e-02  0 
 8.655753e-04  -1.128178e-02  0 
 4.610679e-04  -1.383593e-02  0 
VECTORS displacement_ITER19 FLOAT
 -4.954797e-04  -7.864280e-03  0 
 1.540973e-03  -7.786069e-03  0 
 -4.127026e-04  -6.272379e-03  0 
 -4.366420e-04  -7.082545e-03  0 
 1.496190e-03  -7.071055e-03  0 
 -8.972993e-05  -7.870393e-03  0 
 4.309564e-04  -7.835248e-03  0 
 1.008034e-03  -7.824089e-03  0 
 2.135671e-03  -7.727567e-03  0 
 1.598290e-03  -8.429186e-03  0 
 1.633192e-03  -9.053024e-03  0 
 -9.461036e-04  -7.148484e-03  0 
 6.200529e-04  -6.823222e-03  0 
 4.204385e-04  -7.196203e-03  0 
 5.406782e-04  -7.168768e-03  0 
 6.495327e-04  -6.969480e-03  0 
 -1.305364e-04  -7.694832e-03  0 
 7.151536e-04  -7.631343e-03  0 
 6.099919e-05  -7.519218e-03  0 
 2.145905e-03  -7.320181e-03  0 
 1.155993e-03  -8.605611e-03  0 
 -9.542341e-05  -8.248291e-03  0 
 1.083542e-03  -9.019978e-03  0 
 8.005261e-04  -8.275015e-03  0 
 2.508716e-04  -8.555604e-03  0 
 7.116921e-04  -8.765810e-03  0 
 1.212232e-03  -8.168161e-03  0 
 9.412686e-04  -9.919814e-03  0 
 1.109671e-03  -1.091435e-02  0 
 6.351422e-04  -1.350261e-02  0 
VECTORS displacement_ITER20 FLOAT
 6.158555e-04  -7.788635e-03  0 
 2.718083e-03  -7.714815e-03  0 
 6.991332e-04  -5.597332e-03  0 
 6.748903e-04  -6.707448e-03  0 
 2.673561e-03  -7.198584e-03  0 
 1.040827e-03  -7.795477e-03  0 
 1.579332e-03  -7.761484e-03  0 
 2.171583e-03  -7.751780e-03  0 
 3.114198e-03  -7.656757e-03  0 
 2.775176e-03  -8.370666e-03  0 
 2.809451e-03  -9.006418e-03  0 
 -3.564786e-05  -6.786763e-03  0 
 1.723667e-03  -6.475311e-03  0 
 1.555133e-03  -7.017902e-03  0 
 1.680516e-03  -7.060936e-03  0 
 1.735498e-03  -6.746895e-03  0 
 1.004036e-03  -7.485628e-03  0 
 1.913057e-03  -7.589101e-03  0 
 1.192191e-03  -7.302735e-03  0 
 3.127738e-03  -7.382353e-03  0 
 2.323188e-03  -8.551851e-03  0 
 1.035920e-03  -8.187825e-03  0 
 2.247814e-03  -8.975768e-03  0 
 1.959175e-03  -8.213847e-03  0 
 1.393154e-03  -8.503579e-03  0 
 1.867025e-03  -8.717677e-03  0 
 2.381199e-03  -8.104820e-03  0 
 1.927803e-03  -9.797074e-03  0 
 1.704098e-03  -1.063935e-02  0 
 1.290473e-03  -1.308049e-02  0 
VECTORS displacement_ITER21 FLOAT
 1.920154e-04  -7.224957e-03  0 
 3.030469e-03  -7.150328e-03  0 
 2.770687e-04  -6.541977e-03  0 
 2.520723e-04  -6.897690e-03  0 
 2.986100e-03  -6.816745e-03  0 
 8.008260e-04  -7.231873e-03  0 
 1.524462e-03  -7.197277e-03  0 
 2.301063e-03  -7.187616e-03  0 
 3.243373e-03  -7.091681e-03  0 
 3.087076e-03  -7.988995e-03  0 
 3.120867e-03  -8.805697e-03  0 
 4.745124e-05  -6.944651e-03  0 
 1.337571e-03  -6.399438e-03  0 
 1.326054e-03  -6.605331e-03  0 
 1.723184e-03  -6.491264e-03  0 
 1.674543e-03  -6.156142e-03  0 
 1.241400e-03  -6.663103e-03  0 
 2.176163e-03  -7.008151e-03  0 
 7.831187e-04  -7.006810e-03  0 
 3.260169e-03  -6.940360e-03  0 
 2.499067e-03  -8.230103e-03  0 
 7.995500e-04  -7.767936e-03  0 
 2.394698e-03  -8.777534e-03  0 
 2.023543e-03  -7.792678e-03  0 
 1.273923e-03  -8.178469e-03  0 
 1.898007e-03  -8.450720e-03  0 
 2.580142e-03  -7.654246e-03  0 
 2.103778e-03  -9.287843e-03  0 
 1.599958e-03  -1.002628e-02  0 
 1.236076e-03  -1.242926e-02  0 
VECTORS displacement_ITER22 FLOAT
 -3.524144e-04  -6.812052e-03  0 
 2.717041e-03  -6.738399e-03  0 
 -2.681961e-04  -5.740596e-03  0 
 -2.931786e-04  -6.290576e-03  0 
 2.672312e-03  -6.729913e-03  0 
 3.205751e-04  -6.819337e-03  0 
 1.103434e-03  -6.786433e-03  0 
 1.934635e-03  -6.777258e-03  0 
 2.602435e-03  -6.677925e-03  0 
 2.773606e-03  -7.632010e-03  0 
 2.807123e-03  -8.501263e-03  0 
 -6.286850e-04  -6.345808e-03  0 
 8.106243e-04  -5.796684e-03  0 
 8.677576e-04  -6.131222e-03  0 
 1.349087e-03  -6.071904e-03  0 
 1.209627e-03  -5.610130e-03  0 
 1.030118e-03  -5.996466e-03  0 
 1.940486e-03  -6.612906e-03  0 
 2.773579e-04  -6.499581e-03  0 
 2.625271e-03  -6.746546e-03  0 
 2.145735e-03  -7.890934e-03  0 
 3.212914e-04  -7.403089e-03  0 
 2.032188e-03  -8.475279e-03  0 
 1.637857e-03  -7.424689e-03  0 
 8.320103e-04  -7.841707e-03  0 
 1.501457e-03  -8.129547e-03  0 
 2.233543e-03  -7.276886e-03  0 
 1.563099e-03  -8.919603e-03  0 
 7.851611e-04  -9.679434e-03  0 
 4.982386e-04  -1.200805e-02  0 
VECTORS displacement_ITER23 FLOAT
 5.963010e-04  -6.900112e-03  0 
 2.775081e-03  -6.827287e-03  0 
 6.799869e-04  -5.160317e-03  0 
 6.550286e-04  -6.044298e-03  0 
 2.729988e-03  -7.144176e-03  0 
 1.051088e-03  -6.908406e-03  0 
 1.612028e-03  -6.877168e-03  0 
 2.218219e-03  -6.868007e-03  0 
 2.332741e-03  -6.764909e-03  0 
 2.831899e-03  -7.497805e-03  0 
 2.865509e-03  -8.142159e-03  0 
 9.515573e-05  -6.113851e-03  0 
 1.568100e-03  -5.758663e-03  0 
 1.521430e-03  -6.245594e-03  0 
 1.802436e-03  -6.309384e-03  0 
 1.728861e-03  -5.880264e-03  0 
 1.551990e-03  -6.216500e-03  0 
 2.267462e-03  -6.804944e-03  0 
 1.119536e-03  -6.490223e-03  0 
 2.361677e-03  -7.053508e-03  0 
 2.371533e-03  -7.683557e-03  0 
 1.048112e-03  -7.320562e-03  0 
 2.292386e-03  -8.116814e-03  0 
 2.000874e-03  -7.340517e-03  0 
 1.417329e-03  -7.643445e-03  0 
 1.904000e-03  -7.857910e-03  0 
 2.430992e-03  -7.227539e-03  0 
 1.355437e-03  -8.939931e-03  0 
 3.156623e-04  -9.777578e-03  0 
 1.021714e-04  -1.194076e-02  0 
VECTORS displacement_ITER24 FLOAT
 1.428625e-04  -6.431454e-03  0 
 2.344490e-03  -6.348970e-03  0 
 2.315585e-04  -6.160824e-03  0 
 2.043324e-04  -6.309958e-03  0 
 2.299764e-03  -6.083898e-03  0 
 5.970550e-04  -6.439212e-03  0 
 1.162108e-03  -6.405188e-03  0 
 1.776921e-03  -6.392756e-03  0 
 2.482687e-03  -6.284178e-03  0 
 2.401431e-03  -7.032818e-03  0 
 2.435723e-03  -7.688413e-03  0 
 1.374272e-04  -6.349048e-03  0 
 9.791654e-04  -5.855845e-03  0 
 9.929150e-04  -5.978702e-03  0 
 1.411767e-03  -5.857320e-03  0 
 1.306271e-03  -5.529923e-03  0 
 1.453972e-03  -5.515797e-03  0 
 1.873199e-03  -6.079871e-03  0 
 5.640943e-04  -6.299667e-03  0 
 2.502597e-03  -6.182822e-03  0 
 1.932403e-03  -7.221573e-03  0 
 5.933006e-04  -6.853302e-03  0 
 1.852189e-03  -7.661672e-03  0 
 1.555534e-03  -6.873268e-03  0 
 9.654357e-04  -7.179585e-03  0 
 1.457650e-03  -7.397698e-03  0 
 1.993055e-03  -6.757909e-03  0 
 1.141514e-03  -8.646035e-03  0 
 3.369917e-04  -9.482123e-03  0 
 -4.478615e-05  -1.196424e-02  0 
VECTORS displacement_ITER25 FLOAT
 3.296114e-04  -6.537069e-03  0 
 1.818782e-03  -6.458246e-03  0 
 4.185508e-04  -4.876585e-03  0 
 3.908956e-04  -5.720594e-03  0 
 1.773996e-03  -6.165859e-03  0 
 6.101362e-04  -6.546179e-03  0 
 9.977959e-04  -6.514133e-03  0 
 1.432087e-03  -6.502248e-03  0 
 1.983769e-03  -6.392617e-03  0 
 1.876228e-03  -6.962263e-03  0 
 1.910756e-03  -7.437085e-03  0 
 -1.424651e-04  -5.790071e-03  0 
 9.996483e-04  -5.560831e-03  0 
 9.542637e-04  -6.007544e-03  0 
 1.166022e-03  -6.056771e-03  0 
 1.082874e-03  -5.738420e-03  0 
 1.102296e-03  -5.952679e-03  0 
 1.442497e-03  -6.257674e-03  0 
 6.942873e-04  -6.155429e-03  0 
 2.003458e-03  -6.273088e-03  0 
 1.541706e-03  -7.092104e-03  0 
 6.036522e-04  -6.823571e-03  0 
 1.488975e-03  -7.411155e-03  0 
 1.274644e-03  -6.842391e-03  0 
 8.625398e-04  -7.057367e-03  0 
 1.208360e-03  -7.216748e-03  0 
 1.579514e-03  -6.755378e-03  0 
 5.597254e-04  -8.704407e-03  0 
 -3.079047e-04  -9.539365e-03  0 
 -7.104808e-04  -1.198264e-02  0 
VECTORS displacement_ITER26 FLOAT
 3.354013e-04  -6.362390e-03  0 
 1.778489e-03  -6.285554e-03  0 
 4.250627e-04  -4.497473e-03  0 
 3.968778e-04  -5.443141e-03  0 
 1.733638e-03  -5.821368e-03  0 
 6.069249e-04  -6.372764e-03  0 
 9.835610e-04  -6.341879e-03  0 
 1.404953e-03  -6.330030e-03  0 
 2.114630e-03  -6.219057e-03  0 
 1.836354e-03  -6.777447e-03  0 
 1.871135e-03  -7.239099e-03  0 
 -2.052512e-04  -5.517177e-03  0 
 9.269175e-04  -5.337292e-03  0 
 9.219762e-04  -5.828415e-03  0 
 1.124466e-03  -5.891274e-03  0 
 1.009525e-03  -5.582304e-03  0 
 1.016987e-03  -5.856280e-03  0 
 1.362855e-03  -6.062986e-03  0 
 6.783041e-04  -5.933427e-03  0 
 2.131648e-03  -5.984455e-03  0 
 1.511353e-03  -6.902970e-03  0 
 6.008347e-04  -6.642507e-03  0 
 1.460350e-03  -7.213804e-03  0 
 1.252083e-03  -6.660324e-03  0 
 8.521111e-04  -6.869862e-03  0 
 1.187708e-03  -7.024618e-03  0 
 1.547379e-03  -6.575103e-03  0 
 5.825137e-04  -8.571355e-03  0 
 -2.117450e-04  -9.395223e-03  0 
 -6.732950e-04  -1.192607e-02  0 
VECTORS displacement_ITER27 FLOAT
 1.607562e-04  -6.276479e-03  0 
 1.492100e-03  -6.196895e-03  0 
 2.519230e-04  -5.660933e-03  0 
 2.230242e-04  -5.980883e-03  0 
 1.447169e-03  -5.572248e-03  0 
 4.036986e-04  -6.287944e-03  0 
 7.521116e-04  -6.256957e-03  0 
 1.145693e-03  -6.243655e-03  0 
 1.987059e-03  -6.128534e-03  0 
 1.550063e-03  -6.663831e-03  0 
 1.585013e-03  -7.098807e-03  0 
 3.998306e-05  -6.027843e-03  0 
 6.172400e-04  -5.750330e-03  0 
 6.421940e-04  -5.926199e-03  0 
 8.910612e-04  -5.854568e-03  0 
 7.956745e-04  -5.650875e-03  0 
 8.682834e-04  -5.725470e-03  0 
 1.111001e-03  -5.917659e-03  0 
 4.015765e-04  -6.089880e-03  0 
 2.001885e-03  -5.787245e-03  0 
 1.244788e-03  -6.780553e-03  0 
 3.972980e-04  -6.535809e-03  0 
 1.198107e-03  -7.073257e-03  0 
 1.002199e-03  -6.552981e-03  0 
 6.303600e-04  -6.748490e-03  0 
 9.428299e-04  -6.894265e-03  0 
 1.277322e-03  -6.471355e-03  0 
 3.653754e-04  -8.515649e-03  0 
 -3.153446e-04  -9.348408e-03  0 
 -8.389096e-04  -1.197437e-02  0 
VECTORS displacement_ITER28 FLOAT
 4.789783e-04  -6.295203e-03  0 
 1.627479e-03  -6.219220e-03  0 
 5.694280e-04  -5.161420e-03  0 
 5.406673e-04  -5.739744e-03  0 
 1.582252e-03  -5.737068e-03  0 
 6.810401e-04  -6.308579e-03  0 
 9.846639e-04  -6.279959e-03  0 
 1.330008e-03  -6.267224e-03  0 
 1.978184e-03  -6.149492e-03  0 
 1.685709e-03  -6.639098e-03  0 
 1.720554e-03  -7.025793e-03  0 
 1.836119e-04  -5.797575e-03  0 
 8.619132e-04  -5.595758e-03  0 
 8.930125e-04  -5.900036e-03  0 
 1.091607e-03  -5.892611e-03  0 
 9.776629e-04  -5.649723e-03  0 
 1.075036e-03  -5.690125e-03  0 
 1.312919e-03  -5.970303e-03  0 
 6.994682e-04  -6.001784e-03  0 
 1.995799e-03  -5.904872e-03  0 