# vtk DataFile Version 3.1
this is an vtk file created by FEMAC
ASCII
DATASET UNSTRUCTURED_GRID
POINTS 31 FLOAT
4.000000 0.000000 0.000000
4.000000 1.000000 0.000000
3.500000 0.000000 0.000000
3.750000 0.000000 0.000000
4.250000 0.000000 0.000000
4.500000 0.000000 0.000000
4.750000 0.000000 0.000000
4.000000 0.250000 0.000000
4.000000 0.500000 0.000000
4.000000 0.750000 0.000000
4.250000 1.000000 0.000000
4.500000 1.000000 0.000000
3.462570 0.272476 0.000000
3.787596 0.660045 0.000000
3.828307 0.162952 0.000000
3.638134 0.825570 0.000000
3.502535 0.594871 0.000000
3.746177 0.372389 0.000000
3.660592 0.165804 0.000000
3.835146 0.847123 0.000000
4.462570 0.272476 0.000000
4.214699 0.660302 0.000000
4.828307 0.162952 0.000000
4.638134 0.825570 0.000000
4.371728 0.825957 0.000000
4.502535 0.594871 0.000000
4.217467 0.400442 0.000000
4.746177 0.372389 0.000000
4.660592 0.165804 0.000000
4.167285 0.847252 0.000000
4.238340 0.153820 0.000000
CELLS 43 172 
3 13  8  9
3 14  3  0
3 7 14  0
3 16 13 15
3 13 17  8
3 17 16 12
3 13 16 17
3 17  7  8
3 14  7 17
3 14 18  3
3 9 19 13
3 19  9  1
3 18 17 12
3 14 17 18
3 15 13 19
3 18  2  3
3 2 18 12
3 8 21  9
3 11 24 23
3 26 21  8
3 25 26 20
3 25 21 26
3 27 25 20
3 10 24 11
3 7 26  8
3 25 24 21
3 23 24 25
3 22 28  6
3 9 29  1
3 29 10  1
3 29  9 21
3 28 27 20
3 22 27 28
3 29 24 10
3 21 24 29
3 28  5  6
3 5 28 20
3 4 30  0
3 30  7  0
3 5 30  4
3 26 30 20
3 30 26  7
3 5 20 30
CELL_TYPES 43
5 5 5 5 5 5 5 5 5 5 5 5 5 5 5 5 5 5 5 5 5 5 5 5 5 5 5 5 5 5 5 5 5 5 5 5 5 5 5 5 5 5 5 
POINT_DATA 31
VECTORS displacement_ITER1 FLOAT
 -2.095247e-01  -2.240652e-01  0 
 -1.070709e-01  -2.239911e-01  0 
 -1.712844e-01  -1.968410e-01  0 
 -1.926568e-01  -2.107664e-01  0 
 -2.095462e-01  -2.496698e-01  0 
 -2.095662e-01  -2.752834e-01  0 
 -2.095835e-01  -3.009126e-01  0 
 -1.839225e-01  -2.240384e-01  0 
 -1.583108e-01  -2.240225e-01  0 
 -1.326918e-01  -2.240081e-01  0 
 -1.070829e-01  -2.496195e-01  0 
 -1.070985e-01  -2.752420e-01  0 
 -1.646455e-01  -1.759546e-01  0 
 -1.379163e-01  -1.985389e-01  0 
 -1.871712e-01  -2.070408e-01  0 
 -1.121797e-01  -1.736437e-01  0 
 -1.381195e-01  -1.645925e-01  0 
 -1.666768e-01  -1.957762e-01  0 
 -1.785420e-01  -1.934282e-01  0 
 -1.184452e-01  -2.012557e-01  0 
 -1.816404e-01  -2.714346e-01  0 
 -1.418920e-01  -2.460182e-01  0 
 -1.928795e-01  -3.089316e-01  0 
 -1.249718e-01  -2.894018e-01  0 
 -1.249233e-01  -2.621055e-01  0 
 -1.486031e-01  -2.755181e-01  0 
 -1.685190e-01  -2.463106e-01  0 
 -1.714103e-01  -3.005017e-01  0 
 -1.925806e-01  -2.917364e-01  0 
 -1.227330e-01  -2.411491e-01  0 
 -1.937892e-01  -2.484615e-01  0 
VECTORS displacement_ITER2 FLOAT
 -1.159642e-01  -1.230414e-01  0 
 -6.000914e-02  -1.229390e-01  0 
 -9.001170e-02  -1.165315e-01  0 
 -1.037640e-01  -1.197133e-01  0 
 -1.159812e-01  -1.370103e-01  0 
 -1.159973e-01  -1.509862e-01  0 
 -1.160132e-01  -1.649740e-01  0 
 -1.019967e-01  -1.230200e-01  0 
 -8.801694e-02  -1.230039e-01  0 
 -7.402195e-02  -1.229782e-01  0 
 -6.002916e-02  -1.369671e-01  0 
 -6.004846e-02  -1.509827e-01  0 
 -8.888221e-02  -1.014349e-01  0 
 -7.459899e-02  -1.115794e-01  0 
 -1.029864e-01  -1.153045e-01  0 
 -5.514057e-02  -9.693319e-02  0 
 -7.368802e-02  -9.197228e-02  0 
 -9.187926e-02  -1.099166e-01  0 
 -9.733072e-02  -1.101863e-01  0 
 -6.363461e-02  -1.103670e-01  0 
 -1.007559e-01  -1.488836e-01  0 
 -7.905572e-02  -1.350087e-01  0 
 -1.068938e-01  -1.693485e-01  0 
 -6.980760e-02  -1.587058e-01  0 
 -6.978679e-02  -1.437980e-01  0 
 -8.272076e-02  -1.511150e-01  0 
 -9.359252e-02  -1.351709e-01  0 
 -9.517274e-02  -1.647470e-01  0 
 -1.067289e-01  -1.599630e-01  0 
 -6.858534e-02  -1.323409e-01  0 
 -1.073838e-01  -1.363475e-01  0 
VECTORS displacement_ITER3 FLOAT
 -6.350995e-02  -4.527163e-02  0 
 -4.483857e-02  -4.509755e-02  0 
 -4.626580e-02  -5.875421e-02  0 
 -5.436301e-02  -5.066241e-02  0 
 -6.352112e-02  -4.989424e-02  0 
 -6.352912e-02  -5.452287e-02  0 
 -6.353098e-02  -5.914690e-02  0 
 -5.888840e-02  -4.525302e-02  0 
 -5.424366e-02  -4.522172e-02  0 
 -4.956482e-02  -4.516811e-02  0 
 -4.487051e-02  -4.984393e-02  0 
 -4.488993e-02  -5.456154e-02  0 
 -5.090585e-02  -4.676536e-02  0 
 -4.731926e-02  -4.316926e-02  0 
 -5.815179e-02  -4.500622e-02  0 
 -3.160872e-02  -3.278564e-02  0 
 -4.519939e-02  -3.617721e-02  0 
 -5.499344e-02  -4.405923e-02  0 
 -5.484036e-02  -4.763908e-02  0 
 -4.142205e-02  -3.774617e-02  0 
 -5.848082e-02  -5.383042e-02  0 
 -5.126594e-02  -4.920900e-02  0 
 -6.050465e-02  -6.061732e-02  0 
 -4.817241e-02  -5.714521e-02  0 
 -4.816484e-02  -5.214635e-02  0 
 -5.249734e-02  -5.458442e-02  0 
 -5.610663e-02  -4.927777e-02  0 
 -5.662711e-02  -5.909172e-02  0 
 -6.045668e-02  -5.749934e-02  0 
 -4.775103e-02  -4.829860e-02  0 
 -6.067651e-02  -4.967191e-02  0 
VECTORS displacement_ITER4 FLOAT
 -2.564773e-02  -1.878479e-02  0 
 -1.633538e-02  -1.866735e-02  0 
 -1.691895e-02  -2.627496e-02  0 
 -2.104807e-02  -2.135996e-02  0 
 -2.565113e-02  -2.105664e-02  0 
 -2.565250e-02  -2.332869e-02  0 
 -2.565078e-02  -2.558440e-02  0 
 -2.337674e-02  -1.877555e-02  0 
 -2.109371e-02  -1.875776e-02  0 
 -1.877031e-02  -1.872093e-02  0 
 -1.642138e-02  -2.103973e-02  0 
 -1.647815e-02  -2.337566e-02  0 
 -2.079427e-02  -2.137492e-02  0 
 -2.039692e-02  -1.680006e-02  0 
 -2.317962e-02  -1.841731e-02  0 
 -1.968853e-02  -1.520072e-02  0 
 -2.074996e-02  -1.769904e-02  0 
 -2.209965e-02  -1.777060e-02  0 
 -2.165675e-02  -2.002701e-02  0 
 -1.822412e-02  -1.677243e-02  0 
 -2.317182e-02  -2.299684e-02  0 
 -1.961511e-02  -2.074230e-02  0 
 -2.415313e-02  -2.633402e-02  0 
 -1.809739e-02  -2.464469e-02  0 
 -1.807771e-02  -2.220173e-02  0 
 -2.021370e-02  -2.338851e-02  0 
 -2.200701e-02  -2.075918e-02  0 
 -2.225145e-02  -2.558661e-02  0 
 -2.413879e-02  -2.479254e-02  0 
 -1.785270e-02  -2.029729e-02  0 
 -2.425448e-02  -2.094923e-02  0 
VECTORS displacement_ITER5 FLOAT
 -1.034740e-02  -9.144151e-03  0 
 -5.394641e-03  -8.959961e-03  0 
 -9.334225e-03  -9.651389e-03  0 
 -9.623184e-03  -9.106469e-03  0 
 -1.034314e-02  -1.030348e-02  0 
 -1.033295e-02  -1.146368e-02  0 
 -1.031061e-02  -1.259637e-02  0 
 -9.187651e-03  -9.138729e-03  0 
 -8.007026e-03  -9.099971e-03  0 
 -6.771760e-03  -9.034613e-03  0 
 -5.499288e-03  -1.026267e-02  0 
 -5.547408e-03  -1.153157e-02  0 
 -8.964070e-03  -8.782211e-03  0 
 -7.317432e-03  -8.705618e-03  0 
 -9.499356e-03  -8.826576e-03  0 
 -6.815201e-03  -8.741709e-03  0 
 -7.795877e-03  -8.502730e-03  0 
 -8.659473e-03  -8.714899e-03  0 
 -9.378573e-03  -8.921923e-03  0 
 -6.438551e-03  -8.706818e-03  0 
 -9.081120e-03  -1.130222e-02  0 
 -7.237486e-03  -1.013332e-02  0 
 -9.574559e-03  -1.296971e-02  0 
 -6.437410e-03  -1.222085e-02  0 
 -6.415373e-03  -1.090457e-02  0 
 -7.565870e-03  -1.152971e-02  0 
 -8.490830e-03  -1.015543e-02  0 
 -8.604479e-03  -1.261651e-02  0 
 -9.567309e-03  -1.220713e-02  0 
 -6.274669e-03  -9.885937e-03  0 
 -9.633804e-03  -1.025386e-02  0 
VECTORS displacement_ITER6 FLOAT
 -7.459669e-03  -3.876817e-03  0 
 -2.582770e-03  -3.706900e-03  0 
 -4.885574e-03  -5.405402e-03  0 
 -6.014704e-03  -4.481885e-03  0 
 -7.457668e-03  -5.024224e-03  0 
 -7.450790e-03  -6.173278e-03  0 
 -7.434333e-03  -7.302112e-03  0 
 -6.312413e-03  -3.871066e-03  0 
 -5.147970e-03  -3.838045e-03  0 
 -3.931565e-03  -3.780282e-03  0 
 -2.681242e-03  -4.991463e-03  0 
 -2.728359e-03  -6.241134e-03  0 
 -5.548919e-03  -4.267428e-03  0 
 -4.270373e-03  -3.745147e-03  0 
 -6.365862e-03  -3.700616e-03  0 
 -3.508625e-03  -3.887712e-03  0 
 -4.578061e-03  -3.567567e-03  0 
 -5.613073e-03  -3.641116e-03  0 
 -5.909679e-03  -4.008434e-03  0 
 -3.488575e-03  -3.760470e-03  0 
 -6.208666e-03  -6.008938e-03  0 
 -4.387726e-03  -4.859444e-03  0 
 -6.706752e-03  -7.657815e-03  0 
 -3.598189e-03  -6.912539e-03  0 
 -3.579811e-03  -5.621528e-03  0 
 -4.705884e-03  -6.232859e-03  0 
 -5.623099e-03  -4.875596e-03  0 
 -5.735069e-03  -7.312287e-03  0 
 -6.694396e-03  -6.907233e-03  0 
 -3.443871e-03  -4.617442e-03  0 
 -6.754571e-03  -4.973306e-03  0 
VECTORS displacement_ITER7 FLOAT
 -5.511189e-03  -4.163561e-03  0 
 -2.459137e-03  -4.069677e-03  0 
 -4.190696e-03  -4.394115e-03  0 
 -4.753303e-03  -4.380481e-03  0 
 -5.512626e-03  -4.884297e-03  0 
 -5.514168e-03  -5.605806e-03  0 
 -5.521527e-03  -6.340050e-03  0 
 -4.793470e-03  -4.163448e-03  0 
 -4.069866e-03  -4.154796e-03  0 
 -3.318894e-03  -4.125012e-03  0 
 -2.555820e-03  -4.861182e-03  0 
 -2.618607e-03  -5.605961e-03  0 
 -4.258562e-03  -4.100246e-03  0 
 -3.440132e-03  -3.933737e-03  0 
 -4.812865e-03  -4.017375e-03  0 
 -2.674757e-03  -3.591376e-03  0 
 -3.416393e-03  -3.672599e-03  0 
 -4.285157e-03  -3.947455e-03  0 
 -4.513631e-03  -4.045622e-03  0 
 -2.859066e-03  -3.905134e-03  0 
 -4.723611e-03  -5.498597e-03  0 
 -3.597304e-03  -4.793466e-03  0 
 -5.048510e-03  -6.554067e-03  0 
 -3.138273e-03  -6.013178e-03  0 
 -3.108961e-03  -5.257929e-03  0 
 -3.787148e-03  -5.635354e-03  0 
 -4.359522e-03  -4.793965e-03  0 
 -4.424938e-03  -6.313633e-03  0 
 -5.034081e-03  -6.068627e-03  0 
 -3.016096e-03  -4.646950e-03  0 
 -5.068767e-03  -4.849645e-03  0 
VECTORS displacement_ITER8 FLOAT
 -5.253172e-03  -4.069419e-03  0 
 -2.385839e-03  -3.983383e-03  0 
 -3.948608e-03  -4.299105e-03  0 
 -4.476437e-03  -4.357923e-03  0 
 -5.255102e-03  -4.746463e-03  0 
 -5.257823e-03  -5.423826e-03  0 
 -5.266025e-03  -6.109550e-03  0 
 -4.579285e-03  -4.069539e-03  0 
 -3.900582e-03  -4.063793e-03  0 
 -3.196338e-03  -4.037600e-03  0 
 -2.482842e-03  -4.725136e-03  0 
 -2.547018e-03  -5.419947e-03  0 
 -3.813722e-03  -3.968839e-03  0 
 -3.248574e-03  -3.698222e-03  0 
 -4.551032e-03  -3.958293e-03  0 
 -2.529020e-03  -3.324231e-03  0 
 -3.107279e-03  -3.491956e-03  0 
 -4.003611e-03  -3.820131e-03  0 
 -4.195216e-03  -4.012088e-03  0 
 -2.729169e-03  -3.537985e-03  0 
 -4.512776e-03  -5.323260e-03  0 
 -3.456463e-03  -4.664912e-03  0 
 -4.816723e-03  -6.325114e-03  0 
 -3.034681e-03  -5.796750e-03  0 
 -3.002047e-03  -5.099053e-03  0 
 -3.631760e-03  -5.453094e-03  0 
 -4.171068e-03  -4.662183e-03  0 
 -4.230454e-03  -6.090677e-03  0 
 -4.805274e-03  -5.859361e-03  0 
 -2.912648e-03  -4.527541e-03  0 
 -4.837788e-03  -4.713386e-03  0 
VECTORS displacement_ITER9 FLOAT
 -5.297617e-03  -3.803255e-03  0 
 -2.237401e-03  -3.717304e-03  0 
 -3.862299e-03  -4.227405e-03  0 
 -4.405524e-03  -4.222351e-03  0 
 -5.299367e-03  -4.528865e-03  0 
 -5.301516e-03  -5.254721e-03  0 
 -5.306776e-03  -5.983716e-03  0 
 -4.574034e-03  -3.802174e-03  0 
 -3.846932e-03  -3.796496e-03  0 
 -3.095155e-03  -3.771282e-03  0 
 -2.335424e-03  -4.507243e-03  0 
 -2.404312e-03  -5.244703e-03  0 
 -3.533628e-03  -3.687002e-03  0 
 -3.128272e-03  -3.483042e-03  0 
 -4.517173e-03  -3.735141e-03  0 
 -2.479307e-03  -3.258372e-03  0 
 -2.954991e-03  -3.238725e-03  0 
 -3.886950e-03  -3.560030e-03  0 
 -4.095222e-03  -3.860280e-03  0 
 -2.625715e-03  -3.459901e-03  0 
 -4.505506e-03  -5.146900e-03  0 
 -3.371974e-03  -4.438801e-03  0 
 -4.827669e-03  -6.214645e-03  0 
 -2.913358e-03  -5.661434e-03  0 
 -2.884369e-03  -4.904243e-03  0 
 -3.559479e-03  -5.280742e-03  0 
 -4.136670e-03  -4.436507e-03  0 
 -4.205218e-03  -5.973076e-03  0 
 -4.817847e-03  -5.721088e-03  0 
 -2.792586e-03  -4.293772e-03  0 
 -4.852475e-03  -4.493775e-03  0 
VECTORS displacement_ITER10 FLOAT
 -5.255190e-03  -3.793426e-03  0 
 -2.309550e-03  -3.708017e-03  0 
 -3.912451e-03  -4.104857e-03  0 
 -4.430106e-03  -4.142309e-03  0 
 -5.257207e-03  -4.490034e-03  0 
 -5.260136e-03  -5.186687e-03  0 
 -5.270329e-03  -5.895625e-03  0 
 -4.561443e-03  -3.793209e-03  0 
 -3.863320e-03  -3.788200e-03  0 
 -3.140208e-03  -3.761823e-03  0 
 -2.406945e-03  -4.470739e-03  0 
 -2.474240e-03  -5.183779e-03  0 
 -3.569968e-03  -3.570588e-03  0 
 -3.187806e-03  -3.454081e-03  0 
 -4.514422e-03  -3.702202e-03  0 
 -2.575400e-03  -3.187651e-03  0 
 -3.015568e-03  -3.165822e-03  0 
 -3.903493e-03  -3.517808e-03  0 
 -4.117764e-03  -3.784345e-03  0 
 -2.676823e-03  -3.501469e-03  0 
 -4.493455e-03  -5.083671e-03  0 
 -3.407412e-03  -4.405455e-03  0 
 -4.804378e-03  -6.111637e-03  0 
 -2.964616e-03  -5.586545e-03  0 
 -2.937547e-03  -4.854193e-03  0 
 -3.587781e-03  -5.213795e-03  0 
 -4.141171e-03  -4.402966e-03  0 
 -4.204230e-03  -5.875297e-03  0 
 -4.793555e-03  -5.635511e-03  0 
 -2.848125e-03  -4.265853e-03  0 
 -4.827863e-03  -4.455993e-03  0 
VECTORS displacement_ITER11 FLOAT
 -5.223275e-03  -3.785815e-03  0 
 -2.318744e-03  -3.699667e-03  0 
 -3.946958e-03  -4.024672e-03  0 
 -4.421831e-03  -4.131578e-03  0 
 -5.225159e-03  -4.471632e-03  0 
 -5.227866e-03  -5.157408e-03  0 
 -5.237742e-03  -5.854807e-03  0 
 -4.540205e-03  -3.785459e-03  0 
 -3.852270e-03  -3.779791e-03  0 
 -3.139149e-03  -3.753155e-03  0 
 -2.415863e-03  -4.452141e-03  0 
 -2.482960e-03  -5.154947e-03  0 
 -3.521545e-03  -3.548691e-03  0 
 -3.174637e-03  -3.431596e-03  0 
 -4.486899e-03  -3.704382e-03  0 
 -2.591442e-03  -3.185942e-03  0 
 -2.979882e-03  -3.174711e-03  0 
 -3.867855e-03  -3.512934e-03  0 
 -4.086837e-03  -3.779929e-03  0 
 -2.679209e-03  -3.466543e-03  0 
 -4.473194e-03  -5.056423e-03  0 
 -3.402860e-03  -4.388190e-03  0 
 -4.778775e-03  -6.068405e-03  0 
 -2.966302e-03  -5.552092e-03  0 
 -2.939349e-03  -4.830557e-03  0 
 -3.581066e-03  -5.185430e-03  0 
 -4.126371e-03  -4.386023e-03  0 
 -4.188395e-03  -5.835323e-03  0 
 -4.768389e-03  -5.599299e-03  0 
 -2.850906e-03  -4.250482e-03  0 
 -4.802551e-03  -4.438218e-03  0 
VECTORS displacement_ITER12 FLOAT
 -5.215002e-03  -3.784794e-03  0 
 -2.312500e-03  -3.699549e-03  0 
 -3.944924e-03  -4.041851e-03  0 
 -4.413345e-03  -4.134886e-03  0 
 -5.216933e-03  -4.470537e-03  0 
 -5.219713e-03  -5.156287e-03  0 
 -5.229540e-03  -5.853628e-03  0 
 -4.532006e-03  -3.784469e-03  0 
 -3.844428e-03  -3.779097e-03  0 
 -3.131992e-03  -3.752809e-03  0 
 -2.409665e-03  -4.451026e-03  0 
 -2.477036e-03  -5.152858e-03  0 
 -3.500066e-03  -3.540439e-03  0 
 -3.162908e-03  -3.422006e-03  0 
 -4.479468e-03  -3.705599e-03  0 
 -2.592166e-03  -3.187890e-03  0 
 -2.963916e-03  -3.160708e-03  0 
 -3.856609e-03  -3.509954e-03  0 
 -4.079473e-03  -3.786774e-03  0 
 -2.675510e-03  -3.449456e-03  0 
 -4.465115e-03  -5.055075e-03  0 
 -3.395315e-03  -4.387134e-03  0 
 -4.770922e-03  -6.067009e-03  0 
 -2.959243e-03  -5.548480e-03  0 
 -2.932361e-03  -4.829037e-03  0 
 -3.573228e-03  -5.183571e-03  0 
 -4.118262e-03  -4.384827e-03  0 
 -4.180455e-03  -5.834034e-03  0 
 -4.760413e-03  -5.598080e-03  0 
 -2.844037e-03  -4.249675e-03  0 
 -4.794334e-03  -4.437082e-03  0 
VECTORS displacement_ITER13 FLOAT
 -5.214123e-03  -3.784929e-03  0 
 -2.311595e-03  -3.699631e-03  0 
 -3.940581e-03  -4.042197e-03  0 
 -4.413764e-03  -4.130534e-03  0 
 -5.216049e-03  -4.470641e-03  0 
 -5.218825e-03  -5.156357e-03  0 
 -5.228676e-03  -5.853722e-03  0 
 -4.531178e-03  -3.784623e-03  0 
 -3.843577e-03  -3.779199e-03  0 
 -3.131131e-03  -3.752855e-03  0 
 -2.408768e-03  -4.451126e-03  0 
 -2.476168e-03  -5.152953e-03  0 
 -3.504911e-03  -3.531990e-03  0 
 -3.159923e-03  -3.424821e-03  0 
 -4.479892e-03  -3.703265e-03  0 
 -2.589990e-03  -3.198180e-03  0 
 -2.963886e-03  -3.156935e-03  0 
 -3.857183e-03  -3.508771e-03  0 
 -4.082003e-03  -3.781036e-03  0 
 -2.676626e-03  -3.450936e-03  0 
 -4.464240e-03  -5.055174e-03  0 
 -3.394482e-03  -4.387200e-03  0 
 -4.770008e-03  -6.067108e-03  0 
 -2.958216e-03  -5.548537e-03  0 
 -2.931432e-03  -4.829128e-03  0 
 -3.572494e-03  -5.183714e-03  0 
 -4.117449e-03  -4.384978e-03  0 
 -4.179550e-03  -5.834114e-03  0 
 -4.759512e-03  -5.598154e-03  0 
 -2.843140e-03  -4.249759e-03  0 
 -4.793470e-03  -4.437191e-03  0 
VECTORS displacement_ITER14 FLOAT
 -5.214397e-03  -3.784800e-03  0 
 -2.311536e-03  -3.699494e-03  0 
 -3.939991e-03  -4.043419e-03  0 
 -4.413665e-03  -4.130549e-03  0 
 -5.216320e-03  -4.470584e-03  0 
 -5.219093e-03  -5.156368e-03  0 
 -5.228951e-03  -5.853810e-03  0 
 -4.531376e-03  -3.784490e-03  0 
 -3.843696e-03  -3.779064e-03  0 
 -3.131162e-03  -3.752719e-03  0 
 -2.408708e-03  -4.451079e-03  0 
 -2.476109e-03  -5.153001e-03  0 
 -3.505285e-03  -3.532237e-03  0 
 -3.159943e-03  -3.424583e-03  0 
 -4.480166e-03  -3.702979e-03  0 
 -2.589877e-03  -3.197979e-03  0 
 -2.964288e-03  -3.155528e-03  0 
 -3.857761e-03  -3.508408e-03  0 
 -4.082273e-03  -3.781043e-03  0 
 -2.676477e-03  -3.450648e-03  0 
 -4.464432e-03  -5.055187e-03  0 
 -3.394544e-03  -4.387140e-03  0 
 -4.770224e-03  -6.067223e-03  0 
 -2.958218e-03  -5.548640e-03  0 
 -2.931436e-03  -4.829126e-03  0 
 -3.572573e-03  -5.183748e-03  0 
 -4.117600e-03  -4.384913e-03  0 
 -4.179730e-03  -5.834170e-03  0 
 -4.759728e-03  -5.598211e-03  0 
 -2.843137e-03  -4.249682e-03  0 
 -4.793699e-03  -4.437133e-03  0 
CELL_DATA 43
TENSORS element_stresses FLOAT
 -1.142794e-03  9.697210e-04  0 
 9.697210e-04  -2.374561e-04  0 
 0  0  0 

 -2.873782e-03  1.933900e-03  0 
 1.933900e-03  1.097167e-03  0 
 0  0  0 

 -1.849519e-03  1.735932e-03  0 
 1.735932e-03  -5.536156e-04  0 
 0  0  0 

 -1.201187e-03  9.993728e-04  0 
 9.993728e-04  6.796677e-05  0 
 0  0  0 

 -1.221059e-03  9.993223e-04  0 
 9.993223e-04  1.133492e-04  0 
 0  0  0 

 -1.708209e-03  1.210154e-03  0 
 1.210154e-03  6.984750e-04  0 
 0  0  0 

 -1.264483e-03  1.204445e-03  0 
 1.204445e-03  6.251025e-05  0 
 0  0  0 

 -1.451663e-03  1.287300e-03  0 
 1.287300e-03  -4.137976e-04  0 
 0  0  0 

 -1.450247e-03  1.224969e-03  0 
 1.224969e-03  1.845793e-04  0 
 0  0  0 

 -1.808632e-03  9.476777e-04  0 
 9.476777e-04  1.838185e-03  0 
 0  0  0 

 -1.087347e-03  9.171903e-04  0 
 9.171903e-04  -4.230785e-05  0 
 0  0  0 

 -8.381556e-04  1.208904e-03  0 
 1.208904e-03  -3.854648e-05  0 
 0  0  0 

 -1.595787e-03  1.099512e-03  0 
 1.099512e-03  1.025756e-03  0 
 0  0  0 

 -2.199763e-03  1.953570e-03  0 
 1.953570e-03  4.590767e-04  0 
 0  0  0 

 -7.531405e-04  1.130483e-03  0 
 1.130483e-03  -3.395192e-05  0 
 0  0  0 

 -1.449109e-03  4.834482e-04  0 
 4.834482e-04  1.485282e-03  0 
 0  0  0 

 -1.831458e-03  7.885747e-04  0 
 7.885747e-04  1.290156e-03  0 
 0  0  0 

 -4.822224e-03  -4.675254e-02  0 
 -4.675254e-02  1.039355e-01  0 
 0  0  0 

 -6.348237e-02  -1.017942e-02  0 
 -1.017942e-02  1.104620e-01  0 
 0  0  0 

 3.146556e-03  -1.607292e-02  0 
 -1.607292e-02  -3.749905e-02  0 
 0  0  0 

 1.166407e-02  -7.876438e-04  0 
 -7.876438e-04  -5.264132e-02  0 
 0  0  0 

 2.846269e-03  4.910972e-03  0 
 4.910972e-03  -3.729845e-02  0 
 0  0  0 

 1.356232e-02  2.871634e-02  0 
 2.871634e-02  -5.687513e-02  0 
 0  0  0 

 -2.275575e-01  5.535580e-03  0 
 5.535580e-03  1.401433e-01  0 
 0  0  0 

 6.920489e-03  -1.943916e-02  0 
 -1.943916e-02  2.377759e-02  0 
 0  0  0 

 3.249009e-03  4.953405e-03  0 
 4.953405e-03  -3.575227e-02  0 
 0  0  0 

 -1.042156e-01  1.459872e-02  0 
 1.459872e-02  -2.547247e-02  0 
 0  0  0 

 -4.856588e-03  2.016844e-02  0 
 2.016844e-02  3.245303e-02  0 
 0  0  0 

 -1.322368e-01  1.415215e-01  0 
 1.415215e-01  1.732292e-01  0 
 0  0  0 

 -3.251059e-01  3.708927e-02  0 
 3.708927e-02  2.119426e-01  0 
 0  0  0 

 1.550095e-03  -8.077964e-03  0 
 -8.077964e-03  -1.536251e-02  0 
 0  0  0 

 1.736838e-02  4.263871e-02  0 
 4.263871e-02  2.096407e-04  0 
 0  0  0 

 -1.084046e-02  1.341085e-02  0 
 1.341085e-02  1.298771e-02  0 
 0  0  0 

 -7.362751e-02  7.745413e-02  0 
 7.745413e-02  1.826523e-01  0 
 0  0  0 

 -1.351643e-01  6.500933e-02  0 
 6.500933e-02  -2.364636e-02  0 
 0  0  0 

 -3.106266e-02  1.458720e-02  0 
 1.458720e-02  2.790191e-02  0 
 0  0  0 

 -1.015792e-03  1.876053e-02  0 
 1.876053e-02  -6.094219e-03  0 
 0  0  0 

 -5.313198e-03  2.917998e-03  0 
 2.917998e-03  7.928905e-03  0 
 0  0  0 

 2.484955e-03  -4.389858e-03  0 
 -4.389858e-03  1.985591e-03  0 
 0  0  0 

 -9.047042e-03  2.719767e-03  0 
 2.719767e-03  6.808743e-03  0 
 0  0  0 

 1.185947e-02  -1.961245e-03  0 
 -1.961245e-03  -1.705278e-02  0 
 0  0  0 

 -3.836663e-04  -3.626150e-03  0 
 -3.626150e-03  -2.082932e-02  0 
 0  0  0 

 6.400027e-04  1.328107e-02  0 
 1.328107e-02  -6.610173e-03  0 
 0  0  0 

TENSORS element_stresses FLOAT
 -1.142794e-03  9.697210e-04  0 
 9.697210e-04  -2.374561e-04  0 
 0  0  0 

 -2.873782e-03  1.933900e-03  0 
 1.933900e-03  1.097167e-03  0 
 0  0  0 

 -1.849519e-03  1.735932e-03  0 
 1.735932e-03  -5.536156e-04  0 
 0  0  0 

 -1.201187e-03  9.993728e-04  0 
 9.993728e-04  6.796677e-05  0 
 0  0  0 

 -1.221059e-03  9.993223e-04  0 
 9.993223e-04  1.133492e-04  0 
 0  0  0 

 -1.708209e-03  1.210154e-03  0 
 1.210154e-03  6.984750e-04  0 
 0  0  0 

 -1.264483e-03  1.204445e-03  0 
 1.204445e-03  6.251025e-05  0 
 0  0  0 

 -1.451663e-03  1.287300e-03  0 
 1.287300e-03  -4.137976e-04  0 
 0  0  0 

 -1.450247e-03  1.224969e-03  0 
 1.224969e-03  1.845793e-04  0 
 0  0  0 

 -1.808632e-03  9.476777e-04  0 
 9.476777e-04  1.838185e-03  0 
 0  0  0 

 -1.087347e-03  9.171903e-04  0 
 9.171903e-04  -4.230785e-05  0 
 0  0  0 

 -8.381556e-04  1.208904e-03  0 
 1.208904e-03  -3.854648e-05  0 
 0  0  0 

 -1.595787e-03  1.099512e-03  0 
 1.099512e-03  1.025756e-03  0 
 0  0  0 

 -2.199763e-03  1.953570e-03  0 
 1.953570e-03  4.590767e-04  0 
 0  0  0 

 -7.531405e-04  1.130483e-03  0 
 1.130483e-03  -3.395192e-05  0 
 0  0  0 

 -1.449109e-03  4.834482e-04  0 
 4.834482e-04  1.485282e-03  0 
 0  0  0 

 -1.831458e-03  7.885747e-04  0 
 7.885747e-04  1.290156e-03  0 
 0  0  0 

 -4.822224e-03  -4.675254e-02  0 
 -4.675254e-02  1.039355e-01  0 
 0  0  0 

 -6.348237e-02  -1.017942e-02  0 
 -1.017942e-02  1.104620e-01  0 
 0  0  0 

 3.146556e-03  -1.607292e-02  0 
 -1.607292e-02  -3.749905e-02  0 
 0  0  0 

 1.166407e-02  -7.876438e-04  0 
 -7.876438e-04  -5.264132e-02  0 
 0  0  0 

 2.846269e-03  4.910972e-03  0 
 4.910972e-03  -3.729845e-02  0 
 0  0  0 

 1.356232e-02  2.871634e-02  0 
 2.871634e-02  -5.687513e-02  0 
 0  0  0 

 -2.275575e-01  5.535580e-03  0 
 5.535580e-03  1.401433e-01  0 
 0  0  0 

 6.920489e-03  -1.943916e-02  0 
 -1.943916e-02  2.377759e-02  0 
 0  0  0 

 3.249009e-03  4.953405e-03  0 
 4.953405e-03  -3.575227e-02  0 
 0  0  0 

 -1.042156e-01  1.459872e-02  0 
 1.459872e-02  -2.547247e-02  0 
 0  0  0 

 -4.856588e-03  2.016844e-02  0 
 2.016844e-02  3.245303e-02  0 
 0  0  0 

 -1.322368e-01  1.415215e-01  0 
 1.415215e-01  1.732292e-01  0 
 0  0  0 

 -3.251059e-01  3.708927e-02  0 
 3.708927e-02  2.119426e-01  0 
 0  0  0 

 1.550095e-03  -8.077964e-03  0 
 -8.077964e-03  -1.536251e-02  0 
 0  0  0 

 1.736838e-02  4.263871e-02  0 
 4.263871e-02  2.096407e-04  0 
 0  0  0 

 -1.084046e-02  1.341085e-02  0 
 1.341085e-02  1.298771e-02  0 
 0  0  0 

 -7.362751e-02  7.745413e-02  0 
 7.745413e-02  1.826523e-01  0 
 0  0  0 

 -1.351643e-01  6.500933e-02  0 
 6.500933e-02  -2.364636e-02  0 
 0  0  0 

 -3.106266e-02  1.458720e-02  0 
 1.458720e-02  2.790191e-02  0 
 0  0  0 

 -1.015792e-03  1.876053e-02  0 
 1.876053e-02  -6.094219e-03  0 
 0  0  0 

 -5.313198e-03  2.917998e-03  0 
 2.917998e-03  7.928905e-03  0 
 0  0  0 

 2.484955e-03  -4.389858e-03  0 
 -4.389858e-03  1.985591e-03  0 
 0  0  0 

 -9.047042e-03  2.719767e-03  0 
 2.719767e-03  6.808743e-03  0 
 0  0  0 

 1.185947e-02  -1.961245e-03  0 
 -1.961245e-03  -1.705278e-02  0 
 0  0  0 

 -3.836663e-04  -3.626150e-03  0 
 -3.626150e-03  -2.082932e-02  0 
 0  0  0 

 6.400027e-04  1.328107e-02  0 
 1.328107e-02  -6.610173e-03  0 
 0  0  0 

