# vtk DataFile Version 3.1
this is an vtk file created by FEMAC
ASCII
DATASET UNSTRUCTURED_GRID
POINTS 31 FLOAT
1.000000 5.000000 0.000000
1.000000 6.000000 0.000000
0.750000 5.000000 0.000000
1.000000 4.750000 0.000000
0.750000 6.000000 0.000000
1.000000 5.250000 0.000000
1.000000 5.500000 0.000000
1.000000 5.750000 0.000000
1.250000 5.000000 0.000000
1.500000 5.000000 0.000000
1.250000 6.000000 0.000000
1.500000 6.000000 0.000000
0.847252 4.832715 0.000000
0.660302 5.785301 0.000000
0.825570 5.361866 0.000000
0.825957 5.628272 0.000000
0.847252 5.832715 0.000000
0.847123 5.164854 0.000000
1.332147 4.803316 0.000000
1.500000 4.775000 0.000000
1.200764 4.609959 0.000000
1.396983 4.637131 0.000000
1.156582 4.832655 0.000000
1.325972 5.178472 0.000000
1.500000 5.225000 0.000000
1.171968 5.341551 0.000000
1.216647 5.581177 0.000000
1.399662 5.398247 0.000000
1.507893 5.661856 0.000000
1.245757 5.832172 0.000000
1.149588 5.154005 0.000000
CELLS 42 168 
3 2 12  0
3 12  3  0
3 6 15 14
3 14  5  6
3 7 15  6
3 4 16  1
3 16  7  1
3 16  4 13
3 17  2  0
3 5 17  0
3 16 15  7
3 13 15 16
3 14 17  5
3 18  9  8
3 18 19  9
3 18 21 19
3 21 18 20
3 3 22  0
3 8 22 18
3 22  8  0
3 20 22  3
3 20 18 22
3 9 23  8
3 24 23  9
3 27 23 24
3 5 25  6
3 26  7  6
3 27 25 23
3 7 29  1
3 29 10  1
3 30  5  0
3 30  8 23
3 8 30  0
3 26 29  7
3 30 25  5
3 23 25 30
3 6 25 26
3 26 25 27
3 27 28 26
3 29 11 10
3 29 28 11
3 26 28 29
CELL_TYPES 42
5 5 5 5 5 5 5 5 5 5 5 5 5 5 5 5 5 5 5 5 5 5 5 5 5 5 5 5 5 5 5 5 5 5 5 5 5 5 5 5 5 5 
POINT_DATA 31
VECTORS displacement_ITER1 FLOAT
 2.757440e-02  -3.548365e-02  0 
 9.776285e-02  -3.582783e-02  0 
 2.751580e-02  -4.592807e-03  0 
 -3.312605e-03  -3.539275e-02  0 
 5.232078e-02  -5.454269e-02  0 
 4.525821e-02  -3.559407e-02  0 
 6.281657e-02  -3.569176e-02  0 
 8.031995e-02  -3.576503e-02  0 
 2.764596e-02  -5.318362e-02  0 
 2.768661e-02  -7.081093e-02  0 
 9.781490e-02  -5.328706e-02  0 
 9.786122e-02  -7.076786e-02  0 
 6.870100e-03  -1.655873e-02  0 
 5.768533e-02  -2.805882e-02  0 
 4.674712e-02  -1.959306e-02  0 
 6.443956e-02  -1.961393e-02  0 
 7.574336e-02  -2.726424e-02  0 
 3.460482e-02  -1.842176e-02  0 
 2.353164e-02  -5.618134e-02  0 
 3.571103e-02  -5.949604e-02  0 
 7.033116e-03  -3.019794e-02  0 
 2.223421e-02  -4.543187e-02  0 
 1.375265e-02  -4.789724e-02  0 
 4.025243e-02  -5.855855e-02  0 
 4.353986e-02  -7.081532e-02  0 
 5.172300e-02  -4.772655e-02  0 
 6.853439e-02  -5.089948e-02  0 
 5.572284e-02  -6.373522e-02  0 
 7.418887e-02  -7.129807e-02  0 
 8.609047e-02  -5.295433e-02  0 
 3.850739e-02  -4.612384e-02  0 
VECTORS displacement_ITER2 FLOAT
 3.189665e-02  -3.717491e-02  0 
 9.439297e-02  -3.752662e-02  0 
 3.182731e-02  -9.833980e-03  0 
 4.551013e-03  -3.707678e-02  0 
 5.210244e-02  -5.638157e-02  0 
 4.766936e-02  -3.729377e-02  0 
 6.330361e-02  -3.739584e-02  0 
 7.887849e-02  -3.746832e-02  0 
 3.197502e-02  -5.296207e-02  0 
 3.201540e-02  -6.867421e-02  0 
 9.444183e-02  -5.305730e-02  0 
 9.448539e-02  -6.860856e-02  0 
 1.356048e-02  -2.041116e-02  0 
 5.774621e-02  -3.195477e-02  0 
 4.857394e-02  -2.333557e-02  0 
 6.443090e-02  -2.337968e-02  0 
 7.442085e-02  -3.037025e-02  0 
 3.772960e-02  -2.210917e-02  0 
 2.770354e-02  -5.819955e-02  0 
 3.701212e-02  -6.495057e-02  0 
 9.439954e-03  -3.521111e-02  0 
 2.263992e-02  -5.176869e-02  0 
 1.973384e-02  -4.872349e-02  0 
 4.321351e-02  -5.775360e-02  0 
 4.614206e-02  -6.867207e-02  0 
 5.343078e-02  -4.810500e-02  0 
 6.839444e-02  -5.093238e-02  0 
 5.699291e-02  -6.235874e-02  0 
 7.342286e-02  -6.908044e-02  0 
 8.401211e-02  -5.275946e-02  0 
 4.165541e-02  -4.667440e-02  0 
VECTORS displacement_ITER3 FLOAT
 2.653098e-02  -2.221439e-02  0 
 7.156349e-02  -2.257615e-02  0 
 2.644002e-02  -2.040389e-03  0 
 6.340922e-03  -2.209753e-02  0 
 3.598790e-02  -4.046013e-02  0 
 3.796011e-02  -2.235100e-02  0 
 4.922453e-02  -2.245976e-02  0 
 6.042270e-02  -2.252821e-02  0 
 2.662380e-02  -3.365646e-02  0 
 2.666570e-02  -4.501549e-02  0 
 7.160517e-02  -3.373287e-02  0 
 7.164248e-02  -4.490771e-02  0 
 1.297751e-02  -9.813701e-03  0 
 4.195167e-02  -2.015260e-02  0 
 3.742170e-02  -1.213506e-02  0 
 4.887889e-02  -1.209378e-02  0 
 5.592555e-02  -1.781451e-02  0 
 2.958507e-02  -1.090225e-02  0 
 2.384482e-02  -4.288726e-02  0 
 2.872422e-02  -5.486169e-02  0 
 3.933277e-03  -2.547104e-02  0 
 1.376768e-02  -4.389124e-02  0 
 1.836069e-02  -3.205043e-02  0 
 3.475352e-02  -3.712310e-02  0 
 3.686755e-02  -4.500208e-02  0 
 4.212324e-02  -3.016130e-02  0 
 5.289182e-02  -3.220348e-02  0 
 4.469105e-02  -4.043128e-02  0 
 5.650024e-02  -4.524622e-02  0 
 6.411196e-02  -3.351415e-02  0 
 3.362045e-02  -2.912200e-02  0 
VECTORS displacement_ITER4 FLOAT
 2.614013e-02  -1.633913e-02  0 
 6.181585e-02  -1.669939e-02  0 
 2.602871e-02  -1.543255e-03  0 
 1.131035e-02  -1.621194e-02  0 
 3.254430e-02  -3.200970e-02  0 
 3.524678e-02  -1.648671e-02  0 
 4.416824e-02  -1.659798e-02  0 
 5.301890e-02  -1.666105e-02  0 
 2.624739e-02  -2.545069e-02  0 
 2.629381e-02  -3.447436e-02  0 
 6.185073e-02  -2.551173e-02  0 
 6.188227e-02  -3.433952e-02  0 
 1.617059e-02  -7.210573e-03  0 
 3.743244e-02  -1.506991e-02  0 
 3.425713e-02  -8.602863e-03  0 
 4.343939e-02  -8.486473e-03  0 
 4.911042e-02  -1.315170e-02  0 
 2.785549e-02  -7.611819e-03  0 
 2.381513e-02  -3.719362e-02  0 
 2.538901e-02  -5.282072e-02  0 
 2.493262e-03  -2.375990e-02  0 
 9.760002e-03  -4.330277e-02  0 
 2.057303e-02  -2.502740e-02  0 
 3.271011e-02  -2.820891e-02  0 
 3.438746e-02  -3.445590e-02  0 
 3.855241e-02  -2.268790e-02  0 
 4.707028e-02  -2.430615e-02  0 
 4.058544e-02  -3.081934e-02  0 
 4.991505e-02  -3.460858e-02  0 
 5.593158e-02  -2.533744e-02  0 
 3.180364e-02  -2.185957e-02  0 
VECTORS displacement_ITER5 FLOAT
 2.649367e-02  -1.464202e-02  0 
 4.801799e-02  -1.498777e-02  0 
 2.635681e-02  -7.683939e-03  0 
 1.947026e-02  -1.451277e-02  0 
 2.578422e-02  -2.780794e-02  0 
 3.207645e-02  -1.479457e-02  0 
 3.745538e-02  -1.490380e-02  0 
 4.276068e-02  -1.495952e-02  0 
 2.662119e-02  -2.020886e-02  0 
 2.668009e-02  -2.568442e-02  0 
 4.804442e-02  -2.025877e-02  0 
 4.806832e-02  -2.554129e-02  0 
 2.174690e-02  -1.028703e-02  0 
 3.027786e-02  -1.503555e-02  0 
 3.034889e-02  -9.897624e-03  0 
 3.586822e-02  -9.618040e-03  0 
 3.918479e-02  -1.307669e-02  0 
 2.625296e-02  -9.414713e-03  0 
 2.652535e-02  -3.090006e-02  0 
 2.688335e-02  -4.486879e-02  0 
 8.055865e-03  -2.172577e-02  0 
 1.326385e-02  -3.774774e-02  0 
 2.478621e-02  -2.038986e-02  0 
 3.055422e-02  -2.189710e-02  0 
 3.157316e-02  -2.567134e-02  0 
 3.408361e-02  -1.855939e-02  0 
 3.920227e-02  -1.953753e-02  0 
 3.530936e-02  -2.345823e-02  0 
 4.089826e-02  -2.570533e-02  0 
 4.450347e-02  -2.015060e-02  0 
 2.999040e-02  -1.805087e-02  0 
VECTORS displacement_ITER6 FLOAT
 1.638574e-02  -7.625273e-03  0 
 2.904192e-02  -7.950551e-03  0 
 1.621922e-02  -6.754990e-03  0 
 1.541509e-02  -7.493719e-03  0 
 1.546043e-02  -1.437766e-02  0 
 1.976658e-02  -7.781943e-03  0 
 2.292197e-02  -7.887861e-03  0 
 2.600164e-02  -7.934690e-03  0 
 1.653761e-02  -1.096448e-02  0 
 1.661316e-02  -1.420641e-02  0 
 2.905719e-02  -1.100186e-02  0 
 2.907051e-02  -1.405956e-02  0 
 1.568707e-02  -6.972409e-03  0 
 1.722222e-02  -5.659147e-03  0 
 1.799654e-02  -4.400766e-03  0 
 2.113950e-02  -3.864806e-03  0 
 2.337482e-02  -6.150168e-03  0 
 1.514217e-02  -4.668040e-03  0 
 1.897747e-02  -1.999247e-02  0 
 1.956886e-02  -3.082311e-02  0 
 4.312918e-03  -1.376988e-02  0 
 8.537622e-03  -2.584540e-02  0 
 1.783747e-02  -1.134243e-02  0 
 1.888148e-02  -1.198491e-02  0 
 1.948854e-02  -1.420262e-02  0 
 2.095780e-02  -1.001810e-02  0 
 2.394168e-02  -1.059120e-02  0 
 2.167527e-02  -1.288596e-02  0 
 2.491454e-02  -1.416217e-02  0 
 2.700786e-02  -1.093948e-02  0 
 1.853044e-02  -9.712149e-03  0 
VECTORS displacement_ITER7 FLOAT
 1.006195e-02  -3.977354e-03  0 
 1.771657e-02  -4.294770e-03  0 
 9.868650e-03  -5.732432e-03  0 
 1.168099e-02  -3.847167e-03  0 
 1.224525e-02  -3.856492e-03  0 
 1.221227e-02  -4.138679e-03  0 
 1.411229e-02  -4.246987e-03  0 
 1.593105e-02  -4.289755e-03  0 
 1.023691e-02  -6.060247e-03  0 
 1.032833e-02  -8.040918e-03  0 
 1.772050e-02  -6.088309e-03  0 
 1.772218e-02  -7.883496e-03  0 
 1.109509e-02  -4.912992e-03  0 
 1.075465e-02  1.339151e-03  0 
 1.078819e-02  -1.435472e-03  0 
 1.258426e-02  -7.895884e-04  0 
 1.446951e-02  -2.063439e-03  0 
 8.623790e-03  -2.102135e-03  0 
 1.351948e-02  -1.295800e-02  0 
 1.460587e-02  -2.059774e-02  0 
 1.577899e-03  -8.118633e-03  0 
 5.426812e-03  -1.698828e-02  0 
 1.260947e-02  -6.169703e-03  0 
 1.168670e-02  -6.707664e-03  0 
 1.206265e-02  -8.044643e-03  0 
 1.294381e-02  -5.514737e-03  0 
 1.472010e-02  -5.858762e-03  0 
 1.337411e-02  -7.234889e-03  0 
 1.528110e-02  -7.956675e-03  0 
 1.651763e-02  -6.055744e-03  0 
 1.145307e-02  -5.323244e-03  0 
VECTORS displacement_ITER8 FLOAT
 1.032950e-02  -6.562230e-03  0 
 1.259417e-02  -6.881450e-03  0 
 1.011372e-02  -1.010959e-02  0 
 1.370698e-02  -6.436883e-03  0 
 1.233917e-02  -2.659173e-03  0 
 1.115215e-02  -6.726512e-03  0 
 1.170198e-02  -6.839675e-03  0 
 1.216351e-02  -6.882732e-03  0 
 1.052414e-02  -7.293241e-03  0 
 1.062906e-02  -7.919358e-03  0 
 1.259003e-02  -7.317704e-03  0 
 1.258281e-02  -7.752286e-03  0 
 1.253949e-02  -8.580235e-03  0 
 9.371652e-03  -7.040928e-05  0 
 9.834191e-03  -4.818559e-03  0 
 1.016077e-02  -4.163831e-03  0 
 1.131463e-02  -4.738562e-03  0 
 8.605252e-03  -5.646721e-03  0 
 1.430964e-02  -1.174955e-02  0 
 1.581714e-02  -1.632660e-02  0 
 5.099625e-03  -7.883262e-03  0 
 8.446291e-03  -1.375527e-02  0 
 1.347875e-02  -7.112105e-03  0 
 1.101293e-02  -7.537955e-03  0 
 1.114005e-02  -7.929272e-03  0 
 1.139011e-02  -7.177595e-03  0 
 1.186857e-02  -7.277830e-03  0 
 1.151308e-02  -7.664531e-03  0 
 1.198836e-02  -7.791499e-03  0 
 1.230027e-02  -7.314408e-03  0 
 1.090635e-02  -7.108324e-03  0 
VECTORS displacement_ITER9 FLOAT
 4.166112e-06  -5.310817e-03  0 
 7.555110e-03  -5.610042e-03  0 
 -2.287154e-04  -8.720966e-03  0 
 3.216235e-03  -5.194811e-03  0 
 1.060569e-02  3.238536e-03  0 
 2.152070e-03  -5.467228e-03  0 
 4.020406e-03  -5.575363e-03  0 
 5.801143e-03  -5.615201e-03  0 
 2.125937e-04  -7.342739e-03  0 
 3.295117e-04  -9.268295e-03  0 
 7.545907e-03  -7.367532e-03  0 
 7.533344e-03  -9.120919e-03  0 
 2.104371e-03  -7.236702e-03  0 
 4.933068e-03  4.839656e-03  0 
 2.006595e-03  -2.537349e-03  0 
 3.670458e-03  -1.841157e-03  0 
 6.089371e-03  -2.159200e-03  0 
 -3.788897e-04  -3.873092e-03  0 
 4.734124e-03  -9.103304e-03  0 
 8.454891e-03  -9.724022e-03  0 
 -5.978586e-04  -4.450237e-03  0 
 3.565516e-03  -7.070075e-03  0 
 3.007569e-03  -6.054582e-03  0 
 1.635477e-03  -7.991721e-03  0 
 2.010320e-03  -9.290833e-03  0 
 2.870581e-03  -6.823314e-03  0 
 4.613605e-03  -7.155855e-03  0 
 3.291721e-03  -8.507753e-03  0 
 5.159567e-03  -9.206010e-03  0 
 6.370354e-03  -7.345691e-03  0 
 1.397388e-03  -6.639925e-03  0 
VECTORS displacement_ITER10 FLOAT
 2.871218e-03  -9.225949e-03  0 
 9.860072e-03  -9.534150e-03  0 
 2.624832e-03  -1.241646e-02  0 
 5.841545e-03  -9.115577e-03  0 
 1.336589e-02  -1.136654e-03  0 
 4.892287e-03  -9.382528e-03  0 
 6.620615e-03  -9.495128e-03  0 
 8.255018e-03  -9.538678e-03  0 
 3.091024e-03  -1.111470e-02  0 
 3.216403e-03  -1.289609e-02  0 
 9.849202e-03  -1.114181e-02  0 
 9.834187e-03  -1.274452e-02  0 
 4.810402e-03  -1.101027e-02  0 
 8.085475e-03  -2.173888e-04  0 
 5.048269e-03  -6.803786e-03  0 
 6.580228e-03  -6.271854e-03  0 
 8.757411e-03  -6.461847e-03  0 
 2.865739e-03  -8.052334e-03  0 
 7.126464e-03  -1.102151e-02  0 
 1.098972e-02  -1.001046e-02  0 
 4.077515e-03  -6.555550e-03  0 
 7.726556e-03  -7.391935e-03  0 
 5.382131e-03  -9.370749e-03  0 
 4.415219e-03  -1.172559e-02  0 
 4.765111e-03  -1.292275e-02  0 
 5.560320e-03  -1.064440e-02  0 
 7.167307e-03  -1.095097e-02  0 
 5.949231e-03  -1.219848e-02  0 
 7.665818e-03  -1.282957e-02  0 
 8.775181e-03  -1.112403e-02  0 
 4.187925e-03  -1.047449e-02  0 
VECTORS displacement_ITER11 FLOAT
 -3.047290e-03  -6.805692e-03  0 
 4.027499e-03  -7.141317e-03  0 
 -3.303305e-03  -7.832149e-03  0 
 -2.248652e-03  -6.691057e-03  0 
 7.134118e-03  3.110929e-04  0 
 -9.854551e-04  -6.970835e-03  0 
 7.659948e-04  -7.093809e-03  0 
 2.413803e-03  -7.144080e-03  0 
 -2.819447e-03  -8.731102e-03  0 
 -2.689766e-03  -1.054470e-02  0 
 4.016000e-03  -8.757252e-03  0 
 3.999366e-03  -1.036809e-02  0 
 -2.563571e-03  -7.261063e-03  0 
 2.352679e-03  1.131887e-03  0 
 -7.247925e-04  -4.490991e-03  0 
 8.755673e-04  -4.183333e-03  0 
 2.947747e-03  -4.384530e-03  0 
 -2.718633e-03  -5.302614e-03  0 
 -1.669316e-04  -8.911996e-03  0 
 2.710544e-03  -8.967440e-03  0 
 -2.977415e-03  -4.550992e-03  0 
 5.018198e-05  -6.262347e-03  0 
 -1.817214e-03  -7.348436e-03  0 
 -1.470323e-03  -9.352734e-03  0 
 -1.116328e-03  -1.056697e-02  0 
 -3.060816e-04  -8.254068e-03  0 
 1.319413e-03  -8.565373e-03  0 
 8.751972e-05  -9.828030e-03  0 
 1.820940e-03  -1.045813e-02  0 
 2.937276e-03  -8.740126e-03  0 
 -1.702265e-03  -8.080943e-03  0 
VECTORS displacement_ITER12 FLOAT
 4.149437e-03  -5.821780e-03  0 
 2.415266e-03  -6.213293e-03  0 
 3.886296e-03  -5.203570e-03  0 
 3.303231e-03  -5.695562e-03  0 
 5.049483e-03  -2.417114e-03  0 
 4.040759e-03  -6.007275e-03  0 
 3.593702e-03  -6.151491e-03  0 
 3.025853e-03  -6.213890e-03  0 
 4.384290e-03  -5.582286e-03  0 
 4.514867e-03  -5.225462e-03  0 
 2.402917e-03  -5.604988e-03  0 
 2.383874e-03  -4.991932e-03  0 
 3.529064e-03  -5.265292e-03  0 
 2.787288e-03  -2.486771e-03  0 
 3.337827e-03  -5.300204e-03  0 
 2.723480e-03  -5.350578e-03  0 
 2.874046e-03  -5.350681e-03  0 
 3.400096e-03  -5.082840e-03  0 
 4.620780e-03  -7.256375e-03  0 
 4.197530e-03  -1.069433e-02  0 
 -2.103315e-04  -4.569807e-03  0 
 8.036946e-04  -8.710222e-03  0 
 4.130936e-03  -5.596341e-03  0 
 4.183429e-03  -5.541188e-03  0 
 4.126950e-03  -5.232797e-03  0 
 3.921445e-03  -5.789246e-03  0 
 3.432150e-03  -5.710606e-03  0 
 3.816011e-03  -5.360856e-03  0 
 3.214661e-03  -5.018895e-03  0 
 2.818488e-03  -5.626668e-03  0 
 4.163339e-03  -5.808132e-03  0 
VECTORS displacement_ITER13 FLOAT
 3.962864e-03  -1.898229e-03  0 
 -2.213507e-03  -2.333932e-03  0 
 3.694022e-03  5.625867e-04  0 
 1.278626e-03  -1.759020e-03  0 
 3.951296e-04  -1.584855e-04  0 
 2.767212e-03  -2.101388e-03  0 
 1.211873e-03  -2.261721e-03  0 
 -4.767357e-04  -2.333212e-03  0 
 4.203782e-03  -5.779872e-04  0 
 4.336330e-03  8.667649e-04  0 
 -2.227125e-03  -5.990898e-04  0 
 -2.248838e-03  1.140270e-03  0 
 2.108275e-03  -2.100714e-04  0 
 -7.237704e-04  -7.429884e-04  0 
 1.583296e-03  -2.212416e-03  0 
 -1.420754e-04  -2.503689e-03  0 
 -9.394898e-04  -2.388919e-03  0 
 2.749157e-03  -1.300600e-03  0 
 2.786168e-03  -3.282984e-03  0 
 5.037760e-04  -8.660992e-03  0 
 -3.206404e-03  -1.481268e-03  0 
 -3.214311e-03  -7.202838e-03  0 
 2.821661e-03  -1.548916e-03  0 
 3.226256e-03  -2.046136e-04  0 
 2.962510e-03  8.699106e-04  0 
 2.246861e-03  -1.129662e-03  0 
 6.897900e-04  -8.555518e-04  0 
 1.889678e-03  3.075004e-04  0 
 1.080290e-04  1.143516e-03  0 
 -1.054240e-03  -6.411893e-04  0 
 3.312193e-03  -1.243634e-03  0 
VECTORS displacement_ITER14 FLOAT
 3.798308e-03  -2.009022e-03  0 
 -1.326908e-03  -2.460545e-03  0 
 3.526016e-03  6.081870e-04  0 
 9.603084e-04  -1.863888e-03  0 
 2.969023e-04  -1.410471e-03  0 
 2.870705e-03  -2.218036e-03  0 
 1.579213e-03  -2.382073e-03  0 
 1.512076e-04  -2.457314e-03  0 
 4.043314e-03  -9.569258e-04  0 
 4.180227e-03  2.244234e-04  0 
 -1.340049e-03  -9.837993e-04  0 
 -1.362115e-03  4.969593e-04  0 
 1.838618e-03  -2.225910e-04  0 
 -2.463181e-04  -1.774233e-03  0 
 1.868286e-03  -2.333204e-03  0 
 4.290674e-04  -2.705794e-03  0 
 -3.246349e-04  -2.688677e-03  0 
 2.880978e-03  -1.414043e-03  0 
 2.461091e-03  -2.721215e-03  0 
 6.121267e-04  -6.703398e-03  0 
 -2.167278e-03  -1.147433e-03  0 
 -2.192415e-03  -5.588385e-03  0 
 2.434660e-03  -1.632871e-03  0 
 3.255098e-03  -6.663908e-04  0 
 3.040178e-03  2.262840e-04  0 
 2.447825e-03  -1.429349e-03  0 
 1.143103e-03  -1.203340e-03  0 
 2.150229e-03  -2.323120e-04  0 
 6.468776e-04  4.908334e-04  0 
 -3.399503e-04  -1.021404e-03  0 
 3.314401e-03  -1.518148e-03  0 
VECTORS displacement_ITER15 FLOAT
 6.634152e-04  -2.297577e-03  0 
 1.223080e-03  -2.730370e-03  0 
 3.902974e-04  -1.337847e-03  0 
 -5.172037e-04  -2.154817e-03  0 
 1.369780e-03  -2.136366e-03  0 
 1.142661e-03  -2.498674e-03  0 
 1.271805e-03  -2.652531e-03  0 
 1.271454e-03  -2.724533e-03  0 
 9.090817e-04  -2.646518e-03  0 
 1.050679e-03  -2.865174e-03  0 
 1.212029e-03  -2.682893e-03  0 
 1.192232e-03  -2.631963e-03  0 
 -1.869772e-04  -1.524610e-03  0 
 7.335212e-04  -1.750472e-03  0 
 8.773858e-04  -1.990735e-03  0 
 9.233042e-04  -2.280693e-03  0 
 1.094065e-03  -2.493850e-03  0 
 6.316009e-04  -1.699673e-03  0 
 7.591249e-04  -2.242720e-03  0 
 1.254651e-03  -2.349203e-03  0 
 -4.154726e-04  -5.330902e-04  0 
 4.103904e-04  -1.445292e-03  0 
 1.751103e-04  -2.152714e-03  0 
 1.122307e-03  -2.787076e-03  0 
 1.172060e-03  -2.874961e-03  0 
 1.236511e-03  -2.680981e-03  0 
 1.297916e-03  -2.707381e-03  0 
 1.260790e-03  -2.776547e-03  0 
 1.267117e-03  -2.679873e-03  0 
 1.252269e-03  -2.694684e-03  0 
 1.043862e-03  -2.644528e-03  0 
VECTORS displacement_ITER16 FLOAT
 1.037453e-04  -1.923229e-03  0 
 1.982801e-03  -2.353579e-03  0 
 -1.705134e-04  -1.799048e-03  0 
 -2.396642e-04  -1.778457e-03  0 
 1.862492e-03  -2.049146e-03  0 
 9.097343e-04  -2.124097e-03  0 
 1.368452e-03  -2.275790e-03  0 
 1.699374e-03  -2.347096e-03  0 
 3.502768e-04  -2.598299e-03  0 
 4.933119e-04  -3.141418e-03  0 
 1.972189e-03  -2.637706e-03  0 
 1.952820e-03  -2.918632e-03  0 
 -1.871444e-04  -1.660187e-03  0 
 1.274039e-03  -1.604186e-03  0 
 8.649541e-04  -1.615188e-03  0 
 1.280081e-03  -1.895089e-03  0 
 1.647788e-03  -2.125670e-03  0 
 2.999394e-04  -1.516996e-03  0 
 5.312371e-04  -1.835059e-03  0 
 1.384153e-03  -1.158552e-03  0 
 2.962839e-04  -5.271473e-04  0 
 1.085741e-03  -5.114228e-04  0 
 2.145695e-05  -1.863009e-03  0 
 7.956623e-04  -2.839040e-03  0 
 9.066281e-04  -3.153867e-03  0 
 1.123442e-03  -2.531637e-03  0 
 1.501763e-03  -2.616720e-03  0 
 1.222285e-03  -2.926982e-03  0 
 1.579135e-03  -2.976195e-03  0 
 1.789733e-03  -2.643538e-03  0 
 6.853163e-04  -2.465854e-03  0 
VECTORS displacement_ITER17 FLOAT
 7.224576e-04  -4.923592e-04  0 
 5.040709e-04  -9.365539e-04  0 
 4.465693e-04  -3.608517e-04  0 
 3.752345e-04  -3.414923e-04  0 
 6.466207e-04  -1.126354e-03  0 
 1.010970e-03  -7.000240e-04  0 
 9.455500e-04  -8.567865e-04  0 
 7.492000e-04  -9.302456e-04  0 
 9.706711e-04  -6.534466e-04  0 
 1.113506e-03  -6.796968e-04  0 
 4.929538e-04  -6.921502e-04  0 
 4.727777e-04  -4.446815e-04  0 
 4.272117e-04  -2.229643e-04  0 
 4.280021e-04  -1.003122e-03  0 
 7.483835e-04  -6.324795e-04  0 
 6.436865e-04  -9.681983e-04  0 
 5.997902e-04  -1.106534e-03  0 
 6.268324e-04  -3.565887e-04  0 
 7.025005e-04  -5.995911e-04  0 
 6.309335e-04  -1.047665e-03  0 
 -1.782806e-04  5.352892e-05  0 
 4.869785e-05  -6.764645e-04  0 
 5.895495e-04  -3.465128e-04  0 
 1.046782e-03  -7.360969e-04  0 
 1.059912e-03  -6.883171e-04  0 
 1.034301e-03  -7.497913e-04  0 
 9.084168e-04  -7.422960e-04  0 
 1.014277e-03  -6.682330e-04  0 
 8.144013e-04  -4.869387e-04  0 
 6.655085e-04  -7.073752e-04  0 
 9.870841e-04  -7.293385e-04  0 
VECTORS displacement_ITER18 FLOAT
 7.633467e-04  -4.519712e-04  0 
 4.165860e-04  -9.023959e-04  0 
 4.869431e-04  -3.157117e-04  0 
 4.140635e-04  -2.977932e-04  0 
 3.437839e-04  -1.423538e-03  0 
 1.022148e-03  -6.628225e-04  0 
 9.246058e-04  -8.215846e-04  0 
 6.953324e-04  -8.957880e-04  0 
 1.012342e-03  -5.851284e-04  0 
 1.155306e-03  -5.817923e-04  0 
 4.057214e-04  -6.245430e-04  0 
 3.857255e-04  -3.438224e-04  0 
 4.657012e-04  -1.790655e-04  0 
 3.081406e-04  -1.262474e-03  0 
 7.376911e-04  -6.587050e-04  0 
 6.061164e-04  -1.011666e-03  0 
 5.074101e-04  -1.164217e-03  0 
 6.522911e-04  -3.552652e-04  0 
 5.611904e-04  -7.527049e-04  0 
 1.738917e-04  -1.625034e-03  0 
 -4.105366e-04  -2.968896e-04  0 
 -4.012384e-04  -1.267298e-03  0 
 5.956848e-04  -3.574344e-04  0 
 1.067339e-03  -6.586524e-04  0 
 1.074522e-03  -5.895251e-04  0 
 1.034354e-03  -6.916029e-04  0 
 8.770376e-04  -6.790135e-04  0 
 1.007149e-03  -5.811431e-04  0 
 7.719716e-04  -3.853921e-04  0 
 6.007153e-04  -6.401598e-04  0 
 1.010505e-03  -6.731878e-04  0 
VECTORS displacement_ITER19 FLOAT
 6.214242e-04  -7.898055e-04  0 
 1.213492e-03  -1.238928e-03  0 
 3.454432e-04  -6.524199e-04  0 
 2.739549e-04  -6.337073e-04  0 
 1.379403e-03  -1.186781e-03  0 
 1.112969e-03  -1.001313e-03  0 
 1.249277e-03  -1.159431e-03  0 
 1.255583e-03  -1.232785e-03  0 
 8.705491e-04  -1.156498e-03  0 
 1.013934e-03  -1.385166e-03  0 
 1.202389e-03  -1.197666e-03  0 
 1.182138e-03  -1.153657e-03  0 
 3.242934e-04  -5.165578e-04  0 
 9.920583e-04  -1.019008e-03  0 
 9.666481e-04  -7.888635e-04  0 
 1.068158e-03  -1.117516e-03  0 
 1.182477e-03  -1.271731e-03  0 
 6.747736e-04  -5.736138e-04  0 
 5.672262e-04  -1.161936e-03  0 
 4.825325e-04  -1.701167e-03  0 
 -1.271823e-04  -5.852776e-04  0 
 3.049641e-05  -1.286150e-03  0 
 4.852285e-04  -8.124833e-04  0 
 1.091669e-03  -1.301158e-03  0 
 1.142760e-03  -1.394422e-03  0 
 1.210591e-03  -1.190773e-03  0 
 1.277866e-03  -1.220621e-03  0 
 1.236766e-03  -1.293999e-03  0 
 1.248971e-03  -1.202187e-03  0 
 1.238532e-03  -1.209414e-03  0 
 1.012048e-03  -1.151070e-03  0 
VECTORS displacement_ITER20 FLOAT
 2.277025e-04  -1.331206e-03  0 
 2.350223e-03  -1.778119e-03  0 
 -4.738417e-05  -1.283418e-03  0 
 -2.707387e-05  -1.173832e-03  0 
 1.965841e-03  -1.836481e-03  0 
 1.098086e-03  -1.542360e-03  0 
 1.616369e-03  -1.698801e-03  0 
 2.007182e-03  -1.771295e-03  0 
 4.767388e-04  -2.077132e-03  0 
 6.210119e-04  -2.683586e-03  0 
 2.339964e-03  -2.122100e-03  0 
 2.320622e-03  -2.463749e-03  0 
 -7.916107e-06  -1.113503e-03  0 
 1.550897e-03  -1.338654e-03  0 
 1.090680e-03  -1.074741e-03  0 
 1.581752e-03  -1.377309e-03  0 
 1.954348e-03  -1.628145e-03  0 
 4.811942e-04  -9.759366e-04  0 
 5.134206e-04  -1.595552e-03  0 
 1.111151e-03  -1.202403e-03  0 
 4.468993e-04  -7.604501e-04  0 
 9.829749e-04  -7.327954e-04  0 
 1.830970e-04  -1.465194e-03  0 
 9.682840e-04  -2.337877e-03  0 
 1.090988e-03  -2.695928e-03  0 
 1.335061e-03  -1.993669e-03  0 
 1.769509e-03  -2.092386e-03  0 
 1.448279e-03  -2.445383e-03  0 
 1.865602e-03  -2.523160e-03  0 
 2.117278e-03  -2.126654e-03  0 
 8.514953e-04  -1.919512e-03  0 
VECTORS displacement_ITER21 FLOAT
 1.059069e-03  -6.964727e-04  0 
 1.902141e-03  -1.153761e-03  0 
 7.846412e-04  -2.734447e-04  0 
 4.352364e-04  -5.333438e-04  0 
 1.416101e-03  -1.661704e-03  0 
 1.612804e-03  -9.133389e-04  0 
 1.810911e-03  -1.073284e-03  0 
 1.880680e-03  -1.146866e-03  0 
 1.308668e-03  -1.130095e-03  0 
 1.452926e-03  -1.421080e-03  0 
 1.892037e-03  -1.176391e-03  0 
 1.872694e-03  -1.197112e-03  0 
 5.747742e-04  -2.493081e-04  0 
 1.306566e-03  -1.211147e-03  0 
 1.411722e-03  -6.533556e-04  0 
 1.580054e-03  -9.938514e-04  0 
 1.695947e-03  -1.229847e-03  0 
 1.100792e-03  -3.825020e-04  0 
 1.105980e-03  -9.520856e-04  0 
 1.403620e-03  -9.512343e-04  0 
 5.315622e-04  -2.388464e-04  0 
 9.972751e-04  -5.885617e-04  0 
 8.361872e-04  -7.710429e-04  0 
 1.575048e-03  -1.294494e-03  0 
 1.638307e-03  -1.431618e-03  0 
 1.733655e-03  -1.146513e-03  0 
 1.860223e-03  -1.189465e-03  0 
 1.774552e-03  -1.307770e-03  0 
 1.851953e-03  -1.246523e-03  0 
 1.885049e-03  -1.186282e-03  0 
 1.489198e-03  -1.099287e-03  0 
VECTORS displacement_ITER22 FLOAT
 1.012414e-03  -8.668851e-04  0 
 2.527695e-03  -1.323591e-03  0 
 7.391026e-04  -3.574759e-04  0 
 3.068337e-04  -7.007988e-04  0 
 1.826308e-03  -1.951752e-03  0 
 1.731764e-03  -1.085099e-03  0 
 2.096990e-03  -1.244265e-03  0 
 2.336091e-03  -1.316681e-03  0 
 1.261779e-03  -1.468203e-03  0 
 1.406267e-03  -1.924863e-03  0 
 2.518221e-03  -1.516648e-03  0 
 2.499671e-03  -1.708272e-03  0 
 4.725079e-04  -3.676611e-04  0 
 1.712521e-03  -1.379009e-03  0 
 1.587430e-03  -7.568183e-04  0 
 1.944435e-03  -1.100121e-03  0 
 2.176274e-03  -1.365230e-03  0 
 1.145532e-03  -4.960670e-04  0 
 1.078327e-03  -1.361720e-03  0 
 1.465755e-03  -1.419121e-03  0 
 4.397309e-04  -5.590810e-04  0 
 9.835973e-04  -9.530760e-04  0 
 7.708005e-04  -1.072367e-03  0 
 1.646729e-03  -1.683320e-03  0 
 1.741298e-03  -1.936459e-03  0 
 1.913554e-03  -1.432988e-03  0 
 2.200794e-03  -1.506357e-03  0 
 1.992499e-03  -1.747115e-03  0 
 2.247413e-03  -1.761683e-03  0 
 2.396519e-03  -1.523091e-03  0 
 1.544757e-03  -1.370306e-03  0 
VECTORS displacement_ITER23 FLOAT
 7.707423e-04  -1.022919e-03  0 
 3.110190e-03  -1.475756e-03  0 
 4.982718e-04  -6.198459e-04  0 
 1.749183e-04  -8.548421e-04  0 
 2.304521e-03  -2.057593e-03  0 
 1.692493e-03  -1.241245e-03  0 
 2.262632e-03  -1.398414e-03  0 
 2.709486e-03  -1.469014e-03  0 
 1.020017e-03  -1.827632e-03  0 
 1.165090e-03  -2.486096e-03  0 
 3.101252e-03  -1.878124e-03  0 
 3.083460e-03  -2.279458e-03  0 
 3.036490e-04  -5.894131e-04  0 
 2.095291e-03  -1.394624e-03  0 
 1.642033e-03  -8.186842e-04  0 
 2.222576e-03  -1.149534e-03  0 
 2.608736e-03  -1.434607e-03  0 
 1.021041e-03  -6.212388e-04  0 
 9.761041e-04  -1.698521e-03  0 
 1.539456e-03  -1.682772e-03  0 
 4.330649e-04  -7.962435e-04  0 
 1.066138e-03  -1.106622e-03  0 
 6.138933e-04  -1.337160e-03  0 
 1.549383e-03  -2.104801e-03  0 
 1.682250e-03  -2.499417e-03  0 
 1.948660e-03  -1.729222e-03  0 
 2.433134e-03  -1.839317e-03  0 
 2.074066e-03  -2.230347e-03  0 
 2.547325e-03  -2.337805e-03  0 
 2.838710e-03  -1.880515e-03  0 
 1.427680e-03  -1.648137e-03  0 
VECTORS displacement_ITER24 FLOAT
 7.647484e-04  -7.523088e-04  0 
 2.934266e-03  -1.206925e-03  0 
 4.924505e-04  -2.962418e-04  0 
 1.205127e-04  -5.797609e-04  0 
 2.084012e-03  -1.903493e-03  0 
 1.643288e-03  -9.737459e-04  0 
 2.169678e-03  -1.130912e-03  0 
 2.574480e-03  -1.200403e-03  0 
 1.015152e-03  -1.515939e-03  0 
 1.161460e-03  -2.130368e-03  0 
 2.925717e-03  -1.568599e-03  0 
 2.908413e-03  -1.929737e-03  0 
 2.638801e-04  -2.865041e-04  0 
 1.929257e-03  -1.231972e-03  0 
 1.553562e-03  -5.967578e-04  0 
 2.098067e-03  -9.315160e-04  0 
 2.451268e-03  -1.213737e-03  0 
 9.722997e-04  -3.664760e-04  0 
 9.447931e-04  -1.541083e-03  0 
 1.406984e-03  -1.795431e-03  0 
 1.476440e-04  -5.880106e-04  0 
 7.657275e-04  -1.146659e-03  0 
 5.976994e-04  -1.072312e-03  0 
 1.513422e-03  -1.780418e-03  0 
 1.638243e-03  -2.144012e-03  0 
 1.883393e-03  -1.432029e-03  0 
 2.326024e-03  -1.534751e-03  0 
 1.998765e-03  -1.893865e-03  0 
 2.426825e-03  -1.985399e-03  0 
 2.690235e-03  -1.571306e-03  0 
 1.395876e-03  -1.354105e-03  0 
VECTORS displacement_ITER25 FLOAT
 5.150963e-04  -6.081621e-04  0 
 2.975942e-03  -1.058815e-03  0 
 2.433934e-04  -4.265188e-04  0 
 1.484214e-04  -4.334433e-04  0 
 1.983601e-03  -1.895052e-03  0 
 1.462921e-03  -8.299056e-04  0 
 2.060956e-03  -9.848320e-04  0 
 2.540189e-03  -1.052375e-03  0 
 7.658011e-04  -1.441928e-03  0 
 9.131329e-04  -2.124868e-03  0 
 2.967996e-03  -1.496635e-03  0 
 2.951518e-03  -1.934356e-03  0 
 1.993193e-04  -3.106732e-04  0 
 1.871516e-03  -1.170303e-03  0 
 1.403239e-03  -4.634347e-04  0 
 2.031244e-03  -7.849542e-04  0 
 2.426091e-03  -1.077801e-03  0 
 7.463555e-04  -2.869913e-04  0 
 8.135580e-04  -1.505881e-03  0 
 1.278216e-03  -1.836402e-03  0 
 7.268805e-05  -5.818211e-04  0 
 6.561160e-04  -1.140152e-03  0 
 4.998585e-04  -9.513010e-04  0 
 1.313193e-03  -1.728097e-03  0 
 1.451296e-03  -2.139889e-03  0 
 1.728501e-03  -1.336527e-03  0 
 2.240639e-03  -1.451836e-03  0 
 1.859846e-03  -1.863716e-03  0 
 2.366235e-03  -1.990509e-03  0 
 2.681054e-03  -1.497499e-03  0 
 1.188913e-03  -1.252212e-03  0 
VECTORS displacement_ITER26 FLOAT
 5.447595e-04  -3.408642e-04  0 
 2.931283e-03  -7.881316e-04  0 
 2.737398e-04  -3.628040e-04  0 
 3.841936e-04  -1.645705e-04  0 
 1.770046e-03  -1.896894e-03  0 
 1.471009e-03  -5.627998e-04  0 
 2.049466e-03  -7.158281e-04  0 
 2.511473e-03  -7.817114e-04  0 
 7.955830e-04  -1.153842e-03  0 
 9.436657e-04  -1.814748e-03  0 
 2.923936e-03  -1.210201e-03  0 
 2.908256e-03  -1.632593e-03  0 
 3.664866e-04  -1.684566e-04  0 
 1.801024e-03  -1.147954e-03  0 
 1.400198e-03  -2.681775e-04  0 
 2.016232e-03  -5.878608e-04  0 
 2.373491e-03  -8.860133e-04  0 
 7.536552e-04  -1.072535e-04  0 
 8.062785e-04  -1.360732e-03  0 
 1.076741e-03  -1.950284e-03  0 
 1.109127e-06  -5.939679e-04  0 
 4.248452e-04  -1.295236e-03  0 
 6.145162e-04  -6.861496e-04  0 
 1.327380e-03  -1.433919e-03  0 
 1.461753e-03  -1.830643e-03  0 
 1.728761e-03  -1.055162e-03  0 
 2.222836e-03  -1.166747e-03  0 
 1.855381e-03  -1.564580e-03  0 
 2.343551e-03  -1.686504e-03  0 
 2.647251e-03  -1.210794e-03  0 
 1.205267e-03  -9.726363e-04  0 
VECTORS displacement_ITER27 FLOAT
 6.685101e-04  -2.595658e-04  0 
 2.903553e-03  -7.034615e-04  0 
 3.981123e-04  -2.427598e-04  0 
 4.709986e-04  -8.231767e-05  0 
 1.593261e-03  -1.984232e-03  0 
 1.554363e-03  -4.815383e-04  0 
 2.093938e-03  -6.328374e-04  0 
 2.519216e-03  -6.970984e-04  0 
 9.197214e-04  -1.032387e-03  0 
 1.069004e-03  -1.651941e-03  0 
 2.896700e-03  -1.090223e-03  0 
 2.881699e-03  -1.477620e-03  0 
 4.652157e-04  -6.421369e-05  0 
 1.741003e-03  -1.203005e-03  0 
 1.460273e-03  -2.066247e-04  0 
 2.031559e-03  -5.279313e-04  0 
 2.341458e-03  -8.389930e-04  0 
 8.578092e-04  -3.130064e-05  0 
 8.654273e-04  -1.219663e-03  0 
 1.061713e-03  -1.827323e-03  0 
 8.880828e-05  -4.875064e-04  0 
 4.490949e-04  -1.221648e-03  0 
 6.992991e-04  -5.759383e-04  0 
 1.422358e-03  -1.300765e-03  0 
 1.549558e-03  -1.669075e-03  0 
 1.797271e-03  -9.465723e-04  0 
 2.254680e-03  -1.050913e-03  0 
 1.914751e-03  -1.420669e-03  0 