# vtk DataFile Version 3.1
this is an vtk file created by FEMAC
ASCII
DATASET UNSTRUCTURED_GRID
POINTS 31 FLOAT
0.000000 1.000000 0.000000
1.000000 1.000000 0.000000
0.000000 2.000000 0.000000
1.000000 2.000000 0.000000
0.250000 1.000000 0.000000
0.500000 1.000000 0.000000
0.750000 1.000000 0.000000
0.250000 2.000000 0.000000
0.500000 2.000000 0.000000
0.750000 2.000000 0.000000
0.000000 1.250000 0.000000
0.000000 1.500000 0.000000
0.000000 1.750000 0.000000
1.000000 1.250000 0.000000
1.000000 1.500000 0.000000
1.000000 1.750000 0.000000
1.000000 2.250000 0.000000
0.272476 1.537430 0.000000
0.660302 1.785301 0.000000
0.660045 1.212404 0.000000
0.162952 1.171693 0.000000
0.825570 1.361866 0.000000
0.825957 1.628272 0.000000
0.594871 1.497465 0.000000
0.400442 1.782533 0.000000
0.372389 1.253823 0.000000
0.165804 1.339408 0.000000
0.847252 1.832715 0.000000
0.847123 1.164854 0.000000
0.153820 1.761660 0.000000
0.847123 2.164854 0.000000
CELLS 42 168 
3 8 18  9
3 19  5  6
3 4 20  0
3 20 10  0
3 14 22 21
3 23 19 21
3 24 18  8
3 19 25  5
3 23 24 17
3 23 18 24
3 25 23 17
3 19 23 25
3 21 13 14
3 15 22 14
3 25  4  5
3 20  4 25
3 7 24  8
3 23 22 18
3 21 22 23
3 20 26 10
3 9 27  3
3 27 15  3
3 27  9 18
3 28  6  1
3 13 28  1
3 6 28 19
3 26 25 17
3 20 25 26
3 27 22 15
3 18 22 27
3 21 28 13
3 21 19 28
3 26 11 10
3 11 26 17
3 29  7  2
3 12 29  2
3 11 29 12
3 24 29 17
3 29 24  7
3 11 17 29
3 30  9  3
3 16 30  3
CELL_TYPES 42
5 5 5 5 5 5 5 5 5 5 5 5 5 5 5 5 5 5 5 5 5 5 5 5 5 5 5 5 5 5 5 5 5 5 5 5 5 5 5 5 5 5 
POINT_DATA 31
VECTORS displacement_ITER1 FLOAT
 0  0  0 
 -2.194594e-02  -2.838135e-03  0 
 0  0  0 
 -9.223048e-02  8.852586e-02  0 
 -9.933576e-05  3.344353e-04  0 
 -1.798367e-03  4.489671e-03  0 
 -7.370647e-03  1.065045e-02  0 
 -2.362321e-02  1.576631e-02  0 
 -5.323972e-02  1.992463e-02  0 
 -9.218256e-02  2.256100e-02  0 
 0  0  0 
 0  0  0 
 0  0  0 
 -1.513847e-02  1.226267e-02  0 
 -2.774620e-02  2.415020e-02  0 
 -5.244339e-02  5.057360e-02  0 
 -1.582419e-01  8.857209e-02  0 
 -8.357868e-03  -4.867261e-03  0 
 -4.027214e-02  9.807010e-03  0 
 -8.329932e-03  8.024362e-03  0 
 -2.029797e-03  -1.932892e-03  0 
 -1.443740e-02  1.255746e-02  0 
 -2.926115e-02  2.307535e-02  0 
 -1.477211e-02  4.009930e-03  0 
 -2.521442e-02  8.182974e-04  0 
 -5.366359e-03  -6.224205e-04  0 
 -3.642816e-03  -3.001905e-03  0 
 -5.381532e-02  4.141975e-02  0 
 -1.042115e-02  1.161492e-02  0 
 -6.795027e-03  -2.345773e-03  0 
 -1.357417e-01  4.820638e-02  0 
VECTORS displacement_ITER2 FLOAT
 0  0  0 
 2.271724e-02  4.612414e-02  0 
 0  0  0 
 7.466375e-04  -6.609815e-02  0 
 5.335844e-03  5.300217e-03  0 
 9.388386e-03  1.188325e-02  0 
 1.751705e-02  3.241569e-02  0 
 -4.765901e-03  1.076710e-02  0 
 -4.172628e-03  1.139093e-02  0 
 7.388507e-04  -6.607798e-03  0 
 0  0  0 
 0  0  0 
 0  0  0 
 -6.751981e-04  3.134573e-02  0 
 -1.775285e-02  3.298320e-03  0 
 -2.083417e-02  -2.766443e-02  0 
 6.025586e-02  -6.612892e-02  0 
 -6.782468e-03  1.629193e-03  0 
 -1.778648e-02  9.222898e-04  0 
 -3.603149e-03  1.024074e-02  0 
 -1.874899e-03  -1.689677e-03  0 
 -1.299943e-02  9.647253e-03  0 
 -2.425967e-02  -6.757690e-03  0 
 -1.781845e-02  -1.672329e-04  0 
 -9.495087e-03  7.987776e-03  0 
 -5.398963e-03  -1.216654e-03  0 
 -2.402282e-03  -1.058014e-03  0 
 -1.938111e-02  -1.974446e-02  0 
 5.006180e-03  2.577398e-02  0 
 -2.439448e-03  3.825681e-03  0 
 3.998033e-02  -2.972869e-02  0 
VECTORS displacement_ITER3 FLOAT
 0  0  0 
 4.211747e-02  8.898372e-02  0 
 0  0  0 
 5.110628e-04  -2.496464e-02  0 
 1.614476e-02  2.143900e-02  0 
 2.446885e-02  3.582345e-02  0 
 3.294446e-02  6.195134e-02  0 
 -6.205518e-03  1.244277e-02  0 
 -5.652436e-03  2.069378e-02  0 
 5.037334e-04  1.739287e-02  0 
 0  0  0 
 0  0  0 
 0  0  0 
 6.779655e-03  6.368586e-02  0 
 -6.605126e-03  3.729240e-02  0 
 -9.011413e-03  8.678972e-03  0 
 4.286538e-02  -2.496624e-02  0 
 -4.651019e-03  8.835681e-03  0 
 -1.193340e-02  2.075568e-02  0 
 6.290212e-03  3.696265e-02  0 
 7.391593e-04  3.893339e-03  0 
 -3.444945e-03  4.072793e-02  0 
 -1.409342e-02  2.259281e-02  0 
 -1.069758e-02  2.124415e-02  0 
 -7.504068e-03  1.656762e-02  0 
 4.117613e-04  1.364055e-02  0 
 -6.456401e-04  3.850282e-03  0 
 -1.224666e-02  9.048846e-03  0 
 1.475773e-02  5.637810e-02  0 
 -2.352882e-03  5.758913e-03  0 
 2.844166e-02  9.357295e-04  0 
VECTORS displacement_ITER4 FLOAT
 0  0  0 
 -3.360114e-02  -1.333307e-02  0 
 0  0  0 
 -9.417562e-03  -3.716482e-03  0 
 -3.668979e-03  2.050048e-03  0 
 -1.200335e-02  -6.092181e-04  0 
 -2.535119e-02  -7.609420e-03  0 
 -7.913763e-04  -7.536853e-04  0 
 -1.819392e-03  1.346904e-03  0 
 -9.395345e-03  1.868959e-04  0 
 0  0  0 
 0  0  0 
 0  0  0 
 -3.400305e-02  -1.904796e-02  0 
 -1.572035e-02  -9.345338e-03  0 
 -1.103558e-02  -7.900809e-03  0 
 -5.541680e-03  -3.670901e-03  0 
 -4.584939e-03  2.924619e-03  0 
 -6.251045e-03  -1.520905e-03  0 
 -1.790349e-02  6.338225e-05  0 
 -3.425532e-03  8.311698e-04  0 
 -1.853409e-02  -2.803979e-03  0 
 -1.035706e-02  -3.570536e-03  0 
 -1.051045e-02  2.098877e-03  0 
 -3.637724e-03  2.102215e-03  0 
 -8.672331e-03  2.893710e-03  0 
 -3.464444e-03  1.808784e-03  0 
 -8.621690e-03  -2.327718e-03  0 
 -2.867395e-02  -1.012051e-02  0 
 -1.952817e-03  1.703559e-03  0 
 -6.843546e-03  -1.311982e-03  0 
VECTORS displacement_ITER5 FLOAT
 0  0  0 
 -3.869582e-02  -1.571274e-02  0 
 0  0  0 
 -1.683083e-02  2.054014e-02  0 
 -5.332573e-03  -1.009291e-03  0 
 -1.389126e-02  -6.078309e-03  0 
 -2.845150e-02  -1.498550e-02  0 
 -7.559250e-04  -3.325092e-03  0 
 -3.897713e-03  6.660819e-04  0 
 -1.679015e-02  7.724195e-03  0 
 0  0  0 
 0  0  0 
 0  0  0 
 -3.776848e-02  -2.584554e-02  0 
 -1.829520e-02  -1.036674e-02  0 
 -1.642319e-02  2.387137e-04  0 
 -2.967125e-02  2.060478e-02  0 
 -4.335816e-03  2.094290e-03  0 
 -6.101582e-03  7.971663e-05  0 
 -2.015056e-02  -3.529065e-03  0 
 -3.473309e-03  6.554562e-05  0 
 -2.018588e-02  -5.452192e-03  0 
 -1.096036e-02  -1.682004e-03  0 
 -1.010109e-02  1.522144e-03  0 
 -3.320447e-03  7.228435e-04  0 
 -8.915134e-03  1.085188e-03  0 
 -3.435913e-03  1.240164e-03  0 
 -1.080024e-02  7.372570e-03  0 
 -3.328387e-02  -1.465527e-02  0 
 -2.049371e-03  8.006123e-04  0 
 -2.527180e-02  1.273188e-02  0 
VECTORS displacement_ITER6 FLOAT
 0  0  0 
 -1.147974e-02  2.156218e-02  0 
 0  0  0 
 6.447745e-03  1.679875e-04  0 
 1.285734e-03  4.322839e-03  0 
 -4.241328e-04  2.610087e-03  0 
 -6.289994e-03  3.698478e-03  0 
 4.536338e-03  -7.843062e-03  0 
 8.048092e-03  -5.825306e-03  0 
 6.476263e-03  1.844778e-03  0 
 0  0  0 
 0  0  0 
 0  0  0 
 -2.019104e-02  -5.296544e-03  0 
 -7.681327e-03  -4.820309e-03  0 
 2.405705e-03  -4.436336e-03  0 
 8.100864e-03  2.292519e-04  0 
 -2.115680e-03  3.534584e-03  0 
 4.340698e-03  1.518035e-04  0 
 -1.075473e-02  5.407601e-03  0 
 -1.444302e-03  1.013402e-03  0 
 -1.128735e-02  3.835083e-03  0 
 -8.428096e-04  6.215672e-04  0 
 -4.694892e-03  5.819987e-03  0 
 2.170748e-03  5.493455e-04  0 
 -4.293418e-03  3.914041e-03  0 
 -1.634308e-03  1.954618e-03  0 
 4.675374e-03  -1.053013e-04  0 
 -1.789071e-02  4.597697e-03  0 
 -7.011801e-04  1.091186e-03  0 
 7.563686e-03  1.216383e-03  0 
VECTORS displacement_ITER7 FLOAT
 0  0  0 
 4.242663e-04  4.463710e-02  0 
 0  0  0 
 2.251660e-03  8.610003e-03  0 
 4.375379e-03  5.498167e-03  0 
 6.929357e-03  7.109705e-03  0 
 5.698042e-03  1.687757e-02  0 
 1.244670e-03  -2.670391e-03  0 
 2.973578e-03  2.998452e-03  0 
 2.286002e-03  1.499877e-02  0 
 0  0  0 
 0  0  0 
 0  0  0 
 -1.314633e-02  1.352114e-02  0 
 -1.130120e-02  9.320046e-03  0 
 -5.368971e-03  7.665617e-03  0 
 8.634821e-03  8.665133e-03  0 
 -2.577117e-03  4.802759e-03  0 
 -5.126677e-04  1.021897e-02  0 
 -7.402145e-03  1.251559e-02  0 
 -6.141398e-04  7.571366e-04  0 
 -1.068791e-02  1.407847e-02  0 
 -6.374340e-03  1.079625e-02  0 
 -6.616140e-03  1.099300e-02  0 
 -4.464719e-04  5.754012e-03  0 
 -2.918412e-03  4.613276e-03  0 
 -1.104118e-03  1.880861e-03  0 
 -2.017629e-03  1.154124e-02  0 
 -1.088637e-02  2.014668e-02  0 
 -1.146517e-03  2.192650e-03  0 
 6.486088e-03  1.254180e-02  0 
VECTORS displacement_ITER8 FLOAT
 0  0  0 
 -2.366512e-02  1.359051e-02  0 
 0  0  0 
 1.221700e-03  5.402184e-03  0 
 -1.758056e-03  -2.091931e-03  0 
 -2.738820e-03  -4.415367e-03  0 
 -8.858111e-03  -2.103080e-03  0 
 1.852854e-03  -4.597222e-03  0 
 2.924831e-03  -3.301489e-03  0 
 1.260673e-03  5.697374e-03  0 
 0  0  0 
 0  0  0 
 0  0  0 
 -2.015872e-02  -7.653693e-03  0 
 -1.430268e-02  -3.467492e-03  0 
 -4.644743e-03  1.384641e-03  0 
 1.507623e-03  5.462602e-03  0 
 -2.621756e-03  2.164635e-03  0 
 -1.910138e-04  2.777277e-03  0 
 -1.333833e-02  1.485750e-03  0 
 -1.652098e-03  -8.856240e-04  0 
 -1.392536e-02  1.047863e-03  0 
 -5.865002e-03  2.736900e-03  0 
 -6.683034e-03  4.314253e-03  0 
 -4.243316e-04  1.217993e-03  0 
 -5.315426e-03  5.893150e-05  0 
 -1.826581e-03  5.768559e-04  0 
 -1.195533e-03  4.402070e-03  0 
 -2.063642e-02  3.566494e-03  0 
 -1.066760e-03  8.940780e-04  0 
 1.437943e-03  5.608373e-03  0 
VECTORS displacement_ITER9 FLOAT
 0  0  0 
 -2.546145e-02  1.150450e-02  0 
 0  0  0 
 -2.348215e-03  5.568553e-03  0 
 -1.592692e-03  -2.758770e-03  0 
 -1.394736e-03  -3.621740e-03  0 
 -6.812467e-03  -6.611029e-04  0 
 2.753395e-04  -2.411240e-03  0 
 -9.650411e-06  -2.550415e-03  0 
 -2.306222e-03  3.248736e-03  0 
 0  0  0 
 0  0  0 
 0  0  0 
 -1.517855e-02  -5.199926e-03  0 
 -1.325210e-02  -6.908306e-04  0 
 -6.072610e-03  3.187178e-03  0 
 -4.676273e-03  5.627453e-03  0 
 -2.677777e-03  1.236216e-03  0 
 -2.568060e-03  2.113083e-03  0 
 -1.134350e-02  2.350380e-03  0 
 -1.434014e-03  -1.256441e-03  0 
 -1.150651e-02  1.811049e-03  0 
 -6.597413e-03  3.259621e-03  0 
 -6.447555e-03  3.405459e-03  0 
 -1.999433e-03  8.747244e-04  0 
 -4.800161e-03  -6.024616e-04  0 
 -1.724565e-03  3.806374e-05  0 
 -3.472484e-03  4.078706e-03  0 
 -1.744221e-02  6.188675e-03  0 
 -1.238203e-03  6.491871e-04  0 
 -3.855371e-03  4.174041e-03  0 
VECTORS displacement_ITER10 FLOAT
 0  0  0 
 -1.161633e-02  2.683821e-02  0 
 0  0  0 
 2.210445e-03  -3.543456e-03  0 
 2.140121e-03  7.245377e-04  0 
 5.981634e-03  3.517268e-03  0 
 5.172977e-03  1.116483e-02  0 
 -7.900971e-06  -3.254567e-04  0 
 7.393848e-04  -1.930145e-03  0 
 2.248643e-03  -3.090127e-04  0 
 0  0  0 
 0  0  0 
 0  0  0 
 -2.901434e-03  8.606900e-03  0 
 -7.249254e-03  6.032461e-03  0 
 -2.082912e-03  2.271872e-03  0 
 5.439726e-03  -3.491822e-03  0 
 -2.114338e-03  1.425344e-03  0 
 -2.062691e-03  2.569754e-03  0 
 -4.598978e-03  8.521509e-03  0 
 -4.306116e-04  -7.246617e-04  0 
 -5.194885e-03  8.180063e-03  0 
 -4.536329e-03  4.913866e-03  0 
 -4.702421e-03  4.873701e-03  0 
 -2.038103e-03  1.732262e-03  0 
 -2.330671e-03  9.518313e-04  0 
 -9.460110e-04  1.324206e-04  0 
 -1.253332e-03  1.119957e-03  0 
 -6.471408e-03  1.775508e-02  0 
 -9.797968e-04  9.681047e-04  0 
 4.366086e-03  -1.546553e-03  0 
VECTORS displacement_ITER11 FLOAT
 0  0  0 
 -1.919157e-02  1.093164e-02  0 
 0  0  0 
 -1.063704e-03  4.387957e-05  0 
 -2.628879e-04  -1.458782e-03  0 
 1.533794e-03  -4.348582e-04  0 
 -1.248127e-03  1.766141e-03  0 
 -1.892152e-05  -6.417931e-04  0 
 -1.121560e-04  -3.955487e-03  0 
 -1.019626e-03  -5.300684e-03  0 
 0  0  0 
 0  0  0 
 0  0  0 
 -4.733372e-03  -1.531069e-03  0 
 -5.467240e-03  1.437951e-04  0 
 -1.788015e-03  4.654925e-04  0 
 -6.416030e-03  9.990456e-05  0 
 -1.749199e-03  6.131648e-05  0 
 -1.853915e-03  -1.681321e-03  0 
 -5.566401e-03  3.459826e-03  0 
 -7.439174e-04  -9.827531e-04  0 
 -4.584156e-03  2.245819e-03  0 
 -2.816357e-03  7.566961e-04  0 
 -3.532067e-03  1.398321e-03  0 
 -1.942253e-03  -6.205127e-04  0 
 -2.693926e-03  -4.905176e-04  0 
 -1.074546e-03  -2.995916e-04  0 
 -1.001747e-03  -1.356535e-03  0 
 -9.112103e-03  8.549518e-03  0 
 -8.166270e-04  2.393389e-04  0 
 -4.564735e-03  -3.204326e-03  0 
VECTORS displacement_ITER12 FLOAT
 0  0  0 
 -1.780916e-02  8.080376e-03  0 
 0  0  0 
 -3.028921e-04  8.292016e-04  0 
 -7.023868e-04  -1.341693e-03  0 
 2.154000e-04  -7.728633e-04  0 
 -2.546391e-03  -4.999764e-04  0 
 -6.273659e-05  3.406162e-04  0 
 1.119665e-04  -2.669920e-03  0 
 -2.574317e-04  -5.446808e-03  0 
 0  0  0 
 0  0  0 
 0  0  0 
 -5.071043e-03  -2.400300e-03  0 
 -3.672484e-03  -4.290929e-04  0 
 -8.635603e-04  6.017373e-04  0 
 -6.584353e-03  8.846971e-04  0 
 -1.345892e-03  3.143419e-04  0 
 -1.233870e-03  -1.458310e-03  0 
 -5.078814e-03  2.507959e-03  0 
 -6.880749e-04  -6.450473e-04  0 
 -3.928137e-03  1.777235e-03  0 
 -1.655447e-03  4.653129e-04  0 
 -2.767585e-03  1.391759e-03  0 
 -1.503982e-03  -4.260010e-05  0 
 -2.358434e-03  -1.862987e-04  0 
 -9.049500e-04  -5.169646e-05  0 
 -1.068861e-04  -1.296858e-03  0 
 -8.884506e-03  6.063234e-03  0 
 -5.644440e-04  4.461457e-04  0 
 -4.416404e-03  -2.988497e-03  0 
VECTORS displacement_ITER13 FLOAT
 0  0  0 
 -6.863209e-03  1.897687e-02  0 
 0  0  0 
 1.955032e-03  -6.725617e-04  0 
 9.218535e-04  9.087185e-04  0 
 2.420342e-03  2.614270e-03  0 
 2.068695e-03  5.326429e-03  0 
 -7.545417e-04  3.239553e-03  0 
 5.751343e-05  3.145193e-03  0 
 1.999217e-03  4.379518e-04  0 
 0  0  0 
 0  0  0 
 0  0  0 
 -3.379916e-03  7.480161e-03  0 
 -3.019911e-03  5.488280e-03  0 
 -1.730423e-03  3.847941e-03  0 
 3.070372e-03  -6.243413e-04  0 
 -1.182150e-03  1.987536e-03  0 
 -1.845936e-03  3.720001e-03  0 
 -3.001596e-03  5.852340e-03  0 
 -2.894051e-04  8.891716e-05  0 
 -3.521190e-03  7.198781e-03  0 
 -2.613810e-03  4.575958e-03  0 
 -3.108029e-03  4.668024e-03  0 
 -1.520809e-03  3.718787e-03  0 
 -1.413680e-03  1.513421e-03  0 
 -4.976580e-04  6.634770e-04  0 
 -9.293111e-04  2.301432e-03  0 
 -5.150049e-03  1.125071e-02  0 
 -4.088914e-04  1.592859e-03  0 
 2.716910e-03  2.628949e-05  0 
VECTORS displacement_ITER14 FLOAT
 0  0  0 
 -1.057870e-02  6.541180e-03  0 
 0  0  0 
 3.975820e-04  3.387649e-03  0 
 -1.393462e-03  -8.370275e-04  0 
 -2.580506e-03  -1.571145e-03  0 
 -4.531000e-03  -3.089633e-03  0 
 -1.989209e-04  2.060907e-03  0 
 3.519282e-05  2.927840e-03  0 
 4.469232e-04  1.489221e-03  0 
 0  0  0 
 0  0  0 
 0  0  0 
 -7.933953e-03  -8.496163e-05  0 
 -3.314637e-03  8.707370e-04  0 
 -2.662695e-03  3.657553e-03  0 
 -1.490139e-03  3.436429e-03  0 
 -8.817222e-04  1.583436e-03  0 
 -1.178492e-03  2.649399e-03  0 
 -4.884374e-03  9.615836e-04  0 
 -6.357340e-04  8.400288e-05  0 
 -4.969091e-03  2.559039e-03  0 
 -1.998846e-03  2.387128e-03  0 
 -2.609282e-03  2.832815e-03  0 
 -7.683517e-04  2.730671e-03  0 
 -1.918586e-03  6.374369e-04  0 
 -6.018749e-04  6.237809e-04  0 
 -1.139126e-03  2.959149e-03  0 
 -8.566520e-03  2.158721e-03  0 
 -2.357355e-04  1.240690e-03  0 
 -8.204082e-04  2.249816e-03  0 
VECTORS displacement_ITER15 FLOAT
 0  0  0 
 -1.078584e-03  1.041626e-02  0 
 0  0  0 
 1.531248e-03  1.365506e-03  0 
 3.293317e-05  7.195709e-04  0 
 -2.730489e-04  3.688778e-04  0 
 2.149926e-04  3.429287e-04  0 
 7.775728e-04  1.989788e-04  0 
 1.032848e-03  1.562359e-03  0 
 1.583053e-03  1.390995e-03  0 
 0  0  0 
 0  0  0 
 0  0  0 
 -2.800473e-03  4.148276e-03  0 
 -4.733074e-04  1.468789e-03  0 
 -1.458819e-03  2.731585e-03  0 
 1.576453e-03  1.409399e-03  0 
 -4.052045e-04  1.124689e-03  0 
 -8.413116e-06  1.760118e-03  0 
 -1.639489e-03  1.561644e-03  0 
 -1.926763e-04  3.309036e-04  0 
 -2.121910e-03  3.157846e-03  0 
 -5.071804e-04  1.639613e-03  0 
 -1.176575e-03  2.134517e-03  0 
 1.208976e-04  1.475603e-03  0 
 -5.635146e-04  8.861459e-04  0 
 -1.762943e-04  4.906979e-04  0 
 -2.449557e-04  2.094789e-03  0 
 -3.012887e-03  3.832072e-03  0 
 -6.159893e-05  7.681840e-04  0 
 1.586523e-03  1.405219e-03  0 
VECTORS displacement_ITER16 FLOAT
 0  0  0 
 -1.934871e-03  3.248729e-03  0 
 0  0  0 
 4.379375e-04  1.531508e-03  0 
 -2.968300e-04  4.935034e-04  0 
 -1.038655e-03  -2.692393e-04  0 
 -9.500655e-04  -1.656716e-03  0 
 1.329567e-03  -1.721079e-03  0 
 1.148518e-03  -1.116833e-03  0 
 4.943139e-04  -3.515013e-04  0 
 0  0  0 
 0  0  0 
 0  0  0 
 -9.201996e-04  7.687310e-04  0 
 1.106636e-03  -7.324112e-04  0 
 -4.934438e-04  1.498461e-03  0 
 -1.417470e-03  1.571847e-03  0 
 -5.134888e-05  1.575053e-04  0 
 7.907542e-04  -7.264481e-04  0 
 -6.843361e-04  -7.968255e-05  0 
 -1.389957e-04  3.011990e-04  0 
 -3.725937e-04  4.923401e-04  0 
 9.233346e-04  -4.314055e-04  0 
 1.484060e-04  1.683185e-04  0 
 6.152808e-04  -7.382415e-04  0 
 -1.812729e-04  4.460688e-04  0 
 -9.811003e-05  2.133728e-04  0 
 2.354940e-04  5.884770e-04  0 
 -1.669944e-03  6.379035e-04  0 
 8.639627e-06  -2.173254e-05  0 
 -7.608979e-04  4.058213e-04  0 
VECTORS displacement_ITER17 FLOAT
 0  0  0 
 -1.936645e-03  1.223560e-03  0 
 0  0  0 
 -1.232705e-04  3.935142e-04  0 
 -2.292362e-04  5.423385e-04  0 
 -9.951529e-04  3.000413e-04  0 
 -1.146563e-03  -4.062199e-04  0 
 4.807025e-04  -5.877409e-04  0 
 1.645298e-04  1.952279e-04  0 
 -6.496509e-05  1.260916e-03  0 
 0  0  0 
 0  0  0 
 0  0  0 
 -3.826570e-04  2.017265e-03  0 
 5.164085e-05  1.091091e-03  0 
 -1.244726e-03  2.218952e-03  0 
 7.816470e-04  4.271698e-04  0 
 -1.375171e-04  3.131962e-04  0 
 -1.888907e-04  5.766642e-04  0 
 -4.136104e-04  5.095399e-04  0 
 -1.133354e-04  3.327699e-04  0 
 -3.853845e-04  1.078469e-03  0 
 -1.745229e-04  7.414720e-04  0 
 -1.614131e-04  5.902439e-04  0 
 4.682684e-05  6.090583e-05  0 
 -1.651081e-04  6.192477e-04  0 
 -9.932952e-05  2.576242e-04  0 
 -8.925172e-04  1.326187e-03  0 
 -8.052116e-04  1.081199e-03  0 
 -8.269365e-05  1.181509e-04  0 
 4.961971e-04  9.501176e-04  0 
VECTORS displacement_ITER18 FLOAT
 0  0  0 
 -1.200144e-03  -3.935204e-04  0 
 0  0  0 
 -2.622778e-04  -2.028650e-04  0 
 -4.138309e-04  -1.387105e-04  0 
 -9.983468e-04  -3.871485e-04  0 
 -1.112373e-03  -4.265945e-04  0 
 -1.670685e-04  2.308049e-04  0 
 -2.738470e-04  2.347213e-04  0 
 -2.021149e-04  3.499441e-04  0 
 0  0  0 
 0  0  0 
 0  0  0 
 -4.009729e-04  1.623830e-03  0 
 -1.078802e-03  9.853624e-04  0 
 -1.104525e-03  8.313576e-04  0 
 3.321573e-04  -1.715148e-04  0 
 -2.213179e-04  8.518745e-05  0 
 -6.689358e-04  4.639049e-04  0 
 -4.918653e-04  -1.395335e-04  0 
 -1.203785e-04  4.897583e-05  0 
 -7.797845e-04  3.655459e-04  0 
 -9.223343e-04  5.592100e-04  0 
 -5.383223e-04  1.871438e-04  0 
 -3.665565e-04  2.464970e-04  0 
 -2.374803e-04  2.698881e-05  0 
 -1.042512e-04  2.634291e-05  0 
 -8.388751e-04  4.920555e-04  0 
 -4.289080e-04  2.767825e-04  0 
 -1.150729e-04  1.001249e-04  0 
 1.520446e-04  1.615000e-04  0 
VECTORS displacement_ITER19 FLOAT
 0  0  0 
 9.617766e-04  -8.412530e-04  0 
 0  0  0 
 3.917022e-04  1.579092e-04  0 
 -1.201687e-04  -1.688002e-04  0 
 -1.961845e-04  -5.233171e-04  0 
 1.038528e-05  -4.510607e-04  0 
 -2.497871e-05  -1.675659e-04  0 
 2.833358e-04  -1.057248e-03  0 
 4.536528e-04  -1.472040e-03  0 
 0  0  0 
 0  0  0 
 0  0  0 
 6.458843e-04  2.367271e-04  0 
 -4.448845e-04  -2.410178e-04  0 
 2.652336e-04  -1.014749e-03  0 
 -1.195628e-03  1.897891e-04  0 
 -5.581884e-06  -2.930157e-04  0 
 1.154407e-04  -6.619340e-04  0 
 2.115824e-04  -7.116346e-04  0 
 3.971512e-07  -8.587411e-05  0 
 1.398618e-05  -7.105689e-04  0 
 -1.502570e-04  -4.741897e-04  0 
 4.573871e-06  -5.559916e-04  0 
 -3.784526e-05  -4.202147e-04  0 
 9.932397e-05  -3.591914e-04  0 
 2.546649e-05  -1.655763e-04  0 
 5.556194e-04  -8.130725e-04  0 
 6.591105e-04  -6.438590e-04  0 
 -7.993038e-07  -1.501212e-04  0 
 -6.321480e-04  -8.121635e-04  0 
VECTORS displacement_ITER20 FLOAT
 0  0  0 
 8.193903e-04  -1.602425e-03  0 
 0  0  0 
 3.774401e-04  5.748201e-04  0 
 3.612036e-05  9.081601e-05  0 
 -1.648857e-06  -4.352544e-05  0 
 -3.022395e-04  -2.664999e-04  0 
 -4.054752e-04  5.674934e-04  0 
 -9.292322e-05  2.124019e-04  0 
 4.402686e-04  3.006777e-04  0 
 0  0  0 
 0  0  0 
 0  0  0 
 -1.391170e-04  -5.885346e-04  0 
 -8.864062e-04  4.202918e-04  0 
 -1.957990e-04  -1.388300e-04  0 
 1.512307e-04  6.035200e-04  0 
 3.081241e-05  3.790353e-05  0 
 -1.288950e-04  5.620482e-04  0 
 1.160070e-04  -2.781634e-04  0 
 1.224104e-05  2.283585e-05  0 
 -1.201732e-04  -3.970338e-04  0 
 -5.276478e-04  3.508114e-04  0 
 -6.346400e-05  9.325276e-06  0 
 -1.307295e-04  3.650724e-04  0 
 7.581352e-05  -4.856449e-05  0 
 3.944777e-05  2.810469e-06  0 
 1.238989e-04  2.881817e-04  0 
 2.652924e-04  -9.770253e-04  0 
 1.121979e-05  4.747382e-05  0 
 2.502639e-04  4.342032e-04  0 
VECTORS displacement_ITER21 FLOAT
 0  0  0 
 6.469038e-04  -2.399489e-03  0 
 0  0  0 
 -2.705590e-04  4.283203e-04  0 
 1.288008e-04  1.331879e-04  0 
 2.257446e-04  2.461755e-04  0 
 -1.829504e-04  -1.398245e-04  0 
 -3.510031e-04  3.255708e-04  0 
 -4.287955e-04  4.384476e-04  0 
 -2.062947e-04  1.147332e-03  0 
 0  0  0 
 0  0  0 
 0  0  0 
 -2.871467e-04  -1.579835e-03  0 
 -7.618086e-04  7.343230e-05  0 
 -6.207645e-04  4.271535e-04  0 
 5.024481e-04  4.528402e-04  0 
 5.386492e-05  -1.724271e-05  0 
 -2.750167e-04  6.263989e-04  0 
 1.830502e-04  -2.138994e-04  0 
 2.059206e-05  7.609986e-06  0 
 5.054978e-05  -6.053877e-04  0 
 -4.800400e-04  2.941320e-04  0 
 5.649058e-05  -9.477817e-05  0 
 -1.180105e-04  2.038850e-04  0 
 6.788734e-05  -1.737697e-05  0 
 2.954012e-05  -2.955727e-06  0 
 -4.831778e-04  6.573945e-04  0 
 2.307067e-04  -1.294961e-03  0 
 -3.767755e-06  -2.408381e-05  0 
 2.599128e-04  8.953711e-04  0 
VECTORS displacement_ITER22 FLOAT
 0  0  0 
 1.401702e-03  -2.090652e-03  0 
 0  0  0 
 -9.448176e-04  -6.831964e-04  0 
 4.810878e-05  -3.264151e-04  0 
 3.810904e-04  -1.479400e-04  0 
 6.100383e-04  8.396911e-06  0 
 9.087928e-06  -5.682959e-04  0 
 -4.692854e-04  -6.383645e-04  0 
 -8.788856e-04  -1.498794e-04  0 
 0  0  0 
 0  0  0 
 0  0  0 
 -9.673691e-05  -1.913504e-03  0 
 -6.909755e-04  -1.518906e-03  0 
 -7.359258e-04  -7.190487e-04  0 
 -3.540233e-04  -6.612936e-04  0 
 -6.269534e-05  -4.806029e-04  0 
 -3.468075e-04  -7.230606e-04  0 
 1.440136e-04  -8.636576e-04  0 
 -1.569228e-05  -2.649624e-04  0 
 -9.862095e-05  -1.414439e-03  0 
 -3.960570e-04  -9.483470e-04  0 
 -7.216118e-05  -9.527531e-04  0 
 -1.271677e-04  -7.485114e-04  0 
 -4.125875e-05  -5.670652e-04  0 
 -3.241126e-05  -2.817368e-04  0 
 -7.321459e-04  -5.552410e-04  0 
 5.242286e-04  -1.481377e-03  0 
 -5.753935e-05  -2.866805e-04  0 
 -5.352094e-04  -3.296678e-04  0 
VECTORS displacement_ITER23 FLOAT
 0  0  0 
 8.652194e-04  -1.587638e-03  0 
 0  0  0 
 -1.187395e-03  -1.182357e-03  0 
 -1.357484e-05  -3.428364e-04  0 
 1.954916e-04  6.011189e-05  0 
 5.278539e-04  6.460607e-04  0 
 -5.447338e-05  -3.777149e-04  0 
 -5.993906e-04  -2.875094e-04  0 
 -1.120102e-03  -2.176927e-04  0 
 0  0  0 
 0  0  0 
 0  0  0 
 -8.381052e-04  -1.021533e-03  0 
 -1.140397e-03  -1.554399e-03  0 
 -1.088198e-03  -1.020195e-03  0 
 -1.625877e-04  -1.161969e-03  0 
 -2.653929e-04  -3.243416e-04  0 
 -6.787092e-04  -6.313992e-04  0 
 -2.977173e-04  -5.773902e-04  0 
 -1.009763e-04  -2.785664e-04  0 
 -7.899989e-04  -9.600690e-04  0 
 -8.262893e-04  -9.103654e-04  0 
 -5.781152e-04  -6.954492e-04  0 
 -3.259986e-04  -4.882821e-04  0 
 -3.113067e-04  -4.729379e-04  0 
 -1.382078e-04  -2.376682e-04  0 
 -1.062267e-03  -6.985207e-04  0 
 1.000446e-04  -8.390558e-04  0 
 -1.309328e-04  -1.501072e-04  0 
 -4.918998e-04  -5.649641e-04  0 
VECTORS displacement_ITER24 FLOAT
 0  0  0 
 -3.697896e-05  -1.415413e-03  0 
 0  0  0 
 -8.310297e-04  -1.072116e-03  0 
 7.551667e-05  9.461106e-05  0 
 5.298134e-05  5.172065e-04  0 
 2.268441e-04  8.285734e-04  0 
 1.774545e-06  -1.871628e-04  0 
 -1.903528e-04  -7.602348e-05  0 
 -7.608826e-04  -5.224217e-04  0 
 0  0  0 
 0  0  0 
 0  0  0 
 -1.244763e-03  -6.905881e-04  0 
 -8.422179e-04  -1.661437e-03  0 
 -8.853383e-04  -1.633032e-03  0 
 -2.193804e-04  -1.050607e-03  0 
 -3.069160e-04  -5.087031e-05  0 
 -4.700222e-04  -6.446665e-04  0 
 -4.847018e-04  -1.613525e-04  0 
 -1.513665e-04  -1.110475e-04  0 
 -9.471167e-04  -5.537753e-04  0 
 -7.097626e-04  -1.042820e-03  0 
 -7.077408e-04  -3.880977e-04  0 
 -2.323528e-04  -1.649441e-04  0 
 -4.191779e-04  -1.076590e-04  0 
 -1.801549e-04  -6.127822e-05  0 
 -6.746809e-04  -9.127381e-04  0 
 -3.047828e-04  -4.213335e-04  0 
 -1.132109e-04  1.373787e-05  0 
 -4.072672e-04  -7.074935e-04  0 
VECTORS displacement_ITER25 FLOAT
 0  0  0 
 2.930725e-04  -9.189652e-04  0 
 0  0  0 
 -5.800277e-04  -7.135186e-04  0 
 2.774372e-04  3.805487e-04  0 
 3.743812e-04  5.011240e-04  0 
 6.331983e-04  3.573765e-04  0 
 1.068978e-04  -2.953622e-04  0 
 1.757868e-04  -3.225764e-04  0 
 -5.067924e-04  -8.436419e-04  0 
 0  0  0 
 0  0  0 
 0  0  0 
 -3.706051e-04  -1.102567e-03  0 
 2.967903e-06  -1.828873e-03  0 
 -5.132780e-04  -1.980193e-03  0 
 -6.482157e-04  -6.885794e-04  0 
 -1.322517e-04  -1.289416e-04  0 
 -7.217187e-05  -9.721291e-04  0 
 -2.569514e-05  -2.427626e-04  0 
 -7.886636e-05  -4.480113e-05  0 
 -2.225196e-04  -7.535171e-04  0 
 -2.027307e-04  -1.405300e-03  0 
 -2.954787e-04  -6.161167e-04  0 
 3.939319e-06  -3.190701e-04  0 
 -1.585127e-04  -1.079707e-04  0 
 -8.073619e-05  -6.331868e-05  0 
 -2.203099e-04  -1.118141e-03  0 
 8.281964e-05  -4.778989e-04  0 
 -2.833893e-05  -5.707716e-05  0 
 -6.033132e-04  -7.628178e-04  0 
VECTORS displacement_ITER26 FLOAT
 0  0  0 
 -2.474090e-04  -2.838932e-04  0 
 0  0  0 
 -6.238590e-04  -2.858853e-04  0 
 7.039693e-05  1.569033e-04  0 
 3.368766e-06  2.326313e-05  0 
 -9.685966e-06  -2.543232e-04  0 
 -3.269408e-04  5.467302e-04  0 
 -2.445777e-04  9.534438e-04  0 
 -5.483190e-04  8.488969e-04  0 
 0  0  0 
 0  0  0 
 0  0  0 
 -9.877692e-04  -8.878120e-04  0 
 -6.692286e-04  -7.170697e-04  0 
 -1.137163e-03  -6.667064e-04  0 
 5.742365e-04  -2.586849e-04  0 
 -1.283836e-04  1.358573e-04  0 
 -4.948691e-04  3.150969e-04  0 
 -3.990888e-04  -2.113901e-04  0 
 -8.896926e-05  -2.343632e-05  0 
 -6.365333e-04  -3.117584e-04  0 
 -7.644160e-04  -3.582122e-04  0 
 -5.099837e-04  -5.919198e-05  0 
 -2.005056e-04  5.103804e-04  0 
 -2.176422e-04  -7.094351e-05  0 
 -6.453858e-05  2.307658e-05  0 
 -8.158692e-04  1.098827e-04  0 
 -6.203065e-04  -4.527314e-04  0 
 -3.231280e-05  1.445851e-04  0 
 1.886264e-04  4.400817e-04  0 
VECTORS displacement_ITER27 FLOAT
 0  0  0 
 -1.997417e-04  2.732367e-04  0 
 0  0  0 
 2.655648e-06  1.834123e-04  0 
 -8.475937e-05  -6.935263e-05  0 
 -1.801016e-04  -2.749056e-04  0 
 -2.050511e-04  -4.303168e-04  0 
 -9.262898e-05  8.302843e-05  0 
 5.054690e-05  1.636497e-04  0 
 8.039080e-05  3.776927e-04  0 
 0  0  0 
 0  0  0 
 0  0  0 
 -6.634391e-04  -7.367126e-04  0 
 -4.089122e-04  -5.992710e-04  0 
 -2.321583e-04  -3.214318e-04  0 
 2.587606e-04  2.147120e-04  0 
 -2.906590e-05  7.055168e-05  0 
 1.752065e-05  1.378592e-04  0 
 -3.870450e-04  -2.776181e-04  0 
 -5.237754e-05  -2.276376e-05  0 
 -4.353498e-04  -3.264235e-04  0 
 -1.923674e-04  -1.706944e-04  0 
 -1.774247e-04  3.625357e-06  0 
 1.361692e-05  1.734022e-04  0 
 -1.374528e-04  -6.733945e-05  0 
 -3.291893e-05  1.917220e-05  0 
 -4.423110e-05  6.835319e-05  0 
 -6.030864e-04  -3.859922e-04  0 
 -2.514373e-07  3.751644e-05  0 
 1.954877e-04  3.354685e-04  0 
VECTORS displacement_ITER28 FLOAT
 0  0  0 
 -3.940221e-04  3.789183e-04  0 
 0  0  0 
 5.932603e-04  4.374199e-04  0 
 -1.544592e-04  -1.115497e-04  0 
 -2.791991e-04  -1.647375e-04  0 
 -3.554806e-04  -8.500449e-05  0 
 1.341846e-04  -3.233207e-04  0 
 2.647141e-04  -5.680695e-04  0 
 6.720639e-04  -2.874671e-04  0 
 0  0  0 
 0  0  0 
 0  0  0 
 -3.370195e-04  -2.301603e-04  0 
 -2.946216e-04  -4.654670e-04  0 
 4.299912e-04  -2.450451e-04  0 
 -7.238345e-05  4.724204e-04  0 
 -1.290157e-05  4.836321e-05  0 
 3.773461e-04  -4.651469e-05  0 
 -3.623917e-04  -8.986644e-05  0 
 -4.279986e-05  9.916491e-06  0 
 -3.264721e-04  -1.945478e-04  0 
 1.590655e-04  -4.483225e-05  0 
 -5.877603e-06  1.014273e-04  0 
 1.397747e-04  -1.279009e-04  0 
 -1.263483e-04  4.745862e-05  0 
 -4.202412e-05  4.200079e-05  0 
 6.035085e-04  -1.079276e-04  0 
 -4.456826e-04  -4.163520e-05  0 
 -7.006902e-08  -2.595893e-05  0 
 1.795358e-04  2.790852e-05  0 
VECTORS displacement_ITER29 FLOAT
 0  0  0 
 -9.347285e-04  1.516532e-05  0 
 0  0  0 
 5.631149e-04  4.838179e-04  0 
 -1.989238e-04  -1.013945e-04  0 
 -3.740857e-04  -2.605876e-05  0 
 -6.403650e-04  1.461891e-04  0 
 5.599269e-06  -7.068080e-05  0 
 -6.409986e-05  -2.870969e-04  0 
 6.422733e-04  -6.352033e-05  0 
 0  0  0 
 0  0  0 
 0  0  0 
 -4.336409e-04  3.282624e-04  0 
 -7.253126e-04  9.340826e-05  0 
 5.247824e-05  2.814113e-04  0 
 7.302435e-05  5.212217e-04  0 
 -9.404245e-05  1.170483e-04  0 
 6.702909e-05  3.660500e-04  0 
 -4.596941e-04  1.410068e-04  0 
 -6.465333e-05  3.159122e-05  0 
 -5.281006e-04  1.075916e-04  0 
 -2.053802e-04  3.934111e-04  0 
 -1.812539e-04  3.205492e-04  0 
 -4.976870e-05  5.157123e-05  0 
 -1.926310e-04  1.350602e-04  0 
 -7.501729e-05  6.826863e-05  0 
 3.025633e-04  2.382512e-04  0 
 -5.028184e-04  2.473734e-04  0 
 -4.557839e-05  4.334605e-05  0 
 2.657483e-04  1.831313e-04  0 
VECTORS displacement_ITER30 FLOAT
 0  0  0 
 -8.735176e-04  -2.617138e-04  0 
 0  0  0 
 2.049106e-04  2.651317e-04  0 
 -1.105928e-04  -2.652638e-05  0 
 -2.042412e-04  -5.788676e-05  0 
 -5.370505e-04  -8.132267e-05  0 
 -7.464163e-05  7.621135e-05  0 
 -3.186920e-04  -1.170687e-04  0 
 2.841975e-04  -7.630379e-05  0 
 0  0  0 
 0  0  0 
 0  0  0 
 -4.611724e-04  3.523706e-04  0 
 -8.283194e-04  3.580861e-04  0 
 -4.125286e-04  6.049961e-04  0 
 -8.085459e-05  3.038494e-04  0 
 -1.347338e-04  3.322400e-05  0 
 -2.684021e-04  3.758651e-04  0 
 -3.408263e-04  7.898578e-05  0 
 -5.623331e-05  4.541717e-06  0 
 -5.081020e-04  1.446272e-04  0 
 -4.521473e-04  4.459967e-04  0 
 -2.646269e-04  2.216025e-04  0 
 -2.139046e-04  3.999254e-05  0 
 -1.401602e-04  3.876901e-05  0 
 -6.593456e-05  6.026545e-06  0 
 -1.601873e-04  3.133245e-04  0 
 -4.301372e-04  1.290249e-04  0 
 -7.292197e-05  3.857457e-05  0 
 4.237280e-05  9.038706e-05  0 
VECTORS displacement_ITER31 FLOAT
 0  0  0 
 -4.339405e-04  -6.409552e-06  0 
 0  0  0 