# vtk DataFile Version 3.1
this is an vtk file created by FEMAC
ASCII
DATASET UNSTRUCTURED_GRID
POINTS 22 FLOAT
5.000000 6.000000 0.000000
6.000000 5.000000 0.000000
6.000000 6.000000 0.000000
4.666667 6.000000 0.000000
5.333333 5.000000 0.000000
5.666667 5.000000 0.000000
6.000000 4.666667 0.000000
5.333333 6.000000 0.000000
5.666667 6.000000 0.000000
6.000000 5.333333 0.000000
6.000000 5.666667 0.000000
4.723211 5.710771 0.000000
5.491944 4.720470 0.000000
5.759432 4.506844 0.000000
5.765873 4.784155 0.000000
5.460886 5.268748 0.000000
5.496429 5.631045 0.000000
5.236657 5.502947 0.000000
5.205935 5.229635 0.000000
5.769916 5.367004 0.000000
5.220171 5.768283 0.000000
5.786602 5.732943 0.000000
CELLS 25 100 
3 3 11  0
3 5  4 12
3 5 14  1
3 14  6  1
3 14  5 12
3 13 14 12
3 14 13  6
3 5 15  4
3 16  8  7
3 18  4 15
3 15 17 18
3 17 15 16
3 19  5  1
3 9 19  1
3 20  7  0
3 19 15  5
3 7 20 16
3 20 17 16
3 8 21  2
3 21  8 16
3 21 10  2
3 10 19  9
3 16 15 19
3 10 21 19
3 21 16 19
CELL_TYPES 25
5 5 5 5 5 5 5 5 5 5 5 5 5 5 5 5 5 5 5 5 5 5 5 5 5 
POINT_DATA 22
VECTORS displacement_ITER1 FLOAT
 2.960032e-01  -3.829915e-01  0 
 2.594583e-01  -4.195523e-01  0 
 2.960213e-01  -4.195422e-01  0 
 2.949909e-01  -3.648598e-01  0 
 2.594728e-01  -3.951527e-01  0 
 2.594626e-01  -4.073558e-01  0 
 2.460000e-01  -4.231230e-01  0 
 2.960134e-01  -3.951726e-01  0 
 2.960197e-01  -4.073576e-01  0 
 2.716514e-01  -4.195444e-01  0 
 2.838384e-01  -4.195400e-01  0 
 2.770489e-01  -3.673034e-01  0 
 2.497555e-01  -4.027743e-01  0 
 2.404996e-01  -4.144824e-01  0 
 2.514408e-01  -4.130912e-01  0 
 2.692941e-01  -3.998177e-01  0 
 2.825328e-01  -4.011257e-01  0 
 2.778467e-01  -3.916184e-01  0 
 2.678669e-01  -3.904895e-01  0 
 2.728851e-01  -4.111269e-01  0 
 2.875407e-01  -3.910269e-01  0 
 2.862596e-01  -4.117396e-01  0 
VECTORS displacement_ITER2 FLOAT
 6.742442e-02  -9.512874e-02  0 
 3.901774e-02  -1.235371e-01  0 
 6.743080e-02  -1.235509e-01  0 
 6.371644e-02  -1.042688e-01  0 
 3.902107e-02  -1.045872e-01  0 
 3.901577e-02  -1.140631e-01  0 
 3.223600e-02  -1.217848e-01  0 
 6.742755e-02  -1.046012e-01  0 
 6.742991e-02  -1.140768e-01  0 
 4.848802e-02  -1.235405e-01  0 
 5.795867e-02  -1.235462e-01  0 
 6.957742e-02  -1.022961e-01  0 
 3.504108e-02  -1.088835e-01  0 
 2.902392e-02  -1.162153e-01  0 
 3.497758e-02  -1.168489e-01  0 
 4.664914e-02  -1.082114e-01  0 
 5.694150e-02  -1.092329e-01  0 
 5.329451e-02  -1.018381e-01  0 
 4.553966e-02  -1.009617e-01  0 
 4.944332e-02  -1.170023e-01  0 
 6.083859e-02  -1.013793e-01  0 
 5.984004e-02  -1.174834e-01  0 
VECTORS displacement_ITER3 FLOAT
 2.649101e-02  -3.603321e-02  0 
 1.187215e-03  -6.132730e-02  0 
 2.648339e-02  -6.137631e-02  0 
 1.950274e-02  -5.501289e-02  0 
 1.171806e-03  -4.448914e-02  0 
 1.176956e-03  -5.290689e-02  0 
 7.653042e-03  -5.543422e-02  0 
 2.648636e-02  -4.448044e-02  0 
 2.648361e-02  -5.292983e-02  0 
 9.605959e-03  -6.134759e-02  0 
 1.803890e-02  -6.136881e-02  0 
 3.091064e-02  -5.030008e-02  0 
 8.007674e-03  -4.728277e-02  0 
 5.319304e-03  -5.196494e-02  0 
 5.158970e-03  -5.425935e-02  0 
 7.958522e-03  -4.770841e-02  0 
 1.713131e-02  -4.861589e-02  0 
 1.387930e-02  -4.202266e-02  0 
 6.972574e-03  -4.125197e-02  0 
 1.044991e-02  -5.553373e-02  0 
 2.061103e-02  -4.161108e-02  0 
 1.971527e-02  -5.596682e-02  0 
VECTORS displacement_ITER4 FLOAT
 2.613472e-02  -1.807573e-02  0 
 -2.015712e-03  -4.622260e-02  0 
 2.614937e-02  -4.625663e-02  0 
 1.892193e-02  -2.774556e-02  0 
 -2.038094e-03  -2.748172e-02  0 
 -2.025739e-03  -3.684877e-02  0 
 2.737532e-03  -3.621049e-02  0 
 2.614506e-02  -2.746090e-02  0 
 2.614821e-02  -3.685856e-02  0 
 7.360816e-03  -4.624078e-02  0 
 1.675105e-02  -4.625571e-02  0 
 1.747830e-02  -2.486832e-02  0 
 3.751250e-03  -2.974961e-02  0 
 1.813857e-03  -3.380699e-02  0 
 6.403020e-04  -3.692890e-02  0 
 5.533335e-03  -3.106103e-02  0 
 1.574790e-02  -3.205489e-02  0 
 1.213857e-02  -2.471929e-02  0 
 4.440623e-03  -2.386692e-02  0 
 8.302659e-03  -3.976702e-02  0 
 1.961251e-02  -2.426358e-02  0 
 1.862015e-02  -4.023887e-02  0 
VECTORS displacement_ITER5 FLOAT
 2.920737e-02  -1.455928e-02  0 
 6.780195e-03  -3.696560e-02  0 
 2.924213e-02  -3.695755e-02  0 
 1.707110e-02  -2.559023e-02  0 
 6.764140e-03  -2.194724e-02  0 
 6.776234e-03  -2.946747e-02  0 
 5.127374e-03  -3.355606e-02  0 
 2.922942e-02  -2.200366e-02  0 
 2.923904e-02  -2.947946e-02  0 
 1.427626e-02  -3.696560e-02  0 
 2.176339e-02  -3.696055e-02  0 
 1.763113e-02  -1.569041e-02  0 
 5.912196e-03  -2.510571e-02  0 
 3.202997e-03  -2.984275e-02  0 
 5.460660e-03  -3.133354e-02  0 
 1.282277e-02  -2.483803e-02  0 
 2.096557e-02  -2.564994e-02  0 
 1.808287e-02  -1.980363e-02  0 
 1.193415e-02  -1.908267e-02  0 
 1.503426e-02  -3.179439e-02  0 
 2.403754e-02  -1.945737e-02  0 
 2.325172e-02  -3.216819e-02  0 
VECTORS displacement_ITER6 FLOAT
 2.714354e-02  -1.368824e-02  0 
 6.037591e-03  -3.476931e-02  0 
 2.720161e-02  -3.472494e-02  0 
 1.698242e-02  -2.293434e-02  0 
 6.002499e-03  -2.056814e-02  0 
 6.035154e-03  -2.769355e-02  0 
 5.029710e-03  -2.994904e-02  0 
 2.717545e-02  -2.067785e-02  0 
 2.719569e-02  -2.769661e-02  0 
 1.311559e-02  -3.475877e-02  0 
 2.016942e-02  -3.473646e-02  0 
 1.742346e-02  -1.483205e-02  0 
 3.756918e-03  -2.323946e-02  0 
 3.129940e-03  -2.616159e-02  0 
 4.348906e-03  -2.905911e-02  0 
 1.175473e-02  -2.332423e-02  0 
 1.942511e-02  -2.408702e-02  0 
 1.671781e-02  -1.858401e-02  0 
 1.090980e-02  -1.787951e-02  0 
 1.383565e-02  -2.988111e-02  0 
 2.229855e-02  -1.827947e-02  0 
 2.157245e-02  -3.022323e-02  0 
VECTORS displacement_ITER7 FLOAT
 2.625940e-02  -1.200696e-02  0 
 4.903608e-03  -3.336099e-02  0 
 2.629450e-02  -3.334490e-02  0 
 1.715721e-02  -2.100590e-02  0 
 4.885894e-03  -1.905901e-02  0 
 4.902571e-03  -2.622332e-02  0 
 4.804946e-03  -2.777908e-02  0 
 2.628171e-02  -1.910415e-02  0 
 2.629180e-02  -2.622377e-02  0 
 1.204500e-02  -3.335616e-02  0 
 1.917363e-02  -3.334717e-02  0 
 1.685525e-02  -1.459890e-02  0 
 3.239616e-03  -2.307327e-02  0 
 3.821454e-03  -2.482806e-02  0 
 3.546630e-03  -2.771487e-02  0 
 1.066951e-02  -2.181016e-02  0 
 1.841298e-02  -2.257565e-02  0 
 1.567500e-02  -1.701468e-02  0 
 9.831378e-03  -1.632731e-02  0 
 1.276859e-02  -2.842998e-02  0 
 2.133434e-02  -1.667547e-02  0 
 2.059038e-02  -2.878440e-02  0 
VECTORS displacement_ITER8 FLOAT
 2.651937e-02  -1.273312e-02  0 
 5.178417e-03  -3.406322e-02  0 
 2.655775e-02  -3.403970e-02  0 
 1.744927e-02  -2.160936e-02  0 
 5.157962e-03  -1.975970e-02  0 
 5.177131e-03  -2.692570e-02  0 
 5.076903e-03  -2.846509e-02  0 
 2.654148e-02  -1.981887e-02  0 
 2.655420e-02  -2.692731e-02  0 
 1.231978e-02  -3.405658e-02  0 
 1.944457e-02  -3.404396e-02  0 
 1.713143e-02  -1.529668e-02  0 
 3.525104e-03  -2.388947e-02  0 
 4.035374e-03  -2.545282e-02  0 
 3.816659e-03  -2.841307e-02  0 
 1.094528e-02  -2.251284e-02  0 
 1.868595e-02  -2.328094e-02  0 
 1.594877e-02  -1.772153e-02  0 
 1.010554e-02  -1.702414e-02  0 
 1.304421e-02  -2.913181e-02  0 
 2.160067e-02  -1.739306e-02  0 
 2.086059e-02  -2.948442e-02  0 
VECTORS displacement_ITER9 FLOAT
 2.650503e-02  -1.285549e-02  0 
 5.124807e-03  -3.422842e-02  0 
 2.654501e-02  -3.420591e-02  0 
 1.757433e-02  -2.153880e-02  0 
 5.105095e-03  -1.989953e-02  0 
 5.123341e-03  -2.707782e-02  0 
 5.045644e-03  -2.858629e-02  0 
 2.652889e-02  -1.995635e-02  0 
 2.654148e-02  -2.707929e-02  0 
 1.227885e-02  -3.422245e-02  0 
 1.941755e-02  -3.421045e-02  0 
 1.709949e-02  -1.549005e-02  0 
 3.460893e-03  -2.404002e-02  0 
 3.874091e-03  -2.546687e-02  0 
 3.765492e-03  -2.854039e-02  0 
 1.090099e-02  -2.265732e-02  0 
 1.865787e-02  -2.342611e-02  0 
 1.591529e-02  -1.785555e-02  0 
 1.005941e-02  -1.716043e-02  0 
 1.300434e-02  -2.928869e-02  0 
 2.157917e-02  -1.752600e-02  0 
 2.083657e-02  -2.964168e-02  0 
CELL_DATA 25
TENSORS element_stresses FLOAT
 2.422627e-02  2.533038e-02  0 
 2.533038e-02  -8.552782e-03  0 
 0  0  0 

 9.149943e-04  -1.201674e-02  0 
 -1.201674e-02  2.867527e-03  0 
 0  0  0 

 -1.011728e-03  -1.166074e-02  0 
 -1.166074e-02  -3.387091e-03  0 
 0  0  0 

 5.593532e-04  -6.501876e-03  0 
 -6.501876e-03  -1.675859e-02  0 
 0  0  0 

 -5.788803e-04  -7.785336e-03  0 
 -7.785336e-03  -8.738471e-04  0 
 0  0  0 

 -2.218032e-03  -1.103629e-02  0 
 -1.103629e-02  -1.142525e-02  0 
 0  0  0 

 2.115573e-03  -4.772385e-03  0 
 -4.772385e-03  -1.031645e-02  0 
 0  0  0 

 4.669845e-02  4.208833e-03  0 
 4.208833e-03  -2.679278e-02  0 
 0  0  0 

 2.774513e-02  -1.450109e-02  0 
 -1.450109e-02  -3.340692e-02  0 
 0  0  0 

 -1.913758e-02  1.097753e-02  0 
 1.097753e-02  -3.654888e-02  0 
 0  0  0 

 -2.452140e-02  -9.070765e-02  0 
 -9.070765e-02  -1.292390e-01  0 
 0  0  0 

 -6.413714e-03  -1.873133e-02  0 
 -1.873133e-02  -2.107478e-02  0 
 0  0  0 

 8.445365e-03  1.603611e-02  0 
 1.603611e-02  1.348791e-02  0 
 0  0  0 

 -7.735041e-03  1.645987e-02  0 
 1.645987e-02  1.558601e-02  0 
 0  0  0 

 5.062881e-02  1.805488e-02  0 
 1.805488e-02  -6.985677e-02  0 
 0  0  0 

 -2.105499e-02  1.337146e-02  0 
 1.337146e-02  7.812469e-03  0 
 0  0  0 

 1.728170e-02  -2.627216e-02  0 
 -2.627216e-02  -4.175510e-02  0 
 0  0  0 

 4.721229e-03  -4.061383e-02  0 
 -4.061383e-02  -8.626476e-02  0 
 0  0  0 

 9.392900e-03  -9.986055e-03  0 
 -9.986055e-03  -4.012349e-03  0 
 0  0  0 

 -7.480491e-04  -3.682657e-02  0 
 -3.682657e-02  -2.175309e-02  0 
 0  0  0 

 -5.181162e-03  -1.774977e-02  0 
 -1.774977e-02  1.206597e-02  0 
 0  0  0 

 -9.173044e-03  -1.691993e-02  0 
 -1.691993e-02  3.325191e-02  0 
 0  0  0 

 -6.933641e-03  -3.286153e-02  0 
 -3.286153e-02  -1.941885e-02  0 
 0  0  0 

 1.207405e-03  -2.266571e-03  0 
 -2.266571e-03  1.183188e-02  0 
 0  0  0 

 -4.531476e-03  -1.618947e-02  0 
 -1.618947e-02  1.094691e-02  0 
 0  0  0 

TENSORS element_stresses FLOAT
 2.422627e-02  2.533038e-02  0 
 2.533038e-02  -8.552782e-03  0 
 0  0  0 

 9.149943e-04  -1.201674e-02  0 
 -1.201674e-02  2.867527e-03  0 
 0  0  0 

 -1.011728e-03  -1.166074e-02  0 
 -1.166074e-02  -3.387091e-03  0 
 0  0  0 

 5.593532e-04  -6.501876e-03  0 
 -6.501876e-03  -1.675859e-02  0 
 0  0  0 

 -5.788803e-04  -7.785336e-03  0 
 -7.785336e-03  -8.738471e-04  0 
 0  0  0 

 -2.218032e-03  -1.103629e-02  0 
 -1.103629e-02  -1.142525e-02  0 
 0  0  0 

 2.115573e-03  -4.772385e-03  0 
 -4.772385e-03  -1.031645e-02  0 
 0  0  0 

 4.669845e-02  4.208833e-03  0 
 4.208833e-03  -2.679278e-02  0 
 0  0  0 

 2.774513e-02  -1.450109e-02  0 
 -1.450109e-02  -3.340692e-02  0 
 0  0  0 

 -1.913758e-02  1.097753e-02  0 
 1.097753e-02  -3.654888e-02  0 
 0  0  0 

 -2.452140e-02  -9.070765e-02  0 
 -9.070765e-02  -1.292390e-01  0 
 0  0  0 

 -6.413714e-03  -1.873133e-02  0 
 -1.873133e-02  -2.107478e-02  0 
 0  0  0 

 8.445365e-03  1.603611e-02  0 
 1.603611e-02  1.348791e-02  0 
 0  0  0 

 -7.735041e-03  1.645987e-02  0 
 1.645987e-02  1.558601e-02  0 
 0  0  0 

 5.062881e-02  1.805488e-02  0 
 1.805488e-02  -6.985677e-02  0 
 0  0  0 

 -2.105499e-02  1.337146e-02  0 
 1.337146e-02  7.812469e-03  0 
 0  0  0 

 1.728170e-02  -2.627216e-02  0 
 -2.627216e-02  -4.175510e-02  0 
 0  0  0 

 4.721229e-03  -4.061383e-02  0 
 -4.061383e-02  -8.626476e-02  0 
 0  0  0 

 9.392900e-03  -9.986055e-03  0 
 -9.986055e-03  -4.012349e-03  0 
 0  0  0 

 -7.480491e-04  -3.682657e-02  0 
 -3.682657e-02  -2.175309e-02  0 
 0  0  0 

 -5.181162e-03  -1.774977e-02  0 
 -1.774977e-02  1.206597e-02  0 
 0  0  0 

 -9.173044e-03  -1.691993e-02  0 
 -1.691993e-02  3.325191e-02  0 
 0  0  0 

 -6.933641e-03  -3.286153e-02  0 
 -3.286153e-02  -1.941885e-02  0 
 0  0  0 

 1.207405e-03  -2.266571e-03  0 
 -2.266571e-03  1.183188e-02  0 
 0  0  0 

 -4.531476e-03  -1.618947e-02  0 
 -1.618947e-02  1.094691e-02  0 
 0  0  0 

