# vtk DataFile Version 3.1
this is an vtk file created by FEMAC
ASCII
DATASET UNSTRUCTURED_GRID
POINTS 31 FLOAT
2.000000 4.000000 0.000000
3.000000 4.000000 0.000000
1.500000 4.000000 0.000000
1.750000 4.000000 0.000000
2.000000 3.250000 0.000000
2.000000 3.500000 0.000000
2.000000 3.750000 0.000000
2.250000 4.000000 0.000000
2.500000 4.000000 0.000000
2.750000 4.000000 0.000000
1.805000 3.255000 0.000000
1.824607 3.643596 0.000000
1.681647 3.425464 0.000000
1.631588 3.748141 0.000000
1.841239 3.828347 0.000000
1.613228 4.205045 0.000000
1.837660 4.158674 0.000000
2.808904 3.785023 0.000000
2.769602 3.187596 0.000000
2.410643 3.818050 0.000000
2.626359 3.825025 0.000000
2.275508 3.443567 0.000000
2.567037 3.328363 0.000000
2.549450 3.615319 0.000000
2.182184 3.732871 0.000000
2.818560 3.488721 0.000000
2.354447 3.652452 0.000000
2.255000 4.195000 0.000000
2.661595 4.194695 0.000000
2.413341 4.323754 0.000000
2.845050 4.155217 0.000000
CELLS 42 168 
3 5 10  4
3 6 11  5
3 5 12 10
3 5 11 12
3 12 11 13
3 3 14  0
3 14  6  0
3 14 11  6
3 2 13  3
3 14  3 13
3 13 11 14
3 3 15  2
3 16  3  0
3 16 15  3
3 7 19  8
3 20  9  8
3 20 23 17
3 20 17  9
3 17  1  9
3 6 24  0
3 24  7  0
3 24 19  7
3 20  8 19
3 20 19 23
3 21 22 23
3 23 25 17
3 21  5  4
3 25 22 18
3 25 23 22
3 26 21 23
3 19 26 23
3 5 24  6
3 21 24  5
3 26 19 24
3 21 26 24
3 8 27  7
3 9 28  8
3 8 29 27
3 8 28 29
3 0  7 27
3 30  9  1
3 30 28  9
CELL_TYPES 42
5 5 5 5 5 5 5 5 5 5 5 5 5 5 5 5 5 5 5 5 5 5 5 5 5 5 5 5 5 5 5 5 5 5 5 5 5 5 5 5 5 5 
POINT_DATA 31
VECTORS displacement_ITER1 FLOAT
 2.225765e-02  -4.418841e-02  0 
 2.238280e-02  -1.531212e-01  0 
 2.219639e-02  -2.666257e-02  0 
 2.222136e-02  -3.540133e-02  0 
 -4.080796e-03  -4.415679e-02  0 
 4.692641e-03  -4.417394e-02  0 
 1.346168e-02  -4.418064e-02  0 
 2.230432e-02  -7.144806e-02  0 
 2.234345e-02  -9.869487e-02  0 
 2.236438e-02  -1.258982e-01  0 
 -3.910243e-03  -3.730341e-02  0 
 9.728859e-03  -3.801314e-02  0 
 2.066684e-03  -3.298012e-02  0 
 1.339792e-02  -3.123371e-02  0 
 1.621317e-02  -3.859219e-02  0 
 3.478823e-03  -3.028424e-02  0 
 1.104597e-02  -3.293665e-02  0 
 1.779274e-02  -1.247983e-01  0 
 4.296693e-02  -9.459516e-02  0 
 1.617629e-02  -8.885788e-02  0 
 1.676863e-02  -1.105424e-01  0 
 5.219611e-03  -7.363674e-02  0 
 1.959589e-02  -9.916367e-02  0 
 1.182199e-02  -1.018654e-01  0 
 1.324834e-02  -6.461335e-02  0 
 1.908463e-02  -1.089978e-01  0 
 1.164842e-02  -8.243716e-02  0 
 4.355686e-02  -7.202905e-02  0 
 4.353803e-02  -1.162947e-01  0 
 5.757201e-02  -8.927198e-02  0 
 3.925788e-02  -1.362577e-01  0 
VECTORS displacement_ITER2 FLOAT
 3.691464e-02  -4.303410e-02  0 
 3.700743e-02  -1.188275e-01  0 
 3.686056e-02  -3.482228e-02  0 
 3.688179e-02  -3.890224e-02  0 
 2.461089e-02  -4.297580e-02  0 
 2.870249e-02  -4.298898e-02  0 
 3.279316e-02  -4.300590e-02  0 
 3.694974e-02  -6.201482e-02  0 
 3.698489e-02  -8.096718e-02  0 
 3.699976e-02  -9.987918e-02  0 
 2.468916e-02  -3.977007e-02  0 
 3.104746e-02  -4.011550e-02  0 
 2.747195e-02  -3.775753e-02  0 
 3.275725e-02  -3.694730e-02  0 
 3.407483e-02  -4.039147e-02  0 
 1.785132e-02  -3.607368e-02  0 
 2.534404e-02  -3.591852e-02  0 
 3.495167e-02  -1.016763e-01  0 
 5.136098e-02  -9.508057e-02  0 
 3.468106e-02  -7.515327e-02  0 
 3.458933e-02  -9.067248e-02  0 
 2.957266e-02  -6.511281e-02  0 
 3.813009e-02  -8.957367e-02  0 
 3.303253e-02  -8.674213e-02  0 
 3.323298e-02  -5.785669e-02  0 
 3.613153e-02  -9.713919e-02  0 
 3.279039e-02  -7.129423e-02  0 
 5.173226e-02  -6.242628e-02  0 
 5.171923e-02  -9.320268e-02  0 
 6.147133e-02  -7.441562e-02  0 
 4.874836e-02  -1.070823e-01  0 
VECTORS displacement_ITER3 FLOAT
 2.301222e-02  -3.497741e-02  0 
 2.310861e-02  -7.189655e-02  0 
 2.295993e-02  -2.776097e-02  0 
 2.297664e-02  -3.133823e-02  0 
 1.234508e-02  -3.484642e-02  0 
 1.586977e-02  -3.485823e-02  0 
 1.941352e-02  -3.490270e-02  0 
 2.304196e-02  -4.427185e-02  0 
 2.308511e-02  -5.350368e-02  0 
 2.310352e-02  -6.267103e-02  0 
 1.241046e-02  -3.207794e-02  0 
 1.788957e-02  -3.238172e-02  0 
 1.480459e-02  -3.034175e-02  0 
 1.936488e-02  -2.963194e-02  0 
 2.051868e-02  -3.263784e-02  0 
 1.126489e-02  -2.696296e-02  0 
 1.605918e-02  -2.947447e-02  0 
 2.114819e-02  -6.847287e-02  0 
 2.927898e-02  -7.870087e-02  0 
 2.228001e-02  -5.274134e-02  0 
 2.194561e-02  -6.087670e-02  0 
 1.846356e-02  -4.843378e-02  0 
 2.371534e-02  -6.752537e-02  0 
 2.146286e-02  -6.207987e-02  0 
 2.074379e-02  -4.394263e-02  0 
 2.137320e-02  -7.309739e-02  0 
 2.106153e-02  -5.174976e-02  0 
 3.024753e-02  -4.449549e-02  0 
 3.023752e-02  -5.944118e-02  0 
 3.496573e-02  -5.031823e-02  0 
 2.880972e-02  -6.616833e-02  0 
VECTORS displacement_ITER4 FLOAT
 1.642923e-02  -3.868099e-02  0 
 1.654625e-02  -5.822852e-02  0 
 1.637928e-02  -2.363799e-02  0 
 1.639177e-02  -3.112464e-02  0 
 -5.871638e-03  -3.849763e-02  0 
 1.514303e-03  -3.850882e-02  0 
 8.935076e-03  -3.857229e-02  0 
 1.645823e-02  -4.366328e-02  0 
 1.651109e-02  -4.855561e-02  0 
 1.653691e-02  -5.335716e-02  0 
 -5.731213e-03  -3.271591e-02  0 
 5.753184e-03  -3.332215e-02  0 
 -7.045408e-04  -2.907123e-02  0 
 8.846367e-03  -2.757558e-02  0 
 1.125194e-02  -3.384711e-02  0 
 1.287868e-02  -2.325986e-02  0 
 1.513906e-02  -3.134233e-02  0 
 1.220408e-02  -6.172535e-02  0 
 1.272294e-02  -7.251418e-02  0 
 1.378867e-02  -5.015054e-02  0 
 1.387149e-02  -5.503190e-02  0 
 5.306704e-03  -4.765932e-02  0 
 9.914098e-03  -6.151656e-02  0 
 1.108494e-02  -5.789964e-02  0 
 1.061564e-02  -4.529369e-02  0 
 9.810534e-03  -6.841078e-02  0 
 1.062401e-02  -5.015860e-02  0 
 2.028435e-02  -4.380828e-02  0 
 2.027260e-02  -5.167504e-02  0 
 2.275508e-02  -4.687249e-02  0 
 1.953855e-02  -5.519597e-02  0 
VECTORS displacement_ITER5 FLOAT
 2.363101e-02  -2.333291e-02  0 
 2.377179e-02  -3.204382e-02  0 
 2.357740e-02  -8.212495e-03  0 
 2.359004e-02  -1.573164e-02  0 
 1.263534e-03  -2.312315e-02  0 
 8.664274e-03  -2.312976e-02  0 
 1.610586e-02  -2.320220e-02  0 
 2.366331e-02  -2.563309e-02  0 
 2.372552e-02  -2.782381e-02  0 
 2.375770e-02  -2.989964e-02  0 
 1.405220e-03  -1.732663e-02  0 
 1.291209e-02  -1.793235e-02  0 
 6.442632e-03  -1.367169e-02  0 
 1.601201e-02  -1.216892e-02  0 
 1.842701e-02  -1.846482e-02  0 
 2.105246e-02  -7.708256e-03  0 
 2.306394e-02  -1.591379e-02  0 
 1.932567e-02  -3.882733e-02  0 
 8.841150e-03  -5.351431e-02  0 
 2.092583e-02  -3.013385e-02  0 
 2.117374e-02  -3.309712e-02  0 
 1.150655e-02  -2.852651e-02  0 
 1.199222e-02  -3.979462e-02  0 
 1.766789e-02  -3.626628e-02  0 
 1.759626e-02  -2.750979e-02  0 
 1.413915e-02  -4.829306e-02  0 
 1.735738e-02  -3.051574e-02  0 
 2.538596e-02  -2.573332e-02  0 
 2.537031e-02  -2.918530e-02  0 
 2.645365e-02  -2.707577e-02  0 
 2.506807e-02  -3.070238e-02  0 
VECTORS displacement_ITER6 FLOAT
 2.009217e-02  -1.958499e-02  0 
 2.030059e-02  -1.718423e-02  0 
 2.001725e-02  -9.325975e-03  0 
 2.003624e-02  -1.440450e-02  0 
 5.069269e-03  -1.933214e-02  0 
 1.000449e-02  -1.933696e-02  0 
 1.499417e-02  -1.942597e-02  0 
 2.014250e-02  -1.914514e-02  0 
 2.022541e-02  -1.857605e-02  0 
 2.027218e-02  -1.784948e-02  0 
 5.162287e-03  -1.545321e-02  0 
 1.283884e-02  -1.586535e-02  0 
 8.518733e-03  -1.301011e-02  0 
 1.491064e-02  -1.199373e-02  0 
 1.654625e-02  -1.624229e-02  0 
 1.668279e-02  -6.750096e-03  0 
 1.831945e-02  -1.294977e-02  0 
 1.732365e-02  -2.538784e-02  0 
 5.103643e-03  -3.993976e-02  0 
 1.862702e-02  -2.117010e-02  0 
 1.885397e-02  -2.180265e-02  0 
 1.192854e-02  -2.103220e-02  0 
 1.033332e-02  -2.801535e-02  0 
 1.636649e-02  -2.493124e-02  0 
 1.619818e-02  -2.101581e-02  0 
 1.254544e-02  -3.483366e-02  0 
 1.612359e-02  -2.195285e-02  0 
 1.971915e-02  -1.921025e-02  0 
 1.970000e-02  -1.813591e-02  0 
 1.934908e-02  -1.878750e-02  0 
 1.984403e-02  -1.759095e-02  0 
VECTORS displacement_ITER7 FLOAT
 1.249610e-02  -1.659077e-02  0 
 1.277794e-02  -8.415899e-03  0 
 1.240119e-02  -1.037581e-02  0 
 1.242614e-02  -1.342608e-02  0 
 3.567065e-03  -1.630936e-02  0 
 6.455622e-03  -1.631454e-02  0 
 9.410700e-03  -1.641554e-02  0 
 1.256583e-02  -1.473056e-02  0 
 1.266729e-02  -1.273355e-02  0 
 1.272991e-02  -1.054625e-02  0 
 3.619107e-03  -1.402342e-02  0 
 8.117693e-03  -1.427415e-02  0 
 5.580321e-03  -1.258670e-02  0 
 9.337475e-03  -1.197189e-02  0 
 1.032650e-02  -1.451929e-02  0 
 8.358699e-03  -5.665903e-03  0 
 9.551227e-03  -1.044235e-02  0 
 1.114552e-02  -1.570982e-02  0 
 5.816039e-03  -2.286389e-02  0 
 1.189878e-02  -1.501963e-02  0 
 1.215693e-02  -1.410247e-02  0 
 8.108723e-03  -1.568748e-02  0 
 7.859331e-03  -1.755350e-02  0 
 1.081727e-02  -1.650492e-02  0 
 1.031796e-02  -1.638931e-02  0 
 8.992992e-03  -2.134758e-02  0 
 1.050477e-02  -1.583662e-02  0 
 1.103365e-02  -1.478436e-02  0 
 1.101612e-02  -1.136053e-02  0 
 9.918342e-03  -1.344609e-02  0 
 1.139727e-02  -9.740679e-03  0 
VECTORS displacement_ITER8 FLOAT
 1.153368e-02  -9.224259e-03  0 
 1.184688e-02  -8.121242e-03  0 
 1.143014e-02  -3.585790e-03  0 
 1.145808e-02  -6.345186e-03  0 
 3.465093e-03  -8.940885e-03  0 
 6.063368e-03  -8.944109e-03  0 
 8.730168e-03  -9.046360e-03  0 
 1.161101e-02  -9.137949e-03  0 
 1.171872e-02  -8.915609e-03  0 
 1.178791e-02  -8.492374e-03  0 
 3.512532e-03  -6.879538e-03  0 
 7.560100e-03  -7.105256e-03  0 
 5.276898e-03  -5.583644e-03  0 
 8.659168e-03  -5.025917e-03  0 
 9.556610e-03  -7.331188e-03  0 
 6.725279e-03  1.472163e-03  0 
 7.993929e-03  -2.865716e-03  0 
 9.900320e-03  -1.195133e-02  0 
 2.409102e-03  -1.463156e-02  0 
 1.041992e-02  -9.648434e-03  0 
 1.070284e-02  -1.003773e-02  0 
 6.339867e-03  -9.261988e-03  0 
 4.765682e-03  -1.099828e-02  0 
 8.706143e-03  -1.075255e-02  0 
 9.087267e-03  -9.483158e-03  0 
 6.720321e-03  -1.528872e-02  0 
 8.745087e-03  -9.748689e-03  0 
 1.146385e-02  -9.233489e-03  0 
 1.144479e-02  -8.688159e-03  0 
 1.125936e-02  -9.015987e-03  0 
 1.155013e-02  -8.362281e-03  0 
VECTORS displacement_ITER9 FLOAT
 9.591793e-03  -1.192903e-02  0 
 9.946543e-03  -1.381488e-02  0 
 9.474829e-03  -7.651693e-03  0 
 9.506414e-03  -9.728445e-03  0 
 3.600928e-03  -1.161775e-02  0 
 5.488204e-03  -1.162524e-02  0 
 7.462067e-03  -1.173999e-02  0 
 9.679325e-03  -1.260189e-02  0 
 9.795786e-03  -1.313822e-02  0 
 9.873966e-03  -1.345564e-02  0 
 3.632374e-03  -1.010982e-02  0 
 6.583124e-03  -1.027718e-02  0 
 4.913800e-03  -9.159134e-03  0 
 7.391871e-03  -8.730561e-03  0 
 8.073351e-03  -1.046039e-02  0 
 6.694748e-03  -1.840309e-03  0 
 6.928127e-03  -6.260972e-03  0 
 8.507371e-03  -1.405873e-02  0 
 6.175559e-03  -6.313553e-03  0 
 8.242508e-03  -1.250994e-02  0 
 8.712426e-03  -1.307556e-02  0 
 5.287656e-03  -1.152164e-02  0 
 5.229153e-03  -9.392912e-03  0 
 6.755447e-03  -1.187238e-02  0 
 7.319747e-03  -1.200292e-02  0 
 6.813375e-03  -1.195477e-02  0 
 6.851966e-03  -1.197021e-02  0 
 1.012610e-02  -1.272116e-02  0 
 1.010480e-02  -1.339641e-02  0 
 1.030740e-02  -1.297880e-02  0 
 1.009527e-02  -1.361215e-02  0 
VECTORS displacement_ITER10 FLOAT
 7.173456e-03  -3.835569e-03  0 
 7.535726e-03  -9.935068e-03  0 
 7.055379e-03  2.433127e-03  0 
 7.087605e-03  -6.406313e-04  0 
 -1.801398e-03  -3.519970e-03  0 
 1.077743e-03  -3.529008e-03  0 
 4.047079e-03  -3.645789e-03  0 
 7.258866e-03  -5.556404e-03  0 
 7.373235e-03  -7.146163e-03  0 
 7.454160e-03  -8.521004e-03  0 
 -1.750731e-03  -1.239345e-03  0 
 2.743932e-03  -1.483751e-03  0 
 2.081169e-04  2.023601e-04  0 
 3.968374e-03  8.306058e-04  0 
 4.970471e-03  -1.734475e-03  0 
 6.558667e-03  6.561237e-03  0 
 6.463297e-03  1.315812e-03  0 
 4.801201e-03  -8.462511e-03  0 
 4.809698e-04  2.702681e-03  0 
 4.730904e-03  -5.713210e-03  0 
 5.205596e-03  -7.053300e-03  0 
 2.457018e-04  -4.163221e-03  0 
 -4.423355e-04  -1.764881e-03  0 
 2.109650e-03  -4.982997e-03  0 
 3.576248e-03  -4.361221e-03  0 
 1.866799e-03  -4.797782e-03  0 
 2.551834e-03  -4.794381e-03  0 
 8.525551e-03  -5.694380e-03  0 
 8.505740e-03  -8.090387e-03  0 
 9.251791e-03  -6.622854e-03  0 
 8.331618e-03  -9.083508e-03  0 
VECTORS displacement_ITER11 FLOAT
 5.161695e-03  -7.027952e-03  0 
 5.535341e-03  -7.544746e-03  0 
 5.032833e-03  -4.645343e-03  0 
 5.068954e-03  -5.773954e-03  0 
 2.047643e-03  -6.682266e-03  0 
 2.959282e-03  -6.697310e-03  0 
 3.975804e-03  -6.826460e-03  0 
 5.250020e-03  -7.359802e-03  0 
 5.367392e-03  -7.557832e-03  0 
 5.450250e-03  -7.533389e-03  0 
 2.056782e-03  -5.935730e-03  0 
 3.499849e-03  -6.027588e-03  0 
 2.674609e-03  -5.461851e-03  0 
 3.906210e-03  -5.220242e-03  0 
 4.287235e-03  -6.153399e-03  0 
 4.775872e-03  -7.025517e-04  0 
 4.463971e-03  -3.970275e-03  0 
 3.886273e-03  -6.911945e-03  0 
 1.779121e-03  2.062767e-03  0 
 3.920739e-03  -6.511492e-03  0 
 4.181333e-03  -6.636348e-03  0 
 2.075143e-03  -6.016019e-03  0 
 1.080769e-03  -2.668234e-03  0 
 2.414410e-03  -5.120267e-03  0 
 3.519342e-03  -6.405674e-03  0 
 2.255679e-03  -3.828824e-03  0 
 2.840427e-03  -5.987394e-03  0 
 5.432041e-03  -7.473035e-03  0 
 5.411461e-03  -7.598691e-03  0 
 5.437972e-03  -7.516730e-03  0 
 5.458286e-03  -7.564606e-03  0 
VECTORS displacement_ITER12 FLOAT
 4.039854e-03  -1.902371e-04  0 
 4.399443e-03  -1.448082e-03  0 
 3.910935e-03  3.290874e-03  0 
 3.948009e-03  1.612856e-03  0 
 -7.254242e-04  1.571373e-04  0 
 7.363686e-04  1.403443e-04  0 
 2.305047e-03  1.104856e-05  0 
 4.123778e-03  -7.015222e-04  0 
 4.237364e-03  -1.079749e-03  0 
 4.316740e-03  -1.243351e-03  0 
 -7.060776e-04  1.331430e-03  0 
 1.594084e-03  1.196689e-03  0 
 2.875774e-04  2.078020e-03  0 
 2.230947e-03  2.429254e-03  0 
 2.788785e-03  1.033308e-03  0 
 3.649861e-03  5.233893e-03  0 
 3.711952e-03  2.560012e-03  0 
 1.805477e-03  -1.596752e-03  0 
 -5.428050e-03  2.716551e-03  0 
 2.442747e-03  -1.885670e-04  0 
 2.543384e-03  -6.583382e-04  0 
 -5.423504e-04  2.043494e-04  0 
 -3.457237e-03  1.389398e-03  0 
 1.820382e-04  3.700952e-04  0 
 1.856441e-03  2.272010e-04  0 
 -1.653195e-03  -9.054252e-04  0 
 8.709360e-04  2.031410e-04  0 
 4.445357e-03  -8.148639e-04  0 
 4.424948e-03  -1.239555e-03  0 
 4.545681e-03  -9.750091e-04  0 
 4.442071e-03  -1.345857e-03  0 
VECTORS displacement_ITER13 FLOAT
 3.889029e-03  -1.008590e-03  0 
 4.254276e-03  -1.125423e-04  0 
 3.750874e-03  2.845407e-03  0 
 3.791765e-03  9.831932e-04  0 
 -1.426418e-03  -6.434639e-04  0 
 2.108996e-04  -6.657036e-04  0 
 1.963801e-03  -8.012250e-04  0 
 3.976490e-03  -9.859663e-04  0 
 4.093539e-03  -8.260740e-04  0 
 4.172850e-03  -4.462369e-04  0 
 -1.406090e-03  6.660380e-04  0 
 1.172223e-03  5.166677e-04  0 
 -2.921833e-04  1.501223e-03  0 
 1.885358e-03  1.891566e-03  0 
 2.505053e-03  3.388052e-04  0 
 3.043549e-03  3.512545e-03  0 
 3.293612e-03  1.711500e-03  0 
 1.775737e-03  -1.199484e-03  0 
 -2.989904e-03  2.521252e-03  0 
 2.438930e-03  -4.847557e-04  0 
 2.535096e-03  -4.904361e-04  0 
 -4.453283e-04  -4.915103e-04  0 
 -2.179180e-03  8.635562e-04  0 
 4.599718e-04  -7.248901e-05  0 
 1.747336e-03  -5.606007e-04  0 
 -8.599443e-04  -7.439376e-04  0 
 9.751608e-04  -3.514278e-04  0 
 3.880378e-03  -1.091782e-03  0 
 3.859231e-03  -6.339009e-04  0 
 3.700936e-03  -9.077393e-04  0 
 3.962536e-03  -3.423378e-04  0 
VECTORS displacement_ITER14 FLOAT
 2.321108e-03  -6.579170e-04  0 
 2.685044e-03  2.686770e-03  0 
 2.173190e-03  1.566448e-03  0 
 2.218500e-03  5.208636e-04  0 
 -5.508402e-04  -2.787037e-04  0 
 2.673535e-04  -3.057421e-04  0 
 1.205806e-03  -4.466374e-04  0 
 2.411455e-03  -1.960653e-05  0 
 2.529923e-03  7.560039e-04  0 
 2.607120e-03  1.749339e-03  0 
 -5.483801e-04  3.914733e-04  0 
 7.590624e-04  3.027019e-04  0 
 6.202139e-06  8.220073e-04  0 
 1.130626e-03  1.048172e-03  0 
 1.491548e-03  1.769651e-04  0 
 2.211136e-04  1.313235e-03  0 
 9.869410e-04  1.178168e-03  0 
 4.861711e-04  2.871917e-04  0 
 -3.312299e-03  -2.160793e-03  0 
 1.650028e-03  3.592645e-04  0 
 1.444799e-03  8.067428e-04  0 
 1.762926e-05  -6.436838e-04  0 
 -1.807058e-03  -1.239599e-03  0 
 2.448355e-04  -5.572219e-05  0 
 1.283265e-03  -1.804343e-04  0 
 -1.651622e-03  -1.656251e-03  0 
 7.617459e-04  -5.027679e-05  0 
 1.836108e-03  -1.143924e-04  0 
 1.817291e-03  1.346638e-03  0 
 1.340123e-03  4.599150e-04  0 
 2.018357e-03  2.086077e-03  0 
VECTORS displacement_ITER15 FLOAT
 3.237036e-03  -6.633654e-04  0 
 3.605909e-03  8.079054e-04  0 
 3.081070e-03  2.623568e-03  0 
 3.129622e-03  1.047803e-03  0 
 -1.224494e-03  -2.713266e-04  0 
 1.171260e-04  -3.029049e-04  0 
 1.585712e-03  -4.488844e-04  0 
 3.331217e-03  -4.925507e-04  0 
 3.451887e-03  -1.849811e-04  0 
 3.528780e-03  3.415025e-04  0 
 -1.213353e-03  8.060081e-04  0 
 9.115877e-04  6.749603e-04  0 
 -3.017633e-04  1.495579e-03  0 
 1.504482e-03  1.830025e-03  0 
 2.038000e-03  5.126685e-04  0 
 1.548450e-03  1.386430e-03  0 
 2.297619e-03  1.250000e-03  0 
 1.152617e-03  -1.083507e-03  0 
 -2.846584e-04  -2.292012e-03  0 
 2.295865e-03  -5.637164e-04  0 
 2.105600e-03  -4.125783e-04  0 
 2.631503e-04  -1.431528e-03  0 
 -3.139260e-04  -2.273421e-03  0 
 7.927516e-04  -1.300524e-03  0 
 1.756464e-03  -7.489185e-04  0 
 -4.947144e-04  -2.256590e-03  0 
 1.247048e-03  -9.338716e-04  0 
 3.122458e-03  -5.987721e-04  0 
 3.103669e-03  1.044173e-04  0 
 2.867670e-03  -3.196267e-04  0 
 3.231363e-03  5.000068e-04  0 
VECTORS displacement_ITER16 FLOAT
 2.092670e-03  -1.589960e-03  0 
 2.467182e-03  -1.859473e-03  0 
 1.930400e-03  1.266549e-03  0 
 1.981526e-03  -9.309781e-05  0 
 -1.721749e-03  -1.189793e-03  0 
 -6.001045e-04  -1.223913e-03  0 
 6.525453e-04  -1.373564e-03  0 
 2.189724e-03  -1.854384e-03  0 
 2.311622e-03  -1.983839e-03  0 
 2.388794e-03  -1.892636e-03  0 
 -1.715669e-03  -2.838373e-04  0 
 6.920220e-05  -3.990734e-04  0 
 -9.544423e-04  2.971982e-04  0 
 5.716504e-04  5.895728e-04  0 
 1.037701e-03  -5.477830e-04  0 
 4.942257e-04  -1.952777e-04  0 
 1.237291e-03  4.651083e-05  0 
 2.535233e-04  -2.774799e-03  0 
 1.214067e-03  -2.478234e-03  0 
 1.233226e-03  -2.130383e-03  0 
 1.039374e-03  -2.217498e-03  0 
 -3.784181e-04  -2.898147e-03  0 
 -1.051487e-04  -3.652980e-03  0 
 -5.941996e-05  -2.882921e-03  0 
 8.146292e-04  -1.985041e-03  0 
 -7.064838e-04  -2.929322e-03  0 
 3.522527e-04  -2.407933e-03  0 
 2.322547e-03  -1.970661e-03  0 
 2.302745e-03  -1.975793e-03  0 
 2.292651e-03  -1.966967e-03  0 
 2.361181e-03  -1.900007e-03  0 
VECTORS displacement_ITER17 FLOAT
 1.035551e-03  -1.184267e-03  0 
 1.414752e-03  -3.053430e-03  0 
 8.676037e-04  6.840168e-04  0 
 9.211029e-04  -1.810491e-04  0 
 -1.298521e-03  -7.806317e-04  0 
 -6.741685e-04  -8.156742e-04  0 
 8.500678e-05  -9.676008e-04  0 
 1.135706e-03  -1.845256e-03  0 
 1.258409e-03  -2.375310e-03  0 
 1.335643e-03  -2.685573e-03  0 
 -1.302471e-03  -2.619939e-04  0 
 -2.888792e-04  -3.379335e-04  0 
 -8.802730e-04  7.447884e-05  0 
 7.290726e-06  2.698373e-04  0 
 3.162981e-04  -4.538945e-04  0 
 -3.982485e-04  -7.107437e-04  0 
 2.785704e-04  -1.264425e-05  0 
 -2.986229e-04  -2.978442e-03  0 
 1.633439e-03  -1.212496e-03  0 
 3.980287e-04  -2.157483e-03  0 
 2.453670e-04  -2.510393e-03  0 
 -6.885710e-04  -2.580714e-03  0 
 -2.427364e-04  -3.150405e-03  0 
 -6.056857e-04  -2.727431e-03  0 
 1.582190e-04  -1.653894e-03  0 
 -8.321850e-04  -2.323518e-03  0 
 -2.517706e-04  -2.234392e-03  0 
 1.581357e-03  -1.970460e-03  0 
 1.562117e-03  -2.626836e-03  0 
 1.758875e-03  -2.220319e-03  0 
 1.557098e-03  -2.846234e-03  0 
VECTORS displacement_ITER18 FLOAT
 7.043669e-04  -8.130030e-04  0 
 1.081504e-03  -2.785907e-03  0 
 5.323843e-04  -3.738488e-04  0 
 5.877207e-04  -5.252080e-04  0 
 5.068636e-04  -4.123112e-04  0 
 4.172121e-04  -4.459830e-04  0 
 4.642067e-04  -5.983447e-04  0 
 8.069805e-04  -1.487212e-03  0 
 9.288681e-04  -2.038588e-03  0 
 1.004569e-03  -2.379323e-03  0 
 4.894775e-04  -4.495414e-04  0 
 3.933973e-04  -4.680018e-04  0 
 4.248512e-04  -4.644944e-04  0 
 3.916333e-04  -4.106187e-04  0 
 4.730214e-04  -5.361884e-04  0 
 1.158576e-04  -1.340488e-03  0 
 4.928769e-04  -4.946192e-04  0 
 -1.753604e-04  -2.810491e-03  0 
 -3.296674e-04  -3.434261e-03  0 
 5.279648e-04  -1.755282e-03  0 
 3.204420e-04  -2.233194e-03  0 
 -4.859869e-05  -2.000033e-03  0 
 -7.888349e-04  -3.551017e-03  0 
 -2.072883e-04  -2.478996e-03  0 
 4.981537e-04  -1.088386e-03  0 
 -1.044727e-03  -3.360541e-03  0 
 1.447184e-04  -1.793698e-03  0 
 1.268860e-03  -1.611912e-03  0 
 1.255008e-03  -2.309037e-03  0 
 1.462215e-03  -1.878842e-03  0 
 1.246735e-03  -2.552803e-03  0 
VECTORS displacement_ITER19 FLOAT
 2.717047e-04  -1.121881e-03  0 
 6.510163e-04  -3.482224e-03  0 
 9.910426e-05  -5.355501e-04  0 
 1.546301e-04  -7.616922e-04  0 
 -1.499214e-04  -7.248563e-04  0 
 -1.644323e-04  -7.571412e-04  0 
 -4.329696e-05  -9.089502e-04  0 
 3.751930e-04  -1.886873e-03  0 
 4.965695e-04  -2.533900e-03  0 
 5.727306e-04  -2.974198e-03  0 
 -1.652522e-04  -7.028488e-04  0 
 -1.456327e-04  -7.266708e-04  0 
 -1.790821e-04  -6.808570e-04  0 
 -1.165014e-04  -6.119829e-04  0 
 -1.082150e-05  -7.993272e-04  0 
 9.848804e-04  -9.640279e-04  0 
 8.600317e-04  -9.291897e-04  0 
 -1.824318e-04  -2.983471e-03  0 
 1.516822e-03  -1.539520e-03  0 
 1.115066e-04  -2.172072e-03  0 
 4.353094e-05  -2.635426e-03  0 
 -3.514172e-04  -2.165071e-03  0 
 -5.068078e-05  -2.901348e-03  0 
 -3.572231e-04  -2.594743e-03  0 
 1.962309e-05  -1.485920e-03  0 
 -3.633183e-04  -2.417143e-03  0 
 -1.907577e-04  -2.087607e-03  0 
 9.111521e-04  -2.012581e-03  0 
 9.002942e-04  -2.869175e-03  0 
 1.156662e-03  -2.342692e-03  0 
 8.772566e-04  -3.186789e-03  0 
VECTORS displacement_ITER20 FLOAT
 6.450562e-04  -1.060279e-03  0 
 1.027384e-03  -3.432476e-03  0 
 4.720932e-04  -6.018487e-04  0 
 5.279380e-04  -7.644428e-04  0 
 4.059626e-04  -6.699053e-04  0 
 3.332256e-04  -7.000234e-04  0 
 3.928981e-04  -8.495101e-04  0 
 7.494932e-04  -1.824742e-03  0 
 8.710887e-04  -2.473960e-03  0 
 9.478751e-04  -2.918590e-03  0 
 3.903851e-04  -6.928798e-04  0 
 3.174705e-04  -7.114112e-04  0 
 3.365875e-04  -6.999550e-04  0 
 3.209343e-04  -6.445668e-04  0 
 4.062341e-04  -7.790419e-04  0 
 1.609522e-03  -6.305823e-04  0 
 1.325342e-03  -9.040855e-04  0 
 4.975739e-04  -2.723465e-03  0 
 2.265832e-03  -8.395901e-04  0 
 5.584012e-04  -2.061194e-03  0 
 5.673440e-04  -2.502400e-03  0 
 1.962948e-04  -1.867951e-03  0 
 6.796328e-04  -2.313530e-03  0 
 2.573114e-04  -2.297434e-03  0 
 4.536634e-04  -1.380579e-03  0 
 4.909964e-04  -1.876076e-03  0 
 3.250512e-04  -1.896662e-03  0 
 1.286787e-03  -1.950396e-03  0 
 1.278403e-03  -2.812534e-03  0 
 1.535283e-03  -2.283753e-03  0 
 1.255525e-03  -3.133809e-03  0 
VECTORS displacement_ITER21 FLOAT
 1.070640e-03  -8.186192e-04  0 
 1.457496e-03  -1.850421e-03  0 
 8.956045e-04  -7.374313e-04  0 
 9.528140e-04  -7.107219e-04  0 
 1.377718e-03  -4.388736e-04  0 
 1.127600e-03  -4.657766e-04  0 
 1.004480e-03  -6.107796e-04  0 
 1.177242e-03  -1.245727e-03  0 
 1.300324e-03  -1.558693e-03  0 
 1.377586e-03  -1.667992e-03  0 
 1.359913e-03  -6.002936e-04  0 
 1.008405e-03  -6.032248e-04  0 
 1.185262e-03  -6.950460e-04  0 
 9.355403e-04  -6.786182e-04  0 
 9.603987e-04  -6.569906e-04  0 
 1.102935e-03  -5.774236e-04  0 
 1.054996e-03  -5.334522e-04  0 
 1.080853e-03  -1.774570e-03  0 
 7.599733e-04  -2.140343e-03  0 
 1.178983e-03  -1.332516e-03  0 
 1.175270e-03  -1.585491e-03  0 
 8.532544e-04  -1.214883e-03  0 
 5.133119e-04  -2.083842e-03  0 
 9.504730e-04  -1.606975e-03  0 
 1.091641e-03  -8.657837e-04  0 
 6.435684e-04  -2.063059e-03  0 
 1.000754e-03  -1.250810e-03  0 
 1.452544e-03  -1.365802e-03  0 
 1.446961e-03  -1.680659e-03  0 
 1.528970e-03  -1.486988e-03  0 
 1.478158e-03  -1.756609e-03  0 
VECTORS displacement_ITER22 FLOAT
 1.251697e-03  -1.273424e-03  0 
 1.644822e-03  -1.616375e-03  0 
 1.073863e-03  -6.736716e-04  0 
 1.132595e-03  -9.058146e-04  0 
 7.652998e-04  -9.006500e-04  0 
 7.831233e-04  -9.256379e-04  0 
 9.235696e-04  -1.067552e-03  0 
 1.360477e-03  -1.526383e-03  0 
 1.484868e-03  -1.666868e-03  0 
 1.563042e-03  -1.604037e-03  0 
 7.535930e-04  -8.536092e-04  0 
 8.162757e-04  -8.766253e-04  0 
 7.615801e-04  -8.165538e-04  0 
 8.535659e-04  -7.493232e-04  0 
 9.620391e-04  -9.466996e-04  0 
 1.211182e-03  -4.693244e-04  0 
 1.184253e-03  -7.121604e-04  0 
 1.258985e-03  -1.778172e-03  0 
 1.294517e-03  -1.978976e-03  0 
 1.279866e-03  -1.594311e-03  0 
 1.326831e-03  -1.688733e-03  0 
 7.454067e-04  -1.514418e-03  0 
 8.145695e-04  -2.087808e-03  0 
 1.060718e-03  -1.805813e-03  0 
 1.072680e-03  -1.305242e-03  0 
 9.591702e-04  -1.965171e-03  0 
 1.034500e-03  -1.553276e-03  0 
 1.501740e-03  -1.643895e-03  0 
 1.498255e-03  -1.677924e-03  0 
 1.490492e-03  -1.656215e-03  0 
 1.557592e-03  -1.628407e-03  0 
VECTORS displacement_ITER23 FLOAT
 1.316949e-03  -1.431529e-03  0 
 1.718780e-03  -2.776286e-03  0 
 1.135543e-03  -2.179240e-04  0 
 1.196083e-03  -7.566519e-04  0 
 -1.041066e-04  -1.063864e-03  0 
 2.272235e-04  -1.087931e-03  0 
 6.784858e-04  -1.227654e-03  0 
 1.428540e-03  -1.932903e-03  0 
 1.554384e-03  -2.324614e-03  0 
 1.634021e-03  -2.512937e-03  0 
 -1.091220e-04  -7.729055e-04  0 
 4.396280e-04  -8.196687e-04  0 
 1.126791e-04  -5.812364e-04  0 
 6.069538e-04  -4.529261e-04  0 
 8.146026e-04  -9.092674e-04  0 
 1.432354e-03  -3.524797e-05  0 
 1.373082e-03  -6.269381e-04  0 
 1.279719e-03  -2.426246e-03  0 
 2.621920e-03  -8.943378e-04  0 
 1.142142e-03  -2.137697e-03  0 
 1.257920e-03  -2.360944e-03  0 
 3.781399e-04  -1.894747e-03  0 
 1.211761e-03  -2.045658e-03  0 
 8.734354e-04  -2.268785e-03  0 
 8.304828e-04  -1.693733e-03  0 
 1.283534e-03  -1.693383e-03  0 
 7.931726e-04  -2.004143e-03  0 
 1.766188e-03  -2.056505e-03  0 
 1.764376e-03  -2.498843e-03  0 
 1.885730e-03  -2.228313e-03  0 
 1.784854e-03  -2.634218e-03  0 
VECTORS displacement_ITER24 FLOAT
 1.140207e-03  -1.185357e-03  0 
 1.555177e-03  -3.767407e-03  0 
 9.517772e-04  -4.565705e-04  0 
 1.015836e-03  -7.519740e-04  0 
 4.235477e-04  -8.250184e-04  0 
 5.217072e-04  -8.478842e-04  0 
 7.375359e-04  -9.847568e-04  0 
 1.257354e-03  -1.990596e-03  0 
 1.385947e-03  -2.691522e-03  0 
 1.467396e-03  -3.190582e-03  0 
 4.146736e-04  -7.166087e-04  0 
 6.000488e-04  -7.432892e-04  0 
 4.778718e-04  -6.394905e-04  0 
 6.691718e-04  -5.593933e-04  0 
 8.004076e-04  -8.153913e-04  0 
 7.543028e-04  -1.943527e-04  0 
 8.580191e-04  -4.909060e-04  0 
 1.161614e-03  -3.066005e-03  0 
 2.024386e-03  -2.060708e-03  0 
 1.067373e-03  -2.333836e-03  0 
 1.140650e-03  -2.830529e-03  0 
 4.509718e-04  -1.921790e-03  0 
 9.095884e-04  -2.685889e-03  0 
 8.210832e-04  -2.644704e-03  0 
 8.463381e-04  -1.572966e-03  0 
 1.035227e-03  -2.553949e-03  0 
 7.817305e-04  -2.125264e-03  0 
 1.836722e-03  -2.122605e-03  0 
 1.839067e-03  -3.067707e-03  0 
 2.118324e-03  -2.491400e-03  0 
 1.812235e-03  -3.432179e-03  0 
VECTORS displacement_ITER25 FLOAT
 1.188406e-03  -1.123126e-03  0 
 1.609725e-03  -2.992943e-03  0 
 9.957148e-04  -7.064077e-04  0 
 1.061922e-03  -8.452140e-04  0 
 9.299557e-04  -7.651786e-04  0 
 8.756100e-04  -7.874835e-04  0 
 9.385174e-04  -9.234040e-04  0 
 1.308624e-03  -1.746285e-03  0 
 1.438776e-03  -2.268084e-03  0 
 1.520935e-03  -2.589940e-03  0 
 9.184347e-04  -7.763549e-04  0 
 8.665022e-04  -7.897796e-04  0 
 8.779211e-04  -7.739967e-04  0 
 8.717514e-04  -7.244672e-04  0 
 9.536290e-04  -8.510023e-04  0 
 8.738416e-04  -3.905401e-04  0 
 9.662849e-04  -6.471669e-04  0 
 1.218137e-03  -2.756625e-03  0 
 8.371275e-04  -3.522365e-03  0 
 1.254235e-03  -2.041474e-03  0 
 1.278264e-03  -2.459489e-03  0 
 7.259335e-04  -1.740851e-03  0 
 6.004918e-04  -3.011600e-03  0 
 1.028765e-03  -2.492188e-03  0 
 1.071177e-03  -1.385024e-03  0 
 7.952836e-04  -3.122644e-03  0 
 1.017922e-03  -1.914562e-03  0 
 1.748657e-03  -1.875864e-03  0 
 1.754485e-03  -2.530011e-03  0 
 1.940155e-03  -2.132325e-03  0 
 1.756812e-03  -2.765272e-03  0 
VECTORS displacement_ITER26 FLOAT
 8.364696e-04  -1.534396e-03  0 
 1.264523e-03  -2.947987e-03  0 
 6.413550e-04  -5.278287e-04  0 
 7.087143e-04  -9.609765e-04  0 
 -3.072095e-04  -1.174416e-03  0 
 -6.690828e-05  -1.197167e-03  0 
 2.907835e-04  -1.333577e-03  0 
 9.586661e-04  -2.043801e-03  0 
 1.090483e-03  -2.452008e-03  0 
 1.173939e-03  -2.659083e-03  0 
 -3.129701e-04  -9.563678e-04  0 
 9.306173e-05  -9.929075e-04  0 
 -1.527535e-04  -8.086881e-04  0 
 2.216070e-04  -6.997498e-04  0 
 3.982575e-04  -1.073800e-03  0 
 9.946052e-04  -3.084434e-04  0 
 9.427225e-04  -9.452960e-04  0 
 8.397400e-04  -2.724548e-03  0 
 1.891938e-03  -2.145198e-03  0 
 7.624763e-04  -2.309471e-03  0 
 8.509312e-04  -2.573094e-03  0 
 1.249872e-04  -2.075793e-03  0 
 8.172829e-04  -2.644128e-03  0 
 5.512181e-04  -2.586501e-03  0 
 4.719486e-04  -1.835229e-03  0 
 8.036525e-04  -2.387626e-03  0 
 4.714343e-04  -2.200462e-03  0 
 1.310690e-03  -2.172405e-03  0 
 1.318062e-03  -2.640446e-03  0 
 1.444389e-03  -2.356999e-03  0 
 1.339112e-03  -2.791618e-03  0 
VECTORS displacement_ITER27 FLOAT
 9.948452e-04  -1.712057e-03  0 
 1.426376e-03  -2.620558e-03  0 
 7.969710e-04  -6.625820e-04  0 
 8.659031e-04  -1.116294e-03  0 
 -2.202132e-04  -1.353365e-03  0 
 4.458163e-05  -1.375714e-03  0 
 4.259771e-04  -1.511300e-03  0 
 1.119014e-03  -2.093478e-03  0 
 1.252098e-03  -2.374404e-03  0 
 1.335768e-03  -2.455124e-03  0 
 -2.251560e-04  -1.116749e-03  0 
 2.185159e-04  -1.154570e-03  0 
 -4.818445e-05  -9.568550e-04  0 
 3.571268e-04  -8.434097e-04  0 
 5.408080e-04  -1.236612e-03  0 
 9.339141e-04  -7.148052e-04  0 
 1.000799e-03  -1.148118e-03  0 
 9.359540e-04  -2.674028e-03  0 
 1.114633e-03  -2.676880e-03  0 
 9.142222e-04  -2.290842e-03  0 
 9.979622e-04  -2.489386e-03  0 
 1.833675e-04  -2.109541e-03  0 
 5.367108e-04  -2.737134e-03  0 
 6.373089e-04  -2.566620e-03  0 
 6.048201e-04  -1.910139e-03  0 
 6.484372e-04  -2.692170e-03  0 
 5.821154e-04  -2.214061e-03  0 
 1.372346e-03  -2.220650e-03  0 
 1.381769e-03  -2.481179e-03  0 