# vtk DataFile Version 3.1
this is an vtk file created by FEMAC
ASCII
DATASET UNSTRUCTURED_GRID
POINTS 21 FLOAT
0.000000 1.000000 0.000000
0.000000 2.000000 0.000000
1.000000 2.000000 0.000000
0.333333 1.000000 0.000000
0.666667 1.000000 0.000000
0.333333 2.000000 0.000000
0.666667 2.000000 0.000000
0.000000 1.333333 0.000000
0.000000 1.666667 0.000000
0.000000 2.333333 0.000000
0.480477 0.680774 0.000000
0.207486 0.777989 0.000000
0.811821 0.672442 0.000000
0.293653 1.601785 0.000000
0.586533 1.401885 0.000000
0.673964 1.728155 0.000000
0.295077 1.249124 0.000000
0.528710 1.177328 0.000000
0.156747 1.817113 0.000000
0.478822 2.249935 0.000000
0.209278 2.252241 0.000000
CELLS 24 96 
3 4  3 10
3 11  3  0
3 11 10  3
3 10 12  4
3 6 15  2
3 3 16  0
3 16  7  0
3 7 13  8
3 7 16 13
3 14 13 16
3 15 13 14
3 17  3  4
3 17 14 16
3 3 17 16
3 5 15  6
3 15  5 13
3 5 18 13
3 8 18  1
3 18  8 13
3 18  5  1
3 6 19  5
3 5 20  1
3 20  9  1
3 20  5 19
CELL_TYPES 24
5 5 5 5 5 5 5 5 5 5 5 5 5 5 5 5 5 5 5 5 5 5 5 5 
POINT_DATA 21
VECTORS displacement_ITER1 FLOAT
 0  0  0 
 0  0  0 
 3.827014e-02  -1.360074e-01  0 
 3.481028e-04  2.655635e-01  0 
 4.591808e-04  5.318883e-01  0 
 -5.801760e-04  -8.248516e-04  0 
 -7.197646e-04  -2.035432e-03  0 
 0  0  0 
 0  0  0 
 0  0  0 
 2.556251e-01  3.834786e-01  0 
 1.775730e-01  1.654165e-01  0 
 2.627829e-01  6.487993e-01  0 
 -2.225392e-02  5.415786e-02  0 
 2.012705e-03  1.298172e-01  0 
 -8.781303e-03  3.390427e-02  0 
 -3.491594e-02  1.408737e-01  0 
 -2.086645e-03  2.806220e-01  0 
 -1.165039e-02  1.802011e-02  0 
 1.053686e-05  -1.266123e-03  0 
 8.132235e-05  -1.794587e-04  0 
VECTORS displacement_ITER2 FLOAT
 0  0  0 
 0  0  0 
 1.692269e-02  -1.799992e-01  0 
 -4.639183e-04  2.445277e-03  0 
 -6.466839e-04  5.991232e-03  0 
 -5.617865e-04  -8.197826e-04  0 
 -7.207322e-04  -2.254138e-03  0 
 0  0  0 
 0  0  0 
 0  0  0 
 3.054876e-03  4.081915e-03  0 
 1.758227e-03  1.154113e-03  0 
 3.366590e-03  8.003583e-03  0 
 -8.239655e-03  -9.666553e-03  0 
 -2.991192e-03  -4.190921e-03  0 
 -2.881007e-02  4.974208e-04  0 
 -1.704801e-03  -3.130411e-03  0 
 -1.021758e-04  4.464213e-04  0 
 -9.116757e-04  -1.139826e-03  0 
 1.460400e-04  -1.322640e-03  0 
 1.150775e-04  -1.929717e-04  0 
VECTORS displacement_ITER3 FLOAT
 0  0  0 
 0  0  0 
 -1.006759e-03  -8.224204e-04  0 
 -3.968197e-04  -7.790180e-04  0 
 -5.505531e-04  -6.070984e-04  0 
 -4.058270e-04  -5.232286e-04  0 
 -6.386333e-04  -1.224835e-03  0 
 0  0  0 
 0  0  0 
 0  0  0 
 -7.083205e-05  -6.084522e-04  0 
 -3.774692e-04  -8.055190e-04  0 
 1.660297e-04  -2.891444e-05  0 
 7.616730e-05  -3.559597e-03  0 
 -9.906524e-05  -4.441211e-03  0 
 -9.472448e-04  -3.216626e-03  0 
 -5.500492e-04  -2.737869e-03  0 
 -9.120326e-05  -2.477409e-03  0 
 2.805276e-04  -1.522271e-03  0 
 -1.121895e-04  -6.450284e-04  0 
 3.002851e-05  -7.471285e-05  0 
VECTORS displacement_ITER4 FLOAT
 0  0  0 
 0  0  0 
 -6.620671e-04  -1.044523e-03  0 
 -1.983405e-04  -2.564863e-05  0 
 -4.116748e-04  -3.205568e-04  0 
 -3.849102e-04  -5.024895e-04  0 
 -6.362099e-04  -1.164510e-03  0 
 0  0  0 
 0  0  0 
 0  0  0 
 -3.485355e-04  -2.156076e-04  0 
 -1.877335e-04  -6.785014e-05  0 
 -4.251692e-04  -3.500430e-04  0 
 -1.614723e-04  -3.506699e-03  0 
 -4.856993e-04  -4.370133e-03  0 
 -1.277723e-03  -3.581836e-03  0 
 -7.304186e-04  -2.595849e-03  0 
 -1.400489e-04  -2.130045e-03  0 
 2.293459e-04  -1.442322e-03  0 
 -1.058063e-04  -6.128389e-04  0 
 -6.500077e-06  -1.190360e-04  0 
VECTORS displacement_ITER5 FLOAT
 0  0  0 
 0  0  0 
 -2.480953e-04  -7.065248e-04  0 
 1.330420e-06  -1.570391e-04  0 
 -1.821289e-04  -5.662640e-04  0 
 -2.659734e-04  -3.538462e-04  0 
 -4.610291e-04  -6.864712e-04  0 
 0  0  0 
 0  0  0 
 0  0  0 
 -1.995224e-04  -4.064026e-04  0 
 -5.639122e-05  -6.921923e-05  0 
 -2.690555e-04  -6.830169e-04  0 
 -5.824429e-05  -3.372660e-03  0 
 -4.278112e-04  -4.204362e-03  0 
 -1.067954e-03  -3.140652e-03  0 
 -6.509255e-04  -2.632384e-03  0 
 -1.084128e-04  -2.238275e-03  0 
 2.845613e-04  -1.371286e-03  0 
 -1.656774e-04  -3.583416e-04  0 
 -6.157548e-05  -1.198193e-04  0 
VECTORS displacement_ITER6 FLOAT
 0  0  0 
 0  0  0 
 -6.264507e-04  -1.161512e-03  0 
 -6.167837e-05  -1.568362e-04  0 
 -2.905607e-04  -4.444303e-04  0 
 -2.196330e-04  -3.137643e-04  0 
 -3.464548e-04  -4.657245e-04  0 
 0  0  0 
 0  0  0 
 0  0  0 
 -1.724250e-04  -3.934932e-04  0 
 -5.199553e-05  -1.265080e-04  0 
 -2.913802e-04  -6.375714e-04  0 
 -1.273315e-04  -3.208754e-03  0 
 -6.375631e-04  -3.921019e-03  0 
 -1.089596e-03  -2.912398e-03  0 
 -7.447472e-04  -2.551409e-03  0 
 -4.126737e-04  -2.209902e-03  0 
 2.665836e-04  -1.294167e-03  0 
 -1.699962e-04  -3.171387e-04  0 
 -5.964470e-05  -1.153540e-04  0 
VECTORS displacement_ITER7 FLOAT
 0  0  0 
 0  0  0 
 -4.275000e-04  -9.352057e-04  0 
 -6.444354e-05  -1.332695e-04  0 
 -2.967455e-04  -4.085589e-04  0 
 -2.431235e-04  -3.248136e-04  0 
 -4.006264e-04  -5.351116e-04  0 
 0  0  0 
 0  0  0 
 0  0  0 
 -1.725276e-04  -3.726961e-04  0 
 -4.606283e-05  -1.117947e-04  0 
 -2.763061e-04  -6.060599e-04  0 
 -8.778354e-05  -3.217558e-03  0 
 -5.259028e-04  -3.890811e-03  0 
 -1.025144e-03  -2.889142e-03  0 
 -7.071154e-04  -2.517166e-03  0 
 -3.969187e-04  -2.241092e-03  0 
 2.688087e-04  -1.313631e-03  0 
 -1.844214e-04  -3.183310e-04  0 
 -6.442614e-05  -1.058766e-04  0 
VECTORS displacement_ITER8 FLOAT
 0  0  0 
 0  0  0 
 -5.440542e-04  -1.043326e-03  0 
 -6.069877e-05  -1.389112e-04  0 
 -2.945522e-04  -4.109729e-04  0 
 -2.462189e-04  -3.331894e-04  0 
 -4.055575e-04  -5.941819e-04  0 
 0  0  0 
 0  0  0 
 0  0  0 
 -1.692708e-04  -3.821413e-04  0 
 -4.398620e-05  -1.145224e-04  0 
 -2.856871e-04  -6.232695e-04  0 
 -9.583407e-05  -3.223253e-03  0 
 -5.158104e-04  -3.870137e-03  0 
 -1.018423e-03  -2.951173e-03  0 
 -7.067705e-04  -2.510450e-03  0 
 -4.204246e-04  -2.244403e-03  0 
 2.659695e-04  -1.315872e-03  0 
 -1.557661e-04  -3.491302e-04  0 
 -5.455999e-05  -1.105384e-04  0 
VECTORS displacement_ITER9 FLOAT
 0  0  0 
 0  0  0 
 -5.377816e-04  -1.039818e-03  0 
 -6.097298e-05  -1.395954e-04  0 
 -2.961899e-04  -4.097370e-04  0 
 -2.433492e-04  -3.301261e-04  0 
 -4.014724e-04  -5.851880e-04  0 
 0  0  0 
 0  0  0 
 0  0  0 
 -1.677712e-04  -3.832630e-04  0 
 -4.380372e-05  -1.148464e-04  0 
 -2.830290e-04  -6.184391e-04  0 
 -9.497550e-05  -3.228310e-03  0 
 -5.096601e-04  -3.879425e-03  0 
 -1.025607e-03  -2.950148e-03  0 
 -7.036946e-04  -2.512690e-03  0 
 -4.050922e-04  -2.235872e-03  0 
 2.678739e-04  -1.315949e-03  0 
 -1.554022e-04  -3.447043e-04  0 
 -5.500599e-05  -1.109370e-04  0 
CELL_DATA 24
TENSORS element_stresses FLOAT
 -6.469514e-01  -6.162569e-01  0 
 -6.162569e-01  1.956648e-01  0 
 0  0  0 

 -1.594998e-01  -3.018717e-01  0 
 -3.018717e-01  7.806390e-02  0 
 0  0  0 

 -3.180814e-01  -5.394587e-01  0 
 -5.394587e-01  2.755641e-01  0 
 0  0  0 

 -2.801260e-01  -6.908270e-01  0 
 -6.908270e-01  2.422166e-01  0 
 0  0  0 

 2.406583e-03  7.085052e-04  0 
 7.085052e-04  9.385034e-03  0 
 0  0  0 

 -3.362575e-03  -2.328312e-03  0 
 -2.328312e-03  -1.059885e-02  0 
 0  0  0 

 -2.620642e-03  -6.550288e-03  0 
 -6.550288e-03  -7.861925e-04  0 
 0  0  0 

 -3.554145e-04  -8.456619e-03  0 
 -8.456619e-03  -1.066243e-04  0 
 0  0  0 

 -2.762813e-03  -5.681949e-03  0 
 -5.681949e-03  -2.894790e-03  0 
 0  0  0 

 -9.358041e-04  -1.456160e-03  0 
 -1.456160e-03  -2.324541e-03  0 
 0  0  0 

 -1.358216e-03  -9.631461e-04  0 
 -9.631461e-04  2.503958e-03  0 
 0  0  0 

 -4.378260e-03  -1.518100e-03  0 
 -1.518100e-03  -1.224203e-02  0 
 0  0  0 

 -1.173385e-03  -1.325204e-03  0 
 -1.325204e-03  -7.417146e-03  0 
 0  0  0 

 -2.673272e-03  -3.331117e-03  0 
 -3.331117e-03  -1.060858e-02  0 
 0  0  0 

 2.339967e-03  1.167696e-03  0 
 1.167696e-03  9.381122e-03  0 
 0  0  0 

 -1.837813e-04  -1.444503e-03  0 
 -1.444503e-03  7.396656e-03  0 
 0  0  0 

 -6.036576e-04  -1.749018e-03  0 
 -1.749018e-03  7.314062e-03  0 
 0  0  0 

 1.877979e-03  -6.457988e-03  0 
 -6.457988e-03  5.633937e-04  0 
 0  0  0 

 7.879375e-04  -6.758578e-03  0 
 -6.758578e-03  2.436862e-03  0 
 0  0  0 

 1.290035e-03  -2.369827e-03  0 
 -2.369827e-03  6.733608e-03  0 
 0  0  0 

 -3.936732e-01  -1.055183e-01  0 
 -1.055183e-01  2.689880e-01  0 
 0  0  0 

 -6.763540e-01  -4.636510e-01  0 
 -4.636510e-01  1.789789e-01  0 
 0  0  0 

 -2.888324e-01  -4.077652e-01  0 
 -4.077652e-01  -8.664972e-02  0 
 0  0  0 

 -2.575121e-01  -2.289174e-01  0 
 -2.289174e-01  3.670474e-01  0 
 0  0  0 

TENSORS element_stresses FLOAT
 -6.469514e-01  -6.162569e-01  0 
 -6.162569e-01  1.956648e-01  0 
 0  0  0 

 -1.594998e-01  -3.018717e-01  0 
 -3.018717e-01  7.806390e-02  0 
 0  0  0 

 -3.180814e-01  -5.394587e-01  0 
 -5.394587e-01  2.755641e-01  0 
 0  0  0 

 -2.801260e-01  -6.908270e-01  0 
 -6.908270e-01  2.422166e-01  0 
 0  0  0 

 2.406583e-03  7.085052e-04  0 
 7.085052e-04  9.385034e-03  0 
 0  0  0 

 -3.362575e-03  -2.328312e-03  0 
 -2.328312e-03  -1.059885e-02  0 
 0  0  0 

 -2.620642e-03  -6.550288e-03  0 
 -6.550288e-03  -7.861925e-04  0 
 0  0  0 

 -3.554145e-04  -8.456619e-03  0 
 -8.456619e-03  -1.066243e-04  0 
 0  0  0 

 -2.762813e-03  -5.681949e-03  0 
 -5.681949e-03  -2.894790e-03  0 
 0  0  0 

 -9.358041e-04  -1.456160e-03  0 
 -1.456160e-03  -2.324541e-03  0 
 0  0  0 

 -1.358216e-03  -9.631461e-04  0 
 -9.631461e-04  2.503958e-03  0 
 0  0  0 

 -4.378260e-03  -1.518100e-03  0 
 -1.518100e-03  -1.224203e-02  0 
 0  0  0 

 -1.173385e-03  -1.325204e-03  0 
 -1.325204e-03  -7.417146e-03  0 
 0  0  0 

 -2.673272e-03  -3.331117e-03  0 
 -3.331117e-03  -1.060858e-02  0 
 0  0  0 

 2.339967e-03  1.167696e-03  0 
 1.167696e-03  9.381122e-03  0 
 0  0  0 

 -1.837813e-04  -1.444503e-03  0 
 -1.444503e-03  7.396656e-03  0 
 0  0  0 

 -6.036576e-04  -1.749018e-03  0 
 -1.749018e-03  7.314062e-03  0 
 0  0  0 

 1.877979e-03  -6.457988e-03  0 
 -6.457988e-03  5.633937e-04  0 
 0  0  0 

 7.879375e-04  -6.758578e-03  0 
 -6.758578e-03  2.436862e-03  0 
 0  0  0 

 1.290035e-03  -2.369827e-03  0 
 -2.369827e-03  6.733608e-03  0 
 0  0  0 

 -3.936732e-01  -1.055183e-01  0 
 -1.055183e-01  2.689880e-01  0 
 0  0  0 

 -6.763540e-01  -4.636510e-01  0 
 -4.636510e-01  1.789789e-01  0 
 0  0  0 

 -2.888324e-01  -4.077652e-01  0 
 -4.077652e-01  -8.664972e-02  0 
 0  0  0 

 -2.575121e-01  -2.289174e-01  0 
 -2.289174e-01  3.670474e-01  0 
 0  0  0 

