# vtk DataFile Version 3.1
this is an vtk file created by FEMAC
ASCII
DATASET UNSTRUCTURED_GRID
POINTS 31 FLOAT
5.000000 2.000000 0.000000
4.500000 2.000000 0.000000
4.750000 2.000000 0.000000
5.000000 1.500000 0.000000
5.000000 1.750000 0.000000
5.000000 2.250000 0.000000
5.000000 2.500000 0.000000
5.000000 2.750000 0.000000
5.250000 2.000000 0.000000
4.654136 1.816702 0.000000
4.789602 1.627399 0.000000
4.544074 1.619719 0.000000
4.840801 1.845599 0.000000
4.674167 2.178356 0.000000
4.500000 2.225000 0.000000
4.828194 2.341416 0.000000
4.808128 2.581646 0.000000
4.399662 2.398247 0.000000
4.630720 2.401594 0.000000
4.507893 2.661856 0.000000
4.761003 2.832250 0.000000
4.850472 2.153954 0.000000
5.194695 1.661595 0.000000
5.155217 1.845050 0.000000
5.325972 2.178472 0.000000
5.171968 2.341551 0.000000
5.216647 2.581177 0.000000
5.399662 2.398247 0.000000
5.507893 2.661856 0.000000
5.245757 2.832172 0.000000
5.149588 2.154005 0.000000
CELLS 43 172 
3 1 9 2
3 4 10  3
3 11 10  9
3 2 12  0
3 12  4  0
3 12  2  9
3 12 10  4
3 9 10 12
3 13  1  2
3 13 14  1
3 13 18 14
3 15  5  6
3 7 16  6
3 15 18 13
3 17 14 18
3 21  2  0
3 5 21  0
3 2 21 13
3 20 16  7
3 15 21  5
3 15 13 21
3 15  6 16
3 15 16 18
3 17 18 19
3 19 18 16
3 19 16 20
3 22  4  3
3 4 23  0
3 23  8  0
3 22 23  4
3 5 25  6
3 26  7  6
3 27 25 24
3 30  5  0
3 30  8 24
3 8 30  0
3 26 29  7
3 30 25  5
3 24 25 30
3 6 25 26
3 26 25 27
3 27 28 26
3 26 28 29
CELL_TYPES 43
5 5 5 5 5 5 5 5 5 5 5 5 5 5 5 5 5 5 5 5 5 5 5 5 5 5 5 5 5 5 5 5 5 5 5 5 5 5 5 5 5 5 5 
POINT_DATA 31
VECTORS displacement_ITER1 FLOAT
 -5.971389e-02  -3.126114e-01  0 
 -5.973686e-02  -2.841151e-01  0 
 -5.972366e-02  -2.983412e-01  0 
 -8.055045e-02  -3.127804e-01  0 
 -7.018889e-02  -3.127278e-01  0 
 -4.552619e-02  -3.125594e-01  0 
 -3.133568e-02  -3.125539e-01  0 
 -1.713814e-02  -3.125599e-01  0 
 -5.967158e-02  -3.232530e-01  0 
 -6.112544e-02  -2.822857e-01  0 
 -7.192605e-02  -2.970390e-01  0 
 -6.847493e-02  -2.472614e-01  0 
 -6.292850e-02  -3.000279e-01  0 
 -4.958545e-02  -2.940404e-01  0 
 -4.693874e-02  -2.841340e-01  0 
 -4.033306e-02  -3.027956e-01  0 
 -2.669948e-02  -3.016487e-01  0 
 -3.710526e-02  -2.784381e-01  0 
 -3.691501e-02  -2.915680e-01  0 
 -2.214901e-02  -2.845871e-01  0 
 -1.248044e-02  -2.989770e-01  0 
 -5.096597e-02  -3.040730e-01  0 
 -7.387012e-02  -3.208339e-01  0 
 -6.624303e-02  -3.191910e-01  0 
 -4.873812e-02  -3.430385e-01  0 
 -4.132123e-02  -3.306172e-01  0 
 -2.697912e-02  -3.385480e-01  0 
 -3.785956e-02  -3.568112e-01  0 
 -1.462146e-02  -3.867789e-01  0 
 -1.520566e-03  -3.519636e-01  0 
 -5.271438e-02  -3.239567e-01  0 
VECTORS displacement_ITER2 FLOAT
 -2.151749e-02  -2.527453e-01  0 
 -2.154375e-02  -2.325544e-01  0 
 -2.153058e-02  -2.426246e-01  0 
 -4.140857e-02  -2.529312e-01  0 
 -3.151213e-02  -2.528743e-01  0 
 -1.149999e-02  -2.526698e-01  0 
 -1.489257e-03  -2.526481e-01  0 
 8.520054e-03  -2.526495e-01  0 
 -2.146622e-02  -2.629264e-01  0 
 -2.382490e-02  -2.293860e-01  0 
 -3.327554e-02  -2.409021e-01  0 
 -3.110054e-02  -2.012836e-01  0 
 -2.499333e-02  -2.432322e-01  0 
 -1.435811e-02  -2.395853e-01  0 
 -1.248972e-02  -2.325803e-01  0 
 -7.830125e-03  -2.457693e-01  0 
 1.781870e-03  -2.449521e-01  0 
 -5.553379e-03  -2.285658e-01  0 
 -5.417355e-03  -2.378366e-01  0 
 4.988560e-03  -2.329113e-01  0 
 1.180339e-02  -2.430685e-01  0 
 -1.533280e-02  -2.466841e-01  0 
 -3.503023e-02  -2.606172e-01  0 
 -2.775009e-02  -2.590379e-01  0 
 -1.460335e-02  -2.771395e-01  0 
 -9.006401e-03  -2.670944e-01  0 
 6.906127e-04  -2.730451e-01  0 
 -7.180774e-03  -2.873894e-01  0 
 7.728550e-03  -3.092301e-01  0 
 1.806589e-02  -2.820713e-01  0 
 -1.683749e-02  -2.624058e-01  0 
VECTORS displacement_ITER3 FLOAT
 -2.919820e-02  -1.719110e-01  0 
 -2.923591e-02  -1.549528e-01  0 
 -2.922123e-02  -1.634030e-01  0 
 -5.813357e-02  -1.721030e-01  0 
 -4.368498e-02  -1.720489e-01  0 
 -2.082903e-02  -1.718012e-01  0 
 -1.247484e-02  -1.717554e-01  0 
 -4.133234e-03  -1.717506e-01  0 
 -2.913067e-02  -1.866128e-01  0 
 -3.686375e-02  -1.532981e-01  0 
 -4.817860e-02  -1.621229e-01  0 
 -4.745256e-02  -1.365840e-01  0 
 -3.642314e-02  -1.642746e-01  0 
 -2.320692e-02  -1.608569e-01  0 
 -2.164584e-02  -1.549894e-01  0 
 -1.775725e-02  -1.660259e-01  0 
 -9.744322e-03  -1.653323e-01  0 
 -1.585778e-02  -1.516438e-01  0 
 -1.574177e-02  -1.593911e-01  0 
 -7.071924e-03  -1.552800e-01  0 
 -1.392517e-03  -1.637601e-01  0 
 -2.402236e-02  -1.668090e-01  0 
 -4.881047e-02  -1.833258e-01  0 
 -3.821253e-02  -1.810075e-01  0 
 -2.559459e-02  -1.928620e-01  0 
 -1.935782e-02  -1.836463e-01  0 
 -1.207390e-02  -1.873677e-01  0 
 -1.902352e-02  -1.990286e-01  0 
 -1.145572e-02  -2.104213e-01  0 
 -2.276529e-03  -1.903707e-01  0 
 -2.520630e-02  -1.819139e-01  0 
VECTORS displacement_ITER4 FLOAT
 -2.587885e-02  -1.330558e-01  0 
 -2.591952e-02  -1.184391e-01  0 
 -2.590586e-02  -1.257142e-01  0 
 -5.622939e-02  -1.332890e-01  0 
 -4.107755e-02  -1.332214e-01  0 
 -1.870151e-02  -1.329170e-01  0 
 -1.154591e-02  -1.328537e-01  0 
 -4.410524e-03  -1.328443e-01  0 
 -2.579675e-02  -1.485081e-01  0 
 -3.534714e-02  -1.196144e-01  0 
 -4.518515e-02  -1.265313e-01  0 
 -4.117277e-02  -1.180265e-01  0 
 -3.438253e-02  -1.272520e-01  0 
 -2.073092e-02  -1.235235e-01  0 
 -1.939202e-02  -1.184798e-01  0 
 -1.606245e-02  -1.279563e-01  0 
 -9.206503e-03  -1.273513e-01  0 
 -1.443482e-02  -1.156162e-01  0 
 -1.433419e-02  -1.222610e-01  0 
 -6.919729e-03  -1.187368e-01  0 
 -2.062299e-03  -1.260031e-01  0 
 -2.143138e-02  -1.286451e-01  0 
 -4.645622e-02  -1.450528e-01  0 
 -3.534043e-02  -1.426140e-01  0 
 -2.384519e-02  -1.505255e-01  0 
 -1.768441e-02  -1.425072e-01  0 
 -1.217418e-02  -1.447374e-01  0 
 -1.806704e-02  -1.539322e-01  0 
 -1.587276e-02  -1.576020e-01  0 
 -7.949981e-03  -1.435355e-01  0 
 -2.234750e-02  -1.422949e-01  0 
VECTORS displacement_ITER5 FLOAT
 -3.034986e-02  -9.410603e-02  0 
 -3.039505e-02  -7.694060e-02  0 
 -3.038206e-02  -8.548657e-02  0 
 -5.801522e-02  -9.438359e-02  0 
 -4.421885e-02  -9.430303e-02  0 
 -2.191544e-02  -9.395006e-02  0 
 -1.349478e-02  -9.388209e-02  0 
 -5.090238e-03  -9.387457e-02  0 
 -3.025177e-02  -1.082760e-01  0 
 -3.921743e-02  -8.292319e-02  0 
 -4.620614e-02  -8.972998e-02  0 
 -3.467746e-02  -9.730980e-02  0 
 -3.861681e-02  -8.863861e-02  0 
 -2.430223e-02  -8.290798e-02  0 
 -2.272708e-02  -7.697805e-02  0 
 -1.881199e-02  -8.811810e-02  0 
 -1.074117e-02  -8.740614e-02  0 
 -1.689347e-02  -7.360112e-02  0 
 -1.677791e-02  -8.141898e-02  0 
 -8.046709e-03  -7.726414e-02  0 
 -2.324524e-03  -8.581671e-02  0 
 -2.512582e-02  -8.892779e-02  0 
 -4.912179e-02  -1.050895e-01  0 
 -3.899618e-02  -1.028603e-01  0 
 -2.717074e-02  -1.110229e-01  0 
 -2.044134e-02  -1.035401e-01  0 
 -1.349901e-02  -1.063762e-01  0 
 -2.019157e-02  -1.153282e-01  0 
 -1.536490e-02  -1.212869e-01  0 
 -6.903954e-03  -1.068457e-01  0 
 -2.610109e-02  -1.029118e-01  0 
VECTORS displacement_ITER6 FLOAT
 -2.404971e-02  -6.844228e-02  0 
 -2.409361e-02  -5.192185e-02  0 
 -2.408180e-02  -6.013925e-02  0 
 -4.742261e-02  -6.877485e-02  0 
 -3.579293e-02  -6.867797e-02  0 
 -1.594860e-02  -6.826698e-02  0 
 -7.862580e-03  -6.819334e-02  0 
 2.085300e-04  -6.818660e-02  0 
 -2.394391e-02  -8.052641e-02  0 
 -3.128974e-02  -5.973523e-02  0 
 -3.591102e-02  -6.577919e-02  0 
 -2.070433e-02  -8.118979e-02  0 
 -3.118293e-02  -6.368126e-02  0 
 -1.823660e-02  -5.765873e-02  0 
 -1.672396e-02  -5.195843e-02  0 
 -1.296593e-02  -6.266224e-02  0 
 -5.218024e-03  -6.197324e-02  0 
 -1.112245e-02  -4.871269e-02  0 
 -1.101212e-02  -5.622402e-02  0 
 -2.630218e-03  -5.222768e-02  0 
 2.864953e-03  -6.044499e-02  0 
 -1.902727e-02  -6.344835e-02  0 
 -3.993519e-02  -7.779155e-02  0 
 -3.139059e-02  -7.590013e-02  0 
 -2.053776e-02  -8.265081e-02  0 
 -1.432298e-02  -7.651598e-02  0 
 -7.641957e-03  -7.924940e-02  0 
 -1.369845e-02  -8.652635e-02  0 
 -9.032984e-03  -9.172672e-02  0 
 -1.616047e-03  -7.994545e-02  0 
 -1.979931e-02  -7.589631e-02  0 
VECTORS displacement_ITER7 FLOAT
 -1.265569e-02  -5.040326e-02  0 
 -1.269684e-02  -3.850841e-02  0 
 -1.268428e-02  -4.440664e-02  0 
 -3.487292e-02  -5.075617e-02  0 
 -2.382041e-02  -5.065800e-02  0 
 -6.869777e-03  -5.021419e-02  0 
 -1.110560e-03  -5.013539e-02  0 
 4.630254e-03  -5.012822e-02  0 
 -1.255741e-02  -6.191348e-02  0 
 -1.910045e-02  -4.234103e-02  0 
 -2.506928e-02  -4.693992e-02  0 
 -1.603156e-02  -5.166219e-02  0 
 -1.895509e-02  -4.628213e-02  0 
 -8.492636e-03  -4.263184e-02  0 
 -7.414955e-03  -3.855091e-02  0 
 -4.737129e-03  -4.620517e-02  0 
 7.729782e-04  -4.570298e-02  0 
 -3.426024e-03  -3.624169e-02  0 
 -3.344881e-03  -4.160355e-02  0 
 2.612477e-03  -3.875212e-02  0 
 6.521137e-03  -4.461459e-02  0 
 -9.055726e-03  -4.678528e-02  0 
 -2.775875e-02  -5.932340e-02  0 
 -1.964407e-02  -5.751439e-02  0 
 -1.071481e-02  -6.043671e-02  0 
 -5.774825e-03  -5.591403e-02  0 
 -1.432719e-03  -5.749225e-02  0 
 -5.509549e-03  -6.204631e-02  0 
 -4.541780e-03  -6.261276e-02  0 
 3.124621e-04  -5.622184e-02  0 
 -9.381120e-03  -5.643607e-02  0 
VECTORS displacement_ITER8 FLOAT
 -1.267591e-02  -4.279327e-02  0 
 -1.270863e-02  -3.537112e-02  0 
 -1.269753e-02  -3.902722e-02  0 
 -3.149629e-02  -4.317020e-02  0 
 -2.214938e-02  -4.306797e-02  0 
 -9.124514e-03  -4.259124e-02  0 
 -5.613008e-03  -4.250730e-02  0 
 -2.123472e-03  -4.249927e-02  0 
 -1.258670e-02  -5.261530e-02  0 
 -1.771824e-02  -3.576542e-02  0 
 -2.389008e-02  -3.918151e-02  0 
 -1.978501e-02  -3.549757e-02  0 
 -1.761285e-02  -3.950358e-02  0 
 -1.010383e-02  -3.793289e-02  0 
 -9.445499e-03  -3.541723e-02  0 
 -7.812750e-03  -4.012350e-02  0 
 -4.464670e-03  -3.980167e-02  0 
 -7.015121e-03  -3.401332e-02  0 
 -6.962606e-03  -3.729674e-02  0 
 -3.348849e-03  -3.555229e-02  0 
 -9.732641e-04  -3.913875e-02  0 
 -1.044822e-02  -4.050455e-02  0 
 -2.548554e-02  -5.040924e-02  0 
 -1.862300e-02  -4.886523e-02  0 
 -1.202577e-02  -4.938091e-02  0 
 -8.568373e-03  -4.627840e-02  0 
 -6.366321e-03  -4.707484e-02  0 
 -8.597924e-03  -4.958827e-02  0 
 -1.031413e-02  -4.758947e-02  0 
 -7.606357e-03  -4.478240e-02  0 
 -1.050653e-02  -4.734071e-02  0 
VECTORS displacement_ITER9 FLOAT
 -7.215189e-03  -3.375756e-02  0 
 -7.233556e-03  -2.765356e-02  0 
 -7.227644e-03  -3.064683e-02  0 
 -2.033309e-02  -3.416154e-02  0 
 -1.385440e-02  -3.405189e-02  0 
 -4.317343e-03  -3.354565e-02  0 
 -1.467544e-03  -3.345854e-02  0 
 1.360364e-03  -3.345046e-02  0 
 -7.132326e-03  -4.075201e-02  0 
 -1.049203e-02  -2.817023e-02  0 
 -1.509067e-02  -3.112523e-02  0 
 -1.224072e-02  -2.684681e-02  0 
 -1.058360e-02  -3.120023e-02  0 
 -5.104684e-03  -2.974966e-02  0 
 -4.568556e-03  -2.769642e-02  0 
 -3.246623e-03  -3.153072e-02  0 
 -5.357450e-04  -3.126070e-02  0 
 -2.598386e-03  -2.655833e-02  0 
 -2.555593e-03  -2.922688e-02  0 
 3.661047e-04  -2.780697e-02  0 
 2.291208e-03  -3.072316e-02  0 
 -5.386460e-03  -3.185482e-02  0 
 -1.617780e-02  -3.916711e-02  0 
 -1.141292e-02  -3.807833e-02  0 
 -6.405363e-03  -3.928309e-02  0 
 -3.833752e-03  -3.681539e-02  0 
 -1.919392e-03  -3.787010e-02  0 
 -3.639588e-03  -4.015186e-02  0 
 -4.178677e-03  -4.031499e-02  0 
 -2.064116e-03  -3.701353e-02  0 
 -5.526499e-03  -3.724160e-02  0 
VECTORS displacement_ITER10 FLOAT
 -5.380380e-03  -2.269314e-02  0 
 -5.389339e-03  -1.816739e-02  0 
 -5.386959e-03  -2.037113e-02  0 
 -9.927798e-03  -2.311005e-02  0 
 -7.748191e-03  -2.299666e-02  0 
 -3.264928e-03  -2.248127e-02  0 
 -1.197465e-03  -2.239704e-02  0 
 8.506730e-04  -2.239123e-02  0 
 -5.301508e-03  -2.541804e-02  0 
 -5.927993e-03  -1.925119e-02  0 
 -8.196752e-03  -2.178768e-02  0 
 -6.906379e-03  -1.716272e-02  0 
 -6.407429e-03  -2.121764e-02  0 
 -3.826412e-03  -1.970992e-02  0 
 -3.435719e-03  -1.820503e-02  0 
 -2.481020e-03  -2.100582e-02  0 
 -5.215561e-04  -2.079948e-02  0 
 -2.009007e-03  -1.737920e-02  0 
 -1.978259e-03  -1.932179e-02  0 
 1.290732e-04  -1.828433e-02  0 
 1.523734e-03  -2.041015e-02  0 
 -4.032687e-03  -2.125957e-02  0 
 -8.551264e-03  -2.476880e-02  0 
 -6.934577e-03  -2.436410e-02  0 
 -4.443248e-03  -2.674799e-02  0 
 -2.950153e-03  -2.520139e-02  0 
 -1.429452e-03  -2.660330e-02  0 
 -2.582002e-03  -2.858467e-02  0 
 -1.993984e-03  -3.120076e-02  0 
 -3.881810e-04  -2.731849e-02  0 
 -4.403860e-03  -2.467473e-02  0 
VECTORS displacement_ITER11 FLOAT
 -9.350561e-03  -1.709385e-02  0 
 -9.354311e-03  -1.326146e-02  0 
 -9.354200e-03  -1.511868e-02  0 
 -8.042934e-03  -1.752022e-02  0 
 -8.800848e-03  -1.740289e-02  0 
 -7.578161e-03  -1.688290e-02  0 
 -5.851472e-03  -1.680118e-02  0 
 -4.141474e-03  -1.679671e-02  0 
 -9.272301e-03  -1.690455e-02  0 
 -8.152712e-03  -1.513926e-02  0 
 -8.601454e-03  -1.743705e-02  0 
 -7.890987e-03  -1.361877e-02  0 
 -8.855638e-03  -1.632831e-02  0 
 -8.040502e-03  -1.456001e-02  0 
 -7.713021e-03  -1.329487e-02  0 
 -6.919467e-03  -1.564331e-02  0 
 -5.286742e-03  -1.546459e-02  0 
 -6.523066e-03  -1.260358e-02  0 
 -6.498465e-03  -1.422954e-02  0 
 -4.744754e-03  -1.335663e-02  0 
 -3.579474e-03  -1.513906e-02  0 
 -8.213961e-03  -1.586645e-02  0 
 -8.565648e-03  -1.689129e-02  0 
 -9.098693e-03  -1.695445e-02  0 
 -8.233325e-03  -2.045166e-02  0 
 -7.356282e-03  -1.940490e-02  0 
 -6.009390e-03  -2.102895e-02  0 
 -6.929994e-03  -2.301310e-02  0 
 -5.762758e-03  -2.715174e-02  0 
 -4.142238e-03  -2.251278e-02  0 
 -8.795109e-03  -1.815081e-02  0 
VECTORS displacement_ITER12 FLOAT
 -9.549560e-03  -1.252163e-02  0 
 -9.548480e-03  -8.010960e-03  0 
 -9.550381e-03  -1.020598e-02  0 
 -7.597732e-03  -1.296025e-02  0 
 -8.684910e-03  -1.283760e-02  0 
 -7.436584e-03  -1.230706e-02  0 
 -5.371249e-03  -1.222389e-02  0 
 -3.322176e-03  -1.221840e-02  0 
 -9.472010e-03  -1.202110e-02  0 
 -8.378774e-03  -1.042473e-02  0 
 -8.572967e-03  -1.279351e-02  0 
 -8.203244e-03  -8.920315e-03  0 
 -8.992339e-03  -1.169620e-02  0 
 -7.994799e-03  -9.543172e-03  0 
 -7.603604e-03  -8.042767e-03  0 
 -6.653639e-03  -1.083401e-02  0 
 -4.695608e-03  -1.062691e-02  0 
 -6.179006e-03  -7.214594e-03  0 
 -6.150795e-03  -9.152588e-03  0 
 -4.044435e-03  -8.111128e-03  0 
 -2.647562e-03  -1.023616e-02  0 
 -8.202033e-03  -1.108848e-02  0 
 -8.334932e-03  -1.207335e-02  0 
 -9.104830e-03  -1.218942e-02  0 
 -8.028628e-03  -1.641035e-02  0 
 -7.059623e-03  -1.511855e-02  0 
 -5.402054e-03  -1.676567e-02  0 
 -6.575019e-03  -1.918519e-02  0 
 -5.079435e-03  -2.354685e-02  0 
 -3.041084e-03  -1.814452e-02  0 
 -8.832795e-03  -1.362054e-02  0 
VECTORS displacement_ITER13 FLOAT
 -8.837024e-03  -1.141686e-02  0 
 -8.835444e-03  -9.257976e-03  0 
 -8.837052e-03  -1.027510e-02  0 
 -6.545776e-03  -1.186450e-02  0 
 -7.804479e-03  -1.173800e-02  0 
 -7.900830e-03  -1.119852e-02  0 
 -7.015635e-03  -1.111340e-02  0 
 -6.147676e-03  -1.110655e-02  0 
 -8.760400e-03  -1.075024e-02  0 
 -7.430583e-03  -9.828037e-03  0 
 -7.739492e-03  -1.164102e-02  0 
 -8.832379e-03  -5.138378e-03  0 
 -7.995960e-03  -1.096096e-02  0 
 -8.121322e-03  -9.970435e-03  0 
 -7.950473e-03  -9.291836e-03  0 
 -7.549066e-03  -1.053518e-02  0 
 -6.725321e-03  -1.042214e-02  0 
 -7.343097e-03  -8.937685e-03  0 
 -7.330506e-03  -9.785301e-03  0 
 -6.452407e-03  -9.322891e-03  0 
 -5.860426e-03  -1.025284e-02  0 
 -8.213259e-03  -1.068499e-02  0 
 -7.395663e-03  -1.084223e-02  0 
 -8.289734e-03  -1.098330e-02  0 
 -8.162846e-03  -1.402812e-02  0 
 -7.900164e-03  -1.322941e-02  0 
 -7.483145e-03  -1.441408e-02  0 
 -7.765214e-03  -1.598653e-02  0 
 -8.076882e-03  -1.886456e-02  0 
 -6.800297e-03  -1.501774e-02  0 
 -8.718154e-03  -1.209363e-02  0 
VECTORS displacement_ITER14 FLOAT
 -5.765700e-03  -1.009228e-02  0 
 -5.764661e-03  -9.307081e-03  0 
 -5.765744e-03  -9.634992e-03  0 
 -4.969101e-03  -1.055077e-02  0 
 -5.482406e-03  -1.041978e-02  0 
 -5.518433e-03  -9.869362e-03  0 
 -5.325251e-03  -9.781792e-03  0 
 -5.150141e-03  -9.773451e-03  0 
 -5.688854e-03  -1.017882e-02  0 
 -4.660822e-03  -8.433295e-03  0 
 -5.555234e-03  -9.965892e-03  0 
 -7.350636e-03  -1.641954e-03  0 
 -5.166595e-03  -9.672918e-03  0 
 -5.541216e-03  -9.540432e-03  0 
 -5.499806e-03  -9.343307e-03  0 
 -5.419303e-03  -9.680016e-03  0 
 -5.260776e-03  -9.621443e-03  0 
 -5.371131e-03  -9.266967e-03  0 
 -5.367559e-03  -9.475809e-03  0 
 -5.209246e-03  -9.352083e-03  0 
 -5.089918e-03  -9.581150e-03  0 
 -5.565281e-03  -9.769047e-03  0 
 -5.339585e-03  -1.010722e-02  0 
 -5.684546e-03  -1.012784e-02  0 
 -5.568326e-03  -1.197149e-02  0 
 -5.673296e-03  -1.138978e-02  0 
 -5.999067e-03  -1.219587e-02  0 
 -5.712589e-03  -1.311812e-02  0 
 -7.167532e-03  -1.468672e-02  0 
 -6.499997e-03  -1.224811e-02  0 
 -5.859432e-03  -1.070565e-02  0 
VECTORS displacement_ITER15 FLOAT
 -4.519339e-03  -9.790544e-03  0 
 -4.518531e-03  -8.265160e-03  0 
 -4.520085e-03  -8.962515e-03  0 
 -4.675695e-03  -1.025669e-02  0 
 -4.716152e-03  -1.012193e-02  0 
 -3.903258e-03  -9.565875e-03  0 
 -3.340198e-03  -9.477610e-03  0 
 -2.794867e-03  -9.468605e-03  0 
 -4.440106e-03  -1.036224e-02  0 
 -3.785563e-03  -8.330858e-03  0 
 -4.541693e-03  -9.984117e-03  0 
 -4.799922e-03  -5.012804e-03  0 
 -4.305539e-03  -9.319707e-03  0 
 -4.031774e-03  -8.755267e-03  0 
 -3.921586e-03  -8.300601e-03  0 
 -3.668837e-03  -9.122267e-03  0 
 -3.154702e-03  -9.033184e-03  0 
 -3.536256e-03  -8.074381e-03  0 
 -3.528088e-03  -8.625630e-03  0 
 -2.983490e-03  -8.317945e-03  0 
 -2.611880e-03  -8.921715e-03  0 
 -4.091719e-03  -9.245158e-03  0 
 -4.742354e-03  -1.018056e-02  0 
 -4.736733e-03  -1.012634e-02  0 
 -3.920078e-03  -1.181204e-02  0 
 -3.803516e-03  -1.108352e-02  0 
 -3.821572e-03  -1.176251e-02  0 
 -3.694705e-03  -1.267352e-02  0 
 -5.151265e-03  -1.336386e-02  0 
 -4.487703e-03  -1.138324e-02  0 
 -4.270971e-03  -1.050582e-02  0 
VECTORS displacement_ITER16 FLOAT
 -3.022618e-03  -9.732858e-03  0 
 -3.020225e-03  -7.961589e-03  0 
 -3.023160e-03  -8.781979e-03  0 
 -3.458639e-03  -1.020038e-02  0 
 -3.360490e-03  -1.006463e-02  0 
 -2.283947e-03  -9.506547e-03  0 
 -1.598239e-03  -9.417002e-03  0 
 -9.307429e-04  -9.407424e-03  0 
 -2.942187e-03  -1.044677e-02  0 
 -2.727035e-03  -9.098350e-03  0 
 -3.124056e-03  -1.054942e-02  0 
 -2.529007e-03  -9.286827e-03  0 
 -3.129881e-03  -9.510984e-03  0 
 -2.446802e-03  -8.536119e-03  0 
 -2.313485e-03  -7.995800e-03  0 
 -2.004312e-03  -8.978155e-03  0 
 -1.372716e-03  -8.878674e-03  0 
 -1.843750e-03  -7.719951e-03  0 
 -1.834003e-03  -8.384429e-03  0 
 -1.162369e-03  -8.016085e-03  0 
 -7.070485e-04  -8.743974e-03  0 
 -2.519181e-03  -9.113125e-03  0 
 -3.436163e-03  -1.023205e-02  0 
 -3.327258e-03  -1.015634e-02  0 
 -2.304563e-03  -1.173320e-02  0 
 -2.087653e-03  -1.094800e-02  0 
 -2.015695e-03  -1.149628e-02  0 
 -1.948996e-03  -1.239009e-02  0 
 -3.568012e-03  -1.239728e-02  0 
 -2.930161e-03  -1.071947e-02  0 
 -2.658065e-03  -1.044999e-02  0 
VECTORS displacement_ITER17 FLOAT
 -3.297984e-03  -8.234623e-03  0 
 -3.293057e-03  -6.387085e-03  0 
 -3.297501e-03  -7.245118e-03  0 
 -4.168751e-03  -8.703542e-03  0 
 -3.853446e-03  -8.567322e-03  0 
 -2.521510e-03  -8.005577e-03  0 
 -1.799286e-03  -7.914244e-03  0 
 -1.095732e-03  -7.904085e-03  0 
 -3.217571e-03  -9.166762e-03  0 
 -3.425589e-03  -7.982324e-03  0 
 -3.762477e-03  -9.241308e-03  0 
 -3.051339e-03  -9.574408e-03  0 
 -3.679855e-03  -8.138568e-03  0 
 -2.693863e-03  -6.986735e-03  0 
 -2.553279e-03  -6.420580e-03  0 
 -2.227952e-03  -7.451017e-03  0 
 -1.561866e-03  -7.347858e-03  0 
 -2.058976e-03  -6.130254e-03  0 
 -2.048740e-03  -6.827995e-03  0 
 -1.340491e-03  -6.441802e-03  0 
 -8.604020e-04  -7.206538e-03  0 
 -2.770480e-03  -7.590526e-03  0 
 -4.006042e-03  -8.904092e-03  0 
 -3.737557e-03  -8.793807e-03  0 
 -2.581686e-03  -1.051556e-02  0 
 -2.326124e-03  -9.579620e-03  0 
 -2.157790e-03  -1.014314e-02  0 
 -2.199180e-03  -1.124946e-02  0 
 -3.451144e-03  -1.165776e-02  0 
 -2.703360e-03  -9.565239e-03  0 
 -2.919681e-03  -9.082684e-03  0 
VECTORS displacement_ITER18 FLOAT
 -2.011258e-03  -8.164188e-03  0 
 -2.006228e-03  -7.296950e-03  0 
 -2.010369e-03  -7.663922e-03  0 
 -2.530071e-03  -8.631183e-03  0 
 -2.387840e-03  -8.496169e-03  0 
 -1.724423e-03  -7.935213e-03  0 
 -1.492163e-03  -7.844467e-03  0 
 -1.277988e-03  -7.834272e-03  0 
 -1.932897e-03  -8.914689e-03  0 
 -1.805788e-03  -7.702033e-03  0 
 -2.645342e-03  -8.844360e-03  0 
 -3.564846e-03  -5.646330e-03  0 
 -2.106239e-03  -8.118134e-03  0 
 -1.756815e-03  -7.554994e-03  0 
 -1.707912e-03  -7.330936e-03  0 
 -1.610336e-03  -7.717560e-03  0 
 -1.414720e-03  -7.653948e-03  0 
 -1.552878e-03  -7.237051e-03  0 
 -1.549277e-03  -7.481751e-03  0 
 -1.350262e-03  -7.335602e-03  0 
 -1.203674e-03  -7.604775e-03  0 
 -1.785254e-03  -7.812839e-03  0 
 -2.478769e-03  -8.696797e-03  0 
 -2.339651e-03  -8.612304e-03  0 
 -1.674799e-03  -1.013097e-02  0 
 -1.715521e-03  -9.308534e-03  0 
 -1.938774e-03  -9.773672e-03  0 
 -1.724938e-03  -1.076740e-02  0 
 -3.093279e-03  -1.137493e-02  0 
 -2.582928e-03  -9.339079e-03  0 
 -1.934766e-03  -8.879178e-03  0 
VECTORS displacement_ITER19 FLOAT
 -2.307225e-03  -7.691545e-03  0 
 -2.300753e-03  -6.259286e-03  0 
 -2.305438e-03  -6.908710e-03  0 
 -1.381767e-03  -8.162372e-03  0 
 -1.965499e-03  -8.025115e-03  0 
 -1.735501e-03  -7.464459e-03  0 
 -1.216835e-03  -7.375751e-03  0 
 -7.150855e-04  -7.366192e-03  0 
 -2.230029e-03  -7.723484e-03  0 
 -1.470264e-03  -7.125451e-03  0 
 -1.737008e-03  -8.421883e-03  0 
 -1.854284e-03  -5.758488e-03  0 
 -1.954359e-03  -7.538864e-03  0 
 -1.850073e-03  -6.713336e-03  0 
 -1.747908e-03  -6.291314e-03  0 
 -1.517362e-03  -7.051340e-03  0 
 -1.045872e-03  -6.965353e-03  0 
 -1.394326e-03  -6.081205e-03  0 
 -1.387469e-03  -6.590171e-03  0 
 -8.888408e-04  -6.301989e-03  0 
 -5.461604e-04  -6.861914e-03  0 
 -1.906187e-03  -7.171222e-03  0 
 -1.800552e-03  -7.662640e-03  0 
 -2.191266e-03  -7.693899e-03  0 
 -1.504688e-03  -9.798786e-03  0 
 -1.542370e-03  -8.954957e-03  0 
 -1.419784e-03  -9.550422e-03  0 
 -1.361395e-03  -1.073833e-02  0 
 -2.060446e-03  -1.190057e-02  0 
 -1.435496e-03  -9.425993e-03  0 
 -2.083277e-03  -8.231574e-03  0 
VECTORS displacement_ITER20 FLOAT
 -1.653106e-03  -7.870644e-03  0 
 -1.643933e-03  -6.258317e-03  0 
 -1.649528e-03  -6.997081e-03  0 
 -1.407938e-03  -8.343518e-03  0 
 -1.652165e-03  -8.204919e-03  0 
 -9.893562e-04  -7.642112e-03  0 
 -3.815600e-04  -7.552227e-03  0 
 2.079552e-04  -7.542013e-03  0 
 -1.578850e-03  -8.239465e-03  0 
 -1.153875e-03  -7.115113e-03  0 
 -1.568490e-03  -8.350848e-03  0 
 -1.814141e-03  -5.630752e-03  0 
 -1.527155e-03  -7.624715e-03  0 
 -1.129677e-03  -6.774108e-03  0 
 -1.010732e-03  -6.290266e-03  0 
 -7.384222e-04  -7.167159e-03  0 
 -1.817548e-04  -7.074090e-03  0 
 -5.954930e-04  -6.044879e-03  0 
 -5.872735e-04  -6.635809e-03  0 
 3.566143e-06  -6.304430e-03  0 
 4.061006e-04  -6.954039e-03  0 
 -1.194845e-03  -7.295038e-03  0 
 -1.607958e-03  -8.107682e-03  0 
 -1.748651e-03  -8.084625e-03  0 
 -7.223357e-04  -9.936061e-03  0 
 -6.757376e-04  -9.016193e-03  0 
 -5.040727e-04  -9.427968e-03  0 
 -4.531555e-04  -1.054588e-02  0 
 -1.417094e-03  -1.080214e-02  0 
 -9.162062e-04  -8.802622e-03  0 
 -1.286603e-03  -8.436845e-03  0 
VECTORS displacement_ITER21 FLOAT
 -9.035759e-04  -7.734298e-03  0 
 -8.948285e-04  -6.550308e-03  0 
 -9.001867e-04  -7.074521e-03  0 
 -1.030415e-03  -8.202369e-03  0 
 -1.084449e-03  -8.065617e-03  0 
 -4.535079e-04  -7.506547e-03  0 
 -5.907706e-05  -7.417381e-03  0 
 3.174646e-04  -7.407477e-03  0 
 -8.312674e-04  -8.280238e-03  0 
 -4.616423e-04  -6.811049e-03  0 
 -1.364720e-03  -7.990639e-03  0 
 -2.663054e-03  -3.366715e-03  0 
 -8.083534e-04  -7.492677e-03  0 
 -5.331938e-04  -6.916922e-03  0 
 -4.543298e-04  -6.582373e-03  0 
 -2.809506e-04  -7.178606e-03  0 
 7.101318e-05  -7.103027e-03  0 
 -1.865885e-04  -6.422043e-03  0 
 -1.813938e-04  -6.815988e-03  0 
 1.884684e-04  -6.588460e-03  0 
 4.459558e-04  -7.022851e-03  0 
 -5.771664e-04  -7.286923e-03  0 
 -1.106983e-03  -8.114754e-03  0 
 -1.110610e-03  -8.060069e-03  0 
 -1.680003e-04  -9.495479e-03  0 
 -2.025697e-04  -8.663915e-03  0 
 -2.088903e-04  -8.937489e-03  0 
 -4.199854e-05  -9.864662e-03  0 
 -1.153564e-03  -9.841247e-03  0 
 -8.323534e-04  -8.211267e-03  0 
 -6.190897e-04  -8.251353e-03  0 
VECTORS displacement_ITER22 FLOAT
 -3.272222e-03  -6.808793e-03  0 
 -3.263267e-03  -4.544030e-03  0 
 -3.269446e-03  -5.609294e-03  0 
 -2.478753e-03  -7.275361e-03  0 
 -2.993746e-03  -7.138027e-03  0 
 -2.280610e-03  -6.584174e-03  0 
 -1.340207e-03  -6.497884e-03  0 
 -4.155662e-04  -6.489416e-03  0 
 -3.199350e-03  -6.895072e-03  0 
 -2.522017e-03  -6.070111e-03  0 
 -2.618857e-03  -7.374110e-03  0 
 -1.916084e-03  -6.162901e-03  0 
 -3.008453e-03  -6.473476e-03  0 
 -2.516419e-03  -5.286314e-03  0 
 -2.335907e-03  -4.573033e-03  0 
 -1.909275e-03  -5.882898e-03  0 
 -1.031762e-03  -5.764142e-03  0 
 -1.689976e-03  -4.191191e-03  0 
 -1.678367e-03  -5.089759e-03  0 
 -7.380241e-04  -4.591488e-03  0 
 -1.064455e-04  -5.580484e-03  0 
 -2.613268e-03  -6.039228e-03  0 
 -2.853646e-03  -6.829218e-03  0 
 -3.193908e-03  -6.848279e-03  0 
 -1.955759e-03  -9.039015e-03  0 
 -1.782689e-03  -8.032681e-03  0 
 -1.161220e-03  -8.497396e-03  0 
 -1.391794e-03  -9.837350e-03  0 
 -1.408680e-03  -1.066650e-02  0 
 -7.624348e-04  -8.210263e-03  0 
 -2.706675e-03  -7.318879e-03  0 
VECTORS displacement_ITER23 FLOAT
 -5.520724e-04  -7.120470e-03  0 
 -5.426645e-04  -6.285596e-03  0 
 -5.488506e-04  -6.635105e-03  0 
 -1.408283e-03  -7.577478e-03  0 
 -1.090203e-03  -7.443925e-03  0 
 -2.747889e-04  -6.895189e-03  0 
 -5.133474e-05  -6.807599e-03  0 
 1.551853e-04  -6.798045e-03  0 
 -4.828954e-04  -8.014110e-03  0 
 -3.368420e-04  -6.351251e-03  0 
 -1.472397e-03  -7.310026e-03  0 
 -2.832299e-03  -2.959968e-03  0 
 -6.439794e-04  -6.918197e-03  0 
 -3.058463e-04  -6.529865e-03  0 
 -2.591624e-04  -6.316090e-03  0 
 -1.654346e-04  -6.685683e-03  0 
 2.286753e-05  -6.624499e-03  0 
 -1.099578e-04  -6.222908e-03  0 
 -1.074127e-04  -6.458745e-03  0 
 8.619512e-05  -6.313617e-03  0 
 2.280846e-04  -6.576271e-03  0 
 -3.327542e-04  -6.777947e-03  0 
 -1.243688e-03  -7.780054e-03  0 
 -9.775949e-04  -7.664658e-03  0 
 1.812808e-05  -8.830309e-03  0 
 -5.993372e-05  -7.933354e-03  0 
 -1.163854e-04  -8.065140e-03  0 
 5.701361e-05  -9.024435e-03  0 
 -7.536772e-04  -9.109509e-03  0 
 -5.638182e-04  -7.413480e-03  0 
 -3.249123e-04  -7.689217e-03  0 
VECTORS displacement_ITER24 FLOAT
 -1.527382e-03  -6.492573e-03  0 
 -1.516743e-03  -5.144139e-03  0 
 -1.524077e-03  -5.751181e-03  0 
 -2.261186e-03  -6.941494e-03  0 
 -2.001022e-03  -6.809337e-03  0 
 -9.909823e-04  -6.270598e-03  0 
 -5.057954e-04  -6.184650e-03  0 
 -3.659615e-05  -6.174918e-03  0 
 -1.459873e-03  -7.314907e-03  0 
 -1.330109e-03  -6.011279e-03  0 
 -2.001511e-03  -6.984127e-03  0 
 -1.953698e-03  -5.524633e-03  0 
 -1.675901e-03  -6.297025e-03  0 
 -1.096890e-03  -5.566567e-03  0 
 -1.001411e-03  -5.172054e-03  0 
 -7.864648e-04  -5.882450e-03  0 
 -3.460415e-04  -5.800731e-03  0 
 -6.712444e-04  -4.972684e-03  0 
 -6.655159e-04  -5.449696e-03  0 
 -1.986652e-04  -5.175503e-03  0 
 1.217996e-04  -5.703697e-03  0 
 -1.149289e-03  -5.997358e-03  0 
 -2.133819e-03  -7.099212e-03  0 
 -1.910649e-03  -6.993191e-03  0 
 -7.180458e-04  -8.632226e-03  0 
 -6.702079e-04  -7.534166e-03  0 
 -3.322008e-04  -7.782348e-03  0 
 -4.439768e-04  -9.121862e-03  0 
 -2.728605e-04  -1.009056e-02  0 
 1.005826e-04  -7.619511e-03  0 
 -1.180073e-03  -7.152560e-03  0 
VECTORS displacement_ITER25 FLOAT
 -1.191332e-03  -6.539845e-03  0 
 -1.181537e-03  -5.578406e-03  0 
 -1.188566e-03  -5.992223e-03  0 
 -2.288321e-03  -6.978572e-03  0 
 -1.839505e-03  -6.849474e-03  0 
 -8.474783e-04  -6.320323e-03  0 
 -5.537409e-04  -6.235348e-03  0 
 -2.761472e-04  -6.225104e-03  0 
 -1.126277e-03  -7.528788e-03  0 
 -1.064413e-03  -5.935431e-03  0 
 -2.036090e-03  -6.807176e-03  0 
 -2.585918e-03  -4.181642e-03  0 
 -1.377649e-03  -6.332990e-03  0 
 -8.990931e-04  -5.866503e-03  0 
 -8.396057e-04  -5.606129e-03  0 
 -7.133536e-04  -6.064431e-03  0 
 -4.565088e-04  -5.998717e-03  0 
 -6.420402e-04  -5.483418e-03  0 
 -6.387128e-04  -5.783452e-03  0 
 -3.704878e-04  -5.603655e-03  0 
 -1.810069e-04  -5.938284e-03  0 
 -9.324489e-04  -6.161385e-03  0 
 -2.038102e-03  -7.283157e-03  0 
 -1.680180e-03  -7.145677e-03  0 
 -6.457677e-04  -8.644335e-03  0 
 -6.261599e-04  -7.495997e-03  0 
 -4.344778e-04  -7.613013e-03  0 
 -5.197195e-04  -8.997967e-03  0 
 -4.576687e-04  -9.799405e-03  0 
 -1.353419e-04  -7.290035e-03  0 
 -9.759875e-04  -7.237572e-03  0 
VECTORS displacement_ITER26 FLOAT
 -1.558745e-03  -6.424757e-03  0 
 -1.549752e-03  -5.179562e-03  0 
 -1.556587e-03  -5.735575e-03  0 
 -2.484170e-03  -6.857079e-03  0 
 -2.116776e-03  -6.729651e-03  0 
 -1.072279e-03  -6.207521e-03  0 
 -6.338388e-04  -6.123836e-03  0 
 -2.112004e-04  -6.113236e-03  0 
 -1.495197e-03  -7.318827e-03  0 
 -1.316239e-03  -5.676839e-03  0 
 -2.227052e-03  -6.621719e-03  0 
 -2.500899e-03  -4.135927e-03  0 
 -1.677491e-03  -6.133047e-03  0 
 -1.165635e-03  -5.566627e-03  0 
 -1.079414e-03  -5.206273e-03  0 
 -8.856758e-04  -5.853216e-03  0 
 -4.892052e-04  -5.776289e-03  0 
 -7.814029e-04  -5.024612e-03  0 
 -7.762733e-04  -5.458520e-03  0 
 -3.562046e-04  -5.207174e-03  0 
 -6.838189e-05  -5.688531e-03  0 
 -1.212705e-03  -5.962362e-03  0 
 -2.286044e-03  -7.098245e-03  0 
 -1.989998e-03  -6.972671e-03  0 
 -9.459191e-04  -8.662477e-03  0 
 -8.121421e-04  -7.430129e-03  0 
 -4.545047e-04  -7.528024e-03  0 
 -7.004325e-04  -9.077596e-03  0 
 -4.282537e-04  -9.906032e-03  0 
 2.874851e-05  -7.127882e-03  0 
 -1.296240e-03  -7.138031e-03  0 
VECTORS displacement_ITER27 FLOAT
 -1.487179e-03  -6.625772e-03  0 
 -1.477117e-03  -5.313265e-03  0 
 -1.484400e-03  -5.902505e-03  0 
 -2.499712e-03  -7.055960e-03  0 
 -2.086124e-03  -6.928998e-03  0 