# vtk DataFile Version 3.1
this is an vtk file created by FEMAC
ASCII
DATASET UNSTRUCTURED_GRID
POINTS 31 FLOAT
4.000000 3.000000 0.000000
3.500000 3.000000 0.000000
3.750000 3.000000 0.000000
3.500000 4.000000 0.000000
4.000000 3.250000 0.000000
4.000000 3.500000 0.000000
4.250000 3.000000 0.000000
4.500000 3.000000 0.000000
3.447447 3.528256 0.000000
3.813081 3.669072 0.000000
3.813653 3.331392 0.000000
3.775000 3.500000 0.000000
3.660928 3.805846 0.000000
3.661595 3.194695 0.000000
3.413341 3.323754 0.000000
3.453287 3.717271 0.000000
3.616917 3.404183 0.000000
3.613486 3.598598 0.000000
3.845050 3.155217 0.000000
4.507893 2.661856 0.000000
4.761003 2.832250 0.000000
4.245757 2.832172 0.000000
4.675053 3.181152 0.000000
4.331361 3.185869 0.000000
4.500000 3.225000 0.000000
4.192042 3.332273 0.000000
4.300774 3.567728 0.000000
4.429311 3.390203 0.000000
4.649535 3.397124 0.000000
4.588195 3.700568 0.000000
4.154680 3.153628 0.000000
CELLS 42 168 
3 5 10  4
3 9 11  5
3 11 10  5
3 16 10 11
3 9 17 11
3 2 13  1
3 12 17  9
3 16 13 10
3 16 17  8
3 16 11 17
3 1 13 14
3 16  8 14
3 14 13 16
3 12  3 15
3 8 17 15
3 12 15 17
3 18  2  0
3 18  4 10
3 4 18  0
3 18 13  2
3 10 13 18
3 21  6  0
3 19 20  7
3 21  7  6
3 21 19  7
3 7 23  6
3 22 24  7
3 24 23  7
3 27 23 24
3 22 28 24
3 4 25  5
3 27 25 23
3 27 24 28
3 5 25 26
3 26 25 27
3 30  4  0
3 30  6 23
3 6 30  0
3 30 25  4
3 23 25 30
3 27 29 26
3 27 28 29
CELL_TYPES 42
5 5 5 5 5 5 5 5 5 5 5 5 5 5 5 5 5 5 5 5 5 5 5 5 5 5 5 5 5 5 5 5 5 5 5 5 5 5 5 5 5 5 
POINT_DATA 31
VECTORS displacement_ITER1 FLOAT
 1.046966e-02  -1.915794e-01  0 
 1.047636e-02  -1.793161e-01  0 
 1.047345e-02  -1.854392e-01  0 
 3.468699e-02  -1.793588e-01  0 
 1.657848e-02  -1.915592e-01  0 
 2.266080e-02  -1.915291e-01  0 
 1.046490e-02  -2.341699e-01  0 
 1.046649e-02  -2.767589e-01  0 
 2.333838e-02  -1.780770e-01  0 
 2.674431e-02  -1.869518e-01  0 
 1.856461e-02  -1.869937e-01  0 
 2.265983e-02  -1.860433e-01  0 
 3.003620e-02  -1.832453e-01  0 
 1.523120e-02  -1.832772e-01  0 
 1.836823e-02  -1.772265e-01  0 
 2.790877e-02  -1.782394e-01  0 
 2.033216e-02  -1.821942e-01  0 
 2.504788e-02  -1.821134e-01  0 
 1.426745e-02  -1.877682e-01  0 
 -4.711282e-02  -2.781168e-01  0 
 -1.809720e-02  -3.212558e-01  0 
 -1.811108e-02  -2.334531e-01  0 
 1.054181e-02  -2.801977e-01  0 
 1.733740e-02  -2.411226e-01  0 
 1.684225e-02  -2.620719e-01  0 
 2.083728e-02  -2.185896e-01  0 
 3.609632e-02  -2.391024e-01  0 
 2.596175e-02  -2.525230e-01  0 
 2.632462e-02  -2.737321e-01  0 
 4.049019e-02  -2.722289e-01  0 
 1.604919e-02  -2.149660e-01  0 
VECTORS displacement_ITER2 FLOAT
 1.067597e-02  -1.049029e-01  0 
 1.061680e-02  -9.010741e-02  0 
 1.062670e-02  -9.748714e-02  0 
 4.009329e-02  -9.000810e-02  0 
 1.796680e-02  -1.048459e-01  0 
 2.531306e-02  -1.048437e-01  0 
 1.075486e-02  -1.140790e-01  0 
 1.077281e-02  -1.231475e-01  0 
 2.615874e-02  -8.851996e-02  0 
 3.029593e-02  -9.932889e-02  0 
 2.036243e-02  -9.936120e-02  0 
 2.532010e-02  -9.820804e-02  0 
 3.434082e-02  -9.481416e-02  0 
 1.635480e-02  -9.488195e-02  0 
 2.015105e-02  -8.753014e-02  0 
 3.173580e-02  -8.866747e-02  0 
 2.250739e-02  -9.354183e-02  0 
 2.822549e-02  -9.342686e-02  0 
 1.520639e-02  -1.003117e-01  0 
 -1.422552e-03  -1.234012e-01  0 
 4.737265e-03  -1.325639e-01  0 
 4.682674e-03  -1.139067e-01  0 
 1.899281e-02  -1.417003e-01  0 
 1.574792e-02  -1.199350e-01  0 
 1.916026e-02  -1.302415e-01  0 
 1.994023e-02  -1.148824e-01  0 
 2.871366e-02  -1.247698e-01  0 
 2.374242e-02  -1.301399e-01  0 
 2.645549e-02  -1.422276e-01  0 
 3.291936e-02  -1.461030e-01  0 
 1.458967e-02  -1.118110e-01  0 
VECTORS displacement_ITER3 FLOAT
 -7.357968e-03  -4.050891e-02  0 
 -7.454496e-03  -2.849843e-02  0 
 -7.433461e-03  -3.449156e-02  0 
 1.665524e-02  -2.832459e-02  0 
 -1.479042e-03  -4.047015e-02  0 
 4.489946e-03  -4.049929e-02  0 
 -7.265334e-03  -4.294245e-02  0 
 -7.249674e-03  -4.527597e-02  0 
 5.171277e-03  -2.718423e-02  0 
 8.544711e-03  -3.603774e-02  0 
 4.582781e-04  -3.602791e-02  0 
 4.486121e-03  -3.510064e-02  0 
 1.187733e-02  -3.233578e-02  0 
 -2.791314e-03  -3.238555e-02  0 
 2.882500e-04  -2.639999e-02  0 
 9.738512e-03  -2.726598e-02  0 
 2.196643e-03  -3.129162e-02  0 
 6.850227e-03  -3.119471e-02  0 
 -3.712972e-03  -3.679885e-02  0 
 -1.031972e-02  -4.534045e-02  0 
 -8.772897e-03  -4.765971e-02  0 
 -8.805204e-03  -4.288045e-02  0 
 -4.025299e-04  -5.778225e-02  0 
 -3.277444e-03  -4.543405e-02  0 
 -6.991260e-04  -5.096896e-02  0 
 8.173455e-04  -4.308763e-02  0 
 9.859198e-03  -4.722106e-02  0 
 4.113743e-03  -5.049178e-02  0 
 6.464038e-03  -6.027568e-02  0 
 1.946761e-02  -6.136127e-02  0 
 -4.008824e-03  -4.243476e-02  0 
VECTORS displacement_ITER4 FLOAT
 -5.532504e-03  -1.545675e-02  0 
 -5.624229e-03  -1.120813e-02  0 
 -5.599662e-03  -1.331568e-02  0 
 2.955963e-03  -1.104002e-02  0 
 -3.542364e-03  -1.540334e-02  0 
 -1.477484e-03  -1.543407e-02  0 
 -5.433966e-03  -1.944948e-02  0 
 -5.405387e-03  -2.337645e-02  0 
 -1.251262e-03  -1.074093e-02  0 
 -7.029538e-05  -1.390719e-02  0 
 -2.877926e-03  -1.386654e-02  0 
 -1.488743e-03  -1.355044e-02  0 
 1.140815e-03  -1.257337e-02  0 
 -3.994527e-03  -1.259008e-02  0 
 -2.937898e-03  -1.048192e-02  0 
 3.729299e-04  -1.071960e-02  0 
 -2.283062e-03  -1.220173e-02  0 
 -6.701154e-04  -1.216414e-02  0 
 -4.298029e-03  -1.414507e-02  0 
 -1.065607e-02  -2.352874e-02  0 
 -8.022483e-03  -2.748032e-02  0 
 -8.036243e-03  -1.935104e-02  0 
 -5.382186e-03  -2.402104e-02  0 
 -3.984486e-03  -1.946533e-02  0 
 -4.354487e-03  -2.137726e-02  0 
 -2.186737e-03  -1.644517e-02  0 
 1.390774e-03  -1.594091e-02  0 
 -1.771508e-03  -1.877977e-02  0 
 -2.054171e-03  -2.344714e-02  0 
 5.689083e-03  -1.964483e-02  0 
 -4.009997e-03  -1.715774e-02  0 
VECTORS displacement_ITER5 FLOAT
 -2.834357e-03  -8.023658e-03  0 
 -2.911376e-03  -6.711510e-03  0 
 -2.894394e-03  -7.338474e-03  0 
 -3.394897e-04  -6.547612e-03  0 
 -2.322932e-03  -7.935849e-03  0 
 -1.748352e-03  -7.950327e-03  0 
 -2.757812e-03  -8.742569e-03  0 
 -2.761154e-03  -9.333348e-03  0 
 -1.683679e-03  -6.552326e-03  0 
 -1.348468e-03  -7.526939e-03  0 
 -2.137728e-03  -7.501081e-03  0 
 -1.754417e-03  -7.405677e-03  0 
 -9.638119e-04  -7.102153e-03  0 
 -2.437860e-03  -7.131497e-03  0 
 -2.144922e-03  -6.495154e-03  0 
 -1.199538e-03  -6.500076e-03  0 
 -1.972820e-03  -7.002120e-03  0 
 -1.524626e-03  -6.980553e-03  0 
 -2.509146e-03  -7.603898e-03  0 
 -3.446687e-03  -9.375214e-03  0 
 -3.117390e-03  -9.883379e-03  0 
 -3.132896e-03  -8.727155e-03  0 
 -3.427437e-03  -1.061314e-02  0 
 -2.724588e-03  -8.552873e-03  0 
 -2.987387e-03  -9.123198e-03  0 
 -1.834186e-03  -7.475309e-03  0 
 2.443151e-04  -7.060710e-03  0 
 -1.595992e-03  -8.124921e-03  0 
 -1.070073e-03  -1.146087e-02  0 
 5.041493e-03  -1.108440e-02  0 
 -2.498119e-03  -8.141506e-03  0 
VECTORS displacement_ITER6 FLOAT
 -1.937247e-04  -5.167202e-03  0 
 -2.700662e-04  -4.043510e-03  0 
 -2.587151e-04  -4.583739e-03  0 
 2.120848e-03  -3.834958e-03  0 
 2.427811e-04  -5.118796e-03  0 
 7.629078e-04  -5.159401e-03  0 
 -1.173486e-04  -5.642536e-03  0 
 -1.024855e-04  -6.039966e-03  0 
 8.178013e-04  -3.859960e-03  0 
 1.128038e-03  -4.787918e-03  0 
 4.023891e-04  -4.735902e-03  0 
 7.507604e-04  -4.659235e-03  0 
 1.506609e-03  -4.378742e-03  0 
 1.353295e-04  -4.401669e-03  0 
 4.007491e-04  -3.821043e-03  0 
 1.278954e-03  -3.793666e-03  0 
 5.502096e-04  -4.281887e-03  0 
 9.620796e-04  -4.262020e-03  0 
 7.533219e-05  -4.819983e-03  0 
 -5.483984e-04  -6.045692e-03  0 
 -3.230029e-04  -6.420226e-03  0 
 -3.610868e-04  -5.616722e-03  0 
 -1.435661e-03  -6.712151e-03  0 
 -3.432777e-04  -5.725956e-03  0 
 -8.904768e-04  -5.763298e-03  0 
 3.097631e-04  -5.044924e-03  0 
 8.542551e-04  -4.204996e-03  0 
 -2.014965e-04  -5.100461e-03  0 
 -5.703849e-05  -7.093416e-03  0 
 3.272050e-03  -7.182992e-03  0 
 -5.463766e-05  -5.420239e-03  0 
VECTORS displacement_ITER7 FLOAT
 -1.023344e-04  -4.663723e-03  0 
 -1.955019e-04  -3.439726e-03  0 
 -1.775627e-04  -4.028242e-03  0 
 2.308446e-03  -3.278403e-03  0 
 3.695875e-04  -4.611415e-03  0 
 9.322024e-04  -4.652680e-03  0 
 -1.036752e-05  -5.057706e-03  0 
 2.623365e-05  -5.409233e-03  0 
 9.966119e-04  -3.248662e-03  0 
 1.332182e-03  -4.231803e-03  0 
 5.435981e-04  -4.195528e-03  0 
 9.252582e-04  -4.105450e-03  0 
 1.724867e-03  -3.797942e-03  0 
 2.522567e-04  -3.833164e-03  0 
 5.430340e-04  -3.199912e-03  0 
 1.484816e-03  -3.198473e-03  0 
 7.078639e-04  -3.700617e-03  0 
 1.156371e-03  -3.678952e-03  0 
 1.879243e-04  -4.287690e-03  0 
 -3.994453e-04  -5.414666e-03  0 
 -1.856426e-04  -5.777956e-03  0 
 -2.174449e-04  -5.015211e-03  0 
 4.426116e-04  -5.587912e-03  0 
 3.743589e-04  -5.157299e-03  0 
 5.058011e-04  -5.392908e-03  0 
 6.060708e-04  -5.031232e-03  0 
 1.013505e-03  -5.332483e-03  0 
 8.345685e-04  -5.308582e-03  0 
 8.310208e-04  -5.473065e-03  0 
 1.210412e-03  -5.143783e-03  0 
 2.348524e-04  -4.908510e-03  0 
VECTORS displacement_ITER8 FLOAT
 1.503907e-04  -4.081450e-03  0 
 7.626099e-05  -3.327441e-03  0 
 8.593365e-05  -3.672519e-03  0 
 1.463341e-03  -3.215731e-03  0 
 3.847592e-04  -4.003114e-03  0 
 6.922032e-04  -4.027600e-03  0 
 1.955303e-04  -4.549102e-03  0 
 2.136669e-04  -5.009703e-03  0 
 7.255754e-04  -3.206828e-03  0 
 9.053319e-04  -3.790345e-03  0 
 4.808905e-04  -3.769295e-03  0 
 6.869136e-04  -3.714620e-03  0 
 1.129011e-03  -3.526949e-03  0 
 3.272299e-04  -3.559839e-03  0 
 4.837321e-04  -3.180536e-03  0 
 9.980509e-04  -3.171891e-03  0 
 5.701351e-04  -3.476446e-03  0 
 8.117371e-04  -3.462146e-03  0 
 3.003085e-04  -3.836132e-03  0 
 -3.351497e-04  -5.012394e-03  0 
 -6.164371e-05  -5.472178e-03  0 
 -9.495841e-05  -4.521328e-03  0 
 1.582722e-04  -5.381026e-03  0 
 3.179902e-04  -4.687394e-03  0 
 3.461230e-04  -5.032867e-03  0 
 5.098820e-04  -4.431974e-03  0 
 1.025933e-03  -4.972903e-03  0 
 7.351974e-04  -4.927280e-03  0 
 6.327439e-04  -5.289743e-03  0 
 1.260210e-03  -4.858580e-03  0 
 2.879060e-04  -4.360362e-03  0 
VECTORS displacement_ITER9 FLOAT
 2.419549e-04  -3.983443e-03  0 
 1.657828e-04  -3.228557e-03  0 
 1.815097e-04  -3.572882e-03  0 
 1.385504e-03  -3.186737e-03  0 
 4.732772e-04  -3.887964e-03  0 
 7.587191e-04  -3.889686e-03  0 
 2.954303e-04  -4.465762e-03  0 
 3.069000e-04  -4.895710e-03  0 
 7.910194e-04  -3.146976e-03  0 
 9.475855e-04  -3.667947e-03  0 
 5.693940e-04  -3.662460e-03  0 
 7.579223e-04  -3.603400e-03  0 
 1.118390e-03  -3.445169e-03  0 
 4.224618e-04  -3.465558e-03  0 
 5.763579e-04  -3.097977e-03  0 
 1.008676e-03  -3.136772e-03  0 
 6.571313e-04  -3.385257e-03  0 
 8.655607e-04  -3.376961e-03  0 
 3.951658e-04  -3.732726e-03  0 
 -2.125042e-04  -4.900825e-03  0 
 4.035227e-05  -5.333092e-03  0 
 2.278916e-05  -4.444555e-03  0 
 3.545804e-04  -5.221268e-03  0 
 4.057822e-04  -4.564388e-03  0 
 4.135805e-04  -4.847812e-03  0 
 5.836251e-04  -4.241152e-03  0 
 8.983077e-04  -4.361950e-03  0 
 6.250442e-04  -4.666947e-03  0 
 7.108975e-04  -5.264214e-03  0 
 1.413486e-03  -5.286014e-03  0 
 3.863108e-04  -4.240609e-03  0 
VECTORS displacement_ITER10 FLOAT
 1.829834e-04  -3.927550e-03  0 
 1.093963e-04  -3.097774e-03  0 
 1.255101e-04  -3.476617e-03  0 
 1.455084e-03  -3.091402e-03  0 
 4.557686e-04  -3.827401e-03  0 
 7.801552e-04  -3.822277e-03  0 
 2.418090e-04  -4.391474e-03  0 
 2.558364e-04  -4.800139e-03  0 
 8.135462e-04  -3.006531e-03  0 
 9.882650e-04  -3.577921e-03  0 
 5.662685e-04  -3.571639e-03  0 
 7.782340e-04  -3.503800e-03  0 
 1.163448e-03  -3.347409e-03  0 
 3.981310e-04  -3.355159e-03  0 
 5.798695e-04  -2.940383e-03  0 
 1.033478e-03  -3.007041e-03  0 
 6.686182e-04  -3.262869e-03  0 
 8.931356e-04  -3.256546e-03  0 
 3.635373e-04  -3.649340e-03  0 
 -2.429850e-04  -4.806054e-03  0 
 -1.575616e-06  -5.223867e-03  0 
 -1.539054e-05  -4.368412e-03  0 
 4.404948e-04  -5.158946e-03  0 
 4.213047e-04  -4.502646e-03  0 
 5.060596e-04  -4.830918e-03  0 
 5.874526e-04  -4.251732e-03  0 
 9.772451e-04  -4.619172e-03  0 
 7.656373e-04  -4.728026e-03  0 
 7.797247e-04  -5.099515e-03  0 
 1.211565e-03  -4.914871e-03  0 
 3.610874e-04  -4.189441e-03  0 
VECTORS displacement_ITER11 FLOAT
 1.792971e-04  -3.918049e-03  0 
 1.008221e-04  -3.069103e-03  0 
 1.210819e-04  -3.458897e-03  0 
 1.469158e-03  -3.074153e-03  0 
 4.570112e-04  -3.812112e-03  0 
 7.814111e-04  -3.800240e-03  0 
 2.371205e-04  -4.369479e-03  0 
 2.519629e-04  -4.771748e-03  0 
 8.227723e-04  -2.980452e-03  0 
 9.963630e-04  -3.561087e-03  0 
 5.696726e-04  -3.553820e-03  0 
 7.812577e-04  -3.484167e-03  0 
 1.174188e-03  -3.327150e-03  0 
 4.010193e-04  -3.337166e-03  0 
 5.863920e-04  -2.921081e-03  0 
 1.037751e-03  -2.979974e-03  0 
 6.731235e-04  -3.242833e-03  0 
 8.990641e-04  -3.231466e-03  0 
 3.647205e-04  -3.634175e-03  0 
 -2.413314e-04  -4.780178e-03  0 
 -5.363451e-06  -5.193636e-03  0 
 -1.526586e-05  -4.345711e-03  0 
 4.276958e-04  -5.050966e-03  0 
 4.109202e-04  -4.466299e-03  0 
 4.748120e-04  -4.755373e-03  0 
 5.820964e-04  -4.195940e-03  0 
 9.532477e-04  -4.445316e-03  0 
 7.016846e-04  -4.636072e-03  0 
 7.479957e-04  -5.040584e-03  0 
 1.273903e-03  -5.003603e-03  0 
 3.590541e-04  -4.162810e-03  0 
VECTORS displacement_ITER12 FLOAT
 1.808518e-04  -3.915222e-03  0 
 1.027385e-04  -3.067910e-03  0 
 1.227571e-04  -3.457217e-03  0 
 1.468495e-03  -3.073214e-03  0 
 4.573111e-04  -3.809280e-03  0 
 7.811527e-04  -3.798511e-03  0 
 2.391383e-04  -4.366934e-03  0 
 2.543030e-04  -4.769659e-03  0 
 8.231211e-04  -2.977643e-03  0 
 9.956228e-04  -3.560005e-03  0 
 5.693938e-04  -3.551719e-03  0 
 7.802864e-04  -3.482928e-03  0 
 1.175834e-03  -3.324718e-03  0 
 4.018171e-04  -3.335774e-03  0 
 5.855699e-04  -2.922945e-03  0 
 1.038596e-03  -2.975537e-03  0 
 6.718156e-04  -3.242062e-03  0 
 8.986710e-04  -3.229236e-03  0 
 3.655662e-04  -3.631990e-03  0 
 -2.411100e-04  -4.779020e-03  0 
 -4.242320e-06  -5.194374e-03  0 
 -1.339498e-05  -4.342872e-03  0 
 4.537094e-04  -5.056306e-03  0 
 4.190992e-04  -4.466312e-03  0 
 4.944323e-04  -4.763701e-03  0 
 5.858185e-04  -4.199727e-03  0 
 9.631104e-04  -4.466827e-03  0 
 7.180073e-04  -4.654653e-03  0 
 7.654660e-04  -5.040739e-03  0 
 1.245347e-03  -5.002398e-03  0 
 3.620587e-04  -4.160660e-03  0 
VECTORS displacement_ITER13 FLOAT
 1.809433e-04  -3.915466e-03  0 
 1.026590e-04  -3.067757e-03  0 
 1.228168e-04  -3.457393e-03  0 
 1.468162e-03  -3.073829e-03  0 
 4.573364e-04  -3.809344e-03  0 
 7.811915e-04  -3.798607e-03  0 
 2.391613e-04  -4.366950e-03  0 
 2.542653e-04  -4.769421e-03  0 
 8.226139e-04  -2.977571e-03  0 
 9.953147e-04  -3.559830e-03  0 
 5.693903e-04  -3.551798e-03  0 
 7.803469e-04  -3.483117e-03  0 
 1.175594e-03  -3.325604e-03  0 
 4.020286e-04  -3.335989e-03  0 
 5.857576e-04  -2.923653e-03  0 
 1.038576e-03  -2.976729e-03  0 
 6.716254e-04  -3.242166e-03  0 
 8.986650e-04  -3.229894e-03  0 
 3.656964e-04  -3.632173e-03  0 
 -2.411681e-04  -4.778668e-03  0 
 -3.777169e-06  -5.194204e-03  0 
 -1.321501e-05  -4.342940e-03  0 
 4.504525e-04  -5.042893e-03  0 
 4.178221e-04  -4.465483e-03  0 
 4.914148e-04  -4.758954e-03  0 
 5.849370e-04  -4.198614e-03  0 
 9.643082e-04  -4.464337e-03  0 
 7.151695e-04  -4.653343e-03  0 
 7.649125e-04  -5.036588e-03  0 
 1.245645e-03  -5.013163e-03  0 
 3.617178e-04  -4.160610e-03  0 
VECTORS displacement_ITER14 FLOAT
 1.810544e-04  -3.915420e-03  0 
 1.027606e-04  -3.067767e-03  0 
 1.229240e-04  -3.457378e-03  0 
 1.468216e-03  -3.073790e-03  0 
 4.574068e-04  -3.809296e-03  0 
 7.812906e-04  -3.798611e-03  0 
 2.392705e-04  -4.367001e-03  0 
 2.543762e-04  -4.769516e-03  0 
 8.225839e-04  -2.977453e-03  0 
 9.953843e-04  -3.559797e-03  0 
 5.694476e-04  -3.551754e-03  0 
 7.804353e-04  -3.483093e-03  0 
 1.175654e-03  -3.325606e-03  0 
 4.021299e-04  -3.335978e-03  0 
 5.858935e-04  -2.923675e-03  0 
 1.038676e-03  -2.976793e-03  0 
 6.716658e-04  -3.242089e-03  0 
 8.987451e-04  -3.229907e-03  0 
 3.657875e-04  -3.632144e-03  0 
 -2.411567e-04  -4.778750e-03  0 
 -3.790170e-06  -5.194443e-03  0 
 -1.315505e-05  -4.342998e-03  0 
 4.496059e-04  -5.039603e-03  0 
 4.176903e-04  -4.465259e-03  0 
 4.906500e-04  -4.757667e-03  0 
 5.847845e-04  -4.198712e-03  0 
 9.634782e-04  -4.464532e-03  0 
 7.147075e-04  -4.652455e-03  0 
 7.650933e-04  -5.035979e-03  0 
 1.246805e-03  -5.014364e-03  0 
 3.617360e-04  -4.160657e-03  0 
CELL_DATA 42
TENSORS element_stresses FLOAT
 -2.480215e-02  -5.219580e-02  0 
 -5.219580e-02  3.529918e-02  0 
 0  0  0 

 -4.126027e-02  -1.013943e-01  0 
 -1.013943e-01  -1.502050e-01  0 
 0  0  0 

 3.244561e-02  -1.154498e-01  0 
 -1.154498e-01  9.548124e-02  0 
 0  0  0 

 -5.123014e-02  -2.446816e-01  0 
 -2.446816e-01  3.531378e-02  0 
 0  0  0 

 1.296646e-02  -2.760434e-01  0 
 -2.760434e-01  -8.455042e-02  0 
 0  0  0 

 6.090474e-02  -6.750230e-02  0 
 -6.750230e-02  -6.583003e-02  0 
 0  0  0 

 -1.507900e-02  -2.213238e-01  0 
 -2.213238e-01  -9.527104e-02  0 
 0  0  0 

 -1.166165e-02  -1.940471e-01  0 
 -1.940471e-01  1.186264e-01  0 
 0  0  0 

 -2.768363e-02  -2.831848e-01  0 
 -2.831848e-01  2.725734e-02  0 
 0  0  0 

 -9.977132e-03  -2.910154e-01  0 
 -2.910154e-01  3.238462e-02  0 
 0  0  0 

 4.559808e-02  -1.208868e-01  0 
 -1.208868e-01  1.427958e-02  0 
 0  0  0 

 -4.302022e-02  -3.072273e-01  0 
 -3.072273e-01  -1.516579e-02  0 
 0  0  0 

 -5.332775e-02  -2.587150e-01  0 
 -2.587150e-01  8.969744e-02  0 
 0  0  0 

 -9.519931e-03  -1.020144e-01  0 
 -1.020144e-01  -7.334263e-02  0 
 0  0  0 

 -1.169397e-02  -3.061967e-01  0 
 -3.061967e-01  4.762793e-02  0 
 0  0  0 

 8.105930e-02  -2.538619e-01  0 
 -2.538619e-01  -6.124955e-02  0 
 0  0  0 

 2.542024e-01  -3.152978e-01  0 
 -3.152978e-01  7.226942e-02  0 
 0  0  0 

 -3.971547e-02  -1.116846e-01  0 
 -1.116846e-01  2.158214e-01  0 
 0  0  0 

 4.665232e-02  -2.288729e-01  0 
 -2.288729e-01  4.384895e-01  0 
 0  0  0 

 9.456574e-02  -1.160193e-01  0 
 -1.160193e-01  -9.299111e-02  0 
 0  0  0 

 1.156941e-01  -3.163483e-01  0 
 -3.163483e-01  2.100371e-01  0 
 0  0  0 

 2.238005e-01  -2.370295e-01  0 
 -2.370295e-01  -3.021342e-02  0 
 0  0  0 

 -5.631492e-02  -1.313077e-01  0 
 -1.313077e-01  -2.775067e-02  0 
 0  0  0 

 3.266792e-02  -8.270113e-02  0 
 -8.270113e-02  -9.251556e-02  0 
 0  0  0 

 8.804493e-02  -1.557633e-01  0 
 -1.557633e-01  1.474352e-02  0 
 0  0  0 

 1.244637e-04  -5.204515e-04  0 
 -5.204515e-04  2.134702e-04  0 
 0  0  0 

 4.875574e-05  -4.209829e-04  0 
 -4.209829e-04  6.728916e-05  0 
 0  0  0 

 2.250245e-04  -5.354124e-04  0 
 -5.354124e-04  1.201698e-04  0 
 0  0  0 

 8.638376e-05  -2.381387e-04  0 
 -2.381387e-04  -6.966462e-05  0 
 0  0  0 

 8.989243e-05  -1.373720e-04  0 
 -1.373720e-04  -1.518396e-04  0 
 0  0  0 

 1.330583e-04  -5.773365e-04  0 
 -5.773365e-04  8.265731e-05  0 
 0  0  0 

 2.400184e-04  -4.334884e-04  0 
 -4.334884e-04  7.267139e-05  0 
 0  0  0 

 1.666283e-04  -2.333036e-04  0 
 -2.333036e-04  -5.689223e-05  0 
 0  0  0 

 2.595145e-04  -5.418722e-04  0 
 -5.418722e-04  -4.104652e-05  0 
 0  0  0 

 1.004969e-04  -2.438333e-04  0 
 -2.438333e-04  -2.469354e-04  0 
 0  0  0 

 2.170909e-04  -6.935682e-04  0 
 -6.935682e-04  4.896211e-04  0 
 0  0  0 

 2.500105e-04  -6.740527e-04  0 
 -6.740527e-04  3.206458e-04  0 
 0  0  0 

 3.292125e-04  -6.651459e-04  0 
 -6.651459e-04  3.211600e-04  0 
 0  0  0 

 2.313951e-04  -6.984707e-04  0 
 -6.984707e-04  3.012527e-04  0 
 0  0  0 

 1.520904e-04  -4.021409e-04  0 
 -4.021409e-04  1.990222e-04  0 
 0  0  0 

 1.977230e-04  -1.655171e-04  0 
 -1.655171e-04  -1.853335e-04  0 
 0  0  0 

 1.033618e-04  -8.409798e-05  0 
 -8.409798e-05  -2.480264e-04  0 
 0  0  0 

TENSORS element_stresses FLOAT
 -2.480215e-02  -5.219580e-02  0 
 -5.219580e-02  3.529918e-02  0 
 0  0  0 

 -4.126027e-02  -1.013943e-01  0 
 -1.013943e-01  -1.502050e-01  0 
 0  0  0 

 3.244561e-02  -1.154498e-01  0 
 -1.154498e-01  9.548124e-02  0 
 0  0  0 

 -5.123014e-02  -2.446816e-01  0 
 -2.446816e-01  3.531378e-02  0 
 0  0  0 

 1.296646e-02  -2.760434e-01  0 
 -2.760434e-01  -8.455042e-02  0 
 0  0  0 

 6.090474e-02  -6.750230e-02  0 
 -6.750230e-02  -6.583003e-02  0 
 0  0  0 

 -1.507900e-02  -2.213238e-01  0 
 -2.213238e-01  -9.527104e-02  0 
 0  0  0 

 -1.166165e-02  -1.940471e-01  0 
 -1.940471e-01  1.186264e-01  0 
 0  0  0 

 -2.768363e-02  -2.831848e-01  0 
 -2.831848e-01  2.725734e-02  0 
 0  0  0 

 -9.977132e-03  -2.910154e-01  0 
 -2.910154e-01  3.238462e-02  0 
 0  0  0 

 4.559808e-02  -1.208868e-01  0 
 -1.208868e-01  1.427958e-02  0 
 0  0  0 

 -4.302022e-02  -3.072273e-01  0 
 -3.072273e-01  -1.516579e-02  0 
 0  0  0 

 -5.332775e-02  -2.587150e-01  0 
 -2.587150e-01  8.969744e-02  0 
 0  0  0 

 -9.519931e-03  -1.020144e-01  0 
 -1.020144e-01  -7.334263e-02  0 
 0  0  0 

 -1.169397e-02  -3.061967e-01  0 
 -3.061967e-01  4.762793e-02  0 
 0  0  0 

 8.105930e-02  -2.538619e-01  0 
 -2.538619e-01  -6.124955e-02  0 
 0  0  0 

 2.542024e-01  -3.152978e-01  0 
 -3.152978e-01  7.226942e-02  0 
 0  0  0 

 -3.971547e-02  -1.116846e-01  0 
 -1.116846e-01  2.158214e-01  0 
 0  0  0 

 4.665232e-02  -2.288729e-01  0 
 -2.288729e-01  4.384895e-01  0 
 0  0  0 

 9.456574e-02  -1.160193e-01  0 
 -1.160193e-01  -9.299111e-02  0 
 0  0  0 

 1.156941e-01  -3.163483e-01  0 
 -3.163483e-01  2.100371e-01  0 
 0  0  0 

 2.238005e-01  -2.370295e-01  0 
 -2.370295e-01  -3.021342e-02  0 
 0  0  0 

 -5.631492e-02  -1.313077e-01  0 
 -1.313077e-01  -2.775067e-02  0 
 0  0  0 

 3.266792e-02  -8.270113e-02  0 
 -8.270113e-02  -9.251556e-02  0 
 0  0  0 

 8.804493e-02  -1.557633e-01  0 
 -1.557633e-01  1.474352e-02  0 
 0  0  0 

 1.244637e-04  -5.204515e-04  0 
 -5.204515e-04  2.134702e-04  0 
 0  0  0 

 4.875574e-05  -4.209829e-04  0 
 -4.209829e-04  6.728916e-05  0 
 0  0  0 

 2.250245e-04  -5.354124e-04  0 
 -5.354124e-04  1.201698e-04  0 
 0  0  0 

 8.638376e-05  -2.381387e-04  0 
 -2.381387e-04  -6.966462e-05  0 
 0  0  0 

 8.989243e-05  -1.373720e-04  0 
 -1.373720e-04  -1.518396e-04  0 
 0  0  0 

 1.330583e-04  -5.773365e-04  0 
 -5.773365e-04  8.265731e-05  0 
 0  0  0 

 2.400184e-04  -4.334884e-04  0 
 -4.334884e-04  7.267139e-05  0 
 0  0  0 

 1.666283e-04  -2.333036e-04  0 
 -2.333036e-04  -5.689223e-05  0 
 0  0  0 

 2.595145e-04  -5.418722e-04  0 
 -5.418722e-04  -4.104652e-05  0 
 0  0  0 

 1.004969e-04  -2.438333e-04  0 
 -2.438333e-04  -2.469354e-04  0 
 0  0  0 

 2.170909e-04  -6.935682e-04  0 
 -6.935682e-04  4.896211e-04  0 
 0  0  0 

 2.500105e-04  -6.740527e-04  0 
 -6.740527e-04  3.206458e-04  0 
 0  0  0 

 3.292125e-04  -6.651459e-04  0 
 -6.651459e-04  3.211600e-04  0 
 0  0  0 

 2.313951e-04  -6.984707e-04  0 
 -6.984707e-04  3.012527e-04  0 
 0  0  0 

 1.520904e-04  -4.021409e-04  0 
 -4.021409e-04  1.990222e-04  0 
 0  0  0 

 1.977230e-04  -1.655171e-04  0 
 -1.655171e-04  -1.853335e-04  0 
 0  0  0 

 1.033618e-04  -8.409798e-05  0 
 -8.409798e-05  -2.480264e-04  0 
 0  0  0 

