# vtk DataFile Version 3.1
this is an vtk file created by FEMAC
ASCII
DATASET UNSTRUCTURED_GRID
POINTS 33 FLOAT
3.000000 2.000000 0.000000
4.000000 3.000000 0.000000
2.750000 2.000000 0.000000
3.000000 1.750000 0.000000
3.000000 2.250000 0.000000
3.000000 2.500000 0.000000
3.250000 2.000000 0.000000
3.500000 2.000000 0.000000
3.750000 2.000000 0.000000
3.500000 3.000000 0.000000
3.750000 3.000000 0.000000
2.832250 1.761003 0.000000
2.844330 2.155709 0.000000
3.165495 1.828528 0.000000
3.400214 1.786986 0.000000
3.237145 1.579099 0.000000
3.646988 1.793399 0.000000
3.817501 1.632951 0.000000
3.559152 1.528294 0.000000
3.842898 1.835270 0.000000
3.786897 2.360864 0.000000
3.255000 2.805000 0.000000
3.165198 2.171305 0.000000
3.645168 2.822337 0.000000
3.344773 2.161848 0.000000
3.574936 2.222548 0.000000
3.183310 2.629173 0.000000
3.436531 2.678490 0.000000
3.532441 2.462106 0.000000
3.749641 2.630999 0.000000
3.828962 2.840667 0.000000
3.836478 2.155331 0.000000
3.279649 2.384434 0.000000
CELLS 43 172 
3 2 11  0
3 11  3  0
3 12  2  0
3 4 12  0
3 6 14  7
3 13 14  6
3 13  0  3
3 6  0 13
3 13  3 15
3 15 14 13
3 7 16  8
3 16  7 14
3 18 16 14
3 19  8 16
3 16 17 19
3 17 16 18
3 24  6  7
3 8 25  7
3 23 10  9
3 28 25 20
3 26 27 21
3 24 22  6
3 27  9 21
3 23  9 27
3 23 27 29
3 0 22  4
3 0  6 22
3 10 30  1
3 23 30 10
3 31 25  8
3 20 25 31
3 24  7 25
3 28 29 27
3 32 26  5
3 4 32  5
3 4 22 32
3 28 20 29
3 24 32 22
3 24 25 32
3 26 32 27
3 28 27 32
3 28 32 25
3 23 29 30
CELL_TYPES 43
5 5 5 5 5 5 5 5 5 5 5 5 5 5 5 5 5 5 5 5 5 5 5 5 5 5 5 5 5 5 5 5 5 5 5 5 5 5 5 5 5 5 5 
POINT_DATA 33
VECTORS displacement_ITER1 FLOAT
 -2.702592e-02  -1.113771e-01  0 
 -1.374850e-02  -2.374874e-01  0 
 -2.706280e-02  -8.724046e-02  0 
 -5.745915e-02  -1.113953e-01  0 
 -2.993812e-03  -1.113566e-01  0 
 -1.095495e-02  -1.245877e-01  0 
 -2.701277e-02  -1.418543e-01  0 
 -2.700855e-02  -1.723262e-01  0 
 -2.701569e-02  -2.028035e-01  0 
 -2.191424e-02  -1.729826e-01  0 
 -1.414159e-02  -1.908585e-01  0 
 -4.941035e-02  -8.177230e-02  0 
 -1.204379e-02  -9.637603e-02  0 
 -4.790456e-02  -1.315493e-01  0 
 -5.296576e-02  -1.601599e-01  0 
 -7.828276e-02  -1.402865e-01  0 
 -5.218840e-02  -1.902537e-01  0 
 -7.174829e-02  -2.110519e-01  0 
 -8.450333e-02  -1.795496e-01  0 
 -4.709118e-02  -2.141379e-01  0 
 -1.074529e-02  -1.899908e-01  0 
 -1.492844e-02  -1.621018e-01  0 
 -1.302165e-02  -1.344834e-01  0 
 -1.798190e-02  -1.781872e-01  0 
 -1.483221e-02  -1.536993e-01  0 
 -1.284453e-02  -1.772818e-01  0 
 -1.070361e-02  -1.496678e-01  0 
 -1.069384e-02  -1.671756e-01  0 
 -7.166108e-03  -1.706573e-01  0 
 -1.186131e-02  -1.814544e-01  0 
 -2.036674e-02  -1.962790e-01  0 
 -2.141897e-02  -2.039623e-01  0 
 -5.731242e-03  -1.472152e-01  0 
VECTORS displacement_ITER2 FLOAT
 -4.486484e-03  -1.028681e-01  0 
 3.347995e-03  -1.936918e-01  0 
 -4.523138e-03  -8.558466e-02  0 
 -2.764625e-02  -1.029078e-01  0 
 1.268023e-02  -1.028247e-01  0 
 9.009822e-03  -1.109078e-01  0 
 -4.474283e-03  -1.260900e-01  0 
 -4.472939e-03  -1.492931e-01  0 
 -4.481655e-03  -1.725021e-01  0 
 4.107432e-03  -1.530978e-01  0 
 8.626936e-03  -1.654429e-01  0 
 -1.938093e-02  -8.036965e-02  0 
 6.223109e-03  -9.212983e-02  0 
 -2.038111e-02  -1.182424e-01  0 
 -2.423360e-02  -1.400302e-01  0 
 -4.349819e-02  -1.249008e-01  0 
 -2.364376e-02  -1.629444e-01  0 
 -3.852881e-02  -1.787749e-01  0 
 -4.823490e-02  -1.547943e-01  0 
 -1.976506e-02  -1.811285e-01  0 
 1.045828e-02  -1.681108e-01  0 
 8.915840e-03  -1.434852e-01  0 
 5.634722e-03  -1.203807e-01  0 
 7.027933e-03  -1.578290e-01  0 
 4.586322e-03  -1.354367e-01  0 
 6.886344e-03  -1.547276e-01  0 
 1.082634e-02  -1.324418e-01  0 
 1.183521e-02  -1.482819e-01  0 
 1.266018e-02  -1.513258e-01  0 
 1.074648e-02  -1.621081e-01  0 
 4.701798e-03  -1.716939e-01  0 
 1.904398e-03  -1.773617e-01  0 
 1.200752e-02  -1.310842e-01  0 
VECTORS displacement_ITER3 FLOAT
 -2.353921e-02  -7.414908e-02  0 
 -4.474454e-03  -1.216830e-01  0 
 -2.357076e-02  -6.626034e-02  0 
 -3.591399e-02  -7.422463e-02  0 
 -1.577784e-02  -7.406603e-02  0 
 -5.807943e-03  -6.989589e-02  0 
 -2.353258e-02  -8.661122e-02  0 
 -2.353990e-02  -9.902742e-02  0 
 -2.355321e-02  -1.114451e-01  0 
 5.401093e-03  -1.022662e-01  0 
 6.502748e-03  -1.128770e-01  0 
 -2.779451e-02  -6.309040e-02  0 
 -1.868202e-02  -6.924928e-02  0 
 -3.204426e-02  -8.241064e-02  0 
 -3.410316e-02  -9.407663e-02  0 
 -4.439049e-02  -8.598529e-02  0 
 -3.379116e-02  -1.063304e-01  0 
 -4.173249e-02  -1.147821e-01  0 
 -4.691145e-02  -1.019714e-01  0 
 -3.172177e-02  -1.160499e-01  0 
 -7.980427e-03  -1.206855e-01  0 
 2.563946e-03  -9.242074e-02  0 
 -1.828160e-02  -8.278874e-02  0 
 2.366502e-03  -1.101168e-01  0 
 -1.822424e-02  -9.196150e-02  0 
 -1.500834e-02  -1.052279e-01  0 
 -1.575553e-03  -8.513018e-02  0 
 4.047890e-04  -1.005775e-01  0 
 -6.768718e-03  -1.058015e-01  0 
 -2.011319e-03  -1.183238e-01  0 
 1.159346e-03  -1.217364e-01  0 
 -1.466901e-02  -1.225407e-01  0 
 -1.104929e-02  -9.005012e-02  0 
VECTORS displacement_ITER4 FLOAT
 -3.217659e-02  -7.185201e-02  0 
 -5.786623e-03  -8.297506e-02  0 
 -3.220073e-02  -6.760447e-02  0 
 -3.913454e-02  -7.195001e-02  0 
 -2.805503e-02  -7.174513e-02  0 
 -7.332740e-03  -5.953326e-02  0 
 -3.217740e-02  -7.890868e-02  0 
 -3.219489e-02  -8.589718e-02  0 
 -3.221497e-02  -9.287911e-02  0 
 1.007420e-02  -8.266978e-02  0 
 8.168351e-03  -8.989706e-02  0 
 -3.136142e-02  -6.696956e-02  0 
 -2.958336e-02  -6.920932e-02  0 
 -3.697103e-02  -7.654333e-02  0 
 -3.812793e-02  -8.312087e-02  0 
 -4.390329e-02  -7.856813e-02  0 
 -3.795600e-02  -9.000442e-02  0 
 -4.239572e-02  -9.473568e-02  0 
 -4.529364e-02  -8.755344e-02  0 
 -3.679948e-02  -9.545795e-02  0 
 -1.482980e-02  -1.075986e-01  0 
 4.690357e-03  -7.514359e-02  0 
 -2.833535e-02  -7.556238e-02  0 
 4.562923e-03  -9.220160e-02  0 
 -2.776254e-02  -8.185317e-02  0 
 -2.381013e-02  -9.180433e-02  0 
 -2.217285e-03  -7.049595e-02  0 
 -2.305739e-04  -8.498547e-02  0 
 -1.280300e-02  -9.277062e-02  0 
 -4.398521e-03  -1.040521e-01  0 
 3.484830e-03  -9.989537e-02  0 
 -2.130750e-02  -1.066127e-01  0 
 -1.891550e-02  -8.053237e-02  0 
VECTORS displacement_ITER5 FLOAT
 -3.095748e-02  -5.806274e-02  0 
 -1.313115e-02  -4.038806e-02  0 
 -3.097650e-02  -5.307210e-02  0 
 -3.664175e-02  -5.816898e-02  0 
 -2.609459e-02  -5.794533e-02  0 
 -5.962655e-03  -4.588081e-02  0 
 -3.096678e-02  -6.384639e-02  0 
 -3.099819e-02  -6.953830e-02  0 
 -3.102856e-02  -7.520541e-02  0 
 1.181827e-03  -5.918463e-02  0 
 -2.084642e-03  -5.777612e-02  0 
 -2.928755e-02  -5.319600e-02  0 
 -2.789967e-02  -5.495214e-02  0 
 -3.487894e-02  -6.191668e-02  0 
 -3.581958e-02  -6.729066e-02  0 
 -4.053323e-02  -6.357352e-02  0 
 -3.567960e-02  -7.287713e-02  0 
 -3.926593e-02  -7.670398e-02  0 
 -4.161376e-02  -7.088257e-02  0 
 -3.474598e-02  -7.729578e-02  0 
 -1.428247e-02  -8.577751e-02  0 
 2.426144e-03  -5.910186e-02  0 
 -2.643792e-02  -6.053894e-02  0 
 7.702680e-04  -6.520416e-02  0 
 -2.596547e-02  -6.568487e-02  0 
 -2.216852e-02  -7.350350e-02  0 
 -1.520003e-03  -5.485889e-02  0 
 -3.832107e-05  -6.496886e-02  0 
 -1.112714e-02  -7.244193e-02  0 
 -4.742789e-03  -7.727293e-02  0 
 -1.311636e-03  -6.495058e-02  0 
 -2.046505e-02  -8.648521e-02  0 
 -1.666997e-02  -6.392065e-02  0 
VECTORS displacement_ITER6 FLOAT
 -2.766068e-02  -4.811412e-02  0 
 7.857326e-03  -5.694855e-02  0 
 -2.767682e-02  -4.873325e-02  0 
 -2.637340e-02  -4.822656e-02  0 
 -2.842021e-02  -4.797725e-02  0 
 -1.220135e-02  -3.179779e-02  0 
 -2.767697e-02  -4.692922e-02  0 
 -2.772143e-02  -4.562695e-02  0 
 -2.775832e-02  -4.427856e-02  0 
 7.561383e-04  -3.942422e-02  0 
 4.579986e-03  -4.891209e-02  0 
 -2.025731e-02  -4.707193e-02  0 
 -2.809855e-02  -4.849259e-02  0 
 -2.679976e-02  -4.735869e-02  0 
 -2.657490e-02  -4.618040e-02  0 
 -2.549183e-02  -4.701238e-02  0 
 -2.661030e-02  -4.484186e-02  0 
 -2.568403e-02  -4.387515e-02  0 
 -2.509625e-02  -4.530399e-02  0 
 -2.685177e-02  -4.375900e-02  0 
 -1.745364e-02  -5.812022e-02  0 
 -2.751072e-03  -3.763969e-02  0 
 -2.711678e-02  -4.596804e-02  0 
 -3.420545e-03  -4.702792e-02  0 
 -2.666014e-02  -4.613290e-02  0 
 -2.418275e-02  -4.854034e-02  0 
 -8.350505e-03  -3.636784e-02  0 
 -7.197564e-03  -4.459530e-02  0 
 -1.736041e-02  -5.059264e-02  0 
 -1.071906e-02  -5.637374e-02  0 
 -2.357402e-03  -5.387999e-02  0 
 -1.992811e-02  -5.494220e-02  0 
 -2.260457e-02  -4.563151e-02  0 
VECTORS displacement_ITER7 FLOAT
 -1.462428e-02  -2.622969e-02  0 
 2.507950e-02  -4.378037e-02  0 
 -1.464028e-02  -2.563457e-02  0 
 -1.340575e-02  -2.634110e-02  0 
 -1.418056e-02  -2.608419e-02  0 
 -9.341137e-04  -1.053871e-02  0 
 -1.464386e-02  -2.511220e-02  0 
 -1.469599e-02  -2.386179e-02  0 
 -1.473745e-02  -2.255025e-02  0 
 7.562574e-03  -1.377344e-02  0 
 1.394058e-02  -2.624059e-02  0 
 -8.544253e-03  -2.402651e-02  0 
 -1.430868e-02  -2.585138e-02  0 
 -1.380839e-02  -2.552002e-02  0 
 -1.358970e-02  -2.440076e-02  0 
 -1.256612e-02  -2.518959e-02  0 
 -1.362067e-02  -2.310127e-02  0 
 -1.271548e-02  -2.215884e-02  0 
 -1.214628e-02  -2.354534e-02  0 
 -1.385585e-02  -2.204700e-02  0 
 -7.136740e-03  -3.133983e-02  0 
 5.054871e-03  -1.361627e-02  0 
 -1.357068e-02  -2.423534e-02  0 
 3.870541e-03  -2.103674e-02  0 
 -1.353343e-02  -2.391240e-02  0 
 -1.191521e-02  -2.510294e-02  0 
 1.180165e-03  -1.361093e-02  0 
 1.238030e-03  -1.972009e-02  0 
 -6.836127e-03  -2.555942e-02  0 
 -2.152384e-03  -2.888466e-02  0 
 5.771975e-03  -2.865606e-02  0 
 -8.907839e-03  -2.965236e-02  0 
 -1.040791e-02  -2.259762e-02  0 
VECTORS displacement_ITER8 FLOAT
 -1.156656e-02  -1.811569e-02  0 
 -4.159600e-03  8.287981e-03  0 
 -1.157883e-02  -6.224434e-03  0 
 -1.984466e-02  -1.822056e-02  0 
 1.771824e-04  -1.798045e-02  0 
 9.663314e-03  -1.262898e-02  0 
 -1.159101e-02  -2.648345e-02  0 
 -1.164855e-02  -3.471154e-02  0 
 -1.169542e-02  -4.287085e-02  0 
 -7.378604e-03  -1.272293e-02  0 
 -8.564061e-03  -5.681681e-03  0 
 -1.532391e-02  -7.046411e-03  0 
 -4.212823e-03  -1.070304e-02  0 
 -1.726223e-02  -2.368620e-02  0 
 -1.861948e-02  -3.147231e-02  0 
 -2.549071e-02  -2.607375e-02  0 
 -1.840704e-02  -3.952545e-02  0 
 -2.358391e-02  -4.504735e-02  0 
 -2.698273e-02  -3.664038e-02  0 
 -1.705734e-02  -4.589496e-02  0 
 3.364905e-04  -3.649748e-02  0 
 5.482877e-03  -2.287259e-02  0 
 -3.373464e-03  -2.289004e-02  0 
 9.842430e-04  -1.260354e-02  0 
 -4.150967e-03  -2.812044e-02  0 
 -2.161939e-03  -3.393413e-02  0 
 9.773164e-03  -1.936961e-02  0 
 8.730408e-03  -2.145210e-02  0 
 5.613143e-03  -2.692159e-02  0 
 4.469389e-03  -2.038774e-02  0 
 -1.355198e-03  -4.089521e-03  0 
 -5.318996e-03  -4.384695e-02  0 
 4.631224e-03  -2.393775e-02  0 
VECTORS displacement_ITER9 FLOAT
 -1.326228e-02  -1.739650e-02  0 
 2.094880e-02  -5.839845e-02  0 
 -1.326527e-02  -1.753475e-02  0 
 -9.437376e-03  -1.750559e-02  0 
 -1.355212e-02  -1.724250e-02  0 
 -1.261519e-02  -6.170388e-03  0 
 -1.329466e-02  -1.365775e-02  0 
 -1.335496e-02  -9.768320e-03  0 
 -1.339480e-02  -5.806065e-03  0 
 -3.624547e-03  -1.284921e-02  0 
 5.396102e-03  -3.124924e-02  0 
 -6.175177e-03  -1.390362e-02  0 
 -1.339592e-02  -1.746770e-02  0 
 -1.065739e-02  -1.495564e-02  0 
 -9.999562e-03  -1.136481e-02  0 
 -6.798589e-03  -1.386773e-02  0 
 -1.009418e-02  -7.446341e-03  0 
 -7.489316e-03  -4.694504e-03  0 
 -5.811604e-03  -8.815815e-03  0 
 -1.076981e-02  -4.317453e-03  0 
 -1.143356e-02  -1.566756e-02  0 
 -8.163097e-03  -8.136761e-03  0 
 -1.393193e-02  -1.504529e-02  0 
 -7.745182e-03  -1.870426e-02  0 
 -1.448970e-02  -1.213483e-02  0 
 -1.440479e-02  -1.106339e-02  0 
 -1.147854e-02  -7.972329e-03  0 
 -1.111453e-02  -1.323475e-02  0 
 -1.410475e-02  -1.457892e-02  0 
 -1.117321e-02  -2.023816e-02  0 
 -3.844130e-03  -3.034985e-02  0 
 -1.045889e-02  -1.187978e-02  0 
 -1.643468e-02  -1.190866e-02  0 
VECTORS displacement_ITER10 FLOAT
 -6.319224e-03  -7.797052e-03  0 
 3.991855e-03  -1.046047e-02  0 
 -6.313862e-03  -2.351278e-03  0 
 -7.992734e-03  -7.902525e-03  0 
 -1.011556e-03  -7.650923e-03  0 
 -1.003844e-03  -3.411897e-03  0 
 -6.355818e-03  -9.545267e-03  0 
 -6.415404e-03  -1.114645e-02  0 
 -6.455144e-03  -1.267859e-02  0 
 -2.937210e-03  -9.155998e-03  0 
 -9.107020e-04  -1.306962e-02  0 
 -5.210284e-03  -5.422047e-04  0 
 -2.967169e-03  -4.386931e-03  0 
 -7.485472e-03  -8.989922e-03  0 
 -7.742267e-03  -1.055132e-02  0 
 -9.107413e-03  -9.475785e-03  0 
 -7.697267e-03  -1.205688e-02  0 
 -8.624507e-03  -1.305765e-02  0 
 -9.247694e-03  -1.149683e-02  0 
 -7.453157e-03  -1.323662e-02  0 
 -7.842190e-04  -1.511786e-02  0 
 -5.418789e-04  -9.006602e-03  0 
 -3.183348e-03  -9.090961e-03  0 
 -5.664974e-04  -1.040191e-02  0 
 -3.929017e-03  -9.671649e-03  0 
 -3.226670e-03  -1.161173e-02  0 
 -1.914910e-04  -6.800339e-03  0 
 4.416327e-04  -9.986257e-03  0 
 -4.904069e-04  -1.107970e-02  0 
 4.715905e-04  -1.205933e-02  0 
 7.160439e-04  -1.094821e-02  0 
 -2.498058e-03  -1.609070e-02  0 
 -2.063802e-03  -8.014110e-03  0 
VECTORS displacement_ITER11 FLOAT
 -5.519895e-03  -5.922483e-03  0 
 -1.456926e-02  1.839424e-02  0 
 -5.509131e-03  2.378122e-03  0 
 -1.082581e-02  -6.027505e-03  0 
 2.647742e-03  -5.778403e-03  0 
 1.726248e-03  -6.351727e-03  0 
 -5.558936e-03  -1.129767e-02  0 
 -5.617153e-03  -1.652840e-02  0 
 -5.656708e-03  -2.169263e-02  0 
 -7.401233e-03  -1.047988e-02  0 
 -1.065602e-02  -3.778838e-03  0 
 -8.183970e-03  3.555315e-03  0 
 -3.860007e-04  -7.317982e-04  0 
 -9.177897e-03  -9.517475e-03  0 
 -1.003892e-02  -1.448368e-02  0 
 -1.442051e-02  -1.104345e-02  0 
 -9.901057e-03  -1.957560e-02  0 
 -1.316283e-02  -2.305722e-02  0 
 -1.530812e-02  -1.773922e-02  0 
 -9.048674e-03  -2.360362e-02  0 
 1.536568e-03  -1.890818e-02  0 
 -2.762930e-04  -1.391665e-02  0 
 -3.684646e-04  -9.550073e-03  0 
 -9.441070e-04  -8.798608e-03  0 
 -1.157372e-03  -1.250621e-02  0 
 -1.870554e-04  -1.637942e-02  0 
 2.443733e-03  -1.062828e-02  0 
 3.191962e-03  -1.210764e-02  0 
 3.735388e-03  -1.313469e-02  0 
 3.070361e-03  -1.081989e-02  0 
 -1.940299e-03  -1.811236e-03  0 
 -1.622761e-03  -2.304200e-02  0 
 2.836326e-03  -9.936423e-03  0 
VECTORS displacement_ITER12 FLOAT
 -9.114571e-03  -3.382932e-03  0 
 1.219071e-03  -2.201949e-02  0 
 -9.096955e-03  -3.871379e-03  0 
 -6.907154e-03  -3.494079e-03  0 
 -9.738968e-03  -3.222541e-03  0 
 -1.282779e-02  1.767598e-03  0 
 -9.158346e-03  -1.245196e-03  0 
 -9.216887e-03  1.042192e-03  0 
 -9.252318e-03  3.398024e-03  0 
 -2.570619e-03  -3.986615e-03  0 
 1.953972e-05  -1.430646e-02  0 
 -4.820913e-03  2.439993e-04  0 
 -9.451443e-03  -3.659409e-03  0 
 -7.620719e-03  -2.006941e-03  0 
 -7.231352e-03  8.783391e-05  0 
 -5.359603e-03  -1.376282e-03  0 
 -7.283419e-03  2.421764e-03  0 
 -5.716316e-03  4.073455e-03  0 
 -4.713994e-03  1.619566e-03  0 
 -7.687299e-03  4.286889e-03  0 
 -8.919356e-03  -3.758293e-03  0 
 -8.038729e-03  1.647382e-03  0 
 -1.002115e-02  -2.119189e-03  0 
 -6.409026e-03  -8.215197e-03  0 
 -1.052747e-02  -2.911686e-04  0 
 -1.079719e-02  6.021921e-05  0 
 -1.133832e-02  1.441562e-03  0 
 -1.016449e-02  -2.416854e-03  0 
 -1.126644e-02  -2.651470e-03  0 
 -8.872446e-03  -8.284888e-03  0 
 -4.118284e-03  -1.535865e-02  0 
 -7.857889e-03  -9.016914e-04  0 
 -1.288556e-02  1.830379e-04  0 
VECTORS displacement_ITER13 FLOAT
 -6.128772e-03  -4.764271e-03  0 
 -1.095243e-02  2.374483e-04  0 
 -6.104261e-03  -2.015496e-03  0 
 -7.683647e-03  -4.877121e-03  0 
 -3.507901e-03  -4.604276e-03  0 
 -4.897889e-03  -2.188271e-03  0 
 -6.176683e-03  -6.383295e-03  0 
 -6.235800e-03  -7.852777e-03  0 
 -6.273479e-03  -9.253277e-03  0 
 -4.530758e-03  -2.627916e-03  0 
 -6.380897e-03  -4.100116e-03  0 
 -5.554653e-03  9.802062e-04  0 
 -4.443848e-03  -3.020629e-03  0 
 -7.216299e-03  -5.877411e-03  0 
 -7.452442e-03  -7.308097e-03  0 
 -8.703874e-03  -6.323457e-03  0 
 -7.407879e-03  -8.684317e-03  0 
 -8.252336e-03  -9.595864e-03  0 
 -8.825689e-03  -8.165479e-03  0 
 -7.182909e-03  -9.763422e-03  0 
 -4.992297e-03  -9.402480e-03  0 
 -4.235896e-03  -2.427307e-03  0 
 -4.668856e-03  -5.687346e-03  0 
 -4.972857e-03  -5.377662e-03  0 
 -5.320708e-03  -6.312608e-03  0 
 -5.492620e-03  -7.637875e-03  0 
 -4.659200e-03  -2.676785e-03  0 
 -4.624965e-03  -4.596770e-03  0 
 -4.836333e-03  -6.373320e-03  0 
 -4.875840e-03  -7.301470e-03  0 
 -5.410225e-03  -5.923761e-03  0 
 -5.210445e-03  -1.052086e-02  0 
 -5.008251e-03  -4.388216e-03  0 
VECTORS displacement_ITER14 FLOAT
 -4.600276e-03  -4.710819e-03  0 
 -5.822509e-03  -7.193965e-03  0 
 -4.569109e-03  -3.947407e-03  0 
 -5.061708e-03  -4.830392e-03  0 
 -3.963996e-03  -4.541410e-03  0 
 -4.457325e-03  -1.585779e-03  0 
 -4.651556e-03  -5.237132e-03  0 
 -4.710768e-03  -5.611227e-03  0 
 -4.749233e-03  -5.916018e-03  0 
 -2.611042e-03  2.124736e-04  0 
 -3.256171e-03  -3.475888e-03  0 
 -3.024263e-03  -8.995410e-04  0 
 -4.148454e-03  -4.197977e-03  0 
 -4.939696e-03  -5.103132e-03  0 
 -4.993907e-03  -5.503101e-03  0 
 -5.330546e-03  -5.234712e-03  0 
 -4.976673e-03  -5.798569e-03  0 
 -5.115861e-03  -5.960730e-03  0 
 -5.232638e-03  -5.662840e-03  0 
 -4.934847e-03  -6.018515e-03  0 
 -5.149396e-03  -6.067274e-03  0 
 -3.894738e-03  9.819989e-04  0 
 -4.305547e-03  -4.720762e-03  0 
 -4.719704e-03  -3.399920e-03  0 
 -4.751412e-03  -4.750354e-03  0 
 -5.122463e-03  -5.151792e-03  0 
 -4.777051e-03  -5.325280e-04  0 
 -5.208315e-03  -2.073554e-03  0 
 -5.504007e-03  -4.176296e-03  0 
 -5.613177e-03  -5.296350e-03  0 
 -4.963025e-03  -6.005339e-03  0 
 -4.530750e-03  -6.622110e-03  0 
 -5.270936e-03  -3.204221e-03  0 
VECTORS displacement_ITER15 FLOAT
 -3.600480e-03  -4.404902e-03  0 
 -1.956034e-03  -8.230590e-03  0 
 -3.562887e-03  -4.177365e-03  0 
 -3.958554e-03  -4.529920e-03  0 
 -3.496201e-03  -4.230495e-03  0 
 -2.378779e-03  -2.589464e-03  0 
 -3.653834e-03  -4.828537e-03  0 
 -3.712481e-03  -5.099098e-03  0 
 -3.751969e-03  -5.302113e-03  0 
 -1.374103e-03  -3.095797e-04  0 
 -1.358780e-03  -3.514368e-03  0 
 -1.978161e-03  -1.973738e-03  0 
 -3.478550e-03  -4.220495e-03  0 
 -3.870669e-03  -4.731035e-03  0 
 -3.908011e-03  -5.031364e-03  0 
 -4.153910e-03  -4.832331e-03  0 
 -3.893773e-03  -5.226947e-03  0 
 -3.966183e-03  -5.318068e-03  0 
 -4.041533e-03  -5.126162e-03  0 
 -3.869476e-03  -5.366538e-03  0 
 -3.436578e-03  -5.382309e-03  0 
 -2.484041e-03  7.561549e-04  0 
 -3.446217e-03  -4.255332e-03  0 
 -2.993307e-03  -3.070684e-03  0 
 -3.588049e-03  -4.423500e-03  0 
 -3.585321e-03  -4.739656e-03  0 
 -3.044978e-03  -8.113468e-04  0 
 -3.549568e-03  -2.000338e-03  0 
 -3.764273e-03  -3.847136e-03  0 
 -3.761865e-03  -4.584931e-03  0 
 -3.010416e-03  -5.254055e-03  0 
 -3.047898e-03  -5.955917e-03  0 
 -3.538445e-03  -3.483848e-03  0 
VECTORS displacement_ITER16 FLOAT
 -2.750602e-03  -5.229906e-03  0 
 -1.127941e-03  -5.756289e-03  0 
 -2.708818e-03  -4.702959e-03  0 
 -3.561313e-03  -5.359593e-03  0 
 -2.345687e-03  -5.051912e-03  0 
 -7.292460e-04  -5.212805e-03  0 
 -2.805137e-03  -6.107460e-03  0 
 -2.863051e-03  -6.830695e-03  0 
 -2.902573e-03  -7.487990e-03  0 
 -1.306104e-03  -4.016193e-03  0 
 -1.376908e-03  -5.002544e-03  0 
 -1.502501e-03  -3.288540e-03  0 
 -2.440181e-03  -4.855544e-03  0 
 -3.332547e-03  -5.857807e-03  0 
 -3.445212e-03  -6.581421e-03  0 
 -4.064180e-03  -6.088520e-03  0 
 -3.419461e-03  -7.225485e-03  0 
 -3.782585e-03  -7.625266e-03  0 
 -4.048779e-03  -6.964730e-03  0 
 -3.319116e-03  -7.720914e-03  0 
 -1.310105e-03  -7.478123e-03  0 
 -1.410940e-03  -2.835171e-03  0 
 -2.285235e-03  -5.405812e-03  0 
 -1.351257e-03  -5.121168e-03  0 
 -2.230314e-03  -5.996999e-03  0 
 -1.817982e-03  -6.685489e-03  0 
 -1.332173e-03  -3.664857e-03  0 
 -1.544410e-03  -4.591247e-03  0 
 -1.432501e-03  -5.816059e-03  0 
 -1.344198e-03  -6.100682e-03  0 
 -1.292497e-03  -5.498546e-03  0 
 -1.466514e-03  -8.319032e-03  0 
 -1.439504e-03  -5.474101e-03  0 
VECTORS displacement_ITER17 FLOAT
 -3.157159e-03  -4.922092e-03  0 
 -8.265298e-04  -5.655438e-03  0 
 -3.112758e-03  -4.179182e-03  0 
 -3.825023e-03  -5.057702e-03  0 
 -2.539537e-03  -4.737691e-03  0 
 -1.073608e-03  -5.406085e-03  0 
 -3.213652e-03  -5.659137e-03  0 
 -3.272234e-03  -6.236325e-03  0 
 -3.311321e-03  -6.746483e-03  0 
 -2.041779e-03  -4.788431e-03  0 
 -1.939987e-03  -5.512559e-03  0 
 -1.706896e-03  -3.151023e-03  0 
 -2.712053e-03  -4.410643e-03  0 
 -3.642334e-03  -5.458851e-03  0 
 -3.730321e-03  -6.045480e-03  0 
 -4.227107e-03  -5.648219e-03  0 
 -3.707535e-03  -6.543841e-03  0 
 -3.975102e-03  -6.841457e-03  0 
 -4.179996e-03  -6.334320e-03  0 
 -3.630995e-03  -6.923794e-03  0 
 -1.371227e-03  -7.230376e-03  0 
 -1.825170e-03  -3.331904e-03  0 
 -2.600550e-03  -5.103271e-03  0 
 -1.635931e-03  -5.370212e-03  0 
 -2.542909e-03  -5.610046e-03  0 
 -2.049297e-03  -6.279073e-03  0 
 -1.615637e-03  -3.882589e-03  0 
 -1.742354e-03  -4.818772e-03  0 
 -1.519351e-03  -5.672517e-03  0 
 -1.364846e-03  -6.012504e-03  0 
 -1.446215e-03  -5.412779e-03  0 
 -1.624450e-03  -7.882825e-03  0 
 -1.625827e-03  -5.303571e-03  0 
VECTORS displacement_ITER18 FLOAT
 -2.890571e-03  -5.163477e-03  0 
 -4.249335e-04  -5.999824e-03  0 
 -2.844308e-03  -4.339993e-03  0 
 -3.079638e-03  -5.304427e-03  0 
 -2.197205e-03  -4.971389e-03  0 
 -7.646329e-04  -4.944767e-03  0 
 -2.949131e-03  -5.423946e-03  0 
 -3.009140e-03  -5.517929e-03  0 
 -3.048491e-03  -5.543052e-03  0 
 -1.793239e-03  -4.755035e-03  0 
 -1.541507e-03  -5.846934e-03  0 
 -1.223728e-03  -3.640821e-03  0 
 -2.395716e-03  -4.599694e-03  0 
 -3.048270e-03  -5.386654e-03  0 
 -3.055464e-03  -5.520780e-03  0 
 -3.150755e-03  -5.438397e-03  0 
 -3.044690e-03  -5.540176e-03  0 
 -3.000331e-03  -5.505894e-03  0 
 -3.002066e-03  -5.501052e-03  0 
 -3.049053e-03  -5.539755e-03  0 
 -1.235261e-03  -6.463484e-03  0 
 -1.606872e-03  -2.895150e-03  0 
 -2.364654e-03  -5.096749e-03  0 
 -1.446216e-03  -5.278460e-03  0 
 -2.376558e-03  -5.232072e-03  0 
 -1.954143e-03  -5.572446e-03  0 
 -1.392127e-03  -3.416023e-03  0 
 -1.637578e-03  -4.508580e-03  0 
 -1.498038e-03  -5.225045e-03  0 
 -1.234861e-03  -5.698852e-03  0 
 -1.115577e-03  -5.555492e-03  0 
 -1.371048e-03  -6.787119e-03  0 
 -1.637251e-03  -4.994283e-03  0 
VECTORS displacement_ITER19 FLOAT
 -2.128589e-03  -4.601586e-03  0 
 -4.772891e-04  -5.131221e-03  0 
 -2.081523e-03  -3.704846e-03  0 
 -2.207304e-03  -4.745871e-03  0 
 -1.367004e-03  -4.403501e-03  0 
 -2.913572e-04  -3.794640e-03  0 
 -2.187793e-03  -4.753732e-03  0 
 -2.247928e-03  -4.735677e-03  0 
 -2.287245e-03  -4.648114e-03  0 
 -9.537583e-04  -4.517388e-03  0 
 -6.765078e-04  -5.419442e-03  0 
 -6.613590e-04  -3.255347e-03  0 
 -1.589171e-03  -3.990999e-03  0 
 -2.211062e-03  -4.753942e-03  0 
 -2.198973e-03  -4.783148e-03  0 
 -2.200660e-03  -4.773729e-03  0 
 -2.190734e-03  -4.691778e-03  0 
 -2.074464e-03  -4.581186e-03  0 
 -2.029387e-03  -4.691904e-03  0 
 -2.213817e-03  -4.603432e-03  0 
 -8.691549e-04  -5.484438e-03  0 
 -1.111964e-03  -2.023787e-03  0 
 -1.632459e-03  -4.497148e-03  0 
 -7.246275e-04  -4.811023e-03  0 
 -1.736118e-03  -4.495065e-03  0 
 -1.474269e-03  -4.705732e-03  0 
 -9.175226e-04  -2.477213e-03  0 
 -1.187304e-03  -3.716990e-03  0 
 -1.141065e-03  -4.405351e-03  0 
 -7.787458e-04  -5.106155e-03  0 
 -3.861764e-04  -5.329250e-03  0 
 -9.245558e-04  -5.671438e-03  0 
 -1.244525e-03  -4.123533e-03  0 
VECTORS displacement_ITER20 FLOAT
 -1.251661e-03  -4.065862e-03  0 
 -1.798068e-04  -5.209361e-03  0 
 -1.203949e-03  -2.893124e-03  0 
 -1.659885e-03  -4.213166e-03  0 
 -2.192665e-04  -3.862363e-03  0 
 3.650997e-04  -3.119567e-03  0 
 -1.311073e-03  -4.549507e-03  0 
 -1.370459e-03  -4.860484e-03  0 
 -1.409245e-03  -5.101880e-03  0 
 1.544007e-04  -4.293599e-03  0 
 3.893954e-04  -4.773953e-03  0 
 -3.519548e-04  -2.656449e-03  0 
 -5.416109e-04  -3.282457e-03  0 
 -1.560558e-03  -4.438282e-03  0 
 -1.602415e-03  -4.775831e-03  0 
 -1.876513e-03  -4.552221e-03  0 
 -1.585135e-03  -5.010007e-03  0 
 -1.681056e-03  -5.125138e-03  0 
 -1.774572e-03  -4.893960e-03  0 
 -1.552703e-03  -5.180365e-03  0 
 -5.218717e-04  -5.278956e-03  0 
 -3.337907e-04  -1.554981e-03  0 
 -6.514423e-04  -4.201782e-03  0 
 1.168625e-04  -4.466792e-03  0 
 -8.753667e-04  -4.365766e-03  0 
 -8.309462e-04  -4.703362e-03  0 
 -1.744902e-04  -2.063763e-03  0 
 -4.970739e-04  -3.264817e-03  0 
 -5.746042e-04  -4.134174e-03  0 
 -3.023034e-04  -4.917742e-03  0 
 2.153148e-04  -5.236700e-03  0 
 -5.875682e-04  -5.619072e-03  0 
 -4.731318e-04  -3.690244e-03  0 
VECTORS displacement_ITER21 FLOAT
 -1.443697e-03  -3.014104e-03  0 
 9.119303e-05  -5.817986e-03  0 
 -1.395350e-03  -2.050176e-03  0 
 -1.985703e-03  -3.164803e-03  0 
 -6.260305e-04  -2.804594e-03  0 
 -4.446276e-04  -2.451678e-03  0 
 -1.502817e-03  -3.634403e-03  0 
 -1.561001e-03  -4.080429e-03  0 
 -1.599614e-03  -4.457778e-03  0 
 2.713923e-05  -3.840609e-03  0 
 4.342915e-04  -3.943619e-03  0 
 -1.010182e-03  -1.927615e-03  0 
 -8.653680e-04  -2.359641e-03  0 
 -1.844939e-03  -3.477547e-03  0 
 -1.908611e-03  -3.940829e-03  0 
 -2.292259e-03  -3.630186e-03  0 
 -1.887871e-03  -4.310326e-03  0 
 -2.072266e-03  -4.519998e-03  0 
 -2.223362e-03  -4.146322e-03  0 
 -1.832904e-03  -4.587996e-03  0 
 -9.732355e-04  -4.277324e-03  0 
 -6.958458e-04  -1.121418e-03  0 
 -9.711493e-04  -3.226239e-03  0 
 -1.171130e-04  -3.741606e-03  0 
 -1.163601e-03  -3.499208e-03  0 
 -1.172442e-03  -3.868324e-03  0 
 -6.536076e-04  -1.607309e-03  0 
 -8.548655e-04  -2.589218e-03  0 
 -9.714763e-04  -3.322359e-03  0 
 -6.712498e-04  -4.109082e-03  0 
 -1.158922e-04  -4.594878e-03  0 
 -1.092410e-03  -4.622193e-03  0 
 -8.709241e-04  -2.832140e-03  0 
VECTORS displacement_ITER22 FLOAT
 -1.129550e-03  -3.032213e-03  0 
 -3.634686e-04  -4.664855e-03  0 
 -1.079568e-03  -2.253431e-03  0 
 -1.572368e-03  -3.188020e-03  0 
 -5.021885e-04  -2.815469e-03  0 
 -1.527466e-04  -2.548238e-03  0 
 -1.189530e-03  -3.556043e-03  0 
 -1.246998e-03  -3.902122e-03  0 
 -1.284911e-03  -4.179516e-03  0 
 1.978960e-04  -3.919595e-03  0 
 1.757389e-04  -3.515702e-03  0 
 -8.526351e-04  -2.291279e-03  0 
 -6.674203e-04  -2.491107e-03  0 
 -1.463727e-03  -3.433139e-03  0 
 -1.510166e-03  -3.801539e-03  0 
 -1.808296e-03  -3.557344e-03  0 
 -1.491221e-03  -4.072798e-03  0 
 -1.611516e-03  -4.214451e-03  0 
 -1.721573e-03  -3.943012e-03  0 
 -1.452477e-03  -4.272733e-03  0 
 -7.081976e-04  -4.126614e-03  0 
 -3.041806e-04  -1.490374e-03  0 
 -7.691500e-04  -3.186495e-03  0 
 1.261702e-04  -3.712059e-03  0 
 -9.160356e-04  -3.445974e-03  0 
 -9.117403e-04  -3.754646e-03  0 
 -2.370710e-04  -1.882245e-03  0 
 -4.546760e-04  -2.753541e-03  0 
 -6.422981e-04  -3.324784e-03  0 
 -3.009933e-04  -4.004183e-03  0 
 -6.368705e-06  -4.104180e-03  0 
 -8.659594e-04  -4.347955e-03  0 
 -5.893227e-04  -2.929207e-03  0 
VECTORS displacement_ITER23 FLOAT
 -1.520110e-03  -2.644999e-03  0 
 5.189638e-04  -5.252402e-03  0 
 -1.469167e-03  -2.035700e-03  0 
 -1.941769e-03  -2.805433e-03  0 
 -1.067855e-03  -2.421486e-03  0 
 -5.615516e-04  -2.193642e-03  0 
 -1.580359e-03  -3.151049e-03  0 
 -1.637170e-03  -3.476702e-03  0 
 -1.675091e-03  -3.733974e-03  0 
 7.063601e-04  -4.078166e-03  0 
 6.354728e-04  -4.110206e-03  0 
 -1.446624e-03  -2.268616e-03  0 
 -1.164923e-03  -2.207971e-03  0 
 -1.840735e-03  -3.035206e-03  0 
 -1.883362e-03  -3.383586e-03  0 
 -2.161562e-03  -3.154015e-03  0 
 -1.864953e-03  -3.635943e-03  0 
 -1.973026e-03  -3.764940e-03  0 
 -2.075321e-03  -3.513074e-03  0 
 -1.829847e-03  -3.820473e-03  0 
 -1.090217e-03  -3.843384e-03  0 
 -2.650354e-04  -1.370866e-03  0 
 -1.262672e-03  -2.787846e-03  0 
 2.906102e-04  -3.965333e-03  0 
 -1.372328e-03  -3.080891e-03  0 
 -1.357041e-03  -3.407182e-03  0 
 -4.565810e-04  -1.716681e-03  0 
 -5.990669e-04  -2.686446e-03  0 
 -9.943509e-04  -3.136598e-03  0 
 -4.017798e-04  -4.083151e-03  0 
 3.134581e-04  -4.481689e-03  0 
 -1.339433e-03  -3.879207e-03  0 
 -1.031116e-03  -2.661448e-03  0 
VECTORS displacement_ITER24 FLOAT
 -1.287372e-03  -2.776178e-03  0 
 3.487542e-04  -3.975554e-03  0 
 -1.234810e-03  -2.174364e-03  0 
 -1.683416e-03  -2.943536e-03  0 
 -8.484763e-04  -2.545111e-03  0 
 -4.781863e-04  -3.021254e-03  0 
 -1.348090e-03  -3.260844e-03  0 
 -1.403305e-03  -3.562193e-03  0 
 -1.440312e-03  -3.796709e-03  0 
 5.727669e-04  -5.025592e-03  0 
 2.443337e-04  -4.668742e-03  0 
 -1.291867e-03  -2.753025e-03  0 
 -9.381174e-04  -2.341735e-03  0 
 -1.592011e-03  -3.153778e-03  0 
 -1.630206e-03  -3.477184e-03  0 
 -1.883176e-03  -3.266050e-03  0 
 -1.612128e-03  -3.707752e-03  0 
 -1.706229e-03  -3.821994e-03  0 
 -1.799880e-03  -3.592338e-03  0 
 -1.580709e-03  -3.875261e-03  0 
 -5.821504e-04  -4.149701e-03  0 
 -1.356792e-04  -2.730525e-03  0 
 -1.036634e-03  -2.961587e-03  0 
 5.058596e-04  -4.611732e-03  0 
 -1.080603e-03  -3.288016e-03  0 
 -9.616346e-04  -3.643444e-03  0 
 -2.289824e-04  -2.791799e-03  0 
 -2.144831e-04  -3.523288e-03  0 
 -4.663509e-04  -3.574139e-03  0 
 1.514317e-04  -4.405264e-03  0 
 6.117686e-04  -4.494200e-03  0 
 -9.522923e-04  -4.092648e-03  0 
 -6.108900e-04  -3.124415e-03  0 
VECTORS displacement_ITER25 FLOAT
 -1.466883e-03  -2.977399e-03  0 
 5.114097e-04  -4.644336e-03  0 
 -1.413451e-03  -2.241518e-03  0 
 -1.863099e-03  -3.150570e-03  0 
 -8.989991e-04  -2.740186e-03  0 
 -8.193436e-04  -3.212732e-03  0 
 -1.528267e-03  -3.465611e-03  0 
 -1.582584e-03  -3.767783e-03  0 
 -1.619153e-03  -4.004141e-03  0 
 2.583451e-04  -4.253171e-03  0 
 4.169816e-05  -4.365315e-03  0 
 -1.506527e-03  -3.025855e-03  0 
 -1.035354e-03  -2.458150e-03  0 
 -1.773015e-03  -3.358814e-03  0 
 -1.811204e-03  -3.681512e-03  0 
 -2.060875e-03  -3.471988e-03  0 
 -1.793041e-03  -3.914533e-03  0 
 -1.888876e-03  -4.030753e-03  0 
 -1.983951e-03  -3.798301e-03  0 
 -1.761383e-03  -4.084091e-03  0 
 -9.508504e-04  -4.124731e-03  0 
 -3.757240e-04  -2.746614e-03  0 