# vtk DataFile Version 3.1
this is an vtk file created by FEMAC
ASCII
DATASET UNSTRUCTURED_GRID
POINTS 21 FLOAT
4.000000 5.000000 0.000000
4.000000 6.000000 0.000000
4.000000 4.666667 0.000000
4.000000 5.333333 0.000000
4.000000 5.666667 0.000000
4.333333 5.000000 0.000000
4.666667 5.000000 0.000000
4.333333 6.000000 0.000000
4.666667 6.000000 0.000000
3.646123 5.276215 0.000000
4.672762 4.468141 0.000000
4.266180 4.353162 0.000000
4.406748 4.729649 0.000000
4.741627 4.786241 0.000000
4.185020 4.849079 0.000000
4.421480 5.735450 0.000000
4.515642 5.353540 0.000000
4.723211 5.710771 0.000000
4.211743 5.514832 0.000000
4.193311 5.783390 0.000000
4.212144 5.240341 0.000000
CELLS 25 100 
3 3 9 0
3 12  6  5
3 12 13  6
3 12 10 13
3 11 10 12
3 2 14  0
3 5 14 12
3 14  5  0
3 14  2 12
3 15  8  7
3 17  8 15
3 16 17 15
3 16  5  6
3 18  4  3
3 18 16 15
3 4 19  1
3 7 19 15
3 19  7  1
3 20  3  0
3 20  5 16
3 5 20  0
3 18 19  4
3 18 15 19
3 20 18  3
3 16 18 20
CELL_TYPES 25
5 5 5 5 5 5 5 5 5 5 5 5 5 5 5 5 5 5 5 5 5 5 5 5 5 
POINT_DATA 21
VECTORS displacement_ITER1 FLOAT
 2.593117e-01  -3.262835e-01  0 
 2.595770e-01  -3.775024e-01  0 
 2.416178e-01  -3.262317e-01  0 
 2.514742e-01  -3.264047e-01  0 
 2.554491e-01  -3.630234e-01  0 
 2.594378e-01  -3.440516e-01  0 
 2.595434e-01  -3.620279e-01  0 
 2.621217e-01  -3.712990e-01  0 
 2.659501e-01  -3.675807e-01  0 
 2.527414e-01  -3.347019e-01  0 
 2.306745e-01  -3.624110e-01  0 
 2.243684e-01  -3.401503e-01  0 
 2.449146e-01  -3.479211e-01  0 
 2.479829e-01  -3.661058e-01  0 
 2.513167e-01  -3.360774e-01  0 
 2.666395e-01  -3.650859e-01  0 
 2.662269e-01  -3.571116e-01  0 
 2.687867e-01  -3.653170e-01  0 
 2.638235e-01  -3.546315e-01  0 
 2.617405e-01  -3.688041e-01  0 
 2.578511e-01  -3.403742e-01  0 
VECTORS displacement_ITER2 FLOAT
 2.236204e-03  -9.435458e-02  0 
 6.134374e-02  -7.026999e-02  0 
 2.236927e-02  -9.432649e-02  0 
 3.101339e-02  -9.421898e-02  0 
 5.673295e-02  -7.495127e-02  0 
 2.632898e-03  -7.462597e-02  0 
 2.871100e-03  -5.538407e-02  0 
 7.308334e-02  -9.681496e-02  0 
 7.767156e-02  -1.287572e-01  0 
 2.618768e-02  -6.364404e-02  0 
 3.301109e-02  -5.528302e-02  0 
 3.925895e-02  -7.766820e-02  0 
 1.838003e-02  -7.014849e-02  0 
 1.509710e-02  -5.115946e-02  0 
 1.137678e-02  -8.321626e-02  0 
 5.163646e-02  -1.022238e-01  0 
 2.328245e-02  -9.823816e-02  0 
 5.394795e-02  -1.269453e-01  0 
 3.625957e-02  -9.082548e-02  0 
 5.682885e-02  -8.168934e-02  0 
 1.671339e-02  -9.139009e-02  0 
VECTORS displacement_ITER3 FLOAT
 -5.757985e-03  -4.026714e-02  0 
 2.068027e-02  -5.659014e-02  0 
 5.672714e-03  -4.002901e-02  0 
 2.969785e-03  -4.021222e-02  0 
 2.411681e-02  -5.481917e-02  0 
 -5.254988e-03  -2.917921e-02  0 
 -4.933500e-03  -1.856613e-02  0 
 2.870106e-02  -5.987926e-02  0 
 3.523310e-02  -7.104441e-02  0 
 1.509399e-03  -3.087897e-02  0 
 1.193629e-02  -1.791531e-02  0 
 1.610601e-02  -3.149504e-02  0 
 3.516189e-03  -2.655366e-02  0 
 1.903209e-03  -1.602660e-02  0 
 -4.653601e-04  -3.387033e-02  0 
 2.199619e-02  -5.771793e-02  0 
 8.485781e-03  -5.049657e-02  0 
 2.383858e-02  -6.706624e-02  0 
 1.534969e-02  -5.255524e-02  0 
 2.301011e-02  -5.350428e-02  0 
 -6.648099e-04  -4.189359e-02  0 
VECTORS displacement_ITER4 FLOAT
 2.200067e-03  -1.570257e-02  0 
 1.451276e-02  -1.598201e-02  0 
 4.418068e-03  -1.541127e-02  0 
 6.522500e-03  -1.568532e-02  0 
 1.077318e-02  -1.489764e-02  0 
 2.642588e-03  -1.373572e-02  0 
 2.883573e-03  -1.226569e-02  0 
 1.920709e-02  -2.616553e-02  0 
 2.301186e-02  -3.388752e-02  0 
 5.817341e-03  -1.104925e-02  0 
 5.306467e-03  -1.182950e-02  0 
 6.218149e-03  -1.423241e-02  0 
 3.968290e-03  -1.320930e-02  0 
 3.849014e-03  -1.185285e-02  0 
 3.318130e-03  -1.438394e-02  0 
 1.308264e-02  -2.536343e-02  0 
 5.497208e-03  -2.239018e-02  0 
 1.429108e-02  -3.188788e-02  0 
 7.989309e-03  -1.929406e-02  0 
 1.287772e-02  -1.982012e-02  0 
 3.935593e-03  -1.811723e-02  0 
VECTORS displacement_ITER5 FLOAT
 5.889106e-03  -1.299695e-02  0 
 1.095717e-02  -1.410455e-02  0 
 5.562030e-03  -1.260649e-02  0 
 7.069599e-03  -1.302442e-02  0 
 9.131364e-03  -1.322015e-02  0 
 6.231944e-03  -1.346042e-02  0 
 6.314391e-03  -1.425079e-02  0 
 1.521452e-02  -2.150707e-02  0 
 1.983103e-02  -2.176678e-02  0 
 6.867450e-03  -1.173330e-02  0 
 5.188637e-03  -1.419542e-02  0 
 5.113444e-03  -1.346177e-02  0 
 5.617046e-03  -1.362107e-02  0 
 5.758262e-03  -1.443290e-02  0 
 5.872450e-03  -1.306829e-02  0 
 1.349084e-02  -1.860733e-02  0 
 1.009943e-02  -1.458865e-02  0 
 1.690766e-02  -1.766480e-02  0 
 9.110137e-03  -1.550035e-02  0 
 1.127907e-02  -1.683587e-02  0 
 7.527703e-03  -1.422798e-02  0 
VECTORS displacement_ITER6 FLOAT
 4.963330e-03  -1.025386e-02  0 
 8.272486e-03  -1.036354e-02  0 
 4.658525e-03  -9.900017e-03  0 
 5.802025e-03  -1.031945e-02  0 
 7.090088e-03  -1.049987e-02  0 
 5.281371e-03  -1.065399e-02  0 
 5.401944e-03  -1.140828e-02  0 
 1.372585e-02  -2.018611e-02  0 
 1.841637e-02  -2.157932e-02  0 
 5.655607e-03  -9.354454e-03  0 
 4.159513e-03  -1.142887e-02  0 
 3.949079e-03  -1.035961e-02  0 
 4.760247e-03  -1.072987e-02  0 
 4.900038e-03  -1.158374e-02  0 
 4.950009e-03  -1.030182e-02  0 
 1.215993e-02  -1.715152e-02  0 
 9.604357e-03  -1.258215e-02  0 
 1.664886e-02  -1.653801e-02  0 
 7.666005e-03  -1.301153e-02  0 
 9.230766e-03  -1.435163e-02  0 
 6.527570e-03  -1.147574e-02  0 
VECTORS displacement_ITER7 FLOAT
 4.303018e-03  -9.794233e-03  0 
 7.884189e-03  -1.003436e-02  0 
 3.976976e-03  -9.438316e-03  0 
 5.368366e-03  -9.889156e-03  0 
 6.607825e-03  -9.989000e-03  0 
 4.596339e-03  -1.017905e-02  0 
 4.715417e-03  -1.086238e-02  0 
 1.306101e-02  -1.961840e-02  0 
 1.740427e-02  -2.076247e-02  0 
 5.147063e-03  -8.633483e-03  0 
 3.622254e-03  -1.083164e-02  0 
 3.412182e-03  -9.849058e-03  0 
 4.126184e-03  -1.023889e-02  0 
 4.256356e-03  -1.101014e-02  0 
 4.284459e-03  -9.846774e-03  0 
 1.185326e-02  -1.661314e-02  0 
 9.271890e-03  -1.194619e-02  0 
 1.666579e-02  -1.510886e-02  0 
 7.250157e-03  -1.248862e-02  0 
 8.842719e-03  -1.397246e-02  0 
 6.072369e-03  -1.095004e-02  0 
VECTORS displacement_ITER8 FLOAT
 4.633996e-03  -1.047827e-02  0 
 8.011560e-03  -1.071683e-02  0 
 4.297109e-03  -1.012764e-02  0 
 5.623873e-03  -1.060399e-02  0 
 6.805160e-03  -1.068598e-02  0 
 4.931832e-03  -1.087497e-02  0 
 5.063786e-03  -1.157304e-02  0 
 1.326014e-02  -2.035590e-02  0 
 1.763903e-02  -2.141151e-02  0 
 5.385617e-03  -9.438886e-03  0 
 3.916968e-03  -1.155333e-02  0 
 3.696518e-03  -1.052349e-02  0 
 4.451003e-03  -1.092665e-02  0 
 4.582768e-03  -1.173903e-02  0 
 4.610061e-03  -1.053570e-02  0 
 1.215383e-02  -1.728930e-02  0 
 9.505509e-03  -1.283057e-02  0 
 1.704703e-02  -1.556237e-02  0 
 7.516392e-03  -1.317431e-02  0 
 9.057256e-03  -1.467416e-02  0 
 6.332139e-03  -1.167717e-02  0 
VECTORS displacement_ITER9 FLOAT
 4.610397e-03  -1.057162e-02  0 
 8.096726e-03  -1.081434e-02  0 
 4.240108e-03  -1.022064e-02  0 
 5.641405e-03  -1.069339e-02  0 
 6.858197e-03  -1.077586e-02  0 
 4.904715e-03  -1.099738e-02  0 
 5.035358e-03  -1.171784e-02  0 
 1.329065e-02  -2.042198e-02  0 
 1.762794e-02  -2.150168e-02  0 
 5.397564e-03  -9.487890e-03  0 
 3.852378e-03  -1.170025e-02  0 
 3.621684e-03  -1.064697e-02  0 
 4.405361e-03  -1.105462e-02  0 
 4.540769e-03  -1.188763e-02  0 
 4.571803e-03  -1.064699e-02  0 
 1.217878e-02  -1.737605e-02  0 
 9.534505e-03  -1.296754e-02  0 
 1.707174e-02  -1.553007e-02  0 
 7.555923e-03  -1.328782e-02  0 
 9.107965e-03  -1.477377e-02  0 
 6.340110e-03  -1.178566e-02  0 
CELL_DATA 25
TENSORS element_stresses FLOAT
 8.816832e-02  -1.958174e-01  0 
 -1.958174e-01  -3.388410e-01  0 
 0  0  0 

 3.069927e-01  -1.599126e-01  0 
 -1.599126e-01  -2.831236e-01  0 
 0  0  0 

 -1.044378e-02  -1.206605e-01  0 
 -1.206605e-01  -7.678665e-02  0 
 0  0  0 

 2.678271e-02  -2.486514e-01  0 
 -2.486514e-01  -4.440678e-02  0 
 0  0  0 

 -6.869260e-02  -3.566433e-01  0 
 -3.566433e-01  -1.497724e-01  0 
 0  0  0 

 4.193991e-01  -1.195368e-01  0 
 -1.195368e-01  -9.271383e-01  0 
 0  0  0 

 2.033373e-01  -7.311111e-02  0 
 -7.311111e-02  -2.757713e-01  0 
 0  0  0 

 6.187002e-01  4.684506e-02  0 
 4.684506e-02  -8.808439e-01  0 
 0  0  0 

 6.181447e-02  -2.574709e-01  0 
 -2.574709e-01  -2.871162e-01  0 
 0  0  0 

 1.014724e-02  4.076378e-03  0 
 4.076378e-03  -9.548696e-03  0 
 0  0  0 

 1.176889e-02  7.444111e-03  0 
 7.444111e-03  -1.623598e-02  0 
 0  0  0 

 1.544571e-02  1.263626e-02  0 
 1.263626e-02  -5.607737e-03  0 
 0  0  0 

 -1.039014e-03  8.255426e-03  0 
 8.255426e-03  -4.769811e-03  0 
 0  0  0 

 6.415966e-03  -6.454077e-03  0 
 -6.454077e-03  1.677367e-03  0 
 0  0  0 

 8.598035e-03  3.059094e-03  0 
 3.059094e-03  -1.040290e-02  0 
 0  0  0 

 1.028564e-02  -1.299686e-02  0 
 -1.299686e-02  2.970265e-03  0 
 0  0  0 

 1.151781e-02  -4.248960e-03  0 
 -4.248960e-03  -1.301116e-02  0 
 0  0  0 

 1.466890e-02  -1.506588e-02  0 
 -1.506588e-02  -3.042950e-03  0 
 0  0  0 

 4.988771e-03  -1.704496e-03  0 
 -1.704496e-03  1.131340e-03  0 
 0  0  0 

 6.219939e-03  5.573823e-03  0 
 5.573823e-03  -2.547422e-03  0 
 0  0  0 

 -3.233115e-04  3.954061e-03  0 
 3.954061e-03  -4.020883e-03  0 
 0  0  0 

 6.397336e-03  -7.949343e-03  0 
 -7.949343e-03  -4.756598e-03  0 
 0  0  0 

 1.424722e-02  -4.577358e-03  0 
 -4.577358e-03  -2.134055e-03  0 
 0  0  0 

 3.948821e-03  -2.396500e-03  0 
 -2.396500e-03  -4.298915e-03  0 
 0  0  0 

 7.940431e-03  1.992517e-03  0 
 1.992517e-03  -3.093105e-03  0 
 0  0  0 

TENSORS element_stresses FLOAT
 8.816832e-02  -1.958174e-01  0 
 -1.958174e-01  -3.388410e-01  0 
 0  0  0 

 3.069927e-01  -1.599126e-01  0 
 -1.599126e-01  -2.831236e-01  0 
 0  0  0 

 -1.044378e-02  -1.206605e-01  0 
 -1.206605e-01  -7.678665e-02  0 
 0  0  0 

 2.678271e-02  -2.486514e-01  0 
 -2.486514e-01  -4.440678e-02  0 
 0  0  0 

 -6.869260e-02  -3.566433e-01  0 
 -3.566433e-01  -1.497724e-01  0 
 0  0  0 

 4.193991e-01  -1.195368e-01  0 
 -1.195368e-01  -9.271383e-01  0 
 0  0  0 

 2.033373e-01  -7.311111e-02  0 
 -7.311111e-02  -2.757713e-01  0 
 0  0  0 

 6.187002e-01  4.684506e-02  0 
 4.684506e-02  -8.808439e-01  0 
 0  0  0 

 6.181447e-02  -2.574709e-01  0 
 -2.574709e-01  -2.871162e-01  0 
 0  0  0 

 1.014724e-02  4.076378e-03  0 
 4.076378e-03  -9.548696e-03  0 
 0  0  0 

 1.176889e-02  7.444111e-03  0 
 7.444111e-03  -1.623598e-02  0 
 0  0  0 

 1.544571e-02  1.263626e-02  0 
 1.263626e-02  -5.607737e-03  0 
 0  0  0 

 -1.039014e-03  8.255426e-03  0 
 8.255426e-03  -4.769811e-03  0 
 0  0  0 

 6.415966e-03  -6.454077e-03  0 
 -6.454077e-03  1.677367e-03  0 
 0  0  0 

 8.598035e-03  3.059094e-03  0 
 3.059094e-03  -1.040290e-02  0 
 0  0  0 

 1.028564e-02  -1.299686e-02  0 
 -1.299686e-02  2.970265e-03  0 
 0  0  0 

 1.151781e-02  -4.248960e-03  0 
 -4.248960e-03  -1.301116e-02  0 
 0  0  0 

 1.466890e-02  -1.506588e-02  0 
 -1.506588e-02  -3.042950e-03  0 
 0  0  0 

 4.988771e-03  -1.704496e-03  0 
 -1.704496e-03  1.131340e-03  0 
 0  0  0 

 6.219939e-03  5.573823e-03  0 
 5.573823e-03  -2.547422e-03  0 
 0  0  0 

 -3.233115e-04  3.954061e-03  0 
 3.954061e-03  -4.020883e-03  0 
 0  0  0 

 6.397336e-03  -7.949343e-03  0 
 -7.949343e-03  -4.756598e-03  0 
 0  0  0 

 1.424722e-02  -4.577358e-03  0 
 -4.577358e-03  -2.134055e-03  0 
 0  0  0 

 3.948821e-03  -2.396500e-03  0 
 -2.396500e-03  -4.298915e-03  0 
 0  0  0 

 7.940431e-03  1.992517e-03  0 
 1.992517e-03  -3.093105e-03  0 
 0  0  0 

