# vtk DataFile Version 3.1
this is an vtk file created by FEMAC
ASCII
DATASET UNSTRUCTURED_GRID
POINTS 31 FLOAT
4.000000 3.000000 0.000000
3.500000 3.000000 0.000000
3.750000 3.000000 0.000000
3.500000 4.000000 0.000000
4.000000 3.250000 0.000000
4.000000 3.500000 0.000000
4.250000 3.000000 0.000000
4.500000 3.000000 0.000000
3.447447 3.528256 0.000000
3.813081 3.669072 0.000000
3.813653 3.331392 0.000000
3.775000 3.500000 0.000000
3.660928 3.805846 0.000000
3.661595 3.194695 0.000000
3.413341 3.323754 0.000000
3.453287 3.717271 0.000000
3.616917 3.404183 0.000000
3.613486 3.598598 0.000000
3.845050 3.155217 0.000000
4.507893 2.661856 0.000000
4.761003 2.832250 0.000000
4.245757 2.832172 0.000000
4.675053 3.181152 0.000000
4.331361 3.185869 0.000000
4.500000 3.225000 0.000000
4.192042 3.332273 0.000000
4.300774 3.567728 0.000000
4.429311 3.390203 0.000000
4.649535 3.397124 0.000000
4.588195 3.700568 0.000000
4.154680 3.153628 0.000000
CELLS 42 168 
3 5 10  4
3 9 11  5
3 11 10  5
3 16 10 11
3 9 17 11
3 2 13  1
3 12 17  9
3 16 13 10
3 16 17  8
3 16 11 17
3 1 13 14
3 16  8 14
3 14 13 16
3 12  3 15
3 8 17 15
3 12 15 17
3 18  2  0
3 18  4 10
3 4 18  0
3 18 13  2
3 10 13 18
3 21  6  0
3 19 20  7
3 21  7  6
3 21 19  7
3 7 23  6
3 22 24  7
3 24 23  7
3 27 23 24
3 22 28 24
3 4 25  5
3 27 25 23
3 27 24 28
3 5 25 26
3 26 25 27
3 30  4  0
3 30  6 23
3 6 30  0
3 30 25  4
3 23 25 30
3 27 29 26
3 27 28 29
CELL_TYPES 42
5 5 5 5 5 5 5 5 5 5 5 5 5 5 5 5 5 5 5 5 5 5 5 5 5 5 5 5 5 5 5 5 5 5 5 5 5 5 5 5 5 5 
POINT_DATA 31
VECTORS displacement_ITER1 FLOAT
 8.539291e-03  -1.927869e-01  0 
 8.546914e-03  -1.811310e-01  0 
 8.542947e-03  -1.869516e-01  0 
 3.156735e-02  -1.811701e-01  0 
 1.434792e-02  -1.927725e-01  0 
 2.013205e-02  -1.927460e-01  0 
 8.534459e-03  -2.362977e-01  0 
 8.537586e-03  -2.798128e-01  0 
 2.077387e-02  -1.799502e-01  0 
 2.401365e-02  -1.883928e-01  0 
 1.623556e-02  -1.884304e-01  0 
 2.012973e-02  -1.875276e-01  0 
 2.714430e-02  -1.848672e-01  0 
 1.306551e-02  -1.848954e-01  0 
 1.604806e-02  -1.791417e-01  0 
 2.512048e-02  -1.801044e-01  0 
 1.791563e-02  -1.838660e-01  0 
 2.239987e-02  -1.837899e-01  0 
 1.214923e-02  -1.891657e-01  0 
 -5.029956e-02  -2.812024e-01  0 
 -2.064996e-02  -3.252842e-01  0 
 -2.066217e-02  -2.355642e-01  0 
 8.069231e-03  -2.819114e-01  0 
 1.533748e-02  -2.430049e-01  0 
 1.458286e-02  -2.639853e-01  0 
 1.869297e-02  -2.199529e-01  0 
 3.404061e-02  -2.404098e-01  0 
 2.378130e-02  -2.539946e-01  0 
 2.389066e-02  -2.751387e-01  0 
 3.835245e-02  -2.729340e-01  0 
 1.407697e-02  -2.164885e-01  0 
VECTORS displacement_ITER2 FLOAT
 2.908920e-02  -1.640194e-01  0 
 2.906799e-02  -1.554692e-01  0 
 2.907139e-02  -1.597370e-01  0 
 4.599081e-02  -1.554558e-01  0 
 3.331711e-02  -1.640002e-01  0 
 3.755093e-02  -1.639931e-01  0 
 2.911274e-02  -1.935772e-01  0 
 2.912374e-02  -2.231153e-01  0 
 3.802097e-02  -1.545918e-01  0 
 4.039756e-02  -1.608084e-01  0 
 3.469592e-02  -1.608254e-01  0 
 3.754692e-02  -1.601652e-01  0 
 4.270933e-02  -1.582086e-01  0 
 3.237976e-02  -1.582343e-01  0 
 3.456115e-02  -1.540097e-01  0 
 4.121885e-02  -1.546875e-01  0 
 3.592493e-02  -1.574749e-01  0 
 3.921128e-02  -1.574156e-01  0 
 3.171496e-02  -1.613678e-01  0 
 -1.079735e-02  -2.240464e-01  0 
 9.324328e-03  -2.539719e-01  0 
 9.301243e-03  -1.930702e-01  0 
 3.201805e-02  -2.330857e-01  0 
 3.396170e-02  -1.992321e-01  0 
 3.539449e-02  -2.171109e-01  0 
 3.707091e-02  -1.826178e-01  0 
 5.343926e-02  -2.008085e-01  0 
 4.352187e-02  -2.110699e-01  0 
 4.590592e-02  -2.316754e-01  0 
 6.356388e-02  -2.331287e-01  0 
 3.297453e-02  -1.802145e-01  0 
VECTORS displacement_ITER3 FLOAT
 5.597028e-03  -1.212521e-01  0 
 5.524631e-03  -1.021107e-01  0 
 5.542168e-03  -1.116758e-01  0 
 4.379737e-02  -1.020093e-01  0 
 1.507106e-02  -1.212229e-01  0 
 2.459958e-02  -1.212397e-01  0 
 5.667776e-03  -1.325245e-01  0 
 5.690260e-03  -1.437291e-01  0 
 2.569145e-02  -1.000790e-01  0 
 3.106049e-02  -1.141023e-01  0 
 1.817120e-02  -1.141185e-01  0 
 2.460151e-02  -1.126379e-01  0 
 3.631609e-02  -1.082487e-01  0 
 1.296799e-02  -1.083074e-01  0 
 1.788774e-02  -9.879871e-02  0 
 3.293189e-02  -1.002661e-01  0 
 2.094823e-02  -1.065863e-01  0 
 2.837131e-02  -1.064419e-01  0 
 1.147633e-02  -1.153314e-01  0 
 -9.418914e-03  -1.440563e-01  0 
 -1.795489e-03  -1.554099e-01  0 
 -1.835989e-03  -1.323121e-01  0 
 1.482979e-02  -1.628877e-01  0 
 1.230608e-02  -1.378748e-01  0 
 1.563255e-02  -1.495756e-01  0 
 1.866826e-02  -1.303989e-01  0 
 3.256179e-02  -1.391199e-01  0 
 2.331159e-02  -1.470841e-01  0 
 2.588311e-02  -1.640236e-01  0 
 4.311273e-02  -1.639876e-01  0 
 1.116021e-02  -1.285762e-01  0 
VECTORS displacement_ITER4 FLOAT
 -6.255226e-03  -1.074762e-01  0 
 -6.357757e-03  -8.133737e-02  0 
 -6.332101e-03  -9.440163e-02  0 
 4.599961e-02  -8.118013e-02  0 
 6.685216e-03  -1.074373e-01  0 
 1.970905e-02  -1.074657e-01  0 
 -6.154652e-03  -1.078386e-01  0 
 -6.125291e-03  -1.081010e-01  0 
 2.121261e-02  -7.854409e-02  0 
 2.855570e-02  -9.771771e-02  0 
 1.092298e-02  -9.773659e-02  0 
 1.971596e-02  -9.571293e-02  0 
 3.575131e-02  -8.971794e-02  0 
 3.813626e-03  -8.979975e-02  0 
 1.054199e-02  -7.680164e-02  0 
 3.111889e-02  -7.879345e-02  0 
 1.472252e-02  -8.744323e-02  0 
 2.487536e-02  -8.724250e-02  0 
 1.775026e-03  -9.939345e-02  0 
 -6.427476e-03  -1.080716e-01  0 
 -6.264518e-03  -1.083415e-01  0 
 -6.312901e-03  -1.078022e-01  0 
 4.903925e-03  -1.289642e-01  0 
 1.561253e-03  -1.125832e-01  0 
 4.866592e-03  -1.187394e-01  0 
 9.819453e-03  -1.108844e-01  0 
 1.904072e-02  -1.109710e-01  0 
 1.146412e-02  -1.176514e-01  0 
 1.272593e-02  -1.296637e-01  0 
 2.593872e-02  -1.263621e-01  0 
 4.529483e-04  -1.095194e-01  0 
VECTORS displacement_ITER5 FLOAT
 -3.737229e-03  -7.810602e-02  0 
 -3.833748e-03  -5.824678e-02  0 
 -3.811825e-03  -6.816637e-02  0 
 3.596068e-02  -5.807852e-02  0 
 6.057746e-03  -7.805642e-02  0 
 1.593892e-02  -7.808756e-02  0 
 -3.632339e-03  -7.776658e-02  0 
 -3.603690e-03  -7.731523e-02  0 
 1.707321e-02  -5.611086e-02  0 
 2.265280e-02  -7.069863e-02  0 
 9.270330e-03  -7.069790e-02  0 
 1.593918e-02  -6.916384e-02  0 
 2.813041e-02  -6.461412e-02  0 
 3.883212e-03  -6.467375e-02  0 
 8.984309e-03  -5.479915e-02  0 
 2.460233e-02  -5.627976e-02  0 
 1.215024e-02  -6.287866e-02  0 
 1.985184e-02  -6.272425e-02  0 
 2.342115e-03  -7.196254e-02  0 
 -2.937432e-03  -7.727114e-02  0 
 -3.266105e-03  -7.681744e-02  0 
 -3.310282e-03  -7.774364e-02  0 
 4.571173e-03  -9.437783e-02  0 
 1.962141e-03  -8.108849e-02  0 
 4.513234e-03  -8.603408e-02  0 
 8.752040e-03  -7.942708e-02  0 
 1.785424e-02  -7.925023e-02  0 
 1.044884e-02  -8.486743e-02  0 
 1.172857e-02  -9.611029e-02  0 
 2.655170e-02  -9.331644e-02  0 
 1.337648e-03  -7.906238e-02  0 
VECTORS displacement_ITER6 FLOAT
 2.074300e-03  -5.765465e-02  0 
 1.994023e-03  -4.481989e-02  0 
 2.010159e-03  -5.122188e-02  0 
 2.769289e-02  -4.466495e-02  0 
 8.364385e-03  -5.759781e-02  0 
 1.472996e-02  -5.762436e-02  0 
 2.175256e-03  -5.919146e-02  0 
 2.200583e-03  -6.061144e-02  0 
 1.545493e-02  -4.342909e-02  0 
 1.905589e-02  -5.286852e-02  0 
 1.043228e-02  -5.285569e-02  0 
 1.472591e-02  -5.186732e-02  0 
 2.259926e-02  -4.893351e-02  0 
 6.967477e-03  -4.896984e-02  0 
 1.025065e-02  -4.259191e-02  0 
 2.031638e-02  -4.352027e-02  0 
 1.228503e-02  -4.780606e-02  0 
 1.724447e-02  -4.770496e-02  0 
 5.980386e-03  -5.367921e-02  0 
 3.366259e-04  -6.063743e-02  0 
 1.278389e-03  -6.207895e-02  0 
 1.241180e-03  -5.914141e-02  0 
 5.450789e-03  -6.844790e-02  0 
 5.689766e-03  -6.074752e-02  0 
 6.259164e-03  -6.337679e-02  0 
 1.023856e-02  -5.853160e-02  0 
 1.554640e-02  -5.665713e-02  0 
 1.037620e-02  -6.117094e-02  0 
 1.034186e-02  -6.850837e-02  0 
 2.106976e-02  -6.438652e-02  0 
 5.504284e-03  -5.886493e-02  0 
VECTORS displacement_ITER7 FLOAT
 4.408695e-03  -3.377037e-02  0 
 4.340095e-03  -2.255720e-02  0 
 4.353870e-03  -2.814578e-02  0 
 2.673980e-02  -2.242661e-02  0 
 9.897571e-03  -3.371128e-02  0 
 1.544920e-02  -3.373021e-02  0 
 4.503089e-03  -3.858280e-02  0 
 4.525323e-03  -4.328258e-02  0 
 1.607911e-02  -2.134649e-02  0 
 1.921893e-02  -2.958056e-02  0 
 1.170190e-02  -2.957147e-02  0 
 1.544541e-02  -2.870804e-02  0 
 2.230311e-02  -2.615057e-02  0 
 8.679582e-03  -2.618004e-02  0 
 1.154243e-02  -2.061337e-02  0 
 2.031480e-02  -2.142931e-02  0 
 1.331712e-02  -2.516450e-02  0 
 1.763983e-02  -2.507759e-02  0 
 7.819238e-03  -3.029217e-02  0 
 -1.775359e-03  -4.341763e-02  0 
 1.399455e-03  -4.818185e-02  0 
 1.367222e-03  -3.848094e-02  0 
 5.154592e-03  -4.301884e-02  0 
 8.036560e-03  -3.924886e-02  0 
 7.051573e-03  -4.027664e-02  0 
 1.145051e-02  -3.626446e-02  0 
 1.280019e-02  -3.286061e-02  0 
 9.949636e-03  -3.682829e-02  0 
 8.472326e-03  -4.018693e-02  0 
 1.357191e-02  -3.416171e-02  0 
 7.769494e-03  -3.643942e-02  0 
VECTORS displacement_ITER8 FLOAT
 1.373944e-03  -1.875569e-02  0 
 1.317436e-03  -1.483261e-02  0 
 1.327655e-03  -1.677196e-02  0 
 9.095616e-03  -1.471972e-02  0 
 3.223994e-03  -1.869219e-02  0 
 5.127768e-03  -1.871049e-02  0 
 1.460844e-03  -2.659368e-02  0 
 1.480604e-03  -3.432888e-02  0 
 5.329712e-03  -1.439802e-02  0 
 6.417908e-03  -1.729194e-02  0 
 3.838835e-03  -1.726810e-02  0 
 5.117599e-03  -1.697211e-02  0 
 7.497925e-03  -1.608908e-02  0 
 2.811331e-03  -1.609503e-02  0 
 3.786080e-03  -1.415823e-02  0 
 6.799031e-03  -1.439867e-02  0 
 4.387091e-03  -1.573532e-02  0 
 5.864864e-03  -1.570362e-02  0 
 2.526916e-03  -1.752990e-02  0 
 -8.922534e-03  -3.456246e-02  0 
 -3.681257e-03  -4.240209e-02  0 
 -3.710220e-03  -2.644367e-02  0 
 1.390550e-03  -3.239098e-02  0 
 3.445213e-03  -2.652390e-02  0 
 2.896175e-03  -2.952054e-02  0 
 4.949076e-03  -2.181164e-02  0 
 9.509403e-03  -2.330925e-02  0 
 6.009151e-03  -2.623654e-02  0 
 6.138927e-03  -3.164004e-02  0 
 1.523943e-02  -2.904428e-02  0 
 3.207943e-03  -2.228937e-02  0 
VECTORS displacement_ITER9 FLOAT
 7.293296e-03  -1.870472e-02  0 
 7.246650e-03  -2.182174e-02  0 
 7.252627e-03  -2.023463e-02  0 
 9.191561e-04  -2.171600e-02  0 
 5.627849e-03  -1.863601e-02  0 
 4.006633e-03  -1.865533e-02  0 
 7.375624e-03  -2.576812e-02  0 
 7.390960e-03  -3.271976e-02  0 
 3.805501e-03  -2.213082e-02  0 
 2.909682e-03  -1.987218e-02  0 
 5.094240e-03  -1.983662e-02  0 
 3.994481e-03  -2.008694e-02  0 
 2.060790e-03  -2.081374e-02  0 
 5.993121e-03  -2.080438e-02  0 
 5.147908e-03  -2.236973e-02  0 
 2.608111e-03  -2.204964e-02  0 
 4.614762e-03  -2.107682e-02  0 
 3.349218e-03  -2.109550e-02  0 
 6.265443e-03  -1.965442e-02  0 
 -1.942677e-03  -3.292637e-02  0 
 2.760968e-03  -3.996794e-02  0 
 2.728984e-03  -2.563630e-02  0 
 4.915776e-03  -2.797555e-02  0 
 7.090639e-03  -2.466263e-02  0 
 6.100300e-03  -2.673806e-02  0 
 6.640482e-03  -2.035694e-02  0 
 1.004230e-02  -2.234056e-02  0 
 7.829220e-03  -2.391476e-02  0 
 8.185587e-03  -2.791962e-02  0 
 1.589738e-02  -2.663670e-02  0 
 7.218541e-03  -2.134640e-02  0 
VECTORS displacement_ITER10 FLOAT
 1.193663e-03  -1.202072e-02  0 
 1.132083e-03  -1.005496e-02  0 
 1.142599e-03  -1.100865e-02  0 
 5.001437e-03  -9.928303e-03  0 
 2.053471e-03  -1.194762e-02  0 
 2.969087e-03  -1.197199e-02  0 
 1.282021e-03  -1.622118e-02  0 
 1.296895e-03  -2.029511e-02  0 
 3.067548e-03  -9.817346e-03  0 
 3.602734e-03  -1.128675e-02  0 
 2.346145e-03  -1.125958e-02  0 
 2.961710e-03  -1.111406e-02  0 
 4.157259e-03  -1.067087e-02  0 
 1.859378e-03  -1.068271e-02  0 
 2.327562e-03  -9.717920e-03  0 
 3.800326e-03  -9.787154e-03  0 
 2.609264e-03  -1.049563e-02  0 
 3.325207e-03  -1.047296e-02  0 
 1.733254e-03  -1.139830e-02  0 
 -4.139205e-03  -2.040319e-02  0 
 -1.397380e-03  -2.452675e-02  0 
 -1.435173e-03  -1.613740e-02  0 
 -4.347585e-04  -1.638651e-02  0 
 2.089389e-03  -1.548878e-02  0 
 8.980810e-04  -1.578747e-02  0 
 2.899629e-03  -1.292056e-02  0 
 4.053183e-03  -1.161752e-02  0 
 2.433342e-03  -1.324808e-02  0 
 1.877919e-03  -1.530272e-02  0 
 6.920742e-03  -1.246048e-02  0 
 2.157359e-03  -1.366300e-02  0 
VECTORS displacement_ITER11 FLOAT
 -5.778641e-03  -1.054907e-02  0 
 -5.855408e-03  -5.910789e-03  0 
 -5.840753e-03  -8.201394e-03  0 
 3.405405e-03  -5.761344e-03  0 
 -3.597132e-03  -1.047516e-02  0 
 -1.345745e-03  -1.050752e-02  0 
 -5.683216e-03  -1.168961e-02  0 
 -5.667508e-03  -1.269231e-02  0 
 -1.088684e-03  -5.378910e-03  0 
 2.023801e-04  -8.821054e-03  0 
 -2.870682e-03  -8.795000e-03  0 
 -1.351077e-03  -8.441507e-03  0 
 1.503299e-03  -7.379545e-03  0 
 -4.085558e-03  -7.404937e-03  0 
 -2.925940e-03  -5.105395e-03  0 
 6.659612e-04  -5.370272e-03  0 
 -2.216363e-03  -6.973936e-03  0 
 -4.548478e-04  -6.927848e-03  0 
 -4.419977e-03  -9.102870e-03  0 
 -6.944436e-03  -1.269584e-02  0 
 -6.296185e-03  -1.370562e-02  0 
 -6.339434e-03  -1.165599e-02  0 
 -5.430301e-03  -1.257420e-02  0 
 -4.340319e-03  -1.140989e-02  0 
 -4.714447e-03  -1.153736e-02  0 
 -2.661542e-03  -1.029360e-02  0 
 -6.620941e-04  -8.680477e-03  0 
 -2.802721e-03  -1.000856e-02  0 
 -2.790108e-03  -1.265538e-02  0 
 3.507371e-03  -1.079268e-02  0 
 -4.364905e-03  -1.089793e-02  0 
VECTORS displacement_ITER12 FLOAT
 -3.835596e-03  -1.105929e-02  0 
 -3.917237e-03  -6.385903e-03  0 
 -3.902187e-03  -8.693815e-03  0 
 5.434855e-03  -6.226350e-03  0 
 -1.640728e-03  -1.098643e-02  0 
 6.287080e-04  -1.102283e-02  0 
 -3.736935e-03  -1.065243e-02  0 
 -3.721405e-03  -1.009935e-02  0 
 8.922585e-04  -5.842616e-03  0 
 2.194276e-03  -9.320355e-03  0 
 -9.089245e-04  -9.293919e-03  0 
 6.246945e-04  -8.936756e-03  0 
 3.512123e-03  -7.861009e-03  0 
 -2.133166e-03  -7.891738e-03  0 
 -9.622353e-04  -5.569886e-03  0 
 2.665710e-03  -5.830731e-03  0 
 -2.477923e-04  -7.455187e-03  0 
 1.531166e-03  -7.406514e-03  0 
 -2.469514e-03  -9.604080e-03  0 
 -2.889393e-03  -1.004954e-02  0 
 -3.302457e-03  -9.480391e-03  0 
 -3.349432e-03  -1.064500e-02  0 
 -2.827047e-03  -1.154291e-02  0 
 -2.516276e-03  -1.048970e-02  0 
 -2.509658e-03  -1.048083e-02  0 
 -8.021274e-04  -1.014912e-02  0 
 1.319859e-03  -8.608281e-03  0 
 -7.312375e-04  -9.573192e-03  0 
 -3.762171e-04  -1.224478e-02  0 
 5.902483e-03  -1.115104e-02  0 
 -2.547442e-03  -1.069919e-02  0 
VECTORS displacement_ITER13 FLOAT
 -6.889291e-03  -9.143242e-03  0 
 -6.976825e-03  -4.113560e-03  0 
 -6.960472e-03  -6.601730e-03  0 
 3.104528e-03  -3.946540e-03  0 
 -4.521463e-03  -9.072488e-03  0 
 -2.071792e-03  -9.110910e-03  0 
 -6.787728e-03  -8.595747e-03  0 
 -6.770265e-03  -7.903561e-03  0 
 -1.785526e-03  -3.525937e-03  0 
 -3.812595e-04  -7.271723e-03  0 
 -3.731233e-03  -7.246564e-03  0 
 -2.075100e-03  -6.860445e-03  0 
 1.038835e-03  -5.699021e-03  0 
 -5.052655e-03  -5.735604e-03  0 
 -3.788025e-03  -3.231730e-03  0 
 1.265413e-04  -3.515768e-03  0 
 -3.016665e-03  -5.264118e-03  0 
 -1.095944e-03  -5.210827e-03  0 
 -5.416985e-03  -7.580519e-03  0 
 -5.751846e-03  -7.848953e-03  0 
 -6.258848e-03  -7.140442e-03  0 
 -6.305626e-03  -8.588629e-03  0 
 -5.537581e-03  -1.048177e-02  0 
 -5.535869e-03  -8.723196e-03  0 
 -5.316094e-03  -9.048801e-03  0 
 -3.705772e-03  -8.441053e-03  0 
 -1.208409e-03  -7.435773e-03  0 
 -3.442541e-03  -8.417972e-03  0 
 -2.882705e-03  -1.149255e-02  0 
 3.604352e-03  -1.104631e-02  0 
 -5.578676e-03  -8.844616e-03  0 
VECTORS displacement_ITER14 FLOAT
 -5.255052e-03  -7.340644e-03  0 
 -5.340817e-03  -3.598493e-03  0 
 -5.325431e-03  -5.444305e-03  0 
 2.154739e-03  -3.437743e-03  0 
 -3.529119e-03  -7.272252e-03  0 
 -1.722014e-03  -7.308274e-03  0 
 -5.154254e-03  -7.917353e-03  0 
 -5.135577e-03  -8.354426e-03  0 
 -1.508029e-03  -3.146411e-03  0 
 -4.671679e-04  -5.947741e-03  0 
 -2.947377e-03  -5.923948e-03  0 
 -1.724703e-03  -5.636255e-03  0 
 5.973606e-04  -4.768270e-03  0 
 -3.917657e-03  -4.804218e-03  0 
 -2.984053e-03  -2.938342e-03  0 
 -8.530725e-05  -3.124396e-03  0 
 -2.419407e-03  -4.447319e-03  0 
 -9.994910e-04  -4.403048e-03  0 
 -4.181527e-03  -6.177632e-03  0 
 -5.649581e-03  -8.340088e-03  0 
 -5.386045e-03  -8.778380e-03  0 
 -5.429250e-03  -7.890388e-03  0 
 -5.654498e-03  -8.758617e-03  0 
 -4.441341e-03  -7.961362e-03  0 
 -4.948527e-03  -7.846875e-03  0 
 -3.091316e-03  -7.267683e-03  0 
 -2.201411e-03  -5.730955e-03  0 
 -3.690219e-03  -6.831107e-03  0 
 -3.828672e-03  -8.748693e-03  0 
 2.918625e-04  -7.661226e-03  0 
 -4.316385e-03  -7.648880e-03  0 
VECTORS displacement_ITER15 FLOAT
 -2.156805e-03  -5.317077e-03  0 
 -2.237646e-03  -4.014409e-03  0 
 -2.223653e-03  -4.640693e-03  0 
 3.516831e-04  -3.866787e-03  0 
 -1.646675e-03  -5.248796e-03  0 
 -1.060896e-03  -5.281380e-03  0 
 -2.058389e-03  -7.149561e-03  0 
 -2.039183e-03  -8.849924e-03  0 
 -9.881395e-04  -3.825823e-03  0 
 -6.370903e-04  -4.834374e-03  0 
 -1.461955e-03  -4.808700e-03  0 
 -1.064341e-03  -4.710164e-03  0 
 -2.476728e-04  -4.403208e-03  0 
 -1.765421e-03  -4.431338e-03  0 
 -1.462707e-03  -3.780044e-03  0 
 -4.944268e-04  -3.780014e-03  0 
 -1.290344e-03  -4.294571e-03  0 
 -8.234985e-04  -4.269497e-03  0 
 -1.837572e-03  -4.908844e-03  0 
 -4.266644e-03  -8.881360e-03  0 
 -3.141986e-03  -1.060157e-02  0 
 -3.180061e-03  -7.101124e-03  0 
 -4.013658e-03  -7.447966e-03  0 
 -2.084416e-03  -6.935281e-03  0 
 -3.042517e-03  -6.853722e-03  0 
 -1.432885e-03  -5.620046e-03  0 
 -1.023781e-03  -4.506801e-03  0 
 -2.155346e-03  -5.536019e-03  0 
 -2.507178e-03  -7.118323e-03  0 
 9.061733e-04  -5.998708e-03  0 
 -1.809483e-03  -6.120344e-03  0 
VECTORS displacement_ITER16 FLOAT
 -1.028713e-03  -6.033749e-03  0 
 -1.109410e-03  -5.027842e-03  0 
 -1.094654e-03  -5.505501e-03  0 
 8.742336e-04  -4.888334e-03  0 
 -6.666550e-04  -5.964230e-03  0 
 -2.312002e-04  -5.996049e-03  0 
 -9.292912e-04  -7.324070e-03  0 
 -9.094431e-04  -8.484860e-03  0 
 -1.772931e-04  -4.876344e-03  0 
 8.852466e-05  -5.663294e-03  0 
 -5.307731e-04  -5.636204e-03  0 
 -2.352155e-04  -5.561739e-03  0 
 3.929867e-04  -5.326537e-03  0 
 -7.526730e-04  -5.349770e-03  0 
 -5.282050e-04  -4.848476e-03  0 
 2.010722e-04  -4.829260e-03  0 
 -4.035493e-04  -5.241347e-03  0 
 -5.492505e-05  -5.220173e-03  0 
 -8.010116e-04  -5.717043e-03  0 
 -2.407449e-03  -8.499669e-03  0 
 -1.650961e-03  -9.673528e-03  0 
 -1.687801e-03  -7.283807e-03  0 
 -2.518950e-03  -7.848839e-03  0 
 -1.048582e-03  -7.089045e-03  0 
 -1.760585e-03  -7.151291e-03  0 
 -4.075666e-04  -5.960342e-03  0 
 5.884117e-04  -5.213171e-03  0 
 -7.601716e-04  -6.069750e-03  0 
 -8.436380e-04  -8.021063e-03  0 
 3.369672e-03  -7.282491e-03  0 
 -7.773205e-04  -6.518214e-03  0 
VECTORS displacement_ITER17 FLOAT
 -1.372043e-03  -6.790664e-03  0 
 -1.454059e-03  -5.151139e-03  0 
 -1.438369e-03  -5.944905e-03  0 
 1.793536e-03  -5.014473e-03  0 
 -6.948390e-04  -6.719274e-03  0 
 5.611900e-05  -6.751244e-03  0 
 -1.270446e-03  -7.178818e-03  0 
 -1.250216e-03  -7.435506e-03  0 
 1.453860e-04  -4.934973e-03  0 
 5.891795e-04  -6.183922e-03  0 
 -4.562023e-04  -6.156714e-03  0 
 5.203342e-05  -6.033839e-03  0 
 1.066052e-03  -5.656159e-03  0 
 -8.506499e-04  -5.678258e-03  0 
 -4.637355e-04  -4.863487e-03  0 
 7.624626e-04  -4.895789e-03  0 
 -2.373160e-04  -5.513822e-03  0 
 3.566405e-04  -5.488894e-03  0 
 -9.483372e-04  -6.277191e-03  0 
 -1.523438e-03  -7.420008e-03  0 
 -1.383723e-03  -7.677214e-03  0 
 -1.421807e-03  -7.153070e-03  0 
 -2.386986e-03  -7.747317e-03  0 
 -1.284167e-03  -7.037368e-03  0 
 -1.799513e-03  -6.994736e-03  0 
 -4.278238e-04  -6.324190e-03  0 
 7.079860e-04  -5.362679e-03  0 
 -7.461617e-04  -6.163717e-03  0 
 -7.653624e-04  -8.156490e-03  0 
 3.600023e-03  -7.459270e-03  0 
 -1.025796e-03  -6.873859e-03  0 
VECTORS displacement_ITER18 FLOAT
 -1.235921e-03  -6.574248e-03  0 
 -1.317314e-03  -5.016720e-03  0 
 -1.301880e-03  -5.769024e-03  0 
 1.755733e-03  -4.885615e-03  0 
 -5.996485e-04  -6.502229e-03  0 
 1.094578e-04  -6.533135e-03  0 
 -1.134834e-03  -7.042320e-03  0 
 -1.114751e-03  -7.379771e-03  0 
 1.942459e-04  -4.810529e-03  0 
 6.138437e-04  -5.996428e-03  0 
 -3.742569e-04  -5.970333e-03  0 
 1.057626e-04  -5.853538e-03  0 
 1.065805e-03  -5.495337e-03  0 
 -7.461464e-04  -5.517057e-03  0 
 -3.805836e-04  -4.743554e-03  0 
 7.779900e-04  -4.772464e-03  0 
 -1.673453e-04  -5.360270e-03  0 
 3.937070e-04  -5.336241e-03  0 
 -8.373794e-04  -6.085728e-03  0 
 -1.497248e-03  -7.366702e-03  0 
 -1.302435e-03  -7.705776e-03  0 
 -1.340351e-03  -7.015267e-03  0 
 -2.411537e-03  -7.418860e-03  0 
 -1.187219e-03  -6.951055e-03  0 
 -1.781037e-03  -6.791203e-03  0 
 -4.359395e-04  -6.303706e-03  0 
 1.796364e-04  -5.248216e-03  0 
 -9.461870e-04  -5.995627e-03  0 
 -1.098685e-03  -7.549629e-03  0 
 2.261497e-03  -6.803299e-03  0 
 -9.328886e-04  -6.755894e-03  0 
VECTORS displacement_ITER19 FLOAT
 -4.085976e-04  -5.206692e-03  0 
 -4.880559e-04  -4.509160e-03  0 
 -4.736838e-04  -4.831516e-03  0 
 8.532825e-04  -4.384027e-03  0 
 -2.010231e-04  -5.134814e-03  0 
 7.759210e-05  -5.164684e-03  0 
 -3.094850e-04  -6.035707e-03  0 
 -2.897990e-04  -6.737888e-03  0 
 1.131035e-04  -4.394953e-03  0 
 2.892797e-04  -4.949198e-03  0 
 -1.154913e-04  -4.922861e-03  0 
 7.386896e-05  -4.872391e-03  0 
 5.032902e-04  -4.711218e-03  0 
 -2.522524e-04  -4.731118e-03  0 
 -1.084356e-04  -4.385047e-03  0 
 3.688051e-04  -4.348861e-03  0 
 -3.379887e-05  -4.651482e-03  0 
 1.912019e-04  -4.633991e-03  0 
 -2.760620e-04  -4.984338e-03  0 
 -1.166543e-03  -6.737721e-03  0 
 -7.232988e-04  -7.446509e-03  0 
 -7.593963e-04  -6.002786e-03  0 
 -1.766056e-03  -6.842283e-03  0 
 -6.083697e-04  -5.974611e-03  0 
 -1.164273e-03  -6.095176e-03  0 
 -9.122282e-05  -5.131956e-03  0 
 7.267239e-04  -4.680460e-03  0 
 -3.898812e-04  -5.369020e-03  0 
 -4.112411e-04  -7.123768e-03  0 
 2.982297e-03  -6.793203e-03  0 
 -3.289721e-04  -5.558254e-03  0 
VECTORS displacement_ITER20 FLOAT
 3.404078e-04  -5.226129e-03  0 
 2.605440e-04  -4.322934e-03  0 
 2.747611e-04  -4.748989e-03  0 
 2.011296e-03  -4.200942e-03  0 
 6.508644e-04  -5.155290e-03  0 
 1.032662e-03  -5.185485e-03  0 
 4.395952e-04  -5.849007e-03  0 
 4.598379e-04  -6.348166e-03  0 
 1.080932e-03  -4.186305e-03  0 
 1.314634e-03  -4.891844e-03  0 
 7.701344e-04  -4.866374e-03  0 
 1.029469e-03  -4.799486e-03  0 
 1.584801e-03  -4.590477e-03  0 
 5.769840e-04  -4.611733e-03  0 
 7.751218e-04  -4.161791e-03  0 
 1.413794e-03  -4.143665e-03  0 
 8.825942e-04  -4.513006e-03  0 
 1.187848e-03  -4.493922e-03  0 
 5.365785e-04  -4.940885e-03  0 
 -1.434543e-04  -6.341723e-03  0 
 1.616843e-04  -6.845825e-03  0 
 1.264617e-04  -5.818778e-03  0 
 -7.171070e-04  -6.928617e-03  0 
 2.120226e-04  -5.878315e-03  0 
 -2.044692e-04  -6.088051e-03  0 
 7.718562e-04  -5.161018e-03  0 
 1.701240e-03  -4.880431e-03  0 
 5.858280e-04  -5.508096e-03  0 
 6.491339e-04  -7.305436e-03  0 
 3.975012e-03  -7.144052e-03  0 
 4.568599e-04  -5.516917e-03  0 
VECTORS displacement_ITER21 FLOAT
 1.955222e-04  -5.258833e-03  0 
 1.142262e-04  -3.809316e-03  0 
 1.288479e-04  -4.509500e-03  0 
 2.958546e-03  -3.690672e-03  0 
 7.786831e-04  -5.189556e-03  0 
 1.434417e-03  -5.220729e-03  0 
 2.948941e-04  -5.662311e-03  0 
 3.156636e-04  -5.943709e-03  0 
 1.515302e-03  -3.613409e-03  0 
 1.903023e-03  -4.720911e-03  0 
 9.871544e-04  -4.696705e-03  0 
 1.431959e-03  -4.586903e-03  0 
 2.323294e-03  -4.251721e-03  0 
 6.443136e-04  -4.275325e-03  0 
 9.850712e-04  -3.551338e-03  0 
 2.054872e-03  -3.578290e-03  0 
 1.180317e-03  -4.126659e-03  0 
 1.699194e-03  -4.103368e-03  0 
 5.605778e-04  -4.805526e-03  0 
 5.003550e-06  -5.931116e-03  0 
 1.621513e-04  -6.215539e-03  0 
 1.279573e-04  -5.635172e-03  0 
 -6.653835e-04  -6.727876e-03  0 
 2.173204e-04  -5.797362e-03  0 
 -1.602509e-04  -5.914391e-03  0 
 8.754548e-04  -5.269332e-03  0 
 1.549551e-03  -4.841206e-03  0 
 5.760824e-04  -5.429990e-03  0 
 5.521678e-04  -6.946985e-03  0 
 3.285811e-03  -6.690628e-03  0 
 4.262085e-04  -5.520552e-03  0 
VECTORS displacement_ITER22 FLOAT
 -2.995613e-05  -4.559364e-03  0 
 -1.106988e-04  -3.239983e-03  0 
 -9.613872e-05  -3.875205e-03  0 
 2.466032e-03  -3.127227e-03  0 
 4.890137e-04  -4.490562e-03  0 
 1.079704e-03  -4.521724e-03  0 
 6.811316e-05  -5.119061e-03  0 
 8.857610e-05  -5.559766e-03  0 
 1.153550e-03  -3.057505e-03  0 
 1.504045e-03  -4.069519e-03  0 
 6.763807e-04  -4.045829e-03  0 
 1.077535e-03  -3.945666e-03  0 
 1.887189e-03  -3.640128e-03  0 
 3.689108e-04  -3.663827e-03  0 
 6.770817e-04  -3.003086e-03  0 
 1.641996e-03  -3.022914e-03  0 
 8.511775e-04  -3.526298e-03  0 
 1.318977e-03  -3.504106e-03  0 
 2.952334e-04  -4.146354e-03  0 
 -4.389908e-04  -5.554389e-03  0 
 -1.737511e-04  -5.999969e-03  0 
 -2.054538e-04  -5.089348e-03  0 
 -9.207355e-04  -6.129964e-03  0 
 -1.225871e-05  -5.257080e-03  0 
 -4.031375e-04  -5.388023e-03  0 
 5.678544e-04  -4.696176e-03  0 
 1.098372e-03  -4.326259e-03  0 
 2.513318e-04  -4.893367e-03  0 
 1.357991e-04  -6.185590e-03  0 
 2.394552e-03  -5.782499e-03  0 
 1.798936e-04  -4.906006e-03  0 
VECTORS displacement_ITER23 FLOAT
 7.154820e-04  -4.686216e-03  0 
 6.378940e-04  -3.731596e-03  0 
 6.516447e-04  -4.183985e-03  0 
 2.470133e-03  -3.627421e-03  0 
 1.054917e-03  -4.616855e-03  0 
 1.462475e-03  -4.647073e-03  0 
 8.113230e-04  -5.396320e-03  0 
 8.312191e-04  -5.991244e-03  0 
 1.515174e-03  -3.589059e-03  0 
 1.761375e-03  -4.331244e-03  0 
 1.182925e-03  -4.307743e-03  0 
 1.460395e-03  -4.235621e-03  0 
 2.041237e-03  -4.014741e-03  0 
 9.750837e-04  -4.036829e-03  0 
 1.189902e-03  -3.557177e-03  0 
 1.861762e-03  -3.553161e-03  0 
 1.304854e-03  -3.932055e-03  0 
 1.628723e-03  -3.913263e-03  0 
 9.297072e-04  -4.385021e-03  0 
 9.435590e-05  -5.991697e-03  0 
 4.645302e-04  -6.593698e-03  0 
 4.342909e-04  -5.364471e-03  0 
 -1.684316e-04  -6.285639e-03  0 
 6.906087e-04  -5.470582e-03  0 
 3.182249e-04  -5.648526e-03  0 
 1.145457e-03  -4.848163e-03  0 
 1.691317e-03  -4.608015e-03  0 
 9.120166e-04  -5.133756e-03  0 
 7.452280e-04  -6.265978e-03  0 
 2.760974e-03  -5.707205e-03  0 
 8.644198e-04  -5.065745e-03  0 
VECTORS displacement_ITER24 FLOAT
 5.040927e-04  -4.631346e-03  0 
 4.285829e-04  -3.916052e-03  0 
 4.420275e-04  -4.248335e-03  0 
 1.768657e-03  -3.821321e-03  0 
 7.261088e-04  -4.561687e-03  0 
 1.013405e-03  -4.591523e-03  0 
 5.981317e-04  -5.201092e-03  0 
 6.176880e-04  -5.659957e-03  0 
 1.052643e-03  -3.799591e-03  0 
 1.229958e-03  -4.364769e-03  0 
 8.151644e-04  -4.341606e-03  0 
 1.011626e-03  -4.287656e-03  0 
 1.441310e-03  -4.122440e-03  0 
 6.726144e-04  -4.143501e-03  0 
 8.269433e-04  -3.781660e-03  0 
 1.304953e-03  -3.764016e-03  0 
 9.028575e-04  -4.059865e-03  0 
 1.131951e-03  -4.043435e-03  0 
 6.457962e-04  -4.403444e-03  0 
 6.367087e-05  -5.657593e-03  0 
 3.409875e-04  -6.122027e-03  0 
 3.126799e-04  -5.171623e-03  0 
 -2.251373e-04  -6.104543e-03  0 
 4.322937e-04  -5.293838e-03  0 
 1.663581e-04  -5.525919e-03  0 
 7.945378e-04  -4.773433e-03  0 
 1.390357e-03  -4.768576e-03  0 
 6.887521e-04  -5.160159e-03  0 
 5.509871e-04  -6.146934e-03  0 
 2.279768e-03  -5.704271e-03  0 
 5.843327e-04  -4.946192e-03  0 
VECTORS displacement_ITER25 FLOAT
 3.495733e-05  -4.901121e-03  0 
 -3.988728e-05  -3.936358e-03  0 
 -2.643559e-05  -4.393751e-03  0 
 1.794195e-03  -3.848354e-03  0 
 3.835983e-04  -4.832533e-03  0 
 7.966605e-04  -4.862506e-03  0 
 1.280618e-04  -5.116650e-03  0 
 1.475927e-04  -5.225613e-03  0 
 8.509628e-04  -3.792714e-03  0 
 1.098218e-03  -4.540702e-03  0 
 5.137111e-04  -4.518769e-03  0 
 7.954054e-04  -4.444852e-03  0 
 1.376527e-03  -4.222321e-03  0 
 3.021921e-04  -4.244383e-03  0 
 5.229408e-04  -3.756198e-03  0 
 1.195910e-03  -3.762598e-03  0 
 6.389537e-04  -4.137568e-03  0 
 9.653465e-04  -4.119544e-03  0 
 2.551921e-04  -4.596085e-03  0 
 6.591134e-05  -5.212498e-03  0 
 1.047733e-04  -5.322965e-03  0 
 7.792158e-05  -5.092726e-03  0 
 -1.871586e-04  -6.102796e-03  0 
 9.938773e-05  -5.276482e-03  0 
 4.641098e-05  -5.548264e-03  0 
 4.775818e-04  -5.007920e-03  0 
 1.164839e-03  -5.217024e-03  0 
 5.482595e-04  -5.417997e-03  0 
 5.279598e-04  -6.265160e-03  0 
 2.005791e-03  -6.067179e-03  0 
 1.766323e-04  -5.076255e-03  0 
VECTORS displacement_ITER26 FLOAT
 1.182048e-04  -4.298058e-03  0 
 4.520883e-05  -3.586941e-03  0 
 5.814052e-05  -3.917927e-03  0 
 1.359632e-03  -3.507649e-03  0 
 3.425982e-04  -4.230371e-03  0 
 6.289302e-04  -4.259371e-03  0 
 2.089210e-04  -4.702598e-03  0 
 2.280609e-04  -5.005784e-03  0 
 6.693497e-04  -3.470996e-03  0 
 8.436802e-04  -4.031046e-03  0 
 4.318202e-04  -4.010312e-03  0 
 6.281528e-04  -3.955363e-03  0 
 1.049554e-03  -3.790882e-03  0 
 2.890701e-04  -3.812868e-03  0 
 4.459286e-04  -3.449403e-03  0 
 9.149580e-04  -3.441133e-03  0 
 5.209816e-04  -3.728430e-03  0 
 7.476400e-04  -3.712633e-03  0 
 2.613828e-04  -4.071525e-03  0 
 -1.183710e-04  -5.000847e-03  0 
 5.289509e-05  -5.308575e-03  0 
 2.864171e-05  -4.675621e-03  0 
 -1.510882e-05  -5.707705e-03  0 
 1.868952e-04  -4.855953e-03  0 
 1.859845e-04  -5.211324e-03  0 
 4.384248e-04  -4.559738e-03  0 
 1.106052e-03  -5.044772e-03  0 
 6.230910e-04  -5.128820e-03  0 
 6.321161e-04  -5.820508e-03  0 
 1.775546e-03  -5.725742e-03  0 
 2.234704e-04  -4.563847e-03  0 
VECTORS displacement_ITER27 FLOAT
 2.853235e-04  -4.373238e-03  0 
 2.132993e-04  -3.755495e-03  0 
 2.260595e-04  -4.040287e-03  0 
 1.327945e-03  -3.684901e-03  0 
 4.648091e-04  -4.306213e-03  0 
 7.041408e-04  -4.334000e-03  0 
 3.740917e-04  -4.882624e-03  0 
 3.931965e-04  -5.295273e-03  0 
 7.398946e-04  -3.651080e-03  0 
 8.860935e-04  -4.139678e-03  0 
 5.392103e-04  -4.120489e-03  0 
 7.039480e-04  -4.072106e-03  0 
 1.063188e-03  -3.929223e-03  0 
 4.216097e-04  -3.951475e-03  0 
 5.557214e-04  -3.633455e-03  0 
 9.465406e-04  -3.623259e-03  0 
 6.155354e-04  -3.875172e-03  0 
 8.044946e-04  -3.860469e-03  0 
 4.007051e-04  -4.175773e-03  0 
 -1.036509e-04  -5.295609e-03  0 
 1.426224e-04  -5.715124e-03  0 