# vtk DataFile Version 3.1
this is an vtk file created by FEMAC
ASCII
DATASET UNSTRUCTURED_GRID
POINTS 20 FLOAT
3.000000 5.000000 0.000000
3.000000 6.000000 0.000000
4.000000 6.000000 0.000000
2.333333 6.000000 0.000000
2.666667 6.000000 0.000000
3.000000 5.333333 0.000000
3.000000 5.666667 0.000000
3.333333 6.000000 0.000000
3.666667 6.000000 0.000000
4.000000 5.333333 0.000000
4.000000 5.666667 0.000000
2.515789 5.659969 0.000000
2.783162 5.394160 0.000000
2.793124 5.744159 0.000000
3.319226 5.519523 0.000000
3.724179 5.637769 0.000000
3.646123 5.276215 0.000000
3.444594 5.794501 0.000000
3.222011 5.792514 0.000000
3.327558 5.188179 0.000000
CELLS 25 100 
3 3 11  4
3 5 12  0
3 4 13  1
3 13  6  1
3 11 13  4
3 12  5  6
3 13 11 12
3 6 13 12
3 8 15  2
3 15 10  2
3 15 14 16
3 15  9 10
3 15 16  9
3 6  5 14
3 7 17  8
3 15 17 14
3 17 15  8
3 6 18  1
3 7 18 17
3 18  7  1
3 14 18  6
3 14 17 18
3 19  5  0
3 14 19 16
3 19 14  5
CELL_TYPES 25
5 5 5 5 5 5 5 5 5 5 5 5 5 5 5 5 5 5 5 5 5 5 5 5 5 
POINT_DATA 20
VECTORS displacement_ITER1 FLOAT
 2.132623e-01  -2.903923e-01  0 
 2.381736e-01  -2.906360e-01  0 
 2.381804e-01  -3.152653e-01  0 
 2.329253e-01  -2.885928e-01  0 
 2.343367e-01  -2.910361e-01  0 
 2.217199e-01  -2.905509e-01  0 
 2.299617e-01  -2.906093e-01  0 
 2.381806e-01  -2.988432e-01  0 
 2.381799e-01  -3.070569e-01  0 
 2.217485e-01  -3.152689e-01  0 
 2.299712e-01  -3.152673e-01  0 
 2.296547e-01  -2.874317e-01  0 
 2.238512e-01  -2.879159e-01  0 
 2.316848e-01  -2.893168e-01  0 
 2.263381e-01  -2.984943e-01  0 
 2.292580e-01  -3.084719e-01  0 
 2.203344e-01  -3.065365e-01  0 
 2.331178e-01  -3.015858e-01  0 
 2.330695e-01  -2.960965e-01  0 
 2.181351e-01  -2.987112e-01  0 
VECTORS displacement_ITER2 FLOAT
 1.492271e-02  -3.807513e-02  0 
 4.735477e-02  -3.818023e-02  0 
 4.739125e-02  -7.054947e-02  0 
 4.534328e-02  -2.536818e-02  0 
 4.550570e-02  -3.347370e-02  0 
 2.583626e-02  -3.817729e-02  0 
 3.658018e-02  -3.817281e-02  0 
 4.736690e-02  -4.895500e-02  0 
 4.738358e-02  -5.974566e-02  0 
 2.580780e-02  -7.050744e-02  0 
 3.658566e-02  -7.053264e-02  0 
 3.675007e-02  -2.881699e-02  0 
 2.845907e-02  -3.339494e-02  0 
 3.917871e-02  -3.463076e-02  0 
 3.182432e-02  -4.847622e-02  0 
 3.564659e-02  -6.160156e-02  0 
 2.392716e-02  -5.906010e-02  0 
 4.072188e-02  -5.254489e-02  0 
 4.065171e-02  -4.534729e-02  0 
 2.116366e-02  -4.877380e-02  0 
VECTORS displacement_ITER3 FLOAT
 3.827230e-03  -2.858985e-02  0 
 1.902751e-02  -2.863763e-02  0 
 1.902395e-02  -4.373763e-02  0 
 2.626492e-02  -1.079298e-02  0 
 2.240978e-02  -2.368793e-02  0 
 8.953078e-03  -2.861810e-02  0 
 1.399085e-02  -2.863219e-02  0 
 1.902940e-02  -3.367095e-02  0 
 1.903012e-02  -3.870568e-02  0 
 8.979471e-03  -4.372679e-02  0 
 1.399072e-02  -4.373271e-02  0 
 1.417541e-02  -2.220838e-02  0 
 1.005098e-02  -2.688844e-02  0 
 1.546044e-02  -2.767234e-02  0 
 1.177331e-02  -3.344264e-02  0 
 1.355604e-02  -3.958389e-02  0 
 8.088974e-03  -3.840729e-02  0 
 1.592766e-02  -3.534883e-02  0 
 1.589432e-02  -3.198660e-02  0 
 6.778891e-03  -3.353699e-02  0 
VECTORS displacement_ITER4 FLOAT
 2.954444e-03  -4.718706e-03  0 
 1.383885e-02  -4.751421e-03  0 
 1.387212e-02  -1.562197e-02  0 
 6.387554e-03  -1.540475e-02  0 
 8.903263e-03  -1.084772e-02  0 
 6.619123e-03  -4.730344e-03  0 
 1.022829e-02  -4.736098e-03  0 
 1.385550e-02  -8.362367e-03  0 
 1.387011e-02  -1.198824e-02  0 
 6.640647e-03  -1.557270e-02  0 
 1.024813e-02  -1.560548e-02  0 
 1.009009e-02  -8.914444e-03  0 
 7.907925e-03  -5.211368e-03  0 
 1.087728e-02  -6.367444e-03  0 
 8.637194e-03  -8.177326e-03  0 
 9.924966e-03  -1.261386e-02  0 
 5.979601e-03  -1.175608e-02  0 
 1.162915e-02  -9.561139e-03  0 
 1.159854e-02  -7.143174e-03  0 
 5.065152e-03  -8.237721e-03  0 
VECTORS displacement_ITER5 FLOAT
 4.977315e-03  -7.872009e-03  0 
 1.056245e-02  -7.978682e-03  0 
 1.059196e-02  -1.346201e-02  0 
 7.774460e-03  -1.468169e-02  0 
 7.872986e-03  -1.393884e-02  0 
 6.920997e-03  -7.941443e-03  0 
 8.743514e-03  -7.961677e-03  0 
 1.057482e-02  -9.795203e-03  0 
 1.058648e-02  -1.162487e-02  0 
 6.947490e-03  -1.340460e-02  0 
 8.764569e-03  -1.344167e-02  0 
 7.958196e-03  -1.363720e-02  0 
 7.653144e-03  -9.647806e-03  0 
 8.808120e-03  -1.085646e-02  0 
 7.943065e-03  -9.698023e-03  0 
 8.594666e-03  -1.193438e-02  0 
 6.601863e-03  -1.149201e-02  0 
 9.452904e-03  -1.039752e-02  0 
 9.436716e-03  -9.178690e-03  0 
 6.139935e-03  -9.734153e-03  0 
VECTORS displacement_ITER6 FLOAT
 4.423670e-03  -6.856613e-03  0 
 8.068487e-03  -7.105312e-03  0 
 8.076089e-03  -1.048217e-02  0 
 6.413919e-03  -1.314032e-02  0 
 6.071773e-03  -1.289308e-02  0 
 5.788008e-03  -7.018744e-03  0 
 6.944982e-03  -7.081005e-03  0 
 8.073702e-03  -8.223311e-03  0 
 8.075126e-03  -9.351761e-03  0 
 5.885353e-03  -1.036417e-02  0 
 6.966392e-03  -1.044318e-02  0 
 6.259002e-03  -1.290615e-02  0 
 6.294561e-03  -9.096903e-03  0 
 6.915039e-03  -1.020958e-02  0 
 6.451778e-03  -8.178610e-03  0 
 6.847087e-03  -9.544405e-03  0 
 5.635023e-03  -9.271049e-03  0 
 7.379496e-03  -8.599484e-03  0 
 7.375292e-03  -7.845994e-03  0 
 5.298520e-03  -8.200223e-03  0 
VECTORS displacement_ITER7 FLOAT
 3.886712e-03  -5.988128e-03  0 
 7.858825e-03  -6.301323e-03  0 
 7.861106e-03  -9.951640e-03  0 
 6.555208e-03  -1.165428e-02  0 
 5.967110e-03  -1.220100e-02  0 
 5.383977e-03  -6.190371e-03  0 
 6.645330e-03  -6.272997e-03  0 
 7.862222e-03  -7.507927e-03  0 
 7.861964e-03  -8.727869e-03  0 
 5.488467e-03  -9.820991e-03  0 
 6.660778e-03  -9.909951e-03  0 
 5.489018e-03  -1.217290e-02  0 
 5.857598e-03  -8.638019e-03  0 
 6.480013e-03  -9.629186e-03  0 
 6.113167e-03  -7.468688e-03  0 
 6.531550e-03  -8.939070e-03  0 
 5.229695e-03  -8.659177e-03  0 
 7.111017e-03  -7.916171e-03  0 
 7.109723e-03  -7.102947e-03  0 
 4.850363e-03  -7.490978e-03  0 
VECTORS displacement_ITER8 FLOAT
 4.061040e-03  -6.791395e-03  0 
 8.020929e-03  -7.097395e-03  0 
 8.027504e-03  -1.071956e-02  0 
 6.743647e-03  -1.271224e-02  0 
 6.274284e-03  -1.278347e-02  0 
 5.568415e-03  -6.988959e-03  0 
 6.819970e-03  -7.070866e-03  0 
 8.023926e-03  -8.291675e-03  0 
 8.025931e-03  -9.501607e-03  0 
 5.653423e-03  -1.059726e-02  0 
 6.830444e-03  -1.068052e-02  0 
 5.951284e-03  -1.257664e-02  0 
 6.066671e-03  -9.625441e-03  0 
 6.773420e-03  -1.031781e-02  0 
 6.292837e-03  -8.255486e-03  0 
 6.703314e-03  -9.708485e-03  0 
 5.417200e-03  -9.439905e-03  0 
 7.279156e-03  -8.695418e-03  0 
 7.278839e-03  -7.891563e-03  0 
 5.040029e-03  -8.274947e-03  0 
VECTORS displacement_ITER9 FLOAT
 4.017975e-03  -6.755070e-03  0 
 8.100503e-03  -7.059296e-03  0 
 8.107615e-03  -1.080568e-02  0 
 6.835229e-03  -1.254532e-02  0 
 6.331778e-03  -1.278174e-02  0 
 5.563651e-03  -6.950345e-03  0 
 6.857662e-03  -7.032351e-03  0 
 8.103650e-03  -8.295303e-03  0 
 8.105619e-03  -9.546682e-03  0 
 5.649612e-03  -1.068628e-02  0 
 6.868799e-03  -1.076735e-02  0 
 5.857149e-03  -1.255687e-02  0 
 6.060796e-03  -9.549834e-03  0 
 6.774432e-03  -1.030530e-02  0 
 6.312022e-03  -8.257115e-03  0 
 6.738555e-03  -9.759981e-03  0 
 5.407337e-03  -9.479703e-03  0 
 7.333236e-03  -8.712958e-03  0 
 7.332529e-03  -7.881101e-03  0 
 5.016567e-03  -8.277142e-03  0 
CELL_DATA 25
TENSORS element_stresses FLOAT
 -1.773997e-03  1.043645e-03  0 
 1.043645e-03  -8.788163e-04  0 
 0  0  0 

 -1.283158e-03  1.266218e-02  0 
 1.266218e-02  -9.707729e-04  0 
 0  0  0 

 5.437276e-03  1.389222e-02  0 
 1.389222e-02  4.370062e-04  0 
 0  0  0 

 1.950235e-03  1.501463e-02  0 
 1.501463e-02  5.042368e-04  0 
 0  0  0 

 2.037852e-03  7.331940e-03  0 
 7.331940e-03  -4.316068e-03  0 
 0  0  0 

 -1.403870e-03  1.215474e-02  0 
 1.215474e-02  -6.671807e-04  0 
 0  0  0 

 2.185552e-03  8.317017e-03  0 
 8.317017e-03  -1.754716e-03  0 
 0  0  0 

 4.169272e-04  1.296923e-02  0 
 1.296923e-02  -2.456180e-03  0 
 0  0  0 

 3.006305e-03  -1.567550e-03  0 
 -1.567550e-03  -9.936799e-03  0 
 0  0  0 

 5.310789e-02  5.864766e-02  0 
 5.864766e-02  -9.906444e-02  0 
 0  0  0 

 -1.645489e-02  -2.487768e-02  0 
 -2.487768e-02  2.282565e-02  0 
 0  0  0 

 1.762364e-02  2.367964e-02  0 
 2.367964e-02  -2.379120e-01  0 
 0  0  0 

 8.950438e-02  1.989765e-01  0 
 1.989765e-01  -1.366205e-02  0 
 0  0  0 

 6.943342e-03  -5.233533e-02  0 
 -5.233533e-02  -2.439368e-01  0 
 0  0  0 

 6.438687e-03  -1.494405e-03  0 
 -1.494405e-03  1.770209e-03  0 
 0  0  0 

 -2.643553e-02  5.709222e-03  0 
 5.709222e-03  3.160578e-02  0 
 0  0  0 

 -1.576157e-02  1.814061e-02  0 
 1.814061e-02  -1.103447e-02  0 
 0  0  0 

 1.277551e-03  -3.743861e-02  0 
 -3.743861e-02  -8.045031e-02  0 
 0  0  0 

 -3.018536e-02  -3.605638e-03  0 
 -3.605638e-03  -1.347677e-04  0 
 0  0  0 

 8.126537e-03  2.624310e-03  0 
 2.624310e-03  -4.382058e-03  0 
 0  0  0 

 2.257995e-02  -6.646806e-02  0 
 -6.646806e-02  2.005863e-02  0 
 0  0  0 

 -1.779561e-02  -7.826707e-03  0 
 -7.826707e-03  4.101104e-02  0 
 0  0  0 

 2.295874e-01  2.514258e-01  0 
 2.514258e-01  -5.169494e-01  0 
 0  0  0 

 1.482567e-01  1.137552e-01  0 
 1.137552e-01  1.022862e-02  0 
 0  0  0 

 5.549314e-02  -1.214216e-01  0 
 -1.214216e-01  -2.523663e-02  0 
 0  0  0 

TENSORS element_stresses FLOAT
 -1.773997e-03  1.043645e-03  0 
 1.043645e-03  -8.788163e-04  0 
 0  0  0 

 -1.283158e-03  1.266218e-02  0 
 1.266218e-02  -9.707729e-04  0 
 0  0  0 

 5.437276e-03  1.389222e-02  0 
 1.389222e-02  4.370062e-04  0 
 0  0  0 

 1.950235e-03  1.501463e-02  0 
 1.501463e-02  5.042368e-04  0 
 0  0  0 

 2.037852e-03  7.331940e-03  0 
 7.331940e-03  -4.316068e-03  0 
 0  0  0 

 -1.403870e-03  1.215474e-02  0 
 1.215474e-02  -6.671807e-04  0 
 0  0  0 

 2.185552e-03  8.317017e-03  0 
 8.317017e-03  -1.754716e-03  0 
 0  0  0 

 4.169272e-04  1.296923e-02  0 
 1.296923e-02  -2.456180e-03  0 
 0  0  0 

 3.006305e-03  -1.567550e-03  0 
 -1.567550e-03  -9.936799e-03  0 
 0  0  0 

 5.310789e-02  5.864766e-02  0 
 5.864766e-02  -9.906444e-02  0 
 0  0  0 

 -1.645489e-02  -2.487768e-02  0 
 -2.487768e-02  2.282565e-02  0 
 0  0  0 

 1.762364e-02  2.367964e-02  0 
 2.367964e-02  -2.379120e-01  0 
 0  0  0 

 8.950438e-02  1.989765e-01  0 
 1.989765e-01  -1.366205e-02  0 
 0  0  0 

 6.943342e-03  -5.233533e-02  0 
 -5.233533e-02  -2.439368e-01  0 
 0  0  0 

 6.438687e-03  -1.494405e-03  0 
 -1.494405e-03  1.770209e-03  0 
 0  0  0 

 -2.643553e-02  5.709222e-03  0 
 5.709222e-03  3.160578e-02  0 
 0  0  0 

 -1.576157e-02  1.814061e-02  0 
 1.814061e-02  -1.103447e-02  0 
 0  0  0 

 1.277551e-03  -3.743861e-02  0 
 -3.743861e-02  -8.045031e-02  0 
 0  0  0 

 -3.018536e-02  -3.605638e-03  0 
 -3.605638e-03  -1.347677e-04  0 
 0  0  0 

 8.126537e-03  2.624310e-03  0 
 2.624310e-03  -4.382058e-03  0 
 0  0  0 

 2.257995e-02  -6.646806e-02  0 
 -6.646806e-02  2.005863e-02  0 
 0  0  0 

 -1.779561e-02  -7.826707e-03  0 
 -7.826707e-03  4.101104e-02  0 
 0  0  0 

 2.295874e-01  2.514258e-01  0 
 2.514258e-01  -5.169494e-01  0 
 0  0  0 

 1.482567e-01  1.137552e-01  0 
 1.137552e-01  1.022862e-02  0 
 0  0  0 

 5.549314e-02  -1.214216e-01  0 
 -1.214216e-01  -2.523663e-02  0 
 0  0  0 

