# vtk DataFile Version 3.1
this is an vtk file created by FEMAC
ASCII
DATASET UNSTRUCTURED_GRID
POINTS 31 FLOAT
5.000000 5.000000 0.000000
6.000000 4.000000 0.000000
6.000000 5.000000 0.000000
5.000000 4.250000 0.000000
5.000000 4.500000 0.000000
5.000000 4.750000 0.000000
5.000000 5.250000 0.000000
5.500000 4.000000 0.000000
5.750000 4.000000 0.000000
5.250000 5.000000 0.000000
5.500000 5.000000 0.000000
5.750000 5.000000 0.000000
6.000000 4.250000 0.000000
6.000000 4.500000 0.000000
6.000000 4.750000 0.000000
4.661856 4.507893 0.000000
4.832250 4.761003 0.000000
4.832172 4.245757 0.000000
5.805000 4.255000 0.000000
5.361666 4.785642 0.000000
5.824607 4.643596 0.000000
5.630982 4.182178 0.000000
5.161848 4.344773 0.000000
5.223020 4.573994 0.000000
5.460006 4.535834 0.000000
5.681647 4.425464 0.000000
5.631588 4.748141 0.000000
5.841239 4.828347 0.000000
5.155331 4.836478 0.000000
5.384851 4.278430 0.000000
5.255000 5.195000 0.000000
CELLS 42 168 
3 16  5  0
3 16  4  5
3 16 15  4
3 4 17  3
3 15 17  4
3 13 18 12
3 19 10  9
3 3 22  4
3 23  5  4
3 8 21  7
3 14 20 13
3 25 21 18
3 23 24 19
3 18 21  8
3 13 25 18
3 13 20 25
3 25 20 26
3 1 18  8
3 1 12 18
3 11 27  2
3 27 14  2
3 5 28  0
3 9 28 19
3 28  9  0
3 27 20 14
3 23 28  5
3 23 19 28
3 4 22 23
3 26 24 25
3 21 29  7
3 23 22 29
3 29 21 25
3 25 24 29
3 29 24 23
3 10 26 11
3 27 11 26
3 26 20 27
3 19 26 10
3 19 24 26
3 10 30  9
3 0 30  6
3 0  9 30
CELL_TYPES 42
5 5 5 5 5 5 5 5 5 5 5 5 5 5 5 5 5 5 5 5 5 5 5 5 5 5 5 5 5 5 5 5 5 5 5 5 5 5 5 5 5 5 
POINT_DATA 31
VECTORS displacement_ITER1 FLOAT
 1.195189e-01  -3.149815e-01  0 
 1.017232e-01  -3.860210e-01  0 
 1.329277e-01  -4.777089e-01  0 
 6.264730e-02  -3.149320e-01  0 
 8.160082e-02  -3.149538e-01  0 
 1.005633e-01  -3.149695e-01  0 
 1.538007e-01  -3.149994e-01  0 
 9.740950e-02  -3.807274e-01  0 
 9.450438e-02  -3.817359e-01  0 
 1.195301e-01  -3.492816e-01  0 
 1.195439e-01  -3.835867e-01  0 
 1.263803e-01  -4.279406e-01  0 
 9.275214e-02  -4.034845e-01  0 
 9.211380e-02  -4.257442e-01  0 
 1.078790e-01  -4.507408e-01  0 
 8.219001e-02  -2.892882e-01  0 
 1.013939e-01  -3.022375e-01  0 
 6.231885e-02  -3.022012e-01  0 
 8.531743e-02  -3.954624e-01  0 
 1.017444e-01  -3.642558e-01  0 
 9.370640e-02  -4.196959e-01  0 
 8.304028e-02  -3.826268e-01  0 
 7.128467e-02  -3.355711e-01  0 
 8.817605e-02  -3.477714e-01  0 
 8.503910e-02  -3.775618e-01  0 
 8.175258e-02  -3.969792e-01  0 
 9.746598e-02  -3.993268e-01  0 
 1.089359e-01  -4.346520e-01  0 
 1.066415e-01  -3.364296e-01  0 
 7.363183e-02  -3.728114e-01  0 
 1.462725e-01  -3.499769e-01  0 
VECTORS displacement_ITER2 FLOAT
 6.547574e-02  -1.467409e-01  0 
 5.444078e-02  -1.947239e-01  0 
 6.565162e-02  -2.315019e-01  0 
 5.290011e-02  -1.466655e-01  0 
 5.707384e-02  -1.466820e-01  0 
 6.127393e-02  -1.467066e-01  0 
 8.662933e-02  -1.467778e-01  0 
 3.636401e-02  -1.707185e-01  0 
 4.669805e-02  -1.861337e-01  0 
 6.549066e-02  -1.679266e-01  0 
 6.550993e-02  -1.890961e-01  0 
 6.863234e-02  -2.111106e-01  0 
 5.381172e-02  -2.086728e-01  0 
 5.671710e-02  -2.193575e-01  0 
 6.370635e-02  -2.259399e-01  0 
 5.720544e-02  -1.410013e-01  0 
 6.145174e-02  -1.438766e-01  0 
 5.282544e-02  -1.438589e-01  0 
 4.939107e-02  -1.994504e-01  0 
 6.071360e-02  -1.746175e-01  0 
 5.871132e-02  -2.098276e-01  0 
 4.618010e-02  -1.874573e-01  0 
 5.157711e-02  -1.555089e-01  0 
 5.672558e-02  -1.615581e-01  0 
 5.498107e-02  -1.798269e-01  0 
 5.240954e-02  -1.948585e-01  0 
 6.018630e-02  -1.958568e-01  0 
 6.356700e-02  -2.164957e-01  0 
 6.196398e-02  -1.584984e-01  0 
 4.747552e-02  -1.715787e-01  0 
 8.199369e-02  -1.683689e-01  0 
VECTORS displacement_ITER3 FLOAT
 3.128372e-02  -6.217211e-02  0 
 1.971966e-02  -9.350687e-02  0 
 3.263733e-02  -1.203546e-01  0 
 2.596018e-02  -6.209486e-02  0 
 2.775242e-02  -6.209879e-02  0 
 2.954046e-02  -6.211356e-02  0 
 4.869844e-02  -6.224917e-02  0 
 2.178727e-02  -7.778824e-02  0 
 1.800870e-02  -7.563370e-02  0 
 3.129574e-02  -7.965310e-02  0 
 3.131576e-02  -9.708732e-02  0 
 3.390995e-02  -1.080810e-01  0 
 2.696555e-02  -1.049137e-01  0 
 3.137483e-02  -1.133150e-01  0 
 3.354094e-02  -1.183712e-01  0 
 2.781128e-02  -5.966176e-02  0 
 2.961286e-02  -6.090660e-02  0 
 2.592819e-02  -6.088729e-02  0 
 2.400168e-02  -9.174293e-02  0 
 2.890732e-02  -8.314783e-02  0 
 3.118084e-02  -1.065434e-01  0 
 1.938747e-02  -8.027681e-02  0 
 2.334113e-02  -6.684385e-02  0 
 2.631555e-02  -7.143063e-02  0 
 2.595849e-02  -8.316637e-02  0 
 2.530137e-02  -9.145340e-02  0 
 3.092717e-02  -9.740084e-02  0 
 3.290665e-02  -1.111071e-01  0 
 2.928861e-02  -7.102551e-02  0 
 1.956685e-02  -7.445279e-02  0 
 4.489553e-02  -8.002706e-02  0 
VECTORS displacement_ITER4 FLOAT
 1.313961e-02  -2.616756e-02  0 
 1.058486e-03  -3.561521e-02  0 
 1.095532e-02  -7.377559e-02  0 
 3.156721e-03  -2.607288e-02  0 
 6.508501e-03  -2.606292e-02  0 
 9.838342e-03  -2.608075e-02  0 
 2.609024e-02  -2.626563e-02  0 
 3.039132e-03  -3.274150e-02  0 
 5.961789e-04  -3.366808e-02  0 
 1.314283e-02  -3.921048e-02  0 
 1.315891e-02  -5.220880e-02  0 
 1.190892e-02  -6.264404e-02  0 
 8.008043e-03  -5.587788e-02  0 
 1.093171e-02  -6.815319e-02  0 
 1.220222e-02  -7.275026e-02  0 
 6.618590e-03  -2.153356e-02  0 
 9.973324e-03  -2.382997e-02  0 
 3.100783e-03  -2.381236e-02  0 
 2.974495e-03  -4.578042e-02  0 
 9.473448e-03  -4.201140e-02  0 
 1.063200e-02  -6.224699e-02  0 
 7.103434e-04  -3.721938e-02  0 
 2.848161e-03  -2.943922e-02  0 
 5.656659e-03  -3.305724e-02  0 
 5.122923e-03  -4.164709e-02  0 
 4.457152e-03  -4.719780e-02  0 
 1.034269e-02  -5.483312e-02  0 
 1.153941e-02  -6.586622e-02  0 
 1.029910e-02  -3.273880e-02  0 
 1.716349e-04  -3.365049e-02  0 
 2.328034e-02  -3.948950e-02  0 
VECTORS displacement_ITER5 FLOAT
 3.776279e-03  -1.261558e-02  0 
 2.206153e-03  -1.744560e-02  0 
 5.083732e-03  -5.761945e-02  0 
 2.377583e-03  -1.251821e-02  0 
 2.854705e-03  -1.250816e-02  0 
 3.321367e-03  -1.253137e-02  0 
 1.493429e-02  -1.270815e-02  0 
 1.584109e-03  -1.436439e-02  0 
 2.694927e-03  -1.531381e-02  0 
 3.783727e-03  -2.385648e-02  0 
 3.803595e-03  -3.505466e-02  0 
 4.832285e-03  -4.549265e-02  0 
 6.557709e-03  -3.572887e-02  0 
 7.058761e-03  -4.738464e-02  0 
 6.616516e-03  -5.363763e-02  0 
 2.875799e-03  -1.186099e-02  0 
 3.329111e-03  -1.219879e-02  0 
 2.373814e-03  -1.218922e-02  0 
 1.900648e-03  -2.694611e-02  0 
 2.592968e-03  -2.579183e-02  0 
 5.164784e-03  -4.315620e-02  0 
 2.651156e-04  -2.032797e-02  0 
 8.882352e-04  -1.424003e-02  0 
 1.254537e-03  -1.775592e-02  0 
 1.136457e-03  -2.480622e-02  0 
 1.467361e-03  -2.928569e-02  0 
 3.865790e-03  -3.647754e-02  0 
 5.128327e-03  -4.768847e-02  0 
 2.799613e-03  -1.804777e-02  0 
 -1.113299e-03  -1.736091e-02  0 
 1.251612e-02  -2.410225e-02  0 
VECTORS displacement_ITER6 FLOAT
 3.608558e-03  -7.655006e-03  0 
 2.406783e-03  -1.029895e-02  0 
 2.361120e-03  -4.931883e-02  0 
 2.448839e-03  -7.649492e-03  0 
 2.903623e-03  -7.583006e-03  0 
 3.269418e-03  -7.584276e-03  0 
 1.350113e-02  -7.760423e-03  0 
 2.368907e-03  -8.597881e-03  0 
 2.296040e-03  -9.572577e-03  0 
 3.611403e-03  -1.765173e-02  0 
 3.630072e-03  -2.760978e-02  0 
 3.607456e-03  -3.917439e-02  0 
 6.616642e-03  -2.914399e-02  0 
 6.522620e-03  -4.084262e-02  0 
 5.681935e-03  -4.678911e-02  0 
 2.919250e-03  -7.024577e-03  0 
 3.278374e-03  -7.320651e-03  0 
 2.469841e-03  -7.304222e-03  0 
 1.887758e-03  -2.088267e-02  0 
 2.368734e-03  -1.978768e-02  0 
 4.440379e-03  -3.690921e-02  0 
 6.254008e-04  -1.446836e-02  0 
 1.303344e-03  -1.075965e-02  0 
 1.153116e-03  -1.291885e-02  0 
 6.407744e-04  -1.967167e-02  0 
 1.087562e-03  -2.339913e-02  0 
 2.936740e-03  -3.060314e-02  0 
 4.072313e-03  -4.146294e-02  0 
 2.759269e-03  -1.260735e-02  0 
 -8.504826e-04  -1.339789e-02  0 
 1.137168e-02  -1.786915e-02  0 
VECTORS displacement_ITER7 FLOAT
 2.849418e-03  -6.134694e-03  0 
 2.608033e-03  -8.704861e-03  0 
 2.505797e-03  -4.705382e-02  0 
 2.440673e-03  -6.066584e-03  0 
 2.607310e-03  -6.024742e-03  0 
 2.721590e-03  -6.048858e-03  0 
 1.309093e-02  -6.240653e-03  0 
 2.614964e-03  -6.829831e-03  0 
 2.632863e-03  -7.927554e-03  0 
 2.852385e-03  -1.648153e-02  0 
 2.871249e-03  -2.679000e-02  0 
 3.248024e-03  -3.661387e-02  0 
 6.637040e-03  -2.724074e-02  0 
 6.415218e-03  -3.876331e-02  0 
 5.354875e-03  -4.447607e-02  0 
 2.613737e-03  -5.835009e-03  0 
 2.712225e-03  -5.945126e-03  0 
 2.458711e-03  -5.923807e-03  0 
 1.982291e-03  -1.903522e-02  0 
 1.864539e-03  -1.845854e-02  0 
 4.322801e-03  -3.482877e-02  0 
 7.794487e-04  -1.271119e-02  0 
 1.107169e-03  -9.057699e-03  0 
 8.547003e-04  -1.136487e-02  0 
 5.506329e-04  -1.789800e-02  0 
 1.057446e-03  -2.156438e-02  0 
 2.877182e-03  -2.867031e-02  0 
 3.821522e-03  -3.899943e-02  0 
 2.129766e-03  -1.121310e-02  0 
 -8.753417e-04  -1.168039e-02  0 
 1.088552e-02  -1.670616e-02  0 
VECTORS displacement_ITER8 FLOAT
 2.685699e-03  -5.985290e-03  0 
 1.778030e-03  -7.707624e-03  0 
 2.676435e-03  -4.673300e-02  0 
 1.944539e-03  -5.867986e-03  0 
 2.180771e-03  -5.841337e-03  0 
 2.426060e-03  -5.873354e-03  0 
 1.280888e-02  -6.091545e-03  0 
 1.828864e-03  -6.840556e-03  0 
 1.834960e-03  -7.308774e-03  0 
 2.688070e-03  -1.621586e-02  0 
 2.706101e-03  -2.640740e-02  0 
 2.729360e-03  -3.656270e-02  0 
 6.002108e-03  -2.679348e-02  0 
 5.951074e-03  -3.855097e-02  0 
 5.009059e-03  -4.422311e-02  0 
 2.203380e-03  -5.514680e-03  0 
 2.417745e-03  -5.676242e-03  0 
 1.956893e-03  -5.700483e-03  0 
 1.220188e-03  -1.859647e-02  0 
 1.595110e-03  -1.813925e-02  0 
 3.964502e-03  -3.451409e-02  0 
 -3.499291e-05  -1.237469e-02  0 
 6.213654e-04  -8.675414e-03  0 
 4.470933e-04  -1.104415e-02  0 
 9.098722e-05  -1.752754e-02  0 
 5.193034e-04  -2.114578e-02  0 
 2.558632e-03  -2.843353e-02  0 
 3.588054e-03  -3.856079e-02  0 
 1.882679e-03  -1.097369e-02  0 
 -1.413312e-03  -1.123613e-02  0 
 1.063068e-02  -1.643775e-02  0 
VECTORS displacement_ITER9 FLOAT
 2.796456e-03  -5.886599e-03  0 
 1.834571e-03  -7.541329e-03  0 
 2.887867e-03  -4.637916e-02  0 
 1.908000e-03  -5.766624e-03  0 
 2.174249e-03  -5.747915e-03  0 
 2.478871e-03  -5.782259e-03  0 
 1.287684e-02  -5.995566e-03  0 
 1.746963e-03  -6.699786e-03  0 
 1.783651e-03  -7.076988e-03  0 
 2.797837e-03  -1.607830e-02  0 
 2.815992e-03  -2.623446e-02  0 
 2.848668e-03  -3.647078e-02  0 
 6.079674e-03  -2.664872e-02  0 
 6.068138e-03  -3.838042e-02  0 
 5.164842e-03  -4.401735e-02  0 
 2.195517e-03  -5.348031e-03  0 
 2.473855e-03  -5.549032e-03  0 
 1.914022e-03  -5.577990e-03  0 
 1.297196e-03  -1.845002e-02  0 
 1.659773e-03  -1.803845e-02  0 
 4.109124e-03  -3.429131e-02  0 
 2.000333e-05  -1.222045e-02  0 
 5.259714e-04  -8.665640e-03  0 
 4.579123e-04  -1.103755e-02  0 
 1.885428e-04  -1.734616e-02  0 
 6.678821e-04  -2.091624e-02  0 
 2.669426e-03  -2.825833e-02  0 
 3.773489e-03  -3.833958e-02  0 
 1.965721e-03  -1.088285e-02  0 
 -1.178848e-03  -1.099464e-02  0 
 1.071028e-02  -1.629835e-02  0 
VECTORS displacement_ITER10 FLOAT
 2.760479e-03  -5.722981e-03  0 
 1.833028e-03  -7.470612e-03  0 
 2.838113e-03  -4.626523e-02  0 
 1.926871e-03  -5.632645e-03  0 
 2.184481e-03  -5.619211e-03  0 
 2.461392e-03  -5.646368e-03  0 
 1.287037e-02  -5.824202e-03  0 
 1.782181e-03  -6.563490e-03  0 
 1.818075e-03  -7.005852e-03  0 
 2.762492e-03  -1.593445e-02  0 
 2.781059e-03  -2.610776e-02  0 
 2.781520e-03  -3.628986e-02  0 
 6.115089e-03  -2.653342e-02  0 
 6.072605e-03  -3.821984e-02  0 
 5.120206e-03  -4.384744e-02  0 
 2.205889e-03  -5.237431e-03  0 
 2.459546e-03  -5.435128e-03  0 
 1.929493e-03  -5.455545e-03  0 
 1.353603e-03  -1.833047e-02  0 
 1.643699e-03  -1.790355e-02  0 
 4.090338e-03  -3.415131e-02  0 
 1.130759e-04  -1.214738e-02  0 
 4.942577e-04  -8.360989e-03  0 
 4.993828e-04  -1.091714e-02  0 
 1.994237e-04  -1.725992e-02  0 
 6.849334e-04  -2.080342e-02  0 
 2.642953e-03  -2.813432e-02  0 
 3.714556e-03  -3.818145e-02  0 
 1.939908e-03  -1.074598e-02  0 
 -1.073461e-03  -1.104515e-02  0 
 1.068962e-02  -1.615580e-02  0 
VECTORS displacement_ITER11 FLOAT
 2.743870e-03  -5.690555e-03  0 
 1.855167e-03  -7.446928e-03  0 
 2.762452e-03  -4.628942e-02  0 
 1.936258e-03  -5.590383e-03  0 
 2.188982e-03  -5.575186e-03  0 
 2.455235e-03  -5.606247e-03  0 
 1.285632e-02  -5.778578e-03  0 
 1.803841e-03  -6.523440e-03  0 
 1.829316e-03  -6.975520e-03  0 
 2.748214e-03  -1.588761e-02  0 
 2.766931e-03  -2.603505e-02  0 
 2.758616e-03  -3.615547e-02  0 
 6.128860e-03  -2.648625e-02  0 
 6.070632e-03  -3.815238e-02  0 
 5.083010e-03  -4.377411e-02  0 
 2.209249e-03  -5.203043e-03  0 
 2.451278e-03  -5.401060e-03  0 
 1.940959e-03  -5.415840e-03  0 
 1.375111e-03  -1.829066e-02  0 
 1.633453e-03  -1.785474e-02  0 
 4.072114e-03  -3.409591e-02  0 
 1.419552e-04  -1.211174e-02  0 
 4.749727e-04  -8.314813e-03  0 
 5.021105e-04  -1.089041e-02  0 
 2.033254e-04  -1.722059e-02  0 
 6.963025e-04  -2.075734e-02  0 
 2.620615e-03  -2.807607e-02  0 
 3.650353e-03  -3.812854e-02  0 
 1.931745e-03  -1.070559e-02  0 
 -1.032428e-03  -1.101875e-02  0 
 1.066220e-02  -1.611187e-02  0 
VECTORS displacement_ITER12 FLOAT
 2.749472e-03  -5.686519e-03  0 
 1.859644e-03  -7.449614e-03  0 
 2.772264e-03  -4.627310e-02  0 
 1.935906e-03  -5.587561e-03  0 
 2.187926e-03  -5.572441e-03  0 
 2.455933e-03  -5.603268e-03  0 
 1.285561e-02  -5.775596e-03  0 
 1.804584e-03  -6.524578e-03  0 
 1.833041e-03  -6.975408e-03  0 
 2.749269e-03  -1.587695e-02  0 
 2.763917e-03  -2.602733e-02  0 
 2.769592e-03  -3.615011e-02  0 
 6.124935e-03  -2.648471e-02  0 
 6.064030e-03  -3.815172e-02  0 
 5.083938e-03  -4.377444e-02  0 
 2.208875e-03  -5.200206e-03  0 
 2.452094e-03  -5.396216e-03  0 
 1.940357e-03  -5.413629e-03  0 
 1.371164e-03  -1.829119e-02  0 
 1.635286e-03  -1.784790e-02  0 
 4.069044e-03  -3.409241e-02  0 
 1.371353e-04  -1.211171e-02  0 
 4.840672e-04  -8.310990e-03  0 
 5.037467e-04  -1.088094e-02  0 
 2.021943e-04  -1.721708e-02  0 
 6.899427e-04  -2.075895e-02  0 
 2.622427e-03  -2.806577e-02  0 
 3.657543e-03  -3.812232e-02  0 
 1.933956e-03  -1.070047e-02  0 
 -1.045781e-03  -1.102070e-02  0 
 1.066104e-02  -1.609587e-02  0 
VECTORS displacement_ITER13 FLOAT
 2.749474e-03  -5.687401e-03  0 
 1.858672e-03  -7.448965e-03  0 
 2.772180e-03  -4.627410e-02  0 
 1.935362e-03  -5.588822e-03  0 
 2.187738e-03  -5.573373e-03  0 
 2.455898e-03  -5.604238e-03  0 
 1.285550e-02  -5.776704e-03  0 
 1.804798e-03  -6.524527e-03  0 
 1.832591e-03  -6.975038e-03  0 
 2.749218e-03  -1.587794e-02  0 
 2.763640e-03  -2.602812e-02  0 
 2.769413e-03  -3.615105e-02  0 
 6.124669e-03  -2.648482e-02  0 
 6.063223e-03  -3.815250e-02  0 
 5.083163e-03  -4.377587e-02  0 
 2.208599e-03  -5.201002e-03  0 
 2.452077e-03  -5.397160e-03  0 
 1.940111e-03  -5.414481e-03  0 
 1.370768e-03  -1.829126e-02  0 
 1.635417e-03  -1.784856e-02  0 
 4.068088e-03  -3.409378e-02  0 
 1.369314e-04  -1.211230e-02  0 
 4.829954e-04  -8.307857e-03  0 
 5.043729e-04  -1.088115e-02  0 
 2.014390e-04  -1.721905e-02  0 
 6.884788e-04  -2.076044e-02  0 
 2.621913e-03  -2.806686e-02  0 
 3.657085e-03  -3.812340e-02  0 
 1.933897e-03  -1.070134e-02  0 
 -1.047361e-03  -1.102557e-02  0 
 1.066114e-02  -1.609681e-02  0 
VECTORS displacement_ITER14 FLOAT
 2.749470e-03  -5.687279e-03  0 
 1.858676e-03  -7.448931e-03  0 
 2.772169e-03  -4.627397e-02  0 
 1.935479e-03  -5.588700e-03  0 
 2.187744e-03  -5.573271e-03  0 
 2.455893e-03  -5.604131e-03  0 
 1.285549e-02  -5.776587e-03  0 
 1.804595e-03  -6.524441e-03  0 
 1.832481e-03  -6.975012e-03  0 
 2.749212e-03  -1.587782e-02  0 
 2.763635e-03  -2.602801e-02  0 
 2.769402e-03  -3.615092e-02  0 
 6.124584e-03  -2.648479e-02  0 
 6.063151e-03  -3.815248e-02  0 
 5.083129e-03  -4.377579e-02  0 
 2.208614e-03  -5.200922e-03  0 
 2.452074e-03  -5.397059e-03  0 
 1.940200e-03  -5.414438e-03  0 
 1.370672e-03  -1.829128e-02  0 
 1.635408e-03  -1.784844e-02  0 
 4.068057e-03  -3.409370e-02  0 
 1.368079e-04  -1.211226e-02  0 
 4.830699e-04  -8.307892e-03  0 
 5.043459e-04  -1.088102e-02  0 
 2.014209e-04  -1.721893e-02  0 
 6.884380e-04  -2.076039e-02  0 
 2.621908e-03  -2.806675e-02  0 
 3.657071e-03  -3.812330e-02  0 
 1.933889e-03  -1.070122e-02  0 
 -1.047449e-03  -1.102537e-02  0 
 1.066113e-02  -1.609668e-02  0 
CELL_DATA 42
TENSORS element_stresses FLOAT
 1.964425e-05  -6.301253e-02  0 
 -6.301253e-02  -3.325876e-01  0 
 0  0  0 

 6.163999e-02  -1.307024e-01  0 
 -1.307024e-01  -1.049464e-01  0 
 0  0  0 

 -5.338946e-02  -8.771738e-02  0 
 -8.771738e-02  -4.910413e-02  0 
 0  0  0 

 -3.859901e-02  -2.371753e-02  0 
 -2.371753e-02  5.013274e-02  0 
 0  0  0 

 -9.031181e-03  -7.677452e-02  0 
 -7.677452e-02  9.789275e-02  0 
 0  0  0 

 1.139727e-02  -3.343113e-02  0 
 -3.343113e-02  -4.325155e-02  0 
 0  0  0 

 -3.878479e-03  -2.721132e-02  0 
 -2.721132e-02  -1.312057e-02  0 
 0  0  0 

 -1.049043e-02  -1.217540e-02  0 
 -1.217540e-02  -3.085418e-03  0 
 0  0  0 

 -8.726482e-03  -1.745068e-02  0 
 -1.745068e-02  -2.741383e-03  0 
 0  0  0 

 -9.561965e-03  -8.490129e-03  0 
 -8.490129e-03  -3.224503e-02  0 
 0  0  0 

 1.557815e-03  -3.498212e-02  0 
 -3.498212e-02  -2.202590e-02  0 
 0  0  0 

 -2.773787e-03  -1.671987e-02  0 
 -1.671987e-02  -3.167234e-02  0 
 0  0  0 

 -5.007907e-03  -1.799652e-02  0 
 -1.799652e-02  -1.543348e-02  0 
 0  0  0 

 -3.825972e-03  -1.714561e-02  0 
 -1.714561e-02  -4.150974e-02  0 
 0  0  0 

 1.517270e-03  -2.830158e-02  0 
 -2.830158e-02  -4.573647e-02  0 
 0  0  0 

 7.346277e-03  -3.261331e-02  0 
 -3.261331e-02  -2.770591e-02  0 
 0  0  0 

 2.989156e-03  -3.051345e-02  0 
 -3.051345e-02  -2.911178e-02  0 
 0  0  0 

 -1.438001e-02  -2.868685e-03  0 
 -2.868685e-03  -4.828264e-02  0 
 0  0  0 

 2.168712e-03  -2.069755e-02  0 
 -2.069755e-02  -7.549284e-02  0 
 0  0  0 

 -3.295252e-03  -3.512125e-02  0 
 -3.512125e-02  -1.102107e-02  0 
 0  0  0 

 1.563556e-03  -3.829156e-02  0 
 -3.829156e-02  -9.523671e-03  0 
 0  0  0 

 -4.521035e-03  -2.419604e-02  0 
 -2.419604e-02  -1.688904e-03  0 
 0  0  0 

 -3.557500e-03  -2.464949e-02  0 
 -2.464949e-02  -1.122192e-02  0 
 0  0  0 

 -2.657679e-03  -2.751965e-02  0 
 -2.751965e-02  -8.855488e-03  0 
 0  0  0 

 2.423003e-03  -3.638406e-02  0 
 -3.638406e-02  -1.708751e-02  0 
 0  0  0 

 -8.384970e-03  -1.924884e-02  0 
 -1.924884e-02  -9.316217e-03  0 
 0  0  0 

 -3.026421e-03  -2.414733e-02  0 
 -2.414733e-02  -9.715139e-03  0 
 0  0  0 

 -1.090060e-02  -1.516405e-02  0 
 -1.516405e-02  -8.617832e-03  0 
 0  0  0 

 -2.805077e-03  -1.744029e-02  0 
 -1.744029e-02  -2.806651e-02  0 
 0  0  0 

 -6.019371e-03  -1.742684e-02  0 
 -1.742684e-02  -2.326861e-02  0 
 0  0  0 

 -9.394416e-03  -9.692758e-03  0 
 -9.692758e-03  -1.020533e-02  0 
 0  0  0 

 -4.765814e-03  -1.212880e-02  0 
 -1.212880e-02  -3.344962e-02  0 
 0  0  0 

 -1.156644e-03  -1.595016e-02  0 
 -1.595016e-02  -1.728129e-02  0 
 0  0  0 

 -5.639206e-03  -1.865621e-02  0 
 -1.865621e-02  -1.721512e-02  0 
 0  0  0 

 -4.280421e-03  -3.070529e-02  0 
 -3.070529e-02  -1.434496e-02  0 
 0  0  0 

 2.478528e-03  -3.510126e-02  0 
 -3.510126e-02  -1.089576e-02  0 
 0  0  0 

 6.154635e-04  -3.369335e-02  0 
 -3.369335e-02  -1.793206e-02  0 
 0  0  0 

 2.698339e-04  -2.841619e-02  0 
 -2.841619e-02  -1.251755e-02  0 
 0  0  0 

 -9.003711e-04  -2.524814e-02  0 
 -2.524814e-02  -1.870078e-02  0 
 0  0  0 

 3.657972e-02  -2.176332e-02  0 
 -2.176332e-02  -7.037516e-02  0 
 0  0  0 

 7.053110e-03  -9.533095e-02  0 
 -9.533095e-02  -3.551162e-01  0 
 0  0  0 

 -2.658949e-02  -1.447500e-01  0 
 -1.447500e-01  -8.518776e-02  0 
 0  0  0 

TENSORS element_stresses FLOAT
 1.964425e-05  -6.301253e-02  0 
 -6.301253e-02  -3.325876e-01  0 
 0  0  0 

 6.163999e-02  -1.307024e-01  0 
 -1.307024e-01  -1.049464e-01  0 
 0  0  0 

 -5.338946e-02  -8.771738e-02  0 
 -8.771738e-02  -4.910413e-02  0 
 0  0  0 

 -3.859901e-02  -2.371753e-02  0 
 -2.371753e-02  5.013274e-02  0 
 0  0  0 

 -9.031181e-03  -7.677452e-02  0 
 -7.677452e-02  9.789275e-02  0 
 0  0  0 

 1.139727e-02  -3.343113e-02  0 
 -3.343113e-02  -4.325155e-02  0 
 0  0  0 

 -3.878479e-03  -2.721132e-02  0 
 -2.721132e-02  -1.312057e-02  0 
 0  0  0 

 -1.049043e-02  -1.217540e-02  0 
 -1.217540e-02  -3.085418e-03  0 
 0  0  0 

 -8.726482e-03  -1.745068e-02  0 
 -1.745068e-02  -2.741383e-03  0 
 0  0  0 

 -9.561965e-03  -8.490129e-03  0 
 -8.490129e-03  -3.224503e-02  0 
 0  0  0 

 1.557815e-03  -3.498212e-02  0 
 -3.498212e-02  -2.202590e-02  0 
 0  0  0 

 -2.773787e-03  -1.671987e-02  0 
 -1.671987e-02  -3.167234e-02  0 
 0  0  0 

 -5.007907e-03  -1.799652e-02  0 
 -1.799652e-02  -1.543348e-02  0 
 0  0  0 

 -3.825972e-03  -1.714561e-02  0 
 -1.714561e-02  -4.150974e-02  0 
 0  0  0 

 1.517270e-03  -2.830158e-02  0 
 -2.830158e-02  -4.573647e-02  0 
 0  0  0 

 7.346277e-03  -3.261331e-02  0 
 -3.261331e-02  -2.770591e-02  0 
 0  0  0 

 2.989156e-03  -3.051345e-02  0 
 -3.051345e-02  -2.911178e-02  0 
 0  0  0 

 -1.438001e-02  -2.868685e-03  0 
 -2.868685e-03  -4.828264e-02  0 
 0  0  0 

 2.168712e-03  -2.069755e-02  0 
 -2.069755e-02  -7.549284e-02  0 
 0  0  0 

 -3.295252e-03  -3.512125e-02  0 
 -3.512125e-02  -1.102107e-02  0 
 0  0  0 

 1.563556e-03  -3.829156e-02  0 
 -3.829156e-02  -9.523671e-03  0 
 0  0  0 

 -4.521035e-03  -2.419604e-02  0 
 -2.419604e-02  -1.688904e-03  0 
 0  0  0 

 -3.557500e-03  -2.464949e-02  0 
 -2.464949e-02  -1.122192e-02  0 
 0  0  0 

 -2.657679e-03  -2.751965e-02  0 
 -2.751965e-02  -8.855488e-03  0 
 0  0  0 

 2.423003e-03  -3.638406e-02  0 
 -3.638406e-02  -1.708751e-02  0 
 0  0  0 

 -8.384970e-03  -1.924884e-02  0 
 -1.924884e-02  -9.316217e-03  0 
 0  0  0 

 -3.026421e-03  -2.414733e-02  0 
 -2.414733e-02  -9.715139e-03  0 
 0  0  0 

 -1.090060e-02  -1.516405e-02  0 
 -1.516405e-02  -8.617832e-03  0 
 0  0  0 

 -2.805077e-03  -1.744029e-02  0 
 -1.744029e-02  -2.806651e-02  0 
 0  0  0 

 -6.019371e-03  -1.742684e-02  0 
 -1.742684e-02  -2.326861e-02  0 
 0  0  0 

 -9.394416e-03  -9.692758e-03  0 
 -9.692758e-03  -1.020533e-02  0 
 0  0  0 

 -4.765814e-03  -1.212880e-02  0 
 -1.212880e-02  -3.344962e-02  0 
 0  0  0 

 -1.156644e-03  -1.595016e-02  0 
 -1.595016e-02  -1.728129e-02  0 
 0  0  0 

 -5.639206e-03  -1.865621e-02  0 
 -1.865621e-02  -1.721512e-02  0 
 0  0  0 

 -4.280421e-03  -3.070529e-02  0 
 -3.070529e-02  -1.434496e-02  0 
 0  0  0 

 2.478528e-03  -3.510126e-02  0 
 -3.510126e-02  -1.089576e-02  0 
 0  0  0 

 6.154635e-04  -3.369335e-02  0 
 -3.369335e-02  -1.793206e-02  0 
 0  0  0 

 2.698339e-04  -2.841619e-02  0 
 -2.841619e-02  -1.251755e-02  0 
 0  0  0 

 -9.003711e-04  -2.524814e-02  0 
 -2.524814e-02  -1.870078e-02  0 
 0  0  0 

 3.657972e-02  -2.176332e-02  0 
 -2.176332e-02  -7.037516e-02  0 
 0  0  0 

 7.053110e-03  -9.533095e-02  0 
 -9.533095e-02  -3.551162e-01  0 
 0  0  0 

 -2.658949e-02  -1.447500e-01  0 
 -1.447500e-01  -8.518776e-02  0 
 0  0  0 

