# vtk DataFile Version 3.1
this is an vtk file created by FEMAC
ASCII
DATASET UNSTRUCTURED_GRID
POINTS 31 FLOAT
4.000000 6.000000 0.000000
5.000000 5.000000 0.000000
5.000000 6.000000 0.000000
3.500000 6.000000 0.000000
3.750000 6.000000 0.000000
4.000000 5.500000 0.000000
4.000000 5.750000 0.000000
4.500000 5.000000 0.000000
4.750000 5.000000 0.000000
4.250000 6.000000 0.000000
4.500000 6.000000 0.000000
4.750000 6.000000 0.000000
5.000000 5.250000 0.000000
5.000000 5.500000 0.000000
5.000000 5.750000 0.000000
3.745000 5.805000 0.000000
3.757141 5.565925 0.000000
3.546713 5.717271 0.000000
4.500000 5.500000 0.000000
4.805000 5.745000 0.000000
4.745000 5.195000 0.000000
4.255000 5.805000 0.000000
4.195000 5.255000 0.000000
4.799000 5.384000 0.000000
4.616000 5.799000 0.000000
4.384000 5.201000 0.000000
4.201000 5.616000 0.000000
4.325714 5.438857 0.000000
4.433602 5.681622 0.000000
4.555888 5.333051 0.000000
4.672784 5.563239 0.000000
CELLS 42 168 
3 3 15  4
3 6 16  5
3 17 16 15
3 15 16  6
3 3 17 15
3 15  0  4
3 6  0 15
3 19 13 14
3 20  7  8
3 21 10  9
3 26  6  5
3 23 12 13
3 24 11 10
3 23 29 20
3 24 30 19
3 25 27 22
3 26 28 21
3 23 20 12
3 24 19 11
3 26 21  6
3 27  5 22
3 26  5 27
3 18 28 27
3 26 27 28
3 29  7 20
3 25  7 29
3 18 27 29
3 25 29 27
3 28 10 21
3 24 10 28
3 18 30 28
3 24 28 30
3 30 13 19
3 23 13 30
3 18 29 30
3 23 30 29
3 1 20  8
3 1 12 20
3 19  2 11
3 14  2 19
3 21  0  6
3 9  0 21
CELL_TYPES 42
5 5 5 5 5 5 5 5 5 5 5 5 5 5 5 5 5 5 5 5 5 5 5 5 5 5 5 5 5 5 5 5 5 5 5 5 5 5 5 5 5 5 
POINT_DATA 31
VECTORS displacement_ITER1 FLOAT
 1.762598e-01  -2.497460e-01  0 
 1.350652e-01  -3.142310e-01  0 
 2.274197e-01  -3.646941e-01  0 
 1.762234e-01  -2.104963e-01  0 
 1.762425e-01  -2.301196e-01  0 
 1.370427e-01  -2.496843e-01  0 
 1.566347e-01  -2.497216e-01  0 
 1.225814e-01  -2.737503e-01  0 
 1.273847e-01  -2.929173e-01  0 
 1.888837e-01  -2.810820e-01  0 
 1.998104e-01  -3.065432e-01  0 
 2.135527e-01  -3.333606e-01  0 
 1.524535e-01  -3.259794e-01  0 
 1.688388e-01  -3.357670e-01  0 
 1.949641e-01  -3.508150e-01  0 
 1.609366e-01  -2.297123e-01  0 
 1.421803e-01  -2.306544e-01  0 
 1.540450e-01  -2.141496e-01  0 
 1.547801e-01  -2.860775e-01  0 
 1.862709e-01  -3.257813e-01  0 
 1.399779e-01  -2.990686e-01  0 
 1.686611e-01  -2.736358e-01  0 
 1.339410e-01  -2.557017e-01  0 
 1.551498e-01  -3.115465e-01  0 
 1.843462e-01  -3.085503e-01  0 
 1.337026e-01  -2.685574e-01  0 
 1.515332e-01  -2.653667e-01  0 
 1.452372e-01  -2.685351e-01  0 
 1.652447e-01  -2.856212e-01  0 
 1.448559e-01  -2.857131e-01  0 
 1.647554e-01  -3.043522e-01  0 
VECTORS displacement_ITER2 FLOAT
 1.519583e-01  -1.910899e-01  0 
 1.092564e-01  -2.461086e-01  0 
 2.055431e-01  -2.768857e-01  0 
 1.519277e-01  -1.649239e-01  0 
 1.519431e-01  -1.780051e-01  0 
 1.258169e-01  -1.910271e-01  0 
 1.388717e-01  -1.910670e-01  0 
 1.035376e-01  -1.981174e-01  0 
 1.050765e-01  -2.197278e-01  0 
 1.654436e-01  -2.155614e-01  0 
 1.775885e-01  -2.351909e-01  0 
 1.916170e-01  -2.551247e-01  0 
 1.348676e-01  -2.540105e-01  0 
 1.567244e-01  -2.575925e-01  0 
 1.795769e-01  -2.666055e-01  0 
 1.417380e-01  -1.777307e-01  0 
 1.292327e-01  -1.783589e-01  0 
 1.371434e-01  -1.673572e-01  0 
 1.419746e-01  -2.116165e-01  0 
 1.718557e-01  -2.464930e-01  0 
 1.235754e-01  -2.235885e-01  0 
 1.498334e-01  -2.069721e-01  0 
 1.210570e-01  -1.856579e-01  0 
 1.422765e-01  -2.345985e-01  0 
 1.676953e-01  -2.336358e-01  0 
 1.194695e-01  -1.933479e-01  0 
 1.366731e-01  -1.989529e-01  0 
 1.329775e-01  -1.971989e-01  0 
 1.500223e-01  -2.137219e-01  0 
 1.321363e-01  -2.100017e-01  0 
 1.522098e-01  -2.276315e-01  0 
VECTORS displacement_ITER3 FLOAT
 1.104339e-01  -1.295779e-01  0 
 6.398074e-02  -1.736363e-01  0 
 1.635457e-01  -1.722493e-01  0 
 1.104130e-01  -1.209745e-01  0 
 1.104223e-01  -1.252739e-01  0 
 1.018459e-01  -1.295142e-01  0 
 1.061248e-01  -1.295578e-01  0 
 6.980389e-02  -1.210688e-01  0 
 6.628522e-02  -1.438875e-01  0 
 1.242023e-01  -1.443552e-01  0 
 1.370858e-01  -1.557915e-01  0 
 1.503704e-01  -1.655331e-01  0 
 9.918132e-02  -1.752007e-01  0 
 1.283688e-01  -1.702110e-01  0 
 1.469573e-01  -1.690512e-01  0 
 1.070642e-01  -1.251787e-01  0 
 1.029501e-01  -1.253854e-01  0 
 1.055529e-01  -1.217705e-01  0 
 1.145824e-01  -1.303460e-01  0 
 1.414167e-01  -1.564611e-01  0 
 9.066459e-02  -1.426214e-01  0 
 1.151227e-01  -1.348899e-01  0 
 9.444487e-02  -1.112920e-01  0 
 1.133249e-01  -1.499392e-01  0 
 1.346973e-01  -1.499617e-01  0 
 9.111306e-02  -1.137398e-01  0 
 1.075980e-01  -1.276945e-01  0 
 1.068710e-01  -1.205990e-01  0 
 1.196453e-01  -1.349830e-01  0 
 1.044506e-01  -1.282171e-01  0 
 1.245239e-01  -1.424587e-01  0 
VECTORS displacement_ITER4 FLOAT
 8.934399e-02  -1.093608e-01  0 
 4.563482e-02  -1.400489e-01  0 
 1.350850e-01  -1.233838e-01  0 
 8.933351e-02  -1.067829e-01  0 
 8.933708e-02  -1.080699e-01  0 
 8.677972e-02  -1.093024e-01  0 
 8.804739e-02  -1.093459e-01  0 
 5.783495e-02  -1.014021e-01  0 
 5.217402e-02  -1.176680e-01  0 
 1.005729e-01  -1.179394e-01  0 
 1.116423e-01  -1.241997e-01  0 
 1.230170e-01  -1.270191e-01  0 
 7.921927e-02  -1.396342e-01  0 
 1.085611e-01  -1.325801e-01  0 
 1.243108e-01  -1.256059e-01  0 
 8.832794e-02  -1.080391e-01  0 
 8.709100e-02  -1.081031e-01  0 
 8.787466e-02  -1.070189e-01  0 
 9.753202e-02  -1.012483e-01  0 
 1.206061e-01  -1.184453e-01  0 
 7.320437e-02  -1.126812e-01  0 
 9.513323e-02  -1.098600e-01  0 
 8.039151e-02  -8.819324e-02  0 
 9.463657e-02  -1.164280e-01  0 
 1.131749e-01  -1.166460e-01  0 
 7.732533e-02  -8.972685e-02  0 
 9.055303e-02  -1.039833e-01  0 
 9.121251e-02  -9.526417e-02  0 
 1.008992e-01  -1.064953e-01  0 
 8.781746e-02  -9.967345e-02  0 
 1.061921e-01  -1.091790e-01  0 
VECTORS displacement_ITER5 FLOAT
 8.712249e-02  -6.985428e-02  0 
 4.341685e-02  -9.132815e-02  0 
 1.185719e-01  -8.666717e-02  0 
 8.712485e-02  -5.121203e-02  0 
 8.712239e-02  -6.053224e-02  0 
 6.849935e-02  -6.981152e-02  0 
 7.779768e-02  -6.984903e-02  0 
 5.352102e-02  -8.640155e-02  0 
 5.013935e-02  -8.760208e-02  0 
 9.196653e-02  -7.947593e-02  0 
 9.812197e-02  -8.732430e-02  0 
 1.069582e-01  -9.074195e-02  0 
 6.364327e-02  -9.649003e-02  0 
 8.628466e-02  -9.668494e-02  0 
 1.048470e-01  -9.105850e-02  0 
 7.984917e-02  -6.034633e-02  0 
 7.092818e-02  -6.080342e-02  0 
 7.657697e-02  -5.295046e-02  0 
 7.977641e-02  -7.156971e-02  0 
 1.018389e-01  -8.362468e-02  0 
 5.816422e-02  -8.209601e-02  0 
 8.383212e-02  -7.573785e-02  0 
 6.509857e-02  -5.986508e-02  0 
 7.417700e-02  -8.399085e-02  0 
 9.647844e-02  -8.223191e-02  0 
 6.434878e-02  -6.758930e-02  0 
 7.609405e-02  -7.106816e-02  0 
 7.398015e-02  -6.627004e-02  0 
 8.541389e-02  -7.466646e-02  0 
 6.934331e-02  -7.202460e-02  0 
 8.693862e-02  -7.697221e-02  0 
VECTORS displacement_ITER6 FLOAT
 7.435548e-02  -5.127821e-02  0 
 4.378083e-02  -5.978426e-02  0 
 1.019206e-01  -6.986747e-02  0 
 7.436049e-02  -2.796984e-02  0 
 7.435704e-02  -3.962336e-02  0 
 5.107055e-02  -5.124070e-02  0 
 6.270003e-02  -5.127600e-02  0 
 5.073673e-02  -8.543100e-02  0 
 4.981770e-02  -7.306466e-02  0 
 7.660331e-02  -6.098671e-02  0 
 8.068706e-02  -6.865255e-02  0 
 8.922010e-02  -7.272873e-02  0 
 4.984439e-02  -6.922884e-02  0 
 6.414749e-02  -7.607233e-02  0 
 8.467829e-02  -7.405705e-02  0 
 6.526480e-02  -3.939194e-02  0 
 5.411277e-02  -3.996132e-02  0 
 6.117243e-02  -3.014272e-02  0 
 6.152773e-02  -5.840860e-02  0 
 8.140213e-02  -6.557302e-02  0 
 4.525911e-02  -6.745040e-02  0 
 6.789573e-02  -5.912966e-02  0 
 5.143020e-02  -5.042225e-02  0 
 5.461187e-02  -6.729364e-02  0 
 7.741753e-02  -6.456108e-02  0 
 5.269085e-02  -6.203428e-02  0 
 5.987116e-02  -5.600597e-02  0 
 5.697227e-02  -5.470524e-02  0 
 6.745025e-02  -5.926689e-02  0 
 5.205673e-02  -6.079845e-02  0 
 6.669804e-02  -6.094110e-02  0 
VECTORS displacement_ITER7 FLOAT
 5.087929e-02  -4.662843e-02  0 
 4.118998e-02  -4.572795e-02  0 
 9.303848e-02  -5.769190e-02  0 
 5.087209e-02  -4.126569e-02  0 
 5.087450e-02  -4.394510e-02  0 
 4.553826e-02  -4.657584e-02  0 
 4.819430e-02  -4.661775e-02  0 
 4.709026e-02  -7.140945e-02  0 
 4.643557e-02  -5.915499e-02  0 
 5.806320e-02  -5.352936e-02  0 
 6.593150e-02  -5.733833e-02  0 
 7.768019e-02  -6.015082e-02  0 
 4.481727e-02  -5.283967e-02  0 
 5.598184e-02  -5.853319e-02  0 
 7.513812e-02  -5.941439e-02  0 
 4.878033e-02  -4.388785e-02  0 
 4.621199e-02  -4.401598e-02  0 
 4.783472e-02  -4.175744e-02  0 
 5.334097e-02  -4.565222e-02  0 
 7.066115e-02  -5.061327e-02  0 
 4.126357e-02  -5.348600e-02  0 
 5.324776e-02  -4.840267e-02  0 
 4.703196e-02  -4.304136e-02  0 
 4.808148e-02  -5.201125e-02  0 
 6.561437e-02  -5.066574e-02  0 
 4.798995e-02  -5.102294e-02  0 
 5.008860e-02  -4.622154e-02  0 
 5.018738e-02  -4.435417e-02  0 
 5.609505e-02  -4.625751e-02  0 
 4.649852e-02  -4.819508e-02  0 
 5.738552e-02  -4.642975e-02  0 
VECTORS displacement_ITER8 FLOAT
 2.948727e-02  -3.038661e-02  0 
 2.184731e-02  -3.386371e-02  0 
 8.190583e-02  -3.971859e-02  0 
 2.947368e-02  -3.379945e-02  0 
 2.947884e-02  -3.209022e-02  0 
 3.292181e-02  -3.032039e-02  0 
 3.118804e-02  -3.036969e-02  0 
 2.681988e-02  -3.896020e-02  0 
 2.579408e-02  -3.613724e-02  0 
 4.035182e-02  -3.680521e-02  0 
 5.114198e-02  -3.951495e-02  0 
 6.505613e-02  -4.195400e-02  0 
 3.268153e-02  -3.696573e-02  0 
 4.664732e-02  -3.797547e-02  0 
 6.422584e-02  -3.969994e-02  0 
 3.080612e-02  -3.211786e-02  0 
 3.243532e-02  -3.203034e-02  0 
 3.139951e-02  -3.346950e-02  0 
 4.094341e-02  -2.377808e-02  0 
 5.892432e-02  -3.081971e-02  0 
 2.857543e-02  -3.127483e-02  0 
 3.701522e-02  -2.920309e-02  0 
 3.273654e-02  -2.114400e-02  0 
 3.806641e-02  -3.071666e-02  0 
 5.261733e-02  -3.106348e-02  0 
 3.264265e-02  -2.457081e-02  0 
 3.556415e-02  -2.636112e-02  0 
 3.721477e-02  -2.241078e-02  0 
 4.231689e-02  -2.564167e-02  0 
 3.501212e-02  -2.492306e-02  0 
 4.596023e-02  -2.554524e-02  0 
VECTORS displacement_ITER9 FLOAT
 2.174114e-02  -2.474764e-02  0 
 1.144315e-02  -3.209710e-02  0 
 6.656941e-02  -2.527370e-02  0 
 2.173263e-02  -2.462158e-02  0 
 2.173514e-02  -2.468219e-02  0 
 2.164485e-02  -2.467818e-02  0 
 2.167408e-02  -2.473165e-02  0 
 1.522560e-02  -2.041758e-02  0 
 1.410254e-02  -2.551315e-02  0 
 3.079622e-02  -3.083097e-02  0 
 3.982058e-02  -3.312488e-02  0 
 5.163027e-02  -3.239017e-02  0 
 2.739267e-02  -3.097218e-02  0 
 4.217547e-02  -2.703191e-02  0 
 5.415526e-02  -2.659721e-02  0 
 2.168207e-02  -2.467658e-02  0 
 2.161967e-02  -2.467604e-02  0 
 2.165492e-02  -2.462440e-02  0 
 3.321802e-02  -1.631402e-02  0 
 4.972095e-02  -2.190580e-02  0 
 2.295968e-02  -2.115585e-02  0 
 2.766870e-02  -2.463261e-02  0 
 2.298784e-02  -1.292645e-02  0 
 3.381204e-02  -2.134979e-02  0 
 4.281115e-02  -2.444396e-02  0 
 2.345499e-02  -1.244479e-02  0 
 2.552647e-02  -2.100982e-02  0 
 2.819456e-02  -1.489805e-02  0 
 3.353450e-02  -2.023873e-02  0 
 2.894738e-02  -1.516598e-02  0 
 3.927463e-02  -1.801018e-02  0 
VECTORS displacement_ITER10 FLOAT
 2.383557e-02  -2.257788e-02  0 
 1.437685e-02  -2.909572e-02  0 
 5.510628e-02  -1.544376e-02  0 
 2.383516e-02  -1.403227e-02  0 
 2.383378e-02  -1.830348e-02  0 
 1.533042e-02  -2.251050e-02  0 
 1.956190e-02  -2.256579e-02  0 
 1.523017e-02  -1.378660e-02  0 
 1.517951e-02  -2.087097e-02  0 
 2.891414e-02  -2.871089e-02  0 
 3.433640e-02  -3.107748e-02  0 
 4.279419e-02  -2.731189e-02  0 
 2.916520e-02  -2.602252e-02  0 
 4.132102e-02  -2.035880e-02  0 
 4.792146e-02  -1.832375e-02  0 
 2.049755e-02  -1.821717e-02  0 
 1.640959e-02  -1.842281e-02  0 
 1.899356e-02  -1.482443e-02  0 
 3.059426e-02  -1.600730e-02  0 
 4.457340e-02  -1.818601e-02  0 
 2.466041e-02  -1.732146e-02  0 
 2.526485e-02  -2.546961e-02  0 
 2.000058e-02  -1.277113e-02  0 
 3.412182e-02  -1.766787e-02  0 
 3.783377e-02  -2.320089e-02  0 
 2.202117e-02  -1.034530e-02  0 
 2.161540e-02  -2.159610e-02  0 
 2.460952e-02  -1.491212e-02  0 
 3.027748e-02  -2.117774e-02  0 
 2.827418e-02  -1.321093e-02  0 
 3.695639e-02  -1.660233e-02  0 
VECTORS displacement_ITER11 FLOAT
 1.911881e-02  -1.624256e-02  0 
 1.291745e-02  -2.071359e-02  0 
 5.055965e-02  -1.587333e-02  0 
 1.911816e-02  -4.342338e-03  0 
 1.911697e-02  -1.029070e-02  0 
 7.260763e-03  -1.617384e-02  0 
 1.316781e-02  -1.623099e-02  0 
 8.776435e-03  -9.387248e-03  0 
 1.083863e-02  -1.437800e-02  0 
 2.382079e-02  -2.375991e-02  0 
 2.894184e-02  -2.729564e-02  0 
 3.766911e-02  -2.514842e-02  0 
 2.400851e-02  -1.962401e-02  0 
 3.392261e-02  -1.645033e-02  0 
 4.167797e-02  -1.673749e-02  0 
 1.447257e-02  -1.017069e-02  0 
 8.779755e-03  -1.045756e-02  0 
 1.237971e-02  -5.447091e-03  0 
 2.287315e-02  -1.293635e-02  0 
 3.753232e-02  -1.565786e-02  0 
 1.861663e-02  -1.308461e-02  0 
 1.908439e-02  -2.085318e-02  0 
 1.197383e-02  -9.781552e-03  0 
 2.687731e-02  -1.404414e-02  0 
 3.114203e-02  -2.001687e-02  0 
 1.441429e-02  -7.479657e-03  0 
 1.445523e-02  -1.700100e-02  0 
 1.657819e-02  -1.159462e-02  0 
 2.318862e-02  -1.764153e-02  0 
 2.073592e-02  -1.013515e-02  0 
 2.929564e-02  -1.359383e-02  0 
VECTORS displacement_ITER12 FLOAT
 1.796836e-02  -1.165465e-02  0 
 1.603141e-02  -1.533656e-02  0 
 5.611874e-02  -1.839683e-02  0 
 1.796183e-02  -3.790477e-03  0 
 1.796352e-02  -7.719924e-03  0 
 1.014130e-02  -1.158184e-02  0 
 1.403284e-02  -1.164108e-02  0 
 8.796489e-03  -8.041328e-03  0 
 1.210897e-02  -1.079490e-02  0 
 2.469470e-02  -1.979754e-02  0 
 3.144974e-02  -2.368937e-02  0 
 4.178080e-02  -2.385191e-02  0 
 2.427091e-02  -1.566904e-02  0 
 3.329637e-02  -1.455214e-02  0 
 4.404448e-02  -1.697760e-02  0 
 1.489295e-02  -7.637624e-03  0 
 1.112850e-02  -7.825043e-03  0 
 1.350770e-02  -4.515198e-03  0 
 2.315263e-02  -9.787521e-03  0 
 3.886035e-02  -1.359439e-02  0 
 1.857829e-02  -1.088994e-02  0 
 2.002250e-02  -1.552349e-02  0 
 1.256056e-02  -7.822689e-03  0 
 2.619122e-02  -1.170056e-02  0 
 3.272556e-02  -1.652313e-02  0 
 1.441289e-02  -5.909481e-03  0 
 1.609838e-02  -1.206016e-02  0 
 1.733572e-02  -8.552092e-03  0 
 2.401718e-02  -1.317382e-02  0 
 2.053507e-02  -8.027217e-03  0 
 2.921588e-02  -1.062440e-02  0 
VECTORS displacement_ITER13 FLOAT
 1.316646e-02  -6.832916e-03  0 
 1.028414e-02  -1.441654e-02  0 
 5.478754e-02  -1.558181e-02  0 
 1.315438e-02  -5.024621e-03  0 
 1.315874e-02  -5.925089e-03  0 
 1.138644e-02  -6.758773e-03  0 
 1.225537e-02  -6.818419e-03  0 
 4.083105e-03  -9.255407e-03  0 
 6.822827e-03  -1.089660e-02  0 
 2.161590e-02  -1.465980e-02  0 
 2.955951e-02  -1.829113e-02  0 
 4.030626e-02  -1.960984e-02  0 
 1.789289e-02  -1.382217e-02  0 
 2.800838e-02  -1.261121e-02  0 
 4.114547e-02  -1.421801e-02  0 
 1.244966e-02  -5.900757e-03  0 
 1.157817e-02  -5.940415e-03  0 
 1.212678e-02  -5.180545e-03  0 
 1.999168e-02  -6.202906e-03  0 
 3.598414e-02  -9.754717e-03  0 
 1.307700e-02  -1.014671e-02  0 
 1.776798e-02  -9.226220e-03  0 
 9.845131e-03  -6.033567e-03  0 
 2.082182e-02  -9.576930e-03  0 
 3.036664e-02  -1.160733e-02  0 
 1.057405e-02  -5.059446e-03  0 
 1.520369e-02  -6.423073e-03  0 
 1.511146e-02  -5.389798e-03  0 
 2.159002e-02  -7.793905e-03  0 
 1.627147e-02  -6.210643e-03  0 
 2.537711e-02  -6.951407e-03  0 
VECTORS displacement_ITER14 FLOAT
 1.203921e-02  -4.632742e-03  0 
 5.992892e-03  -1.483479e-02  0 
 4.938259e-02  -1.001190e-02  0 
 1.202668e-02  -3.930132e-03  0 
 1.203130e-02  -4.277362e-03  0 
 1.136081e-02  -4.561002e-03  0 
 1.167942e-02  -4.620005e-03  0 
 3.414590e-03  -1.316703e-02  0 
 4.469904e-03  -1.342743e-02  0 
 1.991166e-02  -1.196441e-02  0 
 2.709104e-02  -1.536040e-02  0 
 3.636677e-02  -1.592759e-02  0 
 1.351598e-02  -1.283265e-02  0 
 2.471422e-02  -1.135844e-02  0 
 3.739403e-02  -1.041274e-02  0 
 1.175351e-02  -4.263751e-03  0 
 1.140825e-02  -4.277314e-03  0 
 1.162488e-02  -3.981674e-03  0 
 1.779338e-02  -5.476350e-03  0 
 3.308336e-02  -7.353215e-03  0 
 9.845207e-03  -1.055767e-02  0 
 1.653968e-02  -6.991406e-03  0 
 8.405181e-03  -6.966277e-03  0 
 1.735269e-02  -8.710497e-03  0 
 2.788776e-02  -9.439081e-03  0 
 8.993183e-03  -6.961457e-03  0 
 1.446658e-02  -4.675168e-03  0 
 1.343566e-02  -5.294951e-03  0 
 1.981029e-02  -6.195591e-03  0 
 1.349817e-02  -6.412824e-03  0 
 2.273014e-02  -5.624157e-03  0 
VECTORS displacement_ITER15 FLOAT
 1.044043e-02  -4.923247e-03  0 
 4.968280e-03  -1.048897e-02  0 
 4.572472e-02  -1.002408e-02  0 
 1.043022e-02  -7.496111e-04  0 
 1.043372e-02  -2.832621e-03  0 
 6.295024e-03  -4.850804e-03  0 
 8.346058e-03  -4.911442e-03  0 
 3.924561e-03  -1.152288e-02  0 
 4.126318e-03  -1.077620e-02  0 
 1.747717e-02  -1.270556e-02  0 
 2.407062e-02  -1.655677e-02  0 
 3.299888e-02  -1.667503e-02  0 
 1.290802e-02  -9.805452e-03  0 
 2.431066e-02  -1.042914e-02  0 
 3.533179e-02  -9.865084e-03  0 
 8.802335e-03  -2.785317e-03  0 
 6.797234e-03  -2.883820e-03  0 
 8.064857e-03  -1.126331e-03  0 
 1.498108e-02  -5.351378e-03  0 
 3.074529e-02  -7.856379e-03  0 
 8.653137e-03  -7.611833e-03  0 
 1.347181e-02  -8.298369e-03  0 
 5.763090e-03  -6.998298e-03  0 
 1.590160e-02  -6.926710e-03  0 
 2.503121e-02  -1.043027e-02  0 
 7.307065e-03  -6.466523e-03  0 
 1.060029e-02  -5.654126e-03  0 
 1.001280e-02  -5.342857e-03  0 
 1.672214e-02  -7.184026e-03  0 
 1.110052e-02  -5.088405e-03  0 
 2.052728e-02  -5.474931e-03  0 
VECTORS displacement_ITER16 FLOAT
 8.542377e-03  -7.044519e-03  0 
 4.673590e-03  -8.906228e-03  0 
 4.508434e-02  -1.060384e-02  0 
 8.532599e-03  -3.362960e-03  0 
 8.535812e-03  -5.199997e-03  0 
 4.890811e-03  -6.969907e-03  0 
 6.694213e-03  -7.032197e-03  0 
 4.535978e-03  -8.106177e-03  0 
 4.157018e-03  -8.507426e-03  0 
 1.585541e-02  -1.451706e-02  0 
 2.279007e-02  -1.802896e-02  0 
 3.211521e-02  -1.764361e-02  0 
 1.431995e-02  -8.700785e-03  0 
 2.592933e-02  -9.796887e-03  0 
 3.561443e-02  -9.808746e-03  0 
 7.096191e-03  -5.157806e-03  0 
 5.326549e-03  -5.244439e-03  0 
 6.445231e-03  -3.694363e-03  0 
 1.482742e-02  -5.105076e-03  0 
 3.072143e-02  -8.257026e-03  0 
 9.544134e-03  -5.379110e-03  0 
 1.203966e-02  -9.869399e-03  0 
 5.706757e-03  -7.069226e-03  0 
 1.701504e-02  -5.696765e-03  0 
 2.442435e-02  -1.123828e-02  0 
 7.525805e-03  -5.078234e-03  0 
 9.294826e-03  -6.969783e-03  0 
 9.527415e-03  -5.340056e-03  0 
 1.594022e-02  -7.950886e-03  0 
 1.149962e-02  -3.774984e-03  0 
 2.081065e-02  -5.301800e-03  0 
VECTORS displacement_ITER17 FLOAT
 8.734298e-03  -7.543202e-03  0 
 3.362834e-03  -9.348868e-03  0 
 4.433343e-02  -8.343539e-03  0 
 8.725992e-03  -4.670370e-03  0 
 8.728394e-03  -6.103095e-03  0 
 5.890319e-03  -7.469979e-03  0 
 7.290203e-03  -7.531762e-03  0 
 4.048629e-03  -6.396424e-03  0 
 3.362904e-03  -8.205782e-03  0 
 1.577267e-02  -1.421155e-02  0 
 2.253051e-02  -1.714852e-02  0 
 3.161917e-02  -1.618183e-02  0 
 1.439853e-02  -8.642522e-03  0 
 2.603747e-02  -8.817994e-03  0 
 3.526906e-02  -8.267804e-03  0 
 7.604033e-03  -6.069583e-03  0 
 6.220279e-03  -6.137391e-03  0 
 7.095432e-03  -4.927050e-03  0 
 1.536452e-02  -4.453707e-03  0 
 3.072865e-02  -7.022543e-03  0 
 9.734849e-03  -4.746303e-03  0 
 1.239053e-02  -9.680897e-03  0 
 6.229272e-03  -6.715552e-03  0 
 1.746840e-02  -5.027794e-03  0 
 2.450398e-02  -1.028808e-02  0 
 7.755772e-03  -4.078671e-03  0 
 9.927667e-03  -6.858671e-03  0 
 1.018987e-02  -4.890722e-03  0 
 1.639514e-02  -7.414531e-03  0 
 1.207598e-02  -3.021774e-03  0 
 2.125168e-02  -4.505166e-03  0 
VECTORS displacement_ITER18 FLOAT
 7.788306e-03  -8.345985e-03  0 
 2.788813e-03  -7.220536e-03  0 
 4.476863e-02  -1.013206e-02  0 
 7.782177e-03  -4.956904e-03  0 
 7.783401e-03  -6.647955e-03  0 
 4.427853e-03  -8.274193e-03  0 
 6.086261e-03  -8.335466e-03  0 
 2.128857e-03  -6.595941e-03  0 
 2.374304e-03  -7.489861e-03  0 
 1.460511e-02  -1.460422e-02  0 
 2.146935e-02  -1.732616e-02  0 
 3.123211e-02  -1.685069e-02  0 
 1.295295e-02  -7.827554e-03  0 
 2.360258e-02  -8.932688e-03  0 
 3.411993e-02  -9.559292e-03  0 
 6.457542e-03  -6.610209e-03  0 
 4.826381e-03  -6.691356e-03  0 
 5.858708e-03  -5.262962e-03  0 
 1.374257e-02  -4.642407e-03  0 
 2.929070e-02  -7.217238e-03  0 
 7.977818e-03  -4.786861e-03  0 
 1.112017e-02  -1.007690e-02  0 
 4.662709e-03  -6.853664e-03  0 
 1.541647e-02  -5.256301e-03  0 
 2.318679e-02  -1.028081e-02  0 
 6.009788e-03  -4.232020e-03  0 
 8.527280e-03  -7.360086e-03  0 
 8.692148e-03  -5.111111e-03  0 
 1.497485e-02  -7.544706e-03  0 
 1.032267e-02  -3.283336e-03  0 
 1.945976e-02  -4.562700e-03  0 
VECTORS displacement_ITER19 FLOAT
 7.790026e-03  -7.805597e-03  0 
 2.361721e-03  -6.885999e-03  0 
 4.437068e-02  -7.692065e-03  0 
 7.784616e-03  -4.810781e-03  0 
 7.785473e-03  -6.304749e-03  0 
 4.823174e-03  -7.734870e-03  0 
 6.285138e-03  -7.795585e-03  0 
 2.086964e-03  -7.399097e-03  0 
 2.384368e-03  -7.671540e-03  0 
 1.437039e-02  -1.359114e-02  0 
 2.107384e-02  -1.590254e-02  0 
 3.076885e-02  -1.501817e-02  0 
 1.231255e-02  -7.132611e-03  0 
 2.267789e-02  -7.582021e-03  0 
 3.356425e-02  -7.759173e-03  0 
 6.613370e-03  -6.271246e-03  0 
 5.170401e-03  -6.343084e-03  0 
 6.083941e-03  -5.080493e-03  0 
 1.382172e-02  -3.773207e-03  0 
 2.896348e-02  -5.448932e-03  0 
 7.632862e-03  -4.608124e-03  0 
 1.114661e-02  -9.198269e-03  0 
 5.177280e-03  -6.305937e-03  0 
 1.498708e-02  -4.518562e-03  0 
 2.296260e-02  -8.788360e-03  0 
 6.340348e-03  -3.945924e-03  0 
 8.772871e-03  -6.643192e-03  0 
 9.001084e-03  -4.404634e-03  0 
 1.500867e-02  -6.475374e-03  0 
 1.035838e-02  -2.750959e-03  0 
 1.926871e-02  -3.357547e-03  0 
VECTORS displacement_ITER20 FLOAT
 7.343638e-03  -7.037588e-03  0 
 2.517659e-03  -7.419775e-03  0 
 4.447945e-02  -5.433687e-03  0 
 7.336978e-03  -5.427491e-03  0 
 7.338484e-03  -6.229072e-03  0 
 5.761811e-03  -6.965605e-03  0 
 6.531238e-03  -7.026596e-03  0 
 3.105019e-03  -7.139149e-03  0 
 3.087862e-03  -7.520316e-03  0 
 1.428521e-02  -1.267294e-02  0 
 2.119008e-02  -1.468456e-02  0 
 3.090816e-02  -1.338304e-02  0 
 1.282948e-02  -6.770955e-03  0 
 2.336675e-02  -6.255666e-03  0 
 3.398120e-02  -5.919773e-03  0 
 6.706460e-03  -6.208919e-03  0 
 5.926435e-03  -6.246446e-03  0 
 6.419938e-03  -5.567811e-03  0 
 1.477959e-02  -2.499130e-03  0 
 2.955077e-02  -3.826560e-03  0 
 8.483864e-03  -3.938697e-03  0 
 1.140978e-02  -8.084441e-03  0 
 6.651338e-03  -5.215816e-03  0 
 1.590980e-02  -3.439425e-03  0 
 2.345772e-02  -7.382160e-03  0 
 7.711252e-03  -2.903042e-03  0 
 9.445331e-03  -5.561521e-03  0 
 1.009799e-02  -3.184593e-03  0 
 1.561604e-02  -5.164454e-03  0 
 1.149876e-02  -1.629323e-03  0 
 2.010203e-02  -1.984442e-03  0 
VECTORS displacement_ITER21 FLOAT
 7.567070e-03  -6.576600e-03  0 
 3.360649e-03  -6.308446e-03  0 
 4.471416e-02  -6.577607e-03  0 
 7.561167e-03  -3.505353e-03  0 
 7.562306e-03  -5.037750e-03  0 
 4.526533e-03  -6.504004e-03  0 
 6.025061e-03  -6.565217e-03  0 
 3.252162e-03  -6.397581e-03  0 
 3.566746e-03  -6.242075e-03  0 
 1.436768e-02  -1.264398e-02  0 
 2.120190e-02  -1.501492e-02  0 
 3.103781e-02  -1.399931e-02  0 
 1.332135e-02  -6.264130e-03  0 
 2.360542e-02  -6.345881e-03  0 
 3.403567e-02  -6.610545e-03  0 
 6.360472e-03  -5.003379e-03  0 
 4.882948e-03  -5.076025e-03  0 
 5.817604e-03  -3.783098e-03  0 
 1.449074e-02  -2.321607e-03  0 
 2.944744e-02  -4.287819e-03  0 
 8.652291e-03  -3.224509e-03  0 
 1.110521e-02  -8.161590e-03  0 
 6.411536e-03  -4.473600e-03  0 
 1.602018e-02  -3.189579e-03  0 
 2.329490e-02  -7.704294e-03  0 
 7.665618e-03  -2.235657e-03  0 
 8.736414e-03  -5.472147e-03  0 
 9.612825e-03  -2.737528e-03  0 
 1.526540e-02  -5.258028e-03  0 
 1.137335e-02  -1.145993e-03  0 
 1.996333e-02  -2.034034e-03  0 
VECTORS displacement_ITER22 FLOAT
 6.737806e-03  -6.398667e-03  0 
 2.678472e-03  -6.870593e-03  0 
 4.505668e-02  -6.720247e-03  0 
 6.730898e-03  -4.557972e-03  0 
 6.732508e-03  -5.475064e-03  0 
 4.927583e-03  -6.324981e-03  0 
 5.811050e-03  -6.386278e-03  0 
 2.726530e-03  -5.287888e-03  0 
 2.867747e-03  -5.569918e-03  0 
 1.406592e-02  -1.246459e-02  0 
 2.130026e-02  -1.478497e-02  0 
 3.135092e-02  -1.388092e-02  0 
 1.336839e-02  -6.564612e-03  0 
 2.410129e-02  -6.346070e-03  0 
 3.441756e-02  -6.560259e-03  0 
 6.010513e-03  -5.452593e-03  0 
 5.122111e-03  -5.494780e-03  0 
 5.683567e-03  -4.720927e-03  0 
 1.476078e-02  -1.628816e-03  0 
 2.978834e-02  -4.101122e-03  0 
 8.639375e-03  -2.690349e-03  0 
 1.096771e-02  -7.628226e-03  0 
 6.725105e-03  -3.697153e-03  0 
 1.636900e-02  -2.811633e-03  0 
 2.353684e-02  -7.352604e-03  0 
 7.755996e-03  -1.225805e-03  0 
 8.838769e-03  -4.876002e-03  0 
 9.906587e-03  -1.955071e-03  0 
 1.539399e-02  -4.634198e-03  0 
 1.164915e-02  -3.969241e-04  0 
 2.029126e-02  -1.573381e-03  0 
VECTORS displacement_ITER23 FLOAT
 6.959058e-03  -6.457997e-03  0 
 3.009667e-03  -6.984864e-03  0 
 4.472370e-02  -6.828928e-03  0 
 6.952177e-03  -4.300332e-03  0 
 6.953798e-03  -5.375981e-03  0 
 4.832405e-03  -6.384405e-03  0 
 5.874171e-03  -6.445438e-03  0 
 3.300410e-03  -6.045873e-03  0 
 3.314071e-03  -5.932350e-03  0 
 1.420525e-02  -1.265076e-02  0 
 2.133185e-02  -1.507497e-02  0 
 3.121344e-02  -1.411733e-02  0 
 1.353597e-02  -6.692484e-03  0 
 2.425393e-02  -6.714689e-03  0 
 3.440775e-02  -6.722958e-03  0 
 6.108240e-03  -5.350381e-03  0 
 5.068789e-03  -5.399996e-03  0 
 5.725710e-03  -4.493227e-03  0 
 1.483643e-02  -1.944570e-03  0 
 2.982602e-02  -4.438629e-03  0 
 8.826410e-03  -2.953133e-03  0 
 1.104224e-02  -7.895000e-03  0 
 7.005104e-03  -4.011311e-03  0 
 1.645915e-02  -3.083740e-03  0 
 2.356262e-02  -7.709908e-03  0 
 8.096420e-03  -1.728238e-03  0 
 8.856806e-03  -5.131169e-03  0 
 9.976661e-03  -2.245250e-03  0 
 1.543396e-02  -4.964101e-03  0 
 1.175057e-02  -7.166230e-04  0 
 2.036440e-02  -1.889749e-03  0 
VECTORS displacement_ITER24 FLOAT
 5.979387e-03  -6.218218e-03  0 
 2.957272e-03  -6.401833e-03  0 
 4.381291e-02  -7.268337e-03  0 
 5.972079e-03  -3.939836e-03  0 
 5.973927e-03  -5.075885e-03  0 
 3.732752e-03  -6.143841e-03  0 
 4.834512e-03  -6.205055e-03  0 
 3.311883e-03  -6.596901e-03  0 
 3.298948e-03  -6.071596e-03  0 
 1.333621e-02  -1.268330e-02  0 
 2.050174e-02  -1.528641e-02  0 
 3.036285e-02  -1.443198e-02  0 
 1.304897e-02  -6.345675e-03  0 
 2.343039e-02  -7.014279e-03  0 
 3.363838e-02  -7.038841e-03  0 
 5.081316e-03  -5.048929e-03  0 
 3.984907e-03  -5.100897e-03  0 
 4.677556e-03  -4.144263e-03  0 
 1.392462e-02  -2.091700e-03  0 
 2.899212e-02  -4.750337e-03  0 
 8.273242e-03  -2.996297e-03  0 
 1.007323e-02  -7.891757e-03  0 
 6.309405e-03  -4.110716e-03  0 
 1.559004e-02  -3.213850e-03  0 
 2.268447e-02  -7.956194e-03  0 
 7.531816e-03  -2.138231e-03  0 
 7.858963e-03  -5.115545e-03  0 
 9.063751e-03  -2.344162e-03  0 
 1.446683e-02  -5.071077e-03  0 
 1.088822e-02  -9.127192e-04  0 
 1.944391e-02  -2.059339e-03  0 
VECTORS displacement_ITER25 FLOAT
 4.657203e-03  -5.292982e-03  0 
 1.824406e-03  -7.273720e-03  0 
 4.318802e-02  -6.162680e-03  0 
 4.648040e-03  -4.725018e-03  0 
 4.650808e-03  -5.005665e-03  0 
 4.119432e-03  -5.217559e-03  0 
 4.367063e-03  -5.278825e-03  0 
 2.430249e-03  -5.635787e-03  0 
 2.227519e-03  -6.193515e-03  0 
 1.257941e-02  -1.178935e-02  0 
 2.006796e-02  -1.432252e-02  0 
 2.990470e-02  -1.345480e-02  0 
 1.245344e-02  -6.634352e-03  0 
 2.292754e-02  -6.672660e-03  0 
 3.317363e-02  -6.244654e-03  0 
 4.425219e-03  -4.995011e-03  0 
 4.146947e-03  -5.004783e-03  0 
 4.321520e-03  -4.769208e-03  0 
 1.370064e-02  -1.247578e-03  0 
 2.865649e-02  -3.949653e-03  0 
 7.798858e-03  -2.836227e-03  0 
 9.596508e-03  -6.668338e-03  0 
 6.045143e-03  -3.275729e-03  0 
 1.523107e-02  -2.877828e-03  0 
 2.237367e-02  -7.034008e-03  0 
 7.039406e-03  -1.329785e-03  0 
 7.765159e-03  -3.924352e-03  0 
 8.968905e-03  -1.446254e-03  0 
 1.417751e-02  -3.978294e-03  0 
 1.062513e-02  -3.233872e-04  0 
 1.914326e-02  -1.339597e-03  0 
VECTORS displacement_ITER26 FLOAT
 4.482509e-03  -5.176919e-03  0 
 2.966720e-03  -5.809927e-03  0 
 4.290686e-02  -7.573814e-03  0 
 4.473309e-03  -3.374100e-03  0 
 4.476159e-03  -4.272250e-03  0 
 2.710501e-03  -5.101772e-03  0 
 3.575344e-03  -5.162752e-03  0 
 2.594569e-03  -5.602213e-03  0 
 2.814436e-03  -5.700429e-03  0 
 1.225341e-02  -1.209925e-02  0 
 1.962629e-02  -1.496917e-02  0 
 2.951387e-02  -1.439555e-02  0 
 1.269492e-02  -6.087110e-03  0 
 2.240377e-02  -6.964918e-03  0 
 3.268972e-02  -7.269338e-03  0 
 3.769115e-03  -4.249265e-03  0 
 2.900713e-03  -4.288835e-03  0 
 3.448745e-03  -3.533793e-03  0 
 1.285568e-02  -1.787204e-03  0 
 2.796875e-02  -4.774604e-03  0 
 7.699427e-03  -2.779492e-03  0 
 8.930705e-03  -7.108568e-03  0 
 5.223107e-03  -3.614589e-03  0 
 1.473231e-02  -3.165494e-03  0 
 2.168942e-02  -7.757374e-03  0 
 6.480217e-03  -1.795048e-03  0 
 6.773104e-03  -4.301748e-03  0 
 7.985683e-03  -1.873575e-03  0 
 1.336048e-02  -4.582869e-03  0 
 9.937565e-03  -7.036272e-04  0 
 1.837017e-02  -1.938659e-03  0 
VECTORS displacement_ITER27 FLOAT
 4.042100e-03  -5.118571e-03  0 
 2.019915e-03  -6.770769e-03  0 
 4.304698e-02  -6.109880e-03  0 
 4.031700e-03  -4.853213e-03  0 
 4.035160e-03  -4.982502e-03  0 
 3.805565e-03  -5.043661e-03  0 
 3.903130e-03  -5.104035e-03  0 
 2.158323e-03  -4.413512e-03  0 
 2.060414e-03  -5.576271e-03  0 
 1.219609e-02  -1.176849e-02  0 
 1.983018e-02  -1.435752e-02  0 
 2.973104e-02  -1.346813e-02  0 
 1.276371e-02  -6.414839e-03  0 
 2.316302e-02  -6.279805e-03  0 
 3.323225e-02  -6.144698e-03  0 
 3.927729e-03  -4.974370e-03  0 
 3.794284e-03  -4.976529e-03  0 
 3.877229e-03  -4.868956e-03  0 
 1.355481e-02  -1.011435e-03  0 
 2.860363e-02  -3.889839e-03  0 
 7.910935e-03  -2.371586e-03  0 
 9.225231e-03  -6.521135e-03  0 
 5.773211e-03  -3.048928e-03  0 
 1.542470e-02  -2.558148e-03  0 
 2.221793e-02  -6.997192e-03  0 
 6.776557e-03  -8.722700e-04  0 
 7.434898e-03  -3.711850e-03  0 
 8.732414e-03  -1.194126e-03  0 
 1.393718e-02  -3.830829e-03  0 