# vtk DataFile Version 3.1
this is an vtk file created by FEMAC
ASCII
DATASET UNSTRUCTURED_GRID
POINTS 31 FLOAT
1.000000 2.000000 0.000000
1.000000 3.000000 0.000000
0.750000 2.000000 0.000000
1.000000 2.250000 0.000000
1.000000 2.500000 0.000000
1.000000 2.750000 0.000000
1.250000 2.000000 0.000000
1.500000 2.000000 0.000000
1.250000 3.000000 0.000000
1.500000 3.000000 0.000000
0.660302 2.785301 0.000000
0.660045 2.212404 0.000000
0.825570 2.361866 0.000000
0.825957 2.628272 0.000000
0.594871 2.497465 0.000000
0.847252 2.832715 0.000000
0.847123 2.164854 0.000000
1.255000 1.805000 0.000000
1.556014 2.528684 0.000000
1.187778 2.667801 0.000000
1.187083 2.332917 0.000000
1.225000 2.500000 0.000000
1.340769 2.803850 0.000000
1.339859 2.197089 0.000000
1.387500 2.413333 0.000000
1.391667 2.590972 0.000000
1.548715 2.715781 0.000000
1.155709 2.844330 0.000000
1.155388 2.156001 0.000000
1.171305 3.165198 0.000000
1.384851 3.278430 0.000000
CELLS 42 168 
3 4 13 12
3 14 11 12
3 12  3  4
3 5 13  4
3 14 13 10
3 12 13 14
3 15  5  1
3 2 16 11
3 15 13  5
3 10 13 15
3 12 16  3
3 12 11 16
3 17  7  6
3 6  0 17
3 4 19  5
3 20  4  3
3 21 19  4
3 20 21  4
3 20 24 21
3 25 19 21
3 23  6  7
3 8 22  9
3 25 22 19
3 23 24 20
3 25 24 18
3 21 24 25
3 9 22 26
3 25 18 26
3 26 22 25
3 5 27  1
3 27  8  1
3 27  5 19
3 28  3  0
3 6 28  0
3 3 28 20
3 27 22  8
3 19 22 27
3 23 28  6
3 23 20 28
3 1  8 29
3 30  8  9
3 29  8 30
CELL_TYPES 42
5 5 5 5 5 5 5 5 5 5 5 5 5 5 5 5 5 5 5 5 5 5 5 5 5 5 5 5 5 5 5 5 5 5 5 5 5 5 5 5 5 5 
POINT_DATA 31
VECTORS displacement_ITER1 FLOAT
 -5.373310e-02  1.385826e-02  0 
 -2.173781e-02  2.599159e-02  0 
 -2.478057e-02  2.679988e-02  0 
 -2.407453e-02  2.602917e-02  0 
 -2.332975e-02  2.601720e-02  0 
 -2.255879e-02  2.600757e-02  0 
 -5.375766e-02  -1.904874e-02  0 
 -5.378191e-02  -5.196011e-02  0 
 -2.172391e-02  1.136149e-02  0 
 -2.172109e-02  -3.255055e-03  0 
 -2.244105e-02  2.709307e-02  0 
 -2.419485e-02  2.705640e-02  0 
 -2.374769e-02  2.655826e-02  0 
 -2.293677e-02  2.656066e-02  0 
 -2.333419e-02  2.727199e-02  0 
 -2.229353e-02  2.650452e-02  0 
 -2.432472e-02  2.650902e-02  0 
 -7.942116e-02  -1.972904e-02  0 
 -3.580605e-02  -1.955801e-02  0 
 -2.392214e-02  1.474145e-02  0 
 -2.739571e-02  5.624653e-03  0 
 -2.749851e-02  9.107838e-03  0 
 -2.293860e-02  5.256166e-03  0 
 -4.116907e-02  -2.197502e-02  0 
 -3.483433e-02  -7.230599e-03  0 
 -2.812769e-02  -1.156804e-03  0 
 -2.572307e-02  -1.050761e-02  0 
 -2.239196e-02  1.692050e-02  0 
 -3.938927e-02  -2.080303e-03  0 
 -1.207043e-02  1.595813e-02  0 
 -5.451358e-03  3.474024e-03  0 
VECTORS displacement_ITER2 FLOAT
 3.932693e-02  -5.578646e-02  0 
 1.454882e-02  -8.820166e-03  0 
 -2.305926e-02  6.160240e-04  0 
 -1.367609e-02  -8.816258e-03  0 
 -4.301588e-03  -8.791640e-03  0 
 5.100163e-03  -8.801551e-03  0 
 3.931359e-02  -3.415238e-03  0 
 3.930961e-02  4.894804e-02  0 
 1.457330e-02  -3.186276e-02  0 
 1.458182e-02  -5.487779e-02  0 
 6.436581e-03  4.004071e-03  0 
 -1.509982e-02  3.986918e-03  0 
 -9.477987e-03  -2.243042e-03  0 
 5.217052e-04  -2.243790e-03  0 
 -4.382855e-03  6.437411e-03  0 
 8.220137e-03  -3.036358e-03  0 
 -1.688375e-02  -3.039998e-03  0 
 8.018119e-02  -2.375107e-03  0 
 -7.894612e-03  -5.620932e-02  0 
 3.466729e-04  -2.193774e-02  0 
 -1.566915e-02  -1.720714e-02  0 
 -6.725038e-03  -2.228266e-02  0 
 6.626024e-03  -3.731620e-02  0 
 -6.919215e-03  4.347162e-04  0 
 -1.189490e-02  -3.202768e-02  0 
 -2.377072e-03  -3.671548e-02  0 
 4.868550e-03  -5.342405e-02  0 
 7.924879e-03  -2.144376e-02  0 
 -3.327687e-03  -1.604433e-02  0 
 2.978206e-02  -2.462654e-02  0 
 4.020975e-02  -4.429135e-02  0 
VECTORS displacement_ITER3 FLOAT
 -1.692648e-02  1.547862e-02  0 
 8.546996e-04  5.319106e-03  0 
 3.121334e-02  -2.219344e-03  0 
 2.356018e-02  5.385573e-03  0 
 1.598063e-02  5.361412e-03  0 
 8.408757e-03  5.347637e-03  0 
 -1.693678e-02  -2.160516e-02  0 
 -1.695449e-02  -5.868163e-02  0 
 8.762741e-04  4.182395e-03  0 
 8.803066e-04  3.098126e-03  0 
 7.339604e-03  -4.919873e-03  0 
 2.472087e-02  -4.956948e-03  0 
 2.016515e-02  8.532328e-05  0 
 1.209214e-02  8.990511e-05  0 
 1.605701e-02  -6.908498e-03  0 
 5.904042e-03  7.317085e-04  0 
 2.616527e-02  7.390722e-04  0 
 -4.585969e-02  -2.235659e-02  0 
 2.689875e-03  -1.183041e-02  0 
 9.908249e-03  3.540701e-03  0 
 1.792482e-02  -4.455824e-03  0 
 1.225891e-02  -4.269209e-04  0 
 5.960948e-03  2.472076e-03  0 
 6.408204e-03  -2.810874e-02  0 
 8.370668e-03  -9.548132e-03  0 
 7.830752e-03  -2.703244e-03  0 
 4.827566e-03  -3.880175e-03  0 
 5.415638e-03  4.447987e-03  0 
 7.475196e-03  -9.765972e-03  0 
 1.598114e-03  4.522041e-03  0 
 2.085074e-03  3.594135e-03  0 
VECTORS displacement_ITER4 FLOAT
 -1.589546e-02  8.173940e-03  0 
 -2.499643e-03  -5.283021e-03  0 
 4.219750e-03  -6.887898e-03  0 
 2.461699e-03  -5.168181e-03  0 
 7.542604e-04  -5.192622e-03  0 
 -9.160744e-04  -5.227647e-03  0 
 -1.589723e-02  -7.089295e-03  0 
 -1.590283e-02  -2.235203e-02  0 
 -2.454934e-03  -1.494568e-02  0 
 -2.438489e-03  -2.453188e-02  0 
 -1.146061e-03  -7.452882e-03  0 
 2.728319e-03  -7.509443e-03  0 
 1.692159e-03  -6.366097e-03  0 
 -1.106629e-04  -6.364336e-03  0 
 7.767137e-04  -7.921939e-03  0 
 -1.456833e-03  -6.219175e-03  0 
 3.056200e-03  -6.216571e-03  0 
 -2.780409e-02  -7.390634e-03  0 
 -7.991540e-03  -2.335439e-02  0 
 -2.378000e-03  -9.611047e-03  0 
 -1.332323e-03  -9.327967e-03  0 
 -2.045517e-03  -1.017263e-02  0 
 -3.376980e-03  -1.538892e-02  0 
 -4.507128e-03  -1.520584e-02  0 
 -5.293551e-03  -1.628949e-02  0 
 -3.794650e-03  -1.502851e-02  0 
 -3.681499e-03  -2.034725e-02  0 
 -2.732712e-03  -9.592889e-03  0 
 -4.345467e-03  -7.098828e-03  0 
 3.892406e-03  -1.193786e-02  0 
 8.238435e-03  -2.013963e-02  0 
VECTORS displacement_ITER5 FLOAT
 9.921104e-03  -1.442008e-02  0 
 4.868613e-03  -2.943484e-03  0 
 -3.332190e-02  6.689994e-03  0 
 -2.381766e-02  -2.837972e-03  0 
 -1.432580e-02  -2.827541e-03  0 
 -4.788178e-03  -2.866036e-03  0 
 9.923332e-03  2.236054e-02  0 
 9.930677e-03  5.913512e-02  0 
 4.927194e-03  -2.409205e-02  0 
 4.952692e-03  -4.513541e-02  0 
 -3.431917e-03  1.014806e-02  0 
 -2.525435e-02  1.010975e-02  0 
 -1.956936e-02  3.806766e-03  0 
 -9.439514e-03  3.803281e-03  0 
 -1.440799e-02  1.260077e-02  0 
 -1.616711e-03  2.998099e-03  0 
 -2.706378e-02  2.992719e-03  0 
 3.861638e-02  2.310757e-02  0 
 -1.579631e-02  -3.082188e-02  0 
 -1.051151e-02  -1.238950e-02  0 
 -2.448254e-02  -2.770662e-03  0 
 -1.585427e-02  -9.830339e-03  0 
 -5.238929e-03  -2.527332e-02  0 
 -1.517057e-02  1.866980e-02  0 
 -1.912446e-02  -1.376607e-02  0 
 -1.230040e-02  -2.018870e-02  0 
 -6.249610e-03  -3.309855e-02  0 
 -3.027494e-03  -1.292676e-02  0 
 -1.452770e-02  5.537869e-03  0 
 1.885290e-02  -1.748067e-02  0 
 2.839112e-02  -3.548059e-02  0 
VECTORS displacement_ITER6 FLOAT
 -1.498291e-02  1.411625e-02  0 
 2.298493e-04  -6.091410e-04  0 
 1.832118e-02  -5.029633e-03  0 
 1.376050e-02  -4.920506e-04  0 
 9.227370e-03  -4.973363e-04  0 
 4.700119e-03  -5.230726e-04  0 
 -1.498593e-02  -1.051305e-02  0 
 -1.499414e-02  -3.513402e-02  0 
 2.745729e-04  2.306239e-04  0 
 2.904601e-04  1.208930e-03  0 
 4.058718e-03  -6.641413e-03  0 
 1.445461e-02  -6.658517e-03  0 
 1.173328e-02  -3.652542e-03  0 
 6.898525e-03  -3.652071e-03  0 
 9.273664e-03  -7.834059e-03  0 
 3.201989e-03  -3.272735e-03  0 
 1.531061e-02  -3.263041e-03  0 
 -3.419824e-02  -1.100748e-02  0 
 -5.806833e-04  -3.201284e-03  0 
 4.775346e-03  3.733627e-04  0 
 1.016365e-02  -3.782689e-03  0 
 6.376775e-03  -1.503004e-03  0 
 1.822164e-03  1.268128e-03  0 
 3.415898e-03  -1.613769e-02  0 
 4.021201e-03  -4.921260e-03  0 
 2.672594e-03  -9.199884e-04  0 
 2.830945e-05  1.619813e-05  0 
 2.247901e-03  5.657011e-04  0 
 3.661317e-03  -5.256002e-03  0 
 -3.464839e-04  -7.630791e-05  0 
 -7.985446e-04  7.403973e-04  0 
VECTORS displacement_ITER7 FLOAT
 7.874095e-03  -1.237194e-02  0 
 6.658981e-03  -1.932316e-04  0 
 -9.147573e-03  3.867226e-03  0 
 -5.205044e-03  -9.262428e-05  0 
 -1.279008e-03  -6.683123e-05  0 
 2.653595e-03  -9.052267e-05  0 
 7.869278e-03  4.153795e-03  0 
 7.868066e-03  2.068301e-02  0 
 6.709510e-03  -6.019251e-03  0 
 6.727825e-03  -1.168368e-02  0 
 3.208317e-03  5.289824e-03  0 
 -5.797267e-03  5.292272e-03  0 
 -3.441188e-03  2.673882e-03  0 
 7.341407e-04  2.670143e-03  0 
 -1.312531e-03  6.306879e-03  0 
 3.955256e-03  2.331668e-03  0 
 -6.556639e-03  2.336943e-03  0 
 2.076381e-02  4.482693e-03  0 
 -6.941753e-03  -1.211590e-02  0 
 -2.220288e-04  -2.767092e-03  0 
 -6.626534e-03  -2.222829e-03  0 
 -3.609449e-03  -3.493969e-03  0 
 1.684257e-03  -6.297417e-03  0 
 -4.890251e-03  3.947507e-03  0 
 -6.591890e-03  -6.319836e-03  0 
 -3.556832e-03  -7.003096e-03  0 
 -1.914630e-03  -1.152398e-02  0 
 3.238938e-03  -2.641712e-03  0 
 -3.586256e-03  -1.359064e-03  0 
 1.048352e-02  -4.234314e-03  0 
 1.303807e-02  -9.095424e-03  0 
VECTORS displacement_ITER8 FLOAT
 -3.520564e-03  3.125010e-03  0 
 2.487368e-03  3.040708e-03  0 
 5.030493e-03  2.544883e-03  0 
 4.372372e-03  3.182872e-03  0 
 3.714864e-03  3.193974e-03  0 
 3.062212e-03  3.162882e-03  0 
 -3.528234e-03  -4.265250e-03  0 
 -3.534176e-03  -1.165166e-02  0 
 2.535372e-03  2.622337e-03  0 
 2.553100e-03  2.387047e-03  0 
 2.966035e-03  2.317932e-03  0 
 4.472625e-03  2.319026e-03  0 
 4.081641e-03  2.742298e-03  0 
 3.372490e-03  2.737068e-03  0 
 3.721244e-03  2.139897e-03  0 
 2.844724e-03  2.784851e-03  0 
 4.586798e-03  2.803399e-03  0 
 -9.293519e-03  -4.418720e-03  0 
 -3.716547e-03  -9.131187e-04  0 
 2.007188e-03  3.144715e-03  0 
 2.482257e-03  -1.534130e-04  0 
 1.241977e-03  1.448138e-03  0 
 1.207524e-03  3.211413e-03  0 
 -4.017781e-04  -5.251070e-03  0 
 -1.143380e-03  -9.796886e-04  0 
 -8.051672e-04  1.227658e-03  0 
 -1.712813e-03  8.443092e-04  0 
 2.148602e-03  3.413660e-03  0 
 4.797310e-04  -1.607930e-03  0 
 2.725211e-03  2.703316e-03  0 
 2.814881e-03  2.476154e-03  0 
VECTORS displacement_ITER9 FLOAT
 -1.090715e-03  -5.709718e-04  0 
 -7.567183e-04  -6.456383e-04  0 
 -3.703244e-03  2.674444e-04  0 
 -3.008302e-03  -4.516329e-04  0 
 -2.312652e-03  -4.503855e-04  0 
 -1.594357e-03  -4.984627e-04  0 
 -1.099488e-03  -2.558654e-03  0 
 -1.102670e-03  -4.546458e-03  0 
 -7.017397e-04  -3.802734e-03  0 
 -6.798700e-04  -6.758836e-03  0 
 -1.496092e-03  5.359981e-04  0 
 -3.119172e-03  5.266945e-04  0 
 -2.698175e-03  5.082384e-05  0 
 -1.956290e-03  4.099889e-05  0 
 -2.321828e-03  7.056072e-04  0 
 -1.352953e-03  -2.714674e-05  0 
 -3.259777e-03  2.641754e-06  0 
 -2.653377e-03  -2.603179e-03  0 
 -7.592228e-03  -4.330240e-03  0 
 -3.273053e-03  -1.472262e-03  0 
 -3.862827e-03  -2.624137e-03  0 
 -4.252327e-03  -2.093357e-03  0 
 -3.392688e-03  -2.847535e-03  0 
 -3.162579e-03  -2.586256e-03  0 
 -6.018751e-03  -3.264148e-03  0 
 -5.434007e-03  -2.877314e-03  0 
 -5.479089e-03  -4.295156e-03  0 
 -2.243529e-03  -1.452047e-03  0 
 -2.498855e-03  -1.954195e-03  0 
 1.289293e-03  -2.865849e-03  0 
 2.610571e-03  -5.422416e-03  0 
VECTORS displacement_ITER10 FLOAT
 2.284029e-03  5.563303e-03  0 
 -1.369603e-03  2.245601e-03  0 
 5.417511e-03  7.465947e-04  0 
 3.665897e-03  2.469833e-03  0 
 1.927164e-03  2.460235e-03  0 
 2.162217e-04  2.403975e-03  0 
 2.272418e-03  -6.901319e-04  0 
 2.266753e-03  -6.943692e-03  0 
 -1.318124e-03  1.036462e-03  0 
 -1.295664e-03  3.525697e-05  0 
 -3.044192e-05  1.420771e-04  0 
 3.921106e-03  1.281246e-04  0 
 2.883437e-03  1.268166e-03  0 
 1.034497e-03  1.256841e-03  0 
 1.939273e-03  -3.242830e-04  0 
 -3.463223e-04  1.392661e-03  0 
 4.245143e-03  1.434203e-03  0 
 -2.611070e-03  -8.223942e-04  0 
 -3.376750e-03  3.937577e-03  0 
 -6.337330e-04  2.878306e-03  0 
 2.365704e-03  1.255504e-03  0 
 9.550887e-05  2.528866e-03  0 
 -2.145352e-03  2.858430e-03  0 
 2.867420e-03  -2.295070e-04  0 
 -8.782214e-04  2.652119e-03  0 
 -1.926828e-03  3.434034e-03  0 
 -3.113216e-03  3.787288e-03  0 
 -1.370840e-03  2.675040e-03  0 
 3.628232e-03  1.309265e-03  0 
 -6.188598e-04  1.360393e-03  0 
 -1.860628e-04  4.701169e-04  0 
VECTORS displacement_ITER11 FLOAT
 -6.424949e-04  -1.177714e-03  0 
 -1.173988e-03  -4.094773e-04  0 
 -2.639447e-03  1.586792e-04  0 
 -2.326071e-03  -1.845261e-04  0 
 -2.001207e-03  -1.937887e-04  0 
 -1.645674e-03  -2.504940e-04  0 
 -6.576340e-04  -2.423637e-03  0 
 -6.648945e-04  -3.669400e-03  0 
 -1.128794e-03  -1.479796e-03  0 
 -1.108181e-03  -2.345176e-03  0 
 -1.602887e-03  2.917740e-04  0 
 -2.385798e-03  2.828089e-04  0 
 -2.186271e-03  5.449062e-05  0 
 -1.834158e-03  3.957004e-05  0 
 -2.010720e-03  3.675159e-04  0 
 -1.526683e-03  -2.910785e-06  0 
 -2.453164e-03  4.634121e-05  0 
 -1.635847e-03  -2.457916e-03  0 
 -6.315469e-03  -1.436744e-03  0 
 -2.813019e-03  -2.807740e-04  0 
 -3.012341e-03  -1.678635e-03  0 
 -3.570046e-03  -9.195193e-04  0 
 -3.015594e-03  -5.432726e-04  0 
 -2.662029e-03  -1.848472e-03  0 
 -4.908514e-03  -1.446851e-03  0 
 -4.675005e-03  -9.114361e-04  0 
 -4.957528e-03  -1.368241e-03  0 
 -2.143018e-03  -2.932843e-04  0 
 -1.987200e-03  -1.651515e-03  0 
 -5.214232e-04  -1.195907e-03  0 
 -1.537969e-04  -1.967829e-03  0 
VECTORS displacement_ITER12 FLOAT
 -1.364757e-03  5.461663e-04  0 
 -1.300841e-03  1.636304e-03  0 
 -2.893025e-04  1.576136e-03  0 
 -5.883022e-04  1.845720e-03  0 
 -8.729770e-04  1.836882e-03  0 
 -1.131737e-03  1.785474e-03  0 
 -1.382777e-03  -1.237380e-03  0 
 -1.392740e-03  -3.021637e-03  0 
 -1.266108e-03  2.930438e-03  0 
 -1.247493e-03  4.417065e-03  0 
 -1.178429e-03  1.483336e-03  0 
 -5.563458e-04  1.481211e-03  0 
 -7.212041e-04  1.658029e-03  0 
 -1.020092e-03  1.642902e-03  0 
 -8.772426e-04  1.404978e-03  0 
 -1.220206e-03  1.649527e-03  0 
 -5.077645e-04  1.703284e-03  0 
 -2.782074e-03  -1.284409e-03  0 
 -5.075793e-03  2.449161e-03  0 
 -1.759762e-03  2.777767e-03  0 
 -1.457073e-03  7.302399e-04  0 
 -2.317828e-03  1.868058e-03  0 
 -2.173825e-03  3.736839e-03  0 
 -2.138205e-03  -5.979628e-04  0 
 -3.515901e-03  1.506676e-03  0 
 -3.585053e-03  2.580620e-03  0 
 -4.260398e-03  3.048048e-03  0 
 -1.573888e-03  2.790907e-03  0 
 -1.392321e-03  -1.014467e-04  0 
 -2.217414e-03  2.476763e-03  0 
 -2.917855e-03  3.715367e-03  0 
VECTORS displacement_ITER13 FLOAT
 9.517982e-04  -2.162564e-03  0 
 -2.602740e-04  -4.971298e-04  0 
 1.013571e-03  -6.381003e-04  0 
 6.543469e-04  -3.070720e-04  0 
 3.134420e-04  -3.155811e-04  0 
 -5.113124e-06  -3.617228e-04  0 
 9.317706e-04  -7.295891e-04  0 
 9.203860e-04  7.003546e-04  0 
 -2.352430e-04  2.489293e-03  0 
 -2.187195e-04  5.650083e-03  0 
 -6.242217e-05  -7.560346e-04  0 
 6.957432e-04  -7.530611e-04  0 
 4.965252e-04  -5.361725e-04  0 
 1.368819e-04  -5.516582e-04  0 
 3.097487e-04  -8.445892e-04  0 
 -1.168876e-04  -5.427080e-04  0 
 7.546047e-04  -4.860035e-04  0 
 2.039257e-03  -7.125662e-04  0 
 -3.535205e-03  2.141927e-03  0 
 -4.168339e-04  1.571394e-03  0 
 -3.697446e-04  -1.847274e-04  0 
 -9.993735e-04  7.667961e-04  0 
 -7.418692e-04  3.333227e-03  0 
 -8.955878e-04  -1.011346e-04  0 
 -2.034106e-03  9.718162e-04  0 
 -2.200958e-03  1.934807e-03  0 
 -2.973978e-03  2.839500e-03  0 
 -2.976862e-04  1.474813e-03  0 
 -3.701948e-05  -1.033420e-03  0 
 -2.298068e-03  1.510014e-03  0 
 -3.758179e-03  4.181543e-03  0 
VECTORS displacement_ITER14 FLOAT
 -2.913900e-03  -1.393245e-04  0 
 1.134130e-03  4.318716e-04  0 
 -1.216929e-03  1.178576e-03  0 
 -6.628076e-04  5.988913e-04  0 
 -8.663266e-05  5.904217e-04  0 
 5.076985e-04  5.502164e-04  0 
 -2.936437e-03  1.575076e-03  0 
 -2.949582e-03  3.283827e-03  0 
 1.146136e-03  3.481606e-03  0 
 1.159117e-03  6.682028e-03  0 
 5.767922e-04  1.384835e-03  0 
 -7.580308e-04  1.394646e-03  0 
 -4.100213e-04  1.007196e-03  0 
 2.064750e-04  9.896505e-04  0 
 -9.991645e-05  1.541331e-03  0 
 6.938988e-04  9.176497e-04  0 
 -8.738880e-04  9.778769e-04  0 
 -1.612903e-03  1.597794e-03  0 
 -3.047545e-03  9.064194e-04  0 
 1.401526e-04  2.123541e-03  0 
 -1.493816e-03  8.942577e-04  0 
 -1.065057e-03  1.272082e-03  0 
 5.211083e-04  3.608717e-03  0 
 -2.927977e-03  8.299087e-04  0 
 -2.260494e-03  7.766461e-04  0 
 -1.654282e-03  1.685235e-03  0 
 -1.901257e-03  2.015633e-03  0 
 8.330165e-04  2.112096e-03  0 
 -2.410817e-03  3.854774e-04  0 
 -9.487176e-04  2.491888e-03  0 
 -2.427547e-03  5.199701e-03  0 
VECTORS displacement_ITER15 FLOAT
 -1.009860e-03  1.824876e-03  0 
 4.908132e-04  -4.859578e-04  0 
 1.348089e-03  -5.543949e-04  0 
 1.099314e-03  -3.300384e-04  0 
 8.770314e-04  -3.427666e-04  0 
 6.734222e-04  -3.819675e-04  0 
 -1.034514e-03  3.460037e-03  0 
 -1.048281e-03  5.084928e-03  0 
 4.955513e-04  1.254063e-03  0 
 5.084520e-04  3.121125e-03  0 
 6.302409e-04  -6.347349e-04  0 
 1.124877e-03  -6.257689e-04  0 
 9.938816e-04  -4.820627e-04  0 
 7.610578e-04  -4.997546e-04  0 
 8.714109e-04  -6.859127e-04  0 
 5.958978e-04  -5.043429e-04  0 
 1.160978e-03  -4.415657e-04  0 
 2.227212e-04  3.481737e-03  0 
 -1.211103e-03  1.460553e-03  0 
 4.107259e-04  1.039905e-03  0 
 1.061444e-04  1.119088e-03  0 
 1.707298e-04  1.009327e-03  0 
 3.213744e-04  1.903231e-03  0 
 -4.587711e-04  2.318160e-03  0 
 -4.442571e-04  1.329733e-03  0 
 -4.063966e-04  1.540302e-03  0 
 -7.290401e-04  1.819405e-03  0 
 4.859772e-04  7.592802e-04  0 
 -6.321429e-05  1.397123e-03  0 
 -7.232430e-04  6.827683e-04  0 
 -1.594960e-03  2.249784e-03  0 
VECTORS displacement_ITER16 FLOAT
 -1.306321e-03  1.006798e-03  0 
 -2.788797e-04  2.335479e-04  0 
 -4.510117e-05  3.026283e-04  0 
 -1.301944e-04  3.638519e-04  0 
 -1.914202e-04  3.538004e-04  0 
 -2.382012e-04  3.209731e-04  0 
 -1.334666e-03  2.088383e-03  0 
 -1.349505e-03  3.156039e-03  0 
 -2.817254e-04  4.765790e-04  0 
 -2.698848e-04  8.243178e-04  0 
 -2.583964e-04  2.767006e-04  0 
 -1.302994e-04  2.906637e-04  0 
 -1.630883e-04  3.261149e-04  0 
 -2.252745e-04  3.086614e-04  0 
 -1.987083e-04  2.698230e-04  0 
 -2.642562e-04  2.914727e-04  0 
 -1.254734e-04  3.537787e-04  0 
 -5.121186e-04  2.096908e-03  0 
 -1.713761e-03  4.104234e-04  0 
 -5.405857e-04  8.221383e-04  0 
 -8.770316e-04  9.311635e-04  0 
 -7.550596e-04  8.395035e-04  0 
 -5.441489e-04  8.663832e-04  0 
 -1.393597e-03  1.510855e-03  0 
 -1.318386e-03  8.014747e-04  0 
 -1.058160e-03  8.575223e-04  0 
 -1.080691e-03  6.432325e-04  0 
 -4.046151e-04  6.227048e-04  0 
 -9.959692e-04  9.451634e-04  0 
 -5.010118e-04  3.830344e-04  0 
 -6.819246e-04  6.515232e-04  0 
VECTORS displacement_ITER17 FLOAT
 -2.364190e-04  2.214561e-04  0 
 -7.008257e-04  5.132425e-04  0 
 2.935626e-04  3.748126e-04  0 
 2.741967e-05  6.178838e-04  0 
 -2.174781e-04  6.106138e-04  0 
 -4.535757e-04  5.848202e-04  0 
 -2.678478e-04  2.045064e-04  0 
 -2.834067e-04  1.697692e-04  0 
 -7.104055e-04  1.352709e-04  0 
 -6.994628e-04  -1.566919e-04  0 
 -5.000972e-04  2.774593e-04  0 
 5.373011e-05  2.979765e-04  0 
 -8.702848e-05  4.535463e-04  0 
 -3.466363e-04  4.365144e-04  0 
 -2.231144e-04  2.256925e-04  0 
 -5.433688e-04  4.356584e-04  0 
 9.270929e-05  4.979837e-04  0 
 -3.049257e-04  1.892258e-04  0 
 -1.446993e-03  2.522699e-04  0 
 -6.821298e-04  6.823274e-04  0 
 -5.181819e-04  5.161537e-04  0 
 -7.034973e-04  6.794599e-04  0 
 -8.186190e-04  4.513472e-04  0 
 -8.576617e-04  3.998831e-04  0 
 -1.140745e-03  5.846658e-04  0 
 -9.675521e-04  6.427525e-04  0 
 -9.691320e-04  3.945347e-04  0 
 -7.206988e-04  5.436521e-04  0 
 -4.060831e-04  2.013745e-04  0 
 -5.107069e-04  2.428381e-04  0 
 -3.997573e-04  -3.573983e-05  0 
VECTORS displacement_ITER18 FLOAT
 -1.320390e-04  6.023241e-04  0 
 -5.668469e-04  1.601718e-04  0 
 -2.285377e-05  1.221764e-04  0 
 -1.669056e-04  2.451401e-04  0 
 -2.929067e-04  2.390700e-04  0 
 -4.145626e-04  2.185797e-04  0 
 -1.652365e-04  -3.562933e-04  0 
 -1.810473e-04  -1.335712e-03  0 
 -5.827208e-04  -5.710938e-04  0 
 -5.729233e-04  -1.229699e-03  0 
 -4.456154e-04  6.008870e-05  0 
 -1.600565e-04  8.863506e-05  0 
 -2.278920e-04  1.639457e-04  0 
 -3.620275e-04  1.460077e-04  0 
 -3.002806e-04  4.349070e-05  0 
 -4.684813e-04  1.340395e-04  0 
 -1.439964e-04  1.993830e-04  0 
 -9.393605e-04  -3.908558e-04  0 
 -1.143893e-03  -2.760443e-04  0 
 -6.532646e-04  9.594738e-05  0 
 -4.565256e-04  2.789079e-05  0 
 -6.540600e-04  1.644415e-04  0 
 -7.460149e-04  -3.057140e-04  0 
 -5.061163e-04  -1.157824e-04  0 
 -9.844592e-04  1.062600e-04  0 
 -8.038704e-04  4.403611e-05  0 
 -7.226295e-04  -2.805450e-04  0 
 -6.515718e-04  -1.977972e-05  0 
 -1.773514e-04  -1.866493e-05  0 
 -1.433035e-04  -3.477219e-04  0 
 1.348330e-04  -9.401232e-04  0 
VECTORS displacement_ITER19 FLOAT
 -1.182957e-04  2.688953e-04  0 
 -7.359958e-06  -4.334772e-04  0 
 -3.636121e-04  -2.565393e-04  0 
 -2.724549e-04  -3.657775e-04  0 
 -1.670573e-04  -3.698110e-04  0 
 -6.204648e-05  -3.854553e-04  0 
 -1.527276e-04  -6.748783e-05  0 
 -1.690874e-04  -4.263560e-04  0 
 -2.858104e-05  -8.595753e-04  0 
 -2.029757e-05  -1.221948e-03  0 
 -6.241853e-05  -2.433068e-04  0 
 -3.014254e-04  -2.060601e-04  0 
 -2.292565e-04  -2.853377e-04  0 
 -1.186662e-04  -3.042345e-04  0 
 -1.770965e-04  -1.951053e-04  0 
 -4.357522e-05  -3.374793e-04  0 
 -3.299090e-04  -2.693018e-04  0 
 -4.431962e-04  -8.974839e-05  0 
 -6.708296e-04  -5.478243e-04  0 
 -2.918652e-04  -3.950056e-04  0 
 -4.267040e-04  -2.787075e-04  0 
 -4.030459e-04  -2.861314e-04  0 
 -2.530688e-04  -6.463705e-04  0 
 -4.049416e-04  -1.462311e-05  0 
 -6.543412e-04  -2.283509e-04  0 
 -4.343175e-04  -3.696022e-04  0 
 -3.061435e-04  -6.216103e-04  0 
 -1.665148e-04  -5.030421e-04  0 
 -1.894908e-04  -1.341123e-04  0 
 2.134234e-04  -7.286494e-04  0 
 3.575582e-04  -1.067639e-03  0 
VECTORS displacement_ITER20 FLOAT
 -3.460019e-04  7.131168e-05  0 
 6.823997e-04  -4.223940e-04  0 
 -2.428565e-04  -1.102740e-04  0 
 -2.515683e-06  -3.665689e-04  0 
 2.510954e-04  -3.693028e-04  0 
 4.999570e-04  -3.812041e-04  0 
 -3.819038e-04  1.240112e-04  0 
 -3.992022e-04  1.523967e-04  0 
 6.564892e-04  -4.317531e-04  0 
 6.632632e-04  -3.836108e-04  0 
 5.185334e-04  -4.957414e-05  0 
 -5.359471e-05  -5.722796e-06  0 
 1.075849e-04  -1.831260e-04  0 
 3.742148e-04  -2.029302e-04  0 
 2.392247e-04  4.097433e-05  0 
 5.635644e-04  -2.502745e-04  0 
 -1.108708e-04  -1.798678e-04  0 
 -3.705182e-04  1.090773e-04  0 
 8.085979e-05  -4.569447e-04  0 
 3.585102e-04  -3.048106e-04  0 
 -7.022447e-05  -1.716942e-04  0 
 1.480101e-04  -2.451750e-04  0 
 5.082489e-04  -3.657238e-04  0 
 -3.028471e-04  1.016807e-05  0 
 -4.733293e-05  -2.271778e-04  0 
 2.283880e-04  -3.145362e-04  0 
 3.802103e-04  -4.579628e-04  0 
 5.445240e-04  -3.736127e-04  0 
 -1.828713e-04  -1.075648e-04  0 
 6.259238e-04  -4.289862e-04  0 
 5.837053e-04  -4.167764e-04  0 
VECTORS displacement_ITER21 FLOAT
 -6.885446e-04  -5.777508e-04  0 
 6.055136e-04  -2.671596e-04  0 
 -4.781359e-04  8.214823e-05  0 
 -1.969822e-04  -2.140287e-04  0 
 9.780375e-05  -2.169627e-04  0 
 3.864621e-04  -2.280061e-04  0 
 -7.266486e-04  -2.655377e-04  0 
 -7.454045e-04  2.049660e-05  0 
 5.774944e-04  -5.147407e-04  0 
 5.838318e-04  -7.088982e-04  0 
 4.103967e-04  1.565128e-04  0 
 -2.542592e-04  2.020718e-04  0 
 -6.848615e-05  -2.242346e-06  0 
 2.415505e-04  -2.255916e-05  0 
 8.520625e-05  2.587859e-04  0 
 4.627749e-04  -7.356936e-05  0 
 -3.196285e-04  -2.123447e-06  0 
 -5.143236e-04  -2.766044e-04  0 
 5.067047e-04  -4.383799e-04  0 
 3.363847e-04  -3.657887e-04  0 
 -1.466403e-04  -1.269462e-04  0 
 1.825177e-04  -2.486044e-04  0 
 5.325710e-04  -5.624789e-04  0 
 -6.086270e-04  -2.143452e-04  0 
 1.285219e-04  -2.478864e-04  0 
 4.368042e-04  -3.912297e-04  0 
 6.858512e-04  -5.351421e-04  0 
 4.971003e-04  -4.117353e-04  0 
 -5.420299e-04  -3.186247e-04  0 
 7.062660e-04  -4.353754e-04  0 
 7.740275e-04  -6.304845e-04  0 
VECTORS displacement_ITER22 FLOAT
 -1.123968e-03  -8.408518e-04  0 
 1.249722e-04  -2.788218e-04  0 
 -4.201479e-04  -6.108107e-05  0 
 -2.782326e-04  -2.180180e-04  0 
 -1.204234e-04  -2.230679e-04  0 
 3.302328e-05  -2.364612e-04  0 
 -1.164244e-03  -5.394928e-04  0 
 -1.184707e-03  -2.654362e-04  0 
 9.753028e-05  -1.016698e-03  0 
 1.038497e-04  -1.701746e-03  0 
 3.832882e-05  -3.294730e-05  0 
 -3.147020e-04  9.790349e-06  0 
 -2.116401e-04  -1.027343e-04  0 
 -4.661212e-05  -1.233363e-04  0 
 -1.318661e-04  3.223790e-05  0 
 6.574045e-05  -1.621388e-04  0 
 -3.539159e-04  -9.007513e-05  0 
 -9.614754e-04  -5.521424e-04  0 
 6.563338e-04  -5.574789e-04  0 
 4.404847e-05  -6.079460e-04  0 
 -2.407749e-04  -1.642568e-04  0 
 7.847414e-05  -3.598183e-04  0 
 1.763520e-04  -1.062248e-03  0 
 -8.548343e-04  -4.485349e-04  0 
 1.505974e-04  -3.463472e-04  0 
 4.152205e-04  -5.835286e-04  0 
 7.144666e-04  -7.865911e-04  0 
 8.203272e-05  -6.752325e-04  0 
 -8.115130e-04  -5.029720e-04  0 
 5.507558e-04  -7.831165e-04  0 
 8.412447e-04  -1.397689e-03  0 
VECTORS displacement_ITER23 FLOAT
 -1.346086e-03  -1.096021e-03  0 
 -1.937381e-04  -1.180028e-04  0 
 -2.219159e-04  -2.820839e-05  0 
 -2.111006e-04  -5.359389e-05  0 
 -1.836478e-04  -5.859744e-05  0 
 -1.607210e-04  -7.252088e-05  0 
 -1.388450e-03  -9.199689e-04  0 
 -1.410659e-03  -7.720796e-04  0 
 -2.205433e-04  -6.641085e-04  0 
 -2.148603e-04  -1.156606e-03  0 
 -1.735658e-04  -4.524752e-05  0 
 -2.275731e-04  -3.616762e-06  0 
 -2.027923e-04  -2.918342e-05  0 
 -1.768513e-04  -4.949343e-05  0 
 -1.936490e-04  -1.479511e-05  0 
 -1.707041e-04  -7.645036e-05  0 
 -2.423668e-04  -5.099129e-06  0 
 -1.284069e-03  -9.365614e-04  0 
 5.522578e-04  -5.883584e-04  0 
 -5.158080e-05  -4.186359e-04  0 
 -2.347353e-04  -1.424803e-04  0 
 1.588484e-05  -2.554027e-04  0 
 4.519280e-05  -8.014283e-04  0 
 -1.033482e-03  -7.743595e-04  0 
 7.619938e-05  -3.649760e-04  0 
 3.289230e-04  -4.851764e-04  0 
 5.845487e-04  -6.516985e-04  0 
 -1.052456e-04  -4.643889e-04  0 
 -9.526783e-04  -6.967769e-04  0 
 1.056097e-04  -4.910887e-04  0 
 3.083900e-04  -9.398282e-04  0 
VECTORS displacement_ITER24 FLOAT
 -1.157384e-03  -2.260746e-03  0 
 5.810028e-06  -1.233468e-04  0 
 -2.586095e-04  2.173795e-05  0 
 -1.850433e-04  -6.432839e-05  0 
 -9.768950e-05  -6.539787e-05  0 
 -1.833443e-05  -7.661075e-05  0 
 -1.202616e-03  -1.488664e-03  0 
 -1.227386e-03  -7.452362e-04  0 
 -2.065919e-05  1.050962e-04  0 
 -1.653794e-05  3.880698e-04  0 
 -2.302992e-05  2.557116e-05  0 
 -2.100867e-04  6.952018e-05  0 
 -1.487180e-04  3.843241e-06  0 
 -6.102217e-05  -1.543353e-05  0 
 -1.074763e-04  7.210463e-05  0 
 -1.008686e-05  -4.627044e-05  0 
 -2.375799e-04  2.221418e-05  0 
 -6.334915e-04  -1.495459e-03  0 
 2.803432e-04  -1.122258e-03  0 
 1.768586e-04  -2.061528e-04  0 
 -3.107099e-04  -3.681319e-04  0 
 3.186653e-06  -3.296725e-04  0 
 3.821689e-04  -2.721617e-04  0 
 -1.351292e-03  -1.251123e-03  0 
 -1.217439e-04  -7.328408e-04  0 
 2.792404e-04  -5.905349e-04  0 
 5.000254e-04  -7.363528e-04  0 
 1.902240e-04  -1.863790e-04  0 
 -1.151172e-03  -1.236373e-03  0 
 -2.067688e-04  3.442676e-05  0 
 -3.565028e-04  2.512681e-04  0 
VECTORS displacement_ITER25 FLOAT
 -8.858652e-04  -1.039689e-03  0 
 -8.937812e-05  -2.852863e-04  0 
 -2.775677e-04  -1.623856e-04  0 
 -2.226867e-04  -2.274357e-04  0 
 -1.563497e-04  -2.267884e-04  0 
 -9.872690e-05  -2.373713e-04  0 
 -9.322956e-04  -6.914017e-04  0 
 -9.581256e-04  -3.720977e-04  0 
 -1.132831e-04  -2.472162e-04  0 
 -1.092688e-04  -1.545394e-04  0 
 -1.053141e-04  -1.636180e-04  0 
 -2.440943e-04  -1.210708e-04  0 
 -1.951292e-04  -1.729610e-04  0 
 -1.303739e-04  -1.910487e-04  0 
 -1.649709e-04  -1.239376e-04  0 
 -9.655095e-05  -2.183201e-04  0 
 -2.684472e-04  -1.535278e-04  0 
 -6.941625e-04  -7.071930e-04  0 
 1.480250e-04  -1.260803e-03  0 
 4.126942e-05  -3.656267e-04  0 
 -3.345270e-04  -3.099916e-04  0 
 -7.602708e-05  -3.816251e-04  0 
 2.286104e-04  -5.404255e-04  0 
 -9.281135e-04  -7.188614e-04  0 
 -1.817431e-04  -6.935172e-04  0 
 1.696214e-04  -6.887098e-04  0 
 3.872186e-04  -9.510310e-04  0 
 5.679144e-05  -3.915874e-04  0 
 -7.869166e-04  -6.848723e-04  0 
 -1.732292e-04  -2.590285e-04  0 
 -2.361151e-04  -2.032537e-04  0 
VECTORS displacement_ITER26 FLOAT
 -6.989942e-04  2.141777e-04  0 
 -2.128226e-04  -1.127881e-04  0 
 -4.108428e-05  -8.640402e-05  0 
 -7.471303e-05  -6.072341e-05  0 
 -9.916535e-05  -5.730854e-05  0 
 -1.344296e-04  -6.586360e-05  0 
 -7.464750e-04  -3.198588e-04  0 
 -7.731089e-04  -8.827503e-04  0 
 -2.342521e-04  -2.871905e-04  0 
 -2.302700e-04  -4.090567e-04  0 
 -1.526535e-04  -1.178153e-04  0 
 -8.148500e-05  -7.622186e-05  0 
 -8.675247e-05  -6.811393e-05  0 
 -1.199924e-04  -8.458188e-05  0 
 -1.057533e-04  -1.031103e-04  0 
 -1.618892e-04  -1.019048e-04  0 
 -8.973909e-05  -4.215525e-05  0 
 -1.196798e-03  -3.539697e-04  0 
 -3.470348e-05  -1.056030e-03  0 
 -5.767118e-05  -2.208961e-04  0 
 -1.853394e-04  -1.501791e-04  0 
 -9.453715e-05  -2.037383e-04  0 
 3.730722e-05  -4.713146e-04  0 
 -4.769972e-04  -4.750860e-04  0 
 -2.129497e-04  -4.778861e-04  0 
 4.277942e-05  -5.018081e-04  0 
 1.965584e-04  -8.054324e-04  0 
 -8.532113e-05  -2.624474e-04  0 
 -3.702058e-04  -2.136544e-04  0 
 -1.523568e-04  -2.329001e-04  0 
 -1.167752e-04  -3.588256e-04  0 
VECTORS displacement_ITER27 FLOAT
 -1.798424e-04  -3.330563e-04  0 
 -2.629743e-04  -1.676545e-05  0 
 -9.458915e-05  1.310373e-06  0 
 -1.199454e-04  2.165307e-05  0 
 -1.424784e-04  3.080457e-05  0 
 -1.806857e-04  2.659117e-05  0 
 -2.287364e-04  -6.916046e-04  0 
 -2.565914e-04  -1.077503e-03  0 
 -2.830509e-04  -3.824230e-04  0 
 -2.791861e-04  -6.982583e-04  0 
 -1.980898e-04  -3.081263e-05  0 
 -1.267539e-04  1.428433e-05  0 
 -1.292979e-04  1.896669e-05  0 
 -1.633516e-04  4.148888e-06  0 
 -1.479512e-04  -1.542968e-05  0 
 -2.089019e-04  -1.127655e-05  0 
 -1.370575e-04  4.348069e-05  0 
 -5.413877e-04  -7.237856e-04  0 
 -3.444512e-04  -1.000899e-03  0 
 -1.940273e-04  -1.881683e-04  0 
 -2.598734e-04  -2.558804e-04  0 
 -2.467860e-04  -2.141329e-04  0 