# vtk DataFile Version 3.1
this is an vtk file created by FEMAC
ASCII
DATASET UNSTRUCTURED_GRID
POINTS 31 FLOAT
5.000000 5.000000 0.000000
6.000000 4.000000 0.000000
6.000000 5.000000 0.000000
5.000000 4.250000 0.000000
5.000000 4.500000 0.000000
5.000000 4.750000 0.000000
5.000000 5.250000 0.000000
5.500000 4.000000 0.000000
5.750000 4.000000 0.000000
5.250000 5.000000 0.000000
5.500000 5.000000 0.000000
5.750000 5.000000 0.000000
6.000000 4.250000 0.000000
6.000000 4.500000 0.000000
6.000000 4.750000 0.000000
4.661856 4.507893 0.000000
4.832250 4.761003 0.000000
4.832172 4.245757 0.000000
5.805000 4.255000 0.000000
5.361666 4.785642 0.000000
5.824607 4.643596 0.000000
5.630982 4.182178 0.000000
5.161848 4.344773 0.000000
5.223020 4.573994 0.000000
5.460006 4.535834 0.000000
5.681647 4.425464 0.000000
5.631588 4.748141 0.000000
5.841239 4.828347 0.000000
5.155331 4.836478 0.000000
5.384851 4.278430 0.000000
5.255000 5.195000 0.000000
CELLS 42 168 
3 16  5  0
3 16  4  5
3 16 15  4
3 4 17  3
3 15 17  4
3 13 18 12
3 19 10  9
3 3 22  4
3 23  5  4
3 8 21  7
3 14 20 13
3 25 21 18
3 23 24 19
3 18 21  8
3 13 25 18
3 13 20 25
3 25 20 26
3 1 18  8
3 1 12 18
3 11 27  2
3 27 14  2
3 5 28  0
3 9 28 19
3 28  9  0
3 27 20 14
3 23 28  5
3 23 19 28
3 4 22 23
3 26 24 25
3 21 29  7
3 23 22 29
3 29 21 25
3 25 24 29
3 29 24 23
3 10 26 11
3 27 11 26
3 26 20 27
3 19 26 10
3 19 24 26
3 10 30  9
3 0 30  6
3 0  9 30
CELL_TYPES 42
5 5 5 5 5 5 5 5 5 5 5 5 5 5 5 5 5 5 5 5 5 5 5 5 5 5 5 5 5 5 5 5 5 5 5 5 5 5 5 5 5 5 
POINT_DATA 31
VECTORS displacement_ITER1 FLOAT
 1.178955e-01  -3.166876e-01  0 
 9.860975e-02  -3.894687e-01  0 
 1.302911e-01  -4.789767e-01  0 
 6.031400e-02  -3.166398e-01  0 
 7.950553e-02  -3.166626e-01  0 
 9.870598e-02  -3.166771e-01  0 
 1.527610e-01  -3.167026e-01  0 
 9.581675e-02  -3.834806e-01  0 
 9.184917e-02  -3.844152e-01  0 
 1.179069e-01  -3.515692e-01  0 
 1.179206e-01  -3.864543e-01  0 
 1.243510e-01  -4.301915e-01  0 
 9.050950e-02  -4.064890e-01  0 
 9.036888e-02  -4.283528e-01  0 
 1.060510e-01  -4.528558e-01  0 
 8.010156e-02  -2.906739e-01  0 
 9.954760e-02  -3.037866e-01  0 
 5.998066e-02  -3.037490e-01  0 
 8.326148e-02  -3.978960e-01  0 
 9.991944e-02  -3.666593e-01  0 
 9.205609e-02  -4.221664e-01  0 
 8.093072e-02  -3.847866e-01  0 
 6.913429e-02  -3.375297e-01  0 
 8.617232e-02  -3.498791e-01  0 
 8.310201e-02  -3.798567e-01  0 
 7.986852e-02  -3.992877e-01  0 
 9.579148e-02  -4.019443e-01  0 
 1.070996e-01  -4.369688e-01  0 
 1.048500e-01  -3.384568e-01  0 
 7.158465e-02  -3.750140e-01  0 
 1.451027e-01  -3.522765e-01  0 
VECTORS displacement_ITER2 FLOAT
 1.057864e-01  -2.483655e-01  0 
 7.751583e-02  -3.240148e-01  0 
 1.098985e-01  -3.645332e-01  0 
 7.275722e-02  -2.482967e-01  0 
 8.375883e-02  -2.483170e-01  0 
 9.477656e-02  -2.483386e-01  0 
 1.334262e-01  -2.483922e-01  0 
 7.998717e-02  -2.882944e-01  0 
 7.529360e-02  -3.050304e-01  0 
 1.058000e-01  -2.760305e-01  0 
 1.058170e-01  -3.036868e-01  0 
 1.099770e-01  -3.339836e-01  0 
 8.410703e-02  -3.309323e-01  0 
 9.027696e-02  -3.398107e-01  0 
 1.002037e-01  -3.517519e-01  0 
 8.409938e-02  -2.334051e-01  0 
 9.525557e-02  -2.409367e-01  0 
 7.256412e-02  -2.409036e-01  0 
 8.164209e-02  -3.150699e-01  0 
 9.541416e-02  -2.864795e-01  0 
 9.218310e-02  -3.304119e-01  0 
 7.838615e-02  -2.985609e-01  0 
 7.627801e-02  -2.619949e-01  0 
 8.671821e-02  -2.710814e-01  0 
 8.517552e-02  -2.943549e-01  0 
 8.301024e-02  -3.112100e-01  0 
 9.402509e-02  -3.138777e-01  0 
 1.004170e-01  -3.400303e-01  0 
 9.804046e-02  -2.647592e-01  0 
 7.515182e-02  -2.859228e-01  0 
 1.273606e-01  -2.765989e-01  0 
VECTORS displacement_ITER3 FLOAT
 7.521966e-02  -1.700274e-01  0 
 3.490131e-02  -2.494308e-01  0 
 6.929747e-02  -2.397179e-01  0 
 6.229750e-02  -1.699229e-01  0 
 6.658483e-02  -1.699391e-01  0 
 7.090023e-02  -1.699720e-01  0 
 9.742107e-02  -1.700729e-01  0 
 4.129079e-02  -1.842538e-01  0 
 3.659408e-02  -2.164168e-01  0 
 7.523662e-02  -1.922673e-01  0 
 7.525811e-02  -2.144784e-01  0 
 7.635102e-02  -2.295214e-01  0 
 5.648510e-02  -2.475349e-01  0 
 6.986764e-02  -2.442941e-01  0 
 7.470024e-02  -2.427886e-01  0 
 6.671871e-02  -1.641042e-01  0 
 7.107918e-02  -1.670605e-01  0 
 6.221970e-02  -1.670365e-01  0 
 5.840028e-02  -2.241607e-01  0 
 7.123502e-02  -1.983883e-01  0 
 7.270890e-02  -2.311570e-01  0 
 5.367964e-02  -2.038023e-01  0 
 6.129076e-02  -1.770614e-01  0 
 6.633192e-02  -1.833713e-01  0 
 6.656196e-02  -2.004031e-01  0 
 6.521508e-02  -2.150427e-01  0 
 7.307614e-02  -2.184103e-01  0 
 7.451015e-02  -2.350466e-01  0 
 7.176900e-02  -1.820121e-01  0 
 5.676511e-02  -1.877012e-01  0 
 9.255656e-02  -1.927350e-01  0 
VECTORS displacement_ITER4 FLOAT
 5.825901e-02  -1.330164e-01  0 
 2.653446e-02  -1.956919e-01  0 
 5.074045e-02  -1.864714e-01  0 
 5.019598e-02  -1.328920e-01  0 
 5.285578e-02  -1.329046e-01  0 
 5.554998e-02  -1.329427e-01  0 
 7.872178e-02  -1.330748e-01  0 
 2.926069e-02  -1.376931e-01  0 
 2.677896e-02  -1.661899e-01  0 
 5.827819e-02  -1.535248e-01  0 
 5.830248e-02  -1.739922e-01  0 
 5.857687e-02  -1.824941e-01  0 
 4.588175e-02  -1.970511e-01  0 
 5.752743e-02  -1.955496e-01  0 
 5.993142e-02  -1.927899e-01  0 
 5.294243e-02  -1.292674e-01  0 
 5.565413e-02  -1.311125e-01  0 
 5.014630e-02  -1.310984e-01  0 
 4.687045e-02  -1.759782e-01  0 
 5.574173e-02  -1.579439e-01  0 
 5.948668e-02  -1.840009e-01  0 
 4.200891e-02  -1.572332e-01  0 
 4.870283e-02  -1.377352e-01  0 
 5.196208e-02  -1.435218e-01  0 
 5.315436e-02  -1.570372e-01  0 
 5.285953e-02  -1.686979e-01  0 
 5.899335e-02  -1.741853e-01  0 
 5.928342e-02  -1.868623e-01  0 
 5.577898e-02  -1.435649e-01  0 
 4.475397e-02  -1.436969e-01  0 
 7.424299e-02  -1.539627e-01  0 
VECTORS displacement_ITER5 FLOAT
 4.917158e-02  -9.434637e-02  0 
 3.749952e-02  -1.235014e-01  0 
 5.027114e-02  -1.652602e-01  0 
 2.999134e-02  -9.422551e-02  0 
 3.635972e-02  -9.423309e-02  0 
 4.275875e-02  -9.426706e-02  0 
 7.063272e-02  -9.441393e-02  0 
 2.737771e-02  -1.022075e-01  0 
 3.063879e-02  -1.116102e-01  0 
 4.919170e-02  -1.158565e-01  0 
 4.921857e-02  -1.373235e-01  0 
 5.154771e-02  -1.502905e-01  0 
 4.138837e-02  -1.402931e-01  0 
 4.508267e-02  -1.533839e-01  0 
 4.937231e-02  -1.610766e-01  0 
 3.656629e-02  -8.558300e-02  0 
 4.302565e-02  -8.994894e-02  0 
 2.987925e-02  -8.994367e-02  0 
 3.646588e-02  -1.291801e-01  0 
 4.299280e-02  -1.208744e-01  0 
 4.542559e-02  -1.469450e-01  0 
 3.176880e-02  -1.157510e-01  0 
 3.140822e-02  -1.003143e-01  0 
 3.696027e-02  -1.071136e-01  0 
 3.781399e-02  -1.201591e-01  0 
 3.767714e-02  -1.293287e-01  0 
 4.536047e-02  -1.375734e-01  0 
 4.870365e-02  -1.533952e-01  0 
 4.416545e-02  -1.057190e-01  0 
 2.988752e-02  -1.085415e-01  0 
 6.593774e-02  -1.163162e-01  0 
VECTORS displacement_ITER6 FLOAT
 4.025915e-02  -6.913961e-02  0 
 4.320954e-02  -7.292457e-02  0 
 4.843143e-02  -1.492262e-01  0 
 1.932324e-02  -6.902170e-02  0 
 2.627994e-02  -6.902213e-02  0 
 3.326265e-02  -6.905307e-02  0 
 5.982520e-02  -6.921700e-02  0 
 2.540078e-02  -8.050829e-02  0 
 3.219635e-02  -7.484494e-02  0 
 4.028029e-02  -8.875952e-02  0 
 4.031067e-02  -1.083374e-01  0 
 4.418097e-02  -1.254274e-01  0 
 3.657479e-02  -1.004381e-01  0 
 3.451880e-02  -1.227290e-01  0 
 3.983029e-02  -1.370152e-01  0 
 2.650828e-02  -5.958091e-02  0 
 3.355460e-02  -6.434115e-02  0 
 1.920327e-02  -6.434475e-02  0 
 2.773546e-02  -9.665905e-02  0 
 3.309416e-02  -9.354190e-02  0 
 3.377223e-02  -1.193652e-01  0 
 2.367140e-02  -8.803032e-02  0 
 2.118440e-02  -7.536215e-02  0 
 2.695627e-02  -8.158182e-02  0 
 2.676723e-02  -9.377474e-02  0 
 2.616667e-02  -1.012654e-01  0 
 3.413355e-02  -1.098622e-01  0 
 3.919107e-02  -1.277625e-01  0 
 3.480243e-02  -7.957455e-02  0 
 2.004753e-02  -8.467706e-02  0 
 5.555155e-02  -8.918276e-02  0 
VECTORS displacement_ITER7 FLOAT
 3.669638e-02  -5.194295e-02  0 
 2.898521e-02  -6.357024e-02  0 
 4.224417e-02  -1.149613e-01  0 
 3.140830e-02  -5.182121e-02  0 
 3.315224e-02  -5.181442e-02  0 
 3.491851e-02  -5.184684e-02  0 
 5.034742e-02  -5.202962e-02  0 
 1.747250e-02  -6.070721e-02  0 
 2.214899e-02  -6.040109e-02  0 
 3.671752e-02  -6.565721e-02  0 
 3.675091e-02  -7.933025e-02  0 
 3.926066e-02  -9.515184e-02  0 
 3.102631e-02  -8.574732e-02  0 
 3.311996e-02  -1.001066e-01  0 
 3.721060e-02  -1.074828e-01  0 
 3.321820e-02  -4.942947e-02  0 
 3.497983e-02  -5.063476e-02  0 
 3.138050e-02  -5.064118e-02  0 
 2.491272e-02  -7.792998e-02  0 
 3.396205e-02  -6.843339e-02  0 
 3.361037e-02  -9.307364e-02  0 
 2.116061e-02  -6.870600e-02  0 
 2.883882e-02  -5.563519e-02  0 
 3.113572e-02  -5.863775e-02  0 
 2.959808e-02  -6.936223e-02  0 
 2.752571e-02  -7.781977e-02  0 
 3.421696e-02  -8.274897e-02  0 
 3.687595e-02  -9.825539e-02  0 
 3.466970e-02  -5.863815e-02  0 
 2.339176e-02  -6.113057e-02  0 
 4.737941e-02  -6.596316e-02  0 
VECTORS displacement_ITER8 FLOAT
 2.335183e-02  -3.740591e-02  0 
 -4.518443e-04  -6.386602e-02  0 
 2.242504e-02  -8.155213e-02  0 
 2.973797e-02  -3.729325e-02  0 
 2.760324e-02  -3.728125e-02  0 
 2.548072e-02  -3.731008e-02  0 
 3.267023e-02  -3.749816e-02  0 
 -4.167773e-03  -4.257952e-02  0 
 -2.190745e-03  -5.188064e-02  0 
 2.336965e-02  -4.679877e-02  0 
 2.340224e-02  -5.614929e-02  0 
 2.307788e-02  -6.927562e-02  0 
 1.300613e-02  -7.854101e-02  0 
 2.098763e-02  -8.334853e-02  0 
 2.373756e-02  -8.206857e-02  0 
 2.754625e-02  -4.015191e-02  0 
 2.537259e-02  -3.871277e-02  0 
 2.977897e-02  -3.871532e-02  0 
 1.038626e-02  -6.463214e-02  0 
 2.409165e-02  -4.807484e-02  0 
 2.312292e-02  -7.203381e-02  0 
 6.516417e-03  -5.323641e-02  0 
 2.360962e-02  -3.890658e-02  0 
 2.348466e-02  -3.946279e-02  0 
 2.106747e-02  -4.936497e-02  0 
 1.776152e-02  -5.917358e-02  0 
 2.394269e-02  -6.122018e-02  0 
 2.376760e-02  -7.348500e-02  0 
 2.392613e-02  -4.130615e-02  0 
 1.430394e-02  -4.080202e-02  0 
 3.065748e-02  -4.701673e-02  0 
VECTORS displacement_ITER9 FLOAT
 1.570982e-02  -2.944538e-02  0 
 5.389527e-03  -4.306723e-02  0 
 1.114080e-02  -7.157627e-02  0 
 1.674353e-02  -2.935894e-02  0 
 1.641381e-02  -2.934542e-02  0 
 1.607891e-02  -2.936294e-02  0 
 2.597582e-02  -2.953552e-02  0 
 1.729029e-03  -3.909638e-02  0 
 3.278312e-03  -3.947293e-02  0 
 1.572013e-02  -3.979362e-02  0 
 1.574547e-02  -5.009664e-02  0 
 1.277662e-02  -6.206368e-02  0 
 1.090727e-02  -6.145453e-02  0 
 1.380836e-02  -7.115425e-02  0 
 1.456096e-02  -7.248829e-02  0 
 1.641011e-02  -2.978333e-02  0 
 1.605370e-02  -2.957403e-02  0 
 1.675415e-02  -2.956957e-02  0 
 6.476456e-03  -5.222691e-02  0 
 1.480775e-02  -4.198788e-02  0 
 1.415992e-02  -6.359933e-02  0 
 3.872296e-03  -4.437525e-02  0 
 1.270192e-02  -3.231328e-02  0 
 1.361256e-02  -3.410440e-02  0 
 1.144041e-02  -4.381655e-02  0 
 9.559085e-03  -5.111946e-02  0 
 1.430226e-02  -5.534353e-02  0 
 1.398440e-02  -6.561730e-02  0 
 1.518801e-02  -3.434354e-02  0 
 6.710806e-03  -3.726385e-02  0 
 2.375229e-02  -4.002513e-02  0 
VECTORS displacement_ITER10 FLOAT
 1.495733e-02  -2.126770e-02  0 
 2.381032e-02  -1.749649e-02  0 
 1.101490e-02  -7.474100e-02  0 
 2.426980e-03  -2.120484e-02  0 
 6.634461e-03  -2.119156e-02  0 
 1.082322e-02  -2.119877e-02  0 
 2.898400e-02  -2.135306e-02  0 
 1.817820e-02  -3.804627e-02  0 
 1.978757e-02  -2.587215e-02  0 
 1.496147e-02  -3.537931e-02  0 
 1.497994e-02  -4.944358e-02  0 
 1.110770e-02  -6.269288e-02  0 
 1.671019e-02  -4.272652e-02  0 
 1.200992e-02  -6.197521e-02  0 
 1.191118e-02  -7.102270e-02  0 
 6.770504e-03  -1.549687e-02  0 
 1.100067e-02  -1.837990e-02  0 
 2.359595e-03  -1.837057e-02  0 
 8.915503e-03  -4.041073e-02  0 
 1.002817e-02  -3.962917e-02  0 
 9.783289e-03  -6.030097e-02  0 
 7.715637e-03  -3.681501e-02  0 
 2.685080e-03  -2.709918e-02  0 
 6.549341e-03  -3.164048e-02  0 
 5.052721e-03  -4.210877e-02  0 
 5.158852e-03  -4.649549e-02  0 
 9.265361e-03  -5.442505e-02  0 
 1.067986e-02  -6.507054e-02  0 
 1.154771e-02  -2.902671e-02  0 
 2.182163e-03  -3.769071e-02  0 
 2.592969e-02  -3.568107e-02  0 
VECTORS displacement_ITER11 FLOAT
 1.030516e-02  -1.629073e-02  0 
 1.210617e-02  -1.996459e-02  0 
 8.189930e-03  -6.757199e-02  0 
 5.175705e-04  -1.623389e-02  0 
 3.814469e-03  -1.621842e-02  0 
 7.090198e-03  -1.622368e-02  0 
 2.337209e-02  -1.637606e-02  0 
 1.159363e-02  -2.605402e-02  0 
 1.124708e-02  -2.176422e-02  0 
 1.030965e-02  -2.944292e-02  0 
 1.032930e-02  -4.254802e-02  0 
 7.666347e-03  -5.531193e-02  0 
 1.140681e-02  -4.048230e-02  0 
 9.264765e-03  -5.563336e-02  0 
 8.786507e-03  -6.365644e-02  0 
 3.921712e-03  -1.175754e-02  0 
 7.228388e-03  -1.401954e-02  0 
 4.665563e-04  -1.401048e-02  0 
 5.512390e-03  -3.422888e-02  0 
 6.403160e-03  -3.314647e-02  0 
 6.994150e-03  -5.308266e-02  0 
 4.171425e-03  -2.855608e-02  0 
 4.946701e-05  -2.106825e-02  0 
 3.323940e-03  -2.516110e-02  0 
 2.255476e-03  -3.480533e-02  0 
 2.569729e-03  -3.912237e-02  0 
 6.155676e-03  -4.692793e-02  0 
 7.537937e-03  -5.756789e-02  0 
 7.545905e-03  -2.335553e-02  0 
 -1.076795e-03  -2.924776e-02  0 
 2.052868e-02  -2.972603e-02  0 
VECTORS displacement_ITER12 FLOAT
 1.192328e-02  -1.428728e-02  0 
 7.150271e-04  -3.057162e-02  0 
 1.163903e-02  -5.864868e-02  0 
 9.873652e-03  -1.422798e-02  0 
 1.058813e-02  -1.420954e-02  0 
 1.128422e-02  -1.421675e-02  0 
 2.272117e-02  -1.437444e-02  0 
 6.520238e-03  -1.453477e-02  0 
 3.864144e-03  -2.204079e-02  0 
 1.193061e-02  -2.516961e-02  0 
 1.195421e-02  -3.600459e-02  0 
 1.105464e-02  -4.733775e-02  0 
 1.069440e-02  -4.409148e-02  0 
 1.356816e-02  -5.190596e-02  0 
 1.288344e-02  -5.628791e-02  0 
 1.061534e-02  -1.324157e-02  0 
 1.130829e-02  -1.374275e-02  0 
 9.867866e-03  -1.373702e-02  0 
 7.844266e-03  -3.161804e-02  0 
 1.054839e-02  -2.754314e-02  0 
 1.205916e-02  -4.658223e-02  0 
 6.001555e-03  -2.260008e-02  0 
 7.265391e-03  -1.699746e-02  0 
 8.768122e-03  -1.965866e-02  0 
 7.986531e-03  -2.796300e-02  0 
 7.916909e-03  -3.298472e-02  0 
 1.106785e-02  -3.947516e-02  0 
 1.183818e-02  -4.981839e-02  0 
 1.088110e-02  -1.965664e-02  0 
 3.811274e-03  -2.070158e-02  0 
 2.037759e-02  -2.541017e-02  0 
VECTORS displacement_ITER13 FLOAT
 7.317681e-03  -1.376814e-02  0 
 -5.645956e-03  -2.906577e-02  0 
 9.375048e-03  -5.684776e-02  0 
 6.297199e-03  -1.370452e-02  0 
 6.662209e-03  -1.368505e-02  0 
 7.013511e-03  -1.369448e-02  0 
 1.785302e-02  -1.385585e-02  0 
 1.216650e-03  -9.065362e-03  0 
 -1.896822e-03  -1.889979e-02  0 
 7.327435e-03  -2.438533e-02  0 
 7.353698e-03  -3.495230e-02  0 
 8.170966e-03  -4.512955e-02  0 
 6.680795e-03  -4.217132e-02  0 
 1.044472e-02  -4.933440e-02  0 
 9.857785e-03  -5.396001e-02  0 
 6.679752e-03  -1.318706e-02  0 
 7.021331e-03  -1.344891e-02  0 
 6.297295e-03  -1.344763e-02  0 
 4.166780e-03  -2.850440e-02  0 
 6.388622e-03  -2.618296e-02  0 
 8.878891e-03  -4.387861e-02  0 
 2.150919e-03  -1.876352e-02  0 
 3.738108e-03  -1.567758e-02  0 
 4.705322e-03  -1.815033e-02  0 
 4.451597e-03  -2.530140e-02  0 
 4.582132e-03  -2.978952e-02  0 
 7.685084e-03  -3.679906e-02  0 
 8.819757e-03  -4.734940e-02  0 
 6.488661e-03  -1.879823e-02  0 
 2.564962e-04  -1.728418e-02  0 
 1.556645e-02  -2.462333e-02  0 
VECTORS displacement_ITER14 FLOAT
 4.015741e-03  -1.279800e-02  0 
 3.064079e-03  -1.318946e-02  0 
 6.992704e-03  -6.051159e-02  0 
 -2.938437e-03  -1.273639e-02  0 
 -5.990672e-04  -1.271692e-02  0 
 1.728037e-03  -1.272554e-02  0 
 1.644761e-02  -1.288344e-02  0 
 5.379451e-03  -1.180324e-02  0 
 3.693568e-03  -1.202373e-02  0 
 4.025422e-03  -2.530878e-02  0 
 4.050797e-03  -3.776548e-02  0 
 5.408095e-03  -4.772503e-02  0 
 7.240270e-03  -3.295999e-02  0 
 6.708615e-03  -4.684764e-02  0 
 6.277484e-03  -5.558442e-02  0 
 -5.187510e-04  -9.545640e-03  0 
 1.822548e-03  -1.115143e-02  0 
 -2.972731e-03  -1.115399e-02  0 
 2.028335e-03  -2.432894e-02  0 
 1.235403e-03  -2.770476e-02  0 
 4.148201e-03  -4.427167e-02  0 
 4.946116e-04  -1.739711e-02  0 
 -3.299455e-03  -1.600407e-02  0 
 -1.429746e-03  -1.954273e-02  0 
 -1.328867e-03  -2.645715e-02  0 
 -4.662680e-04  -2.930820e-02  0 
 2.765496e-03  -3.833190e-02  0 
 4.978190e-03  -4.938156e-02  0 
 1.846126e-03  -1.909320e-02  0 
 -4.331059e-03  -1.959828e-02  0 
 1.374131e-02  -2.558512e-02  0 
VECTORS displacement_ITER15 FLOAT
 3.018333e-03  -1.018289e-02  0 
 1.117769e-03  -1.157924e-02  0 
 2.764610e-03  -5.314796e-02  0 
 -8.190312e-04  -1.012156e-02  0 
 4.810759e-04  -1.010095e-02  0 
 1.768796e-03  -1.010969e-02  0 
 1.471418e-02  -1.026721e-02  0 
 2.861723e-03  -1.187433e-02  0 
 1.435536e-03  -1.123406e-02  0 
 3.027278e-03  -2.195818e-02  0 
 3.051913e-03  -3.367906e-02  0 
 3.376392e-03  -4.317418e-02  0 
 5.459228e-03  -3.150573e-02  0 
 5.392473e-03  -4.450528e-02  0 
 4.849951e-03  -5.108639e-02  0 
 5.289986e-04  -8.335396e-03  0 
 1.817466e-03  -9.232417e-03  0 
 -8.349674e-04  -9.235977e-03  0 
 3.440479e-04  -2.310405e-02  0 
 9.956952e-04  -2.416134e-02  0 
 3.381672e-03  -4.100506e-02  0 
 -1.095738e-03  -1.657758e-02  0 
 -2.052549e-03  -1.356280e-02  0 
 -9.416225e-04  -1.635390e-02  0 
 -1.385566e-03  -2.349252e-02  0 
 -1.032104e-03  -2.686471e-02  0 
 2.181436e-03  -3.492687e-02  0 
 3.600835e-03  -4.534410e-02  0 
 1.496652e-03  -1.601591e-02  0 
 -4.096125e-03  -1.732738e-02  0 
 1.216905e-02  -2.221930e-02  0 
VECTORS displacement_ITER16 FLOAT
 3.976617e-03  -9.135974e-03  0 
 -1.742203e-03  -1.470140e-02  0 
 2.186029e-03  -4.784818e-02  0 
 4.616811e-03  -9.069081e-03  0 
 4.421738e-03  -9.048416e-03  0 
 4.216653e-03  -9.059458e-03  0 
 1.414048e-02  -9.220358e-03  0 
 4.284088e-04  -1.059001e-02  0 
 -8.397834e-04  -1.257956e-02  0 
 3.985373e-03  -1.938074e-02  0 
 4.010552e-03  -2.957200e-02  0 
 3.853978e-03  -3.926225e-02  0 
 5.019755e-03  -3.294959e-02  0 
 6.396333e-03  -4.343161e-02  0 
 5.818299e-03  -4.763709e-02  0 
 4.423040e-03  -9.304191e-03  0 
 4.198789e-03  -9.182985e-03  0 
 4.626720e-03  -9.187060e-03  0 
 7.249669e-04  -2.336310e-02  0 
 3.194422e-03  -2.115857e-02  0 
 5.010641e-03  -3.845901e-02  0 
 -7.363236e-04  -1.636098e-02  0 
 2.038352e-03  -1.207068e-02  0 
 2.177331e-03  -1.385858e-02  0 
 1.219966e-03  -2.101441e-02  0 
 9.637955e-04  -2.519003e-02  0 
 3.997391e-03  -3.180721e-02  0 
 4.693909e-03  -4.189379e-02  0 
 3.433221e-03  -1.401169e-02  0 
 -1.537891e-03  -1.503566e-02  0 
 1.193270e-02  -1.961114e-02  0 
VECTORS displacement_ITER17 FLOAT
 4.021789e-03  -8.531393e-03  0 
 3.667854e-03  -8.529696e-03  0 
 4.091300e-03  -5.191764e-02  0 
 1.937578e-03  -8.459022e-03  0 
 2.646473e-03  -8.440266e-03  0 
 3.348780e-03  -8.453020e-03  0 
 1.457301e-02  -8.615213e-03  0 
 3.216333e-03  -1.125613e-02  0 
 3.191899e-03  -1.015793e-02  0 
 4.030398e-03  -1.916348e-02  0 
 4.055790e-03  -2.974197e-02  0 
 4.350150e-03  -4.080017e-02  0 
 6.563981e-03  -2.925742e-02  0 
 5.830040e-03  -4.257480e-02  0 
 5.531704e-03  -4.922076e-02  0 
 2.676618e-03  -7.470287e-03  0 
 3.369924e-03  -7.965973e-03  0 
 1.931220e-03  -7.971363e-03  0 
 1.170152e-03  -2.192666e-02  0 
 2.403885e-03  -2.133801e-02  0 
 3.943815e-03  -3.884743e-02  0 
 -1.001453e-06  -1.608919e-02  0 
 2.628863e-04  -1.203147e-02  0 
 9.390157e-04  -1.424484e-02  0 
 -5.064863e-06  -2.153688e-02  0 
 -3.750647e-05  -2.529430e-02  0 
 2.941311e-03  -3.228602e-02  0 
 4.352078e-03  -4.315739e-02  0 
 2.903695e-03  -1.379968e-02  0 
 -2.320881e-03  -1.614446e-02  0 
 1.227979e-02  -1.940151e-02  0 
VECTORS displacement_ITER18 FLOAT
 2.665485e-03  -7.982415e-03  0 
 1.325610e-03  -1.092548e-02  0 
 3.485757e-03  -5.079385e-02  0 
 2.038126e-03  -7.899060e-03  0 
 2.254128e-03  -7.882220e-03  0 
 2.469961e-03  -7.899077e-03  0 
 1.292183e-02  -8.066956e-03  0 
 1.598865e-03  -9.119450e-03  0 
 1.535236e-03  -1.066518e-02  0 
 2.675723e-03  -1.831865e-02  0 
 2.702783e-03  -2.860105e-02  0 
 3.244192e-03  -3.955013e-02  0 
 5.489569e-03  -2.986021e-02  0 
 5.256623e-03  -4.172909e-02  0 
 4.727846e-03  -4.790757e-02  0 
 2.269782e-03  -7.574764e-03  0 
 2.468007e-03  -7.735589e-03  0 
 2.039526e-03  -7.743295e-03  0 
 7.239438e-04  -2.163497e-02  0 
 1.550671e-03  -2.038194e-02  0 
 3.345287e-03  -3.767351e-02  0 
 -4.075296e-04  -1.528502e-02  0 
 1.093795e-04  -1.116845e-02  0 
 4.193668e-04  -1.331840e-02  0 
 -3.632904e-04  -2.045680e-02  0 
 -2.807645e-04  -2.438339e-02  0 
 2.228000e-03  -3.104782e-02  0 
 3.533717e-03  -4.177186e-02  0 
 1.889543e-03  -1.306556e-02  0 
 -2.534351e-03  -1.479754e-02  0 
 1.069405e-02  -1.855205e-02  0 
VECTORS displacement_ITER19 FLOAT
 2.396611e-03  -7.556224e-03  0 
 1.561836e-03  -1.156779e-02  0 
 2.975376e-03  -4.894396e-02  0 
 2.298495e-03  -7.460842e-03  0 
 2.329611e-03  -7.446274e-03  0 
 2.367592e-03  -7.467834e-03  0 
 1.299736e-02  -7.641135e-03  0 
 2.138989e-03  -7.452242e-03  0 
 2.004272e-03  -1.010092e-02  0 
 2.408636e-03  -1.823506e-02  0 
 2.436914e-03  -2.885827e-02  0 
 2.798119e-03  -3.890554e-02  0 
 6.130586e-03  -2.950135e-02  0 
 6.003465e-03  -4.072917e-02  0 
 4.994707e-03  -4.654588e-02  0 
 2.340381e-03  -7.384023e-03  0 
 2.355936e-03  -7.420081e-03  0 
 2.302197e-03  -7.429860e-03  0 
 1.672603e-03  -2.089033e-02  0 
 1.490794e-03  -2.024871e-02  0 
 3.912255e-03  -3.679821e-02  0 
 4.951356e-04  -1.425623e-02  0 
 4.458669e-04  -1.057521e-02  0 
 5.149146e-04  -1.294085e-02  0 
 6.587403e-05  -1.987019e-02  0 
 5.171815e-04  -2.357763e-02  0 
 2.532702e-03  -3.064052e-02  0 
 3.668490e-03  -4.077734e-02  0 
 1.728254e-03  -1.279231e-02  0 
 -1.843821e-03  -1.383606e-02  0 
 1.069386e-02  -1.847693e-02  0 
VECTORS displacement_ITER20 FLOAT
 2.688379e-03  -6.902126e-03  0 
 2.890096e-03  -1.146273e-02  0 
 2.427018e-03  -4.724752e-02  0 
 3.329548e-03  -6.802637e-03  0 
 3.109526e-03  -6.788393e-03  0 
 2.899761e-03  -6.811898e-03  0 
 1.333743e-02  -6.986998e-03  0 
 3.702843e-03  -8.264912e-03  0 
 3.294209e-03  -1.003072e-02  0 
 2.701094e-03  -1.762849e-02  0 
 2.729792e-03  -2.829862e-02  0 
 2.555663e-03  -3.804393e-02  0 
 6.956101e-03  -2.901273e-02  0 
 6.583256e-03  -3.998109e-02  0 
 5.227032e-03  -4.536907e-02  0 
 3.113237e-03  -7.063275e-03  0 
 2.876310e-03  -6.928046e-03  0 
 3.337433e-03  -6.940297e-03  0 
 2.576411e-03  -2.063555e-02  0 
 1.964201e-03  -1.970743e-02  0 
 4.424016e-03  -3.609615e-02  0 
 1.487428e-03  -1.424134e-02  0 
 1.419885e-03  -1.009126e-02  0 
 1.251666e-03  -1.245991e-02  0 
 7.637998e-04  -1.950202e-02  0 
 1.313636e-03  -2.320283e-02  0 
 2.961584e-03  -3.017704e-02  0 
 3.820162e-03  -3.986554e-02  0 
 2.177367e-03  -1.219430e-02  0 
 -7.478689e-04  -1.374927e-02  0 
 1.102324e-02  -1.787184e-02  0 
VECTORS displacement_ITER21 FLOAT
 3.006146e-03  -6.286209e-03  0 
 3.806309e-03  -1.008663e-02  0 
 2.844346e-03  -4.852970e-02  0 
 3.247073e-03  -6.191120e-03  0 
 3.161052e-03  -6.175325e-03  0 
 3.084252e-03  -6.197432e-03  0 
 1.328727e-02  -6.370762e-03  0 
 3.668036e-03  -9.275524e-03  0 
 3.523256e-03  -9.383942e-03  0 
 3.018095e-03  -1.664525e-02  0 
 3.046516e-03  -2.695002e-02  0 
 2.616350e-03  -3.785095e-02  0 
 6.837890e-03  -2.830051e-02  0 
 6.067663e-03  -3.984966e-02  0 
 4.921057e-03  -4.565467e-02  0 
 3.169506e-03  -6.269647e-03  0 
 3.066993e-03  -6.224438e-03  0 
 3.253218e-03  -6.238680e-03  0 
 2.179886e-03  -2.054453e-02  0 
 2.092431e-03  -1.886730e-02  0 
 3.930137e-03  -3.600116e-02  0 
 1.046059e-03  -1.444823e-02  0 
 1.407661e-03  -9.683622e-03  0 
 1.319448e-03  -1.191709e-02  0 
 5.329917e-04  -1.925303e-02  0 
 8.814491e-04  -2.315937e-02  0 
 2.610489e-03  -2.978867e-02  0 
 3.505981e-03  -3.991149e-02  0 
 2.418749e-03  -1.145150e-02  0 
 -9.378715e-04  -1.383915e-02  0 
 1.105416e-02  -1.688032e-02  0 
VECTORS displacement_ITER22 FLOAT
 3.281355e-03  -6.557175e-03  0 
 3.160908e-03  -9.930426e-03  0 
 3.161140e-03  -4.910243e-02  0 
 2.980513e-03  -6.466501e-03  0 
 3.074869e-03  -6.448953e-03  0 
 3.178118e-03  -6.469740e-03  0 
 1.323012e-02  -6.641088e-03  0 
 2.332999e-03  -8.341062e-03  0 
 2.490532e-03  -8.711407e-03  0 
 3.292363e-03  -1.658436e-02  0 
 3.320274e-03  -2.655850e-02  0 
 2.842766e-03  -3.776047e-02  0 
 6.539964e-03  -2.835338e-02  0 
 6.039631e-03  -3.993940e-02  0 
 5.005689e-03  -4.578732e-02  0 
 3.089839e-03  -6.299636e-03  0 
 3.169117e-03  -6.375867e-03  0 
 2.983997e-03  -6.392965e-03  0 
 1.852824e-03  -2.043619e-02  0 
 2.235058e-03  -1.873833e-02  0 
 3.961525e-03  -3.597789e-02  0 
 4.884572e-04  -1.405339e-02  0 
 1.328989e-03  -9.685018e-03  0 
 1.261009e-03  -1.186423e-02  0 
 5.077303e-04  -1.903535e-02  0 
 8.130882e-04  -2.294696e-02  0 
 2.657854e-03  -2.966468e-02  0 
 3.558324e-03  -3.996703e-02  0 
 2.586684e-03  -1.152641e-02  0 
 -1.147130e-03  -1.325696e-02  0 
 1.106989e-02  -1.681195e-02  0 
VECTORS displacement_ITER23 FLOAT
 3.594686e-03  -6.874998e-03  0 
 3.411229e-03  -9.482880e-03  0 
 3.218840e-03  -4.875312e-02  0 
 2.579619e-03  -6.786875e-03  0 
 2.909983e-03  -6.768323e-03  0 
 3.250493e-03  -6.788505e-03  0 
 1.382375e-02  -6.957326e-03  0 
 2.486923e-03  -7.209482e-03  0 
 2.721644e-03  -8.100464e-03  0 
 3.605244e-03  -1.718134e-02  0 
 3.632416e-03  -2.743487e-02  0 
 3.199064e-03  -3.802142e-02  0 
 7.098865e-03  -2.807693e-02  0 
 6.742171e-03  -3.979480e-02  0 
 5.586350e-03  -4.566620e-02  0 
 2.933540e-03  -6.298754e-03  0 
 3.252016e-03  -6.534420e-03  0 
 2.579147e-03  -6.555190e-03  0 
 2.379762e-03  -2.000109e-02  0 
 2.398259e-03  -1.927090e-02  0 
 4.583277e-03  -3.598459e-02  0 
 9.308728e-04  -1.342958e-02  0 
 1.298297e-03  -9.749154e-03  0 
 1.230778e-03  -1.217627e-02  0 
 7.856922e-04  -1.902888e-02  0 
 1.326462e-03  -2.267020e-02  0 
 3.119961e-03  -2.996764e-02  0 
 4.034591e-03  -4.010742e-02  0 
 2.737509e-03  -1.195982e-02  0 
 -8.293629e-04  -1.275648e-02  0 
 1.160096e-02  -1.741409e-02  0 
VECTORS displacement_ITER24 FLOAT
 3.074756e-03  -6.577016e-03  0 
 2.170408e-03  -1.028356e-02  0 
 2.491164e-03  -4.693693e-02  0 
 2.523958e-03  -6.490725e-03  0 
 2.696320e-03  -6.470922e-03  0 
 2.881085e-03  -6.490898e-03  0 
 1.360316e-02  -6.657406e-03  0 
 2.068019e-03  -6.276902e-03  0 
 2.060892e-03  -8.398645e-03  0 
 3.085156e-03  -1.718107e-02  0 
 3.111750e-03  -2.773276e-02  0 
 2.982575e-03  -3.742229e-02  0 
 6.772667e-03  -2.829870e-02  0 
 6.891096e-03  -3.939242e-02  0 
 5.654580e-03  -4.474301e-02  0 
 2.716700e-03  -6.213488e-03  0 
 2.875649e-03  -6.339592e-03  0 
 2.526487e-03  -6.365632e-03  0 
 2.306580e-03  -1.968091e-02  0 
 2.090125e-03  -1.914867e-02  0 
 4.808378e-03  -3.536504e-02  0 
 9.236998e-04  -1.289301e-02  0 
 1.276027e-03  -9.168414e-03  0 
 1.015309e-03  -1.178560e-02  0 
 8.540603e-04  -1.838220e-02  0 
 1.526774e-03  -2.201922e-02  0 
 3.232574e-03  -2.948525e-02  0 
 4.092451e-03  -3.939796e-02  0 
 2.312196e-03  -1.176414e-02  0 
 -6.423487e-04  -1.176012e-02  0 
 1.131346e-02  -1.741950e-02  0 
VECTORS displacement_ITER25 FLOAT
 2.059867e-03  -6.458615e-03  0 
 2.177781e-03  -8.720648e-03  0 
 2.961555e-03  -4.810635e-02  0 
 1.806461e-03  -6.373175e-03  0 
 1.877603e-03  -6.352516e-03  0 
 1.962589e-03  -6.372407e-03  0 
 1.250360e-02  -6.538210e-03  0 
 2.130431e-03  -7.143576e-03  0 
 2.116128e-03  -8.221609e-03  0 
 2.070298e-03  -1.697746e-02  0 
 2.097239e-03  -2.744489e-02  0 
 2.758985e-03  -3.754882e-02  0 
 6.159279e-03  -2.744942e-02  0 
 5.926098e-03  -3.910412e-02  0 
 5.009931e-03  -4.509054e-02  0 
 1.895885e-03  -6.231070e-03  0 
 1.952600e-03  -6.286938e-03  0 
 1.810976e-03  -6.316358e-03  0 
 1.446128e-03  -1.929854e-02  0 
 1.159893e-03  -1.888826e-02  0 
 3.839793e-03  -3.514248e-02  0 
 2.835189e-04  -1.297841e-02  0 
 5.673734e-04  -9.000896e-03  0 
 2.010184e-04  -1.163013e-02  0 
 4.421385e-06  -1.810656e-02  0 
 5.750444e-04  -2.176860e-02  0 
 2.340256e-03  -2.902026e-02  0 
 3.535080e-03  -3.941235e-02  0 
 1.361540e-03  -1.159916e-02  0 
 -1.241948e-03  -1.179069e-02  0 
 1.023217e-02  -1.721415e-02  0 
VECTORS displacement_ITER26 FLOAT
 2.308371e-03  -6.016763e-03  0 
 1.952918e-03  -8.015653e-03  0 
 2.911606e-03  -4.775273e-02  0 
 2.036848e-03  -5.931567e-03  0 
 2.114102e-03  -5.910228e-03  0 
 2.205293e-03  -5.929930e-03  0 
 1.260582e-02  -6.096073e-03  0 
 1.882201e-03  -7.706884e-03  0 
 1.915852e-03  -8.106768e-03  0 
 2.317990e-03  -1.639004e-02  0 
 2.344327e-03  -2.671321e-02  0 
 2.849621e-03  -3.715743e-02  0 
 5.882861e-03  -2.718881e-02  0 
 5.730999e-03  -3.900869e-02  0 
 4.983418e-03  -4.487937e-02  0 
 2.132918e-03  -5.780536e-03  0 
 2.195547e-03  -5.840264e-03  0 
 2.041580e-03  -5.870660e-03  0 
 1.054993e-03  -1.916246e-02  0 
 1.366279e-03  -1.830735e-02  0 
 3.780039e-03  -3.489144e-02  0 
 -7.829395e-05  -1.304549e-02  0 
 7.243207e-04  -8.583486e-03  0 
 3.864915e-04  -1.113089e-02  0 
 2.495045e-05  -1.771730e-02  0 
 4.133370e-04  -2.152628e-02  0 
 2.384398e-03  -2.861611e-02  0 
 3.559228e-03  -3.912324e-02  0 
 1.601440e-03  -1.108065e-02  0 
 -1.268341e-03  -1.154030e-02  0 
 1.036665e-02  -1.662299e-02  0 
VECTORS displacement_ITER27 FLOAT
 2.675546e-03  -6.257618e-03  0 
 1.930051e-03  -7.415345e-03  0 
 1.875225e-03  -4.630015e-02  0 
 1.445596e-03  -6.170875e-03  0 
 1.842037e-03  -6.149181e-03  0 
 2.252891e-03  -6.169163e-03  0 
 1.303750e-02  -6.337587e-03  0 
 1.733086e-03  -7.776190e-03  0 
 1.843245e-03  -7.644868e-03  0 
 2.683949e-03  -1.669728e-02  0 
 2.709192e-03  -2.708625e-02  0 
 2.468163e-03  -3.691923e-02  0 
 5.893772e-03  -2.696840e-02  0 
 5.845946e-03  -3.897864e-02  0 
 4.899989e-03  -4.440611e-02  0 
 1.871056e-03  -5.587434e-03  0 
 2.256957e-03  -5.864777e-03  0 
 1.444947e-03  -5.895697e-03  0 
 9.647897e-04  -1.898190e-02  0 
 1.471037e-03  -1.862712e-02  0 
 3.933953e-03  -3.491587e-02  0 
 -2.756215e-04  -1.292269e-02  0 
 3.978684e-04  -8.757601e-03  0 
 2.314218e-04  -1.140629e-02  0 
 -5.990532e-05  -1.788445e-02  0 
 3.936936e-04  -2.149824e-02  0 
 2.511581e-03  -2.897270e-02  0 