# vtk DataFile Version 3.1
this is an vtk file created by FEMAC
ASCII
DATASET UNSTRUCTURED_GRID
POINTS 21 FLOAT
3.000000 2.000000 0.000000
3.000000 3.000000 0.000000
2.666667 3.000000 0.000000
3.000000 2.333333 0.000000
3.000000 2.666667 0.000000
3.000000 3.333333 0.000000
3.333333 3.000000 0.000000
2.783162 2.605840 0.000000
2.793124 2.255841 0.000000
2.515789 3.340031 0.000000
2.783162 3.605840 0.000000
2.793124 3.255841 0.000000
3.248421 2.490274 0.000000
3.466342 2.734179 0.000000
3.242347 2.785889 0.000000
3.221251 2.227409 0.000000
3.248421 3.490274 0.000000
3.515789 3.340031 0.000000
3.466342 3.734179 0.000000
3.242347 3.785889 0.000000
3.221251 3.227409 0.000000
CELLS 25 100 
3 2 7 1
3 7 4 1
3 3 8 0
3 4 7 3
3 8 3 7
3 11  2  1
3 5 11  1
3 11  9  2
3 9 11 10
3 11  5 10
3 4  3 12
3 4 14  1
3 14  6  1
3 14  4 12
3 14 13  6
3 12 13 14
3 15  3  0
3 15 12  3
3 16 18 19
3 18 16 17
3 20  5  1
3 6 20  1
3 20  6 17
3 16 20 17
3 20 16  5
CELL_TYPES 25
5 5 5 5 5 5 5 5 5 5 5 5 5 5 5 5 5 5 5 5 5 5 5 5 5 
POINT_DATA 21
VECTORS displacement_ITER1 FLOAT
 2.560581e-01  -1.900932e-01  0 
 1.414997e-01  -1.907465e-01  0 
 1.416583e-01  -2.275530e-01  0 
 2.171655e-01  -1.899291e-01  0 
 1.789252e-01  -1.904522e-01  0 
 2.326500e-01  -1.911760e-01  0 
 1.415301e-01  -2.822828e-01  0 
 1.856748e-01  -2.148989e-01  0 
 2.262527e-01  -2.139533e-01  0 
 2.238570e-01  -1.463098e-01  0 
 2.586559e-01  -1.911589e-01  0 
 2.004885e-01  -1.895979e-01  0 
 1.984859e-01  -1.825396e-01  0 
 1.821564e-01  -1.942454e-01  0 
 1.572109e-01  -2.183298e-01  0 
 2.290773e-01  -1.718643e-01  0 
 2.757755e-01  -2.593734e-01  0 
 2.347259e-01  -3.325943e-01  0 
 3.428433e-01  -3.196006e-01  0 
 3.569383e-01  -2.580218e-01  0 
 2.037974e-01  -2.516715e-01  0 
VECTORS displacement_ITER2 FLOAT
 1.023165e-02  -3.508963e-02  0 
 1.765531e-02  -3.543983e-02  0 
 1.773026e-02  -3.230470e-02  0 
 1.267821e-02  -3.482623e-02  0 
 1.506720e-02  -3.507888e-02  0 
 3.533782e-02  -3.596838e-02  0 
 1.762671e-02  -5.372364e-02  0 
 1.450906e-02  -3.332971e-02  0 
 1.218062e-02  -3.335061e-02  0 
 3.249732e-02  -2.541179e-02  0 
 4.037868e-02  -3.573971e-02  0 
 2.988410e-02  -3.312540e-02  0 
 1.361189e-02  -4.123807e-02  0 
 1.671279e-02  -4.813315e-02  0 
 1.521512e-02  -4.525238e-02  0 
 1.155689e-02  -3.885030e-02  0 
 4.372578e-02  -4.941628e-02  0 
 3.587867e-02  -6.356547e-02  0 
 5.669133e-02  -6.136762e-02  0 
 5.935451e-02  -4.940888e-02  0 
 2.984675e-02  -4.769385e-02  0 
VECTORS displacement_ITER3 FLOAT
 -3.910432e-03  -1.140442e-02  0 
 4.783059e-03  -1.166552e-02  0 
 4.839332e-03  -8.447155e-03  0 
 -6.520015e-04  -1.122974e-02  0 
 2.176554e-03  -1.134628e-02  0 
 5.686974e-03  -1.223000e-02  0 
 4.765863e-03  -1.320692e-02  0 
 1.628131e-03  -9.500589e-03  0 
 -1.392303e-03  -9.244330e-03  0 
 3.509058e-03  -1.563095e-02  0 
 2.521460e-03  -1.601289e-02  0 
 5.564695e-03  -1.291477e-02  0 
 6.757154e-04  -1.550548e-02  0 
 2.366011e-03  -1.762417e-02  0 
 3.462949e-03  -1.466128e-02  0 
 -1.935540e-03  -1.513760e-02  0 
 6.182011e-03  -1.322414e-02  0 
 5.913595e-03  -1.389793e-02  0 
 6.871122e-03  -1.423332e-02  0 
 7.016298e-03  -1.346584e-02  0 
 5.538497e-03  -1.282927e-02  0 
VECTORS displacement_ITER4 FLOAT
 -2.672341e-03  -6.737732e-03  0 
 1.705041e-03  -7.017324e-03  0 
 1.762808e-03  -5.111870e-03  0 
 -1.106149e-03  -6.501358e-03  0 
 3.202468e-04  -6.681493e-03  0 
 3.582784e-03  -7.469058e-03  0 
 1.664900e-03  -9.481211e-03  0 
 -1.140937e-05  -5.670505e-03  0 
 -1.446140e-03  -5.514698e-03  0 
 1.258245e-03  -1.122028e-02  0 
 3.893462e-04  -1.181738e-02  0 
 3.064184e-03  -8.631279e-03  0 
 -8.404408e-04  -9.893492e-03  0 
 1.249210e-04  -1.191685e-02  0 
 8.545117e-04  -9.819453e-03  0 
 -2.221381e-03  -9.219240e-03  0 
 4.519931e-03  -9.091341e-03  0 
 3.720072e-03  -1.065676e-02  0 
 5.924581e-03  -1.063363e-02  0 
 6.289958e-03  -9.203466e-03  0 
 3.078995e-03  -8.739898e-03  0 
VECTORS displacement_ITER5 FLOAT
 -2.105622e-03  -6.751094e-03  0 
 8.970926e-04  -6.497289e-03  0 
 9.695994e-04  -5.150790e-03  0 
 -8.756142e-04  -6.296589e-03  0 
 1.257503e-04  -6.232060e-03  0 
 1.903014e-03  -6.947440e-03  0 
 8.226679e-04  -8.123775e-03  0 
 -6.047613e-05  -5.556766e-03  0 
 -1.071676e-03  -5.599269e-03  0 
 1.270686e-03  -8.014239e-03  0 
 1.439819e-03  -9.264679e-03  0 
 1.819596e-03  -7.698860e-03  0 
 -4.081555e-04  -1.003242e-02  0 
 1.186405e-04  -1.162535e-02  0 
 7.270392e-04  -9.339168e-03  0 
 -1.589490e-03  -9.102006e-03  0 
 2.427065e-03  -7.900675e-03  0 
 1.993725e-03  -8.831327e-03  0 
 3.202519e-03  -8.875945e-03  0 
 3.330838e-03  -8.061487e-03  0 
 1.663831e-03  -7.645473e-03  0 
VECTORS displacement_ITER6 FLOAT
 -9.154710e-04  -6.527352e-03  0 
 7.842429e-04  -6.252689e-03  0 
 8.319476e-04  -5.320600e-03  0 
 -1.595592e-04  -5.940509e-03  0 
 3.385600e-04  -5.928973e-03  0 
 9.680675e-04  -6.710602e-03  0 
 6.927516e-04  -7.045837e-03  0 
 1.981417e-04  -5.484858e-03  0 
 -1.827329e-04  -5.612619e-03  0 
 1.693810e-03  -5.878004e-03  0 
 3.695227e-03  -7.285069e-03  0 
 1.257430e-03  -7.156250e-03  0 
 2.703910e-04  -9.805057e-03  0 
 1.040166e-03  -1.148780e-02  0 
 1.287085e-03  -9.030136e-03  0 
 -1.241161e-03  -9.394556e-03  0 
 1.087472e-03  -6.989408e-03  0 
 1.031964e-03  -7.265567e-03  0 
 1.142982e-03  -7.211557e-03  0 
 1.039574e-03  -7.045691e-03  0 
 9.892318e-04  -6.830054e-03  0 
VECTORS displacement_ITER7 FLOAT
 -1.955534e-03  -5.882453e-03  0 
 4.197468e-04  -5.535517e-03  0 
 4.298527e-04  -4.484639e-03  0 
 -9.659837e-04  -5.284767e-03  0 
 -1.876118e-04  -5.205716e-03  0 
 9.945018e-04  -5.997231e-03  0 
 3.327516e-04  -6.712335e-03  0 
 -3.534879e-04  -4.616755e-03  0 
 -1.050052e-03  -4.794325e-03  0 
 -2.565412e-04  -8.485134e-03  0 
 -3.123282e-04  -8.968900e-03  0 
 8.791091e-04  -7.094522e-03  0 
 -6.805324e-04  -8.850895e-03  0 
 1.660790e-04  -1.020880e-02  0 
 5.497378e-04  -8.168552e-03  0 
 -2.018598e-03  -8.345149e-03  0 
 1.286931e-03  -6.557977e-03  0 
 1.067230e-03  -7.135873e-03  0 
 1.631396e-03  -7.029960e-03  0 
 1.642489e-03  -6.580504e-03  0 
 8.933458e-04  -6.368630e-03  0 
VECTORS displacement_ITER8 FLOAT
 -1.823433e-03  -6.554408e-03  0 
 6.766122e-04  -6.233452e-03  0 
 7.044961e-04  -5.085797e-03  0 
 -8.365657e-04  -5.978381e-03  0 
 -7.454670e-06  -5.916825e-03  0 
 1.246086e-03  -6.689957e-03  0 
 5.864884e-04  -7.400708e-03  0 
 -1.862326e-04  -5.292501e-03  0 
 -9.318137e-04  -5.466113e-03  0 
 7.479755e-04  -7.845908e-03  0 
 1.519282e-03  -8.535059e-03  0 
 1.261940e-03  -7.457230e-03  0 
 -5.092465e-04  -9.422267e-03  0 
 2.583224e-04  -1.043424e-02  0 
 6.703760e-04  -8.728009e-03  0 
 -1.760782e-03  -8.790385e-03  0 
 1.558171e-03  -7.238019e-03  0 
 1.316777e-03  -7.842802e-03  0 
 1.956564e-03  -7.745041e-03  0 
 2.003492e-03  -7.207497e-03  0 
 1.143608e-03  -7.058571e-03  0 
VECTORS displacement_ITER9 FLOAT
 -1.893828e-03  -6.693970e-03  0 
 6.600795e-04  -6.366720e-03  0 
 6.892177e-04  -5.205779e-03  0 
 -8.725995e-04  -6.106736e-03  0 
 -3.719505e-05  -6.049338e-03  0 
 1.252934e-03  -6.828997e-03  0 
 5.678014e-04  -7.559836e-03  0 
 -2.188045e-04  -5.418314e-03  0 
 -9.720512e-04  -5.580478e-03  0 
 7.790559e-04  -8.109627e-03  0 
 1.394815e-03  -8.551863e-03  0 
 1.285477e-03  -7.599512e-03  0 
 -5.556721e-04  -9.578090e-03  0 
 1.219892e-04  -1.038049e-02  0 
 5.816496e-04  -8.816209e-03  0 
 -1.796627e-03  -8.944780e-03  0 
 1.583229e-03  -7.395317e-03  0 
 1.332642e-03  -8.020720e-03  0 
 1.980403e-03  -7.901119e-03  0 
 2.024782e-03  -7.369127e-03  0 
 1.145746e-03  -7.209492e-03  0 
CELL_DATA 25
TENSORS element_stresses FLOAT
 -2.576466e-01  -9.269013e-01  0 
 -9.269013e-01  -5.674406e-01  0 
 0  0  0 

 -3.835768e-02  -4.239942e-01  0 
 -4.239942e-01  -9.636544e-01  0 
 0  0  0 

 -1.520515e-01  -1.077292e-01  0 
 -1.077292e-01  1.716087e+00  0 
 0  0  0 

 2.045642e-01  -3.478473e-01  0 
 -3.478473e-01  2.335649e-01  0 
 0  0  0 

 -2.263239e-01  -4.198000e-01  0 
 -4.198000e-01  3.189033e-01  0 
 0  0  0 

 -2.613044e-03  -8.530971e-04  0 
 -8.530971e-04  -8.418765e-03  0 
 0  0  0 

 -1.362175e-03  4.632742e-03  0 
 4.632742e-03  -1.795482e-03  0 
 0  0  0 

 -5.218334e-04  2.856596e-04  0 
 2.856596e-04  -9.082696e-03  0 
 0  0  0 

 1.241794e-03  1.069011e-03  0 
 1.069011e-03  -2.319381e-03  0 
 0  0  0 

 -1.151272e-03  3.844916e-03  0 
 3.844916e-03  -2.932798e-03  0 
 0  0  0 

 -2.811934e-04  -8.904814e-03  0 
 -8.904814e-03  8.783760e-05  0 
 0  0  0 

 1.361353e-03  -6.812896e-03  0 
 -6.812896e-03  -5.437412e-04  0 
 0  0  0 

 2.131694e-03  -2.712604e-03  0 
 -2.712604e-03  8.028429e-03  0 
 0  0  0 

 1.483541e-03  -6.690156e-03  0 
 -6.690156e-03  2.764304e-03  0 
 0  0  0 

 5.840578e-04  -3.377560e-03  0 
 -3.377560e-03  8.221419e-03  0 
 0  0  0 

 -4.789728e-04  -1.996744e-03  0 
 -1.996744e-03  2.301688e-03  0 
 0  0  0 

 -2.396829e-03  -6.861650e-03  0 
 -6.861650e-03  1.042653e-03  0 
 0  0  0 

 -2.346810e-03  -6.470693e-03  0 
 -6.470693e-03  -1.736396e-03  0 
 0  0  0 

 1.751529e-01  -6.685277e-01  0 
 -6.685277e-01  9.253009e-02  0 
 0  0  0 

 -1.268537e-02  -5.319052e-01  0 
 -5.319052e-01  6.941604e-03  0 
 0  0  0 

 -5.386694e-02  -4.654859e-01  0 
 -4.654859e-01  -1.402990e+00  0 
 0  0  0 

 -3.779111e-01  -9.033506e-01  0 
 -9.033506e-01  -3.369227e-01  0 
 0  0  0 

 -2.610176e-01  -3.165918e-01  0 
 -3.165918e-01  7.577752e-02  0 
 0  0  0 

 -1.470223e-01  -7.089709e-01  0 
 -7.089709e-01  -4.837225e-01  0 
 0  0  0 

 1.607998e-01  -2.520121e-01  0 
 -2.520121e-01  -4.559756e-01  0 
 0  0  0 

TENSORS element_stresses FLOAT
 -2.576466e-01  -9.269013e-01  0 
 -9.269013e-01  -5.674406e-01  0 
 0  0  0 

 -3.835768e-02  -4.239942e-01  0 
 -4.239942e-01  -9.636544e-01  0 
 0  0  0 

 -1.520515e-01  -1.077292e-01  0 
 -1.077292e-01  1.716087e+00  0 
 0  0  0 

 2.045642e-01  -3.478473e-01  0 
 -3.478473e-01  2.335649e-01  0 
 0  0  0 

 -2.263239e-01  -4.198000e-01  0 
 -4.198000e-01  3.189033e-01  0 
 0  0  0 

 -2.613044e-03  -8.530971e-04  0 
 -8.530971e-04  -8.418765e-03  0 
 0  0  0 

 -1.362175e-03  4.632742e-03  0 
 4.632742e-03  -1.795482e-03  0 
 0  0  0 

 -5.218334e-04  2.856596e-04  0 
 2.856596e-04  -9.082696e-03  0 
 0  0  0 

 1.241794e-03  1.069011e-03  0 
 1.069011e-03  -2.319381e-03  0 
 0  0  0 

 -1.151272e-03  3.844916e-03  0 
 3.844916e-03  -2.932798e-03  0 
 0  0  0 

 -2.811934e-04  -8.904814e-03  0 
 -8.904814e-03  8.783760e-05  0 
 0  0  0 

 1.361353e-03  -6.812896e-03  0 
 -6.812896e-03  -5.437412e-04  0 
 0  0  0 

 2.131694e-03  -2.712604e-03  0 
 -2.712604e-03  8.028429e-03  0 
 0  0  0 

 1.483541e-03  -6.690156e-03  0 
 -6.690156e-03  2.764304e-03  0 
 0  0  0 

 5.840578e-04  -3.377560e-03  0 
 -3.377560e-03  8.221419e-03  0 
 0  0  0 

 -4.789728e-04  -1.996744e-03  0 
 -1.996744e-03  2.301688e-03  0 
 0  0  0 

 -2.396829e-03  -6.861650e-03  0 
 -6.861650e-03  1.042653e-03  0 
 0  0  0 

 -2.346810e-03  -6.470693e-03  0 
 -6.470693e-03  -1.736396e-03  0 
 0  0  0 

 1.751529e-01  -6.685277e-01  0 
 -6.685277e-01  9.253009e-02  0 
 0  0  0 

 -1.268537e-02  -5.319052e-01  0 
 -5.319052e-01  6.941604e-03  0 
 0  0  0 

 -5.386694e-02  -4.654859e-01  0 
 -4.654859e-01  -1.402990e+00  0 
 0  0  0 

 -3.779111e-01  -9.033506e-01  0 
 -9.033506e-01  -3.369227e-01  0 
 0  0  0 

 -2.610176e-01  -3.165918e-01  0 
 -3.165918e-01  7.577752e-02  0 
 0  0  0 

 -1.470223e-01  -7.089709e-01  0 
 -7.089709e-01  -4.837225e-01  0 
 0  0  0 

 1.607998e-01  -2.520121e-01  0 
 -2.520121e-01  -4.559756e-01  0 
 0  0  0 

