# vtk DataFile Version 3.1
this is an vtk file created by FEMAC
ASCII
DATASET UNSTRUCTURED_GRID
POINTS 31 FLOAT
0.000000 0.000000 0.000000
1.000000 0.000000 0.000000
0.000000 1.000000 0.000000
1.000000 1.000000 0.000000
0.250000 0.000000 0.000000
0.500000 0.000000 0.000000
0.750000 0.000000 0.000000
0.250000 1.000000 0.000000
0.500000 1.000000 0.000000
0.750000 1.000000 0.000000
0.000000 0.250000 0.000000
0.000000 0.500000 0.000000
0.000000 0.750000 0.000000
1.000000 0.250000 0.000000
1.000000 0.500000 0.000000
1.000000 0.750000 0.000000
0.354092 0.524248 0.000000
0.804015 0.668485 0.000000
0.176539 0.642203 0.000000
0.279348 0.239607 0.000000
0.653111 0.819895 0.000000
0.376524 0.781795 0.000000
0.167416 0.439302 0.000000
0.576925 0.611220 0.000000
0.521903 0.318733 0.000000
0.757669 0.416286 0.000000
0.132337 0.122402 0.000000
0.841425 0.847676 0.000000
0.160613 0.834800 0.000000
0.734095 0.185003 0.000000
0.871024 0.108751 0.000000
CELLS 43 172 
3 17 14 15
3 11 18 12
3 5 19  4
3 16 24 23
3 17 25 14
3 25 17 23
3 7 21  8
3 10 22 11
3 20  9  8
3 20 23 17
3 23 24 25
3 19 22 10
3 20  8 21
3 16 21 18
3 16 23 21
3 20 21 23
3 11 22 18
3 16 22 19
3 22 16 18
3 19 24 16
3 24 19  5
3 4 26  0
3 10 26 19
3 26 10  0
3 26  4 19
3 9 27  3
3 15 27 17
3 27 15  3
3 28  7  2
3 28 12 18
3 12 28  2
3 28 21  7
3 18 21 28
3 20 27  9
3 20 17 27
3 6 29  5
3 29 24  5
3 30  6  1
3 13 30  1
3 6 30 29
3 29 25 24
3 25 29 13
3 30 13 29
CELL_TYPES 43
5 5 5 5 5 5 5 5 5 5 5 5 5 5 5 5 5 5 5 5 5 5 5 5 5 5 5 5 5 5 5 5 5 5 5 5 5 5 5 5 5 5 5 
POINT_DATA 31
VECTORS displacement_ITER1 FLOAT
 0  0  0 
 -2.712178e-04  -3.418371e-04  0 
 0  0  0 
 -5.200537e-07  -2.392493e-04  0 
 -8.488915e-05  -1.015732e-04  0 
 -1.473508e-04  -1.617170e-04  0 
 -2.043594e-04  -2.375235e-04  0 
 1.719885e-05  -2.564291e-05  0 
 2.363358e-05  -6.627035e-05  0 
 2.005551e-05  -1.379365e-04  0 
 0  0  0 
 0  0  0 
 0  0  0 
 -1.590668e-04  -2.781202e-04  0 
 -1.079390e-04  -2.267046e-04  0 
 -5.778314e-05  -2.264528e-04  0 
 -3.101401e-05  -4.737020e-05  0 
 -5.977733e-05  -1.645227e-04  0 
 -8.659248e-06  -1.123044e-05  0 
 -4.370184e-05  -5.106419e-05  0 
 -1.966351e-05  -1.111855e-04  0 
 -9.058995e-06  -4.045125e-05  0 
 -1.539367e-05  -1.734307e-05  0 
 -4.492156e-05  -9.918001e-05  0 
 -7.630572e-05  -1.089647e-04  0 
 -9.356092e-05  -1.680263e-04  0 
 -2.320830e-05  -2.667457e-05  0 
 -2.780172e-05  -1.762173e-04  0 
 -1.056927e-06  -7.847657e-06  0 
 -1.451209e-04  -1.932477e-04  0 
 -1.943391e-04  -2.554904e-04  0 
VECTORS displacement_ITER2 FLOAT
 0  0  0 
 -2.287716e-04  -3.157590e-04  0 
 0  0  0 
 -5.569151e-05  -2.340760e-04  0 
 -7.958264e-05  -1.003735e-04  0 
 -1.338865e-04  -1.605138e-04  0 
 -1.792015e-04  -2.282867e-04  0 
 1.231214e-05  -2.941782e-05  0 
 8.921786e-06  -7.278103e-05  0 
 -1.031328e-05  -1.413348e-04  0 
 0  0  0 
 0  0  0 
 0  0  0 
 -1.411696e-04  -2.648539e-04  0 
 -1.002005e-04  -2.153121e-04  0 
 -7.270332e-05  -2.168924e-04  0 
 -3.246249e-05  -5.883199e-05  0 
 -6.774357e-05  -1.717818e-04  0 
 -1.056350e-05  -1.848940e-05  0 
 -4.039356e-05  -5.710881e-05  0 
 -3.659433e-05  -1.239471e-04  0 
 -1.639152e-05  -5.193847e-05  0 
 -1.588233e-05  -2.367483e-05  0 
 -4.946388e-05  -1.125010e-04  0 
 -6.959629e-05  -1.165452e-04  0 
 -8.631953e-05  -1.724059e-04  0 
 -2.209371e-05  -2.843716e-05  0 
 -5.406860e-05  -1.845155e-04  0 
 -3.453741e-06  -1.230473e-05  0 
 -1.287969e-04  -1.932614e-04  0 
 -1.687443e-04  -2.460171e-04  0 
VECTORS displacement_ITER3 FLOAT
 0  0  0 
 -1.545030e-04  -2.584752e-04  0 
 0  0  0 
 -1.374583e-04  -2.290074e-04  0 
 -6.560194e-05  -8.982637e-05  0 
 -1.043651e-04  -1.447324e-04  0 
 -1.312054e-04  -1.974430e-04  0 
 6.478182e-06  -3.493162e-05  0 
 -9.013823e-06  -8.201926e-05  0 
 -4.874417e-05  -1.449577e-04  0 
 0  0  0 
 0  0  0 
 0  0  0 
 -1.061830e-04  -2.255050e-04  0 
 -7.074962e-05  -1.788755e-04  0 
 -7.351731e-05  -1.908413e-04  0 
 -3.160797e-05  -7.095080e-05  0 
 -6.700197e-05  -1.730818e-04  0 
 -1.258151e-05  -2.787597e-05  0 
 -3.191315e-05  -6.020514e-05  0 
 -5.592059e-05  -1.404026e-04  0 
 -2.511816e-05  -6.672048e-05  0 
 -1.529952e-05  -3.087512e-05  0 
 -5.031639e-05  -1.245616e-04  0 
 -5.311214e-05  -1.164271e-04  0 
 -6.589031e-05  -1.615536e-04  0 
 -1.858223e-05  -2.812316e-05  0 
 -8.475687e-05  -1.971713e-04  0 
 -6.333809e-06  -1.824064e-05  0 
 -9.529942e-05  -1.767454e-04  0 
 -1.206147e-04  -2.141672e-04  0 
VECTORS displacement_ITER4 FLOAT
 0  0  0 
 -9.855290e-05  -1.649713e-04  0 
 0  0  0 
 -3.165411e-04  -6.840393e-05  0 
 -4.093923e-05  -5.903530e-05  0 
 -6.262190e-05  -9.313347e-05  0 
 -8.222056e-05  -1.258704e-04  0 
 -2.658609e-05  -8.919751e-07  0 
 -8.165614e-05  -1.797792e-05  0 
 -1.700327e-04  -3.233048e-05  0 
 0  0  0 
 0  0  0 
 0  0  0 
 -6.759837e-05  -1.442300e-04  0 
 -5.044105e-05  -4.916374e-05  0 
 -1.184273e-04  -2.931835e-05  0 
 -3.145224e-05  -5.977135e-05  0 
 -8.645824e-05  -8.814672e-05  0 
 -1.726344e-05  -2.929940e-05  0 
 -1.865253e-05  -4.448744e-05  0 
 -1.139358e-04  -8.275237e-05  0 
 -4.882101e-05  -5.142450e-05  0 
 -1.438489e-05  -2.924282e-05  0 
 -5.695230e-05  -9.078733e-05  0 
 -3.071054e-05  -7.687009e-05  0 
 -3.789003e-05  -9.213912e-05  0 
 -1.177181e-05  -1.969500e-05  0 
 -1.730734e-04  -9.663071e-05  0 
 -1.449372e-05  -1.297135e-05  0 
 -5.754480e-05  -1.094248e-04  0 
 -7.622957e-05  -1.363041e-04  0 
VECTORS displacement_ITER5 FLOAT
 0  0  0 
 -3.922345e-05  -6.547864e-05  0 
 0  0  0 
 -5.247734e-04  1.267443e-04  0 
 -1.791106e-05  -3.447671e-05  0 
 -2.112058e-05  -4.910572e-05  0 
 -2.792751e-05  -5.260183e-05  0 
 -5.894221e-05  2.302759e-05  0 
 -1.495144e-04  2.181798e-05  0 
 -2.902279e-04  6.334394e-05  0 
 0  0  0 
 0  0  0 
 0  0  0 
 -3.088373e-05  -4.610084e-05  0 
 -4.645096e-05  7.417303e-05  0 
 -1.626921e-04  1.188279e-04  0 
 -3.466189e-05  -5.410568e-05  0 
 -1.105840e-04  -1.228757e-05  0 
 -2.383923e-05  -3.402641e-05  0 
 -8.894443e-06  -3.592763e-05  0 
 -1.698667e-04  -3.939287e-05  0 
 -7.564159e-05  -4.402076e-05  0 
 -1.479518e-05  -3.072224e-05  0 
 -6.916451e-05  -6.308228e-05  0 
 -1.553058e-05  -4.726337e-05  0 
 -2.448897e-05  -3.303404e-05  0 
 -6.281515e-06  -1.500721e-05  0 
 -2.571987e-04  -9.985260e-06  0 
 -2.438915e-05  -1.145109e-05  0 
 -2.183988e-05  -4.667737e-05  0 
 -2.850060e-05  -5.246773e-05  0 
VECTORS displacement_ITER6 FLOAT
 0  0  0 
 -1.341615e-05  -3.358747e-05  0 
 0  0  0 
 -5.280264e-04  1.157880e-04  0 
 -1.149480e-05  -2.978498e-05  0 
 -8.146732e-06  -4.001986e-05  0 
 -6.204169e-06  -3.111855e-05  0 
 -5.565862e-05  2.440878e-05  0 
 -1.408948e-04  1.867441e-05  0 
 -2.805265e-04  5.246162e-05  0 
 0  0  0 
 0  0  0 
 0  0  0 
 -1.659748e-05  -1.193361e-05  0 
 -4.566279e-05  6.033269e-05  0 
 -1.558780e-04  1.045294e-04  0 
 -3.517003e-05  -5.419588e-05  0 
 -1.068715e-04  -1.849745e-05  0 
 -2.358760e-05  -3.326812e-05  0 
 -7.350346e-06  -3.644904e-05  0 
 -1.663268e-04  -4.582865e-05  0 
 -7.507256e-05  -4.241568e-05  0 
 -1.470895e-05  -3.123916e-05  0 
 -7.032913e-05  -6.286678e-05  0 
 -1.327214e-05  -4.503009e-05  0 
 -2.384021e-05  -2.655994e-05  0 
 -5.121560e-06  -1.523741e-05  0 
 -2.519666e-04  -2.425294e-05  0 
 -2.370362e-05  -9.835473e-06  0 
 -9.729708e-06  -3.329267e-05  0 
 -8.570067e-06  -2.698329e-05  0 
VECTORS displacement_ITER7 FLOAT
 0  0  0 
 -5.913593e-07  -1.301708e-05  0 
 0  0  0 
 -5.320879e-04  1.026842e-04  0 
 -1.052277e-05  -3.052649e-05  0 
 -5.289690e-06  -4.056708e-05  0 
 1.209168e-06  -2.480626e-05  0 
 -5.545885e-05  2.432556e-05  0 
 -1.381462e-04  1.848002e-05  0 
 -2.755129e-04  4.706123e-05  0 
 0  0  0 
 0  0  0 
 0  0  0 
 -1.660175e-05  2.271727e-06  0 
 -5.132147e-05  4.095198e-05  0 
 -1.541524e-04  9.342057e-05  0 
 -3.637481e-05  -5.456484e-05  0 
 -1.063306e-04  -2.506594e-05  0 
 -2.372324e-05  -3.294688e-05  0 
 -8.102878e-06  -3.841361e-05  0 
 -1.658569e-04  -4.951209e-05  0 
 -7.517230e-05  -4.151985e-05  0 
 -1.502398e-05  -3.173514e-05  0 
 -7.232353e-05  -6.369888e-05  0 
 -1.551258e-05  -4.665848e-05  0 
 -2.843523e-05  -2.757737e-05  0 
 -5.234200e-06  -1.633659e-05  0 
 -2.517636e-04  -3.504331e-05  0 
 -2.381102e-05  -9.581136e-06  0 
 -8.825186e-06  -3.107964e-05  0 
 -3.419761e-06  -1.701462e-05  0 
VECTORS displacement_ITER8 FLOAT
 0  0  0 
 9.261673e-06  1.875960e-06  0 
 0  0  0 
 -5.417435e-04  9.852914e-05  0 
 -9.223063e-06  -3.066809e-05  0 
 -2.007765e-06  -3.990043e-05  0 
 7.954905e-06  -1.839090e-05  0 
 -5.663171e-05  2.630767e-05  0 
 -1.402236e-04  1.970585e-05  0 
 -2.792047e-04  4.637703e-05  0 
 0  0  0 
 0  0  0 
 0  0  0 
 -1.517146e-05  1.504395e-05  0 
 -5.703503e-05  3.444506e-05  0 
 -1.568918e-04  9.023452e-05  0 
 -3.800643e-05  -5.526235e-05  0 
 -1.092692e-04  -2.652881e-05  0 
 -2.441547e-05  -3.312130e-05  0 
 -8.518615e-06  -4.004368e-05  0 
 -1.694194e-04  -5.061560e-05  0 
 -7.737685e-05  -4.080292e-05  0 
 -1.552969e-05  -3.251176e-05  0 
 -7.569367e-05  -6.360102e-05  0 
 -1.695174e-05  -4.751711e-05  0 
 -3.241892e-05  -2.620562e-05  0 
 -5.227496e-06  -1.720608e-05  0 
 -2.564661e-04  -3.889340e-05  0 
 -2.444364e-05  -8.940843e-06  0 
 -6.980500e-06  -2.782939e-05  0 
 1.770889e-06  -8.067463e-06  0 
VECTORS displacement_ITER9 FLOAT
 0  0  0 
 1.168835e-06  -1.646469e-05  0 
 0  0  0 
 -5.426778e-04  7.100130e-05  0 
 -1.331064e-05  -3.581222e-05  0 
 -8.607465e-06  -4.910923e-05  0 
 -5.714304e-07  -3.328578e-05  0 
 -5.413880e-05  2.188221e-05  0 
 -1.372099e-04  1.248058e-05  0 
 -2.776909e-04  3.380888e-05  0 
 0  0  0 
 0  0  0 
 0  0  0 
 -2.008275e-05  -5.633401e-06  0 
 -5.455335e-05  2.805535e-05  0 
 -1.570870e-04  7.617475e-05  0 
 -3.884796e-05  -6.053139e-05  0 
 -1.108519e-04  -3.981552e-05  0 
 -2.460560e-05  -3.517885e-05  0 
 -9.661143e-06  -4.336258e-05  0 
 -1.706039e-04  -6.210651e-05  0 
 -7.708312e-05  -4.659368e-05  0 
 -1.610552e-05  -3.455798e-05  0 
 -7.637347e-05  -7.401244e-05  0 
 -1.820064e-05  -5.502162e-05  0 
 -3.184033e-05  -3.839897e-05  0 
 -6.179537e-06  -1.853734e-05  0 
 -2.592145e-04  -5.547045e-05  0 
 -2.413966e-05  -1.070497e-05  0 
 -1.184421e-05  -4.084224e-05  0 
 -5.332034e-06  -2.515530e-05  0 
VECTORS displacement_ITER10 FLOAT
 0  0  0 
 -9.752513e-06  -4.255803e-05  0 
 0  0  0 
 -5.242459e-04  3.311304e-06  0 
 -1.955751e-05  -4.484912e-05  0 
 -1.809246e-05  -6.415075e-05  0 
 -1.122118e-05  -5.414983e-05  0 
 -4.733485e-05  1.475782e-05  0 
 -1.257446e-04  -3.509991e-06  0 
 -2.616476e-04  3.047883e-06  0 
 0  0  0 
 0  0  0 
 0  0  0 
 -2.521208e-05  -3.287554e-05  0 
 -5.591178e-05  -2.315010e-06  0 
 -1.509915e-04  3.599156e-05  0 
 -4.062756e-05  -6.865516e-05  0 
 -1.105926e-04  -6.820259e-05  0 
 -2.464237e-05  -3.755234e-05  0 
 -1.254422e-05  -4.989512e-05  0 
 -1.668936e-04  -8.463172e-05  0 
 -7.521702e-05  -5.505136e-05  0 
 -1.712830e-05  -3.764646e-05  0 
 -7.798325e-05  -9.068973e-05  0 
 -2.242339e-05  -6.878242e-05  0 
 -3.582130e-05  -5.969987e-05  0 
 -7.945247e-06  -2.149708e-05  0 
 -2.545522e-04  -9.322627e-05  0 
 -2.292956e-05  -1.262398e-05  0 
 -1.902139e-05  -6.081830e-05  0 
 -1.405677e-05  -4.849355e-05  0 
VECTORS displacement_ITER11 FLOAT
 0  0  0 
 -2.113839e-05  -6.916933e-05  0 
 0  0  0 
 -4.837427e-04  -8.443000e-05  0 
 -2.649136e-05  -5.510105e-05  0 
 -2.855490e-05  -8.106669e-05  0 
 -2.190141e-05  -7.598880e-05  0 
 -3.693558e-05  4.684786e-06  0 
 -1.066007e-04  -2.415080e-05  0 
 -2.323831e-04  -3.820108e-05  0 
 0  0  0 
 0  0  0 
 0  0  0 
 -3.117941e-05  -5.871385e-05  0 
 -5.719752e-05  -4.701614e-05  0 
 -1.386600e-04  -1.902308e-05  0 
 -4.204549e-05  -7.686218e-05  0 
 -1.064243e-04  -1.040602e-04  0 
 -2.402119e-05  -3.930900e-05  0 
 -1.617535e-05  -5.723256e-05  0 
 -1.565866e-04  -1.118652e-04  0 
 -7.048447e-05  -6.406403e-05  0 
 -1.801954e-05  -4.050829e-05  0 
 -7.817072e-05  -1.091572e-04  0 
 -2.801773e-05  -8.448217e-05  0 
 -4.157189e-05  -8.506139e-05  0 
 -9.992886e-06  -2.496209e-05  0 
 -2.400959e-04  -1.401380e-04  0 
 -2.072884e-05  -1.471064e-05  0 
 -2.721494e-05  -8.293654e-05  0 
 -2.297906e-05  -7.218980e-05  0 
VECTORS displacement_ITER12 FLOAT
 0  0  0 
 -2.294325e-05  -7.273597e-05  0 
 0  0  0 
 -4.844331e-04  -8.183771e-05  0 
 -2.658003e-05  -5.488358e-05  0 
 -2.890990e-05  -8.080896e-05  0 
 -2.320695e-05  -7.725728e-05  0 
 -3.718432e-05  4.805232e-06  0 
 -1.071399e-04  -2.356801e-05  0 
 -2.331726e-04  -3.684041e-05  0 
 0  0  0 
 0  0  0 
 0  0  0 
 -3.004997e-05  -6.324134e-05  0 
 -5.569099e-05  -4.332198e-05  0 
 -1.388932e-04  -1.668950e-05  0 
 -4.180997e-05  -7.674213e-05  0 
 -1.064646e-04  -1.029434e-04  0 
 -2.396064e-05  -3.932769e-05  0 
 -1.601245e-05  -5.685606e-05  0 
 -1.568007e-04  -1.110060e-04  0 
 -7.047066e-05  -6.396865e-05  0 
 -1.794974e-05  -4.039940e-05  0 
 -7.788339e-05  -1.088376e-04  0 
 -2.755261e-05  -8.417542e-05  0 
 -4.085907e-05  -8.464167e-05  0 
 -9.954395e-06  -2.475313e-05  0 
 -2.404712e-04  -1.384574e-04  0 
 -2.074440e-05  -1.474958e-05  0 
 -2.712290e-05  -8.321715e-05  0 
 -2.372961e-05  -7.440208e-05  0 
VECTORS displacement_ITER13 FLOAT
 0  0  0 
 -2.284807e-05  -7.255201e-05  0 
 0  0  0 
 -4.842917e-04  -8.193456e-05  0 
 -2.656081e-05  -5.487638e-05  0 
 -2.886908e-05  -8.078407e-05  0 
 -2.312472e-05  -7.715459e-05  0 
 -3.714614e-05  4.781947e-06  0 
 -1.070587e-04  -2.363982e-05  0 
 -2.330747e-04  -3.691339e-05  0 
 0  0  0 
 0  0  0 
 0  0  0 
 -3.003520e-05  -6.303677e-05  0 
 -5.540669e-05  -4.324179e-05  0 
 -1.388087e-04  -1.672825e-05  0 
 -4.181193e-05  -7.672826e-05  0 
 -1.063720e-04  -1.030532e-04  0 
 -2.395862e-05  -3.931694e-05  0 
 -1.602008e-05  -5.686277e-05  0 
 -1.567141e-04  -1.110756e-04  0 
 -7.044955e-05  -6.396738e-05  0 
 -1.794908e-05  -4.039423e-05  0 
 -7.787613e-05  -1.088233e-04  0 
 -2.757481e-05  -8.416959e-05  0 
 -4.091296e-05  -8.461273e-05  0 
 -9.953703e-06  -2.475972e-05  0 
 -2.403858e-04  -1.385241e-04  0 
 -2.073657e-05  -1.474536e-05  0 
 -2.710245e-05  -8.315598e-05  0 
 -2.366815e-05  -7.426338e-05  0 
VECTORS displacement_ITER14 FLOAT
 0  0  0 
 -2.283220e-05  -7.252130e-05  0 
 0  0  0 
 -4.842386e-04  -8.202300e-05  0 
 -2.656390e-05  -5.488428e-05  0 
 -2.887160e-05  -8.079676e-05  0 
 -2.311550e-05  -7.715163e-05  0 
 -3.713571e-05  4.774150e-06  0 
 -1.070370e-04  -2.365786e-05  0 
 -2.330380e-04  -3.695460e-05  0 
 0  0  0 
 0  0  0 
 0  0  0 
 -3.005668e-05  -6.299248e-05  0 
 -5.543620e-05  -4.332310e-05  0 
 -1.387952e-04  -1.679412e-05  0 
 -4.181435e-05  -7.673251e-05  0 
 -1.063677e-04  -1.030840e-04  0 
 -2.395812e-05  -3.931653e-05  0 
 -1.602382e-05  -5.687023e-05  0 
 -1.567009e-04  -1.110979e-04  0 
 -7.044436e-05  -6.397197e-05  0 
 -1.794992e-05  -4.039609e-05  0 
 -7.787719e-05  -1.088358e-04  0 
 -2.758319e-05  -8.418079e-05  0 
 -4.092293e-05  -8.463299e-05  0 
 -9.955222e-06  -2.476365e-05  0 
 -2.403644e-04  -1.385695e-04  0 
 -2.073433e-05  -1.474577e-05  0 
 -2.710944e-05  -8.316564e-05  0 
 -2.366521e-05  -7.424923e-05  0 
CELL_DATA 43
TENSORS element_stresses FLOAT
 5.560388e-03  4.824358e-02  0 
 4.824358e-02  1.077841e-01  0 
 0  0  0 

 -1.491317e-01  -1.713131e-01  0 
 -1.713131e-01  -4.473952e-02  0 
 0  0  0 

 -8.690827e-03  -4.502321e-02  0 
 -4.502321e-02  1.799935e-03  0 
 0  0  0 

 -1.326901e-01  -2.097688e-01  0 
 -2.097688e-01  -1.015313e-01  0 
 0  0  0 

 -1.869011e-03  -4.332642e-02  0 
 -4.332642e-02  -1.121313e-01  0 
 0  0  0 

 -9.606296e-02  -1.554047e-01  0 
 -1.554047e-01  -1.104154e-01  0 
 0  0  0 

 -2.251345e-01  -9.477378e-02  0 
 -9.477378e-02  1.815684e-01  0 
 0  0  0 

 -1.178216e-01  -1.856094e-01  0 
 -1.856094e-01  -3.534648e-02  0 
 0  0  0 

 -4.087033e-01  -1.583869e-01  0 
 -1.583869e-01  3.176689e-01  0 
 0  0  0 

 -4.385307e-02  -2.574455e-01  0 
 -2.574455e-01  -3.528023e-02  0 
 0  0  0 

 -1.264497e-02  -1.070634e-01  0 
 -1.070634e-01  -9.481209e-02  0 
 0  0  0 

 -7.542430e-02  -1.903621e-01  0 
 -1.903621e-01  -5.491529e-02  0 
 0  0  0 

 -2.436145e-01  -1.560563e-01  0 
 -1.560563e-01  2.318539e-01  0 
 0  0  0 

 -1.600248e-01  -2.037641e-01  0 
 -2.037641e-01  1.617919e-02  0 
 0  0  0 

 -1.135549e-01  -2.074166e-01  0 
 -2.074166e-01  3.021313e-02  0 
 0  0  0 

 -2.828134e-01  -3.505250e-01  0 
 -3.505250e-01  -3.075823e-02  0 
 0  0  0 

 -1.222947e-01  -1.999355e-01  0 
 -1.999355e-01  -2.077726e-02  0 
 0  0  0 

 -1.150785e-01  -1.921387e-01  0 
 -1.921387e-01  -5.572384e-02  0 
 0  0  0 

 -1.235633e-01  -1.734987e-01  0 
 -1.734987e-01  -2.270183e-02  0 
 0  0  0 

 -3.625141e-02  -1.412749e-01  0 
 -1.412749e-01  -5.485647e-02  0 
 0  0  0 

 -5.602453e-02  -8.011515e-02  0 
 -8.011515e-02  -1.975323e-02  0 
 0  0  0 

 -1.052120e-01  -1.430686e-01  0 
 -1.430686e-01  3.478817e-03  0 
 0  0  0 

 -6.809911e-02  -1.422850e-01  0 
 -1.422850e-01  -3.818222e-02  0 
 0  0  0 

 -8.266623e-02  -1.439428e-01  0 
 -1.439428e-01  -2.479987e-02  0 
 0  0  0 

 -8.623618e-02  -1.387340e-01  0 
 -1.387340e-01  -5.411163e-03  0 
 0  0  0 

 -9.199270e-01  -5.655859e-01  0 
 -5.655859e-01  2.829183e-01  0 
 0  0  0 

 7.049373e-02  -1.605467e-01  0 
 -1.605467e-01  -2.963747e-01  0 
 0  0  0 

 -3.174524e-01  -5.958078e-01  0 
 -5.958078e-01  -3.561513e-01  0 
 0  0  0 

 -1.276868e-01  1.454338e-04  0 
 1.454338e-04  6.952010e-02  0 
 0  0  0 

 -1.073331e-01  -1.128450e-01  0 
 -1.128450e-01  8.276466e-02  0 
 0  0  0 

 -1.418629e-01  -7.062272e-02  0 
 -7.062272e-02  -4.255887e-02  0 
 0  0  0 

 -1.766939e-01  -1.179424e-01  0 
 -1.179424e-01  1.601939e-01  0 
 0  0  0 

 -2.170520e-01  -1.562285e-01  0 
 -1.562285e-01  4.585976e-02  0 
 0  0  0 

 -2.801514e-01  -3.270800e-01  0 
 -3.270800e-01  4.483521e-01  0 
 0  0  0 

 -4.356519e-01  -6.124804e-01  0 
 -6.124804e-01  -3.035964e-01  0 
 0  0  0 

 1.499801e-02  -3.868117e-03  0 
 -3.868117e-03  -2.675472e-02  0 
 0  0  0 

 1.576196e-03  1.461149e-03  0 
 1.461149e-03  -1.001866e-02  0 
 0  0  0 

 3.248665e-03  9.388811e-03  0 
 9.388811e-03  7.051588e-03  0 
 0  0  0 

 -7.113283e-03  1.279815e-02  0 
 1.279815e-02  3.598129e-02  0 
 0  0  0 

 5.838285e-03  2.228896e-02  0 
 2.228896e-02  -2.651105e-02  0 
 0  0  0 

 -3.867772e-02  -4.276622e-02  0 
 -4.276622e-02  -1.802297e-02  0 
 0  0  0 

 -7.977543e-04  1.484773e-02  0 
 1.484773e-02  -1.467609e-02  0 
 0  0  0 

 4.389434e-03  2.104989e-02  0 
 2.104989e-02  1.473090e-02  0 
 0  0  0 

TENSORS element_stresses FLOAT
 5.560388e-03  4.824358e-02  0 
 4.824358e-02  1.077841e-01  0 
 0  0  0 

 -1.491317e-01  -1.713131e-01  0 
 -1.713131e-01  -4.473952e-02  0 
 0  0  0 

 -8.690827e-03  -4.502321e-02  0 
 -4.502321e-02  1.799935e-03  0 
 0  0  0 

 -1.326901e-01  -2.097688e-01  0 
 -2.097688e-01  -1.015313e-01  0 
 0  0  0 

 -1.869011e-03  -4.332642e-02  0 
 -4.332642e-02  -1.121313e-01  0 
 0  0  0 

 -9.606296e-02  -1.554047e-01  0 
 -1.554047e-01  -1.104154e-01  0 
 0  0  0 

 -2.251345e-01  -9.477378e-02  0 
 -9.477378e-02  1.815684e-01  0 
 0  0  0 

 -1.178216e-01  -1.856094e-01  0 
 -1.856094e-01  -3.534648e-02  0 
 0  0  0 

 -4.087033e-01  -1.583869e-01  0 
 -1.583869e-01  3.176689e-01  0 
 0  0  0 

 -4.385307e-02  -2.574455e-01  0 
 -2.574455e-01  -3.528023e-02  0 
 0  0  0 

 -1.264497e-02  -1.070634e-01  0 
 -1.070634e-01  -9.481209e-02  0 
 0  0  0 

 -7.542430e-02  -1.903621e-01  0 
 -1.903621e-01  -5.491529e-02  0 
 0  0  0 

 -2.436145e-01  -1.560563e-01  0 
 -1.560563e-01  2.318539e-01  0 
 0  0  0 

 -1.600248e-01  -2.037641e-01  0 
 -2.037641e-01  1.617919e-02  0 
 0  0  0 

 -1.135549e-01  -2.074166e-01  0 
 -2.074166e-01  3.021313e-02  0 
 0  0  0 

 -2.828134e-01  -3.505250e-01  0 
 -3.505250e-01  -3.075823e-02  0 
 0  0  0 

 -1.222947e-01  -1.999355e-01  0 
 -1.999355e-01  -2.077726e-02  0 
 0  0  0 

 -1.150785e-01  -1.921387e-01  0 
 -1.921387e-01  -5.572384e-02  0 
 0  0  0 

 -1.235633e-01  -1.734987e-01  0 
 -1.734987e-01  -2.270183e-02  0 
 0  0  0 

 -3.625141e-02  -1.412749e-01  0 
 -1.412749e-01  -5.485647e-02  0 
 0  0  0 

 -5.602453e-02  -8.011515e-02  0 
 -8.011515e-02  -1.975323e-02  0 
 0  0  0 

 -1.052120e-01  -1.430686e-01  0 
 -1.430686e-01  3.478817e-03  0 
 0  0  0 

 -6.809911e-02  -1.422850e-01  0 
 -1.422850e-01  -3.818222e-02  0 
 0  0  0 

 -8.266623e-02  -1.439428e-01  0 
 -1.439428e-01  -2.479987e-02  0 
 0  0  0 

 -8.623618e-02  -1.387340e-01  0 
 -1.387340e-01  -5.411163e-03  0 
 0  0  0 

 -9.199270e-01  -5.655859e-01  0 
 -5.655859e-01  2.829183e-01  0 
 0  0  0 

 7.049373e-02  -1.605467e-01  0 
 -1.605467e-01  -2.963747e-01  0 
 0  0  0 

 -3.174524e-01  -5.958078e-01  0 
 -5.958078e-01  -3.561513e-01  0 
 0  0  0 

 -1.276868e-01  1.454338e-04  0 
 1.454338e-04  6.952010e-02  0 
 0  0  0 

 -1.073331e-01  -1.128450e-01  0 
 -1.128450e-01  8.276466e-02  0 
 0  0  0 

 -1.418629e-01  -7.062272e-02  0 
 -7.062272e-02  -4.255887e-02  0 
 0  0  0 

 -1.766939e-01  -1.179424e-01  0 
 -1.179424e-01  1.601939e-01  0 
 0  0  0 

 -2.170520e-01  -1.562285e-01  0 
 -1.562285e-01  4.585976e-02  0 
 0  0  0 

 -2.801514e-01  -3.270800e-01  0 
 -3.270800e-01  4.483521e-01  0 
 0  0  0 

 -4.356519e-01  -6.124804e-01  0 
 -6.124804e-01  -3.035964e-01  0 
 0  0  0 

 1.499801e-02  -3.868117e-03  0 
 -3.868117e-03  -2.675472e-02  0 
 0  0  0 

 1.576196e-03  1.461149e-03  0 
 1.461149e-03  -1.001866e-02  0 
 0  0  0 

 3.248665e-03  9.388811e-03  0 
 9.388811e-03  7.051588e-03  0 
 0  0  0 

 -7.113283e-03  1.279815e-02  0 
 1.279815e-02  3.598129e-02  0 
 0  0  0 

 5.838285e-03  2.228896e-02  0 
 2.228896e-02  -2.651105e-02  0 
 0  0  0 

 -3.867772e-02  -4.276622e-02  0 
 -4.276622e-02  -1.802297e-02  0 
 0  0  0 

 -7.977543e-04  1.484773e-02  0 
 1.484773e-02  -1.467609e-02  0 
 0  0  0 

 4.389434e-03  2.104989e-02  0 
 2.104989e-02  1.473090e-02  0 
 0  0  0 

