# vtk DataFile Version 3.1
this is an vtk file created by FEMAC
ASCII
DATASET UNSTRUCTURED_GRID
POINTS 31 FLOAT
4.000000 5.000000 0.000000
5.000000 5.000000 0.000000
3.500000 5.000000 0.000000
3.750000 5.000000 0.000000
4.000000 4.500000 0.000000
4.000000 4.750000 0.000000
4.000000 5.250000 0.000000
4.000000 5.500000 0.000000
4.250000 5.000000 0.000000
4.500000 5.000000 0.000000
4.750000 5.000000 0.000000
3.779581 4.617843 0.000000
3.755447 4.375936 0.000000
3.782363 4.813195 0.000000
3.612492 4.786998 0.000000
3.512466 4.547863 0.000000
3.371004 4.799680 0.000000
3.745000 5.195000 0.000000
3.830433 5.378219 0.000000
3.757141 5.565925 0.000000
3.586659 5.323754 0.000000
4.178356 4.674167 0.000000
4.225000 4.500000 0.000000
4.341416 4.828194 0.000000
4.581646 4.808128 0.000000
4.401594 4.630720 0.000000
4.661856 4.507893 0.000000
4.832250 4.761003 0.000000
4.153954 4.850472 0.000000
4.195000 5.255000 0.000000
4.384000 5.201000 0.000000
CELLS 43 172 
3 5 11  4
3 3 13  0
3 13  5  0
3 13 11  5
3 14  3  2
3 13  3 14
3 11 12  4
3 11 15 12
3 11 13 14
3 11 14 15
3 16 15 14
3 14  2 16
3 17  2  3
3 18  6  7
3 18 20 17
3 18 17  6
3 20  2 17
3 0 17  3
3 0  6 17
3 18  7 19
3 18 19 20
3 4 21  5
3 22 21  4
3 25 21 22
3 8 23  9
3 24 10  9
3 25 23 21
3 10 27  1
3 5 28  0
3 28  8  0
3 28  5 21
3 24 27 10
3 28 23  8
3 21 23 28
3 9 23 24
3 24 23 25
3 25 26 24
3 24 26 27
3 29  7  6
3 30  8  9
3 30 29  8
3 0 29  6
3 0  8 29
CELL_TYPES 43
5 5 5 5 5 5 5 5 5 5 5 5 5 5 5 5 5 5 5 5 5 5 5 5 5 5 5 5 5 5 5 5 5 5 5 5 5 5 5 5 5 5 5 
POINT_DATA 31
VECTORS displacement_ITER1 FLOAT
 1.225184e-01  -2.519105e-01  0 
 1.226598e-01  -3.079899e-01  0 
 1.224297e-01  -2.338666e-01  0 
 1.224666e-01  -2.428877e-01  0 
 9.464847e-02  -2.519054e-01  0 
 1.086003e-01  -2.519058e-01  0 
 1.314579e-01  -2.518905e-01  0 
 1.404199e-01  -2.518815e-01  0 
 1.225736e-01  -2.658902e-01  0 
 1.226138e-01  -2.798928e-01  0 
 1.226415e-01  -2.939229e-01  0 
 9.975315e-02  -2.349772e-01  0 
 9.092367e-02  -2.267460e-01  0 
 1.103769e-01  -2.405529e-01  0 
 1.049448e-01  -2.295499e-01  0 
 8.786070e-02  -2.081880e-01  0 
 9.300286e-02  -2.053448e-01  0 
 1.294888e-01  -2.427440e-01  0 
 1.360562e-01  -2.458024e-01  0 
 1.427763e-01  -2.431742e-01  0 
 1.341067e-01  -2.370561e-01  0 
 1.043648e-01  -2.618622e-01  0 
 9.463736e-02  -2.644776e-01  0 
 1.129742e-01  -2.709859e-01  0 
 1.118636e-01  -2.844559e-01  0 
 1.019296e-01  -2.743553e-01  0 
 9.504453e-02  -2.889623e-01  0 
 1.092230e-01  -2.985262e-01  0 
 1.142046e-01  -2.604964e-01  0 
 1.327633e-01  -2.623738e-01  0 
 1.313581e-01  -2.736758e-01  0 
VECTORS displacement_ITER2 FLOAT
 1.079143e-01  -1.852776e-01  0 
 1.081077e-01  -2.404786e-01  0 
 1.078113e-01  -1.643310e-01  0 
 1.078544e-01  -1.748008e-01  0 
 8.055855e-02  -1.852756e-01  0 
 9.425283e-02  -1.852683e-01  0 
 1.183034e-01  -1.852677e-01  0 
 1.287375e-01  -1.852714e-01  0 
 1.079892e-01  -1.990154e-01  0 
 1.080462e-01  -2.127893e-01  0 
 1.080847e-01  -2.266058e-01  0 
 8.819214e-02  -1.728704e-01  0 
 9.227424e-02  -1.766551e-01  0 
 9.662577e-02  -1.751542e-01  0 
 9.315002e-02  -1.669913e-01  0 
 8.751664e-02  -1.628216e-01  0 
 8.874712e-02  -1.547338e-01  0 
 1.160074e-01  -1.746303e-01  0 
 1.236520e-01  -1.781899e-01  0 
 1.314864e-01  -1.751250e-01  0 
 1.213802e-01  -1.680075e-01  0 
 9.009060e-02  -1.950457e-01  0 
 8.053536e-02  -1.976219e-01  0 
 9.855370e-02  -2.040163e-01  0 
 9.746457e-02  -2.172749e-01  0 
 8.769071e-02  -2.073303e-01  0 
 8.090443e-02  -2.217203e-01  0 
 9.486094e-02  -2.311377e-01  0 
 9.975793e-02  -1.937048e-01  0 
 1.200405e-01  -1.965014e-01  0 
 1.189287e-01  -2.082922e-01  0 
VECTORS displacement_ITER3 FLOAT
 7.773993e-02  -1.211268e-01  0 
 7.800719e-02  -1.654039e-01  0 
 7.760882e-02  -1.010332e-01  0 
 7.766416e-02  -1.110739e-01  0 
 5.593356e-02  -1.211145e-01  0 
 6.685951e-02  -1.211066e-01  0 
 8.769384e-02  -1.211320e-01  0 
 9.772414e-02  -1.211554e-01  0 
 7.784408e-02  -1.321045e-01  0 
 7.792353e-02  -1.431347e-01  0 
 7.797703e-02  -1.542284e-01  0 
 6.358049e-02  -1.143279e-01  0 
 7.744860e-02  -1.254306e-01  0 
 6.890810e-02  -1.138259e-01  0 
 6.738732e-02  -1.096553e-01  0 
 7.058120e-02  -1.196361e-01  0 
 6.979701e-02  -1.101305e-01  0 
 8.548144e-02  -1.109195e-01  0 
 9.282851e-02  -1.143409e-01  0 
 1.003724e-01  -1.113890e-01  0 
 9.064126e-02  -1.045490e-01  0 
 6.353477e-02  -1.289097e-01  0 
 5.590220e-02  -1.309763e-01  0 
 7.030287e-02  -1.360879e-01  0 
 6.943891e-02  -1.467212e-01  0 
 6.160832e-02  -1.387411e-01  0 
 5.615499e-02  -1.503001e-01  0 
 6.734632e-02  -1.578632e-01  0 
 7.125416e-02  -1.278398e-01  0 
 9.003100e-02  -1.314509e-01  0 
 8.987211e-02  -1.420605e-01  0 
VECTORS displacement_ITER4 FLOAT
 6.344139e-02  -1.024729e-01  0 
 6.375094e-02  -1.330180e-01  0 
 6.329040e-02  -8.661566e-02  0 
 6.335473e-02  -9.453747e-02  0 
 4.854040e-02  -1.024428e-01  0 
 5.602164e-02  -1.024416e-01  0 
 7.127124e-02  -1.024894e-01  0 
 7.919527e-02  -1.025257e-01  0 
 6.356285e-02  -1.099993e-01  0 
 6.365437e-02  -1.175876e-01  0 
 6.371649e-02  -1.252548e-01  0 
 5.407616e-02  -9.918369e-02  0 
 6.965457e-02  -1.097986e-01  0 
 5.710031e-02  -9.795246e-02  0 
 5.635793e-02  -9.654519e-02  0 
 6.167171e-02  -1.100920e-01  0 
 6.077200e-02  -1.029760e-01  0 
 6.951782e-02  -9.443203e-02  0 
 7.532129e-02  -9.713545e-02  0 
 8.129135e-02  -9.479976e-02  0 
 7.358965e-02  -8.939409e-02  0 
 5.374352e-02  -1.077837e-01  0 
 4.850948e-02  -1.092085e-01  0 
 5.839111e-02  -1.127173e-01  0 
 5.780557e-02  -1.200509e-01  0 
 5.241418e-02  -1.145430e-01  0 
 4.864311e-02  -1.225336e-01  0 
 5.635875e-02  -1.277625e-01  0 
 5.903100e-02  -1.070516e-01  0 
 7.393101e-02  -1.106426e-01  0 
 7.467863e-02  -1.191140e-01  0 
VECTORS displacement_ITER5 FLOAT
 5.048056e-02  -5.926657e-02  0 
 5.079648e-02  -9.554435e-02  0 
 5.032666e-02  -3.928895e-02  0 
 5.039327e-02  -4.927227e-02  0 
 3.271184e-02  -5.921546e-02  0 
 4.163209e-02  -5.922334e-02  0 
 6.037809e-02  -5.929414e-02  0 
 7.037361e-02  -5.933762e-02  0 
 5.060433e-02  -6.821352e-02  0 
 5.069705e-02  -7.722729e-02  0 
 5.076113e-02  -8.633491e-02  0 
 3.845823e-02  -5.468251e-02  0 
 4.969771e-02  -6.406648e-02  0 
 4.290335e-02  -5.329481e-02  0 
 4.201116e-02  -5.081023e-02  0 
 4.491917e-02  -6.381554e-02  0 
 4.685234e-02  -5.603374e-02  0 
 5.816491e-02  -4.912687e-02  0 
 6.548827e-02  -5.254140e-02  0 
 7.301686e-02  -4.960125e-02  0 
 6.330213e-02  -4.277864e-02  0 
 3.892075e-02  -6.558753e-02  0 
 3.268470e-02  -6.727883e-02  0 
 4.445124e-02  -7.145365e-02  0 
 4.374800e-02  -8.016332e-02  0 
 3.734180e-02  -7.362663e-02  0 
 3.286163e-02  -8.311131e-02  0 
 4.202885e-02  -8.931932e-02  0 
 4.521868e-02  -6.471719e-02  0 
 6.316387e-02  -6.825396e-02  0 
 6.344295e-02  -7.784163e-02  0 
VECTORS displacement_ITER6 FLOAT
 4.150536e-02  -4.468845e-02  0 
 4.180817e-02  -7.147967e-02  0 
 4.135230e-02  -2.962260e-02  0 
 4.141973e-02  -3.715287e-02  0 
 2.844508e-02  -4.461108e-02  0 
 3.501804e-02  -4.463324e-02  0 
 4.895524e-02  -4.472614e-02  0 
 5.649848e-02  -4.477562e-02  0 
 4.162428e-02  -5.125938e-02  0 
 4.171188e-02  -5.789898e-02  0 
 4.177381e-02  -6.463856e-02  0 
 3.119164e-02  -3.985642e-02  0 
 3.357549e-02  -4.137918e-02  0 
 3.538056e-02  -3.985712e-02  0 
 3.398689e-02  -3.739326e-02  0 
 3.129627e-02  -4.187667e-02  0 
 3.562488e-02  -3.897735e-02  0 
 4.727733e-02  -3.705832e-02  0 
 5.280618e-02  -3.964083e-02  0 
 5.849477e-02  -3.742467e-02  0 
 5.115076e-02  -3.226634e-02  0 
 3.302477e-02  -4.931490e-02  0 
 2.842880e-02  -5.056088e-02  0 
 3.709883e-02  -5.363637e-02  0 
 3.658226e-02  -6.006589e-02  0 
 3.185948e-02  -5.524093e-02  0 
 2.854368e-02  -6.225297e-02  0 
 3.530968e-02  -6.684646e-02  0 
 3.765763e-02  -4.867633e-02  0 
 5.171760e-02  -5.122343e-02  0 
 5.235455e-02  -5.883720e-02  0 
VECTORS displacement_ITER7 FLOAT
 4.104020e-02  -4.916215e-02  0 
 4.132124e-02  -5.297556e-02  0 
 4.088789e-02  -4.665808e-02  0 
 4.095586e-02  -4.791019e-02  0 
 3.942354e-02  -4.906649e-02  0 
 4.028063e-02  -4.910041e-02  0 
 4.221329e-02  -4.920643e-02  0 
 4.347217e-02  -4.926127e-02  0 
 4.115201e-02  -4.999343e-02  0 
 4.123236e-02  -5.089394e-02  0 
 4.128956e-02  -5.188586e-02  0 
 3.741849e-02  -4.612366e-02  0 
 3.174358e-02  -3.777562e-02  0 
 3.913535e-02  -4.804806e-02  0 
 3.755637e-02  -4.731011e-02  0 
 3.017692e-02  -4.083914e-02  0 
 3.481195e-02  -4.623494e-02  0 
 4.191461e-02  -4.794393e-02  0 
 4.284003e-02  -4.838544e-02  0 
 4.381097e-02  -4.801573e-02  0 
 4.255092e-02  -4.713499e-02  0 
 4.002652e-02  -4.969713e-02  0 
 3.941934e-02  -4.986757e-02  0 
 4.056777e-02  -5.027711e-02  0 
 4.051023e-02  -5.118623e-02  0 
 3.986253e-02  -5.049956e-02  0 
 3.937260e-02  -5.152428e-02  0 
 4.032138e-02  -5.220359e-02  0 
 4.061851e-02  -4.961784e-02  0 
 4.490331e-02  -5.064527e-02  0 
 4.674812e-02  -5.365992e-02  0 
VECTORS displacement_ITER8 FLOAT
 2.599913e-02  -3.028482e-02  0 
 2.627469e-02  -3.681196e-02  0 
 2.584531e-02  -2.692803e-02  0 
 2.591439e-02  -2.860692e-02  0 
 2.302375e-02  -3.018849e-02  0 
 2.456040e-02  -3.022173e-02  0 
 2.760141e-02  -3.033434e-02  0 
 2.929024e-02  -3.039413e-02  0 
 2.611069e-02  -3.179331e-02  0 
 2.619044e-02  -3.337681e-02  0 
 2.624570e-02  -3.504446e-02  0 
 2.236731e-02  -2.731166e-02  0 
 1.655882e-02  -2.107564e-02  0 
 2.426138e-02  -2.864409e-02  0 
 2.333601e-02  -2.764661e-02  0 
 1.741566e-02  -2.271687e-02  0 
 2.200083e-02  -2.700193e-02  0 
 2.720592e-02  -2.863342e-02  0 
 2.844721e-02  -2.922453e-02  0 
 2.974370e-02  -2.872930e-02  0 
 2.806270e-02  -2.755325e-02  0 
 2.409938e-02  -3.130341e-02  0 
 2.301921e-02  -3.159979e-02  0 
 2.505845e-02  -3.232671e-02  0 
 2.494626e-02  -3.388881e-02  0 
 2.381728e-02  -3.271193e-02  0 
 2.299325e-02  -3.444384e-02  0 
 2.462773e-02  -3.558549e-02  0 
 2.517104e-02  -3.115744e-02  0 
 3.043665e-02  -3.180308e-02  0 
 3.212967e-02  -3.518906e-02  0 
VECTORS displacement_ITER9 FLOAT
 1.561079e-02  -2.051656e-02  0 
 1.588148e-02  -2.878468e-02  0 
 1.545104e-02  -1.627057e-02  0 
 1.552316e-02  -1.839411e-02  0 
 1.176591e-02  -2.042108e-02  0 
 1.373767e-02  -2.045368e-02  0 
 1.765570e-02  -2.056781e-02  0 
 1.978988e-02  -2.062911e-02  0 
 1.572411e-02  -2.246133e-02  0 
 1.580355e-02  -2.448542e-02  0 
 1.585625e-02  -2.658530e-02  0 
 1.218788e-02  -1.827745e-02  0 
 7.734374e-03  -1.510734e-02  0 
 1.403079e-02  -1.872605e-02  0 
 1.374343e-02  -1.779228e-02  0 
 9.892393e-03  -1.579737e-02  0 
 1.410290e-02  -1.818488e-02  0 
 1.716133e-02  -1.841412e-02  0 
 1.872941e-02  -1.915780e-02  0 
 2.036241e-02  -1.853177e-02  0 
 1.824700e-02  -1.705215e-02  0 
 1.314395e-02  -2.184615e-02  0 
 1.176041e-02  -2.222290e-02  0 
 1.437128e-02  -2.315552e-02  0 
 1.422486e-02  -2.513831e-02  0 
 1.278667e-02  -2.364491e-02  0 
 1.175062e-02  -2.583206e-02  0 
 1.382364e-02  -2.727037e-02  0 
 1.452298e-02  -2.165731e-02  0 
 2.052754e-02  -2.156391e-02  0 
 2.189861e-02  -2.498990e-02  0 
VECTORS displacement_ITER10 FLOAT
 1.365063e-02  -1.715220e-02  0 
 1.391055e-02  -2.082024e-02  0 
 1.348355e-02  -1.439575e-02  0 
 1.355956e-02  -1.577533e-02  0 
 1.209344e-02  -1.705410e-02  0 
 1.292327e-02  -1.708906e-02  0 
 1.494684e-02  -1.720389e-02  0 
 1.633355e-02  -1.726567e-02  0 
 1.376383e-02  -1.795140e-02  0 
 1.384050e-02  -1.883064e-02  0 
 1.388926e-02  -1.977771e-02  0 
 1.175532e-02  -1.569696e-02  0 
 6.605996e-03  -1.223137e-02  0 
 1.303311e-02  -1.594906e-02  0 
 1.299581e-02  -1.522289e-02  0 
 9.040183e-03  -1.254711e-02  0 
 1.328304e-02  -1.490343e-02  0 
 1.461648e-02  -1.581362e-02  0 
 1.563722e-02  -1.630224e-02  0 
 1.671056e-02  -1.589555e-02  0 
 1.531716e-02  -1.492556e-02  0 
 1.267702e-02  -1.766543e-02  0 
 1.209040e-02  -1.782625e-02  0 
 1.319823e-02  -1.822862e-02  0 
 1.314424e-02  -1.910873e-02  0 
 1.252112e-02  -1.844139e-02  0 
 1.205475e-02  -1.943071e-02  0 
 1.296071e-02  -2.008522e-02  0 
 1.324826e-02  -1.758790e-02  0 
 1.766352e-02  -1.636004e-02  0 
 1.881860e-02  -1.851787e-02  0 
VECTORS displacement_ITER11 FLOAT
 7.485231e-03  -1.103411e-02  0 
 7.740010e-03  -1.499047e-02  0 
 7.315936e-03  -6.848738e-03  0 
 7.393900e-03  -8.944453e-03  0 
 5.777993e-03  -1.093056e-02  0 
 6.682831e-03  -1.096637e-02  0 
 9.499400e-03  -1.109124e-02  0 
 1.160505e-02  -1.115778e-02  0 
 7.597652e-03  -1.190242e-02  0 
 7.673337e-03  -1.285490e-02  0 
 7.720333e-03  -1.387512e-02  0 
 5.741710e-03  -9.787566e-03  0 
 1.805713e-03  -8.219392e-03  0 
 6.941465e-03  -9.469566e-03  0 
 7.176575e-03  -8.435350e-03  0 
 4.281423e-03  -7.338200e-03  0 
 8.239780e-03  -7.613455e-03  0 
 9.009301e-03  -8.969839e-03  0 
 1.055740e-02  -9.705375e-03  0 
 1.217355e-02  -9.087641e-03  0 
 1.008017e-02  -7.627666e-03  0 
 6.414130e-03  -1.159571e-02  0 
 5.774907e-03  -1.176946e-02  0 
 6.981265e-03  -1.220729e-02  0 
 6.920192e-03  -1.315802e-02  0 
 6.245491e-03  -1.243799e-02  0 
 5.744431e-03  -1.350317e-02  0 
 6.722232e-03  -1.420679e-02  0 
 7.038716e-03  -1.151189e-02  0 
 1.211014e-02  -9.716048e-03  0 
 1.285836e-02  -1.172755e-02  0 
VECTORS displacement_ITER12 FLOAT
 9.639874e-03  -9.602922e-03  0 
 9.896387e-03  -1.257086e-02  0 
 9.466322e-03  -5.556243e-03  0 
 9.547141e-03  -7.584850e-03  0 
 8.424386e-03  -9.488727e-03  0 
 9.084726e-03  -9.527143e-03  0 
 1.158753e-02  -9.667306e-03  0 
 1.362744e-02  -9.740722e-03  0 
 9.753468e-03  -1.021723e-02  0 
 9.830093e-03  -1.092253e-02  0 
 9.877112e-03  -1.169847e-02  0 
 8.319522e-03  -8.430417e-03  0 
 5.073634e-03  -7.388165e-03  0 
 9.328406e-03  -8.029894e-03  0 
 9.613562e-03  -6.837454e-03  0 
 7.066678e-03  -5.699268e-03  0 
 1.055535e-02  -5.081761e-03  0 
 1.110949e-02  -7.614305e-03  0 
 1.261019e-02  -8.329709e-03  0 
 1.418043e-02  -7.730843e-03  0 
 1.214663e-02  -6.314754e-03  0 
 8.890969e-03  -9.980517e-03  0 
 8.421549e-03  -1.010744e-02  0 
 9.307150e-03  -1.043162e-02  0 
 9.264891e-03  -1.114628e-02  0 
 8.764802e-03  -1.060339e-02  0 
 8.384367e-03  -1.141328e-02  0 
 9.112525e-03  -1.194938e-02  0 
 9.343042e-03  -9.922306e-03  0 
 1.421312e-02  -7.609856e-03  0 
 1.484075e-02  -9.334143e-03  0 
VECTORS displacement_ITER13 FLOAT
 6.559886e-03  -8.319372e-03  0 
 6.825442e-03  -1.286685e-02  0 
 6.377393e-03  -4.314234e-03  0 
 6.462961e-03  -6.324288e-03  0 
 4.559211e-03  -8.191685e-03  0 
 5.615313e-03  -8.233801e-03  0 
 8.485961e-03  -8.390978e-03  0 
 1.050610e-02  -8.471769e-03  0 
 6.678025e-03  -9.318959e-03  0 
 6.757686e-03  -1.041850e-02  0 
 6.806332e-03  -1.159342e-02  0 
 4.754406e-03  -6.655762e-03  0 
 1.677657e-03  -5.585859e-03  0 
 6.011547e-03  -6.475524e-03  0 
 6.172816e-03  -4.939401e-03  0 
 3.381097e-03  -3.090772e-03  0 
 6.669404e-03  -1.909190e-03  0 
 8.009496e-03  -6.358857e-03  0 
 9.496693e-03  -7.070132e-03  0 
 1.105581e-02  -6.476155e-03  0 
 9.036816e-03  -5.071923e-03  0 
 5.302356e-03  -8.967364e-03  0 
 4.556064e-03  -9.167445e-03  0 
 5.962428e-03  -9.676268e-03  0 
 5.888328e-03  -1.077256e-02  0 
 5.106775e-03  -9.943773e-03  0 
 4.530235e-03  -1.116919e-02  0 
 5.660735e-03  -1.197616e-02  0 
 6.032934e-03  -8.872387e-03  0 
 1.129408e-02  -6.053215e-03  0 
 1.186760e-02  -8.007913e-03  0 
VECTORS displacement_ITER14 FLOAT
 4.354199e-03  -7.499973e-03  0 
 4.632138e-03  -1.364292e-02  0 
 4.160725e-03  -3.762046e-03  0 
 4.251753e-03  -5.640067e-03  0 
 1.565684e-03  -7.359873e-03  0 
 3.019173e-03  -7.405719e-03  0 
 6.143184e-03  -7.576824e-03  0 
 8.029184e-03  -7.662747e-03  0 
 4.478525e-03  -8.889185e-03  0 
 4.561856e-03  -1.038671e-02  0 
 4.613100e-03  -1.196442e-02  0 
 2.142807e-03  -5.543770e-03  0 
 -2.725123e-04  -4.735200e-03  0 
 3.545473e-03  -5.557604e-03  0 
 3.583974e-03  -3.903836e-03  0 
 9.921264e-04  -1.918143e-03  0 
 3.769086e-03  -3.568760e-04  0 
 5.694047e-03  -5.682440e-03  0 
 7.083804e-03  -6.349468e-03  0 
 8.544886e-03  -5.794077e-03  0 
 6.652698e-03  -4.480079e-03  0 
 2.586370e-03  -8.420897e-03  0 
 1.561709e-03  -8.694806e-03  0 
 3.491967e-03  -9.390163e-03  0 
 3.386572e-03  -1.087194e-02  0 
 2.320916e-03  -9.753975e-03  0 
 1.546316e-03  -1.140018e-02  0 
 3.083400e-03  -1.248098e-02  0 
 3.596638e-03  -8.288814e-03  0 
 9.151703e-03  -5.006582e-03  0 
 9.721115e-03  -7.218901e-03  0 
VECTORS displacement_ITER15 FLOAT
 2.383013e-03  -5.725809e-03  0 
 2.667857e-03  -1.133055e-02  0 
 2.186133e-03  -1.578143e-03  0 
 2.279191e-03  -3.661518e-03  0 
 -1.292733e-04  -5.580161e-03  0 
 1.186299e-03  -5.627169e-03  0 
 4.378028e-03  -5.806152e-03  0 
 6.473011e-03  -5.894267e-03  0 
 2.510067e-03  -6.975640e-03  0 
 2.595113e-03  -8.338349e-03  0 
 2.648319e-03  -9.782831e-03  0 
 7.503221e-04  -4.304841e-03  0 
 7.698094e-04  -5.390285e-03  0 
 1.699202e-03  -3.929235e-03  0 
 1.914964e-03  -2.594072e-03  0 
 1.267642e-03  -2.994540e-03  0 
 2.878673e-03  -3.883453e-04  0 
 3.882018e-03  -3.700977e-03  0 
 5.425084e-03  -4.439212e-03  0 
 7.044107e-03  -3.822586e-03  0 
 4.948115e-03  -2.366754e-03  0 
 7.953282e-04  -6.543955e-03  0 
 -1.344929e-04  -6.792014e-03  0 
 1.617582e-03  -7.425881e-03  0 
 1.523574e-03  -8.778891e-03  0 
 5.532107e-04  -7.756511e-03  0 
 -1.563491e-04  -9.265460e-03  0 
 1.245282e-03  -1.025552e-02  0 
 1.709523e-03  -6.426667e-03  0 
 7.396027e-03  -3.168869e-03  0 
 7.942076e-03  -5.354788e-03  0 
VECTORS displacement_ITER16 FLOAT
 2.964841e-03  -7.286857e-03  0 
 3.249040e-03  -9.175043e-03  0 
 2.767240e-03  -4.259187e-03  0 
 2.861006e-03  -5.783066e-03  0 
 2.305378e-03  -7.136386e-03  0 
 2.694871e-03  -7.185835e-03  0 
 4.400756e-03  -7.368331e-03  0 
 5.937097e-03  -7.456723e-03  0 
 3.091919e-03  -7.608154e-03  0 
 3.176498e-03  -8.043578e-03  0 
 3.229680e-03  -8.557894e-03  0 
 2.452409e-03  -6.442255e-03  0 
 2.869925e-03  -7.327670e-03  0 
 2.810132e-03  -6.069235e-03  0 
 2.978715e-03  -5.060601e-03  0 
 2.637275e-03  -5.308105e-03  0 
 3.574115e-03  -2.918269e-03  0 
 4.027579e-03  -5.834046e-03  0 
 5.161211e-03  -6.380998e-03  0 
 6.360737e-03  -5.928330e-03  0 
 4.806051e-03  -4.854229e-03  0 
 2.585803e-03  -7.441093e-03  0 
 2.301679e-03  -7.514452e-03  0 
 2.837055e-03  -7.719150e-03  0 
 2.818203e-03  -8.179694e-03  0 
 2.506172e-03  -7.825158e-03  0 
 2.254229e-03  -8.366634e-03  0 
 2.715589e-03  -8.724066e-03  0 
 2.846220e-03  -7.415351e-03  0 
 7.334580e-03  -4.140855e-03  0 
 7.997203e-03  -5.666304e-03  0 
VECTORS displacement_ITER17 FLOAT
 3.145641e-03  -7.733828e-03  0 
 3.432056e-03  -8.097082e-03  0 
 2.943545e-03  -5.641785e-03  0 
 3.039427e-03  -6.698145e-03  0 
 3.246445e-03  -7.578674e-03  0 
 3.257637e-03  -7.630898e-03  0 
 4.110265e-03  -7.814715e-03  0 
 5.176250e-03  -7.902583e-03  0 
 3.274833e-03  -7.674529e-03  0 
 3.360188e-03  -7.730419e-03  0 
 3.413216e-03  -7.862981e-03  0 
 2.831076e-03  -6.889931e-03  0 
 2.406232e-03  -6.695958e-03  0 
 3.109011e-03  -6.794764e-03  0 
 3.064745e-03  -5.808040e-03  0 
 1.919400e-03  -4.700433e-03  0 
 2.862667e-03  -2.938736e-03  0 
 3.840759e-03  -6.760410e-03  0 
 4.629670e-03  -7.146139e-03  0 
 5.475860e-03  -6.831045e-03  0 
 4.377373e-03  -6.078162e-03  0 
 3.264368e-03  -7.614946e-03  0 
 3.244307e-03  -7.616254e-03  0 
 3.281835e-03  -7.646107e-03  0 
 3.294640e-03  -7.741498e-03  0 
 3.251859e-03  -7.659857e-03  0 
 3.188286e-03  -7.805017e-03  0 
 3.264885e-03  -7.903608e-03  0 
 3.256384e-03  -7.626767e-03  0 
 7.020736e-03  -4.259209e-03  0 
 7.762849e-03  -5.492847e-03  0 
VECTORS displacement_ITER18 FLOAT
 1.781278e-03  -7.509460e-03  0 
 2.076195e-03  -7.846021e-03  0 
 1.573931e-03  -5.198330e-03  0 
 1.672198e-03  -6.363993e-03  0 
 1.903816e-03  -7.351956e-03  0 
 1.905561e-03  -7.404658e-03  0 
 2.852236e-03  -7.590829e-03  0 
 4.028266e-03  -7.679213e-03  0 
 1.914615e-03  -7.441129e-03  0 
 2.002958e-03  -7.489965e-03  0 
 2.056910e-03  -7.617055e-03  0 
 1.639765e-03  -6.889322e-03  0 
 1.928733e-03  -7.266790e-03  0 
 1.774817e-03  -6.637828e-03  0 
 1.832169e-03  -5.871086e-03  0 
 1.380830e-03  -5.811324e-03  0 
 2.101307e-03  -4.041356e-03  0 
 2.558548e-03  -6.425851e-03  0 
 3.427840e-03  -6.848316e-03  0 
 4.357013e-03  -6.500480e-03  0 
 3.151768e-03  -5.673362e-03  0 
 1.915099e-03  -7.381669e-03  0 
 1.900965e-03  -7.381715e-03  0 
 1.927900e-03  -7.408200e-03  0 
 1.942349e-03  -7.498279e-03  0 
 1.903665e-03  -7.419960e-03  0 
 1.842693e-03  -7.559879e-03  0 
 1.914290e-03  -7.655416e-03  0 
 1.900503e-03  -7.394700e-03  0 
 5.719563e-03  -4.205633e-03  0 
 6.462038e-03  -5.499130e-03  0 
VECTORS displacement_ITER19 FLOAT
 1.991678e-03  -7.426322e-03  0 
 2.288854e-03  -7.155405e-03  0 
 1.781743e-03  -4.740343e-03  0 
 1.881550e-03  -6.094050e-03  0 
 2.414250e-03  -7.261785e-03  0 
 2.267599e-03  -7.317280e-03  0 
 3.250040e-03  -7.509626e-03  0 
 4.615204e-03  -7.599142e-03  0 
 2.126671e-03  -7.204798e-03  0 
 2.215933e-03  -7.102158e-03  0 
 2.269723e-03  -7.078695e-03  0 
 1.847630e-03  -6.734287e-03  0 
 1.770361e-03  -6.782666e-03  0 
 1.949144e-03  -6.506068e-03  0 
 1.905134e-03  -5.673344e-03  0 
 1.210137e-03  -5.416765e-03  0 
 1.997723e-03  -3.751557e-03  0 
 2.914506e-03  -6.153222e-03  0 
 3.922416e-03  -6.639965e-03  0 
 4.993766e-03  -6.236824e-03  0 
 3.605401e-03  -5.281060e-03  0 
 2.323263e-03  -7.186926e-03  0 
 2.412638e-03  -7.158030e-03  0 
 2.244255e-03  -7.115958e-03  0 
 2.271229e-03  -7.061449e-03  0 
 2.338529e-03  -7.091076e-03  0 
 2.352116e-03  -7.073649e-03  0 
 2.272543e-03  -7.067424e-03  0 
 2.202884e-03  -7.215692e-03  0 
 5.973703e-03  -4.157878e-03  0 
 6.626964e-03  -5.315913e-03  0 
VECTORS displacement_ITER20 FLOAT
 2.929444e-03  -7.265530e-03  0 
 3.226803e-03  -6.689211e-03  0 
 2.718520e-03  -4.813368e-03  0 
 2.818991e-03  -6.050702e-03  0 
 3.500394e-03  -7.094857e-03  0 
 3.280767e-03  -7.152988e-03  0 
 4.071275e-03  -7.350252e-03  0 
 5.320243e-03  -7.440336e-03  0 
 3.065243e-03  -6.966808e-03  0 
 3.154852e-03  -6.788586e-03  0 
 3.208228e-03  -6.689956e-03  0 
 2.811870e-03  -6.603127e-03  0 
 2.434130e-03  -6.420183e-03  0 
 2.908066e-03  -6.424118e-03  0 
 2.822425e-03  -5.607474e-03  0 
 1.928939e-03  -5.045279e-03  0 
 2.746340e-03  -3.574889e-03  0 
 3.761104e-03  -6.112821e-03  0 
 4.683986e-03  -6.559906e-03  0 
 5.667769e-03  -6.191320e-03  0 
 4.392421e-03  -5.314448e-03  0 
 3.359491e-03  -6.969222e-03  0 
 3.499736e-03  -6.925458e-03  0 
 3.235041e-03  -6.850113e-03  0 
 3.268290e-03  -6.723629e-03  0 
 3.388197e-03  -6.806844e-03  0 
 3.439074e-03  -6.710985e-03  0 
 3.284551e-03  -6.654090e-03  0 
 3.186690e-03  -7.006286e-03  0 
 6.676764e-03  -4.025420e-03  0 
 7.301242e-03  -5.069183e-03  0 
VECTORS displacement_ITER21 FLOAT
 2.861175e-03  -6.081939e-03  0 
 3.157757e-03  -6.115864e-03  0 
 2.649948e-03  -3.731423e-03  0 
 2.750784e-03  -4.918239e-03  0 
 3.123981e-03  -5.905043e-03  0 
 3.059334e-03  -5.965926e-03  0 
 3.953521e-03  -6.168375e-03  0 
 5.153269e-03  -6.258567e-03  0 
 2.997662e-03  -5.934492e-03  0 
 3.087506e-03  -5.909739e-03  0 
 3.140163e-03  -5.965179e-03  0 
 2.671006e-03  -5.499407e-03  0 
 2.539400e-03  -5.640652e-03  0 
 2.795245e-03  -5.275652e-03  0 
 2.768742e-03  -4.553047e-03  0 
 2.156854e-03  -4.372191e-03  0 
 2.891129e-03  -2.941467e-03  0 
 3.653836e-03  -4.981649e-03  0 
 4.540920e-03  -5.411961e-03  0 
 5.487219e-03  -5.058632e-03  0 
 4.259906e-03  -4.214937e-03  0 
 3.091773e-03  -5.891652e-03  0 
 3.123610e-03  -5.875838e-03  0 
 3.062450e-03  -5.873717e-03  0 
 3.083190e-03  -5.895478e-03  0 
 3.093806e-03  -5.867472e-03  0 
 3.069031e-03  -5.932215e-03  0 
 3.070666e-03  -5.980023e-03  0 
 3.027654e-03  -5.914789e-03  0 
 6.487621e-03  -3.034351e-03  0 
 7.092533e-03  -4.153143e-03  0 
VECTORS displacement_ITER22 FLOAT
 2.917046e-03  -5.906010e-03  0 
 3.211231e-03  -6.127328e-03  0 
 2.705257e-03  -4.127987e-03  0 
 2.806523e-03  -5.028979e-03  0 
 3.081058e-03  -5.722261e-03  0 
 3.067061e-03  -5.786670e-03  0 
 3.723867e-03  -5.993777e-03  0 
 4.637706e-03  -6.084226e-03  0 
 3.053965e-03  -5.804804e-03  0 
 3.143582e-03  -5.828283e-03  0 
 3.195161e-03  -5.931651e-03  0 
 2.672372e-03  -5.337378e-03  0 
 2.342208e-03  -5.250184e-03  0 
 2.841711e-03  -5.226280e-03  0 
 2.782139e-03  -4.572868e-03  0 
 2.006717e-03  -4.042541e-03  0 
 2.725085e-03  -2.903340e-03  0 
 3.486731e-03  -5.098635e-03  0 
 4.164578e-03  -5.431515e-03  0 
 4.895840e-03  -5.162518e-03  0 
 3.945803e-03  -4.513318e-03  0 
 3.085157e-03  -5.747169e-03  0 
 3.081523e-03  -5.739530e-03  0 
 3.086023e-03  -5.761808e-03  0 
 3.102622e-03  -5.830304e-03  0 
 3.078998e-03  -5.767379e-03  0 
 3.030599e-03  -5.882615e-03  0 
 3.081149e-03  -5.962642e-03  0 
 3.055520e-03  -5.766488e-03  0 
 6.234413e-03  -2.873162e-03  0 
 6.876525e-03  -3.969480e-03  0 
VECTORS displacement_ITER23 FLOAT
 3.329032e-03  -5.854425e-03  0 
 3.621662e-03  -6.342690e-03  0 
 3.116325e-03  -4.389708e-03  0 
 3.218252e-03  -5.134552e-03  0 
 3.354749e-03  -5.663069e-03  0 
 3.411299e-03  -5.731224e-03  0 
 3.980222e-03  -5.944055e-03  0 
 4.738440e-03  -6.035166e-03  0 
 3.466593e-03  -5.818729e-03  0 
 3.556073e-03  -5.909934e-03  0 
 3.606896e-03  -6.081276e-03  0 
 2.965650e-03  -5.322329e-03  0 
 2.455458e-03  -5.129495e-03  0 
 3.201309e-03  -5.261360e-03  0 
 3.109378e-03  -4.648213e-03  0 
 2.180333e-03  -3.944054e-03  0 
 2.942715e-03  -2.917719e-03  0 
 3.776794e-03  -5.207949e-03  0 
 4.340937e-03  -5.487966e-03  0 
 4.955189e-03  -5.265182e-03  0 
 4.155898e-03  -4.721574e-03  0 
 3.409126e-03  -5.740553e-03  0 
 3.356133e-03  -5.744772e-03  0 
 3.452466e-03  -5.800636e-03  0 
 3.463353e-03  -5.934833e-03  0 
 3.391335e-03  -5.822804e-03  0 
 3.309345e-03  -6.009339e-03  0 
 3.429158e-03  -6.135379e-03  0 
 3.427951e-03  -5.754231e-03  0 
 6.475741e-03  -2.827465e-03  0 
 7.126567e-03  -3.912167e-03  0 
VECTORS displacement_ITER24 FLOAT
 2.898418e-03  -5.584631e-03  0 
 3.192035e-03  -6.399387e-03  0 
 2.683064e-03  -4.416135e-03  0 
 2.786527e-03  -5.013437e-03  0 
 2.757799e-03  -5.383322e-03  0 
 2.899738e-03  -5.455992e-03  0 
 3.402497e-03  -5.677725e-03  0 
 4.014933e-03  -5.770974e-03  0 
 3.037903e-03  -5.627799e-03  0 
 3.127947e-03  -5.801695e-03  0 
 3.178468e-03  -6.056325e-03  0 
 2.558908e-03  -5.181172e-03  0 
 2.026432e-03  -5.130141e-03  0 
 2.814179e-03  -5.079332e-03  0 
 2.820621e-03  -4.598718e-03  0 
 2.042219e-03  -4.129923e-03  0 
 2.885354e-03  -3.294049e-03  0 
 3.230045e-03  -5.091146e-03  0 
 3.687792e-03  -5.322048e-03  0 
 4.192932e-03  -5.142756e-03  0 
 3.534002e-03  -4.697560e-03  0 
 2.872898e-03  -5.524339e-03  0 
 2.759995e-03  -5.543122e-03  0 
 2.967810e-03  -5.639640e-03  0 
 2.971963e-03  -5.854191e-03  0 
 2.840745e-03  -5.682001e-03  0 
 2.717235e-03  -5.955962e-03  0 
 2.922130e-03  -6.138888e-03  0 
 2.950401e-03  -5.531160e-03  0 
 5.913744e-03  -2.597120e-03  0 
 6.601645e-03  -3.680089e-03  0 
VECTORS displacement_ITER25 FLOAT
 2.385751e-03  -5.380999e-03  0 
 2.678908e-03  -6.529226e-03  0 
 2.168175e-03  -4.232463e-03  0 
 2.272920e-03  -4.820317e-03  0 
 2.073492e-03  -5.171964e-03  0 
 2.303137e-03  -5.248269e-03  0 
 2.880377e-03  -5.476699e-03  0 
 3.484365e-03  -5.572015e-03  0 
 2.526504e-03  -5.506434e-03  0 
 2.616565e-03  -5.765361e-03  0 
 2.666460e-03  -6.103861e-03  0 
 1.962398e-03  -4.941648e-03  0 
 1.097195e-03  -4.792346e-03  0 
 2.296073e-03  -4.840521e-03  0 
 2.345606e-03  -4.350786e-03  0 
 1.437010e-03  -3.772364e-03  0 
 2.488651e-03  -3.111369e-03  0 
 2.708976e-03  -4.899380e-03  0 
 3.160795e-03  -5.127963e-03  0 
 3.660075e-03  -4.951449e-03  0 
 3.008637e-03  -4.511349e-03  0 
 2.250797e-03  -5.377560e-03  0 
 2.076750e-03  -5.411263e-03  0 
 2.398585e-03  -5.549341e-03  0 
 2.396025e-03  -5.845621e-03  0 
 2.204267e-03  -5.612118e-03  0 
 2.039424e-03  -5.974213e-03  0 
 2.330523e-03  -6.214963e-03  0 
 2.388629e-03  -5.376917e-03  0 
 5.396236e-03  -2.414007e-03  0 
 6.078765e-03  -3.480461e-03  0 
VECTORS displacement_ITER26 FLOAT
 2.110829e-03  -5.271246e-03  0 
 2.398744e-03  -5.634661e-03  0 
 1.893501e-03  -3.846277e-03  0 
 1.998505e-03  -4.572714e-03  0 
 2.181987e-03  -5.057079e-03  0 
 2.220759e-03  -5.136251e-03  0 
 2.745522e-03  -5.368465e-03  0 
 3.489914e-03  -5.464499e-03  0 
 2.250752e-03  -5.201748e-03  0 
 2.339230e-03  -5.266050e-03  0 
 2.387575e-03  -5.408079e-03  0 
 1.892421e-03  -4.830628e-03  0 
 8.713656e-04  -4.598163e-03  0 
 2.118560e-03  -4.688078e-03  0 
 2.174830e-03  -4.164793e-03  0 
 1.299024e-03  -3.587837e-03  0 
 2.333416e-03  -2.970523e-03  0 
 2.543014e-03  -4.648959e-03  0 
 3.097778e-03  -4.925398e-03  0 
 3.702356e-03  -4.708203e-03  0 
 2.915059e-03  -4.172530e-03  0 
 2.227408e-03  -5.128292e-03  0 
 2.186684e-03  -5.124851e-03  0 
 2.256112e-03  -5.174404e-03  0 
 2.268701e-03  -5.283103e-03  0 
 2.215320e-03  -5.190440e-03  0 
 2.147656e-03  -5.347930e-03  0 
 2.240299e-03  -5.455122e-03  0 
 2.229234e-03  -5.147073e-03  0 
 5.179988e-03  -2.195603e-03  0 
 5.797013e-03  -3.043581e-03  0 
VECTORS displacement_ITER27 FLOAT
 2.212272e-03  -5.227112e-03  0 
 2.496803e-03  -5.828158e-03  0 
 1.994281e-03  -3.972261e-03  0 
 2.099630e-03  -4.613651e-03  0 
 2.160598e-03  -5.010668e-03  0 
 2.261544e-03  -5.091605e-03  0 
 2.761465e-03  -5.323995e-03  0 
 3.420211e-03  -5.419746e-03  0 
 2.352167e-03  -5.218214e-03  0 
 2.439842e-03  -5.343197e-03  0 
 2.486989e-03  -5.544285e-03  0 
 1.901468e-03  -4.775365e-03  0 
 7.949393e-04  -4.474564e-03  0 
 2.165736e-03  -4.683019e-03  0 
 2.186054e-03  -4.180270e-03  0 
 1.253775e-03  -3.495672e-03  0 
 2.249416e-03  -2.989966e-03  0 
 2.577908e-03  -4.691885e-03  0 
 3.069880e-03  -4.938759e-03  0 
 3.609851e-03  -4.746485e-03  0 
 2.906117e-03  -4.269596e-03  0 
 2.249887e-03  -5.127396e-03  0 
 2.165890e-03  -5.134921e-03  0 
 2.315901e-03  -5.213584e-03  0 
 2.323416e-03  -5.380266e-03  0 
 2.227565e-03  -5.244514e-03  0 
 2.131334e-03  -5.463902e-03  0 
 2.283852e-03  -5.611448e-03  0 