# vtk DataFile Version 3.1
this is an vtk file created by FEMAC
ASCII
DATASET UNSTRUCTURED_GRID
POINTS 32 FLOAT
1.000000 0.000000 0.000000
2.000000 0.000000 0.000000
1.250000 0.000000 0.000000
1.500000 0.000000 0.000000
1.750000 0.000000 0.000000
2.250000 0.000000 0.000000
2.500000 0.000000 0.000000
1.000000 0.250000 0.000000
1.000000 0.500000 0.000000
1.000000 0.750000 0.000000
2.000000 0.250000 0.000000
2.000000 0.500000 0.000000
2.000000 0.750000 0.000000
0.757669 0.416286 0.000000
1.462570 0.272476 0.000000
1.214699 0.660302 0.000000
1.787596 0.660045 0.000000
1.828307 0.162952 0.000000
1.638134 0.825570 0.000000
1.371728 0.825957 0.000000
1.502535 0.594871 0.000000
1.217467 0.400442 0.000000
1.746177 0.372389 0.000000
1.660592 0.165804 0.000000
1.835146 0.847123 0.000000
1.167285 0.847252 0.000000
1.238340 0.153820 0.000000
2.462570 0.272476 0.000000
2.214699 0.660302 0.000000
2.502535 0.594871 0.000000
2.217467 0.400442 0.000000
2.238340 0.153820 0.000000
CELLS 43 172 
3 13  7  8
3 8 15  9
3 16 11 12
3 17  4  1
3 10 17  1
3 20 16 18
3 21 15  8
3 16 22 11
3 20 21 14
3 20 15 21
3 22 20 14
3 16 20 22
3 7 21  8
3 22 10 11
3 17 10 22
3 20 19 15
3 18 19 20
3 17 23  4
3 12 24 16
3 25  9 15
3 23 22 14
3 17 22 23
3 15 19 25
3 18 16 24
3 23  3  4
3 3 23 14
3 2 26  0
3 26  7  0
3 3 26  2
3 21 26 14
3 26 21  7
3 3 14 26
3 11 28 12
3 30 28 11
3 29 30 27
3 29 28 30
3 10 30 11
3 5 31  1
3 31 10  1
3 6 31  5
3 30 31 27
3 31 30 10
3 6 27 31
CELL_TYPES 43
5 5 5 5 5 5 5 5 5 5 5 5 5 5 5 5 5 5 5 5 5 5 5 5 5 5 5 5 5 5 5 5 5 5 5 5 5 5 5 5 5 5 5 
POINT_DATA 32
VECTORS displacement_ITER1 FLOAT
 -8.869050e-03  -3.729020e-02  0 
 -1.339235e-01  -6.786760e-02  0 
 -4.924148e-02  -5.699373e-02  0 
 -8.141895e-02  -7.195604e-02  0 
 -1.056299e-01  -7.912662e-02  0 
 -1.339680e-01  -8.302275e-02  0 
 -1.340082e-01  -9.820242e-02  0 
 -1.329152e-02  -6.405948e-03  0 
 -9.646286e-03  -6.323674e-03  0 
 -2.264370e-02  1.030852e-02  0 
 -1.187711e-01  -6.780805e-02  0 
 -1.035789e-01  -6.772883e-02  0 
 -8.831992e-02  -6.764267e-02  0 
 -1.081014e-02  -2.811981e-03  0 
 -6.378997e-02  -3.914983e-02  0 
 -3.452448e-02  8.010331e-03  0 
 -8.228644e-02  -3.490767e-02  0 
 -1.118163e-01  -6.219732e-02  0 
 -6.491605e-02  -7.080723e-03  0 
 -4.557926e-02  1.458243e-02  0 
 -6.149413e-02  -9.179275e-03  0 
 -3.047679e-02  -1.296828e-02  0 
 -9.421359e-02  -4.554040e-02  0 
 -9.287078e-02  -6.120863e-02  0 
 -7.186767e-02  -3.358952e-02  0 
 -3.676204e-02  1.582431e-02  0 
 -4.249307e-02  -3.466552e-02  0 
 -1.174488e-01  -9.589869e-02  0 
 -9.384206e-02  -8.078720e-02  0 
 -9.786502e-02  -9.832188e-02  0 
 -1.096633e-01  -8.099173e-02  0 
 -1.246357e-01  -8.228625e-02  0 
VECTORS displacement_ITER2 FLOAT
 2.369370e-03  -2.812206e-02  0 
 -1.042406e-01  -7.167468e-02  0 
 -3.115507e-02  -5.657345e-02  0 
 -5.774279e-02  -7.631363e-02  0 
 -7.860761e-02  -8.315149e-02  0 
 -1.042814e-01  -8.504511e-02  0 
 -1.043175e-01  -9.843852e-02  0 
 9.754868e-03  -5.775060e-03  0 
 1.729928e-02  -5.704400e-03  0 
 7.628818e-03  5.713289e-03  0 
 -9.087070e-02  -7.161683e-02  0 
 -7.745921e-02  -7.153338e-02  0 
 -6.397277e-02  -7.143570e-02  0 
 1.482586e-02  1.596375e-03  0 
 -3.847537e-02  -4.531093e-02  0 
 -4.945474e-03  2.972925e-03  0 
 -5.604154e-02  -4.109212e-02  0 
 -8.415024e-02  -6.761374e-02  0 
 -3.755893e-02  -1.366384e-02  0 
 -1.593772e-02  8.496122e-03  0 
 -3.377840e-02  -1.675301e-02  0 
 -4.746527e-03  -1.718217e-02  0 
 -6.736589e-02  -5.260472e-02  0 
 -6.670213e-02  -6.723415e-02  0 
 -4.620470e-02  -3.814938e-02  0 
 -6.599149e-03  1.020379e-02  0 
 -1.984315e-02  -3.823134e-02  0 
 -8.970875e-02  -9.640595e-02  0 
 -6.886508e-02  -8.305963e-02  0 
 -7.242496e-02  -9.854588e-02  0 
 -8.283630e-02  -8.324813e-02  0 
 -9.604832e-02  -8.439449e-02  0 
VECTORS displacement_ITER3 FLOAT
 -7.577961e-03  -4.158884e-03  0 
 -8.679250e-02  -5.114637e-02  0 
 -3.038588e-02  -4.103307e-02  0 
 -4.842133e-02  -6.244520e-02  0 
 -6.503982e-02  -6.474214e-02  0 
 -8.682716e-02  -5.971993e-02  0 
 -8.685634e-02  -6.831411e-02  0 
 1.108545e-02  1.067038e-03  0 
 1.498518e-02  1.115573e-03  0 
 2.085532e-03  1.906537e-03  0 
 -7.821783e-02  -5.109382e-02  0 
 -6.960039e-02  -5.100945e-02  0 
 -6.090808e-02  -5.090627e-02  0 
 1.372146e-02  4.892859e-03  0 
 -3.253485e-02  -3.483090e-02  0 
 -5.270490e-03  5.182039e-03  0 
 -5.192114e-02  -2.856820e-02  0 
 -7.148181e-02  -5.055605e-02  0 
 -3.778429e-02  -8.006770e-03  0 
 -1.748527e-02  9.921514e-03  0 
 -3.080834e-02  -1.073326e-02  0 
 -3.562955e-03  -1.044225e-02  0 
 -5.876005e-02  -3.912426e-02  0 
 -5.676640e-02  -5.278083e-02  0 
 -4.662996e-02  -2.554300e-02  0 
 -1.112894e-02  7.225929e-03  0 
 -1.522380e-02  -2.919085e-02  0 
 -7.748351e-02  -6.700626e-02  0 
 -6.408206e-02  -5.841250e-02  0 
 -6.638835e-02  -6.838303e-02  0 
 -7.306888e-02  -5.855264e-02  0 
 -8.154710e-02  -5.929743e-02  0 
VECTORS displacement_ITER4 FLOAT
 -1.921641e-02  5.681756e-03  0 
 -7.910768e-02  -4.954582e-02  0 
 -3.482280e-02  -3.611213e-02  0 
 -4.702036e-02  -5.898095e-02  0 
 -6.058776e-02  -6.076642e-02  0 
 -7.913729e-02  -5.804434e-02  0 
 -7.916131e-02  -6.656137e-02  0 
 5.555873e-03  -8.457767e-04  0 
 6.745816e-03  -8.154312e-04  0 
 -4.383468e-03  -7.827790e-03  0 
 -7.060763e-02  -4.949931e-02  0 
 -6.206534e-02  -4.941883e-02  0 
 -5.345670e-02  -4.931910e-02  0 
 6.377989e-03  3.396096e-04  0 
 -3.207344e-02  -3.461825e-02  0 
 -8.270759e-03  -2.724456e-03  0 
 -4.631171e-02  -3.208803e-02  0 
 -6.540931e-02  -4.900440e-02  0 
 -3.522775e-02  -1.756246e-02  0 
 -1.822664e-02  -1.030014e-03  0 
 -2.928014e-02  -1.691333e-02  0 
 -7.808287e-03  -1.262659e-02  0 
 -5.335826e-02  -3.975691e-02  0 
 -5.323209e-02  -5.077318e-02  0 
 -4.275439e-02  -3.094757e-02  0 
 -1.446113e-02  -4.461619e-03  0 
 -1.722253e-02  -2.854079e-02  0 
 -6.987513e-02  -6.527003e-02  0 
 -5.659753e-02  -5.675051e-02  0 
 -5.888254e-02  -6.663634e-02  0 
 -6.550252e-02  -5.689278e-02  0 
 -7.390443e-02  -5.762880e-02  0 
VECTORS displacement_ITER5 FLOAT
 -1.058166e-02  1.066367e-02  0 
 -6.561088e-02  -3.345105e-02  0 
 -2.558837e-02  -2.345183e-02  0 
 -3.695633e-02  -4.144126e-02  0 
 -4.918678e-02  -4.282676e-02  0 
 -6.563708e-02  -4.196195e-02  0 
 -6.565772e-02  -5.048984e-02  0 
 6.118130e-03  5.070495e-03  0 
 2.191986e-03  5.091575e-03  0 
 -1.914179e-03  -3.912811e-03  0 
 -5.709855e-02  -3.340920e-02  0 
 -4.854488e-02  -3.333333e-02  0 
 -3.993597e-02  -3.324046e-02  0 
 3.527224e-03  1.289858e-03  0 
 -2.531545e-02  -2.089881e-02  0 
 -6.584922e-03  -2.698440e-05  0 
 -3.515017e-02  -2.111613e-02  0 
 -5.303575e-02  -3.279993e-02  0 
 -2.780542e-02  -1.308712e-02  0 
 -1.472853e-02  5.868174e-04  0 
 -2.258595e-02  -9.839845e-03  0 
 -6.951851e-03  -3.795971e-03  0 
 -4.186483e-02  -2.562853e-02  0 
 -4.278698e-02  -3.404300e-02  0 
 -3.323916e-02  -2.226362e-02  0 
 -1.112572e-02  -1.549975e-03  0 
 -1.193685e-02  -1.626231e-02  0 
 -5.636073e-02  -4.920063e-02  0 
 -4.307199e-02  -4.066829e-02  0 
 -4.535798e-02  -5.056957e-02  0 
 -5.198503e-02  -4.081334e-02  0 
 -6.039726e-02  -4.154815e-02  0 
VECTORS displacement_ITER6 FLOAT
 1.036581e-03  4.175675e-03  0 
 -5.544963e-02  -2.315931e-02  0 
 -1.619662e-02  -1.834918e-02  0 
 -2.888138e-02  -2.963980e-02  0 
 -4.058628e-02  -3.086778e-02  0 
 -5.547279e-02  -3.161624e-02  0 
 -5.549022e-02  -4.008887e-02  0 
 4.697512e-03  4.074143e-03  0 
 -4.307556e-03  4.091626e-03  0 
 -1.359961e-03  -4.198348e-03  0 
 -4.699160e-02  -2.312152e-02  0 
 -3.849312e-02  -2.304958e-02  0 
 -2.994905e-02  -2.296253e-02  0 
 -1.279529e-03  -4.632553e-03  0 
 -2.098225e-02  -1.261967e-02  0 
 -7.768762e-03  -2.205039e-03  0 
 -2.742226e-02  -1.494980e-02  0 
 -4.378126e-02  -2.219475e-02  0 
 -2.350133e-02  -1.244033e-02  0 
 -1.443728e-02  -1.839780e-03  0 
 -1.900513e-02  -7.223605e-03  0 
 -8.313568e-03  -8.321528e-04  0 
 -3.357183e-02  -1.662656e-02  0 
 -3.500446e-02  -2.281107e-02  0 
 -2.668039e-02  -1.812796e-02  0 
 -1.041653e-02  -2.246609e-03  0 
 -8.517201e-03  -9.895264e-03  0 
 -4.625451e-02  -3.881174e-02  0 
 -3.305756e-02  -3.033195e-02  0 
 -3.532757e-02  -4.017303e-02  0 
 -4.190992e-02  -3.047899e-02  0 
 -5.026687e-02  -3.120708e-02  0 
VECTORS displacement_ITER7 FLOAT
 1.158380e-02  5.223822e-03  0 
 -4.030651e-02  -8.943517e-03  0 
 -6.372800e-03  -8.929064e-03  0 
 -1.885705e-02  -1.558960e-02  0 
 -2.844862e-02  -1.623518e-02  0 
 -4.032457e-02  -1.462510e-02  0 
 -4.033698e-02  -2.031962e-02  0 
 5.768660e-03  8.889975e-03  0 
 -3.403759e-03  8.908182e-03  0 
 2.580744e-03  2.906215e-03  0 
 -3.462329e-02  -8.911469e-03  0 
 -2.890135e-02  -8.843829e-03  0 
 -2.313708e-02  -8.757454e-03  0 
 -3.233586e-04  2.467967e-05  0 
 -1.386588e-02  -2.455821e-03  0 
 -4.591539e-03  2.491153e-03  0 
 -2.017488e-02  -4.806400e-03  0 
 -3.154798e-02  -9.136333e-03  0 
 -1.744244e-02  -5.171586e-03  0 
 -9.685518e-03  2.362972e-03  0 
 -1.326595e-02  -5.018440e-04  0 
 -5.341383e-03  5.528994e-03  0 
 -2.391154e-02  -5.476649e-03  0 
 -2.454092e-02  -9.981765e-03  0 
 -2.063211e-02  -7.278286e-03  0 
 -5.083704e-03  3.279616e-03  0 
 -3.159981e-03  -1.633499e-04  0 
 -3.413096e-02  -1.946366e-02  0 
 -2.524781e-02  -1.373848e-02  0 
 -2.679015e-02  -2.038237e-02  0 
 -3.121082e-02  -1.385562e-02  0 
 -3.682741e-02  -1.434891e-02  0 
VECTORS displacement_ITER8 FLOAT
 7.026419e-03  4.044099e-03  0 
 -3.529873e-02  -7.099061e-03  0 
 -9.150792e-03  -7.271131e-03  0 
 -1.963406e-02  -1.253859e-02  0 
 -2.658888e-02  -1.330325e-02  0 
 -3.531142e-02  -1.065310e-02  0 
 -3.531854e-02  -1.421711e-02  0 
 -2.116519e-03  6.579768e-03  0 
 -7.703756e-03  6.598965e-03  0 
 -1.786041e-03  2.034625e-03  0 
 -3.174244e-02  -7.072931e-03  0 
 -2.814943e-02  -7.010027e-03  0 
 -2.451545e-02  -6.924789e-03  0 
 -5.825855e-03  1.192194e-03  0 
 -1.554768e-02  -2.779276e-03  0 
 -8.075528e-03  3.092654e-04  0 
 -2.103654e-02  -5.522082e-03  0 
 -2.906105e-02  -7.979845e-03  0 
 -1.807775e-02  -6.832193e-03  0 
 -1.121864e-02  -8.007596e-04  0 
 -1.527601e-02  -2.806898e-03  0 
 -9.674667e-03  2.993780e-03  0 
 -2.339498e-02  -5.668887e-03  0 
 -2.376943e-02  -8.768300e-03  0 
 -2.158619e-02  -6.864326e-03  0 
 -7.018520e-03  8.392334e-04  0 
 -7.422899e-03  4.114894e-04  0 
 -3.143663e-02  -1.368532e-02  0 
 -2.586151e-02  -1.007488e-02  0 
 -2.684521e-02  -1.426553e-02  0 
 -2.960911e-02  -1.016749e-02  0 
 -3.312450e-02  -1.047987e-02  0 
VECTORS displacement_ITER9 FLOAT
 5.554121e-03  6.928397e-03  0 
 -2.788668e-02  -5.189029e-03  0 
 -7.687768e-03  -5.023722e-03  0 
 -1.570449e-02  -1.055208e-02  0 
 -2.080334e-02  -1.115237e-02  0 
 -2.789625e-02  -7.594768e-03  0 
 -2.789987e-02  -1.000892e-02  0 
 -2.648089e-03  5.627138e-03  0 
 -3.086633e-03  5.646330e-03  0 
 -1.778104e-04  2.494346e-04  0 
 -2.547779e-02  -5.165190e-03  0 
 -2.303306e-02  -5.103794e-03  0 
 -2.054557e-02  -5.019369e-03  0 
 -2.932976e-03  5.231211e-03  0 
 -1.153077e-02  -2.846236e-03  0 
 -4.400789e-03  3.724114e-04  0 
 -1.675104e-02  -4.608097e-03  0 
 -2.301033e-02  -6.611214e-03  0 
 -1.318346e-02  -5.658344e-03  0 
 -7.175145e-03  -5.462377e-04  0 
 -1.143733e-02  -2.684346e-03  0 
 -6.581673e-03  1.350643e-03  0 
 -1.851043e-02  -4.945829e-03  0 
 -1.859235e-02  -7.788452e-03  0 
 -1.666373e-02  -4.981214e-03  0 
 -4.293005e-03  -3.213840e-04  0 
 -5.512074e-03  9.813659e-04  0 
 -2.527393e-02  -9.652185e-03  0 
 -2.148014e-02  -7.183070e-03  0 
 -2.216265e-02  -1.005019e-02  0 
 -2.403466e-02  -7.261533e-03  0 
 -2.641681e-02  -7.477378e-03  0 
VECTORS displacement_ITER10 FLOAT
 3.981379e-03  1.152911e-02  0 
 -2.087845e-02  1.493575e-04  0 
 -5.469014e-03  -1.033706e-03  0 
 -1.076245e-02  -6.344608e-03  0 
 -1.458327e-02  -6.075817e-03  0 
 -2.088629e-02  -1.638104e-03  0 
 -2.088770e-02  -3.433293e-03  0 
 -2.073739e-03  5.313806e-03  0 
 1.071605e-03  5.330867e-03  0 
 1.808668e-03  -6.356909e-04  0 
 -1.908725e-02  1.723050e-04  0 
 -1.726085e-02  2.328256e-04  0 
 -1.539014e-02  3.151261e-04  0 
 2.420593e-05  8.387628e-03  0 
 -7.097763e-03  -3.409291e-04  0 
 -8.878118e-04  1.741088e-03  0 
 -1.195416e-02  -1.998411e-04  0 
 -1.683598e-02  -1.792443e-03  0 
 -8.578957e-03  -1.468604e-03  0 
 -3.821492e-03  1.837107e-03  0 
 -7.384876e-03  2.146852e-04  0 
 -3.207138e-03  1.524864e-03  0 
 -1.326633e-02  -7.424750e-04  0 
 -1.302837e-02  -3.709113e-03  0 
 -1.150302e-02  -4.079845e-05  0 
 -2.002221e-03  3.371340e-04  0 
 -2.645133e-03  2.896493e-03  0 
 -1.893872e-02  -3.170758e-03  0 
 -1.610206e-02  -1.316932e-03  0 
 -1.662163e-02  -3.471255e-03  0 
 -1.801548e-02  -1.386504e-03  0 
 -1.978789e-02  -1.550879e-03  0 
VECTORS displacement_ITER11 FLOAT
 3.435124e-03  8.676928e-03  0 
 -2.209370e-02  4.672472e-04  0 
 -4.816476e-03  -2.302140e-03  0 
 -9.890534e-03  -6.179237e-03  0 
 -1.465448e-02  -5.439421e-03  0 
 -2.210234e-02  -2.826711e-03  0 
 -2.210368e-02  -6.129573e-03  0 
 -2.762182e-03  6.167623e-04  0 
 -7.098123e-04  6.330853e-04  0 
 -6.018126e-04  -3.488571e-03  0 
 -1.879636e-02  4.917969e-04  0 
 -1.546388e-02  5.536172e-04  0 
 -1.208655e-02  6.338840e-04  0 
 -1.392052e-03  2.622156e-03  0 
 -7.055783e-03  -4.706571e-05  0 
 -2.716448e-03  -1.735453e-04  0 
 -1.042856e-02  9.946911e-04  0 
 -1.692446e-02  -6.612164e-04  0 
 -7.699475e-03  -4.089194e-04  0 
 -5.160168e-03  8.106752e-04  0 
 -7.453494e-03  9.844803e-04  0 
 -3.944119e-03  -2.784132e-04  0 
 -1.276901e-02  7.823292e-04  0 
 -1.281584e-02  -2.579030e-03  0 
 -9.198789e-03  6.180456e-04  0 
 -3.947497e-03  -1.502449e-03  0 
 -2.298690e-03  1.163908e-03  0 
 -1.851371e-02  -5.640373e-03  0 
 -1.333683e-02  -2.291900e-03  0 
 -1.425015e-02  -6.182407e-03  0 
 -1.681833e-02  -2.377242e-03  0 
 -2.007719e-02  -2.668839e-03  0 
VECTORS displacement_ITER12 FLOAT
 5.949660e-03  7.008464e-03  0 
 -2.009415e-02  3.985787e-03  0 
 -1.628289e-03  -1.447188e-03  0 
 -6.750764e-03  -3.440971e-03  0 
 -1.216504e-02  -1.909029e-03  0 
 -2.010253e-02  4.155778e-04  0 
 -2.010290e-02  -3.164006e-03  0 
 -1.125959e-03  -1.319868e-03  0 
 -1.223228e-03  -1.303728e-03  0 
 -1.313696e-03  -2.848930e-03  0 
 -1.652086e-02  4.010490e-03  0 
 -1.291322e-02  4.072459e-03  0 
 -9.260616e-03  4.150409e-03  0 
 -1.186163e-03  -1.405837e-03  0 
 -5.311576e-03  2.702256e-03  0 
 -3.396433e-03  6.691833e-04  0 
 -8.609772e-03  4.972046e-03  0 
 -1.474779e-02  3.185079e-03  0 
 -6.636636e-03  3.624594e-03  0 
 -5.677717e-03  2.714084e-03  0 
 -6.554113e-03  4.272746e-03  0 
 -3.097388e-03  6.589519e-04  0 
 -1.084405e-02  4.791678e-03  0 
 -1.055382e-02  1.101776e-03  0 
 -7.171807e-03  4.444211e-03  0 
 -4.574669e-03  1.842595e-06  0 
 2.134659e-05  1.822483e-03  0 
 -1.621371e-02  -2.633130e-03  0 
 -1.060771e-02  9.884009e-04  0 
 -1.159271e-02  -3.219855e-03  0 
 -1.437692e-02  9.011791e-04  0 
 -1.790775e-02  5.860111e-04  0 
VECTORS displacement_ITER13 FLOAT
 3.642475e-03  7.823145e-03  0 
 -1.636137e-02  2.595992e-03  0 
 -2.064821e-03  -6.066116e-04  0 
 -5.793741e-03  -2.961256e-03  0 
 -1.003878e-02  -1.925710e-03  0 
 -1.636653e-02  -4.658016e-04  0 
 -1.636354e-02  -3.535336e-03  0 
 -1.607632e-03  -1.319920e-03  0 
 -7.138605e-04  -1.304747e-03  0 
 3.518661e-04  -1.219927e-03  0 
 -1.329625e-02  2.617223e-03  0 
 -1.019886e-02  2.676035e-03  0 
 -7.057518e-03  2.750008e-03  0 
 -1.009238e-03  -4.499454e-04  0 
 -4.184654e-03  2.101433e-03  0 
 -2.181189e-03  6.512305e-04  0 
 -6.528623e-03  3.706277e-03  0 
 -1.195146e-02  2.084894e-03  0 
 -4.357732e-03  3.124719e-03  0 
 -3.661598e-03  2.413721e-03  0 
 -4.895060e-03  3.399802e-03  0 
 -2.481491e-03  2.900503e-04  0 
 -8.606651e-03  3.490571e-03  0 
 -8.587342e-03  5.329683e-04  0 
 -4.787885e-03  3.475749e-03  0 
 -2.317211e-03  9.217885e-04  0 
 -5.779507e-05  1.727307e-03  0 
 -1.303268e-02  -3.082921e-03  0 
 -8.219257e-03  2.879469e-05  0 
 -9.069739e-03  -3.589168e-03  0 
 -1.145787e-02  -5.032838e-05  0 
 -1.448538e-02  -3.213551e-04  0 
VECTORS displacement_ITER14 FLOAT
 2.011942e-03  6.423264e-03  0 
 -1.212256e-02  1.157311e-03  0 
 -2.360528e-03  -5.299316e-04  0 
 -5.028827e-03  -2.647624e-03  0 
 -7.887683e-03  -2.034825e-03  0 
 -1.212361e-02  -6.581458e-04  0 
 -1.211638e-02  -2.479280e-03  0 
 -2.409602e-03  -1.467578e-03  0 
 -8.930339e-04  -1.451966e-03  0 
 -1.758562e-05  1.551476e-04  0 
 -1.030361e-02  1.173888e-03  0 
 -8.454898e-03  1.228942e-03  0 
 -6.563239e-03  1.299699e-03  0 
 -1.396657e-03  3.961600e-06  0 
 -3.641465e-03  1.058393e-03  0 
 -2.241933e-03  5.378427e-04  0 
 -5.765794e-03  2.123171e-03  0 
 -9.253630e-03  7.153702e-04  0 
 -3.567561e-03  2.283610e-03  0 
 -2.895883e-03  1.683394e-03  0 
 -4.337270e-03  2.120468e-03  0 
 -2.520328e-03  -3.168824e-04  0 
 -7.032530e-03  1.793747e-03  0 
 -6.887494e-03  -3.408353e-04  0 
 -4.184612e-03  2.455963e-03  0 
 -1.600382e-03  1.209030e-03  0 
 -7.100839e-04  1.191424e-03  0 
 -1.014891e-02  -2.216594e-03  0 
 -7.275112e-03  -3.472649e-04  0 
 -7.798025e-03  -2.524539e-03  0 
 -9.214914e-03  -4.102482e-04  0 
 -1.101029e-02  -5.747131e-04  0 
VECTORS displacement_ITER15 FLOAT
 2.470234e-03  3.276843e-03  0 
 -1.046857e-02  1.639896e-04  0 
 -1.837978e-03  -9.361616e-04  0 
 -4.613611e-03  -2.183146e-03  0 
 -7.074667e-03  -2.049897e-03  0 
 -1.046779e-02  -1.436363e-03  0 
 -1.045861e-02  -3.041647e-03  0 
 -2.301555e-03  -1.124186e-03  0 
 -9.593346e-04  -1.107273e-03  0 
 -7.645882e-04  8.322913e-04  0 
 -8.864997e-03  1.781802e-04  0 
 -7.233192e-03  2.311009e-04  0 
 -5.559685e-03  2.996223e-04  0 
 -1.403553e-03  1.781541e-04  0 
 -3.447803e-03  7.917300e-04  0 
 -2.372321e-03  8.993475e-04  0 
 -5.048783e-03  1.437572e-03  0 
 -8.058502e-03  8.710769e-05  0 
 -3.181711e-03  1.987652e-03  0 
 -2.680043e-03  1.659788e-03  0 
 -3.967396e-03  1.868185e-03  0 
 -2.398154e-03  -1.041397e-04  0 
 -6.198296e-03  1.166522e-03  0 
 -6.102122e-03  -5.009193e-04  0 
 -3.648939e-03  1.692215e-03  0 
 -1.712559e-03  1.468087e-03  0 
 -1.116457e-03  9.562819e-04  0 
 -8.727796e-03  -2.812338e-03  0 
 -6.191877e-03  -1.159868e-03  0 
 -6.657440e-03  -3.086297e-03  0 
 -7.905754e-03  -1.219153e-03  0 
 -9.487241e-03  -1.364243e-03  0 
VECTORS displacement_ITER16 FLOAT
 3.361770e-03  1.380256e-03  0 
 -9.980086e-03  -4.338647e-04  0 
 -7.592371e-04  -1.148368e-03  0 
 -3.721781e-03  -1.855207e-03  0 
 -6.403444e-03  -2.039153e-03  0 
 -9.979354e-03  -2.763404e-03  0 
 -9.970191e-03  -5.097913e-03  0 
 -7.815280e-04  -5.299110e-04  0 
 3.872656e-05  -5.130585e-04  0 
 -9.473259e-04  -5.947464e-06  0 
 -7.647604e-03  -4.198269e-04  0 
 -5.287223e-03  -3.679996e-04  0 
 -2.887101e-03  -3.028608e-04  0 
 -2.299936e-04  2.657744e-04  0 
 -2.566642e-03  9.812903e-04  0 
 -1.477955e-03  1.313408e-03  0 
 -3.141531e-03  1.177579e-03  0 
 -7.113559e-03  2.558394e-05  0 
 -1.790504e-03  1.545807e-03  0 
 -1.967632e-03  1.965721e-03  0 
 -2.722755e-03  2.226735e-03  0 
 -1.232820e-03  4.860545e-04  0 
 -4.937785e-03  1.286900e-03  0 
 -5.147429e-03  -2.571295e-04  0 
 -1.657996e-03  6.226457e-04  0 
 -1.840673e-03  1.172785e-03  0 
 -4.327725e-04  8.466890e-04  0 
 -7.444624e-03  -4.759243e-03  0 
 -3.778030e-03  -2.385108e-03  0 
 -4.433596e-03  -5.149964e-03  0 
 -6.249423e-03  -2.451516e-03  0 
 -8.550158e-03  -2.657247e-03  0 
VECTORS displacement_ITER17 FLOAT
 1.477546e-03  1.012942e-03  0 
 -9.245140e-03  -4.842836e-04  0 
 -1.420675e-03  -1.579311e-03  0 
 -3.656176e-03  -2.427329e-03  0 
 -5.981804e-03  -2.282797e-03  0 
 -9.243956e-03  -2.390896e-03  0 
 -9.234331e-03  -4.302294e-03  0 
 -3.043152e-04  -5.042482e-04  0 
 2.570868e-04  -4.878138e-04  0 
 -8.133676e-04  -2.266576e-04  0 
 -7.335601e-03  -4.707778e-04  0 
 -5.398009e-03  -4.188042e-04  0 
 -3.419634e-03  -3.523823e-04  0 
 7.555655e-05  3.911372e-05  0 
 -2.678260e-03  1.695458e-04  0 
 -1.249984e-03  1.102014e-03  0 
 -3.423369e-03  8.446127e-04  0 
 -6.775395e-03  -3.121663e-04  0 
 -2.069777e-03  1.368638e-03  0 
 -1.758589e-03  1.760258e-03  0 
 -2.689464e-03  1.688125e-03  0 
 -1.025508e-03  1.682247e-04  0 
 -4.941348e-03  7.041872e-04  0 
 -5.002468e-03  -8.130781e-04  0 
 -2.270542e-03  5.158274e-04  0 
 -1.565544e-03  9.278934e-04  0 
 -7.449260e-04  -1.575964e-04  0 
 -7.170103e-03  -4.027395e-03  0 
 -4.159779e-03  -2.072912e-03  0 
 -4.705001e-03  -4.350997e-03  0 
 -6.191829e-03  -2.134715e-03  0 
 -8.075068e-03  -2.304774e-03  0 
VECTORS displacement_ITER18 FLOAT
 -9.085931e-04  1.760358e-03  0 
 -7.515723e-03  -2.605322e-04  0 
 -2.179295e-03  -1.389239e-03  0 
 -3.260883e-03  -2.587256e-03  0 
 -4.895692e-03  -2.129027e-03  0 
 -7.513714e-03  -1.637209e-03  0 
 -7.503371e-03  -3.018175e-03  0 
 -1.124427e-04  -2.465009e-04  0 
 2.938091e-04  -2.316032e-04  0 
 2.614366e-04  -1.419861e-04  0 
 -6.135942e-03  -2.479847e-04  0 
 -4.728096e-03  -1.964794e-04  0 
 -3.279282e-03  -1.296371e-04  0 
 1.638518e-04  1.443961e-04  0 
 -2.443200e-03  -5.490044e-04  0 
 -5.949427e-04  4.832170e-04  0 
 -3.015653e-03  2.417303e-04  0 
 -5.637976e-03  -4.758122e-04  0 
 -1.773797e-03  4.311392e-04  0 
 -9.523406e-04  9.288989e-04  0 
 -2.151312e-03  6.268503e-04  0 
 -8.268541e-04  -1.781174e-04  0 
 -4.216917e-03  5.824226e-05  0 
 -4.280048e-03  -1.175715e-03  0 
 -2.323459e-03  4.717065e-05  0 
 -4.049550e-04  5.797698e-04  0 
 -9.824416e-04  -8.171061e-04  0 
 -6.017400e-03  -2.823408e-03  0 
 -3.829600e-03  -1.395133e-03  0 
 -4.236144e-03  -3.062755e-03  0 
 -5.310779e-03  -1.451029e-03  0 
 -6.671020e-03  -1.576352e-03  0 
VECTORS displacement_ITER19 FLOAT
 1.301278e-03  -6.550053e-04  0 
 -8.217766e-03  9.649922e-04  0 
 -7.015309e-04  -1.443233e-03  0 
 -2.603901e-03  -1.423325e-03  0 
 -4.896927e-03  -9.112013e-04  0 
 -8.216870e-03  -1.165996e-03  0 
 -8.207599e-03  -3.301878e-03  0 
 7.931538e-04  -8.713156e-05  0 
 -3.642536e-04  -7.164427e-05  0 
 3.412079e-04  3.196963e-04  0 
 -6.083885e-03  9.787117e-04  0 
 -3.921501e-03  1.030642e-03  0 
 -1.719059e-03  1.096476e-03  0 
 2.953246e-05  -1.212485e-03  0 
 -2.288701e-03  7.076332e-04  0 
 -8.109760e-04  7.424035e-04  0 
 -2.107463e-03  1.375287e-03  0 
 -5.679043e-03  1.035890e-03  0 
 -1.365819e-03  8.433467e-04  0 
 -1.044743e-03  1.178725e-03  0 
 -1.837090e-03  1.613000e-03  0 
 -7.633255e-04  7.942932e-04  0 
 -3.844871e-03  1.619995e-03  0 
 -4.097470e-03  3.929679e-04  0 
 -1.488438e-03  5.538940e-04  0 
 -4.010607e-04  9.791504e-04  0 
 -4.697319e-04  -3.291877e-04  0 
 -5.898323e-03  -2.993208e-03  0 
 -2.538855e-03  -8.159951e-04  0 
 -3.142588e-03  -3.353267e-03  0 
 -4.804859e-03  -8.802766e-04  0 
 -6.909832e-03  -1.069194e-03  0 
VECTORS displacement_ITER20 FLOAT
 -1.059828e-03  1.760269e-04  0 
 -6.480195e-03  7.401082e-04  0 
 -1.939529e-03  -1.072853e-03  0 
 -2.811436e-03  -1.514162e-03  0 
 -4.111123e-03  -1.055278e-03  0 
 -6.478147e-03  -6.855965e-04  0 
 -6.468041e-03  -2.115308e-03  0 
 -3.212014e-04  4.207568e-04  0 
 1.374099e-07  4.357176e-04  0 
 1.049543e-03  -1.263159e-04  0 
 -5.051324e-03  7.523662e-04  0 
 -3.594394e-03  8.028423e-04  0 
 -2.097397e-03  8.682976e-04  0 
 -1.013961e-04  7.299118e-04  0 
 -2.305996e-03  -2.814829e-04  0 
 -7.282968e-05  1.469409e-04  0 
 -2.017175e-03  3.575491e-04  0 
 -4.703199e-03  3.901814e-04  0 
 -1.142144e-03  -3.289493e-04  0 
 -2.401237e-04  2.939099e-04  0 
 -1.506525e-03  2.109965e-04  0 
 -8.796378e-04  8.240603e-05  0 
 -3.354030e-03  4.893409e-04  0 
 -3.615081e-03  -3.555656e-04  0 
 -1.698789e-03  -1.102514e-04  0 
 4.592900e-04  2.646986e-04  0 
 -1.412853e-03  -5.975442e-04  0 
 -4.928135e-03  -1.913342e-03  0 
 -2.664096e-03  -4.377464e-04  0 
 -3.082600e-03  -2.161115e-03  0 
 -4.196245e-03  -4.933151e-04  0 
 -5.605197e-03  -6.224273e-04  0 
VECTORS displacement_ITER21 FLOAT
 1.307202e-04  -1.352902e-03  0 
 -6.480312e-03  6.462250e-04  0 
 -1.284259e-03  -1.509618e-03  0 
 -2.622938e-03  -1.494379e-03  0 
 -4.086719e-03  -1.088913e-03  0 
 -6.478145e-03  -7.083113e-04  0 
 -6.468009e-03  -2.066555e-03  0 
 1.225631e-04  3.816504e-04  0 
 4.575021e-05  3.978416e-04  0 
 4.976980e-04  -7.203600e-05  0 
 -5.122651e-03  6.583185e-04  0 
 -3.737246e-03  7.080420e-04  0 
 -2.311334e-03  7.726810e-04  0 
 7.819071e-05  3.054583e-04  0 
 -2.282936e-03  -1.888164e-04  0 
 -3.176496e-04  4.606815e-04  0 
 -2.174408e-03  4.911557e-04  0 
 -4.730193e-03  3.787138e-04  0 
 -1.215949e-03  2.674026e-05  0 
 -4.983650e-04  6.235943e-04  0 
 -1.634367e-03  5.718013e-04  0 
 -7.514424e-04  2.844975e-04  0 
 -3.464875e-03  5.842498e-04  0 
 -3.588340e-03  -2.958698e-04  0 
 -1.725478e-03  9.274069e-05  0 
 -7.914190e-07  4.413822e-04  0 
 -1.233318e-03  -6.828960e-04  0 
 -5.005659e-03  -1.875503e-03  0 
 -2.852219e-03  -4.722393e-04  0 
 -3.251426e-03  -2.112451e-03  0 
 -4.310250e-03  -5.257338e-04  0 
 -5.649029e-03  -6.485504e-04  0 
VECTORS displacement_ITER22 FLOAT
 -3.570410e-04  -1.131656e-03  0 
 -5.549837e-03  -3.722529e-04  0 
 -1.398607e-03  -1.873976e-03  0 
 -2.428452e-03  -2.213686e-03  0 
 -3.626763e-03  -1.850857e-03  0 
 -5.546765e-03  -1.328802e-03  0 
 -5.535879e-03  -2.288351e-03  0 
 4.270021e-04  4.528556e-05  0 
 2.337412e-04  6.133403e-05  0 
 4.615214e-04  -9.476296e-05  0 
 -4.590204e-03  -3.613642e-04  0 
 -3.603611e-03  -3.131077e-04  0 
 -2.575994e-03  -2.491921e-04  0 
 3.051853e-04  -1.449180e-04  0 
 -2.037182e-03  -9.151046e-04  0 
 -2.686121e-04  1.901635e-04  0 
 -2.217436e-03  -3.358804e-04  0 
 -4.204583e-03  -6.346164e-04  0 
 -1.155919e-03  -3.954092e-04  0 
 -4.249380e-04  2.722843e-04  0 
 -1.524328e-03  -5.825619e-06  0 
 -5.163318e-04  -1.503368e-04  0 
 -3.220850e-03  -4.021555e-04  0 
 -3.240655e-03  -1.197895e-03  0 
 -1.728502e-03  -4.955030e-04  0 
 4.074449e-05  2.787605e-04  0 
 -1.039646e-03  -1.263019e-03  0 
 -4.507965e-03  -2.157785e-03  0 
 -2.973770e-03  -1.152162e-03  0 
 -3.267848e-03  -2.331709e-03  0 
 -4.017063e-03  -1.199615e-03  0 
 -4.962702e-03  -1.288216e-03  0 
VECTORS displacement_ITER23 FLOAT
 -1.776302e-04  -5.717652e-04  0 
 -5.193486e-03  -4.005595e-04  0 
 -1.036558e-03  -1.677442e-03  0 
 -1.982261e-03  -2.080934e-03  0 
 -3.283305e-03  -1.666374e-03  0 
 -5.190248e-03  -1.430505e-03  0 
 -5.179297e-03  -2.463235e-03  0 
 9.063297e-04  -2.066748e-04  0 
 9.254856e-05  -1.907382e-04  0 
 -1.268807e-04  3.820225e-04  0 
 -4.160666e-03  -3.901507e-04  0 
 -3.101492e-03  -3.431163e-04  0 
 -2.001871e-03  -2.808067e-04  0 
 3.716760e-04  -9.996297e-04  0 
 -1.699179e-03  -6.066240e-04  0 
 -6.490628e-04  3.639338e-04  0 
 -1.861896e-03  -2.054883e-04  0 
 -3.836036e-03  -4.841314e-04  0 
 -1.024140e-03  -3.168719e-04  0 
 -6.378942e-04  2.809458e-04  0 
 -1.452555e-03  3.014137e-04  0 
 -3.626886e-04  5.542932e-05  0 
 -2.869420e-03  -1.344480e-04  0 
 -2.888095e-03  -9.505887e-04  0 
 -1.388714e-03  -5.114298e-04  0 
 -2.860835e-04  4.189459e-04  0 
 -4.977993e-04  -1.174368e-03  0 
 -4.071355e-03  -2.321765e-03  0 
 -2.424564e-03  -1.245533e-03  0 
 -2.736764e-03  -2.507615e-03  0 
 -3.543228e-03  -1.292394e-03  0 
 -4.561036e-03  -1.386597e-03  0 
VECTORS displacement_ITER24 FLOAT
 -1.641603e-03  4.847596e-04  0 
 -3.744944e-03  -1.318368e-03  0 
 -1.799363e-03  -1.576518e-03  0 
 -1.987298e-03  -2.505557e-03  0 
 -2.598085e-03  -2.252148e-03  0 
 -3.740744e-03  -1.914280e-03  0 
 -3.729197e-03  -2.512241e-03  0 
 -1.469016e-04  -6.716692e-04  0 
 2.018132e-04  -6.560479e-04  0 
 5.559498e-04  2.711486e-04  0 
 -3.146260e-03  -1.309652e-03  0 
 -2.522426e-03  -1.264898e-03  0 
 -1.858726e-03  -1.204123e-03  0 
 9.115928e-05  -3.373566e-04  0 
 -1.478729e-03  -1.584475e-03  0 
 -3.229271e-04  -5.519046e-04  0 
 -1.627315e-03  -1.382839e-03  0 
 -2.921975e-03  -1.516465e-03  0 
 -9.810833e-04  -1.521054e-03  0 
 -2.619764e-04  -7.862623e-04  0 
 -1.216640e-03  -1.110659e-03  0 
 -5.254641e-04  -1.020183e-03  0 
 -2.263394e-03  -1.365222e-03  0 
 -2.343770e-03  -1.901492e-03  0 
 -1.454201e-03  -1.542704e-03  0 
 3.790890e-04  -1.303792e-04  0 
 -8.919544e-04  -1.543818e-03  0 
 -3.094617e-03  -2.436401e-03  0 
 -2.124178e-03  -1.794485e-03  0 
 -2.321122e-03  -2.553072e-03  0 
 -2.789683e-03  -1.834507e-03  0 
 -3.378630e-03  -1.891198e-03  0 
VECTORS displacement_ITER25 FLOAT
 1.237317e-03  -1.641994e-03  0 
 -4.458211e-03  -1.057636e-03  0 
 -5.213302e-04  -1.587840e-03  0 
 -1.896295e-03  -1.533988e-03  0 
 -3.002612e-03  -1.657387e-03  0 
 -4.454378e-03  -2.088438e-03  0 
 -4.443289e-03  -3.121369e-03  0 
 -2.021401e-04  -4.468978e-04  0 
 -3.361107e-04  -4.294835e-04  0 
 -2.316603e-04  6.457944e-04  0 
 -3.424908e-03  -1.048812e-03  0 
 -2.367175e-03  -1.005009e-03  0 
 -1.269906e-03  -9.456782e-04  0 
 -2.848044e-04  -5.779737e-04  0 
 -1.547120e-03  -5.287859e-04  0 
 -9.295169e-04  -1.320075e-05  0 
 -1.472186e-03  -6.798547e-04  0 
 -3.246862e-03  -8.541191e-04  0 
 -1.154445e-03  -9.225164e-04  0 
 -8.943614e-04  -2.398918e-04  0 
 -1.430794e-03  -1.952577e-04  0 
 -7.986754e-04  -2.634679e-04  0 
 -2.328678e-03  -4.337927e-04  0 
 -2.485629e-03  -9.315060e-04  0 
 -1.239024e-03  -1.180018e-03  0 
 -4.394156e-04  3.069817e-04  0 
 -7.360721e-04  -6.354740e-04  0 
 -3.334151e-03  -2.979980e-03  0 
 -1.689956e-03  -1.908787e-03  0 
 -1.999338e-03  -3.166467e-03  0 
 -2.806690e-03  -1.952009e-03  0 
 -3.824580e-03  -2.044803e-03  0 
VECTORS displacement_ITER26 FLOAT
 -2.673251e-04  -1.943760e-04  0 
 -3.090349e-03  -1.506095e-03  0 
 -1.315745e-03  -1.321381e-03  0 
 -1.955716e-03  -1.965049e-03  0 
 -2.368832e-03  -2.105339e-03  0 
 -3.085525e-03  -1.815689e-03  0 
 -3.073690e-03  -2.126621e-03  0 
 -6.491079e-04  -9.803531e-05  0 
 2.511569e-04  -8.133277e-05  0 
 1.516992e-04  -1.218674e-04  0 
 -2.778045e-03  -1.498477e-03  0 
 -2.442043e-03  -1.455862e-03  0 
 -2.064913e-03  -1.395803e-03  0 
 -4.414660e-05  7.746455e-04  0 
 -1.354896e-03  -1.336908e-03  0 
 -2.759631e-04  -3.615264e-04  0 
 -1.719998e-03  -1.366154e-03  0 
 -2.549381e-03  -1.641533e-03  0 
 -1.187515e-03  -1.305960e-03  0 
 -4.539106e-04  -5.824479e-04  0 