# vtk DataFile Version 3.1
this is an vtk file created by FEMAC
ASCII
DATASET UNSTRUCTURED_GRID
POINTS 32 FLOAT
0.000000 4.000000 0.000000
1.000000 4.000000 0.000000
0.250000 4.000000 0.000000
0.500000 4.000000 0.000000
0.750000 4.000000 0.000000
0.000000 3.500000 0.000000
0.000000 3.750000 0.000000
0.000000 4.250000 0.000000
0.000000 4.500000 0.000000
1.000000 4.250000 0.000000
1.000000 4.500000 0.000000
1.000000 4.750000 0.000000
0.272476 3.537430 0.000000
0.660302 3.785301 0.000000
0.825570 3.361866 0.000000
0.825957 3.628272 0.000000
0.594871 3.497465 0.000000
0.400442 3.782533 0.000000
0.847252 3.832715 0.000000
0.153820 3.761660 0.000000
0.272476 4.537430 0.000000
0.660045 4.212404 0.000000
0.162952 4.171693 0.000000
0.825570 4.361866 0.000000
0.825957 4.628272 0.000000
0.594871 4.497465 0.000000
0.372389 4.253823 0.000000
0.165804 4.339408 0.000000
0.847252 4.832715 0.000000
0.847123 4.164854 0.000000
1.175045 4.338476 0.000000
1.200764 4.609959 0.000000
CELLS 43 172 
3 3 13  4
3 17 13  3
3 16 17 12
3 16 13 17
3 2 17  3
3 16 15 13
3 14 15 16
3 4 18  1
3 18  4 13
3 13 15 18
3 19  2  0
3 6 19  0
3 5 19  6
3 17 19 12
3 19 17  2
3 5 12 19
3 21  3  4
3 2 22  0
3 22  7  0
3 10 24 23
3 25 21 23
3 21 26  3
3 26 25 20
3 21 25 26
3 23  9 10
3 11 24 10
3 26  2  3
3 22  2 26
3 23 24 25
3 22 27  7
3 29  4  1
3 9 29  1
3 4 29 21
3 27 26 20
3 22 26 27
3 28 24 11
3 23 29  9
3 23 21 29
3 27  8  7
3 8 27 20
3 30 10  9
3 31 11 10
3 30 31 10
CELL_TYPES 43
5 5 5 5 5 5 5 5 5 5 5 5 5 5 5 5 5 5 5 5 5 5 5 5 5 5 5 5 5 5 5 5 5 5 5 5 5 5 5 5 5 5 5 
POINT_DATA 32
VECTORS displacement_ITER1 FLOAT
 0  0  0 
 -3.741601e-04  -1.373551e-03  0 
 -1.874788e-04  -1.839541e-04  0 
 -3.069039e-04  -4.981255e-04  0 
 -3.650236e-04  -9.370561e-04  0 
 0  0  0 
 0  0  0 
 0  0  0 
 0  0  0 
 4.944539e-05  -1.407185e-03  0 
 5.950411e-04  -1.570656e-03  0 
 1.371963e-03  -1.823924e-03  0 
 1.100400e-03  -1.300026e-04  0 
 4.933228e-03  -5.393472e-03  0 
 -4.371072e-03  -2.506964e-02  0 
 5.278235e-03  -1.368043e-02  0 
 2.735257e-03  -5.192112e-03  0 
 2.809892e-03  -1.926096e-03  0 
 4.119690e-03  -5.893202e-03  0 
 8.639160e-04  -5.350981e-04  0 
 2.853498e-04  -2.778354e-04  0 
 -2.531771e-05  -7.424805e-04  0 
 -9.806702e-06  -2.517659e-05  0 
 2.344464e-04  -1.074641e-03  0 
 8.850440e-04  -1.167010e-03  0 
 4.546095e-04  -6.176447e-04  0 
 3.951884e-05  -2.243970e-04  0 
 3.561945e-05  -3.609141e-05  0 
 1.716379e-03  -1.224851e-03  0 
 -1.053235e-04  -1.103838e-03  0 
 2.848085e-03  -1.378223e-02  0 
 1.694746e-02  -3.153729e-02  0 
VECTORS displacement_ITER2 FLOAT
 0  0  0 
 -2.563158e-04  -1.253744e-03  0 
 -1.685060e-04  -1.724158e-04  0 
 -2.638503e-04  -4.611307e-04  0 
 -2.927911e-04  -8.589200e-04  0 
 0  0  0 
 0  0  0 
 0  0  0 
 0  0  0 
 7.435243e-05  -1.294449e-03  0 
 5.425370e-04  -1.423472e-03  0 
 1.172193e-03  -1.652695e-03  0 
 2.630276e-03  9.038370e-04  0 
 4.282140e-03  -4.639949e-04  0 
 1.248666e-02  3.816198e-03  0 
 8.760466e-03  1.947944e-03  0 
 7.600271e-03  1.839245e-03  0 
 2.104913e-03  -1.030267e-03  0 
 5.561652e-03  3.152353e-04  0 
 6.829151e-04  -6.945250e-04  0 
 2.700335e-04  -2.723981e-04  0 
 1.952440e-06  -7.024014e-04  0 
 -7.510871e-06  -2.855544e-05  0 
 2.354047e-04  -1.003957e-03  0 
 7.806393e-04  -1.086432e-03  0 
 4.221181e-04  -6.027659e-04  0 
 4.374576e-05  -2.261047e-04  0 
 3.588520e-05  -4.096763e-05  0 
 1.460768e-03  -1.141856e-03  0 
 -5.648803e-05  -1.031465e-03  0 
 4.156118e-03  -6.470991e-03  0 
 1.475348e-02  -1.762503e-02  0 
VECTORS displacement_ITER3 FLOAT
 0  0  0 
 1.265422e-04  -3.282451e-04  0 
 -3.243799e-05  -6.308979e-05  0 
 -1.316097e-05  -1.326258e-04  0 
 3.554352e-05  -2.108467e-04  0 
 0  0  0 
 0  0  0 
 0  0  0 
 0  0  0 
 7.747667e-05  -2.734773e-04  0 
 4.555565e-05  -2.106033e-04  0 
 -1.173616e-04  -1.384857e-04  0 
 -2.365529e-04  3.106674e-04  0 
 -8.376182e-05  9.485644e-04  0 
 -3.854346e-03  2.241988e-03  0 
 -1.465502e-04  2.266122e-03  0 
 -8.449348e-04  2.276966e-03  0 
 -4.204213e-04  6.481186e-04  0 
 5.869835e-04  9.663022e-04  0 
 -1.818414e-04  1.705670e-04  0 
 7.150932e-05  -1.072236e-04  0 
 6.033501e-05  -2.239913e-04  0 
 -3.944409e-07  -2.938301e-05  0 
 8.211024e-05  -2.659051e-04  0 
 2.191385e-06  -2.582993e-04  0 
 7.535644e-05  -2.422689e-04  0 
 2.206047e-05  -1.227741e-04  0 
 1.445594e-05  -3.653970e-05  0 
 -2.478774e-04  -3.161360e-04  0 
 8.786600e-05  -2.826702e-04  0 
 1.253422e-03  -7.622535e-04  0 
 3.938215e-03  -3.953745e-03  0 
VECTORS displacement_ITER4 FLOAT
 0  0  0 
 3.261382e-04  8.153889e-05  0 
 3.342262e-05  -9.755506e-06  0 
 1.053706e-04  1.159444e-05  0 
 1.951417e-04  7.036559e-05  0 
 0  0  0 
 0  0  0 
 0  0  0 
 0  0  0 
 9.264608e-05  1.633446e-04  0 
 -1.283536e-04  2.748146e-04  0 
 -5.724696e-04  4.384124e-04  0 
 1.060831e-03  6.284109e-04  0 
 7.396664e-04  1.693238e-03  0 
 7.879801e-03  1.024735e-02  0 
 2.880152e-03  5.588560e-03  0 
 3.097601e-03  2.807041e-03  0 
 2.590122e-04  2.194713e-04  0 
 1.681680e-03  2.252310e-03  0 
 9.381137e-05  -1.403485e-04  0 
 -7.016708e-06  -4.017279e-05  0 
 9.795568e-05  -1.913838e-05  0 
 6.692117e-06  -2.749478e-05  0 
 3.111615e-05  4.802400e-05  0 
 -2.754801e-04  8.533003e-05  0 
 -5.306662e-05  -8.105414e-05  0 
 2.313025e-05  -7.333887e-05  0 
 8.607460e-06  -3.438758e-05  0 
 -8.650046e-04  9.078400e-06  0 
 1.658289e-04  3.593646e-05  0 
 9.862377e-04  1.424526e-03  0 
 1.790307e-03  5.136406e-04  0 
VECTORS displacement_ITER5 FLOAT
 0  0  0 
 2.238978e-04  -5.054749e-04  0 
 -4.436012e-05  -8.371635e-05  0 
 -2.211045e-05  -2.079902e-04  0 
 5.688808e-05  -3.399406e-04  0 
 0  0  0 
 0  0  0 
 0  0  0 
 0  0  0 
 1.157790e-04  -4.479687e-04  0 
 1.445469e-04  -4.486622e-04  0 
 1.973743e-04  -4.944201e-04  0 
 4.969165e-04  -5.710675e-05  0 
 6.481486e-04  -4.752005e-04  0 
 4.114987e-03  6.210029e-04  0 
 1.459248e-03  -2.819494e-04  0 
 1.576596e-03  -6.139255e-04  0 
 4.457309e-04  -5.053893e-04  0 
 7.060149e-04  -4.237288e-04  0 
 1.609942e-04  -2.261906e-04  0 
 1.234370e-04  -1.654205e-04  0 
 9.559821e-05  -3.544533e-04  0 
 5.512297e-06  -3.576920e-05  0 
 1.330982e-04  -4.279312e-04  0 
 1.629203e-04  -4.134668e-04  0 
 1.622508e-04  -3.432444e-04  0 
 5.028101e-05  -1.686198e-04  0 
 2.741647e-05  -5.022071e-05  0 
 2.455956e-04  -4.024453e-04  0 
 1.358092e-04  -4.597290e-04  0 
 1.881536e-04  -8.150965e-04  0 
 4.571364e-05  -9.421323e-04  0 
VECTORS displacement_ITER6 FLOAT
 0  0  0 
 2.512566e-04  -2.295518e-04  0 
 -1.074077e-05  -3.323052e-05  0 
 1.016715e-05  -9.633604e-05  0 
 8.017658e-05  -1.480500e-04  0 
 0  0  0 
 0  0  0 
 0  0  0 
 0  0  0 
 5.915158e-05  -1.896550e-04  0 
 8.511221e-05  -2.748231e-04  0 
 2.113454e-04  -4.073357e-04  0 
 2.377159e-05  -1.298262e-04  0 
 -1.695415e-05  2.644209e-05  0 
 -7.063257e-04  -6.783884e-05  0 
 -6.192470e-05  1.717047e-04  0 
 -4.502731e-05  2.158430e-05  0 
 -3.317353e-05  -2.818139e-05  0 
 1.129943e-04  -1.830577e-05  0 
 4.938611e-06  -4.840777e-05  0 
 3.355464e-05  -4.440829e-05  0 
 5.950783e-05  -1.771080e-04  0 
 5.932923e-06  -1.651116e-05  0 
 4.415820e-05  -2.050462e-04  0 
 1.121127e-04  -2.342984e-04  0 
 4.460907e-05  -1.289923e-04  0 
 3.145647e-05  -7.850279e-05  0 
 1.684077e-05  -2.355996e-05  0 
 2.783623e-04  -2.924640e-04  0 
 1.060663e-04  -2.379243e-04  0 
 2.082477e-04  -3.246324e-04  0 
 4.194037e-04  -7.643999e-04  0 
VECTORS displacement_ITER7 FLOAT
 0  0  0 
 2.358526e-04  -3.006392e-04  0 
 -1.723219e-05  -3.722594e-05  0 
 -2.278314e-06  -1.104856e-04  0 
 6.630828e-05  -1.844102e-04  0 
 0  0  0 
 0  0  0 
 0  0  0 
 0  0  0 
 6.422416e-05  -2.434605e-04  0 
 9.314203e-05  -3.099723e-04  0 
 2.201411e-04  -4.407164e-04  0 
 4.024610e-05  -7.766087e-05  0 
 1.146113e-04  -1.103572e-04  0 
 -2.624989e-04  -3.004894e-04  0 
 1.452172e-04  -1.157064e-04  0 
 6.983449e-05  -6.533566e-05  0 
 3.923895e-05  -7.450934e-05  0 
 2.120048e-04  -1.598491e-04  0 
 1.879141e-05  -4.692881e-05  0 
 4.020524e-05  -4.328447e-05  0 
 6.218953e-05  -2.060327e-04  0 
 5.605784e-06  -1.534061e-05  0 
 5.768222e-05  -2.466628e-04  0 
 1.210939e-04  -2.639671e-04  0 
 6.716691e-05  -1.588331e-04  0 
 3.232222e-05  -8.161925e-05  0 
 1.853002e-05  -2.176868e-05  0 
 2.811396e-04  -3.269147e-04  0 
 1.072186e-04  -2.835832e-04  0 
 2.416432e-04  -4.092705e-04  0 
 3.199041e-04  -7.201368e-04  0 
VECTORS displacement_ITER8 FLOAT
 0  0  0 
 3.031951e-04  -1.993730e-04  0 
 -2.508955e-06  -2.529708e-05  0 
 2.521817e-05  -8.561169e-05  0 
 1.103865e-04  -1.330858e-04  0 
 0  0  0 
 0  0  0 
 0  0  0 
 0  0  0 
 8.217366e-05  -1.706221e-04  0 
 8.043746e-05  -2.469223e-04  0 
 1.959723e-04  -3.922822e-04  0 
 9.474804e-05  7.417873e-06  0 
 2.118080e-04  -5.031525e-05  0 
 3.883502e-04  1.537518e-04  0 
 3.529096e-04  5.265502e-05  0 
 2.494890e-04  2.221167e-05  0 
 9.725435e-05  -5.517012e-05  0 
 3.304715e-04  -5.845692e-05  0 
 3.176909e-05  -3.435772e-05  0 
 3.319281e-05  -3.743222e-05  0 
 7.660636e-05  -1.760285e-04  0 
 8.525738e-06  -1.454022e-05  0 
 6.025427e-05  -2.020001e-04  0 
 9.618140e-05  -2.177462e-04  0 
 6.006772e-05  -1.390623e-04  0 
 3.762623e-05  -7.380023e-05  0 
 1.940109e-05  -2.195227e-05  0 
 2.542315e-04  -2.724739e-04  0 
 1.325746e-04  -2.292315e-04  0 
 2.729245e-04  -2.991882e-04  0 
 2.235780e-04  -5.564604e-04  0 
VECTORS displacement_ITER9 FLOAT
 0  0  0 
 2.887562e-04  -1.974589e-04  0 
 -3.439009e-06  -2.443363e-05  0 
 2.175743e-05  -8.429573e-05  0 
 1.026753e-04  -1.324894e-04  0 
 0  0  0 
 0  0  0 
 0  0  0 
 0  0  0 
 7.825943e-05  -1.727925e-04  0 
 8.463682e-05  -2.517787e-04  0 
 1.947891e-04  -3.896224e-04  0 
 6.494823e-05  -2.220453e-05  0 
 1.580968e-04  -9.575446e-05  0 
 2.518390e-04  -7.302965e-05  0 
 2.433206e-04  -9.866266e-05  0 
 1.746860e-04  -5.146736e-05  0 
 7.484984e-05  -6.761335e-05  0 
 2.286779e-04  -1.435194e-04  0 
 2.631560e-05  -3.420835e-05  0 
 3.339612e-05  -3.498626e-05  0 
 7.222459e-05  -1.718859e-04  0 
 8.187422e-06  -1.332781e-05  0 
 5.853112e-05  -2.004450e-04  0 
 1.013793e-04  -2.228523e-04  0 
 5.978773e-05  -1.329330e-04  0 
 3.630127e-05  -7.029618e-05  0 
 1.897887e-05  -2.020932e-05  0 
 2.497153e-04  -2.680390e-04  0 
 1.253369e-04  -2.262455e-04  0 
 2.493176e-04  -3.584699e-04  0 
 3.165840e-04  -5.282830e-04  0 
VECTORS displacement_ITER10 FLOAT
 0  0  0 
 2.908861e-04  -1.711294e-04  0 
 -1.256447e-06  -2.164080e-05  0 
 2.506338e-05  -7.789551e-05  0 
 1.063799e-04  -1.201477e-04  0 
 0  0  0 
 0  0  0 
 0  0  0 
 0  0  0 
 7.915258e-05  -1.568893e-04  0 
 8.267580e-05  -2.383643e-04  0 
 1.895814e-04  -3.762430e-04  0 
 4.099280e-05  3.187689e-06  0 
 1.806612e-04  -1.007329e-04  0 
 -6.249078e-05  -3.092193e-04  0 
 2.201965e-04  -1.752264e-04  0 
 9.047772e-05  -2.927491e-05  0 
 7.757022e-05  -3.866344e-05  0 
 2.538484e-04  -1.391156e-04  0 
 2.247188e-05  -1.718287e-05  0 
 3.354017e-05  -3.149442e-05  0 
 7.171580e-05  -1.620179e-04  0 
 8.326653e-06  -1.233544e-05  0 
 5.752784e-05  -1.884494e-04  0 
 9.768124e-05  -2.123428e-04  0 
 5.781589e-05  -1.260741e-04  0 
 3.575824e-05  -6.665868e-05  0 
 1.896374e-05  -1.843754e-05  0 
 2.448148e-04  -2.581794e-04  0 
 1.247953e-04  -2.103390e-04  0 
 2.786296e-04  -3.602301e-04  0 
 3.557086e-04  -6.112811e-04  0 
VECTORS displacement_ITER11 FLOAT
 0  0  0 
 2.939964e-04  -1.624767e-04  0 
 -2.782696e-08  -2.032429e-05  0 
 2.692965e-05  -7.546723e-05  0 
 1.088676e-04  -1.156375e-04  0 
 0  0  0 
 0  0  0 
 0  0  0 
 0  0  0 
 8.019359e-05  -1.510804e-04  0 
 8.241673e-05  -2.337214e-04  0 
 1.893416e-04  -3.728304e-04  0 
 6.523988e-05  2.719822e-06  0 
 1.877296e-04  -7.201323e-05  0 
 1.859140e-04  -6.488451e-05  0 
 2.778242e-04  -6.701584e-05  0 
 1.692500e-04  1.295323e-05  0 
 8.149762e-05  -4.355624e-05  0 
 2.724784e-04  -1.090792e-04  0 
 2.603674e-05  -2.430487e-05  0 
 3.282881e-05  -3.136489e-05  0 
 7.239588e-05  -1.586562e-04  0 
 8.608575e-06  -1.206451e-05  0 
 5.769491e-05  -1.842527e-04  0 
 9.696006e-05  -2.084249e-04  0 
 5.773019e-05  -1.230399e-04  0 
 3.627547e-05  -6.524587e-05  0 
 1.891054e-05  -1.841714e-05  0 
 2.432123e-04  -2.544946e-04  0 
 1.258687e-04  -2.051496e-04  0 
 2.709553e-04  -3.605569e-04  0 
 3.588275e-04  -6.200997e-04  0 
VECTORS displacement_ITER12 FLOAT
 0  0  0 
 2.939861e-04  -1.636967e-04  0 
 -1.200743e-07  -2.046617e-05  0 
 2.681043e-05  -7.583963e-05  0 
 1.087588e-04  -1.162723e-04  0 
 0  0  0 
 0  0  0 
 0  0  0 
 0  0  0 
 8.020583e-05  -1.518471e-04  0 
 8.242164e-05  -2.343240e-04  0 
 1.898513e-04  -3.738924e-04  0 
 5.775413e-05  -1.685115e-05  0 
 1.836460e-04  -8.243795e-05  0 
 1.533401e-04  -8.489987e-05  0 
 2.602110e-04  -9.226257e-05  0 
 1.439942e-04  -1.392384e-05  0 
 7.968110e-05  -4.830746e-05  0 
 2.696363e-04  -1.175104e-04  0 
 2.731376e-05  -2.685943e-05  0 
 3.291219e-05  -3.172013e-05  0 
 7.246087e-05  -1.591959e-04  0 
 8.618084e-06  -1.212650e-05  0 
 5.777272e-05  -1.848833e-04  0 
 9.703404e-05  -2.088490e-04  0 
 5.793008e-05  -1.233800e-04  0 
 3.636287e-05  -6.547627e-05  0 
 1.892285e-05  -1.854638e-05  0 
 2.437142e-04  -2.553601e-04  0 
 1.259469e-04  -2.059415e-04  0 
 2.708388e-04  -3.453988e-04  0 
 3.594472e-04  -5.990428e-04  0 
VECTORS displacement_ITER13 FLOAT
 0  0  0 
 2.938442e-04  -1.643234e-04  0 
 -2.105066e-07  -2.054989e-05  0 
 2.668076e-05  -7.597074e-05  0 
 1.086161e-04  -1.165714e-04  0 
 0  0  0 
 0  0  0 
 0  0  0 
 0  0  0 
 8.015389e-05  -1.522407e-04  0 
 8.243940e-05  -2.345972e-04  0 
 1.898124e-04  -3.739809e-04  0 
 6.071378e-05  -1.207117e-05  0 
 1.841094e-04  -7.967780e-05  0 
 1.669633e-04  -7.085389e-05  0 
 2.636689e-04  -8.297200e-05  0 
 1.514016e-04  -1.088222e-05  0 
 8.064501e-05  -4.777136e-05  0 
 2.716071e-04  -1.167808e-04  0 
 2.722562e-05  -2.667307e-05  0 
 3.298642e-05  -3.155018e-05  0 
 7.243444e-05  -1.594365e-04  0 
 8.590010e-06  -1.212715e-05  0 
 5.778261e-05  -1.851681e-04  0 
 9.709113e-05  -2.090639e-04  0 
 5.791799e-05  -1.236840e-04  0 
 3.629301e-05  -6.555957e-05  0 
 1.894354e-05  -1.848493e-05  0 
 2.436902e-04  -2.554851e-04  0 
 1.259108e-04  -2.063139e-04  0 
 2.638642e-04  -3.583548e-04  0 
 3.608230e-04  -6.084506e-04  0 
VECTORS displacement_ITER14 FLOAT
 0  0  0 
 2.938520e-04  -1.643050e-04  0 
 -2.069930e-07  -2.054791e-05  0 
 2.668632e-05  -7.597027e-05  0 
 1.086241e-04  -1.165662e-04  0 
 0  0  0 
 0  0  0 
 0  0  0 
 0  0  0 
 8.015860e-05  -1.522309e-04  0 
 8.243575e-05  -2.345905e-04  0 
 1.898035e-04  -3.739834e-04  0 
 6.078595e-05  -1.231423e-05  0 
 1.847627e-04  -7.994990e-05  0 
 1.629310e-04  -7.570299e-05  0 
 2.635125e-04  -8.450918e-05  0 
 1.512541e-04  -1.085331e-05  0 
 8.087479e-05  -4.777012e-05  0 
 2.728217e-04  -1.181338e-04  0 
 2.733129e-05  -2.673361e-05  0 
 3.298426e-05  -3.156122e-05  0 
 7.243661e-05  -1.594333e-04  0 
 8.591606e-06  -1.212795e-05  0 
 5.778336e-05  -1.851650e-04  0 
 9.708189e-05  -2.090648e-04  0 
 5.792165e-05  -1.236744e-04  0 
 3.629757e-05  -6.555876e-05  0 
 1.894306e-05  -1.848912e-05  0 
 2.436791e-04  -2.554749e-04  0 
 1.259144e-04  -2.063054e-04  0 
 2.642711e-04  -3.568504e-04  0 
 3.607199e-04  -6.085729e-04  0 
CELL_DATA 43
TENSORS element_stresses FLOAT
 3.263071e-04  -5.030339e-04  0 
 -5.030339e-04  -4.813660e-06  0 
 0  0  0 

 4.202297e-04  -4.287513e-04  0 
 -4.287513e-04  5.272854e-05  0 
 0  0  0 

 2.545848e-04  -5.631270e-05  0 
 -5.631270e-05  -6.171080e-05  0 
 0  0  0 

 3.689945e-04  -7.382506e-05  0 
 -7.382506e-05  -1.017213e-04  0 
 0  0  0 

 1.089209e-04  -4.000903e-04  0 
 -4.000903e-04  4.492327e-06  0 
 0  0  0 

 4.661451e-04  -1.561432e-04  0 
 -1.561432e-04  -5.250714e-05  0 
 0  0  0 

 2.884753e-04  5.913780e-05  0 
 5.913780e-05  5.392384e-05  0 
 0  0  0 

 7.806803e-04  -5.705895e-04  0 
 -5.705895e-04  1.325624e-04  0 
 0  0  0 

 6.580852e-04  -6.129573e-04  0 
 -6.129573e-04  1.021101e-04  0 
 0  0  0 

 4.701371e-04  -1.312064e-04  0 
 -1.312064e-04  -6.039592e-06  0 
 0  0  0 

 1.858066e-05  -1.518460e-04  0 
 -1.518460e-04  6.469544e-05  0 
 0  0  0 

 1.952572e-04  -1.336911e-04  0 
 -1.336911e-04  5.857715e-05  0 
 0  0  0 

 1.952572e-04  -1.336911e-04  0 
 -1.336911e-04  5.857715e-05  0 
 0  0  0 

 2.071003e-04  -8.405592e-05  0 
 -8.405592e-05  -4.262232e-05  0 
 0  0  0 

 2.787496e-04  -2.314826e-04  0 
 -2.314826e-04  1.461348e-04  0 
 0  0  0 

 2.224208e-04  -4.840885e-05  0 
 -4.840885e-05  -1.551673e-05  0 
 0  0  0 

 2.709608e-01  -1.491920e-01  0 
 -1.491920e-01  -1.893013e-01  0 
 0  0  0 

 1.519659e-03  -2.412717e-02  0 
 -2.412717e-02  7.825435e-03  0 
 0  0  0 

 5.793947e-02  -5.725135e-02  0 
 -5.725135e-02  1.738184e-02  0 
 0  0  0 

 -2.505736e-03  -5.005877e-02  0 
 -5.005877e-02  -9.015456e-02  0 
 0  0  0 

 -1.418982e-02  -2.167102e-01  0 
 -2.167102e-01  7.026002e-02  0 
 0  0  0 

 1.115590e-01  -1.819471e-01  0 
 -1.819471e-01  -9.918702e-02  0 
 0  0  0 

 9.384335e-02  -2.053430e-01  0 
 -2.053430e-01  4.825008e-02  0 
 0  0  0 

 1.517545e-01  -2.628661e-01  0 
 -2.628661e-01  9.808690e-02  0 
 0  0  0 

 3.877595e-02  -1.027489e-02  0 
 -1.027489e-02  -3.178053e-01  0 
 0  0  0 

 7.154062e-02  -9.856166e-02  0 
 -9.856166e-02  -5.361096e-01  0 
 0  0  0 

 9.499153e-02  -9.980041e-02  0 
 -9.980041e-02  -4.193907e-02  0 
 0  0  0 

 8.075779e-02  -1.001182e-01  0 
 -1.001182e-01  -4.275771e-02  0 
 0  0  0 

 6.511853e-02  -1.320081e-01  0 
 -1.320081e-01  -6.971247e-02  0 
 0  0  0 

 7.781038e-02  -2.428579e-02  0 
 -2.428579e-02  -1.302251e-02  0 
 0  0  0 

 6.718185e-01  -4.019828e-01  0 
 -4.019828e-01  -2.303102e-01  0 
 0  0  0 

 2.101806e-01  -4.061234e-01  0 
 -4.061234e-01  1.113504e-01  0 
 0  0  0 

 1.849360e-01  -3.027021e-01  0 
 -3.027021e-01  -2.895926e-01  0 
 0  0  0 

 1.171513e-01  -1.443534e-01  0 
 -1.443534e-01  8.152062e-02  0 
 0  0  0 

 1.084229e-01  -1.399880e-01  0 
 -1.399880e-01  -1.288828e-03  0 
 0  0  0 

 -8.606374e-03  -1.055638e-01  0 
 -1.055638e-01  -1.409725e-01  0 
 0  0  0 

 -6.513927e-02  -6.135263e-02  0 
 -6.135263e-02  1.180752e-01  0 
 0  0  0 

 2.508530e-01  -4.255436e-01  0 
 -4.255436e-01  1.574364e-01  0 
 0  0  0 

 1.255495e-01  -8.577865e-02  0 
 -8.577865e-02  3.766485e-02  0 
 0  0  0 

 1.308100e-01  -8.395592e-02  0 
 -8.395592e-02  3.533782e-02  0 
 0  0  0 

 1.042158e-03  -7.640989e-04  0 
 -7.640989e-04  -1.679079e-05  0 
 0  0  0 

 1.080916e-03  -8.676492e-04  0 
 -8.676492e-04  -2.332970e-04  0 
 0  0  0 

 1.120006e-03  -9.176157e-04  0 
 -9.176157e-04  -4.558282e-04  0 
 0  0  0 

TENSORS element_stresses FLOAT
 3.263071e-04  -5.030339e-04  0 
 -5.030339e-04  -4.813660e-06  0 
 0  0  0 

 4.202297e-04  -4.287513e-04  0 
 -4.287513e-04  5.272854e-05  0 
 0  0  0 

 2.545848e-04  -5.631270e-05  0 
 -5.631270e-05  -6.171080e-05  0 
 0  0  0 

 3.689945e-04  -7.382506e-05  0 
 -7.382506e-05  -1.017213e-04  0 
 0  0  0 

 1.089209e-04  -4.000903e-04  0 
 -4.000903e-04  4.492327e-06  0 
 0  0  0 

 4.661451e-04  -1.561432e-04  0 
 -1.561432e-04  -5.250714e-05  0 
 0  0  0 

 2.884753e-04  5.913780e-05  0 
 5.913780e-05  5.392384e-05  0 
 0  0  0 

 7.806803e-04  -5.705895e-04  0 
 -5.705895e-04  1.325624e-04  0 
 0  0  0 

 6.580852e-04  -6.129573e-04  0 
 -6.129573e-04  1.021101e-04  0 
 0  0  0 

 4.701371e-04  -1.312064e-04  0 
 -1.312064e-04  -6.039592e-06  0 
 0  0  0 

 1.858066e-05  -1.518460e-04  0 
 -1.518460e-04  6.469544e-05  0 
 0  0  0 

 1.952572e-04  -1.336911e-04  0 
 -1.336911e-04  5.857715e-05  0 
 0  0  0 

 1.952572e-04  -1.336911e-04  0 
 -1.336911e-04  5.857715e-05  0 
 0  0  0 

 2.071003e-04  -8.405592e-05  0 
 -8.405592e-05  -4.262232e-05  0 
 0  0  0 

 2.787496e-04  -2.314826e-04  0 
 -2.314826e-04  1.461348e-04  0 
 0  0  0 

 2.224208e-04  -4.840885e-05  0 
 -4.840885e-05  -1.551673e-05  0 
 0  0  0 

 2.709608e-01  -1.491920e-01  0 
 -1.491920e-01  -1.893013e-01  0 
 0  0  0 

 1.519659e-03  -2.412717e-02  0 
 -2.412717e-02  7.825435e-03  0 
 0  0  0 

 5.793947e-02  -5.725135e-02  0 
 -5.725135e-02  1.738184e-02  0 
 0  0  0 

 -2.505736e-03  -5.005877e-02  0 
 -5.005877e-02  -9.015456e-02  0 
 0  0  0 

 -1.418982e-02  -2.167102e-01  0 
 -2.167102e-01  7.026002e-02  0 
 0  0  0 

 1.115590e-01  -1.819471e-01  0 
 -1.819471e-01  -9.918702e-02  0 
 0  0  0 

 9.384335e-02  -2.053430e-01  0 
 -2.053430e-01  4.825008e-02  0 
 0  0  0 

 1.517545e-01  -2.628661e-01  0 
 -2.628661e-01  9.808690e-02  0 
 0  0  0 

 3.877595e-02  -1.027489e-02  0 
 -1.027489e-02  -3.178053e-01  0 
 0  0  0 

 7.154062e-02  -9.856166e-02  0 
 -9.856166e-02  -5.361096e-01  0 
 0  0  0 

 9.499153e-02  -9.980041e-02  0 
 -9.980041e-02  -4.193907e-02  0 
 0  0  0 

 8.075779e-02  -1.001182e-01  0 
 -1.001182e-01  -4.275771e-02  0 
 0  0  0 

 6.511853e-02  -1.320081e-01  0 
 -1.320081e-01  -6.971247e-02  0 
 0  0  0 

 7.781038e-02  -2.428579e-02  0 
 -2.428579e-02  -1.302251e-02  0 
 0  0  0 

 6.718185e-01  -4.019828e-01  0 
 -4.019828e-01  -2.303102e-01  0 
 0  0  0 

 2.101806e-01  -4.061234e-01  0 
 -4.061234e-01  1.113504e-01  0 
 0  0  0 

 1.849360e-01  -3.027021e-01  0 
 -3.027021e-01  -2.895926e-01  0 
 0  0  0 

 1.171513e-01  -1.443534e-01  0 
 -1.443534e-01  8.152062e-02  0 
 0  0  0 

 1.084229e-01  -1.399880e-01  0 
 -1.399880e-01  -1.288828e-03  0 
 0  0  0 

 -8.606374e-03  -1.055638e-01  0 
 -1.055638e-01  -1.409725e-01  0 
 0  0  0 

 -6.513927e-02  -6.135263e-02  0 
 -6.135263e-02  1.180752e-01  0 
 0  0  0 

 2.508530e-01  -4.255436e-01  0 
 -4.255436e-01  1.574364e-01  0 
 0  0  0 

 1.255495e-01  -8.577865e-02  0 
 -8.577865e-02  3.766485e-02  0 
 0  0  0 

 1.308100e-01  -8.395592e-02  0 
 -8.395592e-02  3.533782e-02  0 
 0  0  0 

 1.042158e-03  -7.640989e-04  0 
 -7.640989e-04  -1.679079e-05  0 
 0  0  0 

 1.080916e-03  -8.676492e-04  0 
 -8.676492e-04  -2.332970e-04  0 
 0  0  0 

 1.120006e-03  -9.176157e-04  0 
 -9.176157e-04  -4.558282e-04  0 
 0  0  0 

