# vtk DataFile Version 3.1
this is an vtk file created by FEMAC
ASCII
DATASET UNSTRUCTURED_GRID
POINTS 20 FLOAT
3.000000 5.000000 0.000000
4.000000 4.000000 0.000000
4.000000 5.000000 0.000000
3.333333 4.000000 0.000000
3.666667 4.000000 0.000000
3.333333 5.000000 0.000000
3.666667 5.000000 0.000000
4.000000 4.333333 0.000000
4.000000 4.666667 0.000000
3.466342 3.734179 0.000000
3.319226 4.519523 0.000000
3.724179 4.637769 0.000000
3.646123 4.276215 0.000000
3.444594 4.794501 0.000000
3.222011 4.792514 0.000000
3.327558 4.188179 0.000000
3.646123 5.276215 0.000000
3.327558 5.188179 0.000000
4.266180 4.353162 0.000000
4.406748 4.729649 0.000000
CELLS 24 96 
3 3 9 4
3 6 11  2
3 11  8  2
3 12  4  1
3 7 12  1
3 11 10 12
3 11  7  8
3 11 12  7
3 5 13  6
3 11 13 10
3 13 11  6
3 5 14 13
3 14  5  0
3 10 13 14
3 4 15  3
3 10 15 12
3 4 12 15
3 16  6  2
3 5 17  0
3 6 17  5
3 6 16 17
3 18  7  1
3 18  8  7
3 18 19  8
CELL_TYPES 24
5 5 5 5 5 5 5 5 5 5 5 5 5 5 5 5 5 5 5 5 5 5 5 5 
POINT_DATA 20
VECTORS displacement_ITER1 FLOAT
 1.840782e-01  -1.568586e-01  0 
 2.499899e-01  -3.217116e-01  0 
 1.847024e-01  -4.006782e-01  0 
 2.610872e-01  -2.580639e-01  0 
 2.611091e-01  -2.405603e-01  0 
 1.843648e-01  -2.384880e-01  0 
 1.846161e-01  -3.197680e-01  0 
 2.495994e-01  -3.218066e-01  0 
 2.493266e-01  -3.218611e-01  0 
 2.751863e-01  -2.509346e-01  0 
 2.071218e-01  -2.879388e-01  0 
 2.170714e-01  -3.038517e-01  0 
 2.451144e-01  -2.710986e-01  0 
 1.841151e-01  -2.834044e-01  0 
 1.851182e-01  -2.495909e-01  0 
 2.395600e-01  -2.716744e-01  0 
 2.517666e-01  -3.148334e-01  0 
 2.303277e-01  -2.372394e-01  0 
 2.495959e-01  -3.216181e-01  0 
 2.494128e-01  -3.216745e-01  0 
VECTORS displacement_ITER2 FLOAT
 -7.668481e-03  2.152570e-02  0 
 5.023875e-02  -9.479959e-02  0 
 -6.494880e-03  -1.113196e-01  0 
 6.398376e-02  -6.321680e-02  0 
 6.407617e-02  -2.591041e-02  0 
 -7.215535e-03  -2.328038e-02  0 
 -6.748641e-03  -6.749942e-02  0 
 3.971713e-02  -9.504957e-02  0 
 2.936081e-02  -9.511401e-02  0 
 9.402698e-02  -4.821215e-02  0 
 1.326276e-02  -6.568700e-02  0 
 1.661293e-02  -7.307357e-02  0 
 4.046331e-02  -5.368262e-02  0 
 -2.243996e-03  -5.467749e-02  0 
 -3.476284e-04  -3.455109e-02  0 
 3.947239e-02  -6.650744e-02  0 
 2.963976e-02  -6.495715e-02  0 
 1.786658e-02  -2.281172e-02  0 
 3.913720e-02  -8.684903e-02  0 
 2.751482e-02  -8.261268e-02  0 
VECTORS displacement_ITER3 FLOAT
 1.491366e-04  -1.947713e-02  0 
 1.400033e-02  -3.483976e-02  0 
 1.534541e-03  -4.333383e-02  0 
 2.332552e-02  1.490434e-03  0 
 2.344944e-02  -2.000295e-02  0 
 6.899730e-04  -2.797484e-02  0 
 1.227025e-03  -3.583967e-02  0 
 9.577111e-03  -3.510963e-02  0 
 4.745880e-03  -3.539567e-02  0 
 6.328194e-03  -6.944539e-03  0 
 5.021402e-03  -2.977751e-02  0 
 4.390025e-03  -3.235198e-02  0 
 1.499648e-02  -2.459665e-02  0 
 9.293410e-04  -3.145315e-02  0 
 5.212638e-04  -2.871414e-02  0 
 1.665597e-02  -1.647625e-02  0 
 7.467606e-03  -3.555536e-02  0 
 5.290885e-03  -2.820141e-02  0 
 9.430146e-03  -3.145894e-02  0 
 3.666014e-03  -2.921567e-02  0 
VECTORS displacement_ITER4 FLOAT
 1.742495e-03  -3.412420e-03  0 
 7.512585e-03  -1.540995e-02  0 
 2.888038e-03  -1.601905e-02  0 
 7.676455e-03  -8.845214e-03  0 
 7.764442e-03  -1.375173e-02  0 
 2.188733e-03  -8.120510e-03  0 
 2.645860e-03  -1.222226e-02  0 
 6.024655e-03  -1.601818e-02  0 
 4.522291e-03  -1.638126e-02  0 
 3.936137e-03  -1.070750e-02  0 
 4.573549e-03  -1.343527e-02  0 
 3.716516e-03  -1.584627e-02  0 
 6.285606e-03  -1.563253e-02  0 
 3.084148e-03  -1.214003e-02  0 
 3.376401e-03  -9.437419e-03  0 
 6.411991e-03  -1.295321e-02  0 
 5.826498e-03  -1.212586e-02  0 
 4.650867e-03  -8.360366e-03  0 
 6.107467e-03  -1.497075e-02  0 
 4.253465e-03  -1.444438e-02  0 
VECTORS displacement_ITER5 FLOAT
 4.940210e-03  -8.110035e-03  0 
 4.107031e-03  -1.164667e-02  0 
 5.894943e-03  -1.315268e-02  0 
 3.454859e-03  -8.592743e-03  0 
 3.570761e-03  -9.883130e-03  0 
 5.307684e-03  -1.013772e-02  0 
 5.674700e-03  -1.177773e-02  0 
 4.879925e-03  -1.229440e-02  0 
 5.763599e-03  -1.268574e-02  0 
 2.667674e-03  -8.994677e-03  0 
 4.010390e-03  -1.234155e-02  0 
 4.891956e-03  -1.409805e-02  0 
 4.378778e-03  -1.294561e-02  0 
 5.232030e-03  -1.240617e-02  0 
 5.359430e-03  -1.060303e-02  0 
 2.990023e-03  -1.064757e-02  0 
 6.850714e-03  -1.183039e-02  0 
 6.330672e-03  -1.035223e-02  0 
 5.100958e-03  -1.309894e-02  0 
 6.047382e-03  -1.362912e-02  0 
VECTORS displacement_ITER6 FLOAT
 4.291426e-03  -6.245202e-03  0 
 2.661717e-03  -9.086879e-03  0 
 4.994678e-03  -1.028470e-02  0 
 2.511652e-03  -7.337502e-03  0 
 2.663795e-03  -8.000735e-03  0 
 4.566319e-03  -7.752467e-03  0 
 4.815474e-03  -9.109301e-03  0 
 3.512058e-03  -9.554737e-03  0 
 4.387597e-03  -9.868439e-03  0 
 2.117007e-03  -7.399603e-03  0 
 3.403379e-03  -1.157550e-02  0 
 3.608348e-03  -1.155961e-02  0 
 3.507458e-03  -1.104588e-02  0 
 4.200074e-03  -1.029742e-02  0 
 4.634405e-03  -8.901242e-03  0 
 2.181293e-03  -9.304092e-03  0 
 5.794823e-03  -9.144438e-03  0 
 5.381767e-03  -7.888820e-03  0 
 3.697123e-03  -1.033500e-02  0 
 4.611900e-03  -1.082571e-02  0 
VECTORS displacement_ITER7 FLOAT
 3.696583e-03  -5.869858e-03  0 
 2.221804e-03  -8.851095e-03  0 
 4.312174e-03  -9.877731e-03  0 
 2.068848e-03  -6.902250e-03  0 
 2.203783e-03  -7.785448e-03  0 
 3.949344e-03  -7.301638e-03  0 
 4.160230e-03  -8.672399e-03  0 
 3.105207e-03  -9.289974e-03  0 
 3.937847e-03  -9.601939e-03  0 
 1.492254e-03  -7.109394e-03  0 
 2.798511e-03  -1.058670e-02  0 
 3.169312e-03  -1.120859e-02  0 
 2.949281e-03  -1.059078e-02  0 
 3.676535e-03  -9.786451e-03  0 
 3.982379e-03  -8.386214e-03  0 
 1.788638e-03  -8.864914e-03  0 
 5.179864e-03  -8.698982e-03  0 
 4.758013e-03  -7.411835e-03  0 
 3.291407e-03  -1.005682e-02  0 
 4.087096e-03  -1.043330e-02  0 
VECTORS displacement_ITER8 FLOAT
 4.040732e-03  -6.737329e-03  0 
 2.688851e-03  -9.472217e-03  0 
 4.643764e-03  -1.051598e-02  0 
 2.540614e-03  -7.574504e-03  0 
 2.655784e-03  -8.410271e-03  0 
 4.275599e-03  -8.132825e-03  0 
 4.490425e-03  -9.404645e-03  0 
 3.497380e-03  -9.864785e-03  0 
 4.289591e-03  -1.014508e-02  0 
 2.006576e-03  -7.798762e-03  0 
 3.263239e-03  -1.106067e-02  0 
 3.569409e-03  -1.180086e-02  0 
 3.378630e-03  -1.119074e-02  0 
 4.013907e-03  -1.046740e-02  0 
 4.219574e-03  -9.206900e-03  0 
 2.313708e-03  -9.506659e-03  0 
 5.426647e-03  -9.434112e-03  0 
 5.033402e-03  -8.247127e-03  0 
 3.663336e-03  -1.057419e-02  0 
 4.452540e-03  -1.098003e-02  0 
VECTORS displacement_ITER9 FLOAT
 4.009799e-03  -6.760363e-03  0 
 2.645448e-03  -9.558872e-03  0 
 4.614880e-03  -1.058228e-02  0 
 2.495535e-03  -7.643164e-03  0 
 2.614641e-03  -8.491256e-03  0 
 4.246022e-03  -8.175460e-03  0 
 4.461873e-03  -9.465357e-03  0 
 3.455322e-03  -9.952446e-03  0 
 4.246809e-03  -1.023392e-02  0 
 1.960241e-03  -7.861688e-03  0 
 3.261398e-03  -1.096839e-02  0 
 3.546120e-03  -1.184480e-02  0 
 3.326950e-03  -1.123902e-02  0 
 3.970763e-03  -1.047940e-02  0 
 4.122112e-03  -9.244053e-03  0 
 2.266067e-03  -9.487338e-03  0 
 5.405643e-03  -9.493354e-03  0 
 5.014659e-03  -8.290258e-03  0 
 3.621866e-03  -1.066221e-02  0 
 4.407085e-03  -1.106860e-02  0 
CELL_DATA 24
TENSORS element_stresses FLOAT
 2.439747e-01  -2.705749e-01  0 
 -2.705749e-01  -3.778101e-01  0 
 0  0  0 

 2.494589e-03  -5.767774e-04  0 
 -5.767774e-04  6.785224e-03  0 
 0  0  0 

 2.319955e-03  5.426199e-03  0 
 5.426199e-03  -3.491146e-04  0 
 0  0  0 

 -3.256502e-03  -4.747355e-04  0 
 -4.747355e-04  -1.116308e-02  0 
 0  0  0 

 -4.215531e-04  4.812197e-03  0 
 4.812197e-03  -1.307189e-03  0 
 0  0  0 

 1.918919e-04  -1.002080e-03  0 
 -1.002080e-03  -1.231989e-03  0 
 0  0  0 

 2.239869e-03  6.387139e-03  0 
 6.387139e-03  -1.724466e-04  0 
 0  0  0 

 -5.387796e-04  3.533890e-03  0 
 3.533890e-03  -2.710873e-03  0 
 0  0  0 

 3.716974e-03  -1.676636e-03  0 
 -1.676636e-03  1.023141e-02  0 
 0  0  0 

 9.879313e-04  -3.765403e-04  0 
 -3.765403e-04  3.486034e-03  0 
 0  0  0 

 1.973967e-03  9.167356e-04  0 
 9.167356e-04  6.951690e-03  0 
 0  0  0 

 1.935749e-03  -3.581750e-03  0 
 -3.581750e-03  8.747804e-03  0 
 0  0  0 

 3.227527e-03  -3.098704e-03  0 
 -3.098704e-03  8.396192e-03  0 
 0  0  0 

 6.505730e-04  -2.067011e-03  0 
 -2.067011e-03  4.521454e-03  0 
 0  0  0 

 -2.863898e-03  -2.886713e-03  0 
 -2.886713e-03  -1.073738e-02  0 
 0  0  0 

 1.219668e-03  -8.981814e-04  0 
 -8.981814e-04  -4.210413e-03  0 
 0  0  0 

 -5.271208e-04  5.801942e-05  0 
 5.801942e-05  -1.030643e-02  0 
 0  0  0 

 3.888449e-01  7.704219e-02  0 
 7.704219e-02  -2.339227e-01  0 
 0  0  0 

 5.346910e-01  -1.068667e-01  0 
 -1.068667e-01  -5.799268e-01  0 
 0  0  0 

 4.713299e-01  1.806142e-01  0 
 1.806142e-01  -5.874081e-01  0 
 0  0  0 

 1.813391e-01  -1.812939e-01  0 
 -1.812939e-01  -3.201476e-01  0 
 0  0  0 

 9.942470e-02  -1.145373e-01  0 
 -1.145373e-01  -1.150896e+00  0 
 0  0  0 

 2.148135e-01  -1.762398e-01  0 
 -1.762398e-01  -7.799634e-01  0 
 0  0  0 

 -2.668433e-02  4.374435e-02  0 
 4.374435e-02  -3.404644e-01  0 
 0  0  0 

TENSORS element_stresses FLOAT
 2.439747e-01  -2.705749e-01  0 
 -2.705749e-01  -3.778101e-01  0 
 0  0  0 

 2.494589e-03  -5.767774e-04  0 
 -5.767774e-04  6.785224e-03  0 
 0  0  0 

 2.319955e-03  5.426199e-03  0 
 5.426199e-03  -3.491146e-04  0 
 0  0  0 

 -3.256502e-03  -4.747355e-04  0 
 -4.747355e-04  -1.116308e-02  0 
 0  0  0 

 -4.215531e-04  4.812197e-03  0 
 4.812197e-03  -1.307189e-03  0 
 0  0  0 

 1.918919e-04  -1.002080e-03  0 
 -1.002080e-03  -1.231989e-03  0 
 0  0  0 

 2.239869e-03  6.387139e-03  0 
 6.387139e-03  -1.724466e-04  0 
 0  0  0 

 -5.387796e-04  3.533890e-03  0 
 3.533890e-03  -2.710873e-03  0 
 0  0  0 

 3.716974e-03  -1.676636e-03  0 
 -1.676636e-03  1.023141e-02  0 
 0  0  0 

 9.879313e-04  -3.765403e-04  0 
 -3.765403e-04  3.486034e-03  0 
 0  0  0 

 1.973967e-03  9.167356e-04  0 
 9.167356e-04  6.951690e-03  0 
 0  0  0 

 1.935749e-03  -3.581750e-03  0 
 -3.581750e-03  8.747804e-03  0 
 0  0  0 

 3.227527e-03  -3.098704e-03  0 
 -3.098704e-03  8.396192e-03  0 
 0  0  0 

 6.505730e-04  -2.067011e-03  0 
 -2.067011e-03  4.521454e-03  0 
 0  0  0 

 -2.863898e-03  -2.886713e-03  0 
 -2.886713e-03  -1.073738e-02  0 
 0  0  0 

 1.219668e-03  -8.981814e-04  0 
 -8.981814e-04  -4.210413e-03  0 
 0  0  0 

 -5.271208e-04  5.801942e-05  0 
 5.801942e-05  -1.030643e-02  0 
 0  0  0 

 3.888449e-01  7.704219e-02  0 
 7.704219e-02  -2.339227e-01  0 
 0  0  0 

 5.346910e-01  -1.068667e-01  0 
 -1.068667e-01  -5.799268e-01  0 
 0  0  0 

 4.713299e-01  1.806142e-01  0 
 1.806142e-01  -5.874081e-01  0 
 0  0  0 

 1.813391e-01  -1.812939e-01  0 
 -1.812939e-01  -3.201476e-01  0 
 0  0  0 

 9.942470e-02  -1.145373e-01  0 
 -1.145373e-01  -1.150896e+00  0 
 0  0  0 

 2.148135e-01  -1.762398e-01  0 
 -1.762398e-01  -7.799634e-01  0 
 0  0  0 

 -2.668433e-02  4.374435e-02  0 
 4.374435e-02  -3.404644e-01  0 
 0  0  0 

