# vtk DataFile Version 3.1
this is an vtk file created by FEMAC
ASCII
DATASET UNSTRUCTURED_GRID
POINTS 21 FLOAT
5.000000 4.000000 0.000000
6.000000 4.000000 0.000000
4.666667 4.000000 0.000000
5.000000 3.666667 0.000000
5.000000 4.333333 0.000000
5.333333 4.000000 0.000000
5.666667 4.000000 0.000000
6.000000 3.666667 0.000000
6.000000 4.333333 0.000000
6.000000 4.666667 0.000000
4.672762 4.468141 0.000000
4.554455 4.197594 0.000000
4.778777 4.199814 0.000000
5.394160 3.783162 0.000000
5.744159 3.793124 0.000000
5.491944 4.720470 0.000000
5.759432 4.506844 0.000000
5.496798 4.299286 0.000000
5.227263 4.494519 0.000000
5.795445 4.231377 0.000000
5.211479 4.225428 0.000000
CELLS 25 100 
3 12  2  0
3 12  4 10
3 4 12  0
3 12 11  2
3 10 11 12
3 3 13  0
3 13  5  0
3 6 14  1
3 14  7  1
3 5 13  6
3 14  6 13
3 9 16  8
3 16 15 17
3 18 17 15
3 17  5  6
3 19  6  1
3 8 19  1
3 6 19 17
3 19 16 17
3 16 19  8
3 20  4  0
3 5 20  0
3 20  5 17
3 18 20 17
3 20 18  4
CELL_TYPES 25
5 5 5 5 5 5 5 5 5 5 5 5 5 5 5 5 5 5 5 5 5 5 5 5 5 
POINT_DATA 21
VECTORS displacement_ITER1 FLOAT
 2.424145e-01  -3.950405e-01  0 
 2.424987e-01  -4.093179e-01  0 
 2.423977e-01  -3.871324e-01  0 
 2.377538e-01  -3.950600e-01  0 
 2.502969e-01  -3.950886e-01  0 
 2.424490e-01  -3.997703e-01  0 
 2.424853e-01  -4.045247e-01  0 
 2.377112e-01  -4.092996e-01  0 
 2.525405e-01  -4.185241e-01  0 
 2.591196e-01  -4.214728e-01  0 
 2.535400e-01  -3.872334e-01  0 
 2.470914e-01  -3.844494e-01  0 
 2.471303e-01  -3.898037e-01  0 
 2.393730e-01  -4.006048e-01  0 
 2.395199e-01  -4.056291e-01  0 
 2.598422e-01  -4.102351e-01  0 
 2.548725e-01  -4.151421e-01  0 
 2.483404e-01  -4.069550e-01  0 
 2.531148e-01  -4.015141e-01  0 
 2.479847e-01  -4.111929e-01  0 
 2.467660e-01  -4.004468e-01  0 
VECTORS displacement_ITER2 FLOAT
 2.451540e-02  -8.080578e-02  0 
 2.459646e-02  -1.082456e-01  0 
 2.450830e-02  -8.177079e-02  0 
 1.546330e-02  -8.081791e-02  0 
 2.353195e-02  -8.083696e-02  0 
 2.454562e-02  -8.991972e-02  0 
 2.458507e-02  -9.907154e-02  0 
 1.542788e-02  -1.082313e-01  0 
 3.615272e-02  -1.186623e-01  0 
 5.235572e-02  -1.309763e-01  0 
 2.312025e-02  -8.171177e-02  0 
 2.393134e-02  -8.209638e-02  0 
 2.391497e-02  -8.144350e-02  0 
 1.861691e-02  -9.155634e-02  0 
 1.890024e-02  -1.011963e-01  0 
 4.172894e-02  -1.095388e-01  0 
 3.936295e-02  -1.134842e-01  0 
 3.001878e-02  -1.005614e-01  0 
 3.316165e-02  -9.546069e-02  0 
 3.061286e-02  -1.081898e-01  0 
 2.516548e-02  -8.865601e-02  0 
VECTORS displacement_ITER3 FLOAT
 1.548947e-02  -2.747620e-02  0 
 1.540937e-02  -5.404620e-02  0 
 1.541154e-02  -3.254000e-02  0 
 6.641320e-03  -2.760345e-02  0 
 1.011038e-02  -2.708010e-02  0 
 1.546560e-02  -3.643167e-02  0 
 1.542068e-02  -4.530249e-02  0 
 6.683114e-03  -5.400330e-02  0 
 1.660693e-02  -4.876484e-02  0 
 -1.707725e-03  -3.868843e-02  0 
 8.036178e-03  -3.285297e-02  0 
 1.226861e-02  -3.438096e-02  0 
 1.235888e-02  -3.090189e-02  0 
 9.674776e-03  -3.808845e-02  0 
 9.972161e-03  -4.733162e-02  0 
 7.472864e-03  -5.350653e-02  0 
 1.248452e-02  -5.311429e-02  0 
 1.531961e-02  -4.746330e-02  0 
 1.288927e-02  -4.483996e-02  0 
 1.736314e-02  -4.998474e-02  0 
 1.230526e-02  -3.641581e-02  0 
VECTORS displacement_ITER4 FLOAT
 7.262437e-03  -1.428726e-02  0 
 7.206375e-03  -2.042923e-02  0 
 7.219214e-03  -1.575762e-02  0 
 5.171130e-03  -1.437241e-02  0 
 5.520924e-03  -1.398708e-02  0 
 7.254512e-03  -1.647130e-02  0 
 7.209542e-03  -1.853934e-02  0 
 5.348568e-03  -2.034862e-02  0 
 9.234394e-03  -2.710402e-02  0 
 1.042184e-02  -3.713644e-02  0 
 4.962867e-03  -1.589528e-02  0 
 6.257949e-03  -1.633092e-02  0 
 6.299873e-03  -1.528851e-02  0 
 5.882121e-03  -1.688626e-02  0 
 6.011773e-03  -1.896085e-02  0 
 -1.352014e-03  -3.422183e-02  0 
 6.013675e-03  -2.988322e-02  0 
 6.240294e-03  -2.443130e-02  0 
 3.294193e-03  -2.497577e-02  0 
 7.816761e-03  -2.417626e-02  0 
 5.178048e-03  -1.949069e-02  0 
VECTORS displacement_ITER5 FLOAT
 4.112680e-03  -1.456709e-02  0 
 4.084679e-03  -1.883299e-02  0 
 4.119478e-03  -1.385707e-02  0 
 2.682432e-03  -1.464632e-02  0 
 4.652067e-03  -1.439973e-02  0 
 4.113696e-03  -1.609930e-02  0 
 4.082799e-03  -1.753617e-02  0 
 2.809325e-03  -1.876673e-02  0 
 7.449567e-03  -2.614856e-02  0 
 8.235729e-03  -3.209140e-02  0 
 4.860153e-03  -1.391996e-02  0 
 4.456476e-03  -1.369435e-02  0 
 4.478723e-03  -1.408314e-02  0 
 3.158028e-03  -1.638743e-02  0 
 3.260121e-03  -1.781940e-02  0 
 3.460397e-03  -2.828779e-02  0 
 5.696180e-03  -2.763995e-02  0 
 4.131678e-03  -2.240150e-02  0 
 3.791509e-03  -2.102817e-02  0 
 5.332113e-03  -2.265692e-02  0 
 3.537385e-03  -1.841787e-02  0 
VECTORS displacement_ITER6 FLOAT
 2.640975e-03  -1.287693e-02  0 
 2.686140e-03  -1.499363e-02  0 
 2.633078e-03  -1.147170e-02  0 
 1.937838e-03  -1.292424e-02  0 
 3.902706e-03  -1.273593e-02  0 
 2.667786e-03  -1.364778e-02  0 
 2.673565e-03  -1.436619e-02  0 
 2.059605e-03  -1.495213e-02  0 
 6.271042e-03  -2.341440e-02  0 
 5.526979e-03  -2.914763e-02  0 
 4.444178e-03  -1.150145e-02  0 
 3.419542e-03  -1.103060e-02  0 
 3.433903e-03  -1.193140e-02  0 
 2.196798e-03  -1.377453e-02  0 
 2.278034e-03  -1.449006e-02  0 
 3.242081e-03  -2.532956e-02  0 
 4.099103e-03  -2.568893e-02  0 
 2.254264e-03  -1.977900e-02  0 
 2.450640e-03  -1.781630e-02  0 
 3.789103e-03  -1.969432e-02  0 
 2.228851e-03  -1.625889e-02  0 
VECTORS displacement_ITER7 FLOAT
 2.551014e-03  -1.165617e-02  0 
 2.624519e-03  -1.399350e-02  0 
 2.561270e-03  -1.080241e-02  0 
 1.827093e-03  -1.170655e-02  0 
 3.308214e-03  -1.155013e-02  0 
 2.585465e-03  -1.245313e-02  0 
 2.606924e-03  -1.322679e-02  0 
 1.847289e-03  -1.397888e-02  0 
 5.986132e-03  -2.204894e-02  0 
 4.886798e-03  -2.756211e-02  0 
 3.614107e-03  -1.076111e-02  0 
 3.035457e-03  -1.052149e-02  0 
 3.030933e-03  -1.105687e-02  0 
 2.088688e-03  -1.257600e-02  0 
 2.137253e-03  -1.338720e-02  0 
 3.199440e-03  -2.354520e-02  0 
 3.682019e-03  -2.448829e-02  0 
 2.041638e-03  -1.867366e-02  0 
 2.402446e-03  -1.676244e-02  0 
 3.641868e-03  -1.853021e-02  0 
 1.909802e-03  -1.501824e-02  0 
VECTORS displacement_ITER8 FLOAT
 2.718320e-03  -1.254002e-02  0 
 2.772533e-03  -1.461109e-02  0 
 2.714905e-03  -1.158017e-02  0 
 2.090847e-03  -1.259856e-02  0 
 3.559255e-03  -1.240771e-02  0 
 2.746078e-03  -1.325878e-02  0 
 2.756474e-03  -1.393923e-02  0 
 2.094484e-03  -1.459212e-02  0 
 6.196340e-03  -2.280824e-02  0 
 5.179271e-03  -2.842950e-02  0 
 3.919854e-03  -1.154881e-02  0 
 3.264746e-03  -1.127070e-02  0 
 3.258544e-03  -1.187567e-02  0 
 2.304418e-03  -1.337371e-02  0 
 2.344310e-03  -1.407836e-02  0 
 3.477438e-03  -2.400542e-02  0 
 3.893865e-03  -2.524452e-02  0 
 2.254721e-03  -1.944242e-02  0 
 2.717438e-03  -1.764466e-02  0 
 3.819830e-03  -1.925311e-02  0 
 2.117231e-03  -1.586311e-02  0 
VECTORS displacement_ITER9 FLOAT
 2.670964e-03  -1.267238e-02  0 
 2.718238e-03  -1.473428e-02  0 
 2.666299e-03  -1.172330e-02  0 
 2.043933e-03  -1.272754e-02  0 
 3.501192e-03  -1.254065e-02  0 
 2.698643e-03  -1.338816e-02  0 
 2.707374e-03  -1.406624e-02  0 
 2.054179e-03  -1.470739e-02  0 
 6.184492e-03  -2.297525e-02  0 
 5.042144e-03  -2.857450e-02  0 
 3.852980e-03  -1.169565e-02  0 
 3.211193e-03  -1.141727e-02  0 
 3.204835e-03  -1.201571e-02  0 
 2.259861e-03  -1.350291e-02  0 
 2.294788e-03  -1.420905e-02  0 
 3.438365e-03  -2.402987e-02  0 
 3.856050e-03  -2.544802e-02  0 
 2.213285e-03  -1.958687e-02  0 
 2.701661e-03  -1.781819e-02  0 
 3.785635e-03  -1.940069e-02  0 
 2.065144e-03  -1.600194e-02  0 
CELL_DATA 25
TENSORS element_stresses FLOAT
 5.959031e-02  -1.229824e-01  0 
 -1.229824e-01  1.519922e-01  0 
 0  0  0 

 -3.697912e-02  -9.195754e-02  0 
 -9.195754e-02  1.950145e-01  0 
 0  0  0 

 -4.953796e-02  -9.287935e-02  0 
 -9.287935e-02  3.803063e-01  0 
 0  0  0 

 -4.971068e-02  4.471706e-02  0 
 4.471706e-02  1.870306e-02  0 
 0  0  0 

 -1.162136e-02  -2.109182e-01  0 
 -2.109182e-01  1.347398e-01  0 
 0  0  0 

 4.560959e-02  -1.038245e-01  0 
 -1.038245e-01  1.791758e-01  0 
 0  0  0 

 6.713282e-02  -7.731864e-02  0 
 -7.731864e-02  -5.302242e-02  0 
 0  0  0 

 1.589533e-02  1.891648e-03  0 
 1.891648e-03  -5.566154e-02  0 
 0  0  0 

 2.201233e-02  3.405144e-03  0 
 3.405144e-03  -7.405338e-02  0 
 0  0  0 

 1.512053e-02  -2.585142e-03  0 
 -2.585142e-03  -3.689925e-02  0 
 0  0  0 

 2.543178e-02  -4.141070e-03  0 
 -4.141070e-03  -5.713856e-02  0 
 0  0  0 

 2.382231e-03  -4.048954e-03  0 
 -4.048954e-03  -1.608308e-02  0 
 0  0  0 

 7.780278e-04  -8.384670e-03  0 
 -8.384670e-03  -1.047508e-02  0 
 0  0  0 

 -3.205238e-03  -8.777184e-03  0 
 -8.777184e-03  -1.167546e-02  0 
 0  0  0 

 -6.432954e-03  -2.823291e-03  0 
 -2.823291e-03  -2.153048e-02  0 
 0  0  0 

 -7.197075e-03  2.029187e-03  0 
 2.029187e-03  -2.409890e-02  0 
 0  0  0 

 -9.590548e-04  4.035833e-03  0 
 4.035833e-03  -2.501063e-02  0 
 0  0  0 

 -6.789814e-04  -1.972778e-03  0 
 -1.972778e-03  -2.097686e-02  0 
 0  0  0 

 -1.402587e-03  -2.714959e-03  0 
 -2.714959e-03  -2.296236e-02  0 
 0  0  0 

 4.465615e-03  -3.426015e-03  0 
 -3.426015e-03  -2.141511e-02  0 
 0  0  0 

 -5.935272e-03  -1.051904e-02  0 
 -1.051904e-02  -1.385414e-03  0 
 0  0  0 

 -4.113864e-03  -3.778984e-03  0 
 -3.778984e-03  -1.398968e-02  0 
 0  0  0 

 -4.115643e-03  -8.160268e-03  0 
 -8.160268e-03  -1.736428e-02  0 
 0  0  0 

 -2.116616e-03  -6.625582e-03  0 
 -6.625582e-03  -6.740237e-03  0 
 0  0  0 

 -7.810631e-03  -1.273219e-02  0 
 -1.273219e-02  -7.964445e-03  0 
 0  0  0 

TENSORS element_stresses FLOAT
 5.959031e-02  -1.229824e-01  0 
 -1.229824e-01  1.519922e-01  0 
 0  0  0 

 -3.697912e-02  -9.195754e-02  0 
 -9.195754e-02  1.950145e-01  0 
 0  0  0 

 -4.953796e-02  -9.287935e-02  0 
 -9.287935e-02  3.803063e-01  0 
 0  0  0 

 -4.971068e-02  4.471706e-02  0 
 4.471706e-02  1.870306e-02  0 
 0  0  0 

 -1.162136e-02  -2.109182e-01  0 
 -2.109182e-01  1.347398e-01  0 
 0  0  0 

 4.560959e-02  -1.038245e-01  0 
 -1.038245e-01  1.791758e-01  0 
 0  0  0 

 6.713282e-02  -7.731864e-02  0 
 -7.731864e-02  -5.302242e-02  0 
 0  0  0 

 1.589533e-02  1.891648e-03  0 
 1.891648e-03  -5.566154e-02  0 
 0  0  0 

 2.201233e-02  3.405144e-03  0 
 3.405144e-03  -7.405338e-02  0 
 0  0  0 

 1.512053e-02  -2.585142e-03  0 
 -2.585142e-03  -3.689925e-02  0 
 0  0  0 

 2.543178e-02  -4.141070e-03  0 
 -4.141070e-03  -5.713856e-02  0 
 0  0  0 

 2.382231e-03  -4.048954e-03  0 
 -4.048954e-03  -1.608308e-02  0 
 0  0  0 

 7.780278e-04  -8.384670e-03  0 
 -8.384670e-03  -1.047508e-02  0 
 0  0  0 

 -3.205238e-03  -8.777184e-03  0 
 -8.777184e-03  -1.167546e-02  0 
 0  0  0 

 -6.432954e-03  -2.823291e-03  0 
 -2.823291e-03  -2.153048e-02  0 
 0  0  0 

 -7.197075e-03  2.029187e-03  0 
 2.029187e-03  -2.409890e-02  0 
 0  0  0 

 -9.590548e-04  4.035833e-03  0 
 4.035833e-03  -2.501063e-02  0 
 0  0  0 

 -6.789814e-04  -1.972778e-03  0 
 -1.972778e-03  -2.097686e-02  0 
 0  0  0 

 -1.402587e-03  -2.714959e-03  0 
 -2.714959e-03  -2.296236e-02  0 
 0  0  0 

 4.465615e-03  -3.426015e-03  0 
 -3.426015e-03  -2.141511e-02  0 
 0  0  0 

 -5.935272e-03  -1.051904e-02  0 
 -1.051904e-02  -1.385414e-03  0 
 0  0  0 

 -4.113864e-03  -3.778984e-03  0 
 -3.778984e-03  -1.398968e-02  0 
 0  0  0 

 -4.115643e-03  -8.160268e-03  0 
 -8.160268e-03  -1.736428e-02  0 
 0  0  0 

 -2.116616e-03  -6.625582e-03  0 
 -6.625582e-03  -6.740237e-03  0 
 0  0  0 

 -7.810631e-03  -1.273219e-02  0 
 -1.273219e-02  -7.964445e-03  0 
 0  0  0 

