# vtk DataFile Version 3.1
this is an vtk file created by FEMAC
ASCII
DATASET UNSTRUCTURED_GRID
POINTS 24 FLOAT
2.000000 4.000000 0.000000
1.333333 4.000000 0.000000
1.666667 4.000000 0.000000
2.000000 3.666667 0.000000
2.000000 4.333333 0.000000
2.333333 4.000000 0.000000
2.666667 4.000000 0.000000
3.000000 4.333333 0.000000
3.000000 4.666667 0.000000
1.265001 3.472948 0.000000
1.523802 3.285974 0.000000
1.518186 3.690581 0.000000
1.220626 3.759097 0.000000
1.784776 3.496093 0.000000
1.793926 3.770668 0.000000
1.735450 4.578520 0.000000
1.353540 4.484358 0.000000
1.471368 4.181466 0.000000
1.710771 4.276789 0.000000
1.232308 4.217759 0.000000
1.514832 4.788257 0.000000
2.687481 4.391228 0.000000
2.325592 4.229401 0.000000
3.319226 4.519523 0.000000
CELLS 25 100 
3 11  2  1
3 10 11  9
3 1 12 11
3 9 11 12
3 10 13 11
3 2 14  0
3 14  3  0
3 14  2 11
3 14 13  3
3 11 13 14
3 2 17  1
3 18  2  0
3 4 18  0
3 19  1 17
3 18  4 15
3 18 17  2
3 17 16 19
3 16 17 18
3 16 18 15
3 20 16 15
3 22  4  0
3 5 22  0
3 5  6 22
3 6 21 22
3 8  7 23
CELL_TYPES 25
5 5 5 5 5 5 5 5 5 5 5 5 5 5 5 5 5 5 5 5 5 5 5 5 5 
POINT_DATA 24
VECTORS displacement_ITER1 FLOAT
 2.148330e-01  -1.431503e-01  0 
 2.146834e-01  -3.375791e-01  0 
 2.148305e-01  -2.402178e-01  0 
 3.125511e-01  -1.425702e-01  0 
 2.711488e-01  -1.440305e-01  0 
 2.145490e-01  -2.005796e-01  0 
 2.143684e-01  -2.581917e-01  0 
 1.811249e-01  -2.529831e-01  0 
 1.602925e-01  -2.726733e-01  0 
 3.691590e-01  -3.577791e-01  0 
 4.243207e-01  -2.815726e-01  0 
 3.052137e-01  -2.834949e-01  0 
 2.851272e-01  -3.706058e-01  0 
 3.624438e-01  -2.053191e-01  0 
 2.818886e-01  -2.029998e-01  0 
 1.618510e-01  -2.501446e-01  0 
 1.645522e-01  -3.161532e-01  0 
 2.127482e-01  -2.799925e-01  0 
 2.236434e-01  -2.192283e-01  0 
 2.078118e-01  -3.270470e-01  0 
 1.182881e-01  -2.977749e-01  0 
 2.822097e-01  -2.620382e-01  0 
 2.540500e-01  -1.990736e-01  0 
 1.776414e-01  -2.463585e-01  0 
VECTORS displacement_ITER2 FLOAT
 9.715250e-03  -5.233099e-03  0 
 9.511681e-03  -1.974213e-02  0 
 9.673617e-03  -1.232301e-02  0 
 1.733442e-02  -4.742248e-03  0 
 5.125776e-02  -5.987261e-03  0 
 9.545492e-03  -4.765888e-02  0 
 9.451624e-03  -9.012045e-02  0 
 2.291112e-02  -2.033265e-02  0 
 2.679858e-02  -4.262039e-02  0 
 2.181647e-02  -2.137531e-02  0 
 2.636945e-02  -1.533548e-02  0 
 1.656903e-02  -1.549405e-02  0 
 1.493302e-02  -2.216360e-02  0 
 2.121401e-02  -9.421026e-03  0 
 1.482487e-02  -9.461969e-03  0 
 2.996629e-02  -2.507748e-02  0 
 2.387926e-02  -2.213008e-02  0 
 2.082463e-02  -1.372732e-02  0 
 3.180120e-02  -1.143766e-02  0 
 1.972470e-02  -1.422126e-02  0 
 2.788177e-02  -2.791689e-02  0 
 5.935581e-02  -9.289704e-02  0 
 3.866859e-02  -4.658737e-02  0 
 3.449796e-02  -3.986497e-02  0 
VECTORS displacement_ITER3 FLOAT
 5.811389e-03  -8.052567e-03  0 
 5.444823e-03  -1.854691e-03  0 
 5.672775e-03  -4.754585e-03  0 
 2.908714e-03  -7.602590e-03  0 
 9.353141e-03  -8.726503e-03  0 
 5.780227e-03  -1.222131e-02  0 
 5.791553e-03  -1.631663e-02  0 
 -9.032708e-03  7.928332e-03  0 
 6.893521e-04  -2.419573e-02  0 
 1.506456e-03  -1.280559e-03  0 
 1.813028e-04  -3.427059e-03  0 
 2.949050e-03  -3.257118e-03  0 
 3.382046e-03  -6.878362e-04  0 
 1.499775e-03  -5.554578e-03  0 
 3.695022e-03  -5.825017e-03  0 
 5.784162e-03  -1.248205e-02  0 
 4.422851e-03  -1.341220e-02  0 
 5.990375e-03  -6.769747e-03  0 
 8.128669e-03  -9.094191e-03  0 
 3.281453e-03  -8.139313e-03  0 
 3.260019e-03  -1.532023e-02  0 
 1.064326e-02  -1.669092e-02  0 
 8.574947e-03  -1.213242e-02  0 
 9.710494e-03  -2.346520e-02  0 
VECTORS displacement_ITER4 FLOAT
 3.852518e-03  -2.753267e-03  0 
 3.205964e-03  1.152609e-03  0 
 3.575414e-03  -4.884053e-04  0 
 1.963622e-03  -2.195794e-03  0 
 6.501543e-03  -3.482347e-03  0 
 3.926306e-03  -5.967355e-03  0 
 4.045862e-03  -9.026377e-03  0 
 3.600154e-03  -1.266136e-02  0 
 6.559432e-03  -4.257993e-03  0 
 1.271356e-03  1.716388e-03  0 
 5.812967e-04  4.644003e-04  0 
 1.925969e-03  5.914349e-04  0 
 2.034765e-03  1.999347e-03  0 
 1.121168e-03  -8.283709e-04  0 
 2.406726e-03  -1.073741e-03  0 
 2.134757e-03  -8.170926e-03  0 
 9.428282e-04  -9.904207e-03  0 
 3.288086e-03  -3.113225e-03  0 
 5.261557e-03  -4.754551e-03  0 
 5.338004e-04  -4.863838e-03  0 
 -9.619785e-04  -1.146986e-02  0 
 7.607263e-03  -9.427816e-03  0 
 6.028466e-03  -5.985037e-03  0 
 1.876316e-03  -1.554366e-02  0 
VECTORS displacement_ITER5 FLOAT
 4.190383e-03  -4.280165e-03  0 
 3.484685e-03  9.861008e-04  0 
 3.850703e-03  -1.288690e-03  0 
 1.530233e-03  -3.641686e-03  0 
 6.065974e-03  -4.990384e-03  0 
 4.367918e-03  -6.577737e-03  0 
 4.607755e-03  -8.636964e-03  0 
 1.327119e-03  -6.667819e-03  0 
 4.733123e-03  -7.204375e-03  0 
 3.762297e-04  1.808246e-03  0 
 -7.472393e-04  -1.392203e-05  0 
 1.577885e-03  6.741964e-05  0 
 1.796833e-03  2.104732e-03  0 
 3.945780e-04  -1.882376e-03  0 
 2.201323e-03  -2.114687e-03  0 
 1.907918e-03  -9.017259e-03  0 
 6.583247e-04  -1.059697e-02  0 
 3.208088e-03  -3.710400e-03  0 
 5.127061e-03  -5.760630e-03  0 
 1.732037e-04  -5.326201e-03  0 
 -1.666604e-03  -1.232901e-02  0 
 6.824457e-03  -8.994128e-03  0 
 5.806683e-03  -6.707672e-03  0 
 3.786887e-03  -1.387680e-02  0 
VECTORS displacement_ITER6 FLOAT
 2.537466e-03  -3.080733e-03  0 
 1.897845e-03  4.180511e-05  0 
 2.198108e-03  -1.222521e-03  0 
 1.078110e-03  -2.304394e-03  0 
 4.093740e-03  -3.868739e-03  0 
 2.738617e-03  -5.108518e-03  0 
 2.989576e-03  -6.875293e-03  0 
 1.944060e-03  -7.072147e-03  0 
 4.196582e-03  -6.837646e-03  0 
 5.000882e-04  2.884306e-04  0 
 1.162318e-04  -4.545252e-04  0 
 9.433664e-04  -4.257108e-04  0 
 1.033560e-03  6.588906e-04  0 
 5.086328e-04  -1.351926e-03  0 
 1.321140e-03  -1.602362e-03  0 
 1.326265e-03  -8.043327e-03  0 
 2.967923e-04  -8.524150e-03  0 
 1.658238e-03  -3.537578e-03  0 
 3.296644e-03  -5.255910e-03  0 
 -5.338648e-04  -4.429948e-03  0 
 -3.681225e-04  -9.884441e-03  0 
 4.824226e-03  -7.080815e-03  0 
 3.991284e-03  -5.258694e-03  0 
 3.462036e-03  -1.064296e-02  0 
VECTORS displacement_ITER7 FLOAT
 6.983989e-04  -3.690008e-03  0 
 7.501233e-05  -2.864447e-03  0 
 3.712446e-04  -2.984131e-03  0 
 4.033399e-04  -2.902997e-03  0 
 1.026012e-03  -4.392782e-03  0 
 8.941660e-04  -4.347745e-03  0 
 1.141950e-03  -4.743255e-03  0 
 1.146623e-03  -6.088043e-03  0 
 3.291930e-03  -5.923873e-03  0 
 4.737079e-04  -2.807272e-03  0 
 6.490671e-04  -2.827937e-03  0 
 2.109542e-04  -2.719295e-03  0 
 7.054683e-05  -2.648276e-03  0 
 3.915136e-04  -2.771555e-03  0 
 2.881630e-04  -2.940041e-03  0 
 2.533226e-03  -7.186636e-03  0 
 1.439660e-03  -4.916128e-03  0 
 3.718365e-05  -4.510121e-03  0 
 9.798622e-04  -6.014175e-03  0 
 -3.237802e-04  -3.189740e-03  0 
 4.994060e-03  -5.080406e-03  0 
 1.316250e-03  -4.819652e-03  0 
 1.201945e-03  -4.527147e-03  0 
 2.514435e-03  -1.086452e-02  0 
VECTORS displacement_ITER8 FLOAT
 1.609575e-03  -3.890595e-03  0 
 9.794763e-04  -1.933785e-03  0 
 1.280541e-03  -2.616637e-03  0 
 7.403711e-04  -3.114024e-03  0 
 2.613614e-03  -4.540971e-03  0 
 1.806347e-03  -5.145892e-03  0 
 2.052234e-03  -6.125403e-03  0 
 2.327453e-03  -6.777910e-03  0 
 3.412787e-03  -6.717489e-03  0 
 4.899939e-04  -1.741862e-03  0 
 3.547371e-04  -2.211678e-03  0 
 5.954864e-04  -2.096116e-03  0 
 5.639313e-04  -1.532458e-03  0 
 4.446022e-04  -2.607625e-03  0 
 8.077558e-04  -2.789553e-03  0 
 2.200992e-03  -6.812921e-03  0 
 1.039480e-03  -6.039884e-03  0 
 1.028871e-03  -4.143865e-03  0 
 2.159746e-03  -5.577462e-03  0 
 8.282213e-05  -3.511836e-03  0 
 1.955755e-03  -6.316644e-03  0 
 2.835069e-03  -6.128390e-03  0 
 2.522787e-03  -5.313410e-03  0 
 3.229945e-03  -1.098905e-02  0 
VECTORS displacement_ITER9 FLOAT
 1.633540e-03  -3.974993e-03  0 
 1.003916e-03  -2.040045e-03  0 
 1.302934e-03  -2.712394e-03  0 
 7.787340e-04  -3.193561e-03  0 
 2.605838e-03  -4.619495e-03  0 
 1.826338e-03  -5.182811e-03  0 
 2.069566e-03  -6.123532e-03  0 
 2.533307e-03  -6.767852e-03  0 
 3.279112e-03  -6.680634e-03  0 
 5.443232e-04  -1.872089e-03  0 
 4.236827e-04  -2.320709e-03  0 
 6.258810e-04  -2.197649e-03  0 
 5.920764e-04  -1.649056e-03  0 
 4.911815e-04  -2.685284e-03  0 
 8.388506e-04  -2.877671e-03  0 
 2.248431e-03  -6.617965e-03  0 
 1.097229e-03  -5.882912e-03  0 
 1.075005e-03  -4.168707e-03  0 
 2.162900e-03  -5.562310e-03  0 
 1.977890e-04  -3.471090e-03  0 
 1.859284e-03  -6.058657e-03  0 
 2.829519e-03  -6.131957e-03  0 
 2.512252e-03  -5.347693e-03  0 
 3.205626e-03  -1.090462e-02  0 
CELL_DATA 25
TENSORS element_stresses FLOAT
 7.564355e-01  -1.995174e-01  0 
 -1.995174e-01  -4.687338e-01  0 
 0  0  0 

 -2.340411e-02  -7.929154e-01  0 
 -7.929154e-01  2.759009e-01  0 
 0  0  0 

 2.768887e-01  -3.895312e-01  0 
 -3.895312e-01  -6.034400e-01  0 
 0  0  0 

 3.419805e-01  -1.180357e+00  0 
 -1.180357e+00  6.143933e-01  0 
 0  0  0 

 -6.334482e-02  -8.661114e-01  0 
 -8.661114e-01  2.626048e-01  0 
 0  0  0 

 6.345680e-01  -9.336856e-01  0 
 -9.336856e-01  -1.190834e+00  0 
 0  0  0 

 3.287883e-01  -1.166097e-01  0 
 -1.166097e-01  -2.245658e+00  0 
 0  0  0 

 -9.217975e-03  -1.479049e-01  0 
 -1.479049e-01  -5.606666e-01  0 
 0  0  0 

 1.647338e-01  -4.619092e-01  0 
 -4.619092e-01  -5.894223e-01  0 
 0  0  0 

 2.430661e-01  -7.939901e-01  0 
 -7.939901e-01  -5.516109e-01  0 
 0  0  0 

 -2.375565e-03  -1.775119e-03  0 
 -1.775119e-03  -1.090874e-02  0 
 0  0  0 

 -2.105509e-03  -6.453113e-04  0 
 -6.453113e-04  -1.032442e-02  0 
 0  0  0 

 4.188405e-04  5.042039e-03  0 
 5.042039e-03  -1.807855e-03  0 
 0  0  0 

 8.627154e-04  -4.895088e-03  0 
 -4.895088e-03  -8.267206e-03  0 
 0  0  0 

 3.868945e-04  3.206623e-03  0 
 3.206623e-03  -3.710397e-03  0 
 0  0  0 

 5.825336e-04  5.432269e-04  0 
 5.432269e-04  -9.828687e-03  0 
 0  0  0 

 1.917866e-03  -1.861100e-03  0 
 -1.861100e-03  -6.645759e-03  0 
 0  0  0 

 2.034150e-03  -1.150031e-03  0 
 -1.150031e-03  -6.250950e-03  0 
 0  0  0 

 2.178056e-03  -8.047961e-04  0 
 -8.047961e-04  -2.756600e-03  0 
 0  0  0 

 3.197580e-03  -7.738207e-04  0 
 -7.738207e-04  1.469205e-03  0 
 0  0  0 

 6.990397e-02  4.858744e-02  0 
 4.858744e-02  -1.912535e+00  0 
 0  0  0 

 3.583331e-01  -4.722451e-01  0 
 -4.722451e-01  -7.335281e-01  0 
 0  0  0 

 5.335050e-01  1.480613e-01  0 
 1.480613e-01  -6.539356e-01  0 
 0  0  0 

 4.075472e-02  -2.061884e-01  0 
 -2.061884e-01  1.082743e-01  0 
 0  0  0 

 9.666030e-04  -8.364560e-03  0 
 -8.364560e-03  5.516326e-04  0 
 0  0  0 

TENSORS element_stresses FLOAT
 7.564355e-01  -1.995174e-01  0 
 -1.995174e-01  -4.687338e-01  0 
 0  0  0 

 -2.340411e-02  -7.929154e-01  0 
 -7.929154e-01  2.759009e-01  0 
 0  0  0 

 2.768887e-01  -3.895312e-01  0 
 -3.895312e-01  -6.034400e-01  0 
 0  0  0 

 3.419805e-01  -1.180357e+00  0 
 -1.180357e+00  6.143933e-01  0 
 0  0  0 

 -6.334482e-02  -8.661114e-01  0 
 -8.661114e-01  2.626048e-01  0 
 0  0  0 

 6.345680e-01  -9.336856e-01  0 
 -9.336856e-01  -1.190834e+00  0 
 0  0  0 

 3.287883e-01  -1.166097e-01  0 
 -1.166097e-01  -2.245658e+00  0 
 0  0  0 

 -9.217975e-03  -1.479049e-01  0 
 -1.479049e-01  -5.606666e-01  0 
 0  0  0 

 1.647338e-01  -4.619092e-01  0 
 -4.619092e-01  -5.894223e-01  0 
 0  0  0 

 2.430661e-01  -7.939901e-01  0 
 -7.939901e-01  -5.516109e-01  0 
 0  0  0 

 -2.375565e-03  -1.775119e-03  0 
 -1.775119e-03  -1.090874e-02  0 
 0  0  0 

 -2.105509e-03  -6.453113e-04  0 
 -6.453113e-04  -1.032442e-02  0 
 0  0  0 

 4.188405e-04  5.042039e-03  0 
 5.042039e-03  -1.807855e-03  0 
 0  0  0 

 8.627154e-04  -4.895088e-03  0 
 -4.895088e-03  -8.267206e-03  0 
 0  0  0 

 3.868945e-04  3.206623e-03  0 
 3.206623e-03  -3.710397e-03  0 
 0  0  0 

 5.825336e-04  5.432269e-04  0 
 5.432269e-04  -9.828687e-03  0 
 0  0  0 

 1.917866e-03  -1.861100e-03  0 
 -1.861100e-03  -6.645759e-03  0 
 0  0  0 

 2.034150e-03  -1.150031e-03  0 
 -1.150031e-03  -6.250950e-03  0 
 0  0  0 

 2.178056e-03  -8.047961e-04  0 
 -8.047961e-04  -2.756600e-03  0 
 0  0  0 

 3.197580e-03  -7.738207e-04  0 
 -7.738207e-04  1.469205e-03  0 
 0  0  0 

 6.990397e-02  4.858744e-02  0 
 4.858744e-02  -1.912535e+00  0 
 0  0  0 

 3.583331e-01  -4.722451e-01  0 
 -4.722451e-01  -7.335281e-01  0 
 0  0  0 

 5.335050e-01  1.480613e-01  0 
 1.480613e-01  -6.539356e-01  0 
 0  0  0 

 4.075472e-02  -2.061884e-01  0 
 -2.061884e-01  1.082743e-01  0 
 0  0  0 

 9.666030e-04  -8.364560e-03  0 
 -8.364560e-03  5.516326e-04  0 
 0  0  0 

