# vtk DataFile Version 3.1
this is an vtk file created by FEMAC
ASCII
DATASET UNSTRUCTURED_GRID
POINTS 31 FLOAT
3.000000 4.000000 0.000000
3.000000 5.000000 0.000000
2.250000 5.000000 0.000000
2.500000 5.000000 0.000000
2.750000 5.000000 0.000000
3.000000 4.250000 0.000000
3.000000 4.500000 0.000000
3.000000 4.750000 0.000000
2.447447 4.528256 0.000000
2.813081 4.669072 0.000000
2.813653 4.331392 0.000000
2.255000 4.805000 0.000000
2.775000 4.500000 0.000000
2.660928 4.805846 0.000000
2.661595 4.194695 0.000000
2.242859 4.565925 0.000000
2.413341 4.323754 0.000000
2.453287 4.717271 0.000000
2.616917 4.404183 0.000000
2.613486 4.598598 0.000000
2.844802 4.844984 0.000000
2.845050 4.155217 0.000000
2.612481 5.213004 0.000000
2.371000 5.200321 0.000000
3.512466 4.547863 0.000000
3.226067 4.588218 0.000000
3.371004 4.799680 0.000000
3.336997 4.345660 0.000000
3.137613 4.361776 0.000000
3.169414 4.827579 0.000000
3.186855 4.186208 0.000000
CELLS 43 172 
3 9 6 7
3 6 10  5
3 11  3  2
3 9 12  6
3 12 10  6
3 18 10 12
3 9 19 12
3 13  4  3
3 13 19  9
3 18 14 10
3 15 17 11
3 18 19  8
3 18 12 19
3 18  8 16
3 16 14 18
3 17  3 11
3 13  3 17
3 8 19 17
3 13 17 19
3 4 20  1
3 7 20  9
3 20  7  1
3 21  5 10
3 5 21  0
3 13 20  4
3 13  9 20
3 10 14 21
3 16  8 15
3 8 17 15
3 4 22  3
3 2  3 23
3 3 22 23
3 25  7  6
3 25 27 24
3 25 24 26
3 6 28 25
3 28  6  5
3 28 27 25
3 7 29  1
3 30  5  0
3 5 30 28
3 27 28 30
3 25 29  7
CELL_TYPES 43
5 5 5 5 5 5 5 5 5 5 5 5 5 5 5 5 5 5 5 5 5 5 5 5 5 5 5 5 5 5 5 5 5 5 5 5 5 5 5 5 5 5 5 
POINT_DATA 31
VECTORS displacement_ITER1 FLOAT
 3.305411e-02  -1.160497e-01  0 
 6.372201e-02  -1.160711e-01  0 
 6.363961e-02  -9.311324e-02  0 
 6.368109e-02  -1.007244e-01  0 
 6.370857e-02  -1.083929e-01  0 
 4.070935e-02  -1.160580e-01  0 
 4.840206e-02  -1.160423e-01  0 
 5.606511e-02  -1.160690e-01  0 
 4.924335e-02  -9.909132e-02  0 
 5.357080e-02  -1.103155e-01  0 
 4.321752e-02  -1.103214e-01  0 
 5.770821e-02  -9.322152e-02  0 
 4.839082e-02  -1.091402e-01  0 
 5.775501e-02  -1.056471e-01  0 
 3.901729e-02  -1.056477e-01  0 
 5.038837e-02  -9.282269e-02  0 
 4.297132e-02  -9.802831e-02  0 
 5.503586e-02  -9.928240e-02  0 
 4.544618e-02  -1.042834e-01  0 
 5.140620e-02  -1.041884e-01  0 
 5.896644e-02  -1.113000e-01  0 
 3.780165e-02  -1.112959e-01  0 
 4.677383e-02  -9.553415e-02  0 
 4.352226e-02  -9.932460e-02  0 
 9.205061e-02  -2.545687e-01  0 
 7.113936e-02  -1.407422e-01  0 
 1.979595e-01  -2.466032e-01  0 
 3.736251e-02  -1.579004e-01  0 
 4.233294e-02  -1.262461e-01  0 
 5.904261e-02  -1.281167e-01  0 
 3.716030e-02  -1.332700e-01  0 
VECTORS displacement_ITER2 FLOAT
 2.441024e-02  -5.382930e-02  0 
 3.412790e-02  -5.399287e-02  0 
 3.402752e-02  -4.657219e-02  0 
 3.407439e-02  -4.901390e-02  0 
 3.411020e-02  -5.150170e-02  0 
 2.670605e-02  -5.391082e-02  0 
 2.917839e-02  -5.391998e-02  0 
 3.165013e-02  -5.396199e-02  0 
 2.943462e-02  -4.846236e-02  0 
 3.083249e-02  -5.208975e-02  0 
 2.751085e-02  -5.208847e-02  0 
 3.212506e-02  -4.658036e-02  0 
 2.917095e-02  -5.170254e-02  0 
 3.217181e-02  -5.059071e-02  0 
 2.617496e-02  -5.059558e-02  0 
 2.978837e-02  -4.645125e-02  0 
 2.744607e-02  -4.811706e-02  0 
 3.128242e-02  -4.852956e-02  0 
 2.822982e-02  -5.013596e-02  0 
 3.012990e-02  -5.010705e-02  0 
 3.257768e-02  -5.242882e-02  0 
 2.579565e-02  -5.242773e-02  0 
 3.720984e-02  -4.558513e-02  0 
 3.528186e-02  -4.548845e-02  0 
 5.734808e-02  -1.149917e-01  0 
 4.349630e-02  -6.230051e-02  0 
 1.137792e-01  -1.143625e-01  0 
 2.860847e-02  -6.868272e-02  0 
 2.858203e-02  -5.640496e-02  0 
 3.373892e-02  -5.874960e-02  0 
 2.792486e-02  -5.893302e-02  0 
VECTORS displacement_ITER3 FLOAT
 6.371193e-03  -9.974791e-03  0 
 1.198493e-02  -1.010497e-02  0 
 1.168572e-02  -5.890721e-03  0 
 1.181646e-02  -7.190058e-03  0 
 1.190663e-02  -8.604305e-03  0 
 7.597946e-03  -9.995025e-03  0 
 9.035311e-03  -9.986024e-03  0 
 1.047565e-02  -1.002704e-02  0 
 9.186046e-03  -6.805247e-03  0 
 9.994184e-03  -8.915130e-03  0 
 8.076003e-03  -8.930205e-03  0 
 1.067275e-02  -5.783716e-03  0 
 9.038378e-03  -8.690445e-03  0 
 1.076409e-02  -8.044826e-03  0 
 7.311335e-03  -8.064285e-03  0 
 9.371274e-03  -5.659842e-03  0 
 8.063303e-03  -6.586857e-03  0 
 1.023373e-02  -6.861345e-03  0 
 8.504063e-03  -7.774511e-03  0 
 9.587498e-03  -7.758734e-03  0 
 1.101712e-02  -9.122873e-03  0 
 7.090633e-03  -9.154818e-03  0 
 1.659275e-02  -1.495833e-02  0 
 7.429537e-03  -2.107940e-02  0 
 2.657643e-02  -4.235171e-02  0 
 1.612609e-02  -2.066075e-02  0 
 4.999062e-02  -5.398676e-02  0 
 1.121244e-02  -1.961435e-02  0 
 9.091697e-03  -1.352421e-02  0 
 1.303497e-02  -1.793763e-02  0 
 9.472395e-03  -1.413263e-02  0 
VECTORS displacement_ITER4 FLOAT
 4.959251e-03  -4.433524e-03  0 
 4.163258e-03  -4.496502e-03  0 
 3.781589e-03  -5.124174e-03  0 
 3.918296e-03  -4.787418e-03  0 
 4.027261e-03  -4.585416e-03  0 
 4.569242e-03  -4.370824e-03  0 
 4.379204e-03  -4.343642e-03  0 
 4.200425e-03  -4.385262e-03  0 
 4.356122e-03  -4.750088e-03  0 
 4.245235e-03  -4.477241e-03  0 
 4.526444e-03  -4.502354e-03  0 
 4.038033e-03  -4.981397e-03  0 
 4.389576e-03  -4.505976e-03  0 
 4.131703e-03  -4.590932e-03  0 
 4.654436e-03  -4.617857e-03  0 
 4.294008e-03  -4.943325e-03  0 
 4.570734e-03  -4.757517e-03  0 
 4.173033e-03  -4.764435e-03  0 
 4.482936e-03  -4.617255e-03  0 
 4.298870e-03  -4.619597e-03  0 
 4.139939e-03  -4.472858e-03  0 
 4.686478e-03  -4.534783e-03  0 
 7.222352e-03  -4.461997e-03  0 
 5.762131e-03  -4.534820e-03  0 
 7.311943e-03  -7.158349e-03  0 
 3.604170e-03  -1.022839e-02  0 
 1.010808e-03  -1.724239e-02  0 
 6.848227e-03  -6.727739e-03  0 
 4.926981e-03  -6.706731e-03  0 
 4.814516e-03  -8.120831e-03  0 
 5.953628e-03  -6.144199e-03  0 
VECTORS displacement_ITER5 FLOAT
 1.173308e-03  -3.409074e-03  0 
 2.781787e-03  -3.352818e-03  0 
 2.334611e-03  -2.421980e-03  0 
 2.518045e-03  -2.559506e-03  0 
 2.634315e-03  -2.904795e-03  0 
 1.449261e-03  -3.326241e-03  0 
 1.866418e-03  -3.256391e-03  0 
 2.254495e-03  -3.266222e-03  0 
 1.922540e-03  -2.396020e-03  0 
 2.125356e-03  -2.944554e-03  0 
 1.617979e-03  -2.989385e-03  0 
 2.220018e-03  -2.222685e-03  0 
 1.880815e-03  -2.897721e-03  0 
 2.321619e-03  -2.709206e-03  0 
 1.416094e-03  -2.749180e-03  0 
 1.960470e-03  -2.113883e-03  0 
 1.654450e-03  -2.333661e-03  0 
 2.173109e-03  -2.422528e-03  0 
 1.751159e-03  -2.649161e-03  0 
 2.024084e-03  -2.640052e-03  0 
 2.414289e-03  -2.996484e-03  0 
 1.325147e-03  -3.104483e-03  0 
 3.766867e-03  -1.779004e-03  0 
 3.749884e-03  -1.603677e-03  0 
 2.610588e-03  -3.856995e-03  0 
 2.001725e-03  -4.818495e-03  0 
 2.653692e-04  -5.053712e-03  0 
 2.729273e-03  -5.059075e-03  0 
 2.088726e-03  -4.461295e-03  0 
 2.579359e-03  -3.956025e-03  0 
 2.131086e-03  -5.057242e-03  0 
VECTORS displacement_ITER6 FLOAT
 1.630443e-03  -2.515694e-03  0 
 2.624771e-03  -2.283084e-03  0 
 2.092149e-03  -2.006759e-03  0 
 2.323414e-03  -1.897371e-03  0 
 2.459869e-03  -2.048457e-03  0 
 1.802700e-03  -2.373535e-03  0 
 2.060884e-03  -2.250343e-03  0 
 2.272219e-03  -2.224998e-03  0 
 2.131119e-03  -1.776333e-03  0 
 2.210859e-03  -2.043205e-03  0 
 1.936890e-03  -2.133743e-03  0 
 2.191113e-03  -1.761377e-03  0 
 2.089551e-03  -2.044275e-03  0 
 2.303850e-03  -1.911625e-03  0 
 1.819460e-03  -1.999021e-03  0 
 2.152408e-03  -1.655739e-03  0 
 1.998104e-03  -1.733847e-03  0 
 2.227936e-03  -1.789711e-03  0 
 2.036573e-03  -1.914029e-03  0 
 2.170489e-03  -1.890030e-03  0 
 2.370016e-03  -2.057620e-03  0 
 1.738035e-03  -2.248297e-03  0 
 2.598947e-03  -1.707861e-03  0 
 2.373330e-03  -1.815855e-03  0 
 2.454367e-03  -4.429282e-03  0 
 2.116319e-03  -3.226550e-03  0 
 2.496415e-03  -4.784751e-03  0 
 1.892272e-03  -3.268612e-03  0 
 1.858104e-03  -2.741803e-03  0 
 2.606353e-03  -2.923032e-03  0 
 1.714875e-03  -2.787397e-03  0 
VECTORS displacement_ITER7 FLOAT
 1.033427e-03  -3.115687e-03  0 
 2.235089e-03  -3.003678e-03  0 
 1.791125e-03  -2.285049e-03  0 
 1.961100e-03  -2.392117e-03  0 
 2.080612e-03  -2.662216e-03  0 
 1.198952e-03  -3.011852e-03  0 
 1.482854e-03  -2.935515e-03  0 
 1.781820e-03  -2.941398e-03  0 
 1.563050e-03  -2.303269e-03  0 
 1.683137e-03  -2.689185e-03  0 
 1.325385e-03  -2.769303e-03  0 
 1.739795e-03  -2.137430e-03  0 
 1.506426e-03  -2.676460e-03  0 
 1.836969e-03  -2.496479e-03  0 
 1.196452e-03  -2.608483e-03  0 
 1.612623e-03  -2.084158e-03  0 
 1.367895e-03  -2.295514e-03  0 
 1.726544e-03  -2.284165e-03  0 
 1.426912e-03  -2.511491e-03  0 
 1.617558e-03  -2.466354e-03  0 
 1.917706e-03  -2.717040e-03  0 
 1.134450e-03  -2.886666e-03  0 
 2.553017e-03  -2.573102e-03  0 
 2.275170e-03  -2.272251e-03  0 
 2.707445e-03  -3.786543e-03  0 
 1.719266e-03  -3.882965e-03  0 
 1.239965e-03  -5.010162e-03  0 
 1.979403e-03  -3.204994e-03  0 
 1.482929e-03  -3.237204e-03  0 
 2.091172e-03  -3.625547e-03  0 
 1.468205e-03  -2.986902e-03  0 
VECTORS displacement_ITER8 FLOAT
 1.206992e-03  -2.461604e-03  0 
 2.019433e-03  -2.432441e-03  0 
 1.600657e-03  -1.943464e-03  0 
 1.756382e-03  -1.981257e-03  0 
 1.868565e-03  -2.174237e-03  0 
 1.292250e-03  -2.380141e-03  0 
 1.443333e-03  -2.346408e-03  0 
 1.651676e-03  -2.367361e-03  0 
 1.515565e-03  -1.939556e-03  0 
 1.578536e-03  -2.181654e-03  0 
 1.356062e-03  -2.250923e-03  0 
 1.612334e-03  -1.816202e-03  0 
 1.464175e-03  -2.182831e-03  0 
 1.688023e-03  -2.042585e-03  0 
 1.278460e-03  -2.153709e-03  0 
 1.557975e-03  -1.798494e-03  0 
 1.374518e-03  -1.939392e-03  0 
 1.613464e-03  -1.908180e-03  0 
 1.419427e-03  -2.085809e-03  0 
 1.540884e-03  -2.036221e-03  0 
 1.754705e-03  -2.199158e-03  0 
 1.266212e-03  -2.319065e-03  0 
 2.295624e-03  -2.046658e-03  0 
 1.952523e-03  -1.927776e-03  0 
 1.839077e-03  -3.601252e-03  0 
 1.633858e-03  -2.920141e-03  0 
 2.004304e-03  -3.463845e-03  0 
 1.551983e-03  -3.080494e-03  0 
 1.428614e-03  -2.669151e-03  0 
 1.891893e-03  -2.837496e-03  0 
 1.354450e-03  -2.767121e-03  0 
VECTORS displacement_ITER9 FLOAT
 1.267339e-03  -2.451807e-03  0 
 2.056887e-03  -2.427096e-03  0 
 1.646348e-03  -1.907879e-03  0 
 1.797514e-03  -1.963143e-03  0 
 1.906977e-03  -2.162335e-03  0 
 1.323313e-03  -2.359470e-03  0 
 1.466868e-03  -2.336611e-03  0 
 1.682417e-03  -2.361590e-03  0 
 1.541129e-03  -1.918900e-03  0 
 1.606107e-03  -2.170628e-03  0 
 1.380233e-03  -2.241372e-03  0 
 1.638697e-03  -1.780905e-03  0 
 1.488268e-03  -2.170627e-03  0 
 1.719731e-03  -2.028978e-03  0 
 1.309820e-03  -2.154541e-03  0 
 1.583213e-03  -1.769886e-03  0 
 1.403739e-03  -1.923646e-03  0 
 1.639261e-03  -1.884188e-03  0 
 1.445240e-03  -2.074026e-03  0 
 1.565783e-03  -2.019275e-03  0 
 1.787850e-03  -2.190007e-03  0 
 1.306658e-03  -2.307206e-03  0 
 2.313130e-03  -1.979317e-03  0 
 2.029233e-03  -1.836587e-03  0 
 1.861367e-03  -3.440989e-03  0 
 1.645543e-03  -2.929018e-03  0 
 1.712506e-03  -3.361869e-03  0 
 1.571942e-03  -2.980550e-03  0 
 1.442267e-03  -2.623951e-03  0 
 1.932784e-03  -2.888005e-03  0 
 1.372057e-03  -2.669162e-03  0 
VECTORS displacement_ITER10 FLOAT
 1.270226e-03  -2.333170e-03  0 
 2.044855e-03  -2.343887e-03  0 
 1.620858e-03  -1.825742e-03  0 
 1.778571e-03  -1.871208e-03  0 
 1.890982e-03  -2.073405e-03  0 
 1.299051e-03  -2.262859e-03  0 
 1.441782e-03  -2.249222e-03  0 
 1.662284e-03  -2.276139e-03  0 
 1.517012e-03  -1.825266e-03  0 
 1.584104e-03  -2.081177e-03  0 
 1.352920e-03  -2.152676e-03  0 
 1.620502e-03  -1.690062e-03  0 
 1.463994e-03  -2.081350e-03  0 
 1.700414e-03  -1.937223e-03  0 
 1.278696e-03  -2.062008e-03  0 
 1.558952e-03  -1.673001e-03  0 
 1.375337e-03  -1.827896e-03  0 
 1.620014e-03  -1.792538e-03  0 
 1.419073e-03  -1.982147e-03  0 
 1.543699e-03  -1.928434e-03  0 
 1.769823e-03  -2.101167e-03  0 
 1.284551e-03  -2.215751e-03  0 
 2.326218e-03  -1.935626e-03  0 
 1.984130e-03  -1.781087e-03  0 
 1.802212e-03  -3.330590e-03  0 
 1.624735e-03  -2.783987e-03  0 
 1.882797e-03  -3.192857e-03  0 
 1.533542e-03  -2.912461e-03  0 
 1.424496e-03  -2.536984e-03  0 
 1.920131e-03  -2.788051e-03  0 
 1.366871e-03  -2.614949e-03  0 
VECTORS displacement_ITER11 FLOAT
 1.281421e-03  -2.302214e-03  0 
 2.035520e-03  -2.321022e-03  0 
 1.613558e-03  -1.811532e-03  0 
 1.769032e-03  -1.855874e-03  0 
 1.881499e-03  -2.054116e-03  0 
 1.300848e-03  -2.237578e-03  0 
 1.439481e-03  -2.225916e-03  0 
 1.656525e-03  -2.253124e-03  0 
 1.514975e-03  -1.810788e-03  0 
 1.579464e-03  -2.060842e-03  0 
 1.352848e-03  -2.132006e-03  0 
 1.613999e-03  -1.679284e-03  0 
 1.461683e-03  -2.061572e-03  0 
 1.693857e-03  -1.919256e-03  0 
 1.282301e-03  -2.046623e-03  0 
 1.556393e-03  -1.662020e-03  0 
 1.375649e-03  -1.813006e-03  0 
 1.614951e-03  -1.778007e-03  0 
 1.418490e-03  -1.965660e-03  0 
 1.540276e-03  -1.911313e-03  0 
 1.762669e-03  -2.080426e-03  0 
 1.287996e-03  -2.193777e-03  0 
 2.248161e-03  -1.870575e-03  0 
 1.935711e-03  -1.772603e-03  0 
 1.832693e-03  -3.365490e-03  0 
 1.634871e-03  -2.758579e-03  0 
 1.995870e-03  -3.281182e-03  0 
 1.527299e-03  -2.872963e-03  0 
 1.421598e-03  -2.504216e-03  0 
 1.887139e-03  -2.735144e-03  0 
 1.370669e-03  -2.578821e-03  0 
VECTORS displacement_ITER12 FLOAT
 1.281632e-03  -2.302264e-03  0 
 2.036732e-03  -2.321432e-03  0 
 1.614364e-03  -1.811765e-03  0 
 1.770230e-03  -1.855834e-03  0 
 1.882654e-03  -2.054385e-03  0 
 1.301535e-03  -2.238260e-03  0 
 1.440414e-03  -2.226331e-03  0 
 1.657574e-03  -2.253440e-03  0 
 1.515825e-03  -1.810854e-03  0 
 1.580492e-03  -2.061021e-03  0 
 1.353685e-03  -2.132494e-03  0 
 1.615185e-03  -1.678955e-03  0 
 1.462743e-03  -2.061730e-03  0 
 1.694802e-03  -1.919468e-03  0 
 1.282264e-03  -2.046050e-03  0 
 1.557054e-03  -1.662639e-03  0 
 1.377046e-03  -1.813127e-03  0 
 1.615760e-03  -1.778188e-03  0 
 1.419524e-03  -1.965368e-03  0 
 1.541230e-03  -1.911371e-03  0 
 1.763720e-03  -2.080699e-03  0 
 1.288529e-03  -2.194434e-03  0 
 2.247485e-03  -1.871773e-03  0 
 1.931963e-03  -1.767732e-03  0 
 1.834664e-03  -3.370631e-03  0 
 1.642293e-03  -2.762288e-03  0 
 1.974137e-03  -3.238730e-03  0 
 1.528756e-03  -2.881844e-03  0 
 1.423623e-03  -2.508094e-03  0 
 1.882261e-03  -2.730719e-03  0 
 1.372218e-03  -2.590110e-03  0 
VECTORS displacement_ITER13 FLOAT
 1.281649e-03  -2.302173e-03  0 
 2.036708e-03  -2.321844e-03  0 
 1.614517e-03  -1.811804e-03  0 
 1.770106e-03  -1.856291e-03  0 
 1.882588e-03  -2.054761e-03  0 
 1.301088e-03  -2.238790e-03  0 
 1.440240e-03  -2.226757e-03  0 
 1.657466e-03  -2.253872e-03  0 
 1.515662e-03  -1.811145e-03  0 
 1.580365e-03  -2.061407e-03  0 
 1.353431e-03  -2.132831e-03  0 
 1.614873e-03  -1.679392e-03  0 
 1.462542e-03  -2.062088e-03  0 
 1.694738e-03  -1.919805e-03  0 
 1.282017e-03  -2.046268e-03  0 
 1.557026e-03  -1.662703e-03  0 
 1.376848e-03  -1.813644e-03  0 
 1.615651e-03  -1.778420e-03  0 
 1.419272e-03  -1.965684e-03  0 
 1.541067e-03  -1.911678e-03  0 
 1.763653e-03  -2.081073e-03  0 
 1.288044e-03  -2.195022e-03  0 
 2.250210e-03  -1.873354e-03  0 
 1.933602e-03  -1.771194e-03  0 
 1.831643e-03  -3.378790e-03  0 
 1.642065e-03  -2.758672e-03  0 
 1.982864e-03  -3.241455e-03  0 
 1.522585e-03  -2.882400e-03  0 
 1.421418e-03  -2.506970e-03  0 
 1.880345e-03  -2.731967e-03  0 
 1.370068e-03  -2.589163e-03  0 
VECTORS displacement_ITER14 FLOAT
 1.281638e-03  -2.302181e-03  0 
 2.036711e-03  -2.321829e-03  0 
 1.614521e-03  -1.811783e-03  0 
 1.770117e-03  -1.856264e-03  0 
 1.882594e-03  -2.054744e-03  0 
 1.301106e-03  -2.238765e-03  0 
 1.440245e-03  -2.226741e-03  0 
 1.657471e-03  -2.253855e-03  0 
 1.515669e-03  -1.811129e-03  0 
 1.580371e-03  -2.061388e-03  0 
 1.353436e-03  -2.132820e-03  0 
 1.614891e-03  -1.679361e-03  0 
 1.462551e-03  -2.062070e-03  0 
 1.694740e-03  -1.919790e-03  0 
 1.282022e-03  -2.046274e-03  0 
 1.557021e-03  -1.662705e-03  0 
 1.376877e-03  -1.813622e-03  0 
 1.615652e-03  -1.778408e-03  0 
 1.419287e-03  -1.965667e-03  0 
 1.541074e-03  -1.911661e-03  0 
 1.763656e-03  -2.081057e-03  0 
 1.288064e-03  -2.194994e-03  0 
 2.250663e-03  -1.873018e-03  0 
 1.932869e-03  -1.771523e-03  0 
 1.832477e-03  -3.378754e-03  0 
 1.642359e-03  -2.758743e-03  0 
 1.982590e-03  -3.241698e-03  0 
 1.523024e-03  -2.882277e-03  0 
 1.421475e-03  -2.506518e-03  0 
 1.880486e-03  -2.732709e-03  0 
 1.369328e-03  -2.588110e-03  0 
CELL_DATA 43
TENSORS element_stresses FLOAT
 4.113652e-03  -8.755079e-02  0 
 -8.755079e-02  -1.072208e-01  0 
 0  0  0 

 -2.560991e-02  6.946625e-03  0 
 6.946625e-03  4.041243e-02  0 
 0  0  0 

 4.585614e-01  -1.260468e-01  0 
 -1.260468e-01  -5.460827e-01  0 
 0  0  0 

 -5.327177e-02  -9.753587e-03  0 
 -9.753587e-03  1.528944e-01  0 
 0  0  0 

 -2.592274e-02  -8.265191e-02  0 
 -8.265191e-02  2.440579e-01  0 
 0  0  0 

 -3.341135e-02  -1.041947e-01  0 
 -1.041947e-01  2.356521e-01  0 
 0  0  0 

 3.261269e-03  -8.278589e-02  0 
 -8.278589e-02  1.889189e-01  0 
 0  0  0 

 3.853295e-01  -2.520983e-02  0 
 -2.520983e-02  -2.152612e-01  0 
 0  0  0 

 -3.008500e-02  -3.340288e-02  0 
 -3.340288e-02  1.351248e-01  0 
 0  0  0 

 -3.723303e-02  -1.030648e-01  0 
 -1.030648e-01  2.098516e-01  0 
 0  0  0 

 1.049465e-01  -2.170293e-01  0 
 -2.170293e-01  -1.184308e-02  0 
 0  0  0 

 -3.517254e-02  -7.179862e-02  0 
 -7.179862e-02  2.545643e-01  0 
 0  0  0 

 -2.816399e-02  -1.118385e-01  0 
 -1.118385e-01  2.557463e-01  0 
 0  0  0 

 -2.209359e-02  -8.873242e-02  0 
 -8.873242e-02  1.397706e-01  0 
 0  0  0 

 1.733373e-02  -1.413361e-01  0 
 -1.413361e-01  2.131740e-01  0 
 0  0  0 

 1.922215e-01  -5.422884e-02  0 
 -5.422884e-02  -1.220363e-01  0 
 0  0  0 

 1.170046e-01  -6.622287e-02  0 
 -6.622287e-02  -1.401200e-01  0 
 0  0  0 

 -1.508435e-02  -1.204753e-01  0 
 -1.204753e-01  1.898332e-01  0 
 0  0  0 

 1.212806e-01  -8.431482e-03  0 
 -8.431482e-03  1.656515e-01  0 
 0  0  0 

 5.180036e-01  5.840605e-02  0 
 5.840605e-02  -3.282075e-01  0 
 0  0  0 

 -1.962894e-02  -1.145683e-02  0 
 -1.145683e-02  7.422994e-02  0 
 0  0  0 

 1.787272e-01  1.824268e-01  0 
 1.824268e-01  -2.182776e-01  0 
 0  0  0 

 -5.156594e-02  -7.788395e-02  0 
 -7.788395e-02  2.573582e-01  0 
 0  0  0 

 1.237765e-01  -2.767510e-01  0 
 -2.767510e-01  2.907975e-01  0 
 0  0  0 

 9.869284e-02  5.669061e-02  0 
 5.669061e-02  -2.947909e-01  0 
 0  0  0 

 1.907623e-01  9.685408e-02  0 
 9.685408e-02  1.054204e-01  0 
 0  0  0 

 2.003352e-01  -2.861939e-01  0 
 -2.861939e-01  2.768529e-01  0 
 0  0  0 

 -3.967041e-02  -8.090490e-03  0 
 -8.090490e-03  1.173149e-01  0 
 0  0  0 

 -5.034132e-02  -1.211442e-01  0 
 -1.211442e-01  1.793137e-01  0 
 0  0  0 

 6.066860e-04  9.419502e-04  0 
 9.419502e-04  5.225939e-04  0 
 0  0  0 

 7.856283e-04  7.964045e-04  0 
 7.964045e-04  5.441403e-04  0 
 0  0  0 

 1.402095e-03  9.058259e-04  0 
 9.058259e-04  5.680098e-04  0 
 0  0  0 

 5.741096e-04  -1.109284e-03  0 
 -1.109284e-03  6.377794e-05  0 
 0  0  0 

 6.917372e-04  -1.066835e-03  0 
 -1.066835e-03  -3.063535e-04  0 
 0  0  0 

 6.518831e-04  -9.348697e-04  0 
 -9.348697e-04  -5.340535e-04  0 
 0  0  0 

 5.899471e-04  -1.172970e-03  0 
 -1.172970e-03  -5.261576e-05  0 
 0  0  0 

 4.802933e-04  -1.098626e-03  0 
 -1.098626e-03  1.921834e-04  0 
 0  0  0 

 5.058425e-04  -8.934279e-04  0 
 -8.934279e-04  -2.143736e-04  0 
 0  0  0 

 5.935834e-04  -9.115861e-04  0 
 -9.115861e-04  -9.382067e-05  0 
 0  0  0 

 5.140589e-04  -1.311638e-03  0 
 -1.311638e-03  4.078822e-04  0 
 0  0  0 

 5.451889e-04  -1.115693e-03  0 
 -1.115693e-03  9.758788e-05  0 
 0  0  0 

 5.781200e-04  -1.107544e-03  0 
 -1.107544e-03  1.080956e-04  0 
 0  0  0 

 6.868294e-04  -1.089551e-03  0 
 -1.089551e-03  -2.993925e-04  0 
 0  0  0 

TENSORS element_stresses FLOAT
 4.113652e-03  -8.755079e-02  0 
 -8.755079e-02  -1.072208e-01  0 
 0  0  0 

 -2.560991e-02  6.946625e-03  0 
 6.946625e-03  4.041243e-02  0 
 0  0  0 

 4.585614e-01  -1.260468e-01  0 
 -1.260468e-01  -5.460827e-01  0 
 0  0  0 

 -5.327177e-02  -9.753587e-03  0 
 -9.753587e-03  1.528944e-01  0 
 0  0  0 

 -2.592274e-02  -8.265191e-02  0 
 -8.265191e-02  2.440579e-01  0 
 0  0  0 

 -3.341135e-02  -1.041947e-01  0 
 -1.041947e-01  2.356521e-01  0 
 0  0  0 

 3.261269e-03  -8.278589e-02  0 
 -8.278589e-02  1.889189e-01  0 
 0  0  0 

 3.853295e-01  -2.520983e-02  0 
 -2.520983e-02  -2.152612e-01  0 
 0  0  0 

 -3.008500e-02  -3.340288e-02  0 
 -3.340288e-02  1.351248e-01  0 
 0  0  0 

 -3.723303e-02  -1.030648e-01  0 
 -1.030648e-01  2.098516e-01  0 
 0  0  0 

 1.049465e-01  -2.170293e-01  0 
 -2.170293e-01  -1.184308e-02  0 
 0  0  0 

 -3.517254e-02  -7.179862e-02  0 
 -7.179862e-02  2.545643e-01  0 
 0  0  0 

 -2.816399e-02  -1.118385e-01  0 
 -1.118385e-01  2.557463e-01  0 
 0  0  0 

 -2.209359e-02  -8.873242e-02  0 
 -8.873242e-02  1.397706e-01  0 
 0  0  0 

 1.733373e-02  -1.413361e-01  0 
 -1.413361e-01  2.131740e-01  0 
 0  0  0 

 1.922215e-01  -5.422884e-02  0 
 -5.422884e-02  -1.220363e-01  0 
 0  0  0 

 1.170046e-01  -6.622287e-02  0 
 -6.622287e-02  -1.401200e-01  0 
 0  0  0 

 -1.508435e-02  -1.204753e-01  0 
 -1.204753e-01  1.898332e-01  0 
 0  0  0 

 1.212806e-01  -8.431482e-03  0 
 -8.431482e-03  1.656515e-01  0 
 0  0  0 

 5.180036e-01  5.840605e-02  0 
 5.840605e-02  -3.282075e-01  0 
 0  0  0 

 -1.962894e-02  -1.145683e-02  0 
 -1.145683e-02  7.422994e-02  0 
 0  0  0 

 1.787272e-01  1.824268e-01  0 
 1.824268e-01  -2.182776e-01  0 
 0  0  0 

 -5.156594e-02  -7.788395e-02  0 
 -7.788395e-02  2.573582e-01  0 
 0  0  0 

 1.237765e-01  -2.767510e-01  0 
 -2.767510e-01  2.907975e-01  0 
 0  0  0 

 9.869284e-02  5.669061e-02  0 
 5.669061e-02  -2.947909e-01  0 
 0  0  0 

 1.907623e-01  9.685408e-02  0 
 9.685408e-02  1.054204e-01  0 
 0  0  0 

 2.003352e-01  -2.861939e-01  0 
 -2.861939e-01  2.768529e-01  0 
 0  0  0 

 -3.967041e-02  -8.090490e-03  0 
 -8.090490e-03  1.173149e-01  0 
 0  0  0 

 -5.034132e-02  -1.211442e-01  0 
 -1.211442e-01  1.793137e-01  0 
 0  0  0 

 6.066860e-04  9.419502e-04  0 
 9.419502e-04  5.225939e-04  0 
 0  0  0 

 7.856283e-04  7.964045e-04  0 
 7.964045e-04  5.441403e-04  0 
 0  0  0 

 1.402095e-03  9.058259e-04  0 
 9.058259e-04  5.680098e-04  0 
 0  0  0 

 5.741096e-04  -1.109284e-03  0 
 -1.109284e-03  6.377794e-05  0 
 0  0  0 

 6.917372e-04  -1.066835e-03  0 
 -1.066835e-03  -3.063535e-04  0 
 0  0  0 

 6.518831e-04  -9.348697e-04  0 
 -9.348697e-04  -5.340535e-04  0 
 0  0  0 

 5.899471e-04  -1.172970e-03  0 
 -1.172970e-03  -5.261576e-05  0 
 0  0  0 

 4.802933e-04  -1.098626e-03  0 
 -1.098626e-03  1.921834e-04  0 
 0  0  0 

 5.058425e-04  -8.934279e-04  0 
 -8.934279e-04  -2.143736e-04  0 
 0  0  0 

 5.935834e-04  -9.115861e-04  0 
 -9.115861e-04  -9.382067e-05  0 
 0  0  0 

 5.140589e-04  -1.311638e-03  0 
 -1.311638e-03  4.078822e-04  0 
 0  0  0 

 5.451889e-04  -1.115693e-03  0 
 -1.115693e-03  9.758788e-05  0 
 0  0  0 

 5.781200e-04  -1.107544e-03  0 
 -1.107544e-03  1.080956e-04  0 
 0  0  0 

 6.868294e-04  -1.089551e-03  0 
 -1.089551e-03  -2.993925e-04  0 
 0  0  0 

