# vtk DataFile Version 3.1
this is an vtk file created by FEMAC
ASCII
DATASET UNSTRUCTURED_GRID
POINTS 30 FLOAT
6.000000 2.000000 0.000000
5.000000 1.500000 0.000000
5.250000 2.000000 0.000000
5.500000 2.000000 0.000000
5.750000 2.000000 0.000000
6.000000 1.500000 0.000000
6.000000 1.750000 0.000000
6.000000 2.250000 0.000000
6.000000 2.500000 0.000000
5.528256 1.447447 0.000000
5.669072 1.813081 0.000000
5.331392 1.813653 0.000000
5.500000 1.775000 0.000000
5.805846 1.660928 0.000000
5.194695 1.661595 0.000000
5.323754 1.413341 0.000000
5.717271 1.453287 0.000000
5.404183 1.616917 0.000000
5.598598 1.613486 0.000000
5.844984 1.844802 0.000000
5.155217 1.845050 0.000000
5.674167 2.178356 0.000000
5.325972 2.178472 0.000000
5.500000 2.225000 0.000000
5.828194 2.341416 0.000000
5.808128 2.581646 0.000000
5.399662 2.398247 0.000000
5.630720 2.401594 0.000000
5.507893 2.661856 0.000000
5.850472 2.153954 0.000000
CELLS 42 168 
3 3 10  4
3 11  3  2
3 12 10  3
3 11 12  3
3 11 17 12
3 18 10 12
3 6 13  5
3 18 13 10
3 14 17 11
3 18 17  9
3 12 17 18
3 14  1 15
3 9 17 15
3 14 15 17
3 5 13 16
3 18  9 16
3 16 13 18
3 4 19  0
3 19  6  0
3 19  4 10
3 2 20 11
3 19 13  6
3 10 13 19
3 14 11 20
3 21  3  4
3 3 22  2
3 21 23  3
3 23 22  3
3 26 22 23
3 21 27 23
3 24  7  8
3 24 27 21
3 26 23 27
3 29  4  0
3 7 29  0
3 4 29 21
3 24 29  7
3 24 21 29
3 24  8 25
3 24 25 27
3 26 27 28
3 28 27 25
CELL_TYPES 42
5 5 5 5 5 5 5 5 5 5 5 5 5 5 5 5 5 5 5 5 5 5 5 5 5 5 5 5 5 5 5 5 5 5 5 5 5 5 5 5 5 5 
POINT_DATA 30
VECTORS displacement_ITER1 FLOAT
 -2.437515e-02  -4.298171e-01  0 
 -8.607876e-02  -3.063190e-01  0 
 -2.434793e-02  -3.372362e-01  0 
 -2.434345e-02  -3.681068e-01  0 
 -2.435601e-02  -3.989693e-01  0 
 -8.607542e-02  -4.298781e-01  0 
 -5.521547e-02  -4.298531e-01  0 
 -2.188414e-02  -4.061719e-01  0 
 -2.634569e-02  -3.876268e-01  0 
 -9.256488e-02  -3.716013e-01  0 
 -4.741857e-02  -3.889898e-01  0 
 -4.734511e-02  -3.472806e-01  0 
 -5.211796e-02  -3.681087e-01  0 
 -6.620313e-02  -4.058872e-01  0 
 -6.611700e-02  -3.303895e-01  0 
 -9.678077e-02  -3.463338e-01  0 
 -9.184030e-02  -3.949557e-01  0 
 -7.163531e-02  -3.562732e-01  0 
 -7.205868e-02  -3.802910e-01  0 
 -4.350977e-02  -4.107068e-01  0 
 -4.347412e-02  -3.255248e-01  0 
 -1.425228e-02  -3.869291e-01  0 
 -1.429839e-02  -3.512779e-01  0 
 -1.164717e-02  -3.698974e-01  0 
 -1.721971e-02  -3.911134e-01  0 
 -2.045583e-02  -3.759627e-01  0 
 -1.031736e-02  -3.657300e-01  0 
 -1.280597e-02  -3.752438e-01  0 
 -1.984920e-02  -3.629389e-01  0 
 -1.755625e-02  -4.041524e-01  0 
VECTORS displacement_ITER2 FLOAT
 -2.573232e-02  -2.115634e-01  0 
 -5.162374e-02  -1.596924e-01  0 
 -2.576129e-02  -1.726070e-01  0 
 -2.574556e-02  -1.855944e-01  0 
 -2.573787e-02  -1.985749e-01  0 
 -5.165863e-02  -2.115436e-01  0 
 -3.870396e-02  -2.115493e-01  0 
 -1.824020e-02  -2.142513e-01  0 
 -1.138287e-02  -2.050063e-01  0 
 -5.438179e-02  -1.870631e-01  0 
 -3.543747e-02  -1.943691e-01  0 
 -3.541971e-02  -1.768315e-01  0 
 -3.741634e-02  -1.855893e-01  0 
 -4.332297e-02  -2.014704e-01  0 
 -4.328658e-02  -1.697497e-01  0 
 -5.613803e-02  -1.764629e-01  0 
 -5.407913e-02  -1.968777e-01  0 
 -4.560443e-02  -1.806181e-01  0 
 -4.578145e-02  -1.907110e-01  0 
 -3.378967e-02  -2.035045e-01  0 
 -3.380236e-02  -1.676908e-01  0 
 -1.900591e-02  -1.927885e-01  0 
 -1.390198e-02  -1.713691e-01  0 
 -1.427508e-02  -1.806362e-01  0 
 -1.333533e-02  -1.994602e-01  0 
 -4.351872e-03  -1.899100e-01  0 
 -3.702046e-03  -1.690061e-01  0 
 -8.046653e-03  -1.838546e-01  0 
 3.678560e-03  -1.662441e-01  0 
 -2.134616e-02  -2.037481e-01  0 
VECTORS displacement_ITER3 FLOAT
 -2.011292e-02  -8.695346e-02  0 
 -3.493089e-02  -5.722729e-02  0 
 -2.014133e-02  -6.453335e-02  0 
 -2.014123e-02  -7.202293e-02  0 
 -2.012791e-02  -7.947893e-02  0 
 -3.501099e-02  -8.688419e-02  0 
 -2.757143e-02  -8.691992e-02  0 
 -1.335578e-02  -9.820616e-02  0 
 -1.064907e-02  -9.828418e-02  0 
 -3.654242e-02  -7.286098e-02  0 
 -2.570486e-02  -7.705172e-02  0 
 -2.570260e-02  -6.698555e-02  0 
 -2.684165e-02  -7.201463e-02  0 
 -3.023097e-02  -8.112418e-02  0 
 -3.021662e-02  -6.293695e-02  0 
 -3.753576e-02  -6.678867e-02  0 
 -3.637902e-02  -7.851157e-02  0 
 -3.153278e-02  -6.916039e-02  0 
 -3.162943e-02  -7.495412e-02  0 
 -2.475335e-02  -8.230369e-02  0 
 -2.476142e-02  -6.170184e-02  0 
 -1.707258e-02  -7.978893e-02  0 
 -1.607745e-02  -6.879265e-02  0 
 -1.546155e-02  -7.438739e-02  0 
 -1.261250e-02  -8.892649e-02  0 
 -8.986734e-03  -8.783380e-02  0 
 -1.239751e-02  -7.415583e-02  0 
 -1.159249e-02  -8.050264e-02  0 
 -1.114274e-02  -8.049822e-02  0 
 -1.764454e-02  -8.617266e-02  0 
VECTORS displacement_ITER4 FLOAT
 -1.248753e-02  -3.406316e-02  0 
 -1.598447e-02  -2.691818e-02  0 
 -1.249865e-02  -2.850998e-02  0 
 -1.252121e-02  -3.039006e-02  0 
 -1.250584e-02  -3.221113e-02  0 
 -1.615006e-02  -3.395342e-02  0 
 -1.432354e-02  -3.402020e-02  0 
 -8.084125e-03  -4.838243e-02  0 
 -8.472922e-03  -4.849736e-02  0 
 -1.643349e-02  -3.060115e-02  0 
 -1.387750e-02  -3.160280e-02  0 
 -1.387980e-02  -2.916404e-02  0 
 -1.414845e-02  -3.039114e-02  0 
 -1.498473e-02  -3.259513e-02  0 
 -1.496442e-02  -2.821748e-02  0 
 -1.666238e-02  -2.915153e-02  0 
 -1.642323e-02  -3.203751e-02  0 
 -1.526690e-02  -2.970580e-02  0 
 -1.528382e-02  -3.111153e-02  0 
 -1.363969e-02  -3.289641e-02  0 
 -1.362707e-02  -2.782404e-02  0 
 -1.167699e-02  -3.472892e-02  0 
 -1.008551e-02  -3.094352e-02  0 
 -1.039226e-02  -3.285975e-02  0 
 -8.566650e-03  -4.172343e-02  0 
 -8.188347e-03  -4.141213e-02  0 
 -9.211776e-03  -3.472814e-02  0 
 -8.389631e-03  -3.699197e-02  0 
 -1.155938e-02  -4.027296e-02  0 
 -1.197561e-02  -3.759616e-02  0 
VECTORS displacement_ITER5 FLOAT
 -5.150995e-03  -1.342180e-02  0 
 -5.935606e-03  -1.182216e-02  0 
 -5.187380e-03  -1.206296e-02  0 
 -5.184315e-03  -1.253507e-02  0 
 -5.169037e-03  -1.296900e-02  0 
 -5.987255e-03  -1.335254e-02  0 
 -5.585890e-03  -1.338223e-02  0 
 -2.823245e-03  -2.924822e-02  0 
 -2.136876e-03  -3.360264e-02  0 
 -6.072799e-03  -1.255510e-02  0 
 -5.494900e-03  -1.281358e-02  0 
 -5.520159e-03  -1.222575e-02  0 
 -5.569691e-03  -1.251810e-02  0 
 -5.740185e-03  -1.304238e-02  0 
 -5.766588e-03  -1.201875e-02  0 
 -6.101011e-03  -1.224406e-02  0 
 -6.071828e-03  -1.288877e-02  0 
 -5.825811e-03  -1.234888e-02  0 
 -5.820800e-03  -1.267864e-02  0 
 -5.433338e-03  -1.312313e-02  0 
 -5.460427e-03  -1.188353e-02  0 
 -7.005236e-03  -1.584445e-02  0 
 -6.672510e-03  -1.376856e-02  0 
 -6.785444e-03  -1.471960e-02  0 
 -4.316819e-03  -2.350355e-02  0 
 -2.113573e-03  -2.499558e-02  0 
 -6.113658e-03  -1.562296e-02  0 
 -4.900944e-03  -1.865216e-02  0 
 -4.962579e-03  -1.985300e-02  0 
 -6.488585e-03  -1.819361e-02  0 
VECTORS displacement_ITER6 FLOAT
 -1.935671e-03  -9.509666e-03  0 
 -2.645342e-03  -8.078701e-03  0 
 -1.960740e-03  -8.351937e-03  0 
 -1.959309e-03  -8.755117e-03  0 
 -1.950938e-03  -9.126127e-03  0 
 -2.629647e-03  -9.436105e-03  0 
 -2.300580e-03  -9.470587e-03  0 
 -7.551135e-04  -2.460224e-02  0 
 -1.527652e-04  -2.925425e-02  0 
 -2.719823e-03  -8.770794e-03  0 
 -2.226787e-03  -8.996945e-03  0 
 -2.241704e-03  -8.490745e-03  0 
 -2.287709e-03  -8.747955e-03  0 
 -2.431034e-03  -9.185260e-03  0 
 -2.459902e-03  -8.295115e-03  0 
 -2.775726e-03  -8.498716e-03  0 
 -2.696172e-03  -9.055895e-03  0 
 -2.511230e-03  -8.603293e-03  0 
 -2.499947e-03  -8.887385e-03  0 
 -2.174379e-03  -9.255721e-03  0 
 -2.195132e-03  -8.198260e-03  0 
 -4.662710e-03  -1.157474e-02  0 
 -4.462993e-03  -9.183108e-03  0 
 -4.655110e-03  -1.017341e-02  0 
 -2.387692e-03  -1.902167e-02  0 
 3.372981e-04  -2.018451e-02  0 
 -3.593674e-03  -9.515661e-03  0 
 -2.896919e-03  -1.375383e-02  0 
 -4.967850e-04  -1.205652e-02  0 
 -3.961455e-03  -1.399717e-02  0 
VECTORS displacement_ITER7 FLOAT
 -1.194287e-03  -8.532046e-03  0 
 -2.106522e-03  -6.715116e-03  0 
 -1.218917e-03  -7.080128e-03  0 
 -1.220692e-03  -7.576582e-03  0 
 -1.211076e-03  -8.046770e-03  0 
 -2.115599e-03  -8.471584e-03  0 
 -1.662612e-03  -8.495170e-03  0 
 -7.910517e-05  -2.303621e-02  0 
 -3.088711e-04  -2.719287e-02  0 
 -2.200815e-03  -7.605994e-03  0 
 -1.565127e-03  -7.882369e-03  0 
 -1.581903e-03  -7.244681e-03  0 
 -1.642592e-03  -7.566230e-03  0 
 -1.831922e-03  -8.120635e-03  0 
 -1.861733e-03  -6.988679e-03  0 
 -2.264773e-03  -7.254021e-03  0 
 -2.180356e-03  -7.954059e-03  0 
 -1.928848e-03  -7.384156e-03  0 
 -1.920843e-03  -7.742844e-03  0 
 -1.497184e-03  -8.213333e-03  0 
 -1.528640e-03  -6.878885e-03  0 
 -3.604190e-03  -1.049185e-02  0 
 -2.734264e-03  -8.128177e-03  0 
 -3.262658e-03  -8.996476e-03  0 
 -1.762308e-03  -1.756753e-02  0 
 4.988624e-04  -1.800739e-02  0 
 -2.000712e-03  -8.118462e-03  0 
 -1.974812e-03  -1.219494e-02  0 
 9.114874e-04  -9.042258e-03  0 
 -3.064312e-03  -1.281065e-02  0 
VECTORS displacement_ITER8 FLOAT
 -1.242391e-03  -8.110976e-03  0 
 -2.102098e-03  -6.373533e-03  0 
 -1.266621e-03  -6.695486e-03  0 
 -1.266702e-03  -7.176887e-03  0 
 -1.258181e-03  -7.634913e-03  0 
 -2.126960e-03  -8.035439e-03  0 
 -1.700918e-03  -8.071673e-03  0 
 5.500418e-05  -2.249760e-02  0 
 -4.437295e-04  -2.618457e-02  0 
 -2.227690e-03  -7.210776e-03  0 
 -1.604121e-03  -7.474849e-03  0 
 -1.627830e-03  -6.846293e-03  0 
 -1.682442e-03  -7.159740e-03  0 
 -1.866001e-03  -7.711927e-03  0 
 -1.887085e-03  -6.602658e-03  0 
 -2.269568e-03  -6.862610e-03  0 
 -2.213955e-03  -7.544278e-03  0 
 -1.955801e-03  -6.981026e-03  0 
 -1.954616e-03  -7.335533e-03  0 
 -1.539288e-03  -7.798907e-03  0 
 -1.585950e-03  -6.486901e-03  0 
 -3.354617e-03  -1.008265e-02  0 
 -2.172573e-03  -7.518090e-03  0 
 -2.786762e-03  -8.511570e-03  0 
 -1.544593e-03  -1.697444e-02  0 
 4.795174e-04  -1.701186e-02  0 
 -1.358162e-03  -7.666257e-03  0 
 -1.562989e-03  -1.157874e-02  0 
 1.079453e-03  -8.336402e-03  0 
 -2.932792e-03  -1.235888e-02  0 
VECTORS displacement_ITER9 FLOAT
 -1.242803e-03  -7.929328e-03  0 
 -2.040484e-03  -6.323968e-03  0 
 -1.257128e-03  -6.613767e-03  0 
 -1.265472e-03  -7.072358e-03  0 
 -1.258634e-03  -7.492362e-03  0 
 -2.051354e-03  -7.853560e-03  0 
 -1.661813e-03  -7.888609e-03  0 
 2.095443e-04  -2.238807e-02  0 
 -4.962669e-04  -2.566951e-02  0 
 -2.136889e-03  -7.108064e-03  0 
 -1.577027e-03  -7.345102e-03  0 
 -1.601487e-03  -6.766553e-03  0 
 -1.650255e-03  -7.056099e-03  0 
 -1.813326e-03  -7.557609e-03  0 
 -1.829145e-03  -6.556619e-03  0 
 -2.182239e-03  -6.792794e-03  0 
 -2.125372e-03  -7.403448e-03  0 
 -1.894453e-03  -6.898915e-03  0 
 -1.894797e-03  -7.216841e-03  0 
 -1.515933e-03  -7.640867e-03  0 
 -1.559021e-03  -6.422313e-03  0 
 -3.270514e-03  -9.998534e-03  0 
 -2.152025e-03  -7.223153e-03  0 
 -2.750705e-03  -8.436775e-03  0 
 -1.341034e-03  -1.690243e-02  0 
 2.531528e-04  -1.698916e-02  0 
 -1.211024e-03  -7.526288e-03  0 
 -1.424534e-03  -1.180969e-02  0 
 1.584556e-03  -8.605897e-03  0 
 -2.849003e-03  -1.223563e-02  0 
VECTORS displacement_ITER10 FLOAT
 -1.230680e-03  -7.889012e-03  0 
 -2.062048e-03  -6.216179e-03  0 
 -1.245352e-03  -6.517036e-03  0 
 -1.253913e-03  -6.995571e-03  0 
 -1.246562e-03  -7.433674e-03  0 
 -2.076618e-03  -7.814962e-03  0 
 -1.668192e-03  -7.848821e-03  0 
 1.581137e-04  -2.226125e-02  0 
 -5.833547e-04  -2.555145e-02  0 
 -2.166013e-03  -7.028932e-03  0 
 -1.578502e-03  -7.280219e-03  0 
 -1.603397e-03  -6.677767e-03  0 
 -1.654872e-03  -6.978940e-03  0 
 -1.826128e-03  -7.503315e-03  0 
 -1.846395e-03  -6.456335e-03  0 
 -2.211749e-03  -6.701665e-03  0 
 -2.154958e-03  -7.342121e-03  0 
 -1.912731e-03  -6.812708e-03  0 
 -1.911458e-03  -7.145403e-03  0 
 -1.515135e-03  -7.589225e-03  0 
 -1.556516e-03  -6.321274e-03  0 
 -3.273374e-03  -9.930252e-03  0 
 -2.133616e-03  -7.255716e-03  0 
 -2.768453e-03  -8.397978e-03  0 
 -1.407472e-03  -1.678981e-02  0 
 9.725741e-05  -1.689040e-02  0 
 -1.221595e-03  -7.420340e-03  0 
 -1.516758e-03  -1.173243e-02  0 
 1.652411e-03  -8.243283e-03  0 
 -2.856102e-03  -1.215918e-02  0 
VECTORS displacement_ITER11 FLOAT
 -1.203530e-03  -7.875140e-03  0 
 -2.053694e-03  -6.160465e-03  0 
 -1.218342e-03  -6.478011e-03  0 
 -1.226524e-03  -6.964141e-03  0 
 -1.219373e-03  -7.411214e-03  0 
 -2.066874e-03  -7.801499e-03  0 
 -1.649597e-03  -7.834962e-03  0 
 1.830216e-04  -2.223330e-02  0 
 -5.507843e-04  -2.552268e-02  0 
 -2.157951e-03  -6.999380e-03  0 
 -1.557871e-03  -7.255065e-03  0 
 -1.582096e-03  -6.640586e-03  0 
 -1.635536e-03  -6.947989e-03  0 
 -1.810609e-03  -7.482556e-03  0 
 -1.829993e-03  -6.414023e-03  0 
 -2.206654e-03  -6.666240e-03  0 
 -2.146998e-03  -7.317285e-03  0 
 -1.898954e-03  -6.779373e-03  0 
 -1.898032e-03  -7.117648e-03  0 
 -1.493324e-03  -7.570022e-03  0 
 -1.534434e-03  -6.278184e-03  0 
 -3.246902e-03  -9.886350e-03  0 
 -2.076592e-03  -7.167946e-03  0 
 -2.727743e-03  -8.303681e-03  0 
 -1.370966e-03  -1.673943e-02  0 
 1.459946e-04  -1.675206e-02  0 
 -1.184868e-03  -7.283319e-03  0 
 -1.438799e-03  -1.165369e-02  0 
 1.607230e-03  -8.355187e-03  0 
 -2.831252e-03  -1.212912e-02  0 
VECTORS displacement_ITER12 FLOAT
 -1.197868e-03  -7.871803e-03  0 
 -2.047789e-03  -6.158406e-03  0 
 -1.212878e-03  -6.475578e-03  0 
 -1.221066e-03  -6.961392e-03  0 
 -1.213741e-03  -7.408076e-03  0 
 -2.061222e-03  -7.798463e-03  0 
 -1.643762e-03  -7.831737e-03  0 
 1.837242e-04  -2.222853e-02  0 
 -5.409199e-04  -2.552932e-02  0 
 -2.151303e-03  -6.996112e-03  0 
 -1.552029e-03  -7.251894e-03  0 
 -1.576427e-03  -6.638097e-03  0 
 -1.629676e-03  -6.945117e-03  0 
 -1.804691e-03  -7.479443e-03  0 
 -1.823729e-03  -6.411995e-03  0 
 -2.199850e-03  -6.663741e-03  0 
 -2.140945e-03  -7.314882e-03  0 
 -1.892689e-03  -6.776639e-03  0 
 -1.891727e-03  -7.114521e-03  0 
 -1.487520e-03  -7.566814e-03  0 
 -1.529002e-03  -6.276552e-03  0 
 -3.244315e-03  -9.882661e-03  0 
 -2.080594e-03  -7.171935e-03  0 
 -2.729165e-03  -8.304690e-03  0 
 -1.370073e-03  -1.673093e-02  0 
 1.353227e-04  -1.674217e-02  0 
 -1.181067e-03  -7.278796e-03  0 
 -1.439627e-03  -1.165230e-02  0 
 1.604264e-03  -8.348934e-03  0 
 -2.828646e-03  -1.212461e-02  0 
VECTORS displacement_ITER13 FLOAT
 -1.198248e-03  -7.870823e-03  0 
 -2.047370e-03  -6.158700e-03  0 
 -1.213299e-03  -6.475630e-03  0 
 -1.221439e-03  -6.961035e-03  0 
 -1.214121e-03  -7.407413e-03  0 
 -2.060972e-03  -7.797465e-03  0 
 -1.643827e-03  -7.830756e-03  0 
 1.827913e-04  -2.222765e-02  0 
 -5.405023e-04  -2.552951e-02  0 
 -2.151100e-03  -6.995731e-03  0 
 -1.552171e-03  -7.251339e-03  0 
 -1.576543e-03  -6.637949e-03  0 
 -1.629747e-03  -6.944776e-03  0 
 -1.804650e-03  -7.478704e-03  0 
 -1.823713e-03  -6.411984e-03  0 
 -2.199435e-03  -6.663608e-03  0 
 -2.140567e-03  -7.314273e-03  0 
 -1.892607e-03  -6.776353e-03  0 
 -1.891624e-03  -7.114111e-03  0 
 -1.487705e-03  -7.566031e-03  0 
 -1.529151e-03  -6.276551e-03  0 
 -3.245005e-03  -9.881883e-03  0 
 -2.080829e-03  -7.171210e-03  0 
 -2.730310e-03  -8.304098e-03  0 
 -1.371014e-03  -1.672981e-02  0 
 1.317416e-04  -1.674356e-02  0 
 -1.183930e-03  -7.278200e-03  0 
 -1.442080e-03  -1.165312e-02  0 
 1.604039e-03  -8.348576e-03  0 
 -2.829388e-03  -1.212376e-02  0 
VECTORS displacement_ITER14 FLOAT
 -1.198352e-03  -7.870831e-03  0 
 -2.047419e-03  -6.158896e-03  0 
 -1.213419e-03  -6.475797e-03  0 
 -1.221544e-03  -6.961138e-03  0 
 -1.214224e-03  -7.407468e-03  0 
 -2.060977e-03  -7.797473e-03  0 
 -1.643884e-03  -7.830765e-03  0 
 1.826855e-04  -2.222770e-02  0 
 -5.401898e-04  -2.553035e-02  0 
 -2.151119e-03  -6.995793e-03  0 
 -1.552239e-03  -7.251409e-03  0 
 -1.576615e-03  -6.638077e-03  0 
 -1.629808e-03  -6.944877e-03  0 
 -1.804689e-03  -7.478751e-03  0 
 -1.823763e-03  -6.412150e-03  0 
 -2.199419e-03  -6.663744e-03  0 
 -2.140564e-03  -7.314344e-03  0 
 -1.892649e-03  -6.776456e-03  0 
 -1.891652e-03  -7.114193e-03  0 
 -1.487779e-03  -7.566068e-03  0 
 -1.529220e-03  -6.276674e-03  0 
 -3.244910e-03  -9.881932e-03  0 
 -2.080344e-03  -7.171205e-03  0 
 -2.729857e-03  -8.304039e-03  0 
 -1.371131e-03  -1.672961e-02  0 
 1.322281e-04  -1.674247e-02  0 
 -1.183694e-03  -7.278709e-03  0 
 -1.441781e-03  -1.165252e-02  0 
 1.603759e-03  -8.348250e-03  0 
 -2.829444e-03  -1.212377e-02  0 
CELL_DATA 42
TENSORS element_stresses FLOAT
 1.175924e-02  7.961370e-03  0 
 7.961370e-03  -5.840578e-02  0 
 0  0  0 

 -2.816199e-02  -5.024196e-03  0 
 -5.024196e-03  1.446625e-02  0 
 0  0  0 

 3.123024e-02  1.365715e-02  0 
 1.365715e-02  -6.290047e-02  0 
 0  0  0 

 8.659922e-02  -1.666280e-02  0 
 -1.666280e-02  -4.628977e-02  0 
 0  0  0 

 7.422516e-02  -1.417926e-01  0 
 -1.417926e-01  5.519548e-02  0 
 0  0  0 

 7.351695e-02  -1.000038e-01  0 
 -1.000038e-01  -2.935245e-02  0 
 0  0  0 

 2.514723e-02  -6.430423e-02  0 
 -6.430423e-02  -1.256220e-01  0 
 0  0  0 

 1.246519e-02  -4.127498e-02  0 
 -4.127498e-02  -6.847717e-02  0 
 0  0  0 

 3.788059e-02  -8.711032e-02  0 
 -8.711032e-02  7.644173e-02  0 
 0  0  0 

 4.314989e-02  -1.445036e-01  0 
 -1.445036e-01  3.564645e-02  0 
 0  0  0 

 3.341113e-02  -7.338770e-02  0 
 -7.338770e-02  -2.290212e-03  0 
 0  0  0 

 -4.615374e-03  -1.694682e-02  0 
 -1.694682e-02  2.341947e-01  0 
 0  0  0 

 1.318820e-02  -9.697441e-02  0 
 -9.697441e-02  9.797767e-02  0 
 0  0  0 

 3.301123e-02  -1.562898e-01  0 
 -1.562898e-01  1.329317e-01  0 
 0  0  0 

 -5.461126e-03  -6.660862e-02  0 
 -6.660862e-02  -6.925069e-02  0 
 0  0  0 

 8.721211e-03  -9.685607e-02  0 
 -9.685607e-02  3.526118e-03  0 
 0  0  0 

 4.493875e-02  -1.186785e-01  0 
 -1.186785e-01  -3.241569e-02  0 
 0  0  0 

 3.270638e-02  -3.998544e-02  0 
 -3.998544e-02  -1.026083e-01  0 
 0  0  0 

 3.821297e-02  -1.801593e-02  0 
 -1.801593e-02  -1.488029e-01  0 
 0  0  0 

 2.647675e-02  9.607866e-03  0 
 9.607866e-03  -5.763261e-02  0 
 0  0  0 

 8.434149e-02  -5.394741e-02  0 
 -5.394741e-02  -1.964338e-03  0 
 0  0  0 

 1.320770e-02  -4.089619e-02  0 
 -4.089619e-02  -9.462775e-02  0 
 0  0  0 

 3.131657e-02  -4.606152e-02  0 
 -4.606152e-02  -8.850300e-02  0 
 0  0  0 

 1.213723e-01  -2.976835e-01  0 
 -2.976835e-01  3.452862e-01  0 
 0  0  0 

 -4.791816e-03  -1.012186e-02  0 
 -1.012186e-02  -1.607032e-02  0 
 0  0  0 

 -1.047820e-03  -5.219236e-03  0 
 -5.219236e-03  -3.384395e-03  0 
 0  0  0 

 -7.190185e-03  -1.335515e-02  0 
 -1.335515e-02  -8.125504e-03  0 
 0  0  0 

 -4.099458e-03  -8.936460e-03  0 
 -8.936460e-03  -7.198286e-03  0 
 0  0  0 

 -5.208670e-03  -8.850870e-04  0 
 -8.850870e-04  2.976001e-04  0 
 0  0  0 

 -4.292370e-03  -2.988170e-03  0 
 -2.988170e-03  -1.151535e-02  0 
 0  0  0 

 3.892658e-03  -3.224813e-02  0 
 -3.224813e-02  -1.204283e-02  0 
 0  0  0 

 -1.239801e-03  -1.633853e-02  0 
 -1.633853e-02  -1.412253e-02  0 
 0  0  0 

 -3.007440e-03  -8.190880e-03  0 
 -8.190880e-03  -5.905169e-03  0 
 0  0  0 

 -9.630726e-03  -9.528022e-03  0 
 -9.528022e-03  -3.231405e-02  0 
 0  0  0 

 -6.947934e-04  -1.935457e-02  0 
 -1.935457e-02  -5.763590e-02  0 
 0  0  0 

 -5.841999e-03  -2.044915e-02  0 
 -2.044915e-02  -2.223826e-02  0 
 0  0  0 

 5.480082e-03  -2.974301e-02  0 
 -2.974301e-02  -2.864373e-02  0 
 0  0  0 

 -4.905930e-03  -6.301296e-03  0 
 -6.301296e-03  -2.798854e-02  0 
 0  0  0 

 -2.284918e-03  -3.179019e-02  0 
 -3.179019e-02  -4.707708e-03  0 
 0  0  0 

 1.809250e-03  -1.534331e-02  0 
 -1.534331e-02  -1.715818e-03  0 
 0  0  0 

 -1.721954e-04  -6.065197e-03  0 
 -6.065197e-03  3.685196e-03  0 
 0  0  0 

 -2.420186e-03  -1.336002e-02  0 
 -1.336002e-02  -1.296931e-03  0 
 0  0  0 

TENSORS element_stresses FLOAT
 1.175924e-02  7.961370e-03  0 
 7.961370e-03  -5.840578e-02  0 
 0  0  0 

 -2.816199e-02  -5.024196e-03  0 
 -5.024196e-03  1.446625e-02  0 
 0  0  0 

 3.123024e-02  1.365715e-02  0 
 1.365715e-02  -6.290047e-02  0 
 0  0  0 

 8.659922e-02  -1.666280e-02  0 
 -1.666280e-02  -4.628977e-02  0 
 0  0  0 

 7.422516e-02  -1.417926e-01  0 
 -1.417926e-01  5.519548e-02  0 
 0  0  0 

 7.351695e-02  -1.000038e-01  0 
 -1.000038e-01  -2.935245e-02  0 
 0  0  0 

 2.514723e-02  -6.430423e-02  0 
 -6.430423e-02  -1.256220e-01  0 
 0  0  0 

 1.246519e-02  -4.127498e-02  0 
 -4.127498e-02  -6.847717e-02  0 
 0  0  0 

 3.788059e-02  -8.711032e-02  0 
 -8.711032e-02  7.644173e-02  0 
 0  0  0 

 4.314989e-02  -1.445036e-01  0 
 -1.445036e-01  3.564645e-02  0 
 0  0  0 

 3.341113e-02  -7.338770e-02  0 
 -7.338770e-02  -2.290212e-03  0 
 0  0  0 

 -4.615374e-03  -1.694682e-02  0 
 -1.694682e-02  2.341947e-01  0 
 0  0  0 

 1.318820e-02  -9.697441e-02  0 
 -9.697441e-02  9.797767e-02  0 
 0  0  0 

 3.301123e-02  -1.562898e-01  0 
 -1.562898e-01  1.329317e-01  0 
 0  0  0 

 -5.461126e-03  -6.660862e-02  0 
 -6.660862e-02  -6.925069e-02  0 
 0  0  0 

 8.721211e-03  -9.685607e-02  0 
 -9.685607e-02  3.526118e-03  0 
 0  0  0 

 4.493875e-02  -1.186785e-01  0 
 -1.186785e-01  -3.241569e-02  0 
 0  0  0 

 3.270638e-02  -3.998544e-02  0 
 -3.998544e-02  -1.026083e-01  0 
 0  0  0 

 3.821297e-02  -1.801593e-02  0 
 -1.801593e-02  -1.488029e-01  0 
 0  0  0 

 2.647675e-02  9.607866e-03  0 
 9.607866e-03  -5.763261e-02  0 
 0  0  0 

 8.434149e-02  -5.394741e-02  0 
 -5.394741e-02  -1.964338e-03  0 
 0  0  0 

 1.320770e-02  -4.089619e-02  0 
 -4.089619e-02  -9.462775e-02  0 
 0  0  0 

 3.131657e-02  -4.606152e-02  0 
 -4.606152e-02  -8.850300e-02  0 
 0  0  0 

 1.213723e-01  -2.976835e-01  0 
 -2.976835e-01  3.452862e-01  0 
 0  0  0 

 -4.791816e-03  -1.012186e-02  0 
 -1.012186e-02  -1.607032e-02  0 
 0  0  0 

 -1.047820e-03  -5.219236e-03  0 
 -5.219236e-03  -3.384395e-03  0 
 0  0  0 

 -7.190185e-03  -1.335515e-02  0 
 -1.335515e-02  -8.125504e-03  0 
 0  0  0 

 -4.099458e-03  -8.936460e-03  0 
 -8.936460e-03  -7.198286e-03  0 
 0  0  0 

 -5.208670e-03  -8.850870e-04  0 
 -8.850870e-04  2.976001e-04  0 
 0  0  0 

 -4.292370e-03  -2.988170e-03  0 
 -2.988170e-03  -1.151535e-02  0 
 0  0  0 

 3.892658e-03  -3.224813e-02  0 
 -3.224813e-02  -1.204283e-02  0 
 0  0  0 

 -1.239801e-03  -1.633853e-02  0 
 -1.633853e-02  -1.412253e-02  0 
 0  0  0 

 -3.007440e-03  -8.190880e-03  0 
 -8.190880e-03  -5.905169e-03  0 
 0  0  0 

 -9.630726e-03  -9.528022e-03  0 
 -9.528022e-03  -3.231405e-02  0 
 0  0  0 

 -6.947934e-04  -1.935457e-02  0 
 -1.935457e-02  -5.763590e-02  0 
 0  0  0 

 -5.841999e-03  -2.044915e-02  0 
 -2.044915e-02  -2.223826e-02  0 
 0  0  0 

 5.480082e-03  -2.974301e-02  0 
 -2.974301e-02  -2.864373e-02  0 
 0  0  0 

 -4.905930e-03  -6.301296e-03  0 
 -6.301296e-03  -2.798854e-02  0 
 0  0  0 

 -2.284918e-03  -3.179019e-02  0 
 -3.179019e-02  -4.707708e-03  0 
 0  0  0 

 1.809250e-03  -1.534331e-02  0 
 -1.534331e-02  -1.715818e-03  0 
 0  0  0 

 -1.721954e-04  -6.065197e-03  0 
 -6.065197e-03  3.685196e-03  0 
 0  0  0 

 -2.420186e-03  -1.336002e-02  0 
 -1.336002e-02  -1.296931e-03  0 
 0  0  0 

