# vtk DataFile Version 3.1
this is an vtk file created by FEMAC
ASCII
DATASET UNSTRUCTURED_GRID
POINTS 31 FLOAT
0.000000 1.000000 0.000000
1.000000 1.000000 0.000000
0.000000 2.000000 0.000000
1.000000 2.000000 0.000000
0.250000 1.000000 0.000000
0.500000 1.000000 0.000000
0.750000 1.000000 0.000000
0.250000 2.000000 0.000000
0.500000 2.000000 0.000000
0.750000 2.000000 0.000000
0.000000 1.250000 0.000000
0.000000 1.500000 0.000000
0.000000 1.750000 0.000000
1.000000 1.250000 0.000000
1.000000 1.500000 0.000000
1.000000 1.750000 0.000000
1.000000 2.250000 0.000000
0.272476 1.537430 0.000000
0.660302 1.785301 0.000000
0.660045 1.212404 0.000000
0.162952 1.171693 0.000000
0.825570 1.361866 0.000000
0.825957 1.628272 0.000000
0.594871 1.497465 0.000000
0.400442 1.782533 0.000000
0.372389 1.253823 0.000000
0.165804 1.339408 0.000000
0.847252 1.832715 0.000000
0.847123 1.164854 0.000000
0.153820 1.761660 0.000000
0.847123 2.164854 0.000000
CELLS 42 168 
3 8 18  9
3 19  5  6
3 4 20  0
3 20 10  0
3 14 22 21
3 23 19 21
3 24 18  8
3 19 25  5
3 23 24 17
3 23 18 24
3 25 23 17
3 19 23 25
3 21 13 14
3 15 22 14
3 25  4  5
3 20  4 25
3 7 24  8
3 23 22 18
3 21 22 23
3 20 26 10
3 9 27  3
3 27 15  3
3 27  9 18
3 28  6  1
3 13 28  1
3 6 28 19
3 26 25 17
3 20 25 26
3 27 22 15
3 18 22 27
3 21 28 13
3 21 19 28
3 26 11 10
3 11 26 17
3 29  7  2
3 12 29  2
3 11 29 12
3 24 29 17
3 29 24  7
3 11 17 29
3 30  9  3
3 16 30  3
CELL_TYPES 42
5 5 5 5 5 5 5 5 5 5 5 5 5 5 5 5 5 5 5 5 5 5 5 5 5 5 5 5 5 5 5 5 5 5 5 5 5 5 5 5 5 5 
POINT_DATA 31
VECTORS displacement_ITER1 FLOAT
 0  0  0 
 -1.236367e-03  2.082269e-02  0 
 0  0  0 
 -8.724866e-02  8.113666e-02  0 
 8.744271e-04  -5.089274e-04  0 
 1.321329e-03  3.216166e-03  0 
 6.427368e-04  1.322656e-02  0 
 -2.204391e-02  1.484901e-02  0 
 -4.949549e-02  1.929149e-02  0 
 -8.719989e-02  2.562715e-02  0 
 0  0  0 
 0  0  0 
 0  0  0 
 -1.292891e-02  1.842520e-02  0 
 -2.649804e-02  2.426159e-02  0 
 -5.015822e-02  4.791732e-02  0 
 -1.427812e-01  8.116375e-02  0 
 -7.920899e-03  -4.802775e-03  0 
 -3.806882e-02  1.029240e-02  0 
 -6.708045e-03  7.194975e-03  0 
 -1.531614e-03  -2.537262e-03  0 
 -1.428436e-02  1.383302e-02  0 
 -2.831791e-02  2.253886e-02  0 
 -1.462681e-02  4.150719e-03  0 
 -2.372950e-02  1.336428e-03  0 
 -4.335891e-03  -1.958074e-03  0 
 -3.073661e-03  -3.441865e-03  0 
 -5.200573e-02  4.018782e-02  0 
 -7.092598e-03  1.430033e-02  0 
 -6.349166e-03  -2.122488e-03  0 
 -1.238555e-01  4.720901e-02  0 
VECTORS displacement_ITER2 FLOAT
 0  0  0 
 -1.217235e-02  1.051421e-02  0 
 0  0  0 
 -9.093547e-03  -2.127877e-02  0 
 -6.028501e-03  -6.595794e-03  0 
 -1.162806e-02  -9.129757e-03  0 
 -1.403945e-02  -3.997996e-03  0 
 -4.206546e-05  -2.208754e-03  0 
 3.271198e-05  -9.554884e-03  0 
 -9.065123e-03  -2.666037e-02  0 
 0  0  0 
 0  0  0 
 0  0  0 
 -2.750298e-02  -9.012027e-03  0 
 -2.039495e-02  -2.223730e-02  0 
 -1.200950e-02  -3.547731e-02  0 
 -1.453128e-02  -2.123934e-02  0 
 -6.935012e-03  -1.972764e-03  0 
 -9.126347e-03  -1.661650e-02  0 
 -1.910651e-02  -8.814041e-03  0 
 -4.070368e-03  -3.501619e-03  0 
 -2.331692e-02  -1.062571e-02  0 
 -1.586460e-02  -1.892767e-02  0 
 -1.653386e-02  -8.223671e-03  0 
 -6.077322e-03  -4.018761e-03  0 
 -1.071203e-02  -6.200042e-03  0 
 -4.221205e-03  -2.164315e-03  0 
 -6.875412e-03  -2.389780e-02  0 
 -2.255595e-02  -7.051261e-03  0 
 -2.462318e-03  4.537825e-04  0 
 -1.267174e-02  -2.455815e-02  0 
VECTORS displacement_ITER3 FLOAT
 0  0  0 
 -2.765820e-02  2.418616e-02  0 
 0  0  0 
 3.607089e-04  2.167167e-04  0 
 1.402082e-03  1.002269e-02  0 
 -5.785564e-03  1.563962e-02  0 
 -1.902723e-02  1.777842e-02  0 
 -1.427130e-03  -1.174276e-04  0 
 -2.931334e-04  1.430669e-03  0 
 3.930861e-04  -1.574581e-03  0 
 0  0  0 
 0  0  0 
 0  0  0 
 -3.328152e-02  9.242509e-03  0 
 -9.418752e-03  1.878169e-02  0 
 6.885014e-03  5.594296e-03  0 
 -1.423602e-03  2.373573e-04  0 
 -4.740377e-03  8.163284e-03  0 
 -2.241117e-03  7.437141e-03  0 
 -1.550748e-02  2.123486e-02  0 
 -2.399440e-03  4.045157e-03  0 
 -1.538242e-02  2.245438e-02  0 
 -3.927682e-03  1.551797e-02  0 
 -8.638246e-03  1.776753e-02  0 
 -3.584119e-03  7.056189e-03  0 
 -7.465673e-03  1.343921e-02  0 
 -3.400067e-03  5.212301e-03  0 
 2.585144e-03  3.039006e-03  0 
 -2.693840e-02  1.695086e-02  0 
 -2.518350e-03  3.390540e-03  0 
 -8.061932e-04  -8.601278e-04  0 
VECTORS displacement_ITER4 FLOAT
 0  0  0 
 -1.710847e-02  2.740624e-02  0 
 0  0  0 
 1.235634e-03  2.421492e-03  0 
 7.914122e-06  -1.843312e-03  0 
 1.227398e-03  -6.778017e-03  0 
 -1.354251e-03  -6.483257e-04  0 
 -1.116868e-03  -6.668725e-03  0 
 1.765614e-03  -5.569658e-04  0 
 1.297226e-03  1.627101e-03  0 
 0  0  0 
 0  0  0 
 0  0  0 
 -1.664558e-02  -8.835870e-04  0 
 -1.401970e-02  5.281144e-03  0 
 -6.035586e-05  5.222976e-03  0 
 5.130477e-04  2.443387e-03  0 
 -1.976807e-03  1.525092e-03  0 
 -1.654713e-03  3.957327e-03  0 
 -1.105302e-02  2.262828e-03  0 
 -9.045552e-04  -1.294922e-03  0 
 -1.217479e-02  5.314863e-03  0 
 -5.532046e-03  7.578785e-03  0 
 -5.932677e-03  5.461006e-03  0 
 -9.114391e-04  1.983242e-03  0 
 -3.412778e-03  -1.054188e-03  0 
 -1.066607e-03  -5.111341e-05  0 
 -1.694798e-04  3.543426e-03  0 
 -1.785189e-02  9.413708e-03  0 
 -1.445608e-03  -5.306452e-04  0 
 7.746469e-04  1.979025e-03  0 
VECTORS displacement_ITER5 FLOAT
 0  0  0 
 -3.720046e-03  -6.283683e-04  0 
 0  0  0 
 2.711007e-04  1.768236e-03  0 
 2.427015e-03  3.269070e-03  0 
 6.197509e-03  3.939232e-03  0 
 6.487908e-03  -1.820355e-03  0 
 7.487926e-05  -8.606830e-05  0 
 2.641542e-04  -1.093032e-03  0 
 3.242604e-04  1.830447e-03  0 
 0  0  0 
 0  0  0 
 0  0  0 
 5.126284e-04  -6.514472e-03  0 
 -3.993011e-03  7.091473e-03  0 
 -1.460239e-03  3.787276e-03  0 
 4.698135e-04  1.866784e-03  0 
 6.191440e-05  -3.315521e-04  0 
 -1.166967e-03  2.021087e-03  0 
 2.388555e-03  1.496006e-03  0 
 2.246781e-04  3.256690e-04  0 
 1.923673e-03  8.575890e-04  0 
 -2.522417e-03  3.832731e-03  0 
 3.954169e-04  8.897178e-05  0 
 -5.322679e-04  -1.473366e-04  0 
 1.049183e-03  1.257910e-04  0 
 2.882070e-04  -1.459652e-04  0 
 -1.036404e-03  2.670198e-03  0 
 -6.775424e-05  1.161467e-03  0 
 -1.125007e-04  -1.273565e-04  0 
 4.443410e-04  1.912357e-03  0 
VECTORS displacement_ITER6 FLOAT
 0  0  0 
 2.814001e-04  -1.336253e-04  0 
 0  0  0 
 1.284517e-03  9.081540e-04  0 
 -6.162363e-04  -5.062516e-04  0 
 2.033616e-04  1.153298e-03  0 
 2.542254e-03  1.432572e-03  0 
 -1.084452e-03  9.166279e-05  0 
 -5.308448e-04  -1.996627e-03  0 
 1.390016e-03  -6.184577e-04  0 
 0  0  0 
 0  0  0 
 0  0  0 
 -2.006140e-03  3.034085e-04  0 
 -5.415747e-03  -2.162303e-03  0 
 -6.025108e-04  4.410758e-04  0 
 -8.279517e-05  9.308651e-04  0 
 -5.617586e-04  -3.643636e-05  0 
 -4.720526e-04  7.117221e-04  0 
 -1.219539e-03  -8.789232e-04  0 
 -3.104371e-04  -1.835928e-04  0 
 -3.251046e-03  -1.006223e-03  0 
 -1.823064e-03  8.941088e-04  0 
 -1.387840e-03  4.087138e-04  0 
 -8.440882e-04  9.998652e-05  0 
 -7.783393e-04  -3.521766e-04  0 
 -3.109966e-04  -1.119445e-04  0 
 2.530154e-04  3.379740e-04  0 
 -3.988143e-04  6.137523e-04  0 
 -3.350814e-04  -1.217190e-04  0 
 3.942511e-04  6.784333e-05  0 
VECTORS displacement_ITER7 FLOAT
 0  0  0 
 -4.476189e-04  -4.322754e-04  0 
 0  0  0 
 -2.721479e-04  -1.322484e-04  0 
 1.869785e-04  1.951787e-04  0 
 1.445673e-04  5.536078e-04  0 
 -4.695615e-04  3.724734e-04  0 
 -4.117280e-05  -1.369910e-04  0 
 -2.349497e-04  -1.873148e-04  0 
 -1.676355e-04  6.718468e-05  0 
 0  0  0 
 0  0  0 
 0  0  0 
 -1.108808e-03  -9.908684e-04  0 
 -3.126730e-04  -1.040222e-03  0 
 -9.962389e-04  7.622302e-04  0 
 4.452437e-05  -1.137060e-04  0 
 -1.672661e-04  4.260912e-05  0 
 -2.478167e-04  -9.255331e-05  0 
 -4.273209e-04  2.893083e-04  0 
 -6.927505e-05  -2.027570e-05  0 
 -5.079348e-04  -1.659261e-04  0 
 -1.577823e-04  -2.762562e-04  0 
 -2.680001e-04  8.868753e-05  0 
 -1.790671e-04  -9.423922e-05  0 
 -2.667002e-04  1.877455e-04  0 
 -1.250604e-04  3.689253e-05  0 
 -6.694240e-04  2.334040e-04  0 
 -7.090892e-04  -3.460652e-04  0 
 -9.251859e-05  1.671649e-06  0 
 -5.446460e-05  4.690572e-05  0 
VECTORS displacement_ITER8 FLOAT
 0  0  0 
 -3.978665e-04  -1.252420e-04  0 
 0  0  0 
 -2.819046e-04  -3.113298e-04  0 
 9.785178e-05  -3.870432e-04  0 
 2.796921e-04  -1.102462e-04  0 
 -2.439106e-04  2.029524e-04  0 
 1.617098e-06  6.047951e-05  0 
 4.556936e-05  -6.644247e-05  0 
 -1.717577e-04  -2.024022e-04  0 
 0  0  0 
 0  0  0 
 0  0  0 
 -5.269943e-04  -3.242050e-04  0 
 -6.368460e-04  -4.417151e-04  0 
 -5.611063e-06  -5.482174e-05  0 
 -9.320178e-05  -2.394890e-04  0 
 -1.099288e-04  -1.974768e-05  0 
 -1.614239e-04  -1.432912e-04  0 
 -3.409137e-04  7.160746e-05  0 
 -2.260107e-06  -2.159736e-04  0 
 -4.720182e-04  -1.565649e-04  0 
 -2.117633e-04  -3.468369e-05  0 
 -2.832249e-04  1.101292e-05  0 
 -1.184957e-04  3.124534e-05  0 
 -1.867186e-04  -1.806498e-04  0 
 -5.710998e-05  -8.949955e-05  0 
 -1.507863e-04  -2.196236e-04  0 
 -3.990872e-04  -5.421111e-05  0 
 -3.405097e-05  3.943364e-05  0 
 -1.321186e-04  -1.875077e-04  0 
VECTORS displacement_ITER9 FLOAT
 0  0  0 
 -2.841769e-04  -3.230324e-05  0 
 0  0  0 
 -2.007135e-04  -2.108390e-04  0 
 -1.478148e-05  1.070601e-04  0 
 -2.096315e-04  -1.984447e-04  0 
 -1.294793e-04  3.074126e-05  0 
 -4.962124e-05  -5.314395e-05  0 
 -1.006147e-04  -7.694696e-05  0 
 -1.101172e-04  -1.297072e-04  0 
 0  0  0 
 0  0  0 
 0  0  0 
 -6.593543e-04  -6.054394e-04  0 
 -5.734160e-04  -6.510209e-04  0 
 -5.043486e-04  -5.755449e-04  0 
 -6.710210e-05  -1.397986e-04  0 
 -1.290223e-04  -8.260965e-06  0 
 -1.950599e-04  -1.214229e-04  0 
 -4.389988e-04  -2.333064e-04  0 
 -8.692306e-05  -1.498948e-05  0 
 -5.266102e-04  -3.621505e-04  0 
 -4.061488e-04  -3.623881e-04  0 
 -3.167849e-04  -1.298513e-04  0 
 -1.124426e-04  -3.184707e-05  0 
 -1.910307e-04  -5.347903e-05  0 
 -7.920678e-05  -1.108903e-05  0 
 -2.570498e-04  -2.471700e-04  0 
 -4.929108e-04  -2.404064e-04  0 
 -5.260456e-05  4.662049e-06  0 
 -8.441385e-05  -1.158609e-04  0 
VECTORS displacement_ITER10 FLOAT
 0  0  0 
 -4.914537e-04  -2.868971e-05  0 
 0  0  0 
 -2.002144e-04  -1.901134e-04  0 
 -1.798858e-05  -1.111234e-04  0 
 -1.640999e-04  1.760683e-04  0 
 -2.133516e-04  -8.977128e-05  0 
 -1.908710e-05  -3.762585e-05  0 
 -7.939227e-05  -7.113044e-05  0 
 -1.083604e-04  -1.348748e-04  0 
 0  0  0 
 0  0  0 
 0  0  0 
 -6.285114e-04  -7.821056e-05  0 
 -5.811935e-04  -1.743904e-04  0 
 -5.268217e-04  -1.448671e-04  0 
 -7.898032e-05  -1.370787e-04  0 
 -1.558823e-04  1.873195e-05  0 
 -2.667470e-04  -4.186267e-05  0 
 -3.256271e-04  -2.907592e-05  0 
 -6.159530e-05  -7.390232e-05  0 
 -4.961809e-04  -4.321184e-05  0 
 -4.390504e-04  -1.010256e-04  0 
 -3.471559e-04  -3.136331e-05  0 
 -1.523366e-04  -1.045924e-06  0 
 -2.316504e-04  -2.342575e-06  0 
 -9.530087e-05  -1.527970e-05  0 
 -3.285823e-04  -9.666393e-05  0 
 -4.616064e-04  -3.934084e-05  0 
 -6.622323e-05  3.088709e-05  0 
 -9.652908e-05  -1.056520e-04  0 
VECTORS displacement_ITER11 FLOAT
 0  0  0 
 -4.874585e-04  -7.788452e-05  0 
 0  0  0 
 -2.004879e-04  -1.466285e-04  0 
 -4.950722e-05  -1.145648e-05  0 
 -1.146985e-04  -2.581075e-05  0 
 -2.374473e-04  -2.894394e-05  0 
 -3.792535e-05  -3.462132e-05  0 
 -7.288484e-05  -5.177260e-05  0 
 -1.188715e-04  -8.555276e-05  0 
 0  0  0 
 0  0  0 
 0  0  0 
 -6.202899e-04  -1.838238e-04  0 
 -6.010042e-04  -1.825828e-04  0 
 -4.467075e-04  -1.440068e-04  0 
 -6.511656e-05  -1.166485e-04  0 
 -1.340953e-04  1.197678e-05  0 
 -2.412717e-04  -1.943032e-05  0 
 -3.523368e-04  -5.161141e-05  0 
 -7.137490e-05  -3.395112e-05  0 
 -4.903728e-04  -8.491184e-05  0 
 -4.116331e-04  -7.070948e-05  0 
 -3.210586e-04  -1.418607e-05  0 
 -1.402473e-04  1.441348e-05  0 
 -1.870584e-04  -4.043561e-05  0 
 -7.603848e-05  -1.255154e-05  0 
 -2.889991e-04  -7.732567e-05  0 
 -4.650684e-04  -6.871738e-05  0 
 -6.019049e-05  2.119126e-05  0 
 -9.163115e-05  -6.956826e-05  0 
VECTORS displacement_ITER12 FLOAT
 0  0  0 
 -4.844474e-04  -8.108787e-05  0 
 0  0  0 
 -2.010038e-04  -1.465904e-04  0 
 -3.357395e-05  2.871612e-06  0 
 -1.079687e-04  -2.455162e-05  0 
 -2.324806e-04  -3.501039e-05  0 
 -3.786233e-05  -3.482594e-05  0 
 -7.229665e-05  -5.032064e-05  0 
 -1.187201e-04  -8.722736e-05  0 
 0  0  0 
 0  0  0 
 0  0  0 
 -6.196455e-04  -1.866521e-04  0 
 -5.974633e-04  -1.859286e-04  0 
 -4.461032e-04  -1.516248e-04  0 
 -6.698772e-05  -1.166802e-04  0 
 -1.337734e-04  1.236498e-05  0 
 -2.401116e-04  -2.035558e-05  0 
 -3.481532e-04  -5.188385e-05  0 
 -6.918753e-05  -3.331588e-05  0 
 -4.878426e-04  -8.555515e-05  0 
 -4.102425e-04  -7.368355e-05  0 
 -3.190208e-04  -1.376492e-05  0 
 -1.394169e-04  1.442730e-05  0 
 -1.827215e-04  -3.559773e-05  0 
 -7.494971e-05  -1.235186e-05  0 
 -2.873294e-04  -8.012427e-05  0 
 -4.629662e-04  -7.170799e-05  0 
 -5.999295e-05  2.119043e-05  0 
 -9.317409e-05  -7.044600e-05  0 
VECTORS displacement_ITER13 FLOAT
 0  0  0 
 -4.842358e-04  -8.200111e-05  0 
 0  0  0 
 -2.022060e-04  -1.473607e-04  0 
 -3.711289e-05  4.771171e-06  0 
 -1.069748e-04  -2.364933e-05  0 
 -2.330008e-04  -3.681515e-05  0 
 -3.799778e-05  -3.485514e-05  0 
 -7.283632e-05  -5.089851e-05  0 
 -1.197328e-04  -8.722382e-05  0 
 0  0  0 
 0  0  0 
 0  0  0 
 -6.199767e-04  -1.870375e-04  0 
 -5.983544e-04  -1.860965e-04  0 
 -4.468948e-04  -1.518162e-04  0 
 -6.703725e-05  -1.177116e-04  0 
 -1.338012e-04  1.200131e-05  0 
 -2.407553e-04  -2.078120e-05  0 
 -3.476138e-04  -5.210878e-05  0 
 -7.012484e-05  -3.183481e-05  0 
 -4.880163e-04  -8.595274e-05  0 
 -4.109698e-04  -7.396497e-05  0 
 -3.193962e-04  -1.438082e-05  0 
 -1.397989e-04  1.402268e-05  0 
 -1.826279e-04  -3.659713e-05  0 
 -7.493972e-05  -1.213991e-05  0 
 -2.883001e-04  -8.045399e-05  0 
 -4.630529e-04  -7.289450e-05  0 
 -6.007518e-05  2.101850e-05  0 
 -9.372390e-05  -7.062897e-05  0 
VECTORS displacement_ITER14 FLOAT
 0  0  0 
 -4.842432e-04  -8.200943e-05  0 
 0  0  0 
 -2.021586e-04  -1.472994e-04  0 
 -3.713492e-05  4.770528e-06  0 
 -1.070437e-04  -2.365565e-05  0 
 -2.330433e-04  -3.695730e-05  0 
 -3.800262e-05  -3.485670e-05  0 
 -7.280668e-05  -5.088209e-05  0 
 -1.196970e-04  -8.723380e-05  0 
 0  0  0 
 0  0  0 
 0  0  0 
 -6.199807e-04  -1.870623e-04  0 
 -5.984131e-04  -1.860484e-04  0 
 -4.468539e-04  -1.516613e-04  0 
 -6.704350e-05  -1.176674e-04  0 
 -1.337883e-04  1.201187e-05  0 
 -2.407483e-04  -2.074944e-05  0 
 -3.476151e-04  -5.216094e-05  0 
 -7.012431e-05  -3.182157e-05  0 
 -4.880254e-04  -8.597728e-05  0 
 -4.109533e-04  -7.388692e-05  0 
 -3.193685e-04  -1.436733e-05  0 
 -1.397888e-04  1.404009e-05  0 
 -1.826221e-04  -3.657830e-05  0 
 -7.493650e-05  -1.212845e-05  0 
 -2.882755e-04  -8.039609e-05  0 
 -4.630788e-04  -7.295942e-05  0 
 -6.007260e-05  2.101781e-05  0 
 -9.371401e-05  -7.061939e-05  0 
CELL_DATA 42
TENSORS element_stresses FLOAT
 -2.881711e-04  3.821336e-04  0 
 3.821336e-04  -3.353660e-04  0 
 0  0  0 

 -5.848706e-04  -6.200463e-04  0 
 -6.200463e-04  -2.695736e-04  0 
 0  0  0 

 -2.303020e-04  -1.910533e-04  0 
 -1.910533e-04  -2.725410e-04  0 
 0  0  0 

 -4.728994e-04  -1.502172e-04  0 
 -1.502172e-04  -1.418698e-04  0 
 0  0  0 

 -9.330365e-04  -2.459900e-04  0 
 -2.459900e-04  -2.336401e-04  0 
 0  0  0 

 -8.306922e-04  -2.670690e-04  0 
 -2.670690e-04  -1.780302e-04  0 
 0  0  0 

 -5.112524e-04  2.745537e-04  0 
 2.745537e-04  -3.917858e-04  0 
 0  0  0 

 -7.580593e-04  -5.370559e-04  0 
 -5.370559e-04  -3.116633e-04  0 
 0  0  0 

 -5.814529e-04  1.410637e-04  0 
 1.410637e-04  -1.265419e-04  0 
 0  0  0 

 -4.284515e-04  1.756693e-04  0 
 1.756693e-04  -1.202552e-04  0 
 0  0  0 

 -5.877950e-04  -7.334736e-05  0 
 -7.334736e-05  -2.732760e-05  0 
 0  0  0 

 -5.945758e-04  -5.339571e-05  0 
 -5.339571e-05  -5.408581e-05  0 
 0  0  0 

 -7.691746e-04  -3.774183e-04  0 
 -3.774183e-04  -2.266965e-04  0 
 0  0  0 

 -6.472748e-04  4.858839e-05  0 
 4.858839e-05  -5.663409e-05  0 
 0  0  0 

 -3.429212e-04  -4.246561e-04  0 
 -4.246561e-04  -2.109540e-04  0 
 0  0  0 

 -4.850809e-04  -2.589789e-04  0 
 -2.589789e-04  -3.329090e-04  0 
 0  0  0 

 -2.417293e-04  2.366487e-04  0 
 2.366487e-04  -3.417103e-04  0 
 0  0  0 

 -6.810686e-04  1.043679e-04  0 
 1.043679e-04  -1.625720e-04  0 
 0  0  0 

 -6.008871e-04  5.100488e-06  0 
 5.100488e-06  -1.344707e-04  0 
 0  0  0 

 -4.446135e-04  -1.222552e-04  0 
 -1.222552e-04  -1.362188e-05  0 
 0  0  0 

 -4.219909e-04  4.428548e-04  0 
 4.428548e-04  -3.071491e-04  0 
 0  0  0 

 -5.526527e-04  4.012892e-04  0 
 4.012892e-04  -1.483484e-04  0 
 0  0  0 

 -5.532684e-04  3.695531e-04  0 
 3.695531e-04  -3.632510e-04  0 
 0  0  0 

 -1.141170e-03  -7.566350e-04  0 
 -7.566350e-04  -4.545701e-04  0 
 0  0  0 

 -9.340556e-04  -8.117542e-04  0 
 -8.117542e-04  -7.004283e-04  0 
 0  0  0 

 -9.727261e-04  -8.018209e-04  0 
 -8.018209e-04  -4.247948e-04  0 
 0  0  0 

 -5.288798e-04  -5.298101e-05  0 
 -5.298101e-05  -6.876169e-06  0 
 0  0  0 

 -5.426822e-04  -6.839146e-05  0 
 -6.839146e-05  -4.420751e-05  0 
 0  0  0 

 -7.366925e-04  1.633994e-04  0 
 1.633994e-04  -2.051451e-04  0 
 0  0  0 

 -4.582482e-04  2.493269e-04  0 
 2.493269e-04  -1.360430e-04  0 
 0  0  0 

 -1.035915e-03  -6.876941e-04  0 
 -6.876941e-04  -4.500204e-04  0 
 0  0  0 

 -7.605462e-04  -2.548700e-04  0 
 -2.548700e-04  -3.086410e-04  0 
 0  0  0 

 -4.966590e-04  -5.626885e-05  0 
 -5.626885e-05  -1.489977e-04  0 
 0  0  0 

 -4.992940e-04  -4.451184e-06  0 
 -4.451184e-06  -4.378435e-05  0 
 0  0  0 

 -2.257811e-04  1.116534e-05  0 
 1.116534e-05  -2.459019e-04  0 
 0  0  0 

 -4.291640e-04  1.051072e-04  0 
 1.051072e-04  -1.287492e-04  0 
 0  0  0 

 -4.291640e-04  1.051072e-04  0 
 1.051072e-04  -1.287492e-04  0 
 0  0  0 

 -3.612899e-04  9.277690e-05  0 
 9.277690e-05  -8.427504e-05  0 
 0  0  0 

 -4.527985e-04  1.709021e-04  0 
 1.709021e-04  -3.667404e-04  0 
 0  0  0 

 -5.297565e-04  7.707996e-05  0 
 7.707996e-05  -9.973770e-05  0 
 0  0  0 

 -2.825786e-01  8.590557e-02  0 
 8.590557e-02  1.575587e-01  0 
 0  0  0 

 -9.999791e-02  1.282265e-01  0 
 1.282265e-01  8.852876e-02  0 
 0  0  0 

TENSORS element_stresses FLOAT
 -2.881711e-04  3.821336e-04  0 
 3.821336e-04  -3.353660e-04  0 
 0  0  0 

 -5.848706e-04  -6.200463e-04  0 
 -6.200463e-04  -2.695736e-04  0 
 0  0  0 

 -2.303020e-04  -1.910533e-04  0 
 -1.910533e-04  -2.725410e-04  0 
 0  0  0 

 -4.728994e-04  -1.502172e-04  0 
 -1.502172e-04  -1.418698e-04  0 
 0  0  0 

 -9.330365e-04  -2.459900e-04  0 
 -2.459900e-04  -2.336401e-04  0 
 0  0  0 

 -8.306922e-04  -2.670690e-04  0 
 -2.670690e-04  -1.780302e-04  0 
 0  0  0 

 -5.112524e-04  2.745537e-04  0 
 2.745537e-04  -3.917858e-04  0 
 0  0  0 

 -7.580593e-04  -5.370559e-04  0 
 -5.370559e-04  -3.116633e-04  0 
 0  0  0 

 -5.814529e-04  1.410637e-04  0 
 1.410637e-04  -1.265419e-04  0 
 0  0  0 

 -4.284515e-04  1.756693e-04  0 
 1.756693e-04  -1.202552e-04  0 
 0  0  0 

 -5.877950e-04  -7.334736e-05  0 
 -7.334736e-05  -2.732760e-05  0 
 0  0  0 

 -5.945758e-04  -5.339571e-05  0 
 -5.339571e-05  -5.408581e-05  0 
 0  0  0 

 -7.691746e-04  -3.774183e-04  0 
 -3.774183e-04  -2.266965e-04  0 
 0  0  0 

 -6.472748e-04  4.858839e-05  0 
 4.858839e-05  -5.663409e-05  0 
 0  0  0 

 -3.429212e-04  -4.246561e-04  0 
 -4.246561e-04  -2.109540e-04  0 
 0  0  0 

 -4.850809e-04  -2.589789e-04  0 
 -2.589789e-04  -3.329090e-04  0 
 0  0  0 

 -2.417293e-04  2.366487e-04  0 
 2.366487e-04  -3.417103e-04  0 
 0  0  0 

 -6.810686e-04  1.043679e-04  0 
 1.043679e-04  -1.625720e-04  0 
 0  0  0 

 -6.008871e-04  5.100488e-06  0 
 5.100488e-06  -1.344707e-04  0 
 0  0  0 

 -4.446135e-04  -1.222552e-04  0 
 -1.222552e-04  -1.362188e-05  0 
 0  0  0 

 -4.219909e-04  4.428548e-04  0 
 4.428548e-04  -3.071491e-04  0 
 0  0  0 

 -5.526527e-04  4.012892e-04  0 
 4.012892e-04  -1.483484e-04  0 
 0  0  0 

 -5.532684e-04  3.695531e-04  0 
 3.695531e-04  -3.632510e-04  0 
 0  0  0 

 -1.141170e-03  -7.566350e-04  0 
 -7.566350e-04  -4.545701e-04  0 
 0  0  0 

 -9.340556e-04  -8.117542e-04  0 
 -8.117542e-04  -7.004283e-04  0 
 0  0  0 

 -9.727261e-04  -8.018209e-04  0 
 -8.018209e-04  -4.247948e-04  0 
 0  0  0 

 -5.288798e-04  -5.298101e-05  0 
 -5.298101e-05  -6.876169e-06  0 
 0  0  0 

 -5.426822e-04  -6.839146e-05  0 
 -6.839146e-05  -4.420751e-05  0 
 0  0  0 

 -7.366925e-04  1.633994e-04  0 
 1.633994e-04  -2.051451e-04  0 
 0  0  0 

 -4.582482e-04  2.493269e-04  0 
 2.493269e-04  -1.360430e-04  0 
 0  0  0 

 -1.035915e-03  -6.876941e-04  0 
 -6.876941e-04  -4.500204e-04  0 
 0  0  0 

 -7.605462e-04  -2.548700e-04  0 
 -2.548700e-04  -3.086410e-04  0 
 0  0  0 

 -4.966590e-04  -5.626885e-05  0 
 -5.626885e-05  -1.489977e-04  0 
 0  0  0 

 -4.992940e-04  -4.451184e-06  0 
 -4.451184e-06  -4.378435e-05  0 
 0  0  0 

 -2.257811e-04  1.116534e-05  0 
 1.116534e-05  -2.459019e-04  0 
 0  0  0 

 -4.291640e-04  1.051072e-04  0 
 1.051072e-04  -1.287492e-04  0 
 0  0  0 

 -4.291640e-04  1.051072e-04  0 
 1.051072e-04  -1.287492e-04  0 
 0  0  0 

 -3.612899e-04  9.277690e-05  0 
 9.277690e-05  -8.427504e-05  0 
 0  0  0 

 -4.527985e-04  1.709021e-04  0 
 1.709021e-04  -3.667404e-04  0 
 0  0  0 

 -5.297565e-04  7.707996e-05  0 
 7.707996e-05  -9.973770e-05  0 
 0  0  0 

 -2.825786e-01  8.590557e-02  0 
 8.590557e-02  1.575587e-01  0 
 0  0  0 

 -9.999791e-02  1.282265e-01  0 
 1.282265e-01  8.852876e-02  0 
 0  0  0 

