# vtk DataFile Version 3.1
this is an vtk file created by FEMAC
ASCII
DATASET UNSTRUCTURED_GRID
POINTS 31 FLOAT
2.000000 4.000000 0.000000
2.000000 5.000000 0.000000
1.500000 5.000000 0.000000
1.750000 5.000000 0.000000
2.000000 4.250000 0.000000
2.000000 4.500000 0.000000
2.000000 4.750000 0.000000
2.000000 5.250000 0.000000
2.250000 5.000000 0.000000
1.668552 4.802393 0.000000
1.825071 4.338322 0.000000
1.500000 4.775000 0.000000
1.800052 4.608882 0.000000
1.613228 4.205045 0.000000
1.561048 4.603297 0.000000
1.418444 4.423893 0.000000
1.643569 4.435888 0.000000
1.843721 4.832255 0.000000
1.837660 4.158674 0.000000
1.674167 5.178356 0.000000
1.500000 5.225000 0.000000
1.828194 5.341416 0.000000
1.630720 5.401594 0.000000
1.850472 5.153954 0.000000
2.255000 4.805000 0.000000
2.255000 4.195000 0.000000
2.169567 4.378219 0.000000
2.242859 4.565925 0.000000
2.413341 4.323754 0.000000
2.371000 5.200321 0.000000
2.169413 5.172421 0.000000
CELLS 42 168 
3 2 9 3
3 5 10  4
3 11  9  2
3 14  9 11
3 6 12  5
3 16 13 10
3 9 14 12
3 12 10  5
3 16 10 12
3 12 14 16
3 3 17  1
3 17  6  1
3 17  3  9
3 18  4 10
3 4 18  0
3 17 12  6
3 9 12 17
3 10 13 18
3 16 14 15
3 16 15 13
3 19  2  3
3 19 20  2
3 19 22 20
3 21 22 19
3 23  3  1
3 7 23  1
3 3 23 19
3 21 23  7
3 21 19 23
3 4 26  5
3 27  6  5
3 28 26 25
3 27 24  6
3 25 26  4
3 24  1  6
3 8  1 24
3 0 25  4
3 5 26 27
3 27 26 28
3 30  7  1
3 8 30  1
3 30  8 29
CELL_TYPES 42
5 5 5 5 5 5 5 5 5 5 5 5 5 5 5 5 5 5 5 5 5 5 5 5 5 5 5 5 5 5 5 5 5 5 5 5 5 5 5 5 5 5 
POINT_DATA 31
VECTORS displacement_ITER1 FLOAT
 3.782240e-02  -7.636903e-02  0 
 3.357803e-02  -7.644337e-02  0 
 3.350404e-02  -5.064034e-02  0 
 3.353485e-02  -6.356485e-02  0 
 3.677330e-02  -7.637653e-02  0 
 3.571720e-02  -7.639984e-02  0 
 3.464584e-02  -7.642651e-02  0 
 4.644701e-02  -7.648340e-02  0 
 3.362748e-02  -7.543500e-02  0 
 2.389669e-02  -6.213521e-02  0 
 3.393931e-02  -6.643575e-02  0 
 1.501662e-02  -4.779214e-02  0 
 2.996862e-02  -6.597736e-02  0 
 3.328922e-02  -5.546059e-02  0 
 2.258063e-02  -5.521627e-02  0 
 2.563777e-02  -5.608308e-02  0 
 2.890313e-02  -5.815510e-02  0 
 2.986408e-02  -7.099493e-02  0 
 3.588385e-02  -6.895619e-02  0 
 4.273510e-02  -5.965973e-02  0 
 4.513724e-02  -5.064879e-02  0 
 5.116353e-02  -6.762176e-02  0 
 5.427425e-02  -5.741591e-02  0 
 4.148584e-02  -6.876492e-02  0 
 3.442610e-02  -7.535840e-02  0 
 3.701086e-02  -7.531628e-02  0 
 3.624259e-02  -7.568069e-02  0 
 3.545041e-02  -7.538366e-02  0 
 3.648456e-02  -7.466996e-02  0 
 8.015594e-02  -1.377122e-01  0 
 4.886980e-02  -8.420047e-02  0 
VECTORS displacement_ITER2 FLOAT
 2.222474e-02  -3.676811e-02  0 
 3.805645e-02  -3.736791e-02  0 
 3.788693e-02  -5.722822e-02  0 
 3.794395e-02  -4.732997e-02  0 
 2.654395e-02  -3.686374e-02  0 
 3.069835e-02  -3.709563e-02  0 
 3.454526e-02  -3.730859e-02  0 
 2.801939e-02  -3.744221e-02  0 
 3.809796e-02  -4.095698e-02  0 
 2.690314e-02  -4.001999e-02  0 
 2.396603e-02  -2.729316e-02  0 
 9.271672e-03  -2.204577e-02  0 
 2.780354e-02  -3.266121e-02  0 
 1.496818e-02  -1.049830e-02  0 
 1.498500e-02  -1.943239e-02  0 
 1.193414e-02  -1.174464e-02  0 
 1.905724e-02  -1.853108e-02  0 
 3.369355e-02  -4.091339e-02  0 
 2.165954e-02  -2.574759e-02  0 
 3.085875e-02  -5.036574e-02  0 
 2.900506e-02  -5.725407e-02  0 
 2.440472e-02  -4.426566e-02  0 
 2.203715e-02  -5.205302e-02  0 
 3.184438e-02  -4.338740e-02  0 
 3.533804e-02  -4.102562e-02  0 
 2.563829e-02  -4.121281e-02  0 
 2.874697e-02  -3.978124e-02  0 
 3.180813e-02  -4.094618e-02  0 
 2.783304e-02  -4.387397e-02  0 
 4.300507e-02  -4.812267e-02  0 
 3.706942e-02  -3.939020e-02  0 
VECTORS displacement_ITER3 FLOAT
 1.032897e-02  -1.667481e-02  0 
 7.055386e-03  -1.731066e-02  0 
 6.665606e-03  -1.628949e-02  0 
 6.815403e-03  -1.688397e-02  0 
 9.996426e-03  -1.677055e-02  0 
 9.457607e-03  -1.702996e-02  0 
 8.509662e-03  -1.727122e-02  0 
 7.313945e-03  -1.744078e-02  0 
 7.142530e-03  -1.603024e-02  0 
 4.091547e-03  -1.554037e-02  0 
 7.866905e-03  -1.425523e-02  0 
 -8.148967e-04  -9.877286e-03  0 
 6.905643e-03  -1.486256e-02  0 
 4.774776e-03  -9.505760e-03  0 
 3.128709e-03  -1.082705e-02  0 
 3.631987e-03  -9.182615e-03  0 
 5.604009e-03  -1.134683e-02  0 
 6.538565e-03  -1.720761e-02  0 
 8.062564e-03  -1.374079e-02  0 
 7.170149e-03  -1.678726e-02  0 
 7.265796e-03  -1.634255e-02  0 
 7.532453e-03  -1.712655e-02  0 
 7.705746e-03  -1.663060e-02  0 
 7.156299e-03  -1.718273e-02  0 
 8.203913e-03  -1.599824e-02  0 
 1.010964e-02  -1.636156e-02  0 
 9.799838e-03  -1.650957e-02  0 
 9.318926e-03  -1.625424e-02  0 
 9.885807e-03  -1.606410e-02  0 
 2.092951e-02  8.284410e-04  0 
 1.353403e-02  -1.265609e-02  0 
VECTORS displacement_ITER4 FLOAT
 5.633258e-03  -5.110983e-03  0 
 2.209409e-03  -6.127925e-03  0 
 1.704636e-03  -2.642270e-03  0 
 1.906914e-03  -4.533260e-03  0 
 5.481797e-03  -5.255211e-03  0 
 5.024798e-03  -5.653407e-03  0 
 3.959513e-03  -6.024020e-03  0 
 3.614206e-03  -6.303554e-03  0 
 2.303870e-03  -4.551204e-03  0 
 2.115068e-03  -4.491620e-03  0 
 4.207552e-03  -6.308320e-03  0 
 1.589621e-03  -2.722134e-03  0 
 3.482713e-03  -5.564579e-03  0 
 3.558315e-03  -7.558386e-03  0 
 2.843673e-03  -4.701263e-03  0 
 3.155392e-03  -4.523283e-03  0 
 3.428819e-03  -5.836346e-03  0 
 2.674007e-03  -5.612670e-03  0 
 5.172126e-03  -7.230079e-03  0 
 3.142017e-03  -4.086436e-03  0 
 3.469644e-03  -2.756575e-03  0 
 4.283274e-03  -5.181377e-03  0 
 4.772968e-03  -3.718802e-03  0 
 3.006452e-03  -5.341612e-03  0 
 3.605968e-03  -4.517997e-03  0 
 5.571459e-03  -4.990456e-03  0 
 5.369762e-03  -5.101205e-03  0 
 4.910501e-03  -4.827459e-03  0 
 5.429482e-03  -4.759242e-03  0 
 6.874249e-03  -2.884662e-03  0 
 4.558124e-03  -3.338007e-03  0 
VECTORS displacement_ITER5 FLOAT
 -1.667506e-04  -1.441884e-03  0 
 1.714044e-03  -2.549091e-03  0 
 1.242192e-03  -2.232134e-03  0 
 1.420588e-03  -2.497419e-03  0 
 1.069013e-03  -1.646721e-03  0 
 1.939012e-03  -2.096724e-03  0 
 2.175138e-03  -2.453219e-03  0 
 1.597132e-03  -2.752470e-03  0 
 1.791202e-03  -2.234245e-03  0 
 2.359586e-03  -2.063343e-03  0 
 1.422291e-03  -1.565254e-03  0 
 2.870207e-03  -2.478899e-03  0 
 2.160950e-03  -1.995901e-03  0 
 9.388523e-04  -6.344102e-04  0 
 2.306297e-03  -1.649528e-03  0 
 1.355616e-03  -1.081397e-04  0 
 1.673304e-03  -1.336991e-03  0 
 2.154822e-03  -2.216632e-03  0 
 7.595923e-04  -1.582485e-03  0 
 1.538271e-03  -2.509281e-03  0 
 1.596301e-03  -2.243856e-03  0 
 1.720266e-03  -2.664785e-03  0 
 1.869828e-03  -2.356660e-03  0 
 1.561948e-03  -2.685027e-03  0 
 2.097517e-03  -2.262549e-03  0 
 8.787497e-04  -2.776601e-03  0 
 1.654207e-03  -2.431697e-03  0 
 2.155362e-03  -2.536352e-03  0 
 1.433992e-03  -3.372147e-03  0 
 1.182944e-03  -7.920179e-04  0 
 1.703289e-03  -1.381759e-03  0 
VECTORS displacement_ITER6 FLOAT
 1.068413e-03  -1.089530e-03  0 
 1.656454e-03  -1.818466e-03  0 
 1.138044e-03  -1.645215e-03  0 
 1.357847e-03  -1.835192e-03  0 
 1.633540e-03  -1.254156e-03  0 
 2.010309e-03  -1.524742e-03  0 
 2.060915e-03  -1.727928e-03  0 
 1.491143e-03  -2.014825e-03  0 
 1.791665e-03  -1.569547e-03  0 
 1.453135e-03  -1.680580e-03  0 
 1.542307e-03  -1.057553e-03  0 
 1.247591e-03  -1.766597e-03  0 
 1.785201e-03  -1.408326e-03  0 
 1.061204e-03  -7.099265e-04  0 
 1.410986e-03  -1.272929e-03  0 
 1.147872e-03  -6.206895e-04  0 
 1.432326e-03  -1.023294e-03  0 
 1.712303e-03  -1.741106e-03  0 
 1.238987e-03  -7.639450e-04  0 
 1.409478e-03  -1.907162e-03  0 
 1.423926e-03  -1.712774e-03  0 
 1.534875e-03  -2.021595e-03  0 
 1.629519e-03  -1.826813e-03  0 
 1.466359e-03  -1.997810e-03  0 
 2.017648e-03  -1.529986e-03  0 
 1.568486e-03  -1.775454e-03  0 
 1.909481e-03  -1.636344e-03  0 
 2.105808e-03  -1.678723e-03  0 
 1.818577e-03  -2.061275e-03  0 
 2.552228e-03  -1.950250e-03  0 
 1.914206e-03  -1.775113e-03  0 
VECTORS displacement_ITER7 FLOAT
 8.092034e-04  -1.528415e-03  0 
 1.580642e-03  -2.169417e-03  0 
 1.122853e-03  -1.784072e-03  0 
 1.305434e-03  -2.064224e-03  0 
 1.223403e-03  -1.687287e-03  0 
 1.554718e-03  -1.892010e-03  0 
 1.723858e-03  -2.055223e-03  0 
 1.554888e-03  -2.382459e-03  0 
 1.767432e-03  -2.222162e-03  0 
 1.332182e-03  -1.839204e-03  0 
 1.133163e-03  -1.378226e-03  0 
 1.172126e-03  -1.789960e-03  0 
 1.437583e-03  -1.679449e-03  0 
 5.272623e-04  -6.414787e-04  0 
 1.086968e-03  -1.339675e-03  0 
 6.577289e-04  -5.566607e-04  0 
 1.027452e-03  -1.148181e-03  0 
 1.525996e-03  -1.977148e-03  0 
 8.256499e-04  -1.075719e-03  0 
 1.427006e-03  -2.087314e-03  0 
 1.445277e-03  -1.843589e-03  0 
 1.625175e-03  -2.277805e-03  0 
 1.706391e-03  -2.022784e-03  0 
 1.472009e-03  -2.264053e-03  0 
 1.764460e-03  -2.097315e-03  0 
 1.184204e-03  -2.094818e-03  0 
 1.455230e-03  -2.012773e-03  0 
 1.662718e-03  -2.118882e-03  0 
 1.404362e-03  -2.329234e-03  0 
 2.056730e-03  -2.288230e-03  0 
 1.803395e-03  -2.262319e-03  0 
VECTORS displacement_ITER8 FLOAT
 8.745023e-04  -1.313938e-03  0 
 1.431918e-03  -1.895070e-03  0 
 1.009074e-03  -1.548419e-03  0 
 1.177370e-03  -1.806621e-03  0 
 1.245985e-03  -1.469484e-03  0 
 1.476546e-03  -1.663204e-03  0 
 1.561302e-03  -1.796818e-03  0 
 1.394626e-03  -2.090482e-03  0 
 1.632664e-03  -1.973208e-03  0 
 1.219571e-03  -1.596301e-03  0 
 1.104780e-03  -1.267258e-03  0 
 1.082512e-03  -1.472058e-03  0 
 1.332282e-03  -1.512460e-03  0 
 5.202412e-04  -6.461095e-04  0 
 1.044903e-03  -1.237545e-03  0 
 6.100852e-04  -5.387651e-04  0 
 9.767289e-04  -1.089011e-03  0 
 1.384911e-03  -1.729262e-03  0 
 8.666867e-04  -9.848278e-04  0 
 1.291502e-03  -1.825056e-03  0 
 1.310049e-03  -1.604355e-03  0 
 1.467208e-03  -1.986313e-03  0 
 1.538431e-03  -1.766374e-03  0 
 1.326278e-03  -1.986441e-03  0 
 1.599660e-03  -1.817802e-03  0 
 1.235674e-03  -1.778925e-03  0 
 1.422646e-03  -1.728169e-03  0 
 1.548288e-03  -1.797889e-03  0 
 1.390547e-03  -1.958304e-03  0 
 1.856002e-03  -1.713831e-03  0 
 1.664052e-03  -1.936177e-03  0 
VECTORS displacement_ITER9 FLOAT
 8.579797e-04  -1.234952e-03  0 
 1.454960e-03  -1.875737e-03  0 
 1.026321e-03  -1.561156e-03  0 
 1.197237e-03  -1.802514e-03  0 
 1.254964e-03  -1.407717e-03  0 
 1.500564e-03  -1.608595e-03  0 
 1.600324e-03  -1.759315e-03  0 
 1.403638e-03  -2.077879e-03  0 
 1.640259e-03  -1.915956e-03  0 
 1.164659e-03  -1.554642e-03  0 
 1.106977e-03  -1.199285e-03  0 
 9.265592e-04  -1.299283e-03  0 
 1.311436e-03  -1.459175e-03  0 
 6.904701e-04  -8.342090e-04  0 
 9.845342e-04  -1.156347e-03  0 
 6.422805e-04  -6.830200e-04  0 
 9.520432e-04  -1.076791e-03  0 
 1.384563e-03  -1.718260e-03  0 
 9.246754e-04  -9.818749e-04  0 
 1.299858e-03  -1.827005e-03  0 
 1.316108e-03  -1.615235e-03  0 
 1.467244e-03  -1.980062e-03  0 
 1.536141e-03  -1.767646e-03  0 
 1.337829e-03  -1.978025e-03  0 
 1.645532e-03  -1.782748e-03  0 
 1.247378e-03  -1.737668e-03  0 
 1.439124e-03  -1.681011e-03  0 
 1.583300e-03  -1.760470e-03  0 
 1.397564e-03  -1.917406e-03  0 
 1.946610e-03  -1.861077e-03  0 
 1.665874e-03  -1.923623e-03  0 
VECTORS displacement_ITER10 FLOAT
 8.440451e-04  -1.166930e-03  0 
 1.437531e-03  -1.780092e-03  0 
 1.015309e-03  -1.502315e-03  0 
 1.183191e-03  -1.724331e-03  0 
 1.241490e-03  -1.334709e-03  0 
 1.480264e-03  -1.527615e-03  0 
 1.578198e-03  -1.670415e-03  0 
 1.370995e-03  -1.981110e-03  0 
 1.620932e-03  -1.822731e-03  0 
 1.147812e-03  -1.487338e-03  0 
 1.096992e-03  -1.144409e-03  0 
 9.059412e-04  -1.201943e-03  0 
 1.274424e-03  -1.394077e-03  0 
 7.472103e-04  -8.235770e-04  0 
 9.148723e-04  -1.091292e-03  0 
 6.155674e-04  -6.916837e-04  0 
 9.219382e-04  -1.021712e-03  0 
 1.365711e-03  -1.640545e-03  0 
 9.310763e-04  -1.013446e-03  0 
 1.272387e-03  -1.753258e-03  0 
 1.284895e-03  -1.555013e-03  0 
 1.427506e-03  -1.894803e-03  0 
 1.492718e-03  -1.698455e-03  0 
 1.311651e-03  -1.891084e-03  0 
 1.620488e-03  -1.692649e-03  0 
 1.234437e-03  -1.659182e-03  0 
 1.419455e-03  -1.600274e-03  0 
 1.559348e-03  -1.675242e-03  0 
 1.376401e-03  -1.826731e-03  0 
 1.923140e-03  -1.771985e-03  0 
 1.643329e-03  -1.804758e-03  0 
VECTORS displacement_ITER11 FLOAT
 8.430131e-04  -1.157209e-03  0 
 1.429436e-03  -1.769440e-03  0 
 1.008634e-03  -1.491932e-03  0 
 1.175984e-03  -1.713685e-03  0 
 1.241570e-03  -1.325063e-03  0 
 1.478396e-03  -1.518800e-03  0 
 1.572699e-03  -1.660273e-03  0 
 1.363129e-03  -1.969396e-03  0 
 1.613787e-03  -1.811437e-03  0 
 1.132175e-03  -1.490633e-03  0 
 1.111786e-03  -1.097839e-03  0 
 8.923558e-04  -1.242869e-03  0 
 1.277568e-03  -1.373603e-03  0 
 7.519928e-04  -6.925998e-04  0 
 9.159641e-04  -1.099648e-03  0 
 5.949811e-04  -6.713323e-04  0 
 9.295054e-04  -9.817534e-04  0 
 1.355306e-03  -1.631821e-03  0 
 9.257032e-04  -9.387241e-04  0 
 1.265347e-03  -1.742277e-03  0 
 1.278007e-03  -1.544755e-03  0 
 1.419933e-03  -1.883319e-03  0 
 1.484444e-03  -1.687510e-03  0 
 1.304199e-03  -1.879901e-03  0 
 1.613895e-03  -1.678968e-03  0 
 1.234368e-03  -1.649944e-03  0 
 1.418917e-03  -1.590019e-03  0 
 1.555710e-03  -1.662701e-03  0 
 1.376056e-03  -1.813141e-03  0 
 1.943575e-03  -1.780827e-03  0 
 1.646181e-03  -1.794199e-03  0 
VECTORS displacement_ITER12 FLOAT
 8.448233e-04  -1.157489e-03  0 
 1.429983e-03  -1.770286e-03  0 
 1.008779e-03  -1.493126e-03  0 
 1.176393e-03  -1.714647e-03  0 
 1.243178e-03  -1.325245e-03  0 
 1.480022e-03  -1.519146e-03  0 
 1.573481e-03  -1.661144e-03  0 
 1.363595e-03  -1.970393e-03  0 
 1.614431e-03  -1.811985e-03  0 
 1.135457e-03  -1.495447e-03  0 
 1.113160e-03  -1.107829e-03  0 
 8.986609e-04  -1.249414e-03  0 
 1.276357e-03  -1.377561e-03  0 
 7.369328e-04  -6.749580e-04  0 
 9.054019e-04  -1.100345e-03  0 
 5.905513e-04  -6.779272e-04  0 
 9.284320e-04  -9.808223e-04  0 
 1.356628e-03  -1.633773e-03  0 
 9.357954e-04  -9.604601e-04  0 
 1.265716e-03  -1.743377e-03  0 
 1.278517e-03  -1.545746e-03  0 
 1.420271e-03  -1.884245e-03  0 
 1.484956e-03  -1.688271e-03  0 
 1.304620e-03  -1.880869e-03  0 
 1.614672e-03  -1.679540e-03  0 
 1.235795e-03  -1.650323e-03  0 
 1.420562e-03  -1.590156e-03  0 
 1.557396e-03  -1.662539e-03  0 
 1.377439e-03  -1.813555e-03  0 
 1.935357e-03  -1.774192e-03  0 
 1.645978e-03  -1.794796e-03  0 
VECTORS displacement_ITER13 FLOAT
 8.439197e-04  -1.157340e-03  0 
 1.430158e-03  -1.770066e-03  0 
 1.009030e-03  -1.493123e-03  0 
 1.176588e-03  -1.714533e-03  0 
 1.242634e-03  -1.325197e-03  0 
 1.479565e-03  -1.518922e-03  0 
 1.573634e-03  -1.660756e-03  0 
 1.363664e-03  -1.970167e-03  0 
 1.614525e-03  -1.811770e-03  0 
 1.137526e-03  -1.495651e-03  0 
 1.113446e-03  -1.108953e-03  0 
 9.038134e-04  -1.249940e-03  0 
 1.277296e-03  -1.378560e-03  0 
 7.344562e-04  -6.719278e-04  0 
 9.084835e-04  -1.106114e-03  0 
 5.893009e-04  -6.778479e-04  0 
 9.295461e-04  -9.831027e-04  0 
 1.357456e-03  -1.633484e-03  0 
 9.309997e-04  -9.610318e-04  0 
 1.265802e-03  -1.743287e-03  0 
 1.278547e-03  -1.545706e-03  0 
 1.420294e-03  -1.884129e-03  0 
 1.484958e-03  -1.688311e-03  0 
 1.304729e-03  -1.880708e-03  0 
 1.614898e-03  -1.679358e-03  0 
 1.235396e-03  -1.650217e-03  0 
 1.419988e-03  -1.590148e-03  0 
 1.557000e-03  -1.662727e-03  0 
 1.376854e-03  -1.813650e-03  0 
 1.931712e-03  -1.772253e-03  0 
 1.645397e-03  -1.792733e-03  0 
VECTORS displacement_ITER14 FLOAT
 8.439435e-04  -1.157327e-03  0 
 1.430148e-03  -1.770075e-03  0 
 1.009005e-03  -1.493114e-03  0 
 1.176576e-03  -1.714539e-03  0 
 1.242655e-03  -1.325183e-03  0 
 1.479588e-03  -1.518919e-03  0 
 1.573624e-03  -1.660771e-03  0 
 1.363655e-03  -1.970168e-03  0 
 1.614524e-03  -1.811785e-03  0 
 1.138006e-03  -1.495636e-03  0 
 1.113282e-03  -1.108081e-03  0 
 9.047129e-04  -1.249155e-03  0 
 1.276684e-03  -1.378953e-03  0 
 7.360214e-04  -6.724640e-04  0 
 9.071553e-04  -1.105921e-03  0 
 5.875607e-04  -6.812097e-04  0 
 9.282953e-04  -9.832854e-04  0 
 1.357626e-03  -1.633538e-03  0 
 9.306444e-04  -9.604370e-04  0 
 1.265796e-03  -1.743299e-03  0 
 1.278544e-03  -1.545717e-03  0 
 1.420279e-03  -1.884134e-03  0 
 1.484955e-03  -1.688311e-03  0 
 1.304722e-03  -1.880715e-03  0 
 1.614886e-03  -1.679364e-03  0 
 1.235408e-03  -1.650220e-03  0 
 1.420014e-03  -1.590136e-03  0 
 1.557025e-03  -1.662705e-03  0 
 1.376872e-03  -1.813622e-03  0 
 1.932815e-03  -1.771588e-03  0 
 1.644957e-03  -1.793211e-03  0 
CELL_DATA 42
TENSORS element_stresses FLOAT
 4.917267e-04  -7.436813e-04  0 
 -7.436813e-04  -5.951933e-04  0 
 0  0  0 

 1.083083e-03  -5.266382e-04  0 
 -5.266382e-04  -4.500192e-04  0 
 0  0  0 

 1.080758e-03  -6.327740e-04  0 
 -6.327740e-04  -7.600336e-04  0 
 0  0  0 

 1.018276e-03  -6.173193e-04  0 
 -6.173193e-04  -9.746689e-04  0 
 0  0  0 

 1.153176e-03  -4.868091e-04  0 
 -4.868091e-04  -2.214568e-04  0 
 0  0  0 

 1.118864e-03  -5.118290e-04  0 
 -5.118290e-04  -8.375443e-04  0 
 0  0  0 

 1.242988e-03  -6.014217e-04  0 
 -6.014217e-04  -9.848197e-04  0 
 0  0  0 

 1.184820e-03  -4.434162e-04  0 
 -4.434162e-04  -7.669583e-04  0 
 0  0  0 

 1.184623e-03  -4.270309e-04  0 
 -4.270309e-04  -7.650414e-04  0 
 0  0  0 

 1.260611e-03  -3.721775e-04  0 
 -3.721775e-04  -9.027205e-04  0 
 0  0  0 

 9.144909e-04  -5.652037e-04  0 
 -5.652037e-04  -3.326491e-04  0 
 0  0  0 

 1.042745e-03  -7.525250e-04  0 
 -7.525250e-04  -1.243928e-04  0 
 0  0  0 

 1.164815e-03  -7.611614e-04  0 
 -7.611614e-04  -4.930414e-04  0 
 0  0  0 

 1.116692e-03  -4.685608e-04  0 
 -4.685608e-04  -6.071395e-04  0 
 0  0  0 

 9.047578e-04  -2.109489e-04  0 
 -2.109489e-04  -3.999940e-04  0 
 0  0  0 

 1.236655e-03  -4.756544e-04  0 
 -4.756544e-04  -6.315145e-04  0 
 0  0  0 

 1.018836e-03  -3.785403e-04  0 
 -3.785403e-04  -7.141642e-04  0 
 0  0  0 

 8.961708e-04  -2.931071e-04  0 
 -2.931071e-04  -6.563025e-04  0 
 0  0  0 

 1.180080e-03  -5.119360e-04  0 
 -5.119360e-04  -1.004273e-03  0 
 0  0  0 

 1.237380e-03  -4.927493e-04  0 
 -4.927493e-04  -8.071392e-04  0 
 0  0  0 

 5.592695e-01  -7.729357e-02  0 
 -7.729357e-02  -3.700506e-01  0 
 0  0  0 

 1.950424e-01  6.891301e-04  0 
 6.891301e-04  -1.752811e-01  0 
 0  0  0 

 2.288300e-01  -8.195657e-02  0 
 -8.195657e-02  9.558974e-02  0 
 0  0  0 

 -1.441878e-02  1.155889e-03  0 
 1.155889e-03  5.236522e-02  0 
 0  0  0 

 8.065530e-01  -3.977914e-02  0 
 -3.977914e-02  -6.924424e-01  0 
 0  0  0 

 3.569827e-01  -2.693153e-01  0 
 -2.693153e-01  -6.932785e-01  0 
 0  0  0 

 1.660746e-01  -1.697016e-01  0 
 -1.697016e-01  -4.736224e-01  0 
 0  0  0 

 -2.922270e-02  5.484737e-02  0 
 5.484737e-02  -9.176660e-02  0 
 0  0  0 

 3.048491e-01  -1.089248e-01  0 
 -1.089248e-01  -2.126571e-02  0 
 0  0  0 

 1.064120e-01  -2.217204e-02  0 
 -2.217204e-02  -7.430203e-01  0 
 0  0  0 

 5.112908e-02  -4.760676e-02  0 
 -4.760676e-02  -5.520708e-01  0 
 0  0  0 

 2.242152e-02  7.001908e-02  0 
 7.001908e-02  -1.043987e-01  0 
 0  0  0 

 9.979553e-02  1.368211e-01  0 
 1.368211e-01  -3.676833e-02  0 
 0  0  0 

 1.331373e-01  -1.792675e-01  0 
 -1.792675e-01  -2.562752e-01  0 
 0  0  0 

 1.697043e-01  -4.250116e-01  0 
 -4.250116e-01  -3.863051e-01  0 
 0  0  0 

 5.851608e-01  -1.152193e-01  0 
 -1.152193e-01  -5.078112e-01  0 
 0  0  0 

 1.254277e-01  1.349034e-01  0 
 1.349034e-01  -6.337931e-01  0 
 0  0  0 

 9.106449e-02  1.017985e-01  0 
 1.017985e-01  -1.465428e-01  0 
 0  0  0 

 -2.272457e-02  -1.444217e-01  0 
 -1.444217e-01  -3.316295e-02  0 
 0  0  0 

 1.426967e-03  3.169580e-04  0 
 3.169580e-04  -3.722832e-04  0 
 0  0  0 

 8.202494e-04  2.725871e-04  0 
 2.725871e-04  2.758175e-04  0 
 0  0  0 

 1.497512e-03  6.764491e-04  0 
 6.764491e-04  5.975184e-04  0 
 0  0  0 

TENSORS element_stresses FLOAT
 4.917267e-04  -7.436813e-04  0 
 -7.436813e-04  -5.951933e-04  0 
 0  0  0 

 1.083083e-03  -5.266382e-04  0 
 -5.266382e-04  -4.500192e-04  0 
 0  0  0 

 1.080758e-03  -6.327740e-04  0 
 -6.327740e-04  -7.600336e-04  0 
 0  0  0 

 1.018276e-03  -6.173193e-04  0 
 -6.173193e-04  -9.746689e-04  0 
 0  0  0 

 1.153176e-03  -4.868091e-04  0 
 -4.868091e-04  -2.214568e-04  0 
 0  0  0 

 1.118864e-03  -5.118290e-04  0 
 -5.118290e-04  -8.375443e-04  0 
 0  0  0 

 1.242988e-03  -6.014217e-04  0 
 -6.014217e-04  -9.848197e-04  0 
 0  0  0 

 1.184820e-03  -4.434162e-04  0 
 -4.434162e-04  -7.669583e-04  0 
 0  0  0 

 1.184623e-03  -4.270309e-04  0 
 -4.270309e-04  -7.650414e-04  0 
 0  0  0 

 1.260611e-03  -3.721775e-04  0 
 -3.721775e-04  -9.027205e-04  0 
 0  0  0 

 9.144909e-04  -5.652037e-04  0 
 -5.652037e-04  -3.326491e-04  0 
 0  0  0 

 1.042745e-03  -7.525250e-04  0 
 -7.525250e-04  -1.243928e-04  0 
 0  0  0 

 1.164815e-03  -7.611614e-04  0 
 -7.611614e-04  -4.930414e-04  0 
 0  0  0 

 1.116692e-03  -4.685608e-04  0 
 -4.685608e-04  -6.071395e-04  0 
 0  0  0 

 9.047578e-04  -2.109489e-04  0 
 -2.109489e-04  -3.999940e-04  0 
 0  0  0 

 1.236655e-03  -4.756544e-04  0 
 -4.756544e-04  -6.315145e-04  0 
 0  0  0 

 1.018836e-03  -3.785403e-04  0 
 -3.785403e-04  -7.141642e-04  0 
 0  0  0 

 8.961708e-04  -2.931071e-04  0 
 -2.931071e-04  -6.563025e-04  0 
 0  0  0 

 1.180080e-03  -5.119360e-04  0 
 -5.119360e-04  -1.004273e-03  0 
 0  0  0 

 1.237380e-03  -4.927493e-04  0 
 -4.927493e-04  -8.071392e-04  0 
 0  0  0 

 5.592695e-01  -7.729357e-02  0 
 -7.729357e-02  -3.700506e-01  0 
 0  0  0 

 1.950424e-01  6.891301e-04  0 
 6.891301e-04  -1.752811e-01  0 
 0  0  0 

 2.288300e-01  -8.195657e-02  0 
 -8.195657e-02  9.558974e-02  0 
 0  0  0 

 -1.441878e-02  1.155889e-03  0 
 1.155889e-03  5.236522e-02  0 
 0  0  0 

 8.065530e-01  -3.977914e-02  0 
 -3.977914e-02  -6.924424e-01  0 
 0  0  0 

 3.569827e-01  -2.693153e-01  0 
 -2.693153e-01  -6.932785e-01  0 
 0  0  0 

 1.660746e-01  -1.697016e-01  0 
 -1.697016e-01  -4.736224e-01  0 
 0  0  0 

 -2.922270e-02  5.484737e-02  0 
 5.484737e-02  -9.176660e-02  0 
 0  0  0 

 3.048491e-01  -1.089248e-01  0 
 -1.089248e-01  -2.126571e-02  0 
 0  0  0 

 1.064120e-01  -2.217204e-02  0 
 -2.217204e-02  -7.430203e-01  0 
 0  0  0 

 5.112908e-02  -4.760676e-02  0 
 -4.760676e-02  -5.520708e-01  0 
 0  0  0 

 2.242152e-02  7.001908e-02  0 
 7.001908e-02  -1.043987e-01  0 
 0  0  0 

 9.979553e-02  1.368211e-01  0 
 1.368211e-01  -3.676833e-02  0 
 0  0  0 

 1.331373e-01  -1.792675e-01  0 
 -1.792675e-01  -2.562752e-01  0 
 0  0  0 

 1.697043e-01  -4.250116e-01  0 
 -4.250116e-01  -3.863051e-01  0 
 0  0  0 

 5.851608e-01  -1.152193e-01  0 
 -1.152193e-01  -5.078112e-01  0 
 0  0  0 

 1.254277e-01  1.349034e-01  0 
 1.349034e-01  -6.337931e-01  0 
 0  0  0 

 9.106449e-02  1.017985e-01  0 
 1.017985e-01  -1.465428e-01  0 
 0  0  0 

 -2.272457e-02  -1.444217e-01  0 
 -1.444217e-01  -3.316295e-02  0 
 0  0  0 

 1.426967e-03  3.169580e-04  0 
 3.169580e-04  -3.722832e-04  0 
 0  0  0 

 8.202494e-04  2.725871e-04  0 
 2.725871e-04  2.758175e-04  0 
 0  0  0 

 1.497512e-03  6.764491e-04  0 
 6.764491e-04  5.975184e-04  0 
 0  0  0 

