# vtk DataFile Version 3.1
this is an vtk file created by FEMAC
ASCII
DATASET UNSTRUCTURED_GRID
POINTS 19 FLOAT
5.000000 3.000000 0.000000
6.000000 3.000000 0.000000
5.000000 2.666667 0.000000
5.000000 3.333333 0.000000
5.000000 3.666667 0.000000
5.333333 3.000000 0.000000
5.666667 3.000000 0.000000
6.000000 3.333333 0.000000
6.000000 3.666667 0.000000
5.769946 2.658255 0.000000
5.391228 2.687481 0.000000
5.181140 2.838537 0.000000
5.509726 3.248421 0.000000
5.659969 3.515789 0.000000
5.265821 3.466342 0.000000
5.214111 3.242347 0.000000
5.772591 3.221251 0.000000
5.394160 3.783162 0.000000
5.744159 3.793124 0.000000
CELLS 25 100 
3 6 9 1
3 10  6  5
3 10  9  6
3 2 11  0
3 5 11 10
3 11  5  0
3 11  2 10
3 5  6 12
3 3 14  4
3 5 15  0
3 15  5 12
3 15  3  0
3 15 14  3
3 12 14 15
3 14 12 13
3 13  7  8
3 16  6  1
3 7 16  1
3 17  4 14
3 16  7 13
3 12 16 13
3 16 12  6
3 18 13  8
3 13 17 14
3 13 18 17
CELL_TYPES 25
5 5 5 5 5 5 5 5 5 5 5 5 5 5 5 5 5 5 5 5 5 5 5 5 5 
POINT_DATA 19
VECTORS displacement_ITER1 FLOAT
 1.977409e-01  -3.748923e-01  0 
 1.977417e-01  -4.490077e-01  0 
 1.806190e-01  -3.457177e-01  0 
 2.224283e-01  -3.749090e-01  0 
 2.471152e-01  -3.749170e-01  0 
 1.977462e-01  -3.996022e-01  0 
 1.977408e-01  -4.243165e-01  0 
 2.224402e-01  -4.490200e-01  0 
 2.471382e-01  -4.490304e-01  0 
 1.746514e-01  -4.336744e-01  0 
 1.787439e-01  -4.068207e-01  0 
 1.928871e-01  -3.810696e-01  0 
 2.161460e-01  -4.126822e-01  0 
 2.359552e-01  -4.238275e-01  0 
 2.322835e-01  -3.946122e-01  0 
 2.156937e-01  -3.907735e-01  0 
 2.141328e-01  -4.321659e-01  0 
 2.557599e-01  -4.041384e-01  0 
 2.565043e-01  -4.300763e-01  0 
VECTORS displacement_ITER2 FLOAT
 2.431007e-02  -1.144107e-01  0 
 2.431578e-02  -1.046640e-01  0 
 2.436544e-02  -7.785164e-02  0 
 2.103676e-02  -1.144356e-01  0 
 1.775889e-02  -1.144489e-01  0 
 2.431422e-02  -1.111685e-01  0 
 2.431099e-02  -1.079247e-01  0 
 2.104729e-02  -1.046617e-01  0 
 1.777404e-02  -1.046596e-01  0 
 2.834457e-02  -1.088795e-01  0 
 2.918942e-02  -1.136882e-01  0 
 3.075185e-02  -1.052648e-01  0 
 2.187985e-02  -1.094543e-01  0 
 1.925796e-02  -1.079946e-01  0 
 1.973525e-02  -1.118431e-01  0 
 2.193619e-02  -1.123393e-01  0 
 2.214657e-02  -1.068902e-01  0 
 1.663057e-02  -1.106049e-01  0 
 1.652976e-02  -1.071702e-01  0 
VECTORS displacement_ITER3 FLOAT
 -6.496308e-03  -2.513057e-02  0 
 -6.534686e-03  -4.711879e-02  0 
 1.180488e-02  -3.248576e-02  0 
 8.573365e-04  -2.503755e-02  0 
 8.211168e-03  -2.492835e-02  0 
 -6.511343e-03  -3.241958e-02  0 
 -6.532728e-03  -3.976465e-02  0 
 8.193988e-04  -4.713470e-02  0 
 8.201776e-03  -4.716675e-02  0 
 -1.011947e-02  -4.349422e-02  0 
 -6.890201e-03  -3.566116e-02  0 
 -2.814593e-03  -2.789187e-02  0 
 -1.059074e-03  -3.628969e-02  0 
 4.846927e-03  -3.961223e-02  0 
 3.756965e-03  -3.087473e-02  0 
 -1.177267e-03  -2.977833e-02  0 
 -1.658173e-03  -4.210228e-02  0 
 1.078625e-02  -3.369334e-02  0 
 1.101152e-02  -4.148454e-02  0 
VECTORS displacement_ITER4 FLOAT
 7.050509e-04  -1.615138e-02  0 
 6.393878e-04  -2.311210e-02  0 
 2.155032e-03  -1.475826e-02  0 
 2.990871e-03  -1.612627e-02  0 
 5.304524e-03  -1.606753e-02  0 
 6.685210e-04  -1.846465e-02  0 
 6.462593e-04  -2.078653e-02  0 
 2.962432e-03  -2.311283e-02  0 
 5.298306e-03  -2.314038e-02  0 
 -1.563747e-03  -2.354769e-02  0 
 -3.320155e-04  -2.090997e-02  0 
 1.256544e-03  -1.738271e-02  0 
 2.377538e-03  -1.967641e-02  0 
 4.232082e-03  -2.072569e-02  0 
 3.897424e-03  -1.795165e-02  0 
 2.353993e-03  -1.761170e-02  0 
 2.182873e-03  -2.151980e-02  0 
 6.115873e-03  -1.882771e-02  0 
 6.193573e-03  -2.132847e-02  0 
VECTORS displacement_ITER5 FLOAT
 1.074594e-03  -1.578258e-02  0 
 9.966914e-04  -1.878183e-02  0 
 3.227568e-04  -1.318908e-02  0 
 2.022547e-03  -1.576114e-02  0 
 3.008182e-03  -1.571476e-02  0 
 1.030379e-03  -1.677328e-02  0 
 1.005733e-03  -1.777401e-02  0 
 2.000633e-03  -1.877725e-02  0 
 3.013256e-03  -1.880054e-02  0 
 2.343995e-04  -2.007890e-02  0 
 7.170123e-04  -1.905886e-02  0 
 1.427983e-03  -1.662310e-02  0 
 1.752771e-03  -1.728466e-02  0 
 2.546705e-03  -1.773983e-02  0 
 2.405008e-03  -1.653096e-02  0 
 1.752299e-03  -1.639151e-02  0 
 1.665996e-03  -1.808680e-02  0 
 3.365452e-03  -1.690250e-02  0 
 3.402361e-03  -1.800824e-02  0 
VECTORS displacement_ITER6 FLOAT
 7.516715e-04  -1.306822e-02  0 
 6.980270e-04  -1.523306e-02  0 
 -8.483878e-04  -1.323390e-02  0 
 1.423410e-03  -1.307998e-02  0 
 2.143829e-03  -1.303214e-02  0 
 7.191520e-04  -1.380455e-02  0 
 7.056742e-04  -1.451946e-02  0 
 1.407247e-03  -1.522004e-02  0 
 2.109398e-03  -1.522283e-02  0 
 7.620909e-04  -1.704783e-02  0 
 6.196452e-04  -1.617707e-02  0 
 6.199941e-04  -1.475558e-02  0 
 1.237276e-03  -1.417220e-02  0 
 1.792444e-03  -1.449208e-02  0 
 1.696310e-03  -1.364060e-02  0 
 1.237100e-03  -1.352985e-02  0 
 1.174147e-03  -1.473830e-02  0 
 2.362223e-03  -1.390560e-02  0 
 2.374908e-03  -1.467303e-02  0 
VECTORS displacement_ITER7 FLOAT
 4.222589e-04  -1.169751e-02  0 
 3.735441e-04  -1.399689e-02  0 
 -8.962991e-04  -1.177382e-02  0 
 1.137494e-03  -1.172280e-02  0 
 1.894123e-03  -1.168139e-02  0 
 3.942519e-04  -1.248393e-02  0 
 3.817681e-04  -1.324187e-02  0 
 1.125291e-03  -1.398294e-02  0 
 1.874518e-03  -1.398573e-02  0 
 1.135495e-05  -1.699638e-02  0 
 2.356712e-04  -1.539822e-02  0 
 4.314249e-04  -1.344095e-02  0 
 9.451996e-04  -1.287448e-02  0 
 1.533486e-03  -1.321239e-02  0 
 1.427601e-03  -1.231763e-02  0 
 9.428587e-04  -1.219688e-02  0 
 8.782209e-04  -1.347319e-02  0 
 2.125223e-03  -1.260355e-02  0 
 2.151251e-03  -1.341187e-02  0 
VECTORS displacement_ITER8 FLOAT
 8.925689e-04  -1.262648e-02  0 
 8.331632e-04  -1.454473e-02  0 
 -1.455767e-04  -1.257656e-02  0 
 1.477108e-03  -1.265085e-02  0 
 2.088128e-03  -1.262263e-02  0 
 8.609126e-04  -1.328230e-02  0 
 8.440009e-04  -1.391340e-02  0 
 1.461690e-03  -1.453057e-02  0 
 2.093216e-03  -1.454030e-02  0 
 -7.360318e-04  -1.911100e-02  0 
 4.777231e-04  -1.650743e-02  0 
 9.729040e-04  -1.423383e-02  0 
 1.314404e-03  -1.360209e-02  0 
 1.801636e-03  -1.388281e-02  0 
 1.714587e-03  -1.313481e-02  0 
 1.317240e-03  -1.303863e-02  0 
 1.256464e-03  -1.410362e-02  0 
 2.292770e-03  -1.336975e-02  0 
 2.325087e-03  -1.405866e-02  0 
VECTORS displacement_ITER9 FLOAT
 8.180797e-04  -1.272302e-02  0 
 7.582592e-04  -1.469136e-02  0 
 -2.499696e-04  -1.267956e-02  0 
 1.418791e-03  -1.274919e-02  0 
 2.045388e-03  -1.272273e-02  0 
 7.865600e-04  -1.339631e-02  0 
 7.689087e-04  -1.404409e-02  0 
 1.402888e-03  -1.467782e-02  0 
 2.052399e-03  -1.468947e-02  0 
 -5.096622e-04  -1.866708e-02  0 
 1.420748e-04  -1.701232e-02  0 
 8.768152e-04  -1.438016e-02  0 
 1.252309e-03  -1.372433e-02  0 
 1.752326e-03  -1.401115e-02  0 
 1.662990e-03  -1.324608e-02  0 
 1.254912e-03  -1.314689e-02  0 
 1.192262e-03  -1.423914e-02  0 
 2.254531e-03  -1.348700e-02  0 
 2.291870e-03  -1.419157e-02  0 
CELL_DATA 25
TENSORS element_stresses FLOAT
 4.231071e-03  1.376791e-03  0 
 1.376791e-03  1.421006e-02  0 
 0  0  0 

 3.637586e-03  8.391640e-05  0 
 8.391640e-05  1.230180e-02  0 
 0  0  0 

 2.509013e-03  -8.205639e-05  0 
 -8.205639e-05  1.325131e-02  0 
 0  0  0 

 3.451885e-03  -4.661904e-03  0 
 -4.661904e-03  9.051561e-04  0 
 0  0  0 

 9.639154e-04  -2.480512e-03  0 
 -2.480512e-03  1.096006e-02  0 
 0  0  0 

 2.532545e-03  -1.915170e-03  0 
 -1.915170e-03  8.757013e-03  0 
 0  0  0 

 1.381313e-03  -4.114144e-03  0 
 -4.114144e-03  2.297379e-03  0 
 0  0  0 

 -3.858570e-02  -2.375699e-02  0 
 -2.375699e-02  4.789366e-02  0 
 0  0  0 

 2.070534e-03  -2.244547e-02  0 
 -2.244547e-02  7.999924e-02  0 
 0  0  0 

 -9.219648e-02  -1.029335e-01  0 
 -1.029335e-01  7.875474e-03  0 
 0  0  0 

 -3.050173e-02  -3.522714e-02  0 
 -3.522714e-02  5.842353e-02  0 
 0  0  0 

 -2.541092e-02  -6.819923e-02  0 
 -6.819923e-02  -8.612331e-02  0 
 0  0  0 

 4.586010e-03  -3.299540e-02  0 
 -3.299540e-02  -1.139354e-02  0 
 0  0  0 

 -4.836388e-02  -9.305988e-02  0 
 -9.305988e-02  -6.349939e-03  0 
 0  0  0 

 -3.027486e-03  -5.273067e-02  0 
 -5.273067e-02  1.846257e-02  0 
 0  0  0 

 8.144263e-03  -2.373202e-02  0 
 -2.373202e-02  -3.249586e-02  0 
 0  0  0 

 -1.925578e-02  -1.005545e-02  0 
 -1.005545e-02  4.230875e-02  0 
 0  0  0 

 -1.622248e-02  -1.169464e-02  0 
 -1.169464e-02  3.574319e-02  0 
 0  0  0 

 -1.713433e-02  -5.422334e-02  0 
 -5.422334e-02  2.326828e-02  0 
 0  0  0 

 -4.743300e-05  -3.555392e-02  0 
 -3.555392e-02  3.064544e-02  0 
 0  0  0 

 -2.784335e-02  -5.148689e-02  0 
 -5.148689e-02  1.789122e-02  0 
 0  0  0 

 -1.450112e-02  -1.960693e-02  0 
 -1.960693e-02  4.905380e-02  0 
 0  0  0 

 7.316550e-03  -2.547227e-02  0 
 -2.547227e-02  -4.978383e-02  0 
 0  0  0 

 1.990024e-04  -5.702313e-02  0 
 -5.702313e-02  2.729668e-02  0 
 0  0  0 

 4.375102e-02  -6.320854e-02  0 
 -6.320854e-02  -2.668013e-02  0 
 0  0  0 

TENSORS element_stresses FLOAT
 4.231071e-03  1.376791e-03  0 
 1.376791e-03  1.421006e-02  0 
 0  0  0 

 3.637586e-03  8.391640e-05  0 
 8.391640e-05  1.230180e-02  0 
 0  0  0 

 2.509013e-03  -8.205639e-05  0 
 -8.205639e-05  1.325131e-02  0 
 0  0  0 

 3.451885e-03  -4.661904e-03  0 
 -4.661904e-03  9.051561e-04  0 
 0  0  0 

 9.639154e-04  -2.480512e-03  0 
 -2.480512e-03  1.096006e-02  0 
 0  0  0 

 2.532545e-03  -1.915170e-03  0 
 -1.915170e-03  8.757013e-03  0 
 0  0  0 

 1.381313e-03  -4.114144e-03  0 
 -4.114144e-03  2.297379e-03  0 
 0  0  0 

 -3.858570e-02  -2.375699e-02  0 
 -2.375699e-02  4.789366e-02  0 
 0  0  0 

 2.070534e-03  -2.244547e-02  0 
 -2.244547e-02  7.999924e-02  0 
 0  0  0 

 -9.219648e-02  -1.029335e-01  0 
 -1.029335e-01  7.875474e-03  0 
 0  0  0 

 -3.050173e-02  -3.522714e-02  0 
 -3.522714e-02  5.842353e-02  0 
 0  0  0 

 -2.541092e-02  -6.819923e-02  0 
 -6.819923e-02  -8.612331e-02  0 
 0  0  0 

 4.586010e-03  -3.299540e-02  0 
 -3.299540e-02  -1.139354e-02  0 
 0  0  0 

 -4.836388e-02  -9.305988e-02  0 
 -9.305988e-02  -6.349939e-03  0 
 0  0  0 

 -3.027486e-03  -5.273067e-02  0 
 -5.273067e-02  1.846257e-02  0 
 0  0  0 

 8.144263e-03  -2.373202e-02  0 
 -2.373202e-02  -3.249586e-02  0 
 0  0  0 

 -1.925578e-02  -1.005545e-02  0 
 -1.005545e-02  4.230875e-02  0 
 0  0  0 

 -1.622248e-02  -1.169464e-02  0 
 -1.169464e-02  3.574319e-02  0 
 0  0  0 

 -1.713433e-02  -5.422334e-02  0 
 -5.422334e-02  2.326828e-02  0 
 0  0  0 

 -4.743300e-05  -3.555392e-02  0 
 -3.555392e-02  3.064544e-02  0 
 0  0  0 

 -2.784335e-02  -5.148689e-02  0 
 -5.148689e-02  1.789122e-02  0 
 0  0  0 

 -1.450112e-02  -1.960693e-02  0 
 -1.960693e-02  4.905380e-02  0 
 0  0  0 

 7.316550e-03  -2.547227e-02  0 
 -2.547227e-02  -4.978383e-02  0 
 0  0  0 

 1.990024e-04  -5.702313e-02  0 
 -5.702313e-02  2.729668e-02  0 
 0  0  0 

 4.375102e-02  -6.320854e-02  0 
 -6.320854e-02  -2.668013e-02  0 
 0  0  0 

