# vtk DataFile Version 3.1
this is an vtk file created by FEMAC
ASCII
DATASET UNSTRUCTURED_GRID
POINTS 20 FLOAT
4.000000 2.000000 0.000000
4.000000 1.666667 0.000000
4.000000 2.333333 0.000000
4.000000 2.666667 0.000000
4.333333 2.000000 0.000000
4.666667 2.000000 0.000000
5.000000 1.666667 0.000000
3.783162 2.605840 0.000000
3.793124 2.255841 0.000000
4.285974 1.523802 0.000000
4.690581 1.518186 0.000000
4.496093 1.784776 0.000000
4.770668 1.793926 0.000000
4.223080 1.795049 0.000000
4.509726 2.248421 0.000000
4.659969 2.515789 0.000000
4.265821 2.466342 0.000000
4.214111 2.242347 0.000000
4.772591 2.221251 0.000000
4.394160 2.783162 0.000000
CELLS 25 100 
3 2 8 0
3 3 7 2
3 8 2 7
3 11  9 10
3 11  5  4
3 6 12 10
3 1 13  0
3 13  4  0
3 13  1  9
3 13 11  4
3 9 11 13
3 11 12  5
3 11 10 12
3 4  5 14
3 2 16  3
3 4 17  0
3 17  4 14
3 17  2  0
3 17 16  2
3 14 16 17
3 16 14 15
3 19  3 16
3 14 18 15
3 18 14  5
3 15 19 16
CELL_TYPES 25
5 5 5 5 5 5 5 5 5 5 5 5 5 5 5 5 5 5 5 5 5 5 5 5 5 
POINT_DATA 20
VECTORS displacement_ITER1 FLOAT
 1.624253e-01  -2.578906e-01  0 
 1.381728e-01  -1.958589e-01  0 
 1.521159e-01  -2.580257e-01  0 
 1.418214e-01  -2.580359e-01  0 
 1.623667e-01  -2.477962e-01  0 
 1.623182e-01  -2.376839e-01  0 
 5.613185e-02  -5.356870e-01  0 
 1.435206e-01  -2.658711e-01  0 
 1.545945e-01  -2.653243e-01  0 
 1.013890e-01  -2.459666e-01  0 
 4.317647e-02  -3.560382e-01  0 
 1.557372e-01  -2.608801e-01  0 
 1.357024e-01  -3.457747e-01  0 
 1.597426e-01  -2.388713e-01  0 
 1.547394e-01  -2.423865e-01  0 
 1.464647e-01  -2.377264e-01  0 
 1.480191e-01  -2.498453e-01  0 
 1.549498e-01  -2.514125e-01  0 
 1.555261e-01  -2.343611e-01  0 
 1.381951e-01  -2.458710e-01  0 
VECTORS displacement_ITER2 FLOAT
 1.457066e-02  -7.817866e-02  0 
 3.510548e-02  -5.775245e-02  0 
 1.852673e-02  -7.810624e-02  0 
 2.263397e-02  -7.798640e-02  0 
 1.442133e-02  -8.227963e-02  0 
 1.431666e-02  -8.646810e-02  0 
 2.792549e-02  -1.393172e-01  0 
 2.176583e-02  -7.648650e-02  0 
 1.774867e-02  -7.654034e-02  0 
 1.728498e-02  -8.487176e-02  0 
 1.211446e-02  -9.751666e-02  0 
 2.472681e-02  -8.751405e-02  0 
 2.735224e-02  -1.032475e-01  0 
 2.852792e-02  -7.501858e-02  0 
 1.742625e-02  -8.442187e-02  0 
 2.072236e-02  -8.627909e-02  0 
 2.013431e-02  -8.133628e-02  0 
 1.740717e-02  -8.072718e-02  0 
 1.703939e-02  -8.777084e-02  0 
 2.405298e-02  -8.288671e-02  0 
VECTORS displacement_ITER3 FLOAT
 -8.973519e-04  -1.773490e-02  0 
 5.344137e-03  -2.554660e-03  0 
 -2.175228e-04  -1.780372e-02  0 
 5.491447e-04  -1.782227e-02  0 
 -9.591154e-04  -1.856293e-02  0 
 -1.008131e-03  -1.933942e-02  0 
 6.092140e-03  -2.472099e-02  0 
 3.344314e-04  -1.812712e-02  0 
 -1.548558e-04  -1.805290e-02  0 
 -3.801263e-04  -1.949824e-02  0 
 1.769147e-03  -2.257060e-02  0 
 2.973380e-03  -2.142095e-02  0 
 2.935391e-03  -2.331895e-02  0 
 5.144236e-03  -1.553843e-02  0 
 -4.110480e-04  -1.895308e-02  0 
 1.443552e-04  -1.925447e-02  0 
 8.727313e-05  -1.839912e-02  0 
 -3.990890e-04  -1.825993e-02  0 
 -5.048932e-04  -1.957809e-02  0 
 6.190893e-04  -1.856382e-02  0 
VECTORS displacement_ITER4 FLOAT
 4.365956e-04  -1.132085e-02  0 
 4.322484e-04  -1.251963e-02  0 
 6.117455e-04  -1.148038e-02  0 
 8.522069e-04  -1.148070e-02  0 
 3.641772e-04  -1.176042e-02  0 
 3.346510e-04  -1.210510e-02  0 
 -6.707665e-04  -1.441506e-02  0 
 3.047409e-04  -1.288364e-02  0 
 3.721233e-04  -1.215733e-02  0 
 -6.975413e-04  -1.602812e-02  0 
 -1.098922e-03  -1.771927e-02  0 
 -3.015743e-04  -1.522398e-02  0 
 -1.538213e-03  -1.644953e-02  0 
 5.014525e-04  -1.371968e-02  0 
 5.633094e-04  -1.190956e-02  0 
 7.129783e-04  -1.199579e-02  0 
 7.129304e-04  -1.169326e-02  0 
 5.865222e-04  -1.161284e-02  0 
 5.038728e-04  -1.216121e-02  0 
 7.287870e-04  -1.169190e-02  0 
VECTORS displacement_ITER5 FLOAT
 -7.453561e-04  -1.088196e-02  0 
 -1.151344e-03  -9.816981e-03  0 
 -4.707573e-04  -1.098595e-02  0 
 -7.964763e-05  -1.093539e-02  0 
 -8.297658e-04  -1.139809e-02  0 
 -8.383140e-04  -1.179871e-02  0 
 -1.461392e-03  -1.185673e-02  0 
 -4.893275e-04  -1.166341e-02  0 
 -1.661143e-04  -1.192340e-02  0 
 -2.179723e-03  -1.497398e-02  0 
 -1.747355e-03  -1.671903e-02  0 
 -1.374262e-03  -1.473506e-02  0 
 -2.641915e-03  -1.538518e-02  0 
 -4.923162e-04  -1.280869e-02  0 
 -5.685379e-04  -1.160650e-02  0 
 -3.308571e-04  -1.178309e-02  0 
 -3.319963e-04  -1.128476e-02  0 
 -5.388821e-04  -1.120345e-02  0 
 -6.103429e-04  -1.191615e-02  0 
 -1.283218e-04  -1.132376e-02  0 
VECTORS displacement_ITER6 FLOAT
 -1.578077e-03  -9.228845e-03  0 
 -1.530152e-03  -9.069617e-03  0 
 -9.068098e-04  -9.364884e-03  0 
 -1.691693e-04  -9.361436e-03  0 
 -1.680929e-03  -1.016661e-02  0 
 -1.742809e-03  -1.103088e-02  0 
 -1.751385e-03  -1.265585e-02  0 
 -8.441014e-04  -1.117367e-02  0 
 -7.907097e-04  -1.030696e-02  0 
 -2.879833e-03  -1.389772e-02  0 
 -2.691739e-03  -1.563153e-02  0 
 -2.067854e-03  -1.362949e-02  0 
 -2.901771e-03  -1.459573e-02  0 
 -1.255997e-03  -1.156448e-02  0 
 -1.092254e-03  -1.058419e-02  0 
 -5.022154e-04  -1.094209e-02  0 
 -6.041656e-04  -9.977483e-03  0 
 -1.075157e-03  -9.822599e-03  0 
 -1.179530e-03  -1.129040e-02  0 
 6.620363e-05  -1.028007e-02  0 
VECTORS displacement_ITER7 FLOAT
 -1.819630e-03  -8.486282e-03  0 
 -1.764254e-03  -8.298440e-03  0 
 -1.117646e-03  -8.632660e-03  0 
 -3.838822e-04  -8.657064e-03  0 
 -1.930677e-03  -9.462662e-03  0 
 -2.009428e-03  -1.038062e-02  0 
 -2.626890e-03  -1.174380e-02  0 
 -8.607483e-04  -1.032330e-02  0 
 -1.033442e-03  -9.630341e-03  0 
 -3.022558e-03  -1.316857e-02  0 
 -3.064923e-03  -1.488531e-02  0 
 -2.357639e-03  -1.282190e-02  0 
 -3.241165e-03  -1.350533e-02  0 
 -1.509884e-03  -1.083358e-02  0 
 -1.309704e-03  -9.896174e-03  0 
 -6.921195e-04  -1.027208e-02  0 
 -8.030982e-04  -9.258891e-03  0 
 -1.292247e-03  -9.102070e-03  0 
 -1.399870e-03  -1.064239e-02  0 
 -1.229592e-04  -9.564821e-03  0 
VECTORS displacement_ITER8 FLOAT
 -2.073701e-03  -9.038158e-03  0 
 -2.437266e-03  -8.909019e-03  0 
 -1.165716e-03  -9.188112e-03  0 
 -2.118482e-04  -9.201241e-03  0 
 -2.179797e-03  -1.022134e-02  0 
 -2.249823e-03  -1.133214e-02  0 
 -2.783370e-03  -1.296315e-02  0 
 -6.022272e-04  -1.096630e-02  0 
 -1.038326e-03  -1.032933e-02  0 
 -2.964229e-03  -1.357477e-02  0 
 -3.206172e-03  -1.548847e-02  0 
 -2.503412e-03  -1.343443e-02  0 
 -3.171254e-03  -1.409180e-02  0 
 -1.892449e-03  -1.158833e-02  0 
 -1.406301e-03  -1.076666e-02  0 
 -6.369188e-04  -1.123352e-02  0 
 -7.697596e-04  -9.982671e-03  0 
 -1.395109e-03  -9.790967e-03  0 
 -1.506068e-03  -1.166510e-02  0 
 1.157021e-04  -1.036731e-02  0 
VECTORS displacement_ITER9 FLOAT
 -2.259363e-03  -9.186745e-03  0 
 -2.656442e-03  -8.994511e-03  0 
 -1.273365e-03  -9.334842e-03  0 
 -2.423126e-04  -9.346731e-03  0 
 -2.366511e-03  -1.044590e-02  0 
 -2.440333e-03  -1.164091e-02  0 
 -3.057218e-03  -1.332547e-02  0 
 -7.055747e-04  -1.106209e-02  0 
 -1.144541e-03  -1.053909e-02  0 
 -2.769580e-03  -1.329414e-02  0 
 -3.146959e-03  -1.516270e-02  0 
 -2.565149e-03  -1.338037e-02  0 
 -3.102111e-03  -1.389227e-02  0 
 -2.075489e-03  -1.169042e-02  0 
 -1.532926e-03  -1.103227e-02  0 
 -7.021730e-04  -1.152814e-02  0 
 -8.464453e-04  -1.019172e-02  0 
 -1.524196e-03  -9.987683e-03  0 
 -1.641488e-03  -1.199985e-02  0 
 1.039884e-04  -1.060270e-02  0 
CELL_DATA 25
TENSORS element_stresses FLOAT
 -2.048366e-03  6.881150e-03  0 
 6.881150e-03  -1.058799e-03  0 
 0  0  0 

 1.382474e-03  8.472271e-03  0 
 8.472271e-03  3.790746e-04  0 
 0  0  0 

 -1.621285e-03  5.797645e-03  0 
 5.797645e-03  -1.800998e-03  0 
 0  0  0 

 1.027266e-04  -2.349515e-03  0 
 -2.349515e-03  3.381234e-03  0 
 0  0  0 

 3.357734e-03  -2.176601e-03  0 
 -2.176601e-03  1.193067e-02  0 
 0  0  0 

 1.374956e-03  3.401066e-03  0 
 3.401066e-03  3.762147e-03  0 
 0  0  0 

 1.918319e-03  -8.124484e-03  0 
 -8.124484e-03  -1.206807e-06  0 
 0  0  0 

 2.318539e-03  -3.865001e-03  0 
 -3.865001e-03  8.799938e-03  0 
 0  0  0 

 2.001752e-03  -8.364443e-03  0 
 -8.364443e-03  3.344591e-03  0 
 0  0  0 

 1.048750e-03  -4.837929e-03  0 
 -4.837929e-03  9.530270e-03  0 
 0  0  0 

 -3.925722e-04  -2.967814e-03  0 
 -2.967814e-03  4.398745e-03  0 
 0  0  0 

 1.007881e-03  -3.011458e-06  0 
 -3.011458e-06  1.012130e-02  0 
 0  0  0 

 -4.620282e-04  -9.998454e-04  0 
 -9.998454e-04  5.060556e-03  0 
 0  0  0 

 -1.823251e-01  -5.557518e-02  0 
 -5.557518e-02  1.304703e-01  0 
 0  0  0 

 5.233604e-02  -8.654737e-02  0 
 -8.654737e-02  -1.996672e-02  0 
 0  0  0 

 -3.425448e-01  -3.537977e-01  0 
 -3.537977e-01  -7.034155e-02  0 
 0  0  0 

 -6.008741e-02  -8.478450e-02  0 
 -8.478450e-02  1.328316e-01  0 
 0  0  0 

 -5.250690e-02  -2.153023e-01  0 
 -2.153023e-01  -4.600410e-01  0 
 0  0  0 

 5.223119e-02  -9.806259e-02  0 
 -9.806259e-02  -1.728408e-01  0 
 0  0  0 

 -1.327687e-01  -3.728019e-01  0 
 -3.728019e-01  -1.354309e-01  0 
 0  0  0 

 -1.011935e-02  -2.122984e-01  0 
 -2.122984e-01  5.150973e-02  0 
 0  0  0 

 -1.245918e-02  -1.389748e-01  0 
 -1.389748e-01  -1.103601e-02  0 
 0  0  0 

 -2.877305e-02  -3.877620e-01  0 
 -3.877620e-01  1.934268e-01  0 
 0  0  0 

 2.266979e-03  -2.952194e-02  0 
 -2.952194e-02  1.339935e-01  0 
 0  0  0 

 1.455541e-02  -3.049408e-01  0 
 -3.049408e-01  8.475074e-02  0 
 0  0  0 

TENSORS element_stresses FLOAT
 -2.048366e-03  6.881150e-03  0 
 6.881150e-03  -1.058799e-03  0 
 0  0  0 

 1.382474e-03  8.472271e-03  0 
 8.472271e-03  3.790746e-04  0 
 0  0  0 

 -1.621285e-03  5.797645e-03  0 
 5.797645e-03  -1.800998e-03  0 
 0  0  0 

 1.027266e-04  -2.349515e-03  0 
 -2.349515e-03  3.381234e-03  0 
 0  0  0 

 3.357734e-03  -2.176601e-03  0 
 -2.176601e-03  1.193067e-02  0 
 0  0  0 

 1.374956e-03  3.401066e-03  0 
 3.401066e-03  3.762147e-03  0 
 0  0  0 

 1.918319e-03  -8.124484e-03  0 
 -8.124484e-03  -1.206807e-06  0 
 0  0  0 

 2.318539e-03  -3.865001e-03  0 
 -3.865001e-03  8.799938e-03  0 
 0  0  0 

 2.001752e-03  -8.364443e-03  0 
 -8.364443e-03  3.344591e-03  0 
 0  0  0 

 1.048750e-03  -4.837929e-03  0 
 -4.837929e-03  9.530270e-03  0 
 0  0  0 

 -3.925722e-04  -2.967814e-03  0 
 -2.967814e-03  4.398745e-03  0 
 0  0  0 

 1.007881e-03  -3.011458e-06  0 
 -3.011458e-06  1.012130e-02  0 
 0  0  0 

 -4.620282e-04  -9.998454e-04  0 
 -9.998454e-04  5.060556e-03  0 
 0  0  0 

 -1.823251e-01  -5.557518e-02  0 
 -5.557518e-02  1.304703e-01  0 
 0  0  0 

 5.233604e-02  -8.654737e-02  0 
 -8.654737e-02  -1.996672e-02  0 
 0  0  0 

 -3.425448e-01  -3.537977e-01  0 
 -3.537977e-01  -7.034155e-02  0 
 0  0  0 

 -6.008741e-02  -8.478450e-02  0 
 -8.478450e-02  1.328316e-01  0 
 0  0  0 

 -5.250690e-02  -2.153023e-01  0 
 -2.153023e-01  -4.600410e-01  0 
 0  0  0 

 5.223119e-02  -9.806259e-02  0 
 -9.806259e-02  -1.728408e-01  0 
 0  0  0 

 -1.327687e-01  -3.728019e-01  0 
 -3.728019e-01  -1.354309e-01  0 
 0  0  0 

 -1.011935e-02  -2.122984e-01  0 
 -2.122984e-01  5.150973e-02  0 
 0  0  0 

 -1.245918e-02  -1.389748e-01  0 
 -1.389748e-01  -1.103601e-02  0 
 0  0  0 

 -2.877305e-02  -3.877620e-01  0 
 -3.877620e-01  1.934268e-01  0 
 0  0  0 

 2.266979e-03  -2.952194e-02  0 
 -2.952194e-02  1.339935e-01  0 
 0  0  0 

 1.455541e-02  -3.049408e-01  0 
 -3.049408e-01  8.475074e-02  0 
 0  0  0 

