# vtk DataFile Version 3.1
this is an vtk file created by FEMAC
ASCII
DATASET UNSTRUCTURED_GRID
POINTS 20 FLOAT
0.000000 4.000000 0.000000
1.000000 4.000000 0.000000
1.000000 5.000000 0.000000
0.333333 4.000000 0.000000
0.666667 4.000000 0.000000
0.000000 4.333333 0.000000
1.000000 4.333333 0.000000
1.000000 4.666667 0.000000
1.333333 5.000000 0.000000
0.775322 4.793598 0.000000
0.488340 4.204422 0.000000
0.478822 4.750065 0.000000
0.696366 4.462917 0.000000
0.783178 4.200855 0.000000
0.291353 4.475976 0.000000
0.222605 4.202746 0.000000
1.353540 4.484358 0.000000
1.232308 4.217759 0.000000
1.514832 4.788257 0.000000
1.240341 4.787856 0.000000
CELLS 25 100 
3 9 7 2
3 9 12  7
3 12  6  7
3 9 11 12
3 4 10  3
3 13  4  1
3 6 13  1
3 13  6 12
3 13 10  4
3 13 12 10
3 12 11 14
3 12 14 10
3 3 15  0
3 5 15 14
3 15  5  0
3 10 15  3
3 10 14 15
3 17  6  1
3 16  7  6
3 17 16  6
3 7 19  2
3 19  8  2
3 19  7 16
3 19 18  8
3 16 18 19
CELL_TYPES 25
5 5 5 5 5 5 5 5 5 5 5 5 5 5 5 5 5 5 5 5 5 5 5 5 5 
POINT_DATA 20
VECTORS displacement_ITER1 FLOAT
 0  0  0 
 -1.523651e-03  -7.806855e-03  0 
 8.666103e-03  -9.104742e-03  0 
 -1.225736e-03  -1.742995e-03  0 
 -1.586834e-03  -4.694195e-03  0 
 0  0  0 
 1.276552e-03  -7.814360e-03  0 
 4.308781e-03  -8.264134e-03  0 
 1.530115e-01  -2.431323e-01  0 
 5.582107e-03  -5.920804e-03  0 
 1.387483e-04  -2.978353e-03  0 
 4.947306e-03  -3.314602e-03  0 
 2.307612e-03  -5.081558e-03  0 
 1.457515e-04  -5.812371e-03  0 
 2.086257e-03  -1.585177e-03  0 
 2.011322e-05  -5.862640e-04  0 
 -6.545046e-03  -4.851980e-02  0 
 -2.310141e-03  -2.511561e-02  0 
 7.509590e-02  -1.909507e-01  0 
 2.212103e-02  -7.594161e-02  0 
VECTORS displacement_ITER2 FLOAT
 0  0  0 
 4.749500e-05  -2.675638e-03  0 
 2.094068e-03  -2.640214e-03  0 
 -3.095006e-04  -6.223187e-04  0 
 -2.234577e-04  -1.613720e-03  0 
 0  0  0 
 4.820838e-04  -2.404735e-03  0 
 1.048463e-03  -2.328479e-03  0 
 1.249323e-02  -8.962537e-02  0 
 1.336329e-03  -1.740745e-03  0 
 2.171843e-04  -1.166452e-03  0 
 1.328202e-03  -1.275934e-03  0 
 7.707781e-04  -1.759849e-03  0 
 3.120839e-04  -2.038019e-03  0 
 7.240717e-04  -7.979909e-04  0 
 5.215267e-05  -3.007850e-04  0 
 -2.074901e-04  -2.336501e-02  0 
 -8.842389e-04  -1.109402e-02  0 
 1.658064e-02  -5.742995e-02  0 
 4.507695e-04  -3.810877e-02  0 
VECTORS displacement_ITER3 FLOAT
 0  0  0 
 -3.994812e-05  -4.162607e-03  0 
 3.231810e-03  -3.921187e-03  0 
 -4.907938e-04  -9.505467e-04  0 
 -4.047508e-04  -2.478843e-03  0 
 0  0  0 
 7.922053e-04  -3.812345e-03  0 
 1.882971e-03  -3.781119e-03  0 
 1.401128e-02  -9.121718e-03  0 
 2.287798e-03  -3.030854e-03  0 
 3.137654e-04  -1.766685e-03  0 
 2.092604e-03  -2.057966e-03  0 
 1.243037e-03  -2.751058e-03  0 
 4.586854e-04  -3.150099e-03  0 
 1.111922e-03  -1.213689e-03  0 
 7.280594e-05  -4.520854e-04  0 
 6.434780e-04  -8.210749e-03  0 
 2.712513e-04  -6.667103e-03  0 
 5.757760e-03  -1.464859e-02  0 
 4.555860e-03  -5.887570e-03  0 
VECTORS displacement_ITER4 FLOAT
 0  0  0 
 5.821700e-04  -1.278032e-03  0 
 1.996478e-03  -2.050253e-03  0 
 -8.355670e-05  -3.154312e-04  0 
 1.071345e-04  -7.803248e-04  0 
 0  0  0 
 2.289648e-04  -1.114155e-03  0 
 5.122200e-04  -1.360508e-03  0 
 2.332466e-03  -5.464577e-03  0 
 7.081242e-04  -9.441601e-04  0 
 1.858666e-04  -6.441242e-04  0 
 4.155041e-04  -5.374001e-04  0 
 2.843633e-04  -8.443817e-04  0 
 3.073918e-04  -1.077353e-03  0 
 2.999678e-04  -4.283017e-04  0 
 5.306778e-05  -1.872331e-04  0 
 5.928558e-04  -5.962629e-03  0 
 1.857103e-04  -3.513506e-03  0 
 2.057275e-03  -7.808427e-03  0 
 1.733584e-03  -5.317391e-03  0 
VECTORS displacement_ITER5 FLOAT
 0  0  0 
 6.783038e-04  -1.215734e-03  0 
 1.494219e-03  -1.758852e-03  0 
 -6.139267e-05  -3.216928e-04  0 
 1.666755e-04  -7.571052e-04  0 
 0  0  0 
 2.431980e-04  -1.033424e-03  0 
 4.247161e-04  -1.212665e-03  0 
 1.969781e-03  -4.357675e-03  0 
 5.448180e-04  -9.367130e-04  0 
 2.075183e-04  -6.586796e-04  0 
 3.152021e-04  -6.258443e-04  0 
 2.801182e-04  -8.532432e-04  0 
 3.509667e-04  -1.057375e-03  0 
 2.733442e-04  -4.826298e-04  0 
 5.654550e-05  -2.120060e-04  0 
 6.590795e-04  -5.688458e-03  0 
 3.820293e-04  -3.288701e-03  0 
 1.799102e-03  -7.058777e-03  0 
 1.566872e-03  -4.722443e-03  0 
VECTORS displacement_ITER6 FLOAT
 0  0  0 
 5.326720e-04  -1.298384e-03  0 
 1.423455e-03  -1.812374e-03  0 
 -9.444162e-05  -2.931662e-04  0 
 5.303011e-05  -7.142122e-04  0 
 0  0  0 
 1.701392e-04  -1.041509e-03  0 
 4.122908e-04  -1.231503e-03  0 
 2.047615e-03  -3.644430e-03  0 
 5.473492e-04  -9.122157e-04  0 
 1.292685e-04  -5.658878e-04  0 
 3.514851e-04  -5.048570e-04  0 
 2.174218e-04  -8.103734e-04  0 
 2.703039e-04  -1.033292e-03  0 
 1.808792e-04  -3.158357e-04  0 
 3.619503e-05  -1.641173e-04  0 
 3.752214e-04  -5.803774e-03  0 
 3.169669e-04  -3.222541e-03  0 
 1.399610e-03  -6.880535e-03  0 
 1.492876e-03  -4.432513e-03  0 
VECTORS displacement_ITER7 FLOAT
 0  0  0 
 5.241308e-04  -1.212766e-03  0 
 1.388229e-03  -1.728250e-03  0 
 -9.052599e-05  -2.572102e-04  0 
 3.536184e-05  -6.347615e-04  0 
 0  0  0 
 1.460787e-04  -9.697048e-04  0 
 3.937912e-04  -1.181989e-03  0 
 1.941062e-03  -3.521413e-03  0 
 5.337596e-04  -8.653983e-04  0 
 9.683170e-05  -4.889652e-04  0 
 3.494625e-04  -4.442268e-04  0 
 1.824957e-04  -7.518225e-04  0 
 2.466280e-04  -9.604402e-04  0 
 1.181714e-04  -2.167073e-04  0 
 2.917693e-05  -1.338055e-04  0 
 6.095036e-04  -5.760940e-03  0 
 2.162381e-04  -3.186182e-03  0 
 1.563484e-03  -6.236599e-03  0 
 1.546563e-03  -4.350924e-03  0 
VECTORS displacement_ITER8 FLOAT
 0  0  0 
 5.075772e-04  -1.204701e-03  0 
 1.391922e-03  -1.724101e-03  0 
 -9.082728e-05  -2.461271e-04  0 
 2.225047e-05  -6.146309e-04  0 
 0  0  0 
 1.394227e-04  -9.591187e-04  0 
 3.962121e-04  -1.176880e-03  0 
 1.899004e-03  -3.452476e-03  0 
 5.378296e-04  -8.567884e-04  0 
 8.589109e-05  -4.633977e-04  0 
 3.374316e-04  -4.484371e-04  0 
 1.761716e-04  -7.353537e-04  0 
 2.367724e-04  -9.433485e-04  0 
 9.586000e-05  -1.877836e-04  0 
 2.627019e-05  -1.247964e-04  0 
 9.585764e-04  -5.815632e-03  0 
 1.875787e-04  -3.340060e-03  0 
 1.951964e-03  -6.273699e-03  0 
 1.721404e-03  -4.430319e-03  0 
VECTORS displacement_ITER9 FLOAT
 0  0  0 
 5.087024e-04  -1.197886e-03  0 
 1.390343e-03  -1.725209e-03  0 
 -9.040599e-05  -2.453381e-04  0 
 2.283244e-05  -6.119946e-04  0 
 0  0  0 
 1.390796e-04  -9.562602e-04  0 
 3.967840e-04  -1.176839e-03  0 
 1.930674e-03  -3.491701e-03  0 
 5.379465e-04  -8.573817e-04  0 
 8.523639e-05  -4.616752e-04  0 
 3.359904e-04  -4.472668e-04  0 
 1.749554e-04  -7.333140e-04  0 
 2.360660e-04  -9.401823e-04  0 
 9.443356e-05  -1.862478e-04  0 
 2.610425e-05  -1.243748e-04  0 
 1.025560e-03  -5.887792e-03  0 
 1.584506e-04  -3.430698e-03  0 
 1.914534e-03  -6.178415e-03  0 
 1.716742e-03  -4.446431e-03  0 
CELL_DATA 25
TENSORS element_stresses FLOAT
 6.177054e-01  4.841737e-01  0 
 4.841737e-01  -1.459797e+00  0 
 0  0  0 

 -1.825101e-02  -2.616914e-01  0 
 -2.616914e-01  -3.693129e-02  0 
 0  0  0 

 1.458271e-02  -1.873548e-01  0 
 -1.873548e-01  -6.573627e-01  0 
 0  0  0 

 5.767956e-01  -3.133097e-01  0 
 -3.133097e-01  1.264763e-01  0 
 0  0  0 

 2.993973e-01  -3.833476e-01  0 
 -3.833476e-01  -1.343933e-01  0 
 0  0  0 

 1.399229e+00  -1.185822e+00  0 
 -1.185822e+00  -1.946014e-01  0 
 0  0  0 

 4.919484e-01  -1.250708e+00  0 
 -1.250708e+00  8.724635e-01  0 
 0  0  0 

 -6.889292e-02  -5.999758e-01  0 
 -5.999758e-01  6.154122e-01  0 
 0  0  0 

 3.455514e-01  -6.705574e-01  0 
 -6.705574e-01  -5.840269e-01  0 
 0  0  0 

 6.446464e-01  -1.295292e+00  0 
 -1.295292e+00  4.461711e-01  0 
 0  0  0 

 2.351365e-01  -4.787620e-01  0 
 -4.787620e-01  4.270258e-02  0 
 0  0  0 

 2.365592e-01  -8.978812e-01  0 
 -8.978812e-01  1.062223e-01  0 
 0  0  0 

 -2.338691e-01  -2.380592e-01  0 
 -2.380592e-01  1.244962e-01  0 
 0  0  0 

 2.281016e-01  -3.157024e-01  0 
 -3.157024e-01  -6.394488e-03  0 
 0  0  0 

 1.288648e-01  -4.297869e-01  0 
 -4.297869e-01  3.865943e-02  0 
 0  0  0 

 2.079856e-01  -4.422345e-01  0 
 -4.422345e-01  -3.387074e-02  0 
 0  0  0 

 2.738660e-01  -8.273068e-01  0 
 -8.273068e-01  1.752308e-01  0 
 0  0  0 

 -2.756231e-04  -8.769055e-03  0 
 -8.769055e-03  6.421920e-04  0 
 0  0  0 

 2.174356e-03  -9.917867e-03  0 
 -9.917867e-03  -9.430674e-06  0 
 0  0  0 

 3.491965e-04  -7.541665e-03  0 
 -7.541665e-03  -3.461316e-03  0 
 0  0  0 

 3.841222e-03  -7.533668e-03  0 
 -7.533668e-03  -4.927415e-04  0 
 0  0  0 

 4.030787e-03  -3.847389e-03  0 
 -3.847389e-03  8.032640e-03  0 
 0  0  0 

 3.927518e-03  -7.557753e-03  0 
 -7.557753e-03  9.048281e-04  0 
 0  0  0 

 3.187743e-03  -4.328784e-03  0 
 -4.328784e-03  8.227259e-03  0 
 0  0  0 

 1.577128e-03  -2.898884e-03  0 
 -2.898884e-03  2.867559e-03  0 
 0  0  0 

TENSORS element_stresses FLOAT
 6.177054e-01  4.841737e-01  0 
 4.841737e-01  -1.459797e+00  0 
 0  0  0 

 -1.825101e-02  -2.616914e-01  0 
 -2.616914e-01  -3.693129e-02  0 
 0  0  0 

 1.458271e-02  -1.873548e-01  0 
 -1.873548e-01  -6.573627e-01  0 
 0  0  0 

 5.767956e-01  -3.133097e-01  0 
 -3.133097e-01  1.264763e-01  0 
 0  0  0 

 2.993973e-01  -3.833476e-01  0 
 -3.833476e-01  -1.343933e-01  0 
 0  0  0 

 1.399229e+00  -1.185822e+00  0 
 -1.185822e+00  -1.946014e-01  0 
 0  0  0 

 4.919484e-01  -1.250708e+00  0 
 -1.250708e+00  8.724635e-01  0 
 0  0  0 

 -6.889292e-02  -5.999758e-01  0 
 -5.999758e-01  6.154122e-01  0 
 0  0  0 

 3.455514e-01  -6.705574e-01  0 
 -6.705574e-01  -5.840269e-01  0 
 0  0  0 

 6.446464e-01  -1.295292e+00  0 
 -1.295292e+00  4.461711e-01  0 
 0  0  0 

 2.351365e-01  -4.787620e-01  0 
 -4.787620e-01  4.270258e-02  0 
 0  0  0 

 2.365592e-01  -8.978812e-01  0 
 -8.978812e-01  1.062223e-01  0 
 0  0  0 

 -2.338691e-01  -2.380592e-01  0 
 -2.380592e-01  1.244962e-01  0 
 0  0  0 

 2.281016e-01  -3.157024e-01  0 
 -3.157024e-01  -6.394488e-03  0 
 0  0  0 

 1.288648e-01  -4.297869e-01  0 
 -4.297869e-01  3.865943e-02  0 
 0  0  0 

 2.079856e-01  -4.422345e-01  0 
 -4.422345e-01  -3.387074e-02  0 
 0  0  0 

 2.738660e-01  -8.273068e-01  0 
 -8.273068e-01  1.752308e-01  0 
 0  0  0 

 -2.756231e-04  -8.769055e-03  0 
 -8.769055e-03  6.421920e-04  0 
 0  0  0 

 2.174356e-03  -9.917867e-03  0 
 -9.917867e-03  -9.430674e-06  0 
 0  0  0 

 3.491965e-04  -7.541665e-03  0 
 -7.541665e-03  -3.461316e-03  0 
 0  0  0 

 3.841222e-03  -7.533668e-03  0 
 -7.533668e-03  -4.927415e-04  0 
 0  0  0 

 4.030787e-03  -3.847389e-03  0 
 -3.847389e-03  8.032640e-03  0 
 0  0  0 

 3.927518e-03  -7.557753e-03  0 
 -7.557753e-03  9.048281e-04  0 
 0  0  0 

 3.187743e-03  -4.328784e-03  0 
 -4.328784e-03  8.227259e-03  0 
 0  0  0 

 1.577128e-03  -2.898884e-03  0 
 -2.898884e-03  2.867559e-03  0 
 0  0  0 

