# vtk DataFile Version 3.1
this is an vtk file created by FEMAC
ASCII
DATASET UNSTRUCTURED_GRID
POINTS 32 FLOAT
0.000000 5.000000 0.000000
0.000000 6.000000 0.000000
0.250000 5.000000 0.000000
0.500000 5.000000 0.000000
0.750000 5.000000 0.000000
0.000000 4.500000 0.000000
0.000000 4.750000 0.000000
0.250000 6.000000 0.000000
0.500000 6.000000 0.000000
0.750000 6.000000 0.000000
0.000000 5.250000 0.000000
0.000000 5.500000 0.000000
0.000000 5.750000 0.000000
0.272476 4.537430 0.000000
0.660302 4.785301 0.000000
0.825957 4.628272 0.000000
0.594871 4.497465 0.000000
0.400442 4.782533 0.000000
0.847252 4.832715 0.000000
0.153820 4.761660 0.000000
0.272476 5.537430 0.000000
0.660302 5.785301 0.000000
0.660045 5.212404 0.000000
0.162952 5.171693 0.000000
0.825570 5.361866 0.000000
0.825957 5.628272 0.000000
0.594871 5.497465 0.000000
0.400442 5.782533 0.000000
0.372389 5.253823 0.000000
0.165804 5.339408 0.000000
0.847123 5.164854 0.000000
0.153820 5.761660 0.000000
CELLS 43 172 
3 3 14  4
3 17 14  3
3 16 17 13
3 16 14 17
3 2 17  3
3 16 15 14
3 18  4 14
3 14 15 18
3 19  2  0
3 6 19  0
3 5 19  6
3 17 19 13
3 19 17  2
3 5 13 19
3 8 21  9
3 22  3  4
3 2 23  0
3 23 10  0
3 26 22 24
3 27 21  8
3 22 28  3
3 26 27 20
3 26 21 27
3 28 26 20
3 22 26 28
3 28  2  3
3 23  2 28
3 7 27  8
3 26 25 21
3 24 25 26
3 23 29 10
3 4 30 22
3 29 28 20
3 23 28 29
3 24 22 30
3 29 11 10
3 11 29 20
3 31  7  1
3 12 31  1
3 11 31 12
3 27 31 20
3 31 27  7
3 11 20 31
CELL_TYPES 43
5 5 5 5 5 5 5 5 5 5 5 5 5 5 5 5 5 5 5 5 5 5 5 5 5 5 5 5 5 5 5 5 5 5 5 5 5 5 5 5 5 5 5 
POINT_DATA 32
VECTORS displacement_ITER1 FLOAT
 0  0  0 
 0  0  0 
 4.666835e-05  -3.197545e-05  0 
 9.419602e-05  -9.548067e-05  0 
 1.445378e-04  -2.187214e-04  0 
 0  0  0 
 0  0  0 
 3.795035e-02  -3.541003e-02  0 
 7.886639e-02  -6.542820e-02  0 
 1.298524e-01  -1.216575e-01  0 
 0  0  0 
 0  0  0 
 0  0  0 
 -2.547182e-05  -2.078599e-05  0 
 3.229707e-05  -1.351160e-04  0 
 -1.945268e-05  -1.929555e-04  0 
 -5.631696e-05  -1.072181e-04  0 
 2.044147e-05  -4.286534e-05  0 
 7.417202e-05  -2.344644e-04  0 
 4.276698e-06  4.486461e-06  0 
 1.188217e-02  -1.399511e-03  0 
 6.471744e-02  -5.711702e-02  0 
 1.508677e-02  -9.588791e-03  0 
 2.445852e-03  2.262404e-03  0 
 3.520188e-02  -3.363656e-02  0 
 6.434211e-02  -5.907019e-02  0 
 2.993203e-02  -2.017698e-02  0 
 3.594582e-02  -2.462352e-02  0 
 6.598881e-03  1.848617e-03  0 
 3.510875e-03  2.494043e-03  0 
 2.372394e-02  -2.392934e-02  0 
 9.094882e-03  -2.639674e-03  0 
VECTORS displacement_ITER2 FLOAT
 0  0  0 
 0  0  0 
 5.050751e-05  -3.407312e-05  0 
 1.024197e-04  -1.017755e-04  0 
 1.563608e-04  -2.326944e-04  0 
 0  0  0 
 0  0  0 
 3.469774e-02  -3.245171e-02  0 
 7.203830e-02  -5.945551e-02  0 
 1.184816e-01  -1.094814e-01  0 
 0  0  0 
 0  0  0 
 0  0  0 
 -2.862719e-05  -2.257824e-05  0 
 3.348427e-05  -1.460145e-04  0 
 -2.691093e-05  -2.146437e-04  0 
 -6.498209e-05  -1.186182e-04  0 
 2.183312e-05  -4.534855e-05  0 
 7.689725e-05  -2.546816e-04  0 
 4.538382e-06  5.368634e-06  0 
 1.117818e-02  -1.177573e-03  0 
 5.969919e-02  -5.142657e-02  0 
 1.446688e-02  -8.429729e-03  0 
 2.407189e-03  2.213926e-03  0 
 3.313060e-02  -3.006482e-02  0 
 5.961300e-02  -5.295150e-02  0 
 2.811126e-02  -1.797117e-02  0 
 3.318400e-02  -2.237250e-02  0 
 6.468192e-03  1.949531e-03  0 
 3.388737e-03  2.384033e-03  0 
 2.250803e-02  -2.148943e-02  0 
 8.416531e-03  -2.470348e-03  0 
VECTORS displacement_ITER3 FLOAT
 0  0  0 
 0  0  0 
 6.169285e-05  -4.263840e-05  0 
 1.253961e-04  -1.241842e-04  0 
 1.897431e-04  -2.781662e-04  0 
 0  0  0 
 0  0  0 
 2.973955e-02  -2.819250e-02  0 
 6.141318e-02  -5.120578e-02  0 
 1.004397e-01  -9.274339e-02  0 
 0  0  0 
 0  0  0 
 0  0  0 
 -3.645219e-05  -2.844931e-05  0 
 3.946135e-05  -1.790773e-04  0 
 -4.015536e-05  -2.711060e-04  0 
 -8.430199e-05  -1.492727e-04  0 
 2.647344e-05  -5.546459e-05  0 
 8.925747e-05  -3.119797e-04  0 
 5.346009e-06  6.594032e-06  0 
 9.874212e-03  -1.269803e-03  0 
 5.144292e-02  -4.422416e-02  0 
 1.339014e-02  -7.198528e-03  0 
 2.228170e-03  1.973029e-03  0 
 2.979778e-02  -2.569562e-02  0 
 5.189862e-02  -4.505613e-02  0 
 2.495591e-02  -1.562734e-02  0 
 2.862491e-02  -1.966711e-02  0 
 6.033653e-03  1.707062e-03  0 
 3.067701e-03  1.993358e-03  0 
 2.067425e-02  -1.856396e-02  0 
 7.275585e-03  -2.384015e-03  0 
VECTORS displacement_ITER4 FLOAT
 0  0  0 
 0  0  0 
 6.955407e-05  -4.815253e-05  0 
 1.424534e-04  -1.369004e-04  0 
 2.156995e-04  -3.033194e-04  0 
 0  0  0 
 0  0  0 
 2.480109e-02  -2.382707e-02  0 
 5.093767e-02  -4.283136e-02  0 
 8.282610e-02  -7.614083e-02  0 
 0  0  0 
 0  0  0 
 0  0  0 
 -3.962723e-05  -2.965602e-05  0 
 4.678682e-05  -1.964249e-04  0 
 -4.558756e-05  -3.041399e-04  0 
 -9.369135e-05  -1.649809e-04  0 
 3.154265e-05  -5.969284e-05  0 
 1.013582e-04  -3.447129e-04  0 
 6.372408e-06  7.892334e-06  0 
 8.526356e-03  -1.248333e-03  0 
 4.321835e-02  -3.685017e-02  0 
 1.207750e-02  -5.925406e-03  0 
 2.021094e-03  1.730765e-03  0 
 2.613642e-02  -2.125293e-02  0 
 4.406558e-02  -3.712460e-02  0 
 2.163483e-02  -1.312570e-02  0 
 2.407716e-02  -1.676752e-02  0 
 5.501317e-03  1.497574e-03  0 
 2.721238e-03  1.640823e-03  0 
 1.848947e-02  -1.553347e-02  0 
 6.135595e-03  -2.211443e-03  0 
VECTORS displacement_ITER5 FLOAT
 0  0  0 
 0  0  0 
 7.659889e-05  -5.287945e-05  0 
 1.592690e-04  -1.434331e-04  0 
 2.439060e-04  -3.135779e-04  0 
 0  0  0 
 0  0  0 
 1.969840e-02  -1.924581e-02  0 
 4.017641e-02  -3.444067e-02  0 
 6.484161e-02  -6.032018e-02  0 
 0  0  0 
 0  0  0 
 0  0  0 
 -3.703276e-05  -2.481741e-05  0 
 6.089039e-05  -2.000522e-04  0 
 -3.892731e-05  -3.169866e-04  0 
 -9.094408e-05  -1.656998e-04  0 
 4.010038e-05  -5.848869e-05  0 
 1.211734e-04  -3.576054e-04  0 
 8.280969e-06  9.479931e-06  0 
 6.887155e-03  -1.293664e-03  0 
 3.431830e-02  -2.981828e-02  0 
 1.017166e-02  -4.878791e-03  0 
 1.672858e-03  1.364278e-03  0 
 2.157806e-02  -1.720338e-02  0 
 3.535103e-02  -2.974780e-02  0 
 1.760967e-02  -1.089418e-02  0 
 1.913513e-02  -1.385777e-02  0 
 4.604910e-03  1.078323e-03  0 
 2.223162e-03  1.198596e-03  0 
 1.555339e-02  -1.270852e-02  0 
 4.880439e-03  -1.980660e-03  0 
VECTORS displacement_ITER6 FLOAT
 0  0  0 
 0  0  0 
 8.645457e-05  -6.091161e-05  0 
 1.821004e-04  -1.551508e-04  0 
 2.822220e-04  -3.313984e-04  0 
 0  0  0 
 0  0  0 
 1.499009e-02  -1.524933e-02  0 
 3.004796e-02  -2.767352e-02  0 
 4.760035e-02  -4.808981e-02  0 
 0  0  0 
 0  0  0 
 0  0  0 
 -3.281705e-05  -1.870865e-05  0 
 8.173743e-05  -2.065181e-04  0 
 -2.489289e-05  -3.314696e-04  0 
 -8.398290e-05  -1.657331e-04  0 
 5.221471e-05  -5.875855e-05  0 
 1.511080e-04  -3.754712e-04  0 
 1.093416e-05  1.088236e-05  0 
 5.046523e-03  -1.801491e-03  0 
 2.533458e-02  -2.505857e-02  0 
 8.076032e-03  -4.556047e-03  0 
 1.178343e-03  8.133445e-04  0 
 1.690912e-02  -1.476544e-02  0 
 2.656310e-02  -2.471053e-02  0 
 1.328729e-02  -1.000948e-02  0 
 1.412650e-02  -1.194999e-02  0 
 3.407883e-03  2.129064e-04  0 
 1.573035e-03  5.340279e-04  0 
 1.261792e-02  -1.102277e-02  0 
 3.583787e-03  -1.924416e-03  0 
VECTORS displacement_ITER7 FLOAT
 0  0  0 
 0  0  0 
 9.344463e-05  -6.687894e-05  0 
 1.991705e-04  -1.602997e-04  0 
 3.121661e-04  -3.348756e-04  0 
 0  0  0 
 0  0  0 
 1.057875e-02  -1.148017e-02  0 
 2.058005e-02  -2.133862e-02  0 
 3.151962e-02  -3.678087e-02  0 
 0  0  0 
 0  0  0 
 0  0  0 
 -2.536828e-05  -9.990585e-06  0 
 1.027070e-04  -2.022800e-04  0 
 -4.377883e-06  -3.275724e-04  0 
 -6.928393e-05  -1.550984e-04  0 
 6.399539e-05  -5.568927e-05  0 
 1.797156e-04  -3.750369e-04  0 
 1.359217e-05  1.193592e-05  0 
 3.289615e-03  -2.267717e-03  0 
 1.687521e-02  -2.063233e-02  0 
 6.023798e-03  -4.269358e-03  0 
 6.969319e-04  2.862157e-04  0 
 1.241056e-02  -1.251939e-02  0 
 1.824556e-02  -2.006327e-02  0 
 9.152243e-03  -9.192162e-03  0 
 9.407213e-03  -1.014278e-02  0 
 2.236566e-03  -6.116544e-04  0 
 9.454674e-04  -9.058553e-05  0 
 9.752022e-03  -9.452072e-03  0 
 2.360223e-03  -1.854010e-03  0 
VECTORS displacement_ITER8 FLOAT
 0  0  0 
 0  0  0 
 9.786273e-05  -7.042680e-05  0 
 2.109268e-04  -1.597513e-04  0 
 3.341353e-04  -3.275221e-04  0 
 0  0  0 
 0  0  0 
 7.452488e-03  -8.673219e-03  0 
 1.398826e-02  -1.662539e-02  0 
 2.051318e-02  -2.865681e-02  0 
 0  0  0 
 0  0  0 
 0  0  0 
 -1.627065e-05  7.016837e-08  0 
 1.218887e-04  -1.904690e-04  0 
 1.845168e-05  -3.112950e-04  0 
 -5.070057e-05  -1.377611e-04  0 
 7.456505e-05  -5.003825e-05  0 
 2.048214e-04  -3.617339e-04  0 
 1.606682e-05  1.286475e-05  0 
 2.020303e-03  -2.455652e-03  0 
 1.093554e-02  -1.717612e-02  0 
 4.356700e-03  -3.983678e-03  0 
 3.404435e-04  -7.704694e-05  0 
 8.916501e-03  -1.075711e-02  0 
 1.225741e-02  -1.658448e-02  0 
 6.090200e-03  -8.369486e-03  0 
 6.089271e-03  -8.607176e-03  0 
 1.335691e-03  -1.135228e-03  0 
 4.886007e-04  -4.809190e-04  0 
 7.382220e-03  -8.170856e-03  0 
 1.499924e-03  -1.708997e-03  0 
VECTORS displacement_ITER9 FLOAT
 0  0  0 
 0  0  0 
 1.019921e-04  -7.388180e-05  0 
 2.218898e-04  -1.585812e-04  0 
 3.548134e-04  -3.185509e-04  0 
 0  0  0 
 0  0  0 
 5.358045e-03  -6.695060e-03  0 
 9.657123e-03  -1.339937e-02  0 
 1.342231e-02  -2.347534e-02  0 
 0  0  0 
 0  0  0 
 0  0  0 
 -6.158521e-06  1.071013e-05  0 
 1.419286e-04  -1.769926e-04  0 
 4.458944e-05  -2.903505e-04  0 
 -2.929690e-05  -1.178312e-04  0 
 8.542541e-05  -4.413852e-05  0 
 2.310150e-04  -3.451001e-04  0 
 1.864220e-05  1.360110e-05  0 
 1.094855e-03  -2.514740e-03  0 
 6.890004e-03  -1.481580e-02  0 
 2.977820e-03  -3.814478e-03  0 
 5.977686e-05  -3.445767e-04  0 
 6.200666e-03  -9.613665e-03  0 
 8.035644e-03  -1.434904e-02  0 
 3.813620e-03  -7.763269e-03  0 
 3.822550e-03  -7.448900e-03  0 
 6.050626e-04  -1.502872e-03  0 
 1.410826e-04  -7.318042e-04  0 
 5.425009e-03  -7.293666e-03  0 
 9.087558e-04  -1.542830e-03  0 
VECTORS displacement_ITER10 FLOAT
 0  0  0 
 0  0  0 
 1.048972e-04  -7.589443e-05  0 
 2.295251e-04  -1.565023e-04  0 
 3.688266e-04  -3.095327e-04  0 
 0  0  0 
 0  0  0 
 3.740547e-03  -4.881554e-03  0 
 6.559280e-03  -9.974019e-03  0 
 8.753588e-03  -1.754484e-02  0 
 0  0  0 
 0  0  0 
 0  0  0 
 1.858581e-06  1.901299e-05  0 
 1.569355e-04  -1.657965e-04  0 
 6.503965e-05  -2.728919e-04  0 
 -1.231213e-05  -1.018917e-04  0 
 9.360119e-05  -3.921927e-05  0 
 2.501423e-04  -3.306366e-04  0 
 2.064558e-05  1.421917e-05  0 
 6.156989e-04  -2.087657e-03  0 
 4.408737e-03  -1.139871e-02  0 
 2.004424e-03  -3.128549e-03  0 
 -3.424184e-05  -3.805776e-04  0 
 4.215280e-03  -7.597180e-03  0 
 5.278870e-03  -1.110889e-02  0 
 2.422039e-03  -6.194767e-03  0 
 2.441775e-03  -5.750425e-03  0 
 2.720729e-04  -1.372205e-03  0 
 1.137381e-05  -6.869969e-04  0 
 3.816376e-03  -5.779262e-03  0 
 5.654158e-04  -1.218193e-03  0 
VECTORS displacement_ITER11 FLOAT
 0  0  0 
 0  0  0 
 1.103735e-04  -8.078705e-05  0 
 2.407783e-04  -1.648662e-04  0 
 3.857990e-04  -3.226671e-04  0 
 0  0  0 
 0  0  0 
 3.062905e-03  -4.059288e-03  0 
 5.315076e-03  -8.274032e-03  0 
 6.970973e-03  -1.441477e-02  0 
 0  0  0 
 0  0  0 
 0  0  0 
 4.022097e-06  2.078945e-05  0 
 1.678122e-04  -1.725789e-04  0 
 7.573561e-05  -2.800403e-04  0 
 -7.030808e-06  -1.032976e-04  0 
 9.967378e-05  -4.174435e-05  0 
 2.659855e-04  -3.424626e-04  0 
 2.203579e-05  1.432163e-05  0 
 5.026776e-04  -1.784718e-03  0 
 3.577806e-03  -9.499145e-03  0 
 1.680559e-03  -2.683611e-03  0 
 -2.663804e-05  -3.434284e-04  0 
 3.493868e-03  -6.419464e-03  0 
 4.319319e-03  -9.286182e-03  0 
 1.997655e-03  -5.226106e-03  0 
 1.985193e-03  -4.828282e-03  0 
 2.308232e-04  -1.197121e-03  0 
 8.558333e-06  -6.021463e-04  0 
 3.190367e-03  -4.914496e-03  0 
 4.593923e-04  -1.039829e-03  0 
VECTORS displacement_ITER12 FLOAT
 0  0  0 
 0  0  0 
 1.153080e-04  -8.540387e-05  0 
 2.498600e-04  -1.755857e-04  0 
 3.975346e-04  -3.419358e-04  0 
 0  0  0 
 0  0  0 
 1.996952e-03  -2.873557e-03  0 
 3.264140e-03  -5.649721e-03  0 
 3.855482e-03  -9.110176e-03  0 
 0  0  0 
 0  0  0 
 0  0  0 
 2.220605e-06  1.829582e-05  0 
 1.724080e-04  -1.867193e-04  0 
 7.696953e-05  -2.986136e-04  0 
 -1.014576e-05  -1.140091e-04  0 
 1.024471e-04  -4.739786e-05  0 
 2.736753e-04  -3.640671e-04  0 
 2.262265e-05  1.411746e-05  0 
 4.244161e-04  -1.371573e-03  0 
 2.372868e-03  -6.508841e-03  0 
 1.495046e-03  -1.930379e-03  0 
 4.035178e-05  -2.475824e-04  0 
 2.823281e-03  -4.472581e-03  0 
 3.083820e-03  -6.243568e-03  0 
 1.617711e-03  -3.727449e-03  0 
 1.332551e-03  -3.505842e-03  0 
 3.290028e-04  -8.830947e-04  0 
 5.930644e-05  -4.718806e-04  0 
 2.655751e-03  -3.538728e-03  0 
 3.143456e-04  -8.357205e-04  0 
VECTORS displacement_ITER13 FLOAT
 0  0  0 
 0  0  0 
 1.216231e-04  -9.169120e-05  0 
 2.614268e-04  -1.906377e-04  0 
 4.128250e-04  -3.695678e-04  0 
 0  0  0 
 0  0  0 
 1.376259e-03  -2.219408e-03  0 
 2.038339e-03  -4.233801e-03  0 
 1.937995e-03  -6.242789e-03  0 
 0  0  0 
 0  0  0 
 0  0  0 
 -9.980705e-07  1.412171e-05  0 
 1.772620e-04  -2.067481e-04  0 
 7.662296e-05  -3.250730e-04  0 
 -1.596467e-05  -1.298105e-04  0 
 1.053893e-04  -5.557360e-05  0 
 2.826778e-04  -3.946343e-04  0 
 2.318395e-05  1.370931e-05  0 
 3.518547e-04  -1.190798e-03  0 
 1.595147e-03  -4.958895e-03  0 
 1.378575e-03  -1.569188e-03  0 
 6.596359e-05  -2.152063e-04  0 
 2.419190e-03  -3.484730e-03  0 
 2.304174e-03  -4.658530e-03  0 
 1.354138e-03  -2.992030e-03  0 
 9.094908e-04  -2.834755e-03  0 
 3.610026e-04  -7.559722e-04  0 
 7.348374e-05  -4.272808e-04  0 
 2.356961e-03  -2.850845e-03  0 
 2.169374e-04  -7.420775e-04  0 
VECTORS displacement_ITER14 FLOAT
 0  0  0 
 0  0  0 
 1.262852e-04  -9.610112e-05  0 
 2.702627e-04  -2.004266e-04  0 
 4.252339e-04  -3.870716e-04  0 
 0  0  0 
 0  0  0 
 1.189009e-03  -1.831373e-03  0 
 1.833766e-03  -3.385822e-03  0 
 1.904190e-03  -4.834286e-03  0 
 0  0  0 
 0  0  0 
 0  0  0 
 -2.191101e-06  1.224923e-05  0 
 1.822936e-04  -2.188278e-04  0 
 7.853165e-05  -3.411233e-04  0 
 -1.794637e-05  -1.387641e-04  0 
 1.083897e-04  -6.043989e-05  0 
 2.909709e-04  -4.136025e-04  0 
 2.383384e-05  1.352874e-05  0 
 3.610452e-04  -8.990580e-04  0 
 1.556838e-03  -3.832292e-03  0 
 1.166646e-03  -1.268797e-03  0 
 8.814435e-05  -1.603562e-04  0 
 2.033793e-03  -2.779507e-03  0 
 2.092472e-03  -3.669706e-03  0 
 1.233822e-03  -2.298970e-03  0 
 8.906428e-04  -2.213720e-03  0 
 3.587474e-04  -5.736282e-04  0 
 9.881836e-05  -3.137807e-04  0 
 1.926729e-03  -2.309057e-03  0 
 2.199250e-04  -5.815894e-04  0 
VECTORS displacement_ITER15 FLOAT
 0  0  0 
 0  0  0 
 1.284654e-04  -9.772454e-05  0 
 2.748530e-04  -2.029924e-04  0 
 4.326069e-04  -3.911659e-04  0 
 0  0  0 
 0  0  0 
 1.170813e-03  -1.524161e-03  0 
 2.047509e-03  -2.707919e-03  0 
 2.671333e-03  -3.926999e-03  0 
 0  0  0 
 0  0  0 
 0  0  0 
 -1.166411e-06  1.308194e-05  0 
 1.865304e-04  -2.206956e-04  0 
 8.211935e-05  -3.439724e-04  0 
 -1.589705e-05  -1.392603e-04  0 
 1.109019e-04  -6.096973e-05  0 
 2.969833e-04  -4.176245e-04  0 
 2.445917e-05  1.367195e-05  0 
 4.070215e-04  -5.339306e-04  0 
 1.832206e-03  -2.789014e-03  0 
 9.005154e-04  -9.603923e-04  0 
 1.109977e-04  -8.856364e-05  0 
 1.632207e-03  -2.125633e-03  0 
 2.109889e-03  -2.843479e-03  0 
 1.168627e-03  -1.561297e-03  0 
 1.043217e-03  -1.561101e-03  0 
 3.432088e-04  -3.474392e-04  0 
 1.313859e-04  -1.594478e-04  0 
 1.411701e-03  -1.773917e-03  0 
 2.660762e-04  -3.790145e-04  0 
VECTORS displacement_ITER16 FLOAT
 0  0  0 
 0  0  0 
 1.302561e-04  -9.927804e-05  0 
 2.782669e-04  -2.065387e-04  0 
 4.375141e-04  -3.978366e-04  0 
 0  0  0 
 0  0  0 
 7.581883e-04  -1.021661e-03  0 
 1.291487e-03  -1.662597e-03  0 
 1.592275e-03  -1.994821e-03  0 
 0  0  0 
 0  0  0 
 0  0  0 
 -1.840980e-06  1.208107e-05  0 
 1.879400e-04  -2.254750e-04  0 
 8.162331e-05  -3.511596e-04  0 
 -1.739151e-05  -1.434853e-04  0 
 1.118872e-04  -6.282060e-05  0 
 2.994311e-04  -4.254396e-04  0 
 2.469460e-05  1.363084e-05  0 
 3.428337e-04  -3.449972e-04  0 
 1.333883e-03  -1.613961e-03  0 
 7.134042e-04  -6.785488e-04  0 
 1.180867e-04  -6.193672e-05  0 
 1.207077e-03  -1.387475e-03  0 
 1.536285e-03  -1.708744e-03  0 
 9.206402e-04  -9.582962e-04  0 
 7.698977e-04  -9.925145e-04  0 
 3.247561e-04  -2.336390e-04  0 
 1.324536e-04  -1.045635e-04  0 
 1.042316e-03  -1.232332e-03  0 
 2.030441e-04  -2.694506e-04  0 
VECTORS displacement_ITER17 FLOAT
 0  0  0 
 0  0  0 
 1.322580e-04  -1.012902e-04  0 
 2.817395e-04  -2.119715e-04  0 
 4.419457e-04  -4.085722e-04  0 
 0  0  0 
 0  0  0 
 3.467136e-04  -6.348965e-04  0 
 4.383151e-04  -8.462875e-04  0 
 1.883456e-04  -2.974051e-04  0 
 0  0  0 
 0  0  0 
 0  0  0 
 -3.864234e-06  9.522169e-06  0 
 1.878634e-04  -2.337505e-04  0 
 7.859006e-05  -3.630116e-04  0 
 -2.154778e-05  -1.513119e-04  0 
 1.120694e-04  -6.623511e-05  0 
 3.003122e-04  -4.381110e-04  0 
 2.471058e-05  1.340810e-05  0 
 2.758061e-04  -2.901328e-04  0 
 7.482216e-04  -7.859896e-04  0 
 6.605998e-04  -4.973971e-04  0 
 1.252299e-04  -5.608515e-05  0 
 9.781826e-04  -8.589947e-04  0 
 9.866068e-04  -8.255325e-04  0 
 7.315810e-04  -6.092948e-04  0 
 4.497060e-04  -6.616121e-04  0 
 3.342516e-04  -1.940644e-04  0 
 1.301062e-04  -1.039912e-04  0 
 9.076873e-04  -8.730025e-04  0 
 1.264065e-04  -2.397909e-04  0 
VECTORS displacement_ITER18 FLOAT
 0  0  0 
 0  0  0 
 1.330920e-04  -1.021996e-04  0 
 2.830811e-04  -2.143325e-04  0 
 4.437756e-04  -4.133944e-04  0 
 0  0  0 
 0  0  0 
 3.405723e-04  -5.994299e-04  0 
 4.511520e-04  -7.371190e-04  0 
 2.511054e-04  -7.194754e-05  0 
 0  0  0 
 0  0  0 
 0  0  0 
 -4.707030e-06  8.096927e-06  0 
 1.875614e-04  -2.373755e-04  0 
 7.708023e-05  -3.680458e-04  0 
 -2.323780e-05  -1.550374e-04  0 
 1.120539e-04  -6.791789e-05  0 
 3.003901e-04  -4.436070e-04  0 
 2.472565e-05  1.319144e-05  0 
 2.989122e-04  -2.409766e-04  0 
 8.053037e-04  -6.088251e-04  0 
 6.683314e-04  -4.406519e-04  0 
 1.380524e-04  -3.934612e-05  0 
 9.839149e-04  -7.371454e-04  0 
 1.028545e-03  -6.583748e-04  0 
 7.653947e-04  -4.918896e-04  0 
 4.830471e-04  -5.734977e-04  0 
 3.580959e-04  -1.525042e-04  0 
 1.444355e-04  -8.003624e-05  0 
 8.936492e-04  -7.846289e-04  0 
 1.370015e-04  -2.190604e-04  0 
VECTORS displacement_ITER19 FLOAT
 0  0  0 
 0  0  0 
 1.333083e-04  -1.027824e-04  0 
 2.832377e-04  -2.154277e-04  0 
 4.441164e-04  -4.153246e-04  0 
 0  0  0 
 0  0  0 
 3.222710e-04  -5.974163e-04  0 
 4.002035e-04  -8.055079e-04  0 
 1.475313e-04  -3.014288e-04  0 
 0  0  0 
 0  0  0 
 0  0  0 
 -4.924610e-06  7.130507e-06  0 
 1.872141e-04  -2.387562e-04  0 
 7.658955e-05  -3.694849e-04  0 
 -2.347374e-05  -1.567052e-04  0 
 1.119441e-04  -6.895159e-05  0 
 3.001287e-04  -4.453542e-04  0 
 2.472741e-05  1.286616e-05  0 
 2.492529e-04  -2.846899e-04  0 
 6.817571e-04  -7.667624e-04  0 
 5.971109e-04  -5.091133e-04  0 
 1.134924e-04  -6.628608e-05  0 
 8.775029e-04  -8.668961e-04  0 
 8.930203e-04  -8.338907e-04  0 
 6.605814e-04  -6.057452e-04  0 
 4.115917e-04  -6.335761e-04  0 
 3.011750e-04  -2.078165e-04  0 
 1.175128e-04  -1.083918e-04  0 
 8.192614e-04  -8.720378e-04  0 
 1.158046e-04  -2.278256e-04  0 
VECTORS displacement_ITER20 FLOAT
 0  0  0 
 0  0  0 
 1.331361e-04  -1.028166e-04  0 
 2.826680e-04  -2.153363e-04  0 
 4.435510e-04  -4.154503e-04  0 
 0  0  0 
 0  0  0 
 6.553458e-04  -8.699825e-04  0 
 1.125627e-03  -1.316087e-03  0 
 1.397720e-03  -1.337016e-03  0 
 0  0  0 
 0  0  0 
 0  0  0 
 -4.859714e-06  6.425231e-06  0 
 1.864935e-04  -2.387230e-04  0 
 7.612662e-05  -3.690264e-04  0 
 -2.322347e-05  -1.573370e-04  0 
 1.116503e-04  -6.937617e-05  0 
 2.992506e-04  -4.450829e-04  0 
 2.472170e-05  1.258656e-05  0 
 3.473753e-04  -2.567411e-04  0 
 1.265679e-03  -1.176696e-03  0 
 6.720438e-04  -5.684593e-04  0 
 1.310746e-04  -4.294881e-05  0 
 1.103758e-03  -1.110386e-03  0 
 1.432779e-03  -1.296215e-03  0 
 8.880524e-04  -7.131089e-04  0 
 7.348275e-04  -7.777230e-04  0 
 3.404594e-04  -1.735944e-04  0 
 1.453621e-04  -7.151968e-05  0 
 9.350104e-04  -1.032078e-03  0 
 1.976746e-04  -2.243505e-04  0 
VECTORS displacement_ITER21 FLOAT
 0  0  0 
 0  0  0 
 1.334960e-04  -1.036205e-04  0 
 2.826818e-04  -2.177618e-04  0 
 4.431717e-04  -4.207149e-04  0 
 0  0  0 
 0  0  0 
 7.239194e-04  -9.539049e-04  0 
 1.250661e-03  -1.420938e-03  0 
 1.573903e-03  -1.403612e-03  0 
 0  0  0 
 0  0  0 
 0  0  0 
 -6.253827e-06  3.804980e-06  0 
 1.844086e-04  -2.431258e-04  0 
 7.291795e-05  -3.746524e-04  0 
 -2.587101e-05  -1.625901e-04  0 
 1.106984e-04  -7.182613e-05  0 
 2.969803e-04  -4.510648e-04  0 
 2.454806e-05  1.205457e-05  0 
 4.009466e-04  -2.630459e-04  0 
 1.426911e-03  -1.234797e-03  0 
 7.838444e-04  -5.606072e-04  0 
 1.532270e-04  -2.581945e-05  0 
 1.287234e-03  -1.119715e-03  0 
 1.632336e-03  -1.318487e-03  0 
 1.025461e-03  -7.269809e-04  0 
 8.271911e-04  -8.329622e-04  0 
 4.005577e-04  -1.509431e-04  0 
 1.698380e-04  -6.203035e-05  0 
 1.088177e-03  -1.052279e-03  0 
 2.229759e-04  -2.434853e-04  0 
VECTORS displacement_ITER22 FLOAT
 0  0  0 
 0  0  0 
 1.329518e-04  -1.034940e-04  0 
 2.811427e-04  -2.173446e-04  0 
 4.410187e-04  -4.203255e-04  0 
 0  0  0 
 0  0  0 
 7.429236e-04  -9.509242e-04  0 
 1.308046e-03  -1.366660e-03  0 
 1.697454e-03  -1.254522e-03  0 
 0  0  0 
 0  0  0 
 0  0  0 
 -6.408455e-06  2.413943e-06  0 
 1.825271e-04  -2.431200e-04  0 
 7.134584e-05  -3.741551e-04  0 
 -2.603915e-05  -1.639557e-04  0 
 1.098346e-04  -7.255793e-05  0 
 2.944308e-04  -4.504245e-04  0 
 2.444232e-05  1.157416e-05  0 
 4.361674e-04  -2.220042e-04  0 
 1.528036e-03  -1.108957e-03  0 
 8.213911e-04  -5.074037e-04  0 
 1.699105e-04  -5.593619e-06  0 
 1.346598e-03  -1.019599e-03  0 
 1.731221e-03  -1.189163e-03  0 
 1.094839e-03  -6.318901e-04  0 
 8.851242e-04  -7.757974e-04  0 
 4.368073e-04  -1.069272e-04  0 
 1.885611e-04  -3.775790e-05  0 
 1.119963e-03  -9.806908e-04  0 
 2.398576e-04  -2.307489e-04  0 
VECTORS displacement_ITER23 FLOAT
 0  0  0 
 0  0  0 
 1.321513e-04  -1.030973e-04  0 
 2.792289e-04  -2.159740e-04  0 
 4.385609e-04  -4.179664e-04  0 
 0  0  0 
 0  0  0 
 7.132261e-04  -9.036718e-04  0 
 1.263304e-03  -1.253000e-03  0 
 1.651815e-03  -1.033557e-03  0 
 0  0  0 
 0  0  0 
 0  0  0 
 -6.060921e-06  1.562398e-06  0 
 1.809299e-04  -2.415005e-04  0 
 7.052383e-05  -3.714816e-04  0 
 -2.521853e-05  -1.638250e-04  0 
 1.091172e-04  -7.263351e-05  0 
 2.920745e-04  -4.474354e-04  0 
 2.438322e-05  1.112988e-05  0 
 4.424315e-04  -1.886882e-04  0 
 1.520096e-03  -9.574461e-04  0 
 8.153424e-04  -4.604385e-04  0 
 1.760394e-04  4.591141e-06  0 
 1.327096e-03  -9.146158e-04  0 
 1.714576e-03  -1.039626e-03  0 
 1.095829e-03  -5.412366e-04  0 
 8.814042e-04  -7.022380e-04  0 
 4.467314e-04  -7.936559e-05  0 
 1.948832e-04  -2.324445e-05  0 
 1.094520e-03  -9.024038e-04  0 
 2.401801e-04  -2.152382e-04  0 
VECTORS displacement_ITER24 FLOAT
 0  0  0 
 0  0  0 
 1.314191e-04  -1.029473e-04  0 
 2.772491e-04  -2.150993e-04  0 
 4.360866e-04  -4.167572e-04  0 
 0  0  0 
 0  0  0 
 7.204383e-04  -9.158778e-04  0 
 1.273588e-03  -1.246591e-03  0 
 1.660953e-03  -9.602054e-04  0 
 0  0  0 
 0  0  0 
 0  0  0 
 -5.909069e-06  -7.839737e-08  0 
 1.787589e-04  -2.407436e-04  0 
 6.891269e-05  -3.698613e-04  0 
 -2.475093e-05  -1.650329e-04  0 
 1.081874e-04  -7.337072e-05  0 
 2.890827e-04  -4.455834e-04  0 
 2.431267e-05  1.045985e-05  0 
 4.633467e-04  -1.836079e-04  0 
 1.562676e-03  -9.246339e-04  0 
 8.602361e-04  -4.391593e-04  0 
 1.866222e-04  1.442612e-05  0 
 1.394626e-03  -8.768399e-04  0 
 1.774825e-03  -9.863757e-04  0 
 1.147225e-03  -5.173346e-04  0 
 9.062973e-04  -7.007722e-04  0 
 4.741433e-04  -6.219021e-05  0 
 2.060087e-04  -1.640990e-05  0 
 1.151076e-03  -8.795257e-04  0 
 2.476064e-04  -2.197470e-04  0 
VECTORS displacement_ITER25 FLOAT
 0  0  0 
 0  0  0 
 1.304472e-04  -1.024664e-04  0 
 2.749252e-04  -2.133061e-04  0 
 4.331118e-04  -4.135166e-04  0 
 0  0  0 
 0  0  0 
 6.931557e-04  -8.676688e-04  0 
 1.236728e-03  -1.120815e-03  0 
 1.633024e-03  -7.047087e-04  0 
 0  0  0 
 0  0  0 
 0  0  0 
 -5.370263e-06  -1.064364e-06  0 
 1.769185e-04  -2.385581e-04  0 
 6.803320e-05  -3.664406e-04  0 
 -2.354452e-05  -1.647550e-04  0 
 1.073949e-04  -7.340069e-05  0 
 2.862541e-04  -4.415754e-04  0 
 2.426901e-05  9.906265e-06  0 
 4.768495e-04  -1.425587e-04  0 
 1.573322e-03  -7.466156e-04  0 
 8.634423e-04  -3.801659e-04  0 
 1.963825e-04  2.888036e-05  0 
 1.389301e-03  -7.491278e-04  0 
 1.777943e-03  -8.070486e-04  0 
 1.163127e-03  -4.069101e-04  0 
 9.131395e-04  -6.161538e-04  0 
 4.921928e-04  -2.540693e-05  0 
 2.162808e-04  2.855545e-06  0 
 1.134226e-03  -7.848362e-04  0 
 2.510532e-04  -2.022123e-04  0 
VECTORS displacement_ITER26 FLOAT
 0  0  0 
 0  0  0 
 1.294362e-04  -1.019891e-04  0 
 2.724923e-04  -2.114339e-04  0 
 4.298478e-04  -4.098517e-04  0 
 0  0  0 
 0  0  0 
 6.571672e-04  -8.055616e-04  0 
 1.186811e-03  -9.634355e-04  0 
 1.591813e-03  -3.907334e-04  0 
 0  0  0 
 0  0  0 
 0  0  0 
 -4.733755e-06  -1.954980e-06  0 
 1.752055e-04  -2.361913e-04  0 
 6.749531e-05  -3.626585e-04  0 
 -2.207408e-05  -1.642068e-04  0 
 1.066515e-04  -7.339198e-05  0 
 2.834742e-04  -4.370892e-04  0 
 2.423409e-05  9.339723e-06  0 
 4.910590e-04  -9.239492e-05  0 
 1.579755e-03  -5.276085e-04  0 
 8.625779e-04  -3.091418e-04  0 
 2.073724e-04  4.560525e-05  0 
 1.374795e-03  -5.937590e-04  0 
 1.773458e-03  -5.882931e-04  0 
 1.176659e-03  -2.720664e-04  0 
 9.177267e-04  -5.108760e-04  0 
 5.116853e-04  1.813192e-05  0 
 2.277973e-04  2.580343e-05  0 
 1.107134e-03  -6.693645e-04  0 
 2.542300e-04  -1.800791e-04  0 
VECTORS displacement_ITER27 FLOAT
 0  0  0 
 0  0  0 
 1.284356e-04  -1.016842e-04  0 
 2.700503e-04  -2.095274e-04  0 
 4.265969e-04  -4.055771e-04  0 
 0  0  0 
 0  0  0 
 7.367081e-04  -8.641899e-04  0 
 1.365947e-03  -1.077131e-03  0 
 1.910475e-03  -6.433184e-04  0 
 0  0  0 
 0  0  0 
 0  0  0 
 -3.672227e-06  -2.605383e-06  0 
 1.740851e-04  -2.332682e-04  0 
 6.817714e-05  -3.576013e-04  0 
 -1.952940e-05  -1.628498e-04  0 
 1.061980e-04  -7.334069e-05  0 
 2.813699e-04  -4.314531e-04  0 
 2.427144e-05  8.682909e-06  0 
 5.126042e-04  -7.881005e-05  0 
 1.720738e-03  -6.132793e-04  0 
 8.694176e-04  -3.160001e-04  0 
 2.104744e-04  5.211129e-05  0 
 1.414793e-03  -6.400702e-04  0 
 1.897951e-03  -6.882268e-04  0 
 1.224046e-03  -2.853163e-04  0 
 9.950066e-04  -5.339530e-04  0 
 5.167733e-04  3.058185e-05  0 
 2.333247e-04  3.744172e-05  0 
 1.117675e-03  -6.941621e-04  0 
 2.736679e-04  -1.746205e-04  0 
VECTORS displacement_ITER28 FLOAT
 0  0  0 
 0  0  0 
 1.274712e-04  -1.014456e-04  0 
 2.677972e-04  -2.073651e-04  0 
 4.237275e-04  -4.003396e-04  0 
 0  0  0 
 0  0  0 
 8.224368e-04  -9.476263e-04  0 
 1.541539e-03  -1.281366e-03  0 
 2.196872e-03  -1.108737e-03  0 
 0  0  0 
 0  0  0 
 0  0  0 
 -2.100782e-06  -2.642444e-06  0 
 1.738522e-04  -2.294064e-04  0 
 7.029781e-05  -3.509607e-04  0 
 -1.583407e-05  -1.601503e-04  0 
 1.061741e-04  -7.290217e-05  0 
 2.803425e-04  -4.243627e-04  0 
 2.439951e-05  8.062828e-06  0 
 5.094445e-04  -1.035011e-04  0 
 1.809439e-03  -8.496491e-04  0 
 8.518997e-04  -3.759078e-04  0 
 1.998763e-04  4.190236e-05  0 
 1.424048e-03  -7.970493e-04  0 
 1.972705e-03  -9.416938e-04  0 
 1.227276e-03  -3.975436e-04  0 
 1.041568e-03  -6.247749e-04  0 
 4.929482e-04  4.777716e-06  0 
 2.239011e-04  2.870128e-05  0 
 1.114971e-03  -7.970435e-04  0 
 2.832788e-04  -1.825015e-04  0 
VECTORS displacement_ITER29 FLOAT
 0  0  0 
 0  0  0 
 1.262266e-04  -1.010462e-04  0 
 2.649186e-04  -2.044906e-04  0 
 4.198935e-04  -3.933829e-04  0 
 0  0  0 
 0  0  0 
 7.539430e-04  -8.824430e-04  0 
 1.400686e-03  -1.180613e-03  0 
 1.968245e-03  -9.609029e-04  0 
 0  0  0 
 0  0  0 
 0  0  0 
 -1.724947e-07  -2.586625e-06  0 
 1.735319e-04  -2.244769e-04  0 
 7.284552e-05  -3.427276e-04  0 
 -1.134927e-05  -1.566875e-04  0 
 1.061246e-04  -7.222328e-05  0 
 2.789061e-04  -4.153133e-04  0 
 2.454907e-05  7.344610e-06  0 
 4.766407e-04  -1.055653e-04  0 
 1.673163e-03  -7.801002e-04  0 
 8.021849e-04  -3.669606e-04  0 
 1.893234e-04  3.313850e-05  0 
 1.331320e-03  -7.578629e-04  0 
 1.830902e-03  -8.716584e-04  0 
 1.148225e-03  -3.787510e-04  0 
 9.643583e-04  -5.884032e-04  0 
 4.655632e-04  -6.404841e-06  0 
 2.108863e-04  2.058062e-05  0 
 1.045939e-03  -7.625207e-04  0 
 2.628701e-04  -1.765541e-04  0 
VECTORS displacement_ITER30 FLOAT
 0  0  0 
 0  0  0 
 1.249934e-04  -1.008102e-04  0 
 2.619014e-04  -2.018632e-04  0 
 4.157157e-04  -3.866535e-04  0 
 0  0  0 
 0  0  0 
 6.187597e-04  -7.632903e-04  0 
 1.114090e-03  -9.688261e-04  0 
 1.487580e-03  -5.705492e-04  0 
 0  0  0 
 0  0  0 
 0  0  0 
 1.684762e-06  -2.944521e-06  0 
 1.729627e-04  -2.199730e-04  0 
 7.511232e-05  -3.350376e-04  0 
 -6.950185e-06  -1.539039e-04  0 
 1.059871e-04  -7.192807e-05  0 
 2.770430e-04  -4.065597e-04  0 
 2.469640e-05  6.482438e-06  0 
 4.304963e-04  -1.100573e-04  0 
 1.431188e-03  -6.100294e-04  0 
 7.500763e-04  -3.376433e-04  0 
 1.787179e-04  2.289833e-05  0 
 1.211312e-03  -6.529359e-04  0 
 1.596908e-03  -6.847512e-04  0 
 1.038264e-03  -3.264220e-04  0 
 8.290450e-04  -5.185224e-04  0 
 4.388811e-04  -1.828663e-05  0 
 1.958985e-04  7.669200e-06  0 
 9.684166e-04  -6.850470e-04  0 
 2.281523e-04  -1.718000e-04  0 
VECTORS displacement_ITER31 FLOAT
 0  0  0 
 0  0  0 
 1.233136e-04  -1.006443e-04  0 
 2.576092e-04  -1.985249e-04  0 
 4.096460e-04  -3.777465e-04  0 
 0  0  0 
 0  0  0 
 4.780951e-04  -6.410116e-04  0 
 8.145943e-04  -7.482627e-04  0 
 9.834905e-04  -1.557735e-04  0 
 0  0  0 
 0  0  0 
 0  0  0 
 4.125394e-06  -3.931044e-06  0 
 1.718458e-04  -2.142979e-04  0 
 7.778194e-05  -3.252006e-04  0 
 -1.095865e-06  -1.509260e-04  0 
 1.056760e-04  -7.195220e-05  0 
 2.739549e-04  -3.949681e-04  0 
 2.489371e-05  5.143824e-06  0 
 3.851719e-04  -1.147373e-04  0 