# vtk DataFile Version 3.1
this is an vtk file created by FEMAC
ASCII
DATASET UNSTRUCTURED_GRID
POINTS 21 FLOAT
2.000000 5.000000 0.000000
3.000000 5.000000 0.000000
1.333333 5.000000 0.000000
1.666667 5.000000 0.000000
2.000000 4.333333 0.000000
2.000000 4.666667 0.000000
2.333333 5.000000 0.000000
2.666667 5.000000 0.000000
3.000000 4.666667 0.000000
1.735450 4.578520 0.000000
1.514832 4.788257 0.000000
1.783390 4.806689 0.000000
1.471368 5.181466 0.000000
1.710771 5.276789 0.000000
2.310190 4.603416 0.000000
2.658255 4.769946 0.000000
2.687481 4.391228 0.000000
2.325592 4.229401 0.000000
2.160881 4.817521 0.000000
3.319226 4.519523 0.000000
3.222011 4.792514 0.000000
CELLS 25 100 
3 9 4 5
3 10  3  2
3 3 11  0
3 5 11  9
3 11  5  0
3 10 11  3
3 10  9 11
3 3 12  2
3 13  3  0
3 13 12  3
3 7 15  1
3 15  8  1
3 15 16  8
3 14 16 15
3 5  4 14
3 15  7  6
3 6 14 15
3 14 17 16
3 17 14  4
3 18  5 14
3 18  6  0
3 6 18 14
3 5 18  0
3 8 20  1
3 19 20  8
CELL_TYPES 25
5 5 5 5 5 5 5 5 5 5 5 5 5 5 5 5 5 5 5 5 5 5 5 5 5 
POINT_DATA 21
VECTORS displacement_ITER1 FLOAT
 1.635565e-01  -2.021360e-01  0 
 1.645606e-01  -2.288303e-01  0 
 1.628878e-01  -2.737024e-01  0 
 1.631815e-01  -2.378341e-01  0 
 1.465413e-01  -2.017730e-01  0 
 1.552740e-01  -2.018975e-01  0 
 1.639707e-01  -2.106993e-01  0 
 1.642638e-01  -2.196861e-01  0 
 1.553845e-01  -2.285018e-01  0 
 1.597437e-01  -2.153383e-01  0 
 1.654724e-01  -2.409180e-01  0 
 1.636984e-01  -2.184420e-01  0 
 1.435390e-01  -2.589395e-01  0 
 1.334373e-01  -2.333369e-01  0 
 1.536226e-01  -2.099584e-01  0 
 1.580630e-01  -2.192396e-01  0 
 1.480391e-01  -2.199712e-01  0 
 1.437699e-01  -2.103462e-01  0 
 1.591338e-01  -2.060628e-01  0 
 1.476111e-01  -2.442268e-01  0 
 1.592846e-01  -2.372771e-01  0 
VECTORS displacement_ITER2 FLOAT
 4.438668e-03  -8.686977e-02  0 
 5.859517e-03  -2.691754e-02  0 
 3.417729e-03  1.134086e-02  0 
 3.902083e-03  -3.785022e-02  0 
 4.533459e-02  -8.616759e-02  0 
 2.518539e-02  -8.642466e-02  0 
 5.051544e-03  -6.652445e-02  0 
 5.476734e-03  -4.667239e-02  0 
 2.539433e-02  -2.662383e-02  0 
 1.996741e-02  -7.420656e-02  0 
 5.136525e-03  -3.812691e-02  0 
 7.601855e-03  -6.789374e-02  0 
 3.041052e-02  -9.181245e-03  0 
 4.460019e-02  -4.470601e-02  0 
 2.908516e-02  -6.763395e-02  0 
 1.916847e-02  -4.686625e-02  0 
 4.186231e-02  -4.510522e-02  0 
 5.155492e-02  -6.666187e-02  0 
 1.598219e-02  -7.671933e-02  0 
 2.918545e-02  -1.768115e-02  0 
 1.873930e-02  -1.750128e-02  0 
VECTORS displacement_ITER3 FLOAT
 3.508317e-03  -2.160529e-02  0 
 5.094717e-03  -1.521289e-02  0 
 2.562105e-03  -2.561944e-03  0 
 3.048529e-03  -1.211828e-02  0 
 8.671912e-03  -2.063239e-02  0 
 6.510551e-03  -2.093354e-02  0 
 4.265415e-03  -1.888574e-02  0 
 4.700320e-03  -1.702373e-02  0 
 6.602853e-03  -1.499401e-02  0 
 5.253475e-03  -1.917251e-02  0 
 2.688851e-03  -1.227764e-02  0 
 3.266956e-03  -1.823870e-02  0 
 7.974965e-03  -6.755264e-03  0 
 1.087384e-02  -1.366636e-02  0 
 6.986030e-03  -1.882023e-02  0 
 5.993768e-03  -1.676705e-02  0 
 8.248708e-03  -1.668051e-02  0 
 9.239519e-03  -1.871760e-02  0 
 5.402331e-03  -1.987079e-02  0 
 -6.818583e-04  -2.783606e-02  0 
 6.830048e-03  -1.921236e-02  0 
VECTORS displacement_ITER4 FLOAT
 3.727825e-03  -7.241339e-03  0 
 5.148639e-03  -3.038396e-03  0 
 2.841506e-03  -8.307288e-03  0 
 3.306540e-03  -7.825356e-03  0 
 7.333969e-03  -6.272403e-03  0 
 5.911657e-03  -6.590341e-03  0 
 4.405874e-03  -5.267444e-03  0 
 4.805857e-03  -4.120385e-03  0 
 5.989798e-03  -2.848031e-03  0 
 6.061471e-03  -8.779396e-03  0 
 4.269002e-03  -9.110907e-03  0 
 4.342483e-03  -8.518207e-03  0 
 2.769761e-03  -8.358876e-03  0 
 2.816216e-03  -8.041617e-03  0 
 6.251669e-03  -5.174221e-03  0 
 5.609098e-03  -3.878645e-03  0 
 7.039309e-03  -3.851681e-03  0 
 7.677801e-03  -5.099976e-03  0 
 5.156637e-03  -5.899971e-03  0 
 -3.609013e-03  -1.956227e-02  0 
 6.592971e-03  -8.676109e-03  0 
VECTORS displacement_ITER5 FLOAT
 3.687094e-03  -7.900675e-03  0 
 5.013412e-03  -5.660245e-03  0 
 2.685855e-03  -6.457278e-03  0 
 3.220298e-03  -7.302970e-03  0 
 5.875423e-03  -6.902762e-03  0 
 5.154995e-03  -7.243385e-03  0 
 4.336429e-03  -6.612142e-03  0 
 4.703860e-03  -6.110794e-03  0 
 5.248536e-03  -5.512800e-03  0 
 4.972193e-03  -8.512563e-03  0 
 3.643860e-03  -8.111516e-03  0 
 3.823645e-03  -8.440618e-03  0 
 3.372344e-03  -7.075023e-03  0 
 3.685661e-03  -7.674256e-03  0 
 5.373583e-03  -6.476947e-03  0 
 5.068647e-03  -5.877205e-03  0 
 5.743876e-03  -5.889905e-03  0 
 6.032060e-03  -6.419199e-03  0 
 4.720959e-03  -6.899576e-03  0 
 -3.396370e-04  -1.655932e-02  0 
 5.823081e-03  -9.719640e-03  0 
VECTORS displacement_ITER6 FLOAT
 3.048706e-03  -6.574905e-03  0 
 4.291143e-03  -6.896060e-03  0 
 2.069444e-03  -4.703785e-03  0 
 2.623681e-03  -5.818770e-03  0 
 3.461595e-03  -5.544622e-03  0 
 3.627465e-03  -5.914099e-03  0 
 3.678463e-03  -6.161358e-03  0 
 4.013546e-03  -6.515746e-03  0 
 3.697490e-03  -6.774278e-03  0 
 3.292833e-03  -6.966242e-03  0 
 2.508713e-03  -6.360082e-03  0 
 2.721992e-03  -6.958080e-03  0 
 2.920604e-03  -5.453301e-03  0 
 3.281388e-03  -6.198625e-03  0 
 3.688811e-03  -5.973350e-03  0 
 3.799697e-03  -6.287937e-03  0 
 3.487336e-03  -6.433252e-03  0 
 3.324925e-03  -5.939196e-03  0 
 3.594513e-03  -6.004173e-03  0 
 2.977418e-03  -1.028397e-02  0 
 4.334493e-03  -8.976740e-03  0 
VECTORS displacement_ITER7 FLOAT
 2.792007e-03  -5.304519e-03  0 
 3.992419e-03  -5.577299e-03  0 
 1.838952e-03  -3.330627e-03  0 
 2.372212e-03  -4.468472e-03  0 
 3.129650e-03  -4.214127e-03  0 
 3.352392e-03  -4.624442e-03  0 
 3.409044e-03  -4.892255e-03  0 
 3.728241e-03  -5.226575e-03  0 
 3.447472e-03  -5.442245e-03  0 
 2.522216e-03  -6.299987e-03  0 
 1.687077e-03  -5.774824e-03  0 
 2.128124e-03  -6.030239e-03  0 
 2.708502e-03  -4.062666e-03  0 
 3.090821e-03  -4.853378e-03  0 
 3.423376e-03  -4.720360e-03  0 
 3.528778e-03  -5.011235e-03  0 
 3.249186e-03  -5.147786e-03  0 
 3.065152e-03  -4.655607e-03  0 
 3.331918e-03  -4.739364e-03  0 
 1.155295e-03  -1.168648e-02  0 
 4.205326e-03  -8.379128e-03  0 
VECTORS displacement_ITER8 FLOAT
 2.964587e-03  -5.796162e-03  0 
 4.142985e-03  -6.892691e-03  0 
 2.039002e-03  -3.608126e-03  0 
 2.538683e-03  -4.822091e-03  0 
 2.681692e-03  -4.662492e-03  0 
 3.232400e-03  -5.100487e-03  0 
 3.575541e-03  -5.666494e-03  0 
 3.885115e-03  -6.276309e-03  0 
 3.332836e-03  -6.754162e-03  0 
 2.320896e-03  -6.668336e-03  0 
 1.870774e-03  -6.073067e-03  0 
 2.191633e-03  -6.406353e-03  0 
 2.938381e-03  -4.342804e-03  0 
 3.384325e-03  -5.247427e-03  0 
 3.255545e-03  -5.486960e-03  0 
 3.496514e-03  -6.061219e-03  0 
 2.919077e-03  -6.227788e-03  0 
 2.564331e-03  -5.406048e-03  0 
 3.348052e-03  -5.369513e-03  0 
 2.993057e-03  -1.083568e-02  0 
 4.191402e-03  -9.271383e-03  0 
VECTORS displacement_ITER9 FLOAT
 2.876509e-03  -5.716446e-03  0 
 4.059434e-03  -6.725526e-03  0 
 1.931750e-03  -3.496609e-03  0 
 2.450196e-03  -4.739272e-03  0 
 2.661102e-03  -4.582231e-03  0 
 3.176853e-03  -5.020425e-03  0 
 3.488411e-03  -5.554136e-03  0 
 3.800138e-03  -6.134506e-03  0 
 3.275160e-03  -6.588374e-03  0 
 2.254074e-03  -6.727252e-03  0 
 1.899741e-03  -6.145266e-03  0 
 2.128874e-03  -6.373034e-03  0 
 2.853523e-03  -4.259317e-03  0 
 3.298939e-03  -5.161444e-03  0 
 3.205694e-03  -5.376933e-03  0 
 3.430966e-03  -5.918233e-03  0 
 2.889051e-03  -6.077342e-03  0 
 2.569191e-03  -5.296346e-03  0 
 3.277991e-03  -5.273650e-03  0 
 3.066860e-03  -1.101634e-02  0 
 4.191859e-03  -9.219812e-03  0 
CELL_DATA 25
TENSORS element_stresses FLOAT
 2.833174e-03  6.490054e-03  0 
 6.490054e-03  -4.646307e-04  0 
 0  0  0 

 4.779500e-03  -1.725876e-03  0 
 -1.725876e-03  1.074721e-02  0 
 0  0  0 

 3.608080e-03  -3.823741e-04  0 
 -3.823741e-04  7.763804e-03  0 
 0  0  0 

 4.407442e-03  3.848619e-03  0 
 3.848619e-03  1.533919e-03  0 
 0  0  0 

 3.988147e-03  3.072021e-03  0 
 3.072021e-03  -8.916196e-04  0 
 0  0  0 

 3.293123e-03  5.533952e-04  0 
 5.533952e-04  8.611382e-03  0 
 0  0  0 

 1.572171e-03  -1.313273e-03  0 
 -1.313273e-03  2.227604e-03  0 
 0  0  0 

 1.258409e+00  1.296248e-01  0 
 1.296248e-01  -9.897638e-01  0 
 0  0  0 

 1.056595e+00  -5.302236e-02  0 
 -5.302236e-02  -7.411450e-01  0 
 0  0  0 

 4.249137e-01  -3.211453e-01  0 
 -3.211453e-01  -8.599749e-01  0 
 0  0  0 

 5.662699e-01  -1.513683e-01  0 
 -1.513683e-01  -7.053887e-01  0 
 0  0  0 

 1.447285e-01  2.057968e-01  0 
 2.057968e-01  -3.680378e-01  0 
 0  0  0 

 6.432204e-02  -3.451556e-01  0 
 -3.451556e-01  2.945137e-01  0 
 0  0  0 

 5.577163e-02  -2.042392e-01  0 
 -2.042392e-01  3.061574e-01  0 
 0  0  0 

 1.550299e-02  9.990282e-02  0 
 9.990282e-02  -1.309932e+00  0 
 0  0  0 

 7.387377e-01  -1.312161e-01  0 
 -1.312161e-01  -6.548166e-01  0 
 0  0  0 

 2.253190e-01  -5.272429e-01  0 
 -5.272429e-01  -2.987004e-01  0 
 0  0  0 

 3.405143e-02  -2.443820e-01  0 
 -2.443820e-01  -2.886191e-01  0 
 0  0  0 

 1.884244e-01  -4.457601e-01  0 
 -4.457601e-01  -2.533319e-01  0 
 0  0  0 

 8.468449e-02  -5.814941e-01  0 
 -5.814941e-01  -3.465934e-01  0 
 0  0  0 

 1.358820e+00  -7.291576e-02  0 
 -7.291576e-02  -1.589614e+00  0 
 0  0  0 

 4.219481e-01  -4.197503e-01  0 
 -4.197503e-01  -2.484849e-01  0 
 0  0  0 

 9.308864e-01  -3.977658e-01  0 
 -3.977658e-01  -1.808798e+00  0 
 0  0  0 

 2.936194e-03  -7.128237e-03  0 
 -7.128237e-03  4.694020e-04  0 
 0  0  0 

 2.286802e-03  -6.395037e-03  0 
 -6.395037e-03  2.649637e-03  0 
 0  0  0 

TENSORS element_stresses FLOAT
 2.833174e-03  6.490054e-03  0 
 6.490054e-03  -4.646307e-04  0 
 0  0  0 

 4.779500e-03  -1.725876e-03  0 
 -1.725876e-03  1.074721e-02  0 
 0  0  0 

 3.608080e-03  -3.823741e-04  0 
 -3.823741e-04  7.763804e-03  0 
 0  0  0 

 4.407442e-03  3.848619e-03  0 
 3.848619e-03  1.533919e-03  0 
 0  0  0 

 3.988147e-03  3.072021e-03  0 
 3.072021e-03  -8.916196e-04  0 
 0  0  0 

 3.293123e-03  5.533952e-04  0 
 5.533952e-04  8.611382e-03  0 
 0  0  0 

 1.572171e-03  -1.313273e-03  0 
 -1.313273e-03  2.227604e-03  0 
 0  0  0 

 1.258409e+00  1.296248e-01  0 
 1.296248e-01  -9.897638e-01  0 
 0  0  0 

 1.056595e+00  -5.302236e-02  0 
 -5.302236e-02  -7.411450e-01  0 
 0  0  0 

 4.249137e-01  -3.211453e-01  0 
 -3.211453e-01  -8.599749e-01  0 
 0  0  0 

 5.662699e-01  -1.513683e-01  0 
 -1.513683e-01  -7.053887e-01  0 
 0  0  0 

 1.447285e-01  2.057968e-01  0 
 2.057968e-01  -3.680378e-01  0 
 0  0  0 

 6.432204e-02  -3.451556e-01  0 
 -3.451556e-01  2.945137e-01  0 
 0  0  0 

 5.577163e-02  -2.042392e-01  0 
 -2.042392e-01  3.061574e-01  0 
 0  0  0 

 1.550299e-02  9.990282e-02  0 
 9.990282e-02  -1.309932e+00  0 
 0  0  0 

 7.387377e-01  -1.312161e-01  0 
 -1.312161e-01  -6.548166e-01  0 
 0  0  0 

 2.253190e-01  -5.272429e-01  0 
 -5.272429e-01  -2.987004e-01  0 
 0  0  0 

 3.405143e-02  -2.443820e-01  0 
 -2.443820e-01  -2.886191e-01  0 
 0  0  0 

 1.884244e-01  -4.457601e-01  0 
 -4.457601e-01  -2.533319e-01  0 
 0  0  0 

 8.468449e-02  -5.814941e-01  0 
 -5.814941e-01  -3.465934e-01  0 
 0  0  0 

 1.358820e+00  -7.291576e-02  0 
 -7.291576e-02  -1.589614e+00  0 
 0  0  0 

 4.219481e-01  -4.197503e-01  0 
 -4.197503e-01  -2.484849e-01  0 
 0  0  0 

 9.308864e-01  -3.977658e-01  0 
 -3.977658e-01  -1.808798e+00  0 
 0  0  0 

 2.936194e-03  -7.128237e-03  0 
 -7.128237e-03  4.694020e-04  0 
 0  0  0 

 2.286802e-03  -6.395037e-03  0 
 -6.395037e-03  2.649637e-03  0 
 0  0  0 

