# vtk DataFile Version 3.1
this is an vtk file created by FEMAC
ASCII
DATASET UNSTRUCTURED_GRID
POINTS 31 FLOAT
2.000000 3.000000 0.000000
1.500000 2.000000 0.000000
1.500000 3.000000 0.000000
1.750000 3.000000 0.000000
2.000000 2.250000 0.000000
2.000000 2.500000 0.000000
2.000000 2.750000 0.000000
2.000000 3.250000 0.000000
2.250000 3.000000 0.000000
2.500000 3.000000 0.000000
2.750000 3.000000 0.000000
1.556014 2.528684 0.000000
1.745000 2.805000 0.000000
1.745000 2.195000 0.000000
1.831148 2.378957 0.000000
1.758843 2.566179 0.000000
1.339859 2.197089 0.000000
1.387500 2.413333 0.000000
1.588338 2.325606 0.000000
1.548715 2.715781 0.000000
1.805000 3.255000 0.000000
1.630982 3.182178 0.000000
2.195000 2.745000 0.000000
2.378957 2.831148 0.000000
2.566179 2.758843 0.000000
2.325606 2.588338 0.000000
2.769602 3.187596 0.000000
2.368420 3.207407 0.000000
2.275508 3.443567 0.000000
2.567037 3.328363 0.000000
2.181111 3.179494 0.000000
CELLS 42 168 
3 2 12  3
3 14  4  5
3 6 15  5
3 19 15 12
3 14 18 13
3 12 15  6
3 14 13  4
3 18  1 13
3 16  1 18
3 11 17 18
3 16 18 17
3 2 19 12
3 12  0  3
3 6  0 12
3 14  5 15
3 11 18 15
3 19 11 15
3 14 15 18
3 3 21  2
3 20 21  3
3 0 20  3
3 0  7 20
3 5 22  6
3 8 23  9
3 24 10  9
3 25 23 22
3 22 23  8
3 5 25 22
3 22  0  6
3 8  0 22
3 9 23 24
3 24 23 25
3 26  9 10
3 27  8  9
3 29  9 26
3 27  9 29
3 30  7  0
3 8 30  0
3 27 30  8
3 27 29 28
3 27 28 30
3 7 30 28
CELL_TYPES 42
5 5 5 5 5 5 5 5 5 5 5 5 5 5 5 5 5 5 5 5 5 5 5 5 5 5 5 5 5 5 5 5 5 5 5 5 5 5 5 5 5 5 
POINT_DATA 31
VECTORS displacement_ITER1 FLOAT
 -1.211461e-02  -4.504098e-02  0 
 5.353101e-04  -1.607694e-02  0 
 -1.219060e-02  3.138031e-03  0 
 -1.215538e-02  -2.096186e-02  0 
 -3.435472e-02  -2.930591e-02  0 
 -5.928054e-02  -4.507721e-02  0 
 -3.570296e-02  -4.507179e-02  0 
 1.186305e-02  -4.499907e-02  0 
 -1.206824e-02  -6.871919e-02  0 
 -1.202223e-02  -9.241988e-02  0 
 -1.199568e-02  -1.161797e-01  0 
 -3.918041e-02  -1.172890e-02  0 
 -2.901375e-02  -1.890587e-02  0 
 -2.549595e-02  -2.370999e-02  0 
 -4.647713e-02  -3.104197e-02  0 
 -4.713459e-02  -1.948575e-02  0 
 -2.237402e-02  -3.004942e-02  0 
 -3.043575e-02  -1.726861e-02  0 
 -3.584732e-02  -2.260172e-02  0 
 -3.611147e-02  7.598909e-04  0 
 1.236278e-02  -2.627707e-02  0 
 5.359310e-03  -9.517728e-03  0 
 -3.618403e-02  -6.348491e-02  0 
 -2.803299e-02  -8.091445e-02  0 
 -3.488097e-02  -9.866706e-02  0 
 -5.099710e-02  -7.585863e-02  0 
 -4.328209e-03  -1.273796e-01  0 
 2.938675e-03  -8.038590e-02  0 
 1.755578e-02  -7.113570e-02  0 
 9.371863e-03  -9.837587e-02  0 
 2.874282e-03  -6.390622e-02  0 
VECTORS displacement_ITER2 FLOAT
 2.643417e-02  -6.318953e-02  0 
 -2.075593e-02  1.295481e-02  0 
 2.633901e-02  -4.993483e-02  0 
 2.638368e-02  -5.656820e-02  0 
 -3.280907e-03  -7.803124e-02  0 
 1.822833e-02  -6.327361e-02  0 
 2.233936e-02  -6.324283e-02  0 
 3.291896e-02  -6.312773e-02  0 
 2.647265e-02  -6.739706e-02  0 
 2.649740e-02  -7.158620e-02  0 
 2.650985e-02  -7.579500e-02  0 
 2.069820e-02  -2.169397e-02  0 
 2.600076e-02  -5.036432e-02  0 
 -1.208059e-04  -3.548076e-02  0 
 1.351199e-02  -4.792867e-02  0 
 2.308947e-02  -4.440685e-02  0 
 -6.500620e-03  1.911589e-02  0 
 1.572524e-02  5.320899e-03  0 
 9.320388e-03  -1.908769e-02  0 
 2.242420e-02  -3.549853e-02  0 
 3.307726e-02  -5.804918e-02  0 
 3.116090e-02  -5.344889e-02  0 
 2.224032e-02  -6.646322e-02  0 
 2.367517e-02  -6.954201e-02  0 
 2.247655e-02  -7.267660e-02  0 
 1.964982e-02  -6.864541e-02  0 
 1.746777e-02  -8.024742e-02  0 
 2.539803e-02  -6.826331e-02  0 
 2.088924e-02  -6.438509e-02  0 
 2.062900e-02  -6.774595e-02  0 
 2.840698e-02  -6.753781e-02  0 
VECTORS displacement_ITER3 FLOAT
 1.671068e-02  -5.322378e-02  0 
 -3.738471e-02  1.911006e-02  0 
 1.661073e-02  -5.128720e-02  0 
 1.665540e-02  -5.225240e-02  0 
 -1.752090e-02  -7.811423e-02  0 
 1.970163e-02  -5.334481e-02  0 
 1.821820e-02  -5.329868e-02  0 
 1.751654e-02  -5.313754e-02  0 
 1.675035e-02  -5.185258e-02  0 
 1.677076e-02  -5.044258e-02  0 
 1.677845e-02  -4.903752e-02  0 
 1.651857e-02  -1.622495e-02  0 
 2.062311e-02  -4.588425e-02  0 
 -1.203357e-02  -2.854205e-02  0 
 9.430264e-03  -3.940005e-02  0 
 2.152183e-02  -3.926783e-02  0 
 -1.699343e-02  3.044887e-02  0 
 8.057330e-03  1.453364e-02  0 
 1.767449e-03  -1.047659e-02  0 
 1.872994e-02  -3.490886e-02  0 
 1.756942e-02  -5.248702e-02  0 
 1.730140e-02  -5.182970e-02  0 
 1.822583e-02  -5.215416e-02  0 
 1.773373e-02  -5.111366e-02  0 
 1.815844e-02  -5.005370e-02  0 
 1.914874e-02  -5.141007e-02  0 
 4.154385e-03  -5.023051e-02  0 
 1.150670e-02  -4.941785e-02  0 
 2.559747e-03  -4.701052e-02  0 
 4.200347e-03  -4.360548e-02  0 
 1.495177e-02  -5.298396e-02  0 
VECTORS displacement_ITER4 FLOAT
 -1.705313e-03  -3.819714e-02  0 
 -5.727550e-03  -2.198970e-02  0 
 -1.800446e-03  -1.920533e-02  0 
 -1.763951e-03  -2.868859e-02  0 
 -2.464193e-02  -4.745673e-02  0 
 -1.817167e-02  -3.833460e-02  0 
 -9.935748e-03  -3.828490e-02  0 
 7.624187e-03  -3.809724e-02  0 
 -1.651354e-03  -4.658312e-02  0 
 -1.609274e-03  -5.494519e-02  0 
 -1.589404e-03  -6.333940e-02  0 
 -7.573272e-03  -2.138197e-02  0 
 -6.264753e-03  -2.665182e-02  0 
 -1.148259e-02  -3.312385e-02  0 
 -1.527382e-02  -3.265643e-02  0 
 -1.196767e-02  -2.701721e-02  0 
 -7.151429e-03  -2.111739e-02  0 
 -4.283346e-03  -1.799428e-02  0 
 -9.818344e-03  -2.652124e-02  0 
 -7.042832e-03  -1.904812e-02  0 
 7.850052e-03  -3.079676e-02  0 
 5.094229e-03  -2.419929e-02  0 
 -1.012506e-02  -4.473021e-02  0 
 -7.254410e-03  -5.087251e-02  0 
 -9.655689e-03  -5.713428e-02  0 
 -1.531010e-02  -4.908488e-02  0 
 -2.824620e-03  -6.780064e-02  0 
 2.473784e-03  -4.981757e-02  0 
 5.477208e-03  -4.507498e-02  0 
 2.633504e-03  -5.441812e-02  0 
 3.531473e-03  -4.487484e-02  0 
VECTORS displacement_ITER5 FLOAT
 -1.377328e-03  -1.687279e-02  0 
 3.310893e-03  -1.843012e-02  0 
 -1.482913e-03  3.447460e-03  0 
 -1.444258e-03  -6.695174e-03  0 
 -1.611587e-02  -1.378645e-02  0 
 -2.145917e-02  -1.702339e-02  0 
 -1.141590e-02  -1.697011e-02  0 
 8.603763e-03  -1.676335e-02  0 
 -1.313289e-03  -2.708502e-02  0 
 -1.258798e-03  -3.727598e-02  0 
 -1.232162e-03  -4.751061e-02  0 
 -8.330545e-03  -7.521926e-03  0 
 -7.610891e-03  -5.811243e-03  0 
 -6.817100e-03  -1.716265e-02  0 
 -1.620433e-02  -1.397871e-02  0 
 -1.470642e-02  -7.890159e-03  0 
 -8.063911e-04  -1.823190e-02  0 
 -2.746095e-03  -1.105279e-02  0 
 -7.953514e-03  -1.490467e-02  0 
 -7.884126e-03  -2.899908e-04  0 
 8.844150e-03  -8.953065e-03  0 
 5.892183e-03  -1.891424e-03  0 
 -1.164304e-02  -2.482649e-02  0 
 -8.143016e-03  -3.231119e-02  0 
 -1.107072e-02  -3.994339e-02  0 
 -1.796546e-02  -3.013260e-02  0 
 1.854721e-03  -5.298869e-02  0 
 5.315673e-03  -3.180944e-02  0 
 1.229149e-02  -2.729894e-02  0 
 8.378415e-03  -3.948903e-02  0 
 5.112489e-03  -2.460635e-02  0 
VECTORS displacement_ITER6 FLOAT
 7.185400e-04  -1.861670e-02  0 
 -3.364732e-03  -1.488347e-02  0 
 6.045301e-04  -1.177426e-02  0 
 6.480834e-04  -1.517612e-02  0 
 -8.269262e-03  -1.079567e-02  0 
 -8.174887e-03  -1.878092e-02  0 
 -3.721543e-03  -1.872269e-02  0 
 3.949459e-03  -1.849789e-02  0 
 7.830480e-04  -2.324080e-02  0 
 8.374239e-04  -2.783589e-02  0 
 8.641504e-04  -3.247091e-02  0 
 -2.257611e-03  -9.704550e-03  0 
 -1.059898e-03  -1.311952e-02  0 
 -6.675680e-03  -1.343199e-02  0 
 -8.408787e-03  -1.417671e-02  0 
 -4.666818e-03  -1.275557e-02  0 
 -2.297193e-03  -1.116374e-02  0 
 -1.163563e-03  -7.335272e-03  0 
 -5.544221e-03  -1.212701e-02  0 
 -9.603760e-04  -9.783139e-03  0 
 4.057236e-03  -1.595125e-02  0 
 3.069528e-03  -1.358542e-02  0 
 -3.838648e-03  -2.221603e-02  0 
 -2.266551e-03  -2.558160e-02  0 
 -3.573690e-03  -2.902108e-02  0 
 -6.652193e-03  -2.459777e-02  0 
 1.405680e-03  -3.710805e-02  0 
 3.247990e-03  -2.551497e-02  0 
 6.410412e-03  -2.345116e-02  0 
 4.731207e-03  -2.944616e-02  0 
 2.976800e-03  -2.194492e-02  0 
VECTORS displacement_ITER7 FLOAT
 4.856184e-03  -1.402805e-02  0 
 -6.630898e-03  -6.594064e-03  0 
 4.740064e-03  -1.466928e-02  0 
 4.784287e-03  -1.432659e-02  0 
 -1.741132e-03  -9.939403e-03  0 
 4.344864e-03  -1.421502e-02  0 
 4.607821e-03  -1.414582e-02  0 
 4.336180e-03  -1.390002e-02  0 
 4.919873e-03  -1.447039e-02  0 
 4.974723e-03  -1.487820e-02  0 
 5.003490e-03  -1.532620e-02  0 
 6.882911e-03  -5.810585e-03  0 
 6.531739e-03  -1.179295e-02  0 
 -2.958495e-03  -7.905777e-03  0 
 1.371462e-03  -1.011284e-02  0 
 6.327661e-03  -1.061787e-02  0 
 6.554021e-04  9.523136e-04  0 
 5.653741e-03  1.177790e-03  0 
 1.279698e-03  -5.549673e-03  0 
 7.822516e-03  -1.044119e-02  0 
 4.372219e-03  -1.427754e-02  0 
 4.475569e-03  -1.451888e-02  0 
 4.570644e-03  -1.437106e-02  0 
 4.698401e-03  -1.465160e-02  0 
 4.603070e-03  -1.495236e-02  0 
 4.385369e-03  -1.456366e-02  0 
 4.201807e-03  -2.046471e-02  0 
 4.732385e-03  -1.518690e-02  0 
 5.355964e-03  -1.491368e-02  0 
 5.302821e-03  -1.690268e-02  0 
 4.578158e-03  -1.435244e-02  0 
VECTORS displacement_ITER8 FLOAT
 3.926999e-03  -8.728839e-03  0 
 -6.737426e-03  -2.524541e-03  0 
 3.807668e-03  -1.071031e-02  0 
 3.853577e-03  -9.697771e-03  0 
 -3.684883e-03  -4.139487e-03  0 
 4.993478e-03  -8.915001e-03  0 
 4.468961e-03  -8.847133e-03  0 
 2.732421e-03  -8.598179e-03  0 
 3.992319e-03  -8.383725e-03  0 
 4.048413e-03  -8.002307e-03  0 
 4.078334e-03  -7.660291e-03  0 
 4.613746e-03  8.713124e-05  0 
 5.896289e-03  -7.244788e-03  0 
 -6.356292e-03  1.058275e-03  0 
 1.273462e-04  -3.407198e-03  0 
 5.693001e-03  -5.596205e-03  0 
 -1.048866e-03  4.760035e-03  0 
 1.769622e-03  6.920315e-03  0 
 -2.208996e-03  1.921233e-03  0 
 6.830898e-03  -5.986554e-03  0 
 2.755827e-03  -9.501100e-03  0 
 3.055353e-03  -1.020977e-02  0 
 4.448214e-03  -8.457196e-03  0 
 4.304751e-03  -8.157219e-03  0 
 4.438826e-03  -7.866169e-03  0 
 4.758131e-03  -8.237230e-03  0 
 3.489970e-03  -1.303854e-02  0 
 3.552427e-03  -8.980592e-03  0 
 4.213803e-03  -9.196110e-03  0 
 4.302136e-03  -1.059539e-02  0 
 3.271171e-03  -8.496474e-03  0 
VECTORS displacement_ITER9 FLOAT
 -2.297297e-03  -7.314780e-03  0 
 1.163136e-03  -1.480376e-02  0 
 -2.414096e-03  -6.091833e-03  0 
 -2.370961e-03  -6.679247e-03  0 
 -4.873862e-03  -2.084577e-03  0 
 -3.691188e-03  -7.501975e-03  0 
 -2.987206e-03  -7.434653e-03  0 
 -1.892075e-03  -7.180471e-03  0 
 -2.227280e-03  -8.207017e-03  0 
 -2.166023e-03  -9.064814e-03  0 
 -2.132710e-03  -9.965281e-03  0 
 -1.945102e-03  -4.090022e-03  0 
 -1.695157e-03  -5.604321e-03  0 
 -6.743044e-03  -1.346490e-03  0 
 -5.024532e-03  -4.647926e-03  0 
 -2.405119e-03  -5.864073e-03  0 
 8.694585e-04  -1.050497e-02  0 
 -2.454276e-03  -3.756574e-03  0 
 -5.604471e-03  -3.919688e-03  0 
 -1.720767e-04  -5.790998e-03  0 
 -1.835077e-03  -6.833175e-03  0 
 -2.002039e-03  -6.425641e-03  0 
 -3.032318e-03  -8.004730e-03  0 
 -2.748451e-03  -8.616459e-03  0 
 -2.971614e-03  -9.253757e-03  0 
 -3.495854e-03  -8.430771e-03  0 
 -1.127469e-03  -1.627824e-02  0 
 -1.247883e-03  -9.861712e-03  0 
 1.342341e-03  -9.957341e-03  0 
 6.456504e-04  -1.320753e-02  0 
 -1.823471e-03  -8.164600e-03  0 
VECTORS displacement_ITER10 FLOAT
 -1.747381e-03  2.681227e-03  0 
 6.486739e-03  -1.040203e-02  0 
 -1.859648e-03  6.131099e-03  0 
 -1.819178e-03  4.430707e-03  0 
 -3.232398e-03  3.892075e-03  0 
 -4.081310e-03  2.495384e-03  0 
 -2.909008e-03  2.562867e-03  0 
 -2.235600e-04  2.813394e-03  0 
 -1.677092e-03  1.320391e-03  0 
 -1.613892e-03  -8.635876e-06  0 
 -1.578650e-03  -1.382549e-03  0 
 -1.276877e-03  2.915002e-03  0 
 -1.818374e-03  4.525175e-03  0 
 -3.890363e-03  5.558520e-03  0 
 -3.439199e-03  3.153234e-03  0 
 -2.433712e-03  2.937020e-03  0 
 4.500662e-03  -7.353972e-03  0 
 -7.524794e-04  4.850772e-04  0 
 -3.379962e-03  2.298093e-03  0 
 1.657682e-04  3.439976e-03  0 
 -1.448123e-04  4.033107e-03  0 
 -6.364946e-04  5.217558e-03  0 
 -2.963081e-03  1.626933e-03  0 
 -2.516629e-03  6.691503e-04  0 
 -2.876627e-03  -3.212381e-04  0 
 -3.721633e-03  9.554427e-04  0 
 6.535725e-04  -7.948296e-03  0 
 2.247308e-04  -7.727589e-04  0 
 3.948179e-03  -8.079439e-04  0 
 2.834475e-03  -4.944447e-03  0 
 -4.988773e-04  1.394689e-03  0 
VECTORS displacement_ITER11 FLOAT
 -4.899609e-04  -6.155958e-03  0 
 -8.384457e-03  -2.664509e-03  0 
 -6.060032e-04  -9.561760e-03  0 
 -5.632963e-04  -7.834043e-03  0 
 -3.160673e-03  -1.278752e-02  0 
 4.930824e-03  -6.343797e-03  0 
 2.229115e-03  -6.274228e-03  0 
 -2.396822e-03  -6.024634e-03  0 
 -4.209571e-04  -3.637035e-03  0 
 -3.617507e-04  -1.079588e-03  0 
 -3.296197e-04  1.441669e-03  0 
 3.870193e-03  -2.751354e-03  0 
 2.695083e-03  -6.824182e-03  0 
 -6.083810e-03  -6.789538e-04  0 
 2.402122e-03  -5.369699e-03  0 
 5.312545e-03  -6.879849e-03  0 
 -2.006181e-03  3.390146e-03  0 
 1.063560e-03  3.261118e-03  0 
 -1.314145e-03  6.400802e-05  0 
 5.099078e-03  -8.379452e-03  0 
 -2.386281e-03  -7.479555e-03  0 
 -1.879719e-03  -8.681115e-03  0 
 2.252374e-03  -4.185685e-03  0 
 1.361825e-03  -2.286286e-03  0 
 2.126422e-03  -3.662581e-04  0 
 3.926029e-03  -2.828205e-03  0 
 -1.600160e-03  -3.130069e-03  0 
 -1.810045e-03  -3.471954e-03  0 
 -2.115941e-03  -4.505953e-03  0 
 -1.650540e-03  -3.675633e-03  0 
 -1.841316e-03  -4.546595e-03  0 
VECTORS displacement_ITER12 FLOAT
 -3.127077e-03  4.917255e-04  0 
 -6.263978e-03  1.544706e-03  0 
 -3.244201e-03  -1.051487e-04  0 
 -3.201308e-03  2.180069e-04  0 
 -2.818447e-03  -3.767553e-03  0 
 -4.765593e-04  3.133682e-04  0 
 -1.793287e-03  3.783162e-04  0 
 -3.626538e-03  6.190978e-04  0 
 -3.055713e-03  1.627570e-03  0 
 -2.994680e-03  2.799380e-03  0 
 -2.962986e-03  3.934403e-03  0 
 3.307787e-04  2.035458e-03  0 
 -1.264656e-03  6.247108e-04  0 
 -5.527882e-03  3.505877e-03  0 
 -6.882872e-04  1.363019e-04  0 
 5.865819e-04  -1.540653e-04  0 
 -2.441723e-03  4.945300e-03  0 
 -8.106375e-04  5.235692e-03  0 
 -2.591190e-03  3.499734e-03  0 
 9.129318e-04  -8.417286e-04  0 
 -3.589270e-03  2.621573e-04  0 
 -3.493144e-03  4.053716e-05  0 
 -1.795903e-03  1.386741e-03  0 
 -2.207920e-03  2.264564e-03  0 
 -1.844590e-03  3.144329e-03  0 
 -9.921587e-04  2.019421e-03  0 
 -3.480530e-03  3.233809e-04  0 
 -3.361821e-03  1.433479e-03  0 
 -2.568218e-03  1.161488e-03  0 
 -2.822655e-03  6.847786e-04  0 
 -3.462343e-03  1.218583e-03  0 
VECTORS displacement_ITER13 FLOAT
 -5.623997e-03  4.927021e-03  0 
 1.008698e-02  -8.706187e-03  0 
 -5.736098e-03  1.157127e-02  0 
 -5.696815e-03  8.275045e-03  0 
 -5.171128e-04  7.633448e-03  0 
 -1.116554e-02  4.761457e-03  0 
 -8.388915e-03  4.819573e-03  0 
 -2.494952e-03  5.049238e-03  0 
 -5.549146e-03  1.968189e-03  0 
 -5.482942e-03  -9.628147e-04  0 
 -5.449763e-03  -3.937829e-03  0 
 -5.103709e-03  1.036759e-03  0 
 -7.362906e-03  7.335750e-03  0 
 -1.210697e-04  2.226063e-03  0 
 -5.905826e-03  2.522793e-03  0 
 -8.324324e-03  4.626316e-03  0 
 4.504632e-03  -1.151798e-02  0 
 -1.542991e-03  -5.393603e-03  0 
 -2.607643e-03  -1.530767e-03  0 
 -5.574065e-03  5.899305e-03  0 
 -2.387230e-03  7.523443e-03  0 
 -3.347365e-03  9.824881e-03  0 
 -8.471180e-03  2.633525e-03  0 
 -7.469778e-03  4.918950e-04  0 
 -8.294648e-03  -1.704553e-03  0 
 -1.023861e-02  1.122321e-03  0 
 -2.627884e-03  -7.439443e-03  0 
 -2.580136e-03  -7.973348e-05  0 
 1.869871e-03  1.073616e-03  0 
 -4.424018e-05  -4.007535e-03  0 
 -3.231168e-03  2.772040e-03  0 
VECTORS displacement_ITER14 FLOAT
 -1.053605e-03  -2.345384e-03  0 
 -8.979233e-03  7.680803e-03  0 
 -1.165101e-03  -2.866161e-03  0 
 -1.125619e-03  -2.580136e-03  0 
 -4.291331e-03  -7.275181e-03  0 
 1.986360e-03  -2.507950e-03  0 
 4.773499e-04  -2.450010e-03  0 
 -1.506809e-03  -2.225373e-03  0 
 -9.846578e-04  -1.003521e-03  0 
 -9.302008e-04  3.784422e-04  0 
 -9.061201e-04  1.733956e-03  0 
 1.873382e-03  1.178763e-03  0 
 6.901946e-04  -1.935555e-03  0 
 -4.168690e-03  4.957337e-04  0 
 4.251936e-04  -1.304326e-03  0 
 2.443657e-03  -1.648402e-03  0 
 -4.123916e-03  9.133683e-03  0 
 4.682780e-04  6.105915e-03  0 
 -8.962817e-04  2.826637e-03  0 
 1.986573e-03  -2.326181e-03  0 
 -1.470498e-03  -2.545082e-03  0 
 -1.386750e-03  -2.737330e-03  0 
 4.816660e-04  -1.288944e-03  0 
 4.973834e-07  -2.625251e-04  0 
 4.230511e-04  7.706625e-04  0 
 1.409204e-03  -5.508780e-04  0 
 -3.067329e-03  1.769247e-03  0 
 -2.095465e-03  -1.195169e-05  0 
 -3.100786e-03  5.744923e-04  0 
 -3.179206e-03  1.502625e-03  0 
 -1.584606e-03  -1.211190e-03  0 
VECTORS displacement_ITER15 FLOAT
 -1.974653e-03  7.918849e-04  0 
 3.246015e-03  -2.325178e-05  0 
 -2.075172e-03  5.603091e-03  0 
 -2.042731e-03  3.224662e-03  0 
 -2.942604e-03  2.425402e-03  0 
 -4.594705e-03  6.415739e-04  0 
 -3.275561e-03  6.930144e-04  0 
 2.477958e-04  9.074762e-04  0 
 -1.906058e-03  -6.912433e-04  0 
 -1.852224e-03  -2.137759e-03  0 
 -1.830198e-03  -3.611677e-03  0 
 -1.810496e-03  9.533459e-04  0 
 -2.878939e-03  2.909518e-03  0 
 -4.070298e-04  3.742836e-04  0 
 -3.300114e-03  1.292296e-03  0 
 -3.396986e-03  2.113592e-03  0 
 1.106935e-03  -2.820915e-03  0 
 -2.188793e-04  -1.102675e-03  0 
 -1.092221e-03  -1.514756e-04  0 
 -2.122009e-03  2.786028e-03  0 
 3.360302e-04  2.675291e-03  0 
 -3.575221e-04  4.341621e-03  0 
 -3.325591e-03  -3.528873e-04  0 
 -2.831816e-03  -1.409446e-03  0 
 -3.228581e-03  -2.496734e-03  0 
 -4.172483e-03  -1.093717e-03  0 
 -1.972632e-03  -3.315672e-03  0 
 -8.398998e-04  -9.324788e-04  0 
 4.608103e-04  7.000355e-04  0 
 -7.581436e-04  -1.434670e-03  0 
 -5.959593e-04  -1.094437e-04  0 
VECTORS displacement_ITER16 FLOAT
 -7.949797e-04  -2.472850e-03  0 
 -2.842828e-03  3.667264e-03  0 
 -8.895659e-04  1.876006e-04  0 
 -8.606498e-04  -1.114626e-03  0 
 -2.773064e-03  -1.738037e-03  0 
 -7.245125e-04  -2.622195e-03  0 
 -7.496695e-04  -2.570830e-03  0 
 3.554190e-04  -2.358506e-03  0 
 -7.299997e-04  -2.606110e-03  0 
 -6.817843e-04  -2.698594e-03  0 
 -6.639853e-04  -2.812668e-03  0 
 -1.239066e-04  2.935123e-05  0 
 -6.730580e-04  -1.010951e-03  0 
 -1.838710e-03  -6.511218e-04  0 
 -1.440979e-03  -9.229547e-04  0 
 -3.680098e-04  -9.042041e-04  0 
 -1.874783e-03  2.420282e-03  0 
 -1.783140e-04  1.423527e-03  0 
 -9.803543e-04  3.184764e-04  0 
 -1.711047e-04  -7.276673e-04  0 
 4.220459e-04  -1.426679e-03  0 
 4.197819e-05  -5.082365e-04  0 
 -7.725949e-04  -2.567297e-03  0 
 -7.445524e-04  -2.629185e-03  0 
 -7.499046e-04  -2.702113e-03  0 
 -7.735901e-04  -2.601992e-03  0 
 -1.940593e-03  -1.850768e-03  0 
 -8.014436e-04  -2.055474e-03  0 
 -9.652781e-04  -7.389455e-04  0 
 -1.587850e-03  -1.208046e-03  0 
 -2.753254e-04  -2.391723e-03  0 
VECTORS displacement_ITER17 FLOAT
 -1.052081e-03  -2.056870e-03  0 
 -2.367385e-04  1.694399e-03  0 
 -1.141603e-03  4.534301e-04  0 
 -1.116093e-03  -7.727328e-04  0 
 -1.098297e-03  3.850582e-04  0 
 -1.517719e-03  -2.203319e-03  0 
 -1.275304e-03  -2.153657e-03  0 
 2.700132e-05  -1.944174e-03  0 
 -9.878848e-04  -2.456441e-03  0 
 -9.404356e-04  -2.816232e-03  0 
 -9.236909e-04  -3.198525e-03  0 
 -8.647376e-04  -3.004928e-04  0 
 -1.207383e-03  -7.616740e-04  0 
 -1.046637e-03  -1.996762e-04  0 
 -1.624460e-03  -7.398268e-04  0 
 -1.176747e-03  -7.200297e-04  0 
 -7.860597e-04  -1.387448e-04  0 
 -5.936736e-04  -9.730418e-05  0 
 -1.084691e-03  -1.855602e-04  0 
 -9.251065e-04  -4.519852e-04  0 
 9.132757e-05  -1.067562e-03  0 
 -2.670801e-04  -2.003575e-04  0 
 -1.303116e-03  -2.359050e-03  0 
 -1.183180e-03  -2.617725e-03  0 
 -1.266014e-03  -2.891031e-03  0 
 -1.471770e-03  -2.533266e-03  0 
 -1.535828e-03  -2.614419e-03  0 
 -7.811858e-04  -2.181199e-03  0 
 -4.858602e-04  -1.006626e-03  0 
 -1.132212e-03  -1.886805e-03  0 
 -4.595214e-04  -2.158652e-03  0 
VECTORS displacement_ITER18 FLOAT
 -5.206465e-04  -2.053209e-03  0 
 -8.977522e-04  6.254846e-04  0 
 -6.052250e-04  -5.082065e-04  0 
 -5.829030e-04  -1.250476e-03  0 
 -1.729895e-03  -2.282548e-03  0 
 -9.686581e-04  -2.201723e-03  0 
 -7.354838e-04  -2.151039e-03  0 
 7.884498e-05  -1.940796e-03  0 
 -4.576767e-04  -2.443390e-03  0 
 -4.109658e-04  -2.793872e-03  0 
 -3.948113e-04  -3.167530e-03  0 
 -5.225355e-04  -7.339880e-04  0 
 -6.193862e-04  -1.221079e-03  0 
 -1.437647e-03  -9.421010e-04  0 
 -1.083977e-03  -1.424427e-03  0 
 -6.295865e-04  -1.278990e-03  0 
 -8.216091e-04  -3.485048e-04  0 
 -5.005305e-04  -3.686576e-04  0 
 -9.511252e-04  -5.579476e-04  0 
 -4.082879e-04  -1.015247e-03  0 
 1.330312e-04  -1.437989e-03  0 
 -8.472225e-05  -9.064063e-04  0 
 -7.635332e-04  -2.349184e-03  0 
 -6.470796e-04  -2.600317e-03  0 
 -7.272085e-04  -2.866343e-03  0 
 -9.258365e-04  -2.517733e-03  0 
 -5.009313e-04  -2.779276e-03  0 
 -1.992844e-04  -2.254308e-03  0 
 2.800543e-04  -1.345584e-03  0 
 -2.299593e-04  -2.213738e-03  0 
 -9.425309e-05  -2.088359e-03  0 
VECTORS displacement_ITER19 FLOAT
 -1.130307e-04  -1.247656e-03  0 
 -1.189963e-03  2.890165e-05  0 
 -1.935946e-04  -6.994896e-04  0 
 -1.738028e-04  -9.421821e-04  0 
 -1.334772e-03  -2.813307e-03  0 
 -6.154054e-04  -1.398647e-03  0 
 -3.554542e-04  -1.346877e-03  0 
 -9.936580e-06  -1.134298e-03  0 
 -5.086548e-05  -1.665354e-03  0 
 -4.386814e-06  -2.043283e-03  0 
 1.167812e-05  -2.444851e-03  0 
 9.276557e-06  -9.707283e-04  0 
 -1.813444e-04  -9.361829e-04  0 
 -9.596607e-04  -1.588990e-03  0 
 -4.403480e-04  -1.531814e-03  0 
 -1.834191e-04  -1.151215e-03  0 
 -4.830327e-04  -3.763539e-04  0 
 1.102303e-04  -7.391526e-04  0 
 -2.341416e-04  -9.644066e-04  0 
 3.885427e-05  -1.015139e-03  0 
 3.422496e-05  -1.018721e-03  0 
 -3.809264e-05  -8.341521e-04  0 
 -3.845284e-04  -1.565981e-03  0 
 -2.589001e-04  -1.836604e-03  0 
 -3.469037e-04  -2.122898e-03  0 
 -5.633515e-04  -1.748147e-03  0 
 3.005229e-04  -2.287824e-03  0 
 1.697429e-04  -1.650601e-03  0 
 6.895618e-04  -1.091414e-03  0 
 3.773461e-04  -1.909075e-03  0 
 8.761501e-05  -1.312494e-03  0 
VECTORS displacement_ITER20 FLOAT
 5.433676e-04  -8.221725e-04  0 
 -8.836956e-04  5.986831e-04  0 
 4.645790e-04  -1.177225e-03  0 
 4.833313e-04  -9.678697e-04  0 
 1.100915e-04  -7.043277e-04  0 
 9.276892e-06  -9.718950e-04  0 
 2.854539e-04  -9.212528e-04  0 
 1.960921e-04  -7.084952e-04  0 
 6.047832e-04  -1.254820e-03  0 
 6.500813e-04  -1.646889e-03  0 
 6.648474e-04  -2.061364e-03  0 
 3.265577e-04  -6.428790e-04  0 
 4.580546e-04  -8.360414e-04  0 
 -2.917405e-04  -9.666332e-04  0 
 3.272324e-05  -9.776973e-04  0 
 2.908263e-04  -7.945850e-04  0 
 -2.734176e-04  1.492752e-04  0 
 3.174256e-04  -3.741068e-04  0 
 1.563864e-04  -5.439429e-04  0 
 4.082917e-04  -8.022533e-04  0 
 2.309039e-04  -9.443869e-04  0 
 2.903809e-04  -1.074471e-03  0 
 2.562996e-04  -1.152794e-03  0 
 3.867817e-04  -1.434175e-03  0 
 2.945951e-04  -1.731299e-03  0 
 6.811683e-05  -1.342790e-03  0 
 1.255136e-03  -1.950998e-03  0 
 7.905615e-04  -1.355987e-03  0 
 1.338564e-03  -1.097046e-03  0 
 1.178409e-03  -1.790900e-03  0 
 5.436952e-04  -8.898107e-04  0 
VECTORS displacement_ITER21 FLOAT
 6.166310e-04  -4.797648e-04  0 
 -4.890511e-04  -1.609291e-04  0 
 5.393319e-04  -8.618879e-04  0 
 5.573030e-04  -6.386044e-04  0 
 2.344367e-04  9.431235e-04  0 
 -4.584307e-05  -6.277000e-04  0 
 2.950502e-04  -5.785856e-04  0 
 2.568163e-04  -3.653510e-04  0 
 6.772584e-04  -9.755529e-04  0 
 7.204655e-04  -1.428619e-03  0 
 7.329376e-04  -1.901413e-03  0 
 -3.322095e-04  -3.945589e-04  0 
 3.186353e-04  -5.901054e-04  0 
 -5.094144e-04  -3.937846e-04  0 
 -3.972003e-04  -3.522762e-04  0 
 -1.419796e-04  -4.150292e-04  0 
 -3.989012e-04  -5.834200e-04  0 
 -4.712256e-04  -6.220369e-04  0 
 -4.121205e-04  -3.141798e-04  0 
 -6.709641e-05  -3.615567e-04  0 
 2.911989e-04  -6.111998e-04  0 
 3.548791e-04  -7.511542e-04  0 
 2.651316e-04  -8.604050e-04  0 
 4.170922e-04  -1.187779e-03  0 
 3.072326e-04  -1.531038e-03  0 
 3.778016e-05  -1.083184e-03  0 
 1.807455e-03  -1.605664e-03  0 
 1.053911e-03  -1.109240e-03  0 
 1.824919e-03  -9.374368e-04  0 
 1.670611e-03  -1.667347e-03  0 
 6.908929e-04  -5.548027e-04  0 
VECTORS displacement_ITER22 FLOAT
 7.055369e-04  -5.811474e-04  0 
 -8.940220e-04  -9.935272e-04  0 
 6.311654e-04  -9.179313e-04  0 
 6.478524e-04  -7.170104e-04  0 
 -9.380656e-04  -5.679972e-04  0 
 3.540116e-04  -7.286297e-04  0 
 5.396030e-04  -6.800013e-04  0 
 3.702986e-04  -4.659978e-04  0 
 7.645495e-04  -9.199916e-04  0 
 8.048752e-04  -1.213624e-03  0 
 8.148661e-04  -1.523908e-03  0 
 -4.687902e-04  -5.057636e-04  0 
 4.067865e-04  -7.804522e-04  0 
 -1.056071e-03  -7.439559e-04  0 
 -4.405041e-04  -4.558685e-04  0 
 -5.971100e-05  -6.066759e-04  0 
 -5.981554e-04  -9.245767e-04  0 
 -8.154910e-04  -7.975029e-04  0 
 -6.939108e-04  -4.128974e-04  0 
 -9.491276e-05  -4.893916e-04  0 
 4.052031e-04  -6.929377e-04  0 
 4.628179e-04  -8.178179e-04  0 
 5.130240e-04  -8.406697e-04  0 
 6.104900e-04  -1.051699e-03  0 
 5.466783e-04  -1.275608e-03  0 
 3.846727e-04  -9.807902e-04  0 
 2.078627e-03  -1.132368e-03  0 
 1.139659e-03  -9.968399e-04  0 
 1.829764e-03  -9.334352e-04  0 
 1.779557e-03  -1.495565e-03  0 
 7.808922e-04  -5.708453e-04  0 
VECTORS displacement_ITER23 FLOAT
 3.053273e-04  -4.485200e-04  0 
 -9.569117e-04  -1.144131e-03  0 
 2.325908e-04  -3.614747e-04  0 
 2.489136e-04  -3.727351e-04  0 
 -1.128616e-03  -7.869603e-04  0 
 -2.388306e-04  -5.939994e-04  0 
 4.311148e-05  -5.465395e-04  0 
 1.838686e-04  -3.337351e-04  0 
 3.632688e-04  -8.822475e-04  0 
 4.014044e-04  -1.269502e-03  0 
 4.092605e-04  -1.671260e-03  0 
 -8.482743e-04  -4.339350e-04  0 
 -9.508515e-05  -5.104055e-04  0 
 -1.139912e-03  -1.041698e-03  0 
 -7.548734e-04  -5.468922e-04  0 
 -5.788731e-04  -4.465205e-04  0 
 -7.209495e-04  -1.020468e-03  0 
 -9.911875e-04  -9.050899e-04  0 
 -8.343787e-04  -5.658787e-04  0 
 -6.206224e-04  -1.259841e-04  0 
 2.227375e-04  -3.940263e-04  0 
 2.191197e-04  -3.721425e-04  0 
 1.497968e-05  -7.825444e-04  0 
 1.449471e-04  -1.063473e-03  0 
 5.386749e-05  -1.357856e-03  0 
 -1.729421e-04  -9.722527e-04  0 
 1.851549e-03  -1.325269e-03  0 
 8.555241e-04  -1.042692e-03  0 
 1.628574e-03  -9.850436e-04  0 
 1.565228e-03  -1.676987e-03  0 
 4.996911e-04  -5.507166e-04  0 
VECTORS displacement_ITER24 FLOAT
 1.519097e-04  -8.329720e-04  0 
 -1.219453e-03  -5.093810e-04  0 
 7.927706e-05  -5.663212e-04  0 
 9.643051e-05  -6.683519e-04  0 
 -4.097807e-04  -6.272705e-04  0 
 -5.868291e-04  -9.732238e-04  0 
 -2.071112e-04  -9.285431e-04  0 
 1.228373e-04  -7.205862e-04  0 
 2.088227e-04  -1.361209e-03  0 
 2.442987e-04  -1.842096e-03  0 
 2.491887e-04  -2.334932e-03  0 
 -7.201218e-04  -5.217403e-04  0 
 -2.518512e-04  -7.122348e-04  0 
 -7.069541e-04  -1.625070e-03  0 
 -6.995456e-04  -1.024766e-03  0 
 -6.907151e-04  -6.117467e-04  0 
 -7.482010e-04  -4.056432e-04  0 
 -5.730494e-04  -7.546063e-04  0 
 -4.609929e-04  -8.712976e-04  0 
 -7.985817e-04  -1.233654e-04  0 
 1.623389e-04  -7.086893e-04  0 
 1.329413e-04  -6.252089e-04  0 
 -2.363288e-04  -1.240727e-03  0 
 -7.377625e-05  -1.592212e-03  0 
 -1.922655e-04  -1.957597e-03  0 
 -4.845823e-04  -1.480491e-03  0 
 1.760348e-03  -2.007311e-03  0 
 7.722280e-04  -1.555433e-03  0 
 1.604227e-03  -1.463371e-03  0 
 1.518816e-03  -2.254442e-03  0 
 4.106528e-04  -1.003565e-03  0 
VECTORS displacement_ITER25 FLOAT
 1.266323e-04  -8.426616e-04  0 
 -1.062579e-03  -1.214611e-03  0 
 5.445158e-05  -2.013682e-04  0 
 7.160770e-05  -4.907526e-04  0 
 -1.108153e-03  -1.085054e-03  0 
 -7.754954e-04  -9.793564e-04  0 
 -3.134592e-04  -9.367096e-04  0 
 2.864307e-04  -7.315212e-04  0 
 1.830220e-04  -1.451010e-03  0 
 2.161562e-04  -2.010230e-03  0 
 2.184932e-04  -2.578253e-03  0 
 -6.861902e-04  -5.190489e-04  0 
 -3.172186e-04  -5.515738e-04  0 
 -8.738917e-04  -2.014674e-03  0 
 -9.218901e-04  -1.073526e-03  0 
 -8.119229e-04  -5.452464e-04  0 
 -5.101090e-04  -8.108419e-04  0 
 -4.186243e-04  -8.813845e-04  0 
 -4.772110e-04  -1.082669e-03  0 
 -7.889033e-04  5.111396e-05  0 
 3.290067e-04  -5.720102e-04  0 
 2.450042e-04  -3.583064e-04  0 
 -3.436086e-04  -1.312858e-03  0 
 -1.533578e-04  -1.723735e-03  0 
 -2.943754e-04  -2.148392e-03  0 
 -6.422514e-04  -1.594370e-03  0 
 1.625758e-03  -2.057807e-03  0 
 7.957077e-04  -1.602035e-03  0 
 1.617338e-03  -1.387826e-03  0 
 1.463743e-03  -2.200728e-03  0 
 4.851881e-04  -1.061122e-03  0 
VECTORS displacement_ITER26 FLOAT
 -2.437059e-05  -9.699799e-04  0 
 -1.095680e-03  -1.284912e-03  0 
 -9.640672e-05  -5.857948e-04  0 
 -7.936716e-05  -7.462980e-04  0 
 -1.415464e-03  -1.366391e-03  0 
 -5.536457e-04  -1.104258e-03  0 
 -2.773770e-04  -1.063121e-03  0 
 7.507677e-06  -8.594300e-04  0 
 3.167677e-05  -1.391119e-03  0 
 6.301417e-05  -1.761519e-03  0 
 6.356464e-05  -2.138138e-03  0 
 -5.051097e-04  -4.879103e-04  0 
 -2.549425e-04  -7.231994e-04  0 
 -1.105006e-03  -1.904493e-03  0 
 -8.807429e-04  -1.076233e-03  0 
 -5.954616e-04  -6.765898e-04  0 
 -4.513393e-04  -6.662890e-04  0 
 -3.329300e-04  -5.962967e-04  0 
 -5.361558e-04  -9.366192e-04  0 
 -5.855149e-04  -2.080700e-04  0 
 4.712702e-05  -7.994655e-04  0 
 3.532615e-07  -6.750885e-04  0 
 -3.033406e-04  -1.294183e-03  0 
 -1.777001e-04  -1.567401e-03  0 
 -2.638606e-04  -1.850886e-03  0 
 -4.844603e-04  -1.477604e-03  0 
 1.047729e-03  -1.591879e-03  0 
 3.900432e-04  -1.444174e-03  0 
 8.716406e-04  -1.265437e-03  0 
 8.074789e-04  -1.797223e-03  0 
 1.778173e-04  -1.090713e-03  0 
VECTORS displacement_ITER27 FLOAT
 -1.333346e-04  -1.159797e-03  0 
 -9.910584e-04  -1.341689e-03  0 
 -2.056220e-04  -8.799319e-04  0 
 -1.885631e-04  -9.880118e-04  0 
 -7.784362e-04  -7.665262e-04  0 
 -6.470244e-04  -1.291206e-03  0 
 -3.780950e-04  -1.251698e-03  0 
 -1.521990e-04  -1.050915e-03  0 
 -7.735258e-05  -1.572131e-03  0 
 -4.683284e-05  -1.933464e-03  0 
 -4.730307e-05  -2.300031e-03  0 
 -4.278711e-04  -7.151171e-04  0 
 -2.891970e-04  -9.208374e-04  0 
 -1.035808e-03  -1.830584e-03  0 
 -8.450778e-04  -1.266243e-03  0 
 -5.618958e-04  -9.076723e-04  0 
 -3.958415e-04  -8.322568e-04  0 
 -2.558679e-04  -7.376080e-04  0 