# vtk DataFile Version 3.1
this is an vtk file created by FEMAC
ASCII
DATASET UNSTRUCTURED_GRID
POINTS 31 FLOAT
0.000000 0.000000 0.000000
1.000000 0.000000 0.000000
0.000000 1.000000 0.000000
1.000000 1.000000 0.000000
0.250000 0.000000 0.000000
0.500000 0.000000 0.000000
0.750000 0.000000 0.000000
0.250000 1.000000 0.000000
0.500000 1.000000 0.000000
0.750000 1.000000 0.000000
0.000000 0.250000 0.000000
0.000000 0.500000 0.000000
0.000000 0.750000 0.000000
1.000000 0.250000 0.000000
1.000000 0.500000 0.000000
1.000000 0.750000 0.000000
0.354092 0.524248 0.000000
0.804015 0.668485 0.000000
0.176539 0.642203 0.000000
0.279348 0.239607 0.000000
0.653111 0.819895 0.000000
0.376524 0.781795 0.000000
0.167416 0.439302 0.000000
0.576925 0.611220 0.000000
0.521903 0.318733 0.000000
0.757669 0.416286 0.000000
0.132337 0.122402 0.000000
0.841425 0.847676 0.000000
0.160613 0.834800 0.000000
0.734095 0.185003 0.000000
0.871024 0.108751 0.000000
CELLS 43 172 
3 17 14 15
3 11 18 12
3 5 19  4
3 16 24 23
3 17 25 14
3 25 17 23
3 7 21  8
3 10 22 11
3 20  9  8
3 20 23 17
3 23 24 25
3 19 22 10
3 20  8 21
3 16 21 18
3 16 23 21
3 20 21 23
3 11 22 18
3 16 22 19
3 22 16 18
3 19 24 16
3 24 19  5
3 4 26  0
3 10 26 19
3 26 10  0
3 26  4 19
3 9 27  3
3 15 27 17
3 27 15  3
3 28  7  2
3 28 12 18
3 12 28  2
3 28 21  7
3 18 21 28
3 20 27  9
3 20 17 27
3 6 29  5
3 29 24  5
3 30  6  1
3 13 30  1
3 6 30 29
3 29 25 24
3 25 29 13
3 30 13 29
CELL_TYPES 43
5 5 5 5 5 5 5 5 5 5 5 5 5 5 5 5 5 5 5 5 5 5 5 5 5 5 5 5 5 5 5 5 5 5 5 5 5 5 5 5 5 5 5 
POINT_DATA 31
VECTORS displacement_ITER1 FLOAT
 0  0  0 
 -2.709016e-04  -3.410358e-04  0 
 0  0  0 
 1.178325e-07  -2.170970e-04  0 
 -8.379123e-05  -9.924668e-05  0 
 -1.461167e-04  -1.583732e-04  0 
 -2.039046e-04  -2.350943e-04  0 
 1.551749e-05  -2.591939e-05  0 
 2.064049e-05  -6.464420e-05  0 
 1.608712e-05  -1.309325e-04  0 
 0  0  0 
 0  0  0 
 0  0  0 
 -1.583890e-04  -2.766541e-04  0 
 -1.060092e-04  -2.179475e-04  0 
 -5.742824e-05  -2.121521e-04  0 
 -2.951099e-05  -4.526760e-05  0 
 -5.736263e-05  -1.557643e-04  0 
 -8.434883e-06  -1.109437e-05  0 
 -4.269190e-05  -4.886111e-05  0 
 -1.882307e-05  -1.056411e-04  0 
 -8.779841e-06  -3.973351e-05  0 
 -1.478228e-05  -1.637564e-05  0 
 -4.244055e-05  -9.491206e-05  0 
 -7.442649e-05  -1.054215e-04  0 
 -9.098901e-05  -1.632926e-04  0 
 -2.273755e-05  -2.558968e-05  0 
 -2.626972e-05  -1.633031e-04  0 
 -1.294073e-06  -8.346440e-06  0 
 -1.437363e-04  -1.899846e-04  0 
 -1.936475e-04  -2.536683e-04  0 
VECTORS displacement_ITER2 FLOAT
 0  0  0 
 -2.737296e-04  -3.723015e-04  0 
 0  0  0 
 -1.639557e-05  -2.676827e-04  0 
 -9.121005e-05  -1.115070e-04  0 
 -1.559103e-04  -1.794623e-04  0 
 -2.124872e-04  -2.629220e-04  0 
 1.862154e-05  -3.877192e-05  0 
 2.154848e-05  -8.876492e-05  0 
 1.058898e-05  -1.676020e-04  0 
 0  0  0 
 0  0  0 
 0  0  0 
 -1.649804e-04  -3.096748e-04  0 
 -1.048220e-04  -2.453632e-04  0 
 -6.172471e-05  -2.463195e-04  0 
 -3.251373e-05  -6.108410e-05  0 
 -6.176040e-05  -1.901275e-04  0 
 -1.003221e-05  -1.865170e-05  0 
 -4.522262e-05  -5.973673e-05  0 
 -2.491322e-05  -1.384390e-04  0 
 -1.154281e-05  -5.772453e-05  0 
 -1.644021e-05  -2.337551e-05  0 
 -4.671450e-05  -1.213982e-04  0 
 -7.738346e-05  -1.264049e-04  0 
 -9.358761e-05  -1.915605e-04  0 
 -2.480215e-05  -3.004334e-05  0 
 -3.586815e-05  -2.043902e-04  0 
 -1.996857e-06  -1.457898e-05  0 
 -1.494786e-04  -2.186543e-04  0 
 -1.994215e-04  -2.853945e-04  0 
VECTORS displacement_ITER3 FLOAT
 0  0  0 
 -2.645689e-04  -3.902882e-04  0 
 0  0  0 
 -4.748968e-05  -2.831726e-04  0 
 -9.308813e-05  -1.158976e-04  0 
 -1.569432e-04  -1.882827e-04  0 
 -2.105671e-04  -2.760023e-04  0 
 1.933714e-05  -4.758679e-05  0 
 1.840291e-05  -1.035230e-04  0 
 -8.054597e-07  -1.840834e-04  0 
 0  0  0 
 0  0  0 
 0  0  0 
 -1.631142e-04  -3.257334e-04  0 
 -9.677478e-05  -2.541274e-04  0 
 -6.149030e-05  -2.562933e-04  0 
 -3.256952e-05  -7.177768e-05  0 
 -6.122229e-05  -2.076579e-04  0 
 -1.080095e-05  -2.474317e-05  0 
 -4.445066e-05  -6.537847e-05  0 
 -3.039231e-05  -1.584107e-04  0 
 -1.367641e-05  -7.084782e-05  0 
 -1.673572e-05  -2.819835e-05  0 
 -4.687903e-05  -1.377008e-04  0 
 -7.436816e-05  -1.378057e-04  0 
 -8.895919e-05  -2.053096e-04  0 
 -2.516544e-05  -3.186933e-05  0 
 -4.602571e-05  -2.266789e-04  0 
 -2.630560e-06  -1.958256e-05  0 
 -1.460647e-04  -2.338868e-04  0 
 -1.944552e-04  -3.028428e-04  0 
VECTORS displacement_ITER4 FLOAT
 0  0  0 
 -2.412069e-04  -3.673238e-04  0 
 0  0  0 
 -8.405214e-05  -2.403547e-04  0 
 -8.518139e-05  -1.059594e-04  0 
 -1.434043e-04  -1.728509e-04  0 
 -1.927879e-04  -2.558185e-04  0 
 1.415259e-05  -4.079638e-05  0 
 7.397253e-06  -8.916144e-05  0 
 -1.913993e-05  -1.552113e-04  0 
 0  0  0 
 0  0  0 
 0  0  0 
 -1.495935e-04  -3.022368e-04  0 
 -8.644961e-05  -2.234714e-04  0 
 -6.424590e-05  -2.202514e-04  0 
 -3.001230e-05  -6.796037e-05  0 
 -6.018428e-05  -1.871403e-04  0 
 -1.049666e-05  -2.434046e-05  0 
 -3.967281e-05  -6.021825e-05  0 
 -3.718679e-05  -1.431279e-04  0 
 -1.581642e-05  -6.612707e-05  0 
 -1.544560e-05  -2.701435e-05  0 
 -4.448672e-05  -1.278224e-04  0 
 -6.567833e-05  -1.272081e-04  0 
 -7.845209e-05  -1.874080e-04  0 
 -2.284114e-05  -2.899680e-05  0 
 -5.861549e-05  -2.032171e-04  0 
 -3.360628e-06  -1.823581e-05  0 
 -1.317493e-04  -2.168489e-04  0 
 -1.765267e-04  -2.829721e-04  0 
VECTORS displacement_ITER5 FLOAT
 0  0  0 
 -2.173466e-04  -3.326716e-04  0 
 0  0  0 
 -1.478424e-04  -1.955897e-04  0 
 -7.653089e-05  -9.644057e-05  0 
 -1.277705e-04  -1.567286e-04  0 
 -1.725783e-04  -2.312249e-04  0 
 3.563877e-06  -3.152711e-05  0 
 -1.664872e-05  -7.208805e-05  0 
 -6.036990e-05  -1.227406e-04  0 
 0  0  0 
 0  0  0 
 0  0  0 
 -1.333814e-04  -2.728122e-04  0 
 -7.767064e-05  -1.830992e-04  0 
 -8.420159e-05  -1.716352e-04  0 
 -3.076883e-05  -6.739596e-05  0 
 -6.889903e-05  -1.654058e-04  0 
 -1.241614e-05  -2.627374e-05  0 
 -3.508902e-05  -5.691770e-05  0 
 -5.837763e-05  -1.293151e-04  0 
 -2.450549e-05  -6.419415e-05  0 
 -1.548952e-05  -2.804159e-05  0 
 -4.802696e-05  -1.216467e-04  0 
 -5.769333e-05  -1.168046e-04  0 
 -6.787110e-05  -1.680278e-04  0 
 -2.057796e-05  -2.692296e-05  0 
 -9.190818e-05  -1.760603e-04  0 
 -6.284203e-06  -1.753945e-05  0 
 -1.169439e-04  -1.956069e-04  0 
 -1.579258e-04  -2.556238e-04  0 
VECTORS displacement_ITER6 FLOAT
 0  0  0 
 -1.955994e-04  -2.967179e-04  0 
 0  0  0 
 -2.236320e-04  -1.509172e-04  0 
 -6.828062e-05  -8.808975e-05  0 
 -1.124092e-04  -1.418102e-04  0 
 -1.527778e-04  -2.066906e-04  0 
 -8.934202e-06  -2.228804e-05  0 
 -4.555109e-05  -5.617471e-05  0 
 -1.107256e-04  -9.223134e-05  0 
 0  0  0 
 0  0  0 
 0  0  0 
 -1.171485e-04  -2.425996e-04  0 
 -7.105891e-05  -1.420080e-04  0 
 -1.095909e-04  -1.208533e-04  0 
 -3.308186e-05  -6.881234e-05  0 
 -8.122712e-05  -1.449455e-04  0 
 -1.537878e-05  -2.951374e-05  0 
 -3.103680e-05  -5.503354e-05  0 
 -8.509784e-05  -1.184194e-04  0 
 -3.597033e-05  -6.446711e-05  0 
 -1.619453e-05  -3.023514e-05  0 
 -5.416624e-05  -1.181191e-04  0 
 -5.077037e-05  -1.077754e-04  0 
 -5.848495e-05  -1.497493e-04  0 
 -1.856363e-05  -2.551409e-05  0 
 -1.326119e-04  -1.503650e-04  0 
 -1.015882e-05  -1.750358e-05  0 
 -1.029780e-04  -1.743955e-04  0 
 -1.403112e-04  -2.272373e-04  0 
VECTORS displacement_ITER7 FLOAT
 0  0  0 
 -1.771712e-04  -2.703293e-04  0 
 0  0  0 
 -2.756879e-04  -1.315074e-04  0 
 -6.270914e-05  -8.344860e-05  0 
 -1.013212e-04  -1.332341e-04  0 
 -1.367846e-04  -1.901302e-04  0 
 -1.478466e-05  -1.769514e-05  0 
 -6.086220e-05  -5.060341e-05  0 
 -1.400863e-04  -8.155149e-05  0 
 0  0  0 
 0  0  0 
 0  0  0 
 -1.037653e-04  -2.210182e-04  0 
 -6.577655e-05  -1.222973e-04  0 
 -1.194458e-04  -9.924532e-05  0 
 -3.468099e-05  -7.152532e-05  0 
 -8.700854e-05  -1.383286e-04  0 
 -1.725224e-05  -3.220045e-05  0 
 -2.859386e-05  -5.530516e-05  0 
 -1.005823e-04  -1.182110e-04  0 
 -4.279476e-05  -6.690960e-05  0 
 -1.670163e-05  -3.242456e-05  0 
 -5.780623e-05  -1.195473e-04  0 
 -4.649923e-05  -1.044119e-04  0 
 -5.258818e-05  -1.417486e-04  0 
 -1.733778e-05  -2.526351e-05  0 
 -1.557726e-04  -1.453546e-04  0 
 -1.217564e-05  -1.773915e-05  0 
 -9.245578e-05  -1.618779e-04  0 
 -1.258052e-04  -2.075720e-04  0 
VECTORS displacement_ITER8 FLOAT
 0  0  0 
 -1.500368e-04  -2.294257e-04  0 
 0  0  0 
 -3.233178e-04  -8.858924e-05  0 
 -5.324577e-05  -7.336454e-05  0 
 -8.424225e-05  -1.156307e-04  0 
 -1.131650e-04  -1.606440e-04  0 
 -2.197088e-05  -8.544898e-06  0 
 -7.626190e-05  -3.612533e-05  0 
 -1.666296e-04  -5.634484e-05  0 
 0  0  0 
 0  0  0 
 0  0  0 
 -8.651060e-05  -1.821169e-04  0 
 -6.154805e-05  -8.951896e-05  0 
 -1.249542e-04  -6.310749e-05  0 
 -3.459786e-05  -6.821867e-05  0 
 -9.037670e-05  -1.166554e-04  0 
 -1.832364e-05  -3.219015e-05  0 
 -2.465525e-05  -5.157645e-05  0 
 -1.130876e-04  -1.046958e-04  0 
 -4.853065e-05  -6.223371e-05  0 
 -1.628962e-05  -3.204998e-05  0 
 -5.957784e-05  -1.096092e-04  0 
 -4.016989e-05  -9.329613e-05  0 
 -4.619929e-05  -1.215960e-04  0 
 -1.506923e-05  -2.330513e-05  0 
 -1.738587e-04  -1.241830e-04  0 
 -1.399144e-05  -1.577103e-05  0 
 -7.701384e-05  -1.379283e-04  0 
 -1.044252e-04  -1.740825e-04  0 
VECTORS displacement_ITER9 FLOAT
 0  0  0 
 -1.266272e-04  -1.976086e-04  0 
 0  0  0 
 -3.703761e-04  -5.732628e-05  0 
 -4.608664e-05  -6.671552e-05  0 
 -7.063977e-05  -1.035101e-04  0 
 -9.347378e-05  -1.381171e-04  0 
 -2.924693e-05  -1.304598e-06  0 
 -9.180905e-05  -2.527947e-05  0 
 -1.936236e-04  -3.728424e-05  0 
 0  0  0 
 0  0  0 
 0  0  0 
 -7.322409e-05  -1.506120e-04  0 
 -6.172782e-05  -6.238187e-05  0 
 -1.339270e-04  -3.328837e-05  0 
 -3.579296e-05  -6.759244e-05  0 
 -9.697597e-05  -1.004419e-04  0 
 -1.989850e-05  -3.330689e-05  0 
 -2.196118e-05  -5.036951e-05  0 
 -1.275897e-04  -9.577125e-05  0 
 -5.541883e-05  -5.984319e-05  0 
 -1.645837e-05  -3.292166e-05  0 
 -6.376995e-05  -1.036089e-04  0 
 -3.601175e-05  -8.687454e-05  0 
 -4.353765e-05  -1.069214e-04  0 
 -1.349802e-05  -2.253457e-05  0 
 -1.944995e-04  -1.092801e-04  0 
 -1.626340e-05  -1.470518e-05  0 
 -6.471793e-05  -1.206329e-04  0 
 -8.652946e-05  -1.483612e-04  0 
VECTORS displacement_ITER10 FLOAT
 0  0  0 
 -9.955215e-05  -1.625927e-04  0 
 0  0  0 
 -4.190308e-04  -2.884748e-05  0 
 -3.830932e-05  -5.975576e-05  0 
 -5.564485e-05  -9.078874e-05  0 
 -7.154724e-05  -1.140046e-04  0 
 -3.737659e-05  5.447793e-06  0 
 -1.086482e-04  -1.475454e-05  0 
 -2.226125e-04  -1.817053e-05  0 
 0  0  0 
 0  0  0 
 0  0  0 
 -5.868282e-05  -1.169668e-04  0 
 -6.193704e-05  -3.328900e-05  0 
 -1.454812e-04  -1.550329e-06  0 
 -3.737942e-05  -6.767763e-05  0 
 -1.049804e-04  -8.399498e-05  0 
 -2.173962e-05  -3.494676e-05  0 
 -1.900057e-05  -4.953780e-05  0 
 -1.439055e-04  -8.714334e-05  0 
 -6.324059e-05  -5.793816e-05  0 
 -1.675969e-05  -3.428720e-05  0 
 -6.898075e-05  -9.794686e-05  0 
 -3.141402e-05  -8.054980e-05  0 
 -4.081537e-05  -9.109230e-05  0 
 -1.180818e-05  -2.187356e-05  0 
 -2.179245e-04  -9.413034e-05  0 
 -1.897034e-05  -1.404872e-05  0 
 -5.105445e-05  -1.023743e-04  0 
 -6.651190e-05  -1.209261e-04  0 
VECTORS displacement_ITER11 FLOAT
 0  0  0 
 -7.936758e-05  -1.315772e-04  0 
 0  0  0 
 -4.523822e-04  -3.590000e-06  0 
 -3.132493e-05  -5.247550e-05  0 
 -4.300374e-05  -7.770328e-05  0 
 -5.425723e-05  -9.160490e-05  0 
 -4.340741e-05  1.223943e-05  0 
 -1.196283e-04  -3.293973e-06  0 
 -2.409672e-04  1.531510e-06  0 
 0  0  0 
 0  0  0 
 0  0  0 
 -4.696655e-05  -8.723833e-05  0 
 -6.161918e-05  -8.773229e-06  0 
 -1.521193e-04  2.558517e-05  0 
 -3.810180e-05  -6.496309e-05  0 
 -1.095465e-04  -6.730466e-05  0 
 -2.274961e-05  -3.469302e-05  0 
 -1.638305e-05  -4.696061e-05  0 
 -1.542127e-04  -7.600992e-05  0 
 -6.821213e-05  -5.325435e-05  0 
 -1.672868e-05  -3.403940e-05  0 
 -7.213370e-05  -8.938491e-05  0 
 -2.750574e-05  -7.210648e-05  0 
 -3.828616e-05  -7.405805e-05  0 
 -1.020687e-05  -2.058059e-05  0 
 -2.332011e-04  -7.852091e-05  0 
 -2.075617e-05  -1.244708e-05  0 
 -4.011997e-05  -8.385707e-05  0 
 -5.109177e-05  -9.552435e-05  0 
VECTORS displacement_ITER12 FLOAT
 0  0  0 
 -6.462792e-05  -1.096531e-04  0 
 0  0  0 
 -4.764968e-04  8.427604e-06  0 
 -2.669914e-05  -4.796315e-05  0 
 -3.440130e-05  -6.948779e-05  0 
 -4.217024e-05  -7.685408e-05  0 
 -4.704919e-05  1.602152e-05  0 
 -1.260466e-04  2.990719e-06  0 
 -2.526958e-04  1.241812e-05  0 
 0  0  0 
 0  0  0 
 0  0  0 
 -3.864065e-05  -6.781336e-05  0 
 -6.085455e-05  5.708004e-06  0 
 -1.562120e-04  4.118683e-05  0 
 -3.884641e-05  -6.390188e-05  0 
 -1.125529e-04  -5.853108e-05  0 
 -2.350130e-05  -3.481283e-05  0 
 -1.469843e-05  -4.577087e-05  0 
 -1.612509e-04  -7.079938e-05  0 
 -7.160184e-05  -5.087635e-05  0 
 -1.682075e-05  -3.423769e-05  0 
 -7.458309e-05  -8.506494e-05  0 
 -2.499012e-05  -6.723104e-05  0 
 -3.662200e-05  -6.354661e-05  0 
 -9.182615e-06  -1.994090e-05  0 
 -2.440220e-04  -7.167789e-05  0 
 -2.196362e-05  -1.162179e-05  0 
 -3.264552e-05  -7.196605e-05  0 
 -4.033521e-05  -7.860130e-05  0 
VECTORS displacement_ITER13 FLOAT
 0  0  0 
 -5.300777e-05  -9.772503e-05  0 
 0  0  0 
 -4.933270e-04  4.594536e-06  0 
 -2.454862e-05  -4.686712e-05  0 
 -2.961893e-05  -6.731456e-05  0 
 -3.411947e-05  -7.077783e-05  0 
 -4.791701e-05  1.598774e-05  0 
 -1.276458e-04  2.484134e-06  0 
 -2.581520e-04  1.198414e-05  0 
 0  0  0 
 0  0  0 
 0  0  0 
 -3.266644e-05  -5.961537e-05  0 
 -5.978968e-05  7.760845e-06  0 
 -1.575936e-04  4.255721e-05  0 
 -3.963768e-05  -6.578452e-05  0 
 -1.141253e-04  -6.016437e-05  0 
 -2.400497e-05  -3.590094e-05  0 
 -1.396772e-05  -4.691221e-05  0 
 -1.652819e-04  -7.389698e-05  0 
 -7.346823e-05  -5.211057e-05  0 
 -1.705763e-05  -3.546407e-05  0 
 -7.643325e-05  -8.699290e-05  0 
 -2.376117e-05  -6.773541e-05  0 
 -3.586393e-05  -6.201074e-05  0 
 -8.799663e-06  -2.032479e-05  0 
 -2.508169e-04  -7.669700e-05  0 
 -2.255121e-05  -1.198684e-05  0 
 -2.789496e-05  -6.856564e-05  0 
 -3.277323e-05  -7.148470e-05  0 
VECTORS displacement_ITER14 FLOAT
 0  0  0 
 -4.203639e-05  -8.486090e-05  0 
 0  0  0 
 -5.056324e-04  2.767559e-06  0 
 -2.262858e-05  -4.561070e-05  0 
 -2.555765e-05  -6.511500e-05  0 
 -2.715466e-05  -6.514753e-05  0 
 -4.757441e-05  1.589927e-05  0 
 -1.263390e-04  2.114560e-06  0 
 -2.589291e-04  1.158416e-05  0 
 0  0  0 
 0  0  0 
 0  0  0 
 -2.771024e-05  -5.261716e-05  0 
 -5.786350e-05  7.626335e-06  0 
 -1.549891e-04  4.161853e-05  0 
 -3.977693e-05  -6.640641e-05  0 
 -1.132266e-04  -6.185883e-05  0 
 -2.403412e-05  -3.616378e-05  0 
 -1.332436e-05  -4.737270e-05  0 
 -1.660101e-04  -7.629279e-05  0 
 -7.375809e-05  -5.230597e-05  0 
 -1.702522e-05  -3.595329e-05  0 
 -7.679738e-05  -8.775781e-05  0 
 -2.276631e-05  -6.750785e-05  0 
 -3.505805e-05  -6.059210e-05  0 
 -8.425632e-06  -2.046278e-05  0 
 -2.530090e-04  -8.200944e-05  0 
 -2.258373e-05  -1.195615e-05  0 
 -2.408341e-05  -6.523615e-05  0 
 -2.645000e-05  -6.468693e-05  0 
VECTORS displacement_ITER15 FLOAT
 0  0  0 
 -3.614744e-05  -7.815943e-05  0 
 0  0  0 
 -5.154680e-04  -3.124801e-06  0 
 -2.255580e-05  -4.648070e-05  0 
 -2.471268e-05  -6.650337e-05  0 
 -2.467292e-05  -6.503462e-05  0 
 -4.692054e-05  1.426793e-05  0 
 -1.250756e-04  -1.248811e-06  0 
 -2.597932e-04  6.465710e-06  0 
 0  0  0 
 0  0  0 
 0  0  0 
 -2.629346e-05  -5.271410e-05  0 
 -5.664761e-05  3.064817e-06  0 
 -1.531736e-04  3.677014e-05  0 
 -4.032487e-05  -6.830912e-05  0 
 -1.126407e-04  -6.715842e-05  0 
 -2.429030e-05  -3.704908e-05  0 
 -1.345070e-05  -4.887229e-05  0 
 -1.667557e-04  -8.195258e-05  0 
 -7.416994e-05  -5.444797e-05  0 
 -1.724271e-05  -3.692437e-05  0 
 -7.743683e-05  -9.114965e-05  0 
 -2.305571e-05  -6.955662e-05  0 
 -3.534314e-05  -6.299329e-05  0 
 -8.513342e-06  -2.109937e-05  0 
 -2.548466e-04  -9.041725e-05  0 
 -2.267365e-05  -1.262162e-05  0 
 -2.342052e-05  -6.629995e-05  0 
 -2.447202e-05  -6.372877e-05  0 
VECTORS displacement_ITER16 FLOAT
 0  0  0 
 -3.032463e-05  -6.883374e-05  0 
 0  0  0 
 -5.262018e-04  5.545905e-06  0 
 -2.159656e-05  -4.558435e-05  0 
 -2.288336e-05  -6.502095e-05  0 
 -2.185030e-05  -6.179921e-05  0 
 -4.842637e-05  1.566169e-05  0 
 -1.277410e-04  1.120457e-06  0 
 -2.647870e-04  1.095033e-05  0 
 0  0  0 
 0  0  0 
 0  0  0 
 -2.561333e-05  -4.890143e-05  0 
 -5.639725e-05  7.785078e-06  0 
 -1.554046e-04  4.369077e-05  0 
 -4.062478e-05  -6.789035e-05  0 
 -1.137224e-04  -6.412121e-05  0 
 -2.458533e-05  -3.709431e-05  0 
 -1.308847e-05  -4.864909e-05  0 
 -1.693625e-04  -7.998172e-05  0 
 -7.540330e-05  -5.363841e-05  0 
 -1.728883e-05  -3.697304e-05  0 
 -7.828216e-05  -8.968452e-05  0 
 -2.272322e-05  -6.827709e-05  0 
 -3.538111e-05  -6.012727e-05  0 
 -8.294810e-06  -2.097959e-05  0 
 -2.590589e-04  -8.699994e-05  0 
 -2.313103e-05  -1.237491e-05  0 
 -2.233388e-05  -6.364010e-05  0 
 -2.242327e-05  -5.956506e-05  0 
VECTORS displacement_ITER17 FLOAT
 0  0  0 
 -2.504185e-05  -6.283534e-05  0 
 0  0  0 
 -5.309633e-04  8.675397e-06  0 
 -2.107905e-05  -4.531751e-05  0 
 -2.171494e-05  -6.468984e-05  0 
 -1.956283e-05  -6.028221e-05  0 
 -4.871944e-05  1.600288e-05  0 
 -1.282603e-04  1.043346e-06  0 
 -2.660002e-04  1.066282e-05  0 
 0  0  0 
 0  0  0 
 0  0  0 
 -2.531974e-05  -4.676843e-05  0 
 -5.599235e-05  8.459078e-06  0 
 -1.549706e-04  4.471548e-05  0 
 -4.072856e-05  -6.803055e-05  0 
 -1.135767e-04  -6.390228e-05  0 
 -2.469756e-05  -3.725047e-05  0 
 -1.288697e-05  -4.886968e-05  0 
 -1.699543e-04  -8.039848e-05  0 
 -7.586684e-05  -5.366856e-05  0 
 -1.728443e-05  -3.716154e-05  0 
 -7.861909e-05  -8.948411e-05  0 
 -2.253278e-05  -6.821467e-05  0 
 -3.563027e-05  -5.916584e-05  0 
 -8.189080e-06  -2.105209e-05  0 
 -2.597704e-04  -8.752738e-05  0 
 -2.326079e-05  -1.233016e-05  0 
 -2.147922e-05  -6.288660e-05  0 
 -2.054723e-05  -5.760070e-05  0 
VECTORS displacement_ITER18 FLOAT
 0  0  0 
 -1.913240e-05  -5.661137e-05  0 
 0  0  0 
 -5.353798e-04  1.292618e-05  0 
 -2.025823e-05  -4.467672e-05  0 
 -2.001881e-05  -6.376499e-05  0 
 -1.662165e-05  -5.806622e-05  0 
 -4.942660e-05  1.688877e-05  0 
 -1.298171e-04  1.986396e-06  0 
 -2.683092e-04  1.175924e-05  0 
 0  0  0 
 0  0  0 
 0  0  0 
 -2.436543e-05  -4.382376e-05  0 
 -5.548123e-05  1.066173e-05  0 
 -1.559443e-04  4.717062e-05  0 
 -4.080478e-05  -6.810569e-05  0 
 -1.140761e-04  -6.267316e-05  0 
 -2.482516e-05  -3.741553e-05  0 
 -1.248693e-05  -4.892213e-05  0 
 -1.712180e-04  -7.971600e-05  0 
 -7.656483e-05  -5.344261e-05  0 
 -1.725892e-05  -3.735190e-05  0 
 -7.908614e-05  -8.891160e-05  0 
 -2.195888e-05  -6.780336e-05  0 
 -3.542497e-05  -5.758484e-05  0 
 -7.993296e-06  -2.101990e-05  0 
 -2.613397e-04  -8.623160e-05  0 
 -2.345861e-05  -1.219003e-05  0 
 -1.999276e-05  -6.154514e-05  0 
 -1.793655e-05  -5.504021e-05  0 
VECTORS displacement_ITER19 FLOAT
 0  0  0 
 -1.722995e-05  -5.222523e-05  0 
 0  0  0 
 -5.384189e-04  1.546779e-05  0 
 -1.999038e-05  -4.445782e-05  0 
 -1.948996e-05  -6.336323e-05  0 
 -1.584939e-05  -5.694457e-05  0 
 -5.011424e-05  1.736278e-05  0 
 -1.313855e-04  2.397877e-06  0 
 -2.705079e-04  1.239633e-05  0 
 0  0  0 
 0  0  0 
 0  0  0 
 -2.439093e-05  -4.261461e-05  0 
 -5.509684e-05  1.184508e-05  0 
 -1.572081e-04  4.887107e-05  0 
 -4.106818e-05  -6.810580e-05  0 
 -1.146084e-04  -6.204905e-05  0 
 -2.504945e-05  -3.755185e-05  0 
 -1.240328e-05  -4.891400e-05  0 
 -1.723801e-04  -7.942496e-05  0 
 -7.721841e-05  -5.350420e-05  0 
 -1.734505e-05  -3.746098e-05  0 
 -7.953916e-05  -8.868932e-05  0 
 -2.195678e-05  -6.731160e-05  0 
 -3.536703e-05  -5.657310e-05  0 
 -7.939398e-06  -2.101179e-05  0 
 -2.628607e-04  -8.525067e-05  0 
 -2.368472e-05  -1.218431e-05  0 
 -1.991276e-05  -6.048958e-05  0 
 -1.763076e-05  -5.331425e-05  0 
VECTORS displacement_ITER20 FLOAT
 0  0  0 
 -1.302095e-05  -4.826405e-05  0 
 0  0  0 
 -5.391463e-04  1.674070e-05  0 
 -1.939670e-05  -4.408290e-05  0 
 -1.818994e-05  -6.285131e-05  0 
 -1.344955e-05  -5.547045e-05  0 
 -5.028851e-05  1.706474e-05  0 
 -1.320019e-04  1.676143e-06  0 
 -2.712143e-04  1.182285e-05  0 
 0  0  0 
 0  0  0 
 0  0  0 
 -2.297325e-05  -4.058981e-05  0 
 -5.440534e-05  1.224411e-05  0 
 -1.570553e-04  4.953090e-05  0 
 -4.092002e-05  -6.846472e-05  0 
 -1.142911e-04  -6.200029e-05  0 
 -2.508017e-05  -3.788596e-05  0 
 -1.210484e-05  -4.910874e-05  0 
 -1.725144e-04  -7.984687e-05  0 
 -7.738907e-05  -5.408732e-05  0 
 -1.726248e-05  -3.769514e-05  0 
 -7.935740e-05  -8.892702e-05  0 
 -2.143896e-05  -6.742246e-05  0 
 -3.488455e-05  -5.644860e-05  0 
 -7.803497e-06  -2.104719e-05  0 
 -2.628980e-04  -8.512285e-05  0 
 -2.374754e-05  -1.244585e-05  0 
 -1.856461e-05  -5.988149e-05  0 
 -1.536668e-05  -5.158866e-05  0 
VECTORS displacement_ITER21 FLOAT
 0  0  0 
 -1.295943e-05  -4.719143e-05  0 
 0  0  0 
 -5.376857e-04  1.658965e-05  0 
 -1.947101e-05  -4.416890e-05  0 
 -1.832751e-05  -6.298845e-05  0 
 -1.361379e-05  -5.552008e-05  0 
 -5.007228e-05  1.671747e-05  0 
 -1.317239e-04  5.521781e-07  0 
 -2.706954e-04  1.029841e-05  0 
 0  0  0 
 0  0  0 
 0  0  0 
 -2.316430e-05  -4.082400e-05  0 
 -5.421086e-05  1.094545e-05  0 
 -1.559030e-04  4.875304e-05  0 
 -4.086138e-05  -6.844419e-05  0 
 -1.134734e-04  -6.242840e-05  0 
 -2.510671e-05  -3.794153e-05  0 
 -1.217029e-05  -4.912634e-05  0 
 -1.718683e-04  -8.063550e-05  0 
 -7.727883e-05  -5.448546e-05  0 
 -1.724530e-05  -3.767519e-05  0 
 -7.905290e-05  -8.905103e-05  0 
 -2.159233e-05  -6.741215e-05  0 
 -3.496100e-05  -5.660123e-05  0 
 -7.827447e-06  -2.106965e-05  0 
 -2.617063e-04  -8.573710e-05  0 
 -2.370298e-05  -1.255671e-05  0 
 -1.885326e-05  -5.986926e-05  0 
 -1.568783e-05  -5.141304e-05  0 
VECTORS displacement_ITER22 FLOAT
 0  0  0 
 -1.272419e-05  -4.780506e-05  0 
 0  0  0 
 -5.355475e-04  1.493022e-05  0 
 -1.954543e-05  -4.432786e-05  0 
 -1.839726e-05  -6.327427e-05  0 
 -1.358056e-05  -5.590849e-05  0 
 -4.971346e-05  1.643034e-05  0 
 -1.311586e-04  -4.742256e-07  0 
 -2.699401e-04  8.441751e-06  0 
 0  0  0 
 0  0  0 
 0  0  0 
 -2.306844e-05  -4.135172e-05  0 
 -5.428387e-05  9.289256e-06  0 
 -1.550197e-04  4.714485e-05  0 
 -4.080414e-05  -6.865892e-05  0 
 -1.129418e-04  -6.324212e-05  0 
 -2.508502e-05  -3.803152e-05  0 
 -1.220068e-05  -4.928844e-05  0 
 -1.712921e-04  -8.162556e-05  0 
 -7.714243e-05  -5.485952e-05  0 
 -1.722938e-05  -3.774975e-05  0 
 -7.890047e-05  -8.944581e-05  0 
 -2.160779e-05  -6.778509e-05  0 
 -3.505874e-05  -5.705667e-05  0 
 -7.851212e-06  -2.113763e-05  0 
 -2.605886e-04  -8.682668e-05  0 
 -2.362005e-05  -1.262345e-05  0 
 -1.879805e-05  -6.034448e-05  0 
 -1.555166e-05  -5.194875e-05  0 
VECTORS displacement_ITER23 FLOAT
 0  0  0 
 -1.362137e-05  -5.059197e-05  0 
 0  0  0 
 -5.300926e-04  8.433449e-06  0 
 -2.001650e-05  -4.500028e-05  0 
 -1.911725e-05  -6.443326e-05  0 
 -1.427220e-05  -5.757936e-05  0 
 -4.828834e-05  1.496936e-05  0 
 -1.283688e-04  -3.481304e-06  0 
 -2.659149e-04  3.272458e-06  0 
 0  0  0 
 0  0  0 
 0  0  0 
 -2.322228e-05  -4.333840e-05  0 
 -5.389387e-05  4.275512e-06  0 
 -1.518141e-04  4.071848e-05  0 
 -4.063120e-05  -6.924020e-05  0 
 -1.112836e-04  -6.667751e-05  0 
 -2.490010e-05  -3.814341e-05  0 
 -1.241976e-05  -4.975008e-05  0 
 -1.689698e-04  -8.471316e-05  0 
 -7.623070e-05  -5.587240e-05  0 
 -1.719527e-05  -3.788695e-05  0 
 -7.827655e-05  -9.097880e-05  0 
 -2.186149e-05  -6.898635e-05  0 
 -3.523280e-05  -5.911740e-05  0 
 -7.981892e-06  -2.135140e-05  0 
 -2.569737e-04  -9.165075e-05  0 
 -2.326698e-05  -1.291903e-05  0 
 -1.917565e-05  -6.210277e-05  0 
 -1.596856e-05  -5.393243e-05  0 
VECTORS displacement_ITER24 FLOAT
 0  0  0 
 -1.250559e-05  -5.111494e-05  0 
 0  0  0 
 -5.255313e-04  3.247834e-06  0 
 -1.986153e-05  -4.509292e-05  0 
 -1.863789e-05  -6.457933e-05  0 
 -1.313873e-05  -5.738812e-05  0 
 -4.753225e-05  1.383724e-05  0 
 -1.267442e-04  -5.118930e-06  0 
 -2.633445e-04  7.374572e-07  0 
 0  0  0 
 0  0  0 
 0  0  0 
 -2.190988e-05  -4.266624e-05  0 
 -5.366130e-05  1.660348e-06  0 
 -1.507809e-04  3.696242e-05  0 
 -4.047455e-05  -6.976235e-05  0 
 -1.106916e-04  -6.867604e-05  0 
 -2.473996e-05  -3.830141e-05  0 
 -1.238001e-05  -5.011218e-05  0 
 -1.676929e-04  -8.622300e-05  0 
 -7.563994e-05  -5.650731e-05  0 
 -1.713940e-05  -3.807785e-05  0 
 -7.793979e-05  -9.198925e-05  0 
 -2.167488e-05  -6.975983e-05  0 
 -3.501427e-05  -6.039330e-05  0 
 -7.969820e-06  -2.149419e-05  0 
 -2.551631e-04  -9.405633e-05  0 
 -2.308541e-05  -1.323213e-05  0 
 -1.834038e-05  -6.257595e-05  0 
 -1.462614e-05  -5.384481e-05  0 
VECTORS displacement_ITER25 FLOAT
 0  0  0 
 -1.557363e-05  -5.321463e-05  0 
 0  0  0 
 -5.213259e-04  -2.331130e-06  0 
 -2.053201e-05  -4.576421e-05  0 
 -1.990967e-05  -6.563807e-05  0 
 -1.502172e-05  -5.905544e-05  0 
 -4.669672e-05  1.298787e-05  0 
 -1.250135e-04  -6.208612e-06  0 
 -2.606337e-04  -1.167798e-06  0 
 0  0  0 
 0  0  0 
 0  0  0 
 -2.274546e-05  -4.496164e-05  0 
 -5.347085e-05  -1.714859e-06  0 
 -1.497416e-04  3.322473e-05  0 
 -4.047762e-05  -6.985033e-05  0 
 -1.100231e-04  -7.094732e-05  0 
 -2.461679e-05  -3.816386e-05  0 
 -1.274142e-05  -5.027652e-05  0 
 -1.663497e-04  -8.751854e-05  0 
 -7.490582e-05  -5.684977e-05  0 
 -1.717660e-05  -3.800105e-05  0 
 -7.753918e-05  -9.294812e-05  0 
 -2.228097e-05  -7.032584e-05  0 
 -3.518504e-05  -6.220580e-05  0 
 -8.144412e-06  -2.161703e-05  0 
 -2.535488e-04  -9.653441e-05  0 
 -2.284249e-05  -1.335230e-05  0 
 -1.965613e-05  -6.378492e-05  0 
 -1.653376e-05  -5.536918e-05  0 
VECTORS displacement_ITER26 FLOAT
 0  0  0 
 -1.593362e-05  -5.522675e-05  0 
 0  0  0 
 -5.178993e-04  -7.290738e-06  0 
 -2.092598e-05  -4.626193e-05  0 
 -2.054973e-05  -6.658525e-05  0 
 -1.559556e-05  -6.044775e-05  0 
 -4.601167e-05  1.274815e-05  0 
 -1.236358e-04  -6.388401e-06  0 
 -2.582868e-04  -2.118659e-06  0 
 0  0  0 
 0  0  0 
 0  0  0 
 -2.328295e-05  -4.644829e-05  0 
 -5.354357e-05  -3.734393e-06  0 
 -1.492333e-04  3.074299e-05  0 
 -4.037680e-05  -7.004569e-05  0 
 -1.098346e-04  -7.247200e-05  0 
 -2.442982e-05  -3.804968e-05  0 
 -1.289270e-05  -5.054665e-05  0 
 -1.655076e-04  -8.806333e-05  0 
 -7.434424e-05  -5.682767e-05  0 
 -1.714432e-05  -3.800905e-05  0 
 -7.734444e-05  -9.358277e-05  0 
 -2.249042e-05  -7.115278e-05  0 
 -3.543224e-05  -6.373928e-05  0 
 -8.239482e-06  -2.174353e-05  0 
 -2.526132e-04  -9.825213e-05  0 
 -2.260724e-05  -1.328870e-05  0 
 -2.006184e-05  -6.527611e-05  0 
 -1.690720e-05  -5.704225e-05  0 
VECTORS displacement_ITER27 FLOAT
 0  0  0 
 -1.761079e-05  -5.838578e-05  0 
 0  0  0 
 -5.141304e-04  -1.359374e-05  0 
 -2.160661e-05  -4.697729e-05  0 
 -2.177470e-05  -6.789098e-05  0 
 -1.722586e-05  -6.268171e-05  0 
 -4.504476e-05  1.240955e-05  0 
 -1.217629e-04  -7.198874e-06  0 
 -2.553345e-04  -4.348582e-06  0 
 0  0  0 
 0  0  0 
 0  0  0 
 -2.463208e-05  -4.927097e-05  0 
 -5.326777e-05  -6.708279e-06  0 
 -1.481715e-04  2.699805e-05  0 
 -4.036990e-05  -7.028381e-05  0 
 -1.093263e-04  -7.479014e-05  0 
 -2.427683e-05  -3.791094e-05  0 
 -1.314469e-05  -5.080317e-05  0 
 -1.643780e-04  -8.941392e-05  0 
 -7.374089e-05  -5.696454e-05  0 
 -1.716636e-05  -3.800908e-05  0 
 -7.718573e-05  -9.449163e-05  0 
 -2.286676e-05  -7.200404e-05  0 
 -3.573146e-05  -6.526124e-05  0 
 -8.394571e-06  -2.187163e-05  0 
 -2.512010e-04  -1.012141e-04  0 
 -2.232538e-05  -1.318753e-05  0 
 -2.110194e-05  -6.716434e-05  0 
 -1.832599e-05  -5.965631e-05  0 
VECTORS displacement_ITER28 FLOAT
 0  0  0 
 -1.886849e-05  -6.121866e-05  0 
 0  0  0 
 -5.096483e-04  -2.147156e-05  0 
 -2.231818e-05  -4.790719e-05  0 
 -2.292323e-05  -6.951778e-05  0 
 -1.850131e-05  -6.502589e-05  0 
 -4.373425e-05  1.140625e-05  0 
 -1.193379e-04  -9.316796e-06  0 
 -2.516920e-04  -8.468998e-06  0 
 0  0  0 
 0  0  0 
 0  0  0 
 -2.543928e-05  -5.217459e-05  0 
 -5.281493e-05  -1.113167e-05  0 
 -1.464324e-04  2.132337e-05  0 
 -4.036677e-05  -7.094157e-05  0 
 -1.084656e-04  -7.841044e-05  0 
 -2.412689e-05  -3.797337e-05  0 
 -1.344994e-05  -5.136639e-05  0 
 -1.627996e-04  -9.208430e-05  0 
 -7.299056e-05  -5.776628e-05  0 
 -1.720031e-05  -3.818611e-05  0 
 -7.689202e-05  -9.623702e-05  0 
 -2.330099e-05  -7.338894e-05  0 
 -3.598381e-05  -6.773490e-05  0 
 -8.580106e-06  -2.213384e-05  0 
 -2.490512e-04  -1.058596e-04  0 
 -2.198960e-05  -1.332501e-05  0 
 -2.199029e-05  -6.942515e-05  0 
 -1.939826e-05  -6.225616e-05  0 
VECTORS displacement_ITER29 FLOAT
 0  0  0 
 -1.953969e-05  -6.271335e-05  0 
 0  0  0 
 -5.048696e-04  -2.951086e-05  0 
 -2.287537e-05  -4.874208e-05  0 
 -2.375400e-05  -7.092793e-05  0 
 -1.922869e-05  -6.672612e-05  0 
 -4.259041e-05  1.037584e-05  0 
 -1.171987e-04  -1.132603e-05  0 
 -2.482864e-04  -1.229887e-05  0 
 0  0  0 
 0  0  0 
 0  0  0 
 -2.579430e-05  -5.414561e-05  0 
 -5.254260e-05  -1.511116e-05  0 
 -1.449636e-04  1.619205e-05  0 
 -4.038770e-05  -7.157762e-05  0 
 -1.077812e-04  -8.172583e-05  0 
 -2.400431e-05  -3.806381e-05  0 
 -1.374666e-05  -5.195970e-05  0 
 -1.614057e-04  -9.450443e-05  0 
 -7.232092e-05  -5.856708e-05  0 
 -1.723555e-05  -3.837960e-05  0 
 -7.663913e-05  -9.788884e-05  0 
 -2.375872e-05  -7.470131e-05  0 
 -3.628394e-05  -7.018354e-05  0 
 -8.744709e-06  -2.241721e-05  0 
 -2.471445e-04  -1.100755e-04  0 
 -2.170605e-05  -1.351069e-05  0 
 -2.265684e-05  -7.125780e-05  0 
 -2.004672e-05  -6.396359e-05  0 
VECTORS displacement_ITER30 FLOAT
 0  0  0 
 -2.005969e-05  -6.335107e-05  0 
 0  0  0 
 -5.010859e-04  -3.614439e-05  0 
 -2.328243e-05  -4.936560e-05  0 
 -2.436507e-05  -7.192643e-05  0 
 -1.978098e-05  -6.777767e-05  0 
 -4.200621e-05  9.761408e-06  0 
 -1.160038e-04  -1.241646e-05  0 
 -2.460640e-04  -1.467710e-05  0 
 0  0  0 
 0  0  0 
 0  0  0 
 -2.628843e-05  -5.517956e-05  0 
 -5.272492e-05  -1.753570e-05  0 
 -1.442607e-04  1.279279e-05  0 
 -4.051327e-05  -7.195766e-05  0 