# vtk DataFile Version 3.1
this is an vtk file created by FEMAC
ASCII
DATASET UNSTRUCTURED_GRID
POINTS 32 FLOAT
0.000000 5.000000 0.000000
0.000000 6.000000 0.000000
0.250000 5.000000 0.000000
0.500000 5.000000 0.000000
0.750000 5.000000 0.000000
0.000000 4.500000 0.000000
0.000000 4.750000 0.000000
0.250000 6.000000 0.000000
0.500000 6.000000 0.000000
0.750000 6.000000 0.000000
0.000000 5.250000 0.000000
0.000000 5.500000 0.000000
0.000000 5.750000 0.000000
0.272476 4.537430 0.000000
0.660302 4.785301 0.000000
0.825957 4.628272 0.000000
0.594871 4.497465 0.000000
0.400442 4.782533 0.000000
0.847252 4.832715 0.000000
0.153820 4.761660 0.000000
0.272476 5.537430 0.000000
0.660302 5.785301 0.000000
0.660045 5.212404 0.000000
0.162952 5.171693 0.000000
0.825570 5.361866 0.000000
0.825957 5.628272 0.000000
0.594871 5.497465 0.000000
0.400442 5.782533 0.000000
0.372389 5.253823 0.000000
0.165804 5.339408 0.000000
0.847123 5.164854 0.000000
0.153820 5.761660 0.000000
CELLS 43 172 
3 3 14  4
3 17 14  3
3 16 17 13
3 16 14 17
3 2 17  3
3 16 15 14
3 18  4 14
3 14 15 18
3 19  2  0
3 6 19  0
3 5 19  6
3 17 19 13
3 19 17  2
3 5 13 19
3 8 21  9
3 22  3  4
3 2 23  0
3 23 10  0
3 26 22 24
3 27 21  8
3 22 28  3
3 26 27 20
3 26 21 27
3 28 26 20
3 22 26 28
3 28  2  3
3 23  2 28
3 7 27  8
3 26 25 21
3 24 25 26
3 23 29 10
3 4 30 22
3 29 28 20
3 23 28 29
3 24 22 30
3 29 11 10
3 11 29 20
3 31  7  1
3 12 31  1
3 11 31 12
3 27 31 20
3 31 27  7
3 11 20 31
CELL_TYPES 43
5 5 5 5 5 5 5 5 5 5 5 5 5 5 5 5 5 5 5 5 5 5 5 5 5 5 5 5 5 5 5 5 5 5 5 5 5 5 5 5 5 5 5 
POINT_DATA 32
VECTORS displacement_ITER1 FLOAT
 0  0  0 
 0  0  0 
 4.682181e-05  -3.220074e-05  0 
 9.436025e-05  -9.602819e-05  0 
 1.444139e-04  -2.193125e-04  0 
 0  0  0 
 0  0  0 
 3.808501e-02  -3.552526e-02  0 
 7.915524e-02  -6.561458e-02  0 
 1.303428e-01  -1.219763e-01  0 
 0  0  0 
 0  0  0 
 0  0  0 
 -2.555862e-05  -2.098692e-05  0 
 3.244228e-05  -1.358986e-04  0 
 -1.912376e-05  -1.935344e-04  0 
 -5.631778e-05  -1.076563e-04  0 
 2.048904e-05  -4.326368e-05  0 
 7.439688e-05  -2.356750e-04  0 
 4.283869e-06  4.419453e-06  0 
 1.194034e-02  -1.382986e-03  0 
 6.498363e-02  -5.723813e-02  0 
 1.515861e-02  -9.591928e-03  0 
 2.463149e-03  2.280520e-03  0 
 3.535162e-02  -3.369298e-02  0 
 6.460690e-02  -5.919466e-02  0 
 3.006844e-02  -2.019325e-02  0 
 3.609468e-02  -2.467489e-02  0 
 6.640947e-03  1.877715e-03  0 
 3.532733e-03  2.514795e-03  0 
 2.382217e-02  -2.396967e-02  0 
 9.133782e-03  -2.642069e-03  0 
VECTORS displacement_ITER2 FLOAT
 0  0  0 
 0  0  0 
 1.062349e-04  -7.048890e-05  0 
 2.211746e-04  -2.001654e-04  0 
 3.412982e-04  -4.484018e-04  0 
 0  0  0 
 0  0  0 
 1.986171e-02  -1.847938e-02  0 
 4.129837e-02  -3.132758e-02  0 
 6.785115e-02  -5.300692e-02  0 
 0  0  0 
 0  0  0 
 0  0  0 
 -5.930496e-05  -4.151459e-05  0 
 6.839467e-05  -2.900826e-04  0 
 -7.425140e-05  -4.590209e-04  0 
 -1.442648e-04  -2.470585e-04  0 
 4.817253e-05  -8.411510e-05  0 
 1.458985e-04  -5.221255e-04  0 
 9.823434e-06  1.391682e-05  0 
 7.903349e-03  3.648704e-04  0 
 3.712430e-02  -2.421209e-02  0 
 1.078510e-02  -3.000768e-03  0 
 2.180133e-03  2.002615e-03  0 
 2.245684e-02  -1.338098e-02  0 
 3.773556e-02  -2.447806e-02  0 
 1.934144e-02  -7.036823e-03  0 
 2.075291e-02  -1.115025e-02  0 
 5.607433e-03  2.585389e-03  0 
 2.795790e-03  2.068351e-03  0 
 1.556893e-02  -9.999075e-03  0 
 5.366712e-03  -1.353524e-03  0 
VECTORS displacement_ITER3 FLOAT
 0  0  0 
 0  0  0 
 1.800356e-04  -1.373127e-04  0 
 3.766294e-04  -3.219398e-04  0 
 5.845219e-04  -6.539094e-04  0 
 0  0  0 
 0  0  0 
 5.897542e-03  -5.437874e-03  0 
 1.230684e-02  -8.377681e-03  0 
 2.034803e-02  -1.286190e-02  0 
 0  0  0 
 0  0  0 
 0  0  0 
 -4.254055e-05  -2.732982e-05  0 
 1.984029e-04  -3.999720e-04  0 
 3.447102e-05  -5.916947e-04  0 
 -1.054885e-04  -2.914676e-04  0 
 1.216424e-04  -1.224379e-04  0 
 3.431505e-04  -7.231474e-04  0 
 2.611556e-05  1.588681e-05  0 
 2.834707e-03  4.402189e-04  0 
 1.203171e-02  -5.332095e-03  0 
 3.817563e-03  -6.238213e-04  0 
 9.192765e-04  7.316805e-04  0 
 7.450679e-03  -3.080671e-03  0 
 1.233346e-02  -5.532583e-03  0 
 6.719385e-03  -1.050571e-03  0 
 6.766217e-03  -2.709718e-03  0 
 2.253727e-03  1.091223e-03  0 
 1.115282e-03  7.942690e-04  0 
 5.086633e-03  -2.619824e-03  0 
 1.785255e-03  -3.707663e-04  0 
VECTORS displacement_ITER4 FLOAT
 0  0  0 
 0  0  0 
 1.950394e-04  -1.524634e-04  0 
 4.070654e-04  -3.431741e-04  0 
 6.247402e-04  -6.692136e-04  0 
 0  0  0 
 0  0  0 
 1.985372e-03  -1.935773e-03  0 
 4.081886e-03  -2.336952e-03  0 
 6.972532e-03  -2.853898e-03  0 
 0  0  0 
 0  0  0 
 0  0  0 
 -3.573476e-05  -2.333434e-05  0 
 2.316551e-04  -4.166199e-04  0 
 5.645523e-05  -6.256414e-04  0 
 -9.422776e-05  -3.004960e-04  0 
 1.410097e-04  -1.288280e-04  0 
 3.854282e-04  -7.514003e-04  0 
 3.071549e-05  1.555604e-05  0 
 1.429844e-03  2.522682e-04  0 
 4.788522e-03  -4.961183e-04  0 
 2.246570e-03  7.003127e-05  0 
 5.995760e-04  3.726810e-04  0 
 3.753998e-03  -1.111272e-04  0 
 5.336474e-03  -2.301103e-04  0 
 3.361806e-03  3.675346e-04  0 
 2.724186e-03  -6.945518e-04  0 
 1.449846e-03  6.153374e-04  0 
 6.665614e-04  3.571646e-04  0 
 2.714811e-03  -5.043076e-04  0 
 7.515572e-04  -2.203139e-04  0 
VECTORS displacement_ITER5 FLOAT
 0  0  0 
 0  0  0 
 1.352135e-04  -9.900564e-05  0 
 2.929862e-04  -2.088012e-04  0 
 4.745736e-04  -4.256651e-04  0 
 0  0  0 
 0  0  0 
 2.018654e-04  -2.942679e-04  0 
 3.539091e-04  -8.302477e-05  0 
 7.210038e-04  1.618081e-04  0 
 0  0  0 
 0  0  0 
 0  0  0 
 -1.926187e-07  9.154284e-06  0 
 1.854540e-04  -2.305623e-04  0 
 7.553836e-05  -3.548106e-04  0 
 -2.040320e-05  -1.494258e-04  0 
 1.126192e-04  -6.164988e-05  0 
 3.051516e-04  -4.602294e-04  0 
 2.575956e-05  1.400025e-05  0 
 3.848314e-04  4.702256e-05  0 
 9.005932e-04  5.614889e-04  0 
 6.064994e-04  -1.638384e-05  0 
 2.035736e-04  5.899294e-05  0 
 8.813719e-04  1.833984e-04  0 
 1.176897e-03  6.278256e-04  0 
 8.914836e-04  3.354603e-04  0 
 5.158025e-04  -1.766436e-05  0 
 4.656345e-04  1.244583e-04  0 
 2.071155e-04  5.813467e-05  0 
 5.781942e-04  -1.177316e-04  0 
 1.542223e-04  -9.187992e-05  0 
VECTORS displacement_ITER6 FLOAT
 0  0  0 
 0  0  0 
 1.211982e-04  -1.154178e-04  0 
 2.406794e-04  -1.821934e-04  0 
 4.035525e-04  -3.315291e-04  0 
 0  0  0 
 0  0  0 
 5.851906e-04  -7.536213e-04  0 
 1.069793e-03  -1.083112e-03  0 
 1.678367e-03  -1.601820e-03  0 
 0  0  0 
 0  0  0 
 0  0  0 
 3.961252e-05  -1.686922e-05  0 
 1.811322e-04  -1.650340e-04  0 
 1.120344e-04  -2.448994e-04  0 
 8.605045e-05  -1.414611e-04  0 
 1.199045e-04  -8.529670e-05  0 
 2.801693e-04  -2.966156e-04  0 
 3.192958e-05  -1.253196e-05  0 
 4.286712e-04  -8.871028e-05  0 
 1.427569e-03  -5.570049e-04  0 
 7.051919e-04  -1.516816e-04  0 
 1.928536e-04  4.011298e-05  0 
 1.233876e-03  -3.204616e-04  0 
 1.748507e-03  -3.084873e-04  0 
 1.096478e-03  -1.201237e-04  0 
 7.744758e-04  -5.213275e-04  0 
 4.499721e-04  7.384311e-05  0 
 1.933509e-04  2.805526e-05  0 
 7.943324e-04  -3.828408e-04  0 
 2.087164e-04  -1.760786e-04  0 
VECTORS displacement_ITER7 FLOAT
 0  0  0 
 0  0  0 
 1.243958e-04  -1.214199e-04  0 
 2.467759e-04  -2.082318e-04  0 
 4.022381e-04  -3.739623e-04  0 
 0  0  0 
 0  0  0 
 7.507969e-04  -9.081505e-04  0 
 1.385423e-03  -1.370341e-03  0 
 1.852212e-03  -1.376769e-03  0 
 0  0  0 
 0  0  0 
 0  0  0 
 2.819941e-05  -4.206824e-05  0 
 1.752138e-04  -2.069737e-04  0 
 9.434732e-05  -3.027857e-04  0 
 4.811024e-05  -1.749412e-04  0 
 1.131553e-04  -1.003523e-04  0 
 2.741994e-04  -3.447917e-04  0 
 3.147639e-05  -1.686554e-05  0 
 4.161648e-04  -1.355801e-04  0 
 1.637451e-03  -1.054562e-03  0 
 7.214871e-04  -2.778436e-04  0 
 1.719394e-04  9.261293e-06  0 
 1.276095e-03  -5.898645e-04  0 
 1.757089e-03  -8.360395e-04  0 
 1.046924e-03  -3.961073e-04  0 
 8.984680e-04  -6.755294e-04  0 
 4.099468e-04  -1.943312e-05  0 
 1.808176e-04  -9.128567e-07  0 
 8.782367e-04  -5.074406e-04  0 
 2.375546e-04  -1.838905e-04  0 
VECTORS displacement_ITER8 FLOAT
 0  0  0 
 0  0  0 
 1.042586e-04  -1.032383e-04  0 
 2.086356e-04  -1.660885e-04  0 
 3.441018e-04  -2.868511e-04  0 
 0  0  0 
 0  0  0 
 6.619820e-04  -7.845992e-04  0 
 1.238168e-03  -1.176620e-03  0 
 1.760222e-03  -1.338517e-03  0 
 0  0  0 
 0  0  0 
 0  0  0 
 3.807216e-05  -3.260717e-05  0 
 1.613533e-04  -1.513449e-04  0 
 1.039612e-04  -2.191836e-04  0 
 6.561507e-05  -1.246788e-04  0 
 1.028672e-04  -7.810551e-05  0 
 2.463878e-04  -2.559918e-04  0 
 2.961505e-05  -1.711363e-05  0 
 3.787638e-04  -1.048754e-04  0 
 1.430527e-03  -8.583682e-04  0 
 6.462482e-04  -2.071957e-04  0 
 1.560939e-04  1.967614e-05  0 
 1.158541e-03  -4.870694e-04  0 
 1.586613e-03  -6.787588e-04  0 
 9.544845e-04  -3.089411e-04  0 
 7.912601e-04  -5.681407e-04  0 
 3.709695e-04  9.947793e-06  0 
 1.636278e-04  1.122373e-05  0 
 7.913605e-04  -4.031882e-04  0 
 2.106946e-04  -1.561931e-04  0 
VECTORS displacement_ITER9 FLOAT
 0  0  0 
 0  0  0 
 1.068295e-04  -1.043359e-04  0 
 2.140015e-04  -1.705807e-04  0 
 3.566484e-04  -3.059575e-04  0 
 0  0  0 
 0  0  0 
 6.763449e-04  -8.083229e-04  0 
 1.255536e-03  -1.212542e-03  0 
 1.797719e-03  -1.436144e-03  0 
 0  0  0 
 0  0  0 
 0  0  0 
 3.470471e-05  -3.368783e-05  0 
 1.599509e-04  -1.578357e-04  0 
 9.974337e-05  -2.231149e-04  0 
 6.034227e-05  -1.331189e-04  0 
 1.028694e-04  -8.034336e-05  0 
 2.512440e-04  -2.715059e-04  0 
 2.941575e-05  -1.617140e-05  0 
 3.819274e-04  -1.255998e-04  0 
 1.424688e-03  -9.038373e-04  0 
 6.554104e-04  -2.541469e-04  0 
 1.529910e-04  1.240755e-05  0 
 1.187169e-03  -6.024179e-04  0 
 1.600180e-03  -8.447246e-04  0 
 9.628895e-04  -3.818825e-04  0 
 7.985365e-04  -6.033739e-04  0 
 3.667444e-04  -1.234697e-05  0 
 1.619082e-04  2.689115e-06  0 
 8.219975e-04  -4.640872e-04  0 
 2.132082e-04  -1.663903e-04  0 
VECTORS displacement_ITER10 FLOAT
 0  0  0 
 0  0  0 
 1.031036e-04  -9.988571e-05  0 
 2.071826e-04  -1.631614e-04  0 
 3.468720e-04  -2.924269e-04  0 
 0  0  0 
 0  0  0 
 6.425897e-04  -7.866030e-04  0 
 1.176896e-03  -1.157199e-03  0 
 1.633209e-03  -1.238087e-03  0 
 0  0  0 
 0  0  0 
 0  0  0 
 3.302710e-05  -3.230952e-05  0 
 1.559044e-04  -1.488277e-04  0 
 9.758569e-05  -2.112289e-04  0 
 5.877689e-05  -1.244634e-04  0 
 9.956357e-05  -7.598117e-05  0 
 2.452641e-04  -2.582981e-04  0 
 2.852303e-05  -1.506896e-05  0 
 3.823881e-04  -1.243049e-04  0 
 1.386421e-03  -8.549195e-04  0 
 6.537384e-04  -2.506109e-04  0 
 1.545898e-04  1.804545e-05  0 
 1.167646e-03  -5.858056e-04  0 
 1.588321e-03  -7.367675e-04  0 
 9.699120e-04  -3.493114e-04  0 
 7.751761e-04  -5.905014e-04  0 
 3.722540e-04  -4.890837e-07  0 
 1.627118e-04  5.428843e-06  0 
 8.254294e-04  -4.820247e-04  0 
 2.073189e-04  -1.699402e-04  0 
VECTORS displacement_ITER11 FLOAT
 0  0  0 
 0  0  0 
 1.021589e-04  -9.869080e-05  0 
 2.055966e-04  -1.610524e-04  0 
 3.445028e-04  -2.896843e-04  0 
 0  0  0 
 0  0  0 
 6.303888e-04  -7.568893e-04  0 
 1.168606e-03  -1.124347e-03  0 
 1.660474e-03  -1.276473e-03  0 
 0  0  0 
 0  0  0 
 0  0  0 
 3.300297e-05  -3.134577e-05  0 
 1.546232e-04  -1.467830e-04  0 
 9.691510e-05  -2.080964e-04  0 
 5.790504e-05  -1.231333e-04  0 
 9.887309e-05  -7.455811e-05  0 
 2.434290e-04  -2.547676e-04  0 
 2.830819e-05  -1.472335e-05  0 
 3.668894e-04  -1.137046e-04  0 
 1.349062e-03  -8.246340e-04  0 
 6.282332e-04  -2.337069e-04  0 
 1.495825e-04  1.582226e-05  0 
 1.117936e-03  -5.407660e-04  0 
 1.527608e-03  -7.076519e-04  0 
 9.260506e-04  -3.283952e-04  0 
 7.534509e-04  -5.595205e-04  0 
 3.582060e-04  -1.725913e-06  0 
 1.574764e-04  5.678234e-06  0 
 7.889954e-04  -4.276561e-04  0 
 2.015750e-04  -1.575855e-04  0 
VECTORS displacement_ITER12 FLOAT
 0  0  0 
 0  0  0 
 1.023550e-04  -9.890870e-05  0 
 2.059354e-04  -1.614253e-04  0 
 3.448208e-04  -2.901926e-04  0 
 0  0  0 
 0  0  0 
 6.296818e-04  -7.614581e-04  0 
 1.161562e-03  -1.124528e-03  0 
 1.638109e-03  -1.249053e-03  0 
 0  0  0 
 0  0  0 
 0  0  0 
 3.302211e-05  -3.129567e-05  0 
 1.548767e-04  -1.472976e-04  0 
 9.711582e-05  -2.088081e-04  0 
 5.787017e-05  -1.236396e-04  0 
 9.906984e-05  -7.475330e-05  0 
 2.436476e-04  -2.551813e-04  0 
 2.834158e-05  -1.472684e-05  0 
 3.696938e-04  -1.175524e-04  0 
 1.350242e-03  -8.259126e-04  0 
 6.367920e-04  -2.358655e-04  0 
 1.503879e-04  1.575492e-05  0 
 1.136385e-03  -5.503496e-04  0 
 1.530231e-03  -7.216127e-04  0 
 9.334791e-04  -3.384262e-04  0 
 7.558430e-04  -5.660207e-04  0 
 3.610718e-04  -3.420085e-06  0 
 1.584397e-04  4.707677e-06  0 
 7.994946e-04  -4.383152e-04  0 
 2.023514e-04  -1.609691e-04  0 
VECTORS displacement_ITER13 FLOAT
 0  0  0 
 0  0  0 
 1.023802e-04  -9.899389e-05  0 
 2.059494e-04  -1.616153e-04  0 
 3.448678e-04  -2.903747e-04  0 
 0  0  0 
 0  0  0 
 6.299591e-04  -7.610335e-04  0 
 1.162863e-03  -1.125082e-03  0 
 1.638843e-03  -1.249653e-03  0 
 0  0  0 
 0  0  0 
 0  0  0 
 3.298575e-05  -3.157027e-05  0 
 1.548883e-04  -1.474565e-04  0 
 9.707560e-05  -2.090833e-04  0 
 5.792361e-05  -1.236731e-04  0 
 9.902985e-05  -7.493033e-05  0 
 2.436784e-04  -2.554853e-04  0 
 2.835141e-05  -1.480666e-05  0 
 3.687843e-04  -1.160252e-04  0 
 1.353072e-03  -8.258621e-04  0 
 6.327104e-04  -2.335736e-04  0 
 1.498811e-04  1.558508e-05  0 
 1.132460e-03  -5.468872e-04  0 
 1.530869e-03  -7.269502e-04  0 
 9.306474e-04  -3.362391e-04  0 
 7.565787e-04  -5.644308e-04  0 
 3.592479e-04  -2.910305e-06  0 
 1.578784e-04  5.196241e-06  0 
 7.921632e-04  -4.317604e-04  0 
 2.023691e-04  -1.600063e-04  0 
VECTORS displacement_ITER14 FLOAT
 0  0  0 
 0  0  0 
 1.023801e-04  -9.899129e-05  0 
 2.059507e-04  -1.616091e-04  0 
 3.448698e-04  -2.903751e-04  0 
 0  0  0 
 0  0  0 
 6.301230e-04  -7.613004e-04  0 
 1.163132e-03  -1.125646e-03  0 
 1.638538e-03  -1.249297e-03  0 
 0  0  0 
 0  0  0 
 0  0  0 
 3.298745e-05  -3.155888e-05  0 
 1.548876e-04  -1.474526e-04  0 
 9.708300e-05  -2.090613e-04  0 
 5.791979e-05  -1.236769e-04  0 
 9.903226e-05  -7.492394e-05  0 
 2.436808e-04  -2.554751e-04  0 
 2.835116e-05  -1.480341e-05  0 
 3.688266e-04  -1.159926e-04  0 
 1.353714e-03  -8.265021e-04  0 
 6.325925e-04  -2.334963e-04  0 
 1.498971e-04  1.561666e-05  0 
 1.132262e-03  -5.467948e-04  0 
 1.532175e-03  -7.279260e-04  0 
 9.308363e-04  -3.360287e-04  0 
 7.567911e-04  -5.646514e-04  0 
 3.592600e-04  -2.788013e-06  0 
 1.578810e-04  5.239360e-06  0 
 7.920892e-04  -4.311525e-04  0 
 2.024036e-04  -1.600406e-04  0 
CELL_DATA 43
TENSORS element_stresses FLOAT
 4.621161e-01  1.058927e-01  0 
 1.058927e-01  -3.118673e-01  0 
 0  0  0 

 1.418512e-01  9.151613e-02  0 
 9.151613e-02  -2.296073e-01  0 
 0  0  0 

 1.057004e-01  -5.677214e-02  0 
 -5.677214e-02  5.647307e-03  0 
 0  0  0 

 2.264913e-01  7.555533e-03  0 
 7.555533e-03  4.874553e-02  0 
 0  0  0 

 3.616472e-01  3.963053e-02  0 
 3.963053e-02  -1.754503e-01  0 
 0  0  0 

 -2.623632e-02  -2.151866e-02  0 
 -2.151866e-02  -6.274438e-03  0 
 0  0  0 

 1.514950e-01  2.387264e-01  0 
 2.387264e-01  -4.291209e-01  0 
 0  0  0 

 2.743321e-01  1.164228e-01  0 
 1.164228e-01  -8.906838e-02  0 
 0  0  0 

 3.862520e-01  -1.927858e-01  0 
 -1.927858e-01  -7.756188e-02  0 
 0  0  0 

 2.025433e-01  -7.402983e-02  0 
 -7.402983e-02  6.076298e-02  0 
 0  0  0 

 2.025433e-01  -7.402983e-02  0 
 -7.402983e-02  6.076298e-02  0 
 0  0  0 

 2.861562e-01  -8.770108e-02  0 
 -8.770108e-02  3.389813e-02  0 
 0  0  0 

 2.091816e-01  -1.507879e-02  0 
 -1.507879e-02  -2.011096e-01  0 
 0  0  0 

 1.310618e-01  -5.930393e-02  0 
 -5.930393e-02  5.184240e-02  0 
 0  0  0 

 1.508617e-03  2.888314e-05  0 
 2.888314e-05  -1.310026e-03  0 
 0  0  0 

 6.270021e-04  8.268250e-04  0 
 8.268250e-04  2.377525e-04  0 
 0  0  0 

 6.039001e-04  6.801346e-05  0 
 6.801346e-05  6.479320e-04  0 
 0  0  0 

 1.010866e-03  7.372020e-05  0 
 7.372020e-05  3.032598e-04  0 
 0  0  0 

 1.672572e-03  1.073924e-04  0 
 1.073924e-04  -1.550591e-04  0 
 0  0  0 

 1.812881e-03  -1.262224e-04  0 
 -1.262224e-04  -1.584880e-03  0 
 0  0  0 

 1.307774e-03  3.066515e-04  0 
 3.066515e-04  6.321881e-04  0 
 0  0  0 

 1.545265e-03  -1.709908e-04  0 
 -1.709908e-04  -9.209777e-04  0 
 0  0  0 

 2.025736e-03  -3.278484e-05  0 
 -3.278484e-05  -8.708018e-04  0 
 0  0  0 

 1.787438e-03  -6.766423e-05  0 
 -6.766423e-05  -1.325788e-04  0 
 0  0  0 

 1.065787e-03  3.258591e-04  0 
 3.258591e-04  -2.418042e-04  0 
 0  0  0 

 6.200215e-04  4.321634e-04  0 
 4.321634e-04  6.857974e-04  0 
 0  0  0 

 9.881561e-04  2.784383e-04  0 
 2.784383e-04  8.160950e-04  0 
 0  0  0 

 1.712411e-03  -4.345651e-04  0 
 -4.345651e-04  -1.398749e-03  0 
 0  0  0 

 1.734205e-03  1.291437e-04  0 
 1.291437e-04  -9.929423e-04  0 
 0  0  0 

 1.703903e-03  1.434446e-04  0 
 1.434446e-04  -1.668260e-04  0 
 0  0  0 

 1.006841e-03  7.482193e-05  0 
 7.482193e-05  2.390628e-04  0 
 0  0  0 

 1.407522e-03  6.268552e-04  0 
 6.268552e-04  2.209127e-04  0 
 0  0  0 

 1.112881e-03  1.557501e-04  0 
 1.557501e-04  -1.495370e-04  0 
 0  0  0 

 1.065191e-03  -2.556111e-05  0 
 -2.556111e-05  2.587717e-04  0 
 0  0  0 

 1.221512e-03  4.859696e-04  0 
 4.859696e-04  -3.562109e-04  0 
 0  0  0 

 1.046393e-03  2.430755e-05  0 
 2.430755e-05  3.139179e-04  0 
 0  0  0 

 1.296379e-03  -4.579096e-06  0 
 -4.579096e-06  -2.457991e-05  0 
 0  0  0 

 2.343234e-03  -1.744423e-03  0 
 -1.744423e-03  -5.908612e-04  0 
 0  0  0 

 1.445989e-03  -8.003408e-04  0 
 -8.003408e-04  4.337968e-04  0 
 0  0  0 

 1.445989e-03  -8.003408e-04  0 
 -8.003408e-04  4.337968e-04  0 
 0  0  0 

 2.094501e-03  -8.663122e-04  0 
 -8.663122e-04  -3.906218e-04  0 
 0  0  0 

 1.749704e-03  -4.298053e-04  0 
 -4.298053e-04  -1.401527e-03  0 
 0  0  0 

 1.361526e-03  -3.044934e-04  0 
 -3.044934e-04  1.532705e-05  0 
 0  0  0 

TENSORS element_stresses FLOAT
 4.621161e-01  1.058927e-01  0 
 1.058927e-01  -3.118673e-01  0 
 0  0  0 

 1.418512e-01  9.151613e-02  0 
 9.151613e-02  -2.296073e-01  0 
 0  0  0 

 1.057004e-01  -5.677214e-02  0 
 -5.677214e-02  5.647307e-03  0 
 0  0  0 

 2.264913e-01  7.555533e-03  0 
 7.555533e-03  4.874553e-02  0 
 0  0  0 

 3.616472e-01  3.963053e-02  0 
 3.963053e-02  -1.754503e-01  0 
 0  0  0 

 -2.623632e-02  -2.151866e-02  0 
 -2.151866e-02  -6.274438e-03  0 
 0  0  0 

 1.514950e-01  2.387264e-01  0 
 2.387264e-01  -4.291209e-01  0 
 0  0  0 

 2.743321e-01  1.164228e-01  0 
 1.164228e-01  -8.906838e-02  0 
 0  0  0 

 3.862520e-01  -1.927858e-01  0 
 -1.927858e-01  -7.756188e-02  0 
 0  0  0 

 2.025433e-01  -7.402983e-02  0 
 -7.402983e-02  6.076298e-02  0 
 0  0  0 

 2.025433e-01  -7.402983e-02  0 
 -7.402983e-02  6.076298e-02  0 
 0  0  0 

 2.861562e-01  -8.770108e-02  0 
 -8.770108e-02  3.389813e-02  0 
 0  0  0 

 2.091816e-01  -1.507879e-02  0 
 -1.507879e-02  -2.011096e-01  0 
 0  0  0 

 1.310618e-01  -5.930393e-02  0 
 -5.930393e-02  5.184240e-02  0 
 0  0  0 

 1.508617e-03  2.888314e-05  0 
 2.888314e-05  -1.310026e-03  0 
 0  0  0 

 6.270021e-04  8.268250e-04  0 
 8.268250e-04  2.377525e-04  0 
 0  0  0 

 6.039001e-04  6.801346e-05  0 
 6.801346e-05  6.479320e-04  0 
 0  0  0 

 1.010866e-03  7.372020e-05  0 
 7.372020e-05  3.032598e-04  0 
 0  0  0 

 1.672572e-03  1.073924e-04  0 
 1.073924e-04  -1.550591e-04  0 
 0  0  0 

 1.812881e-03  -1.262224e-04  0 
 -1.262224e-04  -1.584880e-03  0 
 0  0  0 

 1.307774e-03  3.066515e-04  0 
 3.066515e-04  6.321881e-04  0 
 0  0  0 

 1.545265e-03  -1.709908e-04  0 
 -1.709908e-04  -9.209777e-04  0 
 0  0  0 

 2.025736e-03  -3.278484e-05  0 
 -3.278484e-05  -8.708018e-04  0 
 0  0  0 

 1.787438e-03  -6.766423e-05  0 
 -6.766423e-05  -1.325788e-04  0 
 0  0  0 

 1.065787e-03  3.258591e-04  0 
 3.258591e-04  -2.418042e-04  0 
 0  0  0 

 6.200215e-04  4.321634e-04  0 
 4.321634e-04  6.857974e-04  0 
 0  0  0 

 9.881561e-04  2.784383e-04  0 
 2.784383e-04  8.160950e-04  0 
 0  0  0 

 1.712411e-03  -4.345651e-04  0 
 -4.345651e-04  -1.398749e-03  0 
 0  0  0 

 1.734205e-03  1.291437e-04  0 
 1.291437e-04  -9.929423e-04  0 
 0  0  0 

 1.703903e-03  1.434446e-04  0 
 1.434446e-04  -1.668260e-04  0 
 0  0  0 

 1.006841e-03  7.482193e-05  0 
 7.482193e-05  2.390628e-04  0 
 0  0  0 

 1.407522e-03  6.268552e-04  0 
 6.268552e-04  2.209127e-04  0 
 0  0  0 

 1.112881e-03  1.557501e-04  0 
 1.557501e-04  -1.495370e-04  0 
 0  0  0 

 1.065191e-03  -2.556111e-05  0 
 -2.556111e-05  2.587717e-04  0 
 0  0  0 

 1.221512e-03  4.859696e-04  0 
 4.859696e-04  -3.562109e-04  0 
 0  0  0 

 1.046393e-03  2.430755e-05  0 
 2.430755e-05  3.139179e-04  0 
 0  0  0 

 1.296379e-03  -4.579096e-06  0 
 -4.579096e-06  -2.457991e-05  0 
 0  0  0 

 2.343234e-03  -1.744423e-03  0 
 -1.744423e-03  -5.908612e-04  0 
 0  0  0 

 1.445989e-03  -8.003408e-04  0 
 -8.003408e-04  4.337968e-04  0 
 0  0  0 

 1.445989e-03  -8.003408e-04  0 
 -8.003408e-04  4.337968e-04  0 
 0  0  0 

 2.094501e-03  -8.663122e-04  0 
 -8.663122e-04  -3.906218e-04  0 
 0  0  0 

 1.749704e-03  -4.298053e-04  0 
 -4.298053e-04  -1.401527e-03  0 
 0  0  0 

 1.361526e-03  -3.044934e-04  0 
 -3.044934e-04  1.532705e-05  0 
 0  0  0 

