# vtk DataFile Version 3.1
this is an vtk file created by FEMAC
ASCII
DATASET UNSTRUCTURED_GRID
POINTS 30 FLOAT
3.000000 5.000000 0.000000
3.000000 6.000000 0.000000
2.750000 5.000000 0.000000
3.000000 5.250000 0.000000
3.000000 5.500000 0.000000
3.000000 5.750000 0.000000
3.250000 5.000000 0.000000
3.500000 5.000000 0.000000
3.250000 6.000000 0.000000
3.500000 6.000000 0.000000
2.779567 5.382160 0.000000
2.755439 5.624066 0.000000
2.782339 5.186810 0.000000
2.612481 5.213004 0.000000
3.226067 4.588218 0.000000
3.371004 4.799680 0.000000
3.169414 4.827579 0.000000
3.552553 5.528256 0.000000
3.186919 5.669072 0.000000
3.186347 5.331392 0.000000
3.225000 5.500000 0.000000
3.757141 5.565925 0.000000
3.339072 5.805846 0.000000
3.338405 5.194695 0.000000
3.586659 5.323754 0.000000
3.546713 5.717271 0.000000
3.383083 5.404183 0.000000
3.386514 5.598598 0.000000
3.155198 5.844984 0.000000
3.154950 5.155217 0.000000
CELLS 42 168 
3 10  3  4
3 12  2  0
3 3 12  0
3 10 12  3
3 2 12 13
3 11  4  5
3 11 10  4
3 12 10 13
3 7  6 15
3 16  6  0
3 6 16 15
3 16 14 15
3 4 18  5
3 19  4  3
3 20 18  4
3 19 20  4
3 19 26 20
3 27 18 20
3 23  6  7
3 8 22  9
3 27 22 18
3 23 26 19
3 27 26 17
3 20 26 27
3 23  7 24
3 17 26 24
3 23 24 26
3 9 22 25
3 27 17 25
3 25 22 27
3 5 28  1
3 28  8  1
3 28  5 18
3 29  3  0
3 6 29  0
3 3 29 19
3 28 22  8
3 18 22 28
3 23 29  6
3 23 19 29
3 17 24 21
3 25 17 21
CELL_TYPES 42
5 5 5 5 5 5 5 5 5 5 5 5 5 5 5 5 5 5 5 5 5 5 5 5 5 5 5 5 5 5 5 5 5 5 5 5 5 5 5 5 5 5 
POINT_DATA 30
VECTORS displacement_ITER1 FLOAT
 9.094927e-02  -1.620931e-01  0 
 1.843320e-01  -1.622057e-01  0 
 8.299060e-02  -1.292977e-01  0 
 1.143116e-01  -1.621301e-01  0 
 1.376579e-01  -1.621586e-01  0 
 1.609964e-01  -1.621880e-01  0 
 9.097635e-02  -1.854624e-01  0 
 9.100133e-02  -2.088101e-01  0 
 1.843562e-01  -1.855476e-01  0 
 1.843786e-01  -2.088908e-01  0 
 1.197383e-01  -1.421071e-01  0 
 1.397007e-01  -1.432346e-01  0 
 1.012909e-01  -1.385883e-01  0 
 9.544789e-02  -1.247742e-01  0 
 6.452736e-02  -1.666119e-01  0 
 8.229570e-02  -1.886047e-01  0 
 7.918672e-02  -1.746365e-01  0 
 1.403352e-01  -2.137643e-01  0 
 1.534572e-01  -1.796275e-01  0 
 1.219261e-01  -1.795447e-01  0 
 1.376726e-01  -1.831686e-01  0 
 1.438709e-01  -2.328852e-01  0 
 1.662373e-01  -1.938466e-01  0 
 1.091667e-01  -1.937393e-01  0 
 1.212313e-01  -2.169356e-01  0 
 1.579823e-01  -2.132324e-01  0 
 1.287345e-01  -1.979243e-01  0 
 1.468913e-01  -1.982616e-01  0 
 1.698749e-01  -1.766819e-01  0 
 1.054684e-01  -1.765974e-01  0 
VECTORS displacement_ITER2 FLOAT
 6.389766e-02  -7.774357e-02  0 
 9.750148e-02  -7.796444e-02  0 
 4.150286e-02  -4.250179e-02  0 
 7.237387e-02  -7.782895e-02  0 
 8.078232e-02  -7.789302e-02  0 
 8.913802e-02  -7.794460e-02  0 
 6.395084e-02  -8.623207e-02  0 
 6.398980e-02  -9.468343e-02  0 
 9.751690e-02  -8.632141e-02  0 
 9.753411e-02  -9.467290e-02  0 
 7.272113e-02  -6.777017e-02  0 
 7.823997e-02  -6.914392e-02  0 
 6.344002e-02  -6.322690e-02  0 
 5.636437e-02  -5.312533e-02  0 
 3.584673e-02  -7.319839e-02  0 
 5.390675e-02  -8.723171e-02  0 
 5.273129e-02  -7.803293e-02  0 
 8.175077e-02  -9.643873e-02  0 
 8.645471e-02  -8.418173e-02  0 
 7.513505e-02  -8.412839e-02  0 
 8.079588e-02  -8.544413e-02  0 
 8.301203e-02  -1.032990e-01  0 
 9.103514e-02  -8.928390e-02  0 
 7.054049e-02  -8.924329e-02  0 
 7.489436e-02  -9.759801e-02  0 
 8.807917e-02  -9.623190e-02  0 
 7.758934e-02  -9.075134e-02  0 
 8.410563e-02  -9.086706e-02  0 
 9.232796e-02  -8.314146e-02  0 
 6.918994e-02  -8.304480e-02  0 
VECTORS displacement_ITER3 FLOAT
 3.149680e-02  -2.770443e-02  0 
 5.272011e-02  -2.800132e-02  0 
 1.745836e-02  -2.467144e-02  0 
 3.692291e-02  -2.783075e-02  0 
 4.223970e-02  -2.791435e-02  0 
 4.749584e-02  -2.796801e-02  0 
 3.160011e-02  -3.311063e-02  0 
 3.167554e-02  -3.845420e-02  0 
 5.273663e-02  -3.321619e-02  0 
 5.274705e-02  -3.844438e-02  0 
 3.601860e-02  -2.693429e-02  0 
 3.769812e-02  -2.777260e-02  0 
 2.931404e-02  -2.763283e-02  0 
 2.632900e-02  -2.232202e-02  0 
 7.101755e-03  -3.840656e-03  0 
 2.258954e-02  -2.414160e-02  0 
 1.887662e-02  -1.932334e-02  0 
 4.284866e-02  -3.958681e-02  0 
 4.581265e-02  -3.188103e-02  0 
 3.868450e-02  -3.183111e-02  0 
 4.225520e-02  -3.267122e-02  0 
 4.362759e-02  -4.389615e-02  0 
 4.867795e-02  -3.507425e-02  0 
 3.578811e-02  -3.505254e-02  0 
 3.855502e-02  -4.032957e-02  0 
 4.681674e-02  -3.943196e-02  0 
 4.024092e-02  -3.601562e-02  0 
 4.433435e-02  -3.607961e-02  0 
 4.949206e-02  -3.122617e-02  0 
 3.491179e-02  -3.112685e-02  0 
VECTORS displacement_ITER4 FLOAT
 5.191658e-03  -7.904499e-03  0 
 2.460443e-02  -8.199357e-03  0 
 -2.996344e-03  -6.488564e-03  0 
 1.021032e-02  -8.032240e-03  0 
 1.506843e-02  -8.118783e-03  0 
 1.985362e-02  -8.169008e-03  0 
 5.329859e-03  -1.286368e-02  0 
 5.417926e-03  -1.774774e-02  0 
 2.462211e-02  -1.294765e-02  0 
 2.462901e-02  -1.770502e-02  0 
 1.133011e-02  -6.527477e-03  0 
 1.487411e-02  -5.991395e-03  0 
 6.074279e-03  -7.944772e-03  0 
 5.633043e-03  -4.492233e-03  0 
 1.320071e-02  5.906968e-04  0 
 6.531132e-03  -4.106464e-03  0 
 3.508075e-03  -7.988062e-03  0 
 1.560959e-02  -1.875360e-02  0 
 1.831934e-02  -1.173153e-02  0 
 1.182028e-02  -1.169724e-02  0 
 1.507632e-02  -1.245659e-02  0 
 1.631512e-02  -2.265936e-02  0 
 2.092898e-02  -1.464090e-02  0 
 9.168071e-03  -1.464501e-02  0 
 1.169191e-02  -1.943898e-02  0 
 1.923299e-02  -1.861564e-02  0 
 1.323492e-02  -1.550881e-02  0 
 1.696773e-02  -1.555874e-02  0 
 2.166937e-02  -1.113464e-02  0 
 8.358873e-03  -1.106133e-02  0 
VECTORS displacement_ITER5 FLOAT
 3.342792e-03  -1.619540e-03  0 
 1.120316e-02  -1.840532e-03  0 
 2.706044e-03  -2.826281e-03  0 
 5.468260e-03  -1.723355e-03  0 
 7.428870e-03  -1.789831e-03  0 
 9.326723e-03  -1.819503e-03  0 
 3.480917e-03  -3.670636e-03  0 
 3.564566e-03  -5.650310e-03  0 
 1.121275e-02  -3.712510e-03  0 
 1.121569e-02  -5.585008e-03  0 
 5.958015e-03  -1.250147e-03  0 
 7.707749e-03  -9.623972e-04  0 
 4.283238e-03  -1.967951e-03  0 
 4.355222e-03  -1.964447e-03  0 
 1.563516e-03  -4.607099e-03  0 
 1.677338e-03  -4.689456e-03  0 
 2.012727e-03  -3.375898e-03  0 
 7.631510e-03  -6.034221e-03  0 
 8.720659e-03  -3.232109e-03  0 
 6.126763e-03  -3.225204e-03  0 
 7.428851e-03  -3.526494e-03  0 
 7.903789e-03  -7.574331e-03  0 
 9.753394e-03  -4.383073e-03  0 
 5.055214e-03  -4.417479e-03  0 
 6.075324e-03  -6.321679e-03  0 
 9.071993e-03  -5.968155e-03  0 
 6.691537e-03  -4.752296e-03  0 
 8.177339e-03  -4.759500e-03  0 
 1.004645e-02  -2.995814e-03  0 
 4.707825e-03  -2.966536e-03  0 
VECTORS displacement_ITER6 FLOAT
 3.065653e-03  -3.117946e-03  0 
 6.153882e-03  -3.304853e-03  0 
 2.569460e-03  -1.360385e-03  0 
 4.011275e-03  -3.206760e-03  0 
 4.773957e-03  -3.270205e-03  0 
 5.471423e-03  -3.294430e-03  0 
 3.219698e-03  -3.954490e-03  0 
 3.310665e-03  -4.733922e-03  0 
 6.155022e-03  -3.983348e-03  0 
 6.151509e-03  -4.649671e-03  0 
 4.012562e-03  -2.537193e-03  0 
 4.594309e-03  -2.838815e-03  0 
 3.319321e-03  -2.119311e-03  0 
 2.815952e-03  -1.725062e-03  0 
 1.846139e-03  -3.478762e-03  0 
 2.379816e-03  -4.247680e-03  0 
 2.328115e-03  -3.440631e-03  0 
 4.836987e-03  -4.859046e-03  0 
 5.251916e-03  -3.812520e-03  0 
 4.278407e-03  -3.817423e-03  0 
 4.770771e-03  -3.928613e-03  0 
 4.929846e-03  -5.411714e-03  0 
 5.626561e-03  -4.230362e-03  0 
 3.861528e-03  -4.280553e-03  0 
 4.263624e-03  -4.982651e-03  0 
 5.366077e-03  -4.820893e-03  0 
 4.492770e-03  -4.395790e-03  0 
 5.044117e-03  -4.384207e-03  0 
 5.733874e-03  -3.725219e-03  0 
 3.697860e-03  -3.715405e-03  0 
VECTORS displacement_ITER7 FLOAT
 2.256447e-03  -3.114536e-03  0 
 5.029886e-03  -3.260332e-03  0 
 2.103397e-03  -2.688373e-03  0 
 3.105151e-03  -3.193428e-03  0 
 3.781447e-03  -3.246392e-03  0 
 4.405319e-03  -3.258303e-03  0 
 2.404028e-03  -3.855791e-03  0 
 2.494167e-03  -4.542433e-03  0 
 5.031979e-03  -3.885326e-03  0 
 5.034610e-03  -4.515395e-03  0 
 3.124593e-03  -2.798481e-03  0 
 3.644813e-03  -3.051071e-03  0 
 2.616729e-03  -2.695793e-03  0 
 2.496502e-03  -2.345605e-03  0 
 1.877524e-03  -3.628999e-03  0 
 2.024564e-03  -4.251541e-03  0 
 1.939540e-03  -3.584162e-03  0 
 3.834030e-03  -4.655405e-03  0 
 4.205115e-03  -3.727045e-03  0 
 3.341059e-03  -3.735529e-03  0 
 3.777699e-03  -3.830477e-03  0 
 3.913384e-03  -5.135149e-03  0 
 4.544362e-03  -4.107514e-03  0 
 2.971286e-03  -4.148500e-03  0 
 3.323699e-03  -4.763780e-03  0 
 4.319023e-03  -4.628884e-03  0 
 3.528572e-03  -4.246022e-03  0 
 4.021606e-03  -4.233768e-03  0 
 4.643007e-03  -3.647297e-03  0 
 2.824714e-03  -3.648233e-03  0 
VECTORS displacement_ITER8 FLOAT
 2.032504e-03  -2.422647e-03  0 
 4.843349e-03  -2.570670e-03  0 
 1.867230e-03  -2.180803e-03  0 
 2.888160e-03  -2.500111e-03  0 
 3.575711e-03  -2.553248e-03  0 
 4.212050e-03  -2.567764e-03  0 
 2.178460e-03  -3.170899e-03  0 
 2.266966e-03  -3.861726e-03  0 
 4.844878e-03  -3.201417e-03  0 
 4.846627e-03  -3.830734e-03  0 
 2.913642e-03  -2.203700e-03  0 
 3.483106e-03  -2.355815e-03  0 
 2.397761e-03  -2.165261e-03  0 
 2.280392e-03  -2.013573e-03  0 
 1.853143e-03  -3.046701e-03  0 
 1.901135e-03  -3.372408e-03  0 
 1.815427e-03  -2.937758e-03  0 
 3.635206e-03  -3.990339e-03  0 
 4.009099e-03  -3.043829e-03  0 
 3.127726e-03  -3.049702e-03  0 
 3.572523e-03  -3.149451e-03  0 
 3.721629e-03  -4.484160e-03  0 
 4.352118e-03  -3.427385e-03  0 
 2.752264e-03  -3.466304e-03  0 
 3.115181e-03  -4.098478e-03  0 
 4.116463e-03  -3.963835e-03  0 
 3.321627e-03  -3.570657e-03  0 
 3.820923e-03  -3.563200e-03  0 
 4.452465e-03  -2.961860e-03  0 
 2.604447e-03  -2.960135e-03  0 
VECTORS displacement_ITER9 FLOAT
 2.068439e-03  -2.425984e-03  0 
 4.748303e-03  -2.555381e-03  0 
 1.907648e-03  -2.167082e-03  0 
 2.882003e-03  -2.499036e-03  0 
 3.533491e-03  -2.545320e-03  0 
 4.140608e-03  -2.555197e-03  0 
 2.215496e-03  -3.130134e-03  0 
 2.308754e-03  -3.770558e-03  0 
 4.751196e-03  -3.164537e-03  0 
 4.756571e-03  -3.781811e-03  0 
 2.888261e-03  -2.228320e-03  0 
 3.423396e-03  -2.400767e-03  0 
 2.407982e-03  -2.156945e-03  0 
 2.289153e-03  -1.959241e-03  0 
 1.467247e-03  -2.761407e-03  0 
 2.012138e-03  -3.409809e-03  0 
 1.875061e-03  -2.800271e-03  0 
 3.588133e-03  -3.913893e-03  0 
 3.945502e-03  -3.011399e-03  0 
 3.107394e-03  -3.018844e-03  0 
 3.530163e-03  -3.111304e-03  0 
 3.670628e-03  -4.397865e-03  0 
 4.274165e-03  -3.380080e-03  0 
 2.752997e-03  -3.412752e-03  0 
 3.095558e-03  -4.008613e-03  0 
 4.053748e-03  -3.886441e-03  0 
 3.289710e-03  -3.512174e-03  0 
 3.767930e-03  -3.504213e-03  0 
 4.371103e-03  -2.932485e-03  0 
 2.612733e-03  -2.936107e-03  0 
VECTORS displacement_ITER10 FLOAT
 2.045272e-03  -2.341726e-03  0 
 4.706776e-03  -2.477884e-03  0 
 1.891127e-03  -2.073051e-03  0 
 2.857117e-03  -2.416610e-03  0 
 3.503969e-03  -2.463764e-03  0 
 4.106262e-03  -2.475547e-03  0 
 2.196521e-03  -3.041430e-03  0 
 2.293415e-03  -3.672621e-03  0 
 4.708754e-03  -3.078501e-03  0 
 4.711090e-03  -3.681679e-03  0 
 2.864342e-03  -2.128323e-03  0 
 3.404267e-03  -2.255685e-03  0 
 2.367033e-03  -2.056420e-03  0 
 2.227481e-03  -1.863318e-03  0 
 1.756573e-03  -2.815409e-03  0 
 1.972231e-03  -3.259539e-03  0 
 1.859427e-03  -2.762732e-03  0 
 3.560038e-03  -3.821933e-03  0 
 3.913470e-03  -2.926944e-03  0 
 3.081183e-03  -2.933516e-03  0 
 3.500694e-03  -3.025838e-03  0 
 3.643990e-03  -4.301059e-03  0 
 4.239875e-03  -3.292611e-03  0 
 2.729363e-03  -3.323857e-03  0 
 3.069824e-03  -3.914773e-03  0 
 4.020385e-03  -3.797509e-03  0 
 3.262537e-03  -3.422756e-03  0 
 3.736915e-03  -3.416602e-03  0 
 4.334902e-03  -2.849872e-03  0 
 2.589330e-03  -2.851332e-03  0 
VECTORS displacement_ITER11 FLOAT
 2.035722e-03  -2.321213e-03  0 
 4.705102e-03  -2.455807e-03  0 
 1.881461e-03  -2.053748e-03  0 
 2.849219e-03  -2.395416e-03  0 
 3.497951e-03  -2.441917e-03  0 
 4.102552e-03  -2.453606e-03  0 
 2.187443e-03  -3.022126e-03  0 
 2.285660e-03  -3.652861e-03  0 
 4.707131e-03  -3.058504e-03  0 
 4.709696e-03  -3.663729e-03  0 
 2.860024e-03  -2.112683e-03  0 
 3.394981e-03  -2.253464e-03  0 
 2.370792e-03  -2.046018e-03  0 
 2.242381e-03  -1.866512e-03  0 
 1.675192e-03  -2.773656e-03  0 
 1.979314e-03  -3.244319e-03  0 
 1.874219e-03  -2.741072e-03  0 
 3.555032e-03  -3.804798e-03  0 
 3.909045e-03  -2.906629e-03  0 
 3.073686e-03  -2.913457e-03  0 
 3.494551e-03  -3.005857e-03  0 
 3.640497e-03  -4.286860e-03  0 
 4.236438e-03  -3.273338e-03  0 
 2.720340e-03  -3.305465e-03  0 
 3.060822e-03  -3.898714e-03  0 
 4.015783e-03  -3.780112e-03  0 
 3.255487e-03  -3.403864e-03  0 
 3.731923e-03  -3.398283e-03  0 
 4.331899e-03  -2.829114e-03  0 
 2.580488e-03  -2.831659e-03  0 
VECTORS displacement_ITER12 FLOAT
 2.036765e-03  -2.321442e-03  0 
 4.702686e-03  -2.456179e-03  0 
 1.882675e-03  -2.054220e-03  0 
 2.849547e-03  -2.395741e-03  0 
 3.497388e-03  -2.442354e-03  0 
 4.101039e-03  -2.454038e-03  0 
 2.188550e-03  -3.021595e-03  0 
 2.286731e-03  -3.651664e-03  0 
 4.704733e-03  -3.058011e-03  0 
 4.707373e-03  -3.662508e-03  0 
 2.858384e-03  -2.114056e-03  0 
 3.389188e-03  -2.257770e-03  0 
 2.376311e-03  -2.049770e-03  0 
 2.252921e-03  -1.875418e-03  0 
 1.637716e-03  -2.742570e-03  0 
 1.981117e-03  -3.242507e-03  0 
 1.874914e-03  -2.732006e-03  0 
 3.554351e-03  -3.803153e-03  0 
 3.907831e-03  -2.906380e-03  0 
 3.073762e-03  -2.913183e-03  0 
 3.494001e-03  -3.005469e-03  0 
 3.639617e-03  -4.284302e-03  0 
 4.234668e-03  -3.272501e-03  0 
 2.720900e-03  -3.304652e-03  0 
 3.060988e-03  -3.897014e-03  0 
 4.014337e-03  -3.778452e-03  0 
 3.255321e-03  -3.402904e-03  0 
 3.730976e-03  -3.397281e-03  0 
 4.330017e-03  -2.828949e-03  0 
 2.581131e-03  -2.831458e-03  0 
VECTORS displacement_ITER13 FLOAT
 2.036708e-03  -2.321846e-03  0 
 4.702613e-03  -2.456607e-03  0 
 1.882588e-03  -2.054761e-03  0 
 2.849513e-03  -2.396175e-03  0 
 3.497347e-03  -2.442794e-03  0 
 4.100977e-03  -2.454469e-03  0 
 2.188514e-03  -3.022009e-03  0 
 2.286687e-03  -3.652128e-03  0 
 4.704660e-03  -3.058426e-03  0 
 4.707301e-03  -3.662902e-03  0 
 2.859334e-03  -2.114628e-03  0 
 3.388064e-03  -2.259446e-03  0 
 2.375217e-03  -2.049420e-03  0 
 2.250820e-03  -1.872908e-03  0 
 1.642316e-03  -2.758657e-03  0 
 1.982773e-03  -3.241389e-03  0 
 1.880219e-03  -2.733199e-03  0 
 3.554267e-03  -3.803569e-03  0 
 3.907772e-03  -2.906800e-03  0 
 3.073727e-03  -2.913621e-03  0 
 3.493955e-03  -3.005899e-03  0 
 3.639497e-03  -4.284712e-03  0 
 4.234606e-03  -3.272911e-03  0 
 2.720891e-03  -3.305072e-03  0 
 3.060987e-03  -3.897389e-03  0 
 4.014276e-03  -3.778860e-03  0 
 3.255276e-03  -3.403338e-03  0 
 3.730910e-03  -3.397690e-03  0 
 4.329951e-03  -2.829371e-03  0 
 2.581104e-03  -2.831884e-03  0 
VECTORS displacement_ITER14 FLOAT
 2.036712e-03  -2.321829e-03  0 
 4.702522e-03  -2.456588e-03  0 
 1.882593e-03  -2.054745e-03  0 
 2.849490e-03  -2.396157e-03  0 
 3.497300e-03  -2.442775e-03  0 
 4.100908e-03  -2.454450e-03  0 
 2.188515e-03  -3.021968e-03  0 
 2.286687e-03  -3.652063e-03  0 
 4.704568e-03  -3.058384e-03  0 
 4.707209e-03  -3.662836e-03  0 
 2.859053e-03  -2.115178e-03  0 
 3.388251e-03  -2.259351e-03  0 
 2.375190e-03  -2.049517e-03  0 
 2.250747e-03  -1.872777e-03  0 
 1.642343e-03  -2.759471e-03  0 
 1.982755e-03  -3.241305e-03  0 
 1.880360e-03  -2.732823e-03  0 
 3.554220e-03  -3.803497e-03  0 
 3.907710e-03  -2.906764e-03  0 
 3.073696e-03  -2.913584e-03  0 
 3.493908e-03  -3.005859e-03  0 
 3.639449e-03  -4.284620e-03  0 
 4.234532e-03  -3.272860e-03  0 
 2.720872e-03  -3.305022e-03  0 
 3.060956e-03  -3.897317e-03  0 
 4.014210e-03  -3.778791e-03  0 
 3.255239e-03  -3.403282e-03  0 
 3.730855e-03  -3.397635e-03  0 
 4.329873e-03  -2.829337e-03  0 
 2.581091e-03  -2.831850e-03  0 
CELL_DATA 42
TENSORS element_stresses FLOAT
 1.598074e-03  9.267492e-04  0 
 9.267492e-04  2.929479e-04  0 
 0  0  0 

 7.476422e-04  1.124489e-03  0 
 1.124489e-03  4.372213e-04  0 
 0  0  0 

 1.259384e-03  1.342199e-03  0 
 1.342199e-03  8.050543e-05  0 
 0  0  0 

 1.480037e-03  7.759072e-04  0 
 7.759072e-04  8.676312e-05  0 
 0  0  0 

 1.286223e-03  1.104262e-03  0 
 1.104262e-03  5.885678e-04  0 
 0  0  0 

 1.820581e-03  1.262097e-03  0 
 1.262097e-03  4.994758e-04  0 
 0  0  0 

 1.567721e-03  9.558563e-04  0 
 9.558563e-04  -2.362286e-04  0 
 0  0  0 

 1.111595e-03  1.075390e-03  0 
 1.075390e-03  -1.817742e-05  0 
 0  0  0 

 2.905855e-04  -9.661709e-04  0 
 -9.661709e-04  -3.403339e-04  0 
 0  0  0 

 5.459337e-04  -9.977868e-04  0 
 -9.977868e-04  -2.042698e-04  0 
 0  0  0 

 6.253367e-04  -8.703315e-04  0 
 -8.703315e-04  -2.802117e-04  0 
 0  0  0 

 5.678970e-04  -1.107309e-03  0 
 -1.107309e-03  -3.317460e-04  0 
 0  0  0 

 -2.479125e-03  -1.971497e-02  0 
 -1.971497e-02  -4.744228e-02  0 
 0  0  0 

 1.696282e-02  -7.999789e-02  0 
 -7.999789e-02  -1.813856e-01  0 
 0  0  0 

 -9.170163e-03  -4.500152e-02  0 
 -4.500152e-02  1.968538e-02  0 
 0  0  0 

 -7.851083e-03  -5.309638e-03  0 
 -5.309638e-03  2.408231e-02  0 
 0  0  0 

 9.203784e-03  -4.982591e-03  0 
 -4.982591e-03  2.827105e-02  0 
 0  0  0 

 -1.461467e-02  -3.741447e-03  0 
 -3.741447e-03  3.057518e-02  0 
 0  0  0 

 3.295212e-01  2.740486e-02  0 
 2.740486e-02  -2.105481e-01  0 
 0  0  0 

 1.010971e-02  6.136844e-03  0 
 6.136844e-03  -1.516481e-03  0 
 0  0  0 

 -1.941072e-02  -1.613714e-02  0 
 -1.613714e-02  3.669551e-02  0 
 0  0  0 

 -2.950665e-03  3.211834e-02  0 
 3.211834e-02  6.622163e-02  0 
 0  0  0 

 -6.282464e-03  2.526563e-02  0 
 2.526563e-02  6.975506e-02  0 
 0  0  0 

 -5.372815e-03  -1.778772e-02  0 
 -1.778772e-02  7.101540e-02  0 
 0  0  0 

 1.160958e-01  2.933318e-02  0 
 2.933318e-02  -1.033066e-01  0 
 0  0  0 

 1.740993e-02  6.033086e-03  0 
 6.033086e-03  6.307052e-02  0 
 0  0  0 

 6.889891e-02  1.009314e-01  0 
 1.009314e-01  6.541857e-02  0 
 0  0  0 

 -1.563038e-02  1.173482e-02  0 
 1.173482e-02  3.433722e-03  0 
 0  0  0 

 -1.811248e-02  9.157620e-03  0 
 9.157620e-03  5.049140e-02  0 
 0  0  0 

 -1.347929e-02  6.545310e-03  0 
 6.545310e-03  4.504539e-02  0 
 0  0  0 

 -4.655162e-05  -2.962432e-03  0 
 -2.962432e-03  -8.567326e-03  0 
 0  0  0 

 7.203853e-03  3.797049e-03  0 
 3.797049e-03  -3.268665e-03  0 
 0  0  0 

 7.848009e-03  -1.317936e-02  0 
 -1.317936e-02  6.471504e-03  0 
 0  0  0 

 1.838889e-01  1.980200e-01  0 
 1.980200e-01  -2.421431e-01  0 
 0  0  0 

 5.056936e-01  7.729203e-02  0 
 7.729203e-02  -3.384034e-01  0 
 0  0  0 

 -1.053362e-02  6.388769e-03  0 
 6.388769e-03  3.035367e-02  0 
 0  0  0 

 -4.621617e-03  5.187852e-03  0 
 5.187852e-03  -3.528392e-03  0 
 0  0  0 

 -7.021852e-03  -9.645795e-03  0 
 -9.645795e-03  3.291368e-03  0 
 0  0  0 

 1.080777e-01  1.039749e-01  0 
 1.039749e-01  -2.808725e-01  0 
 0  0  0 

 1.816456e-01  1.447399e-01  0 
 1.447399e-01  5.003835e-02  0 
 0  0  0 

 -8.048368e-03  3.385872e-02  0 
 3.385872e-02  6.216654e-02  0 
 0  0  0 

 -1.538126e-02  5.411979e-02  0 
 5.411979e-02  5.311471e-02  0 
 0  0  0 

TENSORS element_stresses FLOAT
 1.598074e-03  9.267492e-04  0 
 9.267492e-04  2.929479e-04  0 
 0  0  0 

 7.476422e-04  1.124489e-03  0 
 1.124489e-03  4.372213e-04  0 
 0  0  0 

 1.259384e-03  1.342199e-03  0 
 1.342199e-03  8.050543e-05  0 
 0  0  0 

 1.480037e-03  7.759072e-04  0 
 7.759072e-04  8.676312e-05  0 
 0  0  0 

 1.286223e-03  1.104262e-03  0 
 1.104262e-03  5.885678e-04  0 
 0  0  0 

 1.820581e-03  1.262097e-03  0 
 1.262097e-03  4.994758e-04  0 
 0  0  0 

 1.567721e-03  9.558563e-04  0 
 9.558563e-04  -2.362286e-04  0 
 0  0  0 

 1.111595e-03  1.075390e-03  0 
 1.075390e-03  -1.817742e-05  0 
 0  0  0 

 2.905855e-04  -9.661709e-04  0 
 -9.661709e-04  -3.403339e-04  0 
 0  0  0 

 5.459337e-04  -9.977868e-04  0 
 -9.977868e-04  -2.042698e-04  0 
 0  0  0 

 6.253367e-04  -8.703315e-04  0 
 -8.703315e-04  -2.802117e-04  0 
 0  0  0 

 5.678970e-04  -1.107309e-03  0 
 -1.107309e-03  -3.317460e-04  0 
 0  0  0 

 -2.479125e-03  -1.971497e-02  0 
 -1.971497e-02  -4.744228e-02  0 
 0  0  0 

 1.696282e-02  -7.999789e-02  0 
 -7.999789e-02  -1.813856e-01  0 
 0  0  0 

 -9.170163e-03  -4.500152e-02  0 
 -4.500152e-02  1.968538e-02  0 
 0  0  0 

 -7.851083e-03  -5.309638e-03  0 
 -5.309638e-03  2.408231e-02  0 
 0  0  0 

 9.203784e-03  -4.982591e-03  0 
 -4.982591e-03  2.827105e-02  0 
 0  0  0 

 -1.461467e-02  -3.741447e-03  0 
 -3.741447e-03  3.057518e-02  0 
 0  0  0 

 3.295212e-01  2.740486e-02  0 
 2.740486e-02  -2.105481e-01  0 
 0  0  0 

 1.010971e-02  6.136844e-03  0 
 6.136844e-03  -1.516481e-03  0 
 0  0  0 

 -1.941072e-02  -1.613714e-02  0 
 -1.613714e-02  3.669551e-02  0 
 0  0  0 

 -2.950665e-03  3.211834e-02  0 
 3.211834e-02  6.622163e-02  0 
 0  0  0 

 -6.282464e-03  2.526563e-02  0 
 2.526563e-02  6.975506e-02  0 
 0  0  0 

 -5.372815e-03  -1.778772e-02  0 
 -1.778772e-02  7.101540e-02  0 
 0  0  0 

 1.160958e-01  2.933318e-02  0 
 2.933318e-02  -1.033066e-01  0 
 0  0  0 

 1.740993e-02  6.033086e-03  0 
 6.033086e-03  6.307052e-02  0 
 0  0  0 

 6.889891e-02  1.009314e-01  0 
 1.009314e-01  6.541857e-02  0 
 0  0  0 

 -1.563038e-02  1.173482e-02  0 
 1.173482e-02  3.433722e-03  0 
 0  0  0 

 -1.811248e-02  9.157620e-03  0 
 9.157620e-03  5.049140e-02  0 
 0  0  0 

 -1.347929e-02  6.545310e-03  0 
 6.545310e-03  4.504539e-02  0 
 0  0  0 

 -4.655162e-05  -2.962432e-03  0 
 -2.962432e-03  -8.567326e-03  0 
 0  0  0 

 7.203853e-03  3.797049e-03  0 
 3.797049e-03  -3.268665e-03  0 
 0  0  0 

 7.848009e-03  -1.317936e-02  0 
 -1.317936e-02  6.471504e-03  0 
 0  0  0 

 1.838889e-01  1.980200e-01  0 
 1.980200e-01  -2.421431e-01  0 
 0  0  0 

 5.056936e-01  7.729203e-02  0 
 7.729203e-02  -3.384034e-01  0 
 0  0  0 

 -1.053362e-02  6.388769e-03  0 
 6.388769e-03  3.035367e-02  0 
 0  0  0 

 -4.621617e-03  5.187852e-03  0 
 5.187852e-03  -3.528392e-03  0 
 0  0  0 

 -7.021852e-03  -9.645795e-03  0 
 -9.645795e-03  3.291368e-03  0 
 0  0  0 

 1.080777e-01  1.039749e-01  0 
 1.039749e-01  -2.808725e-01  0 
 0  0  0 

 1.816456e-01  1.447399e-01  0 
 1.447399e-01  5.003835e-02  0 
 0  0  0 

 -8.048368e-03  3.385872e-02  0 
 3.385872e-02  6.216654e-02  0 
 0  0  0 

 -1.538126e-02  5.411979e-02  0 
 5.411979e-02  5.311471e-02  0 
 0  0  0 

