# vtk DataFile Version 3.1
this is an vtk file created by FEMAC
ASCII
DATASET UNSTRUCTURED_GRID
POINTS 21 FLOAT
4.000000 0.000000 0.000000
4.000000 1.000000 0.000000
3.333333 0.000000 0.000000
3.666667 0.000000 0.000000
4.333333 0.000000 0.000000
4.666667 0.000000 0.000000
3.333333 1.000000 0.000000
3.666667 1.000000 0.000000
4.000000 0.333333 0.000000
4.000000 0.666667 0.000000
3.206402 0.775322 0.000000
3.795578 0.488340 0.000000
3.249935 0.478822 0.000000
3.537083 0.696366 0.000000
3.799145 0.783178 0.000000
3.524024 0.291353 0.000000
3.797254 0.222605 0.000000
4.235156 0.483910 0.000000
4.498790 0.682145 0.000000
4.502629 0.281947 0.000000
4.214224 0.219838 0.000000
CELLS 25 100 
3 10 13  6
3 13  7  6
3 10 12 13
3 9 11  8
3 7 14  1
3 14  9  1
3 14  7 13
3 14 11  9
3 14 13 11
3 3 15  2
3 13 12 15
3 13 15 11
3 16  3  0
3 8 16  0
3 3 16 15
3 11 16  8
3 11 15 16
3 17  9  8
3 5 19  4
3 4 20  0
3 8 20 17
3 20  8  0
3 19 20  4
3 19 17 20
3 19 18 17
CELL_TYPES 25
5 5 5 5 5 5 5 5 5 5 5 5 5 5 5 5 5 5 5 5 5 5 5 5 5 
POINT_DATA 21
VECTORS displacement_ITER1 FLOAT
 -9.397641e-02  -3.210885e-01  0 
 1.948420e-02  -3.126254e-01  0 
 -9.458613e-02  -2.470583e-01  0 
 -9.663278e-02  -2.811112e-01  0 
 -9.396652e-02  -3.566410e-01  0 
 -9.395646e-02  -3.921970e-01  0 
 3.400208e-02  -1.731185e-01  0 
 3.831102e-02  -2.693405e-01  0 
 -5.842927e-02  -3.210966e-01  0 
 -2.282223e-02  -3.210682e-01  0 
 8.683625e-03  -1.834388e-01  0 
 -4.518892e-02  -2.954348e-01  0 
 -4.058974e-02  -2.146022e-01  0 
 -1.902719e-02  -2.468383e-01  0 
 -4.175446e-03  -2.954652e-01  0 
 -6.604446e-02  -2.622983e-01  0 
 -7.179628e-02  -2.969419e-01  0 
 -4.236071e-02  -3.461942e-01  0 
 -2.126477e-02  -3.742781e-01  0 
 -6.388732e-02  -3.747069e-01  0 
 -7.052479e-02  -3.439454e-01  0 
VECTORS displacement_ITER2 FLOAT
 -2.710978e-02  -9.057658e-02  0 
 -1.446576e-02  -9.733369e-02  0 
 -2.794527e-02  -9.985158e-02  0 
 -3.086888e-02  -9.108787e-02  0 
 -2.710149e-02  -8.430349e-02  0 
 -2.709249e-02  -7.801597e-02  0 
 2.214501e-02  -1.729544e-02  0 
 -5.752036e-03  -5.123695e-02  0 
 -3.338274e-02  -9.058548e-02  0 
 -3.968647e-02  -9.060787e-02  0 
 1.003633e-03  -2.987508e-02  0 
 -3.639600e-02  -9.244282e-02  0 
 -2.741060e-02  -6.300998e-02  0 
 -2.394037e-02  -7.181305e-02  0 
 -3.058080e-02  -7.914482e-02  0 
 -3.709762e-02  -8.920631e-02  0 
 -3.337096e-02  -9.185949e-02  0 
 -3.622267e-02  -8.614293e-02  0 
 -4.000347e-02  -8.112518e-02  0 
 -3.241784e-02  -8.111416e-02  0 
 -3.124470e-02  -8.654784e-02  0 
VECTORS displacement_ITER3 FLOAT
 -2.351980e-02  -1.028531e-02  0 
 -1.179104e-02  -1.170347e-02  0 
 -1.497598e-02  -1.716392e-02  0 
 -1.690732e-02  -1.556046e-02  0 
 -2.354415e-02  -1.890718e-02  0 
 -2.356086e-02  -2.754290e-02  0 
 -4.846604e-04  -1.263566e-02  0 
 2.313857e-03  -1.739597e-02  0 
 -1.489683e-02  -1.026421e-02  0 
 -6.296456e-03  -1.026213e-02  0 
 -6.702292e-03  -1.038401e-02  0 
 -1.133901e-02  -1.327512e-02  0 
 -1.291007e-02  -1.266836e-02  0 
 -9.301307e-03  -1.572318e-02  0 
 -6.790798e-03  -1.946160e-02  0 
 -1.522764e-02  -1.380293e-02  0 
 -1.699736e-02  -1.166229e-02  0 
 -1.101194e-02  -1.631705e-02  0 
 -5.858808e-03  -2.313798e-02  0 
 -1.624703e-02  -2.328132e-02  0 
 -1.784298e-02  -1.580643e-02  0 
VECTORS displacement_ITER4 FLOAT
 -1.002222e-02  -9.489586e-03  0 
 -3.174823e-03  -1.193198e-02  0 
 -4.454680e-03  -1.930714e-02  0 
 -6.059045e-03  -1.595948e-02  0 
 -1.004753e-02  -1.199578e-02  0 
 -1.008056e-02  -1.452100e-02  0 
 -2.250740e-03  -9.274412e-03  0 
 -1.719319e-03  -3.681988e-03  0 
 -7.514853e-03  -9.486228e-03  0 
 -5.196367e-03  -9.593031e-03  0 
 -2.528281e-03  -1.166048e-02  0 
 -6.409912e-03  -1.217122e-02  0 
 -3.666313e-03  -1.299686e-02  0 
 -3.581724e-03  -1.116764e-02  0 
 -5.283607e-03  -1.007966e-02  0 
 -6.843254e-03  -1.484823e-02  0 
 -7.869858e-03  -1.220558e-02  0 
 -6.410305e-03  -1.118609e-02  0 
 -4.953593e-03  -1.311563e-02  0 
 -7.932974e-03  -1.324379e-02  0 
 -8.377524e-03  -1.107809e-02  0 
VECTORS displacement_ITER5 FLOAT
 -1.046887e-02  -8.485599e-03  0 
 -3.687012e-03  -8.040225e-03  0 
 -8.867831e-03  -1.280869e-02  0 
 -8.186940e-03  -1.422488e-02  0 
 -1.048684e-02  -1.058249e-02  0 
 -1.050828e-02  -1.269057e-02  0 
 -2.339555e-03  -9.540406e-03  0 
 -3.655454e-03  -7.888411e-03  0 
 -8.368030e-03  -8.474904e-03  0 
 -6.343285e-03  -8.513237e-03  0 
 -3.297823e-03  -1.107236e-02  0 
 -7.086760e-03  -1.158354e-02  0 
 -5.226405e-03  -1.281850e-02  0 
 -4.846792e-03  -1.224977e-02  0 
 -5.490010e-03  -9.870650e-03  0 
 -7.352557e-03  -1.404391e-02  0 
 -8.554690e-03  -1.171151e-02  0 
 -7.432241e-03  -9.920442e-03  0 
 -6.205168e-03  -1.155181e-02  0 
 -8.713503e-03  -1.163361e-02  0 
 -9.091135e-03  -9.817783e-03  0 
VECTORS displacement_ITER6 FLOAT
 -8.914881e-03  -8.677311e-03  0 
 -3.973081e-03  -8.747674e-03  0 
 -7.662064e-03  -1.425631e-02  0 
 -6.822280e-03  -1.446372e-02  0 
 -8.926282e-03  -1.040503e-02  0 
 -8.940972e-03  -1.215665e-02  0 
 -3.152275e-03  -8.350269e-03  0 
 -3.981730e-03  -8.019986e-03  0 
 -7.186994e-03  -8.664777e-03  0 
 -5.404884e-03  -8.613785e-03  0 
 -3.849849e-03  -1.009372e-02  0 
 -6.477830e-03  -1.163371e-02  0 
 -5.443758e-03  -1.235681e-02  0 
 -5.130797e-03  -1.215118e-02  0 
 -5.415835e-03  -1.029072e-02  0 
 -6.649724e-03  -1.465096e-02  0 
 -7.427244e-03  -1.188081e-02  0 
 -6.403283e-03  -9.889123e-03  0 
 -5.392137e-03  -1.122857e-02  0 
 -7.452178e-03  -1.128115e-02  0 
 -7.777706e-03  -9.780438e-03  0 
VECTORS displacement_ITER7 FLOAT
 -8.346418e-03  -8.329813e-03  0 
 -3.522830e-03  -8.084635e-03  0 
 -7.287352e-03  -1.449144e-02  0 
 -6.409113e-03  -1.411302e-02  0 
 -8.353242e-03  -9.849290e-03  0 
 -8.355617e-03  -1.138751e-02  0 
 -3.366706e-03  -7.643279e-03  0 
 -3.426545e-03  -7.860210e-03  0 
 -6.826414e-03  -8.310446e-03  0 
 -5.193476e-03  -8.213258e-03  0 
 -3.682059e-03  -9.515724e-03  0 
 -6.276867e-03  -1.128901e-02  0 
 -5.045704e-03  -1.173423e-02  0 
 -4.868019e-03  -1.143223e-02  0 
 -4.995513e-03  -9.885279e-03  0 
 -6.454543e-03  -1.435849e-02  0 
 -7.075384e-03  -1.154699e-02  0 
 -6.130613e-03  -9.404566e-03  0 
 -5.238827e-03  -1.060270e-02  0 
 -7.056071e-03  -1.062788e-02  0 
 -7.346633e-03  -9.301889e-03  0 
VECTORS displacement_ITER8 FLOAT
 -8.499018e-03  -9.354104e-03  0 
 -3.636998e-03  -9.269513e-03  0 
 -8.031052e-03  -1.426753e-02  0 
 -6.893290e-03  -1.469858e-02  0 
 -8.508487e-03  -1.093632e-02  0 
 -8.516259e-03  -1.252870e-02  0 
 -3.298682e-03  -8.165734e-03  0 
 -3.435796e-03  -8.665674e-03  0 
 -6.914438e-03  -9.339537e-03  0 
 -5.287914e-03  -9.290094e-03  0 
 -3.699543e-03  -1.032027e-02  0 
 -6.353051e-03  -1.221275e-02  0 
 -5.147170e-03  -1.262372e-02  0 
 -4.990434e-03  -1.226103e-02  0 
 -5.120855e-03  -1.087874e-02  0 
 -6.581652e-03  -1.492762e-02  0 
 -7.215940e-03  -1.246199e-02  0 
 -6.196982e-03  -1.046056e-02  0 
 -5.237561e-03  -1.172609e-02  0 
 -7.160934e-03  -1.174149e-02  0 
 -7.457621e-03  -1.036422e-02  0 
VECTORS displacement_ITER9 FLOAT
 -8.316946e-03  -9.161817e-03  0 
 -3.577657e-03  -8.978063e-03  0 
 -7.898518e-03  -1.440112e-02  0 
 -6.716748e-03  -1.461207e-02  0 
 -8.327852e-03  -1.069280e-02  0 
 -8.340349e-03  -1.224290e-02  0 
 -3.282707e-03  -8.245339e-03  0 
 -3.470629e-03  -8.460588e-03  0 
 -6.784849e-03  -9.149120e-03  0 
 -5.232713e-03  -9.108104e-03  0 
 -3.509042e-03  -1.040170e-02  0 
 -6.252508e-03  -1.213064e-02  0 
 -4.978301e-03  -1.249935e-02  0 
 -4.789637e-03  -1.218498e-02  0 
 -5.027048e-03  -1.064822e-02  0 
 -6.518588e-03  -1.492769e-02  0 
 -7.088984e-03  -1.233908e-02  0 
 -6.094389e-03  -1.022785e-02  0 
 -5.160837e-03  -1.146587e-02  0 
 -7.024418e-03  -1.146772e-02  0 
 -7.309977e-03  -1.013768e-02  0 
CELL_DATA 25
TENSORS element_stresses FLOAT
 1.560853e-04  6.373549e-05  0 
 6.373549e-05  1.118816e-02  0 
 0  0  0 

 3.515092e-03  3.029946e-03  0 
 3.029946e-03  1.359620e-02  0 
 0  0  0 

 -9.162462e-04  5.446297e-04  0 
 5.446297e-04  6.236287e-03  0 
 0  0  0 

 1.058902e-03  1.487292e-02  0 
 1.487292e-02  4.407211e-04  0 
 0  0  0 

 2.660670e-03  4.176696e-03  0 
 4.176696e-03  9.939173e-03  0 
 0  0  0 

 2.168415e-03  9.891740e-03  0 
 9.891740e-03  1.040646e-03  0 
 0  0  0 

 7.475009e-04  5.851523e-03  0 
 5.851523e-03  1.159523e-02  0 
 0  0  0 

 3.129263e-03  1.126948e-02  0 
 1.126948e-02  5.839531e-03  0 
 0  0  0 

 -8.779158e-04  6.461220e-03  0 
 6.461220e-03  4.713546e-03  0 
 0  0  0 

 3.436671e-03  1.371566e-03  0 
 1.371566e-03  -3.621247e-04  0 
 0  0  0 

 -6.264187e-04  1.672080e-04  0 
 1.672080e-04  6.717353e-03  0 
 0  0  0 

 -2.080511e-04  7.581232e-03  0 
 7.581232e-03  6.531608e-03  0 
 0  0  0 

 -5.071318e-03  1.345750e-02  0 
 1.345750e-02  -9.024152e-04  0 
 0  0  0 

 -1.097489e-03  1.562250e-02  0 
 1.562250e-02  -2.911575e-04  0 
 0  0  0 

 -1.065232e-03  7.772561e-03  0 
 7.772561e-03  3.734986e-03  0 
 0  0  0 

 5.042323e-05  1.415325e-02  0 
 1.415325e-02  8.957443e-04  0 
 0  0  0 

 -1.147246e-03  9.866505e-03  0 
 9.866505e-03  5.013366e-04  0 
 0  0  0 

 -9.377833e-03  -7.433180e-03  0 
 -7.433180e-03  1.202371e-01  0 
 0  0  0 

 -2.675362e-02  -3.715049e-03  0 
 -3.715049e-03  3.579685e-02  0 
 0  0  0 

 -2.386936e-02  1.495592e-02  0 
 1.495592e-02  2.949259e-02  0 
 0  0  0 

 -5.507731e-03  1.513730e-03  0 
 1.513730e-03  2.169445e-02  0 
 0  0  0 

 -5.248064e-03  1.443395e-03  0 
 1.443395e-03  3.651475e-02  0 
 0  0  0 

 9.488749e-04  7.615917e-03  0 
 7.615917e-03  2.399882e-02  0 
 0  0  0 

 6.748287e-03  -1.050704e-02  0 
 -1.050704e-02  2.654209e-02  0 
 0  0  0 

 2.998162e-02  -6.763032e-03  0 
 -6.763032e-03  -3.114679e-02  0 
 0  0  0 

TENSORS element_stresses FLOAT
 1.560853e-04  6.373549e-05  0 
 6.373549e-05  1.118816e-02  0 
 0  0  0 

 3.515092e-03  3.029946e-03  0 
 3.029946e-03  1.359620e-02  0 
 0  0  0 

 -9.162462e-04  5.446297e-04  0 
 5.446297e-04  6.236287e-03  0 
 0  0  0 

 1.058902e-03  1.487292e-02  0 
 1.487292e-02  4.407211e-04  0 
 0  0  0 

 2.660670e-03  4.176696e-03  0 
 4.176696e-03  9.939173e-03  0 
 0  0  0 

 2.168415e-03  9.891740e-03  0 
 9.891740e-03  1.040646e-03  0 
 0  0  0 

 7.475009e-04  5.851523e-03  0 
 5.851523e-03  1.159523e-02  0 
 0  0  0 

 3.129263e-03  1.126948e-02  0 
 1.126948e-02  5.839531e-03  0 
 0  0  0 

 -8.779158e-04  6.461220e-03  0 
 6.461220e-03  4.713546e-03  0 
 0  0  0 

 3.436671e-03  1.371566e-03  0 
 1.371566e-03  -3.621247e-04  0 
 0  0  0 

 -6.264187e-04  1.672080e-04  0 
 1.672080e-04  6.717353e-03  0 
 0  0  0 

 -2.080511e-04  7.581232e-03  0 
 7.581232e-03  6.531608e-03  0 
 0  0  0 

 -5.071318e-03  1.345750e-02  0 
 1.345750e-02  -9.024152e-04  0 
 0  0  0 

 -1.097489e-03  1.562250e-02  0 
 1.562250e-02  -2.911575e-04  0 
 0  0  0 

 -1.065232e-03  7.772561e-03  0 
 7.772561e-03  3.734986e-03  0 
 0  0  0 

 5.042323e-05  1.415325e-02  0 
 1.415325e-02  8.957443e-04  0 
 0  0  0 

 -1.147246e-03  9.866505e-03  0 
 9.866505e-03  5.013366e-04  0 
 0  0  0 

 -9.377833e-03  -7.433180e-03  0 
 -7.433180e-03  1.202371e-01  0 
 0  0  0 

 -2.675362e-02  -3.715049e-03  0 
 -3.715049e-03  3.579685e-02  0 
 0  0  0 

 -2.386936e-02  1.495592e-02  0 
 1.495592e-02  2.949259e-02  0 
 0  0  0 

 -5.507731e-03  1.513730e-03  0 
 1.513730e-03  2.169445e-02  0 
 0  0  0 

 -5.248064e-03  1.443395e-03  0 
 1.443395e-03  3.651475e-02  0 
 0  0  0 

 9.488749e-04  7.615917e-03  0 
 7.615917e-03  2.399882e-02  0 
 0  0  0 

 6.748287e-03  -1.050704e-02  0 
 -1.050704e-02  2.654209e-02  0 
 0  0  0 

 2.998162e-02  -6.763032e-03  0 
 -6.763032e-03  -3.114679e-02  0 
 0  0  0 

