# vtk DataFile Version 3.1
this is an vtk file created by FEMAC
ASCII
DATASET UNSTRUCTURED_GRID
POINTS 31 FLOAT
2.000000 1.000000 0.000000
3.000000 1.000000 0.000000
1.750000 1.000000 0.000000
2.000000 0.750000 0.000000
2.000000 1.250000 0.000000
2.000000 1.500000 0.000000
2.000000 1.750000 0.000000
2.250000 1.000000 0.000000
2.500000 1.000000 0.000000
2.750000 1.000000 0.000000
1.638134 0.825570 0.000000
1.835146 0.847123 0.000000
1.745000 1.195000 0.000000
1.799000 1.384000 0.000000
2.214699 0.660302 0.000000
2.638134 0.825570 0.000000
2.371728 0.825957 0.000000
2.502535 0.594871 0.000000
2.835146 0.847123 0.000000
2.167285 0.847252 0.000000
2.178356 1.674167 0.000000
2.178472 1.325972 0.000000
2.225000 1.500000 0.000000
2.341551 1.171968 0.000000
2.581177 1.216647 0.000000
2.398247 1.399662 0.000000
2.401594 1.630720 0.000000
2.661856 1.507893 0.000000
2.832172 1.245757 0.000000
2.153954 1.850472 0.000000
2.154005 1.149588 0.000000
CELLS 42 168 
3 2 11  0
3 11  3  0
3 10 11  2
3 13  4  5
3 13 12  4
3 0 12  2
3 0  4 12
3 8 16 15
3 7 16  8
3 15  9  8
3 17 16 14
3 15 16 17
3 9 18  1
3 3 19  0
3 19  7  0
3 19  3 14
3 19 16  7
3 14 16 19
3 15 18  9
3 5 20  6
3 21  5  4
3 22 20  5
3 21 22  5
3 21 25 22
3 26 20 22
3 23  7  8
3 9 24  8
3 23 25 21
3 22 25 26
3 28  9  1
3 29  6 20
3 30  4  0
3 7 30  0
3 4 30 21
3 28 24  9
3 23 30  7
3 23 21 30
3 23  8 24
3 23 24 25
3 26 25 27
3 27 25 24
3 27 24 28
CELL_TYPES 42
5 5 5 5 5 5 5 5 5 5 5 5 5 5 5 5 5 5 5 5 5 5 5 5 5 5 5 5 5 5 5 5 5 5 5 5 5 5 5 5 5 5 
POINT_DATA 31
VECTORS displacement_ITER1 FLOAT
 -7.201813e-02  -4.026065e-02  0 
 -7.223020e-02  -1.477544e-01  0 
 -7.200711e-02  -1.753548e-02  0 
 -9.891696e-02  -4.034720e-02  0 
 -4.931463e-02  -4.022578e-02  0 
 -2.666406e-02  -4.017923e-02  0 
 -2.874243e-02  -3.470772e-02  0 
 -7.206575e-02  -6.720035e-02  0 
 -7.211447e-02  -9.408409e-02  0 
 -7.216748e-02  -1.209237e-01  0 
 -4.199914e-02  -3.651956e-02  0 
 -7.295186e-02  -2.497769e-02  0 
 -5.429269e-02  -1.707633e-02  0 
 -3.715121e-02  -2.197567e-02  0 
 -1.085876e-01  -6.344595e-02  0 
 -9.086540e-02  -1.089472e-01  0 
 -9.079833e-02  -8.031855e-02  0 
 -1.156309e-01  -9.439359e-02  0 
 -8.858594e-02  -1.300968e-01  0 
 -8.848741e-02  -5.832022e-02  0 
 -3.186970e-02  -3.946216e-02  0 
 -4.583854e-02  -5.929910e-02  0 
 -3.792992e-02  -5.447368e-02  0 
 -5.970955e-02  -7.795654e-02  0 
 -6.110388e-02  -1.006280e-01  0 
 -4.950384e-02  -7.744306e-02  0 
 -3.813269e-02  -6.660121e-02  0 
 -5.455629e-02  -9.831233e-02  0 
 -6.517011e-02  -1.215103e-01  0 
 -5.181896e-02  -1.484721e-02  0 
 -5.976823e-02  -5.779959e-02  0 
VECTORS displacement_ITER2 FLOAT
 -4.461106e-02  -3.879055e-02  0 
 -4.512007e-02  -7.323016e-02  0 
 -4.456345e-02  -3.166194e-02  0 
 -5.345252e-02  -3.896925e-02  0 
 -3.755373e-02  -3.867086e-02  0 
 -3.059541e-02  -3.860339e-02  0 
 -1.219339e-02  -2.877937e-02  0 
 -4.476098e-02  -4.765629e-02  0 
 -4.489359e-02  -5.631117e-02  0 
 -4.502493e-02  -6.478506e-02  0 
 -3.728745e-02  -2.101125e-02  0 
 -4.364169e-02  -2.851312e-02  0 
 -3.904577e-02  -3.151541e-02  0 
 -3.380399e-02  -3.301557e-02  0 
 -5.655898e-02  -4.650630e-02  0 
 -5.088793e-02  -6.107570e-02  0 
 -5.084580e-02  -5.194300e-02  0 
 -5.876234e-02  -5.643253e-02  0 
 -5.020646e-02  -6.769107e-02  0 
 -5.007515e-02  -4.481982e-02  0 
 -2.331694e-02  -5.265804e-02  0 
 -3.815264e-02  -4.851699e-02  0 
 -3.188606e-02  -5.264462e-02  0 
 -4.290777e-02  -5.465809e-02  0 
 -4.258349e-02  -6.547996e-02  0 
 -3.851713e-02  -6.163055e-02  0 
 -2.846549e-02  -6.217364e-02  0 
 -3.930691e-02  -7.816377e-02  0 
 -4.201598e-02  -7.382668e-02  0 
 6.998592e-03  -6.019488e-02  0 
 -4.217208e-02  -4.633929e-02  0 
VECTORS displacement_ITER3 FLOAT
 -2.618512e-02  -1.519947e-02  0 
 -2.693869e-02  -4.275023e-02  0 
 -2.609980e-02  -3.774219e-03  0 
 -3.349208e-02  -1.539623e-02  0 
 -1.479014e-02  -1.505063e-02  0 
 -3.565469e-03  -1.495089e-02  0 
 -1.228010e-02  -2.465266e-02  0 
 -2.638775e-02  -2.249206e-02  0 
 -2.658268e-02  -2.949349e-02  0 
 -2.680679e-02  -3.618711e-02  0 
 -1.966605e-02  -7.542445e-03  0 
 -2.729846e-02  -6.275872e-03  0 
 -1.722054e-02  -3.507295e-03  0 
 -8.738785e-03  -5.940466e-03  0 
 -3.599794e-02  -2.157060e-02  0 
 -3.139658e-02  -3.334387e-02  0 
 -3.134827e-02  -2.600939e-02  0 
 -3.774168e-02  -2.964850e-02  0 
 -3.087940e-02  -3.847536e-02  0 
 -3.071670e-02  -2.020206e-02  0 
 -7.787081e-03  -1.546678e-02  0 
 -1.398349e-02  -2.132200e-02  0 
 -9.668601e-03  -1.900643e-02  0 
 -2.116634e-02  -2.647937e-02  0 
 -2.257328e-02  -3.224534e-02  0 
 -1.656552e-02  -2.576032e-02  0 
 -1.157128e-02  -1.928747e-02  0 
 -2.138359e-02  -2.960073e-02  0 
 -2.561013e-02  -3.655811e-02  0 
 -1.818926e-02  -1.931070e-02  0 
 -2.066238e-02  -2.075035e-02  0 
VECTORS displacement_ITER4 FLOAT
 -1.316848e-02  -1.046258e-02  0 
 -1.402059e-02  -1.724219e-02  0 
 -1.304963e-02  -6.628284e-03  0 
 -1.545664e-02  -1.060013e-02  0 
 -9.290320e-03  -1.033522e-02  0 
 -5.671195e-03  -1.020540e-02  0 
 7.698884e-03  9.897994e-03  0 
 -1.340522e-02  -1.264593e-02  0 
 -1.363897e-02  -1.448341e-02  0 
 -1.390753e-02  -1.593213e-02  0 
 -1.298198e-02  -9.094134e-03  0 
 -1.424597e-02  -7.043077e-03  0 
 -1.007006e-02  -6.493859e-03  0 
 -7.299413e-03  -7.320981e-03  0 
 -1.607993e-02  -1.239090e-02  0 
 -1.482977e-02  -1.547258e-02  0 
 -1.478718e-02  -1.367198e-02  0 
 -1.641151e-02  -1.462337e-02  0 
 -1.475991e-02  -1.640584e-02  0 
 -1.461219e-02  -1.204653e-02  0 
 -5.291235e-03  -7.742311e-03  0 
 -1.006263e-02  -1.291449e-02  0 
 -9.137449e-03  -1.167964e-02  0 
 -1.250005e-02  -1.451432e-02  0 
 -1.373235e-02  -1.589363e-02  0 
 -1.262153e-02  -1.445325e-02  0 
 -1.172656e-02  -1.072584e-02  0 
 -1.757178e-02  -1.445187e-02  0 
 -1.572067e-02  -1.554542e-02  0 
 5.063328e-03  -8.332678e-05  0 
 -1.181384e-02  -1.261852e-02  0 
VECTORS displacement_ITER5 FLOAT
 -3.248604e-03  -3.288396e-04  0 
 -3.937582e-03  -8.956935e-03  0 
 -3.100833e-03  -7.501553e-05  0 
 -5.814346e-03  -5.199460e-04  0 
 -2.914306e-03  -2.167899e-04  0 
 -2.797267e-03  -9.726976e-05  0 
 -5.506166e-03  8.854479e-04  0 
 -3.498135e-03  -2.779409e-03  0 
 -3.669781e-03  -4.982951e-03  0 
 -3.833987e-03  -6.986542e-03  0 
 -1.419903e-03  1.898046e-03  0 
 -3.057022e-03  1.177142e-03  0 
 -2.914386e-03  3.947192e-06  0 
 -2.806870e-03  -3.153548e-05  0 
 -6.597961e-03  -2.551488e-03  0 
 -5.179384e-03  -6.199795e-03  0 
 -5.128040e-03  -3.946201e-03  0 
 -7.156891e-03  -5.091584e-03  0 
 -5.084029e-03  -7.711038e-03  0 
 -4.891428e-03  -2.107704e-03  0 
 -4.689309e-03  -1.360415e-04  0 
 -3.367271e-03  -1.736148e-03  0 
 -3.764691e-03  -1.121601e-03  0 
 -3.757948e-03  -3.645957e-03  0 
 -4.387167e-03  -5.672477e-03  0 
 -4.490573e-03  -3.585046e-03  0 
 -4.140892e-03  -2.520354e-03  0 
 -5.520142e-03  -6.675705e-03  0 
 -4.743191e-03  -7.416527e-03  0 
 -3.923195e-03  -1.462454e-03  0 
 -3.341287e-03  -1.829091e-03  0 
VECTORS displacement_ITER6 FLOAT
 -1.332875e-03  -1.002703e-04  0 
 -2.143541e-03  -3.928080e-03  0 
 -1.178159e-03  1.842191e-05  0 
 -2.677303e-03  -2.664652e-04  0 
 -1.100857e-03  -7.426565e-06  0 
 -1.080710e-03  1.066689e-04  0 
 -3.104190e-03  -2.352297e-03  0 
 -1.575072e-03  -1.331389e-03  0 
 -1.761878e-03  -2.375989e-03  0 
 -1.958410e-03  -3.214849e-03  0 
 -1.721854e-03  2.355968e-03  0 
 -1.621660e-03  4.878183e-04  0 
 -1.083886e-03  1.035582e-04  0 
 -1.046650e-03  9.163241e-05  0 
 -3.077099e-03  -1.298457e-03  0 
 -2.461988e-03  -2.965119e-03  0 
 -2.395351e-03  -1.945524e-03  0 
 -3.340176e-03  -2.480452e-03  0 
 -2.474646e-03  -3.561406e-03  0 
 -2.234657e-03  -1.056316e-03  0 
 -1.614643e-03  -6.357701e-04  0 
 -1.255806e-03  -6.510359e-04  0 
 -1.271627e-03  -6.477716e-04  0 
 -1.563431e-03  -1.560558e-03  0 
 -1.882075e-03  -2.459359e-03  0 
 -1.504319e-03  -1.489900e-03  0 
 -1.219923e-03  -1.382677e-03  0 
 -1.643324e-03  -2.581239e-03  0 
 -2.203852e-03  -3.320444e-03  0 
 -3.554628e-03  -1.107160e-03  0 
 -1.337134e-03  -7.441360e-04  0 
VECTORS displacement_ITER7 FLOAT
 -1.249147e-03  -7.638483e-04  0 
 -2.004948e-03  -3.089456e-03  0 
 -1.090701e-03  -4.309557e-04  0 
 -2.163255e-03  -9.441720e-04  0 
 -7.899007e-04  -6.694208e-04  0 
 -5.614846e-04  -5.476737e-04  0 
 -4.720812e-04  -9.246810e-04  0 
 -1.479584e-03  -1.571342e-03  0 
 -1.644439e-03  -2.216146e-03  0 
 -1.802083e-03  -2.712840e-03  0 
 -1.164432e-03  -3.515761e-04  0 
 -1.571514e-03  -4.177756e-04  0 
 -8.216637e-04  -3.334335e-04  0 
 -6.203710e-04  -3.976850e-04  0 
 -2.427254e-03  -1.584666e-03  0 
 -2.076470e-03  -2.581669e-03  0 
 -2.016525e-03  -1.977964e-03  0 
 -2.562259e-03  -2.271647e-03  0 
 -2.112384e-03  -2.959881e-03  0 
 -1.892787e-03  -1.428815e-03  0 
 -5.696898e-04  -1.050796e-03  0 
 -9.014653e-04  -1.114601e-03  0 
 -7.637736e-04  -1.168853e-03  0 
 -1.304241e-03  -1.702490e-03  0 
 -1.537498e-03  -2.244072e-03  0 
 -1.050574e-03  -1.626608e-03  0 
 -8.289812e-04  -1.489827e-03  0 
 -1.252697e-03  -2.039521e-03  0 
 -1.862614e-03  -2.756357e-03  0 
 -1.159112e-03  -8.019855e-04  0 
 -1.123477e-03  -1.184814e-03  0 
VECTORS displacement_ITER8 FLOAT
 -1.109516e-03  -8.256281e-04  0 
 -1.847649e-03  -2.942227e-03  0 
 -9.485719e-04  -5.768593e-04  0 
 -1.943433e-03  -1.003604e-03  0 
 -7.241678e-04  -7.121822e-04  0 
 -5.785976e-04  -5.786047e-04  0 
 -5.330868e-04  -5.595654e-04  0 
 -1.326066e-03  -1.561199e-03  0 
 -1.478854e-03  -2.146276e-03  0 
 -1.628008e-03  -2.609383e-03  0 
 -9.979799e-04  -5.297993e-04  0 
 -1.344895e-03  -5.340286e-04  0 
 -7.302500e-04  -4.608107e-04  0 
 -5.987708e-04  -5.034463e-04  0 
 -2.188070e-03  -1.571772e-03  0 
 -1.875200e-03  -2.484318e-03  0 
 -1.814645e-03  -1.930851e-03  0 
 -2.329264e-03  -2.214477e-03  0 
 -1.897808e-03  -2.837869e-03  0 
 -1.701780e-03  -1.433956e-03  0 
 -6.884193e-04  -9.325639e-04  0 
 -8.632797e-04  -1.111786e-03  0 
 -7.921258e-04  -1.106453e-03  0 
 -1.202575e-03  -1.681652e-03  0 
 -1.405711e-03  -2.199196e-03  0 
 -1.045105e-03  -1.624194e-03  0 
 -8.181681e-04  -1.514760e-03  0 
 -1.181777e-03  -2.233685e-03  0 
 -1.606889e-03  -2.701467e-03  0 
 -8.082654e-04  -9.188815e-04  0 
 -1.025221e-03  -1.200253e-03  0 
VECTORS displacement_ITER9 FLOAT
 -1.015473e-03  -1.048094e-03  0 
 -1.732461e-03  -2.998668e-03  0 
 -8.542441e-04  -8.453245e-04  0 
 -1.807877e-03  -1.219015e-03  0 
 -6.713873e-04  -9.419840e-04  0 
 -5.677774e-04  -8.084996e-04  0 
 -5.487152e-04  -9.900622e-04  0 
 -1.230254e-03  -1.737995e-03  0 
 -1.379204e-03  -2.277839e-03  0 
 -1.522765e-03  -2.706979e-03  0 
 -8.587895e-04  -6.686232e-04  0 
 -1.200398e-03  -8.460902e-04  0 
 -6.731433e-04  -7.286052e-04  0 
 -5.669559e-04  -7.669538e-04  0 
 -2.025883e-03  -1.751146e-03  0 
 -1.749285e-03  -2.593919e-03  0 
 -1.686860e-03  -2.083474e-03  0 
 -2.147829e-03  -2.337653e-03  0 
 -1.771559e-03  -2.920262e-03  0 
 -1.579207e-03  -1.625038e-03  0 
 -6.576512e-04  -1.059110e-03  0 
 -8.129653e-04  -1.277527e-03  0 
 -7.705802e-04  -1.245426e-03  0 
 -1.144108e-03  -1.826978e-03  0 
 -1.393618e-03  -2.296341e-03  0 
 -1.012427e-03  -1.693050e-03  0 
 -8.589986e-04  -1.500416e-03  0 
 -1.205793e-03  -2.164929e-03  0 
 -1.679373e-03  -2.788373e-03  0 
 -5.809104e-04  -1.026137e-03  0 
 -9.534725e-04  -1.387732e-03  0 
VECTORS displacement_ITER10 FLOAT
 -1.118611e-03  -9.158609e-04  0 
 -1.827697e-03  -2.839214e-03  0 
 -9.498356e-04  -6.890094e-04  0 
 -1.902621e-03  -1.081824e-03  0 
 -7.345697e-04  -8.213709e-04  0 
 -5.819897e-04  -6.947542e-04  0 
 -5.076120e-04  -7.087823e-04  0 
 -1.329178e-03  -1.599045e-03  0 
 -1.473758e-03  -2.139710e-03  0 
 -1.620646e-03  -2.557913e-03  0 
 -1.088171e-03  -4.031852e-04  0 
 -1.276442e-03  -7.335001e-04  0 
 -7.536555e-04  -5.577589e-04  0 
 -6.086410e-04  -6.171719e-04  0 
 -2.120243e-03  -1.614702e-03  0 
 -1.838184e-03  -2.453463e-03  0 
 -1.782296e-03  -1.940840e-03  0 
 -2.250108e-03  -2.192900e-03  0 
 -1.861061e-03  -2.764368e-03  0 
 -1.675273e-03  -1.486538e-03  0 
 -6.368782e-04  -1.028840e-03  0 
 -8.715425e-04  -1.190710e-03  0 
 -7.988889e-04  -1.191389e-03  0 
 -1.202391e-03  -1.703984e-03  0 
 -1.429126e-03  -2.141807e-03  0 
 -1.070230e-03  -1.597563e-03  0 
 -9.654996e-04  -1.343344e-03  0 
 -1.371953e-03  -1.914198e-03  0 
 -1.728113e-03  -2.515515e-03  0 
 -5.826360e-04  -8.786222e-04  0 
 -1.030253e-03  -1.268776e-03  0 
VECTORS displacement_ITER11 FLOAT
 -1.136845e-03  -9.315302e-04  0 
 -1.841480e-03  -2.789121e-03  0 
 -9.674604e-04  -6.784849e-04  0 
 -1.900346e-03  -1.096380e-03  0 
 -7.296316e-04  -8.384422e-04  0 
 -5.218899e-04  -7.304600e-04  0 
 -4.717931e-04  -7.146406e-04  0 
 -1.344819e-03  -1.595771e-03  0 
 -1.489118e-03  -2.117443e-03  0 
 -1.633178e-03  -2.522199e-03  0 
 -1.105583e-03  -4.017268e-04  0 
 -1.344150e-03  -7.071660e-04  0 
 -7.527279e-04  -5.459977e-04  0 
 -5.838063e-04  -6.026164e-04  0 
 -2.113431e-03  -1.611159e-03  0 
 -1.842093e-03  -2.421160e-03  0 
 -1.784837e-03  -1.928894e-03  0 
 -2.239155e-03  -2.176801e-03  0 
 -1.864662e-03  -2.724481e-03  0 
 -1.680417e-03  -1.487647e-03  0 
 -6.206652e-04  -1.012052e-03  0 
 -8.353192e-04  -1.193428e-03  0 
 -7.466553e-04  -1.172016e-03  0 
 -1.181278e-03  -1.686121e-03  0 
 -1.385151e-03  -2.100213e-03  0 
 -1.014429e-03  -1.575073e-03  0 
 -8.702786e-04  -1.349404e-03  0 
 -1.254434e-03  -1.905129e-03  0 
 -1.648161e-03  -2.443685e-03  0 
 -5.134719e-04  -1.036238e-03  0 
 -1.024567e-03  -1.266551e-03  0 
VECTORS displacement_ITER12 FLOAT
 -1.132927e-03  -9.273161e-04  0 
 -1.836171e-03  -2.793961e-03  0 
 -9.649393e-04  -6.755505e-04  0 
 -1.896655e-03  -1.093141e-03  0 
 -7.284104e-04  -8.336575e-04  0 
 -5.253741e-04  -7.243609e-04  0 
 -4.695970e-04  -7.193124e-04  0 
 -1.340170e-03  -1.592985e-03  0 
 -1.484220e-03  -2.116813e-03  0 
 -1.628401e-03  -2.523493e-03  0 
 -1.106313e-03  -4.145116e-04  0 
 -1.320820e-03  -6.766194e-04  0 
 -7.507570e-04  -5.449082e-04  0 
 -5.853670e-04  -6.021316e-04  0 
 -2.111694e-03  -1.607336e-03  0 
 -1.838668e-03  -2.421846e-03  0 
 -1.781404e-03  -1.927030e-03  0 
 -2.237554e-03  -2.176132e-03  0 
 -1.861495e-03  -2.726502e-03  0 
 -1.676992e-03  -1.483861e-03  0 
 -6.143640e-04  -1.004243e-03  0 
 -8.362696e-04  -1.186730e-03  0 
 -7.457946e-04  -1.164822e-03  0 
 -1.186775e-03  -1.688086e-03  0 
 -1.397525e-03  -2.110519e-03  0 
 -1.013934e-03  -1.581926e-03  0 
 -8.343162e-04  -1.389935e-03  0 
 -1.230579e-03  -1.941519e-03  0 
 -1.668185e-03  -2.468779e-03  0 
 -6.102579e-04  -9.409827e-04  0 
 -1.024921e-03  -1.264095e-03  0 
VECTORS displacement_ITER13 FLOAT
 -1.131905e-03  -9.266952e-04  0 
 -1.834920e-03  -2.794097e-03  0 
 -9.638296e-04  -6.756095e-04  0 
 -1.895830e-03  -1.092464e-03  0 
 -7.277355e-04  -8.331934e-04  0 
 -5.247911e-04  -7.233945e-04  0 
 -4.713706e-04  -7.159226e-04  0 
 -1.339124e-03  -1.592564e-03  0 
 -1.483203e-03  -2.116515e-03  0 
 -1.627233e-03  -2.523527e-03  0 
 -1.100486e-03  -3.998786e-04  0 
 -1.321649e-03  -6.805992e-04  0 
 -7.501784e-04  -5.448110e-04  0 
 -5.848862e-04  -6.022555e-04  0 
 -2.110935e-03  -1.606873e-03  0 
 -1.837814e-03  -2.421608e-03  0 
 -1.780491e-03  -1.926724e-03  0 
 -2.236731e-03  -2.175968e-03  0 
 -1.860588e-03  -2.726685e-03  0 
 -1.676069e-03  -1.483359e-03  0 
 -6.175399e-04  -1.006906e-03  0 
 -8.368423e-04  -1.188258e-03  0 
 -7.475804e-04  -1.166920e-03  0 
 -1.185598e-03  -1.688078e-03  0 
 -1.396178e-03  -2.108861e-03  0 
 -1.016808e-03  -1.581768e-03  0 
 -8.463291e-04  -1.381280e-03  0 
 -1.245727e-03  -1.928061e-03  0 
 -1.669262e-03  -2.461866e-03  0 
 -5.781629e-04  -9.815630e-04  0 
 -1.024184e-03  -1.264308e-03  0 
VECTORS displacement_ITER14 FLOAT
 -1.131914e-03  -9.265129e-04  0 
 -1.834994e-03  -2.794210e-03  0 
 -9.637807e-04  -6.755750e-04  0 
 -1.895932e-03  -1.092275e-03  0 
 -7.277520e-04  -8.331139e-04  0 
 -5.249831e-04  -7.229528e-04  0 
 -4.712455e-04  -7.159635e-04  0 
 -1.339145e-03  -1.592460e-03  0 
 -1.483227e-03  -2.116480e-03  0 
 -1.627275e-03  -2.523561e-03  0 
 -1.099451e-03  -3.992680e-04  0 
 -1.321585e-03  -6.788776e-04  0 
 -7.502759e-04  -5.447021e-04  0 
 -5.847557e-04  -6.020785e-04  0 
 -2.111041e-03  -1.606767e-03  0 
 -1.837889e-03  -2.421621e-03  0 
 -1.780560e-03  -1.926652e-03  0 
 -2.236900e-03  -2.175961e-03  0 
 -1.860655e-03  -2.726742e-03  0 
 -1.676132e-03  -1.483238e-03  0 
 -6.182117e-04  -1.007034e-03  0 
 -8.366550e-04  -1.187527e-03  0 
 -7.471785e-04  -1.166112e-03  0 
 -1.185605e-03  -1.687637e-03  0 
 -1.396329e-03  -2.108959e-03  0 
 -1.016220e-03  -1.580653e-03  0 
 -8.458228e-04  -1.379345e-03  0 
 -1.243051e-03  -1.930436e-03  0 
 -1.668586e-03  -2.463797e-03  0 
 -5.843406e-04  -9.802408e-04  0 
 -1.024095e-03  -1.263954e-03  0 
CELL_DATA 42
TENSORS element_stresses FLOAT
 -9.162290e-04  7.401112e-04  0 
 7.401112e-04  -8.123131e-04  0 
 0  0  0 

 -1.631422e-03  7.223418e-04  0 
 7.223418e-04  1.736222e-04  0 
 0  0  0 

 -1.671994e-03  2.108989e-04  0 
 2.108989e-04  -1.226303e-03  0 
 0  0  0 

 -4.232311e-02  -3.430129e-02  0 
 -3.430129e-02  4.279474e-01  0 
 0  0  0 

 -1.108889e-01  -1.762599e-01  0 
 -1.762599e-01  -1.240953e-02  0 
 0  0  0 

 -5.262784e-01  5.684618e-02  0 
 5.684618e-02  4.875222e-01  0 
 0  0  0 

 -1.629463e-01  3.115721e-01  0 
 3.115721e-01  3.247121e-01  0 
 0  0  0 

 -1.417377e-01  5.730751e-03  0 
 5.730751e-03  2.358159e-01  0 
 0  0  0 

 -4.836079e-01  2.851693e-02  0 
 2.851693e-02  3.090587e-01  0 
 0  0  0 

 -4.815761e-01  -3.950658e-02  0 
 -3.950658e-02  3.153875e-01  0 
 0  0  0 

 -6.444410e-04  -4.410882e-03  0 
 -4.410882e-03  -4.668156e-02  0 
 0  0  0 

 -2.245523e-01  -2.639091e-03  0 
 -2.639091e-03  -4.018171e-02  0 
 0  0  0 

 -6.736821e-01  -1.444346e-02  0 
 -1.444346e-02  5.239867e-01  0 
 0  0  0 

 -2.899075e-01  2.565431e-01  0 
 2.565431e-01  5.760765e-01  0 
 0  0  0 

 -6.710969e-01  -6.739435e-03  0 
 -6.739435e-03  5.260906e-01  0 
 0  0  0 

 -1.732106e-02  -4.134120e-02  0 
 -4.134120e-02  5.409813e-02  0 
 0  0  0 

 -1.489329e-01  1.743120e-01  0 
 1.743120e-01  3.902178e-01  0 
 0  0  0 

 -2.655584e-01  7.642333e-02  0 
 7.642333e-02  3.403332e-02  0 
 0  0  0 

 -1.477285e-01  -1.681545e-01  0 
 -1.681545e-01  3.953564e-01  0 
 0  0  0 

 -7.958495e-04  -1.080864e-03  0 
 -1.080864e-03  -2.107978e-04  0 
 0  0  0 

 -9.046837e-04  -1.047933e-03  0 
 -1.047933e-03  1.692392e-04  0 
 0  0  0 

 -9.579870e-04  -1.148915e-03  0 
 -1.148915e-03  9.849356e-05  0 
 0  0  0 

 -8.710365e-04  -9.164780e-04  0 
 -9.164780e-04  3.883286e-04  0 
 0  0  0 

 -9.766073e-04  -9.273066e-04  0 
 -9.273066e-04  3.675210e-04  0 
 0  0  0 

 -8.526402e-04  -8.298622e-04  0 
 -8.298622e-04  2.365925e-04  0 
 0  0  0 

 -4.479055e-04  -6.895502e-04  0 
 -6.895502e-04  4.280667e-04  0 
 0  0  0 

 -4.205940e-04  -7.779412e-04  0 
 -7.779412e-04  5.186610e-04  0 
 0  0  0 

 -9.494832e-04  -8.384210e-04  0 
 -8.384210e-04  7.137952e-04  0 
 0  0  0 

 -9.307091e-04  -8.606392e-04  0 
 -8.606392e-04  6.191568e-04  0 
 0  0  0 

 -7.135487e-04  -7.483699e-04  0 
 -7.483699e-04  3.910980e-04  0 
 0  0  0 

 -8.926286e-04  -1.217230e-03  0 
 -1.217230e-03  -3.463137e-04  0 
 0  0  0 

 -8.330801e-04  -7.210325e-04  0 
 -7.210325e-04  1.236720e-04  0 
 0  0  0 

 -7.504765e-04  -8.381654e-04  0 
 -8.381654e-04  2.614919e-04  0 
 0  0  0 

 -9.925998e-04  -8.362552e-04  0 
 -8.362552e-04  4.554666e-04  0 
 0  0  0 

 -9.722655e-04  -9.981984e-04  0 
 -9.981984e-04  4.530799e-04  0 
 0  0  0 

 -9.070178e-04  -6.914089e-04  0 
 -6.914089e-04  4.211537e-04  0 
 0  0  0 

 -8.536703e-04  -8.828048e-04  0 
 -8.828048e-04  5.031417e-04  0 
 0  0  0 

 -8.814937e-04  -8.552248e-04  0 
 -8.552248e-04  4.811659e-04  0 
 0  0  0 

 -8.594561e-04  -7.122806e-04  0 
 -7.122806e-04  6.940215e-04  0 
 0  0  0 

 -9.906446e-04  -7.232877e-04  0 
 -7.232877e-04  5.986008e-04  0 
 0  0  0 

 -9.701156e-04  -7.064362e-04  0 
 -7.064362e-04  8.153354e-04  0 
 0  0  0 

 -9.586797e-04  -5.229914e-04  0 
 -5.229914e-04  7.503299e-04  0 
 0  0  0 

TENSORS element_stresses FLOAT
 -9.162290e-04  7.401112e-04  0 
 7.401112e-04  -8.123131e-04  0 
 0  0  0 

 -1.631422e-03  7.223418e-04  0 
 7.223418e-04  1.736222e-04  0 
 0  0  0 

 -1.671994e-03  2.108989e-04  0 
 2.108989e-04  -1.226303e-03  0 
 0  0  0 

 -4.232311e-02  -3.430129e-02  0 
 -3.430129e-02  4.279474e-01  0 
 0  0  0 

 -1.108889e-01  -1.762599e-01  0 
 -1.762599e-01  -1.240953e-02  0 
 0  0  0 

 -5.262784e-01  5.684618e-02  0 
 5.684618e-02  4.875222e-01  0 
 0  0  0 

 -1.629463e-01  3.115721e-01  0 
 3.115721e-01  3.247121e-01  0 
 0  0  0 

 -1.417377e-01  5.730751e-03  0 
 5.730751e-03  2.358159e-01  0 
 0  0  0 

 -4.836079e-01  2.851693e-02  0 
 2.851693e-02  3.090587e-01  0 
 0  0  0 

 -4.815761e-01  -3.950658e-02  0 
 -3.950658e-02  3.153875e-01  0 
 0  0  0 

 -6.444410e-04  -4.410882e-03  0 
 -4.410882e-03  -4.668156e-02  0 
 0  0  0 

 -2.245523e-01  -2.639091e-03  0 
 -2.639091e-03  -4.018171e-02  0 
 0  0  0 

 -6.736821e-01  -1.444346e-02  0 
 -1.444346e-02  5.239867e-01  0 
 0  0  0 

 -2.899075e-01  2.565431e-01  0 
 2.565431e-01  5.760765e-01  0 
 0  0  0 

 -6.710969e-01  -6.739435e-03  0 
 -6.739435e-03  5.260906e-01  0 
 0  0  0 

 -1.732106e-02  -4.134120e-02  0 
 -4.134120e-02  5.409813e-02  0 
 0  0  0 

 -1.489329e-01  1.743120e-01  0 
 1.743120e-01  3.902178e-01  0 
 0  0  0 

 -2.655584e-01  7.642333e-02  0 
 7.642333e-02  3.403332e-02  0 
 0  0  0 

 -1.477285e-01  -1.681545e-01  0 
 -1.681545e-01  3.953564e-01  0 
 0  0  0 

 -7.958495e-04  -1.080864e-03  0 
 -1.080864e-03  -2.107978e-04  0 
 0  0  0 

 -9.046837e-04  -1.047933e-03  0 
 -1.047933e-03  1.692392e-04  0 
 0  0  0 

 -9.579870e-04  -1.148915e-03  0 
 -1.148915e-03  9.849356e-05  0 
 0  0  0 

 -8.710365e-04  -9.164780e-04  0 
 -9.164780e-04  3.883286e-04  0 
 0  0  0 

 -9.766073e-04  -9.273066e-04  0 
 -9.273066e-04  3.675210e-04  0 
 0  0  0 

 -8.526402e-04  -8.298622e-04  0 
 -8.298622e-04  2.365925e-04  0 
 0  0  0 

 -4.479055e-04  -6.895502e-04  0 
 -6.895502e-04  4.280667e-04  0 
 0  0  0 

 -4.205940e-04  -7.779412e-04  0 
 -7.779412e-04  5.186610e-04  0 
 0  0  0 

 -9.494832e-04  -8.384210e-04  0 
 -8.384210e-04  7.137952e-04  0 
 0  0  0 

 -9.307091e-04  -8.606392e-04  0 
 -8.606392e-04  6.191568e-04  0 
 0  0  0 

 -7.135487e-04  -7.483699e-04  0 
 -7.483699e-04  3.910980e-04  0 
 0  0  0 

 -8.926286e-04  -1.217230e-03  0 
 -1.217230e-03  -3.463137e-04  0 
 0  0  0 

 -8.330801e-04  -7.210325e-04  0 
 -7.210325e-04  1.236720e-04  0 
 0  0  0 

 -7.504765e-04  -8.381654e-04  0 
 -8.381654e-04  2.614919e-04  0 
 0  0  0 

 -9.925998e-04  -8.362552e-04  0 
 -8.362552e-04  4.554666e-04  0 
 0  0  0 

 -9.722655e-04  -9.981984e-04  0 
 -9.981984e-04  4.530799e-04  0 
 0  0  0 

 -9.070178e-04  -6.914089e-04  0 
 -6.914089e-04  4.211537e-04  0 
 0  0  0 

 -8.536703e-04  -8.828048e-04  0 
 -8.828048e-04  5.031417e-04  0 
 0  0  0 

 -8.814937e-04  -8.552248e-04  0 
 -8.552248e-04  4.811659e-04  0 
 0  0  0 

 -8.594561e-04  -7.122806e-04  0 
 -7.122806e-04  6.940215e-04  0 
 0  0  0 

 -9.906446e-04  -7.232877e-04  0 
 -7.232877e-04  5.986008e-04  0 
 0  0  0 

 -9.701156e-04  -7.064362e-04  0 
 -7.064362e-04  8.153354e-04  0 
 0  0  0 

 -9.586797e-04  -5.229914e-04  0 
 -5.229914e-04  7.503299e-04  0 
 0  0  0 

