# vtk DataFile Version 3.1
this is an vtk file created by FEMAC
ASCII
DATASET UNSTRUCTURED_GRID
POINTS 31 FLOAT
4.000000 2.000000 0.000000
4.000000 3.000000 0.000000
3.750000 2.000000 0.000000
4.000000 1.500000 0.000000
4.000000 1.750000 0.000000
4.000000 2.250000 0.000000
4.000000 2.500000 0.000000
4.000000 2.750000 0.000000
4.250000 2.000000 0.000000
4.500000 2.000000 0.000000
3.817501 1.632951 0.000000
3.842898 1.835270 0.000000
3.786897 2.360864 0.000000
3.749641 2.630999 0.000000
3.828962 2.840667 0.000000
3.836478 2.155331 0.000000
4.654136 1.816702 0.000000
4.195291 1.666492 0.000000
4.225000 1.500000 0.000000
4.384426 1.792836 0.000000
4.358519 1.602133 0.000000
4.544074 1.619719 0.000000
4.165943 1.841866 0.000000
4.325972 2.178472 0.000000
4.500000 2.225000 0.000000
4.171968 2.341551 0.000000
4.216647 2.581177 0.000000
4.399662 2.398247 0.000000
4.507893 2.661856 0.000000
4.245757 2.832172 0.000000
4.149588 2.154005 0.000000
CELLS 42 168 
3 4 10  3
3 2 11  0
3 11  4  0
3 11 10  4
3 6 12  5
3 14  7  1
3 15  2  0
3 15  5 12
3 5 15  0
3 13 12  6
3 13  6  7
3 7 14 13
3 3 17  4
3 18 17  3
3 20 17 18
3 8 19  9
3 19 16  9
3 21 16 19
3 17 20 19
3 19 20 21
3 4 22  0
3 22  8  0
3 22  4 17
3 22 19  8
3 17 19 22
3 9 23  8
3 24 23  9
3 27 23 24
3 5 25  6
3 26  7  6
3 27 25 23
3 7 29  1
3 30  5  0
3 30  8 23
3 8 30  0
3 26 29  7
3 30 25  5
3 23 25 30
3 6 25 26
3 26 25 27
3 27 28 26
3 26 28 29
CELL_TYPES 42
5 5 5 5 5 5 5 5 5 5 5 5 5 5 5 5 5 5 5 5 5 5 5 5 5 5 5 5 5 5 5 5 5 5 5 5 5 5 5 5 5 5 
POINT_DATA 31
VECTORS displacement_ITER1 FLOAT
 -5.216765e-02  -2.192936e-01  0 
 7.495717e-03  -2.192796e-01  0 
 -5.213041e-02  -2.102013e-01  0 
 -7.005433e-02  -2.192046e-01  0 
 -6.113386e-02  -2.192154e-01  0 
 -3.726116e-02  -2.193332e-01  0 
 -2.235175e-02  -2.193321e-01  0 
 -7.433165e-03  -2.193095e-01  0 
 -5.218022e-02  -2.342670e-01  0 
 -5.219187e-02  -2.492228e-01  0 
 -6.531117e-02  -2.126839e-01  0 
 -5.810031e-02  -2.136029e-01  0 
 -3.085398e-02  -1.994540e-01  0 
 -1.407736e-02  -1.947094e-01  0 
 -3.886894e-04  -2.008488e-01  0 
 -4.381920e-02  -2.065861e-01  0 
 -6.423303e-02  -2.776451e-01  0 
 -6.408001e-02  -2.324773e-01  0 
 -7.080468e-02  -2.346608e-01  0 
 -5.694084e-02  -2.494334e-01  0 
 -6.788796e-02  -2.482672e-01  0 
 -6.796014e-02  -2.800399e-01  0 
 -5.643234e-02  -2.306985e-01  0 
 -4.152211e-02  -2.387979e-01  0 
 -3.875320e-02  -2.491957e-01  0 
 -3.179947e-02  -2.295981e-01  0 
 -1.751556e-02  -2.322621e-01  0 
 -2.842174e-02  -2.431912e-01  0 
 -1.271137e-02  -2.496539e-01  0 
 -2.537502e-03  -2.339870e-01  0 
 -4.297762e-02  -2.282541e-01  0 
VECTORS displacement_ITER2 FLOAT
 -2.805997e-02  -1.070766e-01  0 
 9.035709e-03  -1.071006e-01  0 
 -2.794072e-02  -1.064007e-01  0 
 -2.872845e-02  -1.068899e-01  0 
 -2.844770e-02  -1.069311e-01  0 
 -1.883660e-02  -1.071525e-01  0 
 -9.560831e-03  -1.071584e-01  0 
 -2.689875e-04  -1.071378e-01  0 
 -2.811538e-02  -1.164521e-01  0 
 -2.814291e-02  -1.257972e-01  0 
 -2.858825e-02  -1.066848e-01  0 
 -2.835381e-02  -1.067261e-01  0 
 -1.567283e-02  -9.393267e-02  0 
 -5.407705e-03  -9.077098e-02  0 
 3.270447e-03  -9.511228e-02  0 
 -2.402087e-02  -9.958476e-02  0 
 -3.110157e-02  -1.348284e-01  0 
 -3.018625e-02  -1.132338e-01  0 
 -3.356363e-02  -1.168236e-01  0 
 -2.887404e-02  -1.222234e-01  0 
 -3.381872e-02  -1.223897e-01  0 
 -3.513063e-02  -1.356808e-01  0 
 -2.857289e-02  -1.127935e-01  0 
 -2.147468e-02  -1.192719e-01  0 
 -1.975728e-02  -1.257722e-01  0 
 -1.543444e-02  -1.135428e-01  0 
 -6.548925e-03  -1.152132e-01  0 
 -1.333207e-02  -1.220215e-01  0 
 -3.555406e-03  -1.260656e-01  0 
 2.778786e-03  -1.162876e-01  0 
 -2.237076e-02  -1.126815e-01  0 
VECTORS displacement_ITER3 FLOAT
 -2.221434e-02  -4.270307e-02  0 
 -4.185737e-03  -4.289295e-02  0 
 -2.208395e-02  -3.955570e-02  0 
 -2.762747e-02  -4.234315e-02  0 
 -2.499771e-02  -4.246462e-02  0 
 -1.772064e-02  -4.284661e-02  0 
 -1.321475e-02  -4.290620e-02  0 
 -8.698042e-03  -4.291698e-02  0 
 -2.225521e-02  -4.738159e-02  0 
 -2.227682e-02  -5.196812e-02  0 
 -2.626946e-02  -4.045361e-02  0 
 -2.411646e-02  -4.079748e-02  0 
 -1.623837e-02  -3.593375e-02  0 
 -1.151419e-02  -3.468020e-02  0 
 -7.414956e-03  -3.695732e-02  0 
 -1.992096e-02  -3.817283e-02  0 
 -2.362834e-02  -4.986918e-02  0 
 -2.599552e-02  -4.491128e-02  0 
 -2.613516e-02  -4.335075e-02  0 
 -2.507836e-02  -4.750619e-02  0 
 -2.550084e-02  -4.523535e-02  0 
 -2.538409e-02  -4.575898e-02  0 
 -2.438612e-02  -4.504262e-02  0 
 -1.898655e-02  -4.876770e-02  0 
 -1.813877e-02  -5.197936e-02  0 
 -1.604970e-02  -4.598186e-02  0 
 -1.174131e-02  -4.683743e-02  0 
 -1.501412e-02  -5.013507e-02  0 
 -1.028066e-02  -5.215154e-02  0 
 -7.214884e-03  -4.737449e-02  0 
 -1.942248e-02  -4.552058e-02  0 
VECTORS displacement_ITER4 FLOAT
 -1.394298e-02  -1.922099e-02  0 
 -5.597923e-03  -1.933318e-02  0 
 -1.380847e-02  -1.973496e-02  0 
 -1.204306e-02  -1.882209e-02  0 
 -1.304667e-02  -1.896723e-02  0 
 -1.192344e-02  -1.936145e-02  0 
 -9.863769e-03  -1.939629e-02  0 
 -7.740450e-03  -1.937469e-02  0 
 -1.397950e-02  -2.142599e-02  0 
 -1.399350e-02  -2.350667e-02  0 
 -1.262425e-02  -1.959735e-02  0 
 -1.342668e-02  -1.961907e-02  0 
 -1.167847e-02  -1.515391e-02  0 
 -9.400262e-03  -1.427448e-02  0 
 -7.254205e-03  -1.564754e-02  0 
 -1.353084e-02  -1.689629e-02  0 
 -1.469108e-02  -2.453325e-02  0 
 -1.360545e-02  -1.991592e-02  0 
 -1.407529e-02  -2.089066e-02  0 
 -1.415430e-02  -2.169785e-02  0 
 -1.479085e-02  -2.180954e-02  0 
 -1.586449e-02  -2.378423e-02  0 
 -1.382078e-02  -2.005200e-02  0 
 -1.248224e-02  -2.206551e-02  0 
 -1.207645e-02  -2.356888e-02  0 
 -1.115599e-02  -2.080473e-02  0 
 -9.179927e-03  -2.123502e-02  0 
 -1.066731e-02  -2.273896e-02  0 
 -8.484530e-03  -2.377617e-02  0 
 -7.036317e-03  -2.150172e-02  0 
 -1.267634e-02  -2.056122e-02  0 
VECTORS displacement_ITER5 FLOAT
 -5.436378e-03  -7.707835e-03  0 
 -1.442940e-03  -7.830231e-03  0 
 -5.270043e-03  -7.043301e-03  0 
 -5.636502e-03  -7.248703e-03  0 
 -5.668160e-03  -7.424934e-03  0 
 -4.486077e-03  -7.846528e-03  0 
 -3.496454e-03  -7.883973e-03  0 
 -2.464994e-03  -7.870147e-03  0 
 -5.486693e-03  -8.856907e-03  0 
 -5.512890e-03  -9.898197e-03  0 
 -5.718005e-03  -7.318927e-03  0 
 -5.673095e-03  -7.390797e-03  0 
 -4.951301e-03  -5.180357e-03  0 
 -4.264617e-03  -5.065130e-03  0 
 -3.327796e-03  -6.125073e-03  0 
 -5.527194e-03  -5.896900e-03  0 
 -5.615930e-03  -9.928247e-03  0 
 -5.250283e-03  -8.826192e-03  0 
 -5.309364e-03  -8.965007e-03  0 
 -4.963279e-03  -1.022614e-02  0 
 -4.795898e-03  -9.788643e-03  0 
 -3.682638e-03  -1.145341e-02  0 
 -5.248510e-03  -8.714028e-03  0 
 -4.742954e-03  -9.167126e-03  0 
 -4.543573e-03  -9.931537e-03  0 
 -4.109764e-03  -8.554190e-03  0 
 -3.163766e-03  -8.781367e-03  0 
 -3.870996e-03  -9.511441e-03  0 
 -2.823117e-03  -1.005311e-02  0 
 -2.124524e-03  -8.909454e-03  0 
 -4.830175e-03  -8.408697e-03  0 
VECTORS displacement_ITER6 FLOAT
 -1.734691e-03  -5.237242e-03  0 
 1.274420e-04  -5.394895e-03  0 
 -1.593689e-03  -4.321694e-03  0 
 -2.457680e-03  -4.757811e-03  0 
 -2.240718e-03  -4.933525e-03  0 
 -1.302892e-03  -5.394292e-03  0 
 -8.508198e-04  -5.437530e-03  0 
 -3.518984e-04  -5.424446e-03  0 
 -1.763738e-03  -5.860876e-03  0 
 -1.770209e-03  -6.357694e-03  0 
 -2.406270e-03  -4.641857e-03  0 
 -2.159359e-03  -4.737128e-03  0 
 -1.406089e-03  -3.731494e-03  0 
 -1.022258e-03  -3.569610e-03  0 
 -5.212545e-04  -4.099648e-03  0 
 -1.649323e-03  -4.054855e-03  0 
 -2.145028e-03  -6.233526e-03  0 
 -2.210677e-03  -5.453802e-03  0 
 -2.301522e-03  -5.355407e-03  0 
 -2.021001e-03  -6.035029e-03  0 
 -2.131385e-03  -5.726704e-03  0 
 -1.963394e-03  -6.193034e-03  0 
 -1.991033e-03  -5.552666e-03  0 
 -1.404214e-03  -6.016126e-03  0 
 -1.307327e-03  -6.389653e-03  0 
 -1.122686e-03  -5.736644e-03  0 
 -6.927395e-04  -5.870782e-03  0 
 -1.005933e-03  -6.204782e-03  0 
 -5.301158e-04  -6.514790e-03  0 
 -1.850915e-04  -5.936541e-03  0 
 -1.441707e-03  -5.636942e-03  0 
VECTORS displacement_ITER7 FLOAT
 -1.174048e-03  -4.468247e-03  0 
 6.305503e-05  -4.606422e-03  0 
 -1.094247e-03  -3.888311e-03  0 
 -1.715123e-03  -4.230566e-03  0 
 -1.450897e-03  -4.266949e-03  0 
 -8.858127e-04  -4.634526e-03  0 
 -5.848166e-04  -4.684006e-03  0 
 -2.496020e-04  -4.664435e-03  0 
 -1.213026e-03  -4.965952e-03  0 
 -1.228187e-03  -5.349162e-03  0 
 -1.583015e-03  -4.030581e-03  0 
 -1.404603e-03  -4.127832e-03  0 
 -8.857143e-04  -4.040616e-03  0 
 -6.091980e-04  -4.022861e-03  0 
 -3.363415e-04  -4.232580e-03  0 
 -1.068825e-03  -4.021996e-03  0 
 -1.507049e-03  -5.510818e-03  0 
 -1.530815e-03  -4.751871e-03  0 
 -1.754362e-03  -4.838467e-03  0 
 -1.396204e-03  -5.179670e-03  0 
 -1.603981e-03  -5.097056e-03  0 
 -1.542813e-03  -5.501970e-03  0 
 -1.331955e-03  -4.744382e-03  0 
 -9.470867e-04  -5.075684e-03  0 
 -8.854521e-04  -5.354260e-03  0 
 -7.579828e-04  -4.877225e-03  0 
 -4.810086e-04  -4.978748e-03  0 
 -6.790841e-04  -5.207863e-03  0 
 -3.788759e-04  -5.426908e-03  0 
 -1.452162e-04  -5.015881e-03  0 
 -9.686986e-04  -4.789654e-03  0 
VECTORS displacement_ITER8 FLOAT
 -1.131621e-03  -4.081819e-03  0 
 8.020944e-05  -4.190464e-03  0 
 -1.080382e-03  -3.641836e-03  0 
 -1.664522e-03  -3.884419e-03  0 
 -1.355425e-03  -3.939697e-03  0 
 -8.227279e-04  -4.229985e-03  0 
 -5.015921e-04  -4.275892e-03  0 
 -1.624785e-04  -4.257654e-03  0 
 -1.176301e-03  -4.587838e-03  0 
 -1.197241e-03  -5.001277e-03  0 
 -1.518872e-03  -3.675222e-03  0 
 -1.302830e-03  -3.802604e-03  0 
 -6.624332e-04  -3.891363e-03  0 
 -2.642036e-04  -3.841154e-03  0 
 1.239814e-05  -3.965524e-03  0 
 -9.450631e-04  -3.851208e-03  0 
 -1.445002e-03  -5.203575e-03  0 
 -1.500277e-03  -4.337175e-03  0 
 -1.755336e-03  -4.382036e-03  0 
 -1.365008e-03  -4.771997e-03  0 
 -1.623562e-03  -4.677037e-03  0 
 -1.609254e-03  -5.129942e-03  0 
 -1.292512e-03  -4.345338e-03  0 
 -8.951840e-04  -4.700486e-03  0 
 -8.338196e-04  -4.992421e-03  0 
 -6.883587e-04  -4.483482e-03  0 
 -3.958452e-04  -4.576101e-03  0 
 -6.086438e-04  -4.828926e-03  0 
 -3.035803e-04  -5.017853e-03  0 
 -6.462500e-05  -4.595719e-03  0 
 -9.179642e-04  -4.401110e-03  0 
VECTORS displacement_ITER9 FLOAT
 -1.171053e-03  -3.904661e-03  0 
 2.162618e-04  -4.004575e-03  0 
 -1.118613e-03  -3.489775e-03  0 
 -1.613854e-03  -3.708183e-03  0 
 -1.386412e-03  -3.753884e-03  0 
 -8.182436e-04  -4.041960e-03  0 
 -4.467790e-04  -4.084358e-03  0 
 -7.584087e-05  -4.076070e-03  0 
 -1.217156e-03  -4.446880e-03  0 
 -1.238098e-03  -4.902200e-03  0 
 -1.506392e-03  -3.552572e-03  0 
 -1.341378e-03  -3.632208e-03  0 
 -5.956774e-04  -3.692032e-03  0 
 -1.932752e-04  -3.547188e-03  0 
 -2.805678e-06  -3.629038e-03  0 
 -9.303334e-04  -3.716256e-03  0 
 -1.425450e-03  -5.235981e-03  0 
 -1.479946e-03  -4.220588e-03  0 
 -1.658561e-03  -4.294510e-03  0 
 -1.382598e-03  -4.655580e-03  0 
 -1.590026e-03  -4.611643e-03  0 
 -1.635540e-03  -5.026750e-03  0 
 -1.315417e-03  -4.207972e-03  0 
 -9.066560e-04  -4.572183e-03  0 
 -8.378273e-04  -4.889323e-03  0 
 -6.673093e-04  -4.325723e-03  0 
 -3.250622e-04  -4.419923e-03  0 
 -5.780914e-04  -4.717211e-03  0 
 -2.192546e-04  -4.900799e-03  0 
 2.539378e-05  -4.437905e-03  0 
 -9.331208e-04  -4.242593e-03  0 
VECTORS displacement_ITER10 FLOAT
 -1.159924e-03  -3.853949e-03  0 
 1.837527e-04  -3.934505e-03  0 
 -1.112759e-03  -3.443132e-03  0 
 -1.642028e-03  -3.667939e-03  0 
 -1.387241e-03  -3.723731e-03  0 
 -8.227413e-04  -3.985277e-03  0 
 -4.653391e-04  -4.025511e-03  0 
 -1.085732e-04  -4.014652e-03  0 
 -1.205942e-03  -4.374832e-03  0 
 -1.227175e-03  -4.808798e-03  0 
 -1.526542e-03  -3.499817e-03  0 
 -1.329517e-03  -3.585072e-03  0 
 -6.567621e-04  -3.578931e-03  0 
 -2.567245e-04  -3.468534e-03  0 
 -2.410053e-05  -3.596260e-03  0 
 -9.577695e-04  -3.610135e-03  0 
 -1.362699e-03  -5.179757e-03  0 
 -1.475475e-03  -4.173873e-03  0 
 -1.680150e-03  -4.257437e-03  0 
 -1.362062e-03  -4.583732e-03  0 
 -1.594308e-03  -4.571818e-03  0 
 -1.654617e-03  -4.962945e-03  0 
 -1.306261e-03  -4.157034e-03  0 
 -9.078428e-04  -4.495111e-03  0 
 -8.389948e-04  -4.804340e-03  0 
 -6.774676e-04  -4.258276e-03  0 
 -3.484047e-04  -4.349506e-03  0 
 -5.902036e-04  -4.637895e-03  0 
 -2.496471e-04  -4.808102e-03  0 
 -1.474500e-05  -4.363962e-03  0 
 -9.329080e-04  -4.177925e-03  0 
VECTORS displacement_ITER11 FLOAT
 -1.125254e-03  -3.846450e-03  0 
 1.752264e-04  -3.915239e-03  0 
 -1.076306e-03  -3.424192e-03  0 
 -1.631158e-03  -3.660922e-03  0 
 -1.365123e-03  -3.715293e-03  0 
 -8.013842e-04  -3.975386e-03  0 
 -4.552761e-04  -4.013240e-03  0 
 -1.083293e-04  -3.999434e-03  0 
 -1.172817e-03  -4.353405e-03  0 
 -1.195543e-03  -4.776537e-03  0 
 -1.507912e-03  -3.485558e-03  0 
 -1.303979e-03  -3.570101e-03  0 
 -6.530723e-04  -3.559184e-03  0 
 -2.513199e-04  -3.468157e-03  0 
 1.221843e-05  -3.604668e-03  0 
 -9.254073e-04  -3.599989e-03  0 
 -1.377486e-03  -5.110209e-03  0 
 -1.467809e-03  -4.140697e-03  0 
 -1.690334e-03  -4.208701e-03  0 
 -1.336968e-03  -4.569572e-03  0 
 -1.585387e-03  -4.523349e-03  0 
 -1.605303e-03  -4.964802e-03  0 
 -1.280115e-03  -4.136634e-03  0 
 -8.829218e-04  -4.469556e-03  0 
 -8.157301e-04  -4.771874e-03  0 
 -6.609188e-04  -4.239775e-03  0 
 -3.425483e-04  -4.327790e-03  0 
 -5.769278e-04  -4.608343e-03  0 
 -2.459517e-04  -4.776184e-03  0 
 -1.763701e-05  -4.341549e-03  0 
 -9.069616e-04  -4.160915e-03  0 
VECTORS displacement_ITER12 FLOAT
 -1.121759e-03  -3.847876e-03  0 
 1.811601e-04  -3.915634e-03  0 
 -1.073207e-03  -3.427248e-03  0 
 -1.626557e-03  -3.662486e-03  0 
 -1.361466e-03  -3.716520e-03  0 
 -7.978672e-04  -3.976419e-03  0 
 -4.513986e-04  -4.014217e-03  0 
 -1.038394e-04  -4.000427e-03  0 
 -1.169279e-03  -4.354529e-03  0 
 -1.191853e-03  -4.777331e-03  0 
 -1.503743e-03  -3.487405e-03  0 
 -1.300491e-03  -3.571570e-03  0 
 -6.450276e-04  -3.564578e-03  0 
 -2.448696e-04  -3.463663e-03  0 
 8.518319e-06  -3.596355e-03  0 
 -9.209534e-04  -3.605586e-03  0 
 -1.383502e-03  -5.099914e-03  0 
 -1.462736e-03  -4.149109e-03  0 
 -1.679095e-03  -4.220960e-03  0 
 -1.343574e-03  -4.564601e-03  0 
 -1.580881e-03  -4.530481e-03  0 
 -1.614040e-03  -4.941871e-03  0 
 -1.279379e-03  -4.138176e-03  0 
 -8.796313e-04  -4.470647e-03  0 
 -8.125499e-04  -4.772235e-03  0 
 -6.572858e-04  -4.240954e-03  0 
 -3.383669e-04  -4.329453e-03  0 
 -5.727833e-04  -4.610277e-03  0 
 -2.416314e-04  -4.778460e-03  0 
 -1.314302e-05  -4.343236e-03  0 
 -9.035889e-04  -4.162120e-03  0 
VECTORS displacement_ITER13 FLOAT
 -1.121922e-03  -3.847666e-03  0 
 1.809628e-04  -3.915413e-03  0 
 -1.073081e-03  -3.426820e-03  0 
 -1.626095e-03  -3.662111e-03  0 
 -1.361133e-03  -3.716295e-03  0 
 -7.980055e-04  -3.976109e-03  0 
 -4.513931e-04  -4.013816e-03  0 
 -1.039345e-04  -4.000197e-03  0 
 -1.169434e-03  -4.354285e-03  0 
 -1.191938e-03  -4.777121e-03  0 
 -1.503412e-03  -3.487177e-03  0 
 -1.300368e-03  -3.571713e-03  0 
 -6.426570e-04  -3.559899e-03  0 
 -2.463104e-04  -3.466736e-03  0 
 9.063224e-06  -3.604595e-03  0 
 -9.211260e-04  -3.604855e-03  0 
 -1.386321e-03  -5.096360e-03  0 
 -1.461503e-03  -4.151441e-03  0 
 -1.674755e-03  -4.224368e-03  0 
 -1.344452e-03  -4.564272e-03  0 
 -1.579078e-03  -4.531500e-03  0 
 -1.614926e-03  -4.942155e-03  0 
 -1.279335e-03  -4.138624e-03  0 
 -8.798113e-04  -4.470425e-03  0 
 -8.127970e-04  -4.771905e-03  0 
 -6.574200e-04  -4.240661e-03  0 
 -3.383190e-04  -4.329052e-03  0 
 -5.729893e-04  -4.609994e-03  0 
 -2.411764e-04  -4.778608e-03  0 
 -1.324210e-05  -4.342979e-03  0 
 -9.037623e-04  -4.161870e-03  0 
VECTORS displacement_ITER14 FLOAT
 -1.122014e-03  -3.847605e-03  0 
 1.810520e-04  -3.915423e-03  0 
 -1.073201e-03  -3.426851e-03  0 
 -1.626086e-03  -3.662109e-03  0 
 -1.361200e-03  -3.716234e-03  0 
 -7.980209e-04  -3.976078e-03  0 
 -4.513778e-04  -4.013824e-03  0 
 -1.038610e-04  -4.000190e-03  0 
 -1.169533e-03  -4.354315e-03  0 
 -1.192072e-03  -4.777269e-03  0 
 -1.503442e-03  -3.487152e-03  0 
 -1.300442e-03  -3.571659e-03  0 
 -6.425421e-04  -3.559338e-03  0 
 -2.463857e-04  -3.467319e-03  0 
 8.893985e-06  -3.606091e-03  0 
 -9.215056e-04  -3.604405e-03  0 
 -1.385467e-03  -5.096296e-03  0 
 -1.461760e-03  -4.150789e-03  0 
 -1.674683e-03  -4.223641e-03  0 
 -1.343978e-03  -4.564081e-03  0 
 -1.579413e-03  -4.530054e-03  0 
 -1.614754e-03  -4.942808e-03  0 
 -1.279324e-03  -4.138457e-03  0 
 -8.798325e-04  -4.470468e-03  0 
 -8.127998e-04  -4.772016e-03  0 
 -6.574078e-04  -4.240676e-03  0 
 -3.382956e-04  -4.329099e-03  0 
 -5.729527e-04  -4.610052e-03  0 
 -2.411611e-04  -4.778759e-03  0 
 -1.315790e-05  -4.342994e-03  0 
 -9.037972e-04  -4.161865e-03  0 
CELL_DATA 42
TENSORS element_stresses FLOAT
 3.836012e-02  -4.373362e-02  0 
 -4.373362e-02  -2.049911e-01  0 
 0  0  0 

 -2.376572e-01  -3.181967e-01  0 
 -3.181967e-01  -1.413527e-01  0 
 0  0  0 

 -2.757886e-02  -1.913347e-01  0 
 -1.913347e-01  -5.337580e-01  0 
 0  0  0 

 6.913838e-02  -6.845746e-02  0 
 -6.845746e-02  -2.621594e-01  0 
 0  0  0 

 -5.883963e-05  -4.981228e-04  0 
 -4.981228e-04  -1.686353e-04  0 
 0  0  0 

 5.122029e-05  -7.575105e-04  0 
 -7.575105e-04  3.544349e-04  0 
 0  0  0 

 -2.825011e-04  -4.597838e-04  0 
 -4.597838e-04  -2.908324e-04  0 
 0  0  0 

 -1.246992e-04  -5.807621e-04  0 
 -5.807621e-04  -3.261133e-04  0 
 0  0  0 

 -1.640642e-04  -5.226432e-04  0 
 -5.226432e-04  -5.631111e-04  0 
 0  0  0 

 -4.687106e-05  -5.397661e-04  0 
 -5.397661e-04  2.859835e-05  0 
 0  0  0 

 -8.251486e-05  -5.879086e-04  0 
 -5.879086e-04  2.978215e-05  0 
 0  0  0 

 4.496849e-05  -7.612377e-04  0 
 -7.612377e-04  1.882729e-04  0 
 0  0  0 

 -1.393473e-04  -9.678467e-04  0 
 -9.678467e-04  -2.583033e-04  0 
 0  0  0 

 -2.399104e-04  -9.656605e-04  0 
 -9.656605e-04  -7.974155e-05  0 
 0  0  0 

 -2.478267e-04  -8.280582e-04  0 
 -8.280582e-04  -4.965636e-05  0 
 0  0  0 

 -1.271746e-04  -6.986571e-04  0 
 -6.986571e-04  -1.233931e-04  0 
 0  0  0 

 -2.279282e-04  -8.602744e-04  0 
 -8.602744e-04  7.140576e-06  0 
 0  0  0 

 -1.847584e-04  -5.295605e-04  0 
 -5.295605e-04  2.847545e-04  0 
 0  0  0 

 -2.011448e-04  -7.749470e-04  0 
 -7.749470e-04  6.990611e-05  0 
 0  0  0 

 -3.009537e-04  -7.380297e-04  0 
 -7.380297e-04  3.509290e-05  0 
 0  0  0 

 -2.130764e-04  -9.974843e-04  0 
 -9.974843e-04  -5.894073e-04  0 
 0  0  0 

 -3.037080e-04  -9.473196e-04  0 
 -9.473196e-04  -3.787731e-04  0 
 0  0  0 

 -1.902175e-04  -1.028188e-03  0 
 -1.028188e-03  -3.823887e-04  0 
 0  0  0 

 -2.346211e-04  -9.640949e-04  0 
 -9.640949e-04  -3.647901e-04  0 
 0  0  0 

 -1.589115e-04  -7.525343e-04  0 
 -7.525343e-04  -3.133269e-04  0 
 0  0  0 

 -7.620809e-02  -2.323848e-02  0 
 -2.323848e-02  4.649530e-02  0 
 0  0  0 

 -6.427036e-02  -4.103383e-02  0 
 -4.103383e-02  4.065279e-03  0 
 0  0  0 

 -5.285382e-03  -2.499174e-01  0 
 -2.499174e-01  -6.105259e-02  0 
 0  0  0 

 3.758609e-02  -5.515206e-02  0 
 -5.515206e-02  -1.397075e-01  0 
 0  0  0 

 1.920133e-02  -6.585486e-02  0 
 -6.585486e-02  6.029700e-02  0 
 0  0  0 

 -4.956418e-03  -1.612528e-01  0 
 -1.612528e-01  -1.009852e-01  0 
 0  0  0 

 9.861409e-02  -2.835484e-01  0 
 -2.835484e-01  3.686530e-01  0 
 0  0  0 

 -3.254660e-02  -2.121532e-01  0 
 -2.121532e-01  -5.236559e-01  0 
 0  0  0 

 -7.137603e-02  -7.679026e-02  0 
 -7.679026e-02  7.844069e-02  0 
 0  0  0 

 -2.325700e-01  -3.271254e-01  0 
 -3.271254e-01  -1.416467e-01  0 
 0  0  0 

 -3.673462e-02  -9.906676e-02  0 
 -9.906676e-02  9.968530e-02  0 
 0  0  0 

 5.548184e-02  -8.111843e-02  0 
 -8.111843e-02  -2.360226e-01  0 
 0  0  0 

 -1.226986e-01  -3.079989e-01  0 
 -3.079989e-01  -2.518117e-01  0 
 0  0  0 

 -7.467503e-03  -6.830573e-02  0 
 -6.830573e-02  -1.072397e-01  0 
 0  0  0 

 2.230819e-02  -2.160383e-01  0 
 -2.160383e-01  -6.307210e-02  0 
 0  0  0 

 -2.105466e-02  -2.125745e-01  0 
 -2.125745e-01  -1.319628e-02  0 
 0  0  0 

 1.337395e-02  -2.160748e-01  0 
 -2.160748e-01  1.318146e-01  0 
 0  0  0 

TENSORS element_stresses FLOAT
 3.836012e-02  -4.373362e-02  0 
 -4.373362e-02  -2.049911e-01  0 
 0  0  0 

 -2.376572e-01  -3.181967e-01  0 
 -3.181967e-01  -1.413527e-01  0 
 0  0  0 

 -2.757886e-02  -1.913347e-01  0 
 -1.913347e-01  -5.337580e-01  0 
 0  0  0 

 6.913838e-02  -6.845746e-02  0 
 -6.845746e-02  -2.621594e-01  0 
 0  0  0 

 -5.883963e-05  -4.981228e-04  0 
 -4.981228e-04  -1.686353e-04  0 
 0  0  0 

 5.122029e-05  -7.575105e-04  0 
 -7.575105e-04  3.544349e-04  0 
 0  0  0 

 -2.825011e-04  -4.597838e-04  0 
 -4.597838e-04  -2.908324e-04  0 
 0  0  0 

 -1.246992e-04  -5.807621e-04  0 
 -5.807621e-04  -3.261133e-04  0 
 0  0  0 

 -1.640642e-04  -5.226432e-04  0 
 -5.226432e-04  -5.631111e-04  0 
 0  0  0 

 -4.687106e-05  -5.397661e-04  0 
 -5.397661e-04  2.859835e-05  0 
 0  0  0 

 -8.251486e-05  -5.879086e-04  0 
 -5.879086e-04  2.978215e-05  0 
 0  0  0 

 4.496849e-05  -7.612377e-04  0 
 -7.612377e-04  1.882729e-04  0 
 0  0  0 

 -1.393473e-04  -9.678467e-04  0 
 -9.678467e-04  -2.583033e-04  0 
 0  0  0 

 -2.399104e-04  -9.656605e-04  0 
 -9.656605e-04  -7.974155e-05  0 
 0  0  0 

 -2.478267e-04  -8.280582e-04  0 
 -8.280582e-04  -4.965636e-05  0 
 0  0  0 

 -1.271746e-04  -6.986571e-04  0 
 -6.986571e-04  -1.233931e-04  0 
 0  0  0 

 -2.279282e-04  -8.602744e-04  0 
 -8.602744e-04  7.140576e-06  0 
 0  0  0 

 -1.847584e-04  -5.295605e-04  0 
 -5.295605e-04  2.847545e-04  0 
 0  0  0 

 -2.011448e-04  -7.749470e-04  0 
 -7.749470e-04  6.990611e-05  0 
 0  0  0 

 -3.009537e-04  -7.380297e-04  0 
 -7.380297e-04  3.509290e-05  0 
 0  0  0 

 -2.130764e-04  -9.974843e-04  0 
 -9.974843e-04  -5.894073e-04  0 
 0  0  0 

 -3.037080e-04  -9.473196e-04  0 
 -9.473196e-04  -3.787731e-04  0 
 0  0  0 

 -1.902175e-04  -1.028188e-03  0 
 -1.028188e-03  -3.823887e-04  0 
 0  0  0 

 -2.346211e-04  -9.640949e-04  0 
 -9.640949e-04  -3.647901e-04  0 
 0  0  0 

 -1.589115e-04  -7.525343e-04  0 
 -7.525343e-04  -3.133269e-04  0 
 0  0  0 

 -7.620809e-02  -2.323848e-02  0 
 -2.323848e-02  4.649530e-02  0 
 0  0  0 

 -6.427036e-02  -4.103383e-02  0 
 -4.103383e-02  4.065279e-03  0 
 0  0  0 

 -5.285382e-03  -2.499174e-01  0 
 -2.499174e-01  -6.105259e-02  0 
 0  0  0 

 3.758609e-02  -5.515206e-02  0 
 -5.515206e-02  -1.397075e-01  0 
 0  0  0 

 1.920133e-02  -6.585486e-02  0 
 -6.585486e-02  6.029700e-02  0 
 0  0  0 

 -4.956418e-03  -1.612528e-01  0 
 -1.612528e-01  -1.009852e-01  0 
 0  0  0 

 9.861409e-02  -2.835484e-01  0 
 -2.835484e-01  3.686530e-01  0 
 0  0  0 

 -3.254660e-02  -2.121532e-01  0 
 -2.121532e-01  -5.236559e-01  0 
 0  0  0 

 -7.137603e-02  -7.679026e-02  0 
 -7.679026e-02  7.844069e-02  0 
 0  0  0 

 -2.325700e-01  -3.271254e-01  0 
 -3.271254e-01  -1.416467e-01  0 
 0  0  0 

 -3.673462e-02  -9.906676e-02  0 
 -9.906676e-02  9.968530e-02  0 
 0  0  0 

 5.548184e-02  -8.111843e-02  0 
 -8.111843e-02  -2.360226e-01  0 
 0  0  0 

 -1.226986e-01  -3.079989e-01  0 
 -3.079989e-01  -2.518117e-01  0 
 0  0  0 

 -7.467503e-03  -6.830573e-02  0 
 -6.830573e-02  -1.072397e-01  0 
 0  0  0 

 2.230819e-02  -2.160383e-01  0 
 -2.160383e-01  -6.307210e-02  0 
 0  0  0 

 -2.105466e-02  -2.125745e-01  0 
 -2.125745e-01  -1.319628e-02  0 
 0  0  0 

 1.337395e-02  -2.160748e-01  0 
 -2.160748e-01  1.318146e-01  0 
 0  0  0 

