# vtk DataFile Version 3.1
this is an vtk file created by FEMAC
ASCII
DATASET UNSTRUCTURED_GRID
POINTS 32 FLOAT
1.000000 0.000000 0.000000
2.000000 0.000000 0.000000
1.250000 0.000000 0.000000
1.500000 0.000000 0.000000
1.750000 0.000000 0.000000
2.250000 0.000000 0.000000
2.500000 0.000000 0.000000
1.000000 0.250000 0.000000
1.000000 0.500000 0.000000
1.000000 0.750000 0.000000
2.000000 0.250000 0.000000
2.000000 0.500000 0.000000
2.000000 0.750000 0.000000
0.757669 0.416286 0.000000
1.462570 0.272476 0.000000
1.214699 0.660302 0.000000
1.787596 0.660045 0.000000
1.828307 0.162952 0.000000
1.638134 0.825570 0.000000
1.371728 0.825957 0.000000
1.502535 0.594871 0.000000
1.217467 0.400442 0.000000
1.746177 0.372389 0.000000
1.660592 0.165804 0.000000
1.835146 0.847123 0.000000
1.167285 0.847252 0.000000
1.238340 0.153820 0.000000
2.462570 0.272476 0.000000
2.214699 0.660302 0.000000
2.502535 0.594871 0.000000
2.217467 0.400442 0.000000
2.238340 0.153820 0.000000
CELLS 43 172 
3 13  7  8
3 8 15  9
3 16 11 12
3 17  4  1
3 10 17  1
3 20 16 18
3 21 15  8
3 16 22 11
3 20 21 14
3 20 15 21
3 22 20 14
3 16 20 22
3 7 21  8
3 22 10 11
3 17 10 22
3 20 19 15
3 18 19 20
3 17 23  4
3 12 24 16
3 25  9 15
3 23 22 14
3 17 22 23
3 15 19 25
3 18 16 24
3 23  3  4
3 3 23 14
3 2 26  0
3 26  7  0
3 3 26  2
3 21 26 14
3 26 21  7
3 3 14 26
3 11 28 12
3 30 28 11
3 29 30 27
3 29 28 30
3 10 30 11
3 5 31  1
3 31 10  1
3 6 31  5
3 30 31 27
3 31 30 10
3 6 27 31
CELL_TYPES 43
5 5 5 5 5 5 5 5 5 5 5 5 5 5 5 5 5 5 5 5 5 5 5 5 5 5 5 5 5 5 5 5 5 5 5 5 5 5 5 5 5 5 5 
POINT_DATA 32
VECTORS displacement_ITER1 FLOAT
 -5.044317e-03  -3.833942e-02  0 
 -1.318618e-01  -6.706025e-02  0 
 -4.610733e-02  -5.649147e-02  0 
 -7.891119e-02  -7.072358e-02  0 
 -1.034380e-01  -7.803260e-02  0 
 -1.319064e-01  -8.250169e-02  0 
 -1.319468e-01  -9.796765e-02  0 
 -1.083780e-02  -6.054556e-03  0 
 -8.065028e-03  -5.969640e-03  0 
 -1.824935e-02  1.569420e-02  0 
 -1.164233e-01  -6.700086e-02  0 
 -1.009451e-01  -6.692217e-02  0 
 -8.540071e-02  -6.683646e-02  0 
 -8.936029e-03  -3.307023e-03  0 
 -6.157139e-02  -3.784813e-02  0 
 -3.252514e-02  9.364252e-03  0 
 -7.954736e-02  -3.405884e-02  0 
 -1.095493e-01  -6.112704e-02  0 
 -6.184350e-02  -6.187490e-03  0 
 -4.249437e-02  1.558647e-02  0 
 -5.913885e-02  -8.078618e-03  0 
 -2.844044e-02  -1.174329e-02  0 
 -9.180278e-02  -4.440416e-02  0 
 -9.057521e-02  -5.991254e-02  0 
 -6.879163e-02  -3.276831e-02  0 
 -3.210903e-02  1.930549e-02  0 
 -4.004328e-02  -3.370833e-02  0 
 -1.150752e-01  -9.562067e-02  0 
 -9.102516e-02  -8.022574e-02  0 
 -9.512356e-02  -9.808842e-02  0 
 -1.071432e-01  -8.043358e-02  0 
 -1.223979e-01  -8.175172e-02  0 
VECTORS displacement_ITER2 FLOAT
 3.278989e-03  -2.796393e-02  0 
 -7.802311e-02  -4.453366e-02  0 
 -2.339880e-02  -4.630698e-02  0 
 -4.339313e-02  -5.786826e-02  0 
 -5.818283e-02  -5.882755e-02  0 
 -7.805809e-02  -5.118603e-02  0 
 -7.808984e-02  -5.786015e-02  0 
 3.139420e-03  -8.739132e-03  0 
 8.789186e-03  -8.673380e-03  0 
 7.950320e-04  1.048106e-02  0 
 -7.137459e-02  -4.448921e-02  0 
 -6.468134e-02  -4.441354e-02  0 
 -5.791020e-02  -4.429704e-02  0 
 6.944195e-03  -3.206024e-03  0 
 -3.275795e-02  -3.665034e-02  0 
 -1.307106e-02  -1.175939e-03  0 
 -5.016613e-02  -3.312675e-02  0 
 -6.497657e-02  -4.553783e-02  0 
 -4.032781e-02  -2.411540e-02  0 
 -2.201887e-02  -6.078810e-04  0 
 -3.549024e-02  -1.862477e-02  0 
 -9.407887e-03  -1.807932e-02  0 
 -5.550045e-02  -3.733433e-02  0 
 -5.207338e-02  -4.905651e-02  0 
 -4.797417e-02  -3.441081e-02  0 
 -1.111971e-02  8.055410e-03  0 
 -1.778891e-02  -3.227441e-02  0 
 -7.080357e-02  -5.683554e-02  0 
 -6.040726e-02  -5.014685e-02  0 
 -6.221561e-02  -5.789420e-02  0 
 -6.738136e-02  -5.027562e-02  0 
 -7.395814e-02  -5.085202e-02  0 
VECTORS displacement_ITER3 FLOAT
 -1.412335e-02  4.125325e-03  0 
 -5.114221e-02  -1.564616e-02  0 
 -2.154952e-02  -1.916309e-02  0 
 -2.784006e-02  -3.091808e-02  0 
 -3.648378e-02  -2.849658e-02  0 
 -5.117462e-02  -2.098217e-02  0 
 -5.120450e-02  -2.634617e-02  0 
 2.558650e-03  1.819926e-03  0 
 7.057818e-03  1.842048e-03  0 
 3.441996e-03  3.136354e-03  0 
 -4.581631e-02  -1.561733e-02  0 
 -4.046021e-02  -1.555269e-02  0 
 -3.499695e-02  -1.541836e-02  0 
 5.574909e-03  6.208544e-03  0 
 -2.045582e-02  -1.732387e-02  0 
 -4.021077e-03  1.135085e-03  0 
 -2.978782e-02  -1.091305e-02  0 
 -4.165254e-02  -1.847372e-02  0 
 -2.355160e-02  -7.847884e-03  0 
 -1.110176e-02  2.082357e-03  0 
 -1.923033e-02  -6.459879e-03  0 
 -4.541686e-03  -6.242193e-03  0 
 -3.438025e-02  -1.491318e-02  0 
 -3.318527e-02  -2.333343e-02  0 
 -2.894811e-02  -1.062305e-02  0 
 -5.143898e-03  2.647215e-03  0 
 -1.161623e-02  -1.562115e-02  0 
 -4.536033e-02  -2.549471e-02  0 
 -3.703747e-02  -2.014203e-02  0 
 -3.849673e-02  -2.632605e-02  0 
 -4.262098e-02  -2.024772e-02  0 
 -4.788209e-02  -2.070997e-02  0 
VECTORS displacement_ITER4 FLOAT
 -2.565238e-03  5.404558e-03  0 
 -2.333374e-02  -8.947036e-03  0 
 -9.097521e-03  -5.971657e-03  0 
 -1.385836e-02  -1.198907e-02  0 
 -1.819360e-02  -1.226179e-02  0 
 -2.333621e-02  -1.131323e-02  0 
 -2.332767e-02  -1.369077e-02  0 
 3.061633e-03  6.055811e-03  0 
 -5.437885e-03  6.056899e-03  0 
 -9.677167e-04  9.600977e-04  0 
 -2.097080e-02  -8.930738e-03  0 
 -1.855864e-02  -8.833638e-03  0 
 -1.589233e-02  -8.645183e-03  0 
 -2.588566e-03  -2.181323e-03  0 
 -1.071002e-02  -4.402908e-03  0 
 -4.226623e-03  -2.965939e-04  0 
 -1.287479e-02  -6.933333e-03  0 
 -1.947101e-02  -9.256271e-03  0 
 -9.481053e-03  -6.688737e-03  0 
 -5.072098e-03  -2.468030e-03  0 
 -8.475513e-03  -3.624951e-03  0 
 -5.062715e-03  3.047667e-03  0 
 -1.548644e-02  -7.685426e-03  0 
 -1.635786e-02  -9.345376e-03  0 
 -1.170430e-02  -7.126379e-03  0 
 -3.081006e-03  -1.077157e-03  0 
 -4.850919e-03  -2.816229e-03  0 
 -2.078067e-02  -1.330693e-02  0 
 -1.697414e-02  -1.095026e-02  0 
 -1.770138e-02  -1.373223e-02  0 
 -1.955899e-02  -1.099520e-02  0 
 -2.188388e-02  -1.120329e-02  0 
VECTORS displacement_ITER5 FLOAT
 4.088966e-03  2.742104e-03  0 
 -1.225505e-02  -7.146770e-04  0 
 -1.484589e-03  -1.657873e-03  0 
 -5.081884e-03  -3.729492e-03  0 
 -7.790088e-03  -3.982313e-03  0 
 -1.226791e-02  -2.888777e-03  0 
 -1.227111e-02  -5.097872e-03  0 
 3.757101e-04  3.031246e-03  0 
 4.693683e-03  3.040528e-03  0 
 -2.990760e-03  -4.553884e-03  0 
 -1.010169e-02  -7.178143e-04  0 
 -7.930181e-03  -6.446062e-04  0 
 -5.598116e-03  -4.544849e-04  0 
 3.255577e-03  7.238090e-03  0 
 -2.702282e-03  -5.283181e-04  0 
 4.395987e-04  2.633006e-03  0 
 -5.052184e-03  2.435673e-04  0 
 -9.003953e-03  -1.106124e-03  0 
 -4.307004e-03  -3.788682e-04  0 
 -2.174030e-03  2.868386e-03  0 
 -3.308718e-03  1.401350e-03  0 
 5.124561e-04  5.822014e-04  0 
 -6.570929e-03  1.598682e-04  0 
 -6.373415e-03  -2.157027e-03  0 
 -5.218477e-03  -8.752593e-04  0 
 -4.125993e-03  -1.437003e-03  0 
 -6.747304e-04  9.707559e-04  0 
 -9.910211e-03  -4.707412e-03  0 
 -6.538982e-03  -2.516493e-03  0 
 -7.174964e-03  -5.061702e-03  0 
 -8.822910e-03  -2.590824e-03  0 
 -1.092424e-02  -2.777394e-03  0 
VECTORS displacement_ITER6 FLOAT
 1.718714e-03  3.584906e-03  0 
 -5.583576e-03  -4.386371e-04  0 
 -7.398663e-04  -6.715056e-04  0 
 -2.132089e-03  -2.048946e-03  0 
 -3.555286e-03  -1.858784e-03  0 
 -5.592497e-03  -1.350604e-03  0 
 -5.606346e-03  -2.265885e-03  0 
 -8.927343e-04  -1.336664e-03  0 
 -6.424384e-05  -1.322416e-03  0 
 8.077011e-04  8.395443e-04  0 
 -4.679044e-03  -4.411791e-04  0 
 -3.778371e-03  -4.532405e-04  0 
 -2.893500e-03  -4.177575e-04  0 
 -3.377686e-04  -5.257024e-04  0 
 -1.296323e-03  -4.823106e-05  0 
 -1.041431e-03  -3.223434e-04  0 
 -2.656459e-03  8.788849e-05  0 
 -4.179940e-03  -5.541167e-04  0 
 -1.852971e-03  3.270714e-04  0 
 -1.648125e-03  6.174486e-05  0 
 -1.976007e-03  3.606272e-04  0 
 -9.159503e-04  -7.888492e-04  0 
 -3.086674e-03  8.084411e-05  0 
 -3.008145e-03  -9.733275e-04  0 
 -2.300737e-03  -1.099005e-04  0 
 -3.885972e-04  7.295246e-04  0 
 2.722425e-04  2.526106e-04  0 
 -4.580298e-03  -2.131866e-03  0 
 -3.222130e-03  -1.213589e-03  0 
 -3.449827e-03  -2.250694e-03  0 
 -4.129277e-03  -1.235083e-03  0 
 -5.026444e-03  -1.300447e-03  0 
VECTORS displacement_ITER7 FLOAT
 1.278790e-03  1.097140e-03  0 
 -3.891934e-03  -1.114161e-03  0 
 -7.231051e-04  -6.460876e-04  0 
 -1.983997e-03  -1.403326e-03  0 
 -2.861737e-03  -1.652170e-03  0 
 -3.884737e-03  -1.652229e-03  0 
 -3.871698e-03  -2.183235e-03  0 
 -3.089586e-04  3.215646e-04  0 
 -6.635763e-04  3.446845e-04  0 
 -1.690481e-04  -3.175840e-04  0 
 -3.350907e-03  -1.103789e-03  0 
 -2.771006e-03  -1.050920e-03  0 
 -2.125582e-03  -9.757402e-04  0 
 -5.401494e-04  -1.374416e-05  0 
 -1.347024e-03  -1.556129e-04  0 
 -6.720497e-04  -2.343299e-04  0 
 -1.778722e-03  -5.152001e-04  0 
 -3.066040e-03  -1.065949e-03  0 
 -1.040286e-03  -2.789414e-04  0 
 -8.757025e-04  -4.936480e-04  0 
 -1.159200e-03  -1.191633e-04  0 
 -8.312242e-04  2.007421e-04  0 
 -2.251613e-03  -6.462474e-04  0 
 -2.410190e-03  -1.015055e-03  0 
 -1.192590e-03  -5.676520e-04  0 
 -6.269128e-04  -3.632901e-04  0 
 -4.048577e-04  2.727721e-04  0 
 -3.291357e-03  -2.141048e-03  0 
 -2.375963e-03  -1.585708e-03  0 
 -2.542954e-03  -2.320721e-03  0 
 -3.020564e-03  -1.593812e-03  0 
 -3.560450e-03  -1.634561e-03  0 
VECTORS displacement_ITER8 FLOAT
 1.648960e-04  1.213847e-04  0 
 -3.590140e-03  -1.113505e-03  0 
 -9.410539e-04  -1.168802e-03  0 
 -1.766075e-03  -1.778638e-03  0 
 -2.537791e-03  -1.782044e-03  0 
 -3.591874e-03  -1.641066e-03  0 
 -3.590635e-03  -2.175812e-03  0 
 1.197777e-04  -2.574950e-05  0 
 5.188597e-05  3.689628e-06  0 
 -2.195578e-04  3.538345e-04  0 
 -3.070157e-03  -1.114897e-03  0 
 -2.539227e-03  -1.085196e-03  0 
 -1.955557e-03  -9.996728e-04  0 
 8.149523e-05  -8.373785e-05  0 
 -1.285974e-03  -7.220883e-04  0 
 -6.434063e-04  5.491417e-07  0 
 -1.678941e-03  -6.498368e-04  0 
 -2.819445e-03  -1.131625e-03  0 
 -1.042341e-03  -4.213246e-04  0 
 -8.211063e-04  -3.575549e-04  0 
 -1.168292e-03  -1.902852e-04  0 
 -4.412056e-04  -1.728249e-04  0 
 -2.183527e-03  -7.845025e-04  0 
 -2.203179e-03  -1.276657e-03  0 
 -1.235935e-03  -7.055991e-04  0 
 -5.496803e-04  2.287710e-05  0 
 -5.223251e-04  -6.237610e-04  0 
 -3.012540e-03  -2.093288e-03  0 
 -2.188850e-03  -1.570224e-03  0 
 -2.336239e-03  -2.216127e-03  0 
 -2.758177e-03  -1.576937e-03  0 
 -3.266770e-03  -1.615296e-03  0 
VECTORS displacement_ITER9 FLOAT
 -1.843179e-05  -2.059596e-04  0 
 -3.300873e-03  -1.331730e-03  0 
 -1.081148e-03  -1.123854e-03  0 
 -1.856537e-03  -1.666363e-03  0 
 -2.466905e-03  -1.817259e-03  0 
 -3.300964e-03  -1.806738e-03  0 
 -3.298555e-03  -2.284717e-03  0 
 -1.348253e-04  1.909185e-04  0 
 -9.879091e-05  2.122031e-04  0 
 2.829453e-05  4.687178e-05  0 
 -2.830204e-03  -1.330903e-03  0 
 -2.350741e-03  -1.306293e-03  0 
 -1.805173e-03  -1.216535e-03  0 
 -1.078173e-04  2.341812e-04  0 
 -1.331406e-03  -8.276223e-04  0 
 -4.304395e-04  -2.185857e-04  0 
 -1.519951e-03  -8.181353e-04  0 
 -2.631268e-03  -1.329561e-03  0 
 -8.915858e-04  -5.090053e-04  0 
 -6.131766e-04  -5.912796e-04  0 
 -9.587227e-04  -4.476876e-04  0 
 -5.262718e-04  -1.842623e-04  0 
 -2.015256e-03  -1.042646e-03  0 
 -2.126230e-03  -1.374598e-03  0 
 -1.129056e-03  -7.555803e-04  0 
 -3.631367e-04  -2.213712e-04  0 
 -7.931343e-04  -5.789719e-04  0 
 -2.778129e-03  -2.219208e-03  0 
 -2.031889e-03  -1.749859e-03  0 
 -2.161193e-03  -2.327970e-03  0 
 -2.546339e-03  -1.750234e-03  0 
 -3.009393e-03  -1.784908e-03  0 
VECTORS displacement_ITER10 FLOAT
 -1.514321e-04  -2.269803e-04  0 
 -3.387531e-03  -1.200053e-03  0 
 -1.069507e-03  -1.187662e-03  0 
 -1.803073e-03  -1.709216e-03  0 
 -2.479450e-03  -1.746957e-03  0 
 -3.385849e-03  -1.670458e-03  0 
 -3.380446e-03  -2.142151e-03  0 
 5.396052e-05  3.503939e-05  0 
 -8.841496e-05  5.312592e-05  0 
 -4.509671e-04  9.823036e-05  0 
 -2.918211e-03  -1.196206e-03  0 
 -2.439315e-03  -1.169759e-03  0 
 -1.900544e-03  -1.085965e-03  0 
 -3.822802e-05  -9.892975e-05  0 
 -1.361597e-03  -7.771101e-04  0 
 -6.118229e-04  1.654288e-05  0 
 -1.580308e-03  -7.287537e-04  0 
 -2.705021e-03  -1.195930e-03  0 
 -8.165932e-04  -4.228976e-04  0 
 -6.226165e-04  -2.944002e-04  0 
 -1.101722e-03  -2.227503e-04  0 
 -5.002681e-04  -1.311188e-04  0 
 -2.130139e-03  -8.881067e-04  0 
 -2.170996e-03  -1.294339e-03  0 
 -1.273495e-03  -5.240378e-04  0 
 -5.296432e-04  -1.894231e-04  0 
 -7.131837e-04  -7.052883e-04  0 
 -2.869380e-03  -2.084072e-03  0 
 -2.121981e-03  -1.609167e-03  0 
 -2.249196e-03  -2.193064e-03  0 
 -2.635928e-03  -1.612540e-03  0 
 -3.098612e-03  -1.650592e-03  0 
VECTORS displacement_ITER11 FLOAT
 -1.878021e-05  -6.407904e-05  0 
 -3.337271e-03  -1.210862e-03  0 
 -1.013688e-03  -1.167777e-03  0 
 -1.758036e-03  -1.723267e-03  0 
 -2.430296e-03  -1.769835e-03  0 
 -3.336647e-03  -1.665548e-03  0 
 -3.333298e-03  -2.121930e-03  0 
 -3.493002e-05  -5.577388e-05  0 
 -5.439218e-05  -3.505150e-05  0 
 -1.547647e-04  -2.364671e-05  0 
 -2.886047e-03  -1.208953e-03  0 
 -2.422519e-03  -1.182253e-03  0 
 -1.899152e-03  -1.098545e-03  0 
 -4.366722e-05  -6.972594e-05  0 
 -1.294722e-03  -7.944366e-04  0 
 -5.155124e-04  -7.685752e-05  0 
 -1.647051e-03  -6.785610e-04  0 
 -2.662212e-03  -1.212685e-03  0 
 -1.107375e-03  -4.057028e-04  0 
 -7.292885e-04  -1.762132e-04  0 
 -1.129776e-03  -2.927333e-04  0 
 -5.054263e-04  -2.528421e-04  0 
 -2.087419e-03  -8.843009e-04  0 
 -2.117330e-03  -1.314439e-03  0 
 -1.298233e-03  -6.500846e-04  0 
 -5.210104e-04  -7.954440e-05  0 
 -6.486285e-04  -6.697862e-04  0 
 -2.834864e-03  -2.064426e-03  0 
 -2.114182e-03  -1.609985e-03  0 
 -2.239228e-03  -2.176924e-03  0 
 -2.613134e-03  -1.612464e-03  0 
 -3.058208e-03  -1.645373e-03  0 
VECTORS displacement_ITER12 FLOAT
 -2.162116e-05  -7.094433e-05  0 
 -3.340328e-03  -1.205976e-03  0 
 -1.012213e-03  -1.173381e-03  0 
 -1.755539e-03  -1.726548e-03  0 
 -2.429345e-03  -1.768633e-03  0 
 -3.339783e-03  -1.662905e-03  0 
 -3.336434e-03  -2.121869e-03  0 
 -2.980084e-05  -6.280119e-05  0 
 -5.472129e-05  -4.359434e-05  0 
 -1.372124e-04  -1.440026e-05  0 
 -2.887083e-03  -1.204229e-03  0 
 -2.421710e-03  -1.177125e-03  0 
 -1.896630e-03  -1.093097e-03  0 
 -4.076005e-05  -8.463690e-05  0 
 -1.294689e-03  -7.951876e-04  0 
 -5.162986e-04  -8.405025e-05  0 
 -1.651136e-03  -6.905187e-04  0 
 -2.663562e-03  -1.208445e-03  0 
 -1.100151e-03  -3.980173e-04  0 
 -7.526750e-04  -1.587001e-04  0 
 -1.134940e-03  -2.805373e-04  0 
 -5.029423e-04  -2.575382e-04  0 
 -2.091796e-03  -8.820030e-04  0 
 -2.117971e-03  -1.313983e-03  0 
 -1.328618e-03  -6.842678e-04  0 
 -5.179484e-04  -7.534646e-05  0 
 -6.462325e-04  -6.771717e-04  0 
 -2.835914e-03  -2.062981e-03  0 
 -2.111668e-03  -1.607414e-03  0 
 -2.237377e-03  -2.176288e-03  0 
 -2.613160e-03  -1.609405e-03  0 
 -3.059898e-03  -1.642551e-03  0 
VECTORS displacement_ITER13 FLOAT
 -2.307024e-05  -7.278610e-05  0 
 -3.340229e-03  -1.205169e-03  0 
 -1.012450e-03  -1.172858e-03  0 
 -1.755420e-03  -1.724961e-03  0 
 -2.429388e-03  -1.767098e-03  0 
 -3.339713e-03  -1.662393e-03  0 
 -3.336422e-03  -2.121662e-03  0 
 -3.009302e-05  -6.295634e-05  0 
 -5.548371e-05  -4.326018e-05  0 
 -1.388553e-04  -1.581343e-05  0 
 -2.886740e-03  -1.203471e-03  0 
 -2.421084e-03  -1.176409e-03  0 
 -1.895849e-03  -1.092452e-03  0 
 -4.089709e-05  -8.463352e-05  0 
 -1.295076e-03  -7.940514e-04  0 
 -5.177970e-04  -8.327630e-05  0 
 -1.649159e-03  -6.875680e-04  0 
 -2.663440e-03  -1.207078e-03  0 
 -1.099032e-03  -3.998174e-04  0 
 -7.548740e-04  -1.599574e-04  0 
 -1.134902e-03  -2.792108e-04  0 
 -5.034300e-04  -2.566566e-04  0 
 -2.091559e-03  -8.801270e-04  0 
 -2.117897e-03  -1.312269e-03  0 
 -1.322345e-03  -6.762617e-04  0 
 -5.136089e-04  -6.821831e-05  0 
 -6.469465e-04  -6.770250e-04  0 
 -2.835466e-03  -2.062676e-03  0 
 -2.110918e-03  -1.606857e-03  0 
 -2.236785e-03  -2.175970e-03  0 
 -2.612638e-03  -1.608908e-03  0 
 -3.059622e-03  -1.641997e-03  0 
VECTORS displacement_ITER14 FLOAT
 -2.280555e-05  -7.249844e-05  0 
 -3.340519e-03  -1.205033e-03  0 
 -1.012338e-03  -1.172738e-03  0 
 -1.755447e-03  -1.724835e-03  0 
 -2.429539e-03  -1.766935e-03  0 
 -3.339997e-03  -1.662311e-03  0 
 -3.336688e-03  -2.121640e-03  0 
 -3.007261e-05  -6.299602e-05  0 
 -5.544354e-05  -4.329603e-05  0 
 -1.387160e-04  -1.677342e-05  0 
 -2.886963e-03  -1.203324e-03  0 
 -2.421263e-03  -1.176254e-03  0 
 -1.895922e-03  -1.092288e-03  0 
 -4.090117e-05  -8.463442e-05  0 
 -1.295069e-03  -7.936800e-04  0 
 -5.178087e-04  -8.329320e-05  0 
 -1.649613e-03  -6.876959e-04  0 
 -2.663662e-03  -1.206808e-03  0 
 -1.099104e-03  -3.987726e-04  0 
 -7.567265e-04  -1.580128e-04  0 
 -1.135354e-03  -2.779716e-04  0 
 -5.033545e-04  -2.566093e-04  0 
 -2.091945e-03  -8.797366e-04  0 
 -2.118038e-03  -1.312048e-03  0 
 -1.321413e-03  -6.787205e-04  0 
 -5.131185e-04  -6.743765e-05  0 
 -6.467921e-04  -6.768350e-04  0 
 -2.835718e-03  -2.062635e-03  0 
 -2.111045e-03  -1.606768e-03  0 
 -2.236887e-03  -2.175964e-03  0 
 -2.612837e-03  -1.608793e-03  0 
 -3.059877e-03  -1.641919e-03  0 
CELL_DATA 43
TENSORS element_stresses FLOAT
 -1.442366e-03  3.221617e-02  0 
 3.221617e-02  7.836726e-02  0 
 0  0  0 

 -2.058276e-03  -4.604580e-04  0 
 -4.604580e-04  -5.113924e-04  0 
 0  0  0 

 -2.141553e-03  4.176764e-05  0 
 4.176764e-05  -3.066020e-04  0 
 0  0  0 

 -3.227176e-03  1.970728e-03  0 
 1.970728e-03  1.389139e-03  0 
 0  0  0 

 -2.437740e-03  1.408500e-03  0 
 1.408500e-03  -7.244851e-04  0 
 0  0  0 

 -2.213501e-03  -8.895231e-05  0 
 -8.895231e-05  -2.929913e-04  0 
 0  0  0 

 -2.085098e-03  -5.821675e-04  0 
 -5.821675e-04  3.419667e-05  0 
 0  0  0 

 -2.155821e-03  1.830015e-04  0 
 1.830015e-04  2.542947e-04  0 
 0  0  0 

 -2.487490e-03  -3.325172e-04  0 
 -3.325172e-04  1.011252e-03  0 
 0  0  0 

 -2.159287e-03  -4.651425e-04  0 
 -4.651425e-04  1.356833e-05  0 
 0  0  0 

 -2.864831e-03  -1.871171e-05  0 
 -1.871171e-05  8.525470e-04  0 
 0  0  0 

 -2.151294e-03  1.650619e-04  0 
 1.650619e-04  2.589458e-04  0 
 0  0  0 

 -2.288452e-03  -8.048514e-04  0 
 -8.048514e-04  -6.077357e-04  0 
 0  0  0 

 -2.419208e-03  4.924259e-04  0 
 4.924259e-04  -6.174825e-04  0 
 0  0  0 

 -2.029188e-03  9.293009e-04  0 
 9.293009e-04  7.005503e-04  0 
 0  0  0 

 -2.184548e-03  -1.185893e-04  0 
 -1.185893e-04  -4.989837e-04  0 
 0  0  0 

 -1.408325e-03  6.175501e-06  0 
 6.175501e-06  -4.149418e-04  0 
 0  0  0 

 -2.547266e-03  6.199775e-04  0 
 6.199775e-04  2.346247e-03  0 
 0  0  0 

 -2.146400e-03  1.068513e-04  0 
 1.068513e-04  -4.760049e-05  0 
 0  0  0 

 -2.155101e-03  -5.997936e-04  0 
 -5.997936e-04  -6.395569e-04  0 
 0  0  0 

 -2.816289e-03  2.248967e-04  0 
 2.248967e-04  1.752566e-03  0 
 0  0  0 

 -2.947720e-03  1.632473e-03  0 
 1.632473e-03  9.355483e-04  0 
 0  0  0 

 -1.351326e-03  -5.620094e-04  0 
 -5.620094e-04  -4.336937e-04  0 
 0  0  0 

 -1.353674e-03  4.865614e-04  0 
 4.865614e-04  1.474794e-05  0 
 0  0  0 

 -2.088517e-03  1.971848e-04  0 
 1.971848e-04  2.026171e-03  0 
 0  0  0 

 -2.763200e-03  2.840100e-04  0 
 2.840100e-04  2.473182e-03  0 
 0  0  0 

 -3.396743e-03  -1.788118e-03  0 
 -1.788118e-03  1.871286e-03  0 
 0  0  0 

 -2.843840e-03  -1.991701e-03  0 
 -1.991701e-03  -8.151423e-04  0 
 0  0  0 

 -2.258772e-03  -4.404401e-05  0 
 -4.404401e-05  2.378888e-03  0 
 0  0  0 

 -2.840841e-03  -7.994568e-04  0 
 -7.994568e-04  7.364238e-04  0 
 0  0  0 

 -2.169792e-03  -1.214762e-03  0 
 -1.214762e-03  8.875636e-04  0 
 0  0  0 

 -2.849433e-03  -7.436498e-04  0 
 -7.436498e-04  2.264236e-03  0 
 0  0  0 

 -2.559646e-02  -1.189284e-01  0 
 -1.189284e-01  3.281849e-01  0 
 0  0  0 

 -1.014181e-03  -4.931402e-02  0 
 -4.931402e-02  -1.376659e-02  0 
 0  0  0 

 2.458287e-02  -4.695534e-02  0 
 -4.695534e-02  -1.071982e-01  0 
 0  0  0 

 -2.453212e-03  -3.807402e-02  0 
 -3.807402e-02  -1.404247e-02  0 
 0  0  0 

 4.787275e-03  -5.893757e-02  0 
 -5.893757e-02  1.097160e-01  0 
 0  0  0 

 2.879741e-04  -6.048477e-03  0 
 -6.048477e-03  -5.999521e-03  0 
 0  0  0 

 9.530524e-03  -1.786791e-02  0 
 -1.786791e-02  9.696112e-03  0 
 0  0  0 

 1.233058e-02  -1.170850e-02  0 
 -1.170850e-02  -3.008570e-03  0 
 0  0  0 

 3.484701e-02  -3.687622e-02  0 
 -3.687622e-02  -1.297407e-02  0 
 0  0  0 

 -5.008357e-04  -2.768157e-02  0 
 -2.768157e-02  -2.233373e-02  0 
 0  0  0 

 1.474663e-02  -1.072184e-02  0 
 -1.072184e-02  -3.397777e-02  0 
 0  0  0 

TENSORS element_stresses FLOAT
 -1.442366e-03  3.221617e-02  0 
 3.221617e-02  7.836726e-02  0 
 0  0  0 

 -2.058276e-03  -4.604580e-04  0 
 -4.604580e-04  -5.113924e-04  0 
 0  0  0 

 -2.141553e-03  4.176764e-05  0 
 4.176764e-05  -3.066020e-04  0 
 0  0  0 

 -3.227176e-03  1.970728e-03  0 
 1.970728e-03  1.389139e-03  0 
 0  0  0 

 -2.437740e-03  1.408500e-03  0 
 1.408500e-03  -7.244851e-04  0 
 0  0  0 

 -2.213501e-03  -8.895231e-05  0 
 -8.895231e-05  -2.929913e-04  0 
 0  0  0 

 -2.085098e-03  -5.821675e-04  0 
 -5.821675e-04  3.419667e-05  0 
 0  0  0 

 -2.155821e-03  1.830015e-04  0 
 1.830015e-04  2.542947e-04  0 
 0  0  0 

 -2.487490e-03  -3.325172e-04  0 
 -3.325172e-04  1.011252e-03  0 
 0  0  0 

 -2.159287e-03  -4.651425e-04  0 
 -4.651425e-04  1.356833e-05  0 
 0  0  0 

 -2.864831e-03  -1.871171e-05  0 
 -1.871171e-05  8.525470e-04  0 
 0  0  0 

 -2.151294e-03  1.650619e-04  0 
 1.650619e-04  2.589458e-04  0 
 0  0  0 

 -2.288452e-03  -8.048514e-04  0 
 -8.048514e-04  -6.077357e-04  0 
 0  0  0 

 -2.419208e-03  4.924259e-04  0 
 4.924259e-04  -6.174825e-04  0 
 0  0  0 

 -2.029188e-03  9.293009e-04  0 
 9.293009e-04  7.005503e-04  0 
 0  0  0 

 -2.184548e-03  -1.185893e-04  0 
 -1.185893e-04  -4.989837e-04  0 
 0  0  0 

 -1.408325e-03  6.175501e-06  0 
 6.175501e-06  -4.149418e-04  0 
 0  0  0 

 -2.547266e-03  6.199775e-04  0 
 6.199775e-04  2.346247e-03  0 
 0  0  0 

 -2.146400e-03  1.068513e-04  0 
 1.068513e-04  -4.760049e-05  0 
 0  0  0 

 -2.155101e-03  -5.997936e-04  0 
 -5.997936e-04  -6.395569e-04  0 
 0  0  0 

 -2.816289e-03  2.248967e-04  0 
 2.248967e-04  1.752566e-03  0 
 0  0  0 

 -2.947720e-03  1.632473e-03  0 
 1.632473e-03  9.355483e-04  0 
 0  0  0 

 -1.351326e-03  -5.620094e-04  0 
 -5.620094e-04  -4.336937e-04  0 
 0  0  0 

 -1.353674e-03  4.865614e-04  0 
 4.865614e-04  1.474794e-05  0 
 0  0  0 

 -2.088517e-03  1.971848e-04  0 
 1.971848e-04  2.026171e-03  0 
 0  0  0 

 -2.763200e-03  2.840100e-04  0 
 2.840100e-04  2.473182e-03  0 
 0  0  0 

 -3.396743e-03  -1.788118e-03  0 
 -1.788118e-03  1.871286e-03  0 
 0  0  0 

 -2.843840e-03  -1.991701e-03  0 
 -1.991701e-03  -8.151423e-04  0 
 0  0  0 

 -2.258772e-03  -4.404401e-05  0 
 -4.404401e-05  2.378888e-03  0 
 0  0  0 

 -2.840841e-03  -7.994568e-04  0 
 -7.994568e-04  7.364238e-04  0 
 0  0  0 

 -2.169792e-03  -1.214762e-03  0 
 -1.214762e-03  8.875636e-04  0 
 0  0  0 

 -2.849433e-03  -7.436498e-04  0 
 -7.436498e-04  2.264236e-03  0 
 0  0  0 

 -2.559646e-02  -1.189284e-01  0 
 -1.189284e-01  3.281849e-01  0 
 0  0  0 

 -1.014181e-03  -4.931402e-02  0 
 -4.931402e-02  -1.376659e-02  0 
 0  0  0 

 2.458287e-02  -4.695534e-02  0 
 -4.695534e-02  -1.071982e-01  0 
 0  0  0 

 -2.453212e-03  -3.807402e-02  0 
 -3.807402e-02  -1.404247e-02  0 
 0  0  0 

 4.787275e-03  -5.893757e-02  0 
 -5.893757e-02  1.097160e-01  0 
 0  0  0 

 2.879741e-04  -6.048477e-03  0 
 -6.048477e-03  -5.999521e-03  0 
 0  0  0 

 9.530524e-03  -1.786791e-02  0 
 -1.786791e-02  9.696112e-03  0 
 0  0  0 

 1.233058e-02  -1.170850e-02  0 
 -1.170850e-02  -3.008570e-03  0 
 0  0  0 

 3.484701e-02  -3.687622e-02  0 
 -3.687622e-02  -1.297407e-02  0 
 0  0  0 

 -5.008357e-04  -2.768157e-02  0 
 -2.768157e-02  -2.233373e-02  0 
 0  0  0 

 1.474663e-02  -1.072184e-02  0 
 -1.072184e-02  -3.397777e-02  0 
 0  0  0 

