# vtk DataFile Version 3.1
this is an vtk file created by FEMAC
ASCII
DATASET UNSTRUCTURED_GRID
POINTS 21 FLOAT
5.000000 0.000000 0.000000
5.000000 1.000000 0.000000
4.666667 0.000000 0.000000
4.333333 1.000000 0.000000
4.666667 1.000000 0.000000
5.000000 0.333333 0.000000
5.000000 0.666667 0.000000
5.000000 1.333333 0.000000
5.333333 1.000000 0.000000
4.795795 0.775322 0.000000
4.784455 0.474242 0.000000
4.498790 0.682145 0.000000
4.502629 0.281947 0.000000
4.790750 0.217904 0.000000
4.472948 1.265001 0.000000
4.285974 1.523802 0.000000
4.690581 1.518186 0.000000
4.759097 1.220626 0.000000
4.214413 1.238185 0.000000
5.200855 0.783178 0.000000
5.214413 1.238185 0.000000
CELLS 25 100 
3 4 9 1
3 9 6 1
3 11  9  4
3 3 11  4
3 10  6  9
3 6 10  5
3 10  9 11
3 13  2  0
3 13  5 10
3 13 12  2
3 10 12 13
3 10 11 12
3 16 15 14
3 4 14  3
3 7 17  1
3 17  7 16
3 17  4  1
3 17 14  4
3 16 14 17
3 18  3 14
3 14 15 18
3 6 19  1
3 19  8  1
3 8 20  1
3 20  7  1
CELL_TYPES 25
5 5 5 5 5 5 5 5 5 5 5 5 5 5 5 5 5 5 5 5 5 5 5 5 5 
POINT_DATA 21
VECTORS displacement_ITER1 FLOAT
 -9.691698e-02  -4.128441e-01  0 
 3.861841e-02  -4.126999e-01  0 
 -9.692024e-02  -3.676001e-01  0 
 3.868634e-02  -3.224277e-01  0 
 3.867311e-02  -3.675838e-01  0 
 -5.168107e-02  -4.128187e-01  0 
 -6.488727e-03  -4.127729e-01  0 
 6.386174e-02  -4.126444e-01  0 
 3.856187e-02  -4.379589e-01  0 
 8.244252e-03  -3.850950e-01  0 
 -3.256353e-02  -3.835832e-01  0 
 -4.357638e-03  -3.448344e-01  0 
 -5.865624e-02  -3.453489e-01  0 
 -6.734237e-02  -3.844427e-01  0 
 6.539829e-02  -3.476964e-01  0 
 9.136384e-02  -3.307711e-01  0 
 9.206949e-02  -3.722693e-01  0 
 5.865201e-02  -3.840536e-01  0 
 5.995087e-02  -3.194133e-01  0 
 1.195684e-02  -4.335724e-01  0 
 5.663055e-02  -4.289118e-01  0 
VECTORS displacement_ITER2 FLOAT
 -5.276013e-02  -1.105873e-01  0 
 -1.888516e-03  -1.103783e-01  0 
 -5.275680e-02  -9.351816e-02  0 
 -1.765926e-03  -7.671198e-02  0 
 -1.803499e-03  -9.358572e-02  0 
 -3.569536e-02  -1.105488e-01  0 
 -1.870368e-02  -1.104881e-01  0 
 -2.509840e-03  -1.102367e-01  0 
 -1.965069e-03  -1.097265e-01  0 
 -1.319552e-02  -1.001378e-01  0 
 -2.849525e-02  -9.954329e-02  0 
 -1.794139e-02  -8.504515e-02  0 
 -3.832271e-02  -8.514272e-02  0 
 -4.159917e-02  -9.986795e-02  0 
 3.487756e-03  -8.964063e-02  0 
 8.348075e-03  -8.769079e-02  0 
 9.422831e-03  -9.623859e-02  0 
 6.591399e-04  -1.018345e-01  0 
 4.865747e-04  -8.256813e-02  0 
 -1.055307e-02  -1.150510e-01  0 
 -2.381806e-03  -1.098941e-01  0 
VECTORS displacement_ITER3 FLOAT
 -3.037908e-02  -3.511023e-02  0 
 3.227101e-03  -3.510647e-02  0 
 -3.038734e-02  -2.391006e-02  0 
 3.383844e-03  -1.270092e-02  0 
 3.316537e-03  -2.394983e-02  0 
 -1.914862e-02  -3.517859e-02  0 
 -7.901441e-03  -3.515632e-02  0 
 -6.211322e-03  -3.502888e-02  0 
 3.143646e-03  -2.570697e-02  0 
 -4.259757e-03  -2.831153e-02  0 
 -1.439190e-02  -2.789735e-02  0 
 -7.408908e-03  -1.829738e-02  0 
 -2.090624e-02  -1.835476e-02  0 
 -2.306140e-02  -2.808850e-02  0 
 2.692914e-03  -2.380821e-02  0 
 1.827149e-03  -2.622234e-02  0 
 3.250094e-03  -2.605045e-02  0 
 4.101725e-04  -3.102980e-02  0 
 -4.181246e-05  -2.211841e-02  0 
 -1.683159e-03  -3.527648e-02  0 
 -3.547578e-03  -2.899758e-02  0 
VECTORS displacement_ITER4 FLOAT
 -1.187320e-02  -1.659961e-02  0 
 -1.494667e-03  -1.656506e-02  0 
 -1.187535e-02  -1.312772e-02  0 
 -1.297582e-03  -9.625002e-03  0 
 -1.390268e-03  -1.316188e-02  0 
 -8.387248e-03  -1.664039e-02  0 
 -4.888603e-03  -1.663279e-02  0 
 2.620066e-04  -1.643260e-02  0 
 -1.581534e-03  -1.829540e-02  0 
 -3.768434e-03  -1.453255e-02  0 
 -6.908112e-03  -1.437502e-02  0 
 -4.766344e-03  -1.142344e-02  0 
 -8.940975e-03  -1.138977e-02  0 
 -9.609415e-03  -1.442618e-02  0 
 -3.150349e-04  -1.525545e-02  0 
 -8.803000e-04  -1.711800e-02  0 
 3.502876e-04  -1.714137e-02  0 
 1.343615e-04  -1.610014e-02  0 
 -1.930758e-03  -1.444714e-02  0 
 -3.682148e-03  -1.888603e-02  0 
 -2.842202e-04  -1.761701e-02  0 
VECTORS displacement_ITER5 FLOAT
 -1.175112e-02  -1.471350e-02  0 
 -2.707351e-03  -1.457692e-02  0 
 -1.172898e-02  -1.164330e-02  0 
 -2.517521e-03  -8.557101e-03  0 
 -2.603681e-03  -1.163371e-02  0 
 -8.692679e-03  -1.467045e-02  0 
 -5.653703e-03  -1.465976e-02  0 
 -1.061415e-03  -1.442822e-02  0 
 -2.796572e-03  -1.616894e-02  0 
 -4.674825e-03  -1.283027e-02  0 
 -7.407711e-03  -1.270292e-02  0 
 -5.543394e-03  -1.012008e-02  0 
 -9.152144e-03  -1.013478e-02  0 
 -9.739619e-03  -1.276980e-02  0 
 -1.764591e-03  -1.400934e-02  0 
 -2.675127e-03  -1.617208e-02  0 
 -1.406693e-03  -1.565004e-02  0 
 -1.208362e-03  -1.440878e-02  0 
 -3.363911e-03  -1.353290e-02  0 
 -3.234193e-03  -1.821292e-02  0 
 -1.582648e-03  -1.554062e-02  0 
VECTORS displacement_ITER6 FLOAT
 -9.611844e-03  -1.339387e-02  0 
 -2.641032e-03  -1.325802e-02  0 
 -9.605505e-03  -1.105215e-02  0 
 -2.494787e-03  -8.706814e-03  0 
 -2.548643e-03  -1.103285e-02  0 
 -7.256939e-03  -1.341658e-02  0 
 -4.895164e-03  -1.337659e-02  0 
 -1.980354e-03  -1.309422e-02  0 
 -2.724867e-03  -1.384450e-02  0 
 -4.128995e-03  -1.195248e-02  0 
 -6.251664e-03  -1.187404e-02  0 
 -4.789668e-03  -9.859761e-03  0 
 -7.618731e-03  -9.880424e-03  0 
 -8.075753e-03  -1.192152e-02  0 
 -2.286702e-03  -1.373259e-02  0 
 -3.424938e-03  -1.593097e-02  0 
 -2.373159e-03  -1.486799e-02  0 
 -1.721289e-03  -1.363461e-02  0 
 -3.733391e-03  -1.357309e-02  0 
 -2.901802e-03  -1.664781e-02  0 
 -2.225655e-03  -1.357629e-02  0 
VECTORS displacement_ITER7 FLOAT
 -8.992521e-03  -1.282816e-02  0 
 -3.226506e-03  -1.259591e-02  0 
 -8.977111e-03  -1.082138e-02  0 
 -3.100864e-03  -8.937401e-03  0 
 -3.138691e-03  -1.080797e-02  0 
 -6.993353e-03  -1.278185e-02  0 
 -5.047893e-03  -1.272487e-02  0 
 -2.917473e-03  -1.243381e-02  0 
 -3.316971e-03  -1.285986e-02  0 
 -4.418207e-03  -1.155796e-02  0 
 -6.156933e-03  -1.150490e-02  0 
 -4.951969e-03  -9.846358e-03  0 
 -7.289197e-03  -9.852239e-03  0 
 -7.673561e-03  -1.155646e-02  0 
 -2.832458e-03  -1.319667e-02  0 
 -2.966027e-03  -1.405819e-02  0 
 -2.745478e-03  -1.417987e-02  0 
 -2.457301e-03  -1.322041e-02  0 
 -3.813251e-03  -1.226451e-02  0 
 -3.004152e-03  -1.506488e-02  0 
 -3.058075e-03  -1.269260e-02  0 
VECTORS displacement_ITER8 FLOAT
 -8.349057e-03  -1.398313e-02  0 
 -4.090263e-03  -1.379032e-02  0 
 -8.334767e-03  -1.251380e-02  0 
 -3.945786e-03  -1.104691e-02  0 
 -4.000010e-03  -1.247936e-02  0 
 -6.873952e-03  -1.396627e-02  0 
 -5.427265e-03  -1.391489e-02  0 
 -3.882264e-03  -1.363363e-02  0 
 -4.186003e-03  -1.399175e-02  0 
 -4.957534e-03  -1.304850e-02  0 
 -6.250478e-03  -1.301344e-02  0 
 -5.352755e-03  -1.178075e-02  0 
 -7.098286e-03  -1.178225e-02  0 
 -7.382791e-03  -1.304904e-02  0 
 -3.472887e-03  -1.411295e-02  0 
 -2.497540e-03  -1.310050e-02  0 
 -3.045594e-03  -1.508608e-02  0 
 -3.353790e-03  -1.455231e-02  0 
 -3.751704e-03  -1.204136e-02  0 
 -3.850091e-03  -1.672051e-02  0 
 -3.981787e-03  -1.383644e-02  0 
VECTORS displacement_ITER9 FLOAT
 -8.422344e-03  -1.381814e-02  0 
 -3.771224e-03  -1.362319e-02  0 
 -8.407736e-03  -1.221133e-02  0 
 -3.620093e-03  -1.059599e-02  0 
 -3.679665e-03  -1.217787e-02  0 
 -6.815005e-03  -1.379897e-02  0 
 -5.239731e-03  -1.374760e-02  0 
 -3.413804e-03  -1.346006e-02  0 
 -3.866024e-03  -1.396890e-02  0 
 -4.727279e-03  -1.280106e-02  0 
 -6.137061e-03  -1.276335e-02  0 
 -5.157444e-03  -1.141987e-02  0 
 -7.058372e-03  -1.142595e-02  0 
 -7.365366e-03  -1.280071e-02  0 
 -3.291098e-03  -1.387458e-02  0 
 -2.893142e-03  -1.331676e-02  0 
 -3.033730e-03  -1.514713e-02  0 
 -3.010763e-03  -1.431086e-02  0 
 -3.678995e-03  -1.185776e-02  0 
 -3.624369e-03  -1.664738e-02  0 
 -3.560288e-03  -1.376073e-02  0 
CELL_DATA 25
TENSORS element_stresses FLOAT
 -2.089745e-01  1.299434e-01  0 
 1.299434e-01  2.190068e-01  0 
 0  0  0 

 -5.868518e-02  -2.393761e-02  0 
 -2.393761e-02  3.556169e-01  0 
 0  0  0 

 1.474065e-02  -1.656863e-02  0 
 -1.656863e-02  8.997306e-02  0 
 0  0  0 

 -1.562769e-01  -1.567388e-03  0 
 -1.567388e-03  7.480346e-02  0 
 0  0  0 

 -3.487900e-03  5.660533e-02  0 
 5.660533e-02  4.732064e-02  0 
 0  0  0 

 -1.055300e-02  1.685519e-02  0 
 1.685519e-02  1.509632e-01  0 
 0  0  0 

 -6.297110e-03  1.305024e-02  0 
 1.305024e-02  4.861511e-02  0 
 0  0  0 

 -3.491341e-02  -9.122951e-03  0 
 -9.122951e-03  2.970353e-02  0 
 0  0  0 

 -4.922828e-03  4.015073e-03  0 
 4.015073e-03  2.674821e-02  0 
 0  0  0 

 1.436684e-03  1.206181e-02  0 
 1.206181e-02  1.135415e-02  0 
 0  0  0 

 9.025597e-03  2.050636e-02  0 
 2.050636e-02  3.145165e-02  0 
 0  0  0 

 2.073744e-02  1.947903e-02  0 
 1.947903e-02  -2.390675e-02  0 
 0  0  0 

 -7.326137e-04  -2.492090e-03  0 
 -2.492090e-03  -1.343949e-03  0 
 0  0  0 

 -3.450815e-03  -2.623083e-03  0 
 -2.623083e-03  -1.090699e-02  0 
 0  0  0 

 -2.228448e-03  3.365388e-03  0 
 3.365388e-03  -1.791441e-04  0 
 0  0  0 

 -2.218283e-03  3.044453e-03  0 
 3.044453e-03  -2.468478e-03  0 
 0  0  0 

 -2.890189e-03  -9.146391e-04  0 
 -9.146391e-04  -8.718375e-03  0 
 0  0  0 

 -1.298994e-03  -2.907267e-04  0 
 -2.907267e-04  -8.867975e-03  0 
 0  0  0 

 2.195005e-05  -1.445529e-03  0 
 -1.445529e-03  -3.271988e-03  0 
 0  0  0 

 -1.286835e-03  -4.936418e-03  0 
 -4.936418e-03  -9.125719e-03  0 
 0  0  0 

 3.033345e-04  -3.866322e-03  0 
 -3.866322e-03  -3.146867e-03  0 
 0  0  0 

 6.152600e-03  -7.883211e-03  0 
 -7.883211e-03  2.219002e-03  0 
 0  0  0 

 3.968906e-03  -1.521468e-03  0 
 -1.521468e-03  1.417768e-02  0 
 0  0  0 

 -1.951074e-01  8.035806e-02  0 
 8.035806e-02  2.976381e-01  0 
 0  0  0 

 -6.653008e-02  -8.682710e-02  0 
 -8.682710e-02  4.694314e-01  0 
 0  0  0 

TENSORS element_stresses FLOAT
 -2.089745e-01  1.299434e-01  0 
 1.299434e-01  2.190068e-01  0 
 0  0  0 

 -5.868518e-02  -2.393761e-02  0 
 -2.393761e-02  3.556169e-01  0 
 0  0  0 

 1.474065e-02  -1.656863e-02  0 
 -1.656863e-02  8.997306e-02  0 
 0  0  0 

 -1.562769e-01  -1.567388e-03  0 
 -1.567388e-03  7.480346e-02  0 
 0  0  0 

 -3.487900e-03  5.660533e-02  0 
 5.660533e-02  4.732064e-02  0 
 0  0  0 

 -1.055300e-02  1.685519e-02  0 
 1.685519e-02  1.509632e-01  0 
 0  0  0 

 -6.297110e-03  1.305024e-02  0 
 1.305024e-02  4.861511e-02  0 
 0  0  0 

 -3.491341e-02  -9.122951e-03  0 
 -9.122951e-03  2.970353e-02  0 
 0  0  0 

 -4.922828e-03  4.015073e-03  0 
 4.015073e-03  2.674821e-02  0 
 0  0  0 

 1.436684e-03  1.206181e-02  0 
 1.206181e-02  1.135415e-02  0 
 0  0  0 

 9.025597e-03  2.050636e-02  0 
 2.050636e-02  3.145165e-02  0 
 0  0  0 

 2.073744e-02  1.947903e-02  0 
 1.947903e-02  -2.390675e-02  0 
 0  0  0 

 -7.326137e-04  -2.492090e-03  0 
 -2.492090e-03  -1.343949e-03  0 
 0  0  0 

 -3.450815e-03  -2.623083e-03  0 
 -2.623083e-03  -1.090699e-02  0 
 0  0  0 

 -2.228448e-03  3.365388e-03  0 
 3.365388e-03  -1.791441e-04  0 
 0  0  0 

 -2.218283e-03  3.044453e-03  0 
 3.044453e-03  -2.468478e-03  0 
 0  0  0 

 -2.890189e-03  -9.146391e-04  0 
 -9.146391e-04  -8.718375e-03  0 
 0  0  0 

 -1.298994e-03  -2.907267e-04  0 
 -2.907267e-04  -8.867975e-03  0 
 0  0  0 

 2.195005e-05  -1.445529e-03  0 
 -1.445529e-03  -3.271988e-03  0 
 0  0  0 

 -1.286835e-03  -4.936418e-03  0 
 -4.936418e-03  -9.125719e-03  0 
 0  0  0 

 3.033345e-04  -3.866322e-03  0 
 -3.866322e-03  -3.146867e-03  0 
 0  0  0 

 6.152600e-03  -7.883211e-03  0 
 -7.883211e-03  2.219002e-03  0 
 0  0  0 

 3.968906e-03  -1.521468e-03  0 
 -1.521468e-03  1.417768e-02  0 
 0  0  0 

 -1.951074e-01  8.035806e-02  0 
 8.035806e-02  2.976381e-01  0 
 0  0  0 

 -6.653008e-02  -8.682710e-02  0 
 -8.682710e-02  4.694314e-01  0 
 0  0  0 

