# vtk DataFile Version 3.1
this is an vtk file created by FEMAC
ASCII
DATASET UNSTRUCTURED_GRID
POINTS 30 FLOAT
6.000000 2.000000 0.000000
5.000000 1.500000 0.000000
5.250000 2.000000 0.000000
5.500000 2.000000 0.000000
5.750000 2.000000 0.000000
6.000000 1.500000 0.000000
6.000000 1.750000 0.000000
6.000000 2.250000 0.000000
6.000000 2.500000 0.000000
5.528256 1.447447 0.000000
5.669072 1.813081 0.000000
5.331392 1.813653 0.000000
5.500000 1.775000 0.000000
5.805846 1.660928 0.000000
5.194695 1.661595 0.000000
5.323754 1.413341 0.000000
5.717271 1.453287 0.000000
5.404183 1.616917 0.000000
5.598598 1.613486 0.000000
5.844984 1.844802 0.000000
5.155217 1.845050 0.000000
5.674167 2.178356 0.000000
5.325972 2.178472 0.000000
5.500000 2.225000 0.000000
5.828194 2.341416 0.000000
5.808128 2.581646 0.000000
5.399662 2.398247 0.000000
5.630720 2.401594 0.000000
5.507893 2.661856 0.000000
5.850472 2.153954 0.000000
CELLS 42 168 
3 3 10  4
3 11  3  2
3 12 10  3
3 11 12  3
3 11 17 12
3 18 10 12
3 6 13  5
3 18 13 10
3 14 17 11
3 18 17  9
3 12 17 18
3 14  1 15
3 9 17 15
3 14 15 17
3 5 13 16
3 18  9 16
3 16 13 18
3 4 19  0
3 19  6  0
3 19  4 10
3 2 20 11
3 19 13  6
3 10 13 19
3 14 11 20
3 21  3  4
3 3 22  2
3 21 23  3
3 23 22  3
3 26 22 23
3 21 27 23
3 24  7  8
3 24 27 21
3 26 23 27
3 29  4  0
3 7 29  0
3 4 29 21
3 24 29  7
3 24 21 29
3 24  8 25
3 24 25 27
3 26 27 28
3 28 27 25
CELL_TYPES 42
5 5 5 5 5 5 5 5 5 5 5 5 5 5 5 5 5 5 5 5 5 5 5 5 5 5 5 5 5 5 5 5 5 5 5 5 5 5 5 5 5 5 
POINT_DATA 30
VECTORS displacement_ITER1 FLOAT
 -2.790347e-02  -4.314523e-01  0 
 -8.899358e-02  -3.091822e-01  0 
 -2.787817e-02  -3.397916e-01  0 
 -2.787354e-02  -3.703545e-01  0 
 -2.788524e-02  -4.009103e-01  0 
 -8.899235e-02  -4.315110e-01  0 
 -5.843783e-02  -4.314869e-01  0 
 -2.506427e-02  -4.086669e-01  0 
 -2.913720e-02  -3.906628e-01  0 
 -9.541386e-02  -3.738160e-01  0 
 -5.071883e-02  -3.910294e-01  0 
 -5.064581e-02  -3.497361e-01  0 
 -5.537113e-02  -3.703565e-01  0 
 -6.931664e-02  -4.077584e-01  0 
 -6.922979e-02  -3.330139e-01  0 
 -9.958754e-02  -3.487994e-01  0 
 -9.469745e-02  -3.969372e-01  0 
 -7.469321e-02  -3.586396e-01  0 
 -7.511300e-02  -3.824179e-01  0 
 -4.684859e-02  -4.125309e-01  0 
 -4.681349e-02  -3.281973e-01  0 
 -1.779484e-02  -3.890838e-01  0 
 -1.774349e-02  -3.535532e-01  0 
 -1.512982e-02  -3.720793e-01  0 
 -2.042440e-02  -3.935859e-01  0 
 -2.315734e-02  -3.786860e-01  0 
 -1.343593e-02  -3.676921e-01  0 
 -1.596448e-02  -3.775719e-01  0 
 -2.225446e-02  -3.650834e-01  0 
 -2.104644e-02  -4.062388e-01  0 
VECTORS displacement_ITER2 FLOAT
 3.435277e-03  -3.364670e-01  0 
 -3.698210e-02  -2.555503e-01  0 
 3.439827e-03  -2.757844e-01  0 
 3.447450e-03  -2.960176e-01  0 
 3.443986e-03  -3.162450e-01  0 
 -3.699812e-02  -3.364978e-01  0 
 -1.677628e-02  -3.364838e-01  0 
 4.040478e-03  -3.236211e-01  0 
 -3.033891e-04  -3.102990e-01  0 
 -4.124033e-02  -2.983111e-01  0 
 -1.166989e-02  -3.097011e-01  0 
 -1.162524e-02  -2.823678e-01  0 
 -1.474974e-02  -2.960169e-01  0 
 -2.397673e-02  -3.207748e-01  0 
 -2.391683e-02  -2.713063e-01  0 
 -4.399542e-02  -2.817568e-01  0 
 -4.076981e-02  -3.136148e-01  0 
 -2.753215e-02  -2.882630e-01  0 
 -2.781104e-02  -3.040013e-01  0 
 -9.107018e-03  -3.239360e-01  0 
 -9.091132e-03  -2.681134e-01  0 
 9.100201e-03  -3.082864e-01  0 
 1.041055e-02  -2.835318e-01  0 
 1.141975e-02  -2.960638e-01  0 
 6.849044e-03  -3.118314e-01  0 
 4.546017e-03  -3.000099e-01  0 
 1.323090e-02  -2.912409e-01  0 
 1.034958e-02  -2.992713e-01  0 
 6.501225e-03  -2.876324e-01  0 
 6.831181e-03  -3.202828e-01  0 
VECTORS displacement_ITER3 FLOAT
 -3.655360e-02  -2.450659e-01  0 
 -6.996047e-02  -1.781930e-01  0 
 -3.658124e-02  -1.948534e-01  0 
 -3.656748e-02  -2.115968e-01  0 
 -3.655897e-02  -2.283281e-01  0 
 -6.998886e-02  -2.450588e-01  0 
 -5.327593e-02  -2.450553e-01  0 
 -2.689256e-02  -2.464837e-01  0 
 -1.930656e-02  -2.377083e-01  0 
 -7.349873e-02  -2.134793e-01  0 
 -4.906318e-02  -2.229068e-01  0 
 -4.903943e-02  -2.003028e-01  0 
 -5.161556e-02  -2.115889e-01  0 
 -5.923131e-02  -2.320596e-01  0 
 -5.919317e-02  -1.911700e-01  0 
 -7.576632e-02  -1.998136e-01  0 
 -7.311014e-02  -2.261305e-01  0 
 -6.217907e-02  -2.051772e-01  0 
 -6.240545e-02  -2.181857e-01  0 
 -4.693860e-02  -2.346823e-01  0 
 -4.694666e-02  -1.885166e-01  0 
 -2.817688e-02  -2.221288e-01  0 
 -2.463087e-02  -1.969946e-01  0 
 -2.380058e-02  -2.087169e-01  0 
 -2.170914e-02  -2.307510e-01  0 
 -1.215447e-02  -2.216031e-01  0 
 -1.317715e-02  -1.984798e-01  0 
 -1.651133e-02  -2.142180e-01  0 
 -4.772196e-03  -1.981951e-01  0 
 -3.052868e-02  -2.349192e-01  0 
VECTORS displacement_ITER4 FLOAT
 -3.480876e-02  -1.757831e-01  0 
 -4.903325e-02  -1.472842e-01  0 
 -3.485880e-02  -1.543083e-01  0 
 -3.484162e-02  -1.614680e-01  0 
 -3.482418e-02  -1.686177e-01  0 
 -4.908367e-02  -1.757460e-01  0 
 -4.195582e-02  -1.757539e-01  0 
 -2.620058e-02  -1.874154e-01  0 
 -1.769083e-02  -1.828036e-01  0 
 -5.056828e-02  -1.622687e-01  0 
 -4.016743e-02  -1.662912e-01  0 
 -4.017031e-02  -1.566397e-01  0 
 -4.126089e-02  -1.614574e-01  0 
 -4.449932e-02  -1.701971e-01  0 
 -4.448497e-02  -1.527608e-01  0 
 -5.151693e-02  -1.564551e-01  0 
 -5.040974e-02  -1.676662e-01  0 
 -4.575588e-02  -1.587232e-01  0 
 -4.585226e-02  -1.642718e-01  0 
 -3.925526e-02  -1.713259e-01  0 
 -3.928168e-02  -1.516117e-01  0 
 -3.005574e-02  -1.661189e-01  0 
 -2.558217e-02  -1.510070e-01  0 
 -2.598164e-02  -1.571976e-01  0 
 -2.234471e-02  -1.742426e-01  0 
 -1.166642e-02  -1.682787e-01  0 
 -1.484087e-02  -1.468420e-01  0 
 -1.808331e-02  -1.609694e-01  0 
 -3.544588e-03  -1.465422e-01  0 
 -3.155779e-02  -1.742977e-01  0 
VECTORS displacement_ITER5 FLOAT
 -4.466704e-02  -1.357369e-01  0 
 -6.071665e-02  -1.036020e-01  0 
 -4.473275e-02  -1.115161e-01  0 
 -4.471145e-02  -1.195914e-01  0 
 -4.468866e-02  -1.276545e-01  0 
 -6.076667e-02  -1.356846e-01  0 
 -5.273016e-02  -1.356968e-01  0 
 -3.123892e-02  -1.534528e-01  0 
 -1.830629e-02  -1.541740e-01  0 
 -6.244689e-02  -1.204836e-01  0 
 -5.071630e-02  -1.250275e-01  0 
 -5.072311e-02  -1.141435e-01  0 
 -5.195154e-02  -1.195758e-01  0 
 -5.559967e-02  -1.294293e-01  0 
 -5.559152e-02  -1.097679e-01  0 
 -6.351707e-02  -1.139328e-01  0 
 -6.226598e-02  -1.265696e-01  0 
 -5.702264e-02  -1.164899e-01  0 
 -5.712843e-02  -1.227460e-01  0 
 -4.968573e-02  -1.307053e-01  0 
 -4.972104e-02  -1.084715e-01  0 
 -3.857502e-02  -1.266289e-01  0 
 -3.506791e-02  -1.097994e-01  0 
 -3.461713e-02  -1.171728e-01  0 
 -2.737967e-02  -1.392272e-01  0 
 -1.259998e-02  -1.370015e-01  0 
 -2.203528e-02  -1.079674e-01  0 
 -2.351294e-02  -1.245476e-01  0 
 -5.962815e-03  -1.135241e-01  0 
 -3.964054e-02  -1.359038e-01  0 
VECTORS displacement_ITER6 FLOAT
 -3.094277e-02  -9.455614e-02  0 
 -4.037912e-02  -7.565476e-02  0 
 -3.101670e-02  -8.024815e-02  0 
 -3.099341e-02  -8.501777e-02  0 
 -3.096762e-02  -8.977624e-02  0 
 -4.043577e-02  -9.449384e-02  0 
 -3.570345e-02  -9.451063e-02  0 
 -1.923221e-02  -1.150868e-01  0 
 -8.848066e-03  -1.186741e-01  0 
 -4.141733e-02  -8.553499e-02  0 
 -3.452553e-02  -8.821594e-02  0 
 -3.454136e-02  -8.179819e-02  0 
 -3.525769e-02  -8.500023e-02  0 
 -3.739687e-02  -9.080806e-02  0 
 -3.739847e-02  -7.923160e-02  0 
 -4.203246e-02  -8.169071e-02  0 
 -4.131593e-02  -8.912002e-02  0 
 -3.823723e-02  -8.318118e-02  0 
 -3.829775e-02  -8.686564e-02  0 
 -3.391296e-02  -9.156918e-02  0 
 -3.395420e-02  -7.845442e-02  0 
 -2.713908e-02  -9.108057e-02  0 
 -2.503730e-02  -7.961510e-02  0 
 -2.450004e-02  -8.479560e-02  0 
 -1.715808e-02  -1.035515e-01  0 
 -5.358002e-03  -1.042030e-01  0 
 -1.527439e-02  -7.968457e-02  0 
 -1.504325e-02  -9.235025e-02  0 
 -2.417284e-03  -8.768882e-02  0 
 -2.748211e-02  -9.788410e-02  0 
VECTORS displacement_ITER7 FLOAT
 -2.121235e-02  -7.282753e-02  0 
 -3.087684e-02  -5.347477e-02  0 
 -2.128228e-02  -5.817706e-02  0 
 -2.125950e-02  -6.306358e-02  0 
 -2.123534e-02  -6.793553e-02  0 
 -3.093273e-02  -7.276926e-02  0 
 -2.608594e-02  -7.278495e-02  0 
 -1.101427e-02  -9.064180e-02  0 
 -3.284421e-03  -9.148306e-02  0 
 -3.194016e-02  -6.359152e-02  0 
 -2.487861e-02  -6.633940e-02  0 
 -2.489450e-02  -5.976509e-02  0 
 -2.562882e-02  -6.304557e-02  0 
 -2.781999e-02  -6.899388e-02  0 
 -2.782466e-02  -5.713364e-02  0 
 -3.257088e-02  -5.965518e-02  0 
 -3.183534e-02  -6.726379e-02  0 
 -2.868308e-02  -6.118131e-02  0 
 -2.874381e-02  -6.495565e-02  0 
 -2.425178e-02  -6.977248e-02  0 
 -2.429180e-02  -5.633623e-02  0 
 -1.750908e-02  -6.921971e-02  0 
 -1.636708e-02  -5.951675e-02  0 
 -1.546456e-02  -6.420621e-02  0 
 -9.110209e-03  -7.991841e-02  0 
 -8.875923e-04  -7.992266e-02  0 
 -8.724182e-03  -6.202666e-02  0 
 -7.691679e-03  -7.105917e-02  0 
 -2.705188e-04  -6.995402e-02  0 
 -1.803171e-02  -7.534846e-02  0 
VECTORS displacement_ITER8 FLOAT
 -1.805739e-02  -5.958279e-02  0 
 -2.678782e-02  -4.209899e-02  0 
 -1.811837e-02  -4.633738e-02  0 
 -1.809786e-02  -5.075832e-02  0 
 -1.807692e-02  -5.516189e-02  0 
 -2.684194e-02  -5.953282e-02  0 
 -2.246111e-02  -5.954625e-02  0 
 -1.129781e-02  -7.345606e-02  0 
 -8.063061e-03  -7.185734e-02  0 
 -2.775196e-02  -5.123413e-02  0 
 -2.136977e-02  -5.371952e-02  0 
 -2.138515e-02  -4.777431e-02  0 
 -2.204853e-02  -5.074112e-02  0 
 -2.402832e-02  -5.611899e-02  0 
 -2.403555e-02  -4.539438e-02  0 
 -2.832009e-02  -4.767784e-02  0 
 -2.765752e-02  -5.455451e-02  0 
 -2.481016e-02  -4.905473e-02  0 
 -2.486394e-02  -5.246760e-02  0 
 -2.080326e-02  -5.682281e-02  0 
 -2.083949e-02  -4.466993e-02  0 
 -1.558918e-02  -5.642634e-02  0 
 -1.527963e-02  -4.933428e-02  0 
 -1.436715e-02  -5.306699e-02  0 
 -1.022332e-02  -6.452655e-02  0 
 -6.929843e-03  -6.365173e-02  0 
 -1.111377e-02  -5.374397e-02  0 
 -9.670896e-03  -5.844803e-02  0 
 -8.671493e-03  -6.027987e-02  0 
 -1.612709e-02  -6.128027e-02  0 
VECTORS displacement_ITER9 FLOAT
 -7.481691e-03  -4.955847e-02  0 
 -1.740806e-02  -2.968434e-02  0 
 -7.531759e-03  -3.452803e-02  0 
 -7.514988e-03  -3.954681e-02  0 
 -7.497757e-03  -4.454547e-02  0 
 -1.745627e-02  -4.951697e-02  0 
 -1.247858e-02  -4.952799e-02  0 
 -3.108720e-03  -6.012663e-02  0 
 -2.742378e-03  -5.765233e-02  0 
 -1.849421e-02  -4.008981e-02  0 
 -1.123485e-02  -4.291292e-02  0 
 -1.124690e-02  -3.616056e-02  0 
 -1.200402e-02  -3.953075e-02  0 
 -1.425765e-02  -4.563900e-02  0 
 -1.426545e-02  -3.344941e-02  0 
 -1.914644e-02  -3.604252e-02  0 
 -1.838433e-02  -4.386258e-02  0 
 -1.514615e-02  -3.761421e-02  0 
 -1.520724e-02  -4.149281e-02  0 
 -1.059389e-02  -4.643436e-02  0 
 -1.062451e-02  -3.263110e-02  0 
 -5.856682e-03  -4.546415e-02  0 
 -6.118282e-03  -3.889219e-02  0 
 -5.190842e-03  -4.258032e-02  0 
 -2.689154e-03  -5.225791e-02  0 
 -2.273096e-03  -5.087352e-02  0 
 -4.245532e-03  -4.469352e-02  0 
 -2.635223e-03  -4.727192e-02  0 
 -5.527392e-03  -5.025336e-02  0 
 -6.341745e-03  -4.998363e-02  0 
VECTORS displacement_ITER10 FLOAT
 -2.948571e-03  -3.752366e-02  0 
 -1.193244e-02  -1.953942e-02  0 
 -2.990941e-03  -2.391570e-02  0 
 -2.978300e-03  -2.846170e-02  0 
 -2.963287e-03  -3.298600e-02  0 
 -1.197448e-02  -3.748413e-02  0 
 -7.470415e-03  -3.749522e-02  0 
 -9.438981e-05  -4.737384e-02  0 
 -7.649981e-04  -4.559594e-02  0 
 -1.291510e-02  -2.895019e-02  0 
 -6.345484e-03  -3.150829e-02  0 
 -6.357209e-03  -2.539588e-02  0 
 -7.042178e-03  -2.844658e-02  0 
 -9.080668e-03  -3.397472e-02  0 
 -9.092188e-03  -2.294010e-02  0 
 -1.350507e-02  -2.528852e-02  0 
 -1.281497e-02  -3.236510e-02  0 
 -9.887299e-03  -2.671047e-02  0 
 -9.941038e-03  -3.022141e-02  0 
 -5.765177e-03  -3.469543e-02  0 
 -5.792609e-03  -2.219678e-02  0 
 -2.351367e-03  -3.391830e-02  0 
 -2.689178e-03  -2.811472e-02  0 
 -1.972024e-03  -3.137792e-02  0 
 -2.179592e-04  -4.023183e-02  0 
 -5.458501e-04  -3.899258e-02  0 
 -1.921102e-03  -3.350173e-02  0 
 -4.198705e-04  -3.555014e-02  0 
 -4.121988e-03  -3.818851e-02  0 
 -2.646732e-03  -3.801395e-02  0 
VECTORS displacement_ITER11 FLOAT
 -6.781488e-03  -2.854910e-02  0 
 -1.298890e-02  -1.612300e-02  0 
 -6.822023e-03  -1.911026e-02  0 
 -6.812215e-03  -2.226638e-02  0 
 -6.797307e-03  -2.540067e-02  0 
 -1.302690e-02  -2.850455e-02  0 
 -9.913698e-03  -2.851826e-02  0 
 -4.413033e-03  -4.039939e-02  0 
 -4.662816e-03  -4.126857e-02  0 
 -1.367627e-02  -2.259711e-02  0 
 -9.140268e-03  -2.437263e-02  0 
 -9.154491e-03  -2.013946e-02  0 
 -9.624950e-03  -2.225177e-02  0 
 -1.102912e-02  -2.607725e-02  0 
 -1.104553e-02  -1.844295e-02  0 
 -1.407780e-02  -2.007287e-02  0 
 -1.360795e-02  -2.495946e-02  0 
 -1.159154e-02  -2.104850e-02  0 
 -1.162584e-02  -2.347752e-02  0 
 -8.736100e-03  -2.658124e-02  0 
 -8.763398e-03  -1.791874e-02  0 
 -7.345724e-03  -2.693577e-02  0 
 -7.431501e-03  -2.212750e-02  0 
 -7.068998e-03  -2.470854e-02  0 
 -5.156511e-03  -3.385198e-02  0 
 -4.397347e-03  -3.364984e-02  0 
 -6.735154e-03  -2.593390e-02  0 
 -5.471074e-03  -2.883393e-02  0 
 -7.389096e-03  -3.031433e-02  0 
 -7.260385e-03  -3.047933e-02  0 
VECTORS displacement_ITER12 FLOAT
 -7.314704e-03  -2.189121e-02  0 
 -1.190559e-02  -1.270097e-02  0 
 -7.354605e-03  -1.487824e-02  0 
 -7.346546e-03  -1.722539e-02  0 
 -7.331534e-03  -1.955092e-02  0 
 -1.194169e-02  -2.184206e-02  0 
 -9.638342e-03  -2.185811e-02  0 
 -4.860528e-03  -3.544596e-02  0 
 -4.303004e-03  -3.828404e-02  0 
 -1.242099e-02  -1.746563e-02  0 
 -9.069743e-03  -1.878445e-02  0 
 -9.085032e-03  -1.564535e-02  0 
 -9.430798e-03  -1.721148e-02  0 
 -1.046584e-02  -2.004546e-02  0 
 -1.048399e-02  -1.439167e-02  0 
 -1.271277e-02  -1.560400e-02  0 
 -1.237137e-02  -1.921438e-02  0 
 -1.088545e-02  -1.631909e-02  0 
 -1.090881e-02  -1.811785e-02  0 
 -8.768007e-03  -2.042350e-02  0 
 -8.794748e-03  -1.399431e-02  0 
 -8.472572e-03  -2.145028e-02  0 
 -8.290270e-03  -1.693488e-02  0 
 -8.151348e-03  -1.920084e-02  0 
 -5.892940e-03  -2.904914e-02  0 
 -3.784426e-03  -2.952848e-02  0 
 -7.133941e-03  -1.941308e-02  0 
 -6.136843e-03  -2.343217e-02  0 
 -5.930383e-03  -2.356565e-02  0 
 -8.145279e-03  -2.480836e-02  0 
VECTORS displacement_ITER13 FLOAT
 -7.797390e-03  -1.497114e-02  0 
 -9.128607e-03  -1.230173e-02  0 
 -7.838875e-03  -1.284767e-02  0 
 -7.830992e-03  -1.356414e-02  0 
 -7.815360e-03  -1.425996e-02  0 
 -9.164106e-03  -1.491772e-02  0 
 -8.491549e-03  -1.493576e-02  0 
 -6.064480e-03  -3.006862e-02  0 
 -5.815221e-03  -3.443027e-02  0 
 -9.300024e-03  -1.362156e-02  0 
 -8.335006e-03  -1.402054e-02  0 
 -8.353499e-03  -1.308433e-02  0 
 -8.447404e-03  -1.355068e-02  0 
 -8.738547e-03  -1.438901e-02  0 
 -8.759760e-03  -1.272314e-02  0 
 -9.369586e-03  -1.309428e-02  0 
 -9.288651e-03  -1.413592e-02  0 
 -8.870281e-03  -1.328415e-02  0 
 -8.871729e-03  -1.381409e-02  0 
 -8.239799e-03  -1.451254e-02  0 
 -8.267743e-03  -1.258255e-02  0 
 -1.003600e-02  -1.685204e-02  0 
 -9.784205e-03  -1.405030e-02  0 
 -9.913735e-03  -1.538345e-02  0 
 -7.671456e-03  -2.446737e-02  0 
 -5.508585e-03  -2.568469e-02  0 
 -9.097697e-03  -1.549264e-02  0 
 -8.165065e-03  -1.932178e-02  0 
 -7.479834e-03  -1.936589e-02  0 
 -9.418852e-03  -1.934370e-02  0 
VECTORS displacement_ITER14 FLOAT
 -5.192934e-03  -1.001227e-02  0 
 -5.098306e-03  -1.019520e-02  0 
 -5.237118e-03  -1.002818e-02  0 
 -5.228048e-03  -1.003052e-02  0 
 -5.211681e-03  -1.001363e-02  0 
 -5.133350e-03  -9.956722e-03  0 
 -5.174382e-03  -9.975549e-03  0 
 -3.669709e-03  -2.599937e-02  0 
 -3.544204e-03  -3.123483e-02  0 
 -5.118704e-03  -1.000856e-02  0 
 -5.198245e-03  -1.000446e-02  0 
 -5.218195e-03  -1.003180e-02  0 
 -5.201815e-03  -1.001716e-02  0 
 -5.167379e-03  -9.982567e-03  0 
 -5.189171e-03  -1.006153e-02  0 
 -5.091010e-03  -1.006479e-02  0 
 -5.124238e-03  -9.982554e-03  0 
 -5.172725e-03  -1.002474e-02  0 
 -5.164889e-03  -9.999512e-03  0 
 -5.193303e-03  -9.994808e-03  0 
 -5.222390e-03  -1.003356e-02  0 
 -7.923413e-03  -1.305003e-02  0 
 -7.882289e-03  -1.115670e-02  0 
 -8.012991e-03  -1.207858e-02  0 
 -5.592884e-03  -2.082040e-02  0 
 -3.495057e-03  -2.263136e-02  0 
 -7.485722e-03  -1.254732e-02  0 
 -6.339464e-03  -1.608223e-02  0 
 -5.723830e-03  -1.672168e-02  0 
 -7.133141e-03  -1.512392e-02  0 
VECTORS displacement_ITER15 FLOAT
 -3.973316e-03  -9.844613e-03  0 
 -4.119412e-03  -9.546460e-03  0 
 -4.019496e-03  -9.500693e-03  0 
 -4.008991e-03  -9.622372e-03  0 
 -3.992190e-03  -9.725768e-03  0 
 -4.153749e-03  -9.789742e-03  0 
 -4.074914e-03  -9.807878e-03  0 
 -2.258242e-03  -2.589179e-02  0 
 -1.894010e-03  -3.102676e-02  0 
 -4.164300e-03  -9.614284e-03  0 
 -4.068489e-03  -9.677509e-03  0 
 -4.088494e-03  -9.542303e-03  0 
 -4.090423e-03  -9.608775e-03  0 
 -4.110506e-03  -9.721668e-03  0 
 -4.131653e-03  -9.506666e-03  0 
 -4.152967e-03  -9.571489e-03  0 
 -4.167168e-03  -9.679113e-03  0 
 -4.136771e-03  -9.570392e-03  0 
 -4.130800e-03  -9.638739e-03  0 
 -4.048292e-03  -9.752559e-03  0 
 -4.078293e-03  -9.460289e-03  0 
 -6.584885e-03  -1.275069e-02  0 
 -6.715094e-03  -1.082963e-02  0 
 -6.722912e-03  -1.180103e-02  0 
 -4.092898e-03  -2.059337e-02  0 
 -1.883582e-03  -2.245833e-02  0 
 -6.179523e-03  -1.243523e-02  0 
 -4.882533e-03  -1.590948e-02  0 
 -4.207509e-03  -1.678150e-02  0 
 -5.807224e-03  -1.490425e-02  0 
VECTORS displacement_ITER16 FLOAT
 -3.180137e-03  -9.819449e-03  0 
 -3.073874e-03  -1.002599e-02  0 
 -3.227373e-03  -9.854394e-03  0 
 -3.216151e-03  -9.849517e-03  0 
 -3.199103e-03  -9.826712e-03  0 
 -3.107649e-03  -9.764897e-03  0 
 -3.155496e-03  -9.782595e-03  0 
 -1.426728e-03  -2.597914e-02  0 
 -8.340874e-04  -3.096618e-02  0 
 -3.091849e-03  -9.827261e-03  0 
 -3.180958e-03  -9.819261e-03  0 
 -3.201646e-03  -9.854406e-03  0 
 -3.183768e-03  -9.835729e-03  0 
 -3.145918e-03  -9.794569e-03  0 
 -3.167515e-03  -9.887979e-03  0 
 -3.063230e-03  -9.887094e-03  0 
 -3.097716e-03  -9.796667e-03  0 
 -3.149937e-03  -9.845699e-03  0 
 -3.142308e-03  -9.816032e-03  0 
 -3.176791e-03  -9.805552e-03  0 
 -3.207836e-03  -9.861890e-03  0 
 -5.772082e-03  -1.280965e-02  0 
 -5.840319e-03  -1.098349e-02  0 
 -5.862838e-03  -1.186172e-02  0 
 -3.164603e-03  -2.057771e-02  0 
 -7.446152e-04  -2.234019e-02  0 
 -5.126394e-03  -1.229366e-02  0 
 -3.897484e-03  -1.585138e-02  0 
 -2.838897e-03  -1.640376e-02  0 
 -5.020530e-03  -1.495410e-02  0 
VECTORS displacement_ITER17 FLOAT
 -3.875971e-03  -8.762233e-03  0 
 -3.855593e-03  -8.795792e-03  0 
 -3.922952e-03  -8.667988e-03  0 
 -3.911811e-03  -8.706199e-03  0 
 -3.894885e-03  -8.726481e-03  0 
 -3.888916e-03  -8.707683e-03  0 
 -3.894224e-03  -8.725368e-03  0 
 -2.027753e-03  -2.505189e-02  0 
 -1.099579e-03  -3.023386e-02  0 
 -3.882226e-03  -8.689596e-03  0 
 -3.908782e-03  -8.705249e-03  0 
 -3.929306e-03  -8.682126e-03  0 
 -3.918056e-03  -8.692577e-03  0 
 -3.899836e-03  -8.704206e-03  0 
 -3.921076e-03  -8.692115e-03  0 
 -3.859624e-03  -8.713540e-03  0 
 -3.887071e-03  -8.691303e-03  0 
 -3.911169e-03  -8.686201e-03  0 
 -3.904285e-03  -8.690138e-03  0 
 -3.899247e-03  -8.721737e-03  0 
 -3.930308e-03  -8.659277e-03  0 
 -6.451579e-03  -1.162104e-02  0 
 -6.378691e-03  -9.544839e-03  0 
 -6.454533e-03  -1.047793e-02  0 
 -3.705782e-03  -1.950597e-02  0 
 -8.389257e-04  -2.122618e-02  0 
 -5.404497e-03  -1.046583e-02  0 
 -4.324857e-03  -1.445237e-02  0 
 -2.582994e-03  -1.435178e-02  0 
 -5.700893e-03  -1.388278e-02  0 
VECTORS displacement_ITER18 FLOAT
 -3.314271e-03  -8.016926e-03  0 
 -2.808524e-03  -9.020124e-03  0 
 -3.359514e-03  -8.650535e-03  0 
 -3.349323e-03  -8.446338e-03  0 
 -3.332936e-03  -8.223967e-03  0 
 -2.841247e-03  -7.961982e-03  0 
 -3.089624e-03  -7.980183e-03  0 
 -1.739130e-03  -2.432855e-02  0 
 -7.627101e-04  -2.963935e-02  0 
 -2.783538e-03  -8.403722e-03  0 
 -3.165278e-03  -8.281706e-03  0 
 -3.185765e-03  -8.586376e-03  0 
 -3.137305e-03  -8.433300e-03  0 
 -3.008747e-03  -8.147833e-03  0 
 -3.030095e-03  -8.728805e-03  0 
 -2.728246e-03  -8.625611e-03  0 
 -2.793936e-03  -8.221348e-03  0 
 -2.976934e-03  -8.520290e-03  0 
 -2.966933e-03  -8.335521e-03  0 
 -3.186693e-03  -8.127194e-03  0 
 -3.217022e-03  -8.733940e-03  0 
 -6.101560e-03  -1.105946e-02  0 
 -5.843825e-03  -9.109364e-03  0 
 -6.050976e-03  -9.886411e-03  0 
 -3.445029e-03  -1.881710e-02  0 
 -3.805774e-04  -2.043089e-02  0 
 -4.848726e-03  -9.424040e-03  0 
 -3.987509e-03  -1.361448e-02  0 
 -1.764758e-03  -1.277748e-02  0 
 -5.333651e-03  -1.324683e-02  0 
VECTORS displacement_ITER19 FLOAT
 -1.972400e-03  -8.203279e-03  0 
 -1.958515e-03  -8.223223e-03  0 
 -2.015180e-03  -8.103086e-03  0 
 -2.005912e-03  -8.143603e-03  0 
 -1.990403e-03  -8.166095e-03  0 
 -1.988787e-03  -8.149216e-03  0 
 -1.992170e-03  -8.167564e-03  0 
 -7.143093e-04  -2.401504e-02  0 
 -5.675662e-05  -2.943548e-02  0 
 -1.983344e-03  -8.129362e-03  0 
 -2.005602e-03  -8.145151e-03  0 
 -2.024641e-03  -8.118717e-03  0 
 -2.014640e-03  -8.131113e-03  0 
 -1.998566e-03  -8.145293e-03  0 
 -2.018989e-03  -8.125973e-03  0 
 -1.962614e-03  -8.149597e-03  0 
 -1.987502e-03  -8.131990e-03  0 
 -2.009834e-03  -8.124149e-03  0 
 -2.003280e-03  -8.130222e-03  0 
 -1.996206e-03  -8.162676e-03  0 
 -2.024791e-03  -8.092840e-03  0 
 -4.895437e-03  -1.092268e-02  0 
 -4.784105e-03  -8.855515e-03  0 
 -4.953634e-03  -9.730238e-03  0 
 -2.541633e-03  -1.862970e-02  0 
 2.537796e-04  -2.024644e-02  0 
 -4.067843e-03  -9.425269e-03  0 
 -3.162887e-03  -1.345485e-02  0 
 -1.327502e-03  -1.265993e-02  0 
 -4.092867e-03  -1.315747e-02  0 
VECTORS displacement_ITER20 FLOAT
 -9.516177e-04  -8.866626e-03  0 
 -1.355311e-03  -8.052074e-03  0 
 -9.924775e-04  -8.142005e-03  0 
 -9.837974e-04  -8.390867e-03  0 
 -9.690091e-04  -8.621609e-03  0 
 -1.384247e-03  -8.813234e-03  0 
 -1.179344e-03  -8.831741e-03  0 
 1.228851e-04  -2.406118e-02  0 
 5.680872e-04  -2.890232e-02  0 
 -1.423230e-03  -8.400937e-03  0 
 -1.139879e-03  -8.533783e-03  0 
 -1.157838e-03  -8.225624e-03  0 
 -1.180482e-03  -8.378821e-03  0 
 -1.259971e-03  -8.647925e-03  0 
 -1.279518e-03  -8.118381e-03  0 
 -1.431573e-03  -8.250169e-03  0 
 -1.422173e-03  -8.560722e-03  0 
 -1.307891e-03  -8.292094e-03  0 
 -1.304303e-03  -8.460363e-03  0 
 -1.104249e-03  -8.697661e-03  0 
 -1.131537e-03  -8.052206e-03  0 
 -3.791539e-03  -1.120680e-02  0 
 -3.755385e-03  -9.098199e-03  0 
 -3.869807e-03  -1.001282e-02  0 
 -1.618190e-03  -1.862775e-02  0 
 8.756071e-04  -1.993952e-02  0 
 -3.127360e-03  -9.830171e-03  0 
 -2.231574e-03  -1.357380e-02  0 
 -7.352088e-04  -1.275246e-02  0 
 -3.055172e-03  -1.349300e-02  0 
VECTORS displacement_ITER21 FLOAT
 -1.291721e-03  -8.170941e-03  0 
 -1.384404e-03  -7.979332e-03  0 
 -1.333403e-03  -7.913371e-03  0 
 -1.324745e-03  -8.006206e-03  0 
 -1.309668e-03  -8.081204e-03  0 
 -1.412521e-03  -8.115164e-03  0 
 -1.364004e-03  -8.134842e-03  0 
 8.898784e-05  -2.404407e-02  0 
 9.918012e-04  -2.942030e-02  0 
 -1.419177e-03  -7.998516e-03  0 
 -1.364252e-03  -8.043487e-03  0 
 -1.382753e-03  -7.946060e-03  0 
 -1.381175e-03  -7.993999e-03  0 
 -1.389297e-03  -8.071988e-03  0 
 -1.409447e-03  -7.924058e-03  0 
 -1.406345e-03  -7.975294e-03  0 
 -1.421597e-03  -8.039767e-03  0 
 -1.409836e-03  -7.967079e-03  0 
 -1.404111e-03  -8.013927e-03  0 
 -1.348212e-03  -8.097724e-03  0 
 -1.376278e-03  -7.882417e-03  0 
 -4.134909e-03  -1.080704e-02  0 
 -4.081203e-03  -8.742564e-03  0 
 -4.191595e-03  -9.609173e-03  0 
 -1.659224e-03  -1.854140e-02  0 
 1.337020e-03  -2.013404e-02  0 
 -3.200522e-03  -9.293753e-03  0 
 -2.267599e-03  -1.332887e-02  0 
 -1.607621e-04  -1.240746e-02  0 
 -3.350724e-03  -1.310118e-02  0 
VECTORS displacement_ITER22 FLOAT
 -2.294781e-03  -7.926409e-03  0 
 -2.779098e-03  -6.950253e-03  0 
 -2.335525e-03  -7.084095e-03  0 
 -2.326928e-03  -7.371706e-03  0 
 -2.312316e-03  -7.641911e-03  0 
 -2.805417e-03  -7.871416e-03  0 
 -2.561919e-03  -7.890996e-03  0 
 -1.082739e-03  -2.352288e-02  0 
 -3.103990e-04  -2.909865e-02  0 
 -2.853737e-03  -7.386658e-03  0 
 -2.512609e-03  -7.541349e-03  0 
 -2.530312e-03  -7.179783e-03  0 
 -2.559112e-03  -7.359689e-03  0 
 -2.656659e-03  -7.676855e-03  0 
 -2.675926e-03  -7.050126e-03  0 
 -2.868340e-03  -7.202255e-03  0 
 -2.851245e-03  -7.575591e-03  0 
 -2.711386e-03  -7.257847e-03  0 
 -2.708493e-03  -7.457002e-03  0 
 -2.472004e-03  -7.732807e-03  0 
 -2.499679e-03  -6.978379e-03  0 
 -5.221259e-03  -1.031253e-02  0 
 -5.241035e-03  -8.104389e-03  0 
 -5.335851e-03  -9.057255e-03  0 
 -2.916528e-03  -1.807951e-02  0 
 8.129437e-06  -1.971131e-02  0 
 -4.512009e-03  -8.789637e-03  0 
 -3.564221e-03  -1.280215e-02  0 
 -1.598068e-03  -1.181539e-02  0 
 -4.408046e-03  -1.267203e-02  0 
VECTORS displacement_ITER23 FLOAT
 -1.207851e-03  -7.720043e-03  0 
 -1.445162e-03  -7.236668e-03  0 
 -1.248766e-03  -7.247866e-03  0 
 -1.239919e-03  -7.412068e-03  0 
 -1.225352e-03  -7.558893e-03  0 
 -1.471245e-03  -7.664891e-03  0 
 -1.351569e-03  -7.684549e-03  0 
 -6.809891e-05  -2.330506e-02  0 
 6.917325e-04  -2.877079e-02  0 
 -1.494008e-03  -7.413321e-03  0 
 -1.333407e-03  -7.498338e-03  0 
 -1.351589e-03  -7.303084e-03  0 
 -1.361186e-03  -7.399957e-03  0 
 -1.402278e-03  -7.566394e-03  0 
 -1.421726e-03  -7.240856e-03  0 
 -1.491879e-03  -7.329533e-03  0 
 -1.494273e-03  -7.508799e-03  0 
 -1.435248e-03  -7.345453e-03  0 
 -1.430746e-03  -7.448787e-03  0 
 -1.308478e-03  -7.602950e-03  0 
 -1.336939e-03  -7.188683e-03  0 
 -4.152873e-03  -1.021028e-02  0 
 -4.058720e-03  -8.121066e-03  0 
 -4.213375e-03  -8.972622e-03  0 
 -1.878722e-03  -1.785654e-02  0 
 1.074221e-03  -1.935697e-02  0 
 -3.300385e-03  -8.561723e-03  0 
 -2.470248e-03  -1.256267e-02  0 
 -3.462264e-04  -1.127441e-02  0 
 -3.362377e-03  -1.251598e-02  0 
VECTORS displacement_ITER24 FLOAT
 -1.144956e-03  -8.901017e-03  0 
 -2.233232e-03  -6.713590e-03  0 
 -1.183979e-03  -7.155245e-03  0 
 -1.175228e-03  -7.744191e-03  0 
 -1.161527e-03  -8.315824e-03  0 
 -2.257078e-03  -8.848427e-03  0 
 -1.712845e-03  -8.867095e-03  0 
 -2.418079e-04  -2.364747e-02  0 
 3.359570e-04  -2.868787e-02  0 
 -2.370563e-03  -7.793789e-03  0 
 -1.586889e-03  -8.118486e-03  0 
 -1.603875e-03  -7.348225e-03  0 
 -1.679370e-03  -7.732269e-03  0 
 -1.914611e-03  -8.419473e-03  0 
 -1.932818e-03  -7.052424e-03  0 
 -2.427514e-03  -7.360698e-03  0 
 -2.360242e-03  -8.211040e-03  0 
 -2.022622e-03  -7.514584e-03  0 
 -2.023983e-03  -7.949182e-03  0 
 -1.508415e-03  -8.521843e-03  0 
 -1.536407e-03  -6.934064e-03  0 
 -4.001461e-03  -1.066769e-02  0 
 -3.855908e-03  -8.164136e-03  0 
 -4.020658e-03  -9.201136e-03  0 
 -1.975870e-03  -1.809262e-02  0 
 8.168001e-04  -1.922639e-02  0 
 -3.172663e-03  -8.631543e-03  0 
 -2.481296e-03  -1.263148e-02  0 
 -5.134303e-04  -1.087574e-02  0 
 -3.279613e-03  -1.316593e-02  0 
VECTORS displacement_ITER25 FLOAT
 -1.465492e-03  -8.753031e-03  0 
 -2.172647e-03  -7.326453e-03  0 
 -1.503410e-03  -7.578445e-03  0 
 -1.495206e-03  -7.977203e-03  0 
 -1.481910e-03  -8.358334e-03  0 
 -2.195733e-03  -8.699941e-03  0 
 -1.842716e-03  -8.719000e-03  0 
 -6.605445e-04  -2.353619e-02  0 
 9.390682e-05  -2.848609e-02  0 
 -2.269956e-03  -8.005835e-03  0 
 -1.764828e-03  -8.222995e-03  0 
 -1.782143e-03  -7.709730e-03  0 
 -1.828271e-03  -7.965532e-03  0 
 -1.976531e-03  -8.419655e-03  0 
 -1.995034e-03  -7.517972e-03  0 
 -2.301399e-03  -7.728503e-03  0 
 -2.263678e-03  -8.278593e-03  0 
 -2.051049e-03  -7.821066e-03  0 
 -2.049844e-03  -8.107519e-03  0 
 -1.710611e-03  -8.492094e-03  0 
 -1.738817e-03  -7.429445e-03  0 
 -4.370396e-03  -1.060520e-02  0 
 -3.948965e-03  -8.115620e-03  0 
 -4.251449e-03  -9.032842e-03  0 
 -2.316336e-03  -1.788800e-02  0 
 7.856021e-04  -1.877517e-02  0 
 -3.061967e-03  -7.903719e-03  0 
 -2.659732e-03  -1.219682e-02  0 
 -1.116606e-05  -9.532183e-03  0 
 -3.681985e-03  -1.308717e-02  0 
VECTORS displacement_ITER26 FLOAT
 -1.987687e-03  -8.741228e-03  0 
 -2.547615e-03  -7.608611e-03  0 
 -2.024836e-03  -7.787200e-03  0 
 -2.017230e-03  -8.112588e-03  0 
 -2.004173e-03  -8.420050e-03  0 
 -2.570052e-03  -8.686876e-03  0 
 -2.291266e-03  -8.706729e-03  0 
 -1.087085e-03  -2.375483e-02  0 
 -6.726050e-05  -2.889469e-02  0 
 -2.629447e-03  -8.133067e-03  0 
 -2.232103e-03  -8.308668e-03  0 
 -2.249542e-03  -7.894792e-03  0 
 -2.284332e-03  -8.101022e-03  0 
 -2.398901e-03  -8.464756e-03  0 
 -2.417600e-03  -7.743165e-03  0 
 -2.651177e-03  -7.916138e-03  0 
 -2.624539e-03  -8.349632e-03  0 
 -2.460559e-03  -7.984907e-03  0 
 -2.458319e-03  -8.213984e-03  0 
 -2.187218e-03  -8.525773e-03  0 
 -2.215573e-03  -7.665886e-03  0 
 -4.887689e-03  -1.064513e-02  0 
 -4.301769e-03  -8.063139e-03  0 
 -4.674803e-03  -8.958565e-03  0 
 -2.705491e-03  -1.801281e-02  0 
 7.763662e-04  -1.886317e-02  0 
 -3.186492e-03  -7.453986e-03  0 
 -2.942327e-03  -1.207526e-02  0 
 3.337040e-04  -8.829943e-03  0 
 -4.200838e-03  -1.316665e-02  0 
VECTORS displacement_ITER27 FLOAT
 -1.427019e-03  -9.015288e-03  0 
 -2.260679e-03  -7.335078e-03  0 
 -1.463047e-03  -7.651050e-03  0 
 -1.455834e-03  -8.113557e-03  0 
 -1.443208e-03  -8.557656e-03  0 
 -2.282594e-03  -8.960865e-03  0 
 -1.867180e-03  -8.981098e-03  0 
 -6.526474e-04  -2.366913e-02  0 
 2.624116e-05  -2.860741e-02  0 
 -2.371452e-03  -8.149271e-03  0 
 -1.773431e-03  -8.402231e-03  0 
 -1.790531e-03  -7.803145e-03  0 
 -1.846571e-03  -8.101922e-03  0 
 -2.023622e-03  -8.633005e-03  0 
 -2.042176e-03  -7.576145e-03  0 
 -2.412138e-03  -7.820426e-03  0 
 -2.362993e-03  -8.469153e-03  0 
 -2.109671e-03  -7.933212e-03  0 
 -2.109191e-03  -8.268856e-03  0 
 -1.711236e-03  -8.715422e-03  0 
 -1.739432e-03  -7.476918e-03  0 
 -4.297324e-03  -1.077214e-02  0 
 -3.789577e-03  -8.226302e-03  0 
 -4.129205e-03  -9.150840e-03  0 
 -2.315669e-03  -1.801522e-02  0 
 7.901237e-04  -1.877972e-02  0 
 -2.889160e-03  -7.943915e-03  0 
 -2.600204e-03  -1.224053e-02  0 
 1.511451e-04  -9.276959e-03  0 
 -3.629365e-03  -1.327313e-02  0 
VECTORS displacement_ITER28 FLOAT
 -1.077151e-03  -9.298762e-03  0 