# vtk DataFile Version 3.1
this is an vtk file created by FEMAC
ASCII
DATASET UNSTRUCTURED_GRID
POINTS 30 FLOAT
3.000000 5.000000 0.000000
3.000000 6.000000 0.000000
2.750000 5.000000 0.000000
3.000000 5.250000 0.000000
3.000000 5.500000 0.000000
3.000000 5.750000 0.000000
3.250000 5.000000 0.000000
3.500000 5.000000 0.000000
3.250000 6.000000 0.000000
3.500000 6.000000 0.000000
2.779567 5.382160 0.000000
2.755439 5.624066 0.000000
2.782339 5.186810 0.000000
2.612481 5.213004 0.000000
3.226067 4.588218 0.000000
3.371004 4.799680 0.000000
3.169414 4.827579 0.000000
3.552553 5.528256 0.000000
3.186919 5.669072 0.000000
3.186347 5.331392 0.000000
3.225000 5.500000 0.000000
3.757141 5.565925 0.000000
3.339072 5.805846 0.000000
3.338405 5.194695 0.000000
3.586659 5.323754 0.000000
3.546713 5.717271 0.000000
3.383083 5.404183 0.000000
3.386514 5.598598 0.000000
3.155198 5.844984 0.000000
3.154950 5.155217 0.000000
CELLS 42 168 
3 10  3  4
3 12  2  0
3 3 12  0
3 10 12  3
3 2 12 13
3 11  4  5
3 11 10  4
3 12 10 13
3 7  6 15
3 16  6  0
3 6 16 15
3 16 14 15
3 4 18  5
3 19  4  3
3 20 18  4
3 19 20  4
3 19 26 20
3 27 18 20
3 23  6  7
3 8 22  9
3 27 22 18
3 23 26 19
3 27 26 17
3 20 26 27
3 23  7 24
3 17 26 24
3 23 24 26
3 9 22 25
3 27 17 25
3 25 22 27
3 5 28  1
3 28  8  1
3 28  5 18
3 29  3  0
3 6 29  0
3 3 29 19
3 28 22  8
3 18 22 28
3 23 29  6
3 23 19 29
3 17 24 21
3 25 17 21
CELL_TYPES 42
5 5 5 5 5 5 5 5 5 5 5 5 5 5 5 5 5 5 5 5 5 5 5 5 5 5 5 5 5 5 5 5 5 5 5 5 5 5 5 5 5 5 
POINT_DATA 30
VECTORS displacement_ITER1 FLOAT
 9.054953e-02  -1.629587e-01  0 
 1.830025e-01  -1.630790e-01  0 
 8.169803e-02  -1.292163e-01  0 
 1.136831e-01  -1.629989e-01  0 
 1.367974e-01  -1.630300e-01  0 
 1.599012e-01  -1.630610e-01  0 
 9.057825e-02  -1.860998e-01  0 
 9.060404e-02  -2.092184e-01  0 
 1.830263e-01  -1.861859e-01  0 
 1.830482e-01  -2.092936e-01  0 
 1.190535e-01  -1.429385e-01  0 
 1.388080e-01  -1.440437e-01  0 
 1.006260e-01  -1.392887e-01  0 
 9.465100e-02  -1.251809e-01  0 
 6.304014e-02  -1.674828e-01  0 
 8.138708e-02  -1.894626e-01  0 
 7.843721e-02  -1.752313e-01  0 
 1.394478e-01  -2.141201e-01  0 
 1.524384e-01  -1.803250e-01  0 
 1.212229e-01  -1.802420e-01  0 
 1.368122e-01  -1.838303e-01  0 
 1.429475e-01  -2.330484e-01  0 
 1.650899e-01  -1.944013e-01  0 
 1.085901e-01  -1.942957e-01  0 
 1.205352e-01  -2.172615e-01  0 
 1.569176e-01  -2.135925e-01  0 
 1.279636e-01  -1.984390e-01  0 
 1.459385e-01  -1.987723e-01  0 
 1.686907e-01  -1.774094e-01  0 
 1.049277e-01  -1.773228e-01  0 
VECTORS displacement_ITER2 FLOAT
 9.340467e-02  -1.315165e-01  0 
 1.507194e-01  -1.317140e-01  0 
 7.591393e-02  -9.510593e-02  0 
 1.077889e-01  -1.315880e-01  0 
 1.221227e-01  -1.316444e-01  0 
 1.364206e-01  -1.316923e-01  0 
 9.345011e-02  -1.459125e-01  0 
 9.348496e-02  -1.602755e-01  0 
 1.507383e-01  -1.460104e-01  0 
 1.507556e-01  -1.603034e-01  0 
 1.094634e-01  -1.170985e-01  0 
 1.207709e-01  -1.187953e-01  0 
 9.636725e-02  -1.120375e-01  0 
 8.878704e-02  -9.919654e-02  0 
 6.796419e-02  -1.292838e-01  0 
 8.492395e-02  -1.469604e-01  0 
 8.260337e-02  -1.364643e-01  0 
 1.237748e-01  -1.633017e-01  0 
 1.318131e-01  -1.423704e-01  0 
 1.124777e-01  -1.422993e-01  0 
 1.221389e-01  -1.445337e-01  0 
 1.259405e-01  -1.750221e-01  0 
 1.396449e-01  -1.510890e-01  0 
 1.046444e-01  -1.510149e-01  0 
 1.120592e-01  -1.652590e-01  0 
 1.345890e-01  -1.629687e-01  0 
 1.166610e-01  -1.535867e-01  0 
 1.277933e-01  -1.537935e-01  0 
 1.418665e-01  -1.405763e-01  0 
 1.023609e-01  -1.404736e-01  0 
VECTORS displacement_ITER3 FLOAT
 7.878565e-02  -9.304151e-02  0 
 1.092767e-01  -9.335161e-02  0 
 5.018909e-02  -5.025726e-02  0 
 8.651638e-02  -9.315908e-02  0 
 9.414984e-02  -9.325165e-02  0 
 1.017125e-01  -9.332300e-02  0 
 7.885791e-02  -1.007871e-01  0 
 7.890677e-02  -1.084835e-01  0 
 1.092894e-01  -1.009021e-01  0 
 1.092997e-01  -1.084455e-01  0 
 8.593997e-02  -8.225640e-02  0 
 9.083620e-02  -8.407952e-02  0 
 7.597953e-02  -7.582604e-02  0 
 6.702911e-02  -6.173574e-02  0 
 4.566790e-02  -8.573500e-02  0 
 6.660974e-02  -1.014392e-01  0 
 6.566330e-02  -9.122028e-02  0 
 9.503640e-02  -1.100603e-01  0 
 9.929147e-02  -9.896185e-02  0 
 8.903467e-02  -9.889415e-02  0 
 9.416822e-02  -1.000980e-01  0 
 9.617662e-02  -1.162633e-01  0 
 1.034341e-01  -1.035816e-01  0 
 8.486323e-02  -1.035367e-01  0 
 8.882365e-02  -1.111228e-01  0 
 1.007600e-01  -1.098689e-01  0 
 9.126630e-02  -1.049084e-01  0 
 9.716730e-02  -1.050144e-01  0 
 1.046010e-01  -9.802754e-02  0 
 8.362618e-02  -9.789691e-02  0 
VECTORS displacement_ITER4 FLOAT
 7.099841e-02  -8.393485e-02  0 
 9.095903e-02  -8.430353e-02  0 
 3.974073e-02  -4.264161e-02  0 
 7.612712e-02  -8.407847e-02  0 
 8.113089e-02  -8.418968e-02  0 
 8.604791e-02  -8.426960e-02  0 
 7.108801e-02  -8.907691e-02  0 
 7.114552e-02  -9.416063e-02  0 
 9.097002e-02  -8.919777e-02  0 
 9.097517e-02  -9.408600e-02  0 
 7.488062e-02  -7.540054e-02  0 
 7.735883e-02  -7.696754e-02  0 
 6.618680e-02  -6.918135e-02  0 
 5.731605e-02  -5.542837e-02  0 
 3.011876e-02  -7.402036e-02  0 
 5.553118e-02  -9.014703e-02  0 
 5.538637e-02  -7.868311e-02  0 
 8.171497e-02  -9.516270e-02  0 
 8.448477e-02  -8.792899e-02  0 
 7.779501e-02  -8.786250e-02  0 
 8.115009e-02  -8.866204e-02  0 
 8.244985e-02  -9.919252e-02  0 
 8.717523e-02  -9.093585e-02  0 
 7.506103e-02  -9.090596e-02  0 
 7.766670e-02  -9.587679e-02  0 
 8.543615e-02  -9.502514e-02  0 
 7.926059e-02  -9.180615e-02  0 
 8.310454e-02  -9.187097e-02  0 
 8.792885e-02  -8.733063e-02  0 
 7.423241e-02  -8.718886e-02  0 
VECTORS displacement_ITER5 FLOAT
 6.144307e-02  -4.846824e-02  0 
 7.207311e-02  -4.882608e-02  0 
 3.994570e-02  -2.536448e-02  0 
 6.424349e-02  -4.861293e-02  0 
 6.691395e-02  -4.872032e-02  0 
 6.950651e-02  -4.878836e-02  0 
 6.153912e-02  -5.127329e-02  0 
 6.160005e-02  -5.401987e-02  0 
 7.208784e-02  -5.138299e-02  0 
 7.208917e-02  -5.394197e-02  0 
 6.184720e-02  -4.481621e-02  0 
 6.227942e-02  -4.606349e-02  0 
 5.615595e-02  -4.110150e-02  0 
 4.912530e-02  -3.356909e-02  0 
 2.265091e-02  -3.487433e-02  0 
 4.729533e-02  -5.072847e-02  0 
 4.673252e-02  -4.085044e-02  0 
 6.723128e-02  -5.453267e-02  0 
 6.869043e-02  -5.071143e-02  0 
 6.515076e-02  -5.065571e-02  0 
 6.693174e-02  -5.109252e-02  0 
 6.761315e-02  -5.664639e-02  0 
 7.010261e-02  -5.229536e-02  0 
 6.369390e-02  -5.227828e-02  0 
 6.509510e-02  -5.492839e-02  0 
 6.918663e-02  -5.445038e-02  0 
 6.593664e-02  -5.276089e-02  0 
 6.796440e-02  -5.279232e-02  0 
 7.049588e-02  -5.040084e-02  0 
 6.323261e-02  -5.027665e-02  0 
VECTORS displacement_ITER6 FLOAT
 4.451139e-02  -2.965081e-02  0 
 6.047542e-02  -2.997081e-02  0 
 3.529600e-02  -2.530787e-02  0 
 4.863892e-02  -2.978294e-02  0 
 5.264069e-02  -2.987708e-02  0 
 5.658019e-02  -2.992991e-02  0 
 4.461079e-02  -3.376694e-02  0 
 4.467358e-02  -3.782786e-02  0 
 6.049465e-02  -3.386281e-02  0 
 6.049506e-02  -3.776590e-02  0 
 4.681858e-02  -2.830849e-02  0 
 4.862212e-02  -2.886822e-02  0 
 4.185065e-02  -2.796719e-02  0 
 3.766307e-02  -2.564056e-02  0 
 1.164549e-02  -1.576532e-02  0 
 3.270951e-02  -3.165801e-02  0 
 3.133484e-02  -2.333773e-02  0 
 5.310665e-02  -3.863494e-02  0 
 5.532206e-02  -3.286107e-02  0 
 4.997563e-02  -3.281087e-02  0 
 5.265650e-02  -3.344968e-02  0 
 5.369069e-02  -4.183811e-02  0 
 5.746630e-02  -3.525617e-02  0 
 4.779252e-02  -3.523978e-02  0 
 4.988049e-02  -3.920753e-02  0 
 5.607365e-02  -3.852512e-02  0 
 5.114911e-02  -3.596025e-02  0 
 5.421564e-02  -3.600987e-02  0 
 5.807360e-02  -3.237262e-02  0 
 4.712220e-02  -3.227067e-02  0 
VECTORS displacement_ITER7 FLOAT
 3.090760e-02  -2.789102e-02  0 
 5.684090e-02  -2.817779e-02  0 
 2.765995e-02  -3.181358e-02  0 
 3.752199e-02  -2.800644e-02  0 
 4.401364e-02  -2.808874e-02  0 
 5.045065e-02  -2.813599e-02  0 
 3.101148e-02  -3.447391e-02  0 
 3.107682e-02  -4.100390e-02  0 
 5.686072e-02  -3.456315e-02  0 
 5.686332e-02  -4.096282e-02  0 
 3.717382e-02  -2.588141e-02  0 
 4.127892e-02  -2.576907e-02  0 
 3.138521e-02  -2.789611e-02  0 
 2.957208e-02  -2.681356e-02  0 
 1.070769e-02  -1.657478e-02  0 
 2.328603e-02  -3.034571e-02  0 
 2.102167e-02  -2.518692e-02  0 
 4.475925e-02  -4.235156e-02  0 
 4.838209e-02  -3.293343e-02  0 
 3.966523e-02  -3.288385e-02  0 
 4.402778e-02  -3.390395e-02  0 
 4.571985e-02  -4.759411e-02  0 
 5.189277e-02  -3.684514e-02  0 
 3.612117e-02  -3.682386e-02  0 
 3.949432e-02  -4.325929e-02  0 
 4.961553e-02  -4.218577e-02  0 
 4.156356e-02  -3.798883e-02  0 
 4.657077e-02  -3.807218e-02  0 
 5.289178e-02  -3.212696e-02  0 
 3.505889e-02  -3.203817e-02  0 
VECTORS displacement_ITER8 FLOAT
 2.023735e-02  -1.912712e-02  0 
 3.928170e-02  -1.941546e-02  0 
 1.571630e-02  -2.286096e-02  0 
 2.513932e-02  -1.923954e-02  0 
 2.990747e-02  -1.932289e-02  0 
 3.461477e-02  -1.937478e-02  0 
 2.035156e-02  -2.398224e-02  0 
 2.042271e-02  -2.878119e-02  0 
 3.929890e-02  -2.407313e-02  0 
 3.930204e-02  -2.874255e-02  0 
 2.456125e-02  -1.779611e-02  0 
 2.697643e-02  -1.769921e-02  0 
 2.016963e-02  -2.003282e-02  0 
 1.907094e-02  -1.879132e-02  0 
 1.547375e-02  -7.910161e-03  0 
 1.786415e-02  -1.690168e-02  0 
 1.502682e-02  -1.701799e-02  0 
 3.045523e-02  -2.977030e-02  0 
 3.310753e-02  -2.287784e-02  0 
 2.672089e-02  -2.283337e-02  0 
 2.992061e-02  -2.358561e-02  0 
 3.115445e-02  -3.359818e-02  0 
 3.567339e-02  -2.573820e-02  0 
 2.411795e-02  -2.572442e-02  0 
 2.660203e-02  -3.044396e-02  0 
 3.400798e-02  -2.964327e-02  0 
 2.811666e-02  -2.657964e-02  0 
 3.178248e-02  -2.663738e-02  0 
 3.640104e-02  -2.229308e-02  0 
 2.332607e-02  -2.220694e-02  0 
VECTORS displacement_ITER9 FLOAT
 1.350856e-02  -1.478297e-02  0 
 2.646627e-02  -1.508606e-02  0 
 4.992818e-03  -1.207267e-02  0 
 1.690582e-02  -1.490031e-02  0 
 2.015085e-02  -1.499038e-02  0 
 2.332508e-02  -1.504885e-02  0 
 1.363507e-02  -1.812305e-02  0 
 1.371200e-02  -2.140000e-02  0 
 2.648023e-02  -1.821633e-02  0 
 2.648189e-02  -2.135376e-02  0 
 1.649064e-02  -1.298288e-02  0 
 1.757453e-02  -1.307592e-02  0 
 1.287533e-02  -1.421270e-02  0 
 1.177454e-02  -1.110618e-02  0 
 1.647894e-02  -5.328421e-03  0 
 1.362285e-02  -1.060293e-02  0 
 1.101187e-02  -1.318565e-02  0 
 2.052326e-02  -2.206386e-02  0 
 2.231577e-02  -1.740544e-02  0 
 1.799241e-02  -1.736382e-02  0 
 2.016302e-02  -1.788020e-02  0 
 2.099114e-02  -2.463966e-02  0 
 2.404391e-02  -1.933595e-02  0 
 1.621991e-02  -1.932987e-02  0 
 1.791833e-02  -2.253250e-02  0 
 2.292042e-02  -2.197059e-02  0 
 1.894337e-02  -1.991010e-02  0 
 2.142154e-02  -1.994508e-02  0 
 2.453103e-02  -1.701720e-02  0 
 1.566582e-02  -1.692939e-02  0 
VECTORS displacement_ITER10 FLOAT
 1.250324e-02  -1.083718e-02  0 
 2.314566e-02  -1.114584e-02  0 
 3.680355e-03  -4.857994e-03  0 
 1.533521e-02  -1.095934e-02  0 
 1.799955e-02  -1.105364e-02  0 
 2.058772e-02  -1.111323e-02  0 
 1.263858e-02  -1.360592e-02  0 
 1.271840e-02  -1.630586e-02  0 
 2.315836e-02  -1.369608e-02  0 
 2.315839e-02  -1.625004e-02  0 
 1.534832e-02  -8.776007e-03  0 
 1.619608e-02  -8.994389e-03  0 
 1.222029e-02  -9.252920e-03  0 
 1.120516e-02  -5.960333e-03  0 
 1.446033e-02  -4.215772e-03  0 
 1.208998e-02  -8.141065e-03  0 
 1.027017e-02  -9.823963e-03  0 
 1.830317e-02  -1.683944e-02  0 
 1.976789e-02  -1.303272e-02  0 
 1.623302e-02  -1.299387e-02  0 
 1.801030e-02  -1.341941e-02  0 
 1.868281e-02  -1.893699e-02  0 
 2.117543e-02  -1.460847e-02  0 
 1.477581e-02  -1.460892e-02  0 
 1.617405e-02  -1.723062e-02  0 
 2.025870e-02  -1.675905e-02  0 
 1.701317e-02  -1.508207e-02  0 
 1.903776e-02  -1.510756e-02  0 
 2.157097e-02  -1.271826e-02  0 
 1.431178e-02  -1.263339e-02  0 
VECTORS displacement_ITER11 FLOAT
 7.074117e-03  -3.873980e-03  0 
 1.659287e-02  -4.173214e-03  0 
 3.180177e-03  -1.670056e-03  0 
 9.629016e-03  -3.996550e-03  0 
 1.201084e-02  -4.089459e-03  0 
 1.431794e-02  -4.143915e-03  0 
 7.211155e-03  -6.364419e-03  0 
 7.290224e-03  -8.784916e-03  0 
 1.660638e-02  -6.445119e-03  0 
 1.660628e-02  -8.719802e-03  0 
 9.571177e-03  -2.888211e-03  0 
 1.053411e-02  -3.215903e-03  0 
 7.460234e-03  -3.427099e-03  0 
 6.675249e-03  -3.180149e-03  0 
 3.966136e-03  -2.492127e-04  0 
 4.539642e-03  -3.818535e-03  0 
 3.782493e-03  -3.235232e-03  0 
 1.227926e-02  -9.250883e-03  0 
 1.358712e-02  -5.854767e-03  0 
 1.043393e-02  -5.820942e-03  0 
 1.201997e-02  -6.200631e-03  0 
 1.261603e-02  -1.111762e-02  0 
 1.484029e-02  -7.258452e-03  0 
 9.129989e-03  -7.266336e-03  0 
 1.038049e-02  -9.604085e-03  0 
 1.402227e-02  -9.176821e-03  0 
 1.112995e-02  -7.685810e-03  0 
 1.293522e-02  -7.705773e-03  0 
 1.519265e-02  -5.573321e-03  0 
 8.710880e-03  -5.497756e-03  0 
VECTORS displacement_ITER12 FLOAT
 8.194287e-03  -1.604735e-04  0 
 1.871000e-02  -4.473837e-04  0 
 9.250452e-03  -2.100716e-03  0 
 1.099812e-02  -2.812771e-04  0 
 1.362739e-02  -3.708369e-04  0 
 1.618524e-02  -4.199175e-04  0 
 8.331644e-03  -2.898724e-03  0 
 8.409940e-03  -5.566875e-03  0 
 1.872373e-02  -2.970702e-03  0 
 1.872433e-02  -5.496824e-03  0 
 1.088422e-02  5.818207e-05  0 
 1.237487e-02  -3.127307e-04  0 
 9.396403e-03  -7.518159e-04  0 
 8.798521e-03  -3.428377e-03  0 
 9.553991e-04  7.392150e-04  0 
 3.954908e-03  -2.786735e-03  0 
 3.980264e-03  -2.188949e-04  0 
 1.392109e-02  -6.080567e-03  0 
 1.537147e-02  -2.319212e-03  0 
 1.188233e-02  -2.289264e-03  0 
 1.363517e-02  -2.705034e-03  0 
 1.429497e-02  -8.151237e-03  0 
 1.676160e-02  -3.873733e-03  0 
 1.044266e-02  -3.886506e-03  0 
 1.181900e-02  -6.466980e-03  0 
 1.585366e-02  -6.000723e-03  0 
 1.264892e-02  -4.347852e-03  0 
 1.464791e-02  -4.369911e-03  0 
 1.715410e-02  -2.003949e-03  0 
 9.985189e-03  -1.937045e-03  0 
VECTORS displacement_ITER13 FLOAT
 5.278675e-03  1.932654e-03  0 
 1.575608e-02  1.656827e-03  0 
 7.873375e-03  -3.853535e-04  0 
 8.072585e-03  1.814277e-03  0 
 1.068987e-02  1.728097e-03  0 
 1.323808e-02  1.682896e-03  0 
 5.418293e-03  -7.924699e-04  0 
 5.497813e-03  -3.445990e-03  0 
 1.576784e-02  -8.575673e-04  0 
 1.576858e-02  -3.374432e-03  0 
 7.882093e-03  2.170184e-03  0 
 9.548199e-03  1.774416e-03  0 
 6.751569e-03  1.432995e-03  0 
 6.115211e-03  -2.196709e-03  0 
 -1.114909e-03  2.757824e-04  0 
 1.287417e-03  -1.934387e-03  0 
 1.705353e-03  8.437514e-04  0 
 1.097944e-02  -3.956912e-03  0 
 1.242620e-02  -2.103081e-04  0 
 8.951595e-03  -1.843754e-04  0 
 1.069632e-02  -5.963614e-04  0 
 1.135114e-02  -6.018626e-03  0 
 1.381135e-02  -1.757743e-03  0 
 7.518426e-03  -1.775147e-03  0 
 8.887206e-03  -4.340648e-03  0 
 1.290491e-02  -3.877399e-03  0 
 9.713458e-03  -2.232631e-03  0 
 1.170407e-02  -2.253434e-03  0 
 1.420352e-02  1.047062e-04  0 
 7.063141e-03  1.642203e-04  0 
VECTORS displacement_ITER14 FLOAT
 3.567656e-03  1.982911e-03  0 
 1.294781e-02  1.719040e-03  0 
 3.913741e-03  3.186796e-03  0 
 6.088856e-03  1.867442e-03  0 
 8.428938e-03  1.784444e-03  0 
 1.070070e-02  1.742759e-03  0 
 3.712256e-03  -4.629080e-04  0 
 3.795035e-03  -2.834583e-03  0 
 1.295685e-02  -5.225901e-04  0 
 1.295684e-02  -2.765246e-03  0 
 6.002778e-03  2.859941e-03  0 
 7.474241e-03  2.440474e-03  0 
 4.886019e-03  2.553863e-03  0 
 4.148443e-03  1.350712e-04  0 
 2.049738e-03  -2.025968e-03  0 
 1.417700e-03  -1.827524e-03  0 
 1.917920e-03  -3.367930e-04  0 
 8.684677e-03  -3.289986e-03  0 
 9.977259e-03  5.389290e-05  0 
 6.876277e-03  7.518329e-05  0 
 8.433824e-03  -2.920064e-04  0 
 9.014827e-03  -5.125271e-03  0 
 1.121204e-02  -1.325727e-03  0 
 5.594610e-03  -1.347610e-03  0 
 6.819484e-03  -3.634569e-03  0 
 1.040147e-02  -3.217634e-03  0 
 7.556343e-03  -1.753946e-03  0 
 9.331786e-03  -1.770228e-03  0 
 1.156219e-02  3.346544e-04  0 
 5.182784e-03  3.864927e-04  0 
VECTORS displacement_ITER15 FLOAT
 2.709100e-03  1.673036e-03  0 
 1.045544e-02  1.422647e-03  0 
 1.408724e-03  4.126588e-03  0 
 4.823496e-03  1.561149e-03  0 
 6.753205e-03  1.481150e-03  0 
 8.614713e-03  1.443210e-03  0 
 2.857683e-03  -3.588563e-04  0 
 2.942934e-03  -2.316349e-03  0 
 1.046301e-02  -4.138798e-04  0 
 1.046206e-02  -2.249401e-03  0 
 4.837406e-03  2.687173e-03  0 
 6.004182e-03  2.391860e-03  0 
 3.796989e-03  2.393954e-03  0 
 3.276466e-03  1.009872e-03  0 
 4.889228e-03  -3.775093e-03  0 
 1.895645e-03  -1.645962e-03  0 
 2.467929e-03  -1.306115e-03  0 
 6.961019e-03  -2.687102e-03  0 
 8.022983e-03  5.846932e-05  0 
 5.476195e-03  7.515886e-05  0 
 6.756741e-03  -2.266808e-04  0 
 7.230102e-03  -4.186515e-03  0 
 9.034094e-03  -1.072471e-03  0 
 4.418774e-03  -1.098371e-03  0 
 5.431185e-03  -2.975002e-03  0 
 8.368006e-03  -2.625137e-03  0 
 6.036004e-03  -1.429695e-03  0 
 7.492569e-03  -1.439797e-03  0 
 9.320849e-03  2.884566e-04  0 
 4.071385e-03  3.325306e-04  0 
VECTORS displacement_ITER16 FLOAT
 1.998937e-03  -1.310874e-04  0 
 9.681150e-03  -3.696806e-04  0 
 2.570119e-03  -9.778550e-04  0 
 4.095521e-03  -2.391547e-04  0 
 6.007917e-03  -3.160974e-04  0 
 7.854152e-03  -3.513451e-04  0 
 2.148815e-03  -2.140470e-03  0 
 2.234972e-03  -4.077270e-03  0 
 9.687203e-03  -2.192597e-03  0 
 9.685441e-03  -4.013552e-03  0 
 4.128850e-03  8.517399e-04  0 
 5.416221e-03  9.088961e-04  0 
 3.214617e-03  -1.385321e-04  0 
 3.229240e-03  -1.632193e-03  0 
 4.370784e-03  -5.204627e-03  0 
 1.554655e-03  -3.377325e-03  0 
 1.981707e-03  -3.046062e-03  0 
 6.213528e-03  -4.446627e-03  0 
 7.266476e-03  -1.725458e-03  0 
 4.741734e-03  -1.710926e-03  0 
 6.010866e-03  -2.008911e-03  0 
 6.480873e-03  -5.932340e-03  0 
 8.269141e-03  -2.846525e-03  0 
 3.694179e-03  -2.873427e-03  0 
 4.697073e-03  -4.731021e-03  0 
 7.608350e-03  -4.385862e-03  0 
 5.296289e-03  -3.200964e-03  0 
 6.740254e-03  -3.210919e-03  0 
 8.554205e-03  -1.496497e-03  0 
 3.349509e-03  -1.457348e-03  0 
VECTORS displacement_ITER17 FLOAT
 1.422884e-03  -6.917969e-04  0 
 8.889034e-03  -9.257667e-04  0 
 2.974152e-03  -3.447790e-03  0 
 3.465676e-03  -7.988170e-04  0 
 5.323316e-03  -8.748589e-04  0 
 7.115770e-03  -9.091210e-04  0 
 1.574932e-03  -2.643928e-03  0 
 1.662521e-03  -4.524324e-03  0 
 8.893517e-03  -2.694762e-03  0 
 8.890579e-03  -4.461136e-03  0 
 3.493578e-03  3.701590e-04  0 
 4.825980e-03  6.540212e-04  0 
 2.569280e-03  -9.746881e-04  0 
 2.861178e-03  -2.089209e-03  0 
 2.777843e-03  -4.512444e-03  0 
 1.078774e-03  -3.752427e-03  0 
 1.266689e-03  -3.109469e-03  0 
 5.522362e-03  -4.883323e-03  0 
 6.544911e-03  -2.242969e-03  0 
 4.093870e-03  -2.229475e-03  0 
 5.325971e-03  -2.518470e-03  0 
 5.781587e-03  -6.323526e-03  0 
 7.517261e-03  -3.330130e-03  0 
 3.076740e-03  -3.358070e-03  0 
 4.051085e-03  -5.159722e-03  0 
 6.875228e-03  -4.823917e-03  0 
 4.632365e-03  -3.675498e-03  0 
 6.033595e-03  -3.684674e-03  0 
 7.794586e-03  -2.020106e-03  0 
 2.740189e-03  -1.983305e-03  0 
VECTORS displacement_ITER18 FLOAT
 1.571749e-03  -2.268670e-03  0 
 7.815252e-03  -2.502508e-03  0 
 4.848076e-04  -2.462446e-03  0 
 3.314110e-03  -2.376837e-03  0 
 4.866228e-03  -2.454057e-03  0 
 6.350578e-03  -2.488116e-03  0 
 1.727853e-03  -3.916140e-03  0 
 1.817686e-03  -5.491632e-03  0 
 7.819347e-03  -3.965160e-03  0 
 7.815426e-03  -5.423633e-03  0 
 3.486471e-03  -1.227859e-03  0 
 4.527074e-03  -1.059297e-03  0 
 2.311460e-03  -2.082426e-03  0 
 2.472504e-03  -1.699585e-03  0 
 2.239857e-03  -5.645120e-03  0 
 1.095040e-03  -4.996467e-03  0 
 1.318450e-03  -4.272789e-03  0 
 5.028822e-03  -5.783612e-03  0 
 5.879046e-03  -3.592125e-03  0 
 3.843043e-03  -3.580687e-03  0 
 4.868168e-03  -3.821629e-03  0 
 5.241022e-03  -6.971167e-03  0 
 6.682066e-03  -4.491566e-03  0 
 2.992805e-03  -4.523574e-03  0 
 3.809129e-03  -6.019703e-03  0 
 6.148618e-03  -5.730137e-03  0 
 4.291945e-03  -4.785127e-03  0 
 5.453922e-03  -4.788867e-03  0 
 6.911484e-03  -3.407361e-03  0 
 2.703404e-03  -3.373200e-03  0 
VECTORS displacement_ITER19 FLOAT
 1.966148e-03  -2.552344e-03  0 
 6.649352e-03  -2.782444e-03  0 
 7.669705e-04  -2.540609e-03  0 
 3.318749e-03  -2.659494e-03  0 
 4.479849e-03  -2.736050e-03  0 
 5.573374e-03  -2.769488e-03  0 
 2.123800e-03  -3.807595e-03  0 
 2.214890e-03  -4.991178e-03  0 
 6.651896e-03  -3.855417e-03  0 
 6.647453e-03  -4.923648e-03  0 
 3.377441e-03  -1.558590e-03  0 
 4.081636e-03  -1.408937e-03  0 
 2.430152e-03  -2.287559e-03  0 
 2.558579e-03  -1.650759e-03  0 
 2.521723e-03  -5.172134e-03  0 
 1.765235e-03  -4.728295e-03  0 
 1.872390e-03  -4.103571e-03  0 
 4.597391e-03  -5.201165e-03  0 
 5.228030e-03  -3.581571e-03  0 
 3.720085e-03  -3.572024e-03  0 
 4.481335e-03  -3.751903e-03  0 
 4.750599e-03  -6.068400e-03  0 
 5.817258e-03  -4.243046e-03  0 
 3.083691e-03  -4.277214e-03  0 
 3.697477e-03  -5.383662e-03  0 
 5.421807e-03  -5.156971e-03  0 
 4.054675e-03  -4.468159e-03  0 
 4.912698e-03  -4.466316e-03  0 
 5.985990e-03  -3.446242e-03  0 
 2.855773e-03  -3.414231e-03  0 
VECTORS displacement_ITER20 FLOAT
 2.331309e-03  -2.387040e-03  0 
 7.482989e-03  -2.607114e-03  0 
 2.700052e-03  -3.643820e-03  0 
 3.799079e-03  -2.490968e-03  0 
 5.076432e-03  -2.565067e-03  0 
 6.287711e-03  -2.595652e-03  0 
 2.488543e-03  -3.755129e-03  0 
 2.579584e-03  -5.053331e-03  0 
 7.485393e-03  -3.800291e-03  0 
 7.481284e-03  -4.988362e-03  0 
 3.924710e-03  -1.612301e-03  0 
 4.809387e-03  -1.533555e-03  0 
 3.097507e-03  -2.348602e-03  0 
 3.340713e-03  -2.295460e-03  0 
 2.020906e-03  -4.642831e-03  0 
 1.952657e-03  -4.734253e-03  0 
 2.013671e-03  -3.803153e-03  0 
 5.206380e-03  -5.288782e-03  0 
 5.903480e-03  -3.496915e-03  0 
 4.237411e-03  -3.489188e-03  0 
 5.077278e-03  -3.685977e-03  0 
 5.377562e-03  -6.252590e-03  0 
 6.557738e-03  -4.230311e-03  0 
 3.537406e-03  -4.265307e-03  0 
 4.210420e-03  -5.486457e-03  0 
 6.120447e-03  -5.242395e-03  0 
 4.605375e-03  -4.476345e-03  0 
 5.554828e-03  -4.475879e-03  0 
 6.745246e-03  -3.345886e-03  0 
 3.291547e-03  -3.318058e-03  0 
VECTORS displacement_ITER21 FLOAT
 2.616294e-03  -1.629920e-03  0 
 7.211314e-03  -1.845634e-03  0 
 2.725400e-03  -1.704956e-03  0 
 3.944967e-03  -1.731863e-03  0 
 5.082269e-03  -1.805378e-03  0 
 6.153220e-03  -1.835135e-03  0 
 2.774302e-03  -2.856031e-03  0 
 2.865869e-03  -4.012952e-03  0 
 7.212749e-03  -2.900892e-03  0 
 7.208526e-03  -3.950473e-03  0 
 4.086800e-03  -1.023202e-03  0 
 4.905487e-03  -1.139913e-03  0 
 3.354440e-03  -1.315785e-03  0 
 3.391024e-03  -1.331714e-03  0 
 2.755213e-03  -3.655482e-03  0 
 2.394349e-03  -3.620958e-03  0 
 2.423962e-03  -2.919416e-03  0 
 5.196076e-03  -4.219813e-03  0 
 5.814303e-03  -2.632308e-03  0 
 4.337314e-03  -2.625605e-03  0 
 5.082765e-03  -2.800234e-03  0 
 5.346498e-03  -5.069439e-03  0 
 6.392699e-03  -3.281334e-03  0 
 3.713516e-03  -3.316699e-03  0 
 4.313972e-03  -4.398063e-03  0 
 6.005169e-03  -4.177138e-03  0 
 4.664203e-03  -3.502165e-03  0 
 5.505244e-03  -3.499755e-03  0 
 6.558388e-03  -2.499291e-03  0 
 3.489745e-03  -2.472895e-03  0 
VECTORS displacement_ITER22 FLOAT
 2.179151e-03  -1.752788e-03  0 
 6.984003e-03  -1.959265e-03  0 
 2.523024e-03  -1.455498e-03  0 
 3.558429e-03  -1.851143e-03  0 
 4.747481e-03  -1.922403e-03  0 
 5.871468e-03  -1.949980e-03  0 
 2.336720e-03  -3.026804e-03  0 
 2.428178e-03  -4.233202e-03  0 
 6.984891e-03  -3.069122e-03  0 
 6.980705e-03  -4.173036e-03  0 
 3.756328e-03  -1.331245e-03  0 
 4.722979e-03  -1.513761e-03  0 
 3.045474e-03  -1.422348e-03  0 
 2.945615e-03  -1.942095e-03  0 
 2.515958e-03  -3.943151e-03  0 
 1.950913e-03  -3.774343e-03  0 
 1.989357e-03  -3.143117e-03  0 
 4.866429e-03  -4.452191e-03  0 
 5.514743e-03  -2.787551e-03  0 
 3.966801e-03  -2.782448e-03  0 
 4.747418e-03  -2.964147e-03  0 
 5.024965e-03  -5.345147e-03  0 
 6.122530e-03  -3.468840e-03  0 
 3.314605e-03  -3.505009e-03  0 
 3.941235e-03  -4.636899e-03  0 
 5.716107e-03  -4.408641e-03  0 
 4.308399e-03  -3.699162e-03  0 
 5.190585e-03  -3.697238e-03  0 
 6.296901e-03  -2.647265e-03  0 
 3.083068e-03  -2.624547e-03  0 
VECTORS displacement_ITER23 FLOAT
 2.270020e-03  -1.965508e-03  0 
 6.672386e-03  -2.164769e-03  0 
 2.728358e-03  -1.624837e-03  0 
 3.547202e-03  -2.061293e-03  0 
 4.635086e-03  -2.130814e-03  0 
 5.659224e-03  -2.156667e-03  0 
 2.427506e-03  -3.135265e-03  0 
 2.519170e-03  -4.238640e-03  0 
 6.672898e-03  -3.175742e-03  0 
 6.668656e-03  -4.180729e-03  0 
 3.698670e-03  -1.761398e-03  0 
 4.655780e-03  -1.968782e-03  0 
 3.062507e-03  -1.724255e-03  0 
 2.839637e-03  -2.548595e-03  0 
 2.474328e-03  -3.950616e-03  0 
 2.004525e-03  -3.834575e-03  0 
 2.028567e-03  -3.216689e-03  0 
 4.742097e-03  -4.437579e-03  0 
 5.334204e-03  -2.919974e-03  0 
 3.922050e-03  -2.916416e-03  0 
 4.634598e-03  -3.081766e-03  0 
 4.885682e-03  -5.248291e-03  0 
 5.887358e-03  -3.540192e-03  0 
 3.325276e-03  -3.577288e-03  0 
 3.899190e-03  -4.607814e-03  0 
 5.516288e-03  -4.396835e-03  0 
 4.233917e-03  -3.752964e-03  0 
 5.038060e-03  -3.749579e-03  0 
 6.046463e-03  -2.791756e-03  0 
 3.109916e-03  -2.772121e-03  0 
VECTORS displacement_ITER24 FLOAT
 2.372084e-03  -2.632668e-03  0 
 5.691868e-03  -2.826710e-03  0 
 2.186975e-03  -1.786417e-03  0 
 3.378518e-03  -2.726560e-03  0 
 4.195334e-03  -2.795128e-03  0 
 4.948392e-03  -2.820166e-03  0 
 2.530820e-03  -3.528368e-03  0 
 2.623710e-03  -4.358873e-03  0 
 5.691808e-03  -3.568272e-03  0 
 5.687711e-03  -4.303374e-03  0 
 3.448933e-03  -2.601249e-03  0 
 4.218645e-03  -2.846109e-03  0 
 2.847064e-03  -2.351091e-03  0 
 2.493674e-03  -2.799939e-03  0 
 2.468953e-03  -3.863776e-03  0 
 2.067834e-03  -3.939392e-03  0 
 2.050765e-03  -3.434225e-03  0 
 4.270907e-03  -4.502057e-03  0 
 4.710794e-03  -3.381038e-03  0 
 3.664780e-03  -3.379247e-03  0 
 4.194409e-03  -3.501976e-03  0 
 4.373567e-03  -5.090564e-03  0 
 5.115837e-03  -3.836324e-03  0 
 3.216474e-03  -3.874878e-03  0 
 3.650023e-03  -4.634832e-03  0 
 4.840701e-03  -4.467859e-03  0 
 3.897390e-03  -4.001658e-03  0 
 4.490813e-03  -3.994242e-03  0 
 5.232713e-03  -3.286927e-03  0 
 3.043629e-03  -3.269659e-03  0 
VECTORS displacement_ITER25 FLOAT
 2.063171e-03  -2.736467e-03  0 
 5.193011e-03  -2.922149e-03  0 
 2.452872e-03  -3.100803e-03  0 
 3.020380e-03  -2.827612e-03  0 
 3.789350e-03  -2.893886e-03  0 
 4.495670e-03  -2.916851e-03  0 
 2.221964e-03  -3.580476e-03  0 
 2.315403e-03  -4.361143e-03  0 
 5.192708e-03  -3.618091e-03  0 
 5.188906e-03  -4.307499e-03  0 
 3.107467e-03  -2.803104e-03  0 
 3.900403e-03  -2.939900e-03  0 
 2.519871e-03  -2.743205e-03  0 
 2.346756e-03  -3.077954e-03  0 
 1.324628e-03  -3.391690e-03  0 
 1.493241e-03  -3.940107e-03  0 
 1.463388e-03  -3.212431e-03  0 
 3.858403e-03  -4.495453e-03  0 
 4.272504e-03  -3.443324e-03  0 
 3.290390e-03  -3.443616e-03  0 
 3.787813e-03  -3.557928e-03  0 
 3.953756e-03  -5.045097e-03  0 
 4.652047e-03  -3.869724e-03  0 
 2.868693e-03  -3.909850e-03  0 
 3.276810e-03  -4.621081e-03  0 
 4.393113e-03  -4.462527e-03  0 
 3.508661e-03  -4.027616e-03  0 
 4.065308e-03  -4.019089e-03  0 
 4.762016e-03  -3.354394e-03  0 
 2.703523e-03  -3.340967e-03  0 
VECTORS displacement_ITER26 FLOAT
 1.888945e-03  -2.502722e-03  0 
 4.368940e-03  -2.682062e-03  0 
 2.259521e-03  -3.243726e-03  0 
 2.681946e-03  -2.591490e-03  0 
 3.287925e-03  -2.655840e-03  0 
 3.832409e-03  -2.677344e-03  0 
 2.047755e-03  -3.180638e-03  0 
 2.141669e-03  -3.796362e-03  0 
 4.368315e-03  -3.217059e-03  0 
 4.364656e-03  -3.745817e-03  0 
 2.736710e-03  -2.608601e-03  0 
 3.407538e-03  -2.686739e-03  0 
 2.201598e-03  -2.609998e-03  0 
 2.105395e-03  -2.677183e-03  0 
 1.063303e-03  -2.644116e-03  0 
 1.420758e-03  -3.405277e-03  0 
 1.322935e-03  -2.712236e-03  0 
 3.338172e-03  -3.898156e-03  0 
 3.661162e-03  -3.083323e-03  0 
 2.898307e-03  -3.085243e-03  0 
 3.285960e-03  -3.173669e-03  0 
 3.409402e-03  -4.315146e-03  0 
 3.952450e-03  -3.411266e-03  0 
 2.566025e-03  -3.452153e-03  0 
 2.889375e-03  -4.000641e-03  0 
 3.750726e-03  -3.869712e-03  0 
 3.068852e-03  -3.540459e-03  0 
 3.499431e-03  -3.529781e-03  0 
 4.037404e-03  -3.014610e-03  0 
 2.426774e-03  -3.003864e-03  0 
VECTORS displacement_ITER27 FLOAT
 1.944499e-03  -3.057844e-03  0 
 4.502436e-03  -3.231694e-03  0 
 1.429261e-03  -2.666246e-03  0 
 2.755738e-03  -3.144243e-03  0 
 3.380995e-03  -3.206854e-03  0 
 3.945365e-03  -3.227201e-03  0 
 2.103174e-03  -3.752346e-03  0 
 2.197310e-03  -4.385411e-03  0 
 4.501844e-03  -3.787285e-03  0 
 4.498480e-03  -4.336786e-03  0 
 2.907051e-03  -2.993013e-03  0 
 3.592261e-03  -3.095763e-03  0 
 2.222056e-03  -2.830242e-03  0 
 2.079548e-03  -2.351799e-03  0 
 1.625058e-03  -3.220774e-03  0 
 1.720168e-03  -3.879345e-03  0 
 1.573039e-03  -3.347581e-03  0 
 3.432829e-03  -4.492856e-03  0 
 3.767349e-03  -3.648584e-03  0 
 2.977771e-03  -3.651720e-03  0 
 3.378569e-03  -3.742491e-03  0 
 3.507229e-03  -4.926595e-03  0 
 4.069808e-03  -3.988725e-03  0 
 2.635060e-03  -4.030282e-03  0 
 2.967951e-03  -4.597391e-03  0 
 3.860684e-03  -4.464159e-03  0 
 3.153677e-03  -4.121779e-03  0 
 3.599745e-03  -4.111252e-03  0 
 4.158075e-03  -3.577063e-03  0 
 2.493039e-03  -3.568756e-03  0 
VECTORS displacement_ITER28 FLOAT
 2.136498e-03  -3.155066e-03  0 
 4.310077e-03  -3.327384e-03  0 
 1.759692e-03  -2.701522e-03  0 
 2.850332e-03  -3.240491e-03  0 
 3.379214e-03  -3.302513e-03  0 
 3.848113e-03  -3.322643e-03  0 
 2.294606e-03  -3.752138e-03  0 
 2.388547e-03  -4.288031e-03  0 
 4.309492e-03  -3.787580e-03  0 
 4.306201e-03  -4.242187e-03  0 
 2.934838e-03  -3.083270e-03  0 
 3.538636e-03  -3.201420e-03  0 
 2.336390e-03  -2.862754e-03  0 
 2.126714e-03  -2.454588e-03  0 
 1.422990e-03  -3.065861e-03  0 
 1.894068e-03  -3.901796e-03  0 
 1.715697e-03  -3.283942e-03  0 
 3.420783e-03  -4.376802e-03  0 
 3.700960e-03  -3.672725e-03  0 
 3.040797e-03  -3.675908e-03  0 
 3.376832e-03  -3.751872e-03  0 
 3.481405e-03  -4.732835e-03  0 
 3.951384e-03  -3.955017e-03  0 
 2.750829e-03  -3.995760e-03  0 
 3.033941e-03  -4.467341e-03  0 
 3.776265e-03  -4.351084e-03  0 