# vtk DataFile Version 3.1
this is an vtk file created by FEMAC
ASCII
DATASET UNSTRUCTURED_GRID
POINTS 814 FLOAT
0.000000 0.000000 0.000000
1.000000 0.000000 0.000000
2.000000 0.000000 0.000000
3.000000 0.000000 0.000000
4.000000 0.000000 0.000000
5.000000 0.000000 0.000000
6.000000 0.000000 0.000000
0.000000 1.000000 0.000000
1.000000 1.000000 0.000000
0.000000 2.000000 0.000000
1.000000 2.000000 0.000000
0.000000 3.000000 0.000000
1.000000 3.000000 0.000000
0.000000 4.000000 0.000000
1.000000 4.000000 0.000000
0.000000 5.000000 0.000000
1.000000 5.000000 0.000000
0.000000 6.000000 0.000000
1.000000 6.000000 0.000000
2.000000 1.000000 0.000000
2.000000 2.000000 0.000000
2.000000 3.000000 0.000000
2.000000 4.000000 0.000000
2.000000 5.000000 0.000000
2.000000 6.000000 0.000000
3.000000 1.000000 0.000000
3.000000 2.000000 0.000000
3.000000 3.000000 0.000000
3.000000 4.000000 0.000000
3.000000 5.000000 0.000000
3.000000 6.000000 0.000000
4.000000 1.000000 0.000000
4.000000 2.000000 0.000000
4.000000 3.000000 0.000000
4.000000 4.000000 0.000000
4.000000 5.000000 0.000000
4.000000 6.000000 0.000000
5.000000 1.000000 0.000000
5.000000 2.000000 0.000000
5.000000 3.000000 0.000000
5.000000 4.000000 0.000000
5.000000 5.000000 0.000000
5.000000 6.000000 0.000000
6.000000 1.000000 0.000000
6.000000 2.000000 0.000000
6.000000 3.000000 0.000000
6.000000 4.000000 0.000000
6.000000 5.000000 0.000000
6.000000 6.000000 0.000000
0.250000 0.000000 0.000000
0.500000 0.000000 0.000000
0.750000 0.000000 0.000000
1.250000 0.000000 0.000000
1.500000 0.000000 0.000000
1.750000 0.000000 0.000000
2.250000 0.000000 0.000000
2.500000 0.000000 0.000000
2.750000 0.000000 0.000000
3.250000 0.000000 0.000000
3.500000 0.000000 0.000000
3.750000 0.000000 0.000000
4.250000 0.000000 0.000000
4.500000 0.000000 0.000000
4.750000 0.000000 0.000000
5.250000 0.000000 0.000000
5.500000 0.000000 0.000000
5.750000 0.000000 0.000000
0.250000 1.000000 0.000000
0.500000 1.000000 0.000000
0.750000 1.000000 0.000000
0.000000 0.250000 0.000000
0.000000 0.500000 0.000000
0.000000 0.750000 0.000000
1.000000 0.250000 0.000000
1.000000 0.500000 0.000000
1.000000 0.750000 0.000000
0.250000 2.000000 0.000000
0.500000 2.000000 0.000000
0.750000 2.000000 0.000000
0.000000 1.250000 0.000000
0.000000 1.500000 0.000000
0.000000 1.750000 0.000000
1.000000 1.250000 0.000000
1.000000 1.500000 0.000000
1.000000 1.750000 0.000000
0.250000 3.000000 0.000000
0.500000 3.000000 0.000000
0.750000 3.000000 0.000000
0.000000 2.250000 0.000000
0.000000 2.500000 0.000000
0.000000 2.750000 0.000000
1.000000 2.250000 0.000000
1.000000 2.500000 0.000000
1.000000 2.750000 0.000000
0.250000 4.000000 0.000000
0.500000 4.000000 0.000000
0.750000 4.000000 0.000000
0.000000 3.250000 0.000000
0.000000 3.500000 0.000000
0.000000 3.750000 0.000000
1.000000 3.250000 0.000000
1.000000 3.500000 0.000000
1.000000 3.750000 0.000000
0.250000 5.000000 0.000000
0.500000 5.000000 0.000000
0.750000 5.000000 0.000000
0.000000 4.250000 0.000000
0.000000 4.500000 0.000000
0.000000 4.750000 0.000000
1.000000 4.250000 0.000000
1.000000 4.500000 0.000000
1.000000 4.750000 0.000000
0.250000 6.000000 0.000000
0.500000 6.000000 0.000000
0.750000 6.000000 0.000000
0.000000 5.250000 0.000000
0.000000 5.500000 0.000000
0.000000 5.750000 0.000000
1.000000 5.250000 0.000000
1.000000 5.500000 0.000000
1.000000 5.750000 0.000000
1.250000 1.000000 0.000000
1.500000 1.000000 0.000000
1.750000 1.000000 0.000000
2.000000 0.250000 0.000000
2.000000 0.500000 0.000000
2.000000 0.750000 0.000000
1.250000 2.000000 0.000000
1.500000 2.000000 0.000000
1.750000 2.000000 0.000000
2.000000 1.250000 0.000000
2.000000 1.500000 0.000000
2.000000 1.750000 0.000000
1.250000 3.000000 0.000000
1.500000 3.000000 0.000000
1.750000 3.000000 0.000000
2.000000 2.250000 0.000000
2.000000 2.500000 0.000000
2.000000 2.750000 0.000000
1.250000 4.000000 0.000000
1.500000 4.000000 0.000000
1.750000 4.000000 0.000000
2.000000 3.250000 0.000000
2.000000 3.500000 0.000000
2.000000 3.750000 0.000000
1.250000 5.000000 0.000000
1.500000 5.000000 0.000000
1.750000 5.000000 0.000000
2.000000 4.250000 0.000000
2.000000 4.500000 0.000000
2.000000 4.750000 0.000000
1.250000 6.000000 0.000000
1.500000 6.000000 0.000000
1.750000 6.000000 0.000000
2.000000 5.250000 0.000000
2.000000 5.500000 0.000000
2.000000 5.750000 0.000000
2.250000 1.000000 0.000000
2.500000 1.000000 0.000000
2.750000 1.000000 0.000000
3.000000 0.250000 0.000000
3.000000 0.500000 0.000000
3.000000 0.750000 0.000000
2.250000 2.000000 0.000000
2.500000 2.000000 0.000000
2.750000 2.000000 0.000000
3.000000 1.250000 0.000000
3.000000 1.500000 0.000000
3.000000 1.750000 0.000000
2.250000 3.000000 0.000000
2.500000 3.000000 0.000000
2.750000 3.000000 0.000000
3.000000 2.250000 0.000000
3.000000 2.500000 0.000000
3.000000 2.750000 0.000000
2.250000 4.000000 0.000000
2.500000 4.000000 0.000000
2.750000 4.000000 0.000000
3.000000 3.250000 0.000000
3.000000 3.500000 0.000000
3.000000 3.750000 0.000000
2.250000 5.000000 0.000000
2.500000 5.000000 0.000000
2.750000 5.000000 0.000000
3.000000 4.250000 0.000000
3.000000 4.500000 0.000000
3.000000 4.750000 0.000000
2.250000 6.000000 0.000000
2.500000 6.000000 0.000000
2.750000 6.000000 0.000000
3.000000 5.250000 0.000000
3.000000 5.500000 0.000000
3.000000 5.750000 0.000000
3.250000 1.000000 0.000000
3.500000 1.000000 0.000000
3.750000 1.000000 0.000000
4.000000 0.250000 0.000000
4.000000 0.500000 0.000000
4.000000 0.750000 0.000000
3.250000 2.000000 0.000000
3.500000 2.000000 0.000000
3.750000 2.000000 0.000000
4.000000 1.250000 0.000000
4.000000 1.500000 0.000000
4.000000 1.750000 0.000000
3.250000 3.000000 0.000000
3.500000 3.000000 0.000000
3.750000 3.000000 0.000000
4.000000 2.250000 0.000000
4.000000 2.500000 0.000000
4.000000 2.750000 0.000000
3.250000 4.000000 0.000000
3.500000 4.000000 0.000000
3.750000 4.000000 0.000000
4.000000 3.250000 0.000000
4.000000 3.500000 0.000000
4.000000 3.750000 0.000000
3.250000 5.000000 0.000000
3.500000 5.000000 0.000000
3.750000 5.000000 0.000000
4.000000 4.250000 0.000000
4.000000 4.500000 0.000000
4.000000 4.750000 0.000000
3.250000 6.000000 0.000000
3.500000 6.000000 0.000000
3.750000 6.000000 0.000000
4.000000 5.250000 0.000000
4.000000 5.500000 0.000000
4.000000 5.750000 0.000000
4.250000 1.000000 0.000000
4.500000 1.000000 0.000000
4.750000 1.000000 0.000000
5.000000 0.250000 0.000000
5.000000 0.500000 0.000000
5.000000 0.750000 0.000000
4.250000 2.000000 0.000000
4.500000 2.000000 0.000000
4.750000 2.000000 0.000000
5.000000 1.250000 0.000000
5.000000 1.500000 0.000000
5.000000 1.750000 0.000000
4.250000 3.000000 0.000000
4.500000 3.000000 0.000000
4.750000 3.000000 0.000000
5.000000 2.250000 0.000000
5.000000 2.500000 0.000000
5.000000 2.750000 0.000000
4.250000 4.000000 0.000000
4.500000 4.000000 0.000000
4.750000 4.000000 0.000000
5.000000 3.250000 0.000000
5.000000 3.500000 0.000000
5.000000 3.750000 0.000000
4.250000 5.000000 0.000000
4.500000 5.000000 0.000000
4.750000 5.000000 0.000000
5.000000 4.250000 0.000000
5.000000 4.500000 0.000000
5.000000 4.750000 0.000000
4.250000 6.000000 0.000000
4.500000 6.000000 0.000000
4.750000 6.000000 0.000000
5.000000 5.250000 0.000000
5.000000 5.500000 0.000000
5.000000 5.750000 0.000000
5.250000 1.000000 0.000000
5.500000 1.000000 0.000000
5.750000 1.000000 0.000000
6.000000 0.250000 0.000000
6.000000 0.500000 0.000000
6.000000 0.750000 0.000000
5.250000 2.000000 0.000000
5.500000 2.000000 0.000000
5.750000 2.000000 0.000000
6.000000 1.250000 0.000000
6.000000 1.500000 0.000000
6.000000 1.750000 0.000000
5.250000 3.000000 0.000000
5.500000 3.000000 0.000000
5.750000 3.000000 0.000000
6.000000 2.250000 0.000000
6.000000 2.500000 0.000000
6.000000 2.750000 0.000000
5.250000 4.000000 0.000000
5.500000 4.000000 0.000000
5.750000 4.000000 0.000000
6.000000 3.250000 0.000000
6.000000 3.500000 0.000000
6.000000 3.750000 0.000000
5.250000 5.000000 0.000000
5.500000 5.000000 0.000000
5.750000 5.000000 0.000000
6.000000 4.250000 0.000000
6.000000 4.500000 0.000000
6.000000 4.750000 0.000000
5.250000 6.000000 0.000000
5.500000 6.000000 0.000000
5.750000 6.000000 0.000000
6.000000 5.250000 0.000000
6.000000 5.500000 0.000000
6.000000 5.750000 0.000000
0.354092 0.524248 0.000000
0.804015 0.668485 0.000000
0.176539 0.642203 0.000000
0.279348 0.239607 0.000000
0.653111 0.819895 0.000000
0.376524 0.781795 0.000000
0.167416 0.439302 0.000000
0.576925 0.611220 0.000000
0.521903 0.318733 0.000000
0.757669 0.416286 0.000000
0.132337 0.122402 0.000000
0.841425 0.847676 0.000000
0.160613 0.834800 0.000000
0.734095 0.185003 0.000000
0.871024 0.108751 0.000000
0.272476 1.537430 0.000000
0.660302 1.785301 0.000000
0.660045 1.212404 0.000000
0.162952 1.171693 0.000000
0.825570 1.361866 0.000000
0.825957 1.628272 0.000000
0.594871 1.497465 0.000000
0.400442 1.782533 0.000000
0.372389 1.253823 0.000000
0.165804 1.339408 0.000000
0.847252 1.832715 0.000000
0.847123 1.164854 0.000000
0.153820 1.761660 0.000000
0.272476 2.537430 0.000000
0.660302 2.785301 0.000000
0.660045 2.212404 0.000000
0.162952 2.171693 0.000000
0.825570 2.361866 0.000000
0.825957 2.628272 0.000000
0.594871 2.497465 0.000000
0.400442 2.782533 0.000000
0.372389 2.253823 0.000000
0.165804 2.339408 0.000000
0.847252 2.832715 0.000000
0.847123 2.164854 0.000000
0.153820 2.761660 0.000000
0.272476 3.537430 0.000000
0.660302 3.785301 0.000000
0.660045 3.212404 0.000000
0.162952 3.171693 0.000000
0.825570 3.361866 0.000000
0.825957 3.628272 0.000000
0.594871 3.497465 0.000000
0.400442 3.782533 0.000000
0.372389 3.253823 0.000000
0.165804 3.339408 0.000000
0.847252 3.832715 0.000000
0.847123 3.164854 0.000000
0.153820 3.761660 0.000000
0.272476 4.537430 0.000000
0.660302 4.785301 0.000000
0.660045 4.212404 0.000000
0.162952 4.171693 0.000000
0.825570 4.361866 0.000000
0.825957 4.628272 0.000000
0.594871 4.497465 0.000000
0.400442 4.782533 0.000000
0.372389 4.253823 0.000000
0.165804 4.339408 0.000000
0.847252 4.832715 0.000000
[...]
POINT_DATA 814
SCALARS CONDID_1 FLOAT
LOOKUP_TABLE default
 1 
 0 
 0 
 0 
 0 
 0 
 0 
 0 
 0 
 0 
 0 
 0 
 0 
 0 
 0 
 0 
 0 
 0 
 0 
 0 
 0 
 0 
 0 
 0 
 0 
 0 
 0 
 0 
 0 
 0 
 0 
 0 
 0 
 0 
 0 
 0 
 0 
 0 
 0 
 0 
 0 
 0 
 0 
 0 
 0 
 0 
 0 
 0 
 0 
 0 
 0 
 0 
 0 
 0 
 0 
 0 
 0 
 0 
 0 
 0 
 0 
 0 
 0 
 0 
 0 
 0 
 0 
 0 
 0 
 0 
 0 
 0 
 0 
 0 
 0 
 0 
 0 
 0 
 0 
 0 
 0 
 0 
 0 
 0 
 0 
 0 
 0 
 0 
 0 
 0 
 0 
 0 
 0 
 0 
 0 
 0 
 0 
 0 
 0 
 0 
 0 
 0 
 0 
 0 
 0 
 0 
 0 
 0 
 0 
 0 
 0 
 0 
 0 
 0 
 0 
 0 
 0 
 0 
 0 
 0 
 0 
 0 
 0 
 0 
 0 
 0 
 0 
 0 
 0 
 0 
 0 
 0 
 0 
 0 
 0 
 0 
 0 
 0 
 0 
 0 
 0 
 0 
 0 
 0 
 0 
 0 
 0 
 0 
 0 
 0 
 0 
 0 
 0 
 0 
 0 
 0 
 0 
 0 
 0 
 0 
 0 
 0 
 0 
 0 
 0 
 0 
 0 
 0 
 0 
 0 
 0 
 0 
 0 
 0 
 0 
 0 
 0 
 0 
 0 
 0 
 0 
 0 
 0 
 0 
 0 
 0 
 0 
 0 
 0 
 0 
 0 
 0 
 0 
 0 
 0 
 0 
 0 
 0 
 0 
 0 
 0 
 0 
 0 
 0 
 0 
 0 
 0 
 0 
 0 
 0 
 0 
 0 
 0 
 0 
 0 
 0 
 0 
 0 
 0 
 0 
 0 
 0 
 0 
 0 
 0 
 0 
 0 
 0 
 0 
 0 
 0 
 0 
 0 
 0 
 0 
 0 
 0 
 0 
 0 
 0 
 0 
 0 
 0 
 0 
 0 
 0 
 0 
 0 
 0 
 0 
 0 
 0 
 0 
 0 
 0 
 0 
 0 
 0 
 0 
 0 
 0 
 0 
 0 
 0 
 0 
 0 
 0 
 0 
 0 
 0 
 0 
 0 
 0 
 0 
 0 
 0 
 0 
 0 
 0 
 0 
 0 
 0 
 0 
 0 
 0 
 0 
 0 
 0 
 0 
 0 
 0 
 0 
 0 
 0 
 0 
 0 
 0 
 0 
 0 
 0 
 0 
 0 
 0 
 0 
 0 
 0 
 0 
 0 
 0 
 0 
 0 
 0 
 0 
 0 
 0 
 0 
 0 
 0 
 0 
 0 
 0 
 0 
 0 
 0 
 0 
 0 
 0 
 0 
 0 
 0 
 0 
 0 
 0 
 0 
 0 
 0 
 0 
 0 
 0 
 0 
 0 
 0 
 0 
 0 
 0 
 0 
 0 
 0 
 0 
 0 
 0 
 0 
 0 
 0 
 0 
 0 
 0 
 0 
 0 
 0 
 0 
 0 
 0 
 0 
 0 
 0 
 0 
 0 
 0 
 0 
 0 
 0 
 0 
 0 
 0 
 0 
 0 
 0 
 0 
 0 
 0 
 0 
 0 
 0 
 0 
 0 
 0 
 0 
 0 
 0 
 0 
 0 
 0 
 0 
 0 
 0 
 0 
 0 
 0 
 0 
 0 
 0 
 0 
 0 
 0 
 0 
 0 
 0 
 0 
 0 
 0 
 0 
 0 
 0 
 0 
 0 
 0 
 0 
 0 
 0 
 0 
 0 
 0 
 0 
 0 
 0 
 0 
 0 
 0 
 0 
 0 
 0 
 0 
 0 
 0 
 0 
 0 
 0 
 0 
 0 
 0 
 0 
 0 
 0 
 0 
 0 
 0 
 0 
 0 
 0 
 0 
 0 
 0 
 0 
 0 
 0 
 0 
 0 
 0 
 0 
 0 
 0 
 0 
 0 
 0 
 0 
 0 
 0 
 0 
 0 
 0 
 0 
 0 
 0 
 0 
 0 
 0 
 0 
 0 
 0 
 0 
 0 
 0 
 0 
 0 
 0 
 0 
 0 
 0 
 0 
 0 
 0 
 0 
 0 
 0 
 0 
 0 
 0 
 0 
 0 
 0 
 0 
 0 
 0 
 0 
 0 
 0 
 0 
 0 
 0 
 0 
 0 
 0 
 0 
 0 
 0 
 0 
 0 
 0 
 0 
 0 
 0 
 0 
 0 
 0 
 0 
 0 
 0 
 0 
 0 
 0 
 0 
 0 
 0 
 0 
 0 
 0 
 0 
 0 
 0 
 0 
 0 
 0 
 0 
 0 
 0 
 0 
 0 
 0 
 0 
 0 
 0 
 0 
 0 
 0 
 0 
 0 
 0 
 0 
 0 
 0 
 0 
 0 
 0 
 0 
 0 
 0 
 0 
 0 
 0 
 0 
 0 
 0 
 0 
 0 
 0 
 0 
 0 
 0 
 0 
 0 
 0 
 0 
 0 
 0 
 0 
 0 
 0 
 0 
 0 
 0 
 0 
 0 
 0 
 0 
 0 
 0 
 0 
 0 
 0 
 0 
 0 
 0 
 0 
 0 
 0 
 0 
 0 
 0 
 0 
 0 
 0 
 0 
 0 
 0 
 0 
 0 
 0 
 0 
 0 
 0 
 0 
 0 
 0 
 0 
 0 
 0 
 0 
 0 
 0 
 0 
 0 
 0 
 0 
 0 
 0 
 0 
 0 
 0 
 0 
 0 
 0 
 0 
 0 
 0 
 0 
 0 
 0 
 0 
 0 
 0 
 0 
 0 
 0 
 0 
 0 
 0 
 0 
 0 
 0 
 0 
 0 
 0 
 0 
 0 
 0 
 0 
 0 
 0 
 0 
 0 
 0 
 0 
 0 
 0 
 0 
 0 
 0 
 0 
 0 
 0 
 0 
 0 
 0 
 0 
 0 
 0 
 0 
 0 
 0 
 0 
 0 
 0 
 0 
 0 
 0 
 0 
 0 
 0 
 0 
 0 
 0 
 0 
 0 
 0 
 0 
 0 
 0 
 0 
 0 
 0 
 0 
 0 
 0 
 0 
 0 
 0 
 0 
 0 
 0 
 0 
 0 
 0 
 0 
 0 
 0 
 0 
 0 
 0 
 0 
 0 
 0 
 0 
 0 
 0 
 0 
 0 
 0 
 0 
 0 
 0 
 0 
 0 
 0 
 0 
 0 
 0 
 0 
 0 
 0 
 0 
 0 
 0 
 0 
 0 
 0 
 0 
 0 
 0 
 0 
 0 
 0 
 0 
 0 
 0 
 0 
 0 
 0 
 0 
 0 
 0 
 0 
 0 
 0 
 0 
 0 
 0 
 0 
 0 
 0 
 0 
 0 
 0 
 0 
 0 
 0 
 0 
 0 
 0 
 0 
 0 
 0 
 0 
 0 
 0 
 0 
 0 
 0 
 0 
 0 
 0 
 0 
 0 
 0 
 0 
 0 
 0 
 0 
 0 
 0 
 0 
 0 
 0 
 0 
SCALARS CONDID_2 FLOAT
LOOKUP_TABLE default
 1 
 0 
 0 
 0 
 0 
 0 
 0 
 1 
 0 
 1 
 0 
 1 
 0 
 1 
 0 
 1 
 0 
 1 
 0 
 0 
 0 
 0 
 0 
 0 
 0 
 0 
 0 
 0 
 0 
 0 
 0 
 0 
 0 
 0 
 0 
 0 
 0 
 0 
 0 
 0 
 0 
 0 
 0 
 0 
 0 
 0 
 0 
 0 
 0 
 0 
 0 
 0 
 0 
 0 
 0 
 0 
 0 
 0 
 0 
 0 
 0 
 0 
 0 
 0 
 0 
 0 
 0 
 0 
 0 
 0 
 1 
 1 
 1 
 0 
 0 
 0 
 0 
 0 
 0 
 1 
 1 
 1 
 0 
 0 
 0 
 0 
 0 
 0 
 1 
 1 
 1 
 0 
 0 
 0 
 0 
 0 
 0 
 1 
 1 
 1 
 0 
 0 
 0 
 0 
 0 
 0 
 1 
 1 
 1 
 0 
 0 
 0 
 0 
 0 
 0 
 1 
 1 
 1 
 0 
 0 
 0 
 0 
 0 
 0 
 0 
 0 
 0 
 0 
 0 
 0 
 0 
 0 
 0 
 0 
 0 
 0 
 0 
 0 
 0 
 0 
 0 
 0 
 0 
 0 
 0 
 0 
 0 
 0 
 0 
 0 
 0 
 0 
 0 
 0 
 0 
 0 
 0 
 0 
 0 
 0 
 0 
 0 
 0 
 0 
 0 
 0 
 0 
 0 
 0 
 0 
 0 
 0 
 0 
 0 
 0 
 0 
 0 
 0 
 0 
 0 
 0 
 0 
 0 
 0 
 0 
 0 
 0 
 0 
 0 
 0 
 0 
 0 
 0 
 0 
 0 
 0 
 0 
 0 
 0 
 0 
 0 
 0 
 0 
 0 
 0 
 0 
 0 
 0 
 0 
 0 
 0 
 0 
 0 
 0 
 0 
 0 
 0 
 0 
 0 
 0 
 0 
 0 
 0 
 0 
 0 
 0 
 0 
 0 
 0 
 0 
 0 
 0 
 0 
 0 
 0 
 0 
 0 
 0 
 0 
 0 
 0 
 0 
 0 
 0 
 0 
 0 
 0 
 0 
 0 
 0 
 0 
 0 
 0 
 0 
 0 
 0 
 0 
 0 
 0 
 0 
 0 
 0 
 0 
 0 
 0 
 0 
 0 
 0 
 0 
 0 
 0 
 0 
 0 
 0 
 0 
 0 
 0 
 0 
 0 
 0 
 0 
 0 
 0 
 0 
 0 
 0 
 0 
 0 
 0 
 0 
 0 
 0 
 0 
 0 
 0 
 0 
 0 
 0 
 0 
 0 
 0 
 0 
 0 
 0 
 0 
 0 
 0 
 0 
 0 
 0 
 0 
 0 
 0 
 0 
 0 
 0 
 0 
 0 
 0 
 0 
 0 
 0 
 0 
 0 
 0 
 0 
 0 
 0 
 0 
 0 
 0 
 0 
 0 
 0 
 0 
 0 
 0 
 0 
 0 
 0 
 0 
 0 
 0 
 0 
 0 
 0 
 0 
 0 
 0 
 0 
 0 
 0 
 0 
 0 
 0 
 0 
 0 
 0 
 0 
 0 
 0 
 0 
 0 
 0 
 0 
 0 
 0 
 0 
 0 
 0 
 0 
 0 
 0 
 0 
 0 
 0 
 0 
 0 
 0 
 0 
 0 
 0 
 0 
 0 
 0 
 0 
 0 
 0 
 0 
 0 
 0 
 0 
 0 
 0 
 0 
 0 
 0 
 0 
 0 
 0 
 0 
 0 
 0 
 0 
 0 
 0 
 0 
 0 
 0 
 0 
 0 
 0 
 0 
 0 
 0 
 0 
 0 
 0 
 0 
 0 
 0 
 0 
 0 
 0 
 0 
 0 
 0 
 0 
 0 
 0 
 0 
 0 
 0 
 0 
 0 
 0 
 0 
 0 
 0 
 0 
 0 
 0 
 0 
 0 
 0 
 0 
 0 
 0 
 0 
 0 
 0 
 0 
 0 
 0 
 0 
 0 
 0 
 0 
 0 
 0 
 0 
 0 
 0 
 0 
 0 
 0 
 0 
 0 
 0 
 0 
 0 
 0 
 0 
 0 
 0 
 0 
 0 
 0 
 0 
 0 
 0 
 0 
 0 
 0 
 0 
 0 
 0 
 0 
 0 
 0 
 0 
 0 
 0 
 0 
 0 
 0 
 0 
 0 
 0 
 0 
 0 
 0 
 0 
 0 
 0 
 0 
 0 
 0 
 0 
 0 
 0 
 0 
 0 
 0 
 0 
 0 
 0 
 0 
 0 
 0 
 0 
 0 
 0 
 0 
 0 
 0 
 0 
 0 
 0 
 0 
 0 
 0 
 0 
 0 
 0 
 0 
 0 
 0 
 0 
 0 
 0 
 0 
 0 
 0 
 0 
 0 
 0 
 0 
 0 
 0 
 0 
 0 
 0 
 0 
 0 
 0 
 0 
 0 
 0 
 0 
 0 
 0 
 0 
 0 
 0 
 0 
 0 
 0 
 0 
 0 
 0 
 0 
 0 
 0 
 0 
 0 
 0 
 0 
 0 
 0 
 0 
 0 
 0 
 0 
 0 
 0 
 0 
 0 
 0 
 0 
 0 
 0 
 0 
 0 
 0 
 0 
 0 
 0 
 0 
 0 
 0 
 0 
 0 
 0 
 0 
 0 
 0 
 0 
 0 
 0 
 0 
 0 
 0 
 0 
 0 
 0 
 0 
 0 
 0 
 0 
 0 
 0 
 0 
 0 
 0 
 0 
 0 
 0 
 0 
 0 
 0 
 0 
 0 
 0 
 0 
 0 
 0 
 0 
 0 
 0 
 0 
 0 
 0 
 0 
 0 
 0 
 0 
 0 
 0 
 0 
 0 
 0 
 0 
 0 
 0 
 0 
 0 
 0 
 0 
 0 
 0 
 0 
 0 
 0 
 0 
 0 
 0 
 0 
 0 
 0 
 0 
 0 
 0 
 0 
 0 
 0 
 0 
 0 
 0 
 0 
 0 
 0 
 0 
 0 
 0 
 0 
 0 
 0 
 0 
 0 
 0 
 0 
 0 
 0 
 0 
 0 
 0 
 0 
 0 
 0 
 0 
 0 
 0 
 0 
 0 
 0 
 0 
 0 
 0 
 0 
 0 
 0 
 0 
 0 
 0 
 0 
 0 
 0 
 0 
 0 
 0 
 0 
 0 
 0 
 0 
 0 
 0 
 0 
 0 
 0 
 0 
 0 
 0 
 0 
 0 
 0 
 0 
 0 
 0 
 0 
 0 
 0 
 0 
 0 
 0 
 0 
 0 
 0 
 0 
 0 
 0 
 0 
 0 
 0 
 0 
 0 
 0 
 0 
 0 
 0 
 0 
 0 
 0 
 0 
 0 
 0 
 0 
 0 
 0 
 0 
 0 
 0 
 0 
 0 
 0 
 0 
 0 
 0 
 0 
 0 
 0 
 0 
 0 
 0 
 0 
 0 
 0 
 0 
 0 
 0 
 0 
 0 
 0 
 0 
 0 
 0 
 0 
 0 
 0 
 0 
 0 
 0 
 0 
 0 
 0 
 0 
 0 
 0 
 0 
 0 
 0 
 0 
 0 
 0 
SCALARS CONDID_3 FLOAT
LOOKUP_TABLE default
 0 
 0 
 0 
 0 
 0 
 0 
 1 
 0 
 0 
 0 
 0 
 0 
 0 
 0 
 0 
 0 
 0 
 0 
 0 
 0 
 0 
 0 
 0 
 0 
 0 
 0 
 0 
 0 
 0 
 0 
 0 
 0 
 0 
 0 
 0 
 0 
 0 
 0 
 0 
 0 
 0 
 0 
 0 
 1 
 1 
 1 
 1 
 1 
 1 
 0 
 0 
 0 
 0 
 0 
 0 
 0 
 0 
 0 
 0 
 0 
 0 
 0 
 0 
 0 
 0 
 0 
 0 
 0 
 0 
 0 
 0 
 0 
 0 
 0 
 0 
 0 
 0 
 0 
 0 
 0 
 0 
 0 
 0 
 0 
 0 
 0 
 0 
 0 
 0 
 0 
 0 
 0 
 0 
 0 
 0 
 0 
 0 
 0 
 0 
 0 
 0 
 0 
 0 
 0 
 0 
 0 
 0 
 0 
 0 
 0 
 0 
 0 
 0 
 0 
 0 
 0 
 0 
 0 
 0 
 0 
 0 
 0 
 0 
 0 
 0 
 0 
 0 
 0 
 0 
 0 
 0 
 0 
 0 
 0 
 0 
 0 
 0 
 0 
 0 
 0 
 0 
 0 
 0 
 0 
 0 
 0 
 0 
 0 
 0 
 0 
 0 
 0 
 0 
 0 
 0 
 0 
 0 
 0 
 0 
 0 
 0 
 0 
 0 
 0 
 0 
 0 
 0 
 0 
 0 
 0 
 0 
 0 
 0 
 0 
 0 
 0 
 0 
 0 
 0 
 0 
 0 
 0 
 0 
 0 
 0 
 0 
 0 
 0 
 0 
 0 
 0 
 0 
 0 
 0 
 0 
 0 
 0 
 0 
 0 
 0 
 0 
 0 
 0 
 0 
 0 
 0 
 0 
 0 
 0 
 0 
 0 
 0 
 0 
 0 
 0 
 0 
 0 
 0 
 0 
 0 
 0 
 0 
 0 
 0 
 0 
 0 
 0 
 0 
 0 
 0 
 0 
 0 
 0 
 0 
 0 
 0 
 0 
 0 
 0 
 0 
 0 
 0 
 0 
 0 
 0 
 0 
 0 
 0 
 0 
 0 
 0 
 0 
 0 
 0 
 0 
 0 
 0 
 0 
 0 
 0 
 0 
 0 
 0 
 0 
 0 
 0 
 0 
 0 
 1 
 1 
 1 
 0 
 0 
 0 
 1 
 1 
 1 
 0 
 0 
 0 
 1 
 1 
 1 
 0 
 0 
 0 
 1 
 1 
 1 
 0 
 0 
 0 
 1 
 1 
 1 
 0 
 0 
 0 
 1 
 1 
 1 
 0 
 0 
 0 
 0 
 0 
 0 
 0 
 0 
 0 
 0 
 0 
 0 
 0 
 0 
 0 
 0 
 0 
 0 
 0 
 0 
 0 
 0 
 0 
 0 
 0 
 0 
 0 
 0 
 0 
 0 
 0 
 0 
 0 
 0 
 0 
 0 
 0 
 0 
 0 
 0 
 0 
 0 
 0 
 0 
 0 
 0 
 0 
 0 
 0 
 0 
 0 
 0 
 0 
 0 
 0 
 0 
 0 
 0 
 0 
 0 
 0 
 0 
 0 
 0 
 0 
 0 
 0 
 0 
 0 
 0 
 0 
 0 
 0 
 0 
 0 
 0 
 0 
 0 
 0 
 0 
 0 
 0 
 0 
 0 
 0 
 0 
 0 
 0 
 0 
 0 
 0 
 0 
 0 
 0 
 0 
 0 
 0 
 0 
 0 
 0 
 0 
 0 
 0 
 0 
 0 
 0 
 0 
 0 
 0 
 0 
 0 
 0 
 0 
 0 
 0 
 0 
 0 
 0 
 0 
 0 
 0 
 0 
 0 
 0 
 0 
 0 
 0 
 0 
 0 
 0 
 0 
 0 
 0 
 0 
 0 
 0 
 0 
 0 
 0 
 0 
 0 
 0 
 0 
 0 
 0 
 0 
 0 
 0 
 0 
 0 
 0 
 0 
 0 
 0 
 0 
 0 
 0 
 0 
 0 
 0 
 0 
 0 
 0 
 0 
 0 
 0 
 0 
 0 
 0 
 0 
 0 
 0 
 0 
 0 
 0 
 0 
 0 
 0 
 0 
 0 
 0 
 0 
 0 
 0 
 0 
 0 
 0 
 0 
 0 
 0 
 0 
 0 
 0 
 0 
 0 
 0 
 0 
 0 
 0 
 0 
 0 
 0 
 0 
 0 
 0 
 0 
 0 
 0 
 0 
 0 
 0 
 0 
 0 
 0 
 0 
 0 
 0 
 0 
 0 
 0 
 0 
 0 
 0 
 0 
 0 
 0 
 0 
 0 
 0 
 0 
 0 
 0 
 0 
 0 
 0 
 0 
 0 
 0 
 0 
 0 
 0 
 0 
 0 
 0 
 0 
 0 
 0 
 0 
 0 
 0 
 0 
 0 
 0 
 0 
 0 
 0 
 0 
 0 
 0 
 0 
 0 
 0 
 0 
 0 
 0 
 0 
 0 
 0 
 0 
 0 
 0 
 0 
 0 
 0 
 0 
 0 
 0 
 0 
 0 
 0 
 0 
 0 
 0 
 0 
 0 
 0 
 0 
 0 
 0 
 0 
 0 
 0 
 0 
 0 
 0 
 0 
 0 
 0 
 0 
 0 
 0 
 0 
 0 
 0 
 0 
 0 
 0 
 0 
 0 
 0 
 0 
 0 
 0 
 0 
 0 
 0 
 0 
 0 
 0 
 0 
 0 
 0 
 0 
 0 
 0 
 0 
 0 
 0 
 0 
 0 
 0 
 0 
 0 
 0 
 0 
 0 
 0 
 0 
 0 
 0 
 0 
 0 
 0 
 0 
 0 
 0 
 0 
 0 
 0 
 0 
 0 
 0 
 0 
 0 
 0 
 0 
 0 
 0 
 0 
 0 
 0 
 0 
 0 
 0 
 0 
 0 
 0 
 0 
 0 
 0 
 0 
 0 
 0 
 0 
 0 
 0 
 0 
 0 
 0 
 0 
 0 
 0 
 0 
 0 
 0 
 0 
 0 
 0 
 0 
 0 
 0 
 0 
 0 
 0 
 0 
 0 
 0 
 0 
 0 
 0 
 0 
 0 
 0 
 0 
 0 
 0 
 0 
 0 
 0 
 0 
 0 
 0 
 0 
 0 
 0 
 0 
 0 
 0 
 0 
 0 
 0 
 0 
 0 
 0 
 0 
 0 
 0 
 0 
 0 
 0 
 0 
 0 
 0 
 0 
 0 
 0 
 0 
 0 
 0 
 0 
 0 
 0 
 0 
 0 
 0 
 0 
 0 
 0 
 0 
 0 
 0 
 0 
 0 
 0 
 0 
 0 
 0 
 0 
 0 
 0 
 0 
 0 
 0 
 0 
 0 
 0 
 0 
 0 
 0 
 0 
 0 
 0 
 0 
 0 
 0 
 0 
 0 
 0 
 0 
 0 
 0 
 0 
 0 
 0 
 0 
 0 
 0 
 0 
 0 
 0 
 0 
 0 
 0 
 0 
 0 
 0 
 0 
 0 
 0 
 0 
 0 
 0 
 0 
 0 
 0 
 0 
 0 
 0 
 0 
 0 
 0 
 0 
 0 
VECTORS displacement FLOAT
 0  0  0 
 -2.283220e-05  -7.252130e-05  0 
 -3.340519e-03  -1.205033e-03  0 
 -3.331538e-03  -3.055546e-03  0 
 -5.214397e-03  -3.784800e-03  0 
 -5.244068e-03  -6.567298e-03  0 
 -4.231124e-02  -7.603965e-02  0 
 0  0  0 
 -4.842432e-04  -8.200943e-05  0 
 0  0  0 
 -2.021529e-04  -1.473105e-04  0 
 0  0  0 
 1.019420e-05  -1.342422e-04  0 
 0  0  0 
 2.938517e-04  -1.643050e-04  0 
 0  0  0 
 5.845643e-04  -5.657473e-04  0 
 0  0  0 
 2.213798e-03  -8.959177e-04  0 
 -1.131914e-03  -9.265129e-04  0 
 -5.236906e-04  -8.147689e-04  0 
 6.961714e-05  -8.654039e-04  0 
 8.439446e-04  -1.157333e-03  0 
 1.430148e-03  -1.770075e-03  0 
 2.205466e-03  -2.097667e-03  0 
 -1.834989e-03  -2.794233e-03  0 
 -9.307574e-04  -2.223292e-03  0 
 1.398250e-04  -2.133136e-03  0 
 1.281646e-03  -2.302172e-03  0 
 2.036712e-03  -2.321829e-03  0 
 4.702522e-03  -2.456588e-03  0 
 -2.311537e-03  -3.699494e-03  0 
 -1.122014e-03  -3.847605e-03  0 
 1.810544e-04  -3.915420e-03  0 
 1.552999e-03  -4.107412e-03  0 
 2.497114e-03  -4.676542e-03  0 
 4.720612e-03  -4.897283e-03  0 
 -2.655141e-03  -6.345207e-03  0 
 -1.215181e-03  -5.832136e-03  0 
 1.955661e-04  -5.580444e-03  0 
 1.705719e-03  -5.634090e-03  0 
 2.749470e-03  -5.687279e-03  0 
 4.312157e-02  -5.905068e-03  0 
 -2.870071e-03  -7.822946e-03  0 
 -1.198352e-03  -7.870831e-03  0 
 8.874643e-05  -7.428471e-03  0 
 1.858676e-03  -7.448931e-03  0 
 2.772169e-03  -4.627397e-02  0 
 4.319365e-02  -4.627640e-02  0 
 -2.656390e-05  -5.488428e-05  0 
 -2.887160e-05  -8.079676e-05  0 
 -2.311550e-05  -7.715163e-05  0 
 -1.012338e-03  -1.172738e-03  0 
 -1.755447e-03  -1.724835e-03  0 
 -2.429539e-03  -1.766935e-03  0 
 -3.339997e-03  -1.662311e-03  0 
 -3.336695e-03  -2.121622e-03  0 
 -3.333839e-03  -2.586673e-03  0 
 -3.620040e-03  -3.676323e-03  0 
 -3.939991e-03  -4.043419e-03  0 
 -4.413665e-03  -4.130549e-03  0 
 -5.216320e-03  -4.470584e-03  0 
 -5.219093e-03  -5.156368e-03  0 
 -5.228950e-03  -5.853808e-03  0 
 -1.677226e-02  -1.891686e-02  0 
 -2.670276e-02  -3.043060e-02  0 
 -3.622849e-02  -4.875412e-02  0 
 -3.713492e-05  4.770528e-06  0 
 -1.070437e-04  -2.365565e-05  0 
 -2.330433e-04  -3.695730e-05  0 
 0  0  0 
 0  0  0 
 0  0  0 
 -3.005668e-05  -6.299248e-05  0 
 -5.543620e-05  -4.332310e-05  0 
 -1.387952e-04  -1.679412e-05  0 
 -3.799924e-05  -3.485249e-05  0 
 -7.279768e-05  -5.086873e-05  0 
 -1.196988e-04  -8.725522e-05  0 
 0  0  0 
 0  0  0 
 0  0  0 
 -6.199807e-04  -1.870623e-04  0 
 -5.984131e-04  -1.860484e-04  0 
 -4.468539e-04  -1.516613e-04  0 
 1.020929e-05  -9.230109e-06  0 
 2.009847e-05  -3.173990e-05  0 
 2.185253e-05  -6.628053e-05  0 
 0  0  0 
 0  0  0 
 0  0  0 
 -6.705140e-05  -1.176698e-04  0 
 -2.239783e-05  -9.291108e-05  0 
 2.415983e-06  -9.288156e-05  0 
 -2.069930e-07  -2.054791e-05  0 
 2.668632e-05  -7.597027e-05  0 
 1.086241e-04  -1.165662e-04  0 
 0  0  0 
 0  0  0 
 0  0  0 
 1.456721e-04  -1.735174e-04  0 
 2.806352e-04  -1.899918e-04  0 
 3.822983e-04  -1.974597e-04  0 
 1.023801e-04  -9.899129e-05  0 
 2.059507e-04  -1.616091e-04  0 
 3.448698e-04  -2.903751e-04  0 
 0  0  0 
 0  0  0 
 0  0  0 
 8.015865e-05  -1.522312e-04  0 
 8.243575e-05  -2.345905e-04  0 
 1.898035e-04  -3.739834e-04  0 
 6.301230e-04  -7.613004e-04  0 
 1.163132e-03  -1.125646e-03  0 
 1.638538e-03  -1.249297e-03  0 
 0  0  0 
 0  0  0 
 0  0  0 
 1.254683e-03  -7.684709e-04  0 
 1.621083e-03  -8.727129e-04  0 
 1.924321e-03  -8.964814e-04  0 
 -6.659724e-04  -2.952575e-04  0 
 -8.102738e-04  -4.276653e-04  0 
 -9.637735e-04  -6.755850e-04  0 
 -2.886963e-03  -1.203324e-03  0 
 -2.421263e-03  -1.176254e-03  0 
 -1.895932e-03  -1.092275e-03  0 
 -2.731025e-04  -2.938975e-04  0 
 -3.337054e-04  -4.633663e-04  0 
 -4.076099e-04  -5.988153e-04  0 
 -7.277520e-04  -8.331139e-04  0 
 -5.249738e-04  -7.230098e-04  0 
 -4.712574e-04  -7.159665e-04  0 
 -4.688435e-06  -3.327687e-04  0 
 -7.265360e-06  -5.011340e-04  0 
 2.071698e-05  -6.658667e-04  0 
 -4.959961e-04  -9.221064e-04  0 
 -3.121760e-04  -9.348631e-04  0 
 -1.010939e-04  -9.230862e-04  0 
 4.838569e-04  -3.343897e-04  0 
 5.915428e-04  -5.099111e-04  0 
 6.895094e-04  -7.489732e-04  0 
 1.424251e-04  -8.167552e-04  0 
 2.592763e-04  -8.295539e-04  0 
 4.619449e-04  -9.464197e-04  0 
 8.396740e-04  -1.114924e-03  0 
 1.009006e-03  -1.493123e-03  0 
 1.176576e-03  -1.714539e-03  0 
 1.242655e-03  -1.325183e-03  0 
 1.479588e-03  -1.518919e-03  0 
 1.573624e-03  -1.660771e-03  0 
 2.213002e-03  -1.190403e-03  0 
 2.209599e-03  -1.487805e-03  0 
 2.206145e-03  -1.790853e-03  0 
 1.363654e-03  -1.970166e-03  0 
 1.597138e-03  -2.072906e-03  0 
 1.894131e-03  -2.098441e-03  0 
 -1.339145e-03  -1.592460e-03  0 
 -1.483227e-03  -2.116480e-03  0 
 -1.627275e-03  -2.523561e-03  0 
 -2.862841e-03  -3.052255e-03  0 
 -2.401355e-03  -3.031117e-03  0 
 -1.998683e-03  -2.951521e-03  0 
 -6.859886e-04  -1.152534e-03  0 
 -7.703550e-04  -1.422038e-03  0 
 -8.425546e-04  -1.744517e-03  0 
 -1.839998e-03  -2.687262e-03  0 
 -1.644331e-03  -2.542267e-03  0 
 -1.351205e-03  -2.420166e-03  0 
 1.229058e-04  -1.170234e-03  0 
 1.605293e-04  -1.444143e-03  0 
 1.687047e-04  -1.738762e-03  0 
 -5.449072e-04  -2.017339e-03  0 
 -2.866761e-04  -1.942807e-03  0 
 -6.205448e-05  -1.995268e-03  0 
 9.568472e-04  -1.542296e-03  0 
 1.071561e-03  -1.867960e-03  0 
 1.153827e-03  -2.070256e-03  0 
 4.476488e-04  -2.279796e-03  0 
 7.841582e-04  -2.358994e-03  0 
 1.093035e-03  -2.365898e-03  0 
 1.614524e-03  -1.811785e-03  0 
 1.770117e-03  -1.856264e-03  0 
 1.882593e-03  -2.054745e-03  0 
 1.301106e-03  -2.238765e-03  0 
 1.440245e-03  -2.226741e-03  0 
 1.657471e-03  -2.253855e-03  0 
 2.674598e-03  -2.829011e-03  0 
 3.129616e-03  -3.091217e-03  0 
 3.737578e-03  -3.053120e-03  0 
 2.849490e-03  -2.396157e-03  0 
 3.497300e-03  -2.442775e-03  0 
 4.100908e-03  -2.454450e-03  0 
 -1.998152e-03  -2.918005e-03  0 
 -2.132590e-03  -3.108949e-03  0 
 -2.213328e-03  -3.377101e-03  0 
 -4.531376e-03  -3.784490e-03  0 
 -3.843696e-03  -3.779064e-03  0 
 -3.131162e-03  -3.752719e-03  0 
 -1.002421e-03  -2.731919e-03  0 
 -1.046036e-03  -3.096120e-03  0 
 -1.073201e-03  -3.426851e-03  0 
 -1.921026e-03  -3.661525e-03  0 
 -1.626086e-03  -3.662109e-03  0 
 -1.361200e-03  -3.716234e-03  0 
 9.717923e-05  -2.643552e-03  0 
 1.027606e-04  -3.067767e-03  0 
 1.229240e-04  -3.457378e-03  0 
 -7.980209e-04  -3.976078e-03  0 
 -4.513778e-04  -4.013824e-03  0 
 -1.038610e-04  -4.000190e-03  0 
 1.396126e-03  -2.716863e-03  0 
 1.468225e-03  -3.073776e-03  0 
 1.514847e-03  -3.504660e-03  0 
 4.574068e-04  -3.809296e-03  0 
 7.812900e-04  -3.798622e-03  0 
 1.135136e-03  -3.876374e-03  0 
 2.188515e-03  -3.021968e-03  0 
 2.286686e-03  -3.652064e-03  0 
 2.390492e-03  -4.173835e-03  0 
 1.914495e-03  -4.345052e-03  0 
 2.199082e-03  -4.456013e-03  0 
 2.425838e-03  -4.544858e-03  0 
 4.704568e-03  -3.058384e-03  0 
 4.707209e-03  -3.662836e-03  0 
 4.713201e-03  -4.278438e-03  0 
 2.937202e-03  -4.763961e-03  0 
 3.493020e-03  -4.851427e-03  0 
 4.101026e-03  -4.882655e-03  0 
 -2.408708e-03  -4.451082e-03  0 
 -2.476109e-03  -5.152995e-03  0 
 -2.548341e-03  -5.796386e-03  0 
 -4.530442e-03  -6.542468e-03  0 
 -3.833386e-03  -6.515784e-03  0 
 -3.176457e-03  -6.459010e-03  0 
 -1.169533e-03  -4.354315e-03  0 
 -1.192072e-03  -4.777266e-03  0 
 -1.209924e-03  -5.226168e-03  0 
 -2.381968e-03  -6.259326e-03  0 
 -2.047413e-03  -6.158886e-03  0 
 -1.648550e-03  -6.050828e-03  0 
 2.392705e-04  -4.367001e-03  0 
 2.543761e-04  -4.769519e-03  0 
 2.418538e-04  -5.161719e-03  0 
 -8.156914e-04  -5.613453e-03  0 
 -4.555434e-04  -5.534575e-03  0 
 -1.036878e-04  -5.529565e-03  0 
 1.593778e-03  -4.648064e-03  0 
 1.636349e-03  -5.004856e-03  0 
 1.668440e-03  -5.314460e-03  0 
 5.645193e-04  -5.635303e-03  0 
 9.659138e-04  -5.655063e-03  0 
 1.363833e-03  -5.661411e-03  0 
 2.627101e-03  -4.783983e-03  0 
 2.701160e-03  -5.013494e-03  0 
 2.738285e-03  -5.307963e-03  0 
 1.935479e-03  -5.588700e-03  0 
 2.187744e-03  -5.573271e-03  0 
 2.455893e-03  -5.604131e-03  0 
 1.250072e-02  -1.153621e-02  0 
 1.988390e-02  -1.413761e-02  0 
 2.973976e-02  -1.322871e-02  0 
 1.285549e-02  -5.776587e-03  0 
 2.296111e-02  -5.837035e-03  0 
 3.305022e-02  -5.874755e-03  0 
 -2.732445e-03  -6.647671e-03  0 
 -2.809154e-03  -7.000466e-03  0 
 -2.849183e-03  -7.399837e-03  0 
 -2.255764e-02  -6.586995e-02  0 
 -1.298862e-02  -5.043692e-02  0 
 -9.603909e-03  -3.315677e-02  0 
 -1.213419e-03  -6.475797e-03  0 
 -1.221544e-03  -6.961138e-03  0 
 -1.214224e-03  -7.407468e-03  0 
 -2.462509e-03  -7.800869e-03  0 
 -2.060978e-03  -7.797472e-03  0 
 -1.643884e-03  -7.830765e-03  0 
 1.532199e-04  -6.064620e-03  0 
 1.226405e-04  -6.516071e-03  0 
 1.018483e-04  -6.965893e-03  0 
 1.826855e-04  -2.222770e-02  0 
 -5.401325e-04  -2.553035e-02  0 
 -1.057211e-03  -2.110690e-02  0 
 1.769037e-03  -6.087593e-03  0 
 1.804595e-03  -6.524441e-03  0 
 1.832481e-03  -6.975012e-03  0 
 5.353049e-04  -7.404654e-03  0 
 9.692902e-04  -7.388425e-03  0 
 1.401688e-03  -7.405372e-03  0 
 2.749212e-03  -1.587782e-02  0 
 2.763635e-03  -2.602801e-02  0 
 2.769402e-03  -3.615092e-02  0 
 6.124584e-03  -2.648479e-02  0 
 6.063151e-03  -3.815248e-02  0 
 5.083129e-03  -4.377579e-02  0 
 4.314575e-02  -1.597776e-02  0 
 4.317019e-02  -2.606062e-02  0 
 4.318595e-02  -3.616347e-02  0 
 1.288058e-02  -4.627343e-02  0 
 2.298638e-02  -4.626898e-02  0 
 3.308810e-02  -4.627005e-02  0 
 -4.181435e-05  -7.673251e-05  0 
 -1.063677e-04  -1.030840e-04  0 
 -2.395812e-05  -3.931653e-05  0 
 -1.602382e-05  -5.687023e-05  0 
 -1.567009e-04  -1.110979e-04  0 
 -7.044436e-05  -6.397197e-05  0 
 -1.794992e-05  -4.039609e-05  0 
 -7.787719e-05  -1.088358e-04  0 
 -2.758319e-05  -8.418079e-05  0 
 -4.092293e-05  -8.463299e-05  0 
 -9.955222e-06  -2.476365e-05  0 
 -2.403644e-04  -1.385695e-04  0 
 -2.073433e-05  -1.474577e-05  0 
 -2.710944e-05  -8.316564e-05  0 
 -2.366521e-05  -7.424923e-05  0 
 -1.337883e-04  1.201187e-05  0 