# vtk DataFile Version 3.1
this is an vtk file created by FEMAC
ASCII
DATASET UNSTRUCTURED_GRID
POINTS 31 FLOAT
3.000000 4.000000 0.000000
3.000000 5.000000 0.000000
2.250000 5.000000 0.000000
2.500000 5.000000 0.000000
2.750000 5.000000 0.000000
3.000000 4.250000 0.000000
3.000000 4.500000 0.000000
3.000000 4.750000 0.000000
2.447447 4.528256 0.000000
2.813081 4.669072 0.000000
2.813653 4.331392 0.000000
2.255000 4.805000 0.000000
2.775000 4.500000 0.000000
2.660928 4.805846 0.000000
2.661595 4.194695 0.000000
2.242859 4.565925 0.000000
2.413341 4.323754 0.000000
2.453287 4.717271 0.000000
2.616917 4.404183 0.000000
2.613486 4.598598 0.000000
2.844802 4.844984 0.000000
2.845050 4.155217 0.000000
2.612481 5.213004 0.000000
2.371000 5.200321 0.000000
3.512466 4.547863 0.000000
3.226067 4.588218 0.000000
3.371004 4.799680 0.000000
3.336997 4.345660 0.000000
3.137613 4.361776 0.000000
3.169414 4.827579 0.000000
3.186855 4.186208 0.000000
CELLS 43 172 
3 9 6 7
3 6 10  5
3 11  3  2
3 9 12  6
3 12 10  6
3 18 10 12
3 9 19 12
3 13  4  3
3 13 19  9
3 18 14 10
3 15 17 11
3 18 19  8
3 18 12 19
3 18  8 16
3 16 14 18
3 17  3 11
3 13  3 17
3 8 19 17
3 13 17 19
3 4 20  1
3 7 20  9
3 20  7  1
3 21  5 10
3 5 21  0
3 13 20  4
3 13  9 20
3 10 14 21
3 16  8 15
3 8 17 15
3 4 22  3
3 2  3 23
3 3 22 23
3 25  7  6
3 25 27 24
3 25 24 26
3 6 28 25
3 28  6  5
3 28 27 25
3 7 29  1
3 30  5  0
3 5 30 28
3 27 28 30
3 25 29  7
CELL_TYPES 43
5 5 5 5 5 5 5 5 5 5 5 5 5 5 5 5 5 5 5 5 5 5 5 5 5 5 5 5 5 5 5 5 5 5 5 5 5 5 5 5 5 5 5 
POINT_DATA 31
VECTORS displacement_ITER1 FLOAT
 3.138179e-02  -1.177230e-01  0 
 6.290946e-02  -1.177539e-01  0 
 6.282816e-02  -9.413947e-02  0 
 6.286861e-02  -1.019704e-01  0 
 6.289599e-02  -1.098576e-01  0 
 3.924779e-02  -1.177344e-01  0 
 4.715463e-02  -1.177214e-01  0 
 5.503450e-02  -1.177502e-01  0 
 4.801995e-02  -1.002934e-01  0 
 5.246934e-02  -1.118342e-01  0 
 4.182489e-02  -1.118394e-01  0 
 5.672530e-02  -9.425383e-02  0 
 4.714299e-02  -1.106254e-01  0 
 5.677258e-02  -1.070338e-01  0 
 3.750817e-02  -1.070355e-01  0 
 4.919799e-02  -9.384641e-02  0 
 4.157175e-02  -9.920284e-02  0 
 5.397627e-02  -1.004883e-01  0 
 4.411562e-02  -1.056326e-01  0 
 5.024346e-02  -1.055340e-01  0 
 5.801833e-02  -1.128469e-01  0 
 3.625933e-02  -1.128407e-01  0 
 4.688028e-02  -9.678794e-02  0 
 4.374166e-02  -9.998538e-02  0 
 9.045714e-02  -2.548872e-01  0 
 6.983185e-02  -1.422236e-01  0 
 1.955698e-01  -2.467968e-01  0 
 3.617643e-02  -1.592963e-01  0 
 4.104277e-02  -1.278756e-01  0 
 5.811705e-02  -1.298083e-01  0 
 3.573979e-02  -1.348480e-01  0 
VECTORS displacement_ITER2 FLOAT
 4.782866e-02  -9.689974e-02  0 
 6.269608e-02  -9.697278e-02  0 
 6.260754e-02  -8.580510e-02  0 
 6.264889e-02  -8.948893e-02  0 
 6.268006e-02  -9.322645e-02  0 
 5.150540e-02  -9.692492e-02  0 
 5.524560e-02  -9.692044e-02  0 
 5.896982e-02  -9.695526e-02  0 
 5.564135e-02  -8.868351e-02  0 
 5.774830e-02  -9.414556e-02  0 
 5.272389e-02  -9.414048e-02  0 
 5.973874e-02  -8.583944e-02  0 
 5.523472e-02  -9.356813e-02  0 
 5.977657e-02  -9.187712e-02  0 
 5.068661e-02  -9.187051e-02  0 
 5.619080e-02  -8.564102e-02  0 
 5.260335e-02  -8.816248e-02  0 
 5.844964e-02  -8.878031e-02  0 
 5.380427e-02  -9.120510e-02  0 
 5.669329e-02  -9.116251e-02  0 
 6.037445e-02  -9.463627e-02  0 
 5.009886e-02  -9.462125e-02  0 
 4.955873e-02  -8.318227e-02  0 
 4.682392e-02  -8.841417e-02  0 
 9.074775e-02  -1.982538e-01  0 
 7.343879e-02  -1.135097e-01  0 
 1.717911e-01  -1.931615e-01  0 
 4.976385e-02  -1.257281e-01  0 
 5.247457e-02  -1.032427e-01  0 
 6.110583e-02  -1.049522e-01  0 
 5.029910e-02  -1.080961e-01  0 
VECTORS displacement_ITER3 FLOAT
 2.894556e-02  -6.990732e-02  0 
 4.828993e-02  -7.004573e-02  0 
 4.818312e-02  -5.543657e-02  0 
 4.822714e-02  -6.026877e-02  0 
 4.826589e-02  -6.515043e-02  0 
 3.368760e-02  -6.995431e-02  0 
 3.854780e-02  -6.996094e-02  0 
 4.340981e-02  -7.000490e-02  0 
 3.907498e-02  -5.922206e-02  0 
 4.181799e-02  -6.634351e-02  0 
 3.526926e-02  -6.634392e-02  0 
 4.441730e-02  -5.549753e-02  0 
 3.853970e-02  -6.559202e-02  0 
 4.446711e-02  -6.338675e-02  0 
 3.262351e-02  -6.339361e-02  0 
 3.979177e-02  -5.525546e-02  0 
 3.512521e-02  -5.855088e-02  0 
 4.273264e-02  -5.934284e-02  0 
 3.668128e-02  -6.251436e-02  0 
 4.044254e-02  -6.245272e-02  0 
 4.524732e-02  -6.698548e-02  0 
 3.186423e-02  -6.697469e-02  0 
 4.674521e-02  -5.612864e-02  0 
 4.400259e-02  -5.698516e-02  0 
 6.330115e-02  -1.298527e-01  0 
 5.224526e-02  -7.999455e-02  0 
 1.171152e-01  -1.270210e-01  0 
 3.614595e-02  -8.729758e-02  0 
 3.647021e-02  -7.378060e-02  0 
 4.649570e-02  -7.667261e-02  0 
 3.387921e-02  -7.670694e-02  0 
VECTORS displacement_ITER4 FLOAT
 1.597724e-02  -6.703887e-02  0 
 4.295620e-02  -6.722536e-02  0 
 4.282692e-02  -4.683299e-02  0 
 4.287466e-02  -5.359207e-02  0 
 4.292099e-02  -6.039695e-02  0 
 2.258377e-02  -6.710073e-02  0 
 2.935362e-02  -6.711440e-02  0 
 3.613722e-02  -6.716631e-02  0 
 3.009951e-02  -5.213851e-02  0 
 3.392163e-02  -6.206612e-02  0 
 2.478663e-02  -6.207352e-02  0 
 3.755732e-02  -4.693328e-02  0 
 2.934741e-02  -6.102171e-02  0 
 3.762145e-02  -5.794244e-02  0 
 2.110034e-02  -5.796276e-02  0 
 3.110239e-02  -4.660506e-02  0 
 2.459163e-02  -5.120880e-02  0 
 3.520232e-02  -5.230244e-02  0 
 2.675825e-02  -5.673264e-02  0 
 3.200476e-02  -5.664204e-02  0 
 3.870609e-02  -6.295583e-02  0 
 2.004353e-02  -6.295223e-02  0 
 5.058096e-02  -5.241688e-02  0 
 4.741365e-02  -4.875793e-02  0 
 4.870797e-02  -1.048849e-01  0 
 4.106949e-02  -7.401927e-02  0 
 8.901283e-02  -1.037008e-01  0 
 2.796647e-02  -7.851937e-02  0 
 2.696950e-02  -6.977955e-02  0 
 4.024994e-02  -7.392169e-02  0 
 2.332123e-02  -7.167655e-02  0 
VECTORS displacement_ITER5 FLOAT
 2.281315e-02  -3.856427e-02  0 
 3.295326e-02  -3.877161e-02  0 
 3.278537e-02  -3.100522e-02  0 
 3.284225e-02  -3.354881e-02  0 
 3.289885e-02  -3.613846e-02  0 
 2.519088e-02  -3.862694e-02  0 
 2.774829e-02  -3.864065e-02  0 
 3.032205e-02  -3.869844e-02  0 
 2.801687e-02  -3.297211e-02  0 
 2.946778e-02  -3.674095e-02  0 
 2.602308e-02  -3.674004e-02  0 
 3.080404e-02  -3.101414e-02  0 
 2.774247e-02  -3.633750e-02  0 
 3.086442e-02  -3.517981e-02  0 
 2.464211e-02  -3.519118e-02  0 
 2.838180e-02  -3.088893e-02  0 
 2.595975e-02  -3.261635e-02  0 
 2.993278e-02  -3.303876e-02  0 
 2.676896e-02  -3.471079e-02  0 
 2.873725e-02  -3.467780e-02  0 
 3.129368e-02  -3.709682e-02  0 
 2.425113e-02  -3.709459e-02  0 
 3.985926e-02  -3.333498e-02  0 
 3.595266e-02  -3.229761e-02  0 
 4.698689e-02  -6.581315e-02  0 
 3.814660e-02  -4.180926e-02  0 
 8.099600e-02  -6.794668e-02  0 
 2.975222e-02  -4.367774e-02  0 
 2.793213e-02  -3.883153e-02  0 
 3.325959e-02  -4.288659e-02  0 
 2.730527e-02  -3.957734e-02  0 
VECTORS displacement_ITER6 FLOAT
 1.651978e-02  -2.152689e-02  0 
 2.224378e-02  -2.172792e-02  0 
 2.202994e-02  -1.729895e-02  0 
 2.209927e-02  -1.871837e-02  0 
 2.216699e-02  -2.018920e-02  0 
 1.777804e-02  -2.158136e-02  0 
 1.922822e-02  -2.158837e-02  0 
 2.069498e-02  -2.164508e-02  0 
 1.937555e-02  -1.836756e-02  0 
 2.020030e-02  -2.051225e-02  0 
 1.825336e-02  -2.051670e-02  0 
 2.092568e-02  -1.727334e-02  0 
 1.922558e-02  -2.028075e-02  0 
 2.099198e-02  -1.962392e-02  0 
 1.747986e-02  -1.964091e-02  0 
 1.957100e-02  -1.719609e-02  0 
 1.822865e-02  -1.816179e-02  0 
 2.045085e-02  -1.840930e-02  0 
 1.867910e-02  -1.935480e-02  0 
 1.978360e-02  -1.933517e-02  0 
 2.125002e-02  -2.072351e-02  0 
 1.726224e-02  -2.073949e-02  0 
 2.794343e-02  -2.022328e-02  0 
 2.311705e-02  -2.059097e-02  0 
 3.797608e-02  -4.736184e-02  0 
 2.849841e-02  -2.493462e-02  0 
 6.894958e-02  -5.215356e-02  0 
 2.150547e-02  -2.545537e-02  0 
 1.972987e-02  -2.155842e-02  0 
 2.315142e-02  -2.569788e-02  0 
 1.985692e-02  -2.187346e-02  0 
VECTORS displacement_ITER7 FLOAT
 8.201175e-03  -1.674881e-02  0 
 2.000744e-02  -1.692539e-02  0 
 1.975675e-02  -7.964174e-03  0 
 1.983671e-02  -1.088270e-02  0 
 1.991271e-02  -1.386130e-02  0 
 1.096434e-02  -1.679065e-02  0 
 1.393059e-02  -1.679038e-02  0 
 1.691767e-02  -1.683944e-02  0 
 1.425989e-02  -1.021160e-02  0 
 1.593472e-02  -1.457074e-02  0 
 1.193754e-02  -1.459176e-02  0 
 1.748307e-02  -7.957266e-03  0 
 1.393401e-02  -1.411426e-02  0 
 1.755948e-02  -1.275571e-02  0 
 1.033630e-02  -1.279222e-02  0 
 1.468392e-02  -7.800620e-03  0 
 1.187241e-02  -9.799212e-03  0 
 1.648121e-02  -1.028780e-02  0 
 1.280904e-02  -1.222980e-02  0 
 1.509345e-02  -1.218481e-02  0 
 1.805559e-02  -1.496788e-02  0 
 9.878203e-03  -1.501231e-02  0 
 2.432887e-02  -1.322449e-02  0 
 1.926435e-02  -1.417893e-02  0 
 2.835491e-02  -3.928801e-02  0 
 2.053145e-02  -2.241765e-02  0 
 5.090439e-02  -4.648752e-02  0 
 1.454810e-02  -2.161875e-02  0 
 1.307166e-02  -1.816025e-02  0 
 1.940517e-02  -2.225038e-02  0 
 1.214243e-02  -1.822945e-02  0 
VECTORS displacement_ITER8 FLOAT
 9.942287e-03  -1.222533e-02  0 
 1.525586e-02  -1.239078e-02  0 
 1.497742e-02  -8.316620e-03  0 
 1.506468e-02  -9.598559e-03  0 
 1.514781e-02  -1.094830e-02  0 
 1.107671e-02  -1.225572e-02  0 
 1.241114e-02  -1.225493e-02  0 
 1.377427e-02  -1.230080e-02  0 
 1.256267e-02  -9.268027e-03  0 
 1.331889e-02  -1.124595e-02  0 
 1.151966e-02  -1.126941e-02  0 
 1.398045e-02  -8.269985e-03  0 
 1.241816e-02  -1.104024e-02  0 
 1.405553e-02  -1.041906e-02  0 
 1.080973e-02  -1.045836e-02  0 
 1.274147e-02  -8.189537e-03  0 
 1.150679e-02  -9.078166e-03  0 
 1.355305e-02  -9.305389e-03  0 
 1.191877e-02  -1.018478e-02  0 
 1.293756e-02  -1.015952e-02  0 
 1.429891e-02  -1.143399e-02  0 
 1.060990e-02  -1.148637e-02  0 
 1.600685e-02  -1.064736e-02  0 
 1.153446e-02  -1.439587e-02  0 
 2.114398e-02  -2.226672e-02  0 
 1.516007e-02  -1.753522e-02  0 
 2.743227e-02  -3.178430e-02  0 
 1.453950e-02  -1.437026e-02  0 
 1.241800e-02  -1.365514e-02  0 
 1.532914e-02  -1.679519e-02  0 
 1.266287e-02  -1.282399e-02  0 
VECTORS displacement_ITER9 FLOAT
 8.050354e-03  -1.152313e-02  0 
 1.215923e-02  -1.167569e-02  0 
 1.185904e-02  -8.522121e-03  0 
 1.195173e-02  -9.492800e-03  0 
 1.204083e-02  -1.053777e-02  0 
 8.885830e-03  -1.153811e-02  0 
 9.911274e-03  -1.153573e-02  0 
 1.097032e-02  -1.158098e-02  0 
 1.003122e-02  -9.223747e-03  0 
 1.061402e-02  -1.075291e-02  0 
 9.229166e-03  -1.077830e-02  0 
 1.110523e-02  -8.464768e-03  0 
 9.920288e-03  -1.059486e-02  0 
 1.118353e-02  -1.011231e-02  0 
 8.687528e-03  -1.015222e-02  0 
 1.016349e-02  -8.397581e-03  0 
 9.227441e-03  -9.075624e-03  0 
 1.078839e-02  -9.253877e-03  0 
 9.539683e-03  -9.932908e-03  0 
 1.031926e-02  -9.910938e-03  0 
 1.138168e-02  -1.090202e-02  0 
 8.536138e-03  -1.095689e-02  0 
 1.207739e-02  -1.004066e-02  0 
 8.330117e-03  -1.437578e-02  0 
 1.334107e-02  -1.231181e-02  0 
 1.002109e-02  -1.620095e-02  0 
 8.803197e-03  -2.110215e-02  0 
 1.210505e-02  -1.250568e-02  0 
 9.985182e-03  -1.313439e-02  0 
 1.211586e-02  -1.540039e-02  0 
 1.023171e-02  -1.213104e-02  0 
VECTORS displacement_ITER10 FLOAT
 8.173576e-03  -8.000638e-03  0 
 1.177710e-02  -8.149988e-03  0 
 1.145924e-02  -5.374472e-03  0 
 1.155489e-02  -6.218646e-03  0 
 1.164868e-02  -7.138489e-03  0 
 8.877481e-03  -8.003915e-03  0 
 9.772459e-03  -8.000718e-03  0 
 1.070482e-02  -8.049328e-03  0 
 9.878132e-03  -5.973304e-03  0 
 1.038865e-02  -7.314339e-03  0 
 9.179111e-03  -7.339841e-03  0 
 1.080492e-02  -5.313617e-03  0 
 9.782005e-03  -7.175526e-03  0 
 1.088777e-02  -6.752889e-03  0 
 8.710245e-03  -6.792662e-03  0 
 9.990124e-03  -5.253692e-03  0 
 9.182850e-03  -5.843618e-03  0 
 1.053582e-02  -6.000043e-03  0 
 9.451971e-03  -6.595176e-03  0 
 1.012939e-02  -6.574379e-03  0 
 1.106920e-02  -7.448659e-03  0 
 8.579753e-03  -7.504008e-03  0 
 1.323120e-02  -7.118454e-03  0 
 1.005798e-02  -1.047901e-02  0 
 1.031877e-02  -6.840172e-03  0 
 8.947660e-03  -1.176299e-02  0 
 4.391993e-03  -1.334074e-02  0 
 1.086589e-02  -9.158854e-03  0 
 9.576163e-03  -9.591996e-03  0 
 1.168332e-02  -1.113161e-02  0 
 9.542082e-03  -9.069344e-03  0 
VECTORS displacement_ITER11 FLOAT
 4.912607e-03  -2.895557e-03  0 
 5.188110e-03  -3.035810e-03  0 
 4.857706e-03  -2.763797e-03  0 
 4.955035e-03  -2.773670e-03  0 
 5.051291e-03  -2.858574e-03  0 
 4.787207e-03  -2.888469e-03  0 
 4.848307e-03  -2.880839e-03  0 
 4.944763e-03  -2.930706e-03  0 
 4.858621e-03  -2.700950e-03  0 
 4.898631e-03  -2.819217e-03  0 
 4.818819e-03  -2.843481e-03  0 
 4.855194e-03  -2.686366e-03  0 
 4.857734e-03  -2.807493e-03  0 
 4.939278e-03  -2.767645e-03  0 
 4.807236e-03  -2.804574e-03  0 
 4.843655e-03  -2.667442e-03  0 
 4.849572e-03  -2.685020e-03  0 
 4.881958e-03  -2.708472e-03  0 
 4.848660e-03  -2.755499e-03  0 
 4.874383e-03  -2.746305e-03  0 
 4.991896e-03  -2.847945e-03  0 
 4.806815e-03  -2.905102e-03  0 
 7.614608e-03  -3.675016e-03  0 
 4.898265e-03  -6.507619e-03  0 
 4.753140e-03  -3.778683e-03  0 
 4.155931e-03  -5.604462e-03  0 
 1.577269e-03  -7.554434e-03  0 
 5.318536e-03  -4.662233e-03  0 
 4.852968e-03  -4.223309e-03  0 
 5.644894e-03  -4.914386e-03  0 
 5.050286e-03  -4.326949e-03  0 
VECTORS displacement_ITER12 FLOAT
 6.463852e-03  7.305156e-04  0 
 5.164049e-03  5.930545e-04  0 
 4.824209e-03  -3.180882e-04  0 
 4.922523e-03  6.640441e-05  0 
 5.020368e-03  3.764669e-04  0 
 5.942957e-03  7.416483e-04  0 
 5.609674e-03  7.520515e-04  0 
 5.310568e-03  7.010551e-04  0 
 5.575019e-03  5.704225e-05  0 
 5.392018e-03  5.180277e-04  0 
 5.847083e-03  4.934964e-04  0 
 5.130215e-03  -2.332972e-04  0 
 5.619047e-03  4.692742e-04  0 
 5.215637e-03  3.283359e-04  0 
 6.052537e-03  2.907509e-04  0 
 5.499984e-03  -2.343884e-04  0 
 5.891260e-03  1.859608e-05  0 
 5.297547e-03  5.913654e-05  0 
 5.762162e-03  2.707103e-04  0 
 5.479036e-03  2.750588e-04  0 
 5.207779e-03  5.396125e-04  0 
 6.113514e-03  4.793420e-04  0 
 8.239473e-03  -5.733505e-04  0 
 5.974377e-03  -2.856740e-03  0 
 6.229513e-03  -4.204111e-03  0 
 5.555617e-03  -1.555446e-03  0 
 7.242388e-03  -6.122121e-03  0 
 5.508788e-03  -1.938974e-03  0 
 5.646821e-03  -4.693860e-04  0 
 5.871483e-03  -6.366428e-04  0 
 5.933328e-03  -1.033091e-03  0 
VECTORS displacement_ITER13 FLOAT
 3.907092e-03  1.704615e-03  0 
 2.524525e-03  1.567644e-03  0 
 2.178493e-03  5.961834e-04  0 
 2.276974e-03  1.001222e-03  0 
 2.375875e-03  1.331155e-03  0 
 3.360144e-03  1.714819e-03  0 
 3.006044e-03  1.726655e-03  0 
 2.686590e-03  1.676366e-03  0 
 2.970767e-03  9.859412e-04  0 
 2.774901e-03  1.478420e-03  0 
 3.258005e-03  1.450984e-03  0 
 2.501290e-03  6.803759e-04  0 
 3.016158e-03  1.425222e-03  0 
 2.587341e-03  1.276621e-03  0 
 3.475486e-03  1.234219e-03  0 
 2.892923e-03  6.771576e-04  0 
 3.304364e-03  9.438178e-04  0 
 2.676671e-03  9.896655e-04  0 
 3.167953e-03  1.212737e-03  0 
 2.868249e-03  1.218400e-03  0 
 2.577011e-03  1.503740e-03  0 
 3.539664e-03  1.437521e-03  0 
 4.954195e-03  1.429387e-03  0 
 3.548579e-03  -5.677366e-04  0 
 4.048028e-03  -3.861153e-03  0 
 3.159021e-03  -3.123255e-04  0 
 5.444990e-03  -5.211041e-03  0 
 3.025608e-03  -9.101120e-04  0 
 3.126429e-03  6.010109e-04  0 
 3.099392e-03  8.033968e-04  0 
 3.491520e-03  3.189693e-05  0 
VECTORS displacement_ITER14 FLOAT
 2.228184e-03  7.350969e-04  0 
 2.326329e-03  5.959723e-04  0 
 1.974823e-03  7.370843e-04  0 
 2.073654e-03  7.719611e-04  0 
 2.173999e-03  7.300052e-04  0 
 2.043814e-03  7.415249e-04  0 
 2.058779e-03  7.526249e-04  0 
 2.111507e-03  7.037274e-04  0 
 2.068609e-03  8.319763e-04  0 
 2.080047e-03  7.835216e-04  0 
 2.061706e-03  7.516516e-04  0 
 2.009384e-03  8.134452e-04  0 
 2.070202e-03  7.850103e-04  0 
 2.096573e-03  8.086196e-04  0 
 2.077463e-03  7.584930e-04  0 
 2.047593e-03  8.270711e-04  0 
 2.098240e-03  8.389907e-04  0 
 2.054812e-03  8.287825e-04  0 
 2.080677e-03  8.058009e-04  0 
 2.069625e-03  8.189040e-04  0 
 2.144976e-03  7.633111e-04  0 
 2.084081e-03  6.907558e-04  0 
 3.697638e-03  2.269769e-03  0 
 3.312589e-03  4.830064e-04  0 
 2.358786e-03  -1.298600e-03  0 
 1.759183e-03  -8.775202e-04  0 
 1.751006e-04  -2.664858e-03  0 
 2.490902e-03  -8.788387e-04  0 
 2.182454e-03  -2.525705e-04  0 
 2.392396e-03  1.767154e-04  0 
 2.441394e-03  -4.949597e-04  0 
VECTORS displacement_ITER15 FLOAT
 1.942748e-03  -1.220302e-03  0 
 3.960827e-03  -1.353819e-03  0 
 3.604225e-03  2.203430e-04  0 
 3.703687e-03  -2.218735e-04  0 
 3.805503e-03  -7.418171e-04  0 
 2.237016e-03  -1.212666e-03  0 
 2.729276e-03  -1.201290e-03  0 
 3.261697e-03  -1.247820e-03  0 
 2.796229e-03  -6.353225e-05  0 
 3.075975e-03  -8.102855e-04  0 
 2.410319e-03  -8.465435e-04  0 
 3.266917e-03  2.871789e-04  0 
 2.741947e-03  -7.377190e-04  0 
 3.355734e-03  -4.925899e-04  0 
 2.164570e-03  -5.495501e-04  0 
 2.848383e-03  3.234551e-04  0 
 2.433052e-03  7.475081e-06  0 
 3.144651e-03  -7.631777e-05  0 
 2.569453e-03  -4.152916e-04  0 
 2.931346e-03  -3.935716e-04  0 
 3.479331e-03  -8.891365e-04  0 
 2.095979e-03  -9.675615e-04  0 
 5.029253e-03  1.675738e-03  0 
 5.390342e-03  4.864354e-04  0 
 1.463363e-03  1.421109e-03  0 
 1.747039e-03  -2.457354e-03  0 
 -5.215021e-03  4.032964e-04  0 
 3.439513e-03  -2.043009e-03  0 
 2.785164e-03  -2.231809e-03  0 
 3.513818e-03  -1.606011e-03  0 
 2.769618e-03  -2.288877e-03  0 
VECTORS displacement_ITER16 FLOAT
 2.376510e-03  -2.143638e-03  0 
 3.028990e-03  -2.262966e-03  0 
 2.664922e-03  -1.731867e-03  0 
 2.766698e-03  -1.824741e-03  0 
 2.870447e-03  -1.996711e-03  0 
 2.336408e-03  -2.128558e-03  0 
 2.485287e-03  -2.113448e-03  0 
 2.672288e-03  -2.158732e-03  0 
 2.513879e-03  -1.738934e-03  0 
 2.598704e-03  -1.979085e-03  0 
 2.398886e-03  -2.016191e-03  0 
 2.600489e-03  -1.656235e-03  0 
 2.498170e-03  -1.960070e-03  0 
 2.689716e-03  -1.870940e-03  0 
 2.340948e-03  -1.928823e-03  0 
 2.514329e-03  -1.635601e-03  0 
 2.432297e-03  -1.715117e-03  0 
 2.600967e-03  -1.743253e-03  0 
 2.457926e-03  -1.856301e-03  0 
 2.551710e-03  -1.838699e-03  0 
 2.759580e-03  -2.012516e-03  0 
 2.325048e-03  -2.094354e-03  0 
 3.646813e-03  3.053026e-04  0 
 4.264598e-03  -8.615035e-04  0 
 2.128833e-03  -3.011067e-03  0 
 1.965740e-03  -3.568386e-03  0 
 -1.474688e-03  -3.501434e-03  0 
 2.841433e-03  -3.801802e-03  0 
 2.560901e-03  -3.184833e-03  0 
 2.811070e-03  -2.465831e-03  0 
 2.646037e-03  -3.526343e-03  0 
VECTORS displacement_ITER17 FLOAT
 2.259421e-03  -1.238613e-03  0 
 1.027920e-03  -1.350642e-03  0 
 6.568768e-04  -2.246694e-03  0 
 7.610924e-04  -1.862066e-03  0 
 8.670009e-04  -1.558642e-03  0 
 1.753412e-03  -1.219208e-03  0 
 1.430076e-03  -1.202064e-03  0 
 1.143259e-03  -1.247824e-03  0 
 1.404690e-03  -1.875288e-03  0 
 1.222729e-03  -1.421524e-03  0 
 1.662533e-03  -1.457695e-03  0 
 9.653864e-04  -2.159357e-03  0 
 1.442593e-03  -1.474929e-03  0 
 1.054547e-03  -1.601348e-03  0 
 1.862777e-03  -1.658167e-03  0 
 1.333919e-03  -2.160479e-03  0 
 1.709791e-03  -1.915957e-03  0 
 1.133491e-03  -1.868437e-03  0 
 1.583573e-03  -1.670930e-03  0 
 1.309292e-03  -1.659727e-03  0 
 1.050914e-03  -1.394234e-03  0 
 1.920589e-03  -1.476220e-03  0 
 9.902582e-04  2.572697e-04  0 
 1.563176e-03  -9.447900e-04  0 
 2.883072e-03  -6.459648e-03  0 
 1.705296e-03  -2.874914e-03  0 
 3.433445e-03  -6.971831e-03  0 
 1.670218e-03  -3.507404e-03  0 
 1.638731e-03  -2.158189e-03  0 
 1.195348e-03  -1.578389e-03  0 
 1.991360e-03  -2.647041e-03  0 
VECTORS displacement_ITER18 FLOAT
 3.106340e-04  -3.068511e-03  0 
 2.250325e-03  -3.183453e-03  0 
 1.875820e-03  -1.703400e-03  0 
 1.981491e-03  -2.109926e-03  0 
 2.088903e-03  -2.599855e-03  0 
 5.942734e-04  -3.051990e-03  0 
 1.062371e-03  -3.037009e-03  0 
 1.569902e-03  -3.082364e-03  0 
 1.128152e-03  -1.957234e-03  0 
 1.392509e-03  -2.662829e-03  0 
 7.602510e-04  -2.701872e-03  0 
 1.567662e-03  -1.630185e-03  0 
 1.075375e-03  -2.596203e-03  0 
 1.659387e-03  -2.359127e-03  0 
 5.269267e-04  -2.420673e-03  0 
 1.177743e-03  -1.592400e-03  0 
 7.828298e-04  -1.890415e-03  0 
 1.457441e-03  -1.968057e-03  0 
 9.123321e-04  -2.291348e-03  0 
 1.255769e-03  -2.268146e-03  0 
 1.780349e-03  -2.735556e-03  0 
 4.609168e-04  -2.818965e-03  0 
 2.624276e-03  -9.588701e-04  0 
 2.913954e-03  -1.172596e-03  0 
 1.760416e-03  -4.034255e-03  0 
 1.077081e-03  -4.541812e-03  0 
 -1.071725e-03  -4.992038e-03  0 
 1.666086e-03  -4.374787e-03  0 
 1.100630e-03  -3.945573e-03  0 
 1.885588e-03  -3.742570e-03  0 
 1.063122e-03  -4.078281e-03  0 
VECTORS displacement_ITER19 FLOAT
 6.854707e-04  -3.111974e-03  0 
 1.964737e-03  -3.215492e-03  0 
 1.584531e-03  -2.247307e-03  0 
 1.693677e-03  -2.481243e-03  0 
 1.802398e-03  -2.802187e-03  0 
 8.098715e-04  -3.090487e-03  0 
 1.112225e-03  -3.072669e-03  0 
 1.452119e-03  -3.116575e-03  0 
 1.159645e-03  -2.362515e-03  0 
 1.329340e-03  -2.822599e-03  0 
 9.225374e-04  -2.862567e-03  0 
 1.411786e-03  -2.166855e-03  0 
 1.125407e-03  -2.782151e-03  0 
 1.504256e-03  -2.620757e-03  0 
 7.794284e-04  -2.682548e-03  0 
 1.184373e-03  -2.134819e-03  0 
 9.501544e-04  -2.318007e-03  0 
 1.361965e-03  -2.369587e-03  0 
 1.026357e-03  -2.583146e-03  0 
 1.240052e-03  -2.561981e-03  0 
 1.599160e-03  -2.873313e-03  0 
 7.386802e-04  -2.959018e-03  0 
 1.991160e-03  -1.519815e-03  0 
 2.102240e-03  -2.151685e-03  0 
 2.354409e-03  -4.439406e-03  0 
 1.401007e-03  -4.326237e-03  0 
 5.776198e-04  -5.364439e-03  0 
 1.827721e-03  -4.183946e-03  0 
 1.262231e-03  -3.787112e-03  0 
 1.739496e-03  -3.680811e-03  0 
 1.334145e-03  -3.921208e-03  0 
VECTORS displacement_ITER20 FLOAT
 1.306254e-03  -2.562719e-03  0 
 2.342804e-03  -2.653731e-03  0 
 1.956269e-03  -1.885419e-03  0 
 2.069127e-03  -2.050619e-03  0 
 2.178991e-03  -2.306433e-03  0 
 1.375138e-03  -2.536888e-03  0 
 1.616573e-03  -2.515691e-03  0 
 1.893401e-03  -2.557230e-03  0 
 1.658187e-03  -1.943680e-03  0 
 1.791741e-03  -2.310910e-03  0 
 1.468936e-03  -2.352882e-03  0 
 1.838262e-03  -1.799416e-03  0 
 1.630307e-03  -2.281105e-03  0 
 1.931809e-03  -2.147327e-03  0 
 1.358855e-03  -2.210404e-03  0 
 1.673925e-03  -1.767608e-03  0 
 1.498877e-03  -1.907084e-03  0 
 1.812398e-03  -1.949486e-03  0 
 1.555337e-03  -2.121868e-03  0 
 1.720658e-03  -2.101091e-03  0 
 2.016803e-03  -2.352438e-03  0 
 1.326588e-03  -2.442295e-03  0 
 2.185000e-03  -1.671223e-03  0 
 1.982155e-03  -2.506300e-03  0 
 3.196971e-03  -4.812738e-03  0 
 2.083444e-03  -3.831725e-03  0 
 2.350943e-03  -5.679269e-03  0 
 2.256905e-03  -3.790667e-03  0 
 1.762201e-03  -3.212790e-03  0 
 2.184219e-03  -3.179513e-03  0 
 1.849876e-03  -3.383697e-03  0 
VECTORS displacement_ITER21 FLOAT
 1.162596e-03  -2.303327e-03  0 
 3.217053e-03  -2.386447e-03  0 
 2.826119e-03  -8.640974e-04  0 
 2.941827e-03  -1.278870e-03  0 
 3.052522e-03  -1.788448e-03  0 
 1.485681e-03  -2.277040e-03  0 
 1.981744e-03  -2.254007e-03  0 
 2.513352e-03  -2.292769e-03  0 
 2.054945e-03  -1.119069e-03  0 
 2.330160e-03  -1.857037e-03  0 
 1.663044e-03  -1.902859e-03  0 
 2.514816e-03  -7.801120e-04  0 
 1.996638e-03  -1.790131e-03  0 
 2.609329e-03  -1.538258e-03  0 
 1.413509e-03  -1.606027e-03  0 
 2.110051e-03  -7.345079e-04  0 
 1.686234e-03  -1.047893e-03  0 
 2.400848e-03  -1.130119e-03  0 
 1.824671e-03  -1.470670e-03  0 
 2.188241e-03  -1.444939e-03  0 
 2.734073e-03  -1.929613e-03  0 
 1.340699e-03  -2.025239e-03  0 
 3.080653e-03  -1.260556e-03  0 
 2.721168e-03  -1.806111e-03  0 
 2.998517e-03  -2.914360e-03  0 
 2.192600e-03  -3.575070e-03  0 
 5.748250e-04  -3.935545e-03  0 
 2.675576e-03  -3.240533e-03  0 
 2.037776e-03  -2.982034e-03  0 
 2.876145e-03  -3.045769e-03  0 
 1.983214e-03  -3.020424e-03  0 
VECTORS displacement_ITER22 FLOAT
 1.321400e-03  -2.299856e-03  0 
 2.693344e-03  -2.375358e-03  0 
 2.299804e-03  -1.369253e-03  0 
 2.417386e-03  -1.611478e-03  0 
 2.528535e-03  -1.951156e-03  0 
 1.472735e-03  -2.272199e-03  0 
 1.798499e-03  -2.247578e-03  0 
 2.160263e-03  -2.284674e-03  0 
 1.854643e-03  -1.489008e-03  0 
 2.032537e-03  -1.976627e-03  0 
 1.595214e-03  -2.024680e-03  0 
 2.124419e-03  -1.280654e-03  0 
 1.814164e-03  -1.936972e-03  0 
 2.218507e-03  -1.761127e-03  0 
 1.439018e-03  -1.832261e-03  0 
 1.885142e-03  -1.243598e-03  0 
 1.624450e-03  -1.441887e-03  0 
 2.070987e-03  -1.494837e-03  0 
 1.707996e-03  -1.726054e-03  0 
 1.939193e-03  -1.701082e-03  0 
 2.316805e-03  -2.026751e-03  0 
 1.392957e-03  -2.126784e-03  0 
 3.107035e-03  -1.453377e-03  0 
 2.826106e-03  -1.653711e-03  0 
 2.815830e-03  -2.942921e-03  0 
 1.974114e-03  -3.389394e-03  0 
 6.783229e-04  -3.984736e-03  0 
 2.492067e-03  -3.051895e-03  0 
 1.912897e-03  -2.865608e-03  0 
 2.470284e-03  -2.889086e-03  0 
 1.965003e-03  -2.884457e-03  0 
VECTORS displacement_ITER23 FLOAT
 2.088542e-03  -2.293931e-03  0 
 2.262248e-03  -2.360940e-03  0 
 1.866350e-03  -2.259491e-03  0 
 1.985750e-03  -2.199407e-03  0 
 2.097402e-03  -2.239422e-03  0 
 1.941251e-03  -2.263440e-03  0 
 1.967362e-03  -2.237158e-03  0 
 2.029554e-03  -2.272977e-03  0 
 1.991330e-03  -2.141570e-03  0 
 1.999126e-03  -2.189389e-03  0 
 1.966673e-03  -2.238704e-03  0 
 1.927993e-03  -2.163633e-03  0 
 1.983521e-03  -2.196492e-03  0 
 2.021057e-03  -2.155939e-03  0 
 1.974418e-03  -2.229187e-03  0 
 1.977740e-03  -2.141350e-03  0 
 2.005339e-03  -2.136108e-03  0 
 1.980411e-03  -2.139210e-03  0 
 1.992582e-03  -2.175962e-03  0 
 1.990812e-03  -2.153790e-03  0 
 2.072545e-03  -2.200711e-03  0 
 1.975439e-03  -2.303765e-03  0 
 2.905611e-03  -1.833103e-03  0 
 2.715303e-03  -1.845648e-03  0 
 3.130918e-03  -3.764287e-03  0 
 2.213475e-03  -3.208112e-03  0 
 2.068014e-03  -4.608952e-03  0 
 2.561550e-03  -3.082212e-03  0 
 2.160986e-03  -2.745414e-03  0 
 2.265769e-03  -2.709084e-03  0 
 2.352727e-03  -2.842661e-03  0 
VECTORS displacement_ITER24 FLOAT
 1.935696e-03  -3.077101e-03  0 
 2.635725e-03  -3.136415e-03  0 
 2.236805e-03  -2.645713e-03  0 
 2.358664e-03  -2.713378e-03  0 
 2.470980e-03  -2.885389e-03  0 
 1.917443e-03  -3.046323e-03  0 
 2.074992e-03  -3.019136e-03  0 
 2.270362e-03  -3.052148e-03  0 
 2.117836e-03  -2.630976e-03  0 
 2.197820e-03  -2.870289e-03  0 
 1.986077e-03  -2.923681e-03  0 
 2.200478e-03  -2.550156e-03  0 
 2.092495e-03  -2.859420e-03  0 
 2.292896e-03  -2.755001e-03  0 
 1.921751e-03  -2.834722e-03  0 
 2.126225e-03  -2.521464e-03  0 
 2.021279e-03  -2.608854e-03  0 
 2.206829e-03  -2.629665e-03  0 
 2.051432e-03  -2.756592e-03  0 
 2.153420e-03  -2.730101e-03  0 
 2.364745e-03  -2.896660e-03  0 
 1.902362e-03  -3.005942e-03  0 
 3.192387e-03  -2.464351e-03  0 
 3.024493e-03  -1.980869e-03  0 
 2.469673e-03  -3.363723e-03  0 
 1.991436e-03  -4.057644e-03  0 
 1.660902e-04  -4.261735e-03  0 
 2.549968e-03  -3.790949e-03  0 
 2.159471e-03  -3.601382e-03  0 
 2.575422e-03  -3.653417e-03  0 
 2.230541e-03  -3.648793e-03  0 
VECTORS displacement_ITER25 FLOAT
 1.642718e-03  -3.101003e-03  0 
 2.542815e-03  -3.153733e-03  0 
 2.140681e-03  -2.518914e-03  0 
 2.265105e-03  -2.632855e-03  0 
 2.377967e-03  -2.854073e-03  0 
 1.672117e-03  -3.070800e-03  0 
 1.880199e-03  -3.042217e-03  0 
 2.126700e-03  -3.072506e-03  0 
 1.932008e-03  -2.541835e-03  0 
 2.038563e-03  -2.853519e-03  0 
 1.757778e-03  -2.910532e-03  0 
 2.069651e-03  -2.421772e-03  0 
 1.898861e-03  -2.836828e-03  0 
 2.161869e-03  -2.706368e-03  0 
 1.665841e-03  -2.791646e-03  0 
 1.949578e-03  -2.390215e-03  0 
 1.792418e-03  -2.513904e-03  0 
 2.058967e-03  -2.540175e-03  0 
 1.838922e-03  -2.703027e-03  0 
 1.980909e-03  -2.673777e-03  0 
 2.241131e-03  -2.884601e-03  0 
 1.638462e-03  -3.000218e-03  0 
 3.144273e-03  -2.660302e-03  0 
 2.959189e-03  -1.910681e-03  0 
 1.960183e-03  -2.821110e-03  0 
 1.656310e-03  -4.133608e-03  0 
 -9.200264e-04  -3.850509e-03  0 
 2.323804e-03  -3.732545e-03  0 
 1.919028e-03  -3.642171e-03  0 
 2.480242e-03  -3.800937e-03  0 
 1.949770e-03  -3.633641e-03  0 
VECTORS displacement_ITER26 FLOAT
 1.699290e-03  -2.697070e-03  0 
 2.173806e-03  -2.739072e-03  0 
 1.768036e-03  -2.434309e-03  0 
 1.895699e-03  -2.436237e-03  0 
 2.009316e-03  -2.548987e-03  0 
 1.624048e-03  -2.664434e-03  0 
 1.726191e-03  -2.633109e-03  0 
 1.865822e-03  -2.660826e-03  0 
 1.768258e-03  -2.368536e-03  0 
 1.813060e-03  -2.522570e-03  0 
 1.676109e-03  -2.582234e-03  0 
 1.785732e-03  -2.331653e-03  0 
 1.745695e-03  -2.523645e-03  0 
 1.877825e-03  -2.439837e-03  0 
 1.642059e-03  -2.528482e-03  0 
 1.770850e-03  -2.304190e-03  0 
 1.714830e-03  -2.355599e-03  0 
 1.813758e-03  -2.363488e-03  0 
 1.727083e-03  -2.458015e-03  0 
 1.786349e-03  -2.428852e-03  0 
 1.939938e-03  -2.538808e-03  0 
 1.630754e-03  -2.659677e-03  0 
 2.557126e-03  -2.560195e-03  0 
 2.359454e-03  -1.952613e-03  0 
 1.830535e-03  -2.870862e-03  0 
 1.533799e-03  -3.725336e-03  0 
 -5.631490e-04  -3.777447e-03  0 
 2.083408e-03  -3.433664e-03  0 
 1.772663e-03  -3.221427e-03  0 
 2.197105e-03  -3.395499e-03  0 
 1.834596e-03  -3.260708e-03  0 
VECTORS displacement_ITER27 FLOAT
 1.527426e-03  -2.930133e-03  0 
 2.377565e-03  -2.966749e-03  0 
 1.970474e-03  -2.384322e-03  0 
 2.100280e-03  -2.477531e-03  0 
 2.214158e-03  -2.684669e-03  0 
 1.545068e-03  -2.897853e-03  0 
 1.741720e-03  -2.865551e-03  0 
 1.976256e-03  -2.891391e-03  0 
 1.796719e-03  -2.391676e-03  0 
 1.893363e-03  -2.683038e-03  0 
 1.628230e-03  -2.745284e-03  0 
 1.918280e-03  -2.281362e-03  0 
 1.761950e-03  -2.670986e-03  0 
 2.010110e-03  -2.542006e-03  0 
 1.542352e-03  -2.634529e-03  0 
 1.814832e-03  -2.249197e-03  0 
 1.664534e-03  -2.366610e-03  0 
 1.913472e-03  -2.387655e-03  0 
 1.707405e-03  -2.546264e-03  0 
 1.840708e-03  -2.514334e-03  0 
 2.086704e-03  -2.710354e-03  0 
 1.516227e-03  -2.835266e-03  0 
 2.638659e-03  -2.658772e-03  0 
 2.448170e-03  -1.962629e-03  0 
 1.833267e-03  -2.709478e-03  0 
 1.532429e-03  -3.949175e-03  0 
 -9.083440e-04  -3.687057e-03  0 
 2.144049e-03  -3.533020e-03  0 
 1.764100e-03  -3.436381e-03  0 
 2.312386e-03  -3.656372e-03  0 
 1.783413e-03  -3.410237e-03  0 