# vtk DataFile Version 3.1
this is an vtk file created by FEMAC
ASCII
DATASET UNSTRUCTURED_GRID
POINTS 31 FLOAT
3.000000 0.000000 0.000000
3.000000 1.000000 0.000000
2.500000 0.000000 0.000000
2.750000 0.000000 0.000000
3.250000 0.000000 0.000000
3.500000 0.000000 0.000000
3.000000 0.250000 0.000000
3.000000 0.500000 0.000000
3.000000 0.750000 0.000000
3.250000 1.000000 0.000000
3.500000 1.000000 0.000000
2.462570 0.272476 0.000000
2.787596 0.660045 0.000000
2.828307 0.162952 0.000000
2.638134 0.825570 0.000000
2.502535 0.594871 0.000000
2.746177 0.372389 0.000000
2.660592 0.165804 0.000000
2.835146 0.847123 0.000000
3.462570 0.272476 0.000000
3.214699 0.660302 0.000000
3.638134 0.825570 0.000000
3.371728 0.825957 0.000000
3.502535 0.594871 0.000000
3.217467 0.400442 0.000000
3.167285 0.847252 0.000000
3.238340 0.153820 0.000000
3.218472 1.189265 0.000000
3.624223 1.213075 0.000000
3.378554 1.338380 0.000000
3.394250 1.148144 0.000000
CELLS 43 172 
3 12  7  8
3 13  3  0
3 6 13  0
3 15 12 14
3 12 16  7
3 16 15 11
3 12 15 16
3 16  6  7
3 13  6 16
3 13 17  3
3 8 18 12
3 18  8  1
3 17 16 11
3 13 16 17
3 14 12 18
3 17  2  3
3 2 17 11
3 7 20  8
3 10 22 21
3 24 20  7
3 23 24 19
3 23 20 24
3 9 22 10
3 6 24  7
3 23 22 20
3 21 22 23
3 8 25  1
3 25  9  1
3 25  8 20
3 25 22  9
3 20 22 25
3 4 26  0
3 26  6  0
3 5 26  4
3 24 26 19
3 26 24  6
3 5 19 26
3 1  9 27
3 29 30 28
3 30 29 27
3 30 10 28
3 30  9 10
3 27  9 30
CELL_TYPES 43
5 5 5 5 5 5 5 5 5 5 5 5 5 5 5 5 5 5 5 5 5 5 5 5 5 5 5 5 5 5 5 5 5 5 5 5 5 5 5 5 5 5 5 
POINT_DATA 31
VECTORS displacement_ITER1 FLOAT
 -1.384608e-01  -1.271314e-01  0 
 -9.381646e-02  -1.268892e-01  0 
 -1.383916e-01  -1.046377e-01  0 
 -1.384243e-01  -1.158731e-01  0 
 -1.662786e-01  -1.667375e-01  0 
 -1.916938e-01  -2.055257e-01  0 
 -1.272062e-01  -1.270800e-01  0 
 -1.159884e-01  -1.270335e-01  0 
 -1.048179e-01  -1.269715e-01  0 
 -9.385560e-02  -1.433647e-01  0 
 -9.388219e-02  -1.598375e-01  0 
 -1.261667e-01  -1.029495e-01  0 
 -1.088160e-01  -1.175142e-01  0 
 -1.311030e-01  -1.193747e-01  0 
 -1.014334e-01  -1.108336e-01  0 
 -1.117166e-01  -1.047548e-01  0 
 -1.216905e-01  -1.156714e-01  0 
 -1.309625e-01  -1.118374e-01  0 
 -1.004974e-01  -1.196367e-01  0 
 -1.410562e-01  -1.712208e-01  0 
 -1.130209e-01  -1.414605e-01  0 
 -1.182702e-01  -1.824403e-01  0 
 -1.078535e-01  -1.515371e-01  0 
 -1.247334e-01  -1.669631e-01  0 
 -1.257545e-01  -1.444541e-01  0 
 -1.028900e-01  -1.368287e-01  0 
 -1.425436e-01  -1.486943e-01  0 
 -8.140417e-02  -1.412752e-01  0 
 -7.984625e-02  -1.680131e-01  0 
 -7.159138e-02  -1.518218e-01  0 
 -8.411645e-02  -1.528569e-01  0 
VECTORS displacement_ITER2 FLOAT
 -9.379030e-02  -1.196038e-01  0 
 -5.757132e-02  -1.193458e-01  0 
 -9.372661e-02  -1.012916e-01  0 
 -9.375549e-02  -1.104373e-01  0 
 -1.210227e-01  -1.561157e-01  0 
 -1.460641e-01  -1.920460e-01  0 
 -8.462742e-02  -1.195526e-01  0 
 -7.550037e-02  -1.195047e-01  0 
 -6.642569e-02  -1.194401e-01  0 
 -5.762527e-02  -1.294351e-01  0 
 -5.765857e-02  -1.395108e-01  0 
 -8.377677e-02  -9.992003e-02  0 
 -6.967137e-02  -1.117704e-01  0 
 -8.779629e-02  -1.132848e-01  0 
 -6.368149e-02  -1.063463e-01  0 
 -7.202808e-02  -1.013960e-01  0 
 -8.013576e-02  -1.102693e-01  0 
 -8.768035e-02  -1.071512e-01  0 
 -6.292901e-02  -1.135030e-01  0 
 -9.873435e-02  -1.583499e-01  0 
 -7.346364e-02  -1.299602e-01  0 
 -8.156568e-02  -1.629621e-01  0 
 -6.974763e-02  -1.360818e-01  0 
 -8.538287e-02  -1.521184e-01  0 
 -8.431988e-02  -1.340319e-01  0 
 -6.497373e-02  -1.256840e-01  0 
 -9.899224e-02  -1.384712e-01  0 
 -5.001888e-02  -1.281457e-01  0 
 -4.907629e-02  -1.445010e-01  0 
 -4.403001e-02  -1.345969e-01  0 
 -5.168167e-02  -1.352318e-01  0 
VECTORS displacement_ITER3 FLOAT
 -7.722831e-02  -8.633419e-02  0 
 -5.252882e-02  -8.608064e-02  0 
 -7.717900e-02  -7.375037e-02  0 
 -7.720037e-02  -8.003453e-02  0 
 -1.001784e-01  -1.147165e-01  0 
 -1.218370e-01  -1.423602e-01  0 
 -7.093197e-02  -8.629030e-02  0 
 -6.466410e-02  -8.624843e-02  0 
 -5.844929e-02  -8.618845e-02  0 
 -5.260502e-02  -8.662941e-02  0 
 -5.264749e-02  -8.714498e-02  0 
 -7.034470e-02  -7.281191e-02  0 
 -6.067189e-02  -8.095645e-02  0 
 -7.310623e-02  -8.198868e-02  0 
 -5.658243e-02  -7.724860e-02  0 
 -6.228868e-02  -7.383673e-02  0 
 -6.784473e-02  -7.991746e-02  0 
 -7.302564e-02  -7.777632e-02  0 
 -5.607814e-02  -8.216202e-02  0 
 -8.395325e-02  -1.139735e-01  0 
 -6.364857e-02  -9.041135e-02  0 
 -7.497507e-02  -1.088128e-01  0 
 -6.191684e-02  -9.052599e-02  0 
 -7.503553e-02  -1.059546e-01  0 
 -7.177597e-02  -9.555335e-02  0 
 -5.758033e-02  -8.693708e-02  0 
 -8.278575e-02  -9.981146e-02  0 
 -5.223784e-02  -8.653600e-02  0 
 -5.221440e-02  -8.737753e-02  0 
 -5.196343e-02  -8.686837e-02  0 
 -5.233262e-02  -8.690433e-02  0 
VECTORS displacement_ITER4 FLOAT
 -7.436926e-02  -8.268498e-02  0 
 -4.914635e-02  -8.245945e-02  0 
 -7.433358e-02  -6.983725e-02  0 
 -7.434905e-02  -7.625564e-02  0 
 -9.163845e-02  -1.047466e-01  0 
 -1.086137e-01  -1.254694e-01  0 
 -6.794294e-02  -8.265171e-02  0 
 -6.153533e-02  -8.262083e-02  0 
 -5.517325e-02  -8.257187e-02  0 
 -4.923736e-02  -8.044556e-02  0 
 -4.928501e-02  -7.838529e-02  0 
 -6.735040e-02  -6.887906e-02  0 
 -5.745543e-02  -7.721611e-02  0 
 -7.016706e-02  -7.825580e-02  0 
 -5.327132e-02  -7.342374e-02  0 
 -5.911460e-02  -6.992628e-02  0 
 -6.479341e-02  -7.614409e-02  0 
 -7.008782e-02  -7.395287e-02  0 
 -5.275307e-02  -7.846295e-02  0 
 -7.870459e-02  -1.041507e-01  0 
 -5.984893e-02  -8.477787e-02  0 
 -7.018295e-02  -9.570133e-02  0 
 -5.797264e-02  -8.315381e-02  0 
 -7.016885e-02  -9.685452e-02  0 
 -6.796115e-02  -8.965373e-02  0 
 -5.399959e-02  -8.180578e-02  0 
 -7.792076e-02  -9.339131e-02  0 
 -5.082059e-02  -8.067055e-02  0 
 -5.104622e-02  -7.734081e-02  0 
 -5.208725e-02  -7.935887e-02  0 
 -5.049478e-02  -7.923243e-02  0 
VECTORS displacement_ITER5 FLOAT
 -5.968461e-02  -6.547498e-02  0 
 -3.824174e-02  -6.528613e-02  0 
 -5.966198e-02  -5.453092e-02  0 
 -5.967269e-02  -5.999974e-02  0 
 -7.021072e-02  -7.921434e-02  0 
 -8.162517e-02  -9.032173e-02  0 
 -5.421231e-02  -6.545452e-02  0 
 -4.874755e-02  -6.543787e-02  0 
 -4.331456e-02  -6.540311e-02  0 
 -3.834520e-02  -6.492254e-02  0 
 -3.839706e-02  -6.450730e-02  0 
 -5.371137e-02  -5.371196e-02  0 
 -4.526884e-02  -6.083390e-02  0 
 -5.610944e-02  -6.170689e-02  0 
 -4.169957e-02  -5.759732e-02  0 
 -4.668759e-02  -5.460336e-02  0 
 -5.153102e-02  -5.991014e-02  0 
 -5.604381e-02  -5.803924e-02  0 
 -4.125913e-02  -6.191479e-02  0 
 -6.208828e-02  -7.830465e-02  0 
 -4.750084e-02  -6.692692e-02  0 
 -5.481694e-02  -7.189431e-02  0 
 -4.603672e-02  -6.608379e-02  0 
 -5.494621e-02  -7.411041e-02  0 
 -5.399526e-02  -6.976508e-02  0 
 -4.268959e-02  -6.499388e-02  0 
 -6.156013e-02  -7.219886e-02  0 
 -3.868421e-02  -6.493435e-02  0 
 -3.875215e-02  -6.429765e-02  0 
 -3.896508e-02  -6.468604e-02  0 
 -3.863124e-02  -6.465979e-02  0 
VECTORS displacement_ITER6 FLOAT
 -5.109916e-02  -5.101934e-02  0 
 -3.021191e-02  -5.086445e-02  0 
 -5.108980e-02  -4.036128e-02  0 
 -5.109567e-02  -4.568932e-02  0 
 -5.480297e-02  -5.738148e-02  0 
 -6.039378e-02  -6.013544e-02  0 
 -4.577185e-02  -5.101187e-02  0 
 -4.044160e-02  -5.100904e-02  0 
 -3.513072e-02  -5.098747e-02  0 
 -3.033080e-02  -5.308031e-02  0 
 -3.038844e-02  -5.523926e-02  0 
 -4.529063e-02  -3.956076e-02  0 
 -3.704739e-02  -4.651992e-02  0 
 -4.762385e-02  -4.735699e-02  0 
 -3.355946e-02  -4.335691e-02  0 
 -3.843633e-02  -4.042730e-02  0 
 -4.316309e-02  -4.560996e-02  0 
 -4.756284e-02  -4.378197e-02  0 
 -3.312787e-02  -4.758915e-02  0 
 -5.041774e-02  -5.717495e-02  0 
 -3.897357e-02  -5.269020e-02  0 
 -4.225410e-02  -5.356402e-02  0 
 -3.724978e-02  -5.326684e-02  0 
 -4.359127e-02  -5.615556e-02  0 
 -4.468917e-02  -5.351738e-02  0 
 -3.462925e-02  -5.163436e-02  0 
 -5.065901e-02  -5.472360e-02  0 
 -2.872333e-02  -5.276002e-02  0 
 -2.854554e-02  -5.632693e-02  0 
 -2.746395e-02  -5.417103e-02  0 
 -2.909635e-02  -5.430335e-02  0 
VECTORS displacement_ITER7 FLOAT
 -4.002068e-02  -2.845136e-02  0 
 -1.998978e-02  -2.829724e-02  0 
 -4.002154e-02  -1.820793e-02  0 
 -4.002284e-02  -2.332992e-02  0 
 -3.960856e-02  -3.038811e-02  0 
 -4.144985e-02  -2.880977e-02  0 
 -3.490140e-02  -2.845148e-02  0 
 -2.977397e-02  -2.845417e-02  0 
 -2.466394e-02  -2.843483e-02  0 
 -2.012515e-02  -2.957880e-02  0 
 -2.019180e-02  -3.080400e-02  0 
 -3.444456e-02  -1.743843e-02  0 
 -2.651140e-02  -2.414204e-02  0 
 -3.668444e-02  -2.493628e-02  0 
 -2.315967e-02  -2.110165e-02  0 
 -2.785050e-02  -1.827538e-02  0 
 -3.239561e-02  -2.325981e-02  0 
 -3.662821e-02  -2.149880e-02  0 
 -2.274635e-02  -2.518173e-02  0 
 -3.741438e-02  -3.071792e-02  0 
 -2.783452e-02  -2.921914e-02  0 
 -2.924938e-02  -2.628642e-02  0 
 -2.591383e-02  -2.922636e-02  0 
 -3.108695e-02  -3.048731e-02  0 
 -3.316082e-02  -2.960811e-02  0 
 -2.392573e-02  -2.859010e-02  0 
 -3.809575e-02  -3.033359e-02  0 
 -1.922871e-02  -2.936698e-02  0 
 -1.914243e-02  -3.143528e-02  0 
 -1.852325e-02  -3.018479e-02  0 
 -1.945083e-02  -3.025934e-02  0 
VECTORS displacement_ITER8 FLOAT
 -4.290999e-02  -2.318234e-02  0 
 -2.120952e-02  -2.301182e-02  0 
 -4.291846e-02  -1.208233e-02  0 
 -4.291576e-02  -1.763336e-02  0 
 -4.018027e-02  -2.333704e-02  0 
 -3.968619e-02  -2.057813e-02  0 
 -3.736255e-02  -2.318639e-02  0 
 -3.180519e-02  -2.318964e-02  0 
 -2.626884e-02  -2.316648e-02  0 
 -2.135898e-02  -2.258151e-02  0 
 -2.143503e-02  -2.210018e-02  0 
 -3.687170e-02  -1.125061e-02  0 
 -2.827045e-02  -1.851799e-02  0 
 -3.929676e-02  -1.937621e-02  0 
 -2.464014e-02  -1.522572e-02  0 
 -2.972316e-02  -1.216185e-02  0 
 -3.464791e-02  -1.756103e-02  0 
 -3.923746e-02  -1.565100e-02  0 
 -2.419225e-02  -1.964399e-02  0 
 -3.845873e-02  -2.465286e-02  0 
 -2.893814e-02  -2.325346e-02  0 
 -2.928908e-02  -1.831851e-02  0 
 -2.644883e-02  -2.229642e-02  0 
 -3.185042e-02  -2.410808e-02  0 
 -3.475940e-02  -2.399864e-02  0 
 -2.491287e-02  -2.265660e-02  0 
 -3.967759e-02  -2.470691e-02  0 
 -2.175897e-02  -2.257604e-02  0 
 -2.183824e-02  -2.188596e-02  0 
 -2.206832e-02  -2.230226e-02  0 
 -2.170258e-02  -2.227219e-02  0 
VECTORS displacement_ITER9 FLOAT
 -3.322950e-02  -1.934709e-02  0 
 -1.418864e-02  -1.915271e-02  0 
 -3.324186e-02  -9.552634e-03  0 
 -3.323624e-02  -1.445162e-02  0 
 -3.025267e-02  -1.891794e-02  0 
 -2.922706e-02  -1.627990e-02  0 
 -2.833531e-02  -1.935070e-02  0 
 -2.343339e-02  -1.935044e-02  0 
 -1.855858e-02  -1.932042e-02  0 
 -1.434802e-02  -1.827549e-02  0 
 -1.442968e-02  -1.735030e-02  0 
 -2.790407e-02  -8.822269e-03  0 
 -2.032072e-02  -1.523896e-02  0 
 -3.004221e-02  -1.599031e-02  0 
 -1.713040e-02  -1.234270e-02  0 
 -2.160164e-02  -9.633645e-03  0 
 -2.594067e-02  -1.439045e-02  0 
 -2.999086e-02  -1.270420e-02  0 
 -1.674288e-02  -1.624000e-02  0 
 -2.886260e-02  -2.028530e-02  0 
 -2.058665e-02  -1.907105e-02  0 
 -1.975671e-02  -1.382763e-02  0 
 -1.810269e-02  -1.800025e-02  0 
 -2.277750e-02  -1.945427e-02  0 
 -2.574615e-02  -1.976264e-02  0 
 -1.715183e-02  -1.868333e-02  0 
 -3.007404e-02  -2.045525e-02  0 
 -1.508789e-02  -1.831995e-02  0 
 -1.520896e-02  -1.692089e-02  0 
 -1.565980e-02  -1.776683e-02  0 
 -1.495926e-02  -1.770788e-02  0 
VECTORS displacement_ITER10 FLOAT
 -2.444604e-02  -1.222253e-02  0 
 -9.794429e-03  -1.199388e-02  0 
 -2.446000e-02  -4.599359e-03  0 
 -2.445250e-02  -8.413213e-03  0 
 -2.225867e-02  -1.170764e-02  0 
 -2.179495e-02  -9.545651e-03  0 
 -2.063793e-02  -1.222392e-02  0 
 -1.682527e-02  -1.221896e-02  0 
 -1.304681e-02  -1.218031e-02  0 
 -9.960608e-03  -1.136458e-02  0 
 -1.004877e-02  -1.070246e-02  0 
 -2.030400e-02  -4.035518e-03  0 
 -1.441196e-02  -9.035523e-03  0 
 -2.196599e-02  -9.611331e-03  0 
 -1.194844e-02  -6.795189e-03  0 
 -1.540784e-02  -4.677726e-03  0 
 -1.877481e-02  -8.368477e-03  0 
 -2.192696e-02  -7.055082e-03  0 
 -1.165856e-02  -9.826311e-03  0 
 -2.110324e-02  -1.251298e-02  0 
 -1.444498e-02  -1.176170e-02  0 
 -1.235501e-02  -7.330863e-03  0 
 -1.220345e-02  -1.106177e-02  0 
 -1.574193e-02  -1.160086e-02  0 
 -1.849692e-02  -1.211536e-02  0 
 -1.186301e-02  -1.168759e-02  0 
 -2.205932e-02  -1.275406e-02  0 
 -1.050646e-02  -1.137007e-02  0 
 -1.059966e-02  -1.041247e-02  0 
 -1.091295e-02  -1.098869e-02  0 
 -1.042095e-02  -1.094610e-02  0 
VECTORS displacement_ITER11 FLOAT
 -2.113052e-02  -1.050210e-02  0 
 -1.087026e-02  -1.023876e-02  0 
 -2.114510e-02  -5.047842e-03  0 
 -2.113642e-02  -7.777894e-03  0 
 -1.999843e-02  -1.000369e-02  0 
 -2.049100e-02  -8.226604e-03  0 
 -1.840767e-02  -1.050093e-02  0 
 -1.568352e-02  -1.049177e-02  0 
 -1.300143e-02  -1.044504e-02  0 
 -1.104304e-02  -9.713364e-03  0 
 -1.113781e-02  -9.170198e-03  0 
 -1.817138e-02  -4.651184e-03  0 
 -1.396988e-02  -8.237228e-03  0 
 -1.935699e-02  -8.635654e-03  0 
 -1.223343e-02  -6.653787e-03  0 
 -1.468165e-02  -5.126045e-03  0 
 -1.707588e-02  -7.749898e-03  0 
 -1.933023e-02  -6.808479e-03  0 
 -1.204126e-02  -8.818844e-03  0 
 -1.906749e-02  -9.981393e-03  0 
 -1.386955e-02  -9.755454e-03  0 
 -1.096552e-02  -6.201219e-03  0 
 -1.197390e-02  -9.324764e-03  0 
 -1.443926e-02  -9.022926e-03  0 
 -1.684124e-02  -9.791186e-03  0 
 -1.211308e-02  -9.972151e-03  0 
 -1.968115e-02  -1.037738e-02  0 
 -1.150404e-02  -9.698491e-03  0 
 -1.158307e-02  -8.946971e-03  0 
 -1.183178e-02  -9.396080e-03  0 
 -1.143781e-02  -9.360737e-03  0 
VECTORS displacement_ITER12 FLOAT
 -1.759979e-02  -4.798487e-03  0 
 -9.695338e-03  -4.504555e-03  0 
 -1.761630e-02  -4.962427e-04  0 
 -1.760587e-02  -2.651044e-03  0 
 -1.693816e-02  -4.258656e-03  0 
 -1.782343e-02  -2.748279e-03  0 
 -1.545386e-02  -4.795641e-03  0 
 -1.330957e-02  -4.782429e-03  0 
 -1.121503e-02  -4.727526e-03  0 
 -9.873787e-03  -4.117518e-03  0 
 -9.973416e-03  -3.721509e-03  0 
 -1.527021e-02  -1.905583e-04  0 
 -1.196971e-02  -3.024349e-03  0 
 -1.620186e-02  -3.328195e-03  0 
 -1.062355e-02  -1.793423e-03  0 
 -1.252959e-02  -5.795785e-04  0 
 -1.440452e-02  -2.632784e-03  0 
 -1.618189e-02  -1.888749e-03  0 
 -1.048554e-02  -3.493441e-03  0 
 -1.606260e-02  -3.903447e-03  0 
 -1.173139e-02  -3.967419e-03  0 
 -8.149240e-03  -1.185041e-03  0 
 -9.965872e-03  -3.764099e-03  0 
 -1.178215e-02  -2.985815e-03  0 
 -1.412398e-02  -3.792198e-03  0 
 -1.044165e-02  -4.344585e-03  0 
 -1.657199e-02  -4.324202e-03  0 
 -1.022711e-02  -4.080082e-03  0 
 -1.028973e-02  -3.576819e-03  0 
 -1.046279e-02  -3.875094e-03  0 
 -1.018487e-02  -3.847922e-03  0 
VECTORS displacement_ITER13 FLOAT
 -1.413102e-02  -7.668532e-03  0 
 -6.420238e-03  -7.333883e-03  0 
 -1.415036e-02  -3.435511e-03  0 
 -1.413754e-02  -5.556174e-03  0 
 -1.375056e-02  -7.505674e-03  0 
 -1.477165e-02  -6.691194e-03  0 
 -1.202024e-02  -7.663962e-03  0 
 -9.914394e-03  -7.644790e-03  0 
 -7.867600e-03  -7.577891e-03  0 
 -6.602980e-03  -6.646470e-03  0 
 -6.708286e-03  -5.962613e-03  0 
 -1.184079e-02  -3.139530e-03  0 
 -8.601325e-03  -5.922875e-03  0 
 -1.275567e-02  -6.222549e-03  0 
 -7.288283e-03  -4.721849e-03  0 
 -9.149424e-03  -3.529744e-03  0 
 -1.098763e-02  -5.539421e-03  0 
 -1.273652e-02  -4.807560e-03  0 
 -7.158644e-03  -6.380007e-03  0 
 -1.255786e-02  -7.285655e-03  0 
 -8.247839e-03  -6.824168e-03  0 
 -4.707851e-03  -4.681096e-03  0 
 -6.462552e-03  -6.500689e-03  0 
 -8.308180e-03  -6.173645e-03  0 
 -1.064640e-02  -6.797644e-03  0 
 -7.017068e-03  -7.124065e-03  0 
 -1.312963e-02  -7.380804e-03  0 
 -7.177704e-03  -6.641564e-03  0 
 -7.265855e-03  -5.678258e-03  0 
 -7.579665e-03  -6.252619e-03  0 
 -7.087966e-03  -6.207843e-03  0 
VECTORS displacement_ITER14 FLOAT
 -1.239068e-02  -7.938235e-03  0 
 -3.711319e-03  -7.558718e-03  0 
 -1.241442e-02  -3.187564e-03  0 
 -1.239848e-02  -5.567664e-03  0 
 -1.170714e-02  -7.880037e-03  0 
 -1.227610e-02  -7.523326e-03  0 
 -1.002170e-02  -7.932804e-03  0 
 -7.660670e-03  -7.907534e-03  0 
 -5.369450e-03  -7.827191e-03  0 
 -3.899513e-03  -5.773966e-03  0 
 -4.011312e-03  -4.003354e-03  0 
 -9.821414e-03  -2.857946e-03  0 
 -6.187241e-03  -5.973960e-03  0 
 -1.084718e-02  -6.315759e-03  0 
 -4.714804e-03  -4.629113e-03  0 
 -6.800377e-03  -3.298313e-03  0 
 -8.862354e-03  -5.549138e-03  0 
 -1.082596e-02  -4.728194e-03  0 
 -4.569069e-03  -6.475687e-03  0 
 -1.027039e-02  -8.094728e-03  0 
 -5.659504e-03  -6.842451e-03  0 
 -2.828922e-03  -4.307795e-03  0 
 -3.837204e-03  -5.829065e-03  0 
 -6.017569e-03  -6.568951e-03  0 
 -8.377202e-03  -7.256677e-03  0 
 -4.307412e-03  -6.923328e-03  0 
 -1.101702e-02  -7.933003e-03  0 
 -5.300174e-03  -5.902079e-03  0 
 -5.490464e-03  -3.180371e-03  0 
 -6.346725e-03  -4.817237e-03  0 
 -5.031808e-03  -4.704694e-03  0 
VECTORS displacement_ITER15 FLOAT
 -1.214619e-02  -7.413507e-03  0 
 -3.483925e-03  -7.009088e-03  0 
 -1.217311e-02  -2.656157e-03  0 
 -1.215537e-02  -5.040158e-03  0 
 -1.049861e-02  -6.709343e-03  0 
 -9.949729e-03  -5.771994e-03  0 
 -9.774526e-03  -7.408826e-03  0 
 -7.412060e-03  -7.381147e-03  0 
 -5.124348e-03  -7.293611e-03  0 
 -3.672465e-03  -5.704145e-03  0 
 -3.787390e-03  -4.422926e-03  0 
 -9.575916e-03  -2.328684e-03  0 
 -5.938513e-03  -5.447846e-03  0 
 -1.060147e-02  -5.790062e-03  0 
 -4.468693e-03  -4.105820e-03  0 
 -6.551570e-03  -2.774186e-03  0 
 -8.613826e-03  -5.023350e-03  0 
 -1.058088e-02  -4.200461e-03  0 
 -4.325755e-03  -5.946837e-03  0 
 -9.413957e-03  -7.422141e-03  0 
 -5.440572e-03  -6.672425e-03  0 
 -2.935523e-03  -3.992193e-03  0 
 -3.813641e-03  -5.837680e-03  0 
 -5.580754e-03  -6.371773e-03  0 
 -7.997734e-03  -6.951143e-03  0 
 -4.156484e-03  -6.646701e-03  0 
 -1.033412e-02  -7.426745e-03  0 
 -4.704059e-03  -5.769544e-03  0 
 -4.844360e-03  -3.847691e-03  0 
 -5.453889e-03  -4.998867e-03  0 
 -4.515627e-03  -4.916182e-03  0 
VECTORS displacement_ITER16 FLOAT
 -8.773907e-03  -9.002480e-03  0 
 -2.486217e-03  -8.586804e-03  0 
 -8.800872e-03  -5.431971e-03  0 
 -8.783103e-03  -7.222667e-03  0 
 -6.798742e-03  -7.798561e-03  0 
 -5.684738e-03  -6.291462e-03  0 
 -6.995938e-03  -8.997745e-03  0 
 -5.228234e-03  -8.968796e-03  0 
 -3.536114e-03  -8.878010e-03  0 
 -2.671515e-03  -8.650631e-03  0 
 -2.786821e-03  -8.746129e-03  0 
 -6.850427e-03  -5.193687e-03  0 
 -4.134220e-03  -7.538569e-03  0 
 -7.616094e-03  -7.786616e-03  0 
 -3.057065e-03  -6.551158e-03  0 
 -4.591441e-03  -5.544106e-03  0 
 -6.125665e-03  -7.214610e-03  0 
 -7.602152e-03  -6.595168e-03  0 
 -2.966336e-03  -7.920794e-03  0 
 -6.354018e-03  -8.519309e-03  0 
 -3.871652e-03  -8.832858e-03  0 
 -1.650181e-03  -6.515661e-03  0 
 -2.807437e-03  -8.710102e-03  0 
 -3.533180e-03  -8.219115e-03  0 
 -5.574326e-03  -8.647294e-03  0 
 -3.037157e-03  -8.832242e-03  0 
 -7.144227e-03  -8.830127e-03  0 
 -2.661124e-03  -8.543568e-03  0 
 -2.666378e-03  -8.860856e-03  0 
 -2.584895e-03  -8.655432e-03  0 
 -2.698202e-03  -8.657778e-03  0 
VECTORS displacement_ITER17 FLOAT
 -9.365834e-03  -7.965059e-03  0 
 -2.486280e-03  -7.537260e-03  0 
 -9.392958e-03  -4.091391e-03  0 
 -9.374985e-03  -6.033602e-03  0 
 -7.436189e-03  -7.138813e-03  0 
 -6.204020e-03  -6.164107e-03  0 
 -7.436196e-03  -7.959940e-03  0 
 -5.517615e-03  -7.929433e-03  0 
 -3.677204e-03  -7.835233e-03  0 
 -2.672385e-03  -7.266844e-03  0 
 -2.790058e-03  -7.032092e-03  0 
 -7.277475e-03  -3.831162e-03  0 
 -4.327705e-03  -6.372092e-03  0 
 -8.109087e-03  -6.645027e-03  0 
 -3.152692e-03  -5.296403e-03  0 
 -4.824059e-03  -4.207627e-03  0 
 -6.491622e-03  -6.023393e-03  0 
 -8.093509e-03  -5.352036e-03  0 
 -3.050348e-03  -6.781829e-03  0 
 -6.749745e-03  -8.146007e-03  0 
 -4.063750e-03  -7.854922e-03  0 
 -2.478866e-03  -5.767687e-03  0 
 -3.036917e-03  -7.493728e-03  0 
 -4.017763e-03  -7.682807e-03  0 
 -5.935455e-03  -7.924165e-03  0 
 -3.119467e-03  -7.677536e-03  0 
 -7.606463e-03  -8.155727e-03  0 
 -2.912824e-03  -7.200664e-03  0 
 -2.949247e-03  -6.982062e-03  0 
 -3.032961e-03  -7.099810e-03  0 
 -2.895629e-03  -7.081950e-03  0 
VECTORS displacement_ITER18 FLOAT
 -8.687504e-03  -7.287810e-03  0 
 -1.421846e-03  -6.852943e-03  0 
 -8.714619e-03  -3.217076e-03  0 
 -8.696471e-03  -5.257686e-03  0 
 -6.977283e-03  -6.852177e-03  0 
 -5.859712e-03  -6.452383e-03  0 
 -6.659113e-03  -7.282189e-03  0 
 -4.642283e-03  -7.250419e-03  0 
 -2.705426e-03  -7.154026e-03  0 
 -1.609270e-03  -5.847389e-03  0 
 -1.729377e-03  -4.880640e-03  0 
 -6.491621e-03  -2.942537e-03  0 
 -3.390073e-03  -5.610507e-03  0 
 -7.366254e-03  -5.899884e-03  0 
 -2.151393e-03  -4.477372e-03  0 
 -3.911889e-03  -3.335772e-03  0 
 -5.666095e-03  -5.245856e-03  0 
 -7.349564e-03  -4.540969e-03  0 
 -2.041521e-03  -6.038004e-03  0 
 -6.033021e-03  -7.971818e-03  0 
 -3.056902e-03  -6.983725e-03  0 
 -1.931280e-03  -5.092252e-03  0 
 -1.991613e-03  -6.204192e-03  0 
 -3.337889e-03  -7.174760e-03  0 
 -5.113978e-03  -7.388969e-03  0 
 -2.028643e-03  -6.685942e-03  0 
 -6.905683e-03  -7.722865e-03  0 
 -2.404782e-03  -5.872460e-03  0 
 -2.511319e-03  -4.464983e-03  0 
 -2.961906e-03  -5.301337e-03  0 
 -2.267369e-03  -5.238370e-03  0 
VECTORS displacement_ITER19 FLOAT
 -7.298890e-03  -6.099125e-03  0 
 -1.370656e-03  -5.665311e-03  0 
 -7.324558e-03  -2.702123e-03  0 
 -7.307224e-03  -4.405728e-03  0 
 -5.887292e-03  -5.699736e-03  0 
 -5.022675e-03  -5.236816e-03  0 
 -5.607320e-03  -6.093011e-03  0 
 -3.927403e-03  -6.061408e-03  0 
 -2.326461e-03  -5.965665e-03  0 
 -1.556716e-03  -5.182285e-03  0 
 -1.677448e-03  -4.742257e-03  0 
 -5.469227e-03  -2.477448e-03  0 
 -2.890085e-03  -4.706326e-03  0 
 -6.196859e-03  -4.941995e-03  0 
 -1.872449e-03  -3.773057e-03  0 
 -3.324111e-03  -2.815357e-03  0 
 -4.779067e-03  -4.398128e-03  0 
 -6.183641e-03  -3.809058e-03  0 
 -1.791222e-03  -5.068504e-03  0 
 -5.134192e-03  -6.558971e-03  0 
 -2.691650e-03  -5.938958e-03  0 
 -1.589980e-03  -4.603664e-03  0 
 -1.843353e-03  -5.481545e-03  0 
 -2.853852e-03  -6.016715e-03  0 
 -4.353301e-03  -6.164802e-03  0 
 -1.871700e-03  -5.701516e-03  0 
 -5.844968e-03  -6.415104e-03  0 
 -1.953758e-03  -5.141327e-03  0 
 -2.008679e-03  -4.590342e-03  0 
 -2.195042e-03  -4.907430e-03  0 
 -1.902652e-03  -4.877162e-03  0 
VECTORS displacement_ITER20 FLOAT
 -7.025050e-03  -5.645358e-03  0 
 -1.120032e-03  -5.209533e-03  0 
 -7.050768e-03  -2.264414e-03  0 
 -7.033417e-03  -3.959826e-03  0 
 -5.506267e-03  -5.119829e-03  0 
 -4.573655e-03  -4.372143e-03  0 
 -5.341364e-03  -5.639326e-03  0 
 -3.669153e-03  -5.607333e-03  0 
 -2.075470e-03  -5.510568e-03  0 
 -1.304760e-03  -5.011173e-03  0 
 -1.426331e-03  -4.859910e-03  0 
 -5.203650e-03  -2.040262e-03  0 
 -2.635698e-03  -4.257351e-03  0 
 -5.928178e-03  -4.493626e-03  0 
 -1.621723e-03  -3.327598e-03  0 
 -3.067228e-03  -2.375804e-03  0 
 -4.516580e-03  -3.951987e-03  0 
 -5.915001e-03  -3.365911e-03  0 
 -1.541314e-03  -4.615897e-03  0 
 -4.890722e-03  -5.937228e-03  0 
 -2.535732e-03  -5.581888e-03  0 
 -1.500056e-03  -4.419285e-03  0 
 -1.737503e-03  -5.273345e-03  0 
 -2.718736e-03  -5.615708e-03  0 
 -4.152818e-03  -5.729330e-03  0 
 -1.696764e-03  -5.350792e-03  0 
 -5.574125e-03  -5.917924e-03  0 
 -1.483104e-03  -4.934110e-03  0 
 -1.509471e-03  -4.852740e-03  0 
 -1.550674e-03  -4.884563e-03  0 
 -1.479368e-03  -4.872382e-03  0 
VECTORS displacement_ITER21 FLOAT
 -6.049525e-03  -4.561928e-03  0 
 -1.848673e-03  -4.121170e-03  0 
 -6.074301e-03  -2.035335e-03  0 
 -6.057353e-03  -3.303342e-03  0 
 -4.888952e-03  -3.983699e-03  0 
 -4.304602e-03  -3.042182e-03  0 
 -4.792887e-03  -4.555075e-03  0 
 -3.548428e-03  -4.521842e-03  0 
 -2.383090e-03  -4.423139e-03  0 
 -2.032218e-03  -4.113090e-03  0 
 -2.154998e-03  -4.156719e-03  0 
 -4.692835e-03  -1.874857e-03  0 
 -2.787947e-03  -3.533921e-03  0 
 -5.230641e-03  -3.703012e-03  0 
 -2.056254e-03  -2.859236e-03  0 
 -3.107128e-03  -2.141579e-03  0 
 -4.176737e-03  -3.301257e-03  0 
 -5.222084e-03  -2.861947e-03  0 
 -2.013396e-03  -3.808124e-03  0 
 -4.597195e-03  -4.365101e-03  0 
 -2.839589e-03  -4.424592e-03  0 
 -2.081910e-03  -3.391046e-03  0 
 -2.350393e-03  -4.221243e-03  0 
 -2.978138e-03  -4.180671e-03  0 
 -3.984566e-03  -4.461219e-03  0 
 -2.269402e-03  -4.263255e-03  0 
 -5.027840e-03  -4.588405e-03  0 
 -2.063118e-03  -4.011641e-03  0 
 -2.069954e-03  -4.247891e-03  0 
 -2.012903e-03  -4.086337e-03  0 
 -2.091376e-03  -4.086354e-03  0 
VECTORS displacement_ITER22 FLOAT
 -6.242406e-03  -5.142181e-03  0 
 -1.508655e-03  -4.693514e-03  0 
 -6.266905e-03  -2.346954e-03  0 
 -6.249946e-03  -3.749025e-03  0 
 -5.399298e-03  -5.003906e-03  0 
 -5.104339e-03  -4.502640e-03  0 
 -4.851209e-03  -5.134556e-03  0 
 -3.473076e-03  -5.099474e-03  0 
 -2.176229e-03  -4.997532e-03  0 
 -1.692570e-03  -4.333848e-03  0 
 -1.817429e-03  -4.028605e-03  0 
 -4.739098e-03  -2.166667e-03  0 
 -2.627007e-03  -3.998067e-03  0 
 -5.335580e-03  -4.190652e-03  0 
 -1.807673e-03  -3.244473e-03  0 
 -2.980227e-03  -2.455981e-03  0 
 -4.168838e-03  -3.744702e-03  0 
 -5.325490e-03  -3.259596e-03  0 
 -1.754704e-03  -4.294858e-03  0 
 -4.871186e-03  -5.382837e-03  0 
 -2.716870e-03  -4.923336e-03  0 
 -2.353224e-03  -4.112926e-03  0 
 -2.193092e-03  -4.506581e-03  0 
 -3.194080e-03  -4.979245e-03  0 
 -4.054992e-03  -5.184514e-03  0 
 -2.010870e-03  -4.672260e-03  0 
 -5.271866e-03  -5.402026e-03  0 
 -1.987598e-03  -4.275803e-03  0 
 -2.028341e-03  -3.945179e-03  0 
 -2.145760e-03  -4.125587e-03  0 
 -1.958955e-03  -4.104493e-03  0 
VECTORS displacement_ITER23 FLOAT
 -4.838571e-03  -4.258722e-03  0 
 -1.695527e-03  -3.802794e-03  0 
 -4.862161e-03  -2.258302e-03  0 
 -4.845555e-03  -3.262713e-03  0 
 -4.390290e-03  -4.247713e-03  0 
 -4.359631e-03  -3.933756e-03  0 
 -3.844538e-03  -4.250195e-03  0 
 -2.864684e-03  -4.213481e-03  0 
 -1.967801e-03  -4.108785e-03  0 
 -1.879368e-03  -3.268710e-03  0 
 -2.006341e-03  -2.793861e-03  0 
 -3.767916e-03  -2.137738e-03  0 
 -2.273313e-03  -3.449843e-03  0 
 -4.190274e-03  -3.579560e-03  0 
 -1.717712e-03  -2.934630e-03  0 
 -2.522020e-03  -2.364090e-03  0 
 -3.356381e-03  -3.263969e-03  0 
 -4.184566e-03  -2.915251e-03  0 
 -1.700190e-03  -3.667746e-03  0 
 -4.053737e-03  -4.348236e-03  0 
 -2.430856e-03  -3.888941e-03  0 
 -2.464592e-03  -3.093643e-03  0 
 -2.185499e-03  -3.363362e-03  0 
 -2.950858e-03  -3.834279e-03  0 
 -3.356146e-03  -4.209757e-03  0 
 -1.986333e-03  -3.650377e-03  0 
 -4.235173e-03  -4.431204e-03  0 
 -2.303158e-03  -3.231452e-03  0 
 -2.359861e-03  -2.626843e-03  0 
 -2.561180e-03  -2.971636e-03  0 
 -2.246869e-03  -2.940414e-03  0 
VECTORS displacement_ITER24 FLOAT
 -4.416972e-03  -4.506437e-03  0 
 -1.578335e-03  -4.041309e-03  0 
 -4.439982e-03  -2.659995e-03  0 
 -4.423666e-03  -3.587081e-03  0 
 -4.099453e-03  -4.663391e-03  0 
 -4.117825e-03  -4.442343e-03  0 
 -3.499618e-03  -4.497441e-03  0 
 -2.597242e-03  -4.459166e-03  0 
 -1.779261e-03  -4.350925e-03  0 
 -1.761156e-03  -3.885953e-03  0 
 -1.890497e-03  -3.796162e-03  0 
 -3.429917e-03  -2.550760e-03  0 
 -2.054509e-03  -3.759975e-03  0 
 -3.818494e-03  -3.879732e-03  0 
 -1.549365e-03  -3.290861e-03  0 
 -2.282193e-03  -2.765025e-03  0 
 -3.048617e-03  -3.589178e-03  0 
 -3.813620e-03  -3.266968e-03  0 
 -1.539835e-03  -3.958723e-03  0 
 -3.806576e-03  -4.752158e-03  0 
 -2.349541e-03  -4.327881e-03  0 
 -2.664570e-03  -3.814871e-03  0 
 -2.245381e-03  -3.983802e-03  0 
 -2.944044e-03  -4.366422e-03  0 
 -3.140552e-03  -4.610029e-03  0 
 -1.929767e-03  -4.049088e-03  0 
 -3.916816e-03  -4.796993e-03  0 
 -1.893284e-03  -3.799864e-03  0 
 -1.912676e-03  -3.822235e-03  0 
 -1.919507e-03  -3.785468e-03  0 
 -1.900675e-03  -3.778843e-03  0 
VECTORS displacement_ITER25 FLOAT
 -3.918780e-03  -4.331906e-03  0 
 -1.971877e-03  -3.858671e-03  0 
 -3.940203e-03  -2.932084e-03  0 
 -3.924633e-03  -3.635526e-03  0 
 -4.141232e-03  -4.930597e-03  0 
 -4.568371e-03  -5.143632e-03  0 
 -3.224467e-03  -4.321783e-03  0 
 -2.546117e-03  -4.282071e-03  0 
 -1.953568e-03  -4.171281e-03  0 
 -2.153697e-03  -3.829295e-03  0 
 -2.284968e-03  -3.870522e-03  0 
 -3.174285e-03  -2.856281e-03  0 
 -2.146363e-03  -3.772419e-03  0 
 -3.465195e-03  -3.857752e-03  0 
 -1.789072e-03  -3.437341e-03  0 
 -2.315210e-03  -3.034911e-03  0 
 -2.882400e-03  -3.640177e-03  0 
 -3.462569e-03  -3.394927e-03  0 
 -1.799735e-03  -3.925257e-03  0 
 -3.824320e-03  -4.832574e-03  0 
 -2.580854e-03  -4.215219e-03  0 
 -3.405677e-03  -3.945505e-03  0 
 -2.715026e-03  -3.910859e-03  0 
 -3.323585e-03  -4.362442e-03  0 
 -3.122688e-03  -4.542059e-03  0 
 -2.281325e-03  -3.890736e-03  0 
 -3.754372e-03  -4.756017e-03  0 
 -2.186512e-03  -3.726570e-03  0 
 -2.193218e-03  -3.962435e-03  0 
 -2.133237e-03  -3.794685e-03  0 
 -2.215760e-03  -3.796856e-03  0 
VECTORS displacement_ITER26 FLOAT
 -3.595974e-03  -3.682188e-03  0 
 -1.815790e-03  -3.202166e-03  0 
 -3.617088e-03  -2.366647e-03  0 
 -3.601588e-03  -3.027705e-03  0 
 -4.007923e-03  -4.418461e-03  0 
 -4.624624e-03  -4.716440e-03  0 
 -2.943543e-03  -3.671634e-03  0 
 -2.307357e-03  -3.630886e-03  0 
 -1.757874e-03  -3.517813e-03  0 
 -1.997650e-03  -3.177992e-03  0 
 -2.131101e-03  -3.228468e-03  0 
 -2.896868e-03  -2.296892e-03  0 
 -1.934071e-03  -3.156443e-03  0 
 -3.169535e-03  -3.236630e-03  0 
 -1.604307e-03  -2.846578e-03  0 
 -2.091465e-03  -2.468622e-03  0 
 -2.621625e-03  -3.032578e-03  0 
 -3.167313e-03  -2.802071e-03  0 
 -1.619430e-03  -3.298704e-03  0 
 -3.679848e-03  -4.214432e-03  0 
 -2.434422e-03  -3.560738e-03  0 
 -3.505663e-03  -3.357680e-03  0 
 -2.650323e-03  -3.242762e-03  0 
 -3.265399e-03  -3.732503e-03  0 
 -2.931801e-03  -3.906890e-03  0 
 -2.146180e-03  -3.214723e-03  0 
 -3.545610e-03  -4.128776e-03  0 
 -2.023466e-03  -3.073506e-03  0 
 -2.029668e-03  -3.325256e-03  0 
 -1.963737e-03  -3.146216e-03  0 
 -2.054745e-03  -3.149750e-03  0 
VECTORS displacement_ITER27 FLOAT
 -2.776019e-03  -3.200709e-03  0 
 -1.855421e-03  -2.720200e-03  0 
 -2.796032e-03  -2.319647e-03  0 
 -2.781136e-03  -2.763203e-03  0 