# vtk DataFile Version 3.1
this is an vtk file created by FEMAC
ASCII
DATASET UNSTRUCTURED_GRID
POINTS 20 FLOAT
0.000000 5.000000 0.000000
1.000000 5.000000 0.000000
0.000000 6.000000 0.000000
0.333333 5.000000 0.000000
0.666667 5.000000 0.000000
0.000000 4.666667 0.000000
0.333333 6.000000 0.000000
0.000000 5.333333 0.000000
0.000000 5.666667 0.000000
0.775322 4.793598 0.000000
0.478822 4.750065 0.000000
0.209278 4.747759 0.000000
0.291353 4.475976 0.000000
0.488340 5.204422 0.000000
0.478822 5.750065 0.000000
0.696366 5.462917 0.000000
0.783178 5.200855 0.000000
0.209278 5.747759 0.000000
0.291353 5.475976 0.000000
0.222605 5.202746 0.000000
CELLS 25 100 
3 4 9 1
3 4 10  9
3 10  4  3
3 11  3  0
3 5 11  0
3 3 11 10
3 12 10 11
3 12 11  5
3 4 13  3
3 16  4  1
3 17  6  2
3 8 17  2
3 6 17 14
3 16 13  4
3 16 15 13
3 7 18  8
3 18 14 17
3 15 14 18
3 18 17  8
3 15 18 13
3 3 19  0
3 7 19 18
3 19  7  0
3 13 19  3
3 13 18 19
CELL_TYPES 25
5 5 5 5 5 5 5 5 5 5 5 5 5 5 5 5 5 5 5 5 5 5 5 5 5 
POINT_DATA 20
VECTORS displacement_ITER1 FLOAT
 0  0  0 
 1.088958e-03  -1.638755e-03  0 
 0  0  0 
 3.063398e-04  -2.698934e-04  0 
 6.767002e-04  -8.026853e-04  0 
 0  0  0 
 2.279866e-03  -5.565425e-03  0 
 0  0  0 
 0  0  0 
 2.982955e-04  -8.738148e-04  0 
 8.099581e-05  -2.563194e-04  0 
 2.011027e-05  -2.248332e-05  0 
 -1.137973e-04  -5.447486e-05  0 
 5.234020e-04  -3.063730e-03  0 
 1.402390e-03  -5.982346e-03  0 
 1.557287e-03  -5.647918e-03  0 
 1.807710e-03  -2.937908e-03  0 
 5.752342e-04  -3.274490e-03  0 
 2.094711e-04  -4.033785e-03  0 
 -2.783951e-04  -2.061946e-03  0 
VECTORS displacement_ITER2 FLOAT
 0  0  0 
 3.541761e-03  -7.882367e-03  0 
 0  0  0 
 1.210557e-03  -1.255089e-03  0 
 2.497653e-03  -3.849922e-03  0 
 0  0  0 
 4.433673e-03  -6.227016e-03  0 
 0  0  0 
 0  0  0 
 5.402420e-04  -4.705530e-03  0 
 2.062006e-05  -1.540336e-03  0 
 -2.202202e-05  -2.371013e-04  0 
 -8.708865e-04  -6.803765e-04  0 
 2.313039e-03  -4.684057e-03  0 
 3.937567e-03  -6.656554e-03  0 
 4.059408e-03  -7.582073e-03  0 
 4.405413e-03  -6.287798e-03  0 
 1.666713e-03  -3.482912e-03  0 
 1.489592e-03  -4.461694e-03  0 
 5.549410e-04  -2.519060e-03  0 
VECTORS displacement_ITER3 FLOAT
 0  0  0 
 2.601477e-03  -5.382260e-03  0 
 0  0  0 
 8.187749e-04  -7.989324e-04  0 
 1.732632e-03  -2.329645e-03  0 
 0  0  0 
 5.265930e-03  -5.728998e-03  0 
 0  0  0 
 0  0  0 
 4.451373e-04  -2.821274e-03  0 
 1.421791e-04  -8.736209e-04  0 
 3.335663e-05  -1.306561e-04  0 
 -3.943847e-04  -3.332592e-04  0 
 1.999617e-03  -3.415385e-03  0 
 5.273714e-03  -5.769271e-03  0 
 4.776272e-03  -6.451782e-03  0 
 4.131498e-03  -4.906305e-03  0 
 2.156531e-03  -2.942879e-03  0 
 1.738891e-03  -3.381419e-03  0 
 5.048739e-04  -1.865156e-03  0 
VECTORS displacement_ITER4 FLOAT
 0  0  0 
 1.407359e-03  -2.542020e-03  0 
 0  0  0 
 5.718270e-04  -7.163273e-04  0 
 9.623354e-04  -1.290004e-03  0 
 0  0  0 
 3.493561e-03  -7.857582e-03  0 
 0  0  0 
 0  0  0 
 5.059623e-04  -1.408115e-03  0 
 3.556167e-04  -7.453558e-04  0 
 1.155934e-04  -2.026328e-04  0 
 -1.513600e-04  -3.014656e-04  0 
 1.335423e-03  -2.776445e-03  0 
 4.082397e-03  -6.433043e-03  0 
 4.066275e-03  -5.467242e-03  0 
 2.905834e-03  -3.219194e-03  0 
 1.390011e-03  -3.808902e-03  0 
 1.167893e-03  -3.689282e-03  0 
 1.920415e-04  -1.924351e-03  0 
VECTORS displacement_ITER5 FLOAT
 0  0  0 
 1.454868e-03  -2.171739e-03  0 
 0  0  0 
 5.170811e-04  -5.857466e-04  0 
 9.395025e-04  -1.034709e-03  0 
 0  0  0 
 2.983725e-03  -8.428917e-03  0 
 0  0  0 
 0  0  0 
 5.454014e-04  -1.088008e-03  0 
 3.778082e-04  -5.267617e-04  0 
 1.257141e-04  -1.406228e-04  0 
 2.974011e-06  -1.494401e-04  0 
 1.277819e-03  -2.816776e-03  0 
 3.207813e-03  -7.477685e-03  0 
 3.733173e-03  -5.556615e-03  0 
 2.895627e-03  -3.146570e-03  0 
 1.032833e-03  -4.198940e-03  0 
 8.193473e-04  -4.208079e-03  0 
 7.733444e-05  -2.063956e-03  0 
VECTORS displacement_ITER6 FLOAT
 0  0  0 
 1.409823e-03  -1.685612e-03  0 
 0  0  0 
 4.757188e-04  -5.522574e-04  0 
 8.645827e-04  -9.160465e-04  0 
 0  0  0 
 2.913124e-03  -7.627183e-03  0 
 0  0  0 
 0  0  0 
 5.926363e-04  -8.721063e-04  0 
 3.730104e-04  -4.827135e-04  0 
 1.308191e-04  -1.510124e-04  0 
 1.118415e-04  -1.531080e-04  0 
 1.094732e-03  -2.847149e-03  0 
 2.459587e-03  -7.473867e-03  0 
 3.166707e-03  -5.449498e-03  0 
 2.604794e-03  -2.987094e-03  0 
 8.436130e-04  -3.966882e-03  0 
 5.577592e-04  -4.310805e-03  0 
 -2.168458e-05  -2.127914e-03  0 
VECTORS displacement_ITER7 FLOAT
 0  0  0 
 1.389521e-03  -1.665256e-03  0 
 0  0  0 
 4.543310e-04  -5.299233e-04  0 
 8.341572e-04  -8.908221e-04  0 
 0  0  0 
 2.825335e-03  -7.662844e-03  0 
 0  0  0 
 0  0  0 
 5.739449e-04  -8.299669e-04  0 
 3.442868e-04  -4.677261e-04  0 
 1.221186e-04  -1.506378e-04  0 
 9.349646e-05  -1.765725e-04  0 
 1.071722e-03  -2.821117e-03  0 
 2.588779e-03  -7.424803e-03  0 
 3.185588e-03  -5.406972e-03  0 
 2.541728e-03  -3.097303e-03  0 
 8.777173e-04  -3.993765e-03  0 
 5.811400e-04  -4.259289e-03  0 
 -2.780948e-05  -2.098773e-03  0 
VECTORS displacement_ITER8 FLOAT
 0  0  0 
 1.391300e-03  -1.732702e-03  0 
 0  0  0 
 4.477528e-04  -5.162941e-04  0 
 8.406742e-04  -8.866928e-04  0 
 0  0  0 
 2.850564e-03  -7.622772e-03  0 
 0  0  0 
 0  0  0 
 5.382665e-04  -8.619985e-04  0 
 3.367806e-04  -4.454057e-04  0 
 1.208692e-04  -1.482972e-04  0 
 1.011648e-04  -1.836831e-04  0 
 1.066114e-03  -2.813573e-03  0 
 2.432768e-03  -7.547614e-03  0 
 3.127521e-03  -5.300134e-03  0 
 2.476480e-03  -3.114285e-03  0 
 8.322116e-04  -3.987107e-03  0 
 5.245638e-04  -4.316360e-03  0 
 -4.069610e-05  -2.115514e-03  0 
VECTORS displacement_ITER9 FLOAT
 0  0  0 
 1.390103e-03  -1.725588e-03  0 
 0  0  0 
 4.470748e-04  -5.167086e-04  0 
 8.375419e-04  -8.847152e-04  0 
 0  0  0 
 2.845149e-03  -7.618345e-03  0 
 0  0  0 
 0  0  0 
 5.370598e-04  -8.577457e-04  0 
 3.359781e-04  -4.473371e-04  0 
 1.203990e-04  -1.487604e-04  0 
 9.389027e-05  -1.869798e-04  0 
 1.065016e-03  -2.816933e-03  0 
 2.434086e-03  -7.538752e-03  0 
 3.128994e-03  -5.325771e-03  0 
 2.488960e-03  -3.104150e-03  0 
 8.327024e-04  -3.986551e-03  0 
 5.271654e-04  -4.315362e-03  0 
 -4.097167e-05  -2.115296e-03  0 
CELL_DATA 25
TENSORS element_stresses FLOAT
 1.340759e+00  -1.493522e-01  0 
 -1.493522e-01  -1.056413e+00  0 
 0  0  0 

 2.107787e-01  3.197734e-01  0 
 3.197734e-01  -7.344445e-01  0 
 0  0  0 

 9.838872e-01  1.719966e-02  0 
 1.719966e-02  -6.250461e-01  0 
 0  0  0 

 1.244309e+00  -7.035883e-01  0 
 -7.035883e-01  -3.230504e-01  0 
 0  0  0 

 6.322064e-01  -5.467909e-01  0 
 -5.467909e-01  1.896619e-01  0 
 0  0  0 

 5.678116e-01  -1.494651e-01  0 
 -1.494651e-01  -7.474472e-01  0 
 0  0  0 

 8.119572e-01  -5.906653e-01  0 
 -5.906653e-01  5.019465e-02  0 
 0  0  0 

 5.069450e-01  -3.402230e-01  0 
 -3.402230e-01  8.580160e-02  0 
 0  0  0 

 -2.146318e-03  7.927770e-04  0 
 7.927770e-04  -1.105907e-02  0 
 0  0  0 

 -1.338796e-03  3.644415e-03  0 
 3.644415e-03  -9.988264e-03  0 
 0  0  0 

 8.338620e-03  -1.467278e-02  0 
 -1.467278e-02  -6.560946e-04  0 
 0  0  0 

 4.372459e-03  -1.465316e-02  0 
 -1.465316e-02  1.311738e-03  0 
 0  0  0 

 3.860003e-03  -6.179098e-03  0 
 -6.179098e-03  -6.792158e-03  0 
 0  0  0 

 1.946358e-03  3.294236e-03  0 
 3.294236e-03  -9.827869e-03  0 
 0  0  0 

 2.448377e-03  2.290285e-03  0 
 2.290285e-03  -8.101065e-03  0 
 0  0  0 

 1.988317e-03  -1.139342e-02  0 
 -1.139342e-02  5.964951e-04  0 
 0  0  0 

 5.590485e-03  -7.880082e-03  0 
 -7.880082e-03  -1.085669e-03  0 
 0  0  0 

 3.905273e-03  -2.336882e-04  0 
 -2.336882e-04  -8.665519e-03  0 
 0  0  0 

 2.145125e-03  -1.183930e-02  0 
 -1.183930e-02  -3.423359e-03  0 
 0  0  0 

 4.683033e-03  5.319069e-06  0 
 5.319069e-06  -6.098292e-03  0 
 0  0  0 

 -1.404563e-03  -2.480621e-03  0 
 -2.480621e-03  -9.152625e-03  0 
 0  0  0 

 -6.344772e-04  -8.110811e-03  0 
 -8.110811e-03  -5.123365e-03  0 
 0  0  0 

 -2.022584e-04  -7.309575e-03  0 
 -7.309575e-03  -6.067752e-05  0 
 0  0  0 

 1.510375e-03  -2.088786e-03  0 
 -2.088786e-03  -8.841549e-03  0 
 0  0  0 

 2.127068e-03  -1.199938e-03  0 
 -1.199938e-03  -6.761358e-03  0 
 0  0  0 

TENSORS element_stresses FLOAT
 1.340759e+00  -1.493522e-01  0 
 -1.493522e-01  -1.056413e+00  0 
 0  0  0 

 2.107787e-01  3.197734e-01  0 
 3.197734e-01  -7.344445e-01  0 
 0  0  0 

 9.838872e-01  1.719966e-02  0 
 1.719966e-02  -6.250461e-01  0 
 0  0  0 

 1.244309e+00  -7.035883e-01  0 
 -7.035883e-01  -3.230504e-01  0 
 0  0  0 

 6.322064e-01  -5.467909e-01  0 
 -5.467909e-01  1.896619e-01  0 
 0  0  0 

 5.678116e-01  -1.494651e-01  0 
 -1.494651e-01  -7.474472e-01  0 
 0  0  0 

 8.119572e-01  -5.906653e-01  0 
 -5.906653e-01  5.019465e-02  0 
 0  0  0 

 5.069450e-01  -3.402230e-01  0 
 -3.402230e-01  8.580160e-02  0 
 0  0  0 

 -2.146318e-03  7.927770e-04  0 
 7.927770e-04  -1.105907e-02  0 
 0  0  0 

 -1.338796e-03  3.644415e-03  0 
 3.644415e-03  -9.988264e-03  0 
 0  0  0 

 8.338620e-03  -1.467278e-02  0 
 -1.467278e-02  -6.560946e-04  0 
 0  0  0 

 4.372459e-03  -1.465316e-02  0 
 -1.465316e-02  1.311738e-03  0 
 0  0  0 

 3.860003e-03  -6.179098e-03  0 
 -6.179098e-03  -6.792158e-03  0 
 0  0  0 

 1.946358e-03  3.294236e-03  0 
 3.294236e-03  -9.827869e-03  0 
 0  0  0 

 2.448377e-03  2.290285e-03  0 
 2.290285e-03  -8.101065e-03  0 
 0  0  0 

 1.988317e-03  -1.139342e-02  0 
 -1.139342e-02  5.964951e-04  0 
 0  0  0 

 5.590485e-03  -7.880082e-03  0 
 -7.880082e-03  -1.085669e-03  0 
 0  0  0 

 3.905273e-03  -2.336882e-04  0 
 -2.336882e-04  -8.665519e-03  0 
 0  0  0 

 2.145125e-03  -1.183930e-02  0 
 -1.183930e-02  -3.423359e-03  0 
 0  0  0 

 4.683033e-03  5.319069e-06  0 
 5.319069e-06  -6.098292e-03  0 
 0  0  0 

 -1.404563e-03  -2.480621e-03  0 
 -2.480621e-03  -9.152625e-03  0 
 0  0  0 

 -6.344772e-04  -8.110811e-03  0 
 -8.110811e-03  -5.123365e-03  0 
 0  0  0 

 -2.022584e-04  -7.309575e-03  0 
 -7.309575e-03  -6.067752e-05  0 
 0  0  0 

 1.510375e-03  -2.088786e-03  0 
 -2.088786e-03  -8.841549e-03  0 
 0  0  0 

 2.127068e-03  -1.199938e-03  0 
 -1.199938e-03  -6.761358e-03  0 
 0  0  0 

