# vtk DataFile Version 3.1
this is an vtk file created by FEMAC
ASCII
DATASET UNSTRUCTURED_GRID
POINTS 22 FLOAT
5.000000 2.000000 0.000000
6.000000 2.000000 0.000000
6.000000 3.000000 0.000000
4.666667 2.000000 0.000000
5.000000 1.666667 0.000000
5.000000 2.333333 0.000000
5.000000 2.666667 0.000000
5.333333 2.000000 0.000000
5.666667 2.000000 0.000000
6.000000 2.333333 0.000000
6.000000 2.666667 0.000000
4.770668 1.793926 0.000000
4.659969 2.515789 0.000000
4.772591 2.221251 0.000000
4.394160 2.783162 0.000000
4.744159 2.793124 0.000000
5.223080 1.795049 0.000000
5.603416 2.310190 0.000000
5.769946 2.658255 0.000000
5.391228 2.687481 0.000000
5.229401 2.325592 0.000000
5.817521 2.160881 0.000000
CELLS 24 96 
3 3 11  0
3 11  4  0
3 12  5  6
3 13  3  0
3 5 13  0
3 13  5 12
3 15 12  6
3 12 15 14
3 4 16  0
3 16  7  0
3 18 10  2
3 19 17 18
3 7  8 17
3 10 18  9
3 17  9 18
3 20  5  0
3 7 20  0
3 20 17 19
3 17 20  7
3 6  5 20
3 19  6 20
3 8 21 17
3 9 21  1
3 21  9 17
CELL_TYPES 24
5 5 5 5 5 5 5 5 5 5 5 5 5 5 5 5 5 5 5 5 5 5 5 5 
POINT_DATA 22
VECTORS displacement_ITER1 FLOAT
 1.058499e-01  -3.382014e-01  0 
 8.745952e-02  -4.816884e-01  0 
 2.894376e-01  -5.386595e-01  0 
 1.058592e-01  -3.138737e-01  0 
 8.966432e-02  -3.383371e-01  0 
 1.300534e-01  -3.380914e-01  0 
 1.543917e-01  -3.381556e-01  0 
 1.059062e-01  -3.546446e-01  0 
 9.548743e-02  -4.300805e-01  0 
 1.434254e-01  -4.857897e-01  0 
 2.039124e-01  -5.079700e-01  0 
 9.466930e-02  -3.242474e-01  0 
 1.433462e-01  -3.132259e-01  0 
 1.219552e-01  -3.215678e-01  0 
 1.629520e-01  -2.935275e-01  0 
 1.636823e-01  -3.193751e-01  0 
 9.584625e-02  -3.491596e-01  0 
 1.385729e-01  -4.119866e-01  0 
 1.924865e-01  -4.524119e-01  0 
 1.797773e-01  -3.963044e-01  0 
 1.299392e-01  -3.576644e-01  0 
 1.141922e-01  -4.508791e-01  0 
VECTORS displacement_ITER2 FLOAT
 4.507099e-02  -9.090431e-02  0 
 -2.169389e-02  -1.846032e-01  0 
 5.884223e-03  -1.187383e-01  0 
 4.506839e-02  -1.016431e-01  0 
 3.520485e-02  -9.117913e-02  0 
 3.400729e-02  -9.049232e-02  0 
 2.246941e-02  -9.043216e-02  0 
 4.503269e-02  -1.009618e-01  0 
 2.299205e-02  -1.416588e-01  0 
 3.898399e-02  -1.453867e-01  0 
 3.819362e-02  -1.258763e-01  0 
 4.211971e-02  -9.372274e-02  0 
 2.770279e-02  -1.021044e-01  0 
 3.786935e-02  -9.821503e-02  0 
 1.833951e-02  -1.112755e-01  0 
 1.807559e-02  -9.922767e-02  0 
 3.892925e-02  -9.767164e-02  0 
 3.595522e-02  -1.157243e-01  0 
 4.463016e-02  -1.329795e-01  0 
 3.931735e-02  -1.115929e-01  0 
 3.463068e-02  -9.678540e-02  0 
 2.088043e-02  -1.332671e-01  0 
VECTORS displacement_ITER3 FLOAT
 4.331904e-03  -1.831992e-02  0 
 1.615871e-02  -3.286550e-02  0 
 -1.634938e-02  -3.996510e-02  0 
 4.417611e-03  -2.053948e-02  0 
 -8.195010e-04  -1.855668e-02  0 
 1.990213e-03  -1.812163e-02  0 
 -8.312388e-05  -1.820672e-02  0 
 4.352380e-03  -2.372294e-02  0 
 5.383399e-03  -4.529724e-02  0 
 7.496544e-03  -4.599135e-02  0 
 4.965952e-03  -4.042537e-02  0 
 2.338541e-03  -1.863978e-02  0 
 8.035831e-04  -2.018594e-02  0 
 2.849624e-03  -1.970524e-02  0 
 -6.866071e-04  -2.143484e-02  0 
 -6.629952e-04  -1.972426e-02  0 
 1.100206e-03  -2.192963e-02  0 
 7.237605e-03  -4.198615e-02  0 
 7.410513e-03  -4.639616e-02  0 
 8.800166e-03  -3.783805e-02  0 
 2.714847e-03  -2.523715e-02  0 
 7.040124e-03  -4.481254e-02  0 
VECTORS displacement_ITER4 FLOAT
 6.318659e-04  -1.361884e-02  0 
 4.406987e-03  -1.993240e-02  0 
 -5.929179e-03  -2.425032e-02  0 
 5.552168e-04  -1.327721e-02  0 
 -2.058934e-03  -1.395209e-02  0 
 5.420546e-04  -1.315957e-02  0 
 -1.659163e-05  -1.300351e-02  0 
 6.489741e-04  -1.660483e-02  0 
 4.398709e-03  -1.152836e-02  0 
 5.909053e-03  -2.395997e-02  0 
 3.372980e-03  -2.448136e-02  0 
 -6.207538e-04  -1.356454e-02  0 
 2.879666e-04  -1.356162e-02  0 
 7.192402e-04  -1.341680e-02  0 
 -2.048163e-04  -1.416383e-02  0 
 -1.831351e-04  -1.347208e-02  0 
 -1.103533e-03  -1.562234e-02  0 
 1.680587e-03  -2.224823e-02  0 
 3.946649e-03  -2.806181e-02  0 
 3.039487e-03  -2.285240e-02  0 
 2.623081e-04  -1.746401e-02  0 
 4.863548e-03  -2.010159e-02  0 
VECTORS displacement_ITER5 FLOAT
 -1.582050e-03  -1.314106e-02  0 
 1.301196e-03  -1.713855e-02  0 
 -1.435102e-03  -1.637190e-02  0 
 -1.618160e-03  -1.202698e-02  0 
 -3.666203e-04  -1.348347e-02  0 
 -8.245827e-04  -1.270134e-02  0 
 -4.144615e-04  -1.251426e-02  0 
 -1.567003e-03  -1.225808e-02  0 
 -1.701886e-03  -1.360292e-02  0 
 2.307387e-03  -2.356336e-02  0 
 1.392983e-03  -2.205132e-02  0 
 -1.110909e-03  -1.377858e-02  0 
 -5.282186e-04  -1.210621e-02  0 
 -9.405732e-04  -1.235748e-02  0 
 -4.080542e-04  -1.205135e-02  0 
 -3.106451e-04  -1.227875e-02  0 
 -9.291187e-04  -1.255609e-02  0 
 2.715197e-04  -1.979670e-02  0 
 2.660510e-03  -2.404790e-02  0 
 1.806271e-03  -2.078092e-02  0 
 -1.454757e-03  -1.575398e-02  0 
 6.140892e-04  -2.020497e-02  0 
VECTORS displacement_ITER6 FLOAT
 -1.952832e-03  -1.266298e-02  0 
 -2.187184e-03  -1.319006e-02  0 
 8.486652e-04  -1.290907e-02  0 
 -1.923120e-03  -1.141062e-02  0 
 -2.216977e-03  -1.301730e-02  0 
 -9.677404e-04  -1.231763e-02  0 
 -9.805316e-05  -1.224105e-02  0 
 -1.936021e-03  -1.326507e-02  0 
 -1.362575e-03  -1.353843e-02  0 
 2.761138e-04  -1.967492e-02  0 
 -8.210327e-04  -1.911736e-02  0 
 -2.306605e-03  -1.314264e-02  0 
 -4.722898e-04  -1.132237e-02  0 
 -1.196161e-03  -1.173507e-02  0 
 1.705024e-04  -1.052487e-02  0 
 2.030836e-04  -1.154735e-02  0 
 -2.210720e-03  -1.306921e-02  0 
 -1.165138e-03  -1.814103e-02  0 
 1.834905e-05  -2.004802e-02  0 
 2.117500e-04  -1.845098e-02  0 
 -1.676908e-03  -1.563699e-02  0 
 -1.297748e-03  -1.690171e-02  0 
VECTORS displacement_ITER7 FLOAT
 -2.168460e-03  -1.188559e-02  0 
 -2.490206e-03  -1.320357e-02  0 
 6.789118e-04  -1.306177e-02  0 
 -2.126808e-03  -1.063663e-02  0 
 -2.751244e-03  -1.220945e-02  0 
 -1.172634e-03  -1.158046e-02  0 
 -2.154255e-04  -1.152745e-02  0 
 -2.169628e-03  -1.274855e-02  0 
 -2.809226e-03  -1.268655e-02  0 
 -1.080337e-03  -1.816547e-02  0 
 -1.597070e-03  -1.763962e-02  0 
 -2.747212e-03  -1.250698e-02  0 
 -6.392137e-04  -1.051664e-02  0 
 -1.420763e-03  -1.096108e-02  0 
 1.022034e-04  -9.656781e-03  0 
 1.435060e-04  -1.078077e-02  0 
 -2.600971e-03  -1.248079e-02  0 
 -1.808654e-03  -1.662080e-02  0 
 -1.030192e-03  -1.756761e-02  0 
 -4.681402e-04  -1.640025e-02  0 
 -1.855796e-03  -1.472675e-02  0 
 -2.179137e-03  -1.587500e-02  0 
VECTORS displacement_ITER8 FLOAT
 -2.457893e-03  -1.295107e-02  0 
 -2.532755e-03  -1.496014e-02  0 
 9.812592e-04  -1.472609e-02  0 
 -2.406346e-03  -1.150834e-02  0 
 -3.081812e-03  -1.326137e-02  0 
 -1.240674e-03  -1.265462e-02  0 
 -8.017638e-05  -1.257307e-02  0 
 -2.482267e-03  -1.379812e-02  0 
 -2.528425e-03  -1.440389e-02  0 
 -9.175205e-04  -1.917188e-02  0 
 -1.024139e-03  -1.857830e-02  0 
 -3.194465e-03  -1.367463e-02  0 
 -5.764806e-04  -1.136846e-02  0 
 -1.569500e-03  -1.188234e-02  0 
 2.592484e-04  -1.041331e-02  0 
 3.242656e-04  -1.167839e-02  0 
 -2.909046e-03  -1.356736e-02  0 
 -1.563757e-03  -1.776751e-02  0 
 -5.147199e-04  -1.818098e-02  0 
 -1.112012e-04  -1.733502e-02  0 
 -1.805413e-03  -1.572193e-02  0 
 -1.987221e-03  -1.687456e-02  0 
VECTORS displacement_ITER9 FLOAT
 -2.482284e-03  -1.305479e-02  0 
 -2.546970e-03  -1.489779e-02  0 
 7.676898e-04  -1.469390e-02  0 
 -2.431119e-03  -1.166842e-02  0 
 -3.046237e-03  -1.334340e-02  0 
 -1.320366e-03  -1.276017e-02  0 
 -2.310949e-04  -1.268495e-02  0 
 -2.528041e-03  -1.381972e-02  0 
 -2.555541e-03  -1.437978e-02  0 
 -8.019775e-04  -1.930924e-02  0 
 -1.053105e-03  -1.878337e-02  0 
 -3.196004e-03  -1.386776e-02  0 
 -6.990113e-04  -1.155197e-02  0 
 -1.632274e-03  -1.202596e-02  0 
 1.059455e-04  -1.062980e-02  0 
 1.575117e-04  -1.184321e-02  0 
 -2.896705e-03  -1.364006e-02  0 
 -1.661931e-03  -1.787439e-02  0 
 -5.098207e-04  -1.861167e-02  0 
 9.658391e-05  -1.698652e-02  0 
 -1.818840e-03  -1.561300e-02  0 
 -1.935489e-03  -1.688149e-02  0 
CELL_DATA 24
TENSORS element_stresses FLOAT
 2.657766e-03  -4.037575e-04  0 
 -4.037575e-04  9.370873e-03  0 
 0  0  0 

 2.034775e-03  3.429826e-03  0 
 3.429826e-03  1.476276e-03  0 
 0  0  0 

 -6.796527e-03  -1.263852e-01  0 
 -1.263852e-01  2.236211e-01  0 
 0  0  0 

 -4.499606e-02  -3.654198e-01  0 
 -3.654198e-01  3.616670e-01  0 
 0  0  0 

 -8.931540e-02  -1.372516e-01  0 
 -1.372516e-01  8.570752e-01  0 
 0  0  0 

 -7.181440e-02  -2.127564e-01  0 
 -2.127564e-01  2.938135e-01  0 
 0  0  0 

 -7.469943e-03  -1.736509e-01  0 
 -1.736509e-01  -4.693049e-02  0 
 0  0  0 

 6.663450e-02  -3.051904e-01  0 
 -3.051904e-01  2.229634e-02  0 
 0  0  0 

 -4.791342e-02  -1.048202e-01  0 
 -1.048202e-01  8.514694e-01  0 
 0  0  0 

 -3.286166e-02  -3.247455e-01  0 
 -3.247455e-01  3.480268e-01  0 
 0  0  0 

 1.229929e-03  3.282671e-03  0 
 3.282671e-03  1.263738e-02  0 
 0  0  0 

 -1.446908e-03  -2.807930e-04  0 
 -2.807930e-04  -4.968828e-04  0 
 0  0  0 

 -3.917683e-03  9.106487e-04  0 
 9.106487e-04  -1.278394e-02  0 
 0  0  0 

 -2.044754e-03  -1.197997e-03  0 
 -1.197997e-03  9.641890e-04  0 
 0  0  0 

 2.101618e-03  -9.668615e-04  0 
 -9.668615e-04  2.321637e-04  0 
 0  0  0 

 -1.967186e-03  -6.861853e-03  0 
 -6.861853e-03  2.937140e-04  0 
 0  0  0 

 -2.208078e-03  -1.234055e-04  0 
 -1.234055e-04  -6.902693e-03  0 
 0  0  0 

 3.344725e-04  -8.288289e-04  0 
 -8.288289e-04  -9.716306e-04  0 
 0  0  0 

 -1.917633e-03  -3.087488e-03  0 
 -3.087488e-03  -8.112136e-03  0 
 0  0  0 

 -2.192261e-03  -7.046589e-03  0 
 -7.046589e-03  -4.320181e-04  0 
 0  0  0 

 1.004500e-03  -4.629239e-03  0 
 -4.629239e-03  1.449926e-03  0 
 0  0  0 

 -3.029480e-03  -5.369441e-04  0 
 -5.369441e-04  -1.294010e-02  0 
 0  0  0 

 -2.973521e-03  3.413767e-03  0 
 3.413767e-03  -1.412639e-02  0 
 0  0  0 

 -1.510871e-03  1.214978e-03  0 
 1.214978e-03  -1.137720e-02  0 
 0  0  0 

TENSORS element_stresses FLOAT
 2.657766e-03  -4.037575e-04  0 
 -4.037575e-04  9.370873e-03  0 
 0  0  0 

 2.034775e-03  3.429826e-03  0 
 3.429826e-03  1.476276e-03  0 
 0  0  0 

 -6.796527e-03  -1.263852e-01  0 
 -1.263852e-01  2.236211e-01  0 
 0  0  0 

 -4.499606e-02  -3.654198e-01  0 
 -3.654198e-01  3.616670e-01  0 
 0  0  0 

 -8.931540e-02  -1.372516e-01  0 
 -1.372516e-01  8.570752e-01  0 
 0  0  0 

 -7.181440e-02  -2.127564e-01  0 
 -2.127564e-01  2.938135e-01  0 
 0  0  0 

 -7.469943e-03  -1.736509e-01  0 
 -1.736509e-01  -4.693049e-02  0 
 0  0  0 

 6.663450e-02  -3.051904e-01  0 
 -3.051904e-01  2.229634e-02  0 
 0  0  0 

 -4.791342e-02  -1.048202e-01  0 
 -1.048202e-01  8.514694e-01  0 
 0  0  0 

 -3.286166e-02  -3.247455e-01  0 
 -3.247455e-01  3.480268e-01  0 
 0  0  0 

 1.229929e-03  3.282671e-03  0 
 3.282671e-03  1.263738e-02  0 
 0  0  0 

 -1.446908e-03  -2.807930e-04  0 
 -2.807930e-04  -4.968828e-04  0 
 0  0  0 

 -3.917683e-03  9.106487e-04  0 
 9.106487e-04  -1.278394e-02  0 
 0  0  0 

 -2.044754e-03  -1.197997e-03  0 
 -1.197997e-03  9.641890e-04  0 
 0  0  0 

 2.101618e-03  -9.668615e-04  0 
 -9.668615e-04  2.321637e-04  0 
 0  0  0 

 -1.967186e-03  -6.861853e-03  0 
 -6.861853e-03  2.937140e-04  0 
 0  0  0 

 -2.208078e-03  -1.234055e-04  0 
 -1.234055e-04  -6.902693e-03  0 
 0  0  0 

 3.344725e-04  -8.288289e-04  0 
 -8.288289e-04  -9.716306e-04  0 
 0  0  0 

 -1.917633e-03  -3.087488e-03  0 
 -3.087488e-03  -8.112136e-03  0 
 0  0  0 

 -2.192261e-03  -7.046589e-03  0 
 -7.046589e-03  -4.320181e-04  0 
 0  0  0 

 1.004500e-03  -4.629239e-03  0 
 -4.629239e-03  1.449926e-03  0 
 0  0  0 

 -3.029480e-03  -5.369441e-04  0 
 -5.369441e-04  -1.294010e-02  0 
 0  0  0 

 -2.973521e-03  3.413767e-03  0 
 3.413767e-03  -1.412639e-02  0 
 0  0  0 

 -1.510871e-03  1.214978e-03  0 
 1.214978e-03  -1.137720e-02  0 
 0  0  0 

