# vtk DataFile Version 3.1
this is an vtk file created by FEMAC
ASCII
DATASET UNSTRUCTURED_GRID
POINTS 30 FLOAT
5.000000 6.000000 0.000000
6.000000 5.000000 0.000000
6.000000 6.000000 0.000000
5.000000 5.250000 0.000000
5.000000 5.500000 0.000000
5.000000 5.750000 0.000000
5.500000 5.000000 0.000000
5.750000 5.000000 0.000000
5.250000 6.000000 0.000000
5.500000 6.000000 0.000000
5.750000 6.000000 0.000000
6.000000 5.250000 0.000000
6.000000 5.500000 0.000000
6.000000 5.750000 0.000000
5.447447 5.528256 0.000000
5.813081 5.669072 0.000000
5.813653 5.331392 0.000000
5.255000 5.805000 0.000000
5.255000 5.195000 0.000000
5.775000 5.500000 0.000000
5.660928 5.805846 0.000000
5.661595 5.194695 0.000000
5.169567 5.378219 0.000000
5.242859 5.565925 0.000000
5.413341 5.323754 0.000000
5.453287 5.717271 0.000000
5.616917 5.404183 0.000000
5.613486 5.598598 0.000000
5.844802 5.844984 0.000000
5.845050 5.155217 0.000000
CELLS 43 172 
3 15 12 13
3 12 16 11
3 17  9  8
3 15 19 12
3 19 16 12
3 26 16 19
3 15 27 19
3 3 22  4
3 23  5  4
3 7 21  6
3 20 10  9
3 20 27 15
3 26 21 16
3 23 25 17
3 24 22 18
3 26 27 14
3 26 19 27
3 23 17  5
3 18 22  3
3 6 24 18
3 6 21 24
3 26 14 24
3 24 21 26
3 25  9 17
3 20  9 25
3 14 27 25
3 20 25 27
3 17  0  5
3 8  0 17
3 10 28  2
3 13 28 15
3 28 13  2
3 29  7  1
3 29 11 16
3 11 29  1
3 20 28 10
3 20 15 28
3 29 21  7
3 16 21 29
3 4 22 23
3 24 14 23
3 14 25 23
3 23 22 24
CELL_TYPES 43
5 5 5 5 5 5 5 5 5 5 5 5 5 5 5 5 5 5 5 5 5 5 5 5 5 5 5 5 5 5 5 5 5 5 5 5 5 5 5 5 5 5 5 
POINT_DATA 30
VECTORS displacement_ITER1 FLOAT
 2.365062e-01  -3.368999e-01  0 
 1.207027e-01  -4.527169e-01  0 
 2.365435e-01  -4.527965e-01  0 
 1.496303e-01  -3.368893e-01  0 
 1.785869e-01  -3.368937e-01  0 
 2.075471e-01  -3.368955e-01  0 
 1.206814e-01  -3.948154e-01  0 
 1.206891e-01  -4.237711e-01  0 
 2.365179e-01  -3.658690e-01  0 
 2.365281e-01  -3.948364e-01  0 
 2.365373e-01  -4.238120e-01  0 
 1.496442e-01  -4.527478e-01  0 
 1.786005e-01  -4.527693e-01  0 
 2.075669e-01  -4.527862e-01  0 
 1.818651e-01  -3.887360e-01  0 
 1.981850e-01  -4.311139e-01  0 
 1.590648e-01  -4.311637e-01  0 
 2.139244e-01  -3.664401e-01  0 
 1.432617e-01  -3.664347e-01  0 
 1.785959e-01  -4.266928e-01  0 
 2.140324e-01  -4.134817e-01  0 
 1.432303e-01  -4.135408e-01  0 
 1.644833e-01  -3.565370e-01  0 
 1.862268e-01  -3.650302e-01  0 
 1.581753e-01  -3.847815e-01  0 
 2.037640e-01  -3.894153e-01  0 
 1.674935e-01  -4.083706e-01  0 
 1.900162e-01  -4.079781e-01  0 
 2.185722e-01  -4.347974e-01  0 
 1.386631e-01  -4.347903e-01  0 
VECTORS displacement_ITER2 FLOAT
 1.497407e-01  -1.511291e-01  0 
 6.812976e-02  -2.327632e-01  0 
 1.497904e-01  -2.328053e-01  0 
 8.852267e-02  -1.510795e-01  0 
 1.089260e-01  -1.510977e-01  0 
 1.293356e-01  -1.511145e-01  0 
 6.811199e-02  -1.919191e-01  0 
 6.811777e-02  -2.123443e-01  0 
 1.497564e-01  -1.715381e-01  0 
 1.497717e-01  -1.919500e-01  0 
 1.497836e-01  -2.123729e-01  0 
 8.853426e-02  -2.327776e-01  0 
 1.089485e-01  -2.327865e-01  0 
 1.293657e-01  -2.327966e-01  0 
 1.112487e-01  -1.876391e-01  0 
 1.227531e-01  -2.175174e-01  0 
 9.517791e-02  -2.175554e-01  0 
 1.338371e-01  -1.719336e-01  0 
 8.403763e-02  -1.719010e-01  0 
 1.089463e-01  -2.144006e-01  0 
 1.339211e-01  -2.050881e-01  0 
 8.401445e-02  -2.051285e-01  0 
 9.899295e-02  -1.649337e-01  0 
 1.143189e-01  -1.709306e-01  0 
 9.455287e-02  -1.848444e-01  0 
 1.266817e-01  -1.881229e-01  0 
 1.011212e-01  -2.014809e-01  0 
 1.169951e-01  -2.012061e-01  0 
 1.371222e-01  -2.201152e-01  0 
 8.079374e-02  -2.201165e-01  0 
VECTORS displacement_ITER3 FLOAT
 9.044355e-02  -6.426924e-02  0 
 3.296500e-02  -1.217650e-01  0 
 9.050623e-02  -1.217755e-01  0 
 4.733182e-02  -6.417417e-02  0 
 6.170916e-02  -6.421089e-02  0 
 7.608289e-02  -6.424248e-02  0 
 3.295730e-02  -9.295939e-02  0 
 3.296010e-02  -1.073634e-01  0 
 9.046369e-02  -7.862871e-02  0 
 9.048452e-02  -9.299690e-02  0 
 9.049883e-02  -1.073813e-01  0 
 4.735165e-02  -1.217669e-01  0 
 6.173774e-02  -1.217647e-01  0 
 7.611950e-02  -1.217683e-01  0 
 6.335796e-02  -8.994900e-02  0 
 7.146248e-02  -1.110026e-01  0 
 5.203621e-02  -1.110333e-01  0 
 7.925975e-02  -7.889825e-02  0 
 4.418758e-02  -7.883840e-02  0 
 6.173765e-02  -1.088070e-01  0 
 7.932635e-02  -1.022465e-01  0 
 4.416848e-02  -1.022737e-01  0 
 5.471801e-02  -7.394663e-02  0 
 6.551624e-02  -7.818227e-02  0 
 5.159883e-02  -8.797116e-02  0 
 7.422585e-02  -9.029553e-02  0 
 5.622610e-02  -9.970073e-02  0 
 6.740657e-02  -9.950938e-02  0 
 8.158231e-02  -1.128337e-01  0 
 4.189659e-02  -1.128418e-01  0 
VECTORS displacement_ITER4 FLOAT
 6.045840e-02  -2.784591e-02  0 
 1.271593e-02  -7.560979e-02  0 
 6.053598e-02  -7.560820e-02  0 
 2.466306e-02  -2.772330e-02  0 
 3.660706e-02  -2.777192e-02  0 
 4.854162e-02  -2.781177e-02  0 
 1.270623e-02  -5.166304e-02  0 
 1.271302e-02  -6.363670e-02  0 
 6.048488e-02  -3.976408e-02  0 
 6.051151e-02  -5.169378e-02  0 
 6.052811e-02  -6.364586e-02  0 
 2.467378e-02  -7.560818e-02  0 
 3.662932e-02  -7.560246e-02  0 
 4.858092e-02  -7.560235e-02  0 
 3.797968e-02  -4.915700e-02  0 
 4.471174e-02  -6.665454e-02  0 
 2.856791e-02  -6.668553e-02  0 
 5.118481e-02  -3.997951e-02  0 
 2.204803e-02  -3.991788e-02  0 
 3.663114e-02  -6.483156e-02  0 
 5.124535e-02  -5.937663e-02  0 
 2.202918e-02  -5.940678e-02  0 
 3.080252e-02  -3.585396e-02  0 
 3.977344e-02  -3.937830e-02  0 
 2.820955e-02  -4.751270e-02  0 
 4.700745e-02  -4.944517e-02  0 
 3.205281e-02  -5.726333e-02  0 
 4.134252e-02  -5.710234e-02  0 
 5.312029e-02  -6.817617e-02  0 
 2.014067e-02  -6.819022e-02  0 
VECTORS displacement_ITER5 FLOAT
 4.816829e-02  -1.307236e-02  0 
 4.124113e-03  -5.713408e-02  0 
 4.823999e-02  -5.713944e-02  0 
 1.514294e-02  -1.295695e-02  0 
 2.616004e-02  -1.300538e-02  0 
 3.717183e-02  -1.304204e-02  0 
 4.113896e-03  -3.504410e-02  0 
 4.120057e-03  -4.608986e-02  0 
 4.819206e-02  -2.406879e-02  0 
 4.821637e-02  -3.507565e-02  0 
 4.823226e-02  -4.610241e-02  0 
 1.515466e-02  -5.713576e-02  0 
 2.618431e-02  -5.713204e-02  0 
 3.721027e-02  -5.713318e-02  0 
 2.742869e-02  -3.273331e-02  0 
 3.364037e-02  -4.887723e-02  0 
 1.874676e-02  -4.890414e-02  0 
 3.961090e-02  -2.426796e-02  0 
 1.273206e-02  -2.420801e-02  0 
 2.618554e-02  -4.719443e-02  0 
 3.966777e-02  -4.216313e-02  0 
 1.271424e-02  -4.218820e-02  0 
 2.080712e-02  -2.045969e-02  0 
 2.908258e-02  -2.371247e-02  0 
 1.841588e-02  -3.121513e-02  0 
 3.575737e-02  -3.300029e-02  0 
 2.196154e-02  -4.021135e-02  0 
 3.053160e-02  -4.006395e-02  0 
 4.139794e-02  -5.028180e-02  0 
 1.097226e-02  -5.029146e-02  0 
VECTORS displacement_ITER6 FLOAT
 4.451774e-02  -7.629077e-03  0 
 3.176986e-03  -4.898839e-02  0 
 4.459063e-02  -4.899202e-02  0 
 1.352655e-02  -7.517662e-03  0 
 2.386180e-02  -7.561650e-03  0 
 3.419776e-02  -7.598471e-03  0 
 3.164642e-03  -2.824777e-02  0 
 3.171973e-03  -3.861823e-02  0 
 4.454195e-02  -1.794911e-02  0 
 4.456671e-02  -2.827980e-02  0 
 4.458283e-02  -3.863075e-02  0 
 1.353181e-02  -4.898951e-02  0 
 2.388611e-02  -4.898532e-02  0 
 3.423664e-02  -4.898590e-02  0 
 2.505458e-02  -2.607907e-02  0 
 3.088556e-02  -4.123509e-02  0 
 1.690414e-02  -4.126127e-02  0 
 3.648829e-02  -1.813436e-02  0 
 1.125840e-02  -1.807351e-02  0 
 2.388763e-02  -3.965543e-02  0 
 3.654322e-02  -3.493211e-02  0 
 1.124070e-02  -3.495621e-02  0 
 1.883895e-02  -1.455582e-02  0 
 2.660657e-02  -1.761121e-02  0 
 1.659462e-02  -2.465284e-02  0 
 3.287223e-02  -2.633043e-02  0 
 1.992271e-02  -3.309939e-02  0 
 2.796733e-02  -3.296113e-02  0 
 3.816761e-02  -4.255387e-02  0 
 9.605631e-03  -4.256398e-02  0 
VECTORS displacement_ITER7 FLOAT
 4.348507e-02  -6.211081e-03  0 
 2.778884e-03  -4.693700e-02  0 
 4.355878e-02  -4.693778e-02  0 
 1.297249e-02  -6.099639e-03  0 
 2.314768e-02  -6.144492e-03  0 
 3.332533e-02  -6.181259e-03  0 
 2.768257e-03  -2.651023e-02  0 
 2.774722e-03  -3.672454e-02  0 
 4.350978e-02  -1.637225e-02  0 
 4.353480e-02  -2.654380e-02  0 
 4.355098e-02  -3.673566e-02  0 
 1.297660e-02  -4.693686e-02  0 
 2.317260e-02  -4.693141e-02  0 
 3.336397e-02  -4.693168e-02  0 
 2.432307e-02  -2.437629e-02  0 
 3.006448e-02  -3.929985e-02  0 
 1.629787e-02  -3.932593e-02  0 
 3.558038e-02  -1.655408e-02  0 
 1.073859e-02  -1.649249e-02  0 
 2.317416e-02  -3.774445e-02  0 
 3.563495e-02  -3.309368e-02  0 
 1.072123e-02  -3.311718e-02  0 
 1.820285e-02  -1.302959e-02  0 
 2.585094e-02  -1.603889e-02  0 
 1.599324e-02  -2.297140e-02  0 
 3.202023e-02  -2.462405e-02  0 
 1.927022e-02  -3.128878e-02  0 
 2.719106e-02  -3.115277e-02  0 
 3.723446e-02  -4.059843e-02  0 
 9.110442e-03  -4.060950e-02  0 
VECTORS displacement_ITER8 FLOAT
 4.318824e-02  -6.209714e-03  0 
 2.692901e-03  -4.672429e-02  0 
 4.326181e-02  -4.672460e-02  0 
 1.283628e-02  -6.100746e-03  0 
 2.295596e-02  -6.142660e-03  0 
 3.308121e-02  -6.179248e-03  0 
 2.683184e-03  -2.640313e-02  0 
 2.689821e-03  -3.656386e-02  0 
 4.321287e-02  -1.631772e-02  0 
 4.323788e-02  -2.643634e-02  0 
 4.325402e-02  -3.657536e-02  0 
 1.283853e-02  -4.672340e-02  0 
 2.298143e-02  -4.671813e-02  0 
 3.311988e-02  -4.671848e-02  0 
 2.412577e-02  -2.427996e-02  0 
 2.983749e-02  -3.912620e-02  0 
 1.614238e-02  -3.915201e-02  0 
 3.532479e-02  -1.649848e-02  0 
 1.061189e-02  -1.643673e-02  0 
 2.298296e-02  -3.757881e-02  0 
 3.537904e-02  -3.295224e-02  0 
 1.059463e-02  -3.297547e-02  0 
 1.803720e-02  -1.299174e-02  0 
 2.564556e-02  -1.598579e-02  0 
 1.583923e-02  -2.288223e-02  0 
 3.178307e-02  -2.452658e-02  0 
 1.909924e-02  -3.115657e-02  0 
 2.697897e-02  -3.102137e-02  0 
 3.697027e-02  -4.041808e-02  0 
 8.992384e-03  -4.042861e-02  0 
VECTORS displacement_ITER9 FLOAT
 4.317217e-02  -6.101107e-03  0 
 2.819374e-03  -4.647325e-02  0 
 4.324599e-02  -4.647242e-02  0 
 1.292952e-02  -5.992935e-03  0 
 2.301186e-02  -6.034054e-03  0 
 3.310107e-02  -6.070754e-03  0 
 2.809800e-03  -2.622175e-02  0 
 2.816526e-03  -3.634757e-02  0 
 4.319689e-02  -1.617320e-02  0 
 4.322199e-02  -2.625591e-02  0 
 4.323818e-02  -3.635904e-02  0 
 1.293001e-02  -4.647174e-02  0 
 2.303729e-02  -4.646612e-02  0 
 3.313991e-02  -4.646634e-02  0 
 2.417761e-02  -2.410694e-02  0 
 2.986915e-02  -3.890085e-02  0 
 1.622237e-02  -3.892669e-02  0 
 3.533680e-02  -1.635316e-02  0 
 1.071147e-02  -1.629183e-02  0 
 2.303884e-02  -3.735895e-02  0 
 3.539108e-02  -3.274867e-02  0 
 1.069408e-02  -3.277174e-02  0 
 1.811082e-02  -1.285849e-02  0 
 2.569204e-02  -1.584204e-02  0 
 1.592033e-02  -2.271407e-02  0 
 3.180780e-02  -2.435273e-02  0 
 1.916884e-02  -3.095928e-02  0 
 2.702073e-02  -3.082458e-02  0 
 3.697669e-02  -4.018816e-02  0 
 9.097339e-03  -4.019894e-02  0 
VECTORS displacement_ITER10 FLOAT
 4.314458e-02  -5.960480e-03  0 
 2.790285e-03  -4.633391e-02  0 
 4.321778e-02  -4.633344e-02  0 
 1.289430e-02  -5.847813e-03  0 
 2.298311e-02  -5.893477e-03  0 
 3.307256e-02  -5.929869e-03  0 
 2.780816e-03  -2.608261e-02  0 
 2.787461e-03  -3.620824e-02  0 
 4.316903e-02  -1.603319e-02  0 
 4.319390e-02  -2.611644e-02  0 
 4.321000e-02  -3.621984e-02  0 
 1.290104e-02  -4.633259e-02  0 
 2.300865e-02  -4.632705e-02  0 
 3.311151e-02  -4.632730e-02  0 
 2.414882e-02  -2.396725e-02  0 
 2.984066e-02  -3.876162e-02  0 
 1.619347e-02  -3.878739e-02  0 
 3.530847e-02  -1.621337e-02  0 
 1.068296e-02  -1.615119e-02  0 
 2.301019e-02  -3.721959e-02  0 
 3.536264e-02  -3.260942e-02  0 
 1.066499e-02  -3.263230e-02  0 
 1.808113e-02  -1.271934e-02  0 
 2.566298e-02  -1.570250e-02  0 
 1.589152e-02  -2.257397e-02  0 
 3.177919e-02  -2.421331e-02  0 
 1.914010e-02  -3.081965e-02  0 
 2.699211e-02  -3.068514e-02  0 
 3.694833e-02  -4.004903e-02  0 
 9.068262e-03  -4.005962e-02  0 
VECTORS displacement_ITER11 FLOAT
 4.311896e-02  -5.908943e-03  0 
 2.763761e-03  -4.628360e-02  0 
 4.319171e-02  -4.628399e-02  0 
 1.285749e-02  -5.789584e-03  0 
 2.295589e-02  -5.841216e-03  0 
 3.304650e-02  -5.878558e-03  0 
 2.754780e-03  -2.603517e-02  0 
 2.760968e-03  -3.615885e-02  0 
 4.314330e-02  -1.598253e-02  0 
 4.316795e-02  -2.606638e-02  0 
 4.318393e-02  -3.617013e-02  0 
 1.287403e-02  -4.628292e-02  0 
 2.298194e-02  -4.627762e-02  0 
 3.308520e-02  -4.627778e-02  0 
 2.412217e-02  -2.391694e-02  0 
 2.981426e-02  -3.871184e-02  0 
 1.616645e-02  -3.873779e-02  0 
 3.528225e-02  -1.616293e-02  0 
 1.065654e-02  -1.609786e-02  0 
 2.298360e-02  -3.716973e-02  0 
 3.533627e-02  -3.255963e-02  0 
 1.063773e-02  -3.258279e-02  0 
 1.805250e-02  -1.266927e-02  0 
 2.563595e-02  -1.565264e-02  0 
 1.586491e-02  -2.252296e-02  0 
 3.175259e-02  -2.416334e-02  0 
 1.911350e-02  -3.076951e-02  0 
 2.696559e-02  -3.063510e-02  0 
 3.692207e-02  -3.999940e-02  0 
 9.041187e-03  -4.000990e-02  0 
VECTORS displacement_ITER12 FLOAT
 4.312149e-02  -5.904362e-03  0 
 2.772203e-03  -4.627314e-02  0 
 4.319359e-02  -4.627545e-02  0 
 1.285557e-02  -5.775929e-03  0 
 2.296116e-02  -5.836350e-03  0 
 3.305020e-02  -5.874048e-03  0 
 2.763610e-03  -2.602706e-02  0 
 2.769423e-03  -3.615005e-02  0 
 4.314568e-02  -1.597700e-02  0 
 4.317012e-02  -2.605980e-02  0 
 4.318588e-02  -3.616259e-02  0 
 1.288064e-02  -4.627257e-02  0 
 2.298644e-02  -4.626806e-02  0 
 3.308810e-02  -4.626910e-02  0 
 2.412609e-02  -2.391165e-02  0 
 2.981741e-02  -3.870415e-02  0 
 1.617218e-02  -3.872900e-02  0 
 3.528548e-02  -1.615753e-02  0 
 1.066132e-02  -1.609589e-02  0 
 2.298766e-02  -3.716207e-02  0 
 3.533902e-02  -3.255261e-02  0 
 1.064466e-02  -3.257458e-02  0 
 1.805743e-02  -1.266581e-02  0 
 2.564033e-02  -1.564773e-02  0 
 1.586912e-02  -2.251867e-02  0 
 3.175593e-02  -2.415734e-02  0 
 1.911783e-02  -3.076310e-02  0 
 2.696909e-02  -3.062862e-02  0 
 3.692458e-02  -3.999152e-02  0 
 9.048470e-03  -4.000055e-02  0 
VECTORS displacement_ITER13 FLOAT
 4.312159e-02  -5.905185e-03  0 
 2.772180e-03  -4.627410e-02  0 
 4.319367e-02  -4.627653e-02  0 
 1.285550e-02  -5.776703e-03  0 
 2.296113e-02  -5.837152e-03  0 
 3.305024e-02  -5.874873e-03  0 
 2.763646e-03  -2.602813e-02  0 
 2.769412e-03  -3.615105e-02  0 
 4.314577e-02  -1.597788e-02  0 
 4.317021e-02  -2.606074e-02  0 
 4.318597e-02  -3.616360e-02  0 
 1.288059e-02  -4.627356e-02  0 
 2.298640e-02  -4.626910e-02  0 
 3.308811e-02  -4.627017e-02  0 
 2.412606e-02  -2.391262e-02  0 
 2.981740e-02  -3.870518e-02  0 
 1.617212e-02  -3.873001e-02  0 
 3.528553e-02  -1.615841e-02  0 
 1.066114e-02  -1.609680e-02  0 
 2.298761e-02  -3.716309e-02  0 
 3.533906e-02  -3.255360e-02  0 
 1.064459e-02  -3.257557e-02  0 
 1.805737e-02  -1.266666e-02  0 
 2.564033e-02  -1.564861e-02  0 
 1.586902e-02  -2.251967e-02  0 
 3.175595e-02  -2.415828e-02  0 
 1.911775e-02  -3.076411e-02  0 
 2.696906e-02  -3.062962e-02  0 
 3.692462e-02  -3.999256e-02  0 
 9.048421e-03  -4.000154e-02  0 
VECTORS displacement_ITER14 FLOAT
 4.312157e-02  -5.905068e-03  0 
 2.772169e-03  -4.627397e-02  0 
 4.319365e-02  -4.627640e-02  0 
 1.285549e-02  -5.776587e-03  0 
 2.296111e-02  -5.837035e-03  0 
 3.305022e-02  -5.874755e-03  0 
 2.763635e-03  -2.602801e-02  0 
 2.769402e-03  -3.615092e-02  0 
 4.314575e-02  -1.597776e-02  0 
 4.317019e-02  -2.606062e-02  0 
 4.318595e-02  -3.616347e-02  0 
 1.288058e-02  -4.627343e-02  0 
 2.298638e-02  -4.626898e-02  0 
 3.308810e-02  -4.627005e-02  0 
 2.412604e-02  -2.391249e-02  0 
 2.981738e-02  -3.870506e-02  0 
 1.617211e-02  -3.872988e-02  0 
 3.528551e-02  -1.615829e-02  0 
 1.066113e-02  -1.609668e-02  0 
 2.298760e-02  -3.716297e-02  0 
 3.533904e-02  -3.255348e-02  0 
 1.064458e-02  -3.257545e-02  0 
 1.805736e-02  -1.266654e-02  0 
 2.564032e-02  -1.564849e-02  0 
 1.586900e-02  -2.251955e-02  0 
 3.175593e-02  -2.415816e-02  0 
 1.911774e-02  -3.076398e-02  0 
 2.696905e-02  -3.062949e-02  0 
 3.692460e-02  -3.999243e-02  0 
 9.048410e-03  -4.000141e-02  0 
CELL_DATA 43
TENSORS element_stresses FLOAT
 2.506281e-03  -4.869703e-02  0 
 -4.869703e-02  -3.526460e-03  0 
 0  0  0 

 -2.492798e-03  -3.857280e-02  0 
 -3.857280e-02  1.706935e-02  0 
 0  0  0 

 7.168063e-02  -1.539253e-02  0 
 -1.539253e-02  -8.682830e-02  0 
 0  0  0 

 -7.714040e-03  -5.708866e-02  0 
 -5.708866e-02  -7.686843e-03  0 
 0  0  0 

 -8.725199e-04  -3.875161e-02  0 
 -3.875161e-02  1.511822e-02  0 
 0  0  0 

 -1.601598e-02  -5.229539e-02  0 
 -5.229539e-02  7.210041e-03  0 
 0  0  0 

 6.051474e-03  -4.832500e-02  0 
 -4.832500e-02  -6.808212e-03  0 
 0  0  0 

 4.299140e-02  -2.106577e-02  0 
 -2.106577e-02  -2.288939e-01  0 
 0  0  0 

 3.488847e-02  -1.830660e-03  0 
 -1.830660e-03  -1.404161e-01  0 
 0  0  0 

 1.825310e-02  -2.488718e-02  0 
 -2.488718e-02  -1.604937e-02  0 
 0  0  0 

 5.152130e-02  -1.883136e-02  0 
 -1.883136e-02  -3.844207e-02  0 
 0  0  0 

 5.059470e-03  -5.208886e-02  0 
 -5.208886e-02  -2.210817e-02  0 
 0  0  0 

 -4.652235e-03  -3.099096e-02  0 
 -3.099096e-02  1.119405e-02  0 
 0  0  0 

 2.591322e-02  -3.055741e-02  0 
 -3.055741e-02  -7.396204e-02  0 
 0  0  0 

 5.755005e-03  -4.589990e-02  0 
 -4.589990e-02  -1.381182e-01  0 
 0  0  0 

 7.930528e-03  -4.665709e-02  0 
 -4.665709e-02  -1.954016e-02  0 
 0  0  0 

 -4.929868e-03  -6.216663e-02  0 
 -6.216663e-02  -2.375044e-02  0 
 0  0  0 

 4.322848e-02  2.411651e-02  0 
 2.411651e-02  -7.242036e-02  0 
 0  0  0 

 6.919288e-02  -6.616176e-02  0 
 -6.616176e-02  -1.456538e-01  0 
 0  0  0 

 -2.851804e-02  -5.832238e-02  0 
 -5.832238e-02  -2.569936e-02  0 
 0  0  0 

 -3.097122e-03  -2.355060e-02  0 
 -2.355060e-02  -7.401546e-03  0 
 0  0  0 

 -1.251884e-02  -7.595182e-02  0 
 -7.595182e-02  -6.496453e-02  0 
 0  0  0 

 -1.871030e-02  -4.526199e-02  0 
 -4.526199e-02  3.555107e-03  0 
 0  0  0 

 4.362438e-02  -6.707009e-03  0 
 -6.707009e-03  -4.563492e-02  0 
 0  0  0 

 2.364533e-02  -3.385830e-02  0 
 -3.385830e-02  -4.524826e-02  0 
 0  0  0 

 7.076688e-03  -5.151275e-02  0 
 -5.151275e-02  -4.843138e-02  0 
 0  0  0 

 2.422378e-02  -3.029559e-02  0 
 -3.029559e-02  -2.387630e-02  0 
 0  0  0 

 4.447832e-02  -1.235802e-02  0 
 -1.235802e-02  -1.079056e-01  0 
 0  0  0 

 7.095327e-02  1.587558e-02  0 
 1.587558e-02  -8.600360e-02  0 
 0  0  0 

 2.123267e-02  -3.180981e-02  0 
 -3.180981e-02  -3.192221e-02  0 
 0  0  0 

 -6.122077e-04  -4.720126e-02  0 
 -4.720126e-02  -2.219622e-02  0 
 0  0  0 

 1.245237e-02  -3.257699e-02  0 
 -3.257699e-02  -2.167575e-02  0 
 0  0  0 

 8.508196e-03  -3.534954e-02  0 
 -3.534954e-02  -8.538291e-03  0 
 0  0  0 

 -1.555118e-03  -3.429508e-02  0 
 -3.429508e-02  2.925669e-03  0 
 0  0  0 

 -9.926128e-04  -3.482488e-02  0 
 -3.482488e-02  1.873258e-03  0 
 0  0  0 

 1.292667e-02  -3.353192e-02  0 
 -3.353192e-02  -3.277201e-02  0 
 0  0  0 

 1.889098e-02  -4.146083e-02  0 
 -4.146083e-02  -1.828696e-02  0 
 0  0  0 

 -1.359145e-03  -2.428331e-02  0 
 -2.428331e-02  -1.763075e-02  0 
 0  0  0 

 2.011717e-03  -3.233478e-02  0 
 -3.233478e-02  4.350167e-03  0 
 0  0  0 

 3.961580e-02  2.672488e-03  0 
 2.672488e-03  -1.129677e-01  0 
 0  0  0 

 1.082603e-02  -2.745993e-02  0 
 -2.745993e-02  -6.915904e-02  0 
 0  0  0 

 1.665125e-02  -2.857349e-02  0 
 -2.857349e-02  -4.648890e-02  0 
 0  0  0 

 1.785599e-02  -4.583640e-02  0 
 -4.583640e-02  -9.052844e-02  0 
 0  0  0 

TENSORS element_stresses FLOAT
 2.506281e-03  -4.869703e-02  0 
 -4.869703e-02  -3.526460e-03  0 
 0  0  0 

 -2.492798e-03  -3.857280e-02  0 
 -3.857280e-02  1.706935e-02  0 
 0  0  0 

 7.168063e-02  -1.539253e-02  0 
 -1.539253e-02  -8.682830e-02  0 
 0  0  0 

 -7.714040e-03  -5.708866e-02  0 
 -5.708866e-02  -7.686843e-03  0 
 0  0  0 

 -8.725199e-04  -3.875161e-02  0 
 -3.875161e-02  1.511822e-02  0 
 0  0  0 

 -1.601598e-02  -5.229539e-02  0 
 -5.229539e-02  7.210041e-03  0 
 0  0  0 

 6.051474e-03  -4.832500e-02  0 
 -4.832500e-02  -6.808212e-03  0 
 0  0  0 

 4.299140e-02  -2.106577e-02  0 
 -2.106577e-02  -2.288939e-01  0 
 0  0  0 

 3.488847e-02  -1.830660e-03  0 
 -1.830660e-03  -1.404161e-01  0 
 0  0  0 

 1.825310e-02  -2.488718e-02  0 
 -2.488718e-02  -1.604937e-02  0 
 0  0  0 

 5.152130e-02  -1.883136e-02  0 
 -1.883136e-02  -3.844207e-02  0 
 0  0  0 

 5.059470e-03  -5.208886e-02  0 
 -5.208886e-02  -2.210817e-02  0 
 0  0  0 

 -4.652235e-03  -3.099096e-02  0 
 -3.099096e-02  1.119405e-02  0 
 0  0  0 

 2.591322e-02  -3.055741e-02  0 
 -3.055741e-02  -7.396204e-02  0 
 0  0  0 

 5.755005e-03  -4.589990e-02  0 
 -4.589990e-02  -1.381182e-01  0 
 0  0  0 

 7.930528e-03  -4.665709e-02  0 
 -4.665709e-02  -1.954016e-02  0 
 0  0  0 

 -4.929868e-03  -6.216663e-02  0 
 -6.216663e-02  -2.375044e-02  0 
 0  0  0 

 4.322848e-02  2.411651e-02  0 
 2.411651e-02  -7.242036e-02  0 
 0  0  0 

 6.919288e-02  -6.616176e-02  0 
 -6.616176e-02  -1.456538e-01  0 
 0  0  0 

 -2.851804e-02  -5.832238e-02  0 
 -5.832238e-02  -2.569936e-02  0 
 0  0  0 

 -3.097122e-03  -2.355060e-02  0 
 -2.355060e-02  -7.401546e-03  0 
 0  0  0 

 -1.251884e-02  -7.595182e-02  0 
 -7.595182e-02  -6.496453e-02  0 
 0  0  0 

 -1.871030e-02  -4.526199e-02  0 
 -4.526199e-02  3.555107e-03  0 
 0  0  0 

 4.362438e-02  -6.707009e-03  0 
 -6.707009e-03  -4.563492e-02  0 
 0  0  0 

 2.364533e-02  -3.385830e-02  0 
 -3.385830e-02  -4.524826e-02  0 
 0  0  0 

 7.076688e-03  -5.151275e-02  0 
 -5.151275e-02  -4.843138e-02  0 
 0  0  0 

 2.422378e-02  -3.029559e-02  0 
 -3.029559e-02  -2.387630e-02  0 
 0  0  0 

 4.447832e-02  -1.235802e-02  0 
 -1.235802e-02  -1.079056e-01  0 
 0  0  0 

 7.095327e-02  1.587558e-02  0 
 1.587558e-02  -8.600360e-02  0 
 0  0  0 

 2.123267e-02  -3.180981e-02  0 
 -3.180981e-02  -3.192221e-02  0 
 0  0  0 

 -6.122077e-04  -4.720126e-02  0 
 -4.720126e-02  -2.219622e-02  0 
 0  0  0 

 1.245237e-02  -3.257699e-02  0 
 -3.257699e-02  -2.167575e-02  0 
 0  0  0 

 8.508196e-03  -3.534954e-02  0 
 -3.534954e-02  -8.538291e-03  0 
 0  0  0 

 -1.555118e-03  -3.429508e-02  0 
 -3.429508e-02  2.925669e-03  0 
 0  0  0 

 -9.926128e-04  -3.482488e-02  0 
 -3.482488e-02  1.873258e-03  0 
 0  0  0 

 1.292667e-02  -3.353192e-02  0 
 -3.353192e-02  -3.277201e-02  0 
 0  0  0 

 1.889098e-02  -4.146083e-02  0 
 -4.146083e-02  -1.828696e-02  0 
 0  0  0 

 -1.359145e-03  -2.428331e-02  0 
 -2.428331e-02  -1.763075e-02  0 
 0  0  0 

 2.011717e-03  -3.233478e-02  0 
 -3.233478e-02  4.350167e-03  0 
 0  0  0 

 3.961580e-02  2.672488e-03  0 
 2.672488e-03  -1.129677e-01  0 
 0  0  0 

 1.082603e-02  -2.745993e-02  0 
 -2.745993e-02  -6.915904e-02  0 
 0  0  0 

 1.665125e-02  -2.857349e-02  0 
 -2.857349e-02  -4.648890e-02  0 
 0  0  0 

 1.785599e-02  -4.583640e-02  0 
 -4.583640e-02  -9.052844e-02  0 
 0  0  0 

