# vtk DataFile Version 3.1
this is an vtk file created by FEMAC
ASCII
DATASET UNSTRUCTURED_GRID
POINTS 30 FLOAT
4.000000 4.000000 0.000000
3.500000 4.000000 0.000000
3.750000 4.000000 0.000000
4.000000 3.500000 0.000000
4.000000 3.750000 0.000000
4.000000 4.250000 0.000000
4.000000 4.500000 0.000000
4.250000 4.000000 0.000000
4.500000 4.000000 0.000000
4.750000 4.000000 0.000000
3.813081 3.669072 0.000000
3.660928 3.805846 0.000000
3.844802 3.844984 0.000000
3.630781 4.172236 0.000000
3.755447 4.375936 0.000000
3.824845 4.167874 0.000000
3.536362 4.315974 0.000000
4.195000 3.745000 0.000000
4.375084 3.791072 0.000000
4.300774 3.567728 0.000000
4.588195 3.700568 0.000000
4.178472 4.325972 0.000000
4.225000 4.500000 0.000000
4.341551 4.171968 0.000000
4.581177 4.216647 0.000000
4.398247 4.399662 0.000000
4.401594 4.630720 0.000000
4.661856 4.507893 0.000000
4.832172 4.245757 0.000000
4.154005 4.149588 0.000000
CELLS 43 172 
3 10  3  4
3 11  2  1
3 2 12  0
3 4 12 10
3 12  4  0
3 11 12  2
3 11 10 12
3 2 13  1
3 15  2  0
3 5 15  0
3 15 13  2
3 6 14  5
3 15  5 14
3 14 13 15
3 14 16 13
3 3 17  4
3 7 18  8
3 17 18  7
3 3 19 17
3 17 19 18
3 17  0  4
3 7  0 17
3 19 20 18
3 8 20  9
3 18 20  8
3 21  6  5
3 21 22  6
3 21 25 22
3 23  7  8
3 9 24  8
3 23 25 21
3 22 25 26
3 29  5  0
3 7 29  0
3 5 29 21
3 28 24  9
3 23 29  7
3 23 21 29
3 23  8 24
3 23 24 25
3 26 25 27
3 27 25 24
3 27 24 28
CELL_TYPES 43
5 5 5 5 5 5 5 5 5 5 5 5 5 5 5 5 5 5 5 5 5 5 5 5 5 5 5 5 5 5 5 5 5 5 5 5 5 5 5 5 5 5 5 
POINT_DATA 30
VECTORS displacement_ITER1 FLOAT
 4.706009e-02  -2.334265e-01  0 
 4.714447e-02  -1.994748e-01  0 
 4.710223e-02  -2.164557e-01  0 
 1.334504e-02  -2.333551e-01  0 
 3.018380e-02  -2.333800e-01  0 
 6.874640e-02  -2.334583e-01  0 
 9.046347e-02  -2.334723e-01  0 
 4.703885e-02  -2.551839e-01  0 
 4.703279e-02  -2.769253e-01  0 
 4.703118e-02  -2.986631e-01  0 
 2.472033e-02  -2.207659e-01  0 
 3.394974e-02  -2.104548e-01  0 
 3.658694e-02  -2.229088e-01  0 
 5.952414e-02  -1.958396e-01  0 
 7.503323e-02  -2.010090e-01  0 
 5.865298e-02  -2.150748e-01  0 
 7.458489e-02  -1.729309e-01  0 
 3.097013e-02  -2.506533e-01  0 
 3.572174e-02  -2.669454e-01  0 
 2.094118e-02  -2.573281e-01  0 
 3.285444e-02  -2.863410e-01  0 
 7.535474e-02  -2.489687e-01  0 
 9.047286e-02  -2.530213e-01  0 
 6.198202e-02  -2.631412e-01  0 
 6.586191e-02  -2.839812e-01  0 
 8.176096e-02  -2.680766e-01  0 
 1.018328e-01  -2.683729e-01  0 
 9.116591e-02  -2.909968e-01  0 
 6.839186e-02  -3.058110e-01  0 
 6.004089e-02  -2.468272e-01  0 
VECTORS displacement_ITER2 FLOAT
 5.759008e-02  -1.821642e-01  0 
 5.765329e-02  -1.598440e-01  0 
 5.762268e-02  -1.709960e-01  0 
 3.552358e-02  -1.820479e-01  0 
 4.653247e-02  -1.820871e-01  0 
 7.464886e-02  -1.822258e-01  0 
 9.172391e-02  -1.822578e-01  0 
 5.757507e-02  -1.993133e-01  0 
 5.757400e-02  -2.164267e-01  0 
 5.757572e-02  -2.335345e-01  0 
 4.295267e-02  -1.738241e-01  0 
 4.899032e-02  -1.670618e-01  0 
 5.071742e-02  -1.752370e-01  0 
 6.630332e-02  -1.561406e-01  0 
 7.615883e-02  -1.587755e-01  0 
 6.610061e-02  -1.687467e-01  0 
 7.487867e-02  -1.417255e-01  0 
 4.665245e-02  -1.953079e-01  0 
 4.964263e-02  -2.087350e-01  0 
 3.848335e-02  -2.020154e-01  0 
 4.677516e-02  -2.250786e-01  0 
 7.985243e-02  -1.944306e-01  0 
 9.174082e-02  -1.976275e-01  0 
 6.933674e-02  -2.055791e-01  0 
 7.238921e-02  -2.219801e-01  0 
 8.489316e-02  -2.094667e-01  0 
 1.006740e-01  -2.097026e-01  0 
 9.228748e-02  -2.274954e-01  0 
 7.437775e-02  -2.391561e-01  0 
 6.780930e-02  -1.927348e-01  0 
VECTORS displacement_ITER3 FLOAT
 4.288924e-02  -1.226899e-01  0 
 4.294827e-02  -1.113837e-01  0 
 4.292136e-02  -1.170129e-01  0 
 3.190585e-02  -1.225034e-01  0 
 3.736469e-02  -1.225661e-01  0 
 5.557512e-02  -1.227978e-01  0 
 6.826477e-02  -1.228582e-01  0 
 4.287485e-02  -1.355091e-01  0 
 4.287738e-02  -1.482640e-01  0 
 4.288182e-02  -1.610114e-01  0 
 3.557453e-02  -1.184394e-01  0 
 3.857755e-02  -1.150443e-01  0 
 3.943746e-02  -1.191618e-01  0 
 4.629630e-02  -1.074504e-01  0 
 5.053260e-02  -1.085556e-01  0 
 4.776304e-02  -1.136771e-01  0 
 4.638457e-02  -1.027640e-01  0 
 3.679209e-02  -1.322644e-01  0 
 3.779979e-02  -1.434171e-01  0 
 2.944978e-02  -1.404606e-01  0 
 3.373538e-02  -1.586150e-01  0 
 5.945593e-02  -1.318845e-01  0 
 6.829321e-02  -1.342778e-01  0 
 5.163797e-02  -1.401808e-01  0 
 5.390872e-02  -1.524000e-01  0 
 6.320822e-02  -1.430820e-01  0 
 7.493558e-02  -1.432626e-01  0 
 6.870421e-02  -1.564985e-01  0 
 5.538534e-02  -1.651907e-01  0 
 5.050203e-02  -1.306032e-01  0 
VECTORS displacement_ITER4 FLOAT
 3.599758e-02  -1.018637e-01  0 
 3.605513e-02  -9.722328e-02  0 
 3.603018e-02  -9.951008e-02  0 
 3.172428e-02  -1.016331e-01  0 
 3.382405e-02  -1.017101e-01  0 
 4.483854e-02  -1.020023e-01  0 
 5.367333e-02  -1.020810e-01  0 
 3.598274e-02  -1.108671e-01  0 
 3.598694e-02  -1.197861e-01  0 
 3.599249e-02  -1.286969e-01  0 
 3.311678e-02  -1.000875e-01  0 
 3.428265e-02  -9.873060e-02  0 
 3.461744e-02  -1.003925e-01  0 
 3.538739e-02  -9.386166e-02  0 
 3.579828e-02  -9.452804e-02  0 
 3.803318e-02  -9.598997e-02  0 
 2.963544e-02  -9.592786e-02  0 
 3.306009e-02  -1.087230e-01  0 
 3.283890e-02  -1.176375e-01  0 
 2.648336e-02  -1.175638e-01  0 
 2.796037e-02  -1.317387e-01  0 
 4.755390e-02  -1.083456e-01  0 
 5.370807e-02  -1.100287e-01  0 
 4.210716e-02  -1.141344e-01  0 
 4.368997e-02  -1.226740e-01  0 
 5.017192e-02  -1.161657e-01  0 
 5.833602e-02  -1.162966e-01  0 
 5.399951e-02  -1.255274e-01  0 
 4.471714e-02  -1.316076e-01  0 
 4.131616e-02  -1.074325e-01  0 
VECTORS displacement_ITER5 FLOAT
 3.022306e-02  -6.281027e-02  0 
 3.024710e-02  -5.580120e-02  0 
 3.024000e-02  -5.926488e-02  0 
 2.354462e-02  -6.256397e-02  0 
 2.684924e-02  -6.264423e-02  0 
 3.690461e-02  -6.296286e-02  0 
 4.355765e-02  -6.304664e-02  0 
 3.021711e-02  -6.965176e-02  0 
 3.022569e-02  -7.639382e-02  0 
 3.023392e-02  -8.312658e-02  0 
 2.575163e-02  -6.012254e-02  0 
 2.756844e-02  -5.804702e-02  0 
 2.809461e-02  -6.058682e-02  0 
 3.012237e-02  -5.858336e-02  0 
 2.938467e-02  -6.067129e-02  0 
 3.243324e-02  -5.895672e-02  0 
 2.270505e-02  -6.692021e-02  0 
 2.629345e-02  -6.849059e-02  0 
 2.605680e-02  -7.558481e-02  0 
 1.928139e-02  -7.685444e-02  0 
 2.048600e-02  -8.801328e-02  0 
 3.895659e-02  -6.775333e-02  0 
 4.359085e-02  -6.903060e-02  0 
 3.484921e-02  -7.212360e-02  0 
 3.604311e-02  -7.857426e-02  0 
 4.092974e-02  -7.365858e-02  0 
 4.707522e-02  -7.375841e-02  0 
 4.381084e-02  -8.072081e-02  0 
 3.681657e-02  -8.531729e-02  0 
 3.425310e-02  -6.705356e-02  0 
VECTORS displacement_ITER6 FLOAT
 2.596409e-02  -4.513963e-02  0 
 2.597485e-02  -3.445022e-02  0 
 2.597495e-02  -3.975264e-02  0 
 1.559306e-02  -4.488353e-02  0 
 2.074627e-02  -4.496635e-02  0 
 3.008821e-02  -4.529992e-02  0 
 3.417045e-02  -4.538262e-02  0 
 2.596196e-02  -4.942338e-02  0 
 2.597297e-02  -5.359523e-02  0 
 2.598399e-02  -5.775541e-02  0 
 1.904891e-02  -4.106455e-02  0 
 2.187276e-02  -3.787037e-02  0 
 2.269003e-02  -4.176715e-02  0 
 2.601488e-02  -4.187460e-02  0 
 2.506624e-02  -4.565714e-02  0 
 2.789683e-02  -4.227566e-02  0 
 1.863524e-02  -5.266586e-02  0 
 2.099551e-02  -4.966891e-02  0 
 2.141238e-02  -5.430919e-02  0 
 1.474952e-02  -5.592689e-02  0 
 1.671977e-02  -6.368069e-02  0 
 3.135659e-02  -4.825708e-02  0 
 3.419877e-02  -4.905341e-02  0 
 2.882992e-02  -5.095419e-02  0 
 2.956370e-02  -5.494036e-02  0 
 3.256839e-02  -5.190327e-02  0 
 3.633476e-02  -5.196607e-02  0 
 3.433348e-02  -5.625545e-02  0 
 3.003814e-02  -5.909945e-02  0 
 2.846518e-02  -4.781027e-02  0 
VECTORS displacement_ITER7 FLOAT
 2.626304e-02  -3.941897e-02  0 
 2.628964e-02  -2.412664e-02  0 
 2.628099e-02  -3.173606e-02  0 
 1.132357e-02  -3.915348e-02  0 
 1.875907e-02  -3.924131e-02  0 
 2.910698e-02  -3.958066e-02  0 
 3.191073e-02  -3.965657e-02  0 
 2.625876e-02  -4.242732e-02  0 
 2.627058e-02  -4.531574e-02  0 
 2.628520e-02  -4.818814e-02  0 
 1.631931e-02  -3.363174e-02  0 
 2.039508e-02  -2.903907e-02  0 
 2.157058e-02  -3.462449e-02  0 
 2.665406e-02  -3.247087e-02  0 
 2.724538e-02  -3.755842e-02  0 
 2.799567e-02  -3.548859e-02  0 
 2.206965e-02  -3.946542e-02  0 
 2.011729e-02  -4.368265e-02  0 
 2.183051e-02  -4.654577e-02  0 
 1.546284e-02  -4.682841e-02  0 
 1.961299e-02  -5.242646e-02  0 
 2.998339e-02  -4.162380e-02  0 
 3.193226e-02  -4.217818e-02  0 
 2.824527e-02  -4.348763e-02  0 
 2.874845e-02  -4.624449e-02  0 
 3.081396e-02  -4.414410e-02  0 
 3.339441e-02  -4.418721e-02  0 
 3.202103e-02  -4.714668e-02  0 
 2.907411e-02  -4.911288e-02  0 
 2.799738e-02  -4.130340e-02  0 
VECTORS displacement_ITER8 FLOAT
 1.623623e-02  -2.705700e-02  0 
 1.625072e-02  -8.894690e-03  0 
 1.624689e-02  -1.793882e-02  0 
 -1.569658e-03  -2.677567e-02  0 
 7.294141e-03  -2.686975e-02  0 
 1.879907e-02  -2.722393e-02  0 
 2.131329e-02  -2.729548e-02  0 
 1.623936e-02  -2.977885e-02  0 
 1.625617e-02  -3.237034e-02  0 
 1.627596e-02  -3.494094e-02  0 
 4.389311e-03  -2.018942e-02  0 
 9.245575e-03  -1.472659e-02  0 
 1.064843e-02  -2.136618e-02  0 
 1.870246e-02  -1.878176e-02  0 
 2.047556e-02  -2.401040e-02  0 
 1.888707e-02  -2.297108e-02  0 
 1.731706e-02  -2.360455e-02  0 
 9.051815e-03  -3.108282e-02  0 
 1.153449e-02  -3.299677e-02  0 
 5.250944e-03  -3.208175e-02  0 
 1.103568e-02  -3.583165e-02  0 
 1.958457e-02  -2.906016e-02  0 
 2.132974e-02  -2.955843e-02  0 
 1.802591e-02  -3.073331e-02  0 
 1.847716e-02  -3.320526e-02  0 
 2.032658e-02  -3.132252e-02  0 
 2.263430e-02  -3.135938e-02  0 
 2.140284e-02  -3.401240e-02  0 
 1.876926e-02  -3.577070e-02  0 
 1.780395e-02  -2.876918e-02  0 
VECTORS displacement_ITER9 FLOAT
 1.069813e-02  -2.315985e-02  0 
 1.070060e-02  -9.625135e-03  0 
 1.070139e-02  -1.635197e-02  0 
 -2.468953e-03  -2.285780e-02  0 
 4.068163e-03  -2.295960e-02  0 
 1.178295e-02  -2.333666e-02  0 
 1.281212e-02  -2.341015e-02  0 
 1.070839e-02  -2.440336e-02  0 
 1.072931e-02  -2.550788e-02  0 
 1.075147e-02  -2.658927e-02  0 
 1.914019e-03  -1.801331e-02  0 
 5.498067e-03  -1.396321e-02  0 
 6.539790e-03  -1.889775e-02  0 
 1.285368e-02  -1.786587e-02  0 
 1.388146e-02  -2.160948e-02  0 
 1.260791e-02  -2.066493e-02  0 
 1.206491e-02  -2.202145e-02  0 
 5.624812e-03  -2.566732e-02  0 
 7.609443e-03  -2.635679e-02  0 
 3.327632e-03  -2.577442e-02  0 
 7.956608e-03  -2.703603e-02  0 
 1.211733e-02  -2.411389e-02  0 
 1.282788e-02  -2.433668e-02  0 
 1.147481e-02  -2.481623e-02  0 
 1.166167e-02  -2.586165e-02  0 
 1.242113e-02  -2.506970e-02  0 
 1.335291e-02  -2.508684e-02  0 
 1.285218e-02  -2.618964e-02  0 
 1.178140e-02  -2.693000e-02  0 
 1.138455e-02  -2.396642e-02  0 
VECTORS displacement_ITER10 FLOAT
 7.088147e-03  -1.569161e-02  0 
 7.090611e-03  -7.300205e-03  0 
 7.089193e-03  -1.145443e-02  0 
 -9.067190e-04  -1.536935e-02  0 
 3.034590e-03  -1.548037e-02  0 
 7.794207e-03  -1.587525e-02  0 
 8.443447e-03  -1.595021e-02  0 
 7.102310e-03  -1.655801e-02  0 
 7.125331e-03  -1.728208e-02  0 
 7.148193e-03  -1.798313e-02  0 
 1.717580e-03  -1.246713e-02  0 
 3.885948e-03  -9.987442e-03  0 
 4.523960e-03  -1.302366e-02  0 
 8.725898e-03  -1.211010e-02  0 
 9.798954e-03  -1.438305e-02  0 
 8.390120e-03  -1.414512e-02  0 
 8.803064e-03  -1.415405e-02  0 
 4.120962e-03  -1.741843e-02  0 
 5.313492e-03  -1.794562e-02  0 
 2.656312e-03  -1.788179e-02  0 
 5.625810e-03  -1.832877e-02  0 
 8.013907e-03  -1.638136e-02  0 
 8.459394e-03  -1.653422e-02  0 
 7.607583e-03  -1.683349e-02  0 
 7.727536e-03  -1.751354e-02  0 
 8.206129e-03  -1.700244e-02  0 
 8.784485e-03  -1.701522e-02  0 
 8.471992e-03  -1.772001e-02  0 
 7.803616e-03  -1.819791e-02  0 
 7.550158e-03  -1.626902e-02  0 
VECTORS displacement_ITER11 FLOAT
 1.885236e-03  -9.593462e-03  0 
 1.884391e-03  -5.544749e-03  0 
 1.883012e-03  -7.525402e-03  0 
 -1.742553e-03  -9.250301e-03  0 
 6.187967e-06  -9.370358e-03  0 
 3.122764e-03  -9.784033e-03  0 
 4.302537e-03  -9.860774e-03  0 
 1.903193e-03  -1.099318e-02  0 
 1.928336e-03  -1.224733e-02  0 
 1.952486e-03  -1.347820e-02  0 
 -6.038953e-04  -7.988833e-03  0 
 3.683200e-04  -6.835818e-03  0 
 6.658108e-04  -8.269322e-03  0 
 3.747840e-03  -7.578089e-03  0 
 5.073602e-03  -8.475023e-03  0 
 3.253308e-03  -8.812513e-03  0 
 4.689337e-03  -8.252616e-03  0 
 4.833993e-04  -1.101301e-02  0 
 9.845658e-04  -1.200144e-02  0 
 -5.573709e-04  -1.202381e-02  0 
 1.264955e-03  -1.230720e-02  0 
 3.504625e-03  -1.066895e-02  0 
 4.319502e-03  -1.092184e-02  0 
 2.773384e-03  -1.146488e-02  0 
 2.988929e-03  -1.265261e-02  0 
 3.853862e-03  -1.175595e-02  0 
 4.921003e-03  -1.177624e-02  0 
 4.348147e-03  -1.303036e-02  0 
 3.126582e-03  -1.386726e-02  0 
 2.667410e-03  -1.050258e-02  0 
VECTORS displacement_ITER12 FLOAT
 3.821221e-03  -7.777666e-03  0 
 3.820836e-03  -6.523676e-03  0 
 3.818225e-03  -7.105201e-03  0 
 3.013164e-03  -7.417452e-03  0 
 3.345258e-03  -7.544522e-03  0 
 5.682511e-03  -7.974875e-03  0 
 7.486505e-03  -8.054204e-03  0 
 3.841051e-03  -9.805529e-03  0 
 3.867464e-03  -1.168457e-02  0 
 3.892330e-03  -1.353992e-02  0 
 3.191422e-03  -7.216165e-03  0 
 3.391666e-03  -6.917700e-03  0 
 3.469064e-03  -7.318561e-03  0 
 5.775444e-03  -6.333725e-03  0 
 7.405368e-03  -6.360868e-03  0 
 5.258697e-03  -7.260043e-03  0 
 7.369188e-03  -5.641450e-03  0 
 3.424407e-03  -9.168213e-03  0 
 3.525431e-03  -1.066456e-02  0 
 2.685840e-03  -1.053064e-02  0 
 3.887604e-03  -1.107409e-02  0 
 6.255277e-03  -9.305870e-03  0 
 7.504824e-03  -9.676566e-03  0 
 5.140962e-03  -1.050744e-02  0 
 5.468488e-03  -1.229370e-02  0 
 6.789190e-03  -1.094179e-02  0 
 8.431984e-03  -1.097092e-02  0 
 7.552582e-03  -1.287253e-02  0 
 5.678383e-03  -1.413418e-02  0 
 4.978445e-03  -9.076019e-03  0 
VECTORS displacement_ITER13 FLOAT
 3.440972e-04  -6.551749e-03  0 
 3.414701e-04  -6.051230e-03  0 
 3.388559e-04  -6.255694e-03  0 
 2.974581e-04  -6.184562e-03  0 
 2.445654e-04  -6.314865e-03  0 
 2.356711e-03  -6.752123e-03  0 
 4.309831e-03  -6.833879e-03  0 
 3.672733e-04  -8.729651e-03  0 
 3.955790e-04  -1.075686e-02  0 
 4.210369e-04  -1.276028e-02  0 
 2.141533e-04  -6.271547e-03  0 
 2.055698e-04  -6.203874e-03  0 
 2.239666e-04  -6.325203e-03  0 
 2.351313e-03  -4.966006e-03  0 
 4.010819e-03  -4.646269e-03  0 
 1.758942e-03  -5.967982e-03  0 
 4.341169e-03  -3.352086e-03  0 
 1.905878e-04  -7.869867e-03  0 
 1.805788e-04  -9.424080e-03  0 
 -3.664883e-04  -9.158717e-03  0 
 5.748269e-04  -9.729476e-03  0 
 2.975583e-03  -8.190367e-03  0 
 4.328743e-03  -8.589894e-03  0 
 1.770338e-03  -9.487357e-03  0 
 2.125456e-03  -1.141485e-02  0 
 3.553879e-03  -9.956341e-03  0 
 5.332307e-03  -9.987505e-03  0 
 4.380532e-03  -1.204044e-02  0 
 2.352731e-03  -1.340242e-02  0 
 1.593255e-03  -7.944642e-03  0 
VECTORS displacement_ITER14 FLOAT
 -1.352764e-03  -6.189771e-03  0 
 -1.355802e-03  -5.638704e-03  0 
 -1.358634e-03  -5.868703e-03  0 
 -1.450121e-03  -5.823280e-03  0 
 -1.478406e-03  -5.953343e-03  0 
 2.609990e-06  -6.392126e-03  0 
 1.296382e-03  -6.477583e-03  0 
 -1.327709e-03  -7.709773e-03  0 
 -1.298291e-03  -9.077845e-03  0 
 -1.273350e-03  -1.042246e-02  0 
 -1.516899e-03  -5.891768e-03  0 
 -1.511242e-03  -5.808180e-03  0 
 -1.489051e-03  -5.947769e-03  0 
 2.572250e-05  -4.598108e-03  0 
 1.003282e-03  -4.213847e-03  0 
 -4.685253e-04  -5.523403e-03  0 
 1.403439e-03  -3.084232e-03  0 
 -1.436828e-03  -7.148915e-03  0 
 -1.449023e-03  -8.190484e-03  0 
 -1.760642e-03  -8.104805e-03  0 
 -1.151907e-03  -8.323400e-03  0 
 4.222068e-04  -7.361162e-03  0 
 1.316250e-03  -7.639497e-03  0 
 -3.767195e-04  -8.226905e-03  0 
 -1.384929e-04  -9.521509e-03  0 
 8.067582e-04  -8.547022e-03  0 
 1.973782e-03  -8.569688e-03  0 
 1.347246e-03  -9.932768e-03  0 
 1.212087e-05  -1.084579e-02  0 
 -4.958921e-04  -7.178623e-03  0 
VECTORS displacement_ITER15 FLOAT
 -6.239211e-04  -5.902922e-03  0 
 -6.220300e-04  -4.794519e-03  0 
 -6.264910e-04  -5.302975e-03  0 
 -1.271099e-03  -5.535971e-03  0 
 -1.022930e-03  -5.665352e-03  0 
 2.203339e-04  -6.108439e-03  0 
 1.004655e-03  -6.197364e-03  0 
 -6.008098e-04  -6.917672e-03  0 
 -5.716280e-04  -7.778165e-03  0 
 -5.469587e-04  -8.614523e-03  0 
 -1.150903e-03  -5.397797e-03  0 
 -9.937406e-04  -5.144318e-03  0 
 -9.293617e-04  -5.489023e-03  0 
 1.842590e-04  -4.240149e-03  0 
 4.337950e-04  -3.836621e-03  0 
 -1.715809e-04  -5.042188e-03  0 
 6.115745e-04  -3.450007e-03  0 
 -8.474217e-04  -6.612122e-03  0 
 -7.439891e-04  -7.234736e-03  0 
 -1.032066e-03  -7.175719e-03  0 
 -3.657251e-04  -7.040986e-03  0 
 4.862464e-04  -6.715197e-03  0 
 1.025871e-03  -6.900678e-03  0 
 1.031526e-06  -7.248802e-03  0 
 1.481241e-04  -8.056442e-03  0 
 7.210970e-04  -7.454407e-03  0 
 1.416620e-03  -7.470876e-03  0 
 1.040432e-03  -8.302546e-03  0 
 2.388726e-04  -8.869698e-03  0 
 -7.243290e-05  -6.580533e-03  0 
VECTORS displacement_ITER16 FLOAT
 1.697558e-03  -6.944336e-03  0 
 1.704585e-03  -4.954880e-03  0 
 1.698609e-03  -5.902961e-03  0 
 1.777869e-04  -6.575057e-03  0 
 8.641497e-04  -6.704395e-03  0 
 2.389380e-03  -7.153741e-03  0 
 3.023030e-03  -7.245620e-03  0 
 1.717859e-03  -7.814243e-03  0 
 1.746407e-03  -8.527215e-03  0 
 1.771127e-03  -9.215373e-03  0 
 5.942715e-04  -6.109761e-03  0 
 9.912421e-04  -5.588406e-03  0 
 1.122970e-03  -6.257365e-03  0 
 2.030947e-03  -5.194439e-03  0 
 1.937665e-03  -5.133573e-03  0 
 1.950257e-03  -5.910860e-03  0 
 1.460040e-03  -5.542474e-03  0 
 1.091618e-03  -7.625446e-03  0 
 1.290163e-03  -8.166788e-03  0 
 6.583850e-04  -8.166325e-03  0 
 1.511365e-03  -8.046565e-03  0 
 2.610551e-03  -7.654242e-03  0 
 3.045616e-03  -7.813389e-03  0 
 2.217614e-03  -8.090860e-03  0 
 2.337399e-03  -8.756987e-03  0 
 2.801417e-03  -8.263275e-03  0 
 3.358236e-03  -8.278582e-03  0 
 3.055729e-03  -8.954629e-03  0 
 2.410029e-03  -9.421070e-03  0 
 2.158192e-03  -7.532480e-03  0 
VECTORS displacement_ITER17 FLOAT
 2.296516e-03  -6.745865e-03  0 
 2.304350e-03  -4.067344e-03  0 
 2.298404e-03  -5.359280e-03  0 
 8.867729e-05  -6.375268e-03  0 
 1.120245e-03  -6.504622e-03  0 
 2.668726e-03  -6.957976e-03  0 
 2.981633e-03  -7.052094e-03  0 
 2.316132e-03  -7.299459e-03  0 
 2.344688e-03  -7.694103e-03  0 
 2.369408e-03  -8.063742e-03  0 
 7.386309e-04  -5.652491e-03  0 
 1.324129e-03  -4.921611e-03  0 
 1.509343e-03  -5.844456e-03  0 
 2.255614e-03  -5.148194e-03  0 
 1.848196e-03  -5.451848e-03  0 
 2.358769e-03  -5.731740e-03  0 
 9.328229e-04  -6.515934e-03  0 
 1.390211e-03  -7.315095e-03  0 
 1.610225e-03  -7.701755e-03  0 
 6.666032e-04  -7.953839e-03  0 
 1.475187e-03  -7.844688e-03  0 
 2.793090e-03  -7.230700e-03  0 
 3.004914e-03  -7.331083e-03  0 
 2.596932e-03  -7.459284e-03  0 
 2.659288e-03  -7.819820e-03  0 
 2.889638e-03  -7.559169e-03  0 
 3.150163e-03  -7.570656e-03  0 
 3.005455e-03  -7.913614e-03  0 
 2.694131e-03  -8.163181e-03  0 
 2.566349e-03  -7.139430e-03  0 
VECTORS displacement_ITER18 FLOAT
 1.829216e-03  -7.125550e-03  0 
 1.839613e-03  -4.284704e-03  0 
 1.832274e-03  -5.658480e-03  0 
 -5.336275e-04  -6.752064e-03  0 
 5.747438e-04  -6.882790e-03  0 
 1.889971e-03  -7.338721e-03  0 
 1.891483e-03  -7.433185e-03  0 
 1.848548e-03  -7.369290e-03  0 
 1.877343e-03  -7.452674e-03  0 
 1.902488e-03  -7.510249e-03  0 
 1.675596e-04  -5.972582e-03  0 
 7.958326e-04  -5.193040e-03  0 
 9.932558e-04  -6.174580e-03  0 
 1.700236e-03  -5.370319e-03  0 
 1.175593e-03  -5.620800e-03  0 
 1.731792e-03  -6.062881e-03  0 
 5.006837e-04  -6.412864e-03  0 
 9.519675e-04  -7.533458e-03  0 
 1.268993e-03  -7.656874e-03  0 
 4.570166e-04  -7.820760e-03  0 
 1.319809e-03  -7.553832e-03  0 
 1.919703e-03  -7.389400e-03  0 
 1.914386e-03  -7.431842e-03  0 
 1.915260e-03  -7.415093e-03  0 
 1.921409e-03  -7.476959e-03  0 
 1.924087e-03  -7.443892e-03  0 
 1.896056e-03  -7.450989e-03  0 
 1.904449e-03  -7.469203e-03  0 
 1.919115e-03  -7.506639e-03  0 
 1.912800e-03  -7.328345e-03  0 
VECTORS displacement_ITER19 FLOAT
 1.844740e-03  -6.366182e-03  0 
 1.854316e-03  -3.777100e-03  0 
 1.847359e-03  -5.024533e-03  0 
 -2.628545e-04  -5.989677e-03  0 
 7.168576e-04  -6.121535e-03  0 
 2.090096e-03  -6.580642e-03  0 
 2.275872e-03  -6.675703e-03  0 
 1.864424e-03  -6.795212e-03  0 
 1.893377e-03  -7.062978e-03  0 
 1.918610e-03  -7.304503e-03  0 
 3.509523e-04  -5.306590e-03  0 
 9.092401e-04  -4.604249e-03  0 
 1.086779e-03  -5.492602e-03  0 
 1.824178e-03  -4.680543e-03  0 
 1.487966e-03  -4.903024e-03  0 
 1.854835e-03  -5.357093e-03  0 
 7.878274e-04  -5.617960e-03  0 
 1.033037e-03  -6.808311e-03  0 
 1.335597e-03  -7.044806e-03  0 
 6.110333e-04  -7.040299e-03  0 
 1.449374e-03  -6.944845e-03  0 
 2.175993e-03  -6.762891e-03  0 
 2.298864e-03  -6.839791e-03  0 
 2.057958e-03  -6.908693e-03  0 
 2.096764e-03  -7.147119e-03  0 
 2.234679e-03  -6.979229e-03  0 
 2.377016e-03  -6.989135e-03  0 
 2.295040e-03  -7.198947e-03  0 
 2.115565e-03  -7.361578e-03  0 
 2.039059e-03  -6.683535e-03  0 
VECTORS displacement_ITER20 FLOAT
 2.594080e-03  -5.898411e-03  0 
 2.602072e-03  -3.925218e-03  0 
 2.595576e-03  -4.863907e-03  0 
 1.109418e-03  -5.515108e-03  0 
 1.775359e-03  -5.649755e-03  0 
 3.008986e-03  -6.115760e-03  0 
 3.363063e-03  -6.212263e-03  0 
 2.614889e-03  -6.498162e-03  0 
 2.644277e-03  -6.934641e-03  0 
 2.669391e-03  -7.344259e-03  0 
 1.510094e-03  -5.067405e-03  0 
 1.897532e-03  -4.554044e-03  0 
 2.026674e-03  -5.214436e-03  0 
 2.646663e-03  -4.441052e-03  0 
 2.501391e-03  -4.569856e-03  0 
 2.680878e-03  -5.031452e-03  0 
 1.848930e-03  -5.128828e-03  0 
 2.004743e-03  -6.336151e-03  0 
 2.244964e-03  -6.713545e-03  0 
 1.675927e-03  -6.587578e-03  0 
 2.417830e-03  -6.660667e-03  0 
 3.146445e-03  -6.418475e-03  0 
 3.386351e-03  -6.527167e-03  0 
 2.924697e-03  -6.673802e-03  0 
 2.993440e-03  -7.073445e-03  0 
 3.254796e-03  -6.782652e-03  0 
 3.552456e-03  -6.795241e-03  0 
 3.388123e-03  -7.179686e-03  0 
 3.031614e-03  -7.456700e-03  0 
 2.890606e-03  -6.321977e-03  0 
VECTORS displacement_ITER21 FLOAT
 2.556131e-03  -5.307203e-03  0 
 2.561522e-03  -3.814105e-03  0 
 2.555629e-03  -4.511782e-03  0 
 1.561196e-03  -4.913757e-03  0 
 1.978845e-03  -5.052634e-03  0 
 2.955629e-03  -5.529438e-03  0 
 3.291309e-03  -5.628737e-03  0 
 2.579378e-03  -5.892894e-03  0 
 2.610012e-03  -6.311552e-03  0 
 2.635218e-03  -6.702369e-03  0 
 1.792452e-03  -4.653177e-03  0 
 2.045189e-03  -4.288270e-03  0 
 2.136663e-03  -4.769924e-03  0 
 2.629086e-03  -4.011006e-03  0 
 2.553292e-03  -4.027486e-03  0 
 2.628196e-03  -4.555259e-03  0 
 2.085577e-03  -4.342352e-03  0 
 2.167370e-03  -5.651258e-03  0 
 2.372390e-03  -6.027702e-03  0 
 1.978000e-03  -5.816674e-03  0 
 2.607139e-03  -5.950433e-03  0 
 3.088224e-03  -5.820017e-03  0 
 3.314928e-03  -5.926110e-03  0 
 2.877814e-03  -6.062858e-03  0 
 2.943415e-03  -6.444393e-03  0 
 3.191145e-03  -6.167778e-03  0 
 3.470532e-03  -6.180393e-03  0 
 3.316020e-03  -6.544203e-03  0 
 2.979333e-03  -6.808259e-03  0 
 2.844865e-03  -5.724096e-03  0 
VECTORS displacement_ITER22 FLOAT
 2.273782e-03  -5.046373e-03  0 
 2.275433e-03  -3.350327e-03  0 
 2.270855e-03  -4.148190e-03  0 
 1.081625e-03  -4.644534e-03  0 
 1.595368e-03  -4.786536e-03  0 
 2.678003e-03  -5.273943e-03  0 
 3.014449e-03  -5.376653e-03  0 
 2.299754e-03  -5.638107e-03  0 
 2.331834e-03  -6.058682e-03  0 
 2.357167e-03  -6.450602e-03  0 
 1.376791e-03  -4.313335e-03  0 
 1.682609e-03  -3.888573e-03  0 
 1.790031e-03  -4.443366e-03  0 
 2.366205e-03  -3.631804e-03  0 
 2.377879e-03  -3.755929e-03  0 
 2.368947e-03  -4.265864e-03  0 
 1.948579e-03  -3.830750e-03  0 
 1.775751e-03  -5.390820e-03  0 
 1.999604e-03  -5.814191e-03  0 
 1.480119e-03  -5.583806e-03  0 
 2.102247e-03  -5.959712e-03  0 
 2.811704e-03  -5.566478e-03  0 
 3.038423e-03  -5.673582e-03  0 
 2.600602e-03  -5.809642e-03  0 
 2.666669e-03  -6.191791e-03  0 
 2.914831e-03  -5.914913e-03  0 
 3.193381e-03  -5.927636e-03  0 
 3.039488e-03  -6.291037e-03  0 
 2.702686e-03  -6.555889e-03  0 
 2.566937e-03  -5.469160e-03  0 
VECTORS displacement_ITER23 FLOAT
 2.684990e-03  -5.042799e-03  0 
 2.681402e-03  -3.129706e-03  0 
 2.679186e-03  -4.034091e-03  0 
 1.277965e-03  -4.633467e-03  0 
 1.897454e-03  -4.777840e-03  0 
 3.061875e-03  -5.276258e-03  0 
 3.366550e-03  -5.383038e-03  0 
 2.713686e-03  -5.608973e-03  0 
 2.747249e-03  -5.999597e-03  0 
 2.772751e-03  -6.360782e-03  0 
 1.643950e-03  -4.224251e-03  0 
 2.007533e-03  -3.734978e-03  0 
 2.132112e-03  -4.368873e-03  0 
 2.678954e-03  -3.770387e-03  0 
 2.654504e-03  -4.084583e-03  0 
 2.773231e-03  -4.318288e-03  0 
 2.029185e-03  -4.397462e-03  0 
 2.050566e-03  -5.371983e-03  0 
 2.262853e-03  -5.851970e-03  0 
 1.544958e-03  -5.701438e-03  0 
 2.116080e-03  -6.317487e-03  0 
 3.187018e-03  -5.547802e-03  0 
 3.391217e-03  -5.650078e-03  0 
 2.995007e-03  -5.770399e-03  0 
 3.055760e-03  -6.122527e-03  0 
 3.280878e-03  -5.868703e-03  0 
 3.528787e-03  -5.881138e-03  0 
 3.391396e-03  -6.210646e-03  0 
 3.088013e-03  -6.454696e-03  0 
 2.963506e-03  -5.452112e-03  0 
VECTORS displacement_ITER24 FLOAT
 2.338017e-03  -5.034919e-03  0 
 2.329374e-03  -3.294237e-03  0 
 2.329211e-03  -4.110233e-03  0 
 1.111080e-03  -4.614052e-03  0 
 1.637620e-03  -4.762426e-03  0 
 2.587982e-03  -5.275922e-03  0 
 2.760849e-03  -5.387221e-03  0 
 2.369842e-03  -5.476921e-03  0 
 2.405237e-03  -5.737509e-03  0 
 2.431270e-03  -5.967329e-03  0 
 1.412907e-03  -4.275929e-03  0 
 1.726060e-03  -3.841724e-03  0 
 1.837070e-03  -4.410460e-03  0 
 2.283832e-03  -4.005444e-03  0 
 2.301518e-03  -4.393847e-03  0 
 2.389682e-03  -4.474390e-03  0 
 1.749413e-03  -4.598587e-03  0 
 1.740956e-03  -5.208194e-03  0 
 1.917937e-03  -5.629314e-03  0 
 1.220498e-03  -5.491436e-03  0 
 1.657321e-03  -6.149985e-03  0 
 2.674194e-03  -5.455121e-03  0 
 2.785907e-03  -5.533889e-03  0 
 2.562924e-03  -5.591802e-03  0 
 2.600143e-03  -5.817740e-03  0 
 2.728955e-03  -5.660206e-03  0 
 2.853118e-03  -5.670716e-03  0 
 2.781416e-03  -5.861868e-03  0 
 2.616473e-03  -6.016768e-03  0 
 2.542645e-03  -5.370540e-03  0 
VECTORS displacement_ITER25 FLOAT
 1.770989e-03  -5.178534e-03  0 
 1.757929e-03  -3.523649e-03  0 
 1.759304e-03  -4.295466e-03  0 
 6.352627e-04  -4.748725e-03  0 
 1.113348e-03  -4.900607e-03  0 
 1.987533e-03  -5.424439e-03  0 
 2.123152e-03  -5.538169e-03  0 
 1.805932e-03  -5.587613e-03  0 
 1.843181e-03  -5.810989e-03  0 
 1.870167e-03  -6.002194e-03  0 
 9.031122e-04  -4.448245e-03  0 
 1.190363e-03  -4.042213e-03  0 
 1.294856e-03  -4.577763e-03  0 
 1.810694e-03  -4.147785e-03  0 
 2.011964e-03  -4.556207e-03  0 
 1.858675e-03  -4.689062e-03  0 
 1.661556e-03  -4.343552e-03  0 
 1.214859e-03  -5.257574e-03  0 
 1.436616e-03  -5.617995e-03  0 
 8.365498e-04  -5.306094e-03  0 
 1.335903e-03  -5.930286e-03  0 
 2.062913e-03  -5.578001e-03  0 
 2.147966e-03  -5.650097e-03  0 
 1.974589e-03  -5.689980e-03  0 
 2.005199e-03  -5.879202e-03  0 
 2.106238e-03  -5.749680e-03  0 
 2.194263e-03  -5.759295e-03  0 
 2.141489e-03  -5.910291e-03  0 
 2.016912e-03  -6.038822e-03  0 
 1.957112e-03  -5.496124e-03  0 
VECTORS displacement_ITER26 FLOAT
 1.485124e-03  -4.716270e-03  0 
 1.468975e-03  -3.386568e-03  0 
 1.471508e-03  -3.994665e-03  0 
 6.794683e-04  -4.279789e-03  0 
 9.904375e-04  -4.434155e-03  0 
 1.814465e-03  -4.965712e-03  0 
 2.060806e-03  -5.080812e-03  0 
 1.522057e-03  -5.238987e-03  0 
 1.560546e-03  -5.573051e-03  0 
 1.588341e-03  -5.873866e-03  0 
 8.334857e-04  -4.105077e-03  0 
 1.029759e-03  -3.799591e-03  0 
 1.108775e-03  -4.214235e-03  0 
 1.636814e-03  -3.705230e-03  0 
 2.071348e-03  -4.045895e-03  0 
 1.646549e-03  -4.287036e-03  0 
 1.868876e-03  -3.458809e-03  0 
 1.061582e-03  -4.776524e-03  0 
 1.300210e-03  -5.189774e-03  0 
 8.492928e-04  -4.663273e-03  0 
 1.392076e-03  -5.360652e-03  0 
 1.923790e-03  -5.198771e-03  0 
 2.085404e-03  -5.291489e-03  0 
 1.767453e-03  -5.382674e-03  0 
 1.817841e-03  -5.677435e-03  0 
 1.999377e-03  -5.467387e-03  0 
 2.188796e-03  -5.478140e-03  0 
 2.081862e-03  -5.744027e-03  0 
 1.842411e-03  -5.946995e-03  0 
 1.739771e-03  -5.105383e-03  0 
VECTORS displacement_ITER27 FLOAT
 1.296807e-03  -4.622797e-03  0 
 1.277235e-03  -3.666143e-03  0 
 1.281198e-03  -4.086450e-03  0 
 8.659417e-04  -4.181557e-03  0 
 9.881911e-04  -4.337489e-03  0 
 1.669602e-03  -4.875456e-03  0 
 1.957177e-03  -4.992258e-03  0 
 1.335581e-03  -5.189631e-03  0 
 1.375115e-03  -5.565404e-03  0 
 1.403408e-03  -5.907274e-03  0 
 8.919062e-04  -4.148475e-03  0 
 9.849946e-04  -3.957711e-03  0 
 1.034862e-03  -4.234342e-03  0 
 1.424479e-03  -3.749736e-03  0 
 1.964554e-03  -4.069450e-03  0 
 1.458109e-03  -4.288040e-03  0 
 1.827747e-03  -3.262204e-03  0 
 1.023931e-03  -4.643549e-03  0 
 1.243288e-03  -5.101682e-03  0 
 9.082005e-04  -4.477881e-03  0 
 1.399002e-03  -5.284330e-03  0 
 1.791904e-03  -5.138542e-03  0 
 1.981819e-03  -5.239047e-03  0 
 1.610188e-03  -5.349236e-03  0 
 1.668081e-03  -5.683393e-03  0 
 1.879441e-03  -5.443255e-03  0 
 2.106239e-03  -5.454185e-03  0 
 1.979312e-03  -5.763016e-03  0 
 1.697549e-03  -5.993970e-03  0 
 1.578439e-03  -5.040459e-03  0 
VECTORS displacement_ITER28 FLOAT
 1.519580e-03  -4.607150e-03  0 
 1.497933e-03  -3.671526e-03  0 
 1.502866e-03  -4.080417e-03  0 
 1.108856e-03  -4.164296e-03  0 
 1.220936e-03  -4.320510e-03  0 
 1.978654e-03  -4.861654e-03  0 
 2.351336e-03  -4.979852e-03  0 
 1.559277e-03  -5.260850e-03  0 
 1.599317e-03  -5.722210e-03  0 
 1.627718e-03  -6.149275e-03  0 
 1.127973e-03  -4.138994e-03  0 
 1.215201e-03  -3.955198e-03  0 
 1.263435e-03  -4.223892e-03  0 
 1.614394e-03  -3.694719e-03  0 
 2.218963e-03  -4.062858e-03  0 
 1.696575e-03  -4.251566e-03  0 
 2.028084e-03  -3.151184e-03  0 
 1.245044e-03  -4.672534e-03  0 
 1.474633e-03  -5.225124e-03  0 
 1.096648e-03  -4.541726e-03  0 
 1.611950e-03  -5.557533e-03  0 
 2.127206e-03  -5.185901e-03  0 
 2.376076e-03  -5.302293e-03  0 