# vtk DataFile Version 3.1
this is an vtk file created by FEMAC
ASCII
DATASET UNSTRUCTURED_GRID
POINTS 12 FLOAT
6.000000 0.000000 0.000000
6.500000 0.000000 0.000000
6.000000 0.200000 0.000000
6.000000 0.400000 0.000000
6.000000 0.600000 0.000000
6.000000 0.800000 0.000000
6.000000 1.000000 0.000000
6.500000 0.200000 0.000000
6.500000 0.400000 0.000000
6.500000 0.600000 0.000000
6.500000 0.800000 0.000000
6.500000 1.000000 0.000000
CELLS 5 25 
4 0 1 7 2
4 2 7 8 3
4 3 8 9 4
4 4  9 10  5
4 5 10 11  6
CELL_TYPES 5
9 9 9 9 9 
POINT_DATA 12
VECTORS displacement_ITER1 FLOAT
 -5.585458e-03  -4.332022e-02  0 
 -5.606588e-03  -4.893924e-02  0 
 -3.337178e-03  -4.331833e-02  0 
 -1.101866e-03  -4.330844e-02  0 
 1.144097e-03  -4.330844e-02  0 
 3.379409e-03  -4.331833e-02  0 
 5.627689e-03  -4.332022e-02  0 
 -3.360090e-03  -4.894032e-02  0 
 -1.107479e-03  -4.895074e-02  0 
 1.149710e-03  -4.895074e-02  0 
 3.402321e-03  -4.894032e-02  0 
 5.648819e-03  -4.893924e-02  0 
VECTORS displacement_ITER2 FLOAT
 -5.266531e-03  -4.210635e-02  0 
 -5.285796e-03  -4.741397e-02  0 
 -3.139192e-03  -4.210622e-02  0 
 -1.038348e-03  -4.210472e-02  0 
 1.073829e-03  -4.210472e-02  0 
 3.174673e-03  -4.210622e-02  0 
 5.302012e-03  -4.210635e-02  0 
 -3.168243e-03  -4.741441e-02  0 
 -1.043766e-03  -4.741181e-02  0 
 1.079247e-03  -4.741181e-02  0 
 3.203724e-03  -4.741441e-02  0 
 5.321277e-03  -4.741397e-02  0 
VECTORS displacement_ITER3 FLOAT
 -5.261672e-03  -4.204921e-02  0 
 -5.280819e-03  -4.734727e-02  0 
 -3.137934e-03  -4.204870e-02  0 
 -1.041492e-03  -4.205084e-02  0 
 1.065780e-03  -4.205084e-02  0 
 3.162222e-03  -4.204870e-02  0 
 5.285960e-03  -4.204921e-02  0 
 -3.167315e-03  -4.734744e-02  0 
 -1.046945e-03  -4.734568e-02  0 
 1.071234e-03  -4.734568e-02  0 
 3.191603e-03  -4.734744e-02  0 
 5.305108e-03  -4.734727e-02  0 
VECTORS displacement_ITER4 FLOAT
 -5.260743e-03  -4.204095e-02  0 
 -5.279864e-03  -4.733756e-02  0 
 -3.137578e-03  -4.204039e-02  0 
 -1.041549e-03  -4.204242e-02  0 
 1.065228e-03  -4.204242e-02  0 
 3.161256e-03  -4.204039e-02  0 
 5.284422e-03  -4.204095e-02  0 
 -3.166919e-03  -4.733782e-02  0 
 -1.047108e-03  -4.733621e-02  0 
 1.070787e-03  -4.733621e-02  0 
 3.190598e-03  -4.733782e-02  0 
 5.303543e-03  -4.733756e-02  0 
VECTORS displacement_ITER5 FLOAT
 -5.261656e-03  -4.204101e-02  0 
 -5.280777e-03  -4.733792e-02  0 
 -3.138372e-03  -4.204045e-02  0 
 -1.042238e-03  -4.204246e-02  0 
 1.064669e-03  -4.204246e-02  0 
 3.160801e-03  -4.204046e-02  0 
 5.284084e-03  -4.204102e-02  0 
 -3.167718e-03  -4.733817e-02  0 
 -1.047791e-03  -4.733657e-02  0 
 1.070222e-03  -4.733657e-02  0 
 3.190148e-03  -4.733817e-02  0 
 5.303206e-03  -4.733792e-02  0 
VECTORS displacement_ITER6 FLOAT
 -5.261977e-03  -4.204112e-02  0 
 -5.281099e-03  -4.733805e-02  0 
 -3.138683e-03  -4.204056e-02  0 
 -1.042539e-03  -4.204257e-02  0 
 1.064379e-03  -4.204257e-02  0 
 3.160522e-03  -4.204056e-02  0 
 5.283816e-03  -4.204113e-02  0 
 -3.168030e-03  -4.733830e-02  0 
 -1.048093e-03  -4.733670e-02  0 
 1.069932e-03  -4.733670e-02  0 
 3.189869e-03  -4.733830e-02  0 
 5.302938e-03  -4.733805e-02  0 
VECTORS displacement_ITER7 FLOAT
 -5.261886e-03  -4.204113e-02  0 
 -5.281008e-03  -4.733806e-02  0 
 -3.138590e-03  -4.204057e-02  0 
 -1.042445e-03  -4.204258e-02  0 
 1.064474e-03  -4.204258e-02  0 
 3.160620e-03  -4.204057e-02  0 
 5.283916e-03  -4.204113e-02  0 
 -3.167937e-03  -4.733831e-02  0 
 -1.047998e-03  -4.733671e-02  0 
 1.070028e-03  -4.733671e-02  0 
 3.189967e-03  -4.733831e-02  0 
 5.303038e-03  -4.733806e-02  0 
VECTORS displacement_ITER8 FLOAT
 -5.261908e-03  -4.204113e-02  0 
 -5.281030e-03  -4.733806e-02  0 
 -3.138613e-03  -4.204057e-02  0 
 -1.042468e-03  -4.204258e-02  0 
 1.064451e-03  -4.204258e-02  0 
 3.160597e-03  -4.204057e-02  0 
 5.283892e-03  -4.204113e-02  0 
 -3.167959e-03  -4.733831e-02  0 
 -1.048021e-03  -4.733671e-02  0 
 1.070005e-03  -4.733671e-02  0 
 3.189943e-03  -4.733831e-02  0 
 5.303014e-03  -4.733806e-02  0 
VECTORS displacement_ITER9 FLOAT
 -5.261908e-03  -4.204113e-02  0 
 -5.281030e-03  -4.733806e-02  0 
 -3.138613e-03  -4.204057e-02  0 
 -1.042467e-03  -4.204258e-02  0 
 1.064452e-03  -4.204258e-02  0 
 3.160597e-03  -4.204057e-02  0 
 5.283892e-03  -4.204113e-02  0 
 -3.167959e-03  -4.733831e-02  0 
 -1.048021e-03  -4.733671e-02  0 
 1.070005e-03  -4.733671e-02  0 
 3.189943e-03  -4.733831e-02  0 
 5.303014e-03  -4.733806e-02  0 
VECTORS displacement_ITER10 FLOAT
 -5.687892e-01  1.598385e+00  0 
 -6.281073e-01  1.338887e+00  0 
 -4.505394e-01  1.600251e+00  0 
 -4.153511e-01  1.649762e+00  0 
 -3.074132e-01  1.646162e+00  0 
 -2.914272e-01  1.568014e+00  0 
 -1.974936e-01  1.563317e+00  0 
 -5.245392e-01  1.342474e+00  0 
 -4.362972e-01  1.404874e+00  0 
 -3.231718e-01  1.407607e+00  0 
 -2.406052e-01  1.347283e+00  0 
 -1.500516e-01  1.346579e+00  0 
VECTORS displacement_ITER11 FLOAT
 -1.230423e+13  1.176871e+14  0 
 -2.824799e+13  1.171657e+14  0 
 -4.563753e+12  1.181585e+14  0 
 -1.466738e+13  1.369419e+14  0 
 2.765346e+13  1.338085e+14  0 
 -1.639517e+12  9.558447e+13  0 
 -8.804612e+12  9.333931e+13  0 
 -3.555649e+13  1.174605e+14  0 
 -8.819769e+12  5.707244e+13  0 
 1.173494e+13  5.959894e+13  0 
 2.172347e+13  1.283336e+14  0 
 3.321201e+11  1.301530e+14  0 
VECTORS displacement_ITER12 FLOAT
 8.481020e+28  1.930114e+29  0 
 9.177504e+28  2.462907e+29  0 
 6.635870e+28  1.896717e+29  0 
 1.815921e+28  2.094274e+29  0 
 1.107990e+27  2.095080e+29  0 
 -3.140589e+28  2.258229e+29  0 
 -3.102203e+28  2.276494e+29  0 
 6.807517e+28  2.491902e+29  0 
 3.024625e+28  2.630113e+29  0 
 3.067967e+27  2.643731e+29  0 
 -1.967597e+28  2.402617e+29  0 
 -3.038902e+28  2.401558e+29  0 
VECTORS displacement_ITER13 FLOAT
 6.602392e+42  1.294738e+44  0 
 1.186263e+43  1.006750e+44  0 
 2.001251e+43  1.348544e+44  0 
 2.967206e+43  1.070306e+44  0 
 1.208380e+43  1.080573e+44  0 
 -1.275899e+42  1.032625e+44  0 
 -2.101387e+43  1.019350e+44  0 
 2.358852e+43  9.851626e+43  0 
 2.344676e+43  1.405962e+44  0 
 1.219224e+43  1.406454e+44  0 
 -5.901974e+42  1.456968e+44  0 
 -2.021805e+43  1.442013e+44  0 
VECTORS displacement_ITER14 FLOAT
 7.112023e+57  -9.175526e+58  0 
 5.772271e+57  -4.895622e+58  0 
 -3.924745e+57  -8.251161e+58  0 
 -7.384720e+56  -8.837260e+58  0 
 -1.556513e+57  -8.227411e+58  0 
 7.860655e+57  -4.185506e+58  0 
 4.484498e+58  -4.491601e+58  0 
 -1.273156e+58  -5.938260e+58  0 
 -3.695267e+58  -8.320235e+58  0 
 -4.103115e+58  -8.924112e+58  0 
 -1.410904e+57  -1.455925e+59  0 
 4.009035e+58  -1.341793e+59  0 
VECTORS displacement_ITER15 FLOAT
 -1.199888e+74  -3.148513e+74  0 
 -1.589961e+74  -4.628629e+74  0 
 -6.488541e+73  -2.942985e+74  0 
 -3.382300e+73  -3.984913e+74  0 
 -3.970776e+73  -3.924171e+74  0 
 3.015961e+72  -3.342390e+74  0 
 3.867084e+73  -3.542615e+74  0 
 -7.698952e+73  -4.741735e+74  0 
 -8.469559e+73  -3.664113e+74  0 
 -8.141494e+73  -3.805292e+74  0 
 1.969610e+73  -4.142065e+74  0 
 3.353440e+73  -3.970880e+74  0 
VECTORS displacement_ITER16 FLOAT
 -1.217274e+90  -3.511962e+89  0 
 -1.436969e+90  -1.005995e+90  0 
 -1.039614e+90  -3.441170e+89  0 
 -8.513296e+89  -5.964042e+89  0 
 -6.771866e+89  -6.434675e+89  0 
 -3.421425e+89  -6.307671e+89  0 
 -2.244478e+89  -7.192522e+89  0 
 -9.896758e+89  -1.027043e+90  0 
 -9.029108e+89  -9.956299e+89  0 
 -7.522615e+89  -9.625026e+89  0 
 -3.015249e+89  -9.059209e+89  0 
 -2.919689e+89  -8.282704e+89  0 
VECTORS displacement_ITER17 FLOAT
 -1.217274e+90  -3.511962e+89  0 
 -1.436969e+90  -1.005995e+90  0 
 -1.039614e+90  -3.441170e+89  0 
 -8.513296e+89  -5.964042e+89  0 
 -6.771866e+89  -6.434675e+89  0 
 -3.421425e+89  -6.307671e+89  0 
 -2.244478e+89  -7.192522e+89  0 
 -9.896758e+89  -1.027043e+90  0 
 -9.029108e+89  -9.956299e+89  0 
 -7.522615e+89  -9.625026e+89  0 
 -3.015249e+89  -9.059209e+89  0 
 -2.919689e+89  -8.282704e+89  0 
VECTORS displacement_ITER18 FLOAT
 -1.217274e+90  -3.511962e+89  0 
 -1.436969e+90  -1.005995e+90  0 
 -1.039614e+90  -3.441170e+89  0 
 -8.513296e+89  -5.964042e+89  0 
 -6.771866e+89  -6.434675e+89  0 
 -3.421425e+89  -6.307671e+89  0 
 -2.244478e+89  -7.192522e+89  0 
 -9.896758e+89  -1.027043e+90  0 
 -9.029108e+89  -9.956299e+89  0 
 -7.522615e+89  -9.625026e+89  0 
 -3.015249e+89  -9.059209e+89  0 
 -2.919689e+89  -8.282704e+89  0 
VECTORS displacement_ITER19 FLOAT
 -1.217274e+90  -3.511962e+89  0 
 -1.436969e+90  -1.005995e+90  0 
 -1.039614e+90  -3.441170e+89  0 
 -8.513296e+89  -5.964042e+89  0 
 -6.771866e+89  -6.434675e+89  0 
 -3.421425e+89  -6.307671e+89  0 
 -2.244478e+89  -7.192522e+89  0 
 -9.896758e+89  -1.027043e+90  0 
 -9.029108e+89  -9.956299e+89  0 
 -7.522615e+89  -9.625026e+89  0 
 -3.015249e+89  -9.059209e+89  0 
 -2.919689e+89  -8.282704e+89  0 
VECTORS displacement_ITER20 FLOAT
 -1.217274e+90  -3.511962e+89  0 
 -1.436969e+90  -1.005995e+90  0 
 -1.039614e+90  -3.441170e+89  0 
 -8.513296e+89  -5.964042e+89  0 
 -6.771866e+89  -6.434675e+89  0 
 -3.421425e+89  -6.307671e+89  0 
 -2.244478e+89  -7.192522e+89  0 
 -9.896758e+89  -1.027043e+90  0 
 -9.029108e+89  -9.956299e+89  0 
 -7.522615e+89  -9.625026e+89  0 
 -3.015249e+89  -9.059209e+89  0 
 -2.919689e+89  -8.282704e+89  0 
VECTORS displacement_ITER21 FLOAT
 -1.217274e+90  -3.511962e+89  0 
 -1.436969e+90  -1.005995e+90  0 
 -1.039614e+90  -3.441170e+89  0 
 -8.513296e+89  -5.964042e+89  0 
 -6.771866e+89  -6.434675e+89  0 
 -3.421425e+89  -6.307671e+89  0 
 -2.244478e+89  -7.192522e+89  0 
 -9.896758e+89  -1.027043e+90  0 
 -9.029108e+89  -9.956299e+89  0 
 -7.522615e+89  -9.625026e+89  0 
 -3.015249e+89  -9.059209e+89  0 
 -2.919689e+89  -8.282704e+89  0 
VECTORS displacement_ITER22 FLOAT
 -1.217274e+90  -3.511962e+89  0 
 -1.436969e+90  -1.005995e+90  0 
 -1.039614e+90  -3.441170e+89  0 
 -8.513296e+89  -5.964042e+89  0 
 -6.771866e+89  -6.434675e+89  0 
 -3.421425e+89  -6.307671e+89  0 
 -2.244478e+89  -7.192522e+89  0 
 -9.896758e+89  -1.027043e+90  0 
 -9.029108e+89  -9.956299e+89  0 
 -7.522615e+89  -9.625026e+89  0 
 -3.015249e+89  -9.059209e+89  0 
 -2.919689e+89  -8.282704e+89  0 
VECTORS displacement_ITER23 FLOAT
 -1.217274e+90  -3.511962e+89  0 
 -1.436969e+90  -1.005995e+90  0 
 -1.039614e+90  -3.441170e+89  0 
 -8.513296e+89  -5.964042e+89  0 
 -6.771866e+89  -6.434675e+89  0 
 -3.421425e+89  -6.307671e+89  0 
 -2.244478e+89  -7.192522e+89  0 
 -9.896758e+89  -1.027043e+90  0 
 -9.029108e+89  -9.956299e+89  0 
 -7.522615e+89  -9.625026e+89  0 
 -3.015249e+89  -9.059209e+89  0 
 -2.919689e+89  -8.282704e+89  0 
VECTORS displacement_ITER24 FLOAT
 -1.217274e+90  -3.511962e+89  0 
 -1.436969e+90  -1.005995e+90  0 
 -1.039614e+90  -3.441170e+89  0 
 -8.513296e+89  -5.964042e+89  0 
 -6.771866e+89  -6.434675e+89  0 
 -3.421425e+89  -6.307671e+89  0 
 -2.244478e+89  -7.192522e+89  0 
 -9.896758e+89  -1.027043e+90  0 
 -9.029108e+89  -9.956299e+89  0 
 -7.522615e+89  -9.625026e+89  0 
 -3.015249e+89  -9.059209e+89  0 
 -2.919689e+89  -8.282704e+89  0 
VECTORS displacement_ITER25 FLOAT
 -1.217274e+90  -3.511962e+89  0 
 -1.436969e+90  -1.005995e+90  0 
 -1.039614e+90  -3.441170e+89  0 
 -8.513296e+89  -5.964042e+89  0 
 -6.771866e+89  -6.434675e+89  0 
 -3.421425e+89  -6.307671e+89  0 
 -2.244478e+89  -7.192522e+89  0 
 -9.896758e+89  -1.027043e+90  0 
 -9.029108e+89  -9.956299e+89  0 
 -7.522615e+89  -9.625026e+89  0 
 -3.015249e+89  -9.059209e+89  0 
 -2.919689e+89  -8.282704e+89  0 
VECTORS displacement_ITER26 FLOAT
 -1.217274e+90  -3.511962e+89  0 
 -1.436969e+90  -1.005995e+90  0 
 -1.039614e+90  -3.441170e+89  0 
 -8.513296e+89  -5.964042e+89  0 
 -6.771866e+89  -6.434675e+89  0 
 -3.421425e+89  -6.307671e+89  0 
 -2.244478e+89  -7.192522e+89  0 
 -9.896758e+89  -1.027043e+90  0 
 -9.029108e+89  -9.956299e+89  0 
 -7.522615e+89  -9.625026e+89  0 
 -3.015249e+89  -9.059209e+89  0 
 -2.919689e+89  -8.282704e+89  0 
VECTORS displacement_ITER27 FLOAT
 -1.217274e+90  -3.511962e+89  0 
 -1.436969e+90  -1.005995e+90  0 
 -1.039614e+90  -3.441170e+89  0 
 -8.513296e+89  -5.964042e+89  0 
 -6.771866e+89  -6.434675e+89  0 
 -3.421425e+89  -6.307671e+89  0 
 -2.244478e+89  -7.192522e+89  0 
 -9.896758e+89  -1.027043e+90  0 
 -9.029108e+89  -9.956299e+89  0 
 -7.522615e+89  -9.625026e+89  0 
 -3.015249e+89  -9.059209e+89  0 
 -2.919689e+89  -8.282704e+89  0 
VECTORS displacement_ITER28 FLOAT
 -1.217274e+90  -3.511962e+89  0 
 -1.436969e+90  -1.005995e+90  0 
 -1.039614e+90  -3.441170e+89  0 
 -8.513296e+89  -5.964042e+89  0 
 -6.771866e+89  -6.434675e+89  0 
 -3.421425e+89  -6.307671e+89  0 
 -2.244478e+89  -7.192522e+89  0 
 -9.896758e+89  -1.027043e+90  0 
 -9.029108e+89  -9.956299e+89  0 
 -7.522615e+89  -9.625026e+89  0 
 -3.015249e+89  -9.059209e+89  0 
 -2.919689e+89  -8.282704e+89  0 
VECTORS displacement_ITER29 FLOAT
 -1.217274e+90  -3.511962e+89  0 
 -1.436969e+90  -1.005995e+90  0 
 -1.039614e+90  -3.441170e+89  0 
 -8.513296e+89  -5.964042e+89  0 
 -6.771866e+89  -6.434675e+89  0 
 -3.421425e+89  -6.307671e+89  0 
 -2.244478e+89  -7.192522e+89  0 
 -9.896758e+89  -1.027043e+90  0 
 -9.029108e+89  -9.956299e+89  0 
 -7.522615e+89  -9.625026e+89  0 
 -3.015249e+89  -9.059209e+89  0 
 -2.919689e+89  -8.282704e+89  0 
VECTORS displacement_ITER30 FLOAT
 -1.217274e+90  -3.511962e+89  0 
 -1.436969e+90  -1.005995e+90  0 
 -1.039614e+90  -3.441170e+89  0 
 -8.513296e+89  -5.964042e+89  0 
 -6.771866e+89  -6.434675e+89  0 
 -3.421425e+89  -6.307671e+89  0 
 -2.244478e+89  -7.192522e+89  0 
 -9.896758e+89  -1.027043e+90  0 
 -9.029108e+89  -9.956299e+89  0 
 -7.522615e+89  -9.625026e+89  0 
 -3.015249e+89  -9.059209e+89  0 
 -2.919689e+89  -8.282704e+89  0 
VECTORS displacement_ITER31 FLOAT
 -1.217274e+90  -3.511962e+89  0 
 -1.436969e+90  -1.005995e+90  0 
 -1.039614e+90  -3.441170e+89  0 
 -8.513296e+89  -5.964042e+89  0 
 -6.771866e+89  -6.434675e+89  0 
 -3.421425e+89  -6.307671e+89  0 
 -2.244478e+89  -7.192522e+89  0 
 -9.896758e+89  -1.027043e+90  0 
 -9.029108e+89  -9.956299e+89  0 
 -7.522615e+89  -9.625026e+89  0 
 -3.015249e+89  -9.059209e+89  0 
 -2.919689e+89  -8.282704e+89  0 
VECTORS displacement_ITER32 FLOAT
 -1.217274e+90  -3.511962e+89  0 
 -1.436969e+90  -1.005995e+90  0 
 -1.039614e+90  -3.441170e+89  0 
 -8.513296e+89  -5.964042e+89  0 
 -6.771866e+89  -6.434675e+89  0 
 -3.421425e+89  -6.307671e+89  0 
 -2.244478e+89  -7.192522e+89  0 
 -9.896758e+89  -1.027043e+90  0 
 -9.029108e+89  -9.956299e+89  0 
 -7.522615e+89  -9.625026e+89  0 
 -3.015249e+89  -9.059209e+89  0 
 -2.919689e+89  -8.282704e+89  0 
VECTORS displacement_ITER33 FLOAT
 -1.217274e+90  -3.511962e+89  0 
 -1.436969e+90  -1.005995e+90  0 
 -1.039614e+90  -3.441170e+89  0 
 -8.513296e+89  -5.964042e+89  0 
 -6.771866e+89  -6.434675e+89  0 
 -3.421425e+89  -6.307671e+89  0 
 -2.244478e+89  -7.192522e+89  0 
 -9.896758e+89  -1.027043e+90  0 
 -9.029108e+89  -9.956299e+89  0 
 -7.522615e+89  -9.625026e+89  0 
 -3.015249e+89  -9.059209e+89  0 
 -2.919689e+89  -8.282704e+89  0 
VECTORS displacement_ITER34 FLOAT
 -1.217274e+90  -3.511962e+89  0 
 -1.436969e+90  -1.005995e+90  0 
 -1.039614e+90  -3.441170e+89  0 
 -8.513296e+89  -5.964042e+89  0 
 -6.771866e+89  -6.434675e+89  0 
 -3.421425e+89  -6.307671e+89  0 
 -2.244478e+89  -7.192522e+89  0 
 -9.896758e+89  -1.027043e+90  0 
 -9.029108e+89  -9.956299e+89  0 
 -7.522615e+89  -9.625026e+89  0 
 -3.015249e+89  -9.059209e+89  0 
 -2.919689e+89  -8.282704e+89  0 
VECTORS displacement_ITER35 FLOAT
 -1.217274e+90  -3.511962e+89  0 
 -1.436969e+90  -1.005995e+90  0 
 -1.039614e+90  -3.441170e+89  0 
 -8.513296e+89  -5.964042e+89  0 
 -6.771866e+89  -6.434675e+89  0 
 -3.421425e+89  -6.307671e+89  0 
 -2.244478e+89  -7.192522e+89  0 
 -9.896758e+89  -1.027043e+90  0 
 -9.029108e+89  -9.956299e+89  0 
 -7.522615e+89  -9.625026e+89  0 
 -3.015249e+89  -9.059209e+89  0 
 -2.919689e+89  -8.282704e+89  0 
VECTORS displacement_ITER36 FLOAT
 -1.217274e+90  -3.511962e+89  0 
 -1.436969e+90  -1.005995e+90  0 
 -1.039614e+90  -3.441170e+89  0 
 -8.513296e+89  -5.964042e+89  0 
 -6.771866e+89  -6.434675e+89  0 
 -3.421425e+89  -6.307671e+89  0 
 -2.244478e+89  -7.192522e+89  0 
 -9.896758e+89  -1.027043e+90  0 
 -9.029108e+89  -9.956299e+89  0 
 -7.522615e+89  -9.625026e+89  0 
 -3.015249e+89  -9.059209e+89  0 
 -2.919689e+89  -8.282704e+89  0 
VECTORS displacement_ITER37 FLOAT
 -1.217274e+90  -3.511962e+89  0 
 -1.436969e+90  -1.005995e+90  0 
 -1.039614e+90  -3.441170e+89  0 
 -8.513296e+89  -5.964042e+89  0 
 -6.771866e+89  -6.434675e+89  0 
 -3.421425e+89  -6.307671e+89  0 
 -2.244478e+89  -7.192522e+89  0 
 -9.896758e+89  -1.027043e+90  0 
 -9.029108e+89  -9.956299e+89  0 
 -7.522615e+89  -9.625026e+89  0 
 -3.015249e+89  -9.059209e+89  0 
 -2.919689e+89  -8.282704e+89  0 
VECTORS displacement_ITER38 FLOAT
 -1.217274e+90  -3.511962e+89  0 
 -1.436969e+90  -1.005995e+90  0 
 -1.039614e+90  -3.441170e+89  0 
 -8.513296e+89  -5.964042e+89  0 
 -6.771866e+89  -6.434675e+89  0 
 -3.421425e+89  -6.307671e+89  0 
 -2.244478e+89  -7.192522e+89  0 
 -9.896758e+89  -1.027043e+90  0 
 -9.029108e+89  -9.956299e+89  0 
 -7.522615e+89  -9.625026e+89  0 
 -3.015249e+89  -9.059209e+89  0 
 -2.919689e+89  -8.282704e+89  0 
VECTORS displacement_ITER39 FLOAT
 -1.217274e+90  -3.511962e+89  0 
 -1.436969e+90  -1.005995e+90  0 
 -1.039614e+90  -3.441170e+89  0 
 -8.513296e+89  -5.964042e+89  0 
 -6.771866e+89  -6.434675e+89  0 
 -3.421425e+89  -6.307671e+89  0 
 -2.244478e+89  -7.192522e+89  0 
 -9.896758e+89  -1.027043e+90  0 
 -9.029108e+89  -9.956299e+89  0 
 -7.522615e+89  -9.625026e+89  0 
 -3.015249e+89  -9.059209e+89  0 
 -2.919689e+89  -8.282704e+89  0 
VECTORS displacement_ITER40 FLOAT
 -1.217274e+90  -3.511962e+89  0 
 -1.436969e+90  -1.005995e+90  0 
 -1.039614e+90  -3.441170e+89  0 
 -8.513296e+89  -5.964042e+89  0 
 -6.771866e+89  -6.434675e+89  0 
 -3.421425e+89  -6.307671e+89  0 
 -2.244478e+89  -7.192522e+89  0 
 -9.896758e+89  -1.027043e+90  0 
 -9.029108e+89  -9.956299e+89  0 
 -7.522615e+89  -9.625026e+89  0 
 -3.015249e+89  -9.059209e+89  0 
 -2.919689e+89  -8.282704e+89  0 
VECTORS displacement_ITER41 FLOAT
 -1.217274e+90  -3.511962e+89  0 
 -1.436969e+90  -1.005995e+90  0 
 -1.039614e+90  -3.441170e+89  0 
 -8.513296e+89  -5.964042e+89  0 
 -6.771866e+89  -6.434675e+89  0 
 -3.421425e+89  -6.307671e+89  0 
 -2.244478e+89  -7.192522e+89  0 
 -9.896758e+89  -1.027043e+90  0 
 -9.029108e+89  -9.956299e+89  0 
 -7.522615e+89  -9.625026e+89  0 
 -3.015249e+89  -9.059209e+89  0 
 -2.919689e+89  -8.282704e+89  0 
VECTORS displacement_ITER42 FLOAT
 -1.217274e+90  -3.511962e+89  0 
 -1.436969e+90  -1.005995e+90  0 
 -1.039614e+90  -3.441170e+89  0 
 -8.513296e+89  -5.964042e+89  0 
 -6.771866e+89  -6.434675e+89  0 
 -3.421425e+89  -6.307671e+89  0 
 -2.244478e+89  -7.192522e+89  0 
 -9.896758e+89  -1.027043e+90  0 
 -9.029108e+89  -9.956299e+89  0 
 -7.522615e+89  -9.625026e+89  0 
 -3.015249e+89  -9.059209e+89  0 
 -2.919689e+89  -8.282704e+89  0 
VECTORS displacement_ITER43 FLOAT
 -1.217274e+90  -3.511962e+89  0 
 -1.436969e+90  -1.005995e+90  0 
 -1.039614e+90  -3.441170e+89  0 
 -8.513296e+89  -5.964042e+89  0 
 -6.771866e+89  -6.434675e+89  0 
 -3.421425e+89  -6.307671e+89  0 
 -2.244478e+89  -7.192522e+89  0 
 -9.896758e+89  -1.027043e+90  0 
 -9.029108e+89  -9.956299e+89  0 
 -7.522615e+89  -9.625026e+89  0 
 -3.015249e+89  -9.059209e+89  0 
 -2.919689e+89  -8.282704e+89  0 
VECTORS displacement_ITER44 FLOAT
 -1.217274e+90  -3.511962e+89  0 
 -1.436969e+90  -1.005995e+90  0 
 -1.039614e+90  -3.441170e+89  0 
 -8.513296e+89  -5.964042e+89  0 
 -6.771866e+89  -6.434675e+89  0 
 -3.421425e+89  -6.307671e+89  0 
 -2.244478e+89  -7.192522e+89  0 
 -9.896758e+89  -1.027043e+90  0 
 -9.029108e+89  -9.956299e+89  0 
 -7.522615e+89  -9.625026e+89  0 
 -3.015249e+89  -9.059209e+89  0 
 -2.919689e+89  -8.282704e+89  0 
VECTORS displacement_ITER45 FLOAT
 -1.217274e+90  -3.511962e+89  0 
 -1.436969e+90  -1.005995e+90  0 
 -1.039614e+90  -3.441170e+89  0 
 -8.513296e+89  -5.964042e+89  0 
 -6.771866e+89  -6.434675e+89  0 
 -3.421425e+89  -6.307671e+89  0 
 -2.244478e+89  -7.192522e+89  0 
 -9.896758e+89  -1.027043e+90  0 
 -9.029108e+89  -9.956299e+89  0 
 -7.522615e+89  -9.625026e+89  0 
 -3.015249e+89  -9.059209e+89  0 
 -2.919689e+89  -8.282704e+89  0 
VECTORS displacement_ITER46 FLOAT
 -1.217274e+90  -3.511962e+89  0 
 -1.436969e+90  -1.005995e+90  0 
 -1.039614e+90  -3.441170e+89  0 
 -8.513296e+89  -5.964042e+89  0 
 -6.771866e+89  -6.434675e+89  0 
 -3.421425e+89  -6.307671e+89  0 
 -2.244478e+89  -7.192522e+89  0 
 -9.896758e+89  -1.027043e+90  0 
 -9.029108e+89  -9.956299e+89  0 
 -7.522615e+89  -9.625026e+89  0 
 -3.015249e+89  -9.059209e+89  0 
 -2.919689e+89  -8.282704e+89  0 
VECTORS displacement_ITER47 FLOAT
 -1.217274e+90  -3.511962e+89  0 
 -1.436969e+90  -1.005995e+90  0 
 -1.039614e+90  -3.441170e+89  0 
 -8.513296e+89  -5.964042e+89  0 
 -6.771866e+89  -6.434675e+89  0 
 -3.421425e+89  -6.307671e+89  0 
 -2.244478e+89  -7.192522e+89  0 
 -9.896758e+89  -1.027043e+90  0 
 -9.029108e+89  -9.956299e+89  0 
 -7.522615e+89  -9.625026e+89  0 
 -3.015249e+89  -9.059209e+89  0 
 -2.919689e+89  -8.282704e+89  0 
VECTORS displacement_ITER48 FLOAT
 -1.217274e+90  -3.511962e+89  0 
 -1.436969e+90  -1.005995e+90  0 
 -1.039614e+90  -3.441170e+89  0 
 -8.513296e+89  -5.964042e+89  0 
 -6.771866e+89  -6.434675e+89  0 
 -3.421425e+89  -6.307671e+89  0 
 -2.244478e+89  -7.192522e+89  0 
 -9.896758e+89  -1.027043e+90  0 
 -9.029108e+89  -9.956299e+89  0 
 -7.522615e+89  -9.625026e+89  0 
 -3.015249e+89  -9.059209e+89  0 
 -2.919689e+89  -8.282704e+89  0 
VECTORS displacement_ITER49 FLOAT
 -1.217274e+90  -3.511962e+89  0 
 -1.436969e+90  -1.005995e+90  0 
 -1.039614e+90  -3.441170e+89  0 
 -8.513296e+89  -5.964042e+89  0 
 -6.771866e+89  -6.434675e+89  0 
 -3.421425e+89  -6.307671e+89  0 
 -2.244478e+89  -7.192522e+89  0 
 -9.896758e+89  -1.027043e+90  0 
 -9.029108e+89  -9.956299e+89  0 
 -7.522615e+89  -9.625026e+89  0 
 -3.015249e+89  -9.059209e+89  0 
 -2.919689e+89  -8.282704e+89  0 
VECTORS displacement_ITER50 FLOAT
 -1.217274e+90  -3.511962e+89  0 
 -1.436969e+90  -1.005995e+90  0 
 -1.039614e+90  -3.441170e+89  0 
 -8.513296e+89  -5.964042e+89  0 
 -6.771866e+89  -6.434675e+89  0 
 -3.421425e+89  -6.307671e+89  0 
 -2.244478e+89  -7.192522e+89  0 
 -9.896758e+89  -1.027043e+90  0 
 -9.029108e+89  -9.956299e+89  0 
 -7.522615e+89  -9.625026e+89  0 
 -3.015249e+89  -9.059209e+89  0 
 -2.919689e+89  -8.282704e+89  0 
VECTORS displacement_ITER51 FLOAT
 -1.217274e+90  -3.511962e+89  0 
 -1.436969e+90  -1.005995e+90  0 
 -1.039614e+90  -3.441170e+89  0 
 -8.513296e+89  -5.964042e+89  0 
 -6.771866e+89  -6.434675e+89  0 
 -3.421425e+89  -6.307671e+89  0 
 -2.244478e+89  -7.192522e+89  0 
 -9.896758e+89  -1.027043e+90  0 
 -9.029108e+89  -9.956299e+89  0 
 -7.522615e+89  -9.625026e+89  0 
 -3.015249e+89  -9.059209e+89  0 
 -2.919689e+89  -8.282704e+89  0 
VECTORS displacement_ITER52 FLOAT
 -1.217274e+90  -3.511962e+89  0 
 -1.436969e+90  -1.005995e+90  0 
 -1.039614e+90  -3.441170e+89  0 
 -8.513296e+89  -5.964042e+89  0 
 -6.771866e+89  -6.434675e+89  0 
 -3.421425e+89  -6.307671e+89  0 
 -2.244478e+89  -7.192522e+89  0 
 -9.896758e+89  -1.027043e+90  0 
 -9.029108e+89  -9.956299e+89  0 
 -7.522615e+89  -9.625026e+89  0 
 -3.015249e+89  -9.059209e+89  0 
 -2.919689e+89  -8.282704e+89  0 
VECTORS displacement_ITER53 FLOAT
 -1.217274e+90  -3.511962e+89  0 
 -1.436969e+90  -1.005995e+90  0 
 -1.039614e+90  -3.441170e+89  0 
 -8.513296e+89  -5.964042e+89  0 
 -6.771866e+89  -6.434675e+89  0 
 -3.421425e+89  -6.307671e+89  0 
 -2.244478e+89  -7.192522e+89  0 
 -9.896758e+89  -1.027043e+90  0 
 -9.029108e+89  -9.956299e+89  0 
 -7.522615e+89  -9.625026e+89  0 
 -3.015249e+89  -9.059209e+89  0 
 -2.919689e+89  -8.282704e+89  0 
VECTORS displacement_ITER54 FLOAT
 -1.217274e+90  -3.511962e+89  0 
 -1.436969e+90  -1.005995e+90  0 
 -1.039614e+90  -3.441170e+89  0 
 -8.513296e+89  -5.964042e+89  0 
 -6.771866e+89  -6.434675e+89  0 
 -3.421425e+89  -6.307671e+89  0 
 -2.244478e+89  -7.192522e+89  0 
 -9.896758e+89  -1.027043e+90  0 
 -9.029108e+89  -9.956299e+89  0 
 -7.522615e+89  -9.625026e+89  0 
 -3.015249e+89  -9.059209e+89  0 
 -2.919689e+89  -8.282704e+89  0 
VECTORS displacement_ITER55 FLOAT
 -1.217274e+90  -3.511962e+89  0 
 -1.436969e+90  -1.005995e+90  0 
 -1.039614e+90  -3.441170e+89  0 
 -8.513296e+89  -5.964042e+89  0 
 -6.771866e+89  -6.434675e+89  0 
 -3.421425e+89  -6.307671e+89  0 
 -2.244478e+89  -7.192522e+89  0 
 -9.896758e+89  -1.027043e+90  0 
 -9.029108e+89  -9.956299e+89  0 
 -7.522615e+89  -9.625026e+89  0 
 -3.015249e+89  -9.059209e+89  0 
 -2.919689e+89  -8.282704e+89  0 
VECTORS displacement_ITER56 FLOAT
 -1.217274e+90  -3.511962e+89  0 
 -1.436969e+90  -1.005995e+90  0 
 -1.039614e+90  -3.441170e+89  0 
 -8.513296e+89  -5.964042e+89  0 
 -6.771866e+89  -6.434675e+89  0 
 -3.421425e+89  -6.307671e+89  0 
 -2.244478e+89  -7.192522e+89  0 
 -9.896758e+89  -1.027043e+90  0 
 -9.029108e+89  -9.956299e+89  0 
 -7.522615e+89  -9.625026e+89  0 
 -3.015249e+89  -9.059209e+89  0 
 -2.919689e+89  -8.282704e+89  0 
VECTORS displacement_ITER57 FLOAT
 -1.217274e+90  -3.511962e+89  0 
 -1.436969e+90  -1.005995e+90  0 
 -1.039614e+90  -3.441170e+89  0 
 -8.513296e+89  -5.964042e+89  0 
 -6.771866e+89  -6.434675e+89  0 
 -3.421425e+89  -6.307671e+89  0 
 -2.244478e+89  -7.192522e+89  0 
 -9.896758e+89  -1.027043e+90  0 
 -9.029108e+89  -9.956299e+89  0 
 -7.522615e+89  -9.625026e+89  0 
 -3.015249e+89  -9.059209e+89  0 
 -2.919689e+89  -8.282704e+89  0 
VECTORS displacement_ITER58 FLOAT
 -1.217274e+90  -3.511962e+89  0 
 -1.436969e+90  -1.005995e+90  0 
 -1.039614e+90  -3.441170e+89  0 
 -8.513296e+89  -5.964042e+89  0 
 -6.771866e+89  -6.434675e+89  0 
 -3.421425e+89  -6.307671e+89  0 
 -2.244478e+89  -7.192522e+89  0 
 -9.896758e+89  -1.027043e+90  0 
 -9.029108e+89  -9.956299e+89  0 
 -7.522615e+89  -9.625026e+89  0 
 -3.015249e+89  -9.059209e+89  0 
 -2.919689e+89  -8.282704e+89  0 
VECTORS displacement_ITER59 FLOAT
 -1.217274e+90  -3.511962e+89  0 
 -1.436969e+90  -1.005995e+90  0 
 -1.039614e+90  -3.441170e+89  0 
 -8.513296e+89  -5.964042e+89  0 
 -6.771866e+89  -6.434675e+89  0 
 -3.421425e+89  -6.307671e+89  0 
 -2.244478e+89  -7.192522e+89  0 
 -9.896758e+89  -1.027043e+90  0 
 -9.029108e+89  -9.956299e+89  0 
 -7.522615e+89  -9.625026e+89  0 
 -3.015249e+89  -9.059209e+89  0 
 -2.919689e+89  -8.282704e+89  0 
VECTORS displacement_ITER60 FLOAT
 -1.217274e+90  -3.511962e+89  0 
 -1.436969e+90  -1.005995e+90  0 
 -1.039614e+90  -3.441170e+89  0 
 -8.513296e+89  -5.964042e+89  0 
 -6.771866e+89  -6.434675e+89  0 
 -3.421425e+89  -6.307671e+89  0 
 -2.244478e+89  -7.192522e+89  0 
 -9.896758e+89  -1.027043e+90  0 
 -9.029108e+89  -9.956299e+89  0 
 -7.522615e+89  -9.625026e+89  0 
 -3.015249e+89  -9.059209e+89  0 
 -2.919689e+89  -8.282704e+89  0 
VECTORS displacement_ITER61 FLOAT
 -1.217274e+90  -3.511962e+89  0 
 -1.436969e+90  -1.005995e+90  0 
 -1.039614e+90  -3.441170e+89  0 
 -8.513296e+89  -5.964042e+89  0 
 -6.771866e+89  -6.434675e+89  0 
 -3.421425e+89  -6.307671e+89  0 
 -2.244478e+89  -7.192522e+89  0 
 -9.896758e+89  -1.027043e+90  0 
 -9.029108e+89  -9.956299e+89  0 
 -7.522615e+89  -9.625026e+89  0 
 -3.015249e+89  -9.059209e+89  0 
 -2.919689e+89  -8.282704e+89  0 
VECTORS displacement_ITER62 FLOAT
 -1.217274e+90  -3.511962e+89  0 
 -1.436969e+90  -1.005995e+90  0 
 -1.039614e+90  -3.441170e+89  0 
 -8.513296e+89  -5.964042e+89  0 
 -6.771866e+89  -6.434675e+89  0 
 -3.421425e+89  -6.307671e+89  0 
 -2.244478e+89  -7.192522e+89  0 
 -9.896758e+89  -1.027043e+90  0 
 -9.029108e+89  -9.956299e+89  0 
 -7.522615e+89  -9.625026e+89  0 
 -3.015249e+89  -9.059209e+89  0 
 -2.919689e+89  -8.282704e+89  0 
VECTORS displacement_ITER63 FLOAT
 -1.217274e+90  -3.511962e+89  0 
 -1.436969e+90  -1.005995e+90  0 
 -1.039614e+90  -3.441170e+89  0 
 -8.513296e+89  -5.964042e+89  0 
 -6.771866e+89  -6.434675e+89  0 
 -3.421425e+89  -6.307671e+89  0 
 -2.244478e+89  -7.192522e+89  0 
 -9.896758e+89  -1.027043e+90  0 
 -9.029108e+89  -9.956299e+89  0 
 -7.522615e+89  -9.625026e+89  0 
 -3.015249e+89  -9.059209e+89  0 
 -2.919689e+89  -8.282704e+89  0 
VECTORS displacement_ITER64 FLOAT
 -1.217274e+90  -3.511962e+89  0 
 -1.436969e+90  -1.005995e+90  0 
 -1.039614e+90  -3.441170e+89  0 
 -8.513296e+89  -5.964042e+89  0 
 -6.771866e+89  -6.434675e+89  0 
 -3.421425e+89  -6.307671e+89  0 
 -2.244478e+89  -7.192522e+89  0 
 -9.896758e+89  -1.027043e+90  0 
 -9.029108e+89  -9.956299e+89  0 
 -7.522615e+89  -9.625026e+89  0 
 -3.015249e+89  -9.059209e+89  0 
 -2.919689e+89  -8.282704e+89  0 
VECTORS displacement_ITER65 FLOAT
 -1.217274e+90  -3.511962e+89  0 
 -1.436969e+90  -1.005995e+90  0 
 -1.039614e+90  -3.441170e+89  0 
 -8.513296e+89  -5.964042e+89  0 
 -6.771866e+89  -6.434675e+89  0 
 -3.421425e+89  -6.307671e+89  0 
 -2.244478e+89  -7.192522e+89  0 
 -9.896758e+89  -1.027043e+90  0 
 -9.029108e+89  -9.956299e+89  0 
 -7.522615e+89  -9.625026e+89  0 
 -3.015249e+89  -9.059209e+89  0 
 -2.919689e+89  -8.282704e+89  0 
VECTORS displacement_ITER66 FLOAT
 -1.217274e+90  -3.511962e+89  0 
 -1.436969e+90  -1.005995e+90  0 
 -1.039614e+90  -3.441170e+89  0 
 -8.513296e+89  -5.964042e+89  0 
 -6.771866e+89  -6.434675e+89  0 
 -3.421425e+89  -6.307671e+89  0 
 -2.244478e+89  -7.192522e+89  0 
 -9.896758e+89  -1.027043e+90  0 
 -9.029108e+89  -9.956299e+89  0 
 -7.522615e+89  -9.625026e+89  0 
 -3.015249e+89  -9.059209e+89  0 
 -2.919689e+89  -8.282704e+89  0 
VECTORS displacement_ITER67 FLOAT
 -1.217274e+90  -3.511962e+89  0 
 -1.436969e+90  -1.005995e+90  0 
 -1.039614e+90  -3.441170e+89  0 
 -8.513296e+89  -5.964042e+89  0 
 -6.771866e+89  -6.434675e+89  0 
 -3.421425e+89  -6.307671e+89  0 
 -2.244478e+89  -7.192522e+89  0 
 -9.896758e+89  -1.027043e+90  0 
 -9.029108e+89  -9.956299e+89  0 
 -7.522615e+89  -9.625026e+89  0 
 -3.015249e+89  -9.059209e+89  0 