# vtk DataFile Version 3.1
this is an vtk file created by FEMAC
ASCII
DATASET UNSTRUCTURED_GRID
POINTS 313 FLOAT
1.650000 4.000000 0.000000
1.600000 4.000000 0.000000
1.550000 4.000000 0.000000
1.500000 4.000000 0.000000
1.450000 4.000000 0.000000
1.400000 4.000000 0.000000
1.350000 4.000000 0.000000
1.300000 4.000000 0.000000
1.250000 4.000000 0.000000
1.200000 4.000000 0.000000
1.150000 4.000000 0.000000
1.100000 4.000000 0.000000
1.050000 4.000000 0.000000
1.000000 4.000000 0.000000
0.950000 4.000000 0.000000
1.150000 3.000000 0.000000
1.200000 3.000000 0.000000
1.250000 3.000000 0.000000
1.300000 3.000000 0.000000
1.350000 3.000000 0.000000
1.400000 3.000000 0.000000
1.450000 3.000000 0.000000
1.500000 3.000000 0.000000
1.550000 3.000000 0.000000
1.600000 3.000000 0.000000
1.076329 3.502452 0.000000
1.500000 3.569375 0.000000
1.320359 3.306294 0.000000
1.249490 3.713766 0.000000
1.026144 3.758931 0.000000
1.532942 3.782215 0.000000
1.301526 3.515763 0.000000
1.500308 3.194294 0.000000
1.495233 3.392065 0.000000
1.205180 3.179204 0.000000
1.378274 3.836052 0.000000
1.159340 3.349935 0.000000
1.166898 3.839614 0.000000
1.358250 3.154867 0.000000
1.640744 3.152408 0.000000
1.125047 3.647473 0.000000
1.405415 3.686619 0.000000
0.995349 3.875378 0.000000
1.384079 3.421366 0.000000
1.190334 3.553474 0.000000
1.269727 3.883990 0.000000
1.480636 3.885584 0.000000
1.562813 3.300336 0.000000
1.261511 3.410501 0.000000
1.431325 3.292695 0.000000
1.390963 3.578838 0.000000
1.446679 3.109091 0.000000
1.587176 3.522116 0.000000
1.295605 3.619675 0.000000
1.507486 3.680992 0.000000
1.537131 3.093587 0.000000
1.158197 3.270709 0.000000
1.586059 3.906146 0.000000
1.264317 3.098783 0.000000
1.159066 3.740123 0.000000
1.456093 3.470877 0.000000
1.098277 3.920047 0.000000
1.238426 3.268466 0.000000
1.156066 3.448365 0.000000
1.026248 3.662290 0.000000
1.443990 3.769293 0.000000
1.341624 3.750878 0.000000
1.213061 3.648234 0.000000
1.238262 3.802136 0.000000
1.055652 3.586806 0.000000
1.582227 3.211176 0.000000
0.914566 3.919998 0.000000
1.367397 3.237427 0.000000
1.539962 3.454749 0.000000
1.349455 3.913745 0.000000
1.287262 3.208090 0.000000
1.193791 3.917309 0.000000
1.072749 3.823222 0.000000
0.949861 3.803859 0.000000
1.375000 3.076027 0.000000
1.379280 3.501250 0.000000
1.227393 3.480645 0.000000
1.425468 3.188572 0.000000
1.086061 3.720347 0.000000
1.598269 3.825753 0.000000
1.450373 3.625803 0.000000
1.236885 3.342643 0.000000
1.421290 3.929382 0.000000
0.970194 3.708709 0.000000
1.383837 3.347881 0.000000
1.560875 3.386091 0.000000
1.571732 3.725477 0.000000
1.334270 3.679785 0.000000
1.306271 3.822968 0.000000
1.245324 3.564386 0.000000
1.497601 3.273219 0.000000
1.119351 3.551323 0.000000
1.525164 3.936823 0.000000
1.033907 3.948086 0.000000
1.114008 3.410768 0.000000
1.325258 3.380488 0.000000
1.641051 3.254458 0.000000
1.533914 3.848591 0.000000
1.316827 3.456861 0.000000
1.618119 3.328376 0.000000
1.501584 3.062628 0.000000
1.444793 3.845083 0.000000
1.506547 3.142413 0.000000
1.443087 3.544545 0.000000
1.431936 3.427903 0.000000
1.225937 3.049433 0.000000
1.206506 3.413760 0.000000
1.321304 3.063100 0.000000
1.141990 3.941186 0.000000
1.019341 3.827586 0.000000
1.189127 3.317892 0.000000
1.005256 3.579235 0.000000
1.326840 3.571480 0.000000
1.164810 3.601777 0.000000
1.275000 3.944569 0.000000
1.585682 3.159496 0.000000
1.301378 3.261369 0.000000
1.374414 3.635611 0.000000
1.516577 3.330975 0.000000
0.959958 3.943532 0.000000
1.530804 3.523358 0.000000
1.492349 3.735404 0.000000
1.217019 3.864007 0.000000
1.523129 3.623644 0.000000
1.129072 3.792137 0.000000
1.627363 3.949167 0.000000
1.170114 3.682810 0.000000
1.304429 3.774531 0.000000
1.423420 3.047299 0.000000
1.445368 3.353589 0.000000
1.445022 3.231507 0.000000
0.932124 3.860257 0.000000
1.218951 3.129149 0.000000
1.187941 3.230545 0.000000
1.212072 3.753992 0.000000
1.376600 3.297564 0.000000
1.580860 3.050453 0.000000
1.396541 3.741602 0.000000
1.305031 3.154947 0.000000
1.492483 3.817086 0.000000
1.472755 3.953112 0.000000
1.259177 3.662741 0.000000
1.034530 3.530246 0.000000
1.397780 3.121512 0.000000
1.457747 3.696990 0.000000
1.635208 3.890518 0.000000
1.590089 3.470938 0.000000
1.125011 3.502594 0.000000
1.043864 3.859826 0.000000
1.408163 3.877532 0.000000
1.487220 3.434492 0.000000
1.185379 3.791620 0.000000
0.948347 3.745541 0.000000
1.535338 3.245627 0.000000
1.137194 3.887505 0.000000
1.068983 3.633069 0.000000
1.073365 3.766547 0.000000
1.134234 3.314305 0.000000
1.073566 3.956624 0.000000
1.653317 3.204406 0.000000
1.335374 3.865354 0.000000
1.266962 3.296893 0.000000
1.252641 3.163237 0.000000
1.336947 3.111539 0.000000
1.583475 3.773053 0.000000
1.226037 3.955839 0.000000
1.337316 3.197091 0.000000
1.379413 3.954132 0.000000
0.980914 3.665110 0.000000
1.405156 3.463344 0.000000
1.233755 3.223013 0.000000
1.566314 3.952504 0.000000
1.544840 3.185767 0.000000
1.181086 3.044650 0.000000
1.480321 3.517003 0.000000
1.529349 3.411439 0.000000
1.401323 3.792087 0.000000
1.325347 3.954683 0.000000
1.180797 3.498419 0.000000
1.216373 3.688262 0.000000
1.108862 3.590114 0.000000
1.207719 3.601539 0.000000
1.277684 3.040957 0.000000
1.039882 3.717107 0.000000
1.304493 3.724571 0.000000
1.607748 3.292433 0.000000
1.109590 3.356088 0.000000
1.453868 3.152657 0.000000
1.345728 3.801230 0.000000
1.287287 3.358703 0.000000
1.601203 3.112865 0.000000
1.121967 3.700018 0.000000
1.270381 3.457070 0.000000
1.182364 3.962867 0.000000
1.379963 3.191754 0.000000
1.256465 3.520014 0.000000
1.028202 3.618870 0.000000
1.412304 3.256177 0.000000
1.258796 3.836822 0.000000
1.249963 3.614171 0.000000
1.472169 3.312460 0.000000
1.117780 3.841793 0.000000
1.410972 3.377903 0.000000
1.534007 3.895000 0.000000
1.307661 3.905893 0.000000
1.158320 3.395020 0.000000
1.359603 3.459264 0.000000
1.367394 3.708690 0.000000
1.237133 3.913447 0.000000
1.356713 3.534295 0.000000
1.591839 3.254542 0.000000
1.338380 3.269674 0.000000
1.446466 3.590708 0.000000
1.610392 3.381008 0.000000
1.573650 3.421815 0.000000
1.078032 3.680051 0.000000
1.337781 3.616452 0.000000
1.542739 3.563611 0.000000
0.955891 3.901775 0.000000
1.114849 3.745599 0.000000
1.468469 3.036902 0.000000
1.615854 3.187967 0.000000
1.201389 3.456007 0.000000
0.994340 3.786990 0.000000
1.079395 3.542879 0.000000
1.476196 3.649846 0.000000
1.427988 3.506478 0.000000
1.368420 3.034916 0.000000
1.534777 3.038857 0.000000
1.178726 3.877109 0.000000
0.978675 3.833276 0.000000
1.198687 3.366593 0.000000
1.416626 3.617375 0.000000
1.506389 3.481448 0.000000
1.281809 3.552019 0.000000
1.540325 3.742436 0.000000
1.342790 3.493487 0.000000
1.629447 3.845353 0.000000
1.342784 3.345436 0.000000
1.582278 3.861101 0.000000
1.169946 3.641907 0.000000
1.559044 3.816347 0.000000
1.485525 3.105827 0.000000
1.363362 3.381684 0.000000
1.548851 3.140817 0.000000
1.217485 3.520277 0.000000
1.341451 3.417762 0.000000
1.425000 3.969019 0.000000
1.483216 3.779672 0.000000
1.301596 3.655333 0.000000
1.446639 3.898334 0.000000
1.572920 3.339943 0.000000
1.437007 3.729337 0.000000
1.656242 3.341405 0.000000
1.461457 3.200429 0.000000
1.226243 3.300962 0.000000
1.387052 3.910353 0.000000
1.233436 3.443597 0.000000
1.399606 3.533081 0.000000
1.431264 3.654561 0.000000
1.621869 3.795374 0.000000
1.041157 3.793625 0.000000
1.196714 3.718111 0.000000
1.152393 3.533763 0.000000
1.239251 3.378974 0.000000
1.086460 3.873141 0.000000
0.999007 3.922959 0.000000
1.526046 3.368697 0.000000
1.414960 3.086864 0.000000
1.556895 3.491765 0.000000
1.003250 3.697865 0.000000
1.482479 3.611182 0.000000
1.298283 3.859637 0.000000
1.000036 3.962528 0.000000
1.263975 3.762049 0.000000
1.452226 3.386674 0.000000
1.371060 3.877899 0.000000
1.417473 3.327728 0.000000
1.047204 3.908009 0.000000
1.499490 3.853571 0.000000
0.989611 3.623488 0.000000
1.264922 3.248784 0.000000
1.326347 3.234730 0.000000
1.206905 3.821722 0.000000
0.995248 3.737591 0.000000
1.274346 3.799701 0.000000
1.370373 3.677676 0.000000
1.483665 3.355770 0.000000
1.403066 3.161872 0.000000
1.616858 3.222510 0.000000
1.543321 3.701549 0.000000
1.405882 3.219415 0.000000
1.525000 3.973358 0.000000
1.522898 3.296376 0.000000
1.147150 3.566090 0.000000
1.492833 3.919953 0.000000
1.648252 3.299318 0.000000
1.110314 3.965159 0.000000
1.201500 3.269721 0.000000
1.456773 3.074768 0.000000
1.459216 3.269088 0.000000
1.484601 3.236851 0.000000
1.299579 3.406906 0.000000
1.285451 3.689561 0.000000
1.206511 3.092911 0.000000
1.325000 3.025499 0.000000
1.456473 3.802954 0.000000
1.279618 3.585520 0.000000
CELLS 556 2224 
3 31 197 103
3 86 236 115
3 66 142 181
3 31 214 117
3 79 148 168
3 44  94 186
3 38 168 148
3 36 115 236
3 97 208 176
3 66 181 193
3 31 200 197
3 76 113 159
3 69 116 147
3 176 208  57
3 44 250  94
3 50 108 217
3 55 105 233
3 58 112 168
3 31 241 214
3 93 132 193
3 16  17 110
3 66 193 132
3 86 115 260
3 92 221 122
3 55 141 195
3 32 192 107
3 35 165 193
3 93 193 165
3 99 191 210
3 210 191  36
3 92 254 221
3 35 181 106
3 50 217 237
3 12 278  98
3 12  98 163
3 51 192 148
3 148 192 293
3 58 168 143
3 272 256  90
3 32 107 177
3 79 112 232
3 55 247 105
3 25 152 229
3 96 229 152
3 26 222 128
3 77 153 114
3 63  99 210
3 150 244 242
3 55 233 141
3 57 244 150
3 0   1 130
3 123 256 272
3 35 106 154
3 295 240 126
3 138 175 303
3 61 113 302
3 114 235 228
3 184  28 267
3 7   8 119
3 54 295 126
3 30 246 144
3 102 144 246
3 76 127 213
3 52 222 125
3 266 228  29
3 58 167 137
3 38 171 143
3 75 143 171
3 231  60 179
3 108 231 179
3 55 107 247
3 20  21 133
3 60 109 155
3 46 255 106
3 50 263 108
3 267  28 139
3 58 143 167
3 50 221 117
3 78 228 235
3 46 106 284
3 31 103 241
3 303 175  62
3 41 122 264
3 47 256 123
3 77 161 129
3 61 302 163
3 58 309 110
3 56 115 162
3 83 161 188
3 29 188 161
3 114 228 266
3 40 185 118
3 59 156 129
3 76 159 234
3 90 218 219
3 50 122 221
3 76 234 127
3 42 114 153
3 112 310 232
3 55 249 107
3 47 298 158
3 279  28 189
3 39 120 195
3 22 233 105
3 57 150 130
3 22 105 225
3 286 166  62
3 58 110 187
3 121 166 286
3 26 108 179
3 109 280 155
3 122 237 264
3 17 187 110
3 58 187 112
3 33 155 280
3 60 174 109
3 132 279 189
3 54 126 149
3 61 159 113
3 59 196 131
3 32 259 192
3 282 207  89
3 59 139 156
3 27 243 194
3 44 186 118
3 118 186 245
3 186  67 245
3 47 158 215
3 81 197 200
3 20 133 232
3 79 168 112
3 69 229 185
3 14 124 278
3 58 137 309
3 36 162 115
3 104 258 218
3 96 185 229
3 45 213 127
3 43 109 174
3 59 224 196
3 57 130 176
3 27 166 121
3 16 110 178
3 285  64 173
3 56 303 115
3 201  64 285
3 134 207 282
3 68 156 139
3 42 136 235
3 91 169 240
3 37 129 156
3 106 181 311
3 66 189 212
3 65 257 126
3 48 194 307
3 42 223 136
3 37 206 129
3 77 129 206
3 100 194 243
3 47 123 298
3 54 230 128
3 42 283 271
3 8 170 119
3 41 291 122
3 26 217 108
3 26 179 125
3 101 215 294
3 42 153 283
3 89 243 140
3 63 210 111
3 3   4 145
3 27 140 243
3 70 177 120
3 79 232 133
3 1 176 130
3 92 212 189
3 7 119 182
3 13  14 278
3 44 118 299
3 23  24 141
3 43 207 109
3 48 269 194
3 12  13 278
3 48 262 111
3 10 113 198
3 101 190 215
3 106 144 284
3 63 111 227
3 87 255 145
3 66 132 189
3 269  48 111
3 92 122 291
3 106 255 154
3 76 198 113
3 6 182 172
3 69 201 116
3 145 255 300
3 10 302 113
3 42 235 114
3 53 312 117
3 56 138 303
3 126 257 149
3 77 114 266
3 82 293 192
3 249  55 195
3 120 249 195
3 90 219 180
3 40 196 220
3 31 117 239
3 34 137 167
3 45 119 213
3 63 183 152
3 30 240 169
3 125 238 274
3 50 117 214
3 53 117 221
3 40 220 160
3 40 118 245
3 73 274 238
3 67 184 131
3 75 287 121
3 45 209 119
3 45 127 203
3 93 290 132
3 75 167 143
3 38 143 168
3 27 194 166
3 3 145 297
3 39 226 120
3 70 120 226
3 67 146 184
3 28 184 146
3 118 185 299
3 30 253 126
3 34 175 138
3 51 247 192
3 107 192 247
3 129 161 224
3 75 175 167
3 34 167 175
3 65 311 181
3 18 310 187
3 46 284 208
3 107 249 177
3 95 158 298
3 127 288 203
3 36 191 162
3 53 221 254
3 74 172 182
3 27 121 216
3 68 203 288
3 78 235 136
3 75 121 286
3 50 237 122
3 97 297 145
3 32 177 158
3 70 158 177
3 128 230 276
3 40 131 196
3 79 133 273
3 71 223 124
3 65 181 142
3 103 197 307
3 52 125 274
3 26 125 222
3 37 288 127
3 65 126 253
3 33 180 155
3 73 155 180
3 72 202 140
3 49 140 202
3 104 301 258
3 30 126 240
3 11  12 163
3 37 127 234
3 112 187 310
3 17  18 187
3 83 196 224
3 41 257 142
3 71 136 223
3 26 128 276
3 5   6 172
3 40 245 131
3 36 236 210
3 111 210 236
3 59 129 224
3 74 209 165
3 1   2 176
3 77 270 153
3 46 208 300
3 82 135 296
3 21 225 133
3 67 131 245
3 59 131 267
3 82 259 135
3 41 149 257
3 61 270 159
3 8   9 170
3 94 250 200
3 85 237 217
3 66 212 142
3 48 307 197
3 30 144 253
3 51 273 304
3 6   7 182
3 69 185 160
3 40 160 185
3 133 304 273
3 89 140 282
3 35 193 181
3 165 209 277
3 49 282 140
3 95 298 205
3 100 307 194
3 47 190 256
3 104 256 190
3 68 139 279
3 152 183 268
3 15  16 178
3 87 145 252
3 4 252 145
3 67 204 146
3 68 288 156
3 61 163 283
3 98 283 163
3 94 204 186
3 110 309 178
3 104 190 301
3 27 216 140
3 72 140 216
3 123 205 298
3 49 205 282
3 134 282 205
3 41 142 212
3 159 270 206
3 68 279 290
3 53 146 204
3 60 231 174
3 125 179 238
3 28 279 139
3 96 299 185
3 69 147 229
3 49 202 305
3 135 305 202
3 70 294 215
3 9 198 170
3 69 160 201
3 75 171 287
3 59 267 139
3 23 141 233
3 86 166 194
3 22  23 233
3 102 208 284
3 76 170 198
3 84 242 244
3 65 142 257
3 134 280 207
3 88 289 157
3 9  10 198
3 73 219 151
3 132 290 279
3 37 156 288
3 51 148 273
3 84 265 242
3 46 300 255
3 25 229 147
3 83 224 161
3 41 264 149
3 72 171 199
3 52 274 151
3 28 146 308
3 106 311 144
3 119 170 213
3 54 149 230
3 64 220 188
3 83 188 220
3 97 145 300
3 64 201 160
3 32 158 306
3 95 306 158
3 117 312 239
3 80 174 231
3 10  11 302
3 21  22 225
3 60 155 238
3 102 284 144
3 80 214 241
3 98 271 283
3 37 159 206
3 38 148 293
3 70 215 158
3 74 182 209
3 119 209 182
3 53 254 146
3 37 234 159
3 79 273 148
3 83 220 196
3 38 199 171
3 92 189 308
3 43 174 211
3 80 211 174
3 67 186 204
3 62 175 286
3 78 157 228
3 64 160 220
3 73 151 274
3 62 166 260
3 86 260 166
3 39 164 226
3 35 154 281
3 87 252 172
3 5 172 252
3 73 238 155
3 30 169 246
3 84 246 169
3 96 152 268
3 87 154 255
3 44 268 183
3 87 261 154
3 57 208 244
3 102 244 208
3 76 213 170
3 77 266 161
3 94 312 204
3 45 277 209
3 29 289 188
3 43 211 251
3 103 251 211
3 31 239 200
3 94 200 239
3 2 297 176
3 97 176 297
3 60 238 179
3 73 180 219
3 63 227 183
3 81 183 227
3 97 300 208
3 120 177 249
3 86 194 269
3 85 276 230
3 75 286 175
3 103 211 241
3 92 308 254
3 153 270 283
3 61 283 270
3 74 165 281
3 85 264 237
3 87 172 261
3 74 261 172
3 19  20 232
3 35 281 165
3 188 289 275
3 157 289 228
3 135 202 296
3 47 215 190
3 29 161 266
3 90 256 218
3 104 218 256
3 131 184 267
3 33 272 180
3 90 180 272
3 11 163 302
3 101 294 164
3 93 165 277
3 111 236 269
3 19 232 310
3 84 169 265
3 82 192 259
3 64 275 173
3 88 173 275
3 4   5 252
3 72 287 171
3 80 263 214
3 81 250 183
3 44 183 250
3 80 231 263
3 95 205 305
3 2   3 297
3 72 199 296
3 109 207 280
3 18  19 310
3 81 262 197
3 149 264 230
3 77 206 270
3 38 293 199
3 84 244 246
3 102 246 244
3 89 207 248
3 43 248 207
3 91 240 295
3 64 188 275
3 100 248 251
3 103 307 251
3 111 262 227
3 116 201 285
3 72 296 202
3 80 241 211
3 26 276 217
3 135 259 306
3 32 306 259
3 81 200 250
3 28 308 189
3 101 301 190
3 43 251 248
3 81 227 262
3 48 197 262
3 49 305 205
3 93 277 203
3 45 203 277
3 98 278 271
3 124 271 278
3 53 204 312
3 42 271 223
3 124 223 271
3 133 225 304
3 72 216 287
3 100 243 248
3 134 292 280
3 33 280 292
3 50 214 263
3 68 290 203
3 93 203 290
3 88 275 289
3 82 199 293
3 134 205 292
3 123 292 205
3 82 296 199
3 74 281 261
3 89 248 243
3 33 292 272
3 123 272 292
3 108 263 231
3 92 291 212
3 85 230 264
3 85 217 276
3 62 260 303
3 115 303 260
3 41 212 291
3 121 287 216
3 70 226 294
3 164 294 226
3 86 269 236
3 29 228 289
3 44 299 268
3 105 304 225
3 51 304 247
3 105 247 304
3 135 306 305
3 95 305 306
3 154 261 281
3 144 311 253
3 94 239 312
3 100 251 307
3 146 254 308
3 65 253 311
3 96 268 299
CELL_TYPES 556
5 5 5 5 5 5 5 5 5 5 5 5 5 5 5 5 5 5 5 5 5 5 5 5 5 5 5 5 5 5 5 5 5 5 5 5 5 5 5 5 5 5 5 5 5 5 5 5 5 5 5 5 5 5 5 5 5 5 5 5 5 5 5 5 5 5 5 5 5 5 5 5 5 5 5 5 5 5 5 5 5 5 5 5 5 5 5 5 5 5 5 5 5 5 5 5 5 5 5 5 5 5 5 5 5 5 5 5 5 5 5 5 5 5 5 5 5 5 5 5 5 5 5 5 5 5 5 5 5 5 5 5 5 5 5 5 5 5 5 5 5 5 5 5 5 5 5 5 5 5 5 5 5 5 5 5 5 5 5 5 5 5 5 5 5 5 5 5 5 5 5 5 5 5 5 5 5 5 5 5 5 5 5 5 5 5 5 5 5 5 5 5 5 5 5 5 5 5 5 5 5 5 5 5 5 5 5 5 5 5 5 5 5 5 5 5 5 5 5 5 5 5 5 5 5 5 5 5 5 5 5 5 5 5 5 5 5 5 5 5 5 5 5 5 5 5 5 5 5 5 5 5 5 5 5 5 5 5 5 5 5 5 5 5 5 5 5 5 5 5 5 5 5 5 5 5 5 5 5 5 5 5 5 5 5 5 5 5 5 5 5 5 5 5 5 5 5 5 5 5 5 5 5 5 5 5 5 5 5 5 5 5 5 5 5 5 5 5 5 5 5 5 5 5 5 5 5 5 5 5 5 5 5 5 5 5 5 5 5 5 5 5 5 5 5 5 5 5 5 5 5 5 5 5 5 5 5 5 5 5 5 5 5 5 5 5 5 5 5 5 5 5 5 5 5 5 5 5 5 5 5 5 5 5 5 5 5 5 5 5 5 5 5 5 5 5 5 5 5 5 5 5 5 5 5 5 5 5 5 5 5 5 5 5 5 5 5 5 5 5 5 5 5 5 5 5 5 5 5 5 5 5 5 5 5 5 5 5 5 5 5 5 5 5 5 5 5 5 5 5 5 5 5 5 5 5 5 5 5 5 5 5 5 5 5 5 5 5 5 5 5 5 5 5 5 5 5 5 5 5 5 5 5 5 5 5 5 5 5 5 5 5 5 5 5 5 5 5 5 5 5 5 5 5 5 5 5 5 5 5 5 5 5 5 5 5 5 5 5 5 5 5 5 5 5 5 5 5 5 5 5 5 5 5 5 5 5 5 5 5 5 5 5 5 5 5 5 5 5 5 5 5 5 5 5 5 
POINT_DATA 313
VECTORS displacement_ITER1 FLOAT
 2.140317e-01  1.339329e-01  0 
 2.144630e-01  1.386651e-01  0 
 2.148168e-01  1.435989e-01  0 
 2.151340e-01  1.486002e-01  0 
 2.154177e-01  1.536476e-01  0 
 2.156878e-01  1.587287e-01  0 
 2.159449e-01  1.638355e-01  0 
 2.161933e-01  1.689720e-01  0 
 2.164301e-01  1.741344e-01  0 
 2.166619e-01  1.793239e-01  0 
 2.168864e-01  1.845402e-01  0 
 2.171067e-01  1.897875e-01  0 
 2.173277e-01  1.950670e-01  0 
 2.175402e-01  2.003974e-01  0 
 2.177324e-01  2.057561e-01  0 
 1.124231e-01  1.852455e-01  0 
 1.127557e-01  1.796768e-01  0 
 1.130805e-01  1.742782e-01  0 
 1.133809e-01  1.689918e-01  0 
 1.136576e-01  1.637727e-01  0 
 1.139173e-01  1.585987e-01  0 
 1.141705e-01  1.534550e-01  0 
 1.144385e-01  1.483323e-01  0 
 1.147473e-01  1.432541e-01  0 
 1.151420e-01  1.383135e-01  0 
 1.651381e-01  1.921788e-01  0 
 1.720486e-01  1.483987e-01  0 
 1.452308e-01  1.667744e-01  0 
 1.869224e-01  1.741016e-01  0 
 1.919544e-01  1.975188e-01  0 
 1.931996e-01  1.452071e-01  0 
 1.666154e-01  1.687018e-01  0 
 1.341788e-01  1.483050e-01  0 
 1.542047e-01  1.488502e-01  0 
 1.319186e-01  1.787734e-01  0 
 1.991069e-01  1.608769e-01  0 
 1.495156e-01  1.834325e-01  0 
 2.001001e-01  1.827225e-01  0 
 1.297557e-01  1.628785e-01  0 
 1.303797e-01  1.340808e-01  0 
 1.802276e-01  1.870698e-01  0 
 1.839073e-01  1.580564e-01  0 
 2.042650e-01  2.008225e-01  0 
 1.570481e-01  1.602119e-01  0 
 1.704722e-01  1.802240e-01  0 
 2.043751e-01  1.720481e-01  0 
 2.037424e-01  1.505079e-01  0 
 1.450597e-01  1.419674e-01  0 
 1.558317e-01  1.728382e-01  0 
 1.440299e-01  1.553671e-01  0 
 1.730226e-01  1.595068e-01  0 
 1.253312e-01  1.537743e-01  0 
 1.673097e-01  1.395942e-01  0 
 1.772270e-01  1.693159e-01  0 
 1.831387e-01  1.477173e-01  0 
 1.240825e-01  1.445530e-01  0 
 1.413096e-01  1.835721e-01  0 
 2.053832e-01  1.399849e-01  0 
 1.236563e-01  1.726885e-01  0 
 1.897901e-01  1.835258e-01  0 
 1.621235e-01  1.528464e-01  0 
 2.087038e-01  1.899379e-01  0 
 1.412114e-01  1.752571e-01  0 
 1.596682e-01  1.837576e-01  0 
 1.818663e-01  1.974744e-01  0 
 1.921586e-01  1.541711e-01  0 
 1.905468e-01  1.646025e-01  0 
 1.802252e-01  1.778753e-01  0 
 1.960374e-01  1.752844e-01  0 
 1.739668e-01  1.943565e-01  0 
 1.361090e-01  1.399882e-01  0 
 2.093198e-01  2.096336e-01  0 
 1.382651e-01  1.619327e-01  0 
 1.605671e-01  1.443189e-01  0 
 2.071247e-01  1.638529e-01  0 
 1.350851e-01  1.702270e-01  0 
 2.080892e-01  1.799364e-01  0 
 1.986057e-01  1.926098e-01  0 
 1.967668e-01  2.056144e-01  0 
 1.216604e-01  1.611520e-01  0 
 1.651588e-01  1.607035e-01  0 
 1.629984e-01  1.763706e-01  0 
 1.333963e-01  1.559559e-01  0 
 1.878448e-01  1.911867e-01  0 
 1.973372e-01  1.387055e-01  0 
 1.777239e-01  1.534557e-01  0 
 1.488442e-01  1.753907e-01  0 
 2.084089e-01  1.565280e-01  0 
 1.867799e-01  2.034128e-01  0 
 1.495721e-01  1.602386e-01  0 
 1.536991e-01  1.421761e-01  0 
 1.873808e-01  1.412470e-01  0 
 1.833196e-01  1.653412e-01  0 
 1.979933e-01  1.682594e-01  0 
 1.715881e-01  1.745140e-01  0 
 1.421814e-01  1.485933e-01  0 
 1.702559e-01  1.876421e-01  0 
 2.086757e-01  1.460497e-01  0 
 2.118805e-01  1.967564e-01  0 
 1.557907e-01  1.881319e-01  0 
 1.528234e-01  1.662615e-01  0 
 1.406165e-01  1.340452e-01  0 
 1.998431e-01  1.451472e-01  0 
 1.606098e-01  1.671267e-01  0 
 1.480005e-01  1.363711e-01  0 
 1.208122e-01  1.481599e-01  0 
 1.997987e-01  1.541148e-01  0 
 1.289266e-01  1.476628e-01  0 
 1.695510e-01  1.541813e-01  0 
 1.577575e-01  1.553104e-01  0 
 1.182661e-01  1.768232e-01  0 
 1.561289e-01  1.785301e-01  0 
 1.201015e-01  1.667290e-01  0 
 2.107655e-01  1.853575e-01  0 
 1.991628e-01  1.982605e-01  0 
 1.462355e-01  1.803459e-01  0 
 1.731939e-01  1.996833e-01  0 
 1.722964e-01  1.660922e-01  0 
 1.754663e-01  1.828960e-01  0 
 2.105945e-01  1.715249e-01  0 
 1.309078e-01  1.396375e-01  0 
 1.405938e-01  1.687444e-01  0 
 1.787858e-01  1.612112e-01  0 
 1.480654e-01  1.466686e-01  0 
 2.116594e-01  2.046508e-01  0 
 1.674333e-01  1.452691e-01  0 
 1.886234e-01  1.492676e-01  0 
 2.024854e-01  1.775048e-01  0 
 1.774532e-01  1.460966e-01  0 
 1.952479e-01  1.866764e-01  0 
 2.094352e-01  1.359843e-01  0 
 1.838394e-01  1.823594e-01  0 
 1.930446e-01  1.684349e-01  0 
 1.189015e-01  1.561657e-01  0 
 1.502407e-01  1.539339e-01  0 
 1.378260e-01  1.539581e-01  0 
 2.027363e-01  2.075962e-01  0 
 1.267273e-01  1.774415e-01  0 
 1.372077e-01  1.805057e-01  0 
 1.911301e-01  1.779956e-01  0 
 1.444303e-01  1.609830e-01  0 
 1.199006e-01  1.401440e-01  0 
 1.894796e-01  1.589845e-01  0 
 1.296289e-01  1.684004e-01  0 
 1.968230e-01  1.492917e-01  0 
 2.105642e-01  1.513210e-01  0 
 1.816693e-01  1.730889e-01  0 
 1.680505e-01  1.965913e-01  0 
 1.264384e-01  1.587957e-01  0 
 1.848523e-01  1.527430e-01  0 
 2.036506e-01  1.351130e-01  0 
 1.622165e-01  1.392833e-01  0 
 1.652010e-01  1.870179e-01  0 
 2.025130e-01  1.956698e-01  0 
 2.032096e-01  1.578449e-01  0 
 1.584787e-01  1.496697e-01  0 
 1.950758e-01  1.807849e-01  0 
 1.906614e-01  2.057397e-01  0 
 1.394716e-01  1.447478e-01  0 
 2.051732e-01  1.858418e-01  0 
 1.787798e-01  1.929596e-01  0 
 1.926799e-01  1.925346e-01  0 
 1.457976e-01  1.860550e-01  0 
 2.126415e-01  1.925555e-01  0 
 1.356226e-01  1.328169e-01  0 
 2.022343e-01  1.652794e-01  0 
 1.441841e-01  1.722912e-01  0 
 1.303677e-01  1.738618e-01  0 
 1.252086e-01  1.650907e-01  0 
 1.921264e-01  1.401370e-01  0 
 2.119630e-01  1.765987e-01  0 
 1.340577e-01  1.650413e-01  0 
 2.111150e-01  1.608045e-01  0 
 1.822083e-01  2.022642e-01  0 
 1.613269e-01  1.580513e-01  0 
 1.365133e-01  1.757676e-01  0 
 2.100341e-01  1.419497e-01  0 
 1.334379e-01  1.437758e-01  0 
 1.175759e-01  1.817283e-01  0 
 1.667835e-01  1.503871e-01  0 
 1.562035e-01  1.453825e-01  0 
 1.945800e-01  1.585127e-01  0 
 2.114173e-01  1.663434e-01  0 
 1.648043e-01  1.812099e-01  0 
 1.843455e-01  1.775381e-01  0 
 1.742878e-01  1.887529e-01  0 
 1.754188e-01  1.784229e-01  0 
 1.175868e-01  1.713187e-01  0 
 1.875679e-01  1.960534e-01  0 
 1.879356e-01  1.684149e-01  0 
 1.443607e-01  1.374161e-01  0 
 1.501141e-01  1.886112e-01  0 
 1.298078e-01  1.530382e-01  0 
 1.956602e-01  1.641994e-01  0 
 1.505519e-01  1.701782e-01  0 
 1.262590e-01  1.380711e-01  0 
 1.856836e-01  1.874071e-01  0 
 1.606041e-01  1.719202e-01  0 
 2.128725e-01  1.811455e-01  0 
 1.336071e-01  1.606373e-01  0 
 1.670403e-01  1.733599e-01  0 
 1.773310e-01  1.972589e-01  0 
 1.402720e-01  1.573144e-01  0 
 1.995544e-01  1.731640e-01  0 
 1.766946e-01  1.740383e-01  0 
 1.461112e-01  1.511912e-01  0 
 2.004511e-01  1.878720e-01  0 
 1.526623e-01  1.574549e-01  0 
 2.044772e-01  1.451501e-01  0 
 2.064862e-01  1.681420e-01  0 
 1.541768e-01  1.835272e-01  0 
 1.608822e-01  1.627243e-01  0 
 1.862064e-01  1.619486e-01  0 
 2.075313e-01  1.754323e-01  0 
 1.685101e-01  1.630189e-01  0 
 1.405065e-01  1.390213e-01  0 
 1.415118e-01  1.649221e-01  0 
 1.742004e-01  1.538449e-01  0 
 1.532799e-01  1.371473e-01  0 
 1.573035e-01  1.408908e-01  0 
 1.836603e-01  1.920199e-01  0 
 1.768689e-01  1.649700e-01  0 
 1.714769e-01  1.440604e-01  0 
 2.071777e-01  2.050736e-01  0 
 1.904297e-01  1.881655e-01  0 
 1.180426e-01  1.515459e-01  0 
 1.338682e-01  1.365880e-01  0 
 1.604625e-01  1.790652e-01  0 
 1.949363e-01  2.008963e-01  0 
 1.693761e-01  1.918458e-01  0 
 1.801020e-01  1.508445e-01  0 
 1.657054e-01  1.557183e-01  0 
 1.173725e-01  1.618455e-01  0 
 1.185557e-01  1.447855e-01  0 
 2.039610e-01  1.815003e-01  0 
 1.998205e-01  2.025878e-01  0 
 1.512710e-01  1.793432e-01  0 
 1.769028e-01  1.568916e-01  0 
 1.632204e-01  1.477308e-01  0 
 1.703177e-01  1.707380e-01  0 
 1.891866e-01  1.444320e-01  0 
 1.643555e-01  1.644518e-01  0 
 1.991845e-01  1.356159e-01  0 
 1.492656e-01  1.644589e-01  0 
 2.009238e-01  1.403261e-01  0 
 1.796110e-01  1.823704e-01  0 
 1.965326e-01  1.426137e-01  0 
 1.251376e-01  1.497998e-01  0 
 1.529887e-01  1.623403e-01  0 
 1.289011e-01  1.433677e-01  0 
 1.670610e-01  1.774000e-01  0 
 1.566418e-01  1.645922e-01  0 
 2.124090e-01  1.561691e-01  0 
 1.930932e-01  1.502118e-01  0 
 1.808657e-01  1.687023e-01  0 
 2.051618e-01  1.539462e-01  0 
 1.490728e-01  1.409473e-01  0 
 1.881506e-01  1.548633e-01  0 
 1.493881e-01  1.325233e-01  0 
 1.346988e-01  1.522726e-01  0 
 1.445399e-01  1.765049e-01  0 
 2.066245e-01  1.600082e-01  0 
 1.592045e-01  1.757432e-01  0 
 1.683904e-01  1.586228e-01  0 
 1.806370e-01  1.554092e-01  0 
 1.942146e-01  1.363193e-01  0 
 1.955625e-01  1.959411e-01  0 
 1.874520e-01  1.795903e-01  0 
 1.684354e-01  1.841726e-01  0 
 1.525797e-01  1.751413e-01  0 
 2.038115e-01  1.911715e-01  0 
 2.093249e-01  2.004578e-01  0 
 1.518903e-01  1.457109e-01  0 
 1.229358e-01  1.570315e-01  0 
 1.642774e-01  1.426270e-01  0 
 1.856056e-01  1.999148e-01  0 
 1.762375e-01  1.501956e-01  0 
 2.017755e-01  1.690938e-01  0 
 2.135409e-01  2.003712e-01  0 
 1.918548e-01  1.726102e-01  0 
 1.536044e-01  1.532348e-01  0 
 2.033859e-01  1.616299e-01  0 
 1.475709e-01  1.567876e-01  0 
 2.075929e-01  1.953255e-01  0 
 2.004608e-01  1.486014e-01  0 
 1.778461e-01  2.013378e-01  0 
 1.392318e-01  1.725225e-01  0 
 1.379054e-01  1.661711e-01  0 
 1.981395e-01  1.785484e-01  0 
 1.897665e-01  2.007764e-01  0 
 1.956970e-01  1.715465e-01  0 
 1.830550e-01  1.616389e-01  0 
 1.505189e-01  1.500238e-01  0 
 1.305998e-01  1.582567e-01  0 
 1.373423e-01  1.364889e-01  0 
 1.850676e-01  1.440842e-01  0 
 1.365025e-01  1.579712e-01  0 
 2.123210e-01  1.460767e-01  0 
 1.445782e-01  1.460220e-01  0 
 1.717814e-01  1.847330e-01  0 
 2.071399e-01  1.492873e-01  0 
 1.451435e-01  1.333263e-01  0 
 2.133996e-01  1.886887e-01  0 
 1.412770e-01  1.790818e-01  0 
 1.218606e-01  1.527378e-01  0 
 1.416824e-01  1.525104e-01  0 
 1.384613e-01  1.499135e-01  0 
 1.554963e-01  1.689068e-01  0 
 1.843850e-01  1.703748e-01  0 
 1.228587e-01  1.788592e-01  0 
 1.161857e-01  1.663631e-01  0 
 1.955147e-01  1.529217e-01  0 
 1.737438e-01  1.709654e-01  0 
VECTORS displacement_ITER2 FLOAT
 1.994152e-01  1.229708e-01  0 
 1.997845e-01  1.275566e-01  0 
 2.000900e-01  1.322539e-01  0 
 2.003641e-01  1.369893e-01  0 
 2.006133e-01  1.417510e-01  0 
 2.008514e-01  1.465347e-01  0 
 2.010791e-01  1.513354e-01  0 
 2.012997e-01  1.561569e-01  0 
 2.015110e-01  1.609967e-01  0 
 2.017177e-01  1.658557e-01  0 
 2.019180e-01  1.707333e-01  0 
 2.021147e-01  1.756314e-01  0 
 2.023143e-01  1.805502e-01  0 
 2.025179e-01  1.855163e-01  0 
 2.027165e-01  1.905220e-01  0 
 1.044988e-01  1.710091e-01  0 
 1.047558e-01  1.660265e-01  0 
 1.050101e-01  1.610989e-01  0 
 1.052628e-01  1.562222e-01  0 
 1.055136e-01  1.513837e-01  0 
 1.057653e-01  1.465781e-01  0 
 1.060216e-01  1.418005e-01  0 
 1.062999e-01  1.370483e-01  0 
 1.066209e-01  1.323530e-01  0 
 1.070195e-01  1.278189e-01  0 
 1.534785e-01  1.779219e-01  0 
 1.598552e-01  1.369342e-01  0 
 1.348251e-01  1.541478e-01  0 
 1.738545e-01  1.609657e-01  0 
 1.786366e-01  1.828691e-01  0 
 1.796644e-01  1.338008e-01  0 
 1.548179e-01  1.559251e-01  0 
 1.246013e-01  1.369903e-01  0 
 1.432064e-01  1.374246e-01  0 
 1.223676e-01  1.653411e-01  0 
 1.852556e-01  1.485577e-01  0 
 1.387956e-01  1.697560e-01  0 
 1.862215e-01  1.690352e-01  0 
 1.204359e-01  1.505371e-01  0 
 1.211422e-01  1.238294e-01  0 
 1.676176e-01  1.731116e-01  0 
 1.709740e-01  1.459250e-01  0 
 1.901506e-01  1.859232e-01  0 
 1.458616e-01  1.480048e-01  0 
 1.584586e-01  1.667125e-01  0 
 1.902128e-01  1.590420e-01  0 
 1.896059e-01  1.387905e-01  0 
 1.347184e-01  1.310722e-01  0 
 1.447302e-01  1.598087e-01  0 
 1.337314e-01  1.435203e-01  0 
 1.607867e-01  1.473092e-01  0 
 1.163717e-01  1.420875e-01  0 
 1.554253e-01  1.287357e-01  0 
 1.647539e-01  1.564879e-01  0 
 1.702170e-01  1.362117e-01  0 
 1.152474e-01  1.335373e-01  0 
 1.311128e-01  1.698755e-01  0 
 1.911319e-01  1.288289e-01  0 
 1.147302e-01  1.596439e-01  0 
 1.765696e-01  1.697874e-01  0 
 1.505926e-01  1.411214e-01  0 
 1.942738e-01  1.757749e-01  0 
 1.310500e-01  1.620782e-01  0 
 1.483381e-01  1.700511e-01  0 
 1.691769e-01  1.828537e-01  0 
 1.787093e-01  1.422557e-01  0 
 1.772243e-01  1.520603e-01  0 
 1.675901e-01  1.645026e-01  0 
 1.824014e-01  1.620732e-01  0 
 1.617591e-01  1.799484e-01  0 
 1.264226e-01  1.292727e-01  0 
 1.948320e-01  1.940340e-01  0 
 1.283472e-01  1.496434e-01  0 
 1.491297e-01  1.331789e-01  0 
 1.927926e-01  1.513529e-01  0 
 1.253520e-01  1.573707e-01  0 
 1.936953e-01  1.664297e-01  0 
 1.848466e-01  1.782740e-01  0 
 1.831653e-01  1.904180e-01  0 
 1.129392e-01  1.489453e-01  0 
 1.534387e-01  1.484473e-01  0 
 1.514483e-01  1.631113e-01  0 
 1.238459e-01  1.440964e-01  0 
 1.747685e-01  1.769556e-01  0 
 1.835412e-01  1.276438e-01  0 
 1.651664e-01  1.416302e-01  0 
 1.381862e-01  1.622047e-01  0 
 1.940045e-01  1.444650e-01  0 
 1.737980e-01  1.884008e-01  0 