# vtk DataFile Version 3.1
this is an vtk file created by FEMAC
ASCII
DATASET UNSTRUCTURED_GRID
POINTS 313 FLOAT
2.100000 4.000000 0.000000
2.050000 4.000000 0.000000
2.000000 4.000000 0.000000
1.950000 4.000000 0.000000
1.900000 4.000000 0.000000
1.850000 4.000000 0.000000
1.800000 4.000000 0.000000
1.750000 4.000000 0.000000
1.700000 4.000000 0.000000
1.650000 4.000000 0.000000
1.600000 3.000000 0.000000
1.650000 3.000000 0.000000
1.700000 3.000000 0.000000
1.750000 3.000000 0.000000
1.800000 3.000000 0.000000
1.850000 3.000000 0.000000
1.900000 3.000000 0.000000
1.950000 3.000000 0.000000
2.000000 3.000000 0.000000
2.050000 3.000000 0.000000
2.100000 3.000000 0.000000
2.150000 3.000000 0.000000
1.930260 3.492785 0.000000
2.189013 3.671968 0.000000
1.687003 3.308910 0.000000
1.738235 3.723989 0.000000
1.960584 3.254618 0.000000
1.977647 3.765775 0.000000
1.698474 3.515763 0.000000
2.117785 3.500000 0.000000
1.797488 3.183866 0.000000
2.116873 3.174318 0.000000
1.841079 3.367863 0.000000
2.118581 3.842214 0.000000
1.839162 3.842311 0.000000
1.640744 3.152408 0.000000
1.877700 3.645532 0.000000
1.671899 3.850065 0.000000
2.024132 3.616584 0.000000
2.020718 3.388204 0.000000
1.610155 3.661012 0.000000
1.916137 3.128870 0.000000
1.611233 3.426665 0.000000
2.002815 3.874151 0.000000
2.092981 3.719083 0.000000
1.803627 3.549324 0.000000
2.085019 3.278033 0.000000
1.733002 3.408564 0.000000
2.025144 3.110591 0.000000
1.587176 3.522116 0.000000
1.735878 3.612821 0.000000
1.507486 3.680992 0.000000
2.140066 3.401478 0.000000
1.775376 3.290256 0.000000
1.732173 3.102141 0.000000
1.845496 3.736121 0.000000
1.756878 3.899286 0.000000
2.198795 3.774520 0.000000
1.631547 3.758530 0.000000
2.016628 3.519295 0.000000
1.914979 3.403498 0.000000
1.912868 3.906987 0.000000
1.855791 3.251986 0.000000
2.113541 3.619494 0.000000
1.853174 3.459703 0.000000
1.826229 3.084817 0.000000
1.755543 3.808015 0.000000
1.700785 3.224466 0.000000
2.034904 3.196238 0.000000
1.943719 3.586537 0.000000
2.112638 3.081986 0.000000
1.959564 3.676168 0.000000
2.084718 3.920255 0.000000
1.652633 3.586159 0.000000
1.901180 3.317676 0.000000
1.911330 3.821241 0.000000
2.045814 3.806649 0.000000
1.835514 3.921399 0.000000
1.801248 3.659147 0.000000
1.634320 3.075027 0.000000
1.769278 3.481134 0.000000
2.005196 3.313343 0.000000
1.674351 3.924315 0.000000
1.985656 3.452134 0.000000
1.570617 3.596514 0.000000
2.062036 3.451845 0.000000
1.684228 3.669745 0.000000
1.962068 3.072055 0.000000
1.909906 3.731687 0.000000
2.079557 3.567040 0.000000
1.571732 3.725477 0.000000
2.031815 3.684071 0.000000
1.676433 3.449503 0.000000
1.968815 3.176967 0.000000
1.866807 3.176892 0.000000
1.663083 3.380807 0.000000
1.765795 3.340445 0.000000
1.872062 3.580498 0.000000
1.699465 3.766159 0.000000
2.141204 3.924907 0.000000
1.967110 3.948537 0.000000
1.892182 3.066424 0.000000
1.641051 3.254458 0.000000
2.126594 3.776062 0.000000
1.727419 3.166148 0.000000
2.075583 3.351744 0.000000
1.964122 3.351468 0.000000
1.748129 3.552739 0.000000
1.791917 3.412723 0.000000
2.136619 3.692658 0.000000
1.781682 3.047971 0.000000
2.085313 3.224228 0.000000
2.145335 3.465035 0.000000
1.985718 3.823880 0.000000
1.830208 3.291594 0.000000
1.865106 3.510942 0.000000
2.055183 3.062812 0.000000
1.821748 3.601504 0.000000
1.689848 3.061252 0.000000
2.163347 3.058352 0.000000
2.039956 3.943562 0.000000
2.028451 3.757446 0.000000
1.913121 3.214542 0.000000
1.523129 3.623644 0.000000
1.814448 3.804944 0.000000
1.869139 3.788691 0.000000
2.081579 3.664459 0.000000
1.627363 3.949167 0.000000
2.035584 3.258635 0.000000
2.062861 3.862056 0.000000
1.758573 3.222713 0.000000
2.087990 3.132636 0.000000
1.643542 3.503147 0.000000
1.783275 3.123584 0.000000
1.722200 3.948262 0.000000
2.181618 3.728246 0.000000
1.580860 3.050453 0.000000
1.963208 3.534998 0.000000
1.900159 3.448193 0.000000
1.967781 3.124472 0.000000
1.870922 3.409201 0.000000
1.723144 3.858998 0.000000
1.641216 3.701238 0.000000
1.789897 3.855360 0.000000
1.721641 3.273313 0.000000
1.786996 3.946801 0.000000
1.877324 3.949472 0.000000
1.810277 3.239143 0.000000
1.635208 3.890518 0.000000
1.590089 3.470938 0.000000
1.678025 3.113480 0.000000
1.712600 3.358840 0.000000
1.946519 3.860393 0.000000
2.155309 3.878219 0.000000
1.795039 3.713786 0.000000
1.848712 3.685085 0.000000
1.558238 3.663448 0.000000
1.702662 3.571884 0.000000
1.751647 3.666732 0.000000
2.007290 3.044832 0.000000
2.005776 3.570927 0.000000
1.653317 3.204406 0.000000
1.927539 3.637352 0.000000
1.910997 3.260299 0.000000
2.143315 3.126863 0.000000
1.770088 3.759435 0.000000
1.884779 3.862651 0.000000
1.659939 3.800898 0.000000
1.951676 3.304155 0.000000
2.071433 3.396074 0.000000
1.828667 3.149129 0.000000
1.583475 3.773053 0.000000
1.971644 3.398317 0.000000
2.080993 3.760040 0.000000
1.691438 3.716164 0.000000
2.068052 3.498869 0.000000
1.976527 3.624578 0.000000
1.817650 3.502862 0.000000
1.824525 3.034010 0.000000
1.907051 3.689084 0.000000
2.071585 3.612265 0.000000
1.905494 3.544765 0.000000
1.719010 3.465237 0.000000
1.687959 3.619710 0.000000
1.921875 3.771033 0.000000
2.000226 3.713038 0.000000
1.884352 3.362589 0.000000
1.926401 3.951908 0.000000
2.106454 3.438609 0.000000
1.870412 3.116573 0.000000
1.736669 3.050580 0.000000
2.009418 3.156641 0.000000
2.125000 3.039763 0.000000
1.776354 3.589419 0.000000
1.613998 3.614289 0.000000
1.601203 3.112865 0.000000
1.633532 3.544292 0.000000
2.077530 3.963807 0.000000
1.712177 3.899547 0.000000
2.220628 3.713858 0.000000
1.707680 3.809891 0.000000
1.691521 3.170888 0.000000
2.072223 3.174524 0.000000
1.933895 3.043504 0.000000
1.993514 3.218615 0.000000
1.944197 3.446448 0.000000
2.021387 3.474808 0.000000
1.649701 3.641575 0.000000
1.871321 3.289769 0.000000
1.801705 3.895397 0.000000
2.022230 3.430278 0.000000
2.112535 3.885530 0.000000
1.732483 3.314353 0.000000
1.610392 3.381008 0.000000
1.573650 3.421815 0.000000
1.826728 3.963654 0.000000
1.542739 3.563611 0.000000
1.972307 3.489786 0.000000
2.040500 3.902913 0.000000
2.118827 3.961350 0.000000
1.601297 3.568060 0.000000
1.918075 3.174819 0.000000
2.131786 3.732846 0.000000
1.776805 3.519266 0.000000
1.835503 3.202346 0.000000
2.036417 3.350915 0.000000
1.625097 3.033366 0.000000
1.870815 3.902123 0.000000
2.001216 3.660436 0.000000
2.091089 3.812340 0.000000
2.152706 3.810100 0.000000
1.804573 3.452030 0.000000
1.808262 3.331221 0.000000
2.020435 3.836512 0.000000
2.008569 3.792359 0.000000
1.638809 3.457636 0.000000
1.741531 3.507544 0.000000
1.923801 3.360341 0.000000
1.761849 3.438092 0.000000
1.841668 3.640725 0.000000
1.994148 3.270958 0.000000
1.878586 3.719243 0.000000
2.055228 3.311941 0.000000
2.168934 3.961370 0.000000
1.674845 3.965358 0.000000
1.777375 3.625925 0.000000
1.970651 3.032078 0.000000
1.629447 3.845353 0.000000
1.679347 3.270327 0.000000
1.924858 3.090381 0.000000
1.692735 3.413387 0.000000
2.047234 3.580416 0.000000
1.648781 3.418168 0.000000
1.896912 3.610360 0.000000
1.861589 3.037153 0.000000
1.609834 3.725457 0.000000
1.946045 3.724464 0.000000
2.154305 3.092642 0.000000
2.150127 3.596105 0.000000
1.856067 3.326785 0.000000
1.765510 3.386858 0.000000
1.639011 3.113865 0.000000
2.042065 3.647563 0.000000
1.656242 3.341405 0.000000
1.836979 3.879874 0.000000
2.112695 3.583317 0.000000
1.884075 3.750750 0.000000
1.713389 3.135462 0.000000
1.679364 3.886622 0.000000
1.621869 3.795374 0.000000
1.862018 3.615724 0.000000
1.717266 3.687987 0.000000
1.668731 3.544669 0.000000
1.847615 3.548316 0.000000
1.833572 3.417669 0.000000
2.149847 3.645694 0.000000
2.000241 3.923024 0.000000
1.575228 3.631781 0.000000
2.104751 3.536940 0.000000
1.800205 3.373917 0.000000
1.736092 3.775212 0.000000
2.000290 3.964262 0.000000
1.668219 3.747864 0.000000
2.226435 3.748302 0.000000
1.956976 3.909582 0.000000
1.715048 3.648575 0.000000
2.063240 3.101960 0.000000
2.092247 3.472972 0.000000
2.053516 3.716448 0.000000
1.809803 3.755609 0.000000
1.996413 3.085602 0.000000
1.949442 3.215868 0.000000
1.758751 3.160642 0.000000
2.097858 3.320675 0.000000
2.054589 3.539023 0.000000
2.088610 3.035624 0.000000
1.876106 3.212636 0.000000
1.589103 3.695384 0.000000
1.543321 3.701549 0.000000
1.648252 3.299318 0.000000
2.113285 3.359019 0.000000
1.873330 3.827233 0.000000
1.659853 3.033929 0.000000
1.677448 3.482888 0.000000
2.047000 3.146404 0.000000
2.158300 3.764355 0.000000
1.891584 3.486482 0.000000
1.728438 3.197313 0.000000
1.999619 3.360450 0.000000
1.950735 3.805290 0.000000
1.769217 3.086861 0.000000
1.886393 3.148308 0.000000
2.176400 3.921468 0.000000
CELLS 556 2224 
3 289  55 125
3 124 289 125
3 34 124 301
3 301 124 125
3 290 159 116
3 126  63 275
3 109 126 275
3 46 128 111
3 72 211  99
3 34 143 124
3 66 124 143
3 67 130 144
3 53 144 130
3 48 290 116
3 53 232  96
3 75 152 166
3 7 134 145
3 79 195 136
3 25 158 154
3 78 154 158
3 230 153  33
3 53  96 212
3 105 169 225
3 44 126 109
3 53 147 114
3 62 114 147
3 225 169  39
3 19 116 159
3 41 139 221
3 93 221 139
3 65 254 101
3 13  14 110
3 61 166 152
3 68 111 128
3 69 160 176
3 47 182 250
3 3 100 281
3 25  98 174
3 93 191 204
3 72  99 219
3 25 280  98
3 67 102 161
3 23 135 109
3 65 101 189
3 95 213 263
3 106 237 168
3 69 137 160
3 95 252 213
3 103 230 229
3 79 118 150
3 54 292 267
3 237 172  60
3 237  74 168
3 33 229 230
3 68 204 191
3 84 123 216
3 106 172 237
3 288 185  91
3 3 187 100
3 30 147 130
3 31 131 164
3 70 164 131
3 28 107 157
3 47 250 151
3 254  16 101
3 130 307 292
3 16 203 101
3 67 248 102
3 81 106 168
3 30 130 292
3 36 179 155
3 6   7 145
3 54 133 292
3 97 117 273
3 45 273 117
3 71 256 179
3 45 193 107
3 29 287 112
3 75 125 184
3 115 306 181
3 49 220 216
3 18  19 159
3 121 185 288
3 69 253 181
3 22 181 306
3 49 149 132
3 47 151 260
3 50 157 107
3 112 287 188
3 65 310 110
3 155 179 241
3 56 145 134
3 9 127 244
3 75 309 152
3 99 211 153
3 56 141 143
3 66 143 141
3 43 152 113
3 97 181 253
3 53 114 232
3 113 152 309
3 95 151 250
3 292 170  30
3 92 250 182
3 133 170 292
3 82 127 148
3 115 181 273
3 45 117 193
3 47 238 182
3 296 163  62
3 46 242 128
3 54 150 118
3 122 163 296
3 44 222 173
3 103 173 222
3 64 140 138
3 88 179 256
3 86 142 207
3 40 207 142
3 13 110 190
3 59 217 206
3 65 178 254
3 48 116 286
3 1 281 120
3 81 308 106
3 4   5 146
3 7   8 134
3 65 133 310
3 27 185 121
3 96 260 151
3 84 277 123
3 53 130 147
3 60 138 140
3 122 291 163
3 26 163 291
3 33 129 229
3 45 107 223
3 28 236 107
3 273  45 177
3 54 118 190
3 115 273 177
3 23 109 275
3 5 215 146
3 65 110 178
3 14 178 110
3 68 202 111
3 31 111 202
3 33 211 129
3 64 115 177
3 51 123 156
3 50 107 193
3 38 176 160
3 60 140 186
3 24 144 212
3 82 244 127
3 12 190 118
3 24 212 151
3 125 266 184
3 35 150 201
3 76 121 173
3 43 276 284
3 63 126 180
3 68 128 204
3 104 267 292
3 59 137 217
3 22 138 205
3 43 284 152
3 44 109 222
3 121 288 173
3 104 292 307
3 64 306 115
3 40 142 297
3 42 213 252
3 22 205 217
3 55 154 155
3 78 155 154
3 123 277 156
3 44 173 288
3 101 249 189
3 57 135 283
3 70 116 295
3 66 165 124
3 1   2 281
3 41 249 139
3 2   3 281
3 78 245 117
3 52 112 188
3 97 273 181
3 32 274 279
3 142 255 297
3 97 270 117
3 81 128 242
3 87 139 249
3 70 286 116
3 79 136 226
3 37 141 268
3 44 288 126
3 91 126 288
3 30 224 147
3 42 214 213
3 93 139 191
3 8 244 134
3 113  27 234
3 43 113 233
3 59 160 137
3 135 199 283
3 103 229 173
3 39 169 210
3 79 150 261
3 90 255 171
3 62 208 114
3 309  27 113
3 69 181 137
3 22 137 181
3 74 163 168
3 26 168 163
3 41 189 249
3 94 221 296
3 94 224 170
3 30 170 224
3 108 279 274
3 122 296 221
3 70 192 119
3 21 119 192
3 150 267 201
3 65 170 133
3 19 295 116
3 77 146 215
3 141 198 268
3 34 264 143
3 28 272 132
3 78 117 239
3 61 187 146
3 54 190 310
3 82 134 244
3 59 294 160
3 128 240 204
3 76 229 129
3 72 197 120
3 1 120 197
3 79 302 118
3 132 149 235
3 12 118 302
3 86 174 142
3 64 138 306
3 35 195 261
3 85 210 169
3 67 307 130
3 160 294 251
3 70 131 286
3 27 121 234
3 76 234 121
3 71 162 176
3 60 186 237
3 95 263 151
3 24 151 263
3 70 119 257
3 25 154 165
3 72 129 211
3 167 247 269
3 77 145 209
3 56 209 145
3 82 198 134
3 56 134 198
3 32 140 274
3 72 120 218
3 4 146 187
3 25 165 280
3 62 147 224
3 91 262 126
3 28 132 303
3 84 216 220
3 57 230 305
3 83 206 217
3 143 264 209
3 49 132 196
3 10 226 136
3 66 141 200
3 110 310 190
3 43 233 129
3 76 129 233
3 54 310 133
3 37 247 167
3 75 301 125
3 12  13 190
3 55 266 125
3 31 202 131
3 32 186 140
3 67 161 201
3 48 191 139
3 58 171 255
3 61 284 187
3 43 129 218
3 72 218 129
3 50 183 157
3 73 157 183
3 23 199 135
3 73 194 220
3 37 200 141
3 81 240 128
3 109 135 222
3 70 295 192
3 69 176 162
3 53 212 144
3 126 262 180
3 81 168 240
3 3   4 187
3 132 272 196
3 67 144 248
3 83 172 210
3 39 210 172
3 71 228 185
3 91 185 228
3 36 162 179
3 71 179 162
3 56 198 141
3 72 219 197
3 175 278 294
3 64 274 140
3 57 305 135
3 73 183 207
3 83 217 205
3 60 205 138
3 94 170 311
3 14  15 178
3 77 227 146
3 61 146 227
3 73 207 194
3 22 306 138
3 52 169 300
3 105 300 169
3 71 185 256
3 106 308 172
3 117 245 193
3 170 189 311
3 22 217 137
3 28 157 272
3 85 169 188
3 52 188 169
3 58 142 282
3 80 182 238
3 99 153 312
3 29 278 175
3 73 220 196
3 69 162 253
3 6 145 215
3 48 139 290
3 87 290 139
3 67 201 307
3 56 143 209
3 16  17 203
3 42 235 149
3 34 166 264
3 58 282 167
3 98 167 282
3 37 167 200
3 83 205 172
3 60 172 205
3 59 206 175
3 85 175 206
3 65 189 170
3 77 215 145
3 100 187 284
3 99 243 219
3 26 204 240
3 71 176 228
3 62 224 296
3 20  21 192
3 35 201 161
3 42 149 214
3 98 200 167
3 38 180 262
3 96 151 212
3 39 172 308
3 88 184 266
3 15  16 254
3 58 255 142
3 0   1 197
3 24 248 144
3 100 284 276
3 26 240 168
3 33 153 211
3 19  20 295
3 94 311 221
3 78 239 155
3 36 155 239
3 66 200 280
3 62 163 208
3 88 241 179
3 38 228 176
3 11  12 302
3 73 272 157
3 37 148 247
3 68 191 304
3 32 232 259
3 70 257 164
3 74 208 163
3 24 263 299
3 82 148 268
3 37 268 148
3 74 186 259
3 114 259 232
3 68 304 202
3 142 174 282
3 35 261 150
3 54 267 150
3 61 152 284
3 78 158 245
3 50 245 158
3 55 155 241
3 84 220 194
3 5   6 215
3 89 294 278
3 166 227 264
3 38 160 251
3 18 159 246
3 122 221 291
3 93 291 221
3 55 289 154
3 104 307 201
3 40 156 277
3 75 166 301
3 87 246 159
3 74 259 208
3 61 227 166
3 98 280 200
3 40 297 156
3 51 156 298
3 108 238 260
3 103 305 230
3 88 256 184
3 27 184 256
3 80 231 177
3 64 177 231
3 86 207 183
3 50 158 285
3 25 271 158
3 79 226 302
3 27 309 184
3 48 286 304
3 113 234 233
3 76 233 234
3 132 235 303
3 92 303 235
3 154 289 165
3 10  11 226
3 101 203 249
3 87 249 203
3 76 173 229
3 89 265 180
3 63 180 265
3 40 194 207
3 47 260 238
3 38 262 228
3 36 253 162
3 87 159 290
3 80 177 223
3 45 223 177
3 17  18 246
3 86 271 174
3 63 258 275
3 83 210 206
3 85 206 210
3 74 237 186
3 8   9 244
3 28 182 236
3 80 236 182
3 105 242 293
3 131 304 286
3 81 225 308
3 73 196 272
3 38 251 180
3 58 269 171
3 66 280 165
3 58 167 269
3 124 165 289
3 49 196 220
3 25 174 271
3 34 301 166
3 104 201 267
3 15 254 178
3 85 287 175
3 105 225 242
3 89 180 251
3 87 203 246
3 17 246 203
3 98 282 174
3 29 175 287
3 59 175 294
3 28 303 182
3 92 182 303
3 64 231 274
3 108 274 231
3 32 259 186
3 50 193 245
3 27 256 185
3 48 304 191
3 50 285 183
3 91 228 262
3 46 293 242
3 107 236 223
3 108 231 238
3 86 183 285
3 79 261 195
3 40 277 194
3 89 251 294
3 94 296 224
3 85 188 287
3 89 278 265
3 80 223 236
3 75 184 309
3 82 268 198
3 90 297 255
3 84 194 277
3 80 238 231
3 42 252 235
3 92 235 252
3 103 222 305
3 135 305 222
3 77 209 264
3 81 242 225
3 20 192 295
3 41 311 189
3 26 291 204
3 93 204 291
3 100 276 281
3 120 281 276
3 43 218 276
3 120 276 218
3 114 208 259
3 55 241 266
3 77 264 227
3 99 312 243
3 92 252 250
3 95 250 252
3 131 202 304
3 41 221 311
3 108 260 279
3 158 271 285
3 86 285 271
3 88 266 241
3 36 239 270
3 97 253 270
3 117 270 239
3 96 232 279
3 32 279 232
3 63 265 258
3 36 270 253
3 39 308 225
3 11 302 226
3 90 298 297
3 156 297 298
3 102 248 299
3 24 299 248
3 96 279 260
3 105 293 300
CELL_TYPES 556
5 5 5 5 5 5 5 5 5 5 5 5 5 5 5 5 5 5 5 5 5 5 5 5 5 5 5 5 5 5 5 5 5 5 5 5 5 5 5 5 5 5 5 5 5 5 5 5 5 5 5 5 5 5 5 5 5 5 5 5 5 5 5 5 5 5 5 5 5 5 5 5 5 5 5 5 5 5 5 5 5 5 5 5 5 5 5 5 5 5 5 5 5 5 5 5 5 5 5 5 5 5 5 5 5 5 5 5 5 5 5 5 5 5 5 5 5 5 5 5 5 5 5 5 5 5 5 5 5 5 5 5 5 5 5 5 5 5 5 5 5 5 5 5 5 5 5 5 5 5 5 5 5 5 5 5 5 5 5 5 5 5 5 5 5 5 5 5 5 5 5 5 5 5 5 5 5 5 5 5 5 5 5 5 5 5 5 5 5 5 5 5 5 5 5 5 5 5 5 5 5 5 5 5 5 5 5 5 5 5 5 5 5 5 5 5 5 5 5 5 5 5 5 5 5 5 5 5 5 5 5 5 5 5 5 5 5 5 5 5 5 5 5 5 5 5 5 5 5 5 5 5 5 5 5 5 5 5 5 5 5 5 5 5 5 5 5 5 5 5 5 5 5 5 5 5 5 5 5 5 5 5 5 5 5 5 5 5 5 5 5 5 5 5 5 5 5 5 5 5 5 5 5 5 5 5 5 5 5 5 5 5 5 5 5 5 5 5 5 5 5 5 5 5 5 5 5 5 5 5 5 5 5 5 5 5 5 5 5 5 5 5 5 5 5 5 5 5 5 5 5 5 5 5 5 5 5 5 5 5 5 5 5 5 5 5 5 5 5 5 5 5 5 5 5 5 5 5 5 5 5 5 5 5 5 5 5 5 5 5 5 5 5 5 5 5 5 5 5 5 5 5 5 5 5 5 5 5 5 5 5 5 5 5 5 5 5 5 5 5 5 5 5 5 5 5 5 5 5 5 5 5 5 5 5 5 5 5 5 5 5 5 5 5 5 5 5 5 5 5 5 5 5 5 5 5 5 5 5 5 5 5 5 5 5 5 5 5 5 5 5 5 5 5 5 5 5 5 5 5 5 5 5 5 5 5 5 5 5 5 5 5 5 5 5 5 5 5 5 5 5 5 5 5 5 5 5 5 5 5 5 5 5 5 5 5 5 5 5 5 5 5 5 5 5 5 5 5 5 5 5 5 5 5 5 5 5 5 5 5 5 5 5 5 5 5 5 5 5 5 5 5 5 5 5 5 
POINT_DATA 313
VECTORS displacement_ITER1 FLOAT
 2.108416e-01  9.022411e-02  0 
 2.113718e-01  9.479544e-02  0 
 2.118344e-01  9.944407e-02  0 
 2.122542e-01  1.041340e-01  0 
 2.126414e-01  1.088919e-01  0 
 2.130006e-01  1.136905e-01  0 
 2.133417e-01  1.185245e-01  0 
 2.136650e-01  1.233795e-01  0 
 2.139967e-01  1.282729e-01  0 
 2.143856e-01  1.332634e-01  0 
 1.146674e-01  1.389594e-01  0 
 1.150874e-01  1.336720e-01  0 
 1.154622e-01  1.285586e-01  0 
 1.158027e-01  1.235429e-01  0 
 1.161305e-01  1.185758e-01  0 
 1.164518e-01  1.136500e-01  0 
 1.167708e-01  1.087593e-01  0 
 1.170942e-01  1.039058e-01  0 
 1.174307e-01  9.908141e-02  0 
 1.177789e-01  9.428364e-02  0 
 1.181571e-01  8.952888e-02  0 
 1.185932e-01  8.484441e-02  0 
 1.644086e-01  1.058238e-01  0 
 1.809012e-01  8.180543e-02  0 
 1.462315e-01  1.296237e-01  0 
 1.868721e-01  1.244745e-01  0 
 1.416632e-01  1.028276e-01  0 
 1.901706e-01  1.014461e-01  0 
 1.665265e-01  1.284282e-01  0 
 1.651307e-01  8.793922e-02  0 
 1.342813e-01  1.187586e-01  0 
 1.346012e-01  8.786162e-02  0 
 1.522979e-01  1.144549e-01  0 
 1.967865e-01  8.848286e-02  0 
 1.979325e-01  1.146685e-01  0 
 1.306786e-01  1.344716e-01  0 
 1.790190e-01  1.109162e-01  0 
 1.993956e-01  1.310152e-01  0 
 1.760940e-01  9.696125e-02  0 
 1.545321e-01  9.709455e-02  0 
 1.809587e-01  1.372121e-01  0 
 1.293838e-01  1.071361e-01  0 
 1.576720e-01  1.371272e-01  0 
 2.001532e-01  9.910571e-02  0 
 1.854904e-01  9.066331e-02  0 
 1.698189e-01  1.180870e-01  0 
 1.442444e-01  9.087497e-02  0 
 1.560655e-01  1.250455e-01  0 
 1.281561e-01  9.660728e-02  0 
 1.670858e-01  1.395157e-01  0 
 1.760297e-01  1.247109e-01  0 
 1.831668e-01  1.476990e-01  0 
 1.559102e-01  8.579470e-02  0 
 1.446227e-01  1.209151e-01  0 
 1.259409e-01  1.252680e-01  0 
 1.877482e-01  1.140366e-01  0 
 2.038181e-01  1.226742e-01  0 
 1.902449e-01  8.097124e-02  0 
 1.906093e-01  1.350309e-01  0 
 1.669438e-01  9.758288e-02  0 
 1.558480e-01  1.072733e-01  0 
 2.037148e-01  1.076082e-01  0 
 1.411061e-01  1.130219e-01  0 
 1.762355e-01  8.862341e-02  0 
 1.611826e-01  1.132708e-01  0 
 1.246536e-01  1.159388e-01  0 
 1.949747e-01  1.227937e-01  0 
 1.379955e-01  1.283274e-01  0 
 1.363360e-01  9.565818e-02  0 
 1.733339e-01  1.045695e-01  0 
 1.259506e-01  8.829871e-02  0 
 1.817958e-01  1.031086e-01  0 
 2.039049e-01  9.158042e-02  0 
 1.734583e-01  1.329651e-01  0 
 1.475726e-01  1.085984e-01  0 
 1.956210e-01  1.077332e-01  0 
 1.937542e-01  9.511086e-02  0 
 2.055366e-01  1.150431e-01  0 
 1.804442e-01  1.183145e-01  0 
 1.227800e-01  1.352425e-01  0 
 1.631863e-01  1.214590e-01  0 
 1.473930e-01  9.854326e-02  0 
 2.066449e-01  1.307816e-01  0 
 1.605659e-01  1.004910e-01  0 
 1.745177e-01  1.412259e-01  0 
 1.605802e-01  9.320311e-02  0 
 1.816885e-01  1.298031e-01  0 
 1.241244e-01  1.026941e-01  0 
 1.871508e-01  1.078544e-01  0 
 1.714167e-01  9.168571e-02  0 
 1.875456e-01  1.410857e-01  0 
 1.823913e-01  9.630972e-02  0 
 1.599993e-01  1.306266e-01  0 
 1.342439e-01  1.020222e-01  0 
 1.338414e-01  1.119427e-01  0 
 1.532198e-01  1.319608e-01  0 
 1.494875e-01  1.218418e-01  0 
 1.728004e-01  1.114473e-01  0 
 1.911121e-01  1.282953e-01  0 
 2.039971e-01  8.662999e-02  0 
 2.072835e-01  1.024858e-01  0 
 1.231947e-01  1.094862e-01  0 
 1.407853e-01  1.342089e-01  0 
 1.906628e-01  8.764352e-02  0 
 1.323058e-01  1.257207e-01  0 
 1.511798e-01  9.183735e-02  0 
 1.509437e-01  1.025130e-01  0 
 1.701556e-01  1.235192e-01  0 
 1.565623e-01  1.192563e-01  0 
 1.829292e-01  8.659884e-02  0 
 1.207785e-01  1.203590e-01  0 
 1.391548e-01  9.083426e-02  0 
 1.618539e-01  8.531428e-02  0 
 1.955669e-01  1.007029e-01  0 
 1.448851e-01  1.155260e-01  0 
 1.661240e-01  1.121152e-01  0 
 1.237925e-01  9.375410e-02  0 
 1.748544e-01  1.163193e-01  0 
 1.216157e-01  1.295596e-01  0 
 1.240337e-01  8.355459e-02  0 
 2.062923e-01  9.567719e-02  0 
 1.892424e-01  9.668864e-02  0 
 1.376560e-01  1.074281e-01  0 
 1.772971e-01  1.460903e-01  0 
 1.944504e-01  1.170500e-01  0 
 1.926920e-01  1.117646e-01  0 
 1.804569e-01  9.164368e-02  0 
 2.093098e-01  1.354825e-01  0 
 1.422659e-01  9.560454e-02  0 
 1.987789e-01  9.355734e-02  0 
 1.379781e-01  1.225982e-01  0 
 1.305649e-01  9.060881e-02  0 
 1.652533e-01  1.338912e-01  0 
 1.282858e-01  1.201729e-01  0 
 2.087741e-01  1.260711e-01  0 
 1.860550e-01  8.251977e-02  0 
 1.200233e-01  1.409036e-01  0 
 1.684333e-01  1.026833e-01  0 
 1.601194e-01  1.087153e-01  0 
 1.291968e-01  1.021222e-01  0 
 1.563364e-01  1.115461e-01  0 
 2.000553e-01  1.259766e-01  0 
 1.849045e-01  1.340817e-01  0 
 1.994104e-01  1.194462e-01  0 
 1.428368e-01  1.262261e-01  0 
 2.082662e-01  1.197542e-01  0 
 2.079719e-01  1.110302e-01  0 
 1.397287e-01  1.174907e-01  0 
 2.034694e-01  1.346249e-01  0 
 1.620450e-01  1.392231e-01  0 
 1.268705e-01  1.307312e-01  0 
 1.511683e-01  1.270717e-01  0 
 1.991489e-01  1.043969e-01  0 
 1.999103e-01  8.529938e-02  0 
 1.857345e-01  1.189185e-01  0 
 1.828519e-01  1.137142e-01  0 
 1.812942e-01  1.424911e-01  0 
 1.720353e-01  1.279997e-01  0 
 1.812684e-01  1.231550e-01  0 
 1.217795e-01  9.835031e-02  0 
 1.718201e-01  9.865345e-02  0 
 1.358924e-01  1.330702e-01  0 
 1.781729e-01  1.061385e-01  0 
 1.420676e-01  1.076338e-01  0 
 1.303223e-01  8.539432e-02  0 
 1.902210e-01  1.213591e-01  0 
 1.996627e-01  1.102795e-01  0 
 1.946621e-01  1.322003e-01  0 
 1.463900e-01  1.036984e-01  0 
 1.553383e-01  9.226037e-02  0 
 1.309824e-01  1.156857e-01  0 
 1.922235e-01  1.398307e-01  0 
 1.554300e-01  1.018034e-01  0 
 1.893266e-01  9.182358e-02  0 
 1.862423e-01  1.290874e-01  0 
 1.650209e-01  9.267655e-02  0 
 1.769031e-01  1.014688e-01  0 
 1.653258e-01  1.167241e-01  0 
 1.196408e-01  1.161354e-01  0 
 1.831179e-01  1.081115e-01  0 
 1.756283e-01  9.250732e-02  0 
 1.693704e-01  1.082198e-01  0 
 1.615881e-01  1.264090e-01  0 
 1.767496e-01  1.294435e-01  0 
 1.908372e-01  1.067209e-01  0 
 1.851731e-01  9.929530e-02  0 
 1.518666e-01  1.102383e-01  0 
 2.078805e-01  1.063416e-01  0 
 1.593561e-01  8.897938e-02  0 
 1.279759e-01  1.115955e-01  0 
 1.207869e-01  1.248441e-01  0 
 1.324669e-01  9.810617e-02  0 
 1.220731e-01  8.714483e-02  0 
 1.737178e-01  1.207448e-01  0 
 1.762776e-01  1.368341e-01  0 
 1.265647e-01  1.386384e-01  0 
 1.693097e-01  1.348828e-01  0 
 2.078104e-01  9.225091e-02  0 
 2.040517e-01  1.270575e-01  0 
 1.846245e-01  7.896390e-02  0 
 1.953458e-01  1.274931e-01  0 
 1.326781e-01  1.293076e-01  0 
 1.344299e-01  9.209583e-02  0 
 1.212060e-01  1.054375e-01  0 
 1.383211e-01  9.963941e-02  0 
 1.599923e-01  1.044664e-01  0 
 1.627352e-01  9.709351e-02  0 
 1.789580e-01  1.332480e-01  0 
 1.448085e-01  1.115039e-01  0 
 2.032151e-01  1.183110e-01  0 
 1.585197e-01  9.697547e-02  0 
 2.006988e-01  8.908373e-02  0 
 1.468704e-01  1.251336e-01  0 
 1.531262e-01  1.372120e-01  0 
 1.571450e-01  1.409087e-01  0 
 2.096543e-01  1.159143e-01  0 
 1.711845e-01  1.440770e-01  0 
 1.641390e-01  1.017898e-01  0 
 2.025968e-01  9.561813e-02  0 
 2.072205e-01  8.859736e-02  0 
 1.716658e-01  1.381162e-01  0 
 1.338336e-01  1.069381e-01  0 
 1.866446e-01  8.710086e-02  0 
 1.668986e-01  1.207139e-01  0 
 1.362142e-01  1.150124e-01  0 
 1.510287e-01  9.556732e-02  0 
 1.184019e-01  1.362394e-01  0 
 2.034928e-01  1.116365e-01  0 
 1.802391e-01  9.916235e-02  0 
 1.941328e-01  9.095573e-02  0 
 1.937393e-01  8.528691e-02  0 
 1.603927e-01  1.180090e-01  0 
 1.486824e-01  1.176718e-01  0 
 1.966035e-01  9.746923e-02  0 
 1.925530e-01  9.856094e-02  0 
 1.607646e-01  1.343662e-01  0 
 1.657408e-01  1.241816e-01  0 
 1.517216e-01  1.064097e-01  0 
 1.589873e-01  1.221989e-01  0 
 1.786082e-01  1.143925e-01  0 
 1.433221e-01  9.959316e-02  0 
 1.860488e-01  1.108469e-01  0 
 1.473806e-01  9.374738e-02  0 
 2.069291e-01  8.431587e-02  0 
 2.107203e-01  1.307406e-01  0 
 1.772617e-01  1.206410e-01  0 
 1.203261e-01  1.018887e-01  0 
 1.991003e-01  1.351773e-01  0 
 1.424390e-01  1.304070e-01  0 
 1.256955e-01  1.062933e-01  0 
 1.564735e-01  1.290174e-01  0 
 1.726866e-01  9.474519e-02  0 
 1.568789e-01  1.333755e-01  0 
 1.756382e-01  1.090628e-01  0 
 1.201644e-01  1.124906e-01  0 
 1.874065e-01  1.372253e-01  0 
 1.863778e-01  1.044131e-01  0 
 1.272043e-01  8.438145e-02  0 
 1.739871e-01  8.517886e-02  0 
 1.483539e-01  1.129937e-01  0 
 1.540054e-01  1.218535e-01  0 
 1.267679e-01  1.347237e-01  0 
 1.789627e-01  9.531100e-02  0 
 1.493330e-01  1.326390e-01  0 
 2.015433e-01  1.148883e-01  0 
 1.728824e-01  8.863896e-02  0 
 1.890334e-01  1.103280e-01  0 
 1.292055e-01  1.271421e-01  0 
 2.029283e-01  1.302831e-01  0 
 1.942753e-01  1.359706e-01  0 
 1.761857e-01  1.124236e-01  0 
 1.834119e-01  1.265345e-01  0 
 1.693586e-01  1.313731e-01  0 
 1.697166e-01  1.138100e-01  0 
 1.571020e-01  1.151824e-01  0 
 1.785935e-01  8.531786e-02  0 
 2.046860e-01  9.935953e-02  0 
 1.780705e-01  1.407592e-01  0 
 1.686025e-01  8.924963e-02  0 
 1.528110e-01  1.184518e-01  0 
 1.918657e-01  1.246941e-01  0 
 2.085065e-01  9.937602e-02  0 
 1.894286e-01  1.313858e-01  0 
 1.877405e-01  7.843652e-02  0 
 2.036999e-01  1.034210e-01  0 
 1.795543e-01  1.267570e-01  0 
 1.275423e-01  9.297317e-02  0 
 1.625805e-01  9.034953e-02  0 
 1.853566e-01  9.431981e-02  0 
 1.897236e-01  1.174934e-01  0 
 1.256167e-01  9.937538e-02  0 
 1.379070e-01  1.038978e-01  0 
 1.318642e-01  1.225974e-01  0 
 1.483054e-01  8.968933e-02  0 
 1.688008e-01  9.400068e-02  0 
 1.214359e-01  9.058680e-02  0 
 1.373482e-01  1.110333e-01  0 
 1.844548e-01  1.393322e-01  0 
 1.852124e-01  1.440442e-01  0 
 1.452051e-01  1.334484e-01  0 
 1.519257e-01  8.827841e-02  0 
 1.963469e-01  1.113730e-01  0 
 1.186607e-01  1.326339e-01  0 
 1.632819e-01  1.305216e-01  0 
 1.316629e-01  9.450670e-02  0 
 1.894626e-01  8.470013e-02  0 
 1.637863e-01  1.095517e-01  0 
 1.353950e-01  1.256001e-01  0 
 1.518659e-01  9.910080e-02  0 
 1.939635e-01  1.039928e-01  0 
 1.245798e-01  1.215801e-01  0 
 1.311368e-01  1.100290e-01  0 
 2.035416e-01  8.362664e-02  0 
VECTORS displacement_ITER2 FLOAT
 1.963258e-01  8.245856e-02  0 
 1.968026e-01  8.676485e-02  0 
 1.972243e-01  9.114818e-02  0 
 1.976128e-01  9.557126e-02  0 
 1.979756e-01  1.000572e-01  0 
 1.983176e-01  1.045813e-01  0 
 1.986485e-01  1.091410e-01  0 
 1.989659e-01  1.137257e-01  0 
 1.992923e-01  1.183556e-01  0 
 1.996556e-01  1.230880e-01  0 
 1.067845e-01  1.276447e-01  0 
 1.071904e-01  1.228349e-01  0 
 1.075485e-01  1.181684e-01  0 
 1.078754e-01  1.135853e-01  0 
 1.081955e-01  1.090427e-01  0 
 1.085182e-01  1.045361e-01  0 
 1.088493e-01  1.000651e-01  0 
 1.091926e-01  9.563767e-02  0 
 1.095538e-01  9.124970e-02  0 
 1.099214e-01  8.689996e-02  0 
 1.103082e-01  8.260585e-02  0 
 1.107160e-01  7.838381e-02  0 
 1.525947e-01  9.721220e-02  0 
 1.679446e-01  7.446903e-02  0 
 1.357181e-01  1.192816e-01  0 
 1.736949e-01  1.147024e-01  0 
 1.315963e-01  9.457504e-02  0 
 1.767420e-01  9.303055e-02  0 
 1.546253e-01  1.183224e-01  0 
 1.532483e-01  8.061824e-02  0 
 1.247784e-01  1.092138e-01  0 
 1.252254e-01  8.104642e-02  0 
 1.413628e-01  1.052567e-01  0 
 1.829438e-01  8.072934e-02  0 
 1.840975e-01  1.054979e-01  0 
 1.214196e-01  1.235726e-01  0 
 1.662729e-01  1.019542e-01  0 
 1.855021e-01  1.209040e-01  0 
 1.634729e-01  8.886052e-02  0 
 1.434525e-01  8.918995e-02  0 
 1.681749e-01  1.266348e-01  0 
 1.203635e-01  9.856655e-02  0 
 1.463631e-01  1.264127e-01  0 
 1.861806e-01  9.082286e-02  0 
 1.722897e-01  8.284231e-02  0 
 1.576763e-01  1.086600e-01  0 
 1.339899e-01  8.359828e-02  0 
 1.448551e-01  1.151024e-01  0 
 1.193153e-01  8.897984e-02  0 
 1.551685e-01  1.287304e-01  0 
 1.635146e-01  1.148847e-01  0 
 1.702666e-01  1.364887e-01  0 
 1.447610e-01  7.871578e-02  0 
 1.342618e-01  1.112198e-01  0 
 1.171295e-01  1.151664e-01  0 
 1.744930e-01  1.048929e-01  0 
 1.896615e-01  1.130501e-01  0 
 1.767128e-01  7.363645e-02  0 
 1.772300e-01  1.246362e-01  0 
 1.549334e-01  8.951544e-02  0 
 1.446526e-01  9.859675e-02  0 
 1.895518e-01  9.884712e-02  0 
 1.310555e-01  1.039417e-01  0 
 1.635731e-01  8.098638e-02  0 
 1.496058e-01  1.041540e-01  0 
 1.159960e-01  1.066260e-01  0 
 1.813191e-01  1.131442e-01  0 
 1.281413e-01  1.180138e-01  0 
 1.267578e-01  8.806786e-02  0 
 1.609186e-01  9.601025e-02  0 
 1.173779e-01  8.147383e-02  0 
 1.688527e-01  9.461422e-02  0 
 1.897322e-01  8.370155e-02  0 
 1.611299e-01  1.226127e-01  0 
 1.370107e-01  9.985463e-02  0 
 1.819057e-01  9.896246e-02  0 
 1.801066e-01  8.703278e-02  0 
 1.912756e-01  1.058550e-01  0 
 1.676364e-01  1.088990e-01  0 
 1.142089e-01  1.242681e-01  0 
 1.514880e-01  1.117907e-01  0 
 1.368639e-01  9.059771e-02  0 
 1.923506e-01  1.207140e-01  0 
 1.490251e-01  9.227699e-02  0 
 1.621431e-01  1.303742e-01  0 
 1.490494e-01  8.552216e-02  0 
 1.688397e-01  1.196861e-01  0 
 1.156024e-01  9.452365e-02  0 
 1.739133e-01  9.907508e-02  0 
 1.590653e-01  8.395290e-02  0 