# vtk DataFile Version 3.1
this is an vtk file created by FEMAC
ASCII
DATASET UNSTRUCTURED_GRID
POINTS 314 FLOAT
0.750000 0.000000 0.000000
0.800000 0.000000 0.000000
0.850000 0.000000 0.000000
0.900000 0.000000 0.000000
0.950000 0.000000 0.000000
1.000000 0.000000 0.000000
1.150000 1.000000 0.000000
1.100000 1.000000 0.000000
1.050000 1.000000 0.000000
1.000000 1.000000 0.000000
0.950000 1.000000 0.000000
0.900000 1.000000 0.000000
0.850000 1.000000 0.000000
0.800000 1.000000 0.000000
0.750000 1.000000 0.000000
0.700000 1.000000 0.000000
0.650000 1.000000 0.000000
0.600000 1.000000 0.000000
0.550000 1.000000 0.000000
0.500000 1.000000 0.000000
0.450000 1.000000 0.000000
0.400000 1.000000 0.000000
0.350000 1.000000 0.000000
0.300000 1.000000 0.000000
0.800140 0.326062 0.000000
0.809633 0.683134 0.000000
1.039852 0.252455 0.000000
0.558438 0.746868 0.000000
1.026144 0.758931 0.000000
0.718106 0.501941 0.000000
0.901297 0.464479 0.000000
0.715690 0.173349 0.000000
0.719885 0.824770 0.000000
0.884567 0.175910 0.000000
0.403514 0.831057 0.000000
0.878523 0.838178 0.000000
0.947129 0.634649 0.000000
1.125047 0.647473 0.000000
0.662001 0.358941 0.000000
0.624177 0.616163 0.000000
0.936834 0.343604 0.000000
0.597226 0.870732 0.000000
0.995349 0.875378 0.000000
0.687554 0.711595 0.000000
1.048032 0.381931 0.000000
0.816030 0.560248 0.000000
0.902572 0.723565 0.000000
0.969725 0.104663 0.000000
0.807123 0.105037 0.000000
0.798129 0.426251 0.000000
0.486285 0.892322 0.000000
0.791406 0.899273 0.000000
0.662490 0.261605 0.000000
0.741188 0.598992 0.000000
0.618241 0.459660 0.000000
0.797534 0.224761 0.000000
0.801205 0.774520 0.000000
0.979317 0.532057 0.000000
1.098277 0.920047 0.000000
0.945124 0.251638 0.000000
1.026248 0.662290 0.000000
0.330256 0.788751 0.000000
0.676941 0.911247 0.000000
0.675061 0.087907 0.000000
0.471726 0.758993 0.000000
0.370996 0.914329 0.000000
0.982482 0.436510 0.000000
0.634805 0.793825 0.000000
1.055652 0.586806 0.000000
0.888638 0.076853 0.000000
0.914300 0.920124 0.000000
1.072749 0.823222 0.000000
0.865103 0.274740 0.000000
0.738226 0.375367 0.000000
0.865297 0.373950 0.000000
0.894452 0.560437 0.000000
0.949861 0.803859 0.000000
0.531122 0.824013 0.000000
0.394557 0.743021 0.000000
0.981819 0.186223 0.000000
0.564095 0.669063 0.000000
0.866456 0.631950 0.000000
0.738432 0.276507 0.000000
0.585505 0.540947 0.000000
0.645114 0.187504 0.000000
1.008207 0.319520 0.000000
1.086061 0.720347 0.000000
0.665490 0.547572 0.000000
0.687142 0.430687 0.000000
0.970194 0.708709 0.000000
0.554705 0.929453 0.000000
0.622009 0.712673 0.000000
0.503298 0.701258 0.000000
0.746330 0.059007 0.000000
0.837315 0.506780 0.000000
0.758136 0.733758 0.000000
0.437641 0.933592 0.000000
0.858191 0.924914 0.000000
1.033907 0.948086 0.000000
0.917787 0.415203 0.000000
0.751374 0.927135 0.000000
0.631055 0.935023 0.000000
0.668027 0.648121 0.000000
0.774472 0.836323 0.000000
0.348028 0.845746 0.000000
0.780615 0.160390 0.000000
1.041304 0.446854 0.000000
0.745942 0.540795 0.000000
0.658429 0.851678 0.000000
0.705101 0.325434 0.000000
0.835521 0.719096 0.000000
0.787554 0.612037 0.000000
0.733624 0.671429 0.000000
1.141990 0.941186 0.000000
0.615140 0.411845 0.000000
1.019341 0.827586 0.000000
0.474785 0.840015 0.000000
0.988588 0.386841 0.000000
0.870975 0.787447 0.000000
1.005256 0.579235 0.000000
0.939748 0.062841 0.000000
0.557308 0.457812 0.000000
0.690866 0.771753 0.000000
0.959927 0.943547 0.000000
0.833098 0.056027 0.000000
1.129072 0.792137 0.000000
0.761505 0.446594 0.000000
0.940723 0.152752 0.000000
0.933584 0.857624 0.000000
0.913015 0.670914 0.000000
0.848454 0.439159 0.000000
0.858824 0.220432 0.000000
0.751126 0.875237 0.000000
0.836529 0.149710 0.000000
0.756440 0.490777 0.000000
0.702902 0.231258 0.000000
0.325470 0.954812 0.000000
0.734991 0.131689 0.000000
0.744336 0.775696 0.000000
0.616387 0.230422 0.000000
0.880955 0.333404 0.000000
0.439792 0.877071 0.000000
0.577790 0.797742 0.000000
1.034530 0.530246 0.000000
0.648097 0.136200 0.000000
0.953396 0.484419 0.000000
0.789647 0.377736 0.000000
0.840910 0.878546 0.000000
0.571838 0.594934 0.000000
0.664166 0.499811 0.000000
1.043864 0.859826 0.000000
0.505969 0.942205 0.000000
0.649658 0.313188 0.000000
0.553682 0.877086 0.000000
0.829417 0.819037 0.000000
0.948347 0.745541 0.000000
0.991102 0.052432 0.000000
0.993891 0.272878 0.000000
0.790647 0.946963 0.000000
1.005574 0.485582 0.000000
1.137194 0.887505 0.000000
0.949915 0.580773 0.000000
0.812635 0.276977 0.000000
1.068983 0.633069 0.000000
1.073365 0.766547 0.000000
1.073566 0.956624 0.000000
0.378079 0.790465 0.000000
0.917842 0.293830 0.000000
0.753728 0.213085 0.000000
0.517812 0.775794 0.000000
0.614330 0.667916 0.000000
0.926888 0.202309 0.000000
0.980914 0.665110 0.000000
0.859874 0.686849 0.000000
0.927328 0.108974 0.000000
1.108862 0.590114 0.000000
0.859117 0.584444 0.000000
0.421466 0.777307 0.000000
0.433942 0.726058 0.000000
0.879508 0.513895 0.000000
1.039882 0.717107 0.000000
0.666070 0.963925 0.000000
0.753797 0.332346 0.000000
0.676733 0.599229 0.000000
0.648935 0.742632 0.000000
0.785368 0.047320 0.000000
0.907965 0.807514 0.000000
0.388539 0.954347 0.000000
0.876276 0.035233 0.000000
0.583638 0.494690 0.000000
0.905636 0.605586 0.000000
0.922313 0.963786 0.000000
0.328571 0.901667 0.000000
0.926314 0.522677 0.000000
0.635808 0.894657 0.000000
0.900904 0.241626 0.000000
0.695488 0.132118 0.000000
0.604091 0.749202 0.000000
0.850781 0.103165 0.000000
0.710269 0.562173 0.000000
0.386917 0.873457 0.000000
1.028202 0.618870 0.000000
0.607443 0.370000 0.000000
0.821461 0.640197 0.000000
0.694786 0.385299 0.000000
1.117780 0.841793 0.000000
1.046660 0.296014 0.000000
1.057300 0.344016 0.000000
0.838812 0.313907 0.000000
0.965801 0.310767 0.000000
0.887487 0.881314 0.000000
0.611284 0.830864 0.000000
0.624730 0.568954 0.000000
0.985370 0.229704 0.000000
0.888095 0.127894 0.000000
1.078032 0.680051 0.000000
0.905108 0.375998 0.000000
0.675996 0.810507 0.000000
0.545862 0.708135 0.000000
0.957807 0.902246 0.000000
0.880750 0.961510 0.000000
1.114849 0.745599 0.000000
0.700497 0.872826 0.000000
1.019581 0.409298 0.000000
1.068472 0.416228 0.000000
0.623628 0.518605 0.000000
0.583646 0.960686 0.000000
0.994340 0.786990 0.000000
1.079395 0.542879 0.000000
0.697089 0.282918 0.000000
0.800696 0.726582 0.000000
0.529003 0.645269 0.000000
0.653665 0.406620 0.000000
0.762018 0.408138 0.000000
0.833641 0.354252 0.000000
0.833565 0.397855 0.000000
0.978884 0.832900 0.000000
0.949277 0.390766 0.000000
0.574221 0.840087 0.000000
0.716319 0.038089 0.000000
1.025971 0.211573 0.000000
0.678693 0.195525 0.000000
0.580689 0.638669 0.000000
0.465971 0.962315 0.000000
0.777733 0.257517 0.000000
0.830917 0.961455 0.000000
0.721004 0.739065 0.000000
0.510773 0.862574 0.000000
0.485755 0.800561 0.000000
0.830022 0.195000 0.000000
0.991335 0.143712 0.000000
0.802562 0.522570 0.000000
0.592687 0.911273 0.000000
0.776547 0.293882 0.000000
0.939821 0.448054 0.000000
0.804577 0.860807 0.000000
0.652900 0.693103 0.000000
0.936518 0.704434 0.000000
0.519427 0.738210 0.000000
0.663230 0.456443 0.000000
0.767034 0.647691 0.000000
0.425000 0.970299 0.000000
0.725478 0.418220 0.000000
0.715959 0.956458 0.000000
1.041157 0.793625 0.000000
0.722412 0.091027 0.000000
0.821714 0.600161 0.000000
0.658320 0.222683 0.000000
0.538661 0.965161 0.000000
1.086460 0.873141 0.000000
0.999321 0.923040 0.000000
0.781929 0.576489 0.000000
0.765214 0.690199 0.000000
0.709191 0.463233 0.000000
0.727310 0.703801 0.000000
1.003250 0.697865 0.000000
0.404777 0.910559 0.000000
1.000036 0.962528 0.000000
0.693748 0.528635 0.000000
0.809213 0.472086 0.000000
0.907971 0.766082 0.000000
0.583711 0.705302 0.000000
1.047249 0.908020 0.000000
0.989611 0.623488 0.000000
0.995248 0.737591 0.000000
0.719179 0.908581 0.000000
0.465676 0.702177 0.000000
0.473796 0.926370 0.000000
0.910933 0.034985 0.000000
0.848164 0.541396 0.000000
1.016817 0.361978 0.000000
0.855157 0.479280 0.000000
0.979376 0.348199 0.000000
0.577224 0.419473 0.000000
0.698328 0.676758 0.000000
0.625000 0.973610 0.000000
1.110314 0.965159 0.000000
0.834579 0.760189 0.000000
0.710680 0.639254 0.000000
0.878584 0.411107 0.000000
0.762806 0.099078 0.000000
0.674941 0.162284 0.000000
0.832254 0.244519 0.000000
1.081049 0.381893 0.000000
0.524284 0.904142 0.000000
0.758767 0.965420 0.000000
0.357155 0.755478 0.000000
0.442829 0.815845 0.000000
0.867926 0.742716 0.000000
0.948746 0.674305 0.000000
0.892796 0.210069 0.000000
1.026576 0.170797 0.000000
0.822414 0.922230 0.000000
0.775672 0.798992 0.000000
CELLS 556 2224 
3 255  51 132
3 126 134 273
3 273 134  29
3 103 255 132
3 114 293 202
3 300 105 137
3 30 299  99
3 48 105 300
3 56 138  95
3 79 171 127
3 70  97 210
3 54 114 232
3 61 166 104
3 34 104 166
3 57 143 119
3 68 119 143
3 30 130 299
3 4 156 120
3 79 213 171
3 32 103 132
3 0 185  93
3 51 100 132
3 25 173 110
3 0  93 239
3 54 232 259
3 64 286  92
3 64  92 258
3 104 200 192
3 29 134 107
3 56  95 230
3 65 192 200
3 25 203 173
3 1   2 124
3 96 187 276
3 38 152 109
3 48 133 105
3 8 277  98
3 50 141 116
3 27 142 169
3 77 169 142
3 8  98 165
3 62 181 101
3 30 193 179
3 70 220  97
3 38 109 204
3 73 204 109
3 96 261 187
3 31 137 105
3 32 313 103
3 92 231 218
3 36 129 190
3 81 190 129
3 71 150 115
3 48 185 124
3 82 135 168
3 51 158 100
3 4   5 156
3 82 182 109
3 53 107 271
3 58 113 296
3 115 236 227
3 66 254 237
3 53 271 111
3 76 128 186
3 35 186 128
3 264 227  28
3 54 293 114
3 29 107 278
3 39 183 102
3 66 237 117
3 53 111 260
3 32 122 138
3 54 121 293
3 76 227 236
3 32 138 313
3 59 157 209
3 30  99 254
3 80 218 231
3 41 211 108
3 71 164 125
3 58 296 165
3 41 108 194
3 86 164 180
3 28 180 164
3 47 120 156
3 115 227 264
3 107 199 278
3 130 291 279
3 83 212 148
3 49 130 279
3 42 115 150
3 59 209 167
3 66 106 159
3 35 154 118
3 39 102 170
3 31 105 168
3 1 124 185
3 62 101 194
3 35 147 154
3 74 234 140
3 80 170 281
3 53 260 298
3 82 168 244
3 148 242 231
3 140 234 208
3 72 167 140
3 58 160 113
3 109 152 229
3 33 131 249
3 72 195 167
3 33 249 133
3 97 147 210
3 22  23 136
3 55 168 105
3 30 145 193
3 57 119 161
3 99 237 254
3 68 228 175
3 33 214 127
3 10 123 277
3 55 105 249
3 63 239 265
3 48 300 185
3 78 178 177
3 57 159 143
3 80 242 170
3 87 212 225
3 50 287 141
3 283  60 172
3 62 285 263
3 201  60 283
3 42 128 236
3 49 279 126
3 36 161 283
3 119 283 161
3 34 307 141
3 116 141 307
3 186 280  76
3 34 200 104
3 42 219 128
3 71 125 205
3 27 281 197
3 33 133 214
3 62 263 181
3 46 173 129
3 73 109 182
3 67 108 211
3 65 276 187
3 280 155  76
3 42 282 270
3 24 146 182
3 73 182 146
3 39 148 212
3 62 194 108
3 26 157 213
3 66 223 106
3 43 122 184
3 126 279 134
3 42 150 282
3 69 198 124
3 48 124 198
3 69 120 174
3 47 174 120
3 75 179 193
3 39 212 183
3 112 298 260
3 32 222 108
3 81 173 203
3 82 109 229
3 53 199 107
3 62 108 222
3 66 159 145
3 57 145 159
3 67 217 108
3 25 110 230
3 9  10 277
3 32 108 217
3 8   9 277
3 38 202 152
3 94 289 251
3 64 177 178
3 77 116 248
3 77 247 116
3 50 116 247
3 69 288 120
3 96 141 287
3 26 213 240
3 35 118 186
3 59 171 213
3 87 225 149
3 68 201 119
3 6 296 113
3 52 229 152
3 127 214 174
3 91 197 281
3 42 236 115
3 38 232 202
3 114 202 232
3 107 134 251
3 71 115 264
3 147 255 154
3 66 117 223
3 31 168 135
3 67 184 122
3 33 127 171
3 26 206 157
3 85 157 206
3 56 230 297
3 46 308 173
3 54 189 121
3 37 215 163
3 133 198 214
3 47 127 174
3 94 279 291
3 82 253 182
3 90 153 252
3 81 129 173
3 307 177  64
3 248 307  64
3 105 133 249
3 4 120 288
3 64 178 286
3 2 188 124
3 69 124 188
3 59 167 195
3 0   1 185
3 70 123 191
3 10 191 123
3 94 179 289
3 43 246 122
3 40 140 167
3 125 164 221
3 118 154 297
3 41 252 153
3 87 183 212
3 107 251 271
3 32 217 122
3 67 122 217
3 52 135 229
3 82 229 135
3 78 177 166
3 101 181 295
3 76 236 128
3 81 266 176
3 56 297 154
3 110 173 308
3 91 281 170
3 70 219 123
3 81 203 266
3 29 149 273
3 35 128 210
3 70 210 128
3 36 190 161
3 75 161 190
3 7   8 165
3 33 310 131
3 70 128 219
3 83 225 212
3 71 269 150
3 149 259 273
3 30 291 130
3 22 136 187
3 49 126 233
3 56 154 313
3 103 313 154
3 65 187 136
3 110 297 230
3 80 231 242
3 32 132 222
3 72 131 195
3 47 250 127
3 79 127 250
3 58 269 160
3 43 184 256
3 48 198 133
3 31 196 137
3 44 224 223
3 106 223 224
3 52 267 135
3 49 235 130
3 45 271 251
3 46 129 257
3 65 136 192
3 36 309 129
3 68 175 163
3 37 163 175
3 40 216 140
3 74 140 216
3 100 285 132
3 27 197 142
3 67 142 197
3 12 245 220
3 57 193 145
3 122 246 138
3 30 254 145
3 95 138 246
3 34 141 200
3 70 191 220
3 69 188 288
3 34 166 177
3 56 313 138
3 93 265 239
3 58 165 282
3 98 282 165
3 64 258 169
3 72 302 131
3 63 196 144
3 75 190 176
3 81 176 190
3 19 151 268
3 160 269 205
3 100 263 285
3 72 140 208
3 44 223 290
3 91 256 184
3 51 147 312
3 97 312 147
3 57 161 193
3 68 143 228
3 19 243 151
3 15  16 181
3 59 195 171
3 13 305 158
3 68 163 201
3 67 211 142
3 45 251 289
3 89 155 257
3 46 257 155
3 93 185 300
3 111 203 260
3 25 260 203
3 130 235 299
3 31 135 241
3 72 208 162
3 24 162 208
3 17  18 226
3 55 244 168
3 77 248 169
3 85 209 157
3 75 193 161
3 87 199 183
3 53 183 199
3 21  22 187
3 74 299 235
3 117 290 223
3 97 220 245
3 90 304 153
3 35 210 147
3 89 284 155
3 11  12 220
3 84 267 139
3 52 139 267
3 44 207 303
3 13  14 305
3 18  19 268
3 86 221 164
3 2   3 188
3 77 142 238
3 60 215 180
3 86 180 215
3 60 201 163
3 91 184 197
3 6   7 296
3 10  11 191
3 40 292 237
3 88 259 232
3 54 149 225
3 96 276 141
3 14  15 263
3 98 270 282
3 19  20 243
3 77 238 153
3 41 153 238
3 73 146 233
3 49 233 146
3 39 170 242
3 24 234 146
3 49 146 235
3 3   4 288
3 59 213 157
3 153 304 247
3 304  50 247
3 103 154 255
3 102 256 170
3 84 144 301
3 39 242 148
3 24 253 162
3 66 145 254
3 40 167 209
3 16 295 181
3 76 155 227
3 117 237 292
3 60 163 215
3 51 255 147
3 53 298 183
3 102 183 298
3 50 304 151
3 90 151 304
3 77 153 247
3 29 278 149
3 87 149 278
3 67 197 184
3 54 259 149
3 13 158 245
3 72 162 302
3 71 264 164
3 21 187 261
3 50 151 287
3 18 268 226
3 90 268 151
3 28 284 180
3 134 279 251
3 94 251 279
3 27 218 281
3 102 294 256
3 55 162 244
3 135 267 241
3 36 172 309
3 14 263 305
3 69 174 214
3 150 269 282
3 58 282 269
3 46 155 280
3 51 312 158
3 100 158 305
3 61 306 166
3 180 284 275
3 41 194 252
3 101 252 194
3 12  13 245
3 155 284 227
3 30 179 291
3 94 291 179
3 75 176 289
3 55 302 162
3 75 289 179
3 28 164 264
3 69 214 198
3 90 252 226
3 101 226 252
3 27 169 258
3 7 165 296
3 64 169 248
3 85 206 207
3 60 275 172
3 89 172 275
3 54 225 189
3 78 166 306
3 11 220 191
3 131 302 249
3 55 249 302
3 88 262 273
3 89 309 172
3 91 170 256
3 24 208 234
3 83 189 225
3 126 273 262
3 20  21 261
3 24 182 253
3 171 195 310
3 38 204 232
3 88 232 204
3 118 280 186
3 79 240 213
3 88 273 259
3 16  17 295
3 36 283 172
3 137 196 265
3 33 171 310
3 141 276 200
3 93 300 265
3 137 265 300
3 45 176 266
3 15 181 263
3 162 253 244
3 142 211 238
3 41 238 211
3 71 205 269
3 63 265 196
3 43 256 294
3 45 289 176
3 40 237 216
3 99 216 237
3 60 180 275
3 65 200 276
3 79 250 311
3 34 177 307
3 90 226 268
3 118 308 280
3 31 301 196
3 119 201 283
3 146 234 235
3 74 235 234
3 44 290 207
3 40 209 292
3 27 258 218
3 88 204 262
3 98 277 270
3 123 270 277
3 3 288 188
3 42 270 219
3 123 219 270
3 101 295 226
3 17 226 295
3 73 262 204
3 111 266 203
3 74 216 299
3 99 299 216
3 116 307 248
3 111 271 266
3 73 233 262
3 126 262 233
3 96 243 261
3 20 261 243
3 87 278 199
3 131 310 195
3 25 230 272
3 95 272 230
3 100 305 263
3 45 266 271
3 97 245 312
3 158 312 245
3 92 218 258
3 144 196 301
3 89 275 284
3 31 241 301
3 132 285 222
3 62 222 285
3 84 301 241
3 46 280 308
3 82 244 253
3 85 207 290
3 112 272 274
3 95 274 272
3 85 292 209
3 80 281 218
3 89 257 309
3 44 303 224
3 84 241 267
3 28 227 284
3 79 311 240
3 43 274 246
3 95 246 274
3 25 272 260
3 112 260 272
3 96 287 243
3 151 243 287
3 112 294 298
3 102 298 294
3 112 274 294
3 43 294 274
3 129 309 257
3 85 290 292
3 117 292 290
3 110 308 297
3 118 297 308
CELL_TYPES 556
5 5 5 5 5 5 5 5 5 5 5 5 5 5 5 5 5 5 5 5 5 5 5 5 5 5 5 5 5 5 5 5 5 5 5 5 5 5 5 5 5 5 5 5 5 5 5 5 5 5 5 5 5 5 5 5 5 5 5 5 5 5 5 5 5 5 5 5 5 5 5 5 5 5 5 5 5 5 5 5 5 5 5 5 5 5 5 5 5 5 5 5 5 5 5 5 5 5 5 5 5 5 5 5 5 5 5 5 5 5 5 5 5 5 5 5 5 5 5 5 5 5 5 5 5 5 5 5 5 5 5 5 5 5 5 5 5 5 5 5 5 5 5 5 5 5 5 5 5 5 5 5 5 5 5 5 5 5 5 5 5 5 5 5 5 5 5 5 5 5 5 5 5 5 5 5 5 5 5 5 5 5 5 5 5 5 5 5 5 5 5 5 5 5 5 5 5 5 5 5 5 5 5 5 5 5 5 5 5 5 5 5 5 5 5 5 5 5 5 5 5 5 5 5 5 5 5 5 5 5 5 5 5 5 5 5 5 5 5 5 5 5 5 5 5 5 5 5 5 5 5 5 5 5 5 5 5 5 5 5 5 5 5 5 5 5 5 5 5 5 5 5 5 5 5 5 5 5 5 5 5 5 5 5 5 5 5 5 5 5 5 5 5 5 5 5 5 5 5 5 5 5 5 5 5 5 5 5 5 5 5 5 5 5 5 5 5 5 5 5 5 5 5 5 5 5 5 5 5 5 5 5 5 5 5 5 5 5 5 5 5 5 5 5 5 5 5 5 5 5 5 5 5 5 5 5 5 5 5 5 5 5 5 5 5 5 5 5 5 5 5 5 5 5 5 5 5 5 5 5 5 5 5 5 5 5 5 5 5 5 5 5 5 5 5 5 5 5 5 5 5 5 5 5 5 5 5 5 5 5 5 5 5 5 5 5 5 5 5 5 5 5 5 5 5 5 5 5 5 5 5 5 5 5 5 5 5 5 5 5 5 5 5 5 5 5 5 5 5 5 5 5 5 5 5 5 5 5 5 5 5 5 5 5 5 5 5 5 5 5 5 5 5 5 5 5 5 5 5 5 5 5 5 5 5 5 5 5 5 5 5 5 5 5 5 5 5 5 5 5 5 5 5 5 5 5 5 5 5 5 5 5 5 5 5 5 5 5 5 5 5 5 5 5 5 5 5 5 5 5 5 5 5 5 5 5 5 5 5 5 5 5 5 5 5 5 5 5 5 5 5 5 5 5 5 5 
POINT_DATA 314
VECTORS displacement_ITER1 FLOAT
 -7.490318e-04  2.007255e-03  0 
 -8.958902e-04  1.993953e-03  0 
 -1.030833e-03  1.961250e-03  0 
 -1.162607e-03  1.928887e-03  0 
 -1.306348e-03  1.910807e-03  0 
 -1.485154e-03  1.884094e-03  0 
 2.488054e-03  8.172911e-04  0 
 2.196797e-03  1.115352e-03  0 
 1.960501e-03  1.329430e-03  0 
 1.761935e-03  1.493073e-03  0 
 1.583916e-03  1.645558e-03  0 
 1.416961e-03  1.775628e-03  0 
 1.261728e-03  1.890150e-03  0 
 1.115780e-03  1.989649e-03  0 
 9.797947e-04  2.073091e-03  0 
 8.536223e-04  2.144678e-03  0 
 7.365381e-04  2.203053e-03  0 
 6.287941e-04  2.250493e-03  0 
 5.308347e-04  2.289124e-03  0 
 4.410401e-04  2.319723e-03  0 
 3.551896e-04  2.340967e-03  0 
 2.664582e-04  2.345454e-03  0 
 1.746702e-04  2.325601e-03  0 
 5.726584e-05  2.197127e-03  0 
 -5.234045e-04  2.044887e-03  0 
 3.920714e-04  2.026209e-03  0 
 -1.012604e-03  1.608654e-03  0 
 2.836540e-04  2.313879e-03  0 
 9.337829e-04  1.460364e-03  0 
 -1.029755e-04  2.168273e-03  0 
 -2.286632e-04  1.869916e-03  0 
 -6.298096e-04  2.070968e-03  0 
 6.080148e-04  2.154935e-03  0 
 -9.255204e-04  1.945421e-03  0 
 2.260060e-04  2.355825e-03  0 
 9.267021e-04  1.865150e-03  0 
 3.695431e-04  1.722169e-03  0 
 5.799644e-04  1.143525e-03  0 
 -3.606028e-04  2.192187e-03  0 
 1.211359e-04  2.280583e-03  0 
 -6.112750e-04  1.816695e-03  0 
 4.874500e-04  2.275377e-03  0 
 1.311448e-03  1.540905e-03  0 
 3.448146e-04  2.208663e-03  0 
 -5.956431e-04  1.522619e-03  0 
 5.479212e-05  2.025237e-03  0 
 6.179733e-04  1.823179e-03  0 
 -1.241223e-03  1.851750e-03  0 
 -8.550346e-04  2.012324e-03  0 
 -2.962038e-04  2.054727e-03  0 
 3.539481e-04  2.335951e-03  0 
 8.942929e-04  2.029179e-03  0 
 -4.824151e-04  2.119730e-03  0 
 1.284031e-04  2.141464e-03  0 
 -1.821291e-04  2.266252e-03  0 
 -7.003893e-04  2.038263e-03  0 
 6.207849e-04  2.032554e-03  0 
 4.133922e-06  1.662101e-03  0 
 1.768544e-03  1.145032e-03  0 
 -8.699283e-04  1.829957e-03  0 
 5.518869e-04  1.481317e-03  0 
 1.339604e-04  2.372777e-03  0 
 6.793006e-04  2.192465e-03  0 
 -6.070854e-04  2.050540e-03  0 
 2.216084e-04  2.340937e-03  0 
 2.513988e-04  2.351921e-03  0 
 -3.589842e-04  1.683154e-03  0 
 4.327380e-04  2.255160e-03  0 
 2.805672e-04  1.388957e-03  0 
 -1.073730e-03  1.947469e-03  0 
 1.246675e-03  1.763040e-03  0 
 1.290118e-03  1.275707e-03  0 
 -7.028229e-04  1.959542e-03  0 
 -3.782427e-04  2.124566e-03  0 
 -4.664737e-04  1.948316e-03  0 
 7.998560e-05  1.870410e-03  0 
 9.605412e-04  1.687034e-03  0 
 3.456911e-04  2.320395e-03  0 
 1.492070e-04  2.346337e-03  0 
 -1.098990e-03  1.785053e-03  0 
 1.865885e-04  2.324552e-03  0 
 2.922411e-04  1.919590e-03  0 
 -5.515781e-04  2.097952e-03  0 
 -4.610109e-05  2.322161e-03  0 
 -5.194076e-04  2.078935e-03  0 
 -7.594269e-04  1.656613e-03  0 
 8.819198e-04  1.259990e-03  0 
 -1.158157e-05  2.231567e-03  0 
 -2.452147e-04  2.193343e-03  0 
 6.586048e-04  1.644706e-03  0 
 4.831264e-04  2.297366e-03  0 
 2.904122e-04  2.276037e-03  0 
 1.886564e-04  2.331431e-03  0 
 -7.493729e-04  2.025362e-03  0 
 -9.170709e-05  1.990370e-03  0 
 4.653615e-04  2.109725e-03  0 
 3.187498e-04  2.350172e-03  0 
 1.111857e-03  1.892905e-03  0 
 1.699124e-03  1.399075e-03  0 
 -3.858171e-04  1.841066e-03  0 
 8.605486e-04  2.089052e-03  0 
 6.232383e-04  2.236085e-03  0 
 2.030541e-04  2.234143e-03  0 
 7.236705e-04  2.069567e-03  0 
 1.933883e-04  2.375615e-03  0 
 -7.518037e-04  2.039438e-03  0 
 -3.675604e-04  1.531756e-03  0 
 -1.033261e-05  2.134164e-03  0 
 5.565934e-04  2.223700e-03  0 
 -4.460469e-04  2.140577e-03  0 
 5.196219e-04  1.972785e-03  0 
 1.833744e-04  2.070699e-03  0 
 2.962095e-04  2.150526e-03  0 
 2.002403e-03  9.017511e-04  0 
 -2.508925e-04  2.250879e-03  0 
 1.188527e-03  1.466704e-03  0 
 2.993178e-04  2.340183e-03  0 
 -5.254071e-04  1.682075e-03  0 
 7.665600e-04  1.889519e-03  0 
 2.104014e-04  1.561550e-03  0 
 -1.222847e-03  1.907305e-03  0 
 -1.796814e-04  2.293834e-03  0 
 4.649241e-04  2.199022e-03  0 
 1.447205e-03  1.634051e-03  0 
 -9.514710e-04  1.987132e-03  0 
 1.276425e-03  1.056400e-03  0 
 -2.351837e-04  2.107982e-03  0 
 -1.085656e-03  1.871929e-03  0 
 1.104229e-03  1.725347e-03  0 
 4.602962e-04  1.804553e-03  0 
 -2.832595e-04  1.974267e-03  0 
 -8.020515e-04  1.972390e-03  0 
 7.616123e-04  2.100274e-03  0 
 -8.694237e-04  1.996656e-03  0 
 -1.303303e-04  2.118027e-03  0 
 -5.608401e-04  2.097580e-03  0 
 2.091392e-04  2.311502e-03  0 
 -6.929419e-04  2.050876e-03  0 
 5.433265e-04  2.126079e-03  0 
 -4.441315e-04  2.112763e-03  0 
 -5.836663e-04  1.926950e-03  0 
 2.924903e-04  2.349414e-03  0 
 3.685941e-04  2.298474e-03  0 
 2.885748e-05  1.474735e-03  0 
 -5.452289e-04  2.061056e-03  0 
 -1.778547e-04  1.745959e-03  0 
 -4.056423e-04  2.063620e-03  0 
 9.556450e-04  1.939173e-03  0 
 6.663527e-05  2.338102e-03  0 
 -1.100750e-04  2.230653e-03  0 
 1.370194e-03  1.374140e-03  0 
 4.163772e-04  2.324041e-03  0 
 -4.266328e-04  2.179897e-03  0 
 4.301060e-04  2.304631e-03  0 
 7.807024e-04  1.973286e-03  0 
 7.565383e-04  1.701191e-03  0 
 -1.371035e-03  1.888301e-03  0 
 -8.825866e-04  1.715558e-03  0 
 9.905126e-04  2.019008e-03  0 
 -1.974721e-04  1.602585e-03  0 
 1.711471e-03  9.782977e-04  0 
 1.768043e-04  1.728280e-03  0 
 -6.330867e-04  2.027925e-03  0 
 4.768126e-04  1.341258e-03  0 
 1.054810e-03  1.285342e-03  0 
 1.871253e-03  1.251577e-03  0 
 1.724361e-04  2.358884e-03  0 
 -7.244602e-04  1.868581e-03  0 
 -6.502254e-04  2.067439e-03  0 
 2.785656e-04  2.328915e-03  0 
 2.114362e-04  2.287620e-03  0 
 -9.561857e-04  1.878973e-03  0 
 5.135993e-04  1.620042e-03  0 
 4.535526e-04  1.926108e-03  0 
 -1.128909e-03  1.904242e-03  0 
 3.371206e-04  1.200456e-03  0 
 1.414708e-04  1.941714e-03  0 
 1.964845e-04  2.349510e-03  0 
 1.650894e-04  2.343933e-03  0 
 -7.051115e-05  1.908580e-03  0 
 7.858474e-04  1.429846e-03  0 
 7.299541e-04  2.193618e-03  0 
 -4.722643e-04  2.098480e-03  0 
 1.035187e-04  2.222724e-03  0 
 3.652262e-04  2.248159e-03  0 
 -8.405540e-04  2.013741e-03  0 
 8.931146e-04  1.798036e-03  0 
 2.622438e-04  2.353149e-03  0 
 -1.077250e-03  1.952046e-03  0 
 -1.355743e-04  2.298395e-03  0 
 2.363044e-04  1.834578e-03  0 
 1.392534e-03  1.730202e-03  0 
 2.151467e-04  2.353881e-03  0 
 -4.043391e-05  1.804191e-03  0 
 5.804409e-04  2.238576e-03  0 
 -8.252202e-04  1.910552e-03  0 
 -6.228377e-04  2.060395e-03  0 
 3.305450e-04  2.286320e-03  0 
 -9.541434e-04  1.980157e-03  0 
 3.186952e-05  2.181038e-03  0 
 2.448643e-04  2.358255e-03  0 
 3.848933e-04  1.478344e-03  0 
 -3.086800e-04  2.247594e-03  0 
 2.828312e-04  2.008805e-03  0 
 -3.337850e-04  2.171669e-03  0 
 1.467067e-03  1.103017e-03  0 
 -8.796776e-04  1.565503e-03  0 
 -7.387225e-04  1.509481e-03  0 
 -5.867363e-04  1.994111e-03  0 
 -7.365697e-04  1.764016e-03  0 
 1.068794e-03  1.835862e-03  0 
 4.553657e-04  2.269998e-03  0 
 2.402882e-05  2.277821e-03  0 
 -9.941447e-04  1.757633e-03  0 
 -1.009351e-03  1.945378e-03  0 
 6.724172e-04  1.315511e-03  0 
 -4.916911e-04  1.874591e-03  0 
 5.148797e-04  2.210102e-03  0 
 2.247612e-04  2.324208e-03  0 
 1.308678e-03  1.649109e-03  0 
 1.263914e-03  1.833200e-03  0 
 1.046577e-03  1.119310e-03  0 
 6.619849e-04  2.171173e-03  0 
 -4.764570e-04  1.595639e-03  0 
 -4.930185e-04  1.456987e-03  0 
 -8.205777e-05  2.272263e-03  0 
 5.622675e-04  2.271961e-03  0 
 9.832416e-04  1.558087e-03  0 
 1.251020e-04  1.315912e-03  0 
 -5.005464e-04  2.126293e-03  0 
 4.980395e-04  2.038417e-03  0 
 1.432592e-04  2.345499e-03  0 
 -2.750016e-04  2.219450e-03  0 
 -3.224873e-04  2.102482e-03  0 
 -4.901265e-04  2.001002e-03  0 
 -3.844279e-04  2.000092e-03  0 
 1.121109e-03  1.596955e-03  0 
 -4.827276e-04  1.776086e-03  0 
 4.170057e-04  2.295548e-03  0 
 -6.901167e-04  2.022285e-03  0 
 -1.119313e-03  1.672453e-03  0 
 -5.581786e-04  2.085528e-03  0 
 1.466453e-04  2.318293e-03  0 
 3.670043e-04  2.340515e-03  0 
 -6.235523e-04  2.061719e-03  0 
 1.124261e-03  1.940656e-03  0 
 4.350007e-04  2.163788e-03  0 
 3.593764e-04  2.327397e-03  0 
 2.734963e-04  2.337851e-03  0 
 -7.953834e-04  2.005280e-03  0 
 -1.218016e-03  1.782598e-03  0 
 -4.994723e-05  2.049620e-03  0 
 5.272698e-04  2.273225e-03  0 
 -5.620880e-04  2.068095e-03  0 
 -2.949964e-04  1.785343e-03  0 
 8.360394e-04  2.013021e-03  0 
 2.804996e-04  2.248617e-03  0 
 5.998996e-04  1.738407e-03  0 
 2.385604e-04  2.329301e-03  0 
 -1.922619e-04  2.222690e-03  0 
 2.625709e-04  2.102382e-03  0 
 3.093489e-04  2.350483e-03  0 
 -2.851718e-04  2.148487e-03  0 
 8.291470e-04  2.134075e-03  0 
 1.101945e-03  1.398075e-03  0 
 -6.911878e-04  2.041332e-03  0 
 1.689758e-04  2.012474e-03  0 
 -5.093803e-04  2.100102e-03  0 
 4.855151e-04  2.302459e-03  0 
 1.524021e-03  1.209758e-03  0 
 1.496808e-03  1.520563e-03  0 
 8.756709e-05  2.081598e-03  0 
 3.682288e-04  2.101761e-03  0 
 -1.859901e-04  2.175948e-03  0 
 3.647034e-04  2.157870e-03  0 
 6.620674e-04  1.547983e-03  0 
 2.767038e-04  2.354644e-03  0 
 1.637204e-03  1.509885e-03  0 
 -4.619645e-05  2.199296e-03  0 
 -1.831924e-04  2.039423e-03  0 
 7.614770e-04  1.804932e-03  0 
 2.499708e-04  2.306296e-03  0 
 1.574166e-03  1.358826e-03  0 
 3.675046e-04  1.600973e-03  0 
 8.009775e-04  1.564660e-03  0 
 7.594907e-04  2.139221e-03  0 
 1.636604e-04  2.334918e-03  0 
 3.601237e-04  2.339507e-03  0 
 -1.171145e-03  1.929387e-03  0 
 8.876307e-06  1.968186e-03  0 
 -6.323519e-04  1.617101e-03  0 
 -1.719100e-04  1.959263e-03  0 
 -6.389707e-04  1.718140e-03  0 
 -2.253729e-04  2.276463e-03  0 
 2.815957e-04  2.197754e-03  0 
 6.551197e-04  2.233557e-03  0 
 2.051588e-03  1.081582e-03  0 
 6.322874e-04  1.970303e-03  0 
 2.070759e-04  2.182595e-03  0 
 -3.754423e-04  1.921112e-03  0 
 -7.670562e-04  2.032173e-03  0 
 -5.738850e-04  2.072242e-03  0 
 -7.179884e-04  2.003720e-03  0 
 -6.298519e-04  1.417791e-03  0 
 4.140554e-04  2.318333e-03  0 
 9.454144e-04  2.068222e-03  0 
 1.308741e-04  2.355284e-03  0 
 2.479430e-04  2.347640e-03  0 
 6.302875e-04  1.901236e-03  0 
 5.105940e-04  1.709572e-03  0 
 -8.770759e-04  1.927999e-03  0 
 -1.232299e-03  1.706496e-03  0 
 1.016377e-03  1.966318e-03  0 
 6.411407e-04  2.073734e-03  0 
VECTORS displacement_ITER2 FLOAT
 -9.917727e-04  2.015303e-03  0 
 -1.145612e-03  1.936931e-03  0 
 -1.301194e-03  1.839026e-03  0 
 -1.471886e-03  1.724791e-03  0 
 -1.664512e-03  1.587369e-03  0 
 -1.875861e-03  1.391141e-03  0 
 2.235493e-03  1.023338e-03  0 
 1.986054e-03  1.246659e-03  0 
 1.781463e-03  1.406540e-03  0 
 1.606612e-03  1.531158e-03  0 
 1.448436e-03  1.648207e-03  0 
 1.299684e-03  1.749185e-03  0 
 1.161083e-03  1.838489e-03  0 
 1.031114e-03  1.916348e-03  0 
 9.106650e-04  1.981973e-03  0 
 8.003106e-04  2.039215e-03  0 
 6.996269e-04  2.087395e-03  0 
 6.096114e-04  2.128668e-03  0 
 5.308387e-04  2.166245e-03  0 
 4.625640e-04  2.201320e-03  0 
 4.018008e-04  2.235798e-03  0 
 3.447739e-04  2.266809e-03  0 
 2.887280e-04  2.291358e-03  0 
 2.220707e-04  2.270854e-03  0 
 -4.334633e-04  1.984404e-03  0 
 4.374264e-04  1.961718e-03  0 
 -9.681018e-04  1.388088e-03  0 
 2.737320e-04  2.187897e-03  0 
 9.586622e-04  1.508979e-03  0 
 -1.380379e-05  2.096630e-03  0 
 -1.040281e-04  1.808313e-03  0 
 -6.529482e-04  2.090104e-03  0 
 5.962640e-04  2.053895e-03  0 
 -9.439171e-04  1.799451e-03  0 
 2.082840e-04  2.267235e-03  0 
 9.024987e-04  1.825975e-03  0 
 4.493509e-04  1.711480e-03  0 
 6.868277e-04  1.184979e-03  0 
 -2.619704e-04  2.157130e-03  0 
 1.559422e-04  2.168901e-03  0 
 -5.112710e-04  1.704828e-03  0 
 4.744102e-04  2.151107e-03  0 
 1.254140e-03  1.573338e-03  0 
 3.625934e-04  2.105776e-03  0 
 -4.782691e-04  1.395179e-03  0 
 1.461915e-04  1.964316e-03  0 
 6.536574e-04  1.797056e-03  0 
 -1.348051e-03  1.546539e-03  0 
 -9.614765e-04  1.946674e-03  0 
 -1.865800e-04  1.994494e-03  0 
 3.546447e-04  2.219428e-03  0 
 8.511913e-04  1.950974e-03  0 
 -4.318101e-04  2.159030e-03  0 
 1.938101e-04  2.063128e-03  0 
 -9.791988e-05  2.182276e-03  0 
 -6.741619e-04  1.977984e-03  0 
 6.276839e-04  1.961064e-03  0 
 1.325080e-04  1.634026e-03  0 
 1.663455e-03  1.272163e-03  0 
 -8.215813e-04  1.666995e-03  0 
 6.288550e-04  1.518332e-03  0 
 9.197399e-05  2.312220e-03  0 
 6.512880e-04  2.079686e-03  0 
 -7.131109e-04  2.123800e-03  0 
 1.956674e-04  2.220451e-03  0 
 2.678812e-04  2.290372e-03  0 
 -2.237089e-04  1.605943e-03  0 
 4.263384e-04  2.136399e-03  0 
 3.739212e-04  1.430608e-03  0 
 -1.229691e-03  1.772771e-03  0 
 1.171286e-03  1.742754e-03  0 
 1.269990e-03  1.370053e-03  0 
 -6.387593e-04  1.857886e-03  0 
 -2.766725e-04  2.077491e-03  0 
 -3.583704e-04  1.870973e-03  0 
 1.849395e-04  1.825595e-03  0 
 9.539099e-04  1.688017e-03  0 
 3.333257e-04  2.196034e-03  0 
 9.894650e-05  2.262430e-03  0 
 -1.108385e-03  1.550144e-03  0 
 1.905114e-04  2.194979e-03  0 
 3.661356e-04  1.874345e-03  0 
 -4.848165e-04  2.072417e-03  0 