# vtk DataFile Version 3.1
this is an vtk file created by FEMAC
ASCII
DATASET UNSTRUCTURED_GRID
POINTS 316 FLOAT
4.842952 2.776870 0.000000
4.823012 2.822574 0.000000
4.801938 2.867767 0.000000
4.779744 2.912421 0.000000
4.756443 2.956508 0.000000
4.732051 3.000000 0.000000
4.706582 3.042870 0.000000
4.680052 3.085093 0.000000
4.652478 3.126640 0.000000
4.623876 3.167487 0.000000
4.594265 3.207609 0.000000
4.563663 3.246980 0.000000
3.947927 2.318487 0.000000
3.930874 2.365341 0.000000
3.911506 2.411287 0.000000
3.889872 2.456211 0.000000
3.866025 2.500000 0.000000
3.840026 2.542546 0.000000
3.811938 2.583744 0.000000
3.781831 2.623490 0.000000
3.749781 2.661686 0.000000
3.715867 2.698237 0.000000
3.680173 2.733052 0.000000
4.309636 2.716077 0.000000
4.305052 3.049076 0.000000
4.024510 2.808388 0.000000
4.233241 2.424511 0.000000
4.502263 2.886143 0.000000
4.074356 2.594759 0.000000
4.392002 2.535709 0.000000
4.208190 2.874727 0.000000
4.648933 2.770026 0.000000
4.480187 3.058979 0.000000
4.131019 3.030830 0.000000
4.475407 2.725807 0.000000
3.869651 2.771325 0.000000
3.968112 2.967208 0.000000
4.074482 2.433640 0.000000
4.233008 2.588067 0.000000
4.156921 2.722309 0.000000
4.361211 2.860425 0.000000
3.936656 2.650073 0.000000
4.636968 2.901180 0.000000
4.082828 2.907668 0.000000
4.075213 2.304882 0.000000
4.406702 2.970919 0.000000
4.580970 3.007167 0.000000
3.990645 2.514189 0.000000
4.041045 2.709624 0.000000
4.402562 2.639354 0.000000
4.150118 2.514522 0.000000
4.301406 2.499243 0.000000
4.278838 2.949275 0.000000
4.746298 2.746921 0.000000
4.124284 2.821608 0.000000
4.569530 2.699749 0.000000
4.552528 2.785981 0.000000
4.234440 2.781743 0.000000
4.388417 3.109833 0.000000
4.398616 2.772389 0.000000
4.513524 3.153063 0.000000
4.163108 2.357051 0.000000
4.722630 2.831102 0.000000
3.964603 2.745566 0.000000
4.078766 2.215356 0.000000
3.858964 2.687172 0.000000
4.324813 2.595076 0.000000
4.159213 2.633964 0.000000
4.202776 2.969205 0.000000
4.242059 2.669652 0.000000
4.506838 2.976730 0.000000
4.220917 3.050131 0.000000
4.571020 3.097338 0.000000
4.015815 2.371868 0.000000
3.922111 2.564356 0.000000
3.792749 2.744513 0.000000
4.467067 2.814359 0.000000
4.010998 2.897149 0.000000
4.070316 2.513209 0.000000
4.431079 2.901889 0.000000
3.996758 2.591443 0.000000
4.152443 2.434283 0.000000
4.317573 2.793297 0.000000
4.659471 2.973524 0.000000
4.228276 2.497917 0.000000
4.280810 2.860750 0.000000
4.364037 2.458644 0.000000
3.981663 2.439214 0.000000
4.564402 2.932159 0.000000
4.094414 2.759516 0.000000
4.609568 2.829708 0.000000
4.036127 2.960330 0.000000
3.954277 2.816579 0.000000
4.704144 2.910292 0.000000
3.873703 2.613401 0.000000
4.108067 2.681635 0.000000
4.454701 3.121648 0.000000
4.373987 3.032714 0.000000
4.137905 2.290626 0.000000
4.157142 2.914640 0.000000
4.368192 2.939983 0.000000
4.382763 2.712110 0.000000
4.306718 3.107409 0.000000
4.052902 2.160644 0.000000
4.303929 2.655216 0.000000
4.107022 2.374282 0.000000
4.027900 2.268894 0.000000
4.259702 2.991388 0.000000
4.507670 3.212682 0.000000
4.078702 2.859182 0.000000
4.130187 2.576610 0.000000
4.178432 2.788012 0.000000
4.528998 2.666632 0.000000
4.101691 2.989402 0.000000
3.911106 2.692611 0.000000
4.291890 2.435227 0.000000
4.022525 2.670435 0.000000
4.768274 2.808191 0.000000
4.333744 2.992928 0.000000
4.415370 2.823087 0.000000
3.929933 2.503146 0.000000
4.456035 3.005970 0.000000
4.450071 2.661246 0.000000
4.651394 3.041633 0.000000
4.567631 2.866162 0.000000
4.219177 2.728059 0.000000
4.540785 3.048901 0.000000
4.012113 2.755971 0.000000
4.223986 2.367646 0.000000
4.546547 2.742741 0.000000
3.728796 2.753086 0.000000
4.026713 2.469686 0.000000
4.456536 2.947645 0.000000
4.384066 2.590380 0.000000
3.956060 2.906991 0.000000
4.120755 2.200827 0.000000
3.808028 2.799257 0.000000
4.062042 2.642980 0.000000
4.703120 2.784472 0.000000
4.596380 2.758060 0.000000
4.580877 3.153095 0.000000
4.342404 2.541518 0.000000
4.283705 2.554291 0.000000
4.434518 3.046606 0.000000
3.903674 2.821104 0.000000
4.236132 2.923337 0.000000
3.801900 2.684070 0.000000
4.003009 2.316474 0.000000
4.187600 2.554854 0.000000
4.112630 2.474211 0.000000
4.126860 2.877634 0.000000
4.443874 2.609067 0.000000
4.196397 2.689280 0.000000
4.518015 3.102128 0.000000
3.962667 2.691986 0.000000
4.029749 2.555572 0.000000
4.098347 2.265907 0.000000
4.430619 2.730164 0.000000
4.610037 2.956229 0.000000
4.660771 2.820890 0.000000
4.210007 2.632107 0.000000
4.074748 2.805246 0.000000
4.353324 2.665264 0.000000
4.267803 2.736777 0.000000
4.625425 3.085235 0.000000
4.153529 2.984546 0.000000
4.520586 2.838846 0.000000
4.170397 2.841386 0.000000
4.241672 2.836931 0.000000
3.839881 2.728703 0.000000
4.503421 2.769905 0.000000
4.278795 2.605340 0.000000
3.977441 2.861644 0.000000
4.347104 2.751659 0.000000
4.791211 2.769561 0.000000
4.350918 3.072509 0.000000
4.361846 2.807965 0.000000
4.199677 2.458887 0.000000
4.752861 2.871758 0.000000
4.188841 3.017640 0.000000
4.350284 2.419092 0.000000
4.107503 2.640784 0.000000
3.836269 2.634622 0.000000
4.458996 2.862808 0.000000
4.324012 2.899769 0.000000
4.261466 3.076588 0.000000
4.025116 2.418817 0.000000
3.917692 2.772974 0.000000
4.023069 2.210925 0.000000
4.707442 2.956756 0.000000
4.189655 2.403039 0.000000
3.979472 2.394271 0.000000
4.550075 3.183818 0.000000
4.555055 2.972711 0.000000
4.673076 2.870597 0.000000
3.937349 2.456252 0.000000
4.265782 2.391473 0.000000
3.892102 2.652116 0.000000
3.968373 2.555660 0.000000
3.951893 2.600809 0.000000
4.405645 2.489216 0.000000
4.108696 2.531374 0.000000
4.513714 2.931556 0.000000
4.137069 2.767672 0.000000
4.447288 2.772985 0.000000
4.059487 2.342916 0.000000
4.253455 2.468919 0.000000
4.350316 3.123335 0.000000
4.278640 2.814743 0.000000
3.879041 2.571165 0.000000
4.610735 3.125959 0.000000
4.502925 3.019261 0.000000
3.760189 2.706047 0.000000
4.095134 2.167639 0.000000
4.421061 2.686118 0.000000
4.274175 2.696847 0.000000
4.181456 2.596543 0.000000
4.116324 2.332229 0.000000
4.320682 2.839491 0.000000
4.595022 3.050690 0.000000
3.983691 2.784002 0.000000
4.004260 2.939795 0.000000
4.044829 2.924172 0.000000
4.667767 2.932165 0.000000
4.033399 2.612630 0.000000
4.384024 2.897687 0.000000
4.113622 2.414663 0.000000
4.230867 2.536031 0.000000
4.592384 2.801050 0.000000
3.896581 2.529988 0.000000
4.406063 3.018564 0.000000
4.354904 2.625924 0.000000
4.355031 2.497954 0.000000
4.470695 2.906711 0.000000
4.272823 2.902193 0.000000
3.887046 2.731757 0.000000
4.029523 2.852170 0.000000
4.002266 2.716565 0.000000
4.686630 3.003388 0.000000
4.124181 2.943164 0.000000
4.592270 2.903017 0.000000
3.975620 2.350841 0.000000
4.081744 2.721936 0.000000
4.204672 2.323734 0.000000
4.422846 2.567889 0.000000
4.168202 2.881718 0.000000
4.065924 2.392698 0.000000
4.405886 2.931136 0.000000
3.858539 2.810960 0.000000
3.909251 2.608653 0.000000
3.972708 2.477064 0.000000
4.305697 2.755764 0.000000
4.569568 2.825752 0.000000
4.132921 2.241562 0.000000
4.145170 2.396664 0.000000
4.145145 2.676898 0.000000
4.190568 2.919548 0.000000
4.076802 2.553732 0.000000
4.070017 2.473300 0.000000
4.159738 2.474929 0.000000
4.055002 2.763115 0.000000
4.242011 2.964348 0.000000
4.629407 3.002435 0.000000
4.120560 2.721661 0.000000
4.029685 2.510431 0.000000
4.299583 2.998984 0.000000
4.371288 2.993392 0.000000
4.190132 2.511751 0.000000
4.252120 2.631212 0.000000
4.259823 3.030520 0.000000
4.261427 2.509354 0.000000
4.740058 2.918333 0.000000
4.007684 2.978555 0.000000
4.247925 2.879587 0.000000
4.328690 2.462700 0.000000
4.040775 2.303363 0.000000
4.187959 2.748683 0.000000
4.204670 2.819603 0.000000
4.075684 2.953657 0.000000
4.432460 3.092297 0.000000
3.983983 2.636229 0.000000
4.623380 2.865259 0.000000
4.541252 2.898391 0.000000
3.947929 2.416768 0.000000
4.226232 3.002127 0.000000
4.775245 2.841949 0.000000
4.478117 3.100873 0.000000
4.517347 2.707702 0.000000
4.339095 3.023267 0.000000
4.061834 2.254425 0.000000
3.992509 2.825676 0.000000
4.327496 2.956422 0.000000
3.995689 2.254505 0.000000
4.537315 3.004954 0.000000
4.107519 2.789106 0.000000
4.626355 2.799031 0.000000
4.049376 2.888068 0.000000
3.833319 2.765922 0.000000
4.047161 2.998483 0.000000
3.848196 2.589095 0.000000
3.928623 2.726979 0.000000
4.487855 2.684786 0.000000
4.277308 2.776856 0.000000
4.453650 2.698480 0.000000
4.544916 3.135486 0.000000
4.410136 2.869179 0.000000
4.167185 2.272949 0.000000
4.247447 2.706511 0.000000
4.716527 2.876252 0.000000
4.168248 2.949864 0.000000
4.742406 2.784780 0.000000
4.344789 2.700137 0.000000
4.163530 2.318075 0.000000
4.070902 2.679894 0.000000
4.397727 3.062087 0.000000
4.478366 3.143097 0.000000
CELLS 555 2220 
3 137 313 116
3 116 313  48
3 257 201 110
3 217  44 156
3 98 217 156
3 276  39 152
3 28 257 110
3 214 162  49
3 101 162 214
3 125 276 152
3 100 184 225
3 281 240 124
3 239  43 150
3 99 239 150
3 236  25 161
3 48 242 260
3 45 266 100
3 109 236 161
3 225 184  40
3 56 166 170
3 90 281 124
3 59 204 119
3 76 119 204
3 42 223 158
3 28 110 181
3 67 181 110
3 66 141 133
3 29 133 141
3 29 232 200
3 48 260 127
3 282  27 166
3 42 158 240
3 29 141 232
3 1 117 174
3 56 129 139
3 15 120  16
3 45 132 121
3 70 121 132
3 94 197 182
3 65 182 197
3 74 120 198
3 47 198 120
3 100 266 291
3 124 282 166
3 52 265 107
3 76 170 166
3 51 141 142
3 66 142 141
3 70 132 202
3 54 150 109
3 43 109 150
3 59 173 101
3 118 291 266
3 64 188 103
3 23 104 311
3 49 151 122
3 64 135 253
3 66 231 104
3 59 101 157
3 92 187 220
3 50 148 110
3 64 253 156
3 34 170 204
3 19 182 146
3 6   7 123
3 132 233 202
3 32 126 153
3 72 153 126
3 62 310 117
3 63 220 187
3 32 143 121
3 26 196 115
3 48 237 116
3 41 154 114
3 19 146  20
3 28 224 155
3 73 147 205
3 11 108 192
3 55 287 112
3 115 180 274
3 66 104 171
3 62 117 285
3 24 175 102
3 51 206 115
3 55 139 129
3 52 291 265
3 54 109 161
3 49 133 151
3 9  10 140
3 24 102 185
3 57 111 276
3 76 183 119
3 125 152 307
3 69 307 152
3 62 138 310
3 45 100 247
3 262 219  46
3 34 204 157
3 147 275 205
3 69 268 104
3 93 223 194
3 61 105 217
3 54 111 167
3 106 188 289
3 60 192 108
3 69 104 215
3 23 215 104
3 64 103 213
3 83 158 223
3 33 113 165
3 106 147 292
3 21 130  22
3 61 254 105
3 54 203 111
3 104 162 311
3 7 164 123
3 52 107 261
3 65 114 235
3 123 219 262
3 42 194 223
3 88 240 158
3 0   1 174
3 55 129 287
3 41 280 154
3 116 154 280
3 295 228 139
3 62 285 178
3 56 170 129
3 118 265 291
3 47 155 198
3 80 198 155
3 287 170  34
3 129 170 287
3 16 120 229
3 81 149 226
3 280  80 224
3 28 155 257
3 57 276 125
3 54 167 150
3 65 197 114
3 41 114 197
3 116 280 224
3 140 192 304
3 40 176 119
3 116 237 154
3 75 146 169
3 65 169 146
3 43 296 109
3 50 110 201
3 32 279 143
3 59 119 176
3 31 295 139
3 67 110 216
3 78 149 201
3 50 201 149
3 57 277 111
3 57 125 163
3 304 192  60
3 10 192 140
3 32 286 279
3 80 155 224
3 21 212 130
3 87 191 186
3 73 186 191
3 76 166 183
3 27 183 166
3 74 249 209
3 137 181 313
3 31 138 159
3 62 159 138
3 106 292 188
3 67 160 152
3 69 152 160
3 51 115 274
3 313 181  95
3 37 226 149
3 65 146 182
3 64 289 188
3 6 123 238
3 26 115 206
3 60 315 153
3 47 250 131
3 262  83 238
3 153 315 286
3 92 144 187
3 61 128 190
3 123 262 238
3 87 131 250
3 104 231 162
3 15 195 120
3 40 184 218
3 89 260 242
3 75 130 212
3 56 139 228
3 1 285 117
3 70 211 121
3 32 121 211
3 39 263 255
3 44 217 205
3 105 205 217
3 77 221 134
3 36 134 221
3 82 173 176
3 59 176 173
3 40 119 305
3 77 134 172
3 148 267 227
3 114 154 300
3 47 120 250
3 74 229 120
3 38 142 171
3 66 171 142
3 63 300 154
3 87 186 131
3 37 131 186
3 25 127 260
3 45 121 230
3 49 122 214
3 44 275 289
3 46 219 126
3 72 126 219
3 94 209 249
3 30 167 277
3 30 277 168
3 26 190 128
3 95 255 263
3 25 220 127
3 63 237 127
3 28 181 137
3 124 166 252
3 51 270 206
3 33 165 179
3 116 224 137
3 26 206 177
3 84 177 206
3 85 218 184
3 26 128 196
3 7   8 164
3 38 148 227
3 38 216 148
3 44 289 156
3 113 298 278
3 90 124 252
3 86 274 180
3 18 182  19
3 46 126 293
3 81 190 177
3 26 177 190
3 119 183 305
3 53 310 138
3 79 132 247
3 45 247 132
3 32 211 126
3 88 158 193
3 46 193 158
3 84 227 267
3 10  11 192
3 65 235 169
3 49 231 133
3 64 213 135
3 63 127 220
3 150 167 245
3 70 202 193
3 88 193 202
3 35 187 144
3 81 259 149
3 48 127 237
3 123 164 219
3 16 229  17
3 38 160 216
3 97 175 288
3 61 243 128
3 133 244 151
3 76 204 170
3 95 181 255
3 47 131 264
3 67 255 181
3 101 173 311
3 104 268 171
3 68 179 165
3 52 261 145
3 68 256 145
3 39 255 152
3 17 229 209
3 9 140 210
3 13 283  14
3 51 142 270
3 37 258 131
3 25 260 161
3 66 133 231
3 79 233 132
3 75 297 136
3 40 218 176
3 29 244 133
3 72 210 140
3 56 252 166
3 63 154 237
3 28 137 224
3 105 226 246
3 2   3 178
3 13 191 283
3 24 269 265
3 82 176 218
3 71 179 284
3 4   5 189
3 53 174 310
3 117 310 174
3 24 288 175
3 71 284 269
3 14 195  15
3 30 273 145
3 77 172 236
3 98 156 253
3 110 148 216
3 20 146 212
3 86 200 232
3 37 246 226
3 72 140 304
3 18 299 182
3 75 212 146
3 35 235 187
3 27 202 233
3 177 267 259
3 62 194 159
3 84 267 177
3 79 305 183
3 97 314 175
3 38 268 160
3 38 227 142
3 51 232 141
3 50 149 259
3 91 278 298
3 49 162 231
3 121 143 230
3 58 207 175
3 23 311 173
3 73 241 147
3 23 163 215
3 38 171 268
3 90 159 281
3 85 168 208
3 52 145 234
3 59 157 204
3 106 289 275
3 4 189 271
3 54 294 203
3 172 290 236
3 24 185 269
3 35 144 248
3 30 145 256
3 102 175 207
3 12 147 241
3 68 145 261
3 101 214 157
3 93 194 308
3 72 304 153
3 72 164 210
3 57 208 168
3 52 184 291
3 100 291 184
3 74 199 249
3 93 271 189
3 8 210 164
3 57 168 277
3 39 276 203
3 111 203 276
3 106 275 147
3 85 208 218
3 136 297 248
3 113 239 165
3 99 150 245
3 50 267 148
3 78 264 258
3 67 216 160
3 131 258 264
3 37 149 258
3 78 258 149
3 3 271 178
3 187 235 300
3 74 198 199
3 80 199 198
3 58 175 314
3 178 271 308
3 159 194 281
3 8   9 210
3 1   2 285
3 72 219 164
3 73 246 186
3 96 279 286
3 46 293 193
3 88 282 240
3 61 217 312
3 60 153 304
3 107 265 269
3 20 212  21
3 82 218 208
3 75 169 297
3 67 152 255
3 98 253 306
3 94 182 299
3 124 240 282
3 12 241  13
3 32 153 286
3 78 155 264
3 105 254 226
3 78 257 155
3 61 190 254
3 44 205 275
3 79 183 233
3 27 233 183
3 68 309 256
3 47 264 155
3 83 189 238
3 5 238 189
3 83 223 189
3 93 189 223
3 142 227 270
3 46 158 262
3 83 262 158
3 13 241 191
3 64 156 289
3 35 169 235
3 35 248 297
3 73 205 246
3 100 225 247
3 30 245 167
3 34 157 303
3 23 173 251
3 82 251 173
3 120 195 250
3 23 251 163
3 25 290 220
3 73 191 241
3 89 161 260
3 43 222 296
3 143 314 230
3 85 184 234
3 52 234 184
3 69 160 268
3 5   6 238
3 90 295 159
3 31 159 295
3 17 299  18
3 101 311 162
3 30 168 273
3 85 273 168
3 145 273 234
3 97 230 314
3 89 294 161
3 54 161 294
3 125 307 163
3 57 163 302
3 68 165 309
3 111 277 167
3 14 283 195
3 77 222 221
3 91 221 222
3 42 240 281
3 93 308 271
3 35 297 169
3 81 177 259
3 25 236 290
3 37 186 246
3 165 239 309
3 105 246 205
3 40 305 225
3 62 308 194
3 81 254 190
3 50 259 267
3 92 290 172
3 43 239 278
3 113 278 239
3 2 178 285
3 94 249 197
3 41 197 249
3 3   4 271
3 74 209 229
3 71 269 185
3 68 284 179
3 95 263 242
3 62 178 308
3 98 312 217
3 78 201 257
3 70 193 293
3 17 209 299
3 80 280 199
3 87 250 195
3 99 245 256
3 30 256 245
3 41 249 199
3 45 230 266
3 97 266 230
3 98 306 312
3 89 263 203
3 39 203 263
3 107 269 284
3 82 208 302
3 84 206 270
3 163 307 215
3 87 283 191
3 96 286 315
3 63 187 300
3 51 274 232
3 99 309 239
3 70 293 211
3 92 220 290
3 87 195 283
3 42 281 194
3 88 202 282
3 79 247 225
3 41 199 280
3 56 228 252
3 90 252 228
3 91 298 272
3 36 221 272
3 91 272 221
3 27 282 202
3 58 314 279
3 143 279 314
3 81 226 254
3 99 256 309
3 82 302 251
3 91 222 278
3 43 278 222
3 114 300 235
3 89 203 294
3 157 214 303
3 84 270 227
3 126 211 293
3 57 302 208
3 89 242 263
3 118 266 288
3 97 288 266
3 77 296 222
3 94 299 209
3 118 288 265
3 24 265 288
3 86 232 274
3 85 234 273
3 122 303 214
3 90 228 295
3 69 215 307
3 77 236 296
3 68 261 284
3 107 284 261
3 79 225 305
3 109 296 236
3 95 242 313
3 163 251 302
3 48 313 242
3 61 312 243
3 34 301 287
3 112 287 301
3 122 301 303
3 34 303 301
CELL_TYPES 555
5 5 5 5 5 5 5 5 5 5 5 5 5 5 5 5 5 5 5 5 5 5 5 5 5 5 5 5 5 5 5 5 5 5 5 5 5 5 5 5 5 5 5 5 5 5 5 5 5 5 5 5 5 5 5 5 5 5 5 5 5 5 5 5 5 5 5 5 5 5 5 5 5 5 5 5 5 5 5 5 5 5 5 5 5 5 5 5 5 5 5 5 5 5 5 5 5 5 5 5 5 5 5 5 5 5 5 5 5 5 5 5 5 5 5 5 5 5 5 5 5 5 5 5 5 5 5 5 5 5 5 5 5 5 5 5 5 5 5 5 5 5 5 5 5 5 5 5 5 5 5 5 5 5 5 5 5 5 5 5 5 5 5 5 5 5 5 5 5 5 5 5 5 5 5 5 5 5 5 5 5 5 5 5 5 5 5 5 5 5 5 5 5 5 5 5 5 5 5 5 5 5 5 5 5 5 5 5 5 5 5 5 5 5 5 5 5 5 5 5 5 5 5 5 5 5 5 5 5 5 5 5 5 5 5 5 5 5 5 5 5 5 5 5 5 5 5 5 5 5 5 5 5 5 5 5 5 5 5 5 5 5 5 5 5 5 5 5 5 5 5 5 5 5 5 5 5 5 5 5 5 5 5 5 5 5 5 5 5 5 5 5 5 5 5 5 5 5 5 5 5 5 5 5 5 5 5 5 5 5 5 5 5 5 5 5 5 5 5 5 5 5 5 5 5 5 5 5 5 5 5 5 5 5 5 5 5 5 5 5 5 5 5 5 5 5 5 5 5 5 5 5 5 5 5 5 5 5 5 5 5 5 5 5 5 5 5 5 5 5 5 5 5 5 5 5 5 5 5 5 5 5 5 5 5 5 5 5 5 5 5 5 5 5 5 5 5 5 5 5 5 5 5 5 5 5 5 5 5 5 5 5 5 5 5 5 5 5 5 5 5 5 5 5 5 5 5 5 5 5 5 5 5 5 5 5 5 5 5 5 5 5 5 5 5 5 5 5 5 5 5 5 5 5 5 5 5 5 5 5 5 5 5 5 5 5 5 5 5 5 5 5 5 5 5 5 5 5 5 5 5 5 5 5 5 5 5 5 5 5 5 5 5 5 5 5 5 5 5 5 5 5 5 5 5 5 5 5 5 5 5 5 5 5 5 5 5 5 5 5 5 5 5 5 5 5 5 5 5 5 5 5 5 5 5 5 5 5 5 5 5 5 5 5 5 5 5 5 5 5 5 5 5 5 5 
POINT_DATA 316
VECTORS displacement_ITER1 FLOAT
 1.148124e-01  -1.138757e-01  0 
 1.176088e-01  -1.129323e-01  0 
 1.205048e-01  -1.118336e-01  0 
 1.233947e-01  -1.106111e-01  0 
 1.262821e-01  -1.092822e-01  0 
 1.291475e-01  -1.078523e-01  0 
 1.319860e-01  -1.063314e-01  0 
 1.347884e-01  -1.047273e-01  0 
 1.375538e-01  -1.030468e-01  0 
 1.402866e-01  -1.012970e-01  0 
 1.429913e-01  -9.947769e-02  0 
 1.456955e-01  -9.756579e-02  0 
 8.614140e-02  -5.865968e-02  0 
 8.896069e-02  -5.740668e-02  0 
 9.164150e-02  -5.593390e-02  0 
 9.429233e-02  -5.428891e-02  0 
 9.691503e-02  -5.250542e-02  0 
 9.947392e-02  -5.057242e-02  0 
 1.019751e-01  -4.849223e-02  0 
 1.044092e-01  -4.628366e-02  0 
 1.067684e-01  -4.392368e-02  0 
 1.090726e-01  -4.131916e-02  0 
 1.114318e-01  -3.847396e-02  0 
 1.106066e-01  -8.043890e-02  0 
 1.325557e-01  -8.034638e-02  0 
 1.164898e-01  -6.190418e-02  0 
 9.238435e-02  -7.558985e-02  0 
 1.217341e-01  -9.299555e-02  0 
 1.028050e-01  -6.551233e-02  0 
 9.920622e-02  -8.547726e-02  0 
 1.209388e-01  -7.393936e-02  0 
 1.142127e-01  -1.021659e-01  0 
 1.331477e-01  -9.183949e-02  0 
 1.313876e-01  -6.884646e-02  0 
 1.112811e-01  -9.106347e-02  0 
 1.140329e-01  -5.181779e-02  0 
 1.271692e-01  -5.786547e-02  0 
 9.288908e-02  -6.591473e-02  0 
 1.024344e-01  -7.555463e-02  0 
 1.109531e-01  -7.063790e-02  0 
 1.200222e-01  -8.387242e-02  0 
 1.062717e-01  -5.651573e-02  0 
 1.226962e-01  -1.016117e-01  0 
 1.231100e-01  -6.568406e-02  0 
 8.547115e-02  -6.639012e-02  0 
 1.273148e-01  -8.694513e-02  0 
 1.296727e-01  -9.822886e-02  0 
 9.778870e-02  -6.042077e-02  0 
 1.101003e-01  -6.315638e-02  0 
 1.057000e-01  -8.629946e-02  0 
 9.782574e-02  -7.041190e-02  0 
 9.694610e-02  -7.983509e-02  0 
 1.258829e-01  -7.857777e-02  0 
 1.128665e-01  -1.080503e-01  0 
 1.174084e-01  -6.846089e-02  0 
 1.096105e-01  -9.702485e-02  0 
 1.152043e-01  -9.607087e-02  0 
 1.148368e-01  -7.563152e-02  0 
 1.366501e-01  -8.594312e-02  0 
 1.142842e-01  -8.618944e-02  0 
 1.393716e-01  -9.414770e-02  0 
 8.840899e-02  -7.134680e-02  0 
 1.181539e-01  -1.068418e-01  0 
 1.124014e-01  -5.810367e-02  0 
 8.091688e-02  -6.685306e-02  0 
 1.085999e-01  -5.130226e-02  0 
 1.028963e-01  -8.133899e-02  0 
 1.053029e-01  -7.085299e-02  0 
 1.272236e-01  -7.359127e-02  0 
 1.076037e-01  -7.611331e-02  0 
 1.276905e-01  -9.342666e-02  0 
 1.326477e-01  -7.479008e-02  0 
 1.356427e-01  -9.774981e-02  0 
 8.926596e-02  -6.262662e-02  0 
 1.008694e-01  -5.584431e-02  0 
 1.122987e-01  -4.671206e-02  0 
 1.170369e-01  -9.063598e-02  0 
 1.223829e-01  -6.088151e-02  0 
 9.773067e-02  -6.543492e-02  0 
 1.227602e-01  -8.843374e-02  0 
 1.025824e-01  -6.056500e-02  0 
 9.293845e-02  -7.065200e-02  0 
 1.156192e-01  -8.099865e-02  0 
 1.274251e-01  -1.031723e-01  0 
 9.684186e-02  -7.528083e-02  0 
 1.200279e-01  -7.866326e-02  0 
 9.448760e-02  -8.368768e-02  0 
 9.326039e-02  -6.016553e-02  0 
 1.247444e-01  -9.704539e-02  0 
 1.133381e-01  -6.655506e-02  0 
 1.180548e-01  -9.976827e-02  0 
 1.266744e-01  -6.251527e-02  0 
 1.169873e-01  -5.727970e-02  0 
 1.232696e-01  -1.058649e-01  0 
 1.039062e-01  -5.249601e-02  0 
 1.083259e-01  -6.753037e-02  0 
 1.373270e-01  -9.028282e-02  0 
 1.314322e-01  -8.488740e-02  0 
 8.473468e-02  -6.991269e-02  0 
 1.235862e-01  -7.059294e-02  0 
 1.252651e-01  -8.440393e-02  0 
 1.103712e-01  -8.510837e-02  0 
 1.365151e-01  -8.048180e-02  0 
 7.833066e-02  -6.574569e-02  0 
 1.066992e-01  -8.004421e-02  0 
 8.937731e-02  -6.802967e-02  0 
 8.359206e-02  -6.402530e-02  0 
 1.286960e-01  -7.733574e-02  0 
 1.433657e-01  -9.377745e-02  0 
 1.198721e-01  -6.543743e-02  0 
 1.016787e-01  -6.908060e-02  0 
 1.152276e-01  -7.200427e-02  0 
 1.075071e-01  -9.439646e-02  0 
 1.286080e-01  -6.690507e-02  0 
 1.089810e-01  -5.473204e-02  0 
 9.302585e-02  -7.924120e-02  0 
 1.075888e-01  -6.203583e-02  0 
 1.167207e-01  -1.095841e-01  0 
 1.287852e-01  -8.220154e-02  0 
 1.175925e-01  -8.732502e-02  0 
 9.710690e-02  -5.660025e-02  0 
 1.296360e-01  -9.019619e-02  0 
 1.070854e-01  -8.936816e-02  0 
 1.319199e-01  -1.027972e-01  0 
 1.204288e-01  -9.715161e-02  0 
 1.113479e-01  -7.464359e-02  0 
 1.324490e-01  -9.572429e-02  0 
 1.130824e-01  -6.118574e-02  0 
 8.901017e-02  -7.500264e-02  0 
 1.123862e-01  -9.563055e-02  0 
 1.129242e-01  -4.213677e-02  0 
 9.507431e-02  -6.284524e-02  0 
 1.257756e-01  -9.014090e-02  0 
 1.026032e-01  -8.506972e-02  0 
 1.230468e-01  -5.709943e-02  0 
 8.022742e-02  -6.900381e-02  0 
 1.157983e-01  -4.766424e-02  0 
 1.058506e-01  -6.463510e-02  0 
 1.151772e-01  -1.055270e-01  0 
 1.133855e-01  -9.884267e-02  0 
 1.393379e-01  -9.848453e-02  0 
 9.955547e-02  -8.240683e-02  0 
 1.003400e-01  -7.874117e-02  0 
 1.323449e-01  -8.886709e-02  0 
 1.172332e-01  -5.398401e-02  0 
 1.241631e-01  -7.577426e-02  0 
 1.083326e-01  -4.747058e-02  0 
 8.607265e-02  -6.226333e-02  0 
 1.003414e-01  -7.271542e-02  0 
 9.533974e-02  -6.815182e-02  0 
 1.211149e-01  -6.860754e-02  0 
 1.037654e-01  -8.889463e-02  0 
 1.088415e-01  -7.319226e-02  0 
 1.359891e-01  -9.434872e-02  0 
 1.089556e-01  -5.810292e-02  0 
 1.003444e-01  -6.276933e-02  0 
 8.341249e-02  -6.775591e-02  0 
 1.115540e-01  -8.819439e-02  0 
 1.263075e-01  -9.999620e-02  0 
 1.174839e-01  -1.029798e-01  0 
 1.052041e-01  -7.408530e-02  0 
 1.163097e-01  -6.521913e-02  0 
 1.073551e-01  -8.318939e-02  0 
 1.119297e-01  -7.776948e-02  0 
 1.348161e-01  -1.012221e-01  0 
 1.282619e-01  -7.034771e-02  0 
 1.186431e-01  -9.410237e-02  0 
 1.187287e-01  -7.147129e-02  0 
 1.184533e-01  -7.611277e-02  0 
 1.112740e-01  -4.993083e-02  0 
 1.141482e-01  -9.290801e-02  0 
 1.035355e-01  -7.843927e-02  0 
 1.199683e-01  -5.866182e-02  0 
 1.129200e-01  -8.286318e-02  0 
 1.143189e-01  -1.108724e-01  0 
 1.341229e-01  -8.340210e-02  0 
 1.165897e-01  -8.386195e-02  0 
 9.444518e-02  -7.352197e-02  0 
 1.207604e-01  -1.088101e-01  0 
 1.304629e-01  -7.267624e-02  0 
 9.211438e-02  -8.281281e-02  0 
 1.057190e-01  -6.754957e-02  0 
 1.052098e-01  -4.993736e-02  0 
 1.201999e-01  -9.018211e-02  0 
 1.226036e-01  -8.149548e-02  0 
 1.344264e-01  -7.747145e-02  0 
 9.202436e-02  -6.295091e-02  0 
 1.141581e-01  -5.497538e-02  0 
 8.077403e-02  -6.410663e-02  0 
 1.263055e-01  -1.061798e-01  0 
 9.109155e-02  -7.292529e-02  0 
 9.061608e-02  -6.026514e-02  0 
 1.413965e-01  -9.654111e-02  0 
 1.274120e-01  -9.651286e-02  0 
 1.206957e-01  -1.038358e-01  0 
 9.428864e-02  -5.730317e-02  0 
 9.039742e-02  -7.760145e-02  0 
 1.063808e-01  -5.359342e-02  0 
 1.003426e-01  -5.885528e-02  0 
 1.031589e-01  -5.764853e-02  0 
 9.636084e-02  -8.627343e-02  0 
 9.885899e-02  -6.779836e-02  0 
 1.247134e-01  -9.379858e-02  0 
 1.138837e-01  -6.932294e-02  0 
 1.143383e-01  -8.931499e-02  0 
 8.756588e-02  -6.536418e-02  0 
 9.508059e-02  -7.684478e-02  0 
 1.376074e-01  -8.340882e-02  0 
 1.170079e-01  -7.849952e-02  0 
 1.012674e-01  -5.300550e-02  0 
 1.375234e-01  -1.003584e-01  0 
 1.305041e-01  -9.324156e-02  0 
 1.097103e-01  -4.452194e-02  0 
 7.864299e-02  -6.777129e-02  0 
 1.087009e-01  -8.752917e-02  0 
 1.093569e-01  -7.816464e-02  0 
 1.029500e-01  -7.229718e-02  0 
 8.698278e-02  -6.864686e-02  0 
 1.186396e-01  -8.123346e-02  0 
 1.325419e-01  -9.920620e-02  0 
 1.148909e-01  -5.926883e-02  0 
 1.252869e-01  -6.037123e-02  0 
 1.242173e-01  -6.313491e-02  0 
 1.247086e-01  -1.036167e-01  0 
 1.039225e-01  -6.286142e-02  0 
 1.224768e-01  -8.538665e-02  0 
 9.175609e-02  -6.833373e-02  0 
 9.919096e-02  -7.543386e-02  0 
 1.161915e-01  -9.863657e-02  0 
 9.873828e-02  -5.432838e-02  0 
 1.304810e-01  -8.696964e-02  0 
 1.048473e-01  -8.325956e-02  0 
 9.688107e-02  -8.316147e-02  0 
 1.230818e-01  -9.099519e-02  0 
 1.227633e-01  -7.816254e-02  0 
 1.114901e-01  -5.305111e-02  0 
 1.193744e-01  -6.218096e-02  0 
 1.105407e-01  -6.062308e-02  0 
 1.293822e-01  -1.049651e-01  0 
 1.254920e-01  -6.841332e-02  0 
 1.228294e-01  -9.877624e-02  0 
 8.810109e-02  -6.029034e-02  0 
 1.109036e-01  -6.577766e-02  0 
 8.650142e-02  -7.383646e-02  0 
 1.011980e-01  -8.749897e-02  0 
 1.213979e-01  -7.132191e-02  0 
 9.045713e-02  -6.553668e-02  0 
 1.246845e-01  -8.684120e-02  0 
 1.165844e-01  -5.100758e-02  0 
 1.036342e-01  -5.484971e-02  0 
 9.553070e-02  -5.943293e-02  0 
 1.131741e-01  -8.020992e-02  0 
 1.177962e-01  -9.721533e-02  0 
 8.219144e-02  -6.961473e-02  0 
 9.070103e-02  -7.025609e-02  0 
 1.080330e-01  -6.991724e-02  0 
 1.239136e-01  -7.278796e-02  0 
 1.002421e-01  -6.574975e-02  0 
 9.529175e-02  -6.552263e-02  0 
 9.540538e-02  -7.105272e-02  0 
 1.135557e-01  -6.397629e-02  0 
 1.268937e-01  -7.616657e-02  0 
 1.293401e-01  -1.013143e-01  0 
 1.108984e-01  -6.829032e-02  0 
 9.756081e-02  -6.289631e-02  0 
 1.291935e-01  -7.996220e-02  0 
 1.288080e-01  -8.466356e-02  0 
 9.767303e-02  -7.290455e-02  0 
 1.051624e-01  -7.675451e-02  0 
 1.313196e-01  -7.735370e-02  0 
 9.755751e-02  -7.734316e-02  0 
 1.237837e-01  -1.081397e-01  0 
 1.279322e-01  -6.056468e-02  0 
 1.212665e-01  -7.653154e-02  0 
 9.471915e-02  -8.151826e-02  0 
 8.537405e-02  -6.449138e-02  0 
 1.126702e-01  -7.262973e-02  0 
 1.173054e-01  -7.370544e-02  0 
 1.262065e-01  -6.518433e-02  0 
 1.353887e-01  -8.881578e-02  0 
 1.054050e-01  -5.962444e-02  0 
 1.203610e-01  -1.006947e-01  0 
 1.225358e-01  -9.551324e-02  0 
 9.195190e-02  -5.817824e-02  0 
 1.294203e-01  -7.513550e-02  0 
 1.188490e-01  -1.101034e-01  0 
 1.359306e-01  -9.176789e-02  0 
 1.101126e-01  -9.372681e-02  0 
 1.308091e-01  -8.257869e-02  0 
 8.283580e-02  -6.585204e-02  0 
 1.176006e-01  -5.975939e-02  0 
 1.263552e-01  -8.176423e-02  0 
 8.293591e-02  -6.254406e-02  0 
 1.295451e-01  -9.542814e-02  0 
 1.152700e-01  -6.738117e-02  0 
 1.160691e-01  -1.007900e-01  0 
 1.217860e-01  -6.346813e-02  0 
 1.136794e-01  -4.940256e-02  0 
 1.292664e-01  -6.324029e-02  0 
 1.023568e-01  -5.089827e-02  0 
 1.111959e-01  -5.579449e-02  0 
 1.086130e-01  -9.182691e-02  0 
 1.145355e-01  -7.839508e-02  0 
 1.095043e-01  -8.963672e-02  0 
 1.381882e-01  -9.613576e-02  0 
 1.206092e-01  -8.704127e-02  0 
 8.383503e-02  -7.151226e-02  0 
 1.099691e-01  -7.645744e-02  0 
 1.210587e-01  -1.065616e-01  0 
 1.259377e-01  -7.132055e-02  0 
 1.152330e-01  -1.079307e-01  0 
 1.095909e-01  -8.267302e-02  0 
 8.621467e-02  -7.137121e-02  0 
 1.082028e-01  -6.513923e-02  0 
 1.333951e-01  -8.649248e-02  0 
 1.387472e-01  -9.184751e-02  0 
VECTORS displacement_ITER2 FLOAT
 1.072166e-01  -1.043825e-01  0 
 1.097308e-01  -1.035670e-01  0 
 1.123299e-01  -1.026173e-01  0 
 1.149274e-01  -1.015602e-01  0 
 1.175356e-01  -1.004042e-01  0 
 1.201369e-01  -9.914680e-02  0 
 1.227262e-01  -9.779550e-02  0 
 1.252888e-01  -9.635819e-02  0 
 1.278228e-01  -9.484294e-02  0 
 1.303314e-01  -9.325699e-02  0 
 1.328161e-01  -9.159961e-02  0 
 1.353008e-01  -8.984997e-02  0 
 8.041048e-02  -5.411591e-02  0 
 8.304366e-02  -5.292298e-02  0 
 8.558346e-02  -5.158093e-02  0 
 8.807118e-02  -5.008954e-02  0 
 9.051182e-02  -4.846291e-02  0 
 9.288194e-02  -4.669034e-02  0 
 9.519122e-02  -4.477155e-02  0 
 9.743761e-02  -4.272367e-02  0 
 9.961285e-02  -4.053701e-02  0 
 1.017090e-01  -3.816446e-02  0 
 1.037994e-01  -3.560207e-02  0 
 1.032998e-01  -7.439520e-02  0 
 1.233575e-01  -7.422752e-02  0 
 1.087045e-01  -5.733070e-02  0 
 8.640975e-02  -7.012571e-02  0 
 1.134342e-01  -8.573570e-02  0 
 9.606219e-02  -6.062810e-02  0 
 9.281121e-02  -7.912284e-02  0 
 1.127737e-01  -6.840307e-02  0 
 1.066560e-01  -9.393709e-02  0 
 1.238360e-01  -8.465048e-02  0 
 1.223565e-01  -6.373273e-02  0 
 1.039234e-01  -8.402273e-02  0 
 1.063789e-01  -4.787196e-02  0 
 1.184823e-01  -5.369183e-02  0 
 8.683851e-02  -6.099412e-02  0 
 9.576182e-02  -6.995836e-02  0 
 1.036108e-01  -6.538614e-02  0 
 1.119043e-01  -7.747335e-02  0 
 9.920191e-02  -5.224368e-02  0 
 1.142895e-01  -9.349552e-02  0 
 1.147793e-01  -6.082675e-02  0 
 7.971162e-02  -6.141165e-02  0 
 1.185454e-01  -8.023410e-02  0 
 1.206368e-01  -9.045138e-02  0 
 9.136752e-02  -5.584541e-02  0 
 1.027983e-01  -5.845802e-02  0 
 9.881411e-02  -7.977850e-02  0 
 9.147156e-02  -6.521251e-02  0 
 9.068299e-02  -7.396552e-02  0 
 1.172802e-01  -7.263164e-02  0 
 1.054690e-01  -9.915631e-02  0 
 1.095467e-01  -6.337746e-02  0 
 1.024216e-01  -8.939922e-02  0 
 1.075056e-01  -8.852042e-02  0 
 1.071806e-01  -6.997072e-02  0 
 1.270614e-01  -7.929640e-02  0 
 1.066594e-01  -7.960825e-02  0 
 1.295114e-01  -8.672974e-02  0 
 8.261629e-02  -6.624395e-02  0 
 1.102070e-01  -9.813833e-02  0 
 1.048969e-01  -5.376503e-02  0 
 7.486281e-02  -6.187345e-02  0 
 1.013185e-01  -4.737904e-02  0 
 9.621027e-02  -7.528123e-02  0 
 9.839946e-02  -6.559365e-02  0 
 1.185248e-01  -6.807875e-02  0 
 1.005350e-01  -7.044358e-02  0 
 1.188536e-01  -8.610760e-02  0 
 1.234693e-01  -6.917558e-02  0 