# vtk DataFile Version 3.1
this is an vtk file created by FEMAC
ASCII
DATASET UNSTRUCTURED_GRID
POINTS 315 FLOAT
4.994408 2.149460 0.000000
4.990062 2.199136 0.000000
4.984478 2.248687 0.000000
4.977662 2.298085 0.000000
4.969616 2.347296 0.000000
4.960345 2.396292 0.000000
4.949856 2.445042 0.000000
4.938155 2.493515 0.000000
4.925248 2.541681 0.000000
4.911146 2.589510 0.000000
4.895855 2.636973 0.000000
4.879385 2.684040 0.000000
4.861747 2.730682 0.000000
4.842952 2.776870 0.000000
3.992239 2.124344 0.000000
3.984808 2.173648 0.000000
3.974928 2.222521 0.000000
3.962624 2.270840 0.000000
3.947927 2.318487 0.000000
4.516954 2.307201 0.000000
4.297580 2.094518 0.000000
4.698540 2.069092 0.000000
4.583996 2.595491 0.000000
4.748329 2.285607 0.000000
4.499003 2.047356 0.000000
4.392002 2.535709 0.000000
4.171823 2.236889 0.000000
4.744452 2.480000 0.000000
4.648933 2.770026 0.000000
4.342396 2.254495 0.000000
4.823399 1.967731 0.000000
4.832204 2.165809 0.000000
4.363738 1.942845 0.000000
4.596554 2.437497 0.000000
4.624543 2.201962 0.000000
4.733722 2.646517 0.000000
4.397719 2.391114 0.000000
4.459326 2.182458 0.000000
4.831855 2.389922 0.000000
4.111517 2.136908 0.000000
4.861277 2.274960 0.000000
4.638133 2.335334 0.000000
4.512197 2.516308 0.000000
4.877119 2.061769 0.000000
4.251629 2.318622 0.000000
4.595494 2.095858 0.000000
4.728039 2.173956 0.000000
4.726441 1.966792 0.000000
4.262023 2.188285 0.000000
4.805239 2.573435 0.000000
4.527001 1.961185 0.000000
4.395233 2.044766 0.000000
4.498039 2.408334 0.000000
4.746298 2.746921 0.000000
4.705610 2.379148 0.000000
4.569530 2.699749 0.000000
4.495290 2.592232 0.000000
4.652271 2.517991 0.000000
4.205751 2.108591 0.000000
4.363441 2.162450 0.000000
4.792192 2.047166 0.000000
4.846750 2.480162 0.000000
4.425673 2.309614 0.000000
4.593485 2.019022 0.000000
4.536434 2.221474 0.000000
4.309953 2.380592 0.000000
4.905550 2.202875 0.000000
4.444327 1.970307 0.000000
4.724919 2.559852 0.000000
4.649878 2.652564 0.000000
4.438925 2.459146 0.000000
4.793231 2.230689 0.000000
4.524661 2.133495 0.000000
4.438168 2.111233 0.000000
4.677657 2.252568 0.000000
4.813339 2.648635 0.000000
4.561208 2.361051 0.000000
4.890059 2.342762 0.000000
4.364037 2.458644 0.000000
4.661414 2.134422 0.000000
4.318263 2.022629 0.000000
4.922391 2.127745 0.000000
4.660863 2.003761 0.000000
4.666825 2.449523 0.000000
4.593163 2.265819 0.000000
4.582681 2.509377 0.000000
4.360042 2.329431 0.000000
4.809491 2.322952 0.000000
4.409858 2.228186 0.000000
4.242608 2.051519 0.000000
4.774792 2.122082 0.000000
4.173483 2.166028 0.000000
4.683401 2.711135 0.000000
4.768869 2.432392 0.000000
4.453162 1.912016 0.000000
4.658701 2.586880 0.000000
4.244937 2.241349 0.000000
4.474208 2.255436 0.000000
4.884767 2.430516 0.000000
4.052902 2.160644 0.000000
4.459795 2.560539 0.000000
4.795369 2.708746 0.000000
4.635560 2.382175 0.000000
4.449517 2.362554 0.000000
4.577068 2.156569 0.000000
4.368409 2.090263 0.000000
4.528998 2.666632 0.000000
4.930404 2.268264 0.000000
4.530459 2.459324 0.000000
4.723183 2.238763 0.000000
4.291890 2.435227 0.000000
4.685093 2.331533 0.000000
4.872022 2.541801 0.000000
4.152698 2.080863 0.000000
4.842579 2.097385 0.000000
4.450071 2.661246 0.000000
4.938061 2.031721 0.000000
4.769652 2.362210 0.000000
4.745278 2.022974 0.000000
4.534765 2.570376 0.000000
4.639849 2.059257 0.000000
4.223986 2.367646 0.000000
4.840954 2.020821 0.000000
4.304703 2.149557 0.000000
4.321276 2.198865 0.000000
4.849028 2.215320 0.000000
4.192801 2.293214 0.000000
4.792355 2.511824 0.000000
4.120755 2.200827 0.000000
4.284077 2.278557 0.000000
4.556794 2.048236 0.000000
4.703120 2.784472 0.000000
4.694031 1.929483 0.000000
4.679835 2.206093 0.000000
4.596380 2.758060 0.000000
4.525942 2.008439 0.000000
4.847226 2.597804 0.000000
4.043744 2.104111 0.000000
4.003009 2.316474 0.000000
4.445883 2.019633 0.000000
4.255508 2.132718 0.000000
4.782117 2.175736 0.000000
4.443874 2.609067 0.000000
4.793112 2.006412 0.000000
4.636396 2.722157 0.000000
4.759158 2.601024 0.000000
4.719440 2.119405 0.000000
4.204332 2.206626 0.000000
4.393230 1.989678 0.000000
4.571084 2.645839 0.000000
4.300148 2.328112 0.000000
4.565475 2.313313 0.000000
4.417677 2.151571 0.000000
4.955474 2.086989 0.000000
4.744067 2.691644 0.000000
4.714403 2.431371 0.000000
4.445290 2.414881 0.000000
4.701322 2.513914 0.000000
4.512197 2.357173 0.000000
4.818214 2.439350 0.000000
4.506903 2.179328 0.000000
4.791211 2.769561 0.000000
4.462396 2.506729 0.000000
4.197719 2.049332 0.000000
4.617455 2.551592 0.000000
4.350284 2.419092 0.000000
4.943700 2.168751 0.000000
4.755030 2.078991 0.000000
4.404196 1.904314 0.000000
4.882241 2.159218 0.000000
4.623259 2.476508 0.000000
4.023069 2.210925 0.000000
4.889801 2.501794 0.000000
4.909715 2.388370 0.000000
4.702262 2.609087 0.000000
4.931477 2.315716 0.000000
4.554129 2.412941 0.000000
4.481218 2.460787 0.000000
4.370712 2.212452 0.000000
4.550576 2.266514 0.000000
4.793505 2.283121 0.000000
4.889937 2.014712 0.000000
4.485883 1.995092 0.000000
4.613543 1.980777 0.000000
4.265782 2.391473 0.000000
4.405645 2.489216 0.000000
4.399451 2.344447 0.000000
4.473118 2.307386 0.000000
4.474862 2.137971 0.000000
4.770363 2.550184 0.000000
4.944230 2.220928 0.000000
4.382434 2.293028 0.000000
4.272574 2.019143 0.000000
4.882221 2.108841 0.000000
4.337456 2.061640 0.000000
4.841741 2.351384 0.000000
4.580245 2.220273 0.000000
4.695516 2.667546 0.000000
4.486473 2.096150 0.000000
4.220219 2.160450 0.000000
4.290942 2.232310 0.000000
4.401327 2.436644 0.000000
4.095134 2.167639 0.000000
4.621645 2.143074 0.000000
4.482848 1.949920 0.000000
4.632758 2.245638 0.000000
4.794128 2.468746 0.000000
4.837218 2.690849 0.000000
4.611083 2.635819 0.000000
4.257453 2.090481 0.000000
4.105403 2.096823 0.000000
4.146955 2.125790 0.000000
4.597112 2.396543 0.000000
4.551988 2.099717 0.000000
4.853942 2.645940 0.000000
4.407819 2.087702 0.000000
4.534512 2.619985 0.000000
4.894462 2.245936 0.000000
4.598029 2.051788 0.000000
4.669029 2.367470 0.000000
4.341384 1.986660 0.000000
4.664240 2.093742 0.000000
4.869183 1.982631 0.000000
4.408618 2.192468 0.000000
4.359893 2.369013 0.000000
4.698650 2.026970 0.000000
4.680330 2.550827 0.000000
4.204672 2.323734 0.000000
4.331124 2.300661 0.000000
4.428037 2.266579 0.000000
4.422846 2.567889 0.000000
4.908330 2.464669 0.000000
4.642981 2.287363 0.000000
4.962853 2.124595 0.000000
4.891930 2.295783 0.000000
4.686507 1.976478 0.000000
4.701591 2.288257 0.000000
4.449528 2.067892 0.000000
4.867973 2.387400 0.000000
4.565408 2.542403 0.000000
4.411731 1.943832 0.000000
4.772233 2.660423 0.000000
4.824434 2.257159 0.000000
4.697735 2.471838 0.000000
4.599970 2.348384 0.000000
4.803508 2.357919 0.000000
4.132921 2.241562 0.000000
4.670655 2.406508 0.000000
4.655308 2.171020 0.000000
4.446502 2.223626 0.000000
4.732398 2.337680 0.000000
4.615455 2.674893 0.000000
4.498271 2.552533 0.000000
4.624216 2.022313 0.000000
4.800930 2.609359 0.000000
4.270168 2.355032 0.000000
4.931066 2.355340 0.000000
4.551103 2.498711 0.000000
4.488556 2.222030 0.000000
4.824611 2.740453 0.000000
4.686217 2.746878 0.000000
4.814145 2.196889 0.000000
4.632502 2.429361 0.000000
4.359038 2.020700 0.000000
4.760395 2.210173 0.000000
4.338733 2.114702 0.000000
4.773642 2.324136 0.000000
4.690136 2.160480 0.000000
4.133856 2.166089 0.000000
4.801193 2.089254 0.000000
4.825339 2.536775 0.000000
4.235513 2.016575 0.000000
4.844949 2.307996 0.000000
4.077942 2.129968 0.000000
4.545062 2.182228 0.000000
4.573031 2.465726 0.000000
4.769893 1.971289 0.000000
4.830912 2.061084 0.000000
4.387621 2.122667 0.000000
4.814420 2.130139 0.000000
4.763159 2.251923 0.000000
4.745075 2.522759 0.000000
4.607944 2.310043 0.000000
4.287656 2.056655 0.000000
4.745481 2.393681 0.000000
4.716760 2.715769 0.000000
3.995689 2.254505 0.000000
4.507962 2.269860 0.000000
4.522375 2.078735 0.000000
4.667152 2.623346 0.000000
4.849700 2.421443 0.000000
4.652550 1.955385 0.000000
4.159208 2.202739 0.000000
4.657934 2.687182 0.000000
4.920241 2.424651 0.000000
4.490271 2.639132 0.000000
4.487855 2.684786 0.000000
4.428537 2.532016 0.000000
4.851562 2.131790 0.000000
4.202648 2.255280 0.000000
4.633506 2.105381 0.000000
4.627041 2.603711 0.000000
4.382509 2.251636 0.000000
4.015354 2.153324 0.000000
4.666395 2.485506 0.000000
4.330348 2.348485 0.000000
4.167185 2.272949 0.000000
4.230127 2.285126 0.000000
4.618916 2.513867 0.000000
4.912485 2.090336 0.000000
4.563520 1.990053 0.000000
4.538958 2.334685 0.000000
4.789597 2.395913 0.000000
4.751097 2.147795 0.000000
4.163530 2.318075 0.000000
CELLS 556 2224 
3 52 158 176
3 42 177 108
3 8   9 112
3 58 163  89
3 61  98 231
3 58  89 209
3 27 155  93
3 51 148 139
3 67 139 148
3 9 136 112
3 20 123 140
3 310 130 135
3 65 165 110
3 51 237 215
3 67 240  94
3 63 130 310
3 76 176 158
3 111 232 236
3 51 139 237
3 42 162 177
3 41 232 111
3 143 276  30
3 58 199  91
3 48  96 147
3 211  58  91
3 27  93 206
3 2   3 107
3 42 239 119
3 136  49 270
3 112 136 270
3 34 104 203
3 29 200 124
3 72 213 104
3 45 104 213
3 67  94 204
3 42 257 239
3 74 133 109
3 95 164 226
3 29 129 200
3 46 109 133
3 82 225 120
3 21 120 225
3 56 142 100
3 48 123 124
3 59 124 123
3 52 103 158
3 47 118 225
3 31 169 125
3 66 125 169
3 61 290  98
3 34 196 104
3 57 226 164
3 97 287 187
3 97 187 229
3 48 200  96
3 115 142 295
3 47 225 235
3 53 101 161
3 61 231 172
3 56 295 142
3 20 140 209
3 17 286 138
3 60 143 122
3 30 122 143
3 65 110 184
3 66 169 166
3 81 166 169
3 51 105 194
3 75 136 214
3 254 136  75
3 55 106 149
3 70 162 185
3 52 156 103
3 41 219 102
3 162 297 185
3 53 154 101
3 36 186 103
3 62 103 186
3 28 134 144
3 79 221 146
3 56 100 252
3 74 109 236
3 23 236 109
3 80 194 283
3 36 103 156
3 28 144 260
3 43 116 309
3 72 104 274
3 75 101 241
3 52 176 108
3 60 118 143
3 24 135 130
3 54 111 250
3 17 138  18
3 42 108 257
3 89 163 271
3 50 135 182
3 53 131 260
3 41 111 219
3 74 205 133
3 34 133 205
3 116 153 309
3 103 187 158
3 75 207 101
3 48 140 123
3 191 302 229
3 41 102 244
3 8 112 172
3 74 236 232
3 34 203 248
3 44 129 150
3 92 260 144
3 53 260 285
3 62 187 103
3 54 250 284
3 180 242 272
3 107 217 190
3 58 113 163
3 3 175 107
3 2 107 190
3 45 203 104
3 66 190 217
3 51 215 105
3 117 284 250
3 154 285 197
3 68 145 174
3 35 174 145
3 55 144 134
3 35 154 197
3 52 108 177
3 61 172 112
3 73 278 215
3 58 211 113
3 14 137 303
3 43 114 277
3 56 252 119
3 80 283 192
3 73 152 278
3 61 112 270
3 87 180 272
3 62 191 229
3 145 254 241
3 43 181 116
3 61 127 206
3 94 240 168
3 21 118 167
3 60 167 118
3 22 216 119
3 310 183  63
3 108 176 275
3 23 109 280
3 33 275 176
3 21 146 221
3 79 146 267
3 52 177 156
3 50 182 204
3 73 188 152
3 37 152 188
3 46 264 109
3 48 199 140
3 9  10 136
3 68 174 226
3 54 219 111
3 19 158 187
3 48 147 199
3 95 226 174
3 47 276 118
3 29 124 178
3 61 159 290
3 70 156 177
3 104 196 274
3 99 303 137
3 44 121 227
3 59 123 265
3 84 179 196
3 30 222 122
3 64 196 179
3 35 145 241
3 126 307 227
3 43 193 114
3 107 234 217
3 43 277 122
3 100 162 252
3 42 252 162
3 307  44 227
3 24 182 135
3 40 217 234
3 106 216 149
3 106 295 216
3 39 210 211
3 113 211 210
3 59 265 278
3 88 229 302
3 24 139 182
3 72 274 160
3 70 177 162
3 40 125 217
3 40 242 125
3 19 187 287
3 35 197 174
3 22 119 239
3 59 178 124
3 61 206 159
3 96 129 307
3 44 307 129
3 127 270 189
3 270  49 189
3 42 119 252
3 86 191 186
3 62 186 191
3 43 122 181
3 61 270 127
3 21 225 118
3 90 146 167
3 174 197 289
3 95 301 164
3 12 259 207
3 60 122 277
3 56 119 216
3 22 149 216
3 96 200 129
3 44 255 121
3 137 210 273
3 90 279 141
3 82 120 253
3 51 194 263
3 45 218 120
3 77 272 234
3 20 283 194
3 64 287 258
3 27 127 281
3 58 209 140
3 49 136 254
3 101 154 241
3 78 165 201
3 36 201 165
3 76 151 244
3 31 141 279
3 77 195 272
3 45 120 300
3 21 221 120
3 85 239 257
3 20 265 123
3 99 171 303
3 118 276 143
3 21 167 146
3 48 124 200
3 151 282 244
3 0   1 166
3 55 149 251
3 93 155 284
3 101 207 259
3 66 217 125
3 7   8 172
3 71 125 242
3 75 241 254
3 68 189 145
3 49 145 189
3 67 182 139
3 27 206 127
3 0 166 233
3 82 235 225
3 26 147 299
3 45 130 218
3 59 152 223
3 37 188 160
3 72 160 188
3 62 229 187
3 71 261 125
3 84 151 179
3 50 310 135
3 29 228 129
3 24 130 288
3 92 197 285
3 19 179 151
3 25 185 297
3 31 125 261
3 122 222 181
3 45 213 130
3 96 299 147
3 64 179 287
3 73 215 237
3 105 278 265
3 90 167 269
3 63 218 130
3 3   4 175
3 10 214 136
3 83 247 155
3 54 155 247
3 58 140 199
3 90 141 313
3 28 260 131
3 56 216 295
3 26 292 147
3 93 159 206
3 46 133 267
3 11  12 207
3 15 171  16
3 46 267 146
3 37 223 152
3 54 284 155
3 81 233 166
3 47 235 132
3 149 208 251
3 46 141 264
3 34 248 133
3 22 164 301
3 129 228 150
3 85 275 170
3 65 224 165
3 84 196 205
3 34 205 196
3 59 223 178
3 36 156 201
3 70 201 156
3 91 147 292
3 60 269 167
3 37 160 258
3 65 255 150
3 40 272 242
3 91 199 147
3 81 169 193
3 37 258 249
3 69 301 289
3 78 201 185
3 70 185 201
3 69 208 301
3 57 304 157
3 22 239 164
3 150 228 305
3 305 228  86
3 99 137 273
3 24 237 139
3 46 313 141
3 101 259 161
3 15 303 171
3 16 171 286
3 22 208 149
3 46 146 313
3 90 313 146
3 117 312 284
3 85 170 308
3 127 189 281
3 27 243 155
3 1 190 166
3 20 194 265
3 105 265 194
3 37 249 223
3 27 157 243
3 98 238 173
3 67 204 182
3 1   2 190
3 100 142 230
3 32 240 148
3 79 248 203
3 92 144 293
3 66 166 190
3 31 261 141
3 32 148 220
3 71 141 261
3 71 264 141
3 55 251 144
3 4   5 256
3 33 170 275
3 41 244 282
3 29 191 228
3 86 228 191
3 107 175 234
3 49 254 145
3 73 198 188
3 67 148 240
3 5 173 256
3 97 258 287
3 69 289 197
3 51 263 148
3 121 255 184
3 65 150 305
3 84 205 232
3 68 226 157
3 65 184 255
3 10  11 214
3 19 151 311
3 44 150 255
3 64 274 196
3 65 305 224
3 81 153 233
3 29 178 302
3 68 157 281
3 76 311 151
3 6   7 231
3 84 282 151
3 33 262 170
3 83 170 262
3 157 304 243
3 57 157 226
3 5   6 294
3 98 290 238
3 59 278 152
3 93 312 159
3 38 159 312
3 35 241 154
3 5 294 173
3 32 168 240
3 33 212 262
3 33 176 212
3 111 236 250
3 23 250 236
3 82 183 291
3 83 155 243
3 23 180 266
3 87 266 180
3 102 262 212
3 72 188 198
3 76 212 176
3 81 309 153
3 36 165 224
3 92 285 260
3 99 273 202
3 39 202 273
3 85 164 239
3 4 256 175
3 72 198 288
3 84 232 282
3 93 284 312
3 87 195 245
3 38 245 195
3 126 314 306
3 80 263 194
3 76 158 311
3 88 223 249
3 53 285 154
3 23 280 180
3 102 212 244
3 88 178 223
3 64 258 160
3 72 288 213
3 13 161 259
3 86 186 224
3 36 224 186
3 27 281 157
3 19 311 158
3 117 245 312
3 77 173 238
3 7 172 231
3 105 215 278
3 38 290 159
3 77 234 175
3 11 207 214
3 73 237 198
3 64 160 274
3 117 266 245
3 87 245 266
3 63 183 253
3 82 253 183
3 12  13 259
3 169 298 193
3 82 291 235
3 77 175 256
3 85 308 164
3 57 164 308
3 100 297 162
3 71 242 180
3 68 281 189
3 97 249 258
3 39 273 210
3 77 256 173
3 88 302 178
3 31 298 169
3 16 286  17
3 75 214 207
3 128 292 246
3 26 246 292
3 14 303  15
3 88 249 229
3 97 229 249
3 77 238 195
3 89 271 192
3 24 198 237
3 83 304 170
3 57 170 304
3 38 195 238
3 69 293 251
3 57 308 170
3 40 234 272
3 120 221 300
3 74 232 205
3 98 173 294
3 95 174 289
3 71 180 280
3 69 251 208
3 39 268 202
3 128 202 268
3 19 287 179
3 133 248 267
3 144 251 293
3 126 227 314
3 102 247 262
3 83 262 247
3 38 238 290
3 39 211 268
3 91 268 211
3 6 231 294
3 79 203 300
3 26 306 246
3 76 244 212
3 63 253 218
3 120 218 253
3 81 193 309
3 102 219 247
3 54 247 219
3 128 268 292
3 91 292 268
3 87 272 195
3 148 263 220
3 69 197 293
3 92 293 197
3 60 277 269
3 114 269 277
3 79 300 221
3 89 192 283
3 29 302 191
3 108 275 257
3 114 193 298
3 130 213 288
3 80 220 263
3 24 288 198
3 43 309 193
3 41 282 232
3 95 289 301
3 89 283 209
3 20 209 283
3 98 294 231
3 109 264 280
3 71 280 264
3 45 300 203
3 25 297 230
3 100 230 297
3 114 298 279
3 132 235 291
3 23 266 250
3 117 250 266
3 22 301 208
3 79 267 248
3 31 279 298
3 114 279 269
3 86 224 305
3 85 257 275
3 126 299 307
3 96 307 299
3 83 243 304
3 90 269 279
3 38 312 245
3 26 299 306
3 126 306 299
3 115 295 296
3 106 296 295
CELL_TYPES 556
5 5 5 5 5 5 5 5 5 5 5 5 5 5 5 5 5 5 5 5 5 5 5 5 5 5 5 5 5 5 5 5 5 5 5 5 5 5 5 5 5 5 5 5 5 5 5 5 5 5 5 5 5 5 5 5 5 5 5 5 5 5 5 5 5 5 5 5 5 5 5 5 5 5 5 5 5 5 5 5 5 5 5 5 5 5 5 5 5 5 5 5 5 5 5 5 5 5 5 5 5 5 5 5 5 5 5 5 5 5 5 5 5 5 5 5 5 5 5 5 5 5 5 5 5 5 5 5 5 5 5 5 5 5 5 5 5 5 5 5 5 5 5 5 5 5 5 5 5 5 5 5 5 5 5 5 5 5 5 5 5 5 5 5 5 5 5 5 5 5 5 5 5 5 5 5 5 5 5 5 5 5 5 5 5 5 5 5 5 5 5 5 5 5 5 5 5 5 5 5 5 5 5 5 5 5 5 5 5 5 5 5 5 5 5 5 5 5 5 5 5 5 5 5 5 5 5 5 5 5 5 5 5 5 5 5 5 5 5 5 5 5 5 5 5 5 5 5 5 5 5 5 5 5 5 5 5 5 5 5 5 5 5 5 5 5 5 5 5 5 5 5 5 5 5 5 5 5 5 5 5 5 5 5 5 5 5 5 5 5 5 5 5 5 5 5 5 5 5 5 5 5 5 5 5 5 5 5 5 5 5 5 5 5 5 5 5 5 5 5 5 5 5 5 5 5 5 5 5 5 5 5 5 5 5 5 5 5 5 5 5 5 5 5 5 5 5 5 5 5 5 5 5 5 5 5 5 5 5 5 5 5 5 5 5 5 5 5 5 5 5 5 5 5 5 5 5 5 5 5 5 5 5 5 5 5 5 5 5 5 5 5 5 5 5 5 5 5 5 5 5 5 5 5 5 5 5 5 5 5 5 5 5 5 5 5 5 5 5 5 5 5 5 5 5 5 5 5 5 5 5 5 5 5 5 5 5 5 5 5 5 5 5 5 5 5 5 5 5 5 5 5 5 5 5 5 5 5 5 5 5 5 5 5 5 5 5 5 5 5 5 5 5 5 5 5 5 5 5 5 5 5 5 5 5 5 5 5 5 5 5 5 5 5 5 5 5 5 5 5 5 5 5 5 5 5 5 5 5 5 5 5 5 5 5 5 5 5 5 5 5 5 5 5 5 5 5 5 5 5 5 5 5 5 5 5 5 5 5 5 5 5 5 5 5 5 5 5 5 5 5 5 5 5 5 5 
POINT_DATA 315
VECTORS displacement_ITER1 FLOAT
 7.770141e-02  -1.191365e-01  0 
 8.037701e-02  -1.192358e-01  0 
 8.311413e-02  -1.192357e-01  0 
 8.588376e-02  -1.191395e-01  0 
 8.868053e-02  -1.189593e-01  0 
 9.149906e-02  -1.186915e-01  0 
 9.433897e-02  -1.183398e-01  0 
 9.719335e-02  -1.179032e-01  0 
 1.000595e-01  -1.173787e-01  0 
 1.029353e-01  -1.167679e-01  0 
 1.058196e-01  -1.160744e-01  0 
 1.087187e-01  -1.152998e-01  0 
 1.116302e-01  -1.144516e-01  0 
 1.146210e-01  -1.135437e-01  0 
 7.445281e-02  -6.066570e-02  0 
 7.835701e-02  -5.977682e-02  0 
 8.200839e-02  -5.877312e-02  0 
 8.468157e-02  -5.814327e-02  0 
 8.642377e-02  -5.743580e-02  0 
 8.590624e-02  -9.331921e-02  0 
 7.343874e-02  -8.105075e-02  0 
 7.287101e-02  -1.031437e-01  0 
 1.031175e-01  -9.736303e-02  0 
 8.489240e-02  -1.063505e-01  0 
 7.126435e-02  -9.223405e-02  0 
 9.940953e-02  -8.590542e-02  0 
 8.163946e-02  -7.335445e-02  0 
 9.620066e-02  -1.066229e-01  0 
 1.140364e-01  -1.014566e-01  0 
 8.271947e-02  -8.335290e-02  0 
 6.781684e-02  -1.095205e-01  0 
 7.832817e-02  -1.106002e-01  0 
 6.548189e-02  -8.497976e-02  0 
 9.358402e-02  -9.796094e-02  0 
 8.003742e-02  -9.930943e-02  0 
 1.062999e-01  -1.064039e-01  0 
 9.073696e-02  -8.639396e-02  0 
 7.870796e-02  -9.007046e-02  0 
 9.097610e-02  -1.113688e-01  0 
 7.550426e-02  -6.976651e-02  0 
 8.441551e-02  -1.125859e-01  0 
 8.763557e-02  -1.002387e-01  0 
 9.826200e-02  -9.305111e-02  0 
 7.283410e-02  -1.126190e-01  0 
 8.642766e-02  -7.795746e-02  0 
 7.411798e-02  -9.759529e-02  0 
 7.862137e-02  -1.049693e-01  0 
 6.751784e-02  -1.043645e-01  0 
 7.880022e-02  -7.881875e-02  0 
 1.018666e-01  -1.104584e-01  0 
 6.657641e-02  -9.370818e-02  0 
 7.088528e-02  -8.653966e-02  0 
 9.180162e-02  -9.222147e-02  0 
 1.125836e-01  -1.074280e-01  0 
 9.023058e-02  -1.041524e-01  0 
 1.095608e-01  -9.653711e-02  0 
 1.029018e-01  -9.204948e-02  0 
 9.842439e-02  -1.013152e-01  0 
 7.402175e-02  -7.570577e-02  0 
 7.742538e-02  -8.467984e-02  0 
 7.189786e-02  -1.080963e-01  0 
 9.629606e-02  -1.125542e-01  0 
 8.598218e-02  -8.808524e-02  0 
 6.994319e-02  -9.742265e-02  0 
 8.102201e-02  -9.440372e-02  0 
 9.007614e-02  -8.130724e-02  0 
 8.045453e-02  -1.147028e-01  0 
 6.696615e-02  -8.920219e-02  0 
 1.009898e-01  -1.056739e-01  0 
 1.066422e-01  -1.013653e-01  0 
 9.479151e-02  -8.874688e-02  0 
 8.185117e-02  -1.086878e-01  0 
 7.607007e-02  -9.371022e-02  0 
 7.466311e-02  -8.889704e-02  0 
 8.294578e-02  -1.023382e-01  0 
 1.064739e-01  -1.111924e-01  0 
 8.906694e-02  -9.586741e-02  0 
 8.831204e-02  -1.144688e-01  0 
 9.471597e-02  -8.435745e-02  0 
 7.634744e-02  -1.012523e-01  0 
 6.948079e-02  -8.237509e-02  0 
 7.640456e-02  -1.152563e-01  0 
 6.930165e-02  -1.009943e-01  0 
 9.433941e-02  -1.020554e-01  0 
 8.360391e-02  -9.761999e-02  0 
 9.787450e-02  -9.721210e-02  0 
 8.710512e-02  -8.427522e-02  0 
 8.708494e-02  -1.098757e-01  0 
 8.125785e-02  -8.724794e-02  0 
 7.083486e-02  -7.795726e-02  0 
 7.586769e-02  -1.073739e-01  0 
 7.740795e-02  -7.363547e-02  0 
 1.103068e-01  -1.034973e-01  0 
 9.340313e-02  -1.079053e-01  0 
 6.387575e-02  -8.968576e-02  0 
 1.026070e-01  -1.018001e-01  0 
 8.190309e-02  -7.769677e-02  0 
 8.288848e-02  -9.089167e-02  0 
 9.340481e-02  -1.145446e-01  0 
 7.721659e-02  -6.529754e-02  0 
 1.009387e-01  -8.991488e-02  0 
 1.102031e-01  -1.103023e-01  0 
 9.035380e-02  -1.001519e-01  0 
 8.908279e-02  -8.942299e-02  0 
 7.743724e-02  -9.663157e-02  0 
 7.334139e-02  -8.503632e-02  0 
 1.075023e-01  -9.412817e-02  0 
 8.412899e-02  -1.163685e-01  0 
 9.484582e-02  -9.411792e-02  0 
 8.221786e-02  -1.048440e-01  0 
 9.329030e-02  -8.019712e-02  0 
 8.745646e-02  -1.028948e-01  0 
 1.000113e-01  -1.142657e-01  0 
 7.217056e-02  -7.257071e-02  0 
 7.465644e-02  -1.109257e-01  0 
 1.072555e-01  -8.923764e-02  0 
 7.138730e-02  -1.156712e-01  0 
 8.930529e-02  -1.077513e-01  0 
 7.052452e-02  -1.055344e-01  0 
 1.015657e-01  -9.441040e-02  0 
 7.221120e-02  -9.996836e-02  0 
 8.927911e-02  -7.627974e-02  0 
 7.060732e-02  -1.105839e-01  0 
 7.660287e-02  -8.135660e-02  0 
 7.947219e-02  -8.222115e-02  0 
 8.106389e-02  -1.116889e-01  0 
 8.491911e-02  -7.451331e-02  0 
 9.813930e-02  -1.095020e-01  0 
 7.953565e-02  -7.028184e-02  0 
 8.409379e-02  -7.992558e-02  0 
 7.144355e-02  -9.543034e-02  0 
 1.149666e-01  -1.048704e-01  0 
 6.555674e-02  -1.025400e-01  0 
 8.033791e-02  -1.023831e-01  0 
 1.132799e-01  -9.817981e-02  0 
 6.919029e-02  -9.369162e-02  0 
 1.033790e-01  -1.130284e-01  0 
 7.287873e-02  -6.482783e-02  0 
 8.636914e-02  -5.951642e-02  0 
 6.962924e-02  -8.929606e-02  0 
 7.555268e-02  -7.856091e-02  0 
 7.879635e-02  -1.079224e-01  0 
 1.039621e-01  -8.889692e-02  0 
 6.975869e-02  -1.080345e-01  0 
 1.109864e-01  -1.006322e-01  0 
 1.035160e-01  -1.078068e-01  0 
 7.562429e-02  -1.043824e-01  0 
 7.985067e-02  -7.537765e-02  0 
 6.792053e-02  -8.645039e-02  0 
 1.062209e-01  -9.662163e-02  0 
 8.700014e-02  -8.079093e-02  0 
 8.629971e-02  -9.608474e-02  0 
 7.689212e-02  -8.774415e-02  0 
 7.430403e-02  -1.167645e-01  0 
 1.091093e-01  -1.071414e-01  0 
 9.329781e-02  -1.047680e-01  0 
 9.216270e-02  -8.914504e-02  0 
 9.820263e-02  -1.041853e-01  0 
 8.880481e-02  -9.304415e-02  0 
 9.385638e-02  -1.107613e-01  0 
 7.860258e-02  -9.273761e-02  0 
 1.140532e-01  -1.101977e-01  0 
 9.766384e-02  -9.010119e-02  0 
 7.057679e-02  -7.534864e-02  0 
 1.004439e-01  -9.930812e-02  0 
 9.234211e-02  -8.362605e-02  0 
 7.864371e-02  -1.165854e-01  0 
 7.351689e-02  -1.061986e-01  0 
 6.348810e-02  -8.712120e-02  0 
 7.803609e-02  -1.132655e-01  0 
 9.591971e-02  -9.955954e-02  0 
 8.106437e-02  -6.239148e-02  0 
 9.763260e-02  -1.151364e-01  0 
 9.097473e-02  -1.157803e-01  0 
 1.039802e-01  -1.044352e-01  0 
 8.681874e-02  -1.166622e-01  0 
 9.210498e-02  -9.548104e-02  0 
 9.490892e-02  -9.122827e-02  0 
 8.030981e-02  -8.503264e-02  0 
 8.359928e-02  -9.521740e-02  0 
 8.479906e-02  -1.088596e-01  0 
 7.039994e-02  -1.131091e-01  0 
 6.837294e-02  -9.146926e-02  0 
 6.798204e-02  -9.846177e-02  0 
 9.069582e-02  -7.869962e-02  0 
 9.659041e-02  -8.675212e-02  0 
 8.800106e-02  -8.654077e-02  0 
 8.588119e-02  -9.081100e-02  0 
 7.622944e-02  -9.094119e-02  0 
 1.004329e-01  -1.083291e-01  0 
 8.150501e-02  -1.168844e-01  0 
 8.498944e-02  -8.561303e-02  0 
 6.906200e-02  -7.973346e-02  0 
 7.533392e-02  -1.130624e-01  0 
 7.167498e-02  -8.335731e-02  0 
 8.875395e-02  -1.117870e-01  0 
 8.100644e-02  -9.685984e-02  0 
 1.075850e-01  -1.041474e-01  0 
 7.392546e-02  -9.157324e-02  0 
 7.712654e-02  -7.643244e-02  0 
 8.139405e-02  -8.040824e-02  0 
 9.342550e-02  -8.656289e-02  0 
 7.757858e-02  -6.859965e-02  0 
 7.675970e-02  -9.908019e-02  0 
 6.590629e-02  -9.128223e-02  0 
 8.250204e-02  -9.982175e-02  0 
 9.557442e-02  -1.094688e-01  0 
 1.091082e-01  -1.127836e-01  0 
 1.056034e-01  -9.901445e-02  0 
 7.311887e-02  -7.875034e-02  0 
 7.277643e-02  -6.945727e-02  0 
 7.488818e-02  -7.211781e-02  0 
 9.116753e-02  -9.795652e-02  0 
 7.425307e-02  -9.520064e-02  0 
 1.063395e-01  -1.136131e-01  0 
 7.328713e-02  -8.721802e-02  0 
 1.046237e-01  -9.442204e-02  0 
 8.282722e-02  -1.142913e-01  0 
 7.172384e-02  -9.769191e-02  0 
 8.952340e-02  -1.020443e-01  0 
 6.771458e-02  -8.373755e-02  0 
 7.413109e-02  -1.013403e-01  0 
 6.868693e-02  -1.119156e-01  0 
 7.920599e-02  -8.720749e-02  0 
 8.942207e-02  -8.422378e-02  0 
 7.062239e-02  -1.030526e-01  0 
 1.004213e-01  -1.030213e-01  0 
 8.669721e-02  -7.517868e-02  0 
 8.540915e-02  -8.263286e-02  0 
 8.348706e-02  -8.825564e-02  0 
 1.013873e-01  -8.767635e-02  0 
 9.544703e-02  -1.160459e-01  0 
 8.488316e-02  -1.004489e-01  0 
 7.632218e-02  -1.173532e-01  0 
 8.563220e-02  -1.143702e-01  0 
 6.793879e-02  -1.022830e-01  0 
 8.499475e-02  -1.037427e-01  0 
 7.228195e-02  -8.951765e-02  0 
 9.086769e-02  -1.134086e-01  0 
 9.986943e-02  -9.621637e-02  0 
 6.554091e-02  -8.747605e-02  0 
 1.071796e-01  -1.087568e-01  0 
 8.336997e-02  -1.104887e-01  0 
 9.568646e-02  -1.038899e-01  0 
 8.835910e-02  -9.807772e-02  0 
 8.908973e-02  -1.096529e-01  0 
 8.191956e-02  -7.100067e-02  0 
 9.180401e-02  -1.022029e-01  0 
 7.835638e-02  -1.009722e-01  0 
 8.103518e-02  -8.933271e-02  0 
 8.785141e-02  -1.055811e-01  0 
 1.080196e-01  -9.930956e-02  0 
 1.004617e-01  -9.222447e-02  0 
 7.019609e-02  -9.907353e-02  0 
 1.040542e-01  -1.103199e-01  0 
 8.856313e-02  -7.900071e-02  0 
 8.909122e-02  -1.168317e-01  0 
 9.721792e-02  -9.534382e-02  0 
 8.099532e-02  -9.170905e-02  0 
 1.122181e-01  -1.122013e-01  0 
 1.125620e-01  -1.037375e-01  0 
 8.000560e-02  -1.097275e-01  0 
 9.312375e-02  -1.000369e-01  0 
 6.949699e-02  -8.459207e-02  0 
 8.067024e-02  -1.068285e-01  0 
 7.466392e-02  -8.334467e-02  0 
 8.711488e-02  -1.078684e-01  0 
 7.782512e-02  -1.028680e-01  0 
 7.741328e-02  -7.116920e-02  0 
 7.415026e-02  -1.086964e-01  0 
 9.966619e-02  -1.115140e-01  0 
 6.883062e-02  -7.762882e-02  0 
 8.626823e-02  -1.118043e-01  0 
 7.492876e-02  -6.738876e-02  0 
 7.882258e-02  -9.486894e-02  0 
 9.525084e-02  -9.661107e-02  0 
 6.786632e-02  -1.067164e-01  0 
 7.270968e-02  -1.101857e-01  0 
 7.520422e-02  -8.607959e-02  0 
 7.636591e-02  -1.095296e-01  0 
 8.300652e-02  -1.070888e-01  0 
 9.876352e-02  -1.067694e-01  0 
 8.615108e-02  -9.849454e-02  0 
 7.127363e-02  -8.056215e-02  0 
 9.111152e-02  -1.064606e-01  0 
 1.106076e-01  -1.055417e-01  0 
 8.390210e-02  -5.980872e-02  0 
 8.374738e-02  -9.280595e-02  0 
 7.304115e-02  -9.355014e-02  0 
 1.048447e-01  -1.023601e-01  0 
 9.283654e-02  -1.125005e-01  0 
 6.678279e-02  -1.004867e-01  0 
 7.963078e-02  -7.265785e-02  0 
 1.087970e-01  -1.019031e-01  0 
 9.310497e-02  -1.165462e-01  0 
 1.058221e-01  -9.174931e-02  0 
 1.087207e-01  -9.160301e-02  0 
 9.919186e-02  -8.806827e-02  0 
 7.651257e-02  -1.115224e-01  0 
 8.271443e-02  -7.516240e-02  0 
 7.470977e-02  -9.968390e-02  0 
 1.036296e-01  -9.993591e-02  0 
 8.258696e-02  -8.566173e-02  0 
 7.670294e-02  -6.232784e-02  0 
 9.648311e-02  -1.020901e-01  0 
 8.820702e-02  -8.252816e-02  0 
 8.373958e-02  -7.302155e-02  0 
 8.446190e-02  -7.673742e-02  0 
 9.816455e-02  -9.934931e-02  0 
 7.440730e-02  -1.145734e-01  0 
 6.827154e-02  -9.575246e-02  0 
 8.751509e-02  -9.457938e-02  0 
 9.128297e-02  -1.089831e-01  0 
 7.722318e-02  -1.061633e-01  0 
 8.632343e-02  -7.276417e-02  0 
VECTORS displacement_ITER2 FLOAT
 7.207539e-02  -1.106077e-01  0 
 7.466654e-02  -1.106754e-01  0 
 7.730541e-02  -1.106550e-01  0 
 7.996879e-02  -1.105498e-01  0 
 8.265247e-02  -1.103696e-01  0 
 8.535265e-02  -1.101117e-01  0 
 8.806996e-02  -1.097785e-01  0 
 9.079951e-02  -1.093689e-01  0 
 9.353933e-02  -1.088796e-01  0 
 9.628839e-02  -1.083112e-01  0 
 9.904635e-02  -1.076658e-01  0 
 1.018194e-01  -1.069439e-01  0 
 1.046060e-01  -1.061517e-01  0 
 1.074678e-01  -1.053000e-01  0 
 7.001187e-02  -5.808206e-02  0 
 7.274949e-02  -5.729434e-02  0 
 7.556166e-02  -5.634636e-02  0 
 7.820105e-02  -5.540505e-02  0 
 8.060216e-02  -5.441551e-02  0 
 7.992057e-02  -8.574044e-02  0 
 6.842246e-02  -7.421688e-02  0 
 6.745627e-02  -9.509417e-02  0 
 9.638282e-02  -8.973931e-02  0 
 7.900005e-02  -9.822943e-02  0 
 6.609970e-02  -8.469432e-02  0 
 9.274423e-02  -7.873987e-02  0 
 7.583317e-02  -6.722478e-02  0 
 8.981732e-02  -9.856630e-02  0 
 1.069021e-01  -9.375607e-02  0 
 7.689099e-02  -7.631245e-02  0 
 6.247903e-02  -1.012349e-01  0 
 7.269023e-02  -1.023075e-01  0 
 6.074214e-02  -7.787719e-02  0 
 8.726058e-02  -9.024343e-02  0 
 7.435061e-02  -9.143139e-02  0 
 9.948365e-02  -9.843120e-02  0 
 8.443000e-02  -7.918083e-02  0 
 7.313892e-02  -8.262229e-02  0 
 8.484036e-02  -1.030876e-01  0 
 7.064760e-02  -6.445803e-02  0 
 7.855656e-02  -1.042387e-01  0 
 8.159967e-02  -9.237538e-02  0 
 9.169651e-02  -8.557771e-02  0 
 6.734889e-02  -1.042588e-01  0 
 8.027632e-02  -7.130788e-02  0 
 6.872014e-02  -8.976960e-02  0 
 7.298200e-02  -9.686541e-02  0 
 6.226034e-02  -9.627161e-02  0 
 7.330925e-02  -7.214197e-02  0 
 9.525299e-02  -1.022779e-01  0 
 6.168089e-02  -8.609973e-02  0 
 6.588473e-02  -7.934096e-02  0 
 8.550896e-02  -8.473924e-02  0 
 1.055066e-01  -9.945452e-02  0 
 8.409777e-02  -9.615197e-02  0 
 1.025871e-01  -8.896936e-02  0 
 9.614984e-02  -8.464147e-02  0 
 9.191203e-02  -9.349630e-02  0 
 6.914888e-02  -6.941467e-02  0 
 7.200095e-02  -7.755246e-02  0 
 6.646567e-02  -9.986733e-02  0 
 8.993221e-02  -1.042498e-01  0 
 7.996033e-02  -8.076699e-02  0 
 6.474043e-02  -8.959578e-02  0 
 7.529793e-02  -8.674570e-02  0 
 8.373980e-02  -7.438864e-02  0 
 7.474626e-02  -1.062853e-01  0 
 6.211865e-02  -8.188130e-02  0 
 9.439355e-02  -9.769248e-02  0 
 9.978937e-02  -9.360655e-02  0 
 8.833073e-02  -8.143925e-02  0 
 7.608627e-02  -1.004680e-01  0 
 7.061647e-02  -8.607465e-02  0 
 6.936539e-02  -8.152599e-02  0 