# vtk DataFile Version 3.1
this is an vtk file created by FEMAC
ASCII
DATASET UNSTRUCTURED_GRID
POINTS 311 FLOAT
0.000000 0.000000 0.000000
0.000000 1.000000 0.000000
0.050000 0.000000 0.000000
0.100000 0.000000 0.000000
0.150000 0.000000 0.000000
0.200000 0.000000 0.000000
0.250000 0.000000 0.000000
0.300000 0.000000 0.000000
0.350000 0.000000 0.000000
0.400000 0.000000 0.000000
0.450000 0.000000 0.000000
0.500000 0.000000 0.000000
0.550000 0.000000 0.000000
0.600000 0.000000 0.000000
0.650000 0.000000 0.000000
0.700000 0.000000 0.000000
0.750000 0.000000 0.000000
0.300000 1.000000 0.000000
0.250000 1.000000 0.000000
0.200000 1.000000 0.000000
0.150000 1.000000 0.000000
0.100000 1.000000 0.000000
0.050000 1.000000 0.000000
0.000000 0.950000 0.000000
0.000000 0.900000 0.000000
0.000000 0.850000 0.000000
0.000000 0.800000 0.000000
0.000000 0.750000 0.000000
0.000000 0.700000 0.000000
0.000000 0.650000 0.000000
0.000000 0.600000 0.000000
0.000000 0.550000 0.000000
0.000000 0.500000 0.000000
0.000000 0.450000 0.000000
0.000000 0.400000 0.000000
0.000000 0.350000 0.000000
0.000000 0.300000 0.000000
0.000000 0.250000 0.000000
0.000000 0.200000 0.000000
0.000000 0.150000 0.000000
0.000000 0.100000 0.000000
0.000000 0.050000 0.000000
0.525000 0.500000 0.000000
0.301562 0.701406 0.000000
0.301786 0.298040 0.000000
0.560748 0.252697 0.000000
0.216500 0.500000 0.000000
0.173394 0.823200 0.000000
0.172380 0.176731 0.000000
0.406791 0.167262 0.000000
0.373365 0.556415 0.000000
0.444815 0.362100 0.000000
0.154653 0.644207 0.000000
0.158789 0.360174 0.000000
0.434031 0.674477 0.000000
0.326791 0.428951 0.000000
0.595800 0.128082 0.000000
0.289453 0.123541 0.000000
0.289453 0.876459 0.000000
0.117873 0.539196 0.000000
0.552921 0.386545 0.000000
0.279471 0.593012 0.000000
0.090949 0.742985 0.000000
0.112930 0.260884 0.000000
0.494405 0.106010 0.000000
0.516742 0.604683 0.000000
0.424617 0.465138 0.000000
0.662490 0.261605 0.000000
0.094400 0.906066 0.000000
0.094400 0.093934 0.000000
0.461434 0.262586 0.000000
0.098601 0.440652 0.000000
0.195045 0.735099 0.000000
0.207982 0.268960 0.000000
0.234967 0.407539 0.000000
0.327273 0.211687 0.000000
0.330256 0.788751 0.000000
0.675061 0.087907 0.000000
0.202219 0.092195 0.000000
0.202219 0.907805 0.000000
0.370116 0.085276 0.000000
0.355317 0.642718 0.000000
0.385156 0.303661 0.000000
0.460486 0.546233 0.000000
0.495466 0.191137 0.000000
0.292868 0.502148 0.000000
0.080435 0.817977 0.000000
0.080435 0.182023 0.000000
0.515914 0.320766 0.000000
0.078432 0.613047 0.000000
0.394557 0.743021 0.000000
0.073619 0.341300 0.000000
0.249320 0.799071 0.000000
0.245675 0.203316 0.000000
0.585505 0.540947 0.000000
0.194435 0.575168 0.000000
0.593378 0.320378 0.000000
0.645114 0.187504 0.000000
0.229525 0.658603 0.000000
0.236801 0.335100 0.000000
0.375457 0.375382 0.000000
0.172283 0.442790 0.000000
0.485266 0.422683 0.000000
0.550864 0.065600 0.000000
0.069290 0.678375 0.000000
0.423229 0.607730 0.000000
0.503298 0.701258 0.000000
0.382218 0.236271 0.000000
0.298477 0.367950 0.000000
0.437641 0.066408 0.000000
0.372391 0.482392 0.000000
0.278079 0.066223 0.000000
0.278079 0.933777 0.000000
0.629097 0.064353 0.000000
0.065539 0.490692 0.000000
0.565589 0.185557 0.000000
0.347741 0.153616 0.000000
0.348028 0.845746 0.000000
0.149771 0.064640 0.000000
0.149771 0.935360 0.000000
0.061684 0.396444 0.000000
0.069712 0.059170 0.000000
0.069712 0.940830 0.000000
0.557308 0.457812 0.000000
0.239295 0.144666 0.000000
0.238306 0.855221 0.000000
0.262367 0.461086 0.000000
0.163345 0.507229 0.000000
0.157410 0.696779 0.000000
0.149492 0.300744 0.000000
0.164937 0.770651 0.000000
0.156617 0.227846 0.000000
0.057262 0.560580 0.000000
0.052288 0.777766 0.000000
0.056973 0.224099 0.000000
0.304784 0.635951 0.000000
0.147374 0.123983 0.000000
0.147519 0.876007 0.000000
0.333103 0.585879 0.000000
0.358967 0.703930 0.000000
0.255371 0.740031 0.000000
0.259309 0.258941 0.000000
0.055576 0.864351 0.000000
0.055576 0.135649 0.000000
0.539775 0.137300 0.000000
0.143068 0.589360 0.000000
0.442251 0.119710 0.000000
0.255404 0.540911 0.000000
0.342168 0.262730 0.000000
0.325344 0.045131 0.000000
0.325470 0.954812 0.000000
0.375052 0.425356 0.000000
0.535904 0.553018 0.000000
0.616387 0.230422 0.000000
0.456409 0.214558 0.000000
0.648097 0.136200 0.000000
0.485384 0.650101 0.000000
0.408040 0.518955 0.000000
0.471255 0.496775 0.000000
0.571838 0.594934 0.000000
0.504694 0.372563 0.000000
0.053628 0.285975 0.000000
0.341401 0.337306 0.000000
0.505297 0.054842 0.000000
0.649658 0.313188 0.000000
0.437977 0.309633 0.000000
0.506672 0.239516 0.000000
0.110016 0.383765 0.000000
0.439759 0.414480 0.000000
0.126567 0.839392 0.000000
0.126567 0.160608 0.000000
0.289858 0.175521 0.000000
0.291529 0.823652 0.000000
0.046103 0.442146 0.000000
0.234588 0.046286 0.000000
0.234588 0.953714 0.000000
0.315636 0.744893 0.000000
0.187304 0.402004 0.000000
0.113994 0.666459 0.000000
0.433942 0.726058 0.000000
0.464126 0.597666 0.000000
0.668509 0.037583 0.000000
0.106299 0.044052 0.000000
0.106299 0.955948 0.000000
0.118804 0.786915 0.000000
0.117651 0.205365 0.000000
0.194012 0.622736 0.000000
0.110505 0.492264 0.000000
0.281984 0.413507 0.000000
0.388527 0.045990 0.000000
0.207524 0.779505 0.000000
0.199505 0.222774 0.000000
0.555560 0.343013 0.000000
0.192362 0.317338 0.000000
0.492296 0.149408 0.000000
0.583638 0.494690 0.000000
0.048716 0.718830 0.000000
0.370320 0.194111 0.000000
0.328571 0.098333 0.000000
0.328571 0.901667 0.000000
0.216644 0.456005 0.000000
0.166603 0.550225 0.000000
0.251194 0.099183 0.000000
0.251547 0.900057 0.000000
0.299758 0.550288 0.000000
0.256101 0.693871 0.000000
0.504440 0.458645 0.000000
0.044276 0.640997 0.000000
0.386622 0.124882 0.000000
0.557414 0.297968 0.000000
0.379821 0.596985 0.000000
0.390221 0.672007 0.000000
0.607443 0.370000 0.000000
0.414964 0.566377 0.000000
0.404495 0.343456 0.000000
0.610374 0.280146 0.000000
0.498464 0.533628 0.000000
0.190684 0.663541 0.000000
0.037660 0.822019 0.000000
0.038597 0.178354 0.000000
0.117484 0.336798 0.000000
0.412413 0.269589 0.000000
0.303248 0.249143 0.000000
0.481097 0.300150 0.000000
0.340457 0.522080 0.000000
0.333882 0.468042 0.000000
0.032387 0.328552 0.000000
0.333984 0.388611 0.000000
0.583247 0.040259 0.000000
0.288422 0.779280 0.000000
0.037249 0.519795 0.000000
0.529003 0.645269 0.000000
0.259234 0.305719 0.000000
0.605141 0.168521 0.000000
0.716319 0.038089 0.000000
0.038625 0.595797 0.000000
0.187316 0.959376 0.000000
0.187316 0.040624 0.000000
0.256523 0.369871 0.000000
0.264379 0.630456 0.000000
0.465914 0.037434 0.000000
0.193947 0.861048 0.000000
0.193947 0.138952 0.000000
0.233074 0.594437 0.000000
0.539353 0.211021 0.000000
0.098755 0.575995 0.000000
0.114352 0.623563 0.000000
0.144278 0.414964 0.000000
0.478486 0.339439 0.000000
0.213930 0.821630 0.000000
0.626553 0.102011 0.000000
0.211845 0.541342 0.000000
0.254650 0.498609 0.000000
0.099737 0.303102 0.000000
0.039626 0.905630 0.000000
0.039626 0.094370 0.000000
0.516111 0.279570 0.000000
0.207731 0.361984 0.000000
0.094565 0.859588 0.000000
0.094557 0.140411 0.000000
0.579451 0.091122 0.000000
0.465300 0.455308 0.000000
0.443307 0.634173 0.000000
0.279179 0.333144 0.000000
0.405031 0.088453 0.000000
0.030467 0.477211 0.000000
0.425000 0.029701 0.000000
0.285381 0.217073 0.000000
0.327093 0.672184 0.000000
0.211737 0.176895 0.000000
0.532422 0.095519 0.000000
0.538243 0.034721 0.000000
0.033866 0.363895 0.000000
0.403241 0.704365 0.000000
0.427723 0.236862 0.000000
0.557512 0.522164 0.000000
0.143832 0.461970 0.000000
0.228118 0.238498 0.000000
0.412687 0.379978 0.000000
0.183617 0.474768 0.000000
0.032456 0.677640 0.000000
0.528058 0.419149 0.000000
0.039056 0.038358 0.000000
0.039056 0.961642 0.000000
0.215882 0.696711 0.000000
0.100994 0.705572 0.000000
0.450655 0.174641 0.000000
0.465676 0.702177 0.000000
0.473796 0.073630 0.000000
0.084701 0.647536 0.000000
0.496439 0.568494 0.000000
0.280574 0.665412 0.000000
0.079885 0.529697 0.000000
0.577224 0.419473 0.000000
0.075000 0.026607 0.000000
0.075000 0.973393 0.000000
0.579257 0.216793 0.000000
0.625000 0.026390 0.000000
0.470523 0.387594 0.000000
0.225240 0.300229 0.000000
0.402316 0.636690 0.000000
0.298479 0.452627 0.000000
0.276328 0.028705 0.000000
0.276340 0.971289 0.000000
0.526496 0.174885 0.000000
0.410716 0.205768 0.000000
0.357155 0.755478 0.000000
0.139461 0.738744 0.000000
0.169815 0.266425 0.000000
0.376590 0.271692 0.000000
0.349771 0.298007 0.000000
CELLS 555 2220 
3 225  55 151
3 110 225 151
3 144  56 233
3 115 144 233
3 43 176 140
3 47 184 130
3 48 131 185
3 75 107 148
3 224 157  50
3 66 110 151
3 110 157 224
3 293  60 212
3 57 111 198
3 58 199 112
3 140 176 229
3 47 169 184
3 48 185 170
3 127 251 201
3 46 251 127
3 53 177 247
3 62 133 196
3 91 167 120
3 66 157 110
3 109 264 189
3 60 192 212
3 78 136 118
3 79 119 137
3 144 270 260
3 50 138 224
3 62 196 285
3 259 136 170
3 258 169 137
3 56 144 260
3 24  25 254
3 255  39  40
3 138 204 224
3 34 120 173
3 20 183 119
3 4 118 182
3 69 118 136
3 68 137 119
3 116 198 208
3 57 171 124
3 93 124 171
3 92 172 125
3 58 125 172
3 53 247 167
3 84 166 154
3 70 154 166
3 57 116 171
3 75 171 116
3 76 117 172
3 58 172 117
3 52 145 186
3 95 186 145
3 69 136 259
3 68 258 137
3 75 197 107
3 80 208 198
3 254  25 142
3 143  39 255
3 97 153 233
3 37 134 161
3 153 296 233
3 26 133 218
3 38 219 134
3 26  27 133
3 37  38 134
3 77 113 181
3 72 140 190
3 92 190 140
3 91 220 167
3 109 189 266
3 63 161 134
3 81 135 138
3 66 158 157
3 83 157 158
3 71 114 173
3 62 184 133
3 86 133 184
3 87 185 134
3 63 134 185
3 80 189 264
3 57 202 111
3 58 112 203
3 61 138 135
3 284 128 217
3 111 149 198
3 112 199 150
3 74 200 177
3 45 215 209
3 36  37 161
3 94 159 152
3 58 117 199
3 57 198 116
3 33  34 173
3 101 177 200
3 68 122 254
3 69 255 121
3 100 162 214
3 82 214 162
3 55 227 151
3 100 151 227
3 64 144 194
3 111 202 174
3 112 175 203
3 31 132 235
3 77 250 113
3 72 128 284
3 205 140 284
3 20  21 183
3 3   4 182
3 69 182 118
3 68 119 183
3 71 187 114
3 144 304 194
3 86 218 133
3 87 134 219
3 78 174 202
3 79 203 175
3 71 120 167
3 42 123 195
3 72 307 128
3 63 308 129
3 78 118 237
3 79 236 119
3 68 254 142
3 69 143 255
3 72 130 307
3 63 131 308
3 140  72 284
3 7   8 149
3 73 193 308
3 30  31 235
3 129 308 193
3 69 121 182
3 68 183 122
3 45 153 215
3 65 159 231
3 90 306 139
3 223  70 256
3 256  70 166
3 108 263 162
3 23 254 283
3 41 282 255
3 49 197 116
3 75 116 197
3 7 149 302
3 17 303 150
3 85 126 301
3 139 306 176
3 42 158 206
3 77 181 234
3 71 173 120
3 49 116 208
3 122 283 254
3 121 255 282
3 29  30 207
3 47 130 190
3 4 237 118
3 20 119 236
3 299 141 232
3 73 141 299
3 53 167 220
3 147 243 251
3 83 180 213
3 105 213 180
3 106 156 231
3 98 243 239
3 44 162 263
3 30 235 207
3 65 156 180
3 65 152 159
3 59 187 127
3 63 129 253
3 73 308 191
3 98 186 243
3 61 243 147
3 63 253 161
3 131 191 308
3 96 164 212
3 74 188 126
3 73 299 193
3 85 301 225
3 81 138 210
3 111 302 149
3 112 150 303
3 46 127 279
3 66 151 168
3 91 120 272
3 158 261 206
3 84 194 304
3 47 137 169
3 48 170 136
3 52 128 178
3 88 192 160
3 60 160 192
3 252  46 200
3 126 252 200
3 74 126 200
3 96 209 215
3 34 272 120
3 109 288 146
3 64 146 288
3 43 139 176
3 58 203 125
3 79 125 203
3 78 202 124
3 57 124 202
3 100 278 151
3 78 124 242
3 79 241 125
3 42 206 123
3 63 185 131
3 59 127 201
3 50 210 138
3 53 129 193
3 54 300 262
3 92 125 249
3 103 260 270
3 84 154 286
3 72 190 130
3 48 191 131
3 42 195 275
3 76 229 176
3 27 196 133
3 93 269 124
3 85 252 126
3 23  24 254
3 40  41 255
3 113 297 181
3 151 278 168
3 52 217 128
3 54 211 300
3 108 162 227
3 53 220 129
3 44 141 222
3 79 137 241
3 78 242 136
3 61 204 138
3 96 212 192
3 49 208 146
3 55 188 227
3 108 227 188
3 56 155 233
3 97 233 155
3 156 262 180
3 44 222 148
3 84 286 194
3 104 285 196
3 67 215 153
3 102 261 168
3 78 237 174
3 79 175 236
3 61 147 204
3 115 304 144
3 8 189 149
3 128 307 285
3 89 132 245
3 86 184 169
3 87 170 185
3 59 201 145
3 80 149 189
3 101 247 177
3 64 194 146
3 129 220 253
3 81 211 139
3 31 230 132
3 43 140 205
3 77 155 250
3 95 145 201
3 115 233 296
3 25 218 142
3 86 142 218
3 87 219 143
3 39 143 219
3 89 235 132
3 81 268 135
3 66 168 261
3 67 164 215
3 100 227 162
3 95 251 243
3 80 198 149
3 54 156 287
3 106 287 156
3 93 267 141
3 59 292 187
3 85 204 147
3 90 139 273
3 5   6 174
3 18  19 175
3 61 135 239
3 48 136 242
3 47 241 137
3 81 139 268
3 107 309 148
3 123 281 293
3 43 268 139
3 73 277 141
3 64 163 270
3 103 270 163
3 50 157 213
3 83 213 157
3 62 307 184
3 130 184 307
3 92 140 229
3 64 270 144
3 95 201 251
3 83 158 216
3 42 216 158
3 44 232 141
3 86 258 142
3 87 143 259
3 42 152 216
3 93 141 277
3 128 285 178
3 68 142 258
3 69 259 143
3 11 271 163
3 73 191 277
3 44 148 310
3 49 146 286
3 75 148 222
3 27  28 196
3 59 145 245
3 52 246 145
3 47 190 249
3 111 174 302
3 112 303 175
3 11 163 240
3 14  15 181
3 51 165 248
3 85 147 252
3 45 256 166
3 114 187 292
3 109 146 264
3 12  13 228
3 46 147 251
3 46 252 147
3 62 285 307
3 82 165 214
3 51 214 165
3 45 296 153
3 52 186 217
3 98 217 186
3 60 281 160
3 102 160 281
3 74 177 257
3 8   9 189
3 74 257 238
3 42 275 152
3 96 215 164
3 36 161 226
3 53 257 177
3 65 290 152
3 11  12 271
3 94 152 275
3 19  20 236
3 4   5 237
3 132 292 245
3 96 192 209
3 88 209 192
3 15  16 234
3 82 221 165
3 85 224 204
3 18 175 303
3 6 302 174
3 114 265 173
3 70 165 221
3 60 293 281
3 65 231 156
3 44 310 162
3 102 168 298
3 85 225 224
3 110 224 225
3 10  11 240
3 91 226 161
3 70 223 165
3 45 166 244
3 59 245 292
3 70 274 154
3 91 161 253
3 53 193 257
3 56 250 155
3 123 206 281
3 92 229 172
3 76 172 229
3 88 160 248
3 91 272 226
3 66 261 158
3 54 262 156
3 14 181 297
3 102 298 160
3 102 206 261
3 82 162 310
3 83 290 180
3 84 244 166
3 25  26 218
3 38  39 219
3 35  36 226
3 34  35 272
3 108 188 238
3 74 238 188
3 71 167 247
3 52 178 246
3 51 298 168
3 9 266 189
3 64 288 163
3 12 228 271
3 103 163 271
3 105 180 262
3 45 209 256
3 61 239 243
3 0 282  41
3 0   2 282
3 1  23 283
3 1 283  22
3 50 213 210
3 105 210 213
3 31  32 230
3 51 168 278
3 83 216 290
3 105 262 300
3 165 223 248
3 86 169 258
3 87 259 170
3 146 208 264
3 127 276 279
3 113 260 228
3 98 291 205
3 160 298 248
3 51 248 298
3 103 228 260
3 19 236 175
3 5 174 237
3 76 176 306
3 139 211 273
3 154 305 286
3 141 267 222
3 126 188 301
3 75 267 171
3 54 179 273
3 146 194 286
3 49 286 305
3 33 173 265
3 89 245 246
3 145 246 245
3 32  33 265
3 28  29 280
3 15 234 181
3 32 265 230
3 114 230 265
3 101 279 276
3 98 239 291
3 89 207 235
3 93 171 267
3 9  10 266
3 92 249 190
3 99 238 257
3 127 187 276
3 93 191 269
3 71 276 187
3 95 243 186
3 21  22 295
3 2   3 294
3 13  14 297
3 6   7 302
3 17  18 303
3 28 280 196
3 104 196 280
3 178 289 246
3 99 263 238
3 54 273 211
3 47 249 241
3 125 241 249
3 104 178 285
3 104 289 178
3 43 291 268
3 90 273 179
3 45 244 296
3 93 277 191
3 135 268 291
3 54 287 179
3 99 257 193
3 65 180 290
3 103 271 228
3 94 275 195
3 80 264 208
3 108 238 263
3 49 305 197
3 107 197 305
3 3 182 294
3 121 294 182
3 122 183 295
3 21 295 183
3 88 223 256
3 88 256 209
3 48 269 191
3 29 207 280
3 152 290 216
3 88 248 223
3 91 253 220
3 104 207 289
3 89 289 207
3 55 301 188
3 46 279 200
3 101 200 279
3 75 222 267
3 81 210 300
3 105 300 210
3 99 193 299
3 115 296 244
3 98 205 284
3 99 232 263
3 13 297 228
3 113 228 297
3 71 247 276
3 102 281 206
3 43 205 291
3 104 280 207
3 10 240 266
3 109 266 240
3 132 230 292
3 114 292 230
3 51 278 214
3 124 269 242
3 48 242 269
3 98 284 217
3 89 246 289
3 100 214 278
3 81 300 211
3 70 221 274
3 107 274 221
3 113 250 260
3 44 263 232
3 35 226 272
3 56 260 250
3 82 309 221
3 99 299 232
3 107 221 309
3 84 304 244
3 115 244 304
3 122 295 283
3 22 283 295
3 2 294 282
3 121 282 294
3 55 225 301
3 101 276 247
3 163 288 240
3 109 240 288
3 135 291 239
3 148 309 310
3 82 310 309
3 154 274 305
3 107 305 274
CELL_TYPES 555
5 5 5 5 5 5 5 5 5 5 5 5 5 5 5 5 5 5 5 5 5 5 5 5 5 5 5 5 5 5 5 5 5 5 5 5 5 5 5 5 5 5 5 5 5 5 5 5 5 5 5 5 5 5 5 5 5 5 5 5 5 5 5 5 5 5 5 5 5 5 5 5 5 5 5 5 5 5 5 5 5 5 5 5 5 5 5 5 5 5 5 5 5 5 5 5 5 5 5 5 5 5 5 5 5 5 5 5 5 5 5 5 5 5 5 5 5 5 5 5 5 5 5 5 5 5 5 5 5 5 5 5 5 5 5 5 5 5 5 5 5 5 5 5 5 5 5 5 5 5 5 5 5 5 5 5 5 5 5 5 5 5 5 5 5 5 5 5 5 5 5 5 5 5 5 5 5 5 5 5 5 5 5 5 5 5 5 5 5 5 5 5 5 5 5 5 5 5 5 5 5 5 5 5 5 5 5 5 5 5 5 5 5 5 5 5 5 5 5 5 5 5 5 5 5 5 5 5 5 5 5 5 5 5 5 5 5 5 5 5 5 5 5 5 5 5 5 5 5 5 5 5 5 5 5 5 5 5 5 5 5 5 5 5 5 5 5 5 5 5 5 5 5 5 5 5 5 5 5 5 5 5 5 5 5 5 5 5 5 5 5 5 5 5 5 5 5 5 5 5 5 5 5 5 5 5 5 5 5 5 5 5 5 5 5 5 5 5 5 5 5 5 5 5 5 5 5 5 5 5 5 5 5 5 5 5 5 5 5 5 5 5 5 5 5 5 5 5 5 5 5 5 5 5 5 5 5 5 5 5 5 5 5 5 5 5 5 5 5 5 5 5 5 5 5 5 5 5 5 5 5 5 5 5 5 5 5 5 5 5 5 5 5 5 5 5 5 5 5 5 5 5 5 5 5 5 5 5 5 5 5 5 5 5 5 5 5 5 5 5 5 5 5 5 5 5 5 5 5 5 5 5 5 5 5 5 5 5 5 5 5 5 5 5 5 5 5 5 5 5 5 5 5 5 5 5 5 5 5 5 5 5 5 5 5 5 5 5 5 5 5 5 5 5 5 5 5 5 5 5 5 5 5 5 5 5 5 5 5 5 5 5 5 5 5 5 5 5 5 5 5 5 5 5 5 5 5 5 5 5 5 5 5 5 5 5 5 5 5 5 5 5 5 5 5 5 5 5 5 5 5 5 5 5 5 5 5 5 5 5 5 5 5 5 5 5 5 5 5 5 5 5 5 5 5 
POINT_DATA 311
VECTORS displacement_ITER1 FLOAT
 0  0  0 
 0  2.352845e-03  0 
 4.135547e-04  9.408992e-04  0 
 3.555136e-04  1.396726e-03  0 
 2.941864e-04  1.650359e-03  0 
 2.204870e-04  1.813600e-03  0 
 1.459607e-04  1.934844e-03  0 
 6.618315e-05  2.029755e-03  0 
 -1.401223e-05  2.100640e-03  0 
 -9.536196e-05  2.155146e-03  0 
 -1.840514e-04  2.198947e-03  0 
 -2.799000e-04  2.229802e-03  0 
 -3.850893e-04  2.244805e-03  0 
 -5.038003e-04  2.241116e-03  0 
 -6.407835e-04  2.211458e-03  0 
 -7.947300e-04  2.144864e-03  0 
 -9.831661e-04  2.016046e-03  0 
 2.818902e-04  2.307056e-03  0 
 2.038283e-04  2.324344e-03  0 
 1.512980e-04  2.336253e-03  0 
 1.075203e-04  2.344020e-03  0 
 6.911533e-05  2.348547e-03  0 
 3.349131e-05  2.351572e-03  0 
 4.835256e-16  2.355528e-03  0 
 2.891496e-16  2.355775e-03  0 
 3.844196e-16  2.354939e-03  0 
 1.416487e-15  2.348657e-03  0 
 2.321416e-16  2.338498e-03  0 
 -4.015879e-16  2.322719e-03  0 
 1.200975e-16  2.301424e-03  0 
 5.301052e-16  2.274310e-03  0 
 6.597697e-16  2.240302e-03  0 
 -1.445189e-16  2.196834e-03  0 
 -4.460569e-16  2.143749e-03  0 
 7.433954e-16  2.080899e-03  0 
 -1.522364e-16  2.004647e-03  0 
 4.639501e-16  1.912042e-03  0 
 5.278775e-16  1.801020e-03  0 
 -1.633965e-15  1.664107e-03  0 
 -3.947093e-16  1.484876e-03  0 
 -7.543004e-16  1.242682e-03  0 
 4.352272e-16  8.500379e-04  0 
 -1.097552e-04  2.230680e-03  0 
 5.129970e-05  2.308255e-03  0 
 -2.038617e-04  2.112192e-03  0 
 -3.555325e-04  2.261920e-03  0 
 -8.617539e-05  2.219650e-03  0 
 6.773089e-05  2.339546e-03  0 
 -1.390018e-04  1.815722e-03  0 
 -2.272646e-04  2.180974e-03  0 
 -5.863774e-05  2.266642e-03  0 
 -2.318098e-04  2.227231e-03  0 
 -7.888964e-06  2.298318e-03  0 
 -1.246605e-04  2.062993e-03  0 
 8.487103e-05  2.284419e-03  0 
 -1.579244e-04  2.204727e-03  0 
 -4.338747e-04  2.264798e-03  0 
 -1.074436e-04  2.026844e-03  0 
 1.588985e-04  2.303341e-03  0 
 -4.062968e-05  2.236075e-03  0 
 -2.570260e-04  2.244547e-03  0 
 -3.344622e-05  2.279210e-03  0 
 1.653941e-05  2.334040e-03  0 
 -1.186332e-04  1.875741e-03  0 
 -3.024959e-04  2.238927e-03  0 
 2.948302e-05  2.233075e-03  0 
 -1.487275e-04  2.242676e-03  0 
 -4.526496e-04  2.255411e-03  0 
 5.253737e-05  2.353770e-03  0 
 -6.253141e-05  1.443793e-03  0 
 -2.767113e-04  2.225102e-03  0 
 -6.168181e-05  2.142442e-03  0 
 3.670767e-05  2.323533e-03  0 
 -1.705696e-04  1.987282e-03  0 
 -1.425022e-04  2.150705e-03  0 
 -1.989511e-04  2.101789e-03  0 
 1.267628e-04  2.303180e-03  0 
 -5.801185e-04  2.209513e-03  0 
 -2.091749e-05  1.833174e-03  0 
 1.212382e-04  2.339150e-03  0 
 -1.363590e-04  2.136131e-03  0 
 2.158190e-05  2.292473e-03  0 
 -2.314492e-04  2.183475e-03  0 
 -6.038656e-05  2.252331e-03  0 
 -3.108649e-04  2.239943e-03  0 
 -1.013412e-04  2.236672e-03  0 
 2.936539e-05  2.349172e-03  0 
 -9.973315e-05  1.659160e-03  0 
 -2.878324e-04  2.246832e-03  0 
 -1.227932e-05  2.282853e-03  0 
 1.311064e-04  2.309205e-03  0 
 -6.732157e-05  2.001278e-03  0 
 8.889781e-05  2.321823e-03  0 
 -1.671147e-04  1.980078e-03  0 
 -3.393975e-05  2.186932e-03  0 
 -4.108438e-05  2.265281e-03  0 
 -3.350128e-04  2.257080e-03  0 
 -4.750087e-04  2.291083e-03  0 
 4.767140e-06  2.302738e-03  0 
 -1.723568e-04  2.084370e-03  0 
 -2.023815e-04  2.201108e-03  0 
 -9.885895e-05  2.160886e-03  0 
 -1.982479e-04  2.240902e-03  0 
 -3.855734e-04  2.256720e-03  0 
 7.428686e-07  2.314008e-03  0 
 4.868935e-06  2.272225e-03  0 
 1.567472e-04  2.262118e-03  0 
 -2.317139e-04  2.166739e-03  0 
 -1.826796e-04  2.153637e-03  0 
 -2.094039e-04  2.199237e-03  0 
 -1.266767e-04  2.240964e-03  0 
 -1.597414e-05  1.999725e-03  0 
 1.898982e-04  2.309923e-03  0 
 -5.280347e-04  2.245986e-03  0 
 -3.259242e-05  2.190694e-03  0 
 -3.834453e-04  2.262311e-03  0 
 -1.742949e-04  2.116964e-03  0 
 1.832479e-04  2.276768e-03  0 
 4.804231e-05  1.648674e-03  0 
 9.472214e-05  2.347524e-03  0 
 -4.699530e-05  2.080463e-03  0 
 -1.320078e-05  1.224504e-03  0 
 4.242164e-05  2.354341e-03  0 
 -1.703040e-04  2.222853e-03  0 
 -1.139754e-04  1.938433e-03  0 
 1.147514e-04  2.325739e-03  0 
 -1.219537e-04  2.203097e-03  0 
 -6.740047e-05  2.216567e-03  0 
 1.279812e-05  2.317167e-03  0 
 -1.360454e-04  1.973843e-03  0 
 4.364082e-05  2.333338e-03  0 
 -1.486815e-04  1.864855e-03  0 
 -1.722131e-05  2.248474e-03  0 
 1.372402e-05  2.343923e-03  0 
 -7.106695e-05  1.750907e-03  0 
 3.259368e-06  2.294155e-03  0 
 -8.796517e-05  1.685139e-03  0 
 7.533409e-05  2.347712e-03  0 
 -3.466326e-05  2.277390e-03  0 
 7.897970e-05  2.304840e-03  0 
 5.810033e-05  2.317387e-03  0 
 -1.899628e-04  2.039294e-03  0 
 2.613170e-05  2.354518e-03  0 
 -8.168635e-05  1.468750e-03  0 
 -3.614510e-04  2.257985e-03  0 
 -2.870226e-05  2.271005e-03  0 
 -2.424374e-04  2.207826e-03  0 
 -6.929657e-05  2.252839e-03  0 
 -2.173398e-04  2.134616e-03  0 
 -3.627433e-05  2.074542e-03  0 
 2.437578e-04  2.267407e-03  0 
 -1.725311e-04  2.220476e-03  0 
 -3.394611e-05  2.219605e-03  0 
 -4.304673e-04  2.268331e-03  0 
 -2.773372e-04  2.219931e-03  0 
 -4.987219e-04  2.263623e-03  0 
 7.846885e-05  2.258466e-03  0 
 -9.478614e-05  2.255091e-03  0 
 -1.177851e-04  2.246065e-03  0 
 3.692379e-05  2.194128e-03  0 
 -2.482280e-04  2.242691e-03  0 
 -5.781085e-05  1.892649e-03  0 
 -2.079386e-04  2.165295e-03  0 
 -3.088548e-04  2.239982e-03  0 
 -3.766377e-04  2.252262e-03  0 
 -2.528362e-04  2.216949e-03  0 
 -3.139060e-04  2.245164e-03  0 
 -8.497828e-05  2.074319e-03  0 
 -1.941483e-04  2.234449e-03  0 
 5.356136e-05  2.347109e-03  0 
 -1.177509e-04  1.692070e-03  0 
 -1.597321e-04  2.039724e-03  0 
 1.254867e-04  2.308838e-03  0 
 -2.967445e-05  2.136943e-03  0 
 6.183815e-05  1.909059e-03  0 
 1.692385e-04  2.331731e-03  0 
 8.784537e-05  2.310634e-03  0 
 -1.245481e-04  2.124850e-03  0 
 -1.015988e-06  2.308183e-03  0 
 1.399613e-04  2.291621e-03  0 
 3.375649e-06  2.258469e-03  0 
 -6.436152e-04  2.201707e-03  0 
 1.089842e-04  1.441744e-03  0 
 6.845887e-05  2.351039e-03  0 
 3.472977e-05  2.341551e-03  0 
 -1.269035e-04  1.766021e-03  0 
 -1.768041e-05  2.289525e-03  0 
 -5.297757e-05  2.196340e-03  0 
 -1.552766e-04  2.176203e-03  0 
 -1.227491e-04  2.151623e-03  0 
 6.155126e-05  2.328634e-03  0 
 -1.648090e-04  1.921746e-03  0 
 -2.944598e-04  2.251504e-03  0 
 -1.575095e-04  2.029764e-03  0 
 -3.059773e-04  2.238833e-03  0 
 -1.009211e-04  2.194126e-03  0 
 5.599118e-06  2.328871e-03  0 
 -2.118358e-04  2.148291e-03  0 
 -1.071430e-04  2.084386e-03  0 
 2.014215e-04  2.280180e-03  0 
 -1.109351e-04  2.186010e-03  0 
 -4.848883e-05  2.247719e-03  0 
 -5.145207e-05  1.949690e-03  0 
 1.496408e-04  2.321231e-03  0 
 -6.536546e-05  2.261805e-03  0 
 3.155466e-05  2.309969e-03  0 
 -1.638686e-04  2.240277e-03  0 
 -4.165850e-06  2.297603e-03  0 
 -1.859964e-04  2.158625e-03  0 
 -3.270861e-04  2.257211e-03  0 
 -1.691406e-05  2.277800e-03  0 
 6.227806e-05  2.293784e-03  0 
 -3.002645e-04  2.250349e-03  0 
 -4.359752e-05  2.265358e-03  0 
 -2.262954e-04  2.206083e-03  0 
 -3.820550e-04  2.264191e-03  0 
 -6.976265e-05  2.239465e-03  0 
 2.607763e-06  2.305099e-03  0 
 1.389208e-05  2.351299e-03  0 
 -5.315942e-05  1.607483e-03  0 
 -1.028940e-04  2.009849e-03  0 
 -2.484394e-04  2.195971e-03  0 
 -2.007679e-04  2.086750e-03  0 
 -2.776867e-04  2.235796e-03  0 
 -9.011862e-05  2.253010e-03  0 
 -1.329194e-04  2.227183e-03  0 
 -3.085524e-05  1.969538e-03  0 
 -1.838603e-04  2.186174e-03  0 
 -4.534166e-04  2.254242e-03  0 
 9.615654e-05  2.313385e-03  0 
 -1.568832e-05  2.215814e-03  0 
 8.897243e-05  2.230364e-03  0 
 -1.868822e-04  2.077298e-03  0 
 -4.310986e-04  2.271614e-03  0 
 -7.498264e-04  2.119544e-03  0 
 -7.855460e-06  2.271922e-03  0 
 1.297088e-04  2.341042e-03  0 
 1.165802e-04  1.781853e-03  0 
 -1.677486e-04  2.129278e-03  0 
 -7.974186e-06  2.292965e-03  0 
 -2.357338e-04  2.216576e-03  0 
 9.426773e-05  2.337883e-03  0 
 -1.008883e-04  1.828395e-03  0 
 -3.307987e-05  2.278206e-03  0 
 -3.501176e-04  2.256037e-03  0 
 -2.455360e-05  2.260605e-03  0 
 -1.376113e-05  2.288865e-03  0 
 -9.620004e-05  2.123538e-03  0 
 -2.583997e-04  2.236517e-03  0 
 8.475428e-05  2.330910e-03  0 
 -4.912433e-04  2.254179e-03  0 
 -6.234824e-05  2.247123e-03  0 
 -9.624160e-05  2.226448e-03  0 
 -9.647733e-05  1.946011e-03  0 
 2.162009e-05  2.356192e-03  0 
 -6.109200e-05  1.260394e-03  0 
 -3.081730e-04  2.248536e-03  0 
 -1.503843e-04  2.092278e-03  0 
 4.370645e-05  2.351549e-03  0 
 -9.671248e-05  1.570348e-03  0 
 -4.249245e-04  2.262677e-03  0 
 -1.621898e-04  2.242740e-03  0 
 4.150168e-05  2.272312e-03  0 
 -1.883567e-04  2.116075e-03  0 
 -1.806622e-04  2.173205e-03  0 
 -1.637434e-05  2.174597e-03  0 
 -1.637521e-04  2.183589e-03  0 
 -1.845721e-04  2.047940e-03  0 
 3.874713e-05  2.301938e-03  0 
 -1.423824e-04  1.898494e-03  0 
 -3.551850e-04  2.253429e-03  0 
 -3.638295e-04  2.249063e-03  0 
 -2.951473e-05  2.029348e-03  0 
 9.983024e-05  2.297768e-03  0 
 -2.575963e-04  2.202824e-03  0 
 -6.994964e-05  2.208253e-03  0 
 -7.798846e-05  2.173271e-03  0 
 -1.759618e-04  1.980314e-03  0 
 -2.108334e-04  2.218970e-03  0 
 -8.908126e-05  2.193394e-03  0 
 8.304208e-08  2.313976e-03  0 
 -2.151864e-04  2.241156e-03  0 
 -1.754474e-05  9.062218e-04  0 
 2.460617e-05  2.354372e-03  0 
 2.291548e-05  2.313588e-03  0 
 8.963194e-06  2.322662e-03  0 
 -2.679554e-04  2.214939e-03  0 
 1.348654e-04  2.278935e-03  0 
 -2.647666e-04  2.225515e-03  0 
 -5.541669e-06  2.300355e-03  0 
 -2.470853e-05  2.241218e-03  0 
 1.938312e-05  2.302546e-03  0 
 -3.052763e-05  2.226109e-03  0 
 -2.339121e-04  2.235549e-03  0 
 1.746739e-04  1.224555e-03  0 
 4.905519e-05  2.352161e-03  0 
 -3.909972e-04  2.263179e-03  0 
 -5.521603e-04  2.237075e-03  0 
 -2.236091e-04  2.237315e-03  0 
 -1.755342e-04  2.039433e-03  0 
 3.031884e-05  2.283818e-03  0 
 -1.361056e-04  2.208447e-03  0 
 5.076204e-05  1.992341e-03  0 
 2.227580e-04  2.317427e-03  0 
 -3.429637e-04  2.252342e-03  0 
 -2.424491e-04  2.187336e-03  0 
 1.171036e-04  2.310730e-03  0 
 2.523396e-05  2.329641e-03  0 
 -1.543873e-04  1.940650e-03  0 
 -2.313257e-04  2.168481e-03  0 
 -2.186241e-04  2.154633e-03  0 
VECTORS displacement_ITER2 FLOAT
 0  0  0 
 0  2.314005e-03  0 
 4.090844e-04  9.404418e-04  0 
 3.462138e-04  1.395102e-03  0 
 2.798749e-04  1.646895e-03  0 
 2.005143e-04  1.807134e-03  0 
 1.196604e-04  1.924104e-03  0 
 3.266658e-05  2.013375e-03  0 
 -5.530803e-05  2.076655e-03  0 
 -1.446520e-04  2.121527e-03  0 
 -2.415084e-04  2.153797e-03  0 
 -3.444105e-04  2.171276e-03  0 
 -4.544067e-04  2.172287e-03  0 
 -5.746494e-04  2.156113e-03  0 
 -7.098133e-04  2.117051e-03  0 
 -8.593804e-04  2.044325e-03  0 
 -1.033878e-03  1.907799e-03  0 
 2.077173e-04  2.289579e-03  0 
 1.594934e-04  2.296110e-03  0 
 1.223199e-04  2.302149e-03  0 
 8.884456e-05  2.307196e-03  0 
 5.793407e-05  2.310641e-03  0 
 2.836468e-05  2.312994e-03  0 
 4.644841e-16  2.316410e-03  0 
 2.991745e-16  2.317262e-03  0 
 3.739929e-16  2.317451e-03  0 
 1.370272e-15  2.313630e-03  0 
 2.408638e-16  2.306543e-03  0 
 -3.880913e-16  2.294423e-03  0 
 1.180829e-16  2.276825e-03  0 
 5.320638e-16  2.253318e-03  0 
 6.517208e-16  2.222775e-03  0 
 -1.460671e-16  2.182606e-03  0 
 -4.351252e-16  2.132563e-03  0 
 7.268958e-16  2.072591e-03  0 
 -1.451505e-16  1.998808e-03  0 
 4.614098e-16  1.908333e-03  0 
 5.116744e-16  1.799143e-03  0 
 -1.627169e-15  1.663431e-03  0 
 -3.818931e-16  1.485034e-03  0 
 -7.500482e-16  1.242895e-03  0 
 4.280756e-16  8.503331e-04  0 
 -7.001573e-05  2.220439e-03  0 
 6.713068e-05  2.291784e-03  0 
 -1.957272e-04  2.098904e-03  0 
 -3.571240e-04  2.198702e-03  0 
 -7.118211e-05  2.204946e-03  0 
 6.712796e-05  2.309330e-03  0 
 -1.430653e-04  1.811570e-03  0 
 -2.422440e-04  2.150734e-03  0 
 -3.190388e-05  2.252330e-03  0 
 -2.073336e-04  2.202165e-03  0 
 2.193799e-06  2.276856e-03  0 
 -1.176584e-04  2.054865e-03  0 
 1.081428e-04  2.277549e-03  0 
 -1.367694e-04  2.189552e-03  0 
 -4.795602e-04  2.181099e-03  0 
 -1.225466e-04  2.013301e-03  0 
 1.510417e-04  2.290273e-03  0 
 -3.225795e-05  2.219541e-03  0 
 -2.187620e-04  2.204071e-03  0 
 -1.441454e-05  2.262389e-03  0 
 1.954638e-05  2.304205e-03  0 
 -1.174069e-04  1.872194e-03  0 
 -3.396984e-04  2.185056e-03  0 
 6.032803e-05  2.234394e-03  0 
 -1.166691e-04  2.225306e-03  0 
 -4.525453e-04  2.139440e-03  0 
 4.604457e-05  2.315592e-03  0 
 -6.792980e-05  1.443027e-03  0 
 -2.725766e-04  2.189688e-03  0 
 -5.566407e-05  2.131482e-03  0 
 4.552929e-05  2.300162e-03  0 
 -1.675427e-04  1.979991e-03  0 
 -1.290564e-04  2.138872e-03  0 
 -2.024796e-04  2.085101e-03  0 
 1.457420e-04  2.291286e-03  0 
 -6.443511e-04  2.113637e-03  0 
 -3.353696e-05  1.827463e-03  0 
 1.063304e-04  2.306294e-03  0 
 -1.646873e-04  2.110062e-03  0 
 4.303182e-05  2.278551e-03  0 
 -2.198469e-04  2.162500e-03  0 
 -2.736190e-05  2.241882e-03  0 
 -3.265077e-04  2.191092e-03  0 
 -8.048172e-05  2.221448e-03  0 
 2.848561e-05  2.314246e-03  0 