# vtk DataFile Version 3.1
this is an vtk file created by FEMAC
ASCII
DATASET UNSTRUCTURED_GRID
POINTS 316 FLOAT
0.950000 4.000000 0.000000
0.900000 4.000000 0.000000
0.850000 4.000000 0.000000
0.800000 4.000000 0.000000
0.250000 3.000000 0.000000
0.300000 3.000000 0.000000
0.350000 3.000000 0.000000
0.400000 3.000000 0.000000
0.450000 3.000000 0.000000
0.500000 3.000000 0.000000
0.550000 3.000000 0.000000
0.600000 3.000000 0.000000
0.650000 3.000000 0.000000
0.700000 3.000000 0.000000
0.750000 3.000000 0.000000
0.800000 3.000000 0.000000
0.850000 3.000000 0.000000
0.900000 3.000000 0.000000
0.950000 3.000000 0.000000
1.000000 3.000000 0.000000
1.050000 3.000000 0.000000
1.100000 3.000000 0.000000
1.150000 3.000000 0.000000
1.076329 3.502452 0.000000
0.800140 3.326062 0.000000
0.809633 3.683134 0.000000
0.563905 3.242021 0.000000
1.039852 3.252455 0.000000
0.719378 3.503550 0.000000
0.901297 3.464479 0.000000
1.205180 3.179204 0.000000
0.715690 3.173349 0.000000
0.713632 3.826878 0.000000
0.884567 3.175910 0.000000
0.403514 3.168943 0.000000
0.869690 3.833804 0.000000
0.947129 3.634649 0.000000
0.661290 3.359092 0.000000
0.439411 3.314928 0.000000
0.936834 3.343604 0.000000
1.083863 3.128870 0.000000
0.597743 3.129358 0.000000
0.687085 3.719988 0.000000
1.048032 3.381931 0.000000
0.535010 3.378996 0.000000
0.817875 3.561967 0.000000
0.902572 3.723565 0.000000
0.969725 3.104663 0.000000
0.807123 3.105037 0.000000
0.798023 3.426509 0.000000
0.486282 3.107673 0.000000
0.792574 3.896434 0.000000
0.622986 3.463274 0.000000
0.662490 3.261605 0.000000
0.741500 3.599240 0.000000
1.158197 3.270709 0.000000
0.797534 3.224761 0.000000
0.791961 3.777823 0.000000
0.979317 3.532057 0.000000
0.945124 3.251638 0.000000
1.156066 3.448365 0.000000
1.169796 3.091565 0.000000
0.675061 3.087907 0.000000
0.470150 3.235061 0.000000
0.370996 3.085671 0.000000
0.982482 3.436510 0.000000
0.888638 3.076853 0.000000
0.914566 3.919998 0.000000
0.865103 3.274740 0.000000
0.738306 3.375549 0.000000
0.865297 3.373950 0.000000
0.894452 3.560437 0.000000
0.949861 3.803859 0.000000
0.525595 3.175255 0.000000
0.392164 3.259194 0.000000
0.981819 3.186223 0.000000
0.866456 3.631950 0.000000
0.738432 3.276507 0.000000
1.087680 3.316190 0.000000
0.590040 3.323217 0.000000
0.514554 3.312188 0.000000
0.639811 3.187611 0.000000
1.008207 3.319520 0.000000
0.668477 3.558813 0.000000
1.129845 3.187300 0.000000
0.970194 3.708709 0.000000
0.687826 3.430371 0.000000
1.036872 3.065492 0.000000
0.554705 3.070547 0.000000
0.746330 3.059007 0.000000
0.837363 3.506998 0.000000
0.756595 3.734308 0.000000
0.437641 3.066408 0.000000
0.858711 3.924876 0.000000
1.114008 3.410768 0.000000
1.105233 3.059372 0.000000
0.278079 3.066223 0.000000
0.917787 3.415203 0.000000
0.751569 3.926662 0.000000
0.629097 3.064353 0.000000
1.059205 3.188026 0.000000
0.670567 3.647380 0.000000
0.600686 3.397671 0.000000
0.810256 3.839620 0.000000
0.348028 3.154254 0.000000
0.780615 3.160390 0.000000
1.041304 3.446854 0.000000
0.755438 3.543881 0.000000
0.704847 3.327323 0.000000
0.835521 3.719096 0.000000
0.787616 3.612086 0.000000
0.733624 3.671429 0.000000
0.489844 3.373373 0.000000
0.475774 3.158896 0.000000
0.988588 3.386841 0.000000
0.869981 3.783598 0.000000
1.005256 3.579235 0.000000
0.939748 3.062841 0.000000
0.690866 3.771753 0.000000
0.959958 3.943532 0.000000
0.833098 3.056027 0.000000
1.040803 3.131925 0.000000
0.940723 3.152752 0.000000
0.752318 3.453527 0.000000
0.932124 3.860257 0.000000
0.588111 3.198540 0.000000
0.913015 3.670914 0.000000
0.848264 3.439277 0.000000
0.359676 3.296714 0.000000
1.218951 3.129149 0.000000
1.187941 3.230545 0.000000
0.858824 3.220432 0.000000
0.738733 3.878508 0.000000
0.836529 3.149710 0.000000
0.768464 3.498649 0.000000
1.085676 3.220487 0.000000
0.703000 3.231287 0.000000
0.325470 3.045188 0.000000
0.734991 3.131689 0.000000
0.663124 3.498246 0.000000
0.739246 3.779482 0.000000
0.639167 3.736428 0.000000
0.880955 3.333404 0.000000
0.439915 3.122792 0.000000
1.034530 3.530246 0.000000
0.647491 3.136561 0.000000
0.606070 3.277097 0.000000
0.953396 3.484419 0.000000
0.789630 3.377777 0.000000
1.125011 3.502594 0.000000
1.133016 3.135520 0.000000
0.647450 3.312733 0.000000
0.505968 3.057795 0.000000
0.546427 3.123619 0.000000
0.839321 3.883130 0.000000
1.089864 3.459102 0.000000
0.948347 3.745541 0.000000
0.991102 3.052432 0.000000
0.993891 3.272878 0.000000
0.790874 3.946411 0.000000
1.005574 3.485582 0.000000
0.949915 3.580773 0.000000
0.812635 3.276977 0.000000
1.134234 3.314305 0.000000
0.378319 3.210033 0.000000
0.917842 3.293830 0.000000
0.508340 3.417774 0.000000
0.761256 3.827600 0.000000
0.753732 3.213086 0.000000
0.234588 3.046286 0.000000
0.517812 3.224206 0.000000
0.926888 3.202309 0.000000
0.980914 3.665110 0.000000
0.859874 3.686849 0.000000
1.181086 3.044650 0.000000
0.927328 3.108974 0.000000
0.472064 3.287627 0.000000
0.859424 3.584731 0.000000
0.420366 3.220346 0.000000
0.879516 3.513932 0.000000
0.668509 3.037583 0.000000
0.754290 3.332096 0.000000
1.109590 3.356088 0.000000
0.785368 3.047320 0.000000
0.906653 3.805064 0.000000
0.388539 3.045653 0.000000
0.677015 3.601297 0.000000
0.876276 3.035233 0.000000
0.905636 3.605586 0.000000
0.641869 3.411928 0.000000
0.922356 3.963766 0.000000
0.328571 3.098333 0.000000
0.926315 3.522683 0.000000
0.900904 3.241626 0.000000
0.695488 3.132118 0.000000
0.850781 3.103165 0.000000
0.619459 3.231887 0.000000
0.386924 3.126535 0.000000
0.396914 3.331536 0.000000
1.065724 3.041305 0.000000
0.821466 3.640201 0.000000
0.693803 3.388809 0.000000
1.046660 3.296014 0.000000
1.057300 3.344016 0.000000
0.838812 3.313907 0.000000
0.555887 3.293781 0.000000
0.547336 3.337698 0.000000
0.965801 3.310767 0.000000
0.708620 3.555292 0.000000
0.511734 3.268032 0.000000
0.985370 3.229704 0.000000
0.886049 3.882465 0.000000
0.434314 3.267469 0.000000
0.888095 3.127894 0.000000
0.905108 3.375998 0.000000
0.880801 3.961499 0.000000
1.097472 3.270731 0.000000
0.617939 3.361178 0.000000
0.696422 3.871557 0.000000
1.178978 3.143889 0.000000
1.019581 3.409298 0.000000
1.068472 3.416228 0.000000
0.583646 3.039314 0.000000
0.696966 3.282994 0.000000
0.798898 3.727224 0.000000
0.620414 3.503922 0.000000
0.761294 3.410228 0.000000
0.833638 3.354259 0.000000
0.833528 3.397906 0.000000
0.949277 3.390766 0.000000
0.569352 3.164706 0.000000
0.716319 3.038089 0.000000
1.025971 3.211573 0.000000
1.168799 3.200797 0.000000
0.677843 3.195609 0.000000
0.465971 3.037685 0.000000
0.656715 3.688843 0.000000
0.777733 3.257517 0.000000
0.831011 3.961384 0.000000
1.092202 3.168767 0.000000
0.719584 3.741611 0.000000
0.508809 3.139007 0.000000
0.486432 3.195515 0.000000
0.830022 3.195000 0.000000
1.028739 3.031846 0.000000
0.834434 3.799381 0.000000
0.626553 3.102011 0.000000
0.991335 3.143712 0.000000
1.136422 3.040224 0.000000
1.073460 3.089592 0.000000
0.479071 3.332954 0.000000
0.608731 3.165134 0.000000
0.776646 3.293832 0.000000
0.939821 3.448054 0.000000
0.589321 3.089266 0.000000
0.407713 3.294200 0.000000
0.662935 3.457005 0.000000
0.936518 3.704434 0.000000
0.723956 3.420325 0.000000
0.802478 3.527814 0.000000
0.767088 3.647734 0.000000
0.576345 3.368039 0.000000
0.425000 3.029701 0.000000
0.715979 3.956410 0.000000
1.015825 3.099361 0.000000
0.722412 3.091027 0.000000
0.821634 3.599812 0.000000
1.121203 3.092405 0.000000
0.775134 3.861325 0.000000
0.809571 3.475035 0.000000
0.538661 3.034839 0.000000
0.513163 3.347042 0.000000
0.781929 3.576489 0.000000
0.765046 3.691651 0.000000
0.726710 3.705958 0.000000
0.657446 3.223706 0.000000
1.137988 3.230095 0.000000
0.404803 3.089412 0.000000
0.687195 3.526349 0.000000
0.593930 3.436628 0.000000
0.704047 3.461351 0.000000
0.907887 3.764605 0.000000
0.989611 3.623488 0.000000
0.567057 3.409477 0.000000
0.715929 3.908877 0.000000
0.473796 3.073630 0.000000
0.910933 3.034985 0.000000
0.848518 3.542646 0.000000
1.016817 3.361978 0.000000
0.855202 3.479944 0.000000
0.979376 3.348199 0.000000
1.045003 3.483931 0.000000
0.697564 3.678809 0.000000
0.625000 3.026390 0.000000
0.833120 3.758306 0.000000
0.710680 3.639254 0.000000
0.878547 3.411135 0.000000
0.762806 3.099078 0.000000
0.674589 3.162313 0.000000
0.642363 3.533688 0.000000
0.550686 3.204777 0.000000
0.445080 3.356852 0.000000
0.276340 3.028711 0.000000
0.832254 3.244519 0.000000
1.081049 3.381893 0.000000
1.206511 3.092911 0.000000
0.524825 3.094235 0.000000
0.758767 3.965420 0.000000
0.357127 3.244980 0.000000
0.442829 3.184155 0.000000
0.867926 3.742716 0.000000
0.948746 3.674305 0.000000
0.892796 3.210069 0.000000
1.060514 3.158111 0.000000
1.026576 3.170797 0.000000
0.820456 3.922778 0.000000
CELLS 556 2224 
3 100 135 232
3 232 135  27
3 138 297 105
3 29 296  97
3 105 297  48
3 67  93 211
3 57 140  91
3 75 171 122
3 34 164 104
3 58 144 116
3 29 127 296
3 18 157 117
3 75 210 171
3 14 183  89
3 51  98 132
3 25 173 109
3 60 155  94
3 14  89 231
3 121 264 249
3 104 191 197
3 57 103 167
3 40 121 249
3 57  91 224
3 37 151 108
3 64 197 191
3 25 200 173
3 15  16 120
3 92 277 185
3 48 133 105
3 50 113 143
3 42 118 141
3 44 166 112
3 62  99 180
3 29 192 179
3 67 215  93
3 37 108 201
3 69 201 108
3 92 185 262
3 28 134 107
3 31 138 105
3 27 216 202
3 36 126 188
3 76 188 126
3 127 289 269
3 28 107 208
3 48 183 120
3 77 136 168
3 51 159  98
3 51 103 154
3 248  95  21
3 18  19 157
3 49 127 269
3 95 199  21
3 77 181 108
3 54 107 272
3 65 253 229
3 54 272 110
3 72 124 184
3 35 184 124
3 106 155 291
3 27 135 216
3 65 229 114
3 84 219 233
3 54 110 260
3 96 137 191
3 35 154 103
3 28 123 134
3 32 118 140
3 59 158 207
3 29  97 253
3 23 291 155
3 84 150 219
3 47 117 157
3 93 154 211
3 57 245 103
3 26 125 196
3 84 135 239
3 57 167 140
3 35 103 245
3 59 207 165
3 65 106 160
3 61 267 248
3 62 246  99
3 31 105 168
3 15 120 183
3 70 227 142
3 54 260 295
3 100 239 135
3 77 168 237
3 108 151 223
3 142 227 204
3 68 165 142
3 28 208 278
3 26 196 146
3 33 131 243
3 68 193 165
3 33 243 133
3 5   6 137
3 56 168 105
3 29 147 192
3 58 116 161
3 61 248 174
3 97 229 253
3 32 167 132
3 33 213 122
3 56 105 243
3 62 231 265
3 48 297 183
3 35 245 115
3 58 160 144
3 55 276 130
3 74 128 308
3 51 268 103
3 50 143 285
3 87 249 264
3 36 161 282
3 116 282 161
3 113 309 143
3 34 143 309
3 5 137 302
3 184 281  72
3 62 180 231
3 34 104 197
3 33 133 213
3 130 276 233
3 46 173 126
3 69 108 181
3 90 269 289
3 79 146 151
3 64 185 277
3 72 281 156
3 182 304 203
3 24 148 181
3 69 181 148
3 27 158 210
3 78 182 203
3 65 220 106
3 66 195 120
3 48 120 195
3 47 175 117
3 66 117 175
3 71 179 192
3 111 295 260
3 76 173 200
3 77 108 223
3 52 279 189
3 65 160 147
3 58 147 160
3 54 208 107
3 25 109 224
3 60 149 155
3 40 313 121
3 44 112 271
3 49 269 123
3 73 242 113
3 53 223 151
3 123 269 134
3 50 241 113
3 73 113 241
3 66 286 117
3 92 285 143
3 27 210 232
3 35 115 184
3 96 302 137
3 59 171 210
3 53 151 146
3 122 213 175
3 37 189 217
3 102 217 189
3 90 287 259
3 28 139 280
3 65 114 220
3 31 168 136
3 33 122 171
3 26 146 205
3 79 205 146
3 27 202 158
3 82 158 202
3 40 249 267
3 129 219 305
3 57 224 294
3 46 310 173
3 23 155 149
3 107 259 272
3 79 151 217
3 133 195 213
3 47 122 175
3 77 252 181
3 106 221 155
3 76 126 173
3 305 219  61
3 309  63 178
3 242  63 309
3 105 133 243
3 18 117 286
3 16 187 120
3 55 163 216
3 38 212 176
3 66 120 187
3 59 165 193
3 14  15 183
3 139 256 280
3 67 119 190
3 0 190 119
3 90 179 287
3 42 240 118
3 39 142 165
3 107 134 259
3 88 254 153
3 102 189 279
3 132 167 268
3 32 140 167
3 53 136 223
3 77 223 136
3 144 160 291
3 74 164 178
3 53 146 196
3 99 293 180
3 38 255 212
3 41 153 254
3 76 266 177
3 109 173 310
3 37 217 151
3 84 276 135
3 40 267 150
3 95 248 267
3 76 200 266
3 52 189 256
3 47 157 264
3 36 188 161
3 78 202 216
3 71 161 188
3 38 301 198
3 28 280 123
3 74 255 128
3 33 312 131
3 35 124 211
3 67 211 124
3 81 196 125
3 40 150 239
3 84 239 150
3 29 289 127
3 6 185 137
3 45 272 259
3 64 137 185
3 109 294 224
3 78 216 163
3 32 132 218
3 68 131 193
3 47 247 122
3 75 122 247
3 62 145 246
3 61 219 150
3 48 195 133
3 44 283 166
3 31 194 138
3 43 221 220
3 106 220 221
3 49 228 127
3 49 123 226
3 46 126 257
3 64 191 137
3 36 311 126
3 74 178 212
3 30 233 219
3 81 125 251
3 26 300 125
3 39 214 142
3 70 142 214
3 51 154 315
3 98 284 132
3 42 141 236
3 23 144 291
3 135 276 216
3 276  55 216
3 53 275 136
3 2 238 215
3 58 192 147
3 118 240 140
3 29 253 147
3 91 140 240
3 34 197 143
3 67 190 215
3 87 264 157
3 66 187 286
3 34 178 164
3 30 219 129
3 89 265 231
3 51 132 268
3 41 145 251
3 81 251 145
3 95 267 249
3 26 205 209
3 68 303 131
3 62 194 145
3 71 188 177
3 76 177 188
3 30 130 233
3 61 174 305
3 9 270 152
3 98 263 284
3 78 163 182
3 68 142 204
3 43 220 288
3 58 161 192
3 96 169 302
3 9 152 235
3 12  13 180
3 59 193 171
3 93 315 154
3 63 170 209
3 26 209 170
3 46 257 156
3 85 156 257
3 89 183 297
3 110 200 260
3 25 260 200
3 127 228 296
3 31 136 234
3 68 204 162
3 24 162 204
3 10  11 222
3 52 139 225
3 56 237 168
3 73 170 242
3 28 278 139
3 82 207 158
3 63 209 176
3 71 192 161
3 6   7 185
3 70 296 228
3 114 288 220
3 93 215 238
3 88 153 306
3 52 256 139
3 1   2 215
3 20  21 199
3 43 203 304
3 9  10 270
3 83 208 186
3 54 186 208
3 13  14 231
3 16  17 187
3 21  22 248
3 4 302 169
3 0   1 190
3 39 290 229
3 53 196 275
3 92 143 277
3 69 148 226
3 49 226 148
3 8   9 235
3 35 211 154
3 73 153 230
3 41 230 153
3 94 155 221
3 63 212 178
3 24 227 148
3 49 148 228
3 37 201 189
3 86 189 201
3 17  18 286
3 59 210 158
3 306 241  50
3 153 241 306
3 41 246 145
3 80 209 205
3 128 255 198
3 81 145 298
3 45 259 287
3 24 252 162
3 65 147 253
3 39 165 207
3 12 180 293
3 86 256 189
3 114 229 290
3 50 152 306
3 88 306 152
3 73 241 153
3 103 268 167
3 61 150 267
3 139 278 299
3 19 244 157
3 68 162 303
3 7 262 185
3 50 285 152
3 10 222 270
3 88 152 270
3 83 299 278
3 80 176 209
3 47 264 247
3 121 247 264
3 87 157 244
3 56 162 237
3 90 259 269
3 134 269 259
3 54 295 186
3 101 186 295
3 87 199 249
3 95 249 199
3 36 172 311
3 63 176 212
3 66 175 213
3 46 156 281
3 51 315 159
3 98 159 307
3 2   3 238
3 106 291 160
3 90 289 179
3 29 179 289
3 71 177 287
3 99 254 222
3 56 303 162
3 71 287 179
3 19  20 244
3 136 275 234
3 88 222 254
3 66 213 195
3 26 170 300
3 80 205 206
3 79 206 205
3 80 250 176
3 38 176 250
3 63 242 170
3 73 230 300
3 125 300 230
3 78 203 202
3 82 202 203
3 101 292 236
3 74 308 164
3 1 215 190
3 131 303 243
3 56 243 303
3 13 231 180
3 85 311 172
3 24 204 227
3 22 174 248
3 7   8 262
3 79 261 206
3 24 181 252
3 171 193 312
3 20 199 244
3 87 244 199
3 86 258 280
3 123 280 258
3 86 280 256
3 115 281 184
3 75 232 210
3 11  12 293
3 36 282 172
3 73 300 170
3 4   5 302
3 79 217 261
3 138 194 265
3 33 171 312
3 143 197 277
3 89 297 265
3 138 265 297
3 45 177 266
3 162 252 237
3 62 265 194
3 45 287 177
3 39 229 214
3 97 214 229
3 38 198 255
3 64 277 197
3 121 314 247
3 75 247 314
3 44 271 206
3 34 309 178
3 42 236 292
3 88 270 222
3 115 310 281
3 31 298 194
3 148 227 228
3 70 228 227
3 83 278 208
3 84 233 276
3 43 288 203
3 39 207 290
3 94 304 182
3 86 201 258
3 69 258 201
3 102 261 217
3 81 275 196
3 17 286 187
3 99 222 293
3 11 293 222
3 110 266 200
3 70 214 296
3 97 296 214
3 44 206 261
3 113 242 309
3 110 272 266
3 125 230 251
3 74 212 255
3 8 235 262
3 92 262 235
3 131 312 193
3 25 224 273
3 91 273 224
3 98 307 263
3 102 283 261
3 45 266 272
3 93 238 315
3 159 315 238
3 139 299 225
3 69 226 258
3 123 258 226
3 145 194 298
3 80 206 271
3 41 251 230
3 31 234 298
3 38 250 301
3 112 301 250
3 132 284 218
3 81 298 234
3 46 281 310
3 99 246 254
3 77 237 252
3 82 203 288
3 111 273 274
3 91 274 273
3 82 290 207
3 41 254 246
3 44 261 283
3 85 257 311
3 43 304 221
3 94 221 304
3 81 234 275
3 75 314 232
3 100 232 314
3 115 245 294
3 57 294 245
3 91 240 274
3 42 274 240
3 80 271 250
3 112 250 271
3 25 273 260
3 111 260 273
3 40 239 313
3 100 313 239
3 152 285 235
3 92 235 285
3 111 292 295
3 102 279 283
3 101 295 292
3 111 274 292
3 42 292 274
3 126 311 257
3 114 290 288
3 82 288 290
3 109 310 294
3 115 294 310
3 121 313 314
3 100 314 313
CELL_TYPES 556
5 5 5 5 5 5 5 5 5 5 5 5 5 5 5 5 5 5 5 5 5 5 5 5 5 5 5 5 5 5 5 5 5 5 5 5 5 5 5 5 5 5 5 5 5 5 5 5 5 5 5 5 5 5 5 5 5 5 5 5 5 5 5 5 5 5 5 5 5 5 5 5 5 5 5 5 5 5 5 5 5 5 5 5 5 5 5 5 5 5 5 5 5 5 5 5 5 5 5 5 5 5 5 5 5 5 5 5 5 5 5 5 5 5 5 5 5 5 5 5 5 5 5 5 5 5 5 5 5 5 5 5 5 5 5 5 5 5 5 5 5 5 5 5 5 5 5 5 5 5 5 5 5 5 5 5 5 5 5 5 5 5 5 5 5 5 5 5 5 5 5 5 5 5 5 5 5 5 5 5 5 5 5 5 5 5 5 5 5 5 5 5 5 5 5 5 5 5 5 5 5 5 5 5 5 5 5 5 5 5 5 5 5 5 5 5 5 5 5 5 5 5 5 5 5 5 5 5 5 5 5 5 5 5 5 5 5 5 5 5 5 5 5 5 5 5 5 5 5 5 5 5 5 5 5 5 5 5 5 5 5 5 5 5 5 5 5 5 5 5 5 5 5 5 5 5 5 5 5 5 5 5 5 5 5 5 5 5 5 5 5 5 5 5 5 5 5 5 5 5 5 5 5 5 5 5 5 5 5 5 5 5 5 5 5 5 5 5 5 5 5 5 5 5 5 5 5 5 5 5 5 5 5 5 5 5 5 5 5 5 5 5 5 5 5 5 5 5 5 5 5 5 5 5 5 5 5 5 5 5 5 5 5 5 5 5 5 5 5 5 5 5 5 5 5 5 5 5 5 5 5 5 5 5 5 5 5 5 5 5 5 5 5 5 5 5 5 5 5 5 5 5 5 5 5 5 5 5 5 5 5 5 5 5 5 5 5 5 5 5 5 5 5 5 5 5 5 5 5 5 5 5 5 5 5 5 5 5 5 5 5 5 5 5 5 5 5 5 5 5 5 5 5 5 5 5 5 5 5 5 5 5 5 5 5 5 5 5 5 5 5 5 5 5 5 5 5 5 5 5 5 5 5 5 5 5 5 5 5 5 5 5 5 5 5 5 5 5 5 5 5 5 5 5 5 5 5 5 5 5 5 5 5 5 5 5 5 5 5 5 5 5 5 5 5 5 5 5 5 5 5 5 5 5 5 5 5 5 5 5 5 5 5 5 5 5 5 5 5 5 5 5 5 5 5 5 
POINT_DATA 316
VECTORS displacement_ITER1 FLOAT
 2.180679e-01  2.053169e-01  0 
 2.182518e-01  2.107209e-01  0 
 2.184079e-01  2.161374e-01  0 
 2.185237e-01  2.215256e-01  0 
 1.104689e-01  2.814508e-01  0 
 1.105664e-01  2.758412e-01  0 
 1.106791e-01  2.702963e-01  0 
 1.107900e-01  2.647970e-01  0 
 1.109057e-01  2.593274e-01  0 
 1.110203e-01  2.538850e-01  0 
 1.111360e-01  2.484641e-01  0 
 1.112569e-01  2.430589e-01  0 
 1.113852e-01  2.376686e-01  0 
 1.115207e-01  2.322935e-01  0 
 1.116667e-01  2.269361e-01  0 
 1.118192e-01  2.215988e-01  0 
 1.119780e-01  2.162801e-01  0 
 1.121491e-01  2.109781e-01  0 
 1.123306e-01  2.056966e-01  0 
 1.125171e-01  2.004397e-01  0 
 1.127201e-01  1.951993e-01  0 
 1.129412e-01  1.899801e-01  0 
 1.131983e-01  1.848092e-01  0 
 1.649898e-01  1.923039e-01  0 
 1.464245e-01  2.215290e-01  0 
 1.842467e-01  2.205283e-01  0 
 1.372745e-01  2.469254e-01  0 
 1.389680e-01  1.962054e-01  0 
 1.652157e-01  2.301727e-01  0 
 1.610473e-01  2.107607e-01  0 
 1.317127e-01  1.791106e-01  0 
 1.301027e-01  2.305728e-01  0 
 1.998096e-01  2.310182e-01  0 
 1.306800e-01  2.125655e-01  0 
 1.292525e-01  2.643807e-01  0 
 2.003825e-01  2.140117e-01  0 
 1.789626e-01  2.058055e-01  0 
 1.498718e-01  2.363996e-01  0 
 1.450663e-01  2.604495e-01  0 
 1.483696e-01  2.070176e-01  0 
 1.262379e-01  1.916379e-01  0 
 1.251957e-01  2.432777e-01  0 
 1.883045e-01  2.337673e-01  0 
 1.524430e-01  1.953135e-01  0 
 1.519941e-01  2.500502e-01  0 
 1.713590e-01  2.196416e-01  0 
 1.884759e-01  2.105187e-01  0 
 1.233948e-01  2.035868e-01  0 
 1.230131e-01  2.208107e-01  0 
 1.570447e-01  2.217561e-01  0 
 1.226844e-01  2.553615e-01  0 
 2.073107e-01  2.223935e-01  0 
 1.609697e-01  2.405010e-01  0 
 1.394618e-01  2.362787e-01  0 
 1.753470e-01  2.278314e-01  0 
 1.410320e-01  1.839052e-01  0 
 1.356969e-01  2.218132e-01  0 
 1.944205e-01  2.224539e-01  0 
 1.681316e-01  2.024698e-01  0 
 1.387415e-01  2.061538e-01  0 
 1.593563e-01  1.840147e-01  0 
 1.226438e-01  1.827509e-01  0 
 1.208878e-01  2.349509e-01  0 
 1.364527e-01  2.571074e-01  0 
 1.201504e-01  2.679615e-01  0 
 1.581188e-01  2.021803e-01  0 
 1.202389e-01  2.121564e-01  0 
 2.095635e-01  2.091112e-01  0 
 1.410653e-01  2.146189e-01  0 
 1.516410e-01  2.281357e-01  0 
 1.515151e-01  2.145929e-01  0 
 1.711576e-01  2.114624e-01  0 
 1.970482e-01  2.053634e-01  0 
 1.300437e-01  2.510858e-01  0 
 1.390048e-01  2.655964e-01  0 
 1.319605e-01  2.022992e-01  0 
 1.787468e-01  2.144316e-01  0 
 1.411205e-01  2.281239e-01  0 
 1.456457e-01  1.911987e-01  0 
 1.460110e-01  2.440882e-01  0 
 1.447958e-01  2.522729e-01  0 
 1.315152e-01  2.387303e-01  0 
 1.459112e-01  1.995065e-01  0 
 1.710909e-01  2.356207e-01  0 
 1.323837e-01  1.868590e-01  0 
 1.868045e-01  2.032678e-01  0 
 1.574614e-01  2.335484e-01  0 
 1.195086e-01  1.965509e-01  0 
 1.187780e-01  2.479408e-01  0 
 1.179616e-01  2.273146e-01  0 
 1.655395e-01  2.175606e-01  0 
 1.897758e-01  2.262627e-01  0 
 1.181294e-01  2.606642e-01  0 
 2.102593e-01  2.151693e-01  0 
 1.554622e-01  1.884061e-01  0 
 1.191140e-01  1.894256e-01  0 
 1.179080e-01  2.782718e-01  0 
 1.558708e-01  2.090213e-01  0 
 2.107407e-01  2.269513e-01  0 
 1.182601e-01  2.399041e-01  0 
 1.323099e-01  1.941968e-01  0 
 1.805009e-01  2.354883e-01  0 
 1.539909e-01  2.429257e-01  0 
 2.010856e-01  2.204688e-01  0 
 1.276318e-01  2.704491e-01  0 
 1.288368e-01  2.236266e-01  0 
 1.592076e-01  1.959921e-01  0 
 1.694717e-01  2.263224e-01  0 
 1.465031e-01  2.317215e-01  0 
 1.880702e-01  2.177417e-01  0 
 1.766912e-01  2.228863e-01  0 
 1.830488e-01  2.287069e-01  0 
 1.513913e-01  2.549625e-01  0 
 1.282230e-01  2.565022e-01  0 
 1.529259e-01  2.015534e-01  0 
 1.949647e-01  2.140075e-01  0 
 1.730758e-01  1.996924e-01  0 
 1.189118e-01  2.067580e-01  0 
 1.938797e-01  2.333949e-01  0 
 2.119928e-01  2.042576e-01  0 
 1.178769e-01  2.180578e-01  0 
 1.264374e-01  1.961261e-01  0 
 1.283654e-01  2.066316e-01  0 
 1.599069e-01  2.266413e-01  0 
 2.031634e-01  2.072628e-01  0 
 1.326236e-01  2.443105e-01  0 
 1.828445e-01  2.094272e-01  0 
 1.583941e-01  2.164006e-01  0 
 1.430607e-01  2.691441e-01  0 
 1.266371e-01  1.777058e-01  0 
 1.369405e-01  1.808629e-01  0 
 1.353308e-01  2.152913e-01  0 
 2.054288e-01  2.283333e-01  0 
 1.278148e-01  2.176707e-01  0 
 1.646785e-01  2.249208e-01  0 
 1.357269e-01  1.914339e-01  0 
 1.362664e-01  2.319272e-01  0 
 1.156296e-01  2.729994e-01  0 
 1.256939e-01  2.285127e-01  0 
 1.646729e-01  2.361942e-01  0 
 1.946553e-01  2.281723e-01  0 
 1.901198e-01  2.389684e-01  0 
 1.472565e-01  2.129323e-01  0 
 1.242711e-01  2.604107e-01  0 
 1.679185e-01  1.966549e-01  0 
 1.260523e-01  2.379095e-01  0 
 1.410746e-01  2.423605e-01  0 
 1.631382e-01  2.052336e-01  0 
 1.518912e-01  2.226496e-01  0 
 1.649814e-01  1.872417e-01  0 
 1.270576e-01  1.865406e-01  0 
 1.449164e-01  2.378924e-01  0 
 1.173064e-01  2.532272e-01  0 
 1.244963e-01  2.488303e-01  0 
 2.057728e-01  2.172842e-01  0 
 1.604820e-01  1.909083e-01  0 
 1.907727e-01  2.055681e-01  0 
 1.179868e-01  2.013534e-01  0 
 1.410298e-01  2.010175e-01  0 
 2.128396e-01  2.225674e-01  0 
 1.632534e-01  1.997276e-01  0 
 1.732697e-01  2.055509e-01  0 
 1.412438e-01  2.201985e-01  0 
 1.455018e-01  1.863627e-01  0 
 1.336808e-01  2.671133e-01  0 
 1.431312e-01  2.090296e-01  0 
 1.561782e-01  2.529540e-01  0 
 1.998372e-01  2.258113e-01  0 
 1.343939e-01  2.264929e-01  0 
 1.156243e-01  2.831291e-01  0 
 1.353179e-01  2.519276e-01  0 
 1.335397e-01  2.080845e-01  0 
 1.821567e-01  2.021712e-01  0 
 1.845971e-01  2.151254e-01  0 
 1.178688e-01  1.815945e-01  0 
 1.237311e-01  2.080572e-01  0 
 1.421289e-01  2.568942e-01  0 
 1.737458e-01  2.151951e-01  0 
 1.348264e-01  2.625317e-01  0 
 1.662583e-01  2.130664e-01  0 
 1.154736e-01  2.356675e-01  0 
 1.470371e-01  2.264254e-01  0 
 1.497995e-01  1.888987e-01  0 
 1.168181e-01  2.231453e-01  0 
 1.972376e-01  2.100350e-01  0 
 1.157796e-01  2.660423e-01  0 
 1.755829e-01  2.347357e-01  0 
 1.157998e-01  2.134791e-01  0 
 1.759203e-01  2.102517e-01  0 
 1.555061e-01  2.384838e-01  0 
 2.142641e-01  2.082912e-01  0 
 1.215124e-01  2.726394e-01  0 
 1.671650e-01  2.080888e-01  0 
 1.376262e-01  2.108270e-01  0 
 1.256632e-01  2.327480e-01  0 
 1.229209e-01  2.161671e-01  0 
 1.362387e-01  2.409204e-01  0 
 1.246345e-01  2.662012e-01  0 
 1.468544e-01  2.650829e-01  0 
 1.170921e-01  1.935411e-01  0 
 1.796594e-01  2.192557e-01  0 
 1.530421e-01  2.329061e-01  0 
 1.435043e-01  1.954841e-01  0 
 1.485051e-01  1.943566e-01  0 
 1.451695e-01  2.174102e-01  0 
 1.428341e-01  2.477895e-01  0 
 1.475516e-01  2.487126e-01  0 
 1.449559e-01  2.039663e-01  0 
 1.707002e-01  2.313362e-01  0 
 1.400371e-01  2.525824e-01  0 
 1.365115e-01  2.019194e-01  0 
 2.056066e-01  2.122101e-01  0 
 1.399303e-01  2.610049e-01  0 
 1.256255e-01  2.122025e-01  0 
 1.517488e-01  2.103691e-01  0 
 2.141523e-01  2.127871e-01  0 
 1.409479e-01  1.901948e-01  0 
 1.500866e-01  2.410684e-01  0 
 2.047354e-01  2.329878e-01  0 
 1.280379e-01  1.818003e-01  0 
 1.552838e-01  1.982876e-01  0 
 1.560212e-01  1.931604e-01  0 
 1.154636e-01  2.448155e-01  0 
 1.417745e-01  2.325713e-01  0 
 1.889755e-01  2.216915e-01  0 
 1.652796e-01  2.407688e-01  0 
 1.553211e-01  2.256785e-01  0 
 1.494235e-01  2.179588e-01  0 
 1.540292e-01  2.179705e-01  0 
 1.533186e-01  2.056957e-01  0 
 1.289594e-01  2.463434e-01  0 
 1.156475e-01  2.305327e-01  0 
 1.346925e-01  1.976648e-01  0 
 1.338532e-01  1.828400e-01  0 
 1.324235e-01  2.346346e-01  0 
 1.150462e-01  2.575784e-01  0 
 1.849687e-01  2.370388e-01  0 
 1.391443e-01  2.239226e-01  0 
 2.143023e-01  2.181787e-01  0 
 1.303869e-01  1.907652e-01  0 
 1.906019e-01  2.302676e-01  0 
 1.261074e-01  2.529108e-01  0 
 1.321934e-01  2.553406e-01  0 
 1.325955e-01  2.183553e-01  0 
 1.159651e-01  1.974125e-01  0 
 1.967046e-01  2.178479e-01  0 
 1.223043e-01  2.401719e-01  0 
 1.275393e-01  2.013068e-01  0 
 1.172560e-01  1.861938e-01  0 
 1.221359e-01  1.927252e-01  0 
 1.470250e-01  2.561318e-01  0 
 1.290597e-01  2.420863e-01  0 
 1.429939e-01  2.240367e-01  0 
 1.593223e-01  2.066828e-01  0 
 1.208622e-01  2.441928e-01  0 
 1.428093e-01  2.639022e-01  0 
 1.602948e-01  2.362171e-01  0 
 1.863911e-01  2.068829e-01  0 
 1.563913e-01  2.296744e-01  0 
 1.677514e-01  2.212867e-01  0 
 1.804982e-01  2.250979e-01  0 
 1.508159e-01  2.455646e-01  0 
 1.140967e-01  2.620520e-01  0 
 2.141645e-01  2.309936e-01  0 
 1.229744e-01  1.987458e-01  0 
 1.213261e-01  2.298688e-01  0 
 1.753677e-01  2.192383e-01  0 
 1.225779e-01  1.877674e-01  0 
 2.034950e-01  2.243127e-01  0 
 1.621707e-01  2.205257e-01  0 
 1.148829e-01  2.496847e-01  0 
 1.485513e-01  2.524239e-01  0 
 1.729148e-01  2.234916e-01  0 
 1.851929e-01  2.253309e-01  0 
 1.867590e-01  2.294723e-01  0 
 1.354034e-01  2.368268e-01  0 
 1.368121e-01  1.860085e-01  0 
 1.205967e-01  2.642510e-01  0 
 1.676452e-01  2.336191e-01  0 
 1.581523e-01  2.436404e-01  0 
 1.607470e-01  2.318103e-01  0 
 1.928757e-01  2.099231e-01  0 
 1.777444e-01  2.012975e-01  0 
 1.552712e-01  2.465683e-01  0 
 2.088246e-01  2.309167e-01  0 
 1.189699e-01  2.567227e-01  0 
 1.158841e-01  2.098092e-01  0 
 1.693008e-01  2.163669e-01  0 
 1.503451e-01  1.985928e-01  0 
 1.626808e-01  2.156608e-01  0 
 1.488810e-01  2.025307e-01  0 
 1.630741e-01  1.955875e-01  0 
 1.838623e-01  2.326018e-01  0 
 1.141641e-01  2.403554e-01  0 
 1.922799e-01  2.179983e-01  0 
 1.796169e-01  2.311577e-01  0 
 1.554339e-01  2.131831e-01  0 
 1.222762e-01  2.255429e-01  0 
 1.288569e-01  2.349890e-01  0 
 1.684424e-01  2.384123e-01  0 
 1.332538e-01  2.483620e-01  0 
 1.496056e-01  2.598388e-01  0 
 1.137286e-01  2.784780e-01  0 
 1.378357e-01  2.181127e-01  0 
 1.524554e-01  1.918598e-01  0 
 1.228968e-01  1.789783e-01  0 
 1.212865e-01  2.511758e-01  0 
 2.151017e-01  2.261753e-01  0 
 1.374313e-01  2.694149e-01  0 
 1.309293e-01  2.600898e-01  0 
 1.905688e-01  2.142443e-01  0 
 1.831694e-01  2.055997e-01  0 
 1.342936e-01  2.116909e-01  0 
 1.292083e-01  1.940649e-01  0 
 1.304482e-01  1.976083e-01  0 
 2.101398e-01  2.193270e-01  0 
VECTORS displacement_ITER2 FLOAT
 2.023035e-01  1.907490e-01  0 
 2.025117e-01  1.955802e-01  0 
 2.026810e-01  2.004411e-01  0 
 2.027916e-01  2.052588e-01  0 
 1.025239e-01  2.611434e-01  0 
 1.025767e-01  2.560772e-01  0 
 1.026242e-01  2.510104e-01  0 
 1.026771e-01  2.459320e-01  0 
 1.027383e-01  2.408502e-01  0 
 1.028105e-01  2.357696e-01  0 
 1.028926e-01  2.306927e-01  0 
 1.029864e-01  2.256222e-01  0 
 1.030920e-01  2.205588e-01  0 
 1.032086e-01  2.155056e-01  0 
 1.033378e-01  2.104650e-01  0 
 1.034759e-01  2.054399e-01  0 
 1.036222e-01  2.004302e-01  0 
 1.037813e-01  1.954346e-01  0 
 1.039514e-01  1.904571e-01  0 
 1.041268e-01  1.855017e-01  0 
 1.043168e-01  1.805619e-01  0 
 1.045194e-01  1.756429e-01  0 
 1.047434e-01  1.707657e-01  0 
 1.535409e-01  1.778514e-01  0 
 1.360476e-01  2.053584e-01  0 
 1.715496e-01  2.044139e-01  0 
 1.273792e-01  2.292489e-01  0 
 1.290727e-01  1.814978e-01  0 
 1.537306e-01  2.134643e-01  0 
 1.498287e-01  1.952268e-01  0 
 1.222823e-01  1.653438e-01  0 
 1.206757e-01  2.138850e-01  0 
 1.859339e-01  2.140290e-01  0 
 1.212381e-01  1.969269e-01  0 
 1.198211e-01  2.455729e-01  0 
 1.864093e-01  1.984647e-01  0 
 1.666121e-01  1.906733e-01  0 
 1.392471e-01  2.193549e-01  0 
 1.346452e-01  2.419364e-01  0 
 1.379055e-01  1.916915e-01  0 
 1.170756e-01  1.771924e-01  0 
 1.160602e-01  2.258275e-01  0 
 1.753349e-01  2.166932e-01  0 
 1.417561e-01  1.806662e-01  0 
 1.411868e-01  2.321954e-01  0 
 1.595110e-01  2.035737e-01  0 
 1.754562e-01  1.951475e-01  0 
 1.143808e-01  1.884670e-01  0 
 1.140136e-01  2.046973e-01  0 
 1.460480e-01  2.055618e-01  0 
 1.137081e-01  2.371499e-01  0 
 1.927268e-01  2.061202e-01  0 
 1.497033e-01  2.232194e-01  0 
 1.294594e-01  2.192472e-01  0 
 1.632591e-01  2.112345e-01  0 
 1.310493e-01  1.698813e-01  0 
 1.259490e-01  2.056355e-01  0 
 1.809659e-01  2.061941e-01  0 
 1.564835e-01  1.874609e-01  0 
 1.288409e-01  1.908796e-01  0 
 1.482447e-01  1.700570e-01  0 
 1.137010e-01  1.687941e-01  0 
 1.120161e-01  2.180054e-01  0 
 1.265821e-01  2.387900e-01  0 
 1.113408e-01  2.488731e-01  0 
 1.470799e-01  1.871474e-01  0 
 1.114034e-01  1.965447e-01  0 
 1.947385e-01  1.941182e-01  0 
 1.310153e-01  1.988550e-01  0 
 1.409418e-01  2.115720e-01  0 
 1.408548e-01  1.988251e-01  0 
 1.593199e-01  1.959157e-01  0 
 1.833312e-01  1.905036e-01  0 
 1.205944e-01  2.331479e-01  0 
 1.289572e-01  2.467436e-01  0 
 1.224569e-01  1.872487e-01  0 
 1.664195e-01  1.987230e-01  0 
 1.310393e-01  2.115731e-01  0 
 1.353744e-01  1.767761e-01  0 
 1.355885e-01  2.265887e-01  0 
 1.344196e-01  2.342719e-01  0 
 1.219924e-01  2.215548e-01  0 
 1.356047e-01  1.846127e-01  0 
 1.592697e-01  2.185801e-01  0 