# vtk DataFile Version 3.1
this is an vtk file created by FEMAC
ASCII
DATASET UNSTRUCTURED_GRID
POINTS 313 FLOAT
3.000000 3.000000 0.000000
3.000000 4.000000 0.000000
3.248687 3.984478 0.000000
3.199136 3.990062 0.000000
3.149460 3.994408 0.000000
3.099692 3.997514 0.000000
3.049861 3.999378 0.000000
2.950000 4.000000 0.000000
2.900000 4.000000 0.000000
2.850000 4.000000 0.000000
2.800000 4.000000 0.000000
2.750000 4.000000 0.000000
2.700000 4.000000 0.000000
2.650000 4.000000 0.000000
2.600000 4.000000 0.000000
2.800000 3.000000 0.000000
2.850000 3.000000 0.000000
2.900000 3.000000 0.000000
2.950000 3.000000 0.000000
3.149042 2.988831 0.000000
3.099568 2.995031 0.000000
3.049846 2.998757 0.000000
3.000000 3.050000 0.000000
3.000000 3.100000 0.000000
3.000000 3.150000 0.000000
3.000000 3.200000 0.000000
3.000000 3.250000 0.000000
3.000000 3.300000 0.000000
3.000000 3.350000 0.000000
3.000000 3.400000 0.000000
3.000000 3.450000 0.000000
3.000000 3.500000 0.000000
3.000000 3.550000 0.000000
3.000000 3.600000 0.000000
3.000000 3.650000 0.000000
3.000000 3.700000 0.000000
3.000000 3.750000 0.000000
3.000000 3.800000 0.000000
3.000000 3.850000 0.000000
3.000000 3.900000 0.000000
3.000000 3.950000 0.000000
3.215687 3.461779 0.000000
3.205254 3.790386 0.000000
3.164372 3.613741 0.000000
3.159148 3.145898 0.000000
3.152537 3.321925 0.000000
3.118396 3.879096 0.000000
3.113867 3.512220 0.000000
3.094185 3.711038 0.000000
3.246193 3.692473 0.000000
3.087955 3.418702 0.000000
3.243927 3.883265 0.000000
3.090088 3.238507 0.000000
3.231512 3.066385 0.000000
3.092445 3.084241 0.000000
3.083703 3.798928 0.000000
3.253535 3.602756 0.000000
3.077872 3.634922 0.000000
3.197492 3.537158 0.000000
3.278860 3.774561 0.000000
3.077443 3.323390 0.000000
3.186142 3.388837 0.000000
3.073659 3.161126 0.000000
3.174832 3.924372 0.000000
3.068600 3.930592 0.000000
3.155263 3.057597 0.000000
3.065512 3.465411 0.000000
3.179151 3.723958 0.000000
3.063854 3.559368 0.000000
3.177018 3.851080 0.000000
3.152274 3.457453 0.000000
3.062559 3.677068 0.000000
3.059905 3.852067 0.000000
3.266602 3.826893 0.000000
3.136219 3.780596 0.000000
3.059813 3.744730 0.000000
3.131436 3.579885 0.000000
3.151900 3.676364 0.000000
3.056016 3.285361 0.000000
3.126281 3.932537 0.000000
3.050648 3.371390 0.000000
3.245051 3.503657 0.000000
3.144044 3.205694 0.000000
3.142055 3.271222 0.000000
3.265378 3.932416 0.000000
3.210929 3.643913 0.000000
3.055787 3.052142 0.000000
3.132889 3.830649 0.000000
3.223737 3.743781 0.000000
3.112880 3.360234 0.000000
3.052879 3.204998 0.000000
3.214648 3.128579 0.000000
3.048599 3.122953 0.000000
3.141165 3.105575 0.000000
3.183585 3.030554 0.000000
3.194926 3.293623 0.000000
3.048365 3.513232 0.000000
3.249886 3.555356 0.000000
3.158915 3.499412 0.000000
3.192732 3.340807 0.000000
3.105971 3.041200 0.000000
3.101418 3.284963 0.000000
3.102015 3.665432 0.000000
3.205457 3.587097 0.000000
3.215023 3.937373 0.000000
3.118928 3.170824 0.000000
3.215235 3.835398 0.000000
3.038800 3.430084 0.000000
3.039201 3.814107 0.000000
3.044659 3.598572 0.000000
3.241501 3.793307 0.000000
3.042457 3.894088 0.000000
3.105171 3.131356 0.000000
3.102248 3.756158 0.000000
3.180887 3.089098 0.000000
3.270955 3.728278 0.000000
3.119784 3.626459 0.000000
3.042497 3.644453 0.000000
3.110515 3.468650 0.000000
3.200009 3.693464 0.000000
3.168375 3.570979 0.000000
3.201966 3.496140 0.000000
3.182113 3.432734 0.000000
3.141851 3.412934 0.000000
3.034803 3.325525 0.000000
3.039786 3.959688 0.000000
3.171863 3.958932 0.000000
3.034506 3.171025 0.000000
3.033833 3.776933 0.000000
3.197121 3.886374 0.000000
3.156692 3.886754 0.000000
3.156681 3.362841 0.000000
3.171596 3.812285 0.000000
3.083122 3.892937 0.000000
3.040345 3.709721 0.000000
3.097825 3.847076 0.000000
3.144398 3.539722 0.000000
3.090286 3.589593 0.000000
3.028688 3.475000 0.000000
3.092041 3.960385 0.000000
3.114076 3.320297 0.000000
3.093318 3.195409 0.000000
3.139919 3.735187 0.000000
3.032543 3.082674 0.000000
3.074425 3.023588 0.000000
3.140170 3.024298 0.000000
3.175855 3.763361 0.000000
3.030293 3.026930 0.000000
3.096189 3.541670 0.000000
3.085241 3.499503 0.000000
3.033164 3.246478 0.000000
3.030169 3.926874 0.000000
3.181390 3.470624 0.000000
3.029080 3.676248 0.000000
2.697600 3.700568 0.000000
2.781116 3.500433 0.000000
2.827620 3.823269 0.000000
2.826606 3.176800 0.000000
2.596486 3.831057 0.000000
2.844816 3.347085 0.000000
2.844559 3.643113 0.000000
2.560332 3.685210 0.000000
2.710547 3.876459 0.000000
2.888318 3.460139 0.000000
2.720529 3.593012 0.000000
2.904427 3.739500 0.000000
2.909051 3.257015 0.000000
2.905600 3.906066 0.000000
2.905600 3.093934 0.000000
2.900202 3.559700 0.000000
2.797970 3.733690 0.000000
2.802610 3.270125 0.000000
2.537357 3.583580 0.000000
2.764883 3.409248 0.000000
2.669744 3.788751 0.000000
2.529928 3.764992 0.000000
2.797781 3.907805 0.000000
2.797781 3.092195 0.000000
2.629004 3.914329 0.000000
2.639531 3.634109 0.000000
2.707132 3.502148 0.000000
2.919565 3.817977 0.000000
2.919565 3.182023 0.000000
2.921647 3.387225 0.000000
2.607836 3.740806 0.000000
2.925289 3.658201 0.000000
2.751032 3.796911 0.000000
2.751032 3.203089 0.000000
2.810446 3.574556 0.000000
2.770475 3.658603 0.000000
2.765023 3.337011 0.000000
2.930713 3.321625 0.000000
2.831089 3.423495 0.000000
2.852359 3.509301 0.000000
2.721921 3.933777 0.000000
2.934429 3.511298 0.000000
2.651972 3.845746 0.000000
2.850229 3.935360 0.000000
2.850229 3.064640 0.000000
2.590410 3.615714 0.000000
2.939016 3.605905 0.000000
2.930288 3.940830 0.000000
2.930288 3.059170 0.000000
2.760369 3.855358 0.000000
2.760161 3.145045 0.000000
2.740900 3.460846 0.000000
2.849939 3.304963 0.000000
2.845329 3.692829 0.000000
2.834642 3.771765 0.000000
2.834729 3.230096 0.000000
2.939466 3.438395 0.000000
2.945506 3.775956 0.000000
2.947712 3.222234 0.000000
2.693765 3.634088 0.000000
2.852626 3.876017 0.000000
2.852481 3.123993 0.000000
2.668563 3.586157 0.000000
2.640119 3.706736 0.000000
2.737852 3.741604 0.000000
2.745181 3.249331 0.000000
2.944424 3.864351 0.000000
2.944424 3.135649 0.000000
2.743403 3.542476 0.000000
2.674530 3.954812 0.000000
2.560089 3.877206 0.000000
2.947854 3.712195 0.000000
2.856729 3.590966 0.000000
2.621681 3.789967 0.000000
2.873433 3.839392 0.000000
2.873433 3.160608 0.000000
2.708471 3.823652 0.000000
2.952868 3.558187 0.000000
2.765412 3.046286 0.000000
2.765412 3.953714 0.000000
2.682943 3.745483 0.000000
2.791815 3.445119 0.000000
2.892317 3.623605 0.000000
2.796790 3.369804 0.000000
2.887590 3.331211 0.000000
2.878807 3.411981 0.000000
2.579654 3.779690 0.000000
2.893701 3.955948 0.000000
2.893701 3.044052 0.000000
2.880305 3.786328 0.000000
2.881149 3.213191 0.000000
2.803665 3.623261 0.000000
2.830765 3.472909 0.000000
2.611461 3.954347 0.000000
2.796946 3.786808 0.000000
2.792325 3.220281 0.000000
2.804779 3.321824 0.000000
2.587035 3.562018 0.000000
2.951285 3.281170 0.000000
2.671429 3.901667 0.000000
2.748781 3.900818 0.000000
2.748766 3.099211 0.000000
2.752121 3.697885 0.000000
2.955731 3.359023 0.000000
2.613076 3.873465 0.000000
2.605418 3.664635 0.000000
2.622897 3.594029 0.000000
2.803596 3.682891 0.000000
2.961899 3.821657 0.000000
2.962340 3.177981 0.000000
2.890942 3.697548 0.000000
2.892066 3.514454 0.000000
2.565690 3.732612 0.000000
2.967691 3.670982 0.000000
2.816326 3.526992 0.000000
2.710009 3.779280 0.000000
2.963258 3.478871 0.000000
2.757469 3.298829 0.000000
2.958634 3.401211 0.000000
2.812684 3.040624 0.000000
2.812684 3.959376 0.000000
2.735331 3.630083 0.000000
2.806053 3.861048 0.000000
2.806053 3.138952 0.000000
2.766227 3.596099 0.000000
2.882912 3.369550 0.000000
2.785934 3.178596 0.000000
2.743276 3.500924 0.000000
2.960374 3.905630 0.000000
2.960374 3.094370 0.000000
2.905443 3.859589 0.000000
2.905435 3.140412 0.000000
2.592368 3.705790 0.000000
2.854688 3.545995 0.000000
2.969290 3.523955 0.000000
2.666298 3.668120 0.000000
2.788404 3.824679 0.000000
2.966399 3.637018 0.000000
2.878463 3.660039 0.000000
2.595198 3.910588 0.000000
2.770813 3.763450 0.000000
2.967546 3.322364 0.000000
2.960944 3.961642 0.000000
2.960944 3.038358 0.000000
2.898858 3.293911 0.000000
2.554096 3.640229 0.000000
2.915719 3.353727 0.000000
2.719862 3.665947 0.000000
2.923475 3.477720 0.000000
2.925000 3.973393 0.000000
2.925000 3.026607 0.000000
2.723660 3.971289 0.000000
2.841910 3.389225 0.000000
2.641643 3.756452 0.000000
2.557171 3.815845 0.000000
2.783504 3.548111 0.000000
2.856944 3.736438 0.000000
2.859050 3.262829 0.000000
2.802194 3.406356 0.000000
CELLS 556 2224 
3 75 134  48
3 48 134  71
3 26 150  27
3 50  66 107
3 32  68 109
3 32 96 68
3 150  78  27
3 54 65 93
3 43 85 77
3 54 100  65
3 50 80 89
3 60 89 80
3 49  88 119
3 67 119  88
3 50 118  66
3 51 104 129
3 51  84 104
3 139   4   5
3 46  79 133
3 50 123 118
3 79   4 139
3 46 130  79
3 70 118 123
3 50 107  80
3 52  78 150
3 38  72 111
3 52 150  90
3 32 109  33
3 27  78 124
3 28 80 29
3 67 142  77
3 48  77 142
3 101  83 140
3 89 131 123
3 64 133  79
3 55 74 87
3 83  45 140
3 70  98 118
3 47 118  98
3 63  79 130
3 69 130  87
3 46  87 130
3 19  94 145
3 52 82 83
3 44 114  91
3 77  85 119
3 44  93 114
3 38 108  72
3 50  89 123
3 51 106  73
3 52 141  82
3 28 124  80
3 44 112  93
3 48  71 102
3 55 128  75
3 60 124  78
3 24  92 127
3 31 96 32
3 57 102  71
3 44 105 112
3 23 92 24
3 82 141 105
3 53 114  94
3 65  94 114
3 38 111  39
3 43 116  76
3 52 101  78
3 58 81 97
3 54 143  86
3 57  71 117
3 56  85 103
3 43 103  85
3 33 117  34
3 54  92 143
3 60  80 124
3 48 102  77
3 43  77 116
3 63 129 104
3 58  97 103
3 55  72 108
3 33 109 117
3 45 83 95
3 55 135  72
3 73 110  59
3 54  86 100
3 52  83 101
3 60  78 101
3 36 134  75
3 96 149 148
3 68  96 148
3 36  75 128
3 55 113  74
3 54 112  92
3 62  92 112
3 51 129 106
3 56 103  97
3 48 113  75
3 55  75 113
3 43  76 120
3 45 95 99
3 62 127  92
3 29  80 107
3 44  82 105
3 6 125 139
3 37 108  38
3 67  77 119
3 55 108 128
3 4  79 126
3 63 126  79
3 42 146  88
3 61 123 131
3 2 104  84
3 64  79 139
3 67  88 146
3 65 145  94
3 69 106 129
3 1 125   6
3 5   6 139
3 1  40 125
3 76 116 137
3 42  88 110
3 41  81 121
3 58 121  81
3 58 136  98
3 59 110  88
3 77 102 116
3 74 132  87
3 2   3 104
3 49 119  85
3 25  90 150
3 69 132 106
3 42 106 132
3 49 115  88
3 86 144 100
3 29 107  30
3 58 120 136
3 74 146 132
3 55  87 135
3 59  88 115
3 25 150  26
3 22  86 143
3 22 147  86
3 35 134  36
3 53  91 114
3 25 127  90
3 69  87 132
3 3 126 104
3 63 104 126
3 30 107 138
3 46 135  87
3 54  93 112
3 66 138 107
3 19 145  20
3 43 120 103
3 42 132 146
3 65 114  93
3 45 131  89
3 62  90 127
3 60 140  89
3 20 145 100
3 45  89 140
3 62 141  90
3 52  90 141
3 72 135 133
3 73 106 110
3 42 110 106
3 64 139 125
3 24 127  25
3 22 143  23
3 57 137 116
3 62 112 105
3 58  98 121
3 57 116 102
3 27 124  28
3 58 103 120
3 23 143  92
3 3   4 126
3 36 128  37
3 46 133 135
3 66  96 138
3 31 138  96
3 57 117 109
3 47 148 149
3 57 109 137
3 68 137 109
3 47  98 136
3 0 147  22
3 30 138  31
3 61 131  99
3 45  99 131
3 0  21 147
3 66 149  96
3 70 152  98
3 20 144  21
3 39 151  40
3 34 153  35
3 60 101 140
3 74 113 142
3 48 142 113
3 20 100 144
3 72 133 111
3 65 100 145
3 37 128 108
3 21 144 147
3 86 147 144
3 62 105 141
3 63 130 129
3 69 129 130
3 70 123 122
3 61 122 123
3 64 151 111
3 64 111 133
3 76 148 136
3 47 136 148
3 76 136 120
3 76 137 148
3 68 148 137
3 64 125 151
3 39 111 151
3 47 149 118
3 66 118 149
3 41 152 122
3 70 122 152
3 98 152 121
3 34 117 153
3 67 146 142
3 74 142 146
3 71 153 117
3 71 134 153
3 35 153 134
3 41 121 152
3 40 151 125
3 154 218 234
3 156 208 243
3 157 244 209
3 183 210 239
3 163 239 210
3 162 194 253
3 218 269 234
3 156 243 228
3 157 229 244
3 158 227 196
3 174 196 227
3 166 212 252
3 172 199 299
3 169 200 236
3 176 214 197
3 177 198 215
3 166 252 298
3 284 214 228
3 285 229 215
3 282  38  39
3 23  24 283
3 33 200 231
3 16 242 198
3 9 197 241
3 167 197 214
3 168 215 198
3 163 246 192
3 196 253 258
3 162 230 203
3 186 203 230
3 162 196 230
3 174 230 196
3 163 193 246
3 167 214 284
3 168 285 215
3 178 258 253
3 220  38 282
3 283  24 221
3 36 211 225
3 37 262 211
3 25 212 263
3 163 192 239
3 36  37 211
3 25  26 212
3 163 265 193
3 171 219 249
3 187 249 219
3 160 261 245
3 165 225 211
3 179 216 213
3 169 195 231
3 169 236 226
3 181 243 211
3 165 211 243
3 166 244 212
3 182 212 244
3 162 254 194
3 155 246 268
3 164 213 216
3 194 223 253
3 35  36 225
3 193 268 246
3 162 253 196
3 32  33 231
3 167 282 201
3 168 202 283
3 165 264 225
3 194 254 233
3 30 210 272
3 169 265 195
3 179 259 199
3 16  17 242
3 8   9 241
3 167 241 197
3 168 198 242
3 160 245 226
3 188 226 245
3 189 245 261
3 181 211 262
3 182 263 212
3 176 233 254
3 177 255 232
3 170 207 310
3 171 311 206
3 176 197 274
3 177 273 198
3 167 220 282
3 168 283 221
3 170 310 208
3 171 209 311
3 12  13 223
3 169 287 265
3 160 207 261
3 170 256 261
3 171 206 250
3 29  30 272
3 167 201 241
3 168 242 202
3 184 217 307
3 158 224 308
3 40 296 282
3 22 283 297
3 12 223 305
3 217 234 307
3 169 231 200
3 158 196 258
3 155 205 235
3 173 235 205
3 199 259 299
3 202 297 283
3 201 282 296
3 28  29 257
3 170 208 248
3 157 209 249
3 170 218 256
3 178 247 293
3 9 274 197
3 16 198 273
3 172 251 199
3 185 236 200
3 189 275 278
3 29 272 257
3 193 265 287
3 189 278 245
3 164 222 278
3 179 199 260
3 185 225 264
3 171 250 271
3 161 299 259
3 194 305 223
3 185 200 291
3 156 228 214
3 157 215 229
3 159 206 238
3 33 291 200
3 179 260 216
3 154 234 217
3 176 254 203
3 162 203 254
3 177 204 255
3 176 203 276
3 177 277 204
3 308 175 240
3 159 250 206
3 222 309 278
3 217 259 289
3 289 259 179
3 155 281 205
3 160 292 207
3 187 204 280
3 156 248 208
3 171 249 209
3 163 210 302
3 174 234 269
3 26 252 212
3 186 290 203
3 189 261 256
3 180 205 281
3 161 286 266
3 39  40 282
3 22  23 283
3 184 227 240
3 155 235 246
3 170 261 207
3 160 226 236
3 176 276 214
3 177 215 277
3 169 226 287
3 184 286 217
3 163 302 265
3 191 298 252
3 176 274 233
3 177 232 273
3 190 271 250
3 13 247 223
3 206 311 298
3 181 228 243
3 182 244 229
3 178 223 247
3 179 213 289
3 30 270 210
3 154 256 218
3 181 262 220
3 38 220 262
3 24 263 221
3 182 221 263
3 183 272 210
3 178 253 223
3 184 240 266
3 10  11 233
3 164 275 213
3 156 214 276
3 157 277 215
3 154 217 289
3 170 294 218
3 158 258 224
3 208 310 243
3 165 243 310
3 166 311 244
3 209 244 311
3 158 240 227
3 186 269 218
3 155 309 222
3 171 271 219
3 237 306 312
3 181 220 284
3 182 285 221
3 186 218 294
3 206 298 238
3 167 284 220
3 168 221 285
3 159 306 237
3 170 248 294
3 26  27 252
3 154 289 301
3 157 249 280
3 194 233 305
3 180 281 222
3 155 222 281
3 166 298 311
3 213 301 289
3 13  14 247
3 192 246 235
3 35 225 267
3 9  10 274
3 15  16 273
3 195 265 302
3 159 237 250
3 11 305 233
3 195 288 231
3 190 250 237
3 185 267 225
3 175 266 240
3 217 286 259
3 186 230 269
3 174 269 230
3 188 287 226
3 185 291 267
3 207 292 264
3 37  38 262
3 24  25 263
3 34  35 267
3 33  34 291
3 199 251 260
3 164 278 275
3 1 296  40
3 1   7 296
3 0 297  18
3 0  22 297
3 30  31 270
3 165 310 264
3 207 264 310
3 181 284 228
3 182 229 285
3 174 227 307
3 189 256 301
3 15 273 232
3 10 233 274
3 183 239 279
3 192 235 312
3 173 312 235
3 160 236 292
3 174 307 234
3 155 268 309
3 185 292 236
3 32 231 288
3 184 307 227
3 31  32 288
3 27  28 295
3 159 238 279
3 31 288 270
3 195 270 288
3 189 301 275
3 183 257 272
3 187 280 249
3 186 248 290
3 188 245 278
3 192 312 306
3 17  18 304
3 7   8 303
3 11  12 305
3 27 295 252
3 191 252 295
3 224 258 293
3 157 280 277
3 204 277 280
3 191 238 298
3 191 300 238
3 186 294 248
3 173 237 312
3 192 306 239
3 161 259 286
3 178 293 258
3 158 308 240
3 8 241 303
3 201 303 241
3 202 242 304
3 17 304 242
3 185 264 292
3 156 290 248
3 28 257 295
3 188 268 287
3 188 278 309
3 183 300 257
3 191 257 300
3 154 301 256
3 191 295 257
3 184 266 286
3 239 306 279
3 210 270 302
3 195 302 270
3 203 290 276
3 156 276 290
3 193 287 268
3 34 267 291
3 159 279 306
3 202 304 297
3 18 297 304
3 7 303 296
3 201 296 303
3 188 309 268
3 213 275 301
3 238 300 279
3 183 279 300
CELL_TYPES 556
5 5 5 5 5 5 5 5 5 5 5 5 5 5 5 5 5 5 5 5 5 5 5 5 5 5 5 5 5 5 5 5 5 5 5 5 5 5 5 5 5 5 5 5 5 5 5 5 5 5 5 5 5 5 5 5 5 5 5 5 5 5 5 5 5 5 5 5 5 5 5 5 5 5 5 5 5 5 5 5 5 5 5 5 5 5 5 5 5 5 5 5 5 5 5 5 5 5 5 5 5 5 5 5 5 5 5 5 5 5 5 5 5 5 5 5 5 5 5 5 5 5 5 5 5 5 5 5 5 5 5 5 5 5 5 5 5 5 5 5 5 5 5 5 5 5 5 5 5 5 5 5 5 5 5 5 5 5 5 5 5 5 5 5 5 5 5 5 5 5 5 5 5 5 5 5 5 5 5 5 5 5 5 5 5 5 5 5 5 5 5 5 5 5 5 5 5 5 5 5 5 5 5 5 5 5 5 5 5 5 5 5 5 5 5 5 5 5 5 5 5 5 5 5 5 5 5 5 5 5 5 5 5 5 5 5 5 5 5 5 5 5 5 5 5 5 5 5 5 5 5 5 5 5 5 5 5 5 5 5 5 5 5 5 5 5 5 5 5 5 5 5 5 5 5 5 5 5 5 5 5 5 5 5 5 5 5 5 5 5 5 5 5 5 5 5 5 5 5 5 5 5 5 5 5 5 5 5 5 5 5 5 5 5 5 5 5 5 5 5 5 5 5 5 5 5 5 5 5 5 5 5 5 5 5 5 5 5 5 5 5 5 5 5 5 5 5 5 5 5 5 5 5 5 5 5 5 5 5 5 5 5 5 5 5 5 5 5 5 5 5 5 5 5 5 5 5 5 5 5 5 5 5 5 5 5 5 5 5 5 5 5 5 5 5 5 5 5 5 5 5 5 5 5 5 5 5 5 5 5 5 5 5 5 5 5 5 5 5 5 5 5 5 5 5 5 5 5 5 5 5 5 5 5 5 5 5 5 5 5 5 5 5 5 5 5 5 5 5 5 5 5 5 5 5 5 5 5 5 5 5 5 5 5 5 5 5 5 5 5 5 5 5 5 5 5 5 5 5 5 5 5 5 5 5 5 5 5 5 5 5 5 5 5 5 5 5 5 5 5 5 5 5 5 5 5 5 5 5 5 5 5 5 5 5 5 5 5 5 5 5 5 5 5 5 5 5 5 5 5 5 5 5 5 5 5 5 5 5 5 5 5 5 5 5 5 5 5 5 5 5 5 5 5 5 5 
POINT_DATA 313
VECTORS displacement_ITER1 FLOAT
 1.268033e-01  1.234949e-02  0 
 2.032768e-01  1.270179e-02  0 
 2.010459e-01  -6.121853e-03  0 
 2.017217e-01  -2.448164e-03  0 
 2.022795e-01  1.286793e-03  0 
 2.027115e-01  5.073190e-03  0 
 2.030440e-01  8.875988e-03  0 
 2.038012e-01  1.658224e-02  0 
 2.043339e-01  2.051934e-02  0 
 2.048473e-01  2.450607e-02  0 
 2.053629e-01  2.855527e-02  0 
 2.058758e-01  3.265880e-02  0 
 2.064041e-01  3.682045e-02  0 
 2.069509e-01  4.107150e-02  0 
 2.075609e-01  4.556728e-02  0 
 1.244633e-01  2.831435e-02  0 
 1.251063e-01  2.415001e-02  0 
 1.256703e-01  2.015367e-02  0 
 1.262390e-01  1.621694e-02  0 
 1.266735e-01  1.117847e-03  0 
 1.268701e-01  4.795797e-03  0 
 1.269207e-01  8.558580e-03  0 
 1.306154e-01  1.229920e-02  0 
 1.344140e-01  1.227326e-02  0 
 1.382103e-01  1.225687e-02  0 
 1.420088e-01  1.226050e-02  0 
 1.458156e-01  1.227130e-02  0 
 1.496245e-01  1.228006e-02  0 
 1.534362e-01  1.229121e-02  0 
 1.572505e-01  1.230104e-02  0 
 1.610688e-01  1.231390e-02  0 
 1.648899e-01  1.233299e-02  0 
 1.687127e-01  1.235416e-02  0 
 1.725422e-01  1.238121e-02  0 
 1.763739e-01  1.241374e-02  0 
 1.802108e-01  1.244606e-02  0 
 1.840505e-01  1.247645e-02  0 
 1.878930e-01  1.251552e-02  0 
 1.917325e-01  1.255362e-02  0 
 1.955783e-01  1.260524e-02  0 
 1.994275e-01  1.265203e-02  0 
 1.620013e-01  -4.059791e-03  0 
 1.867265e-01  -3.089682e-03  0 
 1.734502e-01  -1.333814e-04  0 
 1.382786e-01  2.260040e-04  0 
 1.514454e-01  6.512638e-04  0 
 1.936405e-01  3.531944e-03  0 
 1.658063e-01  3.642065e-03  0 
 1.809163e-01  5.246948e-03  0 
 1.792747e-01  -6.235626e-03  0 
 1.587207e-01  5.579780e-03  0 
 1.936314e-01  -5.904240e-03  0 
 1.450630e-01  5.395688e-03  0 
 1.325467e-01  -5.091387e-03  0 
 1.334887e-01  5.266583e-03  0 
 1.876285e-01  6.106028e-03  0 
 1.725403e-01  -6.844827e-03  0 
 1.751432e-01  6.442785e-03  0 
 1.676578e-01  -2.665878e-03  0 
 1.853834e-01  -8.621948e-03  0 
 1.514821e-01  6.362149e-03  0 
 1.565131e-01  -1.885533e-03  0 
 1.392040e-01  6.652029e-03  0 
 1.968949e-01  -7.004476e-04  0 
 1.977119e-01  7.368837e-03  0 
 1.316948e-01  5.889361e-04  0 
 1.622579e-01  7.304941e-03  0 
 1.817591e-01  -1.175908e-03  0 
 1.694018e-01  7.471226e-03  0 
 1.913710e-01  -9.213312e-04  0 
 1.616715e-01  7.092624e-04  0 
 1.783724e-01  7.636086e-03  0 
 1.917375e-01  7.963399e-03  0 
 1.893443e-01  -7.664348e-03  0 
 1.861261e-01  2.108005e-03  0 
 1.835416e-01  7.889860e-03  0 
 1.709188e-01  2.340832e-03  0 
 1.782008e-01  8.468543e-04  0 
 1.485721e-01  7.992777e-03  0 
 1.976702e-01  2.976203e-03  0 
 1.551053e-01  8.415569e-03  0 
 1.651300e-01  -6.241581e-03  0 
 1.426637e-01  1.314285e-03  0 
 1.476070e-01  1.440780e-03  0 
 1.972022e-01  -7.404220e-03  0 
 1.756747e-01  -3.628946e-03  0 
 1.309686e-01  8.053449e-03  0 
 1.899303e-01  2.395270e-03  0 
 1.831732e-01  -4.514617e-03  0 
 1.543050e-01  3.668389e-03  0 
 1.424758e-01  8.225030e-03  0 
 1.371479e-01  -3.918348e-03  0 
 1.362749e-01  8.561830e-03  0 
 1.352188e-01  1.606513e-03  0 
 1.297849e-01  -1.481996e-03  0 
 1.493724e-01  -2.546216e-03  0 
 1.658943e-01  8.631980e-03  0 
 1.689968e-01  -6.587447e-03  0 
 1.648321e-01  2.239960e-04  0 
 1.529050e-01  -2.385478e-03  0 
 1.303266e-01  4.278254e-03  0 
 1.485967e-01  4.533754e-03  0 
 1.774373e-01  4.624231e-03  0 
 1.714058e-01  -3.243375e-03  0 
 1.977346e-01  -3.703489e-03  0 
 1.400268e-01  3.223486e-03  0 
 1.901025e-01  -3.803798e-03  0 
 1.595638e-01  9.335538e-03  0 
 1.888858e-01  9.517477e-03  0 
 1.724012e-01  8.957654e-03  0 
 1.868704e-01  -5.809217e-03  0 
 1.949998e-01  9.334706e-03  0 
 1.370461e-01  4.286334e-03  0 
 1.843358e-01  4.666721e-03  0 
 1.341003e-01  -1.343971e-03  0 
 1.819171e-01  -8.060672e-03  0 
 1.744581e-01  3.250027e-03  0 
 1.759059e-01  9.149451e-03  0 
 1.625113e-01  3.877976e-03  0 
 1.794232e-01  -2.768800e-03  0 
 1.702200e-01  -4.565522e-04  0 
 1.645772e-01  -3.016820e-03  0 
 1.598177e-01  -1.559603e-03  0 
 1.583092e-01  1.481047e-03  0 
 1.516031e-01  9.620319e-03  0 
 2.000373e-01  9.604512e-03  0 
 1.995061e-01  -4.462595e-04  0 
 1.398731e-01  9.625913e-03  0 
 1.860524e-01  9.899830e-03  0 
 1.939791e-01  -2.406173e-03  0 
 1.941152e-01  6.361911e-04  0 
 1.545338e-01  3.440395e-04  0 
 1.884530e-01  -5.408814e-04  0 
 1.947935e-01  6.224757e-03  0 
 1.808973e-01  9.354759e-03  0 
 1.912617e-01  5.069466e-03  0 
 1.678752e-01  1.339963e-03  0 
 1.716841e-01  5.471990e-03  0 
 1.629822e-01  1.012359e-02  0 
 1.999081e-01  5.609922e-03  0 
 1.512845e-01  3.573350e-03  0 
 1.418210e-01  5.154185e-03  0 
 1.826764e-01  1.795456e-03  0 
 1.331949e-01  9.800082e-03  0 
 1.288957e-01  6.666622e-03  0 
 1.292004e-01  1.733100e-03  0 
 1.847433e-01  -8.978768e-04  0 
 1.289724e-01  1.001144e-02  0 
 1.680433e-01  4.997703e-03  0 
 1.648469e-01  5.813654e-03  0 
 1.455909e-01  9.731711e-03  0 
 1.975516e-01  1.030959e-02  0 
 1.626640e-01  -1.482378e-03  0 
 1.783519e-01  1.019700e-02  0 
 1.813866e-01  3.686736e-02  0 
 1.648216e-01  2.970658e-02  0 
 1.908010e-01  2.616800e-02  0 
 1.392914e-01  2.596651e-02  0 
 1.928165e-01  4.551355e-02  0 
 1.527602e-01  2.446768e-02  0 
 1.762375e-01  2.467439e-02  0 
 1.804995e-01  4.860228e-02  0 
 1.959454e-01  3.585262e-02  0 
 1.617116e-01  2.105681e-02  0 
 1.723716e-01  3.485417e-02  0 
 1.836935e-01  1.994678e-02  0 
 1.459718e-01  1.937623e-02  0 
 1.968402e-01  1.997782e-02  0 
 1.331908e-01  1.963588e-02  0 
 1.695340e-01  2.016444e-02  0 
 1.837105e-01  2.852886e-02  0 
 1.465647e-01  2.784277e-02  0 
 1.718915e-01  5.060263e-02  0 
 1.574711e-01  3.091810e-02  0 
 1.888568e-01  3.924823e-02  0 
 1.874815e-01  5.124845e-02  0 
 1.978720e-01  2.864956e-02  0 
 1.322790e-01  2.840318e-02  0 
 1.997290e-01  4.278917e-02  0 
 1.759828e-01  4.181869e-02  0 
 1.649296e-01  3.582564e-02  0 
 1.897922e-01  1.880541e-02  0 
 1.401937e-01  1.853669e-02  0 
 1.560945e-01  1.840670e-02  0 
 1.850825e-01  4.451237e-02  0 
 1.772205e-01  1.824089e-02  0 
 1.891075e-01  3.244022e-02  0 
 1.410131e-01  3.205374e-02  0 
 1.707859e-01  2.738805e-02  0 
 1.776886e-01  3.074364e-02  0 
 1.516973e-01  3.083750e-02  0 
 1.510511e-01  1.768252e-02  0 
 1.587361e-01  2.559577e-02  0 
 1.655604e-01  2.395299e-02  0 
 2.006423e-01  3.493102e-02  0 
 1.657422e-01  1.744180e-02  0 
 1.937511e-01  4.077516e-02  0 
 1.996527e-01  2.442922e-02  0 
 1.303947e-01  2.410203e-02  0 
 1.745291e-01  4.603646e-02  0 
 1.731025e-01  1.712916e-02  0 
 1.993635e-01  1.806317e-02  0 
 1.306591e-01  1.770095e-02  0 
 1.938591e-01  3.169275e-02  0 
 1.363858e-01  3.142001e-02  0 
 1.615808e-01  3.295820e-02  0 
 1.494809e-01  2.406135e-02  0 
 1.802222e-01  2.464881e-02  0 
 1.866132e-01  2.556881e-02  0 
 1.435458e-01  2.529083e-02  0 
 1.600934e-01  1.701895e-02  0 
 1.863440e-01  1.673116e-02  0 
 1.434529e-01  1.632878e-02  0 
 1.758651e-01  3.716957e-02  0 
 1.948702e-01  2.418515e-02  0 
 1.352184e-01  2.389867e-02  0 
 1.718660e-01  3.934198e-02  0 
 1.820954e-01  4.174691e-02  0 
 1.846216e-01  3.350768e-02  0 
 1.446812e-01  3.245891e-02  0 
 1.932550e-01  1.688697e-02  0 
 1.367378e-01  1.657469e-02  0 
 1.682214e-01  3.283851e-02  0 
 2.028203e-01  3.893114e-02  0 
 1.969867e-01  4.868107e-02  0 
 1.813645e-01  1.650278e-02  0 
 1.720492e-01  2.365279e-02  0 
 1.891948e-01  4.333996e-02  0 
 1.917945e-01  2.249330e-02  0 
 1.382542e-01  2.220792e-02  0 
 1.915612e-01  3.599878e-02  0 
 1.693807e-01  1.601961e-02  0 
 1.282168e-01  3.121434e-02  0 
 2.019113e-01  3.134042e-02  0 
 1.851802e-01  3.811856e-02  0 
 1.603886e-01  2.877972e-02  0 
 1.745778e-01  2.083073e-02  0 
 1.543991e-01  2.828298e-02  0 
 1.516558e-01  2.107905e-02  0 
 1.579251e-01  2.179168e-02  0 
 1.885140e-01  4.694780e-02  0 
 2.008984e-01  2.097148e-02  0 
 1.291200e-01  2.060721e-02  0 
 1.875249e-01  2.189961e-02  0 
 1.424347e-01  2.158330e-02  0 
 1.747292e-01  2.797989e-02  0 
 1.626536e-01  2.566072e-02  0 
 2.033113e-01  4.436766e-02  0 
 1.880292e-01  2.864939e-02  0 
 1.425798e-01  2.870058e-02  0 
 1.506385e-01  2.765483e-02  0 
 1.699883e-01  4.636709e-02  0 
 1.480041e-01  1.606307e-02  0 
 1.983407e-01  3.916234e-02  0 
 1.976886e-01  3.268021e-02  0 
 1.325193e-01  3.250113e-02  0 
 1.809694e-01  3.229568e-02  0 
 1.540076e-01  1.573021e-02  0 
 1.963519e-01  4.410955e-02  0 
 1.786380e-01  4.472834e-02  0 
 1.726402e-01  4.326981e-02  0 
 1.795635e-01  2.803852e-02  0 
 1.898045e-01  1.548776e-02  0 
 1.401193e-01  1.517979e-02  0 
 1.804336e-01  2.098897e-02  0 
 1.659813e-01  2.079026e-02  0 
 1.845332e-01  4.814596e-02  0 
 1.780892e-01  1.492847e-02  0 
 1.669655e-01  2.687134e-02  0 
 1.878667e-01  3.585422e-02  0 
 1.632461e-01  1.517477e-02  0 
 1.486431e-01  3.142984e-02  0 
 1.572589e-01  1.551411e-02  0 
 1.280875e-01  2.720223e-02  0 
 2.019338e-01  2.748468e-02  0 
 1.754308e-01  3.364470e-02  0 
 1.940051e-01  2.795101e-02  0 
 1.361386e-01  2.766898e-02  0 
 1.725781e-01  3.103563e-02  0 
 1.546253e-01  2.145523e-02  0 
 1.392247e-01  2.926278e-02  0 
 1.648433e-01  3.282090e-02  0 
 1.963476e-01  1.567395e-02  0 
 1.336591e-01  1.532899e-02  0 
 1.931685e-01  1.996054e-02  0 
 1.368564e-01  1.965813e-02  0 
 1.821606e-01  4.584309e-02  0 
 1.684731e-01  2.378846e-02  0 
 1.667253e-01  1.472291e-02  0 
 1.787788e-01  3.951672e-02  0 
 1.911639e-01  2.937042e-02  0 
 1.754613e-01  1.500734e-02  0 
 1.774991e-01  2.196243e-02  0 
 1.996710e-01  4.567082e-02  0 
 1.862624e-01  3.078519e-02  0 
 1.512261e-01  1.480389e-02  0 
 2.007011e-01  1.568831e-02  0 
 1.293338e-01  1.532500e-02  0 
 1.487959e-01  2.018457e-02  0 
 1.766893e-01  4.914765e-02  0 
 1.534872e-01  1.886666e-02  0 
 1.784429e-01  3.497529e-02  0 
 1.631240e-01  1.828883e-02  0 
 2.019736e-01  1.851382e-02  0 
 1.280498e-01  1.814571e-02  0 
 2.037588e-01  3.481473e-02  0 
 1.560547e-01  2.471046e-02  0 
 1.862706e-01  4.162702e-02  0 
 1.917120e-01  4.889938e-02  0 
 1.686687e-01  2.956111e-02  0 
 1.836698e-01  2.374131e-02  0 
 1.462196e-01  2.334115e-02  0 
 1.573165e-01  2.789943e-02  0 
VECTORS displacement_ITER2 FLOAT
 1.178226e-01  1.106165e-02  0 
 1.881233e-01  1.138693e-02  0 
 1.860331e-01  -5.584865e-03  0 
 1.866465e-01  -2.286489e-03  0 
 1.871661e-01  1.076487e-03  0 
 1.875750e-01  4.492952e-03  0 
 1.878948e-01  7.927475e-03  0 
 1.886418e-01  1.490397e-02  0 
 1.891617e-01  1.847688e-02  0 
 1.896574e-01  2.209751e-02  0 
 1.901513e-01  2.577670e-02  0 
 1.906397e-01  2.950694e-02  0 
 1.911405e-01  3.329416e-02  0 
 1.916538e-01  3.717039e-02  0 
 1.922094e-01  4.126836e-02  0 
 1.155311e-01  2.606485e-02  0 
 1.161651e-01  2.213809e-02  0 
 1.167270e-01  1.838303e-02  0 
 1.172854e-01  1.468997e-02  0 
 1.176593e-01  4.569187e-04  0 
 1.178650e-01  3.937599e-03  0 
 1.179268e-01  7.489591e-03  0 
 1.214141e-01  1.101396e-02  0 
 1.249981e-01  1.098556e-02  0 
 1.285784e-01  1.096257e-02  0 
 1.321512e-01  1.095336e-02  0 
 1.357147e-01  1.095040e-02  0 
 1.392661e-01  1.094846e-02  0 
 1.427993e-01  1.095108e-02  0 
 1.463190e-01  1.095735e-02  0 
 1.498282e-01  1.096799e-02  0 
 1.533265e-01  1.098724e-02  0 
 1.568158e-01  1.101125e-02  0 
 1.603009e-01  1.104285e-02  0 
 1.637810e-01  1.108052e-02  0 
 1.672607e-01  1.111730e-02  0 
 1.707383e-01  1.115281e-02  0 
 1.742143e-01  1.119552e-02  0 
 1.776856e-01  1.123690e-02  0 
 1.811614e-01  1.128995e-02  0 
 1.846415e-01  1.133742e-02  0 
 1.506689e-01  -4.000464e-03  0 
 1.730901e-01  -2.924605e-03  0 
 1.610911e-01  -3.410540e-04  0 
 1.286703e-01  -3.749627e-04  0 
 1.409649e-01  1.868094e-04  0 
 1.793768e-01  3.084289e-03  0 
 1.541480e-01  3.042349e-03  0 
 1.678773e-01  4.584917e-03  0 
 1.663440e-01  -5.803910e-03  0 
 1.476729e-01  4.776372e-03  0 
 1.793248e-01  -5.423476e-03  0 
 1.350394e-01  4.532571e-03  0 
 1.232450e-01  -5.462164e-03  0 
 1.241336e-01  4.385715e-03  0 
 1.739534e-01  5.391040e-03  0 
 1.602341e-01  -6.467523e-03  0 
 1.626488e-01  5.645078e-03  0 
 1.558109e-01  -2.693698e-03  0 
 1.718399e-01  -7.923615e-03  0 
 1.410023e-01  5.462978e-03  0 
 1.456411e-01  -2.104982e-03  0 
 1.295330e-01  5.697201e-03  0 
 1.822998e-01  -7.230634e-04  0 
 1.830703e-01  6.557644e-03  0 
 1.224320e-01  -4.941117e-05  0 
 1.509149e-01  6.375244e-03  0 
 1.686107e-01  -1.227205e-03  0 
 1.574328e-01  6.556920e-03  0 
 1.773052e-01  -9.426299e-04  0 
 1.503712e-01  3.311991e-04  0 
 1.655810e-01  6.742789e-03  0 
 1.776745e-01  7.083392e-03  0 
 1.754300e-01  -7.043572e-03  0 
 1.725767e-01  1.768344e-03  0 
 1.702632e-01  6.991941e-03  0 
 1.587985e-01  1.890489e-03  0 
 1.654020e-01  5.807368e-04  0 
 1.382999e-01  6.964789e-03  0 
 1.830147e-01  2.592160e-03  0 
 1.443461e-01  7.372787e-03  0 
 1.535054e-01  -5.960091e-03  0 
 1.328097e-01  6.936627e-04  0 
 1.374130e-01  8.657534e-04  0 