# vtk DataFile Version 3.1
this is an vtk file created by FEMAC
ASCII
DATASET UNSTRUCTURED_GRID
POINTS 315 FLOAT
3.000000 1.000000 0.000000
3.347296 0.030384 0.000000
3.396292 0.039655 0.000000
3.445042 0.050144 0.000000
3.493515 0.061845 0.000000
3.541681 0.074752 0.000000
3.589510 0.088854 0.000000
3.636973 0.104145 0.000000
3.684040 0.120615 0.000000
3.730682 0.138253 0.000000
3.776870 0.157048 0.000000
3.822574 0.176988 0.000000
3.867767 0.198062 0.000000
3.049846 1.001243 0.000000
3.099568 1.004969 0.000000
3.149042 1.011169 0.000000
3.198146 1.019828 0.000000
3.246757 1.030923 0.000000
3.294755 1.044427 0.000000
3.342020 1.060307 0.000000
3.388435 1.078524 0.000000
3.433884 1.099031 0.000000
3.478254 1.121778 0.000000
3.521435 1.146709 0.000000
3.563320 1.173761 0.000000
3.411736 0.465761 0.000000
3.454152 0.770379 0.000000
3.690633 0.425912 0.000000
3.246342 0.646427 0.000000
3.621785 0.931286 0.000000
3.529018 0.290701 0.000000
3.559709 0.605065 0.000000
3.277712 0.830426 0.000000
3.456122 0.932445 0.000000
3.394021 0.202715 0.000000
3.608532 0.764627 0.000000
3.399529 0.622541 0.000000
3.783576 0.555984 0.000000
3.682547 0.276627 0.000000
3.146891 0.748873 0.000000
3.549056 0.430943 0.000000
3.371191 0.332194 0.000000
3.134685 0.878474 0.000000
3.297462 0.530131 0.000000
3.333970 0.729280 0.000000
3.337590 0.921196 0.000000
3.581703 1.041374 0.000000
3.661199 0.538624 0.000000
3.505328 0.179251 0.000000
3.299984 0.416047 0.000000
3.536295 0.858041 0.000000
3.783040 0.281502 0.000000
3.646129 0.674862 0.000000
3.528121 0.702035 0.000000
3.479160 0.552310 0.000000
3.612374 0.199363 0.000000
3.372661 0.834823 0.000000
3.464004 0.370674 0.000000
3.617328 0.357605 0.000000
3.834667 0.460234 0.000000
3.238843 0.935211 0.000000
3.490237 1.021840 0.000000
3.239596 0.746291 0.000000
3.706383 1.157091 0.000000
3.714598 0.613617 0.000000
3.759826 0.377726 0.000000
3.435567 0.277083 0.000000
3.579093 0.515480 0.000000
3.217414 0.558183 0.000000
3.364781 0.120872 0.000000
3.396225 0.993412 0.000000
3.628562 1.119558 0.000000
3.335023 0.259972 0.000000
3.481938 0.632473 0.000000
3.536433 0.952440 0.000000
3.380450 0.542191 0.000000
3.318698 0.608937 0.000000
3.447531 0.850067 0.000000
3.755004 0.470621 0.000000
3.410154 0.700401 0.000000
3.444272 0.130173 0.000000
3.187222 0.816483 0.000000
3.081100 0.932343 0.000000
3.524263 0.783680 0.000000
3.735485 0.221706 0.000000
3.176151 0.676293 0.000000
3.294894 0.333168 0.000000
3.488611 0.477556 0.000000
3.602431 0.283032 0.000000
3.620697 0.452416 0.000000
3.368239 0.408105 0.000000
3.546164 0.359803 0.000000
3.687675 0.347756 0.000000
3.639681 0.602996 0.000000
3.156892 0.941970 0.000000
3.606290 0.843675 0.000000
3.341851 0.473584 0.000000
3.396343 0.898727 0.000000
3.667917 0.192310 0.000000
3.267941 0.486805 0.000000
3.286643 0.977083 0.000000
3.349234 0.666168 0.000000
3.567308 0.150868 0.000000
3.788105 0.426866 0.000000
3.383918 0.770467 0.000000
3.314540 0.794451 0.000000
3.176460 0.612451 0.000000
3.526330 1.077364 0.000000
3.547917 0.230338 0.000000
3.603236 0.710928 0.000000
3.268298 0.697022 0.000000
3.683485 0.725551 0.000000
3.312049 0.874236 0.000000
3.464361 0.222045 0.000000
3.202741 0.879132 0.000000
3.470245 0.718214 0.000000
3.733933 0.303064 0.000000
3.723732 0.522228 0.000000
3.587823 0.983764 0.000000
3.497271 0.121912 0.000000
3.430536 1.040636 0.000000
3.532460 0.556278 0.000000
3.565463 1.118916 0.000000
3.641991 1.062920 0.000000
3.826174 0.312189 0.000000
3.332799 1.007069 0.000000
3.591765 0.654605 0.000000
3.671351 0.480544 0.000000
3.456181 0.432527 0.000000
3.788605 0.225189 0.000000
3.264575 0.570259 0.000000
3.568614 0.906839 0.000000
3.504677 0.905653 0.000000
3.650610 1.171957 0.000000
3.424304 0.575239 0.000000
3.429731 0.518092 0.000000
3.481188 0.318692 0.000000
3.420664 0.336632 0.000000
3.536298 0.646799 0.000000
3.386372 0.254527 0.000000
3.495700 0.825377 0.000000
3.613940 0.557003 0.000000
3.452825 0.978400 0.000000
3.214970 0.504381 0.000000
3.705678 0.677992 0.000000
3.222615 0.692180 0.000000
3.820904 0.521448 0.000000
3.411007 0.094098 0.000000
3.648770 0.405162 0.000000
3.133842 0.826986 0.000000
3.415618 0.384908 0.000000
3.327728 0.374394 0.000000
3.641472 0.152741 0.000000
3.439037 0.660677 0.000000
3.114050 0.956393 0.000000
3.735870 0.425259 0.000000
3.648460 0.234035 0.000000
3.535378 1.002861 0.000000
3.505822 0.249092 0.000000
3.287790 0.914586 0.000000
3.502535 0.408336 0.000000
3.538259 0.481468 0.000000
3.411418 0.804390 0.000000
3.240942 0.984549 0.000000
3.591062 0.405187 0.000000
3.678543 1.118951 0.000000
3.640067 0.734804 0.000000
3.644950 0.317171 0.000000
3.484684 1.073477 0.000000
3.570838 0.812471 0.000000
3.576951 0.321515 0.000000
3.232732 0.799030 0.000000
3.131744 0.702504 0.000000
3.693022 0.559539 0.000000
3.191785 0.770663 0.000000
3.634204 0.496372 0.000000
3.512037 0.598260 0.000000
3.299819 0.744807 0.000000
3.271399 0.378693 0.000000
3.360946 0.586104 0.000000
3.410048 0.943947 0.000000
3.400395 0.149594 0.000000
3.304729 0.650557 0.000000
3.248972 0.884926 0.000000
3.562939 0.745409 0.000000
3.771565 0.332022 0.000000
3.332050 0.309902 0.000000
3.359226 0.072105 0.000000
3.670705 0.635674 0.000000
3.501374 0.978916 0.000000
3.107251 0.776461 0.000000
3.507654 0.515985 0.000000
3.464039 0.169967 0.000000
3.253418 0.529591 0.000000
3.492562 0.760376 0.000000
3.296088 0.284012 0.000000
3.800997 0.374574 0.000000
3.184797 0.722801 0.000000
3.337734 0.548889 0.000000
3.602352 1.157412 0.000000
3.100034 0.856039 0.000000
3.378003 1.035990 0.000000
3.380008 0.497392 0.000000
3.713192 0.189892 0.000000
3.492914 0.673946 0.000000
3.043678 0.957378 0.000000
3.703327 0.468743 0.000000
3.229910 0.608486 0.000000
3.466844 0.594792 0.000000
3.396399 0.299168 0.000000
3.700397 0.384639 0.000000
3.580652 0.470274 0.000000
3.304049 0.456693 0.000000
3.742218 0.261758 0.000000
3.696509 0.231373 0.000000
3.459013 0.091258 0.000000
3.362536 0.963458 0.000000
3.357778 0.223043 0.000000
3.484539 0.866598 0.000000
3.360756 0.878387 0.000000
3.597873 1.084805 0.000000
3.795416 0.484291 0.000000
3.404533 0.860041 0.000000
3.417306 0.746541 0.000000
3.377705 0.733696 0.000000
3.443399 0.893926 0.000000
3.220922 0.843518 0.000000
3.659692 0.770844 0.000000
3.510279 0.363388 0.000000
3.391329 0.663893 0.000000
3.833468 0.221775 0.000000
3.153398 0.787893 0.000000
3.600762 0.128965 0.000000
3.617181 1.016107 0.000000
3.123128 0.918105 0.000000
3.557682 0.191500 0.000000
3.578664 0.943582 0.000000
3.405634 0.426662 0.000000
3.362595 0.169965 0.000000
3.335798 0.430506 0.000000
3.272880 0.783001 0.000000
3.210296 0.647168 0.000000
3.191053 0.974327 0.000000
3.554018 0.119239 0.000000
3.596037 0.239945 0.000000
3.767507 0.517910 0.000000
3.329978 0.833960 0.000000
3.170609 0.854668 0.000000
3.319515 0.693973 0.000000
3.342847 0.512890 0.000000
3.762237 0.194452 0.000000
3.457193 0.809924 0.000000
3.563333 0.270303 0.000000
3.142194 0.656600 0.000000
3.448840 0.482022 0.000000
3.200434 0.918856 0.000000
3.077648 0.970465 0.000000
3.360239 0.628051 0.000000
3.374581 0.450260 0.000000
3.571933 0.560982 0.000000
3.566305 0.684683 0.000000
3.357002 0.798244 0.000000
3.524106 0.741353 0.000000
3.740847 0.562052 0.000000
3.531774 0.819892 0.000000
3.439521 0.619476 0.000000
3.278536 0.609633 0.000000
3.511499 0.445857 0.000000
3.420057 0.232527 0.000000
3.655951 0.366250 0.000000
3.630314 0.636280 0.000000
3.576232 0.865842 0.000000
3.479768 0.277449 0.000000
3.373972 0.925459 0.000000
3.725421 0.343079 0.000000
3.675317 0.597780 0.000000
3.638176 0.270721 0.000000
3.657810 0.444825 0.000000
3.318067 0.961187 0.000000
3.533823 0.151849 0.000000
3.380135 0.372418 0.000000
3.470799 0.509193 0.000000
3.562376 1.077028 0.000000
3.694479 0.312628 0.000000
3.363820 0.287719 0.000000
3.827408 0.410308 0.000000
3.539848 0.394027 0.000000
3.601223 0.602822 0.000000
3.110243 0.734137 0.000000
3.089678 0.891801 0.000000
3.165031 0.903190 0.000000
3.484774 0.789947 0.000000
3.491125 0.944414 0.000000
3.579977 0.366768 0.000000
3.513105 1.111276 0.000000
3.145961 0.976324 0.000000
3.529542 0.328967 0.000000
3.687461 0.158762 0.000000
3.596352 0.165490 0.000000
3.277896 1.012297 0.000000
3.425203 0.180695 0.000000
3.810780 0.253108 0.000000
3.681139 0.511008 0.000000
3.267325 0.436585 0.000000
3.229410 0.451516 0.000000
3.625327 0.808843 0.000000
3.648852 0.569521 0.000000
3.344492 0.761824 0.000000
3.306961 0.573130 0.000000
3.515368 0.215569 0.000000
3.543104 0.518797 0.000000
3.363651 0.697902 0.000000
3.311784 0.492940 0.000000
3.523969 1.044810 0.000000
3.271570 0.947870 0.000000
CELLS 555 2220 
3 182  76 257
3 101 182 257
3 59 221 103
3 71 123 165
3 78 103 221
3 38 213 116
3 32 112 183
3 38 214 213
3 59 103 285
3 78 155 103
3 89 211 164
3 52 109 126
3 40 164 211
3 85 253 106
3 55 152  98
3 55  98 156
3 27 148 210
3 148 269 210
3 177 248  44
3 80 119 192
3 48 192 119
3 41 151 186
3 52 144 111
3 79 153 115
3 60 242 255
3 110 248 177
3 54 121 176
3 52 166 109
3 109 184 260
3 74 118 157
3 43 193  99
3 260 184  53
3 33 225 132
3 132 225 218
3 52 111 166
3 85 106 241
3 60 163 242
3 74 132 131
3 50 131 132
3 86 186 151
3 124 196 185
3 53 262 115
3 32 105 246
3 65 103 155
3 115 262 194
3 252  30 158
3 43  99 312
3 74 157 189
3 108 252 158
3 112 159 183
3 28 110 145
3 62 110 177
3 32 240 105
3 149 190 231
3 66 113 272
3 26 162 223
3 104 223 162
3 65 196 103
3 127 175 277
3 62 145 110
3 32 246 112
3 54 176 208
3 277 175  89
3 36 179 134
3 75 134 179
3 45 112 219
3 20 120  21
3 4   5 119
3 51 301 124
3 68 207 106
3 51 185 116
3 26 223 115
3 79 115 223
3 35 109 166
3 18 125  19
3 115 153 204
3 45 159 112
3 78 117 206
3 61 120 142
3 70 142 120
3 31 126 138
3 116 185 274
3 7   8 152
3 23 122  24
3 80 181 147
3 69 147 181
3 57 128 150
3 35 184 109
3 46 282 313
3 28 182 110
3 250   9  10
3 203   9 250
3 159 278 314
3 66 136 137
3 57 137 136
3 113 158 272
3 18 299 125
3 63 133 165
3 71 165 133
3 8 297 152
3 54 134 135
3 75 135 134
3 46 313 157
3 46 157 118
3 38 116 283
3 11 129 250
3 45 278 159
3 156 276 244
3 48 309 113
3 292 189 142
3 65 274 185
3 50 169 271
3 61 189 157
3 33 292 142
3 78 206 155
3 53 184 262
3 39 172 197
3 20 201 120
3 84 129 213
3 51 213 129
3 87 128 267
3 100 125 299
3 21 120 168
3 61 168 120
3 88 167 170
3 58 170 167
3 89 164 148
3 48 279 235
3 56 261 162
3 94 154 234
3 10  11 250
3 48 113 192
3 70 120 201
3 66 268 113
3 104 162 261
3 26 115 194
3 127 302 175
3 175 302  47
3 53 115 204
3 70 180 142
3 33 142 180
3 48 235 309
3 60 255 183
3 98 203 214
3 114 183 255
3 105 177 307
3 48 119 279
3 94 234 290
3 30 252 170
3 88 244 276
3 57 160 128
3 303 178  49
3 92 269 167
3 45 219 273
3 57 150 137
3 141 287 259
3 86 151 178
3 49 178 151
3 73 204 153
3 0 205  13
3 71 199 122
3 94 255 242
3 128 160 267
3 85 197 172
3 305  35 227
3 47 141 175
3 67 175 141
3 41 137 280
3 4 119 215
3 50 264 169
3 80 215 119
3 55 156 244
3 117 302 206
3 44 307 177
3 31 176 121
3 46 233 123
3 84 214 203
3 78 245 117
3 137 150 280
3 23 294 122
3 107 122 294
3 99 193 143
3 52 188 144
3 37 245 146
3 74 236 118
3 29 118 236
3 30 170 296
3 2   3 147
3 51 116 213
3 92 167 283
3 46 118 233
3 84 213 214
3 33 180 225
3 101 248 182
3 97 225 180
3 62 197 145
3 95 271 169
3 19 125 201
3 70 201 125
3 87 254 128
3 25 128 254
3 51 124 185
3 31 259 287
3 27 155 206
3 64 173 263
3 6 232 243
3 75 202 135
3 25 135 202
3 5 243 119
3 68 130 207
3 90 239 151
3 46 123 220
3 49 151 239
3 35 169 184
3 83 184 169
3 58 148 164
3 54 191 121
3 31 138 176
3 73 176 138
3 146 245 221
3 113 309 158
3 98 152 297
3 14 154 295
3 107 282 122
3 117 173 302
3 47 302 173
3 89 175 211
3 62 174 197
3 62 240 171
3 93 287 141
3 43 130 193
3 68 193 130
3 41 280 151
3 76 308 179
3 179 308 198
3 67 211 175
3 14 295  15
3 62 177 240
3 31 121 259
3 100 278 125
3 71 220 123
3 50 132 218
3 100 314 278
3 16 163  17
3 81 174 171
3 3 215 147
3 58 167 269
3 57 228 160
3 21 168  22
3 53 204 138
3 73 138 204
3 52 126 270
3 28 145 241
3 128 237 150
3 25 237 128
3 160 228 286
3 71 122 220
3 70 125 216
3 51 129 301
3 109 260 126
3 102 243 232
3 99 212 312
3 111 227 166
3 44 248 311
3 27 206 277
3 127 277 206
3 31 287 126
3 50 218 140
3 100 299 163
3 62 171 174
3 80 147 215
3 35 166 227
3 60 183 159
3 66 137 209
3 92 210 269
3 33 132 292
3 65 155 210
3 99 143 304
3 61 142 189
3 66 209 139
3 107 313 282
3 102 235 279
3 30 136 272
3 88 170 252
3 71 133 199
3 66 139 268
3 34 217 238
3 64 144 188
3 39 231 190
3 164 286 293
3 126 260 138
3 98 214 156
3 11 230 129
3 73 208 176
3 22 168 294
3 2 147 187
3 69 187 147
3 85 241 145
3 107 294 168
3 30 296 136
3 43 308 130
3 17 163 299
3 84 250 129
3 54 208 134
3 74 292 132
3 100 163 314
3 36 134 265
3 53 138 260
3 68 143 193
3 39 197 174
3 50 271 131
3 29 236 131
3 74 131 236
3 41 209 137
3 77 218 225
3 40 211 161
3 38 283 167
3 47 173 306
3 108 309 235
3 40 286 164
3 34 139 217
3 72 217 139
3 67 141 259
3 90 151 280
3 15 242  16
3 56 162 222
3 5   6 243
3 77 140 218
3 57 136 228
3 85 145 197
3 30 272 158
3 87 161 191
3 97 273 219
3 130 266 207
3 25 254 135
3 114 290 247
3 54 135 281
3 42 200 149
3 77 251 140
3 173 275 306
3 66 272 136
3 80 300 181
3 1   2 187
3 76 266 308
3 70 216 180
3 72 139 284
3 60 314 163
3 83 140 291
3 86 195 186
3 93 141 306
3 47 306 141
3 34 268 139
3 83 264 140
3 50 140 264
3 107 168 313
3 61 313 168
3 77 222 162
3 113 268 300
3 79 229 153
3 36 153 229
3 42 289 200
3 27 210 155
3 110 182 248
3 65 185 196
3 130 308 266
3 56 219 246
3 112 246 219
3 114 247 226
3 81 226 247
3 80 192 300
3 67 259 310
3 38 156 214
3 42 234 289
3 59 146 221
3 117 245 263
3 44 311 224
3 91 286 228
3 81 231 174
3 32 183 226
3 114 226 183
3 67 161 211
3 7 152 232
3 73 153 265
3 32 226 171
3 81 171 226
3 91 296 170
3 37 263 245
3 19 201  20
3 41 186 284
3 75 179 198
3 42 149 247
3 81 247 149
3 81 149 231
3 65 210 274
3 82 154 256
3 42 247 290
3 69 181 238
3 82 234 154
3 90 150 237
3 27 277 148
3 89 148 277
3 127 206 302
3 28 241 207
3 106 207 241
3 91 293 286
3 101 311 248
3 15 295 242
3 39 174 231
3 32 171 240
3 41 284 209
3 72 186 195
3 34 238 181
3 58 269 148
3 40 161 267
3 121 310 259
3 87 267 161
3 3   4 215
3 14 256 154
3 77 162 251
3 55 244 235
3 108 235 244
3 36 265 153
3 97 222 225
3 77 225 222
3 76 179 257
3 90 280 150
3 6   7 232
3 55 298 152
3 16 242 163
3 76 182 266
3 95 169 305
3 35 305 169
3 94 295 154
3 11  12 230
3 26 251 162
3 13 256  14
3 61 157 313
3 38 276 156
3 34 300 268
3 40 267 160
3 108 158 309
3 97 219 222
3 56 222 219
3 60 159 314
3 113 300 192
3 58 293 170
3 91 170 293
3 40 160 286
3 64 275 173
3 38 167 276
3 88 276 167
3 67 310 161
3 28 207 266
3 75 198 249
3 117 263 173
3 85 172 253
3 136 296 228
3 75 249 202
3 83 169 264
3 105 240 177
3 8   9 297
3 58 164 293
3 42 290 234
3 25 202 258
3 96 258 202
3 180 216 273
3 134 208 265
3 39 288 172
3 52 270 188
3 93 188 270
3 84 203 250
3 43 249 198
3 74 189 292
3 36 257 179
3 104 224 223
3 79 223 224
3 36 229 257
3 101 257 229
3 28 266 182
3 43 198 308
3 73 265 208
3 22 294  23
3 17 299  18
3 64 188 275
3 96 212 239
3 49 239 212
3 97 180 273
3 13 205 256
3 83 262 184
3 92 274 210
3 90 258 239
3 78 221 245
3 82 256 205
3 34 181 300
3 83 291 194
3 87 191 281
3 114 255 290
3 83 194 262
3 9 203 297
3 96 202 249
3 56 246 261
3 105 261 246
3 96 239 258
3 93 275 188
3 39 190 288
3 72 284 186
3 108 244 252
3 105 307 261
3 26 194 291
3 54 281 191
3 90 237 258
3 103 196 285
3 161 310 191
3 116 274 283
3 92 283 274
3 49 212 303
3 99 303 212
3 121 191 310
3 125 278 216
3 45 216 278
3 88 252 244
3 43 312 249
3 139 209 284
3 25 258 237
3 104 307 224
3 44 224 307
3 45 273 216
3 94 242 295
3 122 282 220
3 46 220 282
3 98 297 203
3 126 287 270
3 87 281 254
3 129 230 301
3 96 312 212
3 102 298 235
3 55 235 298
3 93 306 275
3 135 254 281
3 152 298 232
3 102 232 298
3 102 279 243
3 119 243 279
3 26 291 251
3 79 224 311
3 91 228 296
3 82 289 234
3 79 311 229
3 101 229 311
3 140 251 291
3 94 290 255
3 96 249 312
3 99 304 303
3 93 270 287
3 104 261 307
CELL_TYPES 555
5 5 5 5 5 5 5 5 5 5 5 5 5 5 5 5 5 5 5 5 5 5 5 5 5 5 5 5 5 5 5 5 5 5 5 5 5 5 5 5 5 5 5 5 5 5 5 5 5 5 5 5 5 5 5 5 5 5 5 5 5 5 5 5 5 5 5 5 5 5 5 5 5 5 5 5 5 5 5 5 5 5 5 5 5 5 5 5 5 5 5 5 5 5 5 5 5 5 5 5 5 5 5 5 5 5 5 5 5 5 5 5 5 5 5 5 5 5 5 5 5 5 5 5 5 5 5 5 5 5 5 5 5 5 5 5 5 5 5 5 5 5 5 5 5 5 5 5 5 5 5 5 5 5 5 5 5 5 5 5 5 5 5 5 5 5 5 5 5 5 5 5 5 5 5 5 5 5 5 5 5 5 5 5 5 5 5 5 5 5 5 5 5 5 5 5 5 5 5 5 5 5 5 5 5 5 5 5 5 5 5 5 5 5 5 5 5 5 5 5 5 5 5 5 5 5 5 5 5 5 5 5 5 5 5 5 5 5 5 5 5 5 5 5 5 5 5 5 5 5 5 5 5 5 5 5 5 5 5 5 5 5 5 5 5 5 5 5 5 5 5 5 5 5 5 5 5 5 5 5 5 5 5 5 5 5 5 5 5 5 5 5 5 5 5 5 5 5 5 5 5 5 5 5 5 5 5 5 5 5 5 5 5 5 5 5 5 5 5 5 5 5 5 5 5 5 5 5 5 5 5 5 5 5 5 5 5 5 5 5 5 5 5 5 5 5 5 5 5 5 5 5 5 5 5 5 5 5 5 5 5 5 5 5 5 5 5 5 5 5 5 5 5 5 5 5 5 5 5 5 5 5 5 5 5 5 5 5 5 5 5 5 5 5 5 5 5 5 5 5 5 5 5 5 5 5 5 5 5 5 5 5 5 5 5 5 5 5 5 5 5 5 5 5 5 5 5 5 5 5 5 5 5 5 5 5 5 5 5 5 5 5 5 5 5 5 5 5 5 5 5 5 5 5 5 5 5 5 5 5 5 5 5 5 5 5 5 5 5 5 5 5 5 5 5 5 5 5 5 5 5 5 5 5 5 5 5 5 5 5 5 5 5 5 5 5 5 5 5 5 5 5 5 5 5 5 5 5 5 5 5 5 5 5 5 5 5 5 5 5 5 5 5 5 5 5 5 5 5 5 5 5 5 5 5 5 5 5 5 5 5 5 5 5 5 5 5 5 5 5 5 5 5 5 5 
POINT_DATA 315
VECTORS displacement_ITER1 FLOAT
 1.692566e-02  -2.943219e-02  0 
 -1.760462e-02  -4.268740e-02  0 
 -1.760301e-02  -4.428522e-02  0 
 -1.748538e-02  -4.600991e-02  0 
 -1.728752e-02  -4.779779e-02  0 
 -1.700472e-02  -4.960824e-02  0 
 -1.666025e-02  -5.143866e-02  0 
 -1.625319e-02  -5.327906e-02  0 
 -1.578771e-02  -5.512284e-02  0 
 -1.527276e-02  -5.697257e-02  0 
 -1.470825e-02  -5.884161e-02  0 
 -1.409848e-02  -6.071658e-02  0 
 -1.346905e-02  -6.266163e-02  0 
 1.722697e-02  -3.087164e-02  0 
 1.764600e-02  -3.253523e-02  0 
 1.808443e-02  -3.432263e-02  0 
 1.859633e-02  -3.610839e-02  0 
 1.920013e-02  -3.788524e-02  0 
 1.990998e-02  -3.963725e-02  0 
 2.071909e-02  -4.137693e-02  0 
 2.163653e-02  -4.308811e-02  0 
 2.265361e-02  -4.477779e-02  0 
 2.377445e-02  -4.643602e-02  0 
 2.500172e-02  -4.804083e-02  0 
 2.623406e-02  -4.946279e-02  0 
 -2.238817e-03  -4.437557e-02  0 
 9.501679e-03  -4.575613e-02  0 
 -4.078445e-03  -5.527467e-02  0 
 4.628150e-03  -3.795899e-02  0 
 1.616593e-02  -5.227043e-02  0 
 -8.988293e-03  -4.899840e-02  0 
 3.008937e-03  -5.001071e-02  0 
 1.164605e-02  -3.899338e-02  0 
 1.598521e-02  -4.569411e-02  0 
 -1.195987e-02  -4.399758e-02  0 
 9.310213e-03  -5.187099e-02  0 
 3.733936e-03  -4.377299e-02  0 
 9.173423e-04  -5.898815e-02  0 
 -9.817075e-03  -5.499396e-02  0 
 8.365761e-03  -3.422715e-02  0 
 -3.705831e-03  -4.969170e-02  0 
 -7.163820e-03  -4.297030e-02  0 
 1.315029e-02  -3.374176e-02  0 
 2.564366e-04  -3.998921e-02  0 
 7.825724e-03  -4.117753e-02  0 
 1.528365e-02  -4.119238e-02  0 
 2.072262e-02  -5.052939e-02  0 
 3.462858e-04  -5.405914e-02  0 
 -1.307059e-02  -4.815967e-02  0 
 -3.985588e-03  -4.021561e-02  0 
 1.307101e-02  -4.891043e-02  0 
 -9.815113e-03  -5.902255e-02  0 
 5.725250e-03  -5.340663e-02  0 
 6.818396e-03  -4.870856e-02  0 
 1.007069e-03  -4.689766e-02  0 
 -1.259416e-02  -5.226304e-02  0 
 1.196697e-02  -4.256409e-02  0 
 -5.878530e-03  -4.645063e-02  0 
 -6.603493e-03  -5.239743e-02  0 
 -2.933440e-03  -6.106457e-02  0 
 1.555454e-02  -3.754055e-02  0 
 1.971094e-02  -4.693364e-02  0 
 8.388336e-03  -3.762611e-02  0 
 2.627645e-02  -5.573918e-02  0 
 3.264663e-03  -5.616529e-02  0 
 -6.054510e-03  -5.805786e-02  0 
 -9.322145e-03  -4.545649e-02  0 
 -4.838480e-04  -5.082123e-02  0 
 1.317670e-03  -3.697470e-02  0 
 -1.477593e-02  -4.309412e-02  0 
 1.829039e-02  -4.336939e-02  0 
 2.426100e-02  -5.236596e-02  0 
 -9.735671e-03  -4.170133e-02  0 
 4.102709e-03  -4.694885e-02  0 
 1.692721e-02  -4.882485e-02  0 
 6.735269e-04  -4.311487e-02  0 
 3.221424e-03  -4.071172e-02  0 
 1.266382e-02  -4.542779e-02  0 
 -2.420886e-03  -5.783710e-02  0 
 6.742498e-03  -4.411291e-02  0 
 -1.467812e-02  -4.591499e-02  0 
 1.094670e-02  -3.566406e-02  0 
 1.501156e-02  -3.182630e-02  0 
 1.005802e-02  -4.849761e-02  0 
 -1.205603e-02  -5.712441e-02  0 
 5.706776e-03  -3.533794e-02  0 
 -7.005137e-03  -4.013320e-02  0 
 -1.861911e-03  -4.731706e-02  0 
 -9.415178e-03  -5.184282e-02  0 
 -2.964154e-03  -5.249070e-02  0 
 -4.353392e-03  -4.278019e-02  0 
 -6.410357e-03  -4.962105e-02  0 
 -7.091406e-03  -5.518177e-02  0 
 2.888265e-03  -5.317621e-02  0 
 1.556198e-02  -3.455522e-02  0 
 1.251425e-02  -5.175324e-02  0 
 -1.885582e-03  -4.171956e-02  0 
 1.452436e-02  -4.342349e-02  0 
 -1.300851e-02  -5.444540e-02  0 
 -1.338560e-03  -3.893265e-02  0 
 1.730033e-02  -3.930545e-02  0 
 5.407186e-03  -4.181438e-02  0 
 -1.428317e-02  -5.054225e-02  0 
 -4.187180e-03  -5.917952e-02  0 
 9.460211e-03  -4.304414e-02  0 
 1.031871e-02  -4.039271e-02  0 
 3.333009e-03  -3.538777e-02  0 
 2.212350e-02  -4.828028e-02  0 
 -1.128095e-02  -4.975739e-02  0 
 7.165667e-03  -5.168139e-02  0 
 6.549840e-03  -3.873294e-02  0 
 7.741806e-03  -5.489302e-02  0 
 1.339906e-02  -4.025420e-02  0 
 -1.141035e-02  -4.658907e-02  0 
 1.333751e-02  -3.622011e-02  0 
 7.451028e-03  -4.642558e-02  0 
 -8.894909e-03  -5.703974e-02  0 
 -3.594059e-04  -5.656797e-02  0 
 1.829597e-02  -5.086065e-02  0 
 -1.513153e-02  -4.788838e-02  0 
 2.029332e-02  -4.464783e-02  0 
 1.128813e-03  -4.897070e-02  0 
 2.402560e-02  -4.973125e-02  0 
 2.172477e-02  -5.296250e-02  0 
 -8.694282e-03  -6.073477e-02  0 
 1.861762e-02  -4.100914e-02  0 
 4.938705e-03  -5.125089e-02  0 
 -1.931491e-03  -5.448685e-02  0 
 -3.539015e-03  -4.610090e-02  0 
 -1.205422e-02  -5.927489e-02  0 
 1.765962e-03  -3.871781e-02  0 
 1.510599e-02  -5.013701e-02  0 
 1.497588e-02  -4.761213e-02  0 
 2.673245e-02  -5.321716e-02  0 
 1.914105e-03  -4.476386e-02  0 
 -2.713235e-04  -4.501929e-02  0 
 -7.855762e-03  -4.714842e-02  0 
 -7.082628e-03  -4.483146e-02  0 
 4.647755e-03  -4.906575e-02  0 
 -1.005074e-02  -4.363856e-02  0 
 1.171778e-02  -4.733218e-02  0 
 1.102253e-03  -5.217507e-02  0 
 1.784101e-02  -4.552721e-02  0 
 -6.663327e-04  -3.695903e-02  0 
 5.833250e-03  -5.579406e-02  0 
 6.335613e-03  -3.703763e-02  0 
 -4.806743e-04  -6.050215e-02  0 
 -1.583733e-02  -4.474444e-02  0 
 -4.822381e-03  -5.361896e-02  0 
 1.122334e-02  -3.370885e-02  0 
 -5.277065e-03  -4.459458e-02  0 
 -5.550240e-03  -4.129746e-02  0 
 -1.443386e-02  -5.342478e-02  0 
 5.202660e-03  -4.526079e-02  0 
 1.596430e-02  -3.301546e-02  0 
 -4.168372e-03  -5.708146e-02  0 
 -1.137107e-02  -5.366144e-02  0 
 1.902008e-02  -4.872550e-02  0 
 -1.049633e-02  -4.813726e-02  0 
 1.490130e-02  -3.934140e-02  0 
 -4.509715e-03  -4.790182e-02  0 
 -1.758852e-03  -4.924126e-02  0 
 1.081401e-02  -4.407065e-02  0 
 1.742996e-02  -3.763623e-02  0 
 -4.744232e-03  -5.134661e-02  0 
 2.431250e-02  -5.447746e-02  0 
 8.116321e-03  -5.314733e-02  0 
 -8.193903e-03  -5.349631e-02  0 
 2.182232e-02  -4.668427e-02  0 
 1.122687e-02  -5.033636e-02  0 
 -7.911281e-03  -5.083339e-02  0 
 1.037208e-02  -3.734299e-02  0 
 6.637383e-03  -3.370233e-02  0 
 1.138937e-03  -5.532143e-02  0 
 9.239345e-03  -3.584997e-02  0 
 -1.276933e-03  -5.300491e-02  0 
 2.764965e-03  -4.814615e-02  0 
 8.394281e-03  -3.987548e-02  0 
 -5.323269e-03  -3.920703e-02  0 
 2.349372e-03  -4.233188e-02  0 
 1.635366e-02  -4.391465e-02  0 
 -1.387504e-02  -4.430800e-02  0 
 4.801696e-03  -4.014318e-02  0 
 1.366982e-02  -3.791199e-02  0 
 8.536298e-03  -5.005968e-02  0 
 -7.841446e-03  -5.854541e-02  0 
 -7.912712e-03  -4.153471e-02  0 
 -1.639294e-02  -4.299803e-02  0 
 4.162322e-03  -5.440111e-02  0 
 1.796395e-02  -4.741334e-02  0 
 9.318504e-03  -3.279179e-02  0 
 -4.075370e-04  -4.802904e-02  0 
 -1.330446e-02  -4.661744e-02  0 
 2.499256e-04  -3.834684e-02  0 
 9.121361e-03  -4.726626e-02  0 
 -8.791290e-03  -4.022609e-02  0 
 -6.253393e-03  -5.971539e-02  0 
 7.445271e-03  -3.562296e-02  0 
 9.463100e-04  -4.148803e-02  0 
 2.594702e-02  -5.125357e-02  0 
 1.223222e-02  -3.247966e-02  0 
 1.991406e-02  -4.269078e-02  0 
 -1.020685e-03  -4.313993e-02  0 
 -1.322612e-02  -5.624594e-02  0 
 5.717496e-03  -4.734703e-02  0 
 1.585185e-02  -3.059708e-02  0 
 -2.430184e-03  -5.576574e-02  0 
 3.197561e-03  -3.738429e-02  0 
 2.648997e-03  -4.639114e-02  0 
 -8.426743e-03  -4.395623e-02  0 
 -5.689394e-03  -5.567639e-02  0 
 -2.231883e-03  -5.090667e-02  0 
 -2.483572e-03  -4.031792e-02  0 
 -1.050986e-02  -5.737812e-02  0 
 -1.158593e-02  -5.556191e-02  0 
 -1.610136e-02  -4.648654e-02  0 
 1.700618e-02  -4.211355e-02  0 
 -1.113590e-02  -4.262210e-02  0 
 1.336904e-02  -4.685757e-02  0 
 1.365648e-02  -4.208302e-02  0 
 2.261650e-02  -5.111361e-02  0 
 -1.930755e-03  -5.946713e-02  0 
 1.300524e-02  -4.376249e-02  0 
 8.545269e-03  -4.434868e-02  0 
 8.023711e-03  -4.283818e-02  0 
 1.441354e-02  -4.523096e-02  0 
 1.203435e-02  -3.689139e-02  0 
 9.565664e-03  -5.392913e-02  0 
 -6.220948e-03  -4.823209e-02  0 
 5.326306e-03  -4.342199e-02  0 
 -1.232005e-02  -6.115241e-02  0 
 9.815921e-03  -3.444143e-02  0 
 -1.520177e-02  -5.184907e-02  0 
 1.970432e-02  -5.201022e-02  0 
 1.459078e-02  -3.333125e-02  0 
 -1.274966e-02  -5.014802e-02  0 
 1.662482e-02  -5.051998e-02  0 
 -3.702302e-03  -4.417908e-02  0 
 -1.305144e-02  -4.291397e-02  0 
 -3.486844e-03  -4.153800e-02  0 
 9.823943e-03  -3.884109e-02  0 
 4.642858e-03  -3.661758e-02  0 
 1.687484e-02  -3.581128e-02  0 
 -1.541295e-02  -5.004949e-02  0 
 -1.102899e-02  -5.160907e-02  0 
 -5.748222e-04  -5.833478e-02  0 
 1.186949e-02  -4.094815e-02  0 
 1.234427e-02  -3.504982e-02  0 
 6.462594e-03  -4.066203e-02  0 
 -4.121619e-04  -4.171639e-02  0 
 -1.319289e-02  -5.821494e-02  0 
 1.107123e-02  -4.584147e-02  0 
 -9.819384e-03  -5.033007e-02  0 
 4.949952e-03  -3.410837e-02  0 
 -1.656008e-03  -4.578274e-02  0 
 1.482686e-02  -3.613435e-02  0 
 1.635510e-02  -3.173229e-02  0 
 3.949090e-03  -4.226710e-02  0 
 -2.787006e-03  -4.297930e-02  0 
 1.286144e-03  -5.051595e-02  0 
 6.130542e-03  -5.022761e-02  0 
 1.051721e-02  -4.199525e-02  0 
 8.372250e-03  -4.852415e-02  0 
 1.191187e-03  -5.724523e-02  0 
 1.151812e-02  -4.876687e-02  0 
 3.609440e-03  -4.531485e-02  0 
 3.246618e-03  -3.919947e-02  0 
 -3.093312e-03  -4.822402e-02  0 
 -1.092973e-02  -4.492505e-02  0 
 -6.330224e-03  -5.391816e-02  0 
 4.204039e-03  -5.279032e-02  0 
 1.341191e-02  -5.052683e-02  0 
 -9.391163e-03  -4.712797e-02  0 
 1.553605e-02  -4.255978e-02  0 
 -7.335111e-03  -5.668956e-02  0 
 2.662159e-03  -5.459925e-02  0 
 -9.952941e-03  -5.324604e-02  0 
 -3.302367e-03  -5.396231e-02  0 
 1.678624e-02  -4.046095e-02  0 
 -1.415009e-02  -4.925626e-02  0 
 -5.692554e-03  -4.326511e-02  0 
 -6.388595e-04  -4.660739e-02  0 
 2.220588e-02  -4.969671e-02  0 
 -8.454526e-03  -5.546197e-02  0 
 -8.781836e-03  -4.274633e-02  0 
 -4.910698e-03  -6.078089e-02  0 
 -5.101654e-03  -4.935541e-02  0 
 2.901946e-03  -5.165083e-02  0 
 7.771792e-03  -3.291846e-02  0 
 1.353411e-02  -3.211551e-02  0 
 1.414606e-02  -3.484478e-02  0 
 1.029406e-02  -4.693546e-02  0 
 1.653178e-02  -4.704670e-02  0 
 -6.195869e-03  -5.093222e-02  0 
 2.349393e-02  -4.774617e-02  0 
 1.679197e-02  -3.417675e-02  0 
 -7.549373e-03  -4.899691e-02  0 
 -1.434555e-02  -5.523679e-02  0 
 -1.382205e-02  -5.165717e-02  0 
 1.861678e-02  -3.900154e-02  0 
 -1.282782e-02  -4.517270e-02  0 
 -1.099103e-02  -6.017799e-02  0 
 -7.540069e-04  -5.486552e-02  0 
 -3.194845e-03  -3.897104e-02  0 
 -2.615276e-03  -3.753774e-02  0 
 1.109228e-02  -5.252573e-02  0 
 1.567461e-03  -5.355537e-02  0 
 9.091098e-03  -4.154865e-02  0 
 1.868353e-03  -4.030369e-02  0 
 -1.175746e-02  -4.852044e-02  0 
 -3.262166e-04  -4.940949e-02  0 
 6.631711e-03  -4.233355e-02  0 
 -1.139801e-03  -4.056777e-02  0 
 2.075298e-02  -4.822223e-02  0 
 1.613455e-02  -3.874478e-02  0 
VECTORS displacement_ITER2 FLOAT
 1.585170e-02  -2.758078e-02  0 
 -1.600945e-02  -3.936523e-02  0 
 -1.593743e-02  -4.097987e-02  0 
 -1.577690e-02  -4.264897e-02  0 
 -1.555618e-02  -4.434325e-02  0 
 -1.527448e-02  -4.604498e-02  0 
 -1.494422e-02  -4.775481e-02  0 
 -1.456452e-02  -4.946956e-02  0 
 -1.413646e-02  -5.118670e-02  0 
 -1.366541e-02  -5.290991e-02  0 
 -1.314769e-02  -5.465129e-02  0 
 -1.258545e-02  -5.639914e-02  0 
 -1.200106e-02  -5.819976e-02  0 
 1.613860e-02  -2.895241e-02  0 
 1.651850e-02  -3.048992e-02  0 
 1.692597e-02  -3.210784e-02  0 
 1.740670e-02  -3.371733e-02  0 
 1.797209e-02  -3.531812e-02  0 
 1.863101e-02  -3.689832e-02  0 
 1.937399e-02  -3.846691e-02  0 
 2.020731e-02  -4.000903e-02  0 
 2.112188e-02  -4.152567e-02  0 
 2.212145e-02  -4.300711e-02  0 
 2.321162e-02  -4.443298e-02  0 
 2.434561e-02  -4.575413e-02  0 
 -1.424230e-03  -4.112709e-02  0 
 9.309944e-03  -4.238006e-02  0 
 -3.220341e-03  -5.125877e-02  0 
 4.851968e-03  -3.530894e-02  0 
 1.535479e-02  -4.822583e-02  0 
 -7.739373e-03  -4.544043e-02  0 
 3.388894e-03  -4.629559e-02  0 
 1.117714e-02  -3.627927e-02  0 
 1.515637e-02  -4.233211e-02  0 
 -1.048662e-02  -4.075489e-02  0 
 9.174353e-03  -4.794722e-02  0 
 4.054414e-03  -4.057265e-02  0 
 1.427121e-03  -5.470460e-02  0 
 -8.569861e-03  -5.104417e-02  0 
 8.189022e-03  -3.198883e-02  0 
 -2.823567e-03  -4.605098e-02  0 
 -5.982729e-03  -3.982411e-02  0 
 1.246062e-02  -3.156922e-02  0 
 8.876857e-04  -3.711801e-02  0 
 7.755185e-03  -3.822854e-02  0 
 1.447708e-02  -3.828105e-02  0 
 1.942909e-02  -4.663572e-02  0 
 9.102354e-04  -5.007443e-02  0 
 -1.156429e-02  -4.467634e-02  0 
 -3.004706e-03  -3.729695e-02  0 
 1.256546e-02  -4.522657e-02  0 
 -8.598935e-03  -5.481291e-02  0 
 5.887791e-03  -4.940259e-02  0 
 6.884498e-03  -4.507463e-02  0 
 1.553006e-03  -4.343923e-02  0 
 -1.114405e-02  -4.851153e-02  0 
 1.150676e-02  -3.950031e-02  0 
 -4.813787e-03  -4.305408e-02  0 
 -5.546803e-03  -4.859471e-02  0 
 -2.199104e-03  -5.667521e-02  0 
 1.467759e-02  -3.499472e-02  0 
 1.850138e-02  -4.344914e-02  0 
 8.233761e-03  -3.503050e-02  0 
 2.422263e-02  -5.103661e-02  0 
 3.612319e-03  -5.199837e-02  0 
 -5.085343e-03  -5.388174e-02  0 
 -8.017324e-03  -4.213331e-02  0 
 1.580073e-04  -4.707306e-02  0 
 1.862961e-03  -3.439915e-02  0 