# vtk DataFile Version 3.1
this is an vtk file created by FEMAC
ASCII
DATASET UNSTRUCTURED_GRID
POINTS 314 FLOAT
0.000000 3.000000 0.000000
0.000000 4.000000 0.000000
0.800000 4.000000 0.000000
0.750000 4.000000 0.000000
0.700000 4.000000 0.000000
0.650000 4.000000 0.000000
0.600000 4.000000 0.000000
0.550000 4.000000 0.000000
0.500000 4.000000 0.000000
0.450000 4.000000 0.000000
0.400000 4.000000 0.000000
0.350000 4.000000 0.000000
0.300000 4.000000 0.000000
0.250000 4.000000 0.000000
0.200000 4.000000 0.000000
0.150000 4.000000 0.000000
0.100000 4.000000 0.000000
0.050000 4.000000 0.000000
0.000000 3.950000 0.000000
0.000000 3.900000 0.000000
0.000000 3.850000 0.000000
0.000000 3.800000 0.000000
0.000000 3.750000 0.000000
0.000000 3.700000 0.000000
0.000000 3.650000 0.000000
0.000000 3.600000 0.000000
0.000000 3.550000 0.000000
0.000000 3.500000 0.000000
0.000000 3.450000 0.000000
0.000000 3.400000 0.000000
0.000000 3.350000 0.000000
0.000000 3.300000 0.000000
0.000000 3.250000 0.000000
0.000000 3.200000 0.000000
0.000000 3.150000 0.000000
0.000000 3.100000 0.000000
0.000000 3.050000 0.000000
0.050000 3.000000 0.000000
0.100000 3.000000 0.000000
0.150000 3.000000 0.000000
0.200000 3.000000 0.000000
0.250000 3.000000 0.000000
0.525000 3.500000 0.000000
0.301562 3.298594 0.000000
0.301710 3.705886 0.000000
0.561319 3.749055 0.000000
0.217832 3.500893 0.000000
0.172380 3.176731 0.000000
0.173394 3.823200 0.000000
0.713632 3.826878 0.000000
0.405864 3.832133 0.000000
0.369014 3.441013 0.000000
0.453363 3.629765 0.000000
0.157503 3.351345 0.000000
0.158789 3.639826 0.000000
0.621953 3.617962 0.000000
0.333160 3.566028 0.000000
0.595800 3.871918 0.000000
0.289453 3.123541 0.000000
0.289453 3.876459 0.000000
0.117873 3.460804 0.000000
0.271768 3.406928 0.000000
0.107740 3.259788 0.000000
0.103804 3.740327 0.000000
0.492592 3.890281 0.000000
0.433552 3.522806 0.000000
0.622986 3.463274 0.000000
0.094400 3.093934 0.000000
0.094400 3.906066 0.000000
0.393480 3.730286 0.000000
0.098601 3.559348 0.000000
0.209747 3.268371 0.000000
0.197349 3.729784 0.000000
0.234967 3.592461 0.000000
0.521641 3.588898 0.000000
0.330256 3.211249 0.000000
0.327494 3.781484 0.000000
0.462384 3.448606 0.000000
0.676941 3.911247 0.000000
0.202219 3.092195 0.000000
0.202219 3.907805 0.000000
0.370996 3.914328 0.000000
0.470507 3.760345 0.000000
0.634805 3.793825 0.000000
0.359305 3.360353 0.000000
0.295098 3.496106 0.000000
0.365605 3.645017 0.000000
0.524318 3.666418 0.000000
0.080435 3.182023 0.000000
0.080435 3.817977 0.000000
0.078432 3.386953 0.000000
0.073619 3.658700 0.000000
0.597444 3.538192 0.000000
0.531599 3.826146 0.000000
0.248968 3.203089 0.000000
0.248968 3.796911 0.000000
0.194435 3.424832 0.000000
0.613159 3.693238 0.000000
0.232457 3.341557 0.000000
0.668477 3.558813 0.000000
0.234156 3.662675 0.000000
0.172283 3.557210 0.000000
0.554705 3.929453 0.000000
0.069290 3.321625 0.000000
0.294801 3.631800 0.000000
0.437641 3.933592 0.000000
0.356387 3.518663 0.000000
0.278079 3.066223 0.000000
0.278079 3.933777 0.000000
0.461147 3.706341 0.000000
0.631055 3.935023 0.000000
0.065539 3.509308 0.000000
0.670567 3.647380 0.000000
0.385151 3.590571 0.000000
0.549434 3.451782 0.000000
0.348028 3.154254 0.000000
0.343714 3.852424 0.000000
0.407922 3.380134 0.000000
0.149771 3.064640 0.000000
0.149771 3.935360 0.000000
0.656610 3.851619 0.000000
0.490479 3.547322 0.000000
0.489844 3.373373 0.000000
0.462930 3.844788 0.000000
0.061684 3.603556 0.000000
0.069712 3.059170 0.000000
0.069712 3.940830 0.000000
0.690866 3.771753 0.000000
0.239631 3.144642 0.000000
0.239839 3.854955 0.000000
0.260598 3.538969 0.000000
0.568574 3.641002 0.000000
0.163535 3.492898 0.000000
0.140904 3.302274 0.000000
0.152019 3.695251 0.000000
0.433259 3.476551 0.000000
0.155876 3.227690 0.000000
0.165266 3.769891 0.000000
0.057262 3.439420 0.000000
0.054986 3.225985 0.000000
0.055669 3.776074 0.000000
0.304558 3.366923 0.000000
0.147374 3.123983 0.000000
0.147519 3.876007 0.000000
0.331734 3.414614 0.000000
0.359676 3.296714 0.000000
0.262148 3.258396 0.000000
0.254813 3.750656 0.000000
0.055576 3.135649 0.000000
0.055576 3.864351 0.000000
0.145246 3.410533 0.000000
0.255900 3.462144 0.000000
0.325470 3.954812 0.000000
0.344495 3.737913 0.000000
0.385890 3.780513 0.000000
0.639167 3.736428 0.000000
0.578151 3.798651 0.000000
0.437814 3.884195 0.000000
0.511292 3.718321 0.000000
0.419008 3.678795 0.000000
0.052140 3.713643 0.000000
0.472822 3.495528 0.000000
0.438353 3.580906 0.000000
0.502217 3.950393 0.000000
0.543755 3.878422 0.000000
0.110016 3.616235 0.000000
0.790874 3.946411 0.000000
0.378319 3.210033 0.000000
0.126567 3.160608 0.000000
0.126567 3.839392 0.000000
0.548038 3.542903 0.000000
0.573795 3.589774 0.000000
0.498531 3.629777 0.000000
0.291529 3.176348 0.000000
0.299018 3.822675 0.000000
0.508340 3.417774 0.000000
0.046103 3.557854 0.000000
0.579843 3.490060 0.000000
0.234588 3.046286 0.000000
0.234588 3.953714 0.000000
0.316883 3.254952 0.000000
0.187304 3.597996 0.000000
0.567145 3.692954 0.000000
0.113596 3.330454 0.000000
0.666070 3.963925 0.000000
0.524441 3.776338 0.000000
0.106299 3.044052 0.000000
0.106299 3.955948 0.000000
0.426973 3.764393 0.000000
0.116425 3.207616 0.000000
0.121170 3.786186 0.000000
0.224865 3.385572 0.000000
0.110527 3.507751 0.000000
0.283844 3.587431 0.000000
0.364395 3.692775 0.000000
0.388540 3.954345 0.000000
0.200960 3.219937 0.000000
0.207670 3.779709 0.000000
0.677015 3.601297 0.000000
0.192779 3.675075 0.000000
0.051500 3.282102 0.000000
0.414092 3.430671 0.000000
0.328571 3.098333 0.000000
0.328571 3.901667 0.000000
0.214298 3.548121 0.000000
0.167076 3.449779 0.000000
0.635808 3.894657 0.000000
0.251219 3.099182 0.000000
0.251234 3.900789 0.000000
0.298852 3.449961 0.000000
0.249047 3.302280 0.000000
0.044276 3.359003 0.000000
0.387290 3.873104 0.000000
0.396914 3.331536 0.000000
0.376413 3.405357 0.000000
0.193452 3.311629 0.000000
0.038199 3.178731 0.000000
0.038336 3.821680 0.000000
0.628473 3.572408 0.000000
0.117989 3.662401 0.000000
0.602048 3.761919 0.000000
0.611361 3.830903 0.000000
0.408181 3.626438 0.000000
0.673978 3.811019 0.000000
0.331219 3.614137 0.000000
0.322441 3.659436 0.000000
0.302826 3.752353 0.000000
0.340457 3.477920 0.000000
0.322848 3.526762 0.000000
0.696422 3.871557 0.000000
0.032089 3.671372 0.000000
0.503596 3.462738 0.000000
0.583646 3.960686 0.000000
0.289957 3.220807 0.000000
0.631983 3.659267 0.000000
0.037249 3.480205 0.000000
0.444165 3.804982 0.000000
0.620414 3.503922 0.000000
0.241137 3.703494 0.000000
0.475581 3.667512 0.000000
0.038625 3.404203 0.000000
0.482713 3.594182 0.000000
0.187316 3.959376 0.000000
0.187316 3.040624 0.000000
0.255403 3.629897 0.000000
0.262697 3.365980 0.000000
0.570714 3.840236 0.000000
0.464776 3.963442 0.000000
0.193947 3.138952 0.000000
0.193947 3.861048 0.000000
0.184913 3.385135 0.000000
0.113374 3.374934 0.000000
0.098132 3.423848 0.000000
0.656715 3.688843 0.000000
0.831011 3.961384 0.000000
0.144278 3.585036 0.000000
0.214065 3.821403 0.000000
0.388558 3.543666 0.000000
0.205405 3.459509 0.000000
0.257357 3.499528 0.000000
0.274941 3.665531 0.000000
0.098523 3.701767 0.000000
0.505668 3.854120 0.000000
0.039626 3.094370 0.000000
0.039626 3.905630 0.000000
0.589935 3.911173 0.000000
0.209178 3.635451 0.000000
0.094557 3.140411 0.000000
0.094565 3.859588 0.000000
0.489885 3.811120 0.000000
0.030467 3.522789 0.000000
0.425000 3.970299 0.000000
0.715979 3.956410 0.000000
0.596568 3.726719 0.000000
0.232030 3.427165 0.000000
0.286130 3.783268 0.000000
0.390760 3.487327 0.000000
0.327093 3.327816 0.000000
0.211177 3.176670 0.000000
0.358043 3.810670 0.000000
0.538449 3.963799 0.000000
0.033824 3.636094 0.000000
0.406232 3.910619 0.000000
0.143857 3.538047 0.000000
0.230456 3.237449 0.000000
0.182361 3.527434 0.000000
0.033013 3.322546 0.000000
0.593930 3.436628 0.000000
0.039056 3.038358 0.000000
0.039056 3.961642 0.000000
0.096606 3.299249 0.000000
0.567057 3.409477 0.000000
0.715929 3.908877 0.000000
0.474406 3.925483 0.000000
0.197180 3.353408 0.000000
0.084241 3.353078 0.000000
0.279117 3.332661 0.000000
0.079814 3.470286 0.000000
0.454786 3.401686 0.000000
0.075000 3.026607 0.000000
0.075000 3.973393 0.000000
0.625000 3.973610 0.000000
0.537372 3.623174 0.000000
0.296610 3.550170 0.000000
0.434598 3.730737 0.000000
0.642363 3.533688 0.000000
0.445080 3.356852 0.000000
0.276340 3.971289 0.000000
0.758767 3.965420 0.000000
0.357127 3.244980 0.000000
0.521796 3.915864 0.000000
0.600563 3.660885 0.000000
0.170972 3.266267 0.000000
0.142179 3.736636 0.000000
CELLS 555 2220 
3 257  65 162
3 109 239 158
3 158 239  87
3 113 257 162
3 43 146 180
3 47 136 189
3 48 190 137
3 58 107 202
3 59 203 108
3 146 233 180
3 47 189 168
3 48 169 190
3 132 205 258
3 56 106 257
3 46 132 258
3 75 115 167
3 54 255 181
3 62 200 139
3 91 124 165
3 77 161 135
3 79 142 118
3 80 119 143
3 51 227 144
3 62 290 200
3 267 142 168
3 268 169 143
3 263  34  35
3 19  20 264
3 65 257 276
3 144 227 209
3 25 176 124
3 56 228 106
3 15 187 119
3 39 118 186
3 67 118 142
3 68 143 119
3 116 212 203
3 109 159 239
3 58 173 128
3 94 128 173
3 95 174 129
3 59 129 174
3 54 165 255
3 58 115 173
3 75 173 115
3 59 174 116
3 116 174 279
3 76 279 174
3 67 142 267
3 68 268 143
3 81 203 212
3 56 257 113
3 105 195 282
3 148  34 263
3 264  20 149
3 22 160 140
3 82 109 158
3 33 216 139
3 21 140 217
3 64 157 123
3 83 155 127
3 32  33 139
3 21  22 140
3 78 184 110
3 72 147 197
3 95 197 147
3 91 165 219
3 52 239 159
3 105 271 195
3 65 276 135
3 42 177 170
3 65 161 121
3 63 140 160
3 84 144 141
3 70 176 111
3 88 189 139
3 62 139 189
3 63 190 140
3 89 140 190
3 58 207 107
3 59 108 208
3 42 231 114
3 69 154 153
3 76 153 154
3 106 276 257
3 55 198 112
3 42 170 121
3 74 121 170
3 84 213 117
3 42 114 177
3 50 154 236
3 82 304 109
3 92 170 177
3 61 141 144
3 108 203 152
3 50 123 157
3 86 224 113
3 56 113 224
3 73 181 204
3 22  23 160
3 65 135 161
3 154 188 236
3 44 194 153
3 77 231 161
3 57 221 120
3 58 202 115
3 59 116 203
3 122 175 298
3 57 120 206
3 25  26 176
3 101 204 181
3 67 263 125
3 68 126 264
3 87 131 182
3 42 121 161
3 107 207 178
3 108 179 208
3 65 121 162
3 28 240 138
3 78 110 206
3 15  16 187
3 38  39 186
3 67 186 118
3 68 119 187
3 55 112 234
3 70 111 192
3 88 139 216
3 89 217 140
3 79 178 207
3 80 208 179
3 70 165 124
3 87 182 158
3 113 162 222
3 62 312 133
3 72 313 134
3 79 118 243
3 80 242 119
3 302  74 171
3 67 148 263
3 68 264 149
3 131 302 171
3 45 158 182
3 62 136 312
3 72 137 313
3 72 134 199
3 11  12 152
3 44 225 194
3 55 131 171
3 53 133 215
3 45 156 185
3 93 185 156
3 71 210 215
3 86 113 222
3 109 304 159
3 28  29 240
3 67 125 186
3 68 187 126
3 50 116 279
3 64 293 157
3 78 292 272
3 36 288 263
3 18 264 289
3 12 307 152
3 85 303 130
3 145 180 309
3 77 298 175
3 70 124 176
3 50 212 116
3 125 263 288
3 126 289 264
3 29  30 211
3 84 117 214
3 78 272 184
3 48 137 197
3 55 218 198
3 71 146 210
3 52 162 241
3 81 282 195
3 83 120 221
3 39 243 118
3 15 119 242
3 54 219 165
3 44 147 238
3 72 199 238
3 78 206 120
3 52 222 162
3 29 211 240
3 52 241 172
3 60 132 192
3 71 312 196
3 49 229 120
3 78 120 229
3 83 223 120
3 49 120 223
3 117 213 306
3 64 123 262
3 63 160 261
3 136 196 312
3 73 130 193
3 85 228 303
3 105 157 293
3 74 241 121
3 108 152 307
3 46 285 132
3 114 231 175
3 53 215 294
3 91 281 124
3 44 238 260
3 47 168 142
3 48 143 169
3 53 183 133
3 50 236 123
3 73 204 130
3 69 159 304
3 84 214 144
3 134 313 261
3 25 124 281
3 62 133 290
3 43 180 145
3 79 207 128
3 58 128 207
3 59 208 129
3 80 129 208
3 79 128 248
3 80 249 129
3 46 130 204
3 62 189 136
3 60 205 132
3 54 199 134
3 77 135 201
3 131 311 182
3 85 130 259
3 95 129 256
3 99 198 218
3 47 196 136
3 72 197 137
3 75 180 233
3 32 139 200
3 49 223 127
3 94 278 128
3 98 215 210
3 83 127 223
3 46 259 130
3 56 224 193
3 104 193 224
3 51 144 214
3 35  36 263
3 18  19 264
3 51 201 276
3 135 276 201
3 55 311 131
3 63 261 313
3 110 184 301
3 87 302 131
3 44 226 147
3 54 134 219
3 79 248 142
3 80 143 249
3 61 144 209
3 57 265 164
3 102 164 265
3 100 238 199
3 50 279 154
3 44 153 226
3 103 200 290
3 69 153 194
3 79 243 178
3 80 179 242
3 82 158 185
3 45 185 158
3 61 209 151
3 96 150 250
3 53 250 150
3 92 171 170
3 74 170 171
3 69 188 154
3 11 152 195
3 90 252 138
3 88 168 189
3 89 190 169
3 60 150 205
3 81 195 152
3 101 181 255
3 134 261 219
3 84 145 213
3 28 138 235
3 43 210 146
3 96 205 150
3 88 216 148
3 34 148 216
3 20 217 149
3 89 149 217
3 90 138 240
3 114 175 291
3 84 141 277
3 69 194 159
3 81 152 203
3 95 147 275
3 60 192 297
3 85 151 209
3 40  41 178
3 13  14 179
3 61 245 141
3 47 142 248
3 48 249 143
3 84 277 145
3 97 253 155
3 43 145 277
3 71 284 146
3 50 157 212
3 82 188 304
3 86 159 194
3 63 313 190
3 137 190 313
3 94 233 146
3 96 258 205
3 72 238 147
3 88 148 267
3 89 268 149
3 83 220 155
3 94 146 284
3 133 183 290
3 67 267 148
3 68 149 268
3 83 156 220
3 8 163 280
3 114 287 177
3 66 177 287
3 71 196 284
3 31  32 200
3 86 222 159
3 52 159 222
3 53 150 251
3 60 252 150
3 97 155 273
3 48 197 256
3 108 307 179
3 76 226 153
3 8 247 163
3 45 220 156
3 4   5 184
3 2 308 166
3 83 221 156
3 46 151 259
3 111 297 192
3 6   7 232
3 61 151 274
3 85 259 151
3 46 258 151
3 73 266 181
3 10  11 195
3 76 154 279
3 73 244 266
3 92 218 171
3 55 171 218
3 23 230 160
3 54 181 266
3 77 175 231
3 2   3 308
3 7   8 280
3 14  15 242
3 39  40 243
3 138 252 297
3 97 182 311
3 93 156 246
3 85 209 227
3 13 179 307
3 111 176 270
3 93 246 164
3 57 164 246
3 105 282 157
3 3   4 272
3 106 228 227
3 85 227 228
3 8   9 247
3 91 160 230
3 42 161 231
3 60 297 252
3 91 261 160
3 77 201 298
3 54 266 199
3 100 260 238
3 121 241 162
3 75 233 173
3 94 173 233
3 117 298 201
3 91 230 281
3 5 301 184
3 93 262 269
3 64 262 164
3 104 224 225
3 86 225 224
3 86 194 225
3 93 164 262
3 33  34 216
3 20  21 217
3 2 166 254
3 23  24 230
3 24  25 281
3 73 193 244
3 104 244 193
3 70 255 165
3 53 251 183
3 64 164 310
3 10 195 271
3 102 310 164
3 87 239 172
3 123 269 262
3 7 280 232
3 98 191 294
3 71 215 312
3 133 312 215
3 87 172 302
3 117 201 214
3 0 288  36
3 0  37 288
3 1 289  17
3 1  18 289
3 3 272 308
3 27  28 235
3 66 237 177
3 92 177 237
3 51 214 201
3 82 269 236
3 82 236 188
3 88 267 168
3 89 169 268
3 75 167 309
3 110 265 206
3 57 206 265
3 132 285 283
3 52 172 239
3 98 210 296
3 74 172 241
3 14 242 179
3 40 178 243
3 110 232 265
3 102 265 232
3 75 309 180
3 147 226 275
3 98 245 191
3 61 191 245
3 130 303 193
3 76 174 275
3 191 250 294
3 123 236 269
3 55 234 311
3 26 270 176
3 155 220 273
3 90 251 252
3 150 252 251
3 26  27 270
3 30  31 286
3 104 225 260
3 44 260 225
3 111 270 235
3 27 235 270
3 101 283 285
3 98 296 245
3 90 240 211
3 45 182 273
3 102 280 310
3 163 310 280
3 95 275 174
3 9  10 271
3 93 269 185
3 112 253 234
3 95 256 197
3 100 266 244
3 132 283 192
3 94 196 278
3 74 302 172
3 70 192 283
3 96 250 191
3 97 273 182
3 16  17 300
3 37  38 299
3 61 274 191
3 5   6 301
3 12  13 307
3 103 286 200
3 31 200 286
3 183 251 295
3 157 282 212
3 48 256 249
3 129 249 256
3 82 185 269
3 103 290 183
3 4 184 272
3 103 183 295
3 43 277 296
3 64 310 293
3 163 293 310
3 94 284 196
3 141 296 277
3 96 191 274
3 100 199 266
3 81 212 282
3 156 221 246
3 57 246 221
3 102 232 280
3 51 276 227
3 106 227 276
3 38 186 299
3 125 299 186
3 126 187 300
3 16 300 187
3 104 260 244
3 100 244 260
3 47 278 196
3 30 286 211
3 69 304 188
3 91 219 261
3 90 211 295
3 103 295 211
3 56 193 303
3 45 273 220
3 101 285 204
3 46 204 285
3 97 234 253
3 92 305 218
3 76 275 226
3 110 301 232
3 6 232 301
3 70 283 255
3 43 296 210
3 103 211 286
3 105 247 271
3 9 271 247
3 111 235 297
3 138 297 235
3 128 278 248
3 47 248 278
3 90 295 251
3 92 237 305
3 78 229 292
3 98 294 215
3 24 281 230
3 99 218 305
3 96 274 258
3 151 258 274
3 53 294 250
3 126 300 289
3 17 289 300
3 37 299 288
3 125 288 299
3 56 303 228
3 101 255 283
3 97 311 234
3 105 293 247
3 163 247 293
3 141 245 296
3 114 291 287
3 117 306 298
3 122 298 306
CELL_TYPES 555
5 5 5 5 5 5 5 5 5 5 5 5 5 5 5 5 5 5 5 5 5 5 5 5 5 5 5 5 5 5 5 5 5 5 5 5 5 5 5 5 5 5 5 5 5 5 5 5 5 5 5 5 5 5 5 5 5 5 5 5 5 5 5 5 5 5 5 5 5 5 5 5 5 5 5 5 5 5 5 5 5 5 5 5 5 5 5 5 5 5 5 5 5 5 5 5 5 5 5 5 5 5 5 5 5 5 5 5 5 5 5 5 5 5 5 5 5 5 5 5 5 5 5 5 5 5 5 5 5 5 5 5 5 5 5 5 5 5 5 5 5 5 5 5 5 5 5 5 5 5 5 5 5 5 5 5 5 5 5 5 5 5 5 5 5 5 5 5 5 5 5 5 5 5 5 5 5 5 5 5 5 5 5 5 5 5 5 5 5 5 5 5 5 5 5 5 5 5 5 5 5 5 5 5 5 5 5 5 5 5 5 5 5 5 5 5 5 5 5 5 5 5 5 5 5 5 5 5 5 5 5 5 5 5 5 5 5 5 5 5 5 5 5 5 5 5 5 5 5 5 5 5 5 5 5 5 5 5 5 5 5 5 5 5 5 5 5 5 5 5 5 5 5 5 5 5 5 5 5 5 5 5 5 5 5 5 5 5 5 5 5 5 5 5 5 5 5 5 5 5 5 5 5 5 5 5 5 5 5 5 5 5 5 5 5 5 5 5 5 5 5 5 5 5 5 5 5 5 5 5 5 5 5 5 5 5 5 5 5 5 5 5 5 5 5 5 5 5 5 5 5 5 5 5 5 5 5 5 5 5 5 5 5 5 5 5 5 5 5 5 5 5 5 5 5 5 5 5 5 5 5 5 5 5 5 5 5 5 5 5 5 5 5 5 5 5 5 5 5 5 5 5 5 5 5 5 5 5 5 5 5 5 5 5 5 5 5 5 5 5 5 5 5 5 5 5 5 5 5 5 5 5 5 5 5 5 5 5 5 5 5 5 5 5 5 5 5 5 5 5 5 5 5 5 5 5 5 5 5 5 5 5 5 5 5 5 5 5 5 5 5 5 5 5 5 5 5 5 5 5 5 5 5 5 5 5 5 5 5 5 5 5 5 5 5 5 5 5 5 5 5 5 5 5 5 5 5 5 5 5 5 5 5 5 5 5 5 5 5 5 5 5 5 5 5 5 5 5 5 5 5 5 5 5 5 5 5 5 5 5 5 5 5 5 5 5 5 5 5 5 5 5 5 5 5 
POINT_DATA 314
VECTORS displacement_ITER1 FLOAT
 1.105055e-01  3.087663e-01  0 
 2.195982e-01  3.088651e-01  0 
 2.182833e-01  2.215024e-01  0 
 2.184209e-01  2.269514e-01  0 
 2.185965e-01  2.323205e-01  0 
 2.187487e-01  2.377108e-01  0 
 2.188787e-01  2.431228e-01  0 
 2.189885e-01  2.485503e-01  0 
 2.190834e-01  2.539891e-01  0 
 2.191676e-01  2.594378e-01  0 
 2.192417e-01  2.648941e-01  0 
 2.193064e-01  2.703556e-01  0 
 2.193658e-01  2.758238e-01  0 
 2.194198e-01  2.813006e-01  0 
 2.194678e-01  2.867842e-01  0 
 2.195118e-01  2.922779e-01  0 
 2.195503e-01  2.977868e-01  0 
 2.195858e-01  3.033132e-01  0 
 2.140626e-01  3.088494e-01  0 
 2.085567e-01  3.088169e-01  0 
 2.030648e-01  3.087817e-01  0 
 1.975949e-01  3.087428e-01  0 
 1.921369e-01  3.087086e-01  0 
 1.866897e-01  3.086777e-01  0 
 1.812503e-01  3.086498e-01  0 
 1.758178e-01  3.086272e-01  0 
 1.703913e-01  3.086104e-01  0 
 1.649681e-01  3.085986e-01  0 
 1.595471e-01  3.085929e-01  0 
 1.541272e-01  3.085932e-01  0 
 1.487061e-01  3.085995e-01  0 
 1.432825e-01  3.086127e-01  0 
 1.378542e-01  3.086314e-01  0 
 1.324180e-01  3.086557e-01  0 
 1.269713e-01  3.086876e-01  0 
 1.215030e-01  3.087194e-01  0 
 1.160196e-01  3.087507e-01  0 
 1.105179e-01  3.032356e-01  0 
 1.105546e-01  2.977294e-01  0 
 1.105971e-01  2.922396e-01  0 
 1.106478e-01  2.867601e-01  0 
 1.107075e-01  2.812603e-01  0 
 1.649619e-01  2.512742e-01  0 
 1.431536e-01  2.756672e-01  0 
 1.872922e-01  2.756273e-01  0 
 1.918293e-01  2.473151e-01  0 
 1.650608e-01  2.848056e-01  0 
 1.299025e-01  2.897844e-01  0 
 2.001096e-01  2.896930e-01  0 
 2.000639e-01  2.308276e-01  0 
 2.009520e-01  2.642394e-01  0 
 1.585748e-01  2.682928e-01  0 
 1.789965e-01  2.590716e-01  0 
 1.488546e-01  2.913998e-01  0 
 1.801370e-01  2.912704e-01  0 
 1.776760e-01  2.407497e-01  0 
 1.721158e-01  2.721975e-01  0 
 2.050442e-01  2.435637e-01  0 
 1.241663e-01  2.770047e-01  0 
 2.058717e-01  2.769691e-01  0 
 1.607173e-01  2.957275e-01  0 
 1.548795e-01  2.789155e-01  0 
 1.389213e-01  2.968481e-01  0 
 1.910759e-01  2.973162e-01  0 
 2.071725e-01  2.547832e-01  0 
 1.674304e-01  2.612407e-01  0 
 1.610013e-01  2.406166e-01  0 
 1.208546e-01  2.983350e-01  0 
 2.092087e-01  2.983932e-01  0 
 1.899048e-01  2.655955e-01  0 
 1.714025e-01  2.978424e-01  0 
 1.398617e-01  2.856950e-01  0 
 1.899159e-01  2.870561e-01  0 
 1.749894e-01  2.829316e-01  0 
 1.745649e-01  2.516399e-01  0 
 1.337191e-01  2.725537e-01  0 
 1.954995e-01  2.728047e-01  0 
 1.594015e-01  2.580978e-01  0 
 2.091440e-01  2.347815e-01  0 
 1.207135e-01  2.865179e-01  0 
 2.093552e-01  2.865332e-01  0 
 2.099306e-01  2.680518e-01  0 
 1.931159e-01  2.571914e-01  0 
 1.965883e-01  2.393461e-01  0 
 1.498375e-01  2.693630e-01  0 
 1.645409e-01  2.763618e-01  0 
 1.806706e-01  2.686465e-01  0 
 1.829327e-01  2.513432e-01  0 
 1.304655e-01  2.998515e-01  0 
 1.995544e-01  2.999075e-01  0 
 1.527132e-01  3.000355e-01  0 
 1.821923e-01  3.005984e-01  0 
 1.690827e-01  2.434017e-01  0 
 2.001805e-01  2.505386e-01  0 
 1.327887e-01  2.814163e-01  0 
 1.972155e-01  2.814020e-01  0 
 1.568187e-01  2.873628e-01  0 
 1.857817e-01  2.416968e-01  0 
 1.477974e-01  2.832108e-01  0 
 1.712939e-01  2.357082e-01  0 
 1.826120e-01  2.830216e-01  0 
 1.711685e-01  2.897866e-01  0 
 2.113262e-01  2.480278e-01  0 
 1.456302e-01  3.010410e-01  0 
 1.792510e-01  2.763866e-01  0 
 2.119503e-01  2.607771e-01  0 
 1.669840e-01  2.696643e-01  0 
 1.179337e-01  2.782481e-01  0 
 2.121431e-01  2.782180e-01  0 
 1.872773e-01  2.582165e-01  0 
 2.117880e-01  2.397436e-01  0 
 1.659759e-01  3.014471e-01  0 
 1.808313e-01  2.354893e-01  0 
 1.747685e-01  2.665170e-01  0 
 1.597498e-01  2.486092e-01  0 
 1.275356e-01  2.706159e-01  0 
 2.032105e-01  2.710306e-01  0 
 1.519820e-01  2.640491e-01  0 
 1.176756e-01  2.922611e-01  0 
 2.124054e-01  2.922995e-01  0 
 2.027804e-01  2.369821e-01  0 
 1.700779e-01  2.550333e-01  0 
 1.512495e-01  2.550905e-01  0 
 2.022721e-01  2.580136e-01  0 
 1.762020e-01  3.018879e-01  0 
 1.170386e-01  3.010553e-01  0 
 2.130400e-01  3.011244e-01  0 
 1.941556e-01  2.332799e-01  0 
 1.264356e-01  2.824383e-01  0 
 2.035535e-01  2.824041e-01  0 
 1.691869e-01  2.801298e-01  0 
 1.801734e-01  2.465373e-01  0 
 1.641953e-01  2.907397e-01  0 
 1.435334e-01  2.932172e-01  0 
 1.861634e-01  2.920198e-01  0 
 1.624252e-01  2.612756e-01  0 
 1.354386e-01  2.915870e-01  0 
 1.942919e-01  2.905789e-01  0 
 1.584000e-01  3.023456e-01  0 
 1.352469e-01  3.026269e-01  0 
 1.949780e-01  3.026128e-01  0 
 1.505477e-01  2.753375e-01  0 
 1.241529e-01  2.925220e-01  0 
 2.058952e-01  2.925413e-01  0 
 1.557135e-01  2.723668e-01  0 
 1.429591e-01  2.693373e-01  0 
 1.387919e-01  2.799718e-01  0 
 1.921747e-01  2.807604e-01  0 
 1.254073e-01  3.025906e-01  0 
 2.046355e-01  3.026616e-01  0 
 1.552692e-01  2.927370e-01  0 
 1.608611e-01  2.806465e-01  0 
 2.143971e-01  2.730325e-01  0 
 1.907558e-01  2.709469e-01  0 
 1.953603e-01  2.664216e-01  0 
 1.904059e-01  2.388760e-01  0 
 1.971644e-01  2.454838e-01  0 
 2.065781e-01  2.607538e-01  0 
 1.885448e-01  2.527546e-01  0 
 1.843137e-01  2.628131e-01  0 
 1.881718e-01  3.029718e-01  0 
 1.644786e-01  2.569593e-01  0 
 1.737148e-01  2.607124e-01  0 
 2.136843e-01  2.537407e-01  0 
 2.058195e-01  2.492148e-01  0 
 1.775770e-01  2.966045e-01  0 
 2.124547e-01  2.224908e-01  0 
 1.336204e-01  2.673103e-01  0 
 1.281387e-01  2.948003e-01  0 
 2.018914e-01  2.948405e-01  0 
 1.695954e-01  2.487694e-01  0 
 1.746492e-01  2.459722e-01  0 
 1.789852e-01  2.541518e-01  0 
 1.299056e-01  2.767766e-01  0 
 1.999997e-01  2.759201e-01  0 
 1.560668e-01  2.530809e-01  0 
 1.712420e-01  3.035786e-01  0 
 1.638887e-01  2.453067e-01  0 
 1.157492e-01  2.829825e-01  0 
 2.143615e-01  2.829852e-01  0 
 1.384418e-01  2.740010e-01  0 
 1.755930e-01  2.881458e-01  0 
 1.857750e-01  2.466872e-01  0 
 1.465885e-01  2.961991e-01  0 
 2.148163e-01  2.359659e-01  0 
 1.948045e-01  2.513200e-01  0 
 1.153954e-01  2.970334e-01  0 
 2.146915e-01  2.970883e-01  0 
 1.935840e-01  2.619383e-01  0 
 1.332526e-01  2.959055e-01  0 
 1.960767e-01  2.954221e-01  0 
 1.525653e-01  2.840391e-01  0 
 1.658064e-01  2.965328e-01  0 
 1.744400e-01  2.775864e-01  0 
 1.858487e-01  2.687750e-01  0 
 2.142743e-01  2.661392e-01  0 
 1.346035e-01  2.866582e-01  0 
 1.953532e-01  2.859282e-01  0 
 1.758718e-01  2.347915e-01  0 
 1.839648e-01  2.875524e-01  0 
 1.413417e-01  3.029927e-01  0 
 1.574575e-01  2.633710e-01  0 
 1.214447e-01  2.727375e-01  0 
 2.085912e-01  2.726892e-01  0 
 1.701811e-01  2.851918e-01  0 
 1.595222e-01  2.903520e-01  0 
 2.074341e-01  2.392285e-01  0 
 1.214996e-01  2.811745e-01  0 
 2.085566e-01  2.811577e-01  0 
 1.595415e-01  2.759550e-01  0 
 1.435436e-01  2.813999e-01  0 
 1.496830e-01  3.037670e-01  0 
 2.054242e-01  2.662687e-01  0 
 1.467152e-01  2.652602e-01  0 
 1.547134e-01  2.674887e-01  0 
 1.445508e-01  2.874733e-01  0 
 1.301049e-01  3.044822e-01  0 
 1.999624e-01  3.045411e-01  0 
 1.727664e-01  2.400423e-01  0 
 1.825931e-01  2.957415e-01  0 
 1.931831e-01  2.428958e-01  0 
 2.006057e-01  2.418813e-01  0 
 1.786478e-01  2.640002e-01  0 
 1.983986e-01  2.351092e-01  0 
 1.773298e-01  2.724061e-01  0 
 1.822442e-01  2.733625e-01  0 
 1.923427e-01  2.755048e-01  0 
 1.625711e-01  2.714080e-01  0 
 1.678621e-01  2.733275e-01  0 
 2.048673e-01  2.326928e-01  0 
 1.835727e-01  3.051496e-01  0 
 1.609322e-01  2.536037e-01  0 
 2.146547e-01  2.448879e-01  0 
 1.347291e-01  2.769428e-01  0 
 1.821198e-01  2.396623e-01  0 
 1.628211e-01  3.045320e-01  0 
 1.979724e-01  2.600603e-01  0 
 1.653866e-01  2.409013e-01  0 
 1.870474e-01  2.822579e-01  0 
 1.830712e-01  2.566471e-01  0 
 1.545828e-01  3.043797e-01  0 
 1.751430e-01  2.558771e-01  0 
 2.150193e-01  2.881736e-01  0 
 1.150793e-01  2.881492e-01  0 
 1.790498e-01  2.806960e-01  0 
 1.504443e-01  2.799076e-01  0 
 2.016588e-01  2.462879e-01  0 
 2.151619e-01  2.578212e-01  0 
 1.257992e-01  2.874270e-01  0 
 2.042410e-01  2.874403e-01  0 
 1.525173e-01  2.884038e-01  0 
 1.514107e-01  2.962199e-01  0 
 1.567122e-01  2.978832e-01  0 
 1.852892e-01  2.369868e-01  0 
 2.139727e-01  2.181162e-01  0 
 1.741885e-01  2.928516e-01  0 
 1.999009e-01  2.852297e-01  0 
 1.696899e-01  2.661490e-01  0 
 1.605761e-01  2.861640e-01  0 
 1.649124e-01  2.804859e-01  0 
 1.829154e-01  2.785577e-01  0 
 1.868766e-01  2.978840e-01  0 
 2.032367e-01  2.533587e-01  0 
 1.208933e-01  3.043591e-01  0 
 2.091689e-01  3.044395e-01  0 
 2.092902e-01  2.441995e-01  0 
 1.796579e-01  2.857544e-01  0 
 1.259310e-01  2.983118e-01  0 
 2.041093e-01  2.983657e-01  0 
 1.985968e-01  2.550779e-01  0 
 1.674388e-01  3.052786e-01  0 
 2.159662e-01  2.621608e-01  0 
 2.138706e-01  2.305903e-01  0 
 1.893955e-01  2.434919e-01  0 
 1.570714e-01  2.832555e-01  0 
 1.957136e-01  2.773318e-01  0 
 1.635909e-01  2.659137e-01  0 
 1.463161e-01  2.728817e-01  0 
 1.299060e-01  2.855444e-01  0 
 1.986559e-01  2.694638e-01  0 
 2.150788e-01  2.497999e-01  0 
 1.797371e-01  3.049448e-01  0 
 2.094880e-01  2.642027e-01  0 
 1.690909e-01  2.928929e-01  0 
 1.365113e-01  2.834351e-01  0 
 1.679390e-01  2.886832e-01  0 
 1.457294e-01  3.050027e-01  0 
 1.581170e-01  2.437664e-01  0 
 1.147436e-01  3.044393e-01  0 
 2.153438e-01  3.045213e-01  0 
 1.432033e-01  2.980596e-01  0 
 1.551715e-01  2.466801e-01  0 
 2.088189e-01  2.305873e-01  0 
 2.110192e-01  2.567672e-01  0 
 1.490795e-01  2.870644e-01  0 
 1.490411e-01  2.994039e-01  0 
 1.468373e-01  2.781155e-01  0 
 1.617454e-01  2.998848e-01  0 
 1.543191e-01  2.589258e-01  0 
 1.134631e-01  3.004771e-01  0 
 2.166300e-01  3.005444e-01  0 
 2.159627e-01  2.404081e-01  0 
 1.782606e-01  2.499278e-01  0 
 1.703998e-01  2.761930e-01  0 
 1.899324e-01  2.611088e-01  0 
 1.685879e-01  2.385313e-01  0 
 1.494536e-01  2.599824e-01  0 
 2.162484e-01  2.784115e-01  0 
 2.146307e-01  2.259825e-01  0 
 1.373978e-01  2.696283e-01  0 
 2.099062e-01  2.516054e-01  0 
 1.823048e-01  2.430655e-01  0 
 1.396286e-01  2.899332e-01  0 
 1.906701e-01  2.931057e-01  0 
VECTORS displacement_ITER2 FLOAT
 1.023601e-01  2.869157e-01  0 
 2.043025e-01  2.869318e-01  0 
 2.031155e-01  2.054226e-01  0 
 2.032288e-01  2.104413e-01  0 
 2.033745e-01  2.154577e-01  0 
 2.035013e-01  2.205057e-01  0 
 2.036099e-01  2.255676e-01  0 
 2.037051e-01  2.306372e-01  0 
 2.037912e-01  2.357133e-01  0 
 2.038704e-01  2.407966e-01  0 
 2.039425e-01  2.458868e-01  0 
 2.040070e-01  2.509821e-01  0 
 2.040669e-01  2.560842e-01  0 
 2.041218e-01  2.611951e-01  0 
 2.041708e-01  2.663131e-01  0 
 2.042156e-01  2.714412e-01  0 
 2.042545e-01  2.765846e-01  0 
 2.042902e-01  2.817455e-01  0 
 1.991326e-01  2.869162e-01  0 
 1.939924e-01  2.868838e-01  0 
 1.888664e-01  2.868491e-01  0 
 1.837622e-01  2.868114e-01  0 
 1.786695e-01  2.867790e-01  0 
 1.735869e-01  2.867508e-01  0 
 1.685113e-01  2.867267e-01  0 
 1.634413e-01  2.867094e-01  0 
 1.583757e-01  2.866986e-01  0 
 1.533118e-01  2.866944e-01  0 
 1.482477e-01  2.866976e-01  0 
 1.431821e-01  2.867071e-01  0 
 1.381130e-01  2.867229e-01  0 
 1.330394e-01  2.867453e-01  0 
 1.279596e-01  2.867714e-01  0 
 1.228715e-01  2.868013e-01  0 
 1.177731e-01  2.868362e-01  0 
 1.126547e-01  2.868691e-01  0 
 1.075223e-01  2.869003e-01  0 
 1.023727e-01  2.817370e-01  0 
 1.024099e-01  2.765840e-01  0 
 1.024517e-01  2.714494e-01  0 
 1.025004e-01  2.663308e-01  0 
 1.025512e-01  2.612030e-01  0 
 1.533024e-01  2.331381e-01  0 
 1.329427e-01  2.559084e-01  0 
 1.741413e-01  2.558904e-01  0 
 1.783335e-01  2.294691e-01  0 
 1.534017e-01  2.644543e-01  0 
 1.205199e-01  2.691397e-01  0 
 1.861064e-01  2.690265e-01  0 
 1.859833e-01  2.140760e-01  0 
 1.868753e-01  2.452710e-01  0 
 1.473532e-01  2.490156e-01  0 
 1.663856e-01  2.404273e-01  0 
 1.382578e-01  2.706297e-01  0 
 1.674721e-01  2.704965e-01  0 
 1.651183e-01  2.233337e-01  0 
 1.599825e-01  2.526754e-01  0 
 1.906723e-01  2.259783e-01  0 
 1.151525e-01  2.571734e-01  0 
 1.914764e-01  2.571511e-01  0 
 1.493432e-01  2.746678e-01  0 
 1.438976e-01  2.589460e-01  0 
 1.289611e-01  2.757402e-01  0 
 1.776791e-01  2.761430e-01  0 
 1.926724e-01  2.364517e-01  0 
 1.556074e-01  2.424387e-01  0 
 1.496137e-01  2.232069e-01  0 
 1.120476e-01  2.771489e-01  0 
 1.945999e-01  2.771502e-01  0 
 1.765689e-01  2.465280e-01  0 
 1.593208e-01  2.766381e-01  0 
 1.298493e-01  2.652989e-01  0 
 1.765948e-01  2.665625e-01  0 
 1.626673e-01  2.627053e-01  0 
 1.622435e-01  2.334874e-01  0 
 1.241127e-01  2.529906e-01  0 
 1.817958e-01  2.532607e-01  0 
 1.481268e-01  2.394971e-01  0 
 1.945040e-01  2.177693e-01  0 
 1.119112e-01  2.660959e-01  0 
 1.947326e-01  2.660780e-01  0 
 1.952572e-01  2.488315e-01  0 
 1.795532e-01  2.386881e-01  0 
 1.827575e-01  2.220337e-01  0 
 1.392001e-01  2.500095e-01  0 
 1.529172e-01  2.565610e-01  0 
 1.679585e-01  2.493673e-01  0 
 1.700419e-01  2.332194e-01  0 