# vtk DataFile Version 3.1
this is an vtk file created by FEMAC
ASCII
DATASET UNSTRUCTURED_GRID
POINTS 316 FLOAT
2.600000 4.000000 0.000000
2.550000 4.000000 0.000000
2.500000 4.000000 0.000000
2.450000 4.000000 0.000000
2.400000 4.000000 0.000000
2.350000 4.000000 0.000000
2.300000 4.000000 0.000000
2.250000 4.000000 0.000000
2.200000 4.000000 0.000000
2.150000 4.000000 0.000000
2.100000 4.000000 0.000000
2.150000 3.000000 0.000000
2.200000 3.000000 0.000000
2.250000 3.000000 0.000000
2.300000 3.000000 0.000000
2.350000 3.000000 0.000000
2.400000 3.000000 0.000000
2.450000 3.000000 0.000000
2.500000 3.000000 0.000000
2.550000 3.000000 0.000000
2.600000 3.000000 0.000000
2.650000 3.000000 0.000000
2.700000 3.000000 0.000000
2.750000 3.000000 0.000000
2.800000 3.000000 0.000000
2.472675 3.503881 0.000000
2.189013 3.671968 0.000000
2.209160 3.316903 0.000000
2.698290 3.294114 0.000000
2.440579 3.749360 0.000000
2.443373 3.245046 0.000000
2.117785 3.500000 0.000000
2.296392 3.522358 0.000000
2.116873 3.174318 0.000000
2.287846 3.823501 0.000000
2.279520 3.172257 0.000000
2.589879 3.170069 0.000000
2.630832 3.559159 0.000000
2.548080 3.369418 0.000000
2.353215 3.378916 0.000000
2.560332 3.685210 0.000000
2.336886 3.656481 0.000000
2.678190 3.431734 0.000000
2.408500 3.871288 0.000000
2.459298 3.128050 0.000000
2.710547 3.123541 0.000000
2.453360 3.619244 0.000000
2.085019 3.278033 0.000000
2.222267 3.441019 0.000000
2.720529 3.593012 0.000000
2.297338 3.290044 0.000000
2.197921 3.103368 0.000000
2.451987 3.395677 0.000000
2.195113 3.571323 0.000000
2.513718 3.892327 0.000000
2.367410 3.105438 0.000000
2.580067 3.467172 0.000000
2.207426 3.896434 0.000000
2.140066 3.401478 0.000000
2.602336 3.273349 0.000000
2.200351 3.234011 0.000000
2.198795 3.774520 0.000000
2.381355 3.473734 0.000000
2.344163 3.746178 0.000000
2.537357 3.583580 0.000000
2.764883 3.409248 0.000000
2.375143 3.567433 0.000000
2.672506 3.218516 0.000000
2.322762 3.916268 0.000000
2.529928 3.764992 0.000000
2.626581 3.084978 0.000000
2.368882 3.193322 0.000000
2.524857 3.234975 0.000000
2.283570 3.084266 0.000000
2.542301 3.083985 0.000000
2.707132 3.502148 0.000000
2.634395 3.354983 0.000000
2.265239 3.725240 0.000000
2.260934 3.633273 0.000000
2.297176 3.441441 0.000000
2.483295 3.320315 0.000000
2.375783 3.300063 0.000000
2.474850 3.824589 0.000000
2.265856 3.368821 0.000000
2.751032 3.203089 0.000000
2.486274 3.688890 0.000000
2.408767 3.680159 0.000000
2.765023 3.337011 0.000000
2.427168 3.064945 0.000000
2.402713 3.803498 0.000000
2.445295 3.929453 0.000000
2.508091 3.438001 0.000000
2.158007 3.266816 0.000000
2.186009 3.501024 0.000000
2.705199 3.368200 0.000000
2.562359 3.933592 0.000000
2.636975 3.485508 0.000000
2.721921 3.066223 0.000000
2.322960 3.587021 0.000000
2.465902 3.198588 0.000000
2.248431 3.926662 0.000000
2.368895 3.935860 0.000000
2.533295 3.160537 0.000000
2.338085 3.834621 0.000000
2.540654 3.288384 0.000000
2.438144 3.544861 0.000000
2.611201 3.408638 0.000000
2.192617 3.840232 0.000000
2.654046 3.149758 0.000000
2.181266 3.172808 0.000000
2.516452 3.625731 0.000000
2.418972 3.332630 0.000000
2.133870 3.328324 0.000000
2.187166 3.388108 0.000000
2.085313 3.224228 0.000000
2.145335 3.465035 0.000000
2.242829 3.273617 0.000000
2.524264 3.841090 0.000000
2.319518 3.224127 0.000000
2.389232 3.618109 0.000000
2.574715 3.525445 0.000000
2.413428 3.142655 0.000000
2.150073 3.556766 0.000000
2.760161 3.145045 0.000000
2.740900 3.460846 0.000000
2.163347 3.058352 0.000000
2.494322 3.060018 0.000000
2.232249 3.485264 0.000000
2.398061 3.418487 0.000000
2.440014 3.455540 0.000000
2.238479 3.059067 0.000000
2.265070 3.220534 0.000000
2.329944 3.055281 0.000000
2.182423 3.620302 0.000000
2.259797 3.554578 0.000000
2.668563 3.586157 0.000000
2.745181 3.249331 0.000000
2.261267 3.878508 0.000000
2.233829 3.147492 0.000000
2.743403 3.542476 0.000000
2.286875 3.671747 0.000000
2.674689 3.044808 0.000000
2.254217 3.779811 0.000000
2.653720 3.259910 0.000000
2.617464 3.218429 0.000000
2.142927 3.221369 0.000000
2.314696 3.342712 0.000000
2.388354 3.244433 0.000000
2.332201 3.149665 0.000000
2.350927 3.515575 0.000000
2.560089 3.877206 0.000000
2.423957 3.500583 0.000000
2.529886 3.500713 0.000000
2.494279 3.372182 0.000000
2.579935 3.052199 0.000000
2.583113 3.328017 0.000000
2.494032 3.942205 0.000000
2.453711 3.876189 0.000000
2.155309 3.878219 0.000000
2.584643 3.107756 0.000000
2.557245 3.416951 0.000000
2.487610 3.268871 0.000000
2.391466 3.729497 0.000000
2.209126 3.946411 0.000000
2.143315 3.126863 0.000000
2.318404 3.706971 0.000000
2.347513 3.430530 0.000000
2.326404 3.798563 0.000000
2.700662 3.177637 0.000000
2.481441 3.590248 0.000000
2.236834 3.826627 0.000000
2.765412 3.046286 0.000000
2.385843 3.051671 0.000000
2.482188 3.775794 0.000000
2.260497 3.323419 0.000000
2.414790 3.191152 0.000000
2.796790 3.369804 0.000000
2.528114 3.712437 0.000000
2.261355 3.416963 0.000000
2.331338 3.963149 0.000000
2.572313 3.233876 0.000000
2.499978 3.543342 0.000000
2.717160 3.412810 0.000000
2.298370 3.761781 0.000000
2.637057 3.307357 0.000000
2.611461 3.954347 0.000000
2.338079 3.261417 0.000000
2.587035 3.562018 0.000000
2.327656 3.476442 0.000000
2.448422 3.299312 0.000000
2.077530 3.963807 0.000000
2.305807 3.395740 0.000000
2.220628 3.713858 0.000000
2.276405 3.039085 0.000000
2.669120 3.098994 0.000000
2.363014 3.885828 0.000000
2.748766 3.099211 0.000000
2.699834 3.549175 0.000000
2.282299 3.126492 0.000000
2.307121 3.870033 0.000000
2.533312 3.039240 0.000000
2.320629 3.105957 0.000000
2.376856 3.343336 0.000000
2.622897 3.594029 0.000000
2.220262 3.359660 0.000000
2.438802 3.792340 0.000000
2.221421 3.529730 0.000000
2.221042 3.640158 0.000000
2.626241 3.036397 0.000000
2.545798 3.198643 0.000000
2.510379 3.116498 0.000000
2.487410 3.732350 0.000000
2.445020 3.705137 0.000000
2.365104 3.690782 0.000000
2.586807 3.375601 0.000000
2.565690 3.732612 0.000000
2.422282 3.593560 0.000000
2.427057 3.834533 0.000000
2.450147 3.664113 0.000000
2.305713 3.626015 0.000000
2.665220 3.391848 0.000000
2.675248 3.336029 0.000000
2.696816 3.247210 0.000000
2.118827 3.961350 0.000000
2.660797 3.523244 0.000000
2.674029 3.472093 0.000000
2.119133 3.257488 0.000000
2.240622 3.676041 0.000000
2.247220 3.104137 0.000000
2.527303 3.333224 0.000000
2.416218 3.960280 0.000000
2.280688 3.483143 0.000000
2.152706 3.810100 0.000000
2.349982 3.616601 0.000000
2.195125 3.280382 0.000000
2.757469 3.298829 0.000000
2.455037 3.351464 0.000000
2.232007 3.189420 0.000000
2.412340 3.101081 0.000000
2.744781 3.371809 0.000000
2.233586 3.601678 0.000000
2.534029 3.962315 0.000000
2.168934 3.961370 0.000000
2.491237 3.860966 0.000000
2.513680 3.804462 0.000000
2.640947 3.442832 0.000000
2.723539 3.333486 0.000000
2.257040 3.453966 0.000000
2.409499 3.910204 0.000000
2.411817 3.281108 0.000000
2.521301 3.667382 0.000000
2.485327 3.228848 0.000000
2.154305 3.092642 0.000000
2.409021 3.370085 0.000000
2.448237 3.162725 0.000000
2.150127 3.596105 0.000000
2.613060 3.516725 0.000000
2.322543 3.550199 0.000000
2.621392 3.126242 0.000000
2.475537 3.427846 0.000000
2.462491 3.088112 0.000000
2.456118 3.039496 0.000000
2.575000 3.970299 0.000000
2.166669 3.352222 0.000000
2.285124 3.960186 0.000000
2.112695 3.583317 0.000000
2.507209 3.196823 0.000000
2.149975 3.517329 0.000000
2.406383 3.769958 0.000000
2.383769 3.839295 0.000000
2.338380 3.305256 0.000000
2.220850 3.401651 0.000000
2.713967 3.215991 0.000000
2.226262 3.863190 0.000000
2.182230 3.424935 0.000000
2.641957 3.189330 0.000000
2.461325 3.965120 0.000000
2.323117 3.184830 0.000000
2.164538 3.306940 0.000000
2.392102 3.521712 0.000000
2.126566 3.293490 0.000000
2.149847 3.645694 0.000000
2.488078 3.159344 0.000000
2.595198 3.910588 0.000000
2.104751 3.536940 0.000000
2.375509 3.154380 0.000000
2.187174 3.463604 0.000000
2.226435 3.748302 0.000000
2.550862 3.128138 0.000000
2.519344 3.403398 0.000000
2.423826 3.031223 0.000000
2.363138 3.785359 0.000000
2.554096 3.640229 0.000000
2.419808 3.638903 0.000000
2.284334 3.907293 0.000000
2.199958 3.036798 0.000000
2.526204 3.926370 0.000000
2.097858 3.320675 0.000000
2.292091 3.250902 0.000000
2.536872 3.460474 0.000000
2.495692 3.467057 0.000000
2.113285 3.359019 0.000000
2.282738 3.590874 0.000000
2.375000 3.973610 0.000000
2.541777 3.538397 0.000000
2.703707 3.453469 0.000000
2.347590 3.221626 0.000000
2.485196 3.649672 0.000000
2.723676 3.028672 0.000000
2.182042 3.536244 0.000000
2.475184 3.905754 0.000000
2.240531 3.965740 0.000000
2.557171 3.815845 0.000000
2.380774 3.655342 0.000000
2.258109 3.515015 0.000000
2.176400 3.921468 0.000000
CELLS 555 2220 
3 277 131  35
3 118 131 277
3 32 257 134
3 134 257 302
3 130  51 295
3 295  51 125
3 60  92 145
3 110 307 169
3 307  46 169
3 285 175  71
3 45 194  97
3 31 115 267
3 93 267 115
3 35 198 148
3 148 198 201
3 56 245  96
3 107 158 232
3 59 104 180
3 72 180 104
3 33 145 114
3 202 253  39
3 56  96 256
3 253 128  39
3 60 145 109
3 33 109 145
3 57 137 100
3 59 155 104
3 64 292 110
3 37 224 135
3 62 128 129
3 52 129 128
3 60 234  92
3 135 224 197
3 121 175 285
3 27 116 174
3 39 146 202
3 146 270 202
3 84 168 123
3 45 123 168
3 104 155 229
3 51 109 164
3 61 170 107
3 45 168 108
3 108 168 275
3 67 275 168
3 60 131 116
3 34 142 183
3 25 181 105
3 56 106 245
3 95 283 185
3 14 132 193
3 51 138 109
3 54 117 150
3 14  15 132
3 66 233  98
3 68 101 179
3 216 169  46
3 105 169 216
3 34 183 167
3 27 174 204
3 95 185 262
3 70 159 154
3 74 154 159
3 98 302 257
3 77 165 183
3 25 105 151
3 38 229 155
3 36 144 180
3 56 160 106
3 66 279 105
3 80 161 104
3 72 104 161
3 57 100 163
3 57 158 107
3 56 256 120
3 44 121 238
3 153 289 259
3 245 220  42
3 36 180 209
3 45  97 196
3 81 249 111
3 64 110 169
3 52 153 259
3 63 213 162
3 58 113 274
3 106 220 245
3 67 143 144
3 59 144 143
3 58 274 115
3 30 175  99
3 66  98 257
3 58 263 113
3 97 194 141
3 76 220 106
3 25 129 300
3 93 115 286
3 77 140 165
3 74 210 126
3 28 184 143
3 30  99 251
3 63 165 213
3 45 108 194
3 36 102 288
3 129 259 300
3 44 238 260
3 62 129 151
3 25 151 129
3 56 120 152
3 61 142 170
3 118 298 131
3 93 286 127
3 48 127 286
3 50 116 298
3 19  20 154
3 34 167 103
3 97 171 196
3 19 154 200
3 61 107 232
3 68 195 101
3 36 209 102
3 66 119 233
3 103 195 199
3 58 301 263
3 60 109 237
3 33 164 109
3 73 193 132
3 103 291 269
3 80 104 229
3 83 146 191
3 39 191 146
3 60 116 234
3 105 279 151
3 55 132 172
3 21  22 141
3 116 131 298
3 68 199 195
3 34 137 170
3 126 210 260
3 28 221 184
3 51 164 252
3 111 249 189
3 15 172 132
3 34 103 199
3 35 131 237
3 66 105 216
3 13 130 295
3 39 128 166
3 76 106 214
3 11 295 125
3 55 172 238
3 78 140 227
3 105 181 169
3 36 108 275
3 57 107 273
3 54 150 296
3 68 264 294
3 36 258 108
3 35 237 138
3 117 312 150
3 22 308 141
3 50 174 116
3 63 183 165
3 75 305 124
3 68 179 264
3 18 126 261
3 114 145 226
3 28 136 235
3 103 167 291
3 63 162 291
3 162 268 291
3 78 227 207
3 32 188 149
3 62 166 128
3 81 111 202
3 53 255 122
3 12  13 295
3 65 124 182
3 83 204 174
3 112 263 301
3 106 160 214
3 82 244 117
3 54 243 117
3 82 117 243
3 109 138 237
3 75 225 305
3 95 296 150
3 97 141 308
3 11  12 295
3 28 235 246
3 47 114 226
3 88 238 172
3 89 269 291
3 121 254 175
3 53 240 133
3 27 234 116
3 30 147 175
3 71 175 147
3 66 216 119
3 44 254 121
3 51 228 138
3 15  16 172
3 111 189 236
3 80 236 189
3 18 200 126
3 108 258 194
3 93 127 206
3 38 214 160
3 55 201 132
3 73 132 201
3 74 200 154
3 26 281 133
3 29 162 212
3 86 212 162
3 45 196 123
3 90 248 157
3 41 165 140
3 55 121 285
3 39 166 191
3 244  69 312
3 53 133 255
3 55 238 121
3 51 252 125
3 40 215 177
3 53 122 309
3 73 130 193
3 13 193 130
3 137 273 170
3 43 157 248
3 74 126 200
3 34 170 142
3 52 259 129
3 50 146 174
3 37 187 256
3 120 256 187
3 94 182 220
3 42 220 182
3 52 128 253
3 17  18 261
3 101 303 179
3 83 174 146
3 103 269 195
3 80 189 161
3 30 161 189
3 36 288 159
3 28 222 136
3 48 247 127
3 37 135 203
3 49 135 197
3 73 228 130
3 51 130 228
3 32 231 188
3 79 191 166
3 36 275 144
3 28 143 222
3 62 279 149
3 59 143 184
3 62 151 279
3 66 257 149
3 49 197 139
3 83 178 271
3 62 149 188
3 43 195 269
3 59 180 144
3 78 219 140
3 41 140 219
3 83 271 204
3 77 183 142
3 77 227 140
3 34 199 137
3 91 259 289
3 35 138 198
3 70 208 141
3 60 237 131
3 26 133 207
3 133 240 207
3 25 152 181
3 53 206 134
3 59 184 155
3 81 202 270
3 81 186 147
3 70 141 194
3 138 228 198
3 84 136 272
3 75 139 197
3 44 260 210
3 23  24 171
3 57 315 158
3 32 134 314
3 100 137 294
3 64 304 187
3 70 194 258
3 9 223 242
3 92 226 145
3 118 186 298
3 36 159 258
3 76 155 184
3 53 134 240
3 70 154 208
3 50 298 186
3 120 187 304
3 55 285 148
3 82 157 217
3 43 217 157
3 71 277 148
3 21 141 208
3 57 273 137
3 55 148 201
3 62 188 166
3 73 201 198
3 38 289 153
3 2 276 156
3 29 212 211
3 100 294 264
3 20 208 154
3 38 155 214
3 76 214 155
3 79 178 191
3 83 191 178
3 97 308 171
3 67 222 143
3 2 156 241
3 5   6 179
3 8 163 311
3 38 153 229
3 80 229 153
3 63 167 183
3 29 211 173
3 88 260 238
3 38 160 289
3 50 270 146
3 18  19 200
3 69 173 211
3 3   4 230
3 61 287 142
3 64 169 181
3 86 162 213
3 77 142 287
3 82 173 244
3 71 147 306
3 30 251 161
3 67 144 275
3 87 176 239
3 65 239 176
3 90 157 310
3 113 263 204
3 27 204 263
3 69 211 177
3 9  10 223
3 41 233 313
3 79 166 188
3 7   8 311
3 2   3 276
3 99 175 254
3 82 205 173
3 29 173 205
3 30 249 147
3 75 197 224
3 71 148 285
3 23 171 308
3 81 147 249
3 35 148 277
3 66 149 279
3 95 150 283
3 32 149 257
3 6   7 264
3 13  14 193
3 75 224 225
3 96 225 224
3 1   2 241
3 71 306 277
3 91 160 299
3 56 299 160
3 20  21 208
3 310 243  54
3 157 243 310
3 52 236 153
3 80 153 236
3 56 152 299
3 25 300 152
3 119 313 233
3 87 246 235
3 120 304 152
3 77 192 227
3 85 211 212
3 5 179 303
3 74 159 288
3 41 213 165
3 94 220 221
3 76 221 220
3 76 184 221
3 54 156 310
3 90 310 156
3 82 243 157
3 107 170 273
3 8 242 163
3 94 239 182
3 65 182 239
3 0 262 185
3 54 296 156
3 3 230 276
3 90 156 276
3 70 258 159
3 26 207 227
3 85 177 211
3 72 161 251
3 91 300 259
3 91 289 160
3 7 311 264
3 72 209 180
3 69 177 215
3 111 253 202
3 57 163 315
3 29 268 162
3 100 311 163
3 37 203 187
3 89 205 217
3 43 248 195
3 101 195 248
3 8   9 242
3 78 240 302
3 134 302 240
3 16  17 290
3 52 253 236
3 111 236 253
3 93 206 309
3 133 281 255
3 90 230 248
3 101 248 230
3 96 245 225
3 42 225 245
3 136 222 272
3 79 188 231
3 50 186 270
3 69 244 173
3 118 277 306
3 124 305 182
3 67 168 272
3 44 210 282
3 102 282 210
3 48 178 247
3 86 218 212
3 10 190 223
3 118 306 186
3 79 247 178
3 40 177 250
3 85 250 177
3 94 221 246
3 28 246 221
3 88 261 260
3 126 260 261
3 26 227 192
3 73 198 228
3 84 272 168
3 0   1 262
3 63 291 167
3 89 217 269
3 82 217 205
3 32 314 231
3 127 231 314
3 88 172 290
3 16 290 172
3 77 287 192
3 85 212 218
3 147 186 306
3 37 256 224
3 96 224 256
3 4   5 303
3 22  23 308
3 152 304 181
3 119 216 293
3 46 293 216
3 68 294 199
3 137 199 294
3 41 219 233
3 98 233 219
3 48 271 178
3 6 264 179
3 30 189 249
3 74 288 210
3 72 266 209
3 89 291 268
3 102 209 266
3 86 293 218
3 78 207 240
3 90 276 230
3 46 307 218
3 122 265 284
3 81 270 186
3 87 239 246
3 94 246 239
3 43 269 217
3 29 205 268
3 89 268 205
3 53 309 206
3 79 231 247
3 41 313 213
3 122 284 267
3 31 267 284
3 64 181 304
3 42 182 305
3 86 313 293
3 113 271 274
3 17 261 290
3 67 272 222
3 48 274 271
3 101 230 303
3 4 303 230
3 92 280 226
3 47 226 280
3 78 302 219
3 98 219 302
3 122 267 309
3 117 244 312
3 113 204 271
3 1 241 262
3 95 262 241
3 127 247 231
3 100 264 311
3 163 242 315
3 134 206 314
3 40 250 292
3 110 292 250
3 72 251 266
3 99 266 251
3 102 210 288
3 92 234 278
3 27 278 234
3 92 278 280
3 112 280 278
3 119 293 313
3 46 218 293
3 127 314 206
3 86 213 313
3 122 255 265
3 99 254 282
3 44 282 254
3 85 218 307
3 27 263 278
3 112 278 263
3 42 305 225
3 99 282 266
3 102 266 282
3 110 250 307
3 85 307 250
3 115 274 286
3 48 286 274
3 156 296 241
3 95 241 296
3 88 290 261
3 112 301 297
3 112 297 280
3 91 299 300
3 152 300 299
3 47 280 297
3 93 309 267
CELL_TYPES 555
5 5 5 5 5 5 5 5 5 5 5 5 5 5 5 5 5 5 5 5 5 5 5 5 5 5 5 5 5 5 5 5 5 5 5 5 5 5 5 5 5 5 5 5 5 5 5 5 5 5 5 5 5 5 5 5 5 5 5 5 5 5 5 5 5 5 5 5 5 5 5 5 5 5 5 5 5 5 5 5 5 5 5 5 5 5 5 5 5 5 5 5 5 5 5 5 5 5 5 5 5 5 5 5 5 5 5 5 5 5 5 5 5 5 5 5 5 5 5 5 5 5 5 5 5 5 5 5 5 5 5 5 5 5 5 5 5 5 5 5 5 5 5 5 5 5 5 5 5 5 5 5 5 5 5 5 5 5 5 5 5 5 5 5 5 5 5 5 5 5 5 5 5 5 5 5 5 5 5 5 5 5 5 5 5 5 5 5 5 5 5 5 5 5 5 5 5 5 5 5 5 5 5 5 5 5 5 5 5 5 5 5 5 5 5 5 5 5 5 5 5 5 5 5 5 5 5 5 5 5 5 5 5 5 5 5 5 5 5 5 5 5 5 5 5 5 5 5 5 5 5 5 5 5 5 5 5 5 5 5 5 5 5 5 5 5 5 5 5 5 5 5 5 5 5 5 5 5 5 5 5 5 5 5 5 5 5 5 5 5 5 5 5 5 5 5 5 5 5 5 5 5 5 5 5 5 5 5 5 5 5 5 5 5 5 5 5 5 5 5 5 5 5 5 5 5 5 5 5 5 5 5 5 5 5 5 5 5 5 5 5 5 5 5 5 5 5 5 5 5 5 5 5 5 5 5 5 5 5 5 5 5 5 5 5 5 5 5 5 5 5 5 5 5 5 5 5 5 5 5 5 5 5 5 5 5 5 5 5 5 5 5 5 5 5 5 5 5 5 5 5 5 5 5 5 5 5 5 5 5 5 5 5 5 5 5 5 5 5 5 5 5 5 5 5 5 5 5 5 5 5 5 5 5 5 5 5 5 5 5 5 5 5 5 5 5 5 5 5 5 5 5 5 5 5 5 5 5 5 5 5 5 5 5 5 5 5 5 5 5 5 5 5 5 5 5 5 5 5 5 5 5 5 5 5 5 5 5 5 5 5 5 5 5 5 5 5 5 5 5 5 5 5 5 5 5 5 5 5 5 5 5 5 5 5 5 5 5 5 5 5 5 5 5 5 5 5 5 5 5 5 5 5 5 5 5 5 5 5 5 5 5 5 5 5 5 5 5 5 5 5 5 5 5 5 
POINT_DATA 316
VECTORS displacement_ITER1 FLOAT
 2.062051e-01  4.589396e-02  0 
 2.067840e-01  4.990278e-02  0 
 2.073225e-01  5.398834e-02  0 
 2.078402e-01  5.816637e-02  0 
 2.083332e-01  6.241951e-02  0 
 2.088169e-01  6.673951e-02  0 
 2.093151e-01  7.112295e-02  0 
 2.098727e-01  7.561594e-02  0 
 2.105382e-01  8.030575e-02  0 
 2.112968e-01  8.537449e-02  0 
 2.119779e-01  9.057855e-02  0 
 1.183857e-01  8.579453e-02  0 
 1.188422e-01  8.097748e-02  0 
 1.192919e-01  7.624941e-02  0 
 1.197349e-01  7.163050e-02  0 
 1.201618e-01  6.706852e-02  0 
 1.205846e-01  6.255696e-02  0 
 1.210168e-01  5.808749e-02  0 
 1.214441e-01  5.365791e-02  0 
 1.218839e-01  4.927510e-02  0 
 1.223341e-01  4.493664e-02  0 
 1.228192e-01  4.064122e-02  0 
 1.233683e-01  3.643137e-02  0 
 1.240773e-01  3.245904e-02  0 
 1.248689e-01  2.892542e-02  0 
 1.654547e-01  5.591640e-02  0 
 1.807350e-01  8.119411e-02  0 
 1.484454e-01  7.979291e-02  0 
 1.479455e-01  3.646893e-02  0 
 1.867182e-01  5.884381e-02  0 
 1.427154e-01  5.854067e-02  0 
 1.650929e-01  8.800724e-02  0 
 1.671383e-01  7.161772e-02  0 
 1.348560e-01  8.861843e-02  0 
 1.936832e-01  7.220075e-02  0 
 1.354267e-01  7.340461e-02  0 
 1.368743e-01  4.573336e-02  0 
 1.700922e-01  4.213531e-02  0 
 1.538865e-01  4.931810e-02  0 
 1.543585e-01  6.656487e-02  0 
 1.808709e-01  4.848773e-02  0 
 1.789585e-01  6.792721e-02  0 
 1.594230e-01  3.816384e-02  0 
 1.972664e-01  6.162520e-02  0 
 1.324473e-01  5.717170e-02  0 
 1.335955e-01  3.548810e-02  0 
 1.754890e-01  5.766200e-02  0 
 1.444959e-01  9.154976e-02  0 
 1.598010e-01  7.844911e-02  0 
 1.727925e-01  3.465624e-02  0 
 1.462333e-01  7.168510e-02  0 
 1.286113e-01  8.105873e-02  0 
 1.559903e-01  5.773866e-02  0 
 1.716057e-01  8.077559e-02  0 
 1.983665e-01  5.275809e-02  0 
 1.298444e-01  6.541210e-02  0 
 1.623046e-01  4.653164e-02  0 
 2.005342e-01  7.947463e-02  0 
 1.561356e-01  8.611850e-02  0 
 1.457986e-01  4.464856e-02  0 
 1.407675e-01  8.069620e-02  0 
 1.896370e-01  8.011284e-02  0 
 1.628112e-01  6.400916e-02  0 
 1.867555e-01  6.726161e-02  0 
 1.723069e-01  5.030323e-02  0 
 1.576817e-01  3.094523e-02  0 
 1.710775e-01  6.454541e-02  0 
 1.414215e-01  3.866421e-02  0 
 2.016982e-01  6.907111e-02  0 
 1.877227e-01  5.120523e-02  0 
 1.298269e-01  4.258936e-02  0 
 1.377742e-01  6.523645e-02  0 
 1.421709e-01  5.136662e-02  0 
 1.273632e-01  7.308467e-02  0 
 1.291372e-01  4.988472e-02  0 
 1.653372e-01  3.571536e-02  0 
 1.528691e-01  4.188572e-02  0 
 1.851834e-01  7.425978e-02  0 
 1.770824e-01  7.471982e-02  0 
 1.598926e-01  7.160561e-02  0 
 1.494618e-01  5.499149e-02  0 
 1.473671e-01  6.456556e-02  0 
 1.929661e-01  5.594818e-02  0 
 1.533038e-01  7.451255e-02  0 
 1.404846e-01  3.200450e-02  0 
 1.813977e-01  5.485493e-02  0 
 1.808522e-01  6.159113e-02  0 
 1.518040e-01  3.089375e-02  0 
 1.266201e-01  6.007150e-02  0 
 1.914946e-01  6.212585e-02  0 
 2.019482e-01  5.850240e-02  0 
 1.597447e-01  5.279835e-02  0 
 1.436617e-01  8.463782e-02  0 
 1.652169e-01  8.170413e-02  0 
 1.541783e-01  3.588782e-02  0 
 2.013370e-01  4.885974e-02  0 
 1.639049e-01  4.164809e-02  0 
 1.289264e-01  3.459274e-02  0 
 1.728665e-01  6.919150e-02  0 
 1.387134e-01  5.655967e-02  0 
 2.031208e-01  7.571046e-02  0 
 2.030817e-01  6.504913e-02  0 
 1.357387e-01  5.064584e-02  0 
 1.944608e-01  6.775433e-02  0 
 1.468654e-01  4.997603e-02  0 
 1.690442e-01  5.896969e-02  0 
 1.573664e-01  4.386405e-02  0 
 1.954857e-01  8.074413e-02  0 
 1.354861e-01  4.024286e-02  0 
 1.350019e-01  8.254283e-02  0 
 1.759323e-01  5.217752e-02  0 
 1.503779e-01  6.068542e-02  0 
 1.493234e-01  8.684433e-02  0 
 1.549482e-01  8.175145e-02  0 
 1.394391e-01  9.156467e-02  0 
 1.619276e-01  8.548612e-02  0 
 1.445670e-01  7.671078e-02  0 
 1.941010e-01  5.182534e-02  0 
 1.403365e-01  6.970445e-02  0 
 1.754974e-01  6.330001e-02  0 
 1.672720e-01  4.698710e-02  0 
 1.334682e-01  6.125445e-02  0 
 1.703141e-01  8.496198e-02  0 
 1.356645e-01  3.130504e-02  0 
 1.619158e-01  3.290639e-02  0 
 1.241679e-01  8.440710e-02  0 
 1.266846e-01  5.411491e-02  0 
 1.638063e-01  7.748316e-02  0 
 1.579350e-01  6.252835e-02  0 
 1.612293e-01  5.879304e-02  0 
 1.247237e-01  7.728745e-02  0 
 1.397799e-01  7.469878e-02  0 
 1.250313e-01  6.884787e-02  0 
 1.760791e-01  8.188844e-02  0 
 1.700411e-01  7.489625e-02  0 
 1.722941e-01  3.894793e-02  0 
 1.443581e-01  3.249166e-02  0 
 1.986699e-01  7.455735e-02  0 
 1.329142e-01  7.765277e-02  0 
 1.686601e-01  3.276257e-02  0 
 1.804251e-01  7.236885e-02  0 
 1.268204e-01  3.851096e-02  0 
 1.899609e-01  7.520454e-02  0 
 1.448623e-01  4.025636e-02  0 
 1.411603e-01  4.336051e-02  0 
 1.393734e-01  8.610493e-02  0 
 1.510377e-01  7.007008e-02  0 
 1.424386e-01  6.345773e-02  0 
 1.336386e-01  6.858387e-02  0 
 1.665179e-01  6.671821e-02  0 
 1.968558e-01  4.895993e-02  0 
 1.651767e-01  6.022011e-02  0 
 1.651607e-01  5.089266e-02  0 
 1.540120e-01  5.401550e-02  0 
 1.266674e-01  4.662724e-02  0 
 1.504200e-01  4.629113e-02  0 
 2.026112e-01  5.442900e-02  0 
 1.974115e-01  5.776205e-02  0 
 1.990570e-01  8.421046e-02  0 
 1.314854e-01  4.619878e-02  0 
 1.579876e-01  4.851442e-02  0 
 1.449806e-01  5.462310e-02  0 
 1.851649e-01  6.310963e-02  0 
 2.052274e-01  7.937017e-02  0 
 1.305016e-01  8.617330e-02  0 
 1.834225e-01  6.955042e-02  0 
 1.589563e-01  6.705878e-02  0 
 1.913674e-01  6.880554e-02  0 
 1.380886e-01  3.628442e-02  0 
 1.729425e-01  5.518762e-02  0 
 1.941331e-01  7.675702e-02  0 
 1.276336e-01  3.119035e-02  0 
 1.251228e-01  6.378587e-02  0 
 1.888187e-01  5.528863e-02  0 
 1.491678e-01  7.503906e-02  0 
 1.378045e-01  6.110844e-02  0 
 1.545675e-01  2.837892e-02  0 
 1.832773e-01  5.127984e-02  0 
 1.576569e-01  7.488739e-02  0 
 2.057654e-01  6.833609e-02  0 
 1.422816e-01  4.724401e-02  0 
 1.688643e-01  5.353659e-02  0 
 1.579087e-01  3.488823e-02  0 
 1.882584e-01  7.130406e-02  0 
 1.488308e-01  4.166696e-02  0 
 2.025778e-01  4.501512e-02  0 
 1.437772e-01  6.798923e-02  0 
 1.703928e-01  4.588052e-02  0 
 1.630388e-01  6.882736e-02  0 
 1.475178e-01  5.807618e-02  0 
 2.083871e-01  9.294415e-02  0 
 1.557962e-01  7.084849e-02  0 
 1.843413e-01  7.822731e-02  0 
 1.231416e-01  7.377366e-02  0 
 1.312939e-01  3.897666e-02  0 
 1.987873e-01  6.555291e-02  0 
 1.317955e-01  3.232836e-02  0 
 1.692225e-01  3.635194e-02  0 
 1.312420e-01  7.317783e-02  0 
 1.977088e-01  7.046849e-02  0 
 1.251659e-01  5.070254e-02  0 
 1.295906e-01  6.967188e-02  0 
 1.512289e-01  6.445181e-02  0 
 1.730005e-01  4.277803e-02  0 
 1.523930e-01  7.871733e-02  0 
 1.903937e-01  5.901050e-02  0 
 1.678232e-01  7.841957e-02  0 
 1.777880e-01  7.832233e-02  0 
 1.256950e-01  4.264811e-02  0 
 1.391126e-01  4.954865e-02  0 
 1.317569e-01  5.266603e-02  0 
 1.851073e-01  5.479752e-02  0 
 1.829090e-01  5.843869e-02  0 
 1.818839e-01  6.542593e-02  0 
 1.545027e-01  4.596679e-02  0 
 1.848724e-01  4.807447e-02  0 
 1.733061e-01  6.038170e-02  0 
 1.940353e-01  6.002543e-02  0 
 1.793661e-01  5.796947e-02  0 
 1.763446e-01  7.071216e-02  0 
 1.560576e-01  3.925791e-02  0 
 1.513925e-01  3.841539e-02  0 
 1.439671e-01  3.659538e-02  0 
 2.077495e-01  8.855136e-02  0 
 1.670823e-01  3.961717e-02  0 
 1.628020e-01  3.850959e-02  0 
 1.426684e-01  8.832217e-02  0 
 1.809396e-01  7.650173e-02  0 
 1.289728e-01  7.644528e-02  0 
 1.507089e-01  5.113515e-02  0 
 2.047952e-01  6.099393e-02  0 
 1.636276e-01  7.307149e-02  0 
 1.928915e-01  8.430357e-02  0 
 1.754339e-01  6.677410e-02  0 
 1.450372e-01  8.114316e-02  0 
 1.485872e-01  3.148846e-02  0 
 1.521190e-01  5.747892e-02  0 
 1.367780e-01  7.778799e-02  0 
 1.297460e-01  6.137382e-02  0 
 1.545868e-01  3.258564e-02  0 
 1.743019e-01  7.722557e-02  0 
 2.038937e-01  5.115842e-02  0 
 2.070638e-01  8.333765e-02  0 
 1.959190e-01  5.459499e-02  0 
 1.911023e-01  5.265656e-02  0 
 1.603053e-01  4.131708e-02  0 
 1.513492e-01  3.434611e-02  0 
 1.609936e-01  7.525100e-02  0 
 2.005798e-01  6.154080e-02  0 
 1.457905e-01  6.134077e-02  0 
 1.794642e-01  5.181442e-02  0 
 1.414646e-01  5.483633e-02  0 
 1.273277e-01  8.519427e-02  0 
 1.536674e-01  6.156281e-02  0 
 1.354530e-01  5.813952e-02  0 
 1.739439e-01  8.491768e-02  0 
 1.665301e-01  4.367533e-02  0 
 1.696042e-01  6.924524e-02  0 
 1.333011e-01  4.303044e-02  0 
 1.588310e-01  5.565541e-02  0 
 1.289323e-01  5.691068e-02  0 
 1.245740e-01  5.750988e-02  0 
 2.041371e-01  4.786785e-02  0 
 1.516118e-01  8.371411e-02  0 
 2.058940e-01  7.240738e-02  0 
 1.728123e-01  8.845313e-02  0 
 1.387632e-01  5.291971e-02  0 
 1.666904e-01  8.500869e-02  0 
 1.886006e-01  6.180988e-02  0 
 1.946559e-01  6.376251e-02  0 
 1.477255e-01  6.794220e-02  0 
 1.562240e-01  7.861986e-02  0 
 1.414003e-01  3.514421e-02  0 
 1.974400e-01  7.772111e-02  0 
 1.583133e-01  8.215967e-02  0 
 1.387923e-01  4.127008e-02  0 
 2.048027e-01  5.717973e-02  0 
 1.367842e-01  6.939698e-02  0 
 1.474104e-01  8.397875e-02  0 
 1.670435e-01  6.304713e-02  0 
 1.460546e-01  8.757996e-02  0 
 1.784449e-01  8.484266e-02  0 
 1.353780e-01  5.461345e-02  0 
 1.992503e-01  4.624886e-02  0 
 1.684990e-01  8.921170e-02  0 
 1.343036e-01  6.465935e-02  0 
 1.618254e-01  8.164614e-02  0 
 1.873022e-01  7.766111e-02  0 
 1.330294e-01  4.912301e-02  0 
 1.567651e-01  5.181612e-02  0 
 1.235816e-01  6.039426e-02  0 
 1.900874e-01  6.557948e-02  0 
 1.770724e-01  4.897332e-02  0 
 1.772527e-01  6.061100e-02  0 
 2.011433e-01  7.248303e-02  0 
 1.223562e-01  8.092646e-02  0 
 2.010486e-01  5.176629e-02  0 
 1.485242e-01  9.028226e-02  0 
 1.426580e-01  7.219288e-02  0 
 1.617053e-01  5.028635e-02  0 
 1.622533e-01  5.388400e-02  0 
 1.521455e-01  8.875140e-02  0 
 1.732635e-01  7.279308e-02  0 
 2.062949e-01  6.454975e-02  0 
 1.683981e-01  4.987058e-02  0 
 1.612715e-01  3.601513e-02  0 
 1.402277e-01  6.715009e-02  0 
 1.780447e-01  5.491145e-02  0 
 1.259481e-01  3.446974e-02  0 
 1.684191e-01  8.202521e-02  0 
 1.997414e-01  5.597130e-02  0 
 2.067963e-01  7.644766e-02  0 
 1.918520e-01  4.905889e-02  0 
 1.787625e-01  6.404637e-02  0 
 1.664892e-01  7.509301e-02  0 
 2.030069e-01  8.243127e-02  0 
VECTORS displacement_ITER2 FLOAT
 1.922638e-01  4.093678e-02  0 
 1.927630e-01  4.490954e-02  0 
 1.932179e-01  4.890790e-02  0 
 1.936607e-01  5.295514e-02  0 
 1.940920e-01  5.704941e-02  0 
 1.945203e-01  6.119064e-02  0 
 1.949537e-01  6.537824e-02  0 
 1.954055e-01  6.963178e-02  0 
 1.958700e-01  7.397470e-02  0 
 1.962709e-01  7.823688e-02  0 
 1.967422e-01  8.207551e-02  0 
 1.105183e-01  7.813077e-02  0 
 1.109231e-01  7.385073e-02  0 
 1.113171e-01  6.960113e-02  0 
 1.117178e-01  6.540671e-02  0 
 1.121182e-01  6.125206e-02  0 
 1.125225e-01  5.713774e-02  0 
 1.129409e-01  5.305966e-02  0 
 1.133597e-01  4.901722e-02  0 
 1.137915e-01  4.501709e-02  0 
 1.142326e-01  4.105582e-02  0 
 1.147007e-01  3.712924e-02  0 
 1.152183e-01  3.326555e-02  0 
 1.158670e-01  2.957359e-02  0 
 1.166092e-01  2.620805e-02  0 
 1.534908e-01  5.098934e-02  0 
 1.677968e-01  7.461305e-02  0 
 1.378279e-01  7.292162e-02  0 
 1.376223e-01  3.332907e-02  0 
 1.733588e-01  5.362689e-02  0 
 1.327104e-01  5.344626e-02  0 
 1.532122e-01  8.078990e-02  0 
 1.550764e-01  6.552853e-02  0 
 1.253584e-01  8.088466e-02  0 
 1.801059e-01  6.632493e-02  0 
 1.259661e-01  6.701712e-02  0 
 1.274981e-01  4.176159e-02  0 
 1.576051e-01  3.846023e-02  0 
 1.429457e-01  4.499666e-02  0 
 1.432977e-01  6.079834e-02  0 
 1.678056e-01  4.392003e-02  0 
 1.660858e-01  6.217495e-02  0 
 1.479908e-01  3.487093e-02  0 
 1.834563e-01  5.627591e-02  0 
 1.233671e-01  5.221231e-02  0 
 1.246245e-01  3.240835e-02  0 
 1.627825e-01  5.257131e-02  0 
 1.341879e-01  8.363695e-02  0 
 1.482741e-01  7.179606e-02  0 
 1.599505e-01  3.177894e-02  0 
 1.358359e-01  6.547690e-02  0 
 1.197090e-01  7.395435e-02  0 
 1.448252e-01  5.268945e-02  0 
 1.592677e-01  7.410806e-02  0 
 1.845047e-01  4.773371e-02  0 
 1.209402e-01  5.973514e-02  0 
 1.506064e-01  4.243146e-02  0 
 1.867265e-01  7.324427e-02  0 
 1.448628e-01  7.881849e-02  0 
 1.356225e-01  4.075950e-02  0 
 1.308014e-01  7.369023e-02  0 
 1.762871e-01  7.391892e-02  0 
 1.510679e-01  5.845802e-02  0 
 1.734507e-01  6.158920e-02  0 
 1.597512e-01  4.577370e-02  0 
 1.464131e-01  2.835111e-02  0 
 1.587120e-01  5.897754e-02  0 
 1.316971e-01  3.531568e-02  0 
 1.877233e-01  6.340562e-02  0 
 1.742444e-01  4.638629e-02  0 
 1.211009e-01  3.890363e-02  0 
 1.281597e-01  5.956855e-02  0 
 1.322704e-01  4.689316e-02  0 
 1.186375e-01  6.672328e-02  0 
 1.204064e-01  4.556593e-02  0 
 1.533162e-01  3.268022e-02  0 
 1.420545e-01  3.823922e-02  0 
 1.719740e-01  6.820164e-02  0 
 1.643561e-01  6.852481e-02  0 
 1.483727e-01  6.546693e-02  0 
 1.388834e-01  5.018867e-02  0 
 1.369120e-01  5.895527e-02  0 
 1.792962e-01  5.084584e-02  0 
 1.423002e-01  6.810840e-02  0 
 1.309086e-01  2.927006e-02  0 