# vtk DataFile Version 3.1
this is an vtk file created by FEMAC
ASCII
DATASET UNSTRUCTURED_GRID
POINTS 317 FLOAT
3.563320 1.173761 0.000000
3.603804 1.202867 0.000000
3.642788 1.233956 0.000000
3.680173 1.266948 0.000000
3.715867 1.301763 0.000000
3.749781 1.338314 0.000000
3.781831 1.376510 0.000000
3.811938 1.416256 0.000000
3.840026 1.457454 0.000000
3.866025 1.500000 0.000000
3.889872 1.543789 0.000000
3.911506 1.588713 0.000000
3.930874 1.634659 0.000000
3.947927 1.681513 0.000000
3.962624 1.729160 0.000000
3.974928 1.777479 0.000000
3.984808 1.826352 0.000000
3.992239 1.875656 0.000000
3.997204 1.925270 0.000000
3.999689 1.975069 0.000000
3.999689 2.024931 0.000000
3.997204 2.074730 0.000000
3.992239 2.124344 0.000000
4.492082 1.850695 0.000000
4.119056 1.343331 0.000000
4.258087 1.656037 0.000000
3.943012 1.200955 0.000000
4.224879 1.864536 0.000000
4.265592 1.199084 0.000000
4.454438 1.655788 0.000000
4.101650 1.535616 0.000000
4.252502 1.454075 0.000000
3.966825 1.365562 0.000000
4.347239 1.786839 0.000000
4.092037 1.179277 0.000000
4.129689 1.747493 0.000000
4.157314 2.025844 0.000000
4.363738 1.942845 0.000000
4.620061 1.929513 0.000000
3.794560 1.188215 0.000000
4.375172 1.535790 0.000000
4.308494 1.328693 0.000000
3.994466 1.474333 0.000000
4.057574 1.642961 0.000000
3.869963 1.300320 0.000000
4.108607 1.862515 0.000000
4.260038 1.979766 0.000000
4.213452 1.558256 0.000000
4.239087 1.772875 0.000000
4.026155 1.269975 0.000000
4.150219 1.443211 0.000000
4.507846 1.749241 0.000000
4.527001 1.961185 0.000000
4.346274 1.669974 0.000000
4.176120 1.248929 0.000000
4.157219 1.640914 0.000000
4.218512 1.367459 0.000000
4.588963 1.833881 0.000000
4.055014 1.413795 0.000000
4.092746 1.952160 0.000000
4.011578 1.566717 0.000000
4.180597 1.154337 0.000000
3.706383 1.157091 0.000000
4.009537 1.148032 0.000000
4.305494 1.870190 0.000000
4.398839 1.853058 0.000000
4.352358 1.452705 0.000000
4.084743 1.097516 0.000000
4.394222 1.317486 0.000000
4.296729 1.576537 0.000000
3.920353 1.436938 0.000000
4.419481 1.742437 0.000000
3.792013 1.264878 0.000000
4.046919 1.731383 0.000000
4.078929 2.051420 0.000000
4.668800 1.863887 0.000000
4.456915 1.570120 0.000000
4.337134 1.251292 0.000000
4.174187 1.945907 0.000000
3.945347 1.285111 0.000000
4.170668 1.814930 0.000000
4.250545 1.281410 0.000000
3.859834 1.224610 0.000000
4.103877 1.271143 0.000000
4.385070 1.610491 0.000000
3.875170 1.374981 0.000000
4.194049 1.708149 0.000000
4.294713 1.719641 0.000000
4.318263 2.022629 0.000000
4.055374 1.804708 0.000000
4.065391 1.470072 0.000000
4.309290 1.506060 0.000000
4.054355 1.334583 0.000000
4.293422 1.394347 0.000000
3.735360 1.226294 0.000000
4.453162 1.912016 0.000000
4.436071 1.804434 0.000000
4.164849 1.497927 0.000000
4.361940 1.380600 0.000000
4.108199 1.601043 0.000000
3.997954 1.639312 0.000000
4.148254 1.099418 0.000000
3.959950 1.536253 0.000000
4.536006 1.803205 0.000000
4.540283 1.885988 0.000000
4.401810 1.482800 0.000000
4.069941 1.894436 0.000000
4.260997 1.829459 0.000000
4.122364 1.682580 0.000000
4.181138 1.303044 0.000000
3.994438 1.210616 0.000000
4.267335 1.917977 0.000000
4.311477 1.630720 0.000000
3.888806 1.165068 0.000000
3.996756 1.418964 0.000000
4.152698 2.080863 0.000000
3.812177 1.322998 0.000000
4.633934 1.801216 0.000000
4.052089 2.001084 0.000000
4.151121 1.894249 0.000000
4.217480 1.614444 0.000000
4.508511 1.636361 0.000000
4.118369 1.391893 0.000000
4.204731 1.419466 0.000000
4.036945 1.531021 0.000000
3.565463 1.118916 0.000000
3.914867 1.333727 0.000000
4.151170 1.566237 0.000000
4.217883 1.506793 0.000000
4.247167 1.147599 0.000000
4.506221 1.691256 0.000000
4.113055 1.803657 0.000000
4.694031 1.929483 0.000000
4.201780 1.993484 0.000000
4.210055 1.197261 0.000000
4.309972 1.954506 0.000000
4.148561 1.200952 0.000000
4.421207 1.693851 0.000000
4.292438 1.786021 0.000000
3.650610 1.171957 0.000000
4.043744 2.104111 0.000000
4.004897 1.693194 0.000000
4.169701 1.391359 0.000000
3.920830 1.495147 0.000000
4.055139 1.220348 0.000000
4.010585 1.320393 0.000000
4.578245 1.948492 0.000000
4.183707 1.760308 0.000000
4.322436 1.200897 0.000000
4.059858 1.601238 0.000000
4.035938 1.087214 0.000000
4.366323 1.740539 0.000000
3.897869 1.258735 0.000000
4.259580 1.538170 0.000000
4.115076 2.005239 0.000000
4.112827 1.490255 0.000000
4.352524 1.839608 0.000000
4.257581 1.326500 0.000000
4.357057 1.888296 0.000000
4.060661 1.140583 0.000000
4.425659 1.525545 0.000000
4.247026 1.704277 0.000000
4.030607 1.849454 0.000000
4.223670 1.944486 0.000000
4.133516 1.153023 0.000000
4.621146 1.879209 0.000000
4.347353 1.298074 0.000000
4.027097 1.370558 0.000000
4.197719 2.049332 0.000000
4.593357 1.785323 0.000000
4.038703 1.940983 0.000000
4.351484 1.585403 0.000000
3.960979 1.157054 0.000000
4.112264 1.907347 0.000000
3.694225 1.212915 0.000000
4.384821 1.810586 0.000000
4.460656 1.713922 0.000000
4.404196 1.904314 0.000000
3.921988 1.386455 0.000000
3.963623 1.596689 0.000000
4.487984 1.792979 0.000000
4.081308 1.763447 0.000000
4.253060 1.404174 0.000000
3.881680 1.419986 0.000000
4.503865 1.910998 0.000000
4.208975 1.664941 0.000000
3.842371 1.176910 0.000000
4.613543 1.980777 0.000000
4.265931 1.610150 0.000000
3.828366 1.367539 0.000000
4.029943 1.770147 0.000000
3.839565 1.264124 0.000000
3.816346 1.222650 0.000000
4.428115 1.612390 0.000000
3.750492 1.181679 0.000000
4.350315 1.496257 0.000000
3.982332 1.253943 0.000000
4.140373 1.296103 0.000000
4.215469 1.812302 0.000000
4.390288 1.424091 0.000000
4.100364 1.441845 0.000000
4.295926 1.283072 0.000000
4.585100 1.910591 0.000000
4.307289 1.463359 0.000000
4.441968 1.862705 0.000000
4.272574 2.019143 0.000000
4.026736 1.449328 0.000000
4.065819 1.683071 0.000000
4.403694 1.572575 0.000000
4.309810 1.825328 0.000000
4.285628 1.240853 0.000000
4.195786 1.464467 0.000000
3.998496 1.516103 0.000000
3.748675 1.266553 0.000000
3.602352 1.157412 0.000000
4.298138 1.676237 0.000000
4.110835 1.064499 0.000000
4.134791 1.968654 0.000000
4.482848 1.949920 0.000000
4.065109 1.291430 0.000000
4.038462 1.181798 0.000000
4.462408 1.760603 0.000000
4.034331 2.051255 0.000000
4.262062 1.873953 0.000000
4.470749 1.612658 0.000000
4.105403 2.096823 0.000000
4.122575 2.049969 0.000000
3.957408 1.455108 0.000000
4.100957 1.230020 0.000000
4.319520 1.913138 0.000000
4.150815 1.709739 0.000000
4.079108 1.366484 0.000000
4.535066 1.846393 0.000000
4.203069 1.117004 0.000000
4.105184 1.643656 0.000000
4.211836 1.278560 0.000000
4.319848 1.749595 0.000000
3.774330 1.303571 0.000000
4.233296 1.241016 0.000000
4.341384 1.986660 0.000000
4.392767 1.654179 0.000000
4.331897 1.538453 0.000000
4.272280 1.365584 0.000000
3.886997 1.463630 0.000000
3.912858 1.131325 0.000000
4.175381 1.601213 0.000000
4.269239 1.498524 0.000000
4.330066 1.415811 0.000000
4.145546 1.846162 0.000000
4.555591 1.763052 0.000000
4.183281 1.856891 0.000000
4.003298 1.736413 0.000000
3.858112 1.339058 0.000000
3.773366 1.222219 0.000000
4.099486 1.719619 0.000000
4.658211 1.905062 0.000000
4.192004 1.909165 0.000000
3.987008 1.108720 0.000000
4.390124 1.773061 0.000000
3.961646 1.322360 0.000000
4.321123 1.369938 0.000000
3.940777 1.243113 0.000000
3.897745 1.205550 0.000000
3.952666 1.412605 0.000000
4.640120 1.839381 0.000000
4.095868 1.314385 0.000000
4.147997 1.782479 0.000000
4.073020 1.559036 0.000000
4.355181 1.344716 0.000000
4.166294 1.345864 0.000000
4.249276 1.577654 0.000000
3.907631 1.295354 0.000000
4.335094 1.710451 0.000000
4.032770 1.491915 0.000000
4.102211 1.133155 0.000000
3.865289 1.132892 0.000000
4.135073 1.250271 0.000000
4.166684 1.681264 0.000000
3.962197 1.495070 0.000000
4.220975 1.735247 0.000000
4.271784 1.751514 0.000000
4.235513 2.016575 0.000000
4.074112 1.840022 0.000000
4.028012 1.660606 0.000000
4.356810 1.631829 0.000000
4.215588 1.322389 0.000000
4.016551 1.807186 0.000000
4.019517 1.608648 0.000000
4.164365 1.987614 0.000000
3.793477 1.145351 0.000000
4.505519 1.592229 0.000000
4.300446 1.992541 0.000000
3.846511 1.403921 0.000000
4.074583 1.510632 0.000000
4.692136 1.890334 0.000000
4.546899 1.923451 0.000000
3.922138 1.171736 0.000000
4.293491 1.172716 0.000000
3.925974 1.553964 0.000000
4.397954 1.373504 0.000000
4.652550 1.955385 0.000000
4.024255 1.897365 0.000000
3.714860 1.254895 0.000000
4.576561 1.873870 0.000000
4.137941 1.532862 0.000000
4.284527 1.428763 0.000000
3.963560 1.649293 0.000000
4.295545 1.538471 0.000000
4.178826 1.540148 0.000000
4.070248 1.256583 0.000000
4.082721 1.060321 0.000000
4.115518 1.561253 0.000000
4.136760 1.933480 0.000000
4.563520 1.990053 0.000000
4.233643 1.904380 0.000000
4.383946 1.705468 0.000000
3.985213 1.290356 0.000000
CELLS 555 2220 
3 142 122 269
3 196 261 110
3 122  24 269
3 206  58  90
3 110 261  26
3 90  58 200
3 27 198 107
3 29 240 193
3 234  43 149
3 99 234 149
3 55  99 245
3 133 281 168
3 29 137 240
3 36 133 168
3 69 171 112
3 23 184  95
3 26 172 110
3 63 110 172
3 60 179 102
3 29 121 130
3 92 145 219
3 49 219 145
3 71  96 258
3 54 238 235
3 23  96 180
3 54 134 238
3 23  95 204
3 61 129 134
3 28 134 129
3 5 116   6
3 50  97 155
3 72 191 116
3 44 116 191
3 94 174 194
3 62 194 174
3 31 211 123
3 31 128 211
3 54 136 134
3 61 134 136
3 46 111 135
3 48 138 107
3 65 175  96
3 65 204 177
3 95 177 204
3 65  96 204
3 23 204  96
3 61 101 233
3 99 127 245
3 98 299 199
3 49 110 144
3 98 199 247
3 25 188 112
3 69 112 188
3 60 124 267
3 71 221  96
3 45 106 282
3 50 211  97
3 23 180 103
3 23 104 184
3 59 106 173
3 45 173 106
3 27 250 198
3 60 267 149
3 10 143 298
3 92 265 231
3 54 109 197
3 50 122 142
3 24 231 265
3 74 118 154
3 53 215 112
3 19 118  20
3 50 142 123
3 61 164 101
3 55 234  99
3 40 195 105
3 66 105 195
3 112 171 284
3 2 139 174
3 73 141 207
3 67 150 310
3 1 139   2
3 40 105 160
3 67 101 274
3 57 103 169
3 67 216 101
3 102 298 143
3 60 102 212
3 46 163 111
3 9 143  10
3 32 167 114
3 58 114 167
3 59 170 106
3 56 123 142
3 23 103 232
3 23 232 104
3 57 232 103
3 51 103 180
3 141 283 207
3 55 108 234
3 5 237 116
3 51 249 103
3 203 305 247
3 106 162 282
3 55 277 108
3 44 191 152
3 82 152 191
3 59 154 118
3 47 128 153
3 64 107 209
3 66 199 105
3 54 235 109
3 48 107 198
3 51 176 130
3 27 107 223
3 64 223 107
3 36 168 115
3 29 130 176
3 96 175 258
3 19 170 118
3 64 229 111
3 49 196 110
3 63 220 110
3 13 141  14
3 21 140  22
3 35 230 147
3 59 118 170
3 64 111 223
3 89 190 181
3 85 178 183
3 70 183 178
3 29 176 137
3 13 306 141
3 86 147 230
3 66 203 247
3 58 206 114
3 73 181 190
3 55 120 185
3 127 308 245
3 81 285 235
3 53 112 284
3 57 169 117
3 50 200 122
3 102 179 298
3 63 150 159
3 67 159 150
3 47 120 245
3 81 157 285
3 44 126 252
3 25 112 215
3 81 201 157
3 41 157 201
3 85 252 126
3 58 122 200
3 100 179 287
3 146 187 313
3 20 118 222
3 74 222 118
3 80 147 198
3 48 198 147
3 74 225 140
3 72 213 253
3 308  47 245
3 16 162  17
3 45 119 173
3 62 174 139
3 31 123 182
3 6 116 189
3 58 167 231
3 92 231 167
3 100 141 306
3 42 114 206
3 32 114 263
3 0 125 214
3 42 227 114
3 288 154 217
3 39 289 186
3 25 215 161
3 87 161 215
3 36 154 288
3 24 122 231
3 28 129 297
3 80 248 131
3 36 115 226
3 34 164 136
3 61 136 164
3 85 126 178
3 32 178 126
3 46 133 163
3 72 116 237
3 44 252 116
3 65 158 156
3 70 227 143
3 78 163 133
3 93 247 305
3 25 185 120
3 99 311 127
3 53 272 215
3 32 145 167
3 92 167 145
3 82 186 262
3 113 262 186
3 25 120 188
3 56 182 123
3 94 253 213
3 97 128 308
3 47 308 128
3 56 269 285
3 60 287 179
3 91 203 195
3 66 195 203
3 64 156 158
3 89 181 131
3 45 131 248
3 43 283 287
3 34 228 144
3 34 144 220
3 47 270 120
3 56 142 269
3 57 117 264
3 37 135 229
3 43 234 207
3 108 207 234
3 50 155 200
3 28 148 210
3 77 210 148
3 60 212 124
3 43 287 149
3 29 224 121
3 35 131 181
3 119 256  78
3 97 211 128
3 312 119  78
3 71 137 176
3 33 209 138
3 65 177 158
3 2 174   3
3 45 248 119
3 86 185 161
3 25 161 185
3 80 131 266
3 4 237   5
3 76 290 224
3 68 299 268
3 74 154 226
3 84 284 171
3 65 156 175
3 55 245 120
3 16 286 162
3 152 262 261
3 84 171 208
3 40 208 171
3 51 221 176
3 100 306 179
3 99 149 267
3 34 220 159
3 50 123 211
3 54 197 276
3 58 231 122
3 111 229 135
3 89 131 282
3 45 282 131
3 4 213 237
3 38 187 146
3 33 175 156
3 33 156 209
3 44 271 126
3 37 229 158
3 107 138 209
3 63 172 257
3 101 164 274
3 41 201 166
3 77 166 201
3 30 155 304
3 32 126 259
3 79 259 126
3 21 222 140
3 74 140 222
3 37 158 177
3 56 157 242
3 26 261 262
3 66 247 199
3 54 276 136
3 18 170  19
3 144 228 309
3 143 227 278
3 37 239 135
3 79 126 271
3 7 292   8
3 39 194 289
3 31 246 128
3 61 233 129
3 84 193 240
3 8 292 183
3 300  38 255
3 132 300 255
3 82 192 186
3 39 186 192
3 81 235 238
3 33 138 236
3 110 220 144
3 97 304 155
3 36 288 133
3 35 266 131
3 38 146 202
3 1 214 139
3 6 189   7
3 99 267 311
3 108 230 254
3 52 146 313
3 24 197 269
3 109 269 197
3 109 285 269
3 46 281 133
3 18 301 170
3 11 179  12
3 30 293 155
3 41 242 157
3 82 262 152
3 3 174 302
3 35 254 230
3 161 280 279
3 128 246 153
3 40 160 208
3 76 208 160
3 34 159 274
3 34 136 228
3 69 241 171
3 106 170 301
3 78 133 288
3 56 242 182
3 108 277 230
3 28 238 134
3 90 200 155
3 119 250 256
3 71 315 137
3 27 256 250
3 70 143 243
3 41 166 268
3 69 270 153
3 34 274 164
3 46 135 291
3 35 147 266
3 36 226 154
3 96 221 180
3 57 303 232
3 73 251 141
3 38 202 165
3 41 268 260
3 87 280 161
3 84 208 193
3 76 193 208
3 64 209 156
3 48 280 138
3 9 243 143
3 14 141 251
3 90 155 293
3 49 145 316
3 153 246 307
3 307 246  91
3 59 217 154
3 100 283 141
3 15 286  16
3 12 179 306
3 138 280 236
3 172 296 244
3 11 298 179
3 86 279 147
3 48 147 279
3 95 184 218
3 71 151 315
3 102 143 278
3 100 287 283
3 49 144 309
3 41 260 242
3 33 151 258
3 14 251  15
3 92 219 265
3 32 259 145
3 80 266 147
3 72 253 192
3 52 184 295
3 104 295 184
3 33 236 151
3 63 159 220
3 52 295 146
3 80 198 250
3 15 190 286
3 55 185 277
3 81 210 201
3 135 239 291
3 120 270 188
3 71 176 221
3 64 158 229
3 32 263 178
3 82 191 192
3 28 297 148
3 72 192 191
3 87 236 280
3 31 203 246
3 91 246 203
3 63 257 150
3 78 256 163
3 15 251 190
3 71 258 151
3 60 149 287
3 73 254 181
3 0 214   1
3 98 268 299
3 94 302 174
3 8 243   9
3 119 312 173
3 89 162 286
3 69 153 307
3 69 188 270
3 79 271 152
3 79 152 261
3 59 173 312
3 83 309 228
3 43 207 283
3 20 222  21
3 53 240 315
3 137 315 240
3 47 153 270
3 44 152 271
3 136 276 228
3 69 307 241
3 17 162 301
3 106 301 162
3 31 182 305
3 29 193 224
3 48 279 280
3 8 183 243
3 52 218 184
3 51 180 221
3 151 272 315
3 38 165 255
3 53 315 272
3 57 264 165
3 56 285 157
3 33 258 175
3 73 207 254
3 70 243 183
3 102 278 212
3 42 212 278
3 77 201 210
3 116 252 189
3 40 171 241
3 81 238 210
3 67 274 159
3 104 232 303
3 88 291 239
3 3 302   4
3 75 255 165
3 87 215 272
3 103 249 169
3 57 165 303
3 109 235 285
3 113 275 244
3 59 312 217
3 76 224 193
3 93 242 260
3 75 165 264
3 86 161 279
3 93 182 242
3 91 195 241
3 40 241 195
3 68 268 166
3 7 189 292
3 89 282 162
3 73 190 251
3 111 163 314
3 113 186 275
3 49 316 196
3 70 178 263
3 35 181 254
3 98 260 268
3 74 226 225
3 115 225 226
3 94 194 253
3 39 253 194
3 165 202 303
3 72 237 213
3 79 261 196
3 26 296 172
3 93 305 182
3 86 277 185
3 28 210 238
3 85 189 252
3 10 298  11
3 108 254 207
3 17 301  18
3 12 306  13
3 42 206 273
3 90 273 206
3 39 192 253
3 93 260 247
3 98 247 260
3 83 276 197
3 42 273 212
3 124 212 273
3 4 302 213
3 53 284 240
3 46 205 281
3 30 311 267
3 27 223 314
3 111 314 223
3 124 293 267
3 30 267 293
3 85 183 292
3 83 197 265
3 42 278 227
3 24 265 197
3 163 256 314
3 146 295 202
3 124 273 293
3 90 293 273
3 85 292 189
3 78 288 217
3 49 309 219
3 89 286 190
3 83 265 219
3 119 248 250
3 46 291 205
3 38 300 187
3 70 263 227
3 114 227 263
3 151 236 272
3 80 250 248
3 104 202 295
3 88 205 291
3 79 196 316
3 26 262 296
3 113 296 262
3 104 303 202
3 31 305 203
3 83 228 276
3 121 224 290
3 87 272 236
3 86 230 277
3 94 213 302
3 113 244 296
3 67 310 216
3 78 217 312
3 83 219 309
3 84 240 284
3 132 255 294
3 27 314 256
3 75 294 255
3 91 241 307
3 79 316 259
3 145 259 316
3 127 304 308
3 97 308 304
3 30 304 311
3 127 311 304
CELL_TYPES 555
5 5 5 5 5 5 5 5 5 5 5 5 5 5 5 5 5 5 5 5 5 5 5 5 5 5 5 5 5 5 5 5 5 5 5 5 5 5 5 5 5 5 5 5 5 5 5 5 5 5 5 5 5 5 5 5 5 5 5 5 5 5 5 5 5 5 5 5 5 5 5 5 5 5 5 5 5 5 5 5 5 5 5 5 5 5 5 5 5 5 5 5 5 5 5 5 5 5 5 5 5 5 5 5 5 5 5 5 5 5 5 5 5 5 5 5 5 5 5 5 5 5 5 5 5 5 5 5 5 5 5 5 5 5 5 5 5 5 5 5 5 5 5 5 5 5 5 5 5 5 5 5 5 5 5 5 5 5 5 5 5 5 5 5 5 5 5 5 5 5 5 5 5 5 5 5 5 5 5 5 5 5 5 5 5 5 5 5 5 5 5 5 5 5 5 5 5 5 5 5 5 5 5 5 5 5 5 5 5 5 5 5 5 5 5 5 5 5 5 5 5 5 5 5 5 5 5 5 5 5 5 5 5 5 5 5 5 5 5 5 5 5 5 5 5 5 5 5 5 5 5 5 5 5 5 5 5 5 5 5 5 5 5 5 5 5 5 5 5 5 5 5 5 5 5 5 5 5 5 5 5 5 5 5 5 5 5 5 5 5 5 5 5 5 5 5 5 5 5 5 5 5 5 5 5 5 5 5 5 5 5 5 5 5 5 5 5 5 5 5 5 5 5 5 5 5 5 5 5 5 5 5 5 5 5 5 5 5 5 5 5 5 5 5 5 5 5 5 5 5 5 5 5 5 5 5 5 5 5 5 5 5 5 5 5 5 5 5 5 5 5 5 5 5 5 5 5 5 5 5 5 5 5 5 5 5 5 5 5 5 5 5 5 5 5 5 5 5 5 5 5 5 5 5 5 5 5 5 5 5 5 5 5 5 5 5 5 5 5 5 5 5 5 5 5 5 5 5 5 5 5 5 5 5 5 5 5 5 5 5 5 5 5 5 5 5 5 5 5 5 5 5 5 5 5 5 5 5 5 5 5 5 5 5 5 5 5 5 5 5 5 5 5 5 5 5 5 5 5 5 5 5 5 5 5 5 5 5 5 5 5 5 5 5 5 5 5 5 5 5 5 5 5 5 5 5 5 5 5 5 5 5 5 5 5 5 5 5 5 5 5 5 5 5 5 5 5 5 5 5 5 5 5 5 5 5 5 5 5 5 5 5 5 5 5 5 5 5 5 5 5 5 5 5 5 
POINT_DATA 317
VECTORS displacement_ITER1 FLOAT
 2.630412e-02  -4.977003e-02  0 
 2.786300e-02  -5.139304e-02  0 
 2.943944e-02  -5.296738e-02  0 
 3.100705e-02  -5.439217e-02  0 
 3.262556e-02  -5.567849e-02  0 
 3.434816e-02  -5.688853e-02  0 
 3.616347e-02  -5.803941e-02  0 
 3.808518e-02  -5.911068e-02  0 
 4.009910e-02  -6.010465e-02  0 
 4.220892e-02  -6.101242e-02  0 
 4.439080e-02  -6.184116e-02  0 
 4.666823e-02  -6.256084e-02  0 
 4.901497e-02  -6.319092e-02  0 
 5.144995e-02  -6.370716e-02  0 
 5.394325e-02  -6.412559e-02  0 
 5.650452e-02  -6.442406e-02  0 
 5.913280e-02  -6.460135e-02  0 
 6.181750e-02  -6.465808e-02  0 
 6.456339e-02  -6.458360e-02  0 
 6.735776e-02  -6.437728e-02  0 
 7.022211e-02  -6.403339e-02  0 
 7.318524e-02  -6.351557e-02  0 
 7.637769e-02  -6.284149e-02  0 
 6.041483e-02  -9.138467e-02  0 
 3.487041e-02  -7.298633e-02  0 
 5.009135e-02  -7.926667e-02  0 
 2.844814e-02  -6.530039e-02  0 
 6.104547e-02  -7.718101e-02  0 
 2.826026e-02  -7.985617e-02  0 
 5.019617e-02  -8.928701e-02  0 
 4.401407e-02  -7.180458e-02  0 
 4.009749e-02  -7.917411e-02  0 
 3.585843e-02  -6.601987e-02  0 
 5.693190e-02  -8.372625e-02  0 
 2.743283e-02  -7.194697e-02  0 
 5.478860e-02  -7.253789e-02  0 
 7.006204e-02  -7.306389e-02  0 
 6.527127e-02  -8.444566e-02  0 
 6.483243e-02  -9.844674e-02  0 
 2.785972e-02  -5.908469e-02  0 
 4.410510e-02  -8.518584e-02  0 
 3.418697e-02  -8.187096e-02  0 
 4.100073e-02  -6.695659e-02  0 
 4.938357e-02  -6.931413e-02  0 
 3.281443e-02  -6.196831e-02  0 
 6.095403e-02  -7.098840e-02  0 
 6.734807e-02  -7.881147e-02  0 
 4.516122e-02  -7.717571e-02  0 
 5.614666e-02  -7.811400e-02  0 
 3.151441e-02  -6.886688e-02  0 
 3.955960e-02  -7.429913e-02  0 
 5.501613e-02  -9.215715e-02  0 
 6.649249e-02  -9.334183e-02  0 
 5.085175e-02  -8.373864e-02  0 
 3.053944e-02  -7.571382e-02  0 
 4.928001e-02  -7.424234e-02  0 
 3.599211e-02  -7.760847e-02  0 
 5.958993e-02  -9.666009e-02  0 
 3.814580e-02  -6.990450e-02  0 
 6.592797e-02  -6.973356e-02  0 
 4.553231e-02  -6.740732e-02  0 
 2.628870e-02  -7.596547e-02  0 
 2.628566e-02  -5.567678e-02  0 
 2.608178e-02  -6.831052e-02  0 
 6.135777e-02  -8.144680e-02  0 
 6.047596e-02  -8.639757e-02  0 
 4.004682e-02  -8.401896e-02  0 
 2.382198e-02  -7.169978e-02  0 
 3.366170e-02  -8.596062e-02  0 
 4.609997e-02  -8.127076e-02  0 
 3.917137e-02  -6.373445e-02  0 
 5.463251e-02  -8.751186e-02  0 
 3.114150e-02  -5.882166e-02  0 
 5.396839e-02  -6.838186e-02  0 
 7.165462e-02  -6.853821e-02  0 
 6.129897e-02  -1.010706e-01  0 
 4.586244e-02  -8.934866e-02  0 
 3.061982e-02  -8.318165e-02  0 
 6.552577e-02  -7.424303e-02  0 
 3.218447e-02  -6.525323e-02  0 
 5.836980e-02  -7.444502e-02  0 
 3.200682e-02  -7.914855e-02  0 
 2.946177e-02  -6.170049e-02  0 
 3.156213e-02  -7.238224e-02  0 
 4.785228e-02  -8.571512e-02  0 
 3.622175e-02  -6.197633e-02  0 
 5.274583e-02  -7.593526e-02  0 
 5.338649e-02  -8.106209e-02  0 
 6.965833e-02  -8.184612e-02  0 
 5.786373e-02  -6.844241e-02  0 
 4.082215e-02  -7.025667e-02  0 
 4.262845e-02  -8.191757e-02  0 
 3.445981e-02  -7.003309e-02  0 
 3.726365e-02  -8.116132e-02  0 
 2.936279e-02  -5.666956e-02  0 
 6.370212e-02  -8.928359e-02  0 
 5.790199e-02  -8.837989e-02  0 
 4.219385e-02  -7.490915e-02  0 
 3.662855e-02  -8.444067e-02  0 
 4.726064e-02  -7.193898e-02  0 
 4.921078e-02  -6.641848e-02  0 
 2.387445e-02  -7.452060e-02  0 
 4.401527e-02  -6.511417e-02  0 
 5.789899e-02  -9.373439e-02  0 
 6.238054e-02  -9.403219e-02  0 
 4.150751e-02  -8.647290e-02  0 
 6.273281e-02  -6.875518e-02  0 
 5.916019e-02  -7.915953e-02  0 
 5.140858e-02  -7.238402e-02  0 
 3.300977e-02  -7.590664e-02  0 
 2.886296e-02  -6.754459e-02  0 
 6.395253e-02  -7.933393e-02  0 
 4.883014e-02  -8.198519e-02  0 
 2.689563e-02  -6.301929e-02  0 
 3.836439e-02  -6.722826e-02  0 
 7.324920e-02  -7.262703e-02  0 
 3.376021e-02  -5.948414e-02  0 
 5.779804e-02  -9.915513e-02  0 
 6.875319e-02  -6.720978e-02  0 
 6.267311e-02  -7.315365e-02  0 
 4.796521e-02  -7.728993e-02  0 
 4.924012e-02  -9.205248e-02  0 
 3.712956e-02  -7.288378e-02  0 
 3.844115e-02  -7.691396e-02  0 
 4.377074e-02  -6.874366e-02  0 
 2.389223e-02  -4.986101e-02  0 
 3.436257e-02  -6.381335e-02  0 
 4.553777e-02  -7.412133e-02  0 
 4.263592e-02  -7.745552e-02  0 
 2.595215e-02  -7.901914e-02  0 
 5.204037e-02  -9.197814e-02  0 
 5.777083e-02  -7.146521e-02  0 
 6.490054e-02  -1.025355e-01  0 
 6.816580e-02  -7.561894e-02  0 
 2.819887e-02  -7.729825e-02  0 
 6.593395e-02  -8.154187e-02  0 
 2.838265e-02  -7.448418e-02  0 
 5.211870e-02  -8.759595e-02  0 
 5.686377e-02  -8.086894e-02  0 
 2.668600e-02  -5.337865e-02  0 
 7.490337e-02  -6.626663e-02  0 
 5.199531e-02  -6.646943e-02  0 
 3.711204e-02  -7.528760e-02  0 
 4.198003e-02  -6.351109e-02  0 
 2.928112e-02  -7.024120e-02  0 
 3.380201e-02  -6.807905e-02  0 
 6.583697e-02  -9.616158e-02  0 
 5.546475e-02  -7.527514e-02  0 
 2.833322e-02  -8.248109e-02  0 
 4.726389e-02  -6.958801e-02  0 
 2.338696e-02  -6.954252e-02  0 
 5.451091e-02  -8.474704e-02  0 
 3.098451e-02  -6.324717e-02  0 
 4.418541e-02  -7.945942e-02  0 
 6.893072e-02  -7.077166e-02  0 
 4.180665e-02  -7.244320e-02  0 
 5.973670e-02  -8.396124e-02  0 
 3.408556e-02  -7.946754e-02  0 
 6.234300e-02  -8.415650e-02  0 
 2.573022e-02  -7.058592e-02  0 
 4.361137e-02  -8.771811e-02  0 
 5.256366e-02  -7.863840e-02  0 
 6.031307e-02  -6.688442e-02  0 
 6.542274e-02  -7.693303e-02  0 
 2.624938e-02  -7.383685e-02  0 
 6.208782e-02  -9.846989e-02  0 
 3.275451e-02  -8.370669e-02  0 
 3.611578e-02  -6.872173e-02  0 
 7.134674e-02  -7.524004e-02  0 
 5.693375e-02  -9.687750e-02  0 
 6.536554e-02  -6.678521e-02  0 
 4.656895e-02  -8.401098e-02  0 
 2.650794e-02  -6.615446e-02  0 
 6.341817e-02  -7.099996e-02  0 
 2.867179e-02  -5.508243e-02  0 
 5.820798e-02  -8.567953e-02  0 
 5.316847e-02  -8.964994e-02  0 
 6.321477e-02  -8.665111e-02  0 
 3.679798e-02  -6.397845e-02  0 
 4.704400e-02  -6.498763e-02  0 
 5.732538e-02  -9.114004e-02  0 
 5.564255e-02  -6.998771e-02  0 
 3.772278e-02  -7.922877e-02  0 
 3.833810e-02  -6.209479e-02  0 
 6.370776e-02  -9.205173e-02  0 
 5.052445e-02  -7.677799e-02  0 
 2.739894e-02  -6.104393e-02  0 
 6.763535e-02  -9.812761e-02  0 
 4.777149e-02  -7.971161e-02  0 
 3.582300e-02  -6.000685e-02  0 
 5.604029e-02  -6.730774e-02  0 
 3.117108e-02  -6.077693e-02  0 
 2.933788e-02  -5.990330e-02  0 
 4.797563e-02  -8.791046e-02  0 
 2.751907e-02  -5.736205e-02  0 
 4.215644e-02  -8.393526e-02  0 
 3.079575e-02  -6.694156e-02  0 
 3.269456e-02  -7.402729e-02  0 
 5.823188e-02  -7.680194e-02  0 
 3.869186e-02  -8.583412e-02  0 
 3.948540e-02  -7.195534e-02  0 
 3.207348e-02  -8.127242e-02  0 
 6.376832e-02  -9.651102e-02  0 
 4.055204e-02  -8.182524e-02  0 
 6.102466e-02  -8.868735e-02  0 
 6.949567e-02  -7.938605e-02  0 
 3.981733e-02  -6.851749e-02  0 
 5.143808e-02  -6.955760e-02  0 
 4.595523e-02  -8.664138e-02  0 
 5.895886e-02  -8.172999e-02  0 
 3.014942e-02  -8.078559e-02  0 
 4.058776e-02  -7.643988e-02  0 
 4.303112e-02  -6.699410e-02  0 
 3.113785e-02  -5.708653e-02  0 
 2.572794e-02  -5.133316e-02  0 
 5.114551e-02  -8.127817e-02  0 
 2.237443e-02  -7.287794e-02  0 
 6.683220e-02  -7.200415e-02  0 
 6.582856e-02  -9.090845e-02  0 
 3.248821e-02  -7.059035e-02  0 
 2.756665e-02  -6.954710e-02  0 
 5.560081e-02  -8.976596e-02  0 
 7.170863e-02  -6.591337e-02  0 
 6.156103e-02  -7.913498e-02  0 
 4.801859e-02  -9.009475e-02  0 
 7.427930e-02  -6.988614e-02  0 
 7.150675e-02  -7.102960e-02  0 
 4.006092e-02  -6.533217e-02  0 
 2.970383e-02  -7.229660e-02  0 
 6.368044e-02  -8.212732e-02  0 
 5.281709e-02  -7.373372e-02  0 
 3.593682e-02  -7.111011e-02  0 
 6.022754e-02  -9.371894e-02  0 
 2.461970e-02  -7.699921e-02  0 
 4.941384e-02  -7.165800e-02  0 
 3.188338e-02  -7.734710e-02  0 
 5.496086e-02  -8.233106e-02  0 
 3.282467e-02  -5.800139e-02  0 
 3.016913e-02  -7.835526e-02  0 
 6.767387e-02  -8.316330e-02  0 
 5.007277e-02  -8.612089e-02  0 
 4.422320e-02  -8.303009e-02  0 
 3.590865e-02  -8.015528e-02  0 
 4.043342e-02  -6.213817e-02  0 
 2.543186e-02  -6.409276e-02  0 
 4.728702e-02  -7.523084e-02  0 
 4.224964e-02  -7.995817e-02  0 
 3.828398e-02  -8.292548e-02  0 
 6.005317e-02  -7.301884e-02  0 
 5.573412e-02  -9.479340e-02  0 
 6.062893e-02  -7.499030e-02  0 
 5.427633e-02  -6.613904e-02  0 
 3.455198e-02  -6.136090e-02  0 
 2.926188e-02  -5.817614e-02  0 
 5.333043e-02  -7.109971e-02  0 
 6.352471e-02  -1.005228e-01  0 
 6.348418e-02  -7.531412e-02  0 
 2.436692e-02  -6.738067e-02  0 
 5.622652e-02  -8.597339e-02  0 
 3.387824e-02  -6.589140e-02  0 
 3.611945e-02  -8.248235e-02  0 
 3.030993e-02  -6.513100e-02  0 
 2.864717e-02  -6.333583e-02  0 
 3.804307e-02  -6.525936e-02  0 
 5.992093e-02  -9.949351e-02  0 
 3.353635e-02  -7.195952e-02  0 
 5.663870e-02  -7.336215e-02  0 
 4.516002e-02  -7.036620e-02  0 
 3.494188e-02  -8.409946e-02  0 
 3.498603e-02  -7.517676e-02  0 
 4.613770e-02  -7.891636e-02  0 
 3.262718e-02  -6.359181e-02  0 
 5.293006e-02  -8.314726e-02  0 
 4.186353e-02  -6.867368e-02  0 
 2.538209e-02  -7.244711e-02  0 
 2.553709e-02  -6.208123e-02  0 
 3.061036e-02  -7.382955e-02  0 
 5.135040e-02  -7.461354e-02  0 
 4.199532e-02  -6.539638e-02  0 
 5.416331e-02  -7.725148e-02  0 
 5.503721e-02  -7.984155e-02  0 
 6.941437e-02  -7.739159e-02  0 
 5.975597e-02  -6.925334e-02  0 
 5.029250e-02  -6.778426e-02  0 
 4.891529e-02  -8.428179e-02  0 
 3.389841e-02  -7.749889e-02  0 
 5.804324e-02  -6.639494e-02  0 
 4.764301e-02  -6.760698e-02  0 
 6.787736e-02  -7.357557e-02  0 
 2.612292e-02  -5.910486e-02  0 
 4.699814e-02  -9.187371e-02  0 
 6.801883e-02  -8.094928e-02  0 
 3.754480e-02  -6.063588e-02  0 
 4.278505e-02  -7.058312e-02  0 
 6.276023e-02  -1.023435e-01  0 
 6.443476e-02  -9.442053e-02  0 
 2.717476e-02  -6.443789e-02  0 
 2.705603e-02  -8.114554e-02  0 
 4.489930e-02  -6.344604e-02  0 
 3.630556e-02  -8.615705e-02  0 
 6.627955e-02  -1.002577e-01  0 
 6.296189e-02  -6.625241e-02  0 
 3.056003e-02  -5.578569e-02  0 
 6.175608e-02  -9.601235e-02  0 
 4.388805e-02  -7.355232e-02  0 
 3.889399e-02  -8.072921e-02  0 
 4.974698e-02  -6.468451e-02  0 
 4.421475e-02  -8.123030e-02  0 
 4.425708e-02  -7.551424e-02  0 
 3.090833e-02  -7.087297e-02  0 
 2.219168e-02  -7.163869e-02  0 
 4.528252e-02  -7.240438e-02  0 
 6.485556e-02  -7.223728e-02  0 
 6.811710e-02  -9.537198e-02  0 
 6.321725e-02  -7.755903e-02  0 
 5.269795e-02  -8.566957e-02  0 
 3.243312e-02  -6.700336e-02  0 
VECTORS displacement_ITER2 FLOAT
 2.453855e-02  -4.604679e-02  0 
 2.582606e-02  -4.737489e-02  0 
 2.718749e-02  -4.864565e-02  0 
 2.863786e-02  -4.986945e-02  0 
 3.020644e-02  -5.103888e-02  0 
 3.188153e-02  -5.219104e-02  0 
 3.363117e-02  -5.330190e-02  0 
 3.547093e-02  -5.434179e-02  0 
 3.738574e-02  -5.531077e-02  0 
 3.937931e-02  -5.619780e-02  0 
 4.143124e-02  -5.700783e-02  0 
 4.355962e-02  -5.771580e-02  0 
 4.574299e-02  -5.833575e-02  0 
 4.799365e-02  -5.884681e-02  0 
 5.029014e-02  -5.926066e-02  0 
 5.263706e-02  -5.955839e-02  0 
 5.503388e-02  -5.973879e-02  0 
 5.747253e-02  -5.980090e-02  0 
 5.995426e-02  -5.973562e-02  0 
 6.246913e-02  -5.954060e-02  0 
 6.503481e-02  -5.920986e-02  0 
 6.767376e-02  -5.870290e-02  0 
 7.052614e-02  -5.802180e-02  0 
 5.623975e-02  -8.426833e-02  0 
 3.250400e-02  -6.745688e-02  0 
 4.675737e-02  -7.323973e-02  0 
 2.630902e-02  -6.019327e-02  0 
 5.675958e-02  -7.123631e-02  0 
 2.627978e-02  -7.394395e-02  0 
 4.689489e-02  -8.244405e-02  0 
 4.110123e-02  -6.634820e-02  0 
 3.747848e-02  -7.322998e-02  0 
 3.338662e-02  -6.089966e-02  0 
 5.302972e-02  -7.728890e-02  0 
 2.543653e-02  -6.647573e-02  0 
 5.106379e-02  -6.701022e-02  0 
 6.489780e-02  -6.737935e-02  0 
 6.063572e-02  -7.790683e-02  0 
 6.019600e-02  -9.052021e-02  0 
 2.568688e-02  -5.424608e-02  0 
 4.125754e-02  -7.876568e-02  0 
 3.191853e-02  -7.581150e-02  0 
 3.825556e-02  -6.180423e-02  0 
 4.608951e-02  -6.403659e-02  0 
 3.045688e-02  -5.703537e-02  0 
 5.668385e-02  -6.556214e-02  0 
 6.249087e-02  -7.269408e-02  0 
 4.219318e-02  -7.133935e-02  0 
 5.230092e-02  -7.213282e-02  0 
 2.928117e-02  -6.357668e-02  0 
 3.693995e-02  -6.868109e-02  0 
 5.137861e-02  -8.499017e-02  0 
 6.167421e-02  -8.600884e-02  0 
 4.747202e-02  -7.734707e-02  0 
 2.842066e-02  -7.002894e-02  0 
 4.599986e-02  -6.860396e-02  0 
 3.360062e-02  -7.178961e-02  0 
 5.553199e-02  -8.894176e-02  0 
 3.557859e-02  -6.456554e-02  0 
 6.117819e-02  -6.438567e-02  0 
 4.250738e-02  -6.224844e-02  0 
 2.439276e-02  -7.028277e-02  0 
 2.434185e-02  -5.105972e-02  0 
 2.410068e-02  -6.302797e-02  0 
 5.705163e-02  -7.516127e-02  0 
 5.626826e-02  -7.972757e-02  0 
 3.746409e-02  -7.775262e-02  0 
 2.199645e-02  -6.622901e-02  0 
 3.144943e-02  -7.966807e-02  0 
 4.308354e-02  -7.512468e-02  0 
 3.651480e-02  -5.875451e-02  0 