# vtk DataFile Version 3.1
this is an vtk file created by FEMAC
ASCII
DATASET UNSTRUCTURED_GRID
POINTS 319 FLOAT
4.360345 0.533896 0.000000
4.396474 0.568266 0.000000
4.431734 0.603526 0.000000
4.466104 0.639655 0.000000
4.499562 0.676628 0.000000
4.532089 0.714425 0.000000
4.563663 0.753020 0.000000
4.594265 0.792391 0.000000
4.623876 0.832513 0.000000
4.652478 0.873360 0.000000
4.680052 0.914907 0.000000
4.706582 0.957130 0.000000
4.732051 1.000000 0.000000
4.756443 1.043492 0.000000
4.779744 1.087579 0.000000
4.801938 1.132233 0.000000
4.823012 1.177426 0.000000
4.842952 1.223130 0.000000
4.861747 1.269318 0.000000
4.879385 1.315960 0.000000
4.895855 1.363027 0.000000
4.911146 1.410490 0.000000
4.925248 1.458319 0.000000
4.938155 1.506485 0.000000
4.949856 1.554958 0.000000
4.960345 1.603708 0.000000
4.969616 1.652704 0.000000
4.977662 1.701915 0.000000
4.984478 1.751313 0.000000
4.990062 1.800864 0.000000
4.994408 1.850540 0.000000
4.997514 1.900308 0.000000
4.999378 1.950139 0.000000
5.000000 2.000000 0.000000
4.999378 2.049861 0.000000
4.997514 2.099692 0.000000
4.994408 2.149460 0.000000
4.426419 1.399291 0.000000
4.439642 1.097343 0.000000
4.637445 1.591855 0.000000
4.746242 1.823394 0.000000
4.605426 1.251111 0.000000
4.718721 1.419567 0.000000
4.453208 0.924786 0.000000
4.792345 1.676317 0.000000
4.823399 1.967731 0.000000
4.310626 0.998954 0.000000
4.602362 1.091705 0.000000
4.565585 1.462106 0.000000
4.603644 1.745481 0.000000
4.456029 1.251731 0.000000
4.800996 1.525261 0.000000
4.426445 0.792923 0.000000
4.735133 1.292462 0.000000
4.861465 1.780072 0.000000
4.569206 0.979447 0.000000
4.692750 1.178688 0.000000
4.542390 1.354273 0.000000
4.545799 1.578709 0.000000
4.373186 1.179315 0.000000
4.529820 1.171183 0.000000
4.726441 1.966792 0.000000
4.700096 1.689925 0.000000
4.901931 1.888784 0.000000
4.507846 1.749241 0.000000
4.467260 1.492010 0.000000
4.622823 1.352462 0.000000
4.406871 1.005747 0.000000
4.366007 0.921976 0.000000
4.813509 1.429856 0.000000
4.655393 1.498203 0.000000
4.345834 1.089828 0.000000
4.503698 0.833920 0.000000
4.861667 1.602429 0.000000
4.552253 1.670532 0.000000
4.523128 1.056309 0.000000
4.738071 1.600699 0.000000
4.888676 1.698209 0.000000
4.394222 1.317486 0.000000
4.647653 1.023469 0.000000
4.803083 1.893466 0.000000
4.803438 1.352236 0.000000
4.914474 1.976066 0.000000
4.782942 1.750753 0.000000
4.685076 1.094247 0.000000
4.572184 0.894513 0.000000
4.668800 1.863887 0.000000
4.456915 1.570120 0.000000
4.613764 1.179489 0.000000
4.337134 1.251292 0.000000
4.684278 1.769619 0.000000
4.528422 1.263624 0.000000
4.493318 1.418855 0.000000
4.432796 0.712972 0.000000
4.750707 1.217998 0.000000
4.733754 1.491168 0.000000
4.485909 0.992613 0.000000
4.446211 1.173253 0.000000
4.629463 1.665968 0.000000
4.415238 0.863958 0.000000
4.856680 1.483439 0.000000
4.631285 1.431342 0.000000
4.728496 1.895903 0.000000
4.466074 1.322170 0.000000
4.594615 1.529311 0.000000
4.676998 1.247513 0.000000
4.927819 1.820181 0.000000
4.494096 0.776220 0.000000
4.699834 1.350404 0.000000
4.295655 1.136133 0.000000
4.698778 1.549818 0.000000
4.803492 1.822097 0.000000
4.796150 1.271650 0.000000
4.919607 1.751300 0.000000
4.566650 1.394424 0.000000
4.632224 0.963150 0.000000
4.401810 1.482800 0.000000
4.392556 1.243900 0.000000
4.596026 1.611197 0.000000
4.538879 0.927821 0.000000
4.749127 1.133559 0.000000
4.374529 0.642154 0.000000
4.515464 1.513715 0.000000
4.576999 1.038070 0.000000
4.560791 1.220497 0.000000
4.579049 1.324679 0.000000
4.801656 1.603438 0.000000
4.892246 1.544209 0.000000
4.938061 2.031721 0.000000
4.666196 1.302392 0.000000
4.942634 1.927603 0.000000
4.911347 1.639422 0.000000
4.505836 1.115041 0.000000
4.633934 1.801216 0.000000
4.788992 1.931976 0.000000
4.835327 1.726915 0.000000
4.508511 1.636361 0.000000
4.451509 1.034061 0.000000
4.359017 1.032589 0.000000
4.362247 0.974869 0.000000
4.393709 1.130940 0.000000
4.649513 1.136268 0.000000
4.767783 1.394280 0.000000
4.695374 1.632841 0.000000
4.247167 1.147599 0.000000
4.506221 1.691256 0.000000
4.749048 1.695612 0.000000
4.694031 1.929483 0.000000
4.503013 1.225292 0.000000
4.406243 0.951931 0.000000
4.553199 1.720401 0.000000
4.842883 1.382976 0.000000
4.877151 1.933824 0.000000
4.565528 0.839922 0.000000
4.853667 1.824207 0.000000
4.561410 1.127615 0.000000
4.863843 1.652163 0.000000
4.408024 1.052077 0.000000
4.322436 1.200897 0.000000
4.786936 1.477332 0.000000
4.698229 1.045054 0.000000
4.658030 1.726957 0.000000
4.469951 1.377008 0.000000
4.946031 1.865791 0.000000
4.501706 0.893193 0.000000
4.749286 1.543698 0.000000
4.955474 2.086989 0.000000
4.391226 0.746340 0.000000
4.457884 0.833718 0.000000
4.422516 0.654772 0.000000
4.866384 1.435972 0.000000
4.669394 1.390081 0.000000
4.425659 1.525545 0.000000
4.736839 1.774500 0.000000
4.627709 0.914839 0.000000
4.450557 1.443015 0.000000
4.770406 1.645701 0.000000
4.347353 1.298074 0.000000
4.673852 1.452702 0.000000
4.646783 1.545004 0.000000
4.747877 1.339616 0.000000
4.593357 1.785323 0.000000
4.499611 1.553125 0.000000
4.541087 0.791282 0.000000
4.527712 1.011765 0.000000
4.646246 1.073073 0.000000
4.828217 1.302392 0.000000
4.915092 1.588945 0.000000
4.612891 1.478083 0.000000
4.343913 1.142925 0.000000
4.687759 1.818715 0.000000
4.484596 0.724408 0.000000
4.775303 1.176894 0.000000
4.516699 1.465715 0.000000
4.833332 1.560972 0.000000
4.431278 1.346734 0.000000
4.641662 1.223472 0.000000
4.889937 2.014712 0.000000
4.607154 1.695627 0.000000
4.934173 1.683762 0.000000
4.756011 1.443390 0.000000
4.390288 1.424091 0.000000
4.713079 1.731997 0.000000
4.831424 1.921329 0.000000
4.681134 0.989905 0.000000
4.768894 1.864115 0.000000
4.718926 1.253218 0.000000
4.429933 1.292234 0.000000
4.729568 1.088161 0.000000
4.553947 1.085748 0.000000
4.577488 1.175866 0.000000
4.877874 1.740571 0.000000
4.414610 1.206485 0.000000
4.958909 1.977106 0.000000
4.601197 1.569087 0.000000
4.487421 1.283190 0.000000
4.817673 1.776517 0.000000
4.947038 1.789463 0.000000
4.610835 1.002557 0.000000
4.853686 1.879143 0.000000
4.361865 0.594932 0.000000
4.449994 0.755856 0.000000
4.542977 1.427954 0.000000
4.588040 0.935954 0.000000
4.463555 1.138444 0.000000
4.413737 0.902387 0.000000
4.797509 1.226932 0.000000
4.606406 0.870914 0.000000
4.459719 0.875519 0.000000
4.777437 1.789452 0.000000
4.444285 0.978287 0.000000
4.711145 1.857338 0.000000
4.586019 1.363420 0.000000
4.484248 1.072094 0.000000
4.869183 1.982631 0.000000
4.706600 1.135980 0.000000
4.678648 1.592622 0.000000
4.784668 1.566814 0.000000
4.461115 0.681687 0.000000
4.778408 1.307010 0.000000
4.519372 1.311906 0.000000
4.896996 1.491173 0.000000
4.600161 1.140717 0.000000
4.962853 2.124595 0.000000
4.732343 1.182772 0.000000
4.361734 1.219401 0.000000
4.727192 1.378991 0.000000
4.555591 1.763052 0.000000
4.569463 1.279110 0.000000
4.411540 1.164738 0.000000
4.652281 1.184735 0.000000
4.697156 1.509096 0.000000
4.286757 1.090557 0.000000
4.960350 1.828492 0.000000
4.794007 1.711580 0.000000
4.518209 1.386553 0.000000
4.691952 1.280207 0.000000
4.376677 0.878380 0.000000
4.645355 1.762683 0.000000
4.611146 1.394477 0.000000
4.461344 1.207454 0.000000
4.550118 1.623132 0.000000
4.621762 1.303036 0.000000
4.645477 1.634080 0.000000
4.640120 1.839381 0.000000
4.494501 1.033368 0.000000
4.490203 0.948535 0.000000
4.849869 1.342408 0.000000
4.397355 0.695524 0.000000
4.556408 1.538823 0.000000
4.823562 1.494337 0.000000
4.596748 1.650089 0.000000
4.715496 1.460025 0.000000
4.538072 0.873734 0.000000
4.758677 1.260647 0.000000
4.590704 1.435133 0.000000
4.940919 1.717300 0.000000
4.897862 1.792918 0.000000
4.472982 1.530903 0.000000
4.648101 1.268704 0.000000
4.485505 1.174272 0.000000
4.525272 0.752214 0.000000
4.742135 1.931848 0.000000
4.806619 1.390584 0.000000
4.766615 1.510836 0.000000
4.697418 1.214947 0.000000
4.380240 1.280597 0.000000
4.463716 0.796201 0.000000
4.562392 1.499287 0.000000
4.769893 1.971289 0.000000
4.659780 1.683443 0.000000
4.766857 1.903578 0.000000
4.879067 1.398116 0.000000
4.599291 1.213651 0.000000
4.383082 1.090643 0.000000
4.503199 1.350382 0.000000
4.505519 1.592229 0.000000
4.665540 0.947986 0.000000
4.730599 1.652955 0.000000
4.663952 1.342010 0.000000
4.692136 1.890334 0.000000
4.619049 1.047052 0.000000
4.896833 1.845171 0.000000
4.834884 1.683248 0.000000
4.293491 1.172716 0.000000
4.397954 1.373504 0.000000
4.831541 1.461979 0.000000
4.816564 1.856605 0.000000
4.854565 1.520789 0.000000
4.522382 0.972036 0.000000
4.327219 1.054490 0.000000
4.827621 1.256667 0.000000
4.820800 1.643883 0.000000
4.397424 0.612730 0.000000
4.430661 1.138873 0.000000
4.750180 1.735368 0.000000
4.626796 1.512282 0.000000
4.460061 1.409542 0.000000
4.709028 1.316172 0.000000
CELLS 556 2224 
3 111 216 154
3 154 216  54
3 273 119 164
3 85 119 273
3 271 263  98
3 65 175 193
3 118 263 271
3 33  34 128
3 75 209 132
3 72 107 183
3 39 263 118
3 280 224 132
3 63 130 152
3 82 152 130
3 31  32 130
3 92 193 175
3 125 240 248
3 60 280 132
3 52 167 221
3 74 145 136
3 72 287 107
3 40 111 205
3 76 126 176
3 109 144 252
3 58 214 118
3 101 178 188
3 70 188 178
3 57 240 125
3 289 134  45
3 132 209 155
3 64 145 150
3 74 150 145
3 71 109 252
3 22 241 170
3 33 128 213
3 71 189 109
3 14  15 120
3 126 312 176
3 68 149 139
3 46 139 138
3 67 138 139
3 79 115 204
3 31 130 163
3 23  24 127
3 32 213 130
3 50 117 212
3 133 190 264
3 161 198 290
3 91 148 124
3 43 225 228
3 60 124 148
3 44 176 312
3 34 166 128
3 73 126 194
3 110 236 179
3 54 216 135
3 65 116 175
3 39 179 236
3 75 184 123
3 55 123 184
3 50 207 117
3 76 110 165
3 90 190 133
3 99 228 225
3 95 165 251
3 58 269 214
3 67 230 137
3 96 137 230
3 258 181  49
3 133 181 258
3 65 122 278
3 25  26 131
3 47 185 141
3 84 141 185
3 77 276 113
3 10 297 174
3 54 135 211
3 73 131 156
3 77 156 131
3 86 264 190
3 98 290 198
3 16 226 192
3 110 251 165
3 65 172 116
3 2 169 313
3 110 179 251
3 67 139 149
3 57 232 114
3 24 187 127
3 76 236 110
3 63 152 219
3 140 189 294
3 55 119 223
3 85 223 119
3 91 124 248
3 41 248 124
3 49 198 161
3 40 229 111
3 100 170 241
3 70 251 179
3 235  84 208
3 60 132 155
3 21  22 170
3 89 117 286
3 55 223 115
3 43 164 266
3 119 266 164
3 120 235 208
3 65 193 122
3 294 189  71
3 93 221 167
3 67 137 157
3 82 213 128
3 108 246 171
3 66 125 262
3 89 245 117
3 76 298 143
3 115 174 297
3 152 203 219
3 67 157 138
3 30  31 163
3 82 130 213
3 57 125 232
3 121 169 268
3 76 176 298
3 111 307 205
3 77 113 211
3 276  28 113
3 81 142 180
3 28 217 113
3 154 277 302
3 91 215 148
3 50 148 215
3 121 313 169
3 116 201 175
3 55 115 218
3 79 218 115
3 38 157 137
3 62 290 143
3 57 114 255
3 63 163 130
3 42 171 246
3 122 182 278
3 91 248 240
3 2   3 169
3 34  35 166
3 50 212 260
3 73 127 187
3 69 151 170
3 66 262 299
3 196 250 285
3 71 138 294
3 9  10 174
3 58 118 261
3 126 237 194
3 43 230 149
3 14 120 208
3 83 135 216
3 39 118 214
3 15 192 120
3 80 203 134
3 45 134 203
3 79 160 185
3 84 185 160
3 143 290 263
3 129 299 262
3 54 277 154
3 55 309 119
3 94 192 226
3 73 312 126
3 60 210 124
3 115 297 204
3 7   8 153
3 71 252 310
3 69 200 142
3 105 196 285
3 55 218 123
3 82 128 197
3 76 237 126
3 138 157 294
3 122 193 288
3 178 272 251
3 26 199 131
3 41 124 293
3 47 123 301
3 48 288 193
3 47 209 123
3 46 138 310
3 58 182 269
3 122 269 182
3 75 123 209
3 90 173 190
3 40 190 173
3 12  13 160
3 77 131 199
3 73 187 131
3 25 131 187
3 66 232 125
3 73 194 127
3 43 149 225
3 59 158 189
3 37 175 201
3 38 140 294
3 68 225 149
3 70 178 251
3 106 302 277
3 117 207 286
3 49 247 150
3 136 296 261
3 43 266 230
3 71 310 138
3 103 195 207
3 78 207 195
3 69 159 200
3 13 208 160
3 296  58 261
3 77 199 276
3 0   1 220
3 109 304 144
3 72 168 287
3 23 127 241
3 44 146 176
3 7 153 183
3 90 161 202
3 62 202 161
3 72 164 228
3 158 304 189
3 72 228 168
3 89 286 177
3 38 233 132
3 120 244 235
3 61 147 282
3 102 282 147
3 37 201 305
3 59 189 140
3 38 294 157
3 95 200 159
3 90 133 258
3 56 250 141
3 56 141 235
3 73 156 312
3 77 135 303
3 74 198 150
3 62 146 202
3 56 235 244
3 77 211 135
3 75 132 233
3 38 132 224
3 95 284 165
3 49 181 247
3 80 134 291
3 101 171 178
3 42 178 171
3 104 214 269
3 83 254 135
3 38 137 233
3 8 227 153
3 72 183 153
3 84 160 208
3 87 182 296
3 94 285 244
3 74 136 261
3 42 142 200
3 96 265 137
3 92 162 255
3 94 206 285
3 115 223 174
3 162 295 255
3 6   7 183
3 80 205 307
3 38 314 140
3 151 292 170
3 88 242 141
3 47 141 242
3 76 143 236
3 142 246 180
3 62 143 298
3 108 171 299
3 49 150 198
3 88 141 250
3 84 235 141
3 109 189 304
3 64 150 247
3 62 298 146
3 69 142 283
3 124 210 293
3 16  17 226
3 59 140 249
3 76 165 237
3 45 203 152
3 81 267 151
3 81 283 142
3 154 302 219
3 302  63 219
3 103 162 195
3 20 151 267
3 85 153 227
3 42 246 142
3 263  39 236
3 143 263 236
3 37 195 162
3 117 245 212
3 59 212 245
3 78 195 305
3 4   5 191
3 15  16 192
3 101 259 171
3 66 171 259
3 77 303 156
3 47 155 209
3 44 254 146
3 67 149 230
3 88 293 210
3 18  19 186
3 60 148 280
3 24  25 187
3 81 151 283
3 102 147 300
3 51 194 237
3 66 299 171
3 82 234 152
3 99 168 228
3 51 308 194
3 106 163 302
3 40 205 231
3 50 260 148
3 60 155 210
3 104 288 188
3 12 160 204
3 103 207 215
3 50 215 207
3 69 283 151
3 47 242 155
3 45 152 234
3 107 281 183
3 51 270 308
3 79 204 160
3 20 292 151
3 55 184 309
3 39 214 179
3 95 272 200
3 56 285 250
3 102 231 205
3 5 281 191
3 112 186 239
3 127 308 241
3 72 153 273
3 47 301 185
3 63 302 163
3 146 298 176
3 81 239 186
3 90 202 173
3 69 306 159
3 85 273 153
3 26  27 199
3 95 251 272
3 111 154 307
3 9 174 227
3 107 191 281
3 129 318 299
3 89 158 245
3 59 245 158
3 106 253 163
3 104 188 316
3 53 274 239
3 97 260 212
3 11  12 204
3 53 239 180
3 81 186 267
3 19  20 267
3 8   9 227
3 74 271 198
3 40 173 229
3 28  29 217
3 112 311 186
3 48 188 288
3 57 255 295
3 27  28 276
3 13  14 208
3 43 228 164
3 104 179 214
3 95 159 284
3 51 284 159
3 120 192 244
3 18 186 311
3 51 159 270
3 94 226 274
3 123 218 301
3 90 258 161
3 100 241 308
3 32  33 213
3 85 174 223
3 72 273 164
3 3 238 169
3 49 161 258
3 30 163 253
3 103 215 240
3 85 227 174
3 37 162 317
3 51 237 165
3 93 191 221
3 107 221 191
3 83 229 173
3 78 286 207
3 93 167 268
3 54 211 277
3 113 277 211
3 62 161 290
3 65 278 172
3 35 243 166
3 112 274 226
3 93 169 238
3 92 317 162
3 108 180 246
3 103 295 162
3 48 275 188
3 101 188 275
3 112 239 274
3 40 231 190
3 6 183 281
3 87 172 278
3 93 238 191
3 4 191 238
3 146 315 202
3 80 219 203
3 48 222 275
3 48 193 222
3 125 248 262
3 41 262 248
3 41 196 279
3 105 279 196
3 114 275 222
3 3   4 238
3 51 165 284
3 92 222 193
3 93 268 169
3 52 287 168
3 69 170 306
3 100 306 170
3 81 180 239
3 44 303 254
3 75 265 184
3 96 184 265
3 86 190 231
3 108 318 180
3 53 180 318
3 11 204 297
3 87 278 182
3 103 240 295
3 108 299 318
3 98 198 271
3 21 170 292
3 105 206 256
3 53 256 206
3 106 277 217
3 113 217 277
3 82 197 234
3 98 263 290
3 155 242 210
3 22  23 241
3 35  36 243
3 83 173 315
3 92 175 317
3 41 293 196
3 114 222 255
3 79 301 218
3 37 317 175
3 135 254 303
3 129 256 318
3 29  30 253
3 42 272 178
3 96 230 266
3 94 244 192
3 78 177 286
3 129 279 256
3 105 256 279
3 97 224 280
3 20  21 292
3 83 216 229
3 111 229 216
3 104 316 179
3 70 179 316
3 88 250 196
3 106 217 253
3 29 253 217
3 42 200 272
3 19 267 186
3 5   6 281
3 146 254 315
3 83 315 254
3 58 296 182
3 10  11 297
3 159 306 270
3 1   2 313
3 17  18 311
3 79 185 301
3 96 309 184
3 74 261 271
3 118 271 261
3 80 291 205
3 97 314 224
3 88 210 242
3 70 316 188
3 94 274 206
3 137 265 233
3 75 233 265
3 56 244 285
3 91 240 215
3 59 249 212
3 88 196 293
3 97 212 249
3 127 194 308
3 27 276 199
3 37 305 195
3 148 260 280
3 97 249 314
3 114 259 275
3 101 275 259
3 61 282 289
3 134 289 282
3 173 202 315
3 68 257 225
3 99 225 257
3 52 221 287
3 107 287 221
3 53 206 274
3 44 312 303
3 156 303 312
3 92 255 222
3 154 219 307
3 114 232 259
3 66 259 232
3 102 205 291
3 105 285 206
3 100 308 270
3 122 288 269
3 57 295 240
3 86 231 300
3 112 226 311
3 17 311 226
3 41 279 262
3 129 262 279
3 1 313 220
3 80 307 219
3 121 220 313
3 102 300 231
3 97 280 260
3 140 314 249
3 38 224 314
3 96 266 309
3 119 309 266
3 104 269 288
3 102 291 282
3 134 282 291
3 100 270 306
3 53 318 256
CELL_TYPES 556
5 5 5 5 5 5 5 5 5 5 5 5 5 5 5 5 5 5 5 5 5 5 5 5 5 5 5 5 5 5 5 5 5 5 5 5 5 5 5 5 5 5 5 5 5 5 5 5 5 5 5 5 5 5 5 5 5 5 5 5 5 5 5 5 5 5 5 5 5 5 5 5 5 5 5 5 5 5 5 5 5 5 5 5 5 5 5 5 5 5 5 5 5 5 5 5 5 5 5 5 5 5 5 5 5 5 5 5 5 5 5 5 5 5 5 5 5 5 5 5 5 5 5 5 5 5 5 5 5 5 5 5 5 5 5 5 5 5 5 5 5 5 5 5 5 5 5 5 5 5 5 5 5 5 5 5 5 5 5 5 5 5 5 5 5 5 5 5 5 5 5 5 5 5 5 5 5 5 5 5 5 5 5 5 5 5 5 5 5 5 5 5 5 5 5 5 5 5 5 5 5 5 5 5 5 5 5 5 5 5 5 5 5 5 5 5 5 5 5 5 5 5 5 5 5 5 5 5 5 5 5 5 5 5 5 5 5 5 5 5 5 5 5 5 5 5 5 5 5 5 5 5 5 5 5 5 5 5 5 5 5 5 5 5 5 5 5 5 5 5 5 5 5 5 5 5 5 5 5 5 5 5 5 5 5 5 5 5 5 5 5 5 5 5 5 5 5 5 5 5 5 5 5 5 5 5 5 5 5 5 5 5 5 5 5 5 5 5 5 5 5 5 5 5 5 5 5 5 5 5 5 5 5 5 5 5 5 5 5 5 5 5 5 5 5 5 5 5 5 5 5 5 5 5 5 5 5 5 5 5 5 5 5 5 5 5 5 5 5 5 5 5 5 5 5 5 5 5 5 5 5 5 5 5 5 5 5 5 5 5 5 5 5 5 5 5 5 5 5 5 5 5 5 5 5 5 5 5 5 5 5 5 5 5 5 5 5 5 5 5 5 5 5 5 5 5 5 5 5 5 5 5 5 5 5 5 5 5 5 5 5 5 5 5 5 5 5 5 5 5 5 5 5 5 5 5 5 5 5 5 5 5 5 5 5 5 5 5 5 5 5 5 5 5 5 5 5 5 5 5 5 5 5 5 5 5 5 5 5 5 5 5 5 5 5 5 5 5 5 5 5 5 5 5 5 5 5 5 5 5 5 5 5 5 5 5 5 5 5 5 5 5 5 5 5 5 5 5 5 5 5 5 5 5 5 5 5 5 5 5 5 5 5 5 5 5 5 5 5 5 5 5 5 5 5 5 
POINT_DATA 319
VECTORS displacement_ITER1 FLOAT
 -1.189131e-03  -8.360928e-02  0 
 1.738171e-04  -8.526659e-02  0 
 1.651733e-03  -8.697054e-02  0 
 3.227823e-03  -8.865675e-02  0 
 4.865559e-03  -9.030889e-02  0 
 6.551969e-03  -9.191501e-02  0 
 8.269436e-03  -9.346567e-02  0 
 1.001203e-02  -9.497310e-02  0 
 1.179414e-02  -9.645095e-02  0 
 1.362397e-02  -9.790073e-02  0 
 1.550501e-02  -9.931829e-02  0 
 1.743425e-02  -1.006988e-01  0 
 1.941219e-02  -1.020380e-01  0 
 2.143383e-02  -1.033321e-01  0 
 2.349679e-02  -1.045800e-01  0 
 2.559908e-02  -1.057800e-01  0 
 2.773881e-02  -1.069325e-01  0 
 2.991455e-02  -1.080361e-01  0 
 3.212452e-02  -1.090922e-01  0 
 3.436894e-02  -1.100992e-01  0 
 3.664544e-02  -1.110573e-01  0 
 3.895377e-02  -1.119667e-01  0 
 4.129380e-02  -1.128262e-01  0 
 4.366285e-02  -1.136373e-01  0 
 4.606372e-02  -1.143980e-01  0 
 4.849115e-02  -1.151084e-01  0 
 5.094797e-02  -1.157685e-01  0 
 5.343107e-02  -1.163802e-01  0 
 5.593970e-02  -1.169450e-01  0 
 5.848353e-02  -1.174670e-01  0 
 6.106549e-02  -1.179551e-01  0 
 6.369048e-02  -1.183991e-01  0 
 6.637307e-02  -1.188042e-01  0 
 6.911307e-02  -1.191748e-01  0 
 7.192715e-02  -1.194866e-01  0 
 7.470930e-02  -1.197447e-01  0 
 7.758604e-02  -1.199698e-01  0 
 3.820247e-02  -8.791609e-02  0 
 2.384493e-02  -8.820911e-02  0 
 4.766280e-02  -9.867167e-02  0 
 5.940969e-02  -1.047548e-01  0 
 3.115505e-02  -9.646807e-02  0 
 3.927838e-02  -1.023994e-01  0 
 1.595757e-02  -8.860421e-02  0 
 5.196465e-02  -1.067656e-01  0 
 6.701658e-02  -1.091850e-01  0 
 1.926856e-02  -8.202298e-02  0 
 2.364794e-02  -9.599768e-02  0 
 4.127787e-02  -9.485683e-02  0 
 5.531852e-02  -9.716683e-02  0 
 3.115155e-02  -8.919006e-02  0 
 4.447940e-02  -1.067865e-01  0 
 1.022255e-02  -8.699279e-02  0 
 3.317417e-02  -1.029136e-01  0 
 5.727230e-02  -1.106631e-01  0 
 1.845892e-02  -9.416808e-02  0 
 2.775774e-02  -1.005703e-01  0 
 3.606796e-02  -9.355041e-02  0 
 4.697078e-02  -9.402852e-02  0 
 2.769414e-02  -8.508961e-02  0 
 2.734607e-02  -9.265535e-02  0 
 6.675160e-02  -1.040774e-01  0 
 5.257840e-02  -1.020522e-01  0 
 6.293257e-02  -1.131984e-01  0 
 5.542737e-02  -9.229946e-02  0 
 4.269858e-02  -9.001392e-02  0 
 3.600304e-02  -9.750878e-02  0 
 1.959631e-02  -8.654175e-02  0 
 1.583047e-02  -8.457528e-02  0 
 3.983107e-02  -1.071517e-01  0 
 4.307151e-02  -9.940235e-02  0 
 2.344846e-02  -8.370835e-02  0 
 1.194569e-02  -9.076955e-02  0 
 4.833500e-02  -1.100885e-01  0 
 5.152756e-02  -9.446882e-02  0 
 2.197527e-02  -9.213116e-02  0 
 4.815426e-02  -1.037937e-01  0 
 5.314660e-02  -1.117920e-01  0 
 3.430394e-02  -8.623348e-02  0 
 2.049445e-02  -9.802186e-02  0 
 6.306895e-02  -1.079122e-01  0 
 3.607284e-02  -1.064397e-01  0 
 6.763013e-02  -1.142700e-01  0 
 5.571520e-02  -1.064859e-01  0 
 2.379162e-02  -9.999714e-02  0 
 1.461209e-02  -9.412519e-02  0 
 6.142916e-02  -1.007809e-01  0 
 4.650338e-02  -8.956700e-02  0 
 2.776720e-02  -9.673351e-02  0 
 3.112217e-02  -8.337849e-02  0 
 5.660247e-02  -1.013973e-01  0 
 3.173002e-02  -9.273363e-02  0 
 3.916338e-02  -9.121989e-02  0 
 6.561337e-03  -8.719610e-02  0 
 2.963694e-02  -1.034955e-01  0 
 4.276849e-02  -1.033174e-01  0 
 1.903309e-02  -9.024931e-02  0 
 2.741921e-02  -8.861892e-02  0 
 5.133630e-02  -9.838651e-02  0 
 1.325105e-02  -8.678456e-02  0 
 4.247185e-02  -1.094679e-01  0 
 3.980984e-02  -9.807318e-02  0 
 6.312899e-02  -1.039995e-01  0 
 3.452141e-02  -8.976373e-02  0 
 4.456510e-02  -9.641032e-02  0 
 3.100914e-02  -9.995751e-02  0 
 5.939371e-02  -1.142917e-01  0 
 9.374559e-03  -9.021849e-02  0 
 3.593441e-02  -1.013068e-01  0 
 2.561690e-02  -8.127789e-02  0 
 4.562225e-02  -1.016890e-01  0 
 5.937900e-02  -1.077524e-01  0 
 3.220757e-02  -1.058652e-01  0 
 5.586338e-02  -1.135865e-01  0 
 3.800529e-02  -9.480651e-02  0 
 1.771965e-02  -9.713895e-02  0 
 4.223155e-02  -8.677032e-02  0 
 3.077289e-02  -8.608202e-02  0 
 4.859997e-02  -9.660735e-02  0 
 1.611299e-02  -9.261969e-02  0 
 2.565000e-02  -1.032057e-01  0 
 3.434625e-03  -8.434193e-02  0 
 4.377055e-02  -9.243019e-02  0 
 2.115172e-02  -9.466669e-02  0 
 2.968797e-02  -9.423935e-02  0 
 3.465764e-02  -9.530576e-02  0 
 4.833730e-02  -1.070372e-01  0 
 4.548164e-02  -1.114499e-01  0 
 7.076278e-02  -1.158845e-01  0 
 3.362093e-02  -9.954583e-02  0 
 6.505408e-02  -1.155829e-01  0 
 5.022271e-02  -1.127452e-01  0 
 2.469963e-02  -9.140669e-02  0 
 5.820101e-02  -9.880603e-02  0 
 6.506343e-02  -1.072526e-01  0 
 5.454704e-02  -1.091332e-01  0 
 4.980606e-02  -9.222999e-02  0 
 2.091520e-02  -8.868784e-02  0 
 2.080455e-02  -8.430282e-02  0 
 1.818126e-02  -8.443039e-02  0 
 2.540623e-02  -8.604179e-02  0 
 2.574666e-02  -9.837247e-02  0 
 3.808063e-02  -1.047791e-01  0 
 4.972290e-02  -1.016919e-01  0 
 2.613961e-02  -7.884343e-02  0 
 5.253056e-02  -9.218154e-02  0 
 5.289960e-02  -1.045876e-01  0 
 6.477211e-02  -1.023270e-01  0 
 2.990008e-02  -9.144140e-02  0 
 1.716419e-02  -8.645642e-02  0 
 5.401830e-02  -9.456171e-02  0 
 3.757759e-02  -1.084833e-01  0 
 6.528313e-02  -1.120326e-01  0 
 1.216338e-02  -9.370281e-02  0 
 5.952356e-02  -1.103962e-01  0 
 2.531044e-02  -9.410072e-02  0 
 5.081584e-02  -1.103605e-01  0 
 2.172768e-02  -8.664576e-02  0 
 2.873002e-02  -8.262939e-02  0 
 4.212468e-02  -1.059504e-01  0 
 2.150226e-02  -1.005128e-01  0 
 5.441471e-02  -9.995245e-02  0 
 3.714858e-02  -9.001741e-02  0 
 6.178695e-02  -1.154610e-01  0 
 1.456037e-02  -9.080296e-02  0 
 4.535074e-02  -1.042253e-01  0 
 7.390828e-02  -1.173020e-01  0 
 8.127075e-03  -8.524438e-02  0 
 1.196584e-02  -8.863580e-02  0 
 3.947696e-03  -8.661994e-02  0 
 4.016190e-02  -1.098096e-01  0 
 3.783041e-02  -9.988447e-02  0 
 4.432846e-02  -8.797701e-02  0 
 5.689039e-02  -1.041474e-01  0 
 1.551666e-02  -9.681222e-02  0 
 4.031455e-02  -8.914132e-02  0 
 5.041487e-02  -1.055573e-01  0 
 3.339845e-02  -8.387580e-02  0 
 4.086363e-02  -1.002347e-01  0 
 4.535766e-02  -9.905855e-02  0 
 3.543815e-02  -1.036565e-01  0 
 5.734936e-02  -9.667456e-02  0 
 4.569298e-02  -9.168061e-02  0 
 1.000456e-02  -9.246400e-02  0 
 1.992483e-02  -9.226431e-02  0 
 2.279462e-02  -9.807056e-02  0 
 3.369224e-02  -1.075300e-01  0 
 4.771551e-02  -1.127580e-01  0 
 4.207127e-02  -9.724015e-02  0 
 2.596014e-02  -8.364631e-02  0 
 5.912580e-02  -1.016785e-01  0 
 7.039804e-03  -8.967800e-02  0 
 2.769940e-02  -1.045942e-01  0 
 4.143533e-02  -9.243372e-02  0 
 4.626028e-02  -1.085223e-01  0 
 3.569818e-02  -8.808746e-02  0 
 2.985600e-02  -9.818068e-02  0 
 6.973277e-02  -1.130664e-01  0 
 5.280665e-02  -9.728676e-02  0 
 5.246815e-02  -1.140767e-01  0 
 4.045416e-02  -1.043161e-01  0 
 3.938385e-02  -8.617309e-02  0 
 5.471016e-02  -1.028141e-01  0 
 6.455962e-02  -1.095031e-01  0 
 1.894803e-02  -9.955205e-02  0 
 6.152242e-02  -1.060379e-01  0 
 3.129673e-02  -1.020241e-01  0 
 3.308749e-02  -8.796065e-02  0 
 2.351680e-02  -1.021396e-01  0 
 2.335372e-02  -9.366128e-02  0 
 2.758394e-02  -9.496862e-02  0 
 5.527891e-02  -1.113829e-01  0 
 2.898891e-02  -8.712331e-02  0 
 6.776869e-02  -1.167441e-01  0 
 4.652200e-02  -9.680416e-02  0 
 3.265707e-02  -9.076047e-02  0 
 5.705363e-02  -1.083664e-01  0 
 5.783958e-02  -1.151690e-01  0 
 1.952557e-02  -9.620755e-02  0 
 6.236738e-02  -1.105718e-01  0 
 1.348289e-03  -8.374320e-02  0 
 8.493480e-03  -8.808347e-02  0 
 3.961632e-02  -9.368513e-02  0 
 1.648203e-02  -9.496948e-02  0 
 2.578269e-02  -8.941055e-02  0 
 1.495358e-02  -8.675620e-02  0 
 3.007814e-02  -1.058136e-01  0 
 1.353447e-02  -9.570181e-02  0 
 1.377619e-02  -8.881743e-02  0 
 5.768614e-02  -1.063027e-01  0 
 1.836418e-02  -8.826570e-02  0 
 6.113290e-02  -1.030010e-01  0 
 3.651888e-02  -9.571318e-02  0 
 2.269075e-02  -9.030267e-02  0 
 6.792476e-02  -1.117824e-01  0 
 2.575233e-02  -1.011420e-01  0 
 4.772005e-02  -1.007599e-01  0 
 4.651272e-02  -1.060740e-01  0 
 5.126309e-03  -8.849018e-02  0 
 3.388947e-02  -1.050826e-01  0 
 3.403374e-02  -9.236075e-02  0 
 4.287881e-02  -1.115161e-01  0 
 2.593976e-02  -9.599560e-02  0 
 7.605365e-02  -1.179524e-01  0 
 2.796329e-02  -1.025102e-01  0 
 2.960441e-02  -8.455743e-02  0 
 3.732329e-02  -1.027268e-01  0 
 5.617345e-02  -9.470973e-02  0 
 3.247748e-02  -9.476143e-02  0 
 2.700918e-02  -8.693364e-02  0 
 2.802897e-02  -9.861495e-02  0 
 4.362295e-02  -1.015195e-01  0 
 2.343531e-02  -8.084184e-02  0 
 5.986762e-02  -1.160443e-01  0 
 5.373940e-02  -1.069506e-01  0 
 3.761492e-02  -9.240437e-02  0 
 3.257142e-02  -1.007629e-01  0 
 1.388689e-02  -8.502833e-02  0 
 5.622508e-02  -9.935183e-02  0 
 3.802192e-02  -9.700784e-02  0 
 2.904476e-02  -8.939428e-02  0 
 4.917216e-02  -9.430517e-02  0 
 3.363431e-02  -9.736438e-02  0 
 4.975687e-02  -9.915006e-02  0 
 6.015734e-02  -9.921641e-02  0 
 2.090501e-02  -9.072661e-02  0 
 1.703495e-02  -9.037297e-02  0 
 3.562555e-02  -1.087138e-01  0 
 5.803144e-03  -8.548639e-02  0 
 4.501444e-02  -9.450830e-02  0 
 4.298039e-02  -1.078357e-01  0 
 5.053053e-02  -9.669913e-02  0 
 4.124136e-02  -1.023309e-01  0 
 1.369196e-02  -9.246774e-02  0 
 3.166657e-02  -1.039932e-01  0 
 3.997868e-02  -9.606301e-02  0 
 5.416539e-02  -1.145540e-01  0 
 5.796019e-02  -1.126116e-01  0 
 4.459808e-02  -9.033233e-02  0 
 3.200639e-02  -9.858814e-02  0 
 2.747812e-02  -9.051954e-02  0 
 8.263776e-03  -9.165378e-02  0 
 6.498679e-02  -1.047985e-01  0 
 3.792595e-02  -1.067011e-01  0 
 4.375041e-02  -1.050167e-01  0 
 2.947223e-02  -1.008815e-01  0 
 3.253029e-02  -8.551036e-02  0 
 1.030881e-02  -8.881052e-02  0 
 4.308439e-02  -9.475196e-02  0 
 6.707554e-02  -1.063362e-01  0 
 5.222783e-02  -9.996836e-02  0 
 6.356207e-02  -1.060227e-01  0 
 3.833366e-02  -1.103293e-01  0 
 2.937704e-02  -9.609820e-02  0 
 2.350509e-02  -8.549529e-02  0 
 3.587532e-02  -9.161833e-02  0 
 4.761898e-02  -9.201612e-02  0 
 1.702206e-02  -9.870117e-02  0 
 5.074895e-02  -1.035367e-01  0 
 3.551652e-02  -9.951739e-02  0 
 6.280373e-02  -1.021154e-01  0 
 2.157984e-02  -9.670228e-02  0 
 6.064883e-02  -1.127527e-01  0 
 5.234736e-02  -1.089738e-01  0 
 2.739534e-02  -8.118713e-02  0 
 3.696042e-02  -8.650797e-02  0 
 4.140569e-02  -1.081433e-01  0 
 6.116669e-02  -1.085328e-01  0 
 4.429932e-02  -1.094742e-01  0 
 1.810983e-02  -9.193421e-02  0 
 2.179948e-02  -8.280245e-02  0 
 3.150627e-02  -1.073748e-01  0 
 5.036435e-02  -1.081315e-01  0 
 2.095626e-03  -8.538640e-02  0 
 2.579282e-02  -8.782786e-02  0 
 5.490989e-02  -1.047455e-01  0 
 4.374683e-02  -9.799544e-02  0 
 3.870565e-02  -8.957353e-02  0 
 3.429647e-02  -1.016836e-01  0 
VECTORS displacement_ITER2 FLOAT
 -4.225925e-04  -7.713194e-02  0 
 9.135861e-04  -7.873911e-02  0 
 2.306803e-03  -8.030274e-02  0 
 3.740546e-03  -8.181692e-02  0 
 5.204868e-03  -8.328284e-02  0 
 6.694437e-03  -8.470644e-02  0 
 8.204831e-03  -8.608526e-02  0 
 9.740705e-03  -8.743682e-02  0 
 1.131695e-02  -8.876908e-02  0 
 1.293888e-02  -9.008203e-02  0 
 1.461079e-02  -9.137125e-02  0 
 1.632852e-02  -9.263320e-02  0 
 1.809552e-02  -9.386527e-02  0 
 1.990826e-02  -9.506295e-02  0 
 2.176423e-02  -9.622630e-02  0 
 2.366333e-02  -9.735288e-02  0 
 2.560411e-02  -9.844359e-02  0 
 2.758625e-02  -9.949555e-02  0 
 2.960742e-02  -1.005109e-01  0 
 3.167010e-02  -1.014853e-01  0 
 3.377054e-02  -1.024190e-01  0 
 3.590942e-02  -1.033119e-01  0 
 3.808680e-02  -1.041603e-01  0 
 4.029939e-02  -1.049666e-01  0 
 4.255099e-02  -1.057259e-01  0 
 4.483530e-02  -1.064384e-01  0 
 4.715502e-02  -1.071022e-01  0 
 4.950666e-02  -1.077179e-01  0 
 5.188829e-02  -1.082843e-01  0 
 5.430727e-02  -1.088034e-01  0 
 5.676336e-02  -1.092798e-01  0 
 5.925841e-02  -1.097029e-01  0 
 6.179784e-02  -1.100753e-01  0 
 6.437882e-02  -1.103994e-01  0 
 6.700970e-02  -1.106616e-01  0 
 6.960335e-02  -1.108689e-01  0 
 7.228129e-02  -1.110578e-01  0 
 3.511600e-02  -8.098810e-02  0 
 2.213109e-02  -8.134193e-02  0 
 4.395918e-02  -9.096960e-02  0 
 5.511767e-02  -9.677152e-02  0 
 2.870336e-02  -8.886088e-02  0 
 3.617193e-02  -9.439376e-02  0 
 1.506158e-02  -8.172821e-02  0 
 4.806737e-02  -9.860633e-02  0 
 6.240920e-02  -1.010275e-01  0 
 1.807729e-02  -7.577474e-02  0 
 2.191280e-02  -8.841077e-02  0 
 3.798576e-02  -8.739575e-02  0 
 5.115551e-02  -8.958496e-02  0 
 2.869647e-02  -8.219998e-02  0 
 4.103059e-02  -9.854528e-02  0 
 9.963346e-03  -8.033811e-02  0 
 3.055479e-02  -9.481228e-02  0 
 5.312736e-02  -1.023412e-01  0 
 1.726423e-02  -8.674507e-02  0 
 2.561766e-02  -9.260713e-02  0 
 3.318062e-02  -8.618642e-02  0 
 4.327501e-02  -8.662406e-02  0 
 2.559519e-02  -7.850624e-02  0 
 2.525702e-02  -8.536869e-02  0 
 6.217415e-02  -9.617519e-02  0 
 4.861115e-02  -9.417169e-02  0 
 5.853152e-02  -1.047841e-01  0 
 5.121778e-02  -8.499808e-02  0 