# vtk DataFile Version 3.1
this is an vtk file created by FEMAC
ASCII
DATASET UNSTRUCTURED_GRID
POINTS 315 FLOAT
1.600000 0.000000 0.000000
1.650000 0.000000 0.000000
1.700000 0.000000 0.000000
1.750000 0.000000 0.000000
1.800000 0.000000 0.000000
1.850000 0.000000 0.000000
1.900000 0.000000 0.000000
1.950000 0.000000 0.000000
2.000000 0.000000 0.000000
2.050000 0.000000 0.000000
2.300000 1.000000 0.000000
2.250000 1.000000 0.000000
2.200000 1.000000 0.000000
2.150000 1.000000 0.000000
2.100000 1.000000 0.000000
2.050000 1.000000 0.000000
2.000000 1.000000 0.000000
1.950000 1.000000 0.000000
1.900000 1.000000 0.000000
1.850000 1.000000 0.000000
1.930260 0.492785 0.000000
1.500000 0.569375 0.000000
2.190440 0.677096 0.000000
1.687003 0.308910 0.000000
1.738235 0.723989 0.000000
1.960584 0.254618 0.000000
1.977647 0.765775 0.000000
1.698474 0.515763 0.000000
1.500308 0.194294 0.000000
1.495233 0.392065 0.000000
1.797488 0.183866 0.000000
2.287846 0.823501 0.000000
1.841079 0.367863 0.000000
2.118581 0.842214 0.000000
1.839162 0.842311 0.000000
1.640744 0.152408 0.000000
1.877700 0.645532 0.000000
1.671899 0.850065 0.000000
2.024132 0.616584 0.000000
2.020718 0.388204 0.000000
1.610155 0.661012 0.000000
1.916137 0.128870 0.000000
1.611233 0.426665 0.000000
2.002815 0.874151 0.000000
2.092981 0.719083 0.000000
1.803627 0.549324 0.000000
1.562813 0.300336 0.000000
1.733002 0.408564 0.000000
2.025144 0.110591 0.000000
1.587176 0.522116 0.000000
1.735878 0.612821 0.000000
2.207426 0.896434 0.000000
1.537131 0.093587 0.000000
1.775376 0.290256 0.000000
1.732173 0.102141 0.000000
1.845496 0.736121 0.000000
2.201987 0.790816 0.000000
2.016628 0.519295 0.000000
1.914979 0.403498 0.000000
1.912868 0.906987 0.000000
1.855791 0.251986 0.000000
2.113541 0.619494 0.000000
1.853174 0.459703 0.000000
1.826229 0.084817 0.000000
1.755543 0.808015 0.000000
2.322762 0.916268 0.000000
1.700785 0.224466 0.000000
2.034904 0.196238 0.000000
1.943719 0.586537 0.000000
1.959564 0.676168 0.000000
1.582227 0.211176 0.000000
2.084718 0.920255 0.000000
1.539962 0.454749 0.000000
1.652633 0.586159 0.000000
1.901180 0.317676 0.000000
2.270406 0.722830 0.000000
1.911330 0.821241 0.000000
2.045814 0.806649 0.000000
1.835514 0.921399 0.000000
1.801248 0.659147 0.000000
1.634320 0.075027 0.000000
1.769278 0.481134 0.000000
2.005196 0.313343 0.000000
1.985656 0.452134 0.000000
1.570617 0.596514 0.000000
1.684228 0.669745 0.000000
1.962068 0.072055 0.000000
1.909906 0.731687 0.000000
1.560875 0.386091 0.000000
2.079557 0.567040 0.000000
2.031815 0.684071 0.000000
1.676433 0.449503 0.000000
1.968815 0.176967 0.000000
1.866807 0.176892 0.000000
1.663083 0.380807 0.000000
1.765795 0.340445 0.000000
1.872062 0.580498 0.000000
1.699465 0.766159 0.000000
2.141204 0.924907 0.000000
1.967110 0.948537 0.000000
1.892182 0.066424 0.000000
1.641051 0.254458 0.000000
2.126594 0.776062 0.000000
1.727419 0.166148 0.000000
1.618119 0.328376 0.000000
2.248431 0.926662 0.000000
1.964122 0.351468 0.000000
2.192997 0.842172 0.000000
1.748129 0.552739 0.000000
1.791917 0.412723 0.000000
1.506547 0.142413 0.000000
2.136857 0.693512 0.000000
1.781682 0.047971 0.000000
1.985718 0.823880 0.000000
1.830208 0.291594 0.000000
1.865106 0.510942 0.000000
1.585682 0.159496 0.000000
2.055183 0.062812 0.000000
1.821748 0.601504 0.000000
2.149838 0.557046 0.000000
1.689848 0.061252 0.000000
2.039956 0.943562 0.000000
1.530804 0.523358 0.000000
2.028451 0.757446 0.000000
1.913121 0.214542 0.000000
1.523129 0.623644 0.000000
1.814448 0.804944 0.000000
1.869139 0.788691 0.000000
2.081579 0.664459 0.000000
2.035584 0.258635 0.000000
2.062861 0.862056 0.000000
1.758573 0.222713 0.000000
2.186150 0.623164 0.000000
1.643542 0.503147 0.000000
1.783275 0.123584 0.000000
2.261267 0.878508 0.000000
2.169025 0.718729 0.000000
1.580860 0.050453 0.000000
1.963208 0.534998 0.000000
1.900159 0.448193 0.000000
1.967781 0.124472 0.000000
2.254217 0.779811 0.000000
1.870922 0.409201 0.000000
1.723144 0.858998 0.000000
1.641216 0.701238 0.000000
1.789897 0.855360 0.000000
1.721641 0.273313 0.000000
1.877324 0.949472 0.000000
1.810277 0.239143 0.000000
1.590089 0.470938 0.000000
1.678025 0.113480 0.000000
1.712600 0.358840 0.000000
1.946519 0.860393 0.000000
1.487118 0.434475 0.000000
2.155323 0.878291 0.000000
1.795039 0.713786 0.000000
1.848712 0.685085 0.000000
1.702662 0.571884 0.000000
1.751647 0.666732 0.000000
1.535338 0.245627 0.000000
2.209126 0.946411 0.000000
2.007290 0.044832 0.000000
2.005776 0.570927 0.000000
1.653317 0.204406 0.000000
1.927539 0.637352 0.000000
1.910997 0.260299 0.000000
1.770088 0.759435 0.000000
1.884779 0.862651 0.000000
1.659939 0.800898 0.000000
1.951676 0.304155 0.000000
2.071433 0.396074 0.000000
1.828667 0.149129 0.000000
1.971644 0.398317 0.000000
2.080993 0.760040 0.000000
1.691438 0.716164 0.000000
2.068052 0.498869 0.000000
2.237429 0.829666 0.000000
1.976527 0.624578 0.000000
1.817650 0.502862 0.000000
1.544840 0.185767 0.000000
1.824525 0.034010 0.000000
1.529333 0.411436 0.000000
1.907051 0.689084 0.000000
2.071585 0.612265 0.000000
1.905494 0.544765 0.000000
1.719010 0.465237 0.000000
1.687959 0.619710 0.000000
2.331338 0.963149 0.000000
1.921875 0.771033 0.000000
2.000226 0.713038 0.000000
1.607748 0.292433 0.000000
1.884352 0.362589 0.000000
1.926401 0.951908 0.000000
1.870412 0.116573 0.000000
1.736669 0.050580 0.000000
2.009418 0.156641 0.000000
1.776354 0.589419 0.000000
1.613998 0.614289 0.000000
1.601203 0.112865 0.000000
1.633532 0.544292 0.000000
2.077530 0.963807 0.000000
2.213524 0.733674 0.000000
1.707680 0.809891 0.000000
2.308543 0.872670 0.000000
1.691521 0.170888 0.000000
1.933895 0.043504 0.000000
1.993514 0.218615 0.000000
1.944197 0.446448 0.000000
2.021387 0.474808 0.000000
2.237348 0.689702 0.000000
1.649701 0.641575 0.000000
1.871321 0.289769 0.000000
2.022230 0.430278 0.000000
2.112537 0.885545 0.000000
1.591839 0.254542 0.000000
1.732483 0.314353 0.000000
1.610392 0.381008 0.000000
1.573647 0.421815 0.000000
1.826728 0.963654 0.000000
1.542739 0.563611 0.000000
1.972307 0.489786 0.000000
2.040500 0.902913 0.000000
2.118827 0.961350 0.000000
1.601297 0.568060 0.000000
1.918075 0.174819 0.000000
1.615854 0.187967 0.000000
2.130408 0.734266 0.000000
1.776805 0.519266 0.000000
1.835503 0.202346 0.000000
2.036417 0.350915 0.000000
1.625097 0.033366 0.000000
1.870815 0.902123 0.000000
2.001216 0.660436 0.000000
2.091089 0.812340 0.000000
2.151520 0.812323 0.000000
1.804573 0.452030 0.000000
1.808262 0.331221 0.000000
2.020435 0.836512 0.000000
2.008569 0.792359 0.000000
1.638809 0.457636 0.000000
1.741531 0.507544 0.000000
1.923801 0.360341 0.000000
1.761849 0.438092 0.000000
1.841668 0.640725 0.000000
1.994148 0.270958 0.000000
2.231826 0.648562 0.000000
1.506376 0.481428 0.000000
1.878586 0.719243 0.000000
2.168934 0.961370 0.000000
1.777375 0.625925 0.000000
1.970651 0.032078 0.000000
1.679347 0.270327 0.000000
1.924858 0.090381 0.000000
1.692735 0.413387 0.000000
2.047234 0.580416 0.000000
1.648781 0.418168 0.000000
1.548851 0.140817 0.000000
1.896912 0.610360 0.000000
1.861589 0.037153 0.000000
1.946045 0.724464 0.000000
2.150643 0.598538 0.000000
1.856067 0.326785 0.000000
1.572920 0.339943 0.000000
1.765510 0.386858 0.000000
1.639011 0.113865 0.000000
2.042065 0.647563 0.000000
1.656242 0.341405 0.000000
1.836979 0.879874 0.000000
2.285124 0.960186 0.000000
2.112695 0.583317 0.000000
1.884075 0.750750 0.000000
1.713389 0.135462 0.000000
2.226262 0.863190 0.000000
1.862018 0.615724 0.000000
1.717266 0.687987 0.000000
1.668731 0.544669 0.000000
1.847615 0.548316 0.000000
1.833572 0.417669 0.000000
2.149847 0.645694 0.000000
2.000241 0.923024 0.000000
1.526043 0.368697 0.000000
1.556895 0.491764 0.000000
1.575228 0.631781 0.000000
2.104714 0.536984 0.000000
1.800205 0.373917 0.000000
1.736092 0.775212 0.000000
2.000290 0.964262 0.000000
1.452226 0.386674 0.000000
1.668219 0.747864 0.000000
1.956976 0.909582 0.000000
1.715048 0.648575 0.000000
2.053516 0.716448 0.000000
1.809803 0.755609 0.000000
1.996413 0.085602 0.000000
2.284334 0.907293 0.000000
1.949442 0.215868 0.000000
1.758751 0.160642 0.000000
1.483665 0.355770 0.000000
2.054587 0.539026 0.000000
1.616858 0.222510 0.000000
1.876106 0.212636 0.000000
1.648252 0.299318 0.000000
1.873330 0.827233 0.000000
1.659853 0.033929 0.000000
1.677448 0.482888 0.000000
2.047000 0.146404 0.000000
2.165510 0.760978 0.000000
1.891584 0.486482 0.000000
1.728438 0.197313 0.000000
1.999619 0.360450 0.000000
1.950735 0.805290 0.000000
1.769217 0.086861 0.000000
2.240531 0.965740 0.000000
1.886393 0.148308 0.000000
2.176403 0.921483 0.000000
CELLS 556 2224 
3 292  55 127
3 126 292 127
3 126 302  34
3 127 302 126
3 293 161 117
3 128  61 278
3 111 128 278
3 71 213  98
3 64 126 145
3 34 145 126
3 66 131 146
3 53 146 131
3 48 293 117
3 53 236  95
3 76 152 167
3 80 198 137
3 24 158 155
3 79 155 158
3 234 154  33
3 107 154 234
3 53  95 215
3 51 135 105
3 44 128 111
3 53 148 114
3 60 114 148
3 229 170  39
3 9 117 161
3 41 140 224
3 92 224 140
3 63 258 100
3 3   4 112
3 59 167 152
3 56 176 107
3 52 137 198
3 68 162 177
3 47 185 253
3 17  99 286
3 24  97 174
3 92 195 206
3 71  98 222
3 24 285  97
3 66 101 163
3 22 136 111
3 63 100 193
3 94 216 266
3 106 241 169
3 68 138 162
3 94 255 216
3 102 234 233
3 80 120 150
3 262  88 280
3 28 110 179
3 54 296 271
3 241 172  58
3 241  74 169
3 33 233 234
3 67 206 195
3 84 125 219
3 21 219 125
3 106 172 241
3 291 189  90
3 17 192  99
3 30 148 131
3 51 105 160
3 27 108 157
3 51 154 107
3 47 253 151
3 258   6 100
3 131 308 296
3 100   6 205
3 66 251 101
3 82 106 169
3 30 131 296
3 36 182 156
3 54 134 296
3 96 118 276
3 45 276 118
3 69 259 182
3 49 219 122
3 45 196 108
3 76 127 188
3 115 307 184
3 49 223 219
3 8   9 161
3 123 189 291
3 68 257 184
3 20 184 307
3 49 149 133
3 47 151 263
3 50 157 108
3 63 311 112
3 156 182 247
3 76 310 152
3 98 213 154
3 88 216 217
3 64 145 143
3 56 141 176
3 43 152 113
3 52 256 110
3 96 184 257
3 53 114 236
3 56 107 234
3 113 152 310
3 94 151 253
3 296 171  30
3 91 253 185
3 35 116 198
3 134 171 296
3 115 184 276
3 45 118 196
3 47 242 185
3 300 165  60
3 54 150 120
3 124 165 300
3 44 226 173
3 102 173 226
3 29 153 287
3 62 142 139
3 87 182 259
3 46 159 214
3 85 144 210
3 40 210 144
3 3 112 194
3 22 201 136
3 57 220 208
3 31 135 176
3 63 180 258
3 15 286 121
3 82 309 106
3 18  19 147
3 63 134 311
3 26 189 123
3 95 263 151
3 84 282 125
3 53 131 148
3 58 139 142
3 104 266 216
3 124 295 165
3 25 165 295
3 33 130 233
3 45 108 227
3 27 240 108
3 276  45 178
3 54 120 194
3 115 276 178
3 22 111 278
3 19 218 147
3 51 107 272
3 63 112 180
3 4 180 112
3 65 268 294
3 33 213 130
3 62 115 178
3 50 108 196
3 38 177 162
3 58 142 191
3 23 146 215
3 2 194 120
3 23 215 151
3 65 187 268
3 127 270 188
3 35 150 204
3 77 123 173
3 43 279 289
3 61 128 183
3 67 129 206
3 103 271 296
3 57 138 220
3 20 139 207
3 101 214 299
3 43 289 152
3 22 209 201
3 44 111 226
3 123 291 173
3 103 296 308
3 62 307 115
3 42 216 255
3 20 207 220
3 55 155 156
3 79 156 155
3 44 173 291
3 70 179 116
3 100 252 193
3 64 166 126
3 15  16 286
3 41 252 140
3 16  17 286
3 79 249 118
3 96 276 184
3 32 277 284
3 56 201 141
3 75 141 201
3 101 190 214
3 96 273 118
3 86 140 252
3 80 137 230
3 44 291 128
3 90 128 291
3 30 228 148
3 42 217 216
3 92 140 195
3 22 132 245
3 113  26 238
3 43 113 237
3 57 162 138
3 102 233 173
3 39 170 212
3 80 150 264
3 256  52 198
3 116 256 198
3 88 217 181
3 60 211 114
3 310  26 113
3 68 184 138
3 20 138 184
3 74 165 169
3 25 169 165
3 41 193 252
3 93 224 300
3 30 171 228
3 93 228 171
3 109 284 277
3 122 246 281
3 124 300 224
3 72 281 246
3 150 271 204
3 63 171 134
3 22 278 132
3 78 147 218
3 34 267 145
3 27 275 133
3 79 118 243
3 59 192 147
3 35 225 116
3 70 116 225
3 54 194 311
3 57 298 162
3 129 244 206
3 77 233 130
3 135 272 176
3 71 200 121
3 15 121 200
3 80 303 120
3 133 149 239
3 2 120 303
3 85 174 144
3 62 139 307
3 35 198 264
3 66 308 131
3 31 176 141
3 162 298 254
3 26 123 238
3 77 238 123
3 69 164 177
3 58 191 241
3 94 266 151
3 23 151 266
3 110 256 179
3 24 155 166
3 71 130 213
3 32 142 277
3 28 179 159
3 70 159 179
3 71 121 221
3 18 147 192
3 49 122 281
3 21 122 219
3 136 201 306
3 306 201  56
3 24 166 285
3 60 148 228
3 29 181 153
3 72 153 181
3 90 265 128
3 104 301 266
3 27 133 304
3 84 219 223
3 56 234 306
3 83 208 220
3 49 133 199
3 0 230 137
3 64 143 202
3 112 311 194
3 43 237 130
3 77 130 237
3 54 311 134
3 76 302 127
3 2   3 194
3 55 270 127
3 32 191 142
3 66 163 204
3 48 195 140
3 31 203 135
3 59 289 192
3 43 130 221
3 71 221 130
3 50 186 157
3 73 157 186
3 73 197 223
3 37 202 143
3 82 244 129
3 111 136 226
3 68 177 164
3 53 215 146
3 128 265 183
3 82 169 244
3 17  18 192
3 133 275 199
3 51 314 154
3 105 135 294
3 66 146 251
3 83 172 212
3 39 212 172
3 69 232 189
3 90 189 232
3 36 164 182
3 69 182 164
3 13 222 248
3 71 222 200
3 62 277 142
3 73 186 210
3 83 220 207
3 58 207 139
3 93 171 313
3 4   5 180
3 78 231 147
3 59 147 231
3 73 210 197
3 51 272 135
3 104 190 301
3 20 307 139
3 69 189 259
3 106 309 172
3 118 249 196
3 105 294 268
3 171 193 313
3 20 220 138
3 27 157 275
3 81 185 242
3 98 154 314
3 12 160 312
3 73 223 199
3 68 164 257
3 70 299 214
3 48 140 293
3 86 293 140
3 66 204 308
3 6   7 205
3 42 239 149
3 34 167 267
3 97 168 288
3 37 168 202
3 83 207 172
3 58 172 207
3 57 208 175
3 63 193 171
3 99 192 289
3 98 248 222
3 25 206 244
3 72 217 149
3 13  14 222
3 69 177 232
3 60 228 300
3 11  12 312
3 35 204 163
3 49 281 149
3 42 149 217
3 97 202 168
3 38 183 265
3 95 151 215
3 39 172 309
3 87 188 270
3 5   6 258
3 14  15 200
3 23 251 146
3 75 201 209
3 10  11 268
3 99 289 279
3 25 244 169
3 33 154 213
3 70 214 159
3 93 313 224
3 79 243 156
3 36 156 243
3 64 202 285
3 60 165 211
3 87 247 182
3 38 232 177
3 1   2 303
3 73 275 157
3 67 195 305
3 32 236 261
3 74 211 165
3 23 266 301
3 74 191 261
3 114 261 236
3 72 149 281
3 144 174 288
3 35 264 150
3 54 271 150
3 35 163 225
3 72 246 153
3 107 176 272
3 59 152 289
3 12 248 160
3 79 158 249
3 50 249 158
3 55 156 247
3 84 223 197
3 89 298 283
3 167 231 267
3 38 162 254
3 8 161 250
3 124 224 295
3 92 295 224
3 55 292 155
3 103 308 204
3 76 167 302
3 86 250 161
3 72 181 217
3 74 261 211
3 59 231 167
3 97 285 202
3 109 242 263
3 102 306 234
3 87 259 188
3 26 188 259
3 81 235 178
3 62 178 235
3 85 210 186
3 116 179 256
3 11 312 268
3 50 158 290
3 24 274 158
3 80 230 303
3 26 310 188
3 113 238 237
3 77 237 238
3 133 239 304
3 91 304 239
3 51 160 314
3 155 292 166
3 0   1 230
3 86 252 205
3 100 205 252
3 77 173 233
3 89 269 183
3 61 183 269
3 105 312 160
3 40 197 210
3 12  13 248
3 47 263 242
3 38 265 232
3 36 257 164
3 86 161 293
3 45 227 178
3 81 178 227
3 46 214 190
3 7   8 250
3 85 274 174
3 61 260 278
3 132 278 260
3 88 262 216
3 104 216 262
3 83 212 208
3 74 241 191
3 29 280 181
3 88 181 280
3 101 299 163
3 27 185 240
3 81 240 185
3 82 229 309
3 73 199 275
3 38 254 183
3 64 285 166
3 126 166 292
3 49 199 223
3 14 200 222
3 24 174 274
3 34 302 167
3 103 204 271
3 5 258 180
3 89 183 254
3 86 205 250
3 7 250 205
3 97 288 174
3 57 175 298
3 27 304 185
3 91 185 304
3 62 235 277
3 109 277 235
3 32 261 191
3 50 196 249
3 26 259 189
3 135 203 294
3 65 294 203
3 48 305 195
3 10 268 187
3 50 290 186
3 90 232 265
3 22 245 209
3 108 240 227
3 109 235 242
3 85 186 290
3 80 264 198
3 40 282 197
3 119 269 283
3 89 254 298
3 93 300 228
3 89 283 269
3 101 301 190
3 81 227 240
3 76 188 310
3 84 197 282
3 81 242 235
3 42 255 239
3 91 239 255
3 102 226 306
3 136 306 226
3 41 313 193
3 25 295 206
3 92 206 295
3 99 279 286
3 121 286 279
3 43 221 279
3 121 279 221
3 114 211 261
3 55 247 270
3 78 267 231
3 105 268 312
3 29 287 297
3 98 314 248
3 160 248 314
3 91 255 253
3 94 253 255
3 29 297 280
3 41 224 313
3 109 263 284
3 70 225 299
3 163 299 225
3 85 290 274
3 158 274 290
3 87 270 247
3 36 243 273
3 96 257 273
3 118 273 243
3 95 236 284
3 119 260 269
3 32 284 236
3 61 269 260
3 36 273 257
3 39 309 229
3 1 303 230
3 101 251 301
3 23 301 251
3 95 284 263
CELL_TYPES 556
5 5 5 5 5 5 5 5 5 5 5 5 5 5 5 5 5 5 5 5 5 5 5 5 5 5 5 5 5 5 5 5 5 5 5 5 5 5 5 5 5 5 5 5 5 5 5 5 5 5 5 5 5 5 5 5 5 5 5 5 5 5 5 5 5 5 5 5 5 5 5 5 5 5 5 5 5 5 5 5 5 5 5 5 5 5 5 5 5 5 5 5 5 5 5 5 5 5 5 5 5 5 5 5 5 5 5 5 5 5 5 5 5 5 5 5 5 5 5 5 5 5 5 5 5 5 5 5 5 5 5 5 5 5 5 5 5 5 5 5 5 5 5 5 5 5 5 5 5 5 5 5 5 5 5 5 5 5 5 5 5 5 5 5 5 5 5 5 5 5 5 5 5 5 5 5 5 5 5 5 5 5 5 5 5 5 5 5 5 5 5 5 5 5 5 5 5 5 5 5 5 5 5 5 5 5 5 5 5 5 5 5 5 5 5 5 5 5 5 5 5 5 5 5 5 5 5 5 5 5 5 5 5 5 5 5 5 5 5 5 5 5 5 5 5 5 5 5 5 5 5 5 5 5 5 5 5 5 5 5 5 5 5 5 5 5 5 5 5 5 5 5 5 5 5 5 5 5 5 5 5 5 5 5 5 5 5 5 5 5 5 5 5 5 5 5 5 5 5 5 5 5 5 5 5 5 5 5 5 5 5 5 5 5 5 5 5 5 5 5 5 5 5 5 5 5 5 5 5 5 5 5 5 5 5 5 5 5 5 5 5 5 5 5 5 5 5 5 5 5 5 5 5 5 5 5 5 5 5 5 5 5 5 5 5 5 5 5 5 5 5 5 5 5 5 5 5 5 5 5 5 5 5 5 5 5 5 5 5 5 5 5 5 5 5 5 5 5 5 5 5 5 5 5 5 5 5 5 5 5 5 5 5 5 5 5 5 5 5 5 5 5 5 5 5 5 5 5 5 5 5 5 5 5 5 5 5 5 5 5 5 5 5 5 5 5 5 5 5 5 5 5 5 5 5 5 5 5 5 5 5 5 5 5 5 5 5 5 5 5 5 5 5 5 5 5 5 5 5 5 5 5 5 5 5 5 5 5 5 5 5 5 5 5 5 5 5 5 5 5 5 5 5 5 5 5 5 5 5 5 5 5 5 5 5 5 5 5 5 5 5 5 5 5 5 5 5 5 5 5 5 5 5 5 5 5 5 5 5 5 5 5 5 5 5 5 5 5 5 5 5 5 5 5 5 5 
POINT_DATA 315
VECTORS displacement_ITER1 FLOAT
 -3.959892e-03  -1.496089e-03  0 
 -4.378380e-03  -1.777742e-03  0 
 -4.708958e-03  -2.165084e-03  0 
 -5.009211e-03  -2.596180e-03  0 
 -5.299466e-03  -3.048703e-03  0 
 -5.587482e-03  -3.520958e-03  0 
 -5.877177e-03  -4.010443e-03  0 
 -6.170180e-03  -4.511299e-03  0 
 -6.486924e-03  -5.016324e-03  0 
 -6.859401e-03  -5.524844e-03  0 
 1.030578e-02  -1.204244e-02  0 
 9.697279e-03  -1.065122e-02  0 
 9.169374e-03  -9.506254e-03  0 
 8.690711e-03  -8.497032e-03  0 
 8.261119e-03  -7.571008e-03  0 
 7.875665e-03  -6.704775e-03  0 
 7.539785e-03  -5.879812e-03  0 
 7.257293e-03  -5.066522e-03  0 
 7.045744e-03  -4.220415e-03  0 
 6.891185e-03  -3.301269e-03  0 
 -5.315896e-04  -4.432337e-03  0 
 8.023429e-05  -8.300729e-04  0 
 2.545598e-03  -8.975476e-03  0 
 -2.040308e-03  -2.009712e-03  0 
 2.019243e-03  -2.324815e-03  0 
 -3.391186e-03  -4.606754e-03  0 
 3.456041e-03  -5.324914e-03  0 
 -1.888296e-04  -2.033417e-03  0 
 -2.660215e-03  -8.402231e-04  0 
 -6.647951e-04  -1.265659e-03  0 
 -3.575197e-03  -2.969580e-03  0 
 5.642020e-03  -1.132196e-02  0 
 -1.834469e-03  -3.397203e-03  0 
 5.414448e-03  -7.793885e-03  0 
 3.917482e-03  -3.334353e-03  0 
 -3.302713e-03  -1.679140e-03  0 
 1.410790e-03  -3.865870e-03  0 
 3.161874e-03  -1.618756e-03  0 
 1.221236e-03  -5.886252e-03  0 
 -1.892620e-03  -5.386636e-03  0 
 9.156608e-04  -1.303037e-03  0 
 -4.639526e-03  -4.120072e-03  0 
 -8.233491e-04  -1.410568e-03  0 
 5.398367e-03  -5.823402e-03  0 
 3.073430e-03  -7.207344e-03  0 
 1.721705e-04  -3.013772e-03  0 
 -2.043282e-03  -1.079890e-03  0 
 -1.200144e-03  -2.359328e-03  0 
 -5.413594e-03  -5.287008e-03  0 
 -1.952718e-04  -1.295543e-03  0 
 7.820652e-04  -2.338883e-03  0 
 6.936052e-03  -9.599148e-03  0 
 -3.326477e-03  -1.078909e-03  0 
 -2.467980e-03  -2.773614e-03  0 
 -4.046615e-03  -2.397461e-03  0 
 2.516304e-03  -3.476832e-03  0 
 4.719922e-03  -9.369844e-03  0 
 -2.360405e-04  -5.580941e-03  0 
 -1.569949e-03  -4.190345e-03  0 
 5.428943e-03  -4.417468e-03  0 
 -3.093473e-03  -3.523649e-03  0 
 1.387761e-03  -7.423278e-03  0 
 -8.515379e-04  -3.536081e-03  0 
 -4.645323e-03  -3.249437e-03  0 
 3.025908e-03  -2.440675e-03  0 
 7.974268e-03  -1.246989e-02  0 
 -2.883962e-03  -2.130319e-03  0 
 -4.357654e-03  -5.436934e-03  0 
 6.949228e-04  -4.679511e-03  0 
 2.008523e-03  -4.981097e-03  0 
 -2.701309e-03  -1.238883e-03  0 
 6.698884e-03  -7.240343e-03  0 
 -6.625520e-04  -1.129509e-03  0 
 3.822109e-04  -1.660077e-03  0 
 -2.511885e-03  -3.999316e-03  0 
 3.574207e-03  -1.065338e-02  0 
 4.009887e-03  -4.350655e-03  0 
 4.438931e-03  -6.475426e-03  0 
 5.316173e-03  -3.023358e-03  0 
 1.430385e-03  -2.987131e-03  0 
 -3.817959e-03  -1.655960e-03  0 
 -5.425228e-04  -2.674941e-03  0 
 -2.817684e-03  -5.132188e-03  0 
 -1.073895e-03  -5.045242e-03  0 
 3.135611e-04  -1.161275e-03  0 
 1.250573e-03  -1.857353e-03  0 
 -5.493637e-03  -4.603663e-03  0 
 2.680123e-03  -4.312182e-03  0 
 -8.928025e-04  -1.158640e-03  0 
 4.850218e-04  -6.708703e-03  0 
 2.316328e-03  -6.107599e-03  0 
 -7.378553e-04  -1.866291e-03  0 
 -4.334772e-03  -4.670129e-03  0 
 -3.914212e-03  -3.622937e-03  0 
 -1.284097e-03  -1.770557e-03  0 
 -1.943184e-03  -2.680766e-03  0 
 5.721625e-04  -3.776731e-03  0 
 2.375067e-03  -1.930339e-03  0 
 7.144159e-03  -8.273606e-03  0 
 6.477646e-03  -5.310539e-03  0 
 -5.167046e-03  -3.897660e-03  0 
 -2.473443e-03  -1.630109e-03  0 
 4.201406e-03  -7.887968e-03  0 
 -3.482291e-03  -2.356014e-03  0 
 -1.580723e-03  -1.384312e-03  0 
 7.854946e-03  -1.055134e-02  0 
 -2.258912e-03  -4.698827e-03  0 
 5.719852e-03  -9.252760e-03  0 
 1.818635e-04  -2.462639e-03  0 
 -1.269119e-03  -2.909134e-03  0 
 -2.953033e-03  -8.938062e-04  0 
 2.730516e-03  -7.972100e-03  0 
 -4.760891e-03  -2.853575e-03  0 
 4.447001e-03  -5.501690e-03  0 
 -2.607370e-03  -3.282268e-03  0 
 -2.728377e-04  -3.680211e-03  0 
 -3.077569e-03  -1.310959e-03  0 
 -6.096913e-03  -5.596539e-03  0 
 7.816830e-04  -3.208224e-03  0 
 3.379644e-04  -7.984578e-03  0 
 -4.169200e-03  -2.060362e-03  0 
 6.835952e-03  -6.497115e-03  0 
 -2.339174e-04  -9.958729e-04  0 
 3.519873e-03  -6.135061e-03  0 
 -3.688708e-03  -4.093993e-03  0 
 3.864408e-04  -9.460757e-04  0 
 3.278674e-03  -3.056774e-03  0 
 3.322407e-03  -3.753594e-03  0 
 2.105615e-03  -6.921826e-03  0 
 -3.559103e-03  -5.442205e-03  0 
 5.510754e-03  -6.814027e-03  0 
 -3.071647e-03  -2.623900e-03  0 
 1.529351e-03  -8.811429e-03  0 
 -3.021084e-04  -1.627652e-03  0 
 -4.082149e-03  -2.843459e-03  0 
 6.782033e-03  -1.081172e-02  0 
 3.266585e-03  -8.622953e-03  0 
 -3.750882e-03  -1.371692e-03  0 
 -3.723530e-06  -4.886036e-03  0 
 -1.035707e-03  -4.051278e-03  0 
 -4.938816e-03  -4.651882e-03  0 
 4.656062e-03  -1.039794e-02  0 
 -1.439191e-03  -3.714574e-03  0 
 3.341069e-03  -2.129498e-03  0 
 1.448340e-03  -1.453003e-03  0 
 3.698317e-03  -2.773017e-03  0 
 -2.481772e-03  -2.307115e-03  0 
 6.024362e-03  -3.803742e-03  0 
 -3.078787e-03  -3.090232e-03  0 
 -5.463839e-04  -1.313112e-03  0 
 -3.728122e-03  -1.963251e-03  0 
 -1.625695e-03  -2.197857e-03  0 
 4.843192e-03  -4.914031e-03  0 
 -7.887402e-04  -1.161390e-03  0 
 6.291096e-03  -8.518250e-03  0 
 2.072210e-03  -2.901471e-03  0 
 1.863721e-03  -3.517645e-03  0 
 3.287382e-04  -2.057617e-03  0 
 1.401447e-03  -2.475908e-03  0 
 -2.382124e-03  -9.253810e-04  0 
 8.061672e-03  -9.672329e-03  0 
 -6.049665e-03  -5.068643e-03  0 
 5.026767e-04  -5.523067e-03  0 
 -2.933516e-03  -1.751956e-03  0 
 1.383551e-03  -4.505866e-03  0 
 -3.177023e-03  -4.078636e-03  0 
 2.534432e-03  -2.614717e-03  0 
 4.509792e-03  -3.963106e-03  0 
 2.665831e-03  -1.511939e-03  0 
 -2.791110e-03  -4.530844e-03  0 
 -1.835793e-03  -6.042429e-03  0 
 -4.034462e-03  -3.257842e-03  0 
 -1.705473e-03  -4.819563e-03  0 
 3.757228e-03  -7.038207e-03  0 
 1.781909e-03  -1.889675e-03  0 
 -5.031515e-04  -6.182788e-03  0 
 5.616620e-03  -1.017585e-02  0 
 1.273910e-03  -5.177535e-03  0 
 -3.436508e-04  -3.159235e-03  0 
 -2.794495e-03  -1.050620e-03  0 
 -5.119963e-03  -3.259760e-03  0 
 -7.676889e-04  -1.131639e-03  0 
 2.064547e-03  -4.254492e-03  0 
 1.218923e-03  -6.663367e-03  0 
 1.300044e-04  -4.164269e-03  0 
 -6.500194e-04  -2.214174e-03  0 
 7.588624e-04  -1.917275e-03  0 
 9.388749e-03  -1.288216e-02  0 
 3.304009e-03  -4.490537e-03  0 
 2.692255e-03  -5.632061e-03  0 
 -2.060876e-03  -1.300242e-03  0 
 -1.978529e-03  -3.839959e-03  0 
 6.310256e-03  -4.652754e-03  0 
 -4.547469e-03  -3.664373e-03  0 
 -4.498981e-03  -2.453347e-03  0 
 -4.758230e-03  -5.115351e-03  0 
 5.928039e-04  -2.732550e-03  0 
 5.382235e-04  -1.379715e-03  0 
 -3.445748e-03  -1.438247e-03  0 
 1.107815e-05  -1.556851e-03  0 
 7.443477e-03  -7.148924e-03  0 
 3.657464e-03  -9.514226e-03  0 
 2.860664e-03  -1.989893e-03  0 
 6.818787e-03  -1.195948e-02  0 
 -3.323179e-03  -2.058790e-03  0 
 -5.633932e-03  -4.325785e-03  0 
 -3.924852e-03  -4.954161e-03  0 
 -1.104956e-03  -4.555470e-03  0 
 -8.025573e-04  -5.523670e-03  0 
 2.873339e-03  -9.929538e-03  0 
 8.686035e-04  -1.601960e-03  0 
 -2.739708e-03  -3.684571e-03  0 
 -1.366403e-03  -5.418688e-03  0 
 6.208736e-03  -7.715604e-03  0 
 -2.374532e-03  -1.250865e-03  0 
 -2.113500e-03  -2.391771e-03  0 
 -1.109457e-03  -1.362945e-03  0 
 -7.966166e-04  -1.215280e-03  0 
 6.096714e-03  -2.775175e-03  0 
 6.582152e-05  -1.037368e-03  0 
 -5.994977e-04  -4.945954e-03  0 
 6.118304e-03  -6.471976e-03  0 
 7.695512e-03  -7.879930e-03  0 
 1.593516e-04  -1.343655e-03  0 
 -4.144710e-03  -4.132815e-03  0 
 -2.960931e-03  -1.486075e-03  0 
 3.449026e-03  -7.909649e-03  0 
 -1.533848e-04  -2.744047e-03  0 
 -3.534107e-03  -3.323151e-03  0 
 -2.401176e-03  -5.553310e-03  0 
 -4.012593e-03  -1.595821e-03  0 
 5.088183e-03  -3.736613e-03  0 
 1.866671e-03  -5.592341e-03  0 
 4.737040e-03  -7.270371e-03  0 
 4.971429e-03  -8.396220e-03  0 
 -8.793613e-04  -3.028170e-03  0 
 -2.142870e-03  -3.074914e-03  0 
 4.839136e-03  -6.078655e-03  0 
 4.027316e-03  -5.842450e-03  0 
 -6.387471e-04  -1.592850e-03  0 
 -2.644500e-04  -2.411788e-03  0 
 -2.079728e-03  -4.257876e-03  0 
 -9.641826e-04  -2.613908e-03  0 
 1.287097e-03  -3.436670e-03  0 
 -3.295654e-03  -4.985002e-03  0 
 2.088587e-03  -9.754427e-03  0 
 -5.681179e-04  -1.010776e-03  0 
 2.400833e-03  -3.890315e-03  0 
 8.078429e-03  -8.836570e-03  0 
 9.990730e-04  -2.740225e-03  0 
 -5.966587e-03  -4.701672e-03  0 
 -2.400467e-03  -1.954152e-03  0 
 -5.093147e-03  -4.214332e-03  0 
 -1.073621e-03  -2.004637e-03  0 
 6.749295e-04  -6.186022e-03  0 
 -9.432608e-04  -1.652693e-03  0 
 -3.084713e-03  -1.111731e-03  0 
 9.755666e-04  -4.093619e-03  0 
 -5.292073e-03  -3.612000e-03  0 
 2.694232e-03  -4.818383e-03  0 
 1.048997e-03  -8.080896e-03  0 
 -2.304833e-03  -3.540598e-03  0 
 -1.162411e-03  -1.167344e-03  0 
 -1.480732e-03  -2.663242e-03  0 
 -3.572414e-03  -1.686350e-03  0 
 1.746222e-03  -6.226943e-03  0 
 -1.612647e-03  -1.721671e-03  0 
 4.462729e-03  -3.260626e-03  0 
 8.970590e-03  -1.151958e-02  0 
 7.701727e-04  -7.346148e-03  0 
 2.854118e-03  -3.963726e-03  0 
 -3.691717e-03  -2.240031e-03  0 
 6.292893e-03  -9.990238e-03  0 
 1.002894e-03  -3.671171e-03  0 
 1.546938e-03  -2.142843e-03  0 
 4.743884e-05  -1.797978e-03  0 
 1.718675e-04  -3.489155e-03  0 
 -1.287317e-03  -3.324681e-03  0 
 1.899896e-03  -8.139921e-03  0 
 6.230918e-03  -5.827281e-03  0 
 -7.064187e-04  -1.138345e-03  0 
 -4.381610e-04  -1.164145e-03  0 
 5.326987e-04  -1.175314e-03  0 
 -4.013946e-05  -7.129141e-03  0 
 -1.686682e-03  -2.993874e-03  0 
 2.593453e-03  -2.272995e-03  0 
 6.940968e-03  -5.859895e-03  0 
 -5.661697e-04  -1.611372e-03  0 
 2.086505e-03  -1.630734e-03  0 
 5.741713e-03  -5.121166e-03  0 
 1.113882e-03  -2.138669e-03  0 
 2.913308e-03  -6.511963e-03  0 
 2.637363e-03  -3.045677e-03  0 
 -5.536065e-03  -4.967855e-03  0 
 7.569260e-03  -1.142600e-02  0 
 -3.804470e-03  -4.470123e-03  0 
 -3.646586e-03  -2.621696e-03  0 
 -3.725655e-04  -1.432163e-03  0 
 2.035270e-05  -6.173354e-03  0 
 -2.692654e-03  -1.467322e-03  0 
 -3.575712e-03  -3.716375e-03  0 
 -2.032877e-03  -1.686964e-03  0 
 3.897409e-03  -3.803350e-03  0 
 -4.207692e-03  -1.835333e-03  0 
 -4.645658e-04  -1.871772e-03  0 
 -5.056017e-03  -5.546938e-03  0 
 4.041451e-03  -8.611449e-03  0 
 -5.779162e-04  -3.973938e-03  0 
 -3.210190e-03  -2.362437e-03  0 
 -2.212875e-03  -5.114097e-03  0 
 3.966167e-03  -4.938632e-03  0 
 -4.349418e-03  -2.726355e-03  0 
 8.759611e-03  -1.039827e-02  0 
 -4.293775e-03  -3.816365e-03  0 
 7.297799e-03  -8.965733e-03  0 
VECTORS displacement_ITER2 FLOAT
 -4.902023e-03  -1.529718e-03  0 
 -5.248972e-03  -1.980967e-03  0 
 -5.558042e-03  -2.519266e-03  0 
 -5.857793e-03  -3.101066e-03  0 
 -6.166618e-03  -3.709737e-03  0 
 -6.490923e-03  -4.347128e-03  0 
 -6.832560e-03  -5.018022e-03  0 
 -7.189028e-03  -5.728285e-03  0 
 -7.573836e-03  -6.475456e-03  0 
 -7.994056e-03  -7.259441e-03  0 
 9.088180e-03  -1.064793e-02  0 
 8.567986e-03  -9.625034e-03  0 
 8.129404e-03  -8.784102e-03  0 
 7.735286e-03  -8.027235e-03  0 
 7.376608e-03  -7.318697e-03  0 
 7.042319e-03  -6.645474e-03  0 
 6.729250e-03  -6.002666e-03  0 
 6.430087e-03  -5.370771e-03  0 
 6.141699e-03  -4.752975e-03  0 
 5.851332e-03  -4.154170e-03  0 
 1.170264e-04  -5.124404e-03  0 
 7.243828e-04  -1.054228e-03  0 
 3.047176e-03  -8.477563e-03  0 
 -1.894124e-03  -2.377873e-03  0 
 2.493224e-03  -3.143126e-03  0 
 -3.353956e-03  -5.718295e-03  0 
 3.620579e-03  -5.633443e-03  0 
 3.272469e-04  -2.611647e-03  0 
 -2.792412e-03  -4.743161e-04  0 
 -6.589203e-04  -9.660837e-04  0 
 -3.790911e-03  -3.603704e-03  0 
 5.573580e-03  -1.014898e-02  0 
 -1.474547e-03  -4.090814e-03  0 
 5.211725e-03  -7.506509e-03  0 
 3.944115e-03  -4.049567e-03  0 
 -3.619570e-03  -1.841409e-03  0 
 1.936624e-03  -4.494085e-03  0 
 3.228031e-03  -2.821812e-03  0 
 1.829732e-03  -6.234404e-03  0 
 -1.448814e-03  -6.426270e-03  0 
 1.626398e-03  -1.959229e-03  0 
 -5.084496e-03  -5.168090e-03  0 
 -5.253774e-04  -1.754692e-03  0 
 5.113465e-03  -5.968326e-03  0 
 3.366098e-03  -7.130872e-03  0 
 7.487699e-04  -3.687230e-03  0 
 -1.771177e-03  -1.015148e-03  0 
 -8.353493e-04  -2.891106e-03  0 
 -5.965219e-03  -6.820850e-03  0 
 3.446284e-04  -1.655681e-03  0 
 1.368716e-03  -3.043916e-03  0 
 6.464439e-03  -8.854248e-03  0 
 -3.841043e-03  -8.417515e-04  0 
 -2.343050e-03  -3.335956e-03  0 
 -4.550087e-03  -2.845739e-03  0 
 2.866867e-03  -4.142279e-03  0 
 4.755513e-03  -8.720457e-03  0 
 5.318970e-04  -6.174924e-03  0 
 -1.085384e-03  -4.980781e-03  0 
 5.064596e-03  -4.876529e-03  0 
 -3.070653e-03  -4.304191e-03  0 
 2.042103e-03  -7.371389e-03  0 
 -3.085916e-04  -4.218563e-03  0 
 -5.228518e-03  -3.987309e-03  0 
 3.252405e-03  -3.313345e-03  0 
 7.391937e-03  -1.093566e-02  0 
 -2.960078e-03  -2.497885e-03  0 
 -4.566637e-03  -6.921169e-03  0 