# vtk DataFile Version 3.1
this is an vtk file created by FEMAC
ASCII
DATASET UNSTRUCTURED_GRID
POINTS 318 FLOAT
1.000000 0.000000 0.000000
1.050000 0.000000 0.000000
1.100000 0.000000 0.000000
1.150000 0.000000 0.000000
1.200000 0.000000 0.000000
1.250000 0.000000 0.000000
1.300000 0.000000 0.000000
1.350000 0.000000 0.000000
1.400000 0.000000 0.000000
1.450000 0.000000 0.000000
1.500000 0.000000 0.000000
1.550000 0.000000 0.000000
1.600000 0.000000 0.000000
1.850000 1.000000 0.000000
1.800000 1.000000 0.000000
1.750000 1.000000 0.000000
1.700000 1.000000 0.000000
1.650000 1.000000 0.000000
1.600000 1.000000 0.000000
1.550000 1.000000 0.000000
1.500000 1.000000 0.000000
1.450000 1.000000 0.000000
1.400000 1.000000 0.000000
1.350000 1.000000 0.000000
1.300000 1.000000 0.000000
1.250000 1.000000 0.000000
1.200000 1.000000 0.000000
1.150000 1.000000 0.000000
1.076329 0.502452 0.000000
1.500000 0.569375 0.000000
1.320359 0.306294 0.000000
1.249490 0.713766 0.000000
1.039852 0.252455 0.000000
1.532942 0.782215 0.000000
1.301526 0.515763 0.000000
1.500308 0.194294 0.000000
1.205180 0.179204 0.000000
1.378274 0.836052 0.000000
1.159340 0.349935 0.000000
1.166898 0.839614 0.000000
1.358250 0.154867 0.000000
1.125047 0.647473 0.000000
1.671899 0.850065 0.000000
1.405415 0.686619 0.000000
1.610155 0.661012 0.000000
1.083863 0.128870 0.000000
1.378110 0.420337 0.000000
1.190334 0.553474 0.000000
1.269727 0.883990 0.000000
1.480636 0.885584 0.000000
1.562813 0.300336 0.000000
1.263648 0.411505 0.000000
1.431325 0.292695 0.000000
0.969725 0.104663 0.000000
1.391557 0.580088 0.000000
1.446679 0.109091 0.000000
1.295605 0.619675 0.000000
1.507486 0.680992 0.000000
1.537131 0.093587 0.000000
1.158197 0.270709 0.000000
1.586059 0.906146 0.000000
1.264317 0.098783 0.000000
1.159066 0.740123 0.000000
1.756878 0.899286 0.000000
1.456093 0.470877 0.000000
1.631547 0.758530 0.000000
1.238426 0.268466 0.000000
1.156066 0.448365 0.000000
1.169796 0.091565 0.000000
1.443990 0.769293 0.000000
1.341624 0.750878 0.000000
1.213061 0.648234 0.000000
1.238262 0.802136 0.000000
1.367397 0.237427 0.000000
1.349455 0.913745 0.000000
1.287262 0.208090 0.000000
1.193791 0.917309 0.000000
1.375000 0.076027 0.000000
1.835514 0.921399 0.000000
1.087680 0.316190 0.000000
1.377025 0.499179 0.000000
1.227393 0.480645 0.000000
1.425468 0.188572 0.000000
1.674351 0.924315 0.000000
1.086061 0.720347 0.000000
1.598269 0.825753 0.000000
1.450373 0.625803 0.000000
1.129845 0.187300 0.000000
1.236885 0.342643 0.000000
1.421290 0.929382 0.000000
1.383837 0.347881 0.000000
1.036872 0.065492 0.000000
1.571732 0.725477 0.000000
1.334270 0.679785 0.000000
1.306271 0.822968 0.000000
1.245324 0.564386 0.000000
1.497601 0.273219 0.000000
1.119351 0.551323 0.000000
1.525164 0.936823 0.000000
1.114008 0.410768 0.000000
1.327003 0.380627 0.000000
1.105233 0.059372 0.000000
1.533914 0.848591 0.000000
1.320763 0.446520 0.000000
1.618119 0.328376 0.000000
1.501584 0.062628 0.000000
1.059205 0.188026 0.000000
1.444793 0.845083 0.000000
1.506547 0.142413 0.000000
1.041304 0.446854 0.000000
1.443004 0.542723 0.000000
1.430941 0.427732 0.000000
1.225937 0.049433 0.000000
1.206724 0.413862 0.000000
1.321304 0.063100 0.000000
1.141990 0.941186 0.000000
1.189127 0.317892 0.000000
1.333527 0.574536 0.000000
1.164810 0.601777 0.000000
1.275000 0.944569 0.000000
1.301378 0.261369 0.000000
1.374414 0.635611 0.000000
1.516577 0.330975 0.000000
1.530804 0.523358 0.000000
1.492349 0.735404 0.000000
1.217019 0.864007 0.000000
1.523129 0.623644 0.000000
1.129072 0.792137 0.000000
1.627363 0.949167 0.000000
1.170114 0.682810 0.000000
1.304429 0.774531 0.000000
1.423420 0.047299 0.000000
1.445368 0.353589 0.000000
1.040803 0.131925 0.000000
1.445022 0.231507 0.000000
1.218951 0.129149 0.000000
1.187941 0.230545 0.000000
1.722200 0.948262 0.000000
1.085676 0.220487 0.000000
1.212072 0.753992 0.000000
1.376600 0.297564 0.000000
1.580860 0.050453 0.000000
1.396541 0.741602 0.000000
1.305031 0.154947 0.000000
1.723144 0.858998 0.000000
1.641216 0.701238 0.000000
1.789897 0.855360 0.000000
1.492483 0.817086 0.000000
1.786996 0.946801 0.000000
1.472755 0.953112 0.000000
1.259177 0.662741 0.000000
1.034530 0.530246 0.000000
1.397780 0.121512 0.000000
1.457747 0.696990 0.000000
1.635208 0.890518 0.000000
1.125011 0.502594 0.000000
1.133016 0.135520 0.000000
1.408163 0.877532 0.000000
1.487118 0.434475 0.000000
1.558238 0.663448 0.000000
1.185379 0.791620 0.000000
1.089864 0.459102 0.000000
0.991102 0.052432 0.000000
1.535338 0.245627 0.000000
1.005574 0.485582 0.000000
1.137194 0.887505 0.000000
1.134234 0.314305 0.000000
1.335374 0.865354 0.000000
1.266962 0.296893 0.000000
1.252641 0.163237 0.000000
1.336947 0.111539 0.000000
1.659939 0.800898 0.000000
1.583475 0.773053 0.000000
1.226037 0.955839 0.000000
1.337316 0.197091 0.000000
1.379413 0.954132 0.000000
1.403583 0.464431 0.000000
1.233755 0.223013 0.000000
1.566314 0.952504 0.000000
1.181086 0.044650 0.000000
1.480314 0.516848 0.000000
1.401323 0.792087 0.000000
1.325347 0.954683 0.000000
1.180797 0.498419 0.000000
1.216373 0.688262 0.000000
1.108862 0.590114 0.000000
1.207719 0.601539 0.000000
1.277684 0.040957 0.000000
1.304493 0.724571 0.000000
1.607748 0.292433 0.000000
1.109590 0.356088 0.000000
1.453868 0.152657 0.000000
1.345728 0.801230 0.000000
1.288253 0.359693 0.000000
1.712177 0.899547 0.000000
1.121967 0.700018 0.000000
1.280124 0.464638 0.000000
1.182364 0.962867 0.000000
1.379963 0.191754 0.000000
1.256465 0.520014 0.000000
1.412304 0.256177 0.000000
1.258796 0.836822 0.000000
1.065724 0.041305 0.000000
1.249963 0.614171 0.000000
1.472169 0.312460 0.000000
1.117780 0.841793 0.000000
1.409977 0.377732 0.000000
1.534007 0.895000 0.000000
1.307661 0.905893 0.000000
1.046660 0.296014 0.000000
1.057300 0.344016 0.000000
1.158346 0.395032 0.000000
1.358572 0.456975 0.000000
1.367394 0.708690 0.000000
1.237133 0.913447 0.000000
1.343607 0.527763 0.000000
1.801705 0.895397 0.000000
1.338380 0.269674 0.000000
1.446551 0.590613 0.000000
1.078032 0.680051 0.000000
1.338223 0.616713 0.000000
1.826728 0.963654 0.000000
1.097472 0.270731 0.000000
1.114849 0.745599 0.000000
1.178978 0.143889 0.000000
1.468469 0.036902 0.000000
1.068472 0.416228 0.000000
1.201432 0.456027 0.000000
1.079395 0.542879 0.000000
1.476196 0.649846 0.000000
1.425797 0.505355 0.000000
1.368420 0.034916 0.000000
1.534777 0.038857 0.000000
1.178726 0.877109 0.000000
1.025971 0.211573 0.000000
1.198728 0.366612 0.000000
1.168799 0.200797 0.000000
1.416723 0.617540 0.000000
1.506376 0.481428 0.000000
1.292518 0.553009 0.000000
1.540325 0.742436 0.000000
1.092202 0.168767 0.000000
1.674845 0.965358 0.000000
1.629447 0.845353 0.000000
1.343236 0.345624 0.000000
1.582278 0.861101 0.000000
1.169946 0.641907 0.000000
1.028739 0.031846 0.000000
1.385753 0.538274 0.000000
1.559044 0.816347 0.000000
1.485525 0.105827 0.000000
0.991335 0.143712 0.000000
1.363606 0.380382 0.000000
1.136422 0.040224 0.000000
1.073460 0.089592 0.000000
1.217485 0.520277 0.000000
1.609834 0.725457 0.000000
1.303273 0.412609 0.000000
1.425000 0.969019 0.000000
1.483216 0.779672 0.000000
1.301659 0.655370 0.000000
1.330269 0.485140 0.000000
1.446639 0.898334 0.000000
1.572920 0.339943 0.000000
1.437007 0.729337 0.000000
1.461457 0.200429 0.000000
1.836979 0.879874 0.000000
1.226243 0.300962 0.000000
1.387052 0.910353 0.000000
1.236065 0.441210 0.000000
1.431275 0.654581 0.000000
1.679364 0.886622 0.000000
1.015825 0.099361 0.000000
1.621869 0.795374 0.000000
1.121203 0.092405 0.000000
1.196714 0.718111 0.000000
1.152393 0.533763 0.000000
1.241137 0.379932 0.000000
1.526043 0.368697 0.000000
1.414960 0.086864 0.000000
1.137988 0.230095 0.000000
1.575228 0.631781 0.000000
1.482485 0.611175 0.000000
1.298283 0.859637 0.000000
1.263975 0.762049 0.000000
1.452226 0.386674 0.000000
1.668219 0.747864 0.000000
1.371060 0.877899 0.000000
1.417413 0.327718 0.000000
1.499490 0.853571 0.000000
1.264922 0.248784 0.000000
1.326347 0.234730 0.000000
1.206905 0.821722 0.000000
1.274346 0.799701 0.000000
1.370373 0.677676 0.000000
1.483665 0.355770 0.000000
1.403066 0.161872 0.000000
1.589103 0.695384 0.000000
1.543321 0.701549 0.000000
1.045003 0.483931 0.000000
1.405882 0.219415 0.000000
1.525000 0.973358 0.000000
1.522898 0.296376 0.000000
1.147150 0.566090 0.000000
1.492833 0.919953 0.000000
1.201500 0.269721 0.000000
1.456773 0.074768 0.000000
1.459216 0.269088 0.000000
1.484601 0.236851 0.000000
1.341888 0.416242 0.000000
1.285456 0.689564 0.000000
1.081049 0.381893 0.000000
1.206511 0.092911 0.000000
1.325000 0.025499 0.000000
1.456473 0.802954 0.000000
1.060514 0.158111 0.000000
1.026576 0.170797 0.000000
1.283387 0.585155 0.000000
CELLS 555 2220 
3 103 261 196
3 248 117 215
3 54 117 248
3 106 138 234
3 234 138  32
3 196 261  34
3 88 235 116
3 70 142 181
3 77 152 170
3 47  95 186
3 40 170 152
3 38 116 235
3 15 137 148
3 98 207 178
3 70 181 192
3 34 199 196
3 76 115 165
3 178 207  60
3 47 255  95
3 54 110 218
3 58 105 232
3 61 114 170
3 67 161  99
3 133 272 254
3 94 130 192
3 4   5 112
3 70 192 130
3 88 116 267
3 93 220 121
3 35 191 108
3 45 133 254
3 37 167 192
3 94 192 167
3 99 190 211
3 211 190  38
3 93 260 220
3 37 181 107
3 54 218 237
3 55 191 152
3 152 191 296
3 61 170 143
3 32 222 209
3 77 114 231
3 58 250 105
3 28 155 228
3 97 228 155
3 67  99 211
3 154 245 243
3 58 232 141
3 51 193 257
3 60 245 154
3 17  18 128
3 253 101   2
3 122 263 278
3 37 107 157
3 101 202   2
3 240 124 298
3 136 177 305
3 184  31 275
3 24  25 119
3 14  15 148
3 124  57 298
3 109 161 299
3 33 249 147
3 102 147 249
3 76 125 214
3 32 138 222
3 61 169 135
3 75 143 174
3 40 174 143
3 230  64 180
3 110 230 180
3 58 108 250
3 87 224 236
3 8   9 131
3 64 111 158
3 49 262 107
3 31 139 275
3 61 143 169
3 54 220 117
3 49 107 289
3 305 177  66
3 43 121 270
3 28 299 161
3 50 263 122
3 61 312 112
3 59 116 166
3 87 156 224
3 63 148 137
3 41 185 118
3 62 160 127
3 17 128 242
3 76 165 233
3 63 144 146
3 87 138 241
3 54 121 220
3 76 233 125
3 114 313 231
3 68 274 253
3 50 302 163
3 284  31 188
3 100 257 193
3 10 232 105
3 83 128 154
3 60 154 128
3 10 105 225
3 290 168  66
3 61 112 187
3 106 241 138
3 120 168 290
3 29 110 180
3 111 285 158
3 121 237 270
3 5 187 112
3 61 187 114
3 64 176 111
3 130 284 188
3 57 124 153
3 62 195 129
3 35 265 191
3 206  90 288
3 62 139 160
3 30 244 193
3 47 186 118
3 118 186 246
3 246 186  71
3 81 196 199
3 8 131 231
3 68 253 179
3 77 170 114
3 15  16 137
3 61 135 312
3 38 166 116
3 97 185 228
3 48 214 125
3 46 111 176
3 59 280 136
3 62 223 195
3 60 128 178
3 30 168 120
3 4 112 179
3 59 305 116
3 91 254 272
3 57 126 159
3 132 206 288
3 72 160 139
3 92 172 240
3 39 127 160
3 107 181 314
3 83 242 128
3 70 188 213
3 69 264 124
3 39 205 127
3 136 280 236
3 100 193 244
3 50 122 302
3 57 229 126
3 190 311 210
3 25 173 119
3 43 294 121
3 29 218 110
3 79 190 210
3 29 180 123
3 54 248 110
3 90 244 140
3 44 145 297
3 67 211 113
3 126 281 159
3 20  21 149
3 30 140 244
3 77 231 131
3 18 178 128
3 93 213 188
3 24 119 182
3 47 118 303
3 67 155 161
3 11  12 141
3 46 206 111
3 51 277 193
3 51 269 113
3 145 256 297
3 27 115 197
3 45 315 133
3 107 147 289
3 67 113 227
3 89 262 149
3 70 130 188
3 277  51 113
3 42 144 271
3 93 121 294
3 107 262 157
3 76 197 115
3 23 182 175
3 16 242 137
3 149 262 304
3 56 317 117
3 59 136 305
3 124 264 153
3 82 296 191
3 92 256 172
3 41 195 219
3 36 135 169
3 48 119 214
3 67 183 155
3 45 254 274
3 135 224 312
3 33 240 172
3 56 117 220
3 28 161 155
3 41 118 246
3 71 184 129
3 75 291 120
3 48 208 119
3 48 125 201
3 144 194 271
3 94 293 130
3 109 226 161
3 75 169 143
3 40 143 170
3 312 224  68
3 30 193 168
3 20 149 301
3 71 150 184
3 31 184 150
3 118 185 303
3 83 137 242
3 59 166 222
3 33 259 124
3 36 177 136
3 55 250 191
3 108 191 250
3 75 177 169
3 36 169 177
3 69 314 181
3 151 164 299
3 6 313 187
3 49 289 207
3 96 163 302
3 125 292 201
3 38 190 166
3 56 220 260
3 171 243 273
3 74 175 182
3 78 148 216
3 63 216 148
3 30 120 217
3 72 201 292
3 83 194 137
3 63 137 194
3 75 120 290
3 54 237 121
3 98 301 149
3 87 280 138
3 45 274 156
3 126 229 282
3 41 129 195
3 101 253 274
3 77 131 279
3 69 181 142
3 53 162 272
3 39 292 125
3 69 124 259
3 79 209 222
3 73 200 140
3 52 140 200
3 33 124 240
3 39 125 233
3 114 187 313
3 5   6 187
3 84 195 223
3 43 264 142
3 146 266 216
3 29 126 282
3 22  23 175
3 41 246 129
3 38 235 211
3 113 211 235
3 62 127 223
3 74 208 167
3 18  19 178
3 45 156 241
3 87 241 156
3 42 243 171
3 49 207 304
3 82 134 300
3 34 215 239
3 117 239 215
3 9 225 131
3 71 129 246
3 62 129 275
3 79 222 166
3 82 265 134
3 43 153 264
3 65 172 256
3 25  26 173
3 95 255 199
3 86 237 218
3 68 224 156
3 70 213 142
3 33 147 259
3 55 279 306
3 23  24 182
3 131 306 279
3 36 236 224
3 90 140 288
3 37 192 181
3 28 151 299
3 138 280 222
3 280  59 222
3 63 194 144
3 167 208 283
3 52 288 140
3 96 302 204
3 50 189 263
3 104 263 189
3 72 139 284
3 103 309 212
3 91 272 162
3 155 183 276
3 36 224 135
3 3   4 179
3 89 149 258
3 21 258 149
3 71 203 150
3 72 292 160
3 95 203 186
3 101 274 254
3 112 312 179
3 30 217 140
3 73 140 217
3 122 204 302
3 52 204 288
3 132 288 204
3 36 136 236
3 68 179 312
3 43 142 213
3 72 284 293
3 79 166 190
3 56 150 203
3 64 230 176
3 123 180 238
3 31 284 139
3 65 145 286
3 97 303 185
3 52 200 307
3 134 307 200
3 26 197 173
3 14 148 221
3 75 174 291
3 62 275 139
3 63 146 216
3 11 141 232
3 88 168 193
3 65 286 171
3 10  11 232
3 102 207 289
3 76 173 197
3 85 243 245
3 78 221 148
3 69 142 264
3 132 285 206
3 51 257 196
3 103 196 257
3 26  27 197
3 1   2 202
3 130 293 284
3 39 160 292
3 55 152 279
3 85 273 243
3 49 304 262
3 28 228 151
3 43 270 153
3 73 174 198
3 31 150 310
3 107 314 147
3 46 212 309
3 119 173 214
3 57 153 229
3 2   3 253
3 98 149 304
3 35 163 308
3 96 308 163
3 117 317 239
3 80 176 230
3 65 256 145
3 9  10 225
3 64 158 238
3 102 289 147
3 39 165 205
3 40 152 296
3 74 182 208
3 119 208 182
3 99 161 226
3 56 260 150
3 39 233 165
3 77 279 152
3 84 219 195
3 40 198 174
3 42 154 243
3 83 154 271
3 42 271 154
3 93 188 310
3 46 176 212
3 80 212 176
3 71 186 203
3 66 177 290
3 66 168 267
3 88 267 168
3 37 157 287
3 89 258 175
3 22 175 258
3 85 249 172
3 33 172 249
3 97 155 276
3 80 248 215
3 89 157 262
3 68 156 274
3 0 247 162
3 47 276 183
3 13  14 221
3 89 268 157
3 60 207 245
3 102 245 207
3 76 214 173
3 95 317 203
3 48 283 208
3 34 239 199
3 95 199 239
3 53 272 251
3 133 251 272
3 19 301 178
3 98 178 301
3 91 162 247
3 44 159 281
3 64 238 180
3 44 297 159
3 57 159 298
3 67 227 183
3 81 183 227
3 101 254 202
3 91 202 254
3 98 304 207
3 88 193 277
3 86 282 229
3 75 290 177
3 93 310 260
3 74 167 287
3 86 270 237
3 89 175 268
3 74 268 175
3 7   8 231
3 37 287 167
3 109 299 164
3 134 200 300
3 0   1 247
3 129 184 275
3 16  17 242
3 94 167 283
3 79 210 209
3 113 235 277
3 7 231 313
3 85 172 273
3 65 273 172
3 82 191 265
3 21  22 258
3 65 171 273
3 80 261 212
3 110 248 230
3 73 291 174
3 80 215 261
3 3 179 253
3 81 255 183
3 47 183 255
3 1 202 247
3 91 247 202
3 96 204 307
3 19  20 301
3 73 198 300
3 111 206 285
3 6   7 313
3 81 269 196
3 153 270 229
3 40 296 198
3 85 245 249
3 102 249 245
3 90 206 252
3 46 252 206
3 92 240 298
3 133 316 251
3 103 257 309
3 113 269 227
3 73 300 200
3 29 282 218
3 134 265 308
3 35 308 265
3 81 199 255
3 87 236 280
3 31 310 188
3 103 212 261
3 81 227 269
3 83 271 194
3 92 297 256
3 51 196 269
3 52 307 204
3 99 311 190
3 78 216 266
3 94 283 201
3 48 201 283
3 56 203 317
3 80 230 248
3 34 261 215
3 131 225 306
3 73 217 291
3 100 244 252
3 132 295 285
3 94 201 293
3 72 293 201
3 82 198 296
3 132 204 295
3 122 295 204
3 82 300 198
3 74 287 268
3 90 252 244
3 122 278 295
3 93 294 213
3 86 229 270
3 86 218 282
3 66 267 305
3 116 305 267
3 43 213 294
3 120 291 217
3 99 226 311
3 88 277 235
3 106 234 316
3 47 303 276
3 105 306 225
3 55 306 250
3 105 250 306
3 100 252 309
3 45 241 315
3 106 315 241
3 92 298 297
3 159 297 298
3 134 308 307
3 96 307 308
3 46 309 252
3 157 268 287
3 147 314 259
3 95 239 317
3 100 309 257
3 150 260 310
3 69 259 314
3 97 276 303
3 133 315 316
3 106 316 315
CELL_TYPES 555
5 5 5 5 5 5 5 5 5 5 5 5 5 5 5 5 5 5 5 5 5 5 5 5 5 5 5 5 5 5 5 5 5 5 5 5 5 5 5 5 5 5 5 5 5 5 5 5 5 5 5 5 5 5 5 5 5 5 5 5 5 5 5 5 5 5 5 5 5 5 5 5 5 5 5 5 5 5 5 5 5 5 5 5 5 5 5 5 5 5 5 5 5 5 5 5 5 5 5 5 5 5 5 5 5 5 5 5 5 5 5 5 5 5 5 5 5 5 5 5 5 5 5 5 5 5 5 5 5 5 5 5 5 5 5 5 5 5 5 5 5 5 5 5 5 5 5 5 5 5 5 5 5 5 5 5 5 5 5 5 5 5 5 5 5 5 5 5 5 5 5 5 5 5 5 5 5 5 5 5 5 5 5 5 5 5 5 5 5 5 5 5 5 5 5 5 5 5 5 5 5 5 5 5 5 5 5 5 5 5 5 5 5 5 5 5 5 5 5 5 5 5 5 5 5 5 5 5 5 5 5 5 5 5 5 5 5 5 5 5 5 5 5 5 5 5 5 5 5 5 5 5 5 5 5 5 5 5 5 5 5 5 5 5 5 5 5 5 5 5 5 5 5 5 5 5 5 5 5 5 5 5 5 5 5 5 5 5 5 5 5 5 5 5 5 5 5 5 5 5 5 5 5 5 5 5 5 5 5 5 5 5 5 5 5 5 5 5 5 5 5 5 5 5 5 5 5 5 5 5 5 5 5 5 5 5 5 5 5 5 5 5 5 5 5 5 5 5 5 5 5 5 5 5 5 5 5 5 5 5 5 5 5 5 5 5 5 5 5 5 5 5 5 5 5 5 5 5 5 5 5 5 5 5 5 5 5 5 5 5 5 5 5 5 5 5 5 5 5 5 5 5 5 5 5 5 5 5 5 5 5 5 5 5 5 5 5 5 5 5 5 5 5 5 5 5 5 5 5 5 5 5 5 5 5 5 5 5 5 5 5 5 5 5 5 5 5 5 5 5 5 5 5 5 5 5 5 5 5 5 5 5 5 5 5 5 5 5 5 5 5 5 5 5 5 5 5 5 5 5 5 5 5 5 5 5 5 5 5 5 5 5 5 5 5 5 5 5 5 5 5 5 5 5 5 5 5 5 5 5 5 5 5 5 5 5 5 5 5 5 5 5 5 5 5 5 5 5 5 5 5 5 5 5 5 5 5 5 5 5 5 5 5 5 5 5 5 5 5 5 5 5 5 5 5 
POINT_DATA 318
VECTORS displacement_ITER1 FLOAT
 -1.613421e-03  1.376641e-03  0 
 -1.843876e-03  1.367738e-03  0 
 -2.069636e-03  1.256272e-03  0 
 -2.294048e-03  1.093634e-03  0 
 -2.519177e-03  8.974602e-04  0 
 -2.749107e-03  6.732922e-04  0 
 -2.986632e-03  4.219027e-04  0 
 -3.239778e-03  1.473281e-04  0 
 -3.523413e-03  -1.634534e-04  0 
 -3.848194e-03  -5.357977e-04  0 
 -4.244472e-03  -1.010833e-03  0 
 -4.699752e-03  -1.671231e-03  0 
 -5.189716e-03  -2.656848e-03  0 
 4.884987e-03  -2.511486e-03  0 
 4.715464e-03  -2.476603e-03  0 
 4.552403e-03  -2.360253e-03  0 
 4.441036e-03  -2.186387e-03  0 
 4.330291e-03  -1.912159e-03  0 
 4.170103e-03  -1.564275e-03  0 
 3.966281e-03  -1.183637e-03  0 
 3.737542e-03  -8.129939e-04  0 
 3.500319e-03  -4.670347e-04  0 
 3.261933e-03  -1.494377e-04  0 
 3.026416e-03  1.429070e-04  0 
 2.790702e-03  4.066301e-04  0 
 2.554453e-03  6.415175e-04  0 
 2.296419e-03  8.317601e-04  0 
 2.004431e-03  9.144309e-04  0 
 1.727544e-05  1.484442e-03  0 
 5.890889e-04  -6.525914e-04  0 
 -1.223886e-03  3.855656e-04  0 
 1.203070e-03  7.340934e-04  0 
 -1.074570e-03  1.582823e-03  0 
 2.283847e-03  -9.135830e-04  0 
 1.160192e-04  5.177360e-04  0 
 -2.372308e-03  -7.752747e-04  0 
 -1.723303e-03  9.322515e-04  0 
 2.190280e-03  4.194318e-05  0 
 -7.558126e-04  1.164332e-03  0 
 1.634406e-03  1.020693e-03  0 
 -2.285056e-03  1.284463e-04  0 
 7.390835e-04  1.275179e-03  0 
 3.451919e-03  -2.068120e-03  0 
 1.318173e-03  -7.866203e-05  0 
 1.547466e-03  -1.382192e-03  0 
 -1.630292e-03  1.346768e-03  0 
 -5.258574e-04  9.898530e-05  0 
 2.901102e-04  1.043515e-03  0 
 2.116640e-03  5.864909e-04  0 
 2.853837e-03  -6.157371e-04  0 
 -1.966734e-03  -1.358628e-03  0 
 -5.098245e-04  7.053904e-04  0 
 -1.549507e-03  -2.999495e-04  0 
 -1.422594e-03  1.587428e-03  0 
 5.885650e-04  2.067767e-05  0 
 -2.876755e-03  -4.759478e-04  0 
 7.427877e-04  5.351910e-04  0 
 1.480939e-03  -7.209328e-04  0 
 -3.270279e-03  -1.370191e-03  0 
 -1.170460e-03  1.150350e-03  0 
 3.441164e-03  -1.400506e-03  0 
 -2.314462e-03  6.439946e-04  0 
 1.155284e-03  1.107711e-03  0 
 4.325321e-03  -2.357339e-03  0 
 -1.499834e-04  -3.895073e-04  0 
 2.341237e-03  -1.634694e-03  0 
 -1.314101e-03  7.943022e-04  0 
 -2.405300e-04  1.200467e-03  0 
 -2.021354e-03  1.053735e-03  0 
 1.951476e-03  -3.301462e-04  0 
 1.590690e-03  2.651855e-04  0 
 8.089504e-04  9.182070e-04  0 
 1.634182e-03  7.493895e-04  0 
 -1.769790e-03  8.196871e-05  0 
 2.544223e-03  1.794492e-04  0 
 -1.764072e-03  5.406906e-04  0 
 2.026388e-03  8.820501e-04  0 
 -2.870113e-03  2.548194e-05  0 
 4.678904e-03  -2.414176e-03  0 
 -8.469145e-04  1.450945e-03  0 
 2.739648e-05  1.053849e-04  0 
 -9.562963e-05  8.857828e-04  0 
 -2.238842e-03  -3.099293e-04  0 
 3.991267e-03  -2.060951e-03  0 
 9.195721e-04  1.318950e-03  0 
 2.847165e-03  -1.409625e-03  0 
 9.741202e-04  -3.383279e-04  0 
 -1.513197e-03  1.231872e-03  0 
 -8.864317e-04  8.193318e-04  0 
 2.915415e-03  -2.489244e-04  0 
 -1.049861e-03  4.008396e-05  0 
 -1.688135e-03  1.417267e-03  0 
 1.944342e-03  -1.166445e-03  0 
 1.153478e-03  3.215223e-04  0 
 1.912872e-03  4.270151e-04  0 
 3.821068e-04  7.903855e-04  0 
 -1.896365e-03  -7.864025e-04  0 
 2.275784e-04  1.339236e-03  0 
 3.396124e-03  -9.624056e-04  0 
 -3.870392e-04  1.363136e-03  0 
 -7.548843e-04  3.732863e-04  0 
 -1.919211e-03  1.258974e-03  0 
 2.786452e-03  -9.588096e-04  0 
 -3.224986e-04  4.174797e-04  0 
 -1.703338e-03  -2.581011e-03  0 
 -3.522841e-03  -9.912448e-04  0 
 -1.365690e-03  1.456539e-03  0 
 2.453719e-03  -3.596866e-04  0 
 -2.746003e-03  -9.146302e-04  0 
 -1.499764e-04  1.583061e-03  0 
 3.627955e-04  -2.908234e-04  0 
 -4.932499e-04  -2.211136e-04  0 
 -2.412760e-03  8.066257e-04  0 
 -4.559405e-04  9.738908e-04  0 
 -2.730836e-03  3.365870e-04  0 
 1.948778e-03  9.992630e-04  0 
 -9.652752e-04  1.029947e-03  0 
 5.024761e-04  3.446522e-04  0 
 5.264032e-04  1.133755e-03  0 
 2.417957e-03  5.497084e-04  0 
 -1.471831e-03  4.742472e-04  0 
 9.351745e-04  1.112466e-04  0 
 -1.493339e-03  -8.860296e-04  0 
 2.523121e-04  -8.634529e-04  0 
 1.836562e-03  -6.284797e-04  0 
 1.872687e-03  8.157670e-04  0 
 1.096615e-03  -8.159255e-04  0 
 1.336161e-03  1.203857e-03  0 
 3.929118e-03  -1.744501e-03  0 
 9.275657e-04  1.092080e-03  0 
 1.642708e-03  4.498698e-04  0 
 -3.299264e-03  -3.022337e-04  0 
 -1.123064e-03  -3.429102e-04  0 
 -1.512635e-03  1.454235e-03  0 
 -2.010957e-03  -4.280844e-04  0 
 -2.008866e-03  8.617783e-04  0 
 -1.426374e-03  1.014718e-03  0 
 4.299059e-03  -2.275627e-03  0 
 -1.286822e-03  1.401542e-03  0 
 1.336267e-03  8.846325e-04  0 
 -1.385822e-03  5.600924e-05  0 
 -3.999430e-03  -2.133989e-03  0 
 1.657886e-03  -4.031548e-05  0 
 -2.128885e-03  4.390747e-04  0 
 4.068378e-03  -2.303641e-03  0 
 1.897750e-03  -1.659210e-03  0 
 4.571438e-03  -2.323189e-03  0 
 2.416719e-03  -6.565021e-04  0 
 4.534384e-03  -2.417811e-03  0 
 3.285943e-03  -5.969323e-04  0 
 9.437069e-04  7.040139e-04  0 
 9.217204e-05  1.576589e-03  0 
 -2.632861e-03  -1.200865e-04  0 
 1.491861e-03  -4.008891e-04  0 
 3.573692e-03  -1.766076e-03  0 
 2.061709e-05  1.327623e-03  0 
 -1.735366e-03  1.199390e-03  0 
 2.540070e-03  -1.474433e-04  0 
 -4.099237e-04  -6.107829e-04  0 
 1.463028e-03  -1.049720e-03  0 
 1.458477e-03  9.763049e-04  0 
 -1.477697e-04  1.450431e-03  0 
 -1.591550e-03  1.461443e-03  0 
 -2.191804e-03  -1.037701e-03  0 
 -4.662009e-06  1.635916e-03  0 
 1.756050e-03  1.092655e-03  0 
 -9.138615e-04  1.260978e-03  0 
 2.228049e-03  2.688833e-04  0 
 -1.196286e-03  6.622283e-04  0 
 -1.929724e-03  7.093834e-04  0 
 -2.497000e-03  2.563760e-04  0 
 2.791168e-03  -1.931442e-03  0 
 2.348160e-03  -1.270465e-03  0 
 2.271516e-03  7.583767e-04  0 
 -1.956233e-03  2.575243e-04  0 
 2.895206e-03  -4.555283e-06  0 
 -2.140410e-04  -5.149141e-05  0 
 -1.557359e-03  8.093290e-04  0 
 3.688631e-03  -1.283427e-03  0 
 -2.253380e-03  9.937520e-04  0 
 1.876889e-04  -5.314978e-04  0 
 1.985412e-03  -7.884482e-05  0 
 2.672084e-03  2.952460e-04  0 
 4.504217e-07  1.097096e-03  0 
 1.016755e-03  8.925060e-04  0 
 4.068937e-04  1.391733e-03  0 
 5.595431e-04  9.518415e-04  0 
 -2.670109e-03  5.556156e-04  0 
 1.363725e-03  4.654503e-04  0 
 -2.463139e-03  -2.301397e-03  0 
 -6.669001e-04  1.373924e-03  0 
 -2.548542e-03  -5.127965e-04  0 
 1.896785e-03  2.282293e-04  0 
 -8.450998e-04  5.722547e-04  0 
 4.079205e-03  -2.246998e-03  0 
 9.234194e-04  1.250648e-03  0 
 -1.975416e-04  6.301298e-04  0 
 2.121648e-03  9.016052e-04  0 
 -2.100790e-03  -8.387710e-06  0 
 1.322011e-04  7.444510e-04  0 
 -1.755372e-03  -1.968747e-04  0 
 1.857614e-03  6.476300e-04  0 
 -1.830084e-03  1.354784e-03  0 
 6.641115e-04  7.575756e-04  0 
 -1.513965e-03  -5.639746e-04  0 
 1.516329e-03  1.190123e-03  0 
 -8.693997e-04  -9.971120e-05  0 
 3.128991e-03  -9.953947e-04  0 
 2.350850e-03  4.018882e-04  0 
 -8.940975e-04  1.601446e-03  0 
 -6.710250e-04  1.591479e-03  0 
 -5.147011e-04  1.178199e-03  0 
 -2.633662e-04  2.118482e-04  0 
 1.388516e-03  1.350723e-04  0 
 2.144970e-03  7.207899e-04  0 
 2.075764e-04  2.924398e-04  0 
 4.555521e-03  -2.355503e-03  0 
 -1.493291e-03  2.693535e-04  0 
 7.138471e-04  -3.085923e-04  0 
 8.284278e-04  1.329810e-03  0 
 7.716066e-04  3.129016e-04  0 
 4.738558e-03  -2.530529e-03  0 
 -1.081915e-03  1.391565e-03  0 
 1.079179e-03  1.271846e-03  0 
 -1.823715e-03  1.033859e-03  0 
 -3.631243e-03  -6.706276e-04  0 
 -3.075365e-04  1.532184e-03  0 
 -2.243849e-04  1.003241e-03  0 
 1.550774e-04  1.480259e-03  0 
 1.193418e-03  -5.096385e-04  0 
 8.940167e-05  -1.907279e-04  0 
 -3.117628e-03  5.453031e-05  0 
 -3.993362e-03  -1.417477e-03  0 
 1.824009e-03  9.525340e-04  0 
 -1.208620e-03  1.581719e-03  0 
 -7.082825e-04  9.977740e-04  0 
 -1.536388e-03  1.087372e-03  0 
 8.708216e-04  -1.319161e-04  0 
 -6.088771e-05  -6.948267e-04  0 
 3.420446e-04  5.619628e-04  0 
 2.001534e-03  -9.535469e-04  0 
 -1.506614e-03  1.346166e-03  0 
 4.204810e-03  -2.056650e-03  0 
 3.161028e-03  -1.674799e-03  0 
 -1.003321e-03  2.741113e-04  0 
 3.074287e-03  -1.320138e-03  0 
 7.362333e-04  1.099694e-03  0 
 -1.721869e-03  1.410612e-03  0 
 3.005889e-04  5.356057e-05  0 
 2.629224e-03  -1.113405e-03  0 
 -3.010579e-03  -7.951523e-04  0 
 -1.358643e-03  1.568901e-03  0 
 -7.950402e-04  1.717452e-04  0 
 -2.096327e-03  1.157451e-03  0 
 -1.728418e-03  1.354159e-03  0 
 1.235318e-04  9.283534e-04  0 
 2.025748e-03  -1.443657e-03  0 
 -5.297739e-04  5.057198e-04  0 
 3.184046e-03  -2.905824e-04  0 
 2.126242e-03  -5.838482e-04  0 
 9.591459e-04  4.966847e-04  0 
 -7.405733e-05  3.682479e-04  0 
 2.812524e-03  -3.974005e-04  0 
 -1.415196e-03  -1.518089e-03  0 
 1.667605e-03  -2.797069e-04  0 
 -2.254757e-03  -5.441631e-04  0 
 4.776014e-03  -2.236646e-03  0 
 -1.110336e-03  8.585501e-04  0 
 2.665166e-03  -3.439268e-05  0 
 -3.212283e-04  8.424459e-04  0 
 1.146853e-03  -2.262053e-04  0 
 3.791684e-03  -2.104475e-03  0 
 -1.548403e-03  1.483498e-03  0 
 2.643426e-03  -1.587049e-03  0 
 -1.861253e-03  1.221067e-03  0 
 1.131101e-03  9.674022e-04  0 
 1.691836e-04  1.213875e-03  0 
 -6.759229e-04  8.073663e-04  0 
 -1.153865e-03  -9.758262e-04  0 
 -2.951024e-03  -2.413667e-04  0 
 -1.337383e-03  1.218587e-03  0 
 1.305431e-03  -1.123878e-03  0 
 9.135493e-04  -5.382826e-04  0 
 2.082995e-03  4.570771e-04  0 
 1.486781e-03  6.491065e-04  0 
 -8.504672e-04  -3.632418e-04  0 
 2.331444e-03  -1.913456e-03  0 
 2.415766e-03  6.877294e-05  0 
 -1.258844e-03  -1.805450e-04  0 
 2.698366e-03  -7.248842e-04  0 
 -1.476481e-03  6.611148e-04  0 
 -1.691635e-03  3.279761e-04  0 
 1.652022e-03  8.728873e-04  0 
 1.707542e-03  5.873558e-04  0 
 1.198720e-03  1.226866e-04  0 
 -1.220454e-03  -5.973106e-04  0 
 -2.361882e-03  -1.621578e-04  0 
 1.752351e-03  -1.271816e-03  0 
 1.705195e-03  -9.625979e-04  0 
 -3.372250e-05  1.562946e-03  0 
 -1.984744e-03  -1.710863e-04  0 
 3.658833e-03  -9.824521e-04  0 
 -1.816948e-03  -9.825018e-04  0 
 3.214922e-04  1.225716e-03  0 
 3.140236e-03  -7.195443e-04  0 
 -1.243868e-03  9.641931e-04  0 
 -3.210587e-03  -5.573691e-04  0 
 -1.798094e-03  -5.082415e-04  0 
 -2.091465e-03  -6.967570e-04  0 
 -5.319194e-04  3.009326e-04  0 
 1.131961e-03  5.692418e-04  0 
 -4.981801e-04  1.502156e-03  0 
 -2.139294e-03  9.062097e-04  0 
 -2.967688e-03  2.995651e-04  0 
 2.210868e-03  -4.196065e-04  0 
 -1.473066e-03  1.426755e-03  0 
 -1.355850e-03  1.514753e-03  0 
 5.273942e-04  6.021714e-04  0 
VECTORS displacement_ITER2 FLOAT
 -1.641131e-03  1.438684e-03  0 
 -1.873084e-03  1.355550e-03  0 
 -2.084247e-03  1.197352e-03  0 
 -2.292232e-03  1.006319e-03  0 
 -2.501340e-03  7.926040e-04  0 
 -2.715407e-03  5.579746e-04  0 
 -2.936126e-03  3.014162e-04  0 
 -3.167752e-03  2.483190e-05  0 
 -3.416546e-03  -2.800713e-04  0 
 -3.683962e-03  -6.225909e-04  0 
 -3.981239e-03  -1.012487e-03  0 
 -4.308246e-03  -1.479342e-03  0 
 -4.673455e-03  -2.091017e-03  0 
 6.170110e-03  -4.584546e-03  0 
 5.843444e-03  -3.947998e-03  0 
 5.511098e-03  -3.317126e-03  0 
 5.184667e-03  -2.748192e-03  0 
 4.856123e-03  -2.215086e-03  0 
 4.529658e-03  -1.718765e-03  0 
 4.208012e-03  -1.270331e-03  0 
 3.896775e-03  -8.681715e-04  0 
 3.608219e-03  -5.093320e-04  0 
 3.337389e-03  -1.900822e-04  0 
 3.085102e-03  1.021770e-04  0 
 2.844848e-03  3.654066e-04  0 
 2.615148e-03  6.037844e-04  0 
 2.378077e-03  8.076774e-04  0 
 2.123175e-03  9.341177e-04  0 
 -2.767381e-05  1.326623e-03  0 
 5.029760e-04  -7.535058e-04  0 
 -1.216027e-03  2.750057e-04  0 
 1.171425e-03  6.690066e-04  0 
 -1.011784e-03  1.471347e-03  0 
 2.242823e-03  -1.016958e-03  0 
 7.939027e-05  4.145834e-04  0 
 -2.348192e-03  -8.765312e-04  0 
 -1.675991e-03  8.242828e-04  0 
 2.206286e-03  -4.502134e-06  0 
 -7.387764e-04  1.042994e-03  0 
 1.634286e-03  9.935792e-04  0 
 -2.246182e-03  2.384182e-05  0 
 6.635034e-04  1.200102e-03  0 
 3.364462e-03  -2.344695e-03  0 
 1.267096e-03  -1.557357e-04  0 
 1.401198e-03  -1.516468e-03  0 
 -1.572700e-03  1.286231e-03  0 
 -5.491990e-04  -1.816895e-05  0 
 2.475166e-04  9.355667e-04  0 
 2.141784e-03  5.465019e-04  0 
 2.914585e-03  -6.691245e-04  0 
 -1.875415e-03  -1.258044e-03  0 
 -5.197380e-04  5.932339e-04  0 
 -1.536423e-03  -4.037861e-04  0 
 -1.350829e-03  1.619507e-03  0 
 5.304607e-04  -7.421973e-05  0 
 -2.843116e-03  -5.569412e-04  0 
 6.981803e-04  4.498641e-04  0 
 1.391141e-03  -8.154153e-04  0 
 -3.292540e-03  -1.303227e-03  0 
 -1.127329e-03  1.040141e-03  0 
 3.556457e-03  -1.524896e-03  0 
 -2.268124e-03  5.262541e-04  0 
 1.129930e-03  1.054157e-03  0 
 4.363538e-03  -3.333464e-03  0 
 -2.112227e-04  -4.970744e-04  0 
 2.253209e-03  -1.797871e-03  0 
 -1.285054e-03  6.837072e-04  0 
 -2.588015e-04  1.070865e-03  0 
 -1.981613e-03  9.562164e-04  0 