# vtk DataFile Version 3.1
this is an vtk file created by FEMAC
ASCII
DATASET UNSTRUCTURED_GRID
POINTS 317 FLOAT
3.000000 0.000000 0.000000
3.000000 1.000000 0.000000
2.500000 0.000000 0.000000
2.550000 0.000000 0.000000
2.600000 0.000000 0.000000
2.650000 0.000000 0.000000
2.700000 0.000000 0.000000
2.750000 0.000000 0.000000
2.800000 0.000000 0.000000
2.850000 0.000000 0.000000
2.900000 0.000000 0.000000
2.950000 0.000000 0.000000
3.049861 0.000622 0.000000
3.099692 0.002486 0.000000
3.149460 0.005592 0.000000
3.199136 0.009938 0.000000
3.248687 0.015522 0.000000
3.298085 0.022338 0.000000
3.347296 0.030384 0.000000
2.950000 1.000000 0.000000
2.900000 1.000000 0.000000
2.850000 1.000000 0.000000
2.800000 1.000000 0.000000
2.750000 1.000000 0.000000
2.700000 1.000000 0.000000
2.650000 1.000000 0.000000
2.600000 1.000000 0.000000
3.000000 0.050000 0.000000
3.000000 0.100000 0.000000
3.000000 0.150000 0.000000
3.000000 0.200000 0.000000
3.000000 0.250000 0.000000
3.000000 0.300000 0.000000
3.000000 0.350000 0.000000
3.000000 0.400000 0.000000
3.000000 0.450000 0.000000
3.000000 0.500000 0.000000
3.000000 0.550000 0.000000
3.000000 0.600000 0.000000
3.000000 0.650000 0.000000
3.000000 0.700000 0.000000
3.000000 0.750000 0.000000
3.000000 0.800000 0.000000
3.000000 0.850000 0.000000
3.000000 0.900000 0.000000
3.000000 0.950000 0.000000
2.698438 0.298594 0.000000
2.698995 0.702195 0.000000
2.783500 0.500000 0.000000
2.827620 0.823269 0.000000
2.826606 0.176800 0.000000
2.845347 0.355793 0.000000
2.842093 0.636812 0.000000
2.673209 0.571049 0.000000
2.710547 0.876459 0.000000
2.882127 0.460804 0.000000
2.720529 0.406988 0.000000
2.909051 0.257015 0.000000
2.904427 0.739500 0.000000
2.905600 0.906066 0.000000
2.905600 0.093934 0.000000
2.901399 0.559348 0.000000
2.804955 0.264901 0.000000
2.811346 0.733396 0.000000
2.765033 0.592461 0.000000
2.672727 0.788313 0.000000
2.797781 0.907805 0.000000
2.797781 0.092195 0.000000
2.629884 0.914724 0.000000
2.707132 0.497852 0.000000
2.919565 0.817977 0.000000
2.919565 0.182023 0.000000
2.921568 0.386953 0.000000
2.928706 0.663183 0.000000
2.754325 0.796684 0.000000
2.750680 0.200929 0.000000
2.805565 0.424832 0.000000
2.770475 0.341397 0.000000
2.765844 0.662675 0.000000
2.827717 0.557210 0.000000
2.930710 0.321625 0.000000
2.701976 0.632079 0.000000
2.630783 0.516717 0.000000
2.721921 0.933777 0.000000
2.934461 0.509308 0.000000
2.652259 0.846384 0.000000
2.850229 0.935360 0.000000
2.850229 0.064640 0.000000
2.934934 0.609009 0.000000
2.930288 0.940830 0.000000
2.930288 0.059170 0.000000
2.760705 0.855334 0.000000
2.761694 0.144779 0.000000
2.737633 0.538914 0.000000
2.836655 0.492771 0.000000
2.842590 0.303221 0.000000
2.847537 0.695118 0.000000
2.835063 0.229349 0.000000
2.835239 0.773386 0.000000
2.942738 0.439420 0.000000
2.947712 0.222234 0.000000
2.945506 0.775956 0.000000
2.694043 0.366998 0.000000
2.852626 0.876017 0.000000
2.852481 0.123993 0.000000
2.668497 0.413437 0.000000
2.744629 0.259969 0.000000
2.735838 0.744849 0.000000
2.944424 0.864351 0.000000
2.944424 0.135649 0.000000
2.856932 0.410640 0.000000
2.744596 0.459089 0.000000
2.674656 0.954869 0.000000
2.674689 0.044808 0.000000
2.621972 0.571349 0.000000
2.580339 0.053339 0.000000
2.947854 0.712195 0.000000
2.658911 0.662731 0.000000
2.886073 0.609683 0.000000
2.873433 0.839392 0.000000
2.873433 0.160608 0.000000
2.710142 0.824479 0.000000
2.950409 0.558021 0.000000
2.765412 0.046286 0.000000
2.765412 0.953714 0.000000
2.684520 0.255232 0.000000
2.812918 0.599659 0.000000
2.886006 0.333541 0.000000
2.893701 0.955948 0.000000
2.893701 0.044052 0.000000
2.881196 0.213085 0.000000
2.881233 0.786691 0.000000
2.805988 0.377264 0.000000
2.889495 0.507736 0.000000
2.718016 0.586493 0.000000
2.611473 0.954010 0.000000
2.797603 0.785073 0.000000
2.792476 0.220495 0.000000
2.807617 0.675095 0.000000
2.951284 0.281170 0.000000
2.671429 0.901667 0.000000
2.783388 0.544233 0.000000
2.833397 0.449775 0.000000
2.748806 0.900817 0.000000
2.748453 0.099943 0.000000
2.700060 0.451057 0.000000
2.743899 0.306129 0.000000
2.955724 0.359003 0.000000
2.529337 0.043090 0.000000
2.809316 0.336459 0.000000
2.962340 0.177981 0.000000
2.961899 0.821657 0.000000
2.626322 0.036625 0.000000
2.891082 0.697087 0.000000
2.695951 0.751667 0.000000
2.660087 0.477398 0.000000
2.669492 0.530364 0.000000
2.968375 0.671979 0.000000
2.665563 0.612994 0.000000
2.711609 0.220745 0.000000
2.962751 0.480205 0.000000
2.759028 0.706486 0.000000
2.961375 0.404203 0.000000
2.812684 0.040624 0.000000
2.812684 0.959376 0.000000
2.744370 0.629787 0.000000
2.735387 0.370134 0.000000
2.806053 0.138952 0.000000
2.806053 0.861048 0.000000
2.766893 0.405647 0.000000
2.901245 0.424005 0.000000
2.885648 0.376437 0.000000
2.855254 0.583719 0.000000
2.786070 0.178370 0.000000
2.788153 0.458661 0.000000
2.743276 0.499076 0.000000
2.887149 0.651553 0.000000
2.723083 0.667000 0.000000
2.960374 0.905630 0.000000
2.960374 0.094370 0.000000
2.790931 0.635328 0.000000
2.905443 0.859589 0.000000
2.905435 0.140412 0.000000
2.969290 0.523955 0.000000
2.713940 0.782481 0.000000
2.789261 0.824282 0.000000
2.966403 0.638834 0.000000
2.856112 0.537873 0.000000
2.770771 0.758397 0.000000
2.816379 0.525244 0.000000
2.967544 0.322360 0.000000
2.960944 0.961642 0.000000
2.960944 0.038358 0.000000
2.784118 0.303289 0.000000
2.899006 0.294428 0.000000
2.915299 0.352464 0.000000
2.719191 0.335178 0.000000
2.920115 0.470303 0.000000
2.925000 0.973393 0.000000
2.925000 0.026607 0.000000
2.702003 0.547145 0.000000
2.723672 0.971295 0.000000
2.723676 0.028672 0.000000
2.860539 0.261256 0.000000
2.859427 0.736995 0.000000
3.257783 0.260332 0.000000
3.190451 0.451921 0.000000
3.148989 0.152875 0.000000
3.135018 0.324329 0.000000
3.134218 0.576229 0.000000
3.277622 0.149475 0.000000
3.097800 0.423411 0.000000
3.098996 0.241524 0.000000
3.099443 0.666887 0.000000
3.223378 0.359262 0.000000
3.082932 0.091584 0.000000
3.217414 0.558183 0.000000
3.364781 0.120872 0.000000
3.082512 0.819351 0.000000
3.219898 0.095206 0.000000
3.335023 0.259972 0.000000
3.088752 0.512251 0.000000
3.178417 0.234047 0.000000
3.081100 0.932343 0.000000
3.074968 0.168212 0.000000
3.294894 0.333168 0.000000
3.073794 0.738556 0.000000
3.069991 0.369019 0.000000
3.218246 0.175359 0.000000
3.067553 0.595229 0.000000
3.142196 0.504132 0.000000
3.153500 0.409726 0.000000
3.189451 0.303341 0.000000
3.330072 0.193636 0.000000
3.317564 0.095124 0.000000
3.149960 0.064844 0.000000
3.176460 0.612451 0.000000
3.062754 0.298462 0.000000
3.268543 0.215493 0.000000
3.058476 0.860938 0.000000
3.237826 0.411779 0.000000
3.139176 0.279609 0.000000
3.053930 0.468328 0.000000
3.214970 0.504381 0.000000
3.051253 0.216578 0.000000
3.271929 0.062054 0.000000
3.052865 0.053518 0.000000
3.133842 0.826986 0.000000
3.054401 0.550576 0.000000
3.047272 0.123349 0.000000
3.046205 0.672857 0.000000
3.127173 0.624864 0.000000
3.144509 0.458163 0.000000
3.137402 0.204896 0.000000
3.047543 0.775583 0.000000
3.045807 0.412121 0.000000
3.131744 0.702504 0.000000
3.271399 0.378693 0.000000
3.249293 0.312023 0.000000
3.120884 0.368320 0.000000
3.102413 0.134803 0.000000
3.109807 0.048872 0.000000
3.224269 0.216824 0.000000
3.170450 0.360055 0.000000
3.170848 0.540175 0.000000
3.359226 0.072105 0.000000
3.171468 0.107731 0.000000
3.107251 0.776461 0.000000
3.037706 0.821175 0.000000
3.239769 0.138683 0.000000
3.320102 0.146157 0.000000
3.296088 0.284012 0.000000
3.193715 0.054689 0.000000
3.100034 0.856039 0.000000
3.043678 0.957378 0.000000
3.045379 0.261090 0.000000
3.042735 0.336885 0.000000
3.357778 0.223043 0.000000
3.096553 0.561423 0.000000
3.180449 0.189274 0.000000
3.200732 0.403941 0.000000
3.037222 0.623562 0.000000
3.101620 0.470171 0.000000
3.034699 0.171628 0.000000
3.305682 0.231322 0.000000
3.271703 0.107437 0.000000
3.039562 0.514431 0.000000
3.037032 0.723679 0.000000
3.088610 0.329571 0.000000
3.362595 0.169965 0.000000
3.040644 0.904906 0.000000
3.142194 0.656600 0.000000
3.096451 0.201765 0.000000
3.031118 0.374730 0.000000
3.197221 0.142484 0.000000
3.212063 0.265808 0.000000
3.098349 0.283577 0.000000
3.127595 0.100118 0.000000
3.080199 0.702044 0.000000
3.253823 0.179766 0.000000
3.035684 0.087282 0.000000
3.035003 0.585550 0.000000
3.143616 0.242572 0.000000
3.293814 0.183935 0.000000
3.110243 0.734137 0.000000
3.113507 0.172128 0.000000
3.089678 0.891801 0.000000
3.176951 0.490708 0.000000
3.100014 0.599096 0.000000
3.229149 0.046260 0.000000
3.318522 0.053511 0.000000
3.267325 0.436585 0.000000
3.229410 0.451516 0.000000
3.172545 0.265076 0.000000
3.079602 0.630416 0.000000
3.126513 0.538842 0.000000
3.027987 0.028397 0.000000
CELLS 556 2224 
3 156  53 114
3 82 156 114
3 176 118  88
3 73 176  88
3 46 125 106
3 50 130  97
3 49  98 131
3 54  83 140
3 106 125 159
3 50 120 130
3 49 131 119
3 94 174 142
3 48 174  94
3 52 126 172
3 57 100 139
3 66 103  86
3 67  87 104
3 57 139 194
3 181 103 119
3 182 120 104
3 178  43  44
3 29 179  28
3 105 145 155
3 38  88 122
3 9 129  87
3 21  86 128
3 59  86 103
3 60 104  87
3 54 121  91
3 74  91 121
3 52 172 118
3 54  85 121
3 65 121  85
3 51 110 132
3 76 132 110
3 59 103 181
3 60 182 104
3 108  43 178
3 109 179  29
3 41 101 116
3 30 100 150
3 42 151 101
3 30  31 100
3 41  42 101
3 62 106 137
3 75 137 106
3 58 116 101
3 61  84 122
3 57 130 100
3 71 100 130
3 70 131 101
3 58 101 131
3 54 143  83
3 56 105 102
3 193  95 149
3 83 112 140
3 64 141 126
3 40  41 116
3 54 140  85
3 37  38 122
3 79 126 141
3 59 178  89
3 60  90 179
3 58 153 116
3 53 158 114
3 52 176  96
3 3   4 115
3 83 143 124
3 35  99 162
3 3 115 148
3 62  95 193
3 81 177 117
3 193 146 106
3 9  10 129
3 20  21 128
3 59 128  86
3 60  87 129
3 61 133  84
3 71 150 100
3 70 101 151
3 66 124 143
3 67 144 123
3 61  88 118
3 47 117 177
3 62 203  95
3 63  96 204
3 66  86 164
3 67 163  87
3 59 108 178
3 60 179 109
3 62  97 203
3 63 204  98
3 62 193 106
3 63 138  96
3 24  25 112
3 5   6 113
3 96 176 153
3 34  35 162
3 59  89 128
3 60 129  90
3 27 179 192
3 45 191 178
3 24 112 201
3 6 202 113
3 69  93 200
3 61 122  88
3 90 192 179
3 89 178 191
3 33  34 147
3 50  97 137
3 63  98 136
3 21 164  86
3 9  87 163
3 111 169 174
3 47 161 107
3 63 161 138
3 77 169 166
3 34 162 147
3 55 133  94
3 77 132 169
3 56 169 111
3 64 134  93
3 73 116 153
3 69 200 156
3 83 201 112
3 48  94 189
3 73  88 186
3 47 177 161
3 49 119 103
3 50 104 120
3 51  95 127
3 175  48 141
3 93 175 141
3 64  93 141
3 38 186  88
3 66 143  91
3 67  92 144
3 54  91 143
3 66  91 168
3 67 167  92
3 55  94 142
3 52  96 138
3 75  92 173
3 62 137  97
3 49 136  98
3 31 139 100
3 74 185  91
3 69 175  93
3 27  28 179
3 44  45 178
3 51 149  95
3 81 117 158
3 47 107 154
3 66 168 103
3 67 104 167
3 56 145 105
3 53 134 158
3 81 158 134
3 78 138 161
3 80 194 139
3 66 164 124
3 67 123 163
3 56 111 145
3 25 135 112
3 95 203 194
3 72  99 170
3 70 119 131
3 71 130 120
3 55 142 110
3 68 112 135
3 79 172 126
3 35 160  99
3 46 106 146
3 76 110 142
3 70 151 108
3 43 108 151
3 29 150 109
3 71 109 150
3 72 162  99
3 76 174 169
3 68 140 112
3 74 184 107
3 55 197 133
3 69 145 111
3 7   8 123
3 22  23 124
3 56 102 166
3 49 103 168
3 50 167 104
3 57 203 130
3 97 130 203
3 98 204 131
3 58 131 204
3 75 106 159
3 76 142 174
3 5 113 152
3 70 108 181
3 71 182 109
3 74 107 188
3 95 194 127
3 59 181 108
3 60 109 182
3 4 152 115
3 63 136 188
3 31  32 139
3 55 110 170
3 51 171 110
3 50 137 173
3 83 124 201
3 69 111 175
3 2   3 148
3 84 133 197
3 48 111 174
3 48 175 111
3 57 194 203
3 51 132 149
3 77 149 132
3 64 126 180
3 25  26 135
3 64 180 165
3 40 116 157
3 52 180 126
3 21  22 164
3 8   9 163
3 99 197 170
3 69 155 145
3 7 123 202
3 23 201 124
3 84 183 122
3 69 156 155
3 82 155 156
3 107 161 188
3 63 188 161
3 73 157 116
3 4   5 152
3 55 170 197
3 52 138 180
3 78 161 177
3 73 186 157
3 29  30 150
3 42  43 151
3 39  40 157
3 38  39 186
3 64 165 134
3 81 134 165
3 61 118 172
3 51 127 171
3 52 118 176
3 56 166 169
3 1 191  45
3 1  19 191
3 0 192  11
3 0  27 192
3 35  36 160
3 58 204 153
3 96 153 204
3 70 181 119
3 71 120 182
3 94 187 189
3 77 196 146
3 8 163 123
3 22 124 164
3 107 184 154
3 93 134 200
3 65 184 121
3 37 122 183
3 72 170 171
3 110 171 170
3 36  37 183
3 32  33 190
3 36 183 160
3 84 160 183
3 79 189 187
3 77 166 196
3 72 147 162
3 74 121 184
3 75 173 137
3 78 165 180
3 94 133 187
3 74 136 185
3 61 187 133
3 76 169 132
3 73 153 176
3 10  11 199
3 19  20 198
3 23  24 201
3 6   7 202
3 32 190 139
3 80 139 190
3 127 195 171
3 50 173 167
3 92 167 173
3 80 127 194
3 80 195 127
3 74 188 136
3 78 180 138
3 20 128 198
3 89 198 128
3 90 129 199
3 10 199 129
3 81 165 177
3 78 177 165
3 49 185 136
3 33 147 190
3 80 147 195
3 72 195 147
3 53 200 134
3 48 189 141
3 79 141 189
3 65 154 184
3 77 146 193
3 61 172 187
3 46 146 196
3 80 190 147
3 99 160 197
3 84 197 160
3 91 185 168
3 49 168 185
3 77 193 149
3 72 171 195
3 39 157 186
3 90 199 192
3 11 192 199
3 19 198 191
3 89 191 198
3 53 156 200
3 79 187 172
3 102 196 166
3 270 210 285
3 205 238 284
3 216 236 264
3 209 264 236
3 234 270 285
3 211 255 227
3 211 227 259
3 214 232 258
3 206 252 231
3 211 231 252
3 14 272 235
3 13 261 246
3 205 284 271
3 208 241 232
3 12  13 246
3 217 270 234
3 43 239 290
3 214 263 232
3 43 290  44
3 221 282 230
3 206 231 280
3 208 232 263
3 221 230 315
3 14 235 261
3 35 242  36
3 211 259 231
3 217 234 265
3 209 236 251
3 236 291 251
3 32 275 237
3 218 267 247
3 36 242 286
3 231 259 263
3 208 263 259
3 14  15 272
3 35 255 242
3 240 312 280
3 232 295 258
3 32 237 276
3 34 255  35
3 280 312 206
3 215 260 249
3 224 249 260
3 17 310 245
3 228 262 279
3 30 244  31
3 219 266 272
3 235 272 266
3 208 296 241
3 16  17 245
3 216 264 243
3 208 288 296
3 243 264 307
3 212 296 275
3 205 258 295
3 205 262 238
3 222 279 262
3 228 299 262
3 234 245 310
3 238 262 299
3 45 290 274
3 225 257 258
3 214 258 257
3 240 257 311
3 214 257 240
3 229 248 278
3 1  45 274
3 218 239 268
3 219 245 285
3 212 275 244
3 207 297 266
3 43 268 239
3 225 258 271
3 218 273 239
3 215 246 261
3 207 260 297
3 31 244 275
3 13  14 261
3 44 290  45
3 230 282 252
3 237 275 296
3 229 278 308
3 41 254  42
3 219 285 269
3 218 254 267
3 226 267 254
3 28 249  29
3 41 287 254
3 31 275  32
3 205 271 258
3 211 242 255
3 39 250  40
3 230 307 264
3 214 240 280
3 221 286 242
3 226 254 287
3 213 314 251
3 234 310 265
3 29 249 283
3 37 286 248
3 251 314 308
3 224 283 249
3 206 312 243
3 207 294 279
3 215 300 246
3 36 286  37
3 211 282 242
3 221 242 282
3 215 249 300
3 40 250 287
3 232 241 313
3 220 271 284
3 233 289 277
3 219 309 245
3 218 268 254
3 213 256 298
3 218 247 273
3 27 246 300
3 221 315 278
3 235 297 261
3 215 261 297
3 208 259 288
3 206 307 252
3 227 288 259
3 230 252 307
3 42 254 268
3 250 298 287
3 38 281  39
3 32 276  33
3 212 244 292
3 224 292 244
3 212 302 241
3 256 304 298
3 224 244 283
3 30 283 244
3 212 241 296
3 37 248 301
3 42 268  43
3 27 300  28
3 237 288 276
3 227 276 288
3 228 279 294
3 221 278 248
3 234 285 245
3 223 274 290
3 207 279 253
3 222 253 279
3 39 281 250
3 206 243 307
3 37 301  38
3 233 277 284
3 220 284 277
3 221 248 286
3 211 252 282
3 213 250 314
3 16 245 309
3 38 301 281
3 12 246 316
3 207 266 294
3 27 316 246
3 219 272 309
3 214 280 263
3 231 263 280
3 18 265 310
3 213 251 291
3 229 301 248
3 28 300 249
3 212 253 302
3 226 287 298
3 213 298 250
3 15  16 309
3 217 289 270
3 209 251 308
3 29 283  30
3 212 292 253
3 40 287  41
3 209 308 278
3 222 262 295
3 219 294 266
3 207 253 305
3 34 293 255
3 213 291 256
3 227 255 293
3 219 269 294
3 222 302 253
3 210 270 303
3 233 303 270
3 33 293  34
3 237 296 288
3 235 266 297
3 0 316  27
3 210 269 285
3 0  12 316
3 15 309 272
3 210 299 269
3 228 269 299
3 229 308 314
3 17  18 310
3 229 281 301
3 226 298 304
3 233 284 303
3 238 303 284
3 224 260 305
3 233 270 289
3 230 264 315
3 209 315 264
3 223 290 306
3 239 306 290
3 205 295 262
3 215 297 260
3 250 281 314
3 227 293 276
3 33 276 293
3 228 294 269
3 222 295 313
3 207 305 260
3 226 304 267
3 239 273 306
3 224 305 292
3 253 292 305
3 209 278 315
3 229 314 281
3 232 313 295
3 210 303 299
3 238 299 303
3 240 311 312
3 222 313 302
3 241 302 313
CELL_TYPES 556
5 5 5 5 5 5 5 5 5 5 5 5 5 5 5 5 5 5 5 5 5 5 5 5 5 5 5 5 5 5 5 5 5 5 5 5 5 5 5 5 5 5 5 5 5 5 5 5 5 5 5 5 5 5 5 5 5 5 5 5 5 5 5 5 5 5 5 5 5 5 5 5 5 5 5 5 5 5 5 5 5 5 5 5 5 5 5 5 5 5 5 5 5 5 5 5 5 5 5 5 5 5 5 5 5 5 5 5 5 5 5 5 5 5 5 5 5 5 5 5 5 5 5 5 5 5 5 5 5 5 5 5 5 5 5 5 5 5 5 5 5 5 5 5 5 5 5 5 5 5 5 5 5 5 5 5 5 5 5 5 5 5 5 5 5 5 5 5 5 5 5 5 5 5 5 5 5 5 5 5 5 5 5 5 5 5 5 5 5 5 5 5 5 5 5 5 5 5 5 5 5 5 5 5 5 5 5 5 5 5 5 5 5 5 5 5 5 5 5 5 5 5 5 5 5 5 5 5 5 5 5 5 5 5 5 5 5 5 5 5 5 5 5 5 5 5 5 5 5 5 5 5 5 5 5 5 5 5 5 5 5 5 5 5 5 5 5 5 5 5 5 5 5 5 5 5 5 5 5 5 5 5 5 5 5 5 5 5 5 5 5 5 5 5 5 5 5 5 5 5 5 5 5 5 5 5 5 5 5 5 5 5 5 5 5 5 5 5 5 5 5 5 5 5 5 5 5 5 5 5 5 5 5 5 5 5 5 5 5 5 5 5 5 5 5 5 5 5 5 5 5 5 5 5 5 5 5 5 5 5 5 5 5 5 5 5 5 5 5 5 5 5 5 5 5 5 5 5 5 5 5 5 5 5 5 5 5 5 5 5 5 5 5 5 5 5 5 5 5 5 5 5 5 5 5 5 5 5 5 5 5 5 5 5 5 5 5 5 5 5 5 5 5 5 5 5 5 5 5 5 5 5 5 5 5 5 5 5 5 5 5 5 5 5 5 5 5 5 5 5 5 5 5 5 5 5 5 5 5 5 5 5 5 5 5 5 5 5 5 5 5 5 5 5 5 5 5 5 5 5 5 5 5 5 5 5 5 5 5 5 5 5 5 5 5 5 5 5 5 5 5 5 5 5 5 5 5 5 5 5 5 5 5 5 5 5 5 5 5 5 5 5 5 5 5 5 5 5 5 5 5 5 5 5 5 5 5 5 5 5 5 5 5 5 5 5 5 5 5 5 5 5 5 5 5 5 
POINT_DATA 317
VECTORS displacement_ITER1 FLOAT
 -1.820042e-02  -2.952527e-02  0 
 1.682779e-02  -2.927420e-02  0 
 -1.038623e-02  -1.335641e-02  0 
 -1.100730e-02  -1.445007e-02  0 
 -1.164708e-02  -1.621830e-02  0 
 -1.253060e-02  -1.847634e-02  0 
 -1.340895e-02  -2.089197e-02  0 
 -1.422419e-02  -2.242567e-02  0 
 -1.526818e-02  -2.325162e-02  0 
 -1.616677e-02  -2.452883e-02  0 
 -1.691597e-02  -2.608575e-02  0 
 -1.760668e-02  -2.775522e-02  0 
 -1.837351e-02  -3.132165e-02  0 
 -1.848960e-02  -3.312510e-02  0 
 -1.856155e-02  -3.494060e-02  0 
 -1.858725e-02  -3.677421e-02  0 
 -1.857532e-02  -3.861859e-02  0 
 -1.853091e-02  -4.048695e-02  0 
 -1.848231e-02  -4.243208e-02  0 
 1.624628e-02  -2.764675e-02  0 
 1.569821e-02  -2.607365e-02  0 
 1.516900e-02  -2.454968e-02  0 
 1.461297e-02  -2.311364e-02  0 
 1.402690e-02  -2.178863e-02  0 
 1.339480e-02  -2.061258e-02  0 
 1.277050e-02  -1.964198e-02  0 
 1.217485e-02  -1.901255e-02  0 
 -1.642203e-02  -2.947309e-02  0 
 -1.465969e-02  -2.943758e-02  0 
 -1.290485e-02  -2.940054e-02  0 
 -1.114752e-02  -2.937902e-02  0 
 -9.384545e-03  -2.935597e-02  0 
 -7.615048e-03  -2.933441e-02  0 
 -5.836422e-03  -2.931407e-02  0 
 -4.057555e-03  -2.929076e-02  0 
 -2.274373e-03  -2.926544e-02  0 
 -4.912015e-04  -2.924481e-02  0 
 1.288500e-03  -2.922610e-02  0 
 3.057157e-03  -2.921077e-02  0 
 4.817674e-03  -2.920146e-02  0 
 6.564063e-03  -2.919789e-02  0 
 8.287624e-03  -2.919898e-02  0 
 9.995796e-03  -2.920836e-02  0 
 1.168875e-02  -2.922757e-02  0 
 1.337196e-02  -2.925879e-02  0 
 1.505898e-02  -2.927794e-02  0 
 -6.752831e-03  -1.947044e-02  0 
 5.628471e-03  -1.986303e-02  0 
 -5.405056e-04  -2.223551e-02  0 
 9.798669e-03  -2.378226e-02  0 
 -1.108843e-02  -2.373109e-02  0 
 -5.297814e-03  -2.418306e-02  0 
 3.974179e-03  -2.411827e-02  0 
 1.556771e-03  -1.896758e-02  0 
 1.068506e-02  -2.066702e-02  0 
 -1.827163e-03  -2.534035e-02  0 
 -3.463086e-03  -2.028926e-02  0 
 -8.791457e-03  -2.628975e-02  0 
 7.514483e-03  -2.609950e-02  0 
 1.283579e-02  -2.616877e-02  0 
 -1.405396e-02  -2.616854e-02  0 
 1.509378e-03  -2.596302e-02  0 
 -8.199211e-03  -2.297032e-02  0 
 6.974947e-03  -2.325171e-02  0 
 2.379648e-03  -2.172213e-02  0 
 8.125483e-03  -1.946045e-02  0 
 1.205285e-02  -2.296350e-02  0 
 -1.325936e-02  -2.300987e-02  0 
 1.107397e-02  -1.918963e-02  0 
 -6.510789e-04  -1.992173e-02  0 
 1.012898e-02  -2.659260e-02  0 
 -1.132880e-02  -2.663940e-02  0 
 -4.387715e-03  -2.665074e-02  0 
 5.069424e-03  -2.685994e-02  0 
 8.684829e-03  -2.167762e-02  0 
 -1.011328e-02  -2.139044e-02  0 
 -2.966900e-03  -2.290465e-02  0 
 -5.594346e-03  -2.181017e-02  0 
 4.602056e-03  -2.181697e-02  0 
 1.347825e-03  -2.362875e-02  0 
 -6.658020e-03  -2.698070e-02  0 
 3.471257e-03  -1.986986e-02  0 
 -1.390806e-04  -1.769668e-02  0 
 1.213964e-02  -2.101859e-02  0 
 -1.749872e-04  -2.704329e-02  0 
 9.636438e-03  -1.912020e-02  0 
 1.326642e-02  -2.450358e-02  0 
 -1.439957e-02  -2.448011e-02  0 
 3.250991e-03  -2.705253e-02  0 
 1.414558e-02  -2.696632e-02  0 
 -1.539108e-02  -2.701012e-02  0 
 1.037560e-02  -2.192223e-02  0 
 -1.178074e-02  -2.198507e-02  0 
 6.521505e-04  -2.085942e-02  0 
 -7.588218e-04  -2.388744e-02  0 
 -7.044712e-03  -2.412786e-02  0 
 5.879646e-03  -2.431857e-02  0 
 -9.456071e-03  -2.395159e-02  0 
 8.307677e-03  -2.399062e-02  0 
 -2.598292e-03  -2.733593e-02  0 
 -1.011757e-02  -2.757112e-02  0 
 8.896569e-03  -2.741350e-02  0 
 -4.657975e-03  -1.949695e-02  0 
 1.152507e-02  -2.454114e-02  0 
 -1.276829e-02  -2.452050e-02  0 
 -3.233499e-03  -1.874072e-02  0 
 -8.170933e-03  -2.103801e-02  0 
 7.073899e-03  -2.106116e-02  0 
 1.178431e-02  -2.740005e-02  0 
 -1.300538e-02  -2.746708e-02  0 
 -3.489736e-03  -2.453397e-02  0 
 -1.847605e-03  -2.102897e-02  0 
 1.219664e-02  -2.003214e-02  0 
 -1.076437e-02  -1.962886e-02  0 
 1.502882e-03  -1.744275e-02  0 
 -9.386609e-03  -1.541331e-02  0 
 6.778356e-03  -2.748100e-02  0 
 4.282470e-03  -1.862312e-02  0 
 3.175064e-03  -2.548682e-02  0 
 1.053734e-02  -2.516394e-02  0 
 -1.177767e-02  -2.516297e-02  0 
 9.285362e-03  -2.053690e-02  0 
 1.516679e-03  -2.756464e-02  0 
 -1.386136e-02  -2.245875e-02  0 
 1.301152e-02  -2.212448e-02  0 
 -8.210149e-03  -1.893653e-02  0 
 2.702038e-03  -2.319223e-02  0 
 -6.139853e-03  -2.550814e-02  0 
 1.428140e-02  -2.583294e-02  0 
 -1.546850e-02  -2.581761e-02  0 
 -1.014779e-02  -2.540019e-02  0 
 8.932765e-03  -2.538626e-02  0 
 -4.513767e-03  -2.291765e-02  0 
 -2.461359e-04  -2.557833e-02  0 
 2.106811e-03  -2.030330e-02  0 
 1.170253e-02  -1.898914e-02  0 
 8.513392e-03  -2.288879e-02  0 
 -9.613441e-03  -2.264769e-02  0 
 5.119679e-03  -2.308889e-02  0 
 -8.110432e-03  -2.767944e-02  0 
 1.107059e-02  -1.984625e-02  0 
 8.721534e-04  -2.225015e-02  0 
 -2.172257e-03  -2.378350e-02  0 
 1.151844e-02  -2.165102e-02  0 
 -1.276619e-02  -2.184946e-02  0 
 -2.091451e-03  -1.969366e-02  0 
 -6.649139e-03  -2.097969e-02  0 
 -5.421834e-03  -2.780036e-02  0 
 -9.686800e-03  -1.387844e-02  0 
 -5.853245e-03  -2.304233e-02  0 
 -1.169716e-02  -2.807742e-02  0 
 1.049697e-02  -2.795885e-02  0 
 -1.038884e-02  -1.726311e-02  0 
 6.079265e-03  -2.566948e-02  0 
 7.126090e-03  -1.994211e-02  0 
 -1.292169e-03  -1.853453e-02  0 
 3.103780e-04  -1.883127e-02  0 
 5.485168e-03  -2.814853e-02  0 
 2.808485e-03  -1.878782e-02  0 
 -9.441856e-03  -1.992008e-02  0 
 -1.185549e-03  -2.799104e-02  0 
 5.962573e-03  -2.167094e-02  0 
 -3.849318e-03  -2.797497e-02  0 
 -1.457621e-02  -2.348934e-02  0 
 1.361548e-02  -2.343214e-02  0 
 3.508762e-03  -2.113198e-02  0 
 -4.617808e-03  -2.072638e-02  0 
 -1.209197e-02  -2.317847e-02  0 
 1.078639e-02  -2.318140e-02  0 
 -3.545057e-03  -2.169703e-02  0 
 -3.088915e-03  -2.596930e-02  0 
 -4.685214e-03  -2.547545e-02  0 
 2.258622e-03  -2.450264e-02  0 
 -1.090543e-02  -2.253809e-02  0 
 -1.868026e-03  -2.236655e-02  0 
 -5.927143e-04  -2.100977e-02  0 
 4.570456e-03  -2.553041e-02  0 
 4.610606e-03  -2.053751e-02  0 
 1.324861e-02  -2.793123e-02  0 
 -1.450757e-02  -2.802295e-02  0 
 3.800580e-03  -2.254652e-02  0 
 1.137132e-02  -2.616138e-02  0 
 -1.259650e-02  -2.618208e-02  0 
 3.473402e-04  -2.819832e-02  0 
 8.107331e-03  -2.053769e-02  0 
 9.636071e-03  -2.268156e-02  0 
 4.342284e-03  -2.808379e-02  0 
 7.420838e-04  -2.451429e-02  0 
 7.604682e-03  -2.208716e-02  0 
 2.930557e-04  -2.326174e-02  0 
 -6.729751e-03  -2.821503e-02  0 
 1.510623e-02  -2.796569e-02  0 
 -1.641449e-02  -2.809312e-02  0 
 -6.868440e-03  -2.226619e-02  0 
 -7.497475e-03  -2.594956e-02  0 
 -5.562242e-03  -2.645897e-02  0 
 -5.662560e-03  -2.022313e-02  0 
 -1.517028e-03  -2.657707e-02  0 
 1.513091e-02  -2.682432e-02  0 
 -1.639354e-02  -2.686698e-02  0 
 8.643249e-04  -1.980214e-02  0 
 1.302599e-02  -2.110911e-02  0 
 -1.285829e-02  -2.171676e-02  0 
 -8.493353e-03  -2.473000e-02  0 
 7.260110e-03  -2.470321e-02  0 
 -9.468879e-03  -3.874085e-02  0 
 -2.296983e-03  -3.608387e-02  0 
 -1.318651e-02  -3.477791e-02  0 
 -6.908437e-03  -3.414749e-02  0 
 2.249629e-03  -3.395537e-02  0 
 -1.365325e-02  -3.958809e-02  0 
 -3.276954e-03  -3.274485e-02  0 
 -9.853147e-03  -3.288949e-02  0 
 5.502980e-03  -3.265289e-02  0 
 -5.738465e-03  -3.736881e-02  0 
 -1.521490e-02  -3.242039e-02  0 
 1.599685e-03  -3.698536e-02  0 
 -1.496860e-02  -4.296252e-02  0 
 1.083384e-02  -3.201193e-02  0 
 -1.551537e-02  -3.745573e-02  0 
 -9.647676e-03  -4.168193e-02  0 
 -6.296291e-05  -3.237106e-02  0 
 -1.028105e-02  -3.579969e-02  0 
 1.470471e-02  -3.202856e-02  0 
 -1.244001e-02  -3.206923e-02  0 
 -6.809722e-03  -4.007099e-02  0 
 8.004523e-03  -3.172350e-02  0 
 -5.219697e-03  -3.178092e-02  0 
 -1.253795e-02  -3.732874e-02  0 
 2.919011e-03  -3.157183e-02  0 
 -3.682520e-04  -3.429248e-02  0 
 -3.814725e-03  -3.476555e-02  0 
 -7.753759e-03  -3.615500e-02  0 
 -1.212489e-02  -4.154627e-02  0 
 -1.581796e-02  -4.116149e-02  0 
 -1.640348e-02  -3.489800e-02  0 
 3.581097e-03  -3.545873e-02  0 
 -7.747574e-03  -3.155860e-02  0 
 -1.116557e-02  -3.918883e-02  0 
 1.220842e-02  -3.120831e-02  0 
 -3.814902e-03  -3.786569e-02  0 
 -8.543462e-03  -3.432771e-02  0 
 -1.636127e-03  -3.115743e-02  0 
 -3.762611e-04  -3.693465e-02  0 
 -1.065841e-02  -3.118704e-02  0 
 -1.692724e-02  -3.944208e-02  0 
 -1.648147e-02  -3.137075e-02  0 
 1.122211e-02  -3.379899e-02  0 
 1.315329e-03  -3.113266e-02  0 
 -1.397104e-02  -3.110373e-02  0 
 5.665675e-03  -3.079059e-02  0 
 4.011897e-03  -3.366698e-02  0 
 -2.041969e-03  -3.440698e-02  0 
 -1.125946e-02  -3.431167e-02  0 
 9.248162e-03  -3.081713e-02  0 
 -3.651816e-03  -3.089885e-02  0 
 6.804667e-03  -3.376297e-02  0 
 -5.072685e-03  -3.914184e-02  0 
 -7.526236e-03  -3.837353e-02  0 
 -5.292936e-03  -3.360892e-02  0 
 -1.371473e-02  -3.308961e-02  0 
 -1.684761e-02  -3.344301e-02  0 
 -1.101569e-02  -3.751881e-02  0 
 -5.647320e-03  -3.541823e-02  0 
 9.399822e-04  -3.530329e-02  0 
 -1.684003e-02  -4.282421e-02  0 
 -1.490309e-02  -3.564706e-02  0 
 9.380007e-03  -3.286128e-02  0 
 1.079703e-02  -3.049000e-02  0 
 -1.395654e-02  -3.816509e-02  0 
 -1.388720e-02  -4.120905e-02  0 
 -8.656973e-03  -4.017128e-02  0 
 -1.692476e-02  -3.652301e-02  0 
 1.215161e-02  -3.261725e-02  0 
 1.542965e-02  -3.080196e-02  0 
 -9.060401e-03  -3.095642e-02  0 
 -6.346932e-03  -3.082761e-02  0 
 -1.108226e-02  -4.257709e-02  0 
 1.709581e-03  -3.261948e-02  0 
 -1.193198e-02  -3.590972e-02  0 
 -4.069037e-03  -3.649924e-02  0 
 3.912931e-03  -3.049705e-02  0 
 -1.587636e-03  -3.285675e-02  0 
 -1.222246e-02  -3.062309e-02  0 
 -1.065744e-02  -4.058497e-02  0 
 -1.521679e-02  -3.939641e-02  0 
 2.051760e-05  -3.062847e-02  0 
 7.433624e-03  -3.046316e-02  0 
 -6.660564e-03  -3.246814e-02  0 
 -1.309519e-02  -4.281363e-02  0 
 1.364515e-02  -3.063632e-02  0 
 5.168142e-03  -3.417725e-02  0 
 -1.128341e-02  -3.282401e-02  0 
 -4.981506e-03  -3.039811e-02  0 
 -1.369885e-02  -3.657070e-02  0 
 -9.176737e-03  -3.702287e-02  0 
 -8.335349e-03  -3.284394e-02  0 
 -1.504673e-02  -3.404126e-02  0 
 6.732242e-03  -3.195829e-02  0 
 -1.246200e-02  -3.866204e-02  0 
 -1.521882e-02  -3.072018e-02  0 
 2.560427e-03  -3.043467e-02  0 
 -9.899754e-03  -3.451521e-02  0 
 -1.240300e-02  -4.017347e-02  0 
 7.903573e-03  -3.298201e-02  0 
 -1.239404e-02  -3.346424e-02  0 
 1.334264e-02  -3.227524e-02  0 
 -8.673296e-04  -3.556079e-02  0 
 3.068986e-03  -3.271787e-02  0 
 -1.736231e-02  -3.785293e-02  0 
 -1.742462e-02  -4.124206e-02  0 
 -2.928721e-03  -3.893801e-02  0 
 -2.340855e-03  -3.752205e-02  0 
 -9.130831e-03  -3.556102e-02  0 
 4.184347e-03  -3.197628e-02  0 
 8.936678e-04  -3.370535e-02  0 
 -1.729303e-02  -3.050012e-02  0 
VECTORS displacement_ITER2 FLOAT
 -1.593836e-02  -2.781974e-02  0 
 1.597441e-02  -2.739615e-02  0 
 -1.020942e-02  -1.477855e-02  0 
 -1.075992e-02  -1.512099e-02  0 
 -1.126297e-02  -1.608997e-02  0 
 -1.195497e-02  -1.757221e-02  0 
 -1.255807e-02  -1.942980e-02  0 
 -1.309481e-02  -2.092983e-02  0 
 -1.373407e-02  -2.203133e-02  0 
 -1.433442e-02  -2.332501e-02  0 
 -1.488512e-02  -2.475590e-02  0 
 -1.542974e-02  -2.625442e-02  0 
 -1.609494e-02  -2.941627e-02  0 
 -1.620389e-02  -3.102288e-02  0 
 -1.627402e-02  -3.264234e-02  0 
 -1.630156e-02  -3.427899e-02  0 
 -1.629356e-02  -3.592573e-02  0 
 -1.625288e-02  -3.759348e-02  0 
 -1.619872e-02  -3.933128e-02  0 
 1.540188e-02  -2.588303e-02  0 
 1.487090e-02  -2.442020e-02  0 
 1.437278e-02  -2.299741e-02  0 
 1.387304e-02  -2.163070e-02  0 
 1.337411e-02  -2.032002e-02  0 
 1.287024e-02  -1.906640e-02  0 
 1.237095e-02  -1.786974e-02  0 
 1.182481e-02  -1.683544e-02  0 
 -1.435407e-02  -2.777079e-02  0 
 -1.277340e-02  -2.772868e-02  0 
 -1.119366e-02  -2.768088e-02  0 
 -9.610235e-03  -2.763945e-02  0 
 -8.022363e-03  -2.759442e-02  0 
 -6.429749e-03  -2.754930e-02  0 
 -4.829645e-03  -2.750618e-02  0 
 -3.230237e-03  -2.746058e-02  0 
 -1.625193e-03  -2.741446e-02  0 
 -1.590274e-05  -2.737540e-02  0 
 1.595572e-03  -2.734064e-02  0 
 3.202749e-03  -2.731112e-02  0 
 4.811577e-03  -2.729151e-02  0 
 6.418359e-03  -2.728085e-02  0 
 8.015229e-03  -2.727803e-02  0 
 9.607564e-03  -2.728899e-02  0 
 1.119161e-02  -2.731342e-02  0 
 1.276601e-02  -2.735314e-02  0 
 1.433833e-02  -2.738407e-02  0 
 -5.225363e-03  -1.887857e-02  0 
 5.300943e-03  -1.883651e-02  0 
 5.085495e-05  -2.108383e-02  0 
 9.248442e-03  -2.226541e-02  0 
 -9.326439e-03  -2.253484e-02  0 
 -4.166089e-03  -2.288409e-02  0 
 3.984296e-03  -2.264910e-02  0 
 1.877857e-03  -1.824583e-02  0 
 9.931536e-03  -1.920615e-02  0 
 -1.142716e-03  -2.385690e-02  0 
 -2.416464e-03  -1.945368e-02  0 
 -7.368496e-03  -2.482434e-02  0 
 7.226788e-03  -2.441976e-02  0 
 1.218654e-02  -2.450168e-02  0 
 -1.221212e-02  -2.482966e-02  0 