# vtk DataFile Version 3.1
this is an vtk file created by FEMAC
ASCII
DATASET UNSTRUCTURED_GRID
POINTS 310 FLOAT
3.867767 0.198062 0.000000
3.912421 0.220256 0.000000
3.956508 0.243557 0.000000
4.000000 0.267949 0.000000
4.042870 0.293418 0.000000
4.085093 0.319948 0.000000
4.126640 0.347522 0.000000
4.167487 0.376124 0.000000
4.207609 0.405735 0.000000
4.246980 0.436337 0.000000
4.285575 0.467911 0.000000
4.323372 0.500438 0.000000
4.360345 0.533896 0.000000
4.141781 1.038621 0.000000
3.749767 0.701366 0.000000
4.071102 0.721844 0.000000
3.841722 0.996875 0.000000
4.296891 0.833759 0.000000
3.925575 0.516050 0.000000
3.621785 0.931286 0.000000
4.010911 0.903218 0.000000
4.241591 0.663111 0.000000
4.097686 0.542897 0.000000
3.910238 0.767062 0.000000
4.310626 0.998954 0.000000
3.848935 0.372464 0.000000
3.701893 1.071760 0.000000
3.754867 0.853658 0.000000
3.990798 1.062809 0.000000
3.783576 0.555984 0.000000
4.163732 0.886917 0.000000
3.970280 0.639614 0.000000
4.426445 0.792923 0.000000
4.027367 0.435921 0.000000
3.881504 0.895772 0.000000
4.190972 0.762662 0.000000
4.356267 0.694899 0.000000
3.852406 0.637790 0.000000
3.878767 1.090090 0.000000
4.207810 0.558644 0.000000
4.238836 1.095908 0.000000
3.736884 0.964738 0.000000
3.949451 0.355658 0.000000
4.142253 0.640141 0.000000
4.072819 0.825558 0.000000
3.939193 0.971910 0.000000
4.366007 0.921976 0.000000
4.055064 0.989157 0.000000
3.834667 0.460234 0.000000
3.803078 0.785448 0.000000
4.217839 0.965795 0.000000
3.704703 0.778606 0.000000
3.796802 1.082118 0.000000
4.007710 0.558629 0.000000
3.706383 1.157091 0.000000
4.118565 0.453679 0.000000
3.986884 0.811686 0.000000
4.325867 0.623358 0.000000
3.714598 0.613617 0.000000
4.283424 0.744064 0.000000
4.056398 0.634400 0.000000
3.671411 0.865403 0.000000
3.984979 0.724071 0.000000
3.897989 0.298468 0.000000
3.903045 0.429531 0.000000
4.276616 0.911094 0.000000
3.813601 0.920384 0.000000
3.857991 0.561322 0.000000
3.656259 1.007796 0.000000
4.223998 0.832430 0.000000
4.134260 0.961360 0.000000
4.187656 0.484477 0.000000
4.084860 0.902529 0.000000
4.348680 0.776344 0.000000
3.910340 0.687006 0.000000
3.922060 1.038784 0.000000
4.025819 0.359797 0.000000
4.415238 0.863958 0.000000
3.837256 0.706960 0.000000
4.150216 0.709431 0.000000
3.923318 0.587555 0.000000
3.828629 0.853339 0.000000
3.606290 0.843675 0.000000
3.781420 0.639906 0.000000
4.282967 0.551549 0.000000
3.948624 1.111449 0.000000
4.048406 0.499482 0.000000
4.087111 0.400676 0.000000
3.952966 0.874208 0.000000
3.962731 0.469355 0.000000
4.144008 0.822032 0.000000
4.214082 1.028108 0.000000
4.148254 1.099418 0.000000
3.680206 0.930557 0.000000
4.041140 0.759655 0.000000
3.780002 1.014148 0.000000
3.887070 0.944114 0.000000
3.846607 0.258294 0.000000
3.998925 0.994111 0.000000
3.683485 0.725551 0.000000
3.756286 1.128980 0.000000
3.888196 0.807147 0.000000
4.374529 0.642154 0.000000
4.219021 0.614573 0.000000
4.153087 0.576152 0.000000
4.120581 0.768483 0.000000
4.224215 0.912782 0.000000
4.229286 0.730505 0.000000
3.828168 1.127153 0.000000
3.587823 0.983764 0.000000
4.364352 0.840126 0.000000
4.050742 1.044801 0.000000
4.310576 0.672070 0.000000
4.294226 1.056895 0.000000
3.847285 1.055585 0.000000
3.952348 0.302929 0.000000
3.756686 0.759703 0.000000
4.362247 0.974869 0.000000
3.641991 1.062920 0.000000
4.244605 0.511758 0.000000
3.826174 0.312189 0.000000
4.239884 0.782538 0.000000
4.259251 0.611451 0.000000
4.009595 0.670314 0.000000
4.247167 1.147599 0.000000
3.668511 0.817471 0.000000
3.758799 0.917131 0.000000
3.568614 0.906839 0.000000
4.113500 0.598596 0.000000
4.185444 0.669485 0.000000
3.705365 1.021771 0.000000
4.029142 0.849978 0.000000
3.817950 0.600981 0.000000
3.984916 0.422830 0.000000
3.930617 0.916483 0.000000
4.097559 0.667771 0.000000
3.900236 0.380701 0.000000
4.136998 0.504680 0.000000
4.035938 1.087214 0.000000
3.705678 0.677992 0.000000
3.873352 0.506525 0.000000
3.864337 0.417400 0.000000
4.257575 1.000841 0.000000
3.820904 0.521448 0.000000
3.902849 0.634983 0.000000
4.391226 0.746340 0.000000
3.770153 0.809526 0.000000
4.457884 0.833718 0.000000
3.893009 0.995899 0.000000
4.194671 1.079771 0.000000
4.096676 1.026621 0.000000
3.708423 0.834680 0.000000
4.009556 0.610531 0.000000
3.935997 0.805832 0.000000
4.057429 0.577340 0.000000
4.324151 0.876455 0.000000
3.787703 0.967527 0.000000
3.980473 0.943386 0.000000
4.051218 0.933631 0.000000
4.166723 0.437274 0.000000
3.978607 0.515099 0.000000
3.747285 1.050575 0.000000
3.678543 1.118951 0.000000
4.316843 0.948754 0.000000
4.171433 0.996334 0.000000
3.708187 0.890399 0.000000
3.787563 0.682906 0.000000
4.174746 0.938212 0.000000
3.854264 0.761380 0.000000
3.999886 0.324414 0.000000
3.960979 1.157054 0.000000
4.259096 0.865200 0.000000
4.116739 0.858572 0.000000
3.959086 0.765004 0.000000
4.063413 0.454171 0.000000
3.762648 0.603036 0.000000
4.133305 0.403055 0.000000
3.957437 0.685739 0.000000
3.620843 0.880094 0.000000
4.331982 0.737571 0.000000
3.842371 1.176910 0.000000
4.327547 0.567893 0.000000
3.750492 1.181679 0.000000
3.795746 0.734219 0.000000
4.299187 0.786853 0.000000
3.698903 0.974921 0.000000
3.966419 0.594342 0.000000
3.962250 1.022226 0.000000
4.171287 0.530680 0.000000
4.267286 0.956370 0.000000
4.091849 0.948054 0.000000
3.800997 0.374574 0.000000
4.088993 0.498699 0.000000
4.266795 0.693481 0.000000
4.110835 1.064499 0.000000
3.918444 0.263639 0.000000
3.872775 0.601382 0.000000
3.913956 0.469308 0.000000
4.127698 0.915941 0.000000
3.886105 0.721598 0.000000
4.026990 0.721564 0.000000
3.840283 0.887079 0.000000
3.797829 0.878875 0.000000
4.361865 0.594932 0.000000
4.177187 0.846825 0.000000
3.914493 0.335238 0.000000
3.934697 0.725080 0.000000
4.010836 0.475803 0.000000
3.899775 0.550616 0.000000
4.253542 1.051025 0.000000
3.838389 0.816849 0.000000
3.645534 0.969090 0.000000
4.203069 1.117004 0.000000
4.261878 0.819845 0.000000
4.069847 0.865553 0.000000
4.187746 0.718451 0.000000
4.066174 0.357865 0.000000
3.842748 0.956206 0.000000
3.659692 0.770844 0.000000
3.914467 0.849688 0.000000
4.289776 0.513326 0.000000
4.055967 0.680894 0.000000
4.382628 0.802028 0.000000
3.720417 1.109243 0.000000
3.873952 0.333636 0.000000
3.916467 1.078775 0.000000
3.912858 1.131325 0.000000
3.939952 0.400794 0.000000
3.833468 0.221775 0.000000
4.078868 0.776723 0.000000
3.867596 0.675619 0.000000
3.617181 1.016107 0.000000
4.206978 0.447665 0.000000
4.341810 0.658120 0.000000
3.950544 0.550607 0.000000
3.746888 0.658500 0.000000
3.970330 0.904289 0.000000
4.189257 0.806232 0.000000
4.286757 1.090557 0.000000
3.816453 1.037182 0.000000
4.130055 1.000503 0.000000
4.376677 0.878380 0.000000
3.675902 1.040763 0.000000
3.987008 1.108720 0.000000
3.984837 0.862768 0.000000
4.001119 0.769174 0.000000
4.040195 0.399459 0.000000
4.034995 0.798796 0.000000
3.720480 0.932314 0.000000
3.723463 0.731093 0.000000
4.397355 0.695524 0.000000
3.954534 1.070461 0.000000
3.882051 1.035284 0.000000
3.740847 0.562052 0.000000
3.883292 0.245811 0.000000
4.282562 0.642313 0.000000
3.748105 1.089232 0.000000
4.151750 0.746250 0.000000
3.845346 1.094315 0.000000
3.865289 1.132892 0.000000
3.576232 0.865842 0.000000
4.247674 0.573182 0.000000
4.048870 0.892306 0.000000
4.055001 0.534076 0.000000
4.016023 1.030764 0.000000
4.018383 0.957947 0.000000
4.111085 0.802750 0.000000
3.990037 0.377159 0.000000
3.865305 0.851878 0.000000
4.114870 0.723519 0.000000
3.933651 0.656881 0.000000
4.151275 0.784735 0.000000
4.205895 0.517218 0.000000
3.743483 1.003293 0.000000
3.793477 1.145351 0.000000
4.332680 0.814028 0.000000
3.734545 0.804033 0.000000
3.876046 0.457024 0.000000
4.136275 0.542910 0.000000
4.018386 0.518137 0.000000
3.796531 0.835438 0.000000
3.817716 0.655317 0.000000
4.043968 0.331088 0.000000
3.827408 0.410308 0.000000
4.135067 0.676196 0.000000
4.170186 0.609598 0.000000
3.939303 0.622675 0.000000
4.152486 0.470027 0.000000
3.820885 0.558854 0.000000
4.409310 0.826551 0.000000
3.940920 0.438364 0.000000
4.309808 0.708417 0.000000
3.929156 1.006950 0.000000
4.312361 0.534976 0.000000
3.810780 0.253108 0.000000
4.233628 0.472315 0.000000
3.660486 0.899548 0.000000
3.853828 0.921472 0.000000
3.638097 0.843971 0.000000
3.625327 0.808843 0.000000
4.327219 1.054490 0.000000
4.291294 0.590409 0.000000
4.098051 0.985454 0.000000
4.209645 0.868831 0.000000
4.082721 1.060321 0.000000
4.285714 1.025925 0.000000
3.956872 0.837111 0.000000
4.222172 0.695006 0.000000
3.863861 0.290124 0.000000
4.179383 1.047288 0.000000
CELLS 556 2224 
3 133  33 207
3 89 133 207
3 138  28 264
3 111 138 264
3 39 103 285
3 39 285 104
3 55 174  87
3 16  95 156
3 18 197  89
3 26 162 118
3 43 135 128
3 90 204 172
3 60 128 135
3 38 252 225
3 219 134  34
3 88 134 219
3 148  16 217
3 96 148 217
3 204  30 172
3 49 210 280
3 46 163 155
3 21 103 122
3 38 114 252
3 78 168 183
3 50 106 189
3 65 189 106
3 23 101 168
3 40 238 124
3 49 183 168
3 275 155  17
3 84 261 119
3 32 222 145
3 6 176  87
3 25 191 120
3 87 174 246
3 200 245  62
3 35 107 121
3 59 121 107
3 48 283 141
3 109 211 231
3 6  87 216
3 94 245 200
3 110 155 275
3 65 155 163
3 52 100 256
3 59 184 121
3 45  96 134
3 34 134  96
3 49 280 146
3 51 151 125
3 61 125 151
3 50  91 164
3 274 100  52
3 209  40 149
3 91 209 149
3 13 309  92
3 42 115 169
3 21 129 103
3 50 142  91
3 39 119 261
3 15 229  94
3 19 211 109
3 60 123 152
3 31 152 123
3 36 102 250
3 89 197 290
3 33 246 174
3 24 189 163
3 18  89 160
3 121 184 213
3 52 108 274
3 55  87 176
3 14 249 139
3 99 139 249
3 104 128 278
3 22 278 128
3 133 267 246
3 39 261 103
3 43 128 285
3 104 285 128
3 45 148  96
3 43 285 129
3 15  94 200
3 103 129 285
3 58 175 235
3 16 239  95
3 47 264  98
3 65 106 171
3 111 304 138
3 33 133 246
3 60 152 154
3 97 120 294
3 24 142 189
3 78 281 230
3 81 280 210
3 52 161  95
3 45 157  98
3 15 269 229
3 19 127 178
3 13  92 194
3 23 153 101
3 83 235 175
3 19 296  93
3 19  93 211
3 2   3 115
3 45  98 187
3 92 309 149
3 54 223 100
3 16 156 217
3 73 145 222
3 37 132 196
3 68 231 211
3 105 229 269
3 62 177 123
3 31 123 177
3 54 100 182
3 42 169 267
3 46 117 163
3 51 218  99
3 78 166 281
3 84 119 220
3 103 261 122
3 52  95 239
3 64 141 136
3 47 111 264
3 25 136 141
3 45 134 157
3 51  99 249
3 101 210 168
3 30 106 167
3 60 154 128
3 34  96 297
3 50 167 106
3 37 281 132
3 36 233 102
3 53 154 152
3 127 260 178
3 47  98 265
3 47 150 111
3 7   8 159
3 113 300 238
3 49 146 116
3 39 104 188
3 65 171 155
3 17 155 171
3 57 102 233
3 57 203 102
3 14 183 116
3 135 284 269
3 92 149 212
3 67 196 132
3 3 169 115
3 125 299 218
3 75 225 252
3 30 198 172
3 7 159 176
3 24 300 305
3 66 156 126
3 41 126 156
3 24 163 117
3 59 107 193
3 15 135 269
3 130 185 273
3 108 180 274
3 273 185  41
3 80 196 208
3 28 243 251
3 52 258 108
3 97 308 120
3 70 167 164
3 50 164 167
3 30 303 106
3 67 143 140
3 5   6 216
3 27 276 146
3 83 132 281
3 27 151 276
3 26 130 161
3 22 128 154
3 35 215 107
3 16 252 114
3 2 115 195
3 64 290 197
3 86 207 174
3 33 174 207
3 12 203 181
3 20 265 157
3 6   7 176
3 20 158 265
3 48 140 143
3 63 195 115
3 44 247 229
3 63 115 205
3 42 205 115
3 77 110 289
3 27 126 165
3 52 114 258
3 51 249 116
3 52 239 114
3 83 175 132
3 29 132 175
3 85 251 243
3 26 161 256
3 110 241 155
3 72 172 198
3 66 126 202
3 27 202 126
3 21 122 255
3 76 246 267
3 26 256 223
3 14 235 166
3 83 166 235
3 27 165 151
3 61 151 165
3 95 273 156
3 41 156 273
3 38 258 114
3 113 305 300
3 57 112 255
3 77 241 110
3 56 153 173
3 57 233 112
3 68 118 231
3 36 291 112
3 40 124 212
3 106 303 171
3 31 186 152
3 69 237 121
3 35 121 237
3 49 116 183
3 73 179 145
3 36 145 179
3 58 253 175
3 67 208 196
3 14 166 183
3 54 162 223
3 134 236 157
3 59 179 184
3 73 184 179
3 79 129 215
3 36 112 233
3 53 234 160
3 74 230 144
3 37 144 230
3 16 114 239
3 94 229 247
3 0 254 228
3 53 263 154
3 71 188 137
3 43 129 284
3 51 116 276
3 61 298 125
3 14 116 249
3 80 144 196
3 100 274 182
3 55 137 192
3 65 163 189
3 79 284 129
3 60 221 123
3 37 230 281
3 53 279 263
3 91 309 164
3 85 243 170
3 10 119 295
3 39 272 119
3 21 255 193
3 112 193 255
3 44 131 247
3 10 220 119
3 56 131 244
3 25 120 224
3 28 138 243
3 40 209 238
3 113 238 209
3 3   4 169
3 62 123 200
3 53 186 234
3 26 118 242
3 79 269 284
3 68 242 118
3 69 121 213
3 30 167 198
3 97 228 254
3 68 185 130
3 16 148 252
3 46 155 241
3 21 307 129
3 93 296 165
3 85 170 226
3 23 173 153
3 63 308 254
3 57 255 301
3 70 198 167
3 76 267 169
3 25 224 136
3 44 266 172
3 90 172 266
3 89 207 160
3 133 227 267
3 267 227  42
3 20 131 262
3 82 178 260
3 58 235 139
3 78 183 166
3 55 176 159
3 66 217 156
3 51 125 218
3 17 213 184
3 61 165 296
3 31 286 186
3 63 254 195
3 69 171 303
3 122 301 255
3 60 135 221
3 22 192 137
3 62 173 206
3 40 212 149
3 19 178 296
3 67 140 208
3 18 208 140
3 41 248 126
3 13 164 309
3 55 192 174
3 71 295 272
3 62 206 177
3 13 194 150
3 48 277 140
3 72 190 158
3 41 185 248
3 67 132 288
3 44 214 131
3 93 248 185
3 50 189 142
3 45 187 292
3 68 130 242
3 26 242 130
3 42 136 205
3 53 152 186
3 29 288 132
3 89 290 133
3 20 244 131
3 56 247 131
3 91 142 209
3 119 272 295
3 18 140 197
3 15 221 135
3 129 307 215
3 28 187 264
3 98 264 187
3 42 227 136
3 47 158 190
3 64 136 227
3 74 206 199
3 56 173 245
3 47 265 158
3 72 198 190
3 37 196 144
3 107 307 193
3 101 153 219
3 88 236 134
3 49 168 210
3 110 222 289
3 43 284 135
3 130 273 161
3 116 146 276
3 71 137 287
3 67 288 143
3 90 271 237
3 22 137 278
3 55 287 137
3 80 208 234
3 36 179 291
3 73 222 275
3 160 207 279
3 14 139 235
3 0   1 254
3 70 190 198
3 64 277 141
3 95 161 273
3 86 174 192
3 108 259 180
3 110 275 222
3 93 165 248
3 74 177 206
3 21 193 307
3 69 213 171
3 17 171 213
3 56 244 306
3 9  10 295
3 78 199 168
3 1   2 195
3 23 199 206
3 29 143 288
3 23 168 199
3 62 245 173
3 36 250 145
3 57 181 203
3 10  11 220
3 24 305 142
3 90 237 204
3 8 232 159
3 25 141 283
3 48 141 277
3 71 159 232
3 26 223 162
3 20 157 236
3 93 185 211
3 136 224 205
3 140 277 197
3 77 289 147
3 32 147 289
3 18 234 208
3 13 240 164
3 70 164 240
3 18 160 234
3 74 144 270
3 80 286 144
3 13 150 240
3 11  12 293
3 23 206 173
3 34 297 201
3 75 252 148
3 72 214 172
3 44 172 214
3 126 248 165
3 27 146 280
3 91 149 309
3 20 262 158
3 72 158 262
3 131 214 262
3 45 292 148
3 75 148 292
3 111 150 304
3 47 302 150
3 51 276 151
3 8   9 232
3 71 272 188
3 56 306 153
3 22 154 263
3 78 230 199
3 38 226 259
3 98 157 265
3 4   5 282
3 86 192 263
3 55 159 287
3 52 256 161
3 66 202 201
3 81 201 202
3 74 199 230
3 80 234 186
3 71 287 159
3 53 160 279
3 101 268 210
3 81 210 268
3 80 186 286
3 12 181 293
3 4 282 169
3 76 169 282
3 97 254 308
3 38 225 226
3 85 226 225
3 22 263 192
3 120 308 224
3 153 306 219
3 35 237 271
3 30 204 303
3 83 281 166
3 68 211 185
3 34 268 219
3 101 219 268
3 107 215 307
3 87 246 216
3 76 216 246
3 71 232 295
3 85 225 251
3 59 291 179
3 61 178 298
3 82 298 178
3 86 263 279
3 63 224 308
3 88 244 236
3 20 236 244
3 75 187 251
3 28 251 187
3 29 175 253
3 64 197 277
3 74 270 177
3 31 177 270
3 15 200 221
3 123 221 200
3 70 302 190
3 150 194 304
3 57 301 181
3 84 181 301
3 86 279 207
3 63 205 224
3 88 219 306
3 38 259 258
3 108 258 259
3 59 193 291
3 61 296 178
3 73 275 184
3 5 216 282
3 56 245 247
3 94 247 245
3 69 204 237
3 39 188 272
3 122 261 301
3 84 301 261
3 84 293 181
3 17 184 275
3 137 188 278
3 142 305 209
3 88 306 244
3 25 283 191
3 104 278 188
3 70 240 302
3 34 201 268
3 81 268 201
3 1 195 254
3 75 292 187
3 100 223 256
3 105 269 257
3 79 257 269
3 75 251 225
3 112 291 193
3 47 190 302
3 81 202 280
3 27 280 202
3 35 257 215
3 79 215 257
3 66 201 297
3 44 229 266
3 105 266 229
3 72 262 214
3 90 266 271
3 105 271 266
3 97 294 228
3 133 290 227
3 66 297 217
3 113 209 305
3 76 282 216
3 69 303 204
3 125 298 299
3 82 299 298
3 32 289 222
3 84 220 293
3 64 227 290
3 11 293 220
3 96 217 297
3 9 295 232
3 150 302 240
3 105 257 271
3 35 271 257
3 31 270 286
3 144 286 270
CELL_TYPES 556
5 5 5 5 5 5 5 5 5 5 5 5 5 5 5 5 5 5 5 5 5 5 5 5 5 5 5 5 5 5 5 5 5 5 5 5 5 5 5 5 5 5 5 5 5 5 5 5 5 5 5 5 5 5 5 5 5 5 5 5 5 5 5 5 5 5 5 5 5 5 5 5 5 5 5 5 5 5 5 5 5 5 5 5 5 5 5 5 5 5 5 5 5 5 5 5 5 5 5 5 5 5 5 5 5 5 5 5 5 5 5 5 5 5 5 5 5 5 5 5 5 5 5 5 5 5 5 5 5 5 5 5 5 5 5 5 5 5 5 5 5 5 5 5 5 5 5 5 5 5 5 5 5 5 5 5 5 5 5 5 5 5 5 5 5 5 5 5 5 5 5 5 5 5 5 5 5 5 5 5 5 5 5 5 5 5 5 5 5 5 5 5 5 5 5 5 5 5 5 5 5 5 5 5 5 5 5 5 5 5 5 5 5 5 5 5 5 5 5 5 5 5 5 5 5 5 5 5 5 5 5 5 5 5 5 5 5 5 5 5 5 5 5 5 5 5 5 5 5 5 5 5 5 5 5 5 5 5 5 5 5 5 5 5 5 5 5 5 5 5 5 5 5 5 5 5 5 5 5 5 5 5 5 5 5 5 5 5 5 5 5 5 5 5 5 5 5 5 5 5 5 5 5 5 5 5 5 5 5 5 5 5 5 5 5 5 5 5 5 5 5 5 5 5 5 5 5 5 5 5 5 5 5 5 5 5 5 5 5 5 5 5 5 5 5 5 5 5 5 5 5 5 5 5 5 5 5 5 5 5 5 5 5 5 5 5 5 5 5 5 5 5 5 5 5 5 5 5 5 5 5 5 5 5 5 5 5 5 5 5 5 5 5 5 5 5 5 5 5 5 5 5 5 5 5 5 5 5 5 5 5 5 5 5 5 5 5 5 5 5 5 5 5 5 5 5 5 5 5 5 5 5 5 5 5 5 5 5 5 5 5 5 5 5 5 5 5 5 5 5 5 5 5 5 5 5 5 5 5 5 5 5 5 5 5 5 5 5 5 5 5 5 5 5 5 5 5 5 5 5 5 5 5 5 5 5 5 5 5 5 5 5 5 5 5 5 5 5 5 5 5 5 5 5 5 5 5 5 5 5 5 5 5 5 5 5 5 5 5 5 5 5 5 5 5 5 5 5 5 5 5 5 5 5 5 5 5 5 5 5 5 5 5 5 5 5 5 5 5 5 5 5 5 5 5 5 
POINT_DATA 310
VECTORS displacement_ITER1 FLOAT
 -1.326089e-02  -6.265262e-02  0 
 -1.260757e-02  -6.443278e-02  0 
 -1.184322e-02  -6.625416e-02  0 
 -1.100190e-02  -6.806796e-02  0 
 -1.009820e-02  -6.987701e-02  0 
 -9.135224e-03  -7.167881e-02  0 
 -8.110565e-03  -7.346663e-02  0 
 -7.030743e-03  -7.524016e-02  0 
 -5.896869e-03  -7.699541e-02  0 
 -4.710459e-03  -7.873472e-02  0 
 -3.471233e-03  -8.045625e-02  0 
 -2.180814e-03  -8.216253e-02  0 
 -8.393761e-04  -8.385904e-02  0 
 2.123635e-02  -7.419353e-02  0 
 6.880639e-03  -5.749955e-02  0 
 7.494771e-03  -7.113202e-02  0 
 1.918094e-02  -6.115204e-02  0 
 1.217255e-02  -8.122599e-02  0 
 -9.040833e-04  -6.495014e-02  0 
 1.625506e-02  -5.217067e-02  0 
 1.525506e-02  -6.843021e-02  0 
 4.814920e-03  -7.864746e-02  0 
 -4.299432e-05  -7.228891e-02  0 
 9.525755e-03  -6.419129e-02  0 
 1.954206e-02  -8.198797e-02  0 
 -6.553600e-03  -6.183900e-02  0 
 2.223133e-02  -5.537677e-02  0 
 1.317020e-02  -5.763311e-02  0 
 2.207716e-02  -6.743822e-02  0 
 9.216839e-04  -5.895034e-02  0 
 1.452912e-02  -7.520076e-02  0 
 4.145366e-03  -6.680656e-02  0 
 1.021367e-02  -8.728617e-02  0 
 -4.325860e-03  -6.925863e-02  0 
 1.494300e-02  -6.289852e-02  0 
 9.133345e-03  -7.641418e-02  0 
 6.034317e-03  -8.384528e-02  0 
 4.197130e-03  -6.180936e-02  0 
 2.312436e-02  -6.261729e-02  0 
 4.474187e-04  -7.709687e-02  0 
 2.394813e-02  -7.871510e-02  0 
 1.778196e-02  -5.684917e-02  0 
 -7.413509e-03  -6.597585e-02  0 
 3.964016e-03  -7.424446e-02  0 
 1.190968e-02  -7.117554e-02  0 
 1.817111e-02  -6.528950e-02  0 
 1.610801e-02  -8.448412e-02  0 
 1.896901e-02  -7.030096e-02  0 
 -3.041445e-03  -6.118728e-02  0 
 1.033761e-02  -5.967202e-02  0 
 1.801828e-02  -7.768124e-02  0 
 1.007478e-02  -5.559899e-02  0 
 2.271193e-02  -5.919280e-02  0 
 7.357995e-04  -6.842365e-02  0 
 2.565973e-02  -5.541229e-02  0 
 -3.759265e-03  -7.316388e-02  0 
 1.136372e-02  -6.744502e-02  0 
 3.020591e-03  -8.239669e-02  0 
 3.317015e-03  -5.609910e-02  0 
 8.246068e-03  -8.056706e-02  0 
 3.827624e-03  -7.050710e-02  0 
 1.362407e-02  -5.420117e-02  0 
 7.666275e-03  -6.740501e-02  0 
 -9.563238e-03  -6.385894e-02  0 
 -4.376471e-03  -6.403513e-02  0 
 1.560735e-02  -8.034944e-02  0 
 1.596641e-02  -6.003858e-02  0 
 1.041089e-03  -6.208548e-02  0 
 1.950640e-02  -5.354871e-02  0 
 1.213936e-02  -7.791045e-02  0 
 1.778865e-02  -7.386221e-02  0 
 -2.609125e-03  -7.617400e-02  0 
 1.521777e-02  -7.167441e-02  0 
 9.586530e-03  -8.357153e-02  0 
 6.180971e-03  -6.423477e-02  0 
 2.099650e-02  -6.450649e-02  0 
 -7.398496e-03  -6.917445e-02  0 
 1.354427e-02  -8.678478e-02  0 
 7.065730e-03  -6.114198e-02  0 
 6.891309e-03  -7.460216e-02  0 
 2.040640e-03  -6.482908e-02  0 
 1.316346e-02  -6.070397e-02  0 
 1.270851e-02  -5.158818e-02  0 
 4.343649e-03  -5.883847e-02  0 
 3.850201e-05  -8.041067e-02  0 
 2.410763e-02  -6.557735e-02  0 
 -1.761313e-03  -7.016387e-02  0 
 -5.867332e-03  -7.179352e-02  0 
 1.402758e-02  -6.595069e-02  0 
 -2.861829e-03  -6.652543e-02  0 
 1.172231e-02  -7.432313e-02  0 
 2.081739e-02  -7.753428e-02  0 
 2.403437e-02  -7.449275e-02  0 
 1.630644e-02  -5.454040e-02  0 
 9.123006e-03  -6.981770e-02  0 
 1.987475e-02  -5.858547e-02  0 
 1.698054e-02  -6.309898e-02  0 
 -1.099577e-02  -6.180822e-02  0 
 1.914876e-02  -6.784407e-02  0 
 7.897250e-03  -5.474714e-02  0 
 2.460564e-02  -5.746575e-02  0 
 1.121677e-02  -6.323541e-02  0 
 3.760263e-03  -8.460623e-02  0 
 2.784338e-03  -7.762034e-02  0 
 1.262615e-03  -7.470446e-02  0 
 9.437654e-03  -7.329201e-02  0 
 1.566734e-02  -7.794816e-02  0 
 7.714458e-03  -7.812188e-02  0 
 2.462674e-02  -6.043828e-02  0 
 1.841585e-02  -5.072812e-02  0 
 1.243981e-02  -8.434553e-02  0 
 2.138226e-02  -7.007551e-02  0 
 5.111852e-03  -8.175317e-02  0 
 2.217441e-02  -8.128839e-02  0 
 2.164366e-02  -6.132775e-02  0 
 -9.504362e-03  -6.608873e-02  0 
 9.283767e-03  -5.775574e-02  0 
 1.848541e-02  -8.434452e-02  0 
 2.181258e-02  -5.298780e-02  0 
 -1.570772e-03  -7.868549e-02  0 
 -8.902930e-03  -6.096191e-02  0 
 9.956539e-03  -7.861222e-02  0 
 2.598891e-03  -7.940625e-02  0 
 5.385318e-03  -6.848194e-02  0 
 2.640244e-02  -7.915532e-02  0 
 1.166677e-02  -5.410272e-02  0 
 1.580944e-02  -5.777010e-02  0 
 1.519284e-02  -5.012465e-02  0 
 2.254862e-03  -7.298336e-02  0 
 5.152933e-03  -7.615316e-02  0 
 2.014624e-02  -5.554441e-02  0 
 1.297383e-02  -6.925518e-02  0 
 2.720431e-03  -6.037733e-02  0 
 -4.785144e-03  -6.746107e-02  0 
 1.581961e-02  -6.496663e-02  0 
 5.180989e-03  -7.229255e-02  0 
 -6.325713e-03  -6.393829e-02  0 
 -1.687978e-03  -7.398014e-02  0 
 2.317846e-02  -6.939780e-02  0 
 5.940312e-03  -5.568951e-02  0 
 -1.226031e-03  -6.276033e-02  0 
 -4.792801e-03  -6.243941e-02  0 
 1.960819e-02  -7.953543e-02  0 
 -5.521706e-04  -6.055061e-02  0 
 4.027626e-03  -6.394095e-02  0 
 8.198397e-03  -8.551497e-02  0 
 1.134257e-02  -5.828918e-02  0 
 1.210354e-02  -8.886290e-02  0 
 1.916478e-02  -6.330751e-02  0 
 2.317021e-02  -7.664266e-02  0 
 2.064501e-02  -7.213165e-02  0 
 1.237672e-02  -5.572781e-02  0 
 2.887499e-03  -6.849489e-02  0 
 1.114207e-02  -6.526669e-02  0 
 1.444167e-03  -7.055506e-02  0 
 1.407212e-02  -8.251264e-02  0 
 1.792916e-02  -5.893709e-02  0 
 1.697111e-02  -6.708346e-02  0 
 1.656242e-02  -7.017159e-02  0 
 -4.521050e-03  -7.523881e-02  0 
 -1.016832e-03  -6.719071e-02  0 
 2.137446e-02  -5.721516e-02  0 
 2.415696e-02  -5.445174e-02  0 
 1.729856e-02  -8.223031e-02  0 
 1.935831e-02  -7.555533e-02  0 
 1.467182e-02  -5.569490e-02  0 
 6.102582e-03  -5.907712e-02  0 
 1.677985e-02  -7.570259e-02  0 
 9.316918e-03  -6.182865e-02  0 
 -8.759553e-03  -6.807432e-02  0 
 2.605430e-02  -6.604630e-02  0 
 1.356966e-02  -7.951587e-02  0 
 1.330995e-02  -7.310357e-02  0 
 9.408576e-03  -6.627555e-02  0 
 -3.643053e-03  -7.079634e-02  0 
 2.854580e-03  -5.807221e-02  0 
 -5.860161e-03  -7.377892e-02  0 
 6.084696e-03  -6.624044e-02  0 
 1.419220e-02  -5.215654e-02  0 
 7.905755e-03  -8.277798e-02  0 
 2.680271e-02  -6.097877e-02  0 
 6.700807e-04  -8.240885e-02  0 
 2.674863e-02  -5.716694e-02  0 
 8.215758e-03  -5.939303e-02  0 
 1.010042e-02  -8.130362e-02  0 
 1.817469e-02  -5.529512e-02  0 
 2.268196e-03  -6.665639e-02  0 
 2.032524e-02  -6.624083e-02  0 
 -6.645270e-04  -7.548359e-02  0 
 1.761880e-02  -7.995236e-02  0 
 1.719403e-02  -7.196173e-02  0 
 -6.371728e-03  -5.986812e-02  0 
 -1.857584e-03  -7.190457e-02  0 
 6.081595e-03  -7.979307e-02  0 
 2.237275e-02  -7.276859e-02  0 
 -1.095777e-02  -6.468795e-02  0 
 2.672654e-03  -6.268671e-02  0 
 -2.790700e-03  -6.447569e-02  0 
 1.579695e-02  -7.357807e-02  0 
 7.641174e-03  -6.319149e-02  0 
 7.523510e-03  -6.921689e-02  0 
 1.457644e-02  -6.117187e-02  0 
 1.422858e-02  -5.940446e-02  0 
 1.784205e-03  -8.397248e-02  0 
 1.278277e-02  -7.580504e-02  0 
 -8.154427e-03  -6.453408e-02  0 
 7.750367e-03  -6.525296e-02  0 
 -2.673568e-03  -6.855940e-02  0 
 5.474615e-04  -6.385033e-02  0 
 2.188350e-02  -7.937988e-02  0 
 1.163716e-02  -6.113256e-02  0 
 1.786451e-02  -5.311948e-02  0 
 2.490052e-02  -7.703421e-02  0 
 1.157348e-02  -7.962188e-02  0 
 1.362759e-02  -7.102956e-02  0 
 7.238163e-03  -7.626502e-02  0 
 -7.560771e-03  -7.088495e-02  0 
 1.747602e-02  -6.122768e-02  0 
 9.760477e-03  -5.375500e-02  0 
 1.299807e-02  -6.432397e-02  0 
 -1.578883e-03  -8.068190e-02  0 
 5.780896e-03  -7.048232e-02  0 
 1.069847e-02  -8.517956e-02  0 
 2.377411e-02  -5.606675e-02  0 
 -8.142300e-03  -6.288021e-02  0 
 2.268626e-02  -6.423374e-02  0 
 2.492500e-02  -6.403539e-02  0 
 -5.594578e-03  -6.557853e-02  0 
 -1.233203e-02  -6.131606e-02  0 
 9.819915e-03  -7.145749e-02  0 
 5.746129e-03  -6.243174e-02  0 
 1.980271e-02  -5.193143e-02  0 
 -4.166644e-03  -7.699570e-02  0 
 4.480072e-03  -8.314964e-02  0 
 4.812826e-04  -6.599456e-02  0 
 5.122431e-03  -5.740105e-02  0 
 1.530416e-02  -6.667648e-02  0 
 1.101660e-02  -7.634239e-02  0 
 2.372617e-02  -8.096916e-02  0 
 2.085114e-02  -6.006267e-02  0 
 1.951752e-02  -7.366205e-02  0 
 1.417305e-02  -8.495943e-02  0 
 2.091726e-02  -5.434712e-02  0 
 2.401683e-02  -6.722209e-02  0 
 1.353465e-02  -6.732810e-02  0 
 9.555263e-03  -6.808083e-02  0 
 -5.827726e-03  -6.979255e-02  0 
 1.078958e-02  -6.953491e-02  0 
 1.641760e-02  -5.618817e-02  0 
 8.114143e-03  -5.639592e-02  0 
 6.026105e-03  -8.570033e-02  0 
 2.237020e-02  -6.587115e-02  0 
 2.081664e-02  -6.280963e-02  0 
 1.228916e-03  -5.719489e-02  0 
 -1.155638e-02  -6.326258e-02  0 
 3.878283e-03  -8.047001e-02  0 
 2.297155e-02  -5.720108e-02  0 
 8.461218e-03  -7.466997e-02  0 
 2.326471e-02  -6.120472e-02  0 
 2.490908e-02  -6.200866e-02  0 
 1.357202e-02  -5.039229e-02  0 
 9.992489e-04  -7.886513e-02  0 
 1.478277e-02  -7.009472e-02  0 
 -3.453455e-04  -7.044943e-02  0 
 2.073544e-02  -6.855985e-02  0 
 1.760457e-02  -6.871712e-02  0 
 1.091129e-02  -7.286723e-02  0 
 -6.633222e-03  -6.767227e-02  0 
 1.309901e-02  -6.224398e-02  0 
 7.524608e-03  -7.304574e-02  0 
 4.904748e-03  -6.523840e-02  0 
 1.011232e-02  -7.464812e-02  0 
 -1.279290e-03  -7.698977e-02  0 
 1.940118e-02  -5.710042e-02  0 
 2.533829e-02  -5.896449e-02  0 
 1.128075e-02  -8.285657e-02  0 
 1.111768e-02  -5.681688e-02  0 
 -3.228874e-03  -6.290152e-02  0 
 -9.998132e-05  -7.396224e-02  0 
 -9.489582e-04  -6.888264e-02  0 
 1.241736e-02  -5.937271e-02  0 
 4.948071e-03  -6.034680e-02  0 
 -8.590815e-03  -6.993494e-02  0 
 -4.997994e-03  -6.093147e-02  0 
 5.496313e-03  -7.393409e-02  0 
 2.640627e-03  -7.546374e-02  0 
 3.476385e-03  -6.549305e-02  0 
 -3.145643e-03  -7.463860e-02  0 
 9.879974e-04  -6.052460e-02  0 
 1.180269e-02  -8.647594e-02  0 
 -4.083325e-03  -6.561302e-02  0 
 6.672760e-03  -8.174687e-02  0 
 1.965275e-02  -6.483586e-02  0 
 -7.050487e-04  -8.170312e-02  0 
 -1.111342e-02  -6.039482e-02  0 
 -3.194012e-03  -7.817624e-02  0 
 1.501038e-02  -5.374419e-02  0 
 1.602056e-02  -6.171708e-02  0 
 1.273590e-02  -5.286367e-02  0 
 1.131598e-02  -5.236625e-02  0 
 2.207020e-02  -8.283115e-02  0 
 1.666316e-03  -8.081652e-02  0 
 1.883341e-02  -7.222137e-02  0 
 1.373608e-02  -7.727293e-02  0 
 2.211363e-02  -7.149137e-02  0 
 2.075401e-02  -8.086066e-02  0 
 1.245492e-02  -6.614103e-02  0 
 6.198747e-03  -7.779333e-02  0 
 -9.818439e-03  -6.248165e-02  0 
 2.166826e-02  -7.593056e-02  0 
VECTORS displacement_ITER2 FLOAT
 -1.166463e-02  -5.788748e-02  0 
 -1.105400e-02  -5.953925e-02  0 
 -1.034853e-02  -6.121670e-02  0 
 -9.578746e-03  -6.288190e-02  0 
 -8.755711e-03  -6.453824e-02  0 
 -7.880941e-03  -6.618585e-02  0 
 -6.951305e-03  -6.782127e-02  0 
 -5.970782e-03  -6.944450e-02  0 
 -4.940042e-03  -7.105175e-02  0 
 -3.859962e-03  -7.264499e-02  0 
 -2.730545e-03  -7.422168e-02  0 
 -1.553626e-03  -7.578425e-02  0 
 -3.229735e-04  -7.733969e-02  0 
 1.975907e-02  -6.856160e-02  0 
 6.675410e-03  -5.324812e-02  0 
 7.265406e-03  -6.572644e-02  0 
 1.802917e-02  -5.657706e-02  0 
 1.148609e-02  -7.493788e-02  0 
 -3.641759e-04  -6.003197e-02  0 
 1.529599e-02  -4.824870e-02  0 
 1.436126e-02  -6.330026e-02  0 
 4.821587e-03  -7.258210e-02  0 
 4.044619e-04  -6.675239e-02  0 
 9.104482e-03  -5.937556e-02  0 
 1.814410e-02  -7.560132e-02  0 
 -5.478037e-03  -5.715846e-02  0 
 2.088663e-02  -5.114548e-02  0 
 1.243527e-02  -5.333482e-02  0 
 2.070131e-02  -6.241337e-02  0 
 1.287497e-03  -5.458784e-02  0 
 1.367013e-02  -6.947236e-02  0 
 4.211826e-03  -6.174882e-02  0 
 9.685902e-03  -8.041258e-02  0 
 -3.486490e-03  -6.396991e-02  0 
 1.407972e-02  -5.819793e-02  0 
 8.752838e-03  -7.055910e-02  0 
 5.915273e-03  -7.731119e-02  0 
 4.249518e-03  -5.718290e-02  0 
 2.174747e-02  -5.794483e-02  0 
 8.474495e-04  -7.115440e-02  0 
 2.212360e-02  -7.260665e-02  0 
 1.671347e-02  -5.256808e-02  0 
 -6.285660e-03  -6.096007e-02  0 
 4.051271e-03  -6.855686e-02  0 
 1.129369e-02  -6.579233e-02  0 
 1.707121e-02  -6.041826e-02  0 
 1.501883e-02  -7.788781e-02  0 
 1.776387e-02  -6.504011e-02  0 
 -2.280533e-03  -5.659334e-02  0 
 9.835018e-03  -5.522531e-02  0 
 1.681168e-02  -7.171379e-02  0 
 9.581536e-03  -5.148738e-02  0 
 2.136919e-02  -5.474906e-02  0 
 1.116690e-03  -6.321502e-02  0 
 2.421964e-02  -5.118165e-02  0 
 -2.982166e-03  -6.754665e-02  0 
 1.079262e-02  -6.237162e-02  0 
 3.182073e-03  -7.599747e-02  0 
 3.456465e-03  -5.199688e-02  0 
 7.932335e-03  -7.433647e-02  0 
 3.926663e-03  -6.513541e-02  0 
 1.285525e-02  -5.016013e-02  0 
 7.416032e-03  -6.231434e-02  0 
 -8.244423e-03  -5.900946e-02  0 
 -3.506439e-03  -5.918548e-02  0 
 1.460300e-02  -7.413532e-02  0 
 1.502634e-02  -5.554589e-02  0 
 1.396078e-03  -5.742777e-02  0 
 1.831341e-02  -4.947367e-02  0 
 1.147909e-02  -7.192791e-02  0 
 1.664765e-02  -6.826741e-02  0 
 -1.938616e-03  -7.030379e-02  0 
 1.431690e-02  -6.626833e-02  0 
 9.134560e-03  -7.706442e-02  0 
 6.055878e-03  -5.940387e-02  0 
 1.972081e-02  -5.969483e-02  0 
 -6.287713e-03  -6.389354e-02  0 
 1.267978e-02  -7.997086e-02  0 
 6.852523e-03  -5.657533e-02  0 
 6.715567e-03  -6.889642e-02  0 
 2.300999e-03  -5.993176e-02  0 