# vtk DataFile Version 3.1
this is an vtk file created by FEMAC
ASCII
DATASET UNSTRUCTURED_GRID
POINTS 313 FLOAT
2.050000 0.000000 0.000000
2.100000 0.000000 0.000000
2.150000 0.000000 0.000000
2.200000 0.000000 0.000000
2.250000 0.000000 0.000000
2.300000 0.000000 0.000000
2.350000 0.000000 0.000000
2.400000 0.000000 0.000000
2.450000 0.000000 0.000000
2.500000 0.000000 0.000000
2.600000 1.000000 0.000000
2.550000 1.000000 0.000000
2.500000 1.000000 0.000000
2.450000 1.000000 0.000000
2.400000 1.000000 0.000000
2.350000 1.000000 0.000000
2.300000 1.000000 0.000000
2.470807 0.500759 0.000000
2.209160 0.316903 0.000000
2.698438 0.298594 0.000000
2.698995 0.702195 0.000000
2.442037 0.747670 0.000000
2.440025 0.251124 0.000000
2.117785 0.500000 0.000000
2.296392 0.522358 0.000000
2.116873 0.174318 0.000000
2.287846 0.823501 0.000000
2.279520 0.172257 0.000000
2.593209 0.832738 0.000000
2.589879 0.170069 0.000000
2.631041 0.441107 0.000000
2.555059 0.637878 0.000000
2.352675 0.376956 0.000000
2.563062 0.316986 0.000000
2.333959 0.659947 0.000000
2.417598 0.872005 0.000000
2.469484 0.126534 0.000000
2.710547 0.123541 0.000000
2.085019 0.278033 0.000000
2.463717 0.380266 0.000000
2.225220 0.441597 0.000000
2.442568 0.609678 0.000000
2.025144 0.110591 0.000000
2.296690 0.289740 0.000000
2.197921 0.103368 0.000000
2.193702 0.573003 0.000000
2.505503 0.892685 0.000000
2.367269 0.103373 0.000000
2.582976 0.525122 0.000000
2.140066 0.401478 0.000000
2.538707 0.737412 0.000000
2.200351 0.234011 0.000000
2.378933 0.471089 0.000000
2.344133 0.746216 0.000000
2.672727 0.788313 0.000000
2.669744 0.211249 0.000000
2.322762 0.916268 0.000000
2.538589 0.446335 0.000000
2.529711 0.245268 0.000000
2.629884 0.914724 0.000000
2.626581 0.084978 0.000000
2.370821 0.186251 0.000000
2.034904 0.196238 0.000000
2.112638 0.081986 0.000000
2.640006 0.360741 0.000000
2.371168 0.561976 0.000000
2.283570 0.084266 0.000000
2.614844 0.696339 0.000000
2.501911 0.814115 0.000000
2.545127 0.091966 0.000000
2.270406 0.722830 0.000000
2.264586 0.628656 0.000000
2.296597 0.435484 0.000000
2.483653 0.680051 0.000000
2.377220 0.299375 0.000000
2.607836 0.259194 0.000000
2.265856 0.368821 0.000000
2.750680 0.200929 0.000000
2.005196 0.313343 0.000000
2.484863 0.313355 0.000000
2.062036 0.451845 0.000000
2.407258 0.677912 0.000000
2.510054 0.576415 0.000000
2.624543 0.624618 0.000000
2.425965 0.062916 0.000000
2.402822 0.804480 0.000000
2.447090 0.931795 0.000000
2.158007 0.266816 0.000000
2.516339 0.171766 0.000000
2.617782 0.763729 0.000000
2.186009 0.501024 0.000000
2.562359 0.933592 0.000000
2.630783 0.516717 0.000000
2.721921 0.066223 0.000000
2.439552 0.185234 0.000000
2.318675 0.581808 0.000000
2.368895 0.935860 0.000000
2.075583 0.351744 0.000000
2.440608 0.448206 0.000000
2.337889 0.834407 0.000000
2.591911 0.380554 0.000000
2.652259 0.846384 0.000000
2.654596 0.157375 0.000000
2.406841 0.357402 0.000000
2.181266 0.172808 0.000000
2.133870 0.328324 0.000000
2.187166 0.388108 0.000000
2.085313 0.224228 0.000000
2.145335 0.465035 0.000000
2.432080 0.549358 0.000000
2.242763 0.273586 0.000000
2.319518 0.224127 0.000000
2.055183 0.062812 0.000000
2.510412 0.374372 0.000000
2.149838 0.557046 0.000000
2.383761 0.609461 0.000000
2.761694 0.144779 0.000000
2.163347 0.058352 0.000000
2.490717 0.051304 0.000000
2.245017 0.491945 0.000000
2.238479 0.059067 0.000000
2.466506 0.853341 0.000000
2.570685 0.477482 0.000000
2.392675 0.413029 0.000000
2.265065 0.220531 0.000000
2.035584 0.258635 0.000000
2.328266 0.054868 0.000000
2.694043 0.366998 0.000000
2.186150 0.623164 0.000000
2.087990 0.132636 0.000000
2.251775 0.561046 0.000000
2.668497 0.413437 0.000000
2.641968 0.296820 0.000000
2.233829 0.147492 0.000000
2.419907 0.136127 0.000000
2.557738 0.880127 0.000000
2.281712 0.667968 0.000000
2.657898 0.737290 0.000000
2.674689 0.044808 0.000000
2.621972 0.571349 0.000000
2.254217 0.779811 0.000000
2.142927 0.221369 0.000000
2.310638 0.338454 0.000000
2.430653 0.305410 0.000000
2.386382 0.248448 0.000000
2.332634 0.148520 0.000000
2.525741 0.500607 0.000000
2.541052 0.782986 0.000000
2.580339 0.053339 0.000000
2.491251 0.626690 0.000000
2.658911 0.662731 0.000000
2.494563 0.944903 0.000000
2.562023 0.690367 0.000000
2.492020 0.767158 0.000000
2.480827 0.214761 0.000000
2.583150 0.117598 0.000000
2.347194 0.512819 0.000000
2.446421 0.799492 0.000000
2.562129 0.584598 0.000000
2.391475 0.729891 0.000000
2.423201 0.498498 0.000000
2.143315 0.126863 0.000000
2.621681 0.210033 0.000000
2.489373 0.423119 0.000000
2.318021 0.706643 0.000000
2.326404 0.798563 0.000000
2.071433 0.396074 0.000000
2.068052 0.498869 0.000000
2.708471 0.176348 0.000000
2.765412 0.046286 0.000000
2.384948 0.050219 0.000000
2.684520 0.255232 0.000000
2.341977 0.429830 0.000000
2.259929 0.322872 0.000000
2.527757 0.287691 0.000000
2.576488 0.228273 0.000000
2.262209 0.416138 0.000000
2.331338 0.963149 0.000000
2.486111 0.265042 0.000000
2.298774 0.761552 0.000000
2.106454 0.438609 0.000000
2.513350 0.130074 0.000000
2.611473 0.954010 0.000000
2.337354 0.261588 0.000000
2.125000 0.039763 0.000000
2.520189 0.851909 0.000000
2.629680 0.805889 0.000000
2.585695 0.431324 0.000000
2.304944 0.394881 0.000000
2.277583 0.039258 0.000000
2.671429 0.901667 0.000000
2.669185 0.099901 0.000000
2.363914 0.888293 0.000000
2.748453 0.099943 0.000000
2.282371 0.126301 0.000000
2.308543 0.872670 0.000000
2.072223 0.174524 0.000000
2.445840 0.654947 0.000000
2.613377 0.875104 0.000000
2.529337 0.043090 0.000000
2.603870 0.331678 0.000000
2.320495 0.105568 0.000000
2.623430 0.405433 0.000000
2.444145 0.703091 0.000000
2.595513 0.656545 0.000000
2.021387 0.474808 0.000000
2.220194 0.359595 0.000000
2.237348 0.689702 0.000000
2.219995 0.531225 0.000000
2.230719 0.604788 0.000000
2.309414 0.473989 0.000000
2.626322 0.036625 0.000000
2.484295 0.542984 0.000000
2.587610 0.730410 0.000000
2.364670 0.690632 0.000000
2.022230 0.430278 0.000000
2.455190 0.341215 0.000000
2.569494 0.276933 0.000000
2.304725 0.624986 0.000000
2.695951 0.751667 0.000000
2.519451 0.700554 0.000000
2.409525 0.584716 0.000000
2.660087 0.477398 0.000000
2.119133 0.257488 0.000000
2.478836 0.168284 0.000000
2.247234 0.104099 0.000000
2.665563 0.612994 0.000000
2.416257 0.960240 0.000000
2.711609 0.220745 0.000000
2.036417 0.350915 0.000000
2.493023 0.463805 0.000000
2.195111 0.280376 0.000000
2.422245 0.833495 0.000000
2.353059 0.334622 0.000000
2.231826 0.648562 0.000000
2.232006 0.189420 0.000000
2.549993 0.147532 0.000000
2.533891 0.962550 0.000000
2.415542 0.218353 0.000000
2.532996 0.544961 0.000000
2.519938 0.661319 0.000000
2.055228 0.311941 0.000000
2.267691 0.451831 0.000000
2.333358 0.544740 0.000000
2.387448 0.516721 0.000000
2.521803 0.333576 0.000000
2.379208 0.149857 0.000000
2.412553 0.913312 0.000000
2.486669 0.722656 0.000000
2.472050 0.581025 0.000000
2.154305 0.092642 0.000000
2.464872 0.897992 0.000000
2.344640 0.614608 0.000000
2.150643 0.598538 0.000000
2.621392 0.126242 0.000000
2.453237 0.086098 0.000000
2.594966 0.911511 0.000000
2.454657 0.038674 0.000000
2.575000 0.970299 0.000000
2.166659 0.352213 0.000000
2.433080 0.407127 0.000000
2.149955 0.517353 0.000000
2.374675 0.648042 0.000000
2.222858 0.400247 0.000000
2.407110 0.769456 0.000000
2.407747 0.092705 0.000000
2.672907 0.327816 0.000000
2.182531 0.424885 0.000000
2.527222 0.610340 0.000000
2.461562 0.965107 0.000000
2.323117 0.184830 0.000000
2.164534 0.306938 0.000000
2.126566 0.293489 0.000000
2.611955 0.479537 0.000000
2.571191 0.763453 0.000000
2.104714 0.536984 0.000000
2.408570 0.276089 0.000000
2.382591 0.838009 0.000000
2.587313 0.620022 0.000000
2.196822 0.464897 0.000000
2.411508 0.632193 0.000000
2.334373 0.303716 0.000000
2.063240 0.101960 0.000000
2.092247 0.472972 0.000000
2.419340 0.031946 0.000000
2.363117 0.785337 0.000000
2.545138 0.402519 0.000000
2.487197 0.348557 0.000000
2.550564 0.826018 0.000000
2.199958 0.036798 0.000000
2.526204 0.926370 0.000000
2.097858 0.320675 0.000000
2.054587 0.539026 0.000000
2.088610 0.035624 0.000000
2.719191 0.335178 0.000000
2.538964 0.203039 0.000000
2.291884 0.250878 0.000000
2.113284 0.359018 0.000000
2.375000 0.973610 0.000000
2.047000 0.146404 0.000000
2.279716 0.588845 0.000000
2.357042 0.223504 0.000000
2.723676 0.028672 0.000000
2.504403 0.088864 0.000000
2.602448 0.295191 0.000000
2.181881 0.536425 0.000000
2.587886 0.794641 0.000000
2.643308 0.245035 0.000000
2.405407 0.175016 0.000000
2.555694 0.357413 0.000000
2.255465 0.525812 0.000000
2.623419 0.728310 0.000000
2.650315 0.702014 0.000000
CELLS 556 2224 
3 270 124  27
3 111 124 270
3 94 134 224
3 134  36 224
3 120  44 289
3 289  44 117
3 38 125 107
3 57 122 146
3 24  95 300
3 51  87 141
3 54  89 137
3 48  92 139
3 24 119 210
3 48 273  92
3 37 191  93
3 119 242 210
3 39 113 163
3 52 123  98
3 23 108 261
3 90 261 108
3 27 194 145
3 145 194 201
3 65 252  95
3 24 300 130
3 55 162 102
3 29 102 162
3 25 141 107
3 97 166 229
3 52 210 172
3 24 243  95
3 91 256 182
3 17  98 230
3 32 103 123
3 51 141 104
3 25 104 141
3 22 178 143
3 30 131 222
3 51 231  87
3 79 143 178
3 18 110 173
3 101 190 198
3 77 168 116
3 37 116 168
3 44 104 161
3 68 153 147
3 50 147 153
3 55 102 168
3 37 168 102
3 62 107 125
3 58 175 217
3 113 286 163
3 51 124 110
3 26 140 179
3 54 186  89
3 59 198 190
3 35 251 247
3 35 121 251
3 5 126 189
3 44 133 104
3 65 115 252
3 48 122 273
3 5   6 126
3 56  96 177
3 26 179 165
3 57 146 230
3 134 265 255
3 18 173 206
3 91 182 258
3 36 134 255
3 60 155 148
3 69 148 155
3 70 164 179
3 52 156 210
3 74 143 103
3 64 127 131
3 25 129 161
3 63 161 129
3 52  98 160
3 17 160  98
3 98 163 230
3 64 100 200
3 75 217 175
3 59 182 256
3 37  93 193
3 53 214 159
3 49 106 267
3 23 283 108
3 49 267 108
3 49 259 106
3 93 191 138
3 90 108 279
3 70 136 164
3 65  95 243
3 68 157 153
3 21 153 157
3 108 283 180
3 53 164 214
3 37 102 191
3 22 238 154
3 94 154 238
3 68 121 157
3 67 204 150
3 83 150 204
3 83 139 226
3 111 296 124
3 90 279 119
3 40 119 279
3 24 310 119
3 43 110 296
3 26 165  99
3 93 169 193
3 17 146 212
3 56 192  96
3 69 155 236
3 46 121 185
3 68 185 121
3 69 236 181
3 99 192 195
3 49 297 259
3 51 104 235
3 300  71 209
3 38 241 125
3 25 161 104
3 66 189 126
3 48 146 122
3 32 233 103
3 74 103 233
3 76 142 188
3 32 188 142
3 146 239 212
3 51 110 231
3 47 126 170
3 39 260 103
3 110 124 296
3 56 195 192
3 17 109 160
3 44 161 250
3 42 112 282
3 6 170 126
3 26  99 195
3 99 285 277
3 27 124 235
3 4 120 289
3 2 289 117
3 57 163 286
3 65 244 109
3 32 123 172
3 75 307 132
3 64 202 100
3 88 295 154
3 62 196 107
3 25 107 196
3 130 300 209
3 29 254 102
3 27 235 133
3 28 186 101
3 54 101 186
3 43 173 110
3 53 179 164
3 132 307 171
3 28 101 198
3 39 103 216
3 29 295 236
3 9 118 257
3 107 141 223
3 99 165 285
3 50 153 248
3 63 112 293
3 50 248 220
3 53 159 285
3 100 309 200
3 159 264 285
3 49 108 180
3 82 239 158
3 45 253 114
3 3   4 289
3 76 206 173
3 105 259 297
3 88 154 224
3 78 125 241
3 63 282 112
3 104 133 235
3 103 260 123
3 71 136 234
3 21 159 203
3 81 203 159
3 93 138 302
3 2   3 289
3 48 139 158
3 32 172 188
3 38 107 223
3 45 130 209
3 64 131 202
3 18 231 110
3 52 172 123
3 17 212 109
3 65 109 221
3 41 221 109
3 249  41 109
3 44 225 133
3 6   7 170
3 9 199 118
3 102 254 191
3 90 119 208
3 91 290 135
3 46 135 290
3 98 260 163
3 39 163 260
3 47 201 126
3 66 126 201
3 63 184 117
3 2 117 184
3 69 199 148
3 0 293 112
3 19 132 171
3 37 193 116
3 72 210 242
3 83 278 139
3 34 164 136
3 45 128 253
3 72 172 210
3 44 250 117
3 39 287 113
3 29 175 295
3 45 114 305
3 66 120 189
3 4 189 120
3 58 217 174
3 68 147 288
3 47 170 265
3 55 228 171
3 80 215 166
3 99 277 192
3 30 202 131
3 58 154 295
3 63 129 282
3 65 221 115
3 43 142 173
3 63 117 250
3 109 244 160
3 8   9 257
3 75 175 162
3 273 187  30
3 122 187 273
3 96 298 177
3 76 173 142
3 139 278 158
3 57 187 122
3 40 242 119
3 41 149 197
3 73 197 149
3 136 207 234
3 86 247 251
3 35 192 277
3 85 277 285
3 144 301 238
3 66 225 120
3 48 158 239
3 46 151 251
3 86 251 151
3 44 120 225
3 28 198 135
3 121 232 157
3 35 232 121
3 82 158 268
3 72 188 172
3 88 224 181
3 36 181 224
3 20 219 137
3 46 251 121
3 68 288 185
3 98 123 260
3 76 176 263
3 301  61 238
3 71 218 136
3 34 136 218
3 25 196 129
3 84 255 265
3 76 263 206
3 58 178 154
3 70 179 140
3 46 185 135
3 64 200 132
3 27 133 194
3 128 209 234
3 60 211 138
3 33 200 309
3 51 235 124
3 64 266 127
3 45 209 128
3 63 293 184
3 83 226 150
3 45 208 130
3 74 183 144
3 60 138 191
3 133 225 194
3 88 236 295
3 47 134 246
3 75 132 304
3 24 130 310
3 64 132 266
3 89 311 137
3 60 191 254
3 87 223 141
3 103 143 216
3 19 266 132
3 111 183 296
3 29 155 254
3 22 154 178
3 167 275 292
3 60 148 211
3 29 162 175
3 43 296 183
3 70 207 136
3 61 270 145
3 47 246 145
3 58 174 178
3 47 145 201
3 49 166 297
3 97 297 166
3 66 201 194
3 21 157 264
3 85 264 157
3 12 269 151
3 84 265 170
3 31 152 240
3 20 137 312
3 21 248 153
3 28 135 288
3 54 137 219
3 94 224 154
3 47 265 134
3 94 308 134
3 80 166 180
3 49 180 166
3 72 176 188
3 76 188 176
3 93 302 169
3 41 249 149
3 82 149 249
3 12 151 237
3 15  16 177
3 23 275 167
3 53 165 179
3 79 216 143
3 91 135 256
3 81 159 214
3 13  14 227
3 67 152 204
3 31 204 152
3 80 167 205
3 32 142 233
3 106 259 206
3 18 206 259
3 17 230 146
3 43 281 142
3 1   2 184
3 79 178 174
3 12  13 269
3 22 144 238
3 74 276 143
3 22 143 276
3 22 276 144
3 74 144 276
3 67 213 152
3 34 252 262
3 65 243 156
3 52 244 156
3 48 239 146
3 57 230 163
3 24 210 156
3 50 152 213
3 27 145 270
3 61 145 246
3 20 312 150
3 4   5 189
3 11  12 237
3 61 301 270
3 0   1 293
3 50 220 152
3 50 274 147
3 52 160 244
3 73 149 240
3 41 280 221
3 115 262 252
3 115 221 280
3 69 303 199
3 118 199 303
3 77 228 168
3 55 168 228
3 57 286 187
3 63 250 161
3 31 268 158
3 15 177 298
3 100 187 286
3 62 299 196
3 36 303 181
3 81 197 203
3 73 203 197
3 36 255 303
3 82 212 239
3 34 214 164
3 67 150 312
3 29 236 155
3 82 268 149
3 85 157 232
3 21 203 248
3 33 304 200
3 10 258 182
3 46 290 151
3 13 227 269
3 86 151 269
3 24 156 243
3 65 156 244
3 33 217 304
3 60 254 155
3 152 220 240
3 33 174 217
3 100 202 187
3 30 187 202
3 149 268 240
3 42 282 299
3 31 158 278
3 40 176 242
3 55 307 162
3 135 198 256
3 21 264 159
3 96 192 247
3 35 247 192
3 7   8 284
3 31 240 268
3 90 208 305
3 88 181 236
3 86 227 247
3 96 247 227
3 80 205 215
3 55 171 307
3 147 306 288
3 97 241 291
3 111 270 301
3 129 299 282
3 33 245 174
3 79 174 245
3 135 185 288
3 28 288 306
3 75 162 307
3 111 301 183
3 61 308 238
3 109 212 249
3 84 257 255
3 118 255 257
3 66 194 225
3 10  11 258
3 53 285 165
3 80 283 167
3 97 229 241
3 23 167 283
3 72 242 176
3 84 170 284
3 7 284 170
3 144 183 301
3 14  15 298
3 81 280 197
3 43 183 281
3 40 263 176
3 19 294 266
3 74 281 183
3 85 285 264
3 127 266 294
3 38 291 241
3 58 295 175
3 71 234 209
3 86 269 227
3 59 256 198
3 39 216 287
3 28 306 186
3 89 186 306
3 34 262 214
3 80 180 283
3 45 305 208
3 114 275 261
3 23 261 275
3 30 222 273
3 92 273 222
3 73 240 220
3 73 248 203
3 73 220 248
3 78 241 229
3 1 184 293
3 69 181 303
3 34 218 252
3 106 263 267
3 82 249 212
3 8 257 284
3 40 267 263
3 41 197 280
3 96 227 298
3 14 298 227
3 38 223 272
3 87 272 223
3 71 300 218
3 95 218 300
3 114 261 305
3 106 206 263
3 81 262 280
3 132 200 304
3 94 238 308
3 95 252 218
3 11 237 258
3 91 258 237
3 113 245 309
3 33 309 245
3 31 278 204
3 130 208 310
3 81 214 262
3 74 233 281
3 83 204 278
3 129 196 299
3 118 303 255
3 50 213 274
3 89 274 213
3 18 271 231
3 87 231 271
3 105 272 271
3 87 271 272
3 35 277 232
3 79 287 216
3 67 311 213
3 89 213 311
3 119 310 208
3 75 304 217
3 85 232 277
3 134 308 246
3 105 271 259
3 18 259 271
3 142 281 233
3 108 267 279
3 40 279 267
3 151 290 237
3 91 237 290
3 137 311 312
3 67 312 311
3 79 245 287
3 147 274 306
3 113 287 245
3 115 280 262
3 84 284 257
3 100 286 309
3 113 309 286
3 105 297 291
3 97 291 297
3 105 291 272
3 61 246 308
3 38 272 291
3 90 305 261
3 89 306 274
CELL_TYPES 556
5 5 5 5 5 5 5 5 5 5 5 5 5 5 5 5 5 5 5 5 5 5 5 5 5 5 5 5 5 5 5 5 5 5 5 5 5 5 5 5 5 5 5 5 5 5 5 5 5 5 5 5 5 5 5 5 5 5 5 5 5 5 5 5 5 5 5 5 5 5 5 5 5 5 5 5 5 5 5 5 5 5 5 5 5 5 5 5 5 5 5 5 5 5 5 5 5 5 5 5 5 5 5 5 5 5 5 5 5 5 5 5 5 5 5 5 5 5 5 5 5 5 5 5 5 5 5 5 5 5 5 5 5 5 5 5 5 5 5 5 5 5 5 5 5 5 5 5 5 5 5 5 5 5 5 5 5 5 5 5 5 5 5 5 5 5 5 5 5 5 5 5 5 5 5 5 5 5 5 5 5 5 5 5 5 5 5 5 5 5 5 5 5 5 5 5 5 5 5 5 5 5 5 5 5 5 5 5 5 5 5 5 5 5 5 5 5 5 5 5 5 5 5 5 5 5 5 5 5 5 5 5 5 5 5 5 5 5 5 5 5 5 5 5 5 5 5 5 5 5 5 5 5 5 5 5 5 5 5 5 5 5 5 5 5 5 5 5 5 5 5 5 5 5 5 5 5 5 5 5 5 5 5 5 5 5 5 5 5 5 5 5 5 5 5 5 5 5 5 5 5 5 5 5 5 5 5 5 5 5 5 5 5 5 5 5 5 5 5 5 5 5 5 5 5 5 5 5 5 5 5 5 5 5 5 5 5 5 5 5 5 5 5 5 5 5 5 5 5 5 5 5 5 5 5 5 5 5 5 5 5 5 5 5 5 5 5 5 5 5 5 5 5 5 5 5 5 5 5 5 5 5 5 5 5 5 5 5 5 5 5 5 5 5 5 5 5 5 5 5 5 5 5 5 5 5 5 5 5 5 5 5 5 5 5 5 5 5 5 5 5 5 5 5 5 5 5 5 5 5 5 5 5 5 5 5 5 5 5 5 5 5 5 5 5 5 5 5 5 5 5 5 5 5 5 5 5 5 5 5 5 5 5 5 5 5 5 5 5 5 5 5 5 5 5 5 5 5 5 5 5 5 5 5 5 5 5 5 5 5 5 5 5 5 5 5 5 5 5 5 5 5 5 5 5 5 5 5 5 5 5 5 5 5 5 5 5 5 5 5 5 5 5 5 5 5 5 5 5 5 5 5 5 5 5 5 5 5 5 5 5 5 5 5 5 5 5 5 5 5 5 5 5 5 5 5 
POINT_DATA 313
VECTORS displacement_ITER1 FLOAT
 -7.828763e-03  -6.843154e-03  0 
 -8.265769e-03  -7.399828e-03  0 
 -8.706735e-03  -8.128996e-03  0 
 -9.130724e-03  -8.951705e-03  0 
 -9.561902e-03  -9.804600e-03  0 
 -1.001538e-02  -1.072232e-02  0 
 -1.047929e-02  -1.169379e-02  0 
 -1.095722e-02  -1.271823e-02  0 
 -1.145993e-02  -1.377951e-02  0 
 -1.199807e-02  -1.484989e-02  0 
 1.207407e-02  -1.662643e-02  0 
 1.158769e-02  -1.552972e-02  0 
 1.118467e-02  -1.445433e-02  0 
 1.079107e-02  -1.339859e-02  0 
 1.037535e-02  -1.237794e-02  0 
 9.873654e-03  -1.143756e-02  0 
 9.170411e-03  -1.069690e-02  0 
 1.187179e-04  -1.405086e-02  0 
 -3.528378e-03  -8.945302e-03  0 
 -5.031341e-03  -2.003283e-02  0 
 5.249873e-03  -1.902527e-02  0 
 5.450738e-03  -1.329363e-02  0 
 -5.606752e-03  -1.344384e-02  0 
 -3.233326e-04  -7.471265e-03  0 
 3.362498e-04  -1.044172e-02  0 
 -5.724782e-03  -7.497445e-03  0 
 6.451323e-03  -1.015091e-02  0 
 -6.560711e-03  -1.023195e-02  0 
 7.965375e-03  -1.652557e-02  0 
 -8.358879e-03  -1.718977e-02  0 
 -1.199275e-03  -1.790143e-02  0 
 3.355391e-03  -1.579767e-02  0 
 -2.612107e-03  -1.157955e-02  0 
 -4.270906e-03  -1.639179e-02  0 
 3.236257e-03  -1.113279e-02  0 
 7.981546e-03  -1.272123e-02  0 
 -8.743145e-03  -1.413095e-02  0 
 -1.049963e-02  -2.114682e-02  0 
 -3.870028e-03  -6.952996e-03  0 
 -2.626314e-03  -1.395709e-02  0 
 -1.255451e-03  -9.169415e-03  0 
 2.463885e-03  -1.338567e-02  0 
 -6.214950e-03  -6.199454e-03  0 
 -4.298884e-03  -1.051076e-02  0 
 -7.358112e-03  -8.836297e-03  0 
 1.090225e-03  -8.565248e-03  0 
 8.893302e-03  -1.454255e-02  0 
 -8.511235e-03  -1.194911e-02  0 
 8.279150e-04  -1.656807e-02  0 
 -1.876960e-03  -7.802992e-03  0 
 5.552495e-03  -1.536281e-02  0 
 -5.032499e-03  -8.818308e-03  0 
 -6.213447e-04  -1.209500e-02  0 
 5.085674e-03  -1.129752e-02  0 
 7.228502e-03  -1.839383e-02  0 
 -7.453282e-03  -1.958570e-02  0 
 8.393594e-03  -1.091878e-02  0 
 -1.083436e-03  -1.564120e-02  0 
 -6.047080e-03  -1.557242e-02  0 
 1.023160e-02  -1.736883e-02  0 
 -1.132917e-02  -1.833345e-02  0 
 -6.763036e-03  -1.198218e-02  0 
 -5.028468e-03  -6.231909e-03  0 
 -7.191067e-03  -7.512720e-03  0 
 -3.261711e-03  -1.830807e-02  0 
 1.284761e-03  -1.191222e-02  0 
 -8.280249e-03  -1.035031e-02  0 
 4.844107e-03  -1.707805e-02  0 
 7.134277e-03  -1.450761e-02  0 
 -1.028517e-02  -1.591402e-02  0 
 4.390518e-03  -9.810155e-03  0 
 2.368702e-03  -9.786031e-03  0 
 -1.383632e-03  -1.047293e-02  0 
 4.108945e-03  -1.421635e-02  0 
 -4.323364e-03  -1.209178e-02  0 
 -5.878215e-03  -1.764854e-02  0 
 -2.665672e-03  -9.920037e-03  0 
 -8.120534e-03  -2.222376e-02  0 
 -3.076792e-03  -5.745641e-03  0 
 -4.234590e-03  -1.447129e-02  0 
 -1.021919e-03  -6.759291e-03  0 
 3.839396e-03  -1.261453e-02  0 
 1.879570e-03  -1.486349e-02  0 
 3.206457e-03  -1.733658e-02  0 
 -9.855803e-03  -1.320640e-02  0 
 6.517864e-03  -1.245448e-02  0 
 9.364016e-03  -1.330539e-02  0 
 -4.287384e-03  -8.110422e-03  0 
 -7.919364e-03  -1.522876e-02  0 
 6.431124e-03  -1.712408e-02  0 
 -2.151727e-04  -8.470794e-03  0 
 1.018402e-02  -1.578741e-02  0 
 6.737205e-04  -1.772657e-02  0 
 -1.272045e-02  -2.168802e-02  0 
 -7.155156e-03  -1.343846e-02  0 
 1.575245e-03  -1.085461e-02  0 
 8.957187e-03  -1.174853e-02  0 
 -2.605489e-03  -6.813225e-03  0 
 -1.080379e-03  -1.341212e-02  0 
 6.876859e-03  -1.114986e-02  0 
 -2.700418e-03  -1.703430e-02  0 
 8.535818e-03  -1.793589e-02  0 
 -9.086323e-03  -1.918558e-02  0 
 -3.095150e-03  -1.270699e-02  0 
 -6.051438e-03  -8.525006e-03  0 
 -3.130220e-03  -7.715233e-03  0 
 -2.183158e-03  -8.553861e-03  0 
 -4.765982e-03  -6.976574e-03  0 
 -8.345106e-04  -7.859359e-03  0 
 1.132844e-03  -1.318687e-02  0 
 -4.445228e-03  -9.537426e-03  0 
 -5.717419e-03  -1.096488e-02  0 
 -7.161456e-03  -6.736407e-03  0 
 -2.794110e-03  -1.504405e-02  0 
 6.511399e-04  -7.847357e-03  0 
 2.313626e-03  -1.215835e-02  0 
 -9.979166e-03  -2.282417e-02  0 
 -7.884942e-03  -8.299181e-03  0 
 -1.070900e-02  -1.465818e-02  0 
 -3.156038e-04  -9.492447e-03  0 
 -8.415703e-03  -9.556927e-03  0 
 7.829809e-03  -1.373209e-02  0 
 -3.236327e-04  -1.635850e-02  0 
 -1.864642e-03  -1.239716e-02  0 
 -5.548226e-03  -9.948871e-03  0 
 -4.041147e-03  -6.203045e-03  0 
 -9.196070e-03  -1.121517e-02  0 
 -3.180519e-03  -1.973161e-02  0 
 2.023218e-03  -8.398937e-03  0 
 -6.256330e-03  -7.099258e-03  0 
 1.012864e-03  -9.591446e-03  0 
 -1.912670e-03  -1.893013e-02  0 
 -4.916438e-03  -1.852752e-02  0 
 -6.779650e-03  -9.423561e-03  0 
 -8.171501e-03  -1.302275e-02  0 
 8.910880e-03  -1.568967e-02  0 
 3.234347e-03  -1.008968e-02  0 
 5.958562e-03  -1.805482e-02  0 
 -1.323254e-02  -1.996653e-02  0 
 1.971951e-03  -1.736472e-02  0 
 5.463694e-03  -9.549267e-03  0 
 -5.033938e-03  -7.881682e-03  0 
 -3.349258e-03  -1.076203e-02  0 
 -4.308106e-03  -1.322999e-02  0 
 -5.469285e-03  -1.228840e-02  0 
 -7.336185e-03  -1.123649e-02  0 
 1.811031e-04  -1.528162e-02  0 
 6.591139e-03  -1.538366e-02  0 
 -1.189374e-02  -1.690090e-02  0 
 2.955004e-03  -1.441572e-02  0 
 4.175043e-03  -1.807532e-02  0 
 9.962258e-03  -1.430730e-02  0 
 4.557350e-03  -1.590739e-02  0 
 6.055324e-03  -1.433146e-02  0 
 -6.643732e-03  -1.436957e-02  0 
 -9.881194e-03  -1.699493e-02  0 
 2.177559e-04  -1.143941e-02  0 
 6.585331e-03  -1.334945e-02  0 
 2.166787e-03  -1.600905e-02  0 
 4.899817e-03  -1.226190e-02  0 
 9.898283e-06  -1.302169e-02  0 
 -6.643824e-03  -7.941194e-03  0 
 -7.317216e-03  -1.809968e-02  0 
 -1.637978e-03  -1.451604e-02  0 
 4.172728e-03  -1.079362e-02  0 
 6.100862e-03  -1.092099e-02  0 
 -1.836037e-03  -6.779729e-03  0 
 -3.969105e-04  -6.897822e-03  0 
 -8.719488e-03  -2.093940e-02  0 
 -1.375113e-02  -2.343669e-02  0 
 -9.770190e-03  -1.235486e-02  0 
 -6.128908e-03  -1.990716e-02  0 
 -1.501521e-03  -1.135510e-02  0 
 -3.545591e-03  -9.828066e-03  0 
 -4.951822e-03  -1.551606e-02  0 
 -6.647369e-03  -1.680750e-02  0 
 -1.748760e-03  -9.838331e-03  0 
 9.155202e-03  -1.111398e-02  0 
 -5.412519e-03  -1.450463e-02  0 
 5.260703e-03  -1.038493e-02  0 
 -1.229584e-03  -7.309954e-03  0 
 -8.994868e-03  -1.514467e-02  0 
 1.099953e-02  -1.691524e-02  0 
 -5.010592e-03  -1.129416e-02  0 
 -7.908123e-03  -7.722960e-03  0 
 8.064498e-03  -1.487889e-02  0 
 7.471199e-03  -1.739439e-02  0 
 -1.438369e-03  -1.679372e-02  0 
 -2.198279e-03  -1.064087e-02  0 
 -9.082448e-03  -1.027282e-02  0 
 1.015868e-02  -1.844594e-02  0 
 -1.112039e-02  -1.974146e-02  0 
 8.058939e-03  -1.166122e-02  0 
 -1.154574e-02  -2.263059e-02  0 
 -7.467820e-03  -1.030531e-02  0 
 7.527416e-03  -1.057806e-02  0 
 -5.521794e-03  -6.818733e-03  0 
 3.456055e-03  -1.343010e-02  0 
 9.095932e-03  -1.696819e-02  0 
 -1.126181e-02  -1.558177e-02  0 
 -3.950432e-03  -1.742952e-02  0 
 -8.126808e-03  -1.103413e-02  0 
 -2.096834e-03  -1.778447e-02  0 
 4.494285e-03  -1.336605e-02  0 
 3.874236e-03  -1.667116e-02  0 
 -7.513527e-04  -6.356596e-03  0 
 -2.762022e-03  -9.118364e-03  0 
 3.565240e-03  -9.159039e-03  0 
 3.776084e-04  -9.037188e-03  0 
 1.802420e-03  -9.185537e-03  0 
 -6.103962e-04  -1.070303e-02  0 
 -1.308272e-02  -1.841906e-02  0 
 1.083969e-03  -1.432120e-02  0 
 5.549931e-03  -1.645113e-02  0 
 3.980292e-03  -1.173838e-02  0 
 -1.241696e-03  -6.318614e-03  0 
 -3.520729e-03  -1.377858e-02  0 
 -5.319332e-03  -1.659401e-02  0 
 2.418295e-03  -1.056506e-02  0 
 6.453301e-03  -1.894997e-02  0 
 4.666226e-03  -1.497126e-02  0 
 1.847922e-03  -1.269993e-02  0 
 -2.897353e-04  -1.853997e-02  0 
 -4.323709e-03  -7.490404e-03  0 
 -7.793110e-03  -1.432669e-02  0 
 -7.660983e-03  -9.687201e-03  0 
 3.047066e-03  -1.821200e-02  0 
 9.721379e-03  -1.267611e-02  0 
 -7.291094e-03  -2.096980e-02  0 
 -2.559504e-03  -6.203250e-03  0 
 -6.980469e-04  -1.457141e-02  0 
 -4.162003e-03  -8.721450e-03  0 
 7.205821e-03  -1.283367e-02  0 
 -3.509603e-03  -1.159678e-02  0 
 2.658505e-03  -9.140220e-03  0 
 -5.992516e-03  -9.377064e-03  0 
 -8.779081e-03  -1.608750e-02  0 
 1.063736e-02  -1.515908e-02  0 
 -6.268220e-03  -1.290722e-02  0 
 1.209410e-03  -1.540420e-02  0 
 3.793490e-03  -1.501065e-02  0 
 -3.228610e-03  -6.490682e-03  0 
 -1.067166e-03  -9.926191e-03  0 
 8.506324e-04  -1.115770e-02  0 
 3.562289e-04  -1.226247e-02  0 
 -3.797709e-03  -1.534866e-02  0 
 -7.596591e-03  -1.217090e-02  0 
 8.784229e-03  -1.260385e-02  0 
 5.054839e-03  -1.425044e-02  0 
 1.903955e-03  -1.403098e-02  0 
 -7.272569e-03  -8.144449e-03  0 
 8.768649e-03  -1.367935e-02  0 
 2.318762e-03  -1.136185e-02  0 
 1.486414e-03  -7.766213e-03  0 
 -9.902604e-03  -1.815381e-02  0 
 -9.566213e-03  -1.378585e-02  0 
 9.885745e-03  -1.653576e-02  0 
 -1.066185e-02  -1.384740e-02  0 
 1.113645e-02  -1.605967e-02  0 
 -2.783424e-03  -8.231055e-03  0 
 -2.001568e-03  -1.326715e-02  0 
 5.779512e-06  -7.899033e-03  0 
 3.106887e-03  -1.195882e-02  0 
 -2.011662e-03  -9.147174e-03  0 
 5.793707e-03  -1.256004e-02  0 
 -9.048527e-03  -1.279716e-02  0 
 -4.182215e-03  -1.925869e-02  0 
 -1.529391e-03  -8.457699e-03  0 
 2.674418e-03  -1.521223e-02  0 
 1.015381e-02  -1.361929e-02  0 
 -6.537728e-03  -1.104132e-02  0 
 -3.590024e-03  -8.209810e-03  0 
 -3.722207e-03  -7.601005e-03  0 
 -2.503736e-04  -1.734710e-02  0 
 6.256419e-03  -1.606616e-02  0 
 1.293197e-04  -7.321481e-03  0 
 -4.924252e-03  -1.275367e-02  0 
 7.131603e-03  -1.203500e-02  0 
 3.024681e-03  -1.652446e-02  0 
 -8.377403e-04  -8.674248e-03  0 
 2.871502e-03  -1.272348e-02  0 
 -4.118091e-03  -1.123200e-02  0 
 -6.591955e-03  -6.780294e-03  0 
 -7.233082e-04  -7.147082e-03  0 
 -1.046962e-02  -1.309227e-02  0 
 5.967067e-03  -1.166048e-02  0 
 -2.132087e-03  -1.584729e-02  0 
 -3.390499e-03  -1.451340e-02  0 
 7.615780e-03  -1.556540e-02  0 
 -8.511606e-03  -8.912172e-03  0 
 9.772824e-03  -1.498649e-02  0 
 -3.179209e-03  -7.149818e-03  0 
 4.851389e-05  -6.816459e-03  0 
 -7.720806e-03  -7.210818e-03  0 
 -4.077976e-03  -2.045106e-02  0 
 -7.194125e-03  -1.580840e-02  0 
 -5.059940e-03  -1.043269e-02  0 
 -2.549710e-03  -7.396193e-03  0 
 9.658786e-03  -1.187558e-02  0 
 -5.828555e-03  -6.494782e-03  0 
 1.622315e-03  -1.009964e-02  0 
 -5.893730e-03  -1.169355e-02  0 
 -1.427203e-02  -2.180074e-02  0 
 -9.947185e-03  -1.495853e-02  0 
 -4.900871e-03  -1.745251e-02  0 
 3.906007e-04  -8.383971e-03  0 
 7.042377e-03  -1.642643e-02  0 
 -6.358130e-03  -1.869098e-02  0 
 -7.198151e-03  -1.270585e-02  0 
 -3.244295e-03  -1.616082e-02  0 
 3.417032e-04  -9.678932e-03  0 
 5.621263e-03  -1.726296e-02  0 
 5.087135e-03  -1.788366e-02  0 
VECTORS displacement_ITER2 FLOAT
 -6.762492e-03  -7.257779e-03  0 
 -7.223539e-03  -7.749774e-03  0 
 -7.666788e-03  -8.400644e-03  0 
 -8.082536e-03  -9.134534e-03  0 
 -8.493148e-03  -9.894758e-03  0 
 -8.909938e-03  -1.070945e-02  0 
 -9.321505e-03  -1.156546e-02  0 
 -9.731379e-03  -1.246011e-02  0 
 -1.015070e-02  -1.338084e-02  0 
 -1.059735e-02  -1.431112e-02  0 
 1.251875e-02  -1.710775e-02  0 
 1.199520e-02  -1.580593e-02  0 
 1.153377e-02  -1.460217e-02  0 
 1.109175e-02  -1.345235e-02  0 
 1.064612e-02  -1.235569e-02  0 
 1.015085e-02  -1.134748e-02  0 
 9.508362e-03  -1.049261e-02  0 
 -2.215356e-04  -1.368344e-02  0 
 -3.261069e-03  -9.071648e-03  0 
 -5.222315e-03  -1.859487e-02  0 
 5.176178e-03  -1.933587e-02  0 
 5.249085e-03  -1.319759e-02  0 
 -5.249709e-03  -1.307067e-02  0 
 -4.298932e-04  -7.698484e-03  0 
 1.084224e-04  -1.032540e-02  0 
 -5.050231e-03  -7.831762e-03  0 
 6.333308e-03  -9.902716e-03  0 
 -5.906585e-03  -1.025758e-02  0 
 8.047874e-03  -1.676206e-02  0 
 -7.679494e-03  -1.617466e-02  0 
 -1.635494e-03  -1.712447e-02  0 
 3.029708e-03  -1.564508e-02  0 
 -2.585231e-03  -1.140131e-02  0 
 -4.317214e-03  -1.558541e-02  0 
 2.883143e-03  -1.094467e-02  0 
 8.010070e-03  -1.269204e-02  0 
 -7.855092e-03  -1.369017e-02  0 
 -9.490848e-03  -1.904203e-02  0 
 -3.473097e-03  -7.347254e-03  0 
 -2.732187e-03  -1.352017e-02  0 
 -1.287548e-03  -9.223061e-03  0 
 2.111337e-03  -1.313936e-02  0 
 -5.366298e-03  -6.701371e-03  0 
 -3.990507e-03  -1.047532e-02  0 
 -6.525010e-03  -9.023607e-03  0 
 8.105546e-04  -8.627054e-03  0 
 9.012853e-03  -1.467322e-02  0 
 -7.624395e-03  -1.179100e-02  0 
 3.442037e-04  -1.613936e-02  0 
 -1.808553e-03  -8.031535e-03  0 
 5.405985e-03  -1.536985e-02  0 
 -4.538155e-03  -8.984206e-03  0 
 -8.269314e-04  -1.185290e-02  0 
 4.813517e-03  -1.112417e-02  0 
 7.305473e-03  -1.872810e-02  0 
 -7.144350e-03  -1.800272e-02  0 
 8.483874e-03  -1.076087e-02  0 
 -1.430960e-03  -1.509482e-02  0 
 -5.744052e-03  -1.487421e-02  0 
 1.048826e-02  -1.777686e-02  0 
 -9.922693e-03  -1.704811e-02  0 
 -6.147582e-03  -1.181010e-02  0 
 -4.396852e-03  -6.757043e-03  0 
 -6.296618e-03  -7.847518e-03  0 
 -3.554792e-03  -1.728116e-02  0 
 9.693936e-04  -1.168716e-02  0 
 -7.386707e-03  -1.037499e-02  0 
 4.685036e-03  -1.715922e-02  0 
 7.098179e-03  -1.456256e-02  0 
 -9.108452e-03  -1.519574e-02  0 
 4.002496e-03  -9.602662e-03  0 