# vtk DataFile Version 3.1
this is an vtk file created by FEMAC
ASCII
DATASET UNSTRUCTURED_GRID
POINTS 312 FLOAT
4.000000 3.732051 0.000000
3.956508 3.756443 0.000000
3.912421 3.779744 0.000000
3.867767 3.801938 0.000000
3.822574 3.823012 0.000000
3.776870 3.842952 0.000000
3.730682 3.861747 0.000000
3.684040 3.879385 0.000000
3.636973 3.895855 0.000000
3.589510 3.911146 0.000000
3.541681 3.925248 0.000000
3.493515 3.938155 0.000000
3.445042 3.949856 0.000000
3.396292 3.960345 0.000000
3.347296 3.969616 0.000000
3.298085 3.977662 0.000000
3.248687 3.984478 0.000000
3.294755 2.955573 0.000000
3.246757 2.969077 0.000000
3.198146 2.980172 0.000000
3.149042 2.988831 0.000000
3.551761 3.391438 0.000000
3.332870 3.644867 0.000000
3.869427 3.418685 0.000000
3.289966 3.245607 0.000000
3.575866 3.654152 0.000000
3.465054 3.125471 0.000000
3.215687 3.461779 0.000000
3.789368 3.604350 0.000000
3.720914 3.313226 0.000000
3.452180 3.778979 0.000000
3.391296 3.475202 0.000000
3.697086 3.460034 0.000000
3.159148 3.145898 0.000000
3.575094 3.246237 0.000000
3.312687 3.107629 0.000000
3.438625 3.285204 0.000000
3.929055 3.605811 0.000000
3.700760 3.726373 0.000000
3.332302 3.838230 0.000000
3.516914 3.528287 0.000000
3.580282 3.778895 0.000000
3.456479 3.641358 0.000000
3.312747 3.378961 0.000000
3.674797 3.586618 0.000000
3.399364 3.032444 0.000000
3.295674 3.533127 0.000000
3.391322 3.209236 0.000000
3.795186 3.495612 0.000000
3.859485 3.689557 0.000000
3.246193 3.692473 0.000000
3.764141 3.389660 0.000000
3.649297 3.381283 0.000000
3.243927 3.883265 0.000000
3.355425 3.735858 0.000000
3.452340 3.392070 0.000000
3.945242 3.523113 0.000000
3.595465 3.481542 0.000000
3.231512 3.066385 0.000000
3.422060 3.859521 0.000000
3.389026 3.567453 0.000000
3.200083 3.238714 0.000000
3.485688 3.217395 0.000000
3.809229 3.313764 0.000000
3.509940 3.844297 0.000000
3.790393 3.738459 0.000000
3.902946 3.341718 0.000000
3.521122 3.711783 0.000000
3.524134 3.310497 0.000000
3.241716 3.319255 0.000000
3.250826 3.167302 0.000000
3.253535 3.602756 0.000000
3.593024 3.563299 0.000000
3.634468 3.301261 0.000000
3.854459 3.568519 0.000000
3.654315 3.791374 0.000000
3.278860 3.774561 0.000000
3.355507 3.309785 0.000000
3.321764 3.028869 0.000000
3.313848 3.457316 0.000000
3.621900 3.713497 0.000000
3.715284 3.647882 0.000000
3.495700 3.452690 0.000000
3.937640 3.682064 0.000000
3.186142 3.388837 0.000000
3.388704 3.122561 0.000000
3.522289 3.604604 0.000000
3.312418 3.904555 0.000000
3.732592 3.538779 0.000000
3.980718 3.451449 0.000000
3.418929 3.702108 0.000000
3.444136 3.520812 0.000000
3.376171 3.402262 0.000000
3.732157 3.789332 0.000000
3.315536 3.192773 0.000000
3.388661 3.796332 0.000000
3.858555 3.500478 0.000000
3.254900 3.401505 0.000000
3.648321 3.651277 0.000000
3.589380 3.334677 0.000000
3.651676 3.522990 0.000000
3.978203 3.543161 0.000000
3.594193 3.844372 0.000000
3.294976 3.693715 0.000000
4.001250 3.655568 0.000000
3.710869 3.370414 0.000000
3.840090 3.380855 0.000000
3.773962 3.686165 0.000000
3.934119 3.411924 0.000000
3.386461 3.635449 0.000000
3.520617 3.767723 0.000000
3.379685 3.898474 0.000000
3.405490 3.347359 0.000000
3.815315 3.447437 0.000000
3.463608 3.575347 0.000000
3.266602 3.826893 0.000000
3.869264 3.640197 0.000000
3.262703 3.026708 0.000000
3.383710 3.265825 0.000000
3.752439 3.466829 0.000000
3.847397 3.745497 0.000000
3.605566 3.414373 0.000000
3.353123 3.524161 0.000000
3.331321 3.578186 0.000000
3.441410 3.179024 0.000000
3.296829 3.315907 0.000000
3.498771 3.363521 0.000000
3.465755 3.873576 0.000000
3.245051 3.503657 0.000000
3.144044 3.205694 0.000000
3.729333 3.594340 0.000000
3.440409 3.449294 0.000000
3.763694 3.343826 0.000000
3.505488 3.654143 0.000000
3.362619 3.071684 0.000000
3.898976 3.726238 0.000000
3.142055 3.271222 0.000000
3.375437 3.678090 0.000000
3.557872 3.446070 0.000000
3.780273 3.549781 0.000000
3.429000 3.081484 0.000000
3.651323 3.432774 0.000000
3.521856 3.264240 0.000000
3.907627 3.555419 0.000000
3.265378 3.932416 0.000000
3.210929 3.643913 0.000000
3.260883 3.113857 0.000000
3.461105 3.830172 0.000000
3.435720 3.234434 0.000000
3.243633 3.217838 0.000000
3.240182 3.266381 0.000000
3.272647 3.649097 0.000000
3.730958 3.421278 0.000000
3.686215 3.272020 0.000000
3.627575 3.244787 0.000000
3.674211 3.333622 0.000000
3.813238 3.652852 0.000000
3.465024 3.690994 0.000000
3.626569 3.603929 0.000000
3.558484 3.873741 0.000000
3.214648 3.128579 0.000000
3.571755 3.698690 0.000000
3.343137 3.229405 0.000000
3.900841 3.450809 0.000000
3.328342 3.776638 0.000000
3.343984 3.148370 0.000000
3.566167 3.518944 0.000000
3.202064 3.184004 0.000000
3.261430 3.450677 0.000000
3.777146 3.793467 0.000000
3.565368 3.293730 0.000000
3.183585 3.030554 0.000000
3.194926 3.293623 0.000000
3.641768 3.845686 0.000000
3.975341 3.609847 0.000000
3.249886 3.555356 0.000000
3.444882 3.340753 0.000000
3.658230 3.741337 0.000000
3.365181 3.359956 0.000000
3.493568 3.168708 0.000000
3.403671 3.748629 0.000000
3.986491 3.499699 0.000000
3.472563 3.261662 0.000000
3.192732 3.340807 0.000000
3.426370 3.908028 0.000000
3.376068 3.844504 0.000000
3.745796 3.716112 0.000000
3.282746 3.070428 0.000000
3.816449 3.702015 0.000000
3.700055 3.824223 0.000000
3.553581 3.817310 0.000000
3.293560 3.154010 0.000000
3.545786 3.563836 0.000000
3.876894 3.373568 0.000000
3.334149 2.986408 0.000000
3.838564 3.604733 0.000000
3.295276 3.608971 0.000000
3.947787 3.367373 0.000000
3.574532 3.609246 0.000000
3.663866 3.695020 0.000000
3.424480 3.606640 0.000000
3.504224 3.408638 0.000000
3.475465 3.494360 0.000000
3.556244 3.740895 0.000000
3.405773 3.521939 0.000000
3.363364 3.440609 0.000000
3.616523 3.805412 0.000000
3.273374 3.361098 0.000000
3.295945 3.861486 0.000000
3.630032 3.344440 0.000000
3.543824 3.345170 0.000000
3.484094 3.737466 0.000000
3.534597 3.211122 0.000000
3.912067 3.643925 0.000000
3.644187 3.481111 0.000000
3.831963 3.529587 0.000000
3.528312 3.486939 0.000000
3.692480 3.510778 0.000000
3.286195 3.490770 0.000000
3.480926 3.307036 0.000000
3.311011 3.736862 0.000000
3.270955 3.728278 0.000000
3.637473 3.561279 0.000000
3.291999 2.994730 0.000000
3.586525 3.198529 0.000000
3.698057 3.770101 0.000000
3.821056 3.780475 0.000000
3.605108 3.375468 0.000000
3.977838 3.694753 0.000000
3.609821 3.523248 0.000000
3.681519 3.625484 0.000000
3.323783 3.275825 0.000000
3.618419 3.758391 0.000000
3.397148 3.306896 0.000000
3.292354 3.409704 0.000000
3.505402 3.895526 0.000000
3.687906 3.413157 0.000000
3.426265 3.140136 0.000000
3.182113 3.432734 0.000000
3.955308 3.570118 0.000000
3.613537 3.673196 0.000000
3.339930 3.877522 0.000000
3.345755 3.928563 0.000000
3.361697 3.019634 0.000000
3.727934 3.497564 0.000000
3.420352 3.661449 0.000000
3.501631 3.570452 0.000000
3.347994 3.480621 0.000000
3.955532 3.648662 0.000000
3.415661 3.417388 0.000000
3.543564 3.638807 0.000000
3.755972 3.644592 0.000000
3.368541 3.602391 0.000000
3.849284 3.344347 0.000000
3.886577 3.596865 0.000000
3.337827 3.408670 0.000000
3.429969 3.558163 0.000000
3.716317 3.689425 0.000000
3.227443 3.007961 0.000000
3.420015 3.821902 0.000000
3.862570 3.466299 0.000000
3.322578 3.070678 0.000000
3.746047 3.755216 0.000000
3.805861 3.363430 0.000000
3.872016 3.530226 0.000000
3.940706 3.720869 0.000000
3.429296 3.489149 0.000000
3.390380 3.163998 0.000000
3.480917 3.610817 0.000000
3.444780 3.731635 0.000000
3.742863 3.824370 0.000000
3.900409 3.685885 0.000000
3.303450 3.809147 0.000000
3.811167 3.406559 0.000000
3.469753 3.424941 0.000000
3.473758 3.540219 0.000000
3.350592 3.109865 0.000000
3.600643 3.281647 0.000000
3.541842 3.675191 0.000000
3.227644 3.372035 0.000000
3.285386 3.574041 0.000000
3.694740 3.553205 0.000000
3.277443 3.194126 0.000000
3.941407 3.471227 0.000000
3.313786 3.942562 0.000000
3.817012 3.572109 0.000000
3.757685 3.509713 0.000000
3.321451 3.344256 0.000000
3.881995 3.761533 0.000000
3.277817 3.896180 0.000000
3.216998 3.420707 0.000000
3.382225 3.712787 0.000000
3.778201 3.437896 0.000000
3.464123 3.916810 0.000000
3.495026 3.806735 0.000000
3.685061 3.661818 0.000000
3.356872 3.188757 0.000000
3.604974 3.877517 0.000000
3.339572 3.702547 0.000000
3.273551 3.288421 0.000000
3.831151 3.489238 0.000000
3.350294 3.806055 0.000000
3.363494 3.770794 0.000000
3.613655 3.450902 0.000000
3.899097 3.497000 0.000000
3.607765 3.638360 0.000000
3.319367 3.497199 0.000000
3.908427 3.381652 0.000000
3.414690 3.381965 0.000000
3.991317 3.573741 0.000000
3.589720 3.738074 0.000000
3.561954 3.483374 0.000000
CELLS 556 2224 
3 119 292  48
3 292 113  48
3 34 224 154
3 73  99 277
3 24 282  94
3 171 258  58
3 45 140 134
3 85 134 140
3 60 123 122
3 46 122 123
3 24  94 162
3 138 303  57
3 258 117  58
3 29 132 105
3 51 105 132
3 121 303 138
3 30 259  95
3 30  95 180
3 64 127 147
3 59 147 127
3 56 101 239
3 23 273 106
3 152  32 236
3 99 170 277
3 32 141 236
3 41 190 110
3 99 210 170
3 210  68 170
3 22 103 151
3 51 152 105
3 22 298 103
3 21  99 227
3 89 283 108
3 47 148 118
3 23 113 273
3 62 179 212
3 31 205 249
3 36 118 148
3 47 124 148
3 22 109 137
3 21 210  99
3 73 209  99
3 13 111 184
3 21 121 138
3 50 151 103
3 68 219 142
3 142 219 182
3 70 167 160
3 27 168 128
3 56 181 101
3 49 135 120
3 41 110 203
3 29 155 153
3 73 153 155
3 49 116 271
3 52 155 105
3 29 105 155
3 178  77 233
3 112 178 233
3 88 139 130
3 28 130 139
3 108 283 163
3 176 233  36
3 112 233 176
3 50 145 151
3 71 151 145
3 116 213 271
3 61 136 129
3 28 156 251
3 107 251 156
3 23 307 108
3 47 118 162
3 163 304 260
3 97 207 234
3 49 156 116
3 22 137 298
3 77 231 118
3 23 108 163
3 23 163 260
3 7 173 189
3 58 117 187
3 2 135 265
3 13 242 111
3 304 143 264
3 1   2 265
3 43 234 207
3 52 141 121
3 50 103 221
3 56 143 304
3 23 193 307
3 82 202 131
3 92 249 205
3 75 206 232
3 19 171  20
3 52 105 236
3 33 160 167
3 78 187 117
3 75 232 177
3 21 138 201
3 67 203 110
3 82 201 138
3 53 115 208
3 30 110 294
3 32 152 119
3 69 183 172
3 62 148 124
3 42 133 157
3 23 260 113
3 24 149 282
3 65 186 107
3 23 106 193
3 65 107 188
3 69 172 150
3 100 281 222
3 128 168 218
3 70 160 146
3 22 252 109
3 21 227 121
3 131 202 266
3 48 215 139
3 59 184 111
3 107 257 251
3 56 239 143
3 59 111 185
3 38 262 225
3 42 157 245
3 32 217 214
3 61 172 136
3 118 231 162
3 73 154 153
3 31 249 131
3 70 149 167
3 61 167 149
3 102 190 206
3 41 206 190
3 67 110 211
3 30 211 110
3 34 170 142
3 68 142 170
3 49 120 188
3 65 188 120
3 68 126 219
3 55 126 201
3 36 148 182
3 62 124 179
3 26 179 124
3 92 178 308
3 33 167 129
3 61 129 167
3 58 187 146
3 84 279 290
3 112 308 178
3 100 214 217
3 81 251 257
3 44 222 281
3 110 190 294
3 81 230 130
3 139 215 285
3 90 137 245
3 12  13 184
3 48 113 300
3 59 127 184
3 55 176 126
3 75 189 173
3 44 130 230
3 67 157 133
3 18 223 117
3 90 245 157
3 24 150 149
3 61 149 150
3 65 120 226
3 15  16 144
3 96 260 304
3 46 306 122
3 95 259 185
3 78 243 134
3 109 245 137
3 51 292 152
3 22 123 252
3 31 204 122
3 26 237 140
3 272 115  76
3 58 146 160
3 18 117 258
3 46 175 128
3 69 125 207
3 38 186 262
3 64 235 127
3 37 213 254
3 42 245 200
3 116 254 213
3 44 230 158
3 98 158 230
3 30 147 259
3 36 233 118
3 77 118 233
3 90 291 137
3 30 294 147
3 3 226 120
3 0   1 265
3 78 117 223
3 64 294 190
3 116 195 254
3 74 254 195
3 48 286 119
3 32 119 244
3 109 200 245
3 22 196 123
3 126 176 219
3 72 158 198
3 85 140 237
3 13  14 242
3 0 265 228
3 78 134 261
3 42 200 268
3 6   7 189
3 47 162 296
3 119 152 292
3 9  10 159
3 81 130 251
3 158 305 198
3 60 122 204
3 60 252 123
3 3 120 288
3 102 159 190
3 64 190 159
3 114 268 200
3 52 121 227
3 120 135 288
3 47 267 124
3 53 208 289
3 46 123 280
3 31 122 247
3 63 253 263
3 22 151 196
3 77 125 231
3 45 134 243
3 69 299 125
3 21 201 126
3 75 225 189
3 61 150 172
3 62 182 148
3 28 251 130
3 26 124 237
3 62 142 182
3 68 210 126
3 62 212 142
3 51 132 263
3 21 126 210
3 32 214 141
3 107 186 257
3 4   5 169
3 104 228 248
3 97 234 168
3 77 287 125
3 59 185 259
3 38 177 199
3 80 199 177
3 55 201 274
3 93 189 225
3 97 290 279
3 35 191 146
3 70 146 191
3 116 156 195
3 93 225 262
3 88 130 281
3 44 281 130
3 57 214 229
3 71 196 151
3 7   8 173
3 51 263 273
3 108 307 197
3 78 261 187
3 64 159 235
3 95 185 301
3 35 146 187
3 55 308 176
3 86 133 268
3 42 268 133
3 83 248 228
3 65 226 169
3 100 229 214
3 46 128 218
3 49 188 156
3 107 156 188
3 28 139 285
3 25 198 305
3 37 239 174
3 9 159 297
3 109 252 200
3 60 200 252
3 11 293 235
3 112 176 308
3 40 216 166
3 35 165 191
3 94 191 165
3 72 192 166
3 40 166 192
3 106 263 253
3 100 217 281
3 17 223  18
3 174 239 309
3 127 235 293
3 102 297 159
3 94 296 162
3 91 266 202
3 111 242 241
3 79 218 168
3 84 183 279
3 5 270 169
3 82 131 274
3 125 287 207
3 69 150 299
3 31 131 266
3 34 142 212
3 63 263 132
3 15 144 284
3 57 311 138
3 28 195 156
3 17 194 223
3 67 133 278
3 86 250 133
3 82 138 216
3 2 288 135
3 85 276 134
3 48 139 286
3 88 286 139
3 98 199 240
3 80 240 199
3 52 209 155
3 73 155 209
3 87 241 242
3 93 169 270
3 125 299 231
3 49 271 135
3 39 208 272
3 115 272 208
3 75 173 206
3 102 206 173
3 85 267 165
3 97 168 290
3 27 290 168
3 92 255 178
3 43 178 255
3 80 161 240
3 25 240 161
3 87 284 144
3 37 254 143
3 52 236 141
3 121 141 303
3 67 161 203
3 79 255 205
3 67 211 157
3 37 143 239
3 24 231 299
3 105 152 236
3 127 293 184
3 44 158 222
3 74 143 254
3 87 144 289
3 53 289 144
3 79 234 255
3 74 264 143
3 86 192 198
3 106 273 263
3 3   4 226
3 34 154 277
3 55 274 249
3 131 249 274
3 25 161 278
3 57 229 166
3 43 207 287
3 10  11 235
3 64 147 294
3 38 199 257
3 72 222 158
3 71 175 280
3 59 259 147
3 104 248 174
3 28 285 195
3 54 164 220
3 76 220 164
3 24 299 150
3 31 266 204
3 65 169 262
3 93 262 169
3 70 282 149
3 8 297 173
3 102 173 297
3 36 219 176
3 114 256 275
3 76 164 272
3 165 267 296
3 35 261 276
3 134 276 261
3 83 265 271
3 135 271 265
3 75 177 225
3 24 162 231
3 41 232 206
3 10 235 159
3 72 166 229
3 36 182 219
3 34 277 170
3 72 198 192
3 4 169 226
3 30 180 269
3 90 269 180
3 73 277 154
3 78 223 194
3 199 295 257
3 67 278 161
3 90 157 269
3 79 168 234
3 98 305 158
3 301  39 272
3 164 301 272
3 71 280 196
3 39 301 185
3 77 178 287
3 2   3 288
3 91 275 256
3 37 174 248
3 54 180 302
3 80 310 161
3 66 193 253
3 38 225 177
3 111 241 185
3 14  15 284
3 166 216 311
3 54 302 164
3 35 276 165
3 85 165 276
3 101 309 239
3 57 166 311
3 86 198 250
3 94 165 296
3 80 177 232
3 41 203 310
3 163 283 304
3 56 304 283
3 95 302 180
3 54 291 180
3 94 282 191
3 70 191 282
3 119 286 244
3 76 221 220
3 103 220 221
3 56 283 181
3 40 202 216
3 82 216 202
3 123 196 280
3 19 258 171
3 18 258  19
3 86 268 246
3 114 246 268
3 124 267 237
3 91 204 266
3 100 222 229
3 72 229 222
3 41 310 232
3 89 181 283
3 84 290 238
3 90 180 291
3 39 185 241
3 40 192 246
3 86 246 192
3 96 304 264
3 52 227 209
3 5   6 270
3 31 247 205
3 74 285 215
3 46 280 175
3 91 256 204
3 60 204 256
3 25 250 198
3 79 306 218
3 11  12 293
3 43 287 178
3 8   9 297
3 38 257 186
3 37 248 213
3 34 212 224
3 25 278 250
3 114 200 256
3 60 256 200
3 12 184 293
3 99 209 227
3 6 189 270
3 93 270 189
3 66 197 307
3 78 194 243
3 69 279 183
3 87 208 241
3 39 241 208
3 65 262 186
3 35 187 261
3 79 247 306
3 47 296 267
3 97 279 207
3 69 207 279
3 106 253 193
3 79 205 247
3 32 244 217
3 88 217 244
3 14 284 242
3 83 228 265
3 40 275 202
3 91 202 275
3 92 205 255
3 113 260 300
3 83 213 248
3 83 271 213
3 54 298 291
3 137 291 298
3 82 274 201
3 74 215 264
3 54 220 298
3 103 298 220
3 157 211 269
3 43 255 234
3 74 195 285
3 114 275 246
3 87 289 208
3 30 269 211
3 96 264 215
3 66 307 193
3 98 295 199
3 96 215 300
3 48 300 215
3 92 308 249
3 88 281 217
3 85 237 267
3 141 214 303
3 161 310 203
3 138 311 216
3 81 257 295
3 57 303 214
3 81 295 230
3 98 230 295
3 40 246 275
3 87 242 284
3 133 250 278
3 46 218 306
3 51 273 292
3 113 292 273
3 88 244 286
3 122 306 247
3 27 238 290
3 80 232 310
3 98 240 305
3 25 305 240
3 55 249 308
3 96 300 260
3 95 301 302
3 164 302 301
CELL_TYPES 556
5 5 5 5 5 5 5 5 5 5 5 5 5 5 5 5 5 5 5 5 5 5 5 5 5 5 5 5 5 5 5 5 5 5 5 5 5 5 5 5 5 5 5 5 5 5 5 5 5 5 5 5 5 5 5 5 5 5 5 5 5 5 5 5 5 5 5 5 5 5 5 5 5 5 5 5 5 5 5 5 5 5 5 5 5 5 5 5 5 5 5 5 5 5 5 5 5 5 5 5 5 5 5 5 5 5 5 5 5 5 5 5 5 5 5 5 5 5 5 5 5 5 5 5 5 5 5 5 5 5 5 5 5 5 5 5 5 5 5 5 5 5 5 5 5 5 5 5 5 5 5 5 5 5 5 5 5 5 5 5 5 5 5 5 5 5 5 5 5 5 5 5 5 5 5 5 5 5 5 5 5 5 5 5 5 5 5 5 5 5 5 5 5 5 5 5 5 5 5 5 5 5 5 5 5 5 5 5 5 5 5 5 5 5 5 5 5 5 5 5 5 5 5 5 5 5 5 5 5 5 5 5 5 5 5 5 5 5 5 5 5 5 5 5 5 5 5 5 5 5 5 5 5 5 5 5 5 5 5 5 5 5 5 5 5 5 5 5 5 5 5 5 5 5 5 5 5 5 5 5 5 5 5 5 5 5 5 5 5 5 5 5 5 5 5 5 5 5 5 5 5 5 5 5 5 5 5 5 5 5 5 5 5 5 5 5 5 5 5 5 5 5 5 5 5 5 5 5 5 5 5 5 5 5 5 5 5 5 5 5 5 5 5 5 5 5 5 5 5 5 5 5 5 5 5 5 5 5 5 5 5 5 5 5 5 5 5 5 5 5 5 5 5 5 5 5 5 5 5 5 5 5 5 5 5 5 5 5 5 5 5 5 5 5 5 5 5 5 5 5 5 5 5 5 5 5 5 5 5 5 5 5 5 5 5 5 5 5 5 5 5 5 5 5 5 5 5 5 5 5 5 5 5 5 5 5 5 5 5 5 5 5 5 5 5 5 5 5 5 5 5 5 5 5 5 5 5 5 5 5 5 5 5 5 5 5 5 5 5 5 5 5 5 5 5 5 5 5 5 5 5 5 5 5 5 5 5 5 5 5 5 5 5 5 5 5 5 5 5 5 5 5 5 5 5 5 5 5 5 5 5 5 5 5 5 5 5 5 5 5 5 5 5 5 5 5 5 5 5 5 5 5 5 5 5 5 5 5 5 5 5 5 5 5 5 5 5 5 5 5 5 5 5 5 5 5 
POINT_DATA 312
VECTORS displacement_ITER1 FLOAT
 1.801447e-01  -5.967323e-02  0 
 1.820042e-01  -5.676525e-02  0 
 1.838023e-01  -5.377679e-02  0 
 1.855339e-01  -5.071118e-02  0 
 1.871923e-01  -4.758199e-02  0 
 1.887793e-01  -4.439331e-02  0 
 1.902955e-01  -4.115145e-02  0 
 1.917378e-01  -3.785380e-02  0 
 1.931043e-01  -3.450467e-02  0 
 1.943973e-01  -3.110901e-02  0 
 1.956145e-01  -2.766233e-02  0 
 1.967573e-01  -2.416752e-02  0 
 1.978313e-01  -2.062495e-02  0 
 1.988351e-01  -1.703199e-02  0 
 1.997771e-01  -1.336383e-02  0 
 2.006969e-01  -9.604031e-03  0 
 2.015875e-01  -5.605232e-03  0 
 1.243634e-01  -1.027925e-02  0 
 1.251849e-01  -6.541372e-03  0 
 1.257762e-01  -2.738614e-03  0 
 1.261596e-01  1.213486e-03  0 
 1.568756e-01  -2.883499e-02  0 
 1.754720e-01  -1.268222e-02  0 
 1.587317e-01  -5.093727e-02  0 
 1.460864e-01  -9.801424e-03  0 
 1.757370e-01  -3.032295e-02  0 
 1.374672e-01  -2.289091e-02  0 
 1.620637e-01  -4.197856e-03  0 
 1.717650e-01  -4.538343e-02  0 
 1.514236e-01  -4.080258e-02  0 
 1.851127e-01  -2.129125e-02  0 
 1.629880e-01  -1.713643e-02  0 
 1.617031e-01  -3.904787e-02  0 
 1.383069e-01  1.591178e-04  0 
 1.465391e-01  -3.061767e-02  0 
 1.358349e-01  -1.155078e-02  0 
 1.491686e-01  -2.077472e-02  0 
 1.715714e-01  -5.494587e-02  0 
 1.806514e-01  -3.913008e-02  0 
 1.898128e-01  -1.237372e-02  0 
 1.667358e-01  -2.620182e-02  0 
 1.847763e-01  -3.054765e-02  0 
 1.750174e-01  -2.172248e-02  0 
 1.559612e-01  -1.143391e-02  0 
 1.707117e-01  -3.739582e-02  0 
 1.304339e-01  -1.810807e-02  0 
 1.672862e-01  -1.006099e-02  0 
 1.435371e-01  -1.735741e-02  0 
 1.641200e-01  -4.583849e-02  0 
 1.776075e-01  -5.017757e-02  0 
 1.791477e-01  -6.229800e-03  0 
 1.567485e-01  -4.373081e-02  0 
 1.561571e-01  -3.575414e-02  0 
 1.934850e-01  -5.571994e-03  0 
 1.821347e-01  -1.422167e-02  0 
 1.569285e-01  -2.166866e-02  0 
 1.658203e-01  -5.605602e-02  0 
 1.633055e-01  -3.186610e-02  0 
 1.325725e-01  -5.424364e-03  0 
 1.911697e-01  -1.902353e-02  0 
 1.697188e-01  -1.688196e-02  0 
 1.454566e-01  -3.023785e-03  0 
 1.443011e-01  -2.427447e-02  0 
 1.515023e-01  -4.682928e-02  0 
 1.897707e-01  -2.543917e-02  0 
 1.812638e-01  -4.538658e-02  0 
 1.534497e-01  -5.320948e-02  0 
 1.800310e-01  -2.634507e-02  0 
 1.510648e-01  -2.693679e-02  0 
 1.515139e-01  -6.163225e-03  0 
 1.401636e-01  -6.873404e-03  0 
 1.724627e-01  -6.861222e-03  0 
 1.691644e-01  -3.162235e-02  0 
 1.504998e-01  -3.475757e-02  0 
 1.691273e-01  -4.988014e-02  0 
 1.854658e-01  -3.580922e-02  0 
 1.851617e-01  -8.491883e-03  0 
 1.508968e-01  -1.464340e-02  0 
 1.299565e-01  -1.229135e-02  0 
 1.617157e-01  -1.146385e-02  0 
 1.799254e-01  -3.356276e-02  0 
 1.750036e-01  -4.019812e-02  0 
 1.612969e-01  -2.474694e-02  0 
 1.768721e-01  -5.551088e-02  0 
 1.566325e-01  -1.996921e-03  0 
 1.371043e-01  -1.722786e-02  0 
 1.722440e-01  -2.651849e-02  0 
 1.949107e-01  -1.079026e-02  0 
 1.672303e-01  -4.147628e-02  0 
 1.608970e-01  -5.844466e-02  0 
 1.795263e-01  -1.892542e-02  0 
 1.662663e-01  -2.094347e-02  0 
 1.576747e-01  -1.609334e-02  0 
 1.850790e-01  -4.129516e-02  0 
 1.421929e-01  -1.173203e-02  0 
 1.865450e-01  -1.661056e-02  0 
 1.643885e-01  -5.018280e-02  0 
 1.576061e-01  -7.129409e-03  0 
 1.753851e-01  -3.548053e-02  0 
 1.528300e-01  -3.156147e-02  0 
 1.662094e-01  -3.581190e-02  0 
 1.671298e-01  -5.825971e-02  0 
 1.895049e-01  -3.149404e-02  0 
 1.791477e-01  -9.827186e-03  0 
 1.748350e-01  -5.982101e-02  0 
 1.553981e-01  -4.006045e-02  0 
 1.561437e-01  -4.894631e-02  0 
 1.775896e-01  -4.427148e-02  0 
 1.582498e-01  -5.531092e-02  0 
 1.746959e-01  -1.662264e-02  0 
 1.841185e-01  -2.626768e-02  0 
 1.942311e-01  -1.585899e-02  0 
 1.536726e-01  -1.829100e-02  0 
 1.607477e-01  -4.723897e-02  0 
 1.702044e-01  -2.230337e-02  0 
 1.891156e-01  -7.430343e-03  0 
 1.741118e-01  -5.086529e-02  0 
 1.296367e-01  -7.801410e-03  0 
 1.476927e-01  -1.675908e-02  0 
 1.621446e-01  -4.289701e-02  0 
 1.815932e-01  -4.932665e-02  0 
 1.585078e-01  -3.264353e-02  0 
 1.665871e-01  -1.429399e-02  0 
 1.705655e-01  -1.264082e-02  0 
 1.413970e-01  -2.107527e-02  0 
 1.513049e-01  -1.028273e-02  0 
 1.548682e-01  -2.506036e-02  0 
 1.920765e-01  -2.220916e-02  0 
 1.651483e-01  -6.359490e-03  0 
 1.428793e-01  1.278832e-03  0 
 1.711672e-01  -4.121789e-02  0 
 1.610793e-01  -2.074425e-02  0 
 1.535546e-01  -4.369749e-02  0 
 1.758643e-01  -2.526275e-02  0 
 1.332592e-01  -1.533573e-02  0 
 1.800790e-01  -5.287090e-02  0 
 1.478404e-01  1.403600e-03  0 
 1.778423e-01  -1.576616e-02  0 
 1.607896e-01  -2.922075e-02  0 
 1.679354e-01  -4.478380e-02  0 
 1.341186e-01  -2.026793e-02  0 
 1.598010e-01  -3.585680e-02  0 
 1.477427e-01  -2.683040e-02  0 
 1.681149e-01  -5.350710e-02  0 
 1.972186e-01  -7.108777e-03  0 
 1.755820e-01  -3.638656e-03  0 
 1.361758e-01  -7.631526e-03  0 
 1.888745e-01  -2.190250e-02  0 
 1.454591e-01  -2.060807e-02  0 
 1.439493e-01  -6.325409e-03  0 
 1.475780e-01  -6.057184e-03  0 
 1.758831e-01  -8.232841e-03  0 
 1.589598e-01  -4.142789e-02  0 
 1.485172e-01  -3.837442e-02  0 
 1.465202e-01  -3.428570e-02  0 
 1.528131e-01  -3.752927e-02  0 
 1.751350e-01  -4.701021e-02  0 
 1.786254e-01  -2.229873e-02  0 
 1.720295e-01  -3.397580e-02  0 
 1.917718e-01  -2.891469e-02  0 
 1.371478e-01  -4.117576e-03  0 
 1.789691e-01  -2.999566e-02  0 
 1.449550e-01  -1.377453e-02  0 
 1.609213e-01  -5.306833e-02  0 
 1.852089e-01  -1.216162e-02  0 
 1.389411e-01  -1.387799e-02  0 
 1.660116e-01  -2.974491e-02  0 
 1.413260e-01  -3.168809e-03  0 
 1.612398e-01  -7.596175e-03  0 
 1.852314e-01  -4.443742e-02  0 
 1.498971e-01  -2.989317e-02  0 
 1.296911e-01  -1.663074e-03  0 
 1.495701e-01  -2.647150e-03  0 
 1.894409e-01  -3.488228e-02  0 
 1.717536e-01  -5.808571e-02  0 
 1.689551e-01  -6.662305e-03  0 
 1.532096e-01  -2.117960e-02  0 
 1.818416e-01  -3.612026e-02  0 
 1.545808e-01  -1.532120e-02  0 
 1.407287e-01  -2.491425e-02  0 
 1.829802e-01  -1.776086e-02  0 
 1.641505e-01  -5.882558e-02  0 
 1.474948e-01  -2.327067e-02  0 
 1.530681e-01  -2.497124e-03  0 
 1.947810e-01  -1.929893e-02  0 
 1.901736e-01  -1.563450e-02  0 
 1.797956e-01  -4.229217e-02  0 
 1.329827e-01  -9.305814e-03  0 
 1.786031e-01  -4.720787e-02  0 
 1.876931e-01  -3.901914e-02  0 
 1.876560e-01  -2.860543e-02  0 
 1.392606e-01  -1.009659e-02  0 
 1.692660e-01  -2.824395e-02  0 
 1.556358e-01  -5.144190e-02  0 
 1.267892e-01  -1.326056e-02  0 
 1.716923e-01  -4.877547e-02  0 
 1.728764e-01  -9.952847e-03  0 
 1.551286e-01  -5.628827e-02  0 
 1.724975e-01  -3.026436e-02  0 
 1.784937e-01  -3.655103e-02  0 
 1.725340e-01  -1.942977e-02  0 
 1.581193e-01  -2.540603e-02  0 
 1.643224e-01  -2.324292e-02  0 
 1.820718e-01  -2.885093e-02  0 
 1.663826e-01  -1.814865e-02  0 
 1.604772e-01  -1.512121e-02  0 
 1.865978e-01  -3.311570e-02  0 
 1.546301e-01  -8.517603e-03  0 
 1.916677e-01  -9.596255e-03  0 
 1.535480e-01  -3.442155e-02  0 
 1.535608e-01  -2.830938e-02  0 
 1.819880e-01  -2.364412e-02  0 
 1.439696e-01  -2.779190e-02  0 
 1.742706e-01  -5.378346e-02  0 
 1.632354e-01  -3.531834e-02  0 
 1.664474e-01  -4.835473e-02  0 
 1.637448e-01  -2.706123e-02  0 
 1.652969e-01  -3.869086e-02  0 
 1.641824e-01  -9.399292e-03  0 
 1.507870e-01  -2.383118e-02  0 
 1.822990e-01  -1.094178e-02  0 
 1.817546e-01  -8.009599e-03  0 
 1.689585e-01  -3.478019e-02  0 
 1.273046e-01  -1.004795e-02  0 
 1.432416e-01  -3.142124e-02  0 
 1.837997e-01  -3.891136e-02  0 
 1.841623e-01  -4.749291e-02  0 
 1.557398e-01  -3.264080e-02  0 
 1.776443e-01  -5.821792e-02  0 
 1.662737e-01  -3.285067e-02  0 
 1.734738e-01  -3.784332e-02  0 
 1.483650e-01  -1.231014e-02  0 
 1.831818e-01  -3.328346e-02  0 
 1.507149e-01  -1.771650e-02  0 
 1.582201e-01  -9.906984e-03  0 
 1.935620e-01  -2.506878e-02  0 
 1.584023e-01  -3.843467e-02  0 
 1.384842e-01  -1.999935e-02  0 
 1.599020e-01  -1.686814e-03  0 
 1.690302e-01  -5.672739e-02  0 
 1.770355e-01  -3.299710e-02  0 
 1.927657e-01  -1.290274e-02  0 
 1.966431e-01  -1.329662e-02  0 
 1.293618e-01  -1.532507e-02  0 
 1.643261e-01  -4.117649e-02  0 
 1.765443e-01  -1.907167e-02  0 
 1.698009e-01  -2.506005e-02  0 
 1.634078e-01  -1.395605e-02  0 
 1.744928e-01  -5.673411e-02  0 
 1.587714e-01  -1.897284e-02  0 
 1.746856e-01  -2.801898e-02  0 
 1.746801e-01  -4.304405e-02  0 
 1.722992e-01  -1.534771e-02  0 
 1.536562e-01  -4.958003e-02  0 
 1.710413e-01  -5.206207e-02  0 
 1.581445e-01  -1.326735e-02  0 
 1.689956e-01  -1.987652e-02  0 
 1.779652e-01  -4.024694e-02  0 
 1.280799e-01  -5.075649e-03  0 
 1.883715e-01  -1.889955e-02  0 
 1.620200e-01  -5.046516e-02  0 
 1.330928e-01  -1.231917e-02  0 
 1.825905e-01  -4.228762e-02  0 
 1.549387e-01  -4.660651e-02  0 
 1.664331e-01  -5.109393e-02  0 
 1.795744e-01  -5.571366e-02  0 
 1.639790e-01  -1.989509e-02  0 
 1.401899e-01  -1.731916e-02  0 
 1.727571e-01  -2.352444e-02  0 
 1.816437e-01  -2.078667e-02  0 
 1.875618e-01  -4.202529e-02  0 
 1.772395e-01  -5.297936e-02  0 
 1.876890e-01  -1.025224e-02  0 
 1.579208e-01  -4.696494e-02  0 
 1.593040e-01  -2.289805e-02  0 
 1.676438e-01  -2.307349e-02  0 
 1.360839e-01  -1.439681e-02  0 
 1.490765e-01  -3.238986e-02  0 
 1.773270e-01  -2.786664e-02  0 
 1.554111e-01  -5.104802e-03  0 
 1.703036e-01  -9.259832e-03  0 
 1.683034e-01  -3.882138e-02  0 
 1.422274e-01  -8.876473e-03  0 
 1.622796e-01  -5.580648e-02  0 
 1.978557e-01  -1.085685e-02  0 
 1.694452e-01  -4.730832e-02  0 
 1.651495e-01  -4.323767e-02  0 
 1.534112e-01  -1.209861e-02  0 
 1.826209e-01  -5.169982e-02  0 
 1.943788e-01  -8.145382e-03  0 
 1.590172e-01  -4.302375e-03  0 
 1.803811e-01  -1.622208e-02  0 
 1.601061e-01  -4.468941e-02  0 
 1.952930e-01  -2.205038e-02  0 
 1.870500e-01  -2.438669e-02  0 
 1.760639e-01  -3.806756e-02  0 
 1.419650e-01  -1.481515e-02  0 
 1.918849e-01  -3.223900e-02  0 
 1.797098e-01  -1.309759e-02  0 
 1.492505e-01  -8.555352e-03  0 
 1.636386e-01  -4.831078e-02  0 
 1.873559e-01  -1.375613e-02  0 
 1.847033e-01  -1.477502e-02  0 
 1.611066e-01  -3.318382e-02  0 
 1.640977e-01  -5.294475e-02  0 
 1.745374e-01  -3.261212e-02  0 
 1.646363e-01  -1.183706e-02  0 
 1.561749e-01  -5.357429e-02  0 
 1.561959e-01  -1.893571e-02  0 
 1.691918e-01  -5.916272e-02  0 
 1.817835e-01  -3.125067e-02  0 
 1.634624e-01  -2.947363e-02  0 
VECTORS displacement_ITER2 FLOAT
 1.672851e-01  -5.553016e-02  0 
 1.689899e-01  -5.279531e-02  0 
 1.706417e-01  -4.998833e-02  0 
 1.722305e-01  -4.711552e-02  0 
 1.737500e-01  -4.418950e-02  0 
 1.752028e-01  -4.121384e-02  0 
 1.765896e-01  -3.819353e-02  0 
 1.779093e-01  -3.512591e-02  0 
 1.791605e-01  -3.201405e-02  0 
 1.803446e-01  -2.886150e-02  0 
 1.814597e-01  -2.566431e-02  0 
 1.825050e-01  -2.242631e-02  0 
 1.834825e-01  -1.914911e-02  0 
 1.843903e-01  -1.583276e-02  0 
 1.852327e-01  -1.246669e-02  0 
 1.860357e-01  -9.044761e-03  0 
 1.868019e-01  -5.481718e-03  0 
 1.164369e-01  -9.779237e-03  0 
 1.171399e-01  -6.486712e-03  0 
 1.176673e-01  -3.145883e-03  0 
 1.180067e-01  2.807802e-04  0 
 1.455027e-01  -2.667033e-02  0 
 1.627776e-01  -1.180560e-02  0 
 1.469919e-01  -4.731392e-02  0 
 1.357485e-01  -9.308700e-03  0 
 1.630096e-01  -2.810436e-02  0 
 1.280255e-01  -2.114137e-02  0 
 1.503237e-01  -4.054932e-03  0 
 1.593354e-01  -4.209583e-02  0 
 1.402905e-01  -3.774218e-02  0 
 1.717261e-01  -1.976646e-02  0 
 1.511734e-01  -1.592842e-02  0 
 1.499144e-01  -3.613661e-02  0 
 1.287235e-01  -3.232289e-04  0 
 1.359890e-01  -2.829661e-02  0 
 1.265482e-01  -1.093961e-02  0 
 1.384906e-01  -1.926699e-02  0 
 1.591956e-01  -5.108360e-02  0 
 1.676102e-01  -3.629217e-02  0 
 1.761030e-01  -1.155007e-02  0 
 1.546387e-01  -2.427313e-02  0 
 1.714166e-01  -2.833052e-02  0 
 1.623409e-01  -2.016006e-02  0 
 1.447169e-01  -1.072519e-02  0 
 1.583341e-01  -3.464120e-02  0 
 1.218305e-01  -1.679365e-02  0 
 1.551544e-01  -9.401453e-03  0 
 1.334264e-01  -1.617052e-02  0 
 1.521483e-01  -4.249414e-02  0 
 1.648309e-01  -4.660572e-02  0 
 1.662077e-01  -5.814993e-03  0 
 1.452142e-01  -4.050835e-02  0 
 1.447774e-01  -3.306076e-02  0 
 1.794921e-01  -5.352154e-03  0 
 1.689808e-01  -1.323854e-02  0 
 1.455824e-01  -2.008639e-02  0 
 1.537375e-01  -5.216154e-02  0 
 1.514414e-01  -2.948650e-02  0 
 1.236194e-01  -5.471345e-03  0 
 1.773355e-01  -1.766921e-02  0 
 1.574148e-01  -1.569174e-02  0 
 1.351906e-01  -3.166154e-03  0 
 1.340572e-01  -2.244713e-02  0 
 1.402009e-01  -4.345860e-02  0 
 1.760416e-01  -2.360095e-02  0 
 1.682148e-01  -4.212877e-02  0 
 1.418186e-01  -4.953483e-02  0 
 1.670020e-01  -2.443449e-02  0 
 1.401769e-01  -2.490960e-02  0 
 1.406718e-01  -5.954163e-03  0 
 1.304122e-01  -6.695828e-03  0 
 1.599942e-01  -6.404675e-03  0 
 1.568913e-01  -2.928385e-02  0 
 1.395600e-01  -3.213275e-02  0 
 1.568698e-01  -4.630865e-02  0 
 1.720752e-01  -3.321552e-02  0 
 1.718160e-01  -7.948565e-03  0 
 1.400899e-01  -1.367798e-02  0 
 1.213585e-01  -1.158930e-02  0 
 1.500001e-01  -1.072099e-02  0 