# vtk DataFile Version 3.1
this is an vtk file created by FEMAC
ASCII
DATASET UNSTRUCTURED_GRID
POINTS 316 FLOAT
4.563663 3.246980 0.000000
4.532089 3.285575 0.000000
4.499562 3.323372 0.000000
4.466104 3.360345 0.000000
4.431734 3.396474 0.000000
4.396474 3.431734 0.000000
4.360345 3.466104 0.000000
4.323372 3.499562 0.000000
4.285575 3.532089 0.000000
4.246980 3.563663 0.000000
4.207609 3.594265 0.000000
4.167487 3.623876 0.000000
4.126640 3.652478 0.000000
4.085093 3.680052 0.000000
4.042870 3.706582 0.000000
4.000000 3.732051 0.000000
3.680173 2.733052 0.000000
3.642788 2.766044 0.000000
3.603804 2.797133 0.000000
3.563320 2.826239 0.000000
3.521435 2.853291 0.000000
3.478254 2.878222 0.000000
3.433884 2.900969 0.000000
3.388435 2.921476 0.000000
3.342020 2.939693 0.000000
3.294755 2.955573 0.000000
3.994384 3.121983 0.000000
3.681193 3.125900 0.000000
4.111490 3.349625 0.000000
3.815691 2.924291 0.000000
3.465054 3.125471 0.000000
4.290559 3.245870 0.000000
3.720914 3.313226 0.000000
4.032638 3.500593 0.000000
4.131019 3.030830 0.000000
3.880001 3.249185 0.000000
3.657486 2.957678 0.000000
3.968112 2.967208 0.000000
3.841487 3.080641 0.000000
4.137230 3.190789 0.000000
4.412627 3.193168 0.000000
4.241840 3.374467 0.000000
3.526683 3.002664 0.000000
4.024193 3.254330 0.000000
4.150207 3.473747 0.000000
3.989611 3.376350 0.000000
3.776299 3.197694 0.000000
3.758942 2.826082 0.000000
4.244857 3.140929 0.000000
3.399364 3.032444 0.000000
3.573352 3.105801 0.000000
3.907016 2.872537 0.000000
3.748915 3.008550 0.000000
4.384092 3.285001 0.000000
4.193758 3.282461 0.000000
3.675601 3.216878 0.000000
4.388417 3.109833 0.000000
3.899759 3.155861 0.000000
4.039112 3.043161 0.000000
4.026781 3.601512 0.000000
4.513524 3.153063 0.000000
3.668474 2.862253 0.000000
3.878792 2.995793 0.000000
4.085792 3.115655 0.000000
3.809229 3.313764 0.000000
4.105012 3.551783 0.000000
4.331068 3.163551 0.000000
3.902946 3.341718 0.000000
4.350171 3.365075 0.000000
3.571017 2.928096 0.000000
4.072628 3.422502 0.000000
3.635668 3.049485 0.000000
4.220917 3.050131 0.000000
3.947738 3.050679 0.000000
3.792749 2.744513 0.000000
4.102075 3.265026 0.000000
3.734102 2.922159 0.000000
4.229489 3.458362 0.000000
3.763568 3.115619 0.000000
3.836290 2.845260 0.000000
4.166812 3.120125 0.000000
3.455420 2.980350 0.000000
4.057587 3.189755 0.000000
4.172740 3.395787 0.000000
3.614661 3.168475 0.000000
3.974031 3.195031 0.000000
4.457856 3.259304 0.000000
4.216035 3.208522 0.000000
4.041076 3.323058 0.000000
3.471701 3.050323 0.000000
3.980718 3.451449 0.000000
3.957088 3.288531 0.000000
3.539195 3.165887 0.000000
4.279678 3.316340 0.000000
4.300627 3.428609 0.000000
3.826829 3.147294 0.000000
3.954277 2.816579 0.000000
4.372519 3.227468 0.000000
4.454701 3.121648 0.000000
3.978203 3.543161 0.000000
3.590877 2.982135 0.000000
4.189202 3.529956 0.000000
3.771373 3.264284 0.000000
3.507725 2.937795 0.000000
3.816355 2.987505 0.000000
3.882656 2.938729 0.000000
3.700014 3.054052 0.000000
4.306718 3.107409 0.000000
3.697682 2.801655 0.000000
3.609680 2.872337 0.000000
4.001250 3.655568 0.000000
4.507670 3.212682 0.000000
3.905413 3.088584 0.000000
3.705798 3.173357 0.000000
3.934119 3.411924 0.000000
3.843955 3.215217 0.000000
4.101691 2.989402 0.000000
4.104755 3.493460 0.000000
3.769608 2.875897 0.000000
4.202814 3.344851 0.000000
4.075778 3.600363 0.000000
3.572976 3.045913 0.000000
4.394977 3.349286 0.000000
3.519493 3.094932 0.000000
4.283624 3.193768 0.000000
3.728796 2.753086 0.000000
3.382127 2.977909 0.000000
3.956060 2.906991 0.000000
3.796433 3.070465 0.000000
3.808028 2.799257 0.000000
4.051254 3.384720 0.000000
4.336063 3.292694 0.000000
3.698633 3.002133 0.000000
3.632597 3.098577 0.000000
3.763694 3.343826 0.000000
4.089013 3.062017 0.000000
3.903674 2.821104 0.000000
4.436431 3.313577 0.000000
3.736956 3.224243 0.000000
4.058991 3.562289 0.000000
4.039057 3.091636 0.000000
4.152913 3.245693 0.000000
4.141757 3.300438 0.000000
3.429000 3.081484 0.000000
4.386192 3.151280 0.000000
3.923606 3.208522 0.000000
4.202802 3.161236 0.000000
3.865107 3.302292 0.000000
3.988758 3.016795 0.000000
4.014569 3.172098 0.000000
4.249563 3.277033 0.000000
3.771430 2.965285 0.000000
3.987196 3.328917 0.000000
3.686215 3.272020 0.000000
3.627575 3.244787 0.000000
3.828150 3.262935 0.000000
3.874163 3.046650 0.000000
3.720385 2.871184 0.000000
4.164839 3.568454 0.000000
3.661836 3.169024 0.000000
3.930542 3.000844 0.000000
4.120628 3.395978 0.000000
4.025396 3.458652 0.000000
3.645522 2.907799 0.000000
3.940833 3.128317 0.000000
3.977441 2.861644 0.000000
4.344210 3.417987 0.000000
3.655638 2.812218 0.000000
4.235350 3.514431 0.000000
4.188841 3.017640 0.000000
4.050447 3.647688 0.000000
3.994711 3.069118 0.000000
3.975341 3.609847 0.000000
4.261466 3.076588 0.000000
4.215591 3.413551 0.000000
4.467627 3.179545 0.000000
3.493568 3.168708 0.000000
3.986491 3.499699 0.000000
4.127752 3.140251 0.000000
4.173892 3.066431 0.000000
4.414601 3.239887 0.000000
4.219699 3.103680 0.000000
3.861960 2.897727 0.000000
3.563956 2.880450 0.000000
3.832199 3.034364 0.000000
3.923281 2.953328 0.000000
4.148028 3.517117 0.000000
3.978220 3.243974 0.000000
4.056424 3.280612 0.000000
4.129047 3.089218 0.000000
4.280966 3.473421 0.000000
3.716498 3.093962 0.000000
4.326074 3.211588 0.000000
4.101749 3.215557 0.000000
3.334149 2.986408 0.000000
4.297288 3.384007 0.000000
3.947787 3.367373 0.000000
4.044759 3.138513 0.000000
3.861595 3.121644 0.000000
4.350316 3.123335 0.000000
3.616990 2.947758 0.000000
4.191793 3.487650 0.000000
3.847118 2.955842 0.000000
4.160764 3.354226 0.000000
3.544629 2.969968 0.000000
3.523353 3.048131 0.000000
4.123962 3.440336 0.000000
4.356944 3.324370 0.000000
3.639186 2.998787 0.000000
4.091754 3.307749 0.000000
3.687904 2.912415 0.000000
3.463428 2.934173 0.000000
3.485320 3.009559 0.000000
3.441126 3.019866 0.000000
3.534597 3.211122 0.000000
3.701456 2.953418 0.000000
4.061639 3.236491 0.000000
3.908731 3.293710 0.000000
4.080811 3.023737 0.000000
3.808203 3.113954 0.000000
3.790218 3.155086 0.000000
3.423835 2.950779 0.000000
3.528478 2.895571 0.000000
4.230936 3.323435 0.000000
3.882327 3.197956 0.000000
4.015889 3.409009 0.000000
4.121761 3.606755 0.000000
3.766159 2.781773 0.000000
3.586525 3.198529 0.000000
4.383513 3.392111 0.000000
4.018373 3.215280 0.000000
3.578136 3.148017 0.000000
4.249263 3.225742 0.000000
4.283781 3.148852 0.000000
3.744216 3.053296 0.000000
4.258868 3.421979 0.000000
3.977838 3.694753 0.000000
3.929529 3.256784 0.000000
3.957358 3.091370 0.000000
3.542284 3.122579 0.000000
4.499453 3.257115 0.000000
3.799237 3.232868 0.000000
3.669580 3.076780 0.000000
3.774220 2.920392 0.000000
3.796156 2.843295 0.000000
4.180630 3.444906 0.000000
4.454630 3.218198 0.000000
4.091264 3.163407 0.000000
3.361697 3.019634 0.000000
3.858539 2.810960 0.000000
3.875985 2.851938 0.000000
3.633240 3.199538 0.000000
4.429046 3.146106 0.000000
3.734030 3.273409 0.000000
3.760879 3.303412 0.000000
4.070931 3.351109 0.000000
4.007366 3.286570 0.000000
3.636578 3.138656 0.000000
4.178617 3.208197 0.000000
3.849284 3.344347 0.000000
3.940952 3.168855 0.000000
3.906195 2.913862 0.000000
3.790861 3.023045 0.000000
4.367001 3.188029 0.000000
3.669403 3.033551 0.000000
3.810612 2.882614 0.000000
4.244219 3.179918 0.000000
4.334466 3.251454 0.000000
3.596460 3.075057 0.000000
3.724193 3.135775 0.000000
4.206691 3.241275 0.000000
4.203642 3.378686 0.000000
3.973625 3.403221 0.000000
3.731521 2.978056 0.000000
4.321948 3.458971 0.000000
4.473723 3.294584 0.000000
4.312534 3.331397 0.000000
3.620183 2.834036 0.000000
3.974629 3.158312 0.000000
3.497201 2.972418 0.000000
4.007684 2.978555 0.000000
3.603314 2.908232 0.000000
4.423706 3.276613 0.000000
4.085386 3.380787 0.000000
3.812501 3.185917 0.000000
3.481150 3.088973 0.000000
4.067202 3.517865 0.000000
4.020955 3.544068 0.000000
4.432460 3.092297 0.000000
4.022847 3.359106 0.000000
3.910887 3.034830 0.000000
4.183157 3.319457 0.000000
3.733076 2.795036 0.000000
3.940750 3.324050 0.000000
4.068468 3.466283 0.000000
4.091223 3.641350 0.000000
3.420375 2.992270 0.000000
4.264401 3.114014 0.000000
3.679350 2.769798 0.000000
4.432123 3.352846 0.000000
3.504080 3.129407 0.000000
4.272761 3.351530 0.000000
3.603280 3.025508 0.000000
4.294729 3.283796 0.000000
3.941163 2.851919 0.000000
3.560300 3.012387 0.000000
4.047161 2.998483 0.000000
3.553644 3.078201 0.000000
4.160888 3.161420 0.000000
4.211321 3.558414 0.000000
3.749505 3.166962 0.000000
3.857300 3.167890 0.000000
3.700746 2.834805 0.000000
3.991317 3.573741 0.000000
3.605007 3.122917 0.000000
4.478366 3.143097 0.000000
CELLS 556 2224 
3 234 132  52
3 106 132 234
3 64 102 155
3 91 187 256
3 29 104 151
3 228 251 154
3 53 267  97
3 90 162 177
3 33 177 162
3 241 138  46
3 102 138 241
3 83 245 206
3 51 261 182
3 83 206 161
3 105 182 261
3 14 236 110
3 62 105 185
3 61 109 277
3 55 113 138
3 53  97 180
3 62 184 104
3 85 230 187
3 65 120 139
3 59 139 120
3 0 240 111
3 76 157 118
3 43 256 187
3 14 110 170
3 90 114 272
3 69 103 222
3 8 168 190
3 69 100 204
3 21 103 211
3 40 180  97
3 92 214 176
3 44 186 117
3 39 193 247
3 40  97 263
3 35 115 224
3 69 200 100
3 53 131 267
3 55 138 153
3 202  29 182
3 105 202 182
3 53 137 122
3 64 254 102
3 61 163 109
3 69 204 103
3 21 222 103
3 44 117 206
3 78 234 128
3 2   3 275
3 61 277 167
3 19 109 183
3 73 112 290
3 275   3 137
3 14  15 236
3 27 113 159
3 55 159 113
3 38 156 112
3 34 218 116
3 77 201 245
3 58 135 140
3 63 140 135
3 85 187 145
3 70 225 130
3 35 155 115
3 123 285 205
3 29 202 104
3 62 104 202
3 62 202 105
3 57 112 164
3 78 191 234
3 77 245 174
3 73 238 112
3 65 117 186
3 59 170 110
3 59 110 172
3 66 107 199
3 49 213 143
3 89 143 213
3 66 233 107
3 19 277 109
3 60 111 175
3 41 119 223
3 57 198 112
3 70 162 225
3 59 120 170
3 119 291 223
3 145 187 237
3 63 189 178
3 285  89 205
3 0   1 240
3 52 151 262
3 104 262 151
3 114 196 272
3 36 163 210
3 291  54 223
3 56 288 252
3 76 210 157
3 36 210 215
3 37 148 160
3 73 160 148
3 72 173 181
3 47 312 292
3 44 201 186
3 101 186 201
3 47 118 157
3 56 252 144
3 51 182 250
3 43 187 230
3 91 256 152
3 23 126  24
3 38 112 198
3 45 272 196
3 27 269 113
3 35 224 145
3 47 157 312
3 39 247 178
3 77 190 168
3 85 149 230
3 55 153 154
3 138 253 153
3 75 141 142
3 54 142 141
3 113 310 138
3 65 286 117
3 173 297 181
3 62 185 160
3 68 166 195
3 94 195 166
3 34 135 218
3 26 171 140
3 62 156 184
3 46 138 310
3 36 132 208
3 112 156 290
3 38 128 184
3 65 226 120
3 51 304 127
3 59 287 139
3 54 141 270
3 82 149 197
3 89 212 205
3 115 284 311
3 80 178 189
3 37 185 127
3 80 181 146
3 48 146 181
3 78 128 219
3 38 219 128
3 141 258 270
3 13  14 170
3 68 122 229
3 29 151 243
3 59 313 287
3 63 135 189
3 111 240 246
3 41 271 119
3 35 147 155
3 64 155 147
3 54 150 223
3 102 241 155
3 127 304 165
3 58 140 171
3 7   8 190
3 115 311 224
3 41 223 301
3 31 232 124
3 47 244 118
3 65 186 158
3 101 158 186
3 76 118 243
3 58 148 306
3 82 247 193
3 39 141 193
3 75 193 141
3 28 203 161
3 83 161 203
3 58 171 148
3 86 246 240
3 16 125 298
3 108 298 125
3 82 197 247
3 28 142 203
3 66 192 124
3 31 124 192
3 53 122 207
3 148 280 306
3 4 229 122
3 69 222 183
3 68 207 122
3 146 258 308
3 34 169 179
3 112 238 164
3 10  11 158
3 117 294 206
3 87 258 146
3 81 211 279
3 26 140 197
3 4 122 299
3 21 211  22
3 66 124 233
3 27 242 191
3 106 191 242
3 34 189 135
3 122 137 299
3 47 129 244
3 79 244 129
3 108 125 292
3 1   2 275
3 5   6 166
3 61 157 210
3 73 148 171
3 80 179 181
3 72 181 179
3 26 197 149
3 42 205 212
3 24 126 194
3 195 301 276
3 132 264 208
3 64 134 254
3 1 275 240
3 124 232 266
3 17 167  18
3 29 243 265
3 65 158 226
3 40 263 144
3 79 129 249
3 95 311 284
3 77 235 190
3 65 139 286
3 118 265 243
3 76 151 273
3 36 200 163
3 26 238 171
3 8   9 168
3 68 195 276
3 19 183  20
3 64 147 259
3 17 298 167
3 56 144 199
3 49 126 296
3 75 142 209
3 28 209 142
3 30 143 285
3 49 248 126
3 74 227 125
3 23 221 126
3 119 271 203
3 83 203 271
3 103 279 211
3 27 257 133
3 262 234  52
3 128 234 262
3 53 207 131
3 44 206 245
3 74 129 227
3 47 227 129
3 84 251 228
3 70 206 294
3 96 304 136
3 51 136 304
3 94 190 235
3 6 274 166
3 51 127 261
3 98 252 288
3 72 179 169
3 68 229 166
3 116 218 306
3 108 167 298
3 24 194  25
3 67 147 217
3 71 242 133
3 53 180 282
3 36 215 132
3 36 208 200
3 100 200 208
3 100 305 204
3 38 184 156
3 90 225 162
3 10 158 309
3 63 197 140
3 22 221  23
3 33 294 286
3 108 292 312
3 92 176 300
3 37 160 185
3 40 252 175
3 58 218 135
3 70 130 283
3 91 152 293
3 39 308 258
3 120 295 170
3 22 211 221
3 66 199 144
3 89 285 143
3 175 252 315
3 38 198 219
3 95 219 198
3 94 166 274
3 57 260 145
3 85 145 260
3 101 309 158
3 50 268 314
3 27 133 242
3 48 233 266
3 124 266 233
3 106 264 132
3 52 132 273
3 109 281 183
3 69 183 281
3 34 179 189
3 48 266 146
3 87 146 266
3 45 289 225
3 130 225 289
3 12 295 226
3 45 196 152
3 71 133 268
3 87 266 232
3 92 300 239
3 88 188 209
3 32 254 134
3 3 299 137
3 133 314 268
3 76 273 215
3 33 162 294
3 33 287 177
3 99 177 287
3 67 259 147
3 128 262 184
3 27 159 257
3 51 250 136
3 53 282 137
3 32 153 253
3 35 217 147
3 115 155 241
3 111 246 175
3 120 226 295
3 102 253 138
3 57 145 224
3 62 290 156
3 41 195 235
3 94 235 195
3 62 160 290
3 88 209 255
3 35 145 237
3 48 181 297
3 93 223 150
3 54 291 142
3 77 168 201
3 101 201 168
3 43 216 188
3 123 307 239
3 39 258 141
3 55 251 159
3 84 159 251
3 108 312 167
3 61 167 312
3 18 277  19
3 70 161 206
3 127 185 261
3 44 245 201
3 80 189 179
3 82 230 149
3 142 291 203
3 78 310 269
3 31 303 150
3 93 150 303
3 40 144 252
3 80 146 308
3 66 263 192
3 97 192 263
3 26 164 238
3 31 150 232
3 11  12 226
3 50 307 268
3 66 144 263
3 28 161 283
3 101 168 309
3 9 309 168
3 61 210 163
3 76 243 151
3 71 264 242
3 50 239 307
3 152 196 293
3 20 222  21
3 78 220 310
3 54 270 150
3 163 200 281
3 121 205 305
3 42 305 205
3 26 149 278
3 85 278 149
3 76 215 210
3 11 226 158
3 88 289 152
3 45 152 289
3 4   5 229
3 90 272 225
3 37 280 148
3 26 278 164
3 43 230 216
3 88 152 256
3 52 273 151
3 55 154 251
3 117 286 294
3 57 311 198
3 77 174 235
3 88 255 289
3 130 289 255
3 31 267 303
3 86 275 282
3 137 282 275
3 3   4 299
3 106 242 264
3 5 166 229
3 42 204 305
3 63 247 197
3 131 303 267
3 84 257 159
3 131 276 303
3 121 268 307
3 92 231 228
3 40 246 180
3 86 180 246
3 81 221 211
3 70 283 161
3 79 250 182
3 61 312 157
3 75 209 188
3 73 171 238
3 27 191 269
3 57 164 260
3 20 183 222
3 98 315 252
3 93 276 301
3 41 235 174
3 93 303 276
3 91 237 187
3 29 265 182
3 75 188 216
3 87 270 258
3 33 286 287
3 139 287 286
3 109 163 281
3 73 290 160
3 70 294 162
3 75 216 193
3 82 193 216
3 84 228 231
3 83 174 245
3 78 219 220
3 95 220 219
3 13 170 295
3 81 279 212
3 40 175 246
3 126 248 194
3 80 308 178
3 81 212 213
3 89 213 212
3 63 178 247
3 49 296 213
3 28 255 209
3 18 167 277
3 106 234 191
3 92 228 214
3 43 188 256
3 88 256 188
3 96 165 304
3 104 184 262
3 41 174 271
3 35 237 217
3 91 217 237
3 6   7 274
3 83 271 174
3 67 217 293
3 105 261 185
3 46 284 241
3 115 241 284
3 82 216 230
3 28 283 255
3 31 192 267
3 12  13 295
3 16 298  17
3 79 182 265
3 59 172 313
3 86 282 180
3 107 297 173
3 9  10 309
3 50 231 239
3 92 239 231
3 123 300 285
3 84 231 314
3 99 287 313
3 30 300 176
3 60 175 315
3 93 301 223
3 39 178 308
3 103 204 279
3 42 279 204
3 71 208 264
3 102 254 253
3 32 253 254
3 79 249 250
3 136 250 249
3 84 314 257
3 164 278 260
3 100 208 302
3 71 302 208
3 131 207 276
3 30 285 300
3 97 267 192
3 45 225 272
3 78 269 191
3 94 274 190
3 7 190 274
3 119 203 291
3 86 240 275
3 150 270 232
3 123 205 307
3 48 297 233
3 107 233 297
3 95 198 311
3 69 281 200
3 68 276 207
3 95 284 220
3 46 220 284
3 67 293 196
3 132 215 273
3 41 301 195
3 42 212 279
3 118 244 265
3 79 265 244
3 113 269 310
3 87 232 270
3 125 227 292
3 47 292 227
3 123 239 300
3 121 307 205
3 81 213 296
3 91 293 217
3 71 268 302
3 121 302 268
3 126 221 296
3 81 296 221
3 58 306 218
3 46 310 220
3 85 260 278
3 130 255 283
3 57 224 311
3 50 314 231
3 100 302 305
3 121 305 302
3 133 257 314
CELL_TYPES 556
5 5 5 5 5 5 5 5 5 5 5 5 5 5 5 5 5 5 5 5 5 5 5 5 5 5 5 5 5 5 5 5 5 5 5 5 5 5 5 5 5 5 5 5 5 5 5 5 5 5 5 5 5 5 5 5 5 5 5 5 5 5 5 5 5 5 5 5 5 5 5 5 5 5 5 5 5 5 5 5 5 5 5 5 5 5 5 5 5 5 5 5 5 5 5 5 5 5 5 5 5 5 5 5 5 5 5 5 5 5 5 5 5 5 5 5 5 5 5 5 5 5 5 5 5 5 5 5 5 5 5 5 5 5 5 5 5 5 5 5 5 5 5 5 5 5 5 5 5 5 5 5 5 5 5 5 5 5 5 5 5 5 5 5 5 5 5 5 5 5 5 5 5 5 5 5 5 5 5 5 5 5 5 5 5 5 5 5 5 5 5 5 5 5 5 5 5 5 5 5 5 5 5 5 5 5 5 5 5 5 5 5 5 5 5 5 5 5 5 5 5 5 5 5 5 5 5 5 5 5 5 5 5 5 5 5 5 5 5 5 5 5 5 5 5 5 5 5 5 5 5 5 5 5 5 5 5 5 5 5 5 5 5 5 5 5 5 5 5 5 5 5 5 5 5 5 5 5 5 5 5 5 5 5 5 5 5 5 5 5 5 5 5 5 5 5 5 5 5 5 5 5 5 5 5 5 5 5 5 5 5 5 5 5 5 5 5 5 5 5 5 5 5 5 5 5 5 5 5 5 5 5 5 5 5 5 5 5 5 5 5 5 5 5 5 5 5 5 5 5 5 5 5 5 5 5 5 5 5 5 5 5 5 5 5 5 5 5 5 5 5 5 5 5 5 5 5 5 5 5 5 5 5 5 5 5 5 5 5 5 5 5 5 5 5 5 5 5 5 5 5 5 5 5 5 5 5 5 5 5 5 5 5 5 5 5 5 5 5 5 5 5 5 5 5 5 5 5 5 5 5 5 5 5 5 5 5 5 5 5 5 5 5 5 5 5 5 5 5 5 5 5 5 5 5 5 5 5 5 5 5 5 5 5 5 5 5 5 5 5 5 5 5 5 5 5 5 5 5 5 5 5 5 5 5 5 5 5 5 5 5 5 5 5 5 5 5 5 5 5 5 5 5 5 5 5 5 5 5 5 5 5 5 5 5 5 5 5 5 5 5 5 5 5 5 5 5 5 5 5 5 5 5 5 5 5 5 5 5 5 5 5 5 5 5 5 5 5 5 5 5 5 5 5 5 5 
POINT_DATA 316
VECTORS displacement_ITER1 FLOAT
 1.458108e-01  -9.753380e-02  0 
 1.484354e-01  -9.557845e-02  0 
 1.510395e-01  -9.352919e-02  0 
 1.536044e-01  -9.139734e-02  0 
 1.561343e-01  -8.918887e-02  0 
 1.586233e-01  -8.690399e-02  0 
 1.610711e-01  -8.454489e-02  0 
 1.634808e-01  -8.211582e-02  0 
 1.658524e-01  -7.960685e-02  0 
 1.681859e-01  -7.702303e-02  0 
 1.704926e-01  -7.436006e-02  0 
 1.727675e-01  -7.159609e-02  0 
 1.750046e-01  -6.874149e-02  0 
 1.772048e-01  -6.579324e-02  0 
 1.793493e-01  -6.274967e-02  0 
 1.814275e-01  -5.963032e-02  0 
 1.112448e-01  -3.884851e-02  0 
 1.132916e-01  -3.609445e-02  0 
 1.152498e-01  -3.326266e-02  0 
 1.170744e-01  -3.032710e-02  0 
 1.187551e-01  -2.727768e-02  0 
 1.202835e-01  -2.411251e-02  0 
 1.216509e-01  -2.080270e-02  0 
 1.228621e-01  -1.731541e-02  0 
 1.239668e-01  -1.361186e-02  0 
 1.250216e-01  -9.557066e-03  0 
 1.375056e-01  -5.961593e-02  0 
 1.378185e-01  -3.831899e-02  0 
 1.531597e-01  -6.753593e-02  0 
 1.241896e-01  -4.780398e-02  0 
 1.377393e-01  -2.312860e-02  0 
 1.458886e-01  -7.958272e-02  0 
 1.506223e-01  -4.087281e-02  0 
 1.640288e-01  -6.204681e-02  0 
 1.312876e-01  -6.880343e-02  0 
 1.462487e-01  -5.176903e-02  0 
 1.262900e-01  -3.686753e-02  0 
 1.270899e-01  -5.799673e-02  0 
 1.347451e-01  -4.933661e-02  0 
 1.421576e-01  -6.923418e-02  0 
 1.422449e-01  -8.760233e-02  0 
 1.548205e-01  -7.645026e-02  0 
 1.292012e-01  -2.759746e-02  0 
 1.465570e-01  -6.156006e-02  0 
 1.619252e-01  -7.028123e-02  0 
 1.550894e-01  -5.911873e-02  0 
 1.427234e-01  -4.476919e-02  0 
 1.175482e-01  -4.407361e-02  0 
 1.387326e-01  -7.643865e-02  0 
 1.312053e-01  -1.823886e-02  0 
 1.364089e-01  -3.082406e-02  0 
 1.208077e-01  -5.404701e-02  0 
 1.298368e-01  -4.312112e-02  0 
 1.485232e-01  -8.586260e-02  0 
 1.484500e-01  -7.310401e-02  0 
 1.440309e-01  -3.785906e-02  0 
 1.366311e-01  -8.587862e-02  0 
 1.398497e-01  -5.319641e-02  0 
 1.321523e-01  -6.266256e-02  0 
 1.714947e-01  -6.157441e-02  0 
 1.395400e-01  -9.407582e-02  0 
 1.198179e-01  -3.774908e-02  0 
 1.290133e-01  -5.197893e-02  0 
 1.370459e-01  -6.576690e-02  0 
 1.506613e-01  -4.698959e-02  0 
 1.676429e-01  -6.716874e-02  0 
 1.402503e-01  -8.219152e-02  0 
 1.525748e-01  -5.324964e-02  0 
 1.540665e-01  -8.372242e-02  0 
 1.240949e-01  -3.081149e-02  0 
 1.583305e-01  -6.487659e-02  0 
 1.325607e-01  -3.524316e-02  0 
 1.325726e-01  -7.479629e-02  0 
 1.326907e-01  -5.654198e-02  0 
 1.121121e-01  -4.657862e-02  0 
 1.472732e-01  -6.686783e-02  0 
 1.239719e-01  -4.222164e-02  0 
 1.607320e-01  -7.570901e-02  0 
 1.371262e-01  -4.398626e-02  0 
 1.189308e-01  -4.932696e-02  0 
 1.373306e-01  -7.120523e-02  0 
 1.274795e-01  -2.243317e-02  0 
 1.421076e-01  -6.384964e-02  0 
 1.563691e-01  -7.176647e-02  0 
 1.407230e-01  -3.367060e-02  0 
 1.424997e-01  -5.818810e-02  0 
 1.467222e-01  -9.068746e-02  0 
 1.433541e-01  -7.455238e-02  0 
 1.513232e-01  -6.269577e-02  0 
 1.325031e-01  -2.360582e-02  0 
 1.604750e-01  -5.840445e-02  0 
 1.489361e-01  -5.695605e-02  0 
 1.405438e-01  -2.837996e-02  0 
 1.507516e-01  -7.893456e-02  0 
 1.585452e-01  -8.048895e-02  0 
 1.392821e-01  -4.825951e-02  0 
 1.171459e-01  -5.727749e-02  0 
 1.445929e-01  -8.501057e-02  0 
 1.374310e-01  -9.021418e-02  0 
 1.672797e-01  -5.810825e-02  0 
 1.278733e-01  -3.217481e-02  0 
 1.658983e-01  -7.302453e-02  0 
 1.472671e-01  -4.439653e-02  0 
 1.245953e-01  -2.626348e-02  0 
 1.284437e-01  -4.775825e-02  0 
 1.251946e-01  -5.231893e-02  0 
 1.329096e-01  -3.969720e-02  0 
 1.364422e-01  -8.053714e-02  0 
 1.157962e-01  -3.987576e-02  0 
 1.203675e-01  -3.359928e-02  0 
 1.756242e-01  -5.970149e-02  0 
 1.435584e-01  -9.387865e-02  0 
 1.352687e-01  -5.365165e-02  0 
 1.410633e-01  -3.996659e-02  0 
 1.576401e-01  -5.523830e-02  0 
 1.439253e-01  -4.935923e-02  0 
 1.285141e-01  -6.685709e-02  0 
 1.634010e-01  -6.713227e-02  0 
 1.209008e-01  -4.473002e-02  0 
 1.527800e-01  -7.377078e-02  0 
 1.712876e-01  -6.510253e-02  0 
 1.322676e-01  -3.085180e-02  0 
 1.529289e-01  -8.668073e-02  0 
 1.356426e-01  -2.701849e-02  0 
 1.423239e-01  -7.906732e-02  0 
 1.126291e-01  -4.210700e-02  0 
 1.271154e-01  -1.687225e-02  0 
 1.231188e-01  -5.729759e-02  0 
 1.340554e-01  -4.628719e-02  0 
 1.158336e-01  -4.749458e-02  0 
 1.556542e-01  -6.338902e-02  0 
 1.490836e-01  -8.267913e-02  0 
 1.293681e-01  -3.966908e-02  0 
 1.359325e-01  -3.497777e-02  0 
 1.527857e-01  -4.387745e-02  0 
 1.334091e-01  -6.599270e-02  0 
 1.174263e-01  -5.388033e-02  0 
 1.504391e-01  -8.936795e-02  0 
 1.445330e-01  -4.205906e-02  0 
 1.685136e-01  -6.390095e-02  0 
 1.354295e-01  -6.263638e-02  0 
 1.459240e-01  -7.031442e-02  0 
 1.497140e-01  -6.958370e-02  0 
 1.346856e-01  -2.049966e-02  0 
 1.394124e-01  -8.580331e-02  0 
 1.434446e-01  -5.475928e-02  0 
 1.401234e-01  -7.363532e-02  0 
 1.498746e-01  -5.072982e-02  0 
 1.303970e-01  -5.932077e-02  0 
 1.409146e-01  -6.094690e-02  0 
 1.480507e-01  -7.686597e-02  0 
 1.269204e-01  -4.472484e-02  0 
 1.517420e-01  -5.899054e-02  0 
 1.477753e-01  -3.855934e-02  0 
 1.459310e-01  -3.454116e-02  0 
 1.471925e-01  -4.826444e-02  0 
 1.324386e-01  -5.159324e-02  0 
 1.205137e-01  -4.134657e-02  0 
 1.687297e-01  -7.137118e-02  0 
 1.407650e-01  -3.694284e-02  0 
 1.293464e-01  -5.544825e-02  0 
 1.564178e-01  -6.818738e-02  0 
 1.609651e-01  -6.156317e-02  0 
 1.228667e-01  -3.608746e-02  0 
 1.379576e-01  -5.600026e-02  0 
 1.201436e-01  -5.879423e-02  0 
 1.577463e-01  -8.339986e-02  0 
 1.164156e-01  -3.692170e-02  0 
 1.647008e-01  -7.617618e-02  0 
 1.304019e-01  -7.265226e-02  0 
 1.748851e-01  -6.328492e-02  0 
 1.339203e-01  -5.967552e-02  0 
 1.722371e-01  -5.781509e-02  0 
 1.343561e-01  -7.751294e-02  0 
 1.575847e-01  -7.471187e-02  0 
 1.413136e-01  -9.117821e-02  0 
 1.407314e-01  -2.515940e-02  0 
 1.640423e-01  -5.874053e-02  0 
 1.387086e-01  -6.858650e-02  0 
 1.336873e-01  -7.166690e-02  0 
 1.454239e-01  -8.781001e-02  0 
 1.362034e-01  -7.473738e-02  0 
 1.224454e-01  -5.098189e-02  0 
 1.207841e-01  -3.033341e-02  0 
 1.316098e-01  -4.876844e-02  0 
 1.261789e-01  -5.503267e-02  0 
 1.650440e-01  -7.016283e-02  0 
 1.458558e-01  -5.843346e-02  0 
 1.483660e-01  -6.375385e-02  0 
 1.352405e-01  -6.867039e-02  0 
 1.617184e-01  -7.922352e-02  0 
 1.356432e-01  -4.078704e-02  0 
 1.435270e-01  -8.191191e-02  0 
 1.438649e-01  -6.683881e-02  0 
 1.277008e-01  -1.297340e-02  0 
 1.554358e-01  -8.020666e-02  0 
 1.544660e-01  -5.623205e-02  0 
 1.386132e-01  -6.299999e-02  0 
 1.375280e-01  -5.064881e-02  0 
 1.375206e-01  -8.341927e-02  0 
 1.255477e-01  -3.404584e-02  0 
 1.628634e-01  -7.316239e-02  0 
 1.263253e-01  -4.989264e-02  0 
 1.534577e-01  -7.091441e-02  0 
 1.269455e-01  -2.890348e-02  0 
 1.323847e-01  -2.733004e-02  0 
 1.595636e-01  -6.844558e-02  0 
 1.512496e-01  -8.411578e-02  0 
 1.290822e-01  -3.554580e-02  0 
 1.502413e-01  -6.617075e-02  0 
 1.232516e-01  -3.903837e-02  0 
 1.241803e-01  -2.302520e-02  0 
 1.296285e-01  -2.461557e-02  0 
 1.303145e-01  -2.136617e-02  0 
 1.436606e-01  -2.803266e-02  0 
 1.260532e-01  -3.992367e-02  0 
 1.453157e-01  -6.411519e-02  0 
 1.492997e-01  -5.366752e-02  0 
 1.308297e-01  -6.545557e-02  0 
 1.370128e-01  -4.703266e-02  0 
 1.398168e-01  -4.575959e-02  0 
 1.252283e-01  -2.007325e-02  0 
 1.217097e-01  -2.777590e-02  0 
 1.512723e-01  -7.565608e-02  0 
 1.427348e-01  -5.197463e-02  0 
 1.573967e-01  -6.092180e-02  0 
 1.716396e-01  -6.837209e-02  0 
 1.145970e-01  -4.464251e-02  0 
 1.427783e-01  -3.169348e-02  0 
 1.558986e-01  -8.598303e-02  0 
 1.438701e-01  -6.118153e-02  0 
 1.393168e-01  -3.112969e-02  0 
 1.445236e-01  -7.679726e-02  0 
 1.392639e-01  -7.904123e-02  0 
 1.328779e-01  -4.274064e-02  0 
 1.581311e-01  -7.766124e-02  0 
 1.786509e-01  -5.799245e-02  0 
 1.467562e-01  -5.511433e-02  0 
 1.354411e-01  -5.714818e-02  0 
 1.375609e-01  -2.861915e-02  0 
 1.465481e-01  -9.341271e-02  0 
 1.451286e-01  -4.630979e-02  0 
 1.344512e-01  -3.756814e-02  0 
 1.238945e-01  -4.497806e-02  0 
 1.187532e-01  -4.660056e-02  0 
 1.598374e-01  -7.235183e-02  0 
 1.439368e-01  -9.040516e-02  0 
 1.402968e-01  -6.612940e-02  0 
 1.302989e-01  -1.521050e-02  0 
 1.166963e-01  -5.087615e-02  0 
 1.194187e-01  -5.199162e-02  0 
 1.428482e-01  -3.494454e-02  0 
 1.390660e-01  -8.859246e-02  0 
 1.478814e-01  -4.182553e-02  0 
 1.499552e-01  -4.366946e-02  0 
 1.532789e-01  -6.474813e-02  0 
 1.487907e-01  -6.039606e-02  0 
 1.386823e-01  -3.521644e-02  0 
 1.433405e-01  -7.203352e-02  0 
 1.526837e-01  -4.966444e-02  0 
 1.407230e-01  -5.597132e-02  0 
 1.235495e-01  -5.393815e-02  0 
 1.308367e-01  -4.597087e-02  0 
 1.419079e-01  -8.459169e-02  0 
 1.314915e-01  -3.760620e-02  0 
 1.213949e-01  -4.752315e-02  0 
 1.413902e-01  -7.642323e-02  0 
 1.462514e-01  -8.251869e-02  0 
 1.342975e-01  -3.247593e-02  0 
 1.384983e-01  -4.126676e-02  0 
 1.456046e-01  -7.394712e-02  0 
 1.551456e-01  -7.385968e-02  0 
 1.570106e-01  -5.798016e-02  0 
 1.277552e-01  -4.196607e-02  0 
 1.606386e-01  -8.196378e-02  0 
 1.491083e-01  -9.179039e-02  0 
 1.517698e-01  -8.115886e-02  0 
 1.177934e-01  -3.438446e-02  0 
 1.399894e-01  -5.825667e-02  0 
 1.270140e-01  -2.549291e-02  0 
 1.278324e-01  -6.061757e-02  0 
 1.228061e-01  -3.311618e-02  0 
 1.479232e-01  -8.846784e-02  0 
 1.553636e-01  -6.575012e-02  0 
 1.419207e-01  -4.724595e-02  0 
 1.352173e-01  -2.427755e-02  0 
 1.652341e-01  -6.449368e-02  0 
 1.672507e-01  -6.118527e-02  0 
 1.354937e-01  -8.869605e-02  0 
 1.538560e-01  -6.143128e-02  0 
 1.316342e-01  -5.408505e-02  0 
 1.510222e-01  -7.241427e-02  0 
 1.154252e-01  -4.233466e-02  0 
 1.514023e-01  -5.580278e-02  0 
 1.614797e-01  -6.458874e-02  0 
 1.742906e-01  -6.621482e-02  0 
 1.282727e-01  -1.981071e-02  0 
 1.368982e-01  -7.772709e-02  0 
 1.136414e-01  -3.867223e-02  0 
 1.531333e-01  -8.914371e-02  0 
 1.380258e-01  -2.590806e-02  0 
 1.531976e-01  -7.851178e-02  0 
 1.308838e-01  -3.300390e-02  0 
 1.484952e-01  -7.990537e-02  0 
 1.194742e-01  -5.635873e-02  0 
 1.299269e-01  -2.998686e-02  0 
 1.291438e-01  -6.322246e-02  0 
 1.344939e-01  -2.945669e-02  0 
 1.401454e-01  -7.081967e-02  0 
 1.678973e-01  -7.457648e-02  0 
 1.406275e-01  -4.296773e-02  0 
 1.406834e-01  -5.030720e-02  0 
 1.180297e-01  -4.003730e-02  0 
 1.695241e-01  -5.901695e-02  0 
 1.375961e-01  -3.303016e-02  0 
 1.388650e-01  -9.180332e-02  0 
VECTORS displacement_ITER2 FLOAT
 1.354615e-01  -8.985277e-02  0 
 1.378787e-01  -8.805483e-02  0 
 1.402699e-01  -8.616962e-02  0 
 1.426204e-01  -8.420785e-02  0 
 1.449330e-01  -8.217512e-02  0 
 1.472045e-01  -8.007230e-02  0 
 1.494320e-01  -7.790073e-02  0 
 1.516149e-01  -7.566361e-02  0 
 1.537511e-01  -7.335838e-02  0 
 1.558361e-01  -7.099066e-02  0 
 1.578688e-01  -6.856063e-02  0 
 1.598443e-01  -6.607148e-02  0 
 1.617567e-01  -6.353112e-02  0 
 1.636036e-01  -6.094676e-02  0 
 1.653864e-01  -5.832931e-02  0 
 1.671153e-01  -5.567599e-02  0 
 1.036937e-01  -3.598390e-02  0 
 1.055482e-01  -3.343478e-02  0 
 1.073253e-01  -3.080016e-02  0 
 1.089844e-01  -2.806361e-02  0 
 1.105159e-01  -2.521977e-02  0 
 1.119137e-01  -2.227266e-02  0 
 1.131678e-01  -1.920533e-02  0 
 1.142795e-01  -1.600415e-02  0 
 1.152758e-01  -1.264896e-02  0 
 1.161880e-01  -9.038017e-03  0 
 1.280007e-01  -5.524396e-02  0 
 1.282486e-01  -3.549181e-02  0 
 1.423363e-01  -6.249567e-02  0 
 1.156392e-01  -4.427571e-02  0 
 1.280516e-01  -2.130811e-02  0 
 1.356086e-01  -7.344525e-02  0 
 1.402669e-01  -3.791026e-02  0 
 1.521433e-01  -5.760120e-02  0 
 1.222825e-01  -6.365992e-02  0 
 1.361046e-01  -4.803924e-02  0 
 1.175298e-01  -3.413032e-02  0 
 1.183546e-01  -5.370075e-02  0 
 1.254184e-01  -4.572905e-02  0 
 1.322630e-01  -6.405362e-02  0 
 1.322318e-01  -8.076475e-02  0 
 1.437692e-01  -7.055480e-02  0 
 1.201616e-01  -2.549482e-02  0 
 1.363461e-01  -5.706245e-02  0 
 1.502278e-01  -6.493963e-02  0 
 1.441804e-01  -5.487351e-02  0 
 1.328425e-01  -4.151236e-02  0 
 1.095073e-01  -4.082344e-02  0 
 1.290892e-01  -7.061148e-02  0 
 1.218820e-01  -1.683153e-02  0 
 1.268874e-01  -2.849655e-02  0 
 1.125373e-01  -5.003478e-02  0 
 1.208442e-01  -3.994608e-02  0 
 1.379814e-01  -7.915440e-02  0 
 1.379944e-01  -6.755358e-02  0 
 1.340718e-01  -3.505914e-02  0 
 1.270916e-01  -7.920730e-02  0 
 1.301619e-01  -4.933034e-02  0 
 1.230644e-01  -5.803063e-02  0 
 1.586593e-01  -5.727342e-02  0 
 1.297172e-01  -8.669755e-02  0 
 1.115611e-01  -3.495707e-02  0 
 1.201129e-01  -4.814808e-02  0 
 1.275766e-01  -6.088748e-02  0 
 1.402616e-01  -4.355552e-02  0 
 1.553186e-01  -6.214802e-02  0 
 1.304399e-01  -7.583285e-02  0 
 1.420186e-01  -4.943837e-02  0 
 1.430485e-01  -7.717748e-02  0 
 1.154667e-01  -2.849658e-02  0 
 1.470484e-01  -6.009199e-02  0 
 1.233332e-01  -3.261811e-02  0 