# vtk DataFile Version 3.1
this is an vtk file created by FEMAC
ASCII
DATASET UNSTRUCTURED_GRID
POINTS 31 FLOAT
4.000000 2.000000 0.000000
4.000000 3.000000 0.000000
3.750000 2.000000 0.000000
4.000000 1.500000 0.000000
4.000000 1.750000 0.000000
4.000000 2.250000 0.000000
4.000000 2.500000 0.000000
4.000000 2.750000 0.000000
4.250000 2.000000 0.000000
4.500000 2.000000 0.000000
3.817501 1.632951 0.000000
3.842898 1.835270 0.000000
3.786897 2.360864 0.000000
3.749641 2.630999 0.000000
3.828962 2.840667 0.000000
3.836478 2.155331 0.000000
4.654136 1.816702 0.000000
4.195291 1.666492 0.000000
4.225000 1.500000 0.000000
4.384426 1.792836 0.000000
4.358519 1.602133 0.000000
4.544074 1.619719 0.000000
4.165943 1.841866 0.000000
4.325972 2.178472 0.000000
4.500000 2.225000 0.000000
4.171968 2.341551 0.000000
4.216647 2.581177 0.000000
4.399662 2.398247 0.000000
4.507893 2.661856 0.000000
4.245757 2.832172 0.000000
4.149588 2.154005 0.000000
CELLS 42 168 
3 4 10  3
3 2 11  0
3 11  4  0
3 11 10  4
3 6 12  5
3 14  7  1
3 15  2  0
3 15  5 12
3 5 15  0
3 13 12  6
3 13  6  7
3 7 14 13
3 3 17  4
3 18 17  3
3 20 17 18
3 8 19  9
3 19 16  9
3 21 16 19
3 17 20 19
3 19 20 21
3 4 22  0
3 22  8  0
3 22  4 17
3 22 19  8
3 17 19 22
3 9 23  8
3 24 23  9
3 27 23 24
3 5 25  6
3 26  7  6
3 27 25 23
3 7 29  1
3 30  5  0
3 30  8 23
3 8 30  0
3 26 29  7
3 30 25  5
3 23 25 30
3 6 25 26
3 26 25 27
3 27 28 26
3 26 28 29
CELL_TYPES 42
5 5 5 5 5 5 5 5 5 5 5 5 5 5 5 5 5 5 5 5 5 5 5 5 5 5 5 5 5 5 5 5 5 5 5 5 5 5 5 5 5 5 
POINT_DATA 31
VECTORS displacement_ITER1 FLOAT
 -5.216765e-02  -2.192936e-01  0 
 7.495717e-03  -2.192796e-01  0 
 -5.213041e-02  -2.102013e-01  0 
 -7.005433e-02  -2.192046e-01  0 
 -6.113386e-02  -2.192154e-01  0 
 -3.726116e-02  -2.193332e-01  0 
 -2.235175e-02  -2.193321e-01  0 
 -7.433165e-03  -2.193095e-01  0 
 -5.218022e-02  -2.342670e-01  0 
 -5.219187e-02  -2.492228e-01  0 
 -6.531117e-02  -2.126839e-01  0 
 -5.810031e-02  -2.136029e-01  0 
 -3.085398e-02  -1.994540e-01  0 
 -1.407736e-02  -1.947094e-01  0 
 -3.886894e-04  -2.008488e-01  0 
 -4.381920e-02  -2.065861e-01  0 
 -6.423303e-02  -2.776451e-01  0 
 -6.408001e-02  -2.324773e-01  0 
 -7.080468e-02  -2.346608e-01  0 
 -5.694084e-02  -2.494334e-01  0 
 -6.788796e-02  -2.482672e-01  0 
 -6.796014e-02  -2.800399e-01  0 
 -5.643234e-02  -2.306985e-01  0 
 -4.152211e-02  -2.387979e-01  0 
 -3.875320e-02  -2.491957e-01  0 
 -3.179947e-02  -2.295981e-01  0 
 -1.751556e-02  -2.322621e-01  0 
 -2.842174e-02  -2.431912e-01  0 
 -1.271137e-02  -2.496539e-01  0 
 -2.537502e-03  -2.339870e-01  0 
 -4.297762e-02  -2.282541e-01  0 
VECTORS displacement_ITER2 FLOAT
 -2.499751e-02  -1.855066e-01  0 
 2.483662e-02  -1.854662e-01  0 
 -2.494398e-02  -1.817337e-01  0 
 -3.217357e-02  -1.853899e-01  0 
 -2.860026e-02  -1.854044e-01  0 
 -1.258428e-02  -1.855592e-01  0 
 -1.440151e-04  -1.855479e-01  0 
 1.233102e-02  -1.855082e-01  0 
 -2.501687e-02  -1.980113e-01  0 
 -2.502535e-02  -2.104846e-01  0 
 -3.027301e-02  -1.827718e-01  0 
 -2.740211e-02  -1.831658e-01  0 
 -7.459088e-03  -1.681439e-01  0 
 6.697172e-03  -1.636767e-01  0 
 1.837664e-02  -1.690162e-01  0 
 -1.864287e-02  -1.752086e-01  0 
 -3.077891e-02  -2.288329e-01  0 
 -3.028475e-02  -1.951111e-01  0 
 -3.390127e-02  -1.967554e-01  0 
 -2.607584e-02  -2.088743e-01  0 
 -3.265132e-02  -2.069762e-01  0 
 -3.208109e-02  -2.306047e-01  0 
 -2.644721e-02  -1.943462e-01  0 
 -1.613050e-02  -2.017932e-01  0 
 -1.381907e-02  -2.104705e-01  0 
 -8.029442e-03  -1.941222e-01  0 
 3.892527e-03  -1.963517e-01  0 
 -5.209400e-03  -2.054739e-01  0 
 7.912359e-03  -2.109085e-01  0 
 1.642689e-02  -1.977967e-01  0 
 -1.734225e-02  -1.929918e-01  0 
VECTORS displacement_ITER3 FLOAT
 -3.812983e-02  -1.154361e-01  0 
 3.743241e-03  -1.153564e-01  0 
 -3.805254e-02  -1.157654e-01  0 
 -3.702939e-02  -1.152901e-01  0 
 -3.757376e-02  -1.153070e-01  0 
 -2.775638e-02  -1.155060e-01  0 
 -1.732188e-02  -1.154812e-01  0 
 -6.816874e-03  -1.154163e-01  0 
 -3.816193e-02  -1.259370e-01  0 
 -3.816738e-02  -1.363897e-01  0 
 -3.731678e-02  -1.156773e-01  0 
 -3.779970e-02  -1.156827e-01  0 
 -2.379382e-02  -1.008704e-01  0 
 -1.182050e-02  -9.690374e-02  0 
 -1.862588e-03  -1.014839e-01  0 
 -3.348460e-02  -1.074859e-01  0 
 -3.823194e-02  -1.423717e-01  0 
 -3.859269e-02  -1.217032e-01  0 
 -4.025475e-02  -1.234080e-01  0 
 -3.723726e-02  -1.316728e-01  0 
 -4.017422e-02  -1.295559e-01  0 
 -3.934677e-02  -1.422875e-01  0 
 -3.783972e-02  -1.217676e-01  0 
 -3.071790e-02  -1.291112e-01  0 
 -2.877720e-02  -1.363914e-01  0 
 -2.393955e-02  -1.226850e-01  0 
 -1.393425e-02  -1.245649e-01  0 
 -2.157161e-02  -1.322210e-01  0 
 -1.054649e-02  -1.368423e-01  0 
 -3.364770e-03  -1.257838e-01  0 
 -3.173019e-02  -1.217237e-01  0 
VECTORS displacement_ITER4 FLOAT
 -3.894104e-02  -9.938528e-02  0 
 -2.596748e-03  -9.931275e-02  0 
 -3.885225e-02  -9.994874e-02  0 
 -3.734626e-02  -9.922386e-02  0 
 -3.812266e-02  -9.924172e-02  0 
 -2.996139e-02  -9.946994e-02  0 
 -2.091240e-02  -9.944755e-02  0 
 -1.178361e-02  -9.937747e-02  0 
 -3.898067e-02  -1.085149e-01  0 
 -3.898709e-02  -1.175879e-01  0 
 -3.775634e-02  -9.978083e-02  0 
 -3.844072e-02  -9.978202e-02  0 
 -2.673151e-02  -8.681041e-02  0 
 -1.629790e-02  -8.339975e-02  0 
 -7.600730e-03  -8.742451e-02  0 
 -3.516799e-02  -9.254581e-02  0 
 -3.862661e-02  -1.202181e-01  0 
 -3.930931e-02  -1.043495e-01  0 
 -4.107590e-02  -1.063248e-01  0 
 -3.865882e-02  -1.122857e-01  0 
 -4.117107e-02  -1.107884e-01  0 
 -4.091700e-02  -1.192897e-01  0 
 -3.884988e-02  -1.044865e-01  0 
 -3.252259e-02  -1.112699e-01  0 
 -3.083940e-02  -1.175903e-01  0 
 -2.665095e-02  -1.056980e-01  0 
 -1.797359e-02  -1.073359e-01  0 
 -2.459597e-02  -1.139780e-01  0 
 -1.503017e-02  -1.180166e-01  0 
 -8.783159e-03  -1.083946e-01  0 
 -3.339824e-02  -1.048535e-01  0 
VECTORS displacement_ITER5 FLOAT
 -2.698077e-02  -6.506745e-02  0 
 -3.585516e-03  -6.506815e-02  0 
 -2.688497e-02  -6.216875e-02  0 
 -3.230751e-02  -6.488688e-02  0 
 -2.960431e-02  -6.490849e-02  0 
 -2.121290e-02  -6.517970e-02  0 
 -1.539280e-02  -6.518275e-02  0 
 -9.507060e-03  -6.512688e-02  0 
 -2.702738e-02  -7.101258e-02  0 
 -2.703911e-02  -7.689327e-02  0 
 -3.086937e-02  -6.290689e-02  0 
 -2.875064e-02  -6.328559e-02  0 
 -1.956121e-02  -5.648157e-02  0 
 -1.280603e-02  -5.452155e-02  0 
 -7.114114e-03  -5.735690e-02  0 
 -2.470872e-02  -5.959426e-02  0 
 -3.072244e-02  -8.142500e-02  0 
 -3.151637e-02  -6.895613e-02  0 
 -3.477180e-02  -7.085006e-02  0 
 -3.011333e-02  -7.375431e-02  0 
 -3.416525e-02  -7.410142e-02  0 
 -3.560561e-02  -8.014564e-02  0 
 -2.906151e-02  -6.850638e-02  0 
 -2.285060e-02  -7.279106e-02  0 
 -2.176956e-02  -7.687989e-02  0 
 -1.907705e-02  -6.919935e-02  0 
 -1.350180e-02  -7.026779e-02  0 
 -1.775338e-02  -7.454501e-02  0 
 -1.161008e-02  -7.717345e-02  0 
 -7.574962e-03  -7.094521e-02  0 
 -2.341134e-02  -6.863351e-02  0 
VECTORS displacement_ITER6 FLOAT
 -1.557903e-02  -4.541653e-02  0 
 4.546958e-03  -4.547506e-02  0 
 -1.548169e-02  -3.899318e-02  0 
 -2.794666e-02  -4.521666e-02  0 
 -2.171951e-02  -4.524661e-02  0 
 -1.060633e-02  -4.554589e-02  0 
 -5.596508e-03  -4.556784e-02  0 
 -5.340780e-04  -4.552550e-02  0 
 -1.562748e-02  -5.057906e-02  0 
 -1.564154e-02  -5.567187e-02  0 
 -2.463903e-02  -4.066817e-02  0 
 -1.966837e-02  -4.141616e-02  0 
 -9.339661e-03  -3.868403e-02  0 
 -3.650608e-03  -3.757749e-02  0 
 1.084515e-03  -3.996619e-02  0 
 -1.338652e-02  -4.021065e-02  0 
 -2.142990e-02  -5.984099e-02  0 
 -2.416446e-02  -4.915874e-02  0 
 -2.802798e-02  -4.961091e-02  0 
 -2.154857e-02  -5.266187e-02  0 
 -2.624088e-02  -5.257956e-02  0 
 -2.752516e-02  -5.647813e-02  0 
 -1.980361e-02  -4.852251e-02  0 
 -1.201320e-02  -5.211493e-02  0 
 -1.108341e-02  -5.564959e-02  0 
 -8.761568e-03  -4.901679e-02  0 
 -3.967906e-03  -4.994532e-02  0 
 -7.620845e-03  -5.362749e-02  0 
 -2.345310e-03  -5.589181e-02  0 
 1.125962e-03  -5.052478e-02  0 
 -1.249592e-02  -4.851733e-02  0 
VECTORS displacement_ITER7 FLOAT
 -8.948193e-03  -3.531587e-02  0 
 3.944294e-03  -3.543433e-02  0 
 -8.849899e-03  -2.794182e-02  0 
 -2.318066e-02  -3.508568e-02  0 
 -1.602443e-02  -3.512619e-02  0 
 -5.762618e-03  -3.546617e-02  0 
 -2.555830e-03  -3.550696e-02  0 
 6.918698e-04  -3.547762e-02  0 
 -8.995532e-03  -3.870501e-02  0 
 -9.010362e-03  -4.201543e-02  0 
 -1.938346e-02  -2.986237e-02  0 
 -1.365940e-02  -3.071440e-02  0 
 -5.300125e-03  -3.096414e-02  0 
 -1.652822e-03  -3.060501e-02  0 
 1.396969e-03  -3.227437e-02  0 
 -7.606325e-03  -3.118376e-02  0 
 -1.513389e-02  -4.529165e-02  0 
 -1.838857e-02  -3.783994e-02  0 
 -2.165946e-02  -3.701339e-02  0 
 -1.564635e-02  -3.958083e-02  0 
 -1.967888e-02  -3.919651e-02  0 
 -2.095339e-02  -4.079173e-02  0 
 -1.372913e-02  -3.731073e-02  0 
 -6.653364e-03  -3.969743e-02  0 
 -6.059232e-03  -4.198599e-02  0 
 -4.572457e-03  -3.770562e-02  0 
 -1.511694e-03  -3.831786e-02  0 
 -3.839466e-03  -4.067725e-02  0 
 -4.767132e-04  -4.215148e-02  0 
 1.754527e-03  -3.868608e-02  0 
 -6.961232e-03  -3.736059e-02  0 
VECTORS displacement_ITER8 FLOAT
 -1.270026e-02  -2.896014e-02  0 
 3.564687e-03  -2.905165e-02  0 
 -1.259984e-02  -2.193274e-02  0 
 -2.623358e-02  -2.872920e-02  0 
 -1.942960e-02  -2.877251e-02  0 
 -8.682858e-03  -2.910476e-02  0 
 -4.635852e-03  -2.913771e-02  0 
 -5.408462e-04  -2.910102e-02  0 
 -1.274904e-02  -3.317890e-02  0 
 -1.276300e-02  -3.732030e-02  0 
 -2.262498e-02  -2.376395e-02  0 
 -1.718218e-02  -2.457854e-02  0 
 -7.752239e-03  -2.411979e-02  0 
 -3.181962e-03  -2.355706e-02  0 
 5.605358e-04  -2.540752e-02  0 
 -1.085824e-02  -2.468722e-02  0 
 -1.803944e-02  -3.869636e-02  0 
 -2.175563e-02  -3.162531e-02  0 
 -2.458341e-02  -3.041315e-02  0 
 -1.925633e-02  -3.366004e-02  0 
 -2.265794e-02  -3.265298e-02  0 
 -2.366128e-02  -3.334619e-02  0 
 -1.740513e-02  -3.124840e-02  0 
 -9.813343e-03  -3.442549e-02  0 
 -9.062500e-03  -3.729574e-02  0 
 -7.187392e-03  -3.191853e-02  0 
 -3.319282e-03  -3.267940e-02  0 
 -6.264115e-03  -3.565530e-02  0 
 -2.010165e-03  -3.750103e-02  0 
 8.003949e-04  -3.314588e-02  0 
 -1.020253e-02  -3.149981e-02  0 
VECTORS displacement_ITER9 FLOAT
 -7.796166e-03  -1.901078e-02  0 
 5.479256e-03  -1.905229e-02  0 
 -7.694896e-03  -1.507860e-02  0 
 -1.514431e-02  -1.878534e-02  0 
 -1.143254e-02  -1.882774e-02  0 
 -4.544406e-03  -1.914580e-02  0 
 -1.250279e-03  -1.916414e-02  0 
 2.104316e-03  -1.911309e-02  0 
 -7.846123e-03  -2.245964e-02  0 
 -7.858741e-03  -2.583393e-02  0 
 -1.317887e-02  -1.607773e-02  0 
 -1.023880e-02  -1.657608e-02  0 
 -3.858182e-03  -1.502284e-02  0 
 -5.617868e-05  -1.438565e-02  0 
 3.077148e-03  -1.590974e-02  0 
 -6.563221e-03  -1.587762e-02  0 
 -1.074798e-02  -2.585850e-02  0 
 -1.319802e-02  -2.043022e-02  0 
 -1.478319e-02  -1.957064e-02  0 
 -1.196268e-02  -2.209664e-02  0 
 -1.403682e-02  -2.109938e-02  0 
 -1.516051e-02  -2.134136e-02  0 
 -1.070246e-02  -2.048760e-02  0 
 -5.458524e-03  -2.347511e-02  0 
 -4.847757e-03  -2.581526e-02  0 
 -3.329010e-03  -2.143533e-02  0 
 -1.794399e-04  -2.205763e-02  0 
 -2.577589e-03  -2.448555e-02  0 
 8.914142e-04  -2.601815e-02  0 
 3.202112e-03  -2.243610e-02  0 
 -5.772579e-03  -2.108745e-02  0 
VECTORS displacement_ITER10 FLOAT
 -8.727177e-03  -1.626662e-02  0 
 -3.821661e-03  -1.628923e-02  0 
 -8.626756e-03  -1.568949e-02  0 
 -9.363897e-03  -1.603997e-02  0 
 -9.006523e-03  -1.608109e-02  0 
 -7.572395e-03  -1.640091e-02  0 
 -6.372440e-03  -1.641411e-02  0 
 -5.107855e-03  -1.635673e-02  0 
 -8.776792e-03  -1.761917e-02  0 
 -8.789372e-03  -1.889685e-02  0 
 -9.180514e-03  -1.578108e-02  0 
 -8.958753e-03  -1.593969e-02  0 
 -7.772308e-03  -1.416329e-02  0 
 -6.191922e-03  -1.372951e-02  0 
 -4.792949e-03  -1.454541e-02  0 
 -8.882863e-03  -1.484137e-02  0 
 -9.878194e-03  -1.966292e-02  0 
 -1.008763e-02  -1.591178e-02  0 
 -1.056389e-02  -1.579653e-02  0 
 -1.012732e-02  -1.667559e-02  0 
 -1.121939e-02  -1.643670e-02  0 
 -1.287791e-02  -1.724965e-02  0 
 -9.513249e-03  -1.631867e-02  0 
 -7.887003e-03  -1.799743e-02  0 
 -7.666470e-03  -1.887806e-02  0 
 -7.125379e-03  -1.724804e-02  0 
 -5.982545e-03  -1.749401e-02  0 
 -6.849765e-03  -1.839072e-02  0 
 -5.585907e-03  -1.902191e-02  0 
 -4.697650e-03  -1.762756e-02  0 
 -7.995526e-03  -1.708875e-02  0 
VECTORS displacement_ITER11 FLOAT
 -7.027378e-03  -7.692281e-03  0 
 3.150781e-03  -7.664513e-03  0 
 -6.927457e-03  -7.814754e-03  0 
 -6.283665e-03  -7.480011e-03  0 
 -6.619632e-03  -7.520365e-03  0 
 -4.568933e-03  -7.809088e-03  0 
 -2.052693e-03  -7.807264e-03  0 
 5.359550e-04  -7.739689e-03  0 
 -7.078747e-03  -1.033689e-02  0 
 -7.091413e-03  -1.291408e-02  0 
 -6.469390e-03  -7.727089e-03  0 
 -6.802501e-03  -7.807380e-03  0 
 -4.048023e-03  -4.553739e-03  0 
 -1.063756e-03  -3.746829e-03  0 
 1.425062e-03  -4.914216e-03  0 
 -6.401899e-03  -5.918406e-03  0 
 -7.153948e-03  -1.244360e-02  0 
 -7.517165e-03  -8.004036e-03  0 
 -7.656987e-03  -7.896305e-03  0 
 -7.728813e-03  -9.767012e-03  0 
 -8.344722e-03  -8.965232e-03  0 
 -9.446291e-03  -1.018945e-02  0 
 -7.391340e-03  -8.484778e-03  0 
 -5.261211e-03  -1.111123e-02  0 
 -4.795712e-03  -1.290131e-02  0 
 -3.644559e-03  -9.554156e-03  0 
 -1.236544e-03  -1.002971e-02  0 
 -3.071648e-03  -1.189325e-02  0 
 -4.112554e-04  -1.310047e-02  0 
 1.381028e-03  -1.031529e-02  0 
 -5.496883e-03  -9.283035e-03  0 
VECTORS displacement_ITER12 FLOAT
 -7.394008e-03  -8.121684e-03  0 
 -1.769837e-03  -8.106846e-03  0 
 -7.295772e-03  -9.807583e-03  0 
 -3.509521e-03  -7.900727e-03  0 
 -5.420795e-03  -7.944104e-03  0 
 -6.067015e-03  -8.240997e-03  0 
 -4.685971e-03  -8.242229e-03  0 
 -3.237018e-03  -8.179078e-03  0 
 -7.444266e-03  -9.635319e-03  0 
 -7.458195e-03  -1.108009e-02  0 
 -4.534269e-03  -9.297622e-03  0 
 -6.139692e-03  -9.217704e-03  0 
 -5.989571e-03  -6.256962e-03  0 
 -4.263113e-03  -5.663363e-03  0 
 -2.780394e-03  -6.398045e-03  0 
 -7.439809e-03  -7.368700e-03  0 
 -6.584934e-03  -1.065583e-02  0 
 -5.789344e-03  -7.686811e-03  0 
 -5.159700e-03  -7.704580e-03  0 
 -6.628910e-03  -8.917375e-03  0 
 -6.379309e-03  -8.351277e-03  0 
 -7.412721e-03  -9.619366e-03  0 
 -6.673833e-03  -8.269903e-03  0 
 -6.435263e-03  -1.006449e-02  0 
 -6.181428e-03  -1.106528e-02  0 
 -5.557552e-03  -9.205984e-03  0 
 -4.238235e-03  -9.478743e-03  0 
 -5.242136e-03  -1.051073e-02  0 
 -3.780122e-03  -1.122279e-02  0 
 -2.766818e-03  -9.631460e-03  0 
 -6.559822e-03  -9.036393e-03  0 
VECTORS displacement_ITER13 FLOAT
 -8.867424e-03  -8.596582e-03  0 
 -3.867928e-03  -8.587446e-03  0 
 -8.769265e-03  -1.114362e-02  0 
 -3.240412e-03  -8.365778e-03  0 
 -6.029982e-03  -8.414076e-03  0 
 -7.694754e-03  -8.715429e-03  0 
 -6.467668e-03  -8.716810e-03  0 
 -5.174417e-03  -8.656501e-03  0 
 -8.918082e-03  -9.955979e-03  0 
 -8.933878e-03  -1.124564e-02  0 
 -4.735088e-03  -1.040331e-02  0 
 -7.045531e-03  -1.023346e-02  0 
 -7.602121e-03  -7.258794e-03  0 
 -6.086720e-03  -6.730514e-03  0 
 -4.802389e-03  -7.319111e-03  0 
 -8.972477e-03  -8.339999e-03  0 
 -7.074119e-03  -1.007053e-02  0 
 -5.892190e-03  -8.179901e-03  0 
 -4.616677e-03  -8.052548e-03  0 
 -7.047230e-03  -9.437615e-03  0 
 -5.883042e-03  -8.631116e-03  0 
 -6.272790e-03  -9.723886e-03  0 
 -7.454666e-03  -8.776102e-03  0 
 -8.019773e-03  -1.033702e-02  0 
 -7.794965e-03  -1.123038e-02  0 
 -7.241814e-03  -9.573674e-03  0 
 -6.069475e-03  -9.818842e-03  0 
 -6.961303e-03  -1.073764e-02  0 
 -5.660562e-03  -1.138174e-02  0 
 -4.754976e-03  -9.954057e-03  0 
 -8.128581e-03  -9.418496e-03  0 
VECTORS displacement_ITER14 FLOAT
 -6.925933e-03  -6.527035e-03  0 
 -3.750911e-03  -6.533845e-03  0 
 -6.827624e-03  -8.549326e-03  0 
 -2.338717e-03  -6.287557e-03  0 
 -4.607665e-03  -6.337874e-03  0 
 -6.203869e-03  -6.652271e-03  0 
 -5.432151e-03  -6.658665e-03  0 
 -4.597069e-03  -6.601377e-03  0 
 -6.977000e-03  -7.441530e-03  0 
 -6.994390e-03  -8.283517e-03  0 
 -3.557550e-03  -7.945151e-03  0 
 -5.448022e-03  -7.832682e-03  0 
 -6.311583e-03  -5.740585e-03  0 
 -5.291235e-03  -5.397446e-03  0 
 -4.419292e-03  -5.808361e-03  0 
 -7.228117e-03  -6.453531e-03  0 
 -5.807207e-03  -8.751189e-03  0 
 -4.508776e-03  -6.213855e-03  0 
 -3.757939e-03  -6.400694e-03  0 
 -5.295176e-03  -7.461339e-03  0 
 -4.770746e-03  -7.078555e-03  0 
 -5.147432e-03  -9.028591e-03  0 
 -5.673765e-03  -6.663831e-03  0 
 -6.398967e-03  -7.684601e-03  0 
 -6.259480e-03  -8.263823e-03  0 
 -5.916198e-03  -7.199823e-03  0 
 -5.181653e-03  -7.365154e-03  0 
 -5.738911e-03  -7.949863e-03  0 
 -4.921173e-03  -8.394236e-03  0 
 -4.328316e-03  -7.447477e-03  0 
 -6.463292e-03  -7.083691e-03  0 
VECTORS displacement_ITER15 FLOAT
 -2.726946e-03  -5.615523e-03  0 
 -1.912521e-03  -5.647065e-03  0 
 -2.627774e-03  -6.241304e-03  0 
 -9.168012e-04  -5.361809e-03  0 
 -1.795984e-03  -5.416022e-03  0 
 -2.586859e-03  -5.751557e-03  0 
 -2.404848e-03  -5.766398e-03  0 
 -2.163449e-03  -5.713451e-03  0 
 -2.778812e-03  -5.957786e-03  0 
 -2.798383e-03  -6.222688e-03  0 
 -1.398745e-03  -6.005387e-03  0 
 -2.165948e-03  -6.041541e-03  0 
 -2.969560e-03  -5.452751e-03  0 
 -2.578183e-03  -5.378373e-03  0 
 -2.230246e-03  -5.578972e-03  0 
 -3.242680e-03  -5.571038e-03  0 
 -2.989363e-03  -8.999488e-03  0 
 -1.851794e-03  -5.629339e-03  0 
 -2.100173e-03  -6.170416e-03  0 
 -1.855922e-03  -6.822388e-03  0 
 -2.489209e-03  -7.061505e-03  0 
 -2.817219e-03  -1.010930e-02  0 
 -2.079233e-03  -5.793275e-03  0 
 -2.613573e-03  -6.022658e-03  0 
 -2.584468e-03  -6.196294e-03  0 
 -2.512598e-03  -5.898009e-03  0 
 -2.345511e-03  -5.960983e-03  0 
 -2.468758e-03  -6.112753e-03  0 
 -2.277462e-03  -6.298743e-03  0 
 -2.090028e-03  -5.975291e-03  0 
 -2.620478e-03  -5.831461e-03  0 
VECTORS displacement_ITER16 FLOAT
 -2.348257e-03  -6.685831e-03  0 
 -3.898427e-04  -6.739790e-03  0 
 -2.248335e-03  -6.305144e-03  0 
 -2.525492e-03  -6.417805e-03  0 
 -2.417858e-03  -6.478574e-03  0 
 -1.916583e-03  -6.828482e-03  0 
 -1.447229e-03  -6.849773e-03  0 
 -9.217787e-04  -6.802577e-03  0 
 -2.398899e-03  -7.323089e-03  0 
 -2.417837e-03  -7.878285e-03  0 
 -2.486333e-03  -6.341666e-03  0 
 -2.448845e-03  -6.478837e-03  0 
 -2.222031e-03  -6.336438e-03  0 
 -1.552345e-03  -6.323500e-03  0 
 -9.879571e-04  -6.630052e-03  0 
 -2.656347e-03  -6.321003e-03  0 
 -2.525719e-03  -8.334674e-03  0 
 -2.399737e-03  -6.966089e-03  0 
 -2.437141e-03  -6.680136e-03  0 
 -2.137938e-03  -7.880261e-03  0 
 -2.245027e-03  -7.499726e-03  0 
 -1.935858e-03  -8.901087e-03  0 
 -2.285442e-03  -7.086011e-03  0 
 -2.024798e-03  -7.476893e-03  0 
 -1.941260e-03  -7.852801e-03  0 
 -1.735194e-03  -7.175364e-03  0 
 -1.293384e-03  -7.293140e-03  0 
 -1.624892e-03  -7.653252e-03  0 
 -1.132531e-03  -7.963480e-03  0 
 -7.544237e-04  -7.342783e-03  0 
 -2.060555e-03  -7.080394e-03  0 
VECTORS displacement_ITER17 FLOAT
 -2.052143e-03  -6.803295e-03  0 
 1.309746e-03  -6.860696e-03  0 
 -1.951841e-03  -6.160368e-03  0 
 -2.747083e-03  -6.530942e-03  0 
 -2.382639e-03  -6.594247e-03  0 
 -1.270191e-03  -6.946596e-03  0 
 -4.497965e-04  -6.968326e-03  0 
 4.269221e-04  -6.922166e-03  0 
 -2.102835e-03  -7.791338e-03  0 
 -2.121591e-03  -8.696119e-03  0 
 -2.572608e-03  -6.268073e-03  0 
 -2.325121e-03  -6.431443e-03  0 
 -1.439989e-03  -6.334353e-03  0 
 -4.351947e-04  -6.336873e-03  0 
 3.861277e-04  -6.734993e-03  0 
 -2.150254e-03  -6.327080e-03  0 
 -1.471107e-03  -7.588757e-03  0 
 -2.272967e-03  -7.058810e-03  0 
 -1.915046e-03  -6.054561e-03  0 
 -1.818069e-03  -8.062969e-03  0 
 -1.466481e-03  -6.849994e-03  0 
 -4.563549e-04  -7.448367e-03  0 
 -2.124462e-03  -7.351067e-03  0 
 -1.478534e-03  -8.051887e-03  0 
 -1.329331e-03  -8.672008e-03  0 
 -9.601611e-04  -7.534854e-03  0 
 -1.814689e-04  -7.716190e-03  0 
 -7.698347e-04  -8.332789e-03  0 
 9.337936e-05  -8.796187e-03  0 
 7.102281e-04  -7.807524e-03  0 
 -1.548593e-03  -7.407995e-03  0 
VECTORS displacement_ITER18 FLOAT
 -1.721820e-03  -6.509753e-03  0 
 8.573100e-04  -6.576228e-03  0 
 -1.622837e-03  -5.717129e-03  0 
 -2.709380e-03  -6.231189e-03  0 
 -2.200952e-03  -6.296686e-03  0 
 -1.130678e-03  -6.657179e-03  0 
 -5.058051e-04  -6.682330e-03  0 
 1.731743e-04  -6.637814e-03  0 
 -1.770889e-03  -7.308347e-03  0 
 -1.789370e-03  -8.022018e-03  0 
 -2.459220e-03  -5.863704e-03  0 
 -2.094022e-03  -6.042367e-03  0 
 -1.392059e-03  -6.109560e-03  0 
 -5.858477e-04  -6.138251e-03  0 
 8.504597e-05  -6.493774e-03  0 
 -1.919039e-03  -6.028952e-03  0 
 -1.610995e-03  -8.025369e-03  0 
 -2.166276e-03  -6.805293e-03  0 
 -2.090275e-03  -6.081681e-03  0 
 -1.617211e-03  -7.817032e-03  0 
 -1.657157e-03  -6.937406e-03  0 
 -8.881403e-04  -8.122646e-03  0 
 -1.854033e-03  -7.015699e-03  0 
 -1.282991e-03  -7.510521e-03  0 
 -1.170085e-03  -7.995980e-03  0 
 -8.911709e-04  -7.112910e-03  0 
 -3.010367e-04  -7.260145e-03  0 
 -7.450341e-04  -7.733158e-03  0 
 -9.057160e-05  -8.109659e-03  0 
 3.910986e-04  -7.328491e-03  0 
 -1.334570e-03  -7.002515e-03  0 
VECTORS displacement_ITER19 FLOAT
 -2.149379e-03  -5.818961e-03  0 
 -7.279191e-04  -5.894360e-03  0 
 -2.052166e-03  -5.383723e-03  0 
 -2.406896e-03  -5.530502e-03  0 
 -2.269143e-03  -5.599658e-03  0 
 -1.842709e-03  -5.971338e-03  0 
 -1.507640e-03  -5.999873e-03  0 
 -1.120075e-03  -5.956549e-03  0 
 -2.195527e-03  -6.333744e-03  0 
 -2.212778e-03  -6.760946e-03  0 
 -2.355289e-03  -5.433941e-03  0 
 -2.286935e-03  -5.574537e-03  0 
 -2.185961e-03  -5.461171e-03  0 
 -1.650456e-03  -5.438631e-03  0 
 -1.183764e-03  -5.720527e-03  0 
 -2.501723e-03  -5.431964e-03  0 
 -2.436123e-03  -7.493691e-03  0 
 -2.238461e-03  -6.081199e-03  0 
 -2.288088e-03  -5.852437e-03  0 
 -1.979971e-03  -6.902300e-03  0 
 -2.117751e-03  -6.608425e-03  0 
 -1.873028e-03  -8.022768e-03  0 
 -2.102902e-03  -6.168130e-03  0 
 -1.911612e-03  -6.449437e-03  0 
 -1.852157e-03  -6.734268e-03  0 
 -1.708262e-03  -6.229826e-03  0 
 -1.397057e-03  -6.326404e-03  0 
 -1.627522e-03  -6.586650e-03  0 
 -1.281269e-03  -6.836468e-03  0 
 -9.983727e-04  -6.360989e-03  0 
 -1.935771e-03  -6.144112e-03  0 
VECTORS displacement_ITER20 FLOAT
 -2.251849e-03  -6.059735e-03  0 
 1.578739e-04  -6.139064e-03  0 
 -2.156011e-03  -5.796725e-03  0 
 -2.160760e-03  -5.766647e-03  0 
 -2.199791e-03  -5.837907e-03  0 
 -1.696373e-03  -6.213343e-03  0 
 -1.114042e-03  -6.242845e-03  0 
 -4.799720e-04  -6.200610e-03  0 
 -2.296499e-03  -6.822360e-03  0 
 -2.313042e-03  -7.496288e-03  0 
 -2.203656e-03  -5.799998e-03  0 
 -2.277091e-03  -5.922390e-03  0 
 -1.851900e-03  -5.573737e-03  0 
 -1.049780e-03  -5.476944e-03  0 
 -3.897744e-04  -5.794966e-03  0 
 -2.410438e-03  -5.663569e-03  0 
 -2.184256e-03  -7.795172e-03  0 
 -2.201841e-03  -6.263578e-03  0 
 -2.144696e-03  -5.959394e-03  0 
 -1.989647e-03  -7.227866e-03  0 
 -2.032364e-03  -6.670516e-03  0 
 -1.651945e-03  -7.905984e-03  0 
 -2.154997e-03  -6.454008e-03  0 
 -1.835877e-03  -7.013744e-03  0 
 -1.730135e-03  -7.470494e-03  0 
 -1.471147e-03  -6.642233e-03  0 
 -9.230396e-04  -6.783452e-03  0 
 -1.334120e-03  -7.224180e-03  0 
 -7.275018e-04  -7.580715e-03  0 
 -2.772272e-04  -6.847188e-03  0 
 -1.884528e-03  -6.534116e-03  0 
VECTORS displacement_ITER21 FLOAT
 -2.955331e-03  -5.535567e-03  0 
 -4.362959e-04  -5.622235e-03  0 
 -2.861439e-03  -5.667712e-03  0 
 -2.071910e-03  -5.239310e-03  0 
 -2.510527e-03  -5.312462e-03  0 
 -2.368740e-03  -5.689661e-03  0 
 -1.757471e-03  -5.720860e-03  0 
 -1.096754e-03  -5.681415e-03  0 
 -2.998248e-03  -6.326960e-03  0 
 -3.014206e-03  -7.029174e-03  0 
 -2.328025e-03  -5.564594e-03  0 
 -2.722386e-03  -5.645176e-03  0 
 -2.450535e-03  -5.178806e-03  0 
 -1.664582e-03  -5.088592e-03  0 
 -1.026004e-03  -5.375497e-03  0 
 -3.051069e-03  -5.309776e-03  0 
 -2.850324e-03  -6.734187e-03  0 
 -2.502925e-03  -5.693570e-03  0 
 -2.301643e-03  -5.560353e-03  0 
 -2.642276e-03  -6.482428e-03  0 
 -2.423386e-03  -6.074426e-03  0 
 -2.301383e-03  -6.835918e-03  0 
 -2.723210e-03  -5.854378e-03  0 
 -2.516604e-03  -6.527696e-03  0 
 -2.405061e-03  -7.004506e-03  0 
 -2.132486e-03  -6.138817e-03  0 
 -1.556786e-03  -6.285580e-03  0 
 -1.988572e-03  -6.746815e-03  0 
 -1.352351e-03  -7.113862e-03  0 
 -8.851806e-04  -6.352661e-03  0 
 -2.568507e-03  -6.028023e-03  0 
VECTORS displacement_ITER22 FLOAT
 -2.817645e-03  -5.488422e-03  0 
 4.968549e-04  -5.579977e-03  0 
 -2.725661e-03  -5.688461e-03  0 
 -1.793382e-03  -5.186418e-03  0 
 -2.306109e-03  -5.262465e-03  0 
 -2.028506e-03  -5.643600e-03  0 
 -1.217436e-03  -5.676318e-03  0 
 -3.590643e-04  -5.638650e-03  0 
 -2.859163e-03  -6.481216e-03  0 
 -2.875028e-03  -7.383991e-03  0 
 -2.090166e-03  -5.566237e-03  0 
 -2.541819e-03  -5.639001e-03  0 
 -1.912484e-03  -5.080638e-03  0 
 -9.501876e-04  -4.952072e-03  0 
 -1.897167e-04  -5.248863e-03  0 
 -2.687512e-03  -5.277820e-03  0 
 -2.747764e-03  -7.216416e-03  0 
 -2.306904e-03  -5.858922e-03  0 
 -2.228778e-03  -5.982622e-03  0 
 -2.504425e-03  -6.779116e-03  0 
 -2.360825e-03  -6.511944e-03  0 
 -2.286777e-03  -7.360448e-03  0 
 -2.554779e-03  -5.949608e-03  0 
 -2.233961e-03  -6.742977e-03  0 
 -2.085155e-03  -7.359165e-03  0 
 -1.718721e-03  -6.230753e-03  0 
 -9.518974e-04  -6.413308e-03  0 
 -1.529460e-03  -7.020554e-03  0 
 -6.836317e-04  -7.471839e-03  0 
 -8.279932e-05  -6.503444e-03  0 
 -2.305639e-03  -6.102111e-03  0 
VECTORS displacement_ITER23 FLOAT
 -1.632633e-03  -4.744866e-03  0 
 5.110266e-04  -4.847593e-03  0 
 -1.543539e-03  -4.327309e-03  0 
 -1.848136e-03  -4.438364e-03  0 
 -1.742078e-03  -4.516870e-03  0 
 -1.128834e-03  -4.903103e-03  0 
 -6.093747e-04  -4.940114e-03  0 
 -4.652245e-05  -4.905463e-03  0 
 -1.672651e-03  -5.452059e-03  0 
 -1.688672e-03  -6.068122e-03  0 
 -1.817128e-03  -4.367528e-03  0 
 -1.766627e-03  -4.504389e-03  0 
 -1.029931e-03  -4.758340e-03  0 
 -4.240231e-04  -4.766320e-03  0 
 2.477598e-05  -4.903105e-03  0 
 -1.477873e-03  -4.651646e-03  0 
 -2.290222e-03  -6.680998e-03  0 
 -1.852567e-03  -5.223561e-03  0 
 -2.201319e-03  -5.532804e-03  0 
 -1.806235e-03  -5.961445e-03  0 
 -2.114392e-03  -6.027650e-03  0 
 -2.148451e-03  -7.022953e-03  0 
 -1.698774e-03  -5.162394e-03  0 
 -1.251766e-03  -5.626008e-03  0 
 -1.157278e-03  -6.040950e-03  0 
 -9.246561e-04  -5.291812e-03  0 
 -4.387060e-04  -5.422791e-03  0 
 -8.015597e-04  -5.816062e-03  0 
 -2.668165e-04  -6.135897e-03  0 
 1.320175e-04  -5.478279e-03  0 
 -1.295471e-03  -5.188760e-03  0 
VECTORS displacement_ITER24 FLOAT
 -1.788556e-03  -5.110560e-03  0 
 7.109872e-04  -5.220074e-03  0 
 -1.701377e-03  -4.191787e-03  0 
 -3.001894e-03  -4.798397e-03  0 
 -2.401363e-03  -4.880582e-03  0 
 -1.191271e-03  -5.270293e-03  0 
 -5.822474e-04  -5.309927e-03  0 
 6.769092e-05  -5.277555e-03  0 
 -1.826837e-03  -5.909818e-03  0 
 -1.842156e-03  -6.616477e-03  0 
 -2.709886e-03  -4.367747e-03  0 
 -2.254961e-03  -4.553515e-03  0 
 -9.530723e-04  -4.999763e-03  0 
 -2.665639e-04  -4.985472e-03  0 
 2.347012e-04  -5.128541e-03  0 
 -1.436843e-03  -4.861343e-03  0 
 -2.240034e-03  -6.225562e-03  0 
 -2.413778e-03  -5.673502e-03  0 
 -2.547868e-03  -5.412269e-03  0 
 -2.148537e-03  -6.327467e-03  0 
 -2.131758e-03  -5.915805e-03  0 
 -1.659712e-03  -6.254506e-03  0 
 -2.095260e-03  -5.634962e-03  0 
 -1.340257e-03  -6.111714e-03  0 
 -1.228666e-03  -6.589644e-03  0 
 -9.536127e-04  -5.721908e-03  0 
 -3.824196e-04  -5.869568e-03  0 
 -8.099388e-04  -6.327889e-03  0 
 -1.824833e-04  -6.683999e-03  0 
 2.745386e-04  -5.935625e-03  0 
 -1.393226e-03  -5.610547e-03  0 
VECTORS displacement_ITER25 FLOAT
 -1.761267e-03  -4.575625e-03  0 
 -1.523400e-04  -4.687564e-03  0 
 -1.676786e-03  -3.635850e-03  0 
 -3.025423e-03  -4.264778e-03  0 
 -2.400695e-03  -4.347543e-03  0 
 -1.381917e-03  -4.734812e-03  0 
 -9.943852e-04  -4.775957e-03  0 
 -5.689372e-04  -4.745269e-03  0 
 -1.798137e-03  -5.154305e-03  0 
 -1.813454e-03  -5.641130e-03  0 
 -2.720922e-03  -3.817151e-03  0 
 -2.244734e-03  -4.003659e-03  0 
 -1.186077e-03  -4.468808e-03  0 
 -7.381268e-04  -4.438319e-03  0 
 -4.147382e-04  -4.528709e-03  0 
 -1.468996e-03  -4.322485e-03  0 
 -2.484484e-03  -6.016549e-03  0 
 -2.394045e-03  -5.160834e-03  0 
 -2.653647e-03  -5.073809e-03  0 
 -2.077507e-03  -5.799533e-03  0 
 -2.247729e-03  -5.625003e-03  0 
 -1.879970e-03  -6.447438e-03  0 
 -2.025587e-03  -5.055888e-03  0 
 -1.468297e-03  -5.289069e-03  0 
 -1.397882e-03  -5.613195e-03  0 
 -1.224958e-03  -5.034853e-03  0 
 -8.667553e-04  -5.142442e-03  0 
 -1.131632e-03  -5.438656e-03  0 
 -7.395895e-04  -5.694714e-03  0 
 -4.365058e-04  -5.182000e-03  0 
 -1.500010e-03  -4.943888e-03  0 
VECTORS displacement_ITER26 FLOAT
 -1.570119e-03  -4.222964e-03  0 
 4.594095e-04  -4.332061e-03  0 
 -1.487569e-03  -3.755892e-03  0 
 -1.898159e-03  -3.915631e-03  0 
 -1.741891e-03  -3.997885e-03  0 
 -1.085428e-03  -4.379881e-03  0 
 -5.923082e-04  -4.420117e-03  0 
 -6.196011e-05  -4.389857e-03  0 
 -1.605972e-03  -4.903711e-03  0 
 -1.620882e-03  -5.493687e-03  0 
 -1.842328e-03  -3.810317e-03  0 
 -1.744583e-03  -3.947197e-03  0 
 -8.214588e-04  -3.946409e-03  0 
 -2.425384e-04  -3.820869e-03  0 
 1.913341e-04  -3.951050e-03  0 
 -1.247582e-03  -3.982931e-03  0 
 -2.091784e-03  -5.842966e-03  0 
 -1.738361e-03  -4.761419e-03  0 
 -1.962029e-03  -4.914302e-03  0 
 -1.639381e-03  -5.494762e-03  0 
 -1.764285e-03  -5.416476e-03  0 
 -1.536390e-03  -6.325133e-03  0 
 -1.607744e-03  -4.689042e-03  0 
 -1.202121e-03  -5.070415e-03  0 
 -1.111826e-03  -5.467040e-03  0 
 -8.900964e-04  -4.751845e-03  0 
 -4.303770e-04  -4.877784e-03  0 
 -7.727525e-04  -5.251131e-03  0 
 -2.689029e-04  -5.551690e-03  0 
 1.048902e-04  -4.929884e-03  0 
 -1.244306e-03  -4.652221e-03  0 
VECTORS displacement_ITER27 FLOAT
 -1.925696e-03  -3.859840e-03  0 
 5.129273e-04  -3.971984e-03  0 
 -1.844924e-03  -3.585653e-03  0 
 -1.873576e-03  -3.554065e-03  0 
 -1.908483e-03  -3.636380e-03  0 
 -1.336914e-03  -4.016273e-03  0 