# vtk DataFile Version 3.1
this is an vtk file created by FEMAC
ASCII
DATASET UNSTRUCTURED_GRID
POINTS 32 FLOAT
0.000000 2.000000 0.000000
0.000000 3.000000 0.000000
1.000000 3.000000 0.000000
0.250000 2.000000 0.000000
0.500000 2.000000 0.000000
0.750000 2.000000 0.000000
0.250000 3.000000 0.000000
0.500000 3.000000 0.000000
0.750000 3.000000 0.000000
0.000000 2.250000 0.000000
0.000000 2.500000 0.000000
0.000000 2.750000 0.000000
0.000000 3.250000 0.000000
0.000000 3.500000 0.000000
0.272476 2.537430 0.000000
0.660302 2.785301 0.000000
0.660045 2.212404 0.000000
0.162952 2.171693 0.000000
0.594871 2.497465 0.000000
0.400442 2.782533 0.000000
0.372389 2.253823 0.000000
0.165804 2.339408 0.000000
0.847252 2.832715 0.000000
0.153820 2.761660 0.000000
0.272476 3.537430 0.000000
0.660045 3.212404 0.000000
0.162952 3.171693 0.000000
0.825570 3.361866 0.000000
0.594871 3.497465 0.000000
0.372389 3.253823 0.000000
0.165804 3.339408 0.000000
0.847123 3.164854 0.000000
CELLS 43 172 
3 7 15  8
3 16  4  5
3 3 17  0
3 17  9  0
3 19 15  7
3 16 20  4
3 18 19 14
3 18 15 19
3 20 18 14
3 16 18 20
3 20  3  4
3 17  3 20
3 6 19  7
3 17 21  9
3 8 22  2
3 22  8 15
3 21 20 14
3 17 20 21
3 21 10  9
3 10 21 14
3 23  6  1
3 11 23  1
3 10 23 11
3 19 23 14
3 23 19  6
3 10 14 23
3 25  7  8
3 6 26  1
3 26 12  1
3 28 25 27
3 25 29  7
3 29 28 24
3 25 28 29
3 29  6  7
3 26  6 29
3 26 30 12
3 31  8  2
3 8 31 25
3 30 29 24
3 26 29 30
3 27 25 31
3 30 13 12
3 13 30 24
CELL_TYPES 43
5 5 5 5 5 5 5 5 5 5 5 5 5 5 5 5 5 5 5 5 5 5 5 5 5 5 5 5 5 5 5 5 5 5 5 5 5 5 5 5 5 5 5 
POINT_DATA 32
VECTORS displacement_ITER1 FLOAT
 0  0  0 
 0  0  0 
 2.333742e-04  -5.881740e-04  0 
 -3.129359e-05  -4.427808e-05  0 
 -4.603826e-05  -7.630500e-05  0 
 -6.518786e-05  -1.454203e-04  0 
 5.261253e-05  -4.856774e-05  0 
 1.111097e-04  -1.281977e-04  0 
 1.904861e-04  -2.950540e-04  0 
 0  0  0 
 0  0  0 
 0  0  0 
 0  0  0 
 0  0  0 
 -4.033754e-06  -2.885499e-05  0 
 2.974670e-05  -1.647881e-04  0 
 -1.712545e-05  -9.573953e-05  0 
 -6.972769e-06  -1.611648e-05  0 
 -7.900145e-06  -8.509373e-05  0 
 1.729096e-05  -6.184775e-05  0 
 -1.200987e-05  -4.803990e-05  0 
 -3.880371e-06  -1.712978e-05  0 
 5.837757e-05  -3.727605e-04  0 
 4.466059e-06  -7.765855e-06  0 
 3.950702e-03  -2.996644e-03  0 
 1.965238e-03  -4.100866e-03  0 
 2.398985e-04  9.616048e-05  0 
 9.424512e-03  -1.594912e-02  0 
 7.827211e-03  -7.570643e-03  0 
 8.302047e-04  -6.117303e-04  0 
 4.660923e-04  1.262690e-04  0 
 3.784612e-03  -7.869659e-03  0 
VECTORS displacement_ITER2 FLOAT
 0  0  0 
 0  0  0 
 1.890097e-04  -4.971450e-04  0 
 -4.069395e-05  -4.755567e-05  0 
 -6.779267e-05  -8.709165e-05  0 
 -1.066078e-04  -1.786259e-04  0 
 4.212348e-05  -3.827621e-05  0 
 8.888126e-05  -1.022122e-04  0 
 1.534121e-04  -2.416816e-04  0 
 0  0  0 
 0  0  0 
 0  0  0 
 0  0  0 
 0  0  0 
 -4.341824e-06  -2.396155e-05  0 
 1.909405e-05  -1.349093e-04  0 
 -3.409575e-05  -1.023313e-04  0 
 -9.113979e-06  -1.367320e-05  0 
 -1.062763e-05  -7.530429e-05  0 
 1.249472e-05  -5.019718e-05  0 
 -1.698571e-05  -4.395828e-05  0 
 -5.340665e-06  -1.377894e-05  0 
 4.037115e-05  -3.083531e-04  0 
 3.256415e-06  -6.083465e-06  0 
 3.595123e-03  -2.750363e-03  0 
 2.150137e-03  -3.361507e-03  0 
 2.727942e-04  1.231832e-04  0 
 8.989374e-03  -1.351239e-02  0 
 7.170610e-03  -6.702367e-03  0 
 9.180215e-04  -5.037282e-04  0 
 4.691973e-04  9.628670e-05  0 
 3.725788e-03  -6.667658e-03  0 
VECTORS displacement_ITER3 FLOAT
 0  0  0 
 0  0  0 
 1.982182e-04  -5.102466e-04  0 
 -5.007466e-05  -5.238709e-05  0 
 -8.634133e-05  -1.006051e-04  0 
 -1.405592e-04  -2.173326e-04  0 
 4.353168e-05  -3.819026e-05  0 
 9.245916e-05  -1.017882e-04  0 
 1.598519e-04  -2.449782e-04  0 
 0  0  0 
 0  0  0 
 0  0  0 
 0  0  0 
 0  0  0 
 -4.424802e-06  -2.308718e-05  0 
 2.029888e-05  -1.352242e-04  0 
 -4.443639e-05  -1.173520e-04  0 
 -1.112426e-05  -1.285843e-05  0 
 -1.249402e-05  -7.777441e-05  0 
 1.388218e-05  -4.912312e-05  0 
 -2.037894e-05  -4.586589e-05  0 
 -6.217310e-06  -1.294786e-05  0 
 4.341273e-05  -3.129669e-04  0 
 3.636027e-06  -5.316854e-06  0 
 3.479630e-03  -2.710850e-03  0 
 2.586134e-03  -2.799131e-03  0 
 3.407853e-04  1.560218e-04  0 
 9.214193e-03  -1.172965e-02  0 
 6.988903e-03  -6.252321e-03  0 
 1.117627e-03  -4.453656e-04  0 
 5.187869e-04  5.458786e-05  0 
 4.022565e-03  -5.812929e-03  0 
VECTORS displacement_ITER4 FLOAT
 0  0  0 
 0  0  0 
 2.008781e-04  -5.092779e-04  0 
 -5.047118e-05  -4.877722e-05  0 
 -8.728118e-05  -9.721364e-05  0 
 -1.431805e-04  -2.198945e-04  0 
 4.493443e-05  -3.955128e-05  0 
 9.510409e-05  -1.030869e-04  0 
 1.628759e-04  -2.449280e-04  0 
 0  0  0 
 0  0  0 
 0  0  0 
 0  0  0 
 0  0  0 
 -3.341527e-06  -2.238849e-05  0 
 2.390824e-05  -1.357457e-04  0 
 -4.143462e-05  -1.162508e-04  0 
 -1.106108e-05  -1.089367e-05  0 
 -9.544575e-06  -7.716653e-05  0 
 1.595876e-05  -4.958715e-05  0 
 -1.898761e-05  -4.352351e-05  0 
 -5.776471e-06  -1.183418e-05  0 
 4.750891e-05  -3.126852e-04  0 
 4.149725e-06  -5.374010e-06  0 
 3.105060e-03  -2.448978e-03  0 
 2.595088e-03  -2.234318e-03  0 
 3.496097e-04  1.567967e-04  0 
 8.523500e-03  -9.671791e-03  0 
 6.263753e-03  -5.441526e-03  0 
 1.130009e-03  -3.772131e-04  0 
 5.006800e-04  2.422125e-05  0 
 3.798680e-03  -4.826390e-03  0 
VECTORS displacement_ITER5 FLOAT
 0  0  0 
 0  0  0 
 1.909404e-04  -4.954323e-04  0 
 -5.445820e-05  -4.707298e-05  0 
 -9.517267e-05  -9.712118e-05  0 
 -1.572112e-04  -2.298287e-04  0 
 4.505319e-05  -4.018811e-05  0 
 9.442367e-05  -1.024920e-04  0 
 1.585095e-04  -2.390353e-04  0 
 0  0  0 
 0  0  0 
 0  0  0 
 0  0  0 
 0  0  0 
 -2.851296e-06  -2.152120e-05  0 
 2.528766e-05  -1.354423e-04  0 
 -4.446801e-05  -1.191033e-04  0 
 -1.218054e-05  -8.821997e-06  0 
 -8.120430e-06  -7.788697e-05  0 
 1.702978e-05  -4.988024e-05  0 
 -2.033097e-05  -4.142696e-05  0 
 -6.300765e-06  -1.030908e-05  0 
 4.709521e-05  -3.070705e-04  0 
 4.315876e-06  -5.422421e-06  0 
 2.215622e-03  -1.793749e-03  0 
 2.265403e-03  -1.224068e-03  0 
 3.163562e-04  1.334388e-04  0 
 6.509571e-03  -5.746746e-03  0 
 4.505943e-03  -3.684706e-03  0 
 9.997603e-04  -2.471434e-04  0 
 4.127308e-04  -2.132015e-05  0 
 2.995770e-03  -2.941359e-03  0 
VECTORS displacement_ITER6 FLOAT
 0  0  0 
 0  0  0 
 1.809071e-04  -4.774525e-04  0 
 -5.782059e-05  -4.735322e-05  0 
 -1.022588e-04  -9.777223e-05  0 
 -1.695666e-04  -2.333478e-04  0 
 4.351396e-05  -3.828888e-05  0 
 9.129892e-05  -9.811312e-05  0 
 1.521650e-04  -2.297035e-04  0 
 0  0  0 
 0  0  0 
 0  0  0 
 0  0  0 
 0  0  0 
 -3.389818e-06  -1.971483e-05  0 
 2.399483e-05  -1.309966e-04  0 
 -5.087855e-05  -1.199860e-04  0 
 -1.339580e-05  -7.812058e-06  0 
 -9.732552e-06  -7.610948e-05  0 
 1.643020e-05  -4.739299e-05  0 
 -2.318508e-05  -3.957480e-05  0 
 -7.282272e-06  -8.906526e-06  0 
 4.444495e-05  -2.971664e-04  0 
 4.037423e-06  -4.627883e-06  0 
 1.484691e-03  -1.240436e-03  0 
 1.885822e-03  -4.701636e-04  0 
 2.730095e-04  1.092191e-04  0 
 4.768571e-03  -2.781101e-03  0 
 3.056286e-03  -2.281130e-03  0 
 8.439908e-04  -1.412268e-04  0 
 3.265193e-04  -4.751532e-05  0 
 2.221594e-03  -1.518815e-03  0 
VECTORS displacement_ITER7 FLOAT
 0  0  0 
 0  0  0 
 1.568454e-04  -4.298046e-04  0 
 -5.596183e-05  -4.395281e-05  0 
 -9.947109e-05  -9.195276e-05  0 
 -1.655277e-04  -2.254806e-04  0 
 4.122480e-05  -3.789460e-05  0 
 8.481488e-05  -9.355505e-05  0 
 1.370301e-04  -2.104481e-04  0 
 0  0  0 
 0  0  0 
 0  0  0 
 0  0  0 
 0  0  0 
 -2.291711e-06  -1.894018e-05  0 
 2.461335e-05  -1.246445e-04  0 
 -4.778666e-05  -1.147341e-04  0 
 -1.284441e-05  -6.460996e-06  0 
 -6.460021e-06  -7.339647e-05  0 
 1.676440e-05  -4.660866e-05  0 
 -2.176356e-05  -3.637814e-05  0 
 -6.874279e-06  -7.850205e-06  0 
 4.169867e-05  -2.735086e-04  0 
 4.071979e-06  -5.183415e-06  0 
 3.589230e-04  -3.719599e-04  0 
 1.138823e-03  5.592229e-04  0 
 1.826376e-04  5.955343e-05  0 
 1.937339e-03  1.375886e-03  0 
 8.101176e-04  -1.888594e-04  0 
 5.310840e-04  1.089548e-05  0 
 1.730402e-04  -7.525882e-05  0 
 8.801533e-04  4.781229e-04  0 
VECTORS displacement_ITER8 FLOAT
 0  0  0 
 0  0  0 
 1.553493e-04  -4.282160e-04  0 
 -5.540389e-05  -4.415056e-05  0 
 -9.854684e-05  -9.004985e-05  0 
 -1.634063e-04  -2.173255e-04  0 
 4.114171e-05  -3.749566e-05  0 
 8.494963e-05  -9.336565e-05  0 
 1.369884e-04  -2.102896e-04  0 
 0  0  0 
 0  0  0 
 0  0  0 
 0  0  0 
 0  0  0 
 -2.771470e-06  -1.831076e-05  0 
 2.469793e-05  -1.246086e-04  0 
 -4.926608e-05  -1.122066e-04  0 
 -1.299693e-05  -6.727023e-06  0 
 -7.555148e-06  -7.249097e-05  0 
 1.658397e-05  -4.595919e-05  0 
 -2.282158e-05  -3.572602e-05  0 
 -7.258275e-06  -7.617487e-06  0 
 4.163531e-05  -2.744545e-04  0 
 3.945594e-06  -4.782420e-06  0 
 -1.073339e-04  -7.511766e-06  0 
 7.470300e-04  8.866104e-04  0 
 1.322153e-04  3.091427e-05  0 
 6.535290e-04  2.848134e-03  0 
 -1.331326e-04  6.314846e-04  0 
 3.644564e-04  5.915899e-05  0 
 9.936813e-05  -8.299431e-05  0 
 2.761348e-04  1.180683e-03  0 
VECTORS displacement_ITER9 FLOAT
 0  0  0 
 0  0  0 
 1.455841e-04  -4.064044e-04  0 
 -5.152882e-05  -4.215471e-05  0 
 -9.185455e-05  -8.379401e-05  0 
 -1.520043e-04  -2.009818e-04  0 
 4.029242e-05  -3.745434e-05  0 
 8.258580e-05  -9.182238e-05  0 
 1.311571e-04  -2.020921e-04  0 
 0  0  0 
 0  0  0 
 0  0  0 
 0  0  0 
 0  0  0 
 -2.202678e-06  -1.779868e-05  0 
 2.584204e-05  -1.217942e-04  0 
 -4.543982e-05  -1.045949e-04  0 
 -1.202136e-05  -6.691083e-06  0 
 -5.550189e-06  -6.989259e-05  0 
 1.691813e-05  -4.551801e-05  0 
 -2.143993e-05  -3.354666e-05  0 
 -6.836665e-06  -7.303493e-06  0 
 4.133116e-05  -2.645020e-04  0 
 3.994615e-06  -4.983788e-06  0 
 -7.611194e-04  5.042051e-04  0 
 2.266366e-04  1.392849e-03  0 
 6.669294e-05  -5.298741e-06  0 
 -1.095052e-03  5.015241e-03  0 
 -1.448277e-03  1.805009e-03  0 
 1.443165e-04  1.365333e-04  0 
 -3.260724e-07  -9.373646e-05  0 
 -5.627264e-04  2.218997e-03  0 
VECTORS displacement_ITER10 FLOAT
 0  0  0 
 0  0  0 
 1.331954e-04  -3.853684e-04  0 
 -4.767171e-05  -4.119289e-05  0 
 -8.496257e-05  -7.831142e-05  0 
 -1.397703e-04  -1.823676e-04  0 
 3.788482e-05  -3.554877e-05  0 
 7.747020e-05  -8.774226e-05  0 
 1.223570e-04  -1.921457e-04  0 
 0  0  0 
 0  0  0 
 0  0  0 
 0  0  0 
 0  0  0 
 -2.564365e-06  -1.726822e-05  0 
 2.352704e-05  -1.168560e-04  0 
 -4.316566e-05  -9.685952e-05  0 
 -1.123013e-05  -7.296066e-06  0 
 -6.051604e-06  -6.657935e-05  0 
 1.529246e-05  -4.372463e-05  0 
 -2.085746e-05  -3.215778e-05  0 
 -6.721067e-06  -7.384369e-06  0 
 3.694048e-05  -2.532276e-04  0 
 3.548641e-06  -4.852926e-06  0 
 -1.163405e-03  8.389166e-04  0 
 -2.686778e-04  1.553651e-03  0 
 2.985853e-08  -3.849443e-05  0 
 -2.342066e-03  5.890140e-03  0 
 -2.271571e-03  2.451938e-03  0 
 -6.993205e-05  1.737921e-04  0 
 -8.390494e-05  -8.524144e-05  0 
 -1.230228e-03  2.637537e-03  0 
VECTORS displacement_ITER11 FLOAT
 0  0  0 
 0  0  0 
 1.145365e-04  -3.513429e-04  0 
 -4.510151e-05  -4.064720e-05  0 
 -8.096321e-05  -7.525115e-05  0 
 -1.334814e-04  -1.721212e-04  0 
 3.393411e-05  -3.245035e-05  0 
 6.882787e-05  -8.006249e-05  0 
 1.077866e-04  -1.743145e-04  0 
 0  0  0 
 0  0  0 
 0  0  0 
 0  0  0 
 0  0  0 
 -2.659734e-06  -1.654739e-05  0 
 1.953838e-05  -1.076205e-04  0 
 -4.191302e-05  -9.124213e-05  0 
 -1.052755e-05  -7.534899e-06  0 
 -6.193748e-06  -6.241944e-05  0 
 1.301846e-05  -4.076097e-05  0 
 -2.015096e-05  -3.068177e-05  0 
 -6.517433e-06  -7.248400e-06  0 
 2.964609e-05  -2.319506e-04  0 
 2.993326e-06  -4.803211e-06  0 
 -1.392331e-03  1.034117e-03  0 
 -5.731181e-04  1.625820e-03  0 
 -4.178565e-05  -5.680226e-05  0 
 -3.076654e-03  6.318413e-03  0 
 -2.740445e-03  2.811997e-03  0 
 -2.026019e-04  1.971345e-04  0 
 -1.346056e-04  -7.674017e-05  0 
 -1.616500e-03  2.850336e-03  0 
VECTORS displacement_ITER12 FLOAT
 0  0  0 
 0  0  0 
 9.574636e-05  -3.144321e-04  0 
 -4.352340e-05  -4.022899e-05  0 
 -7.927756e-05  -7.288299e-05  0 
 -1.317333e-04  -1.640335e-04  0 
 2.867229e-05  -2.741548e-05  0 
 5.803492e-05  -6.871035e-05  0 
 9.122073e-05  -1.520655e-04  0 
 0  0  0 
 0  0  0 
 0  0  0 
 0  0  0 
 0  0  0 
 -3.067035e-06  -1.489048e-05  0 
 1.358352e-05  -9.419434e-05  0 
 -4.279435e-05  -8.547259e-05  0 
 -1.011598e-05  -7.419260e-06  0 
 -7.409256e-06  -5.627344e-05  0 
 9.759655e-06  -3.558570e-05  0 
 -2.015753e-05  -2.848798e-05  0 
 -6.539969e-06  -6.628290e-06  0 
 2.009878e-05  -2.053721e-04  0 
 2.196295e-06  -4.192807e-06  0 
 -1.328056e-03  1.000153e-03  0 
 -6.286542e-04  1.479604e-03  0 
 -5.230844e-05  -5.612473e-05  0 
 -3.020132e-03  5.800389e-03  0 
 -2.617523e-03  2.654112e-03  0 
 -2.296886e-04  1.889689e-04  0 
 -1.386353e-04  -6.338210e-05  0 
 -1.597981e-03  2.614649e-03  0 
VECTORS displacement_ITER13 FLOAT
 0  0  0 
 0  0  0 
 7.583266e-05  -2.706013e-04  0 
 -3.953425e-05  -3.657658e-05  0 
 -7.261237e-05  -6.532960e-05  0 
 -1.211131e-04  -1.466331e-04  0 
 2.329630e-05  -2.260037e-05  0 
 4.677859e-05  -5.729500e-05  0 
 7.354067e-05  -1.279791e-04  0 
 0  0  0 
 0  0  0 
 0  0  0 
 0  0  0 
 0  0  0 
 -3.058558e-06  -1.318529e-05  0 
 8.333497e-06  -8.004737e-05  0 
 -3.909998e-05  -7.532707e-05  0 
 -9.127052e-06  -6.589940e-06  0 
 -7.188265e-06  -4.908476e-05  0 
 6.764804e-06  -3.054910e-05  0 
 -1.840992e-05  -2.494817e-05  0 
 -6.055487e-06  -5.819640e-06  0 
 1.145295e-05  -1.752933e-04  0 
 1.473416e-06  -3.773165e-06  0 
 -1.100943e-03  8.434128e-04  0 
 -5.865770e-04  1.183242e-03  0 
 -5.087083e-05  -4.810090e-05  0 
 -2.557530e-03  4.662686e-03  0 
 -2.168495e-03  2.194381e-03  0 
 -2.157402e-04  1.613313e-04  0 
 -1.217053e-04  -4.412586e-05  0 
 -1.398448e-03  2.083753e-03  0 
VECTORS displacement_ITER14 FLOAT
 0  0  0 
 0  0  0 
 6.158380e-05  -2.405938e-04  0 
 -3.846011e-05  -3.527750e-05  0 
 -7.092456e-05  -6.321951e-05  0 
 -1.187340e-04  -1.421009e-04  0 
 2.008134e-05  -1.993842e-05  0 
 3.978206e-05  -5.055290e-05  0 
 6.186122e-05  -1.128233e-04  0 
 0  0  0 
 0  0  0 
 0  0  0 
 0  0  0 
 0  0  0 
 -3.044577e-06  -1.238832e-05  0 
 5.216566e-06  -7.190115e-05  0 
 -3.843110e-05  -7.220257e-05  0 
 -8.834493e-06  -6.155322e-06  0 
 -7.278836e-06  -4.577503e-05  0 
 5.101273e-06  -2.784012e-05  0 
 -1.784178e-05  -2.357639e-05  0 
 -5.886723e-06  -5.415155e-06  0 
 6.176796e-06  -1.563856e-04  0 
 1.077612e-06  -3.644713e-06  0 
 -1.048954e-03  8.083856e-04  0 
 -5.769031e-04  1.107799e-03  0 
 -5.116114e-05  -4.501250e-05  0 
 -2.464082e-03  4.382359e-03  0 
 -2.066041e-03  2.088303e-03  0 
 -2.130314e-04  1.559163e-04  0 
 -1.179975e-04  -3.890980e-05  0 
 -1.331701e-03  1.960957e-03  0 
VECTORS displacement_ITER15 FLOAT
 0  0  0 
 0  0  0 
 4.860741e-05  -2.052626e-04  0 
 -3.747812e-05  -3.357808e-05  0 
 -6.967337e-05  -6.125643e-05  0 
 -1.178631e-04  -1.392190e-04  0 
 1.638258e-05  -1.658867e-05  0 
 3.198657e-05  -4.201238e-05  0 
 4.960687e-05  -9.466685e-05  0 
 0  0  0 
 0  0  0 
 0  0  0 
 0  0  0 
 0  0  0 
 -2.802340e-06  -1.104231e-05  0 
 2.103716e-06  -6.104719e-05  0 
 -3.786474e-05  -6.863990e-05  0 
 -8.461985e-06  -5.353179e-06  0 
 -7.001042e-06  -4.104532e-05  0 
 3.484000e-06  -2.401542e-05  0 
 -1.700253e-05  -2.157067e-05  0 
 -5.583418e-06  -4.672504e-06  0 
 1.359596e-06  -1.326510e-04  0 
 7.177197e-07  -3.321073e-06  0 
 -7.500309e-04  5.833699e-04  0 
 -3.824280e-04  8.316958e-04  0 
 -2.826284e-05  -2.792135e-05  0 
 -1.723868e-03  3.249381e-03  0 
 -1.466640e-03  1.538428e-03  0 
 -1.319782e-04  1.229853e-04  0 
 -7.793404e-05  -2.759875e-05  0 
 -9.523579e-04  1.432674e-03  0 
VECTORS displacement_ITER16 FLOAT
 0  0  0 
 0  0  0 
 4.068039e-05  -1.868930e-04  0 
 -3.699934e-05  -3.289327e-05  0 
 -6.870596e-05  -6.060792e-05  0 
 -1.167711e-04  -1.378409e-04  0 
 1.435462e-05  -1.495040e-05  0 
 2.760103e-05  -3.801915e-05  0 
 4.261649e-05  -8.596962e-05  0 
 0  0  0 
 0  0  0 
 0  0  0 
 0  0  0 
 0  0  0 
 -2.837203e-06  -1.068129e-05  0 
 -1.173303e-08  -5.614158e-05  0 
 -3.777369e-05  -6.738019e-05  0 
 -8.340102e-06  -5.140094e-06  0 
 -7.213098e-06  -3.919333e-05  0 
 2.342864e-06  -2.243748e-05  0 
 -1.669744e-05  -2.104418e-05  0 
 -5.488732e-06  -4.517412e-06  0 
 -1.788223e-06  -1.212425e-04  0 
 4.492674e-07  -3.284247e-06  0 
 -5.217060e-04  4.153845e-04  0 
 -3.031327e-04  5.442900e-04  0 
 -2.147817e-05  -2.185240e-05  0 
 -1.244500e-03  2.183617e-03  0 
 -1.019009e-03  1.080397e-03  0 
 -1.013818e-04  8.641226e-05  0 
 -5.598901e-05  -1.572195e-05  0 
 -7.089976e-04  9.314690e-04  0 
VECTORS displacement_ITER17 FLOAT
 0  0  0 
 0  0  0 
 3.457797e-05  -1.705737e-04  0 
 -3.595351e-05  -3.188788e-05  0 
 -6.694654e-05  -5.894656e-05  0 
 -1.147575e-04  -1.341018e-04  0 
 1.224331e-05  -1.288487e-05  0 
 2.335257e-05  -3.341563e-05  0 
 3.640335e-05  -7.711345e-05  0 
 0  0  0 
 0  0  0 
 0  0  0 
 0  0  0 
 0  0  0 
 -2.935495e-06  -9.924991e-06  0 
 -2.167699e-06  -5.040919e-05  0 
 -3.766542e-05  -6.464632e-05  0 
 -8.131947e-06  -4.896881e-06  0 
 -7.566907e-06  -3.640439e-05  0 
 1.125034e-06  -2.021534e-05  0 
 -1.642351e-05  -1.998808e-05  0 
 -5.405202e-06  -4.198065e-06  0 
 -4.772839e-06  -1.096178e-04  0 
 1.570841e-07  -3.009515e-06  0 
 -2.210858e-04  1.895037e-04  0 
 -1.479553e-04  2.196357e-04  0 
 -4.730434e-06  -1.002798e-05  0 
 -5.505290e-04  9.292593e-04  0 
 -4.235766e-04  5.015695e-04  0 
 -3.826772e-05  4.375352e-05  0 
 -2.075408e-05  -3.664440e-06  0 
 -3.593786e-04  3.403675e-04  0 
VECTORS displacement_ITER18 FLOAT
 0  0  0 
 0  0  0 
 2.493519e-05  -1.472720e-04  0 
 -3.356632e-05  -2.938133e-05  0 
 -6.293716e-05  -5.426827e-05  0 
 -1.091339e-04  -1.243690e-04  0 
 9.274549e-06  -9.944171e-06  0 
 1.736352e-05  -2.670255e-05  0 
 2.734366e-05  -6.377178e-05  0 
 0  0  0 
 0  0  0 
 0  0  0 
 0  0  0 
 0  0  0 
 -2.972344e-06  -8.667049e-06  0 
 -4.980213e-06  -4.205647e-05  0 
 -3.600767e-05  -5.870887e-05  0 
 -7.636099e-06  -4.293866e-06  0 
 -7.612350e-06  -3.189188e-05  0 
 -4.992291e-07  -1.695798e-05  0 
 -1.557621e-05  -1.771679e-05  0 
 -5.171158e-06  -3.576813e-06  0 
 -9.180980e-06  -9.285563e-05  0 
 -2.382042e-07  -2.585963e-06  0 
 -1.035741e-06  2.362188e-05  0 
 -8.808796e-06  1.204693e-05  0 
 1.118234e-05  2.230207e-06  0 
 -9.963776e-06  8.346337e-05  0 
 1.685960e-05  9.238317e-05  0 
 1.907948e-05  1.856646e-05  0 
 8.019981e-06  4.824923e-06  0 
 -8.303639e-05  -5.313996e-05  0 
VECTORS displacement_ITER19 FLOAT
 0  0  0 
 0  0  0 
 1.114056e-05  -1.174059e-04  0 
 -3.088144e-05  -2.658278e-05  0 
 -5.869791e-05  -4.894716e-05  0 
 -1.035476e-04  -1.136487e-04  0 
 5.310603e-06  -6.053671e-06  0 
 9.280045e-06  -1.773483e-05  0 
 1.491811e-05  -4.594145e-05  0 
 0  0  0 
 0  0  0 
 0  0  0 
 0  0  0 
 0  0  0 
 -3.043869e-06  -7.126402e-06  0 
 -9.005884e-06  -3.117158e-05  0 
 -3.424466e-05  -5.181723e-05  0 
 -7.056029e-06  -3.577880e-06  0 
 -7.760207e-06  -2.632860e-05  0 
 -2.738004e-06  -1.276483e-05  0 
 -1.462598e-05  -1.496338e-05  0 
 -4.914335e-06  -2.816907e-06  0 
 -1.574632e-05  -7.109108e-05  0 
 -7.767775e-07  -2.071378e-06  0 
 1.934041e-04  -1.251785e-04  0 
 1.525093e-04  -1.324425e-04  0 
 3.072829e-05  1.734006e-05  0 
 5.105215e-04  -5.611641e-04  0 
 4.112227e-04  -2.501770e-04  0 
 8.657734e-05  2.516066e-06  0 
 3.804948e-05  1.072766e-05  0 
 1.949906e-04  -3.470148e-04  0 
VECTORS displacement_ITER20 FLOAT
 0  0  0 
 0  0  0 
 6.226741e-06  -1.088168e-04  0 
 -3.004061e-05  -2.584482e-05  0 
 -5.747293e-05  -4.747976e-05  0 
 -1.022971e-04  -1.111119e-04  0 
 3.933311e-06  -4.714325e-06  0 
 6.425552e-06  -1.471390e-05  0 
 1.054152e-05  -4.019361e-05  0 
 0  0  0 
 0  0  0 
 0  0  0 
 0  0  0 
 0  0  0 
 -3.110441e-06  -6.787706e-06  0 
 -1.078105e-05  -2.776645e-05  0 
 -3.363353e-05  -4.998612e-05  0 
 -6.871084e-06  -3.441325e-06  0 
 -7.901422e-06  -2.485363e-05  0 
 -3.659790e-06  -1.150668e-05  0 
 -1.432512e-05  -1.427746e-05  0 
 -4.841126e-06  -2.676496e-06  0 
 -1.863410e-05  -6.435144e-05  0 
 -9.881644e-07  -1.953340e-06  0 
 3.514604e-04  -2.521986e-04  0 
 3.202059e-04  -2.245128e-04  0 
 5.232263e-05  3.024142e-05  0 
 9.639503e-04  -9.918158e-04  0 
 7.327906e-04  -5.156790e-04  0 
 1.582864e-04  -1.207708e-05  0 
 6.735391e-05  1.082053e-05  0 
 4.519887e-04  -5.455647e-04  0 
VECTORS displacement_ITER21 FLOAT
 0  0  0 
 0  0  0 
 5.299246e-06  -1.095382e-04  0 
 -3.082366e-05  -2.654651e-05  0 
 -5.916230e-05  -4.885186e-05  0 
 -1.056596e-04  -1.147386e-04  0 
 3.701800e-06  -4.427627e-06  0 
 5.930020e-06  -1.422598e-05  0 
 9.801450e-06  -3.984118e-05  0 
 0  0  0 
 0  0  0 
 0  0  0 
 0  0  0 
 0  0  0 
 -3.265651e-06  -6.883253e-06  0 
 -1.160802e-05  -2.764581e-05  0 
 -3.476470e-05  -5.151203e-05  0 
 -7.075144e-06  -3.555376e-06  0 
 -8.383165e-06  -2.534978e-05  0 
 -3.998228e-06  -1.142248e-05  0 
 -1.478588e-05  -1.466627e-05  0 
 -4.993031e-06  -2.739694e-06  0 
 -1.980916e-05  -6.431473e-05  0 
 -1.064813e-06  -1.933187e-06  0 
 4.612537e-04  -3.439698e-04  0 
 4.663137e-04  -2.624478e-04  0 
 7.193635e-05  4.078238e-05  0 
 1.308869e-03  -1.210089e-03  0 
 9.585514e-04  -6.870640e-04  0 
 2.216635e-04  -2.080590e-05  0 
 9.156606e-05  8.111761e-06  0 
 6.527379e-04  -6.464290e-04  0 
VECTORS displacement_ITER22 FLOAT
 0  0  0 
 0  0  0 
 6.139956e-06  -1.144657e-04  0 
 -3.246663e-05  -2.760202e-05  0 
 -6.239326e-05  -5.100267e-05  0 
 -1.113123e-04  -1.200581e-04  0 
 4.009940e-06  -4.551807e-06  0 
 6.617063e-06  -1.488767e-05  0 
 1.086631e-05  -4.206595e-05  0 
 0  0  0 
 0  0  0 
 0  0  0 
 0  0  0 
 0  0  0 
 -3.544027e-06  -6.987071e-06  0 
 -1.193329e-05  -2.904136e-05  0 
 -3.698102e-05  -5.412780e-05  0 
 -7.558162e-06  -3.624851e-06  0 
 -9.183630e-06  -2.653656e-05  0 
 -4.073107e-06  -1.173582e-05  0 
 -1.579843e-05  -1.524308e-05  0 
 -5.334508e-06  -2.742606e-06  0 
 -2.007093e-05  -6.760817e-05  0 
 -1.102177e-06  -1.859236e-06  0 
 4.840807e-04  -3.678597e-04  0 
 5.449757e-04  -2.256859e-04  0 
 8.338647e-05  4.643774e-05  0 
 1.430810e-03  -1.123357e-03  0 
 1.010300e-03  -7.002815e-04  0 
 2.567653e-04  -1.856118e-05  0 
 1.027681e-04  3.807332e-06  0 
 7.321725e-04  -6.040140e-04  0 
VECTORS displacement_ITER23 FLOAT
 0  0  0 
 0  0  0 
 8.141326e-06  -1.202008e-04  0 
 -3.404090e-05  -2.837567e-05  0 
 -6.537851e-05  -5.256608e-05  0 
 -1.160548e-04  -1.234637e-04  0 
 4.574324e-06  -4.857461e-06  0 
 7.923118e-06  -1.605494e-05  0 
 1.291800e-05  -4.521751e-05  0 
 0  0  0 
 0  0  0 
 0  0  0 
 0  0  0 
 0  0  0 
 -3.836785e-06  -6.933239e-06  0 
 -1.169172e-05  -3.085088e-05  0 
 -3.916843e-05  -5.602489e-05  0 
 -8.066188e-06  -3.583773e-06  0 
 -9.975146e-06  -2.752056e-05  0 
 -3.922377e-06  -1.207696e-05  0 
 -1.687079e-05  -1.555656e-05  0 
 -5.703410e-06  -2.630170e-06  0 
 -1.937137e-05  -7.183242e-05  0 
 -1.104828e-06  -1.713120e-06  0 
 4.161224e-04  -3.169929e-04  0 
 5.141078e-04  -1.482087e-04  0 
 8.030490e-05  4.418678e-05  0 
 1.277936e-03  -8.268963e-04  0 
 8.764562e-04  -5.669106e-04  0 
 2.445827e-04  -8.331093e-06  0 
 9.540644e-05  8.436170e-07  0 
 6.557836e-04  -4.637511e-04  0 
VECTORS displacement_ITER24 FLOAT
 0  0  0 
 0  0  0 
 9.615131e-06  -1.227663e-04  0 
 -3.557816e-05  -2.940463e-05  0 
 -6.832786e-05  -5.455551e-05  0 
 -1.206588e-04  -1.273294e-04  0 
 4.977650e-06  -5.090513e-06  0 
 8.845700e-06  -1.681208e-05  0 
 1.429651e-05  -4.710460e-05  0 
 0  0  0 
 0  0  0 
 0  0  0 
 0  0  0 
 0  0  0 
 -4.035148e-06  -6.852191e-06  0 
 -1.133438e-05  -3.195003e-05  0 
 -4.126896e-05  -5.798185e-05  0 
 -8.485926e-06  -3.608449e-06  0 
 -1.063050e-05  -2.825212e-05  0 
 -3.708763e-06  -1.224090e-05  0 
 -1.779424e-05  -1.594043e-05  0 
 -5.994959e-06  -2.545303e-06  0 
 -1.845115e-05  -7.403291e-05  0 
 -1.081096e-06  -1.591945e-06  0 
 3.297162e-04  -2.490288e-04  0 
 4.454304e-04  -7.573336e-05  0 
 7.193975e-05  3.939784e-05  0 
 1.054232e-03  -5.294316e-04  0 
 7.037704e-04  -4.103123e-04  0 
 2.157574e-04  2.784636e-06  0 
 8.228874e-05  -4.284157e-07  0 
 5.350045e-04  -3.233252e-04  0 
VECTORS displacement_ITER25 FLOAT
 0  0  0 
 0  0  0 
 9.471914e-06  -1.206678e-04  0 
 -3.744753e-05  -3.058226e-05  0 
 -7.208287e-05  -5.664454e-05  0 
 -1.265259e-04  -1.309994e-04  0 
 4.993298e-06  -4.958312e-06  0 
 8.982587e-06  -1.668554e-05  0 
 1.433662e-05  -4.693788e-05  0 
 0  0  0 
 0  0  0 
 0  0  0 
 0  0  0 
 0  0  0 
 -4.284315e-06  -6.462948e-06  0 
 -1.111450e-05  -3.184702e-05  0 
 -4.397394e-05  -5.960985e-05  0 
 -8.975363e-06  -3.523891e-06  0 
 -1.147205e-05  -2.833618e-05  0 
 -3.609884e-06  -1.187767e-05  0 
 -1.894848e-05  -1.599954e-05  0 
 -6.359898e-06  -2.278261e-06  0 
 -1.769050e-05  -7.346776e-05  0 
 -1.104612e-06  -1.359267e-06  0 
 1.340243e-04  -8.994655e-05  0 
 2.420504e-04  4.546881e-05  0 
 4.555156e-05  2.559989e-05  0 
 4.986240e-04  1.351110e-05  0 
 3.082236e-04  -7.753238e-05  0 
 1.285412e-04  2.484044e-05  0 
 4.635449e-05  8.034792e-07  0 
 2.251184e-04  -6.616811e-05  0 
VECTORS displacement_ITER26 FLOAT
 0  0  0 
 0  0  0 
 1.087117e-05  -1.212046e-04  0 
 -3.924854e-05  -3.180313e-05  0 
 -7.571401e-05  -5.845648e-05  0 
 -1.321681e-04  -1.338062e-04  0 
 5.289341e-06  -5.018576e-06  0 
 9.783728e-06  -1.715623e-05  0 
 1.555263e-05  -4.818158e-05  0 
 0  0  0 
 0  0  0 
 0  0  0 
 0  0  0 
 0  0  0 
 -4.564294e-06  -6.052998e-06  0 
 -1.054943e-05  -3.239799e-05  0 
 -4.664376e-05  -6.092345e-05  0 
 -9.465345e-06  -3.476305e-06  0 
 -1.234006e-05  -2.849488e-05  0 
 -3.366870e-06  -1.166623e-05  0 
 -2.017463e-05  -1.600844e-05  0 
 -6.753818e-06  -2.005172e-06  0 
 -1.629152e-05  -7.454074e-05  0 
 -1.102477e-06  -1.092364e-06  0 
 -4.985343e-05  6.084375e-05  0 
 3.153180e-05  1.390006e-04  0 
 1.779577e-05  1.076075e-05  0 
 -4.613189e-05  4.690279e-04  0 
 -6.605429e-05  2.249559e-04  0 
 3.784100e-05  4.268414e-05  0 
 1.017302e-05  2.985321e-06  0 
 -8.060104e-05  1.485782e-04  0 
VECTORS displacement_ITER27 FLOAT
 0  0  0 
 0  0  0 
 1.498418e-05  -1.282627e-04  0 
 -4.117140e-05  -3.369669e-05  0 
 -7.939445e-05  -6.126944e-05  0 
 -1.379671e-04  -1.385430e-04  0 
 6.214471e-06  -5.677836e-06  0 
 1.188046e-05  -1.909595e-05  0 
 1.893301e-05  -5.269507e-05  0 
 0  0  0 
 0  0  0 
 0  0  0 
 0  0  0 
 0  0  0 
 -4.842526e-06  -6.073430e-06  0 
 -9.599390e-06  -3.484535e-05  0 
 -4.930427e-05  -6.349657e-05  0 
 -9.954958e-06  -3.761469e-06  0 
 -1.322938e-05  -2.976456e-05  0 
 -2.876115e-06  -1.222154e-05  0 
 -2.142463e-05  -1.677181e-05  0 
 -7.137110e-06  -2.035160e-06  0 
 -1.416685e-05  -7.963588e-05  0 
 -1.021772e-06  -9.560374e-07  0 
 -1.306199e-04  1.274226e-04  0 
 -7.534371e-05  1.627282e-04  0 
 3.497193e-06  2.249248e-06  0 
 -3.043532e-04  6.277245e-04  0 
 -2.329931e-04  3.492682e-04  0 
 -8.327407e-06  4.705573e-05  0 
 -7.405193e-06  4.154854e-06  0 
 -2.258745e-04  2.212671e-04  0 
VECTORS displacement_ITER28 FLOAT
 0  0  0 
 0  0  0 
 1.810646e-05  -1.349237e-04  0 
 -4.269506e-05  -3.552209e-05  0 
 -8.220755e-05  -6.395738e-05  0 
 -1.425261e-04  -1.431180e-04  0 
 6.933460e-06  -6.199533e-06  0 
 1.349081e-05  -2.068596e-05  0 
 2.154186e-05  -5.654039e-05  0 
 0  0  0 
 0  0  0 
 0  0  0 
 0  0  0 
 0  0  0 
 -5.102511e-06  -6.260401e-06  0 
 -9.091533e-06  -3.700772e-05  0 
 -5.148462e-05  -6.605678e-05  0 
 -1.033583e-05  -4.168298e-06  0 
 -1.407918e-05  -3.108984e-05  0 
 -2.589452e-06  -1.277754e-05  0 
 -2.243575e-05  -1.773700e-05  0 
 -7.438777e-06  -2.211203e-06  0 
 -1.284732e-05  -8.414985e-05  0 
 -9.710107e-07  -8.934517e-07  0 
 -1.421432e-04  1.366865e-04  0 
 -9.761498e-05  1.557578e-04  0 
 3.963482e-07  -2.211223e-07  0 
 -3.526240e-04  6.284890e-04  0 
 -2.585175e-04  3.618566e-04  0 
 -1.800187e-05  4.516109e-05  0 
 -1.070834e-05  4.128115e-06  0 
 -2.506902e-04  2.204498e-04  0 
VECTORS displacement_ITER29 FLOAT
 0  0  0 
 0  0  0 
 1.977587e-05  -1.375101e-04  0 
 -4.334547e-05  -3.626202e-05  0 
 -8.342928e-05  -6.462645e-05  0 
 -1.446007e-04  -1.436146e-04  0 
 7.114936e-06  -6.055141e-06  0 
 1.411997e-05  -2.084972e-05  0 
 2.273311e-05  -5.774086e-05  0 
 0  0  0 
 0  0  0 
 0  0  0 
 0  0  0 
 0  0  0 
 -5.360781e-06  -6.016387e-06  0 
 -8.968813e-06  -3.736680e-05  0 
 -5.290274e-05  -6.640017e-05  0 
 -1.056914e-05  -4.309348e-06  0 
 -1.485979e-05  -3.111841e-05  0 
 -2.565859e-06  -1.250092e-05  0 
 -2.316207e-05  -1.786497e-05  0 
 -7.667799e-06  -2.143032e-06  0 
 -1.218259e-05  -8.544117e-05  0 
 -9.892257e-07  -6.576610e-07  0 
 -1.058616e-04  1.059155e-04  0 
 -5.043526e-05  1.393671e-04  0 
 6.615383e-06  2.845748e-06  0 
 -2.432727e-04  5.504689e-04  0 
 -1.847066e-04  3.032119e-04  0 
 2.400808e-06  4.102176e-05  0 
 -2.823977e-06  2.931421e-06  0 
 -1.829456e-04  1.850947e-04  0 
VECTORS displacement_ITER30 FLOAT
 0  0  0 
 0  0  0 
 2.149043e-05  -1.400207e-04  0 
 -4.324342e-05  -3.635232e-05  0 
 -8.320182e-05  -6.428527e-05  0 
 -1.442507e-04  -1.419407e-04  0 
 7.294953e-06  -5.940202e-06  0 
 1.473273e-05  -2.100972e-05  0 
 2.391654e-05  -5.878026e-05  0 
 0  0  0 
 0  0  0 
 0  0  0 
 0  0  0 
 0  0  0 
 -5.515698e-06  -5.803533e-06  0 
 -8.760014e-06  -3.762198e-05  0 
 -5.327838e-05  -6.569782e-05  0 
 -1.061748e-05  -4.388756e-06  0 
 -1.528570e-05  -3.088198e-05  0 
 -2.518326e-06  -1.225921e-05  0 
 -2.344089e-05  -1.776826e-05  0 
 -7.758773e-06  -2.091416e-06  0 
 -1.153653e-05  -8.655011e-05  0 
 -9.909696e-07  -4.683930e-07  0 
 -2.483979e-05  3.873187e-05  0 
 4.643252e-05  1.000265e-04  0 
 1.942135e-05  9.440885e-06  0 
 -1.651843e-06  3.596420e-04  0 
 -1.971985e-05  1.707377e-04  0 
 4.423840e-05  3.267760e-05  0 
 1.368193e-05  1.384829e-06  0 
 -4.368032e-05  9.661366e-05  0 
VECTORS displacement_ITER31 FLOAT
 0  0  0 
 0  0  0 
 2.415018e-05  -1.436297e-04  0 
 -4.272274e-05  -3.609640e-05  0 
 -8.221776e-05  -6.329492e-05  0 
 -1.426160e-04  -1.384235e-04  0 
 7.605898e-06  -5.856674e-06  0 
 1.570949e-05  -2.137580e-05  0 