# vtk DataFile Version 3.1
this is an vtk file created by FEMAC
ASCII
DATASET UNSTRUCTURED_GRID
POINTS 31 FLOAT
3.000000 4.000000 0.000000
3.000000 5.000000 0.000000
2.250000 5.000000 0.000000
2.500000 5.000000 0.000000
2.750000 5.000000 0.000000
3.000000 4.250000 0.000000
3.000000 4.500000 0.000000
3.000000 4.750000 0.000000
2.447447 4.528256 0.000000
2.813081 4.669072 0.000000
2.813653 4.331392 0.000000
2.255000 4.805000 0.000000
2.775000 4.500000 0.000000
2.660928 4.805846 0.000000
2.661595 4.194695 0.000000
2.242859 4.565925 0.000000
2.413341 4.323754 0.000000
2.453287 4.717271 0.000000
2.616917 4.404183 0.000000
2.613486 4.598598 0.000000
2.844802 4.844984 0.000000
2.845050 4.155217 0.000000
2.612481 5.213004 0.000000
2.371000 5.200321 0.000000
3.512466 4.547863 0.000000
3.226067 4.588218 0.000000
3.371004 4.799680 0.000000
3.336997 4.345660 0.000000
3.137613 4.361776 0.000000
3.169414 4.827579 0.000000
3.186855 4.186208 0.000000
CELLS 43 172 
3 9 6 7
3 6 10  5
3 11  3  2
3 9 12  6
3 12 10  6
3 18 10 12
3 9 19 12
3 13  4  3
3 13 19  9
3 18 14 10
3 15 17 11
3 18 19  8
3 18 12 19
3 18  8 16
3 16 14 18
3 17  3 11
3 13  3 17
3 8 19 17
3 13 17 19
3 4 20  1
3 7 20  9
3 20  7  1
3 21  5 10
3 5 21  0
3 13 20  4
3 13  9 20
3 10 14 21
3 16  8 15
3 8 17 15
3 4 22  3
3 2  3 23
3 3 22 23
3 25  7  6
3 25 27 24
3 25 24 26
3 6 28 25
3 28  6  5
3 28 27 25
3 7 29  1
3 30  5  0
3 5 30 28
3 27 28 30
3 25 29  7
CELL_TYPES 43
5 5 5 5 5 5 5 5 5 5 5 5 5 5 5 5 5 5 5 5 5 5 5 5 5 5 5 5 5 5 5 5 5 5 5 5 5 5 5 5 5 5 5 
POINT_DATA 31
VECTORS displacement_ITER1 FLOAT
 3.305411e-02  -1.160497e-01  0 
 6.372201e-02  -1.160711e-01  0 
 6.363961e-02  -9.311324e-02  0 
 6.368109e-02  -1.007244e-01  0 
 6.370857e-02  -1.083929e-01  0 
 4.070935e-02  -1.160580e-01  0 
 4.840206e-02  -1.160423e-01  0 
 5.606511e-02  -1.160690e-01  0 
 4.924335e-02  -9.909132e-02  0 
 5.357080e-02  -1.103155e-01  0 
 4.321752e-02  -1.103214e-01  0 
 5.770821e-02  -9.322152e-02  0 
 4.839082e-02  -1.091402e-01  0 
 5.775501e-02  -1.056471e-01  0 
 3.901729e-02  -1.056477e-01  0 
 5.038837e-02  -9.282269e-02  0 
 4.297132e-02  -9.802831e-02  0 
 5.503586e-02  -9.928240e-02  0 
 4.544618e-02  -1.042834e-01  0 
 5.140620e-02  -1.041884e-01  0 
 5.896644e-02  -1.113000e-01  0 
 3.780165e-02  -1.112959e-01  0 
 4.677383e-02  -9.553415e-02  0 
 4.352226e-02  -9.932460e-02  0 
 9.205061e-02  -2.545687e-01  0 
 7.113936e-02  -1.407422e-01  0 
 1.979595e-01  -2.466032e-01  0 
 3.736251e-02  -1.579004e-01  0 
 4.233294e-02  -1.262461e-01  0 
 5.904261e-02  -1.281167e-01  0 
 3.716030e-02  -1.332700e-01  0 
VECTORS displacement_ITER2 FLOAT
 2.454135e-02  -5.371381e-02  0 
 3.517101e-02  -5.385596e-02  0 
 3.506671e-02  -4.577819e-02  0 
 3.511636e-02  -4.843649e-02  0 
 3.515280e-02  -5.114363e-02  0 
 2.707671e-02  -5.378541e-02  0 
 2.977739e-02  -5.378875e-02  0 
 3.247204e-02  -5.382625e-02  0 
 3.005968e-02  -4.783334e-02  0 
 3.158366e-02  -5.178827e-02  0 
 2.795749e-02  -5.178985e-02  0 
 3.299499e-02  -4.578650e-02  0 
 2.977090e-02  -5.136765e-02  0 
 3.304382e-02  -5.015393e-02  0 
 2.649517e-02  -5.015758e-02  0 
 3.044572e-02  -4.564222e-02  0 
 2.788684e-02  -4.745236e-02  0 
 3.207575e-02  -4.790882e-02  0 
 2.874374e-02  -4.965773e-02  0 
 3.081842e-02  -4.962724e-02  0 
 3.348395e-02  -5.215469e-02  0 
 2.607841e-02  -5.215764e-02  0 
 3.765659e-02  -4.554201e-02  0 
 3.547196e-02  -4.587831e-02  0 
 5.739523e-02  -1.153368e-01  0 
 4.397038e-02  -6.254939e-02  0 
 1.137823e-01  -1.142063e-01  0 
 2.881520e-02  -6.928578e-02  0 
 2.897115e-02  -5.658530e-02  0 
 3.461872e-02  -5.890729e-02  0 
 2.806017e-02  -5.932763e-02  0 
VECTORS displacement_ITER3 FLOAT
 5.772421e-03  -9.870124e-03  0 
 1.279555e-02  -9.944169e-03  0 
 1.248616e-02  -4.730472e-03  0 
 1.262362e-02  -6.356554e-03  0 
 1.271609e-02  -8.104654e-03  0 
 7.370403e-03  -9.866163e-03  0 
 9.164886e-03  -9.839119e-03  0 
 1.094748e-02  -9.867197e-03  0 
 9.358394e-03  -5.889255e-03  0 
 1.035930e-02  -8.502326e-03  0 
 7.970830e-03  -8.527545e-03  0 
 1.121684e-02  -4.621312e-03  0 
 9.171749e-03  -8.227826e-03  0 
 1.131292e-02  -7.424933e-03  0 
 7.009432e-03  -7.445560e-03  0 
 9.590682e-03  -4.472838e-03  0 
 7.954436e-03  -5.610730e-03  0 
 1.066195e-02  -5.960970e-03  0 
 8.506487e-03  -7.089854e-03  0 
 9.857179e-03  -7.072226e-03  0 
 1.161809e-02  -8.751440e-03  0 
 6.726979e-03  -8.801424e-03  0 
 1.696240e-02  -1.421619e-02  0 
 7.573381e-03  -2.124594e-02  0 
 2.400908e-02  -3.920607e-02  0 
 1.514517e-02  -2.036012e-02  0 
 4.351897e-02  -4.960028e-02  0 
 1.079692e-02  -1.952017e-02  0 
 8.895698e-03  -1.364066e-02  0 
 1.342560e-02  -1.754171e-02  0 
 8.914965e-03  -1.428511e-02  0 
VECTORS displacement_ITER4 FLOAT
 5.247510e-03  -2.627058e-03  0 
 3.696370e-03  -2.548146e-03  0 
 3.293201e-03  -3.915414e-03  0 
 3.445703e-03  -3.321154e-03  0 
 3.562523e-03  -2.875424e-03  0 
 4.759243e-03  -2.515832e-03  0 
 4.392070e-03  -2.424738e-03  0 
 3.980452e-03  -2.438178e-03  0 
 4.347666e-03  -3.310774e-03  0 
 4.107722e-03  -2.706913e-03  0 
 4.680612e-03  -2.750165e-03  0 
 3.752125e-03  -3.753841e-03  0 
 4.408554e-03  -2.772686e-03  0 
 3.855773e-03  -2.963998e-03  0 
 4.908547e-03  -2.983484e-03  0 
 4.241706e-03  -3.719799e-03  0 
 4.761077e-03  -3.328635e-03  0 
 3.978432e-03  -3.334721e-03  0 
 4.591078e-03  -3.013992e-03  0 
 4.226568e-03  -3.029058e-03  0 
 3.826569e-03  -2.672879e-03  0 
 4.933976e-03  -2.779849e-03  0 
 6.629005e-03  -1.880334e-03  0 
 5.507060e-03  -2.365700e-03  0 
 7.499304e-03  -6.234538e-03  0 
 3.539697e-03  -8.139239e-03  0 
 1.203069e-03  -1.626360e-02  0 
 6.716456e-03  -4.453444e-03  0 
 4.894548e-03  -4.554246e-03  0 
 4.485793e-03  -5.780181e-03  0 
 6.040991e-03  -3.706426e-03  0 
VECTORS displacement_ITER5 FLOAT
 2.147042e-03  -1.717571e-03  0 
 3.665731e-03  -1.543569e-03  0 
 3.181644e-03  -7.127463e-04  0 
 3.364214e-03  -8.231414e-04  0 
 3.497271e-03  -1.119517e-03  0 
 2.411678e-03  -1.553234e-03  0 
 2.830882e-03  -1.426462e-03  0 
 3.171109e-03  -1.425747e-03  0 
 2.880223e-03  -6.432473e-04  0 
 3.059130e-03  -1.131768e-03  0 
 2.602818e-03  -1.191042e-03  0 
 3.093767e-03  -5.329024e-04  0 
 2.850558e-03  -1.088113e-03  0 
 3.215013e-03  -9.311834e-04  0 
 2.412400e-03  -9.670156e-04  0 
 2.891839e-03  -4.431028e-04  0 
 2.684479e-03  -5.651458e-04  0 
 3.073068e-03  -6.851210e-04  0 
 2.745862e-03  -8.531545e-04  0 
 2.967970e-03  -8.559044e-04  0 
 3.307302e-03  -1.186495e-03  0 
 2.294026e-03  -1.331073e-03  0 
 4.109999e-03  1.232287e-03  0 
 3.878660e-03  -2.080299e-04  0 
 4.321266e-03  -1.893628e-03  0 
 3.070909e-03  -3.221067e-03  0 
 7.439574e-04  -3.815581e-03  0 
 4.259323e-03  -3.233025e-03  0 
 3.259829e-03  -2.813469e-03  0 
 3.444040e-03  -1.912018e-03  0 
 3.499251e-03  -3.440082e-03  0 
VECTORS displacement_ITER6 FLOAT
 1.134079e-03  -2.905180e-03  0 
 2.383880e-03  -2.684258e-03  0 
 1.897818e-03  -2.078352e-03  0 
 2.073561e-03  -2.137182e-03  0 
 2.208606e-03  -2.366824e-03  0 
 1.371729e-03  -2.718428e-03  0 
 1.671378e-03  -2.612286e-03  0 
 1.944898e-03  -2.609188e-03  0 
 1.738567e-03  -2.018250e-03  0 
 1.856444e-03  -2.372221e-03  0 
 1.511732e-03  -2.447352e-03  0 
 1.874180e-03  -1.925783e-03  0 
 1.694751e-03  -2.356724e-03  0 
 1.987237e-03  -2.203300e-03  0 
 1.374713e-03  -2.289820e-03  0 
 1.769047e-03  -1.847078e-03  0 
 1.577653e-03  -1.991604e-03  0 
 1.881073e-03  -2.022659e-03  0 
 1.621200e-03  -2.193365e-03  0 
 1.793843e-03  -2.167285e-03  0 
 2.069160e-03  -2.400290e-03  0 
 1.291381e-03  -2.555172e-03  0 
 2.735919e-03  -2.088510e-03  0 
 2.221734e-03  -2.018205e-03  0 
 2.224264e-03  -4.267882e-03  0 
 1.921842e-03  -3.398459e-03  0 
 2.465987e-03  -4.215425e-03  0 
 1.626600e-03  -3.498737e-03  0 
 1.530227e-03  -3.031467e-03  0 
 2.311484e-03  -3.316451e-03  0 
 1.356695e-03  -3.157996e-03  0 
VECTORS displacement_ITER7 FLOAT
 8.788901e-04  -3.155410e-03  0 
 2.257685e-03  -2.989102e-03  0 
 1.792019e-03  -2.207635e-03  0 
 1.972301e-03  -2.327419e-03  0 
 2.097290e-03  -2.622705e-03  0 
 1.130339e-03  -3.013300e-03  0 
 1.443998e-03  -2.930342e-03  0 
 1.773711e-03  -2.927430e-03  0 
 1.531386e-03  -2.222775e-03  0 
 1.667687e-03  -2.653209e-03  0 
 1.264524e-03  -2.743670e-03  0 
 1.733363e-03  -2.050801e-03  0 
 1.471654e-03  -2.638737e-03  0 
 1.833231e-03  -2.444624e-03  0 
 1.105909e-03  -2.560226e-03  0 
 1.577457e-03  -1.995387e-03  0 
 1.307675e-03  -2.188234e-03  0 
 1.712142e-03  -2.213466e-03  0 
 1.382028e-03  -2.450619e-03  0 
 1.595045e-03  -2.407228e-03  0 
 1.920275e-03  -2.684327e-03  0 
 1.048057e-03  -2.854744e-03  0 
 2.759207e-03  -2.595292e-03  0 
 2.342776e-03  -2.425668e-03  0 
 2.344764e-03  -3.414182e-03  0 
 1.711666e-03  -3.792385e-03  0 
 9.954144e-04  -4.035348e-03  0 
 1.908467e-03  -3.454643e-03  0 
 1.469342e-03  -3.343339e-03  0 
 2.138750e-03  -3.631155e-03  0 
 1.407816e-03  -3.341641e-03  0 
VECTORS displacement_ITER8 FLOAT
 1.314202e-03  -2.359205e-03  0 
 2.028218e-03  -2.396678e-03  0 
 1.610867e-03  -1.893336e-03  0 
 1.765627e-03  -1.936601e-03  0 
 1.876806e-03  -2.133817e-03  0 
 1.299117e-03  -2.318560e-03  0 
 1.439353e-03  -2.305750e-03  0 
 1.654670e-03  -2.330908e-03  0 
 1.519044e-03  -1.896471e-03  0 
 1.578845e-03  -2.141112e-03  0 
 1.354022e-03  -2.215117e-03  0 
 1.615004e-03  -1.763466e-03  0 
 1.462453e-03  -2.143605e-03  0 
 1.691603e-03  -2.000592e-03  0 
 1.287911e-03  -2.134363e-03  0 
 1.561442e-03  -1.754549e-03  0 
 1.375975e-03  -1.893494e-03  0 
 1.614648e-03  -1.861995e-03  0 
 1.421276e-03  -2.051180e-03  0 
 1.541449e-03  -1.993961e-03  0 
 1.759544e-03  -2.160092e-03  0 
 1.289197e-03  -2.282979e-03  0 
 2.375243e-03  -2.046918e-03  0 
 2.030815e-03  -1.807308e-03  0 
 1.965733e-03  -3.437832e-03  0 
 1.611539e-03  -2.951553e-03  0 
 1.565278e-03  -3.561994e-03  0 
 1.594097e-03  -2.925585e-03  0 
 1.427175e-03  -2.597416e-03  0 
 1.928836e-03  -2.854345e-03  0 
 1.378760e-03  -2.605693e-03  0 
VECTORS displacement_ITER9 FLOAT
 1.274588e-03  -2.330380e-03  0 
 2.041549e-03  -2.348458e-03  0 
 1.619637e-03  -1.828246e-03  0 
 1.774256e-03  -1.877330e-03  0 
 1.887388e-03  -2.078370e-03  0 
 1.291667e-03  -2.270320e-03  0 
 1.438131e-03  -2.255156e-03  0 
 1.659167e-03  -2.281088e-03  0 
 1.515253e-03  -1.830248e-03  0 
 1.581189e-03  -2.086147e-03  0 
 1.348348e-03  -2.158174e-03  0 
 1.616034e-03  -1.697985e-03  0 
 1.460418e-03  -2.086698e-03  0 
 1.697467e-03  -1.941985e-03  0 
 1.274413e-03  -2.066969e-03  0 
 1.558313e-03  -1.679883e-03  0 
 1.367947e-03  -1.828307e-03  0 
 1.617167e-03  -1.797453e-03  0 
 1.415265e-03  -1.987790e-03  0 
 1.541088e-03  -1.933086e-03  0 
 1.766752e-03  -2.105903e-03  0 
 1.276977e-03  -2.224548e-03  0 
 2.255950e-03  -1.842733e-03  0 
 1.960284e-03  -1.774867e-03  0 
 1.812517e-03  -3.284288e-03  0 
 1.621057e-03  -2.810470e-03  0 
 1.808544e-03  -3.223787e-03  0 
 1.520826e-03  -2.856392e-03  0 
 1.410927e-03  -2.535200e-03  0 
 1.884823e-03  -2.737769e-03  0 
 1.364705e-03  -2.606439e-03  0 
VECTORS displacement_ITER10 FLOAT
 1.284129e-03  -2.302192e-03  0 
 2.041957e-03  -2.325186e-03  0 
 1.618258e-03  -1.814520e-03  0 
 1.774978e-03  -1.858187e-03  0 
 1.887700e-03  -2.057278e-03  0 
 1.302680e-03  -2.243454e-03  0 
 1.443695e-03  -2.230326e-03  0 
 1.661707e-03  -2.257352e-03  0 
 1.519182e-03  -1.812272e-03  0 
 1.584382e-03  -2.064307e-03  0 
 1.356396e-03  -2.135814e-03  0 
 1.619090e-03  -1.680459e-03  0 
 1.465917e-03  -2.065008e-03  0 
 1.699345e-03  -1.921951e-03  0 
 1.285449e-03  -2.048687e-03  0 
 1.560626e-03  -1.662372e-03  0 
 1.378205e-03  -1.813559e-03  0 
 1.620027e-03  -1.779762e-03  0 
 1.422148e-03  -1.968096e-03  0 
 1.544927e-03  -1.913814e-03  0 
 1.768325e-03  -2.083891e-03  0 
 1.289315e-03  -2.200394e-03  0 
 2.239385e-03  -1.857206e-03  0 
 1.940865e-03  -1.782488e-03  0 
 1.890011e-03  -3.370088e-03  0 
 1.647565e-03  -2.756643e-03  0 
 2.060910e-03  -3.297708e-03  0 
 1.507252e-03  -2.829122e-03  0 
 1.415548e-03  -2.498603e-03  0 
 1.859744e-03  -2.701081e-03  0 
 1.375780e-03  -2.583055e-03  0 
VECTORS displacement_ITER11 FLOAT
 1.282232e-03  -2.301718e-03  0 
 2.036554e-03  -2.320952e-03  0 
 1.614743e-03  -1.810906e-03  0 
 1.770059e-03  -1.855719e-03  0 
 1.882491e-03  -2.054044e-03  0 
 1.301199e-03  -2.238365e-03  0 
 1.440587e-03  -2.225852e-03  0 
 1.657538e-03  -2.252975e-03  0 
 1.515806e-03  -1.810704e-03  0 
 1.580505e-03  -2.060687e-03  0 
 1.353885e-03  -2.132003e-03  0 
 1.614903e-03  -1.678946e-03  0 
 1.462826e-03  -2.061345e-03  0 
 1.694780e-03  -1.919181e-03  0 
 1.282479e-03  -2.045051e-03  0 
 1.557251e-03  -1.662234e-03  0 
 1.377373e-03  -1.813703e-03  0 
 1.615746e-03  -1.777883e-03  0 
 1.419543e-03  -1.964937e-03  0 
 1.541210e-03  -1.911078e-03  0 
 1.763647e-03  -2.080317e-03  0 
 1.288187e-03  -2.194694e-03  0 
 2.260575e-03  -1.876444e-03  0 
 1.936648e-03  -1.771814e-03  0 
 1.820506e-03  -3.391774e-03  0 
 1.639104e-03  -2.756984e-03  0 
 1.996566e-03  -3.240260e-03  0 
 1.514198e-03  -2.882011e-03  0 
 1.418878e-03  -2.508306e-03  0 
 1.874184e-03  -2.712557e-03  0 
 1.375012e-03  -2.592394e-03  0 
VECTORS displacement_ITER12 FLOAT
 1.281565e-03  -2.302145e-03  0 
 2.036719e-03  -2.322002e-03  0 
 1.614739e-03  -1.811652e-03  0 
 1.770141e-03  -1.856450e-03  0 
 1.882608e-03  -2.054920e-03  0 
 1.301086e-03  -2.238926e-03  0 
 1.440220e-03  -2.226936e-03  0 
 1.657492e-03  -2.254018e-03  0 
 1.515698e-03  -1.811244e-03  0 
 1.580389e-03  -2.061535e-03  0 
 1.353391e-03  -2.133025e-03  0 
 1.614819e-03  -1.679498e-03  0 
 1.462552e-03  -2.062215e-03  0 
 1.694739e-03  -1.919960e-03  0 
 1.281894e-03  -2.046452e-03  0 
 1.557029e-03  -1.662965e-03  0 
 1.376874e-03  -1.813598e-03  0 
 1.615601e-03  -1.778541e-03  0 
 1.419309e-03  -1.965784e-03  0 
 1.541078e-03  -1.911770e-03  0 
 1.763667e-03  -2.081227e-03  0 
 1.288018e-03  -2.195158e-03  0 
 2.258340e-03  -1.878757e-03  0 
 1.935066e-03  -1.771789e-03  0 
 1.830794e-03  -3.379677e-03  0 
 1.641612e-03  -2.758497e-03  0 
 1.973709e-03  -3.235018e-03  0 
 1.521821e-03  -2.879434e-03  0 
 1.421167e-03  -2.507000e-03  0 
 1.879578e-03  -2.727882e-03  0 
 1.370682e-03  -2.590266e-03  0 
VECTORS displacement_ITER13 FLOAT
 1.281741e-03  -2.302162e-03  0 
 2.036742e-03  -2.321839e-03  0 
 1.614525e-03  -1.811817e-03  0 
 1.770142e-03  -1.856266e-03  0 
 1.882624e-03  -2.054749e-03  0 
 1.301113e-03  -2.238782e-03  0 
 1.440266e-03  -2.226754e-03  0 
 1.657496e-03  -2.253867e-03  0 
 1.515686e-03  -1.811129e-03  0 
 1.580394e-03  -2.061398e-03  0 
 1.353455e-03  -2.132833e-03  0 
 1.614925e-03  -1.679370e-03  0 
 1.462573e-03  -2.062083e-03  0 
 1.694769e-03  -1.919793e-03  0 
 1.282040e-03  -2.046267e-03  0 
 1.557040e-03  -1.662678e-03  0 
 1.376889e-03  -1.813633e-03  0 
 1.615688e-03  -1.778413e-03  0 
 1.419302e-03  -1.965672e-03  0 
 1.541099e-03  -1.911672e-03  0 
 1.763684e-03  -2.081064e-03  0 
 1.288082e-03  -2.195031e-03  0 
 2.250589e-03  -1.873104e-03  0 
 1.932853e-03  -1.771621e-03  0 
 1.832775e-03  -3.379841e-03  0 
 1.642165e-03  -2.758424e-03  0 
 1.982479e-03  -3.243140e-03  0 
 1.522824e-03  -2.880721e-03  0 
 1.421373e-03  -2.506234e-03  0 
 1.880557e-03  -2.732341e-03  0 
 1.369612e-03  -2.587763e-03  0 
VECTORS displacement_ITER14 FLOAT
 1.281635e-03  -2.302178e-03  0 
 2.036715e-03  -2.321827e-03  0 
 1.614527e-03  -1.811775e-03  0 
 1.770120e-03  -1.856262e-03  0 
 1.882598e-03  -2.054741e-03  0 
 1.301104e-03  -2.238766e-03  0 
 1.440247e-03  -2.226738e-03  0 
 1.657474e-03  -2.253853e-03  0 
 1.515671e-03  -1.811125e-03  0 
 1.580373e-03  -2.061386e-03  0 
 1.353438e-03  -2.132816e-03  0 
 1.614890e-03  -1.679357e-03  0 
 1.462553e-03  -2.062067e-03  0 
 1.694743e-03  -1.919787e-03  0 
 1.282027e-03  -2.046270e-03  0 
 1.557025e-03  -1.662700e-03  0 
 1.376876e-03  -1.813617e-03  0 
 1.615654e-03  -1.778403e-03  0 
 1.419288e-03  -1.965664e-03  0 
 1.541075e-03  -1.911657e-03  0 
 1.763659e-03  -2.081054e-03  0 
 1.288060e-03  -2.194995e-03  0 
 2.250680e-03  -1.872902e-03  0 
 1.932797e-03  -1.771647e-03  0 
 1.832309e-03  -3.378617e-03  0 
 1.642338e-03  -2.758820e-03  0 
 1.982868e-03  -3.241470e-03  0 
 1.523212e-03  -2.882387e-03  0 
 1.421535e-03  -2.506548e-03  0 
 1.880437e-03  -2.732764e-03  0 
 1.369248e-03  -2.588105e-03  0 
CELL_DATA 43
TENSORS element_stresses FLOAT
 4.114074e-03  -8.755196e-02  0 
 -8.755196e-02  -1.072229e-01  0 
 0  0  0 

 -2.561929e-02  6.942483e-03  0 
 6.942483e-03  4.042467e-02  0 
 0  0  0 

 4.585549e-01  -1.260396e-01  0 
 -1.260396e-01  -5.460629e-01  0 
 0  0  0 

 -5.326737e-02  -9.752212e-03  0 
 -9.752212e-03  1.528924e-01  0 
 0  0  0 

 -2.592003e-02  -8.265502e-02  0 
 -8.265502e-02  2.440502e-01  0 
 0  0  0 

 -3.340900e-02  -1.041900e-01  0 
 -1.041900e-01  2.356467e-01  0 
 0  0  0 

 3.261683e-03  -8.278633e-02  0 
 -8.278633e-02  1.889164e-01  0 
 0  0  0 

 3.853306e-01  -2.520734e-02  0 
 -2.520734e-02  -2.152646e-01  0 
 0  0  0 

 -3.008457e-02  -3.340324e-02  0 
 -3.340324e-02  1.351226e-01  0 
 0  0  0 

 -3.723714e-02  -1.030723e-01  0 
 -1.030723e-01  2.098444e-01  0 
 0  0  0 

 1.049479e-01  -2.170418e-01  0 
 -2.170418e-01  -1.184718e-02  0 
 0  0  0 

 -3.517799e-02  -7.179619e-02  0 
 -7.179619e-02  2.545695e-01  0 
 0  0  0 

 -2.816122e-02  -1.118354e-01  0 
 -1.118354e-01  2.557540e-01  0 
 0  0  0 

 -2.208948e-02  -8.872304e-02  0 
 -8.872304e-02  1.397698e-01  0 
 0  0  0 

 1.735001e-02  -1.413502e-01  0 
 -1.413502e-01  2.131703e-01  0 
 0  0  0 

 1.922319e-01  -5.422575e-02  0 
 -5.422575e-02  -1.220449e-01  0 
 0  0  0 

 1.170062e-01  -6.622494e-02  0 
 -6.622494e-02  -1.401298e-01  0 
 0  0  0 

 -1.508542e-02  -1.204798e-01  0 
 -1.204798e-01  1.898412e-01  0 
 0  0  0 

 1.212838e-01  -8.434479e-03  0 
 -8.434479e-03  1.656508e-01  0 
 0  0  0 

 5.180059e-01  5.840641e-02  0 
 5.840641e-02  -3.282086e-01  0 
 0  0  0 

 -1.962920e-02  -1.145617e-02  0 
 -1.145617e-02  7.423134e-02  0 
 0  0  0 

 1.787273e-01  1.824277e-01  0 
 1.824277e-01  -2.182777e-01  0 
 0  0  0 

 -5.156728e-02  -7.787698e-02  0 
 -7.787698e-02  2.573821e-01  0 
 0  0  0 

 1.237781e-01  -2.767437e-01  0 
 -2.767437e-01  2.907833e-01  0 
 0  0  0 

 9.869255e-02  5.669014e-02  0 
 5.669014e-02  -2.947926e-01  0 
 0  0  0 

 1.907624e-01  9.685507e-02  0 
 9.685507e-02  1.054218e-01  0 
 0  0  0 

 2.003005e-01  -2.861907e-01  0 
 -2.861907e-01  2.768669e-01  0 
 0  0  0 

 -3.967758e-02  -8.078145e-03  0 
 -8.078145e-03  1.173104e-01  0 
 0  0  0 

 -5.035008e-02  -1.211499e-01  0 
 -1.211499e-01  1.793194e-01  0 
 0  0  0 

 6.068645e-04  9.419996e-04  0 
 9.419996e-04  5.231818e-04  0 
 0  0  0 

 7.854011e-04  7.960944e-04  0 
 7.960944e-04  5.434243e-04  0 
 0  0  0 

 1.402505e-03  9.064904e-04  0 
 9.064904e-04  5.681421e-04  0 
 0  0  0 

 5.739951e-04  -1.109555e-03  0 
 -1.109555e-03  6.374142e-05  0 
 0  0  0 

 6.911580e-04  -1.067103e-03  0 
 -1.067103e-03  -3.060187e-04  0 
 0  0  0 

 6.518469e-04  -9.329604e-04  0 
 -9.329604e-04  -5.332157e-04  0 
 0  0  0 

 5.899638e-04  -1.173501e-03  0 
 -1.173501e-03  -5.269723e-05  0 
 0  0  0 

 4.807733e-04  -1.098779e-03  0 
 -1.098779e-03  1.923425e-04  0 
 0  0  0 

 5.064784e-04  -8.941919e-04  0 
 -8.941919e-04  -2.142354e-04  0 
 0  0  0 

 5.932451e-04  -9.118424e-04  0 
 -9.118424e-04  -9.392233e-05  0 
 0  0  0 

 5.135981e-04  -1.311615e-03  0 
 -1.311615e-03  4.077293e-04  0 
 0  0  0 

 5.449448e-04  -1.115147e-03  0 
 -1.115147e-03  9.731085e-05  0 
 0  0  0 

 5.788110e-04  -1.107106e-03  0 
 -1.107106e-03  1.079904e-04  0 
 0  0  0 

 6.865838e-04  -1.089947e-03  0 
 -1.089947e-03  -2.994559e-04  0 
 0  0  0 

TENSORS element_stresses FLOAT
 4.114074e-03  -8.755196e-02  0 
 -8.755196e-02  -1.072229e-01  0 
 0  0  0 

 -2.561929e-02  6.942483e-03  0 
 6.942483e-03  4.042467e-02  0 
 0  0  0 

 4.585549e-01  -1.260396e-01  0 
 -1.260396e-01  -5.460629e-01  0 
 0  0  0 

 -5.326737e-02  -9.752212e-03  0 
 -9.752212e-03  1.528924e-01  0 
 0  0  0 

 -2.592003e-02  -8.265502e-02  0 
 -8.265502e-02  2.440502e-01  0 
 0  0  0 

 -3.340900e-02  -1.041900e-01  0 
 -1.041900e-01  2.356467e-01  0 
 0  0  0 

 3.261683e-03  -8.278633e-02  0 
 -8.278633e-02  1.889164e-01  0 
 0  0  0 

 3.853306e-01  -2.520734e-02  0 
 -2.520734e-02  -2.152646e-01  0 
 0  0  0 

 -3.008457e-02  -3.340324e-02  0 
 -3.340324e-02  1.351226e-01  0 
 0  0  0 

 -3.723714e-02  -1.030723e-01  0 
 -1.030723e-01  2.098444e-01  0 
 0  0  0 

 1.049479e-01  -2.170418e-01  0 
 -2.170418e-01  -1.184718e-02  0 
 0  0  0 

 -3.517799e-02  -7.179619e-02  0 
 -7.179619e-02  2.545695e-01  0 
 0  0  0 

 -2.816122e-02  -1.118354e-01  0 
 -1.118354e-01  2.557540e-01  0 
 0  0  0 

 -2.208948e-02  -8.872304e-02  0 
 -8.872304e-02  1.397698e-01  0 
 0  0  0 

 1.735001e-02  -1.413502e-01  0 
 -1.413502e-01  2.131703e-01  0 
 0  0  0 

 1.922319e-01  -5.422575e-02  0 
 -5.422575e-02  -1.220449e-01  0 
 0  0  0 

 1.170062e-01  -6.622494e-02  0 
 -6.622494e-02  -1.401298e-01  0 
 0  0  0 

 -1.508542e-02  -1.204798e-01  0 
 -1.204798e-01  1.898412e-01  0 
 0  0  0 

 1.212838e-01  -8.434479e-03  0 
 -8.434479e-03  1.656508e-01  0 
 0  0  0 

 5.180059e-01  5.840641e-02  0 
 5.840641e-02  -3.282086e-01  0 
 0  0  0 

 -1.962920e-02  -1.145617e-02  0 
 -1.145617e-02  7.423134e-02  0 
 0  0  0 

 1.787273e-01  1.824277e-01  0 
 1.824277e-01  -2.182777e-01  0 
 0  0  0 

 -5.156728e-02  -7.787698e-02  0 
 -7.787698e-02  2.573821e-01  0 
 0  0  0 

 1.237781e-01  -2.767437e-01  0 
 -2.767437e-01  2.907833e-01  0 
 0  0  0 

 9.869255e-02  5.669014e-02  0 
 5.669014e-02  -2.947926e-01  0 
 0  0  0 

 1.907624e-01  9.685507e-02  0 
 9.685507e-02  1.054218e-01  0 
 0  0  0 

 2.003005e-01  -2.861907e-01  0 
 -2.861907e-01  2.768669e-01  0 
 0  0  0 

 -3.967758e-02  -8.078145e-03  0 
 -8.078145e-03  1.173104e-01  0 
 0  0  0 

 -5.035008e-02  -1.211499e-01  0 
 -1.211499e-01  1.793194e-01  0 
 0  0  0 

 6.068645e-04  9.419996e-04  0 
 9.419996e-04  5.231818e-04  0 
 0  0  0 

 7.854011e-04  7.960944e-04  0 
 7.960944e-04  5.434243e-04  0 
 0  0  0 

 1.402505e-03  9.064904e-04  0 
 9.064904e-04  5.681421e-04  0 
 0  0  0 

 5.739951e-04  -1.109555e-03  0 
 -1.109555e-03  6.374142e-05  0 
 0  0  0 

 6.911580e-04  -1.067103e-03  0 
 -1.067103e-03  -3.060187e-04  0 
 0  0  0 

 6.518469e-04  -9.329604e-04  0 
 -9.329604e-04  -5.332157e-04  0 
 0  0  0 

 5.899638e-04  -1.173501e-03  0 
 -1.173501e-03  -5.269723e-05  0 
 0  0  0 

 4.807733e-04  -1.098779e-03  0 
 -1.098779e-03  1.923425e-04  0 
 0  0  0 

 5.064784e-04  -8.941919e-04  0 
 -8.941919e-04  -2.142354e-04  0 
 0  0  0 

 5.932451e-04  -9.118424e-04  0 
 -9.118424e-04  -9.392233e-05  0 
 0  0  0 

 5.135981e-04  -1.311615e-03  0 
 -1.311615e-03  4.077293e-04  0 
 0  0  0 

 5.449448e-04  -1.115147e-03  0 
 -1.115147e-03  9.731085e-05  0 
 0  0  0 

 5.788110e-04  -1.107106e-03  0 
 -1.107106e-03  1.079904e-04  0 
 0  0  0 

 6.865838e-04  -1.089947e-03  0 
 -1.089947e-03  -2.994559e-04  0 
 0  0  0 

