# vtk DataFile Version 3.1
this is an vtk file created by FEMAC
ASCII
DATASET UNSTRUCTURED_GRID
POINTS 31 FLOAT
5.000000 1.000000 0.000000
4.500000 1.000000 0.000000
4.750000 1.000000 0.000000
5.000000 0.500000 0.000000
5.000000 0.750000 0.000000
5.000000 1.250000 0.000000
5.000000 1.500000 0.000000
5.250000 1.000000 0.000000
5.500000 1.000000 0.000000
5.750000 1.000000 0.000000
4.787596 0.660045 0.000000
4.638134 0.825570 0.000000
4.502535 0.594871 0.000000
4.746177 0.372389 0.000000
4.835146 0.847123 0.000000
4.810944 1.214033 0.000000
4.789602 1.627399 0.000000
4.391405 1.203564 0.000000
4.627460 1.174425 0.000000
4.628796 1.390176 0.000000
4.544074 1.619719 0.000000
4.845868 1.396322 0.000000
5.214699 0.660302 0.000000
5.371728 0.825957 0.000000
5.167285 0.847252 0.000000
5.528256 1.447447 0.000000
5.195000 1.255000 0.000000
5.378219 1.169567 0.000000
5.565925 1.242859 0.000000
5.323754 1.413341 0.000000
5.717271 1.453287 0.000000
CELLS 42 168 
3 10  3  4
3 12 10 11
3 10 13  3
3 10 12 13
3 11  2  1
3 2 14  0
3 4 14 10
3 14  4  0
3 11 14  2
3 11 10 14
3 2 18  1
3 19 18 15
3 15 18  2
3 19 16 20
3 0 15  2
3 0  5 15
3 1 18 17
3 17 18 19
3 19 21 16
3 21 19 15
3 21  6 16
3 21  5  6
3 15  5 21
3 3 22  4
3 7 23  8
3 4 24  0
3 24  7  0
3 24  4 22
3 24 23  7
3 22 23 24
3 26  6  5
3 27  7  8
3 9 28  8
3 27 29 26
3 27 26  7
3 29  6 26
3 0 26  5
3 0  7 26
3 27  8 28
3 25 29 28
3 30 25 28
3 27 28 29
CELL_TYPES 42
5 5 5 5 5 5 5 5 5 5 5 5 5 5 5 5 5 5 5 5 5 5 5 5 5 5 5 5 5 5 5 5 5 5 5 5 5 5 5 5 5 5 
POINT_DATA 31
VECTORS displacement_ITER1 FLOAT
 -1.188023e-01  -3.255551e-01  0 
 -1.187125e-01  -2.800632e-01  0 
 -1.187610e-01  -3.028376e-01  0 
 -1.641454e-01  -3.255356e-01  0 
 -1.414615e-01  -3.255396e-01  0 
 -9.826861e-02  -3.255667e-01  0 
 -7.772868e-02  -3.255649e-01  0 
 -1.188280e-01  -3.461416e-01  0 
 -1.188468e-01  -3.667260e-01  0 
 -1.188538e-01  -3.873204e-01  0 
 -1.496273e-01  -3.062639e-01  0 
 -1.346105e-01  -2.926918e-01  0 
 -1.555312e-01  -2.804033e-01  0 
 -1.757144e-01  -3.025107e-01  0 
 -1.326581e-01  -3.105897e-01  0 
 -1.015780e-01  -3.057138e-01  0 
 -7.227539e-02  -2.967351e-01  0 
 -9.473645e-02  -2.602896e-01  0 
 -1.028988e-01  -2.883505e-01  0 
 -8.547273e-02  -2.816148e-01  0 
 -7.506511e-02  -2.663395e-01  0 
 -8.660204e-02  -3.064724e-01  0 
 -1.496942e-01  -3.476288e-01  0 
 -1.343076e-01  -3.604493e-01  0 
 -1.319455e-01  -3.409727e-01  0 
 -8.203123e-02  -3.690341e-01  0 
 -9.785547e-02  -3.415974e-01  0 
 -1.048866e-01  -3.566859e-01  0 
 -9.885843e-02  -3.721425e-01  0 
 -8.483336e-02  -3.521984e-01  0 
 -8.155802e-02  -3.845890e-01  0 
VECTORS displacement_ITER2 FLOAT
 -7.587058e-02  -2.608587e-01  0 
 -7.575677e-02  -2.275531e-01  0 
 -7.581703e-02  -2.442417e-01  0 
 -1.089924e-01  -2.608355e-01  0 
 -9.241475e-02  -2.608412e-01  0 
 -6.040039e-02  -2.608668e-01  0 
 -4.491722e-02  -2.608537e-01  0 
 -7.590628e-02  -2.763936e-01  0 
 -7.593201e-02  -2.919288e-01  0 
 -7.594321e-02  -3.074791e-01  0 
 -9.838462e-02  -2.467520e-01  0 
 -8.741121e-02  -2.368292e-01  0 
 -1.026967e-01  -2.278530e-01  0 
 -1.174450e-01  -2.440067e-01  0 
 -8.598611e-02  -2.499203e-01  0 
 -6.302918e-02  -2.457858e-01  0 
 -4.352129e-02  -2.388567e-01  0 
 -5.739841e-02  -2.123857e-01  0 
 -6.386043e-02  -2.332158e-01  0 
 -5.134726e-02  -2.275733e-01  0 
 -4.733093e-02  -2.174622e-01  0 
 -5.194460e-02  -2.459534e-01  0 
 -9.830317e-02  -2.782951e-01  0 
 -8.686045e-02  -2.880393e-01  0 
 -8.522132e-02  -2.728439e-01  0 
 -4.816020e-02  -2.936595e-01  0 
 -6.009144e-02  -2.729529e-01  0 
 -6.539759e-02  -2.843436e-01  0 
 -6.085277e-02  -2.960112e-01  0 
 -5.027075e-02  -2.809526e-01  0 
 -4.780975e-02  -3.054000e-01  0 
VECTORS displacement_ITER3 FLOAT
 -7.057097e-02  -1.676438e-01  0 
 -7.042480e-02  -1.479182e-01  0 
 -7.049943e-02  -1.578333e-01  0 
 -9.012753e-02  -1.676734e-01  0 
 -8.032509e-02  -1.676649e-01  0 
 -5.711979e-02  -1.676197e-01  0 
 -4.364123e-02  -1.675764e-01  0 
 -7.061898e-02  -1.811411e-01  0 
 -7.066681e-02  -1.946662e-01  0 
 -7.068615e-02  -2.082221e-01  0 
 -8.385111e-02  -1.593393e-01  0 
 -7.735950e-02  -1.534627e-01  0 
 -8.639376e-02  -1.481671e-01  0 
 -9.511955e-02  -1.577272e-01  0 
 -7.652258e-02  -1.612085e-01  0 
 -5.987904e-02  -1.573506e-01  0 
 -4.034629e-02  -1.503708e-01  0 
 -5.436534e-02  -1.342528e-01  0 
 -6.045834e-02  -1.493973e-01  0 
 -4.950275e-02  -1.428673e-01  0 
 -4.149860e-02  -1.318038e-01  0 
 -4.991232e-02  -1.568850e-01  0 
 -8.540624e-02  -1.820865e-01  0 
 -7.862822e-02  -1.904411e-01  0 
 -7.665444e-02  -1.773936e-01  0 
 -4.646469e-02  -1.961711e-01  0 
 -5.686250e-02  -1.781310e-01  0 
 -6.148349e-02  -1.880478e-01  0 
 -5.752627e-02  -1.982128e-01  0 
 -4.830954e-02  -1.850932e-01  0 
 -4.615520e-02  -2.064124e-01  0 
VECTORS displacement_ITER4 FLOAT
 -7.349630e-02  -1.373404e-01  0 
 -7.334360e-02  -1.277975e-01  0 
 -7.341971e-02  -1.326183e-01  0 
 -8.285566e-02  -1.373606e-01  0 
 -7.814899e-02  -1.373550e-01  0 
 -6.373263e-02  -1.373147e-01  0 
 -5.393397e-02  -1.372598e-01  0 
 -7.354975e-02  -1.471598e-01  0 
 -7.359855e-02  -1.570054e-01  0 
 -7.362096e-02  -1.668845e-01  0 
 -7.984287e-02  -1.333564e-01  0 
 -7.672597e-02  -1.305271e-01  0 
 -8.105962e-02  -1.279904e-01  0 
 -8.524994e-02  -1.325807e-01  0 
 -7.632900e-02  -1.342608e-01  0 
 -6.603408e-02  -1.309049e-01  0 
 -4.936749e-02  -1.232233e-01  0 
 -6.018341e-02  -1.158654e-01  0 
 -6.597491e-02  -1.264204e-01  0 
 -5.770435e-02  -1.192836e-01  0 
 -4.815013e-02  -1.068997e-01  0 
 -5.849315e-02  -1.298507e-01  0 
 -8.093464e-02  -1.478521e-01  0 
 -7.734461e-02  -1.541114e-01  0 
 -7.631548e-02  -1.444948e-01  0 
 -5.599772e-02  -1.580850e-01  0 
 -6.355188e-02  -1.449557e-01  0 
 -6.691523e-02  -1.521782e-01  0 
 -6.404014e-02  -1.595806e-01  0 
 -5.733289e-02  -1.500220e-01  0 
 -5.578298e-02  -1.655399e-01  0 
VECTORS displacement_ITER5 FLOAT
 -6.271844e-02  -9.845485e-02  0 
 -6.257086e-02  -9.914700e-02  0 
 -6.263961e-02  -9.884405e-02  0 
 -6.189405e-02  -9.850722e-02  0 
 -6.227332e-02  -9.849119e-02  0 
 -5.620799e-02  -9.841035e-02  0 
 -4.965265e-02  -9.833430e-02  0 
 -6.277408e-02  -1.050068e-01  0 
 -6.282829e-02  -1.115954e-01  0 
 -6.285393e-02  -1.182226e-01  0 
 -6.213273e-02  -9.882024e-02  0 
 -6.238197e-02  -9.903396e-02  0 
 -6.202676e-02  -9.924760e-02  0 
 -6.169790e-02  -9.888709e-02  0 
 -6.242715e-02  -9.875022e-02  0 
 -5.801064e-02  -9.595256e-02  0 
 -3.884804e-02  -8.535213e-02  0 
 -5.023924e-02  -8.645047e-02  0 
 -5.705470e-02  -9.433820e-02  0 
 -4.984637e-02  -8.523397e-02  0 
 -3.185872e-02  -6.656664e-02  0 
 -5.208374e-02  -9.422918e-02  0 
 -6.354779e-02  -1.054616e-01  0 
 -6.333760e-02  -1.096960e-01  0 
 -6.264932e-02  -1.030932e-01  0 
 -5.105194e-02  -1.123035e-01  0 
 -5.610005e-02  -1.035158e-01  0 
 -5.835090e-02  -1.083514e-01  0 
 -5.642998e-02  -1.133100e-01  0 
 -5.194062e-02  -1.069041e-01  0 
 -5.091577e-02  -1.172973e-01  0 
VECTORS displacement_ITER6 FLOAT
 -5.077523e-02  -7.185444e-02  0 
 -5.063151e-02  -7.027200e-02  0 
 -5.069422e-02  -7.110125e-02  0 
 -5.226139e-02  -7.192478e-02  0 
 -5.147719e-02  -7.190184e-02  0 
 -4.575373e-02  -7.180015e-02  0 
 -4.068502e-02  -7.171062e-02  0 
 -5.083435e-02  -7.691495e-02  0 
 -5.088930e-02  -8.201310e-02  0 
 -5.091651e-02  -8.715124e-02  0 
 -5.175314e-02  -7.124929e-02  0 
 -5.123414e-02  -7.077364e-02  0 
 -5.195577e-02  -7.034433e-02  0 
 -5.266755e-02  -7.111821e-02  0 
 -5.118151e-02  -7.139836e-02  0 
 -4.649830e-02  -7.006727e-02  0 
 -3.175626e-02  -6.266013e-02  0 
 -4.074517e-02  -6.194598e-02  0 
 -4.583687e-02  -6.820312e-02  0 
 -3.962187e-02  -6.264735e-02  0 
 -2.686302e-02  -5.276142e-02  0 
 -4.198924e-02  -6.895039e-02  0 
 -5.240300e-02  -7.858593e-02  0 
 -5.137945e-02  -8.185904e-02  0 
 -5.095273e-02  -7.605749e-02  0 
 -4.178522e-02  -8.254520e-02  0 
 -4.568064e-02  -7.574673e-02  0 
 -4.742339e-02  -7.949336e-02  0 
 -4.594033e-02  -8.333340e-02  0 
 -4.246517e-02  -7.836781e-02  0 
 -4.168951e-02  -8.640742e-02  0 
VECTORS displacement_ITER7 FLOAT
 -3.599016e-02  -5.083017e-02  0 
 -3.584075e-02  -4.297878e-02  0 
 -3.590297e-02  -4.694550e-02  0 
 -4.378667e-02  -5.093603e-02  0 
 -3.983646e-02  -5.090092e-02  0 
 -3.214655e-02  -5.075985e-02  0 
 -2.825532e-02  -5.065599e-02  0 
 -3.605427e-02  -5.470429e-02  0 
 -3.611390e-02  -5.862173e-02  0 
 -3.614263e-02  -6.258250e-02  0 
 -4.124772e-02  -4.756997e-02  0 
 -3.863442e-02  -4.520764e-02  0 
 -4.227967e-02  -4.305191e-02  0 
 -4.581657e-02  -4.691479e-02  0 
 -3.831206e-02  -4.831504e-02  0 
 -3.159092e-02  -4.871352e-02  0 
 -2.384028e-02  -4.604783e-02  0 
 -2.906584e-02  -4.105260e-02  0 
 -3.151926e-02  -4.566120e-02  0 
 -2.653951e-02  -4.533722e-02  0 
 -2.321414e-02  -4.805478e-02  0 
 -2.867147e-02  -4.852743e-02  0 
 -4.130611e-02  -5.850880e-02  0 
 -3.827175e-02  -6.083037e-02  0 
 -3.762021e-02  -5.508879e-02  0 
 -2.911516e-02  -5.901613e-02  0 
 -3.210336e-02  -5.378812e-02  0 
 -3.344492e-02  -5.667306e-02  0 
 -3.230706e-02  -5.962888e-02  0 
 -2.963306e-02  -5.580217e-02  0 
 -2.904827e-02  -6.198573e-02  0 
VECTORS displacement_ITER8 FLOAT
 -3.398621e-02  -3.999088e-02  0 
 -3.382969e-02  -2.913206e-02  0 
 -3.389469e-02  -3.460657e-02  0 
 -4.479900e-02  -4.011074e-02  0 
 -3.933578e-02  -4.007097e-02  0 
 -3.082883e-02  -3.991353e-02  0 
 -2.762355e-02  -3.980283e-02  0 
 -3.405320e-02  -4.317660e-02  0 
 -3.411453e-02  -4.640729e-02  0 
 -3.414368e-02  -4.968338e-02  0 
 -4.129021e-02  -3.545926e-02  0 
 -3.767610e-02  -3.219449e-02  0 
 -4.271797e-02  -2.921528e-02  0 
 -4.760439e-02  -3.455390e-02  0 
 -3.722445e-02  -3.649002e-02  0 
 -2.966966e-02  -3.758717e-02  0 
 -2.517352e-02  -3.648362e-02  0 
 -2.846304e-02  -3.012378e-02  0 
 -2.978117e-02  -3.393969e-02  0 
 -2.549040e-02  -3.575196e-02  0 
 -2.626293e-02  -4.316805e-02  0 
 -2.760187e-02  -3.772495e-02  0 
 -4.091438e-02  -4.799162e-02  0 
 -3.688922e-02  -4.981304e-02  0 
 -3.624387e-02  -4.422723e-02  0 
 -2.834217e-02  -4.672211e-02  0 
 -3.080221e-02  -4.240739e-02  0 
 -3.191023e-02  -4.479153e-02  0 
 -3.097330e-02  -4.723329e-02  0 
 -2.876556e-02  -4.406885e-02  0 
 -2.829244e-02  -4.917240e-02  0 
VECTORS displacement_ITER9 FLOAT
 -2.254706e-02  -2.834326e-02  0 
 -2.238097e-02  -1.892466e-02  0 
 -2.245149e-02  -2.368551e-02  0 
 -3.191615e-02  -2.847462e-02  0 
 -2.717373e-02  -2.843181e-02  0 
 -1.988372e-02  -2.825972e-02  0 
 -1.717138e-02  -2.814412e-02  0 
 -2.261544e-02  -3.103098e-02  0 
 -2.267837e-02  -3.376718e-02  0 
 -2.270707e-02  -3.655197e-02  0 
 -2.886783e-02  -2.443443e-02  0 
 -2.572984e-02  -2.159845e-02  0 
 -3.010642e-02  -1.901343e-02  0 
 -3.435355e-02  -2.365275e-02  0 
 -2.534096e-02  -2.532523e-02  0 
 -1.889277e-02  -2.607237e-02  0 
 -1.411845e-02  -2.410408e-02  0 
 -1.715208e-02  -1.914915e-02  0 
 -1.877321e-02  -2.279355e-02  0 
 -1.497680e-02  -2.359193e-02  0 
 -1.458542e-02  -2.852259e-02  0 
 -1.706219e-02  -2.604948e-02  0 
 -2.839357e-02  -3.568977e-02  0 
 -2.483730e-02  -3.722142e-02  0 
 -2.435332e-02  -3.219106e-02  0 
 -1.778276e-02  -3.403046e-02  0 
 -1.986867e-02  -3.036816e-02  0 
 -2.080823e-02  -3.239155e-02  0 
 -2.001480e-02  -3.446493e-02  0 
 -1.814215e-02  -3.177671e-02  0 
 -1.774223e-02  -3.611307e-02  0 
VECTORS displacement_ITER10 FLOAT
 -2.232559e-02  -2.506316e-02  0 
 -2.215415e-02  -2.102317e-02  0 
 -2.222842e-02  -2.309782e-02  0 
 -2.630374e-02  -2.519479e-02  0 
 -2.425904e-02  -2.515268e-02  0 
 -2.022959e-02  -2.497844e-02  0 
 -1.808312e-02  -2.486141e-02  0 
 -2.239386e-02  -2.718262e-02  0 
 -2.245657e-02  -2.935229e-02  0 
 -2.248411e-02  -3.157240e-02  0 
 -2.498256e-02  -2.344543e-02  0 
 -2.362880e-02  -2.221836e-02  0 
 -2.551592e-02  -2.110132e-02  0 
 -2.736242e-02  -2.311381e-02  0 
 -2.347246e-02  -2.382215e-02  0 
 -1.985746e-02  -2.361749e-02  0 
 -1.280713e-02  -1.918217e-02  0 
 -1.627112e-02  -1.800015e-02  0 
 -1.920550e-02  -2.166929e-02  0 
 -1.583759e-02  -1.939828e-02  0 
 -1.089536e-02  -1.729989e-02  0 
 -1.798656e-02  -2.302202e-02  0 
 -2.458944e-02  -3.081427e-02  0 
 -2.276691e-02  -3.210539e-02  0 
 -2.265089e-02  -2.811700e-02  0 
 -1.856956e-02  -2.955800e-02  0 
 -2.022570e-02  -2.664444e-02  0 
 -2.097135e-02  -2.825341e-02  0 
 -2.034297e-02  -2.990390e-02  0 
 -1.885576e-02  -2.776275e-02  0 
 -1.853958e-02  -3.122006e-02  0 
VECTORS displacement_ITER11 FLOAT
 -1.792789e-02  -1.913558e-02  0 
 -1.775523e-02  -1.786218e-02  0 
 -1.783022e-02  -1.855457e-02  0 
 -1.913825e-02  -1.927010e-02  0 
 -1.847857e-02  -1.922763e-02  0 
 -1.562381e-02  -1.904847e-02  0 
 -1.326857e-02  -1.892907e-02  0 
 -1.799636e-02  -2.146087e-02  0 
 -1.805953e-02  -2.383885e-02  0 
 -1.808619e-02  -2.626873e-02  0 
 -1.870341e-02  -1.869638e-02  0 
 -1.826541e-02  -1.829536e-02  0 
 -1.887492e-02  -1.793151e-02  0 
 -1.948937e-02  -1.859594e-02  0 
 -1.822862e-02  -1.880847e-02  0 
 -1.563899e-02  -1.809734e-02  0 
 -7.095636e-03  -1.239412e-02  0 
 -1.113282e-02  -1.282382e-02  0 
 -1.482471e-02  -1.681182e-02  0 
 -1.120814e-02  -1.302918e-02  0 
 -4.118170e-03  -7.778965e-03  0 
 -1.340121e-02  -1.714217e-02  0 
 -1.843432e-02  -2.428006e-02  0 
 -1.751091e-02  -2.576177e-02  0 
 -1.755860e-02  -2.201474e-02  0 
 -1.379437e-02  -2.407299e-02  0 
 -1.561621e-02  -2.087636e-02  0 
 -1.643300e-02  -2.263867e-02  0 
 -1.574268e-02  -2.444766e-02  0 
 -1.411242e-02  -2.210294e-02  0 
 -1.375708e-02  -2.589948e-02  0 
VECTORS displacement_ITER12 FLOAT
 -1.482462e-02  -1.628684e-02  0 
 -1.465018e-02  -1.654982e-02  0 
 -1.472541e-02  -1.647418e-02  0 
 -1.450173e-02  -1.642606e-02  0 
 -1.460760e-02  -1.638216e-02  0 
 -1.290514e-02  -1.619798e-02  0 
 -1.093477e-02  -1.607687e-02  0 
 -1.489454e-02  -1.822757e-02  0 
 -1.495876e-02  -2.022254e-02  0 
 -1.498469e-02  -2.227013e-02  0 
 -1.455646e-02  -1.650215e-02  0 
 -1.462489e-02  -1.655857e-02  0 
 -1.452885e-02  -1.660906e-02  0 
 -1.446321e-02  -1.652853e-02  0 
 -1.465479e-02  -1.646767e-02  0 
 -1.297312e-02  -1.569743e-02  0 
 -6.636561e-03  -1.074277e-02  0 
 -8.858496e-03  -1.186913e-02  0 
 -1.221384e-02  -1.508465e-02  0 
 -9.296930e-03  -1.156935e-02  0 
 -4.583569e-03  -7.811942e-03  0 
 -1.112921e-02  -1.464256e-02  0 
 -1.424298e-02  -2.088656e-02  0 
 -1.382839e-02  -2.213047e-02  0 
 -1.399961e-02  -1.884094e-02  0 
 -1.137486e-02  -2.041650e-02  0 
 -1.290564e-02  -1.772570e-02  0 
 -1.359181e-02  -1.920842e-02  0 
 -1.301335e-02  -2.073162e-02  0 
 -1.164343e-02  -1.875579e-02  0 
 -1.134467e-02  -2.195940e-02  0 
VECTORS displacement_ITER13 FLOAT
 -8.106271e-03  -1.100278e-02  0 
 -7.927306e-03  -9.623684e-03  0 
 -8.003149e-03  -1.036915e-02  0 
 -9.436934e-03  -1.115327e-02  0 
 -8.711206e-03  -1.110518e-02  0 
 -6.911214e-03  -1.091098e-02  0 
 -5.665699e-03  -1.078756e-02  0 
 -8.179430e-03  -1.222057e-02  0 
 -8.246025e-03  -1.349363e-02  0 
 -8.271742e-03  -1.481989e-02  0 
 -8.958070e-03  -1.052255e-02  0 
 -8.476539e-03  -1.008400e-02  0 
 -9.149446e-03  -9.678528e-03  0 
 -9.826766e-03  -1.040960e-02  0 
 -8.436453e-03  -1.064479e-02  0 
 -6.582813e-03  -1.037633e-02  0 
 -5.849607e-03  -8.030462e-03  0 
 -4.366441e-03  -8.100576e-03  0 
 -6.161673e-03  -9.824806e-03  0 
 -4.579760e-03  -8.725946e-03  0 
 -6.890413e-03  -1.135759e-02  0 
 -5.779868e-03  -9.573430e-03  0 
 -8.337341e-03  -1.561121e-02  0 
 -7.405873e-03  -1.632446e-02  0 
 -7.589725e-03  -1.337211e-02  0 
 -5.950703e-03  -1.360588e-02  0 
 -6.927249e-03  -1.187411e-02  0 
 -7.367545e-03  -1.282944e-02  0 
 -7.000618e-03  -1.381202e-02  0 
 -6.121938e-03  -1.253307e-02  0 
 -5.936737e-03  -1.460625e-02  0 
VECTORS displacement_ITER14 FLOAT
 -6.568699e-03  -9.638145e-03  0 
 -6.388603e-03  -7.318983e-03  0 
 -6.464249e-03  -8.532996e-03  0 
 -8.846149e-03  -9.793086e-03  0 
 -7.645096e-03  -9.743119e-03  0 
 -5.493140e-03  -9.546212e-03  0 
 -4.366264e-03  -9.423152e-03  0 
 -6.642336e-03  -1.073728e-02  0 
 -6.709331e-03  -1.189130e-02  0 
 -6.735242e-03  -1.309871e-02  0 
 -8.062415e-03  -8.758300e-03  0 
 -7.266232e-03  -8.036407e-03  0 
 -8.378937e-03  -7.370390e-03  0 
 -9.480782e-03  -8.565582e-03  0 
 -7.186139e-03  -8.970185e-03  0 
 -5.175951e-03  -8.675312e-03  0 
 -4.913947e-03  -6.579966e-03  0 
 -3.373771e-03  -6.364664e-03  0 
 -4.808254e-03  -7.896952e-03  0 
 -3.536596e-03  -7.052916e-03  0 
 -6.306411e-03  -9.658797e-03  0 
 -4.531314e-03  -8.004567e-03  0 
 -7.255098e-03  -1.423437e-02  0 
 -6.005432e-03  -1.488017e-02  0 
 -6.253272e-03  -1.200781e-02  0 
 -4.627459e-03  -1.198887e-02  0 
 -5.511558e-03  -1.041671e-02  0 
 -5.911248e-03  -1.128480e-02  0 
 -5.579266e-03  -1.217777e-02  0 
 -4.781733e-03  -1.101443e-02  0 
 -4.616827e-03  -1.289791e-02  0 
VECTORS displacement_ITER15 FLOAT
 -4.222846e-03  -1.111644e-02  0 
 -4.040821e-03  -8.830892e-03  0 
 -4.116439e-03  -1.002527e-02  0 
 -6.475729e-03  -1.127689e-02  0 
 -5.284459e-03  -1.122451e-02  0 
 -3.797654e-03  -1.102498e-02  0 
 -3.318817e-03  -1.090307e-02  0 
 -4.296663e-03  -1.156663e-02  0 
 -4.363987e-03  -1.207076e-02  0 
 -4.390576e-03  -1.262883e-02  0 
 -5.697507e-03  -1.025008e-02  0 
 -4.907614e-03  -9.534889e-03  0 
 -6.013295e-03  -8.870201e-03  0 
 -7.108610e-03  -1.005741e-02  0 
 -4.829866e-03  -1.045908e-02  0 
 -3.536791e-03  -9.982221e-03  0 
 -3.080102e-03  -7.090985e-03  0 
 -1.770499e-03  -8.076176e-03  0 
 -3.025874e-03  -9.184435e-03  0 
 -2.381390e-03  -7.867767e-03  0 
 -3.742776e-03  -7.717872e-03  0 
 -3.318358e-03  -9.321514e-03  0 
 -4.604307e-03  -1.505562e-02  0 
 -3.339547e-03  -1.534604e-02  0 
 -3.790939e-03  -1.309144e-02  0 
 -3.447321e-03  -1.209221e-02  0 
 -3.828838e-03  -1.138945e-02  0 
 -4.006306e-03  -1.178065e-02  0 
 -3.865017e-03  -1.218481e-02  0 
 -3.510935e-03  -1.165242e-02  0 
 -3.453342e-03  -1.250599e-02  0 
VECTORS displacement_ITER16 FLOAT
 -3.590399e-03  -1.204562e-02  0 
 -3.403279e-03  -1.061784e-02  0 
 -3.481102e-03  -1.138367e-02  0 
 -4.987775e-03  -1.221042e-02  0 
 -4.222280e-03  -1.215677e-02  0 
 -3.986461e-03  -1.195283e-02  0 
 -4.327238e-03  -1.182983e-02  0 
 -3.665624e-03  -1.167523e-02  0 
 -3.734538e-03  -1.135963e-02  0 
 -3.762354e-03  -1.109954e-02  0 
 -4.481752e-03  -1.154559e-02  0 
 -3.973495e-03  -1.108526e-02  0 
 -4.687327e-03  -1.064986e-02  0 
 -5.404917e-03  -1.142310e-02  0 
 -3.933365e-03  -1.167300e-02  0 
 -3.575442e-03  -1.128346e-02  0 
 -4.092678e-03  -7.841927e-03  0 
 -1.951398e-03  -1.045491e-02  0 
 -2.959367e-03  -1.081407e-02  0 
 -2.914111e-03  -9.543165e-03  0 
 -4.324211e-03  -8.636144e-03  0 
 -3.983279e-03  -1.048345e-02  0 
 -3.234990e-03  -1.513688e-02  0 
 -2.245202e-03  -1.495450e-02  0 
 -2.851882e-03  -1.346108e-02  0 
 -4.285140e-03  -1.128649e-02  0 
 -4.034607e-03  -1.167750e-02  0 
 -3.932059e-03  -1.146787e-02  0 
 -4.031279e-03  -1.125648e-02  0 
 -4.236049e-03  -1.151824e-02  0 
 -4.310978e-03  -1.107915e-02  0 
VECTORS displacement_ITER17 FLOAT
 -1.458885e-03  -9.640520e-03  0 
 -1.264710e-03  -7.939963e-03  0 
 -1.346054e-03  -8.843913e-03  0 
 -3.126234e-03  -9.808297e-03  0 
 -2.224355e-03  -9.754306e-03  0 
 -1.595323e-03  -9.545846e-03  0 
 -1.675328e-03  -9.420378e-03  0 
 -1.536410e-03  -9.530619e-03  0 
 -1.607514e-03  -9.477484e-03  0 
 -1.636645e-03  -9.481520e-03  0 
 -2.532764e-03  -9.028124e-03  0 
 -1.933570e-03  -8.485684e-03  0 
 -2.773753e-03  -7.976554e-03  0 
 -3.613397e-03  -8.883726e-03  0 
 -1.882395e-03  -9.181065e-03  0 
 -1.256545e-03  -8.815954e-03  0 
 -1.654749e-03  -6.055013e-03  0 
 6.391707e-05  -7.665002e-03  0 
 -7.811104e-04  -8.248160e-03  0 
 -5.723714e-04  -7.260711e-03  0 
 -2.397812e-03  -7.539826e-03  0 
 -1.461639e-03  -8.165634e-03  0 
 -1.224841e-03  -1.257143e-02  0 
 -1.390809e-04  -1.261053e-02  0 
 -8.284554e-04  -1.110936e-02  0 
 -1.687069e-03  -9.433696e-03  0 
 -1.639095e-03  -9.473453e-03  0 
 -1.626448e-03  -9.456551e-03  0 
 -1.649063e-03  -9.442903e-03  0 
 -1.674522e-03  -9.449161e-03  0 
 -1.706489e-03  -9.427064e-03  0 
VECTORS displacement_ITER18 FLOAT
 -1.823378e-03  -9.652309e-03  0 
 -1.628804e-03  -8.617114e-03  0 
 -1.710299e-03  -9.188007e-03  0 
 -2.825829e-03  -9.819914e-03  0 
 -2.256608e-03  -9.766371e-03  0 
 -1.896362e-03  -9.557353e-03  0 
 -1.912842e-03  -9.431282e-03  0 
 -1.901155e-03  -9.605568e-03  0 
 -1.972732e-03  -9.616775e-03  0 
 -2.002597e-03  -9.685428e-03  0 
 -2.445388e-03  -9.322673e-03  0 
 -2.065949e-03  -8.978690e-03  0 
 -2.599599e-03  -8.650171e-03  0 
 -3.143288e-03  -9.233630e-03  0 
 -2.043589e-03  -9.412191e-03  0 
 -1.640297e-03  -9.012162e-03  0 
 -1.427719e-03  -6.330941e-03  0 
 -2.257854e-04  -7.939649e-03  0 
 -1.170960e-03  -8.594573e-03  0 
 -8.615788e-04  -7.422152e-03  0 
 -1.773320e-03  -7.106380e-03  0 
 -1.715389e-03  -8.389970e-03  0 
 -1.106879e-03  -1.221561e-02  0 
 -2.238190e-04  -1.235678e-02  0 
 -1.028953e-03  -1.102193e-02  0 
 -1.937495e-03  -9.579920e-03  0 
 -1.938984e-03  -9.534279e-03  0 
 -1.948113e-03  -9.564188e-03  0 
 -1.952144e-03  -9.598562e-03  0 
 -1.933987e-03  -9.542717e-03  0 
 -1.955208e-03  -9.622034e-03  0 
VECTORS displacement_ITER19 FLOAT
 -2.527453e-03  -9.628321e-03  0 
 -2.335605e-03  -9.051394e-03  0 
 -2.415426e-03  -9.391866e-03  0 
 -3.075607e-03  -9.795813e-03  0 
 -2.733685e-03  -9.742306e-03  0 
 -2.872795e-03  -9.533727e-03  0 
 -3.162567e-03  -9.408126e-03  0 
 -2.604779e-03  -9.308687e-03  0 
 -2.676131e-03  -9.047609e-03  0 
 -2.706429e-03  -8.843267e-03  0 
 -2.840675e-03  -9.491832e-03  0 
 -2.611669e-03  -9.284019e-03  0 
 -2.936069e-03  -9.077961e-03  0 
 -3.277697e-03  -9.440060e-03  0 
 -2.608927e-03  -9.537967e-03  0 
 -2.540205e-03  -9.235702e-03  0 
 -2.781489e-03  -6.643979e-03  0 
 -1.226055e-03  -8.704947e-03  0 
 -2.056806e-03  -9.011518e-03  0 
 -1.962008e-03  -8.005128e-03  0 
 -2.833882e-03  -7.496145e-03  0 
 -2.832497e-03  -8.597990e-03  0 
 -1.410998e-03  -1.180212e-02  0 
 -6.588393e-04  -1.181398e-02  0 
 -1.572001e-03  -1.078560e-02  0 
 -3.129637e-03  -8.978904e-03  0 
 -2.920696e-03  -9.297783e-03  0 
 -2.836451e-03  -9.127594e-03  0 
 -2.920626e-03  -8.956565e-03  0 
 -3.088716e-03  -9.165500e-03  0 
 -3.153678e-03  -8.813318e-03  0 
VECTORS displacement_ITER20 FLOAT
 -1.299477e-03  -8.898621e-03  0 
 -1.107996e-03  -6.689092e-03  0 
 -1.187178e-03  -7.845478e-03  0 
 -3.484299e-03  -9.068851e-03  0 
 -2.323221e-03  -9.014249e-03  0 
 -1.157840e-03  -8.803536e-03  0 
 -9.612801e-04  -8.677688e-03  0 
 -1.377248e-03  -9.065831e-03  0 
 -1.448939e-03  -9.292175e-03  0 
 -1.479410e-03  -9.575041e-03  0 
 -2.724620e-03  -8.068717e-03  0 
 -1.953283e-03  -7.371522e-03  0 
 -3.034072e-03  -6.720059e-03  0 
 -4.105569e-03  -7.881056e-03  0 
 -1.880314e-03  -8.270090e-03  0 
 -8.429961e-04  -8.065300e-03  0 
 -1.469524e-03  -6.586591e-03  0 
 -1.489130e-04  -6.804982e-03  0 
 -5.953672e-04  -7.403017e-03  0 
 -2.989337e-04  -7.147484e-03  0 
 -2.571990e-03  -8.788983e-03  0 
 -8.846474e-04  -7.685198e-03  0 
 -1.193032e-03  -1.148988e-02  0 
 1.123653e-04  -1.183118e-02  0 
 -7.995818e-04  -1.040956e-02  0 
 -1.029684e-03  -9.278314e-03  0 
 -1.196148e-03  -8.947166e-03  0 
 -1.278572e-03  -9.134333e-03  0 
 -1.220035e-03  -9.329161e-03  0 
 -1.055694e-03  -9.065610e-03  0 
 -1.041910e-03  -9.481656e-03  0 
VECTORS displacement_ITER21 FLOAT
 -2.118788e-03  -8.950825e-03  0 
 -1.927776e-03  -7.523701e-03  0 
 -2.006732e-03  -8.288503e-03  0 
 -3.519598e-03  -9.119798e-03  0 
 -2.750899e-03  -9.065440e-03  0 
 -2.297891e-03  -8.856741e-03  0 
 -2.421725e-03  -8.731937e-03  0 
 -2.196226e-03  -8.797839e-03  0 
 -2.267587e-03  -8.703232e-03  0 
 -2.297958e-03  -8.665175e-03  0 
 -3.011237e-03  -8.452914e-03  0 
 -2.499484e-03  -7.989857e-03  0 
 -3.218465e-03  -7.551209e-03  0 
 -3.940828e-03  -8.330087e-03  0 
 -2.460387e-03  -8.579790e-03  0 
 -1.971890e-03  -8.340941e-03  0 
 -2.367958e-03  -6.326172e-03  0 
 -1.025371e-03  -7.351074e-03  0 
 -1.616868e-03  -7.864262e-03  0 
 -1.450518e-03  -7.266579e-03  0 
 -2.794774e-03  -7.650876e-03  0 
 -2.177039e-03  -7.861919e-03  0 
 -1.430431e-03  -1.106702e-02  0 
 -3.605576e-04  -1.125941e-02  0 
 -1.377874e-03  -1.019235e-02  0 
 -2.423215e-03  -8.653188e-03  0 
 -2.342269e-03  -8.750305e-03  0 
 -2.315010e-03  -8.702031e-03  0 
 -2.350629e-03  -8.655712e-03  0 
 -2.405260e-03  -8.703331e-03  0 
 -2.442898e-03  -8.613365e-03  0 
VECTORS displacement_ITER22 FLOAT
 -2.297010e-03  -8.650961e-03  0 
 -2.106967e-03  -7.012796e-03  0 
 -2.185398e-03  -7.882737e-03  0 
 -3.908720e-03  -8.819061e-03  0 
 -3.034851e-03  -8.764876e-03  0 
 -2.455322e-03  -8.557808e-03  0 
 -2.558044e-03  -8.434443e-03  0 
 -2.374138e-03  -8.518885e-03  0 
 -2.445503e-03  -8.444328e-03  0 
 -2.475936e-03  -8.427219e-03  0 
 -3.333131e-03  -8.062862e-03  0 
 -2.751568e-03  -7.536740e-03  0 
 -3.568001e-03  -7.040797e-03  0 
 -4.384067e-03  -7.922346e-03  0 
 -2.703438e-03  -8.209792e-03  0 
 -2.113729e-03  -8.061895e-03  0 
 -2.221626e-03  -6.323592e-03  0 
 -1.367369e-03  -7.021470e-03  0 
 -1.817666e-03  -7.511098e-03  0 
 -1.594151e-03  -7.129117e-03  0 
 -2.515018e-03  -7.570633e-03  0 
 -2.284964e-03  -7.696477e-03  0 
 -1.684633e-03  -1.056665e-02  0 
 -5.182916e-04  -1.083887e-02  0 
 -1.613161e-03  -9.850529e-03  0 
 -2.564793e-03  -8.396421e-03  0 
 -2.498976e-03  -8.467388e-03  0 
 -2.478869e-03  -8.433521e-03  0 
 -2.508580e-03  -8.402259e-03  0 
 -2.549372e-03  -8.430355e-03  0 
 -2.583901e-03  -8.371169e-03  0 
VECTORS displacement_ITER23 FLOAT
 -2.389864e-03  -8.748897e-03  0 
 -2.200368e-03  -6.977746e-03  0 
 -2.278484e-03  -7.913200e-03  0 
 -4.133829e-03  -8.915425e-03  0 
 -3.194011e-03  -8.861568e-03  0 
 -2.538061e-03  -8.657654e-03  0 
 -2.630518e-03  -8.536629e-03  0 
 -2.466608e-03  -8.628214e-03  0 
 -2.537737e-03  -8.564011e-03  0 
 -2.568212e-03  -8.557298e-03  0 
 -3.516161e-03  -8.103314e-03  0 
 -2.890731e-03  -7.537574e-03  0 
 -3.768458e-03  -7.005542e-03  0 
 -4.643237e-03  -7.951394e-03  0 
 -2.837094e-03  -8.262979e-03  0 
 -2.280263e-03  -8.016867e-03  0 
 -2.074764e-03  -6.122907e-03  0 
 -1.598181e-03  -6.900791e-03  0 
 -1.990782e-03  -7.401143e-03  0 
 -1.823560e-03  -6.868660e-03  0 
 -2.137097e-03  -6.372896e-03  0 
 -2.427155e-03  -7.683502e-03  0 
 -1.793429e-03  -1.051205e-02  0 
 -5.437880e-04  -1.086199e-02  0 
 -1.723884e-03  -9.924188e-03  0 
 -2.639386e-03  -8.516867e-03  0 
 -2.580734e-03  -8.575162e-03  0 
 -2.564101e-03  -8.548362e-03  0 
 -2.590979e-03  -8.524347e-03  0 
 -2.625117e-03  -8.543034e-03  0 
 -2.658153e-03  -8.498139e-03  0 
VECTORS displacement_ITER24 FLOAT
 -1.856528e-03  -8.205682e-03  0 
 -1.667411e-03  -5.579272e-03  0 
 -1.745104e-03  -6.941718e-03  0 
 -4.456508e-03  -8.371715e-03  0 
 -3.088240e-03  -8.317878e-03  0 
 -1.879819e-03  -8.115534e-03  0 
 -1.848218e-03  -7.995836e-03  0 
 -1.933676e-03  -8.211254e-03  0 
 -2.005179e-03  -8.273153e-03  0 
 -2.035956e-03  -8.392211e-03  0 
 -3.564607e-03  -7.195854e-03  0 
 -2.655639e-03  -6.374388e-03  0 
 -3.928968e-03  -5.609238e-03  0 
 -5.185058e-03  -6.972299e-03  0 
 -2.565240e-03  -7.437220e-03  0 
 -1.592047e-03  -7.279329e-03  0 
 -2.269588e-03  -6.051159e-03  0 
 -1.438597e-03  -6.057745e-03  0 
 -1.455467e-03  -6.494759e-03  0 
 -1.351227e-03  -6.566923e-03  0 
 -3.104913e-03  -7.578455e-03  0 
 -1.764091e-03  -7.053696e-03  0 
 -1.775366e-03  -1.017379e-02  0 
 -2.153850e-04  -1.063286e-02  0 
 -1.402003e-03  -9.522908e-03  0 
 -1.882005e-03  -8.239351e-03  0 
 -1.919557e-03  -8.130254e-03  0 
 -1.946007e-03  -8.195663e-03  0 
 -1.936361e-03  -8.265779e-03  0 
 -1.884935e-03  -8.162457e-03  0 
 -1.897616e-03  -8.315268e-03  0 
VECTORS displacement_ITER25 FLOAT
 -2.979588e-03  -8.371182e-03  0 
 -2.792188e-03  -6.520095e-03  0 
 -2.869216e-03  -7.493682e-03  0 
 -4.800470e-03  -8.532369e-03  0 
 -3.822902e-03  -8.480138e-03  0 
 -2.954546e-03  -8.283638e-03  0 
 -2.874928e-03  -8.166355e-03  0 
 -3.056278e-03  -8.426736e-03  0 
 -3.127659e-03  -8.538028e-03  0 
 -3.158987e-03  -8.706199e-03  0 
 -4.159194e-03  -7.688787e-03  0 
 -3.508649e-03  -7.100378e-03  0 
 -4.421433e-03  -6.547868e-03  0 
 -5.328906e-03  -7.529557e-03  0 
 -3.451715e-03  -7.856637e-03  0 
 -2.812346e-03  -7.563111e-03  0 
 -2.393677e-03  -5.937235e-03  0 
 -2.421978e-03  -6.256795e-03  0 
 -2.641441e-03  -6.896857e-03  0 
 -2.392176e-03  -6.469583e-03  0 
 -2.465660e-03  -5.782012e-03  0 
 -2.819910e-03  -7.315603e-03  0 
 -2.383123e-03  -1.014416e-02  0 
 -1.028409e-03  -1.071268e-02  0 
 -2.304736e-03  -9.642661e-03  0 
 -2.918467e-03  -8.508741e-03  0 
 -2.992347e-03  -8.335816e-03  0 
 -3.035368e-03  -8.436510e-03  0 
 -3.011882e-03  -8.542653e-03  0 
 -2.927667e-03  -8.392410e-03  0 
 -2.932988e-03  -8.620256e-03  0 
VECTORS displacement_ITER26 FLOAT
 -2.533122e-03  -7.712229e-03  0 
 -2.347230e-03  -5.533334e-03  0 
 -2.423606e-03  -6.670145e-03  0 
 -4.679736e-03  -7.870192e-03  0 
 -3.539943e-03  -7.819012e-03  0 
 -2.285965e-03  -7.626670e-03  0 
 -1.984740e-03  -7.511643e-03  0 
 -2.609552e-03  -7.991065e-03  0 
 -2.681081e-03  -8.325001e-03  0 
 -2.713020e-03  -8.716333e-03  0 
 -3.934954e-03  -6.889195e-03  0 
 -3.176937e-03  -6.203669e-03  0 
 -4.239309e-03  -5.563661e-03  0 
 -5.290504e-03  -6.702865e-03  0 
 -3.105859e-03  -7.088433e-03  0 
 -2.212766e-03  -6.808061e-03  0 
 -1.455208e-03  -5.542626e-03  0 
 -2.096023e-03  -5.270829e-03  0 
 -2.155296e-03  -6.027098e-03  0 
 -1.762726e-03  -5.794090e-03  0 
 -1.529130e-03  -5.180974e-03  0 
 -2.051823e-03  -6.682189e-03  0 
 -2.142236e-03  -9.606414e-03  0 
 -6.361756e-04  -1.037556e-02  0 
 -1.944143e-03  -9.120791e-03  0 
 -2.074368e-03  -8.320062e-03  0 
 -2.318570e-03  -7.851710e-03  0 
 -2.437649e-03  -8.114919e-03  0 
 -2.349274e-03  -8.387542e-03  0 
 -2.113741e-03  -8.022131e-03  0 
 -2.083481e-03  -8.598294e-03  0 
VECTORS displacement_ITER27 FLOAT
 -3.088031e-03  -7.767447e-03  0 
 -2.906254e-03  -5.764128e-03  0 
 -2.980388e-03  -6.811291e-03  0 
 -5.061316e-03  -7.923025e-03  0 