# vtk DataFile Version 3.1
this is an vtk file created by FEMAC
ASCII
DATASET UNSTRUCTURED_GRID
POINTS 31 FLOAT
4.000000 6.000000 0.000000
5.000000 5.000000 0.000000
5.000000 6.000000 0.000000
3.500000 6.000000 0.000000
3.750000 6.000000 0.000000
4.000000 5.500000 0.000000
4.000000 5.750000 0.000000
4.500000 5.000000 0.000000
4.750000 5.000000 0.000000
4.250000 6.000000 0.000000
4.500000 6.000000 0.000000
4.750000 6.000000 0.000000
5.000000 5.250000 0.000000
5.000000 5.500000 0.000000
5.000000 5.750000 0.000000
3.745000 5.805000 0.000000
3.757141 5.565925 0.000000
3.546713 5.717271 0.000000
4.500000 5.500000 0.000000
4.805000 5.745000 0.000000
4.745000 5.195000 0.000000
4.255000 5.805000 0.000000
4.195000 5.255000 0.000000
4.799000 5.384000 0.000000
4.616000 5.799000 0.000000
4.384000 5.201000 0.000000
4.201000 5.616000 0.000000
4.325714 5.438857 0.000000
4.433602 5.681622 0.000000
4.555888 5.333051 0.000000
4.672784 5.563239 0.000000
CELLS 42 168 
3 3 15  4
3 6 16  5
3 17 16 15
3 15 16  6
3 3 17 15
3 15  0  4
3 6  0 15
3 19 13 14
3 20  7  8
3 21 10  9
3 26  6  5
3 23 12 13
3 24 11 10
3 23 29 20
3 24 30 19
3 25 27 22
3 26 28 21
3 23 20 12
3 24 19 11
3 26 21  6
3 27  5 22
3 26  5 27
3 18 28 27
3 26 27 28
3 29  7 20
3 25  7 29
3 18 27 29
3 25 29 27
3 28 10 21
3 24 10 28
3 18 30 28
3 24 28 30
3 30 13 19
3 23 13 30
3 18 29 30
3 23 30 29
3 1 20  8
3 1 12 20
3 19  2 11
3 14  2 19
3 21  0  6
3 9  0 21
CELL_TYPES 42
5 5 5 5 5 5 5 5 5 5 5 5 5 5 5 5 5 5 5 5 5 5 5 5 5 5 5 5 5 5 5 5 5 5 5 5 5 5 5 5 5 5 
POINT_DATA 31
VECTORS displacement_ITER1 FLOAT
 1.765812e-01  -2.486708e-01  0 
 1.362419e-01  -3.134257e-01  0 
 2.284060e-01  -3.621793e-01  0 
 1.765443e-01  -2.108039e-01  0 
 1.765637e-01  -2.297360e-01  0 
 1.387480e-01  -2.486083e-01  0 
 1.576476e-01  -2.486460e-01  0 
 1.245570e-01  -2.722305e-01  0 
 1.290273e-01  -2.916933e-01  0 
 1.894263e-01  -2.796083e-01  0 
 2.005160e-01  -3.046123e-01  0 
 2.144037e-01  -3.311047e-01  0 
 1.537493e-01  -3.242578e-01  0 
 1.701197e-01  -3.332563e-01  0 
 1.960355e-01  -3.482997e-01  0 
 1.617972e-01  -2.293425e-01  0 
 1.437029e-01  -2.302512e-01  0 
 1.551482e-01  -2.143282e-01  0 
 1.563186e-01  -2.841998e-01  0 
 1.873615e-01  -3.233943e-01  0 
 1.417192e-01  -2.973760e-01  0 
 1.696023e-01  -2.720148e-01  0 
 1.359779e-01  -2.542958e-01  0 
 1.567229e-01  -3.094584e-01  0 
 1.853838e-01  -3.063999e-01  0 
 1.356902e-01  -2.669311e-01  0 
 1.529100e-01  -2.638576e-01  0 
 1.469496e-01  -2.668890e-01  0 
 1.664585e-01  -2.837235e-01  0 
 1.466511e-01  -2.839000e-01  0 
 1.661195e-01  -3.022222e-01  0 
VECTORS displacement_ITER2 FLOAT
 9.082964e-02  -1.078787e-01  0 
 5.867131e-02  -1.530434e-01  0 
 1.517080e-01  -1.588511e-01  0 
 9.079135e-02  -1.094232e-01  0 
 9.080999e-02  -1.086472e-01  0 
 9.236882e-02  -1.078248e-01  0 
 9.159338e-02  -1.078523e-01  0 
 6.153029e-02  -1.008324e-01  0 
 5.913232e-02  -1.232051e-01  0 
 1.080700e-01  -1.231092e-01  0 
 1.231346e-01  -1.341028e-01  0 
 1.378739e-01  -1.464942e-01  0 
 8.864701e-02  -1.541050e-01  0 
 1.137655e-01  -1.490340e-01  0 
 1.323380e-01  -1.522024e-01  0 
 9.141071e-02  -1.086462e-01  0 
 9.215218e-02  -1.085974e-01  0 
 9.167926e-02  -1.092677e-01  0 
 1.012805e-01  -1.104597e-01  0 
 1.259208e-01  -1.372039e-01  0 
 8.113302e-02  -1.232288e-01  0 
 1.003999e-01  -1.116043e-01  0 
 8.432897e-02  -9.386605e-02  0 
 1.007597e-01  -1.300241e-01  0 
 1.201085e-01  -1.288225e-01  0 
 8.072001e-02  -9.580688e-02  0 
 9.534833e-02  -1.053368e-01  0 
 9.493557e-02  -1.011320e-01  0 
 1.053802e-01  -1.130240e-01  0 
 9.284498e-02  -1.094482e-01  0 
 1.098327e-01  -1.226151e-01  0 
VECTORS displacement_ITER3 FLOAT
 5.091588e-02  -4.429951e-02  0 
 2.964544e-02  -5.915633e-02  0 
 8.944365e-02  -6.763474e-02  0 
 5.088442e-02  -3.618497e-02  0 
 5.089995e-02  -4.023433e-02  0 
 4.274875e-02  -4.429889e-02  0 
 4.685170e-02  -4.428657e-02  0 
 3.582777e-02  -6.132355e-02  0 
 3.215526e-02  -5.590249e-02  0 
 5.926165e-02  -5.501962e-02  0 
 6.725410e-02  -6.248316e-02  0 
 7.707963e-02  -6.783158e-02  0 
 4.534327e-02  -6.103718e-02  0 
 5.950886e-02  -6.670956e-02  0 
 7.481205e-02  -6.766611e-02  0 
 4.773424e-02  -4.013770e-02  0 
 4.383875e-02  -4.030937e-02  0 
 4.630907e-02  -3.693495e-02  0 
 5.021197e-02  -4.909878e-02  0 
 7.010925e-02  -6.011595e-02  0 
 3.829315e-02  -5.263866e-02  0 
 5.264617e-02  -4.948605e-02  0 
 3.947124e-02  -4.519731e-02  0 
 4.869230e-02  -5.632305e-02  0 
 6.515877e-02  -5.793658e-02  0 
 4.010714e-02  -4.949027e-02  0 
 4.765549e-02  -4.610164e-02  0 
 4.518121e-02  -4.627045e-02  0 
 5.451709e-02  -5.036673e-02  0 
 4.292498e-02  -4.939987e-02  0 
 5.654142e-02  -5.316298e-02  0 
VECTORS displacement_ITER4 FLOAT
 2.207944e-02  -2.195510e-02  0 
 8.373913e-03  -2.275420e-02  0 
 5.443933e-02  -2.096550e-02  0 
 2.205983e-02  -1.199086e-02  0 
 2.206936e-02  -1.696656e-02  0 
 1.207790e-02  -2.195580e-02  0 
 1.709413e-02  -2.194587e-02  0 
 1.115682e-02  -1.611097e-02  0 
 1.269526e-02  -2.539146e-02  0 
 2.716598e-02  -2.839455e-02  0 
 3.297522e-02  -3.166833e-02  0 
 4.197316e-02  -2.983730e-02  0 
 2.199601e-02  -2.419998e-02  0 
 3.548603e-02  -2.460427e-02  0 
 4.625116e-02  -2.259954e-02  0 
 1.818228e-02  -1.685666e-02  0 
 1.340451e-02  -1.707906e-02  0 
 1.642906e-02  -1.290968e-02  0 
 2.617413e-02  -1.636452e-02  0 
 4.220233e-02  -2.047984e-02  0 
 1.821025e-02  -1.954291e-02  0 
 2.265544e-02  -2.489436e-02  0 
 1.673612e-02  -1.385457e-02  0 
 2.687290e-02  -1.908526e-02  0 
 3.540779e-02  -2.408176e-02  0 
 1.775291e-02  -1.204080e-02  0 
 1.844826e-02  -2.121000e-02  0 
 2.048815e-02  -1.503751e-02  0 
 2.688787e-02  -2.099894e-02  0 
 2.270826e-02  -1.428151e-02  0 
 3.224409e-02  -1.701742e-02  0 
VECTORS displacement_ITER5 FLOAT
 1.409370e-02  -7.340426e-03  0 
 7.322222e-03  -9.148757e-03  0 
 5.096425e-02  -1.025418e-02  0 
 1.407225e-02  -2.887888e-03  0 
 1.408102e-02  -5.102768e-03  0 
 9.582529e-03  -7.315108e-03  0 
 1.184988e-02  -7.334482e-03  0 
 2.730115e-03  -9.573999e-03  0 
 5.049739e-03  -1.037656e-02  0 
 2.080194e-02  -1.384018e-02  0 
 2.767326e-02  -1.688681e-02  0 
 3.750098e-02  -1.668416e-02  0 
 1.482659e-02  -1.021799e-02  0 
 2.704332e-02  -1.083169e-02  0 
 3.985979e-02  -1.069797e-02  0 
 1.233970e-02  -5.045203e-03  0 
 1.017376e-02  -5.136463e-03  0 
 1.155339e-02  -3.282817e-03  0 
 1.934454e-02  -4.245672e-03  0 
 3.522683e-02  -7.231130e-03  0 
 1.054096e-02  -8.525505e-03  0 
 1.697363e-02  -9.342712e-03  0 
 1.109206e-02  -5.207539e-03  0 
 1.893229e-02  -6.968228e-03  0 
 2.920351e-02  -9.878066e-03  0 
 1.102307e-02  -3.525414e-03  0 
 1.405533e-02  -6.535383e-03  0 
 1.452632e-02  -3.760227e-03  0 
 2.074491e-02  -6.767209e-03  0 
 1.546139e-02  -3.820465e-03  0 
 2.462836e-02  -4.346148e-03  0 
VECTORS displacement_ITER6 FLOAT
 5.964823e-03  -6.369515e-03  0 
 3.185446e-03  -7.609706e-03  0 
 4.447766e-02  -7.750517e-03  0 
 5.942888e-03  -4.933850e-03  0 
 5.952684e-03  -5.645205e-03  0 
 4.552530e-03  -6.324509e-03  0 
 5.253294e-03  -6.345826e-03  0 
 3.412048e-03  -6.637036e-03  0 
 3.062912e-03  -7.263543e-03  0 
 1.373160e-02  -1.302858e-02  0 
 2.113887e-02  -1.570495e-02  0 
 3.104899e-02  -1.495590e-02  0 
 1.339259e-02  -7.744713e-03  0 
 2.399992e-02  -7.598101e-03  0 
 3.414862e-02  -7.932407e-03  0 
 5.389807e-03  -5.619633e-03  0 
 4.705942e-03  -5.614797e-03  0 
 5.132891e-03  -5.069730e-03  0 
 1.450374e-02  -2.552070e-03  0 
 2.953575e-02  -5.429578e-03  0 
 8.585223e-03  -3.979003e-03  0 
 1.054768e-02  -8.007866e-03  0 
 6.788346e-03  -4.139466e-03  0 
 1.614946e-02  -4.059166e-03  0 
 2.330539e-02  -8.436870e-03  0 
 7.570624e-03  -2.923752e-03  0 
 8.478948e-03  -5.223380e-03  0 
 9.744698e-03  -2.601112e-03  0 
 1.504270e-02  -5.332299e-03  0 
 1.124655e-02  -1.679444e-03  0 
 1.999333e-02  -2.761182e-03  0 
VECTORS displacement_ITER7 FLOAT
 4.702738e-03  -5.464055e-03  0 
 2.775216e-03  -6.159437e-03  0 
 4.335731e-02  -6.586193e-03  0 
 4.701553e-03  -4.359540e-03  0 
 4.701615e-03  -4.917346e-03  0 
 3.671184e-03  -5.404183e-03  0 
 4.169323e-03  -5.436467e-03  0 
 2.894154e-03  -5.542868e-03  0 
 3.045456e-03  -5.800744e-03  0 
 1.257845e-02  -1.209218e-02  0 
 2.004492e-02  -1.467889e-02  0 
 2.995937e-02  -1.376897e-02  0 
 1.301090e-02  -6.216564e-03  0 
 2.322851e-02  -6.284517e-03  0 
 3.350056e-02  -6.229000e-03  0 
 4.269930e-03  -4.908078e-03  0 
 3.779970e-03  -4.922107e-03  0 
 4.077319e-03  -4.485385e-03  0 
 1.377973e-02  -1.412718e-03  0 
 2.875460e-02  -4.086995e-03  0 
 8.147278e-03  -2.628945e-03  0 
 9.495066e-03  -7.015964e-03  0 
 6.118118e-03  -2.856556e-03  0 
 1.545226e-02  -2.811553e-03  0 
 2.239700e-02  -7.291805e-03  0 
 6.814362e-03  -2.131441e-03  0 
 7.566409e-03  -4.227906e-03  0 
 9.074591e-03  -1.488312e-03  0 
 1.414526e-02  -4.219511e-03  0 
 1.050685e-02  -6.706700e-04  0 
 1.923114e-02  -1.525619e-03  0 
VECTORS displacement_ITER8 FLOAT
 4.777072e-03  -5.044107e-03  0 
 3.041100e-03  -6.420210e-03  0 
 4.306830e-02  -6.292741e-03  0 
 4.760753e-03  -3.787500e-03  0 
 4.768125e-03  -4.412487e-03  0 
 3.515022e-03  -5.007473e-03  0 
 4.144365e-03  -5.030293e-03  0 
 2.774305e-03  -5.225492e-03  0 
 2.884866e-03  -5.618586e-03  0 
 1.248130e-02  -1.164708e-02  0 
 1.978878e-02  -1.419171e-02  0 
 2.964343e-02  -1.333468e-02  0 
 1.293976e-02  -6.136048e-03  0 
 2.292129e-02  -5.611041e-03  0 
 3.286479e-02  -5.869028e-03  0 
 4.276078e-03  -4.392189e-03  0 
 3.671910e-03  -4.415986e-03  0 
 4.049356e-03  -3.890314e-03  0 
 1.352792e-02  -1.308155e-03  0 
 2.818444e-02  -3.731169e-03  0 
 8.139100e-03  -2.535108e-03  0 
 9.407211e-03  -6.702672e-03  0 
 5.391233e-03  -2.281482e-03  0 
 1.536626e-02  -2.610313e-03  0 
 2.201605e-02  -6.935065e-03  0 
 6.421231e-03  -1.796165e-03  0 
 7.431730e-03  -3.964422e-03  0 
 8.839427e-03  -1.362101e-03  0 
 1.393318e-02  -4.020476e-03  0 
 1.033195e-02  -5.899844e-04  0 
 1.892521e-02  -1.414535e-03  0 
VECTORS displacement_ITER9 FLOAT
 4.737788e-03  -4.935329e-03  0 
 2.825393e-03  -5.751249e-03  0 
 4.318375e-02  -6.012934e-03  0 
 4.725140e-03  -3.699944e-03  0 
 4.730923e-03  -4.316967e-03  0 
 3.525807e-03  -4.880340e-03  0 
 4.118852e-03  -4.920437e-03  0 
 2.731157e-03  -5.051470e-03  0 
 2.776428e-03  -5.415444e-03  0 
 1.253563e-02  -1.159804e-02  0 
 1.992931e-02  -1.421663e-02  0 
 2.979231e-02  -1.332766e-02  0 
 1.285683e-02  -5.840554e-03  0 
 2.303019e-02  -5.916417e-03  0 
 3.308410e-02  -5.972818e-03  0 
 4.247818e-03  -4.299396e-03  0 
 3.659292e-03  -4.325454e-03  0 
 4.033078e-03  -3.818907e-03  0 
 1.354457e-02  -1.135230e-03  0 
 2.844951e-02  -3.771870e-03  0 
 7.968450e-03  -2.308795e-03  0 
 9.419377e-03  -6.581866e-03  0 
 5.411441e-03  -2.096850e-03  0 
 1.522866e-02  -2.512666e-03  0 
 2.219448e-02  -6.915031e-03  0 
 6.381937e-03  -1.887720e-03  0 
 7.446395e-03  -3.813890e-03  0 
 8.854577e-03  -1.193689e-03  0 
 1.398695e-02  -3.872154e-03  0 
 1.019730e-02  -4.509379e-04  0 
 1.898921e-02  -1.280869e-03  0 
VECTORS displacement_ITER10 FLOAT
 4.713082e-03  -4.888284e-03  0 
 2.743189e-03  -5.685972e-03  0 
 4.315319e-02  -5.930834e-03  0 
 4.699871e-03  -3.660965e-03  0 
 4.705741e-03  -4.273010e-03  0 
 3.493834e-03  -4.841268e-03  0 
 4.097107e-03  -4.873586e-03  0 
 2.702766e-03  -5.014047e-03  0 
 2.732312e-03  -5.304857e-03  0 
 1.249462e-02  -1.152057e-02  0 
 1.988098e-02  -1.411213e-02  0 
 2.975322e-02  -1.321495e-02  0 
 1.284166e-02  -5.781165e-03  0 
 2.298261e-02  -5.883372e-03  0 
 3.300503e-02  -5.832720e-03  0 
 4.225327e-03  -4.254910e-03  0 
 3.638094e-03  -4.279063e-03  0 
 4.010930e-03  -3.776776e-03  0 
 1.354296e-02  -1.032424e-03  0 
 2.839769e-02  -3.652844e-03  0 
 7.931212e-03  -2.212690e-03  0 
 9.391021e-03  -6.512456e-03  0 
 5.555455e-03  -2.031091e-03  0 
 1.519301e-02  -2.449922e-03  0 
 2.215526e-02  -6.803351e-03  0 
 6.379176e-03  -1.861105e-03  0 
 7.421098e-03  -3.748510e-03  0 
 8.874465e-03  -1.068845e-03  0 
 1.396758e-02  -3.775349e-03  0 
 1.016846e-02  -3.778562e-04  0 
 1.897249e-02  -1.188117e-03  0 
VECTORS displacement_ITER11 FLOAT
 4.722749e-03  -4.898799e-03  0 
 2.750309e-03  -5.687746e-03  0 
 4.312057e-02  -5.907721e-03  0 
 4.709291e-03  -3.663272e-03  0 
 4.715309e-03  -4.279382e-03  0 
 3.493720e-03  -4.853118e-03  0 
 4.102540e-03  -4.884221e-03  0 
 2.701077e-03  -5.015337e-03  0 
 2.738117e-03  -5.309008e-03  0 
 1.250193e-02  -1.153719e-02  0 
 1.988450e-02  -1.413862e-02  0 
 2.973979e-02  -1.323016e-02  0 
 1.285414e-02  -5.776353e-03  0 
 2.296139e-02  -5.837702e-03  0 
 3.305043e-02  -5.877180e-03  0 
 4.231742e-03  -4.261089e-03  0 
 3.640488e-03  -4.285584e-03  0 
 4.015623e-03  -3.779090e-03  0 
 1.353451e-02  -1.054761e-03  0 
 2.841899e-02  -3.674208e-03  0 
 7.941020e-03  -2.216058e-03  0 
 9.393632e-03  -6.530858e-03  0 
 5.485893e-03  -2.037820e-03  0 
 1.520205e-02  -2.449730e-03  0 
 2.216279e-02  -6.830891e-03  0 
 6.386594e-03  -1.849242e-03  0 
 7.421553e-03  -3.768514e-03  0 
 8.858386e-03  -1.107047e-03  0 
 1.396543e-02  -3.799077e-03  0 
 1.017926e-02  -3.808990e-04  0 
 1.896653e-02  -1.197606e-03  0 
VECTORS displacement_ITER12 FLOAT
 4.720445e-03  -4.897259e-03  0 
 2.749535e-03  -5.687114e-03  0 
 4.312153e-02  -5.904829e-03  0 
 4.707068e-03  -3.662918e-03  0 
 4.713043e-03  -4.278469e-03  0 
 3.493022e-03  -4.851359e-03  0 
 4.100934e-03  -4.882609e-03  0 
 2.701168e-03  -5.013348e-03  0 
 2.738215e-03  -5.307785e-03  0 
 1.250060e-02  -1.153615e-02  0 
 1.988382e-02  -1.413750e-02  0 
 2.973971e-02  -1.322856e-02  0 
 1.285550e-02  -5.776419e-03  0 
 2.296111e-02  -5.836831e-03  0 
 3.305023e-02  -5.874581e-03  0 
 4.229934e-03  -4.260232e-03  0 
 3.639406e-03  -4.284631e-03  0 
 4.014096e-03  -3.778884e-03  0 
 1.353401e-02  -1.053205e-03  0 
 2.841903e-02  -3.671995e-03  0 
 7.941235e-03  -2.214346e-03  0 
 9.392502e-03  -6.529291e-03  0 
 5.484509e-03  -2.037122e-03  0 
 1.520246e-02  -2.448941e-03  0 
 2.216250e-02  -6.829289e-03  0 
 6.386122e-03  -1.846822e-03  0 
 7.420682e-03  -3.766687e-03  0 
 8.857390e-03  -1.105701e-03  0 
 1.396485e-02  -3.797544e-03  0 
 1.017908e-02  -3.790146e-04  0 
 1.896656e-02  -1.196109e-03  0 
VECTORS displacement_ITER13 FLOAT
 4.720642e-03  -4.897290e-03  0 
 2.749501e-03  -5.687271e-03  0 
 4.312161e-02  -5.905063e-03  0 
 4.707238e-03  -3.662842e-03  0 
 4.713231e-03  -4.278444e-03  0 
 3.493051e-03  -4.851433e-03  0 
 4.101055e-03  -4.882662e-03  0 
 2.701194e-03  -5.013483e-03  0 
 2.738321e-03  -5.307960e-03  0 
 1.250075e-02  -1.153622e-02  0 
 1.988393e-02  -1.413761e-02  0 
 2.973980e-02  -1.322871e-02  0 
 1.285553e-02  -5.776584e-03  0 
 2.296115e-02  -5.837030e-03  0 
 3.305026e-02  -5.874750e-03  0 
 4.230087e-03  -4.260196e-03  0 
 3.639477e-03  -4.284626e-03  0 
 4.014239e-03  -3.778796e-03  0 
 1.353407e-02  -1.053338e-03  0 
 2.841907e-02  -3.672156e-03  0 
 7.941281e-03  -2.214499e-03  0 
 9.392611e-03  -6.529396e-03  0 
 5.484568e-03  -2.037191e-03  0 
 1.520250e-02  -2.449102e-03  0 
 2.216257e-02  -6.829427e-03  0 
 6.386189e-03  -1.846926e-03  0 
 7.420748e-03  -3.766799e-03  0 
 8.857448e-03  -1.105807e-03  0 
 1.396493e-02  -3.797676e-03  0 
 1.017914e-02  -3.791466e-04  0 
 1.896661e-02  -1.196259e-03  0 
VECTORS displacement_ITER14 FLOAT
 4.720615e-03  -4.897280e-03  0 
 2.749477e-03  -5.687288e-03  0 
 4.312157e-02  -5.905076e-03  0 
 4.707212e-03  -3.662834e-03  0 
 4.713204e-03  -4.278436e-03  0 
 3.493023e-03  -4.851425e-03  0 
 4.101029e-03  -4.882652e-03  0 
 2.701166e-03  -5.013495e-03  0 
 2.738291e-03  -5.307968e-03  0 
 1.250073e-02  -1.153621e-02  0 
 1.988391e-02  -1.413761e-02  0 
 2.973977e-02  -1.322871e-02  0 
 1.285550e-02  -5.776595e-03  0 
 2.296112e-02  -5.837043e-03  0 
 3.305023e-02  -5.874764e-03  0 
 4.230061e-03  -4.260187e-03  0 
 3.639451e-03  -4.284617e-03  0 
 4.014213e-03  -3.778789e-03  0 
 1.353404e-02  -1.053344e-03  0 
 2.841904e-02  -3.672167e-03  0 
 7.941250e-03  -2.214509e-03  0 
 9.392585e-03  -6.529392e-03  0 
 5.484535e-03  -2.037186e-03  0 
 1.520246e-02  -2.449111e-03  0 
 2.216254e-02  -6.829433e-03  0 
 6.386158e-03  -1.846935e-03  0 
 7.420720e-03  -3.766796e-03  0 
 8.857419e-03  -1.105809e-03  0 
 1.396490e-02  -3.797677e-03  0 
 1.017911e-02  -3.791555e-04  0 
 1.896658e-02  -1.196267e-03  0 
CELL_DATA 42
TENSORS element_stresses FLOAT
 1.630242e-02  1.125729e-02  0 
 1.125729e-02  -2.555340e-02  0 
 0  0  0 

 2.173195e-02  4.940311e-02  0 
 4.940311e-02  -1.183898e-01  0 
 0  0  0 

 -1.156269e-02  3.962867e-02  0 
 3.962867e-02  -2.410924e-02  0 
 0  0  0 

 2.254574e-02  1.998879e-02  0 
 1.998879e-02  -1.525440e-02  0 
 0  0  0 

 6.971479e-03  1.556596e-02  0 
 1.556596e-02  1.047745e-02  0 
 0  0  0 

 2.265174e-02  1.167833e-03  0 
 1.167833e-03  -2.331603e-02  0 
 0  0  0 

 1.207197e-02  1.898811e-02  0 
 1.898811e-02  -5.489081e-02  0 
 0  0  0 

 2.491170e-02  2.235765e-02  0 
 2.235765e-02  7.322629e-03  0 
 0  0  0 

 5.383086e-03  1.962135e-02  0 
 1.962135e-02  1.744862e-02  0 
 0  0  0 

 2.390098e-02  4.839109e-03  0 
 4.839109e-03  -1.877253e-02  0 
 0  0  0 

 1.988984e-02  6.077136e-03  0 
 6.077136e-03  5.842042e-03  0 
 0  0  0 

 1.670257e-02  1.823588e-02  0 
 1.823588e-02  4.768980e-03  0 
 0  0  0 

 3.202765e-02  1.157767e-02  0 
 1.157767e-02  -2.465265e-02  0 
 0  0  0 

 1.515893e-02  1.985111e-02  0 
 1.985111e-02  5.814967e-03  0 
 0  0  0 

 3.660150e-02  2.594495e-02  0 
 2.594495e-02  -1.035801e-02  0 
 0  0  0 

 1.033658e-02  1.112963e-02  0 
 1.112963e-02  6.716626e-03  0 
 0  0  0 

 2.488206e-02  5.342719e-03  0 
 5.342719e-03  -8.392555e-03  0 
 0  0  0 

 1.383036e-02  1.574876e-02  0 
 1.574876e-02  7.079548e-03  0 
 0  0  0 

 2.859855e-02  1.501510e-02  0 
 1.501510e-02  -2.751856e-02  0 
 0  0  0 

 1.717882e-02  9.829544e-04  0 
 9.829544e-04  -8.456927e-03  0 
 0  0  0 

 1.840166e-02  1.295325e-02  0 
 1.295325e-02  2.776677e-03  0 
 0  0  0 

 1.629599e-02  1.078238e-02  0 
 1.078238e-02  -3.091414e-03  0 
 0  0  0 

 2.094146e-02  1.212488e-02  0 
 1.212488e-02  -7.012491e-03  0 
 0  0  0 

 2.373439e-02  1.014145e-02  0 
 1.014145e-02  -5.490120e-03  0 
 0  0  0 

 9.026177e-03  1.705757e-02  0 
 1.705757e-02  1.655499e-02  0 
 0  0  0 

 1.080102e-02  1.465832e-02  0 
 1.465832e-02  1.756943e-02  0 
 0  0  0 

 1.829328e-02  2.119950e-02  0 
 2.119950e-02  1.964293e-03  0 
 0  0  0 

 1.447055e-02  1.420470e-02  0 
 1.420470e-02  8.724341e-03  0 
 0  0  0 

 2.664801e-02  4.109620e-03  0 
 4.109620e-03  -2.318102e-02  0 
 0  0  0 

 3.081301e-02  1.199096e-02  0 
 1.199096e-02  -2.426355e-02  0 
 0  0  0 

 2.515037e-02  1.259866e-02  0 
 1.259866e-02  -6.048523e-03  0 
 0  0  0 

 2.649839e-02  1.540816e-02  0 
 1.540816e-02  -1.620377e-02  0 
 0  0  0 

 2.048964e-02  1.774372e-02  0 
 1.774372e-02  3.249180e-03  0 
 0  0  0 

 1.954718e-02  1.492780e-02  0 
 1.492780e-02  2.394737e-03  0 
 0  0  0 

 2.231203e-02  2.142951e-02  0 
 2.142951e-02  2.849413e-03  0 
 0  0  0 

 1.585752e-02  1.714081e-02  0 
 1.714081e-02  5.623569e-03  0 
 0  0  0 

 5.266194e-03  1.935824e-02  0 
 1.935824e-02  1.740485e-02  0 
 0  0  0 

 1.147855e-02  2.040937e-02  0 
 2.040937e-02  3.086333e-03  0 
 0  0  0 

 4.854918e-02  3.539921e-02  0 
 3.539921e-02  -1.659347e-02  0 
 0  0  0 

 2.492348e-02  2.230240e-02  0 
 2.230240e-02  7.355794e-03  0 
 0  0  0 

 2.219681e-02  -3.051416e-03  0 
 -3.051416e-03  6.600531e-03  0 
 0  0  0 

 2.550919e-02  -7.552761e-03  0 
 -7.552761e-03  -1.870417e-02  0 
 0  0  0 

TENSORS element_stresses FLOAT
 1.630242e-02  1.125729e-02  0 
 1.125729e-02  -2.555340e-02  0 
 0  0  0 

 2.173195e-02  4.940311e-02  0 
 4.940311e-02  -1.183898e-01  0 
 0  0  0 

 -1.156269e-02  3.962867e-02  0 
 3.962867e-02  -2.410924e-02  0 
 0  0  0 

 2.254574e-02  1.998879e-02  0 
 1.998879e-02  -1.525440e-02  0 
 0  0  0 

 6.971479e-03  1.556596e-02  0 
 1.556596e-02  1.047745e-02  0 
 0  0  0 

 2.265174e-02  1.167833e-03  0 
 1.167833e-03  -2.331603e-02  0 
 0  0  0 

 1.207197e-02  1.898811e-02  0 
 1.898811e-02  -5.489081e-02  0 
 0  0  0 

 2.491170e-02  2.235765e-02  0 
 2.235765e-02  7.322629e-03  0 
 0  0  0 

 5.383086e-03  1.962135e-02  0 
 1.962135e-02  1.744862e-02  0 
 0  0  0 

 2.390098e-02  4.839109e-03  0 
 4.839109e-03  -1.877253e-02  0 
 0  0  0 

 1.988984e-02  6.077136e-03  0 
 6.077136e-03  5.842042e-03  0 
 0  0  0 

 1.670257e-02  1.823588e-02  0 
 1.823588e-02  4.768980e-03  0 
 0  0  0 

 3.202765e-02  1.157767e-02  0 
 1.157767e-02  -2.465265e-02  0 
 0  0  0 

 1.515893e-02  1.985111e-02  0 
 1.985111e-02  5.814967e-03  0 
 0  0  0 

 3.660150e-02  2.594495e-02  0 
 2.594495e-02  -1.035801e-02  0 
 0  0  0 

 1.033658e-02  1.112963e-02  0 
 1.112963e-02  6.716626e-03  0 
 0  0  0 

 2.488206e-02  5.342719e-03  0 
 5.342719e-03  -8.392555e-03  0 
 0  0  0 

 1.383036e-02  1.574876e-02  0 
 1.574876e-02  7.079548e-03  0 
 0  0  0 

 2.859855e-02  1.501510e-02  0 
 1.501510e-02  -2.751856e-02  0 
 0  0  0 

 1.717882e-02  9.829544e-04  0 
 9.829544e-04  -8.456927e-03  0 
 0  0  0 

 1.840166e-02  1.295325e-02  0 
 1.295325e-02  2.776677e-03  0 
 0  0  0 

 1.629599e-02  1.078238e-02  0 
 1.078238e-02  -3.091414e-03  0 
 0  0  0 

 2.094146e-02  1.212488e-02  0 
 1.212488e-02  -7.012491e-03  0 
 0  0  0 

 2.373439e-02  1.014145e-02  0 
 1.014145e-02  -5.490120e-03  0 
 0  0  0 

 9.026177e-03  1.705757e-02  0 
 1.705757e-02  1.655499e-02  0 
 0  0  0 

 1.080102e-02  1.465832e-02  0 
 1.465832e-02  1.756943e-02  0 
 0  0  0 

 1.829328e-02  2.119950e-02  0 
 2.119950e-02  1.964293e-03  0 
 0  0  0 

 1.447055e-02  1.420470e-02  0 
 1.420470e-02  8.724341e-03  0 
 0  0  0 

 2.664801e-02  4.109620e-03  0 
 4.109620e-03  -2.318102e-02  0 
 0  0  0 

 3.081301e-02  1.199096e-02  0 
 1.199096e-02  -2.426355e-02  0 
 0  0  0 

 2.515037e-02  1.259866e-02  0 
 1.259866e-02  -6.048523e-03  0 
 0  0  0 

 2.649839e-02  1.540816e-02  0 
 1.540816e-02  -1.620377e-02  0 
 0  0  0 

 2.048964e-02  1.774372e-02  0 
 1.774372e-02  3.249180e-03  0 
 0  0  0 

 1.954718e-02  1.492780e-02  0 
 1.492780e-02  2.394737e-03  0 
 0  0  0 

 2.231203e-02  2.142951e-02  0 
 2.142951e-02  2.849413e-03  0 
 0  0  0 

 1.585752e-02  1.714081e-02  0 
 1.714081e-02  5.623569e-03  0 
 0  0  0 

 5.266194e-03  1.935824e-02  0 
 1.935824e-02  1.740485e-02  0 
 0  0  0 

 1.147855e-02  2.040937e-02  0 
 2.040937e-02  3.086333e-03  0 
 0  0  0 

 4.854918e-02  3.539921e-02  0 
 3.539921e-02  -1.659347e-02  0 
 0  0  0 

 2.492348e-02  2.230240e-02  0 
 2.230240e-02  7.355794e-03  0 
 0  0  0 

 2.219681e-02  -3.051416e-03  0 
 -3.051416e-03  6.600531e-03  0 
 0  0  0 

 2.550919e-02  -7.552761e-03  0 
 -7.552761e-03  -1.870417e-02  0 
 0  0  0 

