# vtk DataFile Version 3.1
this is an vtk file created by FEMAC
ASCII
DATASET UNSTRUCTURED_GRID
POINTS 32 FLOAT
5.000000 3.000000 0.000000
6.000000 3.000000 0.000000
6.000000 4.000000 0.000000
5.000000 2.750000 0.000000
5.250000 3.000000 0.000000
5.500000 3.000000 0.000000
5.750000 3.000000 0.000000
6.000000 2.500000 0.000000
6.000000 2.750000 0.000000
5.500000 4.000000 0.000000
5.750000 4.000000 0.000000
6.000000 3.250000 0.000000
6.000000 3.500000 0.000000
6.000000 3.750000 0.000000
4.761003 2.832250 0.000000
5.808128 2.581646 0.000000
5.507893 2.661856 0.000000
5.761003 2.832250 0.000000
5.245757 2.832172 0.000000
5.528256 3.447447 0.000000
5.669072 3.813081 0.000000
5.805000 3.255000 0.000000
5.195000 3.255000 0.000000
5.500000 3.775000 0.000000
5.805846 3.660928 0.000000
5.378219 3.169567 0.000000
5.565925 3.242859 0.000000
5.323754 3.413341 0.000000
5.717271 3.453287 0.000000
5.404183 3.616917 0.000000
5.598598 3.613486 0.000000
5.844984 3.844802 0.000000
CELLS 43 172 
3 14  3  0
3 8 15  7
3 6 17  1
3 17  8  1
3 3 18  0
3 18  4  0
3 17 15  8
3 5 17  6
3 16 17  5
3 16 15 17
3 18  5  4
3 18 16  5
3 9 20 10
3 12 21 11
3 23 20  9
3 30 20 23
3 25  4  5
3 6 26  5
3 13 24 12
3 30 24 20
3 28 26 21
3 25 27 22
3 30 29 19
3 23 29 30
3 21 26  6
3 25 22  4
3 19 29 27
3 12 28 21
3 12 24 28
3 30 19 28
3 28 24 30
3 1 21  6
3 1 11 21
3 0  4 22
3 10 31  2
3 31 13  2
3 31 10 20
3 31 24 13
3 20 24 31
3 25  5 26
3 19 27 26
3 28 19 26
3 25 26 27
CELL_TYPES 43
5 5 5 5 5 5 5 5 5 5 5 5 5 5 5 5 5 5 5 5 5 5 5 5 5 5 5 5 5 5 5 5 5 5 5 5 5 5 5 5 5 5 5 
POINT_DATA 32
VECTORS displacement_ITER1 FLOAT
 1.688380e-04  -3.223149e-01  0 
 1.972319e-04  -4.016593e-01  0 
 7.925411e-02  -4.016092e-01  0 
 -2.822784e-02  -3.222301e-01  0 
 1.714071e-04  -3.422198e-01  0 
 1.910825e-04  -3.620617e-01  0 
 1.987119e-04  -3.818633e-01  0 
 -4.381643e-03  -4.072347e-01  0 
 -7.224760e-03  -4.060358e-01  0 
 7.924279e-02  -3.621015e-01  0 
 7.925386e-02  -3.818524e-01  0 
 1.998166e-02  -4.016480e-01  0 
 3.975914e-02  -4.016299e-01  0 
 5.951505e-02  -4.016112e-01  0 
 -1.891677e-02  -2.950557e-01  0 
 -8.275218e-03  -3.953135e-01  0 
 -5.821342e-03  -3.626462e-01  0 
 -2.583156e-03  -3.845518e-01  0 
 -9.168281e-03  -3.439158e-01  0 
 3.561307e-02  -3.642990e-01  0 
 6.449692e-02  -3.754498e-01  0 
 2.038275e-02  -3.862115e-01  0 
 2.039424e-02  -3.378759e-01  0 
 6.148698e-02  -3.620874e-01  0 
 5.248219e-02  -3.862631e-01  0 
 1.362461e-02  -3.524100e-01  0 
 1.942580e-02  -3.672833e-01  0 
 3.291858e-02  -3.481031e-01  0 
 3.607152e-02  -3.792602e-01  0 
 4.900194e-02  -3.544933e-01  0 
 4.873505e-02  -3.698711e-01  0 
 6.700165e-02  -3.893572e-01  0 
VECTORS displacement_ITER2 FLOAT
 1.843197e-02  -2.546985e-01  0 
 1.844496e-02  -3.120523e-01  0 
 7.552269e-02  -3.119983e-01  0 
 2.329040e-03  -2.546275e-01  0 
 1.843060e-02  -2.690971e-01  0 
 1.844460e-02  -2.834389e-01  0 
 1.844822e-02  -2.977472e-01  0 
 1.368149e-02  -3.252991e-01  0 
 1.293680e-02  -3.204692e-01  0 
 7.550030e-02  -2.834967e-01  0 
 7.551781e-02  -2.977423e-01  0 
 3.273597e-02  -3.120373e-01  0 
 4.701858e-02  -3.120175e-01  0 
 6.127795e-02  -3.120001e-01  0 
 7.607262e-03  -2.392004e-01  0 
 1.255632e-02  -3.119247e-01  0 
 1.701222e-02  -2.840061e-01  0 
 1.806572e-02  -3.005149e-01  0 
 1.362262e-02  -2.697328e-01  0 
 4.402583e-02  -2.850563e-01  0 
 6.487146e-02  -2.931161e-01  0 
 3.302823e-02  -3.008852e-01  0 
 3.303874e-02  -2.659618e-01  0 
 6.269576e-02  -2.834724e-01  0 
 5.620289e-02  -3.009197e-01  0 
 2.814942e-02  -2.764641e-01  0 
 3.233858e-02  -2.872102e-01  0 
 4.208012e-02  -2.733571e-01  0 
 4.435733e-02  -2.958623e-01  0 
 5.368589e-02  -2.779807e-01  0 
 5.349716e-02  -2.890841e-01  0 
 6.668041e-02  -3.031544e-01  0 
VECTORS displacement_ITER3 FLOAT
 -1.911418e-03  -1.610761e-01  0 
 -1.923217e-03  -2.102084e-01  0 
 4.693228e-02  -2.101396e-01  0 
 -6.025109e-03  -1.610261e-01  0 
 -1.918581e-03  -1.734082e-01  0 
 -1.912646e-03  -1.856905e-01  0 
 -1.916005e-03  -1.979488e-01  0 
 -2.740448e-02  -2.417506e-01  0 
 -1.313908e-02  -2.279317e-01  0 
 4.689526e-02  -1.857696e-01  0 
 4.692165e-02  -1.979472e-01  0 
 1.031712e-02  -2.101838e-01  0 
 2.254512e-02  -2.101570e-01  0 
 3.474493e-02  -2.101396e-01  0 
 -4.672185e-03  -1.570505e-01  0 
 -1.881972e-02  -2.164432e-01  0 
 -6.868074e-03  -1.856579e-01  0 
 -3.482078e-03  -2.013901e-01  0 
 -4.714529e-03  -1.720290e-01  0 
 1.998396e-02  -1.870765e-01  0 
 3.781623e-02  -1.939830e-01  0 
 1.057146e-02  -2.006312e-01  0 
 1.058276e-02  -1.707253e-01  0 
 3.595091e-02  -1.857338e-01  0 
 3.040333e-02  -2.006574e-01  0 
 6.398142e-03  -1.797161e-01  0 
 9.983217e-03  -1.889178e-01  0 
 1.831816e-02  -1.770608e-01  0 
 2.026883e-02  -1.963277e-01  0 
 2.824407e-02  -1.810258e-01  0 
 2.808691e-02  -1.905281e-01  0 
 3.936604e-02  -2.025713e-01  0 
VECTORS displacement_ITER4 FLOAT
 -2.920735e-03  -1.287356e-01  0 
 -2.942859e-03  -1.664697e-01  0 
 3.449755e-02  -1.663948e-01  0 
 -2.065404e-03  -1.286895e-01  0 
 -2.930648e-03  -1.382190e-01  0 
 -2.927131e-03  -1.476501e-01  0 
 -2.933522e-03  -1.570579e-01  0 
 -3.501341e-02  -2.059452e-01  0 
 -1.525166e-02  -1.885124e-01  0 
 3.445564e-02  -1.477310e-01  0 
 3.448534e-02  -1.570556e-01  0 
 6.447124e-03  -1.664390e-01  0 
 1.582190e-02  -1.664073e-01  0 
 2.516562e-02  -1.663900e-01  0 
 -2.340824e-03  -1.294583e-01  0 
 -2.256485e-02  -1.766530e-01  0 
 -7.928751e-03  -1.468625e-01  0 
 -4.086411e-03  -1.606850e-01  0 
 -4.415265e-03  -1.361562e-01  0 
 1.386230e-02  -1.487126e-01  0 
 2.751405e-02  -1.540126e-01  0 
 6.646519e-03  -1.591102e-01  0 
 6.661130e-03  -1.361641e-01  0 
 2.608343e-02  -1.476947e-01  0 
 2.184127e-02  -1.591243e-01  0 
 3.450650e-03  -1.430640e-01  0 
 6.198222e-03  -1.501237e-01  0 
 1.258666e-02  -1.410312e-01  0 
 1.408016e-02  -1.558062e-01  0 
 2.018462e-02  -1.440800e-01  0 
 2.006709e-02  -1.513617e-01  0 
 2.870259e-02  -1.605933e-01  0 
VECTORS displacement_ITER5 FLOAT
 2.518406e-03  -8.709205e-02  0 
 2.499947e-03  -1.150946e-01  0 
 3.017837e-02  -1.150343e-01  0 
 1.220034e-03  -8.703524e-02  0 
 2.508034e-03  -9.415568e-02  0 
 2.514482e-03  -1.011535e-01  0 
 2.508860e-03  -1.081213e-01  0 
 -2.899287e-02  -1.494870e-01  0 
 -8.620512e-03  -1.362722e-01  0 
 3.013279e-02  -1.012272e-01  0 
 3.016525e-02  -1.081248e-01  0 
 9.450648e-03  -1.150623e-01  0 
 1.638378e-02  -1.150288e-01  0 
 2.328594e-02  -1.150160e-01  0 
 1.649969e-03  -8.574148e-02  0 
 -1.731246e-02  -1.231093e-01  0 
 -3.530903e-03  -9.662497e-02  0 
 1.763726e-03  -1.106319e-01  0 
 -4.940596e-05  -9.180416e-02  0 
 1.494002e-02  -1.019400e-01  0 
 2.501372e-02  -1.058660e-01  0 
 9.602008e-03  -1.096371e-01  0 
 9.622371e-03  -9.263964e-02  0 
 2.395604e-02  -1.011972e-01  0 
 2.082962e-02  -1.096426e-01  0 
 7.241599e-03  -9.775556e-02  0 
 9.272994e-03  -1.029844e-01  0 
 1.399960e-02  -9.625380e-02  0 
 1.509924e-02  -1.071889e-01  0 
 1.960531e-02  -9.851986e-02  0 
 1.952002e-02  -1.039023e-01  0 
 2.589452e-02  -1.107352e-01  0 
VECTORS displacement_ITER6 FLOAT
 7.264522e-03  -6.712274e-02  0 
 7.239967e-03  -8.731619e-02  0 
 2.710827e-02  -8.726419e-02  0 
 3.198416e-03  -6.705490e-02  0 
 7.251661e-03  -7.224138e-02  0 
 7.257236e-03  -7.728629e-02  0 
 7.250141e-03  -8.229769e-02  0 
 -2.329019e-02  -1.231624e-01  0 
 -2.987080e-03  -1.093830e-01  0 
 2.705636e-02  -7.734217e-02  0 
 2.709224e-02  -8.229760e-02  0 
 1.223609e-02  -8.728137e-02  0 
 1.721309e-02  -8.724582e-02  0 
 2.216213e-02  -8.723699e-02  0 
 4.533203e-03  -6.311176e-02  0 
 -1.126669e-02  -9.698763e-02  0 
 2.292405e-03  -7.267860e-02  0 
 7.205178e-03  -8.486916e-02  0 
 4.579188e-03  -7.068576e-02  0 
 1.618349e-02  -7.784601e-02  0 
 2.339484e-02  -8.066709e-02  0 
 1.234924e-02  -8.338096e-02  0 
 1.237638e-02  -7.115379e-02  0 
 2.263546e-02  -7.731873e-02  0 
 2.040011e-02  -8.337705e-02  0 
 1.066078e-02  -7.483872e-02  0 
 1.211686e-02  -7.859851e-02  0 
 1.551218e-02  -7.375974e-02  0 
 1.629526e-02  -8.161691e-02  0 
 1.952281e-02  -7.539435e-02  0 
 1.946273e-02  -7.925588e-02  0 
 2.402988e-02  -8.416664e-02  0 
VECTORS displacement_ITER7 FLOAT
 4.532276e-03  -5.198875e-02  0 
 4.503072e-03  -6.532088e-02  0 
 1.753224e-02  -6.528542e-02  0 
 -2.782082e-03  -5.190783e-02  0 
 4.516827e-03  -5.539710e-02  0 
 4.520935e-03  -5.872637e-02  0 
 4.513320e-03  -6.201985e-02  0 
 -1.768565e-02  -9.726990e-02  0 
 -2.630702e-03  -8.543308e-02  0 
 1.747033e-02  -5.876924e-02  0 
 1.751095e-02  -6.202055e-02  0 
 7.783548e-03  -6.528777e-02  0 
 1.104537e-02  -6.525463e-02  0 
 1.428541e-02  -6.525173e-02  0 
 -3.872758e-04  -4.485724e-02  0 
 -8.346455e-03  -7.532033e-02  0 
 2.853936e-03  -5.499363e-02  0 
 5.845084e-03  -6.448646e-02  0 
 2.298761e-03  -5.514810e-02  0 
 1.037696e-02  -5.908676e-02  0 
 1.508552e-02  -6.093997e-02  0 
 7.861670e-03  -6.272512e-02  0 
 7.893267e-03  -5.468393e-02  0 
 1.458593e-02  -5.874806e-02  0 
 1.313028e-02  -6.271577e-02  0 
 6.761928e-03  -5.711273e-02  0 
 7.713332e-03  -5.958340e-02  0 
 9.940975e-03  -5.640378e-02  0 
 1.044765e-02  -6.156222e-02  0 
 1.255524e-02  -5.748297e-02  0 
 1.251786e-02  -6.001250e-02  0 
 1.550617e-02  -6.323959e-02  0 
VECTORS displacement_ITER8 FLOAT
 2.488532e-03  -4.554133e-02  0 
 2.459238e-03  -5.575104e-02  0 
 1.238222e-02  -5.572648e-02  0 
 -6.022104e-03  -4.545358e-02  0 
 2.472308e-03  -4.817091e-02  0 
 2.476002e-03  -5.071977e-02  0 
 2.468879e-03  -5.323192e-02  0 
 -1.184066e-02  -8.296809e-02  0 
 -2.036892e-03  -7.346670e-02  0 
 1.231667e-02  -5.075744e-02  0 
 1.235832e-02  -5.323436e-02  0 
 4.959370e-03  -5.572066e-02  0 
 7.441898e-03  -5.569041e-02  0 
 9.906274e-03  -5.569059e-02  0 
 -3.238481e-03  -3.725850e-02  0 
 -5.406101e-03  -6.525494e-02  0 
 3.537162e-03  -4.789029e-02  0 
 4.817421e-03  -5.555827e-02  0 
 8.866350e-04  -4.870556e-02  0 
 6.936680e-03  -5.099029e-02  0 
 1.051061e-02  -5.240420e-02  0 
 5.020864e-03  -5.376627e-02  0 
 5.053145e-03  -4.762774e-02  0 
 1.012891e-02  -5.073707e-02  0 
 9.026576e-03  -5.375580e-02  0 
 4.187867e-03  -4.948547e-02  0 
 4.910244e-03  -5.137041e-02  0 
 6.607165e-03  -4.894480e-02  0 
 6.988998e-03  -5.287726e-02  0 
 8.588321e-03  -4.977134e-02  0 
 8.561351e-03  -5.169628e-02  0 
 1.083369e-02  -5.415849e-02  0 
VECTORS displacement_ITER9 FLOAT
 4.989918e-03  -3.183895e-02  0 
 4.956250e-03  -4.349267e-02  0 
 1.634434e-02  -4.347388e-02  0 
 -1.883456e-03  -3.175252e-02  0 
 4.972534e-03  -3.482534e-02  0 
 4.973942e-03  -3.773506e-02  0 
 4.966077e-03  -4.061064e-02  0 
 -6.646474e-03  -7.016657e-02  0 
 9.544000e-04  -6.053459e-02  0 
 1.628083e-02  -3.776392e-02  0 
 1.631940e-02  -4.061115e-02  0 
 7.820122e-03  -4.346354e-02  0 
 1.066718e-02  -4.343500e-02  0 
 1.349824e-02  -4.343670e-02  0 
 3.622843e-04  -2.512037e-02  0 
 -1.117691e-03  -5.346482e-02  0 
 7.236408e-03  -3.692046e-02  0 
 7.387098e-03  -4.326912e-02  0 
 4.274072e-03  -3.575891e-02  0 
 1.008449e-02  -3.804559e-02  0 
 1.419622e-02  -3.966357e-02  0 
 7.888338e-03  -4.122495e-02  0 
 7.919722e-03  -3.420014e-02  0 
 1.375947e-02  -3.774737e-02  0 
 1.248754e-02  -4.121665e-02  0 
 6.931172e-03  -3.632310e-02  0 
 7.759953e-03  -3.848075e-02  0 
 9.704848e-03  -3.570232e-02  0 
 1.014555e-02  -4.020836e-02  0 
 1.198539e-02  -3.664366e-02  0 
 1.195275e-02  -3.885354e-02  0 
 1.456555e-02  -4.167608e-02  0 
VECTORS displacement_ITER10 FLOAT
 -7.767037e-04  -2.048694e-02  0 
 -8.184577e-04  -3.280558e-02  0 
 1.126570e-02  -3.279020e-02  0 
 -2.282870e-03  -2.041365e-02  0 
 -7.956100e-04  -2.362771e-02  0 
 -7.983436e-04  -2.670302e-02  0 
 -8.081226e-04  -2.975093e-02  0 
 -1.321583e-02  -6.081572e-02  0 
 -5.356166e-03  -5.038668e-02  0 
 1.120537e-02  -2.672733e-02  0 
 1.124030e-02  -2.975080e-02  0 
 2.217737e-03  -3.277692e-02  0 
 5.237797e-03  -3.274992e-02  0 
 8.243156e-03  -3.275282e-02  0 
 -1.795552e-03  -1.891296e-02  0 
 -7.296607e-03  -4.360223e-02  0 
 1.512150e-03  -2.720166e-02  0 
 1.346883e-03  -3.270942e-02  0 
 -2.477944e-04  -2.407776e-02  0 
 4.616915e-03  -2.703331e-02  0 
 8.986399e-03  -2.874845e-02  0 
 2.289016e-03  -3.040322e-02  0 
 2.317819e-03  -2.296272e-02  0 
 8.523599e-03  -2.671293e-02  0 
 7.170098e-03  -3.039730e-02  0 
 1.272873e-03  -2.520773e-02  0 
 2.151921e-03  -2.749350e-02  0 
 4.212685e-03  -2.454955e-02  0 
 4.682908e-03  -2.932672e-02  0 
 6.637046e-03  -2.554389e-02  0 
 6.601751e-03  -2.788983e-02  0 
 9.377294e-03  -3.088322e-02  0 
VECTORS displacement_ITER11 FLOAT
 1.556877e-03  -1.557692e-02  0 
 1.510693e-03  -2.660344e-02  0 
 1.232821e-02  -2.659091e-02  0 
 4.150620e-03  -1.551546e-02  0 
 1.537384e-03  -1.838489e-02  0 
 1.532025e-03  -2.113679e-02  0 
 1.521070e-03  -2.386651e-02  0 
 -1.052992e-02  -5.397559e-02  0 
 -2.947186e-03  -4.414288e-02  0 
 1.226854e-02  -2.116214e-02  0 
 1.230184e-02  -2.386769e-02  0 
 4.228848e-03  -2.657569e-02  0 
 6.931584e-03  -2.655034e-02  0 
 9.620542e-03  -2.655411e-02  0 
 3.295159e-03  -1.793738e-02  0 
 -4.884676e-03  -3.742248e-02  0 
 3.815522e-03  -2.159485e-02  0 
 3.682691e-03  -2.678317e-02  0 
 2.860692e-03  -1.818075e-02  0 
 6.375653e-03  -2.143188e-02  0 
 1.028492e-02  -2.296888e-02  0 
 4.293289e-03  -2.444947e-02  0 
 4.319917e-03  -1.778895e-02  0 
 9.870055e-03  -2.114670e-02  0 
 8.660074e-03  -2.444441e-02  0 
 3.385382e-03  -1.979741e-02  0 
 4.171137e-03  -2.184332e-02  0 
 6.013926e-03  -1.920863e-02  0 
 6.435050e-03  -2.348526e-02  0 
 8.181841e-03  -2.009901e-02  0 
 8.151121e-03  -2.219935e-02  0 
 1.063534e-02  -2.488005e-02  0 
VECTORS displacement_ITER12 FLOAT
 -3.312145e-03  -1.299956e-02  0 
 -3.359648e-03  -2.165835e-02  0 
 5.094379e-03  -2.164460e-02  0 
 1.788076e-04  -1.294133e-02  0 
 -3.331957e-03  -1.521341e-02  0 
 -3.337942e-03  -1.737319e-02  0 
 -3.349292e-03  -1.951186e-02  0 
 -1.446744e-02  -4.773847e-02  0 
 -7.444282e-03  -3.897930e-02  0 
 5.032840e-03  -1.740472e-02  0 
 5.066455e-03  -1.951430e-02  0 
 -1.232130e-03  -2.163071e-02  0 
 8.800763e-04  -2.160558e-02  0 
 2.977722e-03  -2.160871e-02  0 
 -9.697277e-04  -1.622213e-02  0 
 -9.377388e-03  -3.229429e-02  0 
 -1.101172e-03  -1.721974e-02  0 
 -1.036902e-03  -2.227883e-02  0 
 -1.948363e-03  -1.470348e-02  0 
 4.476106e-04  -1.760174e-02  0 
 3.493416e-03  -1.880741e-02  0 
 -1.179565e-03  -1.996510e-02  0 
 -1.153187e-03  -1.474746e-02  0 
 3.167783e-03  -1.738536e-02  0 
 2.228264e-03  -1.995870e-02  0 
 -1.885594e-03  -1.632195e-02  0 
 -1.273193e-03  -1.792378e-02  0 
 1.662648e-04  -1.586200e-02  0 
 4.935972e-04  -1.920847e-02  0 
 1.852740e-03  -1.656251e-02  0 
 1.830930e-03  -1.820361e-02  0 
 3.768533e-03  -2.030104e-02  0 
VECTORS displacement_ITER13 FLOAT
 -5.515178e-03  -1.401934e-02  0 
 -5.553123e-03  -1.850749e-02  0 
 -1.302185e-03  -1.849380e-02  0 
 -7.343743e-03  -1.394562e-02  0 
 -5.533782e-03  -1.520410e-02  0 
 -5.535317e-03  -1.632203e-02  0 
 -5.544062e-03  -1.741103e-02  0 
 -9.419537e-03  -3.710590e-02  0 
 -7.058335e-03  -3.292120e-02  0 
 -1.367221e-03  -1.636550e-02  0 
 -1.331712e-03  -1.741733e-02  0 
 -4.474626e-03  -1.848129e-02  0 
 -3.411591e-03  -1.845613e-02  0 
 -2.365493e-03  -1.845758e-02  0 
 -6.749442e-03  -1.213860e-02  0 
 -7.738492e-03  -2.696051e-02  0 
 -2.097447e-03  -1.461882e-02  0 
 -2.370396e-03  -1.949774e-02  0 
 -5.135849e-03  -1.527382e-02  0 
 -3.622849e-03  -1.643265e-02  0 
 -2.115652e-03  -1.705030e-02  0 
 -4.443274e-03  -1.763465e-02  0 
 -4.414748e-03  -1.497079e-02  0 
 -2.282263e-03  -1.634028e-02  0 
 -2.739616e-03  -1.762486e-02  0 
 -4.791393e-03  -1.578125e-02  0 
 -4.486154e-03  -1.659707e-02  0 
 -3.760348e-03  -1.554984e-02  0 
 -3.601801e-03  -1.724639e-02  0 
 -2.931628e-03  -1.591653e-02  0 
 -2.937788e-03  -1.674062e-02  0 
 -1.974178e-03  -1.780263e-02  0 
VECTORS displacement_ITER14 FLOAT
 -3.634732e-03  -1.198927e-02  0 
 -3.674092e-03  -1.687379e-02  0 
 9.653394e-04  -1.685984e-02  0 
 -6.818524e-03  -1.191178e-02  0 
 -3.654255e-03  -1.327628e-02  0 
 -3.655886e-03  -1.449320e-02  0 
 -3.664759e-03  -1.567972e-02  0 
 -7.738898e-03  -3.578763e-02  0 
 -5.360652e-03  -3.140182e-02  0 
 9.000892e-04  -1.453591e-02  0 
 9.358146e-04  -1.568550e-02  0 
 -2.497845e-03  -1.684690e-02  0 
 -1.337500e-03  -1.682095e-02  0 
 -1.946064e-04  -1.682233e-02  0 
 -5.779481e-03  -8.806329e-03  0 
 -5.995317e-03  -2.550665e-02  0 
 -3.323693e-04  -1.319119e-02  0 
 -6.181625e-04  -1.787602e-02  0 
 -3.508934e-03  -1.367335e-02  0 
 -1.568593e-03  -1.461395e-02  0 
 7.918462e-05  -1.528666e-02  0 
 -2.464257e-03  -1.592421e-02  0 
 -2.434398e-03  -1.302103e-02  0 
 -1.021870e-04  -1.451102e-02  0 
 -6.032377e-04  -1.591418e-02  0 
 -2.845019e-03  -1.390413e-02  0 
 -2.511523e-03  -1.479342e-02  0 
 -1.718940e-03  -1.365122e-02  0 
 -1.545566e-03  -1.550137e-02  0 
 -8.121934e-04  -1.404982e-02  0 
 -8.196558e-04  -1.494935e-02  0 
 2.330556e-04  -1.610763e-02  0 
VECTORS displacement_ITER15 FLOAT
 -2.789189e-04  -9.817122e-03  0 
 -3.252086e-04  -1.449764e-02  0 
 4.117652e-03  -1.448671e-02  0 
 -2.331867e-03  -9.742183e-03  0 
 -3.008453e-04  -1.105098e-02  0 
 -3.050558e-04  -1.221635e-02  0 
 -3.151983e-04  -1.335305e-02  0 
 -5.134442e-03  -3.497618e-02  0 
 -2.386652e-03  -2.963769e-02  0 
 4.052821e-03  -1.225471e-02  0 
 4.088401e-03  -1.335871e-02  0 
 8.015165e-04  -1.447000e-02  0 
 1.912015e-03  -1.444388e-02  0 
 3.005837e-03  -1.444682e-02  0 
 -1.662461e-03  -7.714713e-03  0 
 -2.889404e-03  -2.403432e-02  0 
 3.134362e-03  -1.200923e-02  0 
 2.577475e-03  -1.582834e-02  0 
 2.803219e-04  -1.164014e-02  0 
 1.691422e-03  -1.233021e-02  0 
 3.266492e-03  -1.297499e-02  0 
 8.342966e-04  -1.358579e-02  0 
 8.648392e-04  -1.080476e-02  0 
 3.092674e-03  -1.223183e-02  0 
 2.614079e-03  -1.357583e-02  0 
 4.715986e-04  -1.165072e-02  0 
 7.898299e-04  -1.250230e-02  0 
 1.548084e-03  -1.140832e-02  0 
 1.713219e-03  -1.318018e-02  0 
 2.414052e-03  -1.179018e-02  0 
 2.407034e-03  -1.265146e-02  0 
 3.414621e-03  -1.376276e-02  0 
VECTORS displacement_ITER16 FLOAT
 -6.978726e-04  -8.989983e-03  0 
 -7.502443e-04  -1.434878e-02  0 
 4.392404e-03  -1.433979e-02  0 
 5.746824e-04  -8.926690e-03  0 
 -7.211876e-04  -1.038456e-02  0 
 -7.284216e-04  -1.171897e-02  0 
 -7.399141e-04  -1.302970e-02  0 
 -7.092671e-03  -3.522473e-02  0 
 -3.501334e-03  -2.985280e-02  0 
 4.328157e-03  -1.175653e-02  0 
 4.363366e-03  -1.303632e-02  0 
 5.505416e-04  -1.432126e-02  0 
 1.835372e-03  -1.429601e-02  0 
 3.104544e-03  -1.430014e-02  0 
 1.563372e-04  -1.007987e-02  0 
 -4.477983e-03  -2.386721e-02  0 
 1.862185e-03  -1.172536e-02  0 
 1.729991e-03  -1.558306e-02  0 
 2.533282e-04  -1.044619e-02  0 
 1.577019e-03  -1.185290e-02  0 
 3.409561e-03  -1.259599e-02  0 
 5.866199e-04  -1.330085e-02  0 
 6.154710e-04  -1.009869e-02  0 
 3.208903e-03  -1.173392e-02  0 
 2.649910e-03  -1.329271e-02  0 
 1.643784e-04  -1.106918e-02  0 
 5.334883e-04  -1.205053e-02  0 
 1.409368e-03  -1.078918e-02  0 
 1.603428e-03  -1.283457e-02  0 
 2.418728e-03  -1.122558e-02  0 
 2.409289e-03  -1.222319e-02  0 
 3.580104e-03  -1.350721e-02  0 
VECTORS displacement_ITER17 FLOAT
 4.346017e-04  -8.949632e-03  0 
 3.845076e-04  -1.329658e-02  0 
 4.504381e-03  -1.328352e-02  0 
 5.833322e-04  -8.883758e-03  0 
 4.115235e-04  -1.009383e-02  0 
 4.051975e-04  -1.117530e-02  0 
 3.944490e-04  -1.223171e-02  0 
 -4.079465e-03  -3.134503e-02  0 
 -1.798266e-03  -2.781975e-02  0 
 4.441609e-03  -1.121678e-02  0 
 4.476212e-03  -1.223821e-02  0 
 1.431178e-03  -1.326923e-02  0 
 2.461792e-03  -1.324345e-02  0 
 3.475006e-03  -1.324560e-02  0 
 5.335130e-04  -8.961219e-03  0 
 -2.578164e-03  -2.187626e-02  0 
 2.999313e-03  -1.082728e-02  0 
 2.915875e-03  -1.454902e-02  0 
 1.088879e-03  -1.032530e-02  0 
 2.257125e-03  -1.128121e-02  0 
 3.715861e-03  -1.188150e-02  0 
 1.462238e-03  -1.244738e-02  0 
 1.491004e-03  -9.864205e-03  0 
 3.554296e-03  -1.119274e-02  0 
 3.112271e-03  -1.243796e-02  0 
 1.126297e-03  -1.064937e-02  0 
 1.421259e-03  -1.144035e-02  0 
 2.124136e-03  -1.042512e-02  0 
 2.277583e-03  -1.207043e-02  0 
 2.925878e-03  -1.078106e-02  0 
 2.920179e-03  -1.158035e-02  0 
 3.853219e-03  -1.261172e-02  0 
VECTORS displacement_ITER18 FLOAT
 -4.024997e-04  -9.506959e-03  0 
 -4.560824e-04  -1.256029e-02  0 
 2.373853e-03  -1.254310e-02  0 
 -4.411740e-04  -9.440911e-03  0 
 -4.266911e-04  -1.032662e-02  0 
 -4.343323e-04  -1.108428e-02  0 
 -4.457485e-04  -1.181777e-02  0 
 -4.408031e-03  -3.097765e-02  0 
 -2.510663e-03  -2.727247e-02  0 
 2.309689e-03  -1.112720e-02  0 
 2.345223e-03  -1.182261e-02  0 
 2.682876e-04  -1.253240e-02  0 
 9.765802e-04  -1.250609e-02  0 
 1.667176e-03  -1.250722e-02  0 
 -4.298211e-04  -9.338248e-03  0 
 -2.978488e-03  -2.173123e-02  0 
 2.522926e-03  -1.127816e-02  0 
 2.159792e-03  -1.426528e-02  0 
 4.013443e-04  -1.083791e-02  0 
 8.397677e-04  -1.115255e-02  0 
 1.827203e-03  -1.157082e-02  0 
 2.930821e-04  -1.196195e-02  0 
 3.222609e-04  -1.016687e-02  0 
 1.714411e-03  -1.110099e-02  0 
 1.419756e-03  -1.195069e-02  0 
 6.788694e-05  -1.071507e-02  0 
 2.679442e-04  -1.126331e-02  0 
 7.507590e-04  -1.056063e-02  0 
 8.527548e-04  -1.169783e-02  0 
 1.289766e-03  -1.081239e-02  0 
 1.288800e-03  -1.136082e-02  0 
 1.923459e-03  -1.207302e-02  0 
VECTORS displacement_ITER19 FLOAT
 -4.052078e-05  -8.264662e-03  0 
 -9.567221e-05  -1.130999e-02  0 
 2.715049e-03  -1.128711e-02  0 
 -1.431380e-03  -8.194958e-03  0 
 -6.543955e-05  -9.085185e-03  0 
 -7.310337e-05  -9.840764e-03  0 
 -8.478819e-05  -1.057075e-02  0 
 -4.673509e-03  -3.103994e-02  0 
 -2.485347e-03  -2.656891e-02  0 
 2.651405e-03  -9.882970e-03  0 
 2.687096e-03  -1.057257e-02  0 
 6.254243e-04  -1.128062e-02  0 
 1.329814e-03  -1.125248e-02  0 
 2.015095e-03  -1.125192e-02  0 
 -9.765381e-04  -6.797133e-03  0 
 -2.910472e-03  -2.117871e-02  0 
 2.706620e-03  -1.052616e-02  0 
 2.397180e-03  -1.325539e-02  0 
 4.680956e-04  -9.932472e-03  0 
 1.194928e-03  -9.907418e-03  0 
 2.173910e-03  -1.032272e-02  0 
 6.507532e-04  -1.071308e-02  0 
 6.813064e-04  -8.925867e-03  0 
 2.062190e-03  -9.856745e-03  0 
 1.770089e-03  -1.070001e-02  0 
 4.275637e-04  -9.472463e-03  0 
 6.262822e-04  -1.001808e-02  0 
 1.106877e-03  -9.318569e-03  0 
 1.207461e-03  -1.044953e-02  0 
 1.641438e-03  -9.569701e-03  0 
 1.640471e-03  -1.011436e-02  0 
 2.269137e-03  -1.082114e-02  0 
VECTORS displacement_ITER20 FLOAT
 4.511226e-04  -8.449139e-03  0 
 3.923357e-04  -1.033435e-02  0 
 2.043391e-03  -1.030984e-02  0 
 -3.552098e-06  -8.381149e-03  0 
 4.251561e-04  -8.978530e-03  0 
 4.163270e-04  -9.443753e-03  0 
 4.037943e-04  -9.884230e-03  0 
 -5.455872e-03  -3.214101e-02  0 
 -2.356977e-03  -2.652508e-02  0 
 1.979060e-03  -9.485786e-03  0 
 2.015497e-03  -9.885244e-03  0 
 8.239909e-04  -1.030385e-02  0 
 1.238523e-03  -1.027485e-02  0 
 1.633646e-03  -1.027428e-02  0 
 1.449311e-04  -7.877086e-03  0 
 -2.919310e-03  -2.122484e-02  0 
 3.184715e-03  -1.042618e-02  0 
 2.882934e-03  -1.276436e-02  0 
 1.208394e-03  -9.785201e-03  0 
 1.164822e-03  -9.476994e-03  0 
 1.718983e-03  -9.728936e-03  0 
 8.438976e-04  -9.962091e-03  0 
 8.749571e-04  -8.882401e-03  0 
 1.651346e-03  -9.459267e-03  0 
 1.491962e-03  -9.947530e-03  0 
 7.204061e-04  -9.216212e-03  0 
 8.338154e-04  -9.544008e-03  0 
 1.116438e-03  -9.125440e-03  0 
 1.170556e-03  -9.799883e-03  0 
 1.414360e-03  -9.283243e-03  0 
 1.417449e-03  -9.602321e-03  0 
 1.777544e-03  -1.002351e-02  0 
VECTORS displacement_ITER21 FLOAT
 -4.638605e-04  -8.741636e-03  0 
 -5.196328e-04  -1.110285e-02  0 
 1.603670e-03  -1.108118e-02  0 
 -1.441415e-03  -8.672975e-03  0 
 -4.893194e-04  -9.391455e-03  0 
 -4.971329e-04  -9.975935e-03  0 
 -5.088290e-04  -1.053473e-02  0 
 -4.983981e-03  -3.009392e-02  0 
 -2.834096e-03  -2.620061e-02  0 
 1.538632e-03  -1.002246e-02  0 
 1.575831e-03  -1.053895e-02  0 
 3.019099e-05  -1.107346e-02  0 
 5.630981e-04  -1.104534e-02  0 
 1.076474e-03  -1.104521e-02  0 
 -1.120931e-03  -7.669428e-03  0 
 -3.423180e-03  -2.062000e-02  0 
 1.939729e-03  -1.017830e-02  0 
 1.946779e-03  -1.311897e-02  0 
 -7.909804e-05  -1.004195e-02  0 
 4.640535e-04  -1.002384e-02  0 
 1.191175e-03  -1.034386e-02  0 
 5.211164e-05  -1.063957e-02  0 
 8.261840e-05  -9.269975e-03  0 
 1.105154e-03  -9.994353e-03  0 
 8.925189e-04  -1.062656e-02  0 
 -1.125702e-04  -9.691130e-03  0 
 3.591122e-05  -1.010833e-02  0 
 3.994018e-04  -9.575052e-03  0 
 4.726844e-04  -1.043640e-02  0 
 7.934909e-04  -9.771937e-03  0 
 7.953164e-04  -1.018310e-02  0 
 1.264864e-03  -1.072161e-02  0 
VECTORS displacement_ITER22 FLOAT
 -6.028168e-04  -7.511174e-03  0 
 -6.654005e-04  -1.006085e-02  0 
 1.664209e-03  -1.004228e-02  0 
 9.431701e-04  -7.450565e-03  0 
 -6.301166e-04  -8.201261e-03  0 
 -6.409731e-04  -8.832309e-03  0 
 -6.540920e-04  -9.441715e-03  0 
 -6.774872e-03  -3.108762e-02  0 
 -3.564817e-03  -2.599983e-02  0 
 1.599709e-03  -8.876442e-03  0 
 1.636654e-03  -9.446701e-03  0 
 -6.489244e-05  -1.003128e-02  0 
 5.188735e-04  -1.000381e-02  0 
 1.084286e-03  -1.000527e-02  0 
 4.376367e-04  -8.859617e-03  0 
 -4.367651e-03  -2.038976e-02  0 
 1.610322e-03  -9.595890e-03  0 
 1.625581e-03  -1.224391e-02  0 
 3.170530e-04  -8.619700e-03  0 
 4.083358e-04  -8.885480e-03  0 
 1.211867e-03  -9.234389e-03  0 
 -4.204666e-05  -9.557414e-03  0 
 -1.228367e-05  -8.066853e-03  0 
 1.117905e-03  -8.849000e-03  0 
 8.812220e-04  -9.545612e-03  0 
 -2.235814e-04  -8.522855e-03  0 
 -6.070239e-05  -8.977310e-03  0 
 3.364893e-04  -8.395517e-03  0 
 4.184903e-04  -9.336636e-03  0 
 7.730120e-04  -8.607274e-03  0 
 7.739652e-04  -9.059003e-03  0 
 1.292421e-03  -9.649471e-03  0 
VECTORS displacement_ITER23 FLOAT
 6.355369e-05  -7.324824e-03  0 
 -6.094628e-08  -9.406281e-03  0 
 1.860757e-03  -9.386164e-03  0 
 -1.999819e-04  -7.261016e-03  0 
 3.542321e-05  -7.899123e-03  0 
 2.417682e-05  -8.413013e-03  0 
 1.120324e-05  -8.904732e-03  0 
 -4.299316e-03  -2.941357e-02  0 
 -2.357745e-03  -2.481101e-02  0 
 1.796168e-03  -8.457220e-03  0 
 1.833238e-03  -8.908898e-03  0 
 4.832841e-04  -9.376973e-03  0 
 9.500685e-04  -9.349508e-03  0 
 1.398422e-03  -9.350272e-03  0 
 -1.126183e-04  -6.938552e-03  0 
 -2.577943e-03  -1.968177e-02  0 
 2.859147e-03  -9.555942e-03  0 
 2.471974e-03  -1.172353e-02  0 
 8.374919e-04  -8.807334e-03  0 
 8.643297e-04  -8.451982e-03  0 
 1.496773e-03  -8.734801e-03  0 
 5.037274e-04  -8.994550e-03  0 
 5.340254e-04  -7.789421e-03  0 
 1.420587e-03  -8.428860e-03  0 
 1.237328e-03  -8.981948e-03  0 
 3.623970e-04  -8.160109e-03  0 
 4.907989e-04  -8.526600e-03  0 
 8.085971e-04  -8.057653e-03  0 
 8.716275e-04  -8.814702e-03  0 
 1.149735e-03  -8.231648e-03  0 
 1.152324e-03  -8.592484e-03  0 
 1.562270e-03  -9.066990e-03  0 
VECTORS displacement_ITER24 FLOAT
 3.154374e-04  -6.940007e-03  0 
 2.484540e-04  -8.958123e-03  0 
 2.054703e-03  -8.938100e-03  0 
 8.333493e-05  -6.879383e-03  0 
 2.862100e-04  -7.495555e-03  0 
 2.734645e-04  -7.993340e-03  0 
 2.599205e-04  -8.470643e-03  0 
 -4.077290e-03  -2.912520e-02  0 
 -2.199162e-03  -2.446501e-02  0 
 1.990619e-03  -8.035692e-03  0 
 2.027256e-03  -8.474190e-03  0 
 7.177450e-04  -8.928807e-03  0 
 1.170643e-03  -8.901548e-03  0 
 1.605578e-03  -8.902471e-03  0 
 1.615470e-04  -6.586564e-03  0 
 -2.373103e-03  -1.941345e-02  0 
 3.040394e-03  -9.337704e-03  0 
 2.663721e-03  -1.136198e-02  0 
 1.080320e-03  -8.466313e-03  0 
 1.087653e-03  -8.029973e-03  0 
 1.700778e-03  -8.304648e-03  0 
 7.378626e-04  -8.557189e-03  0 
 7.681144e-04  -7.387698e-03  0 
 1.626728e-03  -8.007541e-03  0 
 1.449226e-03  -8.544599e-03  0 
 6.016117e-04  -7.747161e-03  0 
 7.256380e-04  -8.102622e-03  0 
 1.033805e-03  -7.647265e-03  0 
 1.094681e-03  -8.382213e-03  0 
 1.364177e-03  -7.815832e-03  0 
 1.366769e-03  -8.166348e-03  0 
 1.764493e-03  -8.627362e-03  0 
VECTORS displacement_ITER25 FLOAT
 -7.738528e-05  -7.178503e-03  0 
 -1.470678e-04  -8.873200e-03  0 
 1.345819e-03  -8.855943e-03  0 
 -5.149553e-04  -7.121063e-03  0 
 -1.076129e-04  -7.650703e-03  0 
 -1.216148e-04  -8.067398e-03  0 
 -1.355733e-04  -8.465040e-03  0 
 -4.247035e-03  -2.861798e-02  0 
 -2.529072e-03  -2.427984e-02  0 
 1.281333e-03  -8.107978e-03  0 
 1.317947e-03  -8.469123e-03  0 
 2.429539e-04  -8.844247e-03  0 
 6.168267e-04  -8.817662e-03  0 
 9.737201e-04  -8.819555e-03  0 
 -3.677852e-04  -6.631502e-03  0 
 -2.721945e-03  -1.919660e-02  0 
 2.532486e-03  -9.204040e-03  0 
 2.274096e-03  -1.131883e-02  0 
 5.589667e-04  -8.618141e-03  0 
 5.501402e-04  -8.094427e-03  0 
 1.049162e-03  -8.324624e-03  0 
 2.612957e-04  -8.534238e-03  0 
 2.916425e-04  -7.559202e-03  0 
 9.869189e-04  -8.079987e-03  0 
 8.448643e-04  -8.521920e-03  0 
 1.523567e-04  -7.859792e-03  0 
 2.528821e-04  -8.155344e-03  0 
 5.071327e-04  -7.776554e-03  0 
 5.553527e-04  -8.387119e-03  0 
 7.736631e-04  -7.918674e-03  0 
 7.771700e-04  -8.208417e-03  0 
 1.103166e-03  -8.592700e-03  0 
VECTORS displacement_ITER26 FLOAT
 7.817718e-04  -7.126695e-03  0 
 7.090982e-04  -8.429597e-03  0 
 1.816593e-03  -8.415319e-03  0 
 -2.169187e-04  -7.070352e-03  0 
 7.503470e-04  -7.500105e-03  0 
 7.352322e-04  -7.818667e-03  0 
 7.208055e-04  -8.118765e-03  0 
 -3.232858e-03  -2.863951e-02  0 
 -1.607560e-03  -2.398918e-02  0 
 1.751891e-03  -7.855924e-03  0 
 1.788381e-03  -8.122737e-03  0 
 1.001939e-03  -8.400646e-03  0 
 1.278691e-03  -8.374381e-03  0 
 1.539439e-03  -8.377395e-03  0 
 1.155599e-04  -6.042990e-03  0 
 -1.663582e-03  -1.906774e-02  0 
 3.512133e-03  -9.029093e-03  0 
 3.206725e-03  -1.105048e-02  0 
 1.328155e-03  -8.609550e-03  0 
 1.232446e-03  -7.833555e-03  0 
 1.590348e-03  -8.008962e-03  0 
 1.018281e-03  -8.166273e-03  0 
 1.049361e-03  -7.428869e-03  0 
 1.542760e-03  -7.828857e-03  0 
 1.444451e-03  -8.153833e-03  0 
 9.431703e-04  -7.657996e-03  0 
 1.014765e-03  -7.880268e-03  0 