# vtk DataFile Version 3.1
this is an vtk file created by FEMAC
ASCII
DATASET UNSTRUCTURED_GRID
POINTS 32 FLOAT
3.000000 3.000000 0.000000
3.000000 4.000000 0.000000
2.750000 3.000000 0.000000
3.000000 2.500000 0.000000
3.000000 2.750000 0.000000
3.000000 3.250000 0.000000
3.000000 3.500000 0.000000
3.000000 3.750000 0.000000
3.250000 3.000000 0.000000
3.500000 3.000000 0.000000
3.250000 4.000000 0.000000
3.500000 4.000000 0.000000
2.805000 2.745000 0.000000
2.808904 3.785023 0.000000
2.769602 3.187596 0.000000
2.818560 3.488721 0.000000
3.255000 2.805000 0.000000
3.183310 2.629173 0.000000
3.447447 3.528256 0.000000
3.255000 3.805000 0.000000
3.255000 3.195000 0.000000
3.169567 3.378219 0.000000
3.242859 3.565925 0.000000
3.413341 3.323754 0.000000
3.453287 3.717271 0.000000
3.630781 4.172236 0.000000
3.755447 4.375936 0.000000
3.512466 4.547863 0.000000
3.336997 4.345660 0.000000
3.536362 4.315974 0.000000
3.396523 4.159812 0.000000
3.186855 4.186208 0.000000
CELLS 42 168 
3 12  3  4
3 12  0  2
3 4  0 12
3 0 14  2
3 0  5 14
3 7  1 13
3 7 15  6
3 7 13 15
3 15  5  6
3 15 14  5
3 16  9  8
3 17  4  3
3 17 16  4
3 16  0  4
3 8  0 16
3 19 11 10
3 9 20  8
3 5 21  6
3 22  7  6
3 22 24 19
3 23 21 20
3 22 19  7
3 20 21  5
3 9 23 20
3 24 11 19
3 19  1  7
3 10  1 19
3 0 20  5
3 0  8 20
3 6 21 22
3 23 18 22
3 18 24 22
3 22 21 23
3 28 29 27
3 29 26 27
3 30 11 25
3 30 10 11
3 29 30 25
3 29 28 30
3 10 31  1
3 30 31 10
3 30 28 31
CELL_TYPES 42
5 5 5 5 5 5 5 5 5 5 5 5 5 5 5 5 5 5 5 5 5 5 5 5 5 5 5 5 5 5 5 5 5 5 5 5 5 5 5 5 5 5 
POINT_DATA 32
VECTORS displacement_ITER1 FLOAT
 8.369984e-04  -1.326377e-01  0 
 4.210747e-02  -1.327684e-01  0 
 8.905485e-04  -1.259953e-01  0 
 -1.213031e-02  -1.325504e-01  0 
 -5.672729e-03  -1.325877e-01  0 
 1.115995e-02  -1.327069e-01  0 
 2.148001e-02  -1.327544e-01  0 
 3.179008e-02  -1.327702e-01  0 
 8.238054e-04  -1.430486e-01  0 
 8.269735e-04  -1.534392e-01  0 
 4.213218e-02  -1.431321e-01  0 
 4.215688e-02  -1.535101e-01  0 
 -5.823194e-03  -1.275182e-01  0 
 3.171668e-02  -1.160398e-01  0 
 4.507247e-03  -1.095994e-01  0 
 1.942588e-02  -1.173285e-01  0 
 -2.413225e-03  -1.444229e-01  0 
 -7.010773e-03  -1.411062e-01  0 
 2.266617e-02  -1.512412e-01  0 
 3.406469e-02  -1.433125e-01  0 
 8.914383e-03  -1.432554e-01  0 
 1.646868e-02  -1.397462e-01  0 
 2.420780e-02  -1.427930e-01  0 
 1.423730e-02  -1.498142e-01  0 
 3.045758e-02  -1.515073e-01  0 
 5.364597e-02  -1.892981e-01  0 
 7.106874e-02  -2.896891e-01  0 
 1.060791e-01  -1.987248e-01  0 
 5.381704e-02  -1.549173e-01  0 
 5.242633e-02  -1.982084e-01  0 
 3.958902e-02  -1.593832e-01  0 
 3.963420e-02  -1.408585e-01  0 
VECTORS displacement_ITER2 FLOAT
 1.790423e-02  -1.176071e-01  0 
 8.260731e-02  -1.178379e-01  0 
 1.794300e-02  -1.017726e-01  0 
 -1.345456e-02  -1.174767e-01  0 
 2.199075e-03  -1.175345e-01  0 
 3.413523e-02  -1.176985e-01  0 
 5.033305e-02  -1.177817e-01  0 
 6.648478e-02  -1.178240e-01  0 
 1.789265e-02  -1.339341e-01  0 
 1.789884e-02  -1.502402e-01  0 
 8.263663e-02  -1.340082e-01  0 
 8.266034e-02  -1.501829e-01  0 
 1.857359e-03  -1.052932e-01  0 
 6.761135e-02  -9.683952e-02  0 
 2.788717e-02  -9.043655e-02  0 
 4.841071e-02  -9.820425e-02  0 
 7.666236e-03  -1.359407e-01  0 
 -3.544659e-03  -1.309585e-01  0 
 5.217605e-02  -1.467502e-01  0 
 7.004250e-02  -1.343054e-01  0 
 3.059845e-02  -1.342607e-01  0 
 4.246861e-02  -1.287424e-01  0 
 5.461125e-02  -1.335076e-01  0 
 3.895572e-02  -1.445466e-01  0 
 6.438634e-02  -1.471261e-01  0 
 7.705239e-02  -1.478518e-01  0 
 6.206901e-02  -1.582168e-01  0 
 5.301407e-02  -1.440487e-01  0 
 6.623271e-02  -1.477132e-01  0 
 6.722065e-02  -1.475321e-01  0 
 7.853593e-02  -1.450796e-01  0 
 7.530872e-02  -1.377904e-01  0 
VECTORS displacement_ITER3 FLOAT
 4.301551e-03  -7.058490e-02  0 
 2.977190e-02  -7.077489e-02  0 
 4.339614e-03  -6.981947e-02  0 
 3.179109e-03  -7.036075e-02  0 
 3.708293e-03  -7.046368e-02  0 
 1.069416e-02  -7.071331e-02  0 
 1.706509e-02  -7.079577e-02  0 
 2.341787e-02  -7.080579e-02  0 
 4.291866e-03  -7.710709e-02  0 
 4.307773e-03  -8.359284e-02  0 
 2.982523e-02  -7.722359e-02  0 
 2.985867e-02  -8.370335e-02  0 
 3.653686e-03  -7.001032e-02  0 
 2.391771e-02  -5.880966e-02  0 
 7.810357e-03  -5.765028e-02  0 
 1.601727e-02  -6.025305e-02  0 
 4.367698e-03  -7.627668e-02  0 
 4.125819e-03  -7.370550e-02  0 
 1.780481e-02  -8.220862e-02  0 
 2.481194e-02  -7.731312e-02  0 
 9.333308e-03  -7.724763e-02  0 
 1.398761e-02  -7.510018e-02  0 
 1.874615e-02  -7.699564e-02  0 
 1.262591e-02  -8.131682e-02  0 
 2.259005e-02  -8.239222e-02  0 
 4.709075e-02  -1.100936e-01  0 
 6.507854e-02  -1.533174e-01  0 
 7.899581e-02  -1.117584e-01  0 
 5.126480e-02  -8.578295e-02  0 
 5.299088e-02  -1.104922e-01  0 
 3.580242e-02  -8.612627e-02  0 
 3.451523e-02  -7.341567e-02  0 
VECTORS displacement_ITER4 FLOAT
 -3.128249e-03  -6.384716e-02  0 
 1.762279e-02  -6.407051e-02  0 
 -3.088493e-03  -6.621310e-02  0 
 2.067006e-03  -6.357658e-02  0 
 -5.646687e-04  -6.370127e-02  0 
 2.090124e-03  -6.400084e-02  0 
 7.284713e-03  -6.409863e-02  0 
 1.245637e-02  -6.410967e-02  0 
 -3.142028e-03  -6.922026e-02  0 
 -3.126068e-03  -7.455104e-02  0 
 1.769140e-02  -6.935414e-02  0 
 1.773340e-02  -7.467436e-02  0 
 -5.635199e-04  -6.570943e-02  0 
 1.294530e-02  -5.441052e-02  0 
 -4.882118e-04  -5.423379e-02  0 
 6.460586e-03  -5.575044e-02  0 
 -1.328302e-03  -6.736414e-02  0 
 7.582502e-04  -6.505700e-02  0 
 7.893273e-03  -7.340105e-02  0 
 1.358814e-02  -6.941129e-02  0 
 9.956416e-04  -6.933833e-02  0 
 4.784944e-03  -6.759965e-02  0 
 8.654652e-03  -6.915331e-02  0 
 3.684055e-03  -7.266780e-02  0 
 1.178107e-02  -7.356181e-02  0 
 3.752139e-02  -9.992965e-02  0 
 5.878035e-02  -1.322195e-01  0 
 6.873777e-02  -1.020885e-01  0 
 4.337746e-02  -7.739617e-02  0 
 4.624376e-02  -9.882545e-02  0 
 2.629082e-02  -7.657754e-02  0 
 2.463498e-02  -6.513863e-02  0 
VECTORS displacement_ITER5 FLOAT
 -7.036916e-03  -4.378083e-02  0 
 5.620853e-02  -4.417538e-02  0 
 -7.006898e-03  -3.107711e-02  0 
 -3.197923e-02  -4.347070e-02  0 
 -1.953892e-02  -4.361337e-02  0 
 8.885347e-03  -4.396631e-02  0 
 2.474394e-02  -4.412207e-02  0 
 4.051467e-02  -4.418344e-02  0 
 -7.061284e-03  -5.988295e-02  0 
 -7.053779e-03  -7.594706e-02  0 
 5.629284e-02  -5.999980e-02  0 
 5.634513e-02  -7.583696e-02  0 
 -1.984555e-02  -3.386815e-02  0 
 4.241695e-02  -2.866388e-02  0 
 4.524800e-03  -2.563725e-02  0 
 2.375835e-02  -2.958981e-02  0 
 -1.671383e-02  -5.950069e-02  0 
 -2.551140e-02  -5.444365e-02  0 
 2.654730e-02  -7.243923e-02  0 
 4.397749e-02  -6.026006e-02  0 
 5.447251e-03  -6.020605e-02  0 
 1.706628e-02  -5.482315e-02  0 
 2.892878e-02  -5.949332e-02  0 
 1.363992e-02  -7.029593e-02  0 
 3.845725e-02  -7.280176e-02  0 
 4.834230e-02  -4.764323e-02  0 
 2.656854e-02  2.451207e-02  0 
 -1.714538e-02  -3.818040e-02  0 
 3.768981e-02  -7.173013e-02  0 
 4.297055e-02  -3.764152e-02  0 
 5.933426e-02  -6.259660e-02  0 
 5.370539e-02  -6.554874e-02  0 
VECTORS displacement_ITER6 FLOAT
 1.621202e-03  -2.332084e-02  0 
 6.674475e-03  -2.360734e-02  0 
 1.652802e-03  -2.826985e-02  0 
 1.201309e-02  -2.298074e-02  0 
 6.785169e-03  -2.313865e-02  0 
 2.952315e-03  -2.351017e-02  0 
 4.241242e-03  -2.364147e-02  0 
 5.478152e-03  -2.366349e-02  0 
 1.594655e-03  -2.484331e-02  0 
 1.603351e-03  -2.632270e-02  0 
 6.776045e-03  -2.497962e-02  0 
 6.838588e-03  -2.638128e-02  0 
 6.827389e-03  -2.717235e-02  0 
 5.712116e-03  -2.115100e-02  0 
 2.378246e-03  -2.218752e-02  0 
 4.114695e-03  -2.164913e-02  0 
 4.988235e-03  -2.313966e-02  0 
 8.713892e-03  -2.221830e-02  0 
 4.403772e-03  -2.592124e-02  0 
 5.736709e-03  -2.493937e-02  0 
 2.723910e-03  -2.487641e-02  0 
 3.653844e-03  -2.447722e-02  0 
 4.578198e-03  -2.488196e-02  0 
 3.406483e-03  -2.573780e-02  0 
 5.314488e-03  -2.597961e-02  0 
 2.181993e-02  -4.314379e-02  0 
 4.473435e-02  -6.821568e-02  0 
 5.337279e-02  -5.060981e-02  0 
 2.805122e-02  -2.830540e-02  0 
 3.101397e-02  -4.347589e-02  0 
 1.371938e-02  -2.792372e-02  0 
 1.266472e-02  -2.156514e-02  0 
VECTORS displacement_ITER7 FLOAT
 1.131341e-02  -1.486840e-02  0 
 8.285928e-03  -1.520893e-02  0 
 1.133493e-02  -1.526965e-02  0 
 1.257916e-02  -1.451516e-02  0 
 1.191980e-02  -1.467826e-02  0 
 1.066245e-02  -1.507301e-02  0 
 9.945696e-03  -1.523060e-02  0 
 9.148313e-03  -1.526787e-02  0 
 1.128277e-02  -1.441934e-02  0 
 1.129014e-02  -1.392798e-02  0 
 8.396491e-03  -1.454510e-02  0 
 8.464058e-03  -1.389930e-02  0 
 1.186881e-02  -1.515464e-02  0 
 9.111412e-03  -1.582384e-02  0 
 1.120176e-02  -1.481667e-02  0 
 1.017406e-02  -1.554846e-02  0 
 1.178475e-02  -1.496006e-02  0 
 1.171036e-02  -1.512646e-02  0 
 9.875734e-03  -1.389101e-02  0 
 8.955576e-03  -1.445937e-02  0 
 1.087594e-02  -1.440842e-02  0 
 1.034284e-02  -1.469313e-02  0 
 9.752615e-03  -1.450478e-02  0 
 1.053162e-02  -1.400130e-02  0 
 9.251125e-03  -1.388456e-02  0 
 1.552834e-02  -2.338576e-02  0 
 3.187792e-02  -4.773052e-02  0 
 4.052125e-02  -3.306929e-02  0 
 1.885098e-02  -1.551129e-02  0 
 2.066339e-02  -2.608461e-02  0 
 1.064691e-02  -1.574092e-02  0 
 1.016073e-02  -1.296236e-02  0 
VECTORS displacement_ITER8 FLOAT
 3.826361e-03  -1.401073e-02  0 
 2.553379e-02  -1.442009e-02  0 
 3.842717e-03  -3.584804e-03  0 
 -1.658561e-02  -1.366081e-02  0 
 -6.401948e-03  -1.382113e-02  0 
 9.396656e-03  -1.422201e-02  0 
 1.488170e-02  -1.440340e-02  0 
 2.025616e-02  -1.446416e-02  0 
 3.791521e-03  -1.978697e-02  0 
 3.794748e-03  -2.552313e-02  0 
 2.564714e-02  -1.989923e-02  0 
 2.571732e-02  -2.538086e-02  0 
 -6.669207e-03  -5.844452e-03  0 
 2.094197e-02  -1.116929e-02  0 
 8.894604e-03  -7.249117e-03  0 
 1.497325e-02  -1.052570e-02  0 
 -3.374605e-03  -2.200501e-02  0 
 -1.135254e-02  -2.058916e-02  0 
 1.550708e-02  -2.413161e-02  0 
 2.142114e-02  -1.993496e-02  0 
 8.243922e-03  -1.989533e-02  0 
 1.226454e-02  -1.805833e-02  0 
 1.632557e-02  -1.968276e-02  0 
 1.109977e-02  -2.341803e-02  0 
 1.955416e-02  -2.424585e-02  0 
 1.922716e-02  -1.275004e-02  0 
 1.443049e-02  1.425849e-03  0 
 3.283949e-03  -1.698195e-02  0 
 1.488133e-02  -2.358457e-02  0 
 1.662268e-02  -1.254145e-02  0 
 2.416670e-02  -2.094749e-02  0 
 2.243991e-02  -2.298713e-02  0 
VECTORS displacement_ITER9 FLOAT
 4.064555e-03  -8.055931e-03  0 
 7.251367e-03  -8.398401e-03  0 
 4.083916e-03  -5.646016e-03  0 
 -3.000650e-04  -7.709147e-03  0 
 1.858338e-03  -7.867910e-03  0 
 4.977411e-03  -8.260942e-03  0 
 5.821294e-03  -8.423188e-03  0 
 6.576752e-03  -8.463370e-03  0 
 4.031224e-03  -9.171878e-03  0 
 4.035216e-03  -1.024515e-02  0 
 7.372840e-03  -9.295030e-03  0 
 7.449653e-03  -1.019782e-02  0 
 1.752188e-03  -6.147981e-03  0 
 6.657806e-03  -9.657478e-03  0 
 5.439516e-03  -7.639604e-03  0 
 6.105195e-03  -8.925201e-03  0 
 2.694707e-03  -1.018949e-02  0 
 6.804370e-04  -9.944332e-03  0 
 5.925770e-03  -9.868393e-03  0 
 6.723169e-03  -9.232979e-03  0 
 4.846256e-03  -9.189531e-03  0 
 5.459530e-03  -8.940533e-03  0 
 6.039179e-03  -9.207230e-03  0 
 5.307677e-03  -9.771726e-03  0 
 6.475388e-03  -9.892101e-03  0 
 9.895952e-03  -1.593985e-02  0 
 2.043908e-02  -3.979999e-02  0 
 3.002194e-02  -2.567981e-02  0 
 1.183750e-02  -1.096264e-02  0 
 1.225035e-02  -1.969123e-02  0 
 7.371907e-03  -1.162452e-02  0 
 7.534301e-03  -9.142760e-03  0 
VECTORS displacement_ITER10 FLOAT
 -4.569614e-05  -7.058224e-03  0 
 1.078337e-02  -7.399606e-03  0 
 -2.855389e-05  -5.139949e-03  0 
 -3.427975e-03  -6.716041e-03  0 
 -1.763069e-03  -6.872602e-03  0 
 2.781884e-03  -7.258306e-03  0 
 5.540409e-03  -7.418607e-03  0 
 8.207751e-03  -7.461310e-03  0 
 -7.665418e-05  -1.008115e-02  0 
 -7.286600e-05  -1.306343e-02  0 
 1.090781e-02  -1.020094e-02  0 
 1.098783e-02  -1.300155e-02  0 
 -1.858743e-03  -5.534534e-03  0 
 8.668621e-03  -7.265450e-03  0 
 3.119117e-03  -6.652190e-03  0 
 5.737338e-03  -6.802975e-03  0 
 -1.394822e-03  -1.038333e-02  0 
 -2.803611e-03  -9.544046e-03  0 
 5.859731e-03  -1.228687e-02  0 
 8.774474e-03  -1.017531e-02  0 
 2.227834e-03  -1.013818e-02  0 
 4.245445e-03  -9.233700e-03  0 
 6.263413e-03  -1.005951e-02  0 
 3.675111e-03  -1.193231e-02  0 
 7.855581e-03  -1.234952e-02  0 
 7.380180e-03  -8.634568e-03  0 
 6.742726e-03  -1.113891e-02  0 
 6.070375e-03  -1.392858e-02  0 
 5.694391e-03  -1.240482e-02  0 
 6.000693e-03  -1.039649e-02  0 
 9.288393e-03  -1.174026e-02  0 
 8.894020e-03  -1.187131e-02  0 
VECTORS displacement_ITER11 FLOAT
 -5.623739e-03  -1.476714e-03  0 
 8.865849e-03  -1.775651e-03  0 
 -5.601949e-03  -2.544587e-03  0 
 -3.018297e-03  -1.143753e-03  0 
 -4.349351e-03  -1.295850e-03  0 
 -1.900379e-03  -1.666318e-03  0 
 1.767821e-03  -1.810382e-03  0 
 5.359610e-03  -1.842508e-03  0 
 -5.655089e-03  -5.390481e-03  0 
 -5.653627e-03  -9.263985e-03  0 
 8.992664e-03  -5.511524e-03  0 
 9.075539e-03  -9.247926e-03  0 
 -4.383699e-03  -2.291058e-03  0 
 6.188127e-03  -5.610622e-04  0 
 -1.595184e-03  -1.862656e-03  0 
 1.933766e-03  -5.616857e-04  0 
 -4.919290e-03  -4.554117e-03  0 
 -3.860579e-03  -3.206625e-03  0 
 2.191498e-03  -8.322416e-03  0 
 6.129435e-03  -5.502672e-03  0 
 -2.656317e-03  -5.465379e-03  0 
 2.499163e-05  -4.249890e-03  0 
 2.730227e-03  -5.343458e-03  0 
 -7.438665e-04  -7.834703e-03  0 
 4.884257e-03  -8.414436e-03  0 
 8.098860e-03  -8.460070e-03  0 
 9.815432e-03  -1.407233e-02  0 
 1.237491e-02  -1.163903e-02  0 
 8.540778e-03  -7.704969e-03  0 
 8.337944e-03  -9.342370e-03  0 
 8.909448e-03  -7.983052e-03  0 
 8.974702e-03  -6.003059e-03  0 
VECTORS displacement_ITER12 FLOAT
 -3.329004e-03  -2.509452e-04  0 
 5.357593e-03  -5.563954e-04  0 
 -3.304705e-03  -3.097764e-03  0 
 2.845061e-03  7.733449e-05  0 
 -2.700776e-04  -7.128759e-05  0 
 -1.056380e-03  -4.438139e-04  0 
 1.161796e-03  -5.897178e-04  0 
 3.302995e-03  -6.225558e-04  0 
 -3.360561e-03  -2.718037e-03  0 
 -3.358348e-03  -5.143282e-03  0 
 5.485803e-03  -2.842016e-03  0 
 5.569846e-03  -5.129756e-03  0 
 -2.678301e-04  -2.456923e-03  0 
 4.028238e-03  1.822307e-04  0 
 -8.181915e-04  -1.248354e-03  0 
 1.348744e-03  4.767258e-06  0 
 -1.377229e-03  -1.975152e-03  0 
 8.713797e-04  -1.187343e-03  0 
 1.422004e-03  -4.506704e-03  0 
 3.753710e-03  -2.803199e-03  0 
 -1.491915e-03  -2.764384e-03  0 
 1.259835e-04  -2.045327e-03  0 
 1.741935e-03  -2.714416e-03  0 
 -3.261961e-04  -4.216217e-03  0 
 3.017656e-03  -4.565257e-03  0 
 4.583395e-03  -5.440921e-03  0 
 5.799625e-03  -1.220008e-02  0 
 9.052236e-03  -7.699601e-03  0 
 4.823467e-03  -4.035335e-03  0 
 4.483309e-03  -6.421644e-03  0 
 4.839872e-03  -4.610694e-03  0 
 4.968417e-03  -2.964770e-03  0 
VECTORS displacement_ITER13 FLOAT
 -4.637425e-03  -1.248925e-03  0 
 3.849265e-03  -1.563142e-03  0 
 -4.614415e-03  -2.171444e-03  0 
 -2.322782e-03  -9.288581e-04  0 
 -3.505642e-03  -1.072040e-03  0 
 -2.409924e-03  -1.443277e-03  0 
 -2.401383e-04  -1.592327e-03  0 
 1.848906e-03  -1.627308e-03  0 
 -4.669188e-03  -3.672694e-03  0 
 -4.665915e-03  -6.053897e-03  0 
 3.974988e-03  -3.790457e-03  0 
 4.056319e-03  -6.020146e-03  0 
 -3.540555e-03  -1.952143e-03  0 
 2.584551e-03  -1.935130e-04  0 
 -2.391024e-03  -9.750329e-04  0 
 -1.177521e-04  -4.547487e-04  0 
 -3.819779e-03  -3.843731e-03  0 
 -3.136310e-03  -3.248473e-03  0 
 1.312860e-05  -5.419388e-03  0 
 2.287804e-03  -3.753290e-03  0 
 -2.834774e-03  -3.717715e-03  0 
 -1.251409e-03  -3.014127e-03  0 
 3.270697e-04  -3.668058e-03  0 
 -1.693440e-03  -5.139096e-03  0 
 1.569654e-03  -5.472886e-03  0 
 2.224567e-03  -4.020089e-03  0 
 1.409142e-03  -4.069864e-03  0 
 1.878378e-03  -3.200489e-03  0 
 2.213171e-03  -3.552682e-03  0 
 1.842563e-03  -3.565579e-03  0 
 3.371246e-03  -4.478910e-03  0 
 3.463443e-03  -3.383444e-03  0 
VECTORS displacement_ITER14 FLOAT
 -3.146768e-03  1.022393e-03  0 
 4.560103e-04  7.332550e-04  0 
 -3.122706e-03  -8.307174e-04  0 
 1.023033e-03  1.335140e-03  0 
 -1.086025e-03  1.196019e-03  0 
 -2.149599e-03  8.314614e-04  0 
 -1.205284e-03  6.896288e-04  0 
 -3.344405e-04  6.623320e-04  0 
 -3.179240e-03  -1.709025e-04  0 
 -3.175877e-03  -1.321565e-03  0 
 5.795488e-04  -2.842392e-04  0 
 6.581714e-04  -1.305985e-03  0 
 -1.100976e-03  -4.074144e-04  0 
 2.461325e-04  1.419497e-03  0 
 -1.995018e-03  4.987528e-04  0 
 -1.075027e-03  1.113309e-03  0 
 -1.563416e-03  -5.258671e-04  0 
 -2.911053e-04  -3.484955e-04  0 
 -1.090500e-03  -9.521948e-04  0 
 -1.645908e-04  -2.252034e-04  0 
 -2.305286e-03  -1.908670e-04  0 
 -1.621653e-03  9.462726e-05  0 
 -9.623212e-04  -2.002903e-04  0 
 -1.796706e-03  -8.353809e-04  0 
 -4.566226e-04  -9.814064e-04  0 
 1.773789e-03  -3.606124e-03  0 
 5.487611e-03  -1.018647e-02  0 
 9.650260e-03  -3.092538e-03  0 
 3.653375e-03  1.017310e-03  0 
 3.275222e-03  -3.267320e-03  0 
 1.020960e-03  -7.432977e-04  0 
 1.441786e-03  1.404613e-03  0 
VECTORS displacement_ITER15 FLOAT
 -2.300176e-03  -1.196257e-03  0 
 3.490737e-03  -1.467317e-03  0 
 -2.274267e-03  -1.491689e-03  0 
 -1.258909e-03  -8.975162e-04  0 
 -1.800752e-03  -1.028842e-03  0 
 -7.622229e-04  -1.382466e-03  0 
 7.274334e-04  -1.518628e-03  0 
 2.147149e-03  -1.541552e-03  0 
 -2.335698e-03  -2.931403e-03  0 
 -2.334485e-03  -4.624856e-03  0 
 3.609411e-03  -3.033533e-03  0 
 3.683026e-03  -4.601891e-03  0 
 -1.844313e-03  -1.412069e-03  0 
 2.679275e-03  -3.133929e-04  0 
 -1.088408e-03  -5.805834e-04  0 
 7.375045e-04  -5.918668e-04  0 
 -1.764578e-03  -3.743288e-03  0 
 -1.699422e-03  -3.499689e-03  0 
 9.027891e-04  -4.140035e-03  0 
 2.436991e-03  -2.990150e-03  0 
 -1.039143e-03  -2.959539e-03  0 
 4.383276e-05  -2.486317e-03  0 
 1.113538e-03  -2.940210e-03  0 
 -2.507134e-04  -3.948911e-03  0 
 1.951008e-03  -4.181580e-03  0 
 3.760614e-03  -3.430561e-03  0 
 4.746426e-03  5.669384e-04  0 
 3.460423e-03  -9.201084e-04  0 
 4.642364e-03  -1.801938e-03  0 
 4.778835e-03  -1.617288e-03  0 
 4.338622e-03  -2.766723e-03  0 
 4.296347e-03  -1.671548e-03  0 
VECTORS displacement_ITER16 FLOAT
 -2.781639e-04  -2.493496e-03  0 
 2.701142e-03  -2.746222e-03  0 
 -2.494402e-04  -3.610568e-03  0 
 2.404663e-03  -2.199770e-03  0 
 1.043284e-03  -2.328153e-03  0 
 5.471827e-04  -2.677309e-03  0 
 1.330930e-03  -2.807755e-03  0 
 2.050853e-03  -2.825493e-03  0 
 -3.161981e-04  -3.518716e-03  0 
 -3.166909e-04  -4.501747e-03  0 
 2.818058e-03  -3.620409e-03  0 
 2.889935e-03  -4.495789e-03  0 
 1.017330e-03  -3.351376e-03  0 
 2.506252e-03  -1.935443e-03  0 
 1.154517e-04  -2.337669e-03  0 
 1.326724e-03  -2.301490e-03  0 
 7.621304e-04  -4.208525e-03  0 
 1.374267e-03  -4.175464e-03  0 
 1.427618e-03  -4.172666e-03  0 
 2.186356e-03  -3.564130e-03  0 
 4.255770e-04  -3.531204e-03  0 
 9.896245e-04  -3.299777e-03  0 
 1.530621e-03  -3.547828e-03  0 
 8.494583e-04  -4.073745e-03  0 
 1.945578e-03  -4.201952e-03  0 
 3.693703e-03  -5.628038e-03  0 
 5.060997e-03  -4.636816e-03  0 
 3.809723e-03  -5.318536e-03  0 
 3.659688e-03  -4.110671e-03  0 
 4.317334e-03  -4.867792e-03  0 
 3.190099e-03  -3.963604e-03  0 
 2.719159e-03  -2.999479e-03  0 
VECTORS displacement_ITER17 FLOAT
 6.577498e-04  -3.277020e-03  0 
 3.244445e-03  -3.524764e-03  0 
 6.861659e-04  -2.543504e-03  0 
 -3.755209e-04  -2.989690e-03  0 
 1.240981e-04  -3.114179e-03  0 
 1.384099e-03  -3.459533e-03  0 
 2.069252e-03  -3.589026e-03  0 
 2.690858e-03  -3.605588e-03  0 
 6.176531e-04  -4.204888e-03  0 
 6.163290e-04  -5.090563e-03  0 
 3.359806e-03  -4.302062e-03  0 
 3.430496e-03  -5.078488e-03  0 
 6.232905e-05  -2.688710e-03  0 
 3.033892e-03  -2.890177e-03  0 
 9.086970e-04  -2.429327e-03  0 
 2.061691e-03  -3.085671e-03  0 
 5.096049e-04  -5.468701e-03  0 
 -3.461491e-04  -5.525579e-03  0 
 2.153914e-03  -4.778103e-03  0 
 2.804479e-03  -4.244780e-03  0 
 1.283413e-03  -4.213709e-03  0 
 1.775615e-03  -4.014932e-03  0 
 2.242591e-03  -4.233507e-03  0 
 1.656319e-03  -4.693617e-03  0 
 2.598019e-03  -4.804346e-03  0 
 3.693713e-03  -5.928341e-03  0 
 3.950249e-03  -4.727967e-03  0 
 1.059785e-03  -7.161057e-03  0 
 2.304487e-03  -6.069339e-03  0 
 3.404852e-03  -5.828547e-03  0 
 3.147288e-03  -4.952005e-03  0 
 2.261639e-03  -4.539709e-03  0 
VECTORS displacement_ITER18 FLOAT
 4.009665e-04  -3.409840e-03  0 
 2.448755e-03  -3.646119e-03  0 
 4.295635e-04  -2.246940e-03  0 
 -1.499103e-03  -3.127701e-03  0 
 -5.646641e-04  -3.249188e-03  0 
 9.894049e-04  -3.589848e-03  0 
 1.538640e-03  -3.715992e-03  0 
 2.026633e-03  -3.729617e-03  0 
 3.597442e-04  -4.199625e-03  0 
 3.578230e-04  -4.947715e-03  0 
 2.563147e-03  -4.292417e-03  0 
 2.632820e-03  -4.936826e-03  0 
 -6.340475e-04  -2.485751e-03  0 
 2.304885e-03  -3.210193e-03  0 
 5.583710e-04  -2.534776e-03  0 
 1.541663e-03  -3.329497e-03  0 
 -1.485287e-05  -5.584846e-03  0 
 -1.211309e-03  -5.682097e-03  0 
 1.607226e-03  -4.664440e-03  0 
 2.110365e-03  -4.233547e-03  0 
 9.177770e-04  -4.204787e-03  0 
 1.310170e-03  -4.051487e-03  0 
 1.675590e-03  -4.229650e-03  0 
 1.219852e-03  -4.598150e-03  0 
 1.950245e-03  -4.687890e-03  0 
 3.089460e-03  -6.160147e-03  0 
 3.747161e-03  -5.776848e-03  0 
 1.449832e-03  -7.268463e-03  0 
 1.977260e-03  -5.800863e-03  0 
 2.979920e-03  -6.057938e-03  0 
 2.420288e-03  -4.893861e-03  0 
 1.644722e-03  -4.370678e-03  0 
VECTORS displacement_ITER19 FLOAT
 -1.579110e-04  -3.233753e-03  0 
 1.289618e-03  -3.454128e-03  0 
 -1.289021e-04  -2.656279e-03  0 
 -8.933110e-04  -2.957906e-03  0 
 -5.405327e-04  -3.076024e-03  0 
 2.755434e-04  -3.409420e-03  0 
 6.734483e-04  -3.530079e-03  0 
 1.014017e-03  -3.540022e-03  0 
 -1.995488e-04  -3.866206e-03  0 
 -2.020656e-04  -4.457724e-03  0 
 1.404611e-03  -3.955723e-03  0 
 1.474654e-03  -4.454318e-03  0 
 -5.969869e-04  -2.766611e-03  0 
 1.256013e-03  -3.218148e-03  0 
 -1.943153e-05  -2.846536e-03  0 
 6.940082e-04  -3.326543e-03  0 
 -2.381570e-04  -4.986653e-03  0 
 -9.640710e-04  -5.084292e-03  0 
 7.244683e-04  -4.211922e-03  0 
 1.064887e-03  -3.894007e-03  0 
 2.360153e-04  -3.867945e-03  0 
 5.170314e-04  -3.765410e-03  0 
 7.700189e-04  -3.898671e-03  0 
 4.589263e-04  -4.164859e-03  0 
 9.556783e-04  -4.232857e-03  0 
 2.276683e-03  -5.601323e-03  0 
 3.283160e-03  -4.355904e-03  0 
 7.754037e-04  -6.452688e-03  0 
 1.466930e-03  -5.153990e-03  0 
 2.491098e-03  -5.268959e-03  0 
 1.593456e-03  -4.320520e-03  0 
 8.710496e-04  -3.849321e-03  0 
VECTORS displacement_ITER20 FLOAT
 -9.310733e-04  -3.293426e-03  0 
 1.283484e-03  -3.496095e-03  0 
 -9.007570e-04  -3.441144e-03  0 
 -2.196491e-04  -3.024040e-03  0 
 -5.896476e-04  -3.138839e-03  0 
 -3.127047e-04  -3.464254e-03  0 
 2.754887e-04  -3.578277e-03  0 
 8.115007e-04  -3.584072e-03  0 
 -9.734842e-04  -4.108863e-03  0 
 -9.770392e-04  -4.884106e-03  0 
 1.399526e-03  -4.195959e-03  0 
 1.470601e-03  -4.891674e-03  0 
 -6.302782e-04  -3.393371e-03  0 
 1.045858e-03  -3.198463e-03  0 
 -6.627516e-04  -3.225262e-03  0 
 2.560215e-04  -3.344822e-03  0 
 -6.157584e-04  -4.820220e-03  0 
 -7.326533e-04  -4.791135e-03  0 
 3.479490e-04  -4.606110e-03  0 
 9.051603e-04  -4.137801e-03  0 
 -3.951935e-04  -4.113828e-03  0 
 2.442324e-05  -3.945571e-03  0 
 4.219231e-04  -4.134327e-03  0 
 -7.576939e-05  -4.530729e-03  0 
 7.264489e-04  -4.633277e-03  0 
 2.419580e-03  -5.652787e-03  0 
 3.334382e-03  -2.700000e-03  0 
 7.304401e-04  -5.584691e-03  0 
 2.080783e-03  -5.060696e-03  0 
 2.953304e-03  -4.843579e-03  0 
 1.978453e-03  -4.433552e-03  0 
 1.383910e-03  -3.869367e-03  0 
VECTORS displacement_ITER21 FLOAT
 -2.083980e-04  -3.365979e-03  0 
 8.093316e-04  -3.565216e-03  0 
 -1.777217e-04  -2.988060e-03  0 
 -5.560702e-04  -3.100404e-03  0 
 -3.943620e-04  -3.212796e-03  0 
 1.093150e-04  -3.536007e-03  0 
 3.984077e-04  -3.648878e-03  0 
 6.363014e-04  -3.653811e-03  0 
 -2.520548e-04  -3.882111e-03  0 
 -2.559795e-04  -4.357578e-03  0 
 9.263364e-04  -3.967952e-03  0 
 9.983907e-04  -4.365576e-03  0 
 -4.446029e-04  -3.054544e-03  0 
 7.664352e-04  -3.509823e-03  0 
 -2.117440e-04  -3.218519e-03  0 
 3.714603e-04  -3.573654e-03  0 
 -2.607925e-04  -4.673485e-03  0 
 -7.858092e-04  -4.716356e-03  0 
 4.367699e-04  -4.143010e-03  0 
 6.642554e-04  -3.903288e-03  0 
 9.225363e-05  -3.880454e-03  0 
 2.926615e-04  -3.814012e-03  0 
 4.658837e-04  -3.914961e-03  0 
 2.573257e-04  -4.108245e-03  0 
 5.899172e-04  -4.163093e-03  0 
 1.743512e-03  -5.375914e-03  0 
 2.778121e-03  -4.270703e-03  0 
 1.669247e-03  -5.009277e-03  0 
 1.771536e-03  -4.156561e-03  0 
 2.277436e-03  -4.734921e-03  0 
 1.283502e-03  -4.068271e-03  0 
 9.661458e-04  -3.415035e-03  0 
VECTORS displacement_ITER22 FLOAT
 6.993639e-04  -3.438034e-03  0 
 1.489462e-03  -3.631137e-03  0 
 7.321290e-04  -2.656682e-03  0 
 -4.614724e-04  -3.178404e-03  0 
 1.094140e-04  -3.287199e-03  0 
 9.556988e-04  -3.605876e-03  0 
 1.187977e-03  -3.715548e-03  0 
 1.371722e-03  -3.719143e-03  0 
 6.529181e-04  -3.895477e-03  0 
 6.472865e-04  -4.311843e-03  0 
 1.607814e-03  -3.979802e-03  0 
 1.681735e-03  -4.322153e-03  0 
 5.253150e-05  -2.811851e-03  0 
 1.457837e-03  -3.516443e-03  0 
 5.255785e-04  -3.039994e-03  0 
 1.138308e-03  -3.577002e-03  0 
 2.920546e-04  -4.636934e-03  0 
 -5.288474e-04  -4.673847e-03  0 
 1.219763e-03  -4.111295e-03  0 
 1.388012e-03  -3.912921e-03  0 
 9.504960e-04  -3.891009e-03  0 
 1.108916e-03  -3.843597e-03  0 
 1.240557e-03  -3.927887e-03  0 
 1.085474e-03  -4.083228e-03  0 
 1.332158e-03  -4.130525e-03  0 
 1.874746e-03  -4.811227e-03  0 
 2.324603e-03  -3.963123e-03  0 
 1.353756e-03  -4.512387e-03  0 
 1.683325e-03  -3.981254e-03  0 
 2.049542e-03  -4.357575e-03  0 
 1.632777e-03  -4.016213e-03  0 
 1.389763e-03  -3.528362e-03  0 
VECTORS displacement_ITER23 FLOAT
 1.575261e-04  -3.369333e-03  0 
 1.656109e-03  -3.548594e-03  0 
 1.936676e-04  -3.123120e-03  0 
 6.835783e-05  -3.114682e-03  0 
 1.044702e-04  -3.220513e-03  0 
 5.829750e-04  -3.533998e-03  0 
 9.913995e-04  -3.637804e-03  0 
 1.356539e-03  -3.637867e-03  0 
 1.085186e-04  -3.997982e-03  0 
 1.010066e-04  -4.585602e-03  0 
 1.775801e-03  -4.081124e-03  0 
 1.851252e-03  -4.606068e-03  0 
 5.951108e-05  -3.162682e-03  0 
 1.471055e-03  -3.207921e-03  0 
 -7.675141e-05  -2.981570e-03  0 
 8.937673e-04  -3.371665e-03  0 
 -1.875548e-05  -4.269830e-03  0 
 -3.593357e-04  -4.152474e-03  0 
 1.043403e-03  -4.354617e-03  0 
 1.412748e-03  -4.017034e-03  0 
 5.385172e-04  -3.995662e-03  0 
 8.248177e-04  -3.887989e-03  0 
 1.090362e-03  -4.024175e-03  0 
 7.627062e-04  -4.299681e-03  0 
 1.292399e-03  -4.380136e-03  0 
 2.076465e-03  -4.900351e-03  0 
 2.419101e-03  -3.555212e-03  0 
 1.514972e-03  -4.399048e-03  0 
 2.049763e-03  -4.085457e-03  0 
 2.331371e-03  -4.343118e-03  0 
 1.952315e-03  -4.173283e-03  0 
 1.767423e-03  -3.609340e-03  0 
VECTORS displacement_ITER24 FLOAT
 4.818553e-05  -3.349381e-03  0 
 1.536156e-03  -3.512040e-03  0 
 8.676983e-05  -3.400228e-03  0 
 5.505569e-04  -3.101116e-03  0 
 2.919655e-04  -3.203362e-03  0 
 4.633322e-04  -3.509974e-03  0 
 8.677565e-04  -3.607524e-03  0 
 1.234123e-03  -3.603487e-03  0 
 -2.999696e-06  -3.968446e-03  0 
 -1.221832e-05  -4.546619e-03  0 
 1.656710e-03  -4.048758e-03  0 
 1.733084e-03  -4.576783e-03  0 
 2.542527e-04  -3.375959e-03  0 
 1.280171e-03  -3.285262e-03  0 
 -3.598451e-04  -3.120593e-03  0 
 7.158147e-04  -3.444483e-03  0 
 2.135576e-05  -4.018591e-03  0 
 -5.255475e-05  -3.854536e-03  0 
 9.193679e-04  -4.322765e-03  0 
 1.290427e-03  -3.984445e-03  0 
 4.188888e-04  -3.964611e-03  0 
 7.012944e-04  -3.857828e-03  0 
 9.654187e-04  -3.992763e-03  0 
 6.395830e-04  -4.265933e-03  0 
 1.168750e-03  -4.350152e-03  0 
 2.159642e-03  -4.764638e-03  0 
 2.693275e-03  -2.709618e-03  0 
 1.916971e-03  -3.743989e-03  0 
 2.491447e-03  -3.711392e-03  0 
 2.687834e-03  -3.940888e-03  0 
 2.096642e-03  -3.988829e-03  0 
 2.004043e-03  -3.373986e-03  0 
VECTORS displacement_ITER25 FLOAT
 8.126830e-04  -3.189676e-03  0 
 1.037445e-03  -3.343132e-03  0 
 8.523170e-04  -2.002164e-03  0 
 -1.169597e-03  -2.946847e-03  0 
 -1.837405e-04  -3.045459e-03  0 
 9.084637e-04  -3.348010e-03  0 
 9.964394e-04  -3.442550e-03  0 
 1.048840e-03  -3.436183e-03  0 
 7.591881e-04  -3.491338e-03  0 
 7.490144e-04  -3.751079e-03  0 
 1.158119e-03  -3.567957e-03  0 
 1.234819e-03  -3.782386e-03  0 
 -2.452444e-04  -2.249197e-03  0 
 1.009016e-03  -3.341487e-03  0 
 2.205847e-04  -2.680008e-03  0 
 8.757136e-04  -3.387054e-03  0 
 5.488944e-05  -3.930108e-03  0 
 -9.734124e-04  -3.870091e-03  0 
 1.011568e-03  -3.594868e-03  0 
 1.035780e-03  -3.497390e-03  0 
 9.326211e-04  -3.479669e-03  0 
 9.831028e-04  -3.480003e-03  0 
 1.010315e-03  -3.521881e-03  0 
 9.895670e-04  -3.580727e-03  0 
 1.023654e-03  -3.615096e-03  0 
 1.521788e-03  -4.366795e-03  0 
 2.077286e-03  -3.970854e-03  0 
 2.104584e-03  -3.725278e-03  0 
 1.758765e-03  -3.220000e-03  0 
 1.863809e-03  -3.919616e-03  0 
 1.301278e-03  -3.539745e-03  0 
 1.253099e-03  -3.012346e-03  0 
VECTORS displacement_ITER26 FLOAT
 5.019360e-04  -2.738178e-03  0 
 1.776854e-03  -2.878242e-03  0 
 5.444511e-04  -2.114799e-03  0 
 -3.448717e-04  -2.496632e-03  0 
 7.242838e-05  -2.594126e-03  0 
 8.519169e-04  -2.893537e-03  0 
 1.200735e-03  -2.982242e-03  0 
 1.519699e-03  -2.972336e-03  0 
 4.471791e-04  -3.294810e-03  0 
 4.361048e-04  -3.808633e-03  0 
 1.897328e-03  -3.371473e-03  0 
 1.974435e-03  -3.852845e-03  0 
 2.247856e-05  -2.240035e-03  0 
 1.443041e-03  -2.788971e-03  0 
 4.578131e-05  -2.422171e-03  0 
 1.022099e-03  -2.846720e-03  0 
 6.741731e-05  -3.260806e-03  0 
 -4.314977e-04  -2.991863e-03  0 
 1.245931e-03  -3.607664e-03  0 
 1.565579e-03  -3.306300e-03  0 
 8.182296e-04  -3.288043e-03  0 
 1.058582e-03  -3.199295e-03  0 
 1.283486e-03  -3.318206e-03  0 
 1.007932e-03  -3.554497e-03  0 
 1.459095e-03  -3.636464e-03  0 
 2.106908e-03  -4.196769e-03  0 
 2.351546e-03  -3.259048e-03  0 
 1.987368e-03  -3.666278e-03  0 
 2.126000e-03  -3.448601e-03  0 
 2.299749e-03  -3.759748e-03  0 