# vtk DataFile Version 3.1
this is an vtk file created by FEMAC
ASCII
DATASET UNSTRUCTURED_GRID
POINTS 32 FLOAT
0.000000 2.000000 0.000000
0.000000 3.000000 0.000000
1.000000 3.000000 0.000000
0.250000 2.000000 0.000000
0.500000 2.000000 0.000000
0.750000 2.000000 0.000000
0.250000 3.000000 0.000000
0.500000 3.000000 0.000000
0.750000 3.000000 0.000000
0.000000 2.250000 0.000000
0.000000 2.500000 0.000000
0.000000 2.750000 0.000000
0.000000 3.250000 0.000000
0.000000 3.500000 0.000000
0.272476 2.537430 0.000000
0.660302 2.785301 0.000000
0.660045 2.212404 0.000000
0.162952 2.171693 0.000000
0.594871 2.497465 0.000000
0.400442 2.782533 0.000000
0.372389 2.253823 0.000000
0.165804 2.339408 0.000000
0.847252 2.832715 0.000000
0.153820 2.761660 0.000000
0.272476 3.537430 0.000000
0.660045 3.212404 0.000000
0.162952 3.171693 0.000000
0.825570 3.361866 0.000000
0.594871 3.497465 0.000000
0.372389 3.253823 0.000000
0.165804 3.339408 0.000000
0.847123 3.164854 0.000000
CELLS 43 172 
3 7 15  8
3 16  4  5
3 3 17  0
3 17  9  0
3 19 15  7
3 16 20  4
3 18 19 14
3 18 15 19
3 20 18 14
3 16 18 20
3 20  3  4
3 17  3 20
3 6 19  7
3 17 21  9
3 8 22  2
3 22  8 15
3 21 20 14
3 17 20 21
3 21 10  9
3 10 21 14
3 23  6  1
3 11 23  1
3 10 23 11
3 19 23 14
3 23 19  6
3 10 14 23
3 25  7  8
3 6 26  1
3 26 12  1
3 28 25 27
3 25 29  7
3 29 28 24
3 25 28 29
3 29  6  7
3 26  6 29
3 26 30 12
3 31  8  2
3 8 31 25
3 30 29 24
3 26 29 30
3 27 25 31
3 30 13 12
3 13 30 24
CELL_TYPES 43
5 5 5 5 5 5 5 5 5 5 5 5 5 5 5 5 5 5 5 5 5 5 5 5 5 5 5 5 5 5 5 5 5 5 5 5 5 5 5 5 5 5 5 
POINT_DATA 32
VECTORS displacement_ITER1 FLOAT
 0  0  0 
 0  0  0 
 2.333742e-04  -5.881740e-04  0 
 -3.129359e-05  -4.427808e-05  0 
 -4.603826e-05  -7.630500e-05  0 
 -6.518786e-05  -1.454203e-04  0 
 5.261253e-05  -4.856774e-05  0 
 1.111097e-04  -1.281977e-04  0 
 1.904861e-04  -2.950540e-04  0 
 0  0  0 
 0  0  0 
 0  0  0 
 0  0  0 
 0  0  0 
 -4.033754e-06  -2.885499e-05  0 
 2.974670e-05  -1.647881e-04  0 
 -1.712545e-05  -9.573953e-05  0 
 -6.972769e-06  -1.611648e-05  0 
 -7.900145e-06  -8.509373e-05  0 
 1.729096e-05  -6.184775e-05  0 
 -1.200987e-05  -4.803990e-05  0 
 -3.880371e-06  -1.712978e-05  0 
 5.837757e-05  -3.727605e-04  0 
 4.466059e-06  -7.765855e-06  0 
 3.950702e-03  -2.996644e-03  0 
 1.965238e-03  -4.100866e-03  0 
 2.398985e-04  9.616048e-05  0 
 9.424512e-03  -1.594912e-02  0 
 7.827211e-03  -7.570643e-03  0 
 8.302047e-04  -6.117303e-04  0 
 4.660923e-04  1.262690e-04  0 
 3.784612e-03  -7.869659e-03  0 
VECTORS displacement_ITER2 FLOAT
 0  0  0 
 0  0  0 
 1.437774e-04  -4.066200e-04  0 
 -3.913161e-05  -3.803365e-05  0 
 -6.648229e-05  -7.564907e-05  0 
 -1.095276e-04  -1.770252e-04  0 
 3.606507e-05  -3.495874e-05  0 
 7.359521e-05  -8.745666e-05  0 
 1.229469e-04  -1.990822e-04  0 
 0  0  0 
 0  0  0 
 0  0  0 
 0  0  0 
 0  0  0 
 -2.076740e-06  -2.226858e-05  0 
 1.669372e-05  -1.159802e-04  0 
 -2.225512e-05  -9.726289e-05  0 
 -7.903316e-06  -9.097751e-06  0 
 -4.949569e-06  -6.887143e-05  0 
 1.188423e-05  -4.591878e-05  0 
 -1.131712e-05  -3.779791e-05  0 
 -3.588934e-06  -1.161127e-05  0 
 3.165329e-05  -2.578882e-04  0 
 3.208181e-06  -6.791587e-06  0 
 1.396992e-03  -1.068249e-03  0 
 9.733186e-04  -9.945514e-04  0 
 1.417436e-04  5.588778e-05  0 
 3.870956e-03  -4.500402e-03  0 
 2.834558e-03  -2.447349e-03  0 
 4.359682e-04  -1.508510e-04  0 
 2.046549e-04  3.084381e-05  0 
 1.222745e-03  -2.345157e-03  0 
VECTORS displacement_ITER3 FLOAT
 0  0  0 
 0  0  0 
 1.225256e-04  -4.638576e-04  0 
 -5.187625e-05  -4.686932e-05  0 
 -8.691255e-05  -9.609404e-05  0 
 -1.544084e-04  -2.469297e-04  0 
 3.380036e-05  -3.370372e-05  0 
 6.782403e-05  -8.941812e-05  0 
 1.124946e-04  -2.107205e-04  0 
 0  0  0 
 0  0  0 
 0  0  0 
 0  0  0 
 0  0  0 
 -6.570232e-06  -2.768470e-05  0 
 3.900159e-07  -1.286497e-04  0 
 -3.419620e-05  -1.196063e-04  0 
 -1.175520e-05  -1.134164e-05  0 
 -1.663835e-05  -8.357373e-05  0 
 4.151120e-06  -5.065338e-05  0 
 -1.763396e-05  -4.858099e-05  0 
 -6.103057e-06  -1.502860e-05  0 
 1.008846e-05  -2.834679e-04  0 
 1.223624e-06  -7.803281e-06  0 
 -1.404170e-03  1.083217e-03  0 
 -1.143210e-03  1.136992e-03  0 
 -1.300933e-04  -1.043382e-04  0 
 -3.654334e-03  4.916337e-03  0 
 -2.828558e-03  2.545937e-03  0 
 -4.648249e-04  1.375311e-04  0 
 -2.101250e-04  -4.052242e-05  0 
 -2.157891e-03  2.149376e-03  0 
VECTORS displacement_ITER4 FLOAT
 0  0  0 
 0  0  0 
 -1.117316e-05  -2.569874e-04  0 
 -4.425593e-05  -5.031376e-05  0 
 -7.133680e-05  -9.080683e-05  0 
 -9.257436e-05  -1.505716e-04  0 
 1.025627e-05  -1.426336e-05  0 
 1.609006e-05  -4.679100e-05  0 
 2.050582e-05  -1.147247e-04  0 
 0  0  0 
 0  0  0 
 0  0  0 
 0  0  0 
 0  0  0 
 -1.101566e-05  -2.459041e-05  0 
 -2.946960e-05  -8.517317e-05  0 
 -5.395337e-05  -1.031527e-04  0 
 -1.249835e-05  -1.588087e-05  0 
 -2.826145e-05  -6.952530e-05  0 
 -1.236803e-05  -3.514179e-05  0 
 -2.591197e-05  -4.703261e-05  0 
 -9.060318e-06  -1.507258e-05  0 
 -4.512897e-05  -1.785852e-04  0 
 -3.065523e-06  -6.791700e-06  0 
 1.204000e-04  -1.297516e-04  0 
 3.506074e-04  1.018709e-04  0 
 5.483991e-05  1.475677e-05  0 
 5.527471e-04  3.152799e-04  0 
 2.565456e-04  -9.706849e-05  0 
 1.648978e-04  -1.551810e-05  0 
 5.480981e-05  -2.810449e-05  0 
 3.215077e-04  9.059639e-05  0 
VECTORS displacement_ITER5 FLOAT
 0  0  0 
 0  0  0 
 -3.102280e-05  -2.568740e-04  0 
 -4.926619e-05  -5.803314e-05  0 
 -8.103372e-05  -9.974628e-05  0 
 -1.159078e-04  -1.758596e-04  0 
 2.531989e-06  -5.869747e-06  0 
 1.128523e-06  -3.166216e-05  0 
 2.075004e-06  -9.741542e-05  0 
 0  0  0 
 0  0  0 
 0  0  0 
 0  0  0 
 0  0  0 
 -1.351755e-05  -2.502364e-05  0 
 -4.600160e-05  -7.139943e-05  0 
 -5.798678e-05  -1.082764e-04  0 
 -1.301240e-05  -1.765363e-05  0 
 -3.558909e-05  -6.698731e-05  0 
 -2.068413e-05  -2.908091e-05  0 
 -2.761012e-05  -5.045993e-05  0 
 -9.678373e-06  -1.652951e-05  0 
 -6.787560e-05  -1.649565e-04  0 
 -4.960960e-06  -6.064252e-06  0 
 3.127159e-04  -2.629256e-04  0 
 3.858050e-04  -1.714990e-04  0 
 5.325160e-05  2.237012e-05  0 
 9.254023e-04  -6.872925e-04  0 
 6.323747e-04  -5.050985e-04  0 
 1.730051e-04  -4.356299e-05  0 
 6.822906e-05  -1.157001e-05  0 
 5.134514e-04  -3.754389e-04  0 
VECTORS displacement_ITER6 FLOAT
 0  0  0 
 0  0  0 
 -3.899885e-05  -1.597129e-04  0 
 -2.991010e-05  -3.582509e-05  0 
 -5.474208e-05  -5.880350e-05  0 
 -8.599237e-05  -1.078585e-04  0 
 -6.853356e-06  7.902408e-06  0 
 -1.359589e-05  -1.302945e-06  0 
 -1.513230e-05  -4.152764e-05  0 
 0  0  0 
 0  0  0 
 0  0  0 
 0  0  0 
 0  0  0 
 -1.242556e-05  -1.122318e-05  0 
 -4.434764e-05  -2.663585e-05  0 
 -4.622687e-05  -5.516038e-05  0 
 -9.167676e-06  -1.103532e-05  0 
 -3.186646e-05  -3.076955e-05  0 
 -2.183321e-05  -7.125505e-06  0 
 -2.217219e-05  -2.672394e-05  0 
 -8.079690e-06  -8.733127e-06  0 
 -6.249993e-05  -8.774357e-05  0 
 -5.525674e-06  -5.962350e-07  0 
 2.989118e-04  -2.316928e-04  0 
 3.102691e-04  -1.869425e-04  0 
 3.925721e-05  2.814669e-05  0 
 8.366216e-04  -7.943802e-04  0 
 6.065647e-04  -4.999320e-04  0 
 1.345549e-04  -2.593707e-05  0 
 5.604476e-05  3.776296e-06  0 
 4.544873e-04  -3.922232e-04  0 
VECTORS displacement_ITER7 FLOAT
 0  0  0 
 0  0  0 
 -6.312245e-05  -8.841433e-05  0 
 -5.654063e-05  -5.170337e-05  0 
 -1.055673e-04  -9.790347e-05  0 
 -1.970707e-04  -2.552813e-04  0 
 -7.450224e-08  -5.124972e-06  0 
 -5.551853e-06  -2.131571e-05  0 
 -1.988353e-05  -4.836023e-05  0 
 0  0  0 
 0  0  0 
 0  0  0 
 0  0  0 
 0  0  0 
 -9.191406e-06  -1.470106e-05  0 
 -2.605520e-05  -4.719817e-05  0 
 -6.325313e-05  -9.715408e-05  0 
 -1.293184e-05  -8.890981e-06  0 
 -2.484773e-05  -4.501947e-05  0 
 -1.216842e-05  -1.999865e-05  0 
 -2.634666e-05  -3.317757e-05  0 
 -9.005873e-06  -8.108098e-06  0 
 -3.200660e-05  -7.411477e-05  0 
 -3.363548e-06  -4.260717e-06  0 
 4.841534e-05  -7.184302e-06  0 
 6.139989e-05  -3.262010e-05  0 
 1.489603e-05  1.079187e-05  0 
 2.323073e-04  -2.320302e-04  0 
 1.364722e-04  -4.872651e-05  0 
 3.788199e-05  1.518201e-05  0 
 1.702270e-05  9.224770e-06  0 
 7.677871e-05  -1.284161e-04  0 
VECTORS displacement_ITER8 FLOAT
 0  0  0 
 0  0  0 
 3.688614e-05  -2.715721e-04  0 
 -4.600103e-05  -4.373154e-05  0 
 -8.618995e-05  -7.216644e-05  0 
 -1.555928e-04  -1.699040e-04  0 
 1.888687e-05  -1.435540e-05  0 
 4.250520e-05  -5.695977e-05  0 
 6.494623e-05  -1.409813e-04  0 
 0  0  0 
 0  0  0 
 0  0  0 
 0  0  0 
 0  0  0 
 -1.183197e-05  -8.457406e-06  0 
 5.628238e-07  -8.561422e-05  0 
 -6.416607e-05  -6.295786e-05  0 
 -1.296122e-05  -8.655784e-06  0 
 -2.826106e-05  -3.812722e-05  0 
 -2.013215e-06  -2.351757e-05  0 
 -3.077533e-05  -2.394190e-05  0 
 -1.082496e-05  -5.140099e-06  0 
 1.544605e-05  -1.885284e-04  0 
 -1.645741e-06  7.958174e-07  0 
 5.078201e-05  -4.522634e-05  0 
 8.993903e-05  -6.566769e-05  0 
 2.394938e-05  -3.214812e-06  0 
 1.655621e-04  -9.519458e-05  0 
 1.290447e-04  -3.760874e-05  0 
 6.387044e-05  -1.887632e-05  0 
 2.413203e-05  -1.314809e-05  0 
 6.386632e-05  -1.405202e-04  0 
VECTORS displacement_ITER9 FLOAT
 0  0  0 
 0  0  0 
 -3.345448e-07  -1.462469e-04  0 
 -4.643907e-05  -4.181019e-05  0 
 -8.906706e-05  -6.882241e-05  0 
 -1.447657e-04  -1.269756e-04  0 
 1.014404e-05  -1.182052e-05  0 
 1.729579e-05  -3.263711e-05  0 
 1.457471e-05  -6.067157e-05  0 
 0  0  0 
 0  0  0 
 0  0  0 
 0  0  0 
 0  0  0 
 -6.588200e-06  -6.601889e-06  0 
 -2.138035e-06  -5.368405e-05  0 
 -6.995567e-05  -6.441654e-05  0 
 -1.325592e-05  -6.600638e-06  0 
 -1.657171e-05  -3.997912e-05  0 
 3.944171e-07  -1.948237e-05  0 
 -3.245272e-05  -1.860281e-05  0 
 -1.091476e-05  -1.620180e-06  0 
 -1.372382e-05  -8.821716e-05  0 
 -8.059155e-07  -1.490022e-06  0 
 6.227422e-05  -2.086694e-05  0 
 5.324753e-05  -3.922192e-05  0 
 2.050764e-05  7.229044e-06  0 
 1.745220e-04  -1.533967e-04  0 
 1.672030e-04  -2.961557e-05  0 
 4.672644e-05  1.613817e-05  0 
 2.004249e-05  6.988564e-06  0 
 4.233722e-05  -1.153757e-04  0 
VECTORS displacement_ITER10 FLOAT
 0  0  0 
 0  0  0 
 6.903223e-06  -1.383551e-04  0 
 -3.804720e-05  -3.457334e-05  0 
 -7.333306e-05  -5.112827e-05  0 
 -1.233125e-04  -9.496450e-05  0 
 9.901166e-06  -9.078441e-06  0 
 1.939865e-05  -3.168697e-05  0 
 2.152916e-05  -6.777123e-05  0 
 0  0  0 
 0  0  0 
 0  0  0 
 0  0  0 
 0  0  0 
 -8.098742e-06  -4.098426e-06  0 
 -2.925680e-06  -5.256975e-05  0 
 -6.221807e-05  -4.135514e-05  0 
 -1.204560e-05  -5.929659e-06  0 
 -1.892009e-05  -3.221634e-05  0 
 -1.325405e-06  -1.600618e-05  0 
 -3.098401e-05  -1.326894e-05  0 
 -1.079115e-05  -7.743549e-07  0 
 -5.124137e-06  -9.319066e-05  0 
 -1.406285e-06  2.999553e-07  0 
 7.792971e-05  -2.490900e-05  0 
 1.124285e-04  -9.473701e-06  0 
 2.947403e-05  1.406929e-05  0 
 2.374840e-04  -4.840358e-05  0 
 1.917604e-04  -1.719294e-05  0 
 7.467604e-05  2.000178e-05  0 
 3.055682e-05  7.425528e-06  0 
 9.952950e-05  -8.385324e-05  0 
VECTORS displacement_ITER11 FLOAT
 0  0  0 
 0  0  0 
 1.015475e-05  -1.357531e-04  0 
 -3.756568e-05  -3.463928e-05  0 
 -7.183794e-05  -4.974369e-05  0 
 -1.182690e-04  -8.468109e-05  0 
 1.020408e-05  -9.061028e-06  0 
 2.014697e-05  -3.134612e-05  0 
 2.281525e-05  -6.734587e-05  0 
 0  0  0 
 0  0  0 
 0  0  0 
 0  0  0 
 0  0  0 
 -8.407625e-06  -3.846393e-06  0 
 -1.953813e-06  -5.184759e-05  0 
 -6.165964e-05  -4.083601e-05  0 
 -1.215354e-05  -6.294748e-06  0 
 -2.044856e-05  -3.333249e-05  0 
 -6.317702e-07  -1.540954e-05  0 
 -3.140174e-05  -1.392811e-05  0 
 -1.086469e-05  -9.199306e-07  0 
 -2.648882e-06  -9.077353e-05  0 
 -1.239594e-06  6.247076e-07  0 
 6.499207e-05  -7.235778e-06  0 
 7.632620e-05  -1.992375e-05  0 
 2.360979e-05  1.117267e-05  0 
 1.866898e-04  -8.170499e-05  0 
 1.585439e-04  -1.047160e-05  0 
 5.646354e-05  1.815678e-05  0 
 2.543760e-05  1.052788e-05  0 
 6.005213e-05  -9.146169e-05  0 
VECTORS displacement_ITER12 FLOAT
 0  0  0 
 0  0  0 
 1.010000e-05  -1.335627e-04  0 
 -3.793941e-05  -3.479709e-05  0 
 -7.267539e-05  -5.071852e-05  0 
 -1.196389e-04  -8.718769e-05  0 
 1.023763e-05  -9.258847e-06  0 
 2.016521e-05  -3.186506e-05  0 
 2.179733e-05  -6.625846e-05  0 
 0  0  0 
 0  0  0 
 0  0  0 
 0  0  0 
 0  0  0 
 -8.367949e-06  -3.854883e-06  0 
 -1.279764e-06  -5.245424e-05  0 
 -6.187144e-05  -4.213585e-05  0 
 -1.211594e-05  -6.191700e-06  0 
 -2.031127e-05  -3.271005e-05  0 
 -5.188832e-07  -1.557051e-05  0 
 -3.115523e-05  -1.398640e-05  0 
 -1.077530e-05  -9.351606e-07  0 
 -1.245260e-06  -8.700259e-05  0 
 -1.226318e-06  5.661390e-07  0 
 5.916360e-05  -1.234477e-05  0 
 7.541606e-05  -2.771551e-05  0 
 2.282265e-05  9.223255e-06  0 
 1.594195e-04  -7.710984e-05  0 
 1.484468e-04  -1.105642e-05  0 
 5.571628e-05  1.364875e-05  0 
 2.405278e-05  6.705300e-06  0 
 7.386656e-05  -8.258958e-05  0 
VECTORS displacement_ITER13 FLOAT
 0  0  0 
 0  0  0 
 1.019184e-05  -1.342073e-04  0 
 -3.800589e-05  -3.485769e-05  0 
 -7.281250e-05  -5.088403e-05  0 
 -1.197025e-04  -8.724574e-05  0 
 1.020326e-05  -9.227811e-06  0 
 2.008164e-05  -3.172311e-05  0 
 2.184820e-05  -6.628311e-05  0 
 0  0  0 
 0  0  0 
 0  0  0 
 0  0  0 
 0  0  0 
 -8.326333e-06  -3.870396e-06  0 
 -1.423905e-06  -5.226590e-05  0 
 -6.202328e-05  -4.234085e-05  0 
 -1.212896e-05  -6.193092e-06  0 
 -2.021123e-05  -3.277739e-05  0 
 -5.446815e-07  -1.555608e-05  0 
 -3.118915e-05  -1.400069e-05  0 
 -1.078153e-05  -9.236292e-07  0 
 -1.283862e-06  -8.705838e-05  0 
 -1.225800e-06  5.486277e-07  0 
 6.089044e-05  -1.278146e-05  0 
 7.719969e-05  -2.710596e-05  0 
 2.325927e-05  9.661532e-06  0 
 1.628340e-04  -7.650341e-05  0 
 1.518019e-04  -1.099719e-05  0 
 5.685433e-05  1.433989e-05  0 
 2.454493e-05  7.070321e-06  0 
 7.589503e-05  -8.142775e-05  0 
VECTORS displacement_ITER14 FLOAT
 0  0  0 
 0  0  0 
 1.020100e-05  -1.342332e-04  0 
 -3.800224e-05  -3.485533e-05  0 
 -7.280314e-05  -5.087645e-05  0 
 -1.196946e-04  -8.724075e-05  0 
 1.020844e-05  -9.230242e-06  0 
 2.009566e-05  -3.173697e-05  0 
 2.184945e-05  -6.627627e-05  0 
 0  0  0 
 0  0  0 
 0  0  0 
 0  0  0 
 0  0  0 
 -8.331460e-06  -3.867747e-06  0 
 -1.403986e-06  -5.228495e-05  0 
 -6.201046e-05  -4.233433e-05  0 
 -1.212794e-05  -6.193890e-06  0 
 -2.022713e-05  -3.276919e-05  0 
 -5.397432e-07  -1.555416e-05  0 
 -3.118553e-05  -1.400396e-05  0 
 -1.078033e-05  -9.257594e-07  0 
 -1.289817e-06  -8.705606e-05  0 
 -1.225176e-06  5.519663e-07  0 
 6.067111e-05  -1.250879e-05  0 
 7.753197e-05  -2.660429e-05  0 
 2.324529e-05  9.635805e-06  0 
 1.631247e-04  -7.524822e-05  0 
 1.510954e-04  -1.097044e-05  0 
 5.684286e-05  1.421138e-05  0 
 2.456259e-05  7.052936e-06  0 
 7.619647e-05  -8.049996e-05  0 
CELL_DATA 43
TENSORS element_stresses FLOAT
 5.253896e-03  -2.521590e-02  0 
 -2.521590e-02  -5.870834e-03  0 
 0  0  0 

 -1.567259e-01  3.591135e-02  0 
 3.591135e-02  1.027998e-01  0 
 0  0  0 

 -1.353129e-01  -5.060693e-02  0 
 -5.060693e-02  5.565361e-02  0 
 0  0  0 

 -8.178755e-02  -2.923895e-02  0 
 -2.923895e-02  -2.453627e-02  0 
 0  0  0 

 -8.004008e-03  -3.412266e-02  0 
 -3.412266e-02  -1.215318e-02  0 
 0  0  0 

 -6.494803e-02  2.696620e-02  0 
 2.696620e-02  8.374205e-02  0 
 0  0  0 

 -3.428653e-02  -3.215223e-02  0 
 -3.215223e-02  -1.110916e-02  0 
 0  0  0 

 -1.621917e-02  -5.742719e-02  0 
 -5.742719e-02  -4.062286e-02  0 
 0  0  0 

 -2.948654e-02  -1.418162e-02  0 
 -1.418162e-02  -4.497585e-03  0 
 0  0  0 

 -9.402113e-02  2.260654e-02  0 
 2.260654e-02  -1.679317e-02  0 
 0  0  0 

 -1.157018e-01  2.299500e-02  0 
 2.299500e-02  7.833938e-02  0 
 0  0  0 

 -9.687393e-02  1.164094e-03  0 
 1.164094e-03  9.441607e-02  0 
 0  0  0 

 3.251532e-02  -1.018695e-02  0 
 -1.018695e-02  -2.344519e-02  0 
 0  0  0 

 -6.643307e-02  -1.038831e-02  0 
 -1.038831e-02  1.186779e-02  0 
 0  0  0 

 -6.234816e-02  -1.235330e-01  0 
 -1.235330e-01  -5.251451e-02  0 
 0  0  0 

 -2.838859e-02  -5.283849e-02  0 
 -5.283849e-02  5.506827e-03  0 
 0  0  0 

 -7.894842e-02  -2.443987e-03  0 
 -2.443987e-03  -7.950285e-03  0 
 0  0  0 

 -9.351514e-02  -3.099580e-02  0 
 -3.099580e-02  4.205896e-03  0 
 0  0  0 

 -7.144915e-02  -4.294979e-03  0 
 -4.294979e-03  -2.143475e-02  0 
 0  0  0 

 -4.086907e-02  1.385964e-02  0 
 1.385964e-02  -2.004718e-02  0 
 0  0  0 

 3.625340e-02  -4.174765e-03  0 
 -4.174765e-03  -1.526793e-02  0 
 0  0  0 

 -8.752769e-03  2.760308e-03  0 
 2.760308e-03  -2.625831e-03  0 
 0  0  0 

 -8.752769e-03  2.760308e-03  0 
 2.760308e-03  -2.625831e-03  0 
 0  0  0 

 -4.582996e-03  -2.489473e-02  0 
 -2.489473e-02  -1.558649e-02  0 
 0  0  0 

 -6.470895e-03  -1.193290e-02  0 
 -1.193290e-02  -1.714963e-02  0 
 0  0  0 

 -3.203465e-02  -9.974848e-04  0 
 -9.974848e-04  1.762005e-03  0 
 0  0  0 

 4.999425e-05  9.766758e-05  0 
 9.766758e-05  1.432637e-04  0 
 0  0  0 

 7.492616e-05  4.593301e-05  0 
 4.593301e-05  1.136413e-04  0 
 0  0  0 

 1.567600e-04  4.548689e-05  0 
 4.548689e-05  4.702800e-05  0 
 0  0  0 

 2.553843e-04  2.096920e-05  0 
 2.096920e-05  6.638214e-05  0 
 0  0  0 

 1.488830e-04  5.399278e-05  0 
 5.399278e-05  1.629142e-04  0 
 0  0  0 

 2.923148e-04  8.478037e-05  0 
 8.478037e-05  -9.065572e-06  0 
 0  0  0 

 1.315867e-04  1.117651e-04  0 
 1.117651e-04  6.264181e-05  0 
 0  0  0 

 8.821763e-05  5.740883e-05  0 
 5.740883e-05  1.622292e-04  0 
 0  0  0 

 1.530167e-04  8.727855e-05  0 
 8.727855e-05  1.468035e-04  0 
 0  0  0 

 1.542388e-04  4.361350e-05  0 
 4.361350e-05  2.999873e-05  0 
 0  0  0 

 -2.685072e-05  6.560832e-05  0 
 6.560832e-05  6.581028e-05  0 
 0  0  0 

 9.719113e-05  1.595764e-05  0 
 1.595764e-05  1.017367e-04  0 
 0  0  0 

 1.765932e-04  5.779313e-05  0 
 5.779313e-05  -4.304451e-05  0 
 0  0  0 

 1.688249e-04  2.556475e-05  0 
 2.556475e-05  3.476975e-05  0 
 0  0  0 

 1.170485e-04  1.259137e-04  0 
 1.259137e-04  3.011489e-05  0 
 0  0  0 

 1.627943e-04  3.272148e-05  0 
 3.272148e-05  4.883828e-05  0 
 0  0  0 

 2.081506e-04  2.497122e-05  0 
 2.497122e-05  -1.752839e-05  0 
 0  0  0 

TENSORS element_stresses FLOAT
 5.253896e-03  -2.521590e-02  0 
 -2.521590e-02  -5.870834e-03  0 
 0  0  0 

 -1.567259e-01  3.591135e-02  0 
 3.591135e-02  1.027998e-01  0 
 0  0  0 

 -1.353129e-01  -5.060693e-02  0 
 -5.060693e-02  5.565361e-02  0 
 0  0  0 

 -8.178755e-02  -2.923895e-02  0 
 -2.923895e-02  -2.453627e-02  0 
 0  0  0 

 -8.004008e-03  -3.412266e-02  0 
 -3.412266e-02  -1.215318e-02  0 
 0  0  0 

 -6.494803e-02  2.696620e-02  0 
 2.696620e-02  8.374205e-02  0 
 0  0  0 

 -3.428653e-02  -3.215223e-02  0 
 -3.215223e-02  -1.110916e-02  0 
 0  0  0 

 -1.621917e-02  -5.742719e-02  0 
 -5.742719e-02  -4.062286e-02  0 
 0  0  0 

 -2.948654e-02  -1.418162e-02  0 
 -1.418162e-02  -4.497585e-03  0 
 0  0  0 

 -9.402113e-02  2.260654e-02  0 
 2.260654e-02  -1.679317e-02  0 
 0  0  0 

 -1.157018e-01  2.299500e-02  0 
 2.299500e-02  7.833938e-02  0 
 0  0  0 

 -9.687393e-02  1.164094e-03  0 
 1.164094e-03  9.441607e-02  0 
 0  0  0 

 3.251532e-02  -1.018695e-02  0 
 -1.018695e-02  -2.344519e-02  0 
 0  0  0 

 -6.643307e-02  -1.038831e-02  0 
 -1.038831e-02  1.186779e-02  0 
 0  0  0 

 -6.234816e-02  -1.235330e-01  0 
 -1.235330e-01  -5.251451e-02  0 
 0  0  0 

 -2.838859e-02  -5.283849e-02  0 
 -5.283849e-02  5.506827e-03  0 
 0  0  0 

 -7.894842e-02  -2.443987e-03  0 
 -2.443987e-03  -7.950285e-03  0 
 0  0  0 

 -9.351514e-02  -3.099580e-02  0 
 -3.099580e-02  4.205896e-03  0 
 0  0  0 

 -7.144915e-02  -4.294979e-03  0 
 -4.294979e-03  -2.143475e-02  0 
 0  0  0 

 -4.086907e-02  1.385964e-02  0 
 1.385964e-02  -2.004718e-02  0 
 0  0  0 

 3.625340e-02  -4.174765e-03  0 
 -4.174765e-03  -1.526793e-02  0 
 0  0  0 

 -8.752769e-03  2.760308e-03  0 
 2.760308e-03  -2.625831e-03  0 
 0  0  0 

 -8.752769e-03  2.760308e-03  0 
 2.760308e-03  -2.625831e-03  0 
 0  0  0 

 -4.582996e-03  -2.489473e-02  0 
 -2.489473e-02  -1.558649e-02  0 
 0  0  0 

 -6.470895e-03  -1.193290e-02  0 
 -1.193290e-02  -1.714963e-02  0 
 0  0  0 

 -3.203465e-02  -9.974848e-04  0 
 -9.974848e-04  1.762005e-03  0 
 0  0  0 

 4.999425e-05  9.766758e-05  0 
 9.766758e-05  1.432637e-04  0 
 0  0  0 

 7.492616e-05  4.593301e-05  0 
 4.593301e-05  1.136413e-04  0 
 0  0  0 

 1.567600e-04  4.548689e-05  0 
 4.548689e-05  4.702800e-05  0 
 0  0  0 

 2.553843e-04  2.096920e-05  0 
 2.096920e-05  6.638214e-05  0 
 0  0  0 

 1.488830e-04  5.399278e-05  0 
 5.399278e-05  1.629142e-04  0 
 0  0  0 

 2.923148e-04  8.478037e-05  0 
 8.478037e-05  -9.065572e-06  0 
 0  0  0 

 1.315867e-04  1.117651e-04  0 
 1.117651e-04  6.264181e-05  0 
 0  0  0 

 8.821763e-05  5.740883e-05  0 
 5.740883e-05  1.622292e-04  0 
 0  0  0 

 1.530167e-04  8.727855e-05  0 
 8.727855e-05  1.468035e-04  0 
 0  0  0 

 1.542388e-04  4.361350e-05  0 
 4.361350e-05  2.999873e-05  0 
 0  0  0 

 -2.685072e-05  6.560832e-05  0 
 6.560832e-05  6.581028e-05  0 
 0  0  0 

 9.719113e-05  1.595764e-05  0 
 1.595764e-05  1.017367e-04  0 
 0  0  0 

 1.765932e-04  5.779313e-05  0 
 5.779313e-05  -4.304451e-05  0 
 0  0  0 

 1.688249e-04  2.556475e-05  0 
 2.556475e-05  3.476975e-05  0 
 0  0  0 

 1.170485e-04  1.259137e-04  0 
 1.259137e-04  3.011489e-05  0 
 0  0  0 

 1.627943e-04  3.272148e-05  0 
 3.272148e-05  4.883828e-05  0 
 0  0  0 

 2.081506e-04  2.497122e-05  0 
 2.497122e-05  -1.752839e-05  0 
 0  0  0 

