# vtk DataFile Version 3.1
this is an vtk file created by FEMAC
ASCII
DATASET UNSTRUCTURED_GRID
POINTS 31 FLOAT
0.000000 0.000000 0.000000
1.000000 0.000000 0.000000
0.000000 1.000000 0.000000
1.000000 1.000000 0.000000
0.250000 0.000000 0.000000
0.500000 0.000000 0.000000
0.750000 0.000000 0.000000
0.250000 1.000000 0.000000
0.500000 1.000000 0.000000
0.750000 1.000000 0.000000
0.000000 0.250000 0.000000
0.000000 0.500000 0.000000
0.000000 0.750000 0.000000
1.000000 0.250000 0.000000
1.000000 0.500000 0.000000
1.000000 0.750000 0.000000
0.354092 0.524248 0.000000
0.804015 0.668485 0.000000
0.176539 0.642203 0.000000
0.279348 0.239607 0.000000
0.653111 0.819895 0.000000
0.376524 0.781795 0.000000
0.167416 0.439302 0.000000
0.576925 0.611220 0.000000
0.521903 0.318733 0.000000
0.757669 0.416286 0.000000
0.132337 0.122402 0.000000
0.841425 0.847676 0.000000
0.160613 0.834800 0.000000
0.734095 0.185003 0.000000
0.871024 0.108751 0.000000
CELLS 43 172 
3 17 14 15
3 11 18 12
3 5 19  4
3 16 24 23
3 17 25 14
3 25 17 23
3 7 21  8
3 10 22 11
3 20  9  8
3 20 23 17
3 23 24 25
3 19 22 10
3 20  8 21
3 16 21 18
3 16 23 21
3 20 21 23
3 11 22 18
3 16 22 19
3 22 16 18
3 19 24 16
3 24 19  5
3 4 26  0
3 10 26 19
3 26 10  0
3 26  4 19
3 9 27  3
3 15 27 17
3 27 15  3
3 28  7  2
3 28 12 18
3 12 28  2
3 28 21  7
3 18 21 28
3 20 27  9
3 20 17 27
3 6 29  5
3 29 24  5
3 30  6  1
3 13 30  1
3 6 30 29
3 29 25 24
3 25 29 13
3 30 13 29
CELL_TYPES 43
5 5 5 5 5 5 5 5 5 5 5 5 5 5 5 5 5 5 5 5 5 5 5 5 5 5 5 5 5 5 5 5 5 5 5 5 5 5 5 5 5 5 5 
POINT_DATA 31
VECTORS displacement_ITER1 FLOAT
 0  0  0 
 -2.712178e-04  -3.418371e-04  0 
 0  0  0 
 -5.200537e-07  -2.392493e-04  0 
 -8.488915e-05  -1.015732e-04  0 
 -1.473508e-04  -1.617170e-04  0 
 -2.043594e-04  -2.375235e-04  0 
 1.719885e-05  -2.564291e-05  0 
 2.363358e-05  -6.627035e-05  0 
 2.005551e-05  -1.379365e-04  0 
 0  0  0 
 0  0  0 
 0  0  0 
 -1.590668e-04  -2.781202e-04  0 
 -1.079390e-04  -2.267046e-04  0 
 -5.778314e-05  -2.264528e-04  0 
 -3.101401e-05  -4.737020e-05  0 
 -5.977733e-05  -1.645227e-04  0 
 -8.659248e-06  -1.123044e-05  0 
 -4.370184e-05  -5.106419e-05  0 
 -1.966351e-05  -1.111855e-04  0 
 -9.058995e-06  -4.045125e-05  0 
 -1.539367e-05  -1.734307e-05  0 
 -4.492156e-05  -9.918001e-05  0 
 -7.630572e-05  -1.089647e-04  0 
 -9.356092e-05  -1.680263e-04  0 
 -2.320830e-05  -2.667457e-05  0 
 -2.780172e-05  -1.762173e-04  0 
 -1.056927e-06  -7.847657e-06  0 
 -1.451209e-04  -1.932477e-04  0 
 -1.943391e-04  -2.554904e-04  0 
VECTORS displacement_ITER2 FLOAT
 0  0  0 
 -2.624926e-04  -3.545091e-04  0 
 0  0  0 
 -4.343218e-05  -2.731976e-04  0 
 -8.850917e-05  -1.100700e-04  0 
 -1.501260e-04  -1.759072e-04  0 
 -2.032529e-04  -2.528894e-04  0 
 1.569968e-05  -3.290778e-05  0 
 1.541693e-05  -8.110993e-05  0 
 -1.753662e-07  -1.597106e-04  0 
 0  0  0 
 0  0  0 
 0  0  0 
 -1.596751e-04  -2.940686e-04  0 
 -1.069825e-04  -2.374263e-04  0 
 -7.187926e-05  -2.424910e-04  0 
 -3.518290e-05  -6.218867e-05  0 
 -7.017670e-05  -1.891988e-04  0 
 -1.115416e-05  -1.879755e-05  0 
 -4.483223e-05  -6.089611e-05  0 
 -3.506883e-05  -1.362250e-04  0 
 -1.590018e-05  -5.537634e-05  0 
 -1.732301e-05  -2.457498e-05  0 
 -5.262152e-05  -1.213663e-04  0 
 -7.727823e-05  -1.255105e-04  0 
 -9.488091e-05  -1.869158e-04  0 
 -2.442719e-05  -3.056780e-05  0 
 -5.168615e-05  -2.065712e-04  0 
 -3.105832e-06  -1.281034e-05  0 
 -1.450404e-04  -2.116656e-04  0 
 -1.917262e-04  -2.727140e-04  0 
VECTORS displacement_ITER3 FLOAT
 0  0  0 
 -2.465594e-04  -3.633643e-04  0 
 0  0  0 
 -8.683527e-05  -2.823235e-04  0 
 -8.851504e-05  -1.124626e-04  0 
 -1.477257e-04  -1.815276e-04  0 
 -1.962301e-04  -2.606412e-04  0 
 1.738522e-05  -4.332895e-05  0 
 1.369910e-05  -9.978038e-05  0 
 -1.191703e-05  -1.799486e-04  0 
 0  0  0 
 0  0  0 
 0  0  0 
 -1.538777e-04  -3.034317e-04  0 
 -9.401708e-05  -2.448292e-04  0 
 -6.083529e-05  -2.507618e-04  0 
 -3.421513e-05  -7.268593e-05  0 
 -6.369115e-05  -2.064262e-04  0 
 -1.186467e-05  -2.537965e-05  0 
 -4.312493e-05  -6.581936e-05  0 
 -3.849137e-05  -1.600687e-04  0 
 -1.756507e-05  -7.028240e-05  0 
 -1.719409e-05  -2.933996e-05  0 
 -5.033771e-05  -1.376123e-04  0 
 -7.253740e-05  -1.351581e-04  0 
 -8.762171e-05  -1.980582e-04  0 
 -2.430494e-05  -3.197343e-05  0 
 -5.878087e-05  -2.340604e-04  0 
 -3.538095e-06  -1.839513e-05  0 
 -1.382349e-04  -2.229012e-04  0 
 -1.820592e-04  -2.840045e-04  0 
VECTORS displacement_ITER4 FLOAT
 0  0  0 
 -2.202456e-04  -3.342023e-04  0 
 0  0  0 
 -1.305480e-04  -2.267550e-04  0 
 -7.925618e-05  -1.008075e-04  0 
 -1.319308e-04  -1.631758e-04  0 
 -1.759216e-04  -2.363047e-04  0 
 9.674394e-06  -3.619685e-05  0 
 -2.328324e-06  -8.403870e-05  0 
 -3.828141e-05  -1.463502e-04  0 
 0  0  0 
 0  0  0 
 0  0  0 
 -1.384927e-04  -2.753175e-04  0 
 -8.335554e-05  -2.049321e-04  0 
 -6.587014e-05  -1.999744e-04  0 
 -3.144853e-05  -6.819844e-05  0 
 -6.290134e-05  -1.789014e-04  0 
 -1.202375e-05  -2.554743e-05  0 
 -3.764831e-05  -5.974040e-05  0 
 -4.854331e-05  -1.417681e-04  0 
 -2.141218e-05  -6.575349e-05  0 
 -1.578646e-05  -2.809630e-05  0 
 -4.781312e-05  -1.253287e-04  0 
 -6.273462e-05  -1.221467e-04  0 
 -7.591962e-05  -1.758508e-04  0 
 -2.161100e-05  -2.862426e-05  0 
 -7.569212e-05  -2.019280e-04  0 
 -5.078746e-06  -1.755659e-05  0 
 -1.220902e-04  -2.017988e-04  0 
 -1.620287e-04  -2.594148e-04  0 
VECTORS displacement_ITER5 FLOAT
 0  0  0 
 -1.739315e-04  -2.760805e-04  0 
 0  0  0 
 -2.465799e-04  -1.487110e-04  0 
 -6.437956e-05  -8.509785e-05  0 
 -1.045021e-04  -1.365916e-04  0 
 -1.397281e-04  -1.949344e-04  0 
 -1.401691e-05  -1.662093e-05  0 
 -5.358339e-05  -4.608308e-05  0 
 -1.219489e-04  -7.763048e-05  0 
 0  0  0 
 0  0  0 
 0  0  0 
 -1.125495e-04  -2.245898e-04  0 
 -7.562316e-05  -1.212605e-04  0 
 -1.189888e-04  -9.498998e-05  0 
 -3.429535e-05  -6.824402e-05  0 
 -8.857260e-05  -1.328229e-04  0 
 -1.623214e-05  -2.974276e-05  0 
 -2.970301e-05  -5.523912e-05  0 
 -9.607319e-05  -1.094867e-04  0 
 -4.090802e-05  -6.029426e-05  0 
 -1.636867e-05  -3.086638e-05  0 
 -5.902063e-05  -1.124507e-04  0 
 -4.917190e-05  -1.055793e-04  0 
 -6.102570e-05  -1.402577e-04  0 
 -1.776367e-05  -2.549800e-05  0 
 -1.496241e-04  -1.406594e-04  0 
 -1.190835e-05  -1.613761e-05  0 
 -9.596402e-05  -1.667704e-04  0 
 -1.282269e-04  -2.145460e-04  0 
VECTORS displacement_ITER6 FLOAT
 0  0  0 
 -1.592185e-04  -2.545054e-04  0 
 0  0  0 
 -3.125702e-04  -1.303202e-04  0 
 -5.988920e-05  -8.138661e-05  0 
 -9.545023e-05  -1.297428e-04  0 
 -1.275161e-04  -1.823683e-04  0 
 -2.161374e-05  -1.128960e-05  0 
 -7.297462e-05  -3.852923e-05  0 
 -1.589768e-04  -6.384042e-05  0 
 0  0  0 
 0  0  0 
 0  0  0 
 -1.023470e-04  -2.094001e-04  0 
 -6.906819e-05  -9.841091e-05  0 
 -1.339170e-04  -6.753632e-05  0 
 -3.669809e-05  -7.209020e-05  0 
 -9.687825e-05  -1.264528e-04  0 
 -1.867535e-05  -3.318461e-05  0 
 -2.734016e-05  -5.582121e-05  0 
 -1.166142e-04  -1.098145e-04  0 
 -4.961022e-05  -6.356700e-05  0 
 -1.725984e-05  -3.365754e-05  0 
 -6.420397e-05  -1.154715e-04  0 
 -4.493010e-05  -1.027128e-04  0 
 -5.451206e-05  -1.321427e-04  0 
 -1.672096e-05  -2.529852e-05  0 
 -1.813461e-04  -1.356006e-04  0 
 -1.456788e-05  -1.663999e-05  0 
 -8.743158e-05  -1.564489e-04  0 
 -1.173124e-04  -1.996002e-04  0 
VECTORS displacement_ITER7 FLOAT
 0  0  0 
 -1.541939e-04  -2.420869e-04  0 
 0  0  0 
 -3.478200e-04  -1.294517e-04  0 
 -5.810649e-05  -8.013449e-05  0 
 -9.174469e-05  -1.272007e-04  0 
 -1.221408e-04  -1.766900e-04  0 
 -1.958296e-05  -1.208311e-05  0 
 -7.230988e-05  -4.431464e-05  0 
 -1.656084e-04  -7.388309e-05  0 
 0  0  0 
 0  0  0 
 0  0  0 
 -9.592316e-05  -2.030010e-04  0 
 -5.994176e-05  -1.030652e-04  0 
 -1.198146e-04  -7.812552e-05  0 
 -3.693301e-05  -7.432923e-05  0 
 -9.071807e-05  -1.347616e-04  0 
 -1.922971e-05  -3.452564e-05  0 
 -2.662006e-05  -5.632592e-05  0 
 -1.174249e-04  -1.220808e-04  0 
 -5.022077e-05  -6.814458e-05  0 
 -1.741824e-05  -3.473167e-05  0 
 -6.286812e-05  -1.211591e-04  0 
 -4.341869e-05  -1.022480e-04  0 
 -4.989979e-05  -1.323464e-04  0 
 -1.636631e-05  -2.539411e-05  0 
 -1.825377e-04  -1.548978e-04  0 
 -1.420271e-05  -1.704517e-05  0 
 -8.402278e-05  -1.521116e-04  0 
 -1.129290e-04  -1.916362e-04  0 
VECTORS displacement_ITER8 FLOAT
 0  0  0 
 -1.404842e-04  -2.181424e-04  0 
 0  0  0 
 -3.848495e-04  -1.021352e-04  0 
 -5.308220e-05  -7.498986e-05  0 
 -8.256698e-05  -1.178381e-04  0 
 -1.097808e-04  -1.603467e-04  0 
 -2.543170e-05  -5.936604e-06  0 
 -8.497524e-05  -3.451806e-05  0 
 -1.874941e-04  -5.730358e-05  0 
 0  0  0 
 0  0  0 
 0  0  0 
 -8.721235e-05  -1.812609e-04  0 
 -5.878628e-05  -8.158800e-05  0 
 -1.279678e-04  -5.429326e-05  0 
 -3.792606e-05  -7.318503e-05  0 
 -9.586478e-05  -1.218328e-04  0 
 -2.046381e-05  -3.503017e-05  0 
 -2.465916e-05  -5.473097e-05  0 
 -1.287768e-04  -1.141452e-04  0 
 -5.537025e-05  -6.583492e-05  0 
 -1.760974e-05  -3.503698e-05  0 
 -6.583616e-05  -1.162148e-04  0 
 -4.045006e-05  -9.618534e-05  0 
 -4.699294e-05  -1.205771e-04  0 
 -1.521609e-05  -2.453214e-05  0 
 -1.989517e-04  -1.415639e-04  0 
 -1.590340e-05  -1.601321e-05  0 
 -7.627107e-05  -1.384099e-04  0 
 -1.022382e-04  -1.724913e-04  0 
VECTORS displacement_ITER9 FLOAT
 0  0  0 
 -1.078667e-04  -1.729460e-04  0 
 0  0  0 
 -4.525339e-04  -4.706826e-05  0 
 -4.281216e-05  -6.509761e-05  0 
 -6.326805e-05  -9.994168e-05  0 
 -8.279240e-05  -1.283926e-04  0 
 -4.083384e-05  8.680589e-06  0 
 -1.166647e-04  -8.173214e-06  0 
 -2.375596e-04  -1.260569e-05  0 
 0  0  0 
 0  0  0 
 0  0  0 
 -6.918337e-05  -1.380639e-04  0 
 -6.265076e-05  -2.908759e-05  0 
 -1.628864e-04  6.443799e-06  0 
 -4.079531e-05  -7.184071e-05  0 
 -1.158120e-04  -9.008008e-05  0 
 -2.322900e-05  -3.650432e-05  0 
 -2.052875e-05  -5.257447e-05  0 
 -1.582653e-04  -8.984639e-05  0 
 -6.814486e-05  -5.916899e-05  0 
 -1.824875e-05  -3.641476e-05  0 
 -7.547848e-05  -1.047832e-04  0 
 -3.419267e-05  -8.572024e-05  0 
 -4.315165e-05  -9.697470e-05  0 
 -1.289019e-05  -2.316972e-05  0 
 -2.425393e-04  -1.005262e-04  0 
 -2.039268e-05  -1.384747e-05  0 
 -5.911686e-05  -1.128347e-04  0 
 -7.783999e-05  -1.363290e-04  0 
VECTORS displacement_ITER10 FLOAT
 0  0  0 
 -8.802629e-05  -1.441947e-04  0 
 0  0  0 
 -4.912683e-04  -8.273226e-06  0 
 -3.591244e-05  -5.790953e-05  0 
 -5.073244e-05  -8.717970e-05  0 
 -6.546384e-05  -1.067354e-04  0 
 -4.774960e-05  1.580418e-05  0 
 -1.305322e-04  4.010423e-06  0 
 -2.607681e-04  9.941210e-06  0 
 0  0  0 
 0  0  0 
 0  0  0 
 -5.688873e-05  -1.091262e-04  0 
 -6.297979e-05  -1.388575e-06  0 
 -1.711902e-04  3.782439e-05  0 
 -4.115105e-05  -6.941296e-05  0 
 -1.210831e-04  -7.109280e-05  0 
 -2.428039e-05  -3.668379e-05  0 
 -1.779900e-05  -5.009558e-05  0 
 -1.696953e-04  -7.728972e-05  0 
 -7.349421e-05  -5.513394e-05  0 
 -1.808591e-05  -3.628547e-05  0 
 -7.813115e-05  -9.628211e-05  0 
 -2.995305e-05  -7.778274e-05  0 
 -4.010280e-05  -8.133989e-05  0 
 -1.128023e-05  -2.187573e-05  0 
 -2.589276e-04  -8.019818e-05  0 
 -2.229808e-05  -1.254282e-05  0 
 -4.785158e-05  -9.527616e-05  0 
 -6.205570e-05  -1.120040e-04  0 
VECTORS displacement_ITER11 FLOAT
 0  0  0 
 -8.149341e-05  -1.359836e-04  0 
 0  0  0 
 -5.075252e-04  -5.485098e-06  0 
 -3.425440e-05  -5.695437e-05  0 
 -4.719004e-05  -8.510054e-05  0 
 -5.962595e-05  -1.013523e-04  0 
 -4.701973e-05  1.475937e-05  0 
 -1.296182e-04  -2.005568e-09  0 
 -2.628476e-04  4.549411e-06  0 
 0  0  0 
 0  0  0 
 0  0  0 
 -5.214468e-05  -1.010536e-04  0 
 -6.145194e-05  -2.642552e-06  0 
 -1.634535e-04  3.309593e-05  0 
 -4.131097e-05  -7.048016e-05  0 
 -1.184840e-04  -7.357021e-05  0 
 -2.458474e-05  -3.744438e-05  0 
 -1.741467e-05  -5.071871e-05  0 
 -1.696299e-04  -8.277534e-05  0 
 -7.408407e-05  -5.708027e-05  0 
 -1.812168e-05  -3.693179e-05  0 
 -7.807770e-05  -9.785786e-05  0 
 -2.928997e-05  -7.785287e-05  0 
 -3.964052e-05  -8.029956e-05  0 
 -1.101213e-05  -2.212330e-05  0 
 -2.582259e-04  -8.904284e-05  0 
 -2.236826e-05  -1.293805e-05  0 
 -4.441854e-05  -9.198245e-05  0 
 -5.666094e-05  -1.054910e-04  0 
VECTORS displacement_ITER12 FLOAT
 0  0  0 
 -7.066923e-05  -1.239361e-04  0 
 0  0  0 
 -5.285888e-04  -3.266717e-06  0 
 -3.167075e-05  -5.535405e-05  0 
 -4.169169e-05  -8.185990e-05  0 
 -5.081138e-05  -9.356968e-05  0 
 -4.767644e-05  1.433503e-05  0 
 -1.313938e-04  -2.585586e-06  0 
 -2.692351e-04  1.631926e-06  0 
 0  0  0 
 0  0  0 
 0  0  0 
 -4.542105e-05  -8.975294e-05  0 
 -5.980395e-05  1.152927e-07  0 
 -1.606865e-04  3.304716e-05  0 
 -4.196804e-05  -7.227405e-05  0 
 -1.184167e-04  -7.478282e-05  0 
 -2.522687e-05  -3.872965e-05  0 
 -1.658179e-05  -5.161978e-05  0 
 -1.728841e-04  -8.736792e-05  0 
 -7.609282e-05  -5.911518e-05  0 
 -1.831872e-05  -3.812770e-05  0 
 -7.942418e-05  -9.959262e-05  0 
 -2.784744e-05  -7.772069e-05  0 
 -3.860534e-05  -7.765622e-05  0 
 -1.054225e-05  -2.240805e-05  0 
 -2.627685e-04  -9.568826e-05  0 
 -2.296493e-05  -1.346555e-05  0 
 -3.900047e-05  -8.708113e-05  0 
 -4.839062e-05  -9.641377e-05  0 
VECTORS displacement_ITER13 FLOAT
 0  0  0 
 -4.793238e-05  -9.294701e-05  0 
 0  0  0 
 -5.650176e-04  3.186948e-05  0 
 -2.407168e-05  -4.738783e-05  0 
 -2.787482e-05  -6.786298e-05  0 
 -3.192084e-05  -7.038496e-05  0 
 -5.542496e-05  2.178861e-05  0 
 -1.456560e-04  1.135985e-05  0 
 -2.925345e-04  2.736147e-05  0 
 0  0  0 
 0  0  0 
 0  0  0 
 -3.219026e-05  -5.962026e-05  0 
 -5.948763e-05  3.093661e-05  0 
 -1.747206e-04  6.818153e-05  0 
 -4.266206e-05  -6.984861e-05  0 
 -1.259380e-04  -5.470210e-05  0 
 -2.632930e-05  -3.885255e-05  0 
 -1.340253e-05  -4.889370e-05  0 
 -1.858874e-04  -7.277012e-05  0 
 -8.198563e-05  -5.408964e-05  0 
 -1.825283e-05  -3.813563e-05  0 
 -8.323894e-05  -9.036301e-05  0 
 -2.282579e-05  -6.894841e-05  0 
 -3.490957e-05  -5.958965e-05  0 
 -8.733235e-06  -2.093033e-05  0 
 -2.825973e-04  -7.227707e-05  0 
 -2.518921e-05  -1.208584e-05  0 
 -2.643686e-05  -6.805216e-05  0 
 -3.101352e-05  -7.080916e-05  0 
VECTORS displacement_ITER14 FLOAT
 0  0  0 
 -4.012643e-05  -8.306387e-05  0 
 0  0  0 
 -5.755679e-04  3.750283e-05  0 
 -2.213712e-05  -4.578547e-05  0 
 -2.404823e-05  -6.494903e-05  0 
 -2.603618e-05  -6.445095e-05  0 
 -5.632692e-05  2.224899e-05  0 
 -1.470577e-04  1.186029e-05  0 
 -2.961899e-04  2.923385e-05  0 
 0  0  0 
 0  0  0 
 0  0  0 
 -2.810552e-05  -5.157368e-05  0 
 -5.852617e-05  3.487879e-05  0 
 -1.753058e-04  7.097910e-05  0 
 -4.293177e-05  -7.006352e-05  0 
 -1.265866e-04  -5.324067e-05  0 
 -2.658397e-05  -3.917739e-05  0 
 -1.270232e-05  -4.886737e-05  0 
 -1.877607e-04  -7.266595e-05  0 
 -8.303484e-05  -5.400523e-05  0 
 -1.828327e-05  -3.849749e-05  0 
 -8.405934e-05  -8.978832e-05  0 
 -2.172087e-05  -6.776773e-05  0 
 -3.409493e-05  -5.646196e-05  0 
 -8.327223e-06  -2.085146e-05  0 
 -2.855317e-04  -7.205964e-05  0 
 -2.557656e-05  -1.211205e-05  0 
 -2.290767e-05  -6.382401e-05  0 
 -2.565450e-05  -6.391860e-05  0 
VECTORS displacement_ITER15 FLOAT
 0  0  0 
 -3.319290e-05  -7.542991e-05  0 
 0  0  0 
 -5.869751e-04  3.550746e-05  0 
 -2.130432e-05  -4.596449e-05  0 
 -2.176961e-05  -6.495124e-05  0 
 -2.153215e-05  -6.188357e-05  0 
 -5.557343e-05  2.014152e-05  0 
 -1.453411e-04  7.104131e-06  0 
 -2.967758e-04  2.291191e-05  0 
 0  0  0 
 0  0  0 
 0  0  0 
 -2.493599e-05  -4.755849e-05  0 
 -5.715621e-05  3.096477e-05  0 
 -1.721501e-04  6.417530e-05  0 
 -4.347615e-05  -7.201513e-05  0 
 -1.256467e-04  -5.843032e-05  0 
 -2.687798e-05  -4.016545e-05  0 
 -1.260017e-05  -5.026189e-05  0 
 -1.878264e-04  -7.894928e-05  0 
 -8.348695e-05  -5.639041e-05  0 
 -1.848811e-05  -3.954038e-05  0 
 -8.474148e-05  -9.294305e-05  0 
 -2.156567e-05  -6.932647e-05  0 
 -3.410957e-05  -5.760839e-05  0 
 -8.263713e-06  -2.142921e-05  0 
 -2.858584e-04  -8.122384e-05  0 
 -2.571598e-05  -1.292561e-05  0 
 -2.072196e-05  -6.310714e-05  0 
 -2.162161e-05  -6.034915e-05  0 
VECTORS displacement_ITER16 FLOAT
 0  0  0 
 -2.600519e-05  -6.566731e-05  0 
 0  0  0 
 -5.985611e-04  4.893665e-05  0 
 -1.943934e-05  -4.389162e-05  0 
 -1.840839e-05  -6.162003e-05  0 
 -1.686014e-05  -5.661328e-05  0 
 -5.764794e-05  2.107803e-05  0 
 -1.490531e-04  9.568846e-06  0 
 -3.037937e-04  2.965462e-05  0 
 0  0  0 
 0  0  0 
 0  0  0 
 -2.175365e-05  -4.175442e-05  0 
 -5.575022e-05  3.884090e-05  0 
 -1.744848e-04  7.636888e-05  0 
 -4.319008e-05  -7.138957e-05  0 
 -1.259189e-04  -5.285781e-05  0 
 -2.710208e-05  -4.047143e-05  0 
 -1.163651e-05  -4.943170e-05  0 
 -1.906263e-04  -7.583951e-05  0 
 -8.473653e-05  -5.587865e-05  0 
 -1.829915e-05  -3.951028e-05  0 
 -8.466220e-05  -9.074723e-05  0 
 -1.999652e-05  -6.701636e-05  0 
 -3.241882e-05  -5.336928e-05  0 
 -7.768809e-06  -2.095391e-05  0 
 -2.906533e-04  -7.419960e-05  0 
 -2.628743e-05  -1.307529e-05  0 
 -1.768956e-05  -5.870948e-05  0 
 -1.743251e-05  -5.443005e-05  0 
VECTORS displacement_ITER17 FLOAT
 0  0  0 
 -2.655724e-05  -6.369029e-05  0 
 0  0  0 
 -6.003601e-04  5.330049e-05  0 
 -1.988195e-05  -4.407633e-05  0 
 -1.940895e-05  -6.213271e-05  0 
 -1.848046e-05  -5.771005e-05  0 
 -5.749774e-05  2.048583e-05  0 
 -1.485581e-04  8.421636e-06  0 
 -3.039345e-04  2.877959e-05  0 
 0  0  0 
 0  0  0 
 0  0  0 
 -2.357255e-05  -4.412825e-05  0 
 -5.466954e-05  3.773093e-05  0 
 -1.714461e-04  7.764423e-05  0 
 -4.287839e-05  -7.086923e-05  0 
 -1.236867e-04  -5.263131e-05  0 
 -2.707850e-05  -4.040977e-05  0 
 -1.175802e-05  -4.910255e-05  0 
 -1.894461e-04  -7.669676e-05  0 
 -8.436650e-05  -5.622269e-05  0 
 -1.819078e-05  -3.922110e-05  0 
 -8.366141e-05  -9.040952e-05  0 
 -2.032519e-05  -6.654242e-05  0 
 -3.239333e-05  -5.322576e-05  0 
 -7.833507e-06  -2.083475e-05  0 
 -2.889606e-04  -7.430834e-05  0 
 -2.621450e-05  -1.327935e-05  0 
 -1.912836e-05  -5.905596e-05  0 
 -1.942461e-05  -5.521201e-05  0 
VECTORS displacement_ITER18 FLOAT
 0  0  0 
 -2.117898e-05  -5.627385e-05  0 
 0  0  0 
 -6.044908e-04  6.178950e-05  0 
 -1.887095e-05  -4.295349e-05  0 
 -1.759176e-05  -6.038595e-05  0 
 -1.577563e-05  -5.458987e-05  0 
 -5.924538e-05  2.253672e-05  0 
 -1.517790e-04  1.216353e-05  0 
 -3.084722e-04  3.447962e-05  0 
 0  0  0 
 0  0  0 
 0  0  0 
 -2.300312e-05  -4.024571e-05  0 
 -5.487214e-05  4.334968e-05  0 
 -1.752874e-04  8.456752e-05  0 
 -4.300715e-05  -7.010663e-05  0 
 -1.255018e-04  -4.837763e-05  0 
 -2.723420e-05  -4.022209e-05  0 
 -1.127768e-05  -4.859977e-05  0 
 -1.918416e-04  -7.280239e-05  0 
 -8.541805e-05  -5.470846e-05  0 
 -1.815945e-05  -3.908788e-05  0 
 -8.446432e-05  -8.816345e-05  0 
 -1.973160e-05  -6.500480e-05  0 
 -3.224143e-05  -5.006080e-05  0 
 -7.568507e-06  -2.057450e-05  0 
 -2.923283e-04  -6.792538e-05  0 
 -2.660778e-05  -1.281545e-05  0 
 -1.782892e-05  -5.647868e-05  0 
 -1.723854e-05  -5.156656e-05  0 
VECTORS displacement_ITER19 FLOAT
 0  0  0 
 -1.671070e-05  -5.193555e-05  0 
 0  0  0 
 -6.024528e-04  6.036431e-05  0 
 -1.873669e-05  -4.310672e-05  0 
 -1.710196e-05  -6.082985e-05  0 
 -1.429441e-05  -5.429575e-05  0 
 -5.909564e-05  2.300001e-05  0 
 -1.514987e-04  1.235328e-05  0 
 -3.076529e-04  3.330745e-05  0 
 0  0  0 
 0  0  0 
 0  0  0 
 -2.336355e-05  -3.956579e-05  0 
 -5.467908e-05  4.207365e-05  0 
 -1.754794e-04  8.157128e-05  0 
 -4.313857e-05  -7.030823e-05  0 
 -1.258120e-04  -4.948612e-05  0 
 -2.718953e-05  -4.015883e-05  0 
 -1.123275e-05  -4.897889e-05  0 
 -1.915825e-04  -7.310981e-05  0 
 -8.538601e-05  -5.445866e-05  0 
 -1.817128e-05  -3.923878e-05  0 
 -8.486225e-05  -8.834228e-05  0 
 -1.979088e-05  -6.547852e-05  0 
 -3.270479e-05  -5.023879e-05  0 
 -7.553131e-06  -2.073048e-05  0 
 -2.915229e-04  -6.894363e-05  0 
 -2.652719e-05  -1.260737e-05  0 
 -1.754011e-05  -5.686396e-05  0 
 -1.605291e-05  -5.100137e-05  0 
VECTORS displacement_ITER20 FLOAT
 0  0  0 
 -1.642224e-05  -5.056564e-05  0 
 0  0  0 
 -5.979972e-04  5.867189e-05  0 
 -1.899829e-05  -4.320950e-05  0 
 -1.769094e-05  -6.118422e-05  0 
 -1.515262e-05  -5.500977e-05  0 
 -5.898386e-05  2.312462e-05  0 
 -1.512161e-04  1.248132e-05  0 
 -3.064076e-04  3.332634e-05  0 
 0  0  0 
 0  0  0 
 0  0  0 
 -2.470575e-05  -4.098887e-05  0 
 -5.435725e-05  4.160828e-05  0 
 -1.751961e-04  8.202712e-05  0 
 -4.300681e-05  -6.985908e-05  0 
 -1.252587e-04  -4.915085e-05  0 
 -2.711870e-05  -3.993595e-05  0 
 -1.129149e-05  -4.876201e-05  0 
 -1.908766e-04  -7.252285e-05  0 
 -8.511382e-05  -5.413656e-05  0 
 -1.811239e-05  -3.901148e-05  0 
 -8.454000e-05  -8.777086e-05  0 
 -1.999501e-05  -6.518245e-05  0 
 -3.287822e-05  -5.001482e-05  0 
 -7.585921e-06  -2.064992e-05  0 
 -2.904780e-04  -6.798697e-05  0 
 -2.643954e-05  -1.249146e-05  0 
 -1.839699e-05  -5.719367e-05  0 
 -1.712049e-05  -5.161432e-05  0 
VECTORS displacement_ITER21 FLOAT
 0  0  0 
 -1.780635e-05  -5.298208e-05  0 
 0  0  0 
 -5.892220e-04  5.065210e-05  0 
 -2.002910e-05  -4.436790e-05  0 
 -1.948880e-05  -6.334187e-05  0 
 -1.730746e-05  -5.829681e-05  0 
 -5.747806e-05  2.135552e-05  0 
 -1.483730e-04  9.163293e-06  0 
 -3.014220e-04  2.825915e-05  0 
 0  0  0 
 0  0  0 
 0  0  0 
 -2.650645e-05  -4.555727e-05  0 
 -5.390098e-05  3.602535e-05  0 
 -1.720638e-04  7.634597e-05  0 
 -4.272673e-05  -7.027037e-05  0 
 -1.232593e-04  -5.262594e-05  0 
 -2.689958e-05  -4.000183e-05  0 
 -1.170003e-05  -4.923877e-05  0 
 -1.880480e-04  -7.531652e-05  0 
 -8.396338e-05  -5.527049e-05  0 
 -1.804459e-05  -3.903273e-05  0 
 -8.357033e-05  -8.923873e-05  0 
 -2.066063e-05  -6.659303e-05  0 
 -3.337627e-05  -5.283769e-05  0 
 -7.828295e-06  -2.089104e-05  0 
 -2.863325e-04  -7.208991e-05  0 
 -2.603783e-05  -1.289066e-05  0 
 -2.006678e-05  -6.009919e-05  0 
 -1.917317e-05  -5.513292e-05  0 
VECTORS displacement_ITER22 FLOAT
 0  0  0 
 -1.776681e-05  -5.564288e-05  0 
 0  0  0 
 -5.768744e-04  3.831950e-05  0 
 -2.106904e-05  -4.588688e-05  0 
 -2.104331e-05  -6.607955e-05  0 
 -1.851702e-05  -6.179543e-05  0 
 -5.521014e-05  1.889934e-05  0 
 -1.440983e-04  4.462564e-06  0 
 -2.940198e-04  2.051818e-05  0 
 0  0  0 
 0  0  0 
 0  0  0 
 -2.749800e-05  -4.989647e-05  0 
 -5.377184e-05  2.770733e-05  0 
 -1.683044e-04  6.600624e-05  0 
 -4.247341e-05  -7.128138e-05  0 
 -1.212255e-04  -5.833612e-05  0 
 -2.657083e-05  -4.017997e-05  0 
 -1.218908e-05  -5.027032e-05  0 
 -1.842125e-04  -7.958180e-05  0 
 -8.239616e-05  -5.688494e-05  0 
 -1.798624e-05  -3.929911e-05  0 
 -8.265886e-05  -9.176674e-05  0 
 -2.141067e-05  -6.906610e-05  0 
 -3.418620e-05  -5.715453e-05  0 
 -8.114535e-06  -2.137619e-05  0 
 -2.805287e-04  -7.893476e-05  0 
 -2.545732e-05  -1.341813e-05  0 
 -2.123389e-05  -6.389000e-05  0 
 -2.013810e-05  -5.893571e-05  0 
VECTORS displacement_ITER23 FLOAT
 0  0  0 
 -1.787074e-05  -5.661473e-05  0 
 0  0  0 
 -5.652680e-04  2.784096e-05  0 
 -2.148987e-05  -4.653138e-05  0 
 -2.167557e-05  -6.718393e-05  0 
 -1.888894e-05  -6.304283e-05  0 
 -5.324870e-05  1.763016e-05  0 
 -1.401949e-04  1.773692e-06  0 
 -2.871264e-04  1.492693e-05  0 
 0  0  0 
 0  0  0 
 0  0  0 
 -2.752073e-05  -5.143905e-05  0 
 -5.369795e-05  2.139761e-05  0 
 -1.649539e-04  5.731268e-05  0 
 -4.226950e-05  -7.149432e-05  0 
 -1.195393e-04  -6.219791e-05  0 
 -2.623056e-05  -3.991636e-05  0 
 -1.248681e-05  -5.067743e-05  0 
 -1.808049e-04  -8.205694e-05  0 
 -8.096648e-05  -5.729992e-05  0 
 -1.791926e-05  -3.924487e-05  0 
 -8.195377e-05  -9.291473e-05  0 
 -2.189140e-05  -7.016407e-05  0 
 -3.469648e-05  -5.937154e-05  0 
 -8.249803e-06  -2.160127e-05  0 
 -2.752285e-04  -8.395415e-05  0 
 -2.489611e-05  -1.342762e-05  0 
 -2.170414e-05  -6.541279e-05  0 
 -2.041167e-05  -6.022154e-05  0 
VECTORS displacement_ITER24 FLOAT
 0  0  0 
 -1.833029e-05  -5.739755e-05  0 
 0  0  0 
 -5.570712e-04  2.071492e-05  0 
 -2.160169e-05  -4.668479e-05  0 
 -2.187246e-05  -6.741918e-05  0 
 -1.899057e-05  -6.330850e-05  0 
 -5.189231e-05  1.686853e-05  0 
 -1.373720e-04  2.742688e-07  0 
 -2.821771e-04  1.143715e-05  0 
 0  0  0 
 0  0  0 
 0  0  0 
 -2.716587e-05  -5.177306e-05  0 
 -5.355287e-05  1.746379e-05  0 
 -1.622061e-04  5.200751e-05  0 
 -4.204149e-05  -7.137933e-05  0 
 -1.181036e-04  -6.430194e-05  0 
 -2.595790e-05  -3.961888e-05  0 
 -1.262073e-05  -5.072068e-05  0 
 -1.783367e-04  -8.339292e-05  0 
 -7.989750e-05  -5.733076e-05  0 
 -1.783567e-05  -3.908080e-05  0 
 -8.130853e-05  -9.331018e-05  0 
 -2.208539e-05  -7.049918e-05  0 
 -3.484766e-05  -6.034402e-05  0 
 -8.293493e-06  -2.165369e-05  0 
 -2.714066e-04  -8.705399e-05  0 
 -2.448905e-05  -1.335632e-05  0 
 -2.178284e-05  -6.583441e-05  0 
 -2.041876e-05  -6.051641e-05  0 
VECTORS displacement_ITER25 FLOAT
 0  0  0 
 -1.780890e-05  -5.845409e-05  0 
 0  0  0 
 -5.499031e-04  1.282502e-05  0 
 -2.155683e-05  -4.684716e-05  0 
 -2.164255e-05  -6.766755e-05  0 
 -1.823069e-05  -6.334515e-05  0 
 -5.063293e-05  1.569007e-05  0 
 -1.347205e-04  -1.538651e-06  0 
 -2.776284e-04  7.679284e-06  0 
 0  0  0 
 0  0  0 
 0  0  0 
 -2.602584e-05  -5.147261e-05  0 
 -5.348368e-05  1.355219e-05  0 
 -1.596880e-04  4.685174e-05  0 
 -4.179087e-05  -7.167647e-05  0 
 -1.168479e-04  -6.672724e-05  0 
 -2.569415e-05  -3.957025e-05  0 
 -1.267524e-05  -5.101316e-05  0 
 -1.762126e-04  -8.517125e-05  0 
 -7.892392e-05  -5.776251e-05  0 
 -1.774345e-05  -3.912158e-05  0 
 -8.071342e-05  -9.419792e-05  0 
 -2.207396e-05  -7.127324e-05  0 
 -3.486796e-05  -6.179132e-05  0 
 -8.311878e-06  -2.179104e-05  0 
 -2.681853e-04  -9.066235e-05  0 
 -2.414621e-05  -1.352508e-05  0 
 -2.120928e-05  -6.645017e-05  0 
 -1.942531e-05  -6.069275e-05  0 
VECTORS displacement_ITER26 FLOAT
 0  0  0 
 -1.869221e-05  -6.061419e-05  0 
 0  0  0 
 -5.441581e-04  3.995215e-06  0 
 -2.189852e-05  -4.743250e-05  0 
 -2.210837e-05  -6.859664e-05  0 
 -1.852218e-05  -6.444232e-05  0 
 -4.929544e-05  1.428465e-05  0 
 -1.319533e-04  -3.760973e-06  0 
 -2.732667e-04  3.315081e-06  0 
 0  0  0 
 0  0  0 
 0  0  0 
 -2.559890e-05  -5.260794e-05  0 
 -5.328206e-05  8.756713e-06  0 
 -1.571900e-04  4.082308e-05  0 
 -4.167905e-05  -7.221559e-05  0 
 -1.156404e-04  -7.013692e-05  0 
 -2.548497e-05  -3.960801e-05  0 
 -1.290292e-05  -5.148714e-05  0 
 -1.742405e-04  -8.776161e-05  0 
 -7.798157e-05  -5.852095e-05  0 
 -1.772672e-05  -3.924929e-05  0 
 -8.021806e-05  -9.572779e-05  0 
 -2.235728e-05  -7.242156e-05  0 
 -3.501124e-05  -6.398806e-05  0 
 -8.428402e-06  -2.202120e-05  0 
 -2.653706e-04  -9.548452e-05  0 
 -2.380946e-05  -1.378690e-05  0 
 -2.137173e-05  -6.781545e-05  0 
 -1.950518e-05  -6.190309e-05  0 
VECTORS displacement_ITER27 FLOAT
 0  0  0 
 -1.925268e-05  -6.121674e-05  0 
 0  0  0 
 -5.410834e-04  -1.558801e-06  0 
 -2.196589e-05  -4.755323e-05  0 
 -2.220569e-05  -6.875266e-05  0 
 -1.858082e-05  -6.458460e-05  0 
 -4.861407e-05  1.385248e-05  0 
 -1.304214e-04  -4.325649e-06  0 
 -2.708497e-04  1.664399e-06  0 
 0  0  0 
 0  0  0 
 0  0  0 
 -2.523294e-05  -5.271737e-05  0 
 -5.291415e-05  6.571669e-06  0 
 -1.561347e-04  3.818003e-05  0 
 -4.163543e-05  -7.230761e-05  0 
 -1.150643e-04  -7.171908e-05  0 
 -2.535529e-05  -3.949397e-05  0 
 -1.297859e-05  -5.157765e-05  0 
 -1.733328e-04  -8.873743e-05  0 
 -7.746664e-05  -5.859272e-05  0 
 -1.771851e-05  -3.923182e-05  0 
 -7.998188e-05  -9.630665e-05  0 
 -2.244381e-05  -7.269394e-05  0 
 -3.490408e-05  -6.475295e-05  0 
 -8.458001e-06  -2.207449e-05  0 
 -2.642829e-04  -9.779514e-05  0 
 -2.361371e-05  -1.377675e-05  0 
 -2.138005e-05  -6.805534e-05  0 
 -1.951327e-05  -6.200411e-05  0 
VECTORS displacement_ITER28 FLOAT
 0  0  0 
 -1.877232e-05  -6.129565e-05  0 
 0  0  0 
 -5.397588e-04  -4.434047e-06  0 
 -2.190005e-05  -4.751863e-05  0 
 -2.205103e-05  -6.873901e-05  0 
 -1.821985e-05  -6.452260e-05  0 
 -4.821786e-05  1.387459e-05  0 
 -1.295484e-04  -4.294335e-06  0 
 -2.696041e-04  1.190979e-06  0 
 0  0  0 
 0  0  0 
 0  0  0 
 -2.486874e-05  -5.254885e-05  0 
 -5.247045e-05  5.631520e-06  0 
 -1.557389e-04  3.702921e-05  0 
 -4.155791e-05  -7.235881e-05  0 
 -1.147833e-04  -7.251812e-05  0 
 -2.524325e-05  -3.940074e-05  0 
 -1.293382e-05  -5.160959e-05  0 
 -1.729051e-04  -8.909327e-05  0 
 -7.716546e-05  -5.848663e-05  0 
 -1.768512e-05  -3.922412e-05  0 
 -7.983452e-05  -9.658330e-05  0 
 -2.232442e-05  -7.284290e-05  0 
 -3.467819e-05  -6.511463e-05  0 
 -8.440307e-06  -2.207998e-05  0 
 -2.639139e-04  -9.887260e-05  0 
 -2.346911e-05  -1.367421e-05  0 
 -2.110117e-05  -6.819192e-05  0 
 -1.907854e-05  -6.200150e-05  0 
VECTORS displacement_ITER29 FLOAT
 0  0  0 
 -2.016953e-05  -6.402411e-05  0 
 0  0  0 
 -5.381234e-04  -8.646721e-06  0 
 -2.253671e-05  -4.827357e-05  0 
 -2.313041e-05  -7.008811e-05  0 
 -1.956230e-05  -6.665211e-05  0 
 -4.745222e-05  1.340384e-05  0 
 -1.281390e-04  -5.422085e-06  0 
 -2.678812e-04  -9.046801e-07  0 
 0  0  0 
 0  0  0 
 0  0  0 
 -2.574030e-05  -5.532616e-05  0 
 -5.217267e-05  2.584161e-06  0 
 -1.550431e-04  3.380259e-05  0 
 -4.156106e-05  -7.282903e-05  0 
 -1.143336e-04  -7.493890e-05  0 
 -2.514731e-05  -3.944941e-05  0 
 -1.317256e-05  -5.200051e-05  0 
 -1.721083e-04  -9.079874e-05  0 
 -7.672262e-05  -5.898994e-05  0 
 -1.771571e-05  -3.934421e-05  0 
 -7.965591e-05  -9.784720e-05  0 
 -2.265932e-05  -7.388145e-05  0 
 -3.482953e-05  -6.702675e-05  0 
 -8.593799e-06  -2.225922e-05  0 
 -2.630669e-04  -1.016233e-04  0 
 -2.325019e-05  -1.373201e-05  0 
 -2.196429e-05  -7.010218e-05  0 
 -2.022940e-05  -6.441104e-05  0 
VECTORS displacement_ITER30 FLOAT
 0  0  0 
 -2.206916e-05  -6.692053e-05  0 
 0  0  0 
 -5.358829e-04  -1.278152e-05  0 
 -2.329649e-05  -4.914339e-05  0 
 -2.444946e-05  -7.161608e-05  0 
 -2.129046e-05  -6.906636e-05  0 
 -4.661969e-05  1.257427e-05  0 
 -1.266097e-04  -7.264471e-06  0 
 -2.659189e-04  -3.693937e-06  0 
 0  0  0 
 0  0  0 
 0  0  0 
 -2.691287e-05  -5.851247e-05  0 
 -5.186189e-05  -8.418194e-07  0 
 -1.538676e-04  3.033672e-05  0 
 -4.154969e-05  -7.332104e-05  0 