# vtk DataFile Version 3.1
this is an vtk file created by FEMAC
ASCII
DATASET UNSTRUCTURED_GRID
POINTS 31 FLOAT
4.000000 3.000000 0.000000
3.500000 3.000000 0.000000
3.750000 3.000000 0.000000
3.500000 4.000000 0.000000
4.000000 3.250000 0.000000
4.000000 3.500000 0.000000
4.250000 3.000000 0.000000
4.500000 3.000000 0.000000
3.447447 3.528256 0.000000
3.813081 3.669072 0.000000
3.813653 3.331392 0.000000
3.775000 3.500000 0.000000
3.660928 3.805846 0.000000
3.661595 3.194695 0.000000
3.413341 3.323754 0.000000
3.453287 3.717271 0.000000
3.616917 3.404183 0.000000
3.613486 3.598598 0.000000
3.845050 3.155217 0.000000
4.507893 2.661856 0.000000
4.761003 2.832250 0.000000
4.245757 2.832172 0.000000
4.675053 3.181152 0.000000
4.331361 3.185869 0.000000
4.500000 3.225000 0.000000
4.192042 3.332273 0.000000
4.300774 3.567728 0.000000
4.429311 3.390203 0.000000
4.649535 3.397124 0.000000
4.588195 3.700568 0.000000
4.154680 3.153628 0.000000
CELLS 42 168 
3 5 10  4
3 9 11  5
3 11 10  5
3 16 10 11
3 9 17 11
3 2 13  1
3 12 17  9
3 16 13 10
3 16 17  8
3 16 11 17
3 1 13 14
3 16  8 14
3 14 13 16
3 12  3 15
3 8 17 15
3 12 15 17
3 18  2  0
3 18  4 10
3 4 18  0
3 18 13  2
3 10 13 18
3 21  6  0
3 19 20  7
3 21  7  6
3 21 19  7
3 7 23  6
3 22 24  7
3 24 23  7
3 27 23 24
3 22 28 24
3 4 25  5
3 27 25 23
3 27 24 28
3 5 25 26
3 26 25 27
3 30  4  0
3 30  6 23
3 6 30  0
3 30 25  4
3 23 25 30
3 27 29 26
3 27 28 29
CELL_TYPES 42
5 5 5 5 5 5 5 5 5 5 5 5 5 5 5 5 5 5 5 5 5 5 5 5 5 5 5 5 5 5 5 5 5 5 5 5 5 5 5 5 5 5 
POINT_DATA 31
VECTORS displacement_ITER1 FLOAT
 1.046966e-02  -1.915794e-01  0 
 1.047636e-02  -1.793161e-01  0 
 1.047345e-02  -1.854392e-01  0 
 3.468699e-02  -1.793588e-01  0 
 1.657848e-02  -1.915592e-01  0 
 2.266080e-02  -1.915291e-01  0 
 1.046490e-02  -2.341699e-01  0 
 1.046649e-02  -2.767589e-01  0 
 2.333838e-02  -1.780770e-01  0 
 2.674431e-02  -1.869518e-01  0 
 1.856461e-02  -1.869937e-01  0 
 2.265983e-02  -1.860433e-01  0 
 3.003620e-02  -1.832453e-01  0 
 1.523120e-02  -1.832772e-01  0 
 1.836823e-02  -1.772265e-01  0 
 2.790877e-02  -1.782394e-01  0 
 2.033216e-02  -1.821942e-01  0 
 2.504788e-02  -1.821134e-01  0 
 1.426745e-02  -1.877682e-01  0 
 -4.711282e-02  -2.781168e-01  0 
 -1.809720e-02  -3.212558e-01  0 
 -1.811108e-02  -2.334531e-01  0 
 1.054181e-02  -2.801977e-01  0 
 1.733740e-02  -2.411226e-01  0 
 1.684225e-02  -2.620719e-01  0 
 2.083728e-02  -2.185896e-01  0 
 3.609632e-02  -2.391024e-01  0 
 2.596175e-02  -2.525230e-01  0 
 2.632462e-02  -2.737321e-01  0 
 4.049019e-02  -2.722289e-01  0 
 1.604919e-02  -2.149660e-01  0 
VECTORS displacement_ITER2 FLOAT
 2.653311e-02  -1.667811e-01  0 
 2.650573e-02  -1.544301e-01  0 
 2.651396e-02  -1.605933e-01  0 
 5.096663e-02  -1.544169e-01  0 
 3.264493e-02  -1.667386e-01  0 
 3.875961e-02  -1.667218e-01  0 
 2.656135e-02  -1.916319e-01  0 
 2.656703e-02  -2.164348e-01  0 
 3.944952e-02  -1.531681e-01  0 
 4.288165e-02  -1.621287e-01  0 
 3.464031e-02  -1.621598e-01  0 
 3.875979e-02  -1.612039e-01  0 
 4.622158e-02  -1.583844e-01  0 
 3.129607e-02  -1.584247e-01  0 
 3.445016e-02  -1.523282e-01  0 
 4.406771e-02  -1.533065e-01  0 
 3.641919e-02  -1.573266e-01  0 
 4.116757e-02  -1.572384e-01  0 
 3.033397e-02  -1.629451e-01  0 
 -6.925884e-03  -2.172043e-01  0 
 9.956356e-03  -2.423130e-01  0 
 9.924712e-03  -1.912078e-01  0 
 3.301355e-02  -2.338867e-01  0 
 3.212599e-02  -1.984401e-01  0 
 3.518182e-02  -2.165912e-01  0 
 3.634592e-02  -1.842352e-01  0 
 5.382221e-02  -2.030558e-01  0 
 4.359065e-02  -2.126645e-01  0 
 4.748778e-02  -2.346030e-01  0 
 6.611838e-02  -2.393508e-01  0 
 3.092836e-02  -1.812180e-01  0 
VECTORS displacement_ITER3 FLOAT
 -4.693772e-03  -1.208061e-01  0 
 -4.778831e-03  -9.357657e-02  0 
 -4.751375e-03  -1.071739e-01  0 
 4.959394e-02  -9.345374e-02  0 
 8.790873e-03  -1.207302e-01  0 
 2.232800e-02  -1.207329e-01  0 
 -4.610054e-03  -1.227442e-01  0 
 -4.597355e-03  -1.245550e-01  0 
 2.388446e-02  -9.071478e-02  0 
 3.150893e-02  -1.105983e-01  0 
 1.320242e-02  -1.106357e-01  0 
 2.233592e-02  -1.085272e-01  0 
 3.896458e-02  -1.023030e-01  0 
 5.810001e-03  -1.023878e-01  0 
 1.280179e-02  -8.889058e-02  0 
 3.415796e-02  -9.098387e-02  0 
 1.714999e-02  -9.994368e-02  0 
 2.768940e-02  -9.973740e-02  0 
 3.686183e-03  -1.123647e-01  0 
 -6.950947e-03  -1.245616e-01  0 
 -5.756085e-03  -1.263576e-01  0 
 -5.814530e-03  -1.226954e-01  0 
 1.221474e-02  -1.589086e-01  0 
 3.746070e-03  -1.303206e-01  0 
 1.051443e-02  -1.428236e-01  0 
 1.254182e-02  -1.275070e-01  0 
 2.956388e-02  -1.377016e-01  0 
 1.915493e-02  -1.444622e-01  0 
 2.489825e-02  -1.645976e-01  0 
 4.547369e-02  -1.709970e-01  0 
 2.107982e-03  -1.245573e-01  0 
VECTORS displacement_ITER4 FLOAT
 -1.060402e-02  -1.089502e-01  0 
 -1.070178e-02  -8.108822e-02  0 
 -1.067118e-02  -9.500048e-02  0 
 4.495911e-02  -8.093568e-02  0 
 3.176921e-03  -1.088620e-01  0 
 1.702036e-02  -1.088683e-01  0 
 -1.050315e-02  -1.053900e-01  0 
 -1.048607e-02  -1.016865e-01  0 
 1.861695e-02  -7.815460e-02  0 
 2.641753e-02  -9.850750e-02  0 
 7.688487e-03  -9.854122e-02  0 
 1.702965e-02  -9.638420e-02  0 
 3.405542e-02  -9.001604e-02  0 
 1.312682e-04  -9.010554e-02  0 
 7.282241e-03  -7.629514e-02  0 
 2.913345e-02  -7.841842e-02  0 
 1.172642e-02  -8.760191e-02  0 
 2.250760e-02  -8.738789e-02  0 
 -2.038922e-03  -1.003130e-01  0 
 -5.376413e-03  -1.015182e-01  0 
 -7.944681e-03  -9.773177e-02  0 
 -8.004586e-03  -1.054296e-01  0 
 5.403073e-03  -1.324361e-01  0 
 -2.401106e-03  -1.115595e-01  0 
 3.506972e-03  -1.197785e-01  0 
 6.452172e-03  -1.117513e-01  0 
 1.938661e-02  -1.159520e-01  0 
 1.078759e-02  -1.215636e-01  0 
 1.515633e-02  -1.371517e-01  0 
 3.214133e-02  -1.404941e-01  0 
 -3.853062e-03  -1.095706e-01  0 
VECTORS displacement_ITER5 FLOAT
 2.122639e-03  -7.025820e-02  0 
 2.041512e-03  -5.541600e-02  0 
 2.063844e-03  -6.281977e-02  0 
 3.158412e-02  -5.528825e-02  0 
 9.400318e-03  -7.016940e-02  0 
 1.672343e-02  -7.016940e-02  0 
 2.220364e-03  -7.401003e-02  0 
 2.243873e-03  -7.764704e-02  0 
 1.756772e-02  -5.387270e-02  0 
 2.169630e-02  -6.468581e-02  0 
 1.178897e-02  -6.469912e-02  0 
 1.672707e-02  -6.355329e-02  0 
 2.575533e-02  -6.016785e-02  0 
 7.794890e-03  -6.022353e-02  0 
 1.157504e-02  -5.289386e-02  0 
 2.314485e-02  -5.398985e-02  0 
 1.392299e-02  -5.889184e-02  0 
 1.962449e-02  -5.877414e-02  0 
 6.651060e-03  -6.565241e-02  0 
 -2.599281e-03  -7.774313e-02  0 
 -1.604835e-04  -8.142236e-02  0 
 -2.022656e-04  -7.392426e-02  0 
 6.406271e-03  -8.355845e-02  0 
 6.960347e-03  -7.561730e-02  0 
 7.453956e-03  -7.849522e-02  0 
 1.162990e-02  -7.269849e-02  0 
 1.602987e-02  -7.055244e-02  0 
 1.151584e-02  -7.556863e-02  0 
 1.119426e-02  -8.213520e-02  0 
 1.979751e-02  -7.699339e-02  0 
 6.388821e-03  -7.263466e-02  0 
VECTORS displacement_ITER6 FLOAT
 4.633100e-03  -4.565027e-02  0 
 4.554017e-03  -3.313744e-02  0 
 4.575792e-03  -3.937987e-02  0 
 2.945041e-02  -3.301344e-02  0 
 1.075290e-02  -4.557169e-02  0 
 1.691505e-02  -4.557214e-02  0 
 4.732051e-03  -5.408007e-02  0 
 4.761547e-03  -6.241225e-02  0 
 1.762642e-02  -3.183939e-02  0 
 2.110228e-02  -4.095528e-02  0 
 1.276270e-02  -4.096486e-02  0 
 1.691809e-02  -3.999937e-02  0 
 2.452410e-02  -3.714545e-02  0 
 9.401647e-03  -3.719365e-02  0 
 1.258228e-02  -3.101740e-02  0 
 2.232552e-02  -3.193158e-02  0 
 1.455804e-02  -3.607112e-02  0 
 1.935731e-02  -3.597074e-02  0 
 8.440490e-03  -4.176970e-02  0 
 -6.452650e-03  -6.267479e-02  0 
 -8.073631e-04  -7.113108e-02  0 
 -8.392602e-04  -5.391197e-02  0 
 3.133024e-03  -5.314018e-02  0 
 9.284578e-03  -5.351119e-02  0 
 6.418983e-03  -5.262965e-02  0 
 1.258260e-02  -4.914745e-02  0 
 1.037650e-02  -4.175272e-02  0 
 8.824505e-03  -4.663440e-02  0 
 5.058771e-03  -4.648742e-02  0 
 6.265036e-03  -3.509961e-02  0 
 8.888227e-03  -4.970135e-02  0 
VECTORS displacement_ITER7 FLOAT
 5.611446e-03  -2.386102e-02  0 
 5.530019e-03  -1.691660e-02  0 
 5.553009e-03  -2.037646e-02  0 
 1.926754e-02  -1.680803e-02  0 
 8.945584e-03  -2.378546e-02  0 
 1.232206e-02  -2.378742e-02  0 
 5.710384e-03  -3.468129e-02  0 
 5.743469e-03  -4.541515e-02  0 
 1.270816e-02  -1.621531e-02  0 
 1.461685e-02  -2.125547e-02  0 
 1.004671e-02  -2.125386e-02  0 
 1.232066e-02  -2.072191e-02  0 
 1.650989e-02  -1.914374e-02  0 
 8.208677e-03  -1.917582e-02  0 
 9.946771e-03  -1.577022e-02  0 
 1.529743e-02  -1.624468e-02  0 
 1.102738e-02  -1.855450e-02  0 
 1.365626e-02  -1.849588e-02  0 
 7.688141e-03  -2.170800e-02  0 
 -8.726576e-03  -4.576049e-02  0 
 -1.440433e-03  -5.666011e-02  0 
 -1.470075e-03  -3.447086e-02  0 
 3.083100e-03  -3.383844e-02  0 
 9.058198e-03  -3.331968e-02  0 
 6.281578e-03  -3.358452e-02  0 
 1.092471e-02  -2.761748e-02  0 
 1.118182e-02  -2.374630e-02  0 
 9.016521e-03  -2.757559e-02  0 
 6.457301e-03  -2.886858e-02  0 
 1.154730e-02  -2.019491e-02  0 
 8.730564e-03  -2.853166e-02  0 
VECTORS displacement_ITER8 FLOAT
 7.139759e-03  -2.093752e-02  0 
 7.064211e-03  -1.985841e-02  0 
 7.084623e-03  -2.038261e-02  0 
 9.036069e-03  -1.976182e-02  0 
 7.541655e-03  -2.085661e-02  0 
 7.981441e-03  -2.085892e-02  0 
 7.236921e-03  -3.015470e-02  0 
 7.267223e-03  -3.927711e-02  0 
 8.027487e-03  -1.978236e-02  0 
 8.282526e-03  -2.052533e-02  0 
 7.685954e-03  -2.051281e-02  0 
 7.976558e-03  -2.043730e-02  0 
 8.565207e-03  -2.020266e-02  0 
 7.454091e-03  -2.022001e-02  0 
 7.672818e-03  -1.973535e-02  0 
 8.392643e-03  -1.974483e-02  0 
 7.808720e-03  -2.012657e-02  0 
 8.149602e-03  -2.011120e-02  0 
 7.397395e-03  -2.059821e-02  0 
 -5.011260e-03  -3.956645e-02  0 
 1.173121e-03  -4.882606e-02  0 
 1.137702e-03  -2.997415e-02  0 
 5.583466e-03  -3.289972e-02  0 
 8.664951e-03  -2.895687e-02  0 
 7.415198e-03  -3.128962e-02  0 
 9.357783e-03  -2.352393e-02  0 
 1.374558e-02  -2.468125e-02  0 
 1.041419e-02  -2.719486e-02  0 
 1.048429e-02  -3.205718e-02  0 
 2.085352e-02  -2.911498e-02  0 
 8.519250e-03  -2.458523e-02  0 
VECTORS displacement_ITER9 FLOAT
 3.077137e-03  -1.888722e-02  0 
 2.993572e-03  -1.513934e-02  0 
 3.016554e-03  -1.699283e-02  0 
 1.030669e-02  -1.502965e-02  0 
 4.798511e-03  -1.879248e-02  0 
 6.565934e-03  -1.879743e-02  0 
 3.177032e-03  -2.092585e-02  0 
 3.200173e-03  -2.283910e-02  0 
 6.768559e-03  -1.477709e-02  0 
 7.772904e-03  -1.747144e-02  0 
 5.375840e-03  -1.746216e-02  0 
 6.563379e-03  -1.717958e-02  0 
 8.791625e-03  -1.633421e-02  0 
 4.420680e-03  -1.636244e-02  0 
 5.325928e-03  -1.455435e-02  0 
 8.144087e-03  -1.476411e-02  0 
 5.887062e-03  -1.602777e-02  0 
 7.263856e-03  -1.599041e-02  0 
 4.156415e-03  -1.771769e-02  0 
 6.981170e-04  -2.288223e-02  0 
 1.959944e-03  -2.481617e-02  0 
 1.912229e-03  -2.087099e-02  0 
 5.693510e-03  -2.807398e-02  0 
 4.499995e-03  -2.128618e-02  0 
 5.630263e-03  -2.440092e-02  0 
 6.327836e-03  -1.915205e-02  0 
 1.338419e-02  -2.222012e-02  0 
 9.037929e-03  -2.364095e-02  0 
 1.149739e-02  -3.128162e-02  0 
 2.484104e-02  -3.372763e-02  0 
 4.333380e-03  -1.965408e-02  0 
VECTORS displacement_ITER10 FLOAT
 -5.085777e-03  -1.550183e-02  0 
 -5.177676e-03  -9.911578e-03  0 
 -5.152320e-03  -1.268329e-02  0 
 5.807221e-03  -9.796812e-03  0 
 -2.457789e-03  -1.539624e-02  0 
 2.221379e-04  -1.540145e-02  0 
 -4.987434e-03  -1.416927e-02  0 
 -4.969162e-03  -1.269963e-02  0 
 5.334573e-04  -9.354690e-03  0 
 2.052749e-03  -1.339127e-02  0 
 -1.582225e-03  -1.338615e-02  0 
 2.219802e-04  -1.295995e-02  0 
 3.577291e-03  -1.169280e-02  0 
 -3.034801e-03  -1.173050e-02  0 
 -1.657110e-03  -9.010430e-03  0 
 2.602968e-03  -9.359053e-03  0 
 -8.035484e-04  -1.122930e-02  0 
 1.285319e-03  -1.117624e-02  0 
 -3.441918e-03  -1.375995e-02  0 
 -2.884004e-03  -1.262821e-02  0 
 -3.932908e-03  -1.112422e-02  0 
 -3.984133e-03  -1.417450e-02  0 
 -1.403157e-03  -2.142421e-02  0 
 -3.637900e-03  -1.505739e-02  0 
 -1.983663e-03  -1.757845e-02  0 
 -1.230213e-03  -1.462591e-02  0 
 5.476973e-03  -1.697397e-02  0 
 1.236726e-03  -1.798927e-02  0 
 4.000736e-03  -2.547054e-02  0 
 1.678882e-02  -2.903735e-02  0 
 -3.751973e-03  -1.492684e-02  0 
VECTORS displacement_ITER11 FLOAT
 1.157081e-03  -1.489143e-02  0 
 1.069483e-03  -1.154330e-02  0 
 1.092454e-03  -1.319226e-02  0 
 7.564933e-03  -1.142928e-02  0 
 2.667209e-03  -1.478690e-02  0 
 4.225071e-03  -1.479164e-02  0 
 1.252201e-03  -1.443513e-02  0 
 1.269014e-03  -1.384141e-02  0 
 4.412771e-03  -1.121898e-02  0 
 5.299537e-03  -1.361660e-02  0 
 3.177829e-03  -1.361099e-02  0 
 4.226486e-03  -1.335707e-02  0 
 6.210844e-03  -1.259861e-02  0 
 2.337543e-03  -1.263561e-02  0 
 3.138163e-03  -1.102739e-02  0 
 5.634376e-03  -1.119844e-02  0 
 3.631009e-03  -1.233459e-02  0 
 4.849022e-03  -1.229620e-02  0 
 2.107052e-03  -1.384314e-02  0 
 2.169826e-03  -1.380071e-02  0 
 1.717856e-03  -1.318380e-02  0 
 1.666656e-03  -1.442768e-02  0 
 1.505861e-03  -1.628358e-02  0 
 1.789373e-03  -1.447821e-02  0 
 1.781820e-03  -1.474084e-02  0 
 3.195529e-03  -1.408417e-02  0 
 5.351263e-03  -1.334250e-02  0 
 3.369613e-03  -1.418808e-02  0 
 4.309156e-03  -1.768090e-02  0 
 1.107073e-02  -1.845400e-02  0 
 1.925865e-03  -1.459480e-02  0 
VECTORS displacement_ITER12 FLOAT
 -2.325886e-03  -9.439301e-03  0 
 -2.423605e-03  -5.218544e-03  0 
 -2.397103e-03  -7.305772e-03  0 
 5.833675e-03  -5.099514e-03  0 
 -3.857972e-04  -9.339289e-03  0 
 1.608392e-03  -9.345912e-03  0 
 -2.229567e-03  -1.105501e-02  0 
 -2.209298e-03  -1.254147e-02  0 
 1.849375e-03  -4.798728e-03  0 
 2.982747e-03  -7.840958e-03  0 
 2.665891e-04  -7.838105e-03  0 
 1.611377e-03  -7.515073e-03  0 
 4.136863e-03  -6.552928e-03  0 
 -8.125535e-04  -6.596095e-03  0 
 2.150622e-04  -4.549350e-03  0 
 3.404338e-03  -4.786598e-03  0 
 8.483104e-04  -6.214723e-03  0 
 2.408674e-03  -6.168280e-03  0 
 -1.110878e-03  -8.125234e-03  0 
 -4.130921e-03  -1.257062e-02  0 
 -3.159981e-03  -1.406834e-02  0 
 -3.210335e-03  -1.101009e-02  0 
 -4.030094e-03  -9.890297e-03  0 
 -1.344387e-03  -1.068018e-02  0 
 -2.706611e-03  -9.642111e-03  0 
 -2.172332e-06  -9.603188e-03  0 
 -7.699446e-04  -6.350346e-03  0 
 -1.675992e-03  -7.739283e-03  0 
 -2.446944e-03  -8.656755e-03  0 
 5.595791e-04  -6.260996e-03  0 
 -1.164936e-03  -1.015620e-02  0 
VECTORS displacement_ITER13 FLOAT
 -4.408640e-03  -9.208536e-03  0 
 -4.516384e-03  -5.765551e-03  0 
 -4.486123e-03  -7.466322e-03  0 
 2.224488e-03  -5.638692e-03  0 
 -2.860581e-03  -9.116783e-03  0 
 -1.250120e-03  -9.128890e-03  0 
 -4.306663e-03  -1.127067e-02  0 
 -4.281122e-03  -1.320549e-02  0 
 -1.052032e-03  -5.421994e-03  0 
 -1.328773e-04  -7.910635e-03  0 
 -2.334831e-03  -7.903998e-03  0 
 -1.247623e-03  -7.641065e-03  0 
 8.162606e-04  -6.852623e-03  0 
 -3.203907e-03  -6.895280e-03  0 
 -2.374100e-03  -5.227299e-03  0 
 2.173047e-04  -5.397982e-03  0 
 -1.864575e-03  -6.581383e-03  0 
 -6.002343e-04  -6.539540e-03  0 
 -3.439845e-03  -8.141203e-03  0 
 -6.813919e-03  -1.324749e-02  0 
 -5.531073e-03  -1.520446e-02  0 
 -5.587053e-03  -1.121427e-02  0 
 -6.746683e-03  -1.036883e-02  0 
 -3.761440e-03  -1.090548e-02  0 
 -5.300561e-03  -1.001833e-02  0 
 -2.560890e-03  -9.487999e-03  0 
 -3.316115e-03  -6.317308e-03  0 
 -4.329453e-03  -7.948462e-03  0 
 -5.294234e-03  -9.016485e-03  0 
 -2.330043e-03  -6.305237e-03  0 
 -3.473654e-03  -1.013037e-02  0 
VECTORS displacement_ITER14 FLOAT
 -4.923153e-03  -7.135969e-03  0 
 -5.034254e-03  -2.585342e-03  0 
 -5.002556e-03  -4.840835e-03  0 
 3.937557e-03  -2.454934e-03  0 
 -2.822707e-03  -7.045605e-03  0 
 -6.567861e-04  -7.059677e-03  0 
 -4.819110e-03  -8.336334e-03  0 
 -4.792569e-03  -9.408991e-03  0 
 -3.954173e-04  -2.123547e-03  0 
 8.371860e-04  -5.427261e-03  0 
 -2.116547e-03  -5.420381e-03  0 
 -6.543577e-04  -5.072018e-03  0 
 2.092390e-03  -4.030593e-03  0 
 -3.288913e-03  -4.074311e-03  0 
 -2.172269e-03  -1.854054e-03  0 
 1.295766e-03  -2.111055e-03  0 
 -1.484385e-03  -3.660665e-03  0 
 2.126545e-04  -3.611051e-03  0 
 -3.611995e-03  -5.726980e-03  0 
 -6.159016e-03  -9.421124e-03  0 
 -5.462910e-03  -1.050400e-02  0 
 -5.520561e-03  -8.293215e-03  0 
 -6.163304e-03  -9.014398e-03  0 
 -4.015239e-03  -8.311038e-03  0 
 -5.019424e-03  -7.949540e-03  0 
 -2.362292e-03  -7.155836e-03  0 
 -1.897231e-03  -4.568424e-03  0 
 -3.587512e-03  -6.284589e-03  0 
 -4.105211e-03  -8.445104e-03  0 
 4.309344e-04  -6.355116e-03  0 
 -3.777625e-03  -7.732907e-03  0 
VECTORS displacement_ITER15 FLOAT
 -2.156513e-03  -7.105519e-03  0 
 -2.265521e-03  -4.208287e-03  0 
 -2.234441e-03  -5.637526e-03  0 
 3.395896e-03  -4.083063e-03  0 
 -8.805654e-04  -7.015356e-03  0 
 4.589959e-04  -7.029939e-03  0 
 -2.052477e-03  -7.037669e-03  0 
 -2.025826e-03  -6.844931e-03  0 
 6.240914e-04  -3.923754e-03  0 
 1.391065e-03  -6.017833e-03  0 
 -4.437643e-04  -6.006554e-03  0 
 4.601684e-04  -5.787404e-03  0 
 2.192462e-03  -5.126451e-03  0 
 -1.164333e-03  -5.163138e-03  0 
 -4.751905e-04  -3.765301e-03  0 
 1.689138e-03  -3.893110e-03  0 
 -5.312185e-05  -4.898657e-03  0 
 9.996100e-04  -4.862252e-03  0 
 -1.357136e-03  -6.208687e-03  0 
 -1.679626e-03  -6.815599e-03  0 
 -1.846440e-03  -6.615325e-03  0 
 -1.903623e-03  -7.015384e-03  0 
 -2.585997e-03  -9.107824e-03  0 
 -1.821293e-03  -7.071923e-03  0 
 -2.088523e-03  -7.448640e-03  0 
 -3.840039e-04  -6.253139e-03  0 
 1.923224e-03  -5.247736e-03  0 
 -4.146054e-04  -6.549238e-03  0 
 2.204768e-05  -1.019068e-02  0 
 6.943550e-03  -9.768716e-03  0 
 -1.535221e-03  -6.962433e-03  0 
VECTORS displacement_ITER16 FLOAT
 2.170441e-04  -6.058595e-03  0 
 1.107713e-04  -4.778224e-03  0 
 1.409383e-04  -5.399171e-03  0 
 2.507847e-03  -4.667029e-03  0 
 6.857738e-04  -5.967391e-03  0 
 1.213529e-03  -5.978590e-03  0 
 3.203338e-04  -6.994102e-03  0 
 3.477479e-04  -7.811281e-03  0 
 1.285245e-03  -4.671416e-03  0 
 1.593433e-03  -5.572735e-03  0 
 8.591120e-04  -5.561498e-03  0 
 1.214700e-03  -5.467590e-03  0 
 1.945154e-03  -5.179095e-03  0 
 5.813579e-04  -5.210729e-03  0 
 8.511171e-04  -4.619865e-03  0 
 1.732090e-03  -4.626317e-03  0 
 1.012987e-03  -5.092905e-03  0 
 1.432332e-03  -5.069332e-03  0 
 5.158303e-04  -5.662040e-03  0 
 -6.752849e-04  -7.818384e-03  0 
 -1.537279e-04  -8.643234e-03  0 
 -2.070954e-04  -6.954157e-03  0 
 -1.262903e-03  -7.878239e-03  0 
 1.708743e-04  -6.715680e-03  0 
 -5.275684e-04  -6.815111e-03  0 
 1.023405e-03  -5.541476e-03  0 
 2.379031e-03  -4.422526e-03  0 
 6.884957e-04  -5.583138e-03  0 
 7.520784e-04  -8.279876e-03  0 
 6.143672e-03  -7.338526e-03  0 
 5.025592e-04  -6.297192e-03  0 
VECTORS displacement_ITER17 FLOAT
 4.207769e-04  -7.374154e-03  0 
 3.165350e-04  -5.601599e-03  0 
 3.462484e-04  -6.468829e-03  0 
 3.680139e-03  -5.499649e-03  0 
 1.135764e-03  -7.281122e-03  0 
 1.907852e-03  -7.290145e-03  0 
 5.248070e-04  -8.024051e-03  0 
 5.523966e-04  -8.554156e-03  0 
 2.007537e-03  -5.446505e-03  0 
 2.452548e-03  -6.701303e-03  0 
 1.389524e-03  -6.692343e-03  0 
 1.909677e-03  -6.560157e-03  0 
 2.934864e-03  -6.161529e-03  0 
 9.781135e-04  -6.193079e-03  0 
 1.374075e-03  -5.359901e-03  0 
 2.636384e-03  -5.410048e-03  0 
 1.614791e-03  -6.031915e-03  0 
 2.223282e-03  -6.005497e-03  0 
 8.732499e-04  -6.824214e-03  0 
 -8.192300e-05  -8.551215e-03  0 
 2.442307e-04  -9.083918e-03  0 
 1.898679e-04  -7.988646e-03  0 
 -1.039625e-03  -8.807687e-03  0 
 4.312829e-04  -7.950216e-03  0 
 -2.976586e-04  -7.844496e-03  0 
 1.312449e-03  -7.062084e-03  0 
 1.909930e-03  -5.639265e-03  0 
 6.263927e-04  -6.789147e-03  0 
 4.774371e-04  -8.855666e-03  0 
 4.315964e-03  -7.857708e-03  0 
 7.510538e-04  -7.629847e-03  0 
VECTORS displacement_ITER18 FLOAT
 3.091390e-04  -6.881964e-03  0 
 2.062942e-04  -5.414178e-03  0 
 2.356654e-04  -6.129773e-03  0 
 2.951146e-03  -5.319515e-03  0 
 8.732861e-04  -6.789828e-03  0 
 1.493019e-03  -6.798090e-03  0 
 4.116352e-04  -7.716009e-03  0 
 4.389627e-04  -8.433919e-03  0 
 1.574921e-03  -5.293400e-03  0 
 1.933512e-03  -6.322845e-03  0 
 1.077675e-03  -6.314124e-03  0 
 1.494888e-03  -6.205502e-03  0 
 2.329844e-03  -5.877696e-03  0 
 7.493045e-04  -5.907453e-03  0 
 1.066721e-03  -5.225921e-03  0 
 2.086316e-03  -5.255872e-03  0 
 1.258624e-03  -5.774012e-03  0 
 1.747774e-03  -5.750482e-03  0 
 6.679859e-04  -6.426672e-03  0 
 -4.508686e-04  -8.438062e-03  0 
 3.398676e-06  -9.161019e-03  0 
 -4.904768e-05  -7.677532e-03  0 
 -1.080618e-03  -8.476244e-03  0 
 2.996117e-04  -7.664576e-03  0 
 -3.775189e-04  -7.616706e-03  0 
 1.010320e-03  -6.796516e-03  0 
 1.489041e-03  -5.732791e-03  0 
 4.215060e-04  -6.687367e-03  0 
 3.484996e-04  -8.512287e-03  0 
 3.672379e-03  -7.887954e-03  0 
 5.761704e-04  -7.253196e-03  0 
VECTORS displacement_ITER19 FLOAT
 -5.144627e-04  -6.013399e-03  0 
 -6.178000e-04  -4.750917e-03  0 
 -5.882951e-04  -5.364452e-03  0 
 1.718760e-03  -4.658378e-03  0 
 -5.246811e-05  -5.922617e-03  0 
 4.661253e-04  -5.931318e-03  0 
 -4.140720e-04  -6.405082e-03  0 
 -3.879723e-04  -6.683182e-03  0 
 5.367033e-04  -4.650549e-03  0 
 8.380994e-04  -5.531640e-03  0 
 1.189526e-04  -5.522735e-03  0 
 4.680875e-04  -5.429685e-03  0 
 1.178355e-03  -5.148601e-03  0 
 -1.539241e-04  -5.178050e-03  0 
 1.118310e-04  -4.596515e-03  0 
 9.706661e-04  -4.611574e-03  0 
 2.708144e-04  -5.062253e-03  0 
 6.809687e-04  -5.040265e-03  0 
 -2.193399e-04  -5.622443e-03  0 
 -6.828139e-04  -6.674476e-03  0 
 -5.298625e-04  -6.949844e-03  0 
 -5.794039e-04  -6.374634e-03  0 
 -1.702148e-03  -7.561876e-03  0 
 -6.654787e-04  -6.490880e-03  0 
 -1.159416e-03  -6.575350e-03  0 
 1.112262e-05  -5.826069e-03  0 
 6.982136e-04  -5.122517e-03  0 
 -4.091416e-04  -5.959627e-03  0 
 -3.038041e-04  -7.936740e-03  0 
 3.039597e-03  -7.870053e-03  0 
 -3.732149e-04  -6.221913e-03  0 
VECTORS displacement_ITER20 FLOAT
 -2.658401e-05  -5.877679e-03  0 
 -1.286834e-04  -5.128994e-03  0 
 -9.965406e-05  -5.486256e-03  0 
 1.185726e-03  -5.038520e-03  0 
 1.817156e-04  -5.790013e-03  0 
 4.460222e-04  -5.799800e-03  0 
 7.140451e-05  -6.601166e-03  0 
 9.731535e-05  -7.216367e-03  0 
 4.875485e-04  -5.080511e-03  0 
 6.455536e-04  -5.589762e-03  0 
 2.699246e-04  -5.579836e-03  0 
 4.478065e-04  -5.526336e-03  0 
 8.459274e-04  -5.361595e-03  0 
 1.358607e-04  -5.389902e-03  0 
 2.710804e-04  -5.060643e-03  0 
 7.283557e-04  -5.036793e-03  0 
 3.480147e-04  -5.319452e-03  0 
 5.602463e-04  -5.301331e-03  0 
 1.104289e-04  -5.646618e-03  0 
 -6.563944e-04  -7.220414e-03  0 
 -2.735187e-04  -7.838551e-03  0 
 -3.200186e-04  -6.565259e-03  0 
 -1.255748e-03  -7.620264e-03  0 
 -2.315051e-04  -6.592680e-03  0 
 -7.227147e-04  -6.759470e-03  0 
 2.706668e-04  -5.791290e-03  0 
 1.047089e-03  -5.363658e-03  0 
 -7.949733e-06  -6.107409e-03  0 
 1.151960e-04  -7.979957e-03  0 
 3.398128e-03  -7.950795e-03  0 
 3.680877e-05  -6.193117e-03  0 
VECTORS displacement_ITER21 FLOAT
 -6.594076e-04  -5.517468e-03  0 
 -7.643972e-04  -4.623463e-03  0 
 -7.343122e-04  -5.053719e-03  0 
 8.472647e-04  -4.533605e-03  0 
 -3.796302e-04  -5.431702e-03  0 
 -4.159703e-05  -5.443180e-03  0 
 -5.608747e-04  -6.214915e-03  0 
 -5.343271e-04  -6.804246e-03  0 
 9.042060e-06  -4.557744e-03  0 
 2.088245e-04  -5.177167e-03  0 
 -2.677995e-04  -5.167134e-03  0 
 -3.960253e-05  -5.102075e-03  0 
 4.505945e-04  -4.902813e-03  0 
 -4.421105e-04  -4.932166e-03  0 
 -2.680992e-04  -4.528107e-03  0 
 3.061119e-04  -4.515808e-03  0 
 -1.677165e-04  -4.847792e-03  0 
 1.025177e-04  -4.828335e-03  0 
 -4.786854e-04  -5.242774e-03  0 
 -1.254168e-03  -6.807844e-03  0 
 -8.883288e-04  -7.399273e-03  0 
 -9.349240e-04  -6.178906e-03  0 
 -1.573821e-03  -7.951816e-03  0 
 -8.235189e-04  -6.394238e-03  0 
 -1.133826e-03  -6.834484e-03  0 
 -2.922739e-04  -5.620952e-03  0 
 7.229818e-04  -5.639547e-03  0 
 -3.847206e-04  -6.372795e-03  0 
 -1.060421e-04  -8.475416e-03  0 
 3.154071e-03  -8.857967e-03  0 
 -5.869710e-04  -5.900851e-03  0 
VECTORS displacement_ITER22 FLOAT
 3.222676e-04  -5.680436e-03  0 
 2.186248e-04  -4.583008e-03  0 
 2.480918e-04  -5.115348e-03  0 
 2.237278e-03  -4.497950e-03  0 
 7.060026e-04  -5.596726e-03  0 
 1.146722e-03  -5.608965e-03  0 
 4.188138e-04  -6.780608e-03  0 
 4.453961e-04  -7.778453e-03  0 
 1.210097e-03  -4.494186e-03  0 
 1.467634e-03  -5.264911e-03  0 
 8.511897e-04  -5.255306e-03  0 
 1.149288e-03  -5.174100e-03  0 
 1.765292e-03  -4.927591e-03  0 
 6.203346e-04  -4.957278e-03  0 
 8.486494e-04  -4.449826e-03  0 
 1.584082e-03  -4.456400e-03  0 
 9.819152e-04  -4.854193e-03  0 
 1.332489e-03  -4.833385e-03  0 
 5.672308e-04  -5.343110e-03  0 
 -8.308998e-04  -7.797375e-03  0 
 -1.858809e-04  -8.804692e-03  0 
 -2.292735e-04  -6.737697e-03  0 
 -1.148380e-03  -6.797027e-03  0 
 3.163048e-04  -6.714902e-03  0 
 -4.345430e-04  -6.457262e-03  0 
 7.199841e-04  -5.958493e-03  0 
 3.506240e-04  -4.866220e-03  0 
 -7.551837e-05  -5.606294e-03  0 
 -4.909273e-04  -6.237844e-03  0 
 6.643019e-04  -5.286582e-03  0 
 5.215956e-04  -6.230677e-03  0 
VECTORS displacement_ITER23 FLOAT
 2.072563e-04  -5.472243e-03  0 
 1.078220e-04  -4.523178e-03  0 
 1.355368e-04  -4.980974e-03  0 
 1.818675e-03  -4.444946e-03  0 
 5.191796e-04  -5.387403e-03  0 
 8.851786e-04  -5.399743e-03  0 
 3.009346e-04  -5.780231e-03  0 
 3.255301e-04  -5.986250e-03  0 
 9.393445e-04  -4.451180e-03  0 
 1.154135e-03  -5.112143e-03  0 
 6.401818e-04  -5.101371e-03  0 
 8.874983e-04  -5.032198e-03  0 
 1.409350e-03  -4.821162e-03  0 
 4.502542e-04  -4.848488e-03  0 
 6.403275e-04  -4.415517e-03  0 
 1.254823e-03  -4.413608e-03  0 
 7.491625e-04  -4.759286e-03  0 
 1.040467e-03  -4.740503e-03  0 
 4.083025e-04  -5.179543e-03  0 
 1.225124e-04  -5.978634e-03  0 
 2.266598e-04  -6.179479e-03  0 
 1.837331e-04  -5.752000e-03  0 
 -4.085124e-04  -7.323948e-03  0 
 8.547057e-05  -6.021781e-03  0 
 -1.013871e-04  -6.369804e-03  0 
 5.488695e-04  -5.541349e-03  0 
 1.218061e-03  -5.492859e-03  0 
 4.234080e-04  -6.104022e-03  0 
 5.691185e-04  -7.646419e-03  0 
 2.660627e-03  -7.799097e-03  0 
 2.699467e-04  -5.710687e-03  0 
VECTORS displacement_ITER24 FLOAT
 6.487426e-04  -4.900806e-03  0 
 5.525970e-04  -4.436815e-03  0 
 5.790504e-04  -4.652278e-03  0 
 1.284722e-03  -4.366012e-03  0 
 7.214104e-04  -4.817011e-03  0 
 8.452699e-04  -4.829067e-03  0 
 7.390077e-04  -5.559952e-03  0 
 7.624331e-04  -6.122781e-03  0 
 8.711114e-04  -4.417130e-03  0 
 9.489285e-04  -4.722518e-03  0 
 7.636032e-04  -4.710851e-03  0 
 8.473603e-04  -4.679440e-03  0 
 1.069291e-03  -4.580278e-03  0 
 7.056422e-04  -4.604850e-03  0 
 7.711182e-04  -4.412642e-03  0 
 1.001196e-03  -4.376440e-03  0 
 8.020672e-04  -4.559578e-03  0 
 9.040307e-04  -4.545189e-03  0 
 7.013323e-04  -4.757990e-03  0 
 7.522196e-05  -6.128526e-03  0 
 4.220621e-04  -6.690688e-03  0 
 3.825759e-04  -5.526559e-03  0 
 -1.881322e-04  -6.659832e-03  0 
 4.622924e-04  -5.669404e-03  0 
 1.699527e-04  -5.951500e-03  0 
 7.438863e-04  -5.053308e-03  0 
 1.190557e-03  -4.959284e-03  0 
 5.673437e-04  -5.549448e-03  0 
 5.379746e-04  -6.715346e-03  0 
 2.104891e-03  -6.493835e-03  0 
 6.388119e-04  -5.251189e-03  0 
VECTORS displacement_ITER25 FLOAT
 1.281599e-04  -4.825472e-03  0 
 3.188334e-05  -3.956391e-03  0 
 5.865846e-05  -4.374978e-03  0 
 1.575713e-03  -3.891024e-03  0 
 4.050984e-04  -4.743860e-03  0 
 7.330672e-04  -4.756805e-03  0 
 2.160570e-04  -5.557975e-03  0 
 2.389208e-04  -6.199042e-03  0 
 7.823029e-04  -3.893056e-03  0 
 9.749180e-04  -4.497233e-03  0 
 5.135323e-04  -4.485883e-03  0 
 7.353642e-04  -4.422904e-03  0 
 1.205957e-03  -4.231256e-03  0 
 3.437084e-04  -4.255715e-03  0 
 5.155149e-04  -3.859747e-03  0 
 1.065481e-03  -3.859075e-03  0 
 6.119697e-04  -4.173660e-03  0 
 8.726216e-04  -4.156856e-03  0 
 3.071376e-04  -4.557897e-03  0 
 -5.567048e-04  -6.208541e-03  0 
 -1.561433e-04  -6.850158e-03  0 
 -1.929167e-04  -5.523583e-03  0 
 -4.817296e-04  -6.193004e-03  0 
 1.834078e-04  -5.626669e-03  0 
 -1.145920e-04  -5.745347e-03  0 
 4.674443e-04  -5.105621e-03  0 
 5.531496e-04  -4.782132e-03  0 
 1.851382e-04  -5.301008e-03  0 
 -1.932152e-05  -5.893391e-03  0 
 7.053802e-04  -5.280018e-03  0 
 2.744534e-04  -5.220701e-03  0 
VECTORS displacement_ITER26 FLOAT
 3.077633e-04  -4.887734e-03  0 
 2.140088e-04  -3.875074e-03  0 
 2.400245e-04  -4.365681e-03  0 
 2.037840e-03  -3.816097e-03  0 
 6.590721e-04  -4.806440e-03  0 
 1.059382e-03  -4.819248e-03  0 
 3.928132e-04  -5.288042e-03  0 
 4.145591e-04  -5.600225e-03  0 
 1.116636e-03  -3.796693e-03  0 
 1.349096e-03  -4.505540e-03  0 
 7.911810e-04  -4.494385e-03  0 
 1.061754e-03  -4.420221e-03  0 
 1.617612e-03  -4.196660e-03  0 
 5.816691e-04  -4.220319e-03  0 
 7.917554e-04  -3.751924e-03  0 
 1.452107e-03  -3.766758e-03  0 
 9.111119e-04  -4.125236e-03  0 
 1.227008e-03  -4.108151e-03  0 
 5.331378e-04  -4.575155e-03  0 
 6.278108e-05  -5.599297e-03  0 
 2.389627e-04  -5.906579e-03  0 
 2.041736e-04  -5.259972e-03  0 
 3.955290e-04  -6.492494e-03  0 
 4.825019e-04  -5.476561e-03  0 
 5.226792e-04  -5.864564e-03  0 
 7.866291e-04  -5.143522e-03  0 
 1.313667e-03  -5.340565e-03  0 
 8.823666e-04  -5.714631e-03  0 
 9.509120e-04  -6.518687e-03  0 
 1.834063e-03  -6.380987e-03  0 
 4.899343e-04  -5.150560e-03  0 
VECTORS displacement_ITER27 FLOAT
 2.552583e-04  -4.038232e-03  0 
 1.647973e-04  -3.294234e-03  0 
 1.897971e-04  -3.651178e-03  0 
 1.443933e-03  -3.242334e-03  0 
 4.759801e-04  -3.958287e-03  0 
 7.430314e-04  -3.970623e-03  0 
 3.373501e-04  -4.655210e-03  0 
 3.581498e-04  -5.188662e-03  0 
 7.844426e-04  -3.244725e-03  0 
 9.408851e-04  -3.756596e-03  0 
 5.647849e-04  -3.745132e-03  0 
 7.452496e-04  -3.691755e-03  0 
 1.133641e-03  -3.530545e-03  0 
 4.278270e-04  -3.552222e-03  0 
 5.697949e-04  -3.216200e-03  0 
 1.016320e-03  -3.214412e-03  0 
 6.461030e-04  -3.481252e-03  0 
 8.570728e-04  -3.467002e-03  0 
 3.996118e-04  -3.808610e-03  0 
 -2.947269e-04  -5.196421e-03  0 
 3.188830e-05  -5.727827e-03  0 
 2.081201e-07  -4.624135e-03  0 