# vtk DataFile Version 3.1
this is an vtk file created by FEMAC
ASCII
DATASET UNSTRUCTURED_GRID
POINTS 30 FLOAT
3.000000 5.000000 0.000000
3.000000 6.000000 0.000000
2.750000 5.000000 0.000000
3.000000 5.250000 0.000000
3.000000 5.500000 0.000000
3.000000 5.750000 0.000000
3.250000 5.000000 0.000000
3.500000 5.000000 0.000000
3.250000 6.000000 0.000000
3.500000 6.000000 0.000000
2.779567 5.382160 0.000000
2.755439 5.624066 0.000000
2.782339 5.186810 0.000000
2.612481 5.213004 0.000000
3.226067 4.588218 0.000000
3.371004 4.799680 0.000000
3.169414 4.827579 0.000000
3.552553 5.528256 0.000000
3.186919 5.669072 0.000000
3.186347 5.331392 0.000000
3.225000 5.500000 0.000000
3.757141 5.565925 0.000000
3.339072 5.805846 0.000000
3.338405 5.194695 0.000000
3.586659 5.323754 0.000000
3.546713 5.717271 0.000000
3.383083 5.404183 0.000000
3.386514 5.598598 0.000000
3.155198 5.844984 0.000000
3.154950 5.155217 0.000000
CELLS 42 168 
3 10  3  4
3 12  2  0
3 3 12  0
3 10 12  3
3 2 12 13
3 11  4  5
3 11 10  4
3 12 10 13
3 7  6 15
3 16  6  0
3 6 16 15
3 16 14 15
3 4 18  5
3 19  4  3
3 20 18  4
3 19 20  4
3 19 26 20
3 27 18 20
3 23  6  7
3 8 22  9
3 27 22 18
3 23 26 19
3 27 26 17
3 20 26 27
3 23  7 24
3 17 26 24
3 23 24 26
3 9 22 25
3 27 17 25
3 25 22 27
3 5 28  1
3 28  8  1
3 28  5 18
3 29  3  0
3 6 29  0
3 3 29 19
3 28 22  8
3 18 22 28
3 23 29  6
3 23 19 29
3 17 24 21
3 25 17 21
CELL_TYPES 42
5 5 5 5 5 5 5 5 5 5 5 5 5 5 5 5 5 5 5 5 5 5 5 5 5 5 5 5 5 5 5 5 5 5 5 5 5 5 5 5 5 5 
POINT_DATA 30
VECTORS displacement_ITER1 FLOAT
 9.094927e-02  -1.620931e-01  0 
 1.843320e-01  -1.622057e-01  0 
 8.299060e-02  -1.292977e-01  0 
 1.143116e-01  -1.621301e-01  0 
 1.376579e-01  -1.621586e-01  0 
 1.609964e-01  -1.621880e-01  0 
 9.097635e-02  -1.854624e-01  0 
 9.100133e-02  -2.088101e-01  0 
 1.843562e-01  -1.855476e-01  0 
 1.843786e-01  -2.088908e-01  0 
 1.197383e-01  -1.421071e-01  0 
 1.397007e-01  -1.432346e-01  0 
 1.012909e-01  -1.385883e-01  0 
 9.544789e-02  -1.247742e-01  0 
 6.452736e-02  -1.666119e-01  0 
 8.229570e-02  -1.886047e-01  0 
 7.918672e-02  -1.746365e-01  0 
 1.403352e-01  -2.137643e-01  0 
 1.534572e-01  -1.796275e-01  0 
 1.219261e-01  -1.795447e-01  0 
 1.376726e-01  -1.831686e-01  0 
 1.438709e-01  -2.328852e-01  0 
 1.662373e-01  -1.938466e-01  0 
 1.091667e-01  -1.937393e-01  0 
 1.212313e-01  -2.169356e-01  0 
 1.579823e-01  -2.132324e-01  0 
 1.287345e-01  -1.979243e-01  0 
 1.468913e-01  -1.982616e-01  0 
 1.698749e-01  -1.766819e-01  0 
 1.054684e-01  -1.765974e-01  0 
VECTORS displacement_ITER2 FLOAT
 6.409607e-02  -7.798067e-02  0 
 9.840867e-02  -7.820072e-02  0 
 4.278835e-02  -4.361391e-02  0 
 7.274796e-02  -7.806478e-02  0 
 8.133323e-02  -7.812847e-02  0 
 8.986681e-02  -7.818051e-02  0 
 6.414828e-02  -8.664476e-02  0 
 6.418669e-02  -9.527272e-02  0 
 9.842402e-02  -8.673586e-02  0 
 9.844082e-02  -9.526539e-02  0 
 7.320869e-02  -6.772538e-02  0 
 7.886666e-02  -6.907433e-02  0 
 6.394158e-02  -6.335262e-02  0 
 5.712323e-02  -5.313313e-02  0 
 3.659477e-02  -7.299718e-02  0 
 5.444280e-02  -8.726316e-02  0 
 5.308957e-02  -7.827627e-02  0 
 8.232339e-02  -9.706694e-02  0 
 8.712613e-02  -8.455051e-02  0 
 7.556658e-02  -8.449589e-02  0 
 8.134701e-02  -8.583931e-02  0 
 8.361314e-02  -1.040742e-01  0 
 9.180434e-02  -8.976180e-02  0 
 7.087520e-02  -8.971830e-02  0 
 7.532024e-02  -9.824886e-02  0 
 8.878603e-02  -9.685751e-02  0 
 7.807255e-02  -9.125814e-02  0 
 8.472747e-02  -9.137769e-02  0 
 9.312473e-02  -8.348825e-02  0 
 6.949696e-02  -8.339018e-02  0 
VECTORS displacement_ITER3 FLOAT
 2.915681e-02  -2.525232e-02  0 
 5.086527e-02  -2.554594e-02  0 
 1.600193e-02  -2.425430e-02  0 
 3.470379e-02  -2.537527e-02  0 
 4.014180e-02  -2.545786e-02  0 
 4.551950e-02  -2.551205e-02  0 
 2.925636e-02  -3.078011e-02  0 
 2.932691e-02  -3.624882e-02  0 
 5.088159e-02  -3.088225e-02  0 
 5.089081e-02  -3.623068e-02  0 
 3.410468e-02  -2.474314e-02  0 
 3.589077e-02  -2.540863e-02  0 
 2.754726e-02  -2.608269e-02  0 
 2.528888e-02  -2.127740e-02  0 
 6.976374e-03  -4.065162e-03  0 
 2.074857e-02  -2.264906e-02  0 
 1.740772e-02  -1.809595e-02  0 
 4.076710e-02  -3.739718e-02  0 
 4.379722e-02  -2.951559e-02  0 
 3.650449e-02  -2.946503e-02  0 
 4.015721e-02  -3.032347e-02  0 
 4.156748e-02  -4.180432e-02  0 
 4.672968e-02  -3.278383e-02  0 
 3.353979e-02  -3.276180e-02  0 
 3.636765e-02  -3.815805e-02  0 
 4.482662e-02  -3.724214e-02  0 
 3.809601e-02  -3.374359e-02  0 
 4.228547e-02  -3.381087e-02  0 
 4.756223e-02  -2.884611e-02  0 
 3.264556e-02  -2.874722e-02  0 
VECTORS displacement_ITER4 FLOAT
 5.339880e-03  -5.863561e-03  0 
 2.342861e-02  -6.164150e-03  0 
 -5.273692e-03  -5.050154e-03  0 
 1.002580e-02  -5.996525e-03  0 
 1.455226e-02  -6.085566e-03  0 
 1.900677e-02  -6.136604e-03  0 
 5.476026e-03  -1.049755e-02  0 
 5.562092e-03  -1.505228e-02  0 
 2.344407e-02  -1.058322e-02  0 
 2.345010e-02  -1.500948e-02  0 
 1.068120e-02  -5.133125e-03  0 
 1.364940e-02  -4.481986e-03  0 
 5.366490e-03  -7.010323e-03  0 
 4.793716e-03  -3.470196e-03  0 
 1.225190e-02  1.062151e-03  0 
 5.995963e-03  -3.076187e-03  0 
 3.485366e-03  -6.221567e-03  0 
 1.506304e-02  -1.598814e-02  0 
 1.758034e-02  -9.452302e-03  0 
 1.152930e-02  -9.414704e-03  0 
 1.456181e-02  -1.012554e-02  0 
 1.572304e-02  -1.962284e-02  0 
 2.000711e-02  -1.215922e-02  0 
 9.057818e-03  -1.216097e-02  0 
 1.141241e-02  -1.663077e-02  0 
 1.842700e-02  -1.585837e-02  0 
 1.284982e-02  -1.296673e-02  0 
 1.632348e-02  -1.301598e-02  0 
 2.069648e-02  -8.896668e-03  0 
 8.301495e-03  -8.818703e-03  0 
VECTORS displacement_ITER5 FLOAT
 4.398250e-03  2.078056e-03  0 
 1.416243e-02  1.766651e-03  0 
 3.572904e-03  -9.436060e-04  0 
 7.034163e-03  1.939722e-03  0 
 9.476063e-03  1.843170e-03  0 
 1.183584e-02  1.790103e-03  0 
 4.553584e-03  -4.906253e-04  0 
 4.643537e-03  -2.962881e-03  0 
 1.416903e-02  -5.550240e-04  0 
 1.416393e-02  -2.867393e-03  0 
 7.073959e-03  1.631634e-03  0 
 8.892698e-03  1.813044e-03  0 
 5.220426e-03  4.310700e-04  0 
 4.967082e-03  -1.314898e-03  0 
 2.873404e-03  -3.033466e-03  0 
 2.322781e-03  -2.266577e-03  0 
 2.974714e-03  -7.101048e-04  0 
 9.746686e-03  -3.442881e-03  0 
 1.108798e-02  3.907528e-05  0 
 7.859126e-03  6.809158e-05  0 
 9.483414e-03  -3.184364e-04  0 
 1.009196e-02  -5.368997e-03  0 
 1.236481e-02  -1.389304e-03  0 
 6.519870e-03  -1.416433e-03  0 
 7.800029e-03  -3.811532e-03  0 
 1.152058e-02  -3.351882e-03  0 
 8.570763e-03  -1.841818e-03  0 
 1.041874e-02  -1.858080e-03  0 
 1.272756e-02  3.306931e-04  0 
 6.090766e-03  3.967156e-04  0 
VECTORS displacement_ITER6 FLOAT
 2.753049e-03  -3.267782e-03  0 
 5.906155e-03  -3.444925e-03  0 
 2.311845e-03  -2.149427e-03  0 
 3.723684e-03  -3.360314e-03  0 
 4.497217e-03  -3.419898e-03  0 
 5.204815e-03  -3.438109e-03  0 
 2.921845e-03  -4.121715e-03  0 
 3.031470e-03  -4.908644e-03  0 
 5.909177e-03  -4.145269e-03  0 
 5.910298e-03  -4.847969e-03  0 
 3.701808e-03  -2.816519e-03  0 
 4.402797e-03  -3.192032e-03  0 
 3.052096e-03  -2.469364e-03  0 
 2.759696e-03  -1.713958e-03  0 
 1.615266e-03  -3.029189e-03  0 
 2.417984e-03  -4.146534e-03  0 
 2.168848e-03  -3.464350e-03  0 
 4.554996e-03  -5.031093e-03  0 
 4.979687e-03  -3.967050e-03  0 
 3.993149e-03  -3.980206e-03  0 
 4.491514e-03  -4.084046e-03  0 
 4.650651e-03  -5.614110e-03  0 
 5.362598e-03  -4.396228e-03  0 
 3.567651e-03  -4.459123e-03  0 
 3.958246e-03  -5.157800e-03  0 
 5.107237e-03  -4.983640e-03  0 
 4.202093e-03  -4.560206e-03  0 
 4.772270e-03  -4.543013e-03  0 
 5.473159e-03  -3.877790e-03  0 
 3.402428e-03  -3.882311e-03  0 
VECTORS displacement_ITER7 FLOAT
 2.313636e-03  -3.196624e-03  0 
 4.677184e-03  -3.330068e-03  0 
 2.130000e-03  -2.667353e-03  0 
 3.063069e-03  -3.275767e-03  0 
 3.632112e-03  -3.326632e-03  0 
 4.150693e-03  -3.332631e-03  0 
 2.466919e-03  -3.833475e-03  0 
 2.562603e-03  -4.418406e-03  0 
 4.679949e-03  -3.859400e-03  0 
 4.686308e-03  -4.401922e-03  0 
 3.005465e-03  -2.928188e-03  0 
 3.421738e-03  -3.094306e-03  0 
 2.555740e-03  -2.764749e-03  0 
 2.340615e-03  -2.490937e-03  0 
 1.361786e-03  -3.160494e-03  0 
 2.187712e-03  -4.163800e-03  0 
 1.972986e-03  -3.415743e-03  0 
 3.670228e-03  -4.497077e-03  0 
 3.982312e-03  -3.725456e-03  0 
 3.263704e-03  -3.739117e-03  0 
 3.626797e-03  -3.813393e-03  0 
 3.734307e-03  -4.888486e-03  0 
 4.265740e-03  -4.044613e-03  0 
 2.951822e-03  -4.091039e-03  0 
 3.241723e-03  -4.591143e-03  0 
 4.080634e-03  -4.475184e-03  0 
 3.416355e-03  -4.161610e-03  0 
 3.829298e-03  -4.146559e-03  0 
 4.349565e-03  -3.657643e-03  0 
 2.821098e-03  -3.667561e-03  0 
VECTORS displacement_ITER8 FLOAT
 2.058959e-03  -2.433487e-03  0 
 4.755647e-03  -2.583598e-03  0 
 1.883959e-03  -2.131382e-03  0 
 2.888392e-03  -2.511936e-03  0 
 3.547885e-03  -2.566615e-03  0 
 4.154056e-03  -2.580824e-03  0 
 2.205446e-03  -3.154902e-03  0 
 2.293148e-03  -3.820068e-03  0 
 4.757053e-03  -3.184545e-03  0 
 4.758867e-03  -3.783819e-03  0 
 2.898462e-03  -2.236820e-03  0 
 3.495615e-03  -2.274901e-03  0 
 2.359280e-03  -2.134287e-03  0 
 2.177776e-03  -1.936586e-03  0 
 1.822117e-03  -3.052121e-03  0 
 1.908326e-03  -3.372795e-03  0 
 1.813072e-03  -2.912000e-03  0 
 3.601241e-03  -3.937309e-03  0 
 3.960621e-03  -3.034790e-03  0 
 3.119321e-03  -3.041243e-03  0 
 3.544705e-03  -3.136861e-03  0 
 3.678307e-03  -4.394833e-03  0 
 4.287399e-03  -3.399873e-03  0 
 2.759237e-03  -3.440530e-03  0 
 3.109377e-03  -4.045806e-03  0 
 4.062024e-03  -3.912105e-03  0 
 3.305476e-03  -3.540564e-03  0 
 3.779930e-03  -3.530230e-03  0 
 4.383136e-03  -2.956402e-03  0 
 2.615135e-03  -2.954683e-03  0 
VECTORS displacement_ITER9 FLOAT
 2.038693e-03  -2.346323e-03  0 
 4.721364e-03  -2.488030e-03  0 
 1.885858e-03  -2.075924e-03  0 
 2.859164e-03  -2.422846e-03  0 
 3.512065e-03  -2.473709e-03  0 
 4.117775e-03  -2.486685e-03  0 
 2.189492e-03  -3.055083e-03  0 
 2.283995e-03  -3.696646e-03  0 
 4.723716e-03  -3.092433e-03  0 
 4.727485e-03  -3.701887e-03  0 
 2.873576e-03  -2.151901e-03  0 
 3.402316e-03  -2.260651e-03  0 
 2.401983e-03  -2.096454e-03  0 
 2.290644e-03  -1.969646e-03  0 
 1.351114e-03  -2.508839e-03  0 
 1.990027e-03  -3.313881e-03  0 
 1.834820e-03  -2.712953e-03  0 
 3.569269e-03  -3.840386e-03  0 
 3.924117e-03  -2.940912e-03  0 
 3.086432e-03  -2.945531e-03  0 
 3.509568e-03  -3.040430e-03  0 
 3.651481e-03  -4.313515e-03  0 
 4.250670e-03  -3.307503e-03  0 
 2.730307e-03  -3.339557e-03  0 
 3.076832e-03  -3.939997e-03  0 
 4.028873e-03  -3.814710e-03  0 
 3.271115e-03  -3.440562e-03  0 
 3.746426e-03  -3.433742e-03  0 
 4.347035e-03  -2.862448e-03  0 
 2.588632e-03  -2.861565e-03  0 
VECTORS displacement_ITER10 FLOAT
 2.036603e-03  -2.322157e-03  0 
 4.695887e-03  -2.458872e-03  0 
 1.886558e-03  -2.055144e-03  0 
 2.848811e-03  -2.397303e-03  0 
 3.495137e-03  -2.444729e-03  0 
 4.096532e-03  -2.456674e-03  0 
 2.188196e-03  -3.022072e-03  0 
 2.285374e-03  -3.653700e-03  0 
 4.697901e-03  -3.058408e-03  0 
 4.700421e-03  -3.660618e-03  0 
 2.857785e-03  -2.116379e-03  0 
 3.400125e-03  -2.249172e-03  0 
 2.380647e-03  -2.050956e-03  0 
 2.262352e-03  -1.873877e-03  0 
 1.773072e-03  -2.733347e-03  0 
 1.963518e-03  -3.234301e-03  0 
 1.880381e-03  -2.758518e-03  0 
 3.551502e-03  -3.801373e-03  0 
 3.904107e-03  -2.907340e-03  0 
 3.072811e-03  -2.914056e-03  0 
 3.491767e-03  -3.006095e-03  0 
 3.636233e-03  -4.281854e-03  0 
 4.229655e-03  -3.272138e-03  0 
 2.721003e-03  -3.304555e-03  0 
 3.060538e-03  -3.894433e-03  0 
 4.010159e-03  -3.776146e-03  0 
 3.253764e-03  -3.402513e-03  0 
 3.727854e-03  -3.396526e-03  0 
 4.324650e-03  -2.830225e-03  0 
 2.580980e-03  -2.832040e-03  0 
VECTORS displacement_ITER11 FLOAT
 2.037541e-03  -2.321534e-03  0 
 4.704526e-03  -2.456361e-03  0 
 1.882794e-03  -2.054436e-03  0 
 2.850586e-03  -2.396005e-03  0 
 3.498674e-03  -2.442600e-03  0 
 4.102584e-03  -2.454206e-03  0 
 2.189268e-03  -3.022082e-03  0 
 2.287250e-03  -3.652858e-03  0 
 4.706568e-03  -3.058466e-03  0 
 4.709198e-03  -3.663142e-03  0 
 2.862062e-03  -2.118054e-03  0 
 3.391612e-03  -2.254513e-03  0 
 2.371110e-03  -2.047027e-03  0 
 2.241191e-03  -1.863534e-03  0 
 1.653518e-03  -2.738530e-03  0 
 1.990136e-03  -3.244749e-03  0 
 1.884743e-03  -2.743315e-03  0 
 3.555466e-03  -3.804047e-03  0 
 3.909265e-03  -2.906759e-03  0 
 3.074877e-03  -2.913659e-03  0 
 3.495250e-03  -3.005947e-03  0 
 3.640685e-03  -4.285726e-03  0 
 4.236309e-03  -3.273057e-03  0 
 2.722041e-03  -3.305184e-03  0 
 3.062318e-03  -3.897507e-03  0 
 4.015844e-03  -3.779349e-03  0 
 3.256449e-03  -3.403588e-03  0 
 3.732272e-03  -3.397899e-03  0 
 4.331685e-03  -2.829301e-03  0 
 2.582146e-03  -2.831797e-03  0 
VECTORS displacement_ITER12 FLOAT
 2.036547e-03  -2.321906e-03  0 
 4.702403e-03  -2.456643e-03  0 
 1.882589e-03  -2.054997e-03  0 
 2.849301e-03  -2.396224e-03  0 
 3.497126e-03  -2.442811e-03  0 
 4.100762e-03  -2.454493e-03  0 
 2.188362e-03  -3.022021e-03  0 
 2.286567e-03  -3.652016e-03  0 
 4.704444e-03  -3.058460e-03  0 
 4.707068e-03  -3.662919e-03  0 
 2.859525e-03  -2.115359e-03  0 
 3.387411e-03  -2.261583e-03  0 
 2.371813e-03  -2.047840e-03  0 
 2.243952e-03  -1.868568e-03  0 
 1.642191e-03  -2.755313e-03  0 
 1.987014e-03  -3.242626e-03  0 
 1.882567e-03  -2.735932e-03  0 
 3.554042e-03  -3.803611e-03  0 
 3.907558e-03  -2.906823e-03  0 
 3.073500e-03  -2.913642e-03  0 
 3.493735e-03  -3.005913e-03  0 
 3.639277e-03  -4.284853e-03  0 
 4.234406e-03  -3.272948e-03  0 
 2.720674e-03  -3.305077e-03  0 
 3.060760e-03  -3.897394e-03  0 
 4.014097e-03  -3.778884e-03  0 
 3.255043e-03  -3.403355e-03  0 
 3.730704e-03  -3.397705e-03  0 
 4.329743e-03  -2.829404e-03  0 
 2.580905e-03  -2.831917e-03  0 
VECTORS displacement_ITER13 FLOAT
 2.036734e-03  -2.321828e-03  0 
 4.702551e-03  -2.456594e-03  0 
 1.882618e-03  -2.054732e-03  0 
 2.849519e-03  -2.396159e-03  0 
 3.497331e-03  -2.442781e-03  0 
 4.100938e-03  -2.454456e-03  0 
 2.188537e-03  -3.021975e-03  0 
 2.286705e-03  -3.652085e-03  0 
 4.704597e-03  -3.058389e-03  0 
 4.707239e-03  -3.662842e-03  0 
 2.859128e-03  -2.115004e-03  0 
 3.388444e-03  -2.258942e-03  0 
 2.375208e-03  -2.049502e-03  0 
 2.250747e-03  -1.872961e-03  0 
 1.642207e-03  -2.760795e-03  0 
 1.982736e-03  -3.241338e-03  0 
 1.880429e-03  -2.733225e-03  0 
 3.554249e-03  -3.803503e-03  0 
 3.907740e-03  -2.906770e-03  0 
 3.073727e-03  -2.913590e-03  0 
 3.493939e-03  -3.005865e-03  0 
 3.639476e-03  -4.284621e-03  0 
 4.234561e-03  -3.272865e-03  0 
 2.720902e-03  -3.305030e-03  0 
 3.060987e-03  -3.897324e-03  0 
 4.014239e-03  -3.778796e-03  0 
 3.255270e-03  -3.403289e-03  0 
 3.730885e-03  -3.397641e-03  0 
 4.329903e-03  -2.829343e-03  0 
 2.581118e-03  -2.831854e-03  0 
VECTORS displacement_ITER14 FLOAT
 2.036715e-03  -2.321827e-03  0 
 4.702524e-03  -2.456587e-03  0 
 1.882598e-03  -2.054742e-03  0 
 2.849494e-03  -2.396155e-03  0 
 3.497304e-03  -2.442774e-03  0 
 4.100911e-03  -2.454449e-03  0 
 2.188519e-03  -3.021966e-03  0 
 2.286690e-03  -3.652062e-03  0 
 4.704570e-03  -3.058383e-03  0 
 4.707212e-03  -3.662834e-03  0 
 2.859102e-03  -2.115199e-03  0 
 3.388269e-03  -2.259329e-03  0 
 2.375166e-03  -2.049550e-03  0 
 2.250659e-03  -1.872956e-03  0 
 1.642497e-03  -2.758899e-03  0 
 1.982743e-03  -3.241374e-03  0 
 1.880335e-03  -2.732731e-03  0 
 3.554223e-03  -3.803495e-03  0 
 3.907713e-03  -2.906763e-03  0 
 3.073700e-03  -2.913583e-03  0 
 3.493912e-03  -3.005857e-03  0 
 3.639451e-03  -4.284617e-03  0 
 4.234535e-03  -3.272859e-03  0 
 2.720877e-03  -3.305020e-03  0 
 3.060960e-03  -3.897315e-03  0 
 4.014213e-03  -3.778789e-03  0 
 3.255243e-03  -3.403280e-03  0 
 3.730859e-03  -3.397634e-03  0 
 4.329876e-03  -2.829336e-03  0 
 2.581095e-03  -2.831848e-03  0 
CELL_DATA 42
TENSORS element_stresses FLOAT
 1.597849e-03  9.268245e-04  0 
 9.268245e-04  2.928785e-04  0 
 0  0  0 

 7.475706e-04  1.124367e-03  0 
 1.124367e-03  4.370099e-04  0 
 0  0  0 

 1.259527e-03  1.342324e-03  0 
 1.342324e-03  8.054461e-05  0 
 0  0  0 

 1.480083e-03  7.763053e-04  0 
 7.763053e-04  8.684391e-05  0 
 0  0  0 

 1.286483e-03  1.104717e-03  0 
 1.104717e-03  5.883159e-04  0 
 0  0  0 

 1.820517e-03  1.262029e-03  0 
 1.262029e-03  4.994566e-04  0 
 0  0  0 

 1.567637e-03  9.557492e-04  0 
 9.557492e-04  -2.360777e-04  0 
 0  0  0 

 1.112092e-03  1.076356e-03  0 
 1.076356e-03  -1.795099e-05  0 
 0  0  0 

 2.906994e-04  -9.661121e-04  0 
 -9.661121e-04  -3.399499e-04  0 
 0  0  0 

 5.457628e-04  -9.976624e-04  0 
 -9.976624e-04  -2.048468e-04  0 
 0  0  0 

 6.253754e-04  -8.708637e-04  0 
 -8.708637e-04  -2.803434e-04  0 
 0  0  0 

 5.671019e-04  -1.108747e-03  0 
 -1.108747e-03  -3.342494e-04  0 
 0  0  0 

 -2.479346e-03  -1.971538e-02  0 
 -1.971538e-02  -4.744240e-02  0 
 0  0  0 

 1.696303e-02  -7.999821e-02  0 
 -7.999821e-02  -1.813872e-01  0 
 0  0  0 

 -9.170010e-03  -4.500264e-02  0 
 -4.500264e-02  1.968633e-02  0 
 0  0  0 

 -7.851310e-03  -5.309700e-03  0 
 -5.309700e-03  2.408200e-02  0 
 0  0  0 

 9.204224e-03  -4.983568e-03  0 
 -4.983568e-03  2.827118e-02  0 
 0  0  0 

 -1.461550e-02  -3.741835e-03  0 
 -3.741835e-03  3.057610e-02  0 
 0  0  0 

 3.295204e-01  2.740488e-02  0 
 2.740488e-02  -2.105469e-01  0 
 0  0  0 

 1.011006e-02  6.136986e-03  0 
 6.136986e-03  -1.516716e-03  0 
 0  0  0 

 -1.941133e-02  -1.613693e-02  0 
 -1.613693e-02  3.669609e-02  0 
 0  0  0 

 -2.950602e-03  3.211743e-02  0 
 3.211743e-02  6.621973e-02  0 
 0  0  0 

 -6.284643e-03  2.526431e-02  0 
 2.526431e-02  6.975684e-02  0 
 0  0  0 

 -5.372895e-03  -1.778909e-02  0 
 -1.778909e-02  7.101781e-02  0 
 0  0  0 

 1.160967e-01  2.933650e-02  0 
 2.933650e-02  -1.033017e-01  0 
 0  0  0 

 1.741070e-02  6.029733e-03  0 
 6.029733e-03  6.307001e-02  0 
 0  0  0 

 6.890162e-02  1.009320e-01  0 
 1.009320e-01  6.541695e-02  0 
 0  0  0 

 -1.563062e-02  1.173530e-02  0 
 1.173530e-02  3.433319e-03  0 
 0  0  0 

 -1.811350e-02  9.158348e-03  0 
 9.158348e-03  5.049297e-02  0 
 0  0  0 

 -1.347952e-02  6.545580e-03  0 
 6.545580e-03  4.504609e-02  0 
 0  0  0 

 -4.669332e-05  -2.962381e-03  0 
 -2.962381e-03  -8.567132e-03  0 
 0  0  0 

 7.203973e-03  3.797184e-03  0 
 3.797184e-03  -3.268578e-03  0 
 0  0  0 

 7.848018e-03  -1.317950e-02  0 
 -1.317950e-02  6.471938e-03  0 
 0  0  0 

 1.838905e-01  1.980215e-01  0 
 1.980215e-01  -2.421462e-01  0 
 0  0  0 

 5.056953e-01  7.729297e-02  0 
 7.729297e-02  -3.384053e-01  0 
 0  0  0 

 -1.053357e-02  6.388700e-03  0 
 6.388700e-03  3.035201e-02  0 
 0  0  0 

 -4.621833e-03  5.188254e-03  0 
 5.188254e-03  -3.528515e-03  0 
 0  0  0 

 -7.022038e-03  -9.645786e-03  0 
 -9.645786e-03  3.291784e-03  0 
 0  0  0 

 1.080790e-01  1.039777e-01  0 
 1.039777e-01  -2.808728e-01  0 
 0  0  0 

 1.816474e-01  1.447403e-01  0 
 1.447403e-01  5.003703e-02  0 
 0  0  0 

 -8.051076e-03  3.385486e-02  0 
 3.385486e-02  6.216497e-02  0 
 0  0  0 

 -1.538477e-02  5.412194e-02  0 
 5.412194e-02  5.311560e-02  0 
 0  0  0 

TENSORS element_stresses FLOAT
 1.597849e-03  9.268245e-04  0 
 9.268245e-04  2.928785e-04  0 
 0  0  0 

 7.475706e-04  1.124367e-03  0 
 1.124367e-03  4.370099e-04  0 
 0  0  0 

 1.259527e-03  1.342324e-03  0 
 1.342324e-03  8.054461e-05  0 
 0  0  0 

 1.480083e-03  7.763053e-04  0 
 7.763053e-04  8.684391e-05  0 
 0  0  0 

 1.286483e-03  1.104717e-03  0 
 1.104717e-03  5.883159e-04  0 
 0  0  0 

 1.820517e-03  1.262029e-03  0 
 1.262029e-03  4.994566e-04  0 
 0  0  0 

 1.567637e-03  9.557492e-04  0 
 9.557492e-04  -2.360777e-04  0 
 0  0  0 

 1.112092e-03  1.076356e-03  0 
 1.076356e-03  -1.795099e-05  0 
 0  0  0 

 2.906994e-04  -9.661121e-04  0 
 -9.661121e-04  -3.399499e-04  0 
 0  0  0 

 5.457628e-04  -9.976624e-04  0 
 -9.976624e-04  -2.048468e-04  0 
 0  0  0 

 6.253754e-04  -8.708637e-04  0 
 -8.708637e-04  -2.803434e-04  0 
 0  0  0 

 5.671019e-04  -1.108747e-03  0 
 -1.108747e-03  -3.342494e-04  0 
 0  0  0 

 -2.479346e-03  -1.971538e-02  0 
 -1.971538e-02  -4.744240e-02  0 
 0  0  0 

 1.696303e-02  -7.999821e-02  0 
 -7.999821e-02  -1.813872e-01  0 
 0  0  0 

 -9.170010e-03  -4.500264e-02  0 
 -4.500264e-02  1.968633e-02  0 
 0  0  0 

 -7.851310e-03  -5.309700e-03  0 
 -5.309700e-03  2.408200e-02  0 
 0  0  0 

 9.204224e-03  -4.983568e-03  0 
 -4.983568e-03  2.827118e-02  0 
 0  0  0 

 -1.461550e-02  -3.741835e-03  0 
 -3.741835e-03  3.057610e-02  0 
 0  0  0 

 3.295204e-01  2.740488e-02  0 
 2.740488e-02  -2.105469e-01  0 
 0  0  0 

 1.011006e-02  6.136986e-03  0 
 6.136986e-03  -1.516716e-03  0 
 0  0  0 

 -1.941133e-02  -1.613693e-02  0 
 -1.613693e-02  3.669609e-02  0 
 0  0  0 

 -2.950602e-03  3.211743e-02  0 
 3.211743e-02  6.621973e-02  0 
 0  0  0 

 -6.284643e-03  2.526431e-02  0 
 2.526431e-02  6.975684e-02  0 
 0  0  0 

 -5.372895e-03  -1.778909e-02  0 
 -1.778909e-02  7.101781e-02  0 
 0  0  0 

 1.160967e-01  2.933650e-02  0 
 2.933650e-02  -1.033017e-01  0 
 0  0  0 

 1.741070e-02  6.029733e-03  0 
 6.029733e-03  6.307001e-02  0 
 0  0  0 

 6.890162e-02  1.009320e-01  0 
 1.009320e-01  6.541695e-02  0 
 0  0  0 

 -1.563062e-02  1.173530e-02  0 
 1.173530e-02  3.433319e-03  0 
 0  0  0 

 -1.811350e-02  9.158348e-03  0 
 9.158348e-03  5.049297e-02  0 
 0  0  0 

 -1.347952e-02  6.545580e-03  0 
 6.545580e-03  4.504609e-02  0 
 0  0  0 

 -4.669332e-05  -2.962381e-03  0 
 -2.962381e-03  -8.567132e-03  0 
 0  0  0 

 7.203973e-03  3.797184e-03  0 
 3.797184e-03  -3.268578e-03  0 
 0  0  0 

 7.848018e-03  -1.317950e-02  0 
 -1.317950e-02  6.471938e-03  0 
 0  0  0 

 1.838905e-01  1.980215e-01  0 
 1.980215e-01  -2.421462e-01  0 
 0  0  0 

 5.056953e-01  7.729297e-02  0 
 7.729297e-02  -3.384053e-01  0 
 0  0  0 

 -1.053357e-02  6.388700e-03  0 
 6.388700e-03  3.035201e-02  0 
 0  0  0 

 -4.621833e-03  5.188254e-03  0 
 5.188254e-03  -3.528515e-03  0 
 0  0  0 

 -7.022038e-03  -9.645786e-03  0 
 -9.645786e-03  3.291784e-03  0 
 0  0  0 

 1.080790e-01  1.039777e-01  0 
 1.039777e-01  -2.808728e-01  0 
 0  0  0 

 1.816474e-01  1.447403e-01  0 
 1.447403e-01  5.003703e-02  0 
 0  0  0 

 -8.051076e-03  3.385486e-02  0 
 3.385486e-02  6.216497e-02  0 
 0  0  0 

 -1.538477e-02  5.412194e-02  0 
 5.412194e-02  5.311560e-02  0 
 0  0  0 

