# vtk DataFile Version 3.1
this is an vtk file created by FEMAC
ASCII
DATASET UNSTRUCTURED_GRID
POINTS 30 FLOAT
5.000000 6.000000 0.000000
6.000000 5.000000 0.000000
6.000000 6.000000 0.000000
5.000000 5.250000 0.000000
5.000000 5.500000 0.000000
5.000000 5.750000 0.000000
5.500000 5.000000 0.000000
5.750000 5.000000 0.000000
5.250000 6.000000 0.000000
5.500000 6.000000 0.000000
5.750000 6.000000 0.000000
6.000000 5.250000 0.000000
6.000000 5.500000 0.000000
6.000000 5.750000 0.000000
5.447447 5.528256 0.000000
5.813081 5.669072 0.000000
5.813653 5.331392 0.000000
5.255000 5.805000 0.000000
5.255000 5.195000 0.000000
5.775000 5.500000 0.000000
5.660928 5.805846 0.000000
5.661595 5.194695 0.000000
5.169567 5.378219 0.000000
5.242859 5.565925 0.000000
5.413341 5.323754 0.000000
5.453287 5.717271 0.000000
5.616917 5.404183 0.000000
5.613486 5.598598 0.000000
5.844802 5.844984 0.000000
5.845050 5.155217 0.000000
CELLS 43 172 
3 15 12 13
3 12 16 11
3 17  9  8
3 15 19 12
3 19 16 12
3 26 16 19
3 15 27 19
3 3 22  4
3 23  5  4
3 7 21  6
3 20 10  9
3 20 27 15
3 26 21 16
3 23 25 17
3 24 22 18
3 26 27 14
3 26 19 27
3 23 17  5
3 18 22  3
3 6 24 18
3 6 21 24
3 26 14 24
3 24 21 26
3 25  9 17
3 20  9 25
3 14 27 25
3 20 25 27
3 17  0  5
3 8  0 17
3 10 28  2
3 13 28 15
3 28 13  2
3 29  7  1
3 29 11 16
3 11 29  1
3 20 28 10
3 20 15 28
3 29 21  7
3 16 21 29
3 4 22 23
3 24 14 23
3 14 25 23
3 23 22 24
CELL_TYPES 43
5 5 5 5 5 5 5 5 5 5 5 5 5 5 5 5 5 5 5 5 5 5 5 5 5 5 5 5 5 5 5 5 5 5 5 5 5 5 5 5 5 5 5 
POINT_DATA 30
VECTORS displacement_ITER1 FLOAT
 2.365062e-01  -3.368999e-01  0 
 1.207027e-01  -4.527169e-01  0 
 2.365435e-01  -4.527965e-01  0 
 1.496303e-01  -3.368893e-01  0 
 1.785869e-01  -3.368937e-01  0 
 2.075471e-01  -3.368955e-01  0 
 1.206814e-01  -3.948154e-01  0 
 1.206891e-01  -4.237711e-01  0 
 2.365179e-01  -3.658690e-01  0 
 2.365281e-01  -3.948364e-01  0 
 2.365373e-01  -4.238120e-01  0 
 1.496442e-01  -4.527478e-01  0 
 1.786005e-01  -4.527693e-01  0 
 2.075669e-01  -4.527862e-01  0 
 1.818651e-01  -3.887360e-01  0 
 1.981850e-01  -4.311139e-01  0 
 1.590648e-01  -4.311637e-01  0 
 2.139244e-01  -3.664401e-01  0 
 1.432617e-01  -3.664347e-01  0 
 1.785959e-01  -4.266928e-01  0 
 2.140324e-01  -4.134817e-01  0 
 1.432303e-01  -4.135408e-01  0 
 1.644833e-01  -3.565370e-01  0 
 1.862268e-01  -3.650302e-01  0 
 1.581753e-01  -3.847815e-01  0 
 2.037640e-01  -3.894153e-01  0 
 1.674935e-01  -4.083706e-01  0 
 1.900162e-01  -4.079781e-01  0 
 2.185722e-01  -4.347974e-01  0 
 1.386631e-01  -4.347903e-01  0 
VECTORS displacement_ITER2 FLOAT
 2.086928e-01  -2.566618e-01  0 
 1.099973e-01  -3.553772e-01  0 
 2.087400e-01  -3.554323e-01  0 
 1.346586e-01  -2.566204e-01  0 
 1.593350e-01  -2.566382e-01  0 
 1.840158e-01  -2.566503e-01  0 
 1.099788e-01  -3.060054e-01  0 
 1.099851e-01  -3.306950e-01  0 
 2.087079e-01  -2.813455e-01  0 
 2.087222e-01  -3.060308e-01  0 
 2.087334e-01  -3.307268e-01  0 
 1.346695e-01  -3.553977e-01  0 
 1.593530e-01  -3.554110e-01  0 
 1.840423e-01  -3.554232e-01  0 
 1.621361e-01  -3.008250e-01  0 
 1.760462e-01  -3.369495e-01  0 
 1.427016e-01  -3.369951e-01  0 
 1.894553e-01  -2.818274e-01  0 
 1.292316e-01  -2.818064e-01  0 
 1.593501e-01  -3.331816e-01  0 
 1.895523e-01  -3.219200e-01  0 
 1.292037e-01  -3.219717e-01  0 
 1.473197e-01  -2.733739e-01  0 
 1.658518e-01  -2.806195e-01  0 
 1.419455e-01  -2.974508e-01  0 
 1.807995e-01  -3.014065e-01  0 
 1.498876e-01  -3.175621e-01  0 
 1.690838e-01  -3.172280e-01  0 
 1.934222e-01  -3.400895e-01  0 
 1.253096e-01  -3.400897e-01  0 
VECTORS displacement_ITER3 FLOAT
 1.630307e-01  -1.616394e-01  0 
 8.176011e-02  -2.429367e-01  0 
 1.630926e-01  -2.429572e-01  0 
 1.020791e-01  -1.615510e-01  0 
 1.223968e-01  -1.615888e-01  0 
 1.427179e-01  -1.616169e-01  0 
 8.174515e-02  -2.022421e-01  0 
 8.175012e-02  -2.225913e-01  0 
 1.630509e-01  -1.819536e-01  0 
 1.630711e-01  -2.022746e-01  0 
 1.630853e-01  -2.226108e-01  0 
 1.020875e-01  -2.429425e-01  0 
 1.224207e-01  -2.429442e-01  0 
 1.427537e-01  -2.429498e-01  0 
 1.247143e-01  -1.979784e-01  0 
 1.361697e-01  -2.277344e-01  0 
 1.087070e-01  -2.277778e-01  0 
 1.472037e-01  -1.823429e-01  0 
 9.761218e-02  -1.822988e-01  0 
 1.224202e-01  -2.246324e-01  0 
 1.472905e-01  -2.153557e-01  0 
 9.758806e-02  -2.154010e-01  0 
 1.125098e-01  -1.753606e-01  0 
 1.277716e-01  -1.813382e-01  0 
 1.080875e-01  -1.951938e-01  0 
 1.400818e-01  -1.984610e-01  0 
 1.146282e-01  -2.117650e-01  0 
 1.304364e-01  -2.114902e-01  0 
 1.504780e-01  -2.303204e-01  0 
 9.437849e-02  -2.303325e-01  0 
VECTORS displacement_ITER4 FLOAT
 1.409482e-01  -1.314570e-01  0 
 6.623823e-02  -2.061925e-01  0 
 1.410153e-01  -2.062035e-01  0 
 8.491983e-02  -1.313508e-01  0 
 1.035993e-01  -1.313956e-01  0 
 1.222792e-01  -1.314297e-01  0 
 6.622395e-02  -1.687678e-01  0 
 6.622912e-02  -1.874816e-01  0 
 1.409702e-01  -1.501255e-01  0 
 1.409927e-01  -1.688030e-01  0 
 1.410078e-01  -1.874981e-01  0 
 8.492941e-02  -2.061945e-01  0 
 1.036243e-01  -2.061931e-01  0 
 1.223173e-01  -2.061968e-01  0 
 1.057336e-01  -1.648502e-01  0 
 1.162647e-01  -1.922079e-01  0 
 9.101660e-02  -1.922498e-01  0 
 1.264055e-01  -1.504798e-01  0 
 8.081511e-02  -1.504283e-01  0 
 1.036245e-01  -1.893565e-01  0 
 1.264878e-01  -1.808271e-01  0 
 8.079324e-02  -1.808696e-01  0 
 9.451219e-02  -1.440527e-01  0 
 1.085436e-01  -1.495522e-01  0 
 9.044784e-02  -1.622879e-01  0 
 1.198606e-01  -1.652951e-01  0 
 9.646124e-02  -1.775256e-01  0 
 1.109942e-01  -1.772731e-01  0 
 1.294183e-01  -1.945855e-01  0 
 7.784178e-02  -1.946001e-01  0 
VECTORS displacement_ITER5 FLOAT
 1.222961e-01  -9.060300e-02  0 
 5.006501e-02  -1.628513e-01  0 
 1.223657e-01  -1.628658e-01  0 
 6.812361e-02  -9.048831e-02  0 
 8.619076e-02  -9.053582e-02  0 
 1.042504e-01  -9.057244e-02  0 
 5.005011e-02  -1.266683e-01  0 
 5.005688e-02  -1.447615e-01  0 
 1.223191e-01  -1.086479e-01  0 
 1.223428e-01  -1.267036e-01  0 
 1.223581e-01  -1.447796e-01  0 
 6.813791e-02  -1.628557e-01  0 
 8.621300e-02  -1.628555e-01  0 
 1.042867e-01  -1.628592e-01  0 
 8.825309e-02  -1.228824e-01  0 
 9.843465e-02  -1.493334e-01  0 
 7.402282e-02  -1.493735e-01  0 
 1.082399e-01  -1.089886e-01  0 
 6.415738e-02  -1.089374e-01  0 
 8.621315e-02  -1.465766e-01  0 
 1.083192e-01  -1.383292e-01  0 
 6.413770e-02  -1.383702e-01  0 
 7.740270e-02  -1.027740e-01  0 
 9.097091e-02  -1.080913e-01  0 
 7.347245e-02  -1.204052e-01  0 
 1.019121e-01  -1.233122e-01  0 
 7.928706e-02  -1.351379e-01  0 
 9.333901e-02  -1.348934e-01  0 
 1.111526e-01  -1.516322e-01  0 
 6.128436e-02  -1.516444e-01  0 
VECTORS displacement_ITER6 FLOAT
 1.050110e-01  -7.430732e-02  0 
 4.375826e-02  -1.355748e-01  0 
 1.050829e-01  -1.355897e-01  0 
 5.907246e-02  -7.418764e-02  0 
 7.439824e-02  -7.423744e-02  0 
 8.971258e-02  -7.427514e-02  0 
 4.374392e-02  -1.048823e-01  0 
 4.375146e-02  -1.202302e-01  0 
 1.050351e-01  -8.960589e-02  0 
 1.050597e-01  -1.049158e-01  0 
 1.050753e-01  -1.202476e-01  0 
 5.908786e-02  -1.355798e-01  0 
 7.441848e-02  -1.355798e-01  0 
 8.974814e-02  -1.355833e-01  0 
 7.614921e-02  -1.016723e-01  0 
 8.478443e-02  -1.241092e-01  0 
 6.407912e-02  -1.241435e-01  0 
 9.309798e-02  -8.989066e-02  0 
 5.571106e-02  -8.984038e-02  0 
 7.441879e-02  -1.217707e-01  0 
 9.316771e-02  -1.147749e-01  0 
 5.569448e-02  -1.148098e-01  0 
 6.694614e-02  -8.461459e-02  0 
 7.845417e-02  -8.912687e-02  0 
 6.361306e-02  -9.956999e-02  0 
 8.773322e-02  -1.020374e-01  0 
 6.854462e-02  -1.120676e-01  0 
 8.046262e-02  -1.118604e-01  0 
 9.557150e-02  -1.260597e-01  0 
 5.327445e-02  -1.260692e-01  0 
VECTORS displacement_ITER7 FLOAT
 8.747658e-02  -4.910387e-02  0 
 3.440029e-02  -1.021978e-01  0 
 8.755275e-02  -1.022058e-01  0 
 4.767518e-02  -4.897575e-02  0 
 6.095640e-02  -4.903024e-02  0 
 7.422537e-02  -4.906993e-02  0 
 3.438807e-02  -7.558917e-02  0 
 3.439553e-02  -8.889471e-02  0 
 8.750256e-02  -6.235632e-02  0 
 8.752877e-02  -7.562061e-02  0 
 8.754500e-02  -8.890806e-02  0 
 4.768867e-02  -1.022000e-01  0 
 6.097633e-02  -1.021978e-01  0 
 7.426226e-02  -1.021997e-01  0 
 6.247719e-02  -7.280603e-02  0 
 6.996056e-02  -9.225397e-02  0 
 5.201546e-02  -9.228560e-02  0 
 7.716153e-02  -6.259873e-02  0 
 4.476412e-02  -6.254608e-02  0 
 6.097729e-02  -9.022740e-02  0 
 7.722528e-02  -8.416339e-02  0 
 4.474814e-02  -8.419551e-02  0 
 5.450137e-02  -5.801924e-02  0 
 6.447403e-02  -6.193328e-02  0 
 5.161367e-02  -7.098237e-02  0 
 7.251507e-02  -7.312349e-02  0 
 5.588698e-02  -8.181659e-02  0 
 6.621521e-02  -8.163679e-02  0 
 7.930903e-02  -9.394485e-02  0 
 4.265005e-02  -9.395583e-02  0 
VECTORS displacement_ITER8 FLOAT
 7.983565e-02  -3.651922e-02  0 
 2.805433e-02  -8.832044e-02  0 
 7.991349e-02  -8.832329e-02  0 
 4.100801e-02  -3.638674e-02  0 
 5.396419e-02  -3.644392e-02  0 
 6.690922e-02  -3.648463e-02  0 
 2.804351e-02  -6.235563e-02  0 
 2.805080e-02  -7.533890e-02  0 
 7.986229e-02  -4.944699e-02  0 
 7.988912e-02  -6.238677e-02  0 
 7.990566e-02  -7.534987e-02  0 
 4.102072e-02  -8.832031e-02  0 
 5.398527e-02  -8.831639e-02  0 
 6.694730e-02  -8.831740e-02  0 
 5.544987e-02  -5.963931e-02  0 
 6.275072e-02  -7.861397e-02  0 
 4.524281e-02  -7.864606e-02  0 
 6.977452e-02  -4.968237e-02  0 
 3.816911e-02  -4.962673e-02  0 
 5.398662e-02  -7.663702e-02  0 
 6.983786e-02  -7.072057e-02  0 
 3.815233e-02  -7.075296e-02  0 
 4.766831e-02  -4.521170e-02  0 
 5.739735e-02  -4.903196e-02  0 
 4.485194e-02  -5.785916e-02  0 
 6.524235e-02  -5.994972e-02  0 
 4.902072e-02  -6.843067e-02  0 
 5.909676e-02  -6.825526e-02  0 
 7.187088e-02  -8.026366e-02  0 
 3.610485e-02  -8.027661e-02  0 
VECTORS displacement_ITER9 FLOAT
 7.466711e-02  -3.004605e-02  0 
 2.573972e-02  -7.899317e-02  0 
 7.474327e-02  -7.899489e-02  0 
 3.797832e-02  -2.991469e-02  0 
 5.022035e-02  -2.997216e-02  0 
 6.245324e-02  -3.001219e-02  0 
 2.572966e-02  -5.445468e-02  0 
 2.573714e-02  -6.672454e-02  0 
 7.469298e-02  -4.226068e-02  0 
 7.471915e-02  -5.448707e-02  0 
 7.473548e-02  -6.673586e-02  0 
 3.799310e-02  -7.899208e-02  0 
 5.024380e-02  -7.898789e-02  0 
 6.249151e-02  -7.898888e-02  0 
 5.162706e-02  -5.188899e-02  0 
 5.852615e-02  -6.981949e-02  0 
 4.198283e-02  -6.984975e-02  0 
 6.516140e-02  -4.248241e-02  0 
 3.529881e-02  -4.242390e-02  0 
 5.024512e-02  -6.795110e-02  0 
 6.522230e-02  -6.236112e-02  0 
 3.528261e-02  -6.239077e-02  0 
 4.427295e-02  -3.825500e-02  0 
 5.346605e-02  -4.186684e-02  0 
 4.161375e-02  -5.020516e-02  0 
 6.087958e-02  -5.218353e-02  0 
 4.555288e-02  -6.019595e-02  0 
 5.507335e-02  -6.003092e-02  0 
 6.714359e-02  -7.137872e-02  0 
 3.334785e-02  -7.139065e-02  0 
VECTORS displacement_ITER10 FLOAT
 6.386258e-02  -2.477050e-02  0 
 1.684850e-02  -7.180379e-02  0 
 6.393545e-02  -7.180847e-02  0 
 2.860495e-02  -2.464579e-02  0 
 4.036913e-02  -2.470097e-02  0 
 5.212518e-02  -2.473861e-02  0 
 1.683857e-02  -4.822463e-02  0 
 1.684625e-02  -6.001486e-02  0 
 6.388715e-02  -3.650877e-02  0 
 6.391201e-02  -4.825796e-02  0 
 6.392778e-02  -6.002817e-02  0 
 2.862256e-02  -7.180336e-02  0 
 4.039389e-02  -7.180027e-02  0 
 5.216250e-02  -7.180211e-02  0 
 4.172202e-02  -4.576066e-02  0 
 4.835198e-02  -6.299073e-02  0 
 3.245585e-02  -6.301868e-02  0 
 5.472744e-02  -3.672216e-02  0 
 2.603283e-02  -3.666386e-02  0 
 4.039484e-02  -6.119479e-02  0 
 5.478612e-02  -5.582421e-02  0 
 2.601766e-02  -5.585092e-02  0 
 3.465443e-02  -3.265990e-02  0 
 4.348838e-02  -3.613098e-02  0 
 3.210064e-02  -4.414173e-02  0 
 5.061279e-02  -4.604435e-02  0 
 3.588595e-02  -5.374241e-02  0 
 4.503388e-02  -5.358454e-02  0 
 5.663255e-02  -6.448947e-02  0 
 2.415887e-02  -6.449873e-02  0 
VECTORS displacement_ITER11 FLOAT
 5.955892e-02  -2.345362e-02  0 
 1.703093e-02  -6.600119e-02  0 
 5.962982e-02  -6.600787e-02  0 
 2.766394e-02  -2.333426e-02  0 
 3.830702e-02  -2.338773e-02  0 
 4.894200e-02  -2.342340e-02  0 
 1.702155e-02  -4.466716e-02  0 
 1.702891e-02  -5.533493e-02  0 
 5.958279e-02  -3.407205e-02  0 
 5.960683e-02  -4.470059e-02  0 
 5.962223e-02  -5.534924e-02  0 
 2.768281e-02  -6.600125e-02  0 
 3.833195e-02  -6.599884e-02  0 
 4.897858e-02  -6.600129e-02  0 
 3.953270e-02  -4.243939e-02  0 
 4.553107e-02  -5.802863e-02  0 
 3.115054e-02  -5.805321e-02  0 
 5.129698e-02  -3.426378e-02  0 
 2.533963e-02  -3.420681e-02  0 
 3.833263e-02  -5.640326e-02  0 
 5.135151e-02  -5.154508e-02  0 
 2.532600e-02  -5.156782e-02  0 
 3.313823e-02  -3.058655e-02  0 
 4.112988e-02  -3.372801e-02  0 
 3.082914e-02  -4.097356e-02  0 
 4.757545e-02  -4.269686e-02  0 
 3.425361e-02  -4.966033e-02  0 
 4.252903e-02  -4.951811e-02  0 
 5.302239e-02  -5.938519e-02  0 
 2.364448e-02  -5.939199e-02  0 
VECTORS displacement_ITER12 FLOAT
 5.417448e-02  -1.990834e-02  0 
 1.293971e-02  -6.116288e-02  0 
 5.424532e-02  -6.116860e-02  0 
 2.325049e-02  -1.978980e-02  0 
 3.357016e-02  -1.984363e-02  0 
 4.388115e-02  -1.987881e-02  0 
 1.293184e-02  -4.047525e-02  0 
 1.293819e-02  -5.081984e-02  0 
 5.419835e-02  -3.020360e-02  0 
 5.422232e-02  -4.050871e-02  0 
 5.423772e-02  -5.083365e-02  0 
 2.326897e-02  -6.116257e-02  0 
 3.359483e-02  -6.115965e-02  0 
 4.391777e-02  -6.116201e-02  0 
 3.475895e-02  -3.831541e-02  0 
 4.057506e-02  -5.343136e-02  0 
 2.663165e-02  -5.345520e-02  0 
 4.616478e-02  -3.038895e-02  0 
 2.099769e-02  -3.033231e-02  0 
 3.359550e-02  -5.185524e-02  0 
 4.621837e-02  -4.714481e-02  0 
 2.098399e-02  -4.716647e-02  0 
 2.855896e-02  -2.682275e-02  0 
 3.630735e-02  -2.986901e-02  0 
 2.632024e-02  -3.689373e-02  0 
 4.255690e-02  -3.856533e-02  0 
 2.964052e-02  -4.531688e-02  0 
 3.766421e-02  -4.517916e-02  0 
 4.783859e-02  -5.474685e-02  0 
 1.935315e-02  -5.475364e-02  0 
VECTORS displacement_ITER13 FLOAT
 5.213245e-02  -1.554641e-02  0 
 7.651541e-03  -6.004607e-02  0 
 5.220530e-02  -6.004708e-02  0 
 1.877800e-02  -1.542213e-02  0 
 2.990843e-02  -1.547911e-02  0 
 4.102930e-02  -1.551608e-02  0 
 7.645998e-03  -3.773196e-02  0 
 7.650725e-03  -4.888961e-02  0 
 5.215697e-02  -2.665102e-02  0 
 5.218174e-02  -3.776605e-02  0 
 5.219760e-02  -4.890149e-02  0 
 1.879473e-02  -6.004432e-02  0 
 2.993303e-02  -6.003945e-02  0 
 4.106706e-02  -6.004077e-02  0 
 3.118929e-02  -3.540141e-02  0 
 3.746207e-02  -5.170385e-02  0 
 2.242258e-02  -5.173054e-02  0 
 4.349175e-02  -2.685188e-02  0 
 1.634655e-02  -2.679307e-02  0 
 2.993399e-02  -5.000448e-02  0 
 4.354884e-02  -4.492359e-02  0 
 1.633078e-02  -4.494786e-02  0 
 2.450282e-02  -2.300673e-02  0 
 3.285986e-02  -2.629145e-02  0 
 2.208711e-02  -3.386866e-02  0 
 3.960008e-02  -3.567056e-02  0 
 2.566822e-02  -4.295286e-02  0 
 3.432270e-02  -4.280398e-02  0 
 4.529596e-02  -5.312208e-02  0 
 1.457085e-02  -5.313190e-02  0 
VECTORS displacement_ITER14 FLOAT
 5.337139e-02  -1.348750e-02  0 
 8.476843e-03  -5.840080e-02  0 
 5.344413e-02  -5.840140e-02  0 
 1.970670e-02  -1.336301e-02  0 
 3.094035e-02  -1.341992e-02  0 
 4.216463e-02  -1.345720e-02  0 
 8.471085e-03  -3.587913e-02  0 
 8.475639e-03  -4.714046e-02  0 
 5.339581e-02  -2.469541e-02  0 
 5.342054e-02  -3.591380e-02  0 
 5.343642e-02  -4.715251e-02  0 
 1.972341e-02  -5.839889e-02  0 
 3.096521e-02  -5.839385e-02  0 
 4.220258e-02  -5.839511e-02  0 
 3.223311e-02  -3.352725e-02  0 
 3.856416e-02  -4.998093e-02  0 
 2.338503e-02  -5.000789e-02  0 
 4.464992e-02  -2.489838e-02  0 
 1.725240e-02  -2.483901e-02  0 
 3.096618e-02  -4.826581e-02  0 
 4.470744e-02  -4.313779e-02  0 
 1.723659e-02  -4.316211e-02  0 
 2.548443e-02  -2.101752e-02  0 
 3.391918e-02  -2.433274e-02  0 
 2.304630e-02  -3.198022e-02  0 
 4.072204e-02  -3.379892e-02  0 
 2.666076e-02  -4.114874e-02  0 
 3.539564e-02  -4.099852e-02  0 
 4.647074e-02  -5.141227e-02  0 
 1.546033e-02  -5.142237e-02  0 
VECTORS displacement_ITER15 FLOAT
 4.969441e-02  -1.050183e-02  0 
 6.811536e-03  -5.340492e-02  0 
 4.976636e-02  -5.340561e-02  0 
 1.753758e-02  -1.037934e-02  0 
 2.826750e-02  -1.043471e-02  0 
 3.898947e-02  -1.047196e-02  0 
 6.804518e-03  -3.188821e-02  0 
 6.809242e-03  -4.264686e-02  0 
 4.971847e-02  -2.120759e-02  0 
 4.974287e-02  -3.192365e-02  0 
 4.975867e-02  -4.265954e-02  0 
 1.755424e-02  -5.340280e-02  0 
 2.829312e-02  -5.339787e-02  0 
 3.902764e-02  -5.339926e-02  0 
 2.950394e-02  -2.964257e-02  0 
 3.555195e-02  -4.536103e-02  0 
 2.105212e-02  -4.538675e-02  0 
 4.136426e-02  -2.140083e-02  0 
 1.519348e-02  -2.134089e-02  0 
 2.829406e-02  -4.372244e-02  0 
 4.142013e-02  -3.882399e-02  0 
 1.517863e-02  -3.884659e-02  0 
 2.305663e-02  -1.769145e-02  0 
 3.111403e-02  -2.085954e-02  0 
 2.072847e-02  -2.816388e-02  0 
 3.761279e-02  -2.990269e-02  0 
 2.418131e-02  -3.692320e-02  0 
 3.252512e-02  -3.678003e-02  0 
 4.310473e-02  -4.672862e-02  0 
 1.348206e-02  -4.673823e-02  0 
VECTORS displacement_ITER16 FLOAT
 4.685503e-02  -8.840882e-03  0 
 6.117753e-03  -4.959978e-02  0 
 4.692727e-02  -4.959881e-02  0 
 1.630925e-02  -8.718862e-03  0 
 2.650044e-02  -8.773190e-03  0 
 3.668618e-02  -8.810867e-03  0 
 6.110408e-03  -2.915458e-02  0 
 6.115105e-03  -3.937727e-02  0 
 4.687914e-02  -1.901023e-02  0 
 4.690365e-02  -2.918991e-02  0 
 4.691955e-02  -3.938925e-02  0 
 1.632402e-02  -4.959697e-02  0 
 2.652685e-02  -4.959149e-02  0 
 3.672505e-02  -4.959253e-02  0 
 2.767713e-02  -2.702105e-02  0 
 3.342308e-02  -4.195535e-02  0 
 1.964755e-02  -4.198034e-02  0 
 3.894329e-02  -1.919267e-02  0 
 1.408208e-02  -1.913152e-02  0 
 2.652795e-02  -4.039855e-02  0 
 3.899768e-02  -3.574478e-02  0 
 1.406724e-02  -3.576635e-02  0 
 2.155164e-02  -1.566554e-02  0 
 2.920609e-02  -1.867701e-02  0 
 1.934072e-02  -2.561519e-02  0 
 3.538030e-02  -2.726892e-02  0 
 2.262086e-02  -3.393826e-02  0 
 3.054746e-02  -3.380248e-02  0 
 4.059832e-02  -4.325487e-02  0 
 1.245531e-02  -4.326493e-02  0 
VECTORS displacement_ITER17 FLOAT
 4.814169e-02  -9.667472e-03  0 
 5.376351e-03  -5.245186e-02  0 
 4.821462e-02  -5.245118e-02  0 
 1.607757e-02  -9.544993e-03  0 
 2.677431e-02  -9.598740e-03  0 
 3.746667e-02  -9.636878e-03  0 
 5.369520e-03  -3.099427e-02  0 
 5.374081e-03  -4.172319e-02  0 
 4.816600e-02  -2.034272e-02  0 
 4.819081e-02  -3.102867e-02  0 
 4.820686e-02  -4.173479e-02  0 
 1.609024e-02  -5.244987e-02  0 
 2.680031e-02  -5.244428e-02  0 
 3.750556e-02  -5.244500e-02  0 
 2.800822e-02  -2.875320e-02  0 
 3.403955e-02  -4.442880e-02  0 
 1.957893e-02  -4.445522e-02  0 
 3.983530e-02  -2.053500e-02  0 
 1.373768e-02  -2.047371e-02  0 
 2.680153e-02  -4.279488e-02  0 
 3.989145e-02  -3.790968e-02  0 
 1.372119e-02  -3.793305e-02  0 
 2.157882e-02  -1.683436e-02  0 
 2.961367e-02  -1.999450e-02  0 
 1.925718e-02  -2.727822e-02  0 
 3.609457e-02  -2.901294e-02  0 
 2.270020e-02  -3.601404e-02  0 
 3.102110e-02  -3.587124e-02  0 
 4.157142e-02  -4.579260e-02  0 
 1.202900e-02  -4.580332e-02  0 
VECTORS displacement_ITER18 FLOAT
 4.470937e-02  -9.893358e-03  0 
 5.081299e-03  -4.954105e-02  0 
 4.478274e-02  -4.954163e-02  0 
 1.499884e-02  -9.772620e-03  0 
 2.491131e-02  -9.825480e-03  0 
 3.481909e-02  -9.862989e-03  0 
 5.074212e-03  -2.965392e-02  0 
 5.078998e-03  -3.959769e-02  0 
 4.473401e-02  -1.978483e-02  0 
 4.475895e-02  -2.968676e-02  0 
 4.477499e-02  -3.960909e-02  0 
 1.501045e-02  -4.953977e-02  0 
 2.493617e-02  -4.953460e-02  0 
 3.485751e-02  -4.953544e-02  0 
 2.605573e-02  -2.757658e-02  0 
 3.164524e-02  -4.210535e-02  0 
 1.824363e-02  -4.213000e-02  0 
 3.701496e-02  -1.996130e-02  0 
 1.283077e-02  -1.990192e-02  0 
 2.493741e-02  -4.059090e-02  0 
 3.706833e-02  -3.606327e-02  0 
 1.281483e-02  -3.608516e-02  0 
 2.009748e-02  -1.652972e-02  0 
 2.754335e-02  -1.945932e-02  0 
 1.794614e-02  -2.620915e-02  0 
 3.354927e-02  -2.781762e-02  0 
 2.113666e-02  -3.430606e-02  0 
 2.884784e-02  -3.417374e-02  0 
 3.862557e-02  -4.336966e-02  0 
 1.124656e-02  -4.337940e-02  0 
VECTORS displacement_ITER19 FLOAT
 4.452728e-02  -9.018375e-03  0 
 3.214881e-03  -5.034952e-02  0 
 4.460113e-02  -5.035117e-02  0 
 1.355207e-02  -8.895926e-03  0 
 2.388754e-02  -8.949691e-03  0 
 3.421651e-02  -8.987576e-03  0 
 3.206866e-03  -2.962070e-02  0 
 3.212300e-03  -3.998531e-02  0 
 4.455216e-02  -1.933057e-02  0 
 4.457731e-02  -2.965345e-02  0 
 4.459338e-02  -3.999720e-02  0 
 1.356494e-02  -5.034885e-02  0 
 2.391174e-02  -5.034408e-02  0 
 3.425448e-02  -5.034500e-02  0 
 2.507913e-02  -2.745507e-02  0 
 3.090579e-02  -4.259985e-02  0 
 1.693505e-02  -4.262543e-02  0 
 3.650490e-02  -1.951525e-02  0 
 1.129196e-02  -1.945620e-02  0 
 2.391297e-02  -4.102127e-02  0 
 3.655948e-02  -3.630125e-02  0 
 1.127586e-02  -3.632445e-02  0 
 1.886795e-02  -1.594002e-02  0 
 2.663049e-02  -1.899296e-02  0 
 1.662460e-02  -2.603032e-02  0 
 3.289126e-02  -2.770573e-02  0 
 1.995074e-02  -3.447016e-02  0 
 2.798968e-02  -3.433192e-02  0 
 3.818267e-02  -4.391760e-02  0 
 9.641300e-03  -4.392738e-02  0 
VECTORS displacement_ITER20 FLOAT
 4.373972e-02  -7.501968e-03  0 
 1.968240e-03  -4.929288e-02  0 
 4.381393e-02  -4.929432e-02  0 
 1.241821e-02  -7.377214e-03  0 
 2.287016e-02  -7.432330e-03  0 
 3.331430e-02  -7.470805e-03  0 
 1.958987e-03  -2.833325e-02  0 
 1.965176e-03  -3.881316e-02  0 
 4.376476e-02  -1.792884e-02  0 
 4.379006e-02  -2.836654e-02  0 
 4.380617e-02  -3.882533e-02  0 
 1.243280e-02  -4.929197e-02  0 
 2.289446e-02  -4.928729e-02  0 
 3.335225e-02  -4.928818e-02  0 
 2.407493e-02  -2.614402e-02  0 
 2.996632e-02  -4.145703e-02  0 
 1.584027e-02  -4.148301e-02  0 
 3.562801e-02  -1.811566e-02  0 
 1.013383e-02  -1.805590e-02  0 
 2.289574e-02  -3.986100e-02  0 
 3.568296e-02  -3.508838e-02  0 
 1.011817e-02  -3.511203e-02  0 
 1.779436e-02  -1.450080e-02  0 
 2.564363e-02  -1.758773e-02  0 
 1.552616e-02  -2.470345e-02  0 
 3.197403e-02  -2.639736e-02  0 
 1.888944e-02  -3.323717e-02  0 
 2.701784e-02  -3.309729e-02  0 
 3.732414e-02  -4.278935e-02  0 
 8.465716e-03  -4.279937e-02  0 
VECTORS displacement_ITER21 FLOAT
 4.327585e-02  -7.850290e-03  0 
 2.155375e-03  -4.899038e-02  0 
 4.334953e-02  -4.899351e-02  0 
 1.244017e-02  -7.726189e-03  0 
 2.273082e-02  -7.781207e-03  0 
 3.301275e-02  -7.819396e-03  0 
 2.144762e-03  -2.835704e-02  0 
 2.151790e-03  -3.867389e-02  0 
 4.330072e-02  -1.811504e-02  0 
 4.332582e-02  -2.839046e-02  0 
 4.334180e-02  -3.868691e-02  0 
 1.245630e-02  -4.899008e-02  0 
 2.275498e-02  -4.898609e-02  0 
 3.305025e-02  -4.898728e-02  0 
 2.391700e-02  -2.620241e-02  0 
 2.971685e-02  -4.127760e-02  0 
 1.581048e-02  -4.130292e-02  0 
 3.529053e-02  -1.829879e-02  0 
 1.019229e-02  -1.823945e-02  0 
 2.275618e-02  -3.970627e-02  0 
 3.534467e-02  -3.500788e-02  0 
 1.017740e-02  -3.503097e-02  0 
 1.773374e-02  -1.474001e-02  0 
 2.546128e-02  -1.777910e-02  0 
 1.550106e-02  -2.478411e-02  0 
 3.169333e-02  -2.645184e-02  0 
 1.881214e-02  -3.318534e-02  0 
 2.681417e-02  -3.304767e-02  0 
 3.696043e-02  -4.258935e-02  0 
 8.551022e-03  -4.259849e-02  0 
VECTORS displacement_ITER22 FLOAT
 4.344744e-02  -7.393355e-03  0 
 1.686205e-03  -4.917343e-02  0 
 4.352072e-02  -4.917798e-02  0 
 1.213056e-02  -7.270225e-03  0 
 2.258166e-02  -7.324844e-03  0 
 3.302393e-02  -7.362757e-03  0 
 1.674954e-03  -2.822110e-02  0 
 1.682514e-03  -3.869770e-02  0 
 4.347215e-02  -1.781856e-02  0 
 4.349708e-02  -2.825435e-02  0 
 4.351300e-02  -3.871109e-02  0 
 1.214688e-02  -4.917392e-02  0 
 2.260560e-02  -4.917039e-02  0 
 3.306115e-02  -4.917173e-02  0 
 2.378575e-02  -2.603277e-02  0 
 2.967584e-02  -4.134221e-02  0 
 1.555300e-02  -4.136773e-02  0 
 3.533681e-02  -1.800567e-02  0 
 9.847489e-03  -1.794668e-02  0 
 2.260676e-02  -3.974641e-02  0 
 3.539137e-02  -3.497499e-02  0 
 9.832375e-03  -3.499854e-02  0 
 1.750633e-02  -1.439250e-02  0 
 2.535422e-02  -1.747839e-02  0 
 1.523873e-02  -2.459269e-02  0 
 3.168326e-02  -2.628588e-02  0 
 1.860132e-02  -3.312426e-02  0 
 2.672797e-02  -3.298438e-02  0 
 3.703222e-02  -4.267431e-02  0 
 8.180845e-03  -4.268309e-02  0 
VECTORS displacement_ITER23 FLOAT
 4.383077e-02  -7.005892e-03  0 
 2.388488e-03  -4.846703e-02  0 
 4.390364e-02  -4.847191e-02  0 
 1.275410e-02  -6.884930e-03  0 
 2.312425e-02  -6.938412e-03  0 
 3.348664e-02  -6.975800e-03  0 
 2.377405e-03  -2.767505e-02  0 
 2.384953e-03  -3.807175e-02  0 
 4.385530e-02  -1.735177e-02  0 
 4.388005e-02  -2.770801e-02  0 
 4.389593e-02  -3.808488e-02  0 
 1.276929e-02  -4.846781e-02  0 
 2.314821e-02  -4.846429e-02  0 
 3.352394e-02  -4.846564e-02  0 
 2.431930e-02  -2.550310e-02  0 
 3.016447e-02  -4.069580e-02  0 
 1.614942e-02  -4.072113e-02  0 
 3.578193e-02  -1.753748e-02  0 
 1.048802e-02  -1.747875e-02  0 
 2.314938e-02  -3.911212e-02  0 
 3.583629e-02  -3.437723e-02  0 
 1.047252e-02  -3.440066e-02  0 
 1.808798e-02  -1.395181e-02  0 
 2.587565e-02  -1.701416e-02  0 
 1.583782e-02  -2.407392e-02  0 
 3.215639e-02  -2.575440e-02  0 
 1.917458e-02  -3.254045e-02  0 
 2.723907e-02  -3.240169e-02  0 
 3.746466e-02  -4.201781e-02  0 
 8.833496e-03  -4.202648e-02  0 
VECTORS displacement_ITER24 FLOAT
 4.372453e-02  -7.498951e-03  0 
 2.693623e-03  -4.854850e-02  0 
 4.379678e-02  -4.855344e-02  0 
 1.295696e-02  -7.379996e-03  0 
 2.322329e-02  -7.432277e-03  0 
 3.348281e-02  -7.469222e-03  0 
 2.682920e-03  -2.796239e-02  0 
 2.690191e-03  -3.825627e-02  0 
 4.374877e-02  -1.774222e-02  0 
 4.377327e-02  -2.799572e-02  0 
 4.378908e-02  -3.826950e-02  0 
 1.297159e-02  -4.854928e-02  0 
 2.324757e-02  -4.854571e-02  0 
 3.352018e-02  -4.854712e-02  0 
 2.440680e-02  -2.581232e-02  0 
 3.019406e-02  -4.085435e-02  0 
 1.631823e-02  -4.087929e-02  0 
 3.575544e-02  -1.792611e-02  0 
 1.071322e-02  -1.786735e-02  0 
 2.324868e-02  -3.928628e-02  0 
 3.580945e-02  -3.459860e-02  0 
 1.069767e-02  -3.462140e-02  0 
 1.823727e-02  -1.437577e-02  0 
 2.594748e-02  -1.740784e-02  0 
 1.600972e-02  -2.439707e-02  0 
 3.216600e-02  -2.606136e-02  0 
 1.931334e-02  -3.277971e-02  0 
 2.729766e-02  -3.264251e-02  0 
 3.742171e-02  -4.216333e-02  0 
 9.074802e-03  -4.217174e-02  0 
VECTORS displacement_ITER25 FLOAT
 4.385357e-02  -6.550435e-03  0 
 2.460489e-03  -4.796267e-02  0 
 4.392619e-02  -4.796489e-02  0 
 1.281634e-02  -6.430670e-03  0 
 2.317182e-02  -6.483041e-03  0 
 3.352146e-02  -6.520407e-03  0 
 2.450876e-03  -2.719301e-02  0 
 2.457345e-03  -3.757852e-02  0 
 4.387788e-02  -1.688363e-02  0 
 4.390252e-02  -2.722720e-02  0 
 4.391845e-02  -3.759095e-02  0 
 1.282996e-02  -4.796222e-02  0 
 2.319680e-02  -4.795764e-02  0 
 3.355957e-02  -4.795864e-02  0 
 2.436617e-02  -2.502424e-02  0 
 3.020437e-02  -4.019851e-02  0 
 1.620654e-02  -4.022401e-02  0 
 3.581427e-02  -1.706921e-02  0 
 1.055248e-02  -1.700910e-02  0 
 2.319802e-02  -3.861676e-02  0 
 3.586894e-02  -3.388790e-02  0 
 1.053637e-02  -3.391081e-02  0 
 1.814235e-02  -1.348709e-02  0 
 2.592015e-02  -1.654606e-02  0 
 1.589543e-02  -2.359623e-02  0 
 3.219346e-02  -2.527573e-02  0 
 1.922809e-02  -3.205283e-02  0 
 2.728252e-02  -3.191455e-02  0 
 3.749530e-02  -4.151890e-02  0 
 8.898822e-03  -4.152846e-02  0 
VECTORS displacement_ITER26 FLOAT
 4.351937e-02  -7.122268e-03  0 
 3.055003e-03  -4.760625e-02  0 
 4.359149e-02  -4.760861e-02  0 
 1.317885e-02  -7.004831e-03  0 
 2.330175e-02  -7.055856e-03  0 
 3.341912e-02  -7.092534e-03  0 
 3.045734e-03  -2.730093e-02  0 
 3.051786e-03  -3.745418e-02  0 
 4.354351e-02  -1.722372e-02  0 
 4.356795e-02  -2.733535e-02  0 
 4.358378e-02  -3.746689e-02  0 
 1.319218e-02  -4.760566e-02  0 
 2.332671e-02  -4.760112e-02  0 
 3.345712e-02  -4.760229e-02  0 
 2.446961e-02  -2.518128e-02  0 
 3.017708e-02  -4.001583e-02  0 
 1.649314e-02  -4.004057e-02  0 
 3.566077e-02  -1.740485e-02  0 
 1.096589e-02  -1.734545e-02  0 
 2.332784e-02  -3.846937e-02  0 
 3.571458e-02  -3.384663e-02  0 
 1.095003e-02  -3.386852e-02  0 
 1.838523e-02  -1.390270e-02  0 
 2.598854e-02  -1.689320e-02  0 
 1.618891e-02  -2.378499e-02  0 
 3.212134e-02  -2.542734e-02  0 
 1.944689e-02  -3.205230e-02  0 
 2.732065e-02  -3.191731e-02  0 
 3.730460e-02  -4.130678e-02  0 
 9.349141e-03  -4.131588e-02  0 
VECTORS displacement_ITER27 FLOAT
 4.391340e-02  -6.341756e-03  0 
 2.926424e-03  -4.734830e-02  0 
 4.398594e-02  -4.734948e-02  0 
 1.318220e-02  -6.223772e-03  0 
 2.343508e-02  -6.274773e-03  0 
 3.368284e-02  -6.311639e-03  0 
 2.917727e-03  -2.678081e-02  0 
 2.923416e-03  -3.706495e-02  0 
 4.393769e-02  -1.657338e-02  0 
 4.396230e-02  -2.681532e-02  0 
 4.397821e-02  -3.707731e-02  0 
 1.319482e-02  -4.734722e-02  0 
 2.346016e-02  -4.734225e-02  0 
 3.372111e-02  -4.734321e-02  0 
 2.461786e-02  -2.463362e-02  0 
 3.039886e-02  -3.965918e-02  0 
 1.653850e-02  -3.968442e-02  0 
 3.595335e-02  -1.675695e-02  0 
 1.094026e-02  -1.669720e-02  0 
 2.346135e-02  -3.809288e-02  0 
 3.600771e-02  -3.341053e-02  0 
 1.092387e-02  -3.343281e-02  0 
 1.845518e-02  -1.320988e-02  0 
 2.615639e-02  -1.623876e-02  0 
 1.623044e-02  -2.321940e-02  0 
 3.236823e-02  -2.488283e-02  0 
 1.953038e-02  -3.159316e-02  0 
 2.750565e-02  -3.145641e-02  0 
 3.761816e-02  -4.096666e-02  0 
 9.302183e-03  -4.097636e-02  0 
VECTORS displacement_ITER28 FLOAT
 4.365495e-02  -6.830425e-03  0 
 3.127510e-03  -4.737715e-02  0 
 4.372741e-02  -4.737861e-02  0 
 1.326834e-02  -6.712789e-03  0 
 2.340628e-02  -6.763427e-03  0 
 3.353928e-02  -6.800164e-03  0 
 3.118724e-03  -2.703970e-02  0 
 3.124534e-03  -3.720871e-02  0 
 4.367922e-02  -1.694711e-02  0 
 4.370381e-02  -2.707416e-02  0 
 4.371969e-02  -3.722130e-02  0 
 1.328099e-02  -4.737615e-02  0 
 2.343139e-02  -4.737131e-02  0 
 3.357745e-02  -4.737232e-02  0 
 2.457607e-02  -2.491667e-02  0 
 3.029238e-02  -3.977418e-02  0 
 1.658720e-02  -3.979909e-02  0 
 3.578450e-02  -1.712839e-02  0 
 1.105170e-02  -1.706878e-02  0 
 2.343257e-02  -3.822536e-02  0 
 3.583839e-02  -3.359546e-02  0 
 1.103538e-02  -3.361738e-02  0 
 1.848230e-02  -1.362072e-02  0 
 2.609728e-02  -1.661586e-02  0 