# vtk DataFile Version 3.1
this is an vtk file created by FEMAC
ASCII
DATASET UNSTRUCTURED_GRID
POINTS 31 FLOAT
4.000000 5.000000 0.000000
5.000000 5.000000 0.000000
3.500000 5.000000 0.000000
3.750000 5.000000 0.000000
4.000000 4.500000 0.000000
4.000000 4.750000 0.000000
4.000000 5.250000 0.000000
4.000000 5.500000 0.000000
4.250000 5.000000 0.000000
4.500000 5.000000 0.000000
4.750000 5.000000 0.000000
3.779581 4.617843 0.000000
3.755447 4.375936 0.000000
3.782363 4.813195 0.000000
3.612492 4.786998 0.000000
3.512466 4.547863 0.000000
3.371004 4.799680 0.000000
3.745000 5.195000 0.000000
3.830433 5.378219 0.000000
3.757141 5.565925 0.000000
3.586659 5.323754 0.000000
4.178356 4.674167 0.000000
4.225000 4.500000 0.000000
4.341416 4.828194 0.000000
4.581646 4.808128 0.000000
4.401594 4.630720 0.000000
4.661856 4.507893 0.000000
4.832250 4.761003 0.000000
4.153954 4.850472 0.000000
4.195000 5.255000 0.000000
4.384000 5.201000 0.000000
CELLS 43 172 
3 5 11  4
3 3 13  0
3 13  5  0
3 13 11  5
3 14  3  2
3 13  3 14
3 11 12  4
3 11 15 12
3 11 13 14
3 11 14 15
3 16 15 14
3 14  2 16
3 17  2  3
3 18  6  7
3 18 20 17
3 18 17  6
3 20  2 17
3 0 17  3
3 0  6 17
3 18  7 19
3 18 19 20
3 4 21  5
3 22 21  4
3 25 21 22
3 8 23  9
3 24 10  9
3 25 23 21
3 10 27  1
3 5 28  0
3 28  8  0
3 28  5 21
3 24 27 10
3 28 23  8
3 21 23 28
3 9 23 24
3 24 23 25
3 25 26 24
3 24 26 27
3 29  7  6
3 30  8  9
3 30 29  8
3 0 29  6
3 0  8 29
CELL_TYPES 43
5 5 5 5 5 5 5 5 5 5 5 5 5 5 5 5 5 5 5 5 5 5 5 5 5 5 5 5 5 5 5 5 5 5 5 5 5 5 5 5 5 5 5 
POINT_DATA 31
VECTORS displacement_ITER1 FLOAT
 1.245313e-01  -2.512550e-01  0 
 1.246689e-01  -3.063572e-01  0 
 1.244444e-01  -2.343570e-01  0 
 1.244805e-01  -2.428051e-01  0 
 9.714624e-02  -2.512514e-01  0 
 1.108551e-01  -2.512516e-01  0 
 1.328978e-01  -2.512332e-01  0 
 1.412851e-01  -2.512231e-01  0 
 1.245847e-01  -2.649919e-01  0 
 1.246238e-01  -2.787505e-01  0 
 1.246510e-01  -2.925358e-01  0 
 1.019879e-01  -2.343973e-01  0 
 9.257074e-02  -2.254356e-01  0 
 1.125428e-01  -2.401992e-01  0 
 1.070102e-01  -2.292952e-01  0 
 8.945854e-02  -2.069226e-01  0 
 9.452249e-02  -2.046545e-01  0 
 1.310558e-01  -2.426723e-01  0 
 1.372016e-01  -2.455337e-01  0 
 1.434897e-01  -2.430731e-01  0 
 1.353781e-01  -2.373487e-01  0 
 1.066933e-01  -2.610347e-01  0 
 9.713568e-02  -2.636045e-01  0 
 1.151525e-01  -2.699990e-01  0 
 1.140614e-01  -2.832339e-01  0 
 1.043007e-01  -2.733096e-01  0 
 9.753524e-02  -2.876615e-01  0 
 1.114672e-01  -2.970588e-01  0 
 1.163616e-01  -2.596923e-01  0 
 1.342024e-01  -2.614551e-01  0 
 1.328994e-01  -2.725336e-01  0 
VECTORS displacement_ITER2 FLOAT
 6.952370e-02  -1.050938e-01  0 
 6.975105e-02  -1.433447e-01  0 
 6.940871e-02  -9.044385e-02  0 
 6.945754e-02  -9.776618e-02  0 
 5.067430e-02  -1.050721e-01  0 
 6.011927e-02  -1.050708e-01  0 
 7.676597e-02  -1.050960e-01  0 
 8.406638e-02  -1.051108e-01  0 
 6.961219e-02  -1.145757e-01  0 
 6.967994e-02  -1.241077e-01  0 
 6.972518e-02  -1.336920e-01  0 
 5.616331e-02  -9.774476e-02  0 
 6.607572e-02  -1.023491e-01  0 
 6.127369e-02  -9.908038e-02  0 
 5.878935e-02  -9.525261e-02  0 
 5.804247e-02  -9.874100e-02  0 
 5.768193e-02  -9.228948e-02  0 
 7.515547e-02  -9.766218e-02  0 
 8.050356e-02  -1.001519e-01  0 
 8.598855e-02  -9.800710e-02  0 
 7.891193e-02  -9.302450e-02  0 
 5.724704e-02  -1.118145e-01  0 
 5.064945e-02  -1.135987e-01  0 
 6.309630e-02  -1.180186e-01  0 
 6.234998e-02  -1.272063e-01  0 
 5.558296e-02  -1.203106e-01  0 
 5.087152e-02  -1.302970e-01  0 
 6.054335e-02  -1.368307e-01  0 
 6.391880e-02  -1.108917e-01  0 
 7.875210e-02  -1.133020e-01  0 
 7.865487e-02  -1.222035e-01  0 
VECTORS displacement_ITER3 FLOAT
 3.250950e-02  -4.294912e-02  0 
 3.279318e-02  -6.362988e-02  0 
 3.236927e-02  -3.397283e-02  0 
 3.243194e-02  -3.845621e-02  0 
 2.250479e-02  -4.290184e-02  0 
 2.753888e-02  -4.290544e-02  0 
 3.693409e-02  -4.299398e-02  0 
 4.143810e-02  -4.303138e-02  0 
 3.261482e-02  -4.799179e-02  0 
 3.269586e-02  -5.310651e-02  0 
 3.275664e-02  -5.831392e-02  0 
 2.564654e-02  -4.046606e-02  0 
 3.019811e-02  -4.341766e-02  0 
 2.869586e-02  -3.998335e-02  0 
 2.851776e-02  -3.889897e-02  0 
 2.734018e-02  -4.346747e-02  0 
 3.136974e-02  -4.167965e-02  0 
 3.591774e-02  -3.841817e-02  0 
 3.922864e-02  -3.997181e-02  0 
 4.262648e-02  -3.866811e-02  0 
 3.822401e-02  -3.555466e-02  0 
 2.600568e-02  -4.649606e-02  0 
 2.248191e-02  -4.745810e-02  0 
 2.913541e-02  -4.981582e-02  0 
 2.873839e-02  -5.477366e-02  0 
 2.510345e-02  -5.105264e-02  0 
 2.254937e-02  -5.646902e-02  0 
 2.775309e-02  -6.000741e-02  0 
 2.956344e-02  -4.600388e-02  0 
 4.001825e-02  -4.524069e-02  0 
 4.059647e-02  -5.097245e-02  0 
VECTORS displacement_ITER4 FLOAT
 9.969330e-03  -1.492087e-02  0 
 1.020122e-02  -2.266876e-02  0 
 9.793956e-03  -1.244730e-02  0 
 9.873766e-03  -1.368476e-02  0 
 6.334218e-03  -1.481924e-02  0 
 8.209610e-03  -1.486397e-02  0 
 1.111195e-02  -1.495800e-02  0 
 1.232921e-02  -1.498185e-02  0 
 1.007895e-02  -1.676142e-02  0 
 1.014517e-02  -1.866821e-02  0 
 1.017991e-02  -2.061816e-02  0 
 7.309923e-03  -1.353951e-02  0 
 4.826796e-03  -1.253165e-02  0 
 8.951981e-03  -1.357942e-02  0 
 9.089690e-03  -1.271256e-02  0 
 6.199722e-03  -1.105067e-02  0 
 9.725178e-03  -1.205271e-02  0 
 1.081988e-02  -1.372930e-02  0 
 1.172498e-02  -1.416029e-02  0 
 1.264214e-02  -1.383175e-02  0 
 1.143595e-02  -1.294836e-02  0 
 7.650234e-03  -1.618095e-02  0 
 6.333914e-03  -1.653164e-02  0 
 8.806400e-03  -1.742087e-02  0 
 8.670548e-03  -1.928316e-02  0 
 7.321452e-03  -1.788250e-02  0 
 6.379755e-03  -1.992494e-02  0 
 8.303688e-03  -2.124973e-02  0 
 8.948147e-03  -1.600098e-02  0 
 1.351654e-02  -1.443356e-02  0 
 1.429178e-02  -1.739417e-02  0 
VECTORS displacement_ITER5 FLOAT
 4.998099e-03  -7.086407e-03  0 
 5.249942e-03  -9.496033e-03  0 
 4.804934e-03  -2.277082e-03  0 
 4.894877e-03  -4.683407e-03  0 
 4.020762e-03  -6.914595e-03  0 
 4.582627e-03  -6.986577e-03  0 
 7.321716e-03  -7.162199e-03  0 
 9.769466e-03  -7.247530e-03  0 
 5.127573e-03  -7.568020e-03  0 
 5.202811e-03  -8.145048e-03  0 
 5.237416e-03  -8.777936e-03  0 
 3.529303e-03  -5.915860e-03  0 
 2.637746e-03  -5.603425e-03  0 
 4.436101e-03  -5.465897e-03  0 
 4.454406e-03  -4.129323e-03  0 
 2.262481e-03  -4.069937e-03  0 
 5.208184e-03  -1.002040e-03  0 
 6.753190e-03  -4.710969e-03  0 
 8.547951e-03  -5.561642e-03  0 
 1.040376e-02  -4.865521e-03  0 
 7.992154e-03  -3.158479e-03  0 
 4.430333e-03  -7.354663e-03  0 
 4.023001e-03  -7.453144e-03  0 
 4.773959e-03  -7.736735e-03  0 
 4.744107e-03  -8.332237e-03  0 
 4.334302e-03  -7.879714e-03  0 
 4.051573e-03  -8.550625e-03  0 
 4.627307e-03  -8.975921e-03  0 
 4.793736e-03  -7.313567e-03  0 
 9.135545e-03  -4.726064e-03  0 
 9.031146e-03  -6.043283e-03  0 
VECTORS displacement_ITER6 FLOAT
 3.164198e-03  -6.191140e-03  0 
 3.422363e-03  -7.563205e-03  0 
 2.893896e-03  -4.662348e-03  0 
 3.026525e-03  -5.451780e-03  0 
 2.648185e-03  -5.927203e-03  0 
 3.005045e-03  -6.041676e-03  0 
 3.817819e-03  -6.273271e-03  0 
 4.509550e-03  -6.280466e-03  0 
 3.309672e-03  -6.397410e-03  0 
 3.384622e-03  -6.730891e-03  0 
 3.415537e-03  -7.114890e-03  0 
 2.633455e-03  -5.176863e-03  0 
 2.255053e-03  -4.596181e-03  0 
 2.864795e-03  -5.428902e-03  0 
 2.686819e-03  -4.934233e-03  0 
 2.182711e-03  -4.329902e-03  0 
 2.535380e-03  -4.403947e-03  0 
 3.613342e-03  -5.552120e-03  0 
 4.173956e-03  -5.830128e-03  0 
 4.739151e-03  -5.645420e-03  0 
 3.993602e-03  -5.075381e-03  0 
 2.929188e-03  -6.241734e-03  0 
 2.666697e-03  -6.279644e-03  0 
 3.129585e-03  -6.477933e-03  0 
 3.119573e-03  -6.840349e-03  0 
 2.884752e-03  -6.560527e-03  0 
 2.740612e-03  -6.972141e-03  0 
 3.053131e-03  -7.232877e-03  0 
 3.126525e-03  -6.233337e-03  0 
 6.270856e-03  -3.421388e-03  0 
 7.117367e-03  -4.023677e-03  0 
VECTORS displacement_ITER7 FLOAT
 2.744842e-03  -5.288661e-03  0 
 3.005340e-03  -6.022881e-03  0 
 2.503767e-03  -4.242916e-03  0 
 2.622059e-03  -4.790288e-03  0 
 2.559277e-03  -5.055724e-03  0 
 2.739183e-03  -5.149492e-03  0 
 3.166958e-03  -5.366529e-03  0 
 3.655196e-03  -5.413483e-03  0 
 2.878619e-03  -5.330489e-03  0 
 2.952955e-03  -5.496160e-03  0 
 2.991062e-03  -5.720641e-03  0 
 2.305459e-03  -4.753840e-03  0 
 1.822118e-03  -4.416524e-03  0 
 2.532440e-03  -4.831940e-03  0 
 2.383881e-03  -4.423446e-03  0 
 1.648595e-03  -3.859009e-03  0 
 2.191963e-03  -3.429102e-03  0 
 3.021415e-03  -4.883773e-03  0 
 3.404012e-03  -5.074569e-03  0 
 3.793111e-03  -4.949596e-03  0 
 3.279139e-03  -4.561087e-03  0 
 2.711222e-03  -5.229515e-03  0 
 2.578644e-03  -5.234697e-03  0 
 2.809196e-03  -5.350386e-03  0 
 2.811652e-03  -5.547914e-03  0 
 2.693801e-03  -5.390708e-03  0 
 2.616880e-03  -5.625150e-03  0 
 2.773712e-03  -5.783941e-03  0 
 2.794392e-03  -5.235875e-03  0 
 5.612709e-03  -2.469179e-03  0 
 6.571197e-03  -2.524066e-03  0 
VECTORS displacement_ITER8 FLOAT
 2.510299e-03  -4.826649e-03  0 
 2.748294e-03  -5.905195e-03  0 
 2.307975e-03  -3.757255e-03  0 
 2.406209e-03  -4.305193e-03  0 
 2.154521e-03  -4.607760e-03  0 
 2.411611e-03  -4.695940e-03  0 
 2.973915e-03  -4.915988e-03  0 
 3.539853e-03  -4.999430e-03  0 
 2.636776e-03  -4.959618e-03  0 
 2.707042e-03  -5.210961e-03  0 
 2.739887e-03  -5.519023e-03  0 
 2.083541e-03  -4.261722e-03  0 
 1.659977e-03  -4.117027e-03  0 
 2.304452e-03  -4.321331e-03  0 
 2.208156e-03  -3.909352e-03  0 
 1.689458e-03  -3.415380e-03  0 
 2.090002e-03  -3.157287e-03  0 
 2.814162e-03  -4.378839e-03  0 
 3.236253e-03  -4.590658e-03  0 
 3.680586e-03  -4.445391e-03  0 
 3.091064e-03  -4.023380e-03  0 
 2.357301e-03  -4.837012e-03  0 
 2.167143e-03  -4.864541e-03  0 
 2.506877e-03  -5.012487e-03  0 
 2.501303e-03  -5.292540e-03  0 
 2.320178e-03  -5.074915e-03  0 
 2.196254e-03  -5.397337e-03  0 
 2.449495e-03  -5.608759e-03  0 
 2.501119e-03  -4.834353e-03  0 
 5.625584e-03  -2.225111e-03  0 
 6.665106e-03  -2.453978e-03  0 
VECTORS displacement_ITER9 FLOAT
 2.501863e-03  -4.719968e-03  0 
 2.760111e-03  -5.755876e-03  0 
 2.296876e-03  -3.694222e-03  0 
 2.397274e-03  -4.216448e-03  0 
 2.216020e-03  -4.505991e-03  0 
 2.431109e-03  -4.590366e-03  0 
 2.947325e-03  -4.811648e-03  0 
 3.502544e-03  -4.898335e-03  0 
 2.632513e-03  -4.827409e-03  0 
 2.709100e-03  -5.059148e-03  0 
 2.746596e-03  -5.358648e-03  0 
 2.146672e-03  -4.084262e-03  0 
 1.875445e-03  -3.851356e-03  0 
 2.288204e-03  -4.217710e-03  0 
 2.147725e-03  -3.846326e-03  0 
 1.835712e-03  -3.450423e-03  0 
 1.967630e-03  -3.238617e-03  0 
 2.790156e-03  -4.289946e-03  0 
 3.204490e-03  -4.493810e-03  0 
 3.659897e-03  -4.331500e-03  0 
 3.066653e-03  -3.934354e-03  0 
 2.385728e-03  -4.708848e-03  0 
 2.223227e-03  -4.735576e-03  0 
 2.518162e-03  -4.868958e-03  0 
 2.510780e-03  -5.137025e-03  0 
 2.343662e-03  -4.931930e-03  0 
 2.208906e-03  -5.261489e-03  0 
 2.450326e-03  -5.448977e-03  0 
 2.509486e-03  -4.709988e-03  0 
 5.527671e-03  -2.076864e-03  0 
 6.419943e-03  -1.928086e-03  0 
VECTORS displacement_ITER10 FLOAT
 2.501444e-03  -4.666124e-03  0 
 2.750892e-03  -5.683053e-03  0 
 2.291044e-03  -3.644184e-03  0 
 2.394611e-03  -4.165356e-03  0 
 2.198767e-03  -4.446410e-03  0 
 2.426190e-03  -4.534402e-03  0 
 2.939263e-03  -4.753541e-03  0 
 3.492649e-03  -4.842021e-03  0 
 2.631794e-03  -4.777653e-03  0 
 2.705912e-03  -5.011972e-03  0 
 2.740779e-03  -5.307849e-03  0 
 2.143068e-03  -4.045366e-03  0 
 1.902379e-03  -3.822454e-03  0 
 2.298717e-03  -4.165926e-03  0 
 2.178180e-03  -3.805764e-03  0 
 1.839058e-03  -3.442350e-03  0 
 2.055317e-03  -3.222651e-03  0 
 2.786904e-03  -4.241345e-03  0 
 3.194282e-03  -4.437479e-03  0 
 3.640192e-03  -4.275635e-03  0 
 3.061218e-03  -3.891905e-03  0 
 2.379060e-03  -4.658257e-03  0 
 2.210997e-03  -4.682963e-03  0 
 2.515317e-03  -4.821750e-03  0 
 2.509251e-03  -5.090026e-03  0 
 2.339061e-03  -4.884114e-03  0 
 2.208421e-03  -5.207264e-03  0 
 2.452951e-03  -5.399097e-03  0 
 2.506993e-03  -4.658642e-03  0 
 5.469047e-03  -2.035729e-03  0 
 6.412565e-03  -1.837046e-03  0 
VECTORS displacement_ITER11 FLOAT
 2.497449e-03  -4.678113e-03  0 
 2.749586e-03  -5.687310e-03  0 
 2.287119e-03  -3.653330e-03  0 
 2.390841e-03  -4.175344e-03  0 
 2.198885e-03  -4.457552e-03  0 
 2.425944e-03  -4.546403e-03  0 
 2.937509e-03  -4.765454e-03  0 
 3.493594e-03  -4.853328e-03  0 
 2.627381e-03  -4.785774e-03  0 
 2.701260e-03  -5.015313e-03  0 
 2.738219e-03  -5.309471e-03  0 
 2.148431e-03  -4.017604e-03  0 
 1.883659e-03  -3.762090e-03  0 
 2.290031e-03  -4.164500e-03  0 
 2.153536e-03  -3.796223e-03  0 
 1.847124e-03  -3.385060e-03  0 
 1.984984e-03  -3.243120e-03  0 
 2.784672e-03  -4.251040e-03  0 
 3.194134e-03  -4.447378e-03  0 
 3.640316e-03  -4.285618e-03  0 
 3.061091e-03  -3.899169e-03  0 
 2.379655e-03  -4.668655e-03  0 
 2.213812e-03  -4.691522e-03  0 
 2.513370e-03  -4.828723e-03  0 
 2.507237e-03  -5.090818e-03  0 
 2.341207e-03  -4.890572e-03  0 
 2.210807e-03  -5.201050e-03  0 
 2.452939e-03  -5.398003e-03  0 
 2.505113e-03  -4.668601e-03  0 
 5.484294e-03  -2.039338e-03  0 
 6.385691e-03  -1.847523e-03  0 
VECTORS displacement_ITER12 FLOAT
 2.497041e-03  -4.676451e-03  0 
 2.749483e-03  -5.687198e-03  0 
 2.286624e-03  -3.652024e-03  0 
 2.390431e-03  -4.173744e-03  0 
 2.199025e-03  -4.455979e-03  0 
 2.425826e-03  -4.544780e-03  0 
 2.937144e-03  -4.763881e-03  0 
 3.493023e-03  -4.851359e-03  0 
 2.627029e-03  -4.783829e-03  0 
 2.701135e-03  -5.013335e-03  0 
 2.738308e-03  -5.307785e-03  0 
 2.144142e-03  -4.022021e-03  0 
 1.869663e-03  -3.769457e-03  0 
 2.288620e-03  -4.165448e-03  0 
 2.152191e-03  -3.796582e-03  0 
 1.832824e-03  -3.375648e-03  0 
 1.980996e-03  -3.242525e-03  0 
 2.784214e-03  -4.249427e-03  0 
 3.193853e-03  -4.445767e-03  0 
 3.639536e-03  -4.284408e-03  0 
 3.060937e-03  -3.897153e-03  0 
 2.379587e-03  -4.666884e-03  0 
 2.214611e-03  -4.689508e-03  0 
 2.513110e-03  -4.826610e-03  0 
 2.507051e-03  -5.088750e-03  0 
 2.341041e-03  -4.888283e-03  0 
 2.208715e-03  -5.200785e-03  0 
 2.452036e-03  -5.396928e-03  0 
 2.504863e-03  -4.666761e-03  0 
 5.484487e-03  -2.037079e-03  0 
 6.386149e-03  -1.846827e-03  0 
VECTORS displacement_ITER13 FLOAT
 2.497150e-03  -4.676548e-03  0 
 2.749509e-03  -5.687275e-03  0 
 2.286720e-03  -3.652062e-03  0 
 2.390526e-03  -4.173841e-03  0 
 2.199135e-03  -4.455989e-03  0 
 2.425885e-03  -4.544861e-03  0 
 2.937237e-03  -4.763967e-03  0 
 3.493050e-03  -4.851433e-03  0 
 2.627137e-03  -4.783979e-03  0 
 2.701196e-03  -5.013480e-03  0 
 2.738323e-03  -5.307960e-03  0 
 2.144139e-03  -4.022828e-03  0 
 1.876261e-03  -3.771491e-03  0 
 2.288755e-03  -4.165880e-03  0 
 2.152594e-03  -3.797529e-03  0 
 1.833161e-03  -3.379809e-03  0 
 1.983081e-03  -3.242098e-03  0 
 2.784316e-03  -4.249541e-03  0 
 3.193913e-03  -4.445890e-03  0 
 3.639478e-03  -4.284632e-03  0 
 3.060988e-03  -3.897330e-03  0 
 2.379661e-03  -4.666966e-03  0 
 2.214614e-03  -4.689626e-03  0 
 2.513204e-03  -4.826794e-03  0 
 2.507069e-03  -5.088950e-03  0 
 2.341035e-03  -4.888631e-03  0 
 2.208634e-03  -5.200887e-03  0 
 2.452110e-03  -5.397056e-03  0 
 2.504949e-03  -4.666882e-03  0 
 5.484564e-03  -2.037185e-03  0 
 6.386186e-03  -1.846929e-03  0 
VECTORS displacement_ITER14 FLOAT
 2.497118e-03  -4.676538e-03  0 
 2.749476e-03  -5.687287e-03  0 
 2.286690e-03  -3.652062e-03  0 
 2.390497e-03  -4.173833e-03  0 
 2.199084e-03  -4.456010e-03  0 
 2.425841e-03  -4.544854e-03  0 
 2.937206e-03  -4.763958e-03  0 
 3.493023e-03  -4.851425e-03  0 
 2.627106e-03  -4.783982e-03  0 
 2.701166e-03  -5.013495e-03  0 
 2.738291e-03  -5.307968e-03  0 
 2.143961e-03  -4.023067e-03  0 
 1.877077e-03  -3.772488e-03  0 
 2.288718e-03  -4.165909e-03  0 
 2.152585e-03  -3.797349e-03  0 
 1.832423e-03  -3.378668e-03  0 
 1.982754e-03  -3.241331e-03  0 
 2.784284e-03  -4.249531e-03  0 
 3.193884e-03  -4.445879e-03  0 
 3.639451e-03  -4.284617e-03  0 
 3.060960e-03  -3.897315e-03  0 
 2.379611e-03  -4.666962e-03  0 
 2.214587e-03  -4.689591e-03  0 
 2.513167e-03  -4.826800e-03  0 
 2.507042e-03  -5.088963e-03  0 
 2.341002e-03  -4.888619e-03  0 
 2.208613e-03  -5.200926e-03  0 
 2.452076e-03  -5.397066e-03  0 
 2.504910e-03  -4.666880e-03  0 
 5.484535e-03  -2.037186e-03  0 
 6.386158e-03  -1.846934e-03  0 
CELL_DATA 43
TENSORS element_stresses FLOAT
 6.905446e-04  -9.593492e-04  0 
 -9.593492e-04  -1.482128e-04  0 
 0  0  0 

 3.398382e-04  -1.070841e-03  0 
 -1.070841e-03  -2.888285e-04  0 
 0  0  0 

 6.096953e-04  -1.237706e-03  0 
 -1.237706e-03  -3.438264e-04  0 
 0  0  0 

 6.930649e-04  -9.357225e-04  0 
 -9.357225e-04  -4.955845e-04  0 
 0  0  0 

 3.177800e-04  -9.524578e-04  0 
 -9.524578e-04  -3.248181e-04  0 
 0  0  0 

 6.334875e-04  -1.108409e-03  0 
 -1.108409e-03  -2.173649e-04  0 
 0  0  0 

 6.133812e-04  -1.051371e-03  0 
 -1.051371e-03  -6.133450e-04  0 
 0  0  0 

 7.207273e-04  -9.116471e-04  0 
 -9.116471e-04  -6.002923e-04  0 
 0  0  0 

 5.253508e-04  -1.023242e-03  0 
 -1.023242e-03  -5.442476e-04  0 
 0  0  0 

 7.318863e-04  -9.526771e-04  0 
 -9.526771e-04  -6.134522e-04  0 
 0  0  0 

 5.777055e-04  -1.015947e-03  0 
 -1.015947e-03  -5.974880e-04  0 
 0  0  0 

 6.512075e-04  -1.001335e-03  0 
 -1.001335e-03  -3.537690e-04  0 
 0  0  0 

 3.106729e-01  -4.385735e-02  0 
 -4.385735e-02  -3.485084e-01  0 
 0  0  0 

 6.862775e-02  6.375398e-02  0 
 6.375398e-02  -3.292811e-01  0 
 0  0  0 

 4.794220e-02  -2.536852e-02  0 
 -2.536852e-02  -1.058255e-02  0 
 0  0  0 

 9.556235e-02  1.451560e-01  0 
 1.451560e-01  -1.169572e-01  0 
 0  0  0 

 1.341837e-01  1.190950e-02  0 
 1.190950e-02  -9.288569e-02  0 
 0  0  0 

 3.236927e-01  1.502756e-02  0 
 1.502756e-02  -3.426471e-01  0 
 0  0  0 

 1.264902e-01  -1.396849e-01  0 
 -1.396849e-01  -3.117302e-01  0 
 0  0  0 

 3.168178e-02  3.238992e-02  0 
 3.238992e-02  -4.886813e-02  0 
 0  0  0 

 9.153331e-03  1.021777e-01  0 
 1.021777e-01  -1.522880e-02  0 
 0  0  0 

 2.179915e-02  5.485085e-02  0 
 5.485085e-02  -3.488364e-01  0 
 0  0  0 

 2.689340e-02  -5.551700e-02  0 
 -5.551700e-02  -1.400280e-01  0 
 0  0  0 

 -3.401945e-02  -5.391842e-02  0 
 -5.391842e-02  -1.536700e-01  0 
 0  0  0 

 2.466602e-01  -7.479699e-02  0 
 -7.479699e-02  -1.652659e-01  0 
 0  0  0 

 1.276180e-01  -7.920327e-02  0 
 -7.920327e-02  -6.961048e-02  0 
 0  0  0 

 -1.593842e-04  -9.229222e-02  0 
 -9.229222e-02  1.107700e-02  0 
 0  0  0 

 -7.808734e-05  -2.340839e-01  0 
 -2.340839e-01  -1.493935e-01  0 
 0  0  0 

 1.862642e-01  -1.259578e-01  0 
 -1.259578e-01  -4.708557e-01  0 
 0  0  0 

 4.042010e-01  4.112249e-02  0 
 4.112249e-02  -3.858320e-01  0 
 0  0  0 

 1.714453e-02  -7.855915e-03  0 
 -7.855915e-03  -9.504496e-02  0 
 0  0  0 

 -1.084527e-02  -3.063589e-02  0 
 -3.063589e-02  -5.704588e-02  0 
 0  0  0 

 7.208435e-02  -1.123678e-01  0 
 -1.123678e-01  -1.968870e-01  0 
 0  0  0 

 1.041528e-01  -1.065527e-01  0 
 -1.065527e-01  -8.832915e-02  0 
 0  0  0 

 4.295578e-02  -4.590587e-02  0 
 -4.590587e-02  -6.078019e-02  0 
 0  0  0 

 4.676620e-02  -1.587222e-01  0 
 -1.587222e-01  -5.996028e-03  0 
 0  0  0 

 -3.002393e-02  -1.460205e-01  0 
 -1.460205e-01  5.087942e-02  0 
 0  0  0 

 -2.207732e-02  -1.813623e-01  0 
 -1.813623e-01  4.019302e-02  0 
 0  0  0 

 1.417721e-02  1.247360e-02  0 
 1.247360e-02  3.903294e-03  0 
 0  0  0 

 5.344509e-03  1.352785e-02  0 
 1.352785e-02  1.682756e-02  0 
 0  0  0 

 1.319647e-02  1.337729e-02  0 
 1.337729e-02  1.566946e-02  0 
 0  0  0 

 1.419032e-02  1.211751e-02  0 
 1.211751e-02  3.907418e-03  0 
 0  0  0 

 4.091941e-03  8.375365e-03  0 
 8.375365e-03  1.190663e-02  0 
 0  0  0 

TENSORS element_stresses FLOAT
 6.905446e-04  -9.593492e-04  0 
 -9.593492e-04  -1.482128e-04  0 
 0  0  0 

 3.398382e-04  -1.070841e-03  0 
 -1.070841e-03  -2.888285e-04  0 
 0  0  0 

 6.096953e-04  -1.237706e-03  0 
 -1.237706e-03  -3.438264e-04  0 
 0  0  0 

 6.930649e-04  -9.357225e-04  0 
 -9.357225e-04  -4.955845e-04  0 
 0  0  0 

 3.177800e-04  -9.524578e-04  0 
 -9.524578e-04  -3.248181e-04  0 
 0  0  0 

 6.334875e-04  -1.108409e-03  0 
 -1.108409e-03  -2.173649e-04  0 
 0  0  0 

 6.133812e-04  -1.051371e-03  0 
 -1.051371e-03  -6.133450e-04  0 
 0  0  0 

 7.207273e-04  -9.116471e-04  0 
 -9.116471e-04  -6.002923e-04  0 
 0  0  0 

 5.253508e-04  -1.023242e-03  0 
 -1.023242e-03  -5.442476e-04  0 
 0  0  0 

 7.318863e-04  -9.526771e-04  0 
 -9.526771e-04  -6.134522e-04  0 
 0  0  0 

 5.777055e-04  -1.015947e-03  0 
 -1.015947e-03  -5.974880e-04  0 
 0  0  0 

 6.512075e-04  -1.001335e-03  0 
 -1.001335e-03  -3.537690e-04  0 
 0  0  0 

 3.106729e-01  -4.385735e-02  0 
 -4.385735e-02  -3.485084e-01  0 
 0  0  0 

 6.862775e-02  6.375398e-02  0 
 6.375398e-02  -3.292811e-01  0 
 0  0  0 

 4.794220e-02  -2.536852e-02  0 
 -2.536852e-02  -1.058255e-02  0 
 0  0  0 

 9.556235e-02  1.451560e-01  0 
 1.451560e-01  -1.169572e-01  0 
 0  0  0 

 1.341837e-01  1.190950e-02  0 
 1.190950e-02  -9.288569e-02  0 
 0  0  0 

 3.236927e-01  1.502756e-02  0 
 1.502756e-02  -3.426471e-01  0 
 0  0  0 

 1.264902e-01  -1.396849e-01  0 
 -1.396849e-01  -3.117302e-01  0 
 0  0  0 

 3.168178e-02  3.238992e-02  0 
 3.238992e-02  -4.886813e-02  0 
 0  0  0 

 9.153331e-03  1.021777e-01  0 
 1.021777e-01  -1.522880e-02  0 
 0  0  0 

 2.179915e-02  5.485085e-02  0 
 5.485085e-02  -3.488364e-01  0 
 0  0  0 

 2.689340e-02  -5.551700e-02  0 
 -5.551700e-02  -1.400280e-01  0 
 0  0  0 

 -3.401945e-02  -5.391842e-02  0 
 -5.391842e-02  -1.536700e-01  0 
 0  0  0 

 2.466602e-01  -7.479699e-02  0 
 -7.479699e-02  -1.652659e-01  0 
 0  0  0 

 1.276180e-01  -7.920327e-02  0 
 -7.920327e-02  -6.961048e-02  0 
 0  0  0 

 -1.593842e-04  -9.229222e-02  0 
 -9.229222e-02  1.107700e-02  0 
 0  0  0 

 -7.808734e-05  -2.340839e-01  0 
 -2.340839e-01  -1.493935e-01  0 
 0  0  0 

 1.862642e-01  -1.259578e-01  0 
 -1.259578e-01  -4.708557e-01  0 
 0  0  0 

 4.042010e-01  4.112249e-02  0 
 4.112249e-02  -3.858320e-01  0 
 0  0  0 

 1.714453e-02  -7.855915e-03  0 
 -7.855915e-03  -9.504496e-02  0 
 0  0  0 

 -1.084527e-02  -3.063589e-02  0 
 -3.063589e-02  -5.704588e-02  0 
 0  0  0 

 7.208435e-02  -1.123678e-01  0 
 -1.123678e-01  -1.968870e-01  0 
 0  0  0 

 1.041528e-01  -1.065527e-01  0 
 -1.065527e-01  -8.832915e-02  0 
 0  0  0 

 4.295578e-02  -4.590587e-02  0 
 -4.590587e-02  -6.078019e-02  0 
 0  0  0 

 4.676620e-02  -1.587222e-01  0 
 -1.587222e-01  -5.996028e-03  0 
 0  0  0 

 -3.002393e-02  -1.460205e-01  0 
 -1.460205e-01  5.087942e-02  0 
 0  0  0 

 -2.207732e-02  -1.813623e-01  0 
 -1.813623e-01  4.019302e-02  0 
 0  0  0 

 1.417721e-02  1.247360e-02  0 
 1.247360e-02  3.903294e-03  0 
 0  0  0 

 5.344509e-03  1.352785e-02  0 
 1.352785e-02  1.682756e-02  0 
 0  0  0 

 1.319647e-02  1.337729e-02  0 
 1.337729e-02  1.566946e-02  0 
 0  0  0 

 1.419032e-02  1.211751e-02  0 
 1.211751e-02  3.907418e-03  0 
 0  0  0 

 4.091941e-03  8.375365e-03  0 
 8.375365e-03  1.190663e-02  0 
 0  0  0 

