# vtk DataFile Version 3.1
this is an vtk file created by FEMAC
ASCII
DATASET UNSTRUCTURED_GRID
POINTS 30 FLOAT
4.000000 4.000000 0.000000
3.500000 4.000000 0.000000
3.750000 4.000000 0.000000
4.000000 3.500000 0.000000
4.000000 3.750000 0.000000
4.000000 4.250000 0.000000
4.000000 4.500000 0.000000
4.250000 4.000000 0.000000
4.500000 4.000000 0.000000
4.750000 4.000000 0.000000
3.813081 3.669072 0.000000
3.660928 3.805846 0.000000
3.844802 3.844984 0.000000
3.630781 4.172236 0.000000
3.755447 4.375936 0.000000
3.824845 4.167874 0.000000
3.536362 4.315974 0.000000
4.195000 3.745000 0.000000
4.375084 3.791072 0.000000
4.300774 3.567728 0.000000
4.588195 3.700568 0.000000
4.178472 4.325972 0.000000
4.225000 4.500000 0.000000
4.341551 4.171968 0.000000
4.581177 4.216647 0.000000
4.398247 4.399662 0.000000
4.401594 4.630720 0.000000
4.661856 4.507893 0.000000
4.832172 4.245757 0.000000
4.154005 4.149588 0.000000
CELLS 43 172 
3 10  3  4
3 11  2  1
3 2 12  0
3 4 12 10
3 12  4  0
3 11 12  2
3 11 10 12
3 2 13  1
3 15  2  0
3 5 15  0
3 15 13  2
3 6 14  5
3 15  5 14
3 14 13 15
3 14 16 13
3 3 17  4
3 7 18  8
3 17 18  7
3 3 19 17
3 17 19 18
3 17  0  4
3 7  0 17
3 19 20 18
3 8 20  9
3 18 20  8
3 21  6  5
3 21 22  6
3 21 25 22
3 23  7  8
3 9 24  8
3 23 25 21
3 22 25 26
3 29  5  0
3 7 29  0
3 5 29 21
3 28 24  9
3 23 29  7
3 23 21 29
3 23  8 24
3 23 24 25
3 26 25 27
3 27 25 24
3 27 24 28
CELL_TYPES 43
5 5 5 5 5 5 5 5 5 5 5 5 5 5 5 5 5 5 5 5 5 5 5 5 5 5 5 5 5 5 5 5 5 5 5 5 5 5 5 5 5 5 5 
POINT_DATA 30
VECTORS displacement_ITER1 FLOAT
 4.929706e-02  -2.323337e-01  0 
 4.938112e-02  -1.981359e-01  0 
 4.933897e-02  -2.152417e-01  0 
 1.533882e-02  -2.322635e-01  0 
 3.229831e-02  -2.322882e-01  0 
 7.089124e-02  -2.323639e-01  0 
 9.251586e-02  -2.323768e-01  0 
 4.927631e-02  -2.539970e-01  0 
 4.927047e-02  -2.756448e-01  0 
 4.926926e-02  -2.972887e-01  0 
 2.679554e-02  -2.195836e-01  0 
 3.609162e-02  -2.091975e-01  0 
 3.874805e-02  -2.217411e-01  0 
 6.177778e-02  -1.946158e-01  0 
 7.732835e-02  -1.998670e-01  0 
 6.087742e-02  -2.139539e-01  0 
 7.694241e-02  -1.715972e-01  0 
 3.321570e-02  -2.495309e-01  0 
 3.812938e-02  -2.656307e-01  0 
 2.354691e-02  -2.557205e-01  0 
 3.571481e-02  -2.845261e-01  0 
 7.747106e-02  -2.478080e-01  0 
 9.252469e-02  -2.518428e-01  0 
 6.415538e-02  -2.619201e-01  0 
 6.801888e-02  -2.826706e-01  0 
 8.384982e-02  -2.668342e-01  0 
 1.038362e-01  -2.671291e-01  0 
 9.321488e-02  -2.896569e-01  0 
 7.053865e-02  -3.044073e-01  0 
 6.222249e-02  -2.456762e-01  0 
VECTORS displacement_ITER2 FLOAT
 6.001212e-02  -1.834929e-01  0 
 6.007484e-02  -1.595140e-01  0 
 6.004419e-02  -1.715021e-01  0 
 3.630435e-02  -1.833756e-01  0 
 4.813010e-02  -1.834160e-01  0 
 7.708364e-02  -1.835520e-01  0 
 9.416976e-02  -1.835818e-01  0 
 5.999879e-02  -2.006505e-01  0 
 5.999892e-02  -2.177721e-01  0 
 6.000263e-02  -2.348868e-01  0 
 4.428449e-02  -1.745405e-01  0 
 5.077107e-02  -1.672748e-01  0 
 5.262771e-02  -1.760558e-01  0 
 6.892215e-02  -1.568805e-01  0 
 7.894100e-02  -1.600407e-01  0 
 6.870577e-02  -1.698293e-01  0 
 7.744742e-02  -1.429335e-01  0 
 4.866008e-02  -1.967589e-01  0 
 5.225996e-02  -2.097624e-01  0 
 4.136916e-02  -2.019852e-01  0 
 5.077468e-02  -2.245813e-01  0 
 8.228960e-02  -1.957643e-01  0 
 9.418549e-02  -1.989621e-01  0 
 7.176727e-02  -2.069199e-01  0 
 7.482238e-02  -2.233298e-01  0 
 8.733301e-02  -2.108096e-01  0 
 1.031241e-01  -2.110450e-01  0 
 9.473201e-02  -2.288502e-01  0 
 7.681427e-02  -2.405161e-01  0 
 7.023866e-02  -1.940689e-01  0 
VECTORS displacement_ITER3 FLOAT
 4.516408e-02  -1.223185e-01  0 
 4.522932e-02  -1.069785e-01  0 
 4.519841e-02  -1.146397e-01  0 
 3.019196e-02  -1.221275e-01  0 
 3.763832e-02  -1.221931e-01  0 
 5.786997e-02  -1.224226e-01  0 
 7.057899e-02  -1.224801e-01  0 
 4.515127e-02  -1.351531e-01  0 
 4.515611e-02  -1.479220e-01  0 
 4.516452e-02  -1.606796e-01  0 
 3.520172e-02  -1.165769e-01  0 
 3.929540e-02  -1.119593e-01  0 
 4.046999e-02  -1.175499e-01  0 
 4.865834e-02  -1.057572e-01  0 
 5.286841e-02  -1.081281e-01  0 
 5.029661e-02  -1.126057e-01  0 
 4.766245e-02  -1.031278e-01  0 
 3.785244e-02  -1.321986e-01  0 
 4.005003e-02  -1.425706e-01  0 
 3.179306e-02  -1.377827e-01  0 
 3.833302e-02  -1.550267e-01  0 
 6.175522e-02  -1.315228e-01  0 
 7.060584e-02  -1.339178e-01  0 
 5.392617e-02  -1.398312e-01  0 
 5.620159e-02  -1.520657e-01  0 
 6.551184e-02  -1.427367e-01  0 
 7.725771e-02  -1.429155e-01  0 
 7.101414e-02  -1.561727e-01  0 
 5.768437e-02  -1.648733e-01  0 
 5.278828e-02  -1.302411e-01  0 
VECTORS displacement_ITER4 FLOAT
 3.721840e-02  -1.027850e-01  0 
 3.727058e-02  -9.102026e-02  0 
 3.724695e-02  -9.688952e-02  0 
 2.584532e-02  -1.025631e-01  0 
 3.148820e-02  -1.026379e-01  0 
 4.683272e-02  -1.029110e-01  0 
 5.643699e-02  -1.029810e-01  0 
 3.720983e-02  -1.125422e-01  0 
 3.721820e-02  -1.222171e-01  0 
 3.722837e-02  -1.318789e-01  0 
 2.963246e-02  -9.836516e-02  0 
 3.273761e-02  -9.484345e-02  0 
 3.363219e-02  -9.911591e-02  0 
 3.812175e-02  -9.224116e-02  0 
 3.921865e-02  -9.476607e-02  0 
 4.052762e-02  -9.570439e-02  0 
 3.236372e-02  -9.642345e-02  0 
 3.170311e-02  -1.106503e-01  0 
 3.313516e-02  -1.190785e-01  0 
 2.602842e-02  -1.165739e-01  0 
 3.078533e-02  -1.303564e-01  0 
 4.977798e-02  -1.098013e-01  0 
 5.646759e-02  -1.116228e-01  0 
 4.385884e-02  -1.160890e-01  0 
 4.558107e-02  -1.253552e-01  0 
 5.262006e-02  -1.182930e-01  0 
 6.149634e-02  -1.184304e-01  0 
 5.677678e-02  -1.284591e-01  0 
 4.670323e-02  -1.350510e-01  0 
 4.299797e-02  -1.088180e-01  0 
VECTORS displacement_ITER5 FLOAT
 2.878537e-02  -5.455173e-02  0 
 2.879191e-02  -4.204995e-02  0 
 2.879229e-02  -4.828263e-02  0 
 1.664234e-02  -5.431210e-02  0 
 2.266945e-02  -5.438952e-02  0 
 3.525432e-02  -5.469381e-02  0 
 4.168615e-02  -5.476776e-02  0 
 2.878985e-02  -6.115765e-02  0 
 2.880461e-02  -6.766299e-02  0 
 2.881730e-02  -7.415202e-02  0 
 2.068910e-02  -4.982984e-02  0 
 2.399552e-02  -4.608744e-02  0 
 2.495446e-02  -5.063528e-02  0 
 2.955043e-02  -4.984781e-02  0 
 2.896098e-02  -5.390357e-02  0 
 3.178329e-02  -5.056680e-02  0 
 2.154828e-02  -6.144786e-02  0 
 2.313088e-02  -6.084195e-02  0 
 2.408395e-02  -6.701282e-02  0 
 1.686762e-02  -6.726173e-02  0 
 2.036800e-02  -7.705258e-02  0 
 3.723436e-02  -5.932381e-02  0 
 4.171418e-02  -6.055369e-02  0 
 3.326529e-02  -6.354638e-02  0 
 3.442191e-02  -6.977081e-02  0 
 3.913818e-02  -6.502887e-02  0 
 4.508143e-02  -6.512037e-02  0 
 4.191705e-02  -7.184802e-02  0 
 3.517587e-02  -7.627647e-02  0 
 3.268748e-02  -5.865169e-02  0 
VECTORS displacement_ITER6 FLOAT
 2.628932e-02  -4.474701e-02  0 
 2.630858e-02  -3.144105e-02  0 
 2.630232e-02  -3.807935e-02  0 
 1.337301e-02  -4.449658e-02  0 
 1.978597e-02  -4.457821e-02  0 
 3.098475e-02  -4.489160e-02  0 
 3.564662e-02  -4.495892e-02  0 
 2.629012e-02  -4.958673e-02  0 
 2.630494e-02  -5.431857e-02  0 
 2.632055e-02  -5.902925e-02  0 
 1.767830e-02  -3.972842e-02  0 
 2.119693e-02  -3.574519e-02  0 
 2.221697e-02  -4.058491e-02  0 
 2.656168e-02  -3.967843e-02  0 
 2.678461e-02  -4.470228e-02  0 
 2.863966e-02  -4.122388e-02  0 
 1.980182e-02  -4.988054e-02  0 
 2.077305e-02  -5.019481e-02  0 
 2.197447e-02  -5.467455e-02  0 
 1.546658e-02  -5.534059e-02  0 
 1.922977e-02  -6.225250e-02  0 
 3.242358e-02  -4.825570e-02  0 
 3.566860e-02  -4.915116e-02  0 
 2.954564e-02  -5.132523e-02  0 
 3.038280e-02  -5.585027e-02  0 
 3.380049e-02  -5.240341e-02  0 
 3.810719e-02  -5.246680e-02  0 
 3.580707e-02  -5.735571e-02  0 
 3.092966e-02  -6.057203e-02  0 
 2.912931e-02  -4.775806e-02  0 
VECTORS displacement_ITER7 FLOAT
 2.146218e-02  -2.920717e-02  0 
 2.147495e-02  -1.497099e-02  0 
 2.147117e-02  -2.207450e-02  0 
 7.633329e-03  -2.893761e-02  0 
 1.449680e-02  -2.902679e-02  0 
 2.586946e-02  -2.935521e-02  0 
 3.024085e-02  -2.941189e-02  0 
 2.146680e-02  -3.375666e-02  0 
 2.148570e-02  -3.818782e-02  0 
 2.150858e-02  -4.259029e-02  0 
 1.224009e-02  -2.383572e-02  0 
 1.600581e-02  -1.957344e-02  0 
 1.709972e-02  -2.475242e-02  0 
 2.390087e-02  -2.338122e-02  0 
 2.628798e-02  -2.860738e-02  0 
 2.477527e-02  -2.616673e-02  0 
 2.157952e-02  -3.000151e-02  0 
 1.571608e-02  -3.416203e-02  0 
 1.743514e-02  -3.756233e-02  0 
 1.179966e-02  -3.704634e-02  0 
 1.680829e-02  -4.127851e-02  0 
 2.721488e-02  -3.250829e-02  0 
 3.025465e-02  -3.334341e-02  0 
 2.451783e-02  -3.538725e-02  0 
 2.530011e-02  -3.962512e-02  0 
 2.849990e-02  -3.639579e-02  0 
 3.253516e-02  -3.644956e-02  0 
 3.037228e-02  -4.103552e-02  0 
 2.581169e-02  -4.403984e-02  0 
 2.412981e-02  -3.204191e-02  0 
VECTORS displacement_ITER8 FLOAT
 1.699846e-02  -2.312140e-02  0 
 1.699505e-02  -1.015795e-02  0 
 1.699855e-02  -1.662147e-02  0 
 4.446148e-03  -2.283357e-02  0 
 1.066485e-02  -2.292935e-02  0 
 2.116517e-02  -2.327701e-02  0 
 2.528853e-02  -2.333097e-02  0 
 1.701071e-02  -2.742708e-02  0 
 1.703467e-02  -3.160487e-02  0 
 1.706270e-02  -3.574957e-02  0 
 8.614639e-03  -1.821586e-02  0 
 1.202789e-02  -1.434377e-02  0 
 1.302385e-02  -1.905321e-02  0 
 2.074558e-02  -1.814280e-02  0 
 2.394077e-02  -2.286383e-02  0 
 2.082098e-02  -2.090548e-02  0 
 2.096001e-02  -2.286322e-02  0 
 1.178259e-02  -2.740464e-02  0 
 1.358087e-02  -3.016890e-02  0 
 8.976396e-03  -2.886328e-02  0 
 1.421301e-02  -3.152654e-02  0 
 2.243337e-02  -2.625261e-02  0 
 2.529904e-02  -2.703976e-02  0 
 1.989049e-02  -2.896815e-02  0 
 2.062832e-02  -3.296281e-02  0 
 2.364274e-02  -2.991957e-02  0 
 2.744564e-02  -2.996753e-02  0 
 2.540300e-02  -3.429241e-02  0 
 2.111088e-02  -3.711844e-02  0 
 1.952438e-02  -2.581074e-02  0 
VECTORS displacement_ITER9 FLOAT
 1.495973e-02  -2.311693e-02  0 
 1.494812e-02  -1.399025e-02  0 
 1.495335e-02  -1.853122e-02  0 
 6.263306e-03  -2.280645e-02  0 
 1.054432e-02  -2.291131e-02  0 
 1.801962e-02  -2.328491e-02  0 
 2.102989e-02  -2.334143e-02  0 
 1.498098e-02  -2.631661e-02  0 
 1.501157e-02  -2.937779e-02  0 
 1.504457e-02  -3.240231e-02  0 
 9.118151e-03  -1.963990e-02  0 
 1.147528e-02  -1.693945e-02  0 
 1.217035e-02  -2.023282e-02  0 
 1.809446e-02  -1.917382e-02  0 
 2.125495e-02  -2.281383e-02  0 
 1.793071e-02  -2.167772e-02  0 
 1.963216e-02  -2.107152e-02  0 
 1.147288e-02  -2.606463e-02  0 
 1.298214e-02  -2.779461e-02  0 
 1.025175e-02  -2.620369e-02  0 
 1.459732e-02  -2.716531e-02  0 
 1.895007e-02  -2.546737e-02  0 
 2.103916e-02  -2.604784e-02  0 
 1.709613e-02  -2.745336e-02  0 
 1.763689e-02  -3.037635e-02  0 
 1.983032e-02  -2.815403e-02  0 
 2.259911e-02  -2.818603e-02  0 
 2.110419e-02  -3.134687e-02  0 
 1.799130e-02  -3.340459e-02  0 
 1.682752e-02  -2.513142e-02  0 
VECTORS displacement_ITER10 FLOAT
 6.129282e-03  -1.575283e-02  0 
 6.100024e-03  -9.214249e-03  0 
 6.112087e-03  -1.245675e-02  0 
 2.099297e-05  -1.542628e-02  0 
 2.999882e-03  -1.553721e-02  0 
 8.446983e-03  -1.593168e-02  0 
 1.070480e-02  -1.599255e-02  0 
 6.161827e-03  -1.820620e-02  0 
 6.199274e-03  -2.051228e-02  0 
 6.235585e-03  -2.277972e-02  0 
 1.993358e-03  -1.323463e-02  0 
 3.639777e-03  -1.132425e-02  0 
 4.133576e-03  -1.366321e-02  0 
 9.019411e-03  -1.295336e-02  0 
 1.177258e-02  -1.554468e-02  0 
 8.600180e-03  -1.491404e-02  0 
 1.119918e-02  -1.356860e-02  0 
 3.728643e-03  -1.788976e-02  0 
 4.862683e-03  -1.905886e-02  0 
 3.150189e-03  -1.776231e-02  0 
 6.507706e-03  -1.780171e-02  0 
 9.149867e-03  -1.757951e-02  0 
 1.071402e-02  -1.802147e-02  0 
 7.761849e-03  -1.907109e-02  0 
 8.171049e-03  -2.126800e-02  0 
 9.808413e-03  -1.960286e-02  0 
 1.187604e-02  -1.962439e-02  0 
 1.075309e-02  -2.199458e-02  0 
 8.439524e-03  -2.353196e-02  0 
 7.557381e-03  -1.731453e-02  0 
VECTORS displacement_ITER11 FLOAT
 6.806059e-03  -1.396506e-02  0 
 6.774222e-03  -9.778194e-03  0 
 6.786591e-03  -1.184299e-02  0 
 3.062173e-03  -1.362815e-02  0 
 4.854436e-03  -1.374285e-02  0 
 8.348708e-03  -1.415125e-02  0 
 9.829041e-03  -1.421617e-02  0 
 6.842608e-03  -1.564604e-02  0 
 6.882845e-03  -1.717479e-02  0 
 6.919745e-03  -1.866398e-02  0 
 4.230672e-03  -1.232424e-02  0 
 5.229793e-03  -1.113168e-02  0 
 5.538694e-03  -1.260276e-02  0 
 8.904585e-03  -1.181467e-02  0 
 1.099920e-02  -1.339832e-02  0 
 8.474931e-03  -1.336939e-02  0 
 1.100451e-02  -1.131431e-02  0 
 5.540595e-03  -1.553326e-02  0 
 6.337485e-03  -1.626724e-02  0 
 5.489577e-03  -1.548387e-02  0 
 7.909756e-03  -1.498175e-02  0 
 8.816733e-03  -1.524584e-02  0 
 9.839002e-03  -1.554490e-02  0 
 7.909371e-03  -1.622821e-02  0 
 8.180848e-03  -1.767830e-02  0 
 9.246516e-03  -1.658509e-02  0 
 1.059161e-02  -1.659630e-02  0 
 9.852394e-03  -1.815242e-02  0 
 8.359031e-03  -1.915809e-02  0 
 7.772926e-03  -1.505418e-02  0 
VECTORS displacement_ITER12 FLOAT
 2.869298e-03  -9.405879e-03  0 
 2.838986e-03  -5.895356e-03  0 
 2.849793e-03  -7.621405e-03  0 
 -1.850236e-04  -9.061869e-03  0 
 1.259294e-03  -9.179236e-03  0 
 4.345794e-03  -9.596985e-03  0 
 5.759515e-03  -9.665463e-03  0 
 2.907800e-03  -1.102355e-02  0 
 2.949526e-03  -1.248618e-02  0 
 2.986262e-03  -1.390892e-02  0 
 7.471224e-04  -8.018312e-03  0 
 1.557544e-03  -7.033434e-03  0 
 1.812528e-03  -8.252981e-03  0 
 4.713722e-03  -6.763038e-03  0 
 6.627426e-03  -7.699399e-03  0 
 4.234162e-03  -8.485299e-03  0 
 6.984118e-03  -5.107595e-03  0 
 1.888113e-03  -1.098478e-02  0 
 2.482173e-03  -1.180661e-02  0 
 1.724034e-03  -1.140404e-02  0 
 3.640374e-03  -1.113090e-02  0 
 4.794866e-03  -1.064539e-02  0 
 5.770251e-03  -1.093377e-02  0 
 3.929789e-03  -1.158260e-02  0 
 4.190000e-03  -1.296787e-02  0 
 5.205507e-03  -1.192540e-02  0 
 6.485492e-03  -1.193593e-02  0 
 5.780770e-03  -1.341824e-02  0 
 4.359903e-03  -1.437855e-02  0 
 3.798225e-03  -1.045792e-02  0 
VECTORS displacement_ITER13 FLOAT
 -2.395207e-04  -7.578586e-03  0 
 -2.665726e-04  -5.106966e-03  0 
 -2.575171e-04  -6.312078e-03  0 
 -2.243439e-03  -7.228297e-03  0 
 -1.325669e-03  -7.347525e-03  0 
 1.144793e-03  -7.775250e-03  0 
 2.466556e-03  -7.849281e-03  0 
 -2.012739e-04  -9.109733e-03  0 
 -1.596234e-04  -1.048379e-02  0 
 -1.243503e-04  -1.181879e-02  0 
 -1.667889e-03  -6.578616e-03  0 
 -1.144635e-03  -5.911549e-03  0 
 -9.722577e-04  -6.747331e-03  0 
 1.098675e-03  -5.272830e-03  0 
 2.490757e-03  -5.691164e-03  0 
 7.698072e-04  -6.635537e-03  0 
 2.644426e-03  -3.857754e-03  0 
 -9.242410e-04  -9.007988e-03  0 
 -6.638515e-04  -1.000793e-02  0 
 -1.461877e-03  -1.011108e-02  0 
 -2.798151e-04  -1.024099e-02  0 
 1.567985e-03  -8.759856e-03  0 
 2.479537e-03  -9.034034e-03  0 
 7.596092e-04  -9.636556e-03  0 
 1.003656e-03  -1.093557e-02  0 
 1.952836e-03  -9.959924e-03  0 
 3.145782e-03  -9.970502e-03  0 
 2.488120e-03  -1.135414e-02  0 
 1.161599e-03  -1.225560e-02  0 
 6.356317e-04  -8.578503e-03  0 
VECTORS displacement_ITER14 FLOAT
 1.563860e-03  -6.116908e-03  0 
 1.543180e-03  -3.585329e-03  0 
 1.549306e-03  -4.820245e-03  0 
 -4.911182e-04  -5.764743e-03  0 
 4.526822e-04  -5.884504e-03  0 
 3.054340e-03  -6.315378e-03  0 
 4.484635e-03  -6.391767e-03  0 
 1.599667e-03  -7.759163e-03  0 
 1.640220e-03  -9.244151e-03  0 
 1.674549e-03  -1.069046e-02  0 
 1.018548e-04  -5.095814e-03  0 
 6.399690e-04  -4.411143e-03  0 
 8.157805e-04  -5.268287e-03  0 
 2.561617e-03  -3.707972e-03  0 
 3.818631e-03  -4.188609e-03  0 
 2.448824e-03  -5.021109e-03  0 
 3.510265e-03  -2.727341e-03  0 
 7.507940e-04  -7.580030e-03  0 
 9.355084e-04  -8.771248e-03  0 
 -1.188335e-04  -8.994633e-03  0 
 9.435763e-04  -9.492645e-03  0 
 3.511496e-03  -7.378092e-03  0 
 4.498977e-03  -7.673895e-03  0 
 2.636001e-03  -8.326038e-03  0 
 2.899171e-03  -9.731247e-03  0 
 3.929034e-03  -8.674867e-03  0 
 5.222744e-03  -8.687900e-03  0 
 4.512080e-03  -1.018511e-02  0 
 3.069192e-03  -1.116246e-02  0 
 2.502596e-03  -7.184744e-03  0 
VECTORS displacement_ITER15 FLOAT
 3.151927e-03  -5.279539e-03  0 
 3.138796e-03  -3.342992e-03  0 
 3.141868e-03  -4.279904e-03  0 
 1.702885e-03  -4.924407e-03  0 
 2.344881e-03  -5.044824e-03  0 
 4.311755e-03  -5.480554e-03  0 
 5.414436e-03  -5.559757e-03  0 
 3.184168e-03  -6.598180e-03  0 
 3.223221e-03  -7.758685e-03  0 
 3.256657e-03  -8.880413e-03  0 
 2.091532e-03  -4.481575e-03  0 
 2.464858e-03  -3.978702e-03  0 
 2.592600e-03  -4.616744e-03  0 
 3.541396e-03  -3.625754e-03  0 
 4.186545e-03  -3.989913e-03  0 
 3.668922e-03  -4.390935e-03  0 
 3.409598e-03  -3.778989e-03  0 
 2.531910e-03  -6.391195e-03  0 
 2.602744e-03  -7.450396e-03  0 
 1.573872e-03  -7.851649e-03  0 
 2.429079e-03  -8.158269e-03  0 
 4.670471e-03  -6.310197e-03  0 
 5.430575e-03  -6.546962e-03  0 
 3.996149e-03  -7.045405e-03  0 
 4.200097e-03  -8.139586e-03  0 
 4.992238e-03  -7.320956e-03  0 
 5.984327e-03  -7.330990e-03  0 
 5.434620e-03  -8.488516e-03  0 
 4.331015e-03  -9.244456e-03  0 
 3.892762e-03  -6.147236e-03  0 
VECTORS displacement_ITER16 FLOAT
 3.662324e-03  -6.520464e-03  0 
 3.659355e-03  -4.478890e-03  0 
 3.657547e-03  -5.469981e-03  0 
 2.122001e-03  -6.164541e-03  0 
 2.810229e-03  -6.285509e-03  0 
 4.350778e-03  -6.721028e-03  0 
 4.985972e-03  -6.799650e-03  0 
 3.691186e-03  -7.372281e-03  0 
 3.729167e-03  -8.065876e-03  0 
 3.762726e-03  -8.719904e-03  0 
 2.541313e-03  -5.687540e-03  0 
 2.941029e-03  -5.153145e-03  0 
 3.075521e-03  -5.828684e-03  0 
 3.699817e-03  -4.531877e-03  0 
 4.114516e-03  -4.779569e-03  0 
 3.816216e-03  -5.474493e-03  0 
 3.623393e-03  -4.047610e-03  0 
 3.145809e-03  -7.383104e-03  0 
 3.338822e-03  -8.069583e-03  0 
 2.493996e-03  -8.399474e-03  0 
 3.459788e-03  -8.376764e-03  0 
 4.567303e-03  -7.216716e-03  0 
 5.001866e-03  -7.366537e-03  0 
 4.180954e-03  -7.647650e-03  0 
 4.300232e-03  -8.294575e-03  0 
 4.750919e-03  -7.816885e-03  0 
 5.311012e-03  -7.820562e-03  0 
 4.990561e-03  -8.492250e-03  0 
 4.375563e-03  -8.930066e-03  0 
 4.120385e-03  -7.099190e-03  0 
VECTORS displacement_ITER17 FLOAT
 3.386383e-03  -7.608033e-03  0 
 3.384277e-03  -5.134704e-03  0 
 3.381752e-03  -6.342388e-03  0 
 1.414075e-03  -7.252361e-03  0 
 2.318189e-03  -7.373688e-03  0 
 3.535105e-03  -7.808794e-03  0 
 3.628808e-03  -7.888211e-03  0 
 3.415797e-03  -7.919543e-03  0 
 3.454372e-03  -8.072314e-03  0 
 3.488415e-03  -8.185576e-03  0 
 1.979072e-03  -6.614590e-03  0 
 2.497341e-03  -5.948583e-03  0 
 2.665715e-03  -6.782900e-03  0 
 3.067264e-03  -5.639467e-03  0 
 3.105246e-03  -6.076402e-03  0 
 3.234892e-03  -6.573112e-03  0 
 2.653326e-03  -5.391501e-03  0 
 2.778026e-03  -8.208010e-03  0 
 3.055455e-03  -8.487022e-03  0 
 2.265658e-03  -8.876927e-03  0 
 3.130980e-03  -8.700097e-03  0 
 3.587250e-03  -7.918677e-03  0 
 3.644705e-03  -7.967916e-03  0 
 3.533977e-03  -7.996964e-03  0 
 3.556646e-03  -8.125172e-03  0 
 3.611325e-03  -8.043087e-03  0 
 3.670533e-03  -8.039537e-03  0 
 3.616634e-03  -8.147213e-03  0 
 3.568633e-03  -8.216819e-03  0 
 3.521651e-03  -7.854145e-03  0 
VECTORS displacement_ITER18 FLOAT
 3.375245e-03  -7.886788e-03  0 
 3.376464e-03  -4.955259e-03  0 
 3.372315e-03  -6.392579e-03  0 
 9.522933e-04  -7.528283e-03  0 
 2.081046e-03  -7.651165e-03  0 
 3.681344e-03  -8.087699e-03  0 
 3.933751e-03  -8.166742e-03  0 
 3.403679e-03  -8.357333e-03  0 
 3.442296e-03  -8.668531e-03  0 
 3.477398e-03  -8.939338e-03  0 
 1.668457e-03  -6.723287e-03  0 
 2.310587e-03  -5.918324e-03  0 
 2.514278e-03  -6.920420e-03  0 
 3.205305e-03  -5.549315e-03  0 
 3.416250e-03  -6.061830e-03  0 
 3.342565e-03  -6.684658e-03  0 
 2.959457e-03  -5.136959e-03  0 
 2.592745e-03  -8.556942e-03  0 
 3.023241e-03  -8.797280e-03  0 
 2.305769e-03  -8.795667e-03  0 
 3.462222e-03  -8.572386e-03  0 
 3.781586e-03  -8.310692e-03  0 
 3.949452e-03  -8.389383e-03  0 
 3.630545e-03  -8.492752e-03  0 
 3.681006e-03  -8.773211e-03  0 
 3.852173e-03  -8.574646e-03  0 
 4.058145e-03  -8.573076e-03  0 
 3.925886e-03  -8.846259e-03  0 
 3.710828e-03  -9.023656e-03  0 
 3.604451e-03  -8.230555e-03  0 
VECTORS displacement_ITER19 FLOAT
 2.282635e-03  -6.937128e-03  0 
 2.280830e-03  -4.173314e-03  0 
 2.278138e-03  -5.525706e-03  0 
 2.456668e-05  -6.577086e-03  0 
 1.070327e-03  -6.700510e-03  0 
 2.568169e-03  -7.139808e-03  0 
 2.797864e-03  -7.221008e-03  0 
 2.312299e-03  -7.386785e-03  0 
 2.351479e-03  -7.676223e-03  0 
 2.386648e-03  -7.925492e-03  0 
 6.845391e-04  -5.834408e-03  0 
 1.281338e-03  -5.080402e-03  0 
 1.472141e-03  -6.021171e-03  0 
 1.965153e-03  -4.992727e-03  0 
 2.014795e-03  -5.602119e-03  0 
 2.213895e-03  -5.883430e-03  0 
 1.293459e-03  -5.223490e-03  0 
 1.501112e-03  -7.514564e-03  0 
 1.864654e-03  -7.726232e-03  0 
 1.197614e-03  -7.739166e-03  0 
 2.158549e-03  -7.527649e-03  0 
 2.662199e-03  -7.347407e-03  0 
 2.814430e-03  -7.422788e-03  0 
 2.524691e-03  -7.514673e-03  0 
 2.571511e-03  -7.773933e-03  0 
 2.726676e-03  -7.591805e-03  0 
 2.911647e-03  -7.590699e-03  0 
 2.791316e-03  -7.839634e-03  0 
 2.598703e-03  -8.002256e-03  0 
 2.500155e-03  -7.268901e-03  0 
VECTORS displacement_ITER20 FLOAT
 1.909993e-03  -6.645354e-03  0 
 1.904935e-03  -4.326254e-03  0 
 1.903774e-03  -5.454947e-03  0 
 9.763426e-05  -6.281173e-03  0 
 9.192067e-04  -6.406083e-03  0 
 2.309420e-03  -6.850604e-03  0 
 2.651378e-03  -6.933540e-03  0 
 1.941118e-03  -7.209342e-03  0 
 1.981079e-03  -7.611370e-03  0 
 2.016566e-03  -7.972748e-03  0 
 6.055871e-04  -5.706527e-03  0 
 1.080007e-03  -5.088449e-03  0 
 1.236082e-03  -5.865353e-03  0 
 1.626276e-03  -4.994605e-03  0 
 1.670241e-03  -5.490525e-03  0 
 1.888079e-03  -5.711041e-03  0 
 8.913927e-04  -5.387441e-03  0 
 1.270693e-03  -7.191850e-03  0 
 1.577619e-03  -7.469712e-03  0 
 1.038048e-03  -7.405575e-03  0 
 1.924667e-03  -7.182009e-03  0 
 2.438105e-03  -7.138919e-03  0 
 2.668490e-03  -7.235914e-03  0 
 2.231421e-03  -7.379075e-03  0 
 2.298516e-03  -7.745869e-03  0 
 2.535956e-03  -7.482029e-03  0 
 2.824265e-03  -7.482897e-03  0 
 2.649300e-03  -7.847754e-03  0 
 2.338741e-03  -8.086636e-03  0 
 2.196457e-03  -7.048698e-03  0 
VECTORS displacement_ITER21 FLOAT
 1.453659e-03  -6.259259e-03  0 
 1.447148e-03  -4.683001e-03  0 
 1.446425e-03  -5.439332e-03  0 
 3.911300e-04  -5.888430e-03  0 
 8.355389e-04  -6.016012e-03  0 
 1.991744e-03  -6.467180e-03  0 
 2.471499e-03  -6.550704e-03  0 
 1.485826e-03  -6.963069e-03  0 
 1.526316e-03  -7.502921e-03  0 
 1.562044e-03  -8.001519e-03  0 
 6.431207e-04  -5.596477e-03  0 
 9.120104e-04  -5.205891e-03  0 
 1.009710e-03  -5.708243e-03  0 
 1.405197e-03  -4.733013e-03  0 
 1.689482e-03  -4.967592e-03  0 
 1.536350e-03  -5.451930e-03  0 
 1.223529e-03  -4.462898e-03  0 
 1.098335e-03  -6.762272e-03  0 
 1.337464e-03  -7.132369e-03  0 
 1.055723e-03  -6.907867e-03  0 
 1.796346e-03  -6.804397e-03  0 
 2.162425e-03  -6.853940e-03  0 
 2.488409e-03  -6.976652e-03  0 
 1.871071e-03  -7.183677e-03  0 
 1.962544e-03  -7.682214e-03  0 
 2.300647e-03  -7.317837e-03  0 
 2.715580e-03  -7.320433e-03  0 
 2.473026e-03  -7.828050e-03  0 
 2.018405e-03  -8.160740e-03  0 
 1.823750e-03  -6.749723e-03  0 
VECTORS displacement_ITER22 FLOAT
 1.475327e-03  -5.933266e-03  0 
 1.463173e-03  -4.595057e-03  0 
 1.464724e-03  -5.230707e-03  0 
 6.548440e-04  -5.553738e-03  0 
 9.755177e-04  -5.684531e-03  0 
 1.907864e-03  -6.146626e-03  0 
 2.277492e-03  -6.232945e-03  0 
 1.510682e-03  -6.532275e-03  0 
 1.552644e-03  -6.963081e-03  0 
 1.588262e-03  -7.352044e-03  0 
 8.221154e-04  -5.355498e-03  0 
 1.023704e-03  -5.039225e-03  0 
 1.103024e-03  -5.452681e-03  0 
 1.458337e-03  -4.560302e-03  0 
 1.826498e-03  -4.812893e-03  0 
 1.546010e-03  -5.267307e-03  0 
 1.542833e-03  -4.028669e-03  0 
 1.216523e-03  -6.374093e-03  0 
 1.389502e-03  -6.758112e-03  0 
 1.092247e-03  -6.682760e-03  0 
 1.638230e-03  -6.743969e-03  0 
 2.045742e-03  -6.456065e-03  0 
 2.294532e-03  -6.558979e-03  0 
 1.822062e-03  -6.713801e-03  0 
 1.894246e-03  -7.106485e-03  0 
 2.151434e-03  -6.823109e-03  0 
 2.463002e-03  -6.824290e-03  0 
 2.275367e-03  -7.215609e-03  0 
 1.937280e-03  -7.473874e-03  0 
 1.783934e-03  -6.361520e-03  0 
VECTORS displacement_ITER23 FLOAT
 1.754471e-03  -5.554253e-03  0 
 1.738289e-03  -4.564836e-03  0 
 1.741629e-03  -5.023655e-03  0 
 1.290840e-03  -5.163747e-03  0 
 1.430508e-03  -5.298284e-03  0 
 2.170336e-03  -5.774787e-03  0 
 2.519432e-03  -5.865203e-03  0 
 1.792100e-03  -6.140176e-03  0 
 1.835330e-03  -6.552755e-03  0 
 1.871047e-03  -6.922746e-03  0 
 1.334520e-03  -5.102241e-03  0 
 1.437587e-03  -4.894319e-03  0 
 1.489317e-03  -5.178100e-03  0 
 1.724598e-03  -4.479676e-03  0 
 2.085062e-03  -4.721702e-03  0 
 1.824689e-03  -5.047132e-03  0 
 1.814520e-03  -4.030667e-03  0 
 1.580757e-03  -5.877128e-03  0 
 1.695888e-03  -6.322348e-03  0 
 1.403244e-03  -6.217762e-03  0 
 1.787805e-03  -6.534076e-03  0 
 2.303131e-03  -6.071265e-03  0 
 2.537300e-03  -6.171769e-03  0 
 2.091744e-03  -6.315830e-03  0 
 2.160489e-03  -6.689811e-03  0 
 2.402949e-03  -6.421060e-03  0 
 2.694224e-03  -6.422316e-03  0 
 2.517379e-03  -6.791259e-03  0 
 2.200810e-03  -7.037101e-03  0 
 2.054972e-03  -5.976845e-03  0 
VECTORS displacement_ITER24 FLOAT
 1.704639e-03  -5.233365e-03  0 
 1.684950e-03  -4.034339e-03  0 
 1.689908e-03  -4.596282e-03  0 
 1.033253e-03  -4.837182e-03  0 
 1.275754e-03  -4.973424e-03  0 
 2.046267e-03  -5.458677e-03  0 
 2.317974e-03  -5.552182e-03  0 
 1.744131e-03  -5.746954e-03  0 
 1.788386e-03  -6.083647e-03  0 
 1.824024e-03  -6.377284e-03  0 
 1.145987e-03  -4.699614e-03  0 
 1.305217e-03  -4.429043e-03  0 
 1.373362e-03  -4.789453e-03  0 
 1.602059e-03  -4.198329e-03  0 
 1.920963e-03  -4.547943e-03  0 
 1.743679e-03  -4.739981e-03  0 
 1.557509e-03  -3.981334e-03  0 
 1.408515e-03  -5.525702e-03  0 
 1.505293e-03  -5.989697e-03  0 
 1.033785e-03  -6.003562e-03  0 
 1.343939e-03  -6.495665e-03  0 
 2.156373e-03  -5.701259e-03  0 
 2.336341e-03  -5.788317e-03  0 
 1.992397e-03  -5.895417e-03  0 
 2.047643e-03  -6.195617e-03  0 
 2.233476e-03  -5.983455e-03  0 
 2.452089e-03  -5.983902e-03  0 
 2.313910e-03  -6.271264e-03  0 
 2.078925e-03  -6.465264e-03  0 
 1.962060e-03  -5.613123e-03  0 
VECTORS displacement_ITER25 FLOAT
 1.369821e-03  -5.227997e-03  0 
 1.348707e-03  -3.851185e-03  0 
 1.354085e-03  -4.500848e-03  0 
 5.270785e-04  -4.824533e-03  0 
 8.537218e-04  -4.963442e-03  0 
 1.653365e-03  -5.457744e-03  0 
 1.864838e-03  -5.553383e-03  0 
 1.410699e-03  -5.685857e-03  0 
 1.455839e-03  -5.963078e-03  0 
 1.491666e-03  -6.196256e-03  0 
 6.957829e-04  -4.625313e-03  0 
 9.014584e-04  -4.302362e-03  0 
 9.832566e-04  -4.726937e-03  0 
 1.364434e-03  -3.955490e-03  0 
 1.832273e-03  -4.314255e-03  0 
 1.424489e-03  -4.680184e-03  0 
 1.685661e-03  -3.270723e-03  0 
 1.014836e-03  -5.485532e-03  0 
 1.163338e-03  -5.912743e-03  0 
 6.545496e-04  -5.858495e-03  0 
 1.031682e-03  -6.414709e-03  0 
 1.745621e-03  -5.658199e-03  0 
 1.883053e-03  -5.734481e-03  0 
 1.618685e-03  -5.813021e-03  0 
 1.663000e-03  -6.055326e-03  0 
 1.804592e-03  -5.887328e-03  0 
 1.966100e-03  -5.886757e-03  0 
 1.857866e-03  -6.110334e-03  0 
 1.686865e-03  -6.263866e-03  0 
 1.593596e-03  -5.574897e-03  0 
VECTORS displacement_ITER26 FLOAT
 1.826165e-03  -5.042482e-03  0 
 1.803525e-03  -3.929719e-03  0 
 1.809637e-03  -4.445748e-03  0 
 1.253393e-03  -4.632039e-03  0 
 1.443841e-03  -4.773326e-03  0 
 2.123772e-03  -5.276531e-03  0 
 2.347847e-03  -5.374233e-03  0 
 1.867863e-03  -5.517352e-03  0 
 1.913534e-03  -5.808267e-03  0 
 1.949498e-03  -6.054298e-03  0 
 1.329238e-03  -4.535678e-03  0 
 1.460689e-03  -4.294586e-03  0 
 1.521442e-03  -4.621176e-03  0 
 1.861016e-03  -3.867122e-03  0 
 2.435475e-03  -4.190261e-03  0 
 1.899925e-03  -4.577399e-03  0 
 2.375123e-03  -2.977150e-03  0 
 1.580187e-03  -5.230173e-03  0 
 1.742108e-03  -5.663774e-03  0 
 1.338256e-03  -5.458803e-03  0 
 1.737027e-03  -6.064503e-03  0 
 2.220385e-03  -5.486698e-03  0 
 2.366257e-03  -5.565873e-03  0 
 2.085558e-03  -5.649873e-03  0 
 2.131930e-03  -5.904718e-03  0 
 2.282881e-03  -5.727203e-03  0 
 2.455351e-03  -5.726771e-03  0 
 2.341006e-03  -5.963284e-03  0 
 2.156993e-03  -6.126174e-03  0 
 2.059334e-03  -5.401084e-03  0 
VECTORS displacement_ITER27 FLOAT
 1.622622e-03  -4.484016e-03  0 
 1.598321e-03  -3.222623e-03  0 
 1.605381e-03  -3.811531e-03  0 
 9.027489e-04  -4.069712e-03  0 
 1.166561e-03  -4.212070e-03  0 
 1.993839e-03  -4.721364e-03  0 
 2.290031e-03  -4.821337e-03  0 
 1.664839e-03  -5.034756e-03  0 
 1.710735e-03  -5.399278e-03  0 
 1.746477e-03  -5.718704e-03  0 
 1.027950e-03  -3.919133e-03  0 
 1.199362e-03  -3.633600e-03  0 
 1.271559e-03  -4.014732e-03  0 
 1.627711e-03  -3.326394e-03  0 
 2.231165e-03  -3.792901e-03  0 
 1.733367e-03  -4.021005e-03  0 
 2.035380e-03  -2.636397e-03  0 
 1.286995e-03  -4.702395e-03  0 
 1.470727e-03  -5.203582e-03  0 
 9.766648e-04  -4.935275e-03  0 
 1.426090e-03  -5.698152e-03  0 
 2.113027e-03  -4.983866e-03  0 
 2.309028e-03  -5.077229e-03  0 
 1.933424e-03  -5.194391e-03  0 
 1.992788e-03  -5.519329e-03  0 
 2.196941e-03  -5.288435e-03  0 
 2.435803e-03  -5.289193e-03  0 
 2.286265e-03  -5.600940e-03  0 
 2.026300e-03  -5.814437e-03  0 
 1.900618e-03  -4.890238e-03  0 
VECTORS displacement_ITER28 FLOAT
 1.560972e-03  -4.477847e-03  0 
 1.536186e-03  -3.218709e-03  0 
 1.543640e-03  -3.805557e-03  0 
 8.438285e-04  -4.061592e-03  0 
 1.106580e-03  -4.204442e-03  0 
 1.955307e-03  -4.717096e-03  0 
 2.274001e-03  -4.818653e-03  0 
 1.603061e-03  -5.053468e-03  0 
 1.648773e-03  -5.441781e-03  0 
 1.684112e-03  -5.785117e-03  0 
 9.682525e-04  -3.912244e-03  0 
 1.138867e-03  -3.627888e-03  0 
 1.210699e-03  -4.008248e-03  0 
 1.489532e-03  -3.434354e-03  0 
 2.056140e-03  -4.001264e-03  0 
 1.666147e-03  -4.056402e-03  0 
 1.730972e-03  -2.981459e-03  0 
 1.207266e-03  -4.691754e-03  0 
 1.386508e-03  -5.218707e-03  0 
 8.755013e-04  -4.924639e-03  0 
 1.302608e-03  -5.773156e-03  0 
 2.081824e-03  -4.996189e-03  0 
 2.293533e-03  -5.094304e-03  0 
 1.888005e-03  -5.221729e-03  0 