# vtk DataFile Version 3.1
this is an vtk file created by FEMAC
ASCII
DATASET UNSTRUCTURED_GRID
POINTS 31 FLOAT
2.000000 1.000000 0.000000
3.000000 1.000000 0.000000
1.750000 1.000000 0.000000
2.000000 0.750000 0.000000
2.000000 1.250000 0.000000
2.000000 1.500000 0.000000
2.000000 1.750000 0.000000
2.250000 1.000000 0.000000
2.500000 1.000000 0.000000
2.750000 1.000000 0.000000
1.638134 0.825570 0.000000
1.835146 0.847123 0.000000
1.745000 1.195000 0.000000
1.799000 1.384000 0.000000
2.214699 0.660302 0.000000
2.638134 0.825570 0.000000
2.371728 0.825957 0.000000
2.502535 0.594871 0.000000
2.835146 0.847123 0.000000
2.167285 0.847252 0.000000
2.178356 1.674167 0.000000
2.178472 1.325972 0.000000
2.225000 1.500000 0.000000
2.341551 1.171968 0.000000
2.581177 1.216647 0.000000
2.398247 1.399662 0.000000
2.401594 1.630720 0.000000
2.661856 1.507893 0.000000
2.832172 1.245757 0.000000
2.153954 1.850472 0.000000
2.154005 1.149588 0.000000
CELLS 42 168 
3 2 11  0
3 11  3  0
3 10 11  2
3 13  4  5
3 13 12  4
3 0 12  2
3 0  4 12
3 8 16 15
3 7 16  8
3 15  9  8
3 17 16 14
3 15 16 17
3 9 18  1
3 3 19  0
3 19  7  0
3 19  3 14
3 19 16  7
3 14 16 19
3 15 18  9
3 5 20  6
3 21  5  4
3 22 20  5
3 21 22  5
3 21 25 22
3 26 20 22
3 23  7  8
3 9 24  8
3 23 25 21
3 22 25 26
3 28  9  1
3 29  6 20
3 30  4  0
3 7 30  0
3 4 30 21
3 28 24  9
3 23 30  7
3 23 21 30
3 23  8 24
3 23 24 25
3 26 25 27
3 27 25 24
3 27 24 28
CELL_TYPES 42
5 5 5 5 5 5 5 5 5 5 5 5 5 5 5 5 5 5 5 5 5 5 5 5 5 5 5 5 5 5 5 5 5 5 5 5 5 5 5 5 5 5 
POINT_DATA 31
VECTORS displacement_ITER1 FLOAT
 -7.201813e-02  -4.026065e-02  0 
 -7.223020e-02  -1.477544e-01  0 
 -7.200711e-02  -1.753548e-02  0 
 -9.891696e-02  -4.034720e-02  0 
 -4.931463e-02  -4.022578e-02  0 
 -2.666406e-02  -4.017923e-02  0 
 -2.874243e-02  -3.470772e-02  0 
 -7.206575e-02  -6.720035e-02  0 
 -7.211447e-02  -9.408409e-02  0 
 -7.216748e-02  -1.209237e-01  0 
 -4.199914e-02  -3.651956e-02  0 
 -7.295186e-02  -2.497769e-02  0 
 -5.429269e-02  -1.707633e-02  0 
 -3.715121e-02  -2.197567e-02  0 
 -1.085876e-01  -6.344595e-02  0 
 -9.086540e-02  -1.089472e-01  0 
 -9.079833e-02  -8.031855e-02  0 
 -1.156309e-01  -9.439359e-02  0 
 -8.858594e-02  -1.300968e-01  0 
 -8.848741e-02  -5.832022e-02  0 
 -3.186970e-02  -3.946216e-02  0 
 -4.583854e-02  -5.929910e-02  0 
 -3.792992e-02  -5.447368e-02  0 
 -5.970955e-02  -7.795654e-02  0 
 -6.110388e-02  -1.006280e-01  0 
 -4.950384e-02  -7.744306e-02  0 
 -3.813269e-02  -6.660121e-02  0 
 -5.455629e-02  -9.831233e-02  0 
 -6.517011e-02  -1.215103e-01  0 
 -5.181896e-02  -1.484721e-02  0 
 -5.976823e-02  -5.779959e-02  0 
VECTORS displacement_ITER2 FLOAT
 -4.405482e-02  -3.818887e-02  0 
 -4.457871e-02  -7.339759e-02  0 
 -4.400733e-02  -3.028010e-02  0 
 -5.309762e-02  -3.836912e-02  0 
 -3.621934e-02  -3.806746e-02  0 
 -2.848294e-02  -3.799884e-02  0 
 -1.187492e-02  -2.930168e-02  0 
 -4.420654e-02  -4.725703e-02  0 
 -4.434332e-02  -5.610809e-02  0 
 -4.447945e-02  -6.477007e-02  0 
 -3.571971e-02  -2.090907e-02  0 
 -4.307745e-02  -2.763856e-02  0 
 -3.788180e-02  -3.011847e-02  0 
 -3.205203e-02  -3.178613e-02  0 
 -5.627448e-02  -4.607823e-02  0 
 -5.047170e-02  -6.097929e-02  0 
 -5.042932e-02  -5.164163e-02  0 
 -5.852368e-02  -5.623248e-02  0 
 -4.977445e-02  -6.773996e-02  0 
 -4.964221e-02  -4.435451e-02  0 
 -2.208548e-02  -5.118536e-02  0 
 -3.680563e-02  -4.811952e-02  0 
 -3.046336e-02  -5.176946e-02  0 
 -4.203987e-02  -5.447496e-02  0 
 -4.180261e-02  -6.551010e-02  0 
 -3.748132e-02  -6.132596e-02  0 
 -2.710357e-02  -6.163146e-02  0 
 -3.821559e-02  -7.873499e-02  0 
 -4.108828e-02  -7.425732e-02  0 
 4.701182e-03  -5.727836e-02  0 
 -4.125179e-02  -4.595474e-02  0 
VECTORS displacement_ITER3 FLOAT
 -2.418829e-02  -1.381956e-02  0 
 -2.501969e-02  -4.074679e-02  0 
 -2.410188e-02  -2.897614e-03  0 
 -3.140448e-02  -1.403319e-02  0 
 -1.331091e-02  -1.365633e-02  0 
 -2.640258e-03  -1.354317e-02  0 
 -1.176899e-02  -1.866449e-02  0 
 -2.441219e-02  -2.101086e-02  0 
 -2.462308e-02  -2.786309e-02  0 
 -2.486613e-02  -3.437628e-02  0 
 -1.771175e-02  -4.942863e-03  0 
 -2.505896e-02  -4.554789e-03  0 
 -1.562066e-02  -2.650792e-03  0 
 -7.551233e-03  -4.978874e-03  0 
 -3.383791e-02  -2.009158e-02  0 
 -2.932109e-02  -3.162451e-02  0 
 -2.927610e-02  -2.446210e-02  0 
 -3.551010e-02  -2.801081e-02  0 
 -2.882348e-02  -3.660616e-02  0 
 -2.866543e-02  -1.876476e-02  0 
 -8.267211e-03  -1.379759e-02  0 
 -1.303404e-02  -2.009516e-02  0 
 -9.351685e-03  -1.750550e-02  0 
 -1.995707e-02  -2.530058e-02  0 
 -2.177020e-02  -3.100305e-02  0 
 -1.635054e-02  -2.475907e-02  0 
 -1.156156e-02  -1.852642e-02  0 
 -2.184822e-02  -2.911893e-02  0 
 -2.514707e-02  -3.479987e-02  0 
 -1.590431e-02  -1.799319e-02  0 
 -1.918656e-02  -1.950873e-02  0 
VECTORS displacement_ITER4 FLOAT
 -9.945733e-03  -3.221498e-03  0 
 -1.069652e-02  -9.854497e-03  0 
 -9.829144e-03  -2.812338e-04  0 
 -1.210923e-02  -3.386986e-03  0 
 -6.976962e-03  -3.088048e-03  0 
 -4.273408e-03  -2.962603e-03  0 
 9.562678e-03  1.298637e-02  0 
 -1.017424e-02  -5.286578e-03  0 
 -1.036094e-02  -7.033021e-03  0 
 -1.056912e-02  -8.491662e-03  0 
 -8.266787e-03  -8.166181e-03  0 
 -1.075272e-02  -1.552214e-03  0 
 -7.553297e-03  -1.734688e-04  0 
 -5.479952e-03  -8.100936e-04  0 
 -1.268319e-02  -5.038833e-03  0 
 -1.151157e-02  -7.976831e-03  0 
 -1.147939e-02  -6.234102e-03  0 
 -1.301765e-02  -7.114448e-03  0 
 -1.143295e-02  -8.988670e-03  0 
 -1.131902e-02  -4.724660e-03  0 
 -2.897726e-03  -3.819974e-03  0 
 -8.636819e-03  -6.641996e-03  0 
 -7.493323e-03  -6.602940e-03  0 
 -1.068889e-02  -8.317267e-03  0 
 -1.211858e-02  -1.063758e-02  0 
 -1.162730e-02  -1.009490e-02  0 
 -9.706795e-03  -7.251866e-03  0 
 -1.709494e-02  -1.297110e-02  0 
 -1.402949e-02  -1.056415e-02  0 
 6.933091e-03  1.642589e-03  0 
 -9.604362e-03  -5.919045e-03  0 
VECTORS displacement_ITER5 FLOAT
 -2.180893e-03  -4.455683e-04  0 
 -2.865275e-03  -6.941745e-03  0 
 -2.049678e-03  5.185085e-04  0 
 -4.161888e-03  -6.213918e-04  0 
 -1.146230e-03  -3.586494e-04  0 
 -3.097443e-04  -2.665360e-04  0 
 -1.634324e-03  7.948280e-04  0 
 -2.416561e-03  -2.321121e-03  0 
 -2.579332e-03  -4.013175e-03  0 
 -2.745083e-03  -5.519514e-03  0 
 -2.040315e-03  7.794944e-04  0 
 -2.683264e-03  6.413257e-04  0 
 -1.311096e-03  5.841553e-04  0 
 -6.647296e-04  3.845982e-04  0 
 -4.785280e-03  -2.202027e-03  0 
 -3.735395e-03  -4.954273e-03  0 
 -3.681729e-03  -3.233785e-03  0 
 -5.242469e-03  -4.103265e-03  0 
 -3.663372e-03  -6.060256e-03  0 
 -3.470701e-03  -1.833674e-03  0 
 -1.736378e-03  -3.275907e-04  0 
 -1.518358e-03  -1.762988e-03  0 
 -1.494905e-03  -1.264938e-03  0 
 -2.291613e-03  -3.201529e-03  0 
 -2.837363e-03  -4.760959e-03  0 
 -2.534716e-03  -3.238627e-03  0 
 -2.013154e-03  -2.182946e-03  0 
 -3.689487e-03  -5.458778e-03  0 
 -3.269403e-03  -5.979875e-03  0 
 -1.792903e-03  -6.941263e-04  0 
 -1.925817e-03  -1.741085e-03  0 
VECTORS displacement_ITER6 FLOAT
 -1.268473e-03  -1.392337e-04  0 
 -1.993705e-03  -4.476843e-03  0 
 -1.125735e-03  1.375198e-04  0 
 -2.707002e-03  -3.222872e-04  0 
 -8.976252e-04  -5.769745e-05  0 
 -7.565173e-04  4.507502e-05  0 
 -1.638777e-03  8.370304e-04  0 
 -1.509029e-03  -1.468394e-03  0 
 -1.674679e-03  -2.630388e-03  0 
 -1.858561e-03  -3.608205e-03  0 
 -1.552472e-03  2.742078e-04  0 
 -1.755456e-03  3.358537e-04  0 
 -9.184230e-04  1.989765e-04  0 
 -7.824919e-04  1.344592e-04  0 
 -3.149978e-03  -1.428849e-03  0 
 -2.469244e-03  -3.294363e-03  0 
 -2.404374e-03  -2.123630e-03  0 
 -3.498687e-03  -2.737492e-03  0 
 -2.454089e-03  -3.975405e-03  0 
 -2.233059e-03  -1.162532e-03  0 
 -1.664307e-03  -3.553240e-04  0 
 -1.196998e-03  -8.965935e-04  0 
 -1.328471e-03  -7.024332e-04  0 
 -1.565323e-03  -1.895633e-03  0 
 -2.033684e-03  -2.848800e-03  0 
 -1.806718e-03  -1.796142e-03  0 
 -1.699547e-03  -1.247050e-03  0 
 -2.633211e-03  -2.734778e-03  0 
 -2.604363e-03  -3.513177e-03  0 
 -1.305635e-03  -1.275237e-03  0 
 -1.273904e-03  -9.486496e-04  0 
VECTORS displacement_ITER7 FLOAT
 -1.307033e-03  -5.543874e-04  0 
 -2.034806e-03  -2.975845e-03  0 
 -1.169484e-03  -3.228783e-04  0 
 -2.241887e-03  -7.241569e-04  0 
 -9.733392e-04  -4.767461e-04  0 
 -8.556703e-04  -3.771142e-04  0 
 -5.031707e-04  -1.065370e-03  0 
 -1.522194e-03  -1.387870e-03  0 
 -1.676766e-03  -2.060642e-03  0 
 -1.837057e-03  -2.589509e-03  0 
 -1.199133e-03  2.482138e-04  0 
 -1.548038e-03  -2.743961e-04  0 
 -9.879746e-04  -2.553264e-04  0 
 -8.729181e-04  -3.088820e-04  0 
 -2.504225e-03  -1.373774e-03  0 
 -2.129993e-03  -2.447799e-03  0 
 -2.070794e-03  -1.800350e-03  0 
 -2.650906e-03  -2.122902e-03  0 
 -2.151243e-03  -2.832557e-03  0 
 -1.955814e-03  -1.226750e-03  0 
 -5.914915e-04  -9.022622e-04  0 
 -1.077771e-03  -9.126420e-04  0 
 -9.193615e-04  -1.009783e-03  0 
 -1.418609e-03  -1.534211e-03  0 
 -1.634115e-03  -2.137845e-03  0 
 -1.193964e-03  -1.519642e-03  0 
 -8.223819e-04  -1.429492e-03  0 
 -1.310909e-03  -2.148614e-03  0 
 -1.907456e-03  -2.688107e-03  0 
 -1.578630e-03  -3.726134e-04  0 
 -1.239366e-03  -9.860501e-04  0 
VECTORS displacement_ITER8 FLOAT
 -1.099492e-03  -1.018212e-03  0 
 -1.807584e-03  -3.043817e-03  0 
 -9.480796e-04  -7.741928e-04  0 
 -1.897757e-03  -1.188173e-03  0 
 -7.271110e-04  -9.117060e-04  0 
 -6.104655e-04  -7.841932e-04  0 
 -4.865195e-04  -8.968199e-04  0 
 -1.314200e-03  -1.713442e-03  0 
 -1.462965e-03  -2.256773e-03  0 
 -1.600589e-03  -2.698937e-03  0 
 -1.044760e-03  -5.216359e-04  0 
 -1.326113e-03  -8.346110e-04  0 
 -7.349707e-04  -6.720882e-04  0 
 -6.188093e-04  -7.271958e-04  0 
 -2.117101e-03  -1.727093e-03  0 
 -1.840322e-03  -2.576179e-03  0 
 -1.774921e-03  -2.061698e-03  0 
 -2.242510e-03  -2.323281e-03  0 
 -1.866946e-03  -2.922914e-03  0 
 -1.666456e-03  -1.599007e-03  0 
 -6.307525e-04  -1.096381e-03  0 
 -8.459759e-04  -1.255775e-03  0 
 -7.709045e-04  -1.255510e-03  0 
 -1.161282e-03  -1.785152e-03  0 
 -1.339008e-03  -2.238704e-03  0 
 -1.000433e-03  -1.691651e-03  0 
 -8.303345e-04  -1.509392e-03  0 
 -1.184350e-03  -2.103693e-03  0 
 -1.551933e-03  -2.632920e-03  0 
 -6.840524e-04  -1.067165e-03  0 
 -1.002772e-03  -1.351656e-03  0 
VECTORS displacement_ITER9 FLOAT
 -1.120112e-03  -9.300826e-04  0 
 -1.835848e-03  -2.836405e-03  0 
 -9.615023e-04  -6.864627e-04  0 
 -1.903043e-03  -1.097555e-03  0 
 -7.334118e-04  -8.279289e-04  0 
 -6.017095e-04  -6.968835e-04  0 
 -5.002404e-04  -8.092152e-04  0 
 -1.330672e-03  -1.612799e-03  0 
 -1.476060e-03  -2.152407e-03  0 
 -1.627351e-03  -2.563685e-03  0 
 -9.687226e-04  -4.372869e-04  0 
 -1.282586e-03  -6.646305e-04  0 
 -7.485114e-04  -5.696499e-04  0 
 -6.160724e-04  -6.327144e-04  0 
 -2.121893e-03  -1.626312e-03  0 
 -1.838010e-03  -2.465939e-03  0 
 -1.782472e-03  -1.954062e-03  0 
 -2.254723e-03  -2.209595e-03  0 
 -1.862726e-03  -2.767238e-03  0 
 -1.676483e-03  -1.499906e-03  0 
 -6.150301e-04  -9.957722e-04  0 
 -8.845471e-04  -1.182044e-03  0 
 -8.059075e-04  -1.165858e-03  0 
 -1.233599e-03  -1.725136e-03  0 
 -1.488694e-03  -2.174887e-03  0 
 -1.100438e-03  -1.612614e-03  0 
 -8.973912e-04  -1.383352e-03  0 
 -1.372860e-03  -2.019606e-03  0 
 -1.811620e-03  -2.553106e-03  0 
 -5.771393e-04  -9.155981e-04  0 
 -1.041451e-03  -1.282572e-03  0 
VECTORS displacement_ITER10 FLOAT
 -1.145067e-03  -9.334133e-04  0 
 -1.848676e-03  -2.793011e-03  0 
 -9.786256e-04  -6.828507e-04  0 
 -1.903566e-03  -1.101375e-03  0 
 -7.388695e-04  -8.428064e-04  0 
 -5.616607e-04  -7.212054e-04  0 
 -4.867840e-04  -6.843368e-04  0 
 -1.351323e-03  -1.595706e-03  0 
 -1.495022e-03  -2.117509e-03  0 
 -1.639462e-03  -2.523522e-03  0 
 -1.158206e-03  -3.375887e-04  0 
 -1.324867e-03  -6.513979e-04  0 
 -7.651450e-04  -5.545536e-04  0 
 -6.028302e-04  -6.236030e-04  0 
 -2.120372e-03  -1.609246e-03  0 
 -1.848663e-03  -2.422268e-03  0 
 -1.790775e-03  -1.928597e-03  0 
 -2.247460e-03  -2.179080e-03  0 
 -1.870732e-03  -2.725774e-03  0 
 -1.686761e-03  -1.486903e-03  0 
 -6.586808e-04  -1.093092e-03  0 
 -8.512180e-04  -1.197027e-03  0 
 -7.685063e-04  -1.212732e-03  0 
 -1.185856e-03  -1.681141e-03  0 
 -1.382672e-03  -2.093885e-03  0 
 -1.004036e-03  -1.581882e-03  0 
 -8.978342e-04  -1.411936e-03  0 
 -1.219875e-03  -1.868387e-03  0 
 -1.652197e-03  -2.452883e-03  0 
 -6.033430e-04  -1.024422e-03  0 
 -1.031538e-03  -1.268736e-03  0 
VECTORS displacement_ITER11 FLOAT
 -1.131139e-03  -9.278643e-04  0 
 -1.834735e-03  -2.794171e-03  0 
 -9.627521e-04  -6.779875e-04  0 
 -1.894854e-03  -1.093668e-03  0 
 -7.274871e-04  -8.347686e-04  0 
 -5.255380e-04  -7.246851e-04  0 
 -4.719060e-04  -7.180312e-04  0 
 -1.338266e-03  -1.593603e-03  0 
 -1.482460e-03  -2.117048e-03  0 
 -1.626497e-03  -2.523655e-03  0 
 -1.091323e-03  -4.071077e-04  0 
 -1.324752e-03  -6.722245e-04  0 
 -7.501659e-04  -5.467291e-04  0 
 -5.851037e-04  -6.047190e-04  0 
 -2.109859e-03  -1.607506e-03  0 
 -1.836724e-03  -2.421849e-03  0 
 -1.779324e-03  -1.927617e-03  0 
 -2.235375e-03  -2.177080e-03  0 
 -1.859816e-03  -2.727108e-03  0 
 -1.675127e-03  -1.484328e-03  0 
 -6.188950e-04  -1.006868e-03  0 
 -8.360612e-04  -1.187625e-03  0 
 -7.464850e-04  -1.165473e-03  0 
 -1.185209e-03  -1.688207e-03  0 
 -1.395847e-03  -2.110611e-03  0 
 -1.015139e-03  -1.580721e-03  0 
 -8.427051e-04  -1.379514e-03  0 
 -1.237681e-03  -1.937843e-03  0 
 -1.665325e-03  -2.470788e-03  0 
 -5.800517e-04  -9.967476e-04  0 
 -1.023426e-03  -1.264842e-03  0 
VECTORS displacement_ITER12 FLOAT
 -1.132187e-03  -9.267981e-04  0 
 -1.835393e-03  -2.794276e-03  0 
 -9.639983e-04  -6.757934e-04  0 
 -1.896265e-03  -1.092522e-03  0 
 -7.279178e-04  -8.334197e-04  0 
 -5.250080e-04  -7.235940e-04  0 
 -4.713217e-04  -7.161065e-04  0 
 -1.339462e-03  -1.592775e-03  0 
 -1.483603e-03  -2.116767e-03  0 
 -1.627627e-03  -2.523789e-03  0 
 -1.097317e-03  -4.060303e-04  0 
 -1.324094e-03  -6.798141e-04  0 
 -7.504715e-04  -5.448575e-04  0 
 -5.850145e-04  -6.024291e-04  0 
 -2.111384e-03  -1.607171e-03  0 
 -1.838207e-03  -2.421830e-03  0 
 -1.780894e-03  -1.927001e-03  0 
 -2.237196e-03  -2.176265e-03  0 
 -1.860847e-03  -2.726866e-03  0 
 -1.676436e-03  -1.483575e-03  0 
 -6.158865e-04  -1.004482e-03  0 
 -8.369580e-04  -1.188180e-03  0 
 -7.478160e-04  -1.166420e-03  0 
 -1.185670e-03  -1.688035e-03  0 
 -1.396115e-03  -2.109040e-03  0 
 -1.017150e-03  -1.581155e-03  0 
 -8.479099e-04  -1.378459e-03  0 
 -1.246107e-03  -1.929093e-03  0 
 -1.668089e-03  -2.463110e-03  0 
 -5.800245e-04  -9.785998e-04  0 
 -1.024301e-03  -1.264354e-03  0 
VECTORS displacement_ITER13 FLOAT
 -1.131925e-03  -9.265429e-04  0 
 -1.835001e-03  -2.794148e-03  0 
 -9.638098e-04  -6.755450e-04  0 
 -1.895902e-03  -1.092308e-03  0 
 -7.277366e-04  -8.331365e-04  0 
 -5.248706e-04  -7.229804e-04  0 
 -4.712257e-04  -7.159425e-04  0 
 -1.339149e-03  -1.592456e-03  0 
 -1.483229e-03  -2.116444e-03  0 
 -1.627279e-03  -2.523492e-03  0 
 -1.099384e-03  -3.990000e-04  0 
 -1.321611e-03  -6.795174e-04  0 
 -7.502583e-04  -5.447007e-04  0 
 -5.847050e-04  -6.020537e-04  0 
 -2.111007e-03  -1.606757e-03  0 
 -1.837870e-03  -2.421568e-03  0 
 -1.780540e-03  -1.926631e-03  0 
 -2.236856e-03  -2.175930e-03  0 
 -1.860640e-03  -2.726663e-03  0 
 -1.676118e-03  -1.483239e-03  0 
 -6.179235e-04  -1.006798e-03  0 
 -8.366955e-04  -1.187778e-03  0 
 -7.473902e-04  -1.166484e-03  0 
 -1.185558e-03  -1.687712e-03  0 
 -1.396186e-03  -2.108926e-03  0 
 -1.016249e-03  -1.580945e-03  0 
 -8.463534e-04  -1.380179e-03  0 
 -1.243079e-03  -1.930413e-03  0 
 -1.668395e-03  -2.463521e-03  0 
 -5.841975e-04  -9.791716e-04  0 
 -1.024107e-03  -1.264043e-03  0 
VECTORS displacement_ITER14 FLOAT
 -1.131910e-03  -9.265157e-04  0 
 -1.834978e-03  -2.794239e-03  0 
 -9.637678e-04  -6.755874e-04  0 
 -1.895922e-03  -1.092284e-03  0 
 -7.277510e-04  -8.331157e-04  0 
 -5.249740e-04  -7.229770e-04  0 
 -4.712622e-04  -7.159495e-04  0 
 -1.339138e-03  -1.592463e-03  0 
 -1.483219e-03  -2.116485e-03  0 
 -1.627262e-03  -2.523574e-03  0 
 -1.099242e-03  -3.987991e-04  0 
 -1.321489e-03  -6.787699e-04  0 
 -7.502715e-04  -5.447026e-04  0 
 -5.847539e-04  -6.020717e-04  0 
 -2.111039e-03  -1.606767e-03  0 
 -1.837885e-03  -2.421626e-03  0 
 -1.780555e-03  -1.926656e-03  0 
 -2.236891e-03  -2.175963e-03  0 
 -1.860644e-03  -2.726756e-03  0 
 -1.676127e-03  -1.483238e-03  0 
 -6.182350e-04  -1.007178e-03  0 
 -8.366580e-04  -1.187512e-03  0 
 -7.471103e-04  -1.166067e-03  0 
 -1.185636e-03  -1.687659e-03  0 
 -1.396403e-03  -2.108985e-03  0 
 -1.016285e-03  -1.580649e-03  0 
 -8.457132e-04  -1.379096e-03  0 
 -1.243268e-03  -1.930476e-03  0 
 -1.668744e-03  -2.463638e-03  0 
 -5.844845e-04  -9.805071e-04  0 
 -1.024104e-03  -1.263960e-03  0 
CELL_DATA 42
TENSORS element_stresses FLOAT
 -9.165177e-04  7.397087e-04  0 
 7.397087e-04  -8.131645e-04  0 
 0  0  0 

 -1.631999e-03  7.217904e-04  0 
 7.217904e-04  1.734735e-04  0 
 0  0  0 

 -1.673093e-03  2.090049e-04  0 
 2.090049e-04  -1.228336e-03  0 
 0  0  0 

 -4.233323e-02  -3.435447e-02  0 
 -3.435447e-02  4.278548e-01  0 
 0  0  0 

 -1.108876e-01  -1.762791e-01  0 
 -1.762791e-01  -1.236687e-02  0 
 0  0  0 

 -5.262944e-01  5.684193e-02  0 
 5.684193e-02  4.875796e-01  0 
 0  0  0 

 -1.629567e-01  3.115565e-01  0 
 3.115565e-01  3.247133e-01  0 
 0  0  0 

 -1.417408e-01  5.741683e-03  0 
 5.741683e-03  2.358148e-01  0 
 0  0  0 

 -4.836044e-01  2.851973e-02  0 
 2.851973e-02  3.090649e-01  0 
 0  0  0 

 -4.815600e-01  -3.950575e-02  0 
 -3.950575e-02  3.153658e-01  0 
 0  0  0 

 -6.206284e-04  -4.422599e-03  0 
 -4.422599e-03  -4.669054e-02  0 
 0  0  0 

 -2.245587e-01  -2.655186e-03  0 
 -2.655186e-03  -4.019357e-02  0 
 0  0  0 

 -6.736800e-01  -1.447027e-02  0 
 -1.447027e-02  5.239523e-01  0 
 0  0  0 

 -2.899163e-01  2.565523e-01  0 
 2.565523e-01  5.760983e-01  0 
 0  0  0 

 -6.710896e-01  -6.734849e-03  0 
 -6.734849e-03  5.260793e-01  0 
 0  0  0 

 -1.735800e-02  -4.129723e-02  0 
 -4.129723e-02  5.409488e-02  0 
 0  0  0 

 -1.489340e-01  1.743054e-01  0 
 1.743054e-01  3.902151e-01  0 
 0  0  0 

 -2.655603e-01  7.642432e-02  0 
 7.642432e-02  3.402402e-02  0 
 0  0  0 

 -1.477071e-01  -1.681593e-01  0 
 -1.681593e-01  3.953394e-01  0 
 0  0  0 

 -7.958882e-04  -1.081573e-03  0 
 -1.081573e-03  -2.106565e-04  0 
 0  0  0 

 -9.047530e-04  -1.047810e-03  0 
 -1.047810e-03  1.691288e-04  0 
 0  0  0 

 -9.580291e-04  -1.149028e-03  0 
 -1.149028e-03  9.747895e-05  0 
 0  0  0 

 -8.707166e-04  -9.159798e-04  0 
 -9.159798e-04  3.885205e-04  0 
 0  0  0 

 -9.770414e-04  -9.269869e-04  0 
 -9.269869e-04  3.676003e-04  0 
 0  0  0 

 -8.522824e-04  -8.289054e-04  0 
 -8.289054e-04  2.360517e-04  0 
 0  0  0 

 -4.479386e-04  -6.897254e-04  0 
 -6.897254e-04  4.279509e-04  0 
 0  0  0 

 -4.205974e-04  -7.782660e-04  0 
 -7.782660e-04  5.185748e-04  0 
 0  0  0 

 -9.497132e-04  -8.385587e-04  0 
 -8.385587e-04  7.138623e-04  0 
 0  0  0 

 -9.307215e-04  -8.597703e-04  0 
 -8.597703e-04  6.202045e-04  0 
 0  0  0 

 -7.132970e-04  -7.489545e-04  0 
 -7.489545e-04  3.918957e-04  0 
 0  0  0 

 -8.932978e-04  -1.218757e-03  0 
 -1.218757e-03  -3.473835e-04  0 
 0  0  0 

 -8.331573e-04  -7.210614e-04  0 
 -7.210614e-04  1.236531e-04  0 
 0  0  0 

 -7.504716e-04  -8.382409e-04  0 
 -8.382409e-04  2.614728e-04  0 
 0  0  0 

 -9.926061e-04  -8.361930e-04  0 
 -8.361930e-04  4.555720e-04  0 
 0  0  0 

 -9.723959e-04  -9.981413e-04  0 
 -9.981413e-04  4.535146e-04  0 
 0  0  0 

 -9.071461e-04  -6.915961e-04  0 
 -6.915961e-04  4.210453e-04  0 
 0  0  0 

 -8.537618e-04  -8.828440e-04  0 
 -8.828440e-04  5.032415e-04  0 
 0  0  0 

 -8.816605e-04  -8.554815e-04  0 
 -8.554815e-04  4.810178e-04  0 
 0  0  0 

 -8.595958e-04  -7.123966e-04  0 
 -7.123966e-04  6.941034e-04  0 
 0  0  0 

 -9.912752e-04  -7.231635e-04  0 
 -7.231635e-04  5.994773e-04  0 
 0  0  0 

 -9.705847e-04  -7.068500e-04  0 
 -7.068500e-04  8.151935e-04  0 
 0  0  0 

 -9.590771e-04  -5.227168e-04  0 
 -5.227168e-04  7.499507e-04  0 
 0  0  0 

TENSORS element_stresses FLOAT
 -9.165177e-04  7.397087e-04  0 
 7.397087e-04  -8.131645e-04  0 
 0  0  0 

 -1.631999e-03  7.217904e-04  0 
 7.217904e-04  1.734735e-04  0 
 0  0  0 

 -1.673093e-03  2.090049e-04  0 
 2.090049e-04  -1.228336e-03  0 
 0  0  0 

 -4.233323e-02  -3.435447e-02  0 
 -3.435447e-02  4.278548e-01  0 
 0  0  0 

 -1.108876e-01  -1.762791e-01  0 
 -1.762791e-01  -1.236687e-02  0 
 0  0  0 

 -5.262944e-01  5.684193e-02  0 
 5.684193e-02  4.875796e-01  0 
 0  0  0 

 -1.629567e-01  3.115565e-01  0 
 3.115565e-01  3.247133e-01  0 
 0  0  0 

 -1.417408e-01  5.741683e-03  0 
 5.741683e-03  2.358148e-01  0 
 0  0  0 

 -4.836044e-01  2.851973e-02  0 
 2.851973e-02  3.090649e-01  0 
 0  0  0 

 -4.815600e-01  -3.950575e-02  0 
 -3.950575e-02  3.153658e-01  0 
 0  0  0 

 -6.206284e-04  -4.422599e-03  0 
 -4.422599e-03  -4.669054e-02  0 
 0  0  0 

 -2.245587e-01  -2.655186e-03  0 
 -2.655186e-03  -4.019357e-02  0 
 0  0  0 

 -6.736800e-01  -1.447027e-02  0 
 -1.447027e-02  5.239523e-01  0 
 0  0  0 

 -2.899163e-01  2.565523e-01  0 
 2.565523e-01  5.760983e-01  0 
 0  0  0 

 -6.710896e-01  -6.734849e-03  0 
 -6.734849e-03  5.260793e-01  0 
 0  0  0 

 -1.735800e-02  -4.129723e-02  0 
 -4.129723e-02  5.409488e-02  0 
 0  0  0 

 -1.489340e-01  1.743054e-01  0 
 1.743054e-01  3.902151e-01  0 
 0  0  0 

 -2.655603e-01  7.642432e-02  0 
 7.642432e-02  3.402402e-02  0 
 0  0  0 

 -1.477071e-01  -1.681593e-01  0 
 -1.681593e-01  3.953394e-01  0 
 0  0  0 

 -7.958882e-04  -1.081573e-03  0 
 -1.081573e-03  -2.106565e-04  0 
 0  0  0 

 -9.047530e-04  -1.047810e-03  0 
 -1.047810e-03  1.691288e-04  0 
 0  0  0 

 -9.580291e-04  -1.149028e-03  0 
 -1.149028e-03  9.747895e-05  0 
 0  0  0 

 -8.707166e-04  -9.159798e-04  0 
 -9.159798e-04  3.885205e-04  0 
 0  0  0 

 -9.770414e-04  -9.269869e-04  0 
 -9.269869e-04  3.676003e-04  0 
 0  0  0 

 -8.522824e-04  -8.289054e-04  0 
 -8.289054e-04  2.360517e-04  0 
 0  0  0 

 -4.479386e-04  -6.897254e-04  0 
 -6.897254e-04  4.279509e-04  0 
 0  0  0 

 -4.205974e-04  -7.782660e-04  0 
 -7.782660e-04  5.185748e-04  0 
 0  0  0 

 -9.497132e-04  -8.385587e-04  0 
 -8.385587e-04  7.138623e-04  0 
 0  0  0 

 -9.307215e-04  -8.597703e-04  0 
 -8.597703e-04  6.202045e-04  0 
 0  0  0 

 -7.132970e-04  -7.489545e-04  0 
 -7.489545e-04  3.918957e-04  0 
 0  0  0 

 -8.932978e-04  -1.218757e-03  0 
 -1.218757e-03  -3.473835e-04  0 
 0  0  0 

 -8.331573e-04  -7.210614e-04  0 
 -7.210614e-04  1.236531e-04  0 
 0  0  0 

 -7.504716e-04  -8.382409e-04  0 
 -8.382409e-04  2.614728e-04  0 
 0  0  0 

 -9.926061e-04  -8.361930e-04  0 
 -8.361930e-04  4.555720e-04  0 
 0  0  0 

 -9.723959e-04  -9.981413e-04  0 
 -9.981413e-04  4.535146e-04  0 
 0  0  0 

 -9.071461e-04  -6.915961e-04  0 
 -6.915961e-04  4.210453e-04  0 
 0  0  0 

 -8.537618e-04  -8.828440e-04  0 
 -8.828440e-04  5.032415e-04  0 
 0  0  0 

 -8.816605e-04  -8.554815e-04  0 
 -8.554815e-04  4.810178e-04  0 
 0  0  0 

 -8.595958e-04  -7.123966e-04  0 
 -7.123966e-04  6.941034e-04  0 
 0  0  0 

 -9.912752e-04  -7.231635e-04  0 
 -7.231635e-04  5.994773e-04  0 
 0  0  0 

 -9.705847e-04  -7.068500e-04  0 
 -7.068500e-04  8.151935e-04  0 
 0  0  0 

 -9.590771e-04  -5.227168e-04  0 
 -5.227168e-04  7.499507e-04  0 
 0  0  0 

