# vtk DataFile Version 3.1
this is an vtk file created by FEMAC
ASCII
DATASET UNSTRUCTURED_GRID
POINTS 31 FLOAT
0.000000 1.000000 0.000000
1.000000 1.000000 0.000000
0.000000 2.000000 0.000000
1.000000 2.000000 0.000000
0.250000 1.000000 0.000000
0.500000 1.000000 0.000000
0.750000 1.000000 0.000000
0.250000 2.000000 0.000000
0.500000 2.000000 0.000000
0.750000 2.000000 0.000000
0.000000 1.250000 0.000000
0.000000 1.500000 0.000000
0.000000 1.750000 0.000000
1.000000 1.250000 0.000000
1.000000 1.500000 0.000000
1.000000 1.750000 0.000000
1.000000 2.250000 0.000000
0.272476 1.537430 0.000000
0.660302 1.785301 0.000000
0.660045 1.212404 0.000000
0.162952 1.171693 0.000000
0.825570 1.361866 0.000000
0.825957 1.628272 0.000000
0.594871 1.497465 0.000000
0.400442 1.782533 0.000000
0.372389 1.253823 0.000000
0.165804 1.339408 0.000000
0.847252 1.832715 0.000000
0.847123 1.164854 0.000000
0.153820 1.761660 0.000000
0.847123 2.164854 0.000000
CELLS 42 168 
3 8 18  9
3 19  5  6
3 4 20  0
3 20 10  0
3 14 22 21
3 23 19 21
3 24 18  8
3 19 25  5
3 23 24 17
3 23 18 24
3 25 23 17
3 19 23 25
3 21 13 14
3 15 22 14
3 25  4  5
3 20  4 25
3 7 24  8
3 23 22 18
3 21 22 23
3 20 26 10
3 9 27  3
3 27 15  3
3 27  9 18
3 28  6  1
3 13 28  1
3 6 28 19
3 26 25 17
3 20 25 26
3 27 22 15
3 18 22 27
3 21 28 13
3 21 19 28
3 26 11 10
3 11 26 17
3 29  7  2
3 12 29  2
3 11 29 12
3 24 29 17
3 29 24  7
3 11 17 29
3 30  9  3
3 16 30  3
CELL_TYPES 42
5 5 5 5 5 5 5 5 5 5 5 5 5 5 5 5 5 5 5 5 5 5 5 5 5 5 5 5 5 5 5 5 5 5 5 5 5 5 5 5 5 5 
POINT_DATA 31
VECTORS displacement_ITER1 FLOAT
 0  0  0 
 -1.236367e-03  2.082269e-02  0 
 0  0  0 
 -8.724866e-02  8.113666e-02  0 
 8.744271e-04  -5.089274e-04  0 
 1.321329e-03  3.216166e-03  0 
 6.427368e-04  1.322656e-02  0 
 -2.204391e-02  1.484901e-02  0 
 -4.949549e-02  1.929149e-02  0 
 -8.719989e-02  2.562715e-02  0 
 0  0  0 
 0  0  0 
 0  0  0 
 -1.292891e-02  1.842520e-02  0 
 -2.649804e-02  2.426159e-02  0 
 -5.015822e-02  4.791732e-02  0 
 -1.427812e-01  8.116375e-02  0 
 -7.920899e-03  -4.802775e-03  0 
 -3.806882e-02  1.029240e-02  0 
 -6.708045e-03  7.194975e-03  0 
 -1.531614e-03  -2.537262e-03  0 
 -1.428436e-02  1.383302e-02  0 
 -2.831791e-02  2.253886e-02  0 
 -1.462681e-02  4.150719e-03  0 
 -2.372950e-02  1.336428e-03  0 
 -4.335891e-03  -1.958074e-03  0 
 -3.073661e-03  -3.441865e-03  0 
 -5.200573e-02  4.018782e-02  0 
 -7.092598e-03  1.430033e-02  0 
 -6.349166e-03  -2.122488e-03  0 
 -1.238555e-01  4.720901e-02  0 
VECTORS displacement_ITER2 FLOAT
 0  0  0 
 -1.458278e-02  9.512785e-03  0 
 0  0  0 
 -6.794182e-03  -2.166745e-02  0 
 -5.196892e-03  -5.190391e-03  0 
 -1.053094e-02  -6.356944e-03  0 
 -1.346516e-02  -6.068975e-04  0 
 -9.729674e-04  -8.314570e-04  0 
 -1.785751e-03  -8.742152e-03  0 
 -6.774360e-03  -3.104314e-02  0 
 0  0  0 
 0  0  0 
 0  0  0 
 -2.354218e-02  -7.902113e-03  0 
 -1.821056e-02  -2.052298e-02  0 
 -9.333973e-03  -3.437747e-02  0 
 -1.624952e-02  -2.161754e-02  0 
 -6.617149e-03  -1.753329e-03  0 
 -9.078692e-03  -1.595638e-02  0 
 -1.764073e-02  -6.066124e-03  0 
 -3.838494e-03  -2.967389e-03  0 
 -2.068845e-02  -9.188012e-03  0 
 -1.436282e-02  -1.761978e-02  0 
 -1.521744e-02  -7.213371e-03  0 
 -6.398500e-03  -3.785439e-03  0 
 -1.017065e-02  -4.752116e-03  0 
 -4.114217e-03  -1.768548e-03  0 
 -4.734109e-03  -2.495319e-02  0 
 -2.045369e-02  -4.005047e-03  0 
 -2.439546e-03  4.610388e-04  0 
 -1.301670e-02  -2.739660e-02  0 
VECTORS displacement_ITER3 FLOAT
 0  0  0 
 -2.550309e-02  3.065904e-02  0 
 0  0  0 
 6.228026e-03  5.351357e-03  0 
 -1.185318e-03  6.171777e-03  0 
 -9.354129e-03  1.163927e-02  0 
 -2.158391e-02  1.779362e-02  0 
 -1.150965e-03  1.350794e-04  0 
 -1.317924e-04  3.188951e-03  0 
 6.236073e-03  -1.082607e-03  0 
 0  0  0 
 0  0  0 
 0  0  0 
 -2.753016e-02  8.400097e-03  0 
 -1.131317e-02  1.145480e-02  0 
 1.554370e-03  -2.770393e-03  0 
 -2.650447e-04  5.372184e-03  0 
 -4.529067e-03  8.206556e-03  0 
 -1.111374e-03  9.112449e-03  0 
 -1.744708e-02  1.828494e-02  0 
 -2.796244e-03  3.239982e-03  0 
 -1.592501e-02  1.682095e-02  0 
 -6.703685e-03  1.058363e-02  0 
 -9.483775e-03  1.518282e-02  0 
 -2.332435e-03  7.697528e-03  0 
 -8.726722e-03  1.151242e-02  0 
 -3.576753e-03  5.007483e-03  0 
 4.518231e-03  2.931872e-03  0 
 -2.617913e-02  1.663470e-02  0 
 -2.088207e-03  3.587929e-03  0 
 1.956092e-03  1.401545e-03  0 
VECTORS displacement_ITER4 FLOAT
 0  0  0 
 -1.429752e-02  2.490646e-02  0 
 0  0  0 
 5.624074e-04  -3.717202e-04  0 
 9.588753e-04  1.288621e-03  0 
 1.201766e-03  -1.786287e-03  0 
 -4.079000e-03  3.190090e-03  0 
 4.229179e-05  -1.865933e-03  0 
 2.794073e-04  -1.321027e-03  0 
 5.673435e-04  -1.697757e-03  0 
 0  0  0 
 0  0  0 
 0  0  0 
 -1.010151e-02  -4.494927e-04  0 
 -7.033256e-03  3.926481e-03  0 
 1.886567e-04  3.856740e-03  0 
 -7.697272e-04  -2.941048e-04  0 
 -1.821014e-03  1.566014e-03  0 
 -1.477340e-03  1.748872e-03  0 
 -8.083192e-03  5.604451e-03  0 
 -7.902484e-04  -1.262581e-04  0 
 -6.918556e-03  5.439555e-03  0 
 -2.775239e-03  4.831273e-03  0 
 -3.919450e-03  4.925112e-03  0 
 -1.480245e-03  1.209725e-03  0 
 -2.731757e-03  1.377747e-03  0 
 -1.079265e-03  5.651316e-04  0 
 -2.915036e-04  1.170433e-03  0 
 -1.359652e-02  9.649832e-03  0 
 -9.960139e-04  5.769409e-04  0 
 -2.723298e-04  -1.160228e-03  0 
VECTORS displacement_ITER5 FLOAT
 0  0  0 
 -3.087107e-03  -8.233726e-04  0 
 0  0  0 
 4.549662e-04  5.197031e-04  0 
 5.581578e-04  3.236757e-04  0 
 2.852021e-03  1.348022e-03  0 
 3.118357e-03  2.765003e-04  0 
 4.025916e-04  1.711073e-04  0 
 5.359591e-04  4.131162e-04  0 
 4.640679e-04  -2.029284e-04  0 
 0  0  0 
 0  0  0 
 0  0  0 
 5.283578e-04  -1.460428e-04  0 
 -2.081230e-03  6.109256e-03  0 
 -1.976916e-03  3.829691e-03  0 
 -2.962338e-04  6.456081e-04  0 
 -1.380910e-04  -1.155088e-04  0 
 -1.428324e-03  1.262448e-03  0 
 1.134807e-03  1.280081e-03  0 
 9.780880e-05  -1.403588e-04  0 
 7.967733e-04  1.902918e-03  0 
 -2.037416e-03  2.762517e-03  0 
 -4.057323e-04  2.044026e-04  0 
 -4.880921e-04  3.513652e-04  0 
 3.252959e-04  -4.425275e-04  0 
 1.184319e-04  -2.310055e-04  0 
 -1.293655e-03  1.737819e-03  0 
 4.005192e-04  2.224592e-03  0 
 -9.093983e-05  1.714767e-04  0 
 1.640485e-05  9.834684e-05  0 
VECTORS displacement_ITER6 FLOAT
 0  0  0 
 -5.532949e-04  -3.078263e-04  0 
 0  0  0 
 -1.820567e-04  2.173469e-04  0 
 -7.558471e-04  -3.293541e-04  0 
 -9.033601e-04  -6.948303e-04  0 
 -4.838569e-04  4.875541e-04  0 
 -1.794275e-03  -3.314845e-04  0 
 2.775167e-04  -4.226686e-04  0 
 -1.390405e-04  4.296002e-04  0 
 0  0  0 
 0  0  0 
 0  0  0 
 -1.300634e-03  -5.034838e-04  0 
 -2.597259e-03  -1.659725e-03  0 
 -3.216322e-04  1.994263e-03  0 
 8.442514e-05  2.899804e-04  0 
 -6.467721e-05  1.282231e-04  0 
 -2.947952e-04  2.348233e-04  0 
 -1.301197e-03  -6.800377e-04  0 
 -2.286719e-04  5.742341e-05  0 
 -1.846105e-03  -8.994053e-04  0 
 -4.301156e-04  6.268675e-04  0 
 -5.551108e-04  4.234837e-04  0 
 -4.326600e-04  6.669717e-04  0 
 -4.575964e-04  -1.401769e-04  0 
 -1.336348e-04  1.001600e-04  0 
 -5.265265e-04  7.091993e-04  0 
 -9.296620e-04  -2.909482e-04  0 
 -2.686220e-04  -4.149760e-04  0 
 2.741280e-05  3.896795e-04  0 
VECTORS displacement_ITER7 FLOAT
 0  0  0 
 -6.908640e-04  -2.216035e-04  0 
 0  0  0 
 -2.215884e-04  -2.558099e-04  0 
 -3.460700e-05  7.470800e-04  0 
 3.980651e-05  -5.442093e-05  0 
 1.904704e-04  3.030839e-04  0 
 -2.172022e-04  -2.912265e-04  0 
 -4.915930e-04  -2.290240e-04  0 
 -1.308734e-04  -2.327337e-04  0 
 0  0  0 
 0  0  0 
 0  0  0 
 -7.881630e-04  7.303774e-05  0 
 -3.077833e-04  -4.670294e-04  0 
 -3.903343e-04  5.618183e-04  0 
 -1.505875e-04  -2.159695e-04  0 
 -1.209021e-04  -2.996300e-05  0 
 -2.481694e-04  -5.159885e-06  0 
 -3.125137e-04  3.251913e-05  0 
 -1.161582e-04  2.340441e-04  0 
 -5.322531e-04  1.476071e-04  0 
 -9.507050e-05  4.484773e-05  0 
 -1.926235e-04  2.021300e-04  0 
 -2.187685e-04  -1.555911e-04  0 
 -9.590825e-06  1.177438e-04  0 
 -4.555765e-05  5.174876e-05  0 
 -3.652442e-04  4.094812e-05  0 
 -4.028748e-04  2.419972e-04  0 
 -1.183017e-04  -1.116395e-04  0 
 -1.596181e-04  -2.043378e-04  0 
VECTORS displacement_ITER8 FLOAT
 0  0  0 
 -5.165115e-04  -1.510477e-04  0 
 0  0  0 
 -2.765816e-04  -2.725566e-04  0 
 1.687076e-04  -6.355092e-05  0 
 -2.594030e-04  -5.425531e-05  0 
 -1.237348e-04  1.161512e-04  0 
 -6.696744e-05  -1.950678e-04  0 
 -8.928863e-05  4.129870e-05  0 
 -1.869248e-04  -1.007286e-04  0 
 0  0  0 
 0  0  0 
 0  0  0 
 -6.346441e-04  -2.086899e-04  0 
 -6.809462e-04  -4.234427e-04  0 
 -6.165913e-04  -3.627191e-04  0 
 -4.022701e-05  -2.125914e-04  0 
 -1.597960e-04  1.677378e-05  0 
 -2.935738e-04  -6.455003e-05  0 
 -4.366682e-04  -1.458752e-04  0 
 -3.934246e-05  -1.187823e-04  0 
 -5.854706e-04  -2.023180e-04  0 
 -5.037323e-04  -2.270231e-04  0 
 -3.756204e-04  -8.454123e-05  0 
 -1.259836e-04  -3.380599e-06  0 
 -2.369538e-04  1.125004e-05  0 
 -9.757002e-05  -2.781742e-05  0 
 -3.868565e-04  -1.649466e-04  0 
 -4.489741e-04  -3.291859e-05  0 
 -7.955962e-05  -1.125303e-05  0 
 -9.694790e-05  -1.216380e-04  0 
VECTORS displacement_ITER9 FLOAT
 0  0  0 
 -4.304762e-04  -8.253739e-05  0 
 0  0  0 
 -2.342733e-04  -1.934161e-04  0 
 2.826247e-05  -5.203125e-05  0 
 -9.503690e-05  -5.452384e-05  0 
 -1.935349e-04  1.725821e-05  0 
 -3.878841e-05  -3.765297e-05  0 
 -6.852284e-05  -4.286520e-05  0 
 -1.431389e-04  -1.256762e-04  0 
 0  0  0 
 0  0  0 
 0  0  0 
 -5.868031e-04  -2.422083e-04  0 
 -6.677374e-04  -1.359268e-04  0 
 -2.586611e-04  -1.434114e-04  0 
 -8.792049e-05  -1.460110e-04  0 
 -1.245512e-04  8.808731e-06  0 
 -2.308071e-04  -2.222536e-05  0 
 -3.495366e-04  -6.104469e-05  0 
 -4.766602e-05  -6.647657e-05  0 
 -4.804880e-04  -1.102707e-04  0 
 -3.787125e-04  3.336986e-06  0 
 -2.892334e-04  -1.737165e-06  0 
 -1.340283e-04  1.184472e-05  0 
 -1.749384e-04  -3.114028e-05  0 
 -7.065378e-05  -2.194551e-05  0 
 -2.242571e-04  -1.249640e-04  0 
 -4.362995e-04  -7.376746e-05  0 
 -5.753734e-05  1.684443e-05  0 
 -1.124839e-04  -9.853963e-05  0 
VECTORS displacement_ITER10 FLOAT
 0  0  0 
 -5.018216e-04  -8.094458e-05  0 
 0  0  0 
 -1.979063e-04  -1.478525e-04  0 
 3.870554e-06  -3.881825e-05  0 
 -6.299327e-05  -5.226657e-05  0 
 -2.576822e-04  -3.636975e-05  0 
 -3.774966e-05  -3.658828e-05  0 
 -7.166785e-05  -5.171375e-05  0 
 -1.180171e-04  -9.358804e-05  0 
 0  0  0 
 0  0  0 
 0  0  0 
 -6.352553e-04  -1.391829e-04  0 
 -5.563293e-04  -1.797918e-04  0 
 -4.427301e-04  -1.310098e-04  0 
 -7.294619e-05  -1.134943e-04  0 
 -1.351214e-04  7.551258e-06  0 
 -2.355648e-04  -2.626701e-05  0 
 -3.446077e-04  -2.648170e-05  0 
 -5.655794e-05  -5.980233e-05  0 
 -4.853174e-04  -5.102841e-05  0 
 -3.921836e-04  -7.476968e-05  0 
 -3.227992e-04  -1.947521e-06  0 
 -1.405514e-04  1.451119e-05  0 
 -1.779340e-04  -4.987600e-05  0 
 -7.191921e-05  -2.495722e-05  0 
 -2.866334e-04  -7.704720e-05  0 
 -4.703365e-04  -5.785224e-05  0 
 -6.000281e-05  2.021523e-05  0 
 -9.375692e-05  -7.570721e-05  0 
VECTORS displacement_ITER11 FLOAT
 0  0  0 
 -4.815811e-04  -8.257722e-05  0 
 0  0  0 
 -2.008649e-04  -1.466850e-04  0 
 -3.293410e-05  1.881085e-06  0 
 -1.083977e-04  -1.186155e-05  0 
 -2.322320e-04  -3.642604e-05  0 
 -3.823496e-05  -3.537175e-05  0 
 -7.340364e-05  -5.070172e-05  0 
 -1.186190e-04  -8.698501e-05  0 
 0  0  0 
 0  0  0 
 0  0  0 
 -6.210813e-04  -1.946005e-04  0 
 -5.967637e-04  -1.903848e-04  0 
 -4.474283e-04  -1.510785e-04  0 
 -6.718322e-05  -1.174257e-04  0 
 -1.338957e-04  1.304298e-05  0 
 -2.398616e-04  -2.066221e-05  0 
 -3.466489e-04  -5.006942e-05  0 
 -6.921214e-05  -3.347389e-05  0 
 -4.864523e-04  -8.739103e-05  0 
 -4.094600e-04  -7.525520e-05  0 
 -3.181728e-04  -1.443981e-05  0 
 -1.392186e-04  1.378905e-05  0 
 -1.845298e-04  -3.256858e-05  0 
 -7.575218e-05  -1.150791e-05  0 
 -2.879079e-04  -7.993217e-05  0 
 -4.635814e-04  -7.551853e-05  0 
 -6.013142e-05  2.109981e-05  0 
 -9.342878e-05  -7.099553e-05  0 
VECTORS displacement_ITER12 FLOAT
 0  0  0 
 -4.844434e-04  -8.191729e-05  0 
 0  0  0 
 -2.020503e-04  -1.471078e-04  0 
 -3.707704e-05  4.788534e-06  0 
 -1.069913e-04  -2.366499e-05  0 
 -2.331440e-04  -3.673941e-05  0 
 -3.797161e-05  -3.496273e-05  0 
 -7.276583e-05  -5.086312e-05  0 
 -1.195991e-04  -8.690175e-05  0 
 0  0  0 
 0  0  0 
 0  0  0 
 -6.200397e-04  -1.866002e-04  0 
 -5.984876e-04  -1.858561e-04  0 
 -4.467729e-04  -1.516099e-04  0 
 -6.680432e-05  -1.174751e-04  0 
 -1.337994e-04  1.207624e-05  0 
 -2.406652e-04  -2.055237e-05  0 
 -3.476715e-04  -5.198068e-05  0 
 -7.011121e-05  -3.181965e-05  0 
 -4.881292e-04  -8.574067e-05  0 
 -4.109655e-04  -7.369144e-05  0 
 -3.194065e-04  -1.418003e-05  0 
 -1.397474e-04  1.410329e-05  0 
 -1.826214e-04  -3.651877e-05  0 
 -7.493389e-05  -1.210760e-05  0 
 -2.881870e-04  -8.019975e-05  0 
 -4.631087e-04  -7.268548e-05  0 
 -6.007977e-05  2.103019e-05  0 
 -9.352746e-05  -7.032365e-05  0 
VECTORS displacement_ITER13 FLOAT
 0  0  0 
 -4.842643e-04  -8.201257e-05  0 
 0  0  0 
 -2.021661e-04  -1.472919e-04  0 
 -3.716760e-05  4.732030e-06  0 
 -1.070406e-04  -2.363762e-05  0 
 -2.330103e-04  -3.697644e-05  0 
 -3.800986e-05  -3.485818e-05  0 
 -7.281509e-05  -5.087645e-05  0 
 -1.197032e-04  -8.722333e-05  0 
 0  0  0 
 0  0  0 
 0  0  0 
 -6.199598e-04  -1.870526e-04  0 
 -5.983923e-04  -1.860725e-04  0 
 -4.468330e-04  -1.516866e-04  0 
 -6.704780e-05  -1.176476e-04  0 
 -1.337839e-04  1.200817e-05  0 
 -2.407393e-04  -2.075293e-05  0 
 -3.476035e-04  -5.216910e-05  0 
 -7.012637e-05  -3.182559e-05  0 
 -4.880165e-04  -8.597930e-05  0 
 -4.109399e-04  -7.389899e-05  0 
 -3.193643e-04  -1.437616e-05  0 
 -1.397840e-04  1.403861e-05  0 
 -1.826263e-04  -3.659369e-05  0 
 -7.493622e-05  -1.213070e-05  0 
 -2.882643e-04  -8.040376e-05  0 
 -4.630670e-04  -7.294602e-05  0 
 -6.007087e-05  2.101365e-05  0 
 -9.371203e-05  -7.060274e-05  0 
VECTORS displacement_ITER14 FLOAT
 0  0  0 
 -4.842459e-04  -8.200982e-05  0 
 0  0  0 
 -2.021586e-04  -1.473004e-04  0 
 -3.713807e-05  4.775584e-06  0 
 -1.070427e-04  -2.365290e-05  0 
 -2.330443e-04  -3.694834e-05  0 
 -3.800209e-05  -3.485545e-05  0 
 -7.280219e-05  -5.087208e-05  0 
 -1.196966e-04  -8.724450e-05  0 
 0  0  0 
 0  0  0 
 0  0  0 
 -6.199841e-04  -1.870604e-04  0 
 -5.984161e-04  -1.860577e-04  0 
 -4.468617e-04  -1.516635e-04  0 
 -6.705124e-05  -1.176665e-04  0 
 -1.337892e-04  1.201418e-05  0 
 -2.407516e-04  -2.075173e-05  0 
 -3.476183e-04  -5.215834e-05  0 
 -7.012628e-05  -3.181930e-05  0 
 -4.880303e-04  -8.597778e-05  0 
 -4.109567e-04  -7.389170e-05  0 
 -3.193730e-04  -1.436749e-05  0 
 -1.397887e-04  1.404477e-05  0 
 -1.826243e-04  -3.657821e-05  0 
 -7.493713e-05  -1.212700e-05  0 
 -2.882782e-04  -8.039969e-05  0 
 -4.630802e-04  -7.295607e-05  0 
 -6.007269e-05  2.101950e-05  0 
 -9.371866e-05  -7.062360e-05  0 
CELL_DATA 42
TENSORS element_stresses FLOAT
 -2.881906e-04  3.820883e-04  0 
 3.820883e-04  -3.353764e-04  0 
 0  0  0 

 -5.848854e-04  -6.200378e-04  0 
 -6.200378e-04  -2.695975e-04  0 
 0  0  0 

 -2.303178e-04  -1.910373e-04  0 
 -1.910373e-04  -2.725518e-04  0 
 0  0  0 

 -4.729127e-04  -1.502065e-04  0 
 -1.502065e-04  -1.418738e-04  0 
 0  0  0 

 -9.330346e-04  -2.460152e-04  0 
 -2.460152e-04  -2.336555e-04  0 
 0  0  0 

 -8.307012e-04  -2.670797e-04  0 
 -2.670797e-04  -1.780444e-04  0 
 0  0  0 

 -5.112551e-04  2.745528e-04  0 
 2.745528e-04  -3.917497e-04  0 
 0  0  0 

 -7.580678e-04  -5.370617e-04  0 
 -5.370617e-04  -3.116724e-04  0 
 0  0  0 

 -5.814596e-04  1.410663e-04  0 
 1.410663e-04  -1.265311e-04  0 
 0  0  0 

 -4.284666e-04  1.756542e-04  0 
 1.756542e-04  -1.202610e-04  0 
 0  0  0 

 -5.878054e-04  -7.335223e-05  0 
 -7.335223e-05  -2.732536e-05  0 
 0  0  0 

 -5.945832e-04  -5.339413e-05  0 
 -5.339413e-05  -5.409596e-05  0 
 0  0  0 

 -7.691792e-04  -3.774284e-04  0 
 -3.774284e-04  -2.267430e-04  0 
 0  0  0 

 -6.472784e-04  4.856928e-05  0 
 4.856928e-05  -5.660662e-05  0 
 0  0  0 

 -3.429082e-04  -4.246664e-04  0 
 -4.246664e-04  -2.109652e-04  0 
 0  0  0 

 -4.850903e-04  -2.589775e-04  0 
 -2.589775e-04  -3.329298e-04  0 
 0  0  0 

 -2.417091e-04  2.366854e-04  0 
 2.366854e-04  -3.416958e-04  0 
 0  0  0 

 -6.810667e-04  1.043567e-04  0 
 1.043567e-04  -1.625747e-04  0 
 0  0  0 

 -6.008905e-04  5.096223e-06  0 
 5.096223e-06  -1.344877e-04  0 
 0  0  0 

 -4.446242e-04  -1.222401e-04  0 
 -1.222401e-04  -1.363014e-05  0 
 0  0  0 

 -4.219995e-04  4.428981e-04  0 
 4.428981e-04  -3.071714e-04  0 
 0  0  0 

 -5.526696e-04  4.013222e-04  0 
 4.013222e-04  -1.483484e-04  0 
 0  0  0 

 -5.532832e-04  3.695692e-04  0 
 3.695692e-04  -3.632959e-04  0 
 0  0  0 

 -1.141182e-03  -7.566628e-04  0 
 -7.566628e-04  -4.545857e-04  0 
 0  0  0 

 -9.340647e-04  -8.117673e-04  0 
 -8.117673e-04  -7.004218e-04  0 
 0  0  0 

 -9.727282e-04  -8.018297e-04  0 
 -8.018297e-04  -4.248271e-04  0 
 0  0  0 

 -5.288850e-04  -5.298230e-05  0 
 -5.298230e-05  -6.871283e-06  0 
 0  0  0 

 -5.426885e-04  -6.839179e-05  0 
 -6.839179e-05  -4.421412e-05  0 
 0  0  0 

 -7.367242e-04  1.634134e-04  0 
 1.634134e-04  -2.051500e-04  0 
 0  0  0 

 -4.582434e-04  2.493227e-04  0 
 2.493227e-04  -1.360349e-04  0 
 0  0  0 

 -1.035924e-03  -6.877062e-04  0 
 -6.877062e-04  -4.500426e-04  0 
 0  0  0 

 -7.605470e-04  -2.548835e-04  0 
 -2.548835e-04  -3.086609e-04  0 
 0  0  0 

 -4.966631e-04  -5.626214e-05  0 
 -5.626214e-05  -1.489989e-04  0 
 0  0  0 

 -4.992978e-04  -4.444316e-06  0 
 -4.444316e-06  -4.378570e-05  0 
 0  0  0 

 -2.257800e-04  1.117053e-05  0 
 1.117053e-05  -2.459055e-04  0 
 0  0  0 

 -4.291647e-04  1.051156e-04  0 
 1.051156e-04  -1.287494e-04  0 
 0  0  0 

 -4.291647e-04  1.051156e-04  0 
 1.051156e-04  -1.287494e-04  0 
 0  0  0 

 -3.612881e-04  9.278908e-05  0 
 9.278908e-05  -8.427098e-05  0 
 0  0  0 

 -4.527999e-04  1.709136e-04  0 
 1.709136e-04  -3.667478e-04  0 
 0  0  0 

 -5.297599e-04  7.708766e-05  0 
 7.708766e-05  -9.973712e-05  0 
 0  0  0 

 -2.825753e-01  8.591297e-02  0 
 8.591297e-02  1.575761e-01  0 
 0  0  0 

 -9.999895e-02  1.282255e-01  0 
 1.282255e-01  8.853583e-02  0 
 0  0  0 

TENSORS element_stresses FLOAT
 -2.881906e-04  3.820883e-04  0 
 3.820883e-04  -3.353764e-04  0 
 0  0  0 

 -5.848854e-04  -6.200378e-04  0 
 -6.200378e-04  -2.695975e-04  0 
 0  0  0 

 -2.303178e-04  -1.910373e-04  0 
 -1.910373e-04  -2.725518e-04  0 
 0  0  0 

 -4.729127e-04  -1.502065e-04  0 
 -1.502065e-04  -1.418738e-04  0 
 0  0  0 

 -9.330346e-04  -2.460152e-04  0 
 -2.460152e-04  -2.336555e-04  0 
 0  0  0 

 -8.307012e-04  -2.670797e-04  0 
 -2.670797e-04  -1.780444e-04  0 
 0  0  0 

 -5.112551e-04  2.745528e-04  0 
 2.745528e-04  -3.917497e-04  0 
 0  0  0 

 -7.580678e-04  -5.370617e-04  0 
 -5.370617e-04  -3.116724e-04  0 
 0  0  0 

 -5.814596e-04  1.410663e-04  0 
 1.410663e-04  -1.265311e-04  0 
 0  0  0 

 -4.284666e-04  1.756542e-04  0 
 1.756542e-04  -1.202610e-04  0 
 0  0  0 

 -5.878054e-04  -7.335223e-05  0 
 -7.335223e-05  -2.732536e-05  0 
 0  0  0 

 -5.945832e-04  -5.339413e-05  0 
 -5.339413e-05  -5.409596e-05  0 
 0  0  0 

 -7.691792e-04  -3.774284e-04  0 
 -3.774284e-04  -2.267430e-04  0 
 0  0  0 

 -6.472784e-04  4.856928e-05  0 
 4.856928e-05  -5.660662e-05  0 
 0  0  0 

 -3.429082e-04  -4.246664e-04  0 
 -4.246664e-04  -2.109652e-04  0 
 0  0  0 

 -4.850903e-04  -2.589775e-04  0 
 -2.589775e-04  -3.329298e-04  0 
 0  0  0 

 -2.417091e-04  2.366854e-04  0 
 2.366854e-04  -3.416958e-04  0 
 0  0  0 

 -6.810667e-04  1.043567e-04  0 
 1.043567e-04  -1.625747e-04  0 
 0  0  0 

 -6.008905e-04  5.096223e-06  0 
 5.096223e-06  -1.344877e-04  0 
 0  0  0 

 -4.446242e-04  -1.222401e-04  0 
 -1.222401e-04  -1.363014e-05  0 
 0  0  0 

 -4.219995e-04  4.428981e-04  0 
 4.428981e-04  -3.071714e-04  0 
 0  0  0 

 -5.526696e-04  4.013222e-04  0 
 4.013222e-04  -1.483484e-04  0 
 0  0  0 

 -5.532832e-04  3.695692e-04  0 
 3.695692e-04  -3.632959e-04  0 
 0  0  0 

 -1.141182e-03  -7.566628e-04  0 
 -7.566628e-04  -4.545857e-04  0 
 0  0  0 

 -9.340647e-04  -8.117673e-04  0 
 -8.117673e-04  -7.004218e-04  0 
 0  0  0 

 -9.727282e-04  -8.018297e-04  0 
 -8.018297e-04  -4.248271e-04  0 
 0  0  0 

 -5.288850e-04  -5.298230e-05  0 
 -5.298230e-05  -6.871283e-06  0 
 0  0  0 

 -5.426885e-04  -6.839179e-05  0 
 -6.839179e-05  -4.421412e-05  0 
 0  0  0 

 -7.367242e-04  1.634134e-04  0 
 1.634134e-04  -2.051500e-04  0 
 0  0  0 

 -4.582434e-04  2.493227e-04  0 
 2.493227e-04  -1.360349e-04  0 
 0  0  0 

 -1.035924e-03  -6.877062e-04  0 
 -6.877062e-04  -4.500426e-04  0 
 0  0  0 

 -7.605470e-04  -2.548835e-04  0 
 -2.548835e-04  -3.086609e-04  0 
 0  0  0 

 -4.966631e-04  -5.626214e-05  0 
 -5.626214e-05  -1.489989e-04  0 
 0  0  0 

 -4.992978e-04  -4.444316e-06  0 
 -4.444316e-06  -4.378570e-05  0 
 0  0  0 

 -2.257800e-04  1.117053e-05  0 
 1.117053e-05  -2.459055e-04  0 
 0  0  0 

 -4.291647e-04  1.051156e-04  0 
 1.051156e-04  -1.287494e-04  0 
 0  0  0 

 -4.291647e-04  1.051156e-04  0 
 1.051156e-04  -1.287494e-04  0 
 0  0  0 

 -3.612881e-04  9.278908e-05  0 
 9.278908e-05  -8.427098e-05  0 
 0  0  0 

 -4.527999e-04  1.709136e-04  0 
 1.709136e-04  -3.667478e-04  0 
 0  0  0 

 -5.297599e-04  7.708766e-05  0 
 7.708766e-05  -9.973712e-05  0 
 0  0  0 

 -2.825753e-01  8.591297e-02  0 
 8.591297e-02  1.575761e-01  0 
 0  0  0 

 -9.999895e-02  1.282255e-01  0 
 1.282255e-01  8.853583e-02  0 
 0  0  0 

